/*--------------------------------*- C++ -*----------------------------------*\
| =========                 |                                                 |
| \\      /  F ield         | OpenFOAM: The Open Source CFD Toolbox           |
|  \\    /   O peration     | Version:  2.4.0                                 |
|   \\  /    A nd           | Web:      www.OpenFOAM.org                      |
|    \\/     M anipulation  |                                                 |
\*---------------------------------------------------------------------------*/
FoamFile
{
    version     2.0;
    format      ascii;
    class       volScalarField;
    location    "0.15";
    object      alpha.mercury;
}
// * * * * * * * * * * * * * * * * * * * * * * * * * * * * * * * * * * * * * //

dimensions      [0 0 0 0 0 0 0];

internalField   nonuniform List<scalar> 
559
(
6.09101e-29
6.7018e-28
1.0006e-26
1.55988e-25
1.60441e-24
8.87775e-24
3.57892e-23
2.3833e-55
1.15144e-52
3.15768e-50
6.62646e-48
1.21107e-45
1.70798e-43
1.59827e-41
9.59587e-40
3.86269e-38
1.08282e-36
2.2129e-35
3.51403e-34
4.58142e-33
5.60128e-32
7.40523e-31
1.03137e-29
1.34008e-28
1.46942e-27
1.28854e-26
8.62224e-26
4.34637e-25
1.80625e-24
6.53814e-24
3.12144e-54
1.39517e-51
3.05877e-49
4.22551e-47
4.0887e-45
2.92654e-43
1.5856e-41
6.62804e-40
2.17174e-38
5.68493e-37
1.22334e-35
2.20566e-34
3.27677e-33
4.17847e-32
4.73599e-31
4.74842e-30
4.16081e-29
3.13405e-28
1.98754e-27
1.05696e-26
4.89359e-26
2.11748e-25
7.89348e-25
1.60986e-55
7.47503e-53
1.68981e-50
2.42814e-48
2.45149e-46
1.8154e-44
1.00833e-42
4.27506e-41
1.40707e-39
3.66628e-38
7.73299e-37
1.3304e-35
1.87086e-34
2.28144e-33
2.51354e-32
2.50066e-31
2.20626e-30
1.68039e-29
1.08262e-28
5.98895e-28
2.98989e-27
1.42499e-26
6.21081e-26
4.92479e-57
2.14866e-54
4.48429e-52
5.88878e-50
5.40702e-48
3.65924e-46
1.88355e-44
7.54397e-43
2.39891e-41
6.18427e-40
1.31806e-38
2.35047e-37
3.55401e-36
4.70644e-35
5.54958e-34
5.85325e-33
5.48766e-32
4.51849e-31
3.24164e-30
2.04067e-29
1.1637e-28
6.33326e-28
3.35546e-27
6.3889e-59
2.62498e-56
5.16246e-54
6.42921e-52
5.6597e-50
3.7336e-48
1.91357e-46
7.82034e-45
2.60234e-43
7.17842e-42
1.66502e-40
3.2762e-39
5.51692e-38
8.05254e-37
1.03107e-35
1.16172e-34
1.15003e-33
1.00489e-32
7.90672e-32
5.70949e-31
3.81045e-30
2.3984e-29
1.44737e-28
4.47732e-61
1.85738e-58
3.68894e-56
4.66402e-54
4.19853e-52
2.8559e-50
1.52241e-48
6.52347e-47
2.29093e-45
6.69575e-44
1.64784e-42
3.45173e-41
6.23962e-40
9.86444e-39
1.38125e-37
1.73044e-36
1.95288e-35
1.98826e-34
1.81615e-33
1.48558e-32
1.11471e-31
7.94111e-31
5.49173e-30
2.14581e-63
9.22859e-61
1.90477e-58
2.50956e-56
2.3635e-54
1.68935e-52
9.50729e-51
4.32037e-49
1.61542e-47
5.04682e-46
1.33598e-44
3.03932e-43
6.02296e-42
1.05067e-40
1.62367e-39
2.23391e-38
2.75093e-37
3.05789e-36
3.10305e-35
2.92066e-34
2.58851e-33
2.18174e-32
1.76162e-31
7.07516e-66
3.1702e-63
6.81531e-61
9.37371e-59
9.24924e-57
6.96188e-55
4.15332e-53
2.01667e-51
8.12954e-50
2.76354e-48
8.02562e-47
2.01436e-45
4.41584e-44
8.53995e-43
1.47176e-41
2.27965e-40
3.19983e-39
4.1e-38
4.82749e-37
5.26391e-36
5.37596e-35
5.2175e-34
4.87087e-33
1.67969e-68
7.969e-66
1.81956e-63
2.66581e-61
2.81232e-59
2.27269e-57
1.46224e-55
7.69241e-54
3.3751e-52
1.2549e-50
4.00853e-49
1.11359e-47
2.71962e-46
5.89384e-45
1.14291e-43
1.99928e-42
3.17968e-41
4.63401e-40
6.24089e-39
7.84239e-38
9.28351e-37
1.04381e-35
1.12425e-34
2.8844e-71
1.4695e-68
3.60627e-66
5.69137e-64
6.48678e-62
5.68423e-60
3.98271e-58
2.29264e-56
1.10645e-54
4.54946e-53
1.61535e-51
5.01095e-50
1.37223e-48
3.34882e-47
7.34626e-46
1.46013e-44
2.64946e-43
4.42154e-42
6.83838e-41
9.88142e-40
1.34556e-38
1.74165e-37
2.16092e-36
3.70321e-74
2.0465e-71
5.45846e-69
9.38442e-67
1.16853e-64
1.12248e-62
8.65459e-61
5.50514e-59
2.94866e-57
1.35155e-55
5.37268e-54
1.87353e-52
5.78866e-51
1.59894e-49
3.98112e-48
9.00509e-47
1.8645e-45
3.56034e-44
6.31841e-43
1.05036e-41
1.64857e-40
2.46175e-39
3.52425e-38
3.56e-77
2.16043e-74
6.33655e-72
1.20041e-69
1.65114e-67
1.75704e-65
1.50547e-63
1.06772e-61
6.39806e-60
3.29186e-58
1.47358e-56
5.80397e-55
2.03134e-53
6.37397e-52
1.80789e-50
4.67134e-49
1.10784e-47
2.42941e-46
4.96295e-45
9.51557e-44
1.72506e-42
2.97847e-41
4.93352e-40
2.57635e-80
1.73536e-77
5.65704e-75
1.19314e-72
1.83077e-70
2.17821e-68
2.09184e-66
1.66722e-64
1.12574e-62
6.54452e-61
3.31925e-59
1.48523e-57
5.92108e-56
2.12181e-54
6.89066e-53
2.04371e-51
5.57716e-50
1.41062e-48
3.33073e-47
7.3943e-46
1.55425e-44
3.11453e-43
5.99166e-42
1.3912e-83
1.05142e-80
3.84939e-78
9.12983e-76
1.57776e-73
2.11794e-71
2.29938e-69
2.07626e-67
1.59196e-65
1.05345e-63
6.09646e-62
3.12034e-60
1.42643e-58
5.87567e-57
2.19864e-55
7.53118e-54
2.37887e-52
6.97862e-51
1.91467e-49
4.94666e-48
1.21151e-46
2.83136e-45
6.35712e-44
5.49077e-87
4.70581e-84
1.95529e-81
5.26869e-79
1.03578e-76
1.58416e-74
1.96299e-72
2.027e-70
1.78105e-68
1.35354e-66
9.016e-65
5.32345e-63
2.81364e-61
1.34295e-59
5.83537e-58
2.32586e-56
8.56523e-55
2.93469e-53
9.41884e-52
2.85039e-50
8.18604e-49
2.24526e-47
5.92026e-46
1.52263e-90
1.49791e-87
7.14981e-85
2.2154e-82
5.01418e-80
8.8413e-78
1.26505e-75
1.511e-73
1.53854e-71
1.35756e-69
1.05199e-67
7.24035e-66
4.46949e-64
2.49637e-62
1.27173e-60
5.95337e-59
2.57931e-57
1.04131e-55
3.94327e-54
1.40962e-52
4.78636e-51
1.55326e-49
4.84846e-48
2.79722e-94
3.20678e-91
1.78504e-88
6.45584e-86
1.7072e-83
3.52126e-81
5.90155e-79
8.26878e-77
9.89207e-75
1.0272e-72
9.38335e-71
7.62598e-69
5.56824e-67
3.68483e-65
2.22767e-63
1.23948e-61
6.39185e-60
3.07551e-58
1.38964e-56
5.93293e-55
2.40781e-53
9.34453e-52
3.48965e-50
3.11602e-98
4.24533e-95
2.80919e-92
1.20844e-89
3.80378e-87
9.3471e-85
1.86835e-82
3.12586e-80
4.47115e-78
5.55887e-76
6.08843e-74
5.94128e-72
5.21628e-70
4.15651e-68
3.02988e-66
2.03536e-64
1.26877e-62
7.38755e-61
4.04316e-59
2.09244e-57
1.02995e-55
4.84983e-54
2.1979e-52
1.82731e-102
3.04107e-99
2.45429e-96
1.28767e-93
4.94504e-91
1.48336e-88
3.62219e-86
7.41008e-84
1.29734e-81
1.9764e-79
2.65544e-77
3.18236e-75
3.43531e-73
3.36946e-71
3.02666e-69
2.5081e-67
1.93053e-65
1.3892e-63
9.40314e-62
6.02185e-60
3.66923e-58
2.13912e-56
1.20013e-54
4.43479e-107
9.3901e-104
9.58791e-101
6.35757e-98
3.08508e-95
1.16965e-92
3.61166e-90
9.34898e-88
2.07257e-85
4.00092e-83
6.81663e-81
1.03669e-78
1.42116e-76
1.77145e-74
2.02362e-72
2.13409e-70
2.09186e-68
1.91808e-66
1.65511e-64
1.35165e-62
1.05035e-60
7.80849e-59
5.58383e-57
2.81187e-112
8.09967e-109
1.10472e-105
9.75601e-103
6.30794e-100
3.19066e-97
1.31624e-94
4.5573e-92
1.35258e-89
3.49774e-87
7.98557e-85
1.62749e-82
2.98938e-80
4.99102e-78
7.63364e-76
1.07737e-73
1.41274e-71
1.73237e-69
1.99864e-67
2.18162e-65
2.26504e-63
2.2485e-61
2.14476e-59
1.72575e-118
7.49457e-115
1.47232e-111
1.85911e-108
1.72609e-105
1.26435e-102
7.61629e-100
3.8794e-97
1.70484e-94
6.56393e-92
2.24089e-89
6.84929e-87
1.88925e-84
4.7345e-82
1.08435e-79
2.28206e-77
4.43668e-75
8.01275e-73
1.35263e-70
2.14931e-68
3.23766e-66
4.6536e-64
6.41448e-62
1.88493e-125
1.37676e-121
4.18353e-118
7.83955e-115
1.04779e-111
1.0805e-108
9.05175e-106
6.38689e-103
3.89966e-100
2.10478e-97
1.02202e-94
4.53171e-92
1.85853e-89
7.12809e-87
2.58072e-84
8.88638e-82
2.92517e-79
9.22398e-77
2.78135e-74
7.97269e-72
2.15543e-69
5.45925e-67
1.29334e-64
4.53155e-131
3.88894e-127
1.2646e-123
2.54507e-120
3.71557e-117
4.25315e-114
4.0048e-111
3.20814e-108
2.24325e-105
1.39805e-102
7.90617e-100
4.12275e-97
2.01242e-94
9.32986e-92
4.16779e-89
1.82045e-86
7.89487e-84
3.45573e-81
1.55452e-78
7.33088e-76
3.69976e-73
2.03078e-70
1.20513e-67
)
;

boundaryField
{
    leftWall
    {
        type            zeroGradient;
    }
    rightWall
    {
        type            zeroGradient;
    }
    lowerWall
    {
        type            zeroGradient;
    }
    atmosphere
    {
        type            inletOutlet;
        inletValue      uniform 0;
        value           uniform 0;
    }
    defaultFaces
    {
        type            empty;
    }
    procBoundary2to0
    {
        type            processor;
        value           nonuniform List<scalar> 
24
(
3.75583e-28
3.56589e-27
2.59722e-26
1.98456e-25
2.37707e-24
2.54786e-23
1.35308e-22
2.53469e-52
2.98722e-50
1.79557e-48
7.68188e-47
2.90833e-45
1.21037e-43
5.63784e-42
2.55691e-40
1.04219e-38
3.84085e-37
1.45495e-35
4.65576e-34
8.21223e-33
9.33772e-32
8.32103e-31
6.82628e-30
6.82628e-30
)
;
    }
    procBoundary2to3
    {
        type            processor;
        value           nonuniform List<scalar> 
25
(
1.18736e-22
2.04945e-23
2.58288e-24
2.30898e-25
1.49974e-26
7.69102e-28
3.50703e-29
1.3732e-30
4.40892e-32
1.17095e-33
2.59199e-35
4.87666e-37
7.90028e-39
1.11473e-40
1.38091e-42
1.51078e-44
1.46509e-46
1.26168e-48
9.64214e-51
6.5148e-53
3.8593e-55
1.9733e-57
8.47492e-60
2.89567e-62
7.19354e-65
)
;
    }
}


// ************************************************************************* //
