/*--------------------------------*- C++ -*----------------------------------*\
| =========                 |                                                 |
| \\      /  F ield         | OpenFOAM: The Open Source CFD Toolbox           |
|  \\    /   O peration     | Version:  2.4.0                                 |
|   \\  /    A nd           | Web:      www.OpenFOAM.org                      |
|    \\/     M anipulation  |                                                 |
\*---------------------------------------------------------------------------*/
FoamFile
{
    version     2.0;
    format      ascii;
    class       volScalarField;
    location    "0.15";
    object      alpha.oil;
}
// * * * * * * * * * * * * * * * * * * * * * * * * * * * * * * * * * * * * * //

dimensions      [0 0 0 0 0 0 0];

internalField   nonuniform List<scalar> 
559
(
6.46852e-07
7.20416e-07
1.02379e-06
1.32919e-06
9.85859e-07
3.59962e-07
1.98624e-07
1.52639e-18
1.48538e-16
8.02979e-15
2.90847e-13
7.67243e-12
1.44179e-10
1.80517e-09
1.33582e-08
4.48004e-08
3.54809e-08
1.27356e-08
2.27902e-09
3.18135e-09
1.19148e-08
3.52884e-08
2.60108e-08
1.21299e-07
3.96449e-07
8.74956e-07
1.21224e-06
1.01917e-06
5.60147e-07
2.13107e-07
1.06277e-18
1.46056e-16
9.05748e-15
3.06536e-13
5.84089e-12
5.66775e-11
3.06368e-10
6.43477e-10
6.83648e-10
4.28938e-10
9.82063e-11
1.57228e-11
5.42509e-11
4.57404e-10
3.49817e-09
2.63558e-08
1.02267e-07
4.19467e-07
8.88854e-07
1.29281e-06
1.29624e-06
8.54535e-07
3.14963e-07
1.88465e-28
3.29944e-26
2.74518e-24
1.44708e-22
5.51259e-21
1.64236e-19
4.03652e-18
8.43828e-17
1.51342e-15
2.34598e-14
3.44838e-13
4.0056e-12
3.75124e-11
2.90262e-10
1.82642e-09
8.91696e-09
4.93491e-08
1.60474e-07
4.4905e-07
8.48203e-07
9.36504e-07
7.24819e-07
2.94652e-07
2.86086e-29
5.10405e-27
4.41154e-25
2.49316e-23
1.05444e-21
3.58496e-20
1.00481e-18
2.30359e-17
4.23464e-16
6.14576e-15
6.9861e-14
6.19774e-13
4.36702e-12
2.63208e-11
1.49891e-10
8.44622e-10
4.36732e-09
5.81148e-08
1.5678e-07
2.24526e-07
2.63595e-07
2.4755e-07
1.38699e-07
2.34311e-30
4.47798e-28
4.0193e-26
2.24082e-24
8.66596e-23
2.46614e-21
5.36253e-20
9.17536e-19
1.2686e-17
1.45254e-16
1.40136e-15
1.14065e-14
7.72347e-14
4.22967e-13
1.75668e-12
4.62549e-12
6.00541e-11
1.73966e-09
1.26087e-08
3.01242e-08
4.77561e-08
4.95767e-08
2.86834e-08
4.75795e-31
9.12249e-29
8.20293e-27
4.5937e-25
1.79092e-23
5.15332e-22
1.13331e-20
1.94975e-19
2.66895e-18
2.94459e-17
2.64423e-16
1.95404e-15
1.2109e-14
6.44761e-14
2.98849e-13
1.15013e-12
3.18118e-12
7.84534e-11
1.41539e-09
4.33897e-09
6.73101e-09
7.57526e-09
3.05095e-09
1.48536e-32
3.12591e-30
3.10455e-28
1.93309e-26
8.44648e-25
2.7475e-23
6.89551e-22
1.36766e-20
2.18138e-19
2.83641e-18
3.0429e-17
2.72466e-16
2.05833e-15
1.32382e-14
7.31639e-14
3.52127e-13
1.46529e-12
4.6387e-12
2.90007e-11
2.07197e-10
4.6875e-10
5.69935e-10
4.65658e-10
2.48547e-34
5.9322e-32
6.71345e-30
4.79767e-28
2.42595e-26
9.21893e-25
2.73151e-23
6.46768e-22
1.24544e-20
1.97548e-19
2.60596e-18
2.88045e-17
2.6828e-16
2.11402e-15
1.41324e-14
8.01133e-14
3.83918e-13
1.54404e-12
5.13994e-12
1.39698e-11
2.97735e-11
4.65366e-11
4.50559e-11
1.23926e-36
3.17682e-34
3.87124e-32
2.98563e-30
1.63388e-28
6.74132e-27
2.17631e-25
5.63497e-24
1.19095e-22
2.0819e-21
3.04171e-20
3.74525e-19
3.91049e-18
3.47562e-17
2.63382e-16
1.70133e-15
9.34268e-15
4.33669e-14
1.68489e-13
5.39083e-13
1.37943e-12
2.66975e-12
3.47369e-12
3.69758e-39
1.02878e-36
1.36211e-34
1.14401e-32
6.83761e-31
3.09212e-29
1.09859e-27
3.14483e-26
7.38498e-25
1.4418e-23
2.36451e-22
3.28324e-21
3.88324e-20
3.92886e-19
3.40863e-18
2.5369e-17
1.61675e-16
8.78153e-16
4.0312e-15
1.54218e-14
4.80166e-14
1.16625e-13
2.02814e-13
7.46782e-42
2.27153e-39
3.29453e-37
3.03811e-35
1.99934e-33
9.98784e-32
3.93452e-30
1.2539e-28
3.29241e-27
7.22048e-26
1.33643e-24
2.10444e-23
2.83636e-22
3.28603e-21
3.28099e-20
2.82601e-19
2.09773e-18
1.33753e-17
7.27889e-17
3.34417e-16
1.27301e-15
3.8828e-15
8.88136e-15
1.05253e-44
3.53437e-42
5.6666e-40
5.78816e-38
4.22961e-36
2.3529e-34
1.03549e-32
3.69984e-31
1.09334e-29
2.70929e-28
5.68937e-27
1.02074e-25
1.57441e-24
2.09734e-23
2.42046e-22
2.42371e-21
2.10557e-20
1.58365e-19
1.02633e-18
5.68172e-18
2.64572e-17
1.00783e-16
2.97606e-16
1.05097e-47
3.93053e-45
7.02827e-43
8.02118e-41
6.56312e-39
4.09849e-37
2.03056e-35
8.19349e-34
2.74367e-32
7.732e-31
1.85358e-29
3.81169e-28
6.76754e-27
1.04254e-25
1.39844e-24
1.63692e-23
1.67316e-22
1.49167e-21
1.15575e-20
7.72519e-20
4.39517e-19
2.0778e-18
7.80771e-18
7.41105e-51
3.11756e-48
6.27782e-46
8.08159e-44
7.47321e-42
5.28612e-40
2.9741e-38
1.36667e-36
5.22785e-35
1.6886e-33
4.65638e-32
1.10568e-30
2.2763e-29
4.08459e-28
6.41363e-27
8.83558e-26
1.06915e-24
1.13562e-23
1.05554e-22
8.52903e-22
5.91994e-21
3.45731e-20
1.63877e-19
3.64071e-54
1.74136e-51
3.99171e-49
5.85838e-47
6.18723e-45
5.0089e-43
3.23305e-41
1.70895e-39
7.54188e-38
2.81944e-36
9.02952e-35
2.49941e-33
6.022e-32
1.26992e-30
2.35369e-29
3.84483e-28
5.54286e-27
7.04894e-26
7.88621e-25
7.71687e-24
6.53686e-23
4.71165e-22
2.80848e-21
1.2123e-57
6.67788e-55
1.76505e-52
2.99132e-50
3.65446e-48
3.42909e-46
2.57127e-44
1.58293e-42
8.15837e-41
3.57239e-39
1.34425e-37
4.38609e-36
1.24982e-34
3.12771e-33
6.90304e-32
1.34754e-30
2.33007e-29
3.56823e-28
4.82897e-27
5.74771e-26
5.96617e-25
5.32631e-24
4.00025e-23
2.6155e-61
1.68575e-58
5.21971e-56
1.03776e-53
1.48964e-51
1.64529e-49
1.45506e-47
1.05878e-45
6.4648e-44
3.36175e-42
1.50599e-40
5.86489e-39
1.99988e-37
6.00502e-36
1.59467e-34
3.75665e-33
7.86435e-32
1.46347e-30
2.41729e-29
3.53095e-28
4.53055e-27
5.05072e-26
4.81045e-25
3.39464e-65
2.61242e-62
9.66535e-60
2.29843e-57
3.95083e-55
5.23242e-53
5.55711e-51
4.86408e-49
3.57891e-47
2.24687e-45
1.21763e-43
5.74827e-42
2.38135e-40
8.70762e-39
2.82311e-37
8.14234e-36
2.0935e-34
4.80217e-33
9.8199e-32
1.7853e-30
2.8708e-29
4.0487e-28
4.9453e-27
2.33294e-69
2.20329e-66
9.99167e-64
2.91324e-61
6.14361e-59
9.99075e-57
1.3043e-54
1.40513e-52
1.27432e-50
9.87675e-49
6.61923e-47
3.87171e-45
1.99134e-43
9.06026e-42
3.66393e-40
1.32167e-38
4.26315e-37
1.23114e-35
3.18269e-34
7.35205e-33
1.51177e-31
2.74962e-30
4.38321e-29
6.76667e-74
8.16149e-71
4.70228e-68
1.74052e-65
4.6603e-63
9.62766e-61
1.59815e-58
2.1916e-56
2.53324e-54
2.5059e-52
2.14664e-50
1.60753e-48
1.06041e-46
6.19987e-45
3.22882e-43
1.50362e-41
6.27892e-40
2.35514e-38
7.93829e-37
2.40203e-35
6.50743e-34
1.57112e-32
3.35847e-31
5.34095e-79
8.78861e-76
6.7878e-73
3.35926e-70
1.20346e-67
3.33201e-65
7.42606e-63
1.36961e-60
2.13247e-58
2.84531e-56
3.29163e-54
3.33253e-52
2.97511e-50
2.35663e-48
1.66477e-46
1.05314e-44
5.98522e-43
3.06276e-41
1.41277e-39
5.87296e-38
2.19662e-36
7.36872e-35
2.20661e-33
4.39558e-85
1.09515e-81
1.22491e-78
8.71868e-76
4.51246e-73
1.82024e-70
5.95887e-68
1.62613e-65
3.77044e-63
7.53414e-61
1.31141e-58
2.00476e-56
2.70855e-54
3.24974e-52
3.4752e-50
3.3216e-48
2.84385e-46
2.18516e-44
1.50962e-42
9.39352e-41
5.26914e-39
2.6621e-37
1.208e-35
4.05564e-92
1.78096e-88
3.22996e-85
3.57622e-82
2.79265e-79
1.66213e-76
7.93031e-74
3.14084e-71
1.05942e-68
3.10433e-66
8.0288e-64
1.85688e-61
3.88194e-59
7.40061e-57
1.29553e-54
2.09262e-52
3.126e-50
4.31454e-48
5.4749e-46
6.3281e-44
6.58391e-42
6.0931e-40
4.97552e-38
5.97132e-98
3.26106e-94
6.68313e-91
8.3953e-88
7.56962e-85
5.29024e-82
3.00364e-79
1.43136e-76
5.86696e-74
2.10926e-71
6.76106e-69
1.96014e-66
5.20732e-64
1.28326e-61
2.96846e-59
6.52186e-57
1.37747e-54
2.83276e-52
5.75133e-50
1.1704e-47
2.42423e-45
5.16557e-43
1.12048e-40
)
;

boundaryField
{
    leftWall
    {
        type            zeroGradient;
    }
    rightWall
    {
        type            zeroGradient;
    }
    lowerWall
    {
        type            zeroGradient;
    }
    atmosphere
    {
        type            inletOutlet;
        inletValue      uniform 0;
        value           uniform 0;
    }
    defaultFaces
    {
        type            empty;
    }
    procBoundary2to0
    {
        type            processor;
        value           nonuniform List<scalar> 
24
(
0.000118369
8.81941e-06
1.72545e-06
1.88548e-06
1.32014e-06
4.64601e-07
3.63811e-07
7.79303e-17
5.08694e-15
1.62517e-13
3.12666e-12
3.55668e-11
3.98727e-10
5.56126e-09
8.94096e-08
5.30383e-07
1.54248e-06
9.31061e-07
2.7915e-07
2.08239e-07
3.09903e-07
2.7928e-07
6.05272e-07
6.05272e-07
)
;
    }
    procBoundary2to3
    {
        type            processor;
        value           nonuniform List<scalar> 
25
(
1.93144e-07
6.86153e-08
2.76138e-08
1.78241e-08
1.14491e-08
1.53272e-09
1.9125e-10
6.3465e-11
1.43428e-11
2.11318e-12
2.00143e-13
1.29494e-14
6.04694e-16
2.13489e-17
5.90891e-19
1.32094e-20
2.44429e-22
3.8238e-24
5.14918e-26
6.06093e-28
6.3147e-30
5.87377e-32
4.89448e-34
3.60733e-36
2.30019e-38
)
;
    }
}


// ************************************************************************* //
