/*--------------------------------*- C++ -*----------------------------------*\
| =========                 |                                                 |
| \\      /  F ield         | OpenFOAM: The Open Source CFD Toolbox           |
|  \\    /   O peration     | Version:  2.4.0                                 |
|   \\  /    A nd           | Web:      www.OpenFOAM.org                      |
|    \\/     M anipulation  |                                                 |
\*---------------------------------------------------------------------------*/
FoamFile
{
    version     2.0;
    format      ascii;
    class       volScalarField;
    location    "0.15";
    object      p;
}
// * * * * * * * * * * * * * * * * * * * * * * * * * * * * * * * * * * * * * //

dimensions      [1 -1 -2 0 0 0 0];

internalField   nonuniform List<scalar> 
559
(
3.09472
2.99665
2.86225
2.78886
2.75303
2.75666
2.71155
2.61779
2.6274
2.64472
2.67123
2.70476
2.74532
2.78561
2.80729
2.81219
2.81582
2.80648
2.76383
2.71083
2.67737
2.68101
2.71354
2.7612
2.80698
2.80644
2.80339
2.77308
2.71089
2.66004
2.87921
2.87696
2.87249
2.86581
2.85685
2.84369
2.82959
2.80865
2.78269
2.76203
2.74854
2.74554
2.76124
2.78429
2.79854
2.80074
2.79237
2.77364
2.74186
2.70687
2.65761
2.62031
2.59268
2.72023
2.71798
2.71356
2.7075
2.70034
2.69258
2.68321
2.6716
2.6588
2.64836
2.64192
2.64082
2.64637
2.6528
2.65588
2.65382
2.64818
2.63942
2.62211
2.59966
2.56873
2.5382
2.50711
2.57841
2.57743
2.57532
2.57224
2.56836
2.56401
2.55818
2.55092
2.54297
2.53554
2.52973
2.52706
2.52736
2.52973
2.53158
2.53205
2.53097
2.52616
2.51434
2.4963
2.46916
2.43705
2.41336
2.45249
2.4516
2.44992
2.4475
2.44444
2.44085
2.43651
2.43154
2.42638
2.42177
2.41859
2.4172
2.41728
2.41826
2.41848
2.417
2.41277
2.40478
2.39293
2.37876
2.35902
2.33534
2.31255
2.32604
2.32541
2.3242
2.32244
2.3202
2.31752
2.31441
2.31098
2.30751
2.30444
2.30225
2.30093
2.30011
2.29934
2.29819
2.29612
2.29246
2.28596
2.27606
2.26228
2.24531
2.2276
2.20912
2.20059
2.20011
2.19919
2.19786
2.19617
2.19415
2.19186
2.18941
2.18697
2.1848
2.18308
2.18177
2.18071
2.17965
2.1781
2.17551
2.17117
2.16482
2.15659
2.14611
2.13306
2.11736
2.10182
2.07527
2.07491
2.07422
2.07323
2.07196
2.07047
2.06881
2.06706
2.06534
2.06377
2.06244
2.06127
2.06011
2.0587
2.05671
2.05385
2.04973
2.04405
2.03654
2.02721
2.01642
2.00437
1.99162
1.94973
1.94947
1.94897
1.94826
1.94737
1.94631
1.94515
1.94393
1.94272
1.94158
1.9405
1.93942
1.93822
1.93673
1.93473
1.93194
1.92811
1.92306
1.91666
1.90883
1.89969
1.88955
1.87896
1.82393
1.82375
1.8234
1.8229
1.82227
1.82154
1.82074
1.81989
1.81904
1.8182
1.81735
1.81642
1.81532
1.81388
1.81194
1.80931
1.80582
1.80133
1.79575
1.78911
1.78157
1.77323
1.7644
1.69798
1.69786
1.69763
1.69731
1.69691
1.69645
1.69593
1.69539
1.69482
1.69422
1.69356
1.69277
1.69178
1.69046
1.68869
1.68633
1.68325
1.67935
1.67458
1.66896
1.66261
1.65562
1.64824
1.57172
1.57165
1.57152
1.57134
1.57112
1.57086
1.57057
1.57026
1.56992
1.56953
1.56906
1.56844
1.56761
1.56647
1.56493
1.56287
1.5602
1.55686
1.55281
1.54809
1.54276
1.53693
1.53075
1.44524
1.44521
1.44516
1.4451
1.44502
1.44493
1.44483
1.44471
1.44457
1.44436
1.44407
1.44363
1.44298
1.44205
1.44076
1.43902
1.43678
1.43397
1.43057
1.42662
1.42217
1.4173
1.41213
1.3185
1.3185
1.31852
1.31855
1.31859
1.31864
1.3187
1.31875
1.31878
1.31875
1.31864
1.31838
1.31794
1.31724
1.31622
1.31482
1.31298
1.31067
1.30786
1.30459
1.30089
1.29685
1.29253
1.19151
1.19155
1.19162
1.19173
1.19188
1.19205
1.19225
1.19245
1.19264
1.19278
1.19284
1.19278
1.19255
1.19209
1.19135
1.19028
1.18883
1.18698
1.18472
1.18204
1.17901
1.17567
1.17208
1.0643
1.06435
1.06448
1.06466
1.0649
1.06519
1.06551
1.06585
1.06618
1.06649
1.06673
1.06686
1.06684
1.06663
1.06617
1.06543
1.06436
1.06294
1.06116
1.05903
1.05658
1.05385
1.05089
0.936863
0.936944
0.93711
0.937356
0.937676
0.938061
0.938498
0.938968
0.93945
0.939914
0.940329
0.940656
0.940857
0.940887
0.940708
0.940279
0.939569
0.938555
0.937224
0.935582
0.933651
0.931464
0.929062
0.809224
0.809324
0.809528
0.809831
0.810226
0.810702
0.811247
0.81184
0.812461
0.813082
0.813671
0.814192
0.814609
0.814883
0.814975
0.814853
0.814484
0.813848
0.812931
0.811733
0.810268
0.808565
0.806653
0.681391
0.681506
0.681745
0.682099
0.682562
0.683123
0.683768
0.68448
0.685236
0.686009
0.686769
0.687481
0.688113
0.688625
0.688986
0.689158
0.689116
0.688836
0.688303
0.687512
0.686472
0.685201
0.68373
0.553377
0.5535
0.553769
0.554169
0.554693
0.555332
0.556072
0.556895
0.557783
0.558706
0.559634
0.560536
0.561378
0.562126
0.562745
0.563205
0.563474
0.563531
0.563357
0.562943
0.56229
0.561415
0.560338
0.425178
0.425295
0.425592
0.426033
0.426617
0.427329
0.428158
0.429092
0.430109
0.431178
0.432269
0.433357
0.434408
0.435388
0.436264
0.437001
0.437572
0.437949
0.438112
0.438048
0.437753
0.437234
0.436518
0.296839
0.296935
0.29726
0.297741
0.298379
0.299165
0.300087
0.301122
0.302245
0.30344
0.304684
0.305944
0.307188
0.308387
0.309507
0.310517
0.311383
0.312078
0.312572
0.312843
0.312882
0.312676
0.312252
0.168543
0.168651
0.168995
0.169499
0.170182
0.171028
0.172017
0.173127
0.174338
0.175631
0.17698
0.178359
0.17974
0.181097
0.1824
0.183622
0.184739
0.185729
0.18657
0.187243
0.187707
0.187927
0.187836
0.0399922
0.0400333
0.0403991
0.0409251
0.041648
0.0425469
0.0436068
0.0448101
0.0461369
0.0475656
0.0490714
0.0506271
0.0522024
0.0537643
0.0552793
0.0567136
0.0580328
0.0592023
0.0601906
0.060976
0.0615557
0.0619549
0.0622251
)
;

boundaryField
{
    leftWall
    {
        type            fixedFluxPressure;
        gradient        uniform 0;
        value           nonuniform List<scalar> 
24
(
2.61779
2.87921
2.72023
2.57841
2.45249
2.32604
2.20059
2.07527
1.94973
1.82393
1.69798
1.57172
1.44524
1.3185
1.19151
1.0643
0.936863
0.809224
0.681391
0.553377
0.425178
0.296839
0.168543
0.0399922
)
;
    }
    rightWall
    {
        type            fixedFluxPressure;
        gradient        nonuniform 0();
        value           nonuniform 0();
    }
    lowerWall
    {
        type            fixedFluxPressure;
        gradient        nonuniform 0();
        value           nonuniform 0();
    }
    atmosphere
    {
        type            totalPressure;
        U               U.air;
        phi             phi.air;
        rho             rho;
        psi             none;
        gamma           1;
        p0              uniform 0;
        value           nonuniform List<scalar> 
23
(
-0.0248357
-0.0251302
-0.0247309
-0.0241229
-0.0233105
-0.0223094
-0.021135
-0.0198051
-0.0183403
-0.016764
-0.0151018
-0.0133823
-0.011636
-0.0098955
-0.00819492
-0.00656905
-0.00505282
-0.00368055
-0.00248534
-0.0014985
-0.000747753
-0.000257787
-5.5543e-05
)
;
    }
    defaultFaces
    {
        type            empty;
    }
    procBoundary2to0
    {
        type            processor;
        value           nonuniform List<scalar> 
24
(
3.05686
3.35114
3.58214
3.34251
2.99155
2.90917
2.88009
3.48146
3.45499
3.40192
3.32798
3.24342
3.16428
3.11415
3.02648
2.90653
2.86653
2.86969
2.91243
3.01576
3.16739
3.22784
3.18951
3.18951
)
;
    }
    procBoundary2to3
    {
        type            processor;
        value           nonuniform List<scalar> 
25
(
2.68469
2.62766
2.56317
2.48335
2.39304
2.29683
2.19581
2.09086
1.9824
1.87126
1.75794
1.64281
1.52618
1.40827
1.28928
1.16936
1.04863
0.927194
0.805142
0.682535
0.559431
0.435867
0.311862
0.187552
0.0623742
)
;
    }
}


// ************************************************************************* //
