/*--------------------------------*- C++ -*----------------------------------*\
| =========                 |                                                 |
| \\      /  F ield         | OpenFOAM: The Open Source CFD Toolbox           |
|  \\    /   O peration     | Version:  2.4.0                                 |
|   \\  /    A nd           | Web:      www.OpenFOAM.org                      |
|    \\/     M anipulation  |                                                 |
\*---------------------------------------------------------------------------*/
FoamFile
{
    version     2.0;
    format      ascii;
    class       surfaceScalarField;
    location    "0.15";
    object      phi.oil;
}
// * * * * * * * * * * * * * * * * * * * * * * * * * * * * * * * * * * * * * //

dimensions      [0 3 -1 0 0 0 0];

internalField   nonuniform List<scalar> 
1070
(
-4.59507e-05
-8.45415e-05
-3.5865e-05
-9.44858e-05
-4.27497e-05
-9.35351e-05
-6.56048e-05
-6.94436e-05
-9.59663e-05
-1.81207e-05
-0.000130307
1.1682e-05
2.21498e-05
-7.73128e-07
-8.45072e-05
-1.49849e-06
-8.5921e-05
-3.01865e-06
-8.65626e-05
-5.56271e-06
-8.75767e-05
-9.38417e-06
-8.90124e-05
-1.45446e-05
-9.09326e-05
-2.06121e-05
-9.2784e-05
-2.7068e-05
-9.43811e-05
-3.48178e-05
-9.48756e-05
-4.40857e-05
-9.59503e-05
-5.4584e-05
-9.75269e-05
-6.64681e-05
-9.93297e-05
-7.25007e-05
-8.98758e-05
-6.85437e-05
-7.96789e-05
-6.64487e-05
-7.51379e-05
-6.81558e-05
-7.55986e-05
-7.25345e-05
-7.75062e-05
-8.53335e-05
-7.99093e-05
-0.000108416
-7.3909e-05
-0.000129008
-4.88582e-05
-0.000132643
-1.07544e-05
-0.000124396
6.47029e-06
1.44839e-05
-2.93199e-06
-8.15747e-05
-5.67521e-06
-8.31772e-05
-8.52153e-06
-8.37156e-05
-1.15757e-05
-8.45219e-05
-1.49981e-05
-8.55896e-05
-1.91218e-05
-8.68122e-05
-2.39622e-05
-8.79816e-05
-2.96672e-05
-8.89808e-05
-3.63647e-05
-8.9597e-05
-4.34988e-05
-8.96183e-05
-5.11815e-05
-8.99119e-05
-6.10583e-05
-8.94395e-05
-6.84609e-05
-8.24896e-05
-7.30778e-05
-7.52759e-05
-7.80198e-05
-7.09896e-05
-8.35102e-05
-6.89488e-05
-8.5278e-05
-6.8148e-05
-0.000103056
-6.43353e-05
-0.000122717
-5.76147e-05
-0.000133517
-3.97407e-05
-0.000128178
-1.31717e-05
-0.000112935
9.39296e-07
7.78502e-06
-2.41237e-06
-7.91617e-05
-4.95365e-06
-8.06353e-05
-7.71932e-06
-8.09494e-05
-1.07964e-05
-8.14443e-05
-1.4352e-05
-8.20336e-05
-1.85172e-05
-8.26464e-05
-2.33528e-05
-8.31442e-05
-2.89296e-05
-8.33998e-05
-3.52619e-05
-8.32596e-05
-4.21861e-05
-8.26908e-05
-5.02343e-05
-8.18628e-05
-5.96788e-05
-7.99951e-05
-6.64176e-05
-7.57525e-05
-7.06807e-05
-7.10225e-05
-7.49584e-05
-6.6751e-05
-8.04593e-05
-6.31428e-05
-8.76925e-05
-5.92052e-05
-9.6022e-05
-5.35578e-05
-0.000109182
-4.42426e-05
-0.0001184
-3.01699e-05
-0.000114623
-1.37933e-05
-0.00010179
-3.32154e-06
3.25705e-06
-2.74945e-06
-7.64118e-05
-5.59707e-06
-7.77872e-05
-8.62341e-06
-7.79226e-05
-1.19167e-05
-7.81506e-05
-1.55787e-05
-7.83712e-05
-1.96869e-05
-7.8538e-05
-2.4283e-05
-7.85479e-05
-2.93735e-05
-7.83092e-05
-3.48887e-05
-7.77442e-05
-4.07745e-05
-7.68049e-05
-4.72487e-05
-7.53884e-05
-5.41371e-05
-7.31066e-05
-6.00103e-05
-6.9879e-05
-6.51458e-05
-6.5884e-05
-7.00504e-05
-6.1826e-05
-7.54668e-05
-5.76402e-05
-8.11793e-05
-5.27088e-05
-8.77873e-05
-4.58908e-05
-9.66912e-05
-3.6106e-05
-0.000101521
-2.53194e-05
-0.000100147
-1.39881e-05
-9.56144e-05
-5.6301e-06
1.73374e-06
-2.93215e-06
-7.34792e-05
-5.95609e-06
-7.47628e-05
-9.11147e-06
-7.47668e-05
-1.2461e-05
-7.48007e-05
-1.60475e-05
-7.47845e-05
-1.99082e-05
-7.46771e-05
-2.40529e-05
-7.44031e-05
-2.8474e-05
-7.3888e-05
-3.31555e-05
-7.30626e-05
-3.81169e-05
-7.18434e-05
-4.34728e-05
-7.00325e-05
-4.91435e-05
-6.74359e-05
-5.47729e-05
-6.42497e-05
-6.01314e-05
-6.05255e-05
-6.56107e-05
-5.6346e-05
-7.15315e-05
-5.17149e-05
-7.75314e-05
-4.66976e-05
-8.23039e-05
-4.14816e-05
-8.55522e-05
-3.502e-05
-8.7982e-05
-2.57697e-05
-8.84171e-05
-1.53732e-05
-8.75199e-05
-6.32838e-06
1.08829e-06
-2.94462e-06
-7.05343e-05
-5.98535e-06
-7.17218e-05
-9.12317e-06
-7.16287e-05
-1.2413e-05
-7.15106e-05
-1.58923e-05
-7.1305e-05
-1.95974e-05
-7.09718e-05
-2.3546e-05
-7.04544e-05
-2.77398e-05
-6.9694e-05
-3.21831e-05
-6.86193e-05
-3.69035e-05
-6.71229e-05
-4.18469e-05
-6.50891e-05
-4.6768e-05
-6.25148e-05
-5.15362e-05
-5.94815e-05
-5.60106e-05
-5.60514e-05
-6.01626e-05
-5.21942e-05
-6.40913e-05
-4.77867e-05
-6.8095e-05
-4.26943e-05
-7.27114e-05
-3.68599e-05
-7.76728e-05
-2.99624e-05
-8.07963e-05
-2.23821e-05
-8.12564e-05
-1.47248e-05
-8.02114e-05
-7.45573e-06
8.58914e-08
-2.89079e-06
-6.76432e-05
-5.86146e-06
-6.87509e-05
-8.91249e-06
-6.85774e-05
-1.20849e-05
-6.8338e-05
-1.54158e-05
-6.79739e-05
-1.89375e-05
-6.745e-05
-2.26704e-05
-6.67214e-05
-2.66242e-05
-6.57402e-05
-3.07872e-05
-6.44562e-05
-3.5102e-05
-6.2808e-05
-3.9449e-05
-6.07422e-05
-4.37215e-05
-5.82424e-05
-4.7916e-05
-5.52871e-05
-5.21275e-05
-5.184e-05
-5.6364e-05
-4.7958e-05
-6.05498e-05
-4.36011e-05
-6.44387e-05
-3.88058e-05
-6.7775e-05
-3.35238e-05
-7.01345e-05
-2.76016e-05
-7.15241e-05
-2.10028e-05
-7.23193e-05
-1.39419e-05
-7.2792e-05
-6.96827e-06
-3.81642e-07
-2.82966e-06
-6.48134e-05
-5.73922e-06
-6.58412e-05
-8.70987e-06
-6.56066e-05
-1.1774e-05
-6.52738e-05
-1.49531e-05
-6.47946e-05
-1.82626e-05
-6.41405e-05
-2.17075e-05
-6.32764e-05
-2.52852e-05
-6.21624e-05
-2.89896e-05
-6.07519e-05
-3.28003e-05
-5.89973e-05
-3.66735e-05
-5.6869e-05
-4.05567e-05
-5.43592e-05
-4.43791e-05
-5.14648e-05
-4.80446e-05
-4.81746e-05
-5.15476e-05
-4.44552e-05
-5.48423e-05
-4.03067e-05
-5.79359e-05
-3.57126e-05
-6.08242e-05
-3.06359e-05
-6.33743e-05
-2.50518e-05
-6.52654e-05
-1.91107e-05
-6.61795e-05
-1.30264e-05
-6.62432e-05
-6.90435e-06
-8.11796e-07
-2.73025e-06
-6.20831e-05
-5.52364e-06
-6.30477e-05
-8.36516e-06
-6.2765e-05
-1.12777e-05
-6.23611e-05
-1.42798e-05
-6.17924e-05
-1.73838e-05
-6.10365e-05
-2.05946e-05
-6.00655e-05
-2.39084e-05
-5.88486e-05
-2.73075e-05
-5.73528e-05
-3.07566e-05
-5.55482e-05
-3.42131e-05
-5.34127e-05
-3.76436e-05
-5.09288e-05
-4.10271e-05
-4.80814e-05
-4.43371e-05
-4.48648e-05
-4.75152e-05
-4.12774e-05
-5.05106e-05
-3.73116e-05
-5.32548e-05
-3.29687e-05
-5.56481e-05
-2.8243e-05
-5.75488e-05
-2.31514e-05
-5.89043e-05
-1.77556e-05
-5.97519e-05
-1.21793e-05
-6.00698e-05
-6.58676e-06
-1.03447e-06
-2.6008e-06
-5.94822e-05
-5.2602e-06
-6.03882e-05
-7.95448e-06
-6.00707e-05
-1.0702e-05
-5.96135e-05
-1.3515e-05
-5.89795e-05
-1.64005e-05
-5.81509e-05
-1.93599e-05
-5.71062e-05
-2.23871e-05
-5.58213e-05
-2.54678e-05
-5.42722e-05
-2.85787e-05
-5.24373e-05
-3.16916e-05
-5.02998e-05
-3.47734e-05
-4.78471e-05
-3.77857e-05
-4.50692e-05
-4.06924e-05
-4.19584e-05
-4.34596e-05
-3.85102e-05
-4.60437e-05
-3.47277e-05
-4.83976e-05
-3.0615e-05
-5.0457e-05
-2.61839e-05
-5.21452e-05
-2.14636e-05
-5.33888e-05
-1.65123e-05
-5.41483e-05
-1.14203e-05
-5.4442e-05
-6.29347e-06
-1.17431e-06
-2.45715e-06
-5.7025e-05
-4.96342e-06
-5.78819e-05
-7.49517e-06
-5.75389e-05
-1.00659e-05
-5.70428e-05
-1.26834e-05
-5.63619e-05
-1.53518e-05
-5.54825e-05
-1.80701e-05
-5.43879e-05
-2.08311e-05
-5.30603e-05
-2.36212e-05
-5.14821e-05
-2.64209e-05
-4.96376e-05
-2.92072e-05
-4.75136e-05
-3.19545e-05
-4.50999e-05
-3.46346e-05
-4.23892e-05
-3.72144e-05
-3.93787e-05
-3.96563e-05
-3.60686e-05
-4.19206e-05
-3.24635e-05
-4.39621e-05
-2.85737e-05
-4.57293e-05
-2.4417e-05
-4.71695e-05
-2.00237e-05
-4.82433e-05
-1.54389e-05
-4.89337e-05
-1.07303e-05
-4.92444e-05
-5.98314e-06
-1.24056e-06
-2.29634e-06
-5.47287e-05
-4.63605e-06
-5.55422e-05
-6.99324e-06
-5.51817e-05
-9.37799e-06
-5.4658e-05
-1.17953e-05
-5.39446e-05
-1.4247e-05
-5.30308e-05
-1.67305e-05
-5.19044e-05
-1.92388e-05
-5.05521e-05
-2.176e-05
-4.8961e-05
-2.42778e-05
-4.71198e-05
-2.67726e-05
-4.5019e-05
-2.9221e-05
-4.26515e-05
-3.15971e-05
-4.00133e-05
-3.38725e-05
-3.71034e-05
-3.60162e-05
-3.39249e-05
-3.79945e-05
-3.04855e-05
-3.97704e-05
-2.6798e-05
-4.13048e-05
-2.28828e-05
-4.256e-05
-1.87688e-05
-4.35051e-05
-1.44942e-05
-4.41252e-05
-1.01106e-05
-4.44242e-05
-5.6845e-06
-1.26029e-06
-2.12628e-06
-5.26024e-05
-4.28984e-06
-5.33786e-05
-6.46493e-06
-5.30067e-05
-8.65882e-06
-5.24642e-05
-1.08742e-05
-5.17291e-05
-1.31113e-05
-5.07938e-05
-1.53666e-05
-4.96491e-05
-1.76335e-05
-4.82853e-05
-1.99012e-05
-4.66933e-05
-2.21559e-05
-4.48651e-05
-2.43807e-05
-4.27943e-05
-2.65556e-05
-4.04767e-05
-2.86584e-05
-3.79106e-05
-3.06642e-05
-3.50977e-05
-3.25463e-05
-3.20431e-05
-3.42759e-05
-2.8756e-05
-3.58232e-05
-2.52509e-05
-3.71582e-05
-2.1548e-05
-3.8253e-05
-1.76742e-05
-3.90854e-05
-1.36621e-05
-3.96435e-05
-9.55287e-06
-3.9928e-05
-5.40022e-06
-1.247e-06
-1.94857e-06
-5.06538e-05
-3.92938e-06
-5.13979e-05
-5.91718e-06
-5.10189e-05
-7.91719e-06
-5.04642e-05
-9.93054e-06
-4.97158e-05
-1.19562e-05
-4.87682e-05
-1.39904e-05
-4.76148e-05
-1.60268e-05
-4.62489e-05
-1.80559e-05
-4.46643e-05
-2.00655e-05
-4.28556e-05
-2.20409e-05
-4.0819e-05
-2.3965e-05
-3.85527e-05
-2.58187e-05
-3.60571e-05
-2.75808e-05
-3.33357e-05
-2.92288e-05
-3.03951e-05
-3.07391e-05
-2.72459e-05
-3.20875e-05
-2.39026e-05
-3.32508e-05
-2.03849e-05
-3.42078e-05
-1.67174e-05
-3.49416e-05
-1.29286e-05
-3.54422e-05
-9.05255e-06
-3.57095e-05
-5.13325e-06
-1.21157e-06
-1.76606e-06
-4.88878e-05
-3.55976e-06
-4.96042e-05
-5.3572e-06
-4.92215e-05
-7.16205e-06
-4.86594e-05
-8.9743e-06
-4.79036e-05
-1.07922e-05
-4.69504e-05
-1.26118e-05
-4.57952e-05
-1.44271e-05
-4.44337e-05
-1.62297e-05
-4.28617e-05
-1.80091e-05
-4.10763e-05
-1.97524e-05
-3.90757e-05
-2.14452e-05
-3.686e-05
-2.3071e-05
-3.44314e-05
-2.46121e-05
-3.17946e-05
-2.60499e-05
-2.89576e-05
-2.73647e-05
-2.59311e-05
-2.85374e-05
-2.273e-05
-2.95497e-05
-1.93728e-05
-3.03853e-05
-1.58819e-05
-3.10312e-05
-1.22829e-05
-3.14792e-05
-8.60483e-06
-3.17282e-05
-4.88447e-06
-1.15946e-06
-1.58036e-06
-4.73075e-05
-3.18424e-06
-4.80003e-05
-4.7897e-06
-4.76161e-05
-6.39927e-06
-4.70498e-05
-8.01214e-06
-4.62908e-05
-9.62608e-06
-4.53365e-05
-1.12372e-05
-4.41841e-05
-1.284e-05
-4.2831e-05
-1.44269e-05
-4.12748e-05
-1.59889e-05
-3.95144e-05
-1.7515e-05
-3.75497e-05
-1.89928e-05
-3.53823e-05
-2.04086e-05
-3.30157e-05
-2.17476e-05
-3.04558e-05
-2.29943e-05
-2.77109e-05
-2.4133e-05
-2.47926e-05
-2.51482e-05
-2.17148e-05
-2.60257e-05
-1.84954e-05
-2.67529e-05
-1.51549e-05
-2.73196e-05
-1.17164e-05
-2.77191e-05
-8.20555e-06
-2.79501e-05
-4.65371e-06
-1.09552e-06
-1.39256e-06
-4.59149e-05
-2.80511e-06
-4.65878e-05
-4.218e-06
-4.62032e-05
-5.63298e-06
-4.56349e-05
-7.04867e-06
-4.48751e-05
-8.46254e-06
-4.39226e-05
-9.87088e-06
-4.27758e-05
-1.12686e-05
-4.14333e-05
-1.26492e-05
-3.98943e-05
-1.40048e-05
-3.81589e-05
-1.53261e-05
-3.62284e-05
-1.66029e-05
-3.41056e-05
-1.78235e-05
-3.17951e-05
-1.89759e-05
-2.93034e-05
-2.00474e-05
-2.66396e-05
-2.10253e-05
-2.38146e-05
-2.18976e-05
-2.08427e-05
-2.26529e-05
-1.77402e-05
-2.32816e-05
-1.45263e-05
-2.37758e-05
-1.12223e-05
-2.41304e-05
-7.85119e-06
-2.43438e-05
-4.44043e-06
-1.0217e-06
-1.20285e-06
-4.47121e-05
-2.42351e-06
-4.53672e-05
-3.64405e-06
-4.49827e-05
-4.86568e-06
-4.44132e-05
-6.08662e-06
-4.36542e-05
-7.30417e-06
-4.27051e-05
-8.51481e-06
-4.15652e-05
-9.71404e-06
-4.02341e-05
-1.08963e-05
-3.87121e-05
-1.20548e-05
-3.70004e-05
-1.3182e-05
-3.51013e-05
-1.42692e-05
-3.30185e-05
-1.53071e-05
-3.07574e-05
-1.62856e-05
-2.8325e-05
-1.71945e-05
-2.57305e-05
-1.80241e-05
-2.29852e-05
-1.87646e-05
-2.01022e-05
-1.94075e-05
-1.70973e-05
-1.99454e-05
-1.39884e-05
-2.03726e-05
-1.07952e-05
-2.0685e-05
-7.53887e-06
-2.08817e-05
-4.24393e-06
-9.39213e-07
-1.01008e-06
-4.3702e-05
-2.03951e-06
-4.43377e-05
-3.06833e-06
-4.39539e-05
-4.09798e-06
-4.33836e-05
-5.12645e-06
-4.26258e-05
-6.15097e-06
-4.16806e-05
-7.16834e-06
-4.05479e-05
-8.17471e-06
-3.92278e-05
-9.1654e-06
-3.77215e-05
-1.01349e-05
-3.60309e-05
-1.10769e-05
-3.41593e-05
-1.19843e-05
-3.21111e-05
-1.28495e-05
-2.98922e-05
-1.36646e-05
-2.751e-05
-1.44215e-05
-2.49738e-05
-1.51123e-05
-2.22943e-05
-1.57298e-05
-1.94847e-05
-1.62677e-05
-1.65594e-05
-1.67207e-05
-1.35354e-05
-1.70848e-05
-1.04312e-05
-1.73572e-05
-7.26649e-06
-1.75378e-05
-4.06336e-06
-8.48524e-07
-8.13128e-07
-4.28889e-05
-1.65238e-06
-4.34985e-05
-2.49009e-06
-4.31162e-05
-3.32818e-06
-4.25455e-05
-4.16496e-06
-4.1789e-05
-4.99796e-06
-4.08476e-05
-5.82461e-06
-3.97212e-05
-6.64197e-06
-3.84104e-05
-7.44632e-06
-3.69171e-05
-8.23327e-06
-3.5244e-05
-8.9978e-06
-3.33948e-05
-9.73417e-06
-3.13748e-05
-1.04362e-05
-2.91902e-05
-1.10974e-05
-2.68489e-05
-1.17113e-05
-2.43597e-05
-1.2272e-05
-2.17337e-05
-1.27739e-05
-1.89826e-05
-1.32128e-05
-1.61205e-05
-1.35853e-05
-1.31629e-05
-1.3889e-05
-1.01275e-05
-1.41224e-05
-7.03302e-06
-1.42872e-05
-3.89869e-06
-7.48748e-07
-6.10635e-07
-4.22783e-05
-1.26522e-06
-4.28439e-05
-1.91322e-06
-4.24682e-05
-2.557e-06
-4.19018e-05
-3.19704e-06
-4.1149e-05
-3.8331e-06
-4.02116e-05
-4.46434e-06
-3.909e-05
-5.08944e-06
-3.77854e-05
-5.70657e-06
-3.63e-05
-6.31274e-06
-3.46379e-05
-6.9041e-06
-3.28035e-05
-7.47648e-06
-3.08024e-05
-8.02498e-06
-2.86418e-05
-8.54404e-06
-2.63297e-05
-9.02806e-06
-2.38759e-05
-9.47118e-06
-2.12904e-05
-9.86872e-06
-1.8585e-05
-1.02172e-05
-1.57718e-05
-1.05152e-05
-1.28647e-05
-1.07618e-05
-9.88087e-06
-1.09568e-05
-6.83803e-06
-1.11053e-05
-3.75015e-06
-6.40227e-07
-4.16415e-07
-4.18619e-05
-9.03904e-07
-4.23565e-05
-1.3765e-06
-4.19956e-05
-1.83045e-06
-4.14478e-05
-2.26686e-06
-4.07126e-05
-2.69184e-06
-3.97866e-05
-3.10818e-06
-3.86737e-05
-3.51684e-06
-3.73767e-05
-3.91841e-06
-3.58985e-05
-4.31395e-06
-3.42424e-05
-4.70431e-06
-3.24132e-05
-5.08986e-06
-3.04169e-05
-5.47052e-06
-2.82611e-05
-5.84533e-06
-2.5955e-05
-6.2117e-06
-2.35093e-05
-6.56519e-06
-2.09368e-05
-6.89815e-06
-1.82518e-05
-7.19986e-06
-1.54699e-05
-7.45752e-06
-1.26068e-05
-7.66484e-06
-9.6734e-06
-7.82615e-06
-6.67663e-06
-7.95568e-06
-3.62059e-06
-5.04085e-07
-2.8145e-07
-4.15804e-05
-6.62066e-07
-4.19758e-05
-1.04632e-06
-4.16113e-05
-1.42829e-06
-4.10658e-05
-1.80126e-06
-4.03396e-05
-2.15608e-06
-3.94318e-05
-2.4875e-06
-3.83423e-05
-2.79151e-06
-3.70727e-05
-3.06463e-06
-3.56253e-05
-3.30393e-06
-3.40031e-05
-3.50761e-06
-3.22095e-05
-3.6753e-06
-3.02492e-05
-3.80825e-06
-2.81282e-05
-3.90952e-06
-2.58536e-05
-3.98495e-06
-2.34338e-05
-4.0435e-06
-2.08781e-05
-4.0981e-06
-1.8197e-05
-4.16541e-06
-1.54024e-05
-4.26389e-06
-1.25082e-05
-4.40415e-06
-9.53299e-06
-4.58335e-06
-6.49732e-06
-4.78071e-06
-3.42318e-06
-3.4961e-07
-2.69979e-07
-6.93563e-07
-1.09137e-06
-1.46365e-06
-1.81453e-06
-2.14267e-06
-2.4447e-06
-2.71671e-06
-2.95457e-06
-3.15408e-06
-3.31119e-06
-3.42203e-06
-3.48345e-06
-3.49327e-06
-3.45019e-06
-3.35403e-06
-3.20596e-06
-3.00899e-06
-2.7692e-06
-2.49915e-06
-2.224e-06
-1.99626e-06
)
;

boundaryField
{
    leftWall
    {
        type            fixedValue;
        value           uniform 0;
    }
    rightWall
    {
        type            fixedValue;
        value           nonuniform 0();
    }
    lowerWall
    {
        type            fixedValue;
        value           nonuniform 0();
    }
    atmosphere
    {
        type            calculated;
        value           nonuniform List<scalar> 
23
(
-4.13104e-05
-4.15522e-05
-4.12135e-05
-4.06935e-05
-3.99887e-05
-3.91036e-05
-3.80402e-05
-3.68007e-05
-3.53875e-05
-3.38035e-05
-3.20524e-05
-3.01383e-05
-2.80667e-05
-2.58438e-05
-2.34768e-05
-2.09742e-05
-1.8345e-05
-1.55993e-05
-1.27479e-05
-9.80299e-06
-6.77245e-06
-3.65089e-06
-4.186e-07
)
;
    }
    defaultFaces
    {
        type            empty;
        value           nonuniform 0();
    }
    procBoundary2to0
    {
        type            processor;
        value           nonuniform List<scalar> 
24
(
0.000165377
0.000149828
0.000110984
0.000103365
6.85111e-05
1.30707e-05
-2.21305e-05
8.52803e-05
8.66465e-05
8.8083e-05
9.01216e-05
9.28374e-05
9.61151e-05
9.91778e-05
0.000103009
9.17344e-05
7.66711e-05
7.56872e-05
9.74981e-05
9.1291e-05
7.18853e-05
7.35811e-05
6.0587e-05
7.2411e-05
)
;
    }
    procBoundary2to3
    {
        type            processor;
        value           nonuniform List<scalar> 
25
(
-0.000132624
-0.000121356
-9.92237e-05
-8.91938e-05
-9.03362e-05
-8.63819e-05
-7.9215e-05
-7.23221e-05
-6.58136e-05
-5.9848e-05
-5.4303e-05
-4.91789e-05
-4.44052e-05
-3.9942e-05
-3.57454e-05
-3.17808e-05
-2.80144e-05
-2.4418e-05
-2.09644e-05
-1.76288e-05
-1.43871e-05
-1.1214e-05
-8.0919e-06
-4.93522e-06
-1.92728e-06
)
;
    }
}


// ************************************************************************* //
