/*--------------------------------*- C++ -*----------------------------------*\
| =========                 |                                                 |
| \\      /  F ield         | OpenFOAM: The Open Source CFD Toolbox           |
|  \\    /   O peration     | Version:  2.4.0                                 |
|   \\  /    A nd           | Web:      www.OpenFOAM.org                      |
|    \\/     M anipulation  |                                                 |
\*---------------------------------------------------------------------------*/
FoamFile
{
    version     2.0;
    format      ascii;
    class       surfaceScalarField;
    location    "0.15";
    object      phi.air;
}
// * * * * * * * * * * * * * * * * * * * * * * * * * * * * * * * * * * * * * //

dimensions      [0 3 -1 0 0 0 0];

internalField   nonuniform List<scalar> 
1070
(
-4.48871e-05
-8.5809e-05
-3.40947e-05
-9.10781e-05
-4.08886e-05
-9.1007e-05
-6.7071e-05
-6.63829e-05
-0.00011134
-1.54812e-05
-0.00013427
1.32579e-05
2.25408e-05
-7.72854e-07
-8.4504e-05
-1.49793e-06
-8.59179e-05
-3.01783e-06
-8.65595e-05
-5.5617e-06
-8.75739e-05
-9.38237e-06
-8.90099e-05
-1.45327e-05
-9.09327e-05
-2.05396e-05
-9.28179e-05
-2.69597e-05
-9.46825e-05
-3.49145e-05
-9.62915e-05
-4.45049e-05
-9.675e-05
-5.47918e-05
-9.75908e-05
-6.64496e-05
-9.93141e-05
-7.25162e-05
-8.98893e-05
-6.89357e-05
-7.98805e-05
-6.65168e-05
-7.60041e-05
-6.9993e-05
-7.56168e-05
-7.81518e-05
-7.76502e-05
-8.98896e-05
-7.93403e-05
-0.000108505
-7.23912e-05
-0.000129266
-4.56227e-05
-0.000137299
-7.44785e-06
-0.000132801
8.7599e-06
1.56552e-05
-2.93172e-06
-8.15722e-05
-5.67474e-06
-8.31748e-05
-8.52087e-06
-8.37133e-05
-1.15748e-05
-8.45198e-05
-1.49969e-05
-8.55878e-05
-1.91192e-05
-8.68104e-05
-2.39582e-05
-8.79788e-05
-2.96649e-05
-8.89758e-05
-3.6365e-05
-8.95913e-05
-4.35005e-05
-8.96145e-05
-5.11806e-05
-8.99106e-05
-6.10556e-05
-8.9439e-05
-6.84555e-05
-8.24894e-05
-7.30602e-05
-7.52759e-05
-7.80771e-05
-7.09872e-05
-8.47351e-05
-6.89588e-05
-9.42572e-05
-6.81281e-05
-0.000107766
-6.58318e-05
-0.000123042
-5.71146e-05
-0.000131688
-3.69767e-05
-0.000128609
-1.05272e-05
-0.000122609
2.76069e-06
8.53722e-06
-2.4122e-06
-7.916e-05
-4.95333e-06
-8.06336e-05
-7.71886e-06
-8.09477e-05
-1.07958e-05
-8.14428e-05
-1.43512e-05
-8.20323e-05
-1.85163e-05
-8.26453e-05
-2.33517e-05
-8.31433e-05
-2.89284e-05
-8.33991e-05
-3.52605e-05
-8.3259e-05
-4.21846e-05
-8.26904e-05
-5.02326e-05
-8.18626e-05
-5.96765e-05
-7.9995e-05
-6.64136e-05
-7.57522e-05
-7.06704e-05
-7.10191e-05
-7.49314e-05
-6.67262e-05
-8.08544e-05
-6.30358e-05
-8.98056e-05
-5.91768e-05
-0.00010183
-5.38079e-05
-0.000113158
-4.57859e-05
-0.000117752
-3.23828e-05
-0.000114313
-1.39658e-05
-0.000108859
-2.6932e-06
3.71432e-06
-2.74932e-06
-7.64106e-05
-5.59683e-06
-7.7786e-05
-8.62306e-06
-7.79215e-05
-1.19162e-05
-7.81496e-05
-1.55782e-05
-7.83704e-05
-1.96862e-05
-7.85372e-05
-2.42821e-05
-7.85474e-05
-2.93724e-05
-7.83088e-05
-3.48875e-05
-7.7744e-05
-4.07731e-05
-7.68048e-05
-4.72472e-05
-7.53885e-05
-5.41354e-05
-7.31069e-05
-6.00081e-05
-6.98794e-05
-6.51427e-05
-6.58845e-05
-7.00428e-05
-6.1826e-05
-7.54425e-05
-5.76362e-05
-8.19326e-05
-5.26867e-05
-8.94892e-05
-4.62513e-05
-9.70179e-05
-3.82573e-05
-0.000101458
-2.79429e-05
-9.98963e-05
-1.55272e-05
-9.69269e-05
-5.6625e-06
2.06988e-06
-2.93207e-06
-7.34785e-05
-5.95592e-06
-7.47622e-05
-9.11121e-06
-7.47662e-05
-1.24607e-05
-7.48001e-05
-1.60471e-05
-7.4784e-05
-1.99076e-05
-7.46767e-05
-2.40521e-05
-7.44028e-05
-2.84731e-05
-7.38878e-05
-3.31544e-05
-7.30626e-05
-3.81157e-05
-7.18435e-05
-4.34714e-05
-7.00327e-05
-4.9142e-05
-6.74363e-05
-5.47712e-05
-6.42503e-05
-6.01293e-05
-6.05264e-05
-6.56084e-05
-5.6347e-05
-7.15283e-05
-5.17163e-05
-7.75163e-05
-4.66988e-05
-8.2298e-05
-4.14696e-05
-8.56389e-05
-3.49164e-05
-8.80541e-05
-2.55276e-05
-8.83817e-05
-1.51996e-05
-8.76422e-05
-6.40195e-06
1.08388e-06
-2.94455e-06
-7.0534e-05
-5.98521e-06
-7.17215e-05
-9.12296e-06
-7.16284e-05
-1.24127e-05
-7.15103e-05
-1.58919e-05
-7.13048e-05
-1.95969e-05
-7.09717e-05
-2.35453e-05
-7.04544e-05
-2.77391e-05
-6.96941e-05
-3.21822e-05
-6.86195e-05
-3.69025e-05
-6.71232e-05
-4.18457e-05
-6.50895e-05
-4.67666e-05
-6.25154e-05
-5.15347e-05
-5.94822e-05
-5.60088e-05
-5.60523e-05
-6.01605e-05
-5.21953e-05
-6.40889e-05
-4.7788e-05
-6.80918e-05
-4.26959e-05
-7.26999e-05
-3.68616e-05
-7.76539e-05
-2.99625e-05
-8.07882e-05
-2.23933e-05
-8.125e-05
-1.47379e-05
-8.02084e-05
-7.44353e-06
8.58871e-08
-2.89074e-06
-6.76433e-05
-5.86135e-06
-6.87509e-05
-8.91231e-06
-6.85775e-05
-1.20846e-05
-6.83381e-05
-1.54155e-05
-6.79739e-05
-1.89371e-05
-6.74501e-05
-2.26699e-05
-6.67216e-05
-2.66235e-05
-6.57404e-05
-3.07864e-05
-6.44566e-05
-3.51011e-05
-6.28085e-05
-3.9448e-05
-6.07427e-05
-4.37203e-05
-5.8243e-05
-4.79146e-05
-5.52879e-05
-5.2126e-05
-5.18409e-05
-5.63622e-05
-4.79591e-05
-6.05477e-05
-4.36025e-05
-6.44363e-05
-3.88074e-05
-6.77722e-05
-3.35257e-05
-7.01311e-05
-2.76037e-05
-7.15203e-05
-2.10041e-05
-7.23152e-05
-1.39429e-05
-7.27879e-05
-6.97086e-06
-3.8506e-07
-2.82961e-06
-6.48136e-05
-5.73912e-06
-6.58414e-05
-8.70972e-06
-6.56069e-05
-1.17737e-05
-6.5274e-05
-1.49528e-05
-6.47949e-05
-1.82622e-05
-6.41407e-05
-2.1707e-05
-6.32767e-05
-2.52847e-05
-6.21628e-05
-2.89889e-05
-6.07523e-05
-3.27995e-05
-5.89979e-05
-3.66725e-05
-5.68697e-05
-4.05556e-05
-5.436e-05
-4.43779e-05
-5.14657e-05
-4.80433e-05
-4.81755e-05
-5.1546e-05
-4.44564e-05
-5.48405e-05
-4.0308e-05
-5.79338e-05
-3.57141e-05
-6.08218e-05
-3.06377e-05
-6.33715e-05
-2.50539e-05
-6.52624e-05
-1.91132e-05
-6.61762e-05
-1.30291e-05
-6.62396e-05
-6.90744e-06
-8.15323e-07
-2.73021e-06
-6.20834e-05
-5.52355e-06
-6.3048e-05
-8.36502e-06
-6.27654e-05
-1.12775e-05
-6.23615e-05
-1.42796e-05
-6.17928e-05
-1.73834e-05
-6.10369e-05
-2.05942e-05
-6.0066e-05
-2.39079e-05
-5.88491e-05
-2.73069e-05
-5.73534e-05
-3.0756e-05
-5.55488e-05
-3.42123e-05
-5.34134e-05
-3.76426e-05
-5.09296e-05
-4.10261e-05
-4.80823e-05
-4.43359e-05
-4.48658e-05
-4.75138e-05
-4.12785e-05
-5.0509e-05
-3.73129e-05
-5.32529e-05
-3.29702e-05
-5.5646e-05
-2.82447e-05
-5.75464e-05
-2.31534e-05
-5.89017e-05
-1.77579e-05
-5.9749e-05
-1.21819e-05
-6.00667e-05
-6.58971e-06
-1.03776e-06
-2.60076e-06
-5.94827e-05
-5.26011e-06
-6.03887e-05
-7.95435e-06
-6.00712e-05
-1.07018e-05
-5.9614e-05
-1.35147e-05
-5.89799e-05
-1.64002e-05
-5.81514e-05
-1.93595e-05
-5.71067e-05
-2.23867e-05
-5.58219e-05
-2.54673e-05
-5.42728e-05
-2.85781e-05
-5.24379e-05
-3.16909e-05
-5.03006e-05
-3.47726e-05
-4.78479e-05
-3.77848e-05
-4.50701e-05
-4.06913e-05
-4.19593e-05
-4.34584e-05
-3.85114e-05
-4.60423e-05
-3.4729e-05
-4.8396e-05
-3.06165e-05
-5.04551e-05
-2.61856e-05
-5.21431e-05
-2.14655e-05
-5.33866e-05
-1.65145e-05
-5.41457e-05
-1.14227e-05
-5.44393e-05
-6.29619e-06
-1.17736e-06
-2.45712e-06
-5.70255e-05
-4.96335e-06
-5.78824e-05
-7.49505e-06
-5.75395e-05
-1.00657e-05
-5.70433e-05
-1.26832e-05
-5.63624e-05
-1.53516e-05
-5.5483e-05
-1.80698e-05
-5.43885e-05
-2.08307e-05
-5.3061e-05
-2.36207e-05
-5.14828e-05
-2.64204e-05
-4.96383e-05
-2.92066e-05
-4.75144e-05
-3.19538e-05
-4.51007e-05
-3.46337e-05
-4.23902e-05
-3.72134e-05
-3.93797e-05
-3.96551e-05
-3.60697e-05
-4.19193e-05
-3.24648e-05
-4.39607e-05
-2.85751e-05
-4.57277e-05
-2.44185e-05
-4.71677e-05
-2.00255e-05
-4.82413e-05
-1.54409e-05
-4.89314e-05
-1.07325e-05
-4.92419e-05
-5.98566e-06
-1.24336e-06
-2.2963e-06
-5.47292e-05
-4.63597e-06
-5.55428e-05
-6.99313e-06
-5.51823e-05
-9.37784e-06
-5.46586e-05
-1.17951e-05
-5.39451e-05
-1.42467e-05
-5.30314e-05
-1.67302e-05
-5.1905e-05
-1.92384e-05
-5.05527e-05
-2.17596e-05
-4.89617e-05
-2.42773e-05
-4.71205e-05
-2.6772e-05
-4.50198e-05
-2.92203e-05
-4.26524e-05
-3.15963e-05
-4.00142e-05
-3.38716e-05
-3.71044e-05
-3.60153e-05
-3.3926e-05
-3.79934e-05
-3.04867e-05
-3.97691e-05
-2.67993e-05
-4.13035e-05
-2.28842e-05
-4.25585e-05
-1.87704e-05
-4.35034e-05
-1.4496e-05
-4.41233e-05
-1.01126e-05
-4.44221e-05
-5.68681e-06
-1.26287e-06
-2.12625e-06
-5.2603e-05
-4.28978e-06
-5.33792e-05
-6.46482e-06
-5.30073e-05
-8.65868e-06
-5.24648e-05
-1.08741e-05
-5.17297e-05
-1.3111e-05
-5.07945e-05
-1.53664e-05
-4.96497e-05
-1.76331e-05
-4.82859e-05
-1.99008e-05
-4.6694e-05
-2.21555e-05
-4.48659e-05
-2.43801e-05
-4.27951e-05
-2.6555e-05
-4.04775e-05
-2.86577e-05
-3.79115e-05
-3.06634e-05
-3.50987e-05
-3.25454e-05
-3.20441e-05
-3.4275e-05
-2.87571e-05
-3.58222e-05
-2.52521e-05
-3.7157e-05
-2.15494e-05
-3.82517e-05
-1.76757e-05
-3.90839e-05
-1.36638e-05
-3.96418e-05
-9.55477e-06
-3.99262e-05
-5.40236e-06
-1.24937e-06
-1.94854e-06
-5.06544e-05
-3.92932e-06
-5.13984e-05
-5.91709e-06
-5.10195e-05
-7.91706e-06
-5.04648e-05
-9.93037e-06
-4.97164e-05
-1.1956e-05
-4.87689e-05
-1.39902e-05
-4.76155e-05
-1.60265e-05
-4.62496e-05
-1.80555e-05
-4.4665e-05
-2.00651e-05
-4.28563e-05
-2.20404e-05
-4.08198e-05
-2.39645e-05
-3.85535e-05
-2.58181e-05
-3.6058e-05
-2.75801e-05
-3.33366e-05
-2.92281e-05
-3.03961e-05
-3.07382e-05
-2.72469e-05
-3.20866e-05
-2.39037e-05
-3.32498e-05
-2.03862e-05
-3.42067e-05
-1.67188e-05
-3.49403e-05
-1.29302e-05
-3.54407e-05
-9.05431e-06
-3.57079e-05
-5.13521e-06
-1.21377e-06
-1.76604e-06
-4.88884e-05
-3.55971e-06
-4.96048e-05
-5.35712e-06
-4.92221e-05
-7.16194e-06
-4.866e-05
-8.97415e-06
-4.79042e-05
-1.0792e-05
-4.6951e-05
-1.26116e-05
-4.57959e-05
-1.44268e-05
-4.44344e-05
-1.62294e-05
-4.28624e-05
-1.80087e-05
-4.1077e-05
-1.9752e-05
-3.90765e-05
-2.14447e-05
-3.68608e-05
-2.30704e-05
-3.44322e-05
-2.46115e-05
-3.17956e-05
-2.60491e-05
-2.89585e-05
-2.73639e-05
-2.59321e-05
-2.85366e-05
-2.27311e-05
-2.95488e-05
-1.9374e-05
-3.03843e-05
-1.58832e-05
-3.10301e-05
-1.22844e-05
-3.14779e-05
-8.60646e-06
-3.17268e-05
-4.8863e-06
-1.16148e-06
-1.58033e-06
-4.7308e-05
-3.18419e-06
-4.80009e-05
-4.78962e-06
-4.76166e-05
-6.39916e-06
-4.70504e-05
-8.01201e-06
-4.62914e-05
-9.62592e-06
-4.53371e-05
-1.1237e-05
-4.41848e-05
-1.28398e-05
-4.28316e-05
-1.44267e-05
-4.12755e-05
-1.59886e-05
-3.95151e-05
-1.75146e-05
-3.75504e-05
-1.89924e-05
-3.5383e-05
-2.04081e-05
-3.30165e-05
-2.1747e-05
-3.04566e-05
-2.29937e-05
-2.77119e-05
-2.41323e-05
-2.47935e-05
-2.51475e-05
-2.17159e-05
-2.6025e-05
-1.84965e-05
-2.67521e-05
-1.51561e-05
-2.73186e-05
-1.17178e-05
-2.7718e-05
-8.20708e-06
-2.79489e-05
-4.65541e-06
-1.09743e-06
-1.39254e-06
-4.59155e-05
-2.80507e-06
-4.65884e-05
-4.21793e-06
-4.62038e-05
-5.63289e-06
-4.56355e-05
-7.04855e-06
-4.48757e-05
-8.4624e-06
-4.39233e-05
-9.8707e-06
-4.27765e-05
-1.12684e-05
-4.1434e-05
-1.26489e-05
-3.9895e-05
-1.40045e-05
-3.81596e-05
-1.53258e-05
-3.62291e-05
-1.66024e-05
-3.41064e-05
-1.7823e-05
-3.17959e-05
-1.89754e-05
-2.93043e-05
-2.00468e-05
-2.66404e-05
-2.10248e-05
-2.38156e-05
-2.1897e-05
-2.08437e-05
-2.26522e-05
-1.77413e-05
-2.32809e-05
-1.45275e-05
-2.37751e-05
-1.12236e-05
-2.41295e-05
-7.85264e-06
-2.43428e-05
-4.44206e-06
-1.02349e-06
-1.20283e-06
-4.47127e-05
-2.42346e-06
-4.53677e-05
-3.64399e-06
-4.49833e-05
-4.8656e-06
-4.44138e-05
-6.08651e-06
-4.36548e-05
-7.30404e-06
-4.27057e-05
-8.51466e-06
-4.15658e-05
-9.71386e-06
-4.02348e-05
-1.08961e-05
-3.87128e-05
-1.20546e-05
-3.70011e-05
-1.31817e-05
-3.5102e-05
-1.42689e-05
-3.30192e-05
-1.53066e-05
-3.07582e-05
-1.62851e-05
-2.83259e-05
-1.71941e-05
-2.57314e-05
-1.80235e-05
-2.29861e-05
-1.8764e-05
-2.01032e-05
-1.94069e-05
-1.70984e-05
-1.99448e-05
-1.39896e-05
-2.0372e-05
-1.07965e-05
-2.06843e-05
-7.54027e-06
-2.08809e-05
-4.24549e-06
-9.40957e-07
-1.01007e-06
-4.37026e-05
-2.03947e-06
-4.43383e-05
-3.06828e-06
-4.39544e-05
-4.09791e-06
-4.33842e-05
-5.12636e-06
-4.26264e-05
-6.15086e-06
-4.16812e-05
-7.16821e-06
-4.05485e-05
-8.17455e-06
-3.92284e-05
-9.1652e-06
-3.77221e-05
-1.01347e-05
-3.60316e-05
-1.10766e-05
-3.41601e-05
-1.1984e-05
-3.21119e-05
-1.28491e-05
-2.9893e-05
-1.36641e-05
-2.75109e-05
-1.4421e-05
-2.49746e-05
-1.51118e-05
-2.22953e-05
-1.57294e-05
-1.94856e-05
-1.62673e-05
-1.65605e-05
-1.67203e-05
-1.35366e-05
-1.70843e-05
-1.04325e-05
-1.73567e-05
-7.26788e-06
-1.75372e-05
-4.06491e-06
-8.50213e-07
-8.1311e-07
-4.28895e-05
-1.65235e-06
-4.34991e-05
-2.49005e-06
-4.31167e-05
-3.32812e-06
-4.25461e-05
-4.16488e-06
-4.17896e-05
-4.99787e-06
-4.08482e-05
-5.8245e-06
-3.97219e-05
-6.64183e-06
-3.84111e-05
-7.44615e-06
-3.69178e-05
-8.23307e-06
-3.52447e-05
-8.99755e-06
-3.33956e-05
-9.73386e-06
-3.13756e-05
-1.04358e-05
-2.9191e-05
-1.1097e-05
-2.68497e-05
-1.17109e-05
-2.43607e-05
-1.22715e-05
-2.17347e-05
-1.27735e-05
-1.89837e-05
-1.32124e-05
-1.61216e-05
-1.3585e-05
-1.3164e-05
-1.38886e-05
-1.01288e-05
-1.41221e-05
-7.03444e-06
-1.42867e-05
-3.90023e-06
-7.50453e-07
-6.10628e-07
-4.22789e-05
-1.2652e-06
-4.28445e-05
-1.91318e-06
-4.24688e-05
-2.55696e-06
-4.19023e-05
-3.19698e-06
-4.11496e-05
-3.83303e-06
-4.02122e-05
-4.46425e-06
-3.90906e-05
-5.08933e-06
-3.7786e-05
-5.70644e-06
-3.63007e-05
-6.31257e-06
-3.46386e-05
-6.90389e-06
-3.28043e-05
-7.47622e-06
-3.08032e-05
-8.02466e-06
-2.86426e-05
-8.54371e-06
-2.63307e-05
-9.02763e-06
-2.38768e-05
-9.47082e-06
-2.12915e-05
-9.86839e-06
-1.85861e-05
-1.02169e-05
-1.5773e-05
-1.0515e-05
-1.2866e-05
-1.07616e-05
-9.88225e-06
-1.09565e-05
-6.8395e-06
-1.1105e-05
-3.75174e-06
-6.41926e-07
-4.16406e-07
-4.18625e-05
-9.03887e-07
-4.2357e-05
-1.37647e-06
-4.19962e-05
-1.83042e-06
-4.14484e-05
-2.26682e-06
-4.07132e-05
-2.69179e-06
-3.97872e-05
-3.10811e-06
-3.86743e-05
-3.51675e-06
-3.73774e-05
-3.91831e-06
-3.58992e-05
-4.31382e-06
-3.42431e-05
-4.70415e-06
-3.24139e-05
-5.08966e-06
-3.04177e-05
-5.47028e-06
-2.8262e-05
-5.845e-06
-2.59559e-05
-6.2114e-06
-2.35104e-05
-6.56488e-06
-2.0938e-05
-6.89791e-06
-1.82531e-05
-7.19967e-06
-1.54713e-05
-7.45738e-06
-1.26083e-05
-7.66472e-06
-9.67493e-06
-7.82601e-06
-6.67821e-06
-7.9555e-06
-3.62225e-06
-5.05822e-07
-2.81444e-07
-4.1581e-05
-6.62055e-07
-4.19764e-05
-1.04631e-06
-4.16119e-05
-1.42827e-06
-4.10664e-05
-1.80123e-06
-4.03402e-05
-2.15605e-06
-3.94324e-05
-2.48746e-06
-3.83429e-05
-2.79146e-06
-3.70734e-05
-3.06457e-06
-3.56261e-05
-3.30385e-06
-3.40038e-05
-3.50751e-06
-3.22103e-05
-3.67517e-06
-3.02501e-05
-3.80808e-06
-2.81291e-05
-3.90934e-06
-2.58547e-05
-3.98473e-06
-2.3435e-05
-4.04331e-06
-2.08794e-05
-4.09796e-06
-1.81985e-05
-4.16532e-06
-1.54039e-05
-4.26382e-06
-1.25098e-05
-4.40409e-06
-9.53465e-06
-4.58329e-06
-6.49902e-06
-4.78061e-06
-3.42492e-06
-3.51417e-07
-2.69977e-07
-6.9356e-07
-1.09137e-06
-1.46365e-06
-1.81452e-06
-2.14266e-06
-2.44469e-06
-2.7167e-06
-2.95455e-06
-3.15406e-06
-3.31115e-06
-3.42199e-06
-3.48339e-06
-3.4932e-06
-3.45012e-06
-3.35397e-06
-3.20592e-06
-3.00895e-06
-2.76918e-06
-2.49914e-06
-2.22397e-06
-1.99623e-06
)
;

boundaryField
{
    leftWall
    {
        type            fixedValue;
        value           uniform 0;
    }
    rightWall
    {
        type            fixedValue;
        value           nonuniform 0();
    }
    lowerWall
    {
        type            fixedValue;
        value           nonuniform 0();
    }
    atmosphere
    {
        type            calculated;
        value           nonuniform List<scalar> 
23
(
-4.1311e-05
-4.15528e-05
-4.12141e-05
-4.06942e-05
-3.99893e-05
-3.91043e-05
-3.80409e-05
-3.68014e-05
-3.53882e-05
-3.38043e-05
-3.20532e-05
-3.01392e-05
-2.80677e-05
-2.58449e-05
-2.34781e-05
-2.09756e-05
-1.83465e-05
-1.56009e-05
-1.27496e-05
-9.80469e-06
-6.77419e-06
-3.65267e-06
-4.20446e-07
)
;
    }
    defaultFaces
    {
        type            empty;
        value           nonuniform 0();
    }
    procBoundary2to0
    {
        type            processor;
        value           nonuniform List<scalar> 
24
(
7.15332e-05
8.02853e-05
9.78009e-05
9.25652e-05
5.97505e-05
9.67206e-06
-2.44372e-05
8.52769e-05
8.66429e-05
8.80794e-05
9.01177e-05
9.28306e-05
9.60831e-05
9.88247e-05
0.000101103
0.000104246
0.00010634
0.000107878
0.000110972
9.59559e-05
7.63001e-05
7.35851e-05
5.91573e-05
7.9093e-05
)
;
    }
    procBoundary2to3
    {
        type            processor;
        value           nonuniform List<scalar> 
25
(
-0.000132374
-0.000125915
-0.000115492
-0.000104036
-9.52825e-05
-8.66562e-05
-7.92104e-05
-7.2317e-05
-6.58094e-05
-5.98443e-05
-5.42997e-05
-4.9176e-05
-4.44026e-05
-3.99397e-05
-3.57435e-05
-3.17791e-05
-2.80129e-05
-2.44168e-05
-2.09634e-05
-1.7628e-05
-1.43865e-05
-1.12135e-05
-8.09161e-06
-4.93504e-06
-1.92721e-06
)
;
    }
}


// ************************************************************************* //
