/*--------------------------------*- C++ -*----------------------------------*\
| =========                 |                                                 |
| \\      /  F ield         | OpenFOAM: The Open Source CFD Toolbox           |
|  \\    /   O peration     | Version:  2.4.0                                 |
|   \\  /    A nd           | Web:      www.OpenFOAM.org                      |
|    \\/     M anipulation  |                                                 |
\*---------------------------------------------------------------------------*/
FoamFile
{
    version     2.0;
    format      ascii;
    class       volVectorField;
    location    "0.15";
    object      U.air;
}
// * * * * * * * * * * * * * * * * * * * * * * * * * * * * * * * * * * * * * //

dimensions      [0 1 -1 0 0 0 0];

internalField   nonuniform List<vector> 
559
(
(-0.274583 -0.692554 0)
(-0.202354 -0.673532 0)
(-0.186533 -0.57517 0)
(-0.256272 -0.380743 0)
(-0.473391 -0.0786299 0)
(-0.712117 0.109459 0)
(-0.737929 0.145577 0)
(-0.00186579 -0.33098 0)
(-0.00614521 -0.336299 0)
(-0.0107211 -0.339376 0)
(-0.0221374 -0.347026 0)
(-0.0387844 -0.35991 0)
(-0.0629163 -0.380285 0)
(-0.0923353 -0.403993 0)
(-0.126012 -0.432611 0)
(-0.163851 -0.465827 0)
(-0.207927 -0.490844 0)
(-0.264871 -0.509005 0)
(-0.334402 -0.522084 0)
(-0.379857 -0.439202 0)
(-0.387357 -0.356564 0)
(-0.356402 -0.326194 0)
(-0.361964 -0.321998 0)
(-0.389472 -0.341002 0)
(-0.436213 -0.37379 0)
(-0.525624 -0.37189 0)
(-0.652867 -0.254221 0)
(-0.738784 -0.0552247 0)
(-0.745477 0.051169 0)
(-0.694421 0.115307 0)
(-0.00772143 -0.438804 0)
(-0.023242 -0.45018 0)
(-0.0376796 -0.458433 0)
(-0.0534653 -0.468399 0)
(-0.0705725 -0.479665 0)
(-0.0905405 -0.490372 0)
(-0.114451 -0.498656 0)
(-0.142668 -0.50387 0)
(-0.175723 -0.50583 0)
(-0.21223 -0.501646 0)
(-0.253765 -0.496684 0)
(-0.304704 -0.490032 0)
(-0.35145 -0.444404 0)
(-0.378652 -0.402544 0)
(-0.402341 -0.389278 0)
(-0.43263 -0.394195 0)
(-0.473024 -0.409649 0)
(-0.530861 -0.415611 0)
(-0.619778 -0.370051 0)
(-0.707305 -0.224804 0)
(-0.72199 -0.0385519 0)
(-0.684904 0.0351709 0)
(-0.626581 0.061533 0)
(-0.00647286 -0.473157 0)
(-0.0196615 -0.480189 0)
(-0.0336966 -0.48023 0)
(-0.0492726 -0.480986 0)
(-0.0669347 -0.482234 0)
(-0.0874419 -0.483934 0)
(-0.111478 -0.485344 0)
(-0.139345 -0.485878 0)
(-0.171141 -0.484535 0)
(-0.206596 -0.481298 0)
(-0.248003 -0.478109 0)
(-0.296973 -0.469861 0)
(-0.340551 -0.44689 0)
(-0.366936 -0.423384 0)
(-0.388672 -0.40047 0)
(-0.414555 -0.380246 0)
(-0.451996 -0.357235 0)
(-0.504215 -0.322138 0)
(-0.582673 -0.270208 0)
(-0.644226 -0.191379 0)
(-0.633671 -0.0771154 0)
(-0.60282 -0.00198767 0)
(-0.569566 0.0280841 0)
(-0.00720123 -0.409808 0)
(-0.0222654 -0.418022 0)
(-0.0379112 -0.419882 0)
(-0.0547668 -0.422537 0)
(-0.0733301 -0.425453 0)
(-0.0941191 -0.428179 0)
(-0.117444 -0.429955 0)
(-0.14344 -0.430198 0)
(-0.171887 -0.428423 0)
(-0.202872 -0.424666 0)
(-0.237177 -0.419764 0)
(-0.272885 -0.411257 0)
(-0.305778 -0.392564 0)
(-0.334515 -0.365586 0)
(-0.361424 -0.34004 0)
(-0.389809 -0.316348 0)
(-0.419812 -0.291538 0)
(-0.454763 -0.260992 0)
(-0.501412 -0.216697 0)
(-0.541274 -0.14711 0)
(-0.554879 -0.0750047 0)
(-0.537224 -0.0299805 0)
(-0.506141 0.0105418 0)
(-0.00770274 -0.405095 0)
(-0.0237971 -0.412452 0)
(-0.0402988 -0.412946 0)
(-0.057718 -0.413877 0)
(-0.0763184 -0.414656 0)
(-0.0963051 -0.414923 0)
(-0.117826 -0.414224 0)
(-0.140816 -0.412078 0)
(-0.165317 -0.408232 0)
(-0.191549 -0.402252 0)
(-0.219229 -0.392788 0)
(-0.247878 -0.378346 0)
(-0.277932 -0.359236 0)
(-0.307108 -0.337669 0)
(-0.336134 -0.316384 0)
(-0.366434 -0.293889 0)
(-0.399653 -0.268064 0)
(-0.432024 -0.237702 0)
(-0.455644 -0.206698 0)
(-0.466769 -0.163742 0)
(-0.475665 -0.0974624 0)
(-0.476497 -0.0299209 0)
(-0.470507 0.0104695 0)
(-0.00775341 -0.38711 0)
(-0.0239425 -0.393608 0)
(-0.0404889 -0.393206 0)
(-0.0577253 -0.392691 0)
(-0.0758745 -0.391805 0)
(-0.0951653 -0.390314 0)
(-0.115721 -0.387939 0)
(-0.13761 -0.384338 0)
(-0.160875 -0.379039 0)
(-0.185497 -0.371548 0)
(-0.211228 -0.361391 0)
(-0.237467 -0.348201 0)
(-0.263129 -0.332614 0)
(-0.288595 -0.314797 0)
(-0.311774 -0.292445 0)
(-0.333509 -0.267139 0)
(-0.353408 -0.238744 0)
(-0.37671 -0.206964 0)
(-0.404305 -0.163884 0)
(-0.430727 -0.113403 0)
(-0.438497 -0.0715126 0)
(-0.434237 -0.0415847 0)
(-0.428415 0.00118412 0)
(-0.00767585 -0.374371 0)
(-0.0234782 -0.380676 0)
(-0.0396166 -0.380063 0)
(-0.0563061 -0.379271 0)
(-0.0737498 -0.377924 0)
(-0.0921351 -0.375807 0)
(-0.111602 -0.372622 0)
(-0.13225 -0.368063 0)
(-0.154096 -0.361821 0)
(-0.176881 -0.353481 0)
(-0.200034 -0.342567 0)
(-0.222995 -0.328733 0)
(-0.245679 -0.311529 0)
(-0.267953 -0.291383 0)
(-0.290825 -0.270321 0)
(-0.313431 -0.246948 0)
(-0.335845 -0.221159 0)
(-0.356213 -0.192622 0)
(-0.371768 -0.162072 0)
(-0.380138 -0.126451 0)
(-0.38544 -0.0831864 0)
(-0.391144 -0.0380792 0)
(-0.392175 -0.000377941 0)
(-0.00747273 -0.355901 0)
(-0.0230106 -0.361571 0)
(-0.0387513 -0.36041 0)
(-0.054949 -0.358774 0)
(-0.0717071 -0.356386 0)
(-0.0891268 -0.353084 0)
(-0.107266 -0.348673 0)
(-0.126128 -0.342925 0)
(-0.145661 -0.335591 0)
(-0.165766 -0.326413 0)
(-0.186304 -0.315193 0)
(-0.207094 -0.301927 0)
(-0.227795 -0.286735 0)
(-0.248001 -0.269247 0)
(-0.267216 -0.248672 0)
(-0.285514 -0.225521 0)
(-0.302639 -0.199687 0)
(-0.318815 -0.171019 0)
(-0.333713 -0.138619 0)
(-0.346045 -0.104213 0)
(-0.353205 -0.0709357 0)
(-0.355831 -0.0386519 0)
(-0.355835 -0.00389728 0)
(-0.00724262 -0.342969 0)
(-0.0221615 -0.348389 0)
(-0.0372597 -0.347028 0)
(-0.0526993 -0.345094 0)
(-0.0685705 -0.342338 0)
(-0.0849573 -0.338616 0)
(-0.101906 -0.333749 0)
(-0.119418 -0.327541 0)
(-0.137431 -0.319767 0)
(-0.15579 -0.3102 0)
(-0.174294 -0.298668 0)
(-0.192748 -0.285027 0)
(-0.211016 -0.26919 0)
(-0.228984 -0.251307 0)
(-0.246442 -0.231593 0)
(-0.263058 -0.209814 0)
(-0.278577 -0.185965 0)
(-0.292493 -0.159906 0)
(-0.304114 -0.131666 0)
(-0.312746 -0.101184 0)
(-0.318377 -0.0690174 0)
(-0.321868 -0.0367865 0)
(-0.323222 -0.00520173 0)
(-0.00688914 -0.32755 0)
(-0.0211133 -0.332573 0)
(-0.0354542 -0.330946 0)
(-0.0500576 -0.328611 0)
(-0.064979 -0.325352 0)
(-0.0802717 -0.321062 0)
(-0.0959569 -0.315614 0)
(-0.112019 -0.308861 0)
(-0.1284 -0.300658 0)
(-0.144998 -0.290873 0)
(-0.161686 -0.279399 0)
(-0.178306 -0.26617 0)
(-0.194664 -0.251126 0)
(-0.210555 -0.234159 0)
(-0.225795 -0.215183 0)
(-0.240186 -0.194261 0)
(-0.253475 -0.171404 0)
(-0.265374 -0.14667 0)
(-0.275523 -0.120196 0)
(-0.283425 -0.0924385 0)
(-0.288574 -0.0639879 0)
(-0.29149 -0.03526 0)
(-0.292856 -0.00625289 0)
(-0.0065156 -0.314395 0)
(-0.019931 -0.31916 0)
(-0.0334278 -0.317386 0)
(-0.0471198 -0.314827 0)
(-0.0610414 -0.311297 0)
(-0.0752252 -0.30671 0)
(-0.0896784 -0.30096 0)
(-0.104378 -0.293933 0)
(-0.119266 -0.285511 0)
(-0.134257 -0.275589 0)
(-0.149238 -0.264082 0)
(-0.164081 -0.250923 0)
(-0.178646 -0.236073 0)
(-0.192769 -0.219535 0)
(-0.206258 -0.201317 0)
(-0.218908 -0.181422 0)
(-0.230491 -0.159892 0)
(-0.240746 -0.136799 0)
(-0.249409 -0.112289 0)
(-0.256177 -0.0865971 0)
(-0.260755 -0.0601401 0)
(-0.263467 -0.0334632 0)
(-0.264913 -0.0067211 0)
(-0.00608902 -0.301406 0)
(-0.0186206 -0.305908 0)
(-0.031203 -0.304012 0)
(-0.043927 -0.301264 0)
(-0.0568115 -0.297506 0)
(-0.0698753 -0.292674 0)
(-0.0831154 -0.28669 0)
(-0.0965058 -0.27947 0)
(-0.109996 -0.270932 0)
(-0.12351 -0.261003 0)
(-0.136956 -0.249622 0)
(-0.150218 -0.236743 0)
(-0.163164 -0.222335 0)
(-0.17565 -0.206383 0)
(-0.187518 -0.188894 0)
(-0.198593 -0.169909 0)
(-0.208686 -0.149492 0)
(-0.217593 -0.127751 0)
(-0.225121 -0.104846 0)
(-0.231053 -0.0810008 0)
(-0.235143 -0.056518 0)
(-0.237581 -0.0317742 0)
(-0.238969 -0.00692548 0)
(-0.00563988 -0.289544 0)
(-0.0172339 -0.293834 0)
(-0.0288559 -0.291861 0)
(-0.0405784 -0.288989 0)
(-0.0524083 -0.285087 0)
(-0.0643534 -0.280106 0)
(-0.0764046 -0.273986 0)
(-0.0885346 -0.266666 0)
(-0.100697 -0.258086 0)
(-0.112827 -0.248193 0)
(-0.124843 -0.236944 0)
(-0.136646 -0.224309 0)
(-0.148125 -0.210275 0)
(-0.159154 -0.194845 0)
(-0.169593 -0.178045 0)
(-0.179296 -0.159918 0)
(-0.188103 -0.14054 0)
(-0.195855 -0.120019 0)
(-0.202406 -0.0985021 0)
(-0.207606 -0.0761768 0)
(-0.211262 -0.0532867 0)
(-0.21347 -0.0301434 0)
(-0.214774 -0.00691208 0)
(-0.00516944 -0.278537 0)
(-0.0157879 -0.282637 0)
(-0.0264179 -0.280613 0)
(-0.0371167 -0.277656 0)
(-0.0478835 -0.273658 0)
(-0.0587185 -0.268583 0)
(-0.0696087 -0.262389 0)
(-0.080527 -0.255031 0)
(-0.0914309 -0.246468 0)
(-0.102263 -0.236664 0)
(-0.112953 -0.225591 0)
(-0.123415 -0.213233 0)
(-0.133552 -0.199588 0)
(-0.143257 -0.184669 0)
(-0.152413 -0.168509 0)
(-0.160896 -0.151162 0)
(-0.168578 -0.132707 0)
(-0.175333 -0.11325 0)
(-0.181046 -0.0929309 0)
(-0.185609 -0.0719108 0)
(-0.188874 -0.0503875 0)
(-0.190873 -0.0286143 0)
(-0.192074 -0.00675916 0)
(-0.00468637 -0.268523 0)
(-0.0143041 -0.272462 0)
(-0.0239222 -0.270409 0)
(-0.0335858 -0.267399 0)
(-0.0432887 -0.263344 0)
(-0.053026 -0.25822 0)
(-0.0627825 -0.251996 0)
(-0.0725317 -0.244643 0)
(-0.0822352 -0.236132 0)
(-0.0918425 -0.226442 0)
(-0.101292 -0.215557 0)
(-0.11051 -0.203472 0)
(-0.119415 -0.190196 0)
(-0.127914 -0.175751 0)
(-0.135912 -0.160176 0)
(-0.143305 -0.143529 0)
(-0.14999 -0.12589 0)
(-0.155865 -0.107361 0)
(-0.160843 -0.0880689 0)
(-0.164842 -0.0681573 0)
(-0.16775 -0.0477933 0)
(-0.169559 -0.0271878 0)
(-0.170661 -0.00650462 0)
(-0.00419461 -0.259493 0)
(-0.0127955 -0.263294 0)
(-0.0213902 -0.261227 0)
(-0.030014 -0.258184 0)
(-0.0386575 -0.2541 0)
(-0.0473123 -0.248958 0)
(-0.0559621 -0.242736 0)
(-0.0645816 -0.235416 0)
(-0.0731362 -0.226982 0)
(-0.0815817 -0.217421 0)
(-0.0898648 -0.206729 0)
(-0.0979233 -0.194911 0)
(-0.105687 -0.181982 0)
(-0.113081 -0.167972 0)
(-0.120023 -0.152923 0)
(-0.126429 -0.136897 0)
(-0.132218 -0.119971 0)
(-0.137308 -0.102244 0)
(-0.141629 -0.0838296 0)
(-0.145122 -0.0648596 0)
(-0.147701 -0.0454784 0)
(-0.149339 -0.0258657 0)
(-0.150346 -0.00617864 0)
(-0.00369706 -0.251472 0)
(-0.0112714 -0.255154 0)
(-0.0188373 -0.253081 0)
(-0.0264218 -0.250022 0)
(-0.0340138 -0.245927 0)
(-0.0416024 -0.240786 0)
(-0.049171 -0.234586 0)
(-0.056696 -0.227317 0)
(-0.0641468 -0.218971 0)
(-0.071485 -0.209545 0)
(-0.078665 -0.199041 0)
(-0.0856345 -0.187473 0)
(-0.0923352 -0.174862 0)
(-0.0987039 -0.161242 0)
(-0.104674 -0.146659 0)
(-0.110179 -0.131174 0)
(-0.115152 -0.114865 0)
(-0.119529 -0.0978215 0)
(-0.123256 -0.080152 0)
(-0.126287 -0.061975 0)
(-0.128561 -0.0434203 0)
(-0.130042 -0.0246434 0)
(-0.130965 -0.00579426 0)
(-0.00319331 -0.24447 0)
(-0.00973475 -0.248051 0)
(-0.0162721 -0.245977 0)
(-0.022821 -0.242909 0)
(-0.0293715 -0.238813 0)
(-0.0359106 -0.233684 0)
(-0.0424218 -0.227518 0)
(-0.0488838 -0.220307 0)
(-0.0552697 -0.212053 0)
(-0.0615471 -0.202757 0)
(-0.0676775 -0.19243 0)
(-0.0736174 -0.181089 0)
(-0.0793187 -0.168761 0)
(-0.0847299 -0.155484 0)
(-0.0897974 -0.141306 0)
(-0.0944672 -0.126287 0)
(-0.098687 -0.1105 0)
(-0.102408 -0.0940341 0)
(-0.105588 -0.0769873 0)
(-0.108193 -0.0594701 0)
(-0.110181 -0.041601 0)
(-0.111515 -0.0235181 0)
(-0.112368 -0.00536381 0)
(-0.00267952 -0.238496 0)
(-0.00818241 -0.241987 0)
(-0.0136964 -0.239913 0)
(-0.0192148 -0.236838 0)
(-0.0247335 -0.232747 0)
(-0.0302381 -0.227638 0)
(-0.0357125 -0.221508 0)
(-0.0411383 -0.214358 0)
(-0.0464928 -0.206191 0)
(-0.0517488 -0.197016 0)
(-0.0568749 -0.186847 0)
(-0.0618354 -0.175707 0)
(-0.0665911 -0.163625 0)
(-0.0711004 -0.150641 0)
(-0.0753207 -0.136805 0)
(-0.0792096 -0.122177 0)
(-0.0827266 -0.106826 0)
(-0.0858351 -0.0908357 0)
(-0.0885043 -0.0742991 0)
(-0.0907098 -0.0573191 0)
(-0.0924249 -0.0400057 0)
(-0.0936199 -0.0224833 0)
(-0.0944146 -0.00488864 0)
(-0.00215206 -0.233539 0)
(-0.00660707 -0.23692 0)
(-0.0111087 -0.234852 0)
(-0.0155977 -0.231775 0)
(-0.0200868 -0.227694 0)
(-0.0245626 -0.222609 0)
(-0.0290109 -0.216519 0)
(-0.0334175 -0.209427 0)
(-0.0377647 -0.201339 0)
(-0.042031 -0.192269 0)
(-0.0461912 -0.182237 0)
(-0.0502167 -0.171267 0)
(-0.0540755 -0.159394 0)
(-0.057734 -0.146657 0)
(-0.0611578 -0.133106 0)
(-0.0643134 -0.118798 0)
(-0.0671703 -0.103802 0)
(-0.0697022 -0.0881936 0)
(-0.0718886 -0.072062 0)
(-0.0737143 -0.0555052 0)
(-0.0751643 -0.0386262 0)
(-0.0762221 -0.0215368 0)
(-0.0769729 -0.0043698 0)
(-0.00160904 -0.229691 0)
(-0.00500907 -0.232893 0)
(-0.00853275 -0.230845 0)
(-0.011987 -0.227775 0)
(-0.0154207 -0.223703 0)
(-0.018838 -0.218636 0)
(-0.0222331 -0.212571 0)
(-0.0255979 -0.205513 0)
(-0.0289256 -0.197474 0)
(-0.0322053 -0.188474 0)
(-0.0354148 -0.178533 0)
(-0.0385353 -0.167684 0)
(-0.0415426 -0.155963 0)
(-0.0444085 -0.143414 0)
(-0.0471032 -0.130087 0)
(-0.049596 -0.116039 0)
(-0.0518584 -0.101332 0)
(-0.0538676 -0.0860368 0)
(-0.0556104 -0.0702304 0)
(-0.0570802 -0.0540063 0)
(-0.0582734 -0.0374596 0)
(-0.0591916 -0.0206773 0)
(-0.0599051 -0.00378102 0)
(-0.00107128 -0.227133 0)
(-0.00349222 -0.230064 0)
(-0.00614451 -0.228059 0)
(-0.00861654 -0.225001 0)
(-0.0109873 -0.220915 0)
(-0.0132896 -0.215823 0)
(-0.015541 -0.209743 0)
(-0.0177492 -0.202685 0)
(-0.019917 -0.194662 0)
(-0.0220471 -0.185688 0)
(-0.0241491 -0.175789 0)
(-0.0262242 -0.164994 0)
(-0.0282743 -0.15334 0)
(-0.0302975 -0.140876 0)
(-0.032286 -0.127656 0)
(-0.0342227 -0.113747 0)
(-0.0360767 -0.0992185 0)
(-0.0378005 -0.0841491 0)
(-0.0393314 -0.0686159 0)
(-0.0405773 -0.0526856 0)
(-0.04156 -0.0364356 0)
(-0.0423456 -0.019955 0)
(-0.0430746 -0.00327977 0)
(-0.000635314 -0.224696 0)
(-0.00245465 -0.226841 0)
(-0.00460059 -0.224925 0)
(-0.00662146 -0.222059 0)
(-0.00867093 -0.218227 0)
(-0.0106288 -0.213383 0)
(-0.0124729 -0.207532 0)
(-0.01418 -0.200686 0)
(-0.0157298 -0.192862 0)
(-0.0171045 -0.184079 0)
(-0.018291 -0.174363 0)
(-0.0192833 -0.163743 0)
(-0.0200834 -0.152254 0)
(-0.0207026 -0.139935 0)
(-0.0211643 -0.126835 0)
(-0.0215074 -0.113007 0)
(-0.0217904 -0.0985119 0)
(-0.0220919 -0.0834157 0)
(-0.0225065 -0.0677866 0)
(-0.0231552 -0.0516923 0)
(-0.0240316 -0.035218 0)
(-0.0250632 -0.0185222 0)
(-0.0262303 -0.00189423 0)
(-0.000556202 -0.222889 0)
(-0.002463 -0.224202 0)
(-0.00483726 -0.222374 0)
(-0.00685985 -0.219567 0)
(-0.00880079 -0.215762 0)
(-0.0106232 -0.210985 0)
(-0.0123152 -0.205246 0)
(-0.0138567 -0.198556 0)
(-0.0152261 -0.19093 0)
(-0.0164011 -0.182383 0)
(-0.0173594 -0.172933 0)
(-0.0180796 -0.162605 0)
(-0.0185427 -0.151427 0)
(-0.0187343 -0.139433 0)
(-0.0186451 -0.126662 0)
(-0.0182712 -0.113159 0)
(-0.017615 -0.0989721 0)
(-0.0166876 -0.0841563 0)
(-0.0155128 -0.0687698 0)
(-0.01414 -0.0528781 0)
(-0.0126696 -0.0365253 0)
(-0.0112967 -0.0196846 0)
(-0.0102947 -0.00225369 0)
)
;

boundaryField
{
    leftWall
    {
        type            fixedValue;
        value           uniform (0 0 0);
    }
    rightWall
    {
        type            fixedValue;
        value           nonuniform 0();
    }
    lowerWall
    {
        type            fixedValue;
        value           nonuniform 0();
    }
    atmosphere
    {
        type            fluxCorrectedVelocity;
        value           nonuniform List<vector> 
23
(
(-0.000556202 -0.222873 0)
(-0.002463 -0.224178 0)
(-0.00483726 -0.222351 0)
(-0.00685985 -0.219545 0)
(-0.00880079 -0.215743 0)
(-0.0106232 -0.210968 0)
(-0.0123152 -0.205231 0)
(-0.0138567 -0.198544 0)
(-0.0152261 -0.19092 0)
(-0.0164011 -0.182374 0)
(-0.0173594 -0.172927 0)
(-0.0180796 -0.162601 0)
(-0.0185427 -0.151425 0)
(-0.0187343 -0.139433 0)
(-0.0186451 -0.126664 0)
(-0.0182712 -0.113163 0)
(-0.017615 -0.0989795 0)
(-0.0166876 -0.0841669 0)
(-0.0155128 -0.0687841 0)
(-0.01414 -0.0528964 0)
(-0.0126696 -0.0365468 0)
(-0.0112967 -0.0197062 0)
(-0.0102947 -0.00226831 0)
)
;
    }
    defaultFaces
    {
        type            empty;
    }
    procBoundary2to0
    {
        type            processor;
        value           nonuniform List<vector> 
24
(
(-0.456339 0.00615385 0)
(-0.50041 -0.283769 0)
(-0.398329 -0.66871 0)
(-0.223895 -0.773989 0)
(-0.144391 -0.630301 0)
(-0.374871 -0.215619 0)
(-0.710673 0.0860705 0)
(-0.0128667 -0.787444 0)
(-0.0361547 -0.793277 0)
(-0.0519138 -0.797024 0)
(-0.0638897 -0.797868 0)
(-0.0699953 -0.796034 0)
(-0.0764453 -0.788006 0)
(-0.0819533 -0.768076 0)
(-0.0840751 -0.730365 0)
(-0.100455 -0.67869 0)
(-0.133912 -0.633251 0)
(-0.166299 -0.637358 0)
(-0.251374 -0.744785 0)
(-0.366386 -0.713972 0)
(-0.419523 -0.602251 0)
(-0.400751 -0.607311 0)
(-0.35388 -0.663401 0)
(-0.35388 -0.663401 0)
)
;
    }
    procBoundary2to3
    {
        type            processor;
        value           nonuniform List<vector> 
25
(
(-0.695066 0.170732 0)
(-0.658008 0.136569 0)
(-0.61102 0.107289 0)
(-0.55238 0.0677463 0)
(-0.50982 0.0449364 0)
(-0.463485 0.0304406 0)
(-0.424115 0.0317141 0)
(-0.38682 0.0250001 0)
(-0.352566 0.0216343 0)
(-0.320615 0.0178506 0)
(-0.291085 0.0151275 0)
(-0.263703 0.0130099 0)
(-0.238182 0.0114228 0)
(-0.214299 0.0102419 0)
(-0.191827 0.00937369 0)
(-0.170586 0.00875405 0)
(-0.150397 0.0083366 0)
(-0.131116 0.00809183 0)
(-0.112596 0.00800031 0)
(-0.0947085 0.00805237 0)
(-0.0773264 0.00824722 0)
(-0.0603204 0.008598 0)
(-0.0435876 0.00907251 0)
(-0.026754 0.0101256 0)
(-0.0102913 0.0103562 0)
)
;
    }
}


// ************************************************************************* //
