/*--------------------------------*- C++ -*----------------------------------*\
| =========                 |                                                 |
| \\      /  F ield         | OpenFOAM: The Open Source CFD Toolbox           |
|  \\    /   O peration     | Version:  2.4.0                                 |
|   \\  /    A nd           | Web:      www.OpenFOAM.org                      |
|    \\/     M anipulation  |                                                 |
\*---------------------------------------------------------------------------*/
FoamFile
{
    version     2.0;
    format      ascii;
    class       volScalarField;
    location    "0.55";
    object      alpha.mercury;
}
// * * * * * * * * * * * * * * * * * * * * * * * * * * * * * * * * * * * * * //

dimensions      [0 0 0 0 0 0 0];

internalField   nonuniform List<scalar> 
575
(
4.64323e-17
1.49839e-16
6.40312e-16
3.06503e-15
3.43285e-18
1.37848e-17
7.80678e-17
4.79868e-16
3.51975e-19
1.33382e-18
8.93354e-18
6.79574e-17
5.43701e-20
1.62196e-19
1.0295e-18
8.45784e-18
8.46235e-21
1.79056e-20
8.36434e-20
7.0234e-19
1.40373e-21
2.59292e-21
7.87177e-21
5.0409e-20
2.15576e-22
4.34154e-22
1.16717e-21
4.82269e-21
3.33359e-23
8.40121e-23
2.70856e-22
1.04489e-21
5.42667e-24
1.80886e-23
7.23065e-23
3.10941e-22
9.72139e-25
4.25261e-24
2.03812e-23
9.86013e-23
2.01841e-25
1.09294e-24
6.02043e-24
3.23303e-23
4.52618e-26
2.89588e-25
1.81287e-24
1.08998e-23
1.06494e-26
7.85177e-26
5.56041e-25
3.74602e-24
2.51104e-27
2.11405e-26
1.69285e-25
1.28175e-24
5.72802e-28
5.48371e-27
4.96345e-26
4.22942e-25
1.22528e-28
1.33232e-27
1.3636e-26
1.30946e-25
2.36419e-29
2.92612e-28
3.39649e-27
3.6882e-26
3.98088e-30
5.63432e-29
7.45336e-28
9.19814e-27
5.58505e-31
9.10116e-30
1.38136e-28
1.94969e-27
6.40839e-32
1.21533e-30
2.13822e-29
3.4855e-28
5.6488e-33
1.27075e-31
2.6379e-30
5.04817e-29
4.67166e-34
1.28728e-32
3.25278e-31
7.53305e-30
3.13213e-35
1.1146e-33
3.66317e-32
1.1022e-30
4.00335e-36
1.65818e-34
6.55831e-33
2.44258e-31
2.28196e-38
1.04382e-36
4.8129e-35
2.23999e-33
1.48662e-14
1.34605e-13
1.04061e-12
6.69344e-12
3.52906e-11
1.47997e-10
5.31883e-10
1.46374e-09
3.6544e-09
7.74746e-09
1.93763e-08
8.08405e-09
5.2049e-09
5.04964e-09
4.81013e-09
4.83668e-09
4.95292e-09
6.04001e-09
4.77624e-09
2.85121e-15
3.10845e-14
2.87342e-13
2.26072e-12
1.47665e-11
7.73571e-11
3.29508e-10
1.10638e-09
3.1249e-09
7.01035e-09
1.56417e-08
1.99561e-08
6.22229e-09
6.14549e-09
1.0102e-08
1.20711e-08
4.88701e-09
4.53054e-09
3.45275e-09
4.93641e-16
6.6499e-15
7.54355e-14
7.1866e-13
5.64477e-12
3.60591e-11
1.88312e-10
7.85749e-10
2.53403e-09
6.38435e-09
1.33042e-08
2.35603e-08
9.36182e-09
6.41617e-09
1.07569e-08
1.61991e-08
1.45975e-08
6.43152e-09
2.57329e-09
6.84669e-17
1.06116e-15
1.43532e-14
1.65864e-13
1.6018e-12
1.28591e-11
8.4776e-11
4.37921e-10
1.67074e-09
5.39264e-09
1.21391e-08
2.35236e-08
2.09211e-08
8.87422e-09
1.13597e-08
1.61958e-08
1.50818e-08
7.40273e-09
1.9978e-09
6.52122e-18
1.20455e-16
1.9424e-15
2.69044e-14
3.17088e-13
3.18387e-12
2.67166e-11
1.78289e-10
9.03425e-10
3.35529e-09
9.27188e-09
1.90919e-08
2.20701e-08
1.39093e-08
1.24007e-08
1.41783e-08
1.27467e-08
6.2983e-09
1.36305e-09
4.63581e-19
9.46634e-18
1.76046e-16
2.86188e-15
4.05122e-14
4.95912e-13
5.13497e-12
4.36126e-11
2.89831e-10
1.40128e-09
5.081e-09
1.27197e-08
2.00722e-08
1.28412e-08
1.09137e-08
1.04556e-08
9.50711e-09
5.37893e-09
7.27207e-10
3.10759e-20
5.65082e-19
1.10826e-17
2.04229e-16
3.38302e-15
4.91503e-14
6.1044e-13
6.3393e-12
5.39291e-11
3.51588e-10
1.63719e-09
6.35915e-09
1.36949e-08
9.93536e-09
7.49026e-09
6.2116e-09
6.89109e-09
4.48505e-09
3.81953e-10
4.54766e-21
4.65951e-20
6.30559e-19
1.07269e-17
1.91878e-16
3.20424e-15
4.73089e-14
6.03819e-13
6.47449e-12
5.61255e-11
3.75095e-10
1.82454e-09
5.74403e-09
5.45026e-09
3.16296e-09
3.16909e-09
4.99454e-09
3.52623e-09
2.14949e-10
1.34525e-21
1.11439e-20
8.96899e-20
8.09678e-19
9.83578e-18
1.53833e-16
2.52103e-15
3.82259e-14
5.11384e-13
5.95067e-12
5.06521e-11
3.20773e-10
1.33856e-09
1.67564e-09
7.72633e-10
5.22518e-10
4.07557e-09
2.58079e-09
1.29883e-10
4.63525e-22
4.06983e-21
3.21466e-20
2.29827e-19
1.55584e-18
1.15869e-17
1.20682e-16
1.73916e-15
2.71994e-14
3.76527e-13
3.61581e-12
3.06443e-11
1.74166e-10
2.51335e-10
1.05541e-10
2.44705e-11
2.81579e-09
1.86147e-09
1.3301e-10
1.66414e-22
1.61805e-21
1.40143e-20
1.07688e-19
7.31895e-19
4.40695e-18
2.43141e-17
1.43882e-16
1.29738e-15
1.67911e-14
1.8387e-13
1.56412e-12
1.22477e-11
1.04894e-11
2.78238e-12
7.32537e-12
1.84679e-09
1.34416e-09
1.34748e-10
6.23642e-23
6.76969e-22
6.52984e-21
5.56646e-20
4.17553e-19
2.74044e-18
1.56756e-17
7.82904e-17
3.50492e-16
1.60025e-15
8.99832e-15
6.19812e-14
5.75556e-13
3.19587e-13
4.81736e-13
2.65731e-12
9.1724e-10
8.65949e-10
1.17765e-10
2.38685e-23
2.91174e-22
3.14814e-21
3.00306e-20
2.519e-19
1.84924e-18
1.18332e-17
6.58042e-17
3.16833e-16
1.31807e-15
4.81847e-15
1.56784e-14
5.09314e-14
1.48445e-13
3.20507e-13
1.03014e-12
5.10713e-10
5.1213e-10
7.72768e-11
9.13668e-24
1.25523e-22
1.52667e-21
1.63783e-20
1.54612e-19
1.27975e-18
9.25526e-18
5.82984e-17
3.18968e-16
1.50658e-15
6.18237e-15
2.24048e-14
6.71679e-14
2.24504e-13
4.88977e-13
8.33112e-13
2.73201e-10
2.48899e-10
4.12285e-11
3.38187e-24
5.25105e-23
7.21555e-22
8.75208e-21
9.35529e-20
8.79293e-19
7.24033e-18
5.21275e-17
3.27799e-16
1.78829e-15
8.44703e-15
3.46576e-14
1.18633e-13
3.8559e-13
9.28707e-13
1.93185e-12
1.16103e-10
9.13461e-11
1.80045e-11
1.17693e-24
2.06715e-23
3.21069e-22
4.40301e-21
5.32462e-20
5.66897e-19
5.30331e-18
4.35701e-17
3.13969e-16
1.9759e-15
1.07989e-14
5.08999e-14
2.00812e-13
7.00285e-13
1.99788e-12
5.82405e-12
2.80613e-11
2.02109e-11
1.10028e-11
3.74004e-25
7.44683e-24
1.30867e-22
2.02686e-21
2.7633e-20
3.30815e-19
3.47043e-18
3.19122e-17
2.57363e-16
1.82046e-15
1.12824e-14
6.04212e-14
2.69175e-13
9.66594e-13
2.62346e-12
5.48168e-12
9.75612e-12
1.0967e-11
9.20517e-12
1.05736e-25
2.39509e-24
4.77284e-23
8.35199e-22
1.2802e-20
1.71283e-19
1.99931e-18
2.02599e-17
1.77623e-16
1.34759e-15
8.90043e-15
5.13026e-14
2.48102e-13
9.25006e-13
2.42901e-12
4.60892e-12
6.91733e-12
7.81415e-12
8.84698e-12
2.5552e-26
6.60927e-25
1.49643e-23
2.95932e-22
5.09462e-21
7.62729e-20
9.84476e-19
1.08324e-17
1.00748e-16
7.87195e-16
5.18209e-15
2.92226e-14
1.41957e-13
5.66984e-13
1.61673e-12
3.16652e-12
4.40254e-12
5.32606e-12
8.58305e-12
5.25743e-27
1.56595e-25
4.05957e-24
9.14063e-23
1.78586e-21
3.00249e-20
4.28031e-19
5.11517e-18
5.05817e-17
4.08026e-16
2.6558e-15
1.40472e-14
6.19201e-14
2.41189e-13
7.66448e-13
1.79825e-12
2.39491e-12
3.54624e-12
8.09002e-12
8.89863e-28
3.09287e-26
9.30076e-25
2.42058e-23
5.42994e-22
1.03046e-20
1.63409e-19
2.14077e-18
2.28229e-17
1.94565e-16
1.30157e-15
6.76637e-15
2.76238e-14
9.38204e-14
2.81521e-13
9.02903e-13
1.193e-12
2.48617e-12
7.33049e-12
1.59707e-28
6.63569e-27
2.35798e-25
7.18762e-24
1.85163e-22
3.98365e-21
7.08067e-20
1.02593e-18
1.19205e-17
1.09073e-16
7.69333e-16
4.08485e-15
1.65751e-14
4.80502e-14
1.45484e-13
4.67673e-13
5.90794e-13
1.60315e-12
6.31391e-12
3.01873e-29
1.60645e-27
7.21398e-26
2.71693e-24
8.50231e-23
2.19945e-21
4.66186e-20
7.97379e-19
1.07899e-17
1.12935e-16
8.95559e-16
5.26356e-15
2.30861e-14
7.13221e-14
1.66064e-13
3.22349e-13
4.11804e-13
1.2049e-12
5.08609e-12
8.44049e-30
5.78878e-28
3.30421e-26
1.54356e-24
5.86437e-23
1.80664e-21
4.47932e-20
8.8114e-19
1.34888e-17
1.56568e-16
1.33003e-15
7.98401e-15
3.21057e-14
8.80805e-14
1.50374e-13
1.57906e-13
3.33373e-13
1.0486e-12
3.41998e-12
1.05598e-31
1.16819e-29
1.10854e-27
7.74989e-26
4.12169e-24
1.71583e-22
5.65068e-21
1.46666e-19
2.94292e-18
4.3976e-17
4.62458e-16
3.1988e-15
1.45649e-14
3.2563e-14
7.55774e-14
1.50045e-14
3.11778e-13
9.27387e-13
2.32538e-12
)
;

boundaryField
{
    leftWall
    {
        type            zeroGradient;
    }
    rightWall
    {
        type            zeroGradient;
    }
    lowerWall
    {
        type            zeroGradient;
    }
    atmosphere
    {
        type            inletOutlet;
        inletValue      uniform 0;
        value           nonuniform List<scalar> 
23
(
0
0
0
0
0
1.16819e-29
1.10854e-27
7.74989e-26
4.12169e-24
1.71583e-22
5.65068e-21
1.46666e-19
2.94292e-18
4.3976e-17
4.62458e-16
3.1988e-15
1.45649e-14
3.2563e-14
7.55774e-14
0
3.11778e-13
9.27387e-13
2.32538e-12
)
;
    }
    defaultFaces
    {
        type            empty;
    }
    procBoundary3to1
    {
        type            processor;
        value           nonuniform List<scalar> 
23
(
9.43558e-16
2.20995e-15
6.35668e-15
2.1217e-14
7.51213e-14
4.99977e-13
3.03517e-12
1.61542e-11
7.31375e-11
2.74413e-10
8.16422e-10
2.08083e-09
4.30137e-09
9.19433e-09
2.04999e-08
7.06859e-09
5.21823e-09
5.49363e-09
3.21558e-08
1.75225e-07
2.51404e-07
1.06264e-07
6.1537e-08
)
;
    }
    procBoundary3to2
    {
        type            processor;
        value           nonuniform List<scalar> 
25
(
1.41407e-17
1.08778e-18
1.36057e-19
2.349e-20
3.77915e-21
6.02103e-22
8.28424e-23
1.05844e-23
1.2955e-24
1.61056e-25
2.28852e-26
3.8215e-27
7.24301e-28
1.44299e-28
2.83588e-29
5.26719e-30
8.83017e-31
1.28797e-31
1.55565e-32
1.52052e-33
1.11875e-34
7.47756e-36
3.93843e-37
4.46541e-38
2.39883e-40
)
;
    }
}


// ************************************************************************* //
