/*--------------------------------*- C++ -*----------------------------------*\
| =========                 |                                                 |
| \\      /  F ield         | OpenFOAM: The Open Source CFD Toolbox           |
|  \\    /   O peration     | Version:  2.4.0                                 |
|   \\  /    A nd           | Web:      www.OpenFOAM.org                      |
|    \\/     M anipulation  |                                                 |
\*---------------------------------------------------------------------------*/
FoamFile
{
    version     2.0;
    format      ascii;
    class       volScalarField;
    location    "0.55";
    object      alpha.water;
}
// * * * * * * * * * * * * * * * * * * * * * * * * * * * * * * * * * * * * * //

dimensions      [0 0 0 0 0 0 0];

internalField   nonuniform List<scalar> 
575
(
3.39614e-17
3.78561e-17
4.69055e-17
9.1872e-17
8.27285e-18
9.21585e-18
1.1027e-17
2.07343e-17
1.81301e-18
2.10698e-18
2.53393e-18
4.43612e-18
3.72308e-19
4.5097e-19
5.47541e-19
8.58712e-19
6.80401e-20
8.60352e-20
1.06284e-19
1.48662e-19
1.14022e-20
1.49436e-20
1.91959e-20
2.6619e-20
1.65933e-21
2.30082e-21
3.20247e-21
4.98259e-21
2.17915e-22
3.25706e-22
5.18078e-22
1.01444e-21
2.61026e-23
4.39175e-23
8.69807e-23
2.33173e-22
2.90667e-24
6.0528e-24
1.68299e-23
6.30249e-23
3.33919e-25
9.87268e-25
4.02689e-24
1.95275e-23
4.46308e-26
2.02474e-25
1.12627e-24
6.57282e-24
7.76182e-27
5.00785e-26
3.4296e-25
2.30046e-24
1.64053e-27
1.33026e-26
1.05949e-25
8.043e-25
3.66736e-28
3.48717e-27
3.16243e-26
2.70506e-25
7.89365e-29
8.59266e-28
8.82232e-27
8.50157e-26
1.53954e-29
1.9103e-28
2.22381e-27
2.42165e-26
2.617e-30
3.71286e-29
4.92317e-28
6.08918e-27
3.69838e-31
6.03857e-30
9.18218e-29
1.29823e-27
4.26657e-32
8.10386e-31
1.42781e-29
2.33052e-28
3.7763e-33
8.50517e-32
1.76747e-30
3.38581e-29
3.1345e-34
8.64479e-33
2.18619e-31
5.06668e-30
2.11097e-35
7.51652e-34
2.47163e-32
7.44034e-31
2.70744e-36
1.12184e-34
4.43854e-33
1.65361e-31
1.5457e-38
7.07161e-37
3.26104e-35
1.51787e-33
3.63967e-16
3.86557e-15
3.78673e-14
3.0478e-13
1.98205e-12
1.04084e-11
4.36698e-11
1.47014e-10
4.43836e-10
1.13385e-09
3.61302e-09
3.24572e-09
4.46398e-10
1.84221e-10
1.54233e-10
5.24101e-11
4.38168e-11
4.46009e-11
9.42378e-11
9.04805e-17
1.12628e-15
1.29056e-14
1.24902e-13
9.95025e-13
6.35566e-12
3.27042e-11
1.33595e-10
4.57415e-10
1.22304e-09
3.06186e-09
6.71355e-09
1.28626e-09
3.87318e-10
6.5347e-10
4.15692e-10
6.70704e-11
2.40477e-11
7.63067e-11
1.96925e-17
2.88459e-16
3.99505e-15
4.6477e-14
4.44048e-13
3.44512e-12
2.18436e-11
1.10559e-10
4.2961e-10
1.27921e-09
2.99839e-09
7.14707e-09
3.49194e-09
9.04619e-10
2.18711e-09
1.67636e-09
4.64689e-10
2.38604e-11
5.62333e-11
3.29166e-18
5.10988e-17
8.35736e-16
1.18014e-14
1.39058e-13
1.35845e-12
1.08523e-11
6.75814e-11
3.08866e-10
1.1727e-09
3.0253e-09
6.77408e-09
6.47818e-09
2.63937e-09
3.7107e-09
2.40429e-09
6.1648e-10
3.87808e-11
4.68597e-11
4.16692e-19
6.16007e-18
1.16493e-16
1.96537e-15
2.8349e-14
3.47911e-13
3.54977e-12
2.85654e-11
1.72323e-10
7.47354e-10
2.33866e-09
5.30261e-09
6.60128e-09
4.83988e-09
3.90744e-09
2.2799e-09
5.15078e-10
2.95509e-11
3.93335e-11
5.56688e-20
5.63181e-19
1.06238e-17
2.0252e-16
3.47129e-15
5.18364e-14
6.53926e-13
6.71666e-12
5.33313e-11
3.02172e-10
1.25212e-09
3.46312e-09
5.98245e-09
4.45103e-09
3.19775e-09
1.62844e-09
3.21018e-10
1.64276e-11
3.18829e-11
1.05144e-20
6.77075e-20
8.34263e-19
1.45348e-17
2.71988e-16
4.70713e-15
7.05396e-14
8.87498e-13
8.99293e-12
6.93659e-11
3.75929e-10
1.66038e-09
3.99281e-09
3.1196e-09
2.01734e-09
7.49834e-10
1.70685e-10
1.23624e-11
2.30154e-11
2.7179e-21
1.73136e-20
1.29475e-19
1.21352e-18
1.66312e-17
2.86776e-16
4.90229e-15
7.45178e-14
9.5405e-13
9.83806e-12
7.77769e-11
4.40041e-10
1.5738e-09
1.44879e-09
7.49465e-10
2.67952e-10
8.06022e-11
9.0535e-12
1.60567e-11
8.14223e-22
6.06747e-21
4.38346e-20
2.97143e-19
2.06435e-18
1.88174e-17
2.58142e-16
4.21803e-15
6.58364e-14
9.07939e-13
9.15224e-12
6.86103e-11
3.33727e-10
3.70042e-10
1.49852e-10
2.33741e-11
3.47177e-11
6.6245e-12
1.15264e-11
2.71862e-22
2.32327e-21
1.82442e-20
1.28322e-19
8.06952e-19
4.64741e-18
2.78117e-17
2.40024e-16
3.37426e-15
5.31641e-14
6.39984e-13
6.01616e-12
3.92365e-11
4.57688e-11
1.54227e-11
4.93411e-12
7.89799e-12
3.77637e-12
7.88154e-12
9.79064e-23
9.48037e-22
8.24086e-21
6.36009e-20
4.33261e-19
2.58992e-18
1.35868e-17
6.44627e-17
3.29455e-16
2.69044e-15
2.9667e-14
3.15993e-13
2.4985e-12
2.58119e-12
1.12791e-12
1.06137e-12
4.13241e-12
2.42269e-12
5.78756e-12
3.74657e-23
4.08076e-22
3.95778e-21
3.39331e-20
2.56001e-19
1.6895e-18
9.70907e-18
4.84677e-17
2.10321e-16
8.15548e-16
3.18517e-15
1.54571e-14
1.20225e-13
1.2437e-13
2.03699e-13
4.1218e-13
2.23341e-12
1.66856e-12
4.62255e-12
1.47026e-23
1.80304e-22
1.96068e-21
1.88138e-20
1.58777e-19
1.17312e-18
7.55858e-18
4.23482e-17
2.05522e-16
8.61306e-16
3.16062e-15
1.02551e-14
2.92108e-14
1.05728e-13
2.25405e-13
3.73705e-13
1.24328e-12
1.23334e-12
3.77874e-12
5.7585e-24
7.95203e-23
9.7227e-22
1.04875e-20
9.95773e-20
8.29483e-19
6.04256e-18
3.83874e-17
2.12187e-16
1.01474e-15
4.22875e-15
1.5613e-14
4.76631e-14
1.61265e-13
3.53844e-13
5.15896e-13
8.05516e-13
9.96865e-13
3.7898e-12
2.17189e-24
3.38731e-23
4.67553e-22
5.69794e-21
6.12222e-20
5.7887e-19
4.80121e-18
3.48818e-17
2.21879e-16
1.22762e-15
5.89126e-15
2.44985e-14
8.37837e-14
2.5997e-13
5.58183e-13
7.55247e-13
6.6955e-13
9.1743e-13
4.70182e-12
7.66726e-25
1.35147e-23
2.10663e-22
2.89986e-21
3.52172e-20
3.76871e-19
3.54894e-18
2.94146e-17
2.14415e-16
1.36762e-15
7.55621e-15
3.54598e-14
1.33473e-13
4.01351e-13
7.92139e-13
9.57331e-13
8.12461e-13
1.31714e-12
5.72215e-12
2.4623e-25
4.9161e-24
8.66261e-23
1.34539e-21
1.83992e-20
2.21112e-19
2.3316e-18
2.15997e-17
1.76018e-16
1.26053e-15
7.87127e-15
4.15248e-14
1.72745e-13
5.2498e-13
1.02723e-12
1.24267e-12
1.18433e-12
1.67711e-12
6.48701e-12
7.0143e-26
1.59213e-24
3.17901e-23
5.57388e-22
8.56157e-21
1.14832e-19
1.34489e-18
1.36986e-17
1.21082e-16
9.2945e-16
6.20873e-15
3.56474e-14
1.64743e-13
5.47787e-13
1.16522e-12
1.61197e-12
1.79609e-12
2.30212e-12
6.85765e-12
1.70412e-26
4.41469e-25
1.00099e-23
1.98227e-22
3.41724e-21
5.12348e-20
6.62509e-19
7.30973e-18
6.83018e-17
5.38049e-16
3.58684e-15
2.04723e-14
9.87957e-14
3.75009e-13
9.58292e-13
1.61577e-12
2.08828e-12
2.83152e-12
6.79961e-12
3.51956e-27
1.04954e-25
2.72374e-24
6.13893e-23
1.2005e-21
2.02018e-20
2.88285e-19
3.44961e-18
3.418e-17
2.76717e-16
1.81364e-15
9.70838e-15
4.33823e-14
1.68581e-13
5.14702e-13
1.13912e-12
1.60946e-12
2.58713e-12
6.36772e-12
5.97377e-28
2.07808e-26
6.25408e-25
1.62882e-23
3.65621e-22
6.94293e-21
1.10173e-19
1.44439e-18
1.54124e-17
1.31563e-16
8.82189e-16
4.6084e-15
1.89927e-14
6.54146e-14
1.96961e-13
6.25671e-13
8.90216e-13
1.97418e-12
5.67615e-12
1.0749e-28
4.46889e-27
1.5889e-25
4.84573e-24
1.24893e-22
2.68827e-21
4.78058e-20
6.93013e-19
8.05654e-18
7.37611e-17
5.20665e-16
2.76791e-15
1.12583e-14
3.28131e-14
1.00169e-13
3.32548e-13
4.35637e-13
1.2727e-12
4.80165e-12
2.03864e-29
1.0853e-27
4.87534e-26
1.83675e-24
5.74993e-23
1.48802e-21
3.15527e-20
5.39936e-19
7.31001e-18
7.65572e-17
6.07516e-16
3.57382e-15
1.56936e-14
4.85672e-14
1.13411e-13
2.25561e-13
2.94463e-13
9.4107e-13
3.80918e-12
5.71584e-30
3.92123e-28
2.23883e-26
1.04618e-24
3.97609e-23
1.22542e-21
3.03978e-20
5.98331e-19
9.16666e-18
1.0651e-16
9.06071e-16
5.4499e-15
2.19786e-14
6.05659e-14
1.03949e-13
1.09825e-13
2.32432e-13
8.18237e-13
2.54008e-12
7.15602e-32
7.91669e-30
7.5131e-28
5.25352e-26
2.7948e-24
1.16386e-22
3.83448e-21
9.95755e-20
1.99923e-18
2.98968e-17
3.14695e-16
2.17934e-15
9.93791e-15
2.22442e-14
5.18408e-14
1.02665e-14
2.14338e-13
7.17307e-13
1.71977e-12
)
;

boundaryField
{
    leftWall
    {
        type            zeroGradient;
    }
    rightWall
    {
        type            zeroGradient;
    }
    lowerWall
    {
        type            zeroGradient;
    }
    atmosphere
    {
        type            inletOutlet;
        inletValue      uniform 0;
        value           nonuniform List<scalar> 
23
(
0
0
0
0
0
7.91669e-30
7.5131e-28
5.25352e-26
2.7948e-24
1.16386e-22
3.83448e-21
9.95755e-20
1.99923e-18
2.98968e-17
3.14695e-16
2.17934e-15
9.93791e-15
2.22442e-14
5.18408e-14
0
2.14338e-13
7.17307e-13
1.71977e-12
)
;
    }
    defaultFaces
    {
        type            empty;
    }
    procBoundary3to1
    {
        type            processor;
        value           nonuniform List<scalar> 
23
(
1.35523e-16
1.67411e-16
2.52486e-16
5.41239e-16
1.64372e-15
1.16714e-14
8.68104e-14
5.846e-13
3.32476e-12
1.53846e-11
5.58085e-11
1.72409e-10
4.25763e-10
1.09995e-09
4.42621e-09
1.47163e-09
1.68521e-10
1.56573e-10
2.54508e-10
4.11045e-09
2.64495e-08
1.07747e-08
8.42408e-09
)
;
    }
    procBoundary3to2
    {
        type            processor;
        value           nonuniform List<scalar> 
25
(
2.6678e-17
6.19351e-18
1.24493e-18
2.37494e-19
3.96937e-20
6.2405e-21
8.44931e-22
1.02066e-22
1.09996e-23
1.05844e-24
9.44389e-26
8.35378e-27
8.46257e-28
1.13512e-28
1.91457e-29
3.43115e-30
5.75228e-31
8.45145e-32
1.02812e-32
1.01066e-33
7.46935e-35
5.01221e-36
2.65264e-37
3.01865e-38
1.62451e-40
)
;
    }
}


// ************************************************************************* //
