/*--------------------------------*- C++ -*----------------------------------*\
| =========                 |                                                 |
| \\      /  F ield         | OpenFOAM: The Open Source CFD Toolbox           |
|  \\    /   O peration     | Version:  2.4.0                                 |
|   \\  /    A nd           | Web:      www.OpenFOAM.org                      |
|    \\/     M anipulation  |                                                 |
\*---------------------------------------------------------------------------*/
FoamFile
{
    version     2.0;
    format      ascii;
    class       surfaceScalarField;
    location    "0.55";
    object      phi;
}
// * * * * * * * * * * * * * * * * * * * * * * * * * * * * * * * * * * * * * //

dimensions      [0 3 -1 0 0 0 0];

internalField   nonuniform List<scalar> 
1102
(
-1.7625e-05
-1.31306e-05
-1.81658e-05
-1.32557e-05
-1.89029e-05
-1.32268e-05
-1.3197e-05
-1.97738e-05
-1.73403e-05
-1.24422e-05
-1.80623e-05
-1.25336e-05
-1.8855e-05
-1.2434e-05
-1.21854e-05
-1.98666e-05
-1.62786e-05
-1.16656e-05
-1.72169e-05
-1.15953e-05
-1.8156e-05
-1.14949e-05
-1.11864e-05
-1.9155e-05
-1.71403e-05
-1.08796e-05
-1.80482e-05
-1.06874e-05
-1.89246e-05
-1.06185e-05
-1.03607e-05
-1.97503e-05
-1.64315e-05
-1.00014e-05
-1.73103e-05
-9.80864e-06
-1.81048e-05
-9.82398e-06
-9.62568e-06
-1.88397e-05
-1.6584e-05
-9.27187e-06
-1.72888e-05
-9.10384e-06
-1.80196e-05
-9.09318e-06
-8.95049e-06
-1.86947e-05
-1.57789e-05
-8.6407e-06
-1.64648e-05
-8.41785e-06
-1.72562e-05
-8.30181e-06
-8.1824e-06
-1.80242e-05
-1.55268e-05
-7.96474e-06
-1.61544e-05
-7.79023e-06
-1.68351e-05
-7.62105e-06
-7.4797e-06
-1.75378e-05
-1.50633e-05
-7.29441e-06
-1.5699e-05
-7.15453e-06
-1.63139e-05
-7.00611e-06
-6.86152e-06
-1.6932e-05
-1.44362e-05
-6.70365e-06
-1.50318e-05
-6.55899e-06
-1.56315e-05
-6.40628e-06
-6.23628e-06
-1.62568e-05
-1.39042e-05
-6.09069e-06
-1.44868e-05
-5.97638e-06
-1.50729e-05
-5.82011e-06
-5.65206e-06
-1.56571e-05
-1.32561e-05
-5.55083e-06
-1.38102e-05
-5.4223e-06
-1.43536e-05
-5.27663e-06
-5.10622e-06
-1.48995e-05
-1.26094e-05
-5.03373e-06
-1.31298e-05
-4.90181e-06
-1.36523e-05
-4.75411e-06
-4.5871e-06
-1.41714e-05
-1.19224e-05
-4.56141e-06
-1.24091e-05
-4.41509e-06
-1.28992e-05
-4.26397e-06
-4.09803e-06
-1.33883e-05
-1.12174e-05
-4.12009e-06
-1.16695e-05
-3.96289e-06
-1.21291e-05
-3.80432e-06
-3.63636e-06
-1.25908e-05
-1.04831e-05
-3.70919e-06
-1.09046e-05
-3.54139e-06
-1.13351e-05
-3.37377e-06
-3.20009e-06
-1.17713e-05
-9.7216e-06
-3.32494e-06
-1.01144e-05
-3.14858e-06
-1.05175e-05
-2.97059e-06
-2.79066e-06
-1.09269e-05
-8.92767e-06
-2.96597e-06
-9.29535e-06
-2.78089e-06
-9.67244e-06
-2.59346e-06
-2.40478e-06
-1.00583e-05
-8.10018e-06
-2.63087e-06
-8.44261e-06
-2.43842e-06
-8.79407e-06
-2.24198e-06
-2.04298e-06
-9.15586e-06
-7.23188e-06
-2.31878e-06
-7.55149e-06
-2.11881e-06
-7.87955e-06
-1.91389e-06
-1.70524e-06
-8.21728e-06
-6.31066e-06
-2.02513e-06
-6.61078e-06
-1.81866e-06
-6.91848e-06
-1.60618e-06
-1.38957e-06
-7.23415e-06
-5.33815e-06
-1.75603e-06
-5.61616e-06
-1.54065e-06
-5.89933e-06
-1.32299e-06
-1.09816e-06
-6.19073e-06
-4.38389e-06
-1.62304e-06
-4.56658e-06
-1.35794e-06
-4.78754e-06
-1.10202e-06
-8.49972e-07
-5.03573e-06
-3.76838e-06
-1.65922e-06
-3.76867e-06
-1.35766e-06
-3.81074e-06
-1.05996e-06
-7.62327e-07
-3.89839e-06
-3.57155e-06
-3.46397e-06
-3.38144e-06
-3.32511e-06
-2.20966e-05
-3.08946e-05
-2.48001e-05
-3.04693e-05
-2.71457e-05
-2.95371e-05
-2.88299e-05
-2.86778e-05
-2.93119e-05
-2.7788e-05
-2.80586e-05
-2.6417e-05
-2.3972e-05
-2.64324e-05
-1.57832e-05
-2.83152e-05
-8.16452e-07
-2.61347e-05
1.79556e-05
-8.61385e-06
4.91547e-05
8.61657e-05
1.87364e-06
0.000278594
-8.69183e-05
0.000235405
-0.000136302
0.000164981
-0.000157902
0.000117535
-0.000147217
7.23779e-05
-0.000111978
-4.22607e-06
-5.05502e-05
-6.70662e-05
-7.21818e-05
-2.22867e-05
-2.84745e-05
-2.44444e-05
-2.83116e-05
-2.58124e-05
-2.8169e-05
-2.70523e-05
-2.74379e-05
-2.81094e-05
-2.67309e-05
-2.75949e-05
-2.69315e-05
-2.53235e-05
-2.87038e-05
-2.00363e-05
-3.36024e-05
-9.27152e-06
-3.68995e-05
5.48249e-06
-2.33679e-05
4.16174e-05
5.00308e-05
3.74249e-05
0.000282787
-2.12305e-05
0.000294061
-7.2667e-05
0.000216418
-7.30965e-05
0.000117964
-5.78716e-05
5.71528e-05
-4.50243e-05
-1.70734e-05
-3.75166e-05
-7.45739e-05
-0.000109698
-2.13949e-05
-2.62345e-05
-2.3578e-05
-2.61285e-05
-2.54979e-05
-2.6249e-05
-2.73631e-05
-2.55727e-05
-2.89362e-05
-2.51578e-05
-2.94875e-05
-2.63801e-05
-2.94015e-05
-2.87898e-05
-2.8503e-05
-3.45009e-05
-2.45574e-05
-4.08451e-05
-1.42144e-05
-3.37109e-05
2.2123e-05
1.36934e-05
4.97024e-05
0.000255208
3.1771e-05
0.000311992
-2.09971e-08
0.00024821
-1.43041e-08
0.000117958
2.02539e-05
3.68844e-05
3.36168e-07
2.84424e-06
-2.33139e-06
-7.19064e-05
-0.00011203
-2.16696e-05
-2.43152e-05
-2.32654e-05
-2.45327e-05
-2.51246e-05
-2.43898e-05
-2.72486e-05
-2.34487e-05
-2.91885e-05
-2.32179e-05
-3.10984e-05
-2.44701e-05
-3.38573e-05
-2.60309e-05
-3.82309e-05
-3.01272e-05
-4.28344e-05
-3.62416e-05
-3.90719e-05
-3.74735e-05
-1.57579e-05
-9.62057e-06
3.96595e-05
0.00019979
4.41745e-05
0.000307477
4.18029e-05
0.000250581
4.19022e-05
0.000117858
4.61141e-05
3.26724e-05
4.22657e-05
6.69258e-06
1.02225e-05
-3.98632e-05
-0.000101807
-2.07274e-05
-2.24275e-05
-2.2717e-05
-2.25431e-05
-2.49184e-05
-2.21884e-05
-2.72571e-05
-2.111e-05
-2.95487e-05
-2.09262e-05
-3.24271e-05
-2.15917e-05
-3.68796e-05
-2.15784e-05
-4.36213e-05
-2.33855e-05
-5.32706e-05
-2.65923e-05
-6.29549e-05
-2.77892e-05
-6.46079e-05
-7.96762e-06
4.93298e-06
0.000130249
3.92945e-05
0.000273115
5.78288e-05
0.000232047
6.67224e-05
0.000108964
6.29329e-05
3.64619e-05
4.27851e-05
2.68404e-05
7.41843e-06
-4.49657e-06
-9.43889e-05
-2.04067e-05
-2.07155e-05
-2.23076e-05
-2.06421e-05
-2.4572e-05
-1.9924e-05
-2.68346e-05
-1.88473e-05
-2.94139e-05
-1.83469e-05
-3.28926e-05
-1.8113e-05
-3.76522e-05
-1.68188e-05
-4.46998e-05
-1.63379e-05
-5.55684e-05
-1.57237e-05
-7.12309e-05
-1.21267e-05
-8.2235e-05
3.03645e-06
-3.29367e-05
8.0951e-05
3.22813e-05
0.000207897
7.10764e-05
0.000193252
8.41278e-05
9.59131e-05
7.33114e-05
4.72781e-05
4.08807e-05
5.9271e-05
2.55195e-06
3.38322e-05
-9.1837e-05
-1.97971e-05
-1.89425e-05
-2.1816e-05
-1.86233e-05
-2.40053e-05
-1.77346e-05
-2.62155e-05
-1.66372e-05
-2.88389e-05
-1.57235e-05
-3.22793e-05
-1.46725e-05
-3.65335e-05
-1.25646e-05
-4.25771e-05
-1.02943e-05
-5.13705e-05
-6.93028e-06
-6.43066e-05
8.09375e-07
-7.67477e-05
1.54775e-05
-5.44612e-05
5.86645e-05
1.81928e-05
0.000135243
7.08357e-05
0.000140609
8.9756e-05
7.69928e-05
8.07559e-05
5.62782e-05
5.12699e-05
8.87571e-05
6.59705e-06
7.85049e-05
-8.52399e-05
-1.92462e-05
-1.7234e-05
-2.11656e-05
-1.67039e-05
-2.31672e-05
-1.57329e-05
-2.53022e-05
-1.45022e-05
-2.77545e-05
-1.32711e-05
-3.07663e-05
-1.16608e-05
-3.42346e-05
-9.0962e-06
-3.86419e-05
-5.88703e-06
-4.42703e-05
-1.3019e-06
-5.11639e-05
7.70298e-06
-5.59168e-05
2.02304e-05
-4.42717e-05
4.70194e-05
6.36725e-06
8.46043e-05
5.69695e-05
9.00067e-05
7.98144e-05
5.41478e-05
7.69897e-05
5.91029e-05
4.81706e-05
0.000117576
8.81135e-06
0.000117864
-7.64285e-05
-1.85362e-05
-1.56298e-05
-2.03576e-05
-1.48825e-05
-2.2215e-05
-1.38755e-05
-2.42026e-05
-1.25146e-05
-2.63663e-05
-1.11073e-05
-2.87708e-05
-9.25626e-06
-3.13376e-05
-6.52949e-06
-3.41265e-05
-3.09805e-06
-3.7057e-05
1.62854e-06
-3.91411e-05
9.78711e-06
-3.7937e-05
1.90263e-05
-2.72652e-05
3.63477e-05
2.27304e-06
5.5066e-05
4.0354e-05
5.19256e-05
5.62722e-05
3.82296e-05
5.69077e-05
5.84674e-05
3.0922e-05
0.000143562
7.04259e-06
0.000141744
-6.9386e-05
-1.7852e-05
-1.40345e-05
-1.94908e-05
-1.32436e-05
-2.12011e-05
-1.21652e-05
-2.29395e-05
-1.07762e-05
-2.47635e-05
-9.28338e-06
-2.66336e-05
-7.38612e-06
-2.83834e-05
-4.77967e-06
-2.98896e-05
-1.59184e-06
-3.07784e-05
2.51726e-06
-3.00481e-05
9.05692e-06
-2.6225e-05
1.52031e-05
-1.5143e-05
2.52657e-05
3.22762e-06
3.66954e-05
2.71479e-05
2.80053e-05
3.57175e-05
2.966e-05
3.96314e-05
5.45535e-05
2.68872e-05
0.000156306
1.34884e-05
0.000155142
-5.58975e-05
-1.70339e-05
-1.26577e-05
-1.85698e-05
-1.17076e-05
-2.01093e-05
-1.06257e-05
-2.16334e-05
-9.25206e-06
-2.3159e-05
-7.75782e-06
-2.45795e-05
-5.96567e-06
-2.57035e-05
-3.65567e-06
-2.63377e-05
-9.57673e-07
-2.59819e-05
2.16151e-06
-2.38037e-05
6.87872e-06
-1.93698e-05
1.07693e-05
-8.94297e-06
1.48389e-05
4.34144e-06
2.3411e-05
1.88991e-05
1.34477e-05
2.47396e-05
2.38194e-05
2.90262e-05
5.02669e-05
2.56721e-05
0.00015966
1.89319e-05
0.000161883
-3.69656e-05
-1.62418e-05
-1.13153e-05
-1.76236e-05
-1.03258e-05
-1.90182e-05
-9.23114e-06
-2.03643e-05
-7.90601e-06
-2.16494e-05
-6.47273e-06
-2.27534e-05
-4.86171e-06
-2.34816e-05
-2.92749e-06
-2.36381e-05
-8.01168e-07
-2.27479e-05
1.27137e-06
-2.00043e-05
4.13517e-06
-1.55269e-05
6.29189e-06
-6.6821e-06
5.99416e-06
4.49936e-06
1.22295e-05
1.50169e-05
2.93021e-06
2.11345e-05
1.77018e-05
2.30352e-05
4.83661e-05
2.31502e-05
0.000159545
2.03523e-05
0.000164681
-1.66133e-05
-1.53968e-05
-1.00899e-05
-1.66728e-05
-9.04983e-06
-1.79505e-05
-7.95343e-06
-1.91657e-05
-6.69082e-06
-2.0291e-05
-5.3475e-06
-2.1218e-05
-3.93473e-06
-2.17759e-05
-2.36958e-06
-2.17782e-05
-7.9879e-07
-2.08712e-05
3.64335e-07
-1.83442e-05
1.60827e-06
-1.40985e-05
2.04618e-06
-6.94223e-06
-1.1621e-06
2.996e-06
2.29127e-06
1.27194e-05
-6.79323e-06
2.13544e-05
9.06687e-06
2.25135e-05
4.72069e-05
2.4285e-05
0.000157774
2.64728e-05
0.000162493
9.85946e-06
-1.45489e-05
-8.9293e-06
-1.57312e-05
-7.86748e-06
-1.69185e-05
-6.76613e-06
-1.80509e-05
-5.55847e-06
-1.90976e-05
-4.30087e-06
-1.9978e-05
-3.05434e-06
-2.05643e-05
-1.78327e-06
-2.06727e-05
-6.90377e-07
-2.01302e-05
-1.78157e-07
-1.83212e-05
-2.00624e-07
-1.47947e-05
-1.4803e-06
-9.61327e-06
-6.34355e-06
-1.06016e-06
-6.26184e-06
8.51913e-06
-1.63725e-05
1.80418e-05
-4.55838e-07
1.73836e-05
4.78652e-05
2.00119e-05
0.000155145
2.29257e-05
0.000159579
3.27851e-05
-1.36832e-05
-7.83683e-06
-1.4796e-05
-6.75475e-06
-1.592e-05
-5.64209e-06
-1.70116e-05
-4.46693e-06
-1.80425e-05
-3.27007e-06
-1.89855e-05
-2.11127e-06
-1.97302e-05
-1.03858e-06
-2.01554e-05
-2.65098e-07
-2.02458e-05
-8.77919e-08
-1.96476e-05
-7.98734e-07
-1.79406e-05
-3.18727e-06
-1.54886e-05
-8.79562e-06
-8.58385e-06
-1.31666e-05
-2.01969e-06
-2.29367e-05
1.50049e-06
-3.97603e-06
1.34869e-06
4.8017e-05
8.31918e-06
0.000148175
8.49944e-06
0.000159399
4.12845e-05
-1.28078e-05
-6.8003e-06
-1.3866e-05
-5.69664e-06
-1.49443e-05
-4.56385e-06
-1.60209e-05
-3.39032e-06
-1.70839e-05
-2.20709e-06
-1.81194e-05
-1.07581e-06
-1.90812e-05
-7.67367e-08
-1.99862e-05
6.39941e-07
-2.08693e-05
7.95413e-07
-2.17554e-05
8.73847e-08
-2.2679e-05
-2.26367e-06
-2.41331e-05
-7.34155e-06
-2.28001e-05
-1.44996e-05
-2.59232e-05
-1.98136e-05
-3.11642e-05
1.26499e-06
-4.21723e-05
5.9025e-05
-2.87142e-05
0.000134717
-1.43676e-05
0.000145052
2.69169e-05
-1.19132e-05
-5.814e-06
-1.29249e-05
-4.68499e-06
-1.39724e-05
-3.51635e-06
-1.50445e-05
-2.31829e-06
-1.61547e-05
-1.09693e-06
-1.73053e-05
7.48472e-08
-1.85281e-05
1.14606e-06
-1.98781e-05
1.99003e-06
-2.15154e-05
2.43271e-06
-2.36736e-05
2.24556e-06
-2.68987e-05
9.61464e-07
-3.21513e-05
-2.08892e-06
-3.9569e-05
-7.08196e-06
-5.31764e-05
-6.20626e-06
-7.44356e-05
2.25242e-05
-8.52354e-05
6.98249e-05
-5.72409e-05
0.000106722
-1.33484e-05
0.000101159
1.35685e-05
-1.0993e-05
-4.87924e-06
-1.1961e-05
-3.71705e-06
-1.2978e-05
-2.4994e-06
-1.40492e-05
-1.24715e-06
-1.51901e-05
4.40529e-08
-1.6432e-05
1.31668e-06
-1.7835e-05
2.54917e-06
-1.95041e-05
3.65912e-06
-2.17013e-05
4.62995e-06
-2.48496e-05
5.39386e-06
-2.97247e-05
5.83649e-06
-3.79819e-05
6.16835e-06
-5.18498e-05
6.78591e-06
-7.50077e-05
1.69516e-05
-0.000102839
5.03555e-05
-0.000117563
8.45491e-05
-7.43129e-05
6.3472e-05
-7.76276e-06
3.46093e-05
5.8057e-06
-1.00382e-05
-3.99688e-06
-1.09624e-05
-2.79286e-06
-1.19435e-05
-1.5184e-06
-1.29944e-05
-1.96251e-07
-1.41368e-05
1.18643e-06
-1.54068e-05
2.58674e-06
-1.68738e-05
4.01622e-06
-1.86596e-05
5.44496e-06
-2.09822e-05
6.95255e-06
-2.42118e-05
8.62344e-06
-2.90093e-05
1.0634e-05
-3.66543e-05
1.38134e-05
-4.90597e-05
1.91912e-05
-6.93337e-05
3.72256e-05
-8.41823e-05
6.52041e-05
-8.28199e-05
8.31868e-05
-3.81504e-05
1.88024e-05
-4.34054e-06
7.99407e-07
1.46516e-06
-9.04419e-06
-3.16997e-06
-9.92079e-06
-1.91627e-06
-1.08572e-05
-5.82048e-07
-1.18677e-05
8.14244e-07
-1.29795e-05
2.29833e-06
-1.42284e-05
3.83566e-06
-1.56677e-05
5.45551e-06
-1.7397e-05
7.17426e-06
-1.95441e-05
9.09963e-06
-2.22985e-05
1.13778e-05
-2.58282e-05
1.41637e-05
-3.03516e-05
1.83367e-05
-3.49523e-05
2.37919e-05
-3.84906e-05
4.07639e-05
-3.54092e-05
6.21227e-05
-3.37557e-05
8.15333e-05
-1.83733e-05
3.42001e-06
-3.48394e-06
-1.40899e-05
-2.01878e-06
-8.00681e-06
-2.3973e-06
-8.8281e-06
-1.09498e-06
-9.70593e-06
2.95773e-07
-1.06558e-05
1.76409e-06
-1.17001e-05
3.3427e-06
-1.28744e-05
5.00992e-06
-1.4207e-05
6.78815e-06
-1.57557e-05
8.7229e-06
-1.75455e-05
1.08895e-05
-1.95867e-05
1.34189e-05
-2.16767e-05
1.62537e-05
-2.32061e-05
1.98661e-05
-2.30989e-05
2.36848e-05
-1.52968e-05
3.29618e-05
4.22543e-06
4.26005e-05
4.34697e-06
8.14118e-05
-8.66196e-06
1.64289e-05
-3.66022e-06
-1.90916e-05
-5.67901e-06
-6.91249e-06
-1.67555e-06
-7.6857e-06
-3.21781e-07
-8.50399e-06
1.11405e-06
-9.39968e-06
2.65977e-06
-1.03817e-05
4.32472e-06
-1.14846e-05
6.11284e-06
-1.27375e-05
8.04099e-06
-1.41499e-05
1.01353e-05
-1.56773e-05
1.24169e-05
-1.72195e-05
1.49611e-05
-1.85384e-05
1.75725e-05
-1.81904e-05
1.95181e-05
-1.69094e-05
2.24038e-05
-3.50511e-06
1.95575e-05
1.5108e-05
2.39874e-05
3.07097e-05
6.581e-05
7.3933e-06
3.97454e-05
-1.7783e-06
-9.92004e-06
-7.45731e-06
-5.6868e-06
-1.02449e-06
-6.39207e-06
3.83457e-07
-7.14994e-06
1.8719e-06
-7.957e-06
3.4668e-06
-8.83103e-06
5.19872e-06
-9.80213e-06
7.0839e-06
-1.09148e-05
9.15358e-06
-1.21954e-05
1.14158e-05
-1.36304e-05
1.38519e-05
-1.5087e-05
1.64177e-05
-1.63597e-05
1.88451e-05
-1.64382e-05
1.95966e-05
-1.5719e-05
2.16846e-05
-8.33395e-06
1.21724e-05
2.49432e-06
1.31591e-05
3.49338e-05
3.33705e-05
2.59183e-05
4.87608e-05
-2.1743e-06
1.81726e-05
-9.6316e-06
-4.28561e-06
-6.37285e-07
-4.82795e-06
9.25772e-07
-5.48908e-06
2.533e-06
-6.24233e-06
4.22001e-06
-7.07282e-06
6.02917e-06
-7.99901e-06
8.01005e-06
-9.0598e-06
1.02143e-05
-1.02847e-05
1.26407e-05
-1.17227e-05
1.52898e-05
-1.34664e-05
1.81613e-05
-1.54352e-05
2.08138e-05
-1.77786e-05
2.194e-05
-1.91957e-05
2.31016e-05
-1.91879e-05
1.21645e-05
-2.06783e-05
1.46494e-05
2.52952e-05
-1.2603e-05
1.73769e-05
5.66791e-05
7.93592e-06
2.76135e-05
-1.69568e-06
-3.31674e-06
-3.46232e-06
-3.7114e-06
-4.02879e-06
-4.39166e-06
-4.79869e-06
-5.26745e-06
-5.86438e-06
-6.67162e-06
-7.75392e-06
-9.0748e-06
-9.49449e-06
-1.12828e-05
-4.55623e-06
-1.00131e-05
1.49614e-05
1.25805e-05
1.39733e-05
)
;

boundaryField
{
    leftWall
    {
        type            calculated;
        value           nonuniform 0();
    }
    rightWall
    {
        type            calculated;
        value           uniform 0;
    }
    lowerWall
    {
        type            calculated;
        value           nonuniform 0();
    }
    atmosphere
    {
        type            calculated;
        value           nonuniform List<scalar> 
23
(
-1.78684e-06
-1.46525e-06
-1.14249e-06
-8.1867e-07
-6.4566e-07
1.07134e-06
2.78207e-06
4.53739e-06
6.39202e-06
8.41707e-06
1.06831e-05
1.32377e-05
1.6097e-05
1.92436e-05
2.21347e-05
2.23596e-05
2.489e-05
5.43786e-06
2.01063e-05
-3.75775e-05
5.906e-05
2.62207e-05
1.22776e-05
)
;
    }
    defaultFaces
    {
        type            empty;
        value           nonuniform 0();
    }
    procBoundary3to1
    {
        type            processor;
        value           nonuniform List<scalar> 
23
(
1.3693e-05
1.37964e-05
1.3964e-05
1.40679e-05
3.32174e-05
3.31729e-05
3.18827e-05
3.0362e-05
2.827e-05
2.51639e-05
2.23457e-05
2.01266e-05
1.11678e-05
-1.01581e-05
-0.000117365
-0.000231313
-0.000146613
-0.000115597
-9.59363e-05
-8.30631e-05
-3.10129e-05
5.63866e-06
2.16316e-05
)
;
    }
    procBoundary3to2
    {
        type            processor;
        value           nonuniform List<scalar> 
25
(
1.70626e-05
1.66519e-05
1.55019e-05
1.63543e-05
1.55534e-05
1.58545e-05
1.51477e-05
1.48508e-05
1.4393e-05
1.38455e-05
1.32913e-05
1.27163e-05
1.20923e-05
1.14501e-05
1.07761e-05
1.00722e-05
9.33738e-06
8.5687e-06
7.76511e-06
6.9198e-06
6.01704e-06
5.06905e-06
4.25092e-06
3.80457e-06
3.69915e-06
)
;
    }
}


// ************************************************************************* //
