/*--------------------------------*- C++ -*----------------------------------*\
| =========                 |                                                 |
| \\      /  F ield         | OpenFOAM: The Open Source CFD Toolbox           |
|  \\    /   O peration     | Version:  2.4.0                                 |
|   \\  /    A nd           | Web:      www.OpenFOAM.org                      |
|    \\/     M anipulation  |                                                 |
\*---------------------------------------------------------------------------*/
FoamFile
{
    version     2.0;
    format      ascii;
    class       surfaceScalarField;
    location    "0.55";
    object      phi.mercury;
}
// * * * * * * * * * * * * * * * * * * * * * * * * * * * * * * * * * * * * * //

dimensions      [0 3 -1 0 0 0 0];

internalField   nonuniform List<scalar> 
1102
(
-1.76278e-05
-1.31279e-05
-1.81695e-05
-1.32528e-05
-1.89067e-05
-1.32237e-05
-1.31938e-05
-1.97779e-05
-1.73428e-05
-1.24397e-05
-1.8065e-05
-1.2531e-05
-1.88582e-05
-1.24313e-05
-1.21825e-05
-1.98699e-05
-1.62804e-05
-1.16632e-05
-1.72191e-05
-1.15929e-05
-1.81584e-05
-1.14923e-05
-1.11837e-05
-1.91575e-05
-1.71416e-05
-1.08774e-05
-1.80499e-05
-1.06852e-05
-1.89265e-05
-1.06161e-05
-1.03582e-05
-1.97522e-05
-1.64325e-05
-9.99936e-06
-1.73115e-05
-9.80649e-06
-1.81062e-05
-9.82178e-06
-9.6234e-06
-1.88412e-05
-1.65846e-05
-9.27001e-06
-1.72897e-05
-9.10192e-06
-1.80206e-05
-9.09116e-06
-8.94841e-06
-1.86958e-05
-1.57792e-05
-8.63894e-06
-1.64653e-05
-8.41602e-06
-1.72569e-05
-8.29995e-06
-8.18049e-06
-1.80251e-05
-1.55269e-05
-7.96316e-06
-1.61548e-05
-7.78861e-06
-1.68357e-05
-7.61936e-06
-7.47796e-06
-1.75384e-05
-1.50632e-05
-7.29289e-06
-1.5699e-05
-7.15297e-06
-1.63143e-05
-7.00455e-06
-6.85992e-06
-1.69324e-05
-1.4436e-05
-6.70231e-06
-1.50319e-05
-6.55764e-06
-1.56317e-05
-6.40485e-06
-6.23483e-06
-1.62571e-05
-1.3904e-05
-6.08939e-06
-1.44866e-05
-5.97505e-06
-1.5073e-05
-5.8188e-06
-5.65072e-06
-1.56573e-05
-1.32557e-05
-5.54969e-06
-1.38101e-05
-5.42115e-06
-1.43536e-05
-5.27542e-06
-5.105e-06
-1.48995e-05
-1.26089e-05
-5.03259e-06
-1.31294e-05
-4.90064e-06
-1.36522e-05
-4.75299e-06
-4.58595e-06
-1.41713e-05
-1.19219e-05
-4.56044e-06
-1.24089e-05
-4.41412e-06
-1.2899e-05
-4.26294e-06
-4.097e-06
-1.33881e-05
-1.12169e-05
-4.11911e-06
-1.1669e-05
-3.96189e-06
-1.21289e-05
-3.80337e-06
-3.6354e-06
-1.25906e-05
-1.04825e-05
-3.70836e-06
-1.09042e-05
-3.54057e-06
-1.13348e-05
-3.3729e-06
-3.19922e-06
-1.17711e-05
-9.72105e-06
-3.32408e-06
-1.01138e-05
-3.14771e-06
-1.05172e-05
-2.96979e-06
-2.78986e-06
-1.09267e-05
-8.92711e-06
-2.96531e-06
-9.2951e-06
-2.78025e-06
-9.67214e-06
-2.59275e-06
-2.4041e-06
-1.00581e-05
-8.09969e-06
-2.63019e-06
-8.44205e-06
-2.43774e-06
-8.79389e-06
-2.24137e-06
-2.04238e-06
-9.15574e-06
-7.23134e-06
-2.31835e-06
-7.5513e-06
-2.11839e-06
-7.87938e-06
-1.91339e-06
-1.70477e-06
-8.21726e-06
-6.31018e-06
-2.02468e-06
-6.61026e-06
-1.81819e-06
-6.9184e-06
-1.6058e-06
-1.38917e-06
-7.23414e-06
-5.33762e-06
-1.75579e-06
-5.61602e-06
-1.54044e-06
-5.89919e-06
-1.3227e-06
-1.09788e-06
-6.19077e-06
-4.38352e-06
-1.62276e-06
-4.56606e-06
-1.35766e-06
-4.78746e-06
-1.10185e-06
-8.49864e-07
-5.03582e-06
-3.76799e-06
-1.65941e-06
-3.76866e-06
-1.35795e-06
-3.81093e-06
-1.06026e-06
-7.62638e-07
-3.89871e-06
-3.57162e-06
-3.46402e-06
-3.38166e-06
-3.32532e-06
-2.21005e-05
-3.08862e-05
-2.48033e-05
-3.04599e-05
-2.71488e-05
-2.95266e-05
-2.88321e-05
-2.86661e-05
-2.9314e-05
-2.77773e-05
-2.80499e-05
-2.6414e-05
-2.39086e-05
-2.64624e-05
-1.57293e-05
-2.84439e-05
-6.23206e-08
-2.6557e-05
1.7984e-05
-9.64835e-06
4.45606e-05
8.35455e-05
3.70677e-06
0.000269145
-9.627e-05
0.000235117
-0.000171769
0.000160385
-0.000173628
0.000106223
-0.000108143
6.84006e-05
-3.68799e-05
-0.000105458
-2.53518e-05
-0.000125188
-7.9708e-05
-2.22896e-05
-2.8467e-05
-2.44466e-05
-2.83032e-05
-2.58141e-05
-2.81597e-05
-2.70534e-05
-2.74277e-05
-2.81105e-05
-2.67208e-05
-2.75925e-05
-2.69257e-05
-2.53045e-05
-2.87196e-05
-2.00477e-05
-3.36988e-05
-8.54775e-06
-3.7205e-05
4.53928e-06
-2.41625e-05
4.26423e-05
4.74721e-05
4.10879e-05
0.000278684
-2.18005e-05
0.000293547
-7.41888e-05
0.000215851
-7.46571e-05
0.000117072
-5.79757e-05
5.5688e-05
9.0414e-07
-1.55527e-05
1.86814e-06
-0.000132895
-0.000114072
-2.1397e-05
-2.62277e-05
-2.35794e-05
-2.6121e-05
-2.54986e-05
-2.62408e-05
-2.73632e-05
-2.55638e-05
-2.89363e-05
-2.51485e-05
-2.94891e-05
-2.63728e-05
-2.94104e-05
-2.87962e-05
-2.85354e-05
-3.45687e-05
-2.41039e-05
-4.1032e-05
-1.58798e-05
-3.42534e-05
2.70032e-05
1.21383e-05
5.07777e-05
0.000254106
3.16788e-05
0.000303538
-1.08232e-06
0.000248101
1.07542e-06
0.000118394
2.19905e-05
3.75074e-05
1.30569e-05
2.91449e-06
9.41101e-06
-9.04766e-05
-0.000111029
-2.16711e-05
-2.4309e-05
-2.32662e-05
-2.4526e-05
-2.51246e-05
-2.43825e-05
-2.7248e-05
-2.34409e-05
-2.91879e-05
-2.32097e-05
-3.11005e-05
-2.44626e-05
-3.38796e-05
-2.60304e-05
-3.83038e-05
-3.01679e-05
-4.2861e-05
-3.63954e-05
-4.0901e-05
-3.7727e-05
-8.77606e-06
-8.28592e-06
4.0471e-05
0.000202375
4.33832e-05
0.000306653
4.16606e-05
0.000250119
4.23413e-05
0.000118672
4.79339e-05
3.31944e-05
4.69838e-05
6.27116e-06
1.10721e-05
-4.93789e-05
-0.000101678
-2.07285e-05
-2.24219e-05
-2.27173e-05
-2.2537e-05
-2.4918e-05
-2.2182e-05
-2.72561e-05
-2.11032e-05
-2.95476e-05
-2.09192e-05
-3.24276e-05
-2.15847e-05
-3.68923e-05
-2.15735e-05
-4.3694e-05
-2.33981e-05
-5.36152e-05
-2.66953e-05
-6.36908e-05
-2.80633e-05
-6.00986e-05
-7.0604e-06
7.3926e-06
0.000133582
3.93829e-05
0.000275851
5.69735e-05
0.000233722
6.69413e-05
0.000109997
6.39767e-05
3.65397e-05
4.80596e-05
2.62789e-05
6.96891e-06
-9.68712e-06
-9.50187e-05
-2.04075e-05
-2.07104e-05
-2.23077e-05
-2.06367e-05
-2.45714e-05
-1.99183e-05
-2.68333e-05
-1.88414e-05
-2.94125e-05
-1.83407e-05
-3.2892e-05
-1.81067e-05
-3.76555e-05
-1.68127e-05
-4.47308e-05
-1.63359e-05
-5.57692e-05
-1.57521e-05
-7.16505e-05
-1.22884e-05
-7.98133e-05
3.04976e-06
-2.71363e-05
8.32008e-05
3.10139e-05
0.000211996
6.98315e-05
0.00019464
8.40435e-05
9.67401e-05
7.3924e-05
4.67586e-05
4.45375e-05
5.82406e-05
-3.33231e-06
3.15854e-05
-9.10674e-05
-1.97976e-05
-1.89379e-05
-2.18158e-05
-1.86184e-05
-2.40044e-05
-1.77294e-05
-2.6214e-05
-1.66319e-05
-2.88373e-05
-1.5718e-05
-3.22783e-05
-1.46669e-05
-3.65338e-05
-1.25588e-05
-4.25835e-05
-1.02888e-05
-5.1414e-05
-6.92896e-06
-6.44745e-05
7.8223e-07
-7.61711e-05
1.54053e-05
-4.97154e-05
5.89351e-05
1.70219e-05
0.000137226
6.95291e-05
0.000141803
8.94543e-05
7.74423e-05
8.09941e-05
5.57701e-05
5.31613e-05
8.77086e-05
-1.9797e-06
7.70199e-05
-8.50372e-05
-1.92465e-05
-1.72298e-05
-2.11653e-05
-1.66994e-05
-2.31661e-05
-1.57283e-05
-2.53006e-05
-1.44974e-05
-2.77529e-05
-1.32662e-05
-3.07651e-05
-1.16558e-05
-3.42344e-05
-9.09118e-06
-3.86432e-05
-5.88183e-06
-4.42761e-05
-1.29661e-06
-5.11845e-05
7.70628e-06
-5.59438e-05
2.02305e-05
-4.23881e-05
4.71053e-05
6.31021e-06
8.54916e-05
5.57388e-05
9.10853e-05
7.9691e-05
5.43624e-05
7.70471e-05
5.87082e-05
4.93065e-05
0.00011692
3.92068e-08
0.000116694
-7.76642e-05
-1.85363e-05
-1.56259e-05
-2.03571e-05
-1.48784e-05
-2.22138e-05
-1.38713e-05
-2.42009e-05
-1.25103e-05
-2.63646e-05
-1.1103e-05
-2.87696e-05
-9.25192e-06
-3.13371e-05
-6.52514e-06
-3.41271e-05
-3.09355e-06
-3.70586e-05
1.63341e-06
-3.91432e-05
9.79246e-06
-3.79449e-05
1.90327e-05
-2.69399e-05
3.63762e-05
2.34865e-06
5.52657e-05
3.98924e-05
5.227e-05
5.62951e-05
3.82767e-05
5.72866e-05
5.84462e-05
3.205e-05
0.000143049
-1.08117e-06
0.000140955
-6.97512e-05
-1.7852e-05
-1.4031e-05
-1.94903e-05
-1.32399e-05
-2.11999e-05
-1.21614e-05
-2.29378e-05
-1.07723e-05
-2.47618e-05
-9.27953e-06
-2.66324e-05
-7.38236e-06
-2.83829e-05
-4.77597e-06
-2.98899e-05
-1.58802e-06
-3.07793e-05
2.52138e-06
-3.00497e-05
9.06158e-06
-2.62273e-05
1.52085e-05
-1.51076e-05
2.52741e-05
3.22837e-06
3.67214e-05
2.70848e-05
2.80492e-05
3.57328e-05
2.96695e-05
4.04345e-05
5.45606e-05
2.74245e-05
0.000156074
1.56533e-06
0.000154546
-5.53488e-05
-1.70337e-05
-1.26545e-05
-1.85692e-05
-1.17042e-05
-2.0108e-05
-1.06223e-05
-2.16318e-05
-9.24858e-06
-2.31574e-05
-7.75443e-06
-2.45783e-05
-5.96244e-06
-2.57029e-05
-3.65253e-06
-2.63376e-05
-9.54474e-07
-2.59824e-05
2.16499e-06
-2.38048e-05
6.88262e-06
-1.93715e-05
1.07737e-05
-8.94247e-06
1.48439e-05
4.33863e-06
2.34171e-05
1.88938e-05
1.34546e-05
2.47354e-05
2.38257e-05
2.96363e-05
5.02728e-05
2.5877e-05
0.000159539
3.95411e-06
0.000160286
-3.56554e-05
-1.62416e-05
-1.13123e-05
-1.76229e-05
-1.03227e-05
-1.9017e-05
-9.22799e-06
-2.03627e-05
-7.90293e-06
-2.16479e-05
-6.46982e-06
-2.27523e-05
-4.85899e-06
-2.34809e-05
-2.92487e-06
-2.36378e-05
-7.98486e-07
-2.27481e-05
1.2743e-06
-2.00049e-05
4.13845e-06
-1.55281e-05
6.29558e-06
-6.68386e-06
5.99823e-06
4.49695e-06
1.2234e-05
1.50144e-05
2.93499e-06
2.11312e-05
1.7706e-05
2.33001e-05
4.837e-05
2.3107e-05
0.00015952
7.65257e-06
0.000154502
-1.70067e-05
-1.53965e-05
-1.00872e-05
-1.6672e-05
-9.04702e-06
-1.79493e-05
-7.95064e-06
-1.91643e-05
-6.68814e-06
-2.02897e-05
-5.34503e-06
-2.12169e-05
-3.93245e-06
-2.17752e-05
-2.36741e-06
-2.17778e-05
-7.96527e-07
-2.08711e-05
3.66797e-07
-1.83446e-05
1.61103e-06
-1.40994e-05
2.04927e-06
-6.94382e-06
-1.15868e-06
2.9939e-06
2.29503e-06
1.27174e-05
-6.78922e-06
2.13517e-05
8.86082e-06
2.265e-05
4.71549e-05
2.37887e-05
0.000157691
1.20589e-05
0.000134439
-1.31643e-06
-1.45485e-05
-8.92681e-06
-1.57304e-05
-7.86494e-06
-1.69174e-05
-6.76367e-06
-1.80497e-05
-5.55617e-06
-1.90964e-05
-4.29881e-06
-1.9977e-05
-3.05246e-06
-2.05635e-05
-1.78147e-06
-2.06721e-05
-6.88487e-07
-2.01298e-05
-1.76095e-07
-1.83213e-05
-1.98329e-07
-1.47954e-05
-1.47769e-06
-9.61457e-06
-6.34061e-06
-1.06195e-06
-6.25853e-06
8.48722e-06
-1.63694e-05
1.79796e-05
-1.49554e-06
1.74485e-05
4.55534e-05
1.89643e-05
0.000154963
1.42982e-05
0.000128055
1.645e-05
-1.36828e-05
-7.83456e-06
-1.47953e-05
-6.75253e-06
-1.59191e-05
-5.63997e-06
-1.70106e-05
-4.46501e-06
-1.80414e-05
-3.26837e-06
-1.89846e-05
-2.10976e-06
-1.97293e-05
-1.0371e-06
-2.01547e-05
-2.63554e-07
-2.02452e-05
-8.60882e-08
-1.96475e-05
-7.96824e-07
-1.79411e-05
-3.18515e-06
-1.54895e-05
-8.7931e-06
-8.58523e-06
-1.31637e-05
-2.10892e-06
-2.29361e-05
9.63518e-07
-5.38298e-06
1.34672e-06
4.11218e-05
8.44731e-06
0.00014796
8.04806e-06
0.000141745
3.88715e-05
-1.28075e-05
-6.79826e-06
-1.38653e-05
-5.69468e-06
-1.49434e-05
-4.56204e-06
-1.602e-05
-3.38874e-06
-1.7083e-05
-2.20571e-06
-1.81185e-05
-1.07459e-06
-1.90803e-05
-7.55402e-08
-1.99853e-05
6.41181e-07
-2.08686e-05
7.96763e-07
-2.17551e-05
8.88623e-08
-2.26792e-05
-2.262e-06
-2.41337e-05
-7.33957e-06
-2.28e-05
-1.44973e-05
-2.58972e-05
-1.98139e-05
-3.099e-05
6.0693e-08
-4.11053e-05
4.83579e-05
-2.81009e-05
0.000132875
-1.38466e-05
0.000139801
2.90629e-05
-1.19129e-05
-5.81222e-06
-1.29244e-05
-4.68331e-06
-1.39718e-05
-3.51484e-06
-1.50438e-05
-2.31699e-06
-1.61539e-05
-1.09582e-06
-1.73044e-05
7.58459e-08
-1.85271e-05
1.147e-06
-1.98771e-05
1.99099e-06
-2.15146e-05
2.43371e-06
-2.36731e-05
2.24659e-06
-2.68985e-05
9.62609e-07
-3.21515e-05
-2.08763e-06
-3.95692e-05
-7.08046e-06
-5.29931e-05
-6.20527e-06
-7.21934e-05
2.18966e-05
-8.17308e-05
5.39965e-05
-5.525e-05
6.0821e-05
-1.17599e-05
6.73763e-05
4.58704e-05
-1.09928e-05
-4.87768e-06
-1.19606e-05
-3.71562e-06
-1.29775e-05
-2.49814e-06
-1.40486e-05
-1.24608e-06
-1.51895e-05
4.49599e-08
-1.64311e-05
1.3175e-06
-1.78341e-05
2.54991e-06
-1.95031e-05
3.65982e-06
-2.17005e-05
4.63057e-06
-2.4849e-05
5.39441e-06
-2.97243e-05
5.83692e-06
-3.79817e-05
6.16862e-06
-5.18493e-05
6.78592e-06
-7.49386e-05
1.69508e-05
-9.63108e-05
5.01961e-05
-8.75657e-05
5.60748e-05
-4.02443e-05
-8.03022e-06
1.99111e-06
2.06548e-05
1.16223e-05
-1.00381e-05
-3.99555e-06
-1.09622e-05
-2.79167e-06
-1.19431e-05
-1.51734e-06
-1.2994e-05
-1.95365e-07
-1.41362e-05
1.18721e-06
-1.5406e-05
2.58741e-06
-1.68729e-05
4.01681e-06
-1.86587e-05
5.44542e-06
-2.09815e-05
6.95286e-06
-2.42113e-05
8.62356e-06
-2.90091e-05
1.06338e-05
-3.66541e-05
1.38128e-05
-4.90592e-05
1.919e-05
-6.92899e-05
3.72233e-05
-7.27691e-05
6.5113e-05
-4.13181e-05
4.73786e-05
-1.82846e-05
-1.86521e-05
-1.54311e-06
-2.9588e-06
1.37805e-06
-9.04414e-06
-3.16887e-06
-9.92068e-06
-1.91526e-06
-1.0857e-05
-5.81156e-07
-1.18673e-05
8.15022e-07
-1.29791e-05
2.29901e-06
-1.42278e-05
3.83624e-06
-1.56669e-05
5.45597e-06
-1.73962e-05
7.17456e-06
-1.95435e-05
9.09975e-06
-2.22982e-05
1.13777e-05
-2.58283e-05
1.41632e-05
-3.03519e-05
1.8336e-05
-3.49527e-05
2.37907e-05
-3.84789e-05
4.07622e-05
-3.0891e-05
6.20973e-05
-2.0519e-05
5.20098e-05
-1.5315e-05
-2.09034e-05
-2.92365e-06
-1.58132e-05
-2.02476e-06
-8.00683e-06
-2.39643e-06
-8.82808e-06
-1.09414e-06
-9.70584e-06
2.96543e-07
-1.06555e-05
1.7648e-06
-1.16997e-05
3.34332e-06
-1.28738e-05
5.01044e-06
-1.42063e-05
6.78854e-06
-1.5755e-05
8.72313e-06
-1.75451e-05
1.08895e-05
-1.95866e-05
1.34188e-05
-2.1677e-05
1.62534e-05
-2.32067e-05
1.98657e-05
-2.30999e-05
2.36843e-05
-1.52983e-05
3.29614e-05
3.02952e-06
4.26008e-05
-7.56767e-06
7.11083e-05
-1.34339e-05
-1.42696e-05
-1.92224e-06
-1.91142e-05
-5.71537e-06
-6.91254e-06
-1.67493e-06
-7.68573e-06
-3.21225e-07
-8.50394e-06
1.11458e-06
-9.39952e-06
2.66024e-06
-1.03814e-05
4.32512e-06
-1.14842e-05
6.11317e-06
-1.27369e-05
8.04117e-06
-1.41493e-05
1.01353e-05
-1.5677e-05
1.24167e-05
-1.72195e-05
1.49609e-05
-1.85388e-05
1.75722e-05
-1.8191e-05
1.9518e-05
-1.69105e-05
2.24039e-05
-3.5068e-06
1.95581e-05
1.50112e-05
2.39884e-05
1.90902e-05
6.54934e-05
-8.33457e-06
2.01056e-05
2.1476e-06
-1.33707e-05
-7.42434e-06
-5.68691e-06
-1.02443e-06
-6.39213e-06
3.83458e-07
-7.14993e-06
1.87189e-06
-7.95689e-06
3.46676e-06
-8.83078e-06
5.19864e-06
-9.80177e-06
7.0837e-06
-1.09143e-05
9.15325e-06
-1.2195e-05
1.14153e-05
-1.36302e-05
1.38512e-05
-1.50871e-05
1.64169e-05
-1.63599e-05
1.88444e-05
-1.64387e-05
1.95959e-05
-1.57198e-05
2.16843e-05
-8.33522e-06
1.21724e-05
2.49211e-06
1.31598e-05
3.45733e-05
3.33717e-05
5.60549e-06
4.81396e-05
1.54866e-05
2.47998e-06
-1.02572e-05
-4.28576e-06
-6.37929e-07
-4.82802e-06
9.2521e-07
-5.48909e-06
2.53248e-06
-6.24225e-06
4.21951e-06
-7.07266e-06
6.0286e-06
-7.99876e-06
8.00937e-06
-9.05952e-06
1.02134e-05
-1.02845e-05
1.26396e-05
-1.17226e-05
1.52885e-05
-1.34664e-05
1.81599e-05
-1.54353e-05
2.08124e-05
-1.77789e-05
2.19386e-05
-1.91962e-05
2.31005e-05
-1.91886e-05
1.21636e-05
-2.06795e-05
1.46491e-05
2.52947e-05
-1.26034e-05
1.24247e-05
5.66804e-05
2.52091e-05
1.72429e-05
-1.36221e-06
-3.31681e-06
-3.46235e-06
-3.71141e-06
-4.02876e-06
-4.3916e-06
-4.7986e-06
-5.26734e-06
-5.86428e-06
-6.67154e-06
-7.75388e-06
-9.07479e-06
-9.49451e-06
-1.1283e-05
-4.55644e-06
-1.00136e-05
1.49615e-05
1.20858e-05
3.73509e-05
)
;

boundaryField
{
    leftWall
    {
        type            fixedValue;
        value           nonuniform 0();
    }
    rightWall
    {
        type            fixedValue;
        value           uniform 0;
    }
    lowerWall
    {
        type            fixedValue;
        value           nonuniform 0();
    }
    atmosphere
    {
        type            calculated;
        value           nonuniform List<scalar> 
23
(
-1.78756e-06
-1.46594e-06
-1.14315e-06
-8.19238e-07
-6.46613e-07
1.07058e-06
2.7814e-06
4.53672e-06
6.39129e-06
8.41621e-06
1.0682e-05
1.32363e-05
1.60955e-05
1.92419e-05
2.2133e-05
2.2358e-05
2.48885e-05
5.43658e-06
2.01058e-05
-3.75784e-05
5.90608e-05
2.38092e-05
8.4517e-06
)
;
    }
    defaultFaces
    {
        type            empty;
        value           nonuniform 0();
    }
    procBoundary3to1
    {
        type            processor;
        value           nonuniform List<scalar> 
23
(
1.36898e-05
1.3793e-05
1.39605e-05
1.40642e-05
3.3208e-05
3.31622e-05
3.18702e-05
3.03495e-05
2.82603e-05
2.51703e-05
2.23962e-05
2.02803e-05
1.16578e-05
-9.02631e-06
-0.000114195
-0.000230045
-0.000139582
-9.48641e-05
-7.62779e-05
-6.12944e-05
4.30329e-05
4.84199e-05
2.11329e-05
)
;
    }
    procBoundary3to2
    {
        type            processor;
        value           nonuniform List<scalar> 
25
(
1.70651e-05
1.66536e-05
1.55032e-05
1.63551e-05
1.55539e-05
1.58547e-05
1.51477e-05
1.48506e-05
1.43927e-05
1.38449e-05
1.32908e-05
1.27155e-05
1.20917e-05
1.14493e-05
1.07754e-05
1.00713e-05
9.33673e-06
8.56783e-06
7.7645e-06
6.91895e-06
6.01654e-06
5.06834e-06
4.25051e-06
3.80413e-06
3.69872e-06
)
;
    }
}


// ************************************************************************* //
