/*--------------------------------*- C++ -*----------------------------------*\
| =========                 |                                                 |
| \\      /  F ield         | OpenFOAM: The Open Source CFD Toolbox           |
|  \\    /   O peration     | Version:  2.4.0                                 |
|   \\  /    A nd           | Web:      www.OpenFOAM.org                      |
|    \\/     M anipulation  |                                                 |
\*---------------------------------------------------------------------------*/
FoamFile
{
    version     2.0;
    format      ascii;
    class       surfaceScalarField;
    location    "0.55";
    object      phi.air;
}
// * * * * * * * * * * * * * * * * * * * * * * * * * * * * * * * * * * * * * //

dimensions      [0 3 -1 0 0 0 0];

internalField   nonuniform List<scalar> 
1102
(
-1.7625e-05
-1.31306e-05
-1.81658e-05
-1.32557e-05
-1.8903e-05
-1.32268e-05
-1.3197e-05
-1.97738e-05
-1.73403e-05
-1.24422e-05
-1.80623e-05
-1.25336e-05
-1.88551e-05
-1.24341e-05
-1.21854e-05
-1.98666e-05
-1.62786e-05
-1.16656e-05
-1.72169e-05
-1.15953e-05
-1.8156e-05
-1.14949e-05
-1.11864e-05
-1.9155e-05
-1.71403e-05
-1.08796e-05
-1.80482e-05
-1.06874e-05
-1.89246e-05
-1.06185e-05
-1.03607e-05
-1.97503e-05
-1.64315e-05
-1.00014e-05
-1.73103e-05
-9.80863e-06
-1.81048e-05
-9.82397e-06
-9.62568e-06
-1.88397e-05
-1.6584e-05
-9.27188e-06
-1.72888e-05
-9.10384e-06
-1.80196e-05
-9.09318e-06
-8.95049e-06
-1.86947e-05
-1.57789e-05
-8.6407e-06
-1.64648e-05
-8.41785e-06
-1.72562e-05
-8.30181e-06
-8.1824e-06
-1.80242e-05
-1.55268e-05
-7.96475e-06
-1.61544e-05
-7.79024e-06
-1.68351e-05
-7.62106e-06
-7.4797e-06
-1.75378e-05
-1.50633e-05
-7.29442e-06
-1.5699e-05
-7.15454e-06
-1.63139e-05
-7.00611e-06
-6.86153e-06
-1.6932e-05
-1.44363e-05
-6.70366e-06
-1.50318e-05
-6.559e-06
-1.56316e-05
-6.40629e-06
-6.23629e-06
-1.62568e-05
-1.39043e-05
-6.0907e-06
-1.44868e-05
-5.97639e-06
-1.5073e-05
-5.82012e-06
-5.65207e-06
-1.56571e-05
-1.32561e-05
-5.55084e-06
-1.38102e-05
-5.42231e-06
-1.43537e-05
-5.27664e-06
-5.10623e-06
-1.48995e-05
-1.26094e-05
-5.03374e-06
-1.31299e-05
-4.90182e-06
-1.36524e-05
-4.75412e-06
-4.58711e-06
-1.41714e-05
-1.19224e-05
-4.56142e-06
-1.24092e-05
-4.4151e-06
-1.28993e-05
-4.26398e-06
-4.09804e-06
-1.33883e-05
-1.12174e-05
-4.1201e-06
-1.16695e-05
-3.96289e-06
-1.21292e-05
-3.80433e-06
-3.63637e-06
-1.25908e-05
-1.04831e-05
-3.70919e-06
-1.09046e-05
-3.54139e-06
-1.13351e-05
-3.37377e-06
-3.20009e-06
-1.17714e-05
-9.7216e-06
-3.32494e-06
-1.01144e-05
-3.14858e-06
-1.05175e-05
-2.97059e-06
-2.79066e-06
-1.09269e-05
-8.92767e-06
-2.96597e-06
-9.29536e-06
-2.78089e-06
-9.67245e-06
-2.59346e-06
-2.40479e-06
-1.00583e-05
-8.10018e-06
-2.63087e-06
-8.44261e-06
-2.43842e-06
-8.79408e-06
-2.24198e-06
-2.04298e-06
-9.15587e-06
-7.23187e-06
-2.31878e-06
-7.55149e-06
-2.11881e-06
-7.87955e-06
-1.91389e-06
-1.70524e-06
-8.21729e-06
-6.31066e-06
-2.02513e-06
-6.61078e-06
-1.81866e-06
-6.91848e-06
-1.60618e-06
-1.38957e-06
-7.23415e-06
-5.33814e-06
-1.75603e-06
-5.61616e-06
-1.54065e-06
-5.89933e-06
-1.32299e-06
-1.09816e-06
-6.19073e-06
-4.3839e-06
-1.62304e-06
-4.56658e-06
-1.35794e-06
-4.78755e-06
-1.10202e-06
-8.49973e-07
-5.03574e-06
-3.76838e-06
-1.65922e-06
-3.76867e-06
-1.35766e-06
-3.81074e-06
-1.05996e-06
-7.62327e-07
-3.89839e-06
-3.57155e-06
-3.46397e-06
-3.38144e-06
-3.32511e-06
-2.20967e-05
-3.08946e-05
-2.48001e-05
-3.04694e-05
-2.71458e-05
-2.95372e-05
-2.883e-05
-2.86778e-05
-2.9312e-05
-2.77881e-05
-2.80586e-05
-2.64171e-05
-2.3972e-05
-2.64324e-05
-1.57832e-05
-2.83152e-05
-8.16452e-07
-2.61347e-05
1.79556e-05
-8.61384e-06
4.91546e-05
8.61656e-05
1.87389e-06
0.000278594
-8.68911e-05
0.000235405
-0.000135904
0.000165001
-0.000157321
0.000117753
-0.000149846
7.26065e-05
-0.000144688
-2.72546e-07
-0.000128425
-4.17106e-05
2.50657e-05
-2.22867e-05
-2.84745e-05
-2.44444e-05
-2.83117e-05
-2.58125e-05
-2.81691e-05
-2.70523e-05
-2.7438e-05
-2.81094e-05
-2.67309e-05
-2.7595e-05
-2.69315e-05
-2.53235e-05
-2.87039e-05
-2.00363e-05
-3.36024e-05
-9.27152e-06
-3.68995e-05
5.48249e-06
-2.33679e-05
4.16173e-05
5.00307e-05
3.74248e-05
0.000282786
-2.12303e-05
0.00029406
-7.26654e-05
0.000216417
-7.3087e-05
0.000117965
-5.78676e-05
5.71537e-05
-4.72473e-05
-1.70664e-05
-7.60448e-05
-7.18509e-05
-9.32384e-05
-2.13949e-05
-2.62345e-05
-2.3578e-05
-2.61286e-05
-2.5498e-05
-2.62491e-05
-2.73632e-05
-2.55728e-05
-2.89362e-05
-2.51579e-05
-2.94876e-05
-2.63801e-05
-2.94015e-05
-2.87899e-05
-2.8503e-05
-3.45009e-05
-2.45574e-05
-4.08451e-05
-1.42144e-05
-3.37109e-05
2.21229e-05
1.36934e-05
4.97022e-05
0.000255207
3.1771e-05
0.000311991
-2.09546e-08
0.000248209
-1.42586e-08
0.000117957
2.02539e-05
3.68843e-05
2.93966e-07
2.84423e-06
-1.00399e-05
-7.17577e-05
-0.000114167
-2.16696e-05
-2.43152e-05
-2.32654e-05
-2.45327e-05
-2.51246e-05
-2.43899e-05
-2.72486e-05
-2.34488e-05
-2.91885e-05
-2.32179e-05
-3.10985e-05
-2.44702e-05
-3.38573e-05
-2.6031e-05
-3.8231e-05
-3.01272e-05
-4.28344e-05
-3.62416e-05
-3.90718e-05
-3.74735e-05
-1.57579e-05
-9.62056e-06
3.96594e-05
0.00019979
4.41744e-05
0.000307476
4.18028e-05
0.000250581
4.19021e-05
0.000117858
4.6114e-05
3.26724e-05
4.2271e-05
6.69256e-06
9.87283e-06
-3.98105e-05
-0.000102071
-2.07274e-05
-2.24275e-05
-2.2717e-05
-2.25431e-05
-2.49184e-05
-2.21884e-05
-2.72571e-05
-2.111e-05
-2.95487e-05
-2.09263e-05
-3.24271e-05
-2.15918e-05
-3.68797e-05
-2.15784e-05
-4.36213e-05
-2.33855e-05
-5.32706e-05
-2.65923e-05
-6.29548e-05
-2.77892e-05
-6.46078e-05
-7.96761e-06
4.93296e-06
0.000130249
3.92944e-05
0.000273115
5.78287e-05
0.000232046
6.67222e-05
0.000108964
6.29327e-05
3.64618e-05
4.27868e-05
2.68403e-05
7.21352e-06
-4.47631e-06
-9.29465e-05
-2.04067e-05
-2.07155e-05
-2.23077e-05
-2.06421e-05
-2.45721e-05
-1.9924e-05
-2.68347e-05
-1.88474e-05
-2.9414e-05
-1.83469e-05
-3.28927e-05
-1.8113e-05
-3.76522e-05
-1.68188e-05
-4.46998e-05
-1.63379e-05
-5.55684e-05
-1.57237e-05
-7.12309e-05
-1.21267e-05
-8.22349e-05
3.03645e-06
-3.29367e-05
8.09509e-05
3.22812e-05
0.000207897
7.10763e-05
0.000193251
8.41276e-05
9.59129e-05
7.33113e-05
4.72781e-05
4.08815e-05
5.92709e-05
5.14685e-06
3.38389e-05
-9.33523e-05
-1.97971e-05
-1.89425e-05
-2.1816e-05
-1.86233e-05
-2.40054e-05
-1.77346e-05
-2.62155e-05
-1.66372e-05
-2.88389e-05
-1.57235e-05
-3.22794e-05
-1.46726e-05
-3.65336e-05
-1.25646e-05
-4.25772e-05
-1.02943e-05
-5.13706e-05
-6.93028e-06
-6.43066e-05
8.09376e-07
-7.67476e-05
1.54775e-05
-5.44611e-05
5.86645e-05
1.81928e-05
0.000135243
7.08356e-05
0.000140609
8.97559e-05
7.69927e-05
8.07558e-05
5.62781e-05
5.12703e-05
8.87569e-05
1.0787e-05
7.85076e-05
-8.55354e-05
-1.92463e-05
-1.7234e-05
-2.11656e-05
-1.67039e-05
-2.31672e-05
-1.5733e-05
-2.53022e-05
-1.45022e-05
-2.77546e-05
-1.32711e-05
-3.07663e-05
-1.16608e-05
-3.42347e-05
-9.09621e-06
-3.86419e-05
-5.88703e-06
-4.42703e-05
-1.3019e-06
-5.11639e-05
7.70298e-06
-5.59168e-05
2.02304e-05
-4.42716e-05
4.70194e-05
6.36725e-06
8.46043e-05
5.69694e-05
9.00066e-05
7.98143e-05
5.41478e-05
7.69896e-05
5.91028e-05
4.81707e-05
0.000117576
1.27624e-05
0.000117866
-7.48466e-05
-1.85362e-05
-1.56298e-05
-2.03576e-05
-1.48825e-05
-2.2215e-05
-1.38755e-05
-2.42026e-05
-1.25146e-05
-2.63664e-05
-1.11074e-05
-2.87709e-05
-9.25627e-06
-3.13376e-05
-6.5295e-06
-3.41266e-05
-3.09805e-06
-3.7057e-05
1.62854e-06
-3.91411e-05
9.78712e-06
-3.7937e-05
1.90263e-05
-2.72652e-05
3.63477e-05
2.27304e-06
5.5066e-05
4.0354e-05
5.19256e-05
5.62722e-05
3.82296e-05
5.69076e-05
5.84673e-05
3.0922e-05
0.000143561
1.02506e-05
0.000141744
-6.89925e-05
-1.7852e-05
-1.40345e-05
-1.94909e-05
-1.32436e-05
-2.12012e-05
-1.21653e-05
-2.29395e-05
-1.07762e-05
-2.47635e-05
-9.2834e-06
-2.66336e-05
-7.38614e-06
-2.83835e-05
-4.77967e-06
-2.98897e-05
-1.59184e-06
-3.07784e-05
2.51726e-06
-3.00482e-05
9.05692e-06
-2.6225e-05
1.52031e-05
-1.5143e-05
2.52657e-05
3.22762e-06
3.66954e-05
2.71479e-05
2.80053e-05
3.57175e-05
2.966e-05
3.96313e-05
5.45534e-05
2.68872e-05
0.000156306
1.76182e-05
0.000155143
-5.63477e-05
-1.70339e-05
-1.26577e-05
-1.85699e-05
-1.17077e-05
-2.01093e-05
-1.06258e-05
-2.16335e-05
-9.25208e-06
-2.31591e-05
-7.75783e-06
-2.45795e-05
-5.96568e-06
-2.57035e-05
-3.65567e-06
-2.63377e-05
-9.57674e-07
-2.59819e-05
2.16151e-06
-2.38037e-05
6.87872e-06
-1.93698e-05
1.07693e-05
-8.94297e-06
1.48389e-05
4.34144e-06
2.3411e-05
1.88991e-05
1.34477e-05
2.47396e-05
2.38194e-05
2.90261e-05
5.02668e-05
2.56721e-05
0.00015966
2.3378e-05
0.000161887
-3.77784e-05
-1.62419e-05
-1.13153e-05
-1.76237e-05
-1.03259e-05
-1.90183e-05
-9.23116e-06
-2.03643e-05
-7.90603e-06
-2.16494e-05
-6.47275e-06
-2.27534e-05
-4.86172e-06
-2.34816e-05
-2.9275e-06
-2.36381e-05
-8.01168e-07
-2.27479e-05
1.27137e-06
-2.00043e-05
4.13517e-06
-1.55269e-05
6.29189e-06
-6.6821e-06
5.99416e-06
4.49936e-06
1.22295e-05
1.50169e-05
2.93021e-06
2.11345e-05
1.77018e-05
2.30352e-05
4.83661e-05
2.31505e-05
0.000159545
2.3269e-05
0.000164717
-1.64704e-05
-1.53968e-05
-1.00899e-05
-1.66728e-05
-9.04986e-06
-1.79505e-05
-7.95346e-06
-1.91657e-05
-6.69084e-06
-2.0291e-05
-5.34752e-06
-2.1218e-05
-3.93473e-06
-2.17759e-05
-2.36959e-06
-2.17782e-05
-7.98791e-07
-2.08712e-05
3.64335e-07
-1.83442e-05
1.60827e-06
-1.40985e-05
2.04618e-06
-6.94223e-06
-1.1621e-06
2.996e-06
2.29127e-06
1.27194e-05
-6.79322e-06
2.13544e-05
9.06767e-06
2.25135e-05
4.72071e-05
2.42868e-05
0.000157774
2.81702e-05
0.000162632
1.1302e-05
-1.45489e-05
-8.92933e-06
-1.57313e-05
-7.8675e-06
-1.69186e-05
-6.76616e-06
-1.8051e-05
-5.55849e-06
-1.90976e-05
-4.30088e-06
-1.9978e-05
-3.05434e-06
-2.05643e-05
-1.78327e-06
-2.06727e-05
-6.90377e-07
-2.01302e-05
-1.78157e-07
-1.83212e-05
-2.00624e-07
-1.47947e-05
-1.4803e-06
-9.61327e-06
-6.34355e-06
-1.06016e-06
-6.26184e-06
8.51923e-06
-1.63725e-05
1.8042e-05
-4.52136e-07
1.73835e-05
4.78716e-05
2.00164e-05
0.000155146
2.3144e-05
0.000159743
3.3175e-05
-1.36833e-05
-7.83685e-06
-1.4796e-05
-6.75477e-06
-1.59201e-05
-5.64211e-06
-1.70117e-05
-4.46694e-06
-1.80425e-05
-3.27007e-06
-1.89856e-05
-2.11128e-06
-1.97302e-05
-1.03858e-06
-2.01555e-05
-2.65098e-07
-2.02458e-05
-8.77919e-08
-1.96476e-05
-7.98735e-07
-1.79407e-05
-3.18727e-06
-1.54886e-05
-8.79562e-06
-8.58385e-06
-1.31666e-05
-2.01939e-06
-2.29367e-05
1.50213e-06
-3.97099e-06
1.34876e-06
4.80375e-05
8.31874e-06
0.000148175
8.502e-06
0.000159464
4.13005e-05
-1.28079e-05
-6.80031e-06
-1.3866e-05
-5.69666e-06
-1.49443e-05
-4.56387e-06
-1.60209e-05
-3.39033e-06
-1.70839e-05
-2.20709e-06
-1.81194e-05
-1.07581e-06
-1.90812e-05
-7.67368e-08
-1.99862e-05
6.39942e-07
-2.08694e-05
7.95413e-07
-2.17555e-05
8.73847e-08
-2.26791e-05
-2.26367e-06
-2.41331e-05
-7.34156e-06
-2.28001e-05
-1.44996e-05
-2.59233e-05
-1.98136e-05
-3.11647e-05
1.2694e-06
-4.21751e-05
5.90584e-05
-2.87158e-05
0.000134721
-1.43695e-05
0.000145068
2.69075e-05
-1.19132e-05
-5.81402e-06
-1.29249e-05
-4.685e-06
-1.39724e-05
-3.51636e-06
-1.50445e-05
-2.3183e-06
-1.61547e-05
-1.09693e-06
-1.73053e-05
7.48473e-08
-1.85281e-05
1.14606e-06
-1.98781e-05
1.99003e-06
-2.15154e-05
2.43271e-06
-2.36736e-05
2.24556e-06
-2.68987e-05
9.61465e-07
-3.21513e-05
-2.08892e-06
-3.9569e-05
-7.08196e-06
-5.3177e-05
-6.20624e-06
-7.44421e-05
2.25265e-05
-8.52454e-05
6.9882e-05
-5.72469e-05
0.000107018
-1.33552e-05
0.000101899
9.64295e-06
-1.09931e-05
-4.87925e-06
-1.1961e-05
-3.71706e-06
-1.2978e-05
-2.4994e-06
-1.40492e-05
-1.24715e-06
-1.51902e-05
4.40529e-08
-1.6432e-05
1.31668e-06
-1.7835e-05
2.54917e-06
-1.95041e-05
3.65912e-06
-2.17013e-05
4.62995e-06
-2.48496e-05
5.39387e-06
-2.97247e-05
5.8365e-06
-3.7982e-05
6.16835e-06
-5.18498e-05
6.78591e-06
-7.50078e-05
1.69516e-05
-0.000102859
5.0356e-05
-0.000117776
8.46983e-05
-7.51532e-05
6.65846e-05
-9.08076e-06
3.81344e-05
-3.32964e-07
-1.00382e-05
-3.99688e-06
-1.09625e-05
-2.79286e-06
-1.19435e-05
-1.5184e-06
-1.29944e-05
-1.96252e-07
-1.41368e-05
1.18643e-06
-1.54068e-05
2.58675e-06
-1.68738e-05
4.01623e-06
-1.86597e-05
5.44496e-06
-2.09823e-05
6.95256e-06
-2.42118e-05
8.62344e-06
-2.90093e-05
1.0634e-05
-3.66544e-05
1.38134e-05
-4.90596e-05
1.91912e-05
-6.93338e-05
3.72256e-05
-8.42325e-05
6.52044e-05
-8.45509e-05
8.3443e-05
-4.36746e-05
2.32366e-05
-8.35047e-06
5.27742e-06
2.29793e-06
-9.0442e-06
-3.16997e-06
-9.92081e-06
-1.91627e-06
-1.08572e-05
-5.82049e-07
-1.18677e-05
8.14245e-07
-1.29796e-05
2.29833e-06
-1.42285e-05
3.83566e-06
-1.56677e-05
5.45552e-06
-1.7397e-05
7.17426e-06
-1.95441e-05
9.09964e-06
-2.22985e-05
1.13778e-05
-2.58282e-05
1.41637e-05
-3.03516e-05
1.83367e-05
-3.49523e-05
2.3792e-05
-3.84906e-05
4.07639e-05
-3.54337e-05
6.21228e-05
-3.49428e-05
8.17193e-05
-2.08101e-05
6.35872e-06
-6.88498e-06
-1.00584e-05
-1.5752e-06
-8.00682e-06
-2.39731e-06
-8.82811e-06
-1.09498e-06
-9.70594e-06
2.95773e-07
-1.06558e-05
1.76409e-06
-1.17002e-05
3.34271e-06
-1.28744e-05
5.00992e-06
-1.4207e-05
6.78816e-06
-1.57557e-05
8.72291e-06
-1.75455e-05
1.08895e-05
-1.95867e-05
1.3419e-05
-2.16767e-05
1.62537e-05
-2.32061e-05
1.98661e-05
-2.30989e-05
2.36848e-05
-1.52968e-05
3.29618e-05
4.22956e-06
4.26005e-05
4.887e-06
8.14484e-05
-5.72936e-06
1.78904e-05
-1.1988e-05
-1.90568e-05
-3.02719e-06
-6.91249e-06
-1.67555e-06
-7.6857e-06
-3.21782e-07
-8.504e-06
1.11406e-06
-9.39969e-06
2.65977e-06
-1.03817e-05
4.32472e-06
-1.14847e-05
6.11285e-06
-1.27375e-05
8.04101e-06
-1.41499e-05
1.01353e-05
-1.56773e-05
1.24169e-05
-1.72195e-05
1.49612e-05
-1.85384e-05
1.75725e-05
-1.81904e-05
1.95181e-05
-1.69094e-05
2.24038e-05
-3.50511e-06
1.95575e-05
1.51083e-05
2.39874e-05
3.08018e-05
6.5811e-05
1.24966e-05
3.99033e-05
-1.17653e-05
-8.27219e-06
-9.79648e-06
-5.68681e-06
-1.02449e-06
-6.39207e-06
3.83457e-07
-7.14995e-06
1.8719e-06
-7.95701e-06
3.4668e-06
-8.83104e-06
5.19872e-06
-9.80214e-06
7.08391e-06
-1.09148e-05
9.15359e-06
-1.21954e-05
1.14159e-05
-1.36305e-05
1.38519e-05
-1.5087e-05
1.64177e-05
-1.63597e-05
1.88451e-05
-1.64382e-05
1.95966e-05
-1.5719e-05
2.16846e-05
-8.33395e-06
1.21724e-05
2.49432e-06
1.31591e-05
3.49348e-05
3.33705e-05
2.82564e-05
4.87627e-05
-2.83249e-05
2.02745e-05
-1.47397e-06
-4.28562e-06
-6.37285e-07
-4.82796e-06
9.25773e-07
-5.48908e-06
2.533e-06
-6.24233e-06
4.22002e-06
-7.07283e-06
6.02917e-06
-7.99902e-06
8.01006e-06
-9.05981e-06
1.02143e-05
-1.02848e-05
1.26407e-05
-1.17227e-05
1.52898e-05
-1.34664e-05
1.81613e-05
-1.54352e-05
2.08139e-05
-1.77786e-05
2.194e-05
-1.91957e-05
2.31016e-05
-1.91879e-05
1.21645e-05
-2.06783e-05
1.46494e-05
2.52952e-05
-1.2603e-05
1.74875e-05
5.66791e-05
-7.38826e-06
2.78588e-05
-2.3576e-06
-3.31674e-06
-3.46232e-06
-3.71141e-06
-4.02879e-06
-4.39166e-06
-4.79869e-06
-5.26745e-06
-5.86439e-06
-6.67162e-06
-7.75392e-06
-9.0748e-06
-9.49449e-06
-1.12829e-05
-4.55623e-06
-1.00131e-05
1.49614e-05
1.25835e-05
6.30795e-06
)
;

boundaryField
{
    leftWall
    {
        type            fixedValue;
        value           nonuniform 0();
    }
    rightWall
    {
        type            fixedValue;
        value           uniform 0;
    }
    lowerWall
    {
        type            fixedValue;
        value           nonuniform 0();
    }
    atmosphere
    {
        type            calculated;
        value           nonuniform List<scalar> 
23
(
-1.78684e-06
-1.46525e-06
-1.14249e-06
-8.1867e-07
-6.4566e-07
1.07134e-06
2.78207e-06
4.53739e-06
6.39202e-06
8.41707e-06
1.06831e-05
1.32377e-05
1.6097e-05
1.92436e-05
2.21347e-05
2.23597e-05
2.489e-05
5.43786e-06
2.01063e-05
-3.75775e-05
5.906e-05
2.62367e-05
1.52804e-05
)
;
    }
    defaultFaces
    {
        type            empty;
        value           nonuniform 0();
    }
    procBoundary3to1
    {
        type            processor;
        value           nonuniform List<scalar> 
23
(
1.3693e-05
1.37964e-05
1.3964e-05
1.40679e-05
3.32175e-05
3.3173e-05
3.18827e-05
3.03621e-05
2.82701e-05
2.51639e-05
2.23457e-05
2.01266e-05
1.11678e-05
-1.01581e-05
-0.000117365
-0.000231313
-0.000146649
-0.000116337
-9.93474e-05
-9.29518e-05
-0.000107966
-0.000134566
-5.74036e-05
)
;
    }
    procBoundary3to2
    {
        type            processor;
        value           nonuniform List<scalar> 
25
(
1.70627e-05
1.66519e-05
1.55019e-05
1.63543e-05
1.55534e-05
1.58545e-05
1.51477e-05
1.48508e-05
1.4393e-05
1.38455e-05
1.32913e-05
1.27163e-05
1.20924e-05
1.14501e-05
1.07761e-05
1.00722e-05
9.33738e-06
8.56871e-06
7.76511e-06
6.9198e-06
6.01704e-06
5.06905e-06
4.25092e-06
3.80457e-06
3.69915e-06
)
;
    }
}


// ************************************************************************* //
