/*--------------------------------*- C++ -*----------------------------------*\
| =========                 |                                                 |
| \\      /  F ield         | OpenFOAM: The Open Source CFD Toolbox           |
|  \\    /   O peration     | Version:  2.4.0                                 |
|   \\  /    A nd           | Web:      www.OpenFOAM.org                      |
|    \\/     M anipulation  |                                                 |
\*---------------------------------------------------------------------------*/
FoamFile
{
    version     2.0;
    format      ascii;
    class       surfaceScalarField;
    location    "0.55";
    object      phi.water;
}
// * * * * * * * * * * * * * * * * * * * * * * * * * * * * * * * * * * * * * //

dimensions      [0 3 -1 0 0 0 0];

internalField   nonuniform List<scalar> 
1102
(
-1.76278e-05
-1.31279e-05
-1.81695e-05
-1.32528e-05
-1.89067e-05
-1.32237e-05
-1.31938e-05
-1.97779e-05
-1.73428e-05
-1.24397e-05
-1.8065e-05
-1.2531e-05
-1.88582e-05
-1.24313e-05
-1.21825e-05
-1.98699e-05
-1.62804e-05
-1.16632e-05
-1.72191e-05
-1.15929e-05
-1.81584e-05
-1.14923e-05
-1.11837e-05
-1.91575e-05
-1.71416e-05
-1.08774e-05
-1.80499e-05
-1.06852e-05
-1.89265e-05
-1.06161e-05
-1.03582e-05
-1.97522e-05
-1.64325e-05
-9.99936e-06
-1.73115e-05
-9.80649e-06
-1.81062e-05
-9.82178e-06
-9.6234e-06
-1.88412e-05
-1.65846e-05
-9.27001e-06
-1.72897e-05
-9.10192e-06
-1.80206e-05
-9.09116e-06
-8.94841e-06
-1.86958e-05
-1.57792e-05
-8.63894e-06
-1.64653e-05
-8.41602e-06
-1.72569e-05
-8.29995e-06
-8.18049e-06
-1.80251e-05
-1.55269e-05
-7.96316e-06
-1.61548e-05
-7.78861e-06
-1.68357e-05
-7.61936e-06
-7.47796e-06
-1.75384e-05
-1.50632e-05
-7.29289e-06
-1.5699e-05
-7.15297e-06
-1.63143e-05
-7.00455e-06
-6.85992e-06
-1.69324e-05
-1.4436e-05
-6.70231e-06
-1.50319e-05
-6.55764e-06
-1.56317e-05
-6.40485e-06
-6.23483e-06
-1.62571e-05
-1.3904e-05
-6.08939e-06
-1.44866e-05
-5.97505e-06
-1.5073e-05
-5.8188e-06
-5.65072e-06
-1.56573e-05
-1.32557e-05
-5.54969e-06
-1.38101e-05
-5.42115e-06
-1.43536e-05
-5.27542e-06
-5.105e-06
-1.48995e-05
-1.26089e-05
-5.03259e-06
-1.31294e-05
-4.90064e-06
-1.36522e-05
-4.75299e-06
-4.58595e-06
-1.41713e-05
-1.19219e-05
-4.56044e-06
-1.24089e-05
-4.41412e-06
-1.2899e-05
-4.26294e-06
-4.097e-06
-1.33881e-05
-1.12169e-05
-4.11911e-06
-1.1669e-05
-3.96189e-06
-1.21289e-05
-3.80337e-06
-3.6354e-06
-1.25906e-05
-1.04825e-05
-3.70836e-06
-1.09042e-05
-3.54057e-06
-1.13348e-05
-3.3729e-06
-3.19922e-06
-1.17711e-05
-9.72105e-06
-3.32408e-06
-1.01138e-05
-3.14771e-06
-1.05172e-05
-2.96979e-06
-2.78986e-06
-1.09267e-05
-8.92711e-06
-2.96531e-06
-9.2951e-06
-2.78025e-06
-9.67214e-06
-2.59275e-06
-2.4041e-06
-1.00581e-05
-8.09969e-06
-2.63019e-06
-8.44205e-06
-2.43774e-06
-8.79389e-06
-2.24137e-06
-2.04238e-06
-9.15574e-06
-7.23134e-06
-2.31835e-06
-7.5513e-06
-2.11839e-06
-7.87938e-06
-1.91339e-06
-1.70477e-06
-8.21726e-06
-6.31018e-06
-2.02468e-06
-6.61026e-06
-1.81819e-06
-6.9184e-06
-1.6058e-06
-1.38917e-06
-7.23414e-06
-5.33762e-06
-1.75579e-06
-5.61602e-06
-1.54044e-06
-5.89919e-06
-1.3227e-06
-1.09788e-06
-6.19077e-06
-4.38352e-06
-1.62276e-06
-4.56606e-06
-1.35766e-06
-4.78746e-06
-1.10185e-06
-8.49864e-07
-5.03582e-06
-3.76799e-06
-1.65941e-06
-3.76866e-06
-1.35795e-06
-3.81093e-06
-1.06026e-06
-7.62638e-07
-3.89871e-06
-3.57162e-06
-3.46402e-06
-3.38166e-06
-3.32532e-06
-2.21005e-05
-3.08862e-05
-2.48033e-05
-3.04599e-05
-2.71487e-05
-2.95265e-05
-2.88316e-05
-2.86656e-05
-2.93134e-05
-2.77747e-05
-2.80593e-05
-2.64022e-05
-2.39716e-05
-2.64172e-05
-1.57842e-05
-2.83011e-05
-8.00809e-07
-2.61245e-05
1.79725e-05
-8.61568e-06
4.91308e-05
8.61487e-05
2.07675e-06
0.000278596
-9.68279e-05
0.000235439
-0.000170107
0.000157659
-0.000173344
9.7724e-05
-0.000106731
6.52861e-05
-3.68263e-05
-0.000101945
-2.53693e-05
-0.000124985
-7.97037e-05
-2.22896e-05
-2.8467e-05
-2.44466e-05
-2.83032e-05
-2.5814e-05
-2.81596e-05
-2.70531e-05
-2.74275e-05
-2.81097e-05
-2.67194e-05
-2.75951e-05
-2.69191e-05
-2.53235e-05
-2.86911e-05
-2.00383e-05
-3.35907e-05
-9.25822e-06
-3.68911e-05
5.46321e-06
-2.33693e-05
4.18344e-05
4.999e-05
3.77234e-05
0.000282715
-2.12083e-05
0.000294133
-7.33181e-05
0.000216443
-7.68659e-05
0.000117798
-5.90896e-05
5.67388e-05
3.48456e-06
-1.92514e-05
1.91863e-06
-0.000130139
-0.000114069
-2.1397e-05
-2.62277e-05
-2.35794e-05
-2.6121e-05
-2.54986e-05
-2.62408e-05
-2.73631e-05
-2.55637e-05
-2.89357e-05
-2.51481e-05
-2.94872e-05
-2.63698e-05
-2.94019e-05
-2.87793e-05
-2.85055e-05
-3.44912e-05
-2.4551e-05
-4.08376e-05
-1.4263e-05
-3.37111e-05
2.24877e-05
1.36701e-05
4.98284e-05
0.000255224
3.1828e-05
0.000311989
-5.40986e-08
0.000248253
-2.38209e-08
0.000117983
2.02358e-05
3.69015e-05
6.71783e-06
2.86194e-06
1.03001e-05
-9.05335e-05
-0.000111029
-2.16711e-05
-2.4309e-05
-2.32662e-05
-2.4526e-05
-2.51246e-05
-2.43825e-05
-2.72479e-05
-2.34409e-05
-2.91876e-05
-2.32096e-05
-3.10978e-05
-2.44615e-05
-3.38578e-05
-2.60222e-05
-3.8234e-05
-3.0119e-05
-4.28413e-05
-3.62355e-05
-3.91334e-05
-3.74722e-05
-1.54236e-05
-9.58284e-06
3.9683e-05
0.000199936
4.41985e-05
0.000307472
4.18026e-05
0.00025061
4.1916e-05
0.000117894
4.60831e-05
3.26993e-05
4.1248e-05
6.70673e-06
1.08841e-05
-4.94827e-05
-0.000101676
-2.07285e-05
-2.24219e-05
-2.27173e-05
-2.2537e-05
-2.4918e-05
-2.2182e-05
-2.72561e-05
-2.11032e-05
-2.95475e-05
-2.09191e-05
-3.24263e-05
-2.15844e-05
-3.688e-05
-2.15709e-05
-4.36243e-05
-2.33782e-05
-5.3283e-05
-2.65863e-05
-6.29975e-05
-2.77889e-05
-6.44818e-05
-7.94661e-06
5.07724e-06
0.00013039
3.93084e-05
0.000273219
5.77816e-05
0.000232119
6.67353e-05
0.000109016
6.2911e-05
3.6482e-05
4.23048e-05
2.68504e-05
7.78193e-06
-9.77411e-06
-9.50171e-05
-2.04075e-05
-2.07104e-05
-2.23077e-05
-2.06367e-05
-2.45714e-05
-1.99183e-05
-2.68333e-05
-1.88414e-05
-2.94125e-05
-1.83407e-05
-3.28917e-05
-1.81066e-05
-3.76524e-05
-1.68122e-05
-4.47019e-05
-1.63312e-05
-5.55758e-05
-1.5717e-05
-7.12553e-05
-1.21225e-05
-8.22094e-05
3.04135e-06
-3.27005e-05
8.10461e-05
3.22401e-05
0.00020814
7.10107e-05
0.000193355
8.41299e-05
9.59635e-05
7.33072e-05
4.7288e-05
4.06264e-05
5.92813e-05
-1.92788e-06
3.18504e-05
-9.1069e-05
-1.97976e-05
-1.89379e-05
-2.18158e-05
-1.86184e-05
-2.40044e-05
-1.77294e-05
-2.6214e-05
-1.66319e-05
-2.88373e-05
-1.5718e-05
-3.22782e-05
-1.46669e-05
-3.65335e-05
-1.25588e-05
-4.25785e-05
-1.02883e-05
-5.1374e-05
-6.92375e-06
-6.43154e-05
8.16251e-07
-7.67588e-05
1.54837e-05
-5.43278e-05
5.86871e-05
1.81463e-05
0.000135393
7.07881e-05
0.0001407
8.97525e-05
7.7032e-05
8.07537e-05
5.6289e-05
5.11085e-05
8.87676e-05
-2.05481e-06
7.76081e-05
-8.50393e-05
-1.92465e-05
-1.72298e-05
-2.11653e-05
-1.66994e-05
-2.31661e-05
-1.57283e-05
-2.53006e-05
-1.44974e-05
-2.77529e-05
-1.32662e-05
-3.07651e-05
-1.16558e-05
-3.42344e-05
-9.09118e-06
-3.86428e-05
-5.88178e-06
-4.42724e-05
-1.29617e-06
-5.11674e-05
7.70951e-06
-5.59236e-05
2.02378e-05
-4.42393e-05
4.70296e-05
6.35838e-06
8.46482e-05
5.69373e-05
9.00565e-05
7.98113e-05
5.41668e-05
7.69875e-05
5.91135e-05
4.80978e-05
0.000117587
-4.03059e-07
0.000117283
-7.76665e-05
-1.85363e-05
-1.56259e-05
-2.03571e-05
-1.48784e-05
-2.22138e-05
-1.38713e-05
-2.42009e-05
-1.25103e-05
-2.63646e-05
-1.1103e-05
-2.87696e-05
-9.25192e-06
-3.13371e-05
-6.52514e-06
-3.41271e-05
-3.09355e-06
-3.70584e-05
1.63343e-06
-3.91434e-05
9.79267e-06
-3.79402e-05
1.90327e-05
-2.72634e-05
3.63552e-05
2.26906e-06
5.50782e-05
4.0342e-05
5.19416e-05
5.62702e-05
3.82402e-05
5.69059e-05
5.84773e-05
3.08994e-05
0.000143571
-9.16837e-07
0.000141334
-6.97537e-05
-1.7852e-05
-1.4031e-05
-1.94903e-05
-1.32399e-05
-2.11999e-05
-1.21614e-05
-2.29378e-05
-1.07723e-05
-2.47618e-05
-9.27953e-06
-2.66324e-05
-7.38236e-06
-2.83829e-05
-4.77597e-06
-2.98899e-05
-1.58802e-06
-3.07793e-05
2.52138e-06
-3.00498e-05
9.06158e-06
-2.62272e-05
1.52085e-05
-1.51452e-05
2.52717e-05
3.22417e-06
3.67022e-05
2.71436e-05
2.80131e-05
3.57143e-05
2.96679e-05
3.96291e-05
5.45614e-05
2.68718e-05
0.000156314
1.39382e-06
0.000154745
-5.53525e-05
-1.70337e-05
-1.26545e-05
-1.85692e-05
-1.17042e-05
-2.0108e-05
-1.06223e-05
-2.16318e-05
-9.24858e-06
-2.31574e-05
-7.75443e-06
-2.45783e-05
-5.96244e-06
-2.57029e-05
-3.65253e-06
-2.63376e-05
-9.54474e-07
-2.59824e-05
2.16499e-06
-2.38048e-05
6.88262e-06
-1.93715e-05
1.07737e-05
-8.94522e-06
1.48438e-05
4.33862e-06
2.34163e-05
1.88961e-05
1.34536e-05
2.47366e-05
2.38258e-05
2.9024e-05
5.0273e-05
2.56498e-05
0.000159666
3.65986e-06
0.000160311
-3.56593e-05
-1.62416e-05
-1.13123e-05
-1.76229e-05
-1.03227e-05
-1.9017e-05
-9.22799e-06
-2.03627e-05
-7.90293e-06
-2.16479e-05
-6.46982e-06
-2.27523e-05
-4.85899e-06
-2.34809e-05
-2.92487e-06
-2.36378e-05
-7.98486e-07
-2.27481e-05
1.2743e-06
-2.00049e-05
4.13845e-06
-1.55281e-05
6.29558e-06
-6.68397e-06
5.99823e-06
4.49694e-06
1.22339e-05
1.50143e-05
2.935e-06
2.11317e-05
1.7706e-05
2.30334e-05
4.83701e-05
2.30451e-05
0.000159543
7.48109e-06
0.000154137
-1.70102e-05
-1.53965e-05
-1.00872e-05
-1.6672e-05
-9.04702e-06
-1.79493e-05
-7.95064e-06
-1.91643e-05
-6.68814e-06
-2.02897e-05
-5.34503e-06
-2.12169e-05
-3.93245e-06
-2.17752e-05
-2.36741e-06
-2.17778e-05
-7.96527e-07
-2.08711e-05
3.66797e-07
-1.83446e-05
1.61103e-06
-1.40994e-05
2.04927e-06
-6.94383e-06
-1.15868e-06
2.9939e-06
2.29504e-06
1.27174e-05
-6.78919e-06
2.13518e-05
8.86088e-06
2.25125e-05
4.7155e-05
2.37074e-05
0.000157705
1.19617e-05
0.000134278
-1.31997e-06
-1.45485e-05
-8.92681e-06
-1.57304e-05
-7.86494e-06
-1.69174e-05
-6.76367e-06
-1.80497e-05
-5.55617e-06
-1.90964e-05
-4.29881e-06
-1.9977e-05
-3.05246e-06
-2.05635e-05
-1.78147e-06
-2.06721e-05
-6.88487e-07
-2.01298e-05
-1.76095e-07
-1.83213e-05
-1.98329e-07
-1.47954e-05
-1.47769e-06
-9.61458e-06
-6.34061e-06
-1.06195e-06
-6.25851e-06
8.48716e-06
-1.63693e-05
1.79797e-05
-1.49544e-06
1.73857e-05
4.55537e-05
1.88986e-05
0.000154977
1.42831e-05
0.000128077
1.64465e-05
-1.36828e-05
-7.83456e-06
-1.47953e-05
-6.75253e-06
-1.59191e-05
-5.63997e-06
-1.70106e-05
-4.46501e-06
-1.80414e-05
-3.26837e-06
-1.89846e-05
-2.10976e-06
-1.97293e-05
-1.0371e-06
-2.01547e-05
-2.63554e-07
-2.02452e-05
-8.60882e-08
-1.96475e-05
-7.96824e-07
-1.79411e-05
-3.18515e-06
-1.54895e-05
-8.79309e-06
-8.58522e-06
-1.31637e-05
-2.109e-06
-2.2936e-05
9.6367e-07
-5.38289e-06
1.31844e-06
4.11213e-05
8.43461e-06
0.000147959
8.04612e-06
0.000141775
3.88723e-05
-1.28075e-05
-6.79826e-06
-1.38653e-05
-5.69468e-06
-1.49434e-05
-4.56204e-06
-1.602e-05
-3.38874e-06
-1.7083e-05
-2.20571e-06
-1.81185e-05
-1.07459e-06
-1.90803e-05
-7.55402e-08
-1.99853e-05
6.41181e-07
-2.08686e-05
7.96763e-07
-2.17551e-05
8.88625e-08
-2.26792e-05
-2.262e-06
-2.41337e-05
-7.33957e-06
-2.28e-05
-1.44973e-05
-2.58971e-05
-1.98139e-05
-3.09897e-05
6.07072e-08
-4.11087e-05
4.83574e-05
-2.81024e-05
0.000132866
-1.38474e-05
0.0001398
2.90606e-05
-1.19129e-05
-5.81222e-06
-1.29244e-05
-4.68331e-06
-1.39718e-05
-3.51484e-06
-1.50438e-05
-2.31699e-06
-1.61539e-05
-1.09582e-06
-1.73044e-05
7.58459e-08
-1.85271e-05
1.147e-06
-1.98771e-05
1.99099e-06
-2.15146e-05
2.43371e-06
-2.36731e-05
2.24659e-06
-2.68985e-05
9.6261e-07
-3.21515e-05
-2.08762e-06
-3.9569e-05
-7.08043e-06
-5.29928e-05
-6.20522e-06
-7.21936e-05
2.18967e-05
-8.17318e-05
5.39963e-05
-5.52512e-05
6.08067e-05
-1.17586e-05
6.73603e-05
4.58705e-05
-1.09928e-05
-4.87768e-06
-1.19606e-05
-3.71562e-06
-1.29775e-05
-2.49814e-06
-1.40486e-05
-1.24608e-06
-1.51895e-05
4.49599e-08
-1.64311e-05
1.3175e-06
-1.78341e-05
2.54991e-06
-1.95031e-05
3.65982e-06
-2.17005e-05
4.63057e-06
-2.4849e-05
5.39441e-06
-2.97243e-05
5.83692e-06
-3.79816e-05
6.16862e-06
-5.18492e-05
6.78595e-06
-7.4938e-05
1.69509e-05
-9.63109e-05
5.01964e-05
-8.75651e-05
5.60745e-05
-4.02444e-05
-8.03167e-06
1.99155e-06
2.06538e-05
1.16222e-05
-1.00381e-05
-3.99555e-06
-1.09622e-05
-2.79167e-06
-1.19431e-05
-1.51734e-06
-1.2994e-05
-1.95365e-07
-1.41362e-05
1.18721e-06
-1.5406e-05
2.58741e-06
-1.68729e-05
4.01681e-06
-1.86587e-05
5.44542e-06
-2.09815e-05
6.95286e-06
-2.42113e-05
8.62356e-06
-2.90091e-05
1.06338e-05
-3.66541e-05
1.38128e-05
-4.90591e-05
1.919e-05
-6.92897e-05
3.72233e-05
-7.27688e-05
6.51132e-05
-4.13169e-05
4.73787e-05
-1.82845e-05
-1.86521e-05
-1.5431e-06
-2.95883e-06
1.37805e-06
-9.04414e-06
-3.16887e-06
-9.92068e-06
-1.91526e-06
-1.0857e-05
-5.81156e-07
-1.18673e-05
8.15022e-07
-1.29791e-05
2.29901e-06
-1.42278e-05
3.83624e-06
-1.56669e-05
5.45597e-06
-1.73962e-05
7.17456e-06
-1.95435e-05
9.09975e-06
-2.22982e-05
1.13777e-05
-2.58283e-05
1.41632e-05
-3.03519e-05
1.8336e-05
-3.49527e-05
2.37907e-05
-3.8479e-05
4.07622e-05
-3.08909e-05
6.20973e-05
-2.05186e-05
5.20099e-05
-1.5315e-05
-2.09034e-05
-2.92367e-06
-1.58132e-05
-2.02476e-06
-8.00683e-06
-2.39643e-06
-8.82808e-06
-1.09414e-06
-9.70584e-06
2.96543e-07
-1.06555e-05
1.7648e-06
-1.16997e-05
3.34332e-06
-1.28738e-05
5.01044e-06
-1.42063e-05
6.78854e-06
-1.5755e-05
8.72313e-06
-1.75451e-05
1.08895e-05
-1.95866e-05
1.34188e-05
-2.1677e-05
1.62534e-05
-2.32068e-05
1.98657e-05
-2.30999e-05
2.36843e-05
-1.52984e-05
3.29614e-05
3.02955e-06
4.26007e-05
-7.56771e-06
7.11084e-05
-1.34339e-05
-1.42696e-05
-1.92227e-06
-1.91142e-05
-5.71537e-06
-6.91254e-06
-1.67493e-06
-7.68573e-06
-3.21225e-07
-8.50394e-06
1.11458e-06
-9.39952e-06
2.66024e-06
-1.03814e-05
4.32512e-06
-1.14842e-05
6.11317e-06
-1.27369e-05
8.04117e-06
-1.41493e-05
1.01353e-05
-1.5677e-05
1.24167e-05
-1.72195e-05
1.49609e-05
-1.85388e-05
1.75722e-05
-1.8191e-05
1.9518e-05
-1.69105e-05
2.24039e-05
-3.50684e-06
1.95581e-05
1.50112e-05
2.39885e-05
1.90902e-05
6.54934e-05
-8.33466e-06
2.01055e-05
2.14757e-06
-1.33707e-05
-7.42434e-06
-5.68691e-06
-1.02443e-06
-6.39213e-06
3.83458e-07
-7.14993e-06
1.87189e-06
-7.95689e-06
3.46676e-06
-8.83078e-06
5.19864e-06
-9.80177e-06
7.0837e-06
-1.09143e-05
9.15325e-06
-1.2195e-05
1.14153e-05
-1.36302e-05
1.38512e-05
-1.50871e-05
1.64169e-05
-1.63599e-05
1.88444e-05
-1.64387e-05
1.95959e-05
-1.57198e-05
2.16843e-05
-8.33525e-06
1.21724e-05
2.49213e-06
1.31598e-05
3.45733e-05
3.33716e-05
5.60496e-06
4.81396e-05
1.54866e-05
2.47995e-06
-1.02572e-05
-4.28576e-06
-6.37929e-07
-4.82802e-06
9.2521e-07
-5.48909e-06
2.53248e-06
-6.24225e-06
4.21951e-06
-7.07266e-06
6.0286e-06
-7.99876e-06
8.00937e-06
-9.05952e-06
1.02134e-05
-1.02845e-05
1.26396e-05
-1.17226e-05
1.52885e-05
-1.34664e-05
1.81599e-05
-1.54353e-05
2.08124e-05
-1.77789e-05
2.19386e-05
-1.91962e-05
2.31005e-05
-1.91886e-05
1.21636e-05
-2.06795e-05
1.46491e-05
2.52945e-05
-1.26034e-05
1.24243e-05
5.66805e-05
2.52092e-05
1.72427e-05
-1.36222e-06
-3.31681e-06
-3.46235e-06
-3.71141e-06
-4.02876e-06
-4.3916e-06
-4.7986e-06
-5.26734e-06
-5.86428e-06
-6.67154e-06
-7.75388e-06
-9.07479e-06
-9.49451e-06
-1.1283e-05
-4.55646e-06
-1.00136e-05
1.49611e-05
1.20862e-05
3.73515e-05
)
;

boundaryField
{
    leftWall
    {
        type            fixedValue;
        value           nonuniform 0();
    }
    rightWall
    {
        type            fixedValue;
        value           uniform 0;
    }
    lowerWall
    {
        type            fixedValue;
        value           nonuniform 0();
    }
    atmosphere
    {
        type            calculated;
        value           nonuniform List<scalar> 
23
(
-1.78756e-06
-1.46594e-06
-1.14315e-06
-8.19238e-07
-6.46613e-07
1.07058e-06
2.7814e-06
4.53672e-06
6.39129e-06
8.41621e-06
1.0682e-05
1.32363e-05
1.60955e-05
1.92419e-05
2.2133e-05
2.2358e-05
2.48885e-05
5.43658e-06
2.01058e-05
-3.75784e-05
5.90608e-05
2.38093e-05
8.4517e-06
)
;
    }
    defaultFaces
    {
        type            empty;
        value           nonuniform 0();
    }
    procBoundary3to1
    {
        type            processor;
        value           nonuniform List<scalar> 
23
(
1.36898e-05
1.3793e-05
1.39605e-05
1.40642e-05
3.3208e-05
3.31621e-05
3.187e-05
3.0348e-05
2.82536e-05
2.51465e-05
2.23278e-05
2.01086e-05
1.11563e-05
-1.01611e-05
-0.000117346
-0.000231336
-0.000136056
-9.1163e-05
-7.6426e-05
-6.43041e-05
4.6959e-05
5.04687e-05
2.24511e-05
)
;
    }
    procBoundary3to2
    {
        type            processor;
        value           nonuniform List<scalar> 
25
(
1.70651e-05
1.66536e-05
1.55032e-05
1.63551e-05
1.55539e-05
1.58547e-05
1.51477e-05
1.48506e-05
1.43927e-05
1.38449e-05
1.32908e-05
1.27155e-05
1.20917e-05
1.14493e-05
1.07754e-05
1.00713e-05
9.33673e-06
8.56783e-06
7.7645e-06
6.91895e-06
6.01654e-06
5.06834e-06
4.25051e-06
3.80413e-06
3.69872e-06
)
;
    }
}


// ************************************************************************* //
