/*--------------------------------*- C++ -*----------------------------------*\
| =========                 |                                                 |
| \\      /  F ield         | OpenFOAM: The Open Source CFD Toolbox           |
|  \\    /   O peration     | Version:  2.4.0                                 |
|   \\  /    A nd           | Web:      www.OpenFOAM.org                      |
|    \\/     M anipulation  |                                                 |
\*---------------------------------------------------------------------------*/
FoamFile
{
    version     2.0;
    format      ascii;
    class       surfaceScalarField;
    location    "0.55";
    object      phi.oil;
}
// * * * * * * * * * * * * * * * * * * * * * * * * * * * * * * * * * * * * * //

dimensions      [0 3 -1 0 0 0 0];

internalField   nonuniform List<scalar> 
1102
(
-1.76279e-05
-1.31282e-05
-1.81695e-05
-1.32531e-05
-1.89068e-05
-1.3224e-05
-1.3194e-05
-1.9778e-05
-1.73428e-05
-1.24399e-05
-1.8065e-05
-1.25311e-05
-1.88582e-05
-1.24314e-05
-1.21826e-05
-1.98699e-05
-1.62804e-05
-1.16633e-05
-1.72191e-05
-1.15929e-05
-1.81584e-05
-1.14924e-05
-1.11838e-05
-1.91575e-05
-1.71416e-05
-1.08774e-05
-1.80499e-05
-1.06852e-05
-1.89265e-05
-1.06161e-05
-1.03582e-05
-1.97523e-05
-1.64325e-05
-9.99938e-06
-1.73115e-05
-9.80651e-06
-1.81062e-05
-9.82179e-06
-9.6234e-06
-1.88412e-05
-1.65846e-05
-9.27001e-06
-1.72897e-05
-9.10192e-06
-1.80206e-05
-9.09116e-06
-8.94842e-06
-1.86958e-05
-1.57792e-05
-8.63894e-06
-1.64653e-05
-8.41602e-06
-1.72569e-05
-8.29995e-06
-8.18049e-06
-1.80251e-05
-1.55269e-05
-7.96316e-06
-1.61548e-05
-7.78861e-06
-1.68357e-05
-7.61936e-06
-7.47796e-06
-1.75384e-05
-1.50632e-05
-7.29289e-06
-1.5699e-05
-7.15297e-06
-1.63143e-05
-7.00455e-06
-6.85992e-06
-1.69324e-05
-1.4436e-05
-6.70231e-06
-1.50319e-05
-6.55764e-06
-1.56317e-05
-6.40485e-06
-6.23483e-06
-1.62571e-05
-1.3904e-05
-6.08939e-06
-1.44866e-05
-5.97505e-06
-1.5073e-05
-5.8188e-06
-5.65072e-06
-1.56573e-05
-1.32557e-05
-5.54969e-06
-1.38101e-05
-5.42115e-06
-1.43536e-05
-5.27542e-06
-5.105e-06
-1.48995e-05
-1.26089e-05
-5.03259e-06
-1.31294e-05
-4.90064e-06
-1.36522e-05
-4.75299e-06
-4.58595e-06
-1.41713e-05
-1.19219e-05
-4.56044e-06
-1.24089e-05
-4.41412e-06
-1.2899e-05
-4.26294e-06
-4.097e-06
-1.33881e-05
-1.12169e-05
-4.11911e-06
-1.1669e-05
-3.96189e-06
-1.21289e-05
-3.80337e-06
-3.6354e-06
-1.25906e-05
-1.04825e-05
-3.70836e-06
-1.09042e-05
-3.54057e-06
-1.13348e-05
-3.3729e-06
-3.19922e-06
-1.17711e-05
-9.72105e-06
-3.32408e-06
-1.01138e-05
-3.14771e-06
-1.05172e-05
-2.96979e-06
-2.78986e-06
-1.09267e-05
-8.92711e-06
-2.96531e-06
-9.2951e-06
-2.78025e-06
-9.67214e-06
-2.59275e-06
-2.4041e-06
-1.00581e-05
-8.09969e-06
-2.63019e-06
-8.44205e-06
-2.43774e-06
-8.79389e-06
-2.24137e-06
-2.04238e-06
-9.15574e-06
-7.23134e-06
-2.31835e-06
-7.5513e-06
-2.11839e-06
-7.87938e-06
-1.91339e-06
-1.70477e-06
-8.21726e-06
-6.31018e-06
-2.02468e-06
-6.61026e-06
-1.81819e-06
-6.9184e-06
-1.6058e-06
-1.38917e-06
-7.23414e-06
-5.33762e-06
-1.75579e-06
-5.61602e-06
-1.54044e-06
-5.89919e-06
-1.3227e-06
-1.09788e-06
-6.19077e-06
-4.38352e-06
-1.62276e-06
-4.56606e-06
-1.35766e-06
-4.78746e-06
-1.10185e-06
-8.49864e-07
-5.03582e-06
-3.76799e-06
-1.65941e-06
-3.76866e-06
-1.35795e-06
-3.81093e-06
-1.06026e-06
-7.62638e-07
-3.89871e-06
-3.57162e-06
-3.46402e-06
-3.38166e-06
-3.32532e-06
-2.21009e-05
-3.0887e-05
-2.48041e-05
-3.04617e-05
-2.71511e-05
-2.953e-05
-2.8835e-05
-2.86749e-05
-2.93132e-05
-2.78031e-05
-2.79896e-05
-2.64899e-05
-2.37196e-05
-2.66798e-05
-1.56186e-05
-2.89878e-05
-1.11042e-07
-2.78864e-05
1.69693e-05
-1.20247e-05
3.8827e-05
7.8629e-05
-6.78576e-05
0.00026283
-0.000189736
0.000213056
-0.00021725
8.79279e-05
-0.000182038
7.06708e-05
-9.5854e-05
6.0495e-05
-2.72256e-05
-0.000132049
-2.32578e-05
-0.000131712
-8.01941e-05
-2.22897e-05
-2.84672e-05
-2.44469e-05
-2.83037e-05
-2.58146e-05
-2.81613e-05
-2.70564e-05
-2.74322e-05
-2.81141e-05
-2.67374e-05
-2.75684e-05
-2.69765e-05
-2.51959e-05
-2.88739e-05
-2.00054e-05
-3.41352e-05
-8.34585e-06
-3.82102e-05
3.19469e-06
-2.61311e-05
4.16813e-05
4.25927e-05
2.88334e-05
0.000271447
-5.67897e-05
0.000281266
-0.000159101
0.000205783
-0.000183889
9.03352e-05
-7.8305e-05
4.18384e-05
1.96213e-05
-7.51216e-05
6.79127e-06
-0.000149823
-0.000114311
-2.1397e-05
-2.62277e-05
-2.35796e-05
-2.61211e-05
-2.5499e-05
-2.62412e-05
-2.73656e-05
-2.55654e-05
-2.89407e-05
-2.51556e-05
-2.94925e-05
-2.64015e-05
-2.93758e-05
-2.88991e-05
-2.84449e-05
-3.48735e-05
-2.39964e-05
-4.16039e-05
-1.80612e-05
-3.57537e-05
2.65961e-05
9.50055e-06
4.91187e-05
0.000252084
2.10346e-05
0.00030733
-1.62659e-05
0.000246863
-1.73064e-05
0.000118893
1.75758e-05
4.05367e-05
2.38169e-05
1.45079e-06
1.19269e-05
-0.000134909
-0.000110982
-2.16711e-05
-2.4309e-05
-2.32662e-05
-2.4526e-05
-2.51248e-05
-2.43827e-05
-2.72489e-05
-2.34416e-05
-2.91921e-05
-2.32129e-05
-3.11156e-05
-2.44771e-05
-3.39317e-05
-2.60917e-05
-3.83127e-05
-3.03759e-05
-4.26644e-05
-3.68211e-05
-4.30709e-05
-3.82801e-05
-7.18476e-06
-6.31652e-06
4.24055e-05
0.000203958
3.974e-05
0.000305846
3.80607e-05
0.000254082
4.3196e-05
0.000122828
5.30538e-05
3.55915e-05
3.26225e-05
6.66981e-06
1.09568e-05
-0.000110515
-0.000101671
-2.07285e-05
-2.24219e-05
-2.27173e-05
-2.25371e-05
-2.49181e-05
-2.2182e-05
-2.72564e-05
-2.11034e-05
-2.95495e-05
-2.09202e-05
-3.24398e-05
-2.15904e-05
-3.69489e-05
-2.16022e-05
-4.37856e-05
-2.35139e-05
-5.36959e-05
-2.70324e-05
-6.39581e-05
-2.84065e-05
-5.71113e-05
-5.08827e-06
9.00891e-06
0.000136777
3.92732e-05
0.000279635
5.53036e-05
0.000238196
6.7666e-05
0.00011381
6.77273e-05
3.82775e-05
3.27766e-05
2.65829e-05
7.81803e-06
-8.6665e-05
-9.50484e-05
-2.04075e-05
-2.07104e-05
-2.23077e-05
-2.06367e-05
-2.45714e-05
-1.99183e-05
-2.68334e-05
-1.88414e-05
-2.94132e-05
-1.83411e-05
-3.28967e-05
-1.81084e-05
-3.76805e-05
-1.68217e-05
-4.48364e-05
-1.63805e-05
-5.59845e-05
-1.59292e-05
-7.09514e-05
-1.27254e-05
-7.63511e-05
3.29035e-06
-2.27202e-05
8.53488e-05
3.34186e-05
0.000215285
6.73054e-05
0.000196979
8.35444e-05
9.86893e-05
7.62509e-05
4.68027e-05
2.55709e-05
5.63751e-05
-2.32137e-06
-4.84209e-05
-9.1035e-05
-1.97976e-05
-1.89379e-05
-2.18158e-05
-1.86184e-05
-2.40044e-05
-1.77294e-05
-2.6214e-05
-1.66319e-05
-2.88375e-05
-1.57181e-05
-3.22795e-05
-1.46674e-05
-3.65396e-05
-1.25611e-05
-4.26198e-05
-1.02998e-05
-5.15393e-05
-6.97902e-06
-6.4443e-05
6.00369e-07
-7.29806e-05
1.50403e-05
-4.468e-05
5.80485e-05
1.94257e-05
0.000136725
6.73173e-05
0.000141009
8.81909e-05
7.66552e-05
8.17134e-05
5.4276e-05
2.63776e-05
8.50531e-05
-2.87713e-06
-1.02428e-05
-8.50311e-05
-1.92465e-05
-1.72298e-05
-2.11653e-05
-1.66994e-05
-2.31661e-05
-1.57283e-05
-2.53006e-05
-1.44974e-05
-2.77529e-05
-1.32662e-05
-3.07654e-05
-1.16559e-05
-3.42354e-05
-9.09169e-06
-3.865e-05
-5.88424e-06
-4.43007e-05
-1.30695e-06
-5.11903e-05
7.66817e-06
-5.54671e-05
2.01356e-05
-3.86624e-05
4.67719e-05
7.58765e-06
8.44329e-05
5.49376e-05
9.02186e-05
7.78695e-05
5.3013e-05
7.65043e-05
5.64057e-05
2.68869e-05
0.000113833
-1.35757e-06
1.59794e-05
-7.77411e-05
-1.85363e-05
-1.56259e-05
-2.03571e-05
-1.48784e-05
-2.22138e-05
-1.38713e-05
-2.42009e-05
-1.25103e-05
-2.63646e-05
-1.1103e-05
-2.87696e-05
-9.25195e-06
-3.13373e-05
-6.52528e-06
-3.4128e-05
-3.09414e-06
-3.70611e-05
1.63109e-06
-3.91322e-05
9.7843e-06
-3.79179e-05
1.90161e-05
-2.5904e-05
3.63888e-05
2.92229e-06
5.52861e-05
4.11061e-05
5.24194e-05
5.10318e-05
3.68404e-05
5.67164e-05
5.49642e-05
2.11427e-05
0.000139146
-1.78003e-06
3.98565e-05
-6.97797e-05
-1.7852e-05
-1.4031e-05
-1.94903e-05
-1.32399e-05
-2.11999e-05
-1.21614e-05
-2.29378e-05
-1.07723e-05
-2.47618e-05
-9.27953e-06
-2.66324e-05
-7.38238e-06
-2.83829e-05
-4.77605e-06
-2.989e-05
-1.5884e-06
-3.07791e-05
2.51995e-06
-3.00429e-05
9.05662e-06
-2.62212e-05
1.51935e-05
-1.48574e-05
2.52404e-05
3.32011e-06
3.66459e-05
2.92509e-05
2.73193e-05
2.93176e-05
2.79481e-05
4.0036e-05
5.07778e-05
1.97416e-05
0.000151607
-1.09697e-07
5.9513e-05
-5.53148e-05
-1.70337e-05
-1.26545e-05
-1.85692e-05
-1.17042e-05
-2.0108e-05
-1.06223e-05
-2.16318e-05
-9.24858e-06
-2.31574e-05
-7.75444e-06
-2.45783e-05
-5.96246e-06
-2.57029e-05
-3.65261e-06
-2.63377e-05
-9.54833e-07
-2.59816e-05
2.16353e-06
-2.3797e-05
6.87722e-06
-1.93676e-05
1.07551e-05
-8.77299e-06
1.47819e-05
4.2369e-06
2.32345e-05
2.07754e-05
1.24857e-05
1.96256e-05
2.18455e-05
2.98852e-05
4.63145e-05
1.73015e-05
0.000153802
1.47731e-06
5.87632e-05
-3.55481e-05
-1.62416e-05
-1.13123e-05
-1.76229e-05
-1.03227e-05
-1.9017e-05
-9.22799e-06
-2.03627e-05
-7.90293e-06
-2.16479e-05
-6.46982e-06
-2.27523e-05
-4.859e-06
-2.34809e-05
-2.92492e-06
-2.36378e-05
-7.98787e-07
-2.27469e-05
1.27291e-06
-1.99956e-05
4.13271e-06
-1.55258e-05
6.2731e-06
-6.48138e-06
5.91625e-06
4.27343e-06
1.19702e-05
1.65979e-05
1.60955e-06
1.73327e-05
9.76922e-06
2.45589e-05
3.99304e-05
1.52517e-05
0.000139478
5.20967e-06
4.6765e-05
-1.70608e-05
-1.53965e-05
-1.00872e-05
-1.6672e-05
-9.04702e-06
-1.79493e-05
-7.95064e-06
-1.91643e-05
-6.68814e-06
-2.02897e-05
-5.34503e-06
-2.12169e-05
-3.93245e-06
-2.17752e-05
-2.36745e-06
-2.17777e-05
-7.96774e-07
-2.08699e-05
3.65494e-07
-1.83348e-05
1.60499e-06
-1.40952e-05
2.02362e-06
-6.6802e-06
-1.24954e-06
2.74212e-06
1.80264e-06
1.52001e-05
-9.0847e-06
2.02616e-05
-3.01159e-05
2.48732e-05
1.52707e-05
1.73691e-05
0.000119585
7.16364e-06
1.98175e-05
-4.31412e-06
-1.45485e-05
-8.92681e-06
-1.57304e-05
-7.86494e-06
-1.69174e-05
-6.76367e-06
-1.80497e-05
-5.55617e-06
-1.90964e-05
-4.29881e-06
-1.9977e-05
-3.05247e-06
-2.05635e-05
-1.7815e-06
-2.0672e-05
-6.88707e-07
-2.0129e-05
-1.77414e-07
-1.8313e-05
-2.0518e-07
-1.47875e-05
-1.50886e-06
-9.14388e-06
-6.45418e-06
-1.25072e-06
-6.86146e-06
2.86022e-06
-2.1255e-05
9.32782e-06
-6.64512e-05
1.87982e-05
-4.43664e-05
1.35662e-05
0.000105429
5.73731e-06
1.18525e-05
1.57081e-06
-1.36828e-05
-7.83456e-06
-1.47953e-05
-6.75253e-06
-1.59191e-05
-5.63997e-06
-1.70106e-05
-4.46501e-06
-1.80414e-05
-3.26837e-06
-1.89846e-05
-2.10977e-06
-1.97293e-05
-1.03713e-06
-2.01547e-05
-2.63746e-07
-2.02449e-05
-8.73783e-08
-1.96421e-05
-8.04075e-07
-1.79351e-05
-3.21902e-06
-1.50241e-05
-8.919e-06
-7.6485e-06
-1.38113e-05
-9.96246e-06
-3.30022e-05
-1.49437e-05
-7.49228e-05
2.21585e-07
-8.26919e-05
9.3222e-06
9.39672e-05
5.62904e-06
1.56058e-05
1.19011e-05
-1.28075e-05
-6.79826e-06
-1.38653e-05
-5.69468e-06
-1.49434e-05
-4.56204e-06
-1.602e-05
-3.38874e-06
-1.7083e-05
-2.20571e-06
-1.81185e-05
-1.0746e-06
-1.90803e-05
-7.55568e-08
-1.99854e-05
6.41035e-07
-2.0869e-05
7.95667e-07
-2.17549e-05
8.20741e-08
-2.26888e-05
-2.29641e-06
-2.38843e-05
-7.47605e-06
-1.74209e-05
-1.5144e-05
-2.31737e-05
-3.03395e-05
-2.70903e-05
-6.68521e-05
-1.38495e-05
-7.8756e-05
-2.15091e-06
3.44568e-05
3.24992e-06
3.25277e-05
5.34464e-05
-1.19129e-05
-5.81222e-06
-1.29244e-05
-4.68331e-06
-1.39718e-05
-3.51484e-06
-1.50438e-05
-2.31699e-06
-1.61539e-05
-1.09582e-06
-1.73044e-05
7.58448e-08
-1.85271e-05
1.14699e-06
-1.98773e-05
1.99089e-06
-2.15154e-05
2.43286e-06
-2.36782e-05
2.24094e-06
-2.69378e-05
9.30644e-07
-3.20399e-05
-2.23442e-06
-3.41053e-05
-7.74839e-06
-3.19803e-05
-1.29289e-05
-3.74609e-05
-3.65867e-05
-3.06229e-05
-6.09945e-05
-1.06554e-05
-3.92366e-05
3.9601e-06
3.42283e-05
5.44067e-05
-1.09928e-05
-4.87768e-06
-1.19606e-05
-3.71562e-06
-1.29775e-05
-2.49814e-06
-1.40486e-05
-1.24608e-06
-1.51895e-05
4.49599e-08
-1.64311e-05
1.3175e-06
-1.78341e-05
2.5499e-06
-1.95032e-05
3.65974e-06
-2.17014e-05
4.62993e-06
-2.48564e-05
5.38999e-06
-2.97849e-05
5.81115e-06
-3.81404e-05
6.02772e-06
-4.98742e-05
6.16686e-06
-4.27385e-05
1.30944e-05
-3.482e-05
4.46185e-06
-2.4152e-05
-4.42621e-05
-9.61497e-06
-4.38209e-05
4.33658e-06
1.82344e-05
1.20661e-05
-1.00381e-05
-3.99555e-06
-1.09622e-05
-2.79167e-06
-1.19431e-05
-1.51734e-06
-1.2994e-05
-1.95365e-07
-1.41362e-05
1.18721e-06
-1.5406e-05
2.5874e-06
-1.68729e-05
4.0168e-06
-1.86588e-05
5.44537e-06
-2.09822e-05
6.95244e-06
-2.42167e-05
8.62051e-06
-2.90529e-05
1.06157e-05
-3.67923e-05
1.37207e-05
-4.7947e-05
1.87857e-05
-3.7511e-05
3.37001e-05
-2.66438e-05
2.14059e-05
-2.06133e-05
-3.78586e-05
-1.49792e-05
-2.74787e-05
-1.36453e-06
-3.21863e-06
1.3728e-06
-9.04414e-06
-3.16887e-06
-9.92068e-06
-1.91526e-06
-1.0857e-05
-5.81156e-07
-1.18673e-05
8.15022e-07
-1.29791e-05
2.29901e-06
-1.42278e-05
3.83624e-06
-1.56669e-05
5.45597e-06
-1.73962e-05
7.17454e-06
-1.95438e-05
9.09953e-06
-2.23006e-05
1.1376e-05
-2.58468e-05
1.41537e-05
-3.03581e-05
1.82917e-05
-3.49061e-05
2.36478e-05
-2.06807e-05
3.94808e-05
-1.57185e-05
2.94187e-05
-1.5939e-05
-3.67293e-05
-1.50354e-05
-2.6507e-05
-2.89897e-06
-1.59098e-05
-2.02535e-06
-8.00683e-06
-2.39643e-06
-8.82808e-06
-1.09414e-06
-9.70584e-06
2.96543e-07
-1.06555e-05
1.7648e-06
-1.16997e-05
3.34332e-06
-1.28738e-05
5.01044e-06
-1.42063e-05
6.78854e-06
-1.5755e-05
8.72312e-06
-1.75452e-05
1.08894e-05
-1.95873e-05
1.3418e-05
-2.1684e-05
1.62489e-05
-2.31796e-05
1.98463e-05
-2.3261e-05
2.36212e-05
-9.74166e-06
3.27887e-05
-8.38721e-06
3.95639e-05
-1.40497e-05
-2.46091e-05
-1.39577e-05
-3.00363e-05
-1.84602e-06
-1.91209e-05
-5.71712e-06
-6.91254e-06
-1.67493e-06
-7.68573e-06
-3.21225e-07
-8.50394e-06
1.11458e-06
-9.39952e-06
2.66024e-06
-1.03814e-05
4.32512e-06
-1.14842e-05
6.11317e-06
-1.27369e-05
8.04117e-06
-1.41493e-05
1.01353e-05
-1.56771e-05
1.24167e-05
-1.72197e-05
1.49604e-05
-1.85429e-05
1.75678e-05
-1.81583e-05
1.94883e-05
-1.70636e-05
2.21614e-05
-4.22852e-07
1.68896e-05
-6.51231e-07
2.07452e-05
-8.83026e-06
1.24965e-05
-1.1019e-05
-2.75011e-05
2.34809e-06
-1.3752e-05
-7.42366e-06
-5.68691e-06
-1.02443e-06
-6.39213e-06
3.83458e-07
-7.14993e-06
1.87189e-06
-7.95689e-06
3.46676e-06
-8.83078e-06
5.19864e-06
-9.80177e-06
7.0837e-06
-1.09143e-05
9.15325e-06
-1.2195e-05
1.14153e-05
-1.36303e-05
1.38511e-05
-1.50875e-05
1.6416e-05
-1.63706e-05
1.88369e-05
-1.62843e-05
1.9549e-05
-1.6092e-05
2.14164e-05
-5.98884e-06
1.10259e-05
1.71461e-06
1.11792e-05
8.12808e-06
3.4183e-05
1.08147e-06
2.12875e-06
1.6847e-05
-1.0683e-06
-1.02834e-05
-4.28576e-06
-6.37929e-07
-4.82802e-06
9.2521e-07
-5.48909e-06
2.53248e-06
-6.24225e-06
4.21951e-06
-7.07266e-06
6.0286e-06
-7.99876e-06
8.00937e-06
-9.05952e-06
1.02134e-05
-1.02845e-05
1.26396e-05
-1.17228e-05
1.52884e-05
-1.3468e-05
1.8159e-05
-1.54559e-05
2.08037e-05
-1.77259e-05
2.18873e-05
-1.9347e-05
2.2847e-05
-1.76805e-05
1.20062e-05
-1.91963e-05
1.12105e-05
2.78908e-05
-9.48366e-06
8.62822e-06
5.19398e-05
2.70032e-05
9.11677e-06
-1.34701e-06
-3.31681e-06
-3.46235e-06
-3.71141e-06
-4.02876e-06
-4.3916e-06
-4.7986e-06
-5.26734e-06
-5.86428e-06
-6.67157e-06
-7.75421e-06
-9.07997e-06
-9.47268e-06
-1.13383e-05
-3.83124e-06
-9.07039e-06
2.69198e-05
7.62532e-06
4.076e-05
)
;

boundaryField
{
    leftWall
    {
        type            fixedValue;
        value           nonuniform 0();
    }
    rightWall
    {
        type            fixedValue;
        value           uniform 0;
    }
    lowerWall
    {
        type            fixedValue;
        value           nonuniform 0();
    }
    atmosphere
    {
        type            calculated;
        value           nonuniform List<scalar> 
23
(
-1.78756e-06
-1.46594e-06
-1.14315e-06
-8.19238e-07
-6.46613e-07
1.07058e-06
2.7814e-06
4.53672e-06
6.39129e-06
8.41621e-06
1.0682e-05
1.32363e-05
1.60955e-05
1.92417e-05
2.21301e-05
2.23388e-05
2.48041e-05
5.3225e-06
1.90901e-05
-3.74405e-05
5.38959e-05
1.28985e-05
8.51393e-06
)
;
    }
    defaultFaces
    {
        type            empty;
        value           nonuniform 0();
    }
    procBoundary3to1
    {
        type            processor;
        value           nonuniform List<scalar> 
23
(
1.36908e-05
1.37939e-05
1.39614e-05
1.40653e-05
3.32119e-05
3.31687e-05
3.18818e-05
3.03721e-05
2.83112e-05
2.52941e-05
2.2687e-05
2.08939e-05
1.31505e-05
-6.57741e-06
-0.000104919
-0.000194033
-7.62231e-05
-7.61393e-05
-7.24376e-05
-6.26114e-05
5.72314e-05
5.42573e-05
2.25392e-05
)
;
    }
    procBoundary3to2
    {
        type            processor;
        value           nonuniform List<scalar> 
25
(
1.7065e-05
1.66536e-05
1.55031e-05
1.63551e-05
1.55539e-05
1.58547e-05
1.51477e-05
1.48506e-05
1.43927e-05
1.38449e-05
1.32908e-05
1.27155e-05
1.20917e-05
1.14493e-05
1.07754e-05
1.00713e-05
9.33673e-06
8.56783e-06
7.7645e-06
6.91895e-06
6.01654e-06
5.06834e-06
4.25051e-06
3.80413e-06
3.69872e-06
)
;
    }
}


// ************************************************************************* //
