/*--------------------------------*- C++ -*----------------------------------*\
| =========                 |                                                 |
| \\      /  F ield         | OpenFOAM: The Open Source CFD Toolbox           |
|  \\    /   O peration     | Version:  2.4.0                                 |
|   \\  /    A nd           | Web:      www.OpenFOAM.org                      |
|    \\/     M anipulation  |                                                 |
\*---------------------------------------------------------------------------*/
FoamFile
{
    version     2.0;
    format      ascii;
    class       volScalarField;
    location    "0.55";
    object      rho;
}
// * * * * * * * * * * * * * * * * * * * * * * * * * * * * * * * * * * * * * //

dimensions      [1 -3 0 0 0 0 0];

internalField   nonuniform List<scalar> 
575
(
0.999999
0.999999
0.999999
0.999999
1
1
0.999999
0.999999
1
1
1
1
1
1
1
1
1
1
1
1
1
1
1
1
1
1
1
1
0.999999
1
1
0.999999
0.999998
0.999999
0.999999
0.999999
0.999998
0.999999
0.999999
0.999999
0.999998
0.999998
0.999999
0.999998
0.999998
0.999999
0.999998
0.999998
0.999998
0.999998
0.999998
0.999998
0.999999
0.999999
0.999998
0.999998
0.999999
0.999998
0.999999
0.999998
0.999999
0.999999
0.999999
0.999998
0.999999
0.999999
0.999999
0.999998
1
1
0.999999
0.999999
1
1
1
0.999999
1
1
1
0.999999
1
1
1
1
1
1
1
1
0.999999
0.999999
1
1
1
1
1
1
1
1
1
1
0.999999
0.999998
0.999998
0.999999
1
1.00001
1.00005
1.00011
1.00024
1.00045
1.00115
1.00139
1.00246
1.25897
5.61879
19.7894
30.8234
249.099
491.909
0.999999
0.999998
0.999998
0.999999
1
1.00001
1.00003
1.00009
1.00022
1.00043
1.00084
1.00141
1.0014
1.00157
1.01528
1.06816
1.11842
34.0613
432.125
0.999999
0.999999
0.999998
0.999998
0.999999
1
1.00002
1.00007
1.00018
1.0004
1.00074
1.00138
1.00131
1.00136
1.00149
1.00151
1.00151
2.78921
349.425
1
0.999999
0.999998
0.999998
0.999999
1
1.00001
1.00004
1.00013
1.00036
1.0007
1.00128
1.0014
1.00128
1.00123
1.00122
1.00133
1.55705
322.337
1
0.999999
0.999999
0.999998
0.999998
0.999999
1
1.00002
1.00008
1.00023
1.00057
1.00105
1.00136
1.00125
1.00111
1.00106
1.00114
1.18544
339.063
1
0.999999
0.999999
0.999999
0.999998
0.999999
1
1.00001
1.00003
1.00011
1.00034
1.00076
1.0012
1.0011
1.00094
1.00087
1.00098
1.06058
347.705
0.999999
0.999999
0.999999
0.999999
0.999999
0.999999
0.999999
1
1.00001
1.00004
1.00013
1.00042
1.00084
1.00084
1.00067
1.00065
1.00084
1.02209
307.004
0.999999
0.999999
0.999999
0.999998
0.999998
0.999999
0.999999
0.999999
1
1.00001
1.00004
1.00014
1.00038
1.00047
1.00038
1.00051
1.00079
1.01024
280.255
0.999999
0.999998
0.999998
0.999998
0.999998
0.999999
0.999999
0.999999
1
1
1.00001
1.00003
1.00011
1.00017
1.00021
1.00051
1.00084
1.00616
267.115
0.999998
0.999998
0.999998
0.999998
0.999998
0.999998
0.999999
0.999999
0.999999
1
1
1.00001
1.00002
1.00005
1.00019
1.00061
1.00091
1.00497
233.486
0.999998
0.999997
0.999997
0.999998
0.999998
0.999998
0.999999
0.999999
0.999999
1
1
1.00001
1.00001
1.00007
1.00023
1.00067
1.001
1.00699
203.603
0.999997
0.999997
0.999997
0.999997
0.999998
0.999998
0.999999
0.999999
1
1
1
1.00001
1.00002
1.0001
1.00029
1.00071
1.0012
1.04011
162.146
0.999997
0.999997
0.999997
0.999997
0.999998
0.999998
0.999999
0.999999
1
1
1
1.00001
1.00003
1.00016
1.00115
1.00116
1.00258
1.2709
81.3731
0.999997
0.999997
0.999997
0.999997
0.999998
0.999998
0.999999
0.999999
1
1
1
1.00001
1.00005
1.00029
1.01951
1.0073
1.00671
1.70303
12.8213
0.999997
0.999997
0.999997
0.999997
0.999998
0.999998
0.999999
0.999999
1
1
1
1.00001
1.00007
1.00093
1.03646
1.06306
1.0075
1.40492
1.49329
0.999998
0.999997
0.999997
0.999997
0.999998
0.999998
0.999999
0.999999
1
1
1
1.00002
1.00008
1.00159
1.03427
1.09463
1.0079
1.05339
1.05344
0.999998
0.999997
0.999997
0.999998
0.999998
0.999999
0.999999
0.999999
0.999999
1
1
1.00002
1.0001
1.00087
1.03032
1.1482
1.03764
1.09485
1.2988
0.999998
0.999998
0.999998
0.999998
0.999998
0.999999
0.999999
0.999999
0.999999
1
1
1.00002
1.00008
1.00041
1.008
1.28862
2.98258
11.8172
88.2194
0.999999
0.999998
0.999998
0.999998
0.999999
0.999999
0.999999
0.999999
0.999999
1
1
1.00001
1.00005
1.00028
1.00544
1.86725
27.1555
166.974
407.881
0.999999
0.999999
0.999999
0.999999
0.999999
0.999999
0.999999
0.999999
0.999999
1
1
1.00001
1.00002
1.00013
1.00334
2.2418
62.1027
361.043
492.498
0.999999
0.999999
0.999999
0.999999
0.999999
0.999999
0.999999
0.999999
0.999999
0.999999
1
1
1.00001
1.00005
1.00052
1.32635
29.1345
328.552
492.929
0.999999
0.999999
0.999999
0.999999
0.999999
0.999999
0.999999
0.999999
0.999999
0.999999
0.999999
1
1.00001
1.00003
1.00019
1.01871
3.2993
215.284
492.929
0.999999
0.999999
0.999999
0.999999
0.999999
0.999999
0.999998
0.999998
0.999999
0.999999
1
1
1.00003
1.00016
1.00038
1.00042
1.0395
86.8269
492.928
1
0.999999
0.999999
0.999999
0.999999
0.999999
0.999999
0.999999
0.999999
0.999999
1
1.00001
1.00003
1.00012
1.00029
1.00015
1.00039
13.4614
433.229
1
1
1
1
1
0.999999
0.999999
0.999999
0.999999
0.999999
1
1
1.00001
1.00001
1.00005
1.00002
1.00024
1.59956
222.448
)
;

boundaryField
{
    leftWall
    {
        type            calculated;
        value           nonuniform 0();
    }
    rightWall
    {
        type            calculated;
        value           nonuniform List<scalar> 
25
(
491.909
432.125
349.425
322.337
339.063
347.705
307.004
280.255
267.115
233.486
203.603
162.146
81.3731
12.8213
1.49329
1.05344
1.2988
88.2194
407.881
492.498
492.929
492.929
492.928
433.229
222.448
)
;
    }
    lowerWall
    {
        type            calculated;
        value           nonuniform 0();
    }
    atmosphere
    {
        type            calculated;
        value           nonuniform List<scalar> 
23
(
1
1
1
1
1
1
1
1
1
0.999999
0.999999
0.999999
0.999999
0.999999
1
1
1.00001
1.00001
1.00005
1
1.00024
1.59956
222.448
)
;
    }
    defaultFaces
    {
        type            empty;
    }
    procBoundary3to1
    {
        type            processor;
        value           nonuniform List<scalar> 
23
(
1
0.999999
0.999999
0.999999
0.999999
0.999999
1
1
1.00001
1.00003
1.00006
1.00014
1.00026
1.00058
1.00169
1.00323
1.50485
19.1061
122.898
307.497
436.075
493.938
496.763
)
;
    }
    procBoundary3to2
    {
        type            processor;
        value           nonuniform List<scalar> 
25
(
1
1
1
1
1
0.999999
0.999999
0.999998
0.999998
0.999997
0.999998
0.999997
0.999998
0.999998
0.999999
0.999999
0.999999
0.999999
1
0.999999
1
0.999999
1
1
1
)
;
    }
}


// ************************************************************************* //
