/*--------------------------------*- C++ -*----------------------------------*\
| =========                 |                                                 |
| \\      /  F ield         | OpenFOAM: The Open Source CFD Toolbox           |
|  \\    /   O peration     | Version:  2.4.0                                 |
|   \\  /    A nd           | Web:      www.OpenFOAM.org                      |
|    \\/     M anipulation  |                                                 |
\*---------------------------------------------------------------------------*/
FoamFile
{
    version     2.0;
    format      ascii;
    class       volVectorField;
    location    "0.55";
    object      U;
}
// * * * * * * * * * * * * * * * * * * * * * * * * * * * * * * * * * * * * * //

dimensions      [0 1 -1 0 0 0 0];

internalField   nonuniform List<vector> 
575
(
(-0.0928069 -0.151448 0)
(-0.0961473 -0.152695 0)
(-0.0986392 -0.152878 0)
(-0.104507 -0.152795 0)
(-0.0912609 -0.148259 0)
(-0.0949593 -0.149662 0)
(-0.0985225 -0.148549 0)
(-0.105066 -0.146915 0)
(-0.0852876 -0.136959 0)
(-0.0895941 -0.137846 0)
(-0.0944188 -0.136484 0)
(-0.101353 -0.132833 0)
(-0.090086 -0.127836 0)
(-0.0943256 -0.125238 0)
(-0.098344 -0.124452 0)
(-0.104074 -0.121568 0)
(-0.0859873 -0.120597 0)
(-0.0911961 -0.118405 0)
(-0.0947543 -0.117763 0)
(-0.0990391 -0.114331 0)
(-0.0870452 -0.10815 0)
(-0.0916344 -0.106341 0)
(-0.0946336 -0.107135 0)
(-0.0977318 -0.106127 0)
(-0.0828061 -0.102717 0)
(-0.0868463 -0.100426 0)
(-0.0907736 -0.099554 0)
(-0.0944343 -0.0983571 0)
(-0.0811625 -0.095324 0)
(-0.085321 -0.092642 0)
(-0.0888425 -0.090608 0)
(-0.0919421 -0.089093 0)
(-0.0789094 -0.0862765 0)
(-0.0825973 -0.0852626 0)
(-0.0862284 -0.0834776 0)
(-0.0894209 -0.0822914 0)
(-0.075642 -0.0806043 0)
(-0.0789188 -0.0784918 0)
(-0.0825967 -0.0769147 0)
(-0.0857566 -0.0750043 0)
(-0.0728627 -0.0726527 0)
(-0.0760614 -0.0716308 0)
(-0.0793672 -0.0696884 0)
(-0.0829331 -0.0678931 0)
(-0.0696221 -0.0666196 0)
(-0.0724344 -0.0651331 0)
(-0.0755874 -0.0635009 0)
(-0.0788281 -0.0616205 0)
(-0.0662566 -0.0603305 0)
(-0.0689418 -0.0589606 0)
(-0.0717372 -0.0572767 0)
(-0.0749853 -0.0554051 0)
(-0.0627223 -0.054791 0)
(-0.0651868 -0.0532059 0)
(-0.0677579 -0.0515214 0)
(-0.0707694 -0.0496609 0)
(-0.0590342 -0.0495421 0)
(-0.0613591 -0.047839 0)
(-0.0636939 -0.0460813 0)
(-0.0664882 -0.0442068 0)
(-0.0551792 -0.0446883 0)
(-0.0573689 -0.0428422 0)
(-0.0595336 -0.0409835 0)
(-0.0620839 -0.0390571 0)
(-0.0511621 -0.0401504 0)
(-0.0532294 -0.0381926 0)
(-0.0552523 -0.0362195 0)
(-0.0575683 -0.0342139 0)
(-0.0469653 -0.0359054 0)
(-0.0489121 -0.0338475 0)
(-0.0508245 -0.0317583 0)
(-0.052936 -0.029652 0)
(-0.042586 -0.0319437 0)
(-0.044403 -0.0297945 0)
(-0.0462113 -0.0275968 0)
(-0.0481446 -0.0253791 0)
(-0.0379819 -0.028266 0)
(-0.0396801 -0.0260192 0)
(-0.0413918 -0.0237164 0)
(-0.0431729 -0.0213876 0)
(-0.0330814 -0.024788 0)
(-0.0346847 -0.0224704 0)
(-0.0363033 -0.0200891 0)
(-0.0379656 -0.0176638 0)
(-0.0279406 -0.0214615 0)
(-0.0294089 -0.0191331 0)
(-0.0309016 -0.0167129 0)
(-0.0324373 -0.0142094 0)
(-0.0230564 -0.0188284 0)
(-0.0239501 -0.0161655 0)
(-0.025069 -0.0135819 0)
(-0.0263536 -0.0110068 0)
(-0.020328 -0.0184205 0)
(-0.0201747 -0.0151006 0)
(-0.0202908 -0.0118597 0)
(-0.0206082 -0.00864979 0)
(-0.0195094 -0.020384 0)
(-0.0188251 -0.0167142 0)
(-0.0183377 -0.0130316 0)
(-0.017951 -0.00933736 0)
(-0.112158 -0.15267 0)
(-0.124914 -0.151084 0)
(-0.139129 -0.145757 0)
(-0.151457 -0.140297 0)
(-0.155897 -0.133527 0)
(-0.155026 -0.123884 0)
(-0.140679 -0.120387 0)
(-0.103538 -0.122746 0)
(-0.0816117 -0.0993902 0)
(0.0756856 -0.00394736 0)
(0.133182 0.482778 0)
(0.348211 1.27023 0)
(-0.309126 0.893095 0)
(-0.704594 0.62492 0)
(-0.802675 0.52524 0)
(-0.855844 0.448918 0)
(-0.823099 0.477251 0)
(-0.351119 -0.141004 0)
(-0.0826074 -0.279883 0)
(-0.112775 -0.146389 0)
(-0.125959 -0.144737 0)
(-0.136093 -0.142904 0)
(-0.139807 -0.139573 0)
(-0.147826 -0.135719 0)
(-0.149803 -0.131439 0)
(-0.140153 -0.134993 0)
(-0.12055 -0.154469 0)
(-0.112153 -0.159842 0)
(0.034848 -0.0863904 0)
(0.0185548 0.321543 0)
(0.400723 1.37545 0)
(0.0676553 1.32489 0)
(-0.336894 0.930053 0)
(-0.472892 0.572319 0)
(-0.311866 0.236349 0)
(-0.235835 -0.273061 0)
(-0.433002 -0.0626113 0)
(-0.0264586 -0.44734 0)
(-0.108702 -0.130784 0)
(-0.120116 -0.130107 0)
(-0.133212 -0.129981 0)
(-0.139133 -0.126004 0)
(-0.151772 -0.123104 0)
(-0.155949 -0.128752 0)
(-0.15537 -0.140587 0)
(-0.15338 -0.168377 0)
(-0.155154 -0.192269 0)
(-0.0595994 -0.147939 0)
(-0.140937 0.118007 0)
(0.382903 1.34435 0)
(0.229847 1.52113 0)
(0.0417486 1.21537 0)
(-0.0512368 0.600421 0)
(0.0564297 0.246491 0)
(0.212052 0.0768753 0)
(-0.218089 -0.378708 0)
(-0.000821334 -0.533196 0)
(-0.111396 -0.123482 0)
(-0.120785 -0.12361 0)
(-0.12837 -0.12378 0)
(-0.140422 -0.120454 0)
(-0.150899 -0.118592 0)
(-0.161024 -0.123349 0)
(-0.170946 -0.133006 0)
(-0.189837 -0.156678 0)
(-0.209322 -0.189536 0)
(-0.201335 -0.180372 0)
(-0.31721 -0.00877147 0)
(0.202288 1.19084 0)
(0.257421 1.52331 0)
(0.185823 1.25934 0)
(0.225616 0.613093 0)
(0.202798 0.17074 0)
(0.380296 -0.0302344 0)
(-0.0176013 -0.265916 0)
(-0.0160992 -0.507053 0)
(-0.105933 -0.112915 0)
(-0.117472 -0.114524 0)
(-0.126175 -0.11335 0)
(-0.140128 -0.107173 0)
(-0.152944 -0.106019 0)
(-0.164809 -0.111601 0)
(-0.18372 -0.114532 0)
(-0.213314 -0.127487 0)
(-0.249791 -0.150698 0)
(-0.316518 -0.160117 0)
(-0.44011 -0.051134 0)
(-0.193676 0.806868 0)
(0.246151 1.47082 0)
(0.199471 1.21564 0)
(0.364355 0.57211 0)
(0.319624 0.166899 0)
(0.443251 0.0831211 0)
(-0.0833943 -0.0912697 0)
(-0.021797 -0.475043 0)
(-0.105153 -0.104912 0)
(-0.115293 -0.104713 0)
(-0.124419 -0.101882 0)
(-0.138644 -0.0970744 0)
(-0.150607 -0.0956098 0)
(-0.166224 -0.0957535 0)
(-0.188981 -0.091559 0)
(-0.218865 -0.0942669 0)
(-0.26362 -0.0984055 0)
(-0.343943 -0.0915018 0)
(-0.462341 -0.0164851 0)
(-0.407703 0.493394 0)
(0.0925747 1.23619 0)
(0.256711 1.05717 0)
(0.443112 0.513751 0)
(0.412256 0.203546 0)
(0.460509 0.207933 0)
(-0.110728 0.0535673 0)
(-0.021424 -0.447269 0)
(-0.100818 -0.0970728 0)
(-0.112529 -0.0954986 0)
(-0.122398 -0.091502 0)
(-0.134958 -0.085854 0)
(-0.148068 -0.0821748 0)
(-0.162557 -0.0791591 0)
(-0.186541 -0.0702702 0)
(-0.210189 -0.0623089 0)
(-0.251509 -0.0507939 0)
(-0.311185 -0.0202774 0)
(-0.3906 0.0460921 0)
(-0.439912 0.29422 0)
(-0.083204 0.779331 0)
(0.258053 0.795724 0)
(0.463687 0.413822 0)
(0.448807 0.252571 0)
(0.484367 0.341987 0)
(-0.0117881 0.262544 0)
(-0.021465 -0.425562 0)
(-0.0982382 -0.0871647 0)
(-0.109208 -0.0859056 0)
(-0.118819 -0.0810807 0)
(-0.129818 -0.0758134 0)
(-0.143117 -0.0703537 0)
(-0.155798 -0.0633094 0)
(-0.176879 -0.0517218 0)
(-0.194234 -0.0376367 0)
(-0.224036 -0.0163696 0)
(-0.258506 0.0251973 0)
(-0.285797 0.0890896 0)
(-0.327508 0.241461 0)
(-0.0983628 0.479109 0)
(0.155291 0.532587 0)
(0.41909 0.295774 0)
(0.409237 0.275259 0)
(0.443971 0.488112 0)
(0.023609 0.479813 0)
(-0.0192901 -0.382107 0)
(-0.0941594 -0.0808074 0)
(-0.105025 -0.0764839 0)
(-0.114485 -0.071997 0)
(-0.12408 -0.0654177 0)
(-0.136713 -0.058996 0)
(-0.147053 -0.0504689 0)
(-0.16339 -0.0373098 0)
(-0.175281 -0.0204789 0)
(-0.193138 0.00316712 0)
(-0.208614 0.0442655 0)
(-0.202321 0.0954457 0)
(-0.215108 0.197661 0)
(-0.0490253 0.31462 0)
(0.0733954 0.314478 0)
(0.32851 0.210753 0)
(0.257301 0.28614 0)
(0.351193 0.653275 0)
(-0.0268312 0.632632 0)
(-0.0107452 -0.351353 0)
(-0.0912654 -0.0714635 0)
(-0.100396 -0.0685299 0)
(-0.109708 -0.0632268 0)
(-0.117973 -0.0565815 0)
(-0.128915 -0.0494701 0)
(-0.137458 -0.040219 0)
(-0.149186 -0.027056 0)
(-0.156528 -0.0104967 0)
(-0.16514 0.0111557 0)
(-0.167763 0.0462394 0)
(-0.144423 0.082283 0)
(-0.145904 0.146803 0)
(-0.000727274 0.214919 0)
(0.0348042 0.178412 0)
(0.24271 0.159695 0)
(0.124048 0.281149 0)
(0.292449 0.749536 0)
(0.0230459 0.726952 0)
(0.000972112 -0.298231 0)
(-0.0872806 -0.0652342 0)
(-0.0955291 -0.0604974 0)
(-0.104447 -0.0553766 0)
(-0.111577 -0.048657 0)
(-0.120958 -0.0413768 0)
(-0.127992 -0.0323548 0)
(-0.136015 -0.0203226 0)
(-0.140002 -0.00571387 0)
(-0.142884 0.011695 0)
(-0.137342 0.0387897 0)
(-0.107838 0.0619766 0)
(-0.10966 0.0943893 0)
(0.0244748 0.144143 0)
(0.0182642 0.095776 0)
(0.185787 0.132347 0)
(0.0646323 0.257448 0)
(0.24138 0.784008 0)
(0.058476 0.775228 0)
(0.00750391 -0.20603 0)
(-0.0834763 -0.0581403 0)
(-0.0907273 -0.053586 0)
(-0.0989176 -0.0482752 0)
(-0.10539 -0.0417276 0)
(-0.113344 -0.0346113 0)
(-0.119256 -0.0263505 0)
(-0.12488 -0.0160296 0)
(-0.126776 -0.00417989 0)
(-0.126583 0.00818457 0)
(-0.117633 0.0261829 0)
(-0.0874521 0.0405328 0)
(-0.0894753 0.047997 0)
(0.0273036 0.0859991 0)
(0.0147929 0.0390854 0)
(0.154687 0.105215 0)
(0.0546985 0.240757 0)
(0.199803 0.78497 0)
(0.0598986 0.795865 0)
(0.0149944 -0.0916638 0)
(-0.0793683 -0.0520929 0)
(-0.0858404 -0.0470647 0)
(-0.0934453 -0.0417927 0)
(-0.0994287 -0.0355329 0)
(-0.106379 -0.0287974 0)
(-0.111654 -0.0214889 0)
(-0.115999 -0.0130402 0)
(-0.117074 -0.00409925 0)
(-0.115928 0.00356523 0)
(-0.107139 0.0130343 0)
(-0.0810346 0.0195735 0)
(-0.0808517 0.0094109 0)
(0.0168242 0.0349561 0)
(0.00881126 -0.00905039 0)
(0.140183 0.0681465 0)
(0.0650952 0.22775 0)
(0.192327 0.757398 0)
(0.10921 0.791105 0)
(0.0446083 0.00919431 0)
(-0.0751301 -0.0462173 0)
(-0.0810561 -0.0411172 0)
(-0.0880562 -0.035797 0)
(-0.0937914 -0.0298249 0)
(-0.100128 -0.0235401 0)
(-0.105208 -0.0171413 0)
(-0.109307 -0.0103442 0)
(-0.110735 -0.00397366 0)
(-0.110089 -0.000240733 0)
(-0.104605 0.00192275 0)
(-0.0852965 -0.000687424 0)
(-0.0832184 -0.0204014 0)
(-0.00645802 -0.0113509 0)
(-0.0103685 -0.061927 0)
(0.115172 0.0168759 0)
(0.0500841 0.222194 0)
(0.152171 0.738077 0)
(0.0989234 0.780005 0)
(0.0878043 0.178512 0)
(-0.0707378 -0.0407632 0)
(-0.076268 -0.035542 0)
(-0.0827777 -0.0301789 0)
(-0.0884323 -0.024421 0)
(-0.0945061 -0.0185117 0)
(-0.0997072 -0.0127155 0)
(-0.104342 -0.00700698 0)
(-0.107232 -0.00275586 0)
(-0.108542 -0.00156575 0)
(-0.107636 -0.00391335 0)
(-0.098738 -0.0140032 0)
(-0.100168 -0.0407031 0)
(-0.0504333 -0.0532135 0)
(-0.0562338 -0.104948 0)
(0.0424643 -0.0242193 0)
(-0.0365571 0.206083 0)
(0.0593743 0.737899 0)
(0.0533173 0.774553 0)
(0.0195374 0.178883 0)
(-0.0662092 -0.0355598 0)
(-0.0714805 -0.0302565 0)
(-0.0775913 -0.0248098 0)
(-0.0832492 -0.0191587 0)
(-0.0892294 -0.0134131 0)
(-0.0947754 -0.00788649 0)
(-0.100203 -0.00299018 0)
(-0.104942 0.000343517 0)
(-0.109708 0.000865654 0)
(-0.114308 -0.00343658 0)
(-0.115992 -0.0155392 0)
(-0.126578 -0.0426952 0)
(-0.120001 -0.0769969 0)
(-0.136014 -0.111086 0)
(-0.134937 -0.0212899 0)
(-0.248974 0.267431 0)
(-0.162446 0.70608 0)
(-0.0966704 0.756765 0)
(-0.0822491 0.235535 0)
(-0.0615261 -0.0306418 0)
(-0.066605 -0.0252206 0)
(-0.0724015 -0.0196314 0)
(-0.0780782 -0.0139151 0)
(-0.0840631 -0.00809977 0)
(-0.0900311 -0.00255188 0)
(-0.0964344 0.00237208 0)
(-0.103177 0.00596059 0)
(-0.111128 0.00711691 0)
(-0.120538 0.00439372 0)
(-0.131852 -0.00531875 0)
(-0.156789 -0.0264909 0)
(-0.179808 -0.0588521 0)
(-0.250862 -0.076942 0)
(-0.343226 0.0345466 0)
(-0.510622 0.348703 0)
(-0.35188 0.6656 0)
(-0.192077 0.663492 0)
(0.0189084 0.00458374 0)
(-0.0566839 -0.0259647 0)
(-0.061593 -0.0203913 0)
(-0.0671007 -0.0146067 0)
(-0.0727459 -0.00867711 0)
(-0.0787559 -0.00259075 0)
(-0.0850531 0.00330966 0)
(-0.0921537 0.0088502 0)
(-0.100238 0.0135773 0)
(-0.110607 0.0170572 0)
(-0.123748 0.0183893 0)
(-0.142412 0.0159182 0)
(-0.180008 0.00881362 0)
(-0.223303 -0.00224757 0)
(-0.330932 0.0276255 0)
(-0.500606 0.206391 0)
(-0.654218 0.378172 0)
(-0.599362 0.432098 0)
(-0.185919 0.214407 0)
(0.0329261 -0.00362176 0)
(-0.0516518 -0.0215408 0)
(-0.0563809 -0.0157753 0)
(-0.0616084 -0.00973604 0)
(-0.0671298 -0.0034954 0)
(-0.0730575 0.002991 0)
(-0.079454 0.00945164 0)
(-0.0868269 0.015912 0)
(-0.0953792 0.022119 0)
(-0.106509 0.028274 0)
(-0.120293 0.0344354 0)
(-0.139083 0.0409073 0)
(-0.17718 0.0507049 0)
(-0.212977 0.068 0)
(-0.309648 0.142684 0)
(-0.411589 0.29003 0)
(-0.574142 0.389956 0)
(-0.409156 0.119654 0)
(-0.109687 0.0161392 0)
(0.0303698 -0.00178702 0)
(-0.0464214 -0.0173891 0)
(-0.0509329 -0.011409 0)
(-0.055861 -0.00505966 0)
(-0.0611672 0.00156212 0)
(-0.0668955 0.00853481 0)
(-0.0731797 0.0156694 0)
(-0.0804238 0.0230936 0)
(-0.0887905 0.0307857 0)
(-0.0994711 0.0392114 0)
(-0.111732 0.0491166 0)
(-0.126107 0.0615424 0)
(-0.155818 0.0804166 0)
(-0.161898 0.110481 0)
(-0.219814 0.199738 0)
(-0.158878 0.321138 0)
(-0.266569 0.381969 0)
(-0.184991 -0.00685708 0)
(-0.10015 -0.055291 0)
(0.0508712 0.00227998 0)
(-0.040964 -0.0135088 0)
(-0.0452186 -0.00729926 0)
(-0.0498077 -0.000677093 0)
(-0.0547913 0.00626362 0)
(-0.0601774 0.0136803 0)
(-0.0661168 0.0214262 0)
(-0.072864 0.0296983 0)
(-0.0805052 0.0385786 0)
(-0.0898869 0.0485582 0)
(-0.0998777 0.0602823 0)
(-0.107626 0.0746679 0)
(-0.130669 0.0944175 0)
(-0.106579 0.118605 0)
(-0.151733 0.185667 0)
(0.00665944 0.262693 0)
(0.045015 0.432254 0)
(-0.0240931 0.0527217 0)
(-0.106315 -0.0864832 0)
(0.0671747 -0.0218111 0)
(-0.0351985 -0.00988489 0)
(-0.0392159 -0.00341845 0)
(-0.0434944 0.00355695 0)
(-0.0481092 0.0109073 0)
(-0.0532078 0.0188029 0)
(-0.0588186 0.027213 0)
(-0.0651462 0.0361641 0)
(-0.0722688 0.0459136 0)
(-0.0805866 0.0566859 0)
(-0.0892092 0.0690499 0)
(-0.0919311 0.0825088 0)
(-0.113892 0.0963534 0)
(-0.0681568 0.113285 0)
(-0.126314 0.130756 0)
(0.0961414 0.145361 0)
(0.0781969 0.354534 0)
(0.212749 0.162157 0)
(-0.128993 -0.0826391 0)
(0.112299 -0.0326686 0)
(-0.0288408 -0.00662665 0)
(-0.0323829 3.80356e-05 0)
(-0.0363964 0.00713314 0)
(-0.0405887 0.0147639 0)
(-0.0450835 0.022985 0)
(-0.0500805 0.031874 0)
(-0.0556754 0.0415394 0)
(-0.0620254 0.0519758 0)
(-0.0695961 0.0631476 0)
(-0.0777303 0.0752279 0)
(-0.0807436 0.0860508 0)
(-0.101067 0.0914224 0)
(-0.0637861 0.10041 0)
(-0.118485 0.0540818 0)
(0.0387456 0.0938221 0)
(-0.0106795 0.303312 0)
(0.41775 0.227852 0)
(-0.252427 -0.0267856 0)
(0.22655 -0.0359315 0)
(-0.0217157 -0.00338214 0)
(-0.0243703 0.00374268 0)
(-0.0276442 0.011083 0)
(-0.0314503 0.0189472 0)
(-0.0356973 0.0275274 0)
(-0.0403759 0.0369398 0)
(-0.0456584 0.0473631 0)
(-0.0517623 0.0587475 0)
(-0.058898 0.0710082 0)
(-0.0671348 0.083891 0)
(-0.0746038 0.0966694 0)
(-0.0961411 0.101441 0)
(-0.0873343 0.109086 0)
(-0.128718 0.0757339 0)
(-0.0618387 0.0451394 0)
(-0.177908 0.0368147 0)
(0.492698 0.251855 0)
(-0.37895 0.148996 0)
(0.372082 -0.0594964 0)
(-0.017691 -0.00313313 0)
(-0.0180781 0.00520217 0)
(-0.0191823 0.0135026 0)
(-0.0207604 0.0220224 0)
(-0.0225791 0.031025 0)
(-0.0246168 0.0408548 0)
(-0.0269039 0.0518539 0)
(-0.0296147 0.0642526 0)
(-0.0332593 0.0781284 0)
(-0.0382627 0.0933966 0)
(-0.0428121 0.107408 0)
(-0.0584886 0.1086 0)
(-0.0357049 0.120741 0)
(-0.099029 0.0277071 0)
(0.0631805 0.097004 0)
(-0.195747 -0.180728 0)
(0.390173 0.286508 0)
(-0.293647 0.127761 0)
(0.527801 0.0704122 0)
)
;

boundaryField
{
    leftWall
    {
        type            calculated;
        value           nonuniform 0();
    }
    rightWall
    {
        type            calculated;
        value           uniform (0 0 0);
    }
    lowerWall
    {
        type            calculated;
        value           nonuniform 0();
    }
    atmosphere
    {
        type            calculated;
        value           nonuniform List<vector> 
23
(
(-0.0195094 -0.0203981 0)
(-0.0188251 -0.016727 0)
(-0.0183377 -0.0130424 0)
(-0.017951 -0.00934575 0)
(-0.017691 -0.00313522 0)
(-0.0180781 0.00520227 0)
(-0.0191823 0.0135093 0)
(-0.0207604 0.0220328 0)
(-0.0225791 0.0310387 0)
(-0.0246168 0.040872 0)
(-0.0269039 0.0518753 0)
(-0.0296147 0.06428 0)
(-0.0332593 0.0781646 0)
(-0.0382627 0.0934439 0)
(-0.0428121 0.107483 0)
(-0.0584886 0.108575 0)
(-0.0357049 0.120862 0)
(-0.099029 0.0264054 0)
(0.0631805 0.0976332 0)
(-0.195747 -0.182471 0)
(0.390173 0.286787 0)
(-0.293647 0.127324 0)
(0.527801 0.0596183 0)
)
;
    }
    defaultFaces
    {
        type            empty;
    }
    procBoundary3to1
    {
        type            processor;
        value           nonuniform List<vector> 
23
(
(-0.0951751 -0.16105 0)
(-0.0993707 -0.161987 0)
(-0.10225 -0.165247 0)
(-0.109271 -0.168151 0)
(-0.1173 -0.16857 0)
(-0.12927 -0.168907 0)
(-0.142987 -0.161389 0)
(-0.153525 -0.153202 0)
(-0.159564 -0.141599 0)
(-0.160752 -0.122335 0)
(-0.148362 -0.0998473 0)
(-0.105999 -0.0781749 0)
(-0.0722478 -0.0183935 0)
(0.0711782 0.0967384 0)
(0.241432 0.624292 0)
(0.12034 0.948055 0)
(-0.628653 0.48157 0)
(-0.860936 0.427456 0)
(-0.958212 0.508285 0)
(-0.901226 0.492591 0)
(-0.595985 0.134217 0)
(-0.381043 -0.0902973 0)
(-0.199443 0.0398499 0)
)
;
    }
    procBoundary3to2
    {
        type            processor;
        value           nonuniform List<vector> 
25
(
(-0.0883577 -0.1539 0)
(-0.0847532 -0.150178 0)
(-0.0792557 -0.141244 0)
(-0.0830012 -0.133942 0)
(-0.0774264 -0.125444 0)
(-0.0800476 -0.111282 0)
(-0.0769778 -0.105152 0)
(-0.0760411 -0.0961502 0)
(-0.0729642 -0.0893582 0)
(-0.0713441 -0.0807888 0)
(-0.0681214 -0.0752152 0)
(-0.0654964 -0.0682858 0)
(-0.0622954 -0.0628263 0)
(-0.059036 -0.057307 0)
(-0.0555611 -0.0523109 0)
(-0.0519059 -0.0475795 0)
(-0.0480799 -0.0431678 0)
(-0.0440682 -0.0390381 0)
(-0.0398719 -0.0352042 0)
(-0.0354517 -0.0316784 0)
(-0.0307256 -0.0282926 0)
(-0.0257407 -0.0248755 0)
(-0.0222465 -0.0230855 0)
(-0.0205142 -0.0235525 0)
(-0.020435 -0.0259644 0)
)
;
    }
}


// ************************************************************************* //
