/*--------------------------------*- C++ -*----------------------------------*\
| =========                 |                                                 |
| \\      /  F ield         | OpenFOAM: The Open Source CFD Toolbox           |
|  \\    /   O peration     | Version:  2.4.0                                 |
|   \\  /    A nd           | Web:      www.OpenFOAM.org                      |
|    \\/     M anipulation  |                                                 |
\*---------------------------------------------------------------------------*/
FoamFile
{
    version     2.0;
    format      ascii;
    class       volVectorField;
    location    "0.55";
    object      U.air;
}
// * * * * * * * * * * * * * * * * * * * * * * * * * * * * * * * * * * * * * //

dimensions      [0 1 -1 0 0 0 0];

internalField   nonuniform List<vector> 
575
(
(-0.092807 -0.151448 0)
(-0.0961474 -0.152696 0)
(-0.0986394 -0.152878 0)
(-0.104507 -0.152795 0)
(-0.0912609 -0.148259 0)
(-0.0949593 -0.149662 0)
(-0.0985226 -0.148549 0)
(-0.105066 -0.146915 0)
(-0.0852876 -0.136959 0)
(-0.0895941 -0.137846 0)
(-0.0944188 -0.136484 0)
(-0.101353 -0.132833 0)
(-0.090086 -0.127836 0)
(-0.0943255 -0.125238 0)
(-0.0983439 -0.124452 0)
(-0.104074 -0.121568 0)
(-0.0859873 -0.120597 0)
(-0.091196 -0.118405 0)
(-0.0947542 -0.117763 0)
(-0.0990391 -0.114331 0)
(-0.0870451 -0.10815 0)
(-0.0916343 -0.106341 0)
(-0.0946335 -0.107135 0)
(-0.0977318 -0.106127 0)
(-0.0828061 -0.102717 0)
(-0.0868463 -0.100426 0)
(-0.0907736 -0.099554 0)
(-0.0944343 -0.0983571 0)
(-0.0811626 -0.095324 0)
(-0.085321 -0.092642 0)
(-0.0888425 -0.090608 0)
(-0.0919422 -0.0890931 0)
(-0.0789095 -0.0862766 0)
(-0.0825974 -0.0852627 0)
(-0.0862285 -0.0834776 0)
(-0.089421 -0.0822915 0)
(-0.0756421 -0.0806045 0)
(-0.0789189 -0.0784919 0)
(-0.0825969 -0.0769148 0)
(-0.0857567 -0.0750044 0)
(-0.0728628 -0.0726529 0)
(-0.0760616 -0.071631 0)
(-0.0793673 -0.0696885 0)
(-0.0829332 -0.0678933 0)
(-0.0696222 -0.0666197 0)
(-0.0724345 -0.0651332 0)
(-0.0755875 -0.063501 0)
(-0.0788282 -0.0616207 0)
(-0.0662567 -0.0603306 0)
(-0.068942 -0.0589607 0)
(-0.0717374 -0.0572768 0)
(-0.0749854 -0.0554053 0)
(-0.0627224 -0.054791 0)
(-0.0651868 -0.053206 0)
(-0.067758 -0.0515215 0)
(-0.0707696 -0.049661 0)
(-0.0590342 -0.0495422 0)
(-0.0613592 -0.0478391 0)
(-0.063694 -0.0460814 0)
(-0.0664883 -0.0442069 0)
(-0.0551792 -0.0446884 0)
(-0.057369 -0.0428422 0)
(-0.0595337 -0.0409836 0)
(-0.062084 -0.0390572 0)
(-0.0511621 -0.0401504 0)
(-0.0532294 -0.0381926 0)
(-0.0552524 -0.0362196 0)
(-0.0575684 -0.0342139 0)
(-0.0469653 -0.0359054 0)
(-0.0489121 -0.0338475 0)
(-0.0508246 -0.0317584 0)
(-0.0529361 -0.029652 0)
(-0.042586 -0.0319437 0)
(-0.0444031 -0.0297945 0)
(-0.0462114 -0.0275968 0)
(-0.0481446 -0.0253791 0)
(-0.0379819 -0.0282659 0)
(-0.0396801 -0.0260192 0)
(-0.0413918 -0.0237164 0)
(-0.043173 -0.0213876 0)
(-0.0330814 -0.0247881 0)
(-0.0346848 -0.0224704 0)
(-0.0363033 -0.0200891 0)
(-0.0379656 -0.0176638 0)
(-0.0279405 -0.0214615 0)
(-0.0294089 -0.0191331 0)
(-0.0309016 -0.0167129 0)
(-0.0324373 -0.0142094 0)
(-0.0230564 -0.0188284 0)
(-0.0239501 -0.0161655 0)
(-0.025069 -0.0135819 0)
(-0.0263536 -0.0110068 0)
(-0.020328 -0.0184205 0)
(-0.0201747 -0.0151006 0)
(-0.0202908 -0.0118597 0)
(-0.0206082 -0.0086498 0)
(-0.0195094 -0.0203839 0)
(-0.0188251 -0.0167142 0)
(-0.0183377 -0.0130316 0)
(-0.017951 -0.00933736 0)
(-0.112158 -0.15267 0)
(-0.124914 -0.151085 0)
(-0.139129 -0.145758 0)
(-0.151457 -0.140297 0)
(-0.155897 -0.133527 0)
(-0.155026 -0.123885 0)
(-0.140679 -0.120387 0)
(-0.103538 -0.122746 0)
(-0.0816116 -0.0993901 0)
(0.0756855 -0.00394735 0)
(0.133182 0.482777 0)
(0.34821 1.27023 0)
(-0.309122 0.893093 0)
(-0.704156 0.624965 0)
(-0.799392 0.526426 0)
(-0.852999 0.453788 0)
(-0.867318 0.54154 0)
(-0.572492 0.178556 0)
(-0.355643 0.16146 0)
(-0.112775 -0.14639 0)
(-0.125959 -0.144738 0)
(-0.136094 -0.142905 0)
(-0.139807 -0.139573 0)
(-0.147826 -0.13572 0)
(-0.149803 -0.131439 0)
(-0.140153 -0.134993 0)
(-0.12055 -0.154469 0)
(-0.112153 -0.159842 0)
(0.0348479 -0.0863903 0)
(0.0185547 0.321542 0)
(0.400723 1.37544 0)
(0.0676553 1.32488 0)
(-0.336892 0.930051 0)
(-0.472869 0.57232 0)
(-0.311771 0.236335 0)
(-0.235917 -0.272963 0)
(-0.469663 -0.0199053 0)
(-0.145564 -0.169972 0)
(-0.108703 -0.130784 0)
(-0.120116 -0.130107 0)
(-0.133213 -0.129981 0)
(-0.139134 -0.126004 0)
(-0.151772 -0.123104 0)
(-0.155949 -0.128752 0)
(-0.15537 -0.140587 0)
(-0.15338 -0.168377 0)
(-0.155154 -0.192269 0)
(-0.0595993 -0.147939 0)
(-0.140937 0.118007 0)
(0.382902 1.34434 0)
(0.229846 1.52113 0)
(0.0417487 1.21536 0)
(-0.0512363 0.60042 0)
(0.0564297 0.24649 0)
(0.212051 0.0768752 0)
(-0.219306 -0.377387 0)
(-0.00704396 -0.483317 0)
(-0.111396 -0.123482 0)
(-0.120786 -0.123611 0)
(-0.12837 -0.12378 0)
(-0.140422 -0.120455 0)
(-0.1509 -0.118592 0)
(-0.161025 -0.123349 0)
(-0.170946 -0.133006 0)
(-0.189838 -0.156678 0)
(-0.209322 -0.189536 0)
(-0.201335 -0.180372 0)
(-0.31721 -0.00877146 0)
(0.202287 1.19084 0)
(0.257421 1.5233 0)
(0.185823 1.25933 0)
(0.225615 0.613091 0)
(0.202798 0.170739 0)
(0.380295 -0.0302344 0)
(-0.0177561 -0.265579 0)
(-0.0249311 -0.507151 0)
(-0.105933 -0.112915 0)
(-0.117472 -0.114524 0)
(-0.126176 -0.11335 0)
(-0.140129 -0.107173 0)
(-0.152944 -0.106019 0)
(-0.164809 -0.111601 0)
(-0.18372 -0.114532 0)
(-0.213315 -0.127488 0)
(-0.249791 -0.150698 0)
(-0.316518 -0.160117 0)
(-0.44011 -0.051134 0)
(-0.193675 0.806867 0)
(0.24615 1.47082 0)
(0.19947 1.21564 0)
(0.364354 0.572109 0)
(0.319623 0.166899 0)
(0.44325 0.0831209 0)
(-0.0834585 -0.0911166 0)
(-0.0356372 -0.475464 0)
(-0.105153 -0.104912 0)
(-0.115293 -0.104713 0)
(-0.124419 -0.101882 0)
(-0.138644 -0.0970746 0)
(-0.150607 -0.0956099 0)
(-0.166224 -0.0957536 0)
(-0.188981 -0.0915591 0)
(-0.218865 -0.094267 0)
(-0.26362 -0.0984055 0)
(-0.343943 -0.0915018 0)
(-0.462341 -0.0164851 0)
(-0.407702 0.493394 0)
(0.0925745 1.23619 0)
(0.25671 1.05717 0)
(0.443111 0.51375 0)
(0.412255 0.203546 0)
(0.460508 0.207933 0)
(-0.110739 0.0536134 0)
(-0.033318 -0.442607 0)
(-0.100818 -0.0970728 0)
(-0.112529 -0.0954986 0)
(-0.122398 -0.0915021 0)
(-0.134958 -0.0858542 0)
(-0.148068 -0.082175 0)
(-0.162557 -0.0791592 0)
(-0.186542 -0.0702703 0)
(-0.21019 -0.062309 0)
(-0.251509 -0.0507939 0)
(-0.311185 -0.0202774 0)
(-0.3906 0.0460921 0)
(-0.439911 0.29422 0)
(-0.0832039 0.779329 0)
(0.258053 0.795723 0)
(0.463687 0.413821 0)
(0.448806 0.252571 0)
(0.484366 0.341987 0)
(-0.0117876 0.26256 0)
(-0.0301393 -0.418681 0)
(-0.0982383 -0.0871648 0)
(-0.109208 -0.0859057 0)
(-0.118819 -0.0810808 0)
(-0.129818 -0.0758135 0)
(-0.143118 -0.0703538 0)
(-0.155799 -0.0633095 0)
(-0.176879 -0.0517218 0)
(-0.194234 -0.0376368 0)
(-0.224036 -0.0163696 0)
(-0.258506 0.0251973 0)
(-0.285797 0.0890896 0)
(-0.327508 0.241461 0)
(-0.0983627 0.479109 0)
(0.155291 0.532586 0)
(0.41909 0.295774 0)
(0.409237 0.275258 0)
(0.44397 0.488111 0)
(0.0236094 0.479821 0)
(-0.0259664 -0.371982 0)
(-0.0941595 -0.0808075 0)
(-0.105025 -0.076484 0)
(-0.114485 -0.0719972 0)
(-0.12408 -0.0654178 0)
(-0.136713 -0.0589961 0)
(-0.147053 -0.050469 0)
(-0.16339 -0.0373099 0)
(-0.175281 -0.0204789 0)
(-0.193139 0.00316712 0)
(-0.208614 0.0442655 0)
(-0.202321 0.0954458 0)
(-0.215109 0.197661 0)
(-0.0490253 0.31462 0)
(0.0733954 0.314478 0)
(0.32851 0.210752 0)
(0.2573 0.286139 0)
(0.351192 0.653274 0)
(-0.0268312 0.632636 0)
(-0.0138459 -0.339022 0)
(-0.0912655 -0.0714637 0)
(-0.100396 -0.0685301 0)
(-0.109708 -0.0632269 0)
(-0.117973 -0.0565816 0)
(-0.128916 -0.0494702 0)
(-0.137459 -0.040219 0)
(-0.149187 -0.0270561 0)
(-0.156528 -0.0104967 0)
(-0.16514 0.0111558 0)
(-0.167763 0.0462395 0)
(-0.144423 0.082283 0)
(-0.145904 0.146803 0)
(-0.000727274 0.214919 0)
(0.0348042 0.178412 0)
(0.24271 0.159694 0)
(0.124048 0.281149 0)
(0.292449 0.749534 0)
(0.0230461 0.726955 0)
(0.00177554 -0.286906 0)
(-0.0872809 -0.0652344 0)
(-0.0955293 -0.0604976 0)
(-0.104448 -0.0553768 0)
(-0.111578 -0.0486571 0)
(-0.120958 -0.0413769 0)
(-0.127992 -0.0323549 0)
(-0.136015 -0.0203226 0)
(-0.140002 -0.00571388 0)
(-0.142884 0.011695 0)
(-0.137342 0.0387897 0)
(-0.107838 0.0619766 0)
(-0.10966 0.0943893 0)
(0.0244748 0.144143 0)
(0.0182642 0.095776 0)
(0.185787 0.132347 0)
(0.0646322 0.257447 0)
(0.241379 0.784006 0)
(0.0584764 0.775232 0)
(0.00767923 -0.195865 0)
(-0.0834765 -0.0581404 0)
(-0.0907276 -0.0535862 0)
(-0.0989179 -0.0482753 0)
(-0.10539 -0.0417277 0)
(-0.113344 -0.0346114 0)
(-0.119256 -0.0263506 0)
(-0.12488 -0.0160296 0)
(-0.126776 -0.00417989 0)
(-0.126583 0.00818458 0)
(-0.117633 0.0261829 0)
(-0.0874521 0.0405328 0)
(-0.0894753 0.047997 0)
(0.0273036 0.0859991 0)
(0.0147929 0.0390854 0)
(0.154687 0.105215 0)
(0.0546985 0.240756 0)
(0.199803 0.784968 0)
(0.0599 0.795898 0)
(0.0153114 -0.0786763 0)
(-0.0793685 -0.0520931 0)
(-0.0858407 -0.0470649 0)
(-0.0934456 -0.0417929 0)
(-0.099429 -0.035533 0)
(-0.106379 -0.0287975 0)
(-0.111654 -0.021489 0)
(-0.115999 -0.0130402 0)
(-0.117075 -0.00409926 0)
(-0.115928 0.00356523 0)
(-0.107139 0.0130343 0)
(-0.0810346 0.0195735 0)
(-0.0808518 0.0094109 0)
(0.0168242 0.0349561 0)
(0.00881126 -0.00905039 0)
(0.140183 0.0681465 0)
(0.0650951 0.22775 0)
(0.192327 0.757397 0)
(0.109243 0.79145 0)
(0.0486567 0.01911 0)
(-0.0751303 -0.0462175 0)
(-0.0810564 -0.0411174 0)
(-0.0880565 -0.0357972 0)
(-0.0937917 -0.029825 0)
(-0.100128 -0.0235402 0)
(-0.105208 -0.0171413 0)
(-0.109307 -0.0103442 0)
(-0.110735 -0.00397366 0)
(-0.110089 -0.000240733 0)
(-0.104605 0.00192275 0)
(-0.0852966 -0.000687424 0)
(-0.0832184 -0.0204014 0)
(-0.00645802 -0.0113509 0)
(-0.0103685 -0.0619269 0)
(0.115175 0.0168869 0)
(0.0500838 0.222197 0)
(0.15217 0.738078 0)
(0.0990155 0.781032 0)
(0.0892721 0.182816 0)
(-0.070738 -0.0407633 0)
(-0.0762682 -0.0355421 0)
(-0.082778 -0.030179 0)
(-0.0884325 -0.0244211 0)
(-0.0945063 -0.0185117 0)
(-0.0997073 -0.0127155 0)
(-0.104342 -0.00700699 0)
(-0.107233 -0.00275587 0)
(-0.108542 -0.00156576 0)
(-0.107636 -0.00391335 0)
(-0.0987381 -0.0140032 0)
(-0.100168 -0.0407031 0)
(-0.0504333 -0.0532135 0)
(-0.0562338 -0.104948 0)
(0.0424735 -0.0241937 0)
(-0.0365518 0.206159 0)
(0.0593738 0.7379 0)
(0.0533315 0.775121 0)
(0.0195312 0.179041 0)
(-0.0662094 -0.0355599 0)
(-0.0714807 -0.0302566 0)
(-0.0775915 -0.0248099 0)
(-0.0832495 -0.0191588 0)
(-0.0892295 -0.0134132 0)
(-0.0947756 -0.0078865 0)
(-0.100203 -0.00299019 0)
(-0.104942 0.000343518 0)
(-0.109708 0.000865654 0)
(-0.114308 -0.00343659 0)
(-0.115992 -0.0155392 0)
(-0.126578 -0.0426952 0)
(-0.120001 -0.0769969 0)
(-0.136014 -0.111085 0)
(-0.134934 -0.0212671 0)
(-0.248995 0.267557 0)
(-0.162448 0.706082 0)
(-0.0966817 0.756831 0)
(-0.0822598 0.235547 0)
(-0.0615262 -0.0306418 0)
(-0.0666052 -0.0252207 0)
(-0.0724017 -0.0196314 0)
(-0.0780784 -0.0139151 0)
(-0.0840632 -0.00809979 0)
(-0.0900312 -0.00255188 0)
(-0.0964345 0.00237208 0)
(-0.103177 0.00596059 0)
(-0.111128 0.00711692 0)
(-0.120538 0.00439372 0)
(-0.131852 -0.00531875 0)
(-0.156789 -0.0264909 0)
(-0.179808 -0.0588521 0)
(-0.250862 -0.0769419 0)
(-0.343232 0.0345659 0)
(-0.510713 0.348911 0)
(-0.351895 0.665651 0)
(-0.192116 0.663574 0)
(0.0189055 0.00434263 0)
(-0.056684 -0.0259647 0)
(-0.0615931 -0.0203914 0)
(-0.0671009 -0.0146068 0)
(-0.0727461 -0.00867713 0)
(-0.078756 -0.00259075 0)
(-0.0850532 0.00330966 0)
(-0.0921538 0.00885021 0)
(-0.100238 0.0135773 0)
(-0.110607 0.0170573 0)
(-0.123748 0.0183894 0)
(-0.142412 0.0159182 0)
(-0.180008 0.00881363 0)
(-0.223303 -0.00224757 0)
(-0.330931 0.0276255 0)
(-0.500608 0.206394 0)
(-0.654511 0.378522 0)
(-0.601261 0.434981 0)
(-0.190379 0.216219 0)
(0.0331444 -0.0267848 0)
(-0.0516518 -0.0215408 0)
(-0.056381 -0.0157753 0)
(-0.0616085 -0.00973605 0)
(-0.0671299 -0.0034954 0)
(-0.0730576 0.00299101 0)
(-0.0794541 0.00945165 0)
(-0.086827 0.015912 0)
(-0.0953792 0.0221191 0)
(-0.106509 0.028274 0)
(-0.120293 0.0344355 0)
(-0.139083 0.0409073 0)
(-0.17718 0.0507049 0)
(-0.212977 0.068 0)
(-0.309648 0.142684 0)
(-0.41159 0.290032 0)
(-0.57496 0.390977 0)
(-0.425425 0.134269 0)
(-0.137918 0.0108632 0)
(0.00666682 -0.046981 0)
(-0.0464215 -0.0173891 0)
(-0.050933 -0.011409 0)
(-0.055861 -0.00505966 0)
(-0.0611673 0.00156212 0)
(-0.0668956 0.00853482 0)
(-0.0731798 0.0156694 0)
(-0.0804238 0.0230937 0)
(-0.0887906 0.0307857 0)
(-0.0994712 0.0392114 0)
(-0.111732 0.0491167 0)
(-0.126107 0.0615424 0)
(-0.155819 0.0804166 0)
(-0.161898 0.110481 0)
(-0.219814 0.199738 0)
(-0.158878 0.321139 0)
(-0.267013 0.383351 0)
(-0.198606 0.00976435 0)
(-0.137247 -0.0416326 0)
(0.0273318 0.000696342 0)
(-0.0409641 -0.0135088 0)
(-0.0452187 -0.00729927 0)
(-0.0498078 -0.000677094 0)
(-0.0547914 0.00626363 0)
(-0.0601775 0.0136803 0)
(-0.0661168 0.0214262 0)
(-0.0728641 0.0296984 0)
(-0.0805053 0.0385786 0)
(-0.089887 0.0485583 0)
(-0.0998778 0.0602824 0)
(-0.107626 0.074668 0)
(-0.130669 0.0944176 0)
(-0.106579 0.118605 0)
(-0.151733 0.185667 0)
(0.00665945 0.262693 0)
(0.0450998 0.432651 0)
(-0.0212883 0.0637086 0)
(-0.138951 -0.0721712 0)
(0.0273962 -0.0139849 0)
(-0.0351985 -0.0098849 0)
(-0.0392159 -0.00341845 0)
(-0.0434945 0.00355696 0)
(-0.0481093 0.0109073 0)
(-0.0532079 0.0188029 0)
(-0.0588187 0.0272131 0)
(-0.0651463 0.0361641 0)
(-0.0722689 0.0459137 0)
(-0.0805867 0.056686 0)
(-0.0892093 0.06905 0)
(-0.0919312 0.0825089 0)
(-0.113892 0.0963534 0)
(-0.0681569 0.113285 0)
(-0.126314 0.130757 0)
(0.0961414 0.145361 0)
(0.0782016 0.354548 0)
(0.213909 0.163648 0)
(-0.157409 -0.077638 0)
(0.0637872 -0.032456 0)
(-0.0288408 -0.00662666 0)
(-0.032383 3.80356e-05 0)
(-0.0363964 0.00713315 0)
(-0.0405887 0.0147639 0)
(-0.0450836 0.022985 0)
(-0.0500806 0.0318741 0)
(-0.0556755 0.0415395 0)
(-0.0620255 0.0519759 0)
(-0.0695962 0.0631477 0)
(-0.0777304 0.075228 0)
(-0.0807437 0.0860509 0)
(-0.101067 0.0914225 0)
(-0.0637861 0.10041 0)
(-0.118485 0.0540818 0)
(0.0387456 0.0938221 0)
(-0.0106795 0.303311 0)
(0.417776 0.227877 0)
(-0.291925 -0.0228751 0)
(0.124087 -0.0166168 0)
(-0.0217157 -0.00338214 0)
(-0.0243703 0.00374268 0)
(-0.0276443 0.011083 0)
(-0.0314503 0.0189472 0)
(-0.0356974 0.0275274 0)
(-0.0403759 0.0369399 0)
(-0.0456585 0.0473632 0)
(-0.0517624 0.0587476 0)
(-0.0588981 0.0710083 0)
(-0.0671348 0.0838911 0)
(-0.0746038 0.0966695 0)
(-0.0961411 0.101441 0)
(-0.0873344 0.109086 0)
(-0.128718 0.0757339 0)
(-0.0618387 0.0451394 0)
(-0.177908 0.0368147 0)
(0.492698 0.251855 0)
(-0.386101 0.152019 0)
(0.348829 -0.025217 0)
(-0.017691 -0.00313314 0)
(-0.0180781 0.00520217 0)
(-0.0191823 0.0135026 0)
(-0.0207604 0.0220224 0)
(-0.0225791 0.031025 0)
(-0.0246169 0.0408548 0)
(-0.0269039 0.051854 0)
(-0.0296147 0.0642527 0)
(-0.0332594 0.0781285 0)
(-0.0382627 0.0933967 0)
(-0.0428121 0.107409 0)
(-0.0584886 0.1086 0)
(-0.0357049 0.120741 0)
(-0.099029 0.0277071 0)
(0.0631805 0.097004 0)
(-0.195747 -0.180728 0)
(0.390173 0.286508 0)
(-0.293895 0.127838 0)
(0.520313 0.0845663 0)
)
;

boundaryField
{
    leftWall
    {
        type            fixedValue;
        value           nonuniform 0();
    }
    rightWall
    {
        type            fixedValue;
        value           uniform (0 0 0);
    }
    lowerWall
    {
        type            fixedValue;
        value           nonuniform 0();
    }
    atmosphere
    {
        type            fluxCorrectedVelocity;
        value           nonuniform List<vector> 
23
(
(-0.0195094 -0.0203981 0)
(-0.0188251 -0.016727 0)
(-0.0183377 -0.0130424 0)
(-0.017951 -0.00934575 0)
(-0.017691 -0.00313522 0)
(-0.0180781 0.00520227 0)
(-0.0191823 0.0135093 0)
(-0.0207604 0.0220329 0)
(-0.0225791 0.0310387 0)
(-0.0246169 0.040872 0)
(-0.0269039 0.0518753 0)
(-0.0296147 0.06428 0)
(-0.0332594 0.0781646 0)
(-0.0382627 0.0934439 0)
(-0.0428121 0.107483 0)
(-0.0584886 0.108575 0)
(-0.0357049 0.120862 0)
(-0.099029 0.0264054 0)
(0.0631805 0.0976332 0)
(-0.195747 -0.182471 0)
(0.390173 0.286786 0)
(-0.293895 0.127324 0)
(0.520313 0.0596182 0)
)
;
    }
    defaultFaces
    {
        type            empty;
    }
    procBoundary3to1
    {
        type            processor;
        value           nonuniform List<vector> 
23
(
(-0.0951751 -0.16105 0)
(-0.0993708 -0.161987 0)
(-0.10225 -0.165247 0)
(-0.109272 -0.168151 0)
(-0.1173 -0.16857 0)
(-0.12927 -0.168908 0)
(-0.142987 -0.16139 0)
(-0.153525 -0.153202 0)
(-0.159564 -0.1416 0)
(-0.160752 -0.122335 0)
(-0.148362 -0.0998473 0)
(-0.105999 -0.0781748 0)
(-0.0722478 -0.0183935 0)
(0.0711781 0.0967382 0)
(0.241432 0.624291 0)
(0.120344 0.948054 0)
(-0.627838 0.48165 0)
(-0.850538 0.430777 0)
(-0.953554 0.555292 0)
(-0.952118 0.748231 0)
(-0.819689 0.596087 0)
(-0.650237 0.514889 0)
(-0.296757 0.448569 0)
)
;
    }
    procBoundary3to2
    {
        type            processor;
        value           nonuniform List<vector> 
25
(
(-0.0883577 -0.1539 0)
(-0.0847533 -0.150178 0)
(-0.0792557 -0.141244 0)
(-0.0830012 -0.133942 0)
(-0.0774264 -0.125444 0)
(-0.0800477 -0.111282 0)
(-0.0769779 -0.105152 0)
(-0.0760413 -0.0961504 0)
(-0.0729644 -0.0893584 0)
(-0.0713443 -0.080789 0)
(-0.0681216 -0.0752154 0)
(-0.0654966 -0.068286 0)
(-0.0622955 -0.0628265 0)
(-0.0590361 -0.0573071 0)
(-0.0555612 -0.052311 0)
(-0.0519059 -0.0475796 0)
(-0.0480799 -0.0431678 0)
(-0.0440682 -0.0390381 0)
(-0.039872 -0.0352042 0)
(-0.0354517 -0.0316785 0)
(-0.0307256 -0.0282926 0)
(-0.0257407 -0.0248755 0)
(-0.0222465 -0.0230855 0)
(-0.0205143 -0.0235525 0)
(-0.020435 -0.0259644 0)
)
;
    }
}


// ************************************************************************* //
