/*--------------------------------*- C++ -*----------------------------------*\
| =========                 |                                                 |
| \\      /  F ield         | OpenFOAM: The Open Source CFD Toolbox           |
|  \\    /   O peration     | Version:  2.4.0                                 |
|   \\  /    A nd           | Web:      www.OpenFOAM.org                      |
|    \\/     M anipulation  |                                                 |
\*---------------------------------------------------------------------------*/
FoamFile
{
    version     2.0;
    format      ascii;
    class       volVectorField;
    location    "0.55";
    object      U.mercury;
}
// * * * * * * * * * * * * * * * * * * * * * * * * * * * * * * * * * * * * * //

dimensions      [0 1 -1 0 0 0 0];

internalField   nonuniform List<vector> 
575
(
(-0.0928211 -0.151414 0)
(-0.0961648 -0.15266 0)
(-0.0986595 -0.152841 0)
(-0.104528 -0.152755 0)
(-0.0912723 -0.148229 0)
(-0.0949733 -0.149631 0)
(-0.0985383 -0.148516 0)
(-0.105083 -0.14688 0)
(-0.085296 -0.136931 0)
(-0.0896049 -0.137816 0)
(-0.0944312 -0.136453 0)
(-0.101366 -0.132801 0)
(-0.0900919 -0.127811 0)
(-0.0943335 -0.125212 0)
(-0.0983535 -0.124423 0)
(-0.104084 -0.121539 0)
(-0.0859913 -0.120573 0)
(-0.0912016 -0.11838 0)
(-0.0947611 -0.117737 0)
(-0.0990468 -0.114304 0)
(-0.0870472 -0.108128 0)
(-0.0916382 -0.106318 0)
(-0.0946387 -0.107111 0)
(-0.0977375 -0.106102 0)
(-0.0828071 -0.102696 0)
(-0.0868485 -0.100404 0)
(-0.0907769 -0.0995319 0)
(-0.0944386 -0.0983343 0)
(-0.0811621 -0.0953048 0)
(-0.0853221 -0.0926222 0)
(-0.088845 -0.0905877 0)
(-0.0919453 -0.0890723 0)
(-0.0789084 -0.0862587 0)
(-0.0825973 -0.0852444 0)
(-0.0862296 -0.083459 0)
(-0.0894231 -0.0822724 0)
(-0.0756399 -0.080588 0)
(-0.0789185 -0.0784751 0)
(-0.0825976 -0.0768976 0)
(-0.0857579 -0.0749869 0)
(-0.0728605 -0.0726377 0)
(-0.0760601 -0.0716155 0)
(-0.0793668 -0.0696727 0)
(-0.0829338 -0.0678772 0)
(-0.069619 -0.0666056 0)
(-0.0724329 -0.0651189 0)
(-0.0755869 -0.0634865 0)
(-0.0788281 -0.0616059 0)
(-0.0662537 -0.0603175 0)
(-0.0689395 -0.0589474 0)
(-0.0717358 -0.0572634 0)
(-0.0749847 -0.0553916 0)
(-0.0627186 -0.0547788 0)
(-0.0651847 -0.0531937 0)
(-0.0677566 -0.0515091 0)
(-0.0707684 -0.0496484 0)
(-0.059031 -0.0495309 0)
(-0.0613563 -0.0478278 0)
(-0.0636918 -0.04607 0)
(-0.0664869 -0.0441954 0)
(-0.0551753 -0.044678 0)
(-0.0573665 -0.0428318 0)
(-0.0595319 -0.0409731 0)
(-0.0620824 -0.0390467 0)
(-0.0511589 -0.0401407 0)
(-0.0532264 -0.0381829 0)
(-0.05525 -0.03621 0)
(-0.0575669 -0.0342044 0)
(-0.0469615 -0.0358967 0)
(-0.0489099 -0.0338389 0)
(-0.050823 -0.0317498 0)
(-0.0529348 -0.0296435 0)
(-0.0425831 -0.031936 0)
(-0.0444002 -0.0297869 0)
(-0.0462093 -0.0275893 0)
(-0.0481438 -0.0253718 0)
(-0.0379782 -0.0282596 0)
(-0.0396782 -0.0260128 0)
(-0.0413908 -0.0237101 0)
(-0.0431724 -0.0213814 0)
(-0.0330788 -0.024783 0)
(-0.0346821 -0.0224653 0)
(-0.0363017 -0.0200841 0)
(-0.0379654 -0.0176588 0)
(-0.0279373 -0.0214576 0)
(-0.0294071 -0.0191293 0)
(-0.0309008 -0.0167091 0)
(-0.0324371 -0.0142055 0)
(-0.0230543 -0.0188254 0)
(-0.0239477 -0.0161627 0)
(-0.0250674 -0.0135793 0)
(-0.0263536 -0.0110046 0)
(-0.0203258 -0.0184199 0)
(-0.0201737 -0.0151006 0)
(-0.0202912 -0.0118604 0)
(-0.0206095 -0.00865095 0)
(-0.0195084 -0.0203891 0)
(-0.0188255 -0.0167198 0)
(-0.0183384 -0.0130372 0)
(-0.0179522 -0.00934238 0)
(-0.112179 -0.152627 0)
(-0.124933 -0.151035 0)
(-0.139146 -0.145701 0)
(-0.15147 -0.140237 0)
(-0.155907 -0.133475 0)
(-0.155039 -0.123896 0)
(-0.140709 -0.120629 0)
(-0.103694 -0.123631 0)
(-0.0820611 -0.101985 0)
(0.0750112 -0.00985193 0)
(0.129467 0.466921 0)
(0.344683 1.25996 0)
(-0.314879 0.888609 0)
(-0.829533 0.608373 0)
(-0.991146 0.457709 0)
(-0.905768 0.357419 0)
(-0.261935 -0.339185 0)
(-0.14331 -0.441075 0)
(-0.0783799 -0.286886 0)
(-0.112792 -0.146351 0)
(-0.125972 -0.144694 0)
(-0.136104 -0.142856 0)
(-0.139814 -0.13952 0)
(-0.14783 -0.135668 0)
(-0.14981 -0.131418 0)
(-0.140183 -0.135123 0)
(-0.120739 -0.15509 0)
(-0.112691 -0.161836 0)
(0.0330976 -0.0912466 0)
(0.0131655 0.306486 0)
(0.397124 1.36 0)
(0.0669972 1.31958 0)
(-0.341701 0.925759 0)
(-0.478813 0.568367 0)
(-0.332603 0.240975 0)
(-0.207313 -0.305018 0)
(-0.0170968 -0.547158 0)
(-0.00880895 -0.488417 0)
(-0.108715 -0.13075 0)
(-0.120125 -0.130068 0)
(-0.133218 -0.129938 0)
(-0.139135 -0.125957 0)
(-0.151771 -0.123056 0)
(-0.15595 -0.128718 0)
(-0.155393 -0.140639 0)
(-0.153543 -0.168774 0)
(-0.155577 -0.19351 0)
(-0.0627736 -0.151464 0)
(-0.147879 0.106071 0)
(0.381655 1.3316 0)
(0.229153 1.51796 0)
(0.0377592 1.213 0)
(-0.0524972 0.599406 0)
(0.0641801 0.244622 0)
(0.22109 0.0739748 0)
(-0.0937433 -0.513611 0)
(0.00172841 -0.553622 0)
(-0.111406 -0.12345 0)
(-0.120792 -0.123576 0)
(-0.128372 -0.123742 0)
(-0.14042 -0.120414 0)
(-0.150895 -0.118549 0)
(-0.161022 -0.123311 0)
(-0.170958 -0.133008 0)
(-0.189942 -0.156879 0)
(-0.209759 -0.190205 0)
(-0.205024 -0.182199 0)
(-0.320767 -0.008389 0)
(0.20653 1.18897 0)
(0.256217 1.51891 0)
(0.184325 1.26275 0)
(0.226158 0.616073 0)
(0.210566 0.173882 0)
(0.385781 -0.0289242 0)
(0.0094943 -0.318543 0)
(-0.0114371 -0.506989 0)
(-0.10594 -0.112886 0)
(-0.117476 -0.114493 0)
(-0.126175 -0.113317 0)
(-0.140125 -0.107137 0)
(-0.152938 -0.105982 0)
(-0.164804 -0.111564 0)
(-0.183723 -0.114509 0)
(-0.213358 -0.127546 0)
(-0.25009 -0.151017 0)
(-0.318352 -0.160579 0)
(-0.440691 -0.0443658 0)
(-0.188774 0.81345 0)
(0.246096 1.47295 0)
(0.198856 1.22195 0)
(0.364048 0.577109 0)
(0.324153 0.169067 0)
(0.446245 0.0828859 0)
(-0.0642582 -0.127653 0)
(-0.0155022 -0.474833 0)
(-0.105158 -0.104886 0)
(-0.115295 -0.104685 0)
(-0.124417 -0.101852 0)
(-0.138639 -0.0970435 0)
(-0.1506 -0.0955776 0)
(-0.166218 -0.0957207 0)
(-0.188979 -0.0915294 0)
(-0.218879 -0.0942623 0)
(-0.263721 -0.0985101 0)
(-0.344483 -0.0916848 0)
(-0.462324 -0.0129596 0)
(-0.401883 0.501601 0)
(0.0969584 1.24533 0)
(0.254582 1.06263 0)
(0.44103 0.517662 0)
(0.414054 0.204509 0)
(0.461897 0.206863 0)
(-0.104353 0.0405089 0)
(-0.0164238 -0.449217 0)
(-0.100821 -0.097049 0)
(-0.11253 -0.0954735 0)
(-0.122395 -0.0914757 0)
(-0.134952 -0.0858267 0)
(-0.14806 -0.0821465 0)
(-0.16255 -0.0791301 0)
(-0.186538 -0.0702411 0)
(-0.210194 -0.0622841 0)
(-0.251532 -0.0507983 0)
(-0.311279 -0.0203697 0)
(-0.390641 0.0464001 0)
(-0.436616 0.297097 0)
(-0.0792569 0.785538 0)
(0.256254 0.797077 0)
(0.461461 0.414819 0)
(0.448745 0.251707 0)
(0.484842 0.339695 0)
(-0.00949579 0.256859 0)
(-0.0162576 -0.429673 0)
(-0.0982407 -0.0871431 0)
(-0.109208 -0.085883 0)
(-0.118815 -0.081057 0)
(-0.12981 -0.0757889 0)
(-0.143109 -0.0703286 0)
(-0.155791 -0.0632839 0)
(-0.176875 -0.0516957 0)
(-0.194236 -0.0376102 0)
(-0.224045 -0.0163465 0)
(-0.258524 0.0251916 0)
(-0.285837 0.0890141 0)
(-0.327077 0.241177 0)
(-0.0975597 0.479925 0)
(0.155091 0.532232 0)
(0.418236 0.295191 0)
(0.409023 0.274158 0)
(0.444283 0.486096 0)
(0.0250252 0.475512 0)
(-0.0143169 -0.389621 0)
(-0.094161 -0.0807877 0)
(-0.105024 -0.0764633 0)
(-0.114481 -0.0719756 0)
(-0.124073 -0.0653956 0)
(-0.136704 -0.0589736 0)
(-0.147045 -0.0504464 0)
(-0.163386 -0.0372871 0)
(-0.175281 -0.0204553 0)
(-0.193144 0.00319205 0)
(-0.208624 0.0442877 0)
(-0.202338 0.0954352 0)
(-0.21512 0.197482 0)
(-0.049109 0.314202 0)
(0.0734252 0.314107 0)
(0.328373 0.210387 0)
(0.257346 0.285697 0)
(0.351493 0.652319 0)
(-0.026024 0.629255 0)
(-0.00818543 -0.361512 0)
(-0.0912662 -0.0714455 0)
(-0.100394 -0.068511 0)
(-0.109703 -0.0632073 0)
(-0.117965 -0.0565615 0)
(-0.128906 -0.0494502 0)
(-0.137451 -0.0401993 0)
(-0.149182 -0.0270365 0)
(-0.156527 -0.0104766 0)
(-0.165143 0.0111775 0)
(-0.16777 0.0462634 0)
(-0.144433 0.082305 0)
(-0.145917 0.146796 0)
(-0.000763433 0.214804 0)
(0.0347897 0.178264 0)
(0.242689 0.159631 0)
(0.124037 0.281121 0)
(0.292677 0.74891 0)
(0.0230876 0.724417 0)
(0.00011033 -0.310352 0)
(-0.0872807 -0.0652177 0)
(-0.0955269 -0.0604802 0)
(-0.104442 -0.0553588 0)
(-0.11157 -0.0486391 0)
(-0.120949 -0.0413592 0)
(-0.127984 -0.0323378 0)
(-0.13601 -0.020306 0)
(-0.140001 -0.00569686 0)
(-0.142885 0.0117134 0)
(-0.137346 0.0388104 0)
(-0.107846 0.0619998 0)
(-0.109671 0.0944115 0)
(0.0244608 0.144147 0)
(0.0182487 0.0957796 0)
(0.185771 0.132369 0)
(0.064617 0.257477 0)
(0.241527 0.783641 0)
(0.0583854 0.772679 0)
(0.00726686 -0.21979 0)
(-0.0834758 -0.0581251 0)
(-0.0907247 -0.0535703 0)
(-0.0989122 -0.0482591 0)
(-0.105382 -0.0417117 0)
(-0.113336 -0.034596 0)
(-0.119249 -0.0263361 0)
(-0.124875 -0.0160156 0)
(-0.126773 -0.00416562 0)
(-0.126583 0.00820014 0)
(-0.117635 0.0262002 0)
(-0.0874569 0.0405525 0)
(-0.0894836 0.0480185 0)
(0.0272923 0.0860214 0)
(0.0147792 0.0391101 0)
(0.154674 0.105242 0)
(0.0546854 0.240782 0)
(0.199907 0.784705 0)
(0.0594547 0.784899 0)
(0.0143879 -0.116489 0)
(-0.0793672 -0.052079 0)
(-0.0858375 -0.0470504 0)
(-0.09344 -0.0417783 0)
(-0.0994217 -0.0355189 0)
(-0.106372 -0.0287843 0)
(-0.111648 -0.0214768 0)
(-0.115995 -0.0130285 0)
(-0.117071 -0.00408725 0)
(-0.115926 0.00357833 0)
(-0.10714 0.0130489 0)
(-0.0810378 0.01959 0)
(-0.0808584 0.00942907 0)
(0.0168143 0.0349759 0)
(0.00879923 -0.00902899 0)
(0.14017 0.0681616 0)
(0.0650836 0.227766 0)
(0.192395 0.757248 0)
(0.101042 0.706476 0)
(0.0264693 -0.0352117 0)
(-0.0751288 -0.0462047 0)
(-0.0810531 -0.0411042 0)
(-0.0880512 -0.0357843 0)
(-0.0937851 -0.0298129 0)
(-0.100121 -0.0235292 0)
(-0.105202 -0.0171312 0)
(-0.109303 -0.0103346 0)
(-0.110731 -0.00396359 0)
(-0.110086 -0.000229766 0)
(-0.104604 0.00193503 0)
(-0.0852984 -0.000673553 0)
(-0.0832235 -0.0203859 0)
(-0.00646652 -0.0113337 0)
(-0.010379 -0.0619087 0)
(0.114274 0.0139788 0)
(0.0501138 0.221534 0)
(0.152232 0.737295 0)
(0.0829362 0.601924 0)
(0.0491022 0.0650548 0)
(-0.0707361 -0.0407516 0)
(-0.076265 -0.0355304 0)
(-0.0827732 -0.0301678 0)
(-0.0884269 -0.0244108 0)
(-0.0945006 -0.0185026 0)
(-0.0997021 -0.0127073 0)
(-0.104337 -0.00699902 0)
(-0.107228 -0.00274748 0)
(-0.108538 -0.00155657 0)
(-0.107634 -0.00390313 0)
(-0.0987388 -0.0139916 0)
(-0.100172 -0.0406898 0)
(-0.0504399 -0.0531986 0)
(-0.0562429 -0.104937 0)
(0.0397975 -0.0315665 0)
(-0.0383357 0.180522 0)
(0.0595065 0.736946 0)
(0.0502087 0.651027 0)
(0.0203467 0.157901 0)
(-0.0662075 -0.0355493 0)
(-0.0714778 -0.0302463 0)
(-0.0775875 -0.0248002 0)
(-0.0832447 -0.0191502 0)
(-0.0892247 -0.0134057 0)
(-0.0947708 -0.00787987 0)
(-0.100198 -0.00298369 0)
(-0.104937 0.000350264 0)
(-0.109703 0.000873063 0)
(-0.114305 -0.00342834 0)
(-0.115991 -0.0155299 0)
(-0.12658 -0.0426842 0)
(-0.120005 -0.0769842 0)
(-0.136023 -0.111094 0)
(-0.135686 -0.0274873 0)
(-0.241696 0.225757 0)
(-0.161924 0.704907 0)
(-0.0924878 0.732207 0)
(-0.0802892 0.233248 0)
(-0.0615246 -0.0306325 0)
(-0.0666028 -0.0252118 0)
(-0.0723984 -0.0196233 0)
(-0.0780747 -0.0139081 0)
(-0.0840592 -0.00809376 0)
(-0.0900268 -0.00254649 0)
(-0.0964296 0.00237729 0)
(-0.103172 0.00596595 0)
(-0.111123 0.00712262 0)
(-0.120534 0.00439982 0)
(-0.13185 -0.00531185 0)
(-0.156789 -0.0264828 0)
(-0.17981 -0.0588425 0)
(-0.250866 -0.0769378 0)
(-0.341478 0.0292248 0)
(-0.482331 0.284831 0)
(-0.34544 0.64469 0)
(-0.18076 0.639131 0)
(0.0195007 0.0540476 0)
(-0.0566828 -0.0259565 0)
(-0.0615914 -0.0203837 0)
(-0.0670985 -0.0146 0)
(-0.0727432 -0.00867133 0)
(-0.0787527 -0.00258587 0)
(-0.0850492 0.00331407 0)
(-0.0921489 0.0088543 0)
(-0.100233 0.0135814 0)
(-0.110602 0.0170612 0)
(-0.123744 0.0183932 0)
(-0.142409 0.0159221 0)
(-0.180007 0.00881752 0)
(-0.223301 -0.00224391 0)
(-0.33093 0.0276277 0)
(-0.499915 0.205428 0)
(-0.57996 0.289596 0)
(-0.406406 0.139362 0)
(-0.0590142 0.16286 0)
(0.0320265 0.0916732 0)
(-0.0516511 -0.0215338 0)
(-0.0563799 -0.0157689 0)
(-0.0616069 -0.00973043 0)
(-0.0671278 -0.00349064 0)
(-0.0730549 0.0029951 0)
(-0.0794504 0.00945523 0)
(-0.0868225 0.0159153 0)
(-0.0953742 0.0221219 0)
(-0.106504 0.0282762 0)
(-0.12029 0.0344371 0)
(-0.139081 0.0409078 0)
(-0.177179 0.0507041 0)
(-0.212975 0.0679972 0)
(-0.309646 0.142676 0)
(-0.411248 0.289446 0)
(-0.444802 0.228772 0)
(-0.182487 -0.0839321 0)
(-0.0579022 0.0258384 0)
(0.0354974 0.00800787 0)
(-0.0464212 -0.0173832 0)
(-0.0509325 -0.0114036 0)
(-0.0558601 -0.00505493 0)
(-0.0611659 0.00156616 0)
(-0.0668934 0.00853835 0)
(-0.0731766 0.0156724 0)
(-0.0804197 0.0230962 0)
(-0.0887861 0.0307875 0)
(-0.0994673 0.0392124 0)
(-0.111729 0.0491167 0)
(-0.126107 0.061541 0)
(-0.15582 0.0804134 0)
(-0.1619 0.110475 0)
(-0.219818 0.199728 0)
(-0.158858 0.320883 0)
(-0.210168 0.206595 0)
(-0.102553 -0.107485 0)
(-0.0865306 -0.0602835 0)
(0.0512188 0.00230501 0)
(-0.0409641 -0.013504 0)
(-0.0452186 -0.00729476 0)
(-0.0498074 -0.000673057 0)
(-0.0547904 0.00626722 0)
(-0.0601757 0.0136835 0)
(-0.0661141 0.0214289 0)
(-0.0728605 0.0297004 0)
(-0.0805015 0.0385799 0)
(-0.0898839 0.0485586 0)
(-0.0998764 0.0602817 0)
(-0.107626 0.0746661 0)
(-0.130672 0.0944147 0)
(-0.106583 0.1186 0)
(-0.151742 0.185662 0)
(0.00664619 0.262687 0)
(0.0256979 0.341954 0)
(-0.0599976 -0.0879012 0)
(-0.0901215 -0.0935588 0)
(0.0677271 -0.0219176 0)
(-0.0351987 -0.00988127 0)
(-0.0392161 -0.00341505 0)
(-0.0434944 0.00356009 0)
(-0.0481087 0.0109102 0)
(-0.0532065 0.0188053 0)
(-0.0588164 0.0272151 0)
(-0.0651434 0.0361654 0)
(-0.0722659 0.0459143 0)
(-0.0805844 0.0566857 0)
(-0.0892086 0.069049 0)
(-0.0919322 0.0825074 0)
(-0.113895 0.096352 0)
(-0.0681613 0.113284 0)
(-0.126322 0.130757 0)
(0.0961295 0.145364 0)
(0.0767413 0.350221 0)
(0.113485 0.0344766 0)
(-0.0939482 -0.088783 0)
(0.112972 -0.0326692 0)
(-0.0288413 -0.00662503 0)
(-0.0323834 3.93846e-05 0)
(-0.0363965 0.00713439 0)
(-0.0405884 0.014765 0)
(-0.0450826 0.0229858 0)
(-0.0500789 0.0318743 0)
(-0.0556733 0.041539 0)
(-0.0620232 0.0519746 0)
(-0.0695945 0.0631456 0)
(-0.0777299 0.0752255 0)
(-0.0807444 0.0860484 0)
(-0.101069 0.0914206 0)
(-0.0637893 0.100409 0)
(-0.118491 0.0540835 0)
(0.0387379 0.0938262 0)
(-0.010695 0.303318 0)
(0.409273 0.220151 0)
(-0.0863419 -0.0432075 0)
(0.227962 -0.0361944 0)
(-0.021717 -0.00338358 0)
(-0.0243709 0.00374132 0)
(-0.0276445 0.0110817 0)
(-0.0314501 0.0189459 0)
(-0.0356967 0.0275258 0)
(-0.0403748 0.0369377 0)
(-0.045657 0.0473602 0)
(-0.0517608 0.0587436 0)
(-0.0588969 0.0710034 0)
(-0.0671343 0.0838857 0)
(-0.074604 0.0966641 0)
(-0.0961421 0.101436 0)
(-0.0873361 0.109083 0)
(-0.128721 0.0757322 0)
(-0.0618434 0.0451409 0)
(-0.177915 0.0368168 0)
(0.492688 0.251864 0)
(-0.193411 0.0705539 0)
(0.375533 -0.0645693 0)
(-0.0176918 -0.00313702 0)
(-0.0180784 0.00519896 0)
(-0.0191824 0.0134997 0)
(-0.0207604 0.0220196 0)
(-0.0225789 0.0310218 0)
(-0.0246164 0.040851 0)
(-0.0269034 0.0518492 0)
(-0.0296141 0.0642468 0)
(-0.0332589 0.0781216 0)
(-0.0382624 0.0933892 0)
(-0.0428119 0.107401 0)
(-0.0584887 0.108592 0)
(-0.0357052 0.120735 0)
(-0.09903 0.0277018 0)
(0.0631785 0.0970022 0)
(-0.195748 -0.180732 0)
(0.390165 0.286516 0)
(-0.259348 0.117213 0)
(0.536541 0.0539048 0)
)
;

boundaryField
{
    leftWall
    {
        type            fixedValue;
        value           nonuniform 0();
    }
    rightWall
    {
        type            fixedValue;
        value           uniform (0 0 0);
    }
    lowerWall
    {
        type            fixedValue;
        value           nonuniform 0();
    }
    atmosphere
    {
        type            fluxCorrectedVelocity;
        value           nonuniform List<vector> 
23
(
(-0.0195084 -0.0203981 0)
(-0.0188255 -0.016727 0)
(-0.0183384 -0.0130424 0)
(-0.0179522 -0.00934575 0)
(-0.0176918 -0.00313522 0)
(-0.0180784 0.00520227 0)
(-0.0191824 0.0135093 0)
(-0.0207604 0.0220329 0)
(-0.0225789 0.0310387 0)
(-0.0246164 0.040872 0)
(-0.0269034 0.0518753 0)
(-0.0296141 0.06428 0)
(-0.0332589 0.0781646 0)
(-0.0382624 0.0934439 0)
(-0.0428119 0.107483 0)
(-0.0584887 0.108575 0)
(-0.0357052 0.120862 0)
(-0.09903 0.0264054 0)
(0.0631785 0.0976332 0)
(-0.195748 -0.182471 0)
(0.390165 0.286786 0)
(-0.259348 0.127324 0)
(0.536541 0.0596182 0)
)
;
    }
    defaultFaces
    {
        type            empty;
    }
    procBoundary3to1
    {
        type            processor;
        value           nonuniform List<vector> 
23
(
(-0.0951945 -0.161014 0)
(-0.0993926 -0.161948 0)
(-0.102274 -0.165207 0)
(-0.109298 -0.168108 0)
(-0.117326 -0.168522 0)
(-0.129296 -0.168853 0)
(-0.143011 -0.161328 0)
(-0.153546 -0.15314 0)
(-0.159583 -0.141564 0)
(-0.16077 -0.122415 0)
(-0.148391 -0.100268 0)
(-0.106067 -0.0793992 0)
(-0.0724413 -0.0213946 0)
(0.0715526 0.090026 0)
(0.239553 0.609181 0)
(0.114843 0.940047 0)
(-0.804404 0.462292 0)
(-1.06294 0.362505 0)
(-0.973585 0.376277 0)
(-0.882604 0.343556 0)
(-0.581927 0.0875979 0)
(-0.380573 -0.0898457 0)
(-0.198477 0.0384111 0)
)
;
    }
    procBoundary3to2
    {
        type            processor;
        value           nonuniform List<vector> 
25
(
(-0.0883707 -0.153869 0)
(-0.0847628 -0.15015 0)
(-0.0792626 -0.141218 0)
(-0.0830058 -0.133917 0)
(-0.0774294 -0.125422 0)
(-0.080049 -0.11126 0)
(-0.0769779 -0.105132 0)
(-0.0760401 -0.0961319 0)
(-0.0729625 -0.0893411 0)
(-0.0713416 -0.080773 0)
(-0.0681185 -0.0752005 0)
(-0.065493 -0.0682721 0)
(-0.0622919 -0.0628135 0)
(-0.0590321 -0.0572951 0)
(-0.0555573 -0.0522997 0)
(-0.0519018 -0.0475691 0)
(-0.0480762 -0.0431581 0)
(-0.0440643 -0.0390293 0)
(-0.0398685 -0.0351965 0)
(-0.0354482 -0.0316719 0)
(-0.0307228 -0.0282872 0)
(-0.0257381 -0.0248714 0)
(-0.0222449 -0.023082 0)
(-0.0205121 -0.023552 0)
(-0.0204334 -0.0259679 0)
)
;
    }
}


// ************************************************************************* //
