/*--------------------------------*- C++ -*----------------------------------*\
| =========                 |                                                 |
| \\      /  F ield         | OpenFOAM: The Open Source CFD Toolbox           |
|  \\    /   O peration     | Version:  2.4.0                                 |
|   \\  /    A nd           | Web:      www.OpenFOAM.org                      |
|    \\/     M anipulation  |                                                 |
\*---------------------------------------------------------------------------*/
FoamFile
{
    version     2.0;
    format      ascii;
    class       volScalarField;
    location    "0.1";
    object      alpha.oil;
}
// * * * * * * * * * * * * * * * * * * * * * * * * * * * * * * * * * * * * * //

dimensions      [0 0 0 0 0 0 0];

internalField   nonuniform List<scalar> 
575
(
4.01738e-05
6.79095e-08
4.34566e-08
3.53007e-08
1.13478e-05
7.55253e-08
1.84793e-08
1.18616e-08
2.83779e-06
1.70433e-07
6.27117e-09
3.07638e-09
1.18283e-06
1.98884e-07
1.64551e-09
5.99654e-10
3.38682e-07
8.76031e-08
3.64771e-10
8.79234e-11
2.98287e-08
6.23607e-09
5.11701e-11
9.80467e-12
4.22171e-09
9.52251e-10
4.86883e-12
8.22861e-13
7.90077e-10
1.28424e-10
9.71383e-13
5.31145e-14
7.70581e-11
2.65578e-11
1.76524e-13
2.62231e-15
4.83887e-12
2.31979e-12
2.00489e-14
1.00723e-16
2.03608e-13
1.25839e-13
1.48033e-15
3.06659e-18
6.05773e-15
4.74602e-15
7.61113e-17
7.54156e-20
1.32998e-16
1.31517e-16
2.8697e-18
1.52477e-21
2.22854e-18
2.77892e-18
8.24613e-20
2.57387e-23
2.92817e-20
4.60723e-20
1.86116e-21
3.67686e-25
3.08669e-22
6.13803e-22
3.38228e-23
4.49932e-27
2.66297e-24
6.70915e-24
5.05554e-25
4.76979e-29
1.91355e-26
6.13089e-26
6.33389e-27
4.42846e-31
1.16383e-28
4.76697e-28
6.76796e-29
3.63972e-33
6.07793e-31
3.20736e-30
6.2696e-31
2.67678e-35
2.75989e-33
1.89834e-32
5.11517e-33
1.78065e-37
1.10007e-35
1.00446e-34
3.73273e-35
1.08314e-39
3.86724e-38
4.82844e-37
2.47416e-37
6.09077e-42
1.1905e-40
2.14259e-39
1.51303e-39
3.20106e-44
3.13375e-43
8.95395e-42
8.68939e-42
1.59032e-46
1.34548e-08
1.52803e-09
7.58858e-11
3.83323e-12
1.94467e-13
7.97523e-15
3.04068e-16
1.05488e-17
3.30245e-19
9.23447e-21
2.27812e-22
4.88694e-24
8.96532e-26
1.37754e-27
1.72632e-29
1.69635e-31
1.22965e-33
5.86181e-36
1.31719e-38
4.27965e-09
3.60249e-10
1.7088e-11
7.43711e-13
3.25345e-14
1.20083e-15
4.09633e-17
1.27306e-18
3.57594e-20
8.99041e-22
1.99935e-23
3.87905e-25
6.46181e-27
9.05582e-29
1.0403e-30
9.41794e-33
6.3215e-35
2.80427e-37
5.85576e-40
1.03524e-09
6.89519e-11
3.05289e-12
1.18348e-13
4.56993e-15
1.53217e-16
4.73364e-18
1.33339e-19
3.39873e-21
7.76534e-23
1.5723e-24
2.78445e-26
4.24713e-28
5.46963e-30
5.79657e-32
4.8608e-34
3.03452e-36
1.25713e-38
2.44767e-41
1.83289e-10
1.07989e-11
4.37777e-13
1.55578e-14
5.40736e-16
1.66448e-17
4.71155e-19
1.21611e-20
2.84209e-22
5.95873e-24
1.10854e-25
1.8071e-27
2.54324e-29
3.03035e-31
2.97992e-33
2.32624e-35
1.35638e-37
5.26595e-40
9.59088e-43
2.41877e-11
1.35782e-12
5.05903e-14
1.69554e-15
5.40241e-17
1.54517e-18
4.053e-20
9.68709e-22
2.09594e-23
4.06899e-25
7.01386e-27
1.06066e-28
1.38695e-30
1.53853e-32
1.41147e-34
1.03066e-36
5.63611e-39
2.05786e-41
3.51414e-44
2.52553e-12
1.36031e-13
4.77381e-15
1.5347e-16
4.56977e-18
1.22966e-19
3.02277e-21
6.7585e-23
1.36638e-24
2.47714e-26
3.98737e-28
5.63371e-30
6.8889e-32
7.15564e-34
6.15618e-36
4.22409e-38
2.17501e-40
7.49327e-43
1.2025e-45
2.06477e-13
1.08798e-14
3.71677e-16
1.15967e-17
3.28584e-19
8.41912e-21
1.961e-22
4.14192e-24
7.89356e-26
1.34707e-27
2.03968e-29
2.71046e-31
3.11809e-33
3.04938e-35
2.47236e-37
1.60103e-39
7.79126e-42
2.54051e-44
3.84022e-47
1.32248e-14
7.01976e-16
2.39941e-17
7.36265e-19
2.01786e-20
4.97994e-22
1.1106e-23
2.23659e-25
4.05149e-27
6.55749e-29
9.40412e-31
1.18272e-32
1.28733e-34
1.19147e-36
9.14623e-39
5.61249e-41
2.59031e-43
8.01698e-46
1.14401e-48
6.68724e-16
3.69512e-17
1.29147e-18
3.95378e-20
1.06365e-21
2.55637e-23
5.51231e-25
1.06769e-26
1.85276e-28
2.86429e-30
3.91572e-32
4.68836e-34
4.85428e-36
4.27266e-38
3.1189e-40
1.82041e-42
7.99352e-45
2.35448e-47
3.17835e-50
2.70273e-17
1.60238e-18
5.836e-20
1.80821e-21
4.83847e-23
1.14431e-24
2.40768e-26
4.52193e-28
7.57206e-30
1.12558e-31
1.4758e-33
1.69159e-35
1.67451e-37
1.40801e-39
9.81277e-42
5.46639e-44
2.2904e-46
6.43611e-49
8.23496e-52
8.85667e-19
5.78122e-20
2.23146e-21
7.0925e-23
1.91029e-24
4.48911e-26
9.29502e-28
1.70557e-29
2.77488e-31
3.99106e-33
5.04752e-35
5.56753e-37
5.29405e-39
4.27024e-41
2.85175e-43
1.52097e-45
6.09718e-48
1.63819e-50
1.99032e-53
2.3864e-20
1.75302e-21
7.27952e-23
2.40314e-24
6.58532e-26
1.55152e-27
3.18628e-29
5.75238e-31
9.1511e-33
1.28097e-34
1.57104e-36
1.67567e-38
1.53717e-40
1.19395e-42
7.66589e-45
3.92565e-47
1.50932e-49
3.88534e-52
4.48984e-55
5.35965e-22
4.51338e-23
2.04331e-24
7.08527e-26
1.99453e-27
4.75007e-29
9.74532e-31
1.7423e-32
2.72631e-34
3.73446e-36
4.46361e-38
4.62417e-40
4.10856e-42
3.08355e-44
1.90927e-46
9.41229e-49
3.47856e-51
8.59558e-54
9.46212e-57
1.01651e-23
9.96751e-25
4.97731e-26
1.83121e-27
5.34153e-29
1.29552e-30
2.67287e-32
4.76068e-34
7.36775e-36
9.92566e-38
1.16145e-39
1.17341e-41
1.0134e-43
7.37241e-46
4.4144e-48
2.10007e-50
7.47609e-53
1.77634e-55
1.86533e-58
1.64833e-25
1.90724e-26
1.0612e-27
4.17975e-29
1.27316e-30
3.16607e-32
6.6086e-34
1.17912e-35
1.81398e-37
2.41452e-39
2.77742e-41
2.74651e-43
2.31312e-45
1.63584e-47
9.49643e-50
4.3695e-52
1.50123e-54
3.43528e-57
3.44556e-60
2.31227e-27
3.1933e-28
1.99733e-29
8.48886e-31
2.71884e-32
6.97473e-34
1.48101e-35
2.66045e-37
4.08739e-39
5.39797e-41
6.12662e-43
5.94941e-45
4.9006e-47
3.37792e-49
1.90569e-51
8.49846e-54
2.82293e-56
6.23044e-59
5.97565e-62
2.83778e-29
4.72385e-30
3.34691e-31
1.54564e-32
5.23731e-34
1.3936e-35
3.02533e-37
5.49675e-39
8.46894e-41
1.11384e-42
1.25149e-44
1.19694e-46
9.6684e-49
6.51124e-51
3.57763e-53
1.54932e-55
4.98383e-58
1.06235e-60
9.75353e-64
3.08013e-31
6.23326e-32
5.03578e-33
2.54231e-34
9.16312e-36
2.54148e-37
5.66594e-39
1.04553e-40
1.62151e-42
2.1309e-44
2.37711e-46
2.245e-48
1.78259e-50
1.17553e-52
6.30333e-55
2.65549e-57
8.28482e-60
1.70769e-62
1.50229e-65
2.98808e-33
7.40614e-34
6.86131e-35
3.80661e-36
1.46632e-37
4.25765e-39
9.78699e-41
1.84097e-42
2.8835e-44
3.79729e-46
4.21647e-48
3.94143e-50
3.0831e-52
1.99493e-54
1.04584e-56
4.29311e-59
1.30084e-61
2.59576e-64
2.19004e-67
2.61792e-35
7.99832e-36
8.53818e-37
5.2288e-38
2.16146e-39
6.59546e-41
1.56876e-42
3.01781e-44
4.78749e-46
6.33368e-48
7.01594e-50
6.50467e-52
5.02237e-54
3.19455e-56
1.6401e-58
6.56969e-61
1.93573e-63
3.74323e-66
3.03138e-69
2.09287e-37
7.92516e-38
9.78725e-39
6.64078e-40
2.95621e-41
9.51081e-43
2.34803e-44
4.63223e-46
7.46128e-48
9.93753e-50
1.10025e-51
1.01358e-53
7.73852e-56
4.84661e-58
2.44045e-60
9.55152e-63
2.73967e-65
5.13884e-68
3.99766e-71
1.54255e-39
7.27294e-40
1.04242e-40
7.86005e-42
3.77889e-43
1.28541e-44
3.3025e-46
6.69737e-48
1.09754e-49
1.47424e-51
1.63407e-53
1.49815e-55
1.13279e-57
6.996e-60
3.45952e-62
1.32445e-64
3.70175e-67
6.74062e-70
5.0409e-73
1.05922e-41
6.24067e-42
1.0406e-42
8.73959e-44
4.54823e-45
1.63947e-46
4.39305e-48
9.17557e-50
1.53233e-51
2.07879e-53
2.30987e-55
2.11051e-57
1.58259e-59
9.6502e-62
4.69158e-64
1.75863e-66
4.79351e-69
8.47996e-72
6.10052e-75
6.84815e-44
5.05501e-44
9.82151e-45
9.20211e-46
5.19253e-47
1.98695e-48
5.56235e-50
1.19833e-51
2.04198e-53
2.80093e-55
3.12343e-57
2.84746e-59
2.11999e-61
1.27771e-63
6.11275e-66
2.2453e-68
5.97276e-71
1.02717e-73
7.11322e-77
4.2169e-46
3.90584e-46
8.84807e-47
9.25529e-48
5.66823e-49
2.30521e-50
6.74987e-52
1.50138e-53
2.61261e-55
3.62616e-57
4.06137e-59
3.69755e-61
2.73577e-63
1.63104e-65
7.68415e-68
2.76749e-70
7.18883e-73
1.20251e-75
8.02072e-79
)
;

boundaryField
{
    leftWall
    {
        type            zeroGradient;
    }
    rightWall
    {
        type            zeroGradient;
    }
    lowerWall
    {
        type            zeroGradient;
    }
    atmosphere
    {
        type            inletOutlet;
        inletValue      uniform 0;
        value           nonuniform List<scalar> 
23
(
3.13375e-43
8.95395e-42
8.68939e-42
1.59032e-46
4.2169e-46
3.90584e-46
8.84807e-47
9.25529e-48
5.66823e-49
2.30521e-50
6.74987e-52
1.50138e-53
2.61261e-55
3.62616e-57
4.06137e-59
3.69755e-61
2.73577e-63
1.63104e-65
7.68415e-68
2.76749e-70
7.18883e-73
1.20251e-75
8.02072e-79
)
;
    }
    defaultFaces
    {
        type            empty;
    }
    procBoundary3to1
    {
        type            processor;
        value           nonuniform List<scalar> 
23
(
0.000220931
1.16885e-07
9.85019e-08
8.52601e-08
3.35798e-08
5.19113e-09
2.60943e-10
1.59785e-11
9.70803e-13
4.45762e-14
1.92556e-15
7.55671e-17
2.67114e-18
8.40919e-20
2.32699e-21
5.57435e-23
1.13629e-24
1.92967e-26
2.65656e-28
2.85024e-30
2.24199e-32
1.15306e-34
2.79554e-37
)
;
    }
    procBoundary3to2
    {
        type            processor;
        value           nonuniform List<scalar> 
25
(
0.00022138
8.50689e-06
2.55073e-06
1.62732e-06
4.41581e-07
9.45126e-08
1.16326e-08
9.56227e-10
5.41918e-11
2.20894e-12
6.49184e-14
1.39049e-15
2.24433e-17
2.80814e-19
2.78681e-21
2.23509e-23
1.49229e-25
8.3967e-28
3.98435e-30
1.60009e-32
5.44548e-35
1.55804e-37
3.64125e-40
6.31106e-43
5.52249e-46
)
;
    }
}


// ************************************************************************* //
