/*--------------------------------*- C++ -*----------------------------------*\
| =========                 |                                                 |
| \\      /  F ield         | OpenFOAM: The Open Source CFD Toolbox           |
|  \\    /   O peration     | Version:  2.4.0                                 |
|   \\  /    A nd           | Web:      www.OpenFOAM.org                      |
|    \\/     M anipulation  |                                                 |
\*---------------------------------------------------------------------------*/
FoamFile
{
    version     2.0;
    format      ascii;
    class       volScalarField;
    location    "0.1";
    object      alpha.mercury;
}
// * * * * * * * * * * * * * * * * * * * * * * * * * * * * * * * * * * * * * //

dimensions      [0 0 0 0 0 0 0];

internalField   nonuniform List<scalar> 
575
(
6.01312e-28
1.97136e-27
5.53245e-27
1.3131e-26
1.34308e-28
3.65169e-28
8.62494e-28
1.78441e-27
1.79313e-29
4.29978e-29
9.27032e-29
1.80363e-28
1.40533e-30
3.27967e-30
7.17966e-30
1.33317e-29
7.07061e-32
1.82899e-31
4.15056e-31
7.19376e-31
2.37393e-33
7.00444e-33
1.71092e-32
3.02624e-32
5.93808e-35
1.98051e-34
5.25171e-34
9.96619e-34
1.0756e-36
4.18347e-36
1.2369e-35
2.63914e-35
1.51157e-38
6.83961e-38
2.29538e-37
5.58905e-37
1.66951e-40
8.89771e-40
3.43132e-39
9.59702e-39
1.49194e-42
9.38377e-42
4.19693e-41
1.35487e-40
1.0997e-44
8.17581e-44
4.26344e-43
1.59432e-42
6.7833e-47
5.97228e-46
3.64598e-45
1.5843e-44
3.54507e-49
3.70423e-48
2.65645e-47
1.34528e-46
1.58603e-51
1.97215e-50
1.66688e-49
9.86743e-49
6.12921e-54
9.1007e-53
9.097e-52
6.315e-51
2.06168e-56
3.67126e-55
4.35713e-54
3.55968e-53
6.07348e-59
1.30452e-57
1.84685e-56
1.78311e-55
1.57452e-61
4.11002e-60
6.98103e-59
8.00442e-58
3.60166e-64
1.15428e-62
2.36949e-61
3.24562e-60
7.2658e-67
2.89996e-65
7.264e-64
1.1973e-62
1.28513e-69
6.52311e-68
2.02004e-66
4.04314e-65
1.96408e-72
1.30928e-70
5.10642e-69
1.25539e-67
2.50806e-75
2.32027e-73
1.17198e-71
3.58987e-70
2.50071e-78
3.53852e-76
2.41929e-74
9.38233e-73
2.544e-26
6.19313e-26
5.38452e-26
1.37485e-26
1.51482e-27
1.02297e-28
4.96501e-30
1.86648e-31
5.63971e-33
1.39874e-34
2.87389e-36
4.89831e-38
6.91423e-40
8.01964e-42
7.49219e-44
5.4507e-46
2.91931e-48
1.03136e-50
1.71566e-53
3.06997e-27
6.02866e-27
4.24744e-27
8.96162e-28
8.72298e-29
5.36034e-30
2.39959e-31
8.37228e-33
2.35787e-34
5.46569e-36
1.05151e-37
1.68369e-39
2.24114e-41
2.45709e-43
2.17404e-45
1.50307e-47
7.68219e-50
2.60039e-52
4.13113e-55
2.88752e-28
4.81246e-28
2.81535e-28
5.05929e-29
4.43669e-30
2.51122e-31
1.04622e-32
3.41352e-34
9.01797e-36
1.96434e-37
3.55821e-39
5.38115e-41
6.78219e-43
7.05096e-45
5.92934e-47
3.90913e-49
1.91203e-51
6.21341e-54
9.44336e-57
2.0551e-29
3.16966e-29
1.55405e-29
2.46454e-30
1.98414e-31
1.04816e-32
4.10416e-34
1.26236e-35
3.14928e-37
6.48462e-39
1.11248e-40
1.59699e-42
1.91319e-44
1.89276e-46
1.51844e-48
9.57795e-51
4.4948e-53
1.40474e-55
2.04571e-58
1.12261e-30
1.68775e-30
7.09668e-31
1.03282e-31
7.77519e-33
3.88799e-34
1.44568e-35
4.22734e-37
1.00287e-38
1.96456e-40
3.21076e-42
4.3957e-44
5.02502e-46
4.74924e-48
3.64837e-50
2.2086e-52
9.96739e-55
3.00092e-57
4.19045e-60
4.97934e-32
7.227e-32
2.70674e-32
3.71408e-33
2.666e-34
1.27981e-35
4.56723e-37
1.28059e-38
2.91005e-40
5.45937e-42
8.54822e-44
1.12119e-45
1.22807e-47
1.11331e-49
8.21876e-52
4.78819e-54
2.08223e-56
6.04778e-59
8.10335e-62
1.77196e-33
2.50178e-33
8.70819e-34
1.14883e-34
8.0072e-36
3.73848e-37
1.29387e-38
3.50853e-40
7.69387e-42
1.3914e-43
2.09853e-45
2.64888e-47
2.79188e-49
2.43742e-51
1.73477e-53
9.75003e-56
4.0927e-58
1.14818e-60
1.47738e-63
5.06974e-35
7.09652e-35
2.37535e-35
3.07054e-36
2.11193e-37
9.70489e-39
3.28971e-40
8.69907e-42
1.85435e-43
3.25299e-45
4.75023e-47
5.79672e-49
5.90433e-51
4.9829e-53
3.42897e-55
1.86321e-57
7.56152e-60
2.05141e-62
2.53678e-65
1.17666e-36
1.67207e-36
5.52607e-37
7.12846e-38
4.90787e-39
2.24419e-40
7.51953e-42
1.95447e-43
4.0782e-45
6.98063e-47
9.91854e-49
1.17546e-50
1.16186e-52
9.5113e-55
6.34457e-57
3.33956e-59
1.31237e-61
3.44706e-64
4.0995e-67
2.24214e-38
3.30934e-38
1.10442e-38
1.4457e-39
1.00891e-40
4.63687e-42
1.54887e-43
3.98663e-45
8.19562e-47
1.37632e-48
1.91193e-50
2.21028e-52
2.12835e-54
1.69527e-56
1.09873e-58
5.61287e-61
2.1391e-63
5.4459e-66
6.23287e-69
3.55266e-40
5.56003e-40
1.91115e-40
2.57674e-41
1.84298e-42
8.59094e-44
2.88324e-45
7.39959e-47
1.50765e-48
2.49666e-50
3.4065e-52
3.8577e-54
3.63165e-56
2.82231e-58
1.78109e-60
8.84684e-63
3.27469e-65
8.08964e-68
8.91568e-71
4.73645e-42
8.0103e-42
2.88657e-42
4.0613e-43
3.00627e-44
1.43298e-45
4.86646e-47
1.2531e-48
2.54413e-50
4.17428e-52
5.61853e-54
6.25713e-56
5.77698e-58
4.39124e-60
2.70395e-62
1.30824e-64
4.71025e-67
1.13026e-69
1.20023e-72
5.37291e-44
9.99237e-44
3.83561e-44
5.69638e-45
4.40167e-46
2.16113e-47
7.47419e-49
1.94188e-50
3.94786e-52
6.44619e-54
8.59406e-56
9.44512e-58
8.57631e-60
6.39096e-62
3.8475e-64
1.81643e-66
6.37019e-69
1.48625e-71
1.52152e-74
5.24122e-46
1.08939e-45
4.51861e-46
7.1552e-47
5.81567e-48
2.96024e-49
1.04855e-50
2.76255e-52
5.64886e-54
9.21666e-56
1.22161e-57
1.32907e-59
1.18986e-61
8.71107e-64
5.13723e-66
2.37053e-68
8.10818e-71
1.84105e-73
1.81795e-76
4.44156e-48
1.04733e-47
4.75502e-48
8.09987e-49
6.97158e-50
3.70004e-51
1.34908e-52
3.62036e-54
7.47587e-56
1.22338e-57
1.6174e-59
1.74674e-61
1.54531e-63
1.11374e-65
6.44604e-68
2.91182e-70
9.72534e-73
2.15086e-75
2.04964e-78
3.30197e-50
8.95607e-50
4.50255e-50
8.31577e-51
7.62434e-52
4.24043e-53
1.59859e-54
4.38692e-56
9.18136e-58
1.512e-59
1.99969e-61
2.14885e-63
1.88249e-65
1.33825e-67
7.61464e-70
3.37203e-72
1.10094e-74
2.37336e-77
2.18368e-80
2.17413e-52
6.86971e-52
3.86408e-52
7.79155e-53
7.64951e-54
4.47804e-55
1.75226e-56
4.93461e-58
1.05015e-59
1.7455e-61
2.31516e-63
2.48069e-65
2.15611e-67
1.51458e-69
8.48607e-72
3.68869e-74
1.17838e-76
2.47784e-79
2.20221e-82
1.27977e-54
4.76574e-54
3.02698e-54
6.70474e-55
7.08083e-56
4.37978e-57
1.78491e-58
5.17429e-60
1.12293e-61
1.88867e-63
2.51769e-65
2.69498e-67
2.32808e-69
1.61868e-71
8.94329e-74
3.82002e-76
1.19503e-78
2.45254e-81
2.10647e-84
6.79693e-57
3.01474e-56
2.17992e-56
5.33262e-57
6.08217e-58
3.98824e-59
1.69777e-60
5.08012e-62
1.12712e-63
1.92242e-65
2.58034e-67
2.76388e-69
2.3769e-71
1.63821e-73
8.93659e-76
3.75451e-78
1.151e-80
2.30672e-83
1.91547e-86
3.28694e-59
1.75331e-58
1.45364e-58
3.94554e-59
4.87663e-60
3.39962e-61
1.51551e-62
4.69175e-64
1.06646e-65
1.84794e-67
2.50138e-69
2.6851e-71
2.30217e-73
1.57493e-75
8.49166e-78
3.51183e-80
1.05568e-82
2.067e-85
1.6601e-88
1.46049e-61
9.45264e-61
9.04107e-61
2.73363e-61
3.67194e-62
2.72792e-63
1.2762e-64
4.09575e-66
9.55477e-68
1.68447e-69
2.30247e-71
2.48022e-73
2.12283e-75
1.44307e-77
7.69714e-80
3.13556e-82
9.24737e-85
1.76972e-87
1.37525e-90
6.016e-64
4.76414e-63
5.28397e-63
1.78555e-63
2.61267e-64
2.07247e-65
1.01929e-66
3.39663e-68
8.14348e-70
1.46238e-71
2.02077e-73
2.1869e-75
1.8706e-77
1.26472e-79
6.67802e-82
2.6811e-84
7.76107e-87
1.45229e-89
1.09237e-92
2.31756e-66
2.26398e-65
2.92401e-65
1.10713e-65
1.7679e-66
1.49963e-67
7.7643e-69
2.68982e-70
6.63448e-72
1.21466e-73
1.69837e-75
1.84834e-77
1.58142e-79
1.06415e-81
5.56547e-84
2.20312e-86
6.26216e-89
1.14618e-91
8.34739e-95
8.42089e-69
1.02331e-67
1.54395e-67
6.56245e-68
1.14503e-68
1.03975e-69
5.67257e-71
2.04476e-72
5.19217e-74
9.69778e-76
1.37307e-77
1.5039e-79
1.28794e-81
8.62992e-84
4.47222e-86
1.74617e-88
4.87531e-91
8.73105e-94
6.15858e-97
2.90764e-71
4.44099e-70
7.84543e-70
3.7473e-70
7.14886e-71
6.95288e-72
3.99907e-73
1.50051e-74
3.92373e-76
7.4791e-78
1.0728e-79
1.18317e-81
1.01465e-83
6.77181e-86
3.47808e-88
1.3398e-90
3.67542e-93
6.44189e-96
4.40213e-99
)
;

boundaryField
{
    leftWall
    {
        type            zeroGradient;
    }
    rightWall
    {
        type            zeroGradient;
    }
    lowerWall
    {
        type            zeroGradient;
    }
    atmosphere
    {
        type            inletOutlet;
        inletValue      uniform 0;
        value           nonuniform List<scalar> 
23
(
2.50071e-78
3.53852e-76
2.41929e-74
9.38233e-73
2.90764e-71
4.44099e-70
7.84543e-70
3.7473e-70
7.14886e-71
6.95288e-72
3.99907e-73
1.50051e-74
3.92373e-76
7.4791e-78
1.0728e-79
1.18317e-81
1.01465e-83
6.77181e-86
3.47808e-88
1.3398e-90
3.67542e-93
6.44189e-96
4.40213e-99
)
;
    }
    defaultFaces
    {
        type            empty;
    }
    procBoundary3to1
    {
        type            processor;
        value           nonuniform List<scalar> 
23
(
1.49182e-27
6.80503e-27
2.46118e-26
7.30293e-26
1.70166e-25
5.19296e-25
5.79993e-25
1.83522e-25
2.33559e-26
1.7526e-27
9.29655e-29
3.79091e-30
1.23666e-31
3.29817e-33
7.2728e-35
1.32677e-36
1.99529e-38
2.45612e-40
2.43004e-42
1.86654e-44
1.05078e-46
3.88403e-49
6.77265e-52
)
;
    }
    procBoundary3to2
    {
        type            processor;
        value           nonuniform List<scalar> 
25
(
8.67782e-29
2.16047e-29
3.33318e-30
2.72793e-31
1.20786e-32
3.13468e-34
6.18827e-36
8.6792e-38
9.96574e-40
9.01731e-42
6.67662e-44
4.08685e-46
2.09573e-48
9.09588e-51
3.37106e-53
1.07468e-55
3.01155e-58
7.3517e-61
1.55746e-63
2.85405e-66
4.48036e-69
5.89287e-72
6.19351e-75
4.60297e-78
1.58025e-81
)
;
    }
}


// ************************************************************************* //
