/*--------------------------------*- C++ -*----------------------------------*\
| =========                 |                                                 |
| \\      /  F ield         | OpenFOAM: The Open Source CFD Toolbox           |
|  \\    /   O peration     | Version:  2.4.0                                 |
|   \\  /    A nd           | Web:      www.OpenFOAM.org                      |
|    \\/     M anipulation  |                                                 |
\*---------------------------------------------------------------------------*/
FoamFile
{
    version     2.0;
    format      ascii;
    class       surfaceScalarField;
    location    "0.1";
    object      phi;
}
// * * * * * * * * * * * * * * * * * * * * * * * * * * * * * * * * * * * * * //

dimensions      [0 3 -1 0 0 0 0];

internalField   nonuniform List<scalar> 
1102
(
-0.000159943
4.17729e-05
-0.000146595
4.56159e-05
-0.000130834
4.51478e-05
4.60462e-05
-0.000118803
-0.000157628
3.22366e-05
-0.000144031
3.20185e-05
-0.000131286
3.24032e-05
3.55443e-05
-0.000120784
-0.000143056
2.11778e-05
-0.000132653
2.16158e-05
-0.00012537
2.51206e-05
2.68965e-05
-0.000116723
-0.000124538
1.34869e-05
-0.000119814
1.6892e-05
-0.000115261
2.05672e-05
2.01795e-05
-0.000108544
-0.000110558
9.21789e-06
-0.000105821
1.21545e-05
-0.000100565
1.53116e-05
1.62064e-05
-9.65923e-05
-9.76435e-05
7.18542e-06
-9.50059e-05
9.51698e-06
-9.16412e-05
1.19468e-05
1.32251e-05
-8.86599e-05
-8.67991e-05
5.35525e-06
-8.47694e-05
7.48719e-06
-8.23754e-05
9.55276e-06
1.1221e-05
-8.03713e-05
-7.73905e-05
4.3001e-06
-7.59946e-05
6.0913e-06
-7.43149e-05
7.87302e-06
9.47363e-06
-7.25675e-05
-6.90831e-05
3.46493e-06
-6.807e-05
5.07821e-06
-6.68425e-05
6.64555e-06
8.10717e-06
-6.54761e-05
-6.18433e-05
2.87352e-06
-6.10655e-05
4.30048e-06
-6.01199e-05
5.69991e-06
7.02791e-06
-5.90406e-05
-5.54003e-05
2.42943e-06
-5.48063e-05
3.70655e-06
-5.40691e-05
4.96273e-06
6.17022e-06
-5.32114e-05
-4.96314e-05
2.08454e-06
-4.91648e-05
3.23994e-06
-4.85814e-05
4.37938e-06
5.48387e-06
-4.7895e-05
-4.44097e-05
1.81293e-06
-4.40381e-05
2.86833e-06
-4.357e-05
3.91137e-06
4.92859e-06
-4.30147e-05
-3.96374e-05
1.59619e-06
-3.93381e-05
2.56906e-06
-3.89589e-05
3.53217e-06
4.47561e-06
-3.85059e-05
-3.5236e-05
1.42288e-06
-3.49938e-05
2.32694e-06
-3.46849e-05
3.2232e-06
4.10415e-06
-3.43134e-05
-3.11451e-05
1.28206e-06
-3.09478e-05
2.12958e-06
-3.0695e-05
2.97044e-06
3.79886e-06
-3.03897e-05
-2.73093e-05
1.16975e-06
-2.71497e-05
1.97008e-06
-2.69439e-05
2.76464e-06
3.54884e-06
-2.66939e-05
-2.36868e-05
1.0813e-06
-2.35592e-05
1.84253e-06
-2.33933e-05
2.59868e-06
3.34597e-06
-2.31904e-05
-2.02409e-05
1.01353e-06
-2.01412e-05
1.74285e-06
-2.001e-05
2.46747e-06
3.18428e-06
-1.98484e-05
-1.69397e-05
9.64434e-07
-1.6865e-05
1.66811e-06
-1.67649e-05
2.36734e-06
3.05948e-06
-1.66401e-05
-1.37546e-05
9.32491e-07
-1.37029e-05
1.61644e-06
-1.36315e-05
2.29592e-06
2.96873e-06
-1.35408e-05
-1.06591e-05
9.17537e-07
-1.06298e-05
1.58711e-06
-1.05859e-05
2.25208e-06
2.91047e-06
-1.05277e-05
-7.62873e-06
9.18689e-07
-7.62187e-06
1.58028e-06
-7.60574e-06
2.23592e-06
2.88445e-06
-7.57973e-06
-4.63381e-06
9.51421e-07
-4.65796e-06
1.60439e-06
-4.6744e-06
2.25234e-06
2.89446e-06
-4.68444e-06
-1.62792e-06
-1.62771e-06
-1.63383e-06
-1.64273e-06
-0.000100844
0.000110094
-8.38972e-05
0.000104692
-7.19957e-05
0.000105188
-6.14222e-05
0.000103047
-5.25277e-05
0.000101413
-4.4807e-05
9.95502e-05
-3.80942e-05
9.76349e-05
-3.22404e-05
9.56824e-05
-2.71334e-05
9.37304e-05
-2.26786e-05
9.18206e-05
-1.87937e-05
8.99878e-05
-1.54033e-05
8.82693e-05
-1.24377e-05
8.66963e-05
-9.82996e-06
8.52979e-05
-7.51665e-06
8.40975e-05
-5.43667e-06
8.31158e-05
-3.5321e-06
8.23691e-05
-1.75085e-06
8.18672e-05
8.09382e-05
-0.000100044
8.93536e-05
-8.55222e-05
9.01704e-05
-7.3217e-05
9.2883e-05
-6.28735e-05
9.27033e-05
-5.40412e-05
9.25808e-05
-4.63732e-05
9.18822e-05
-3.96871e-05
9.09488e-05
-3.38305e-05
8.98258e-05
-2.86903e-05
8.85902e-05
-2.41717e-05
8.7302e-05
-2.01943e-05
8.60104e-05
-1.66852e-05
8.47601e-05
-1.35775e-05
8.35886e-05
-1.0808e-05
8.25285e-05
-8.3166e-06
8.16061e-05
-6.04449e-06
8.08436e-05
-3.93368e-06
8.02583e-05
-1.91952e-06
7.98531e-05
7.90186e-05
-9.68533e-05
6.9484e-05
-8.49214e-05
7.82384e-05
-7.2941e-05
8.09025e-05
-6.31516e-05
8.29139e-05
-5.46016e-05
8.40306e-05
-4.71484e-05
8.44291e-05
-4.06061e-05
8.44065e-05
-3.48388e-05
8.40585e-05
-2.97412e-05
8.34926e-05
-2.52246e-05
8.27854e-05
-2.12137e-05
8.19995e-05
-1.76404e-05
8.11868e-05
-1.44421e-05
8.03904e-05
-1.15601e-05
7.96464e-05
-8.93795e-06
7.8984e-05
-6.52064e-06
7.84263e-05
-4.25304e-06
7.79907e-05
-2.08101e-06
7.76811e-05
7.69376e-05
-9.43305e-05
5.52707e-05
-8.25322e-05
6.64399e-05
-7.14138e-05
6.97842e-05
-6.23543e-05
7.38543e-05
-5.42758e-05
7.59522e-05
-4.71834e-05
7.73367e-05
-4.08929e-05
7.8116e-05
-3.53014e-05
7.84671e-05
-3.03178e-05
7.8509e-05
-2.58651e-05
7.83327e-05
-2.1876e-05
7.80104e-05
-1.82894e-05
7.76002e-05
-1.50487e-05
7.71497e-05
-1.21003e-05
7.6698e-05
-9.39278e-06
7.62765e-05
-6.87674e-06
7.59103e-05
-4.50491e-06
7.56189e-05
-2.23606e-06
7.54123e-05
7.47016e-05
-8.83348e-05
4.70131e-05
-7.79712e-05
5.60763e-05
-6.89008e-05
6.07138e-05
-6.06087e-05
6.55622e-05
-5.31845e-05
6.85281e-05
-4.65549e-05
7.07071e-05
-4.06078e-05
7.21689e-05
-3.52664e-05
7.31257e-05
-3.04599e-05
7.37026e-05
-2.61263e-05
7.39992e-05
-2.22091e-05
7.40932e-05
-1.86557e-05
7.40468e-05
-1.54164e-05
7.39105e-05
-1.24437e-05
7.37253e-05
-9.69143e-06
7.35243e-05
-7.11511e-06
7.3334e-05
-4.6713e-06
7.31751e-05
-2.31547e-06
7.30564e-05
7.23861e-05
-8.12247e-05
3.95779e-05
-7.27096e-05
4.75612e-05
-6.53232e-05
5.33274e-05
-5.8076e-05
5.8315e-05
-5.14358e-05
6.1888e-05
-4.53579e-05
6.46293e-05
-3.98243e-05
6.66354e-05
-3.47916e-05
6.80931e-05
-3.02141e-05
6.91251e-05
-2.60464e-05
6.98315e-05
-2.22443e-05
7.02911e-05
-1.87649e-05
7.05673e-05
-1.5566e-05
7.07116e-05
-1.26066e-05
7.07658e-05
-9.84591e-06
7.07636e-05
-7.24386e-06
7.0732e-05
-4.76024e-06
7.06915e-05
-2.35353e-06
7.06497e-05
7.00326e-05
-7.42141e-05
3.34207e-05
-6.7539e-05
4.08862e-05
-6.12622e-05
4.70506e-05
-5.50403e-05
5.20932e-05
-4.91843e-05
5.60321e-05
-4.37024e-05
5.91475e-05
-3.86247e-05
6.15577e-05
-3.39415e-05
6.341e-05
-2.96315e-05
6.48152e-05
-2.56666e-05
6.58666e-05
-2.20152e-05
6.66397e-05
-1.86442e-05
6.71964e-05
-1.55196e-05
6.7587e-05
-1.26067e-05
6.78529e-05
-9.87046e-06
6.80274e-05
-7.27564e-06
6.81371e-05
-4.78662e-06
6.82025e-05
-2.36768e-06
6.82308e-05
6.76649e-05
-6.76556e-05
2.85089e-05
-6.23894e-05
3.56201e-05
-5.7066e-05
4.17273e-05
-5.1742e-05
4.67693e-05
-4.66055e-05
5.08957e-05
-4.17086e-05
5.42506e-05
-3.70968e-05
5.6946e-05
-3.27831e-05
5.90963e-05
-2.87649e-05
6.07971e-05
-2.50292e-05
6.21308e-05
-2.1556e-05
6.31666e-05
-1.83217e-05
6.39621e-05
-1.52998e-05
6.45651e-05
-1.24621e-05
6.50153e-05
-9.77931e-06
6.53446e-05
-7.2211e-06
6.5579e-05
-4.75662e-06
6.5738e-05
-2.35475e-06
6.5829e-05
6.53102e-05
-6.16047e-05
2.46376e-05
-5.73464e-05
3.13619e-05
-5.2865e-05
3.72459e-05
-4.8315e-05
4.22194e-05
-4.38289e-05
4.64097e-05
-3.94807e-05
4.99025e-05
-3.53227e-05
5.2788e-05
-3.13811e-05
5.51548e-05
-2.76663e-05
5.70823e-05
-2.41762e-05
5.86408e-05
-2.0901e-05
5.98914e-05
-1.7825e-05
6.08862e-05
-1.4929e-05
6.16691e-05
-1.21907e-05
6.2277e-05
-9.58618e-06
6.27401e-05
-7.08989e-06
6.30827e-05
-4.67543e-06
6.33236e-05
-2.3159e-06
6.34694e-05
6.29943e-05
-5.59818e-05
2.15788e-05
-5.25006e-05
2.78809e-05
-4.87374e-05
3.34828e-05
-4.48487e-05
3.83309e-05
-4.09433e-05
4.25044e-05
-3.70994e-05
4.60587e-05
-3.33716e-05
4.90603e-05
-2.97935e-05
5.15768e-05
-2.63833e-05
5.36721e-05
-2.31471e-05
5.54047e-05
-2.00826e-05
5.68269e-05
-1.7181e-05
5.79846e-05
-1.4429e-05
5.89171e-05
-1.18099e-05
5.96579e-05
-9.30442e-06
6.02346e-05
-6.89166e-06
6.06699e-05
-4.54934e-06
6.09813e-05
-2.25457e-06
6.11747e-05
6.07397e-05
-5.07592e-05
1.91267e-05
-4.78919e-05
2.50136e-05
-4.47297e-05
3.03208e-05
-4.14051e-05
3.50064e-05
-3.80125e-05
3.91119e-05
-3.4626e-05
4.26723e-05
-3.12994e-05
4.57338e-05
-2.80692e-05
4.83467e-05
-2.4958e-05
5.0561e-05
-2.19776e-05
5.24242e-05
-1.91309e-05
5.39803e-05
-1.64146e-05
5.52683e-05
-1.38203e-05
5.63229e-05
-1.1336e-05
5.71736e-05
-8.94678e-06
5.78455e-05
-6.63577e-06
5.83589e-05
-4.38453e-06
5.873e-05
-2.17389e-06
5.8964e-05
5.85658e-05
-4.59072e-05
1.7139e-05
-4.35309e-05
2.26375e-05
-4.08678e-05
2.76577e-05
-3.80241e-05
3.21628e-05
-3.50816e-05
3.61694e-05
-3.21066e-05
3.96974e-05
-2.91501e-05
4.27773e-05
-2.62484e-05
4.54451e-05
-2.34264e-05
4.7739e-05
-2.06989e-05
4.96967e-05
-1.80727e-05
5.13541e-05
-1.55484e-05
5.2744e-05
-1.31216e-05
5.38962e-05
-1.07843e-05
5.48363e-05
-8.52516e-06
5.55864e-05
-6.33099e-06
5.61648e-05
-4.18677e-06
5.65858e-05
-2.07672e-06
5.6854e-05
5.64891e-05
-4.13887e-05
1.5513e-05
-3.94104e-05
2.06592e-05
-3.71624e-05
2.54098e-05
-3.47296e-05
2.97301e-05
-3.21811e-05
3.3621e-05
-2.95751e-05
3.70915e-05
-2.69577e-05
4.01599e-05
-2.43638e-05
4.28513e-05
-2.18183e-05
4.51936e-05
-1.93378e-05
4.72162e-05
-1.69313e-05
4.89477e-05
-1.46025e-05
5.04152e-05
-1.23499e-05
5.16436e-05
-1.01686e-05
5.26549e-05
-8.05046e-06
5.34683e-05
-5.98538e-06
5.40997e-05
-3.96139e-06
5.45618e-05
-1.9657e-06
5.48583e-05
5.45234e-05
-3.7167e-05
1.41741e-05
-3.55145e-05
1.90068e-05
-3.36144e-05
2.35098e-05
-3.1534e-05
2.76498e-05
-2.93309e-05
3.1418e-05
-2.70552e-05
3.48158e-05
-2.47477e-05
3.78525e-05
-2.24406e-05
4.05442e-05
-2.01579e-05
4.2911e-05
-1.79165e-05
4.49748e-05
-1.57269e-05
4.67581e-05
-1.35944e-05
4.82828e-05
-1.15201e-05
4.95692e-05
-9.50121e-06
5.06361e-05
-7.53245e-06
5.14996e-05
-5.6062e-06
5.21735e-05
-3.71315e-06
5.26688e-05
-1.8432e-06
5.29884e-05
5.26802e-05
-3.32064e-05
1.30672e-05
-3.1824e-05
1.76245e-05
-3.0218e-05
2.19039e-05
-2.84417e-05
2.58735e-05
-2.65427e-05
2.95191e-05
-2.45633e-05
3.28363e-05
-2.25389e-05
3.58282e-05
-2.04986e-05
3.85039e-05
-1.84646e-05
4.08771e-05
-1.64535e-05
4.29637e-05
-1.44762e-05
4.47808e-05
-1.25392e-05
4.63458e-05
-1.0645e-05
4.76751e-05
-8.79299e-06
4.87841e-05
-6.97977e-06
4.96863e-05
-5.19991e-06
5.03936e-05
-3.44637e-06
5.09152e-05
-1.71134e-06
5.12534e-05
5.09689e-05
-2.94737e-05
1.21512e-05
-2.83183e-05
1.64691e-05
-2.69637e-05
2.05493e-05
-2.54521e-05
2.43619e-05
-2.38223e-05
2.78894e-05
-2.21096e-05
3.11236e-05
-2.03444e-05
3.4063e-05
-1.85522e-05
3.67118e-05
-1.67533e-05
3.90783e-05
-1.49632e-05
4.11736e-05
-1.31928e-05
4.30104e-05
-1.14491e-05
4.46021e-05
-9.73567e-06
4.59617e-05
-8.05318e-06
4.71016e-05
-6.3999e-06
4.80331e-05
-4.77216e-06
4.87659e-05
-3.16481e-06
4.93079e-05
-1.57203e-06
4.96606e-05
4.93969e-05
-2.59384e-05
1.13956e-05
-2.49766e-05
1.55074e-05
-2.38397e-05
1.94125e-05
-2.25607e-05
2.30829e-05
-2.11711e-05
2.64998e-05
-1.96999e-05
2.96525e-05
-1.81729e-05
3.25361e-05
-1.66121e-05
3.5151e-05
-1.50356e-05
3.75017e-05
-1.34574e-05
3.95954e-05
-1.1888e-05
4.14411e-05
-1.03346e-05
4.30487e-05
-8.80123e-06
4.44283e-05
-7.28963e-06
4.559e-05
-5.79924e-06
4.65427e-05
-4.32782e-06
4.72944e-05
-2.87175e-06
4.78518e-05
-1.42686e-06
4.82157e-05
4.797e-05
-2.25726e-05
1.07779e-05
-2.1779e-05
1.47138e-05
-2.08333e-05
1.84668e-05
-1.97611e-05
2.20108e-05
-1.85878e-05
2.53265e-05
-1.73369e-05
2.84016e-05
-1.60299e-05
3.12291e-05
-1.46856e-05
3.38067e-05
-1.33197e-05
3.61358e-05
-1.19447e-05
3.82205e-05
-1.05705e-05
4.00668e-05
-9.20382e-06
4.1682e-05
-7.84921e-06
4.30737e-05
-6.50887e-06
4.42496e-05
-5.18318e-06
4.5217e-05
-3.87099e-06
4.59823e-05
-2.56994e-06
4.65508e-05
-1.27725e-06
4.6923e-05
4.66928e-05
-1.93514e-05
1.02809e-05
-1.87063e-05
1.40687e-05
-1.7931e-05
1.76915e-05
-1.70452e-05
2.1125e-05
-1.60687e-05
2.435e-05
-1.50204e-05
2.73534e-05
-1.39181e-05
3.01268e-05
-1.27773e-05
3.26659e-05
-1.16116e-05
3.497e-05
-1.04319e-05
3.70408e-05
-9.24703e-06
3.8882e-05
-8.06349e-06
4.04985e-05
-6.88571e-06
4.18959e-05
-5.71626e-06
4.30802e-05
-4.55617e-06
4.40569e-05
-3.40512e-06
4.48312e-05
-2.26174e-06
4.54074e-05
-1.12434e-06
4.57857e-05
4.55684e-05
-1.62515e-05
9.89226e-06
-1.57404e-05
1.35575e-05
-1.51197e-05
1.70708e-05
-1.44041e-05
2.04094e-05
-1.36088e-05
2.35547e-05
-1.27488e-05
2.64934e-05
-1.18382e-05
2.92162e-05
-1.08899e-05
3.17177e-05
-9.91521e-06
3.39953e-05
-8.92359e-06
3.60492e-05
-7.92277e-06
3.78811e-05
-6.91866e-06
3.94944e-05
-5.91553e-06
4.08928e-05
-4.91613e-06
4.20808e-05
-3.92186e-06
4.30627e-05
-2.93304e-06
4.38424e-05
-1.94906e-06
4.44235e-05
-9.69128e-07
4.48057e-05
4.45993e-05
-1.3252e-05
9.60349e-06
-1.28643e-05
1.31698e-05
-1.23864e-05
1.65929e-05
-1.18287e-05
1.98517e-05
-1.12024e-05
2.29284e-05
-1.0519e-05
2.581e-05
-9.78958e-06
2.84868e-05
-9.0245e-06
3.09526e-05
-8.233e-06
3.32038e-05
-7.42309e-06
3.52393e-05
-6.6014e-06
3.70594e-05
-5.7732e-06
3.86662e-05
-4.94244e-06
4.00621e-05
-4.11188e-06
4.12502e-05
-3.28316e-06
4.2234e-05
-2.45704e-06
4.30163e-05
-1.63351e-06
4.36e-05
-8.12381e-07
4.39847e-05
4.3787e-05
-1.03336e-05
9.40939e-06
-1.00623e-05
1.28985e-05
-9.71876e-06
1.62494e-05
-9.30978e-06
1.94427e-05
-8.8432e-06
2.24619e-05
-8.32741e-06
2.52942e-05
-7.7708e-06
2.79302e-05
-7.18141e-06
3.03632e-05
-6.56664e-06
3.2589e-05
-5.93303e-06
3.46056e-05
-5.28617e-06
3.64126e-05
-4.63061e-06
3.80106e-05
-3.96994e-06
3.94014e-05
-3.30678e-06
4.05871e-05
-2.64291e-06
4.15701e-05
-1.97939e-06
4.23527e-05
-1.31662e-06
4.29372e-05
-6.54933e-07
4.3323e-05
4.31321e-05
-7.47791e-06
9.30754e-06
-7.31847e-06
1.2739e-05
-7.10321e-06
1.60341e-05
-6.83575e-06
1.91752e-05
-6.52108e-06
2.21472e-05
-6.165e-06
2.49381e-05
-5.77363e-06
2.75388e-05
-5.35303e-06
2.99425e-05
-4.90898e-06
3.21449e-05
-4.4467e-06
3.41433e-05
-3.97078e-06
3.59366e-05
-3.4851e-06
3.75249e-05
-2.99279e-06
3.89091e-05
-2.49627e-06
4.00905e-05
-1.99731e-06
4.10711e-05
-1.49713e-06
4.18526e-05
-9.96482e-07
4.24366e-05
-4.9557e-07
4.28221e-05
4.26365e-05
-4.68263e-06
9.30571e-06
-4.64227e-06
1.26986e-05
-4.56175e-06
1.59535e-05
-4.44127e-06
1.90547e-05
-4.28274e-06
2.19886e-05
-4.08913e-06
2.47445e-05
-3.86413e-06
2.73138e-05
-3.61178e-06
2.96902e-05
-3.33619e-06
3.18693e-05
-3.04137e-06
3.38485e-05
-2.73104e-06
3.56263e-05
-2.40853e-06
3.72024e-05
-2.07672e-06
3.85772e-05
-1.73803e-06
3.97518e-05
-1.39437e-06
4.07274e-05
-1.0472e-06
4.15054e-05
-6.98185e-07
4.20875e-05
-3.47472e-07
4.24714e-05
4.2289e-05
-1.66419e-06
-1.67434e-06
-1.66925e-06
-1.64744e-06
-1.60876e-06
-1.55381e-06
-1.48368e-06
-1.39978e-06
-1.30374e-06
-1.19723e-06
-1.08191e-06
-9.59351e-07
-8.31e-07
-6.98119e-07
-5.61792e-07
-4.22921e-07
-2.82429e-07
-1.40789e-07
)
;

boundaryField
{
    leftWall
    {
        type            calculated;
        value           nonuniform 0();
    }
    rightWall
    {
        type            calculated;
        value           uniform 0;
    }
    lowerWall
    {
        type            calculated;
        value           nonuniform 0();
    }
    atmosphere
    {
        type            calculated;
        value           nonuniform List<scalar> 
23
(
9.39958e-07
1.60417e-06
2.25844e-06
2.90335e-06
9.32716e-06
1.27088e-05
1.59484e-05
1.90329e-05
2.19499e-05
2.46895e-05
2.72436e-05
2.96063e-05
3.17733e-05
3.3742e-05
3.5511e-05
3.70798e-05
3.84489e-05
3.96189e-05
4.05911e-05
4.13665e-05
4.1947e-05
4.23297e-05
4.21482e-05
)
;
    }
    defaultFaces
    {
        type            empty;
        value           nonuniform 0();
    }
    procBoundary3to1
    {
        type            processor;
        value           nonuniform List<scalar> 
23
(
-4.92611e-05
-5.89639e-05
-6.09095e-05
-5.80765e-05
-0.000128053
-0.000121639
-0.00011709
-0.000113621
-0.000110308
-0.000107271
-0.000104348
-0.000101536
-9.88374e-05
-9.62753e-05
-9.38727e-05
-9.16596e-05
-8.9662e-05
-8.79057e-05
-8.64108e-05
-8.51957e-05
-8.42736e-05
-8.36485e-05
-8.26889e-05
)
;
    }
    procBoundary3to2
    {
        type            processor;
        value           nonuniform List<scalar> 
25
(
0.000167431
0.000167164
0.000154114
0.000132229
0.000114827
9.9676e-05
8.86292e-05
7.84457e-05
6.99182e-05
6.24347e-05
5.58444e-05
4.99763e-05
4.46814e-05
3.98541e-05
3.54093e-05
3.1286e-05
2.74216e-05
2.37752e-05
2.03087e-05
1.69888e-05
1.37866e-05
1.0674e-05
7.62757e-06
4.60106e-06
1.63935e-06
)
;
    }
}


// ************************************************************************* //
