/*--------------------------------*- C++ -*----------------------------------*\
| =========                 |                                                 |
| \\      /  F ield         | OpenFOAM: The Open Source CFD Toolbox           |
|  \\    /   O peration     | Version:  2.4.0                                 |
|   \\  /    A nd           | Web:      www.OpenFOAM.org                      |
|    \\/     M anipulation  |                                                 |
\*---------------------------------------------------------------------------*/
FoamFile
{
    version     2.0;
    format      ascii;
    class       volVectorField;
    location    "0.1";
    object      U.air;
}
// * * * * * * * * * * * * * * * * * * * * * * * * * * * * * * * * * * * * * //

dimensions      [0 1 -1 0 0 0 0];

internalField   nonuniform List<vector> 
575
(
(-0.881418 0.558539 0)
(-0.837629 0.624792 0)
(-0.719649 0.625842 0)
(-0.675703 0.580455 0)
(-0.868796 0.454994 0)
(-0.790419 0.472634 0)
(-0.738738 0.433254 0)
(-0.690194 0.460693 0)
(-0.78324 0.302483 0)
(-0.730269 0.293873 0)
(-0.701956 0.336677 0)
(-0.660691 0.377722 0)
(-0.670958 0.172298 0)
(-0.656991 0.210401 0)
(-0.639161 0.259212 0)
(-0.588363 0.269369 0)
(-0.591102 0.117295 0)
(-0.582367 0.152959 0)
(-0.561139 0.190374 0)
(-0.525373 0.19845 0)
(-0.529708 0.088884 0)
(-0.516295 0.115891 0)
(-0.501101 0.148492 0)
(-0.476317 0.160189 0)
(-0.469522 0.06768 0)
(-0.460125 0.0927861 0)
(-0.450062 0.117601 0)
(-0.432202 0.137563 0)
(-0.418935 0.0530319 0)
(-0.410996 0.0747562 0)
(-0.404006 0.0967743 0)
(-0.390923 0.116142 0)
(-0.373542 0.0424953 0)
(-0.367726 0.0619698 0)
(-0.362765 0.0811514 0)
(-0.352687 0.0990844 0)
(-0.334054 0.0351001 0)
(-0.3295 0.0522973 0)
(-0.325845 0.0692808 0)
(-0.317986 0.085464 0)
(-0.299018 0.0295476 0)
(-0.295462 0.0449126 0)
(-0.29273 0.0600726 0)
(-0.286534 0.0746973 0)
(-0.267723 0.025261 0)
(-0.264877 0.0391065 0)
(-0.262784 0.0527839 0)
(-0.257863 0.0660859 0)
(-0.239438 0.0218895 0)
(-0.237139 0.034485 0)
(-0.235502 0.0469421 0)
(-0.231563 0.0591267 0)
(-0.21362 0.019199 0)
(-0.211752 0.0307634 0)
(-0.210444 0.0422127 0)
(-0.207277 0.0534568 0)
(-0.18983 0.0170392 0)
(-0.188313 0.0277462 0)
(-0.187256 0.0383572 0)
(-0.184703 0.0488089 0)
(-0.167741 0.0152932 0)
(-0.166506 0.025288 0)
(-0.165637 0.0352012 0)
(-0.163581 0.0449865 0)
(-0.147037 0.0138824 0)
(-0.146045 0.0232871 0)
(-0.145332 0.0326198 0)
(-0.143687 0.0418456 0)
(-0.127496 0.0127617 0)
(-0.126711 0.0216748 0)
(-0.126129 0.0305241 0)
(-0.124828 0.0392816 0)
(-0.108916 0.0118892 0)
(-0.108312 0.0203974 0)
(-0.107845 0.0288475 0)
(-0.106835 0.0372166 0)
(-0.0911218 0.0112369 0)
(-0.0906781 0.0194166 0)
(-0.0903177 0.027542 0)
(-0.0895603 0.0355934 0)
(-0.0739591 0.0107861 0)
(-0.0736592 0.0187066 0)
(-0.073402 0.0265745 0)
(-0.0728676 0.0343724 0)
(-0.0572815 0.0105276 0)
(-0.0571168 0.0182536 0)
(-0.0569648 0.025926 0)
(-0.0566328 0.0335294 0)
(-0.0409603 0.0104538 0)
(-0.040921 0.0180528 0)
(-0.0408829 0.0255892 0)
(-0.0407411 0.0330523 0)
(-0.0247904 0.0106705 0)
(-0.0249361 0.0181624 0)
(-0.0250529 0.0255996 0)
(-0.0251146 0.0329648 0)
(-0.00876866 0.0107238 0)
(-0.0087367 0.0183009 0)
(-0.00875468 0.0257668 0)
(-0.0087945 0.0331274 0)
(-0.616598 0.571871 0)
(-0.48913 0.551995 0)
(-0.425846 0.539787 0)
(-0.358202 0.526618 0)
(-0.306956 0.514334 0)
(-0.261599 0.502383 0)
(-0.222708 0.490584 0)
(-0.188838 0.478987 0)
(-0.159347 0.467672 0)
(-0.133643 0.456798 0)
(-0.111236 0.446503 0)
(-0.0917005 0.43695 0)
(-0.0746404 0.428278 0)
(-0.0596873 0.420615 0)
(-0.0464867 0.414068 0)
(-0.0347088 0.408732 0)
(-0.02402 0.404677 0)
(-0.0141572 0.40193 0)
(-0.00473185 0.396955 0)
(-0.595285 0.497707 0)
(-0.504655 0.469685 0)
(-0.428292 0.482907 0)
(-0.366308 0.475673 0)
(-0.314533 0.471424 0)
(-0.26979 0.465069 0)
(-0.231125 0.458081 0)
(-0.19735 0.45057 0)
(-0.167781 0.442802 0)
(-0.141826 0.435019 0)
(-0.119008 0.42742 0)
(-0.0989091 0.420204 0)
(-0.0811516 0.413533 0)
(-0.0653838 0.407559 0)
(-0.051272 0.402402 0)
(-0.0384993 0.398164 0)
(-0.0267475 0.394933 0)
(-0.0156709 0.39274 0)
(-0.00515908 0.388881 0)
(-0.563384 0.386212 0)
(-0.499414 0.411241 0)
(-0.422342 0.423139 0)
(-0.366915 0.426963 0)
(-0.316299 0.42927 0)
(-0.27331 0.428375 0)
(-0.235592 0.425975 0)
(-0.202486 0.422352 0)
(-0.173287 0.417947 0)
(-0.147464 0.413081 0)
(-0.124568 0.408023 0)
(-0.104211 0.403005 0)
(-0.0860404 0.39822 0)
(-0.0697283 0.393834 0)
(-0.0549644 0.389983 0)
(-0.0414509 0.386777 0)
(-0.0288973 0.384299 0)
(-0.0169712 0.38257 0)
(-0.00552299 0.378881 0)
(-0.529665 0.305654 0)
(-0.483098 0.355925 0)
(-0.40864 0.366572 0)
(-0.361058 0.381397 0)
(-0.312761 0.388862 0)
(-0.27248 0.393047 0)
(-0.23637 0.394805 0)
(-0.204461 0.394763 0)
(-0.176055 0.39346 0)
(-0.150719 0.391295 0)
(-0.12806 0.388591 0)
(-0.10773 0.385613 0)
(-0.0894119 0.38258 0)
(-0.0728086 0.379672 0)
(-0.0576376 0.377037 0)
(-0.0436279 0.374791 0)
(-0.0305225 0.373022 0)
(-0.0180779 0.371756 0)
(-0.00595609 0.367946 0)
(-0.504873 0.246252 0)
(-0.446049 0.299398 0)
(-0.392274 0.31733 0)
(-0.348252 0.33918 0)
(-0.305044 0.351115 0)
(-0.267727 0.359682 0)
(-0.233858 0.365056 0)
(-0.20357 0.368194 0)
(-0.176325 0.369672 0)
(-0.151794 0.369949 0)
(-0.129652 0.369384 0)
(-0.109607 0.368268 0)
(-0.091383 0.366838 0)
(-0.0747187 0.365288 0)
(-0.0593624 0.363773 0)
(-0.0450698 0.36242 0)
(-0.0316038 0.361323 0)
(-0.0187495 0.360529 0)
(-0.00619287 0.357103 0)
(-0.463307 0.208054 0)
(-0.410522 0.249479 0)
(-0.370441 0.276822 0)
(-0.331119 0.300887 0)
(-0.293642 0.316795 0)
(-0.259703 0.328729 0)
(-0.228511 0.337124 0)
(-0.200172 0.34297 0)
(-0.174382 0.346864 0)
(-0.150916 0.34929 0)
(-0.129532 0.350627 0)
(-0.109996 0.351181 0)
(-0.0920795 0.351196 0)
(-0.0755596 0.350876 0)
(-0.0602162 0.35038 0)
(-0.0458324 0.34984 0)
(-0.0321914 0.349356 0)
(-0.0190881 0.348969 0)
(-0.00629093 0.345865 0)
(-0.41976 0.174989 0)
(-0.378499 0.212898 0)
(-0.345895 0.243138 0)
(-0.311927 0.267784 0)
(-0.279547 0.286253 0)
(-0.249182 0.300544 0)
(-0.220845 0.311293 0)
(-0.194664 0.319337 0)
(-0.170535 0.325256 0)
(-0.148334 0.329523 0)
(-0.127899 0.332514 0)
(-0.109059 0.334535 0)
(-0.0916339 0.335832 0)
(-0.0754381 0.336608 0)
(-0.060285 0.337025 0)
(-0.045986 0.337214 0)
(-0.0323505 0.337274 0)
(-0.0191954 0.337242 0)
(-0.00632318 0.334375 0)
(-0.379096 0.148656 0)
(-0.3481 0.184527 0)
(-0.320686 0.214919 0)
(-0.29185 0.239653 0)
(-0.263825 0.259446 0)
(-0.236918 0.275256 0)
(-0.211405 0.287707 0)
(-0.187461 0.297452 0)
(-0.165106 0.305006 0)
(-0.144303 0.310804 0)
(-0.124961 0.315199 0)
(-0.106966 0.318484 0)
(-0.0901823 0.320897 0)
(-0.0744635 0.322635 0)
(-0.0596553 0.323859 0)
(-0.0455972 0.324694 0)
(-0.0321253 0.325238 0)
(-0.0190813 0.325527 0)
(-0.00628666 0.322892 0)
(-0.342755 0.127818 0)
(-0.31884 0.161722 0)
(-0.295795 0.191167 0)
(-0.271442 0.215691 0)
(-0.247208 0.236042 0)
(-0.223509 0.252763 0)
(-0.200683 0.266373 0)
(-0.17895 0.277376 0)
(-0.158405 0.286205 0)
(-0.139073 0.29324 0)
(-0.120921 0.298798 0)
(-0.103881 0.303149 0)
(-0.0878593 0.306517 0)
(-0.0727442 0.309087 0)
(-0.0584119 0.311012 0)
(-0.0447292 0.312413 0)
(-0.0315569 0.313384 0)
(-0.0187606 0.313959 0)
(-0.00618171 0.311545 0)
(-0.309848 0.111367 0)
(-0.291011 0.143152 0)
(-0.271685 0.171235 0)
(-0.25111 0.195238 0)
(-0.230188 0.215663 0)
(-0.209396 0.232854 0)
(-0.189074 0.247203 0)
(-0.169467 0.259096 0)
(-0.150713 0.268886 0)
(-0.132877 0.276892 0)
(-0.115971 0.283391 0)
(-0.099963 0.288624 0)
(-0.0847945 0.292793 0)
(-0.0703847 0.29607 0)
(-0.0566371 0.298596 0)
(-0.0434437 0.300486 0)
(-0.0306883 0.301827 0)
(-0.018259 0.302651 0)
(-0.00601684 0.300441 0)
(-0.279841 0.0982334 0)
(-0.264764 0.127903 0)
(-0.248562 0.154511 0)
(-0.231144 0.177768 0)
(-0.213103 0.197957 0)
(-0.194911 0.215296 0)
(-0.176891 0.230065 0)
(-0.159292 0.242552 0)
(-0.142272 0.253039 0)
(-0.125924 0.261785 0)
(-0.110286 0.269028 0)
(-0.0953588 0.274973 0)
(-0.0811096 0.279803 0)
(-0.0674838 0.28367 0)
(-0.0544091 0.286704 0)
(-0.0417999 0.289009 0)
(-0.0295612 0.290667 0)
(-0.0176013 0.291705 0)
(-0.00580056 0.289683 0)
(-0.252316 0.087627 0)
(-0.240105 0.115299 0)
(-0.226505 0.140449 0)
(-0.211727 0.162838 0)
(-0.196181 0.182596 0)
(-0.180299 0.199857 0)
(-0.164376 0.214807 0)
(-0.14865 0.227658 0)
(-0.133286 0.238625 0)
(-0.118391 0.247918 0)
(-0.104023 0.255731 0)
(-0.0902009 0.262241 0)
(-0.0769155 0.267604 0)
(-0.0641327 0.271956 0)
(-0.0518005 0.275411 0)
(-0.0398532 0.278064 0)
(-0.0282144 0.279988 0)
(-0.0168109 0.281209 0)
(-0.0055405 0.279356 0)
(-0.226927 0.0789701 0)
(-0.216948 0.104822 0)
(-0.205513 0.128592 0)
(-0.192955 0.150069 0)
(-0.179569 0.169288 0)
(-0.165733 0.186318 0)
(-0.151709 0.201277 0)
(-0.137719 0.214313 0)
(-0.123922 0.225589 0)
(-0.110431 0.235267 0)
(-0.0973143 0.243505 0)
(-0.0846058 0.250451 0)
(-0.0723114 0.256236 0)
(-0.0604137 0.260978 0)
(-0.0488778 0.264778 0)
(-0.0376544 0.267717 0)
(-0.0266839 0.269863 0)
(-0.015909 0.271234 0)
(-0.0052436 0.269536 0)
(-0.203378 0.0718521 0)
(-0.195171 0.0960773 0)
(-0.185544 0.118574 0)
(-0.174866 0.139147 0)
(-0.163354 0.157775 0)
(-0.15133 0.174478 0)
(-0.139024 0.189326 0)
(-0.126635 0.202415 0)
(-0.114313 0.213865 0)
(-0.102168 0.223799 0)
(-0.0902744 0.232342 0)
(-0.078674 0.239614 0)
(-0.067384 0.245726 0)
(-0.0563999 0.250776 0)
(-0.0457 0.25485 0)
(-0.0352492 0.258021 0)
(-0.0250019 0.260347 0)
(-0.0149148 0.261844 0)
(-0.00491638 0.260284 0)
(-0.181411 0.0659702 0)
(-0.174634 0.0887617 0)
(-0.16653 0.110103 0)
(-0.157457 0.129814 0)
(-0.147579 0.147836 0)
(-0.137166 0.16416 0)
(-0.126415 0.178816 0)
(-0.115502 0.191863 0)
(-0.104563 0.203385 0)
(-0.0937036 0.213472 0)
(-0.082997 0.222223 0)
(-0.0724904 0.229731 0)
(-0.062208 0.236087 0)
(-0.0521546 0.241374 0)
(-0.0423192 0.245664 0)
(-0.032678 0.249019 0)
(-0.0231974 0.25149 0)
(-0.0138455 0.253088 0)
(-0.00456453 0.25165 0)
(-0.160801 0.061099 0)
(-0.1552 0.0826396 0)
(-0.148391 0.102947 0)
(-0.140703 0.121856 0)
(-0.13226 0.139287 0)
(-0.123285 0.155208 0)
(-0.113946 0.169623 0)
(-0.104394 0.182563 0)
(-0.0947527 0.194081 0)
(-0.085117 0.204243 0)
(-0.0755584 0.213122 0)
(-0.0661254 0.220792 0)
(-0.0568462 0.227325 0)
(-0.0477322 0.232789 0)
(-0.0387804 0.237244 0)
(-0.0299761 0.240743 0)
(-0.0212955 0.243327 0)
(-0.012716 0.245005 0)
(-0.00419325 0.243675 0)
(-0.14135 0.0570701 0)
(-0.136733 0.0775289 0)
(-0.131041 0.0969237 0)
(-0.124561 0.115101 0)
(-0.117389 0.131972 0)
(-0.109707 0.14749 0)
(-0.101656 0.161638 0)
(-0.0933646 0.174427 0)
(-0.0849404 0.185889 0)
(-0.07647 0.196067 0)
(-0.0680196 0.205014 0)
(-0.0596364 0.212786 0)
(-0.0513508 0.219441 0)
(-0.0431783 0.225032 0)
(-0.0351217 0.22961 0)
(-0.0271736 0.233216 0)
(-0.0193181 0.235887 0)
(-0.0115397 0.237627 0)
(-0.00380656 0.236392 0)
(-0.122884 0.0537578 0)
(-0.119107 0.0732896 0)
(-0.114392 0.091887 0)
(-0.108979 0.109409 0)
(-0.102946 0.125763 0)
(-0.0964352 0.140891 0)
(-0.0895661 0.154764 0)
(-0.0824465 0.167379 0)
(-0.0751687 0.178748 0)
(-0.0678091 0.188898 0)
(-0.0604277 0.197867 0)
(-0.0530693 0.205696 0)
(-0.0457643 0.212429 0)
(-0.0385307 0.218107 0)
(-0.0313753 0.222771 0)
(-0.024296 0.226456 0)
(-0.0172836 0.229191 0)
(-0.0103278 0.230979 0)
(-0.00340813 0.229825 0)
(-0.105247 0.0510678 0)
(-0.102205 0.0698139 0)
(-0.0983572 0.0877241 0)
(-0.0939013 0.104669 0)
(-0.0888979 0.120554 0)
(-0.08346 0.135317 0)
(-0.0776843 0.148922 0)
(-0.0716603 0.16135 0)
(-0.0654662 0.172604 0)
(-0.059168 0.182698 0)
(-0.0528189 0.191656 0)
(-0.0464601 0.199505 0)
(-0.0401208 0.20628 0)
(-0.0338201 0.212013 0)
(-0.0275674 0.216735 0)
(-0.0213645 0.220475 0)
(-0.0152075 0.223255 0)
(-0.00908993 0.225078 0)
(-0.00300067 0.223993 0)
(-0.0883036 0.0489304 0)
(-0.085916 0.0670203 0)
(-0.082853 0.0843473 0)
(-0.0792682 0.100792 0)
(-0.0752095 0.116261 0)
(-0.0707636 0.130692 0)
(-0.0660079 0.14404 0)
(-0.0610154 0.156282 0)
(-0.0558508 0.16741 0)
(-0.0505701 0.177428 0)
(-0.0452196 0.18635 0)
(-0.0398361 0.194194 0)
(-0.034447 0.200985 0)
(-0.029071 0.206746 0)
(-0.0237194 0.211503 0)
(-0.0183966 0.215277 0)
(-0.0131025 0.218088 0)
(-0.00783399 0.219935 0)
(-0.00258676 0.218908 0)
(-0.0719274 0.0472959 0)
(-0.070139 0.0648488 0)
(-0.067799 0.08169 0)
(-0.0650207 0.0977092 0)
(-0.0618402 0.112818 0)
(-0.0583223 0.126952 0)
(-0.0545273 0.140065 0)
(-0.0505129 0.152128 0)
(-0.0463318 0.163127 0)
(-0.0420306 0.173059 0)
(-0.0376485 0.181929 0)
(-0.0332178 0.18975 0)
(-0.0287632 0.196536 0)
(-0.0243028 0.202308 0)
(-0.0198484 0.207082 0)
(-0.0154063 0.210876 0)
(-0.0109789 0.213705 0)
(-0.00656648 0.215567 0)
(-0.00216838 0.214587 0)
(-0.0560042 0.0461316 0)
(-0.0547795 0.0632573 0)
(-0.0531196 0.0797032 0)
(-0.0511009 0.0953681 0)
(-0.0487492 0.110169 0)
(-0.0461102 0.124042 0)
(-0.043229 0.136941 0)
(-0.0401501 0.148835 0)
(-0.036915 0.159705 0)
(-0.0335613 0.169543 0)
(-0.0301216 0.17835 0)
(-0.0266234 0.18613 0)
(-0.0230885 0.192896 0)
(-0.0195337 0.198659 0)
(-0.0159707 0.203433 0)
(-0.0124071 0.207232 0)
(-0.00884728 0.210068 0)
(-0.00529361 0.211938 0)
(-0.00174794 0.210996 0)
(-0.0404278 0.0454176 0)
(-0.0397465 0.0622166 0)
(-0.0387366 0.078352 0)
(-0.0374417 0.093732 0)
(-0.035878 0.10828 0)
(-0.0340756 0.121935 0)
(-0.0320666 0.134652 0)
(-0.0298843 0.146399 0)
(-0.0275604 0.157155 0)
(-0.0251247 0.166908 0)
(-0.0226036 0.175653 0)
(-0.0200201 0.183394 0)
(-0.0173929 0.190135 0)
(-0.014737 0.195886 0)
(-0.0120637 0.200657 0)
(-0.00938085 0.204457 0)
(-0.0066945 0.207294 0)
(-0.00400659 0.20917 0)
(-0.00132188 0.208257 0)
(-0.0251549 0.045164 0)
(-0.0250572 0.0617194 0)
(-0.0247332 0.0776073 0)
(-0.0241952 0.0927465 0)
(-0.0234462 0.107068 0)
(-0.0224998 0.120517 0)
(-0.0213741 0.13305 0)
(-0.0200901 0.144637 0)
(-0.01867 0.155256 0)
(-0.0171358 0.164895 0)
(-0.0155084 0.173548 0)
(-0.0138069 0.181215 0)
(-0.0120481 0.187898 0)
(-0.0102462 0.193605 0)
(-0.00841277 0.198343 0)
(-0.00655758 0.20212 0)
(-0.00468536 0.204945 0)
(-0.00281128 0.206807 0)
(-0.000925162 0.205914 0)
(-0.00888285 0.0452735 0)
(-0.00897467 0.0616942 0)
(-0.00899001 0.0774265 0)
(-0.00891915 0.0924054 0)
(-0.00875716 0.106572 0)
(-0.00850544 0.119877 0)
(-0.0081687 0.132281 0)
(-0.00775387 0.143756 0)
(-0.00726923 0.15428 0)
(-0.00672374 0.163842 0)
(-0.0061265 0.172434 0)
(-0.0054863 0.180053 0)
(-0.00481129 0.186703 0)
(-0.00410876 0.192386 0)
(-0.00338502 0.197107 0)
(-0.00264568 0.200874 0)
(-0.00189391 0.203693 0)
(-0.00113827 0.205552 0)
(-0.000374556 0.204671 0)
)
;

boundaryField
{
    leftWall
    {
        type            fixedValue;
        value           nonuniform 0();
    }
    rightWall
    {
        type            fixedValue;
        value           uniform (0 0 0);
    }
    lowerWall
    {
        type            fixedValue;
        value           nonuniform 0();
    }
    atmosphere
    {
        type            fluxCorrectedVelocity;
        value           nonuniform List<vector> 
23
(
(-0.00876866 0.0107304 0)
(-0.0087367 0.0183128 0)
(-0.00875468 0.0257818 0)
(-0.0087945 0.0331439 0)
(-0.00888285 0.0452913 0)
(-0.00897467 0.0617118 0)
(-0.00899001 0.0774432 0)
(-0.00891915 0.0924208 0)
(-0.00875716 0.106586 0)
(-0.00850544 0.119889 0)
(-0.0081687 0.132291 0)
(-0.00775387 0.143764 0)
(-0.00726923 0.154286 0)
(-0.00672374 0.163846 0)
(-0.0061265 0.172436 0)
(-0.0054863 0.180054 0)
(-0.00481129 0.186702 0)
(-0.00410876 0.192384 0)
(-0.00338502 0.197104 0)
(-0.00264568 0.200869 0)
(-0.00189391 0.203688 0)
(-0.00113827 0.205547 0)
(-0.000374556 0.204665 0)
)
;
    }
    defaultFaces
    {
        type            empty;
    }
    procBoundary3to1
    {
        type            processor;
        value           nonuniform List<vector> 
23
(
(-0.605847 0.617578 0)
(-0.747009 0.715442 0)
(-0.66953 0.75646 0)
(-0.60884 0.720601 0)
(-0.582262 0.659652 0)
(-0.471288 0.628702 0)
(-0.406722 0.597627 0)
(-0.344061 0.576638 0)
(-0.293101 0.557095 0)
(-0.248671 0.539516 0)
(-0.210227 0.522917 0)
(-0.176819 0.507155 0)
(-0.147852 0.492184 0)
(-0.122783 0.478101 0)
(-0.101132 0.464988 0)
(-0.0824794 0.452983 0)
(-0.0664166 0.442202 0)
(-0.0525605 0.432763 0)
(-0.0405447 0.424749 0)
(-0.0300194 0.418262 0)
(-0.0206305 0.413341 0)
(-0.0120442 0.410037 0)
(-0.00387402 0.405654 0)
)
;
    }
    procBoundary3to2
    {
        type            processor;
        value           nonuniform List<vector> 
25
(
(-0.793215 0.051253 0)
(-0.912473 0.225504 0)
(-0.894171 0.226821 0)
(-0.787937 0.127585 0)
(-0.653652 0.0617972 0)
(-0.551334 0.0408102 0)
(-0.487686 0.0221264 0)
(-0.426607 0.0155814 0)
(-0.379176 0.0101478 0)
(-0.337586 0.00712804 0)
(-0.301478 0.00481802 0)
(-0.269481 0.00317301 0)
(-0.240729 0.00189815 0)
(-0.214583 0.00091097 0)
(-0.190557 0.000155586 0)
(-0.168274 -0.000435796 0)
(-0.14743 -0.000899977 0)
(-0.127777 -0.00123255 0)
(-0.109105 -0.0014593 0)
(-0.0912318 -0.00158942 0)
(-0.073996 -0.00163059 0)
(-0.0572475 -0.00158148 0)
(-0.0408439 -0.00148745 0)
(-0.0246237 -0.00105486 0)
(-0.00876996 -0.00116413 0)
)
;
    }
}


// ************************************************************************* //
