/*--------------------------------*- C++ -*----------------------------------*\
| =========                 |                                                 |
| \\      /  F ield         | OpenFOAM: The Open Source CFD Toolbox           |
|  \\    /   O peration     | Version:  2.4.0                                 |
|   \\  /    A nd           | Web:      www.OpenFOAM.org                      |
|    \\/     M anipulation  |                                                 |
\*---------------------------------------------------------------------------*/
FoamFile
{
    version     2.0;
    format      ascii;
    class       volVectorField;
    location    "0.1";
    object      U.water;
}
// * * * * * * * * * * * * * * * * * * * * * * * * * * * * * * * * * * * * * //

dimensions      [0 1 -1 0 0 0 0];

internalField   nonuniform List<vector> 
575
(
(-0.873768 0.543595 0)
(-0.837488 0.624708 0)
(-0.719461 0.625737 0)
(-0.675542 0.580368 0)
(-0.867019 0.452526 0)
(-0.790301 0.472541 0)
(-0.738579 0.433207 0)
(-0.690057 0.460666 0)
(-0.783135 0.302438 0)
(-0.730171 0.293867 0)
(-0.701854 0.336679 0)
(-0.660584 0.377719 0)
(-0.670907 0.172321 0)
(-0.656936 0.210422 0)
(-0.639086 0.25922 0)
(-0.588282 0.269371 0)
(-0.591075 0.117325 0)
(-0.582324 0.152986 0)
(-0.56108 0.190387 0)
(-0.525314 0.198458 0)
(-0.529689 0.0889118 0)
(-0.516266 0.115916 0)
(-0.501058 0.14851 0)
(-0.476272 0.160202 0)
(-0.469511 0.0677065 0)
(-0.460102 0.0928104 0)
(-0.450029 0.117621 0)
(-0.432167 0.137579 0)
(-0.418926 0.0530573 0)
(-0.410981 0.0747798 0)
(-0.403983 0.0967946 0)
(-0.390897 0.11616 0)
(-0.373538 0.0425198 0)
(-0.367715 0.0619929 0)
(-0.362747 0.0811723 0)
(-0.352667 0.0991032 0)
(-0.33405 0.0351241 0)
(-0.329493 0.0523203 0)
(-0.325833 0.0693019 0)
(-0.317971 0.0854836 0)
(-0.299017 0.0295706 0)
(-0.295456 0.044935 0)
(-0.29272 0.0600939 0)
(-0.286522 0.0747173 0)
(-0.267722 0.0252839 0)
(-0.264874 0.039129 0)
(-0.262777 0.0528054 0)
(-0.257854 0.0661065 0)
(-0.239438 0.0219125 0)
(-0.237136 0.0345077 0)
(-0.235496 0.0469641 0)
(-0.231556 0.0591481 0)
(-0.21362 0.0192226 0)
(-0.211752 0.0307867 0)
(-0.210441 0.0422354 0)
(-0.207271 0.053479 0)
(-0.189831 0.0170631 0)
(-0.188312 0.02777 0)
(-0.187252 0.0383807 0)
(-0.184698 0.0488321 0)
(-0.167742 0.0153181 0)
(-0.166506 0.0253128 0)
(-0.165635 0.0352257 0)
(-0.163577 0.0450107 0)
(-0.147039 0.0139083 0)
(-0.146044 0.0233129 0)
(-0.14533 0.0326454 0)
(-0.143684 0.041871 0)
(-0.127497 0.0127884 0)
(-0.126712 0.0217015 0)
(-0.126128 0.0305507 0)
(-0.124825 0.039308 0)
(-0.108918 0.0119163 0)
(-0.108312 0.0204246 0)
(-0.107844 0.0288747 0)
(-0.106833 0.0372435 0)
(-0.0911222 0.0112642 0)
(-0.0906787 0.0194441 0)
(-0.0903174 0.0275695 0)
(-0.0895587 0.0356207 0)
(-0.0739601 0.0108133 0)
(-0.0736588 0.018734 0)
(-0.073401 0.0266018 0)
(-0.0728664 0.0343996 0)
(-0.0572809 0.0105541 0)
(-0.057117 0.0182802 0)
(-0.0569648 0.0259528 0)
(-0.0566319 0.0335561 0)
(-0.0409601 0.0104792 0)
(-0.0409201 0.0180783 0)
(-0.0408817 0.0256149 0)
(-0.0407406 0.0330776 0)
(-0.0247892 0.0106935 0)
(-0.0249356 0.0181854 0)
(-0.0250533 0.0256221 0)
(-0.0251153 0.0329869 0)
(-0.00876804 0.0107422 0)
(-0.00873688 0.0183191 0)
(-0.00875517 0.0257852 0)
(-0.00879525 0.033146 0)
(-0.616463 0.571791 0)
(-0.489031 0.551909 0)
(-0.425769 0.539701 0)
(-0.358141 0.526535 0)
(-0.30691 0.514256 0)
(-0.261564 0.502311 0)
(-0.222681 0.490517 0)
(-0.188815 0.478925 0)
(-0.159328 0.467614 0)
(-0.133627 0.456745 0)
(-0.111223 0.446453 0)
(-0.0916891 0.436903 0)
(-0.0746314 0.428232 0)
(-0.0596806 0.420571 0)
(-0.0464821 0.414026 0)
(-0.0347058 0.408691 0)
(-0.024018 0.404637 0)
(-0.0141559 0.40189 0)
(-0.00473144 0.396915 0)
(-0.595164 0.497659 0)
(-0.504559 0.469615 0)
(-0.428213 0.482833 0)
(-0.366244 0.475598 0)
(-0.314482 0.471353 0)
(-0.26975 0.465002 0)
(-0.231093 0.458019 0)
(-0.197324 0.450512 0)
(-0.167758 0.442749 0)
(-0.141807 0.434969 0)
(-0.118992 0.427373 0)
(-0.0988957 0.420159 0)
(-0.0811409 0.41349 0)
(-0.0653757 0.407518 0)
(-0.051266 0.402362 0)
(-0.0384952 0.398126 0)
(-0.0267449 0.394895 0)
(-0.0156691 0.392703 0)
(-0.00515837 0.388844 0)
(-0.563283 0.386185 0)
(-0.499328 0.411193 0)
(-0.422267 0.423081 0)
(-0.366852 0.426902 0)
(-0.316246 0.429208 0)
(-0.273266 0.428315 0)
(-0.235556 0.425919 0)
(-0.202455 0.422299 0)
(-0.173261 0.417897 0)
(-0.147442 0.413034 0)
(-0.12455 0.407979 0)
(-0.104196 0.402963 0)
(-0.0860281 0.39818 0)
(-0.0697188 0.393796 0)
(-0.0549573 0.389946 0)
(-0.0414458 0.38674 0)
(-0.0288939 0.384263 0)
(-0.0169691 0.382535 0)
(-0.00552222 0.378846 0)
(-0.529584 0.305644 0)
(-0.483024 0.355893 0)
(-0.408572 0.366528 0)
(-0.360997 0.381347 0)
(-0.312709 0.388809 0)
(-0.272435 0.392994 0)
(-0.236331 0.394755 0)
(-0.204428 0.394715 0)
(-0.176026 0.393415 0)
(-0.150695 0.391253 0)
(-0.12804 0.388551 0)
(-0.107713 0.385574 0)
(-0.0893983 0.382542 0)
(-0.0727978 0.379636 0)
(-0.0576294 0.377002 0)
(-0.043622 0.374757 0)
(-0.0305184 0.372989 0)
(-0.0180754 0.371724 0)
(-0.00595514 0.367913 0)
(-0.504809 0.24625 0)
(-0.445987 0.299378 0)
(-0.392215 0.317299 0)
(-0.348196 0.339141 0)
(-0.304993 0.351072 0)
(-0.267681 0.359638 0)
(-0.233818 0.365012 0)
(-0.203535 0.368152 0)
(-0.176295 0.369632 0)
(-0.151768 0.36991 0)
(-0.12963 0.369347 0)
(-0.109589 0.368232 0)
(-0.0913682 0.366804 0)
(-0.074707 0.365255 0)
(-0.0593533 0.363741 0)
(-0.0450632 0.362388 0)
(-0.0315991 0.361293 0)
(-0.0187467 0.360499 0)
(-0.0061919 0.357073 0)
(-0.463258 0.208057 0)
(-0.410471 0.249469 0)
(-0.370389 0.276801 0)
(-0.331068 0.300858 0)
(-0.293594 0.316762 0)
(-0.259659 0.328693 0)
(-0.228471 0.337088 0)
(-0.200136 0.342934 0)
(-0.17435 0.346828 0)
(-0.150889 0.349256 0)
(-0.129508 0.350594 0)
(-0.109976 0.351149 0)
(-0.0920637 0.351165 0)
(-0.075547 0.350845 0)
(-0.0602065 0.350351 0)
(-0.0458251 0.349811 0)
(-0.0321864 0.349327 0)
(-0.0190851 0.348941 0)
(-0.00628984 0.345837 0)
(-0.419721 0.174997 0)
(-0.378458 0.212895 0)
(-0.345851 0.243125 0)
(-0.311883 0.267764 0)
(-0.279503 0.286228 0)
(-0.249139 0.300515 0)
(-0.220805 0.311263 0)
(-0.194628 0.319307 0)
(-0.170503 0.325226 0)
(-0.148305 0.329493 0)
(-0.127875 0.332485 0)
(-0.109039 0.334506 0)
(-0.0916175 0.335804 0)
(-0.0754249 0.33658 0)
(-0.0602747 0.336998 0)
(-0.0459783 0.337188 0)
(-0.0323452 0.337248 0)
(-0.0191922 0.337217 0)
(-0.00632209 0.334349 0)
(-0.379065 0.148668 0)
(-0.348066 0.184529 0)
(-0.32065 0.214913 0)
(-0.291811 0.239641 0)
(-0.263784 0.259428 0)
(-0.236879 0.275235 0)
(-0.211367 0.287683 0)
(-0.187425 0.297427 0)
(-0.165074 0.304981 0)
(-0.144274 0.310779 0)
(-0.124937 0.315174 0)
(-0.106946 0.318459 0)
(-0.0901655 0.320872 0)
(-0.07445 0.322611 0)
(-0.0596447 0.323834 0)
(-0.0455893 0.32467 0)
(-0.0321198 0.325215 0)
(-0.0190779 0.325504 0)
(-0.00628549 0.322868 0)
(-0.342731 0.127832 0)
(-0.318813 0.161729 0)
(-0.295764 0.191167 0)
(-0.271408 0.215685 0)
(-0.247172 0.236031 0)
(-0.223472 0.252748 0)
(-0.200646 0.266356 0)
(-0.178915 0.277357 0)
(-0.158373 0.286185 0)
(-0.139045 0.293219 0)
(-0.120897 0.298777 0)
(-0.103861 0.303128 0)
(-0.0878424 0.306495 0)
(-0.0727306 0.309066 0)
(-0.0584011 0.31099 0)
(-0.0447211 0.312392 0)
(-0.0315512 0.313363 0)
(-0.0187572 0.313938 0)
(-0.00618057 0.311524 0)
(-0.30983 0.111383 0)
(-0.290989 0.143162 0)
(-0.271659 0.17124 0)
(-0.251081 0.195237 0)
(-0.230156 0.215658 0)
(-0.209362 0.232845 0)
(-0.189039 0.247192 0)
(-0.169434 0.259082 0)
(-0.150682 0.268871 0)
(-0.13285 0.276876 0)
(-0.115947 0.283374 0)
(-0.0999428 0.288606 0)
(-0.0847778 0.292774 0)
(-0.0703711 0.296051 0)
(-0.0566264 0.298577 0)
(-0.0434356 0.300467 0)
(-0.0306826 0.301808 0)
(-0.0182555 0.302632 0)
(-0.00601566 0.300423 0)
(-0.279826 0.0982506 0)
(-0.264746 0.127916 0)
(-0.248541 0.15452 0)
(-0.231119 0.177773 0)
(-0.213075 0.197957 0)
(-0.19488 0.215293 0)
(-0.176859 0.230059 0)
(-0.15926 0.242544 0)
(-0.142243 0.253028 0)
(-0.125897 0.261773 0)
(-0.110263 0.269014 0)
(-0.0953392 0.274958 0)
(-0.0810933 0.279787 0)
(-0.0674705 0.283654 0)
(-0.0543985 0.286688 0)
(-0.0417919 0.288993 0)
(-0.0295555 0.290651 0)
(-0.0175979 0.291689 0)
(-0.00579943 0.289666 0)
(-0.252305 0.0876455 0)
(-0.240091 0.115314 0)
(-0.226487 0.140461 0)
(-0.211706 0.162846 0)
(-0.196156 0.182601 0)
(-0.180271 0.199859 0)
(-0.164346 0.214806 0)
(-0.148621 0.227654 0)
(-0.133259 0.238618 0)
(-0.118366 0.247909 0)
(-0.104001 0.25572 0)
(-0.0901822 0.262229 0)
(-0.0768998 0.267591 0)
(-0.0641198 0.271943 0)
(-0.0517902 0.275398 0)
(-0.0398454 0.27805 0)
(-0.0282089 0.279974 0)
(-0.0168076 0.281194 0)
(-0.00553936 0.279342 0)
(-0.226917 0.0789899 0)
(-0.216937 0.104839 0)
(-0.205498 0.128607 0)
(-0.192936 0.150081 0)
(-0.179546 0.169297 0)
(-0.165707 0.186324 0)
(-0.151682 0.20128 0)
(-0.137692 0.214313 0)
(-0.123897 0.225586 0)
(-0.110408 0.235261 0)
(-0.0972939 0.243498 0)
(-0.0845882 0.250442 0)
(-0.0722964 0.256226 0)
(-0.0604013 0.260968 0)
(-0.0488678 0.264766 0)
(-0.0376468 0.267705 0)
(-0.0266785 0.269851 0)
(-0.0159058 0.271222 0)
(-0.0052425 0.269524 0)
(-0.20337 0.0718731 0)
(-0.195161 0.0960967 0)
(-0.185531 0.118591 0)
(-0.174849 0.139162 0)
(-0.163334 0.157787 0)
(-0.151307 0.174488 0)
(-0.139 0.189332 0)
(-0.126611 0.202418 0)
(-0.11429 0.213865 0)
(-0.102147 0.223796 0)
(-0.0902556 0.232338 0)
(-0.0786576 0.239608 0)
(-0.06737 0.245718 0)
(-0.0563881 0.250767 0)
(-0.0456905 0.254841 0)
(-0.0352419 0.258012 0)
(-0.0249968 0.260338 0)
(-0.0149117 0.261834 0)
(-0.00491531 0.260274 0)
(-0.181404 0.0659925 0)
(-0.174626 0.0887828 0)
(-0.166519 0.110122 0)
(-0.157443 0.129832 0)
(-0.147562 0.147851 0)
(-0.137146 0.164173 0)
(-0.126394 0.178825 0)
(-0.115481 0.191869 0)
(-0.104543 0.203388 0)
(-0.0936848 0.213473 0)
(-0.0829799 0.222221 0)
(-0.0724753 0.229727 0)
(-0.0621949 0.236082 0)
(-0.0521436 0.241368 0)
(-0.0423102 0.245657 0)
(-0.0326711 0.249012 0)
(-0.0231924 0.251482 0)
(-0.0138425 0.25308 0)
(-0.00456351 0.251642 0)
(-0.160796 0.0611226 0)
(-0.155193 0.0826621 0)
(-0.148382 0.102969 0)
(-0.14069 0.121876 0)
(-0.132245 0.139304 0)
(-0.123268 0.155223 0)
(-0.113928 0.169634 0)
(-0.104376 0.182571 0)
(-0.0947348 0.194086 0)
(-0.0851003 0.204246 0)
(-0.0755431 0.213123 0)
(-0.0661117 0.220791 0)
(-0.0568342 0.227323 0)
(-0.047722 0.232786 0)
(-0.038772 0.23724 0)
(-0.0299695 0.240738 0)
(-0.0212908 0.243321 0)
(-0.0127132 0.244999 0)
(-0.0041923 0.243669 0)
(-0.141345 0.0570949 0)
(-0.136727 0.0775528 0)
(-0.131033 0.0969463 0)
(-0.12455 0.115122 0)
(-0.117376 0.131991 0)
(-0.109692 0.147506 0)
(-0.10164 0.161651 0)
(-0.0933487 0.174437 0)
(-0.084925 0.185896 0)
(-0.0764554 0.196071 0)
(-0.068006 0.205016 0)
(-0.0596241 0.212787 0)
(-0.0513399 0.219441 0)
(-0.0431689 0.225031 0)
(-0.035114 0.229607 0)
(-0.0271675 0.233213 0)
(-0.0193137 0.235883 0)
(-0.0115371 0.237623 0)
(-0.00380567 0.236388 0)
(-0.12288 0.0537835 0)
(-0.119102 0.0733144 0)
(-0.114385 0.0919106 0)
(-0.10897 0.109431 0)
(-0.102935 0.125782 0)
(-0.0964229 0.140908 0)
(-0.0895529 0.154779 0)
(-0.0824332 0.16739 0)
(-0.0751557 0.178757 0)
(-0.0677966 0.188905 0)
(-0.0604159 0.197872 0)
(-0.0530584 0.205699 0)
(-0.0457545 0.21243 0)
(-0.0385222 0.218107 0)
(-0.0313682 0.22277 0)
(-0.0242904 0.226454 0)
(-0.0172796 0.229189 0)
(-0.0103254 0.230977 0)
(-0.00340732 0.229822 0)
(-0.105244 0.0510943 0)
(-0.102201 0.0698393 0)
(-0.0983516 0.0877484 0)
(-0.0938941 0.104691 0)
(-0.0888891 0.120575 0)
(-0.08345 0.135336 0)
(-0.0776736 0.148937 0)
(-0.0716495 0.161363 0)
(-0.0654555 0.172615 0)
(-0.0591574 0.182707 0)
(-0.0528088 0.191662 0)
(-0.0464506 0.19951 0)
(-0.0401122 0.206283 0)
(-0.0338125 0.212015 0)
(-0.0275611 0.216736 0)
(-0.0213596 0.220475 0)
(-0.0152039 0.223255 0)
(-0.00908781 0.225077 0)
(-0.00299997 0.223992 0)
(-0.0883011 0.0489572 0)
(-0.0859126 0.0670461 0)
(-0.0828485 0.084372 0)
(-0.0792626 0.100815 0)
(-0.0752026 0.116283 0)
(-0.0707558 0.130711 0)
(-0.0659996 0.144057 0)
(-0.0610068 0.156297 0)
(-0.0558421 0.167422 0)
(-0.0505614 0.177438 0)
(-0.0452111 0.186358 0)
(-0.0398281 0.1942 0)
(-0.0344396 0.200989 0)
(-0.0290645 0.206749 0)
(-0.0237139 0.211505 0)
(-0.0183923 0.215279 0)
(-0.0130994 0.218089 0)
(-0.00783215 0.219935 0)
(-0.00258615 0.218908 0)
(-0.0719255 0.0473226 0)
(-0.0701365 0.0648748 0)
(-0.0677957 0.081715 0)
(-0.0650164 0.0977329 0)
(-0.0618351 0.11284 0)
(-0.0583165 0.126972 0)
(-0.054521 0.140082 0)
(-0.0505063 0.152144 0)
(-0.0463251 0.16314 0)
(-0.0420237 0.17307 0)
(-0.0376418 0.181938 0)
(-0.0332113 0.189757 0)
(-0.0287572 0.196542 0)
(-0.0242975 0.202312 0)
(-0.0198438 0.207085 0)
(-0.0154026 0.210878 0)
(-0.0109764 0.213706 0)
(-0.00656495 0.215569 0)
(-0.00216788 0.214589 0)
(-0.056003 0.0461578 0)
(-0.0547777 0.0632829 0)
(-0.0531173 0.0797279 0)
(-0.0510979 0.0953917 0)
(-0.0487456 0.110191 0)
(-0.0461061 0.124062 0)
(-0.0432246 0.13696 0)
(-0.0401455 0.148852 0)
(-0.0369102 0.15972 0)
(-0.0335563 0.169556 0)
(-0.0301166 0.17836 0)
(-0.0266185 0.186139 0)
(-0.0230839 0.192903 0)
(-0.0195295 0.198664 0)
(-0.0159672 0.203438 0)
(-0.0124043 0.207236 0)
(-0.00884527 0.210071 0)
(-0.0052924 0.211941 0)
(-0.00174753 0.210998 0)
(-0.040427 0.0454421 0)
(-0.0397454 0.0622405 0)
(-0.0387351 0.0783751 0)
(-0.0374398 0.0937542 0)
(-0.0358757 0.108301 0)
(-0.034073 0.121954 0)
(-0.0320639 0.13467 0)
(-0.0298813 0.146416 0)
(-0.0275572 0.15717 0)
(-0.0251213 0.166921 0)
(-0.0226002 0.175665 0)
(-0.0200167 0.183403 0)
(-0.0173897 0.190143 0)
(-0.0147341 0.195893 0)
(-0.0120612 0.200662 0)
(-0.00937887 0.204462 0)
(-0.00669308 0.207298 0)
(-0.00400573 0.209173 0)
(-0.00132159 0.20826 0)
(-0.0251552 0.0451857 0)
(-0.0250567 0.0617406 0)
(-0.0247323 0.0776279 0)
(-0.0241942 0.0927663 0)
(-0.023445 0.107087 0)
(-0.0224984 0.120534 0)
(-0.0213725 0.133067 0)
(-0.0200885 0.144652 0)
(-0.0186682 0.15527 0)
(-0.0171339 0.164908 0)
(-0.0155064 0.173559 0)
(-0.0138049 0.181224 0)
(-0.0120462 0.187906 0)
(-0.0102444 0.193612 0)
(-0.00841129 0.198349 0)
(-0.0065564 0.202125 0)
(-0.00468452 0.204949 0)
(-0.00281076 0.206811 0)
(-0.000924981 0.205918 0)
(-0.00888323 0.0452928 0)
(-0.00897458 0.0617134 0)
(-0.00898974 0.0774454 0)
(-0.00891879 0.0924237 0)
(-0.00875673 0.106589 0)
(-0.00850497 0.119893 0)
(-0.00816819 0.132297 0)
(-0.00775331 0.14377 0)
(-0.00726862 0.154294 0)
(-0.00672309 0.163854 0)
(-0.00612583 0.172444 0)
(-0.00548563 0.180063 0)
(-0.00481066 0.186711 0)
(-0.00410818 0.192393 0)
(-0.00338452 0.197113 0)
(-0.00264529 0.200878 0)
(-0.00189363 0.203697 0)
(-0.0011381 0.205556 0)
(-0.000374494 0.204674 0)
)
;

boundaryField
{
    leftWall
    {
        type            fixedValue;
        value           nonuniform 0();
    }
    rightWall
    {
        type            fixedValue;
        value           uniform (0 0 0);
    }
    lowerWall
    {
        type            fixedValue;
        value           nonuniform 0();
    }
    atmosphere
    {
        type            fluxCorrectedVelocity;
        value           nonuniform List<vector> 
23
(
(-0.00876804 0.0107304 0)
(-0.00873688 0.0183128 0)
(-0.00875517 0.0257818 0)
(-0.00879525 0.0331439 0)
(-0.00888323 0.0452913 0)
(-0.00897458 0.0617118 0)
(-0.00898974 0.0774432 0)
(-0.00891879 0.0924208 0)
(-0.00875673 0.106586 0)
(-0.00850497 0.119889 0)
(-0.00816819 0.132291 0)
(-0.00775331 0.143764 0)
(-0.00726862 0.154286 0)
(-0.00672309 0.163846 0)
(-0.00612583 0.172436 0)
(-0.00548563 0.180054 0)
(-0.00481066 0.186702 0)
(-0.00410818 0.192384 0)
(-0.00338452 0.197104 0)
(-0.00264529 0.200869 0)
(-0.00189363 0.203688 0)
(-0.0011381 0.205547 0)
(-0.000374494 0.204665 0)
)
;
    }
    defaultFaces
    {
        type            empty;
    }
    procBoundary3to1
    {
        type            processor;
        value           nonuniform List<vector> 
23
(
(-0.556656 0.456772 0)
(-0.74688 0.715236 0)
(-0.669383 0.756343 0)
(-0.608656 0.720495 0)
(-0.582127 0.659545 0)
(-0.471191 0.628603 0)
(-0.406649 0.597532 0)
(-0.344005 0.576547 0)
(-0.29306 0.55701 0)
(-0.24864 0.539437 0)
(-0.210204 0.522845 0)
(-0.176801 0.507088 0)
(-0.147837 0.492123 0)
(-0.12277 0.478044 0)
(-0.101121 0.464934 0)
(-0.0824704 0.452933 0)
(-0.0664096 0.442154 0)
(-0.0525553 0.432717 0)
(-0.0405411 0.424705 0)
(-0.0300171 0.418218 0)
(-0.0206292 0.413298 0)
(-0.0120431 0.409995 0)
(-0.00387332 0.405612 0)
)
;
    }
    procBoundary3to2
    {
        type            processor;
        value           nonuniform List<vector> 
25
(
(-0.731676 -0.11276 0)
(-0.912318 0.225147 0)
(-0.894152 0.226845 0)
(-0.787928 0.127625 0)
(-0.653656 0.0618284 0)
(-0.551339 0.0408404 0)
(-0.48769 0.0221545 0)
(-0.42661 0.0156078 0)
(-0.37918 0.0101733 0)
(-0.337589 0.00715226 0)
(-0.301482 0.0048415 0)
(-0.269484 0.00319606 0)
(-0.240733 0.00192135 0)
(-0.214585 0.000934363 0)
(-0.19056 0.000179498 0)
(-0.168276 -0.000411079 0)
(-0.147433 -0.000874274 0)
(-0.127779 -0.00120613 0)
(-0.109107 -0.00143246 0)
(-0.091233 -0.00156243 0)
(-0.0739972 -0.00160393 0)
(-0.0572476 -0.00155561 0)
(-0.040844 -0.00146229 0)
(-0.0246226 -0.00103231 0)
(-0.00876895 -0.00114483 0)
)
;
    }
}


// ************************************************************************* //
