/*--------------------------------*- C++ -*----------------------------------*\
| =========                 |                                                 |
| \\      /  F ield         | OpenFOAM: The Open Source CFD Toolbox           |
|  \\    /   O peration     | Version:  2.4.0                                 |
|   \\  /    A nd           | Web:      www.OpenFOAM.org                      |
|    \\/     M anipulation  |                                                 |
\*---------------------------------------------------------------------------*/
FoamFile
{
    version     2.0;
    format      ascii;
    class       volScalarField;
    location    "1";
    object      alpha.water;
}
// * * * * * * * * * * * * * * * * * * * * * * * * * * * * * * * * * * * * * //

dimensions      [0 0 0 0 0 0 0];

internalField   nonuniform List<scalar> 
575
(
1.64676e-09
4.27103e-10
3.43937e-10
3.72882e-10
2.38814e-10
2.57847e-10
3.11996e-10
4.19454e-10
2.06375e-10
2.5308e-10
2.98116e-10
3.63479e-10
1.10515e-10
1.52282e-10
1.98012e-10
2.41851e-10
5.99278e-11
6.99681e-11
9.63411e-11
1.20078e-10
2.18896e-11
3.04748e-11
4.12609e-11
5.33546e-11
9.36979e-12
1.25499e-11
1.70299e-11
2.25915e-11
2.89659e-12
3.6597e-12
4.48625e-12
5.24076e-12
6.40644e-13
7.53178e-13
8.4597e-13
8.94229e-13
1.11027e-13
1.20156e-13
1.22896e-13
1.17285e-13
1.56256e-14
1.53786e-14
1.42036e-14
1.2179e-14
1.84389e-15
1.63426e-15
1.35316e-15
1.03756e-15
1.87846e-16
1.48475e-16
1.09397e-16
7.46352e-17
1.67809e-17
1.17347e-17
7.64452e-18
4.61685e-18
1.3314e-18
8.16819e-19
4.66828e-19
2.4776e-19
9.42966e-20
5.02941e-20
2.49884e-20
1.15456e-20
5.97701e-21
2.74127e-21
1.17088e-21
4.65635e-22
3.40234e-22
1.32362e-22
4.79629e-23
1.63214e-23
1.73773e-23
5.64879e-24
1.72417e-24
6.14298e-25
7.88723e-25
2.11544e-25
6.40346e-26
1.19601e-25
3.22834e-26
7.69141e-27
9.34083e-27
7.81651e-26
1.23915e-27
6.64625e-28
4.8863e-27
5.12255e-26
6.02725e-29
2.49564e-28
2.74982e-27
3.18049e-26
1.15308e-29
1.29552e-28
1.70938e-27
2.42067e-26
1.75401e-29
2.55866e-28
3.70914e-27
5.17296e-26
9.14959e-10
2.11125e-09
3.50049e-09
4.21865e-09
4.21579e-09
3.311e-09
2.07889e-09
1.18054e-09
7.78508e-10
8.59359e-10
1.69467e-09
2.03889e-09
2.00919e-09
1.45585e-09
8.26147e-10
5.4485e-10
6.43857e-10
8.99382e-10
7.17098e-10
8.31626e-10
2.16048e-09
3.23138e-09
3.28229e-09
2.62389e-09
1.82898e-09
1.17943e-09
6.71785e-10
3.67391e-10
2.66717e-10
1.95693e-10
1.63895e-10
1.54333e-10
2.01396e-10
2.89014e-10
4.45108e-10
6.62927e-10
9.82e-10
6.97849e-10
7.19546e-10
1.68225e-09
2.09528e-09
1.82169e-09
1.34628e-09
8.88017e-10
5.27027e-10
2.79333e-10
1.34315e-10
5.40869e-11
2.40853e-11
2.4421e-11
5.60233e-11
1.52784e-10
2.88504e-10
5.25551e-10
8.44503e-10
1.07682e-09
6.52554e-10
5.1126e-10
1.01672e-09
1.00982e-09
8.10341e-10
5.51889e-10
3.21947e-10
1.65189e-10
7.67293e-11
3.18542e-11
1.30152e-11
8.75923e-12
1.95087e-11
6.28014e-11
2.10211e-10
4.16434e-10
7.6149e-10
1.07784e-09
1.18179e-09
4.83795e-10
2.88682e-10
4.41181e-10
3.83851e-10
2.69588e-10
1.60252e-10
8.14735e-11
3.64714e-11
1.48805e-11
5.63141e-12
2.68461e-12
5.4543e-12
2.37396e-11
8.28692e-11
2.91106e-10
6.10694e-10
1.08024e-09
1.32975e-09
1.23968e-09
3.44308e-10
1.22083e-10
1.33555e-10
1.03355e-10
6.3397e-11
3.25051e-11
1.4199e-11
5.50552e-12
1.96247e-12
7.64283e-13
1.07107e-12
5.80219e-12
2.98537e-11
1.03115e-10
3.64046e-10
9.96592e-10
1.58288e-09
1.52629e-09
1.1412e-09
2.16523e-10
2.97044e-11
2.66739e-11
1.8172e-11
9.89198e-12
4.55167e-12
1.80083e-12
6.34285e-13
2.1744e-13
1.68909e-13
8.72498e-13
6.22964e-12
3.39695e-11
1.20035e-10
4.30563e-10
1.43295e-09
2.02024e-09
1.62981e-09
8.98278e-10
2.06988e-10
5.33261e-12
3.99144e-12
2.34843e-12
1.12341e-12
4.56032e-13
1.6246e-13
5.221e-14
2.42268e-14
8.7846e-14
7.66087e-13
6.00124e-12
3.37317e-11
1.3047e-10
5.05387e-10
1.67937e-09
2.09882e-09
1.5979e-09
8.58837e-10
2.20084e-10
7.38901e-13
4.64975e-13
2.34965e-13
9.87801e-14
3.53467e-14
1.13572e-14
3.80049e-15
5.98157e-15
5.86176e-14
5.9909e-13
4.98397e-12
2.82895e-11
1.26053e-10
4.96669e-10
1.67625e-09
2.0985e-09
1.65843e-09
1.05116e-09
2.47494e-10
7.97693e-14
4.25292e-14
1.85343e-14
6.84036e-15
2.19128e-15
6.59662e-16
3.62965e-16
2.52689e-15
3.50307e-14
3.92816e-13
3.46626e-12
1.87417e-11
6.8275e-11
3.32743e-10
1.20545e-09
2.02609e-09
1.73458e-09
1.18683e-09
2.38246e-10
6.88402e-15
3.12629e-15
1.18332e-15
3.85026e-16
1.12627e-16
3.7485e-17
6.99603e-17
1.00804e-15
1.65679e-14
2.07158e-13
1.95389e-12
9.20285e-12
2.74379e-11
2.21484e-10
8.90615e-10
1.65653e-09
1.71365e-09
1.01691e-09
1.99679e-10
4.91342e-16
1.91152e-16
6.31659e-17
1.83227e-17
5.24805e-18
3.88672e-18
2.50345e-17
3.55173e-16
5.91241e-15
8.51842e-14
8.51965e-13
4.14317e-12
1.35445e-11
1.10569e-10
5.49419e-10
1.13348e-09
1.2019e-09
5.77532e-10
1.22598e-10
2.97711e-17
9.95974e-18
2.88148e-18
7.75405e-19
4.23149e-19
2.20083e-18
2.10095e-17
2.06444e-16
2.21973e-15
3.00328e-14
3.0815e-13
1.59969e-12
5.61895e-12
3.24935e-11
3.15983e-10
7.33051e-10
7.77573e-10
3.07306e-10
6.34665e-11
1.55467e-18
4.47166e-19
1.15755e-19
5.34326e-20
2.80946e-19
2.85969e-18
2.81176e-17
2.45665e-16
1.88574e-15
1.46644e-14
1.1908e-13
6.06416e-13
2.42073e-12
1.22186e-11
1.087e-10
3.74331e-10
3.15679e-10
9.36522e-11
1.79485e-11
7.02411e-20
1.75135e-20
6.67599e-21
3.26471e-20
3.5814e-19
3.87374e-18
3.79031e-17
3.16946e-16
2.18195e-15
1.24911e-14
6.3545e-14
3.05668e-13
1.18103e-12
4.88216e-12
2.62088e-11
6.63629e-11
7.80216e-11
1.3751e-11
3.89774e-12
2.75644e-21
8.24697e-22
3.17339e-21
3.71367e-20
4.37782e-19
4.77591e-18
4.57573e-17
3.69164e-16
2.41517e-15
1.27259e-14
5.30135e-14
2.65308e-13
9.10009e-13
2.79773e-12
8.01371e-12
1.26798e-11
9.39555e-12
2.0938e-12
8.6889e-13
1.08244e-22
2.4996e-22
3.07748e-21
3.94042e-20
4.73947e-19
5.11095e-18
4.74653e-17
3.69072e-16
2.32135e-15
1.19142e-14
5.26294e-14
2.63694e-13
6.57339e-13
1.24653e-12
2.10512e-12
2.36536e-12
1.20151e-12
3.92441e-13
2.78771e-13
1.57986e-23
1.97066e-22
2.74871e-21
3.62254e-20
4.34471e-19
4.57237e-18
4.09586e-17
3.07555e-16
1.87075e-15
9.46496e-15
4.3572e-14
1.92313e-13
4.00879e-13
5.62275e-13
7.05971e-13
6.0188e-13
2.98803e-13
1.5541e-13
1.54333e-13
9.34577e-24
1.44775e-22
2.09252e-21
2.77365e-20
3.27291e-19
3.34762e-18
2.89859e-17
2.10844e-16
1.2428e-15
6.08462e-15
2.33702e-14
9.98745e-14
2.07448e-13
2.4524e-13
2.86857e-13
2.25693e-13
1.264e-13
7.27224e-14
9.38202e-14
5.71818e-24
9.16121e-23
1.34712e-21
1.78127e-20
2.07355e-19
2.0799e-18
1.75573e-17
1.23127e-16
6.89991e-16
3.13004e-15
1.08276e-14
3.59784e-14
8.34228e-14
9.07832e-14
1.04236e-13
8.40134e-14
5.66272e-14
3.33407e-14
5.59517e-14
3.08165e-24
5.06115e-23
7.62826e-22
1.02973e-20
1.22322e-19
1.23973e-18
1.02483e-17
6.72454e-17
3.42716e-16
1.35632e-15
4.26405e-15
1.03788e-14
2.43742e-14
2.72086e-14
2.96496e-14
2.58102e-14
2.01042e-14
1.35688e-14
3.14287e-14
1.50348e-24
2.61332e-23
4.2636e-22
6.268e-21
7.96392e-20
8.19564e-19
6.41128e-18
3.75087e-17
1.67363e-16
5.48236e-16
1.48336e-15
2.71825e-15
5.65083e-15
6.54545e-15
6.9979e-15
6.38393e-15
5.71955e-15
4.77758e-15
1.64095e-14
7.23529e-25
1.48623e-23
2.86375e-22
4.62915e-21
5.91203e-20
5.65435e-19
3.90896e-18
1.95315e-17
7.49451e-17
2.02313e-16
4.76585e-16
7.41146e-16
1.26922e-15
1.43435e-15
1.52567e-15
1.4368e-15
1.48284e-15
1.4841e-15
7.55879e-15
4.71941e-25
1.22282e-23
2.43888e-22
3.55102e-21
3.8293e-20
3.04013e-19
1.76558e-18
7.40932e-18
2.48409e-17
5.77344e-17
1.2398e-16
1.74933e-16
2.64565e-16
2.89665e-16
3.05192e-16
2.90548e-16
3.33936e-16
3.66826e-16
2.57668e-15
6.24623e-25
1.16081e-23
1.61127e-22
1.67109e-21
1.31896e-20
8.03357e-20
3.86817e-19
1.39242e-18
4.20075e-18
8.70545e-18
1.73439e-17
2.28361e-17
3.21529e-17
3.40799e-17
3.51163e-17
3.339e-17
4.20507e-17
5.00735e-17
4.54118e-16
)
;

boundaryField
{
    leftWall
    {
        type            zeroGradient;
    }
    rightWall
    {
        type            zeroGradient;
    }
    lowerWall
    {
        type            zeroGradient;
    }
    atmosphere
    {
        type            inletOutlet;
        inletValue      uniform 0;
        value           uniform 0;
    }
    defaultFaces
    {
        type            empty;
    }
    procBoundary3to1
    {
        type            processor;
        value           nonuniform List<scalar> 
23
(
4.61767e-08
3.62157e-08
7.32215e-09
1.975e-09
7.53126e-10
1.34246e-09
2.96809e-09
3.74517e-09
4.14687e-09
3.95523e-09
2.98882e-09
1.81007e-09
1.7654e-09
3.64697e-09
7.23966e-09
7.45138e-09
5.46231e-09
3.82178e-09
2.8832e-09
1.84877e-09
9.02044e-10
9.78874e-10
7.22132e-10
)
;
    }
    procBoundary3to2
    {
        type            processor;
        value           nonuniform List<scalar> 
25
(
1.14613e-08
2.81668e-10
1.30471e-10
7.51783e-11
3.65438e-11
1.73012e-11
7.22264e-12
2.27693e-12
5.32446e-13
9.90514e-14
1.51963e-14
1.9794e-15
2.25135e-16
2.26663e-17
2.04493e-18
1.66164e-19
1.2212e-20
8.16994e-22
4.98444e-23
2.75968e-24
1.40804e-25
6.65192e-27
2.81303e-28
1.16118e-29
9.5365e-31
)
;
    }
}


// ************************************************************************* //
