/*--------------------------------*- C++ -*----------------------------------*\
| =========                 |                                                 |
| \\      /  F ield         | OpenFOAM: The Open Source CFD Toolbox           |
|  \\    /   O peration     | Version:  2.4.0                                 |
|   \\  /    A nd           | Web:      www.OpenFOAM.org                      |
|    \\/     M anipulation  |                                                 |
\*---------------------------------------------------------------------------*/
FoamFile
{
    version     2.0;
    format      ascii;
    class       volScalarField;
    location    "1";
    object      alpha.mercury;
}
// * * * * * * * * * * * * * * * * * * * * * * * * * * * * * * * * * * * * * //

dimensions      [0 0 0 0 0 0 0];

internalField   nonuniform List<scalar> 
575
(
1.1229e-11
9.41507e-12
8.1503e-12
7.46006e-12
4.04931e-12
3.94267e-12
4.0822e-12
4.47509e-12
2.0531e-12
2.32791e-12
2.73925e-12
3.3136e-12
1.23767e-12
1.50478e-12
1.85676e-12
2.31695e-12
7.02518e-13
8.71508e-13
1.08304e-12
1.34005e-12
3.38067e-13
4.16087e-13
5.06438e-13
6.05263e-13
1.31815e-13
1.57686e-13
1.84232e-13
2.08822e-13
4.10089e-14
4.69254e-14
5.19155e-14
5.51758e-14
1.02055e-14
1.10376e-14
1.14473e-14
1.13149e-14
2.04982e-15
2.07803e-15
2.00534e-15
1.83251e-15
3.37552e-16
3.17624e-16
2.82856e-16
2.37543e-16
4.6204e-17
4.0046e-17
3.27039e-17
2.51298e-17
5.35869e-18
4.24291e-18
3.15719e-18
2.21086e-18
5.33101e-19
3.82865e-19
2.58245e-19
1.64341e-19
4.62298e-20
2.98901e-20
1.81744e-20
1.04761e-20
3.53915e-21
2.04448e-21
1.11408e-21
5.79474e-22
2.41892e-22
1.23776e-22
6.00301e-23
2.82051e-23
1.4924e-23
6.69425e-24
2.88668e-24
1.41017e-24
8.36756e-25
3.27432e-25
1.44813e-25
2.43563e-25
4.27243e-26
1.609e-26
2.23235e-26
1.61748e-25
2.12977e-27
1.79853e-27
1.20582e-26
1.15859e-25
1.59078e-28
7.1782e-28
7.22986e-27
7.60272e-26
3.75536e-29
3.65544e-28
4.08405e-27
4.71555e-26
1.59095e-29
1.92461e-28
2.53448e-27
3.5827e-26
2.59943e-29
3.78633e-28
5.48251e-27
7.63952e-26
8.39694e-12
1.19002e-11
1.71285e-11
2.17683e-11
2.30953e-11
2.0911e-11
1.77112e-11
1.57164e-11
1.94007e-11
9.55767e-11
3.81477e-10
5.55943e-10
7.37644e-10
7.35608e-10
8.5832e-10
1.28999e-09
2.04592e-09
2.99823e-09
2.13637e-09
6.76625e-12
1.05429e-11
1.46373e-11
1.67531e-11
1.55629e-11
1.25021e-11
9.84981e-12
8.71015e-12
1.0448e-11
2.37344e-11
5.51706e-11
9.08629e-11
1.67351e-10
4.01658e-10
7.60432e-10
1.43394e-09
2.40881e-09
3.83879e-09
2.19437e-09
5.49392e-12
8.21841e-12
1.00453e-11
9.88216e-12
8.10094e-12
5.94933e-12
4.49402e-12
4.10305e-12
5.11124e-12
8.55211e-12
1.67094e-11
4.85651e-11
1.5105e-10
5.06567e-10
9.58848e-10
1.83102e-09
3.3704e-09
4.2387e-09
2.09026e-09
3.72422e-12
4.92782e-12
5.16881e-12
4.41015e-12
3.26072e-12
2.22946e-12
1.65109e-12
1.62743e-12
2.25003e-12
4.55936e-12
1.46978e-11
5.7685e-11
1.99159e-10
7.53195e-10
1.38644e-09
2.77049e-09
4.37486e-09
4.60984e-09
1.4214e-09
1.93204e-12
2.19848e-12
1.98627e-12
1.49307e-12
1.00635e-12
6.60784e-13
5.15933e-13
5.97149e-13
1.08034e-12
3.41602e-12
1.64638e-11
7.73815e-11
2.65441e-10
1.07395e-09
2.12139e-09
4.29095e-09
5.48236e-09
4.68735e-09
9.40011e-10
7.52971e-13
7.32293e-13
5.78774e-13
3.90375e-13
2.45683e-13
1.63664e-13
1.48827e-13
2.25045e-13
6.07375e-13
2.98666e-12
1.88465e-11
9.90298e-11
3.31824e-10
1.3549e-09
4.31099e-09
7.19598e-09
6.18549e-09
3.53456e-09
5.72432e-10
2.21629e-13
1.86264e-13
1.30204e-13
8.00668e-14
4.93041e-14
3.63631e-14
4.18529e-14
9.10056e-14
3.89244e-13
2.69682e-12
2.02358e-11
1.16465e-10
3.92306e-10
1.59528e-09
6.99144e-09
8.84871e-09
6.30056e-09
2.18102e-09
5.7503e-10
5.00834e-14
3.66167e-14
2.29236e-14
1.33142e-14
8.55827e-15
7.61961e-15
1.16249e-14
4.0547e-14
2.60127e-13
2.31755e-12
1.93409e-11
1.23377e-10
4.36933e-10
1.91739e-09
8.07889e-09
8.84782e-09
5.36002e-09
2.10076e-09
7.14875e-10
8.8145e-15
5.6594e-15
3.23816e-15
1.87656e-15
1.35644e-15
1.51046e-15
3.18397e-15
1.91391e-14
1.62658e-13
1.77303e-12
1.55727e-11
9.65052e-11
4.32782e-10
1.76373e-09
7.08262e-09
8.62323e-09
4.83238e-09
3.32049e-09
8.40483e-10
1.23045e-15
7.0333e-16
3.79671e-16
2.3261e-16
2.00006e-16
2.77384e-16
8.57853e-16
8.59647e-15
8.80035e-14
1.15184e-12
9.98781e-12
4.23364e-11
2.42098e-10
1.12766e-09
4.41633e-09
8.12983e-09
6.14842e-09
4.33718e-09
8.42141e-10
1.38284e-16
7.1477e-17
3.80019e-17
2.60799e-17
2.71825e-17
4.74069e-17
2.28181e-16
3.22926e-15
3.83581e-14
6.11603e-13
4.92181e-12
1.8812e-11
8.20861e-11
7.98583e-10
3.52202e-09
6.78171e-09
7.11442e-09
4.11194e-09
7.27612e-10
1.27827e-17
6.09946e-18
3.35086e-18
2.69293e-18
3.49679e-18
9.0342e-18
6.65052e-17
9.83283e-16
1.36947e-14
2.57508e-13
1.99945e-12
8.39462e-12
2.57675e-11
4.15459e-10
2.21012e-09
4.83713e-09
5.35792e-09
2.16734e-09
4.31802e-10
9.90889e-19
4.48141e-19
2.69091e-19
2.79107e-19
6.50497e-19
4.01505e-18
4.00671e-17
4.53208e-16
5.69394e-15
9.20979e-14
7.47852e-13
3.4822e-12
1.17238e-11
1.14358e-10
1.31146e-09
3.27609e-09
3.30107e-09
1.12504e-09
2.16112e-10
6.55633e-20
2.93072e-20
2.31053e-20
5.92622e-20
4.43764e-19
4.65888e-18
5.03089e-17
5.03309e-16
4.55278e-15
4.27524e-14
3.31756e-13
1.74269e-12
7.49494e-12
3.19077e-11
4.28224e-10
1.55383e-09
1.09913e-09
2.98344e-10
4.87758e-11
3.78393e-21
2.06867e-21
5.52917e-21
4.90553e-20
5.53587e-19
6.37222e-18
6.88484e-17
6.53079e-16
5.21368e-15
3.55445e-14
2.10596e-13
1.47702e-12
6.86046e-12
1.96715e-11
7.78837e-11
2.07182e-10
2.56952e-10
4.44984e-11
1.63255e-11
2.17978e-22
4.68921e-22
4.64196e-21
5.60577e-20
6.85675e-19
8.00791e-18
8.43505e-17
7.64219e-16
5.72727e-15
3.56104e-14
1.90995e-13
1.95784e-12
8.28617e-12
1.8546e-11
3.54282e-11
5.09449e-11
4.54427e-11
1.27722e-11
6.10068e-12
3.35195e-23
3.52894e-22
4.5962e-21
5.99851e-20
7.52373e-19
8.66356e-18
8.76844e-17
7.56924e-16
5.39078e-15
3.23788e-14
2.17379e-13
2.41461e-12
8.07178e-12
1.497e-11
2.17418e-11
2.28872e-11
1.32613e-11
5.20491e-12
2.6048e-12
2.00116e-23
2.92899e-22
4.12032e-21
5.5505e-20
6.92701e-19
7.72279e-18
7.45122e-17
6.13283e-16
4.17343e-15
2.44965e-14
1.89161e-13
1.80758e-12
5.59662e-12
9.38808e-12
1.23674e-11
1.07814e-11
4.91444e-12
2.17028e-12
1.02647e-12
1.38175e-23
2.15376e-22
3.139e-21
4.24202e-20
5.16997e-19
5.53619e-18
5.08914e-17
3.99729e-16
2.59816e-15
1.45683e-14
7.31673e-14
7.65874e-13
2.57698e-12
3.99906e-12
5.15692e-12
3.87771e-12
1.69266e-12
7.68684e-13
3.51053e-13
8.48856e-24
1.36168e-22
2.01557e-21
2.70212e-20
3.21586e-19
3.32797e-18
2.92948e-17
2.17507e-16
1.31607e-15
6.68233e-15
2.68395e-14
1.74838e-13
7.12343e-13
1.07039e-12
1.35359e-12
9.67211e-13
5.34279e-13
2.30915e-13
1.29541e-13
4.57077e-24
7.51262e-23
1.13685e-21
1.54646e-20
1.85851e-19
1.91416e-18
1.61855e-17
1.09821e-16
5.87301e-16
2.50643e-15
8.7673e-15
2.99564e-14
1.18147e-13
1.78821e-13
2.03411e-13
1.63286e-13
1.08912e-13
5.3126e-14
5.22319e-14
2.22831e-24
3.87361e-23
6.32928e-22
9.33027e-21
1.19021e-19
1.23204e-18
9.72617e-18
5.77428e-17
2.63466e-16
8.94711e-16
2.55638e-15
5.2058e-15
1.43224e-14
1.95228e-14
2.10735e-14
1.80998e-14
1.4424e-14
9.75025e-15
2.3195e-14
1.0714e-24
2.19915e-23
4.23638e-22
6.84978e-21
8.7565e-20
8.39097e-19
5.81932e-18
2.92227e-17
1.12981e-16
3.0833e-16
7.381e-16
1.17618e-15
2.15348e-15
2.46182e-15
2.57296e-15
2.35944e-15
2.34944e-15
2.22209e-15
1.02595e-14
6.97601e-25
1.80558e-23
3.59929e-22
5.23983e-21
5.65203e-20
4.49055e-19
2.61082e-18
1.09725e-17
3.68597e-17
8.58615e-17
1.84864e-16
2.61103e-16
3.95886e-16
4.32227e-16
4.52026e-16
4.27376e-16
4.87367e-16
5.23971e-16
3.47693e-15
9.21814e-25
1.71219e-23
2.37572e-22
2.46323e-21
1.94378e-20
1.18379e-19
5.69986e-19
2.05193e-18
6.19128e-18
1.28319e-17
2.55601e-17
3.36228e-17
4.72501e-17
5.00008e-17
5.13995e-17
4.87634e-17
6.11281e-17
7.13378e-17
6.12249e-16
)
;

boundaryField
{
    leftWall
    {
        type            zeroGradient;
    }
    rightWall
    {
        type            zeroGradient;
    }
    lowerWall
    {
        type            zeroGradient;
    }
    atmosphere
    {
        type            inletOutlet;
        inletValue      uniform 0;
        value           uniform 0;
    }
    defaultFaces
    {
        type            empty;
    }
    procBoundary3to1
    {
        type            processor;
        value           nonuniform List<scalar> 
23
(
4.47366e-11
4.13953e-11
2.7697e-11
2.00808e-11
1.26338e-11
1.40312e-11
1.83839e-11
2.39204e-11
2.82407e-11
2.88289e-11
2.62495e-11
2.65851e-11
1.32969e-10
7.6573e-10
1.80506e-09
2.04241e-09
1.9815e-09
1.83868e-09
1.76324e-09
1.69233e-09
2.01284e-09
2.56568e-09
2.01526e-09
)
;
    }
    procBoundary3to2
    {
        type            processor;
        value           nonuniform List<scalar> 
25
(
1.25065e-11
4.36303e-12
1.89685e-12
1.03653e-12
5.68672e-13
2.73273e-13
1.08585e-13
3.49669e-14
9.12582e-15
1.93987e-15
3.4169e-16
5.04734e-17
6.3756e-18
6.96773e-19
6.69757e-20
5.73359e-21
4.42553e-22
3.12158e-23
2.02955e-24
1.21631e-25
6.86818e-27
3.79736e-28
2.35703e-29
2.67518e-30
1.17746e-30
)
;
    }
}


// ************************************************************************* //
