/*--------------------------------*- C++ -*----------------------------------*\
| =========                 |                                                 |
| \\      /  F ield         | OpenFOAM: The Open Source CFD Toolbox           |
|  \\    /   O peration     | Version:  2.4.0                                 |
|   \\  /    A nd           | Web:      www.OpenFOAM.org                      |
|    \\/     M anipulation  |                                                 |
\*---------------------------------------------------------------------------*/
FoamFile
{
    version     2.0;
    format      ascii;
    class       volScalarField;
    location    "1";
    object      alpha.oil;
}
// * * * * * * * * * * * * * * * * * * * * * * * * * * * * * * * * * * * * * //

dimensions      [0 0 0 0 0 0 0];

internalField   nonuniform List<scalar> 
575
(
1.42742e-07
1.46663e-07
2.73038e-07
2.6939e-07
4.25686e-08
3.91186e-08
3.47535e-08
2.34717e-08
2.02536e-08
1.94123e-08
1.97886e-08
1.33824e-08
2.41336e-08
2.15624e-08
1.4115e-08
1.10578e-08
1.58045e-08
1.3247e-08
1.40576e-08
1.09612e-08
6.76463e-09
8.03435e-09
6.86186e-09
5.77642e-09
6.56166e-09
5.69925e-09
5.24484e-09
5.5345e-09
6.27513e-09
4.66733e-09
4.08627e-09
3.47179e-09
3.73336e-09
3.02126e-09
2.41473e-09
1.86852e-09
1.93974e-09
1.43681e-09
1.09076e-09
7.93869e-10
6.26174e-10
4.71105e-10
3.46712e-10
2.4581e-10
1.02413e-10
8.22959e-11
6.00202e-11
4.4197e-11
1.15424e-11
1.00899e-11
8.31475e-12
6.37997e-12
3.22641e-12
2.47989e-12
1.79745e-12
1.22319e-12
7.26207e-13
5.00267e-13
3.2436e-13
1.97628e-13
1.37483e-13
8.46916e-14
4.89933e-14
2.6614e-14
2.21472e-14
1.20964e-14
6.18844e-15
2.96926e-15
3.05045e-15
1.45935e-15
6.52369e-16
2.73387e-16
3.59346e-16
1.48453e-16
5.71942e-17
2.08251e-17
3.60486e-17
1.26313e-17
4.13719e-18
1.44893e-18
3.12039e-18
9.04525e-19
2.57742e-19
2.10297e-19
2.34675e-19
5.52676e-20
2.14106e-20
1.04619e-19
1.44199e-20
3.04633e-21
6.1482e-21
6.53918e-20
7.00084e-22
3.6177e-22
3.68996e-21
5.21516e-20
4.56506e-23
5.75857e-22
8.38649e-21
1.18339e-19
1.65993e-07
1.67631e-07
3.85095e-07
4.28072e-07
5.75917e-07
4.8195e-07
2.55385e-07
1.16395e-07
6.96574e-08
5.07508e-08
5.25365e-08
3.70672e-08
2.50185e-08
1.72735e-08
1.86162e-08
3.82823e-08
1.35679e-07
4.93987e-07
1.17368e-06
2.97409e-08
1.14954e-07
1.81751e-07
1.84227e-07
1.96581e-07
1.74568e-07
1.33701e-07
7.76635e-08
4.12237e-08
2.65039e-08
9.47908e-09
3.29807e-09
4.40991e-09
1.73791e-08
3.08756e-08
6.86906e-08
1.59635e-07
5.87161e-07
1.11361e-06
2.29351e-08
1.20627e-07
1.41887e-07
1.21913e-07
9.9434e-08
7.52643e-08
4.9259e-08
2.76486e-08
1.40433e-08
4.65576e-09
1.76576e-09
2.18139e-09
6.3294e-09
4.65132e-08
5.57794e-08
9.80514e-08
2.78716e-07
6.10372e-07
1.2109e-06
1.92889e-08
8.84752e-08
8.77481e-08
6.54909e-08
4.36422e-08
2.5322e-08
1.30157e-08
6.14948e-09
2.68973e-09
1.21819e-09
1.21768e-09
3.68804e-09
1.10967e-08
9.26698e-08
1.39053e-07
2.05043e-07
4.1958e-07
8.66658e-07
1.20484e-06
1.68009e-08
4.10316e-08
3.51595e-08
2.36686e-08
1.35343e-08
6.68729e-09
2.95326e-09
1.23614e-09
5.33482e-10
3.72076e-10
1.36287e-09
5.69589e-09
1.60506e-08
1.56647e-07
4.75115e-07
4.76937e-07
6.93146e-07
9.40009e-07
1.21213e-06
1.11717e-08
1.45552e-08
1.06495e-08
6.17191e-09
3.0206e-09
1.28517e-09
5.0168e-10
1.99243e-10
1.23359e-10
3.15486e-10
1.75113e-09
8.3648e-09
2.22069e-08
2.02679e-07
5.74941e-06
1.8691e-06
9.52249e-07
1.49956e-06
1.14672e-06
5.17223e-09
3.83007e-09
2.34026e-09
1.20642e-09
5.46031e-10
2.21215e-10
8.60538e-11
4.47491e-11
7.41741e-11
3.57219e-10
2.34073e-09
1.17984e-08
3.03952e-08
2.28134e-07
1.78223e-05
7.79467e-06
1.34021e-06
1.7062e-06
4.20947e-06
2.23162e-09
1.28674e-09
6.65079e-10
3.06476e-10
1.28175e-10
5.035e-11
2.16443e-11
2.33473e-11
8.29612e-11
4.92621e-10
3.22673e-09
1.58451e-08
4.08711e-08
3.06445e-07
1.80393e-05
2.32319e-05
2.64943e-06
1.08461e-05
9.35085e-06
1.02507e-09
5.11416e-10
2.32846e-10
9.71169e-11
3.72465e-11
1.41303e-11
8.99933e-12
2.41855e-11
1.22255e-10
7.61812e-10
4.54135e-09
2.0796e-08
5.29657e-08
3.42024e-07
4.69324e-06
3.33784e-05
1.63704e-05
2.53005e-05
3.55778e-06
3.94032e-10
1.78484e-10
7.37902e-11
2.80367e-11
9.9159e-12
4.12079e-12
7.07417e-12
3.39767e-11
2.02078e-10
1.2419e-09
6.55532e-09
2.79057e-08
6.57353e-08
3.13381e-07
1.49328e-06
3.35037e-05
3.35028e-05
2.2524e-05
1.51958e-06
1.1432e-10
4.7841e-11
1.81462e-11
6.30198e-12
2.17008e-12
1.84345e-12
8.94868e-12
5.17966e-11
3.38748e-10
2.03965e-09
9.75929e-09
3.9025e-08
8.10224e-08
2.87652e-07
1.02074e-06
1.03349e-05
3.17494e-05
3.04649e-06
9.35593e-07
2.10162e-11
8.58274e-12
3.10799e-12
1.03543e-12
5.1432e-13
1.81125e-12
1.28317e-11
7.89546e-11
5.47252e-10
3.28018e-09
1.46514e-08
5.6725e-08
1.03366e-07
3.49933e-07
8.77911e-07
1.44507e-06
2.24302e-06
1.52021e-06
6.94972e-07
3.07145e-12
1.23506e-12
4.30756e-13
1.61811e-13
3.14027e-13
2.40416e-12
1.82852e-11
1.16488e-10
8.37715e-10
5.01086e-09
2.14458e-08
8.39852e-08
1.48954e-07
5.00911e-07
8.24501e-07
1.21369e-06
1.46481e-06
1.08815e-06
5.9091e-07
5.00639e-13
1.75764e-13
5.75073e-14
5.19542e-14
3.62177e-13
3.24145e-12
2.48618e-11
1.62761e-10
1.2011e-09
7.17293e-09
2.98055e-08
1.21763e-07
3.58598e-07
7.24896e-07
9.16819e-07
1.11903e-06
1.23656e-06
9.50282e-07
3.30523e-07
6.91881e-14
2.13689e-14
9.75281e-15
4.51405e-14
4.48114e-13
4.14227e-12
3.13479e-11
2.12002e-10
1.5839e-09
9.51236e-09
3.87659e-08
1.69799e-07
6.39397e-07
1.01492e-06
1.34911e-06
1.51065e-06
1.13801e-06
4.98284e-07
2.3167e-07
7.96709e-15
2.43886e-15
4.79765e-15
4.93106e-14
5.24453e-13
4.8562e-12
3.54825e-11
2.53613e-10
1.8946e-09
1.13984e-08
4.69148e-08
2.41396e-07
8.70743e-07
2.15787e-06
2.43461e-06
2.37058e-06
8.37891e-07
3.34938e-07
5.70281e-08
7.74303e-16
5.06168e-16
4.34609e-15
5.15975e-14
5.57506e-13
5.04911e-12
3.49898e-11
2.74259e-10
2.01012e-09
1.16229e-08
5.23924e-08
2.91882e-07
8.166e-07
1.59482e-06
2.32792e-06
1.60947e-06
5.43143e-07
8.06604e-08
2.83996e-08
7.81562e-17
3.08479e-16
3.97004e-15
4.83236e-14
5.16095e-13
4.50437e-12
2.94134e-11
2.41286e-10
1.42538e-09
5.75162e-09
2.81113e-08
2.13492e-07
5.61012e-07
7.45916e-07
1.21561e-06
5.78292e-07
2.33335e-07
3.98112e-08
6.46114e-09
1.89457e-17
2.33202e-16
3.17332e-15
3.86046e-14
4.03706e-13
3.41691e-12
2.16339e-11
1.53365e-10
8.08004e-10
2.52878e-09
6.824e-09
9.00347e-08
2.99914e-07
3.63075e-07
4.04093e-07
2.71637e-07
1.24433e-07
1.80611e-08
4.15885e-09
1.02846e-17
1.56172e-16
2.15815e-15
2.62766e-14
2.74754e-13
2.35527e-12
1.56827e-11
1.20712e-10
5.80553e-10
1.69313e-09
2.45427e-09
1.55601e-08
1.08377e-07
1.29664e-07
1.47001e-07
1.00243e-07
5.33609e-08
1.54947e-08
3.66849e-09
5.75315e-18
9.0627e-17
1.2926e-15
1.64531e-14
1.84106e-13
1.72611e-12
1.27157e-11
9.70707e-11
4.42426e-10
1.14774e-09
1.13423e-09
1.56866e-09
2.33797e-08
3.21701e-08
3.54507e-08
2.77872e-08
1.83642e-08
6.75926e-09
3.39547e-09
2.90846e-18
4.88472e-17
7.77157e-16
1.13651e-14
1.45334e-13
1.49405e-12
1.14968e-11
7.25683e-11
2.56083e-10
4.60382e-10
4.07803e-10
2.47348e-10
1.84262e-09
5.23493e-09
6.66022e-09
5.76988e-09
4.56448e-09
3.67822e-09
2.4313e-09
1.45185e-18
2.99079e-17
5.91247e-16
9.86253e-15
1.29178e-13
1.25481e-12
8.70793e-12
4.25632e-11
7.26995e-11
1.01587e-10
1.10022e-10
5.79221e-11
1.4961e-10
6.8287e-10
1.06925e-09
1.13337e-09
1.34687e-09
1.53618e-09
1.30461e-09
1.02706e-18
2.75639e-17
5.66155e-16
8.42775e-15
9.22496e-14
7.38839e-13
4.25984e-12
1.48571e-11
1.5597e-11
1.28158e-11
1.09264e-11
9.80179e-12
1.61159e-11
5.43836e-11
1.12772e-10
1.88262e-10
3.43798e-10
4.85683e-10
4.66196e-10
1.45682e-18
2.77003e-17
3.92751e-16
4.14928e-15
3.32167e-14
2.03476e-13
9.52373e-13
1.67278e-12
1.43626e-12
8.58267e-13
6.50487e-13
5.45536e-13
4.75962e-13
4.79314e-13
3.02108e-12
1.31714e-11
5.07302e-11
8.12388e-11
9.11115e-11
)
;

boundaryField
{
    leftWall
    {
        type            zeroGradient;
    }
    rightWall
    {
        type            zeroGradient;
    }
    lowerWall
    {
        type            zeroGradient;
    }
    atmosphere
    {
        type            inletOutlet;
        inletValue      uniform 0;
        value           uniform 0;
    }
    defaultFaces
    {
        type            empty;
    }
    procBoundary3to1
    {
        type            processor;
        value           nonuniform List<scalar> 
23
(
2.50821e-07
3.37446e-07
1.27987e-06
2.93921e-06
2.03595e-06
5.21327e-07
5.09394e-07
9.92163e-07
1.69579e-06
1.19108e-06
4.31482e-07
1.54942e-07
9.50693e-08
8.44736e-08
1.32826e-07
1.72883e-07
1.37947e-07
8.12004e-08
6.71201e-08
4.52539e-08
1.219e-07
1.60656e-06
1.0783e-06
)
;
    }
    procBoundary3to2
    {
        type            processor;
        value           nonuniform List<scalar> 
25
(
9.24878e-07
8.43874e-08
4.37986e-08
8.60995e-08
3.29864e-08
1.07226e-08
9.20895e-09
7.81557e-09
5.17109e-09
2.4164e-09
8.05431e-10
1.28803e-10
1.27969e-11
3.99247e-12
9.96848e-13
2.10075e-13
3.79945e-14
5.94805e-15
8.08243e-16
9.53725e-17
9.95218e-18
9.24512e-19
7.33139e-20
4.97215e-21
1.5569e-22
)
;
    }
}


// ************************************************************************* //
