/*--------------------------------*- C++ -*----------------------------------*\
| =========                 |                                                 |
| \\      /  F ield         | OpenFOAM: The Open Source CFD Toolbox           |
|  \\    /   O peration     | Version:  2.4.0                                 |
|   \\  /    A nd           | Web:      www.OpenFOAM.org                      |
|    \\/     M anipulation  |                                                 |
\*---------------------------------------------------------------------------*/
FoamFile
{
    version     2.0;
    format      ascii;
    class       volScalarField;
    location    "1";
    object      p;
}
// * * * * * * * * * * * * * * * * * * * * * * * * * * * * * * * * * * * * * //

dimensions      [1 -1 -2 0 0 0 0];

internalField   nonuniform List<scalar> 
575
(
2.40614
2.44792
2.4891
2.52935
2.40086
2.42821
2.45595
2.48536
2.37096
2.39066
2.41153
2.43326
2.31912
2.33325
2.34796
2.36313
2.25094
2.2613
2.27218
2.28359
2.17215
2.17985
2.1881
2.1966
2.08529
2.09117
2.0975
2.10414
1.99243
1.99702
2.00207
2.00738
1.89498
1.89866
1.9027
1.907
1.79369
1.79669
1.79998
1.80351
1.68927
1.69173
1.69443
1.69734
1.5822
1.58423
1.58645
1.58887
1.47286
1.47452
1.47635
1.47836
1.36155
1.36291
1.36441
1.36606
1.24853
1.24962
1.25084
1.25219
1.134
1.13487
1.13585
1.13693
1.01818
1.01884
1.0196
1.02044
0.901207
0.901695
0.902256
0.902887
0.783219
0.783552
0.783944
0.784388
0.664292
0.664528
0.664789
0.665075
0.544679
0.544804
0.544938
0.54508
0.424493
0.42452
0.424537
0.424542
0.303692
0.303661
0.30359
0.303487
0.182889
0.182713
0.1825
0.182229
0.0607559
0.0605287
0.0602583
0.0599354
2.5991
2.68469
2.7502
2.80601
2.8638
2.90986
2.94288
2.96782
2.9917
3.01864
3.04974
3.09001
3.13719
3.18856
3.24004
3.2936
3.34408
3.37312
3.38216
2.53751
2.60511
2.65975
2.70613
2.75285
2.79187
2.82339
2.85099
2.8768
2.90471
2.93576
2.97092
3.01119
3.05281
3.09502
3.13699
3.18314
3.21131
3.21895
2.47052
2.51842
2.56136
2.601
2.63975
2.67421
2.70437
2.73253
2.75931
2.78717
2.81692
2.84691
2.87982
2.91378
2.94685
2.9792
3.01917
3.05276
3.06332
2.38971
2.42637
2.4618
2.49557
2.52791
2.55879
2.5871
2.61394
2.64072
2.66693
2.69377
2.72167
2.74905
2.77613
2.80092
2.82328
2.85314
2.88717
2.90618
2.30353
2.33201
2.36086
2.38908
2.41693
2.44432
2.47044
2.49553
2.52062
2.54527
2.56909
2.59366
2.6184
2.63828
2.65363
2.66871
2.69023
2.72148
2.73732
2.21163
2.23434
2.25818
2.28217
2.30614
2.3304
2.35394
2.37684
2.39983
2.42242
2.44367
2.46459
2.48845
2.50284
2.50844
2.51654
2.53547
2.55933
2.57329
2.11599
2.13442
2.15411
2.17435
2.19516
2.21629
2.23743
2.25803
2.27895
2.29927
2.31862
2.33701
2.35807
2.3701
2.37018
2.37107
2.38826
2.40563
2.41446
2.0169
2.03188
2.04834
2.06554
2.08349
2.10183
2.12065
2.13882
2.15785
2.1758
2.19305
2.21033
2.22832
2.23942
2.23826
2.24393
2.25147
2.26219
2.26627
1.91476
1.92716
1.94087
1.9555
1.97093
1.98682
2.00332
2.01955
2.03575
2.05204
2.06748
2.08294
2.09801
2.10947
2.11486
2.12265
2.12162
2.12119
2.12812
1.80991
1.82023
1.83173
1.84418
1.8574
1.8712
1.8854
1.89967
1.91366
1.92799
1.94146
1.95457
1.96705
1.97851
1.9884
1.99123
1.99222
1.98869
1.9953
1.70266
1.71129
1.72098
1.73156
1.74287
1.7547
1.76695
1.77923
1.79141
1.80337
1.81515
1.82617
1.83615
1.84625
1.85552
1.85899
1.85929
1.85977
1.86629
1.59329
1.60052
1.60869
1.61765
1.6273
1.63743
1.64789
1.65842
1.66882
1.67885
1.68848
1.69763
1.7052
1.71277
1.72021
1.72517
1.72665
1.72982
1.73483
1.48203
1.48808
1.49494
1.50253
1.5107
1.51932
1.52824
1.53724
1.54601
1.55443
1.56225
1.56875
1.57359
1.57736
1.58279
1.59019
1.59469
1.59943
1.6022
1.3691
1.37413
1.37987
1.38622
1.39311
1.40041
1.40794
1.41563
1.42308
1.4301
1.43673
1.44088
1.4429
1.44078
1.44495
1.45638
1.46307
1.46866
1.46923
1.25468
1.25882
1.26355
1.26883
1.27455
1.28065
1.28699
1.29344
1.29982
1.30567
1.312
1.31502
1.31606
1.30764
1.31086
1.32318
1.33258
1.33711
1.33761
1.13893
1.14227
1.14611
1.15041
1.15509
1.16007
1.1653
1.17062
1.17602
1.18095
1.18671
1.18873
1.18789
1.18357
1.18767
1.19609
1.20527
1.20571
1.2071
1.02201
1.02464
1.02767
1.03106
1.03477
1.03872
1.0429
1.04713
1.0515
1.0556
1.0602
1.06234
1.06189
1.0621
1.06835
1.07117
1.07662
1.07605
1.07762
0.90406
0.906043
0.90833
0.910892
0.913695
0.916691
0.919851
0.923052
0.926396
0.929816
0.932725
0.935611
0.935694
0.937829
0.94278
0.94333
0.947744
0.947228
0.948912
0.785215
0.786612
0.788217
0.79001
0.791973
0.794066
0.796309
0.798548
0.800924
0.803381
0.805031
0.807751
0.808144
0.81061
0.815385
0.815807
0.81913
0.818938
0.820678
0.665598
0.666461
0.667437
0.668515
0.66969
0.670948
0.672318
0.673635
0.675201
0.676665
0.678064
0.679927
0.681069
0.68335
0.686956
0.687551
0.690237
0.690855
0.692603
0.545327
0.545699
0.546094
0.546511
0.546959
0.547328
0.547864
0.548441
0.549234
0.550205
0.551202
0.552619
0.55424
0.555961
0.558562
0.559638
0.561718
0.562523
0.564212
0.424529
0.424435
0.424288
0.424041
0.42371
0.423408
0.423331
0.42318
0.423379
0.423761
0.424576
0.425546
0.426722
0.428225
0.430205
0.431364
0.433259
0.434037
0.435915
0.303266
0.302765
0.301996
0.301133
0.300313
0.299383
0.298579
0.297688
0.297384
0.2973
0.29755
0.298249
0.299187
0.300516
0.302311
0.303515
0.305767
0.306202
0.307963
0.181669
0.180635
0.179386
0.177927
0.176345
0.174652
0.173242
0.171644
0.170748
0.170116
0.170102
0.171024
0.172169
0.173637
0.175721
0.176828
0.179489
0.17969
0.181548
0.0593039
0.0580559
0.0564163
0.0544206
0.0521451
0.04963
0.0473115
0.0449195
0.0434394
0.0426226
0.0423846
0.0431967
0.0447984
0.0468714
0.0499073
0.0513528
0.0542495
0.0541298
0.0559187
)
;

boundaryField
{
    leftWall
    {
        type            fixedFluxPressure;
        gradient        nonuniform 0();
        value           nonuniform 0();
    }
    rightWall
    {
        type            fixedFluxPressure;
        gradient        uniform 0;
        value           nonuniform List<scalar> 
25
(
3.38216
3.21895
3.06332
2.90618
2.73732
2.57329
2.41446
2.26627
2.12812
1.9953
1.86629
1.73483
1.6022
1.46923
1.33761
1.2071
1.07762
0.948912
0.820678
0.692603
0.564212
0.435915
0.307963
0.181548
0.0559187
)
;
    }
    lowerWall
    {
        type            fixedFluxPressure;
        gradient        nonuniform 0();
        value           nonuniform 0();
    }
    atmosphere
    {
        type            totalPressure;
        U               U.air;
        phi             phi.air;
        rho             rho;
        psi             none;
        gamma           1;
        p0              uniform 0;
        value           nonuniform List<scalar> 
23
(
-2.86107e-05
-0.000114945
-0.000270945
-0.00050234
-0.00104869
-0.00220777
-0.00380557
-0.0058163
-0.00818735
-0.0108779
-0.0136428
-0.016601
-0.0189509
-0.0211303
-0.0222484
-0.0222343
-0.0214993
-0.0200426
-0.017454
-0.0152021
-0.011668
-0.0102168
-0.00739738
)
;
    }
    defaultFaces
    {
        type            empty;
    }
    procBoundary3to1
    {
        type            processor;
        value           nonuniform List<scalar> 
23
(
2.34302
2.40767
2.47498
2.54136
2.65101
2.77476
2.86024
2.91888
2.97851
3.0312
3.06307
3.08433
3.10213
3.12374
3.15388
3.19843
3.25474
3.31677
3.37928
3.44209
3.50708
3.54014
3.5465
)
;
    }
    procBoundary3to2
    {
        type            processor;
        value           nonuniform List<scalar> 
25
(
2.34471
2.36303
2.34288
2.29898
2.2366
2.1615
2.07713
1.98613
1.88988
1.78955
1.68586
1.5794
1.47056
1.35969
1.24702
1.13282
1.01727
0.900561
0.782805
0.663951
0.544497
0.424446
0.303647
0.183178
0.0610198
)
;
    }
}


// ************************************************************************* //
