/*--------------------------------*- C++ -*----------------------------------*\
| =========                 |                                                 |
| \\      /  F ield         | OpenFOAM: The Open Source CFD Toolbox           |
|  \\    /   O peration     | Version:  2.4.0                                 |
|   \\  /    A nd           | Web:      www.OpenFOAM.org                      |
|    \\/     M anipulation  |                                                 |
\*---------------------------------------------------------------------------*/
FoamFile
{
    version     2.0;
    format      ascii;
    class       surfaceScalarField;
    location    "1";
    object      phi;
}
// * * * * * * * * * * * * * * * * * * * * * * * * * * * * * * * * * * * * * //

dimensions      [0 3 -1 0 0 0 0];

internalField   nonuniform List<scalar> 
1102
(
0.000128307
-4.03417e-05
0.000117673
-4.30468e-05
0.000106627
-4.46042e-05
-4.61225e-05
9.6542e-05
0.000108919
-3.28715e-05
0.0001018
-3.59284e-05
9.47073e-05
-3.75111e-05
-3.98202e-05
8.8405e-05
9.96714e-05
-2.77141e-05
9.36436e-05
-2.99006e-05
8.74367e-05
-3.13041e-05
-3.27794e-05
8.03959e-05
9.05493e-05
-2.31315e-05
8.53401e-05
-2.46914e-05
8.00019e-05
-2.59659e-05
-2.67777e-05
7.40002e-05
8.18349e-05
-1.90987e-05
7.76463e-05
-2.05028e-05
7.32603e-05
-2.15799e-05
-2.25031e-05
6.89857e-05
7.47721e-05
-1.59985e-05
7.14547e-05
-1.71854e-05
6.81963e-05
-1.83214e-05
-1.91723e-05
6.48655e-05
6.86544e-05
-1.35205e-05
6.61002e-05
-1.46311e-05
6.35616e-05
-1.57829e-05
-1.66609e-05
6.10502e-05
6.33554e-05
-1.15727e-05
6.13798e-05
-1.26556e-05
5.93457e-05
-1.37488e-05
-1.46488e-05
5.73336e-05
5.84291e-05
-1.00153e-05
5.68234e-05
-1.10498e-05
5.51456e-05
-1.2071e-05
-1.2968e-05
5.34648e-05
5.36264e-05
-8.73322e-06
5.22945e-05
-9.71799e-06
5.09076e-05
-1.06841e-05
-1.15634e-05
4.9503e-05
4.91194e-05
-7.64487e-06
4.79845e-05
-8.58306e-06
4.68005e-05
-9.50007e-06
-1.03531e-05
4.55902e-05
4.48226e-05
-6.7123e-06
4.38418e-05
-7.60222e-06
4.28217e-05
-8.47999e-06
-9.31072e-06
4.17793e-05
4.07369e-05
-5.90067e-06
3.98857e-05
-6.751e-06
3.89977e-05
-7.59198e-06
-8.39635e-06
3.80833e-05
3.68361e-05
-5.18753e-06
3.60882e-05
-6.00316e-06
3.5307e-05
-6.81068e-06
-7.58912e-06
3.44997e-05
3.31078e-05
-4.55528e-06
3.24427e-05
-5.33801e-06
3.17467e-05
-6.11469e-06
-6.86819e-06
3.10257e-05
2.95328e-05
-3.98707e-06
2.89374e-05
-4.74262e-06
2.83133e-05
-5.49056e-06
-6.22029e-06
2.76654e-05
2.60973e-05
-3.47431e-06
2.55595e-05
-4.20482e-06
2.49955e-05
-4.92652e-06
-5.63412e-06
2.44093e-05
2.27897e-05
-3.00566e-06
2.22986e-05
-3.71378e-06
2.17846e-05
-4.41244e-06
-5.10135e-06
2.12518e-05
1.95902e-05
-2.57597e-06
1.91393e-05
-3.2629e-06
1.86683e-05
-3.94148e-06
-4.6138e-06
1.81808e-05
1.64619e-05
-2.18519e-06
1.60516e-05
-2.85261e-06
1.56229e-05
-3.51279e-06
-4.16858e-06
1.51777e-05
1.34399e-05
-1.7991e-06
1.30456e-05
-2.45835e-06
1.26447e-05
-3.11193e-06
-3.75835e-06
1.22345e-05
1.05721e-05
-1.39262e-06
1.01632e-05
-2.0495e-06
9.75587e-06
-2.70456e-06
-3.35757e-06
9.35508e-06
7.65948e-06
-1.0298e-06
7.2861e-06
-1.67611e-06
6.90582e-06
-2.32428e-06
-2.97022e-06
6.51847e-06
4.80552e-06
-6.4632e-07
4.41158e-06
-1.28219e-06
4.02684e-06
-1.93955e-06
-2.61469e-06
3.6713e-06
5.32088e-07
5.54047e-07
6.35447e-07
7.78378e-07
7.56943e-05
-0.000116852
5.29949e-05
-0.000112748
3.51273e-05
-9.70169e-05
2.95967e-05
-7.29823e-05
3.50579e-05
-5.23058e-05
4.34788e-05
-4.48113e-05
5.06892e-05
-4.60388e-05
5.52542e-05
-5.19523e-05
5.93954e-05
-5.71578e-05
6.3368e-05
-6.25557e-05
6.73254e-05
-6.98433e-05
6.76152e-05
-8.20289e-05
6.33644e-05
-8.97383e-05
5.8329e-05
-9.6033e-05
4.94986e-05
-0.000102351
3.7949e-05
-0.000102389
2.39834e-05
-9.32452e-05
1.40479e-05
-7.96558e-05
-8.92127e-05
6.9546e-05
-9.79928e-05
4.92091e-05
-9.24107e-05
3.40709e-05
-8.18787e-05
2.90235e-05
-6.79348e-05
3.27158e-05
-5.5998e-05
3.96785e-05
-5.1774e-05
4.59523e-05
-5.23125e-05
5.01279e-05
-5.61278e-05
5.39015e-05
-6.09314e-05
5.59659e-05
-6.46201e-05
5.68385e-05
-7.07159e-05
5.48642e-05
-8.00546e-05
5.07224e-05
-8.55964e-05
4.85485e-05
-9.38592e-05
4.34794e-05
-9.72814e-05
3.72024e-05
-9.61119e-05
2.69149e-05
-8.29578e-05
1.31674e-05
-6.59082e-05
-7.60453e-05
6.1049e-05
-7.86459e-05
4.6375e-05
-7.77366e-05
3.71793e-05
-7.2683e-05
3.42904e-05
-6.50458e-05
3.66007e-05
-5.83083e-05
4.0873e-05
-5.60463e-05
4.4678e-05
-5.61175e-05
4.66745e-05
-5.81243e-05
4.88967e-05
-6.31536e-05
5.12228e-05
-6.69462e-05
5.21817e-05
-7.16748e-05
4.95319e-05
-7.74048e-05
4.65308e-05
-8.25953e-05
4.68232e-05
-9.41517e-05
4.57616e-05
-9.62198e-05
4.12712e-05
-9.16215e-05
3.15433e-05
-7.32299e-05
1.2523e-05
-4.68879e-05
-6.35223e-05
6.07889e-05
-6.54346e-05
4.93892e-05
-6.63369e-05
4.19368e-05
-6.52306e-05
3.91304e-05
-6.22395e-05
3.89989e-05
-5.81768e-05
4.01014e-05
-5.71488e-05
4.20485e-05
-5.80645e-05
4.33314e-05
-5.94073e-05
4.34313e-05
-6.32535e-05
4.51197e-05
-6.86346e-05
4.72256e-05
-7.37806e-05
4.61071e-05
-7.62863e-05
4.49899e-05
-8.14781e-05
4.63967e-05
-9.55584e-05
4.60003e-05
-9.58234e-05
4.18551e-05
-8.74763e-05
2.92453e-05
-6.06201e-05
8.0574e-06
-2.57e-05
-5.54649e-05
5.92302e-05
-5.56792e-05
5.10693e-05
-5.8176e-05
4.50486e-05
-5.92099e-05
4.1542e-05
-5.87329e-05
4.00845e-05
-5.67194e-05
4.00206e-05
-5.70849e-05
4.06488e-05
-5.86927e-05
4.11205e-05
-5.98789e-05
4.06153e-05
-6.27483e-05
4.08511e-05
-6.88704e-05
4.04578e-05
-7.33873e-05
3.94529e-05
-7.52814e-05
4.08554e-05
-8.28807e-05
4.13736e-05
-9.60766e-05
3.91655e-05
-9.36153e-05
3.00603e-05
-7.83711e-05
9.65272e-06
-4.02125e-05
-4.08793e-06
-1.19593e-05
-5.95528e-05
5.75082e-05
-4.83219e-05
5.13964e-05
-5.20642e-05
4.61215e-05
-5.3935e-05
4.23147e-05
-5.49261e-05
4.0017e-05
-5.44217e-05
3.90317e-05
-5.60996e-05
3.83168e-05
-5.79778e-05
3.79171e-05
-5.94792e-05
3.76466e-05
-6.24778e-05
3.70053e-05
-6.82291e-05
3.52095e-05
-7.15915e-05
3.46282e-05
-7.47001e-05
3.6343e-05
-8.45955e-05
3.50467e-05
-9.47803e-05
3.16705e-05
-9.02391e-05
1.54122e-05
-6.21127e-05
-6.39844e-06
-1.84019e-05
-8.82634e-06
-9.53143e-06
-6.83792e-05
5.55117e-05
-4.27834e-05
5.02574e-05
-4.68099e-05
4.54602e-05
-4.91379e-05
4.19202e-05
-5.1386e-05
3.95437e-05
-5.20452e-05
3.77197e-05
-5.42757e-05
3.63036e-05
-5.65617e-05
3.5285e-05
-5.84606e-05
3.46049e-05
-6.17977e-05
3.28586e-05
-6.64828e-05
3.04986e-05
-6.92315e-05
2.9558e-05
-7.37596e-05
2.74728e-05
-8.25102e-05
2.21577e-05
-8.94651e-05
1.38852e-05
-8.19667e-05
-3.17015e-06
-4.50573e-05
-1.45386e-05
-7.03347e-06
-6.09667e-06
-1.79733e-05
-7.44758e-05
5.25784e-05
-3.80282e-05
4.80427e-05
-4.22742e-05
4.39402e-05
-4.50354e-05
4.04366e-05
-4.78824e-05
3.82439e-05
-4.98526e-05
3.57105e-05
-5.17422e-05
3.42472e-05
-5.50985e-05
3.29364e-05
-5.71498e-05
3.12112e-05
-6.00725e-05
2.87483e-05
-6.40199e-05
2.68101e-05
-6.72933e-05
2.40188e-05
-7.09682e-05
1.75386e-05
-7.603e-05
7.87391e-06
-7.98005e-05
-4.54709e-06
-6.95457e-05
-1.57666e-05
-3.38377e-05
-1.42613e-05
-8.53879e-06
-1.61588e-06
-3.06187e-05
-7.60917e-05
4.94058e-05
-3.39692e-05
4.54413e-05
-3.83098e-05
4.20455e-05
-4.16396e-05
3.86462e-05
-4.44832e-05
3.63326e-05
-4.7539e-05
3.41698e-05
-4.95794e-05
3.18988e-05
-5.28275e-05
3.04185e-05
-5.56695e-05
2.85059e-05
-5.816e-05
2.58876e-05
-6.14015e-05
2.36912e-05
-6.5097e-05
1.99863e-05
-6.72633e-05
1.34193e-05
-6.9463e-05
4.24575e-06
-7.06269e-05
-6.28479e-06
-5.90152e-05
-1.10291e-05
-2.90935e-05
-3.87943e-06
-1.56884e-05
4.46925e-06
-3.89674e-05
-7.16225e-05
4.61137e-05
-3.05799e-05
4.26557e-05
-3.48518e-05
3.956e-05
-3.85439e-05
3.66732e-05
-4.15964e-05
3.40586e-05
-4.49244e-05
3.19631e-05
-4.74839e-05
2.97268e-05
-5.05912e-05
2.76468e-05
-5.35895e-05
2.59819e-05
-5.6495e-05
2.36189e-05
-5.90385e-05
2.07235e-05
-6.22017e-05
1.86726e-05
-6.52124e-05
1.42485e-05
-6.50389e-05
6.88643e-06
-6.32648e-05
-1.60801e-06
-5.05207e-05
-2.34804e-06
-2.83534e-05
5.91997e-06
-2.39564e-05
6.60084e-06
-3.96483e-05
-6.50216e-05
4.26558e-05
-2.76455e-05
3.97061e-05
-3.1902e-05
3.68294e-05
-3.56672e-05
3.42789e-05
-3.90458e-05
3.16588e-05
-4.23044e-05
2.96051e-05
-4.54302e-05
2.74715e-05
-4.84576e-05
2.51665e-05
-5.12845e-05
2.3766e-05
-5.50945e-05
2.15821e-05
-5.68546e-05
1.91427e-05
-5.97623e-05
1.80616e-05
-6.41313e-05
1.64062e-05
-6.33835e-05
1.21917e-05
-5.90504e-05
6.47873e-06
-4.48077e-05
6.34411e-06
-2.82188e-05
1.01288e-05
-2.77411e-05
7.60972e-06
-3.71292e-05
-5.74119e-05
3.92265e-05
-2.50927e-05
3.66377e-05
-2.93132e-05
3.40472e-05
-3.30767e-05
3.16232e-05
-3.66219e-05
2.92674e-05
-3.99486e-05
2.6984e-05
-4.31468e-05
2.50148e-05
-4.64883e-05
2.29262e-05
-4.9196e-05
2.09725e-05
-5.31407e-05
1.94153e-05
-5.52974e-05
1.83164e-05
-5.86635e-05
1.803e-05
-6.38449e-05
1.74194e-05
-6.27728e-05
1.56132e-05
-5.72441e-05
1.22877e-05
-4.14823e-05
1.07115e-05
-2.66426e-05
9.72895e-06
-2.67585e-05
7.00841e-06
-3.44087e-05
-5.04035e-05
3.58419e-05
-2.28513e-05
3.35034e-05
-2.69747e-05
3.11879e-05
-3.07613e-05
2.88691e-05
-3.4303e-05
2.66712e-05
-3.77507e-05
2.44689e-05
-4.09445e-05
2.23464e-05
-4.43658e-05
2.04672e-05
-4.73167e-05
1.85123e-05
-5.11859e-05
1.70147e-05
-5.37997e-05
1.62908e-05
-5.79397e-05
1.71282e-05
-6.46823e-05
1.77922e-05
-6.34367e-05
1.65799e-05
-5.60319e-05
1.30486e-05
-3.7951e-05
1.04332e-05
-2.40272e-05
7.17918e-06
-2.35045e-05
6.20076e-06
-3.34302e-05
-4.42027e-05
3.25045e-05
-2.08561e-05
3.04102e-05
-2.48804e-05
2.82637e-05
-2.86148e-05
2.61406e-05
-3.218e-05
2.39496e-05
-3.55597e-05
2.18889e-05
-3.88838e-05
1.96767e-05
-4.21536e-05
1.76116e-05
-4.52516e-05
1.57817e-05
-4.93559e-05
1.40474e-05
-5.20654e-05
1.31933e-05
-5.70855e-05
1.38655e-05
-6.53545e-05
1.47591e-05
-6.43303e-05
1.30137e-05
-5.42865e-05
9.01847e-06
-3.39558e-05
5.65264e-06
-2.06613e-05
2.78391e-06
-2.06357e-05
3.97729e-06
-3.46236e-05
-4.02254e-05
2.92352e-05
-1.90655e-05
2.73358e-05
-2.2981e-05
2.5381e-05
-2.666e-05
2.33682e-05
-3.01672e-05
2.13328e-05
-3.35243e-05
1.91931e-05
-3.67441e-05
1.70575e-05
-4.0018e-05
1.48083e-05
-4.30025e-05
1.22676e-05
-4.68152e-05
1.01546e-05
-4.99524e-05
7.88651e-06
-5.48175e-05
4.77633e-06
-6.22443e-05
1.95284e-06
-6.15068e-05
-7.68673e-07
-5.15649e-05
-2.32591e-06
-3.23986e-05
-3.31804e-06
-1.96692e-05
-1.45958e-06
-2.24942e-05
2.78673e-06
-3.88699e-05
-3.74387e-05
2.60527e-05
-1.74528e-05
2.43296e-05
-2.12579e-05
2.25262e-05
-2.48565e-05
2.06606e-05
-2.83016e-05
1.87103e-05
-3.15741e-05
1.6659e-05
-3.46929e-05
1.44544e-05
-3.78133e-05
1.20413e-05
-4.05894e-05
9.14274e-06
-4.39166e-05
5.75961e-06
-4.65693e-05
1.15714e-06
-5.0215e-05
-6.2231e-06
-5.48641e-05
-1.26002e-05
-5.51297e-05
-1.57006e-05
-4.84645e-05
-1.56785e-05
-3.24207e-05
-1.06577e-05
-2.469e-05
-2.76877e-06
-3.03831e-05
5.51847e-07
-4.21906e-05
-3.68868e-05
2.29467e-05
-1.59902e-05
2.13839e-05
-1.96952e-05
1.97407e-05
-2.32133e-05
1.80094e-05
-2.65703e-05
1.61914e-05
-2.9756e-05
1.42294e-05
-3.27309e-05
1.20857e-05
-3.56696e-05
9.60025e-06
-3.8104e-05
6.54518e-06
-4.08615e-05
2.45213e-06
-4.24762e-05
-3.34915e-06
-4.44137e-05
-1.07093e-05
-4.75039e-05
-1.62295e-05
-4.96095e-05
-1.87654e-05
-4.59286e-05
-1.6864e-05
-3.43221e-05
-9.16734e-06
-3.23867e-05
-1.1939e-06
-3.83566e-05
-1.10882e-07
-4.32736e-05
-3.69977e-05
1.99247e-05
-1.46631e-05
1.85026e-05
-1.82732e-05
1.70096e-05
-2.17203e-05
1.54299e-05
-2.49907e-05
1.37589e-05
-2.8085e-05
1.19546e-05
-3.09265e-05
9.93621e-06
-3.36512e-05
7.59463e-06
-3.57624e-05
4.54322e-06
-3.78101e-05
8.38411e-07
-3.87714e-05
-3.51426e-06
-4.0061e-05
-8.6689e-06
-4.23493e-05
-1.39424e-05
-4.4336e-05
-1.51341e-05
-4.47369e-05
-1.04165e-05
-3.90397e-05
-3.13618e-06
-3.96671e-05
3.49528e-07
-4.18423e-05
-2.04169e-07
-4.27199e-05
-3.72019e-05
1.69727e-05
-1.34549e-05
1.56917e-05
-1.69922e-05
1.43411e-05
-2.03697e-05
1.29251e-05
-2.35747e-05
1.14109e-05
-2.65708e-05
9.79305e-06
-2.93086e-05
7.92611e-06
-3.17843e-05
5.78517e-06
-3.36214e-05
3.536e-06
-3.55609e-05
1.80801e-06
-3.70434e-05
-8.88381e-08
-3.81642e-05
-2.30466e-06
-4.01335e-05
-4.75904e-06
-4.18816e-05
-3.79667e-06
-4.56993e-05
2.62037e-07
-4.30984e-05
3.0783e-06
-4.24833e-05
2.26887e-06
-4.10328e-05
5.61152e-07
-4.10121e-05
-3.66407e-05
1.40789e-05
-1.23561e-05
1.29275e-05
-1.58408e-05
1.17282e-05
-1.91704e-05
1.04692e-05
-2.23157e-05
9.13027e-06
-2.52319e-05
7.61172e-06
-2.77901e-05
5.94649e-06
-3.01191e-05
4.5084e-06
-3.21834e-05
3.40051e-06
-3.44531e-05
3.00237e-06
-3.66453e-05
2.67079e-06
-3.78326e-05
4.00176e-06
-4.14644e-05
5.00818e-06
-4.2888e-05
5.17258e-06
-4.58637e-05
6.2779e-06
-4.42037e-05
6.33735e-06
-4.25428e-05
4.86672e-06
-3.95622e-05
2.52586e-06
-3.86713e-05
-3.41149e-05
1.12375e-05
-1.13592e-05
1.0209e-05
-1.48123e-05
9.15407e-06
-1.81154e-05
8.03895e-06
-2.12006e-05
6.81264e-06
-2.40056e-05
5.62935e-06
-2.66068e-05
4.80222e-06
-2.92919e-05
4.45595e-06
-3.18371e-05
4.18641e-06
-3.41835e-05
4.76936e-06
-3.72282e-05
5.7161e-06
-3.87794e-05
7.46323e-06
-4.32116e-05
8.64462e-06
-4.40694e-05
7.99946e-06
-4.52186e-05
7.68117e-06
-4.38854e-05
7.24675e-06
-4.21083e-05
6.0853e-06
-3.84008e-05
3.71542e-06
-3.63014e-05
-3.03994e-05
8.42689e-06
-1.0431e-05
7.50007e-06
-1.38855e-05
6.52755e-06
-1.71429e-05
5.56755e-06
-2.02406e-05
4.88644e-06
-2.33245e-05
4.69272e-06
-2.64131e-05
4.79172e-06
-2.93909e-05
5.31071e-06
-3.23561e-05
5.95822e-06
-3.4831e-05
7.54488e-06
-3.88149e-05
9.18428e-06
-4.04188e-05
9.52563e-06
-4.35529e-05
9.54994e-06
-4.40937e-05
8.75678e-06
-4.44254e-05
7.94446e-06
-4.30731e-05
7.10632e-06
-4.12702e-05
5.56273e-06
-3.68572e-05
3.18781e-06
-3.39265e-05
-2.72116e-05
5.61171e-06
-9.52424e-06
4.77111e-06
-1.30449e-05
4.16396e-06
-1.65358e-05
4.02239e-06
-2.0099e-05
4.30049e-06
-2.36026e-05
4.91471e-06
-2.70273e-05
5.77793e-06
-3.02542e-05
7.21371e-06
-3.37919e-05
8.58876e-06
-3.62061e-05
9.79961e-06
-4.00257e-05
1.06613e-05
-4.12805e-05
1.02087e-05
-4.31003e-05
9.63244e-06
-4.35174e-05
8.56199e-06
-4.3355e-05
7.05664e-06
-4.15677e-05
5.39255e-06
-3.96061e-05
3.16238e-06
-3.4627e-05
1.20064e-06
-3.19647e-05
-2.6011e-05
2.9907e-06
-8.84364e-06
2.75937e-06
-1.28135e-05
3.04508e-06
-1.68215e-05
3.71219e-06
-2.07661e-05
4.69682e-06
-2.45872e-05
6.01772e-06
-2.83482e-05
7.39069e-06
-3.16272e-05
8.85153e-06
-3.52527e-05
9.96109e-06
-3.73157e-05
1.04462e-05
-4.05109e-05
1.06773e-05
-4.15116e-05
1.0148e-05
-4.2571e-05
9.0723e-06
-4.24417e-05
7.61508e-06
-4.18977e-05
5.56665e-06
-3.95193e-05
3.60071e-06
-3.76402e-05
1.71749e-06
-3.27438e-05
4.459e-07
-3.06932e-05
-2.55651e-05
1.30201e-06
2.05482e-06
2.98916e-06
4.09815e-06
5.34258e-06
6.67875e-06
8.00701e-06
9.20434e-06
1.02588e-05
1.06851e-05
1.07174e-05
1.01151e-05
8.91128e-06
7.33613e-06
5.44064e-06
3.53812e-06
1.89819e-06
6.33282e-07
)
;

boundaryField
{
    leftWall
    {
        type            calculated;
        value           nonuniform 0();
    }
    rightWall
    {
        type            calculated;
        value           uniform 0;
    }
    lowerWall
    {
        type            calculated;
        value           nonuniform 0();
    }
    atmosphere
    {
        type            calculated;
        value           nonuniform List<scalar> 
23
(
-6.14568e-07
-1.30415e-06
-2.02095e-06
-2.75763e-06
-9.36728e-06
-1.35663e-05
-1.77558e-05
-2.18751e-05
-2.58317e-05
-2.96843e-05
-3.29554e-05
-3.645e-05
-3.83701e-05
-4.09372e-05
-4.15439e-05
-4.19688e-05
-4.12378e-05
-4.03226e-05
-3.76238e-05
-3.57376e-05
-3.11039e-05
-2.94282e-05
-2.49318e-05
)
;
    }
    defaultFaces
    {
        type            empty;
        value           nonuniform 0();
    }
    procBoundary3to1
    {
        type            processor;
        value           nonuniform List<scalar> 
23
(
5.05152e-05
5.36812e-05
5.56503e-05
5.62071e-05
0.0001377
0.000135447
0.000114885
7.8513e-05
4.68447e-05
3.63905e-05
3.88285e-05
4.73874e-05
5.30167e-05
5.85831e-05
6.5886e-05
8.1739e-05
9.39891e-05
0.000101068
0.000111181
0.000113939
0.000107211
8.95913e-05
0.000103261
)
;
    }
    procBoundary3to2
    {
        type            processor;
        value           nonuniform List<scalar> 
25
(
-0.00013848
-0.000116389
-0.000104829
-9.51319e-05
-8.58677e-05
-7.78724e-05
-7.11324e-05
-6.53032e-05
-5.99865e-05
-5.49084e-05
-5.02077e-05
-4.57552e-05
-4.15486e-05
-3.75492e-05
-3.37401e-05
-3.0101e-05
-2.661e-05
-2.32583e-05
-2.00198e-05
-1.68527e-05
-1.38259e-05
-1.09786e-05
-8.02229e-06
-5.189e-06
-5.63857e-07
)
;
    }
}


// ************************************************************************* //
