/*--------------------------------*- C++ -*----------------------------------*\
| =========                 |                                                 |
| \\      /  F ield         | OpenFOAM: The Open Source CFD Toolbox           |
|  \\    /   O peration     | Version:  2.4.0                                 |
|   \\  /    A nd           | Web:      www.OpenFOAM.org                      |
|    \\/     M anipulation  |                                                 |
\*---------------------------------------------------------------------------*/
FoamFile
{
    version     2.0;
    format      ascii;
    class       surfaceScalarField;
    location    "1";
    object      phi.oil;
}
// * * * * * * * * * * * * * * * * * * * * * * * * * * * * * * * * * * * * * //

dimensions      [0 3 -1 0 0 0 0];

internalField   nonuniform List<scalar> 
1102
(
0.000128382
-4.0328e-05
0.00011658
-4.29362e-05
0.000107307
-4.32875e-05
-4.43892e-05
9.70865e-05
0.000108946
-3.29408e-05
0.000101802
-3.5983e-05
9.4742e-05
-3.75681e-05
-3.98444e-05
8.83916e-05
9.96862e-05
-2.77093e-05
9.36692e-05
-2.99022e-05
8.74781e-05
-3.13374e-05
-3.27939e-05
8.03212e-05
9.05721e-05
-2.31648e-05
8.53637e-05
-2.47254e-05
8.002e-05
-2.59733e-05
-2.67825e-05
7.39592e-05
8.18422e-05
-1.91227e-05
7.76469e-05
-2.05198e-05
7.32724e-05
-2.16012e-05
-2.25186e-05
6.89643e-05
7.47648e-05
-1.60008e-05
7.14546e-05
-1.71921e-05
6.81983e-05
-1.83254e-05
-1.91732e-05
6.4845e-05
6.86512e-05
-1.35232e-05
6.60991e-05
-1.46331e-05
6.35607e-05
-1.57846e-05
-1.66637e-05
6.10525e-05
6.33534e-05
-1.15771e-05
6.13779e-05
-1.26575e-05
5.93456e-05
-1.37499e-05
-1.4649e-05
5.73366e-05
5.84262e-05
-1.00161e-05
5.68221e-05
-1.10495e-05
5.51452e-05
-1.207e-05
-1.29661e-05
5.34662e-05
5.36237e-05
-8.73218e-06
5.22922e-05
-9.71625e-06
5.0907e-05
-1.06815e-05
-1.15604e-05
4.95035e-05
4.91164e-05
-7.64222e-06
4.7983e-05
-8.58002e-06
4.67998e-05
-9.49691e-06
-1.03498e-05
4.55903e-05
4.48203e-05
-6.70949e-06
4.384e-05
-7.59934e-06
4.28211e-05
-8.47689e-06
-9.30755e-06
4.17794e-05
4.07348e-05
-5.89791e-06
3.98847e-05
-6.74812e-06
3.89973e-05
-7.58917e-06
-8.39348e-06
3.80836e-05
3.68345e-05
-5.18527e-06
3.60869e-05
-6.00087e-06
3.53069e-05
-6.80822e-06
-7.58664e-06
3.45e-05
3.31063e-05
-4.55318e-06
3.24422e-05
-5.33581e-06
3.17467e-05
-6.11253e-06
-6.86601e-06
3.10261e-05
2.95318e-05
-3.98533e-06
2.89367e-05
-4.74085e-06
2.83134e-05
-5.48869e-06
-6.21839e-06
2.76658e-05
2.60964e-05
-3.47266e-06
2.55593e-05
-4.20311e-06
2.49956e-05
-4.92486e-06
-5.63244e-06
2.44098e-05
2.27891e-05
-3.00433e-06
2.22982e-05
-3.71244e-06
2.17848e-05
-4.411e-06
-5.09992e-06
2.12522e-05
1.95896e-05
-2.57474e-06
1.91393e-05
-3.2616e-06
1.86685e-05
-3.94023e-06
-4.61255e-06
1.81811e-05
1.64617e-05
-2.18419e-06
1.60514e-05
-2.85161e-06
1.56231e-05
-3.51172e-06
-4.16751e-06
1.51779e-05
1.34397e-05
-1.79817e-06
1.30458e-05
-2.45737e-06
1.26449e-05
-3.11099e-06
-3.75742e-06
1.22347e-05
1.05721e-05
-1.39189e-06
1.01632e-05
-2.04878e-06
9.75603e-06
-2.70377e-06
-3.35678e-06
9.35523e-06
7.65953e-06
-1.02914e-06
7.28635e-06
-1.67541e-06
6.90599e-06
-2.32362e-06
-2.96959e-06
6.51856e-06
4.80573e-06
-6.45856e-07
4.41168e-06
-1.28176e-06
4.02686e-06
-1.93913e-06
-2.61429e-06
3.67127e-06
5.32135e-07
5.54077e-07
6.35412e-07
7.78316e-07
7.59153e-05
-0.000115804
5.00988e-05
-0.000113374
3.54204e-05
-9.67351e-05
3.01487e-05
-7.17692e-05
3.52999e-05
-4.9939e-05
4.22404e-05
-4.31547e-05
4.96449e-05
-4.58104e-05
5.50385e-05
-5.20798e-05
5.93907e-05
-5.72072e-05
6.34333e-05
-6.25998e-05
6.73385e-05
-6.96038e-05
6.76808e-05
-8.18668e-05
6.34356e-05
-8.97769e-05
5.83684e-05
-9.6143e-05
4.93497e-05
-0.000102409
3.69505e-05
-0.000102408
2.0624e-05
-9.37545e-05
1.30881e-05
-8.159e-05
-9.40489e-05
6.7857e-05
-9.81185e-05
4.86216e-05
-9.26761e-05
3.42772e-05
-8.23795e-05
2.92385e-05
-6.82704e-05
3.28174e-05
-5.57677e-05
3.95851e-05
-5.1332e-05
4.56832e-05
-5.19189e-05
4.99985e-05
-5.59837e-05
5.38838e-05
-6.08728e-05
5.59646e-05
-6.45675e-05
5.68466e-05
-7.07431e-05
5.48783e-05
-8.0078e-05
5.07106e-05
-8.56238e-05
4.85423e-05
-9.38886e-05
4.32471e-05
-9.73297e-05
3.68365e-05
-9.6264e-05
2.29034e-05
-8.2682e-05
1.19998e-05
-6.82858e-05
-8.04292e-05
5.93097e-05
-7.87262e-05
4.63903e-05
-7.81772e-05
3.73535e-05
-7.30104e-05
3.43613e-05
-6.5125e-05
3.6608e-05
-5.82599e-05
4.08084e-05
-5.59256e-05
4.46259e-05
-5.60336e-05
4.66856e-05
-5.81134e-05
4.88758e-05
-6.31605e-05
5.12404e-05
-6.69511e-05
5.21984e-05
-7.16812e-05
4.95312e-05
-7.742e-05
4.64135e-05
-8.26197e-05
4.68615e-05
-9.4131e-05
4.56544e-05
-9.57793e-05
4.01114e-05
-9.118e-05
2.93633e-05
-7.39574e-05
1.03241e-05
-4.88847e-05
-6.83592e-05
5.98638e-05
-6.54838e-05
4.94706e-05
-6.6542e-05
4.20348e-05
-6.53494e-05
3.91556e-05
-6.22907e-05
3.90055e-05
-5.81859e-05
4.00951e-05
-5.71498e-05
4.20468e-05
-5.80603e-05
4.33437e-05
-5.94055e-05
4.34446e-05
-6.32535e-05
4.51335e-05
-6.86343e-05
4.72408e-05
-7.3786e-05
4.61035e-05
-7.63041e-05
4.46042e-05
-8.15359e-05
4.63583e-05
-9.58001e-05
4.58362e-05
-9.22847e-05
4.10593e-05
-8.5898e-05
2.70325e-05
-6.11972e-05
7.51973e-06
-2.92447e-05
-6.05893e-05
5.90627e-05
-5.57357e-05
5.11225e-05
-5.83051e-05
4.50981e-05
-5.92938e-05
4.15634e-05
-5.87794e-05
4.00967e-05
-5.67369e-05
4.00251e-05
-5.70853e-05
4.06567e-05
-5.86868e-05
4.11291e-05
-5.98726e-05
4.06259e-05
-6.27435e-05
4.0864e-05
-6.8868e-05
4.04601e-05
-7.33918e-05
3.94628e-05
-7.5308e-05
3.99608e-05
-8.29575e-05
3.94377e-05
-9.65466e-05
3.93362e-05
-7.64935e-05
2.96808e-05
-7.19679e-05
9.3318e-06
-4.2395e-05
-3.74787e-06
-1.62163e-05
-6.43766e-05
5.75026e-05
-4.83524e-05
5.1421e-05
-5.2105e-05
4.61416e-05
-5.39639e-05
4.23249e-05
-5.49338e-05
4.00228e-05
-5.44181e-05
3.90364e-05
-5.60906e-05
3.83224e-05
-5.79686e-05
3.7924e-05
-5.94709e-05
3.76546e-05
-6.24714e-05
3.70128e-05
-6.82258e-05
3.52086e-05
-7.15954e-05
3.46546e-05
-7.47328e-05
3.4765e-05
-8.47053e-05
2.14095e-05
-9.556e-05
2.85979e-05
-0.000106535
1.76372e-05
-6.80847e-05
-6.61637e-06
-2.15039e-05
-8.91435e-06
-1.58099e-05
-6.93251e-05
5.55182e-05
-4.27905e-05
5.02668e-05
-4.68124e-05
4.54653e-05
-4.9134e-05
4.19235e-05
-5.13773e-05
3.95459e-05
-5.20343e-05
3.77226e-05
-5.42648e-05
3.63075e-05
-5.65516e-05
3.529e-05
-5.84519e-05
3.4611e-05
-6.1791e-05
3.28606e-05
-6.64792e-05
3.04957e-05
-6.92378e-05
2.9566e-05
-7.38032e-05
2.55522e-05
-8.25781e-05
1.23433e-05
-8.98208e-05
1.50703e-05
-0.000115396
-1.23568e-07
-7.32422e-05
-1.39474e-05
-1.379e-05
-4.37753e-06
-3.49515e-05
-8.75104e-05
5.25825e-05
-3.80241e-05
4.80464e-05
-4.22665e-05
4.39424e-05
-4.50254e-05
4.04379e-05
-4.78715e-05
3.8245e-05
-4.98414e-05
3.57121e-05
-5.17316e-05
3.42497e-05
-5.50887e-05
3.29399e-05
-5.71414e-05
3.12151e-05
-6.00659e-05
2.8749e-05
-6.40163e-05
2.68018e-05
-6.73014e-05
2.39445e-05
-7.10193e-05
1.51515e-05
-7.61458e-05
3.46921e-06
-8.08145e-05
-2.40989e-06
-8.78075e-05
-1.01057e-05
-8.33037e-05
-9.51601e-06
-2.97884e-05
-1.11937e-07
-6.95021e-05
-8.77215e-05
4.94083e-05
-3.39617e-05
4.54433e-05
-3.83003e-05
4.20466e-05
-4.16293e-05
3.86468e-05
-4.44726e-05
3.6333e-05
-4.75287e-05
3.41705e-05
-4.95695e-05
3.19002e-05
-5.28184e-05
3.04208e-05
-5.56616e-05
2.8507e-05
-5.81537e-05
2.58902e-05
-6.1399e-05
2.36498e-05
-6.51107e-05
1.98826e-05
-6.7331e-05
1.13554e-05
-6.96166e-05
1.62181e-06
-7.18926e-05
-5.61753e-06
-6.11767e-05
-8.38629e-06
-8.75055e-05
-2.2354e-06
-6.37705e-05
4.45057e-06
-8.62633e-05
-7.49057e-05
4.61151e-05
-3.05712e-05
4.2657e-05
-3.48423e-05
3.95607e-05
-3.85343e-05
3.66733e-05
-4.15867e-05
3.40584e-05
-4.49151e-05
3.19631e-05
-4.74749e-05
2.97273e-05
-5.05829e-05
2.76479e-05
-5.35822e-05
2.59824e-05
-5.64895e-05
2.36101e-05
-5.9038e-05
2.06792e-05
-6.22177e-05
1.85925e-05
-6.53138e-05
1.28142e-05
-6.52695e-05
5.07904e-06
-6.44187e-05
-1.77773e-06
-5.45239e-05
-1.2719e-06
-7.0074e-05
5.89517e-06
-8.15136e-05
5.85472e-06
-5.93612e-05
-6.8087e-05
4.26569e-05
-2.76371e-05
3.97071e-05
-3.18934e-05
3.68299e-05
-3.56585e-05
3.42787e-05
-3.90373e-05
3.16583e-05
-4.2296e-05
2.96045e-05
-4.54222e-05
2.74713e-05
-4.84502e-05
2.51667e-05
-5.12779e-05
2.37652e-05
-5.50898e-05
2.15674e-05
-5.68569e-05
1.9079e-05
-5.97975e-05
1.80113e-05
-6.42629e-05
1.56168e-05
-6.36815e-05
1.04888e-05
-6.00951e-05
4.46177e-06
-4.8112e-05
6.69721e-06
-3.84901e-05
8.25689e-06
-5.06827e-05
7.38547e-06
-4.36312e-05
-5.99902e-05
3.92274e-05
-2.5085e-05
3.66385e-05
-2.93055e-05
3.40475e-05
-3.30691e-05
3.16228e-05
-3.66144e-05
2.92665e-05
-3.99413e-05
2.6983e-05
-4.31398e-05
2.50139e-05
-4.64817e-05
2.29254e-05
-4.91901e-05
2.09689e-05
-5.31371e-05
1.9405e-05
-5.53064e-05
1.82324e-05
-5.87166e-05
1.7991e-05
-6.4054e-05
1.66008e-05
-6.31243e-05
1.46216e-05
-5.84239e-05
1.1802e-05
-4.45655e-05
1.05568e-05
-3.11079e-05
9.78845e-06
-3.21198e-05
7.0362e-06
-3.84506e-05
-5.27488e-05
3.58428e-05
-2.28446e-05
3.35042e-05
-2.69679e-05
3.11881e-05
-3.07547e-05
2.88685e-05
-3.42966e-05
2.66701e-05
-3.77445e-05
2.44676e-05
-4.09384e-05
2.23451e-05
-4.436e-05
2.04656e-05
-4.73116e-05
1.85053e-05
-5.11839e-05
1.69992e-05
-5.38131e-05
1.61635e-05
-5.80218e-05
1.71195e-05
-6.49916e-05
1.66882e-05
-6.28496e-05
1.62586e-05
-5.7723e-05
1.27684e-05
-4.10274e-05
1.05037e-05
-2.80479e-05
7.4108e-06
-2.80155e-05
5.89614e-06
-3.68298e-05
-4.52743e-05
3.25054e-05
-2.08502e-05
3.04109e-05
-2.48745e-05
2.82638e-05
-2.86091e-05
2.61399e-05
-3.21744e-05
2.39483e-05
-3.55544e-05
2.18874e-05
-3.88785e-05
1.96751e-05
-4.21485e-05
1.76094e-05
-4.52471e-05
1.5772e-05
-4.93554e-05
1.40143e-05
-5.20887e-05
1.30023e-05
-5.71888e-05
1.35288e-05
-6.5711e-05
1.41875e-05
-6.46789e-05
1.29743e-05
-5.67374e-05
9.091e-06
-3.7248e-05
5.76796e-06
-2.47685e-05
2.94865e-06
-2.46234e-05
3.32823e-06
-3.58986e-05
-4.12197e-05
2.9236e-05
-1.90604e-05
2.73364e-05
-2.2976e-05
2.53809e-05
-2.66551e-05
2.33674e-05
-3.01625e-05
2.13314e-05
-3.35197e-05
1.91915e-05
-3.67396e-05
1.70557e-05
-4.00134e-05
1.48047e-05
-4.29986e-05
1.22514e-05
-4.68163e-05
1.01207e-05
-4.9982e-05
7.42394e-06
-5.49506e-05
4.22163e-06
-6.25909e-05
1.5628e-06
-6.33594e-05
-7.84221e-07
-5.29266e-05
-2.15915e-06
-3.64457e-05
-3.07857e-06
-2.52504e-05
-1.5607e-06
-2.54065e-05
2.30007e-06
-3.98076e-05
-3.69783e-05
2.60535e-05
-1.74484e-05
2.43301e-05
-2.12536e-05
2.2526e-05
-2.48524e-05
2.06596e-05
-2.82976e-05
1.87089e-05
-3.15701e-05
1.66574e-05
-3.46889e-05
1.44526e-05
-3.78093e-05
1.20373e-05
-4.0586e-05
9.11699e-06
-4.39192e-05
5.69123e-06
-4.66071e-05
5.76491e-07
-5.03743e-05
-6.7094e-06
-5.55915e-05
-1.2388e-05
-5.79975e-05
-1.53558e-05
-5.3885e-05
-1.53182e-05
-3.92898e-05
-1.09051e-05
-3.00976e-05
-2.90337e-06
-3.16809e-05
1.84349e-07
-4.07889e-05
-3.69937e-05
2.29473e-05
-1.59863e-05
2.13843e-05
-1.96915e-05
1.97404e-05
-2.32098e-05
1.80085e-05
-2.65669e-05
1.619e-05
-2.97526e-05
1.42279e-05
-3.27272e-05
1.20839e-05
-3.56659e-05
9.59633e-06
-3.81009e-05
6.51574e-06
-4.08649e-05
2.35256e-06
-4.252e-05
-4.07028e-06
-4.45955e-05
-1.08416e-05
-4.84538e-05
-1.59266e-05
-5.17574e-05
-1.82794e-05
-4.72755e-05
-1.6631e-05
-3.79519e-05
-1.03445e-05
-3.19239e-05
-9.13564e-07
-3.79109e-05
-2.21693e-07
-4.33813e-05
-3.70274e-05
1.99252e-05
-1.46597e-05
1.85028e-05
-1.827e-05
1.70092e-05
-2.17173e-05
1.5429e-05
-2.49877e-05
1.37577e-05
-2.80819e-05
1.19532e-05
-3.09232e-05
9.93463e-06
-3.36478e-05
7.59182e-06
-3.57594e-05
4.5301e-06
-3.78117e-05
7.83819e-07
-3.87879e-05
-3.851e-06
-4.014e-05
-8.91233e-06
-4.25273e-05
-1.40109e-05
-4.51492e-05
-1.45451e-05
-4.5062e-05
-1.03946e-05
-3.75771e-05
-3.92986e-06
-3.94721e-05
7.42978e-07
-4.20587e-05
-2.9465e-07
-4.2811e-05
-3.72183e-05
1.69731e-05
-1.34521e-05
1.56917e-05
-1.69895e-05
1.43407e-05
-2.0367e-05
1.29242e-05
-2.3572e-05
1.14098e-05
-2.6568e-05
9.79189e-06
-2.93055e-05
7.92484e-06
-3.1781e-05
5.78346e-06
-3.36184e-05
3.53176e-06
-3.556e-05
1.80441e-06
-3.7048e-05
-2.10349e-07
-3.81789e-05
-2.43418e-06
-3.99732e-05
-4.82026e-06
-4.15155e-05
-3.74979e-06
-4.49583e-05
1.60375e-07
-4.23477e-05
2.82212e-06
-4.21837e-05
2.5988e-06
-4.1182e-05
5.32011e-07
-4.10757e-05
-3.66529e-05
1.40791e-05
-1.23537e-05
1.29274e-05
-1.58385e-05
1.17277e-05
-1.9168e-05
1.04684e-05
-2.23133e-05
9.12938e-06
-2.52293e-05
7.6108e-06
-2.77872e-05
5.94545e-06
-3.0116e-05
4.50741e-06
-3.21804e-05
3.39828e-06
-3.44515e-05
3.00222e-06
-3.6647e-05
2.65689e-06
-3.78354e-05
4.14986e-06
-4.14569e-05
4.99142e-06
-4.25869e-05
5.19048e-06
-4.56213e-05
6.27446e-06
-4.38249e-05
6.27781e-06
-4.24515e-05
4.98909e-06
-3.96346e-05
2.51504e-06
-3.87178e-05
-3.41255e-05
1.12377e-05
-1.1357e-05
1.02089e-05
-1.48102e-05
9.15371e-06
-1.81133e-05
8.03839e-06
-2.11983e-05
6.81195e-06
-2.40032e-05
5.62864e-06
-2.66041e-05
4.80143e-06
-2.92891e-05
4.45533e-06
-3.18343e-05
4.18513e-06
-3.41816e-05
4.76865e-06
-3.72274e-05
5.71543e-06
-3.8778e-05
7.50796e-06
-4.32104e-05
8.63733e-06
-4.40659e-05
8.0012e-06
-4.52375e-05
7.68905e-06
-4.39114e-05
7.23705e-06
-4.21368e-05
6.11951e-06
-3.84341e-05
3.71489e-06
-3.63215e-05
-3.04095e-05
8.42703e-06
-1.04292e-05
7.50003e-06
-1.38837e-05
6.5273e-06
-1.71411e-05
5.56715e-06
-2.02386e-05
4.88596e-06
-2.33224e-05
4.69219e-06
-2.64107e-05
4.79114e-06
-2.93885e-05
5.3103e-06
-3.23536e-05
5.95752e-06
-3.48286e-05
7.54411e-06
-3.88123e-05
9.18374e-06
-4.04162e-05
9.52643e-06
-4.35502e-05
9.54631e-06
-4.4094e-05
8.75673e-06
-4.44334e-05
7.94578e-06
-4.30845e-05
7.10532e-06
-4.12816e-05
5.56568e-06
-3.68692e-05
3.18737e-06
-3.3936e-05
-2.72164e-05
5.61181e-06
-9.52285e-06
4.77108e-06
-1.30436e-05
4.16381e-06
-1.65345e-05
4.02213e-06
-2.00976e-05
4.30017e-06
-2.3601e-05
4.91434e-06
-2.70255e-05
5.77752e-06
-3.02523e-05
7.2133e-06
-3.37898e-05
8.58825e-06
-3.62038e-05
9.79913e-06
-4.00233e-05
1.06609e-05
-4.12779e-05
1.02083e-05
-4.30975e-05
9.63147e-06
-4.35147e-05
8.56167e-06
-4.33541e-05
7.05626e-06
-4.15689e-05
5.39245e-06
-3.96073e-05
3.16146e-06
-3.46287e-05
1.20025e-06
-3.19665e-05
-2.60113e-05
2.99072e-06
-8.84271e-06
2.75936e-06
-1.28126e-05
3.04499e-06
-1.68206e-05
3.71204e-06
-2.07651e-05
4.69663e-06
-2.45862e-05
6.01749e-06
-2.83469e-05
7.39043e-06
-3.16258e-05
8.85123e-06
-3.52511e-05
9.96078e-06
-3.73138e-05
1.04459e-05
-4.05088e-05
1.0677e-05
-4.15093e-05
1.01477e-05
-4.25684e-05
9.07202e-06
-4.2439e-05
7.61487e-06
-4.18949e-05
5.56624e-06
-3.95165e-05
3.60067e-06
-3.76375e-05
1.71679e-06
-3.27414e-05
4.45802e-07
-3.0691e-05
-2.55626e-05
1.302e-06
2.0548e-06
2.98912e-06
4.0981e-06
5.34251e-06
6.67866e-06
8.00692e-06
9.20424e-06
1.02587e-05
1.0685e-05
1.07173e-05
1.01151e-05
8.91121e-06
7.33607e-06
5.44056e-06
3.53809e-06
1.89803e-06
6.33282e-07
)
;

boundaryField
{
    leftWall
    {
        type            fixedValue;
        value           nonuniform 0();
    }
    rightWall
    {
        type            fixedValue;
        value           uniform 0;
    }
    lowerWall
    {
        type            fixedValue;
        value           nonuniform 0();
    }
    atmosphere
    {
        type            calculated;
        value           nonuniform List<scalar> 
23
(
-6.14264e-07
-1.30387e-06
-2.02069e-06
-2.75735e-06
-9.36653e-06
-1.35656e-05
-1.77551e-05
-2.18743e-05
-2.58307e-05
-2.96833e-05
-3.29542e-05
-3.64486e-05
-3.83684e-05
-4.09352e-05
-4.15417e-05
-4.19663e-05
-4.12352e-05
-4.03197e-05
-3.76208e-05
-3.57345e-05
-3.11005e-05
-2.94247e-05
-2.49282e-05
)
;
    }
    defaultFaces
    {
        type            empty;
        value           nonuniform 0();
    }
    procBoundary3to1
    {
        type            processor;
        value           nonuniform List<scalar> 
23
(
5.01096e-05
5.30121e-05
4.90437e-05
4.20725e-05
0.0001003
0.000130899
0.000116402
7.74273e-05
4.44891e-05
3.60188e-05
3.91841e-05
4.77081e-05
5.31729e-05
5.85661e-05
6.53758e-05
8.02557e-05
9.27956e-05
0.000100685
0.000111304
0.000114159
0.000107689
8.39402e-05
0.000107959
)
;
    }
    procBoundary3to2
    {
        type            processor;
        value           nonuniform List<scalar> 
25
(
-0.000120572
-0.000116019
-0.000104859
-9.48925e-05
-8.58963e-05
-7.78755e-05
-7.11327e-05
-6.53014e-05
-5.99837e-05
-5.49052e-05
-5.02042e-05
-4.57523e-05
-4.15458e-05
-3.75472e-05
-3.37382e-05
-3.00997e-05
-2.66088e-05
-2.32575e-05
-2.00191e-05
-1.68523e-05
-1.38256e-05
-1.09786e-05
-8.02231e-06
-5.18912e-06
-5.63969e-07
)
;
    }
}


// ************************************************************************* //
