/*--------------------------------*- C++ -*----------------------------------*\
| =========                 |                                                 |
| \\      /  F ield         | OpenFOAM: The Open Source CFD Toolbox           |
|  \\    /   O peration     | Version:  2.4.0                                 |
|   \\  /    A nd           | Web:      www.OpenFOAM.org                      |
|    \\/     M anipulation  |                                                 |
\*---------------------------------------------------------------------------*/
FoamFile
{
    version     2.0;
    format      ascii;
    class       surfaceScalarField;
    location    "1";
    object      phi.mercury;
}
// * * * * * * * * * * * * * * * * * * * * * * * * * * * * * * * * * * * * * //

dimensions      [0 3 -1 0 0 0 0];

internalField   nonuniform List<scalar> 
1102
(
0.000128291
-4.03383e-05
0.000117663
-4.30425e-05
0.000106618
-4.46e-05
-4.61174e-05
9.65407e-05
0.000108906
-3.28659e-05
0.000101789
-3.59227e-05
9.47015e-05
-3.75046e-05
-3.98136e-05
8.8403e-05
9.96587e-05
-2.77076e-05
9.36354e-05
-2.98935e-05
8.74316e-05
-3.12971e-05
-3.27723e-05
8.03938e-05
9.0539e-05
-2.31252e-05
8.53316e-05
-2.46849e-05
7.99974e-05
-2.59589e-05
-2.67705e-05
7.39984e-05
8.18257e-05
-1.90922e-05
7.76402e-05
-2.0496e-05
7.32565e-05
-2.15731e-05
-2.24961e-05
6.89843e-05
7.47648e-05
-1.59928e-05
7.14483e-05
-1.71795e-05
6.81933e-05
-1.83151e-05
-1.91659e-05
6.48642e-05
6.86478e-05
-1.3515e-05
6.60961e-05
-1.46253e-05
6.35591e-05
-1.5777e-05
-1.6655e-05
6.10492e-05
6.33503e-05
-1.15679e-05
6.13756e-05
-1.26507e-05
5.93437e-05
-1.37436e-05
-1.46435e-05
5.73329e-05
5.84247e-05
-1.00107e-05
5.68208e-05
-1.1045e-05
5.5144e-05
-1.20663e-05
-1.29632e-05
5.34644e-05
5.36229e-05
-8.72942e-06
5.22916e-05
-9.71414e-06
5.09065e-05
-1.06799e-05
-1.15592e-05
4.95027e-05
4.91162e-05
-7.64135e-06
4.79828e-05
-8.57935e-06
4.67996e-05
-9.49641e-06
-1.03494e-05
4.55901e-05
4.48203e-05
-6.70936e-06
4.38399e-05
-7.59923e-06
4.28211e-05
-8.47681e-06
-9.30749e-06
4.17794e-05
4.07348e-05
-5.8979e-06
3.98847e-05
-6.74811e-06
3.89973e-05
-7.58916e-06
-8.39347e-06
3.80836e-05
3.68345e-05
-5.18527e-06
3.60869e-05
-6.00087e-06
3.53069e-05
-6.80822e-06
-7.58664e-06
3.45e-05
3.31063e-05
-4.55318e-06
3.24422e-05
-5.33581e-06
3.17467e-05
-6.11253e-06
-6.86601e-06
3.10261e-05
2.95318e-05
-3.98533e-06
2.89367e-05
-4.74085e-06
2.83134e-05
-5.48869e-06
-6.21839e-06
2.76658e-05
2.60964e-05
-3.47266e-06
2.55593e-05
-4.20311e-06
2.49956e-05
-4.92486e-06
-5.63244e-06
2.44098e-05
2.27891e-05
-3.00433e-06
2.22982e-05
-3.71244e-06
2.17848e-05
-4.411e-06
-5.09992e-06
2.12522e-05
1.95896e-05
-2.57474e-06
1.91393e-05
-3.2616e-06
1.86685e-05
-3.94023e-06
-4.61255e-06
1.81811e-05
1.64617e-05
-2.18419e-06
1.60514e-05
-2.85161e-06
1.56231e-05
-3.51172e-06
-4.16751e-06
1.51779e-05
1.34397e-05
-1.79817e-06
1.30458e-05
-2.45737e-06
1.26449e-05
-3.11099e-06
-3.75742e-06
1.22347e-05
1.05721e-05
-1.39189e-06
1.01632e-05
-2.04878e-06
9.75603e-06
-2.70377e-06
-3.35678e-06
9.35523e-06
7.65953e-06
-1.02914e-06
7.28635e-06
-1.67541e-06
6.90599e-06
-2.32362e-06
-2.96959e-06
6.51856e-06
4.80573e-06
-6.45856e-07
4.41168e-06
-1.28176e-06
4.02686e-06
-1.93913e-06
-2.61429e-06
3.67127e-06
5.32135e-07
5.54077e-07
6.35412e-07
7.78316e-07
7.56945e-05
-0.00011684
5.29978e-05
-0.000112736
3.51354e-05
-9.70069e-05
2.9605e-05
-7.29747e-05
3.50703e-05
-5.22981e-05
4.34894e-05
-4.48066e-05
5.07058e-05
-4.60346e-05
5.52722e-05
-5.19522e-05
5.94201e-05
-5.716e-05
6.34163e-05
-6.25635e-05
6.73714e-05
-6.9832e-05
6.76445e-05
-8.20183e-05
6.34081e-05
-8.97974e-05
5.83571e-05
-9.61224e-05
4.94424e-05
-0.000102463
3.7838e-05
-0.000102556
2.37323e-05
-9.34572e-05
1.41011e-05
-7.99062e-05
-8.94908e-05
6.9546e-05
-9.79775e-05
4.92117e-05
-9.23958e-05
3.40771e-05
-8.18654e-05
2.90308e-05
-6.79231e-05
3.27249e-05
-5.59869e-05
3.96887e-05
-5.17649e-05
4.5966e-05
-5.23056e-05
5.01438e-05
-5.6124e-05
5.39206e-05
-6.09304e-05
5.59849e-05
-6.46228e-05
5.68593e-05
-7.07262e-05
5.48742e-05
-8.00747e-05
5.07315e-05
-8.56245e-05
4.85506e-05
-9.39232e-05
4.33959e-05
-9.7379e-05
3.7174e-05
-9.62587e-05
2.65062e-05
-8.31105e-05
1.34031e-05
-6.62977e-05
-7.6338e-05
6.10495e-05
-7.86294e-05
4.63778e-05
-7.77209e-05
3.71843e-05
-7.26678e-05
3.4296e-05
-6.50315e-05
3.66079e-05
-5.82953e-05
4.08817e-05
-5.60351e-05
4.46893e-05
-5.61084e-05
4.66879e-05
-5.81181e-05
4.89122e-05
-6.31504e-05
5.12385e-05
-6.69464e-05
5.21984e-05
-7.16789e-05
4.95365e-05
-7.74156e-05
4.65385e-05
-8.26176e-05
4.68334e-05
-9.42193e-05
4.57201e-05
-9.63348e-05
4.11612e-05
-9.17767e-05
3.1391e-05
-7.35543e-05
1.32404e-05
-4.73663e-05
-6.38378e-05
6.07897e-05
-6.54178e-05
4.93918e-05
-6.63205e-05
4.19404e-05
-6.52145e-05
3.91347e-05
-6.22244e-05
3.90044e-05
-5.81629e-05
4.01084e-05
-5.71365e-05
4.20575e-05
-5.80542e-05
4.33424e-05
-5.93994e-05
4.34438e-05
-6.32484e-05
4.51335e-05
-6.86327e-05
4.72397e-05
-7.37828e-05
4.61121e-05
-7.62957e-05
4.5001e-05
-8.15088e-05
4.64028e-05
-9.56808e-05
4.58778e-05
-9.59832e-05
4.17671e-05
-8.76034e-05
2.92682e-05
-6.09379e-05
9.05766e-06
-2.62688e-05
-5.56121e-05
5.9231e-05
-5.56629e-05
5.10715e-05
-5.81597e-05
4.50513e-05
-5.9194e-05
4.15451e-05
-5.87178e-05
4.00884e-05
-5.67054e-05
4.00259e-05
-5.70723e-05
4.06559e-05
-5.86819e-05
4.11292e-05
-5.98703e-05
4.06253e-05
-6.27422e-05
4.08626e-05
-6.88671e-05
4.04656e-05
-7.3388e-05
3.94646e-05
-7.52917e-05
4.08627e-05
-8.29165e-05
4.13174e-05
-9.61909e-05
3.8902e-05
-9.34144e-05
2.99183e-05
-7.81517e-05
1.00177e-05
-4.07084e-05
-3.96973e-06
-1.25362e-05
-5.95914e-05
5.7509e-05
-4.83065e-05
5.13981e-05
-5.20488e-05
4.61235e-05
-5.392e-05
4.23168e-05
-5.49116e-05
4.00197e-05
-5.44082e-05
3.90355e-05
-5.60874e-05
3.83221e-05
-5.79671e-05
3.79239e-05
-5.94703e-05
3.76545e-05
-6.24711e-05
3.70136e-05
-6.82249e-05
3.52157e-05
-7.15912e-05
3.46478e-05
-7.47105e-05
3.62636e-05
-8.46386e-05
3.46853e-05
-9.49351e-05
3.134e-05
-9.03241e-05
1.57632e-05
-6.25905e-05
-5.65854e-06
-1.90799e-05
-9.34259e-06
-9.83603e-06
-6.84597e-05
5.55125e-05
-4.27692e-05
5.02587e-05
-4.67958e-05
4.54617e-05
-4.9124e-05
4.19215e-05
-5.13727e-05
3.95454e-05
-5.20326e-05
3.77223e-05
-5.42641e-05
3.63074e-05
-5.65513e-05
3.529e-05
-5.84518e-05
3.46109e-05
-6.17908e-05
3.28642e-05
-6.64781e-05
3.05039e-05
-6.92305e-05
2.95696e-05
-7.37703e-05
2.72618e-05
-8.25472e-05
2.12765e-05
-8.95819e-05
1.36412e-05
-8.2591e-05
-2.53587e-06
-4.60209e-05
-1.41824e-05
-7.66162e-06
-6.55623e-06
-1.82132e-05
-7.45743e-05
5.25792e-05
-3.80154e-05
4.80439e-05
-4.22615e-05
4.39412e-05
-4.50229e-05
4.04374e-05
-4.78703e-05
3.82449e-05
-4.9841e-05
3.5712e-05
-5.17314e-05
3.42497e-05
-5.50887e-05
3.294e-05
-5.71413e-05
3.12156e-05
-6.00656e-05
2.87527e-05
-6.40148e-05
2.68138e-05
-6.72917e-05
2.4001e-05
-7.09793e-05
1.72091e-05
-7.60753e-05
6.88957e-06
-8.00153e-05
-4.61686e-06
-7.03823e-05
-1.52977e-05
-3.49906e-05
-1.46405e-05
-9.06549e-06
-1.88444e-06
-3.12613e-05
-7.61845e-05
4.94065e-05
-3.39578e-05
4.54425e-05
-3.82984e-05
4.20462e-05
-4.16284e-05
3.86466e-05
-4.44722e-05
3.63329e-05
-4.75285e-05
3.41705e-05
-4.95695e-05
3.19002e-05
-5.28184e-05
3.04208e-05
-5.56615e-05
2.85089e-05
-5.81533e-05
2.58912e-05
-6.13963e-05
2.36904e-05
-6.50945e-05
1.99636e-05
-6.72711e-05
1.31575e-05
-6.95183e-05
3.51623e-06
-7.08438e-05
-6.38354e-06
-5.95858e-05
-1.09022e-05
-3.03992e-05
-4.18302e-06
-1.6665e-05
4.34013e-06
-3.96101e-05
-7.17104e-05
4.61146e-05
-3.05698e-05
4.26567e-05
-3.48417e-05
3.95606e-05
-3.8534e-05
3.66733e-05
-4.15866e-05
3.40584e-05
-4.4915e-05
3.19631e-05
-4.74749e-05
2.97273e-05
-5.05829e-05
2.76481e-05
-5.35821e-05
2.59838e-05
-5.64886e-05
2.3621e-05
-5.90332e-05
2.07252e-05
-6.21986e-05
1.86674e-05
-6.52129e-05
1.41232e-05
-6.50594e-05
6.46407e-06
-6.339e-05
-2.00751e-06
-5.09742e-05
-2.52691e-06
-2.92971e-05
5.77411e-06
-2.51498e-05
6.6524e-06
-4.0126e-05
-6.51148e-05
4.26567e-05
-2.76367e-05
3.9707e-05
-3.18932e-05
3.68299e-05
-3.56585e-05
3.42787e-05
-3.90373e-05
3.16583e-05
-4.2296e-05
2.96045e-05
-4.54222e-05
2.74713e-05
-4.84501e-05
2.51669e-05
-5.12777e-05
2.3767e-05
-5.50884e-05
2.15835e-05
-5.68494e-05
1.91443e-05
-5.97584e-05
1.80634e-05
-6.41295e-05
1.63627e-05
-6.33872e-05
1.18751e-05
-5.91181e-05
6.12459e-06
-4.51208e-05
6.3597e-06
-2.87606e-05
1.00552e-05
-2.84109e-05
7.70497e-06
-3.73937e-05
-5.74958e-05
3.92274e-05
-2.5085e-05
3.66385e-05
-2.93055e-05
3.40475e-05
-3.30691e-05
3.16228e-05
-3.66144e-05
2.92665e-05
-3.99413e-05
2.6983e-05
-4.31398e-05
2.5014e-05
-4.64817e-05
2.2926e-05
-4.91898e-05
2.09728e-05
-5.3135e-05
1.94161e-05
-5.52924e-05
1.83177e-05
-5.86593e-05
1.80318e-05
-6.38417e-05
1.74103e-05
-6.27716e-05
1.54876e-05
-5.72666e-05
1.20321e-05
-4.16623e-05
1.072e-05
-2.70591e-05
9.73336e-06
-2.71815e-05
7.0771e-06
-3.4575e-05
-5.04626e-05
3.58428e-05
-2.28446e-05
3.35042e-05
-2.69679e-05
3.11881e-05
-3.07547e-05
2.88685e-05
-3.42966e-05
2.66701e-05
-3.77445e-05
2.44676e-05
-4.09384e-05
2.23453e-05
-4.436e-05
2.04665e-05
-4.73111e-05
1.85121e-05
-5.11806e-05
1.7015e-05
-5.37948e-05
1.62916e-05
-5.79353e-05
1.71297e-05
-6.46786e-05
1.77922e-05
-6.34342e-05
1.65193e-05
-5.60375e-05
1.28408e-05
-3.80702e-05
1.04438e-05
-2.42959e-05
7.30201e-06
-2.3744e-05
6.15778e-06
-3.3468e-05
-4.42256e-05
3.25054e-05
-2.08502e-05
3.04109e-05
-2.48745e-05
2.82638e-05
-2.86091e-05
2.61399e-05
-3.21744e-05
2.39483e-05
-3.55544e-05
2.18874e-05
-3.88785e-05
1.96753e-05
-4.21484e-05
1.76106e-05
-4.52465e-05
1.57811e-05
-4.9351e-05
1.40473e-05
-5.20607e-05
1.31936e-05
-5.70812e-05
1.38663e-05
-6.53507e-05
1.47594e-05
-6.43274e-05
1.30008e-05
-5.42866e-05
8.91496e-06
-3.39954e-05
5.6866e-06
-2.07882e-05
2.80916e-06
-2.07145e-05
3.9622e-06
-3.46221e-05
-4.02299e-05
2.9236e-05
-1.90604e-05
2.73364e-05
-2.2976e-05
2.53809e-05
-2.66551e-05
2.33674e-05
-3.01625e-05
2.13314e-05
-3.35197e-05
1.91915e-05
-3.67396e-05
1.7056e-05
-4.00133e-05
1.48071e-05
-4.29978e-05
1.22669e-05
-4.68105e-05
1.01542e-05
-4.99479e-05
7.88643e-06
-5.48132e-05
4.77645e-06
-6.22404e-05
1.95185e-06
-6.15038e-05
-7.67038e-07
-5.15637e-05
-2.33227e-06
-3.24036e-05
-3.31513e-06
-1.96765e-05
-1.46958e-06
-2.24875e-05
2.78404e-06
-3.88672e-05
-3.74379e-05
2.60535e-05
-1.74484e-05
2.43301e-05
-2.12536e-05
2.2526e-05
-2.48524e-05
2.06596e-05
-2.82976e-05
1.87089e-05
-3.15701e-05
1.66574e-05
-3.46888e-05
1.44529e-05
-3.78091e-05
1.20401e-05
-4.05851e-05
9.14189e-06
-4.39122e-05
5.75909e-06
-4.65649e-05
1.15666e-06
-5.02108e-05
-6.22403e-06
-5.48602e-05
-1.26013e-05
-5.51269e-05
-1.56997e-05
-4.84635e-05
-1.56782e-05
-3.24213e-05
-1.06585e-05
-2.46876e-05
-2.77043e-06
-3.03762e-05
5.5144e-07
-4.21886e-05
-3.68847e-05
2.29473e-05
-1.59863e-05
2.13843e-05
-1.96915e-05
1.97404e-05
-2.32098e-05
1.80085e-05
-2.65669e-05
1.619e-05
-2.97526e-05
1.42279e-05
-3.27272e-05
1.20843e-05
-3.56658e-05
9.59911e-06
-3.80999e-05
6.54429e-06
-4.08574e-05
2.45148e-06
-4.2472e-05
-3.34993e-06
-4.44096e-05
-1.07103e-05
-4.75003e-05
-1.62302e-05
-4.96068e-05
-1.87651e-05
-4.59265e-05
-1.6864e-05
-3.432e-05
-9.17037e-06
-3.23829e-05
-1.19366e-06
-3.83535e-05
-1.10939e-07
-4.3271e-05
-3.69951e-05
1.99252e-05
-1.46597e-05
1.85028e-05
-1.827e-05
1.70092e-05
-2.17173e-05
1.5429e-05
-2.49877e-05
1.37577e-05
-2.80819e-05
1.19532e-05
-3.09232e-05
9.93498e-06
-3.36477e-05
7.59357e-06
-3.57586e-05
4.54235e-06
-3.78062e-05
8.37696e-07
-3.87674e-05
-3.51498e-06
-4.00571e-05
-8.6698e-06
-4.23456e-05
-1.3943e-05
-4.43328e-05
-1.51341e-05
-4.47339e-05
-1.04169e-05
-3.90362e-05
-3.1376e-06
-3.96636e-05
3.49792e-07
-4.18393e-05
-2.04249e-07
-4.2717e-05
-3.71988e-05
1.69731e-05
-1.34521e-05
1.56917e-05
-1.69895e-05
1.43407e-05
-2.0367e-05
1.29242e-05
-2.3572e-05
1.14098e-05
-2.6568e-05
9.7919e-06
-2.93055e-05
7.92506e-06
-3.17809e-05
5.78421e-06
-3.36179e-05
3.53516e-06
-3.55572e-05
1.80726e-06
-3.70396e-05
-8.95128e-08
-3.81604e-05
-2.30529e-06
-4.01297e-05
-4.75956e-06
-4.1878e-05
-3.79692e-06
-4.56959e-05
2.61694e-07
-4.3095e-05
3.07795e-06
-4.24801e-05
2.26884e-06
-4.10296e-05
5.61174e-07
-4.10088e-05
-3.66376e-05
1.40791e-05
-1.23537e-05
1.29274e-05
-1.58385e-05
1.17277e-05
-1.9168e-05
1.04684e-05
-2.23133e-05
9.12938e-06
-2.52293e-05
7.61081e-06
-2.77872e-05
5.94561e-06
-3.01159e-05
4.50756e-06
-3.218e-05
3.39971e-06
-3.44495e-05
3.00162e-06
-3.66417e-05
2.67011e-06
-3.7829e-05
4.00121e-06
-4.14608e-05
5.00767e-06
-4.28843e-05
5.1722e-06
-4.58601e-05
6.2776e-06
-4.42001e-05
6.33709e-06
-4.25392e-05
4.86663e-06
-3.95587e-05
2.52577e-06
-3.86679e-05
-3.41114e-05
1.12377e-05
-1.1357e-05
1.02089e-05
-1.48102e-05
9.15371e-06
-1.81133e-05
8.03839e-06
-2.11983e-05
6.81196e-06
-2.40032e-05
5.62864e-06
-2.66041e-05
4.80149e-06
-2.9289e-05
4.45522e-06
-3.1834e-05
4.18568e-06
-3.41802e-05
4.76865e-06
-3.72248e-05
5.71544e-06
-3.87759e-05
7.46266e-06
-4.3208e-05
8.64413e-06
-4.40657e-05
7.99907e-06
-4.52149e-05
7.68085e-06
-4.38817e-05
7.24648e-06
-4.21046e-05
6.08503e-06
-3.83971e-05
3.71539e-06
-3.62977e-05
-3.03958e-05
8.42703e-06
-1.04292e-05
7.50003e-06
-1.38837e-05
6.5273e-06
-1.71411e-05
5.56715e-06
-2.02386e-05
4.88596e-06
-2.33224e-05
4.69219e-06
-2.64107e-05
4.79115e-06
-2.93884e-05
5.3101e-06
-3.23534e-05
5.95758e-06
-3.48281e-05
7.54424e-06
-3.88118e-05
9.18369e-06
-4.04155e-05
9.52511e-06
-4.35496e-05
9.5495e-06
-4.40902e-05
8.75641e-06
-4.44218e-05
7.94414e-06
-4.30694e-05
7.10599e-06
-4.12665e-05
5.56249e-06
-3.68534e-05
3.18779e-06
-3.39226e-05
-2.72078e-05
5.61181e-06
-9.52285e-06
4.77108e-06
-1.30436e-05
4.16381e-06
-1.65345e-05
4.02213e-06
-2.00976e-05
4.30017e-06
-2.3601e-05
4.91433e-06
-2.70255e-05
5.77751e-06
-3.02523e-05
7.21324e-06
-3.37897e-05
8.58826e-06
-3.62038e-05
9.79911e-06
-4.00232e-05
1.06609e-05
-4.12778e-05
1.02083e-05
-4.30973e-05
9.63209e-06
-4.35143e-05
8.56169e-06
-4.33517e-05
7.05636e-06
-4.15643e-05
5.39226e-06
-3.96026e-05
3.16221e-06
-3.46233e-05
1.20057e-06
-3.1961e-05
-2.60073e-05
2.99072e-06
-8.84271e-06
2.75936e-06
-1.28126e-05
3.04499e-06
-1.68206e-05
3.71204e-06
-2.07651e-05
4.69663e-06
-2.45862e-05
6.01749e-06
-2.83469e-05
7.39043e-06
-3.16258e-05
8.85123e-06
-3.52511e-05
9.96078e-06
-3.73138e-05
1.04459e-05
-4.05088e-05
1.0677e-05
-4.15093e-05
1.01477e-05
-4.25684e-05
9.07208e-06
-4.24389e-05
7.61489e-06
-4.18948e-05
5.56646e-06
-3.95162e-05
3.60055e-06
-3.76369e-05
1.71733e-06
-3.27404e-05
4.45827e-07
-3.06896e-05
-2.55615e-05
1.302e-06
2.0548e-06
2.98912e-06
4.0981e-06
5.34251e-06
6.67866e-06
8.00692e-06
9.20424e-06
1.02587e-05
1.0685e-05
1.07173e-05
1.01151e-05
8.91121e-06
7.33607e-06
5.44059e-06
3.53806e-06
1.89814e-06
6.33257e-07
)
;

boundaryField
{
    leftWall
    {
        type            fixedValue;
        value           nonuniform 0();
    }
    rightWall
    {
        type            fixedValue;
        value           uniform 0;
    }
    lowerWall
    {
        type            fixedValue;
        value           nonuniform 0();
    }
    atmosphere
    {
        type            calculated;
        value           nonuniform List<scalar> 
23
(
-6.14264e-07
-1.30387e-06
-2.02069e-06
-2.75735e-06
-9.36653e-06
-1.35656e-05
-1.77551e-05
-2.18743e-05
-2.58307e-05
-2.96833e-05
-3.29542e-05
-3.64486e-05
-3.83684e-05
-4.09352e-05
-4.15417e-05
-4.19663e-05
-4.12352e-05
-4.03197e-05
-3.76208e-05
-3.57345e-05
-3.11005e-05
-2.94247e-05
-2.49282e-05
)
;
    }
    defaultFaces
    {
        type            empty;
        value           nonuniform 0();
    }
    procBoundary3to1
    {
        type            processor;
        value           nonuniform List<scalar> 
23
(
5.05171e-05
5.36847e-05
5.56507e-05
5.62041e-05
0.000137692
0.000135446
0.000114886
7.85146e-05
4.6851e-05
3.63944e-05
3.88382e-05
4.73965e-05
5.30245e-05
5.85066e-05
6.5681e-05
8.16375e-05
9.40111e-05
0.000101121
0.00011144
0.000114205
0.000107476
8.98965e-05
0.000103518
)
;
    }
    procBoundary3to2
    {
        type            processor;
        value           nonuniform List<scalar> 
25
(
-0.000138461
-0.000116371
-0.000104812
-9.51187e-05
-8.5856e-05
-7.78633e-05
-7.11243e-05
-6.5297e-05
-5.99809e-05
-5.49042e-05
-5.02039e-05
-4.57523e-05
-4.15458e-05
-3.75472e-05
-3.37382e-05
-3.00997e-05
-2.66088e-05
-2.32575e-05
-2.00191e-05
-1.68523e-05
-1.38256e-05
-1.09786e-05
-8.02231e-06
-5.18912e-06
-5.63969e-07
)
;
    }
}


// ************************************************************************* //
