/*--------------------------------*- C++ -*----------------------------------*\
| =========                 |                                                 |
| \\      /  F ield         | OpenFOAM: The Open Source CFD Toolbox           |
|  \\    /   O peration     | Version:  2.4.0                                 |
|   \\  /    A nd           | Web:      www.OpenFOAM.org                      |
|    \\/     M anipulation  |                                                 |
\*---------------------------------------------------------------------------*/
FoamFile
{
    version     2.0;
    format      ascii;
    class       surfaceScalarField;
    location    "1";
    object      phi.air;
}
// * * * * * * * * * * * * * * * * * * * * * * * * * * * * * * * * * * * * * //

dimensions      [0 3 -1 0 0 0 0];

internalField   nonuniform List<scalar> 
1102
(
0.000128307
-4.03417e-05
0.000117673
-4.30468e-05
0.000106627
-4.46042e-05
-4.61225e-05
9.65419e-05
0.000108919
-3.28715e-05
0.0001018
-3.59284e-05
9.47073e-05
-3.75111e-05
-3.98202e-05
8.8405e-05
9.96715e-05
-2.77141e-05
9.36437e-05
-2.99006e-05
8.74367e-05
-3.13041e-05
-3.27794e-05
8.03959e-05
9.05493e-05
-2.31315e-05
8.53402e-05
-2.46914e-05
8.00019e-05
-2.59659e-05
-2.67777e-05
7.40002e-05
8.18349e-05
-1.90987e-05
7.76464e-05
-2.05028e-05
7.32604e-05
-2.15799e-05
-2.25031e-05
6.89857e-05
7.47722e-05
-1.59985e-05
7.14547e-05
-1.71854e-05
6.81963e-05
-1.83214e-05
-1.91724e-05
6.48656e-05
6.86545e-05
-1.35205e-05
6.61002e-05
-1.46311e-05
6.35616e-05
-1.57829e-05
-1.66609e-05
6.10502e-05
6.33554e-05
-1.15727e-05
6.13798e-05
-1.26556e-05
5.93458e-05
-1.37488e-05
-1.46488e-05
5.73337e-05
5.84292e-05
-1.00153e-05
5.68235e-05
-1.10498e-05
5.51456e-05
-1.2071e-05
-1.2968e-05
5.34649e-05
5.36264e-05
-8.73322e-06
5.22946e-05
-9.718e-06
5.09077e-05
-1.06841e-05
-1.15634e-05
4.95031e-05
4.91194e-05
-7.64488e-06
4.79845e-05
-8.58307e-06
4.68005e-05
-9.50008e-06
-1.03531e-05
4.55902e-05
4.48227e-05
-6.71231e-06
4.38418e-05
-7.60223e-06
4.28218e-05
-8.48e-06
-9.31074e-06
4.17794e-05
4.0737e-05
-5.90067e-06
3.98858e-05
-6.75101e-06
3.89978e-05
-7.59199e-06
-8.39636e-06
3.80834e-05
3.68361e-05
-5.18754e-06
3.60883e-05
-6.00316e-06
3.5307e-05
-6.81069e-06
-7.58913e-06
3.44998e-05
3.31078e-05
-4.55528e-06
3.24427e-05
-5.33801e-06
3.17467e-05
-6.1147e-06
-6.8682e-06
3.10258e-05
2.95328e-05
-3.98707e-06
2.89374e-05
-4.74262e-06
2.83133e-05
-5.49057e-06
-6.22029e-06
2.76654e-05
2.60973e-05
-3.47431e-06
2.55595e-05
-4.20483e-06
2.49955e-05
-4.92652e-06
-5.63413e-06
2.44093e-05
2.27897e-05
-3.00567e-06
2.22987e-05
-3.71378e-06
2.17846e-05
-4.41245e-06
-5.10136e-06
2.12518e-05
1.95902e-05
-2.57597e-06
1.91393e-05
-3.2629e-06
1.86683e-05
-3.94149e-06
-4.6138e-06
1.81808e-05
1.64619e-05
-2.18519e-06
1.60516e-05
-2.85261e-06
1.56229e-05
-3.51279e-06
-4.16859e-06
1.51777e-05
1.34399e-05
-1.7991e-06
1.30456e-05
-2.45835e-06
1.26447e-05
-3.11193e-06
-3.75836e-06
1.22345e-05
1.05721e-05
-1.39262e-06
1.01632e-05
-2.04951e-06
9.75588e-06
-2.70456e-06
-3.35757e-06
9.3551e-06
7.65949e-06
-1.0298e-06
7.28611e-06
-1.67612e-06
6.90583e-06
-2.32429e-06
-2.97023e-06
6.51848e-06
4.80552e-06
-6.46321e-07
4.41159e-06
-1.28219e-06
4.02685e-06
-1.93955e-06
-2.6147e-06
3.67131e-06
5.32089e-07
5.54048e-07
6.35448e-07
7.78379e-07
7.56942e-05
-0.000116852
5.29949e-05
-0.000112748
3.51273e-05
-9.70169e-05
2.95967e-05
-7.29823e-05
3.50579e-05
-5.23058e-05
4.34788e-05
-4.48113e-05
5.06892e-05
-4.60388e-05
5.52543e-05
-5.19524e-05
5.93955e-05
-5.71578e-05
6.33681e-05
-6.25558e-05
6.73255e-05
-6.98435e-05
6.76153e-05
-8.2029e-05
6.33645e-05
-8.97384e-05
5.83291e-05
-9.60332e-05
4.94987e-05
-0.000102351
3.7949e-05
-0.000102389
2.39834e-05
-9.32452e-05
1.40479e-05
-7.96558e-05
-8.92126e-05
6.9546e-05
-9.79928e-05
4.92091e-05
-9.24107e-05
3.40709e-05
-8.18787e-05
2.90235e-05
-6.79348e-05
3.27158e-05
-5.59981e-05
3.96786e-05
-5.17741e-05
4.59524e-05
-5.23126e-05
5.01279e-05
-5.61279e-05
5.39016e-05
-6.09315e-05
5.5966e-05
-6.46202e-05
5.68386e-05
-7.0716e-05
5.48643e-05
-8.00547e-05
5.07225e-05
-8.55965e-05
4.85486e-05
-9.38593e-05
4.34795e-05
-9.72815e-05
3.72024e-05
-9.61119e-05
2.69149e-05
-8.29578e-05
1.31674e-05
-6.59082e-05
-7.60452e-05
6.10491e-05
-7.86459e-05
4.6375e-05
-7.77367e-05
3.71794e-05
-7.2683e-05
3.42904e-05
-6.50459e-05
3.66007e-05
-5.83084e-05
4.08731e-05
-5.60464e-05
4.4678e-05
-5.61175e-05
4.66746e-05
-5.81244e-05
4.88968e-05
-6.31537e-05
5.12229e-05
-6.69463e-05
5.21818e-05
-7.16749e-05
4.9532e-05
-7.74049e-05
4.65308e-05
-8.25954e-05
4.68233e-05
-9.41517e-05
4.57616e-05
-9.62198e-05
4.12712e-05
-9.16215e-05
3.15433e-05
-7.32299e-05
1.2523e-05
-4.68879e-05
-6.35222e-05
6.0789e-05
-6.54347e-05
4.93893e-05
-6.6337e-05
4.19368e-05
-6.52306e-05
3.91305e-05
-6.22395e-05
3.8999e-05
-5.81769e-05
4.01015e-05
-5.71489e-05
4.20485e-05
-5.80646e-05
4.33315e-05
-5.94074e-05
4.34314e-05
-6.32536e-05
4.51198e-05
-6.86347e-05
4.72257e-05
-7.37808e-05
4.61071e-05
-7.62864e-05
4.499e-05
-8.14782e-05
4.63967e-05
-9.55584e-05
4.60003e-05
-9.58234e-05
4.18551e-05
-8.74762e-05
2.92453e-05
-6.06201e-05
8.05739e-06
-2.57e-05
-5.54649e-05
5.92303e-05
-5.56792e-05
5.10693e-05
-5.81761e-05
4.50487e-05
-5.92099e-05
4.15421e-05
-5.8733e-05
4.00846e-05
-5.67194e-05
4.00207e-05
-5.7085e-05
4.06489e-05
-5.86928e-05
4.11205e-05
-5.9879e-05
4.06154e-05
-6.27484e-05
4.08511e-05
-6.88705e-05
4.04578e-05
-7.33874e-05
3.94529e-05
-7.52815e-05
4.08555e-05
-8.28807e-05
4.13736e-05
-9.60766e-05
3.91655e-05
-9.36154e-05
3.00603e-05
-7.8371e-05
9.65271e-06
-4.02125e-05
-4.08792e-06
-1.19593e-05
-5.95528e-05
5.75083e-05
-4.83219e-05
5.13964e-05
-5.20642e-05
4.61216e-05
-5.39351e-05
4.23148e-05
-5.49261e-05
4.00171e-05
-5.44218e-05
3.90318e-05
-5.60998e-05
3.83169e-05
-5.79779e-05
3.79172e-05
-5.94793e-05
3.76467e-05
-6.24779e-05
3.70054e-05
-6.82292e-05
3.52096e-05
-7.15916e-05
3.46283e-05
-7.47002e-05
3.63431e-05
-8.45955e-05
3.50467e-05
-9.47803e-05
3.16705e-05
-9.02389e-05
1.54121e-05
-6.21126e-05
-6.39843e-06
-1.84019e-05
-8.82633e-06
-9.5314e-06
-6.83791e-05
5.55117e-05
-4.27834e-05
5.02574e-05
-4.68099e-05
4.54603e-05
-4.9138e-05
4.19202e-05
-5.13861e-05
3.95438e-05
-5.20453e-05
3.77198e-05
-5.42758e-05
3.63037e-05
-5.65618e-05
3.52851e-05
-5.84607e-05
3.46049e-05
-6.17978e-05
3.28587e-05
-6.64829e-05
3.04986e-05
-6.92316e-05
2.95581e-05
-7.37596e-05
2.74728e-05
-8.25102e-05
2.21578e-05
-8.94651e-05
1.38852e-05
-8.1966e-05
-3.17016e-06
-4.50568e-05
-1.45386e-05
-7.03345e-06
-6.09667e-06
-1.79732e-05
-7.44757e-05
5.25785e-05
-3.80282e-05
4.80428e-05
-4.22742e-05
4.39403e-05
-4.50355e-05
4.04367e-05
-4.78825e-05
3.8244e-05
-4.98527e-05
3.57106e-05
-5.17424e-05
3.42473e-05
-5.50986e-05
3.29365e-05
-5.71499e-05
3.12113e-05
-6.00726e-05
2.87483e-05
-6.402e-05
2.68101e-05
-6.72934e-05
2.40188e-05
-7.09683e-05
1.75386e-05
-7.60301e-05
7.87395e-06
-7.98005e-05
-4.54713e-06
-6.95454e-05
-1.57667e-05
-3.38363e-05
-1.42613e-05
-8.53857e-06
-1.61589e-06
-3.0618e-05
-7.60916e-05
4.94059e-05
-3.39692e-05
4.54414e-05
-3.83098e-05
4.20456e-05
-4.16397e-05
3.86463e-05
-4.44833e-05
3.63327e-05
-4.75392e-05
3.41699e-05
-4.95795e-05
3.18989e-05
-5.28276e-05
3.04185e-05
-5.56696e-05
2.8506e-05
-5.81601e-05
2.58876e-05
-6.14016e-05
2.36912e-05
-6.5097e-05
1.99863e-05
-6.72634e-05
1.34193e-05
-6.9463e-05
4.24575e-06
-7.06269e-05
-6.2848e-06
-5.90151e-05
-1.10291e-05
-2.90915e-05
-3.87946e-06
-1.56872e-05
4.46924e-06
-3.89662e-05
-7.16224e-05
4.61138e-05
-3.05799e-05
4.26558e-05
-3.48518e-05
3.95602e-05
-3.8544e-05
3.66733e-05
-4.15965e-05
3.40587e-05
-4.49246e-05
3.19632e-05
-4.7484e-05
2.97269e-05
-5.05913e-05
2.76469e-05
-5.35896e-05
2.59819e-05
-5.64951e-05
2.36189e-05
-5.90385e-05
2.07236e-05
-6.22017e-05
1.86726e-05
-6.52125e-05
1.42485e-05
-6.50389e-05
6.88642e-06
-6.32648e-05
-1.608e-06
-5.05207e-05
-2.34807e-06
-2.83525e-05
5.91996e-06
-2.39545e-05
6.60084e-06
-3.9648e-05
-6.50216e-05
4.26559e-05
-2.76456e-05
3.97062e-05
-3.19021e-05
3.68295e-05
-3.56674e-05
3.4279e-05
-3.9046e-05
3.16589e-05
-4.23045e-05
2.96052e-05
-4.54303e-05
2.74716e-05
-4.84577e-05
2.51666e-05
-5.12846e-05
2.3766e-05
-5.50946e-05
2.15821e-05
-5.68547e-05
1.91428e-05
-5.97624e-05
1.80616e-05
-6.41313e-05
1.64062e-05
-6.33835e-05
1.21917e-05
-5.90503e-05
6.47873e-06
-4.48077e-05
6.34409e-06
-2.82187e-05
1.01288e-05
-2.77407e-05
7.60971e-06
-3.71291e-05
-5.74118e-05
3.92266e-05
-2.50928e-05
3.66378e-05
-2.93133e-05
3.40473e-05
-3.30768e-05
3.16233e-05
-3.6622e-05
2.92675e-05
-3.99487e-05
2.69841e-05
-4.31469e-05
2.50148e-05
-4.64884e-05
2.29263e-05
-4.91961e-05
2.09725e-05
-5.31408e-05
1.94153e-05
-5.52974e-05
1.83165e-05
-5.86635e-05
1.803e-05
-6.38449e-05
1.74194e-05
-6.27728e-05
1.56132e-05
-5.72441e-05
1.22877e-05
-4.14822e-05
1.07115e-05
-2.66425e-05
9.72893e-06
-2.67585e-05
7.00841e-06
-3.44086e-05
-5.04034e-05
3.5842e-05
-2.28514e-05
3.35035e-05
-2.69748e-05
3.1188e-05
-3.07614e-05
2.88692e-05
-3.43031e-05
2.66713e-05
-3.77509e-05
2.4469e-05
-4.09446e-05
2.23465e-05
-4.43659e-05
2.04672e-05
-4.73168e-05
1.85124e-05
-5.11859e-05
1.70147e-05
-5.37998e-05
1.62908e-05
-5.79397e-05
1.71282e-05
-6.46823e-05
1.77922e-05
-6.34367e-05
1.65799e-05
-5.60318e-05
1.30486e-05
-3.7951e-05
1.04332e-05
-2.40271e-05
7.17917e-06
-2.35044e-05
6.20075e-06
-3.34302e-05
-4.42027e-05
3.25046e-05
-2.08561e-05
3.04103e-05
-2.48804e-05
2.82638e-05
-2.86149e-05
2.61407e-05
-3.21801e-05
2.39497e-05
-3.55598e-05
2.1889e-05
-3.88839e-05
1.96768e-05
-4.21537e-05
1.76116e-05
-4.52517e-05
1.57817e-05
-4.9356e-05
1.40474e-05
-5.20655e-05
1.31933e-05
-5.70856e-05
1.38655e-05
-6.53545e-05
1.47591e-05
-6.43303e-05
1.30137e-05
-5.42864e-05
9.01846e-06
-3.39558e-05
5.65263e-06
-2.06613e-05
2.78391e-06
-2.06357e-05
3.97729e-06
-3.46236e-05
-4.02254e-05
2.92352e-05
-1.90655e-05
2.73359e-05
-2.29811e-05
2.5381e-05
-2.666e-05
2.33683e-05
-3.01673e-05
2.13329e-05
-3.35244e-05
1.91932e-05
-3.67442e-05
1.70575e-05
-4.0018e-05
1.48083e-05
-4.30025e-05
1.22676e-05
-4.68152e-05
1.01546e-05
-4.99524e-05
7.88651e-06
-5.48175e-05
4.77633e-06
-6.22443e-05
1.95284e-06
-6.15068e-05
-7.68672e-07
-5.15649e-05
-2.32591e-06
-3.23985e-05
-3.31804e-06
-1.96692e-05
-1.45958e-06
-2.24942e-05
2.78673e-06
-3.88699e-05
-3.74387e-05
2.60528e-05
-1.74528e-05
2.43297e-05
-2.1258e-05
2.25263e-05
-2.48566e-05
2.06606e-05
-2.83016e-05
1.87103e-05
-3.15741e-05
1.66591e-05
-3.46929e-05
1.44545e-05
-3.78134e-05
1.20414e-05
-4.05894e-05
9.14274e-06
-4.39166e-05
5.75962e-06
-4.65693e-05
1.15714e-06
-5.0215e-05
-6.2231e-06
-5.48641e-05
-1.26002e-05
-5.51297e-05
-1.57006e-05
-4.84645e-05
-1.56785e-05
-3.24206e-05
-1.06577e-05
-2.469e-05
-2.76877e-06
-3.03831e-05
5.51847e-07
-4.21905e-05
-3.68868e-05
2.29467e-05
-1.59902e-05
2.1384e-05
-1.96953e-05
1.97408e-05
-2.32134e-05
1.80095e-05
-2.65704e-05
1.61914e-05
-2.97561e-05
1.42294e-05
-3.27309e-05
1.20857e-05
-3.56697e-05
9.60026e-06
-3.8104e-05
6.54518e-06
-4.08615e-05
2.45213e-06
-4.24762e-05
-3.34915e-06
-4.44137e-05
-1.07093e-05
-4.75039e-05
-1.62295e-05
-4.96094e-05
-1.87654e-05
-4.59286e-05
-1.6864e-05
-3.4322e-05
-9.16733e-06
-3.23867e-05
-1.1939e-06
-3.83565e-05
-1.10882e-07
-4.32736e-05
-3.69977e-05
1.99247e-05
-1.46631e-05
1.85027e-05
-1.82732e-05
1.70096e-05
-2.17203e-05
1.543e-05
-2.49907e-05
1.3759e-05
-2.80851e-05
1.19546e-05
-3.09265e-05
9.93622e-06
-3.36513e-05
7.59463e-06
-3.57624e-05
4.54323e-06
-3.78101e-05
8.38412e-07
-3.87714e-05
-3.51426e-06
-4.0061e-05
-8.6689e-06
-4.23493e-05
-1.39424e-05
-4.43359e-05
-1.51341e-05
-4.47369e-05
-1.04165e-05
-3.90396e-05
-3.13618e-06
-3.9667e-05
3.49528e-07
-4.18423e-05
-2.04169e-07
-4.27199e-05
-3.72019e-05
1.69727e-05
-1.3455e-05
1.56917e-05
-1.69923e-05
1.43411e-05
-2.03697e-05
1.29251e-05
-2.35747e-05
1.14109e-05
-2.65709e-05
9.79306e-06
-2.93086e-05
7.92611e-06
-3.17843e-05
5.78518e-06
-3.36215e-05
3.53601e-06
-3.5561e-05
1.80801e-06
-3.70434e-05
-8.88381e-08
-3.81642e-05
-2.30466e-06
-4.01335e-05
-4.75904e-06
-4.18816e-05
-3.79667e-06
-4.56993e-05
2.62037e-07
-4.30984e-05
3.0783e-06
-4.24833e-05
2.26887e-06
-4.10328e-05
5.61152e-07
-4.10121e-05
-3.66407e-05
1.40789e-05
-1.23562e-05
1.29275e-05
-1.58409e-05
1.17282e-05
-1.91704e-05
1.04692e-05
-2.23157e-05
9.13028e-06
-2.5232e-05
7.61173e-06
-2.77901e-05
5.9465e-06
-3.01191e-05
4.50841e-06
-3.21834e-05
3.40052e-06
-3.44531e-05
3.00237e-06
-3.66453e-05
2.67079e-06
-3.78326e-05
4.00175e-06
-4.14644e-05
5.00818e-06
-4.2888e-05
5.17258e-06
-4.58637e-05
6.2779e-06
-4.42037e-05
6.33735e-06
-4.25428e-05
4.86672e-06
-3.95622e-05
2.52586e-06
-3.86713e-05
-3.41149e-05
1.12376e-05
-1.13592e-05
1.0209e-05
-1.48123e-05
9.15408e-06
-1.81155e-05
8.03896e-06
-2.12006e-05
6.81264e-06
-2.40056e-05
5.62935e-06
-2.66068e-05
4.80222e-06
-2.9292e-05
4.45595e-06
-3.18371e-05
4.18641e-06
-3.41835e-05
4.76937e-06
-3.72282e-05
5.7161e-06
-3.87794e-05
7.46323e-06
-4.32116e-05
8.64462e-06
-4.40694e-05
7.99946e-06
-4.52186e-05
7.68117e-06
-4.38854e-05
7.24674e-06
-4.21083e-05
6.0853e-06
-3.84008e-05
3.71542e-06
-3.63014e-05
-3.03994e-05
8.42691e-06
-1.0431e-05
7.50008e-06
-1.38855e-05
6.52756e-06
-1.71429e-05
5.56756e-06
-2.02406e-05
4.88644e-06
-2.33245e-05
4.69272e-06
-2.64131e-05
4.79173e-06
-2.9391e-05
5.31071e-06
-3.23561e-05
5.95822e-06
-3.4831e-05
7.54488e-06
-3.88149e-05
9.18428e-06
-4.04188e-05
9.52563e-06
-4.35529e-05
9.54993e-06
-4.40937e-05
8.75678e-06
-4.44254e-05
7.94446e-06
-4.30731e-05
7.10632e-06
-4.12702e-05
5.56273e-06
-3.68572e-05
3.18781e-06
-3.39265e-05
-2.72116e-05
5.61172e-06
-9.52425e-06
4.77112e-06
-1.30449e-05
4.16396e-06
-1.65358e-05
4.02239e-06
-2.0099e-05
4.30049e-06
-2.36026e-05
4.91471e-06
-2.70273e-05
5.77793e-06
-3.02542e-05
7.21371e-06
-3.37919e-05
8.58876e-06
-3.62061e-05
9.79961e-06
-4.00257e-05
1.06613e-05
-4.12805e-05
1.02087e-05
-4.31003e-05
9.63244e-06
-4.35174e-05
8.56198e-06
-4.3355e-05
7.05664e-06
-4.15677e-05
5.39255e-06
-3.96061e-05
3.16238e-06
-3.4627e-05
1.20064e-06
-3.19647e-05
-2.6011e-05
2.9907e-06
-8.84365e-06
2.75938e-06
-1.28135e-05
3.04509e-06
-1.68215e-05
3.71219e-06
-2.07661e-05
4.69682e-06
-2.45872e-05
6.01772e-06
-2.83482e-05
7.39069e-06
-3.16272e-05
8.85153e-06
-3.52527e-05
9.96109e-06
-3.73157e-05
1.04462e-05
-4.05109e-05
1.06773e-05
-4.15116e-05
1.0148e-05
-4.2571e-05
9.0723e-06
-4.24417e-05
7.61508e-06
-4.18977e-05
5.56665e-06
-3.95193e-05
3.60071e-06
-3.76402e-05
1.71749e-06
-3.27438e-05
4.459e-07
-3.06931e-05
-2.55651e-05
1.30201e-06
2.05482e-06
2.98916e-06
4.09815e-06
5.34258e-06
6.67875e-06
8.00701e-06
9.20434e-06
1.02588e-05
1.06851e-05
1.07174e-05
1.01151e-05
8.91128e-06
7.33613e-06
5.44064e-06
3.53812e-06
1.89819e-06
6.33282e-07
)
;

boundaryField
{
    leftWall
    {
        type            fixedValue;
        value           nonuniform 0();
    }
    rightWall
    {
        type            fixedValue;
        value           uniform 0;
    }
    lowerWall
    {
        type            fixedValue;
        value           nonuniform 0();
    }
    atmosphere
    {
        type            calculated;
        value           nonuniform List<scalar> 
23
(
-6.14568e-07
-1.30415e-06
-2.02095e-06
-2.75763e-06
-9.36728e-06
-1.35663e-05
-1.77558e-05
-2.18751e-05
-2.58317e-05
-2.96843e-05
-3.29554e-05
-3.645e-05
-3.83701e-05
-4.09372e-05
-4.15439e-05
-4.19688e-05
-4.12378e-05
-4.03226e-05
-3.76238e-05
-3.57376e-05
-3.11039e-05
-2.94282e-05
-2.49318e-05
)
;
    }
    defaultFaces
    {
        type            empty;
        value           nonuniform 0();
    }
    procBoundary3to1
    {
        type            processor;
        value           nonuniform List<scalar> 
23
(
5.05152e-05
5.36812e-05
5.56502e-05
5.62071e-05
0.0001377
0.000135447
0.000114884
7.85129e-05
4.68446e-05
3.63905e-05
3.88285e-05
4.73874e-05
5.30167e-05
5.85832e-05
6.58861e-05
8.17391e-05
9.39892e-05
0.000101069
0.000111181
0.000113939
0.000107211
8.95913e-05
0.00010326
)
;
    }
    procBoundary3to2
    {
        type            processor;
        value           nonuniform List<scalar> 
25
(
-0.00013848
-0.000116389
-0.000104829
-9.51319e-05
-8.58677e-05
-7.78724e-05
-7.11324e-05
-6.53032e-05
-5.99866e-05
-5.49085e-05
-5.02078e-05
-4.57552e-05
-4.15486e-05
-3.75492e-05
-3.37401e-05
-3.0101e-05
-2.661e-05
-2.32583e-05
-2.00199e-05
-1.68527e-05
-1.38259e-05
-1.09786e-05
-8.0223e-06
-5.18901e-06
-5.63858e-07
)
;
    }
}


// ************************************************************************* //
