/*--------------------------------*- C++ -*----------------------------------*\
| =========                 |                                                 |
| \\      /  F ield         | OpenFOAM: The Open Source CFD Toolbox           |
|  \\    /   O peration     | Version:  2.4.0                                 |
|   \\  /    A nd           | Web:      www.OpenFOAM.org                      |
|    \\/     M anipulation  |                                                 |
\*---------------------------------------------------------------------------*/
FoamFile
{
    version     2.0;
    format      ascii;
    class       volVectorField;
    location    "1";
    object      U.air;
}
// * * * * * * * * * * * * * * * * * * * * * * * * * * * * * * * * * * * * * //

dimensions      [0 1 -1 0 0 0 0];

internalField   nonuniform List<vector> 
575
(
(0.709882 -0.544215 0)
(0.653541 -0.565396 0)
(0.595285 -0.586574 0)
(0.54684 -0.590228 0)
(0.599799 -0.425365 0)
(0.55829 -0.455703 0)
(0.521842 -0.469137 0)
(0.497456 -0.485937 0)
(0.545234 -0.352079 0)
(0.517155 -0.380607 0)
(0.483572 -0.397336 0)
(0.455959 -0.424433 0)
(0.496869 -0.298931 0)
(0.469979 -0.314763 0)
(0.442857 -0.33159 0)
(0.414264 -0.334959 0)
(0.448537 -0.243531 0)
(0.427789 -0.258859 0)
(0.402921 -0.270513 0)
(0.383127 -0.281433 0)
(0.408602 -0.201625 0)
(0.392582 -0.215331 0)
(0.372369 -0.228069 0)
(0.35867 -0.236598 0)
(0.373857 -0.169712 0)
(0.361999 -0.181321 0)
(0.346 -0.194377 0)
(0.335648 -0.203509 0)
(0.344486 -0.143354 0)
(0.335187 -0.155663 0)
(0.322662 -0.168697 0)
(0.313871 -0.178606 0)
(0.317485 -0.123602 0)
(0.309151 -0.135175 0)
(0.300064 -0.147209 0)
(0.291598 -0.157149 0)
(0.291079 -0.107317 0)
(0.284204 -0.118717 0)
(0.276513 -0.130051 0)
(0.269829 -0.140057 0)
(0.266428 -0.0938251 0)
(0.260513 -0.104564 0)
(0.254101 -0.115322 0)
(0.24823 -0.12496 0)
(0.242996 -0.08221 0)
(0.237844 -0.0925102 0)
(0.23245 -0.102766 0)
(0.227235 -0.112268 0)
(0.220702 -0.072235 0)
(0.216288 -0.08204 0)
(0.211607 -0.0918679 0)
(0.207052 -0.10108 0)
(0.199498 -0.0634969 0)
(0.195654 -0.0729233 0)
(0.191569 -0.0823659 0)
(0.187496 -0.0913088 0)
(0.179271 -0.0557925 0)
(0.175909 -0.0648624 0)
(0.17227 -0.0739264 0)
(0.168607 -0.082604 0)
(0.159929 -0.0489158 0)
(0.15695 -0.0576587 0)
(0.153651 -0.0663951 0)
(0.150351 -0.0748002 0)
(0.141361 -0.042733 0)
(0.138688 -0.0511922 0)
(0.135679 -0.0596045 0)
(0.132699 -0.0677648 0)
(0.123523 -0.0371231 0)
(0.121061 -0.0453243 0)
(0.118309 -0.0534489 0)
(0.115591 -0.0613853 0)
(0.106276 -0.0319483 0)
(0.103995 -0.0399249 0)
(0.101472 -0.0478174 0)
(0.0989744 -0.0555641 0)
(0.0894138 -0.0272194 0)
(0.0873054 -0.0349493 0)
(0.0850227 -0.0426214 0)
(0.0827308 -0.0502073 0)
(0.0731936 -0.0230623 0)
(0.071129 -0.030605 0)
(0.0689659 -0.0380629 0)
(0.0668177 -0.0454329 0)
(0.0578759 -0.0179384 0)
(0.0556583 -0.0255456 0)
(0.0534809 -0.0330999 0)
(0.0513085 -0.0405768 0)
(0.0421466 -0.0144032 0)
(0.0401781 -0.0218634 0)
(0.0381323 -0.0293271 0)
(0.0360702 -0.0367521 0)
(0.0269108 -0.00844432 0)
(0.0247867 -0.015567 0)
(0.0226795 -0.0227922 0)
(0.0206417 -0.0301167 0)
(0.00283671 -0.00700159 0)
(0.00288696 -0.0148654 0)
(0.0031261 -0.023041 0)
(0.00372357 -0.0314448 0)
(0.470482 -0.626485 0)
(0.346545 -0.604613 0)
(0.219239 -0.497554 0)
(0.162638 -0.349445 0)
(0.167461 -0.233907 0)
(0.205989 -0.192337 0)
(0.249951 -0.201489 0)
(0.283996 -0.23679 0)
(0.308394 -0.267357 0)
(0.320431 -0.299163 0)
(0.349025 -0.330209 0)
(0.369616 -0.393314 0)
(0.352598 -0.445585 0)
(0.326678 -0.478631 0)
(0.301716 -0.50176 0)
(0.24223 -0.506658 0)
(0.180735 -0.474228 0)
(0.0814407 -0.411331 0)
(0.0621711 -0.46588 0)
(0.431676 -0.523327 0)
(0.315745 -0.474723 0)
(0.213161 -0.417471 0)
(0.159035 -0.33943 0)
(0.161916 -0.260474 0)
(0.189645 -0.234165 0)
(0.228432 -0.239895 0)
(0.258286 -0.261656 0)
(0.276249 -0.28548 0)
(0.295949 -0.307723 0)
(0.296265 -0.351613 0)
(0.307701 -0.407795 0)
(0.276029 -0.426234 0)
(0.267789 -0.456078 0)
(0.256253 -0.484809 0)
(0.215609 -0.487898 0)
(0.199152 -0.423967 0)
(0.0951468 -0.357532 0)
(0.039009 -0.397208 0)
(0.374198 -0.429242 0)
(0.281942 -0.416606 0)
(0.220478 -0.374011 0)
(0.186182 -0.319463 0)
(0.190085 -0.280391 0)
(0.204628 -0.265064 0)
(0.228746 -0.263929 0)
(0.248516 -0.278664 0)
(0.247488 -0.304994 0)
(0.27428 -0.323899 0)
(0.270663 -0.342047 0)
(0.279568 -0.380982 0)
(0.251217 -0.415323 0)
(0.249932 -0.462651 0)
(0.249541 -0.471662 0)
(0.237249 -0.452772 0)
(0.221537 -0.377647 0)
(0.128558 -0.268788 0)
(-0.000692233 -0.32866 0)
(0.359564 -0.345302 0)
(0.29445 -0.345861 0)
(0.242018 -0.3343 0)
(0.214654 -0.310686 0)
(0.210269 -0.283178 0)
(0.21034 -0.275211 0)
(0.218799 -0.276342 0)
(0.23178 -0.283475 0)
(0.231975 -0.306428 0)
(0.232255 -0.330173 0)
(0.247777 -0.359929 0)
(0.253049 -0.37781 0)
(0.238609 -0.396558 0)
(0.245656 -0.456715 0)
(0.249416 -0.466045 0)
(0.23643 -0.439545 0)
(0.223706 -0.34036 0)
(0.103497 -0.183118 0)
(-0.0137012 -0.274513 0)
(0.340348 -0.2953 0)
(0.297382 -0.302907 0)
(0.257343 -0.301715 0)
(0.230544 -0.29332 0)
(0.219445 -0.279243 0)
(0.212991 -0.277112 0)
(0.217822 -0.28316 0)
(0.218151 -0.289008 0)
(0.224023 -0.305583 0)
(0.209994 -0.335433 0)
(0.224411 -0.361242 0)
(0.209948 -0.369583 0)
(0.212215 -0.401546 0)
(0.22238 -0.476989 0)
(0.215876 -0.469498 0)
(0.196105 -0.414799 0)
(0.133592 -0.255317 0)
(-0.0201309 -0.0730453 0)
(-0.0221345 -0.273768 0)
(0.324555 -0.250273 0)
(0.29569 -0.266485 0)
(0.261946 -0.275087 0)
(0.236453 -0.274845 0)
(0.221496 -0.269069 0)
(0.21214 -0.273779 0)
(0.207843 -0.28391 0)
(0.205462 -0.289492 0)
(0.202841 -0.301877 0)
(0.200872 -0.335009 0)
(0.193794 -0.357394 0)
(0.184107 -0.368768 0)
(0.197828 -0.406882 0)
(0.186254 -0.462311 0)
(0.180077 -0.449442 0)
(0.152984 -0.353957 0)
(0.0179682 -0.145065 0)
(-0.0821341 -0.046964 0)
(-0.0128763 -0.314236 0)
(0.30984 -0.221414 0)
(0.288931 -0.240942 0)
(0.254923 -0.249857 0)
(0.235849 -0.25737 0)
(0.217686 -0.256657 0)
(0.21028 -0.26829 0)
(0.196644 -0.275484 0)
(0.195025 -0.284879 0)
(0.186239 -0.303044 0)
(0.185539 -0.327665 0)
(0.167087 -0.340849 0)
(0.161551 -0.362089 0)
(0.167004 -0.421502 0)
(0.125304 -0.462299 0)
(0.101856 -0.43747 0)
(0.0386039 -0.265707 0)
(-0.0700525 -0.0370995 0)
(-0.0802372 -0.0499796 0)
(0.0146155 -0.357996 0)
(0.294044 -0.196208 0)
(0.272443 -0.216165 0)
(0.246665 -0.227712 0)
(0.227146 -0.240513 0)
(0.210223 -0.246451 0)
(0.203128 -0.256079 0)
(0.183294 -0.270985 0)
(0.18439 -0.281323 0)
(0.173461 -0.294557 0)
(0.160994 -0.317739 0)
(0.148606 -0.33402 0)
(0.143491 -0.354338 0)
(0.123352 -0.383568 0)
(0.0641076 -0.410122 0)
(0.0125946 -0.364015 0)
(-0.0610905 -0.170701 0)
(-0.104642 -0.031986 0)
(-0.0416832 -0.120693 0)
(0.0231664 -0.372945 0)
(0.276793 -0.174654 0)
(0.255039 -0.195943 0)
(0.235267 -0.210372 0)
(0.217766 -0.223783 0)
(0.199921 -0.236432 0)
(0.192212 -0.244958 0)
(0.177901 -0.262386 0)
(0.164451 -0.272299 0)
(0.165846 -0.288112 0)
(0.140364 -0.30374 0)
(0.138321 -0.32088 0)
(0.120654 -0.336591 0)
(0.0991347 -0.355679 0)
(0.0449109 -0.363674 0)
(-0.00304645 -0.303267 0)
(-0.0604992 -0.145107 0)
(-0.062238 -0.046552 0)
(0.0188394 -0.183654 0)
(0.0334054 -0.366897 0)
(0.256499 -0.156751 0)
(0.239667 -0.177634 0)
(0.219995 -0.194949 0)
(0.206143 -0.20829 0)
(0.189776 -0.224555 0)
(0.177851 -0.235205 0)
(0.167822 -0.249708 0)
(0.152757 -0.266555 0)
(0.14628 -0.276829 0)
(0.134956 -0.291935 0)
(0.119444 -0.312859 0)
(0.106971 -0.320405 0)
(0.0955166 -0.322126 0)
(0.0570045 -0.319505 0)
(0.0185761 -0.260612 0)
(-0.0375546 -0.140391 0)
(0.0136534 -0.101315 0)
(0.0452668 -0.191898 0)
(0.0313561 -0.328403 0)
(0.236891 -0.141467 0)
(0.22183 -0.162188 0)
(0.205709 -0.180386 0)
(0.191006 -0.19597 0)
(0.178728 -0.211692 0)
(0.162955 -0.225479 0)
(0.157175 -0.240993 0)
(0.139346 -0.253802 0)
(0.132956 -0.271703 0)
(0.124301 -0.282701 0)
(0.109493 -0.293594 0)
(0.0984535 -0.31536 0)
(0.0953896 -0.309365 0)
(0.0809914 -0.291204 0)
(0.0536308 -0.228962 0)
(0.0136038 -0.136815 0)
(0.0524597 -0.134399 0)
(0.0527759 -0.185599 0)
(0.0343828 -0.290649 0)
(0.217632 -0.128148 0)
(0.204005 -0.148931 0)
(0.190458 -0.167037 0)
(0.176053 -0.18411 0)
(0.164999 -0.199375 0)
(0.150764 -0.215813 0)
(0.140856 -0.229735 0)
(0.129362 -0.244431 0)
(0.118801 -0.263922 0)
(0.107987 -0.270898 0)
(0.102725 -0.288453 0)
(0.0958593 -0.308278 0)
(0.0965415 -0.304701 0)
(0.0910063 -0.279627 0)
(0.0792695 -0.20757 0)
(0.0530076 -0.136526 0)
(0.0579609 -0.135562 0)
(0.0476265 -0.172361 0)
(0.0316552 -0.261625 0)
(0.198543 -0.116541 0)
(0.186627 -0.136893 0)
(0.173937 -0.155307 0)
(0.161843 -0.172353 0)
(0.149365 -0.18919 0)
(0.138273 -0.203592 0)
(0.126153 -0.221768 0)
(0.115246 -0.233869 0)
(0.106109 -0.25283 0)
(0.0941118 -0.267455 0)
(0.0899309 -0.283192 0)
(0.0854639 -0.311517 0)
(0.0963165 -0.305588 0)
(0.0935187 -0.276359 0)
(0.0855516 -0.197569 0)
(0.0576333 -0.126563 0)
(0.0513111 -0.124401 0)
(0.0280622 -0.160937 0)
(0.0405117 -0.226133 0)
(0.179992 -0.106285 0)
(0.16922 -0.126156 0)
(0.15793 -0.144414 0)
(0.146281 -0.161727 0)
(0.135416 -0.178022 0)
(0.122859 -0.19435 0)
(0.113381 -0.209408 0)
(0.0993728 -0.225428 0)
(0.0906178 -0.24488 0)
(0.0798219 -0.25572 0)
(0.0722288 -0.281723 0)
(0.068609 -0.320636 0)
(0.0788815 -0.314956 0)
(0.0733301 -0.273322 0)
(0.0646985 -0.177646 0)
(0.0384692 -0.110436 0)
(0.0201976 -0.10626 0)
(0.0116475 -0.162147 0)
(0.0288714 -0.207738 0)
(0.161888 -0.0970877 0)
(0.152173 -0.116462 0)
(0.141832 -0.134471 0)
(0.131276 -0.151611 0)
(0.120328 -0.167968 0)
(0.109567 -0.18356 0)
(0.0973578 -0.199841 0)
(0.0867522 -0.2137 0)
(0.0730274 -0.233392 0)
(0.0590048 -0.249099 0)
(0.0534242 -0.272212 0)
(0.0303632 -0.31445 0)
(0.0231778 -0.312053 0)
(-0.00626997 -0.263358 0)
(-0.00233911 -0.162415 0)
(-0.0204192 -0.0940249 0)
(-0.0151742 -0.0973818 0)
(-0.000659636 -0.176244 0)
(0.0286141 -0.18522 0)
(0.144321 -0.0888382 0)
(0.135468 -0.107653 0)
(0.126092 -0.125328 0)
(0.116151 -0.142192 0)
(0.106142 -0.158226 0)
(0.0951837 -0.173627 0)
(0.0841018 -0.188665 0)
(0.0716377 -0.203183 0)
(0.0584765 -0.219842 0)
(0.039189 -0.233838 0)
(0.0257914 -0.25748 0)
(-0.0139459 -0.287315 0)
(-0.0535546 -0.281879 0)
(-0.087623 -0.23731 0)
(-0.0786263 -0.150529 0)
(-0.0849908 -0.0994274 0)
(-0.024145 -0.119084 0)
(-0.00824589 -0.202467 0)
(0.0144667 -0.179044 0)
(0.12723 -0.0813659 0)
(0.119199 -0.0996779 0)
(0.110598 -0.116955 0)
(0.101558 -0.133475 0)
(0.09203 -0.149106 0)
(0.0818108 -0.163803 0)
(0.0713404 -0.17856 0)
(0.0581783 -0.190733 0)
(0.0459352 -0.205647 0)
(0.0236722 -0.217155 0)
(0.00444654 -0.228159 0)
(-0.0406149 -0.247278 0)
(-0.0772688 -0.25486 0)
(-0.101919 -0.225869 0)
(-0.0933958 -0.154796 0)
(-0.0901374 -0.133938 0)
(-0.00351715 -0.173781 0)
(-0.0108789 -0.209655 0)
(0.00997057 -0.179785 0)
(0.110633 -0.0745864 0)
(0.103299 -0.0924002 0)
(0.095495 -0.109331 0)
(0.0871887 -0.125405 0)
(0.0785508 -0.140675 0)
(0.0690358 -0.154715 0)
(0.0595091 -0.168496 0)
(0.0467674 -0.179658 0)
(0.0354689 -0.191794 0)
(0.0140279 -0.195237 0)
(-0.00475969 -0.204534 0)
(-0.0314655 -0.213791 0)
(-0.0652546 -0.223229 0)
(-0.0866317 -0.215617 0)
(-0.0704508 -0.177924 0)
(-0.0460315 -0.179615 0)
(0.0151583 -0.201552 0)
(-0.0121774 -0.209977 0)
(0.0104241 -0.180241 0)
(0.0944471 -0.0684328 0)
(0.0878029 -0.0858314 0)
(0.0807614 -0.102405 0)
(0.0732313 -0.118136 0)
(0.0655231 -0.132908 0)
(0.0567078 -0.146544 0)
(0.0487052 -0.159259 0)
(0.035757 -0.168834 0)
(0.0269702 -0.176713 0)
(0.0118683 -0.182732 0)
(0.00660373 -0.187784 0)
(-0.00724232 -0.195878 0)
(-0.0193964 -0.205495 0)
(-0.0323208 -0.221183 0)
(-0.00533814 -0.205741 0)
(0.00765713 -0.207832 0)
(0.0276551 -0.204016 0)
(-0.00502106 -0.203567 0)
(0.0117546 -0.180933 0)
(0.0786214 -0.0627981 0)
(0.0725956 -0.079894 0)
(0.0662956 -0.0961877 0)
(0.0595862 -0.111622 0)
(0.0528015 -0.126015 0)
(0.0448549 -0.13894 0)
(0.0372734 -0.150155 0)
(0.0258461 -0.158554 0)
(0.0231871 -0.169605 0)
(0.0132785 -0.178618 0)
(0.0183332 -0.183821 0)
(0.0110311 -0.196783 0)
(0.0306064 -0.203939 0)
(0.0238495 -0.225954 0)
(0.0338031 -0.215425 0)
(0.030773 -0.20665 0)
(0.0396945 -0.193905 0)
(0.0107724 -0.192963 0)
(0.0177212 -0.17311 0)
(0.0630932 -0.0577648 0)
(0.0576732 -0.0746322 0)
(0.0520595 -0.0907317 0)
(0.0461747 -0.105915 0)
(0.0401925 -0.119724 0)
(0.0325739 -0.131593 0)
(0.0280947 -0.143393 0)
(0.0229642 -0.155056 0)
(0.0253064 -0.166236 0)
(0.0193596 -0.178225 0)
(0.0311688 -0.184497 0)
(0.0307012 -0.207093 0)
(0.0490237 -0.212326 0)
(0.0432107 -0.221146 0)
(0.0446697 -0.215674 0)
(0.0357905 -0.206329 0)
(0.0437674 -0.189502 0)
(0.0199406 -0.18241 0)
(0.0216022 -0.15811 0)
(0.0478105 -0.0529188 0)
(0.042842 -0.0697851 0)
(0.0378233 -0.0857039 0)
(0.0323839 -0.10032 0)
(0.0273668 -0.11408 0)
(0.0245591 -0.127903 0)
(0.0262435 -0.141749 0)
(0.0245755 -0.154335 0)
(0.0328021 -0.165629 0)
(0.0306065 -0.182464 0)
(0.0501432 -0.191172 0)
(0.0481447 -0.211763 0)
(0.054432 -0.215316 0)
(0.0475698 -0.218273 0)
(0.0478912 -0.212172 0)
(0.0358992 -0.204511 0)
(0.0420045 -0.18599 0)
(0.0161307 -0.172329 0)
(0.0197828 -0.138737 0)
(0.0326304 -0.0490319 0)
(0.0279615 -0.0654615 0)
(0.0233901 -0.0811882 0)
(0.0210743 -0.0970278 0)
(0.0221344 -0.112833 0)
(0.0236945 -0.128061 0)
(0.0294322 -0.142761 0)
(0.0316101 -0.158497 0)
(0.0463021 -0.171032 0)
(0.045224 -0.192394 0)
(0.0603638 -0.199483 0)
(0.053651 -0.210311 0)
(0.0560009 -0.214137 0)
(0.0472367 -0.215035 0)
(0.0460722 -0.208473 0)
(0.0282206 -0.199004 0)
(0.0316445 -0.174685 0)
(0.000742788 -0.160297 0)
(0.0132027 -0.129162 0)
(0.0176052 -0.042684 0)
(0.0145829 -0.061271 0)
(0.0150466 -0.0803634 0)
(0.017582 -0.0993318 0)
(0.0223152 -0.117952 0)
(0.027537 -0.136479 0)
(0.0375852 -0.153106 0)
(0.0406076 -0.17161 0)
(0.0551602 -0.181859 0)
(0.0508876 -0.197677 0)
(0.0609821 -0.202392 0)
(0.0542781 -0.207557 0)
(0.0544568 -0.206595 0)
(0.0429058 -0.203251 0)
(0.0403911 -0.19165 0)
(0.0177364 -0.182787 0)
(0.0227714 -0.159194 0)
(-0.00563485 -0.149074 0)
(0.0110753 -0.123455 0)
(0.00536007 -0.0454443 0)
(0.00873851 -0.0658245 0)
(0.0133406 -0.086156 0)
(0.0187167 -0.106146 0)
(0.0253378 -0.125346 0)
(0.0313093 -0.144042 0)
(0.0409773 -0.159925 0)
(0.043324 -0.176903 0)
(0.0564797 -0.186256 0)
(0.052432 -0.198785 0)
(0.0616916 -0.20177 0)
(0.0542355 -0.20387 0)
(0.0539062 -0.200376 0)
(0.0418676 -0.195978 0)
(0.0391897 -0.18292 0)
(0.0171671 -0.173729 0)
(0.0230049 -0.151201 0)
(-0.00427316 -0.142978 0)
(0.0119263 -0.12109 0)
)
;

boundaryField
{
    leftWall
    {
        type            fixedValue;
        value           nonuniform 0();
    }
    rightWall
    {
        type            fixedValue;
        value           uniform (0 0 0);
    }
    lowerWall
    {
        type            fixedValue;
        value           nonuniform 0();
    }
    atmosphere
    {
        type            fluxCorrectedVelocity;
        value           nonuniform List<vector> 
23
(
(0.00283671 -0.00701577 0)
(0.00288696 -0.0148879 0)
(0.0031261 -0.0230708 0)
(0.00372357 -0.0314805 0)
(0.00536007 -0.0454861 0)
(0.00873851 -0.0658761 0)
(0.0133406 -0.0862196 0)
(0.0187167 -0.106222 0)
(0.0253378 -0.125435 0)
(0.0313093 -0.144143 0)
(0.0409773 -0.160027 0)
(0.043324 -0.176996 0)
(0.0564797 -0.186319 0)
(0.052432 -0.198785 0)
(0.0616916 -0.201731 0)
(0.0542355 -0.203794 0)
(0.0539062 -0.200245 0)
(0.0418676 -0.1958 0)
(0.0391897 -0.182696 0)
(0.0171671 -0.173537 0)
(0.0230049 -0.151036 0)
(-0.00427316 -0.142899 0)
(0.0119263 -0.121065 0)
)
;
    }
    defaultFaces
    {
        type            empty;
    }
    procBoundary3to1
    {
        type            processor;
        value           nonuniform List<vector> 
23
(
(0.866988 -0.621065 0)
(0.822145 -0.658958 0)
(0.768607 -0.691606 0)
(0.709366 -0.698632 0)
(0.60767 -0.7176 0)
(0.471739 -0.709003 0)
(0.340139 -0.605214 0)
(0.284397 -0.395261 0)
(0.282677 -0.204311 0)
(0.289274 -0.153241 0)
(0.303118 -0.170336 0)
(0.32931 -0.222846 0)
(0.343354 -0.246108 0)
(0.355011 -0.267021 0)
(0.376409 -0.305658 0)
(0.375419 -0.393521 0)
(0.355504 -0.458585 0)
(0.328709 -0.492701 0)
(0.322356 -0.564419 0)
(0.271779 -0.576271 0)
(0.18261 -0.548793 0)
(0.0640515 -0.449882 0)
(0.0385487 -0.524032 0)
)
;
    }
    procBoundary3to2
    {
        type            processor;
        value           nonuniform List<vector> 
25
(
(0.787444 -0.487767 0)
(0.66037 -0.391199 0)
(0.588901 -0.313877 0)
(0.532561 -0.261801 0)
(0.481841 -0.216451 0)
(0.434811 -0.176146 0)
(0.396098 -0.145982 0)
(0.361495 -0.120406 0)
(0.329907 -0.102702 0)
(0.301418 -0.087587 0)
(0.275211 -0.0755009 0)
(0.250659 -0.0649965 0)
(0.227475 -0.0560136 0)
(0.205531 -0.0481304 0)
(0.184676 -0.0411768 0)
(0.164784 -0.0349183 0)
(0.145709 -0.0293133 0)
(0.127485 -0.0241733 0)
(0.109865 -0.0194009 0)
(0.0926706 -0.0151191 0)
(0.076448 -0.0111661 0)
(0.0613116 -0.00611054 0)
(0.045262 -0.00283041 0)
(0.0301667 0.00266483 0)
(0.00343653 0.00473561 0)
)
;
    }
}


// ************************************************************************* //
