/*--------------------------------*- C++ -*----------------------------------*\
| =========                 |                                                 |
| \\      /  F ield         | OpenFOAM: The Open Source CFD Toolbox           |
|  \\    /   O peration     | Version:  2.4.0                                 |
|   \\  /    A nd           | Web:      www.OpenFOAM.org                      |
|    \\/     M anipulation  |                                                 |
\*---------------------------------------------------------------------------*/
FoamFile
{
    version     2.0;
    format      ascii;
    class       volVectorField;
    location    "1";
    object      U.mercury;
}
// * * * * * * * * * * * * * * * * * * * * * * * * * * * * * * * * * * * * * //

dimensions      [0 1 -1 0 0 0 0];

internalField   nonuniform List<vector> 
575
(
(0.709787 -0.54418 0)
(0.653472 -0.565362 0)
(0.595238 -0.586535 0)
(0.546814 -0.590188 0)
(0.599716 -0.425305 0)
(0.558223 -0.455639 0)
(0.521796 -0.469072 0)
(0.497435 -0.485867 0)
(0.545157 -0.352009 0)
(0.517098 -0.380532 0)
(0.483536 -0.397258 0)
(0.45594 -0.424352 0)
(0.496806 -0.298857 0)
(0.469928 -0.314684 0)
(0.442822 -0.331509 0)
(0.414248 -0.334876 0)
(0.448481 -0.243457 0)
(0.427748 -0.258782 0)
(0.402895 -0.270434 0)
(0.383113 -0.281352 0)
(0.408558 -0.201556 0)
(0.392545 -0.215258 0)
(0.372344 -0.227993 0)
(0.358659 -0.236521 0)
(0.373817 -0.169648 0)
(0.36197 -0.181254 0)
(0.345982 -0.194307 0)
(0.335639 -0.203438 0)
(0.344455 -0.143295 0)
(0.335162 -0.155602 0)
(0.322645 -0.168634 0)
(0.313863 -0.178542 0)
(0.317457 -0.123549 0)
(0.309131 -0.13512 0)
(0.300053 -0.147152 0)
(0.291592 -0.157091 0)
(0.291059 -0.107269 0)
(0.284186 -0.118668 0)
(0.276502 -0.13 0)
(0.269825 -0.140006 0)
(0.266409 -0.0937832 0)
(0.2605 -0.104521 0)
(0.254094 -0.115277 0)
(0.248227 -0.124915 0)
(0.242982 -0.082173 0)
(0.237832 -0.0924718 0)
(0.232443 -0.102727 0)
(0.227234 -0.112229 0)
(0.220688 -0.0722023 0)
(0.21628 -0.0820063 0)
(0.211603 -0.0918335 0)
(0.207051 -0.101045 0)
(0.199489 -0.0634681 0)
(0.195646 -0.0728937 0)
(0.191565 -0.0823356 0)
(0.187496 -0.0912781 0)
(0.179262 -0.0557676 0)
(0.175903 -0.0648367 0)
(0.172269 -0.0739 0)
(0.168608 -0.0825773 0)
(0.159923 -0.0488939 0)
(0.156945 -0.057636 0)
(0.153649 -0.0663721 0)
(0.150352 -0.0747768 0)
(0.141356 -0.0427137 0)
(0.138685 -0.0511723 0)
(0.135679 -0.0595843 0)
(0.1327 -0.0677443 0)
(0.123519 -0.0371061 0)
(0.121058 -0.0453068 0)
(0.118308 -0.0534312 0)
(0.115593 -0.0613675 0)
(0.106273 -0.0319337 0)
(0.103994 -0.0399098 0)
(0.101472 -0.047802 0)
(0.0989756 -0.0555487 0)
(0.0894123 -0.0272067 0)
(0.0873043 -0.0349361 0)
(0.0850226 -0.0426081 0)
(0.0827318 -0.050194 0)
(0.0731923 -0.0230513 0)
(0.0711289 -0.0305937 0)
(0.0689667 -0.0380514 0)
(0.0668185 -0.0454214 0)
(0.0578759 -0.017929 0)
(0.0556583 -0.0255358 0)
(0.0534811 -0.0330901 0)
(0.0513093 -0.0405669 0)
(0.0421468 -0.0143953 0)
(0.0401788 -0.0218552 0)
(0.0381333 -0.0293188 0)
(0.0360708 -0.0367439 0)
(0.0269116 -0.00843786 0)
(0.0247875 -0.0155605 0)
(0.0226798 -0.0227859 0)
(0.0206416 -0.0301107 0)
(0.00283713 -0.00699719 0)
(0.00288716 -0.0148613 0)
(0.00312608 -0.0230371 0)
(0.00372331 -0.0314408 0)
(0.470485 -0.626443 0)
(0.346564 -0.604579 0)
(0.219277 -0.497531 0)
(0.162684 -0.349429 0)
(0.167518 -0.233908 0)
(0.206052 -0.192342 0)
(0.250026 -0.201508 0)
(0.284088 -0.236814 0)
(0.308498 -0.267411 0)
(0.320551 -0.299318 0)
(0.349193 -0.33054 0)
(0.369832 -0.393731 0)
(0.352841 -0.446071 0)
(0.326895 -0.479158 0)
(0.301924 -0.502391 0)
(0.242475 -0.507542 0)
(0.18103 -0.475577 0)
(0.0816306 -0.413283 0)
(0.0622112 -0.467275 0)
(0.431677 -0.523258 0)
(0.315761 -0.474655 0)
(0.21319 -0.417411 0)
(0.159073 -0.339382 0)
(0.161961 -0.260432 0)
(0.189698 -0.234137 0)
(0.228496 -0.239872 0)
(0.258365 -0.261648 0)
(0.27634 -0.285485 0)
(0.296047 -0.307759 0)
(0.296367 -0.351706 0)
(0.307804 -0.407939 0)
(0.276128 -0.426441 0)
(0.267906 -0.45641 0)
(0.256405 -0.485338 0)
(0.215856 -0.488835 0)
(0.199484 -0.425517 0)
(0.0953543 -0.359829 0)
(0.039054 -0.398587 0)
(0.374197 -0.429162 0)
(0.281954 -0.416528 0)
(0.2205 -0.373938 0)
(0.186211 -0.319398 0)
(0.190119 -0.280334 0)
(0.204671 -0.265017 0)
(0.228799 -0.263892 0)
(0.248582 -0.278641 0)
(0.247564 -0.304984 0)
(0.274363 -0.323908 0)
(0.270747 -0.342078 0)
(0.279651 -0.381045 0)
(0.2513 -0.415452 0)
(0.250042 -0.462992 0)
(0.24969 -0.472283 0)
(0.237489 -0.45395 0)
(0.221952 -0.379729 0)
(0.12886 -0.271375 0)
(-0.000603008 -0.329903 0)
(0.359563 -0.345218 0)
(0.294459 -0.345779 0)
(0.242034 -0.334221 0)
(0.214675 -0.310613 0)
(0.210295 -0.283112 0)
(0.210373 -0.275153 0)
(0.218842 -0.276295 0)
(0.231834 -0.283441 0)
(0.232038 -0.306407 0)
(0.232324 -0.330169 0)
(0.247848 -0.359944 0)
(0.253119 -0.377861 0)
(0.238683 -0.396693 0)
(0.245763 -0.457183 0)
(0.249548 -0.466896 0)
(0.236663 -0.441252 0)
(0.224163 -0.343061 0)
(0.103909 -0.185985 0)
(-0.0135903 -0.275431 0)
(0.340347 -0.295218 0)
(0.29739 -0.302825 0)
(0.257355 -0.301636 0)
(0.230559 -0.293246 0)
(0.219463 -0.279175 0)
(0.213016 -0.27705 0)
(0.217855 -0.283108 0)
(0.218193 -0.288968 0)
(0.224074 -0.305555 0)
(0.21005 -0.33542 0)
(0.224469 -0.361249 0)
(0.210008 -0.369632 0)
(0.212283 -0.401703 0)
(0.222474 -0.477598 0)
(0.216 -0.470838 0)
(0.196346 -0.417315 0)
(0.13409 -0.258564 0)
(-0.0197513 -0.0758016 0)
(-0.0221069 -0.27442 0)
(0.324553 -0.250195 0)
(0.295696 -0.266407 0)
(0.261955 -0.275012 0)
(0.236464 -0.274772 0)
(0.221508 -0.269002 0)
(0.212157 -0.273719 0)
(0.207867 -0.283858 0)
(0.205494 -0.289449 0)
(0.20288 -0.301845 0)
(0.200916 -0.33499 0)
(0.193841 -0.357395 0)
(0.184159 -0.36882 0)
(0.19789 -0.407064 0)
(0.18631 -0.463041 0)
(0.180098 -0.451962 0)
(0.153263 -0.357811 0)
(0.0184701 -0.148595 0)
(-0.0819345 -0.0489522 0)
(-0.0128587 -0.314672 0)
(0.30984 -0.221342 0)
(0.288936 -0.24087 0)
(0.25493 -0.249787 0)
(0.235856 -0.257303 0)
(0.217694 -0.256593 0)
(0.210291 -0.268231 0)
(0.19666 -0.275433 0)
(0.195048 -0.284835 0)
(0.186268 -0.303011 0)
(0.185573 -0.327643 0)
(0.167124 -0.340846 0)
(0.161595 -0.362141 0)
(0.167057 -0.421707 0)
(0.125331 -0.463139 0)
(0.101762 -0.441115 0)
(0.0389211 -0.270239 0)
(-0.069687 -0.0403721 0)
(-0.080152 -0.0513171 0)
(0.0146291 -0.358416 0)
(0.294044 -0.196143 0)
(0.272448 -0.2161 0)
(0.24667 -0.227647 0)
(0.227151 -0.240451 0)
(0.210227 -0.246392 0)
(0.203134 -0.256024 0)
(0.183304 -0.270935 0)
(0.184406 -0.281281 0)
(0.173482 -0.294523 0)
(0.16102 -0.317714 0)
(0.148635 -0.334013 0)
(0.143526 -0.354387 0)
(0.123398 -0.383783 0)
(0.0641429 -0.411051 0)
(0.0126551 -0.36826 0)
(-0.0607782 -0.175851 0)
(-0.104496 -0.0347118 0)
(-0.0415514 -0.122318 0)
(0.0231776 -0.3735 0)
(0.276794 -0.174596 0)
(0.255044 -0.195884 0)
(0.235272 -0.210314 0)
(0.217769 -0.223726 0)
(0.199922 -0.236378 0)
(0.192215 -0.244907 0)
(0.177906 -0.262339 0)
(0.164461 -0.272258 0)
(0.16586 -0.288079 0)
(0.140382 -0.303714 0)
(0.138343 -0.320869 0)
(0.120681 -0.336625 0)
(0.0991728 -0.355874 0)
(0.0449597 -0.364519 0)
(-0.00293997 -0.306443 0)
(-0.0602912 -0.151426 0)
(-0.0622054 -0.0496297 0)
(0.0189278 -0.186773 0)
(0.0334174 -0.367339 0)
(0.2565 -0.156699 0)
(0.239671 -0.177581 0)
(0.219998 -0.194898 0)
(0.206144 -0.208239 0)
(0.189775 -0.224506 0)
(0.17785 -0.235159 0)
(0.167823 -0.249665 0)
(0.152761 -0.266517 0)
(0.146288 -0.276797 0)
(0.134968 -0.291909 0)
(0.119459 -0.312844 0)
(0.106989 -0.320416 0)
(0.095542 -0.322243 0)
(0.0570523 -0.320103 0)
(0.0186679 -0.262884 0)
(-0.0374498 -0.146524 0)
(0.0136643 -0.106694 0)
(0.0452998 -0.195039 0)
(0.0313697 -0.328811 0)
(0.236892 -0.141421 0)
(0.221834 -0.162141 0)
(0.205712 -0.18034 0)
(0.191006 -0.195925 0)
(0.178725 -0.211648 0)
(0.162952 -0.225437 0)
(0.157172 -0.240954 0)
(0.139346 -0.253767 0)
(0.132959 -0.271672 0)
(0.124308 -0.282675 0)
(0.109502 -0.293576 0)
(0.0984659 -0.315354 0)
(0.0954047 -0.309408 0)
(0.0810278 -0.291599 0)
(0.0537023 -0.230706 0)
(0.0136192 -0.140364 0)
(0.0524765 -0.13969 0)
(0.0528313 -0.187461 0)
(0.0343978 -0.290977 0)
(0.217635 -0.128107 0)
(0.204009 -0.14889 0)
(0.19046 -0.166996 0)
(0.176052 -0.18407 0)
(0.164995 -0.199336 0)
(0.150759 -0.215777 0)
(0.140851 -0.2297 0)
(0.129359 -0.244399 0)
(0.118801 -0.263893 0)
(0.10799 -0.270873 0)
(0.102731 -0.288433 0)
(0.0958675 -0.308265 0)
(0.0965511 -0.304706 0)
(0.0910251 -0.279842 0)
(0.0793219 -0.208745 0)
(0.0530539 -0.138999 0)
(0.0580077 -0.138206 0)
(0.0476713 -0.173508 0)
(0.0316614 -0.261846 0)
(0.198546 -0.116505 0)
(0.186631 -0.136858 0)
(0.173939 -0.155272 0)
(0.161842 -0.172319 0)
(0.14936 -0.189157 0)
(0.138266 -0.20356 0)
(0.126146 -0.221737 0)
(0.115241 -0.23384 0)
(0.106107 -0.252803 0)
(0.0941121 -0.267431 0)
(0.0899338 -0.283171 0)
(0.0854688 -0.3115 0)
(0.0963227 -0.305579 0)
(0.093528 -0.276433 0)
(0.0855884 -0.198241 0)
(0.0577016 -0.128202 0)
(0.0513804 -0.126031 0)
(0.0280896 -0.161507 0)
(0.0405141 -0.226243 0)
(0.179995 -0.106254 0)
(0.169224 -0.126125 0)
(0.157931 -0.144384 0)
(0.146279 -0.161697 0)
(0.13541 -0.177993 0)
(0.122851 -0.194322 0)
(0.113373 -0.209381 0)
(0.0993661 -0.225401 0)
(0.0906136 -0.244855 0)
(0.0798202 -0.255696 0)
(0.0722296 -0.281702 0)
(0.0686116 -0.320618 0)
(0.0788853 -0.314943 0)
(0.0733351 -0.273333 0)
(0.0647186 -0.177914 0)
(0.0385309 -0.111248 0)
(0.0202342 -0.106942 0)
(0.0116541 -0.162353 0)
(0.0288721 -0.207772 0)
(0.161891 -0.0970607 0)
(0.152176 -0.116436 0)
(0.141833 -0.134445 0)
(0.131274 -0.151586 0)
(0.120321 -0.167943 0)
(0.109559 -0.183536 0)
(0.0973493 -0.199817 0)
(0.086745 -0.213676 0)
(0.0730221 -0.233368 0)
(0.0590019 -0.249076 0)
(0.0534233 -0.272191 0)
(0.030364 -0.314431 0)
(0.0231796 -0.312039 0)
(-0.00626741 -0.263354 0)
(-0.00233349 -0.162479 0)
(-0.0204074 -0.0942531 0)
(-0.0151657 -0.0975705 0)
(-0.000657661 -0.176283 0)
(0.028615 -0.185221 0)
(0.144324 -0.0888147 0)
(0.135471 -0.10763 0)
(0.126093 -0.125306 0)
(0.116147 -0.142171 0)
(0.106135 -0.158205 0)
(0.0951753 -0.173606 0)
(0.0840933 -0.188644 0)
(0.0716304 -0.203161 0)
(0.0584709 -0.21982 0)
(0.0391854 -0.233816 0)
(0.0257894 -0.25746 0)
(-0.0139465 -0.287296 0)
(-0.0535544 -0.281866 0)
(-0.0876219 -0.237306 0)
(-0.0786238 -0.15054 0)
(-0.0849876 -0.0994604 0)
(-0.0241434 -0.119115 0)
(-0.00824496 -0.202464 0)
(0.0144672 -0.179037 0)
(0.127233 -0.0813456 0)
(0.119201 -0.0996583 0)
(0.110598 -0.116936 0)
(0.101555 -0.133457 0)
(0.0920234 -0.149087 0)
(0.0818029 -0.163784 0)
(0.0713326 -0.17854 0)
(0.0581714 -0.190713 0)
(0.0459297 -0.205626 0)
(0.0236682 -0.217134 0)
(0.00444377 -0.228139 0)
(-0.0406167 -0.247259 0)
(-0.0772698 -0.254846 0)
(-0.101919 -0.225862 0)
(-0.0933953 -0.154798 0)
(-0.0901373 -0.133939 0)
(-0.00351697 -0.173776 0)
(-0.0108785 -0.209644 0)
(0.00997095 -0.179773 0)
(0.110635 -0.0745689 0)
(0.103301 -0.0923834 0)
(0.0954941 -0.109315 0)
(0.0871849 -0.125389 0)
(0.0785447 -0.140659 0)
(0.0690287 -0.154698 0)
(0.0595021 -0.168478 0)
(0.0467612 -0.179639 0)
(0.0354637 -0.191774 0)
(0.0140237 -0.195218 0)
(-0.00476305 -0.204515 0)
(-0.0314681 -0.213773 0)
(-0.0652566 -0.223214 0)
(-0.0866331 -0.215605 0)
(-0.0704519 -0.177915 0)
(-0.0460324 -0.179605 0)
(0.015158 -0.20154 0)
(-0.0121774 -0.209963 0)
(0.0104242 -0.180227 0)
(0.0944488 -0.0684177 0)
(0.0878039 -0.085817 0)
(0.0807602 -0.102391 0)
(0.0732276 -0.118122 0)
(0.0655178 -0.132894 0)
(0.0567018 -0.146528 0)
(0.0486992 -0.159242 0)
(0.0357516 -0.168816 0)
(0.0269654 -0.176695 0)
(0.011864 -0.182713 0)
(0.00660001 -0.187765 0)
(-0.00724548 -0.19586 0)
(-0.0193991 -0.205478 0)
(-0.032323 -0.221168 0)
(-0.00533988 -0.205727 0)
(0.00765589 -0.207818 0)
(0.0276542 -0.204001 0)
(-0.00502132 -0.203552 0)
(0.0117547 -0.180918 0)
(0.0786227 -0.062785 0)
(0.0725961 -0.0798815 0)
(0.0662943 -0.0961755 0)
(0.059583 -0.111609 0)
(0.0527971 -0.126001 0)
(0.04485 -0.138925 0)
(0.0372685 -0.150139 0)
(0.0258414 -0.158537 0)
(0.0231827 -0.169588 0)
(0.0132744 -0.1786 0)
(0.0183294 -0.183803 0)
(0.0110277 -0.196765 0)
(0.0306035 -0.203922 0)
(0.0238471 -0.225937 0)
(0.0338012 -0.215409 0)
(0.0307716 -0.206634 0)
(0.0396935 -0.193888 0)
(0.0107718 -0.192947 0)
(0.0177209 -0.173094 0)
(0.0630942 -0.0577535 0)
(0.0576734 -0.0746213 0)
(0.0520583 -0.0907208 0)
(0.0461722 -0.105904 0)
(0.0401891 -0.119711 0)
(0.0325702 -0.13158 0)
(0.0280908 -0.143378 0)
(0.0229603 -0.15504 0)
(0.0253025 -0.16622 0)
(0.0193557 -0.178208 0)
(0.0311652 -0.184479 0)
(0.0306978 -0.207075 0)
(0.0490208 -0.212309 0)
(0.0432084 -0.221129 0)
(0.0446678 -0.215656 0)
(0.035789 -0.206311 0)
(0.043766 -0.189485 0)
(0.0199398 -0.182393 0)
(0.0216021 -0.158092 0)
(0.0478112 -0.0529091 0)
(0.0428422 -0.0697756 0)
(0.0378225 -0.0856943 0)
(0.0323821 -0.10031 0)
(0.0273644 -0.114069 0)
(0.0245564 -0.12789 0)
(0.0262405 -0.141735 0)
(0.0245723 -0.154321 0)
(0.0327987 -0.165614 0)
(0.0306031 -0.182448 0)
(0.0501399 -0.191156 0)
(0.0481417 -0.211746 0)
(0.0544295 -0.215299 0)
(0.0475676 -0.218256 0)
(0.0478894 -0.212154 0)
(0.0358975 -0.204493 0)
(0.042003 -0.185972 0)
(0.01613 -0.172311 0)
(0.0197828 -0.138719 0)
(0.0326308 -0.0490241 0)
(0.0279617 -0.065454 0)
(0.0233896 -0.0811806 0)
(0.0210731 -0.0970196 0)
(0.0221328 -0.112824 0)
(0.0236926 -0.128052 0)
(0.02943 -0.14275 0)
(0.0316077 -0.158485 0)
(0.0462995 -0.171019 0)
(0.0452213 -0.192381 0)
(0.0603613 -0.199469 0)
(0.0536486 -0.210296 0)
(0.0559988 -0.214121 0)
(0.047235 -0.215018 0)
(0.0460706 -0.208455 0)
(0.0282191 -0.198987 0)
(0.0316433 -0.174667 0)
(0.000742142 -0.160279 0)
(0.0132025 -0.129143 0)
(0.0176052 -0.0426783 0)
(0.0145829 -0.0612656 0)
(0.0150463 -0.0803579 0)
(0.0175813 -0.099326 0)
(0.0223143 -0.117946 0)
(0.0275359 -0.136472 0)
(0.0375839 -0.153098 0)
(0.040606 -0.171601 0)
(0.0551585 -0.181849 0)
(0.0508859 -0.197665 0)
(0.0609804 -0.20238 0)
(0.0542767 -0.207544 0)
(0.0544555 -0.20658 0)
(0.0429047 -0.203235 0)
(0.0403901 -0.191635 0)
(0.0177355 -0.18277 0)
(0.0227706 -0.159176 0)
(-0.00563547 -0.149056 0)
(0.0110752 -0.123437 0)
(0.00535987 -0.0454402 0)
(0.00873843 -0.0658204 0)
(0.0133405 -0.0861519 0)
(0.0187165 -0.106141 0)
(0.0253374 -0.125341 0)
(0.0313089 -0.144036 0)
(0.0409768 -0.159919 0)
(0.0433235 -0.176896 0)
(0.0564791 -0.186248 0)
(0.0524314 -0.198775 0)
(0.0616911 -0.201759 0)
(0.054235 -0.203858 0)
(0.0539058 -0.200363 0)
(0.0418673 -0.195964 0)
(0.0391894 -0.182905 0)
(0.0171668 -0.173713 0)
(0.0230046 -0.151185 0)
(-0.00427337 -0.142961 0)
(0.0119263 -0.121073 0)
)
;

boundaryField
{
    leftWall
    {
        type            fixedValue;
        value           nonuniform 0();
    }
    rightWall
    {
        type            fixedValue;
        value           uniform (0 0 0);
    }
    lowerWall
    {
        type            fixedValue;
        value           nonuniform 0();
    }
    atmosphere
    {
        type            fluxCorrectedVelocity;
        value           nonuniform List<vector> 
23
(
(0.00283713 -0.00701577 0)
(0.00288716 -0.0148879 0)
(0.00312608 -0.0230708 0)
(0.00372331 -0.0314805 0)
(0.00535987 -0.0454861 0)
(0.00873843 -0.0658761 0)
(0.0133405 -0.0862196 0)
(0.0187165 -0.106222 0)
(0.0253374 -0.125435 0)
(0.0313089 -0.144143 0)
(0.0409768 -0.160027 0)
(0.0433235 -0.176996 0)
(0.0564791 -0.186319 0)
(0.0524314 -0.198785 0)
(0.0616911 -0.201731 0)
(0.054235 -0.203794 0)
(0.0539058 -0.200245 0)
(0.0418673 -0.1958 0)
(0.0391894 -0.182696 0)
(0.0171668 -0.173537 0)
(0.0230046 -0.151036 0)
(-0.00427337 -0.142899 0)
(0.0119263 -0.121065 0)
)
;
    }
    defaultFaces
    {
        type            empty;
    }
    procBoundary3to1
    {
        type            processor;
        value           nonuniform List<vector> 
23
(
(0.866916 -0.621045 0)
(0.822092 -0.658943 0)
(0.768579 -0.69159 0)
(0.709408 -0.698615 0)
(0.607693 -0.717587 0)
(0.471771 -0.709008 0)
(0.340184 -0.605234 0)
(0.284457 -0.395296 0)
(0.282743 -0.204361 0)
(0.289348 -0.153298 0)
(0.303205 -0.170399 0)
(0.32941 -0.222916 0)
(0.343478 -0.246244 0)
(0.355199 -0.267444 0)
(0.376758 -0.306465 0)
(0.375842 -0.394421 0)
(0.355986 -0.459486 0)
(0.329203 -0.493711 0)
(0.322813 -0.565523 0)
(0.272193 -0.577369 0)
(0.182961 -0.550164 0)
(0.0642254 -0.451632 0)
(0.0385785 -0.525399 0)
)
;
    }
    procBoundary3to2
    {
        type            processor;
        value           nonuniform List<vector> 
25
(
(0.787345 -0.487738 0)
(0.660276 -0.391148 0)
(0.588817 -0.313817 0)
(0.532491 -0.261736 0)
(0.48178 -0.216386 0)
(0.434761 -0.176083 0)
(0.396056 -0.145923 0)
(0.36146 -0.120352 0)
(0.329876 -0.102652 0)
(0.301394 -0.0875426 0)
(0.27519 -0.0754615 0)
(0.250642 -0.0649617 0)
(0.22746 -0.0559827 0)
(0.205519 -0.0481033 0)
(0.184666 -0.0411532 0)
(0.164776 -0.0348975 0)
(0.145702 -0.029295 0)
(0.12748 -0.0241573 0)
(0.109861 -0.0193871 0)
(0.0926681 -0.0151072 0)
(0.0764464 -0.0111558 0)
(0.0613111 -0.00610174 0)
(0.045262 -0.00282271 0)
(0.0301673 0.0026711 0)
(0.00343695 0.00474048 0)
)
;
    }
}


// ************************************************************************* //
