/*--------------------------------*- C++ -*----------------------------------*\
| =========                 |                                                 |
| \\      /  F ield         | OpenFOAM: The Open Source CFD Toolbox           |
|  \\    /   O peration     | Version:  2.4.0                                 |
|   \\  /    A nd           | Web:      www.OpenFOAM.org                      |
|    \\/     M anipulation  |                                                 |
\*---------------------------------------------------------------------------*/
FoamFile
{
    version     2.0;
    format      ascii;
    class       volVectorField;
    location    "1";
    object      U.oil;
}
// * * * * * * * * * * * * * * * * * * * * * * * * * * * * * * * * * * * * * //

dimensions      [0 1 -1 0 0 0 0];

internalField   nonuniform List<vector> 
575
(
(0.708622 -0.543386 0)
(0.656531 -0.566515 0)
(0.598691 -0.5883 0)
(0.550602 -0.593607 0)
(0.600291 -0.425815 0)
(0.558024 -0.455719 0)
(0.52199 -0.469794 0)
(0.49754 -0.486535 0)
(0.545296 -0.352214 0)
(0.517231 -0.380776 0)
(0.483798 -0.397584 0)
(0.456009 -0.424451 0)
(0.496989 -0.299026 0)
(0.470028 -0.31487 0)
(0.442888 -0.331683 0)
(0.414324 -0.335013 0)
(0.448551 -0.243625 0)
(0.427798 -0.258945 0)
(0.402947 -0.270577 0)
(0.383162 -0.281465 0)
(0.408571 -0.201677 0)
(0.392562 -0.215373 0)
(0.372362 -0.228107 0)
(0.358676 -0.236618 0)
(0.37383 -0.169734 0)
(0.361981 -0.181336 0)
(0.345993 -0.194382 0)
(0.335651 -0.203508 0)
(0.344464 -0.143374 0)
(0.335169 -0.155665 0)
(0.322652 -0.16869 0)
(0.313869 -0.178595 0)
(0.317462 -0.123606 0)
(0.309135 -0.135164 0)
(0.300056 -0.147189 0)
(0.291595 -0.157122 0)
(0.291061 -0.107301 0)
(0.284188 -0.118692 0)
(0.276503 -0.130019 0)
(0.269826 -0.14002 0)
(0.26641 -0.0937964 0)
(0.2605 -0.104531 0)
(0.254095 -0.115284 0)
(0.248227 -0.12492 0)
(0.242982 -0.0821765 0)
(0.237832 -0.0924745 0)
(0.232443 -0.102729 0)
(0.227233 -0.11223 0)
(0.220688 -0.0722029 0)
(0.21628 -0.0820068 0)
(0.211603 -0.0918339 0)
(0.207051 -0.101045 0)
(0.199489 -0.0634682 0)
(0.195646 -0.0728938 0)
(0.191565 -0.0823357 0)
(0.187496 -0.0912781 0)
(0.179262 -0.0557676 0)
(0.175903 -0.0648368 0)
(0.172269 -0.0739 0)
(0.168608 -0.0825773 0)
(0.159923 -0.0488939 0)
(0.156945 -0.057636 0)
(0.153649 -0.0663721 0)
(0.150352 -0.0747768 0)
(0.141356 -0.0427137 0)
(0.138685 -0.0511723 0)
(0.135679 -0.0595843 0)
(0.1327 -0.0677443 0)
(0.123519 -0.0371061 0)
(0.121058 -0.0453068 0)
(0.118308 -0.0534312 0)
(0.115593 -0.0613675 0)
(0.106273 -0.0319337 0)
(0.103994 -0.0399098 0)
(0.101472 -0.047802 0)
(0.0989756 -0.0555487 0)
(0.0894123 -0.0272067 0)
(0.0873043 -0.0349361 0)
(0.0850226 -0.0426081 0)
(0.0827318 -0.050194 0)
(0.0731923 -0.0230513 0)
(0.0711289 -0.0305937 0)
(0.0689667 -0.0380514 0)
(0.0668185 -0.0454214 0)
(0.0578759 -0.017929 0)
(0.0556583 -0.0255358 0)
(0.0534811 -0.0330901 0)
(0.0513093 -0.0405669 0)
(0.0421468 -0.0143953 0)
(0.0401788 -0.0218552 0)
(0.0381333 -0.0293188 0)
(0.0360708 -0.0367439 0)
(0.0269116 -0.00843786 0)
(0.0247875 -0.0155605 0)
(0.0226798 -0.0227859 0)
(0.0206416 -0.0301107 0)
(0.00283713 -0.00699719 0)
(0.00288716 -0.0148613 0)
(0.00312608 -0.0230371 0)
(0.00372331 -0.0314408 0)
(0.472978 -0.629823 0)
(0.347377 -0.606739 0)
(0.221405 -0.502008 0)
(0.165601 -0.356275 0)
(0.171123 -0.243365 0)
(0.208087 -0.200598 0)
(0.250818 -0.205792 0)
(0.284377 -0.238697 0)
(0.308662 -0.268446 0)
(0.320704 -0.300009 0)
(0.349397 -0.331165 0)
(0.37002 -0.394315 0)
(0.352809 -0.446292 0)
(0.327021 -0.47953 0)
(0.301853 -0.502417 0)
(0.242429 -0.507649 0)
(0.181487 -0.47735 0)
(0.0827494 -0.422891 0)
(0.0629326 -0.489417 0)
(0.432019 -0.524035 0)
(0.31672 -0.47623 0)
(0.214432 -0.420204 0)
(0.160159 -0.34257 0)
(0.162971 -0.264026 0)
(0.190371 -0.237433 0)
(0.228912 -0.242153 0)
(0.258563 -0.262859 0)
(0.27646 -0.286132 0)
(0.296129 -0.308172 0)
(0.296389 -0.351947 0)
(0.307807 -0.408045 0)
(0.276122 -0.426469 0)
(0.267905 -0.456619 0)
(0.256444 -0.485543 0)
(0.216027 -0.489403 0)
(0.199988 -0.427687 0)
(0.0961048 -0.369321 0)
(0.0394448 -0.419477 0)
(0.374428 -0.429448 0)
(0.28263 -0.418082 0)
(0.221283 -0.376026 0)
(0.186775 -0.321277 0)
(0.190531 -0.282048 0)
(0.204943 -0.2664 0)
(0.22896 -0.264868 0)
(0.248664 -0.279205 0)
(0.247608 -0.305276 0)
(0.274372 -0.324058 0)
(0.270751 -0.342126 0)
(0.279652 -0.381065 0)
(0.251306 -0.415496 0)
(0.250153 -0.46367 0)
(0.249815 -0.47308 0)
(0.237661 -0.455107 0)
(0.222595 -0.383561 0)
(0.129968 -0.281633 0)
(0.000173202 -0.351935 0)
(0.359696 -0.345468 0)
(0.294829 -0.346976 0)
(0.242411 -0.335529 0)
(0.214936 -0.311682 0)
(0.210456 -0.283912 0)
(0.210458 -0.27569 0)
(0.218879 -0.276617 0)
(0.231851 -0.283613 0)
(0.232045 -0.30649 0)
(0.232327 -0.330198 0)
(0.24785 -0.359961 0)
(0.253124 -0.3779 0)
(0.238697 -0.396798 0)
(0.245933 -0.458709 0)
(0.249736 -0.469376 0)
(0.237144 -0.444429 0)
(0.225914 -0.350493 0)
(0.106043 -0.200933 0)
(-0.012594 -0.298795 0)
(0.34042 -0.295431 0)
(0.29753 -0.303496 0)
(0.257481 -0.302272 0)
(0.230642 -0.293714 0)
(0.219508 -0.279476 0)
(0.213037 -0.277217 0)
(0.217864 -0.28319 0)
(0.218197 -0.289005 0)
(0.224075 -0.305571 0)
(0.21005 -0.335428 0)
(0.224472 -0.361266 0)
(0.210015 -0.369701 0)
(0.212303 -0.401875 0)
(0.222704 -0.480051 0)
(0.216563 -0.482948 0)
(0.197671 -0.426057 0)
(0.136634 -0.269983 0)
(-0.0176129 -0.0924894 0)
(-0.0210877 -0.298238 0)
(0.324585 -0.250351 0)
(0.29574 -0.266687 0)
(0.26199 -0.275243 0)
(0.236483 -0.274924 0)
(0.221518 -0.269086 0)
(0.212161 -0.273759 0)
(0.207869 -0.283875 0)
(0.205495 -0.289456 0)
(0.202881 -0.301849 0)
(0.200917 -0.334995 0)
(0.193843 -0.357418 0)
(0.18417 -0.368927 0)
(0.197913 -0.407324 0)
(0.186454 -0.465927 0)
(0.178207 -0.547943 0)
(0.158669 -0.397189 0)
(0.0204224 -0.163229 0)
(-0.0792984 -0.0743019 0)
(-0.0122091 -0.339486 0)
(0.309852 -0.22143 0)
(0.288946 -0.240963 0)
(0.254937 -0.249852 0)
(0.23586 -0.25734 0)
(0.217696 -0.256611 0)
(0.210292 -0.268239 0)
(0.19666 -0.275436 0)
(0.195048 -0.284836 0)
(0.186268 -0.303012 0)
(0.185574 -0.327648 0)
(0.167127 -0.340879 0)
(0.161611 -0.362302 0)
(0.167082 -0.42208 0)
(0.125372 -0.466709 0)
(0.106513 -0.598507 0)
(0.0552745 -0.38571 0)
(-0.0672632 -0.0611871 0)
(-0.0772521 -0.0855188 0)
(0.0154477 -0.42517 0)
(0.294048 -0.196183 0)
(0.272451 -0.216127 0)
(0.246672 -0.227663 0)
(0.227151 -0.240459 0)
(0.210228 -0.246396 0)
(0.203134 -0.256026 0)
(0.183304 -0.270936 0)
(0.184406 -0.281281 0)
(0.173482 -0.294525 0)
(0.16102 -0.317723 0)
(0.148639 -0.334064 0)
(0.143548 -0.354621 0)
(0.123433 -0.384325 0)
(0.0642209 -0.415274 0)
(0.0150672 -0.537693 0)
(-0.0402394 -0.390111 0)
(-0.100001 -0.0794405 0)
(-0.0260331 -0.273882 0)
(0.0247144 -0.475136 0)
(0.276796 -0.174614 0)
(0.255045 -0.195894 0)
(0.235272 -0.210319 0)
(0.217769 -0.223729 0)
(0.199923 -0.236379 0)
(0.192215 -0.244907 0)
(0.177906 -0.262339 0)
(0.164461 -0.272259 0)
(0.165861 -0.288081 0)
(0.140383 -0.303728 0)
(0.138349 -0.320946 0)
(0.120707 -0.336967 0)
(0.0992295 -0.356652 0)
(0.0452277 -0.369613 0)
(-0.00878394 -0.368868 0)
(-0.0458072 -0.429023 0)
(-0.051009 -0.226462 0)
(0.0232332 -0.423301 0)
(0.0352262 -0.422704 0)
(0.256501 -0.156706 0)
(0.239672 -0.177585 0)
(0.219998 -0.194899 0)
(0.206144 -0.208239 0)
(0.189775 -0.224506 0)
(0.17785 -0.235159 0)
(0.167823 -0.249665 0)
(0.152761 -0.266518 0)
(0.146288 -0.276801 0)
(0.134969 -0.291932 0)
(0.119467 -0.312962 0)
(0.107023 -0.320919 0)
(0.0956205 -0.323344 0)
(0.0574005 -0.32518 0)
(0.0185458 -0.287242 0)
(-0.0290525 -0.419292 0)
(0.0161198 -0.389291 0)
(0.0474003 -0.413268 0)
(0.032473 -0.354964 0)
(0.236893 -0.141423 0)
(0.221834 -0.162143 0)
(0.205712 -0.18034 0)
(0.191006 -0.195925 0)
(0.178725 -0.211648 0)
(0.162952 -0.225437 0)
(0.157173 -0.240954 0)
(0.139346 -0.253768 0)
(0.13296 -0.271679 0)
(0.12431 -0.282713 0)
(0.109513 -0.293758 0)
(0.0985072 -0.316085 0)
(0.0954947 -0.310877 0)
(0.0813529 -0.296663 0)
(0.0543788 -0.246094 0)
(0.0143097 -0.280617 0)
(0.0542976 -0.400759 0)
(0.0540203 -0.244987 0)
(0.034847 -0.305603 0)
(0.217635 -0.128108 0)
(0.204009 -0.148891 0)
(0.19046 -0.166996 0)
(0.176052 -0.18407 0)
(0.164995 -0.199336 0)
(0.150759 -0.215777 0)
(0.140851 -0.229701 0)
(0.129359 -0.244401 0)
(0.118801 -0.263903 0)
(0.107993 -0.270934 0)
(0.102745 -0.288706 0)
(0.095913 -0.309345 0)
(0.0966382 -0.306671 0)
(0.0913061 -0.286234 0)
(0.0799477 -0.222904 0)
(0.0535404 -0.162277 0)
(0.0597149 -0.174132 0)
(0.0482869 -0.196708 0)
(0.0318688 -0.273819 0)
(0.198546 -0.116505 0)
(0.186631 -0.136858 0)
(0.173939 -0.155272 0)
(0.161842 -0.172319 0)
(0.14936 -0.189157 0)
(0.138266 -0.20356 0)
(0.126146 -0.221737 0)
(0.115241 -0.233842 0)
(0.106107 -0.252818 0)
(0.0941158 -0.267522 0)
(0.0899477 -0.283565 0)
(0.0855055 -0.31308 0)
(0.0963651 -0.308719 0)
(0.0937734 -0.285461 0)
(0.0861882 -0.212379 0)
(0.0584469 -0.146797 0)
(0.0520963 -0.148089 0)
(0.0284566 -0.179045 0)
(0.0406149 -0.236007 0)
(0.179995 -0.106254 0)
(0.169224 -0.126125 0)
(0.157931 -0.144384 0)
(0.146279 -0.161697 0)
(0.13541 -0.177993 0)
(0.122851 -0.194322 0)
(0.113373 -0.209381 0)
(0.0993663 -0.225404 0)
(0.0906144 -0.244876 0)
(0.0798246 -0.255825 0)
(0.0722434 -0.28224 0)
(0.0686081 -0.322834 0)
(0.0788055 -0.32119 0)
(0.0734223 -0.28596 0)
(0.0654604 -0.193886 0)
(0.0395784 -0.129624 0)
(0.0210766 -0.126517 0)
(0.0120048 -0.177462 0)
(0.0288412 -0.213947 0)
(0.161891 -0.0970607 0)
(0.152176 -0.116436 0)
(0.141833 -0.134445 0)
(0.131274 -0.151586 0)
(0.120321 -0.167944 0)
(0.109559 -0.183536 0)
(0.0973493 -0.199818 0)
(0.0867451 -0.21368 0)
(0.0730231 -0.233396 0)
(0.0590076 -0.249244 0)
(0.0534393 -0.272882 0)
(0.0303246 -0.317457 0)
(0.0230398 -0.322642 0)
(-0.00670214 -0.280665 0)
(-0.00231484 -0.184103 0)
(-0.018827 -0.118252 0)
(-0.0142874 -0.115521 0)
(-0.000542928 -0.185335 0)
(0.02865 -0.18913 0)
(0.144324 -0.0888147 0)
(0.135471 -0.10763 0)
(0.126093 -0.125306 0)
(0.116147 -0.142171 0)
(0.106135 -0.158205 0)
(0.0951753 -0.173606 0)
(0.0840934 -0.188644 0)
(0.0716305 -0.203166 0)
(0.058472 -0.219853 0)
(0.0391919 -0.234014 0)
(0.0258075 -0.258296 0)
(-0.0139791 -0.291429 0)
(-0.05345 -0.295833 0)
(-0.0869258 -0.266401 0)
(-0.0770707 -0.184245 0)
(-0.0832033 -0.132948 0)
(-0.0238292 -0.132636 0)
(-0.00818775 -0.208022 0)
(0.0144695 -0.18052 0)
(0.127233 -0.0813456 0)
(0.119201 -0.0996583 0)
(0.110598 -0.116936 0)
(0.101555 -0.133457 0)
(0.0920234 -0.149087 0)
(0.0818029 -0.163784 0)
(0.0713326 -0.178541 0)
(0.0581716 -0.190717 0)
(0.0459307 -0.205659 0)
(0.0236741 -0.217318 0)
(0.00445687 -0.228983 0)
(-0.0406942 -0.252093 0)
(-0.0774147 -0.267831 0)
(-0.101706 -0.249956 0)
(-0.0924216 -0.187199 0)
(-0.0903384 -0.158033 0)
(-0.00342746 -0.182772 0)
(-0.0108728 -0.211667 0)
(0.00997368 -0.180317 0)
(0.110635 -0.0745689 0)
(0.103301 -0.0923834 0)
(0.0954941 -0.109315 0)
(0.0871849 -0.125389 0)
(0.0785447 -0.140659 0)
(0.0690287 -0.154698 0)
(0.0595021 -0.168479 0)
(0.0467613 -0.179643 0)
(0.0354642 -0.1918 0)
(0.0140254 -0.195333 0)
(-0.00476301 -0.205037 0)
(-0.031512 -0.217434 0)
(-0.0653763 -0.232628 0)
(-0.0866226 -0.227999 0)
(-0.0705777 -0.196901 0)
(-0.0461621 -0.189748 0)
(0.0152144 -0.206069 0)
(-0.0121758 -0.21076 0)
(0.0104249 -0.180429 0)
(0.0944488 -0.0684177 0)
(0.0878039 -0.085817 0)
(0.0807602 -0.102391 0)
(0.0732276 -0.118122 0)
(0.0655178 -0.132894 0)
(0.0567018 -0.146528 0)
(0.0486992 -0.159242 0)
(0.0357516 -0.168819 0)
(0.0269656 -0.176711 0)
(0.0118646 -0.182769 0)
(0.00660224 -0.18796 0)
(-0.0072494 -0.197589 0)
(-0.0195177 -0.210725 0)
(-0.0324347 -0.2275 0)
(-0.0054345 -0.213134 0)
(0.00762751 -0.212737 0)
(0.0276709 -0.206328 0)
(-0.00501452 -0.203963 0)
(0.0117551 -0.181002 0)
(0.0786227 -0.062785 0)
(0.0725961 -0.0798815 0)
(0.0662943 -0.0961755 0)
(0.059583 -0.111609 0)
(0.0527971 -0.126001 0)
(0.04485 -0.138925 0)
(0.0372685 -0.15014 0)
(0.0258415 -0.158539 0)
(0.0231828 -0.169598 0)
(0.0132747 -0.178632 0)
(0.0183301 -0.183861 0)
(0.0110282 -0.197275 0)
(0.0305979 -0.206071 0)
(0.0238497 -0.22853 0)
(0.0338133 -0.218302 0)
(0.0307815 -0.208672 0)
(0.0397079 -0.194979 0)
(0.0107767 -0.193205 0)
(0.0177213 -0.173163 0)
(0.0630942 -0.0577535 0)
(0.0576734 -0.0746213 0)
(0.0520583 -0.0907208 0)
(0.0461722 -0.105904 0)
(0.0401891 -0.119711 0)
(0.0325702 -0.13158 0)
(0.0280908 -0.143378 0)
(0.0229603 -0.155041 0)
(0.0253025 -0.166227 0)
(0.0193558 -0.178228 0)
(0.0311652 -0.184502 0)
(0.030698 -0.207159 0)
(0.0490241 -0.212958 0)
(0.0432143 -0.221955 0)
(0.0446746 -0.21658 0)
(0.035795 -0.207 0)
(0.0437695 -0.189906 0)
(0.019942 -0.182542 0)
(0.0216025 -0.158152 0)
(0.0478112 -0.0529091 0)
(0.0428422 -0.0697756 0)
(0.0378225 -0.0856943 0)
(0.0323821 -0.10031 0)
(0.0273644 -0.114069 0)
(0.0245564 -0.12789 0)
(0.0262405 -0.141736 0)
(0.0245723 -0.154322 0)
(0.0327987 -0.165618 0)
(0.0306031 -0.182458 0)
(0.05014 -0.191166 0)
(0.0481417 -0.211756 0)
(0.0544298 -0.215419 0)
(0.0475687 -0.218446 0)
(0.0478909 -0.212374 0)
(0.0358992 -0.204672 0)
(0.0420042 -0.186102 0)
(0.016131 -0.172383 0)
(0.0197832 -0.138763 0)
(0.0326308 -0.0490241 0)
(0.0279617 -0.065454 0)
(0.0233896 -0.0811806 0)
(0.0210731 -0.0970196 0)
(0.0221328 -0.112824 0)
(0.0236926 -0.128052 0)
(0.02943 -0.14275 0)
(0.0316077 -0.158486 0)
(0.0462994 -0.171021 0)
(0.0452213 -0.192384 0)
(0.0603613 -0.199471 0)
(0.0536486 -0.210298 0)
(0.0559988 -0.214131 0)
(0.0472351 -0.215048 0)
(0.0460709 -0.208496 0)
(0.0282195 -0.199024 0)
(0.0316436 -0.174702 0)
(0.000742431 -0.160312 0)
(0.0132027 -0.129169 0)
(0.0176052 -0.0426783 0)
(0.0145829 -0.0612656 0)
(0.0150463 -0.0803579 0)
(0.0175813 -0.099326 0)
(0.0223143 -0.117946 0)
(0.0275359 -0.136472 0)
(0.0375839 -0.153098 0)
(0.040606 -0.171601 0)
(0.0551585 -0.181849 0)
(0.0508859 -0.197666 0)
(0.0609804 -0.20238 0)
(0.0542767 -0.207544 0)
(0.0544555 -0.206581 0)
(0.0429047 -0.203239 0)
(0.0403901 -0.19164 0)
(0.0177355 -0.182777 0)
(0.0227707 -0.159186 0)
(-0.00563543 -0.149068 0)
(0.0110752 -0.123448 0)
(0.00535987 -0.0454402 0)
(0.00873843 -0.0658204 0)
(0.0133405 -0.0861519 0)
(0.0187165 -0.106141 0)
(0.0253374 -0.125341 0)
(0.0313089 -0.144036 0)
(0.0409768 -0.159919 0)
(0.0433235 -0.176896 0)
(0.0564791 -0.186248 0)
(0.0524314 -0.198775 0)
(0.0616911 -0.201759 0)
(0.054235 -0.203858 0)
(0.0539058 -0.200363 0)
(0.0418673 -0.195964 0)
(0.0391894 -0.182905 0)
(0.0171668 -0.173714 0)
(0.0230046 -0.151187 0)
(-0.00427336 -0.142963 0)
(0.0119263 -0.121075 0)
)
;

boundaryField
{
    leftWall
    {
        type            fixedValue;
        value           nonuniform 0();
    }
    rightWall
    {
        type            fixedValue;
        value           uniform (0 0 0);
    }
    lowerWall
    {
        type            fixedValue;
        value           nonuniform 0();
    }
    atmosphere
    {
        type            fluxCorrectedVelocity;
        value           nonuniform List<vector> 
23
(
(0.00283713 -0.00701577 0)
(0.00288716 -0.0148879 0)
(0.00312608 -0.0230708 0)
(0.00372331 -0.0314805 0)
(0.00535987 -0.0454861 0)
(0.00873843 -0.0658761 0)
(0.0133405 -0.0862196 0)
(0.0187165 -0.106222 0)
(0.0253374 -0.125435 0)
(0.0313089 -0.144143 0)
(0.0409768 -0.160027 0)
(0.0433235 -0.176996 0)
(0.0564791 -0.186319 0)
(0.0524314 -0.198785 0)
(0.0616911 -0.201731 0)
(0.054235 -0.203794 0)
(0.0539058 -0.200245 0)
(0.0418673 -0.1958 0)
(0.0391894 -0.182696 0)
(0.0171668 -0.173537 0)
(0.0230046 -0.151036 0)
(-0.00427336 -0.142899 0)
(0.0119263 -0.121065 0)
)
;
    }
    defaultFaces
    {
        type            empty;
    }
    procBoundary3to1
    {
        type            processor;
        value           nonuniform List<vector> 
23
(
(0.872802 -0.616038 0)
(0.82773 -0.655571 0)
(0.816241 -0.705206 0)
(0.820512 -0.693082 0)
(0.6618 -0.704541 0)
(0.475828 -0.712803 0)
(0.343678 -0.613503 0)
(0.289074 -0.410964 0)
(0.289961 -0.227296 0)
(0.29372 -0.172702 0)
(0.304553 -0.178366 0)
(0.329601 -0.225423 0)
(0.343558 -0.247482 0)
(0.355423 -0.26819 0)
(0.37713 -0.307239 0)
(0.376479 -0.395739 0)
(0.356635 -0.460862 0)
(0.329664 -0.4954 0)
(0.323065 -0.566568 0)
(0.272139 -0.577337 0)
(0.18335 -0.551759 0)
(0.0663533 -0.476991 0)
(0.03968 -0.548224 0)
)
;
    }
    procBoundary3to2
    {
        type            processor;
        value           nonuniform List<vector> 
25
(
(0.796732 -0.489212 0)
(0.653801 -0.38812 0)
(0.588916 -0.314239 0)
(0.532771 -0.262074 0)
(0.48192 -0.216772 0)
(0.434776 -0.176309 0)
(0.396071 -0.146043 0)
(0.36147 -0.120455 0)
(0.329882 -0.102726 0)
(0.301396 -0.0875831 0)
(0.275191 -0.0754779 0)
(0.250642 -0.0649662 0)
(0.22746 -0.0559834 0)
(0.205519 -0.0481034 0)
(0.184666 -0.0411532 0)
(0.164776 -0.0348975 0)
(0.145702 -0.029295 0)
(0.12748 -0.0241573 0)
(0.109861 -0.0193871 0)
(0.0926681 -0.0151072 0)
(0.0764464 -0.0111558 0)
(0.0613111 -0.00610174 0)
(0.045262 -0.00282271 0)
(0.0301673 0.0026711 0)
(0.00343695 0.00474048 0)
)
;
    }
}


// ************************************************************************* //
