/*--------------------------------*- C++ -*----------------------------------*\
| =========                 |                                                 |
| \\      /  F ield         | OpenFOAM: The Open Source CFD Toolbox           |
|  \\    /   O peration     | Version:  2.4.0                                 |
|   \\  /    A nd           | Web:      www.OpenFOAM.org                      |
|    \\/     M anipulation  |                                                 |
\*---------------------------------------------------------------------------*/
FoamFile
{
    version     2.0;
    format      ascii;
    class       volVectorField;
    location    "1";
    object      U.water;
}
// * * * * * * * * * * * * * * * * * * * * * * * * * * * * * * * * * * * * * //

dimensions      [0 1 -1 0 0 0 0];

internalField   nonuniform List<vector> 
575
(
(0.709735 -0.544464 0)
(0.653489 -0.565656 0)
(0.595244 -0.586595 0)
(0.54682 -0.590203 0)
(0.59972 -0.425318 0)
(0.558226 -0.455641 0)
(0.5218 -0.469074 0)
(0.497443 -0.485871 0)
(0.545158 -0.35201 0)
(0.517102 -0.380535 0)
(0.483539 -0.397261 0)
(0.455945 -0.424358 0)
(0.496808 -0.298859 0)
(0.469929 -0.314687 0)
(0.442824 -0.331513 0)
(0.41425 -0.334881 0)
(0.448481 -0.243459 0)
(0.427748 -0.258784 0)
(0.402895 -0.270436 0)
(0.383113 -0.281355 0)
(0.408558 -0.201556 0)
(0.392545 -0.215259 0)
(0.372344 -0.227995 0)
(0.358659 -0.236522 0)
(0.373817 -0.169648 0)
(0.36197 -0.181255 0)
(0.345982 -0.194308 0)
(0.335639 -0.203439 0)
(0.344455 -0.143295 0)
(0.335162 -0.155602 0)
(0.322645 -0.168634 0)
(0.313863 -0.178542 0)
(0.317457 -0.123549 0)
(0.309131 -0.13512 0)
(0.300053 -0.147152 0)
(0.291592 -0.157091 0)
(0.291059 -0.107269 0)
(0.284186 -0.118668 0)
(0.276502 -0.13 0)
(0.269825 -0.140006 0)
(0.266409 -0.0937832 0)
(0.2605 -0.104521 0)
(0.254094 -0.115277 0)
(0.248227 -0.124915 0)
(0.242982 -0.082173 0)
(0.237832 -0.0924718 0)
(0.232443 -0.102727 0)
(0.227234 -0.112229 0)
(0.220688 -0.0722023 0)
(0.21628 -0.0820063 0)
(0.211603 -0.0918335 0)
(0.207051 -0.101045 0)
(0.199489 -0.0634681 0)
(0.195646 -0.0728937 0)
(0.191565 -0.0823356 0)
(0.187496 -0.0912781 0)
(0.179262 -0.0557676 0)
(0.175903 -0.0648367 0)
(0.172269 -0.0739 0)
(0.168608 -0.0825773 0)
(0.159923 -0.0488939 0)
(0.156945 -0.057636 0)
(0.153649 -0.0663721 0)
(0.150352 -0.0747768 0)
(0.141356 -0.0427137 0)
(0.138685 -0.0511723 0)
(0.135679 -0.0595843 0)
(0.1327 -0.0677443 0)
(0.123519 -0.0371061 0)
(0.121058 -0.0453068 0)
(0.118308 -0.0534312 0)
(0.115593 -0.0613675 0)
(0.106273 -0.0319337 0)
(0.103994 -0.0399098 0)
(0.101472 -0.047802 0)
(0.0989756 -0.0555487 0)
(0.0894123 -0.0272067 0)
(0.0873043 -0.0349361 0)
(0.0850226 -0.0426081 0)
(0.0827318 -0.050194 0)
(0.0731923 -0.0230513 0)
(0.0711289 -0.0305937 0)
(0.0689667 -0.0380514 0)
(0.0668185 -0.0454214 0)
(0.0578759 -0.017929 0)
(0.0556583 -0.0255358 0)
(0.0534811 -0.0330901 0)
(0.0513093 -0.0405669 0)
(0.0421468 -0.0143953 0)
(0.0401788 -0.0218552 0)
(0.0381333 -0.0293188 0)
(0.0360708 -0.0367439 0)
(0.0269116 -0.00843786 0)
(0.0247875 -0.0155605 0)
(0.0226798 -0.0227859 0)
(0.0206416 -0.0301107 0)
(0.00283713 -0.00699719 0)
(0.00288716 -0.0148613 0)
(0.00312608 -0.0230371 0)
(0.00372331 -0.0314408 0)
(0.4705 -0.626456 0)
(0.346599 -0.604621 0)
(0.219324 -0.497616 0)
(0.162739 -0.349535 0)
(0.167567 -0.234017 0)
(0.206079 -0.192437 0)
(0.250037 -0.20157 0)
(0.284093 -0.236846 0)
(0.308501 -0.267419 0)
(0.320548 -0.299253 0)
(0.349153 -0.330352 0)
(0.369749 -0.393478 0)
(0.352718 -0.445741 0)
(0.326775 -0.478774 0)
(0.301786 -0.501892 0)
(0.242279 -0.506782 0)
(0.18077 -0.474352 0)
(0.0814607 -0.411467 0)
(0.062176 -0.466009 0)
(0.431691 -0.523275 0)
(0.31579 -0.4747 0)
(0.213226 -0.417487 0)
(0.159105 -0.339468 0)
(0.161985 -0.260513 0)
(0.189711 -0.234197 0)
(0.228502 -0.239909 0)
(0.258368 -0.261667 0)
(0.276341 -0.285494 0)
(0.296047 -0.307753 0)
(0.296362 -0.351664 0)
(0.307793 -0.407864 0)
(0.27611 -0.426314 0)
(0.267859 -0.456164 0)
(0.25631 -0.4849 0)
(0.215654 -0.487997 0)
(0.199185 -0.424077 0)
(0.0951662 -0.357658 0)
(0.0390153 -0.397322 0)
(0.374206 -0.429176 0)
(0.281971 -0.41657 0)
(0.220519 -0.373997 0)
(0.186226 -0.319454 0)
(0.190129 -0.280378 0)
(0.204676 -0.265047 0)
(0.228802 -0.26391 0)
(0.248583 -0.278649 0)
(0.247564 -0.304987 0)
(0.274362 -0.323906 0)
(0.270746 -0.342068 0)
(0.279646 -0.381017 0)
(0.251288 -0.415371 0)
(0.249993 -0.462713 0)
(0.249592 -0.471736 0)
(0.23729 -0.452861 0)
(0.22157 -0.377753 0)
(0.128578 -0.268906 0)
(-0.000685562 -0.32876 0)
(0.359567 -0.34523 0)
(0.294467 -0.345807 0)
(0.242042 -0.334254 0)
(0.214681 -0.310641 0)
(0.210298 -0.283132 0)
(0.210375 -0.275165 0)
(0.218843 -0.276302 0)
(0.231834 -0.283444 0)
(0.232038 -0.306408 0)
(0.232323 -0.330167 0)
(0.247846 -0.359937 0)
(0.253115 -0.377832 0)
(0.23867 -0.396593 0)
(0.24571 -0.456765 0)
(0.249462 -0.466111 0)
(0.236467 -0.439631 0)
(0.223737 -0.340466 0)
(0.103519 -0.183232 0)
(-0.0136937 -0.274596 0)
(0.340348 -0.295226 0)
(0.297392 -0.30284 0)
(0.257357 -0.30165 0)
(0.230561 -0.293256 0)
(0.219464 -0.279182 0)
(0.213016 -0.277054 0)
(0.217855 -0.28311 0)
(0.218194 -0.288968 0)
(0.224074 -0.305555 0)
(0.210049 -0.335418 0)
(0.224468 -0.361241 0)
(0.210004 -0.369594 0)
(0.212267 -0.401571 0)
(0.222426 -0.477031 0)
(0.215916 -0.469562 0)
(0.196138 -0.414887 0)
(0.133622 -0.255422 0)
(-0.0201104 -0.0731484 0)
(-0.0221295 -0.273835 0)
(0.324554 -0.250199 0)
(0.295697 -0.266413 0)
(0.261956 -0.275016 0)
(0.236464 -0.274775 0)
(0.221509 -0.269004 0)
(0.212157 -0.273719 0)
(0.207867 -0.283858 0)
(0.205494 -0.289449 0)
(0.20288 -0.301845 0)
(0.200916 -0.334989 0)
(0.19384 -0.357386 0)
(0.184153 -0.368772 0)
(0.197872 -0.406898 0)
(0.186293 -0.462346 0)
(0.180107 -0.449593 0)
(0.153015 -0.354062 0)
(0.0179952 -0.145166 0)
(-0.0821178 -0.0470509 0)
(-0.0128718 -0.314287 0)
(0.30984 -0.221343 0)
(0.288936 -0.240872 0)
(0.254931 -0.249788 0)
(0.235856 -0.257303 0)
(0.217694 -0.256594 0)
(0.210291 -0.268231 0)
(0.19666 -0.275433 0)
(0.195048 -0.284835 0)
(0.186268 -0.303011 0)
(0.185573 -0.327642 0)
(0.167123 -0.340836 0)
(0.161588 -0.362086 0)
(0.167039 -0.421512 0)
(0.125336 -0.462328 0)
(0.101897 -0.438094 0)
(0.0386512 -0.265958 0)
(-0.0700296 -0.0371921 0)
(-0.0802247 -0.0500508 0)
(0.0146196 -0.358069 0)
(0.294044 -0.196143 0)
(0.272448 -0.2161 0)
(0.24667 -0.227647 0)
(0.227151 -0.240451 0)
(0.210227 -0.246392 0)
(0.203134 -0.256024 0)
(0.183304 -0.270935 0)
(0.184406 -0.281281 0)
(0.173482 -0.294523 0)
(0.16102 -0.317713 0)
(0.148634 -0.334004 0)
(0.14352 -0.354331 0)
(0.12338 -0.383572 0)
(0.0641335 -0.410146 0)
(0.0126258 -0.364721 0)
(-0.0609572 -0.171969 0)
(-0.104625 -0.0320778 0)
(-0.0416407 -0.121065 0)
(0.0231719 -0.37312 0)
(0.276794 -0.174596 0)
(0.255044 -0.195885 0)
(0.235272 -0.210314 0)
(0.217769 -0.223726 0)
(0.199922 -0.236378 0)
(0.192215 -0.244907 0)
(0.177906 -0.262339 0)
(0.164461 -0.272258 0)
(0.16586 -0.288079 0)
(0.140382 -0.303714 0)
(0.138342 -0.320862 0)
(0.120677 -0.336581 0)
(0.099157 -0.355679 0)
(0.044932 -0.363692 0)
(-0.00302994 -0.303365 0)
(-0.060354 -0.147689 0)
(-0.0621898 -0.0472331 0)
(0.0188745 -0.185179 0)
(0.0334089 -0.366943 0)
(0.2565 -0.156699 0)
(0.239671 -0.177581 0)
(0.219998 -0.194898 0)
(0.206144 -0.208239 0)
(0.189775 -0.224506 0)
(0.17785 -0.235159 0)
(0.167823 -0.249665 0)
(0.152761 -0.266517 0)
(0.146288 -0.276797 0)
(0.134968 -0.291909 0)
(0.119459 -0.312839 0)
(0.106987 -0.320392 0)
(0.0955336 -0.32212 0)
(0.0570212 -0.319514 0)
(0.0185918 -0.260661 0)
(-0.0374682 -0.142907 0)
(0.0136835 -0.103947 0)
(0.0452841 -0.193109 0)
(0.0313587 -0.328424 0)
(0.236892 -0.141421 0)
(0.221834 -0.162141 0)
(0.205712 -0.18034 0)
(0.191006 -0.195925 0)
(0.178725 -0.211648 0)
(0.162952 -0.225437 0)
(0.157172 -0.240954 0)
(0.139346 -0.253767 0)
(0.132959 -0.271672 0)
(0.124308 -0.282675 0)
(0.109502 -0.293574 0)
(0.0984653 -0.315344 0)
(0.0954023 -0.309355 0)
(0.0810042 -0.291205 0)
(0.0536431 -0.228992 0)
(0.0136144 -0.137149 0)
(0.0524816 -0.136617 0)
(0.0527822 -0.185657 0)
(0.034385 -0.29066 0)
(0.217635 -0.128107 0)
(0.204009 -0.14889 0)
(0.19046 -0.166996 0)
(0.176052 -0.18407 0)
(0.164995 -0.199336 0)
(0.150759 -0.215777 0)
(0.140851 -0.2297 0)
(0.129359 -0.244399 0)
(0.118801 -0.263893 0)
(0.10799 -0.270873 0)
(0.102731 -0.288432 0)
(0.0958673 -0.30826 0)
(0.0965506 -0.304688 0)
(0.0910157 -0.279622 0)
(0.0792789 -0.207586 0)
(0.0530156 -0.136568 0)
(0.0579677 -0.135613 0)
(0.0476313 -0.172385 0)
(0.0316568 -0.261629 0)
(0.198546 -0.116505 0)
(0.186631 -0.136858 0)
(0.173939 -0.155272 0)
(0.161842 -0.172319 0)
(0.14936 -0.189157 0)
(0.138266 -0.20356 0)
(0.126146 -0.221737 0)
(0.115241 -0.23384 0)
(0.106107 -0.252803 0)
(0.0941121 -0.26743 0)
(0.0899338 -0.283171 0)
(0.0854688 -0.311498 0)
(0.0963225 -0.305573 0)
(0.0935254 -0.276349 0)
(0.0855585 -0.197572 0)
(0.0576399 -0.126585 0)
(0.0513166 -0.124426 0)
(0.0280658 -0.160945 0)
(0.040513 -0.226131 0)
(0.179995 -0.106254 0)
(0.169224 -0.126125 0)
(0.157931 -0.144384 0)
(0.146279 -0.161697 0)
(0.13541 -0.177993 0)
(0.122851 -0.194322 0)
(0.113373 -0.209381 0)
(0.0993661 -0.225401 0)
(0.0906136 -0.244855 0)
(0.0798202 -0.255696 0)
(0.0722295 -0.281702 0)
(0.0686116 -0.320617 0)
(0.0788853 -0.314939 0)
(0.0733346 -0.273309 0)
(0.0647034 -0.17764 0)
(0.0384742 -0.110442 0)
(0.0202016 -0.106267 0)
(0.0116499 -0.162145 0)
(0.0288722 -0.207732 0)
(0.161891 -0.0970607 0)
(0.152176 -0.116436 0)
(0.141833 -0.134445 0)
(0.131274 -0.151586 0)
(0.120321 -0.167943 0)
(0.109559 -0.183536 0)
(0.0973493 -0.199817 0)
(0.086745 -0.213676 0)
(0.0730221 -0.233368 0)
(0.0590019 -0.249076 0)
(0.0534233 -0.27219 0)
(0.030364 -0.31443 0)
(0.0231798 -0.312035 0)
(-0.00626724 -0.263343 0)
(-0.00233604 -0.162405 0)
(-0.0204161 -0.0940199 0)
(-0.0151719 -0.0973763 0)
(-0.000658048 -0.176235 0)
(0.0286149 -0.18521 0)
(0.144324 -0.0888147 0)
(0.135471 -0.10763 0)
(0.126093 -0.125306 0)
(0.116147 -0.142171 0)
(0.106135 -0.158205 0)
(0.0951753 -0.173606 0)
(0.0840933 -0.188644 0)
(0.0716304 -0.203161 0)
(0.0584709 -0.21982 0)
(0.0391854 -0.233816 0)
(0.0257894 -0.25746 0)
(-0.0139465 -0.287295 0)
(-0.0535542 -0.281862 0)
(-0.0876219 -0.237298 0)
(-0.0786246 -0.150521 0)
(-0.0849891 -0.0994212 0)
(-0.0241439 -0.119073 0)
(-0.008245 -0.202455 0)
(0.0144671 -0.179033 0)
(0.127233 -0.0813456 0)
(0.119201 -0.0996583 0)
(0.110598 -0.116936 0)
(0.101555 -0.133457 0)
(0.0920234 -0.149087 0)
(0.0818029 -0.163784 0)
(0.0713326 -0.17854 0)
(0.0581714 -0.190713 0)
(0.0459297 -0.205626 0)
(0.0236682 -0.217134 0)
(0.00444377 -0.228139 0)
(-0.0406167 -0.247258 0)
(-0.0772698 -0.254843 0)
(-0.101919 -0.225855 0)
(-0.0933956 -0.154787 0)
(-0.0901373 -0.133926 0)
(-0.00351699 -0.173767 0)
(-0.0108785 -0.209641 0)
(0.00997094 -0.179771 0)
(0.110635 -0.0745689 0)
(0.103301 -0.0923834 0)
(0.0954941 -0.109315 0)
(0.0871849 -0.125389 0)
(0.0785447 -0.140659 0)
(0.0690287 -0.154698 0)
(0.0595021 -0.168478 0)
(0.0467612 -0.179639 0)
(0.0354637 -0.191774 0)
(0.0140237 -0.195218 0)
(-0.00476305 -0.204515 0)
(-0.0314681 -0.213772 0)
(-0.0652565 -0.223212 0)
(-0.0866331 -0.2156 0)
(-0.0704519 -0.177909 0)
(-0.0460323 -0.1796 0)
(0.015158 -0.201537 0)
(-0.0121774 -0.209962 0)
(0.0104242 -0.180227 0)
(0.0944488 -0.0684177 0)
(0.0878039 -0.085817 0)
(0.0807602 -0.102391 0)
(0.0732276 -0.118122 0)
(0.0655178 -0.132894 0)
(0.0567018 -0.146528 0)
(0.0486992 -0.159242 0)
(0.0357516 -0.168816 0)
(0.0269654 -0.176695 0)
(0.011864 -0.182713 0)
(0.00660001 -0.187765 0)
(-0.00724548 -0.195859 0)
(-0.0193991 -0.205477 0)
(-0.0323229 -0.221166 0)
(-0.00533983 -0.205724 0)
(0.00765591 -0.207816 0)
(0.0276542 -0.204 0)
(-0.00502132 -0.203552 0)
(0.0117547 -0.180917 0)
(0.0786227 -0.062785 0)
(0.0725961 -0.0798815 0)
(0.0662943 -0.0961755 0)
(0.059583 -0.111609 0)
(0.0527971 -0.126001 0)
(0.04485 -0.138925 0)
(0.0372685 -0.150139 0)
(0.0258414 -0.158537 0)
(0.0231827 -0.169588 0)
(0.0132744 -0.1786 0)
(0.0183294 -0.183803 0)
(0.0110277 -0.196765 0)
(0.0306035 -0.203921 0)
(0.0238471 -0.225936 0)
(0.0338012 -0.215408 0)
(0.0307716 -0.206633 0)
(0.0396935 -0.193888 0)
(0.0107718 -0.192947 0)
(0.0177209 -0.173094 0)
(0.0630942 -0.0577535 0)
(0.0576734 -0.0746213 0)
(0.0520583 -0.0907208 0)
(0.0461722 -0.105904 0)
(0.0401891 -0.119711 0)
(0.0325702 -0.13158 0)
(0.0280908 -0.143378 0)
(0.0229603 -0.15504 0)
(0.0253025 -0.16622 0)
(0.0193557 -0.178208 0)
(0.0311652 -0.184479 0)
(0.0306978 -0.207075 0)
(0.0490208 -0.212308 0)
(0.0432084 -0.221128 0)
(0.0446678 -0.215656 0)
(0.035789 -0.206311 0)
(0.043766 -0.189485 0)
(0.0199398 -0.182393 0)
(0.0216021 -0.158092 0)
(0.0478112 -0.0529091 0)
(0.0428422 -0.0697756 0)
(0.0378225 -0.0856943 0)
(0.0323821 -0.10031 0)
(0.0273644 -0.114069 0)
(0.0245564 -0.12789 0)
(0.0262405 -0.141735 0)
(0.0245723 -0.154321 0)
(0.0327987 -0.165614 0)
(0.0306031 -0.182448 0)
(0.0501399 -0.191156 0)
(0.0481417 -0.211746 0)
(0.0544295 -0.215299 0)
(0.0475676 -0.218256 0)
(0.0478894 -0.212154 0)
(0.0358975 -0.204492 0)
(0.042003 -0.185972 0)
(0.01613 -0.172311 0)
(0.0197828 -0.138719 0)
(0.0326308 -0.0490241 0)
(0.0279617 -0.065454 0)
(0.0233896 -0.0811806 0)
(0.0210731 -0.0970196 0)
(0.0221328 -0.112824 0)
(0.0236926 -0.128052 0)
(0.02943 -0.14275 0)
(0.0316077 -0.158485 0)
(0.0462995 -0.171019 0)
(0.0452213 -0.192381 0)
(0.0603613 -0.199469 0)
(0.0536486 -0.210296 0)
(0.0559988 -0.214121 0)
(0.047235 -0.215018 0)
(0.0460706 -0.208455 0)
(0.0282191 -0.198987 0)
(0.0316433 -0.174667 0)
(0.000742142 -0.160279 0)
(0.0132025 -0.129143 0)
(0.0176052 -0.0426783 0)
(0.0145829 -0.0612656 0)
(0.0150463 -0.0803579 0)
(0.0175813 -0.099326 0)
(0.0223143 -0.117946 0)
(0.0275359 -0.136472 0)
(0.0375839 -0.153098 0)
(0.040606 -0.171601 0)
(0.0551585 -0.181849 0)
(0.0508859 -0.197665 0)
(0.0609804 -0.20238 0)
(0.0542767 -0.207544 0)
(0.0544555 -0.20658 0)
(0.0429047 -0.203235 0)
(0.0403901 -0.191635 0)
(0.0177355 -0.18277 0)
(0.0227706 -0.159176 0)
(-0.00563547 -0.149056 0)
(0.0110752 -0.123437 0)
(0.00535987 -0.0454402 0)
(0.00873843 -0.0658204 0)
(0.0133405 -0.0861519 0)
(0.0187165 -0.106141 0)
(0.0253374 -0.125341 0)
(0.0313089 -0.144036 0)
(0.0409768 -0.159919 0)
(0.0433235 -0.176896 0)
(0.0564791 -0.186248 0)
(0.0524314 -0.198775 0)
(0.0616911 -0.201759 0)
(0.054235 -0.203858 0)
(0.0539058 -0.200363 0)
(0.0418673 -0.195964 0)
(0.0391894 -0.182905 0)
(0.0171668 -0.173713 0)
(0.0230046 -0.151185 0)
(-0.00427337 -0.142961 0)
(0.0119263 -0.121073 0)
)
;

boundaryField
{
    leftWall
    {
        type            fixedValue;
        value           nonuniform 0();
    }
    rightWall
    {
        type            fixedValue;
        value           uniform (0 0 0);
    }
    lowerWall
    {
        type            fixedValue;
        value           nonuniform 0();
    }
    atmosphere
    {
        type            fluxCorrectedVelocity;
        value           nonuniform List<vector> 
23
(
(0.00283713 -0.00701577 0)
(0.00288716 -0.0148879 0)
(0.00312608 -0.0230708 0)
(0.00372331 -0.0314805 0)
(0.00535987 -0.0454861 0)
(0.00873843 -0.0658761 0)
(0.0133405 -0.0862196 0)
(0.0187165 -0.106222 0)
(0.0253374 -0.125435 0)
(0.0313089 -0.144143 0)
(0.0409768 -0.160027 0)
(0.0433235 -0.176996 0)
(0.0564791 -0.186319 0)
(0.0524314 -0.198785 0)
(0.0616911 -0.201731 0)
(0.054235 -0.203794 0)
(0.0539058 -0.200245 0)
(0.0418673 -0.1958 0)
(0.0391894 -0.182696 0)
(0.0171668 -0.173537 0)
(0.0230046 -0.151036 0)
(-0.00427337 -0.142899 0)
(0.0119263 -0.121065 0)
)
;
    }
    defaultFaces
    {
        type            empty;
    }
    procBoundary3to1
    {
        type            processor;
        value           nonuniform List<vector> 
23
(
(0.869666 -0.621542 0)
(0.823508 -0.659277 0)
(0.769075 -0.692004 0)
(0.709598 -0.698781 0)
(0.607731 -0.717605 0)
(0.471793 -0.70904 0)
(0.34022 -0.605319 0)
(0.284499 -0.395423 0)
(0.282792 -0.204503 0)
(0.289382 -0.153428 0)
(0.30322 -0.170489 0)
(0.329415 -0.22296 0)
(0.343475 -0.246232 0)
(0.355152 -0.26722 0)
(0.376593 -0.305928 0)
(0.375609 -0.393799 0)
(0.355676 -0.458828 0)
(0.328854 -0.492946 0)
(0.322466 -0.564643 0)
(0.271853 -0.576463 0)
(0.182651 -0.548955 0)
(0.0640732 -0.450039 0)
(0.0385563 -0.524173 0)
)
;
    }
    procBoundary3to2
    {
        type            processor;
        value           nonuniform List<vector> 
25
(
(0.787583 -0.488845 0)
(0.66022 -0.391207 0)
(0.588818 -0.313818 0)
(0.532491 -0.261738 0)
(0.481781 -0.216386 0)
(0.434761 -0.176083 0)
(0.396056 -0.145923 0)
(0.36146 -0.120352 0)
(0.329876 -0.102652 0)
(0.301394 -0.0875426 0)
(0.27519 -0.0754615 0)
(0.250642 -0.0649617 0)
(0.22746 -0.0559827 0)
(0.205519 -0.0481033 0)
(0.184666 -0.0411532 0)
(0.164776 -0.0348975 0)
(0.145702 -0.029295 0)
(0.12748 -0.0241573 0)
(0.109861 -0.0193871 0)
(0.0926681 -0.0151072 0)
(0.0764464 -0.0111558 0)
(0.0613111 -0.00610174 0)
(0.045262 -0.00282271 0)
(0.0301673 0.0026711 0)
(0.00343695 0.00474048 0)
)
;
    }
}


// ************************************************************************* //
