/*--------------------------------*- C++ -*----------------------------------*\
| =========                 |                                                 |
| \\      /  F ield         | OpenFOAM: The Open Source CFD Toolbox           |
|  \\    /   O peration     | Version:  2.4.0                                 |
|   \\  /    A nd           | Web:      www.OpenFOAM.org                      |
|    \\/     M anipulation  |                                                 |
\*---------------------------------------------------------------------------*/
FoamFile
{
    version     2.0;
    format      ascii;
    class       volScalarField;
    location    "0.7";
    object      alpha.oil;
}
// * * * * * * * * * * * * * * * * * * * * * * * * * * * * * * * * * * * * * //

dimensions      [0 0 0 0 0 0 0];

internalField   nonuniform List<scalar> 
575
(
2.0305e-17
1.1954e-16
1.67227e-16
5.14133e-16
8.24728e-16
7.43635e-16
2.37951e-15
1.8508e-15
2.67386e-15
2.86372e-15
1.36993e-14
1.67357e-13
1.59801e-12
1.12242e-11
4.83259e-11
1.617e-10
5.21369e-10
1.95806e-09
4.74435e-09
1.21349e-08
2.01991e-07
3.23984e-06
2.46932e-16
1.37848e-15
3.11568e-15
5.89664e-15
9.06792e-15
1.19103e-14
6.03473e-14
5.51351e-14
6.57838e-14
5.17623e-14
5.00528e-14
2.90276e-13
2.76677e-12
1.58457e-11
5.46936e-11
1.34438e-10
8.07227e-10
4.00558e-09
9.59933e-09
2.26728e-08
1.53062e-07
3.36665e-06
1.47847e-15
8.19722e-15
2.83541e-14
3.54622e-14
5.77432e-14
1.38387e-13
7.63963e-13
7.20948e-13
7.3154e-13
5.47165e-13
3.03042e-13
3.54665e-13
2.14051e-12
1.31351e-11
5.15736e-11
1.45466e-10
1.28724e-09
5.54047e-09
1.57033e-08
2.92308e-08
5.86508e-08
9.06092e-07
5.92714e-15
3.53084e-14
1.59443e-13
1.46624e-13
3.73223e-13
1.68099e-12
6.69327e-12
6.45661e-12
6.49658e-12
5.65466e-12
3.21806e-12
1.34092e-12
2.33958e-12
1.28527e-11
4.45388e-11
2.33385e-10
2.35136e-09
8.44601e-09
3.48001e-08
6.76152e-08
1.73682e-07
1.08693e-06
1.84812e-14
1.3286e-13
6.00695e-13
4.70515e-13
3.29824e-12
1.52538e-11
3.88587e-11
3.21393e-11
3.36239e-11
4.23868e-11
1.46231e-11
4.12449e-12
3.81204e-12
1.61291e-11
4.86039e-11
2.76768e-10
4.44189e-09
1.694e-08
7.65135e-08
2.30272e-07
7.85743e-07
2.74435e-06
5.28709e-14
4.77472e-13
1.67427e-12
1.57931e-12
3.15762e-11
1.74629e-10
8.36691e-10
8.79483e-10
1.17735e-09
2.89382e-10
2.41589e-11
1.85259e-10
1.75942e-09
1.22363e-09
1.12787e-09
2.97663e-09
1.6783e-08
9.6425e-08
3.71931e-07
1.30726e-06
2.24229e-06
4.44399e-06
1.60495e-13
1.84412e-12
3.17519e-12
2.59899e-12
2.58947e-10
2.4149e-08
7.97372e-09
7.06803e-09
2.29975e-08
9.45398e-09
4.80043e-10
1.22855e-09
3.08197e-08
9.43811e-08
1.05178e-07
3.44643e-07
3.45241e-06
7.46802e-06
6.41153e-06
3.24245e-06
3.15876e-06
4.15642e-06
6.40823e-13
5.5986e-12
2.99354e-12
2.7923e-12
2.41485e-09
7.40584e-07
3.36076e-08
8.99324e-09
9.71583e-08
1.56562e-07
3.22452e-08
1.18195e-09
7.24668e-08
7.09098e-07
3.03403e-06
2.00162e-05
5.91749e-05
9.04002e-05
5.16003e-05
3.12335e-06
3.12335e-06
3.12335e-06
3.87873e-12
2.23028e-10
3.00732e-07
6.04279e-07
1.42329e-06
1.85058e-05
2.67621e-05
2.91236e-05
1.2162e-05
4.3402e-06
1.17347e-06
3.08758e-07
1.51235e-07
8.61412e-07
1.26982e-05
6.35381e-05
0.000151799
0.000343675
0.000734712
0.0013217
0.00214012
0.00304787
4.23465e-10
9.66816e-08
9.16091e-06
0.000182999
0.000452296
0.00359784
0.00321369
0.00213085
0.00100536
0.000482674
0.000227419
0.000121619
2.59217e-05
2.91024e-06
3.10756e-06
4.44326e-06
5.32884e-05
0.000777465
0.00522267
0.0163945
0.0281005
0.0374249
1.4345e-08
3.84179e-05
0.00635518
0.0312462
0.0460285
0.114542
0.105672
0.0580003
0.0265055
0.0125807
0.0056628
0.00239494
0.000619347
0.000218552
0.000106878
0.000646297
0.00259668
0.0112667
0.0329509
0.0803401
0.136197
0.185278
1.88515e-05
0.00908615
0.180406
0.385485
0.537336
0.6912
0.631264
0.472056
0.359596
0.262485
0.185389
0.117849
0.0478407
0.0184055
0.0288596
0.0935437
0.137074
0.212479
0.287043
0.342467
0.401911
0.426893
0.00251495
0.129182
0.609071
0.893622
0.894288
0.894344
0.894288
0.88768
0.856644
0.81474
0.779857
0.730438
0.639318
0.581
0.580679
0.58036
0.536979
0.488901
0.418136
0.318041
0.168
0.0643193
0.0124896
0.185242
0.426387
0.322948
0.150168
0.135211
0.317029
0.534602
0.641098
0.677707
0.653207
0.594098
0.558121
0.536469
0.452457
0.326541
0.174925
0.033668
0.00388563
5.48763e-05
2.48837e-06
3.89597e-06
0.00284187
0.0166647
0.0239552
0.00861848
0.00114355
0.000392496
5.27007e-07
7.33786e-05
0.00149116
0.00638418
0.00575756
6.36829e-05
0.000146256
0.000115656
2.22515e-05
4.4984e-06
1.25795e-06
3.09595e-07
1.17301e-07
8.33424e-08
4.00951e-07
1.57404e-06
5.8377e-05
0.000143924
0.000125292
2.34688e-05
5.05109e-07
8.29966e-08
1.25173e-08
6.8947e-08
5.65182e-07
4.66108e-06
1.98452e-06
7.7303e-08
2.71664e-08
2.715e-08
2.71592e-08
7.1562e-08
2.22854e-07
1.56413e-07
1.15391e-07
6.17254e-08
2.57143e-07
8.37928e-07
1.38705e-07
1.61578e-07
2.87588e-07
3.76347e-07
1.59209e-07
3.35547e-08
1.24859e-08
2.02995e-08
3.89337e-08
2.3105e-08
2.31048e-08
2.31045e-08
3.17167e-08
9.94691e-08
1.74836e-07
1.89203e-07
1.98466e-07
1.66633e-07
9.7988e-08
5.83824e-08
1.14655e-07
3.73418e-07
8.68622e-07
3.86691e-08
3.54473e-08
7.09228e-08
9.70237e-08
2.17657e-08
1.98509e-09
1.32784e-08
4.5179e-08
3.57228e-08
2.31045e-08
2.31045e-08
2.31045e-08
5.68038e-08
2.27112e-07
3.06912e-07
3.9603e-07
3.85664e-07
3.83051e-07
1.95413e-07
5.85676e-08
5.81052e-08
1.4679e-07
3.26897e-07
2.213e-08
1.23508e-08
1.6937e-08
1.48915e-08
1.88104e-09
1.22771e-09
1.26243e-08
5.40487e-08
5.40184e-08
3.56559e-08
2.91622e-08
3.5236e-08
6.5578e-08
2.29275e-07
3.62998e-07
3.63026e-07
2.75114e-07
2.16264e-07
1.33927e-07
6.45722e-08
5.79592e-08
6.2553e-08
1.68011e-07
1.32698e-08
5.0721e-09
2.96749e-09
1.02015e-09
5.41847e-11
2.80895e-10
5.92423e-09
2.88256e-08
3.16516e-08
5.81687e-08
7.5984e-08
7.59872e-08
5.097e-08
8.03846e-08
1.88445e-07
5.73777e-08
3.26251e-08
3.77071e-08
5.7444e-08
8.20963e-08
7.46864e-08
6.47518e-08
4.86106e-08
5.94717e-09
1.71508e-09
5.47859e-10
4.52278e-11
1.64621e-11
2.09097e-11
4.89471e-10
5.76018e-09
1.59382e-08
5.55892e-08
6.74932e-08
3.21389e-08
3.96057e-08
3.26491e-08
3.94334e-08
3.82559e-08
3.5212e-08
2.53054e-08
3.25152e-08
4.98732e-08
5.72809e-08
4.28091e-08
2.34166e-08
1.53696e-09
4.20185e-10
1.89731e-11
7.48233e-12
8.74762e-12
1.45188e-11
4.8232e-11
7.14837e-10
3.81224e-09
2.20118e-08
1.62576e-08
8.087e-09
1.9609e-08
2.793e-08
4.37835e-08
8.50736e-08
5.77904e-08
2.45131e-08
1.76838e-08
2.23217e-08
2.58895e-08
1.84223e-08
1.34203e-08
2.43232e-10
1.65495e-11
3.09857e-12
2.75982e-12
5.53715e-12
1.00419e-11
2.52366e-11
6.85032e-11
2.24039e-10
1.22349e-09
9.44374e-10
6.31996e-09
1.32951e-08
3.83024e-08
1.00903e-07
1.22571e-07
6.18182e-08
3.98486e-08
1.17868e-08
1.02752e-08
1.08808e-08
8.08926e-09
6.49657e-09
5.75694e-12
1.77333e-12
5.49083e-13
1.28081e-12
3.18128e-12
6.0431e-12
1.55014e-11
4.72434e-11
1.13501e-10
2.13024e-10
4.60871e-10
2.77616e-09
8.94473e-09
4.52489e-08
1.22666e-07
1.22671e-07
9.44401e-08
3.46714e-08
1.86156e-08
6.57888e-09
4.49134e-09
3.7137e-09
2.92707e-09
8.19773e-13
1.83101e-13
1.31823e-13
5.68896e-13
1.49715e-12
3.09772e-12
8.94939e-12
2.97865e-11
7.97022e-11
1.79746e-10
2.8328e-10
9.49555e-10
7.35164e-09
4.09354e-08
9.97331e-08
1.05559e-07
6.55385e-08
4.45701e-08
1.83123e-08
7.54564e-09
3.05275e-09
1.77135e-09
1.49897e-09
9.45436e-14
1.83437e-14
4.1781e-14
2.11928e-13
5.72922e-13
1.37876e-12
4.76209e-12
1.73042e-11
4.94858e-11
1.24402e-10
1.73548e-10
5.09031e-10
7.29504e-09
3.04688e-08
4.62299e-08
6.17121e-08
)
;

boundaryField
{
    leftWall
    {
        type            zeroGradient;
    }
    rightWall
    {
        type            zeroGradient;
    }
    lowerWall
    {
        type            zeroGradient;
    }
    atmosphere
    {
        type            inletOutlet;
        inletValue      nonuniform 0();
        value           nonuniform 0();
    }
    defaultFaces
    {
        type            empty;
    }
    procBoundary0to1
    {
        type            processor;
        value           nonuniform List<scalar> 
26
(
9.18156e-06
1.23657e-05
1.16902e-05
1.14078e-05
1.23522e-05
1.35261e-05
1.00386e-05
3.12335e-06
0.00285711
0.0414663
0.219917
0.438678
0.0174335
0.00019814
7.67005e-06
2.02571e-06
2.02571e-06
2.00014e-06
6.1964e-07
2.50834e-07
9.22406e-08
2.25067e-08
1.53644e-08
9.27165e-09
5.25983e-09
2.0579e-09
)
;
    }
    procBoundary0to2
    {
        type            processor;
        value           nonuniform List<scalar> 
24
(
5.5704e-08
3.14789e-08
1.68251e-08
7.94044e-09
2.83332e-09
1.11143e-09
6.90262e-10
8.66572e-15
2.22248e-15
1.25971e-14
6.31947e-14
1.83331e-13
5.63068e-13
2.37205e-12
9.34759e-12
2.81428e-11
6.96875e-11
1.00489e-10
2.43541e-10
5.05841e-09
1.56435e-08
2.57034e-08
5.5704e-08
2.94091e-08
)
;
    }
}


// ************************************************************************* //
