/*--------------------------------*- C++ -*----------------------------------*\
| =========                 |                                                 |
| \\      /  F ield         | OpenFOAM: The Open Source CFD Toolbox           |
|  \\    /   O peration     | Version:  2.4.0                                 |
|   \\  /    A nd           | Web:      www.OpenFOAM.org                      |
|    \\/     M anipulation  |                                                 |
\*---------------------------------------------------------------------------*/
FoamFile
{
    version     2.0;
    format      ascii;
    class       volScalarField;
    location    "0.7";
    object      alphas;
}
// * * * * * * * * * * * * * * * * * * * * * * * * * * * * * * * * * * * * * //

dimensions      [0 0 0 0 0 0 0];

internalField   nonuniform List<scalar> 
575
(
2
2
2
2
2
2
2
2
2
2
2
2
2
2
2
2
2
2
2
2
2
2
1.99992
1.9999
1.99995
1.99993
1.99991
1.99996
1.99998
2
2
2
2
2
2
2
2
2
2
2
2
2
2
2
1.95172
1.94887
1.95778
1.95355
1.95376
1.96504
1.97618
1.98981
1.99785
1.99966
1.99996
1.99999
2
2
2
2
2
2
2
2
2
2
0.812719
0.806959
0.828545
0.817367
0.823814
0.860673
0.92429
1.03022
1.20394
1.4884
1.90076
1.99712
1.99995
2
2
2
2
2
2
2
2
2
0.000263127
0.000252379
0.000260002
0.000243696
0.000230049
0.000224681
0.000234122
0.000288659
0.00232983
0.0697185
0.504567
1.46695
1.97644
1.99938
1.99992
1.99998
2
2
2
2
2
2
1.01957e-05
1.00694e-05
1.00601e-05
1.00694e-05
1.00601e-05
1.0077e-05
1.00704e-05
1.00926e-05
1.00948e-05
0.000136192
0.0125145
0.316572
1.59374
1.98765
1.99944
1.99991
1.99996
1.99998
1.99998
1.99999
1.99999
1.99998
1.42725e-05
1.35512e-05
1.24992e-05
1.2088e-05
1.05609e-05
1.01263e-05
1.01192e-05
1.00995e-05
1.01182e-05
1.02065e-05
0.000202628
0.0565752
0.892282
1.89945
1.99615
1.99955
1.9998
1.99988
1.99967
1.99911
1.99626
1.99434
1.47641e-05
1.37026e-05
1.16186e-05
1.1403e-05
1.04498e-05
9.42923e-06
1.0238e-05
1.07209e-05
1.10864e-05
1.22265e-05
6.78849e-05
0.0187495
0.414444
1.54243
1.97579
1.99592
1.99584
1.98513
1.94788
1.90529
1.82725
1.80237
6.42587e-06
5.59255e-06
5.19802e-06
5.22546e-06
5.62181e-06
2.13784e-05
3.0211e-05
3.29923e-05
1.67398e-05
1.19435e-05
1.83952e-05
0.00201393
0.06732
0.408695
1.02904
1.40382
1.44775
1.32209
1.06072
0.849442
0.694547
0.685375
2.1429e-06
1.99923e-06
1.03867e-05
0.000183802
0.000452861
0.00359819
0.00321408
0.00213143
0.00100623
0.000484211
0.000231172
0.000278871
0.0019951
0.0197707
0.0449912
0.0332913
0.0414478
0.0676579
0.0685287
0.063445
0.0558936
0.0526362
2.55014e-06
4.05649e-05
0.00635735
0.0312481
0.0460299
0.114544
0.105673
0.0580007
0.0265056
0.0125809
0.00566306
0.00239654
0.00078132
0.000502309
0.000613725
0.000938991
0.0028797
0.0115893
0.0333376
0.0813098
0.138539
0.189765
2.12786e-05
0.00910543
0.180452
0.385539
0.537376
0.691219
0.63127
0.472056
0.359596
0.262485
0.185389
0.117849
0.0478416
0.0184073
0.0289465
0.0940894
0.138542
0.22272
0.342724
0.496054
0.704182
0.946898
0.00296527
0.129635
0.610292
0.941104
1.09329
1.02262
0.915248
0.888275
0.856688
0.814743
0.779864
0.731078
0.654255
0.623719
0.667012
0.748014
0.797887
1.18234
1.62091
2.07426
2.56615
2.84525
1.58751
1.57831
1.77668
2.32597
2.69894
2.72867
2.36537
1.92773
1.69722
1.59416
1.63486
1.78266
1.87358
1.91108
2.07631
2.32875
2.63837
2.93075
2.99191
2.99985
2.99998
2.99999
2.95082
2.93552
2.943
2.98235
2.99771
2.99921
3
2.99985
2.99701
2.98718
2.98842
2.99987
2.9997
2.99976
2.99995
2.99999
2.99999
2.99999
2.99999
2.99999
2.99999
2.99999
2.99981
2.99963
2.99972
2.99995
3
3
3
3
3
2.99999
2.99999
3
3
3
3
3
3
3
3
2.99999
2.99999
2.99999
3
3
3
3
3
3
3
3
3
3
3
3
3
3
3
3
3
3
3
3
3
2.99999
3
3
3
3
3
3
3
3
3
3
3
3
3
3
3
3
3
3
3
3
3
3
3
2.99999
3
3
3
3
3
3
3
3
3
3
3
3
3
3
3
3
3
3
3
3
3
3
2.99999
3
3
3
3
3
3
3
3
3
3
3
3
3
3
3
3
3
3
3
3
3
3
2.99999
3
3
3
3
3
3
3
3
3
3
3
3
3
3
3
3
3
3
3
3
3
3
3
3
3
3
3
3
3
3
3
3
3
3
3
3
3
3
3
3
3
3
3
3
3
3
3
3
3
3
3
3
3
3
3
3
3
3
3
3
3
3
3
3
3
3
3
3
3
3
3
3
3
3
3
3
3
3
3
3
3
3
3
3
3
3
3
3
3
3
3
3
3
3
3
3
3
3
3
3
3
3
3
3
3
3
3
3
3
3
3
3
3
3
3
3
3
3
3
3
3
3
3
3
3
3
3
3
3
3
3
)
;

boundaryField
{
    leftWall
    {
        type            zeroGradient;
    }
    rightWall
    {
        type            zeroGradient;
    }
    lowerWall
    {
        type            zeroGradient;
    }
    atmosphere
    {
        type            zeroGradient;
    }
    defaultFaces
    {
        type            empty;
    }
    procBoundary0to1
    {
        type            processor;
        value           nonuniform List<scalar> 
26
(
1.99999
1.99999
1.99999
1.99999
1.99999
1.99999
1.99924
1.92541
0.941112
0.0549856
0.224234
1.11861
2.95851
2.99959
2.99999
3
3
3
3
2.99999
2.99999
3
3
3
3
2.99999
)
;
    }
    procBoundary0to2
    {
        type            processor;
        value           nonuniform List<scalar> 
24
(
3
3
3
3
3
3
3
3
3
3
3
3
3
3
3
3
3
3
3
3
3
3
3
3
)
;
    }
}


// ************************************************************************* //
