/*--------------------------------*- C++ -*----------------------------------*\
| =========                 |                                                 |
| \\      /  F ield         | OpenFOAM: The Open Source CFD Toolbox           |
|  \\    /   O peration     | Version:  2.4.0                                 |
|   \\  /    A nd           | Web:      www.OpenFOAM.org                      |
|    \\/     M anipulation  |                                                 |
\*---------------------------------------------------------------------------*/
FoamFile
{
    version     2.0;
    format      ascii;
    class       volScalarField;
    location    "0.7";
    object      alpha.air;
}
// * * * * * * * * * * * * * * * * * * * * * * * * * * * * * * * * * * * * * //

dimensions      [0 0 0 0 0 0 0];

internalField   nonuniform List<scalar> 
575
(
3.53129e-12
4.36589e-12
2.53289e-12
4.04741e-12
4.68376e-12
3.31892e-12
2.55012e-12
1.85594e-12
1.77457e-12
1.54052e-12
1.01408e-12
5.47971e-13
2.52966e-13
1.16612e-13
7.30421e-14
4.98292e-14
3.05115e-14
1.69944e-14
1.0339e-14
1.0719e-14
9.19257e-15
2.54071e-15
2.78091e-11
3.17452e-11
2.32844e-11
3.03295e-11
3.30242e-11
2.65197e-11
2.20859e-11
1.79561e-11
1.61854e-11
1.2975e-11
8.38024e-12
4.36762e-12
1.82212e-12
7.81803e-13
4.41827e-13
2.87707e-13
1.74631e-13
1.03679e-13
7.06449e-14
7.52682e-14
6.4232e-14
1.98632e-14
9.51378e-11
1.07112e-10
9.19607e-11
1.05573e-10
1.09583e-10
9.24214e-11
7.59076e-11
5.9261e-11
4.54923e-11
3.46946e-11
2.39068e-11
1.49138e-11
7.78624e-12
3.56823e-12
1.76555e-12
9.7908e-13
5.40569e-13
3.29615e-13
2.63879e-13
2.89217e-13
2.37175e-13
8.83851e-14
2.37846e-10
2.46453e-10
2.46156e-10
2.56064e-10
2.55886e-10
2.46482e-10
2.42405e-10
2.41247e-10
2.39715e-10
2.37748e-10
1.7423e-10
4.63836e-11
1.53435e-11
6.9323e-12
3.47651e-12
2.04295e-12
1.22156e-12
8.22732e-13
7.02274e-13
6.85422e-13
5.11855e-13
2.1883e-13
5.67159e-11
6.40027e-11
5.78137e-11
7.78391e-11
8.6116e-11
6.56002e-11
6.56067e-11
6.56087e-11
6.56206e-11
7.66743e-11
1.63538e-10
1.60942e-10
6.90819e-11
2.15999e-11
8.94252e-12
4.17314e-12
2.43187e-12
1.65788e-12
1.39027e-12
1.17602e-12
8.03021e-13
4.09862e-13
5.67157e-11
5.68824e-11
5.78167e-11
6.65422e-11
5.94281e-11
6.92031e-11
9.76663e-11
1.14932e-10
1.52874e-10
1.59541e-10
1.09112e-10
1.18674e-10
1.09513e-10
3.75635e-11
1.2048e-11
6.30475e-12
3.90682e-12
2.85741e-12
2.29537e-12
1.64849e-12
1.06565e-12
6.50748e-13
5.6658e-11
5.69229e-11
5.86828e-11
6.03278e-11
7.41063e-11
4.82116e-10
2.12244e-10
2.81563e-10
6.44495e-10
7.83513e-10
3.96697e-10
1.34329e-10
9.60504e-11
3.58467e-11
1.42949e-11
8.63758e-12
5.74814e-12
4.74612e-12
2.9462e-12
1.83538e-12
1.20728e-12
8.52624e-13
5.68841e-11
5.71187e-11
1.42367e-10
6.05719e-11
3.52537e-10
2.34599e-09
7.78372e-10
6.43656e-10
9.48614e-10
1.33013e-09
1.44575e-09
6.54421e-10
1.65386e-10
4.49854e-11
9.36402e-12
7.46582e-12
4.14537e-12
1.6435e-12
1.45133e-12
1.2584e-12
1.0643e-12
8.67839e-13
4.56848e-08
4.86483e-08
4.82579e-08
1.46703e-08
7.79837e-09
5.751e-09
2.09721e-09
8.70649e-10
9.65761e-10
1.81909e-09
2.63417e-09
2.51289e-09
1.26382e-09
1.02436e-09
1.2066e-09
6.24006e-10
1.57343e-10
4.21017e-10
1.64294e-08
1.84333e-07
7.36188e-07
1.57559e-06
3.96486e-07
3.46437e-07
1.87014e-07
8.78591e-08
3.29696e-08
2.17136e-08
8.47848e-09
3.12063e-09
1.57808e-09
1.51892e-09
1.79127e-09
2.30869e-09
2.75942e-09
3.12366e-09
2.87837e-09
2.70775e-09
4.63822e-09
1.43605e-07
2.8106e-06
1.73111e-05
3.7369e-05
3.43759e-05
7.91718e-07
6.80863e-07
7.08197e-07
6.38378e-07
4.52092e-07
8.05692e-07
4.20758e-07
1.35623e-07
2.79407e-08
8.27248e-09
3.46753e-09
2.2725e-09
2.42191e-09
3.37819e-09
4.41967e-09
2.463e-08
1.52948e-07
2.61929e-06
3.96712e-05
0.000267036
0.000751407
0.00147971
8.05245e-07
6.42633e-06
1.54509e-05
1.80545e-05
1.3075e-05
6.30372e-06
1.96549e-06
1.27238e-07
5.05718e-08
3.07935e-08
1.18722e-08
2.39012e-09
2.39898e-09
2.40921e-09
2.2876e-05
0.00017758
0.000483606
0.00340798
0.018555
0.0511912
0.100754
0.173333
0.000150106
0.000151156
0.00040682
0.0158274
0.0663328
0.0427599
0.00698651
0.000198484
1.46182e-05
8.46876e-07
2.388e-06
0.000213199
0.00497905
0.0142397
0.0287777
0.0558845
0.0869692
0.231146
0.400926
0.585406
0.799383
0.926978
0.525008
0.464357
0.450098
0.667674
0.84959
0.864486
0.682782
0.464375
0.352041
0.305485
0.327217
0.396189
0.438486
0.458205
0.541286
0.667403
0.821149
0.965693
0.996009
0.999931
0.999993
0.999994
0.982661
0.972952
0.973016
0.991245
0.998855
0.999607
0.999999
0.999926
0.998507
0.993599
0.994222
0.999936
0.999853
0.999883
0.999976
0.999994
0.999997
0.999997
0.999997
0.999997
0.999996
0.999997
0.999917
0.999828
0.999866
0.999976
0.999999
0.999999
0.999999
1
0.999999
0.999995
0.999998
0.999999
0.999999
0.999999
0.999999
1
0.999999
0.999999
0.999999
0.999998
0.999998
0.999998
0.999999
0.999999
0.999999
0.999999
0.999999
0.999999
0.999999
0.999999
1
1
1
0.999999
0.999999
0.999999
0.999999
0.999999
0.999999
0.999999
0.999999
0.999999
0.999999
0.999998
0.999999
0.999999
0.999999
0.999999
0.999999
0.999999
0.999999
0.999999
1
1
1
1
1
0.999999
0.999999
0.999999
0.999999
0.999999
0.999999
0.999999
1
0.999999
0.999998
0.999998
0.999999
0.999999
0.999999
0.999999
0.999999
0.999999
0.999999
1
1
1
1
1
0.999999
0.999999
0.999999
0.999999
0.999999
0.999999
0.999999
1
1
0.999999
0.999998
0.999999
0.999999
0.999999
0.999999
0.999999
0.999999
0.999999
1
1
1
1
1
0.999999
0.999999
0.999999
1
1
1
1
1
1
0.999999
0.999998
0.999999
0.999998
0.999999
0.999999
0.999999
0.999999
0.999999
1
1
1
1
1
1
0.999999
1
1
1
1
1
1
1
0.999999
0.999999
0.999998
0.999999
0.999999
0.999999
0.999999
0.999999
1
1
1
1
1
1
0.999999
1
0.999999
1
1
1
1
1
1
1
0.999999
0.999999
0.999999
0.999999
0.999999
0.999999
0.999999
1
1
1
1
1
1
1
0.999999
1
1
1
1
1
1
1
0.999999
0.999999
0.999999
0.999999
0.999999
0.999999
0.999999
1
1
1
1
1
1
1
0.999999
0.999999
1
1
1
0.999999
1
1
0.999999
0.999999
0.999999
0.999999
0.999999
0.999999
0.999999
0.999999
1
1
1
1
1
1
1
0.999999
0.999999
1
1
1
1
1
1
0.999999
0.999999
0.999999
0.999999
0.999999
0.999999
0.999999
1
1
1
1
1
1
1
1
0.999999
0.999999
0.999999
1
)
;

boundaryField
{
    leftWall
    {
        type            alphaContactAngle;
        thetaProperties 
6
(

(
water
mercury
)
 90 0 0 0

(
water
air
)
 90 0 0 0

(
water
oil
)
 90 0 0 0

(
mercury
air
)
 90 0 0 0

(
oil
mercury
)
 90 0 0 0

(
oil
air
)
 90 0 0 0
);
        value           nonuniform List<scalar> 
26
(
3.53129e-12
2.78091e-11
9.51378e-11
2.37846e-10
5.67159e-11
5.67157e-11
5.6658e-11
5.68841e-11
4.56848e-08
3.96486e-07
7.91718e-07
8.05245e-07
0.000150106
0.525008
0.982661
0.999917
0.999999
0.999999
0.999999
0.999999
0.999999
0.999998
0.999999
0.999999
0.999999
0.999999
)
;
    }
    rightWall
    {
        type            alphaContactAngle;
        thetaProperties 
6
(

(
water
mercury
)
 90 0 0 0

(
water
air
)
 90 0 0 0

(
water
oil
)
 90 0 0 0

(
mercury
air
)
 90 0 0 0

(
oil
mercury
)
 90 0 0 0

(
oil
air
)
 90 0 0 0
);
        value           nonuniform 0();
    }
    lowerWall
    {
        type            alphaContactAngle;
        thetaProperties 
6
(

(
water
mercury
)
 90 0 0 0

(
water
air
)
 90 0 0 0

(
water
oil
)
 90 0 0 0

(
mercury
air
)
 90 0 0 0

(
oil
mercury
)
 90 0 0 0

(
oil
air
)
 90 0 0 0
);
        value           nonuniform List<scalar> 
22
(
3.53129e-12
4.36589e-12
2.53289e-12
4.04741e-12
4.68376e-12
3.31892e-12
2.55012e-12
1.85594e-12
1.77457e-12
1.54052e-12
1.01408e-12
5.47971e-13
2.52966e-13
1.16612e-13
7.30421e-14
4.98292e-14
3.05115e-14
1.69944e-14
1.0339e-14
1.0719e-14
9.19257e-15
2.54071e-15
)
;
    }
    atmosphere
    {
        type            inletOutlet;
        inletValue      nonuniform 0();
        value           nonuniform 0();
    }
    defaultFaces
    {
        type            empty;
    }
    procBoundary0to1
    {
        type            processor;
        value           nonuniform List<scalar> 
26
(
2.48907e-15
1.31242e-14
3.40111e-14
6.16476e-14
1.06599e-13
2.22175e-13
4.58916e-13
6.63947e-13
1.2392e-06
2.55774e-05
0.00142642
0.226643
0.980359
0.999798
0.999995
0.999999
0.999999
0.999999
0.999999
0.999998
0.999998
0.999998
0.999999
0.999998
0.999999
0.999998
)
;
    }
    procBoundary0to2
    {
        type            processor;
        value           nonuniform List<scalar> 
24
(
1
1
1
1
0.999999
0.999999
0.999999
0.999999
0.999999
0.999999
0.999999
1
1
1
1
1
1
1
1
0.999999
0.999999
1
1
0.999999
)
;
    }
}


// ************************************************************************* //
