/*--------------------------------*- C++ -*----------------------------------*\
| =========                 |                                                 |
| \\      /  F ield         | OpenFOAM: The Open Source CFD Toolbox           |
|  \\    /   O peration     | Version:  2.4.0                                 |
|   \\  /    A nd           | Web:      www.OpenFOAM.org                      |
|    \\/     M anipulation  |                                                 |
\*---------------------------------------------------------------------------*/
FoamFile
{
    version     2.0;
    format      ascii;
    class       volScalarField;
    location    "0.7";
    object      alpha.water;
}
// * * * * * * * * * * * * * * * * * * * * * * * * * * * * * * * * * * * * * //

dimensions      [0 0 0 0 0 0 0];

internalField   nonuniform List<scalar> 
575
(
2.53959e-08
2.41536e-08
1.30679e-08
1.64171e-08
1.9562e-08
1.6408e-08
1.55497e-08
1.50343e-08
1.76891e-08
2.01209e-08
1.74866e-08
1.41357e-08
9.71953e-09
8.49817e-09
8.17254e-09
7.4285e-09
5.0012e-09
3.33118e-09
3.00906e-09
3.37055e-09
2.41459e-09
9.32837e-10
3.95629e-05
4.89687e-05
2.47564e-05
3.72312e-05
4.25346e-05
2.08001e-05
9.10013e-06
2.16774e-06
7.31548e-07
4.14147e-07
1.95006e-07
6.513e-08
3.91633e-08
3.48759e-08
3.19804e-08
2.72818e-08
2.1196e-08
1.48506e-08
1.11317e-08
1.07447e-08
8.73676e-09
1.56681e-09
0.0241376
0.0255663
0.0211081
0.0232254
0.0231203
0.0174778
0.0119101
0.00509425
0.00107694
0.000167537
2.20701e-05
2.70136e-06
6.08372e-07
4.62323e-07
2.69903e-07
1.01289e-07
4.72325e-08
3.34574e-08
3.25092e-08
4.23524e-08
3.57563e-08
9.68616e-09
0.59364
0.59652
0.585727
0.591316
0.588093
0.569664
0.537855
0.48489
0.398029
0.255799
0.0496175
0.00143769
2.71429e-05
1.78872e-06
5.41509e-07
2.38092e-07
1.54318e-07
1.40658e-07
1.73635e-07
2.35958e-07
1.45752e-07
4.78407e-08
0.999868
0.999874
0.99987
0.999878
0.999885
0.999887
0.999883
0.999855
0.998835
0.965141
0.747717
0.266523
0.0117811
0.000308533
3.81898e-05
9.58692e-06
1.98503e-06
7.0625e-07
8.30434e-07
1.01355e-06
4.5945e-07
1.28862e-07
0.999995
0.999995
0.999995
0.999995
0.999995
0.999995
0.999995
0.999995
0.999995
0.999932
0.993743
0.841714
0.203128
0.00617652
0.000278143
4.71173e-05
1.7722e-05
1.10975e-05
8.28714e-06
4.75551e-06
4.00906e-06
7.23793e-06
0.999993
0.999993
0.999994
0.999994
0.999995
0.999995
0.999995
0.999995
0.999995
0.999995
0.999899
0.971712
0.553859
0.0502758
0.00192293
0.000226229
9.85277e-05
5.8405e-05
0.000161575
0.000442158
0.00186714
0.00282984
0.999993
0.999993
0.999994
0.999994
0.999995
0.999995
0.999995
0.999995
0.999994
0.999994
0.999966
0.990625
0.792778
0.228786
0.0121036
0.00203026
0.00205128
0.00738826
0.0260324
0.0473544
0.0863719
0.0988152
0.999997
0.999997
0.999997
0.999997
0.999996
0.99998
0.999971
0.999969
0.999986
0.999992
0.99999
0.998993
0.96634
0.795652
0.485473
0.29806
0.276048
0.338782
0.469275
0.574618
0.651657
0.655789
0.999999
0.999999
0.99999
0.999817
0.999547
0.996402
0.996786
0.997869
0.998994
0.999517
0.999771
0.9998
0.998989
0.990113
0.977503
0.983352
0.979249
0.965782
0.963126
0.960089
0.958022
0.954987
0.999999
0.999961
0.993644
0.968753
0.953971
0.885457
0.894328
0.942
0.973494
0.987419
0.994337
0.997604
0.9993
0.99964
0.99964
0.999207
0.997262
0.988573
0.966876
0.919308
0.863008
0.813218
0.99998
0.990907
0.819579
0.614497
0.46265
0.308793
0.368734
0.527944
0.640404
0.737515
0.814612
0.882151
0.952159
0.981594
0.971108
0.906272
0.862434
0.784104
0.694394
0.606335
0.49733
0.39977
0.997335
0.870667
0.390522
0.0905503
0.0393792
0.0628958
0.0987254
0.112121
0.143342
0.185259
0.22014
0.269349
0.355703
0.40476
0.390543
0.363755
0.376051
0.279952
0.180937
0.0965516
0.0326153
0.00870052
0.462502
0.3504
0.123514
0.00937794
0.000241632
0.000302699
0.000188919
0.00102275
0.00686076
0.0168075
0.0195762
0.00971247
0.00339221
0.00532511
0.0062566
0.00605534
0.00392488
0.000637479
0.000102098
1.02889e-05
1.03274e-06
2.02051e-07
0.0144966
0.0103828
0.00302826
0.000135732
9.26087e-07
3.71109e-08
1.13469e-09
7.31843e-09
1.45869e-06
1.7073e-05
1.95829e-05
2.90893e-07
5.26096e-07
7.89511e-07
8.40727e-07
2.82115e-07
4.45668e-08
7.35259e-09
3.98199e-09
1.98713e-09
2.92953e-09
1.35687e-08
2.39267e-05
2.71185e-05
7.86691e-06
4.50931e-07
1.39273e-07
2.18525e-08
1.1388e-09
5.50209e-09
3.4883e-09
2.67511e-09
2.6008e-09
2.41306e-09
2.59155e-09
9.48257e-10
5.03852e-10
1.50894e-09
5.45462e-09
1.62676e-09
2.48064e-09
1.30529e-09
1.23963e-09
5.43737e-09
1.87872e-08
1.90361e-08
2.75705e-08
3.27595e-08
2.01367e-08
6.59747e-09
1.17604e-09
5.14652e-09
5.01057e-09
2.25954e-09
2.25948e-09
2.29097e-09
3.01598e-09
1.89355e-09
4.42891e-10
9.28292e-11
2.97259e-11
1.24567e-11
9.28049e-12
2.94133e-11
5.69848e-10
1.97794e-09
4.88471e-09
1.87378e-08
1.86217e-08
1.85626e-08
1.60217e-08
3.38074e-09
3.88314e-10
9.04352e-10
5.9169e-09
6.57324e-09
3.20339e-09
2.35772e-09
3.58649e-09
5.47591e-09
3.32774e-09
6.64512e-10
1.42458e-10
2.64849e-11
1.15778e-11
7.07966e-12
6.87412e-12
6.90846e-11
7.76166e-10
1.7887e-09
3.65259e-08
3.26758e-08
2.33643e-08
1.17786e-08
1.85654e-09
3.12157e-10
1.15084e-09
5.06823e-09
5.91835e-09
3.8373e-09
2.76397e-09
4.15375e-09
5.47502e-09
1.86803e-09
1.54351e-10
3.24886e-11
1.31549e-11
5.26056e-12
3.36289e-12
3.99796e-12
8.50089e-12
1.10109e-10
7.82253e-10
5.05747e-08
3.56793e-08
1.70817e-08
3.79898e-09
1.46186e-10
1.05685e-10
5.14975e-10
2.02609e-09
3.03118e-09
3.31582e-09
5.2538e-09
6.4801e-09
4.6928e-09
6.95037e-10
1.05758e-11
1.58901e-12
6.62478e-13
5.56638e-13
8.38279e-13
1.46385e-12
2.98562e-12
6.03503e-12
1.04948e-10
4.77395e-08
2.37031e-08
8.76901e-09
4.62663e-10
3.63372e-11
3.05087e-11
5.93069e-11
4.52019e-10
1.39204e-09
3.31018e-09
4.43138e-09
2.77694e-09
4.76644e-10
8.99851e-12
8.06277e-13
1.67646e-13
7.29179e-14
8.74564e-14
2.00752e-13
4.71558e-13
1.10271e-12
2.56105e-12
6.88396e-12
2.39671e-08
1.08721e-08
9.32841e-10
2.82843e-11
1.70503e-11
1.44105e-11
1.98395e-11
6.68285e-11
3.18019e-10
1.42338e-09
1.16602e-09
3.97716e-10
1.98496e-11
1.23322e-12
1.09511e-13
1.25113e-14
8.83655e-15
1.57199e-14
4.33168e-14
1.25942e-13
3.55379e-13
9.91903e-13
3.04971e-12
6.33282e-09
9.14114e-10
2.69548e-11
1.28298e-11
7.2591e-12
6.24409e-12
8.06198e-12
1.38203e-11
1.78888e-11
9.59274e-11
4.61974e-11
2.96717e-11
3.34094e-12
4.19104e-13
3.11796e-14
1.47799e-15
1.72934e-15
3.64519e-15
9.50061e-15
2.89114e-14
9.35957e-14
3.04495e-13
1.05295e-12
1.9842e-10
1.77822e-11
9.4336e-12
4.85049e-12
2.78769e-12
2.43791e-12
3.01605e-12
4.29438e-12
5.03585e-12
8.33167e-12
7.37194e-12
4.40464e-12
9.03148e-13
1.80202e-13
2.01148e-14
9.70058e-16
3.72578e-16
8.34017e-16
2.03394e-15
5.82155e-15
1.99649e-14
7.32059e-14
2.77542e-13
6.53101e-12
5.46075e-12
2.99783e-12
1.52672e-12
9.16605e-13
8.07319e-13
9.79623e-13
1.32991e-12
1.47486e-12
2.07601e-12
1.51878e-12
8.59955e-13
2.71983e-13
6.76849e-14
9.65868e-15
5.97921e-16
7.55604e-17
1.69918e-16
4.12677e-16
1.0712e-15
3.52802e-15
1.39223e-14
5.84027e-14
2.09791e-12
1.46271e-12
7.49637e-13
3.86626e-13
2.38415e-13
2.11355e-13
2.61261e-13
3.51996e-13
3.85402e-13
4.4404e-13
3.36143e-13
1.89943e-13
7.07046e-14
1.87125e-14
2.73224e-15
1.63954e-16
)
;

boundaryField
{
    leftWall
    {
        type            zeroGradient;
    }
    rightWall
    {
        type            zeroGradient;
    }
    lowerWall
    {
        type            zeroGradient;
    }
    atmosphere
    {
        type            inletOutlet;
        inletValue      nonuniform 0();
        value           nonuniform 0();
    }
    defaultFaces
    {
        type            empty;
    }
    procBoundary0to1
    {
        type            processor;
        value           nonuniform List<scalar> 
26
(
2.81183e-10
5.72645e-10
3.00449e-09
9.40517e-09
2.28806e-08
4.24388e-07
0.000376754
0.0372931
0.528016
0.951787
0.778637
0.334676
0.00220931
6.5014e-06
5.0981e-08
1.24782e-08
1.24782e-08
5.08021e-09
2.41561e-09
1.17498e-09
4.34773e-10
4.95036e-11
1.41175e-11
4.3866e-12
1.17366e-12
2.54086e-13
)
;
    }
    procBoundary0to2
    {
        type            processor;
        value           nonuniform List<scalar> 
24
(
1.32862e-17
3.03324e-17
7.62382e-17
1.85255e-16
5.36572e-16
2.12383e-15
9.80083e-15
4.70265e-13
2.95524e-13
1.44768e-13
7.55455e-14
4.67884e-14
4.23053e-14
5.52775e-14
7.57108e-14
8.3036e-14
8.46588e-14
6.49387e-14
3.69048e-14
1.43681e-14
3.77287e-15
5.23794e-16
1.32862e-17
2.89977e-17
)
;
    }
}


// ************************************************************************* //
