/*--------------------------------*- C++ -*----------------------------------*\
| =========                 |                                                 |
| \\      /  F ield         | OpenFOAM: The Open Source CFD Toolbox           |
|  \\    /   O peration     | Version:  2.4.0                                 |
|   \\  /    A nd           | Web:      www.OpenFOAM.org                      |
|    \\/     M anipulation  |                                                 |
\*---------------------------------------------------------------------------*/
FoamFile
{
    version     2.0;
    format      ascii;
    class       volScalarField;
    location    "0.7";
    object      alpha.mercury;
}
// * * * * * * * * * * * * * * * * * * * * * * * * * * * * * * * * * * * * * //

dimensions      [0 0 0 0 0 0 0];

internalField   nonuniform List<scalar> 
575
(
1
1
1
1
1
1
1
1
1
1
1
1
1
1
1
1
1
1
1
1
1
0.999997
0.99996
0.999951
0.999975
0.999963
0.999957
0.999979
0.999991
0.999998
0.999999
0.999999
1
1
1
1
1
1
1
1
1
1
1
0.999996
0.975862
0.974434
0.978892
0.976774
0.97688
0.982522
0.98809
0.994906
0.998923
0.999832
0.999978
0.999997
0.999999
0.999999
1
1
1
1
1
1
1
0.999999
0.40636
0.40348
0.414273
0.408683
0.411907
0.430336
0.462145
0.51511
0.601971
0.744201
0.950382
0.998562
0.999973
0.999998
0.999999
1
1
1
1
1
1
0.999999
0.000131564
0.000126189
0.000130001
0.000121848
0.000115025
0.000112341
0.000117061
0.000144329
0.00116492
0.0348593
0.252283
0.733477
0.988219
0.999691
0.999962
0.99999
0.999998
0.999999
0.999999
0.999999
0.999999
0.999997
5.09775e-06
5.03462e-06
5.02994e-06
5.03462e-06
5.02994e-06
5.0383e-06
5.03463e-06
5.04567e-06
5.04657e-06
6.80956e-05
0.00625726
0.158286
0.796872
0.993824
0.999722
0.999953
0.999982
0.999989
0.999991
0.999994
0.999994
0.999988
7.13615e-06
6.7755e-06
6.24953e-06
6.04391e-06
5.28019e-06
5.05034e-06
5.05528e-06
5.04579e-06
5.04664e-06
5.09734e-06
0.000101313
0.0282876
0.446141
0.949724
0.998077
0.999773
0.999898
0.999934
0.999832
0.999555
0.99813
0.997166
7.38196e-06
6.8512e-06
5.8091e-06
5.7014e-06
5.22317e-06
4.3408e-06
5.10102e-06
5.35499e-06
5.4932e-06
6.03298e-06
3.39241e-05
0.00937474
0.207222
0.771213
0.987893
0.99795
0.99789
0.992521
0.973916
0.952642
0.913625
0.901182
3.14441e-06
2.72319e-06
2.37626e-06
2.28859e-06
2.08756e-06
1.42769e-06
1.72127e-06
1.93306e-06
2.28749e-06
3.79891e-06
8.60692e-06
0.00100681
0.0336599
0.204347
0.514514
0.701876
0.7238
0.660874
0.52999
0.42406
0.346202
0.341161
4.76509e-07
4.31618e-07
3.32372e-07
2.69864e-07
2.33353e-07
1.43334e-07
1.86177e-07
2.82125e-07
4.33013e-07
7.66234e-07
1.87391e-06
7.86227e-05
0.000984587
0.00988391
0.0224941
0.0166434
0.0206972
0.03344
0.0316488
0.0234993
0.0138405
0.00755408
8.032e-08
5.21928e-08
2.36795e-08
1.33798e-08
1.15779e-08
6.32964e-09
8.31287e-09
1.53059e-08
3.10891e-08
6.06414e-08
1.26841e-07
7.96782e-07
8.09828e-05
0.000141874
0.000253417
0.00014631
0.000141281
0.000157377
0.000133826
8.42936e-05
4.37916e-05
2.41142e-05
5.69175e-09
2.17958e-09
4.80319e-10
2.69283e-10
2.46022e-10
1.31496e-10
2.07721e-10
4.95058e-10
1.08539e-09
2.05219e-09
3.07042e-09
7.15862e-09
4.36626e-07
8.54322e-07
9.11972e-06
6.4848e-06
8.29109e-06
8.76061e-06
8.04589e-06
6.5525e-06
4.29591e-06
2.90447e-06
4.10595e-10
3.50997e-11
7.75772e-12
8.27866e-12
1.75556e-11
2.80047e-11
3.732e-11
3.85825e-11
3.88064e-11
3.90756e-11
3.38111e-11
3.03846e-11
9.72689e-11
5.62469e-10
8.20428e-09
2.49202e-08
9.47917e-08
1.38439e-07
1.41895e-07
1.24906e-07
9.30845e-08
6.69164e-08
1.2068e-11
2.2421e-11
2.49282e-12
1.87083e-12
2.01449e-12
1.68058e-12
1.22598e-12
2.06975e-12
3.72919e-12
5.80782e-12
5.50696e-12
4.05185e-12
3.60319e-12
4.18653e-12
5.1913e-12
5.51737e-12
6.35945e-12
5.85408e-12
4.41142e-12
3.02247e-12
4.32016e-12
9.73796e-12
2.92404e-12
4.40302e-12
1.87274e-12
7.82196e-13
5.34458e-13
2.82823e-13
4.45499e-14
4.71781e-14
6.45034e-14
9.11978e-13
1.82504e-12
1.94704e-12
2.44252e-12
3.78843e-12
4.17969e-12
2.68286e-12
1.55235e-12
1.4297e-12
1.89316e-12
3.03882e-12
5.72991e-12
9.27981e-12
1.21361e-12
2.58646e-12
2.20028e-12
7.76211e-13
3.38686e-13
1.26646e-13
3.83293e-14
1.07515e-13
3.7794e-13
7.05409e-13
5.91502e-13
2.44355e-13
7.65858e-14
2.76932e-13
1.02335e-12
1.31185e-12
1.43392e-12
9.94807e-13
8.29275e-13
1.44287e-12
4.87944e-12
9.06702e-12
7.45989e-13
1.46194e-12
1.61419e-12
6.48425e-13
2.42113e-13
6.0317e-14
1.41828e-14
9.44426e-15
2.36787e-13
4.77315e-13
2.90739e-13
1.5033e-14
1.43778e-14
1.34043e-14
4.72248e-15
2.65804e-15
1.96593e-15
5.5458e-15
6.85887e-14
5.62967e-13
2.54557e-12
6.6939e-12
1.13313e-11
4.05863e-13
5.41179e-13
5.83934e-13
1.91004e-13
2.69382e-14
3.36698e-15
1.06619e-15
1.15863e-14
1.47621e-13
2.35679e-13
1.28549e-13
1.79075e-14
5.454e-15
6.33229e-16
6.06692e-17
1.57147e-17
3.12611e-17
1.54797e-16
5.62486e-15
1.11782e-13
9.24304e-13
3.48788e-12
7.49404e-12
2.1109e-13
1.47813e-13
1.1392e-13
2.73285e-14
3.03632e-15
2.10571e-16
1.64958e-15
1.22573e-14
8.28096e-14
1.05585e-13
5.86839e-14
2.1682e-14
5.16074e-15
5.10849e-16
1.32764e-17
1.43339e-17
7.8756e-17
5.13315e-16
4.70464e-15
4.30763e-14
3.08214e-13
1.3965e-12
3.84357e-12
9.24122e-14
3.62199e-14
1.41768e-14
1.97692e-15
9.99617e-17
5.81867e-18
7.82064e-16
5.54202e-15
3.43089e-14
3.32011e-14
1.51827e-14
3.92371e-15
5.39008e-16
4.5551e-17
5.66406e-18
3.90254e-17
2.19724e-16
1.08659e-15
5.40079e-15
2.75756e-14
1.37168e-13
5.86641e-13
1.87877e-12
2.96961e-14
7.97924e-15
1.67696e-15
1.7718e-16
9.67898e-18
2.82703e-19
6.28336e-17
1.1218e-15
7.17417e-15
7.60342e-15
3.19278e-15
5.90258e-16
3.96769e-17
1.54726e-18
1.34999e-17
9.87184e-17
5.54443e-16
2.55536e-15
1.02097e-14
3.78557e-14
1.35176e-13
4.65826e-13
1.48612e-12
6.57422e-15
1.34996e-15
1.86829e-16
1.54433e-17
7.39491e-19
1.86739e-20
4.36466e-18
1.17146e-16
8.09219e-16
1.16243e-15
4.90949e-16
6.5254e-17
2.46979e-18
1.31904e-18
1.20865e-17
7.43121e-17
3.7857e-16
1.76303e-15
7.61657e-15
3.01661e-14
1.10075e-13
3.78227e-13
1.25156e-12
1.02782e-15
1.65092e-16
1.70312e-17
1.13816e-18
4.65194e-20
1.03862e-21
2.7023e-19
9.41162e-18
7.02801e-17
1.30978e-16
5.88355e-17
6.56117e-18
1.84072e-19
4.5404e-19
4.03945e-18
2.51812e-17
1.33762e-16
6.67332e-16
3.14691e-15
1.37651e-14
5.55331e-14
2.08341e-13
7.45331e-13
1.20747e-16
1.51845e-17
1.25495e-18
7.02385e-20
2.48949e-21
5.03248e-23
1.38043e-20
6.27227e-19
5.19717e-18
1.19462e-17
5.56807e-18
5.57521e-19
1.9647e-20
9.14966e-20
6.75954e-19
4.20971e-18
2.56786e-17
1.52366e-16
8.4036e-16
4.16535e-15
1.86977e-14
7.74116e-14
3.01343e-13
1.12468e-17
1.11356e-18
7.7523e-20
3.75632e-21
1.18125e-22
2.20009e-24
6.26769e-22
3.59244e-20
3.32802e-19
9.07534e-19
4.31654e-19
3.99426e-20
3.1585e-21
1.63608e-20
9.49763e-20
5.61411e-19
3.79512e-18
2.60852e-17
1.66275e-16
9.30319e-16
4.59783e-15
2.08552e-14
9.01636e-14
8.68438e-19
6.79818e-20
4.11744e-21
1.77621e-22
5.07364e-24
8.82078e-26
2.6279e-23
1.81178e-21
1.85975e-20
5.81804e-20
2.78602e-20
2.46511e-21
5.49898e-22
2.69133e-21
1.29689e-20
7.32008e-20
)
;

boundaryField
{
    leftWall
    {
        type            zeroGradient;
    }
    rightWall
    {
        type            zeroGradient;
    }
    lowerWall
    {
        type            zeroGradient;
    }
    atmosphere
    {
        type            inletOutlet;
        inletValue      nonuniform 0();
        value           nonuniform 0();
    }
    defaultFaces
    {
        type            empty;
    }
    procBoundary0to1
    {
        type            processor;
        value           nonuniform List<scalar> 
26
(
0.999991
0.999987
0.999988
0.999988
0.999987
0.999986
0.999613
0.962704
0.469126
0.00672128
1.87996e-05
2.85527e-06
4.61055e-08
3.05584e-10
1.32871e-11
1.30202e-11
1.30202e-11
1.63798e-11
1.16239e-11
7.18316e-12
4.71409e-12
4.76648e-12
4.44504e-12
2.80916e-12
1.2193e-12
3.90779e-13
)
;
    }
    procBoundary0to2
    {
        type            processor;
        value           nonuniform List<scalar> 
24
(
5.16325e-19
3.79367e-18
2.65385e-17
1.63386e-16
8.65364e-16
4.24071e-15
2.06334e-14
5.73492e-20
3.55467e-21
1.91215e-22
7.46481e-24
1.95795e-25
3.18146e-27
1.01834e-24
8.23698e-23
9.22721e-22
3.20052e-21
1.52014e-21
1.38383e-22
8.67229e-23
4.04697e-22
1.82546e-21
5.16325e-19
9.99022e-21
)
;
    }
}


// ************************************************************************* //
