/*--------------------------------*- C++ -*----------------------------------*\
| =========                 |                                                 |
| \\      /  F ield         | OpenFOAM: The Open Source CFD Toolbox           |
|  \\    /   O peration     | Version:  2.4.0                                 |
|   \\  /    A nd           | Web:      www.OpenFOAM.org                      |
|    \\/     M anipulation  |                                                 |
\*---------------------------------------------------------------------------*/
FoamFile
{
    version     2.0;
    format      ascii;
    class       volScalarField;
    location    "0.7";
    object      p;
}
// * * * * * * * * * * * * * * * * * * * * * * * * * * * * * * * * * * * * * //

dimensions      [1 -1 -2 0 0 0 0];

internalField   nonuniform List<scalar> 
575
(
3209.41
3213.01
3204.86
3218.57
3229.19
3248.49
3304.65
3402
3584.02
3889.11
4324.02
4903.48
5556.66
6115.44
6525.82
6822.9
7029.24
7161.19
7234.11
7280.7
7307.24
7319.39
2423.04
2423.87
2424.7
2431.23
2439.56
2463.24
2510.55
2590.93
2748.13
3022.72
3473
4095.82
4795.55
5344.63
5745.51
6029.83
6245.71
6374.92
6443.75
6485.11
6509.71
6518.54
1555.37
1553.7
1555.5
1556.81
1562.86
1585.25
1640.92
1742.38
1924.98
2271.28
2662.53
3240.48
3940.42
4569.48
4997.95
5302.32
5488.5
5604.88
5660.59
5690.22
5709.67
5717.89
877.479
874.726
875.567
870.209
867.408
874.596
889.941
913.87
948.211
1090.57
1577.99
2388.53
3168.06
3829.19
4261.23
4539.24
4736.79
4840.95
4881.12
4892.27
4903.96
4915.97
858.769
857.501
855.136
853.755
855.741
859.925
865.195
874.256
886.942
874.387
974.198
1255.61
2372
3116.68
3561.07
3840.87
4010.69
4091.04
4100.58
4093.91
4094.86
4105.57
801.681
799.814
798.39
796.018
797.931
804.491
812.751
824.995
842.73
870.654
897.273
895.681
1533.29
2420.51
2851.33
3129.68
3297.17
3356.33
3324.43
3293.96
3288.55
3292.76
723.588
720.789
717.491
712.213
709.497
711.794
719.059
730.373
742.349
762.684
810.276
842.402
963.655
1762.31
2171.65
2423.7
2588.96
2642.85
2563.51
2488.61
2469.02
2464.67
693.925
691.617
688.618
687.05
689.535
694.187
699.619
703.218
718.674
729.702
743.689
766.842
716.054
1045.74
1438.48
1697.94
1813.97
1825.99
1718.59
1666.14
1619.71
1616.39
553.94
548.366
542.1
526.985
515.02
516.053
525.797
542.006
557.203
575.106
594.299
603.612
518.728
409.582
402.016
461.355
473.51
481.3
529.442
574.962
568.469
574.318
501.013
496.075
489.107
478.621
479.063
475.059
473.152
482.593
485.944
480.287
466.235
442.88
371.581
266.411
202.464
197.437
219.146
233.751
260.349
296.903
327.251
333.775
329.368
319.61
301.412
262.925
239.33
236.912
255.524
275.576
292.557
305.572
311.21
307.002
288.051
261.641
245.901
224.695
212.937
202.689
196.857
202.802
208.686
213.939
257.867
246.645
222.345
164.359
152.224
155.261
160.056
167.4
172.886
176.217
178.958
176.658
167.352
146.979
123.532
108.994
101.23
82.4524
65.2095
54.6336
37.1384
29.1974
147.876
149.807
123.177
56.1479
29.9179
26.7542
49.1557
73.243
84.6536
87.4484
83.0326
72.0485
63.1855
54.8858
44.351
33.5615
26.5976
18.4301
12.0307
8.06459
5.41727
5.18885
18.6128
20.9301
15.4165
9.25014
6.66414
7.13094
8.44046
9.6905
8.56623
8.55931
8.17735
6.94236
7.77214
7.18544
4.28108
4.7363
5.49471
5.04286
4.89336
5.09732
5.463
5.55373
4.64632
4.4609
4.37237
4.28248
4.32586
4.45559
4.5612
4.53332
4.55412
4.66031
4.70605
4.75041
4.78677
4.91669
5.11168
5.14092
5.23026
5.54545
5.84141
5.76977
5.4461
5.23888
5.29319
5.21603
5.18621
5.01876
5.02243
5.14419
5.29208
5.35019
5.38307
5.42243
5.42628
5.42889
5.49587
5.3761
5.082
4.9603
5.02489
5.1232
5.24319
5.36624
5.40265
5.31223
4.73689
4.7886
4.78566
4.6824
4.59192
4.68149
4.67599
4.64387
4.73501
4.69178
4.56252
4.62337
4.68618
4.7561
4.82101
4.88905
4.97517
5.10666
5.26263
5.3835
5.46175
5.47616
5.31069
4.74913
4.70981
4.71609
4.70676
4.72785
4.73023
4.73097
4.79613
4.78642
4.80827
4.87272
4.94618
4.96619
4.97415
4.94857
4.89779
4.91526
4.97282
5.05947
5.15148
5.23825
5.30789
5.21725
4.59263
4.56123
4.57499
4.5502
4.52475
4.5505
4.537
4.55886
4.57941
4.54959
4.48955
4.44975
4.51677
4.5451
4.57651
4.62523
4.68703
4.75997
4.83876
4.91629
4.97791
5.00577
4.96266
4.43779
4.42401
4.43145
4.42817
4.43201
4.43433
4.43039
4.44044
4.44803
4.46625
4.50802
4.56945
4.60065
4.61963
4.631
4.62591
4.63831
4.6614
4.694
4.72122
4.73825
4.73196
4.68648
4.29935
4.29321
4.29246
4.29024
4.28904
4.29339
4.29483
4.30311
4.3101
4.31275
4.31331
4.29988
4.3077
4.32008
4.33412
4.36263
4.39244
4.42731
4.46459
4.49527
4.50741
4.49054
4.44122
4.15629
4.15415
4.15119
4.14966
4.14928
4.15171
4.15397
4.15855
4.16301
4.1685
4.1776
4.19778
4.22344
4.24453
4.25991
4.27065
4.27818
4.28526
4.29071
4.29299
4.28798
4.26455
4.21457
4.00954
4.009
4.00649
4.0054
4.00532
4.00665
4.00833
4.01186
4.01566
4.02082
4.02825
4.03778
4.04664
4.05445
4.06343
4.07434
4.08587
4.09532
4.10034
4.09681
4.08188
4.0514
4.00108
3.86153
3.8613
3.85974
3.85913
3.85911
3.86
3.86135
3.86397
3.86712
3.87115
3.87601
3.8818
3.88789
3.89443
3.90127
3.90768
3.91266
3.91527
3.91366
3.90433
3.88462
3.85132
3.80214
3.7131
3.71295
3.71205
3.7117
3.71169
3.71228
3.7132
3.71515
3.71732
3.72014
3.72342
3.72706
3.73082
3.73466
3.73809
3.74053
3.74108
3.73852
3.73142
3.71753
3.695
3.66155
3.61571
3.56464
3.56453
3.56398
3.56372
3.56366
3.56396
3.56448
3.56563
3.56689
3.56851
3.5703
3.57218
3.57377
3.57505
3.57546
3.57451
)
;

boundaryField
{
    leftWall
    {
        type            fixedFluxPressure;
        gradient        uniform 0;
        value           nonuniform List<scalar> 
26
(
3209.41
2423.04
1555.37
877.479
858.769
801.681
723.588
693.925
553.94
501.013
329.368
257.867
147.876
18.6128
4.64632
5.29319
4.73689
4.74913
4.59263
4.43779
4.29935
4.15629
4.00954
3.86153
3.7131
3.56464
)
;
    }
    rightWall
    {
        type            fixedFluxPressure;
        gradient        nonuniform 0();
        value           nonuniform 0();
    }
    lowerWall
    {
        type            fixedFluxPressure;
        gradient        nonuniform List<scalar> 
22
(
132719
132719
132719
132719
132719
132719
132719
132719
132719
132719
132719
132719
132719
132719
132719
132719
132719
132719
132719
132719
132719
132719
)
;
        value           nonuniform List<scalar> 
22
(
3607.56
3611.16
3603.01
3616.72
3627.34
3646.64
3702.79
3800.15
3982.17
4287.25
4722.17
5301.63
5954.81
6513.59
6923.97
7221.05
7427.39
7559.34
7632.26
7678.85
7705.39
7717.54
)
;
    }
    atmosphere
    {
        type            totalPressure;
        U               U.air;
        phi             phi.air;
        rho             rho;
        psi             none;
        gamma           1;
        p0              nonuniform 0();
        value           nonuniform 0();
    }
    defaultFaces
    {
        type            empty;
    }
    procBoundary0to1
    {
        type            processor;
        value           nonuniform List<scalar> 
26
(
7327.07
6526.73
5726.08
4927.7
4130.1
3335.87
2542.29
1744.95
641.299
322.88
258.604
26.198
4.39877
5.58821
5.38355
5.26871
5.26871
5.06943
4.88476
4.78687
4.60028
4.37393
4.15354
3.94581
3.7526
3.57112
)
;
    }
    procBoundary0to2
    {
        type            processor;
        value           nonuniform List<scalar> 
24
(
3.57139
3.56498
3.55429
3.53764
3.51352
3.48089
3.43792
3.41622
3.4161
3.41572
3.41546
3.41527
3.41527
3.41538
3.41575
3.41615
3.41667
3.41708
3.41737
3.41719
3.41634
3.41419
3.57139
3.41053
)
;
    }
}


// ************************************************************************* //
