/*--------------------------------*- C++ -*----------------------------------*\
| =========                 |                                                 |
| \\      /  F ield         | OpenFOAM: The Open Source CFD Toolbox           |
|  \\    /   O peration     | Version:  2.4.0                                 |
|   \\  /    A nd           | Web:      www.OpenFOAM.org                      |
|    \\/     M anipulation  |                                                 |
\*---------------------------------------------------------------------------*/
FoamFile
{
    version     2.0;
    format      ascii;
    class       surfaceScalarField;
    location    "0.7";
    object      phi.oil;
}
// * * * * * * * * * * * * * * * * * * * * * * * * * * * * * * * * * * * * * //

dimensions      [0 3 -1 0 0 0 0];

internalField   nonuniform List<scalar> 
1101
(
1.93851e-06
-1.93854e-06
4.18506e-06
-2.24657e-06
5.53302e-06
-1.34801e-06
7.37665e-06
-1.84368e-06
9.55282e-06
-2.17619e-06
1.08059e-05
-1.25306e-06
1.15982e-05
-7.92384e-07
1.13559e-05
2.42305e-07
1.06445e-05
7.11444e-07
9.44135e-06
1.20328e-06
6.15773e-06
3.28369e-06
1.20689e-06
4.95078e-06
-4.66615e-06
5.87295e-06
-8.95391e-06
4.28775e-06
-1.09076e-05
1.95375e-06
-1.12979e-05
3.90309e-07
-1.11361e-05
-1.61398e-07
-1.04359e-05
-6.98655e-07
-9.40585e-06
-1.02643e-06
-6.97695e-06
-2.41816e-06
-4.44046e-06
-2.42809e-06
-6.76727e-08
1.95395e-06
-3.67631e-06
4.01687e-06
-4.0854e-06
5.71599e-06
-2.84666e-06
7.57496e-06
-3.48933e-06
9.45812e-06
-3.84486e-06
1.08611e-05
-2.47332e-06
1.1897e-05
-1.68384e-06
1.24086e-05
-1.91238e-07
1.21063e-05
1.03299e-06
1.01428e-05
3.16728e-06
5.57958e-06
7.84705e-06
1.12081e-07
1.04184e-05
-5.67926e-06
1.16643e-05
-9.59553e-06
8.20406e-06
-1.11189e-05
3.47723e-06
-1.12543e-05
5.25776e-07
-1.09795e-05
-4.35976e-07
-1.02716e-05
-1.40562e-06
-8.86714e-06
-2.42807e-06
-6.61635e-06
-4.66377e-06
-4.08006e-06
-4.97747e-06
-2.12093e-06
1.95844e-06
-9.81092e-06
3.73957e-06
-1.01479e-05
5.95698e-06
-9.01793e-06
7.77205e-06
-9.4543e-06
9.10909e-06
-9.34507e-06
1.04913e-05
-7.60235e-06
1.14603e-05
-5.87536e-06
1.17901e-05
-2.86953e-06
1.07353e-05
6.77265e-07
9.51419e-06
4.07862e-06
6.36959e-06
1.11988e-05
1.57767e-06
1.52254e-05
-4.03506e-06
1.7277e-05
-8.45733e-06
1.26263e-05
-1.12358e-05
6.25571e-06
-1.21394e-05
1.42943e-06
-1.17705e-05
-8.04539e-07
-1.0716e-05
-2.45903e-06
-8.70257e-06
-4.43513e-06
-5.92483e-06
-7.42999e-06
-2.97507e-06
-7.91581e-06
-4.91352e-06
1.90483e-06
-2.84707e-05
3.15653e-06
-2.77598e-05
5.89319e-06
-2.84815e-05
7.54113e-06
-2.72199e-05
8.11621e-06
-2.54428e-05
9.74029e-06
-2.469e-05
1.15328e-05
-2.335e-05
1.3633e-05
-2.23823e-05
1.4303e-05
-1.75164e-05
1.04058e-05
-5.16034e-06
4.0312e-06
9.7914e-06
-1.13128e-06
1.99855e-05
-6.07285e-06
2.229e-05
-9.76699e-06
1.63212e-05
-1.16756e-05
8.16435e-06
-1.23832e-05
2.13712e-06
-1.18264e-05
-1.36071e-06
-1.05058e-05
-3.77696e-06
-8.33693e-06
-6.58847e-06
-6.45017e-06
-9.26544e-06
-3.74489e-06
-1.04462e-05
-7.65507e-06
9.38569e-07
-8.77285e-06
1.90106e-06
-8.33664e-06
2.8456e-06
-9.04276e-06
3.4578e-06
-7.79913e-06
3.42209e-06
-5.9072e-06
3.80802e-06
-6.06039e-06
4.21385e-06
-5.00664e-06
4.37205e-06
-2.82025e-06
5.12121e-06
1.89563e-06
4.15225e-06
-4.61938e-07
7.34992e-07
1.06414e-06
-6.83503e-06
1.69328e-05
-1.07901e-05
2.54874e-05
-1.29831e-05
1.86018e-05
-1.36465e-05
8.82875e-06
-1.31708e-05
1.66201e-06
-1.1744e-05
-2.78427e-06
-9.77011e-06
-5.73266e-06
-7.72379e-06
-8.56406e-06
-6.87715e-06
-9.85658e-06
-4.99344e-06
-1.19851e-05
-1.08434e-05
-5.19291e-08
-8.64937e-06
2.08299e-09
-8.32599e-06
-4.91722e-07
-8.48021e-06
-1.40158e-06
-6.8299e-06
-2.42276e-06
-4.83452e-06
-3.82018e-06
-4.61047e-06
-5.80286e-06
-2.97123e-06
-7.13849e-06
-1.39591e-06
-5.46084e-06
1.0542e-06
-1.82169e-06
7.36037e-06
-1.49693e-06
1.80109e-05
-1.00171e-05
2.03134e-05
-1.74183e-05
2.51658e-05
-1.82704e-05
1.95474e-05
-1.81548e-05
8.75905e-06
-1.63118e-05
-1.24691e-07
-1.29853e-05
-5.67894e-06
-9.47557e-06
-8.44743e-06
-7.15513e-06
-1.01146e-05
-6.89097e-06
-9.65853e-06
-5.79167e-06
-1.27388e-05
-1.37705e-05
-2.45134e-07
-8.40459e-06
-2.61326e-07
-8.31036e-06
9.9003e-08
-8.84111e-06
6.49242e-08
-6.79648e-06
-4.45393e-07
-4.3252e-06
-1.01419e-06
-4.11527e-06
-3.04811e-06
-9.42951e-07
-6.45341e-06
2.00634e-06
-1.17176e-05
6.28973e-06
-1.647e-05
1.20913e-05
-1.8213e-05
2.20153e-05
-2.27839e-05
2.98147e-05
-2.53242e-05
2.13883e-05
-2.48356e-05
1.69165e-05
-2.33569e-05
7.76834e-06
-2.07606e-05
-9.08285e-07
-1.64108e-05
-6.32064e-06
-1.12645e-05
-8.85563e-06
-7.99581e-06
-1.08168e-05
-7.15751e-06
-1.12438e-05
-5.40471e-06
-1.57698e-05
-1.83427e-05
-1.126e-07
-8.29229e-06
-1.7692e-07
-8.24627e-06
-6.72016e-07
-8.32398e-06
-1.25325e-06
-6.15511e-06
-2.15258e-06
-3.26134e-06
-4.08507e-06
-1.96175e-07
-5.37198e-06
3.9208e-06
-5.90924e-06
7.21713e-06
-5.91717e-06
9.15388e-06
-7.73774e-06
1.48151e-05
-1.49128e-05
2.81162e-05
-2.77271e-05
4.05672e-05
-3.4287e-05
2.55238e-05
-3.50268e-05
1.21928e-05
-3.34514e-05
5.44748e-06
-2.80717e-05
-5.68131e-06
-2.17644e-05
-1.0802e-05
-1.63656e-05
-1.02965e-05
-1.18218e-05
-7.33304e-06
-6.95283e-06
-1.15839e-06
-3.83179e-06
3.83061e-06
8.74464e-06
-9.81522e-07
-7.31062e-06
-2.84444e-07
-8.93787e-06
4.12987e-06
-1.27358e-05
7.90425e-06
-7.88946e-06
6.679e-06
-5.87815e-07
4.18408e-06
4.59388e-06
-2.53994e-06
8.28281e-06
-1.23364e-05
1.2915e-05
-2.53837e-05
1.42675e-05
-3.45595e-05
1.51309e-05
-3.35288e-05
1.91679e-05
-3.22467e-05
2.97714e-05
-4.10745e-05
4.08914e-05
-5.18439e-05
1.68888e-05
-5.29656e-05
-3.71248e-06
-4.88243e-05
-2.63521e-05
-4.6066e-05
-3.34109e-05
-4.03183e-05
-3.04741e-05
-2.89122e-05
-1.46441e-05
-8.21117e-06
-9.77558e-06
4.62494e-06
-3.54573e-06
5.92811e-06
1.18366e-06
-8.49435e-06
2.28615e-06
-8.70515e-06
3.16423e-06
-3.00185e-06
3.90948e-06
4.01636e-07
3.82022e-06
1.22604e-05
4.00403e-06
1.99364e-05
1.13394e-06
2.70834e-05
-2.08939e-07
3.23564e-05
-8.57948e-08
3.66087e-05
-1.39378e-06
3.68348e-05
-2.70876e-06
3.18175e-05
4.05086e-06
2.9797e-05
1.80869e-05
2.56456e-05
2.35847e-05
1.79486e-05
2.68957e-05
1.17633e-06
2.60049e-05
-1.30872e-05
1.9831e-05
-1.73816e-05
2.97585e-05
-2.6676e-05
3.67625e-05
-3.48875e-05
4.07951e-05
-3.35737e-05
4.96711e-05
-2.66524e-05
-1.91122e-05
-4.12175e-06
-2.00098e-06
-1.58418e-06
-2.36458e-06
6.85383e-06
-1.29821e-05
1.44861e-05
-4.98998e-06
1.20972e-05
9.68348e-06
1.8166e-06
1.95528e-05
-8.00463e-06
2.87509e-05
-1.4231e-05
3.19915e-05
-1.64285e-05
3.31039e-05
-1.53032e-05
3.4999e-05
-1.03076e-05
3.47795e-05
-1.01993e-06
3.43292e-05
1.10313e-05
2.95317e-05
2.22969e-05
1.72438e-05
2.68449e-05
6.17458e-06
3.56036e-05
-7.30918e-06
4.41631e-05
-1.38449e-05
5.3654e-05
-2.3588e-05
5.86075e-05
-3.0498e-05
6.10794e-05
-3.63402e-05
6.7136e-05
-4.0072e-05
-3.81018e-05
-5.26453e-06
3.21198e-06
-9.14109e-06
-4.99003e-06
-4.82912e-06
-1.90762e-05
-1.0913e-05
-4.5412e-06
-1.8609e-05
9.08881e-06
-2.32318e-05
1.6603e-05
-2.31757e-05
2.26136e-05
-2.371e-05
2.74097e-05
-2.20529e-05
2.64834e-05
-2.13917e-05
3.00565e-05
-1.75139e-05
2.80514e-05
-1.02428e-05
2.39212e-05
2.80157e-06
1.80818e-05
1.46e-05
1.00093e-05
2.00679e-05
-3.45563e-06
2.69362e-05
-1.94851e-05
3.41796e-05
-3.0734e-05
4.435e-05
-4.88882e-05
5.0448e-05
-6.44021e-05
5.56608e-05
-8.29183e-05
6.07392e-05
-0.000100029
-0.000104392
-2.26284e-05
-2.41643e-05
-3.9599e-05
-2.20584e-05
-7.09274e-05
-2.49245e-05
-0.000105298
-2.7083e-05
-0.000117771
-4.04706e-05
-0.000113872
-5.22243e-05
-9.67353e-05
-5.03002e-05
-7.68915e-05
-2.51515e-05
-6.11366e-05
-1.44922e-05
-4.90523e-05
-5.23173e-06
-4.04871e-05
-5.76426e-06
-3.17078e-05
-1.54541e-05
-1.85939e-05
-2.40866e-05
-5.97123e-06
-3.14244e-05
4.29795e-06
-4.89242e-05
1.0487e-05
-6.64848e-05
1.36039e-05
-8.63256e-05
1.74245e-05
-0.000126503
2.22545e-05
-0.000166798
2.49262e-05
-0.000210229
2.92239e-05
-9.07646e-05
-7.66824e-05
-5.2093e-05
-9.36853e-05
-7.09857e-05
-7.22127e-05
-0.000100367
-5.18337e-05
-0.000124442
-6.67494e-05
-0.000129036
-9.27377e-05
-0.000126717
-0.00010181
-0.000118359
-8.19947e-05
-0.000104109
-7.87308e-05
-9.44948e-05
-7.40153e-05
-8.72127e-05
-6.60201e-05
-7.91991e-05
-6.75939e-05
-6.96868e-05
-9.39005e-05
-5.68015e-05
-0.000121826
-4.52219e-05
-0.00013031
-3.8873e-05
-8.84566e-05
-3.54369e-05
-6.9736e-05
-4.52488e-05
-7.75602e-05
-5.65722e-05
-8.19638e-05
-5.59759e-05
-0.000107975
-3.87944e-05
-0.000133115
-4.37614e-05
-5.79196e-05
-2.77537e-05
-8.78302e-05
-8.93561e-05
-8.83367e-05
-8.54752e-05
-9.8867e-05
-6.62697e-05
-0.000115618
-6.51352e-05
-0.000120178
-5.65765e-05
-0.000104501
-6.05473e-05
-6.831e-05
-5.14023e-05
-7.87392e-05
-3.93969e-05
-8.6006e-05
-3.92376e-05
-8.34598e-05
-4.97997e-05
-6.87576e-05
-6.00493e-05
-6.83631e-05
-5.15086e-05
-7.99078e-05
-8.74531e-05
-7.79432e-05
-7.96517e-05
-8.59125e-05
-3.47506e-05
-0.00010594
-2.18125e-05
-0.000126735
-4.02961e-05
-0.000145386
-6.96604e-05
-0.000124931
-7.32305e-05
-8.69302e-05
-7.01315e-05
-0.000106444
-5.68786e-05
2.70261e-05
-6.0479e-05
-3.27161e-05
-7.13435e-05
-3.09036e-05
-5.57345e-05
-1.56944e-05
-1.85431e-05
2.20023e-07
2.24356e-05
-2.03372e-05
1.30692e-05
-4.85357e-05
-1.39854e-05
-3.75341e-05
-3.13095e-05
-1.09268e-05
-4.07983e-05
2.26842e-05
-6.46492e-05
-6.52527e-07
-5.06362e-05
-2.43989e-05
-5.3001e-05
-6.28349e-06
-1.78782e-05
-2.33575e-05
1.68469e-05
-1.30396e-05
3.39229e-05
4.33693e-06
3.16581e-05
-8.09464e-06
2.28537e-05
-2.47397e-05
-4.29916e-06
-3.71879e-05
-4.36224e-05
-3.17758e-05
-9.85341e-05
-1.8846e-05
-0.000156361
7.0054e-06
7.154e-05
-2.8446e-05
7.05389e-05
-2.95257e-06
5.89745e-05
2.47324e-05
5.86346e-05
4.90304e-05
3.80603e-05
4.59999e-05
-1.99311e-06
4.26836e-05
-4.3154e-05
3.95331e-05
-3.42207e-05
2.69081e-06
2.87416e-05
-7.32386e-06
5.43134e-05
4.01012e-07
5.24726e-05
-1.60813e-05
3.88274e-05
-2.56307e-05
9.71813e-06
-2.50698e-05
-2.45016e-05
-2.11144e-05
-2.42853e-05
-2.20962e-05
-5.09104e-06
-2.63268e-05
-1.27326e-05
-3.36084e-05
-1.94504e-05
-4.79597e-05
-2.48199e-05
-6.86836e-05
-1.21504e-05
-9.68227e-05
7.51522e-06
-0.000135926
4.50648e-05
-0.000171744
0.000102878
0.00019955
-1.31741e-05
8.38582e-05
-4.60599e-06
5.16771e-05
1.17178e-05
4.36257e-05
2.57543e-05
2.2266e-05
3.13792e-05
-1.05268e-05
1.26118e-05
-2.524e-05
2.96698e-06
-2.41735e-05
-6.27718e-07
3.24291e-05
-9.17483e-06
6.23865e-05
-1.59547e-05
5.91314e-05
-1.32408e-05
3.57992e-05
3.4073e-06
-6.89698e-06
-6.45446e-06
-1.44982e-05
-8.26766e-06
-1.94212e-05
3.72828e-06
-1.53183e-05
8.65232e-06
-1.51424e-05
3.86032e-06
-1.38885e-05
-1.09047e-05
-9.94102e-06
-3.1097e-05
7.18152e-06
-6.0022e-05
3.4662e-05
-8.60724e-05
7.10225e-05
-9.78051e-05
0.000116468
0.000181125
2.55708e-06
8.13705e-05
9.55021e-06
4.47645e-05
2.24964e-05
3.02847e-05
3.22998e-05
1.21635e-05
2.13226e-05
7.69911e-07
5.02625e-06
-9.09646e-06
-6.084e-06
-1.26439e-05
2.14094e-06
2.43936e-05
1.70512e-05
4.74958e-05
3.69205e-05
3.92217e-05
5.04171e-05
2.21109e-05
3.07094e-05
1.15217e-05
1.04316e-05
5.59529e-06
-2.30095e-06
-1.82556e-06
-1.20802e-05
-2.09377e-06
-2.15309e-05
2.28053e-07
-3.24864e-05
2.26739e-06
-4.37709e-05
6.17268e-06
-5.46477e-05
1.96674e-05
-6.08836e-05
4.02311e-05
-6.07866e-05
7.08229e-05
-4.91351e-05
0.000106035
0.000143795
1.42531e-05
6.71531e-05
1.68586e-05
4.22252e-05
2.01527e-05
2.70205e-05
1.67852e-05
1.55895e-05
1.06708e-05
6.88281e-06
3.81961e-07
1.14529e-06
-1.03278e-05
-1.92171e-06
-6.66056e-07
1.45831e-05
1.72628e-05
2.97592e-05
2.15272e-05
3.49054e-05
1.37357e-05
3.00053e-05
8.2559e-06
1.65392e-05
2.86118e-06
9.93079e-06
-5.11596e-06
2.80402e-06
-9.50134e-06
-1.79933e-06
-1.53504e-05
2.03476e-06
-2.20029e-05
6.46132e-06
-3.11538e-05
1.39483e-05
-3.9721e-05
2.7779e-05
-4.6018e-05
4.64985e-05
-4.52658e-05
7.0081e-05
-3.30013e-05
9.37493e-05
0.000117449
1.46426e-05
5.2473e-05
1.78842e-05
3.90011e-05
1.89837e-05
2.59227e-05
1.69688e-05
1.76064e-05
1.11266e-05
1.27251e-05
1.84268e-06
1.04281e-05
-8.81987e-06
8.77285e-06
-9.46616e-06
1.53126e-05
-2.10521e-08
2.04362e-05
7.16149e-06
2.76249e-05
9.20228e-06
2.8243e-05
3.99875e-06
2.28783e-05
-2.79853e-06
1.73818e-05
-1.11275e-05
1.23906e-05
-2.00183e-05
1.01995e-05
-2.84793e-05
1.06918e-05
-3.63642e-05
1.42685e-05
-4.26734e-05
2.04806e-05
-4.52942e-05
3.08124e-05
-4.39887e-05
4.54749e-05
-3.85288e-05
6.46673e-05
-2.81356e-05
8.34068e-05
9.90677e-05
9.91499e-06
4.25438e-05
1.4598e-05
3.43209e-05
1.50025e-05
2.552e-05
1.21069e-05
2.05022e-05
7.34859e-06
1.74834e-05
1.97307e-06
1.58034e-05
-4.37452e-06
1.51207e-05
-7.14474e-06
1.80992e-05
-6.5914e-06
1.99346e-05
-3.74632e-06
2.47843e-05
-2.70661e-06
2.73035e-05
-5.45884e-06
2.55559e-05
-9.49789e-06
2.12767e-05
-1.42337e-05
1.70329e-05
-1.87556e-05
1.47933e-05
-2.27854e-05
1.49815e-05
-2.73762e-05
1.88848e-05
-3.27063e-05
2.56862e-05
-3.70099e-05
3.51164e-05
-3.73545e-05
4.59805e-05
-3.2256e-05
5.97095e-05
-2.25634e-05
7.3785e-05
8.5298e-05
5.80479e-06
3.67369e-05
9.48823e-06
3.06377e-05
9.51378e-06
2.54945e-05
7.55329e-06
2.24627e-05
4.77617e-06
2.02605e-05
1.48068e-06
1.90988e-05
-2.06198e-06
1.86633e-05
-4.00892e-06
2.00482e-05
-5.12225e-06
2.10567e-05
-4.55642e-06
2.42659e-05
-3.36843e-06
2.61456e-05
-3.69743e-06
2.58929e-05
-5.9248e-06
2.35264e-05
-1.0173e-05
2.11562e-05
-1.52002e-05
1.94989e-05
-1.96659e-05
1.94716e-05
-2.33514e-05
2.23843e-05
-2.58705e-05
2.81342e-05
-2.72024e-05
3.64104e-05
-2.67251e-05
4.55462e-05
-2.26783e-05
5.57159e-05
-1.51421e-05
6.62827e-05
7.51282e-05
3.49701e-06
3.32397e-05
5.65737e-06
2.84774e-05
5.64864e-06
2.55033e-05
4.68015e-06
2.34312e-05
3.14523e-06
2.17954e-05
1.33378e-06
2.09102e-05
-5.22998e-07
2.05199e-05
-1.80043e-06
2.13255e-05
-2.80238e-06
2.20588e-05
-2.68443e-06
2.41498e-05
-2.06381e-06
2.55265e-05
-1.75816e-06
2.55994e-05
-2.6462e-06
2.44067e-05
-4.87379e-06
2.33397e-05
-7.85617e-06
2.25116e-05
-1.14075e-05
2.30764e-05
-1.46268e-05
2.55885e-05
-1.70408e-05
3.04501e-05
-1.80236e-05
3.73642e-05
-1.7361e-05
4.48882e-05
-1.37741e-05
5.21376e-05
-7.3279e-06
5.98473e-05
6.6918e-05
2.08197e-06
3.11579e-05
3.45066e-06
2.71087e-05
3.66812e-06
2.52858e-05
3.21707e-06
2.38822e-05
2.32747e-06
2.2685e-05
1.26519e-06
2.19724e-05
1.25527e-07
2.16595e-05
-6.71084e-07
2.2122e-05
-1.27256e-06
2.26603e-05
-1.14546e-06
2.40228e-05
-6.30366e-07
2.50121e-05
-2.30661e-07
2.52049e-05
-5.44045e-07
2.4713e-05
-1.74696e-06
2.45473e-05
-3.58201e-06
2.44639e-05
-6.04286e-06
2.5666e-05
-8.715e-06
-1.06027e-05
-1.10287e-05
-1.02253e-05
-7.38083e-06
-1.79569e-06
1.30786e-06
2.29233e-06
2.62947e-06
2.48886e-06
1.92484e-06
1.14503e-06
2.42345e-07
-4.53334e-07
-1.00252e-06
-9.21191e-07
-4.57266e-07
-1.70487e-07
-5.37579e-07
-1.46954e-06
-3.00391e-06
)
;

boundaryField
{
    leftWall
    {
        type            fixedValue;
        value           uniform 0;
    }
    rightWall
    {
        type            fixedValue;
        value           nonuniform 0();
    }
    lowerWall
    {
        type            fixedValue;
        value           uniform 0;
    }
    atmosphere
    {
        type            calculated;
        value           nonuniform 0();
    }
    defaultFaces
    {
        type            empty;
        value           nonuniform 0();
    }
    procBoundary0to1
    {
        type            processor;
        value           nonuniform List<scalar> 
26
(
-3.42002e-06
-2.2863e-06
-5.20449e-07
-7.203e-07
-1.41836e-06
-2.65711e-06
-2.62622e-06
-1.52211e-06
7.65833e-06
6.00321e-05
6.84467e-05
6.6996e-05
3.46955e-05
-6.48812e-05
-0.000174601
-0.000198244
-0.000186627
-0.000176141
-7.88342e-05
-1.30802e-05
-5.56877e-06
-9.70293e-06
-8.74609e-06
-4.94609e-06
8.89537e-07
5.55509e-06
)
;
    }
    procBoundary0to2
    {
        type            processor;
        value           nonuniform List<scalar> 
24
(
2.83632e-05
3.23175e-05
3.77794e-05
4.40817e-05
4.93024e-05
5.42676e-05
5.95725e-05
2.98497e-05
2.61241e-05
2.49485e-05
2.40227e-05
2.32489e-05
2.27521e-05
2.25622e-05
2.28177e-05
2.32095e-05
2.39417e-05
2.45485e-05
2.49194e-05
2.50776e-05
2.55299e-05
2.62354e-05
-4.9822e-06
2.78587e-05
)
;
    }
}


// ************************************************************************* //
