/*--------------------------------*- C++ -*----------------------------------*\
| =========                 |                                                 |
| \\      /  F ield         | OpenFOAM: The Open Source CFD Toolbox           |
|  \\    /   O peration     | Version:  2.4.0                                 |
|   \\  /    A nd           | Web:      www.OpenFOAM.org                      |
|    \\/     M anipulation  |                                                 |
\*---------------------------------------------------------------------------*/
FoamFile
{
    version     2.0;
    format      ascii;
    class       surfaceScalarField;
    location    "0.7";
    object      phi.air;
}
// * * * * * * * * * * * * * * * * * * * * * * * * * * * * * * * * * * * * * //

dimensions      [0 3 -1 0 0 0 0];

internalField   nonuniform List<scalar> 
1101
(
1.93851e-06
-1.93847e-06
4.18506e-06
-2.24649e-06
5.53302e-06
-1.34796e-06
7.37665e-06
-1.84361e-06
9.55282e-06
-2.17611e-06
1.08059e-05
-1.25301e-06
1.15982e-05
-7.92342e-07
1.13559e-05
2.42338e-07
1.06445e-05
7.11475e-07
9.44135e-06
1.2033e-06
6.15773e-06
3.28371e-06
1.20689e-06
4.95079e-06
-4.66615e-06
5.87296e-06
-8.95391e-06
4.28774e-06
-1.09076e-05
1.95372e-06
-1.12978e-05
3.90234e-07
-1.11361e-05
-1.61737e-07
-1.04359e-05
-7.00183e-07
-9.40582e-06
-1.03009e-06
-6.9787e-06
-2.42711e-06
-4.45818e-06
-2.52052e-06
-1.03066e-06
1.95395e-06
-3.60024e-06
4.01687e-06
-4.0069e-06
5.71599e-06
-2.77541e-06
7.57496e-06
-3.41436e-06
9.45812e-06
-3.76972e-06
1.08611e-05
-2.40799e-06
1.1897e-05
-1.6302e-06
1.24086e-05
-1.58862e-07
1.21063e-05
1.04392e-06
1.01428e-05
3.1677e-06
5.57957e-06
7.84711e-06
1.1208e-07
1.04184e-05
-5.67926e-06
1.16644e-05
-9.59553e-06
8.20406e-06
-1.11189e-05
3.47721e-06
-1.12543e-05
5.25712e-07
-1.09795e-05
-4.36487e-07
-1.02716e-05
-1.40799e-06
-8.86713e-06
-2.43446e-06
-6.61708e-06
-4.6771e-06
-4.10448e-06
-5.03306e-06
-2.83436e-06
1.95846e-06
-1.03324e-05
3.73953e-06
-1.06807e-05
5.95694e-06
-9.51279e-06
7.77196e-06
-9.974e-06
9.10869e-06
-9.85682e-06
1.04904e-05
-8.06478e-06
1.14589e-05
-6.25788e-06
1.1788e-05
-3.10654e-06
1.07338e-05
7.97547e-07
9.51414e-06
4.26998e-06
6.36958e-06
1.1269e-05
1.57767e-06
1.52338e-05
-4.03507e-06
1.72771e-05
-8.45733e-06
1.26263e-05
-1.12358e-05
6.2557e-06
-1.21394e-05
1.42934e-06
-1.17705e-05
-8.05428e-07
-1.07159e-05
-2.46249e-06
-8.70261e-06
-4.44777e-06
-5.92492e-06
-7.45476e-06
-2.98285e-06
-7.97512e-06
-5.28017e-06
1.904e-06
-3.07493e-05
3.1591e-06
-3.00457e-05
5.89283e-06
-3.06835e-05
7.54455e-06
-2.94434e-05
8.12731e-06
-2.76052e-05
9.75379e-06
-2.67055e-05
1.15473e-05
-2.5175e-05
1.36427e-05
-2.39661e-05
1.43116e-05
-1.81531e-05
1.04039e-05
-5.51035e-06
4.01171e-06
8.53556e-06
-1.1331e-06
2.01847e-05
-6.07285e-06
2.23149e-05
-9.76699e-06
1.63218e-05
-1.16756e-05
8.16436e-06
-1.23832e-05
2.13702e-06
-1.18263e-05
-1.3623e-06
-1.05057e-05
-3.78308e-06
-8.33715e-06
-6.61636e-06
-6.45032e-06
-9.34162e-06
-3.75452e-06
-1.06709e-05
-8.2978e-06
9.41509e-07
-8.86246e-06
1.9042e-06
-8.41895e-06
2.85241e-06
-9.12929e-06
3.46665e-06
-7.87591e-06
3.43161e-06
-5.97539e-06
3.81884e-06
-6.12363e-06
4.22979e-06
-5.07341e-06
4.47103e-06
-2.92469e-06
5.60561e-06
1.28043e-06
4.6627e-06
-3.3751e-06
8.68284e-07
-1.51251e-06
-6.85014e-06
1.62525e-05
-1.07972e-05
2.55503e-05
-1.29831e-05
1.86316e-05
-1.36465e-05
8.82912e-06
-1.31707e-05
1.6613e-06
-1.17439e-05
-2.78908e-06
-9.77043e-06
-5.75659e-06
-7.72502e-06
-8.66176e-06
-6.87872e-06
-1.01879e-05
-5.00822e-06
-1.25414e-05
-1.18658e-05
-5.19299e-08
-8.64943e-06
2.08173e-09
-8.32604e-06
-4.91724e-07
-8.48026e-06
-1.40158e-06
-6.82994e-06
-2.42276e-06
-4.8346e-06
-3.82018e-06
-4.61548e-06
-5.80286e-06
-2.97308e-06
-7.13849e-06
-1.39796e-06
-5.45601e-06
1.04479e-06
-1.45378e-06
7.33731e-06
-1.00554e-06
1.63018e-05
-9.88607e-06
1.7913e-05
-1.74385e-05
2.47162e-05
-1.82712e-05
1.96081e-05
-1.81547e-05
8.7591e-06
-1.63117e-05
-1.80763e-07
-1.2986e-05
-6.11463e-06
-9.47871e-06
-9.26387e-06
-7.16222e-06
-1.09777e-05
-6.89223e-06
-1.04527e-05
-5.80017e-06
-1.35803e-05
-1.49167e-05
-2.45135e-07
-8.40472e-06
-2.61327e-07
-8.31047e-06
9.90013e-08
-8.84117e-06
6.49243e-08
-6.79655e-06
-4.45313e-07
-4.32496e-06
-1.01424e-06
-4.04707e-06
-3.04812e-06
-9.39777e-07
-6.45295e-06
2.00638e-06
-1.17182e-05
6.30953e-06
-1.64647e-05
1.21243e-05
-1.8315e-05
2.19511e-05
-2.28016e-05
2.72803e-05
-2.52462e-05
1.97759e-05
-2.48521e-05
1.69026e-05
-2.33517e-05
7.50959e-06
-2.07784e-05
-2.70763e-06
-1.64193e-05
-1.04268e-05
-1.12894e-05
-1.42467e-05
-8.02144e-06
-1.39288e-05
-7.16156e-06
-1.09052e-05
-5.40883e-06
-1.49005e-05
-1.73736e-05
-1.12601e-07
-8.27706e-06
-1.76921e-07
-8.22966e-06
-6.72017e-07
-8.32931e-06
-1.25323e-06
-6.20997e-06
-2.14563e-06
-3.42936e-06
-4.09346e-06
-2.09525e-06
-5.37215e-06
3.40082e-07
-5.90904e-06
2.54367e-06
-5.91694e-06
6.31813e-06
-7.74539e-06
1.39472e-05
-1.54449e-05
2.80004e-05
-2.8359e-05
3.78223e-05
-3.4282e-05
2.23476e-05
-3.49239e-05
1.17824e-05
-3.35898e-05
5.34904e-06
-2.82728e-05
-7.23627e-06
-2.18317e-05
-1.61129e-05
-1.64872e-05
-1.94294e-05
-1.17459e-05
-2.00649e-05
-6.93978e-06
-1.83836e-05
-3.82965e-06
-2.24293e-05
-2.4258e-05
-9.80061e-07
-7.24884e-06
-2.89368e-07
-8.88126e-06
4.1182e-06
-1.27189e-05
7.89307e-06
-9.97857e-06
7.11999e-06
-2.65599e-06
4.38737e-06
6.47037e-07
-2.36622e-06
7.0971e-06
-1.3308e-05
1.34847e-05
-2.60838e-05
1.909e-05
-3.46155e-05
2.24764e-05
-3.34777e-05
2.67605e-05
-3.40649e-05
3.7782e-05
-4.24696e-05
3.36668e-05
-5.19289e-05
1.35257e-05
-5.31994e-05
-4.67223e-06
-4.92859e-05
-2.55877e-05
-4.70519e-05
-3.26311e-05
-4.16599e-05
-3.83177e-05
-3.03437e-05
-4.61089e-05
-1.11189e-05
-5.69469e-05
1.85623e-06
-5.75627e-05
-5.51659e-05
1.19287e-06
-7.98632e-06
2.29797e-06
-9.61557e-06
3.57905e-06
-1.36416e-05
3.64917e-06
-9.60338e-06
4.06096e-06
-2.49906e-06
3.84199e-06
1.9165e-06
1.43884e-06
1.03727e-05
-4.57084e-07
1.596e-05
-1.40628e-06
2.0362e-05
-3.35959e-06
2.45619e-05
-4.24377e-06
2.76286e-05
3.91729e-06
3.01307e-05
1.5886e-05
3.27751e-05
2.08996e-05
1.77879e-05
2.49118e-05
-2.9481e-06
2.57831e-05
-1.41557e-05
2.53374e-05
-2.32547e-05
2.85144e-05
-3.37121e-05
3.60711e-05
-4.39527e-05
4.10906e-05
-4.35673e-05
4.72208e-05
-2.24178e-05
-5.62504e-07
-3.94487e-06
-4.33808e-06
-4.12875e-06
-9.05422e-06
5.57787e-06
-2.27884e-05
1.32764e-05
-1.75496e-05
1.18905e-05
-1.67202e-06
2.59013e-06
9.84518e-06
-6.69098e-06
1.76308e-05
-1.25994e-05
2.04651e-05
-1.45831e-05
2.2297e-05
-1.37129e-05
2.40666e-05
-9.74501e-06
2.41675e-05
-1.52887e-06
2.19286e-05
1.21787e-05
2.08806e-05
2.39534e-05
1.47689e-05
3.35312e-05
5.75265e-07
4.31558e-05
-6.16546e-06
5.23001e-05
-4.25425e-06
5.95225e-05
1.92194e-05
6.1606e-05
2.70695e-05
6.26102e-05
3.54209e-05
6.69472e-05
6.1786e-05
9.80838e-05
-9.23314e-06
9.82303e-06
-8.3043e-06
-6.04913e-06
-2.59267e-06
-1.66383e-05
-9.89671e-06
5.43949e-05
-1.82018e-05
8.88237e-05
-2.2461e-05
9.80681e-05
-2.22185e-05
8.06422e-05
-2.32326e-05
3.02555e-05
-2.17567e-05
2.09186e-05
-2.11498e-05
2.29098e-05
-1.77145e-05
2.04625e-05
-1.11193e-05
2.53121e-05
6.37905e-07
7.81807e-05
1.39155e-05
7.307e-05
2.3022e-05
5.6393e-05
3.09861e-05
4.54721e-05
4.56071e-05
3.83653e-05
5.50055e-05
3.83438e-05
5.76995e-05
3.94975e-05
6.7749e-05
3.54204e-05
6.90321e-05
1.86695e-05
1.69245e-05
-1.5598e-05
0.00012735
-3.15351e-05
0.000141173
-3.39982e-05
0.000153424
-8.78751e-05
0.000127174
-0.000115584
9.0158e-05
-0.000128303
8.59134e-05
-0.000107976
0.000100006
-7.55796e-05
9.58535e-05
-5.91381e-05
0.00010018
-4.74271e-05
0.000105705
-3.86717e-05
0.000106578
-2.42469e-05
0.000100855
-1.11677e-05
8.89889e-05
3.38599e-06
7.44469e-05
1.50813e-05
6.42189e-05
1.96392e-05
4.31448e-05
2.67876e-05
2.96257e-05
3.16586e-05
6.60027e-06
3.45982e-05
-3.51221e-06
4.43929e-05
-2.48573e-05
3.3668e-05
-4.06817e-05
-2.57803e-05
-1.79298e-05
7.26144e-05
-4.61881e-05
8.99964e-05
-8.41578e-05
8.67125e-05
-0.00011517
7.41259e-05
-0.000135993
4.71832e-05
-0.000146367
2.60164e-05
-0.000123389
-7.65718e-06
-0.000101638
7.22717e-06
-9.43686e-05
2.93295e-05
-8.6603e-05
4.03835e-05
-7.69754e-05
3.93109e-05
-7.14066e-05
3.82463e-05
-5.54306e-05
2.2499e-05
-3.68255e-05
1.21732e-05
-4.19603e-05
-6.63344e-07
-4.49908e-05
-2.00731e-05
-4.39211e-05
-3.08002e-05
-4.46317e-05
-4.6172e-05
-6.02901e-05
-3.6381e-05
-8.78782e-05
-3.31963e-05
-6.71468e-05
-6.65013e-05
-2.46633e-05
-2.52667e-06
4.42871e-05
-4.78095e-05
9.05597e-05
-8.71428e-05
8.42675e-05
-0.000110985
7.41302e-05
-7.74571e-05
3.10637e-06
-3.62439e-06
-5.65068e-05
3.96442e-05
-6.27306e-05
5.18489e-05
-2.78809e-05
1.64256e-05
3.17576e-05
-2.34308e-05
4.35526e-05
-3.59662e-05
1.59447e-05
-5.3608e-05
1.63608e-05
-8.32065e-05
1.17524e-05
-0.000128056
1.87338e-05
-0.000162824
1.41915e-05
-0.000177379
-1.3761e-05
-0.000178447
-3.39066e-05
-0.000160629
-6.46018e-05
-0.000126124
-7.10277e-05
-8.98653e-05
-6.94577e-05
-0.000101096
-5.527e-05
2.17818e-05
2.56804e-07
4.29546e-05
3.16609e-06
8.52074e-05
-2.20813e-06
8.75789e-05
7.28474e-06
6.40232e-05
2.26831e-05
-1.23264e-05
1.24809e-05
-4.63054e-05
-1.29281e-05
-3.73216e-05
-3.34958e-05
-7.31361e-06
-4.58694e-05
4.40783e-05
-6.26317e-05
6.00165e-05
-6.90197e-05
2.21136e-05
-5.26717e-05
1.07668e-08
-1.77844e-05
-2.31421e-05
1.7066e-05
-1.61224e-05
3.37895e-05
-2.53253e-06
3.24227e-05
-1.23943e-05
2.20928e-05
-2.35766e-05
-5.41731e-06
-3.70917e-05
-4.485e-05
-3.15948e-05
-9.54274e-05
-1.88802e-05
-0.000156791
6.09334e-06
6.815e-05
-2.80604e-05
7.10118e-05
-2.938e-06
6.00751e-05
2.52416e-05
5.93925e-05
5.24756e-05
3.67885e-05
4.52499e-05
-5.10075e-06
4.26911e-05
-4.37465e-05
3.95913e-05
-3.42218e-05
3.02043e-06
2.92572e-05
-7.12131e-06
5.422e-05
4.64445e-07
5.24306e-05
-1.6119e-05
3.8697e-05
-2.56567e-05
9.54846e-06
-2.54853e-05
-2.33136e-05
-2.1519e-05
-2.00886e-05
-2.24315e-05
-1.62002e-06
-2.67755e-05
-8.05038e-06
-3.43914e-05
-1.59607e-05
-4.91722e-05
-2.23108e-05
-6.94626e-05
-1.13044e-05
-9.61834e-05
7.84056e-06
-0.00013602
4.59296e-05
-0.000173901
0.000106032
0.000208258
-1.30781e-05
8.40898e-05
-4.67915e-06
5.16762e-05
1.14195e-05
4.32938e-05
2.62197e-05
2.19883e-05
3.13276e-05
-1.02086e-05
1.27951e-05
-2.5214e-05
2.66721e-06
-2.40939e-05
-7.24285e-07
3.26487e-05
-9.13113e-06
6.26268e-05
-1.60001e-05
5.92996e-05
-1.32883e-05
3.59853e-05
3.41469e-06
-7.15457e-06
-5.67399e-06
-1.42249e-05
-8.31193e-06
-1.74506e-05
3.92404e-06
-1.3856e-05
8.53687e-06
-1.26632e-05
3.36749e-06
-1.07913e-05
-1.27006e-05
-6.24269e-06
-3.30578e-05
9.05291e-06
-6.01828e-05
3.49655e-05
-8.56859e-05
7.14326e-05
-9.71481e-05
0.000117494
0.000182295
2.67511e-06
8.14147e-05
9.55604e-06
4.47952e-05
2.25324e-05
3.03175e-05
3.22998e-05
1.22209e-05
2.13151e-05
7.76064e-07
5.18978e-06
-9.08875e-06
-6.29641e-06
-1.26078e-05
2.10227e-06
2.425e-05
1.72553e-05
4.74738e-05
3.70081e-05
3.95467e-05
5.04222e-05
2.25712e-05
3.10542e-05
1.22134e-05
1.15813e-05
5.24801e-06
-2.22241e-06
-3.64694e-06
-1.25187e-05
-3.5597e-06
-2.23271e-05
-2.85474e-06
-3.32018e-05
8.33697e-08
-4.46537e-05
5.20921e-06
-5.53011e-05
1.97004e-05
-6.09991e-05
4.06635e-05
-6.08755e-05
7.1309e-05
-4.98908e-05
0.000106509
0.000144606
1.42959e-05
6.71189e-05
1.68593e-05
4.22318e-05
2.01525e-05
2.70244e-05
1.6779e-05
1.55944e-05
1.06689e-05
6.88621e-06
4.28823e-07
1.15129e-06
-1.03113e-05
-1.8676e-06
-7.04649e-07
1.46433e-05
1.70724e-05
2.96968e-05
2.14778e-05
3.51413e-05
1.36171e-05
3.04319e-05
8.16376e-06
1.76668e-05
2.91985e-06
1.04919e-05
-4.87788e-06
4.15081e-06
-9.84707e-06
1.4095e-06
-1.54412e-05
2.73939e-06
-2.20047e-05
6.64692e-06
-3.11245e-05
1.4329e-05
-3.97049e-05
2.82807e-05
-4.60863e-05
4.7045e-05
-4.52642e-05
7.04869e-05
-3.28032e-05
9.40482e-05
0.000117482
1.46568e-05
5.24621e-05
1.78845e-05
3.90041e-05
1.89822e-05
2.59266e-05
1.6967e-05
1.76096e-05
1.11246e-05
1.27287e-05
1.84376e-06
1.04321e-05
-8.8036e-06
8.77975e-06
-9.49653e-06
1.53363e-05
-2.73825e-07
2.04741e-05
7.15171e-06
2.77157e-05
9.21625e-06
2.83673e-05
4.01391e-06
2.28692e-05
-2.83786e-06
1.73437e-05
-1.11151e-05
1.24281e-05
-2.00503e-05
1.03447e-05
-2.85188e-05
1.12079e-05
-3.64292e-05
1.45573e-05
-4.26848e-05
2.05846e-05
-4.53401e-05
3.0936e-05
-4.40235e-05
4.57284e-05
-3.84832e-05
6.49466e-05
-2.79864e-05
8.35514e-05
9.91412e-05
9.91742e-06
4.25447e-05
1.4598e-05
3.43235e-05
1.50015e-05
2.55231e-05
1.21056e-05
2.05055e-05
7.34709e-06
1.74871e-05
1.97159e-06
1.58076e-05
-4.37415e-06
1.51255e-05
-7.14482e-06
1.81069e-05
-6.62091e-06
1.99502e-05
-3.746e-06
2.48408e-05
-2.71908e-06
2.73404e-05
-5.44702e-06
2.55971e-05
-9.49305e-06
2.13898e-05
-1.42104e-05
1.71455e-05
-1.87232e-05
1.48575e-05
-2.2864e-05
1.53487e-05
-2.74953e-05
1.91886e-05
-3.27273e-05
2.58166e-05
-3.70062e-05
3.5215e-05
-3.73596e-05
4.60818e-05
-3.22241e-05
5.98111e-05
-2.25238e-05
7.38511e-05
8.53451e-05
5.80496e-06
3.67397e-05
9.48771e-06
3.06407e-05
9.51303e-06
2.54977e-05
7.55237e-06
2.24662e-05
4.77513e-06
2.02643e-05
1.47963e-06
1.91031e-05
-2.06293e-06
1.8668e-05
-4.00962e-06
2.00536e-05
-5.12265e-06
2.10632e-05
-4.55673e-06
2.42749e-05
-3.37151e-06
2.61552e-05
-3.69458e-06
2.59202e-05
-5.89051e-06
2.35857e-05
-1.00829e-05
2.13379e-05
-1.51928e-05
1.99675e-05
-1.98543e-05
2.00101e-05
-2.34068e-05
2.2741e-05
-2.59206e-05
2.83304e-05
-2.72019e-05
3.64964e-05
-2.67215e-05
4.56014e-05
-2.26664e-05
5.5756e-05
-1.51307e-05
6.63154e-05
7.51567e-05
3.49684e-06
3.32428e-05
5.65703e-06
2.84805e-05
5.64816e-06
2.55066e-05
4.67957e-06
2.34347e-05
3.14461e-06
2.17993e-05
1.33319e-06
2.09145e-05
-5.23467e-07
2.05247e-05
-1.80068e-06
2.13308e-05
-2.80238e-06
2.20649e-05
-2.68431e-06
2.41568e-05
-2.06395e-06
2.55348e-05
-1.75806e-06
2.56143e-05
-2.62153e-06
2.44492e-05
-4.81819e-06
2.35345e-05
-7.87413e-06
2.30234e-05
-1.14721e-05
2.36081e-05
-1.47499e-05
2.60188e-05
-1.70557e-05
3.06362e-05
-1.80251e-05
3.74658e-05
-1.73578e-05
4.49342e-05
-1.37705e-05
5.21687e-05
-7.32515e-06
5.987e-05
6.69413e-05
2.08186e-06
3.11609e-05
3.45048e-06
2.71119e-05
3.66788e-06
2.52892e-05
3.21681e-06
2.38858e-05
2.32723e-06
2.26889e-05
1.26504e-06
2.19767e-05
1.25531e-07
2.16642e-05
-6.70842e-07
2.21272e-05
-1.27203e-06
2.26661e-05
-1.14462e-06
2.40294e-05
-6.29263e-07
2.50195e-05
-2.29781e-07
2.52148e-05
-5.31726e-07
2.47511e-05
-1.71237e-06
2.47152e-05
-3.5788e-06
2.48899e-05
-6.09717e-06
2.61265e-05
-8.73474e-06
-1.06168e-05
-1.10224e-05
-1.02188e-05
-7.37785e-06
-1.79463e-06
1.30789e-06
2.29233e-06
2.62946e-06
2.48889e-06
1.92495e-06
1.14527e-06
2.42778e-07
-4.52642e-07
-1.0015e-06
-9.19811e-07
-4.55484e-07
-1.68137e-07
-5.27847e-07
-1.45659e-06
-2.98691e-06
)
;

boundaryField
{
    leftWall
    {
        type            fixedValue;
        value           uniform 0;
    }
    rightWall
    {
        type            fixedValue;
        value           nonuniform 0();
    }
    lowerWall
    {
        type            fixedValue;
        value           uniform 0;
    }
    atmosphere
    {
        type            calculated;
        value           nonuniform 0();
    }
    defaultFaces
    {
        type            empty;
        value           nonuniform 0();
    }
    procBoundary0to1
    {
        type            processor;
        value           nonuniform List<scalar> 
26
(
-3.42753e-06
-2.30075e-06
-5.37016e-07
-7.36937e-07
-1.44018e-06
-2.67366e-06
-2.61855e-06
-1.55426e-06
6.68438e-06
5.53362e-05
5.59612e-05
7.13992e-05
1.80213e-05
-7.01201e-05
-0.000147541
-0.000203159
-0.000205995
-0.000176164
-7.1185e-05
-1.22011e-05
-5.68013e-06
-9.64522e-06
-8.72769e-06
-4.94221e-06
8.90236e-07
5.55664e-06
)
;
    }
    procBoundary0to2
    {
        type            processor;
        value           nonuniform List<scalar> 
24
(
2.86564e-05
3.25183e-05
3.78714e-05
4.41306e-05
4.93277e-05
5.42868e-05
5.959e-05
2.98531e-05
2.61275e-05
2.4952e-05
2.40264e-05
2.32528e-05
2.27563e-05
2.25667e-05
2.28226e-05
2.3215e-05
2.39477e-05
2.45552e-05
2.49275e-05
2.51109e-05
2.56439e-05
2.64202e-05
-4.97826e-06
2.81179e-05
)
;
    }
}


// ************************************************************************* //
