/*--------------------------------*- C++ -*----------------------------------*\
| =========                 |                                                 |
| \\      /  F ield         | OpenFOAM: The Open Source CFD Toolbox           |
|  \\    /   O peration     | Version:  2.4.0                                 |
|   \\  /    A nd           | Web:      www.OpenFOAM.org                      |
|    \\/     M anipulation  |                                                 |
\*---------------------------------------------------------------------------*/
FoamFile
{
    version     2.0;
    format      ascii;
    class       surfaceScalarField;
    location    "0.7";
    object      phi.mercury;
}
// * * * * * * * * * * * * * * * * * * * * * * * * * * * * * * * * * * * * * //

dimensions      [0 3 -1 0 0 0 0];

internalField   nonuniform List<scalar> 
1101
(
1.93851e-06
-1.93857e-06
4.18506e-06
-2.24662e-06
5.53303e-06
-1.348e-06
7.37668e-06
-1.8437e-06
9.55286e-06
-2.17624e-06
1.08059e-05
-1.25307e-06
1.15983e-05
-7.92388e-07
1.1356e-05
2.42286e-07
1.06446e-05
7.11395e-07
9.4414e-06
1.20321e-06
6.15773e-06
3.28367e-06
1.2069e-06
4.95083e-06
-4.66611e-06
5.87301e-06
-8.95387e-06
4.28776e-06
-1.09076e-05
1.95373e-06
-1.12978e-05
3.90244e-07
-1.11361e-05
-1.61735e-07
-1.04359e-05
-7.00183e-07
-9.40583e-06
-1.0301e-06
-6.97871e-06
-2.42712e-06
-4.45819e-06
-2.52052e-06
-1.03067e-06
1.95395e-06
-4.21427e-06
4.01688e-06
-4.65316e-06
5.716e-06
-3.32565e-06
7.57498e-06
-4.0128e-06
9.45816e-06
-4.36963e-06
1.08611e-05
-2.88593e-06
1.18971e-05
-1.9825e-06
1.24087e-05
-3.32385e-07
1.21064e-05
1.00135e-06
1.01429e-05
3.166e-06
5.5796e-06
7.84695e-06
1.12092e-07
1.04183e-05
-5.67923e-06
1.16643e-05
-9.59549e-06
8.20403e-06
-1.11189e-05
3.47716e-06
-1.12543e-05
5.25641e-07
-1.09795e-05
-4.36569e-07
-1.02716e-05
-1.40807e-06
-8.86714e-06
-2.43454e-06
-6.61709e-06
-4.67717e-06
-4.10449e-06
-5.03312e-06
-2.83441e-06
1.95813e-06
-1.99393e-05
3.74037e-06
-2.03336e-05
5.95755e-06
-1.90022e-05
7.7735e-06
-1.96054e-05
9.11496e-06
-1.94901e-05
1.05015e-05
-1.7542e-05
1.14722e-05
-1.54867e-05
1.17995e-05
-1.2053e-05
1.07398e-05
-7.52761e-06
9.51441e-06
-5.35427e-07
6.36962e-06
1.05061e-05
1.57768e-06
1.52008e-05
-4.03505e-06
1.7277e-05
-8.4573e-06
1.26263e-05
-1.12358e-05
6.25565e-06
-1.21394e-05
1.42926e-06
-1.17705e-05
-8.05526e-07
-1.07159e-05
-2.46259e-06
-8.70262e-06
-4.44787e-06
-5.92493e-06
-7.45485e-06
-2.98286e-06
-7.9752e-06
-5.28025e-06
1.89626e-06
-4.62311e-05
3.18332e-06
-4.52873e-05
5.88933e-06
-4.58477e-05
7.57687e-06
-4.42671e-05
8.23638e-06
-4.18708e-05
9.89838e-06
-4.03049e-05
1.17299e-05
-3.81969e-05
1.38191e-05
-3.73568e-05
1.46533e-05
-3.39951e-05
1.0957e-05
-2.65033e-05
4.23047e-06
-6.50257e-06
-1.12588e-06
1.43279e-05
-6.07283e-06
2.21484e-05
-9.76697e-06
1.63193e-05
-1.16756e-05
8.16421e-06
-1.23832e-05
2.1369e-06
-1.18263e-05
-1.36241e-06
-1.05057e-05
-3.78317e-06
-8.33717e-06
-6.61645e-06
-6.45033e-06
-9.34169e-06
-3.75452e-06
-1.0671e-05
-8.29784e-06
1.35402e-06
-2.75401e-05
2.34708e-06
-2.64857e-05
3.82559e-06
-2.74385e-05
4.80362e-06
-2.55046e-05
4.92848e-06
-2.29233e-05
5.50974e-06
-2.24083e-05
6.43511e-06
-2.1522e-05
8.82058e-06
-2.26632e-05
1.11013e-05
-2.25101e-05
8.65335e-06
-2.87153e-05
2.52443e-06
-1.81701e-05
-5.73138e-06
5.30116e-06
-1.07492e-05
2.22415e-05
-1.29831e-05
1.84662e-05
-1.36465e-05
8.82619e-06
-1.31707e-05
1.66108e-06
-1.17439e-05
-2.78922e-06
-9.77043e-06
-5.7567e-06
-7.72502e-06
-8.66186e-06
-6.87872e-06
-1.0188e-05
-5.00822e-06
-1.25415e-05
-1.18659e-05
-8.98443e-08
-1.17902e-05
-5.11858e-08
-1.14793e-05
-5.55472e-07
-1.16958e-05
-1.4222e-06
-1.01143e-05
-2.3949e-06
-8.19577e-06
-3.76674e-06
-8.07659e-06
-5.69706e-06
-6.37115e-06
-6.96104e-06
-4.67642e-06
-1.21143e-06
-2.35107e-06
5.26808e-06
-1.00041e-05
2.53718e-06
-1.46802e-05
-7.71342e-06
-1.7168e-07
-1.66737e-05
1.74171e-05
-1.82665e-05
1.85664e-05
-1.81548e-05
8.69027e-06
-1.63117e-05
-1.8311e-07
-1.2986e-05
-6.11522e-06
-9.47872e-06
-9.2641e-06
-7.16222e-06
-1.09791e-05
-6.89222e-06
-1.04616e-05
-5.80017e-06
-1.36583e-05
-1.50304e-05
-2.80543e-07
-1.17775e-05
-3.11012e-07
-1.14839e-05
2.18905e-08
-1.16185e-05
2.29055e-08
-9.51988e-06
-4.26033e-07
-6.91961e-06
-9.42247e-07
-6.20904e-06
-2.92393e-06
-3.87586e-06
-6.27979e-06
-5.45186e-07
-1.15423e-05
3.83852e-06
-1.42817e-05
8.93008e-06
-1.92394e-05
1.85791e-06
-2.29677e-05
-5.68585e-06
-2.39547e-05
7.27278e-06
-2.47016e-05
1.35231e-05
-2.33566e-05
7.0653e-06
-2.07783e-05
-2.78391e-06
-1.64193e-05
-1.04989e-05
-1.12895e-05
-1.44909e-05
-8.02185e-06
-1.46081e-05
-7.16369e-06
-1.20253e-05
-5.40932e-06
-1.68738e-05
-1.95136e-05
-1.45231e-07
-1.26636e-05
-2.11464e-07
-1.24808e-05
-6.90583e-07
-1.22795e-05
-1.2102e-06
-1.03571e-05
-2.03901e-06
-7.70319e-06
-4.02882e-06
-6.49392e-06
-5.29187e-06
-5.32174e-06
-5.74549e-06
-3.7797e-06
-5.80006e-06
-9.54854e-08
-1.26663e-05
7.81491e-06
-2.28805e-05
1.00607e-05
-3.33825e-05
-1.03538e-05
-3.43049e-05
-1.20474e-06
-3.47449e-05
2.90192e-06
-3.35654e-05
-6.36776e-07
-2.82704e-05
-1.16741e-05
-2.18243e-05
-2.00474e-05
-1.65016e-05
-2.40745e-05
-1.17624e-05
-2.57789e-05
-6.96401e-06
-2.51353e-05
-3.83346e-06
-3.03937e-05
-3.23611e-05
-1.05741e-06
-7.65264e-06
-4.28631e-07
-8.61534e-06
3.89074e-06
-1.10796e-05
7.71447e-06
-8.09441e-06
7.1469e-06
-1.61264e-06
4.42575e-06
1.55406e-06
-2.29162e-06
8.17902e-06
-1.32593e-05
1.44109e-05
-2.60526e-05
1.92674e-05
-3.45048e-05
2.06367e-05
-3.61196e-05
2.00083e-05
-5.59856e-05
-1.35708e-06
-5.36195e-05
-1.04511e-05
-5.358e-05
-1.28178e-05
-5.31153e-05
-2.10942e-05
-4.97426e-05
-4.4377e-05
-4.75382e-05
-5.16248e-05
-4.19352e-05
-5.52924e-05
-3.05341e-05
-6.41383e-05
-1.17378e-05
-8.04554e-05
1.74289e-06
-8.55429e-05
-8.45433e-05
1.16475e-06
-8.18543e-06
2.25396e-06
-9.76825e-06
3.53924e-06
-1.38438e-05
3.64073e-06
-1.01993e-05
4.06064e-06
-3.29782e-06
3.83739e-06
8.52873e-07
1.40821e-06
9.27147e-06
-4.94803e-07
1.47483e-05
-1.59257e-06
1.8907e-05
-4.0694e-06
2.22216e-05
-1.41652e-05
2.28561e-05
-2.46104e-05
8.69965e-06
-2.13596e-05
-5.18949e-06
-1.50935e-05
-1.78477e-05
6.84923e-07
-3.21493e-05
1.99703e-05
-4.64181e-05
2.80149e-05
-5.54276e-05
3.4707e-05
-6.49906e-05
4.26877e-05
-7.59521e-05
4.30943e-05
-8.34625e-05
4.17085e-05
-7.95707e-05
-7.28867e-05
-3.95832e-06
-4.9068e-06
-4.2136e-06
-1.00314e-05
5.46135e-06
-2.36259e-05
1.3229e-05
-1.78442e-05
1.18932e-05
-2.115e-06
2.62657e-06
9.08418e-06
-6.66513e-06
1.79254e-05
-1.25806e-05
2.10041e-05
-1.45702e-05
2.20991e-05
-1.36546e-05
2.39238e-05
-9.27245e-06
2.414e-05
-4.44008e-06
2.1919e-05
-2.6819e-07
4.22478e-06
1.02562e-05
-2.92212e-06
2.22428e-05
-1.66167e-05
3.59537e-05
-2.51776e-05
4.53302e-05
-3.87674e-05
5.27235e-05
-4.95653e-05
5.932e-05
-5.68979e-05
6.34708e-05
-5.99892e-05
6.79631e-05
-5.52251e-05
-5.00555e-05
-9.31665e-06
4.81032e-06
-8.8495e-06
-1.02348e-05
-3.80073e-06
-2.94865e-05
-1.01783e-05
-1.47799e-05
-1.82366e-05
-3.20464e-07
-2.25639e-05
8.95607e-06
-2.23485e-05
1.48827e-05
-2.32624e-05
1.92676e-05
-2.17527e-05
1.82731e-05
-2.11448e-05
2.11413e-05
-1.77054e-05
1.87832e-05
-1.055e-05
1.4349e-05
9.63557e-07
8.71233e-06
1.14034e-05
4.96335e-07
2.12376e-05
-7.30196e-06
2.95663e-05
-1.5649e-05
3.63645e-05
-2.23848e-05
4.50643e-05
-3.34761e-05
5.1706e-05
-4.06367e-05
5.46405e-05
-4.91303e-05
6.16689e-05
-6.04859e-05
-7.04949e-05
-1.58688e-05
-1.60815e-05
-3.48968e-05
-2.97113e-05
-6.98711e-05
-4.13333e-05
-0.000104301
-3.76252e-05
-0.000114807
-4.03475e-05
-0.00010945
-4.91563e-05
-9.32952e-05
-4.94571e-05
-7.43792e-05
-2.604e-05
-5.90072e-05
-1.68959e-05
-4.7426e-05
-6.74755e-06
-3.95416e-05
-7.06709e-06
-3.08797e-05
-1.74968e-05
-1.82131e-05
-3.47821e-05
-5.7016e-06
-4.12236e-05
5.3635e-06
-5.60285e-05
1.32371e-05
-7.25055e-05
1.71577e-05
-8.89379e-05
2.04485e-05
-0.000119435
2.26796e-05
-0.000147538
2.45992e-05
-0.000168488
2.89752e-05
-8.56519e-05
-6.17887e-05
-2.10183e-05
-5.28357e-05
-5.52617e-05
-7.07308e-05
-9.52222e-05
-6.68272e-05
-0.000121236
-6.00533e-05
-0.00012978
-6.74155e-05
-0.000128362
-7.95122e-05
-0.000118542
-7.52391e-05
-0.000103226
-7.29128e-05
-9.25928e-05
-6.36213e-05
-8.45142e-05
-5.56209e-05
-7.713e-05
-5.64888e-05
-6.90665e-05
-8.01872e-05
-5.67165e-05
-0.000103181
-4.46813e-05
-0.000105857
-3.86234e-05
-7.4086e-05
-3.53888e-05
-6.38453e-05
-4.35182e-05
-7.04798e-05
-5.0932e-05
-7.05026e-05
-5.79732e-05
-6.19502e-05
-8.62053e-05
-3.60374e-05
-6.70767e-05
-6.64997e-05
-2.46727e-05
-2.36503e-05
-4.15293e-05
-5.85971e-05
-4.07428e-05
-8.81301e-05
-1.92619e-05
-0.000112192
6.5471e-06
-8.55159e-05
-7.05534e-06
-1.12531e-05
-5.68134e-05
3.75977e-05
-6.27378e-05
2.46396e-05
-2.80987e-05
-2.6525e-05
1.6777e-05
-5.28319e-05
4.00442e-06
-4.86281e-05
-1.48006e-05
-5.45089e-05
1.47929e-05
-8.29594e-05
6.65926e-06
-0.000125762
1.45072e-05
-0.000162259
1.38775e-05
-0.000177295
-1.37778e-05
-0.000178419
-3.39112e-05
-0.000160619
-6.46119e-05
-0.000126112
-7.104e-05
-8.9843e-05
-6.94719e-05
-0.000101065
-5.52873e-05
2.17677e-05
-1.98091e-06
4.18405e-05
-5.56089e-07
8.06227e-05
-3.75316e-06
8.47398e-05
7.18937e-06
6.37794e-05
2.26905e-05
-1.23263e-05
1.24887e-05
-4.63071e-05
-1.29251e-05
-3.73253e-05
-3.34916e-05
-7.31641e-06
-4.58622e-05
4.40747e-05
-6.26276e-05
5.99874e-05
-6.90115e-05
2.21045e-05
-5.26661e-05
4.61421e-09
-1.77789e-05
-2.31481e-05
1.70767e-05
-1.61272e-05
3.37985e-05
-2.54071e-06
3.24265e-05
-1.24071e-05
2.2099e-05
-2.3588e-05
-5.41048e-06
-3.71039e-05
-4.48399e-05
-3.1608e-05
-9.5411e-05
-1.88949e-05
-0.000156768
6.07216e-06
6.81242e-05
-2.806e-05
7.10097e-05
-2.93709e-06
6.0074e-05
2.52429e-05
5.93922e-05
5.24788e-05
3.67882e-05
4.5255e-05
-5.10183e-06
4.26961e-05
-4.37486e-05
3.95952e-05
-3.42248e-05
3.0243e-06
2.92538e-05
-7.11692e-06
5.42162e-05
4.69158e-07
5.24267e-05
-1.61135e-05
3.86923e-05
-2.56504e-05
9.5427e-06
-2.54784e-05
-2.33203e-05
-2.15106e-05
-2.0096e-05
-2.24236e-05
-1.62879e-06
-2.67704e-05
-8.06126e-06
-3.43868e-05
-1.59732e-05
-4.91663e-05
-2.23248e-05
-6.94529e-05
-1.132e-05
-9.61672e-05
7.82283e-06
-0.000136002
4.5906e-05
-0.000173883
0.000105999
0.000208238
-1.30779e-05
8.40877e-05
-4.67796e-06
5.1674e-05
1.14217e-05
4.32923e-05
2.6223e-05
2.19867e-05
3.13313e-05
-1.02106e-05
1.27991e-05
-2.52168e-05
2.67102e-06
-2.40973e-05
-7.20754e-07
3.26448e-05
-9.12756e-06
6.26223e-05
-1.59959e-05
5.92946e-05
-1.32837e-05
3.59798e-05
3.42009e-06
-7.16083e-06
-5.66824e-06
-1.42322e-05
-8.30645e-06
-1.74593e-05
3.92869e-06
-1.38663e-05
8.53992e-06
-1.26757e-05
3.37042e-06
-1.08056e-05
-1.26964e-05
-6.25874e-06
-3.30494e-05
9.03499e-06
-6.01679e-05
3.49455e-05
-8.56687e-05
7.14096e-05
-9.71336e-05
0.000117465
0.000182266
2.67571e-06
8.14125e-05
9.55706e-06
4.4793e-05
2.25341e-05
3.03152e-05
3.23022e-05
1.22185e-05
2.13181e-05
7.73321e-07
5.193e-06
-9.09204e-06
-6.29319e-06
-1.26116e-05
2.10549e-06
2.42456e-05
1.72584e-05
4.74688e-05
3.70115e-05
3.95413e-05
5.0426e-05
2.25652e-05
3.10585e-05
1.22066e-05
1.15859e-05
5.23998e-06
-2.21829e-06
-3.65663e-06
-1.25156e-05
-3.57108e-06
-2.23255e-05
-2.86818e-06
-3.32002e-05
6.8253e-08
-4.46508e-05
5.19226e-06
-5.52946e-05
1.96817e-05
-6.09867e-05
4.06427e-05
-6.08595e-05
7.12859e-05
-4.98741e-05
0.000106482
0.000144576
1.42964e-05
6.71164e-05
1.68605e-05
4.22292e-05
2.01542e-05
2.70217e-05
1.67812e-05
1.55916e-05
1.06713e-05
6.88308e-06
4.31468e-07
1.14763e-06
-1.03087e-05
-1.8718e-06
-7.02133e-07
1.46385e-05
1.70748e-05
2.96914e-05
2.14804e-05
3.51353e-05
1.36201e-05
3.04254e-05
8.16694e-06
1.76596e-05
2.92282e-06
1.04834e-05
-4.87573e-06
4.14071e-06
-9.84657e-06
1.39769e-06
-1.54416e-05
2.72565e-06
-2.20051e-05
6.63155e-06
-3.11231e-05
1.43122e-05
-3.97002e-05
2.82623e-05
-4.60767e-05
4.70247e-05
-4.52512e-05
7.04648e-05
-3.27882e-05
9.40229e-05
0.000117454
1.46573e-05
5.24595e-05
1.78854e-05
3.90014e-05
1.89836e-05
2.59237e-05
1.69688e-05
1.76065e-05
1.11266e-05
1.27252e-05
1.84588e-06
1.04282e-05
-8.8015e-06
8.7753e-06
-9.49461e-06
1.53312e-05
-2.72152e-07
2.04685e-05
7.15325e-06
2.77096e-05
9.21787e-06
2.83606e-05
4.01567e-06
2.28615e-05
-2.83648e-06
1.73348e-05
-1.11147e-05
1.24178e-05
-2.00513e-05
1.03328e-05
-2.85207e-05
1.11946e-05
-3.64307e-05
1.45427e-05
-4.26846e-05
2.05688e-05
-4.5337e-05
3.09191e-05
-4.40163e-05
4.57094e-05
-3.84732e-05
6.4926e-05
-2.79745e-05
8.35281e-05
9.91151e-05
9.91779e-06
4.25418e-05
1.45987e-05
3.43206e-05
1.50025e-05
2.552e-05
1.21069e-05
2.05022e-05
7.3486e-06
1.74835e-05
1.97319e-06
1.58035e-05
-4.37259e-06
1.51209e-05
-7.14344e-06
1.81018e-05
-6.61976e-06
1.99444e-05
-3.74499e-06
2.48345e-05
-2.71811e-06
2.73334e-05
-5.4463e-06
2.55892e-05
-9.49297e-06
2.13809e-05
-1.42116e-05
1.71355e-05
-1.87257e-05
1.48463e-05
-2.28673e-05
1.53364e-05
-2.7498e-05
1.91753e-05
-3.2728e-05
2.58029e-05
-3.70046e-05
3.51996e-05
-3.73543e-05
4.60656e-05
-3.22163e-05
5.97924e-05
-2.25145e-05
7.38305e-05
8.53219e-05
5.80525e-06
3.67368e-05
9.48824e-06
3.06377e-05
9.51378e-06
2.54945e-05
7.5533e-06
2.24627e-05
4.77618e-06
2.02605e-05
1.48071e-06
1.90989e-05
-2.06192e-06
1.86633e-05
-4.00879e-06
2.00484e-05
-5.12207e-06
2.10575e-05
-4.55639e-06
2.42686e-05
-3.37143e-06
2.61482e-05
-3.69496e-06
2.59124e-05
-5.89169e-06
2.35771e-05
-1.00852e-05
2.13284e-05
-1.51963e-05
1.99573e-05
-1.98585e-05
1.99993e-05
-2.34098e-05
2.27302e-05
-2.59227e-05
2.83182e-05
-2.72007e-05
3.64845e-05
-2.67187e-05
4.55867e-05
-2.26603e-05
5.57408e-05
-1.51237e-05
6.62972e-05
7.51366e-05
3.49701e-06
3.32397e-05
5.65737e-06
2.84774e-05
5.64864e-06
2.55033e-05
4.68015e-06
2.34312e-05
3.14523e-06
2.17954e-05
1.33379e-06
2.09102e-05
-5.22976e-07
2.052e-05
-1.80039e-06
2.13256e-05
-2.80236e-06
2.20592e-05
-2.68459e-06
2.41506e-05
-2.06463e-06
2.5528e-05
-1.75929e-06
2.56068e-05
-2.62362e-06
2.4441e-05
-4.8213e-06
2.35258e-05
-7.87825e-06
2.30144e-05
-1.14763e-05
2.35989e-05
-1.47542e-05
2.6009e-05
-1.70575e-05
3.06269e-05
-1.80265e-05
3.74543e-05
-1.73555e-05
4.49231e-05
-1.37673e-05
5.21544e-05
-7.31992e-06
5.98548e-05
6.69228e-05
2.08197e-06
3.11579e-05
3.45066e-06
2.71087e-05
3.66812e-06
2.52858e-05
3.21707e-06
2.38822e-05
2.32747e-06
2.2685e-05
1.26519e-06
2.19724e-05
1.25536e-07
2.16595e-05
-6.71066e-07
2.21221e-05
-1.27255e-06
2.26606e-05
-1.14551e-06
2.40234e-05
-6.30604e-07
2.5013e-05
-2.31733e-07
2.52078e-05
-5.3443e-07
2.47436e-05
-1.71581e-06
2.47072e-05
-3.58316e-06
2.48814e-05
-6.10188e-06
2.61181e-05
-8.73858e-06
-1.06207e-05
-1.10235e-05
-1.02195e-05
-7.37562e-06
-1.79257e-06
1.30786e-06
2.29233e-06
2.62947e-06
2.48886e-06
1.92484e-06
1.14503e-06
2.4235e-07
-4.53324e-07
-1.00251e-06
-9.2121e-07
-4.57376e-07
-1.70615e-07
-5.30964e-07
-1.4606e-06
-2.99115e-06
)
;

boundaryField
{
    leftWall
    {
        type            fixedValue;
        value           uniform 0;
    }
    rightWall
    {
        type            fixedValue;
        value           nonuniform 0();
    }
    lowerWall
    {
        type            fixedValue;
        value           uniform 0;
    }
    atmosphere
    {
        type            calculated;
        value           nonuniform 0();
    }
    defaultFaces
    {
        type            empty;
        value           nonuniform 0();
    }
    procBoundary0to1
    {
        type            processor;
        value           nonuniform List<scalar> 
26
(
-3.42753e-06
-2.30075e-06
-5.37016e-07
-7.36934e-07
-1.44018e-06
-2.67365e-06
-2.61608e-06
-1.49521e-06
7.26915e-06
4.37375e-05
7.37114e-05
6.8838e-05
3.03572e-05
-6.99458e-05
-0.000147551
-0.000203124
-0.000205992
-0.000176136
-7.11755e-05
-1.21919e-05
-5.67127e-06
-9.63833e-06
-8.72199e-06
-4.93836e-06
8.91878e-07
5.55698e-06
)
;
    }
    procBoundary0to2
    {
        type            processor;
        value           nonuniform List<scalar> 
24
(
2.86479e-05
3.25084e-05
3.78624e-05
4.4119e-05
4.93163e-05
5.42728e-05
5.95747e-05
2.98497e-05
2.61241e-05
2.49485e-05
2.40227e-05
2.32489e-05
2.27522e-05
2.25622e-05
2.28177e-05
2.32097e-05
2.39421e-05
2.45491e-05
2.4921e-05
2.51039e-05
2.56365e-05
2.64129e-05
-4.98313e-06
2.81099e-05
)
;
    }
}


// ************************************************************************* //
