/*--------------------------------*- C++ -*----------------------------------*\
| =========                 |                                                 |
| \\      /  F ield         | OpenFOAM: The Open Source CFD Toolbox           |
|  \\    /   O peration     | Version:  2.4.0                                 |
|   \\  /    A nd           | Web:      www.OpenFOAM.org                      |
|    \\/     M anipulation  |                                                 |
\*---------------------------------------------------------------------------*/
FoamFile
{
    version     2.0;
    format      ascii;
    class       volScalarField;
    location    "0.7";
    object      rho;
}
// * * * * * * * * * * * * * * * * * * * * * * * * * * * * * * * * * * * * * //

dimensions      [1 -3 0 0 0 0 0];

internalField   nonuniform List<scalar> 
575
(
13529
13529
13529
13529
13529
13529
13529
13529
13529
13529
13529
13529
13529
13529
13529
13529
13529
13529
13529
13529
13529
13529
13528.5
13528.4
13528.7
13528.5
13528.5
13528.7
13528.9
13529
13529
13529
13529
13529
13529
13529
13529
13529
13529
13529
13529
13529
13529
13529
13226.6
13208.7
13264.5
13238
13239.3
13310
13379.8
13465.2
13515.5
13526.9
13528.7
13529
13529
13529
13529
13529
13529
13529
13529
13529
13529
13529
6091.28
6055.2
6190.42
6120.39
6160.78
6391.68
6790.21
7453.81
8542.09
10324.1
12907.3
13511
13528.7
13529
13529
13529
13529
13529
13529
13529
13529
13529
1001.65
1001.58
1001.63
1001.53
1001.44
1001.41
1001.47
1001.81
1014.6
1436.75
4160.86
10189.7
13381.4
13525.1
13528.5
13528.9
13529
13529
13529
13529
13529
13529
1000.06
1000.06
1000.06
1000.06
1000.06
1000.06
1000.06
1000.06
1000.06
1000.85
1078.4
2983.16
10984
13451.6
13525.5
13528.4
13528.8
13528.9
13528.9
13528.9
13528.9
13528.8
1000.09
1000.08
1000.08
1000.08
1000.07
1000.06
1000.06
1000.06
1000.06
1000.06
1001.27
1354.42
6589.7
12899.1
13504.9
13526.2
13527.7
13528.2
13526.9
13523.4
13505.6
13493.5
1000.09
1000.09
1000.07
1000.07
1000.07
1000.05
1000.06
1000.07
1000.07
1000.08
1000.43
1117.46
3596.29
10662.5
13377.3
13503.3
13502.5
13435.3
13202.2
12935.7
12446.8
12290.9
1000.04
1000.03
1000.03
1000.03
1000.03
1000.01
1000.01
1000.01
1000.02
1000.05
1000.11
1012.61
1421.73
3560.26
7446.34
9793.78
10068.4
9279.92
7639.88
6312.39
5336.5
5272.89
1000.01
1000
999.999
999.912
999.777
998.203
998.395
998.938
999.503
999.768
999.91
1000.92
1012.32
1123.83
1281.83
1208.52
1259.29
1418.58
1393.91
1286.21
1159.32
1075.9
1000
999.981
996.822
984.376
976.985
942.728
947.164
971
986.748
993.71
997.17
998.813
1000.71
1001.67
1003.12
1001.51
1000.47
996.336
985.162
960.619
931.699
906.185
999.99
995.45
909.782
807.239
731.319
654.393
684.366
763.972
820.202
868.758
907.306
941.076
976.085
990.808
985.662
953.132
931.084
890.466
838.043
777.708
698.444
613.429
998.593
935.258
695.058
537.377
486.59
510.111
545.876
555.962
571.663
592.629
610.069
634.568
675.367
695.274
680.912
653.992
644.629
524.636
390.408
256.159
117.416
41.7881
469.272
443.486
337.158
171.52
76.1753
68.7727
159.386
268.788
327.762
355.967
346.507
307.158
282.891
274.018
233.026
169.993
92.2085
18.4371
3.04092
1.03766
1.00227
1.00214
16.9002
19.6881
15.9789
5.43622
1.57155
1.19589
1.00026
1.03662
1.74555
4.20276
3.89259
1.03207
1.07351
1.0585
1.01194
1.00253
1.00067
1.00016
1.00006
1.00004
1.0002
1.0008
1.05303
1.09891
1.07038
1.01216
1.00039
1.00006
1.00001
1.00004
1.00029
1.00233
1.00099
1.00004
1.00002
1.00001
1.00001
1.00004
1.00012
1.00008
1.00006
1.00003
1.00013
1.00042
1.00009
1.0001
1.00017
1.00022
1.0001
1.00002
1.00001
1.00001
1.00002
1.00001
1.00001
1.00001
1.00002
1.00005
1.00009
1.00009
1.0001
1.00008
1.00005
1.00003
1.00006
1.00019
1.00044
1.00004
1.00004
1.00005
1.00006
1.00001
1
1.00001
1.00003
1.00002
1.00001
1.00001
1.00001
1.00003
1.00012
1.00015
1.0002
1.00019
1.00019
1.0001
1.00003
1.00003
1.00007
1.00016
1.00005
1.00004
1.00003
1.00002
1
1
1.00001
1.00003
1.00003
1.00002
1.00002
1.00002
1.00004
1.00012
1.00018
1.00018
1.00014
1.00011
1.00007
1.00003
1.00003
1.00003
1.00008
1.00006
1.00004
1.00002
1
0.999999
0.999999
1
1.00002
1.00002
1.00003
1.00004
1.00004
1.00003
1.00004
1.00009
1.00003
1.00002
1.00002
1.00003
1.00004
1.00004
1.00003
1.00002
1.00005
1.00002
1.00001
0.999999
0.999999
0.999999
1
1
1.00001
1.00003
1.00004
1.00002
1.00002
1.00002
1.00002
1.00002
1.00002
1.00001
1.00002
1.00002
1.00003
1.00002
1.00001
1.00002
1.00001
1
0.999999
0.999999
0.999999
1
1
1
1.00001
1.00001
1
1.00001
1.00001
1.00002
1.00004
1.00003
1.00001
1.00001
1.00001
1.00001
1.00001
1.00001
1.00001
1
0.999999
0.999999
0.999999
0.999999
1
1
1
1
1
1
1.00001
1.00002
1.00005
1.00006
1.00003
1.00002
1.00001
1
1.00001
1
1
0.999999
0.999999
0.999999
0.999999
0.999999
1
1
1
1
1
1
1
1
1.00002
1.00006
1.00006
1.00005
1.00002
1.00001
1
1
1
1
0.999999
0.999999
0.999999
0.999999
0.999999
1
1
1
1
1
1
1
1
1.00002
1.00005
1.00005
1.00003
1.00002
1.00001
1
1
1
0.999999
0.999999
0.999999
0.999999
0.999999
1
1
1
1
1
1
1
1
1
1.00001
1.00002
1.00003
)
;

boundaryField
{
    leftWall
    {
        type            calculated;
        value           nonuniform List<scalar> 
26
(
13529
13528.5
13226.6
6091.28
1001.65
1000.06
1000.09
1000.09
1000.04
1000.01
1000
999.99
998.593
469.272
16.9002
1.05303
1.00009
1.00004
1.00005
1.00006
1.00005
1.00002
1.00001
0.999999
0.999999
0.999999
)
;
    }
    rightWall
    {
        type            calculated;
        value           nonuniform 0();
    }
    lowerWall
    {
        type            calculated;
        value           nonuniform List<scalar> 
22
(
13529
13529
13529
13529
13529
13529
13529
13529
13529
13529
13529
13529
13529
13529
13529
13529
13529
13529
13529
13529
13529
13529
)
;
    }
    atmosphere
    {
        type            calculated;
        value           nonuniform 0();
    }
    defaultFaces
    {
        type            empty;
    }
    procBoundary0to1
    {
        type            processor;
        value           nonuniform List<scalar> 
26
(
13528.9
13528.8
13528.8
13528.8
13528.8
13528.8
13524.1
13061.7
6876.24
1063.45
888.852
554.281
11.907
1.10537
1.00388
1.00102
1.00102
1.001
1.00031
1.00012
1.00004
1.00001
1.00001
1
1
0.999999
)
;
    }
    procBoundary0to2
    {
        type            processor;
        value           nonuniform List<scalar> 
24
(
1.00003
1.00002
1.00001
1
1
0.999999
0.999999
0.999999
0.999999
0.999999
0.999999
1
1
1
1
1
1
1
1
1
1.00001
1.00001
1.00003
1.00001
)
;
    }
}


// ************************************************************************* //
