/*--------------------------------*- C++ -*----------------------------------*\
| =========                 |                                                 |
| \\      /  F ield         | OpenFOAM: The Open Source CFD Toolbox           |
|  \\    /   O peration     | Version:  2.4.0                                 |
|   \\  /    A nd           | Web:      www.OpenFOAM.org                      |
|    \\/     M anipulation  |                                                 |
\*---------------------------------------------------------------------------*/
FoamFile
{
    version     2.0;
    format      ascii;
    class       volVectorField;
    location    "0.7";
    object      U;
}
// * * * * * * * * * * * * * * * * * * * * * * * * * * * * * * * * * * * * * //

dimensions      [0 1 -1 0 0 0 0];

internalField   nonuniform List<vector> 
575
(
(0.0120559 0.00183958 0)
(0.0333792 0.000385051 0)
(0.0594238 0.00494463 0)
(0.069859 0.00209051 0)
(0.0957005 3.84602e-07 0)
(0.120157 0.00380765 0)
(0.127897 0.00695971 0)
(0.131796 0.0148016 0)
(0.12345 0.0222723 0)
(0.116758 0.0348523 0)
(0.0934209 0.0520829 0)
(0.0482926 0.0524831 0)
(-0.0178939 0.0382013 0)
(-0.0850132 0.019507 0)
(-0.12079 0.00152672 0)
(-0.130688 -0.00746572 0)
(-0.129731 -0.00566562 0)
(-0.126765 -0.00683478 0)
(-0.115451 -0.00321531 0)
(-0.101163 -0.0105085 0)
(-0.0594898 -0.0051889 0)
(-0.0436683 -0.000771751 0)
(0.0135108 -0.0200464 0)
(0.0314557 -0.0219376 0)
(0.0587643 -0.0168474 0)
(0.0736059 -0.0192681 0)
(0.0966501 -0.020711 0)
(0.118047 -0.0147966 0)
(0.13024 -0.0137495 0)
(0.137545 -0.011805 0)
(0.141022 -0.0159712 0)
(0.130071 -0.0252913 0)
(0.0958553 -0.021107 0)
(0.0370255 0.00139877 0)
(-0.0319804 0.0310036 0)
(-0.0940588 0.0295619 0)
(-0.126099 0.0180834 0)
(-0.131502 0.0103718 0)
(-0.128189 0.00362688 0)
(-0.124265 -0.00125946 0)
(-0.11437 -0.00822683 0)
(-0.0903925 -0.0158258 0)
(-0.0614903 -0.0215545 0)
(-0.0340466 -0.0108895 0)
(0.014691 -0.0285097 0)
(0.0295914 -0.0313775 0)
(0.0558937 -0.0220771 0)
(0.0807353 -0.0271409 0)
(0.0942351 -0.029693 0)
(0.113037 -0.0193301 0)
(0.124676 -0.0098914 0)
(0.132067 0.00816124 0)
(0.13207 0.0297775 0)
(0.117699 0.0690507 0)
(0.0938493 0.117686 0)
(0.0491442 0.112667 0)
(-0.0113234 0.0846689 0)
(-0.0763071 0.054348 0)
(-0.119665 0.0211642 0)
(-0.139951 -0.00273023 0)
(-0.140638 -0.00770599 0)
(-0.130677 -0.0130033 0)
(-0.118722 -0.0173716 0)
(-0.0815159 -0.0335727 0)
(-0.0548359 -0.031983 0)
(-0.014651 -0.0195193 0)
(0.015897 -0.0706836 0)
(0.0261146 -0.0708356 0)
(0.0481166 -0.0705054 0)
(0.0829888 -0.0694549 0)
(0.0880508 -0.0671638 0)
(0.0973394 -0.0633091 0)
(0.119206 -0.0613118 0)
(0.142803 -0.0579139 0)
(0.161119 -0.0520827 0)
(0.144378 -0.0309879 0)
(0.0893314 -0.0160252 0)
(0.0152811 0.0606048 0)
(-0.0401247 0.114408 0)
(-0.0934079 0.0859264 0)
(-0.128767 0.044527 0)
(-0.143494 0.014933 0)
(-0.143025 -0.0018404 0)
(-0.129627 -0.0146954 0)
(-0.114281 -0.0301343 0)
(-0.0803358 -0.0476672 0)
(-0.0679657 -0.0542808 0)
(-0.0177521 -0.0359442 0)
(0.00485267 0.040205 0)
(0.0168162 0.0428575 0)
(0.0251772 0.0371507 0)
(0.0381435 0.0423104 0)
(0.0411068 0.0508249 0)
(0.0382502 0.0500302 0)
(0.0460411 0.0688884 0)
(0.0498133 0.11266 0)
(0.0458685 0.197138 0)
(0.00758844 0.278758 0)
(-0.000886299 0.229993 0)
(-0.042065 0.122796 0)
(-0.0948944 0.11589 0)
(-0.14315 0.0915928 0)
(-0.160428 0.0482981 0)
(-0.158667 0.0115673 0)
(-0.147017 -0.0119891 0)
(-0.124929 -0.0265416 0)
(-0.102332 -0.0426682 0)
(-0.077856 -0.053709 0)
(-0.0800397 -0.0626756 0)
(-0.0347802 -0.0552217 0)
(-0.00363467 -0.127307 0)
(0.00213263 -0.126184 0)
(-0.00199309 -0.125501 0)
(-0.0106448 -0.118993 0)
(-0.0207376 -0.108174 0)
(-0.0341371 -0.105574 0)
(-0.0530983 -0.111446 0)
(-0.0784675 -0.132305 0)
(-0.0791599 -0.155938 0)
(-0.0471522 -0.124493 0)
(-0.000544397 0.0378894 0)
(-0.136872 0.244899 0)
(-0.177366 0.154213 0)
(-0.197889 0.100693 0)
(-0.218325 0.0418199 0)
(-0.205321 0.00479229 0)
(-0.171615 -0.0175726 0)
(-0.129333 -0.0344669 0)
(-0.0932173 -0.0505679 0)
(-0.0747178 -0.0548675 0)
(-0.0807328 -0.069795 0)
(-0.0540608 -0.0706516 0)
(-0.00268174 0.0116416 0)
(-0.00358868 0.0141773 0)
(-0.00165962 0.0109175 0)
(0.00348239 0.023538 0)
(-0.00227455 0.0363029 0)
(-0.00755827 0.0352932 0)
(-0.0156491 0.0627558 0)
(-0.0523054 0.106157 0)
(-0.0982175 0.157571 0)
(-0.175472 0.172983 0)
(-0.198797 0.159054 0)
(-0.204553 0.191515 0)
(-0.353513 0.211201 0)
(-0.288256 0.112833 0)
(-0.2783 0.0591478 0)
(-0.259009 -0.00639352 0)
(-0.219711 -0.0469996 0)
(-0.156597 -0.0593094 0)
(-0.107879 -0.0602607 0)
(-0.0821831 -0.055571 0)
(-0.0767912 -0.0732878 0)
(-0.0509004 -0.0871587 0)
(-0.00236568 -0.0753622 0)
(-0.000287362 -0.0765422 0)
(-0.00439523 -0.0775512 0)
(-0.0118219 -0.0697008 0)
(-0.0155055 -0.0594271 0)
(-0.0344456 -0.0553721 0)
(-0.055944 -0.0608033 0)
(-0.0670515 -0.069928 0)
(-0.0645084 -0.0622689 0)
(-0.0701712 -0.00658019 0)
(-0.115126 0.107975 0)
(-0.173176 0.237144 0)
(-0.419634 0.221158 0)
(-0.427763 0.0675237 0)
(-0.406065 0.0113659 0)
(-0.369691 -0.0211036 0)
(-0.280518 -0.0601057 0)
(-0.216593 -0.090817 0)
(-0.171799 -0.100321 0)
(-0.0997275 -0.0730526 0)
(-0.0571796 -0.105255 0)
(-0.0351881 -0.118047 0)
(-0.00383089 -0.0239798 0)
(-0.00780065 -0.0214952 0)
(0.00593198 -0.02211 0)
(0.0346076 5.37519e-06 0)
(0.0449793 0.0332396 0)
(0.0321151 0.0543018 0)
(0.0147085 0.114598 0)
(-0.0393479 0.165627 0)
(-0.102862 0.197137 0)
(-0.175609 0.193354 0)
(-0.19208 0.187877 0)
(-0.139397 0.262129 0)
(-0.118956 0.335859 0)
(-0.248753 0.262975 0)
(-0.311883 0.0651091 0)
(-0.278235 -0.13004 0)
(-0.262228 -0.203505 0)
(-0.2475 -0.193297 0)
(-0.199834 -0.151989 0)
(-0.115934 -0.146417 0)
(-0.00573587 -0.107919 0)
(0.0237666 -0.106302 0)
(0.00314834 -0.0286125 0)
(0.00861187 -0.0451497 0)
(0.0156301 -0.0787292 0)
(0.0187499 -0.0721614 0)
(0.0245873 -0.0413781 0)
(0.0190894 -0.0336213 0)
(0.0181659 -0.00812201 0)
(0.000247718 0.0190261 0)
(-0.00470811 0.052521 0)
(-0.0113143 0.0891359 0)
(-0.0250178 0.132225 0)
(-0.013213 0.188708 0)
(0.0727563 0.244397 0)
(0.163097 0.212852 0)
(0.184974 0.123518 0)
(0.181852 0.0897463 0)
(0.140571 0.072991 0)
(0.109798 -0.0023746 0)
(0.160478 -0.0854522 0)
(0.206613 -0.125941 0)
(0.246822 -0.107368 0)
(0.281658 -0.0438698 0)
(-0.00956237 -0.0891371 0)
(-0.0352305 -0.092239 0)
(-0.00414086 -0.108456 0)
(0.0556162 -0.0689231 0)
(0.0811432 -0.0134058 0)
(0.0407519 0.028772 0)
(-0.00746745 0.0804277 0)
(-0.0600022 0.110518 0)
(-0.0746473 0.12629 0)
(-0.0789695 0.141367 0)
(-0.0663674 0.142574 0)
(-0.0344889 0.141457 0)
(0.0191157 0.163477 0)
(0.104042 0.122762 0)
(0.157456 0.00512058 0)
(0.20225 -0.127348 0)
(0.261939 -0.198982 0)
(0.28869 -0.232279 0)
(0.337285 -0.266312 0)
(0.341383 -0.289966 0)
(0.357432 -0.277515 0)
(0.37485 -0.269402 0)
(-0.0345348 0.055214 0)
(-0.0696366 0.00711889 0)
(-0.0157931 -0.114495 0)
(-0.0385915 -0.094891 0)
(-0.0591292 0.0220277 0)
(-0.127289 0.116128 0)
(-0.117828 0.166935 0)
(-0.12246 0.155335 0)
(-0.123426 0.137736 0)
(-0.118165 0.128208 0)
(-0.104486 0.105761 0)
(-0.0849527 0.0818067 0)
(-0.0353459 0.0434333 0)
(0.0418431 0.0108287 0)
(0.0972566 -0.021747 0)
(0.134931 -0.0698714 0)
(0.193441 -0.102585 0)
(0.199405 -0.173703 0)
(0.281319 -0.222887 0)
(0.283807 -0.258293 0)
(0.325564 -0.281557 0)
(0.360554 -0.227232 0)
(-0.040831 -0.0123378 0)
(-0.117446 -0.123108 0)
(-0.274828 -0.207699 0)
(-0.522406 -0.0283745 0)
(-0.611027 0.0332587 0)
(-0.632733 0.00716675 0)
(-0.556832 0.00576329 0)
(-0.433781 0.0864528 0)
(-0.366929 0.112153 0)
(-0.278709 0.157099 0)
(-0.234089 0.147338 0)
(-0.202903 0.108953 0)
(-0.127402 0.067457 0)
(-0.062828 0.00762735 0)
(0.00246759 -0.0743679 0)
(0.0510363 -0.185552 0)
(0.0968406 -0.258384 0)
(0.0893365 -0.31821 0)
(0.160873 -0.335152 0)
(0.154324 -0.323796 0)
(0.199055 -0.202909 0)
(0.188296 0.172368 0)
(-0.0284964 0.0682539 0)
(-0.148974 0.0540893 0)
(-0.39573 0.113941 0)
(-0.537191 0.140879 0)
(-0.657297 0.182345 0)
(-0.717811 0.152044 0)
(-0.668976 -0.137184 0)
(-0.583746 -0.20069 0)
(-0.532881 -0.176037 0)
(-0.490729 -0.136055 0)
(-0.442117 -0.125037 0)
(-0.396463 -0.168353 0)
(-0.337978 -0.161158 0)
(-0.257211 -0.173757 0)
(-0.218619 -0.241582 0)
(-0.206247 -0.224674 0)
(-0.200574 -0.129639 0)
(-0.253466 0.310725 0)
(-0.282032 0.679163 0)
(-0.385967 0.686635 0)
(-0.436891 -0.0444484 0)
(-0.366525 -0.266394 0)
(0.055378 0.938404 0)
(-0.107833 1.11578 0)
(-0.389721 0.990831 0)
(-0.555042 0.936511 0)
(-0.620683 0.513037 0)
(-0.152459 0.227628 0)
(0.123418 0.166304 0)
(0.252434 0.430798 0)
(0.282123 0.687193 0)
(-0.0773219 0.736284 0)
(-0.183654 0.740314 0)
(-0.230462 0.956105 0)
(-0.346701 0.931633 0)
(-0.55144 0.88347 0)
(-0.757566 0.5817 0)
(-0.966255 0.189398 0)
(-1.02107 -0.0467823 0)
(-0.884815 -0.551331 0)
(-0.747502 -0.811868 0)
(-0.562683 -0.853488 0)
(-0.487846 -0.655143 0)
(-0.674352 -0.101433 0)
(-0.0314723 -0.211213 0)
(0.029928 0.254714 0)
(0.0195352 0.279873 0)
(-0.0536528 0.173271 0)
(0.134558 -0.360505 0)
(0.124759 -0.558909 0)
(0.0341861 -0.545545 0)
(-0.185936 -0.523793 0)
(-0.188671 -0.141038 0)
(-0.288995 -0.0372916 0)
(-0.412363 -0.43201 0)
(-0.314781 -0.647049 0)
(-0.192914 -0.689907 0)
(0.0181572 -0.556275 0)
(0.125543 -0.402821 0)
(0.205907 -0.380612 0)
(0.157862 -0.352311 0)
(0.079357 -0.29875 0)
(-0.134406 -0.178687 0)
(-0.329063 -0.086357 0)
(-0.669942 -0.00876727 0)
(-1.05411 0.360877 0)
(-0.19079 0.511673 0)
(-0.083035 0.458702 0)
(0.0597762 0.455818 0)
(0.180105 0.34268 0)
(0.336918 0.140786 0)
(0.210339 -0.101936 0)
(0.224164 -0.0192416 0)
(0.16088 0.364193 0)
(-0.111002 0.4342 0)
(0.0286784 0.465642 0)
(-0.0330512 0.521482 0)
(-0.110143 0.558348 0)
(-0.155283 0.291054 0)
(-0.125335 0.275245 0)
(-0.110154 0.352897 0)
(-0.129461 0.237709 0)
(-0.16085 0.111504 0)
(-0.211867 -0.0321013 0)
(-0.301594 -0.0659125 0)
(-0.419822 -0.0476694 0)
(-0.595509 0.101541 0)
(-0.830039 0.465354 0)
(-0.97817 1.16865 0)
(-0.131239 0.388339 0)
(-0.0278705 0.282837 0)
(-0.0121999 0.27379 0)
(0.12162 0.136593 0)
(0.178635 -0.154313 0)
(0.145621 -0.268827 0)
(-0.0249166 -0.247471 0)
(0.0656502 0.0649461 0)
(-0.0783439 0.281654 0)
(-0.0226984 0.246806 0)
(-0.144558 0.0563197 0)
(0.0183617 -0.373865 0)
(0.00996702 -0.417022 0)
(-0.0651515 -0.386205 0)
(-0.0163074 -0.340048 0)
(0.0475725 -0.293132 0)
(0.0449222 -0.251443 0)
(-0.0125726 -0.189328 0)
(-0.114693 -0.0791416 0)
(-0.236158 0.109488 0)
(-0.389963 0.331159 0)
(-0.490029 0.58963 0)
(-0.471575 1.03047 0)
(-0.0428616 0.461061 0)
(0.0620929 0.243161 0)
(0.0575252 0.163958 0)
(0.167776 0.0607356 0)
(0.157498 0.00349811 0)
(0.096794 -0.0523028 0)
(-0.0528682 -0.0644819 0)
(-0.00578035 0.212435 0)
(0.0348471 0.315439 0)
(0.147593 0.291146 0)
(0.232134 0.214122 0)
(0.268884 0.234953 0)
(0.102949 0.182015 0)
(0.0110972 0.111484 0)
(-0.0375144 0.121316 0)
(-0.0926142 0.105027 0)
(-0.14563 0.0967681 0)
(-0.204791 0.0992522 0)
(-0.269187 0.161237 0)
(-0.316701 0.247874 0)
(-0.32391 0.409224 0)
(-0.311592 0.614628 0)
(-0.183159 0.853003 0)
(0.0469958 0.416002 0)
(0.0938476 0.239889 0)
(0.0994092 0.160721 0)
(0.107555 0.083563 0)
(0.0725567 0.0114346 0)
(0.0467329 -0.0304175 0)
(-0.0439482 -0.0500912 0)
(-0.0586215 0.0798219 0)
(0.0494867 0.216027 0)
(0.123591 0.189555 0)
(0.110982 0.0992645 0)
(0.0514312 -0.0367809 0)
(0.0328401 -0.0843312 0)
(-0.00441074 -0.115413 0)
(-0.0444535 -0.127056 0)
(-0.0689337 -0.111634 0)
(-0.100998 -0.0830003 0)
(-0.14141 -0.0225163 0)
(-0.189035 0.0839326 0)
(-0.235163 0.223103 0)
(-0.253048 0.387423 0)
(-0.220746 0.555996 0)
(-0.114702 0.708635 0)
(0.0583066 0.311158 0)
(0.0924755 0.219807 0)
(0.101871 0.138082 0)
(0.100151 0.0833759 0)
(0.0802188 0.0522324 0)
(0.0428732 0.0402905 0)
(-0.0256548 0.0271192 0)
(-0.0638879 0.0756913 0)
(-0.0391087 0.110707 0)
(0.03553 0.165468 0)
(0.0469191 0.176141 0)
(0.0421248 0.167897 0)
(0.00547195 0.150677 0)
(-0.0373697 0.131073 0)
(-0.0852985 0.122638 0)
(-0.130129 0.121734 0)
(-0.175211 0.127597 0)
(-0.215493 0.143811 0)
(-0.238419 0.18464 0)
(-0.240073 0.255069 0)
(-0.223813 0.357517 0)
(-0.186069 0.475689 0)
(-0.106768 0.581955 0)
(0.039273 0.249355 0)
(0.0670581 0.196657 0)
(0.085939 0.139728 0)
(0.075698 0.104472 0)
(0.0526356 0.0844145 0)
(0.0277442 0.0714802 0)
(-0.00813418 0.0648524 0)
(-0.036657 0.0881318 0)
(-0.0420627 0.104499 0)
(-0.0293773 0.134207 0)
(-0.0119785 0.149693 0)
(-0.0169436 0.120402 0)
(-0.038109 0.0791495 0)
(-0.0628492 0.0414061 0)
(-0.090024 0.0242577 0)
(-0.111763 0.0322407 0)
(-0.134592 0.0620539 0)
(-0.162436 0.109606 0)
(-0.190219 0.176415 0)
(-0.203479 0.253567 0)
(-0.188679 0.337445 0)
(-0.149987 0.418462 0)
(-0.0858009 0.486091 0)
(0.0207684 0.209012 0)
(0.0431846 0.170195 0)
(0.0553344 0.135637 0)
(0.0467569 0.116926 0)
(0.0332176 0.104029 0)
(0.0181455 0.0969914 0)
(-0.00331809 0.0946581 0)
(-0.0177636 0.10414 0)
(-0.0262228 0.109936 0)
(-0.0291413 0.131471 0)
(-0.0194418 0.143024 0)
(-0.0157904 0.138853 0)
(-0.0229045 0.125475 0)
(-0.0408566 0.114846 0)
(-0.0681392 0.107933 0)
(-0.0948149 0.106892 0)
(-0.116605 0.120218 0)
(-0.132958 0.14769 0)
(-0.143023 0.19201 0)
(-0.146731 0.247529 0)
(-0.135592 0.314218 0)
(-0.103022 0.379769 0)
(-0.0545261 0.431186 0)
(0.0121259 0.185972 0)
(0.0263134 0.157864 0)
(0.0323656 0.137438 0)
(0.0282029 0.123876 0)
(0.021213 0.113747 0)
(0.0122952 0.108612 0)
(0.00126779 0.106136 0)
(-0.00659042 0.112113 0)
(-0.0131737 0.116224 0)
(-0.016626 0.129627 0)
(-0.0120901 0.138442 0)
(-0.00959361 0.139468 0)
(-0.00933142 0.1315 0)
(-0.0185016 0.123129 0)
(-0.033371 0.117643 0)
(-0.0505669 0.118568 0)
(-0.0715449 0.130893 0)
(-0.0858184 0.157584 0)
(-0.0944428 0.196842 0)
(-0.0964944 0.23929 0)
(-0.0865812 0.286306 0)
(-0.0580018 0.338183 0)
(-0.0175075 0.382689 0)
(0.00715497 0.172664 0)
(0.0156519 0.149483 0)
(0.0201874 0.137085 0)
(0.0189406 0.128003 0)
(0.0149741 0.120336 0)
(0.00979748 0.115792 0)
(0.0031706 0.113844 0)
(-0.00157728 0.117045 0)
(-0.00586263 0.120614 0)
(-0.00756633 0.129693 0)
(-0.00473383 0.1365 0)
(-0.00178963 0.137557 0)
(-0.000728626 0.133082 0)
(-0.00478979 0.130518 0)
(-0.0135534 0.129652 0)
(-0.0244073 0.134856 0)
(-0.039995 0.14856 0)
(-0.0527551 0.171201 0)
(-0.0592063 0.204457 0)
(-0.0570542 0.241427 0)
(-0.0501501 0.272912 0)
(-0.0266893 0.305812 0)
(0.00943073 0.340205 0)
(0.00419476 0.163958 0)
(0.0100436 0.143238 0)
(0.0138302 0.135471 0)
(0.0141598 0.129336 0)
(0.0120892 0.124084 0)
(0.00839264 0.12055 0)
(0.0034814 0.119121 0)
(-0.000636628 0.120768 0)
(-0.00438243 0.123187 0)
(-0.00616378 0.128981 0)
(-0.00375366 0.133055 0)
(-0.00090872 0.134384 0)
(-0.000959347 0.13411 0)
(-0.00439871 0.136549 0)
(-0.0111878 0.13891 0)
(-0.0202975 0.147073 0)
)
;

boundaryField
{
    leftWall
    {
        type            calculated;
        value           uniform (0 0 0);
    }
    rightWall
    {
        type            calculated;
        value           nonuniform 0();
    }
    lowerWall
    {
        type            calculated;
        value           uniform (0 0 0);
    }
    atmosphere
    {
        type            calculated;
        value           nonuniform 0();
    }
    defaultFaces
    {
        type            empty;
    }
    procBoundary0to1
    {
        type            processor;
        value           nonuniform List<vector> 
26
(
(-0.0355271 -0.00785356 0)
(-0.0188835 -0.0299312 0)
(0.00234007 -0.0321462 0)
(0.000822646 -0.0348372 0)
(0.00298584 -0.0409552 0)
(-0.00408158 -0.0502084 0)
(-0.0042713 -0.067198 0)
(0.00477874 -0.0848655 0)
(0.0409 -0.112231 0)
(0.340026 0.0211305 0)
(0.369256 -0.249233 0)
(0.315355 -0.10898 0)
(-0.199986 1.07652 0)
(-0.381044 0.303739 0)
(-0.972825 0.959478 0)
(-1.13937 1.13935 0)
(-1.13937 1.13935 0)
(-0.948632 1.38039 0)
(-0.369248 1.29561 0)
(-0.017035 0.96029 0)
(0.00897543 0.744813 0)
(-0.0275463 0.60929 0)
(-0.0294065 0.509234 0)
(-0.0134002 0.450236 0)
(0.015554 0.40158 0)
(0.0394255 0.35606 0)
)
;
    }
    procBoundary0to2
    {
        type            processor;
        value           nonuniform List<vector> 
24
(
(-0.0320902 0.160525 0)
(-0.037273 0.179454 0)
(-0.0373145 0.204528 0)
(-0.0322649 0.235515 0)
(-0.0199752 0.259651 0)
(-8.05285e-05 0.280236 0)
(0.033033 0.303602 0)
(0.00267357 0.158477 0)
(0.00718661 0.138798 0)
(0.0102119 0.133626 0)
(0.0102545 0.129609 0)
(0.00889336 0.126412 0)
(0.00565197 0.12428 0)
(0.00174845 0.123562 0)
(-0.00182615 0.124678 0)
(-0.00511861 0.126507 0)
(-0.00673717 0.129174 0)
(-0.00709289 0.131633 0)
(-0.00628902 0.133861 0)
(-0.00815472 0.136113 0)
(-0.0101036 0.139134 0)
(-0.0144826 0.145005 0)
(-0.0320902 0.160525 0)
(-0.0191988 0.155462 0)
)
;
    }
}


// ************************************************************************* //
