/*--------------------------------*- C++ -*----------------------------------*\
| =========                 |                                                 |
| \\      /  F ield         | OpenFOAM: The Open Source CFD Toolbox           |
|  \\    /   O peration     | Version:  2.4.0                                 |
|   \\  /    A nd           | Web:      www.OpenFOAM.org                      |
|    \\/     M anipulation  |                                                 |
\*---------------------------------------------------------------------------*/
FoamFile
{
    version     2.0;
    format      ascii;
    class       volVectorField;
    location    "0.7";
    object      U.mercury;
}
// * * * * * * * * * * * * * * * * * * * * * * * * * * * * * * * * * * * * * //

dimensions      [0 1 -1 0 0 0 0];

internalField   nonuniform List<vector> 
575
(
(0.0120559 0.00183958 0)
(0.0333792 0.000385051 0)
(0.0594238 0.00494463 0)
(0.069859 0.00209051 0)
(0.0957005 3.84484e-07 0)
(0.120157 0.00380765 0)
(0.127897 0.00695971 0)
(0.131796 0.0148016 0)
(0.12345 0.0222723 0)
(0.116758 0.0348523 0)
(0.0934209 0.0520829 0)
(0.0482926 0.0524831 0)
(-0.0178939 0.0382013 0)
(-0.0850132 0.019507 0)
(-0.12079 0.00152672 0)
(-0.130688 -0.00746572 0)
(-0.129731 -0.00566562 0)
(-0.126765 -0.00683478 0)
(-0.115451 -0.00321531 0)
(-0.101163 -0.0105085 0)
(-0.0594899 -0.0051889 0)
(-0.0436683 -0.000771767 0)
(0.0135108 -0.0200483 0)
(0.0314557 -0.0219401 0)
(0.0587643 -0.0168485 0)
(0.0736059 -0.0192698 0)
(0.0966501 -0.0207131 0)
(0.118047 -0.0147975 0)
(0.13024 -0.0137498 0)
(0.137545 -0.011805 0)
(0.141022 -0.0159712 0)
(0.130071 -0.0252913 0)
(0.0958553 -0.021107 0)
(0.0370255 0.00139877 0)
(-0.0319804 0.0310036 0)
(-0.0940588 0.0295619 0)
(-0.126099 0.0180834 0)
(-0.131502 0.0103718 0)
(-0.128189 0.00362688 0)
(-0.124265 -0.00125946 0)
(-0.11437 -0.00822683 0)
(-0.0903925 -0.0158258 0)
(-0.0614903 -0.0215545 0)
(-0.0340466 -0.0108895 0)
(0.014688 -0.0328208 0)
(0.0295939 -0.0359596 0)
(0.0559012 -0.0258373 0)
(0.0807411 -0.0313152 0)
(0.0942687 -0.0338735 0)
(0.113104 -0.0224975 0)
(0.124758 -0.0120688 0)
(0.132128 0.00721639 0)
(0.132092 0.0295739 0)
(0.117701 0.0690343 0)
(0.0938494 0.117684 0)
(0.0491442 0.112667 0)
(-0.0113234 0.0846689 0)
(-0.0763071 0.054348 0)
(-0.119666 0.0211642 0)
(-0.139951 -0.00273023 0)
(-0.140638 -0.00770599 0)
(-0.130677 -0.0130034 0)
(-0.118722 -0.0173716 0)
(-0.0815159 -0.0335727 0)
(-0.0548359 -0.031983 0)
(-0.014651 -0.0195193 0)
(0.0159559 -0.209246 0)
(0.0262018 -0.210649 0)
(0.0483433 -0.205544 0)
(0.0835071 -0.207278 0)
(0.0897565 -0.203615 0)
(0.100388 -0.193057 0)
(0.123046 -0.181261 0)
(0.146801 -0.163091 0)
(0.16676 -0.134772 0)
(0.154163 -0.0829058 0)
(0.0923356 -0.0253084 0)
(0.0153687 0.060337 0)
(-0.0401243 0.114407 0)
(-0.0934079 0.0859263 0)
(-0.128767 0.044527 0)
(-0.143494 0.014933 0)
(-0.143025 -0.0018404 0)
(-0.129627 -0.0146954 0)
(-0.114281 -0.0301343 0)
(-0.0803358 -0.0476672 0)
(-0.0679657 -0.0542808 0)
(-0.0177521 -0.0359442 0)
(0.0114005 -0.236378 0)
(0.0196794 -0.224435 0)
(0.0334493 -0.236521 0)
(0.0534725 -0.21669 0)
(0.0564507 -0.193359 0)
(0.0568292 -0.18752 0)
(0.0676574 -0.173923 0)
(0.0793737 -0.177418 0)
(0.126847 -0.182055 0)
(0.124932 -0.161375 0)
(0.0632662 -0.0261507 0)
(-0.0183763 0.0669746 0)
(-0.09386 0.113955 0)
(-0.143139 0.0915672 0)
(-0.160428 0.048297 0)
(-0.158667 0.0115672 0)
(-0.147017 -0.0119891 0)
(-0.124929 -0.0265416 0)
(-0.102332 -0.0426682 0)
(-0.077856 -0.053709 0)
(-0.0800397 -0.0626756 0)
(-0.0347802 -0.0552217 0)
(-0.00392862 -0.146023 0)
(0.0016446 -0.145168 0)
(-0.0027117 -0.14419 0)
(-0.0112074 -0.138768 0)
(-0.0207308 -0.128716 0)
(-0.0337023 -0.126931 0)
(-0.0521496 -0.132414 0)
(-0.0768374 -0.153113 0)
(-0.0767826 -0.179577 0)
(0.0264204 -0.195481 0)
(0.0732655 -0.13789 0)
(-0.027646 0.00485839 0)
(-0.158071 0.116074 0)
(-0.197459 0.0997971 0)
(-0.218319 0.0417982 0)
(-0.205321 0.00479091 0)
(-0.171615 -0.0175729 0)
(-0.129333 -0.0344671 0)
(-0.0932173 -0.050568 0)
(-0.0747178 -0.0548677 0)
(-0.0807328 -0.0697952 0)
(-0.0540608 -0.0706519 0)
(-0.00291327 -0.00898734 0)
(-0.00406303 -0.00569419 0)
(-0.00236431 -0.00787465 0)
(0.00274337 0.00528907 0)
(-0.00241341 0.0197482 0)
(-0.00702235 0.0193817 0)
(-0.0146546 0.0461485 0)
(-0.0507301 0.0888853 0)
(-0.0957181 0.140243 0)
(-0.173862 0.151471 0)
(-0.253353 0.0197799 0)
(-0.265453 -0.00167564 0)
(-0.285598 0.0873407 0)
(-0.284667 0.104857 0)
(-0.278237 0.0588562 0)
(-0.259007 -0.00641049 0)
(-0.219711 -0.0470052 0)
(-0.156597 -0.0593125 0)
(-0.107878 -0.0602728 0)
(-0.0821838 -0.055622 0)
(-0.0767944 -0.0736011 0)
(-0.0508919 -0.0876387 0)
(-0.00255183 -0.097522 0)
(-0.00071662 -0.0977087 0)
(-0.00479317 -0.0970398 0)
(-0.011743 -0.0890546 0)
(-0.0148145 -0.0777381 0)
(-0.033664 -0.0713965 0)
(-0.0547743 -0.0780943 0)
(-0.0657347 -0.0882808 0)
(-0.0627756 -0.0815945 0)
(-0.06896 -0.0283019 0)
(-0.23911 0.0128594 0)
(-0.386348 -0.0510121 0)
(-0.402902 0.00294432 0)
(-0.41414 0.0270541 0)
(-0.405602 0.00933194 0)
(-0.369663 -0.0214351 0)
(-0.280518 -0.0604211 0)
(-0.216592 -0.0920837 0)
(-0.171927 -0.104932 0)
(-0.0999211 -0.0814135 0)
(-0.0574316 -0.121305 0)
(-0.034616 -0.136555 0)
(-0.00409808 -0.0355574 0)
(-0.00831353 -0.0320905 0)
(0.00509561 -0.0316331 0)
(0.0336527 -0.00953872 0)
(0.0446001 0.0240299 0)
(0.0323663 0.0469994 0)
(0.0154328 0.106054 0)
(-0.038325 0.156707 0)
(-0.101538 0.186671 0)
(-0.173774 0.177515 0)
(-0.206351 0.141567 0)
(-0.325848 -0.0525589 0)
(-0.303139 -0.0278959 0)
(-0.28928 0.00739698 0)
(-0.305239 -0.0334896 0)
(-0.280461 -0.182112 0)
(-0.267407 -0.252555 0)
(-0.25 -0.256949 0)
(-0.199767 -0.25149 0)
(-0.119457 -0.287639 0)
(-0.0101085 -0.289009 0)
(0.0275673 -0.290273 0)
(0.00310549 -0.0318182 0)
(0.00853224 -0.0481033 0)
(0.0155193 -0.081385 0)
(0.0186679 -0.074708 0)
(0.0245579 -0.0437767 0)
(0.0190737 -0.0352141 0)
(0.0181918 -0.00991171 0)
(0.00026069 0.0168917 0)
(-0.00497469 0.0498181 0)
(-0.01271 0.085069 0)
(-0.0304185 0.123238 0)
(-0.152107 0.0509089 0)
(-0.137721 -0.0787118 0)
(-0.103823 -0.136254 0)
(-0.0668919 -0.1695 0)
(0.0742266 -0.262943 0)
(0.146137 -0.266823 0)
(0.153108 -0.299584 0)
(0.218915 -0.397713 0)
(0.244543 -0.531038 0)
(0.222459 -0.579327 0)
(0.223586 -0.571147 0)
(-0.00957929 -0.0899389 0)
(-0.0352631 -0.0929208 0)
(-0.00415212 -0.108661 0)
(0.0556793 -0.0680894 0)
(0.0812661 -0.0121652 0)
(0.0407172 0.0297357 0)
(-0.00755086 0.0814118 0)
(-0.0601661 0.11174 0)
(-0.0747554 0.126974 0)
(-0.0790016 0.141149 0)
(-0.0663223 0.140991 0)
(-0.0366315 0.132899 0)
(-0.0368161 0.0425007 0)
(0.0318751 -0.0234561 0)
(0.0807762 -0.153569 0)
(0.159673 -0.235321 0)
(0.229429 -0.358144 0)
(0.252617 -0.431954 0)
(0.310519 -0.472279 0)
(0.343219 -0.458439 0)
(0.367566 -0.394148 0)
(0.383562 -0.349688 0)
(-0.0345367 0.0550784 0)
(-0.0696602 0.00702011 0)
(-0.0156747 -0.115226 0)
(-0.0377112 -0.10107 0)
(-0.0596781 0.00987952 0)
(-0.12669 0.0971529 0)
(-0.116165 0.15017 0)
(-0.121911 0.145385 0)
(-0.123212 0.132059 0)
(-0.118103 0.125508 0)
(-0.104476 0.104943 0)
(-0.0849121 0.0817974 0)
(-0.0355457 0.0400591 0)
(0.0412096 0.00484005 0)
(0.0935873 -0.0470303 0)
(0.133666 -0.089235 0)
(0.193195 -0.125833 0)
(0.198281 -0.19969 0)
(0.280114 -0.256359 0)
(0.283415 -0.307424 0)
(0.324312 -0.355109 0)
(0.358142 -0.354052 0)
(-0.0408699 -0.0123913 0)
(-0.117543 -0.123004 0)
(-0.271046 -0.22674 0)
(-0.525824 -0.061199 0)
(-0.606718 -0.0152751 0)
(-0.615149 -0.026995 0)
(-0.542872 -0.0103724 0)
(-0.425582 0.0696301 0)
(-0.359722 0.0944698 0)
(-0.273677 0.138134 0)
(-0.230834 0.128502 0)
(-0.201412 0.0911988 0)
(-0.127222 0.0509303 0)
(-0.0632683 -0.00969235 0)
(0.00164797 -0.0975005 0)
(0.0510123 -0.219259 0)
(0.097488 -0.304034 0)
(0.0813165 -0.424661 0)
(0.140124 -0.518177 0)
(0.106041 -0.625727 0)
(0.142997 -0.655903 0)
(0.166687 -0.559517 0)
(-0.0325727 -0.194197 0)
(-0.165339 -0.236173 0)
(-0.405351 -0.223596 0)
(-0.583046 -0.272046 0)
(-0.690946 -0.320319 0)
(-0.672247 -0.403837 0)
(-0.649531 -0.479602 0)
(-0.582392 -0.385046 0)
(-0.52931 -0.30245 0)
(-0.479434 -0.239287 0)
(-0.432839 -0.234373 0)
(-0.390249 -0.303354 0)
(-0.33748 -0.319319 0)
(-0.267707 -0.332951 0)
(-0.226143 -0.419809 0)
(-0.18715 -0.459128 0)
(-0.183258 -0.518463 0)
(-0.277319 -0.530321 0)
(-0.287894 -0.0992668 0)
(-0.380258 0.58366 0)
(-0.43649 -0.0453787 0)
(-0.366232 -0.267199 0)
(-0.0341945 -0.0974401 0)
(-0.209217 -0.124794 0)
(-0.411613 -0.0383427 0)
(-0.563144 0.162411 0)
(-0.62893 0.255454 0)
(-0.209075 0.132109 0)
(0.123386 0.166315 0)
(0.231978 0.404777 0)
(0.0836005 0.378381 0)
(-0.263542 0.167918 0)
(-0.314437 0.181347 0)
(-0.234491 0.897746 0)
(-0.35136 0.788743 0)
(-0.544759 0.759949 0)
(-0.753956 0.570346 0)
(-0.965639 0.188694 0)
(-1.02087 -0.0469271 0)
(-0.884748 -0.55139 0)
(-0.747442 -0.811934 0)
(-0.562594 -0.853541 0)
(-0.487701 -0.655199 0)
(-0.674243 -0.101458 0)
(-0.0355562 -0.218041 0)
(0.00801966 0.209584 0)
(0.0012616 0.25134 0)
(-0.0550538 0.170753 0)
(0.13459 -0.360491 0)
(0.124801 -0.558909 0)
(0.0342163 -0.545573 0)
(-0.185917 -0.523799 0)
(-0.188647 -0.141048 0)
(-0.289007 -0.0374134 0)
(-0.412333 -0.43204 0)
(-0.314747 -0.647078 0)
(-0.192885 -0.689944 0)
(0.0182022 -0.556299 0)
(0.125592 -0.402833 0)
(0.205942 -0.38065 0)
(0.157886 -0.352352 0)
(0.0793928 -0.29881 0)
(-0.134358 -0.178748 0)
(-0.328981 -0.086429 0)
(-0.669822 -0.00887022 0)
(-1.05395 0.360779 0)
(-0.190792 0.511659 0)
(-0.0830302 0.458695 0)
(0.059781 0.455815 0)
(0.180118 0.342681 0)
(0.336942 0.140781 0)
(0.210366 -0.101948 0)
(0.224189 -0.0192623 0)
(0.160901 0.364174 0)
(-0.110979 0.434179 0)
(0.0287032 0.465621 0)
(-0.0330246 0.521456 0)
(-0.110111 0.558314 0)
(-0.155248 0.291018 0)
(-0.125293 0.275211 0)
(-0.11011 0.352853 0)
(-0.129427 0.237656 0)
(-0.160824 0.111448 0)
(-0.211839 -0.0321676 0)
(-0.301551 -0.0659856 0)
(-0.419748 -0.0477513 0)
(-0.595409 0.101423 0)
(-0.829945 0.465182 0)
(-0.978077 1.16859 0)
(-0.131241 0.388327 0)
(-0.0278669 0.282824 0)
(-0.0121901 0.273782 0)
(0.121635 0.136587 0)
(0.178654 -0.154319 0)
(0.145642 -0.268839 0)
(-0.0248953 -0.247487 0)
(0.0656702 0.0649285 0)
(-0.0783247 0.281633 0)
(-0.0226776 0.246782 0)
(-0.144534 0.0562931 0)
(0.0183889 -0.373897 0)
(0.00999674 -0.417058 0)
(-0.0651214 -0.386247 0)
(-0.0162807 -0.340101 0)
(0.0475928 -0.293198 0)
(0.0449382 -0.251518 0)
(-0.0125535 -0.18941 0)
(-0.114659 -0.0792322 0)
(-0.236094 0.109388 0)
(-0.389873 0.331039 0)
(-0.48994 0.589464 0)
(-0.471533 1.03029 0)
(-0.0428599 0.461051 0)
(0.0620971 0.243152 0)
(0.0575329 0.163948 0)
(0.167788 0.0607238 0)
(0.157513 0.00348383 0)
(0.0968109 -0.0523202 0)
(-0.0528512 -0.0645028 0)
(-0.0057635 0.212411 0)
(0.0348652 0.315412 0)
(0.14761 0.291117 0)
(0.232154 0.21409 0)
(0.268906 0.234917 0)
(0.102974 0.181971 0)
(0.0111205 0.111434 0)
(-0.0374951 0.121257 0)
(-0.0926016 0.104958 0)
(-0.145621 0.0966891 0)
(-0.204779 0.0991634 0)
(-0.269162 0.161138 0)
(-0.31665 0.247765 0)
(-0.323835 0.409102 0)
(-0.311506 0.614483 0)
(-0.183096 0.852835 0)
(0.0469973 0.415989 0)
(0.0938525 0.239876 0)
(0.099417 0.160708 0)
(0.107565 0.0835495 0)
(0.0725693 0.0114194 0)
(0.0467467 -0.030436 0)
(-0.0439341 -0.0501125 0)
(-0.0586078 0.079797 0)
(0.0494999 0.215999 0)
(0.123605 0.189525 0)
(0.110997 0.0992321 0)
(0.0514476 -0.0368171 0)
(0.0328567 -0.0843742 0)
(-0.00439703 -0.115464 0)
(-0.0444465 -0.127117 0)
(-0.0689336 -0.111706 0)
(-0.101001 -0.0830821 0)
(-0.141407 -0.0226075 0)
(-0.189018 0.0838321 0)
(-0.235125 0.22299 0)
(-0.252987 0.3873 0)
(-0.220672 0.555856 0)
(-0.114641 0.708479 0)
(0.0583085 0.311144 0)
(0.0924796 0.219793 0)
(0.101877 0.138068 0)
(0.100159 0.0833601 0)
(0.0802289 0.0522145 0)
(0.0428842 0.04027 0)
(-0.0256435 0.0270958 0)
(-0.0638771 0.0756648 0)
(-0.0390991 0.110677 0)
(0.0355386 0.165435 0)
(0.0469275 0.176104 0)
(0.042134 0.167855 0)
(0.00548035 0.150629 0)
(-0.037365 0.131017 0)
(-0.0853001 0.122573 0)
(-0.130137 0.12166 0)
(-0.17522 0.127516 0)
(-0.215497 0.143723 0)
(-0.23841 0.184544 0)
(-0.240046 0.254963 0)
(-0.223767 0.357402 0)
(-0.18601 0.475557 0)
(-0.10672 0.581809 0)
(0.0392741 0.249341 0)
(0.0670611 0.196642 0)
(0.0859437 0.139712 0)
(0.0757043 0.104455 0)
(0.0526432 0.0843955 0)
(0.0277525 0.0714586 0)
(-0.00812572 0.064828 0)
(-0.036649 0.0881043 0)
(-0.042056 0.104468 0)
(-0.0293716 0.134173 0)
(-0.0119731 0.149656 0)
(-0.0169392 0.12036 0)
(-0.0381068 0.0791024 0)
(-0.0628522 0.0413521 0)
(-0.090034 0.0241963 0)
(-0.111779 0.0321723 0)
(-0.134609 0.0619789 0)
(-0.162445 0.109527 0)
(-0.190216 0.176328 0)
(-0.203461 0.253472 0)
(-0.188644 0.337339 0)
(-0.149941 0.418344 0)
(-0.0857619 0.485959 0)
(0.0207691 0.208997 0)
(0.0431869 0.170179 0)
(0.0553378 0.135621 0)
(0.0467614 0.116908 0)
(0.0332229 0.104009 0)
(0.0181512 0.096969 0)
(-0.00331248 0.094633 0)
(-0.0177587 0.104112 0)
(-0.026219 0.109905 0)
(-0.0291389 0.131436 0)
(-0.0194406 0.142987 0)
(-0.0157912 0.138811 0)
(-0.0229086 0.125428 0)
(-0.0408661 0.114793 0)
(-0.0681549 0.107874 0)
(-0.0948355 0.106829 0)
(-0.116624 0.120153 0)
(-0.132972 0.14762 0)
(-0.143025 0.191937 0)
(-0.14672 0.247447 0)
(-0.135569 0.314127 0)
(-0.102988 0.379665 0)
(-0.0544976 0.43107 0)
(0.0121263 0.185956 0)
(0.0263148 0.157848 0)
(0.0323678 0.137421 0)
(0.0282058 0.123857 0)
(0.0212163 0.113726 0)
(0.0122985 0.108589 0)
(0.00127072 0.106111 0)
(-0.00658832 0.112085 0)
(-0.0131729 0.116193 0)
(-0.0166267 0.129593 0)
(-0.0120927 0.138405 0)
(-0.00959874 0.139427 0)
(-0.00934036 0.131455 0)
(-0.0185156 0.12308 0)
(-0.0333904 0.117591 0)
(-0.0505892 0.118514 0)
(-0.0715678 0.130838 0)
(-0.0858348 0.157526 0)
(-0.0944514 0.196779 0)
(-0.096492 0.239221 0)
(-0.0865663 0.286227 0)
(-0.0579792 0.338093 0)
(-0.0174892 0.382585 0)
(0.00715527 0.172648 0)
(0.0156527 0.149466 0)
(0.0201886 0.137067 0)
(0.0189419 0.127983 0)
(0.0149755 0.120315 0)
(0.00979854 0.115769 0)
(0.00317104 0.113818 0)
(-0.00157786 0.117018 0)
(-0.00586463 0.120584 0)
(-0.00757009 0.12966 0)
(-0.0047398 0.136464 0)
(-0.00179846 0.137518 0)
(-0.000741158 0.13304 0)
(-0.00480626 0.130473 0)
(-0.0135743 0.129605 0)
(-0.0244316 0.134808 0)
(-0.040018 0.148511 0)
(-0.0527759 0.171149 0)
(-0.0592197 0.204402 0)
(-0.057059 0.241366 0)
(-0.050146 0.272843 0)
(-0.0266778 0.305733 0)
(0.0094372 0.340114 0)
(0.00419469 0.163941 0)
(0.0100435 0.14322 0)
(0.0138302 0.135453 0)
(0.0141598 0.129316 0)
(0.0120889 0.124062 0)
(0.0083917 0.120527 0)
(0.00347961 0.119096 0)
(-0.000639603 0.120741 0)
(-0.00438695 0.123158 0)
(-0.00617025 0.128949 0)
(-0.00376248 0.133021 0)
(-0.00092044 0.134347 0)
(-0.000974395 0.134071 0)
(-0.00441782 0.136508 0)
(-0.01121 0.138868 0)
(-0.020322 0.147029 0)
)
;

boundaryField
{
    leftWall
    {
        type            fixedValue;
        value           uniform (0 0 0);
    }
    rightWall
    {
        type            fixedValue;
        value           nonuniform 0();
    }
    lowerWall
    {
        type            fixedValue;
        value           uniform (0 0 0);
    }
    atmosphere
    {
        type            fluxCorrectedVelocity;
        value           nonuniform 0();
    }
    defaultFaces
    {
        type            empty;
    }
    procBoundary0to1
    {
        type            processor;
        value           nonuniform List<vector> 
26
(
(-0.0355271 -0.00785366 0)
(-0.0188835 -0.0299314 0)
(0.00234007 -0.0321464 0)
(0.000822646 -0.0348374 0)
(0.00298584 -0.0409554 0)
(-0.00408158 -0.0502086 0)
(-0.00427038 -0.0672378 0)
(0.00500267 -0.0914302 0)
(0.0502817 -0.235499 0)
(0.243677 -0.530256 0)
(0.39773 -0.315762 0)
(0.361312 -0.297688 0)
(0.0776262 -0.165649 0)
(-0.391085 0.279671 0)
(-0.973414 0.956971 0)
(-1.13925 1.13945 0)
(-1.13925 1.13945 0)
(-0.948474 1.38065 0)
(-0.369174 1.29555 0)
(-0.0169913 0.960159 0)
(0.00902182 0.744665 0)
(-0.0275106 0.609142 0)
(-0.0293742 0.509095 0)
(-0.0133766 0.45011 0)
(0.0155707 0.401468 0)
(0.0394308 0.355961 0)
)
;
    }
    procBoundary0to2
    {
        type            processor;
        value           nonuniform List<vector> 
24
(
(-0.0321172 0.16048 0)
(-0.0372951 0.179407 0)
(-0.0373323 0.204482 0)
(-0.0322759 0.235463 0)
(-0.0199776 0.259596 0)
(-7.93625e-05 0.280172 0)
(0.0330286 0.303529 0)
(0.0026735 0.158459 0)
(0.00718627 0.13878 0)
(0.0102111 0.133607 0)
(0.0102532 0.129589 0)
(0.00889153 0.126391 0)
(0.00564934 0.124257 0)
(0.00174478 0.123538 0)
(-0.00183115 0.124652 0)
(-0.00512525 0.126479 0)
(-0.00674588 0.129144 0)
(-0.007104 0.131601 0)
(-0.00630312 0.133827 0)
(-0.00817231 0.136077 0)
(-0.0101238 0.139097 0)
(-0.0145063 0.144966 0)
(-0.0321172 0.16048 0)
(-0.0192248 0.155422 0)
)
;
    }
}


// ************************************************************************* //
