/*--------------------------------*- C++ -*----------------------------------*\
| =========                 |                                                 |
| \\      /  F ield         | OpenFOAM: The Open Source CFD Toolbox           |
|  \\    /   O peration     | Version:  2.4.0                                 |
|   \\  /    A nd           | Web:      www.OpenFOAM.org                      |
|    \\/     M anipulation  |                                                 |
\*---------------------------------------------------------------------------*/
FoamFile
{
    version     2.0;
    format      ascii;
    class       volVectorField;
    location    "0.7";
    object      U.oil;
}
// * * * * * * * * * * * * * * * * * * * * * * * * * * * * * * * * * * * * * //

dimensions      [0 1 -1 0 0 0 0];

internalField   nonuniform List<vector> 
575
(
(0.0120559 0.00183948 0)
(0.0333792 0.000384934 0)
(0.0594237 0.00494453 0)
(0.0698588 0.00209041 0)
(0.0957001 3.12541e-07 0)
(0.120157 0.00380761 0)
(0.127897 0.0069597 0)
(0.131796 0.0148016 0)
(0.12345 0.0222724 0)
(0.116758 0.0348525 0)
(0.0934206 0.052083 0)
(0.0482925 0.052483 0)
(-0.0178942 0.0382012 0)
(-0.0850136 0.0195069 0)
(-0.12079 0.00152684 0)
(-0.130688 -0.00746531 0)
(-0.129731 -0.00566399 0)
(-0.126765 -0.00682795 0)
(-0.115451 -0.00319876 0)
(-0.101166 -0.0104673 0)
(-0.0595042 -0.00465899 0)
(-0.0436981 0.00431122 0)
(0.0135108 -0.0200464 0)
(0.0314557 -0.0219374 0)
(0.0587643 -0.0168476 0)
(0.0736057 -0.0192681 0)
(0.0966497 -0.0207109 0)
(0.118047 -0.0147968 0)
(0.13024 -0.0137496 0)
(0.137545 -0.011805 0)
(0.141022 -0.0159709 0)
(0.13007 -0.0252909 0)
(0.0958549 -0.0211068 0)
(0.0370253 0.00139875 0)
(-0.0319806 0.0310034 0)
(-0.0940592 0.029562 0)
(-0.126099 0.0180837 0)
(-0.131502 0.0103723 0)
(-0.128189 0.00362939 0)
(-0.124265 -0.0012487 0)
(-0.114371 -0.00819933 0)
(-0.0903947 -0.0157653 0)
(-0.061501 -0.0211577 0)
(-0.0340799 -0.00636608 0)
(0.0146919 -0.0273109 0)
(0.0295908 -0.0302112 0)
(0.0558913 -0.0208194 0)
(0.0807335 -0.0259135 0)
(0.0942249 -0.0284551 0)
(0.113009 -0.0180088 0)
(0.124627 -0.0085967 0)
(0.132004 0.00912879 0)
(0.132036 0.0300933 0)
(0.117696 0.0690641 0)
(0.0938488 0.117687 0)
(0.049144 0.112667 0)
(-0.0113234 0.0846689 0)
(-0.0763074 0.054348 0)
(-0.119666 0.0211646 0)
(-0.139951 -0.00272942 0)
(-0.140639 -0.00770173 0)
(-0.130678 -0.0129871 0)
(-0.118723 -0.0173194 0)
(-0.081517 -0.0334685 0)
(-0.0548392 -0.0316706 0)
(-0.0146734 -0.0166449 0)
(0.0159262 -0.139193 0)
(0.026158 -0.13995 0)
(0.0482291 -0.137307 0)
(0.0832451 -0.137627 0)
(0.0888941 -0.134686 0)
(0.0988487 -0.127583 0)
(0.121108 -0.120722 0)
(0.144771 -0.109675 0)
(0.163818 -0.0916011 0)
(0.148498 -0.0528237 0)
(0.0893524 -0.0160861 0)
(0.0151402 0.0610327 0)
(-0.0401249 0.114408 0)
(-0.0934081 0.0859265 0)
(-0.128767 0.0445274 0)
(-0.143494 0.014934 0)
(-0.143026 -0.00183314 0)
(-0.129628 -0.0146689 0)
(-0.114282 -0.0300233 0)
(-0.0803374 -0.0473927 0)
(-0.0679722 -0.0535163 0)
(-0.0177865 -0.0332159 0)
(0.0049002 0.0381968 0)
(0.0168358 0.0410311 0)
(0.0252354 0.0351984 0)
(0.0382405 0.0406309 0)
(0.0411934 0.0493822 0)
(0.03835 0.0486841 0)
(0.0461642 0.067439 0)
(0.0500484 0.110299 0)
(0.0499051 0.178215 0)
(0.0436548 0.143475 0)
(0.0306422 0.104128 0)
(-0.0317493 0.0985213 0)
(-0.095479 0.116983 0)
(-0.143158 0.0916122 0)
(-0.160428 0.0482993 0)
(-0.158667 0.0115702 0)
(-0.147018 -0.0119711 0)
(-0.12493 -0.0264601 0)
(-0.102331 -0.0423309 0)
(-0.0778555 -0.0526324 0)
(-0.0800502 -0.0605919 0)
(-0.0348581 -0.0507177 0)
(-0.00363463 -0.127314 0)
(0.00213256 -0.126192 0)
(-0.00199383 -0.125509 0)
(-0.0106468 -0.119002 0)
(-0.0207411 -0.108182 0)
(-0.0341416 -0.105578 0)
(-0.0531032 -0.111451 0)
(-0.0784722 -0.132309 0)
(-0.0791634 -0.155939 0)
(-0.047048 -0.124594 0)
(0.00716809 0.0195269 0)
(-0.0876819 0.136834 0)
(-0.16981 0.139301 0)
(-0.198254 0.101481 0)
(-0.218329 0.0418912 0)
(-0.205323 0.00494909 0)
(-0.171619 -0.0164137 0)
(-0.129331 -0.032335 0)
(-0.0931974 -0.0481279 0)
(-0.0746981 -0.0518609 0)
(-0.080734 -0.0659238 0)
(-0.0541956 -0.0646085 0)
(-0.00268166 0.0116312 0)
(-0.00358882 0.0141667 0)
(-0.00166049 0.0109068 0)
(0.00348041 0.0235271 0)
(-0.0022778 0.0362926 0)
(-0.00756247 0.0352695 0)
(-0.0156538 0.0627481 0)
(-0.0523101 0.106151 0)
(-0.0982207 0.157567 0)
(-0.175473 0.172978 0)
(-0.198958 0.158637 0)
(-0.219139 0.145242 0)
(-0.319109 0.148468 0)
(-0.28816 0.112746 0)
(-0.278405 0.0606876 0)
(-0.259171 -0.00147431 0)
(-0.219964 -0.0358235 0)
(-0.156569 -0.0439968 0)
(-0.10759 -0.0491097 0)
(-0.0820113 -0.0521656 0)
(-0.0767498 -0.0696039 0)
(-0.0511134 -0.0824844 0)
(-0.00236577 -0.0753744 0)
(-0.000287756 -0.0765548 0)
(-0.00439624 -0.0775391 0)
(-0.0118238 -0.0696573 0)
(-0.0155119 -0.0592922 0)
(-0.034443 -0.05359 0)
(-0.055951 -0.0586608 0)
(-0.0670564 -0.0678893 0)
(-0.0645123 -0.0612372 0)
(-0.0701695 -0.00620623 0)
(-0.115249 0.107969 0)
(-0.208229 0.189761 0)
(-0.411896 0.120015 0)
(-0.422364 0.0510921 0)
(-0.407243 0.0154166 0)
(-0.371341 -0.00412867 0)
(-0.281489 -0.0253593 0)
(-0.215657 -0.0413173 0)
(-0.170679 -0.0544893 0)
(-0.0996491 -0.0342829 0)
(-0.0573317 -0.0644146 0)
(-0.0348275 -0.0743428 0)
(-0.00383108 -0.0239915 0)
(-0.0077995 -0.021508 0)
(0.00595131 -0.0222136 0)
(0.0346234 -0.000573161 0)
(0.0449685 0.0318886 0)
(0.0318947 0.0543116 0)
(0.0141058 0.116089 0)
(-0.0399387 0.168034 0)
(-0.103204 0.198849 0)
(-0.175841 0.195539 0)
(-0.192173 0.190868 0)
(-0.147708 0.251386 0)
(-0.174043 0.227488 0)
(-0.267859 0.142491 0)
(-0.308893 0.0180584 0)
(-0.280105 -0.142613 0)
(-0.265631 -0.20022 0)
(-0.249812 -0.175198 0)
(-0.202385 -0.122909 0)
(-0.112097 -0.100391 0)
(0.00285982 -0.036194 0)
(0.0380958 0.0120112 0)
(0.00314847 -0.0286219 0)
(0.0086508 -0.0428299 0)
(0.0158148 -0.0690109 0)
(0.0227633 -0.0406992 0)
(0.025635 0.0066901 0)
(0.0203859 0.0423655 0)
(0.0175842 0.0649422 0)
(-0.00166976 0.0881602 0)
(-0.000197833 0.119502 0)
(-0.00132242 0.134965 0)
(-0.016748 0.160944 0)
(-0.00570744 0.205888 0)
(0.0667491 0.232408 0)
(0.117513 0.150178 0)
(0.12326 0.0497931 0)
(0.1592 0.0131891 0)
(0.145658 -0.00873813 0)
(0.151147 -0.087403 0)
(0.208246 -0.0952992 0)
(0.212015 -0.0611894 0)
(0.241112 -0.0182138 0)
(0.281595 0.0452047 0)
(-0.00935779 -0.0890272 0)
(-0.0339049 -0.0831487 0)
(0.00142259 -0.0395982 0)
(0.0609348 0.0101694 0)
(0.088268 0.0712722 0)
(0.0381738 0.110595 0)
(-0.0133443 0.160826 0)
(-0.0694162 0.194296 0)
(-0.0842603 0.212374 0)
(-0.0893164 0.225687 0)
(-0.0726733 0.22194 0)
(-0.0337372 0.214137 0)
(0.0247081 0.209581 0)
(0.106564 0.139532 0)
(0.159898 0.0183959 0)
(0.179208 -0.0826115 0)
(0.230806 -0.127177 0)
(0.248403 -0.175349 0)
(0.321386 -0.209185 0)
(0.325342 -0.22855 0)
(0.347645 -0.212093 0)
(0.363383 -0.199409 0)
(-0.0343011 0.0595951 0)
(-0.057302 0.0141029 0)
(-0.0233557 -0.0714586 0)
(-0.0457864 -0.0448179 0)
(-0.0571604 0.0656149 0)
(-0.128359 0.150034 0)
(-0.121689 0.205874 0)
(-0.125146 0.204036 0)
(-0.12546 0.191405 0)
(-0.119539 0.186684 0)
(-0.105472 0.16773 0)
(-0.0820162 0.147792 0)
(-0.0272527 0.108329 0)
(0.055976 0.0737099 0)
(0.088526 0.0255935 0)
(0.125172 -0.0336568 0)
(0.181568 -0.0724525 0)
(0.190002 -0.146265 0)
(0.27575 -0.196658 0)
(0.278697 -0.247142 0)
(0.313369 -0.310209 0)
(0.345121 -0.303535 0)
(-0.0839075 0.00623102 0)
(-0.143714 -0.0743555 0)
(-0.284909 -0.158431 0)
(-0.524048 -0.0232849 0)
(-0.616901 0.0066585 0)
(-0.638135 -0.00805203 0)
(-0.564352 0.00959438 0)
(-0.439175 0.0974343 0)
(-0.372678 0.126245 0)
(-0.283741 0.176053 0)
(-0.237961 0.169724 0)
(-0.205148 0.135355 0)
(-0.128371 0.0958716 0)
(-0.0639323 0.0300477 0)
(-0.000749737 -0.065908 0)
(0.0419231 -0.194108 0)
(0.0786538 -0.284554 0)
(0.0617402 -0.405013 0)
(0.127585 -0.487539 0)
(0.113716 -0.569064 0)
(0.145089 -0.634452 0)
(0.165654 -0.658931 0)
(-0.240704 -0.295469 0)
(-0.30003 -0.209033 0)
(-0.445369 -0.135354 0)
(-0.599035 -0.235625 0)
(-0.696288 -0.394638 0)
(-0.665222 -0.491421 0)
(-0.647673 -0.512849 0)
(-0.582913 -0.398829 0)
(-0.535849 -0.311381 0)
(-0.493433 -0.250239 0)
(-0.446833 -0.247929 0)
(-0.397955 -0.316033 0)
(-0.337512 -0.323088 0)
(-0.269179 -0.332868 0)
(-0.228711 -0.423571 0)
(-0.187804 -0.47024 0)
(-0.187276 -0.56231 0)
(-0.294164 -0.835959 0)
(-0.311277 -1.1811 0)
(-0.312861 -1.51267 0)
(-0.238761 -0.245441 0)
(-0.280011 -0.300108 0)
(-0.490837 -0.561004 0)
(-0.476827 -0.431672 0)
(-0.48687 -0.340307 0)
(-0.579867 -0.460872 0)
(-0.656024 -0.585716 0)
(-0.629808 -0.577195 0)
(-0.222798 -0.111763 0)
(-0.353533 -0.338281 0)
(-0.435475 -0.428791 0)
(-0.453113 -0.410387 0)
(-0.457698 -0.430116 0)
(-0.334664 -0.537584 0)
(-0.406641 -0.889472 0)
(-0.452039 -0.96566 0)
(-0.46209 -0.337236 0)
(-0.614222 -0.118512 0)
(-0.716663 -0.220013 0)
(-0.783494 -0.579752 0)
(-0.728466 -0.813914 0)
(-0.566383 -0.844617 0)
(-0.507148 -0.638889 0)
(-0.778348 -0.058663 0)
(-0.291489 -0.460445 0)
(-0.380281 -0.423403 0)
(-0.376172 -0.317715 0)
(-0.241507 -0.165137 0)
(0.147285 -0.3519 0)
(0.125233 -0.561347 0)
(0.0343571 -0.546068 0)
(-0.185759 -0.522429 0)
(-0.196791 -0.148496 0)
(-0.33701 -0.165868 0)
(-0.419238 -0.461088 0)
(-0.314976 -0.651897 0)
(-0.192912 -0.693524 0)
(0.017194 -0.559968 0)
(0.124868 -0.407265 0)
(0.205222 -0.383726 0)
(0.159868 -0.356097 0)
(0.0820916 -0.303659 0)
(-0.131827 -0.183461 0)
(-0.330096 -0.0877329 0)
(-0.681851 0.00343638 0)
(-1.06739 0.410053 0)
(-0.191536 0.499099 0)
(-0.0886567 0.436774 0)
(0.0534247 0.437688 0)
(0.176981 0.332102 0)
(0.336317 0.138003 0)
(0.210891 -0.102324 0)
(0.224148 -0.019797 0)
(0.160979 0.363147 0)
(-0.110764 0.431905 0)
(0.0285146 0.461459 0)
(-0.0331374 0.51787 0)
(-0.109909 0.557303 0)
(-0.15487 0.289415 0)
(-0.124321 0.271748 0)
(-0.10846 0.351226 0)
(-0.127213 0.236128 0)
(-0.157729 0.109141 0)
(-0.208214 -0.0350948 0)
(-0.299102 -0.0676048 0)
(-0.419402 -0.0483802 0)
(-0.598092 0.105026 0)
(-0.837887 0.481523 0)
(-0.991713 1.15638 0)
(-0.131478 0.387859 0)
(-0.0281072 0.282273 0)
(-0.0119504 0.272948 0)
(0.121906 0.135763 0)
(0.178648 -0.154708 0)
(0.145644 -0.268988 0)
(-0.0248506 -0.247613 0)
(0.0658126 0.0645914 0)
(-0.0782529 0.280943 0)
(-0.0225341 0.246493 0)
(-0.144307 0.0561461 0)
(0.0185559 -0.374237 0)
(0.0101085 -0.417626 0)
(-0.0653269 -0.388936 0)
(-0.0179152 -0.344762 0)
(0.0465951 -0.299808 0)
(0.0464292 -0.257634 0)
(-0.00915488 -0.196951 0)
(-0.112182 -0.0843708 0)
(-0.23542 0.107547 0)
(-0.389223 0.328904 0)
(-0.492997 0.587069 0)
(-0.497399 1.0322 0)
(-0.0429107 0.460509 0)
(0.0620449 0.242862 0)
(0.0574581 0.163543 0)
(0.167704 0.0602134 0)
(0.157514 0.00337339 0)
(0.096812 -0.0523449 0)
(-0.0528425 -0.0647142 0)
(-0.00561508 0.211213 0)
(0.0349076 0.314293 0)
(0.147462 0.29023 0)
(0.232008 0.213191 0)
(0.268979 0.233853 0)
(0.103496 0.180413 0)
(0.0120195 0.106398 0)
(-0.035562 0.114089 0)
(-0.0898781 0.0992938 0)
(-0.143131 0.0920452 0)
(-0.202516 0.0947488 0)
(-0.267804 0.157947 0)
(-0.316082 0.245849 0)
(-0.323468 0.407026 0)
(-0.311281 0.612153 0)
(-0.188974 0.848324 0)
(0.046963 0.415716 0)
(0.0938434 0.239775 0)
(0.0994116 0.1606 0)
(0.107573 0.0834719 0)
(0.0725694 0.0114106 0)
(0.0467466 -0.0304442 0)
(-0.0439329 -0.050209 0)
(-0.0585496 0.0793218 0)
(0.0495433 0.215401 0)
(0.123847 0.188575 0)
(0.111503 0.0984449 0)
(0.051904 -0.0373602 0)
(0.0330462 -0.0851369 0)
(-0.0042308 -0.11705 0)
(-0.0443408 -0.13024 0)
(-0.0689032 -0.113618 0)
(-0.10092 -0.0845755 0)
(-0.14128 -0.0240151 0)
(-0.18877 0.0821723 0)
(-0.234815 0.220707 0)
(-0.252901 0.384915 0)
(-0.220751 0.55337 0)
(-0.115346 0.707112 0)
(0.058304 0.311033 0)
(0.0924776 0.219757 0)
(0.101877 0.13805 0)
(0.100159 0.0833551 0)
(0.0802288 0.0522141 0)
(0.0428842 0.0402684 0)
(-0.0256442 0.0270654 0)
(-0.0638698 0.0754726 0)
(-0.0390717 0.110357 0)
(0.0355551 0.16438 0)
(0.0468392 0.174699 0)
(0.0421262 0.166851 0)
(0.00553117 0.149645 0)
(-0.0373069 0.12999 0)
(-0.0851759 0.120957 0)
(-0.129979 0.120446 0)
(-0.175055 0.126531 0)
(-0.215384 0.143025 0)
(-0.238281 0.183645 0)
(-0.239885 0.253408 0)
(-0.223778 0.355609 0)
(-0.186198 0.474075 0)
(-0.106953 0.580799 0)
(0.0392756 0.249301 0)
(0.0670613 0.196631 0)
(0.0859437 0.139709 0)
(0.0757043 0.104455 0)
(0.0526432 0.0843953 0)
(0.0277525 0.0714583 0)
(-0.00812574 0.0648252 0)
(-0.03665 0.0880695 0)
(-0.0420526 0.104353 0)
(-0.0293259 0.133676 0)
(-0.0119247 0.149189 0)
(-0.0169112 0.120113 0)
(-0.038037 0.0786843 0)
(-0.0627796 0.0407605 0)
(-0.0899562 0.0231294 0)
(-0.111672 0.0304553 0)
(-0.134536 0.0607719 0)
(-0.16243 0.108886 0)
(-0.190213 0.17584 0)
(-0.203473 0.252779 0)
(-0.188706 0.336484 0)
(-0.150039 0.417717 0)
(-0.0858885 0.48552 0)
(0.0207694 0.208988 0)
(0.0431869 0.170177 0)
(0.0553378 0.135621 0)
(0.0467614 0.116908 0)
(0.0332229 0.104008 0)
(0.0181512 0.0969687 0)
(-0.00331247 0.0946324 0)
(-0.0177586 0.104107 0)
(-0.026219 0.109885 0)
(-0.0291379 0.131324 0)
(-0.0194393 0.142901 0)
(-0.0157827 0.138676 0)
(-0.0228951 0.125095 0)
(-0.040824 0.113856 0)
(-0.0680064 0.105488 0)
(-0.0946312 0.103878 0)
(-0.116524 0.118426 0)
(-0.132919 0.146649 0)
(-0.143029 0.191565 0)
(-0.146744 0.247129 0)
(-0.135622 0.313786 0)
(-0.103041 0.379407 0)
(-0.05456 0.430876 0)
(0.0121263 0.185955 0)
(0.0263148 0.157847 0)
(0.0323678 0.137421 0)
(0.0282058 0.123857 0)
(0.0212163 0.113726 0)
(0.0122985 0.108589 0)
(0.00127072 0.10611 0)
(-0.0065883 0.112084 0)
(-0.0131728 0.11619 0)
(-0.0166266 0.129584 0)
(-0.0120923 0.138393 0)
(-0.00959656 0.139358 0)
(-0.00933278 0.13124 0)
(-0.0184724 0.12209 0)
(-0.0332727 0.114955 0)
(-0.050481 0.115701 0)
(-0.0714999 0.128772 0)
(-0.0858365 0.156577 0)
(-0.0944619 0.196313 0)
(-0.0965077 0.239022 0)
(-0.0865901 0.286086 0)
(-0.0580059 0.337984 0)
(-0.0175158 0.3825 0)
(0.00715527 0.172648 0)
(0.0156527 0.149466 0)
(0.0201886 0.137067 0)
(0.0189419 0.127983 0)
(0.0149755 0.120315 0)
(0.00979854 0.115769 0)
(0.00317104 0.113818 0)
(-0.00157785 0.117017 0)
(-0.0058646 0.120582 0)
(-0.00757002 0.129656 0)
(-0.00473966 0.136457 0)
(-0.00179808 0.137491 0)
(-0.000737219 0.132867 0)
(-0.00478483 0.129562 0)
(-0.0135343 0.127442 0)
(-0.0244123 0.132446 0)
(-0.0400314 0.146851 0)
(-0.0528009 0.170126 0)
(-0.0592481 0.203935 0)
(-0.0570782 0.24117 0)
(-0.0501594 0.272757 0)
(-0.0266891 0.305682 0)
(0.00942501 0.340074 0)
(0.00419469 0.163941 0)
(0.0100435 0.14322 0)
(0.0138302 0.135453 0)
(0.0141598 0.129316 0)
(0.0120889 0.124062 0)
(0.0083917 0.120527 0)
(0.00347961 0.119096 0)
(-0.0006396 0.120741 0)
(-0.00438694 0.123157 0)
(-0.00617022 0.128947 0)
(-0.00376244 0.133017 0)
(-0.000920316 0.134335 0)
(-0.000972859 0.133916 0)
(-0.00441428 0.135833 0)
(-0.0112117 0.137679 0)
(-0.02034 0.145548 0)
)
;

boundaryField
{
    leftWall
    {
        type            fixedValue;
        value           uniform (0 0 0);
    }
    rightWall
    {
        type            fixedValue;
        value           nonuniform 0();
    }
    lowerWall
    {
        type            fixedValue;
        value           uniform (0 0 0);
    }
    atmosphere
    {
        type            fluxCorrectedVelocity;
        value           nonuniform 0();
    }
    defaultFaces
    {
        type            empty;
    }
    procBoundary0to1
    {
        type            processor;
        value           nonuniform List<vector> 
26
(
(-0.035545 0.00260734 0)
(-0.0189094 -0.0182379 0)
(0.00231989 -0.0203041 0)
(0.000793772 -0.023142 0)
(0.00291877 -0.0287664 0)
(-0.00421308 -0.0376317 0)
(-0.00449181 -0.0588753 0)
(0.00488852 -0.0338181 0)
(0.0420376 0.00842102 0)
(0.348094 0.110773 0)
(0.341028 -0.178286 0)
(0.340217 -0.228427 0)
(0.20108 -0.676023 0)
(-0.544924 -0.111191 0)
(-1.26934 0.258615 0)
(-1.18013 1.05203 0)
(-1.18013 1.05203 0)
(-0.994882 1.30405 0)
(-0.425492 1.30326 0)
(-0.0266583 0.956918 0)
(0.00723413 0.741813 0)
(-0.0278348 0.608237 0)
(-0.0295628 0.508647 0)
(-0.013484 0.449845 0)
(0.0155148 0.40133 0)
(0.039411 0.355904 0)
)
;
    }
    procBoundary0to2
    {
        type            processor;
        value           nonuniform List<vector> 
24
(
(-0.0321552 0.159174 0)
(-0.0373352 0.178601 0)
(-0.0373659 0.20407 0)
(-0.0322991 0.235268 0)
(-0.0199892 0.259524 0)
(-8.57085e-05 0.280143 0)
(0.0330237 0.30351 0)
(0.0026735 0.158459 0)
(0.00718627 0.13878 0)
(0.0102111 0.133607 0)
(0.0102532 0.129589 0)
(0.00889153 0.126391 0)
(0.00564934 0.124257 0)
(0.00174478 0.123538 0)
(-0.00183115 0.124652 0)
(-0.00512525 0.126479 0)
(-0.00674588 0.129143 0)
(-0.00710399 0.131599 0)
(-0.0063031 0.133821 0)
(-0.0081724 0.13597 0)
(-0.0101268 0.138717 0)
(-0.0145158 0.144348 0)
(-0.0321552 0.159174 0)
(-0.0192454 0.154646 0)
)
;
    }
}


// ************************************************************************* //
