/*--------------------------------*- C++ -*----------------------------------*\
| =========                 |                                                 |
| \\      /  F ield         | OpenFOAM: The Open Source CFD Toolbox           |
|  \\    /   O peration     | Version:  2.4.0                                 |
|   \\  /    A nd           | Web:      www.OpenFOAM.org                      |
|    \\/     M anipulation  |                                                 |
\*---------------------------------------------------------------------------*/
FoamFile
{
    version     2.0;
    format      ascii;
    class       volVectorField;
    location    "0.7";
    object      U.water;
}
// * * * * * * * * * * * * * * * * * * * * * * * * * * * * * * * * * * * * * //

dimensions      [0 1 -1 0 0 0 0];

internalField   nonuniform List<vector> 
575
(
(0.012056 0.0075523 0)
(0.0333793 0.00704848 0)
(0.0594237 0.00892248 0)
(0.0698587 0.00754427 0)
(0.0956999 0.0060243 0)
(0.120156 0.00730271 0)
(0.127895 0.00874714 0)
(0.131792 0.0153104 0)
(0.123443 0.0224832 0)
(0.116747 0.0350427 0)
(0.0934068 0.0522246 0)
(0.048279 0.0525558 0)
(-0.0179045 0.0382455 0)
(-0.0850204 0.0195464 0)
(-0.120794 0.001564 0)
(-0.130691 -0.00743261 0)
(-0.129733 -0.00564166 0)
(-0.126765 -0.00681829 0)
(-0.115451 -0.00320186 0)
(-0.101163 -0.0104945 0)
(-0.0594898 -0.00517816 0)
(-0.0436683 -0.000768806 0)
(0.0135945 0.0279475 0)
(0.0314371 0.0286572 0)
(0.0587195 0.0269061 0)
(0.07358 0.0282145 0)
(0.0964944 0.0281678 0)
(0.117834 0.0275916 0)
(0.130069 0.0241326 0)
(0.137436 0.0213861 0)
(0.140948 0.0125495 0)
(0.129988 -0.013041 0)
(0.0957566 -0.017514 0)
(0.0369456 0.00212609 0)
(-0.0320263 0.0313683 0)
(-0.0940861 0.0299123 0)
(-0.126116 0.0182986 0)
(-0.131513 0.0104735 0)
(-0.128195 0.00368793 0)
(-0.124267 -0.00121592 0)
(-0.114371 -0.00818844 0)
(-0.0903929 -0.0157806 0)
(-0.0614905 -0.0215169 0)
(-0.0340466 -0.0108801 0)
(0.0148137 0.145783 0)
(0.0294956 0.143263 0)
(0.0555481 0.152304 0)
(0.0804921 0.148418 0)
(0.0928157 0.146941 0)
(0.109297 0.158726 0)
(0.117875 0.170748 0)
(0.120071 0.192691 0)
(0.111698 0.218668 0)
(0.105908 0.166784 0)
(0.0897129 0.168067 0)
(0.0478882 0.143506 0)
(-0.0117935 0.0893429 0)
(-0.0766169 0.0552823 0)
(-0.119836 0.0216889 0)
(-0.140008 -0.00247076 0)
(-0.140653 -0.00753529 0)
(-0.130682 -0.0128599 0)
(-0.118724 -0.0172075 0)
(-0.0815173 -0.0333502 0)
(-0.0548366 -0.0318297 0)
(-0.0146512 -0.0194726 0)
(0.0158566 0.0241656 0)
(0.0260557 0.0237324 0)
(0.0479562 0.0250045 0)
(0.0826307 0.0258 0)
(0.0868561 0.0284083 0)
(0.0950367 0.0347051 0)
(0.115907 0.0417527 0)
(0.138555 0.0538182 0)
(0.152588 0.0729754 0)
(0.115912 0.120058 0)
(0.0317881 0.161786 0)
(-0.0455685 0.24657 0)
(-0.0567019 0.152446 0)
(-0.0951489 0.104009 0)
(-0.128961 0.0507346 0)
(-0.14357 0.0177242 0)
(-0.143063 -0.000814666 0)
(-0.129644 -0.0141687 0)
(-0.114287 -0.0294637 0)
(-0.0803392 -0.0467495 0)
(-0.0679686 -0.0537626 0)
(-0.0177533 -0.0357922 0)
(0.00485181 0.0402414 0)
(0.0168158 0.0428913 0)
(0.0251761 0.0371863 0)
(0.0381417 0.042342 0)
(0.0411051 0.050853 0)
(0.0382481 0.0500569 0)
(0.0460385 0.0689169 0)
(0.049809 0.112702 0)
(0.0457741 0.197581 0)
(0.00335018 0.294655 0)
(-0.0225317 0.316417 0)
(-0.107257 0.276418 0)
(-0.181658 0.278215 0)
(-0.176856 0.174761 0)
(-0.168408 0.0761091 0)
(-0.160383 0.0226441 0)
(-0.147412 -0.0068399 0)
(-0.124985 -0.0229594 0)
(-0.102332 -0.0397207 0)
(-0.0778531 -0.0515597 0)
(-0.0800426 -0.0613027 0)
(-0.0347836 -0.0535757 0)
(-0.00363467 -0.127307 0)
(0.00213264 -0.126184 0)
(-0.00199309 -0.125501 0)
(-0.0106448 -0.118993 0)
(-0.0207376 -0.108174 0)
(-0.0341371 -0.105574 0)
(-0.0530983 -0.111446 0)
(-0.0784675 -0.132305 0)
(-0.0791599 -0.155938 0)
(-0.0471572 -0.124488 0)
(-0.00100915 0.0389962 0)
(-0.157412 0.29004 0)
(-0.25306 0.303836 0)
(-0.267093 0.244913 0)
(-0.238588 0.119903 0)
(-0.210568 0.0341232 0)
(-0.17283 -0.00116947 0)
(-0.129462 -0.0226756 0)
(-0.0930939 -0.0333978 0)
(-0.0746708 -0.0296358 0)
(-0.0807263 -0.0358985 0)
(-0.0540988 -0.0345963 0)
(-0.00268174 0.0116418 0)
(-0.00358868 0.0141774 0)
(-0.00165961 0.0109176 0)
(0.00348239 0.0235381 0)
(-0.00227455 0.036303 0)
(-0.00755827 0.0352933 0)
(-0.0156491 0.0627559 0)
(-0.0523054 0.106157 0)
(-0.0982175 0.157571 0)
(-0.175472 0.172983 0)
(-0.198791 0.159068 0)
(-0.20278 0.197139 0)
(-0.40822 0.310972 0)
(-0.356061 0.263503 0)
(-0.310696 0.210521 0)
(-0.268777 0.0686134 0)
(-0.222467 0.00898788 0)
(-0.156476 -0.00921756 0)
(-0.108692 0.014004 0)
(-0.0806334 0.0597363 0)
(-0.0750499 0.0942088 0)
(-0.0538906 0.0819805 0)
(-0.00236568 -0.075362 0)
(-0.00028736 -0.0765421 0)
(-0.00439522 -0.0775511 0)
(-0.0118219 -0.0697007 0)
(-0.0155055 -0.059427 0)
(-0.0344456 -0.0553721 0)
(-0.0559441 -0.0608032 0)
(-0.0670516 -0.069928 0)
(-0.0645084 -0.0622688 0)
(-0.0701712 -0.00658006 0)
(-0.115122 0.107978 0)
(-0.171158 0.239871 0)
(-0.424007 0.278196 0)
(-0.473686 0.203942 0)
(-0.443873 0.177374 0)
(-0.383331 0.141668 0)
(-0.280687 0.0923231 0)
(-0.216709 0.0787406 0)
(-0.167003 0.0721 0)
(-0.095832 0.0951426 0)
(-0.0545142 0.0645217 0)
(-0.0404057 0.0507475 0)
(-0.00383089 -0.0239797 0)
(-0.00780065 -0.0214952 0)
(0.00593198 -0.02211 0)
(0.0346076 5.39738e-06 0)
(0.0449793 0.0332396 0)
(0.0321151 0.0543019 0)
(0.0147085 0.114598 0)
(-0.0393479 0.165627 0)
(-0.102862 0.197137 0)
(-0.175609 0.193354 0)
(-0.19208 0.187878 0)
(-0.139209 0.262446 0)
(-0.11254 0.34853 0)
(-0.238344 0.328615 0)
(-0.318925 0.169607 0)
(-0.272993 -0.0074177 0)
(-0.248649 -0.074898 0)
(-0.242622 -0.0691464 0)
(-0.199905 -0.03966 0)
(-0.113344 -0.0423035 0)
(-0.00344109 -0.0119471 0)
(0.0217227 -0.0111445 0)
(0.00314834 -0.0286125 0)
(0.00861187 -0.0451497 0)
(0.0156301 -0.0787293 0)
(0.0187492 -0.0721671 0)
(0.0245869 -0.0413998 0)
(0.0190848 -0.0338957 0)
(0.0181677 -0.00835757 0)
(0.000251812 0.0188784 0)
(-0.00471265 0.0524536 0)
(-0.0113191 0.0891137 0)
(-0.0250197 0.132218 0)
(-0.013203 0.188717 0)
(0.0729639 0.244716 0)
(0.165762 0.216337 0)
(0.190771 0.130261 0)
(0.183673 0.095716 0)
(0.140453 0.0801777 0)
(0.108265 0.00798466 0)
(0.158299 -0.0751374 0)
(0.205592 -0.117129 0)
(0.247341 -0.103161 0)
(0.28212 -0.0431877 0)
(-0.00956237 -0.0891371 0)
(-0.0352305 -0.0922393 0)
(-0.00417645 -0.108896 0)
(0.0554447 -0.0714742 0)
(0.0807995 -0.0174915 0)
(0.0410854 0.0181875 0)
(-0.00677306 0.0709281 0)
(-0.0594226 0.10536 0)
(-0.0743856 0.123946 0)
(-0.0788377 0.140292 0)
(-0.0663315 0.142122 0)
(-0.0344907 0.141283 0)
(0.0191168 0.163459 0)
(0.104052 0.12278 0)
(0.157475 0.00515939 0)
(0.202271 -0.127361 0)
(0.262024 -0.199147 0)
(0.289155 -0.232897 0)
(0.337831 -0.268237 0)
(0.342786 -0.295386 0)
(0.358983 -0.288143 0)
(0.377547 -0.286212 0)
(-0.0345348 0.055214 0)
(-0.0697498 0.00705476 0)
(-0.0141286 -0.123969 0)
(-0.0340782 -0.126307 0)
(-0.0614159 -0.028601 0)
(-0.124894 0.0402266 0)
(-0.111217 0.100273 0)
(-0.120058 0.111789 0)
(-0.122284 0.1076 0)
(-0.117676 0.107395 0)
(-0.104262 0.0916585 0)
(-0.085345 0.0729915 0)
(-0.0357525 0.0401727 0)
(0.0415781 0.00964963 0)
(0.097516 -0.0231576 0)
(0.135937 -0.0736483 0)
(0.195312 -0.107508 0)
(0.20173 -0.182746 0)
(0.282487 -0.245465 0)
(0.282909 -0.306295 0)
(0.326454 -0.365054 0)
(0.367367 -0.37133 0)
(-0.0407224 -0.0124429 0)
(-0.113551 -0.130419 0)
(-0.259217 -0.285032 0)
(-0.531207 -0.172571 0)
(-0.555811 -0.13246 0)
(-0.53001 -0.0997015 0)
(-0.483032 -0.0663084 0)
(-0.391023 -0.00105755 0)
(-0.332573 0.0279105 0)
(-0.256579 0.0737417 0)
(-0.22037 0.0680304 0)
(-0.196832 0.0371137 0)
(-0.126157 0.00975985 0)
(-0.0627581 -0.0405178 0)
(0.00359875 -0.120098 0)
(0.0588931 -0.238218 0)
(0.112384 -0.317038 0)
(0.0982075 -0.443249 0)
(0.151292 -0.557799 0)
(0.0911118 -0.719957 0)
(0.126767 -0.784782 0)
(0.161685 -0.849193 0)
(-0.0214666 -0.201022 0)
(-0.10997 -0.25798 0)
(-0.351957 -0.36545 0)
(-0.524098 -0.651259 0)
(-0.635938 -0.501865 0)
(-0.622058 -0.380073 0)
(-0.618917 -0.514059 0)
(-0.503056 -0.372438 0)
(-0.417232 -0.289474 0)
(-0.363936 -0.194261 0)
(-0.330991 -0.178385 0)
(-0.291979 -0.252704 0)
(-0.336077 -0.509826 0)
(-0.264913 -0.503294 0)
(-0.211132 -0.562143 0)
(-0.162891 -0.60828 0)
(-0.116492 -0.691808 0)
(-0.107416 -0.876063 0)
(0.0108542 -1.01841 0)
(-0.118558 -0.709566 0)
(-0.285012 -0.158968 0)
(-0.328439 -0.293052 0)
(-0.00575411 -0.451782 0)
(-0.0644325 -0.564295 0)
(-0.2527 -0.676614 0)
(-0.319453 -0.700497 0)
(-0.613708 0.231658 0)
(-0.211924 0.11936 0)
(0.121895 0.160522 0)
(0.225326 0.3936 0)
(0.0166809 0.303403 0)
(-0.293164 0.00933932 0)
(-0.311638 -0.00516868 0)
(-0.228692 0.800733 0)
(-0.343996 0.735684 0)
(-0.517793 0.677731 0)
(-0.691844 0.538782 0)
(-0.927049 0.153246 0)
(-0.987715 -0.0742068 0)
(-0.878319 -0.556812 0)
(-0.746433 -0.81519 0)
(-0.562667 -0.856655 0)
(-0.488037 -0.65709 0)
(-0.67569 -0.0983452 0)
(-0.0158792 -0.467084 0)
(-0.0332438 -0.386957 0)
(-0.0380963 -0.0705559 0)
(-0.0306 0.187132 0)
(0.137404 -0.357105 0)
(0.125606 -0.558185 0)
(0.0342344 -0.545551 0)
(-0.185848 -0.523733 0)
(-0.188677 -0.143553 0)
(-0.289009 -0.0413994 0)
(-0.412384 -0.435854 0)
(-0.314727 -0.648457 0)
(-0.192901 -0.691684 0)
(0.0181471 -0.558454 0)
(0.125562 -0.405245 0)
(0.205937 -0.382043 0)
(0.158078 -0.352857 0)
(0.079481 -0.298978 0)
(-0.134236 -0.178969 0)
(-0.328944 -0.0864971 0)
(-0.670034 -0.00869299 0)
(-1.05415 0.361993 0)
(-0.190668 0.506321 0)
(-0.0831428 0.452223 0)
(0.059447 0.450586 0)
(0.180009 0.340265 0)
(0.336878 0.139409 0)
(0.21053 -0.102229 0)
(0.224185 -0.0193569 0)
(0.160933 0.363831 0)
(-0.110921 0.433949 0)
(0.0286471 0.465411 0)
(-0.0330465 0.521273 0)
(-0.110072 0.558137 0)
(-0.155176 0.290707 0)
(-0.125254 0.275066 0)
(-0.110102 0.352843 0)
(-0.129424 0.237642 0)
(-0.160823 0.1114 0)
(-0.211838 -0.0321822 0)
(-0.301551 -0.0660078 0)
(-0.419749 -0.047762 0)
(-0.595437 0.101457 0)
(-0.830115 0.465435 0)
(-0.978275 1.16835 0)
(-0.131323 0.387744 0)
(-0.0279567 0.282102 0)
(-0.0122066 0.273085 0)
(0.121684 0.1362 0)
(0.178653 -0.154442 0)
(0.145643 -0.2689 0)
(-0.0248887 -0.247508 0)
(0.065717 0.0648674 0)
(-0.0783118 0.281488 0)
(-0.0226401 0.246705 0)
(-0.144487 0.0562603 0)
(0.0184385 -0.374 0)
(0.0100201 -0.417173 0)
(-0.0651321 -0.386334 0)
(-0.0162876 -0.340122 0)
(0.0475923 -0.293203 0)
(0.0449385 -0.251519 0)
(-0.0125532 -0.189411 0)
(-0.114659 -0.0792326 0)
(-0.236094 0.109387 0)
(-0.389876 0.331034 0)
(-0.489971 0.589437 0)
(-0.471899 1.03031 0)
(-0.0429329 0.459614 0)
(0.0620346 0.241853 0)
(0.057518 0.163061 0)
(0.167693 0.0602883 0)
(0.157512 0.00341078 0)
(0.0968116 -0.0523321 0)
(-0.0528494 -0.0645382 0)
(-0.00573121 0.21217 0)
(0.0348497 0.315142 0)
(0.147558 0.29094 0)
(0.232116 0.21393 0)
(0.268925 0.234678 0)
(0.103044 0.181691 0)
(0.0111396 0.111341 0)
(-0.0374932 0.121247 0)
(-0.092601 0.104956 0)
(-0.145621 0.0966885 0)
(-0.204779 0.0991632 0)
(-0.269162 0.161138 0)
(-0.31665 0.247765 0)
(-0.323835 0.409101 0)
(-0.311508 0.614478 0)
(-0.183159 0.852801 0)
(0.0469256 0.414018 0)
(0.0938099 0.238651 0)
(0.099419 0.160055 0)
(0.107572 0.0833784 0)
(0.0725698 0.0114007 0)
(0.0467466 -0.030441 0)
(-0.0439338 -0.0501305 0)
(-0.058599 0.0797191 0)
(0.0495089 0.215886 0)
(0.123634 0.189411 0)
(0.111068 0.0991178 0)
(0.0515237 -0.036918 0)
(0.0328908 -0.0844845 0)
(-0.00439356 -0.115491 0)
(-0.0444464 -0.127119 0)
(-0.0689336 -0.111706 0)
(-0.101001 -0.0830822 0)
(-0.141407 -0.0226076 0)
(-0.189018 0.0838321 0)
(-0.235125 0.22299 0)
(-0.252987 0.3873 0)
(-0.220672 0.555855 0)
(-0.114646 0.70848 0)
(0.0582677 0.30942 0)
(0.0924517 0.218915 0)
(0.101871 0.137733 0)
(0.100159 0.0833181 0)
(0.0802289 0.0522123 0)
(0.0428842 0.0402682 0)
(-0.0256435 0.0270899 0)
(-0.0638759 0.0756362 0)
(-0.0390938 0.110619 0)
(0.0355402 0.165311 0)
(0.0469198 0.175914 0)
(0.0421328 0.167675 0)
(0.00548356 0.150558 0)
(-0.0373649 0.13101 0)
(-0.0853001 0.122573 0)
(-0.130137 0.12166 0)
(-0.17522 0.127516 0)
(-0.215497 0.143723 0)
(-0.23841 0.184544 0)
(-0.240046 0.254963 0)
(-0.223767 0.357402 0)
(-0.18601 0.475558 0)
(-0.106719 0.581809 0)
(0.0392828 0.248369 0)
(0.0670591 0.19619 0)
(0.0859442 0.139615 0)
(0.0757043 0.10445 0)
(0.0526432 0.0843947 0)
(0.0277526 0.0714579 0)
(-0.00812572 0.0648269 0)
(-0.0366491 0.0880985 0)
(-0.0420554 0.104448 0)
(-0.029366 0.13411 0)
(-0.0119655 0.149591 0)
(-0.0169349 0.120329 0)
(-0.0381065 0.0790981 0)
(-0.0628522 0.041352 0)
(-0.090034 0.0241963 0)
(-0.111779 0.0321723 0)
(-0.134609 0.0619789 0)
(-0.162445 0.109527 0)
(-0.190216 0.176328 0)
(-0.203461 0.253472 0)
(-0.188644 0.337339 0)
(-0.149941 0.418344 0)
(-0.0857617 0.48596 0)
(0.0207747 0.20865 0)
(0.0431878 0.170067 0)
(0.0553379 0.135612 0)
(0.0467614 0.116908 0)
(0.0332229 0.104008 0)
(0.0181512 0.0969686 0)
(-0.00331247 0.0946326 0)
(-0.0177587 0.104111 0)
(-0.026219 0.109902 0)
(-0.0291387 0.131421 0)
(-0.0194405 0.142975 0)
(-0.0157911 0.138807 0)
(-0.0229086 0.125427 0)
(-0.0408661 0.114793 0)
(-0.0681549 0.107874 0)
(-0.0948355 0.106829 0)
(-0.116624 0.120153 0)
(-0.132972 0.14762 0)
(-0.143025 0.191937 0)
(-0.14672 0.247447 0)
(-0.135569 0.314127 0)
(-0.102988 0.379665 0)
(-0.0544974 0.43107 0)
(0.0121266 0.185896 0)
(0.0263148 0.157839 0)
(0.0323678 0.13742 0)
(0.0282058 0.123857 0)
(0.0212163 0.113726 0)
(0.0122985 0.108589 0)
(0.00127072 0.10611 0)
(-0.00658832 0.112085 0)
(-0.0131729 0.116193 0)
(-0.0166267 0.129592 0)
(-0.0120927 0.138404 0)
(-0.00959874 0.139427 0)
(-0.00934035 0.131455 0)
(-0.0185156 0.12308 0)
(-0.0333904 0.117591 0)
(-0.0505892 0.118514 0)
(-0.0715678 0.130838 0)
(-0.0858348 0.157526 0)
(-0.0944514 0.196779 0)
(-0.096492 0.239221 0)
(-0.0865663 0.286227 0)
(-0.0579792 0.338093 0)
(-0.0174891 0.382585 0)
(0.00715527 0.172646 0)
(0.0156527 0.149465 0)
(0.0201886 0.137067 0)
(0.0189419 0.127983 0)
(0.0149755 0.120315 0)
(0.00979854 0.115769 0)
(0.00317104 0.113818 0)
(-0.00157786 0.117018 0)
(-0.00586463 0.120584 0)
(-0.00757009 0.12966 0)
(-0.0047398 0.136464 0)
(-0.00179846 0.137518 0)
(-0.000741158 0.13304 0)
(-0.00480626 0.130473 0)
(-0.0135743 0.129605 0)
(-0.0244316 0.134808 0)
(-0.040018 0.148511 0)
(-0.0527759 0.171149 0)
(-0.0592197 0.204402 0)
(-0.057059 0.241366 0)
(-0.050146 0.272843 0)
(-0.0266778 0.305733 0)
(0.00943722 0.340114 0)
(0.00419469 0.163941 0)
(0.0100435 0.14322 0)
(0.0138302 0.135452 0)
(0.0141598 0.129316 0)
(0.0120889 0.124062 0)
(0.0083917 0.120527 0)
(0.00347961 0.119096 0)
(-0.000639603 0.120741 0)
(-0.00438695 0.123158 0)
(-0.00617025 0.128949 0)
(-0.00376248 0.133021 0)
(-0.00092044 0.134347 0)
(-0.000974395 0.134071 0)
(-0.00441782 0.136508 0)
(-0.01121 0.138868 0)
(-0.020322 0.147029 0)
)
;

boundaryField
{
    leftWall
    {
        type            fixedValue;
        value           uniform (0 0 0);
    }
    rightWall
    {
        type            fixedValue;
        value           nonuniform 0();
    }
    lowerWall
    {
        type            fixedValue;
        value           uniform (0 0 0);
    }
    atmosphere
    {
        type            fluxCorrectedVelocity;
        value           nonuniform 0();
    }
    defaultFaces
    {
        type            empty;
    }
    procBoundary0to1
    {
        type            processor;
        value           nonuniform List<vector> 
26
(
(-0.0355271 -0.00785268 0)
(-0.0188835 -0.0299282 0)
(0.00234002 -0.0321353 0)
(0.000822351 -0.034807 0)
(0.00298436 -0.0408102 0)
(-0.00411305 -0.0285868 0)
(-0.00672884 0.0381349 0)
(-0.00100186 0.0845948 0)
(0.0325584 -0.00336471 0)
(0.340356 0.021121 0)
(0.377556 -0.27026 0)
(0.36919 -0.328735 0)
(0.209899 -0.916603 0)
(-0.0915199 -0.0500557 0)
(-0.986218 0.964771 0)
(-1.13988 1.13985 0)
(-1.13988 1.13985 0)
(-0.949192 1.38059 0)
(-0.369632 1.29538 0)
(-0.0171028 0.96016 0)
(0.00900739 0.744652 0)
(-0.0275096 0.609142 0)
(-0.029373 0.509097 0)
(-0.0133758 0.450112 0)
(0.0155711 0.401469 0)
(0.0394309 0.355961 0)
)
;
    }
    procBoundary0to2
    {
        type            processor;
        value           nonuniform List<vector> 
24
(
(-0.0321172 0.16048 0)
(-0.0372951 0.179407 0)
(-0.0373323 0.204482 0)
(-0.0322759 0.235463 0)
(-0.0199776 0.259596 0)
(-7.93617e-05 0.280172 0)
(0.0330286 0.303529 0)
(0.0026735 0.158459 0)
(0.00718627 0.13878 0)
(0.0102111 0.133607 0)
(0.0102532 0.129589 0)
(0.00889153 0.126391 0)
(0.00564934 0.124257 0)
(0.00174478 0.123538 0)
(-0.00183115 0.124652 0)
(-0.00512525 0.126479 0)
(-0.00674588 0.129144 0)
(-0.007104 0.131601 0)
(-0.00630312 0.133827 0)
(-0.00817231 0.136077 0)
(-0.0101238 0.139097 0)
(-0.0145063 0.144966 0)
(-0.0321172 0.16048 0)
(-0.0192248 0.155422 0)
)
;
    }
}


// ************************************************************************* //
