/*--------------------------------*- C++ -*----------------------------------*\
| =========                 |                                                 |
| \\      /  F ield         | OpenFOAM: The Open Source CFD Toolbox           |
|  \\    /   O peration     | Version:  2.4.0                                 |
|   \\  /    A nd           | Web:      www.OpenFOAM.org                      |
|    \\/     M anipulation  |                                                 |
\*---------------------------------------------------------------------------*/
FoamFile
{
    version     2.0;
    format      ascii;
    class       volScalarField;
    location    "0.25";
    object      alpha.oil;
}
// * * * * * * * * * * * * * * * * * * * * * * * * * * * * * * * * * * * * * //

dimensions      [0 0 0 0 0 0 0];

internalField   nonuniform List<scalar> 
575
(
1.34062e-33
7.06179e-32
2.15754e-30
5.49952e-29
9.46763e-28
2.59698e-26
1.7447e-25
6.13749e-24
3.80513e-18
4.5856e-14
3.25977e-11
5.23846e-10
2.36514e-09
6.3473e-09
1.39168e-08
4.24814e-08
1.54865e-07
4.65776e-07
1.1948e-06
2.54587e-06
1.32229e-05
0.000100448
1.1959e-31
5.9072e-30
1.67889e-28
3.9057e-27
6.27704e-26
1.4188e-24
9.63634e-24
2.11723e-22
7.88644e-17
5.95458e-13
3.5263e-10
4.09647e-09
1.22089e-08
2.63325e-08
6.25235e-08
2.17607e-07
7.1411e-07
1.74482e-06
3.02306e-06
4.28857e-06
1.43642e-05
0.000108337
5.20274e-30
2.4046e-28
6.34548e-27
1.34526e-25
2.02763e-24
3.81352e-23
2.5269e-22
3.64338e-21
7.2228e-16
3.31511e-12
1.59711e-09
1.54543e-08
3.66925e-08
1.11017e-07
5.68625e-07
2.64603e-06
8.66345e-06
4.13928e-05
5.07319e-05
4.26427e-05
3.18227e-05
0.000121602
1.47107e-28
6.34823e-27
1.55148e-25
2.99556e-24
4.24899e-23
6.71397e-22
4.1953e-21
4.2088e-20
3.7986e-15
1.06132e-11
3.81686e-09
5.96304e-08
4.897e-07
2.51497e-06
1.05339e-05
4.39304e-05
0.000215887
0.00119954
0.0011156
0.000707959
0.000261473
0.000168952
3.03892e-27
1.22201e-25
2.75718e-24
4.85239e-23
6.48938e-22
8.68364e-21
4.99111e-20
3.68029e-19
1.27125e-14
2.24494e-11
9.23759e-09
5.11945e-07
5.83959e-06
2.95528e-05
0.000105543
0.000488475
0.00251288
0.013013
0.0567684
0.0506942
0.0166624
0.00150764
4.88833e-26
1.82827e-24
3.79567e-23
6.09878e-22
7.70686e-21
8.76206e-20
4.56461e-19
2.59758e-18
2.91567e-14
4.32438e-11
2.38164e-08
1.51663e-06
2.21228e-05
0.000152169
0.000649936
0.00299742
0.0131384
0.0384118
0.102758
0.157794
0.0951152
0.0117791
6.37323e-25
2.2132e-23
4.21449e-22
6.19944e-21
7.41656e-20
7.14745e-19
3.36943e-18
1.52311e-17
5.21323e-14
1.12463e-10
3.45662e-08
2.16984e-06
3.70872e-05
0.000322347
0.0014634
0.00506514
0.0175737
0.0415727
0.0792325
0.176385
0.187375
0.0477184
6.92143e-24
2.22827e-22
3.88134e-21
5.24919e-20
5.942e-19
4.83137e-18
2.06735e-17
7.62758e-17
8.99078e-14
1.49938e-10
4.1066e-08
2.18104e-06
2.74224e-05
0.000174192
0.000828289
0.00514896
0.0124065
0.0273675
0.0733396
0.18204
0.273773
0.111734
6.38329e-23
1.90264e-21
3.02538e-20
3.78902e-19
4.02448e-18
2.76581e-17
1.06992e-16
3.35992e-16
1.17495e-13
1.51141e-10
2.21263e-08
8.28203e-07
1.02789e-05
7.8935e-05
0.000407204
0.00198752
0.0060101
0.0191179
0.0546006
0.162436
0.331436
0.252408
8.98722e-22
2.46541e-20
3.55426e-19
4.16224e-18
4.03308e-17
2.38247e-16
8.02079e-16
2.2001e-15
2.09094e-13
1.56302e-11
5.45976e-09
4.44038e-07
7.93543e-06
5.81634e-05
0.000243014
0.000898025
0.0036098
0.0135191
0.0486763
0.147571
0.386844
0.438477
1.02421e-20
2.58009e-19
3.3994e-18
3.77523e-17
3.27546e-16
1.66615e-15
4.83001e-15
1.16794e-14
1.24438e-13
6.45809e-12
1.46422e-08
1.4094e-06
1.40464e-05
6.84343e-05
0.000315278
0.00160216
0.00722155
0.0247612
0.0688936
0.172938
0.435482
0.605896
1.01679e-19
2.32071e-18
2.75461e-17
2.88362e-16
2.16911e-15
9.23124e-15
2.31487e-14
4.91789e-14
3.92183e-13
2.57508e-10
5.28899e-08
2.70374e-06
2.77692e-05
0.000164558
0.000975044
0.00581145
0.0248231
0.0760492
0.164263
0.299736
0.543345
0.762583
8.50445e-19
1.76754e-17
1.8823e-16
1.90359e-15
1.20803e-14
4.26565e-14
9.35047e-14
1.80264e-13
2.67178e-12
1.93421e-09
1.07597e-07
5.24749e-06
5.39187e-05
0.000461508
0.00430377
0.0253024
0.0918542
0.231054
0.417223
0.589233
0.752001
0.904323
6.1047e-18
1.16011e-16
1.10575e-15
1.10141e-14
5.70572e-14
1.63704e-13
3.15446e-13
5.6538e-13
1.96736e-11
1.77119e-08
2.24013e-07
2.37425e-05
0.000546817
0.00598181
0.0366833
0.134513
0.322536
0.574435
0.779068
0.88195
0.932687
0.980957
3.87037e-17
6.72823e-16
5.74159e-15
5.63855e-14
2.31667e-13
5.23334e-13
8.84162e-13
1.48597e-12
2.65655e-10
8.74009e-08
3.44295e-05
0.0022847
0.0204744
0.0856552
0.234859
0.477851
0.73531
0.9121
0.969484
0.98839
0.993567
0.998806
2.19815e-16
3.49806e-15
2.69529e-14
2.57522e-13
8.02622e-13
1.40539e-12
2.08136e-12
3.7662e-12
6.88858e-09
1.20113e-05
0.00224594
0.0535623
0.205148
0.425566
0.659702
0.861142
0.966229
0.994637
0.998876
0.999786
0.999901
0.999989
1.13386e-15
1.64706e-14
1.16172e-13
1.06642e-12
2.24917e-12
3.32088e-12
5.40167e-12
2.13908e-09
1.24436e-06
0.000533924
0.0367783
0.313268
0.63778
0.837318
0.940601
0.986863
0.998328
0.999888
0.999994
1
1
1
1
5.33535e-15
7.03477e-14
4.63959e-13
4.14631e-12
4.75659e-12
1.00949e-11
1.9353e-09
2.19504e-07
2.59177e-05
0.00542296
0.152652
0.631903
0.894786
0.96986
0.992933
0.999066
0.999906
0.99999
0.999995
0.999996
0.999998
0.999997
0.99998
2.29347e-14
2.71901e-13
1.64056e-12
1.75734e-11
7.27584e-11
9.5863e-10
9.42471e-08
2.23901e-06
0.00013645
0.0143973
0.210201
0.547196
0.791822
0.917431
0.95555
0.979039
0.988412
0.992839
0.993567
0.993238
0.992935
0.98849
0.974813
8.94473e-14
9.54494e-13
6.4621e-12
1.07761e-10
1.04942e-09
1.48793e-08
4.45962e-07
4.76615e-06
0.000242524
0.00268812
0.00402798
0.0206246
0.104981
0.279968
0.401285
0.547449
0.638501
0.694029
0.693248
0.656905
0.607319
0.504999
0.255315
3.11897e-13
3.07787e-12
1.48627e-11
2.16786e-10
5.133e-09
6.63144e-08
6.61703e-07
8.03887e-06
3.12804e-05
3.96978e-05
3.76362e-06
2.90125e-06
2.91642e-05
0.000364986
0.00188557
0.00903159
0.0195247
0.0268424
0.0235329
0.0112599
0.00181487
7.61631e-05
1.59824e-05
4.78421e-13
4.26546e-12
3.2023e-11
5.95808e-10
1.64609e-08
1.12883e-07
3.46806e-07
6.49961e-07
2.23875e-07
4.61153e-08
2.15796e-08
1.11193e-08
3.53254e-08
1.18481e-07
2.75563e-07
7.10545e-07
1.02045e-06
1.0322e-06
7.7417e-07
5.0919e-07
4.00575e-07
5.79518e-07
2.71726e-07
1.23558e-13
1.97876e-12
2.53398e-11
3.29053e-10
2.79455e-09
1.39371e-08
2.52406e-08
2.00563e-08
1.53673e-08
9.80005e-09
1.64079e-09
4.60312e-09
2.43597e-08
7.11247e-08
1.20602e-07
1.60056e-07
2.14707e-07
3.08788e-07
4.26297e-07
3.39792e-07
1.87933e-07
1.53456e-07
1.01144e-07
2.33816e-14
5.90405e-13
8.98901e-12
9.9206e-11
5.73267e-10
1.47356e-09
1.73314e-09
6.29465e-10
4.47446e-10
5.85161e-10
7.554e-10
2.87207e-09
2.14449e-08
9.79729e-08
2.81621e-07
4.59811e-07
5.38838e-07
5.1275e-07
4.60122e-07
2.34752e-07
9.45881e-08
7.22885e-08
5.55409e-08
1.55811e-15
4.93432e-14
1.04145e-12
1.05832e-11
6.07452e-11
1.38598e-10
1.11592e-10
7.1276e-11
8.2359e-11
2.26177e-10
6.11209e-10
1.30548e-09
1.21431e-08
1.00991e-07
4.95789e-07
7.81422e-07
8.0649e-07
7.96981e-07
2.94729e-07
1.27117e-07
8.53112e-08
5.20049e-08
3.34595e-08
2.17172e-16
1.29362e-14
3.45521e-13
4.10043e-12
1.4648e-11
2.72846e-11
2.40592e-11
2.58089e-11
6.65252e-11
2.05525e-10
4.38627e-10
1.23654e-09
1.09076e-08
1.18719e-07
5.38624e-07
8.0649e-07
)
;

boundaryField
{
    leftWall
    {
        type            zeroGradient;
    }
    rightWall
    {
        type            zeroGradient;
    }
    lowerWall
    {
        type            zeroGradient;
    }
    atmosphere
    {
        type            inletOutlet;
        inletValue      nonuniform 0();
        value           nonuniform 0();
    }
    defaultFaces
    {
        type            empty;
    }
    procBoundary0to1
    {
        type            processor;
        value           nonuniform List<scalar> 
26
(
0.000227556
0.000277494
0.000327118
0.000365192
0.000418612
0.000597289
0.00176063
0.00511468
0.0642064
0.238758
0.49806
0.739998
0.902217
0.981155
0.998926
0.999991
0.999991
1
0.999912
0.928951
0.0529289
0.000140278
5.34311e-07
1.40754e-07
5.671e-08
1.76471e-08
)
;
    }
    procBoundary0to2
    {
        type            processor;
        value           nonuniform List<scalar> 
24
(
8.07081e-07
4.74426e-07
9.62961e-08
8.84632e-08
8.83891e-08
4.93264e-08
3.06865e-08
1.08293e-16
5.57111e-15
1.1061e-13
9.76748e-13
3.83454e-12
6.7635e-12
7.76197e-12
1.30714e-11
4.97096e-11
1.84663e-10
4.61962e-10
1.384e-09
7.9969e-09
6.35136e-08
2.3789e-07
8.07081e-07
6.97887e-07
)
;
    }
}


// ************************************************************************* //
