/*--------------------------------*- C++ -*----------------------------------*\
| =========                 |                                                 |
| \\      /  F ield         | OpenFOAM: The Open Source CFD Toolbox           |
|  \\    /   O peration     | Version:  2.4.0                                 |
|   \\  /    A nd           | Web:      www.OpenFOAM.org                      |
|    \\/     M anipulation  |                                                 |
\*---------------------------------------------------------------------------*/
FoamFile
{
    version     2.0;
    format      ascii;
    class       volScalarField;
    location    "0.25";
    object      alpha.water;
}
// * * * * * * * * * * * * * * * * * * * * * * * * * * * * * * * * * * * * * //

dimensions      [0 0 0 0 0 0 0];

internalField   nonuniform List<scalar> 
575
(
3.48437e-12
2.38902e-12
2.24132e-12
2.64595e-12
3.16862e-12
4.29683e-12
4.77577e-12
1.47757e-11
2.48364e-11
9.71269e-11
4.04622e-10
7.60826e-10
8.40621e-10
6.95669e-10
4.1649e-10
1.7144e-10
1.16997e-10
1.18715e-10
1.09812e-10
9.38958e-11
7.58108e-11
5.77217e-11
4.57659e-11
3.04076e-11
2.72349e-11
3.01139e-11
3.41314e-11
4.24142e-11
5.05536e-11
1.57006e-10
2.87795e-10
9.47159e-10
3.37647e-09
5.24881e-09
5.29651e-09
4.35331e-09
2.67952e-09
2.61963e-09
7.37368e-09
7.07433e-08
9.68249e-08
8.32394e-08
4.33309e-08
7.88699e-09
2.64947e-10
1.6633e-10
1.40515e-10
1.44945e-10
1.55866e-10
1.85503e-10
2.56572e-10
9.0876e-10
1.84626e-09
5.22069e-09
1.52769e-08
1.79764e-08
1.50462e-08
1.35934e-08
4.92453e-08
5.17772e-07
5.20627e-06
4.89634e-05
5.16042e-05
3.80027e-05
1.2647e-05
2.68952e-06
9.30962e-10
5.20341e-10
4.02923e-10
3.8474e-10
3.91722e-10
5.19417e-10
9.95899e-10
4.508e-09
9.53798e-09
2.17181e-08
4.74416e-08
6.27141e-08
3.82954e-07
2.21242e-06
1.76277e-05
0.000178457
0.00109628
0.00716828
0.00562984
0.00249356
0.000469427
3.13698e-05
2.37021e-09
1.06148e-09
7.14979e-10
6.22856e-10
6.00956e-10
1.80814e-09
4.58868e-09
2.25572e-08
4.05358e-08
8.65958e-08
1.57958e-06
2.12071e-05
0.000205373
0.000941238
0.00381669
0.0178294
0.0665682
0.206429
0.312896
0.228975
0.0493376
0.00201778
4.67029e-09
1.51816e-09
8.48929e-10
6.6029e-10
8.54096e-10
1.26906e-08
2.58477e-08
5.16132e-07
4.49473e-06
4.95116e-05
0.000517296
0.00335539
0.0168457
0.0533315
0.136936
0.322291
0.602432
0.864018
0.857975
0.739256
0.294598
0.0199641
5.9911e-09
1.35742e-09
6.57313e-10
5.47192e-10
1.11192e-08
3.25802e-06
3.42043e-05
0.000401759
0.00172326
0.00686596
0.0273328
0.0923483
0.244988
0.474085
0.727903
0.929692
0.974425
0.95802
0.920664
0.821671
0.629386
0.0898061
5.11938e-10
5.08012e-10
5.08224e-10
5.04079e-10
0.000255924
0.00306575
0.00911509
0.028428
0.0649377
0.132561
0.267562
0.503025
0.764631
0.933888
0.991318
0.992874
0.98731
0.972589
0.926655
0.817932
0.694038
0.186051
0.106348
0.113805
0.129333
0.154046
0.186393
0.242465
0.307909
0.409657
0.531335
0.661271
0.798393
0.918346
0.976962
0.995679
0.998872
0.997786
0.993931
0.980861
0.945394
0.837556
0.664582
0.343565
0.681821
0.697745
0.726712
0.766493
0.80976
0.862097
0.910489
0.952749
0.979644
0.993079
0.998214
0.999674
0.99994
0.999909
0.999739
0.999093
0.996385
0.986478
0.951321
0.852423
0.611539
0.392675
0.991834
0.992945
0.99461
0.996429
0.997813
0.998882
0.999525
0.999825
0.999931
0.999971
0.999989
0.999993
0.999983
0.999929
0.999683
0.998396
0.992777
0.975238
0.931105
0.827055
0.563437
0.343165
0.999972
0.999975
0.999979
0.999984
0.999989
0.999992
0.999995
0.999997
0.999998
0.999999
0.999999
0.999997
0.999972
0.999835
0.999025
0.994188
0.975177
0.923951
0.835737
0.70026
0.45627
0.226365
1
1
1
1
1
1
1
1
1
1
1
0.999995
0.999946
0.999539
0.995696
0.974698
0.908146
0.768946
0.582777
0.410766
0.24794
0.0939401
1
1
1
1
1
1
1
1
1
1
1
0.999976
0.999453
0.994018
0.963317
0.865487
0.677464
0.425565
0.220932
0.11805
0.06731
0.0188905
1
1
1
1
1
1
1
1
1
1
0.999966
0.997715
0.979526
0.914345
0.765141
0.522149
0.26469
0.0878999
0.0305162
0.0116101
0.00643323
0.00118841
1
1
1
1
1
1
1
1
0.999999
0.999986
0.997751
0.946434
0.794851
0.574434
0.340299
0.138858
0.0337708
0.00536303
0.00112374
0.000213422
9.92539e-05
1.05935e-05
0.999997
0.999996
0.999994
0.99999
0.999981
0.999958
0.999898
0.999732
0.999361
0.998359
0.961819
0.685428
0.361855
0.162631
0.0593908
0.0131359
0.00167154
0.000112106
5.63691e-06
2.98884e-07
9.35127e-08
6.03658e-09
6.36597e-09
0.997582
0.997252
0.996552
0.995157
0.992501
0.987446
0.977923
0.960608
0.936461
0.916028
0.769566
0.301067
0.0852797
0.0254995
0.00588628
0.000745995
6.24273e-05
2.39872e-06
4.10264e-08
1.69939e-08
5.12395e-09
1.04815e-09
7.03576e-11
0.860097
0.850317
0.831211
0.798504
0.748593
0.676212
0.576644
0.453376
0.340907
0.286653
0.161066
0.0213522
0.00634918
0.00244925
0.00037519
4.43808e-05
2.79793e-06
3.98223e-07
5.58769e-08
5.78376e-09
7.46699e-10
8.80212e-11
6.77529e-12
0.182368
0.16833
0.14375
0.109956
0.0725024
0.0385978
0.0156533
0.00437818
0.00105694
0.000320287
5.68858e-05
5.71615e-05
0.000138102
0.000126343
2.45791e-05
3.19583e-06
2.72921e-07
3.30532e-08
3.50043e-09
2.31534e-10
6.55566e-12
2.29985e-12
9.81113e-13
0.000117018
8.69184e-05
4.74561e-05
1.85127e-05
5.58615e-06
1.66393e-06
4.99674e-07
1.80698e-07
1.81978e-07
3.46438e-07
2.61711e-08
6.73309e-08
2.5886e-07
7.74063e-07
4.63014e-07
5.42419e-08
3.43645e-09
3.14814e-10
2.27263e-11
1.48804e-12
5.38051e-13
2.05165e-13
1.75382e-13
2.82962e-07
1.67482e-07
1.18735e-07
1.27263e-07
1.62926e-07
1.37029e-07
1.87459e-08
1.68044e-09
5.37801e-10
7.40656e-10
5.91677e-10
5.02589e-10
1.44743e-09
5.95657e-09
2.20928e-09
3.36338e-11
1.19427e-13
4.9759e-14
4.32753e-14
3.64914e-14
4.7268e-14
9.58284e-14
4.69126e-14
5.55519e-08
1.17159e-08
5.70628e-09
6.45656e-09
1.44189e-08
1.53933e-08
1.27264e-08
7.56473e-10
1.17358e-10
1.44928e-10
2.26877e-10
3.34524e-10
5.88391e-10
5.06105e-10
1.65669e-11
4.37104e-13
4.51431e-14
3.16552e-14
2.16168e-14
7.42794e-15
1.40141e-15
4.29807e-15
1.68287e-14
1.4909e-08
3.74581e-09
1.30019e-09
8.88894e-10
9.17888e-10
1.13106e-09
1.09109e-09
4.70486e-10
1.17219e-10
1.56063e-10
2.86563e-10
4.2648e-10
6.02099e-10
4.9091e-10
1.13113e-11
2.28432e-14
1.84249e-14
8.45665e-15
1.73783e-15
2.94397e-16
2.88826e-16
9.24618e-16
2.59378e-15
8.08187e-10
4.80055e-10
2.55278e-10
1.32207e-10
9.90742e-11
8.54797e-11
7.86475e-11
1.21189e-10
7.39848e-11
9.70625e-11
1.40081e-10
1.60728e-10
1.8931e-10
9.62378e-11
5.502e-12
4.66037e-15
2.38346e-15
2.25865e-16
2.76615e-17
2.12156e-17
5.19585e-17
1.39413e-16
3.23119e-16
3.58527e-11
7.51791e-11
2.20011e-11
1.34585e-11
1.11102e-11
9.63848e-12
1.00764e-11
1.35858e-11
1.64904e-11
1.70405e-11
2.06076e-11
2.17859e-11
1.77257e-11
1.00727e-11
3.0368e-12
2.53444e-17
)
;

boundaryField
{
    leftWall
    {
        type            zeroGradient;
    }
    rightWall
    {
        type            zeroGradient;
    }
    lowerWall
    {
        type            zeroGradient;
    }
    atmosphere
    {
        type            inletOutlet;
        inletValue      nonuniform 0();
        value           nonuniform 0();
    }
    defaultFaces
    {
        type            empty;
    }
    procBoundary0to1
    {
        type            processor;
        value           nonuniform List<scalar> 
26
(
3.61542e-11
2.70531e-10
7.75991e-08
1.421e-06
1.25092e-05
0.000148297
0.00110957
0.00407566
0.0437004
0.11735
0.160385
0.135553
0.0657495
0.0135973
0.000713103
4.76291e-06
4.76291e-06
3.30242e-09
4.96078e-12
4.83647e-12
8.19449e-13
4.18592e-13
1.88567e-13
5.41929e-14
7.1785e-15
7.34949e-16
)
;
    }
    procBoundary0to2
    {
        type            processor;
        value           nonuniform List<scalar> 
24
(
1.12898e-18
7.52219e-19
1.82534e-18
4.04539e-18
9.00692e-18
1.97633e-17
3.86477e-17
1.73477e-12
3.74868e-12
1.98287e-12
1.37641e-12
7.7264e-13
5.16434e-13
1.03166e-12
2.33451e-12
3.79482e-12
3.86385e-12
3.89256e-12
4.29551e-12
3.0507e-12
1.91768e-12
3.73721e-13
1.12898e-18
3.10273e-20
)
;
    }
}


// ************************************************************************* //
