/*--------------------------------*- C++ -*----------------------------------*\
| =========                 |                                                 |
| \\      /  F ield         | OpenFOAM: The Open Source CFD Toolbox           |
|  \\    /   O peration     | Version:  2.4.0                                 |
|   \\  /    A nd           | Web:      www.OpenFOAM.org                      |
|    \\/     M anipulation  |                                                 |
\*---------------------------------------------------------------------------*/
FoamFile
{
    version     2.0;
    format      ascii;
    class       volScalarField;
    location    "0.25";
    object      alphas;
}
// * * * * * * * * * * * * * * * * * * * * * * * * * * * * * * * * * * * * * //

dimensions      [0 0 0 0 0 0 0];

internalField   nonuniform List<scalar> 
575
(
2
2
2
2
2
2
2
2
2
2
2
2
2
2
2
2
2
2
2
2
1.99999
1.9999
2
2
2
2
2
2
2
2
2
2
2
2
2
2
2
2
2
2
2
2
1.99999
1.99989
2
2
2
2
2
2
2
2
2
2
2
2
2
2
2
2
1.99998
1.99986
1.99985
1.99988
1.99994
1.99987
2
2
2
2
2
2
2
2
2
2
2
2
2
1.99999
1.99995
1.9996
1.99759
1.98446
1.98762
1.9943
1.9988
1.99977
2
2
2
2
2
2
2
2
2
2
2
1.99996
1.99958
1.99809
1.99226
1.96385
1.86435
1.57413
1.31744
1.49136
1.88466
1.99446
2
2
2
2
2
2
2
2
1.99999
1.9999
1.99897
1.99329
1.96629
1.89318
1.72548
1.35242
0.781997
0.233551
0.181292
0.363693
1.31569
1.94829
2
2
2
2
2
1.99999
1.99993
1.9992
1.99655
1.98627
1.94533
1.8153
1.50999
1.05151
0.542731
0.135551
0.0335753
0.0423867
0.0794393
0.180272
0.553853
1.77267
2
2
2
2
1.99949
1.99387
1.98177
1.94314
1.87012
1.73488
1.46488
0.993947
0.47071
0.13205
0.0165361
0.00910341
0.0129735
0.0274551
0.0733496
0.182096
0.33815
1.51616
1.7873
1.77239
1.74133
1.69191
1.62721
1.51507
1.38418
1.18069
0.937331
0.677459
0.403213
0.163306
0.0460646
0.00856192
0.00184926
0.00244051
0.00612676
0.0191607
0.0546107
0.162452
0.3394
1.06046
0.636357
0.60451
0.546576
0.467014
0.380479
0.275805
0.179021
0.0945017
0.0407113
0.0138421
0.00357207
0.000651362
0.000111966
0.000122877
0.00027885
0.000916163
0.00361927
0.0135255
0.0486814
0.147582
0.390078
0.776171
0.0163308
0.014109
0.0107802
0.00714269
0.00437304
0.00223484
0.00094981
0.000349238
0.000137236
5.80072e-05
2.20056e-05
1.21593e-05
2.07358e-05
7.31703e-05
0.000318861
0.00160489
0.00722334
0.0247625
0.0688953
0.172951
0.437644
0.707772
5.54531e-05
5.01807e-05
4.16154e-05
3.11805e-05
2.24518e-05
1.51345e-05
9.583e-06
5.76215e-06
3.74143e-06
2.51312e-06
1.41707e-06
3.69676e-06
2.84442e-05
0.000165001
0.000975347
0.00581168
0.0248232
0.0760493
0.164263
0.299744
0.544115
0.784687
1.52894e-07
1.42107e-07
1.17985e-07
1.24738e-07
1.29377e-07
1.28617e-07
1.2257e-07
1.14628e-07
1.10537e-07
1.06512e-07
2.01507e-07
5.31773e-06
5.3962e-05
0.000461531
0.00430378
0.0253024
0.0918542
0.231054
0.417223
0.589234
0.75212
0.907796
5.21759e-08
5.49123e-08
5.65505e-08
5.86576e-08
6.08439e-08
6.21023e-08
6.69941e-08
8.23919e-08
1.10629e-07
1.51723e-07
2.87734e-07
2.3767e-05
0.000546826
0.00598181
0.0366833
0.134513
0.322536
0.574435
0.779068
0.88195
0.932693
0.981262
9.97742e-08
1.07049e-07
1.10471e-07
1.15469e-07
1.2617e-07
1.41846e-07
1.96727e-07
2.6155e-07
3.41434e-07
2.71347e-07
3.45433e-05
0.00228475
0.0204745
0.0856552
0.234859
0.477851
0.73531
0.9121
0.969484
0.98839
0.993567
0.998817
3.14929e-07
3.45003e-07
3.55068e-07
3.67396e-07
3.88201e-07
4.16081e-07
4.65187e-07
7.91308e-07
2.12134e-06
1.75211e-05
0.00225692
0.0535737
0.205152
0.425566
0.659702
0.861142
0.966229
0.994637
0.998876
0.999786
0.999901
0.999989
1.03976e-05
1.25639e-05
1.75656e-05
2.91572e-05
5.64603e-05
0.000125251
0.000306367
0.000806013
0.00191511
0.00385679
0.0409874
0.317179
0.638875
0.83747
0.940626
0.986866
0.998328
0.999888
0.999994
1
1
1
1
0.00725413
0.00824517
0.0103435
0.0145303
0.022497
0.0376638
0.0662312
0.118177
0.190565
0.241072
0.385999
0.832993
0.95459
0.983783
0.996476
0.999631
1
1.00001
1.00001
1.00001
1
1.00001
1.00004
0.419708
0.44905
0.506366
0.604489
0.754221
0.971363
1.27007
1.63987
1.97701
2.11125
2.0964
1.84155
1.39731
1.15779
1.08777
1.04179
1.02317
1.01432
1.01287
1.01352
1.01413
1.02302
1.05038
2.4529
2.49501
2.56875
2.67013
2.78249
2.88421
2.95304
2.98686
2.99634
2.99366
2.99177
2.95858
2.78962
2.43968
2.19736
1.90509
1.723
1.61194
1.61351
1.68619
1.78536
1.99
2.48937
2.99965
2.99974
2.99986
2.99994
2.99998
2.99999
3
2.99998
2.99994
2.99992
2.99999
2.99999
2.99994
2.99927
2.99623
2.98194
2.96095
2.94632
2.95294
2.97748
2.99637
2.99985
2.99997
3
3
3
3
3
3
3
3
3
3
3
3
3
3
3
3
3
3
3
3
3
3
3
3
3
3
3
3
3
3
3
3
3
3
3
3
3
3
3
3
3
3
3
3
3
3
2.99999
2.99999
2.99999
2.99999
3
3
3
3
3
3
3
3
3
3
3
3
3
3
3
3
3
3
3
2.99999
2.99999
2.99999
3
3
3
3
3
3
3
3
3
3
3
3
3
3
3
3
3
3
3
3
3
3
3
3
3
3
3
3
3
3
3
3
3
3
3
3
)
;

boundaryField
{
    leftWall
    {
        type            zeroGradient;
    }
    rightWall
    {
        type            zeroGradient;
    }
    lowerWall
    {
        type            zeroGradient;
    }
    atmosphere
    {
        type            zeroGradient;
    }
    defaultFaces
    {
        type            empty;
    }
    procBoundary0to1
    {
        type            processor;
        value           nonuniform List<scalar> 
26
(
1.99977
1.99972
1.99967
1.99963
1.99956
1.9991
1.99602
1.98673
1.84839
1.52654
1.18117
0.988895
0.966284
0.99165
0.999648
0.999999
0.999999
1
1.00018
1.1421
2.89415
2.99972
3
3
3
3
)
;
    }
    procBoundary0to2
    {
        type            processor;
        value           nonuniform List<scalar> 
24
(
3
3
3
3
3
3
3
3
3
3
3
3
3
3
3
3
3
3
3
3
3
3
3
3
)
;
    }
}


// ************************************************************************* //
