/*--------------------------------*- C++ -*----------------------------------*\
| =========                 |                                                 |
| \\      /  F ield         | OpenFOAM: The Open Source CFD Toolbox           |
|  \\    /   O peration     | Version:  2.4.0                                 |
|   \\  /    A nd           | Web:      www.OpenFOAM.org                      |
|    \\/     M anipulation  |                                                 |
\*---------------------------------------------------------------------------*/
FoamFile
{
    version     2.0;
    format      ascii;
    class       volScalarField;
    location    "0.25";
    object      p;
}
// * * * * * * * * * * * * * * * * * * * * * * * * * * * * * * * * * * * * * //

dimensions      [1 -1 -2 0 0 0 0];

internalField   nonuniform List<scalar> 
575
(
9475.37
9449.59
9398.99
9320.56
9217.43
9088.18
8913.88
8754.87
8509.28
8246.72
8000.96
7702.74
7364.66
7053.23
6776.27
6583.03
6501.11
6635.31
7215.09
8265.39
9820.32
11553.6
8675.66
8649.83
8599.13
8520.57
8417.53
8287.13
8115.19
7948.67
7706.55
7444.5
7191.95
6888.31
6548.28
6229.89
5951.42
5742.72
5649.19
5786.28
6281.2
7288.54
8779.29
10729.6
7872.57
7846.64
7795.72
7716.93
7614
7481.91
7312.53
7136.24
6897.63
6636.5
6370.54
6055.29
5710.62
5386.85
5097.14
4862.31
4735.77
4828.82
5213.46
6164.92
7593.56
9522.51
7066.13
7040.03
6988.78
6909.76
6806.7
6673.06
6505.27
6319.21
6082.9
5821.75
5537.87
5206.33
4855.86
4523.05
4220.14
3937.84
3754.69
3711.04
3989.76
4766.68
6165.46
8199.24
6256.47
6230.13
6178.43
6099.17
5996
5860.48
5693.89
5499.26
5262.3
4999.28
4693.78
4345.83
3986.94
3629.08
3305.96
2963.76
2653.53
2374.08
2417.42
2830.16
4362.99
6664.87
5444.48
5417.84
5365.69
5286.46
5183.43
5046.49
4880.09
4680.08
4438.2
4166.1
3837.24
3467.52
3079.39
2680.59
2323.99
2044.46
1908.62
1876.13
1986.08
2115.84
2758.94
4934.1
4630.69
4603.73
4551.29
4472.84
4371.47
4233.09
4068.03
3861.59
3610.28
3318.39
2974
2558.44
2133.47
1842.18
1723.51
1701.88
1796.23
1918.41
2030.35
2111.69
2152.33
3405.36
3799.23
3770.74
3715.81
3635.36
3538.44
3389.57
3229.07
3022.54
2781.8
2491.15
2180.72
1875.36
1621.83
1545.6
1628.45
1707.64
1731.82
1764.49
1850.55
1999.05
1978.27
2646.34
2429.32
2392.25
2322.44
2223.34
2105.43
1987.13
1868.61
1743.45
1593.86
1500.78
1457.87
1439.37
1479.3
1522.04
1536.05
1542.78
1577.13
1655.88
1720.28
1808.11
1759.6
1746.41
1339.65
1332.49
1318.99
1302.89
1284.82
1266.97
1247.23
1242.36
1261.96
1289.23
1312.25
1327.95
1333.18
1329.92
1330.72
1340.41
1356.85
1380.79
1398
1428.7
1370.78
1225.25
1159.6
1161.73
1165.47
1170.34
1174.84
1179.91
1186.22
1192.89
1190.11
1181.3
1169.66
1161.81
1154.52
1146.91
1137.72
1125.04
1108.72
1095.18
1077.68
1050
993.872
876.59
1052.14
1050.5
1047.64
1043.59
1039.38
1035.55
1031.68
1027
1023.55
1019.93
1012.92
1003.8
989.43
968.105
938.381
900.366
853.061
804.501
751.074
703.772
675.25
610.404
908.517
907.985
906.851
904.93
902.254
899.027
894.53
887.994
882.963
874.411
860.613
843.784
817.306
779.42
731.765
674.461
612.744
553.409
499.801
478.278
469.75
475.848
779.088
777.824
775.129
770.942
765.297
758.326
750.092
740.731
731.985
719.226
702.598
680.33
641.983
590.853
532.316
468.419
411.331
375.456
367.991
375.22
392.947
429.463
640.057
638.39
634.886
629.314
621.493
611.869
601.411
590.549
580.538
566.329
548.05
517.874
467.943
412.666
355.766
308.205
290.813
285.347
304.849
328.424
360.826
386.347
503.511
501.788
497.95
491.356
481.483
468.437
454.341
442.07
433.117
421.127
403.621
360.009
305.782
265.067
240.743
224.144
225.827
246.057
267.18
290.082
317.046
330.76
367.275
365.816
362.155
354.898
342.156
322.923
300.315
283.94
277.562
275.666
267.216
230.284
194.902
168.785
161.967
168.245
183.72
200.58
221.095
238.198
256.297
260.457
248.578
219.294
218.39
215.716
209.118
194.085
164.499
122.693
92.2603
78.9381
85.3076
92.1121
89.641
90.2936
98.4767
110.342
121.052
133.102
147.12
161.243
171.57
184.573
185.816
181.074
55.2596
56.3118
58.3883
61.4285
63.215
51.569
30.6727
16.5061
9.45119
8.05375
8.28477
16.6159
26.0168
28.9228
37.4939
50.5522
65.3026
78.2273
84.3117
85.3491
82.7273
69.6223
46.8839
5.04337
4.70076
4.08642
3.27532
2.47617
2.13951
2.2607
2.31643
2.5716
2.60929
2.46452
2.67558
3.5753
5.16661
6.71989
10.2653
13.9442
16.2144
15.4271
11.9219
6.70188
5.79051
3.9272
3.4342
3.5084
3.65738
3.8818
4.14509
4.431
4.66146
4.6937
4.67036
4.64129
4.44273
3.96134
3.57123
3.04468
2.63948
2.32301
2.09776
2.01171
2.12987
2.22154
2.36955
2.52299
2.54954
4.15786
4.11662
4.04234
3.95063
3.86213
3.73464
3.58222
3.49548
3.45493
3.46918
3.4754
3.51119
3.42789
3.59934
3.80749
4.00497
4.0912
4.06624
3.97636
3.8508
3.71174
3.49569
3.26647
3.37109
3.39247
3.43048
3.47996
3.52809
3.55145
3.55545
3.60548
3.64662
3.64269
3.57447
3.43665
3.30897
3.19499
3.08211
2.99354
2.9109
2.82406
2.76695
2.76895
2.78155
2.79482
2.76564
3.61724
3.60483
3.58548
3.5605
3.53089
3.49706
3.46674
3.45723
3.44981
3.43619
3.39947
3.33183
3.26328
3.2264
3.19989
3.1691
3.13266
3.1031
3.08595
3.07159
3.08559
3.05821
2.99522
3.31876
3.31956
3.31948
3.31836
3.31543
3.31021
3.30449
3.30169
3.29611
3.28269
3.25151
3.20495
3.14964
3.10717
3.07405
3.04339
3.00604
2.96095
2.91343
2.85549
2.8189
2.81177
2.80503
3.19072
3.19071
3.18984
3.18774
3.18391
3.17849
3.17177
3.16415
3.15355
3.13788
3.11194
3.07685
3.03828
3.00257
2.96874
2.93319
)
;

boundaryField
{
    leftWall
    {
        type            fixedFluxPressure;
        gradient        uniform 0;
        value           nonuniform List<scalar> 
26
(
9475.37
8675.66
7872.57
7066.13
6256.47
5444.48
4630.69
3799.23
2429.32
1339.65
1159.6
1052.14
908.517
779.088
640.057
503.511
367.275
219.294
55.2596
5.04337
3.4342
4.15786
3.37109
3.61724
3.31876
3.19072
)
;
    }
    rightWall
    {
        type            fixedFluxPressure;
        gradient        nonuniform 0();
        value           nonuniform 0();
    }
    lowerWall
    {
        type            fixedFluxPressure;
        gradient        nonuniform List<scalar> 
22
(
132719
132719
132719
132719
132719
132719
132719
132719
132719
132719
132719
132719
132719
132719
132719
132719
132719
132719
132719
132719
132717
132646
)
;
        value           nonuniform List<scalar> 
22
(
9873.52
9847.74
9797.14
9718.71
9615.58
9486.33
9312.03
9153.02
8907.43
8644.87
8399.11
8100.89
7762.81
7451.38
7174.42
6981.18
6899.26
7033.46
7613.24
8663.54
10218.5
11951.5
)
;
    }
    atmosphere
    {
        type            totalPressure;
        U               U.air;
        phi             phi.air;
        rho             rho;
        psi             none;
        gamma           1;
        p0              nonuniform 0();
        value           nonuniform 0();
    }
    defaultFaces
    {
        type            empty;
    }
    procBoundary0to1
    {
        type            processor;
        value           nonuniform List<scalar> 
26
(
12817.8
11925.4
10929.8
9738.08
8349.89
6720.25
4924.66
3032.67
406.493
905.046
741.818
530.405
429.103
400.737
382.092
327.505
327.505
226.726
162.498
20.2993
2.87909
2.65348
3.20147
2.91346
2.95635
2.81381
)
;
    }
    procBoundary0to2
    {
        type            processor;
        value           nonuniform List<scalar> 
24
(
2.89494
2.8604
2.83463
2.81506
2.80001
2.7742
2.74935
3.05857
3.05785
3.05612
3.053
3.04827
3.04204
3.03444
3.02533
3.01406
2.99911
2.97893
2.95288
2.92584
2.89804
2.86923
2.89494
2.83998
)
;
    }
}


// ************************************************************************* //
