/*--------------------------------*- C++ -*----------------------------------*\
| =========                 |                                                 |
| \\      /  F ield         | OpenFOAM: The Open Source CFD Toolbox           |
|  \\    /   O peration     | Version:  2.4.0                                 |
|   \\  /    A nd           | Web:      www.OpenFOAM.org                      |
|    \\/     M anipulation  |                                                 |
\*---------------------------------------------------------------------------*/
FoamFile
{
    version     2.0;
    format      ascii;
    class       surfaceScalarField;
    location    "0.25";
    object      phi;
}
// * * * * * * * * * * * * * * * * * * * * * * * * * * * * * * * * * * * * * //

dimensions      [0 3 -1 0 0 0 0];

internalField   nonuniform List<scalar> 
1101
(
3.40038e-06
-3.40038e-06
6.81903e-06
-3.41865e-06
1.0259e-05
-3.43996e-06
1.37894e-05
-3.53039e-06
1.72537e-05
-3.4643e-06
2.12306e-05
-3.97695e-06
2.4294e-05
-3.06332e-06
2.91268e-05
-4.83289e-06
3.30442e-05
-3.91733e-06
3.63173e-05
-3.27309e-06
4.07883e-05
-4.47099e-06
4.66447e-05
-5.85648e-06
5.2238e-05
-5.59329e-06
5.69993e-05
-4.76129e-06
6.01684e-05
-3.16913e-06
6.2501e-05
-2.33251e-06
6.38781e-05
-1.37717e-06
6.4215e-05
-3.36911e-07
6.09681e-05
3.24699e-06
5.27817e-05
8.18634e-06
3.96158e-05
1.31659e-05
2.01048e-05
3.39919e-06
-6.79957e-06
6.81643e-06
-6.83589e-06
1.02538e-05
-6.87736e-06
1.37863e-05
-7.06288e-06
1.72549e-05
-6.93287e-06
2.11315e-05
-7.85354e-06
2.44199e-05
-6.3517e-06
2.91079e-05
-9.52091e-06
3.29411e-05
-7.75052e-06
3.63079e-05
-6.63989e-06
4.10349e-05
-9.19799e-06
4.69028e-05
-1.17244e-05
5.24528e-05
-1.11433e-05
5.6669e-05
-8.9774e-06
5.96857e-05
-6.18591e-06
6.22802e-05
-4.92697e-06
6.48549e-05
-3.95191e-06
6.6605e-05
-2.08696e-06
6.406e-05
5.79195e-06
5.73069e-05
1.49394e-05
4.16002e-05
2.88727e-05
4.0281e-05
3.39266e-06
-1.01922e-05
6.80132e-06
-1.02446e-05
1.02332e-05
-1.03092e-05
1.37537e-05
-1.05834e-05
1.72231e-05
-1.04022e-05
2.10003e-05
-1.16307e-05
2.45331e-05
-9.88456e-06
2.88989e-05
-1.38867e-05
3.27145e-05
-1.15661e-05
3.64818e-05
-1.04072e-05
4.13935e-05
-1.41096e-05
4.69147e-05
-1.72456e-05
5.18636e-05
-1.60923e-05
5.61984e-05
-1.33122e-05
5.96025e-05
-9.58998e-06
6.35237e-05
-8.84821e-06
6.73714e-05
-7.79962e-06
6.94285e-05
-4.14409e-06
6.80887e-05
7.13179e-06
6.20671e-05
2.0961e-05
4.43088e-05
4.6631e-05
6.10964e-05
3.38325e-06
-1.35755e-05
6.77891e-06
-1.36402e-05
1.02053e-05
-1.37356e-05
1.36985e-05
-1.40766e-05
1.71691e-05
-1.38729e-05
2.08756e-05
-1.53371e-05
2.45627e-05
-1.35717e-05
2.85829e-05
-1.7907e-05
3.24513e-05
-1.54345e-05
3.67868e-05
-1.47427e-05
4.17209e-05
-1.90438e-05
4.63396e-05
-2.18643e-05
5.08999e-05
-2.06526e-05
5.55745e-05
-1.79868e-05
6.05228e-05
-1.45382e-05
6.5502e-05
-1.38274e-05
7.13347e-05
-1.36323e-05
7.45375e-05
-7.3469e-06
7.28105e-05
8.85881e-06
6.62404e-05
2.75311e-05
5.08025e-05
6.20689e-05
8.6571e-05
3.37013e-06
-1.69456e-05
6.74896e-06
-1.7019e-05
1.01637e-05
-1.71503e-05
1.36287e-05
-1.75416e-05
1.7077e-05
-1.73212e-05
2.07502e-05
-1.90104e-05
2.45082e-05
-1.73296e-05
2.82083e-05
-2.16071e-05
3.21616e-05
-1.93877e-05
3.7102e-05
-1.96831e-05
4.17476e-05
-2.36894e-05
4.54019e-05
-2.55185e-05
5.03105e-05
-2.55612e-05
5.56467e-05
-2.3323e-05
6.20426e-05
-2.09341e-05
6.82373e-05
-2.00222e-05
7.14013e-05
-1.67963e-05
7.24529e-05
-8.39852e-06
7.07717e-05
1.054e-05
5.88853e-05
3.94174e-05
4.78874e-05
7.30668e-05
0.000106793
3.35303e-06
-2.02986e-05
6.71148e-06
-2.03775e-05
1.01078e-05
-2.05467e-05
1.35361e-05
-2.09699e-05
1.69505e-05
-2.07356e-05
2.06216e-05
-2.26815e-05
2.4303e-05
-2.1011e-05
2.80271e-05
-2.53312e-05
3.20478e-05
-2.34083e-05
3.71484e-05
-2.47838e-05
4.15221e-05
-2.80632e-05
4.53628e-05
-2.93592e-05
5.08277e-05
-3.1026e-05
5.64432e-05
-2.89385e-05
6.10899e-05
-2.55808e-05
6.20726e-05
-2.10049e-05
6.0627e-05
-1.53507e-05
5.67314e-05
-4.50291e-06
5.45045e-05
1.27669e-05
4.59346e-05
4.79873e-05
3.83834e-05
8.0618e-05
0.000121483
3.33852e-06
-2.36372e-05
6.682e-06
-2.3721e-05
1.00585e-05
-2.39232e-05
1.34461e-05
-2.43574e-05
1.68558e-05
-2.41454e-05
2.04819e-05
-2.63076e-05
2.41547e-05
-2.46837e-05
2.77217e-05
-2.88983e-05
3.22561e-05
-2.79427e-05
3.69831e-05
-2.95108e-05
4.11889e-05
-3.2269e-05
4.60489e-05
-3.42193e-05
5.0709e-05
-3.56861e-05
5.24959e-05
-3.07254e-05
4.96535e-05
-2.27385e-05
4.3771e-05
-1.51224e-05
4.32405e-05
-1.48202e-05
4.75094e-05
-8.77182e-06
5.15439e-05
8.73249e-06
4.87516e-05
5.07796e-05
2.8895e-05
0.000100475
0.000126754
3.34718e-06
-2.69843e-05
6.70306e-06
-2.70768e-05
1.00802e-05
-2.73003e-05
1.34184e-05
-2.76957e-05
1.69364e-05
-2.76634e-05
2.03929e-05
-2.97641e-05
2.42435e-05
-2.85343e-05
2.73628e-05
-3.20175e-05
3.23523e-05
-3.29322e-05
3.6326e-05
-3.34845e-05
3.96608e-05
-3.56037e-05
4.50477e-05
-3.96062e-05
4.60704e-05
-3.67087e-05
4.01202e-05
-2.47752e-05
3.79213e-05
-2.05396e-05
4.43809e-05
-2.15819e-05
5.24287e-05
-2.2868e-05
5.7504e-05
-1.38471e-05
5.42152e-05
1.20212e-05
4.85379e-05
5.64569e-05
2.67744e-05
0.000122238
0.00013254
7.31092e-06
-3.42953e-05
1.46535e-05
-3.44194e-05
2.20037e-05
-3.46506e-05
2.9184e-05
-3.48759e-05
3.6769e-05
-3.52484e-05
4.34187e-05
-3.64137e-05
5.1234e-05
-3.63497e-05
5.83876e-05
-3.91711e-05
6.42593e-05
-3.88039e-05
6.88037e-05
-3.8029e-05
7.27532e-05
-3.95532e-05
7.21968e-05
-3.90498e-05
7.26076e-05
-3.71196e-05
8.27523e-05
-3.49199e-05
9.99894e-05
-3.77768e-05
0.000115389
-3.69816e-05
0.000123603
-3.10817e-05
0.000126975
-1.72191e-05
0.000133468
5.52847e-06
0.000131646
5.82783e-05
9.00278e-05
0.000163857
0.000151069
6.45874e-06
-4.0754e-05
1.2911e-05
-4.08716e-05
1.8812e-05
-4.05516e-05
2.45341e-05
-4.05981e-05
3.0196e-05
-4.09102e-05
3.52777e-05
-4.14955e-05
4.07539e-05
-4.18258e-05
4.53824e-05
-4.37996e-05
4.87535e-05
-4.21751e-05
5.57432e-05
-4.50187e-05
6.61478e-05
-4.99577e-05
7.78307e-05
-5.07327e-05
9.19397e-05
-5.12286e-05
0.000108187
-5.11675e-05
0.00012238
-5.1969e-05
0.00013513
-4.97318e-05
0.00014452
-4.04719e-05
0.000152513
-2.52125e-05
0.000154325
3.71704e-06
0.000158771
5.38318e-05
0.000146326
0.000176301
0.000194304
4.20781e-06
-4.49618e-05
8.75453e-06
-4.54184e-05
1.35482e-05
-4.53452e-05
1.93171e-05
-4.63669e-05
2.53922e-05
-4.69853e-05
3.24526e-05
-4.85559e-05
4.02102e-05
-4.95834e-05
5.03028e-05
-5.38922e-05
6.15826e-05
-5.34549e-05
7.4362e-05
-5.7798e-05
8.5094e-05
-6.06898e-05
9.44507e-05
-6.00895e-05
0.000104435
-6.1213e-05
0.000117606
-6.43384e-05
0.000130978
-6.53405e-05
0.000142863
-6.16173e-05
0.00015283
-5.04392e-05
0.000160493
-3.28756e-05
0.000163315
8.9524e-07
0.000164824
5.23234e-05
0.000178521
0.000162604
0.000222316
6.82567e-06
-5.17875e-05
1.37175e-05
-5.23102e-05
2.09682e-05
-5.25959e-05
2.82692e-05
-5.36679e-05
3.58617e-05
-5.45778e-05
4.35214e-05
-5.62156e-05
5.15594e-05
-5.76214e-05
5.9081e-05
-6.14139e-05
6.65838e-05
-6.09578e-05
7.55467e-05
-6.67609e-05
8.35352e-05
-6.86783e-05
9.26877e-05
-6.92419e-05
0.000104476
-7.30011e-05
0.000117833
-7.76956e-05
0.00013071
-7.82176e-05
0.000142431
-7.33378e-05
0.000152149
-6.01579e-05
0.000157421
-3.81477e-05
0.000153877
4.43958e-06
0.000153699
5.25011e-05
0.000173668
0.000142636
0.000212091
6.89592e-06
-5.86834e-05
1.37024e-05
-5.91167e-05
2.06959e-05
-5.95894e-05
2.73821e-05
-6.03542e-05
3.42991e-05
-6.14947e-05
4.09111e-05
-6.28276e-05
4.75527e-05
-6.42631e-05
5.36535e-05
-6.75147e-05
6.04802e-05
-6.77845e-05
6.87141e-05
-7.49948e-05
7.63514e-05
-7.63155e-05
8.78488e-05
-8.07393e-05
0.000102625
-8.7777e-05
0.000117271
-9.23415e-05
0.000129682
-9.06293e-05
0.000137503
-8.11583e-05
0.000138994
-6.16495e-05
0.000132316
-3.1469e-05
0.000120673
1.60816e-05
0.00011667
5.65051e-05
0.000137227
0.000122078
0.000166445
6.19424e-06
-6.48776e-05
1.2391e-05
-6.53135e-05
1.86681e-05
-6.58665e-05
2.48757e-05
-6.65617e-05
3.10038e-05
-6.76228e-05
3.71368e-05
-6.89607e-05
4.36311e-05
-7.07574e-05
4.984e-05
-7.37236e-05
5.79525e-05
-7.58969e-05
6.59774e-05
-8.30197e-05
7.43909e-05
-8.4729e-05
8.84405e-05
-9.4789e-05
0.000103235
-0.000102571
0.000113657
-0.000102764
0.000118842
-9.58137e-05
0.000117497
-7.98135e-05
0.000104892
-4.9045e-05
8.57627e-05
-1.23394e-05
7.34295e-05
2.84148e-05
7.51234e-05
5.48111e-05
9.44479e-05
0.000102754
0.000116429
6.10238e-06
-7.098e-05
1.22685e-05
-7.14797e-05
1.83624e-05
-7.19604e-05
2.45077e-05
-7.2707e-05
3.0607e-05
-7.37221e-05
3.67265e-05
-7.50802e-05
4.29735e-05
-7.70044e-05
4.86411e-05
-7.93912e-05
5.50963e-05
-8.2352e-05
6.10332e-05
-8.89567e-05
6.91329e-05
-9.28286e-05
8.1588e-05
-0.000107244
8.98851e-05
-0.000110868
9.15823e-05
-0.000104461
8.57558e-05
-8.99872e-05
6.83944e-05
-6.24521e-05
4.74911e-05
-2.81417e-05
3.49598e-05
1.9186e-07
3.67786e-05
2.65961e-05
4.81662e-05
4.34235e-05
7.47962e-05
7.61237e-05
7.92997e-05
5.66532e-06
-7.66453e-05
1.13736e-05
-7.71879e-05
1.71088e-05
-7.76956e-05
2.28253e-05
-7.84234e-05
2.85151e-05
-7.94119e-05
3.4e-05
-8.05651e-05
3.88242e-05
-8.18286e-05
4.29836e-05
-8.35507e-05
4.73076e-05
-8.6676e-05
5.08616e-05
-9.25107e-05
5.86781e-05
-0.000100645
6.5951e-05
-0.000114517
6.37562e-05
-0.000108674
5.37675e-05
-9.44722e-05
3.31303e-05
-6.935e-05
1.47236e-05
-4.40455e-05
7.24768e-06
-2.06657e-05
1.2662e-05
-5.22246e-06
2.59596e-05
1.32985e-05
4.36563e-05
2.57268e-05
7.40202e-05
4.57598e-05
4.61721e-05
5.65181e-06
-8.22971e-05
1.12399e-05
-8.2776e-05
1.68344e-05
-8.329e-05
2.24304e-05
-8.40195e-05
2.80374e-05
-8.50189e-05
3.35159e-05
-8.60436e-05
3.82464e-05
-8.6559e-05
4.14075e-05
-8.67118e-05
4.23932e-05
-8.76616e-05
4.10638e-05
-9.11812e-05
3.98859e-05
-9.94672e-05
3.02349e-05
-0.000104866
1.70687e-05
-9.55075e-05
2.94555e-07
-7.7698e-05
-1.00839e-05
-5.89715e-05
-9.97794e-06
-4.41514e-05
-9.53963e-07
-2.96897e-05
1.3352e-05
-1.95284e-05
3.15481e-05
-4.89762e-06
5.27395e-05
4.53542e-06
8.08285e-05
1.76707e-05
0.000108113
1.88872e-05
2.56502e-05
5.41938e-06
-8.77165e-05
1.08447e-05
-8.82014e-05
1.61861e-05
-8.86315e-05
2.16344e-05
-8.94678e-05
2.72974e-05
-9.06819e-05
3.34085e-05
-9.21547e-05
3.86019e-05
-9.17525e-05
4.04051e-05
-8.8515e-05
3.56735e-05
-8.293e-05
2.07475e-05
-7.62552e-05
-9.35987e-06
-6.93598e-05
-2.42739e-05
-8.99521e-05
-2.69168e-05
-9.28646e-05
-2.78491e-05
-7.67656e-05
-2.20669e-05
-6.47537e-05
-1.05192e-05
-5.56991e-05
6.24361e-06
-4.64525e-05
2.31856e-05
-3.64704e-05
4.33582e-05
-2.50702e-05
6.32068e-05
-1.53132e-05
8.47208e-05
-3.8433e-06
0.000104012
-4.0418e-07
-3.37937e-06
5.2512e-06
-9.29677e-05
1.02803e-05
-9.32304e-05
1.49246e-05
-9.32758e-05
1.9201e-05
-9.37442e-05
2.51484e-05
-9.66293e-05
3.3356e-05
-0.000100362
3.91531e-05
-9.75496e-05
4.08869e-05
-9.02489e-05
2.85797e-05
-7.06228e-05
-1.90558e-05
-2.86198e-05
-7.85556e-05
-9.86007e-06
-6.2506e-05
-0.000106002
-4.37747e-05
-0.000111596
-3.37347e-05
-8.68056e-05
-1.81901e-05
-8.02984e-05
-7.8954e-07
-7.30997e-05
1.67024e-05
-6.39444e-05
3.34136e-05
-5.31817e-05
5.44916e-05
-4.61482e-05
7.51473e-05
-3.59688e-05
9.69776e-05
-2.56736e-05
0.000121731
-2.51578e-05
-1.71118e-05
5.423e-06
-9.83907e-05
1.06297e-05
-9.84372e-05
1.60353e-05
-9.86813e-05
2.08914e-05
-9.86004e-05
1.98039e-05
-9.55417e-05
8.09123e-06
-8.86496e-05
-2.37281e-06
-8.70856e-05
-1.45675e-05
-7.80542e-05
-4.42684e-05
-4.09219e-05
-0.000101902
2.90135e-05
-0.000114249
2.48744e-06
-8.96682e-05
-0.000130583
-5.00388e-05
-0.000151225
-1.80086e-05
-0.000118836
-2.07637e-06
-9.62306e-05
1.1668e-05
-8.68441e-05
2.62213e-05
-7.84977e-05
4.14565e-05
-6.84168e-05
5.73103e-05
-6.20021e-05
7.51867e-05
-5.38452e-05
8.05725e-05
-3.10593e-05
8.66737e-05
-3.1259e-05
-5.6002e-05
-1.95592e-05
-7.88315e-05
-3.97226e-05
-7.82738e-05
-6.12676e-05
-7.71363e-05
-8.26381e-05
-7.72299e-05
-0.000101137
-7.70423e-05
-0.00011424
-7.55474e-05
-0.000112875
-8.84507e-05
-0.000100589
-9.03397e-05
-6.80753e-05
-7.34356e-05
4.57716e-06
-4.3639e-05
9.24104e-05
-8.53458e-05
9.61692e-05
-0.000134341
8.50981e-05
-0.000140154
6.9232e-05
-0.00010297
4.83917e-05
-7.53904e-05
3.02763e-05
-6.87287e-05
1.96401e-05
-6.78615e-05
1.12609e-05
-6.00376e-05
6.53677e-06
-5.7278e-05
8.26466e-06
-5.55731e-05
-3.23785e-05
9.58385e-06
-8.24918e-05
1.88543e-05
-5.91987e-05
-1.08807e-05
-6.79508e-05
-1.89392e-05
-7.02153e-05
-2.32287e-05
-7.28468e-05
-2.41077e-05
-7.6351e-05
-2.16687e-05
-7.94813e-05
-1.47475e-05
-8.24686e-05
-1.47321e-05
-8.84661e-05
-1.69529e-05
-8.81188e-05
-1.45088e-05
-7.58798e-05
5.7043e-06
-6.38521e-05
1.30667e-05
-9.27083e-05
1.60395e-06
-0.000122879
-1.72612e-05
-0.000121289
-1.95504e-05
-0.000100681
-1.59361e-05
-7.90047e-05
-2.28435e-05
-6.18213e-05
-4.07005e-05
-5.00044e-05
-5.79344e-05
-4.28037e-05
-6.52026e-05
-5.00098e-05
-5.85576e-05
-6.22181e-05
-1.49274e-05
-3.40463e-05
3.37719e-06
5.49663e-07
-9.06761e-06
-4.37382e-06
-6.3577e-05
-7.52446e-06
-6.70647e-05
-1.06294e-05
-6.97419e-05
-1.39368e-05
-7.30435e-05
-1.67368e-05
-7.66814e-05
-1.85912e-05
-8.06142e-05
-2.23277e-05
-8.47296e-05
-2.50098e-05
-8.54368e-05
-1.96515e-05
-8.12381e-05
-5.18219e-06
-7.83214e-05
-4.54656e-06
-9.33439e-05
-2.29052e-05
-0.00010452
-4.00202e-05
-0.000104174
-4.96149e-05
-9.10858e-05
-4.65061e-05
-8.21135e-05
-3.11988e-05
-7.71286e-05
-1.0502e-05
-7.07013e-05
9.02608e-06
-6.23317e-05
1.21635e-05
-5.31472e-05
-1.21756e-05
-3.7879e-05
-5.24072e-05
6.18529e-06
-7.88338e-05
2.69762e-05
1.61079e-05
-1.55754e-06
-6.20194e-05
-3.13383e-06
-6.54884e-05
-4.91228e-06
-6.79635e-05
-6.81449e-06
-7.11413e-05
-8.86876e-06
-7.46271e-05
-1.14081e-05
-7.80749e-05
-1.52049e-05
-8.09328e-05
-1.83419e-05
-8.22998e-05
-1.75064e-05
-8.20736e-05
-1.34649e-05
-8.23629e-05
-1.86586e-05
-8.81502e-05
-3.08861e-05
-9.22925e-05
-4.03279e-05
-9.47323e-05
-4.28044e-05
-8.86094e-05
-3.84318e-05
-8.64861e-05
-3.24805e-05
-8.30799e-05
-3.04154e-05
-7.27663e-05
-4.03618e-05
-5.23853e-05
-6.67819e-05
-2.67271e-05
-9.47491e-05
-9.9118e-06
-9.19586e-05
3.39479e-06
-8.1527e-05
1.65446e-05
1.55185e-05
4.82056e-07
-6.25015e-05
6.93499e-07
-6.56999e-05
6.86965e-08
-6.73387e-05
-1.48797e-06
-6.95846e-05
-4.08875e-06
-7.20264e-05
-7.88295e-06
-7.42807e-05
-1.28652e-05
-7.59505e-05
-1.83147e-05
-7.68504e-05
-2.34699e-05
-7.69184e-05
-2.86486e-05
-7.71842e-05
-3.5208e-05
-8.15907e-05
-4.18287e-05
-8.56718e-05
-4.91401e-05
-8.74209e-05
-5.2142e-05
-8.56075e-05
-5.49727e-05
-8.36555e-05
-6.08681e-05
-7.71844e-05
-7.10318e-05
-8.42274e-05
-9.1798e-05
-9.42667e-05
-9.51782e-05
-8.95976e-05
-4.92246e-07
-1.10686e-06
-2.16033e-06
-4.09565e-06
-7.22892e-06
-1.15303e-05
-1.66871e-05
-2.23462e-05
-2.77998e-05
-3.24628e-05
-3.8046e-05
-4.48691e-05
-5.38564e-05
-6.31582e-05
-7.37754e-05
)
;

boundaryField
{
    leftWall
    {
        type            calculated;
        value           uniform 0;
    }
    rightWall
    {
        type            calculated;
        value           nonuniform 0();
    }
    lowerWall
    {
        type            calculated;
        value           nonuniform List<scalar> 
22
(
-6.03507e-24
-2.83709e-24
-2.49714e-24
2.08278e-22
2.06767e-22
-9.17761e-24
-1.13375e-23
1.03234e-22
-9.48691e-23
-3.06478e-23
1.97691e-23
7.31507e-23
1.16466e-22
-3.96156e-23
2.04351e-23
-1.56226e-22
-2.29459e-24
-1.99149e-22
-9.70022e-23
-3.23729e-22
-6.92505e-23
1.47859e-23
)
;
    }
    atmosphere
    {
        type            calculated;
        value           nonuniform 0();
    }
    defaultFaces
    {
        type            empty;
        value           nonuniform 0();
    }
    procBoundary0to1
    {
        type            processor;
        value           nonuniform List<scalar> 
26
(
1.9511e-05
2.1424e-05
2.34934e-05
2.53279e-05
2.76651e-05
2.36935e-05
2.36247e-05
2.09882e-05
7.14983e-05
0.000103092
0.000150508
0.000183893
0.000182874
0.000144463
0.000111926
0.000107148
-5.60859e-05
0.000138549
0.000133042
0.000135464
0.000125564
-7.92951e-05
-4.67539e-05
-0.000104009
-8.09376e-05
-8.80948e-05
)
;
    }
    procBoundary0to2
    {
        type            processor;
        value           nonuniform List<scalar> 
24
(
-6.26027e-05
-3.91897e-05
-1.91565e-05
-7.44313e-06
4.30625e-06
1.0964e-05
1.40157e-05
-6.20093e-05
-6.50853e-05
-6.62852e-05
-6.76493e-05
-6.88931e-05
-6.99793e-05
-7.07937e-05
-7.11913e-05
-7.14648e-05
-7.25211e-05
-7.60075e-05
-7.88487e-05
-7.84336e-05
-7.63058e-05
-7.30382e-05
-8.42082e-05
-6.67516e-05
)
;
    }
}


// ************************************************************************* //
