/*--------------------------------*- C++ -*----------------------------------*\
| =========                 |                                                 |
| \\      /  F ield         | OpenFOAM: The Open Source CFD Toolbox           |
|  \\    /   O peration     | Version:  2.4.0                                 |
|   \\  /    A nd           | Web:      www.OpenFOAM.org                      |
|    \\/     M anipulation  |                                                 |
\*---------------------------------------------------------------------------*/
FoamFile
{
    version     2.0;
    format      ascii;
    class       surfaceScalarField;
    location    "0.25";
    object      phi.oil;
}
// * * * * * * * * * * * * * * * * * * * * * * * * * * * * * * * * * * * * * //

dimensions      [0 3 -1 0 0 0 0];

internalField   nonuniform List<scalar> 
1101
(
3.4004e-06
-3.40023e-06
6.81906e-06
-3.4185e-06
1.02591e-05
-3.4398e-06
1.37895e-05
-3.53024e-06
1.72538e-05
-3.46414e-06
2.12308e-05
-3.97679e-06
2.42941e-05
-3.06316e-06
2.9127e-05
-4.83272e-06
3.30443e-05
-3.91718e-06
3.63174e-05
-3.27293e-06
4.07884e-05
-4.47075e-06
4.6645e-05
-5.8552e-06
5.22385e-05
-5.58959e-06
5.70001e-05
-4.75287e-06
6.01697e-05
-3.14941e-06
6.25034e-05
-2.26655e-06
6.38637e-05
-1.18353e-06
6.41282e-05
1.99436e-08
6.07557e-05
3.86037e-06
5.17246e-05
9.08323e-06
3.48755e-05
1.54641e-05
2.77728e-05
3.39921e-06
-6.79919e-06
6.81647e-06
-6.83552e-06
1.02539e-05
-6.87698e-06
1.37864e-05
-7.0625e-06
1.7255e-05
-6.93247e-06
2.11316e-05
-7.85314e-06
2.442e-05
-6.35129e-06
2.9108e-05
-9.52052e-06
3.29412e-05
-7.75014e-06
3.6308e-05
-6.63951e-06
4.10352e-05
-9.19711e-06
4.69036e-05
-1.17191e-05
5.24542e-05
-1.11303e-05
5.66716e-05
-8.94193e-06
5.96875e-05
-6.04893e-06
6.22644e-05
-4.46579e-06
6.48091e-05
-2.95261e-06
6.65197e-05
1.07855e-06
6.3856e-05
9.56459e-06
5.64397e-05
1.83615e-05
3.64556e-05
3.2361e-05
5.13591e-05
3.39267e-06
-1.01917e-05
6.80136e-06
-1.02441e-05
1.02332e-05
-1.03087e-05
1.37538e-05
-1.05829e-05
1.72232e-05
-1.04017e-05
2.10004e-05
-1.16302e-05
2.45332e-05
-9.88402e-06
2.8899e-05
-1.38862e-05
3.27146e-05
-1.15656e-05
3.6482e-05
-1.04067e-05
4.13943e-05
-1.41077e-05
4.69167e-05
-1.72256e-05
5.18671e-05
-1.59689e-05
5.61881e-05
-1.28478e-05
5.95473e-05
-8.29831e-06
6.34251e-05
-5.42188e-06
6.67056e-05
2.74488e-06
6.90597e-05
2.31975e-05
6.7205e-05
3.23556e-05
6.09203e-05
4.16008e-05
3.97805e-05
5.82306e-05
7.34547e-05
3.38327e-06
-1.35748e-05
6.77896e-06
-1.36396e-05
1.02054e-05
-1.3735e-05
1.36986e-05
-1.40759e-05
1.71693e-05
-1.38722e-05
2.08757e-05
-1.53364e-05
2.45628e-05
-1.35709e-05
2.8583e-05
-1.79063e-05
3.24514e-05
-1.54338e-05
3.6787e-05
-1.4742e-05
4.1724e-05
-1.90397e-05
4.63357e-05
-2.17163e-05
5.08669e-05
-1.96578e-05
5.54917e-05
-1.50854e-05
6.01781e-05
-8.05282e-06
6.37615e-05
3.68062e-06
6.56477e-05
1.76371e-05
7.28146e-05
3.81309e-05
6.82563e-05
6.39387e-05
5.97119e-05
8.05669e-05
4.60597e-05
9.53456e-05
0.000111091
3.37015e-06
-1.69449e-05
6.749e-06
-1.70183e-05
1.01638e-05
-1.71496e-05
1.36288e-05
-1.75409e-05
1.70771e-05
-1.73204e-05
2.07504e-05
-1.90096e-05
2.45083e-05
-1.73288e-05
2.82084e-05
-2.16063e-05
3.21617e-05
-1.9387e-05
3.71026e-05
-1.96824e-05
4.17556e-05
-2.36747e-05
4.5216e-05
-2.50523e-05
5.00768e-05
-2.29426e-05
5.5314e-05
-1.46253e-05
6.0215e-05
-1.95739e-06
6.66128e-05
1.14261e-05
7.14009e-05
2.12452e-05
7.03136e-05
2.9464e-05
6.84697e-05
4.42199e-05
4.83482e-05
8.48808e-05
3.58671e-05
0.000117981
0.000149052
3.35306e-06
-2.02979e-05
6.71153e-06
-2.03768e-05
1.01079e-05
-2.05459e-05
1.35362e-05
-2.09691e-05
1.69507e-05
-2.07348e-05
2.06217e-05
-2.26806e-05
2.43031e-05
-2.10102e-05
2.80272e-05
-2.53272e-05
3.20478e-05
-2.33763e-05
3.71484e-05
-2.46828e-05
4.14845e-05
-2.78035e-05
4.47895e-05
-2.8889e-05
4.96282e-05
-2.92683e-05
5.46771e-05
-2.09687e-05
5.85314e-05
-8.88304e-06
5.88499e-05
5.98784e-06
5.69311e-05
6.37745e-06
5.33684e-05
1.14805e-05
5.00515e-05
2.87081e-05
4.0455e-05
6.8855e-05
2.25998e-05
0.000110302
0.000159891
3.33854e-06
-2.36364e-05
6.68206e-06
-2.37202e-05
1.00586e-05
-2.39224e-05
1.34462e-05
-2.43566e-05
1.6856e-05
-2.41433e-05
2.04821e-05
-2.62492e-05
2.41542e-05
-2.45583e-05
2.77216e-05
-2.86511e-05
3.22684e-05
-2.75953e-05
3.70057e-05
-2.94259e-05
4.11551e-05
-3.3392e-05
4.55146e-05
-3.87018e-05
4.70208e-05
-4.64394e-05
4.57237e-05
-4.68969e-05
4.44002e-05
-2.99979e-05
3.96611e-05
-2.16016e-06
3.75925e-05
1.5537e-06
4.35757e-05
8.11215e-06
4.81395e-05
3.21287e-05
4.50394e-05
7.24945e-05
1.40789e-05
0.000123641
0.000150088
3.34721e-06
-2.65601e-05
6.70313e-06
-2.66404e-05
1.00803e-05
-2.68423e-05
1.34185e-05
-2.72106e-05
1.69333e-05
-2.72212e-05
2.04009e-05
-2.924e-05
2.42562e-05
-2.84338e-05
2.73668e-05
-3.28261e-05
3.23067e-05
-3.51015e-05
3.61486e-05
-3.78966e-05
3.91445e-05
-4.41945e-05
4.37415e-05
-5.54309e-05
4.27305e-05
-6.08834e-05
2.93289e-05
-5.17975e-05
3.26828e-05
-2.25062e-05
4.24898e-05
-9.94761e-06
5.12855e-05
-6.80596e-06
5.39387e-05
6.74956e-06
4.93418e-05
2.97401e-05
4.34603e-05
7.77744e-05
1.49846e-05
0.000147355
0.000155306
7.29167e-06
-4.06856e-05
1.46081e-05
-4.11504e-05
2.19159e-05
-4.20493e-05
2.90355e-05
-4.33313e-05
3.65436e-05
-4.50553e-05
4.30677e-05
-4.84415e-05
5.07213e-05
-5.08363e-05
5.73461e-05
-5.65798e-05
6.30444e-05
-5.92226e-05
6.76537e-05
-6.14467e-05
7.0425e-05
-6.64694e-05
7.23281e-05
-6.53674e-05
7.28564e-05
-5.00157e-05
6.53921e-05
-3.76791e-05
9.4132e-05
-2.96113e-05
0.000113092
-1.89388e-05
0.00011866
-1.18136e-05
0.000121268
1.71477e-06
0.000129481
2.94988e-05
0.000124071
8.41641e-05
8.38976e-05
0.000192853
0.000169936
6.25218e-06
-6.25331e-05
1.24922e-05
-6.30077e-05
1.81959e-05
-6.33237e-05
2.3643e-05
-6.43131e-05
2.8955e-05
-6.57217e-05
3.32645e-05
-6.75081e-05
3.81004e-05
-6.73556e-05
4.3327e-05
-6.29342e-05
4.76428e-05
-5.16024e-05
5.51354e-05
-4.90275e-05
6.5846e-05
-5.12529e-05
7.86547e-05
-5.12401e-05
7.973e-05
-5.04035e-05
9.45129e-05
-4.87869e-05
0.000110072
-4.46511e-05
0.000135404
-3.20179e-05
0.000145322
-2.08675e-05
0.000151873
-4.49266e-06
0.000152884
2.62476e-05
0.000160136
7.63599e-05
0.000150073
0.00020564
0.000213819
4.15125e-06
-4.91113e-05
8.64143e-06
-4.91672e-05
1.33838e-05
-4.84544e-05
1.91109e-05
-4.86258e-05
2.51996e-05
-4.85054e-05
3.22672e-05
-4.94167e-05
4.00884e-05
-4.9956e-05
5.02668e-05
-5.39536e-05
6.15805e-05
-5.34509e-05
7.43643e-05
-5.77924e-05
8.51637e-05
-6.06838e-05
9.09817e-05
-5.99557e-05
9.32271e-05
-5.95201e-05
0.000101493
-5.75308e-05
0.000118869
-4.76794e-05
0.000147003
-4.37701e-05
0.000156008
-3.06593e-05
0.000163499
-1.2691e-05
0.000165452
2.37998e-05
0.000168565
7.15093e-05
0.000181778
0.000185511
0.000236906
6.82669e-06
-5.17791e-05
1.37193e-05
-5.23024e-05
2.09704e-05
-5.25889e-05
2.82715e-05
-5.36619e-05
3.58638e-05
-5.45727e-05
4.35233e-05
-5.62112e-05
5.15611e-05
-5.76176e-05
5.90827e-05
-6.14103e-05
6.65856e-05
-6.09544e-05
7.55543e-05
-6.67578e-05
8.35118e-05
-6.86774e-05
8.45083e-05
-6.90676e-05
8.71592e-05
-7.05607e-05
0.00010203
-6.53104e-05
0.000135692
-6.09735e-05
0.00014761
-5.49286e-05
0.000157223
-4.09496e-05
0.000161915
-1.99411e-05
0.000157557
2.20723e-05
0.000157097
6.50836e-05
0.000176645
0.000155022
0.000218718
6.89671e-06
-5.8678e-05
1.37039e-05
-5.91114e-05
2.06978e-05
-5.95843e-05
2.73842e-05
-6.03494e-05
3.4301e-05
-6.14903e-05
4.09129e-05
-6.28234e-05
4.75544e-05
-6.42592e-05
5.36552e-05
-6.75111e-05
6.04821e-05
-6.7781e-05
6.87271e-05
-7.49927e-05
7.57571e-05
-7.63097e-05
7.55868e-05
-7.74089e-05
8.14817e-05
-6.18522e-05
0.000110412
-7.03596e-05
0.000134507
-7.25699e-05
0.000141842
-6.25901e-05
0.000142742
-4.44416e-05
0.000136155
-1.7685e-05
0.000122831
2.53046e-05
0.000117026
6.23434e-05
0.000137332
0.000126463
0.000167844
6.19497e-06
-6.48719e-05
1.23923e-05
-6.53079e-05
1.86697e-05
-6.58611e-05
2.48774e-05
-6.65568e-05
3.10054e-05
-6.76182e-05
3.71384e-05
-6.89564e-05
4.36327e-05
-7.07535e-05
4.98415e-05
-7.37199e-05
5.79554e-05
-7.58935e-05
6.59918e-05
-8.3019e-05
6.81167e-05
-7.24305e-05
5.98606e-05
-5.49484e-05
9.56193e-05
-8.18858e-05
0.000116396
-8.54532e-05
0.00012007
-7.73206e-05
0.000119168
-6.42011e-05
0.000106112
-3.78905e-05
8.63607e-05
-6.35248e-06
7.28278e-05
3.1327e-05
7.43647e-05
5.6134e-05
9.39308e-05
0.000103461
0.000116592
6.10294e-06
-7.09745e-05
1.22696e-05
-7.14743e-05
1.83637e-05
-7.19553e-05
2.4509e-05
-7.27023e-05
3.06083e-05
-7.37178e-05
3.67277e-05
-7.50762e-05
4.29748e-05
-7.70008e-05
4.86424e-05
-7.93878e-05
5.5102e-05
-8.23491e-05
5.29203e-05
-8.51459e-05
4.51805e-05
-5.59295e-05
8.31101e-05
-9.69219e-05
9.01087e-05
-9.32067e-05
9.13246e-05
-8.73088e-05
8.59084e-05
-7.65963e-05
6.88204e-05
-5.48241e-05
4.76076e-05
-2.48631e-05
3.47181e-05
1.21588e-06
3.6556e-05
2.68912e-05
4.80221e-05
4.35163e-05
7.47533e-05
7.6188e-05
7.9316e-05
5.66573e-06
-7.66402e-05
1.13743e-05
-7.7183e-05
1.71097e-05
-7.76909e-05
2.28262e-05
-7.84191e-05
2.8516e-05
-7.94079e-05
3.4001e-05
-8.05614e-05
3.88251e-05
-8.18255e-05
4.29849e-05
-8.35498e-05
4.55296e-05
-8.65888e-05
3.17488e-05
-5.34533e-05
5.62769e-05
-9.02349e-05
6.39383e-05
-9.85503e-05
6.15061e-05
-9.48379e-05
5.24265e-05
-8.53096e-05
3.28607e-05
-6.4743e-05
1.46625e-05
-4.25499e-05
7.15937e-06
-2.03227e-05
1.26383e-05
-5.1957e-06
2.59572e-05
1.33041e-05
4.3656e-05
2.57281e-05
7.40213e-05
4.57606e-05
4.61721e-05
5.65207e-06
-8.23516e-05
1.12404e-05
-8.28398e-05
1.6835e-05
-8.33736e-05
2.24311e-05
-8.41431e-05
2.80381e-05
-8.52228e-05
3.35165e-05
-8.64071e-05
3.82469e-05
-8.72439e-05
4.13966e-05
-8.80349e-05
2.11475e-05
-8.28474e-05
3.20863e-05
-8.61444e-05
3.19221e-05
-8.86969e-05
2.67447e-05
-9.72316e-05
1.61609e-05
-9.09589e-05
9.90294e-08
-7.55534e-05
-1.01689e-05
-5.83928e-05
-1.00156e-05
-4.40411e-05
-9.56631e-07
-2.96873e-05
1.33522e-05
-1.95287e-05
3.15481e-05
-4.89762e-06
5.27395e-05
4.53542e-06
8.08285e-05
1.76707e-05
0.000108113
1.88872e-05
2.56502e-05
5.41855e-06
-9.2437e-05
1.08416e-05
-9.32392e-05
1.61755e-05
-9.42661e-05
2.15978e-05
-9.60917e-05
2.71827e-05
-9.8777e-05
3.3143e-05
-0.000103296
3.82833e-05
-0.000108889
3.50327e-05
-0.000116475
1.39084e-05
-0.000105556
5.78969e-06
-0.000122333
-1.56581e-05
-0.00011038
-2.47118e-05
-0.000110666
-2.69294e-05
-9.91515e-05
-2.78693e-05
-7.9018e-05
-2.20786e-05
-6.60101e-05
-1.05201e-05
-5.62576e-05
6.24375e-06
-4.67402e-05
2.31856e-05
-3.66434e-05
4.33582e-05
-2.52309e-05
6.32068e-05
-1.54868e-05
8.47208e-05
-4.03483e-06
0.000104012
-7.50971e-07
-4.20353e-06
5.31303e-06
-0.000137688
1.04165e-05
-0.000139939
1.51654e-05
-0.000143822
1.93914e-05
-0.000150509
2.33637e-05
-0.000161945
2.76159e-05
-0.000172133
3.12604e-05
-0.000184897
1.33474e-05
-0.000200226
-1.65955e-05
-0.00017445
-4.97502e-05
-0.000184824
-6.87321e-05
-0.000173699
-5.80995e-05
-0.000183332
-4.34087e-05
-0.000163608
-3.32972e-05
-0.000122896
-1.78601e-05
-0.000108848
-6.05061e-07
-9.25833e-05
1.67941e-05
-7.8883e-05
3.34435e-05
-6.58835e-05
5.4496e-05
-6.00132e-05
7.5136e-05
-5.37292e-05
9.69091e-05
-4.93278e-05
0.000121511
-5.65757e-05
-7.77586e-05
3.826e-06
-0.000240914
7.35664e-06
-0.000244938
1.04917e-05
-0.000251233
1.28805e-05
-0.000253806
1.42063e-05
-0.000228956
1.30008e-05
-0.000166459
4.59702e-06
-0.000145783
-3.56364e-05
-0.000112053
-7.65038e-05
-0.000164811
-0.000109106
-0.000186493
-0.000120023
-0.00016589
-8.072e-05
-0.000182937
-3.59698e-05
-0.00027921
-1.26837e-05
-0.000241817
3.55868e-06
-0.000210812
1.4716e-05
-0.000178593
2.74354e-05
-0.000158008
4.11812e-05
-0.000144064
5.57484e-05
-0.000139946
7.21539e-05
-0.000140844
7.99397e-05
-0.000143348
8.23034e-05
-0.000137372
-0.000112828
-1.73177e-05
-8.71862e-05
-3.64926e-05
-8.46244e-05
-5.83733e-05
-8.11172e-05
-8.12411e-05
-7.91153e-05
-0.000101024
-7.88061e-05
-9.4117e-05
-7.87952e-05
-7.58494e-05
-9.13264e-05
-7.54332e-05
-7.97589e-05
-7.1215e-05
-7.68939e-05
-4.22515e-05
-8.45422e-05
3.34112e-05
-9.36109e-05
1.5044e-05
-0.000115458
-7.10901e-06
-0.000156323
1.16851e-05
-0.000148803
2.07122e-05
-0.000135833
2.26919e-05
-0.000125998
2.75318e-05
-0.000119891
3.42555e-05
-0.000110168
3.8514e-05
-0.000104836
3.98516e-05
-0.000105984
3.91075e-05
-0.00010535
2.49411e-05
-8.0732e-05
-5.42226e-05
-1.08829e-05
-6.79534e-05
-1.89429e-05
-7.02176e-05
-2.32343e-05
-7.28489e-05
-2.41099e-05
-7.63789e-05
-2.11895e-05
-8.05365e-05
-1.45205e-05
-8.56525e-05
-1.52091e-05
-8.62831e-05
-1.61487e-05
-7.16262e-05
-1.49928e-05
-6.87266e-05
5.25495e-06
-6.22824e-05
1.31665e-05
-9.19936e-05
1.24276e-06
-0.000123002
-1.75128e-05
-0.000121528
-1.84199e-05
-0.000101836
-1.47152e-05
-8.21785e-05
-2.30709e-05
-6.45854e-05
-3.71982e-05
-5.68548e-05
-4.96768e-05
-5.42079e-05
-5.65803e-05
-6.20082e-05
-5.69219e-05
-7.02386e-05
-1.5493e-05
-4.78718e-05
1.98277e-06
-1.55365e-05
-1.66436e-05
-4.3752e-06
-6.35776e-05
-7.52654e-06
-6.70648e-05
-1.06319e-05
-6.97405e-05
-1.39428e-05
-7.30324e-05
-1.67519e-05
-7.65971e-05
-1.86167e-05
-8.02011e-05
-2.22927e-05
-8.40658e-05
-2.4994e-05
-8.503e-05
-1.96982e-05
-8.105e-05
-5.30323e-06
-7.82089e-05
-4.60319e-06
-9.33462e-05
-2.32117e-05
-0.000104535
-4.04231e-05
-0.000104186
-4.97703e-05
-9.10776e-05
-4.65139e-05
-8.15052e-05
-3.10826e-05
-7.53632e-05
-1.04239e-05
-6.85248e-05
8.88624e-06
-6.03751e-05
1.23021e-05
-5.1208e-05
-9.89931e-06
-3.70495e-05
-5.17847e-05
7.66074e-06
-7.769e-05
2.96443e-05
1.73005e-05
-1.55856e-06
-6.20185e-05
-3.13541e-06
-6.5487e-05
-4.91408e-06
-6.79616e-05
-6.81692e-06
-7.11401e-05
-8.87273e-06
-7.46324e-05
-1.14114e-05
-7.80934e-05
-1.52018e-05
-8.09566e-05
-1.83405e-05
-8.2305e-05
-1.75035e-05
-8.20746e-05
-1.34615e-05
-8.23642e-05
-1.86814e-05
-8.81496e-05
-3.10131e-05
-9.23033e-05
-4.02636e-05
-9.47849e-05
-4.14508e-05
-8.89438e-05
-3.80935e-05
-8.72881e-05
-3.32344e-05
-8.46597e-05
-3.11632e-05
-7.48188e-05
-4.07006e-05
-5.41079e-05
-6.28227e-05
-2.7592e-05
-9.20226e-05
-1.10768e-05
-9.20989e-05
2.69402e-06
-8.15772e-05
1.59876e-05
1.50477e-05
4.81432e-07
-6.24994e-05
6.92534e-07
-6.56974e-05
6.77027e-08
-6.73357e-05
-1.48889e-06
-6.95812e-05
-4.08955e-06
-7.20226e-05
-7.88306e-06
-7.42769e-05
-1.28645e-05
-7.59461e-05
-1.83133e-05
-7.68454e-05
-2.34678e-05
-7.69133e-05
-2.86475e-05
-7.71795e-05
-3.52081e-05
-8.15882e-05
-4.188e-05
-8.56717e-05
-4.87011e-05
-8.74604e-05
-4.75666e-05
-8.57691e-05
-5.43416e-05
-8.4624e-05
-6.15574e-05
-7.91952e-05
-7.1554e-05
-7.74795e-05
-8.93987e-05
-9.41189e-05
-9.50267e-05
-8.95781e-05
-4.92423e-07
-1.1072e-06
-2.16075e-06
-4.09604e-06
-7.22912e-06
-1.15301e-05
-1.66863e-05
-2.23447e-05
-2.77977e-05
-3.24604e-05
-3.80461e-05
-4.49128e-05
-5.34059e-05
-5.84055e-05
-7.36192e-05
)
;

boundaryField
{
    leftWall
    {
        type            fixedValue;
        value           uniform 0;
    }
    rightWall
    {
        type            fixedValue;
        value           nonuniform 0();
    }
    lowerWall
    {
        type            fixedValue;
        value           uniform 0;
    }
    atmosphere
    {
        type            calculated;
        value           nonuniform 0();
    }
    defaultFaces
    {
        type            empty;
        value           nonuniform 0();
    }
    procBoundary0to1
    {
        type            processor;
        value           nonuniform List<scalar> 
26
(
1.4719e-05
1.62808e-05
1.76156e-05
1.90027e-05
1.88417e-05
1.39529e-05
1.31876e-05
1.50989e-05
9.09382e-05
0.000117196
0.00015993
0.000188656
0.000184201
0.000144475
0.000111925
0.000107148
-5.6086e-05
0.000138549
0.000133042
0.000134199
8.68873e-05
5.21316e-05
-4.67384e-05
-0.000103063
-8.10221e-05
-8.81074e-05
)
;
    }
    procBoundary0to2
    {
        type            processor;
        value           nonuniform List<scalar> 
24
(
-6.48312e-05
-4.20718e-05
-2.05006e-05
-7.51683e-06
4.2222e-06
1.09231e-05
1.39665e-05
-6.20061e-05
-6.5082e-05
-6.62817e-05
-6.76454e-05
-6.88887e-05
-6.99746e-05
-7.07887e-05
-7.11861e-05
-7.14596e-05
-7.25165e-05
-7.60037e-05
-7.88472e-05
-7.84801e-05
-7.65808e-05
-7.1868e-05
-8.49346e-05
-6.84468e-05
)
;
    }
}


// ************************************************************************* //
