/*--------------------------------*- C++ -*----------------------------------*\
| =========                 |                                                 |
| \\      /  F ield         | OpenFOAM: The Open Source CFD Toolbox           |
|  \\    /   O peration     | Version:  2.4.0                                 |
|   \\  /    A nd           | Web:      www.OpenFOAM.org                      |
|    \\/     M anipulation  |                                                 |
\*---------------------------------------------------------------------------*/
FoamFile
{
    version     2.0;
    format      ascii;
    class       surfaceScalarField;
    location    "0.25";
    object      phi.air;
}
// * * * * * * * * * * * * * * * * * * * * * * * * * * * * * * * * * * * * * //

dimensions      [0 3 -1 0 0 0 0];

internalField   nonuniform List<scalar> 
1101
(
3.4004e-06
-3.40023e-06
6.81906e-06
-3.4185e-06
1.02591e-05
-3.4398e-06
1.37895e-05
-3.53024e-06
1.72538e-05
-3.46414e-06
2.12308e-05
-3.97679e-06
2.42941e-05
-3.06316e-06
2.9127e-05
-4.83272e-06
3.30443e-05
-3.91718e-06
3.63174e-05
-3.27293e-06
4.07884e-05
-4.47084e-06
4.66449e-05
-5.85632e-06
5.22382e-05
-5.59317e-06
5.69995e-05
-4.76118e-06
6.01687e-05
-3.16903e-06
6.25012e-05
-2.33237e-06
6.38783e-05
-1.37695e-06
6.42151e-05
-3.36607e-07
6.09682e-05
3.24741e-06
5.27818e-05
8.18686e-06
3.96158e-05
1.31665e-05
2.01051e-05
3.39921e-06
-6.79919e-06
6.81647e-06
-6.83552e-06
1.02539e-05
-6.87698e-06
1.37864e-05
-7.0625e-06
1.7255e-05
-6.93247e-06
2.11316e-05
-7.85314e-06
2.442e-05
-6.35129e-06
2.9108e-05
-9.52052e-06
3.29412e-05
-7.75014e-06
3.6308e-05
-6.63951e-06
4.1035e-05
-9.1976e-06
4.69029e-05
-1.1724e-05
5.2453e-05
-1.1143e-05
5.66692e-05
-8.97708e-06
5.9686e-05
-6.18556e-06
6.22804e-05
-4.92653e-06
6.48551e-05
-3.95131e-06
6.66051e-05
-2.08612e-06
6.40602e-05
5.79306e-06
5.7307e-05
1.49408e-05
4.16002e-05
2.88741e-05
4.02825e-05
3.39267e-06
-1.01917e-05
6.80136e-06
-1.02441e-05
1.02332e-05
-1.03087e-05
1.37538e-05
-1.05829e-05
1.72232e-05
-1.04017e-05
2.10004e-05
-1.16302e-05
2.45332e-05
-9.88402e-06
2.8899e-05
-1.38862e-05
3.27146e-05
-1.15656e-05
3.64819e-05
-1.04067e-05
4.13936e-05
-1.41091e-05
4.69148e-05
-1.72451e-05
5.18638e-05
-1.60919e-05
5.61986e-05
-1.33118e-05
5.96027e-05
-9.58953e-06
6.35239e-05
-8.84683e-06
6.73716e-05
-7.76512e-06
6.94288e-05
-3.97465e-06
6.80889e-05
7.26305e-06
6.20671e-05
2.10306e-05
4.43088e-05
4.66383e-05
6.10986e-05
3.38327e-06
-1.35748e-05
6.77896e-06
-1.36396e-05
1.02054e-05
-1.3735e-05
1.36986e-05
-1.40759e-05
1.71693e-05
-1.38722e-05
2.08757e-05
-1.53364e-05
2.45628e-05
-1.35709e-05
2.8583e-05
-1.79063e-05
3.24514e-05
-1.54338e-05
3.67869e-05
-1.4742e-05
4.17211e-05
-1.90431e-05
4.63398e-05
-2.18636e-05
5.09001e-05
-2.06505e-05
5.55747e-05
-1.79614e-05
6.05225e-05
-1.44404e-05
6.54913e-05
-1.35522e-05
7.13498e-05
-1.30799e-05
7.45248e-05
-7.89862e-06
7.27783e-05
6.14154e-06
6.62025e-05
2.63379e-05
5.0796e-05
6.25379e-05
8.65908e-05
3.37015e-06
-1.69449e-05
6.749e-06
-1.70183e-05
1.01638e-05
-1.71496e-05
1.36288e-05
-1.75409e-05
1.70771e-05
-1.73204e-05
2.07504e-05
-1.90096e-05
2.45083e-05
-1.73288e-05
2.82084e-05
-2.16063e-05
3.21617e-05
-1.9387e-05
3.71021e-05
-1.96824e-05
4.17478e-05
-2.36803e-05
4.54016e-05
-2.54278e-05
5.03068e-05
-2.53003e-05
5.56577e-05
-2.28279e-05
6.20688e-05
-2.06527e-05
6.82503e-05
-2.15233e-05
7.13854e-05
-2.34784e-05
7.26167e-05
-2.43843e-05
7.14181e-05
-1.31108e-05
5.97057e-05
1.73814e-05
4.77696e-05
6.80576e-05
0.000107175
3.35306e-06
-2.02979e-05
6.71153e-06
-2.03768e-05
1.01079e-05
-2.05459e-05
1.35362e-05
-2.09691e-05
1.69507e-05
-2.07348e-05
2.06217e-05
-2.26806e-05
2.43031e-05
-2.10102e-05
2.80272e-05
-2.53252e-05
3.20478e-05
-2.33583e-05
3.71463e-05
-2.46417e-05
4.15227e-05
-2.77246e-05
4.53963e-05
-2.8956e-05
5.08492e-05
-3.17619e-05
5.64074e-05
-3.28328e-05
6.10635e-05
-3.47889e-05
6.23282e-05
-3.91232e-05
6.17148e-05
-4.41434e-05
5.84815e-05
-4.02669e-05
5.96151e-05
-1.27724e-05
5.32257e-05
7.11798e-06
3.98253e-05
6.29659e-05
0.000120767
3.33854e-06
-2.36364e-05
6.68206e-06
-2.37202e-05
1.00586e-05
-2.39224e-05
1.34462e-05
-2.43566e-05
1.6856e-05
-2.41425e-05
2.04821e-05
-2.62223e-05
2.41538e-05
-2.4509e-05
2.77214e-05
-2.85643e-05
3.22734e-05
-2.7464e-05
3.70122e-05
-2.93392e-05
4.11898e-05
-3.33552e-05
4.58837e-05
-3.90731e-05
5.03259e-05
-4.81534e-05
5.21905e-05
-5.25596e-05
4.94226e-05
-5.45314e-05
4.42483e-05
-4.86205e-05
4.3314e-05
-2.88069e-05
4.73766e-05
-9.6281e-06
5.1386e-05
9.58249e-06
5.72357e-05
4.89704e-05
3.43327e-05
6.8943e-05
0.000123944
3.34721e-06
-2.63871e-05
6.70313e-06
-2.6461e-05
1.00803e-05
-2.66505e-05
1.34184e-05
-2.69999e-05
1.69318e-05
-2.7018e-05
2.04033e-05
-2.90491e-05
2.42595e-05
-2.82984e-05
2.73701e-05
-3.28125e-05
3.23088e-05
-3.52551e-05
3.61471e-05
-3.82296e-05
3.91098e-05
-4.46919e-05
4.35622e-05
-5.68805e-05
4.42618e-05
-6.45363e-05
3.96885e-05
-5.62037e-05
3.80542e-05
-3.74983e-05
4.40786e-05
-2.91648e-05
5.22886e-05
-2.41693e-05
5.73558e-05
-1.32911e-05
5.40373e-05
1.27319e-05
4.80101e-05
5.69365e-05
3.33504e-05
8.86376e-05
0.000125206
7.29213e-06
-4.13732e-05
1.46087e-05
-4.18843e-05
2.19161e-05
-4.28704e-05
2.90346e-05
-4.4227e-05
3.65408e-05
-4.59711e-05
4.30619e-05
-4.93922e-05
5.07036e-05
-5.17681e-05
5.72732e-05
-5.77162e-05
6.2913e-05
-6.10189e-05
6.74958e-05
-6.44273e-05
7.00606e-05
-7.0746e-05
7.17264e-05
-7.01102e-05
7.29201e-05
-4.98779e-05
8.20954e-05
-4.00932e-05
9.93291e-05
-3.93634e-05
0.000115158
-3.73422e-05
0.0001235
-3.08895e-05
0.000126782
-1.6792e-05
0.000133303
6.43342e-06
0.000127686
5.90499e-05
9.72508e-05
0.000150335
0.000128815
6.22495e-06
-6.53797e-05
1.24333e-05
-6.60529e-05
1.81033e-05
-6.67722e-05
2.35061e-05
-6.81707e-05
2.8764e-05
-6.98221e-05
3.29459e-05
-7.20063e-05
3.76488e-05
-7.21671e-05
4.29231e-05
-6.72244e-05
4.73694e-05
-5.45469e-05
5.49354e-05
-5.07465e-05
6.54666e-05
-5.20325e-05
7.74867e-05
-5.11582e-05
9.19299e-05
-5.123e-05
0.000108185
-5.11585e-05
0.00012237
-5.19601e-05
0.000135139
-4.96794e-05
0.000144543
-4.02537e-05
0.000152505
-2.46954e-05
0.000154279
4.59316e-06
0.000155774
5.44238e-05
0.000132643
0.000169325
0.000154884
4.13473e-06
-5.08443e-05
8.60679e-06
-5.07953e-05
1.33294e-05
-4.9904e-05
1.90352e-05
-4.97994e-05
2.51185e-05
-4.94011e-05
3.21723e-05
-5.00144e-05
4.00028e-05
-5.02767e-05
5.0224e-05
-5.40258e-05
6.15747e-05
-5.34455e-05
7.43604e-05
-5.77833e-05
8.50957e-05
-6.06786e-05
9.44537e-05
-6.00796e-05
0.000104439
-6.12046e-05
0.000117608
-6.43314e-05
0.000130961
-6.53142e-05
0.000142909
-6.14782e-05
0.000152914
-4.99892e-05
0.000160622
-3.21014e-05
0.000163414
1.76202e-06
0.00016284
5.22252e-05
0.000157345
0.000156599
0.000176425
6.8269e-06
-5.1771e-05
1.37195e-05
-5.22948e-05
2.09706e-05
-5.25821e-05
2.82716e-05
-5.36558e-05
3.58639e-05
-5.45666e-05
4.35233e-05
-5.62049e-05
5.15612e-05
-5.76108e-05
5.90828e-05
-6.14023e-05
6.65858e-05
-6.09449e-05
7.55492e-05
-6.67452e-05
8.35382e-05
-6.8661e-05
9.26915e-05
-6.92271e-05
0.00010448
-7.29898e-05
0.000117821
-7.76837e-05
0.000130752
-7.81183e-05
0.000142554
-7.29342e-05
0.000152354
-5.94045e-05
0.000157602
-3.76104e-05
0.000153885
3.90574e-06
0.000152814
5.05538e-05
0.000161063
0.000136439
0.000183374
6.89674e-06
-5.8669e-05
1.37039e-05
-5.91019e-05
2.06979e-05
-5.95744e-05
2.73843e-05
-6.03388e-05
3.43012e-05
-6.14788e-05
4.09132e-05
-6.28111e-05
4.75549e-05
-6.42454e-05
5.36557e-05
-6.7494e-05
6.04829e-05
-6.77586e-05
6.87177e-05
-7.49638e-05
7.63554e-05
-7.62942e-05
8.78535e-05
-8.07257e-05
0.000102623
-8.7762e-05
0.000117243
-9.22132e-05
0.000129792
-9.01652e-05
0.000137682
-8.03897e-05
0.000139105
-6.14088e-05
0.00013213
-3.29851e-05
0.000120207
1.27625e-05
0.000116484
5.23414e-05
0.000135286
0.000116369
0.00015718
6.19509e-06
-6.48525e-05
1.23926e-05
-6.52872e-05
1.86702e-05
-6.58397e-05
2.4878e-05
-6.65342e-05
3.10062e-05
-6.75936e-05
3.71394e-05
-6.89291e-05
4.3634e-05
-7.07176e-05
4.98431e-05
-7.36726e-05
5.79569e-05
-7.58309e-05
6.59821e-05
-8.29721e-05
7.43946e-05
-8.47012e-05
8.84369e-05
-9.4727e-05
0.000103196
-0.000102288
0.000113732
-0.00010209
0.000118896
-9.50641e-05
0.000117509
-8.02802e-05
0.000104711
-5.17541e-05
8.54617e-05
-1.67796e-05
7.41361e-05
2.37885e-05
7.65858e-05
5.13008e-05
9.60698e-05
9.99751e-05
0.000114956
6.10326e-06
-7.09226e-05
1.22703e-05
-7.14177e-05
1.83648e-05
-7.18983e-05
2.45108e-05
-7.26454e-05
3.06107e-05
-7.36615e-05
3.6731e-05
-7.50226e-05
4.29794e-05
-7.69499e-05
4.8648e-05
-7.9329e-05
5.51044e-05
-8.22489e-05
6.10395e-05
-8.87615e-05
6.91088e-05
-9.24724e-05
8.16129e-05
-0.000106951
8.9896e-05
-0.000111469
9.15782e-05
-0.000104804
8.57491e-05
-9.18895e-05
6.82431e-05
-6.63692e-05
4.73697e-05
-3.26371e-05
3.55937e-05
-3.19556e-06
3.78228e-05
2.48091e-05
4.91401e-05
4.26357e-05
7.52054e-05
7.54875e-05
7.91172e-05
5.66679e-06
-7.63199e-05
1.13767e-05
-7.68011e-05
1.71137e-05
-7.71715e-05
2.28317e-05
-7.75856e-05
2.85223e-05
-7.78536e-05
3.40064e-05
-7.72642e-05
3.88296e-05
-7.438e-05
4.29896e-05
-6.68515e-05
4.73216e-05
-5.4849e-05
5.09145e-05
-4.96474e-05
5.88554e-05
-5.68099e-05
6.62926e-05
-7.12296e-05
6.42274e-05
-9.26531e-05
5.41906e-05
-9.47055e-05
3.33518e-05
-7.21158e-05
1.48518e-05
-4.70509e-05
7.67839e-06
-2.23843e-05
1.28895e-05
-5.4489e-06
2.59933e-05
1.32393e-05
4.36672e-05
2.57122e-05
7.40231e-05
4.57475e-05
4.61687e-05
5.65619e-06
-3.21659e-05
1.12539e-05
-3.18646e-05
1.68756e-05
-3.11309e-05
2.25576e-05
-3.00908e-05
2.84252e-05
-2.84397e-05
3.45248e-05
-2.64755e-05
3.99542e-05
-2.33578e-05
4.28438e-05
-2.16314e-05
4.30523e-05
-2.26653e-05
4.48616e-05
-3.07103e-05
5.79765e-05
-3.50955e-05
4.60806e-05
3.10547e-06
2.28748e-05
-1.22506e-05
9.66548e-07
-2.33351e-05
-9.8878e-06
-2.49587e-05
-9.78183e-06
-3.55269e-05
-9.36057e-07
-2.77411e-05
1.33368e-05
-1.89717e-05
3.15465e-05
-4.53583e-06
5.27398e-05
4.83618e-06
8.08315e-05
1.78439e-05
0.000108123
1.91361e-05
2.70573e-05
5.78669e-06
-2.39608e-05
1.19333e-05
-2.50087e-05
1.88694e-05
-2.67319e-05
2.77414e-05
-2.98312e-05
3.89711e-05
-3.42626e-05
4.89573e-05
-3.5016e-05
4.92239e-05
-3.00068e-05
4.48202e-05
-2.27721e-05
3.37569e-05
-1.4639e-05
1.96265e-05
-1.58297e-06
-6.59648e-06
2.98259e-05
-2.46235e-05
-4.93308e-06
-3.36418e-05
-3.261e-05
-3.82771e-05
-1.91361e-05
-2.90697e-05
-8.99747e-06
-1.23476e-05
-3.44642e-06
5.83365e-06
2.6911e-06
2.30575e-05
1.16131e-05
4.3299e-05
2.46803e-05
6.31559e-05
3.58397e-05
8.47192e-05
5.0163e-05
0.000104097
5.9487e-05
6.1183e-05
4.87351e-06
-4.17832e-05
9.5362e-06
-4.21927e-05
1.38281e-05
-4.25317e-05
1.85294e-05
-4.36388e-05
2.97355e-05
-4.79828e-05
4.3375e-05
-5.72034e-05
4.79298e-05
-5.91568e-05
4.64301e-05
-5.65028e-05
3.0048e-05
-4.06498e-05
-1.7433e-05
4.71516e-06
-8.78341e-05
3.26586e-05
-7.16246e-05
-7.33657e-05
-4.61229e-05
-6.87434e-05
-4.03883e-05
-3.26669e-05
-2.80236e-05
-2.0026e-05
-1.19535e-05
-1.0284e-05
7.0075e-06
1.19879e-06
2.90458e-05
1.52438e-05
5.38337e-05
2.85282e-05
7.67553e-05
4.78001e-05
0.000104274
6.90182e-05
0.000133512
6.74801e-05
7.97915e-05
5.79188e-06
-8.19294e-05
1.12912e-05
-8.2907e-05
1.69264e-05
-8.49948e-05
2.18014e-05
-8.80295e-05
2.01916e-05
-8.95204e-05
7.9071e-06
-8.68003e-05
-2.56695e-06
-8.66143e-05
-1.46557e-05
-7.79068e-05
-4.42593e-05
-4.08484e-05
-0.000101888
2.93357e-05
-0.000114178
2.83129e-06
-9.02707e-05
-0.000130037
-5.33954e-05
-0.000144136
-2.07599e-05
-9.87883e-05
-7.16205e-06
-6.73e-05
7.22761e-06
-5.14744e-05
2.37976e-05
-3.95106e-05
4.20795e-05
-2.57846e-05
6.05554e-05
-1.84644e-05
8.03976e-05
-1.01988e-05
8.13652e-05
1.81177e-05
8.9354e-05
4.59216e-06
-4.76856e-05
-1.95614e-05
-7.88252e-05
-3.97254e-05
-7.82695e-05
-6.12696e-05
-7.71341e-05
-8.2639e-05
-7.7229e-05
-0.000101138
-7.70422e-05
-0.00011424
-7.55474e-05
-0.000112875
-8.84507e-05
-0.00010059
-9.03398e-05
-6.80752e-05
-7.34356e-05
4.57818e-06
-4.36382e-05
9.24107e-05
-8.53459e-05
9.61706e-05
-0.000134342
8.51163e-05
-0.000140154
6.92968e-05
-0.000102961
4.85437e-05
-7.53333e-05
3.03862e-05
-6.84688e-05
1.94528e-05
-6.73485e-05
1.06667e-05
-5.93556e-05
5.97063e-06
-5.67117e-05
8.0568e-06
-5.52876e-05
-3.24461e-05
9.68826e-06
-8.24967e-05
1.88581e-05
-5.91987e-05
-1.08808e-05
-6.79509e-05
-1.89392e-05
-7.02154e-05
-2.32288e-05
-7.28469e-05
-2.41077e-05
-7.63511e-05
-2.16687e-05
-7.94814e-05
-1.47475e-05
-8.24687e-05
-1.47321e-05
-8.84662e-05
-1.69529e-05
-8.81189e-05
-1.45088e-05
-7.58798e-05
5.7043e-06
-6.38521e-05
1.30667e-05
-9.27083e-05
1.60395e-06
-0.000122879
-1.72612e-05
-0.000121289
-1.95504e-05
-0.000100681
-1.59361e-05
-7.90047e-05
-2.28435e-05
-6.18213e-05
-4.07005e-05
-5.00044e-05
-5.79344e-05
-4.28036e-05
-6.52025e-05
-5.00098e-05
-5.85576e-05
-6.22181e-05
-1.49274e-05
-3.40463e-05
3.37719e-06
5.49668e-07
-9.06761e-06
-4.37382e-06
-6.35771e-05
-7.52447e-06
-6.70648e-05
-1.06294e-05
-6.9742e-05
-1.39369e-05
-7.30436e-05
-1.67368e-05
-7.66815e-05
-1.85912e-05
-8.06143e-05
-2.23277e-05
-8.47297e-05
-2.50098e-05
-8.54369e-05
-1.96515e-05
-8.12382e-05
-5.18219e-06
-7.83214e-05
-4.54656e-06
-9.3344e-05
-2.29052e-05
-0.00010452
-4.00202e-05
-0.000104174
-4.96149e-05
-9.10858e-05
-4.65061e-05
-8.21136e-05
-3.11988e-05
-7.71286e-05
-1.0502e-05
-7.07013e-05
9.02608e-06
-6.23317e-05
1.21635e-05
-5.31472e-05
-1.21756e-05
-3.7879e-05
-5.24072e-05
6.18529e-06
-7.88338e-05
2.69762e-05
1.61079e-05
-1.55754e-06
-6.20196e-05
-3.13383e-06
-6.54886e-05
-4.91229e-06
-6.79636e-05
-6.8145e-06
-7.11414e-05
-8.86878e-06
-7.46272e-05
-1.14081e-05
-7.8075e-05
-1.5205e-05
-8.09329e-05
-1.83419e-05
-8.22999e-05
-1.75064e-05
-8.20737e-05
-1.34649e-05
-8.23629e-05
-1.86586e-05
-8.81502e-05
-3.08861e-05
-9.22926e-05
-4.03279e-05
-9.47323e-05
-4.28044e-05
-8.86094e-05
-3.84318e-05
-8.64861e-05
-3.24805e-05
-8.30799e-05
-3.04154e-05
-7.27663e-05
-4.03619e-05
-5.23854e-05
-6.67819e-05
-2.67271e-05
-9.47491e-05
-9.91181e-06
-9.19586e-05
3.39479e-06
-8.1527e-05
1.65446e-05
1.55185e-05
4.82057e-07
-6.25016e-05
6.935e-07
-6.57e-05
6.86966e-08
-6.73388e-05
-1.48797e-06
-6.95847e-05
-4.08875e-06
-7.20264e-05
-7.88296e-06
-7.42808e-05
-1.28652e-05
-7.59506e-05
-1.83147e-05
-7.68504e-05
-2.34699e-05
-7.69185e-05
-2.86486e-05
-7.71842e-05
-3.5208e-05
-8.15908e-05
-4.18288e-05
-8.56718e-05
-4.91402e-05
-8.74209e-05
-5.21421e-05
-8.56075e-05
-5.49727e-05
-8.36555e-05
-6.08681e-05
-7.71844e-05
-7.10318e-05
-8.42274e-05
-9.1798e-05
-9.42667e-05
-9.51782e-05
-8.95977e-05
-4.92247e-07
-1.10687e-06
-2.16034e-06
-4.09566e-06
-7.22893e-06
-1.15303e-05
-1.66871e-05
-2.23462e-05
-2.77998e-05
-3.24628e-05
-3.8046e-05
-4.48691e-05
-5.38565e-05
-6.31582e-05
-7.37754e-05
)
;

boundaryField
{
    leftWall
    {
        type            fixedValue;
        value           uniform 0;
    }
    rightWall
    {
        type            fixedValue;
        value           nonuniform 0();
    }
    lowerWall
    {
        type            fixedValue;
        value           uniform 0;
    }
    atmosphere
    {
        type            calculated;
        value           nonuniform 0();
    }
    defaultFaces
    {
        type            empty;
        value           nonuniform 0();
    }
    procBoundary0to1
    {
        type            processor;
        value           nonuniform List<scalar> 
26
(
1.95111e-05
2.1424e-05
2.34932e-05
2.53274e-05
2.76312e-05
2.35876e-05
2.36173e-05
2.12606e-05
6.52906e-05
8.93453e-05
0.000132123
0.000159818
0.000164855
0.000141184
0.000111593
0.000107152
-5.60802e-05
0.000138561
0.000134745
0.000156645
0.000130732
-7.93082e-05
-4.67539e-05
-0.000104009
-8.09377e-05
-8.80949e-05
)
;
    }
    procBoundary0to2
    {
        type            processor;
        value           nonuniform List<scalar> 
24
(
-6.26027e-05
-3.91897e-05
-1.91565e-05
-7.44313e-06
4.30625e-06
1.0964e-05
1.40157e-05
-6.20093e-05
-6.50854e-05
-6.62853e-05
-6.76494e-05
-6.88932e-05
-6.99794e-05
-7.07937e-05
-7.11914e-05
-7.14649e-05
-7.25212e-05
-7.60075e-05
-7.88487e-05
-7.84336e-05
-7.63058e-05
-7.30382e-05
-8.42082e-05
-6.67517e-05
)
;
    }
}


// ************************************************************************* //
