/*--------------------------------*- C++ -*----------------------------------*\
| =========                 |                                                 |
| \\      /  F ield         | OpenFOAM: The Open Source CFD Toolbox           |
|  \\    /   O peration     | Version:  2.4.0                                 |
|   \\  /    A nd           | Web:      www.OpenFOAM.org                      |
|    \\/     M anipulation  |                                                 |
\*---------------------------------------------------------------------------*/
FoamFile
{
    version     2.0;
    format      ascii;
    class       surfaceScalarField;
    location    "0.25";
    object      phi.mercury;
}
// * * * * * * * * * * * * * * * * * * * * * * * * * * * * * * * * * * * * * //

dimensions      [0 3 -1 0 0 0 0];

internalField   nonuniform List<scalar> 
1101
(
3.40038e-06
-3.40038e-06
6.81903e-06
-3.41865e-06
1.0259e-05
-3.43996e-06
1.37894e-05
-3.53039e-06
1.72537e-05
-3.4643e-06
2.12306e-05
-3.97695e-06
2.4294e-05
-3.06332e-06
2.91268e-05
-4.83289e-06
3.30442e-05
-3.91733e-06
3.63173e-05
-3.27309e-06
4.07883e-05
-4.47099e-06
4.66447e-05
-5.85648e-06
5.2238e-05
-5.59329e-06
5.69993e-05
-4.76129e-06
6.01685e-05
-3.16913e-06
6.2501e-05
-2.33251e-06
6.38781e-05
-1.37717e-06
6.42151e-05
-3.36912e-07
6.09681e-05
3.24699e-06
5.27817e-05
8.18634e-06
3.96161e-05
1.31659e-05
2.0104e-05
3.39919e-06
-6.79957e-06
6.81644e-06
-6.8359e-06
1.02538e-05
-6.87737e-06
1.37863e-05
-7.06289e-06
1.72549e-05
-6.93287e-06
2.11315e-05
-7.85354e-06
2.44199e-05
-6.3517e-06
2.91079e-05
-9.52091e-06
3.29411e-05
-7.75052e-06
3.63079e-05
-6.63989e-06
4.10349e-05
-9.19799e-06
4.69028e-05
-1.17244e-05
5.24529e-05
-1.11433e-05
5.6669e-05
-8.97741e-06
5.96857e-05
-6.18591e-06
6.22802e-05
-4.92697e-06
6.48549e-05
-3.95192e-06
6.6605e-05
-2.08713e-06
6.406e-05
5.79176e-06
5.7307e-05
1.49393e-05
4.16006e-05
2.88726e-05
4.02797e-05
3.39266e-06
-1.01922e-05
6.80132e-06
-1.02446e-05
1.02332e-05
-1.03092e-05
1.37537e-05
-1.05834e-05
1.72231e-05
-1.04022e-05
2.10003e-05
-1.16307e-05
2.45331e-05
-9.88456e-06
2.88989e-05
-1.38867e-05
3.27145e-05
-1.15661e-05
3.64818e-05
-1.04072e-05
4.13935e-05
-1.41096e-05
4.69147e-05
-1.72456e-05
5.18636e-05
-1.60923e-05
5.61984e-05
-1.33122e-05
5.96025e-05
-9.59e-06
6.35237e-05
-8.84913e-06
6.73715e-05
-7.81502e-06
6.94286e-05
-4.26308e-06
6.80888e-05
7.04865e-06
6.20672e-05
2.09269e-05
4.43092e-05
4.66271e-05
6.10946e-05
3.38325e-06
-1.35755e-05
6.77891e-06
-1.36402e-05
1.02053e-05
-1.37356e-05
1.36985e-05
-1.40766e-05
1.71692e-05
-1.38729e-05
2.08756e-05
-1.53372e-05
2.45627e-05
-1.35717e-05
2.85829e-05
-1.7907e-05
3.24513e-05
-1.54345e-05
3.67868e-05
-1.47427e-05
4.17209e-05
-1.90438e-05
4.63396e-05
-2.18643e-05
5.08999e-05
-2.06539e-05
5.55745e-05
-1.79982e-05
6.05233e-05
-1.45897e-05
6.55072e-05
-1.40894e-05
7.13288e-05
-1.49518e-05
7.4551e-05
-1.2778e-05
7.28356e-05
-2.54002e-06
6.62593e-05
1.90008e-05
5.08063e-05
6.08882e-05
8.6549e-05
3.37013e-06
-1.69456e-05
6.74896e-06
-1.7019e-05
1.01637e-05
-1.71503e-05
1.36287e-05
-1.75416e-05
1.7077e-05
-1.73212e-05
2.07502e-05
-1.90104e-05
2.45082e-05
-1.73296e-05
2.82083e-05
-2.16071e-05
3.21616e-05
-1.93877e-05
3.7102e-05
-1.96833e-05
4.17476e-05
-2.36945e-05
4.54023e-05
-2.55651e-05
5.03124e-05
-2.57964e-05
5.56409e-05
-2.42301e-05
6.20145e-05
-2.35492e-05
6.81568e-05
-2.69825e-05
7.13405e-05
-3.33724e-05
7.27706e-05
-4.52307e-05
7.20453e-05
-4.02628e-05
6.12175e-05
-7.23375e-06
4.83001e-05
6.10837e-05
0.000106035
3.35303e-06
-2.02986e-05
6.71148e-06
-2.03775e-05
1.01078e-05
-2.05467e-05
1.35361e-05
-2.09699e-05
1.69505e-05
-2.07356e-05
2.06216e-05
-2.26815e-05
2.4303e-05
-2.10111e-05
2.80271e-05
-2.5335e-05
3.20478e-05
-2.34313e-05
3.71498e-05
-2.4875e-05
4.15219e-05
-2.84638e-05
4.53285e-05
-3.09347e-05
5.07309e-05
-3.58239e-05
5.62287e-05
-3.98974e-05
6.10173e-05
-4.66154e-05
6.25597e-05
-6.31561e-05
6.2697e-05
-7.49422e-05
6.05377e-05
-8.14041e-05
6.50413e-05
-5.61804e-05
6.03445e-05
-3.24628e-05
4.24107e-05
4.94323e-05
0.000118236
3.33852e-06
-2.36372e-05
6.682e-06
-2.3721e-05
1.00585e-05
-2.39232e-05
1.34461e-05
-2.43574e-05
1.68558e-05
-2.41473e-05
2.04819e-05
-2.63503e-05
2.41554e-05
-2.4807e-05
2.77219e-05
-2.9303e-05
3.22449e-05
-2.9007e-05
3.69355e-05
-3.18011e-05
4.10135e-05
-3.74077e-05
4.55254e-05
-4.62902e-05
4.99073e-05
-6.17702e-05
5.19271e-05
-7.60784e-05
4.91826e-05
-8.97594e-05
4.5008e-05
-0.000102557
4.34979e-05
-9.49546e-05
4.6408e-05
-6.21515e-05
5.33832e-05
-2.72401e-05
6.39273e-05
-1.4694e-06
4.07906e-05
3.97097e-05
0.000120633
3.34718e-06
-2.79914e-05
6.70306e-06
-2.81613e-05
1.00802e-05
-2.85483e-05
1.34186e-05
-2.92134e-05
1.69389e-05
-2.93042e-05
2.03849e-05
-3.24777e-05
2.4214e-05
-3.22029e-05
2.72747e-05
-3.7504e-05
3.21169e-05
-4.10892e-05
3.58349e-05
-4.58293e-05
3.85265e-05
-5.56316e-05
4.22792e-05
-7.40254e-05
4.24437e-05
-9.14686e-05
3.89361e-05
-0.000102295
3.86651e-05
-0.000112775
4.05479e-05
-0.000107045
4.52618e-05
-8.11661e-05
4.54342e-05
-3.69325e-05
4.83053e-05
6.19426e-06
4.70614e-05
3.90063e-05
4.19267e-05
3.1706e-05
0.00011898
7.22843e-06
-5.12208e-05
1.4478e-05
-5.20937e-05
2.17063e-05
-5.37947e-05
2.87427e-05
-5.62775e-05
3.61798e-05
-5.94811e-05
4.25951e-05
-6.55329e-05
5.01242e-05
-7.13785e-05
5.62483e-05
-8.12034e-05
6.17907e-05
-8.69459e-05
6.63925e-05
-9.28974e-05
6.73578e-05
-0.000103661
7.10427e-05
-0.000110217
7.38075e-05
-8.04749e-05
7.69743e-05
-7.57972e-05
8.46146e-05
-7.59164e-05
0.00010242
-6.16951e-05
0.000118759
-3.75561e-05
0.000111543
-2.23881e-05
0.00013367
-4.09585e-07
0.00010534
5.32197e-05
0.000103493
5.60318e-05
0.000113119
6.03035e-06
-9.31706e-05
1.20334e-05
-9.43332e-05
1.75001e-05
-9.60388e-05
2.26007e-05
-9.88623e-05
2.74142e-05
-0.000102461
3.04692e-05
-0.000108257
3.36055e-05
-0.000112283
3.85026e-05
-0.000106229
4.33386e-05
-8.62615e-05
5.04682e-05
-7.90175e-05
5.67611e-05
-7.70907e-05
6.27175e-05
-7.06805e-05
8.75609e-05
-5.38895e-05
0.000102434
-4.5518e-05
0.000115659
-4.3649e-05
0.000128529
-4.25545e-05
0.000142119
-3.63184e-05
0.000152238
-2.4149e-05
0.000147033
1.45784e-06
0.000100968
5.18939e-05
0.00011868
8.98894e-05
0.000122563
3.82871e-06
-7.75017e-05
7.91202e-06
-7.74835e-05
1.20848e-05
-7.67179e-05
1.69508e-05
-7.61746e-05
2.2283e-05
-7.51885e-05
2.75904e-05
-7.48403e-05
3.37691e-05
-7.29133e-05
4.45081e-05
-6.58518e-05
5.90133e-05
-5.26107e-05
6.90807e-05
-4.70868e-05
8.01792e-05
-4.61311e-05
9.16716e-05
-4.71595e-05
0.000102787
-4.82919e-05
0.00011628
-5.09875e-05
0.000129806
-5.36274e-05
0.000140902
-5.25521e-05
0.000152345
-4.60468e-05
0.00016036
-3.17227e-05
0.000131196
7.51088e-07
0.00010114
4.86897e-05
0.000123598
9.49591e-05
0.000118284
7.29694e-06
-3.36674e-05
1.43293e-05
-3.37173e-05
2.14906e-05
-3.35225e-05
2.84083e-05
-3.39907e-05
3.53487e-05
-3.46355e-05
4.23756e-05
-3.62296e-05
4.97863e-05
-3.85851e-05
5.78035e-05
-4.40537e-05
6.56039e-05
-4.70816e-05
7.35493e-05
-5.50184e-05
8.30743e-05
-6.25457e-05
9.20972e-05
-6.47896e-05
0.000103953
-6.99028e-05
0.000117469
-7.58973e-05
0.000130522
-7.72079e-05
0.000142545
-7.30894e-05
0.000152385
-5.98676e-05
0.000157201
-3.80442e-05
0.000121368
3.41444e-06
9.06064e-05
4.32434e-05
0.000115907
9.55647e-05
0.000106589
6.88712e-06
-5.84089e-05
1.3683e-05
-5.88695e-05
2.07022e-05
-5.93949e-05
2.73859e-05
-6.01471e-05
3.42981e-05
-6.1281e-05
4.09059e-05
-6.26274e-05
4.754e-05
-6.40909e-05
5.36448e-05
-6.73843e-05
6.04646e-05
-6.76786e-05
6.86941e-05
-7.49311e-05
7.63415e-05
-7.62816e-05
8.78357e-05
-8.07063e-05
0.000102612
-8.77536e-05
0.000117253
-9.22764e-05
0.000129748
-9.04021e-05
0.000137613
-8.0749e-05
0.000139031
-6.17649e-05
0.000131958
-3.32301e-05
0.000117733
1.26448e-05
6.71802e-05
5.02308e-05
0.000106699
8.08345e-05
9.22155e-05
6.19496e-06
-6.48718e-05
1.23923e-05
-6.53079e-05
1.86697e-05
-6.58611e-05
2.48774e-05
-6.65568e-05
3.10054e-05
-6.76182e-05
3.71384e-05
-6.89564e-05
4.36327e-05
-7.07535e-05
4.98415e-05
-7.37199e-05
5.7954e-05
-7.58935e-05
6.59791e-05
-8.30166e-05
7.43928e-05
-8.47263e-05
8.84409e-05
-9.47685e-05
0.00010322
-0.000102438
0.000113697
-0.000102425
0.000118872
-9.54912e-05
0.000117475
-8.06244e-05
0.000104692
-5.19096e-05
8.54509e-05
-1.66805e-05
7.41489e-05
2.40506e-05
6.22141e-05
5.14031e-05
7.541e-05
7.10054e-05
7.26492e-05
6.10294e-06
-7.09745e-05
1.22696e-05
-7.14743e-05
1.83637e-05
-7.19553e-05
2.4509e-05
-7.27023e-05
3.06083e-05
-7.37178e-05
3.67277e-05
-7.50762e-05
4.29748e-05
-7.70008e-05
4.86424e-05
-7.93878e-05
5.50975e-05
-8.23489e-05
6.10346e-05
-8.8954e-05
6.91233e-05
-9.28064e-05
8.16001e-05
-0.000107116
8.98919e-05
-0.000110484
9.15836e-05
-0.000104802
8.57461e-05
-9.20762e-05
6.82399e-05
-6.63499e-05
4.73751e-05
-3.23666e-05
3.55379e-05
-2.74161e-06
3.76819e-05
2.5198e-05
4.93623e-05
4.28493e-05
5.12001e-05
7.57478e-05
4.91765e-05
5.66573e-06
-7.66402e-05
1.13743e-05
-7.7183e-05
1.71097e-05
-7.76909e-05
2.28262e-05
-7.84191e-05
2.8516e-05
-7.94079e-05
3.4001e-05
-8.05614e-05
3.88251e-05
-8.18255e-05
4.29846e-05
-8.35497e-05
4.73085e-05
-8.66829e-05
5.08521e-05
-9.25303e-05
5.86498e-05
-0.000100577
6.59227e-05
-0.00011446
6.38981e-05
-0.000110409
5.41385e-05
-9.81367e-05
3.33416e-05
-7.37806e-05
1.48412e-05
-4.71647e-05
7.60161e-06
-2.21207e-05
1.28191e-05
-5.39823e-06
2.59844e-05
1.32519e-05
4.36673e-05
2.57107e-05
7.45192e-05
4.57437e-05
4.66736e-05
5.65207e-06
-8.23516e-05
1.12404e-05
-8.28398e-05
1.6835e-05
-8.33736e-05
2.24311e-05
-8.41431e-05
2.80381e-05
-8.52228e-05
3.35165e-05
-8.64071e-05
3.82468e-05
-8.72435e-05
4.14075e-05
-8.79843e-05
4.23925e-05
-8.97416e-05
4.09802e-05
-9.35834e-05
3.97777e-05
-0.000101805
3.087e-05
-0.00011094
1.76801e-05
-0.000100818
6.034e-07
-8.19956e-05
-9.82681e-06
-6.09326e-05
-9.77848e-06
-4.47387e-05
-9.3142e-07
-2.97112e-05
1.33567e-05
-1.9535e-05
3.15538e-05
-4.90782e-06
5.27449e-05
4.52226e-06
8.08332e-05
1.76544e-05
0.000108245
1.88678e-05
2.5715e-05
5.41855e-06
-9.2437e-05
1.08416e-05
-9.32392e-05
1.61755e-05
-9.42661e-05
2.15978e-05
-9.60917e-05
2.71827e-05
-9.8777e-05
3.31429e-05
-0.000103296
3.8276e-05
-0.000108807
4.01738e-05
-0.000114725
3.57584e-05
-0.000119939
2.05068e-05
-0.000121758
-8.80154e-06
-0.000122341
-2.38372e-05
-0.000123587
-2.66045e-05
-0.000103549
-2.7608e-05
-8.05248e-05
-2.19645e-05
-6.61724e-05
-1.05101e-05
-5.62187e-05
6.24595e-06
-4.67263e-05
2.31884e-05
-3.66404e-05
4.33609e-05
-2.52307e-05
6.3209e-05
-1.54879e-05
8.4722e-05
-4.03628e-06
0.000104011
-7.42734e-07
-4.15937e-06
5.31303e-06
-0.000137688
1.04165e-05
-0.000139939
1.51654e-05
-0.000143822
1.93914e-05
-0.000150508
2.33637e-05
-0.000161938
2.76128e-05
-0.000172005
3.12396e-05
-0.00018036
3.28884e-05
-0.000191679
2.48064e-05
-0.000198671
-1.97647e-05
-0.000192563
-6.7861e-05
-0.00018475
-5.94459e-05
-0.000179789
-4.33007e-05
-0.000158037
-3.33056e-05
-0.000120096
-1.78787e-05
-0.000106814
-6.1606e-07
-9.13224e-05
1.6789e-05
-7.79412e-05
3.34421e-05
-6.50881e-05
5.44959e-05
-5.91406e-05
7.51368e-05
-5.25995e-05
9.69136e-05
-4.78044e-05
0.000121526
-5.4446e-05
-7.25955e-05
3.826e-06
-0.000240914
7.35664e-06
-0.000244938
1.04917e-05
-0.000251233
1.28812e-05
-0.000253812
1.42196e-05
-0.000228931
1.32469e-05
-0.000162249
1.02635e-05
-0.000127612
7.12182e-07
-0.000110766
-3.81602e-05
-7.35191e-05
-0.000101112
-4.28771e-05
-0.000117346
-6.1676e-05
-8.26682e-05
-0.000162249
-3.77165e-05
-0.000252177
-1.31517e-05
-0.000221605
3.14089e-06
-0.000192512
1.45124e-05
-0.000164931
2.73578e-05
-0.000147203
4.11992e-05
-0.00013428
5.58489e-05
-0.000129716
7.23523e-05
-0.000128715
7.99834e-05
-0.000127772
8.26775e-05
-0.000126747
-0.000105849
-1.73177e-05
-8.71861e-05
-3.64925e-05
-8.46239e-05
-5.83703e-05
-8.11133e-05
-8.1147e-05
-7.9051e-05
-0.000100796
-7.74572e-05
-0.000114209
-7.55721e-05
-0.000112838
-8.84538e-05
-0.000100507
-9.03327e-05
-6.8105e-05
-7.34468e-05
4.20435e-06
-4.39442e-05
9.23407e-05
-8.5351e-05
9.52432e-05
-0.000134328
7.63351e-05
-0.000140326
5.50206e-05
-0.000107338
3.56224e-05
-9.05695e-05
2.56576e-05
-9.62438e-05
2.50262e-05
-9.90893e-05
2.7218e-05
-9.24737e-05
2.70493e-05
-8.72289e-05
2.3823e-05
-8.18055e-05
-1.43603e-05
-2.0664e-05
-7.90972e-05
1.59695e-05
-5.92103e-05
-1.08828e-05
-6.79534e-05
-1.89427e-05
-7.02173e-05
-2.32323e-05
-7.28478e-05
-2.41096e-05
-7.63512e-05
-2.16698e-05
-7.94818e-05
-1.47494e-05
-8.24695e-05
-1.47334e-05
-8.84664e-05
-1.69525e-05
-8.81182e-05
-1.45067e-05
-7.58795e-05
5.70669e-06
-6.38515e-05
1.30715e-05
-9.27065e-05
1.61171e-06
-0.000122876
-1.72488e-05
-0.000121285
-1.95342e-05
-0.000100678
-1.59167e-05
-7.90043e-05
-2.28212e-05
-6.18228e-05
-4.06746e-05
-5.0008e-05
-5.79051e-05
-4.28106e-05
-6.51711e-05
-5.00194e-05
-5.85249e-05
-6.22311e-05
-1.48907e-05
-3.40629e-05
3.41676e-06
5.28523e-07
-9.09525e-06
-4.37519e-06
-6.35777e-05
-7.5265e-06
-6.70648e-05
-1.06313e-05
-6.97413e-05
-1.39382e-05
-7.30422e-05
-1.67379e-05
-7.66797e-05
-1.85922e-05
-8.06123e-05
-2.2328e-05
-8.47271e-05
-2.50089e-05
-8.54339e-05
-1.96492e-05
-8.12351e-05
-5.17867e-06
-7.8318e-05
-4.54118e-06
-9.33402e-05
-2.28974e-05
-0.000104516
-4.00093e-05
-0.00010417
-4.96012e-05
-9.10831e-05
-4.64894e-05
-8.21128e-05
-3.1179e-05
-7.71303e-05
-1.04793e-05
-7.07055e-05
9.05213e-06
-6.23383e-05
1.21915e-05
-5.31574e-05
-1.2145e-05
-3.78915e-05
-5.23749e-05
6.169e-06
-7.87999e-05
2.69565e-05
1.60834e-05
-1.55856e-06
-6.20185e-05
-3.1354e-06
-6.5487e-05
-4.91389e-06
-6.79614e-05
-6.81584e-06
-7.11387e-05
-8.86987e-06
-7.46239e-05
-1.14089e-05
-7.80712e-05
-1.52049e-05
-8.09286e-05
-1.83407e-05
-8.22953e-05
-1.7504e-05
-8.20688e-05
-1.34609e-05
-8.23581e-05
-1.86528e-05
-8.81454e-05
-3.08782e-05
-9.22881e-05
-4.03176e-05
-9.47284e-05
-4.27918e-05
-8.86065e-05
-3.8417e-05
-8.64856e-05
-3.24629e-05
-8.30811e-05
-3.03949e-05
-7.27708e-05
-4.03395e-05
-5.23929e-05
-6.67568e-05
-2.67367e-05
-9.4723e-05
-9.92476e-06
-9.19311e-05
3.37926e-06
-8.14982e-05
1.65259e-05
1.54946e-05
4.81432e-07
-6.24994e-05
6.92534e-07
-6.56974e-05
6.77116e-08
-6.73357e-05
-1.4888e-06
-6.95811e-05
-4.08934e-06
-7.20223e-05
-7.88314e-06
-7.42762e-05
-1.28647e-05
-7.59456e-05
-1.83132e-05
-7.68451e-05
-2.34672e-05
-7.69129e-05
-2.86447e-05
-7.71787e-05
-3.52028e-05
-8.15854e-05
-4.18219e-05
-8.5667e-05
-4.91316e-05
-8.74169e-05
-5.21318e-05
-8.56045e-05
-5.49596e-05
-8.36535e-05
-6.08535e-05
-7.71857e-05
-7.10143e-05
-8.42071e-05
-9.17769e-05
-9.42435e-05
-9.51538e-05
-8.95734e-05
-4.92423e-07
-1.1072e-06
-2.16075e-06
-4.09602e-06
-7.22908e-06
-1.15301e-05
-1.66863e-05
-2.23445e-05
-2.77971e-05
-3.2459e-05
-3.8041e-05
-4.48629e-05
-5.3849e-05
-6.31487e-05
-7.37656e-05
)
;

boundaryField
{
    leftWall
    {
        type            fixedValue;
        value           uniform 0;
    }
    rightWall
    {
        type            fixedValue;
        value           nonuniform 0();
    }
    lowerWall
    {
        type            fixedValue;
        value           uniform 0;
    }
    atmosphere
    {
        type            calculated;
        value           nonuniform 0();
    }
    defaultFaces
    {
        type            empty;
        value           nonuniform 0();
    }
    procBoundary0to1
    {
        type            processor;
        value           nonuniform List<scalar> 
26
(
1.95118e-05
2.1425e-05
2.34947e-05
2.53296e-05
2.76858e-05
2.38596e-05
2.43717e-05
2.20528e-05
6.37432e-05
8.59329e-05
0.000118479
0.000135395
0.00013031
0.000118965
9.15215e-05
7.20015e-05
-4.08931e-05
0.000138646
0.000133037
0.000134284
9.32977e-05
-7.16646e-05
-4.67092e-05
-0.000103972
-8.09063e-05
-8.80672e-05
)
;
    }
    procBoundary0to2
    {
        type            processor;
        value           nonuniform List<scalar> 
24
(
-6.26059e-05
-3.91949e-05
-1.91653e-05
-7.45407e-06
4.29192e-06
1.09457e-05
1.39947e-05
-6.20061e-05
-6.5082e-05
-6.62817e-05
-6.76454e-05
-6.88887e-05
-6.99745e-05
-7.07886e-05
-7.11859e-05
-7.14593e-05
-7.25157e-05
-7.60023e-05
-7.88439e-05
-7.84292e-05
-7.63021e-05
-7.30367e-05
-8.41954e-05
-6.67497e-05
)
;
    }
}


// ************************************************************************* //
