/*--------------------------------*- C++ -*----------------------------------*\
| =========                 |                                                 |
| \\      /  F ield         | OpenFOAM: The Open Source CFD Toolbox           |
|  \\    /   O peration     | Version:  2.4.0                                 |
|   \\  /    A nd           | Web:      www.OpenFOAM.org                      |
|    \\/     M anipulation  |                                                 |
\*---------------------------------------------------------------------------*/
FoamFile
{
    version     2.0;
    format      ascii;
    class       volScalarField;
    location    "0.25";
    object      rho;
}
// * * * * * * * * * * * * * * * * * * * * * * * * * * * * * * * * * * * * * //

dimensions      [1 -3 0 0 0 0 0];

internalField   nonuniform List<scalar> 
575
(
13529
13529
13529
13529
13529
13529
13529
13529
13529
13529
13529
13529
13529
13529
13529
13529
13529
13529
13529
13529
13528.8
13527.7
13529
13529
13529
13529
13529
13529
13529
13529
13529
13529
13529
13529
13529
13529
13529
13529
13529
13529
13529
13528.9
13528.8
13527.6
13529
13529
13529
13529
13529
13529
13529
13529
13529
13529
13529
13529
13529
13529
13529
13529
13528.8
13527.8
13527.7
13528
13528.4
13527.4
13529
13529
13529
13529
13529
13529
13529
13529
13529
13529
13529
13529
13529
13528.9
13528.6
13526.2
13512.5
13423.6
13443.9
13488.5
13519.7
13526.4
13529
13529
13529
13529
13529
13529
13529
13529
13529
13529
13529
13528.7
13526.4
13516.8
13479.8
13299.2
12662.2
10773.1
8869.09
9999.68
12693.8
13484.1
13529
13529
13529
13529
13529
13529
13529
13529
13528.9
13528.4
13522.5
13486.9
13317.7
12858.8
11804.9
9451.96
5809.94
2203.24
1440.6
2210.96
8598.72
13125.4
13529
13529
13529
13529
13529
13529
13528.6
13524
13507.4
13443
13186.5
12371.9
10459.1
7584.98
4390.04
1814.9
1091.45
984.312
961.679
936.156
3202.11
11782.1
13529
13529
13529
13529
13525.8
13490.6
13414.8
13172.8
12715.4
11868.1
10176.7
7226.56
3948.58
1826.05
1097.99
1022.2
997.349
986.865
963.393
909.33
1266.4
9742.17
12196.6
12103.1
11908.6
11599
11193.7
10491.1
9671.21
8396.4
6871.91
5243.94
3525.93
2023.03
1288.5
1053.1
1008.83
1001.84
997.726
990.709
972.763
918.884
884.169
5935.84
4986.46
4786.95
4424.02
3925.61
3383.51
2727.78
2121.48
1592.01
1255.04
1086.71
1022.38
1004.08
1000.65
1000.38
1000.1
999.664
998.254
993.28
975.693
926.288
826.838
2896.24
1102.3
1088.39
1067.53
1044.75
1027.39
1014
1005.95
1002.19
1000.86
1000.36
1000.14
1000.07
1000.03
999.995
999.865
999.216
996.4
987.628
965.564
913.607
795.8
1335.26
1000.35
1000.31
1000.26
1000.2
1000.14
1000.09
1000.06
1000.04
1000.02
1000.02
1000.01
1000
999.99
999.92
999.514
997.096
987.589
961.976
917.87
850.177
733.146
757.18
1000
1000
1000
1000
1000
1000
1000
1000
1000
1000
1000
999.998
999.973
999.769
997.848
987.349
954.073
884.473
791.389
705.392
624.747
569.598
1000
1000
1000
1000
1000
1000
1000
1000
1000
1000
1000
999.988
999.727
997.009
981.658
932.743
838.732
712.782
610.466
559.025
533.694
511.43
1000
1000
1000
1000
1000
1000
1000
1000
1000
1000
999.983
998.858
989.763
957.173
882.571
761.075
632.345
543.95
515.258
505.805
503.217
500.663
1000
1000
1000
1000
1000
1000
1000
1000
999.999
999.992
998.874
973.215
897.425
787.217
670.149
569.429
516.885
502.681
500.562
500.107
500.05
500.006
999.997
999.996
999.994
999.99
999.981
999.958
999.898
999.732
999.362
998.627
980.209
842.064
680.746
581.291
529.691
506.568
500.836
500.056
500.003
500
500
500
500
997.585
997.255
996.556
995.162
992.509
987.458
977.945
960.647
936.538
918.818
845.97
617.086
532.693
510.434
502.354
500.279
500.016
499.997
499.998
499.998
499.999
499.999
499.99
860.237
850.466
831.38
798.705
748.844
676.536
577.068
453.923
341.634
294.55
266.795
295.382
402.462
461.245
478.194
489.585
494.22
496.427
496.79
496.626
496.474
494.256
487.432
183.185
169.161
144.606
110.846
73.4299
39.5592
16.6379
5.37618
2.17691
2.66134
3.06679
11.3488
53.5236
140.83
201.266
274.18
319.612
347.32
346.931
328.796
304.052
252.995
128.402
1.1169
1.08683
1.04741
1.01849
1.00558
1.00169
1.00083
1.00419
1.01579
1.02016
1.0019
1.00151
1.01481
1.1829
1.94136
5.50682
10.7428
14.3944
12.7429
6.61869
1.90562
1.03801
1.00798
1.00028
1.00017
1.00012
1.00013
1.00017
1.00019
1.00019
1.00033
1.00011
1.00002
1.00001
1.00001
1.00002
1.00006
1.00014
1.00035
1.00051
1.00052
1.00039
1.00025
1.0002
1.00029
1.00014
1.00005
1.00001
1
1.00001
1.00001
1.00002
1.00002
1.00001
1.00001
1
1
1
1.00001
1.00004
1.00006
1.00008
1.00011
1.00015
1.00021
1.00017
1.00009
1.00008
1.00005
1.00001
1
1
0.999999
1
1
1
1
0.999999
1
1
1
1.00001
1.00005
1.00014
1.00023
1.00027
1.00026
1.00023
1.00012
1.00005
1.00004
1.00003
0.999999
0.999999
0.999999
0.999999
0.999999
0.999999
0.999999
0.999999
0.999999
1
1
1
1.00001
1.00005
1.00025
1.00039
1.0004
1.0004
1.00015
1.00006
1.00004
1.00003
1.00002
0.999999
0.999999
0.999999
0.999999
0.999999
0.999999
0.999999
0.999999
1
1
1
1
1
1.00006
1.00027
1.0004
)
;

boundaryField
{
    leftWall
    {
        type            calculated;
        value           nonuniform List<scalar> 
26
(
13529
13529
13529
13529
13529
13529
13529
13529
12196.6
4986.46
1102.3
1000.35
1000
1000
1000
1000
999.997
997.585
860.237
183.185
1.1169
1.00028
1.00005
1.00001
0.999999
0.999999
)
;
    }
    rightWall
    {
        type            calculated;
        value           nonuniform 0();
    }
    lowerWall
    {
        type            calculated;
        value           nonuniform List<scalar> 
22
(
13529
13529
13529
13529
13529
13529
13529
13529
13529
13529
13529
13529
13529
13529
13529
13529
13529
13529
13529
13529
13528.8
13527.7
)
;
    }
    atmosphere
    {
        type            calculated;
        value           nonuniform 0();
    }
    defaultFaces
    {
        type            empty;
    }
    procBoundary0to1
    {
        type            processor;
        value           nonuniform List<scalar> 
26
(
13526
13525.4
13524.7
13524.2
13523.4
13519.4
13492.2
13411.3
12144.9
8947.94
5030.32
2189.22
950.236
575.171
505.061
500.056
500.056
500
499.956
464.547
27.4115
1.07
1.00027
1.00007
1.00003
1.00001
)
;
    }
    procBoundary0to2
    {
        type            processor;
        value           nonuniform List<scalar> 
24
(
1.0004
1.00024
1.00005
1.00004
1.00004
1.00002
1.00001
0.999999
0.999999
0.999999
0.999999
0.999999
0.999999
0.999999
1
1
1
1
1
1
1.00003
1.00012
1.0004
1.00035
)
;
    }
}


// ************************************************************************* //
