/*--------------------------------*- C++ -*----------------------------------*\
| =========                 |                                                 |
| \\      /  F ield         | OpenFOAM: The Open Source CFD Toolbox           |
|  \\    /   O peration     | Version:  2.4.0                                 |
|   \\  /    A nd           | Web:      www.OpenFOAM.org                      |
|    \\/     M anipulation  |                                                 |
\*---------------------------------------------------------------------------*/
FoamFile
{
    version     2.0;
    format      ascii;
    class       volVectorField;
    location    "0.25";
    object      U;
}
// * * * * * * * * * * * * * * * * * * * * * * * * * * * * * * * * * * * * * //

dimensions      [0 1 -1 0 0 0 0];

internalField   nonuniform List<vector> 
575
(
(0.0194666 -0.00918164 0)
(0.0582304 -0.00922756 0)
(0.0981546 -0.00928869 0)
(0.135724 -0.00950172 0)
(0.180789 -0.00946649 0)
(0.213883 -0.0104327 0)
(0.267227 -0.00875391 0)
(0.296794 -0.0128356 0)
(0.358519 -0.010176 0)
(0.401307 -0.00937283 0)
(0.432486 -0.0124099 0)
(0.490176 -0.0156248 0)
(0.574046 -0.0142116 0)
(0.621078 -0.0141461 0)
(0.670763 -0.00676747 0)
(0.691926 -0.00677845 0)
(0.715245 -0.00463066 0)
(0.734465 0.00122183 0)
(0.718598 0.0102702 0)
(0.667057 0.026612 0)
(0.561459 0.0372137 0)
(0.375682 0.0912896 0)
(0.0194564 -0.0275525 0)
(0.0582155 -0.027702 0)
(0.0981053 -0.0278672 0)
(0.135647 -0.02864 0)
(0.180864 -0.0279346 0)
(0.213415 -0.032585 0)
(0.266682 -0.024108 0)
(0.299064 -0.040112 0)
(0.357068 -0.0316811 0)
(0.400065 -0.0263724 0)
(0.433035 -0.0359183 0)
(0.495842 -0.047603 0)
(0.575129 -0.0464531 0)
(0.624163 -0.0382068 0)
(0.661595 -0.0268174 0)
(0.688298 -0.0190247 0)
(0.71692 -0.00938854 0)
(0.75205 -0.00392417 0)
(0.749078 0.0234804 0)
(0.706948 0.0579816 0)
(0.601725 0.0974132 0)
(0.39287 0.142572 0)
(0.0194152 -0.0458927 0)
(0.0581116 -0.0461338 0)
(0.0978471 -0.0464129 0)
(0.135437 -0.0476529 0)
(0.180417 -0.046893 0)
(0.212547 -0.0523905 0)
(0.266336 -0.0441266 0)
(0.300173 -0.0634132 0)
(0.353464 -0.0516156 0)
(0.398463 -0.0456953 0)
(0.437116 -0.0640553 0)
(0.50153 -0.0797905 0)
(0.571026 -0.0746473 0)
(0.614575 -0.0580338 0)
(0.660819 -0.0409721 0)
(0.688257 -0.0340714 0)
(0.7465 -0.0333318 0)
(0.777557 -0.016066 0)
(0.788157 0.0424571 0)
(0.752754 0.112544 0)
(0.654979 0.225036 0)
(0.398665 0.271655 0)
(0.019356 -0.0642121 0)
(0.0579618 -0.064531 0)
(0.09745 -0.0649511 0)
(0.135257 -0.0666486 0)
(0.179345 -0.0655046 0)
(0.212126 -0.0731374 0)
(0.265174 -0.0628262 0)
(0.300172 -0.0863937 0)
(0.349495 -0.0735912 0)
(0.396618 -0.0668518 0)
(0.443688 -0.0894427 0)
(0.505785 -0.10817 0)
(0.555788 -0.0994629 0)
(0.60389 -0.0837933 0)
(0.657987 -0.0620165 0)
(0.716601 -0.0622441 0)
(0.783324 -0.0508768 0)
(0.8269 -0.0304426 0)
(0.850791 0.0347618 0)
(0.799933 0.117852 0)
(0.71726 0.292419 0)
(0.487474 0.404722 0)
(0.019278 -0.0825523 0)
(0.0577429 -0.0829314 0)
(0.0969389 -0.0835473 0)
(0.134885 -0.0855504 0)
(0.17812 -0.0845186 0)
(0.211038 -0.0928914 0)
(0.264343 -0.0839533 0)
(0.297969 -0.107616 0)
(0.346678 -0.0936511 0)
(0.393159 -0.0929306 0)
(0.451468 -0.117628 0)
(0.503489 -0.127072 0)
(0.538746 -0.119393 0)
(0.602669 -0.108891 0)
(0.66605 -0.0948231 0)
(0.757016 -0.0949521 0)
(0.822926 -0.114152 0)
(0.84216 -0.0794916 0)
(0.834287 0.032568 0)
(0.735339 0.135965 0)
(0.681436 0.347214 0)
(0.46769 0.511097 0)
(0.0191818 -0.100533 0)
(0.0574437 -0.100937 0)
(0.0963194 -0.10173 0)
(0.134315 -0.103939 0)
(0.176496 -0.102723 0)
(0.209897 -0.11256 0)
(0.262923 -0.103726 0)
(0.293659 -0.126018 0)
(0.348578 -0.11653 0)
(0.388675 -0.118676 0)
(0.455447 -0.139449 0)
(0.497833 -0.144799 0)
(0.538546 -0.155338 0)
(0.616353 -0.15439 0)
(0.691925 -0.153146 0)
(0.753008 -0.149393 0)
(0.748262 -0.0853995 0)
(0.680639 0.0775832 0)
(0.659859 0.255782 0)
(0.492669 0.468764 0)
(0.531559 0.448408 0)
(0.44129 0.595303 0)
(0.0191061 -0.116783 0)
(0.0571702 -0.117076 0)
(0.0958385 -0.117789 0)
(0.133705 -0.11964 0)
(0.174983 -0.117955 0)
(0.209465 -0.128025 0)
(0.260375 -0.118635 0)
(0.292417 -0.142121 0)
(0.344706 -0.132388 0)
(0.395289 -0.149618 0)
(0.450835 -0.168936 0)
(0.497529 -0.189715 0)
(0.569131 -0.205296 0)
(0.631965 -0.17835 0)
(0.628995 -0.111095 0)
(0.548871 0.0197608 0)
(0.482098 0.000793009 0)
(0.525999 -0.0908947 0)
(0.573034 -0.0560317 0)
(0.633303 0.172617 0)
(0.337136 0.550301 0)
(0.38136 0.709266 0)
(0.0191926 -0.135704 0)
(0.0573494 -0.136079 0)
(0.0962453 -0.137089 0)
(0.133903 -0.139182 0)
(0.174962 -0.137178 0)
(0.211325 -0.150929 0)
(0.258321 -0.142747 0)
(0.294492 -0.168103 0)
(0.337953 -0.172306 0)
(0.404963 -0.18172 0)
(0.438097 -0.199129 0)
(0.506343 -0.197278 0)
(0.556515 -0.178405 0)
(0.524718 -0.078149 0)
(0.441141 -0.051898 0)
(0.451609 -0.129782 0)
(0.532314 -0.138864 0)
(0.666707 -0.0415446 0)
(0.614955 0.113305 0)
(0.706601 0.325419 0)
(0.272935 0.650518 0)
(0.347384 0.728697 0)
(0.0197541 -0.190751 0)
(0.0588883 -0.192707 0)
(0.0991048 -0.196482 0)
(0.13737 -0.201648 0)
(0.177759 -0.204175 0)
(0.218173 -0.21844 0)
(0.251159 -0.215158 0)
(0.306427 -0.217964 0)
(0.32478 -0.217842 0)
(0.373584 -0.190437 0)
(0.387585 -0.15377 0)
(0.399531 -0.116356 0)
(0.39557 -0.106767 0)
(0.404292 -0.150901 0)
(0.469729 -0.19297 0)
(0.580608 -0.152285 0)
(0.664267 -0.125585 0)
(0.696623 -0.0908654 0)
(0.679653 0.0128437 0)
(0.831107 0.292168 0)
(0.514863 0.748248 0)
(0.496638 0.765063 0)
(0.017231 -0.192093 0)
(0.0511163 -0.189636 0)
(0.0850954 -0.184351 0)
(0.114639 -0.174582 0)
(0.145791 -0.165847 0)
(0.178173 -0.149173 0)
(0.195481 -0.123356 0)
(0.234611 -0.103191 0)
(0.251533 -0.0909359 0)
(0.279607 -0.113635 0)
(0.325775 -0.179944 0)
(0.390208 -0.242832 0)
(0.453246 -0.272653 0)
(0.52625 -0.264148 0)
(0.619009 -0.245586 0)
(0.702428 -0.238514 0)
(0.759997 -0.201835 0)
(0.81757 -0.118339 0)
(0.833167 0.0344258 0)
(0.903856 0.294191 0)
(0.87249 0.961985 0)
(0.746577 0.958191 0)
(0.0112436 -0.144677 0)
(0.0335471 -0.149195 0)
(0.0593719 -0.153678 0)
(0.086399 -0.167775 0)
(0.118931 -0.184896 0)
(0.154052 -0.213724 0)
(0.193677 -0.250232 0)
(0.241854 -0.301458 0)
(0.302962 -0.311594 0)
(0.360599 -0.333689 0)
(0.43091 -0.339274 0)
(0.481339 -0.323528 0)
(0.53137 -0.304435 0)
(0.59542 -0.299732 0)
(0.671484 -0.312756 0)
(0.740514 -0.303568 0)
(0.80205 -0.249423 0)
(0.861188 -0.163851 0)
(0.89011 0.00674362 0)
(0.921619 0.270206 0)
(0.938382 0.929598 0)
(0.980449 1.1964 0)
(0.0185064 -0.305535 0)
(0.0547624 -0.307821 0)
(0.0931355 -0.306751 0)
(0.132148 -0.309895 0)
(0.171343 -0.308521 0)
(0.213581 -0.310728 0)
(0.253805 -0.309024 0)
(0.298034 -0.319116 0)
(0.339089 -0.303531 0)
(0.377189 -0.321107 0)
(0.431707 -0.334399 0)
(0.473254 -0.331565 0)
(0.526476 -0.34259 0)
(0.59341 -0.378664 0)
(0.673029 -0.391171 0)
(0.735303 -0.374431 0)
(0.803721 -0.313827 0)
(0.858008 -0.210978 0)
(0.850179 -0.0060589 0)
(0.856141 0.277596 0)
(0.877794 0.841915 0)
(1.0171 1.22861 0)
(0.0185213 -0.281784 0)
(0.0552928 -0.283858 0)
(0.09244 -0.285425 0)
(0.129212 -0.289993 0)
(0.165089 -0.296269 0)
(0.20328 -0.305094 0)
(0.237556 -0.314379 0)
(0.273089 -0.333818 0)
(0.308505 -0.33583 0)
(0.342188 -0.380601 0)
(0.395577 -0.393327 0)
(0.43507 -0.407678 0)
(0.506746 -0.445217 0)
(0.588843 -0.472088 0)
(0.671488 -0.468672 0)
(0.726764 -0.434792 0)
(0.769465 -0.354406 0)
(0.759099 -0.220143 0)
(0.697158 0.0461959 0)
(0.6476 0.320268 0)
(0.643235 0.73053 0)
(0.882704 1.10437 0)
(0.0165776 -0.332432 0)
(0.0503025 -0.33536 0)
(0.0830863 -0.339768 0)
(0.117386 -0.344932 0)
(0.150514 -0.352989 0)
(0.1838 -0.361596 0)
(0.216561 -0.370949 0)
(0.25211 -0.389696 0)
(0.287786 -0.395866 0)
(0.331267 -0.435081 0)
(0.382748 -0.439571 0)
(0.42733 -0.473307 0)
(0.513507 -0.512843 0)
(0.587345 -0.537213 0)
(0.635425 -0.523182 0)
(0.652601 -0.465747 0)
(0.644534 -0.344661 0)
(0.526874 -0.130954 0)
(0.431429 0.144111 0)
(0.372903 0.333875 0)
(0.453301 0.650388 0)
(0.607738 0.74415 0)
(0.0164929 -0.373331 0)
(0.0493068 -0.375738 0)
(0.0826136 -0.378146 0)
(0.114975 -0.381797 0)
(0.148805 -0.386867 0)
(0.180876 -0.393757 0)
(0.214009 -0.403919 0)
(0.247342 -0.416822 0)
(0.279905 -0.433361 0)
(0.307357 -0.47108 0)
(0.357764 -0.482992 0)
(0.395602 -0.548689 0)
(0.464725 -0.597467 0)
(0.497359 -0.587095 0)
(0.496127 -0.547484 0)
(0.452055 -0.445183 0)
(0.32428 -0.210605 0)
(0.200671 0.00259788 0)
(0.192085 0.184347 0)
(0.20525 0.290601 0)
(0.334963 0.499341 0)
(0.473848 0.53202 0)
(0.0152014 -0.395409 0)
(0.0457683 -0.398307 0)
(0.0765932 -0.400903 0)
(0.107611 -0.405119 0)
(0.137945 -0.410172 0)
(0.168603 -0.41717 0)
(0.19707 -0.425594 0)
(0.219762 -0.436249 0)
(0.245881 -0.452006 0)
(0.261289 -0.487278 0)
(0.299384 -0.524631 0)
(0.32977 -0.626427 0)
(0.363365 -0.634762 0)
(0.338283 -0.59283 0)
(0.26565 -0.477098 0)
(0.111301 -0.262665 0)
(0.0532549 -0.0870217 0)
(0.0326967 0.00600899 0)
(0.108909 0.122362 0)
(0.172136 0.19707 0)
(0.317606 0.329201 0)
(0.474399 0.325609 0)
(0.0152153 -0.428102 0)
(0.0455723 -0.430535 0)
(0.0753102 -0.432746 0)
(0.105694 -0.435724 0)
(0.136007 -0.439969 0)
(0.165216 -0.44438 0)
(0.194489 -0.447804 0)
(0.213449 -0.452341 0)
(0.23364 -0.464831 0)
(0.224663 -0.489761 0)
(0.232406 -0.541618 0)
(0.188692 -0.634522 0)
(0.146177 -0.600024 0)
(0.0491562 -0.483417 0)
(-0.0426845 -0.311696 0)
(-0.0620802 -0.20757 0)
(-0.0396709 -0.119741 0)
(0.0293826 -0.0604683 0)
(0.121879 0.0277709 0)
(0.215908 0.0847533 0)
(0.3688 0.160491 0)
(0.499553 0.161318 0)
(0.656296 0.196624 0)
(0.0146547 -0.450599 0)
(0.043543 -0.453139 0)
(0.0728685 -0.456172 0)
(0.101456 -0.460982 0)
(0.131737 -0.469297 0)
(0.163121 -0.48047 0)
(0.194425 -0.493544 0)
(0.213713 -0.506471 0)
(0.213368 -0.515257 0)
(0.174488 -0.523932 0)
(0.0572082 -0.559956 0)
(-0.141493 -0.57067 0)
(-0.129767 -0.490809 0)
(-0.155259 -0.377903 0)
(-0.134533 -0.298507 0)
(-0.0973538 -0.24471 0)
(-0.0155655 -0.19342 0)
(0.0854873 -0.151167 0)
(0.170687 -0.0824825 0)
(0.290222 -0.0365214 0)
(0.401915 0.0397362 0)
(0.496283 0.0585835 0)
(0.6533 0.110359 0)
(0.0143011 -0.535254 0)
(0.0418738 -0.536966 0)
(0.0678685 -0.535519 0)
(0.092273 -0.532304 0)
(0.118982 -0.523251 0)
(0.156391 -0.52708 0)
(0.193921 -0.540407 0)
(0.216013 -0.539588 0)
(0.204458 -0.514667 0)
(0.11008 -0.467912 0)
(-0.301681 -0.349394 0)
(-0.442157 -0.455343 0)
(-0.255572 -0.537754 0)
(-0.214843 -0.468831 0)
(-0.140586 -0.415695 0)
(-0.0501428 -0.36324 0)
(0.0426217 -0.300125 0)
(0.142203 -0.231427 0)
(0.221651 -0.182059 0)
(0.368721 -0.132062 0)
(0.437992 -0.0909367 0)
(0.614577 -0.0677647 0)
(0.67286 -0.161688 0)
(0.0151867 -0.51365 0)
(0.04232 -0.503337 0)
(0.0712469 -0.477201 0)
(0.0970955 -0.418709 0)
(0.109702 -0.301526 0)
(0.0810665 -0.0620229 0)
(0.0256148 0.25645 0)
(-0.0576377 0.48604 0)
(-0.0715032 0.693991 0)
(-0.411515 1.11328 0)
(-0.789 1.09557 0)
(-0.479325 -0.00786282 0)
(-0.308557 -0.473282 0)
(-0.167757 -0.553154 0)
(-0.0329379 -0.553682 0)
(0.0230696 -0.507112 0)
(0.101304 -0.457698 0)
(0.183482 -0.405123 0)
(0.26386 -0.389281 0)
(0.354564 -0.355548 0)
(0.424014 -0.32831 0)
(0.460496 -0.369834 0)
(0.472724 -0.218415 0)
(-0.0516642 0.238232 0)
(-0.158269 0.219772 0)
(-0.269309 0.174293 0)
(-0.384841 0.0743225 0)
(-0.493248 -0.107287 0)
(-0.582194 -0.37439 0)
(-0.614844 -0.707908 0)
(-0.584228 -0.892579 0)
(-0.470046 -0.852456 0)
(-0.225041 -0.567783 0)
(0.282869 -0.890588 0)
(0.613404 -0.926643 0)
(0.471504 -0.550107 0)
(0.413555 0.0105102 0)
(0.31697 0.251119 0)
(0.199255 0.233992 0)
(0.127529 0.165865 0)
(0.0770219 0.161342 0)
(0.0655345 0.257536 0)
(-0.00386736 0.469008 0)
(0.0845386 0.945332 0)
(-0.403768 0.76681 0)
(-0.541266 -0.0561673 0)
(-0.031826 -0.832072 0)
(-0.0860461 -0.827864 0)
(-0.116947 -0.812862 0)
(-0.130605 -0.786719 0)
(-0.126585 -0.734897 0)
(-0.0984178 -0.654965 0)
(-0.0751741 -0.539985 0)
(-0.086504 -0.397175 0)
(-0.103467 -0.227409 0)
(-0.0403171 -0.122118 0)
(0.104595 -0.313863 0)
(0.0451438 -0.75528 0)
(-0.0443825 -0.864645 0)
(-0.119103 -0.85398 0)
(-0.0795025 -0.757676 0)
(-0.0831842 -0.625435 0)
(-0.163441 -0.523142 0)
(-0.273264 -0.452573 0)
(-0.362962 -0.539459 0)
(-0.345234 -0.754158 0)
(-0.23858 -0.720123 0)
(0.0776403 -0.422039 0)
(-0.0498027 -0.387842 0)
(-0.0128316 -0.107423 0)
(-0.0330217 -0.128824 0)
(-0.0483216 -0.154706 0)
(-0.0653886 -0.190213 0)
(-0.082037 -0.234851 0)
(-0.0940581 -0.287805 0)
(-0.109187 -0.351697 0)
(-0.129238 -0.397716 0)
(-0.129292 -0.414186 0)
(-0.0746475 -0.40538 0)
(0.0217034 -0.519226 0)
(-0.0808416 -0.57321 0)
(-0.176522 -0.533663 0)
(-0.252728 -0.415632 0)
(-0.271067 -0.320778 0)
(-0.209818 -0.279621 0)
(-0.114091 -0.248453 0)
(-0.00785325 -0.229673 0)
(0.0952128 -0.231473 0)
(0.0363523 -0.161614 0)
(-0.16906 0.181385 0)
(-0.363989 0.36875 0)
(-0.547316 0.224781 0)
(-0.00465573 -0.420305 0)
(-0.0127688 -0.439469 0)
(-0.0208409 -0.452791 0)
(-0.0310276 -0.468613 0)
(-0.0411559 -0.483592 0)
(-0.0535234 -0.497125 0)
(-0.0704479 -0.507745 0)
(-0.0918335 -0.506814 0)
(-0.103809 -0.493458 0)
(-0.0762722 -0.489807 0)
(-0.0646626 -0.517575 0)
(-0.144271 -0.517093 0)
(-0.198334 -0.524379 0)
(-0.231893 -0.460968 0)
(-0.221984 -0.425985 0)
(-0.186978 -0.396345 0)
(-0.164908 -0.35104 0)
(-0.170857 -0.277319 0)
(-0.253106 -0.183612 0)
(-0.471648 -0.116969 0)
(-0.519737 -0.0635837 0)
(-0.454035 0.0182053 0)
(-0.446725 0.0150515 0)
(0.00154347 -0.350706 0)
(0.0037341 -0.366883 0)
(0.00348434 -0.374408 0)
(-0.00276835 -0.385303 0)
(-0.0136279 -0.398199 0)
(-0.0306628 -0.410236 0)
(-0.0538976 -0.418434 0)
(-0.0837792 -0.421046 0)
(-0.112049 -0.418698 0)
(-0.132424 -0.417439 0)
(-0.172468 -0.451528 0)
(-0.211988 -0.479391 0)
(-0.250779 -0.50561 0)
(-0.270709 -0.507141 0)
(-0.283314 -0.517754 0)
(-0.302355 -0.500741 0)
(-0.348344 -0.432723 0)
(-0.426363 -0.305198 0)
(-0.477697 -0.153046 0)
(-0.506852 -0.0296596 0)
(-0.510724 0.0736584 0)
(-0.496706 0.108321 0)
(-0.477936 0.107894 0)
(-0.00102742 -0.318714 0)
(-0.00407773 -0.337751 0)
(-0.0077975 -0.347739 0)
(-0.015483 -0.359658 0)
(-0.0289676 -0.371495 0)
(-0.0487926 -0.382577 0)
(-0.0742482 -0.391695 0)
(-0.104036 -0.397551 0)
(-0.134149 -0.400786 0)
(-0.157872 -0.40762 0)
(-0.189338 -0.423728 0)
(-0.226222 -0.446302 0)
(-0.26505 -0.452249 0)
(-0.307559 -0.436791 0)
(-0.362473 -0.409987 0)
(-0.423541 -0.361664 0)
)
;

boundaryField
{
    leftWall
    {
        type            calculated;
        value           uniform (0 0 0);
    }
    rightWall
    {
        type            calculated;
        value           nonuniform 0();
    }
    lowerWall
    {
        type            calculated;
        value           uniform (0 0 0);
    }
    atmosphere
    {
        type            calculated;
        value           nonuniform 0();
    }
    defaultFaces
    {
        type            empty;
    }
    procBoundary0to1
    {
        type            processor;
        value           nonuniform List<vector> 
26
(
(0.09725 0.027139 0)
(0.119751 0.18209 0)
(0.168943 0.270516 0)
(0.126268 0.432812 0)
(0.202318 0.546024 0)
(0.14102 0.694347 0)
(0.200022 0.7979 0)
(0.144258 0.942648 0)
(0.297956 1.06632 0)
(0.477532 0.980431 0)
(0.727245 1.03988 0)
(1.01051 1.15373 0)
(1.08142 1.13014 0)
(0.930884 0.930215 0)
(0.750114 0.593729 0)
(0.68707 0.379736 0)
(0.68707 0.379736 0)
(0.790239 0.153524 0)
(0.734251 0.0852573 0)
(0.719633 -0.169376 0)
(0.604008 0.443149 0)
(-0.45557 0.634791 0)
(-0.319907 0.326011 0)
(-0.526128 0.289401 0)
(-0.432065 0.152159 0)
(-0.459789 0.130516 0)
)
;
    }
    procBoundary0to2
    {
        type            processor;
        value           nonuniform List<vector> 
24
(
(-0.483733 -0.273238 0)
(-0.533612 -0.138866 0)
(-0.551544 -0.0584526 0)
(-0.55144 -0.033483 0)
(-0.515856 -0.00886634 0)
(-0.473215 0.0353359 0)
(-0.445273 0.065282 0)
(-0.002358 -0.332674 0)
(-0.00870592 -0.347742 0)
(-0.0180097 -0.351927 0)
(-0.0311686 -0.356934 0)
(-0.0469088 -0.362222 0)
(-0.0659833 -0.367552 0)
(-0.087816 -0.372965 0)
(-0.110719 -0.375719 0)
(-0.131604 -0.376467 0)
(-0.155172 -0.379903 0)
(-0.183714 -0.390066 0)
(-0.226584 -0.400366 0)
(-0.276069 -0.393477 0)
(-0.328355 -0.378479 0)
(-0.390123 -0.362849 0)
(-0.483733 -0.273238 0)
(-0.45089 -0.33713 0)
)
;
    }
}


// ************************************************************************* //
