/*--------------------------------*- C++ -*----------------------------------*\
| =========                 |                                                 |
| \\      /  F ield         | OpenFOAM: The Open Source CFD Toolbox           |
|  \\    /   O peration     | Version:  2.4.0                                 |
|   \\  /    A nd           | Web:      www.OpenFOAM.org                      |
|    \\/     M anipulation  |                                                 |
\*---------------------------------------------------------------------------*/
FoamFile
{
    version     2.0;
    format      ascii;
    class       volVectorField;
    location    "0.25";
    object      U.mercury;
}
// * * * * * * * * * * * * * * * * * * * * * * * * * * * * * * * * * * * * * //

dimensions      [0 1 -1 0 0 0 0];

internalField   nonuniform List<vector> 
575
(
(0.0194666 -0.00918164 0)
(0.0582304 -0.00922756 0)
(0.0981547 -0.00928869 0)
(0.135724 -0.00950172 0)
(0.180789 -0.0094665 0)
(0.213883 -0.0104327 0)
(0.267227 -0.00875391 0)
(0.296794 -0.0128357 0)
(0.358519 -0.010176 0)
(0.401307 -0.00937283 0)
(0.432486 -0.0124099 0)
(0.490176 -0.0156248 0)
(0.574046 -0.0142116 0)
(0.621078 -0.0141461 0)
(0.670763 -0.00676747 0)
(0.691926 -0.00677845 0)
(0.715245 -0.00463066 0)
(0.734465 0.00122183 0)
(0.718598 0.0102702 0)
(0.667057 0.026612 0)
(0.56146 0.0372136 0)
(0.375686 0.0912855 0)
(0.0194564 -0.0275525 0)
(0.0582155 -0.027702 0)
(0.0981053 -0.0278672 0)
(0.135647 -0.02864 0)
(0.180864 -0.0279346 0)
(0.213415 -0.032585 0)
(0.266682 -0.024108 0)
(0.299064 -0.040112 0)
(0.357068 -0.0316811 0)
(0.400065 -0.0263724 0)
(0.433035 -0.0359183 0)
(0.495842 -0.047603 0)
(0.575129 -0.0464531 0)
(0.624164 -0.0382068 0)
(0.661595 -0.0268174 0)
(0.688298 -0.0190247 0)
(0.71692 -0.00938855 0)
(0.75205 -0.00392418 0)
(0.749078 0.0234804 0)
(0.706948 0.0579816 0)
(0.601725 0.097413 0)
(0.392874 0.142567 0)
(0.0194152 -0.0458927 0)
(0.0581116 -0.0461338 0)
(0.0978471 -0.0464129 0)
(0.135437 -0.0476529 0)
(0.180417 -0.046893 0)
(0.212547 -0.0523905 0)
(0.266336 -0.0441266 0)
(0.300173 -0.0634132 0)
(0.353464 -0.0516156 0)
(0.398463 -0.0456953 0)
(0.437116 -0.0640554 0)
(0.50153 -0.0797905 0)
(0.571026 -0.0746473 0)
(0.614575 -0.0580338 0)
(0.660819 -0.0409721 0)
(0.688257 -0.0340714 0)
(0.7465 -0.0333322 0)
(0.777557 -0.0160708 0)
(0.788158 0.0424514 0)
(0.752755 0.112539 0)
(0.65498 0.225034 0)
(0.39867 0.271647 0)
(0.019356 -0.0642121 0)
(0.0579618 -0.064531 0)
(0.09745 -0.0649512 0)
(0.135257 -0.0666486 0)
(0.179345 -0.0655046 0)
(0.212126 -0.0731374 0)
(0.265175 -0.0628262 0)
(0.300172 -0.0863937 0)
(0.349495 -0.0735912 0)
(0.396618 -0.0668518 0)
(0.443688 -0.0894428 0)
(0.505785 -0.10817 0)
(0.555788 -0.0994629 0)
(0.60389 -0.0837933 0)
(0.657987 -0.0620173 0)
(0.716599 -0.06226 0)
(0.783308 -0.0511006 0)
(0.826948 -0.0322312 0)
(0.851026 0.033179 0)
(0.80014 0.117076 0)
(0.717308 0.29231 0)
(0.487484 0.404703 0)
(0.019278 -0.0825523 0)
(0.0577429 -0.0829314 0)
(0.0969389 -0.0835473 0)
(0.134885 -0.0855504 0)
(0.17812 -0.0845186 0)
(0.211038 -0.0928914 0)
(0.264344 -0.0839533 0)
(0.297969 -0.107616 0)
(0.346678 -0.0936511 0)
(0.393159 -0.0929307 0)
(0.451468 -0.117628 0)
(0.503489 -0.127072 0)
(0.538743 -0.119409 0)
(0.602641 -0.109049 0)
(0.665931 -0.0955183 0)
(0.756492 -0.0983389 0)
(0.820961 -0.12791 0)
(0.839205 -0.129839 0)
(0.842517 -0.0737145 0)
(0.76073 0.0538834 0)
(0.689658 0.330506 0)
(0.468112 0.510342 0)
(0.0191818 -0.100533 0)
(0.0574437 -0.100937 0)
(0.0963194 -0.10173 0)
(0.134315 -0.103939 0)
(0.176496 -0.102723 0)
(0.209897 -0.11256 0)
(0.262923 -0.103726 0)
(0.293659 -0.126018 0)
(0.348578 -0.11653 0)
(0.388675 -0.118678 0)
(0.455435 -0.139513 0)
(0.497716 -0.14538 0)
(0.537939 -0.158423 0)
(0.614418 -0.164452 0)
(0.687427 -0.179916 0)
(0.745352 -0.219316 0)
(0.738531 -0.252522 0)
(0.679627 -0.334504 0)
(0.688755 -0.331943 0)
(0.732349 -0.110237 0)
(0.599104 0.333938 0)
(0.445856 0.588185 0)
(0.0191061 -0.116783 0)
(0.0571702 -0.117076 0)
(0.0958385 -0.117789 0)
(0.133705 -0.11964 0)
(0.174983 -0.117955 0)
(0.209465 -0.128026 0)
(0.260374 -0.118637 0)
(0.292411 -0.142165 0)
(0.344662 -0.132672 0)
(0.395079 -0.150789 0)
(0.449852 -0.173724 0)
(0.493483 -0.206603 0)
(0.558024 -0.255717 0)
(0.613075 -0.295775 0)
(0.611357 -0.343341 0)
(0.503934 -0.437925 0)
(0.504875 -0.512575 0)
(0.530203 -0.50291 0)
(0.627667 -0.292775 0)
(0.768405 -0.206591 0)
(0.584999 0.241583 0)
(0.402006 0.681312 0)
(0.0191926 -0.135704 0)
(0.0573494 -0.136079 0)
(0.0962453 -0.137089 0)
(0.133903 -0.139182 0)
(0.17496 -0.137201 0)
(0.211275 -0.151448 0)
(0.258171 -0.144316 0)
(0.293861 -0.173066 0)
(0.336336 -0.18385 0)
(0.400626 -0.206174 0)
(0.426927 -0.251471 0)
(0.480425 -0.315826 0)
(0.509028 -0.432326 0)
(0.460384 -0.504924 0)
(0.423682 -0.582087 0)
(0.45897 -0.625991 0)
(0.518261 -0.534755 0)
(0.667847 -0.202618 0)
(0.627942 0.0735911 0)
(0.730304 0.219533 0)
(0.596129 0.171766 0)
(0.380613 0.670579 0)
(0.019546 -0.209549 0)
(0.0582327 -0.212924 0)
(0.0978988 -0.219657 0)
(0.13546 -0.229622 0)
(0.17512 -0.238677 0)
(0.214398 -0.264784 0)
(0.245868 -0.276554 0)
(0.298206 -0.3064 0)
(0.311195 -0.345787 0)
(0.36107 -0.37043 0)
(0.365258 -0.418269 0)
(0.362751 -0.53284 0)
(0.390039 -0.550137 0)
(0.396544 -0.589096 0)
(0.432023 -0.64736 0)
(0.534211 -0.527823 0)
(0.677511 -0.283266 0)
(0.717778 -0.162813 0)
(0.688765 -0.02106 0)
(0.838607 0.264005 0)
(0.654006 0.15159 0)
(0.434318 0.616812 0)
(0.016261 -0.369159 0)
(0.0481346 -0.374544 0)
(0.0800753 -0.384706 0)
(0.106974 -0.398739 0)
(0.134797 -0.420074 0)
(0.160085 -0.453826 0)
(0.164986 -0.494837 0)
(0.194199 -0.550651 0)
(0.214582 -0.552032 0)
(0.248196 -0.581924 0)
(0.291966 -0.644156 0)
(0.347799 -0.628321 0)
(0.421125 -0.430115 0)
(0.526857 -0.346385 0)
(0.617196 -0.305184 0)
(0.701785 -0.276508 0)
(0.761463 -0.227409 0)
(0.819499 -0.140713 0)
(0.834876 0.0132891 0)
(0.911025 0.280782 0)
(0.622667 0.457989 0)
(0.573231 0.636315 0)
(0.0103098 -0.593245 0)
(0.0306415 -0.599412 0)
(0.0539329 -0.606396 0)
(0.0756139 -0.621183 0)
(0.10575 -0.637521 0)
(0.133237 -0.664885 0)
(0.166598 -0.675892 0)
(0.214354 -0.613842 0)
(0.295078 -0.477641 0)
(0.371742 -0.401672 0)
(0.432989 -0.374232 0)
(0.481244 -0.346477 0)
(0.53093 -0.321082 0)
(0.594638 -0.312657 0)
(0.671245 -0.323635 0)
(0.740253 -0.313311 0)
(0.80169 -0.257079 0)
(0.86129 -0.169633 0)
(0.890375 0.00300883 0)
(0.920517 0.265003 0)
(0.625021 0.531505 0)
(0.678611 0.638454 0)
(0.0210239 -0.359338 0)
(0.0579631 -0.357301 0)
(0.0980841 -0.350344 0)
(0.137167 -0.346688 0)
(0.174677 -0.339643 0)
(0.215656 -0.335842 0)
(0.254491 -0.328607 0)
(0.298332 -0.33327 0)
(0.339366 -0.313897 0)
(0.377439 -0.328613 0)
(0.431645 -0.339214 0)
(0.473251 -0.335281 0)
(0.526342 -0.345464 0)
(0.593234 -0.381011 0)
(0.672866 -0.393104 0)
(0.735269 -0.375612 0)
(0.804117 -0.31315 0)
(0.858851 -0.209309 0)
(0.850414 -0.00623046 0)
(0.852489 0.27192 0)
(0.63678 0.546124 0)
(0.686434 0.593273 0)
(0.0185255 -0.284267 0)
(0.0552987 -0.286296 0)
(0.0924483 -0.287775 0)
(0.129222 -0.292276 0)
(0.165099 -0.298449 0)
(0.20329 -0.307114 0)
(0.237569 -0.31617 0)
(0.273095 -0.335317 0)
(0.308509 -0.337087 0)
(0.342187 -0.381618 0)
(0.395576 -0.394018 0)
(0.435073 -0.408219 0)
(0.506753 -0.445613 0)
(0.58886 -0.472347 0)
(0.671625 -0.468492 0)
(0.727208 -0.433447 0)
(0.770171 -0.352537 0)
(0.758475 -0.221971 0)
(0.69395 0.0355733 0)
(0.645584 0.300726 0)
(0.619819 0.598497 0)
(0.6703 0.553832 0)
(0.0165795 -0.33249 0)
(0.0503078 -0.335411 0)
(0.083094 -0.339803 0)
(0.117395 -0.344973 0)
(0.150524 -0.353033 0)
(0.183809 -0.361639 0)
(0.216569 -0.370987 0)
(0.252118 -0.389726 0)
(0.287794 -0.39589 0)
(0.331276 -0.435095 0)
(0.382758 -0.439577 0)
(0.427342 -0.473309 0)
(0.513523 -0.512836 0)
(0.587413 -0.536843 0)
(0.635749 -0.521699 0)
(0.652837 -0.464819 0)
(0.643076 -0.349936 0)
(0.523608 -0.147321 0)
(0.4307 0.119012 0)
(0.38074 0.311773 0)
(0.482658 0.621932 0)
(0.643839 0.528728 0)
(0.0164944 -0.3733 0)
(0.049311 -0.375709 0)
(0.0826197 -0.378118 0)
(0.114981 -0.381771 0)
(0.148812 -0.386843 0)
(0.180882 -0.393735 0)
(0.214016 -0.403898 0)
(0.247348 -0.416803 0)
(0.279911 -0.433343 0)
(0.307364 -0.471065 0)
(0.357771 -0.482978 0)
(0.395604 -0.548631 0)
(0.464761 -0.596622 0)
(0.497479 -0.58573 0)
(0.495877 -0.549303 0)
(0.450358 -0.456877 0)
(0.32121 -0.232076 0)
(0.201414 -0.0166836 0)
(0.196096 0.171471 0)
(0.209721 0.284523 0)
(0.339209 0.495344 0)
(0.51379 0.504023 0)
(0.0152025 -0.395381 0)
(0.0457713 -0.398279 0)
(0.0765974 -0.400877 0)
(0.107616 -0.405094 0)
(0.13795 -0.410149 0)
(0.168608 -0.417149 0)
(0.197075 -0.425575 0)
(0.219767 -0.436231 0)
(0.245886 -0.45199 0)
(0.261293 -0.487264 0)
(0.299379 -0.524558 0)
(0.329546 -0.625334 0)
(0.363437 -0.635653 0)
(0.338956 -0.601939 0)
(0.26681 -0.49646 0)
(0.1099 -0.281819 0)
(0.0546956 -0.0982754 0)
(0.0337571 0.00269079 0)
(0.109304 0.121664 0)
(0.172218 0.196967 0)
(0.317671 0.32901 0)
(0.475782 0.324362 0)
(0.015216 -0.428077 0)
(0.0455742 -0.430511 0)
(0.075313 -0.432723 0)
(0.105698 -0.435704 0)
(0.136011 -0.439953 0)
(0.165219 -0.44437 0)
(0.194492 -0.447807 0)
(0.21345 -0.452385 0)
(0.233639 -0.464985 0)
(0.224651 -0.490061 0)
(0.231825 -0.541246 0)
(0.190337 -0.638987 0)
(0.148488 -0.618785 0)
(0.0521573 -0.508223 0)
(-0.0423075 -0.326349 0)
(-0.0608982 -0.213246 0)
(-0.0393006 -0.120891 0)
(0.0294131 -0.060514 0)
(0.121909 0.027718 0)
(0.215938 0.0846833 0)
(0.368827 0.160402 0)
(0.499575 0.161101 0)
(0.65623 0.194526 0)
(0.0146527 -0.451332 0)
(0.0435332 -0.453979 0)
(0.0728356 -0.457234 0)
(0.101346 -0.462485 0)
(0.131388 -0.471642 0)
(0.162218 -0.484604 0)
(0.192889 -0.501501 0)
(0.21212 -0.522067 0)
(0.212956 -0.542595 0)
(0.174908 -0.560181 0)
(0.0567571 -0.602318 0)
(-0.138292 -0.627462 0)
(-0.128168 -0.516688 0)
(-0.154331 -0.388573 0)
(-0.133748 -0.301687 0)
(-0.0972163 -0.245156 0)
(-0.015552 -0.193454 0)
(0.0855016 -0.151208 0)
(0.170702 -0.0825371 0)
(0.290235 -0.0365904 0)
(0.401924 0.0396533 0)
(0.496284 0.0584883 0)
(0.653287 0.110211 0)
(0.0144615 -0.593269 0)
(0.0423889 -0.59991 0)
(0.0688435 -0.608255 0)
(0.0934277 -0.621959 0)
(0.115392 -0.637836 0)
(0.137864 -0.667844 0)
(0.158424 -0.706403 0)
(0.173119 -0.747977 0)
(0.173707 -0.783126 0)
(0.0865621 -0.79686 0)
(-0.252707 -0.747564 0)
(-0.419362 -0.683026 0)
(-0.245932 -0.614818 0)
(-0.212748 -0.496868 0)
(-0.138687 -0.430754 0)
(-0.0490069 -0.370046 0)
(0.0432413 -0.303835 0)
(0.142462 -0.233759 0)
(0.221733 -0.184307 0)
(0.368705 -0.134658 0)
(0.437832 -0.0939797 0)
(0.614022 -0.0729681 0)
(0.670709 -0.174241 0)
(0.0110884 -0.894626 0)
(0.0298168 -0.909585 0)
(0.048943 -0.936578 0)
(0.0631655 -0.979663 0)
(0.0724371 -1.04843 0)
(0.0751473 -1.03071 0)
(0.067375 -0.87392 0)
(0.0266363 -0.545626 0)
(-0.0185927 -0.0754598 0)
(-0.391381 0.196638 0)
(-0.736703 0.143864 0)
(-0.563254 -0.820583 0)
(-0.256097 -1.03117 0)
(-0.136436 -0.82599 0)
(-0.00613587 -0.76191 0)
(0.0429806 -0.657383 0)
(0.111047 -0.582386 0)
(0.185505 -0.514808 0)
(0.259501 -0.5019 0)
(0.343563 -0.483436 0)
(0.41412 -0.475223 0)
(0.451979 -0.566433 0)
(0.442292 -0.63034 0)
(-0.0440616 0.00779114 0)
(-0.142849 0.0268101 0)
(-0.25227 0.0454284 0)
(-0.373743 0.0147377 0)
(-0.489897 -0.120671 0)
(-0.581895 -0.375131 0)
(-0.614827 -0.707925 0)
(-0.584142 -0.89223 0)
(-0.469657 -0.852649 0)
(-0.227205 -0.574699 0)
(0.282554 -0.890861 0)
(0.613086 -0.926981 0)
(0.46104 -0.575531 0)
(0.359434 -0.220067 0)
(0.253227 -0.281489 0)
(0.150177 -0.567348 0)
(0.132061 -0.667423 0)
(0.135746 -0.665647 0)
(0.162509 -0.585366 0)
(0.118836 -0.369952 0)
(0.127998 0.318618 0)
(-0.37604 0.693588 0)
(-0.536698 -0.0596524 0)
(-0.0318315 -0.832087 0)
(-0.0860611 -0.82788 0)
(-0.116965 -0.812878 0)
(-0.13062 -0.786735 0)
(-0.126594 -0.734912 0)
(-0.0984264 -0.654983 0)
(-0.0751828 -0.540006 0)
(-0.086507 -0.397194 0)
(-0.10346 -0.227422 0)
(-0.0403048 -0.122126 0)
(0.104613 -0.313862 0)
(0.045179 -0.755269 0)
(-0.0443328 -0.86463 0)
(-0.119026 -0.853973 0)
(-0.0794057 -0.757672 0)
(-0.083072 -0.625433 0)
(-0.163312 -0.523151 0)
(-0.273116 -0.452602 0)
(-0.362798 -0.539503 0)
(-0.345061 -0.754222 0)
(-0.238394 -0.720212 0)
(0.0778443 -0.422151 0)
(-0.0495793 -0.388001 0)
(-0.0128353 -0.107432 0)
(-0.0330308 -0.128829 0)
(-0.0483321 -0.154706 0)
(-0.0653972 -0.190209 0)
(-0.0820437 -0.234846 0)
(-0.0940641 -0.2878 0)
(-0.109191 -0.351689 0)
(-0.129237 -0.397704 0)
(-0.129284 -0.414174 0)
(-0.0746322 -0.405365 0)
(0.0217268 -0.519208 0)
(-0.0808051 -0.573189 0)
(-0.176472 -0.533643 0)
(-0.252662 -0.41562 0)
(-0.270985 -0.320778 0)
(-0.209719 -0.279636 0)
(-0.113977 -0.248481 0)
(-0.00772265 -0.229715 0)
(0.0953576 -0.231531 0)
(0.0365102 -0.161686 0)
(-0.168892 0.181293 0)
(-0.363811 0.368639 0)
(-0.547127 0.22464 0)
(-0.00465848 -0.420302 0)
(-0.0127758 -0.439464 0)
(-0.0208493 -0.452782 0)
(-0.0310354 -0.468601 0)
(-0.0411625 -0.483578 0)
(-0.0535284 -0.49711 0)
(-0.0704499 -0.507728 0)
(-0.0918304 -0.506795 0)
(-0.1038 -0.493437 0)
(-0.0762556 -0.489786 0)
(-0.0646366 -0.517552 0)
(-0.144234 -0.517071 0)
(-0.198285 -0.524359 0)
(-0.231832 -0.460953 0)
(-0.221911 -0.425981 0)
(-0.186891 -0.39635 0)
(-0.164806 -0.351061 0)
(-0.170742 -0.277355 0)
(-0.252978 -0.183662 0)
(-0.47151 -0.117035 0)
(-0.519594 -0.0636663 0)
(-0.453883 0.0181034 0)
(-0.446563 0.0149226 0)
(0.00154178 -0.3507 0)
(0.00372976 -0.366874 0)
(0.0034792 -0.374396 0)
(-0.00277322 -0.385288 0)
(-0.0136318 -0.39818 0)
(-0.0306649 -0.410214 0)
(-0.0538967 -0.41841 0)
(-0.0837738 -0.42102 0)
(-0.112037 -0.41867 0)
(-0.132407 -0.417412 0)
(-0.172443 -0.451501 0)
(-0.211955 -0.479365 0)
(-0.250737 -0.505589 0)
(-0.270659 -0.507124 0)
(-0.283252 -0.517746 0)
(-0.302281 -0.500748 0)
(-0.348258 -0.432745 0)
(-0.426262 -0.305233 0)
(-0.477586 -0.153097 0)
(-0.506733 -0.0297258 0)
(-0.510596 0.0735767 0)
(-0.496576 0.10822 0)
(-0.477797 0.107772 0)
(-0.0010279 -0.318699 0)
(-0.00407907 -0.337735 0)
(-0.00779937 -0.347721 0)
(-0.0154852 -0.359638 0)
(-0.0289691 -0.371472 0)
(-0.0487924 -0.382552 0)
(-0.0742452 -0.391668 0)
(-0.104029 -0.397522 0)
(-0.134137 -0.400756 0)
(-0.157855 -0.407591 0)
(-0.189314 -0.4237 0)
(-0.226192 -0.446276 0)
(-0.265013 -0.452227 0)
(-0.307514 -0.436774 0)
(-0.362422 -0.409979 0)
(-0.423481 -0.361662 0)
)
;

boundaryField
{
    leftWall
    {
        type            fixedValue;
        value           uniform (0 0 0);
    }
    rightWall
    {
        type            fixedValue;
        value           nonuniform 0();
    }
    lowerWall
    {
        type            fixedValue;
        value           uniform (0 0 0);
    }
    atmosphere
    {
        type            fluxCorrectedVelocity;
        value           nonuniform 0();
    }
    defaultFaces
    {
        type            empty;
    }
    procBoundary0to1
    {
        type            processor;
        value           nonuniform List<vector> 
26
(
(0.0972555 0.0271215 0)
(0.119758 0.182064 0)
(0.168953 0.27048 0)
(0.126279 0.432765 0)
(0.202338 0.545962 0)
(0.141056 0.694218 0)
(0.200175 0.797219 0)
(0.144352 0.940331 0)
(0.278483 1.05269 0)
(0.410685 0.978439 0)
(0.575418 0.954136 0)
(0.713627 0.944077 0)
(0.743328 0.898095 0)
(0.754138 0.830847 0)
(0.765145 0.707063 0)
(0.703867 0.425072 0)
(0.703867 0.425072 0)
(0.790316 0.151227 0)
(0.734224 0.0850532 0)
(0.712049 -0.199485 0)
(0.474765 -0.50671 0)
(-0.397443 0.538039 0)
(-0.31965 0.325834 0)
(-0.525917 0.289238 0)
(-0.431887 0.152013 0)
(-0.459638 0.130374 0)
)
;
    }
    procBoundary0to2
    {
        type            processor;
        value           nonuniform List<vector> 
24
(
(-0.483657 -0.273245 0)
(-0.533526 -0.138885 0)
(-0.551449 -0.0584881 0)
(-0.551337 -0.0335343 0)
(-0.515749 -0.00893523 0)
(-0.473103 0.035248 0)
(-0.445158 0.0651758 0)
(-0.00235818 -0.332656 0)
(-0.00870619 -0.347723 0)
(-0.0180099 -0.351907 0)
(-0.0311686 -0.356912 0)
(-0.046908 -0.362197 0)
(-0.065981 -0.367526 0)
(-0.0878115 -0.372936 0)
(-0.110711 -0.375689 0)
(-0.131593 -0.376437 0)
(-0.155156 -0.379872 0)
(-0.183692 -0.390036 0)
(-0.226557 -0.400338 0)
(-0.276036 -0.393451 0)
(-0.328318 -0.378457 0)
(-0.390077 -0.362833 0)
(-0.483657 -0.273245 0)
(-0.450834 -0.337117 0)
)
;
    }
}


// ************************************************************************* //
