/*--------------------------------*- C++ -*----------------------------------*\
| =========                 |                                                 |
| \\      /  F ield         | OpenFOAM: The Open Source CFD Toolbox           |
|  \\    /   O peration     | Version:  2.4.0                                 |
|   \\  /    A nd           | Web:      www.OpenFOAM.org                      |
|    \\/     M anipulation  |                                                 |
\*---------------------------------------------------------------------------*/
FoamFile
{
    version     2.0;
    format      ascii;
    class       volVectorField;
    location    "0.25";
    object      U.oil;
}
// * * * * * * * * * * * * * * * * * * * * * * * * * * * * * * * * * * * * * //

dimensions      [0 1 -1 0 0 0 0];

internalField   nonuniform List<vector> 
575
(
(0.0194667 -0.00918125 0)
(0.0582307 -0.00922717 0)
(0.0981553 -0.00928828 0)
(0.135725 -0.0095013 0)
(0.18079 -0.00946604 0)
(0.213884 -0.0104323 0)
(0.267228 -0.00875347 0)
(0.296795 -0.0128352 0)
(0.35852 -0.0101756 0)
(0.401309 -0.0093724 0)
(0.432487 -0.0124092 0)
(0.490178 -0.0156204 0)
(0.574049 -0.0141975 0)
(0.621083 -0.0141134 0)
(0.670772 -0.00669256 0)
(0.69194 -0.00653757 0)
(0.715222 -0.00389391 0)
(0.734131 0.00272784 0)
(0.717364 0.0130411 0)
(0.662708 0.0307794 0)
(0.544279 0.0481771 0)
(0.339146 0.132104 0)
(0.0194565 -0.0275511 0)
(0.0582158 -0.0277007 0)
(0.0981059 -0.0278657 0)
(0.135648 -0.0286385 0)
(0.180865 -0.0279331 0)
(0.213416 -0.0325835 0)
(0.266683 -0.0241065 0)
(0.299065 -0.0401105 0)
(0.357069 -0.0316797 0)
(0.400066 -0.026371 0)
(0.433037 -0.0359152 0)
(0.495847 -0.047584 0)
(0.575138 -0.0464056 0)
(0.624181 -0.0380843 0)
(0.661631 -0.0263955 0)
(0.688352 -0.0176318 0)
(0.716878 -0.0062981 0)
(0.751597 0.00421302 0)
(0.747602 0.034399 0)
(0.70263 0.0691574 0)
(0.583233 0.112613 0)
(0.35478 0.193116 0)
(0.0194153 -0.0458904 0)
(0.0581119 -0.0461315 0)
(0.0978478 -0.0464105 0)
(0.135438 -0.0476504 0)
(0.180418 -0.0468905 0)
(0.212548 -0.0523879 0)
(0.266337 -0.044124 0)
(0.300174 -0.0634107 0)
(0.353466 -0.0516133 0)
(0.398465 -0.045693 0)
(0.43712 -0.0640476 0)
(0.501541 -0.0797182 0)
(0.571054 -0.0742827 0)
(0.614659 -0.0567653 0)
(0.66104 -0.0373897 0)
(0.688586 -0.0246986 0)
(0.746367 -0.00916113 0)
(0.77526 0.0401108 0)
(0.781033 0.102514 0)
(0.741179 0.168405 0)
(0.633068 0.265127 0)
(0.356434 0.334713 0)
(0.0193561 -0.0642091 0)
(0.0579622 -0.0645279 0)
(0.0974507 -0.064948 0)
(0.135258 -0.0666454 0)
(0.179346 -0.0655013 0)
(0.212127 -0.073134 0)
(0.265176 -0.0628229 0)
(0.300173 -0.0863905 0)
(0.349496 -0.0735881 0)
(0.39662 -0.0668487 0)
(0.443699 -0.0894261 0)
(0.505863 -0.107715 0)
(0.556081 -0.0967195 0)
(0.604673 -0.0758318 0)
(0.659837 -0.0440841 0)
(0.720118 -0.018547 0)
(0.787339 0.047315 0)
(0.819695 0.183721 0)
(0.816401 0.275592 0)
(0.746862 0.338407 0)
(0.662258 0.424901 0)
(0.434913 0.509102 0)
(0.0192781 -0.0825487 0)
(0.0577433 -0.0829278 0)
(0.0969397 -0.0835436 0)
(0.134886 -0.0855466 0)
(0.178122 -0.0845146 0)
(0.21104 -0.0928874 0)
(0.264345 -0.0839493 0)
(0.29797 -0.107612 0)
(0.346679 -0.0936473 0)
(0.393161 -0.092927 0)
(0.451542 -0.11759 0)
(0.504077 -0.125546 0)
(0.54067 -0.110153 0)
(0.606876 -0.0803549 0)
(0.675571 -0.031074 0)
(0.776882 0.0395573 0)
(0.850554 0.0780104 0)
(0.853857 0.11126 0)
(0.816325 0.230669 0)
(0.668902 0.361786 0)
(0.559978 0.59499 0)
(0.342144 0.72657 0)
(0.0191819 -0.100529 0)
(0.0574442 -0.100933 0)
(0.0963202 -0.101726 0)
(0.134316 -0.103935 0)
(0.176497 -0.102719 0)
(0.209899 -0.112555 0)
(0.262924 -0.103722 0)
(0.29366 -0.126014 0)
(0.348579 -0.116526 0)
(0.38868 -0.118672 0)
(0.455651 -0.139326 0)
(0.499429 -0.142124 0)
(0.544083 -0.13856 0)
(0.62923 -0.0961671 0)
(0.71492 -0.0336091 0)
(0.779175 0.000927329 0)
(0.768054 0.04881 0)
(0.671323 0.238578 0)
(0.625679 0.399397 0)
(0.39865 0.653046 0)
(0.419582 0.640833 0)
(0.296895 0.817609 0)
(0.0191062 -0.116779 0)
(0.0571707 -0.117072 0)
(0.0958394 -0.117784 0)
(0.133707 -0.119636 0)
(0.174984 -0.11795 0)
(0.209466 -0.128021 0)
(0.260376 -0.118631 0)
(0.292423 -0.14208 0)
(0.344767 -0.131997 0)
(0.395476 -0.148596 0)
(0.45121 -0.167819 0)
(0.498336 -0.191809 0)
(0.570335 -0.215255 0)
(0.634012 -0.183291 0)
(0.632123 -0.102221 0)
(0.531959 0.105708 0)
(0.423206 0.0867225 0)
(0.469272 -0.0289788 0)
(0.534465 0.0369984 0)
(0.595093 0.283805 0)
(0.233366 0.692345 0)
(0.246409 0.892985 0)
(0.0191927 -0.1357 0)
(0.05735 -0.136075 0)
(0.0962463 -0.137085 0)
(0.133905 -0.139178 0)
(0.174966 -0.13716 0)
(0.211392 -0.150248 0)
(0.258432 -0.141591 0)
(0.294628 -0.167029 0)
(0.337821 -0.173247 0)
(0.403743 -0.188605 0)
(0.433417 -0.221336 0)
(0.494109 -0.255443 0)
(0.534938 -0.296618 0)
(0.495711 -0.227874 0)
(0.39518 -0.0800749 0)
(0.416007 -0.0862015 0)
(0.504389 -0.0576793 0)
(0.646929 0.0708221 0)
(0.560835 0.221799 0)
(0.665153 0.43106 0)
(0.172775 0.791463 0)
(0.266527 0.875229 0)
(0.0197074 -0.194987 0)
(0.0587296 -0.19762 0)
(0.0987742 -0.202858 0)
(0.136767 -0.210492 0)
(0.176818 -0.216499 0)
(0.216638 -0.237306 0)
(0.248806 -0.242479 0)
(0.302488 -0.260342 0)
(0.318048 -0.281244 0)
(0.36746 -0.278538 0)
(0.37718 -0.277076 0)
(0.384826 -0.282241 0)
(0.393606 -0.219552 0)
(0.402439 -0.195991 0)
(0.459999 -0.161224 0)
(0.571638 -0.048878 0)
(0.64368 -0.0217901 0)
(0.669748 0.013069 0)
(0.636461 0.126936 0)
(0.834711 0.434219 0)
(0.454016 0.884014 0)
(0.544108 0.885894 0)
(0.0167619 -0.27787 0)
(0.0496836 -0.278646 0)
(0.0827174 -0.27943 0)
(0.111071 -0.279086 0)
(0.140775 -0.281986 0)
(0.170287 -0.282105 0)
(0.183264 -0.272246 0)
(0.220995 -0.254006 0)
(0.242529 -0.20336 0)
(0.275035 -0.181896 0)
(0.323539 -0.210721 0)
(0.389417 -0.249877 0)
(0.453499 -0.271121 0)
(0.527007 -0.252117 0)
(0.619073 -0.207695 0)
(0.704228 -0.143769 0)
(0.755431 -0.097345 0)
(0.821549 -0.00401673 0)
(0.815612 0.157746 0)
(0.919634 0.419838 0)
(0.871357 1.12821 0)
(0.781213 1.06394 0)
(0.0110993 -0.214882 0)
(0.033131 -0.214546 0)
(0.058697 -0.210616 0)
(0.0853349 -0.212981 0)
(0.117964 -0.218499 0)
(0.153059 -0.235467 0)
(0.192985 -0.261246 0)
(0.241591 -0.304533 0)
(0.302951 -0.31199 0)
(0.360614 -0.333707 0)
(0.430931 -0.339256 0)
(0.481427 -0.323109 0)
(0.531625 -0.300445 0)
(0.596219 -0.285299 0)
(0.675992 -0.267252 0)
(0.754157 -0.207604 0)
(0.814421 -0.140932 0)
(0.879742 -0.0507967 0)
(0.903651 0.130603 0)
(0.946958 0.386767 0)
(0.951845 1.0781 0)
(1.01198 1.29565 0)
(0.0185097 -0.305534 0)
(0.0547701 -0.307815 0)
(0.0931466 -0.306741 0)
(0.13216 -0.30988 0)
(0.171355 -0.308505 0)
(0.213592 -0.310711 0)
(0.253815 -0.309007 0)
(0.298044 -0.3191 0)
(0.339099 -0.303515 0)
(0.377199 -0.32109 0)
(0.43174 -0.334367 0)
(0.473487 -0.330699 0)
(0.527548 -0.336058 0)
(0.59764 -0.352475 0)
(0.696001 -0.297739 0)
(0.758391 -0.274935 0)
(0.830854 -0.208611 0)
(0.892559 -0.104318 0)
(0.876878 0.103994 0)
(0.88146 0.364918 0)
(0.887342 0.945166 0)
(1.03439 1.28394 0)
(0.0185234 -0.281757 0)
(0.0552989 -0.283831 0)
(0.0924489 -0.285399 0)
(0.129222 -0.289969 0)
(0.165099 -0.296246 0)
(0.20329 -0.305073 0)
(0.237566 -0.314359 0)
(0.273098 -0.333799 0)
(0.308514 -0.335812 0)
(0.3422 -0.380582 0)
(0.395662 -0.393277 0)
(0.435662 -0.405447 0)
(0.509833 -0.431495 0)
(0.602434 -0.413872 0)
(0.700298 -0.375905 0)
(0.753602 -0.339037 0)
(0.802128 -0.259136 0)
(0.791697 -0.135682 0)
(0.719805 0.118775 0)
(0.654814 0.372217 0)
(0.637063 0.773141 0)
(0.886405 1.12479 0)
(0.0165795 -0.332402 0)
(0.0503078 -0.335331 0)
(0.083094 -0.33974 0)
(0.117395 -0.344906 0)
(0.150524 -0.352965 0)
(0.183809 -0.361574 0)
(0.216569 -0.370928 0)
(0.252118 -0.389677 0)
(0.287794 -0.395848 0)
(0.331279 -0.435056 0)
(0.383058 -0.437957 0)
(0.429363 -0.46606 0)
(0.521939 -0.472206 0)
(0.598193 -0.456918 0)
(0.653176 -0.43595 0)
(0.671499 -0.381503 0)
(0.665297 -0.27147 0)
(0.536897 -0.0815107 0)
(0.432357 0.173715 0)
(0.367695 0.348392 0)
(0.449185 0.660262 0)
(0.606912 0.745965 0)
(0.0164944 -0.3733 0)
(0.049311 -0.375709 0)
(0.0826197 -0.378118 0)
(0.114981 -0.381771 0)
(0.148812 -0.386843 0)
(0.180882 -0.393735 0)
(0.214016 -0.403898 0)
(0.247348 -0.416803 0)
(0.279912 -0.433343 0)
(0.307682 -0.470373 0)
(0.359684 -0.475398 0)
(0.388098 -0.497678 0)
(0.466961 -0.521906 0)
(0.503479 -0.508676 0)
(0.50741 -0.471306 0)
(0.460526 -0.387724 0)
(0.328842 -0.179073 0)
(0.200287 0.013231 0)
(0.190887 0.188235 0)
(0.204337 0.291835 0)
(0.334301 0.49982 0)
(0.473757 0.532038 0)
(0.0152025 -0.395381 0)
(0.0457713 -0.398279 0)
(0.0765974 -0.400877 0)
(0.107616 -0.405094 0)
(0.13795 -0.410149 0)
(0.168608 -0.417149 0)
(0.197075 -0.425575 0)
(0.219767 -0.436231 0)
(0.245987 -0.451887 0)
(0.262131 -0.482494 0)
(0.289656 -0.467849 0)
(0.315168 -0.557909 0)
(0.358381 -0.56253 0)
(0.333898 -0.53216 0)
(0.263268 -0.436758 0)
(0.11242 -0.247642 0)
(0.0527897 -0.0833117 0)
(0.0325165 0.00658913 0)
(0.108857 0.122458 0)
(0.172128 0.197076 0)
(0.317602 0.3292 0)
(0.474399 0.325609 0)
(0.015216 -0.428077 0)
(0.0455742 -0.430511 0)
(0.075313 -0.432723 0)
(0.105698 -0.435704 0)
(0.136011 -0.439953 0)
(0.165219 -0.44437 0)
(0.194492 -0.447807 0)
(0.213458 -0.452359 0)
(0.233702 -0.462991 0)
(0.199575 -0.471884 0)
(0.195226 -0.485078 0)
(0.162582 -0.576314 0)
(0.140793 -0.557018 0)
(0.0464881 -0.461327 0)
(-0.0428462 -0.305196 0)
(-0.0623522 -0.206247 0)
(-0.0397225 -0.119574 0)
(0.0293817 -0.0604658 0)
(0.121879 0.0277709 0)
(0.215908 0.0847533 0)
(0.368801 0.160491 0)
(0.499553 0.161318 0)
(0.656296 0.196624 0)
(0.0146527 -0.451332 0)
(0.0435332 -0.453979 0)
(0.0728356 -0.457234 0)
(0.101346 -0.462485 0)
(0.131388 -0.471642 0)
(0.162219 -0.484604 0)
(0.192895 -0.5015 0)
(0.212293 -0.522246 0)
(0.209222 -0.546399 0)
(0.0809668 -0.582812 0)
(-0.00300208 -0.559007 0)
(-0.148033 -0.572463 0)
(-0.130053 -0.488749 0)
(-0.155258 -0.376583 0)
(-0.134616 -0.298248 0)
(-0.0973688 -0.244677 0)
(-0.0155654 -0.193423 0)
(0.0854873 -0.151167 0)
(0.170687 -0.0824831 0)
(0.290222 -0.0365219 0)
(0.401915 0.0397359 0)
(0.496283 0.058583 0)
(0.6533 0.110355 0)
(0.0144615 -0.593269 0)
(0.0423889 -0.59991 0)
(0.0688435 -0.608255 0)
(0.0934277 -0.621959 0)
(0.115392 -0.637836 0)
(0.137866 -0.667846 0)
(0.158406 -0.7065 0)
(0.172605 -0.747271 0)
(0.0858734 -0.807017 0)
(-0.198067 -0.843137 0)
(-0.320648 -0.693663 0)
(-0.399777 -0.651431 0)
(-0.246965 -0.615762 0)
(-0.212698 -0.497404 0)
(-0.13855 -0.431633 0)
(-0.0489346 -0.370481 0)
(0.0432789 -0.304058 0)
(0.142476 -0.233886 0)
(0.221737 -0.184424 0)
(0.368703 -0.134798 0)
(0.437821 -0.0941553 0)
(0.613983 -0.0733073 0)
(0.67054 -0.175184 0)
(0.0110884 -0.894626 0)
(0.0298168 -0.909585 0)
(0.0489429 -0.936578 0)
(0.0631651 -0.979663 0)
(0.0724295 -1.04842 0)
(0.0749938 -1.03067 0)
(0.0643405 -0.875844 0)
(-0.00512515 -0.60754 0)
(-0.311306 -0.880275 0)
(-0.496678 -0.973368 0)
(-0.676528 -1.03837 0)
(-0.605903 -1.22597 0)
(-0.246239 -1.1372 0)
(-0.133072 -0.855129 0)
(-0.00380552 -0.780009 0)
(0.0444538 -0.668496 0)
(0.111723 -0.591042 0)
(0.185639 -0.522227 0)
(0.259203 -0.50953 0)
(0.342801 -0.492244 0)
(0.413421 -0.485606 0)
(0.451316 -0.581525 0)
(0.438926 -0.675719 0)
(-0.0440616 0.00779113 0)
(-0.142849 0.02681 0)
(-0.252269 0.0454276 0)
(-0.373734 0.0147259 0)
(-0.489496 -0.120708 0)
(-0.578768 -0.372856 0)
(-0.606945 -0.647007 0)
(-0.534776 -0.694294 0)
(-0.387566 -0.890463 0)
(-0.378218 -1.05559 0)
(0.0251863 -1.10658 0)
(0.318845 -1.22736 0)
(-0.0637398 -1.84775 0)
(0.0133989 -1.69295 0)
(0.112699 -1.45423 0)
(0.109062 -1.23715 0)
(0.134342 -1.0995 0)
(0.16067 -1.01754 0)
(0.206971 -0.972482 0)
(0.206668 -0.971359 0)
(0.218675 -0.995321 0)
(0.174975 -0.771267 0)
(0.0396667 -0.502167 0)
(-0.0318315 -0.832087 0)
(-0.0860611 -0.82788 0)
(-0.116966 -0.812879 0)
(-0.130628 -0.786756 0)
(-0.126869 -0.735901 0)
(-0.100579 -0.663055 0)
(-0.0802621 -0.566032 0)
(-0.0910486 -0.443388 0)
(-0.103949 -0.244456 0)
(-0.0402686 -0.127746 0)
(0.104778 -0.316899 0)
(0.0449433 -0.756797 0)
(-0.0442378 -0.863394 0)
(-0.118491 -0.841938 0)
(-0.0782926 -0.733816 0)
(-0.0813393 -0.585507 0)
(-0.160817 -0.518971 0)
(-0.240965 -0.488485 0)
(-0.315401 -0.559151 0)
(-0.311735 -0.730139 0)
(-0.256547 -0.728616 0)
(0.0640996 -0.425606 0)
(-0.0576153 -0.381028 0)
(-0.0128353 -0.107432 0)
(-0.0330308 -0.128829 0)
(-0.048332 -0.154707 0)
(-0.0653955 -0.190216 0)
(-0.0820345 -0.234939 0)
(-0.0940634 -0.288201 0)
(-0.109145 -0.352432 0)
(-0.129154 -0.398788 0)
(-0.129303 -0.414846 0)
(-0.0747014 -0.405535 0)
(0.0216993 -0.519308 0)
(-0.0809426 -0.573223 0)
(-0.176986 -0.533857 0)
(-0.253813 -0.41777 0)
(-0.272639 -0.32671 0)
(-0.211512 -0.290247 0)
(-0.116367 -0.263273 0)
(-0.0113946 -0.249553 0)
(0.0920597 -0.254939 0)
(0.0379454 -0.179407 0)
(-0.168459 0.172949 0)
(-0.363597 0.363905 0)
(-0.546032 0.222562 0)
(-0.00465848 -0.420302 0)
(-0.0127758 -0.439464 0)
(-0.0208494 -0.452782 0)
(-0.0310359 -0.468603 0)
(-0.0411658 -0.483597 0)
(-0.053537 -0.497191 0)
(-0.0704572 -0.507865 0)
(-0.0918319 -0.506895 0)
(-0.103801 -0.493515 0)
(-0.0762572 -0.489843 0)
(-0.0646446 -0.517573 0)
(-0.144263 -0.517121 0)
(-0.198421 -0.524599 0)
(-0.23231 -0.461637 0)
(-0.223676 -0.426505 0)
(-0.191905 -0.398175 0)
(-0.169929 -0.350751 0)
(-0.173846 -0.273778 0)
(-0.256512 -0.177886 0)
(-0.472488 -0.115373 0)
(-0.519953 -0.0636862 0)
(-0.454264 0.0185244 0)
(-0.447119 0.0151404 0)
(0.00154178 -0.3507 0)
(0.00372976 -0.366874 0)
(0.0034792 -0.374396 0)
(-0.00277322 -0.385288 0)
(-0.0136318 -0.398184 0)
(-0.0306649 -0.410223 0)
(-0.0538967 -0.418419 0)
(-0.0837739 -0.421024 0)
(-0.112038 -0.418673 0)
(-0.132408 -0.417418 0)
(-0.172447 -0.451514 0)
(-0.211965 -0.479396 0)
(-0.250823 -0.505821 0)
(-0.271287 -0.508887 0)
(-0.28572 -0.524816 0)
(-0.306162 -0.512253 0)
(-0.351574 -0.444397 0)
(-0.428326 -0.316646 0)
(-0.48088 -0.157305 0)
(-0.507681 -0.0314424 0)
(-0.510862 0.0720015 0)
(-0.496557 0.107093 0)
(-0.478011 0.107128 0)
(-0.0010279 -0.318699 0)
(-0.00407907 -0.337735 0)
(-0.00779937 -0.347721 0)
(-0.0154852 -0.359638 0)
(-0.0289691 -0.371473 0)
(-0.0487924 -0.382553 0)
(-0.0742453 -0.391669 0)
(-0.10403 -0.397523 0)
(-0.134137 -0.400757 0)
(-0.157856 -0.407595 0)
(-0.189316 -0.423709 0)
(-0.226198 -0.446299 0)
(-0.265072 -0.452397 0)
(-0.308233 -0.438393 0)
(-0.365171 -0.416934 0)
(-0.426862 -0.372223 0)
)
;

boundaryField
{
    leftWall
    {
        type            fixedValue;
        value           uniform (0 0 0);
    }
    rightWall
    {
        type            fixedValue;
        value           nonuniform 0();
    }
    lowerWall
    {
        type            fixedValue;
        value           uniform (0 0 0);
    }
    atmosphere
    {
        type            fluxCorrectedVelocity;
        value           nonuniform 0();
    }
    defaultFaces
    {
        type            empty;
    }
    procBoundary0to1
    {
        type            processor;
        value           nonuniform List<vector> 
26
(
(0.0734777 0.104159 0)
(0.0952643 0.274297 0)
(0.139505 0.380521 0)
(0.0946683 0.560323 0)
(0.15532 0.693926 0)
(0.0883395 0.886372 0)
(0.143039 1.04212 0)
(0.131017 1.19786 0)
(0.465971 1.1763 0)
(0.597518 0.986648 0)
(0.797352 1.09486 0)
(1.0562 1.20265 0)
(1.0962 1.14527 0)
(0.931381 0.931316 0)
(0.750045 0.593628 0)
(0.68707 0.379736 0)
(0.68707 0.379736 0)
(0.790239 0.153524 0)
(0.734249 0.0852357 0)
(0.711517 -0.201547 0)
(0.439864 -0.762754 0)
(0.340564 -0.694127 0)
(-0.30396 0.297752 0)
(-0.522026 0.286314 0)
(-0.432534 0.151801 0)
(-0.45995 0.130084 0)
)
;
    }
    procBoundary0to2
    {
        type            processor;
        value           nonuniform List<vector> 
24
(
(-0.487909 -0.28428 0)
(-0.535609 -0.145458 0)
(-0.551952 -0.0605952 0)
(-0.551461 -0.0347908 0)
(-0.515848 -0.00972478 0)
(-0.473467 0.0348115 0)
(-0.445406 0.0648985 0)
(-0.00235818 -0.332656 0)
(-0.00870619 -0.347723 0)
(-0.0180099 -0.351907 0)
(-0.0311686 -0.356912 0)
(-0.046908 -0.362197 0)
(-0.065981 -0.367526 0)
(-0.0878115 -0.372937 0)
(-0.110711 -0.37569 0)
(-0.131593 -0.376438 0)
(-0.155156 -0.379876 0)
(-0.183694 -0.390045 0)
(-0.226561 -0.400362 0)
(-0.276069 -0.393574 0)
(-0.328586 -0.379465 0)
(-0.391325 -0.366337 0)
(-0.487909 -0.28428 0)
(-0.453619 -0.346083 0)
)
;
    }
}


// ************************************************************************* //
