/*--------------------------------*- C++ -*----------------------------------*\
| =========                 |                                                 |
| \\      /  F ield         | OpenFOAM: The Open Source CFD Toolbox           |
|  \\    /   O peration     | Version:  2.4.0                                 |
|   \\  /    A nd           | Web:      www.OpenFOAM.org                      |
|    \\/     M anipulation  |                                                 |
\*---------------------------------------------------------------------------*/
FoamFile
{
    version     2.0;
    format      ascii;
    class       volScalarField;
    location    "0.55";
    object      alpha.mercury;
}
// * * * * * * * * * * * * * * * * * * * * * * * * * * * * * * * * * * * * * //

dimensions      [0 0 0 0 0 0 0];

internalField   nonuniform List<scalar> 
2268
(
1
1
1
1
1
1
1
1
1
1
1
1
1
1
1
1
1
1
1
1
1
0.999999
0.999989
1
1
1
1
1
1
1
1
1
1
1
1
1
1
1
1
1
1
1
1
1
0.999999
0.999986
0.999963
0.999954
0.999972
0.999929
0.999949
0.999951
0.999904
0.999899
0.999889
0.999935
0.999937
0.999955
0.999982
0.999996
0.999999
1
1
1
1
1
1
0.999999
0.999987
0.983291
0.98162
0.984387
0.977992
0.979601
0.978615
0.971606
0.970921
0.96859
0.973669
0.973162
0.978763
0.989123
0.998112
0.999834
0.999981
0.999997
0.999999
1
1
1
0.999999
0.999987
0.562566
0.547575
0.562963
0.521095
0.524349
0.506006
0.461165
0.450168
0.42763
0.433952
0.426779
0.445027
0.494448
0.609716
0.806934
0.971891
0.998976
0.999979
0.999998
0.999999
1
0.999999
0.999987
0.00847144
0.00731492
0.00801532
0.00553556
0.00546819
0.00438178
0.00264269
0.00198061
0.00141444
0.00114545
0.000852419
0.000685405
0.000650975
0.00250886
0.0678062
0.364574
0.855409
0.992707
0.99979
0.999987
0.999998
0.999999
0.999985
9.39552e-06
9.18976e-06
9.01041e-06
8.65852e-06
8.23694e-06
7.36669e-06
7.16069e-06
7.15259e-06
7.15505e-06
7.18305e-06
7.20753e-06
7.22595e-06
7.23372e-06
7.24178e-06
0.00033107
0.0152824
0.255023
0.899548
0.995677
0.999849
0.999989
0.999997
0.999982
8.80812e-06
8.74599e-06
8.47157e-06
8.79277e-06
8.33387e-06
7.44691e-06
7.45368e-06
7.14458e-06
7.0651e-06
7.04411e-06
7.20006e-06
7.22653e-06
7.49792e-06
7.68554e-06
7.69219e-06
6.73516e-05
0.0169884
0.524997
0.983602
0.999593
0.99997
0.999997
0.99998
0.0522535
0.0962573
0.104438
0.106068
0.107722
0.132918
0.183216
0.237487
0.288922
0.349708
0.376012
0.390856
0.397641
0.401702
0.405654
0.434732
0.507696
0.510496
0.511341
0.0223416
0.0489134
0.0950515
0.0809888
0.0700424
0.0708663
0.0860494
0.102776
0.11119
0.121611
0.144984
0.176705
0.179662
0.16904
0.105976
0.0486438
0.0859847
0.475584
0.512073
0.036373
0.0952674
0.147576
0.141047
0.133438
0.139664
0.154134
0.160185
0.154671
0.145467
0.145717
0.157277
0.151677
0.109403
0.0380188
0.0108657
0.00282392
0.075973
0.51278
0.0659217
0.149881
0.235666
0.229925
0.217338
0.217378
0.223068
0.219242
0.202963
0.168431
0.154746
0.167267
0.154647
0.0870054
0.0214235
0.0123655
0.00167209
0.0202759
0.513476
0.14029
0.241797
0.357552
0.342616
0.312246
0.294237
0.27767
0.256075
0.223719
0.166325
0.15381
0.167253
0.138079
0.0507122
0.0155294
0.012359
0.001167
0.0135964
0.449095
0.299457
0.390467
0.505379
0.465784
0.403341
0.354116
0.308212
0.271904
0.22705
0.155413
0.154937
0.166112
0.133333
0.0273596
0.0046489
0.00278466
0.000535703
0.0132951
0.394468
0.524805
0.606463
0.604563
0.535805
0.438513
0.360728
0.291174
0.227904
0.158984
0.155306
0.15177
0.166046
0.0951928
0.00642778
0.000391875
0.000174798
0.000186496
0.0243216
0.36494
0.710452
0.709766
0.587548
0.430919
0.333635
0.243603
0.16821
0.110599
0.119563
0.13927
0.135126
0.126791
0.12354
0.0185837
0.000877953
0.000172909
0.000170746
0.0386977
0.320928
7.67939e-06
7.44012e-06
7.03722e-06
7.17806e-06
6.52198e-06
5.18611e-06
5.38732e-06
4.77861e-06
4.2132e-06
4.16872e-06
4.79101e-06
5.3878e-06
6.43212e-06
7.61335e-06
8.08372e-06
9.04402e-06
0.000549463
0.0813488
0.659716
0.981311
0.999175
0.999478
0.999774
1.04105e-06
1.01239e-06
9.6667e-07
9.12912e-07
8.61233e-07
7.41952e-07
6.56226e-07
5.63623e-07
4.90332e-07
4.63444e-07
4.90271e-07
5.10328e-07
5.86869e-07
7.16797e-07
1.52401e-06
2.69118e-06
5.29485e-06
0.00284294
0.0970316
0.404913
0.766259
0.875172
0.900308
1.05603e-07
9.83734e-08
9.30547e-08
8.66258e-08
7.59652e-08
4.62619e-08
3.4314e-08
2.19702e-08
1.90218e-08
1.81876e-08
2.09216e-08
2.46653e-08
3.60805e-08
5.60247e-08
1.01833e-07
3.7159e-07
1.28873e-06
5.28565e-05
0.00414102
0.0293757
0.0561125
0.0992996
0.169102
4.06632e-09
3.74184e-09
3.38136e-09
2.94434e-09
2.76471e-09
1.52426e-09
7.83968e-10
3.88947e-10
3.75558e-10
3.86511e-10
4.63714e-10
5.54154e-10
8.90112e-10
1.49643e-09
3.13288e-09
1.0458e-08
1.27877e-07
3.78901e-06
0.000157883
0.000489123
0.00102804
0.00144668
0.00176523
2.6618e-11
2.63332e-11
2.69983e-11
2.43444e-11
1.64635e-11
6.95137e-12
3.34622e-12
2.33913e-12
2.37947e-12
2.82381e-12
4.01249e-12
5.82573e-12
6.95213e-12
1.32203e-11
2.88079e-11
7.98418e-11
2.41333e-09
4.24579e-08
4.09526e-06
4.28228e-05
9.26153e-05
0.000107821
9.40878e-05
4.64341e-14
3.78732e-13
3.15893e-15
2.53569e-15
2.52116e-15
8.46861e-15
2.62098e-14
5.77584e-14
1.02646e-13
1.71337e-13
2.96607e-13
5.1127e-13
8.38116e-13
1.30783e-12
2.02169e-12
3.17091e-12
6.39805e-12
7.60717e-11
6.09492e-09
1.24867e-07
8.56451e-07
1.30603e-06
1.5563e-06
2.53163e-16
1.01776e-14
8.88357e-16
2.05438e-16
6.58819e-17
4.15241e-16
2.66959e-15
4.44883e-14
1.04668e-13
1.62145e-13
3.0689e-13
6.46853e-13
1.2248e-12
2.13728e-12
3.52693e-12
5.76614e-12
8.91719e-12
1.31213e-11
7.25978e-11
1.18653e-09
8.81613e-09
3.68069e-08
9.69438e-08
1.27198e-18
5.44805e-17
2.1139e-19
6.9152e-19
4.65076e-18
4.75008e-17
1.51581e-15
2.36559e-14
1.76231e-14
5.76873e-15
6.23464e-15
6.57184e-14
3.95078e-13
1.03942e-12
1.66667e-12
3.02659e-12
5.44663e-12
9.57417e-12
1.51743e-10
1.70273e-09
5.24283e-09
4.54593e-09
2.63415e-09
2.14487e-20
4.73104e-19
1.10374e-20
9.83905e-21
2.78421e-18
5.45982e-17
8.63008e-16
9.1128e-15
3.72579e-15
9.28658e-16
3.20398e-16
2.87362e-15
2.88921e-14
5.91918e-15
8.1041e-16
1.26682e-15
4.39591e-15
1.36304e-14
2.3418e-14
2.92137e-14
8.96756e-14
1.02525e-13
2.04047e-13
1.46061e-22
1.36809e-23
4.57931e-22
1.33917e-20
3.41845e-19
6.70703e-18
1.47355e-16
1.97904e-15
1.23833e-15
6.07958e-16
2.69163e-16
5.66567e-17
7.17231e-18
1.24885e-18
4.99366e-18
7.1039e-17
1.86666e-16
1.29422e-16
1.19043e-15
8.60012e-16
5.21121e-16
1.01462e-15
4.31381e-15
1.46055e-24
5.84034e-26
3.59215e-24
4.19653e-22
2.25634e-20
3.41917e-19
3.91487e-18
1.5353e-16
4.13858e-16
2.66279e-16
1.06587e-16
2.87677e-17
6.03382e-18
1.22991e-18
7.76019e-19
3.03314e-18
1.15932e-17
3.37573e-17
7.77354e-17
1.59292e-16
4.47646e-16
2.07414e-15
9.65297e-15
3.98384e-27
6.62226e-30
5.22558e-29
7.11641e-27
1.90345e-22
8.34106e-21
1.50628e-19
1.51506e-18
8.92731e-17
5.66584e-17
1.27526e-17
2.26941e-18
3.26715e-19
1.90584e-19
1.27531e-18
6.7707e-18
2.81627e-17
9.37572e-17
2.51069e-16
5.93169e-16
1.53783e-15
5.20168e-15
1.93799e-14
2.40662e-30
4.4319e-33
2.1096e-33
1.74771e-31
1.27375e-28
4.14945e-27
3.6331e-26
1.59164e-25
4.45905e-25
2.17257e-18
1.51668e-19
1.40909e-20
2.33769e-20
2.86738e-19
2.22699e-18
1.15339e-17
4.69085e-17
1.60267e-16
4.86258e-16
1.35021e-15
3.9783e-15
1.32707e-14
4.59601e-14
6.02664e-38
7.16065e-36
1.38498e-33
1.93192e-31
2.25675e-29
1.70737e-27
2.57821e-26
1.74962e-25
8.72408e-25
6.43692e-24
1.08479e-22
2.27017e-21
3.53232e-20
4.0122e-19
3.14412e-18
1.62782e-17
6.40099e-17
2.12291e-16
6.39849e-16
1.83233e-15
5.33708e-15
1.62599e-14
5.01964e-14
1.65871e-38
1.83942e-35
3.33134e-33
4.19834e-31
2.97208e-29
1.08101e-27
1.58851e-26
1.39727e-25
1.09312e-24
9.68892e-24
1.50659e-22
2.60188e-21
3.46205e-20
3.34937e-19
2.14076e-18
9.34576e-18
3.38925e-17
1.08398e-16
3.20813e-16
9.01772e-16
2.54722e-15
7.34586e-15
2.09843e-14
4.16521e-38
3.65909e-35
6.00324e-33
6.18528e-31
2.50537e-29
5.35537e-28
7.53024e-27
8.22752e-26
8.39954e-25
8.81409e-24
1.20578e-22
1.36641e-21
1.15964e-20
7.64203e-20
3.8113e-19
1.47437e-18
4.93311e-18
1.56984e-17
4.98158e-17
1.53778e-16
4.49664e-16
1.26611e-15
3.53968e-15
7.7393e-38
4.5328e-35
6.4973e-33
3.4928e-31
9.94994e-30
1.81271e-28
2.50774e-27
2.98831e-26
3.3542e-25
3.51794e-24
3.65568e-23
2.85216e-22
1.75574e-21
9.24324e-21
3.89249e-20
1.41521e-19
4.78409e-19
1.56673e-18
4.98055e-18
1.53757e-17
4.39281e-17
1.18368e-16
3.19931e-16
8.33684e-38
2.02656e-35
1.51249e-33
6.07655e-32
1.64208e-30
3.12555e-29
4.67258e-28
5.85004e-27
6.48627e-26
5.91344e-25
4.72414e-24
2.97353e-23
1.56968e-22
6.94005e-22
2.51168e-21
8.87762e-21
3.00643e-20
9.70168e-20
2.99921e-19
8.87991e-19
2.3861e-18
5.7499e-18
1.41407e-17
1.48423e-38
1.65985e-36
1.07718e-34
4.68412e-33
1.45931e-31
3.27085e-30
5.37792e-29
6.7357e-28
6.5226e-27
4.92772e-26
3.22859e-25
1.93809e-24
1.10699e-23
5.61112e-23
2.77334e-22
1.24088e-21
4.62728e-21
1.51345e-20
4.49479e-20
1.17653e-19
2.64896e-19
5.28156e-19
1.08778e-18
7.91443e-40
1.27222e-37
1.1112e-35
5.21845e-34
1.50051e-32
3.03843e-31
4.46119e-30
5.09601e-29
4.72126e-28
3.74756e-27
2.73625e-26
1.90698e-25
1.23135e-24
7.07669e-24
3.59693e-23
1.54525e-22
5.82394e-22
1.97275e-21
5.86758e-21
1.51423e-20
3.40378e-20
6.86831e-20
1.36057e-19
5.88509e-41
1.07364e-38
7.06407e-37
2.59753e-35
6.67985e-34
1.30088e-32
2.06091e-31
2.73113e-30
3.07431e-29
3.01364e-28
2.60638e-27
2.0184e-26
1.38724e-25
8.26311e-25
4.25535e-24
1.9192e-23
7.8636e-23
2.83877e-22
8.73273e-22
2.32391e-21
5.40827e-21
1.14601e-20
2.349e-20
4.31814e-42
4.566e-40
2.58662e-38
1.01898e-36
2.90878e-35
6.37957e-34
1.12316e-32
1.61549e-31
1.97869e-30
2.17964e-29
2.06021e-28
1.66494e-27
1.15947e-26
7.16594e-26
3.84628e-25
1.82885e-24
7.63936e-24
2.78353e-23
8.99111e-23
2.5972e-22
6.78818e-22
1.64737e-21
3.77915e-21
7.43405e-44
1.26625e-41
9.52138e-40
4.19508e-38
1.25261e-36
2.7948e-35
4.96683e-34
7.34402e-33
9.38588e-32
1.06203e-30
1.07727e-29
9.39374e-29
7.05143e-28
4.71436e-27
2.81422e-26
1.4917e-25
6.80444e-25
2.69511e-24
9.61633e-24
3.08619e-23
8.97591e-23
2.41744e-22
6.02103e-22
6.33059e-45
7.99391e-43
4.88248e-41
1.92535e-39
5.62304e-38
1.30382e-36
2.48656e-35
3.9893e-34
5.5098e-33
6.61528e-32
6.85177e-31
6.07708e-30
4.73074e-29
3.19791e-28
1.9088e-27
1.00949e-26
4.84672e-26
2.15689e-25
8.62397e-25
3.10412e-24
1.02101e-23
3.06078e-23
8.28424e-23
3.75736e-47
6.4555e-45
5.16333e-43
2.55791e-41
9.05902e-40
2.46372e-38
5.40707e-37
9.87515e-36
1.51303e-34
1.92078e-33
2.09089e-32
2.07023e-31
1.85295e-30
1.47058e-29
1.02801e-28
6.40811e-28
3.58576e-27
1.75707e-26
7.60119e-26
3.0012e-25
1.08207e-24
3.51679e-24
1.05844e-23
1.51537e-48
2.36201e-46
1.75014e-44
8.3657e-43
2.90762e-41
7.85541e-40
1.71596e-38
3.14985e-37
4.98156e-36
6.96927e-35
8.67413e-34
9.446e-33
8.94618e-32
7.56936e-31
5.63896e-30
3.6763e-29
2.14466e-28
1.14173e-27
5.62512e-27
2.50411e-26
9.96986e-26
3.61635e-25
1.2955e-24
1.12814e-50
1.89219e-48
1.52554e-46
8.02434e-45
3.15743e-43
9.9921e-42
2.62578e-40
5.79398e-39
1.08376e-37
1.73969e-36
2.40603e-35
2.85891e-34
2.95889e-33
2.69485e-32
2.22698e-31
1.70787e-30
1.18522e-29
7.32579e-29
3.95576e-28
1.88683e-27
8.23695e-27
3.48152e-26
1.61056e-25
1.43668e-52
2.72783e-50
2.49101e-48
1.46964e-46
6.28011e-45
2.0693e-43
5.54072e-42
1.24325e-40
2.37902e-39
3.94193e-38
5.8166e-37
7.84055e-36
9.64162e-35
1.05726e-33
1.01599e-32
8.34751e-32
5.99249e-31
3.85088e-30
2.26466e-29
1.23745e-28
6.38574e-28
3.41873e-27
2.28852e-26
7.06986e-55
1.45481e-52
1.46248e-50
9.72812e-49
4.86398e-47
1.94737e-45
6.43573e-44
1.79024e-42
4.25774e-41
8.70644e-40
1.51767e-38
2.24467e-37
2.84486e-36
3.16617e-35
3.15164e-34
2.87963e-33
2.41503e-32
1.83002e-31
1.24515e-30
7.75174e-30
4.88723e-29
3.75442e-28
3.8215e-27
6.09251e-57
1.40923e-54
1.57522e-52
1.15077e-50
6.16861e-49
2.59225e-47
8.88326e-46
2.54506e-44
6.20406e-43
1.30696e-41
2.42597e-40
4.05164e-39
6.11381e-38
8.26402e-37
9.94455e-36
1.05009e-34
9.65531e-34
7.90041e-33
5.99021e-32
4.61386e-31
4.21328e-30
5.053e-29
7.24301e-28
1.72224e-59
4.53776e-57
5.96382e-55
5.228e-53
3.42416e-51
1.77601e-49
7.52751e-48
2.6611e-46
7.96799e-45
2.04312e-43
4.50715e-42
8.56009e-41
1.41087e-39
2.03689e-38
2.59775e-37
2.96426e-36
3.07735e-35
2.96761e-34
2.83857e-33
3.11273e-32
4.47763e-31
7.88075e-30
1.44299e-28
6.58722e-62
2.03723e-59
3.05702e-57
3.02607e-55
2.21102e-53
1.27012e-51
5.95399e-50
2.33255e-48
7.75873e-47
2.21644e-45
5.48903e-44
1.18809e-42
2.26842e-41
3.83503e-40
5.74703e-39
7.66892e-38
9.28642e-37
1.09125e-35
1.45321e-34
2.55926e-33
5.61384e-32
1.29264e-30
2.83588e-29
9.95189e-65
3.90443e-62
7.1762e-60
8.67713e-58
7.74818e-56
5.44511e-54
3.12224e-52
1.4885e-50
5.9786e-49
2.04483e-47
6.00776e-46
1.52527e-44
3.35634e-43
6.44945e-42
1.09575e-40
1.68561e-39
2.50305e-38
4.15784e-37
9.09715e-36
2.51103e-34
7.35065e-33
2.05349e-31
5.26719e-30
1.14249e-67
6.07062e-65
1.37933e-62
2.00738e-60
2.12276e-58
1.7491e-56
1.17436e-54
6.61559e-53
3.18334e-51
1.31602e-49
4.66635e-48
1.42061e-46
3.73308e-45
8.5439e-44
1.73864e-42
3.3337e-41
6.94781e-40
1.89067e-38
6.62383e-37
2.49735e-35
8.99746e-34
2.96607e-32
8.83017e-31
5.69133e-71
5.97554e-68
1.78326e-65
3.14015e-63
3.91399e-61
3.75989e-59
2.94314e-57
1.95802e-55
1.12693e-53
5.64438e-52
2.4629e-50
9.32597e-49
3.05419e-47
8.72431e-46
2.27005e-44
6.15077e-43
2.12845e-41
9.63585e-40
4.75768e-38
2.24375e-36
9.64086e-35
3.72432e-33
1.28797e-31
1.75307e-74
7.39666e-71
2.97092e-68
6.2443e-66
9.05977e-64
1.00431e-61
8.96327e-60
6.67397e-58
4.25151e-56
2.3558e-54
1.14829e-52
4.94965e-51
1.90117e-49
6.71732e-48
2.42621e-46
1.09954e-44
6.69555e-43
4.5258e-41
2.89107e-39
1.65881e-37
8.47317e-36
3.85042e-34
1.55565e-32
7.84348e-77
4.582e-73
1.90088e-70
4.01237e-68
5.76672e-66
6.29196e-64
5.51529e-62
4.02698e-60
2.51867e-58
1.38051e-56
6.75661e-55
3.0047e-53
1.25206e-51
5.34106e-50
2.82916e-48
2.09342e-46
1.86389e-44
1.65508e-42
1.33776e-40
9.49905e-39
5.87717e-37
3.18455e-35
1.52052e-33
1.26281e-77
2.24206e-74
7.28341e-72
1.26643e-69
1.51043e-67
1.37382e-65
1.00968e-63
6.22748e-62
3.32095e-60
1.5725e-58
6.82178e-57
2.84701e-55
1.25804e-53
6.93362e-52
5.28989e-50
5.01586e-48
5.02976e-46
4.9051e-44
4.50519e-42
3.81194e-40
2.8983e-38
1.93124e-36
1.11875e-34
2.86405e-78
2.6976e-75
6.7005e-73
9.39581e-71
9.16681e-69
6.8675e-67
4.19709e-65
2.17652e-63
9.89338e-62
4.10698e-60
1.66713e-58
7.44113e-57
4.1421e-55
2.92498e-53
2.40276e-51
2.13098e-49
1.96751e-47
1.84318e-45
1.70563e-43
1.52698e-41
1.30431e-39
1.04083e-37
7.47756e-36
2.55826e-79
1.64718e-76
3.43598e-74
4.21504e-72
3.6402e-70
2.42759e-68
1.33053e-66
6.32155e-65
2.77755e-63
1.2422e-61
6.36389e-60
3.96328e-58
2.84823e-56
2.17594e-54
1.68798e-52
1.31304e-50
1.02992e-48
8.26439e-47
6.87964e-45
5.95266e-43
5.26279e-41
4.62991e-39
3.93843e-37
2.72578e-81
1.50914e-78
3.12528e-76
3.96348e-74
3.64381e-72
2.70259e-70
1.79931e-68
1.21906e-66
9.2171e-65
7.69732e-63
6.63313e-61
5.61164e-59
4.58281e-57
3.6192e-55
2.78502e-53
2.1065e-51
1.58217e-49
1.19247e-47
9.11622e-46
7.15328e-44
5.84036e-42
5.00853e-40
4.46541e-38
6.50153e-84
3.36854e-81
7.07833e-79
9.20728e-77
8.74352e-75
6.79031e-73
4.86259e-71
3.66515e-69
3.12238e-67
2.88771e-65
2.6894e-63
2.41557e-61
2.06663e-59
1.68965e-57
1.33466e-55
1.03245e-53
7.91372e-52
6.07691e-50
4.7259e-48
3.76195e-46
3.09439e-44
2.65486e-42
2.39883e-40
0.998916
0.99796
0.994781
0.987381
0.852149
0.815774
0.752056
0.665202
0.162852
0.149753
0.124488
0.0863238
0.00162898
0.00144754
0.00119303
0.000902793
7.9211e-05
6.97639e-05
5.98585e-05
4.89236e-05
1.70768e-06
1.79129e-06
1.78745e-06
1.73211e-06
1.15817e-07
1.08323e-07
9.32202e-08
7.64715e-08
9.11921e-10
2.83171e-10
6.55091e-11
2.50292e-11
3.13776e-13
5.27394e-13
6.65604e-13
6.49915e-13
9.66896e-15
2.54891e-14
7.00531e-14
2.03056e-13
2.76089e-14
7.7923e-14
2.11723e-13
6.20754e-13
5.98178e-14
1.56366e-13
4.14343e-13
1.30831e-12
1.55856e-13
3.65181e-13
9.8237e-13
3.06507e-12
1.54334e-13
3.25015e-13
7.58137e-13
2.03392e-12
5.93666e-14
1.19346e-13
2.69063e-13
6.86964e-13
1.04559e-14
2.31717e-14
5.91513e-14
1.68478e-13
9.43558e-16
2.20995e-15
6.35668e-15
2.1217e-14
4.64323e-17
1.49839e-16
6.40312e-16
3.06503e-15
3.43285e-18
1.37848e-17
7.80678e-17
4.79868e-16
3.51975e-19
1.33382e-18
8.93354e-18
6.79574e-17
5.43701e-20
1.62196e-19
1.0295e-18
8.45784e-18
8.46235e-21
1.79056e-20
8.36434e-20
7.0234e-19
1.40373e-21
2.59292e-21
7.87177e-21
5.0409e-20
2.15576e-22
4.34154e-22
1.16717e-21
4.82269e-21
3.33359e-23
8.40121e-23
2.70856e-22
1.04489e-21
5.42667e-24
1.80886e-23
7.23065e-23
3.10941e-22
9.72139e-25
4.25261e-24
2.03812e-23
9.86013e-23
2.01841e-25
1.09294e-24
6.02043e-24
3.23303e-23
4.52618e-26
2.89588e-25
1.81287e-24
1.08998e-23
1.06494e-26
7.85177e-26
5.56041e-25
3.74602e-24
2.51104e-27
2.11405e-26
1.69285e-25
1.28175e-24
5.72802e-28
5.48371e-27
4.96345e-26
4.22942e-25
1.22528e-28
1.33232e-27
1.3636e-26
1.30946e-25
2.36419e-29
2.92612e-28
3.39649e-27
3.6882e-26
3.98088e-30
5.63432e-29
7.45336e-28
9.19814e-27
5.58505e-31
9.10116e-30
1.38136e-28
1.94969e-27
6.40839e-32
1.21533e-30
2.13822e-29
3.4855e-28
5.6488e-33
1.27075e-31
2.6379e-30
5.04817e-29
4.67166e-34
1.28728e-32
3.25278e-31
7.53305e-30
3.13213e-35
1.1146e-33
3.66317e-32
1.1022e-30
4.00335e-36
1.65818e-34
6.55831e-33
2.44258e-31
2.28196e-38
1.04382e-36
4.8129e-35
2.23999e-33
0.875803
0.651784
0.327299
0.172357
0.121675
0.0783399
0.0478898
0.0284276
0.0212829
0.0188895
0.0201394
0.0330645
0.123997
0.125549
0.0748811
0.0115837
0.00314579
0.0313706
0.275259
0.409852
0.182861
0.0924633
0.0505209
0.0177927
0.00886913
0.00339271
0.00156121
0.000878611
0.00070616
0.000900305
0.00174747
0.00855623
0.106606
0.113799
0.112477
0.0191242
0.0521508
0.198096
0.0561655
0.0174375
0.00520847
0.00205801
0.000998697
0.000512982
0.000307211
0.00019976
0.000154135
0.000147167
0.000196122
0.000400396
0.000599449
0.0033418
0.0380551
0.0831112
0.0747855
0.0593793
0.128941
0.000541925
0.000239714
0.000127857
0.000111706
0.000118608
0.000134919
0.000124016
9.03172e-05
8.13729e-05
9.18815e-05
0.000126181
0.000163406
0.000176149
0.000241651
0.00159073
0.0100294
0.0371069
0.0378461
0.0847126
3.13234e-05
1.97136e-05
1.06056e-05
6.78802e-06
7.06315e-06
8.6489e-06
1.15269e-05
1.58056e-05
2.15317e-05
3.51992e-05
6.37057e-05
7.08438e-05
0.000120058
0.000224303
0.000143499
0.000331987
0.00405074
0.00763936
0.0568827
1.46703e-06
9.03572e-07
3.52757e-07
9.62993e-08
3.25219e-08
3.8781e-08
8.18554e-08
1.71446e-07
2.50422e-07
3.37809e-07
3.60287e-07
4.0027e-07
4.1136e-06
3.69878e-05
8.77054e-05
0.000181674
0.000301854
0.000660796
0.038375
3.74849e-08
6.29434e-09
6.29624e-10
3.2976e-10
9.50316e-10
1.86453e-09
2.95632e-09
4.51276e-09
5.73504e-09
1.47503e-08
2.65835e-08
2.74858e-08
2.84563e-08
6.54283e-07
7.2717e-05
0.000312339
0.000312981
0.000335769
0.0272465
7.61515e-12
7.09623e-12
3.0906e-11
2.29744e-10
1.41952e-09
4.22575e-09
4.95287e-09
2.09398e-08
2.43083e-07
1.49978e-06
1.05016e-05
2.25005e-05
2.85072e-05
4.67662e-05
0.000110184
0.000312479
0.000371133
0.000355269
0.0199488
1.07606e-12
6.79333e-12
1.05433e-10
1.12276e-09
4.32129e-09
1.2399e-08
1.67827e-08
1.75983e-07
3.27578e-06
1.36582e-05
2.39899e-05
3.09722e-05
4.32825e-05
0.000105416
0.000185917
0.000226271
0.000413415
0.000391709
0.0145844
1.89796e-12
3.16088e-11
4.44058e-10
2.42734e-09
7.37253e-09
1.59808e-08
2.52779e-08
2.6974e-07
3.91334e-06
1.52102e-05
2.5646e-05
3.04135e-05
3.66163e-05
8.05085e-05
0.000186573
0.000237893
0.000401737
0.000594122
0.00992514
5.96662e-12
8.63841e-11
7.20181e-10
3.10021e-09
8.00125e-09
1.45763e-08
2.03246e-08
8.85368e-08
1.53995e-06
9.68539e-06
2.17809e-05
2.86562e-05
3.30919e-05
4.99129e-05
0.000121236
0.000201054
0.000366006
0.000868805
0.0058981
1.05032e-11
1.0157e-10
8.01952e-10
2.90801e-09
5.89558e-09
7.54188e-09
1.5565e-08
2.51375e-08
1.54577e-07
2.58962e-06
1.29193e-05
2.50616e-05
3.04834e-05
3.52903e-05
6.65989e-05
0.000144748
0.00028724
0.000878802
0.00311036
9.13309e-12
8.10247e-11
3.50857e-10
1.31503e-09
3.3177e-09
6.38022e-09
9.21447e-09
1.73395e-08
3.2606e-08
1.65545e-07
2.56665e-06
1.22242e-05
2.51058e-05
3.53476e-05
4.16635e-05
9.94795e-05
0.000256902
0.000735797
0.00159623
5.96282e-12
2.95964e-11
1.37734e-10
4.83936e-10
1.24592e-09
2.72247e-09
5.44746e-09
9.25121e-09
1.91396e-08
3.91712e-08
8.52426e-08
1.24747e-06
7.80734e-06
2.24519e-05
3.81072e-05
5.41637e-05
0.000181564
0.000436889
0.000687982
1.88045e-12
8.88823e-12
3.71761e-11
1.42062e-10
4.32163e-10
1.13775e-09
2.5821e-09
5.2042e-09
9.56105e-09
1.4554e-08
2.10755e-08
2.43333e-08
3.85315e-07
3.36711e-06
1.49992e-05
3.83549e-05
6.11509e-05
0.000119416
0.000137315
5.02398e-13
2.63079e-12
1.23896e-11
5.07932e-11
1.80235e-10
5.47645e-10
1.39927e-09
3.02095e-09
5.90627e-09
1.10139e-08
1.71441e-08
7.15962e-09
6.68677e-09
9.36424e-08
1.43209e-06
7.03854e-06
1.37052e-05
1.6419e-05
1.45089e-05
7.51213e-14
4.99977e-13
3.03517e-12
1.61542e-11
7.31375e-11
2.74413e-10
8.16422e-10
2.08083e-09
4.30137e-09
9.19433e-09
2.04999e-08
7.06859e-09
5.21823e-09
5.49363e-09
3.21558e-08
1.75225e-07
2.51404e-07
1.06264e-07
6.1537e-08
1.48662e-14
1.34605e-13
1.04061e-12
6.69344e-12
3.52906e-11
1.47997e-10
5.31883e-10
1.46374e-09
3.6544e-09
7.74746e-09
1.93763e-08
8.08405e-09
5.2049e-09
5.04964e-09
4.81013e-09
4.83668e-09
4.95292e-09
6.04001e-09
4.77624e-09
2.85121e-15
3.10845e-14
2.87342e-13
2.26072e-12
1.47665e-11
7.73571e-11
3.29508e-10
1.10638e-09
3.1249e-09
7.01035e-09
1.56417e-08
1.99561e-08
6.22229e-09
6.14549e-09
1.0102e-08
1.20711e-08
4.88701e-09
4.53054e-09
3.45275e-09
4.93641e-16
6.6499e-15
7.54355e-14
7.1866e-13
5.64477e-12
3.60591e-11
1.88312e-10
7.85749e-10
2.53403e-09
6.38435e-09
1.33042e-08
2.35603e-08
9.36182e-09
6.41617e-09
1.07569e-08
1.61991e-08
1.45975e-08
6.43152e-09
2.57329e-09
6.84669e-17
1.06116e-15
1.43532e-14
1.65864e-13
1.6018e-12
1.28591e-11
8.4776e-11
4.37921e-10
1.67074e-09
5.39264e-09
1.21391e-08
2.35236e-08
2.09211e-08
8.87422e-09
1.13597e-08
1.61958e-08
1.50818e-08
7.40273e-09
1.9978e-09
6.52122e-18
1.20455e-16
1.9424e-15
2.69044e-14
3.17088e-13
3.18387e-12
2.67166e-11
1.78289e-10
9.03425e-10
3.35529e-09
9.27188e-09
1.90919e-08
2.20701e-08
1.39093e-08
1.24007e-08
1.41783e-08
1.27467e-08
6.2983e-09
1.36305e-09
4.63581e-19
9.46634e-18
1.76046e-16
2.86188e-15
4.05122e-14
4.95912e-13
5.13497e-12
4.36126e-11
2.89831e-10
1.40128e-09
5.081e-09
1.27197e-08
2.00722e-08
1.28412e-08
1.09137e-08
1.04556e-08
9.50711e-09
5.37893e-09
7.27207e-10
3.10759e-20
5.65082e-19
1.10826e-17
2.04229e-16
3.38302e-15
4.91503e-14
6.1044e-13
6.3393e-12
5.39291e-11
3.51588e-10
1.63719e-09
6.35915e-09
1.36949e-08
9.93536e-09
7.49026e-09
6.2116e-09
6.89109e-09
4.48505e-09
3.81953e-10
4.54766e-21
4.65951e-20
6.30559e-19
1.07269e-17
1.91878e-16
3.20424e-15
4.73089e-14
6.03819e-13
6.47449e-12
5.61255e-11
3.75095e-10
1.82454e-09
5.74403e-09
5.45026e-09
3.16296e-09
3.16909e-09
4.99454e-09
3.52623e-09
2.14949e-10
1.34525e-21
1.11439e-20
8.96899e-20
8.09678e-19
9.83578e-18
1.53833e-16
2.52103e-15
3.82259e-14
5.11384e-13
5.95067e-12
5.06521e-11
3.20773e-10
1.33856e-09
1.67564e-09
7.72633e-10
5.22518e-10
4.07557e-09
2.58079e-09
1.29883e-10
4.63525e-22
4.06983e-21
3.21466e-20
2.29827e-19
1.55584e-18
1.15869e-17
1.20682e-16
1.73916e-15
2.71994e-14
3.76527e-13
3.61581e-12
3.06443e-11
1.74166e-10
2.51335e-10
1.05541e-10
2.44705e-11
2.81579e-09
1.86147e-09
1.3301e-10
1.66414e-22
1.61805e-21
1.40143e-20
1.07688e-19
7.31895e-19
4.40695e-18
2.43141e-17
1.43882e-16
1.29738e-15
1.67911e-14
1.8387e-13
1.56412e-12
1.22477e-11
1.04894e-11
2.78238e-12
7.32537e-12
1.84679e-09
1.34416e-09
1.34748e-10
6.23642e-23
6.76969e-22
6.52984e-21
5.56646e-20
4.17553e-19
2.74044e-18
1.56756e-17
7.82904e-17
3.50492e-16
1.60025e-15
8.99832e-15
6.19812e-14
5.75556e-13
3.19587e-13
4.81736e-13
2.65731e-12
9.1724e-10
8.65949e-10
1.17765e-10
2.38685e-23
2.91174e-22
3.14814e-21
3.00306e-20
2.519e-19
1.84924e-18
1.18332e-17
6.58042e-17
3.16833e-16
1.31807e-15
4.81847e-15
1.56784e-14
5.09314e-14
1.48445e-13
3.20507e-13
1.03014e-12
5.10713e-10
5.1213e-10
7.72768e-11
9.13668e-24
1.25523e-22
1.52667e-21
1.63783e-20
1.54612e-19
1.27975e-18
9.25526e-18
5.82984e-17
3.18968e-16
1.50658e-15
6.18237e-15
2.24048e-14
6.71679e-14
2.24504e-13
4.88977e-13
8.33112e-13
2.73201e-10
2.48899e-10
4.12285e-11
3.38187e-24
5.25105e-23
7.21555e-22
8.75208e-21
9.35529e-20
8.79293e-19
7.24033e-18
5.21275e-17
3.27799e-16
1.78829e-15
8.44703e-15
3.46576e-14
1.18633e-13
3.8559e-13
9.28707e-13
1.93185e-12
1.16103e-10
9.13461e-11
1.80045e-11
1.17693e-24
2.06715e-23
3.21069e-22
4.40301e-21
5.32462e-20
5.66897e-19
5.30331e-18
4.35701e-17
3.13969e-16
1.9759e-15
1.07989e-14
5.08999e-14
2.00812e-13
7.00285e-13
1.99788e-12
5.82405e-12
2.80613e-11
2.02109e-11
1.10028e-11
3.74004e-25
7.44683e-24
1.30867e-22
2.02686e-21
2.7633e-20
3.30815e-19
3.47043e-18
3.19122e-17
2.57363e-16
1.82046e-15
1.12824e-14
6.04212e-14
2.69175e-13
9.66594e-13
2.62346e-12
5.48168e-12
9.75612e-12
1.0967e-11
9.20517e-12
1.05736e-25
2.39509e-24
4.77284e-23
8.35199e-22
1.2802e-20
1.71283e-19
1.99931e-18
2.02599e-17
1.77623e-16
1.34759e-15
8.90043e-15
5.13026e-14
2.48102e-13
9.25006e-13
2.42901e-12
4.60892e-12
6.91733e-12
7.81415e-12
8.84698e-12
2.5552e-26
6.60927e-25
1.49643e-23
2.95932e-22
5.09462e-21
7.62729e-20
9.84476e-19
1.08324e-17
1.00748e-16
7.87195e-16
5.18209e-15
2.92226e-14
1.41957e-13
5.66984e-13
1.61673e-12
3.16652e-12
4.40254e-12
5.32606e-12
8.58305e-12
5.25743e-27
1.56595e-25
4.05957e-24
9.14063e-23
1.78586e-21
3.00249e-20
4.28031e-19
5.11517e-18
5.05817e-17
4.08026e-16
2.6558e-15
1.40472e-14
6.19201e-14
2.41189e-13
7.66448e-13
1.79825e-12
2.39491e-12
3.54624e-12
8.09002e-12
8.89863e-28
3.09287e-26
9.30076e-25
2.42058e-23
5.42994e-22
1.03046e-20
1.63409e-19
2.14077e-18
2.28229e-17
1.94565e-16
1.30157e-15
6.76637e-15
2.76238e-14
9.38204e-14
2.81521e-13
9.02903e-13
1.193e-12
2.48617e-12
7.33049e-12
1.59707e-28
6.63569e-27
2.35798e-25
7.18762e-24
1.85163e-22
3.98365e-21
7.08067e-20
1.02593e-18
1.19205e-17
1.09073e-16
7.69333e-16
4.08485e-15
1.65751e-14
4.80502e-14
1.45484e-13
4.67673e-13
5.90794e-13
1.60315e-12
6.31391e-12
3.01873e-29
1.60645e-27
7.21398e-26
2.71693e-24
8.50231e-23
2.19945e-21
4.66186e-20
7.97379e-19
1.07899e-17
1.12935e-16
8.95559e-16
5.26356e-15
2.30861e-14
7.13221e-14
1.66064e-13
3.22349e-13
4.11804e-13
1.2049e-12
5.08609e-12
8.44049e-30
5.78878e-28
3.30421e-26
1.54356e-24
5.86437e-23
1.80664e-21
4.47932e-20
8.8114e-19
1.34888e-17
1.56568e-16
1.33003e-15
7.98401e-15
3.21057e-14
8.80805e-14
1.50374e-13
1.57906e-13
3.33373e-13
1.0486e-12
3.41998e-12
1.05598e-31
1.16819e-29
1.10854e-27
7.74989e-26
4.12169e-24
1.71583e-22
5.65068e-21
1.46666e-19
2.94292e-18
4.3976e-17
4.62458e-16
3.1988e-15
1.45649e-14
3.2563e-14
7.55774e-14
1.50045e-14
3.11778e-13
9.27387e-13
2.32538e-12
)
;

boundaryField
{
    leftWall
    {
        type            zeroGradient;
    }
    rightWall
    {
        type            zeroGradient;
    }
    lowerWall
    {
        type            zeroGradient;
    }
    atmosphere
    {
        type            inletOutlet;
        inletValue      uniform 0;
        value           nonuniform List<scalar> 
46
(
0
0
0
0
0
0
0
0
0
0
0
0
0
0
0
0
0
0
0
0
0
0
0
0
0
0
0
0
1.16819e-29
1.10854e-27
7.74989e-26
4.12169e-24
1.71583e-22
5.65068e-21
1.46666e-19
2.94292e-18
4.3976e-17
4.62458e-16
3.1988e-15
1.45649e-14
3.2563e-14
7.55774e-14
0
3.11778e-13
9.27387e-13
2.32538e-12
)
;
    }
    defaultFaces
    {
        type            empty;
    }
}


// ************************************************************************* //
