/*--------------------------------*- C++ -*----------------------------------*\
| =========                 |                                                 |
| \\      /  F ield         | OpenFOAM: The Open Source CFD Toolbox           |
|  \\    /   O peration     | Version:  2.4.0                                 |
|   \\  /    A nd           | Web:      www.OpenFOAM.org                      |
|    \\/     M anipulation  |                                                 |
\*---------------------------------------------------------------------------*/
FoamFile
{
    version     2.0;
    format      ascii;
    class       volScalarField;
    location    "0.55";
    object      alpha.oil;
}
// * * * * * * * * * * * * * * * * * * * * * * * * * * * * * * * * * * * * * //

dimensions      [0 0 0 0 0 0 0];

internalField   nonuniform List<scalar> 
2268
(
3.25678e-19
1.90024e-18
3.33661e-18
2.30857e-17
1.9254e-17
2.20817e-17
6.97492e-17
1.36928e-16
2.76975e-16
1.46806e-15
1.44326e-13
1.64301e-12
9.11109e-12
2.88668e-11
6.76742e-11
1.86705e-10
4.88707e-10
1.08337e-09
2.12599e-09
3.95726e-09
8.92927e-09
5.49117e-07
1.11021e-05
6.01152e-18
3.36577e-17
7.62445e-17
3.03563e-16
3.02338e-16
4.06407e-16
1.12938e-15
2.08213e-15
3.84213e-15
8.4052e-15
2.86799e-13
2.97699e-12
1.81629e-11
4.70655e-11
9.40464e-11
3.10122e-10
1.10954e-09
3.28457e-09
6.39524e-09
9.26988e-09
1.42833e-08
6.11649e-07
1.42043e-05
5.38208e-17
2.94442e-16
8.32633e-16
2.06594e-15
2.42499e-15
3.81906e-15
9.3224e-15
1.57317e-14
2.65996e-14
4.20798e-14
2.58947e-13
1.94502e-12
1.09363e-11
3.40783e-11
8.95779e-11
3.63307e-10
1.37885e-09
4.66631e-09
1.37291e-08
2.4636e-08
3.07733e-08
4.97712e-07
1.23494e-05
3.10031e-16
1.7036e-15
5.74282e-15
9.69313e-15
1.29811e-14
2.47732e-14
5.098e-14
7.6989e-14
1.26223e-13
1.86957e-13
3.71493e-13
1.47562e-12
7.71032e-12
2.33517e-11
6.13475e-11
2.73547e-10
1.35267e-09
5.43969e-09
2.15464e-08
6.21204e-08
7.438e-08
5.18713e-07
1.23282e-05
1.28602e-15
7.39344e-15
2.71087e-14
3.61548e-14
5.16931e-14
1.21143e-13
2.06277e-13
2.66683e-13
5.842e-13
8.07022e-13
8.78121e-13
2.18028e-12
5.52464e-12
1.03887e-10
7.59916e-10
4.0047e-09
5.01991e-09
1.01279e-08
4.00108e-08
1.31535e-07
1.71797e-07
6.2555e-07
1.27553e-05
4.13991e-15
2.57997e-14
9.42432e-14
1.14217e-13
1.73301e-13
4.36123e-13
9.84938e-13
6.59421e-13
3.50688e-12
3.88202e-12
2.3827e-12
4.02915e-12
1.11385e-11
6.46202e-11
3.05779e-09
6.5375e-08
3.10545e-07
3.9827e-07
5.37543e-07
6.2341e-07
4.45362e-07
8.89722e-07
1.43775e-05
1.1746e-14
7.80174e-14
2.67554e-13
3.18417e-13
5.81082e-13
1.01478e-12
3.17408e-11
1.46832e-12
3.1502e-10
5.47594e-10
1.56316e-11
4.31562e-12
1.07476e-11
4.21986e-10
1.14161e-08
1.7944e-07
1.27721e-06
7.00038e-06
3.76783e-06
3.41929e-06
1.94837e-06
1.48777e-06
1.73638e-05
2.97641e-14
2.09995e-13
6.87964e-13
8.73234e-13
2.21217e-12
1.2607e-12
1.55894e-08
1.3872e-09
1.05358e-07
1.49114e-07
1.14841e-08
4.54475e-12
4.77272e-12
9.39145e-10
5.02639e-07
2.44366e-06
2.19519e-06
2.89879e-05
3.80486e-05
7.96257e-06
3.14274e-06
2.04189e-06
1.98181e-05
0.947737
0.903734
0.895551
0.893911
0.892244
0.867034
0.816716
0.762407
0.710991
0.650214
0.623876
0.608939
0.60203
0.597371
0.590602
0.55649
0.489357
0.488649
0.488032
0.977637
0.951086
0.904948
0.919011
0.929957
0.929134
0.913951
0.897163
0.888465
0.877943
0.854687
0.823122
0.819866
0.828206
0.889996
0.943666
0.901953
0.520781
0.486718
0.963605
0.904732
0.852423
0.858953
0.866562
0.860336
0.845867
0.839816
0.845328
0.854151
0.853569
0.842083
0.847921
0.889923
0.960443
0.983937
0.975276
0.912719
0.485454
0.934069
0.849935
0.764288
0.770074
0.782661
0.782622
0.776932
0.780758
0.797038
0.831541
0.844743
0.831802
0.84463
0.912396
0.978049
0.983867
0.976367
0.952185
0.484528
0.859701
0.745934
0.640473
0.657268
0.687735
0.705753
0.722325
0.743924
0.77628
0.833642
0.845901
0.831035
0.850236
0.946505
0.983844
0.983844
0.983097
0.956187
0.54635
0.700038
0.52339
0.471585
0.529526
0.594643
0.644599
0.691127
0.727883
0.772894
0.844454
0.84407
0.825602
0.623466
0.63459
0.958796
0.983844
0.983844
0.953773
0.599066
0.457009
0.262355
0.277857
0.395433
0.51533
0.605825
0.687866
0.763294
0.838896
0.843529
0.845002
0.802194
0.322228
0.02901
0.459242
0.767739
0.713084
0.770745
0.624795
0.156226
0.101347
0.12405
0.216922
0.362658
0.527504
0.665154
0.790801
0.842805
0.843996
0.843512
0.791511
0.342376
0.0160704
0.0459615
0.137973
0.0944463
0.275131
0.669118
6.97841e-14
5.35903e-13
1.69676e-12
2.97684e-12
1.18464e-11
1.47312e-09
3.31425e-07
2.00707e-06
3.3193e-06
4.51276e-06
3.59943e-06
2.87413e-06
1.79335e-06
4.70756e-07
2.4156e-07
7.03264e-07
4.53674e-06
3.20943e-05
0.000250541
0.000198007
0.000194084
2.69472e-05
2.33439e-05
2.50754e-13
2.32563e-12
7.71884e-12
1.42072e-10
6.45653e-09
3.6155e-07
9.39811e-06
0.000308838
0.00080535
0.00125808
0.000826432
0.000458217
9.87537e-05
8.0433e-06
2.71318e-06
1.53155e-06
5.86584e-06
2.38942e-05
0.000236475
0.00110436
0.00170011
0.00100924
0.000807429
9.03884e-13
1.10376e-11
4.09131e-11
9.73396e-09
2.09005e-07
8.74981e-05
0.00363317
0.0280281
0.049499
0.0620073
0.0476147
0.0315074
0.0116619
0.0027902
0.000508252
0.000109662
2.88248e-05
3.46142e-05
0.000111362
0.000438612
0.000961201
0.00190104
0.00372101
4.57059e-12
5.20002e-11
8.00721e-10
5.53932e-07
5.58498e-05
0.0079696
0.0945604
0.293145
0.409811
0.461051
0.418226
0.343375
0.229707
0.124091
0.040059
0.010168
0.00244928
0.000536573
0.000390157
0.000411901
0.000499088
0.000996503
0.00462973
3.87151e-12
2.62481e-10
1.99138e-09
1.02702e-06
0.000759616
0.0533435
0.358496
0.708568
0.830406
0.854041
0.854948
0.855847
0.805676
0.714287
0.571637
0.33766
0.150144
0.0706427
0.0305859
0.0304959
0.0337837
0.0668171
0.157813
1.10035e-11
5.79087e-11
6.68098e-11
2.59787e-07
0.000435994
0.0436122
0.220507
0.350842
0.45696
0.634161
0.826122
0.929248
0.953756
0.953823
0.953875
0.953824
0.81276
0.6927
0.492518
0.556409
0.552742
0.592909
0.651905
6.72718e-11
1.19036e-09
1.26071e-08
9.59954e-08
0.00027441
0.00266828
0.0057994
0.00062202
0.000280897
0.00618048
0.0552264
0.207721
0.39246
0.58203
0.727781
0.838214
0.894729
0.92309
0.924201
0.882877
0.854262
0.753794
0.614398
7.96418e-10
2.52173e-08
1.68685e-07
8.6329e-07
1.92984e-06
1.35404e-05
2.29682e-05
1.22912e-06
1.05782e-07
7.25502e-08
2.23487e-07
2.4128e-06
4.11422e-05
0.00101675
0.0111241
0.0475547
0.104288
0.173958
0.221537
0.101916
0.0784283
0.0243852
0.00613056
1.23226e-10
1.50405e-09
3.29063e-08
2.83435e-07
1.15618e-07
1.34808e-08
4.49193e-08
9.26802e-08
4.61414e-08
3.47244e-08
3.52692e-08
2.8011e-08
2.74049e-08
3.29668e-08
5.24279e-08
1.14442e-07
2.03452e-07
2.63039e-07
2.81634e-07
2.93069e-07
3.30864e-07
3.37797e-07
1.97053e-07
2.05435e-11
1.61387e-09
1.85777e-08
3.064e-08
1.68322e-08
8.8736e-09
1.43319e-08
2.14502e-08
2.002e-08
3.66901e-08
5.35978e-08
3.75722e-08
2.73812e-08
5.26401e-08
2.01178e-07
2.65973e-07
2.39597e-07
2.0818e-07
1.50528e-07
7.64814e-08
5.62295e-08
5.60287e-08
5.61419e-08
1.43317e-11
5.89739e-10
2.33798e-09
6.08779e-10
2.47378e-10
1.88031e-09
9.1759e-09
1.8836e-08
2.84933e-08
1.10869e-07
1.53193e-07
8.99783e-08
6.73507e-08
2.46668e-07
6.30729e-07
6.30097e-07
5.46789e-07
4.45369e-07
2.62719e-07
8.69728e-08
5.63542e-08
6.19828e-08
6.46358e-08
5.75952e-12
5.59287e-11
1.74631e-10
8.47515e-11
4.06571e-11
4.24516e-10
3.74233e-09
1.68925e-08
5.16943e-08
1.47339e-07
1.37806e-07
3.00071e-08
9.09011e-08
6.30336e-07
6.3012e-07
4.16068e-07
2.6692e-07
2.54152e-07
2.12144e-07
1.35486e-07
7.03829e-08
9.93781e-08
8.84583e-08
4.71424e-13
3.87619e-12
1.30859e-11
1.54374e-11
1.80148e-11
2.58503e-11
7.53715e-11
3.06539e-10
1.34431e-09
3.31414e-08
7.62417e-09
7.59907e-09
1.17039e-07
3.12448e-07
1.91124e-07
5.60511e-08
3.93172e-08
3.26763e-08
2.71329e-08
5.43375e-08
9.55607e-08
8.77952e-08
3.3714e-08
3.50589e-14
2.79138e-13
2.307e-12
5.73172e-12
1.09335e-11
1.75772e-11
3.38739e-11
6.31363e-11
1.16003e-10
1.81547e-10
4.52554e-10
1.20904e-08
5.75979e-08
4.22144e-08
4.87029e-08
4.77293e-08
3.70897e-08
3.14341e-08
2.58218e-08
2.59634e-08
3.91317e-08
2.10927e-08
8.68813e-09
4.2627e-15
5.21567e-14
5.35515e-13
2.70818e-12
6.59445e-12
1.13751e-11
2.59613e-11
6.90314e-11
1.56848e-10
1.99018e-10
1.00314e-09
1.53461e-08
1.53741e-08
2.92433e-08
6.61603e-08
1.21749e-07
7.19239e-08
5.47156e-08
2.58131e-08
1.11668e-08
7.23741e-09
4.68171e-09
2.66453e-09
4.23555e-16
1.02984e-14
1.70499e-13
1.2194e-12
3.30525e-12
6.20056e-12
1.62081e-11
4.98168e-11
1.29173e-10
2.54715e-10
8.64431e-10
4.01444e-09
1.55674e-08
5.67076e-08
1.27817e-07
1.27831e-07
1.10821e-07
6.0527e-08
3.2456e-08
1.01171e-08
4.29739e-09
1.8892e-09
1.80608e-09
1.22117e-16
4.78233e-15
7.46618e-14
4.62214e-13
1.28862e-12
2.86617e-12
9.05438e-12
3.09761e-11
8.49012e-11
2.07493e-10
3.52186e-10
1.43356e-09
1.55907e-08
6.15758e-08
1.21019e-07
1.27833e-07
8.69124e-08
6.02535e-08
3.36596e-08
1.49276e-08
4.59118e-09
1.81479e-09
8.32918e-10
7.27807e-17
2.18565e-15
2.57985e-14
1.34628e-13
3.94614e-13
1.14214e-12
4.55826e-12
1.71608e-11
4.98907e-11
1.36065e-10
1.9539e-10
8.95169e-10
1.28716e-08
4.40901e-08
7.53229e-08
7.87271e-08
7.23795e-08
5.04195e-08
2.92613e-08
1.40813e-08
5.42841e-09
1.38951e-09
5.36459e-10
2.68336e-17
5.54919e-16
5.47654e-15
2.75913e-14
9.92353e-14
4.3159e-13
2.15446e-12
8.79809e-12
2.73799e-11
6.8096e-11
1.05752e-10
2.65868e-10
5.84299e-09
2.3458e-08
2.14499e-08
3.67611e-08
4.81699e-08
3.47599e-08
2.08839e-08
1.05188e-08
4.15819e-09
1.24363e-09
2.56138e-10
3.96183e-18
7.18038e-17
7.00491e-16
4.09489e-15
2.29177e-14
1.47544e-13
8.15745e-13
3.40737e-12
1.04698e-11
2.28696e-11
3.34674e-11
5.5509e-11
1.04657e-09
4.51369e-09
1.83974e-08
2.45861e-08
2.61134e-08
1.90633e-08
1.19853e-08
6.40683e-09
2.67926e-09
8.17274e-10
1.85576e-10
6.88095e-21
5.54827e-19
1.8237e-17
3.24361e-16
3.76039e-15
3.04267e-14
1.79062e-13
7.74406e-13
2.40108e-12
5.10247e-12
7.74976e-12
1.7259e-11
9.69765e-11
1.48321e-09
3.54382e-09
8.96628e-09
1.09179e-08
8.32271e-09
4.7775e-09
2.66931e-09
1.1508e-09
3.73489e-10
9.63544e-11
1.04892e-21
5.75821e-20
1.64612e-18
2.97009e-17
3.62101e-16
3.12304e-15
1.95651e-14
8.94555e-14
3.02769e-13
7.86856e-13
1.68427e-12
3.88559e-12
1.39657e-11
6.18532e-11
6.50685e-10
1.74406e-09
3.18021e-09
2.672e-09
1.42361e-09
7.48898e-10
3.50882e-10
1.25203e-10
3.31977e-11
1.76522e-23
1.40304e-21
5.23436e-20
1.14898e-18
1.67019e-17
1.72648e-16
1.32732e-15
7.79769e-15
3.58489e-14
1.31191e-13
3.9195e-13
1.01053e-12
2.66773e-12
8.30585e-12
2.76994e-11
1.67842e-10
4.18469e-10
5.13623e-10
3.16053e-10
1.39251e-10
6.78826e-11
2.88502e-11
1.07913e-11
4.50509e-24
2.97149e-22
9.68512e-21
1.96513e-19
2.80572e-18
2.98779e-17
2.44169e-16
1.56102e-15
7.98529e-15
3.33481e-14
1.14782e-13
3.3535e-13
9.36248e-13
2.71633e-12
7.43923e-12
1.45758e-11
2.75208e-11
5.80537e-11
4.87172e-11
2.41532e-11
1.07467e-11
5.14192e-12
2.63192e-12
2.83826e-25
2.08837e-23
7.53466e-22
1.66269e-20
2.56243e-19
2.94994e-18
2.65299e-17
1.91858e-16
1.12804e-15
5.3395e-15
2.06417e-14
6.77352e-14
1.90668e-13
4.57972e-13
9.61055e-13
1.86904e-12
3.55254e-12
5.93464e-12
6.86163e-12
5.92829e-12
3.49301e-12
1.56229e-12
6.82492e-13
3.67823e-26
2.6444e-24
9.39738e-23
2.0955e-21
3.28877e-20
3.85345e-19
3.48537e-18
2.5098e-17
1.47018e-16
7.17683e-16
2.97353e-15
1.05015e-14
3.15584e-14
8.25619e-14
1.86674e-13
3.59921e-13
5.9504e-13
8.24017e-13
9.22488e-13
8.06137e-13
5.42994e-13
2.84171e-13
1.3317e-13
4.1013e-28
3.15043e-26
1.19743e-24
2.86266e-23
4.90719e-22
6.48386e-21
6.85817e-20
5.91157e-19
4.2051e-18
2.4951e-17
1.23387e-16
5.04385e-16
1.71443e-15
4.89011e-15
1.18764e-14
2.50703e-14
4.52229e-14
6.81324e-14
8.33159e-14
8.10504e-14
6.23308e-14
3.825e-14
2.10666e-14
4.28362e-30
3.66412e-28
1.55486e-26
4.16823e-25
7.91834e-24
1.13127e-22
1.27111e-21
1.15421e-20
8.59438e-20
5.31021e-19
2.78376e-18
1.26612e-17
5.01981e-17
1.71504e-16
5.0046e-16
1.21578e-15
2.45287e-15
4.12462e-15
5.74356e-15
6.53282e-15
5.909e-15
4.2641e-15
2.78219e-15
2.10172e-32
1.9582e-30
9.11596e-29
2.71104e-27
5.82411e-26
9.63189e-25
1.26883e-23
1.36154e-22
1.21272e-21
9.07514e-21
5.70127e-20
2.99207e-19
1.31435e-18
4.88832e-18
1.5469e-17
4.21385e-17
9.8854e-17
1.95928e-16
3.20761e-16
4.23509e-16
4.47794e-16
3.88804e-16
3.08199e-16
1.11974e-34
1.17278e-32
6.07208e-31
2.00427e-29
4.73579e-28
8.54605e-27
1.22482e-25
1.42865e-24
1.37759e-23
1.11081e-22
7.59199e-22
4.47087e-21
2.28212e-20
1.00628e-19
3.82029e-19
1.23447e-18
3.34384e-18
7.56407e-18
1.42147e-17
2.20542e-17
2.79547e-17
2.95099e-17
2.8817e-17
2.72439e-37
3.19966e-35
1.89906e-33
7.27597e-32
2.01772e-30
4.30167e-29
7.29701e-28
1.0076e-26
1.15242e-25
1.10619e-24
8.97591e-24
6.16895e-23
3.60497e-22
1.79794e-21
7.66671e-21
2.79936e-20
8.75787e-20
2.32846e-19
5.19042e-19
9.56294e-19
1.45642e-18
1.89539e-18
2.30857e-18
6.2344e-40
8.5182e-38
5.77022e-36
2.51472e-34
7.89469e-33
1.90217e-31
3.65351e-30
5.73291e-29
7.47133e-28
8.17872e-27
7.58314e-26
5.99947e-25
4.08304e-24
2.39608e-23
1.21013e-22
5.23984e-22
1.93238e-21
6.02976e-21
1.58456e-20
3.49572e-20
6.50024e-20
1.05285e-19
1.60452e-19
7.34375e-43
1.21322e-40
9.75981e-39
5.04732e-37
1.88271e-35
5.4014e-34
1.23782e-32
2.31544e-31
3.59069e-30
4.67324e-29
5.15428e-28
4.84603e-27
3.89215e-26
2.67909e-25
1.5849e-24
8.05712e-24
3.51312e-23
1.30851e-22
4.13815e-22
1.10771e-21
2.53405e-21
5.13407e-21
9.78204e-21
5.88616e-46
1.24195e-43
1.20907e-41
7.46391e-40
3.29811e-38
1.11615e-36
3.01812e-35
6.70161e-34
1.24488e-32
1.95421e-31
2.60175e-30
2.94839e-29
2.85662e-28
2.37345e-27
1.69358e-26
1.03793e-25
5.45492e-25
2.45146e-24
9.40174e-24
3.08196e-23
8.74588e-23
2.22015e-22
5.27212e-22
2.45269e-49
8.09352e-47
1.00605e-44
7.54349e-43
3.97442e-41
1.58641e-39
5.04379e-38
1.33051e-36
2.9746e-35
5.6931e-34
9.37051e-33
1.32586e-31
1.6082e-30
1.66849e-29
1.47636e-28
1.11469e-27
7.19061e-27
3.96629e-26
1.87221e-25
7.59356e-25
2.68638e-24
8.53966e-24
2.52593e-23
5.56279e-53
4.4066e-50
7.34453e-48
6.7064e-46
4.21583e-44
2.00285e-42
7.5706e-41
2.35916e-39
6.21048e-38
1.40315e-36
2.75077e-35
4.6997e-34
6.99649e-33
9.05177e-32
1.01146e-30
9.70244e-30
7.93729e-29
5.51196e-28
3.25466e-27
1.65031e-26
7.31458e-26
2.91217e-25
1.07858e-24
2.43811e-56
4.41715e-53
8.78919e-51
9.04899e-49
6.33588e-47
3.34953e-45
1.41256e-43
4.92004e-42
1.45232e-40
3.70489e-39
8.27926e-38
1.63167e-36
2.83811e-35
4.34609e-34
5.86553e-33
6.93937e-32
7.13985e-31
6.32878e-30
4.78915e-29
3.09658e-28
1.7373e-27
8.70645e-27
4.12921e-26
1.78034e-58
1.86224e-55
3.59862e-53
3.69763e-51
2.58198e-49
1.3591e-47
5.70333e-46
1.97885e-44
5.83777e-43
1.49768e-41
3.40944e-40
7.00225e-39
1.30947e-37
2.22996e-36
3.43557e-35
4.73227e-34
5.76268e-33
6.17624e-32
5.81829e-31
4.80012e-30
3.46616e-29
2.22629e-28
1.41532e-27
4.46206e-60
2.8611e-57
4.80326e-55
4.51258e-53
2.92244e-51
1.43814e-49
5.70107e-48
1.88609e-46
5.33123e-45
1.31238e-43
2.85812e-42
5.58827e-41
9.94897e-40
1.63323e-38
2.49363e-37
3.56137e-36
4.74791e-35
5.82106e-34
6.43662e-33
6.36129e-32
5.6683e-31
4.7069e-30
4.49418e-29
9.75441e-62
4.58606e-59
6.96255e-57
6.17803e-55
3.828e-53
1.81064e-51
6.91148e-50
2.21123e-48
6.10074e-47
1.48228e-45
3.21479e-44
6.28764e-43
1.11893e-41
1.82568e-40
2.74885e-39
3.8423e-38
5.02319e-37
6.19865e-36
7.26761e-35
8.07525e-34
8.43003e-33
8.643e-32
1.28307e-30
5.81716e-64
2.42305e-61
3.75785e-59
3.52898e-57
2.34848e-55
1.19981e-53
4.94271e-52
1.69977e-50
5.00287e-49
1.28381e-47
2.91948e-46
5.96274e-45
1.10653e-43
1.88483e-42
2.96856e-41
4.34479e-40
5.93814e-39
7.6102e-38
9.18815e-37
1.05602e-35
1.21144e-34
1.79825e-33
6.59631e-32
2.48881e-66
1.01532e-63
1.66019e-61
1.65184e-59
1.16302e-57
6.27472e-56
2.72603e-54
9.86822e-53
3.05288e-51
8.23325e-50
1.96667e-48
4.21604e-47
8.20087e-46
1.46221e-44
2.41569e-43
3.73588e-42
5.44723e-41
7.5299e-40
9.9131e-39
1.24847e-37
1.51768e-36
1.87621e-35
3.24601e-34
6.66932e-05
0.000178185
0.000456812
0.000774734
0.0013893
0.00197951
0.00286675
0.00409061
0.00591642
0.00843426
0.013538
0.0220819
0.0140929
0.0259516
0.0463282
0.0750078
0.251089
0.313232
0.379069
0.444495
0.674402
0.675163
0.674402
0.674936
0.488049
0.41011
0.309104
0.155474
0.00131772
0.000282842
3.94814e-05
7.79771e-06
2.15428e-07
3.38443e-07
3.32585e-07
2.79847e-07
4.91088e-08
4.89117e-08
6.01401e-08
6.95776e-08
7.14401e-08
6.25273e-08
5.22643e-08
4.80106e-08
6.03834e-08
4.12043e-08
3.39848e-08
3.88246e-08
1.45661e-08
1.42464e-08
2.31678e-08
3.89323e-08
7.44423e-09
1.10831e-08
1.71952e-08
2.38872e-08
3.54601e-09
4.87182e-09
6.47809e-09
6.96394e-09
1.57e-09
1.81369e-09
2.0574e-09
2.85447e-09
6.8329e-10
6.34327e-10
6.86668e-10
7.55616e-10
2.54304e-10
2.21451e-10
2.12109e-10
2.05543e-10
1.02521e-10
8.37139e-11
7.09375e-11
6.05196e-11
5.61982e-11
4.22942e-11
3.22625e-11
2.65528e-11
3.0375e-11
2.14309e-11
1.51642e-11
1.15769e-11
1.3256e-11
9.28838e-12
6.37567e-12
4.54816e-12
4.57399e-12
3.2537e-12
2.25134e-12
1.57418e-12
1.36838e-12
1.00477e-12
7.10153e-13
4.94878e-13
3.45913e-13
2.63912e-13
1.92825e-13
1.36449e-13
7.40114e-14
5.87877e-14
4.45009e-14
3.24113e-14
1.33564e-14
1.11488e-14
8.81304e-15
6.67251e-15
2.04231e-15
1.79795e-15
1.49438e-15
1.19368e-15
2.66003e-16
2.49266e-16
2.1989e-16
1.89376e-16
2.97532e-17
2.99086e-17
2.82625e-17
2.68211e-17
2.87738e-18
3.13632e-18
3.23748e-18
3.70916e-18
2.42603e-19
2.91148e-19
3.47553e-19
6.19567e-19
1.79903e-20
2.44289e-20
3.82211e-20
1.29844e-19
1.19404e-21
2.03918e-21
6.173e-21
4.52799e-20
7.30809e-23
1.91534e-22
1.23492e-21
1.34515e-20
4.25829e-24
1.9763e-23
2.13801e-22
2.89339e-21
2.541e-25
2.22893e-24
3.42322e-23
5.52342e-22
1.52229e-26
2.23531e-25
4.39498e-24
8.41019e-23
9.82092e-28
2.2256e-26
5.49814e-25
1.26818e-23
5.25473e-29
1.70001e-27
5.5277e-26
1.66095e-24
5.0336e-30
2.09585e-28
8.53049e-27
3.28907e-25
1.56609e-32
7.12079e-31
3.71973e-29
1.99869e-27
0.0161289
0.0390371
0.0652983
0.0988565
0.160459
0.259066
0.411309
0.5347
0.633588
0.701575
0.725992
0.693209
0.500105
0.223709
0.0259957
0.0131673
0.0153971
0.110721
0.678814
0.0103842
0.0309845
0.0705668
0.107664
0.133942
0.170852
0.230876
0.294007
0.339245
0.376035
0.409729
0.426397
0.455446
0.453503
0.31484
0.0997153
0.0122882
0.0438673
0.605279
0.0539833
0.105225
0.162791
0.235321
0.294797
0.313725
0.300445
0.294504
0.296267
0.2975
0.302956
0.312858
0.330693
0.344956
0.382197
0.345856
0.131101
0.13149
0.575779
0.157007
0.317497
0.431384
0.47428
0.54126
0.56297
0.562873
0.544578
0.526652
0.514074
0.48697
0.441638
0.42936
0.416537
0.415311
0.42642
0.414656
0.437503
0.652077
0.539349
0.538037
0.529523
0.386506
0.305366
0.404972
0.547952
0.607716
0.608134
0.608446
0.608157
0.608446
0.608157
0.608273
0.573862
0.514233
0.555931
0.659869
0.787351
0.592282
0.379131
0.0725463
0.00509656
0.000373566
0.0010052
0.00759642
0.0370449
0.0555266
0.0646021
0.055139
0.0408432
0.0799486
0.203493
0.652802
0.718026
0.642222
0.70953
0.834741
0.0304257
0.00130202
1.55274e-05
6.55829e-07
8.28459e-07
3.58207e-05
0.000246844
0.00106969
0.00454259
0.00618328
0.00609588
0.00630307
0.00843597
0.0237163
0.428648
0.777407
0.761688
0.749487
0.842609
2.25031e-06
3.12894e-07
1.00781e-07
1.17103e-07
1.7385e-07
8.24449e-07
0.00138469
0.0307407
0.122096
0.31394
0.681558
0.691259
0.641378
0.545506
0.450017
0.775642
0.837429
0.798575
0.855982
1.47632e-07
1.01453e-07
1.00324e-07
2.17614e-07
5.59421e-07
5.32545e-05
0.0138427
0.263372
0.800349
0.979679
0.995821
0.996965
0.991044
0.956233
0.690921
0.694121
0.843238
0.841298
0.876117
7.93178e-08
1.10752e-07
3.26623e-07
5.4116e-07
1.20874e-06
0.000403226
0.0427012
0.439099
0.930008
0.998046
0.999729
0.999736
0.999113
0.968228
0.773912
0.696778
0.750314
0.882426
0.899087
6.77154e-08
2.40243e-07
5.06948e-07
7.97569e-07
1.37994e-06
0.000208004
0.0203648
0.249631
0.753144
0.973922
0.998523
0.999744
0.99974
0.992334
0.904469
0.740341
0.831012
0.919551
0.923732
8.14738e-08
2.47809e-07
4.112e-07
5.41115e-07
1.13507e-06
4.67659e-06
0.000412964
0.0193614
0.229397
0.735044
0.974236
0.999048
0.999741
0.999411
0.988735
0.954114
0.95015
0.951149
0.949712
6.55374e-08
1.28421e-07
1.32135e-07
2.17655e-07
3.44691e-07
8.88297e-07
2.1795e-06
0.000118248
0.0144013
0.218055
0.738011
0.975807
0.99934
0.999802
0.999386
0.99427
0.984804
0.976927
0.975248
2.78363e-08
2.57711e-08
4.83905e-08
9.02768e-08
1.31241e-07
2.65881e-07
7.80227e-07
2.66913e-06
9.59552e-05
0.00840078
0.162744
0.669619
0.974119
0.999611
0.999826
0.999376
0.996875
0.994257
0.993706
1.24811e-08
1.55593e-08
2.28782e-08
3.60152e-08
6.10053e-08
1.19139e-07
2.43727e-07
6.53829e-07
3.07722e-06
5.58776e-05
0.00420477
0.0948667
0.572823
0.960213
0.999841
0.999864
0.99981
0.999623
0.999576
3.25837e-09
5.83063e-09
9.17269e-09
1.55921e-08
3.20751e-08
7.10343e-08
1.49783e-07
2.86796e-07
6.39022e-07
3.10749e-06
1.68407e-05
0.00171867
0.0578009
0.464314
0.928108
0.999028
0.999805
0.999403
0.999194
1.12693e-09
1.78821e-09
3.32464e-09
6.78729e-09
1.64613e-08
4.37497e-08
1.0249e-07
2.28024e-07
4.09144e-07
9.12585e-07
2.82235e-06
6.27214e-06
0.00101158
0.0362846
0.244284
0.614218
0.871888
0.987848
0.993511
2.89965e-10
6.27484e-10
1.17331e-09
3.21931e-09
9.43035e-09
2.73882e-08
7.75502e-08
1.7241e-07
3.83914e-07
6.87021e-07
1.77333e-06
2.56024e-06
4.79025e-06
0.000518835
0.00925596
0.037654
0.0597662
0.497192
0.983784
5.17945e-11
1.48875e-10
4.89303e-10
1.35814e-09
5.0712e-09
1.72734e-08
5.4676e-08
1.44363e-07
3.45856e-07
6.57846e-07
1.25693e-06
2.27091e-06
2.62e-06
2.97839e-06
3.03327e-05
0.000136264
0.000237175
0.066255
0.863978
2.37887e-11
2.31604e-11
1.53649e-10
5.92274e-10
2.53023e-09
1.00953e-08
3.60789e-08
1.13436e-07
2.93975e-07
6.24523e-07
1.10806e-06
2.10838e-06
2.36751e-06
2.53747e-06
2.68028e-06
2.5742e-06
2.62796e-06
0.00358542
0.698246
1.02002e-11
1.32069e-11
4.15414e-11
2.08095e-10
1.02543e-09
4.867e-09
1.99667e-08
7.15935e-08
2.05156e-07
5.61884e-07
1.06381e-06
1.90139e-06
2.22496e-06
2.31272e-06
2.15184e-06
2.00049e-06
2.2475e-06
0.00111614
0.643961
3.64531e-12
4.0547e-12
1.14736e-11
7.26685e-11
3.64757e-10
1.83495e-09
8.78588e-09
3.62168e-08
1.2985e-07
3.76962e-07
8.76292e-07
1.56788e-06
2.10653e-06
2.11355e-06
1.87933e-06
1.73154e-06
1.94202e-06
0.000371438
0.677481
1.18399e-12
1.08148e-12
4.07785e-12
1.95917e-11
1.02166e-10
5.41632e-10
2.79926e-09
1.30421e-08
5.34269e-08
1.84754e-07
5.44094e-07
1.16076e-06
1.84844e-06
1.84029e-06
1.57294e-06
1.44472e-06
1.69184e-06
0.000121254
0.6948
3.56396e-13
2.47135e-13
9.31e-13
5.14665e-12
2.85285e-11
1.48156e-10
7.17629e-10
3.46063e-09
1.56036e-08
6.23791e-08
2.06098e-07
6.67539e-07
1.30156e-06
1.39472e-06
1.13933e-06
1.13063e-06
1.50113e-06
4.41455e-05
0.613234
9.64394e-14
4.92507e-14
1.55475e-13
9.31646e-13
5.73748e-12
3.30976e-11
1.73964e-10
8.40802e-10
3.84421e-09
1.64472e-08
6.53128e-08
2.28297e-07
6.05837e-07
7.91861e-07
6.66387e-07
9.3236e-07
1.44831e-06
2.0411e-05
0.559629
2.33679e-14
1.23548e-14
4.12062e-14
2.58606e-13
1.57823e-12
8.79839e-12
4.46854e-11
2.10089e-10
9.32212e-10
4.03734e-09
1.59018e-08
5.84124e-08
1.76332e-07
2.87796e-07
3.91869e-07
1.00603e-06
1.5646e-06
1.22648e-05
0.533297
5.05257e-15
3.99186e-15
2.00788e-14
1.43325e-13
9.27871e-13
5.26394e-12
2.59543e-11
1.11569e-10
4.24402e-10
1.4573e-09
4.52085e-09
1.40404e-08
4.14318e-08
9.38902e-08
3.80861e-07
1.21901e-06
1.74261e-06
9.91105e-06
0.465904
1.01352e-15
1.73351e-15
1.28968e-14
1.03125e-13
7.29114e-13
4.48753e-12
2.38781e-11
1.09368e-10
4.28913e-10
1.44822e-09
4.25751e-09
1.07087e-08
2.70092e-08
1.29869e-07
4.66693e-07
1.34545e-06
1.95135e-06
1.39558e-05
0.406018
1.98135e-16
7.1833e-16
6.68431e-15
5.94206e-14
4.63412e-13
3.1421e-12
1.84302e-11
9.32161e-11
4.04867e-10
1.50941e-09
4.9229e-09
1.39177e-08
3.64538e-08
1.99245e-07
5.72308e-07
1.41732e-06
2.37766e-06
8.03409e-05
0.322938
3.73106e-17
2.39965e-16
2.68723e-15
2.74376e-14
2.44851e-13
1.8983e-12
1.27355e-11
7.37281e-11
3.67285e-10
1.56898e-09
5.82954e-09
1.90702e-08
5.49305e-08
3.14578e-07
2.30641e-06
2.32878e-06
5.15587e-06
0.000542858
0.161068
8.72155e-18
9.45299e-17
1.22755e-15
1.41466e-14
1.42255e-13
1.24254e-12
9.38576e-12
6.10422e-11
3.40386e-10
1.61355e-09
6.51947e-09
2.28199e-08
1.06245e-07
5.81561e-07
3.90904e-05
1.46322e-05
1.34255e-05
0.00140887
0.02369
2.88931e-18
4.3031e-17
6.23151e-16
7.99515e-15
9.03364e-14
8.94469e-13
7.69411e-12
5.69715e-11
3.59583e-10
1.90145e-09
8.30717e-09
3.00975e-08
1.45348e-07
1.86967e-06
7.30688e-05
0.000126369
1.50293e-05
0.000811453
0.000988551
9.31339e-19
1.59136e-17
2.4871e-16
3.48663e-15
4.40717e-14
5.00722e-13
5.02908e-12
4.35312e-11
3.15892e-10
1.87905e-09
9.05723e-09
3.53682e-08
1.69274e-07
3.18892e-06
6.86667e-05
0.000189637
1.58341e-05
0.000106994
0.00010708
4.3113e-19
8.36934e-18
1.43156e-16
2.15177e-15
2.85471e-14
3.34863e-13
3.45731e-12
3.10202e-11
2.37582e-10
1.53606e-09
8.40281e-09
3.77593e-08
1.9101e-07
1.74916e-06
6.07536e-05
0.000296998
7.54195e-05
0.000190078
0.000598784
1.52142e-19
3.42222e-18
6.75242e-17
1.16341e-15
1.74216e-14
2.25157e-13
2.49614e-12
2.34788e-11
1.84895e-10
1.20721e-09
6.65318e-09
3.31384e-08
1.5401e-07
8.13092e-07
1.60208e-05
0.000578387
0.0039731
0.0216778
0.174788
3.7846e-20
9.80268e-19
2.22e-17
4.38006e-16
7.48865e-15
1.10431e-13
1.38594e-12
1.45329e-11
1.24853e-10
8.62145e-10
4.79425e-09
2.26464e-08
1.01289e-07
5.61464e-07
1.0902e-05
0.00173797
0.0524158
0.332614
0.815392
8.3573e-21
2.49598e-19
6.47158e-18
1.45202e-16
2.81147e-15
4.65014e-14
6.45389e-13
7.38841e-12
6.82946e-11
4.96953e-10
2.78031e-09
1.24668e-08
4.90275e-08
2.6631e-07
6.70092e-06
0.00248857
0.12245
0.72153
0.984965
1.48742e-21
5.17191e-20
1.5488e-18
3.99067e-17
8.80185e-16
1.62896e-14
2.49109e-13
3.09771e-12
3.06571e-11
2.35227e-10
1.35776e-09
5.88208e-09
2.05361e-08
9.48565e-08
1.05e-06
0.000653996
0.0563817
0.656416
0.985829
2.67279e-22
1.09863e-20
3.84051e-19
1.14473e-17
2.86326e-16
5.92741e-15
1.0024e-13
1.36282e-12
1.46117e-11
1.20995e-10
7.56592e-10
3.52316e-09
1.28833e-08
5.10248e-08
3.82038e-07
3.74973e-05
0.00460781
0.429426
0.985829
4.54712e-23
2.41988e-21
1.0878e-19
4.10413e-18
1.28755e-16
3.34728e-15
7.16496e-14
1.24693e-12
1.73309e-11
1.88155e-10
1.56058e-09
9.66547e-09
6.00807e-08
3.25942e-07
7.60835e-07
8.46443e-07
7.91515e-05
0.171998
0.985829
1.18035e-23
8.43016e-22
5.01603e-20
2.44205e-18
9.66399e-17
3.09898e-15
7.99064e-14
1.63253e-12
2.58992e-11
3.1035e-10
2.70368e-09
1.64413e-08
6.56638e-08
2.41985e-07
5.87571e-07
3.07363e-07
7.73043e-07
0.0249728
0.86619
1.08563e-25
1.3688e-23
1.42479e-21
1.05555e-19
5.86486e-18
2.53075e-16
8.58496e-15
2.28036e-13
4.64796e-12
6.98208e-11
7.23696e-10
4.74255e-09
1.89243e-08
2.90342e-08
9.59963e-08
3.43839e-08
4.86958e-07
0.00120152
0.443783
)
;

boundaryField
{
    leftWall
    {
        type            zeroGradient;
    }
    rightWall
    {
        type            zeroGradient;
    }
    lowerWall
    {
        type            zeroGradient;
    }
    atmosphere
    {
        type            inletOutlet;
        inletValue      uniform 0;
        value           nonuniform List<scalar> 
46
(
0
0
0
0
0
0
0
0
0
0
0
0
0
0
0
0
0
0
0
0
0
0
0
0
0
0
0
0
1.3688e-23
1.42479e-21
1.05555e-19
5.86486e-18
2.53075e-16
8.58496e-15
2.28036e-13
4.64796e-12
6.98208e-11
7.23696e-10
4.74255e-09
1.89243e-08
2.90342e-08
9.59963e-08
0
4.86958e-07
0.00120152
0.443783
)
;
    }
    defaultFaces
    {
        type            empty;
    }
}


// ************************************************************************* //
