/*--------------------------------*- C++ -*----------------------------------*\
| =========                 |                                                 |
| \\      /  F ield         | OpenFOAM: The Open Source CFD Toolbox           |
|  \\    /   O peration     | Version:  2.4.0                                 |
|   \\  /    A nd           | Web:      www.OpenFOAM.org                      |
|    \\/     M anipulation  |                                                 |
\*---------------------------------------------------------------------------*/
FoamFile
{
    version     2.0;
    format      ascii;
    class       volScalarField;
    location    "0.55";
    object      alpha.air;
}
// * * * * * * * * * * * * * * * * * * * * * * * * * * * * * * * * * * * * * //

dimensions      [0 0 0 0 0 0 0];

internalField   nonuniform List<scalar> 
2268
(
2.10724e-13
2.47578e-13
1.52908e-13
3.65108e-13
2.48741e-13
1.83667e-13
2.53248e-13
2.62491e-13
2.32948e-13
1.40691e-13
9.01415e-14
8.07291e-14
8.03336e-14
6.88505e-14
5.29013e-14
3.69262e-14
2.37239e-14
1.43e-14
8.62841e-15
5.59436e-15
3.68133e-15
1.97361e-15
4.59071e-16
2.6881e-12
3.06467e-12
2.18791e-12
4.03997e-12
3.06089e-12
2.57619e-12
3.23815e-12
3.08183e-12
2.48469e-12
1.47084e-12
9.58924e-13
7.66749e-13
6.51987e-13
5.21422e-13
3.95985e-13
2.81702e-13
1.85035e-13
1.13779e-13
6.86189e-14
4.49211e-14
2.79601e-14
1.24847e-14
3.17645e-15
1.80081e-11
1.97808e-11
1.6255e-11
2.37483e-11
2.02272e-11
1.88691e-11
2.15509e-11
1.93555e-11
1.45366e-11
8.40813e-12
5.29393e-12
3.77153e-12
2.81478e-12
2.06772e-12
1.54745e-12
1.10544e-12
7.30263e-13
4.53948e-13
2.82607e-13
1.8667e-13
1.14712e-13
5.18813e-14
1.85337e-14
8.21462e-11
8.67011e-11
8.05378e-11
9.51936e-11
9.02949e-11
8.84044e-11
9.05209e-11
7.85683e-11
5.72487e-11
3.26283e-11
1.76382e-11
1.16971e-11
8.42647e-12
5.71478e-12
4.01787e-12
2.84877e-12
1.95389e-12
1.25639e-12
8.13394e-13
5.53244e-13
3.24568e-13
1.33013e-13
3.85803e-14
2.57538e-10
2.57319e-10
2.57656e-10
2.57311e-10
2.57766e-10
2.57211e-10
2.57325e-10
2.23199e-10
1.67619e-10
1.08078e-10
6.12574e-11
3.40318e-11
2.32128e-11
1.59436e-11
1.08698e-11
7.04504e-12
4.38902e-12
2.69135e-12
1.71349e-12
1.15662e-12
6.64909e-13
2.45923e-13
6.58307e-14
1.50881e-10
1.72114e-10
1.82455e-10
2.06848e-10
1.93997e-10
1.19321e-10
5.84883e-11
4.72574e-11
5.2142e-11
5.60998e-11
7.02576e-11
7.90465e-11
6.26085e-11
4.33538e-11
2.63156e-11
1.50577e-11
8.75471e-12
4.89502e-12
3.00239e-12
1.91551e-12
1.06856e-12
3.74662e-13
8.36468e-14
5.93569e-11
6.02253e-11
6.15664e-11
6.3273e-11
5.71266e-11
4.36374e-11
4.40941e-11
4.81221e-11
1.64455e-10
4.05221e-10
5.38102e-10
6.60312e-10
4.37671e-10
1.73104e-10
7.98815e-11
4.42741e-11
2.12638e-11
9.02059e-12
4.5006e-12
2.56531e-12
1.4122e-12
5.30222e-13
1.14776e-13
4.38903e-11
4.3779e-11
4.37487e-11
5.19598e-11
4.34727e-11
4.35602e-11
2.4899e-10
2.53102e-10
7.79408e-10
1.2616e-09
1.71323e-09
2.368e-09
2.34165e-09
1.52092e-09
5.37448e-10
1.54838e-10
2.03118e-11
6.51653e-12
4.46565e-12
2.56937e-12
1.46042e-12
6.5428e-13
1.79431e-13
9.64595e-06
8.78788e-06
9.9907e-06
2.03034e-05
3.32197e-05
4.74053e-05
6.68409e-05
0.000105536
8.6046e-05
7.49478e-05
0.000104089
0.000163841
0.000130333
3.29473e-05
1.5306e-05
0.000119265
1.42883e-05
3.32969e-06
5.43345e-05
2.23352e-05
1.25803e-06
1.25827e-06
1.25095e-06
1.25111e-06
1.24418e-06
1.52409e-06
6.27934e-05
0.000346786
0.000448066
0.000329259
0.000168891
0.000455867
0.00259977
0.00262274
0.00114445
7.89114e-05
7.47207e-06
7.83435e-05
2.23361e-05
1.76182e-06
1.25378e-06
1.25112e-06
1.24415e-06
1.24432e-06
1.23869e-06
1.23884e-06
3.95919e-06
0.000383854
0.000711184
0.000619829
0.000373053
0.000628119
0.00115077
0.000280737
0.000157643
0.000453016
0.000230356
1.02965e-05
0.00018318
4.51113e-05
2.14846e-06
1.24428e-06
1.23869e-06
1.23884e-06
1.23654e-06
1.23787e-06
2.40899e-05
0.000456954
0.000723346
0.000370451
0.000274461
0.000220989
0.000218495
0.00021488
0.00217176
0.000238639
4.92795e-06
0.0119815
0.00174776
5.92056e-05
1.38907e-06
1.24413e-06
1.23842e-06
1.23884e-06
1.23654e-06
2.1655e-06
1.81799e-05
0.000496722
0.00983176
0.00143642
0.000222475
0.00122188
0.000314593
0.00189185
0.000177721
0.000191734
0.0776135
0.0157313
0.00151759
9.93183e-05
3.63839e-06
1.24361e-06
1.2427e-06
1.24215e-06
1.50452e-06
2.06307e-05
0.0019875
0.236052
0.335454
0.0362327
0.0123763
0.00151978
0.00461001
0.000179478
0.0139853
0.0774673
0.0606139
0.024553
0.00827286
0.000498218
1.00861e-05
1.24483e-06
1.23823e-06
3.55149e-06
7.9462e-05
0.00902434
0.563842
0.962798
0.540298
0.231847
0.279567
0.176608
0.00208223
0.0949389
0.0493646
0.101486
0.113007
0.0844122
0.0149244
0.000620178
1.25248e-06
4.60225e-06
1.8583e-05
0.000207006
0.0168994
0.492868
0.961325
0.95313
0.861827
0.904502
0.668417
0.000694343
7.80798e-09
7.58491e-09
3.96388e-09
1.09235e-09
1.73999e-09
4.32201e-09
3.21608e-09
1.73235e-09
1.43012e-09
1.65739e-09
2.35877e-09
3.45925e-09
4.59145e-09
6.48894e-09
6.02658e-09
4.87921e-09
1.23963e-09
1.43904e-10
1.91098e-11
5.75202e-12
1.61577e-12
1.66701e-12
6.86848e-13
2.72749e-07
2.61155e-07
1.64331e-07
4.66962e-08
5.43982e-08
5.67851e-08
1.55136e-08
5.04093e-09
2.65378e-09
1.98131e-09
1.99092e-09
2.32263e-09
3.6971e-09
8.12473e-09
1.25303e-08
1.25297e-08
9.10479e-09
2.22491e-09
6.52515e-10
3.75258e-10
1.32065e-10
1.72735e-11
5.40486e-12
8.16842e-07
7.80622e-07
7.29349e-07
4.09001e-07
2.48757e-07
6.00865e-07
9.51452e-07
7.30091e-07
3.47933e-07
1.63416e-07
3.90517e-08
5.72644e-09
4.71828e-09
5.01911e-09
5.26688e-09
7.3188e-09
9.38457e-09
9.21574e-09
5.6932e-09
2.13737e-09
9.74902e-10
5.85202e-10
2.00434e-10
0.00024559
0.000369685
0.00136432
0.000613289
0.000222642
0.000764859
0.000641214
0.000236923
8.77115e-05
7.95824e-05
6.88068e-05
8.20696e-06
1.13148e-06
6.56871e-08
9.53298e-09
5.54069e-09
5.53452e-09
5.69031e-09
5.37859e-09
4.67657e-09
3.85223e-09
4.03325e-08
1.93645e-07
0.38981
0.359966
0.264935
0.117959
0.0661008
0.0940319
0.067767
0.0374124
0.0239169
0.0231387
0.0164718
0.00354892
0.0014225
0.000136639
4.94153e-05
1.98108e-06
1.27759e-08
5.36915e-09
5.36537e-09
2.64304e-06
7.08021e-06
4.86361e-05
0.000240962
0.999568
0.995551
0.999506
0.988416
0.936102
0.86083
0.73939
0.64494
0.540077
0.361346
0.167641
0.0627977
0.0363429
0.0303418
0.018654
0.00435825
0.00396686
0.00200254
0.000810224
0.00487008
0.00684498
0.0163875
0.0367482
0.999999
0.999999
0.999999
0.999995
0.999646
0.996998
0.994025
0.999359
0.999717
0.993813
0.944753
0.792241
0.607492
0.417919
0.27213
0.161448
0.10365
0.0711766
0.0645356
0.112793
0.138604
0.238073
0.378659
0.999999
0.999999
0.999999
0.999998
0.999997
0.999986
0.999976
0.999999
1
1
0.999999
0.999997
0.999959
0.998983
0.988875
0.952443
0.895707
0.826024
0.778437
0.898062
0.921546
0.975602
0.993864
0.999999
0.999999
0.999999
0.999998
0.999999
0.999999
0.999999
1
1
1
1
1
1
1
0.999999
0.999999
0.999999
0.999999
0.999999
0.999999
0.999999
0.999999
0.999999
0.999998
0.999998
0.999998
0.999999
0.999999
0.999999
0.999999
0.999999
1
1
1
1
1
1
0.999999
0.999999
0.999999
0.999999
0.999999
0.999999
0.999999
0.999999
0.999999
0.999998
0.999998
0.999998
0.999999
0.999999
0.999999
0.999999
0.999999
1
1
1
1
1
0.999999
0.999999
0.999999
0.999999
0.999999
0.999999
0.999999
0.999999
1
1
0.999998
0.999998
0.999998
0.999999
0.999999
0.999999
0.999999
0.999999
1
1
1
1
1
0.999999
0.999999
0.999999
0.999999
0.999999
0.999999
0.999999
1
1
1
0.999998
0.999998
0.999999
0.999999
0.999999
0.999999
0.999999
0.999999
1
1
1
1
1
0.999999
0.999999
1
1
1
1
1
1
1
1
0.999998
0.999999
0.999999
0.999999
0.999999
0.999999
0.999999
1
1
1
1
1
1
1
1
1
1
1
1
1
1
1
1
0.999999
0.999999
0.999999
0.999999
0.999999
0.999999
1
1
1
1
1
1
1
1
1
1
1
1
1
1
1
1
1
0.999999
0.999999
0.999999
0.999999
0.999999
1
1
1
1
1
1
1
1
1
1
1
1
1
1
1
1
1
1
0.999999
0.999999
0.999999
0.999999
0.999999
1
1
1
1
1
1
1
1
0.999999
0.999999
1
1
1
1
1
1
1
0.999999
0.999999
0.999999
0.999999
0.999999
1
1
1
1
1
1
1
1
0.999999
0.999999
0.999999
0.999999
1
1
1
1
1
0.999999
1
0.999999
0.999999
0.999999
0.999999
1
1
1
1
1
1
1
1
0.999999
0.999999
0.999999
1
1
1
1
1
1
1
1
0.999999
0.999999
0.999999
1
1
1
1
1
1
1
1
1
0.999999
0.999999
0.999999
0.999999
1
1
1
1
1
1
1
0.999999
0.999999
0.999999
1
1
1
1
1
1
1
1
1
1
0.999999
0.999999
0.999999
0.999999
0.999999
1
1
1
1
1
0.999999
0.999999
0.999999
1
1
1
1
1
1
1
1
1
1
0.999999
0.999999
0.999999
0.999999
0.999999
0.999999
0.999999
0.999999
0.999999
1
0.999999
0.999999
1
1
1
1
1
1
1
1
1
1
1
1
0.999999
0.999999
0.999999
0.999999
0.999999
0.999999
0.999998
0.999999
0.999999
0.999999
0.999999
1
1
1
1
1
1
1
1
1
1
1
1
1
0.999999
0.999999
0.999999
0.999998
0.999998
0.999998
0.999998
0.999999
1
1
1
1
1
1
1
1
1
1
1
1
1
1
0.999999
0.999999
0.999999
0.999999
0.999998
0.999998
0.999998
0.999998
0.999998
0.999999
1
1
1
1
1
1
1
1
1
1
1
1
1
1
0.999999
0.999999
0.999999
0.999999
0.999998
0.999998
0.999997
0.999998
1
1
1
1
1
1
1
1
1
1
1
1
1
1
1
1
0.999999
0.999999
0.999999
0.999998
0.999998
0.999998
0.999997
1
1
1
1
1
1
1
1
1
1
1
1
1
1
1
1
1
0.999999
0.999999
0.999999
0.999998
0.999997
0.999998
1
1
1
1
1
1
1
1
1
1
1
1
1
1
1
1
1
0.999999
0.999999
0.999999
0.999998
0.999998
0.999997
1
1
1
1
1
1
1
1
1
1
1
1
1
1
1
1
1
0.999999
0.999999
0.999999
0.999999
0.999998
0.999998
1
1
1
1
1
1
1
1
1
1
1
1
1
1
1
1
1
0.999999
0.999999
0.999999
0.999999
0.999999
0.999998
1
1
1
1
1
1
1
1
1
1
1
1
1
1
1
1
1
0.999999
0.999999
0.999999
0.999999
0.999999
0.999999
1
1
1
1
1
1
1
1
1
1
1
1
1
1
1
1
0.999999
0.999999
0.999999
0.999999
0.999999
0.999999
0.999999
1
1
1
1
1
1
1
1
1
1
1
1
1
1
1
0.999999
0.999999
0.999999
0.999999
1
1
0.999999
0.999999
1
1
1
1
1
1
1
1
1
1
1
1
1
1
1
1
0.999999
0.999999
0.999999
0.999999
1
1
0.999999
1
1
1
1
1
1
1
1
1
1
1
1
1
1
1
0.999999
0.999999
0.999999
0.999999
0.999999
1
1
1
1
1
1
1
1
1
1
1
1
1
1
1
1
1
0.999999
0.999999
0.999999
0.999999
0.999999
1
1
1
0.999999
1
1
1
1
1
1
1
1
1
1
1
1
1
1
1
0.999999
0.999999
0.999999
0.999999
1
1
1
1
1
1
1
1
1
1
1
1
1
1
1
1
1
1
0.999999
1
0.999999
1
1
1
1
1
0.999999
1
1
1
1
1
1
1
1
1
1
1
1
1
1
1
1
1
1
1
1
1
1
1
1
1
1
1
1
1
1
1
1
1
1
1
1
1
1
1
1
1
1
1
1
1
1
1
1
1
1
1
1
1
1
1
1
1
1
1
1
1
1
1
1
1
1
1
1
1
3.82152e-11
2.46949e-08
4.43226e-07
1.48878e-06
2.18259e-10
1.52508e-09
6.8348e-09
6.98681e-07
1.65263e-08
9.48615e-08
4.79698e-07
1.93717e-06
6.0391e-07
1.88105e-06
6.71042e-06
2.27937e-05
0.000736926
0.00172477
0.00355398
0.00829646
0.0729196
0.112293
0.158114
0.196849
0.507177
0.58668
0.688816
0.843309
0.99868
0.999716
0.999961
0.999993
1
1
1
1
1
1
1
1
1
1
1
1
1
1
1
1
1
1
1
1
1
1
1
1
1
1
1
1
1
1
1
1
1
0.999999
0.999999
0.999999
0.999999
0.999999
0.999999
0.999999
1
1
0.999999
0.999999
1
1
1
1
1
1
1
1
1
1
1
1
1
1
1
1
1
1
1
1
0.999999
1
1
0.999999
0.999998
0.999999
0.999999
0.999999
0.999998
0.999999
0.999999
0.999999
0.999998
0.999998
0.999999
0.999998
0.999998
0.999999
0.999998
0.999998
0.999998
0.999998
0.999998
0.999998
0.999999
0.999999
0.999998
0.999998
0.999999
0.999998
0.999999
0.999998
0.999999
0.999999
0.999999
0.999998
0.999999
0.999999
0.999999
0.999998
1
1
0.999999
0.999999
1
1
1
0.999999
1
1
1
0.999999
1
1
1
1
1
1
1
1
0.999999
0.999999
1
1
1
1
1
1
1
1
1
1
0.00112236
0.00260097
0.0755478
0.117727
0.118016
0.095309
0.0176451
0.000854841
8.26047e-05
2.02716e-05
0.000121872
0.0149293
0.201517
0.592556
0.894551
0.975156
0.981158
0.851001
0.0258118
1.16802e-05
5.5469e-05
0.00229289
0.00889921
0.025516
0.0486987
0.0338776
0.00531956
0.000199546
2.0821e-05
5.22408e-05
0.00158049
0.00377206
0.0390724
0.361891
0.731309
0.965661
0.898328
0.153522
2.57375e-05
2.49346e-05
0.000121726
0.000617014
0.000520272
0.000510032
0.00452194
0.00300467
0.000827582
3.77227e-05
3.21035e-05
3.98438e-05
3.98684e-05
0.000230151
0.0280014
0.214947
0.685783
0.768473
0.23466
0.000246721
0.00379409
0.01958
0.05473
0.052823
0.0434459
0.0298626
0.012408
0.00472284
0.00143221
0.000473295
7.13136e-05
3.99197e-05
4.00082e-05
0.000279573
0.0136467
0.145968
0.311062
0.170674
0.0314976
0.147137
0.298044
0.527412
0.647604
0.552186
0.400816
0.321612
0.29573
0.245969
0.20861
0.179276
0.107088
0.0166778
0.000806554
0.000856385
0.00754592
0.0331669
0.0422798
0.331593
0.600574
0.925109
0.994767
0.999618
0.998991
0.992397
0.962937
0.944448
0.935311
0.944593
0.958617
0.912294
0.746072
0.238039
0.0176327
0.000787067
0.000878962
0.00329569
0.969221
0.998676
0.999984
0.999999
0.999999
0.999964
0.999753
0.99893
0.995457
0.993814
0.993888
0.993611
0.991351
0.97555
0.564856
0.105634
0.00409202
0.000100527
0.000108979
0.999998
1
1
1
1
1
0.998616
0.969259
0.877901
0.686049
0.318367
0.308617
0.358425
0.454169
0.545346
0.181488
0.00950665
0.000101471
8.0544e-05
1
1
1
1
1
0.999948
0.986159
0.736623
0.199609
0.0202383
0.00407616
0.00290348
0.00864829
0.0423386
0.301316
0.289794
0.0421234
0.000682225
8.05645e-05
1
1
1
1
1
0.999598
0.9573
0.560897
0.0699768
0.00192565
0.000233588
0.000223643
0.000822845
0.030839
0.219347
0.287555
0.18377
0.000439403
8.05701e-05
1
1
1
1
1
0.999794
0.979637
0.75037
0.246856
0.0260688
0.00145567
0.00022705
0.000221105
0.00725207
0.0915619
0.245305
0.121899
0.000277397
8.05713e-05
1
1
1
1
1
0.999997
0.999589
0.980641
0.770605
0.264956
0.0257524
0.000926156
0.000216396
0.000465226
0.00897918
0.0344657
0.0188731
0.00042415
0.000111256
1
1
1
1
1
1
1
0.999884
0.985602
0.781947
0.261989
0.0241819
0.000632519
7.98388e-05
9.59065e-05
0.000513555
0.000660411
0.000593785
0.000245586
1
1
1
1
1
1
1
1
0.999908
0.991602
0.837258
0.330382
0.0258749
0.000356346
3.99133e-05
4.0075e-05
4.94093e-05
0.000241273
0.000103
1
0.999999
1
1
1
1
1
1
1
0.999948
0.995799
0.905136
0.427179
0.0397851
0.000137526
4.25354e-05
3.72811e-05
4.40485e-05
5.50816e-05
0.999999
0.999999
0.999999
0.999999
1
1
1
1
1
1
0.999987
0.998284
0.942202
0.535688
0.0718921
0.000964838
0.000175016
0.000569663
0.000782527
0.999999
0.999998
0.999998
0.999998
0.999999
1
1
1
1
1
1
0.999996
0.998991
0.963718
0.755718
0.385784
0.128114
0.0121543
0.00649035
0.999998
0.999998
0.999998
0.999998
0.999998
0.999999
1
1
1
1
1
1
0.999998
0.999484
0.990748
0.962349
0.940237
0.502811
0.0162174
0.999999
0.999998
0.999998
0.999998
0.999998
0.999999
0.999999
1
1
1
1
1
1
1
0.999973
0.999867
0.999766
0.933748
0.136024
0.999999
0.999999
0.999998
0.999998
0.999998
0.999999
0.999999
1
1
1
1
1
1
1
1
1
1
0.996418
0.301756
1
0.999999
0.999998
0.999998
0.999998
0.999998
0.999999
0.999999
1
1
1
1
1
1
1
1
1
0.998887
0.356041
1
0.999999
0.999999
0.999998
0.999998
0.999998
0.999999
0.999999
1
1
1
1
1
1
1
1
1
0.999631
0.322522
1
0.999999
0.999999
0.999998
0.999998
0.999999
0.999999
0.999999
0.999999
1
1
1
1
1
1
1
1
0.999882
0.305203
0.999999
0.999999
0.999999
0.999999
0.999999
0.999999
0.999999
0.999999
0.999999
1
1
1
1
1
1
1
1
0.999959
0.386768
0.999999
0.999999
0.999999
0.999998
0.999998
0.999999
0.999999
0.999999
0.999999
1
1
1
1
1
1
1
1
0.999982
0.440373
0.999999
0.999998
0.999998
0.999998
0.999998
0.999999
0.999999
0.999999
0.999999
0.999999
1
1
1
1
1
1
1
0.999991
0.466706
0.999998
0.999998
0.999998
0.999998
0.999998
0.999998
0.999999
0.999999
0.999999
0.999999
1
1
1
1
1
1
1
0.999993
0.534099
0.999998
0.999997
0.999997
0.999998
0.999998
0.999998
0.999999
0.999999
0.999999
1
1
1
1
1
1
1
1
0.999989
0.593985
0.999997
0.999997
0.999997
0.999997
0.999998
0.999998
0.999999
0.999999
0.999999
1
1
1
1
1
1
1
1
0.999923
0.677065
0.999997
0.999997
0.999997
0.999997
0.999998
0.999998
0.999999
0.999999
0.999999
1
1
1
1
1
0.999999
0.999999
0.999997
0.99946
0.838935
0.999997
0.999997
0.999997
0.999997
0.999998
0.999998
0.999999
0.999999
0.999999
1
1
1
1
1
0.999962
0.999987
0.999989
0.998594
0.976313
0.999997
0.999997
0.999997
0.999997
0.999998
0.999998
0.999999
0.999999
0.999999
1
1
1
1
0.999999
0.999928
0.999876
0.999988
0.999192
0.999014
0.999998
0.999997
0.999997
0.999997
0.999998
0.999998
0.999999
0.999999
0.999999
0.999999
1
1
1
0.999998
0.999933
0.999813
0.999987
0.999896
0.999896
0.999998
0.999997
0.999997
0.999998
0.999998
0.999999
0.999999
0.999999
0.999999
0.999999
0.999999
1
1
0.999999
0.999941
0.999706
0.999927
0.999813
0.999404
0.999998
0.999998
0.999998
0.999998
0.999998
0.999999
0.999999
0.999999
0.999999
0.999999
0.999999
1
1
1
0.999986
0.999424
0.99603
0.978325
0.825214
0.999999
0.999998
0.999998
0.999998
0.999999
0.999999
0.999999
0.999999
0.999999
0.999999
0.999999
1
1
1
0.99999
0.998264
0.947587
0.667389
0.18461
0.999999
0.999999
0.999999
0.999999
0.999999
0.999999
0.999999
0.999999
0.999999
0.999999
0.999999
1
1
1
0.999994
0.997513
0.877552
0.278473
0.0150375
0.999999
0.999999
0.999999
0.999999
0.999999
0.999999
0.999999
0.999999
0.999999
0.999999
0.999999
1
1
1
0.999999
0.999347
0.94362
0.343586
0.0141736
0.999999
0.999999
0.999999
0.999999
0.999999
0.999999
0.999999
0.999999
0.999999
0.999999
0.999999
0.999999
0.999999
1
0.999999
0.999963
0.995393
0.570575
0.0141735
0.999999
0.999999
0.999999
0.999999
0.999999
0.999999
0.999998
0.999998
0.999999
0.999999
0.999999
0.999999
0.999999
0.999999
0.999999
1
0.999921
0.828003
0.0141735
1
0.999999
0.999999
0.999999
0.999999
0.999999
0.999999
0.999999
0.999999
0.999999
0.999999
0.999999
0.999999
1
1
1
1
0.975028
0.133812
1
1
1
1
1
0.999999
0.999999
0.999999
0.999999
0.999999
0.999999
0.999999
1
1
1
1
1
0.9988
0.556218
)
;

boundaryField
{
    leftWall
    {
        type            alphaContactAngle;
        thetaProperties 6 ( ( water mercury ) 90 0 0 0 ( water air ) 90 0 0 0 ( water oil ) 90 0 0 0 ( mercury air ) 90 0 0 0 ( oil mercury ) 90 0 0 0 ( oil air ) 90 0 0 0 );
        value           nonuniform List<scalar> 
50
(
2.10724e-13
2.6881e-12
1.80081e-11
8.21462e-11
2.57538e-10
1.50881e-10
5.93569e-11
4.38903e-11
7.80798e-09
2.72749e-07
8.16842e-07
0.00024559
0.38981
0.999568
0.999999
0.999999
0.999999
0.999998
0.999998
0.999998
0.999998
0.999998
0.999999
0.999999
0.999999
0.999999
0.999999
0.999999
0.999999
0.999999
0.999999
0.999999
1
0.999999
1
1
1
1
1
1
1
1
1
1
1
1
1
1
1
1
)
;
    }
    rightWall
    {
        type            alphaContactAngle;
        thetaProperties 6 ( ( water mercury ) 90 0 0 0 ( water air ) 90 0 0 0 ( water oil ) 90 0 0 0 ( mercury air ) 90 0 0 0 ( oil mercury ) 90 0 0 0 ( oil air ) 90 0 0 0 );
        value           nonuniform List<scalar> 
50
(
5.43345e-05
7.83435e-05
0.000230356
0.000238639
0.000177721
0.000179478
0.00208223
0.000694343
0.0258118
0.153522
0.23466
0.170674
0.0422798
0.00329569
0.000108979
8.0544e-05
8.05645e-05
8.05701e-05
8.05713e-05
0.000111256
0.000245586
0.000103
5.50816e-05
0.000782527
0.00649035
0.0162174
0.136024
0.301756
0.356041
0.322522
0.305203
0.386768
0.440373
0.466706
0.534099
0.593985
0.677065
0.838935
0.976313
0.999014
0.999896
0.999404
0.825214
0.18461
0.0150375
0.0141736
0.0141735
0.0141735
0.133812
0.556218
)
;
    }
    lowerWall
    {
        type            alphaContactAngle;
        thetaProperties 6 ( ( water mercury ) 90 0 0 0 ( water air ) 90 0 0 0 ( water oil ) 90 0 0 0 ( mercury air ) 90 0 0 0 ( oil mercury ) 90 0 0 0 ( oil air ) 90 0 0 0 );
        value           nonuniform List<scalar> 
62
(
2.10724e-13
2.47578e-13
1.52908e-13
3.65108e-13
2.48741e-13
1.83667e-13
2.53248e-13
2.62491e-13
2.32948e-13
1.40691e-13
9.01415e-14
8.07291e-14
8.03336e-14
6.88505e-14
5.29013e-14
3.69262e-14
2.37239e-14
1.43e-14
8.62841e-15
5.59436e-15
3.68133e-15
1.97361e-15
4.59071e-16
4.59071e-16
3.17645e-15
1.85337e-14
3.85803e-14
6.58307e-14
8.36468e-14
1.14776e-13
1.79431e-13
3.82152e-11
2.46949e-08
4.43226e-07
1.48878e-06
9.64595e-06
2.23352e-05
2.23361e-05
1.02965e-05
4.92795e-06
0.000191734
0.0139853
0.0949389
9.64595e-06
8.78788e-06
9.9907e-06
2.03034e-05
3.32197e-05
4.74053e-05
6.68409e-05
0.000105536
8.6046e-05
7.49478e-05
0.000104089
0.000163841
0.000130333
3.29473e-05
1.5306e-05
0.000119265
1.42883e-05
3.32969e-06
5.43345e-05
)
;
    }
    atmosphere
    {
        type            inletOutlet;
        inletValue      uniform 1;
        value           nonuniform List<scalar> 
46
(
1
1
1
1
1
1
1
1
1
1
1
1
1
1
1
1
1
1
1
1
1
1
1
1
1
1
1
1
1
1
1
1
0.999999
0.999999
0.999999
0.999999
0.999999
0.999999
0.999999
1
1
1
1
1
0.9988
0.556218
)
;
    }
    defaultFaces
    {
        type            empty;
    }
}


// ************************************************************************* //
