/*--------------------------------*- C++ -*----------------------------------*\
| =========                 |                                                 |
| \\      /  F ield         | OpenFOAM: The Open Source CFD Toolbox           |
|  \\    /   O peration     | Version:  2.4.0                                 |
|   \\  /    A nd           | Web:      www.OpenFOAM.org                      |
|    \\/     M anipulation  |                                                 |
\*---------------------------------------------------------------------------*/
FoamFile
{
    version     2.0;
    format      ascii;
    class       volScalarField;
    location    "0.55";
    object      alpha.water;
}
// * * * * * * * * * * * * * * * * * * * * * * * * * * * * * * * * * * * * * //

dimensions      [0 0 0 0 0 0 0];

internalField   nonuniform List<scalar> 
2268
(
5.37347e-09
5.84544e-09
4.32081e-09
7.38991e-09
6.31736e-09
5.69227e-09
7.29695e-09
9.42934e-09
9.94108e-09
8.06365e-09
6.99634e-09
7.61136e-09
8.51147e-09
8.43108e-09
7.78197e-09
6.57181e-09
4.45976e-09
2.99887e-09
2.75133e-09
2.70442e-09
2.44935e-09
1.27127e-09
2.19079e-10
3.65075e-08
3.77681e-08
3.09876e-08
4.74709e-08
3.93681e-08
3.65965e-08
5.05777e-08
5.66637e-08
6.02408e-08
4.66271e-08
4.21596e-08
4.39136e-08
4.63788e-08
4.31518e-08
3.91073e-08
3.3568e-08
2.61417e-08
1.80777e-08
1.24128e-08
9.59459e-09
6.61101e-09
2.01548e-09
3.53778e-10
3.69517e-05
4.57688e-05
2.77769e-05
7.06292e-05
5.09797e-05
4.88729e-05
9.6284e-05
0.000100648
0.000111181
6.48237e-05
6.26701e-05
4.51222e-05
1.80329e-05
3.63519e-06
7.69599e-07
2.1525e-07
8.2183e-08
5.0391e-08
3.37759e-08
2.36419e-08
1.46067e-08
5.09253e-09
1.42226e-09
0.0167094
0.0183801
0.0156131
0.0220076
0.0203987
0.0213847
0.0283942
0.0290794
0.0314098
0.0263305
0.0268381
0.0212366
0.0108766
0.00188843
0.000165482
1.90483e-05
2.61047e-06
7.53182e-07
3.44902e-07
2.52973e-07
1.11914e-07
3.97702e-08
5.53903e-09
0.437434
0.452425
0.437037
0.478905
0.475651
0.493994
0.538835
0.549831
0.57237
0.566048
0.573221
0.554972
0.505552
0.390284
0.193066
0.0281087
0.00102376
2.07664e-05
1.60129e-06
7.8622e-07
2.3234e-07
9.58742e-08
1.76691e-08
0.991528
0.992685
0.991984
0.994464
0.994532
0.995618
0.997357
0.998019
0.998585
0.998854
0.999148
0.999315
0.999349
0.997491
0.932194
0.635426
0.144591
0.00729228
0.000209659
1.21907e-05
1.00595e-06
2.34628e-07
3.2676e-08
0.99999
0.999991
0.999991
0.999991
0.999992
0.999992
0.999993
0.999993
0.999993
0.999993
0.999993
0.999993
0.999993
0.999993
0.999669
0.984717
0.744975
0.100445
0.00431921
0.000147355
8.55239e-06
1.05151e-06
1.23767e-07
0.999991
0.999991
0.999991
0.999991
0.999992
0.999992
0.999992
0.999993
0.999993
0.999993
0.999993
0.999993
0.999992
0.999992
0.999992
0.99993
0.983009
0.474974
0.0163595
0.000398668
2.67897e-05
1.26971e-06
3.23064e-07
5.1226e-07
1.23331e-06
1.82456e-06
2.12889e-06
2.1482e-06
2.15932e-06
2.31335e-06
2.68343e-06
3.24428e-06
4.48794e-06
1.03616e-05
4.22594e-05
0.000200308
0.000894685
0.00372922
0.00865997
0.00293441
0.000853959
0.000573374
1.03345e-07
7.93966e-08
1.40418e-07
2.8691e-07
3.43608e-07
3.28752e-07
2.84897e-07
2.78757e-07
3.36386e-07
7.3751e-07
1.77299e-06
5.48804e-06
1.88479e-05
0.000155784
0.00140702
0.00654714
0.011985
0.00362937
0.00113151
3.07083e-08
4.0529e-08
7.4044e-08
1.58658e-07
2.02039e-07
1.93761e-07
1.61788e-07
1.39329e-07
1.76122e-07
7.55186e-07
6.34678e-06
2.36508e-05
3.2447e-05
4.75649e-05
0.000389242
0.00491798
0.0217462
0.0108566
0.0015378
4.86932e-08
1.94481e-06
1.69881e-06
4.18305e-07
1.84749e-07
1.60981e-07
1.37921e-07
1.36983e-07
1.85134e-07
6.1476e-06
5.64266e-05
0.000210941
0.000355238
0.000326324
0.000308116
0.00355103
0.0217494
0.0253692
0.00175903
4.77509e-06
0.000288138
0.000228344
5.77944e-05
1.87163e-05
1.00545e-05
5.64833e-06
2.07623e-06
1.77203e-06
3.26613e-05
0.000273411
0.00121807
0.00185562
0.00134878
0.000406306
0.00257765
0.0154244
0.0283279
0.00437847
0.000313955
0.00853114
0.00730561
0.00317319
0.00191782
0.00128277
0.000660777
0.000212528
5.61105e-05
0.000133989
0.000974584
0.00630056
0.00715055
0.00259692
0.000323668
0.000997267
0.0141022
0.0283248
0.00628833
0.00420193
0.0537153
0.0569662
0.04421
0.0378842
0.0329492
0.0209512
0.00880214
0.0021195
0.0011629
0.00314959
0.0227369
0.0187381
0.00175649
6.58385e-05
0.000240209
0.00717232
0.0283279
0.00818511
0.0383835
0.139523
0.186916
0.239154
0.219295
0.213969
0.166016
0.0985993
0.037629
0.0167164
0.0211559
0.0648004
0.0412174
0.00401937
2.78933e-05
2.75482e-05
0.000879223
0.0177552
0.00926078
0.999992
0.999992
0.999993
0.999993
0.999993
0.999995
0.999994
0.999993
0.999992
0.999991
0.999992
0.999992
0.999992
0.999992
0.999992
0.99999
0.999446
0.918619
0.340033
0.018491
0.000630493
0.000494877
0.000202685
0.999999
0.999999
0.999999
0.999999
0.999999
0.999999
0.99999
0.999691
0.999194
0.998741
0.999173
0.999541
0.999901
0.999991
0.999996
0.999996
0.999989
0.997133
0.902732
0.593983
0.232041
0.123819
0.0988848
0.999999
0.999999
0.999999
0.999999
0.999999
0.999912
0.996366
0.971971
0.950501
0.937993
0.952385
0.968493
0.988338
0.99721
0.999492
0.99989
0.99997
0.999913
0.995748
0.970186
0.942926
0.898799
0.827177
0.999754
0.99963
0.998636
0.999386
0.999721
0.991265
0.904798
0.706618
0.590101
0.53887
0.581706
0.656617
0.770292
0.875909
0.959941
0.989832
0.997551
0.99946
0.999452
0.999099
0.998473
0.997557
0.993605
0.610189
0.640034
0.735064
0.882039
0.933139
0.852625
0.573737
0.25402
0.145677
0.12282
0.128581
0.140604
0.192902
0.285577
0.428314
0.662338
0.849856
0.929357
0.96941
0.969459
0.966117
0.933027
0.841852
0.000431289
0.00444803
0.00049315
0.0115829
0.0634618
0.0955573
0.0401035
0.00421817
0.00296248
0.00449292
0.00623711
0.00795388
0.00990098
0.0158353
0.0274705
0.0418178
0.183273
0.305298
0.506672
0.438721
0.440412
0.390703
0.311346
2.90077e-08
5.12622e-07
4.3253e-07
3.52095e-06
7.90206e-05
0.000333131
0.000175274
1.91035e-05
1.83611e-06
5.9907e-06
2.00227e-05
3.70579e-05
4.80407e-05
5.09207e-05
8.89322e-05
0.000337961
0.00162046
0.00573338
0.0112637
0.00433
0.0071341
0.0081324
0.0069429
4.91859e-08
2.30207e-08
8.22446e-09
4.67761e-09
4.94718e-09
1.15327e-07
1.89877e-07
4.96857e-08
1.59606e-08
7.58877e-09
5.1212e-09
6.38154e-09
4.52333e-08
1.74937e-07
6.28362e-07
1.70862e-06
5.22954e-06
1.74468e-05
2.59718e-05
2.1194e-05
2.52339e-05
1.24279e-05
5.48571e-06
6.01559e-08
4.41831e-08
3.2364e-08
6.95025e-09
8.6666e-10
7.8343e-10
2.4025e-09
6.83967e-09
5.00239e-09
3.78253e-09
3.42685e-09
2.58605e-09
1.32799e-09
5.16724e-10
1.81995e-10
6.61635e-11
2.55339e-11
1.2664e-11
1.47864e-11
4.74409e-11
3.96189e-10
8.62046e-10
1.16788e-09
5.30445e-08
3.06189e-08
1.78848e-08
4.71604e-09
7.65399e-10
5.28682e-10
1.2894e-09
1.9586e-09
1.94011e-09
3.75021e-09
4.79742e-09
4.23325e-09
1.79861e-09
6.48513e-10
1.17846e-10
2.78879e-11
1.46887e-11
1.09244e-11
8.42187e-12
6.82297e-12
5.16829e-12
3.56451e-12
2.13743e-12
4.9861e-08
2.45842e-08
1.03585e-08
2.4029e-09
5.8876e-10
5.01305e-10
9.21256e-10
1.5848e-09
2.53257e-09
6.10303e-09
9.93453e-09
8.34026e-09
3.44418e-09
8.94466e-10
1.2669e-10
4.02344e-11
1.62718e-11
8.76107e-12
6.1516e-12
5.78808e-12
5.02833e-12
3.22799e-12
1.65032e-12
3.11155e-08
9.48368e-09
1.8515e-09
5.20127e-10
2.31107e-10
1.53937e-10
4.19042e-10
1.40426e-09
4.39945e-09
9.90173e-09
9.93179e-09
3.69585e-09
4.07923e-10
3.34744e-11
9.71067e-12
4.94445e-12
2.8569e-12
1.86204e-12
1.40287e-12
9.3582e-13
7.88773e-13
5.88338e-13
3.69294e-13
3.59139e-09
1.35673e-09
1.42438e-10
4.01733e-11
3.63978e-11
3.84206e-11
3.19001e-11
3.92197e-11
7.90694e-11
1.52311e-09
4.91222e-10
4.66851e-11
1.16119e-11
3.90487e-12
1.31358e-12
5.70442e-13
2.7244e-13
1.49949e-13
1.08401e-13
8.86426e-14
7.06728e-14
5.64231e-14
6.07284e-14
2.54266e-10
8.00541e-11
3.19815e-11
1.7593e-11
1.27489e-11
1.54219e-11
2.05597e-11
2.01252e-11
1.63978e-11
1.92128e-11
9.98895e-12
7.56216e-12
3.66936e-12
8.1966e-13
9.18952e-14
1.50444e-14
6.64101e-15
7.41389e-15
1.13908e-14
1.60231e-14
1.96015e-14
2.21321e-14
3.57382e-14
2.20027e-11
2.34825e-11
1.336e-11
7.10854e-12
5.05292e-12
5.46926e-12
7.03719e-12
9.17255e-12
9.15632e-12
9.11177e-12
6.40437e-12
3.54826e-12
1.18371e-12
1.79085e-13
8.37941e-15
7.36335e-16
1.52157e-15
2.83903e-15
4.48242e-15
5.6578e-15
5.74126e-15
4.97892e-15
5.51689e-15
6.33969e-12
8.1884e-12
4.35383e-12
2.48834e-12
1.81828e-12
1.81021e-12
2.24843e-12
2.91317e-12
3.02981e-12
2.9219e-12
2.01666e-12
1.09275e-12
3.71575e-13
6.75569e-14
4.10221e-15
1.48301e-16
2.91405e-16
5.09517e-16
7.79518e-16
9.70489e-16
9.55031e-16
7.71392e-16
5.96364e-16
1.58158e-12
1.96272e-12
1.03314e-12
6.5302e-13
4.86611e-13
4.81686e-13
6.17735e-13
7.91667e-13
8.23208e-13
7.46917e-13
5.60831e-13
3.12833e-13
1.15385e-13
2.52494e-14
2.19979e-15
3.40726e-17
2.82726e-17
5.32993e-17
8.71232e-17
1.18704e-16
1.27843e-16
1.19866e-16
1.16923e-16
2.70754e-13
3.14604e-13
1.59815e-13
1.02494e-13
7.5633e-14
7.94493e-14
1.16123e-13
1.59197e-13
1.7364e-13
1.55836e-13
1.20486e-13
7.04349e-14
2.73755e-14
6.25472e-15
5.50472e-16
3.4032e-18
1.49387e-18
3.23834e-18
6.19866e-18
1.06059e-17
1.56487e-17
2.06303e-17
2.6678e-17
1.70172e-14
2.20457e-14
1.13134e-14
7.04503e-15
4.52712e-15
6.18326e-15
1.24629e-14
1.94031e-14
2.17709e-14
1.89579e-14
1.45175e-14
8.66433e-15
3.33246e-15
7.30703e-16
5.58638e-17
4.52332e-20
1.31599e-19
3.36114e-19
7.80825e-19
1.60631e-18
2.83251e-18
4.33818e-18
6.19351e-18
1.18512e-21
3.91195e-20
7.34571e-19
7.57456e-18
4.59625e-17
1.74037e-16
4.15527e-16
6.27891e-16
5.81306e-16
3.19969e-16
1.16115e-16
3.53252e-17
6.01948e-18
4.81589e-19
1.39511e-21
4.96804e-21
1.56792e-20
4.49061e-20
1.14037e-19
2.51779e-19
4.79388e-19
8.0161e-19
1.24493e-18
1.98954e-37
2.41557e-35
1.1373e-33
2.9673e-32
5.32739e-31
7.14335e-30
7.65717e-29
6.82437e-28
5.20802e-27
3.54446e-26
2.21997e-25
1.30543e-24
7.14102e-24
3.51379e-23
1.53257e-22
5.92547e-22
2.09397e-21
6.55928e-21
1.75567e-20
4.04604e-20
8.04288e-20
1.42705e-19
2.37494e-19
1.14523e-38
8.32129e-37
3.23878e-35
8.51208e-34
1.61653e-32
2.3672e-31
2.81606e-30
2.80579e-29
2.46038e-28
2.01584e-27
1.48919e-26
9.85704e-26
5.80552e-25
3.08176e-24
1.43431e-23
5.93825e-23
2.16537e-22
6.87599e-22
1.9212e-21
4.75072e-21
1.04693e-20
2.11029e-20
3.96937e-20
1.36813e-40
1.46722e-38
7.36879e-37
2.20836e-35
4.55249e-34
7.12448e-33
9.08704e-32
9.94298e-31
9.75273e-30
8.8014e-29
7.37712e-28
5.47205e-27
3.55024e-26
2.06506e-25
1.07283e-24
4.94009e-24
1.9511e-23
6.6467e-23
2.02498e-22
5.50852e-22
1.34633e-21
3.02851e-21
6.2405e-21
6.31263e-42
5.43371e-40
2.33911e-38
6.54403e-37
1.37312e-35
2.33933e-34
3.38691e-33
4.28867e-32
4.85653e-31
4.93391e-30
4.41224e-29
3.41185e-28
2.32623e-27
1.37915e-26
7.19493e-26
3.30639e-25
1.36776e-24
5.20511e-24
1.77203e-23
5.40728e-23
1.50242e-22
3.78934e-22
8.44931e-22
3.07809e-44
3.44221e-42
1.91103e-40
6.78083e-39
1.78013e-37
3.72465e-36
6.51818e-35
9.79341e-34
1.26549e-32
1.3789e-31
1.30017e-30
1.11889e-29
8.71645e-29
6.01166e-28
3.646e-27
1.96694e-26
9.49937e-26
4.00945e-25
1.48938e-24
5.03941e-24
1.55234e-23
4.2498e-23
1.02066e-22
6.50192e-46
7.42444e-44
4.21009e-42
1.57158e-40
4.35767e-39
9.58856e-38
1.73954e-36
2.69711e-35
3.65424e-34
4.42772e-33
4.81491e-32
4.60948e-31
3.84424e-30
2.85855e-29
1.86472e-28
1.06006e-27
5.37772e-27
2.48358e-26
1.0597e-25
4.07761e-25
1.38938e-24
4.15996e-24
1.09996e-23
3.88909e-48
4.87849e-46
3.05874e-44
1.27483e-42
4.05638e-41
1.06057e-39
2.35098e-38
4.45382e-37
7.24497e-36
1.01922e-34
1.23925e-33
1.29486e-32
1.17719e-31
9.41148e-31
6.82007e-30
4.58611e-29
2.79166e-28
1.51312e-27
7.15063e-27
2.9597e-26
1.09253e-25
3.60721e-25
1.05844e-24
3.32249e-50
4.92301e-48
3.6448e-46
1.78058e-44
6.42307e-43
1.81479e-41
4.21409e-40
8.26786e-39
1.39124e-37
2.03484e-36
2.65634e-35
3.17215e-34
3.46065e-33
3.37159e-32
2.8816e-31
2.10508e-30
1.34038e-29
7.60922e-29
3.92086e-28
1.83942e-27
7.67462e-27
2.81455e-26
9.44389e-26
1.27791e-52
2.1191e-50
1.77092e-48
9.9421e-47
4.25178e-45
1.47353e-43
4.25972e-42
1.04524e-40
2.20699e-39
4.02632e-38
6.28431e-37
8.33806e-36
9.4813e-35
9.45509e-34
8.41484e-33
6.8559e-32
5.11323e-31
3.42621e-30
2.02888e-29
1.04756e-28
4.77687e-28
1.99629e-27
8.35378e-27
7.93355e-55
1.54367e-52
1.48752e-50
9.4869e-49
4.48613e-47
1.67641e-45
5.13846e-44
1.32198e-42
2.90033e-41
5.50384e-40
9.20162e-39
1.38332e-37
1.8781e-36
2.28376e-35
2.47137e-34
2.34367e-33
1.92615e-32
1.38874e-31
8.89763e-31
5.14203e-30
2.71076e-29
1.38406e-28
8.46257e-28
1.87906e-57
4.24553e-55
4.87632e-53
3.7693e-51
2.19311e-49
1.01663e-47
3.86985e-46
1.23332e-44
3.33869e-43
7.75641e-42
1.55267e-40
2.67837e-39
4.00955e-38
5.2524e-37
6.06391e-36
6.23128e-35
5.75134e-34
4.75471e-33
3.50893e-32
2.32478e-31
1.46945e-30
1.06835e-29
1.13512e-28
5.80995e-60
1.57946e-57
2.1153e-55
1.88098e-53
1.24096e-51
6.46155e-50
2.75311e-48
9.8216e-47
2.97835e-45
7.76081e-44
1.75313e-42
3.45992e-41
6.01833e-40
9.25426e-39
1.25662e-37
1.50389e-36
1.58282e-35
1.47096e-34
1.22931e-33
9.76864e-33
8.66041e-32
1.09167e-30
1.91457e-29
7.77924e-63
2.70049e-60
4.46066e-58
4.87318e-56
3.94727e-54
2.52374e-52
1.31947e-50
5.74532e-49
2.11029e-47
6.60613e-46
1.77723e-44
4.13133e-43
8.31629e-42
1.45764e-40
2.23934e-39
3.03099e-38
3.63772e-37
3.92224e-36
3.96929e-35
4.35427e-34
6.63271e-33
1.42898e-31
3.43115e-30
7.9481e-66
3.75591e-63
7.73085e-61
1.02473e-58
9.90433e-57
7.47548e-55
4.60275e-53
2.37859e-51
1.04993e-49
3.98175e-48
1.29524e-46
3.61629e-45
8.69935e-44
1.8108e-42
3.27697e-41
5.18995e-40
7.29033e-39
9.46867e-38
1.29951e-36
2.41665e-35
6.45221e-34
1.96226e-32
5.75228e-31
3.70235e-69
3.37866e-66
9.18052e-64
1.48248e-61
1.69893e-59
1.50204e-57
1.08226e-55
6.6261e-54
3.50851e-52
1.61597e-50
6.47945e-49
2.25108e-47
6.73166e-46
1.72584e-44
3.79187e-43
7.22819e-42
1.24391e-40
2.18273e-39
5.00217e-38
1.6635e-36
6.47238e-35
2.4489e-33
8.45145e-32
1.05575e-72
3.67451e-69
1.35542e-66
2.63485e-64
3.54312e-62
3.64387e-60
3.01836e-58
2.08575e-56
1.23236e-54
6.32652e-53
2.85141e-51
1.13148e-49
3.94725e-48
1.20846e-46
3.24834e-45
7.82121e-44
1.84339e-42
5.34497e-41
2.24022e-39
1.13173e-37
5.61822e-36
2.54219e-34
1.02812e-32
3.45641e-75
1.84117e-71
7.18989e-69
1.43096e-66
1.93975e-64
1.99561e-62
1.64827e-60
1.13268e-58
6.65585e-57
3.41794e-55
1.55903e-53
6.37701e-52
2.34724e-50
7.79443e-49
2.38205e-47
7.1627e-46
2.57814e-44
1.36734e-42
9.31567e-41
6.35137e-39
3.90078e-37
2.11363e-35
1.01066e-33
4.30715e-76
7.34692e-73
2.29162e-70
3.82082e-68
4.36299e-66
3.79302e-64
2.65931e-62
1.56102e-60
7.89565e-59
3.52306e-57
1.4175e-55
5.24637e-54
1.8162e-52
5.9995e-51
1.99884e-49
7.84849e-48
4.46717e-46
3.50966e-44
3.04266e-42
2.54303e-40
1.93077e-38
1.28771e-36
7.46935e-35
8.38678e-77
7.6514e-74
1.83846e-71
2.49005e-69
2.34238e-67
1.68822e-65
9.89294e-64
4.88938e-62
2.09008e-60
7.89656e-59
2.69019e-57
8.47064e-56
2.5685e-54
8.17512e-53
3.21794e-51
1.82479e-49
1.40876e-47
1.25112e-45
1.1428e-43
1.02092e-41
8.72469e-40
6.96931e-38
5.01221e-36
6.84462e-78
4.28234e-75
8.66991e-73
1.03049e-70
8.60067e-69
5.51756e-67
2.88091e-65
1.27427e-63
4.92879e-62
1.71328e-60
5.50748e-59
1.72013e-57
5.77522e-56
2.42133e-54
1.35745e-52
9.30322e-51
7.01101e-49
5.56516e-47
4.62256e-45
4.00036e-43
3.53927e-41
3.11608e-39
2.65264e-37
7.02801e-80
3.77193e-77
7.54782e-75
9.18218e-73
7.9587e-71
5.33577e-69
2.91818e-67
1.3604e-65
5.6728e-64
2.28021e-62
9.98503e-61
5.3525e-59
3.49843e-57
2.53674e-55
1.89751e-53
1.4232e-51
1.06682e-49
8.04009e-48
6.14945e-46
4.82815e-44
3.94422e-42
3.38422e-40
3.01865e-38
1.86724e-82
9.37975e-80
1.90205e-77
2.36524e-75
2.10052e-73
1.44625e-71
8.15282e-70
3.93854e-68
1.72145e-66
7.43192e-65
3.61158e-63
2.16966e-61
1.54514e-59
1.17992e-57
9.11009e-56
6.99764e-54
5.35344e-52
4.10968e-50
3.19664e-48
2.54541e-46
2.0944e-44
1.79743e-42
1.62451e-40
0.00101761
0.00186136
0.00476182
0.0118428
0.146462
0.182247
0.245077
0.330707
0.831232
0.841813
0.861974
0.891592
0.984278
0.972599
0.952472
0.924067
0.748095
0.684974
0.617317
0.54716
0.252677
0.212542
0.167482
0.128213
0.00477431
0.00320974
0.00208024
0.00121794
2.44868e-06
1.20809e-06
5.99016e-07
2.75864e-07
2.21114e-09
3.59291e-09
3.3098e-09
2.41635e-09
1.46868e-12
1.06408e-12
2.33336e-12
5.08935e-12
1.02853e-12
6.47435e-13
5.64566e-13
1.37234e-12
2.72991e-13
2.76354e-13
6.36232e-13
2.81136e-12
1.44543e-13
4.41497e-13
1.60521e-12
5.50179e-12
1.171e-13
2.97806e-13
7.15853e-13
1.56563e-12
1.36495e-14
3.00378e-14
6.42671e-14
1.31267e-13
7.48195e-16
1.35054e-15
2.95039e-15
7.18233e-15
1.35523e-16
1.67411e-16
2.52486e-16
5.41239e-16
3.39614e-17
3.78561e-17
4.69055e-17
9.1872e-17
8.27285e-18
9.21585e-18
1.1027e-17
2.07343e-17
1.81301e-18
2.10698e-18
2.53393e-18
4.43612e-18
3.72308e-19
4.5097e-19
5.47541e-19
8.58712e-19
6.80401e-20
8.60352e-20
1.06284e-19
1.48662e-19
1.14022e-20
1.49436e-20
1.91959e-20
2.6619e-20
1.65933e-21
2.30082e-21
3.20247e-21
4.98259e-21
2.17915e-22
3.25706e-22
5.18078e-22
1.01444e-21
2.61026e-23
4.39175e-23
8.69807e-23
2.33173e-22
2.90667e-24
6.0528e-24
1.68299e-23
6.30249e-23
3.33919e-25
9.87268e-25
4.02689e-24
1.95275e-23
4.46308e-26
2.02474e-25
1.12627e-24
6.57282e-24
7.76182e-27
5.00785e-26
3.4296e-25
2.30046e-24
1.64053e-27
1.33026e-26
1.05949e-25
8.043e-25
3.66736e-28
3.48717e-27
3.16243e-26
2.70506e-25
7.89365e-29
8.59266e-28
8.82232e-27
8.50157e-26
1.53954e-29
1.9103e-28
2.22381e-27
2.42165e-26
2.617e-30
3.71286e-29
4.92317e-28
6.08918e-27
3.69838e-31
6.03857e-30
9.18218e-29
1.29823e-27
4.26657e-32
8.10386e-31
1.42781e-29
2.33052e-28
3.7763e-33
8.50517e-32
1.76747e-30
3.38581e-29
3.1345e-34
8.64479e-33
2.18619e-31
5.06668e-30
2.11097e-35
7.51652e-34
2.47163e-32
7.44034e-31
2.70744e-36
1.12184e-34
4.43854e-33
1.65361e-31
1.5457e-38
7.07161e-37
3.26104e-35
1.51787e-33
0.106946
0.306578
0.531855
0.611059
0.59985
0.567285
0.523157
0.436018
0.345047
0.279517
0.253748
0.258799
0.174381
0.0581866
0.00457232
9.52242e-05
0.000298572
0.00690809
0.0201161
0.579752
0.786099
0.834677
0.832916
0.822749
0.771581
0.731854
0.699113
0.659678
0.623239
0.589319
0.570276
0.532227
0.400821
0.209472
0.0565006
0.00292854
0.00565659
0.0431043
0.889825
0.877312
0.831879
0.762004
0.703684
0.685252
0.694726
0.702292
0.702752
0.702315
0.696816
0.686702
0.668668
0.651472
0.551747
0.356087
0.108332
0.0406601
0.0606218
0.842204
0.678469
0.548908
0.470879
0.405798
0.393449
0.40714
0.442924
0.468544
0.484402
0.512431
0.558127
0.570424
0.583182
0.582819
0.549905
0.40227
0.21359
0.0925382
0.429122
0.314805
0.172422
0.0860751
0.0470235
0.0428332
0.0512212
0.0706569
0.0961148
0.145549
0.183169
0.212208
0.284635
0.374825
0.425189
0.484579
0.432473
0.299326
0.113488
0.0761235
0.0202943
0.00234416
0.000136288
8.44416e-06
3.54005e-06
7.13061e-06
1.8781e-05
2.53557e-05
8.67419e-05
0.000268111
0.00053957
0.00775375
0.0503991
0.109072
0.26416
0.35669
0.288932
0.12359
0.000354088
2.22459e-05
8.29913e-07
3.35882e-08
1.36861e-08
1.65678e-08
2.32931e-08
1.1909e-07
3.45885e-07
2.18687e-06
1.53353e-05
8.5553e-05
0.000213296
0.000734082
0.00642421
0.116648
0.233908
0.250078
0.130037
8.23927e-08
8.58032e-09
1.24817e-09
3.12232e-09
1.39105e-08
2.74251e-08
3.38822e-08
1.07421e-06
4.02347e-06
1.06405e-05
6.50336e-05
0.000101731
0.000168518
0.000279395
0.00452731
0.0425578
0.152694
0.20097
0.12399
8.62873e-10
3.36277e-10
8.52851e-10
9.099e-09
4.0859e-08
7.11418e-08
1.81848e-07
6.04496e-06
3.96923e-05
6.96026e-05
8.0042e-05
0.000101802
0.000265732
0.00132374
0.00757792
0.0158593
0.114227
0.15763
0.109219
2.77588e-11
3.31444e-10
3.78574e-09
2.09412e-08
4.86837e-08
5.04497e-08
4.16065e-07
4.96805e-06
1.27504e-05
1.46974e-05
1.28388e-05
1.07481e-05
2.89626e-05
0.000853742
0.00655567
0.015431
0.065515
0.116542
0.0909088
4.92397e-11
8.79968e-10
4.34597e-09
1.05086e-08
1.17459e-08
1.24853e-08
7.96064e-08
3.73548e-07
9.25124e-07
1.28804e-06
1.33602e-06
1.72175e-06
6.57682e-06
0.000364878
0.00384915
0.0141541
0.0467236
0.0793043
0.0702912
5.93616e-11
4.32715e-10
1.61431e-09
3.31318e-09
4.63116e-09
3.25189e-09
6.00765e-09
1.01013e-08
1.83508e-08
4.16745e-08
1.06018e-07
2.19691e-06
1.3482e-05
9.01181e-05
0.00222051
0.0112772
0.0306914
0.0475498
0.0470679
1.41395e-11
6.20885e-11
1.82253e-10
5.0931e-10
7.09876e-10
8.47293e-10
1.1686e-09
3.63811e-09
4.0094e-09
1.80371e-09
1.68627e-09
7.87697e-09
3.92705e-06
8.4387e-05
0.000477749
0.00511815
0.0142796
0.0217445
0.0229112
3.09136e-12
7.90778e-12
2.15803e-11
5.66013e-11
1.00912e-10
1.70427e-10
3.49721e-10
8.18089e-10
2.26775e-09
2.50492e-09
8.59615e-10
2.03986e-10
7.18075e-08
1.14566e-05
9.75566e-05
0.000531183
0.00289555
0.00506648
0.00550435
2.58268e-13
7.72294e-13
2.20888e-12
6.12996e-12
1.74758e-11
5.03976e-11
1.3691e-10
3.46006e-10
8.80917e-10
2.68959e-09
2.71733e-09
1.67267e-10
2.80846e-10
1.43111e-07
8.45954e-06
5.69448e-05
9.29367e-05
0.000215147
0.000232496
1.82807e-14
8.15194e-14
3.64134e-13
1.62323e-12
6.893e-12
2.58552e-11
8.10997e-11
2.11521e-10
4.8951e-10
1.41328e-09
4.48445e-09
6.36299e-10
1.65161e-10
6.43109e-10
7.47663e-08
1.32531e-06
8.32804e-06
1.23399e-05
1.08196e-05
1.64372e-15
1.16714e-14
8.68104e-14
5.846e-13
3.32476e-12
1.53846e-11
5.58085e-11
1.72409e-10
4.25763e-10
1.09995e-09
4.42621e-09
1.47163e-09
1.68521e-10
1.56573e-10
2.54508e-10
4.11045e-09
2.64495e-08
1.07747e-08
8.42408e-09
3.63967e-16
3.86557e-15
3.78673e-14
3.0478e-13
1.98205e-12
1.04084e-11
4.36698e-11
1.47014e-10
4.43836e-10
1.13385e-09
3.61302e-09
3.24572e-09
4.46398e-10
1.84221e-10
1.54233e-10
5.24101e-11
4.38168e-11
4.46009e-11
9.42378e-11
9.04805e-17
1.12628e-15
1.29056e-14
1.24902e-13
9.95025e-13
6.35566e-12
3.27042e-11
1.33595e-10
4.57415e-10
1.22304e-09
3.06186e-09
6.71355e-09
1.28626e-09
3.87318e-10
6.5347e-10
4.15692e-10
6.70704e-11
2.40477e-11
7.63067e-11
1.96925e-17
2.88459e-16
3.99505e-15
4.6477e-14
4.44048e-13
3.44512e-12
2.18436e-11
1.10559e-10
4.2961e-10
1.27921e-09
2.99839e-09
7.14707e-09
3.49194e-09
9.04619e-10
2.18711e-09
1.67636e-09
4.64689e-10
2.38604e-11
5.62333e-11
3.29166e-18
5.10988e-17
8.35736e-16
1.18014e-14
1.39058e-13
1.35845e-12
1.08523e-11
6.75814e-11
3.08866e-10
1.1727e-09
3.0253e-09
6.77408e-09
6.47818e-09
2.63937e-09
3.7107e-09
2.40429e-09
6.1648e-10
3.87808e-11
4.68597e-11
4.16692e-19
6.16007e-18
1.16493e-16
1.96537e-15
2.8349e-14
3.47911e-13
3.54977e-12
2.85654e-11
1.72323e-10
7.47354e-10
2.33866e-09
5.30261e-09
6.60128e-09
4.83988e-09
3.90744e-09
2.2799e-09
5.15078e-10
2.95509e-11
3.93335e-11
5.56688e-20
5.63181e-19
1.06238e-17
2.0252e-16
3.47129e-15
5.18364e-14
6.53926e-13
6.71666e-12
5.33313e-11
3.02172e-10
1.25212e-09
3.46312e-09
5.98245e-09
4.45103e-09
3.19775e-09
1.62844e-09
3.21018e-10
1.64276e-11
3.18829e-11
1.05144e-20
6.77075e-20
8.34263e-19
1.45348e-17
2.71988e-16
4.70713e-15
7.05396e-14
8.87498e-13
8.99293e-12
6.93659e-11
3.75929e-10
1.66038e-09
3.99281e-09
3.1196e-09
2.01734e-09
7.49834e-10
1.70685e-10
1.23624e-11
2.30154e-11
2.7179e-21
1.73136e-20
1.29475e-19
1.21352e-18
1.66312e-17
2.86776e-16
4.90229e-15
7.45178e-14
9.5405e-13
9.83806e-12
7.77769e-11
4.40041e-10
1.5738e-09
1.44879e-09
7.49465e-10
2.67952e-10
8.06022e-11
9.0535e-12
1.60567e-11
8.14223e-22
6.06747e-21
4.38346e-20
2.97143e-19
2.06435e-18
1.88174e-17
2.58142e-16
4.21803e-15
6.58364e-14
9.07939e-13
9.15224e-12
6.86103e-11
3.33727e-10
3.70042e-10
1.49852e-10
2.33741e-11
3.47177e-11
6.6245e-12
1.15264e-11
2.71862e-22
2.32327e-21
1.82442e-20
1.28322e-19
8.06952e-19
4.64741e-18
2.78117e-17
2.40024e-16
3.37426e-15
5.31641e-14
6.39984e-13
6.01616e-12
3.92365e-11
4.57688e-11
1.54227e-11
4.93411e-12
7.89799e-12
3.77637e-12
7.88154e-12
9.79064e-23
9.48037e-22
8.24086e-21
6.36009e-20
4.33261e-19
2.58992e-18
1.35868e-17
6.44627e-17
3.29455e-16
2.69044e-15
2.9667e-14
3.15993e-13
2.4985e-12
2.58119e-12
1.12791e-12
1.06137e-12
4.13241e-12
2.42269e-12
5.78756e-12
3.74657e-23
4.08076e-22
3.95778e-21
3.39331e-20
2.56001e-19
1.6895e-18
9.70907e-18
4.84677e-17
2.10321e-16
8.15548e-16
3.18517e-15
1.54571e-14
1.20225e-13
1.2437e-13
2.03699e-13
4.1218e-13
2.23341e-12
1.66856e-12
4.62255e-12
1.47026e-23
1.80304e-22
1.96068e-21
1.88138e-20
1.58777e-19
1.17312e-18
7.55858e-18
4.23482e-17
2.05522e-16
8.61306e-16
3.16062e-15
1.02551e-14
2.92108e-14
1.05728e-13
2.25405e-13
3.73705e-13
1.24328e-12
1.23334e-12
3.77874e-12
5.7585e-24
7.95203e-23
9.7227e-22
1.04875e-20
9.95773e-20
8.29483e-19
6.04256e-18
3.83874e-17
2.12187e-16
1.01474e-15
4.22875e-15
1.5613e-14
4.76631e-14
1.61265e-13
3.53844e-13
5.15896e-13
8.05516e-13
9.96865e-13
3.7898e-12
2.17189e-24
3.38731e-23
4.67553e-22
5.69794e-21
6.12222e-20
5.7887e-19
4.80121e-18
3.48818e-17
2.21879e-16
1.22762e-15
5.89126e-15
2.44985e-14
8.37837e-14
2.5997e-13
5.58183e-13
7.55247e-13
6.6955e-13
9.1743e-13
4.70182e-12
7.66726e-25
1.35147e-23
2.10663e-22
2.89986e-21
3.52172e-20
3.76871e-19
3.54894e-18
2.94146e-17
2.14415e-16
1.36762e-15
7.55621e-15
3.54598e-14
1.33473e-13
4.01351e-13
7.92139e-13
9.57331e-13
8.12461e-13
1.31714e-12
5.72215e-12
2.4623e-25
4.9161e-24
8.66261e-23
1.34539e-21
1.83992e-20
2.21112e-19
2.3316e-18
2.15997e-17
1.76018e-16
1.26053e-15
7.87127e-15
4.15248e-14
1.72745e-13
5.2498e-13
1.02723e-12
1.24267e-12
1.18433e-12
1.67711e-12
6.48701e-12
7.0143e-26
1.59213e-24
3.17901e-23
5.57388e-22
8.56157e-21
1.14832e-19
1.34489e-18
1.36986e-17
1.21082e-16
9.2945e-16
6.20873e-15
3.56474e-14
1.64743e-13
5.47787e-13
1.16522e-12
1.61197e-12
1.79609e-12
2.30212e-12
6.85765e-12
1.70412e-26
4.41469e-25
1.00099e-23
1.98227e-22
3.41724e-21
5.12348e-20
6.62509e-19
7.30973e-18
6.83018e-17
5.38049e-16
3.58684e-15
2.04723e-14
9.87957e-14
3.75009e-13
9.58292e-13
1.61577e-12
2.08828e-12
2.83152e-12
6.79961e-12
3.51956e-27
1.04954e-25
2.72374e-24
6.13893e-23
1.2005e-21
2.02018e-20
2.88285e-19
3.44961e-18
3.418e-17
2.76717e-16
1.81364e-15
9.70838e-15
4.33823e-14
1.68581e-13
5.14702e-13
1.13912e-12
1.60946e-12
2.58713e-12
6.36772e-12
5.97377e-28
2.07808e-26
6.25408e-25
1.62882e-23
3.65621e-22
6.94293e-21
1.10173e-19
1.44439e-18
1.54124e-17
1.31563e-16
8.82189e-16
4.6084e-15
1.89927e-14
6.54146e-14
1.96961e-13
6.25671e-13
8.90216e-13
1.97418e-12
5.67615e-12
1.0749e-28
4.46889e-27
1.5889e-25
4.84573e-24
1.24893e-22
2.68827e-21
4.78058e-20
6.93013e-19
8.05654e-18
7.37611e-17
5.20665e-16
2.76791e-15
1.12583e-14
3.28131e-14
1.00169e-13
3.32548e-13
4.35637e-13
1.2727e-12
4.80165e-12
2.03864e-29
1.0853e-27
4.87534e-26
1.83675e-24
5.74993e-23
1.48802e-21
3.15527e-20
5.39936e-19
7.31001e-18
7.65572e-17
6.07516e-16
3.57382e-15
1.56936e-14
4.85672e-14
1.13411e-13
2.25561e-13
2.94463e-13
9.4107e-13
3.80918e-12
5.71584e-30
3.92123e-28
2.23883e-26
1.04618e-24
3.97609e-23
1.22542e-21
3.03978e-20
5.98331e-19
9.16666e-18
1.0651e-16
9.06071e-16
5.4499e-15
2.19786e-14
6.05659e-14
1.03949e-13
1.09825e-13
2.32432e-13
8.18237e-13
2.54008e-12
7.15602e-32
7.91669e-30
7.5131e-28
5.25352e-26
2.7948e-24
1.16386e-22
3.83448e-21
9.95755e-20
1.99923e-18
2.98968e-17
3.14695e-16
2.17934e-15
9.93791e-15
2.22442e-14
5.18408e-14
1.02665e-14
2.14338e-13
7.17307e-13
1.71977e-12
)
;

boundaryField
{
    leftWall
    {
        type            zeroGradient;
    }
    rightWall
    {
        type            zeroGradient;
    }
    lowerWall
    {
        type            zeroGradient;
    }
    atmosphere
    {
        type            inletOutlet;
        inletValue      uniform 0;
        value           nonuniform List<scalar> 
46
(
0
0
0
0
0
0
0
0
0
0
0
0
0
0
0
0
0
0
0
0
0
0
0
0
0
0
0
0
7.91669e-30
7.5131e-28
5.25352e-26
2.7948e-24
1.16386e-22
3.83448e-21
9.95755e-20
1.99923e-18
2.98968e-17
3.14695e-16
2.17934e-15
9.93791e-15
2.22442e-14
5.18408e-14
0
2.14338e-13
7.17307e-13
1.71977e-12
)
;
    }
    defaultFaces
    {
        type            empty;
    }
}


// ************************************************************************* //
