/*--------------------------------*- C++ -*----------------------------------*\
| =========                 |                                                 |
| \\      /  F ield         | OpenFOAM: The Open Source CFD Toolbox           |
|  \\    /   O peration     | Version:  2.4.0                                 |
|   \\  /    A nd           | Web:      www.OpenFOAM.org                      |
|    \\/     M anipulation  |                                                 |
\*---------------------------------------------------------------------------*/
FoamFile
{
    version     2.0;
    format      ascii;
    class       volScalarField;
    location    "0.55";
    object      p;
}
// * * * * * * * * * * * * * * * * * * * * * * * * * * * * * * * * * * * * * //

dimensions      [1 -1 -2 0 0 0 0];

internalField   nonuniform List<scalar> 
2268
(
4076.4
4073.76
4063.5
4068.43
4052.45
4043.11
4043.55
4039.2
4046.08
4067.87
4107.07
4181.29
4311.61
4529.97
4858.61
5332.79
5900.73
6505.96
7044.99
7459.2
7759.93
7969.47
8058.22
3276.63
3272.6
3266.34
3264.88
3252.69
3244.34
3241.68
3236.3
3242.93
3265.7
3305.12
3375.44
3502.39
3703.75
4043.14
4516.84
5084.59
5700.32
6256.87
6675.84
6986.42
7191.96
7272.43
2467.58
2461.93
2459.4
2451.57
2443.01
2435.89
2429.63
2424.28
2428.71
2452.23
2489.61
2551.95
2665.12
2846.53
3149.87
3645.81
4251.89
4914.9
5484.77
5916.95
6227.29
6429.93
6535.88
1647.76
1638.5
1642.98
1625.27
1621.04
1610.58
1588.39
1575.72
1566.25
1574.69
1595.54
1645.06
1760.95
1968.46
2335.05
2810.47
3391.1
4091.65
4718.67
5171.52
5491.43
5697.96
5801.71
910.769
907.798
913.535
905.914
910.37
912.225
907.103
908.413
912.092
920.493
933.519
959.413
992.246
1015.04
1196.52
1760.56
2524.65
3289.9
3973.81
4447.87
4777.86
4979.66
5083.08
744.695
748.134
752.317
760.898
769.195
778.531
786.861
794.783
802.363
810.014
817.658
826.006
834.271
862.289
896.145
1036.24
1477.83
2495.01
3260.71
3750.83
4091.53
4290.37
4385.64
750.012
751.038
753.708
756.928
761.587
764.421
767.345
772.651
778.169
788.641
804.022
825.835
849.456
874.881
890.931
916.474
957.831
1673.62
2576.67
3063.55
3419.29
3630.36
3716.28
641.116
643.743
648.675
654.908
662.267
670.649
675.832
681.134
686.683
692.893
698.675
706.462
716.933
744.741
790.074
848.077
835.502
1057.79
1888.98
2415.38
2770.3
2984.11
3069.04
2792.7
2890.09
3022.48
2990.51
2875.38
2777.24
2722.8
2674
2600.27
2547.35
2557.89
2649.68
2685.74
2580.21
2384.84
2166.69
2200.6
2766.37
3278.69
2703.75
2746.05
2846.64
2811.52
2688.68
2551.28
2420.34
2291.36
2160.86
2053.49
2005.09
2011.42
1957.66
1798.07
1639.79
1608.4
1713.73
2046.38
2648.28
2657.31
2708.43
2763.02
2753.8
2661.91
2537.42
2404.04
2267.25
2129.59
2006.75
1945.23
1921.82
1832.17
1683.88
1596.67
1721.38
1711.98
1552.79
2318.29
2587.55
2600.63
2627.32
2592.48
2466.9
2301.95
2131.52
1974.8
1856.07
1763.06
1730.85
1711.93
1607.72
1466.43
1473.63
1589.69
1617.14
1515.57
2015.29
2489.5
2483.03
2432.2
2352.59
2203.21
2023.62
1847.36
1703.95
1587.34
1537.26
1544.37
1522.38
1397.22
1281.66
1349.33
1465.4
1535.6
1448.01
1815.86
2295.51
2296.73
2132.22
1998.59
1845.74
1669.98
1501.55
1373.37
1301.65
1327.51
1357.31
1344.79
1241.72
1204.66
1232.25
1392.9
1447.21
1380.59
1671.29
1854.18
1967.96
1705.14
1518.09
1388.22
1249.32
1118.86
1031.52
1047.41
1118.28
1162.11
1168.4
1191.7
1198.48
1204.77
1231.05
1238.28
1287.72
1543.79
1230.82
1482.88
1242.19
1067
979.015
878.954
813.481
785.868
836.985
888.621
942.018
995.989
1135.71
1198.46
1206.84
1219.55
1217.71
1253
1438.39
596.182
596.759
597.865
600.993
604.151
606.546
609.859
612.806
618.231
631.715
651.604
676.334
705.821
725.962
727.705
740.613
773.281
697.95
864.951
1351.3
1785.91
2041.07
2085.58
433.902
436.627
442.2
449.098
455.571
459.031
459.203
457.859
457.4
459.088
462.18
470.033
484.13
509.42
538.311
559.838
569.523
541.826
457.183
380.978
397.092
526.712
680.703
300.235
302.22
305.818
312.608
320.06
327.863
328.353
318.908
317.436
328.255
347.308
370.029
393.654
413.969
424.662
431.357
426.565
398.593
315.926
212.417
154.259
147.187
143.989
163.476
171.62
185.022
209.309
228.244
237.102
223.54
191.451
181.574
183.144
192.852
204.518
219.708
240.341
265.557
285.921
297.393
292.637
268.417
238.259
203.63
170.131
143.225
5.372
5.93125
12.8339
25.0269
42.4869
57.9229
61.6158
54.5089
59.3662
77.0679
98.1381
115.557
125.399
132.256
142.916
153.658
170.287
177.37
177.325
159.753
132.073
110.12
94.6257
4.71561
4.70094
4.1866
4.16629
5.25169
6.17401
6.22731
5.12194
6.72993
11.9986
21.5054
31.073
43.1551
57.8444
74.1647
90.292
105.704
112.234
115.506
106.742
89.3629
70.073
51.7657
4.972
5.07544
5.34367
5.25222
4.75584
4.52822
4.40802
4.25093
4.0278
4.05631
4.49734
4.76696
5.07558
7.78318
13.6086
19.8029
24.1072
27.1126
30.6128
24.8279
21.7602
16.3266
11.4771
4.3496
4.36772
4.40407
4.42886
4.397
4.42554
4.58723
4.64862
4.56144
4.5976
4.54766
4.41176
4.27742
4.01918
3.94697
4.12235
4.2881
4.52789
4.25287
3.60749
3.55907
3.53552
3.65742
4.73908
4.69327
4.64554
4.58147
4.50855
4.44207
4.51816
4.43285
4.29267
4.32161
4.32336
4.36126
4.58817
4.72002
4.6885
4.56709
4.44002
4.36171
4.34076
4.42494
4.51256
4.60625
4.61615
4.3294
4.27162
4.27544
4.29388
4.30753
4.32361
4.37297
4.32208
4.3019
4.28596
4.24129
4.23474
4.23255
4.20366
4.19884
4.22425
4.24504
4.23963
4.22296
4.16305
4.11708
4.08829
4.08608
4.32453
4.31775
4.2767
4.23977
4.21612
4.20974
4.23164
4.20291
4.17774
4.17868
4.16984
4.16774
4.18495
4.18788
4.16689
4.1362
4.1131
4.08636
4.06736
4.05687
4.06065
4.0763
4.08973
4.08997
4.07259
4.07637
4.08273
4.08113
4.08119
4.08526
4.07211
4.06259
4.05832
4.05615
4.04484
4.03916
4.02979
4.01482
3.99826
3.9833
3.97003
3.96181
3.95704
3.95824
3.96123
3.96552
3.98834
3.97815
3.96196
3.95225
3.94628
3.94361
3.94168
3.93554
3.93095
3.92779
3.93061
3.92334
3.9145
3.9036
3.88856
3.87248
3.858
3.84401
3.83233
3.82491
3.82333
3.82604
3.83121
3.82304
3.82443
3.82146
3.81701
3.81279
3.80978
3.80646
3.80206
3.79772
3.79436
3.79077
3.78481
3.7778
3.76857
3.75734
3.74489
3.73402
3.72511
3.71845
3.7146
3.71252
3.71118
3.71099
3.68505
3.68447
3.68206
3.67905
3.6759
3.67309
3.66991
3.66636
3.6626
3.65902
3.65462
3.64919
3.64249
3.63418
3.62447
3.61434
3.60492
3.59624
3.58859
3.58309
3.57987
3.57832
3.57829
3.5474
3.5465
3.5446
3.54222
3.53957
3.53687
3.53389
3.53068
3.52717
3.52352
3.51922
3.51404
3.50799
3.50113
3.49352
3.48521
3.47743
3.47017
3.46414
3.45897
3.45479
3.45183
3.44983
3.40967
3.40891
3.40748
3.40557
3.40333
3.40088
3.39814
3.39517
3.39187
3.3883
3.38419
3.37945
3.37398
3.36803
3.36157
3.35463
3.34781
3.34132
3.33571
3.3308
3.32666
3.3232
3.32022
3.27269
3.27208
3.27092
3.26933
3.26738
3.26515
3.26266
3.25988
3.25679
3.25342
3.24959
3.24531
3.2405
3.23523
3.22954
3.2237
3.2179
3.21217
3.20692
3.20214
3.1978
3.19391
3.19029
3.13628
3.13578
3.13482
3.13346
3.13174
3.12972
3.1274
3.12482
3.12196
3.11885
3.11536
3.11148
3.1072
3.10255
3.09758
3.09246
3.0873
3.08219
3.07725
3.07255
3.06818
3.06402
3.06005
3.00037
2.99994
2.99911
2.99791
2.99639
2.99456
2.99246
2.9901
2.98748
2.98459
2.98131
2.97779
2.97395
2.96979
2.9654
2.96084
2.95616
2.95158
2.94703
2.94258
2.93829
2.93405
2.9298
2.86487
2.86448
2.86376
2.8627
2.86135
2.85971
2.8578
2.85565
2.85327
2.85068
2.84739
2.84422
2.8408
2.83707
2.83317
2.82911
2.82496
2.82081
2.81658
2.81239
2.80818
2.804
2.79971
2.72972
2.72939
2.72875
2.7278
2.72659
2.72511
2.72337
2.72139
2.71918
2.71673
2.71392
2.71099
2.70788
2.70451
2.70101
2.69736
2.69364
2.68978
2.6859
2.68203
2.67802
2.67397
2.66976
2.59492
2.59463
2.59407
2.59318
2.59209
2.59074
2.58917
2.58737
2.58535
2.58309
2.58063
2.57799
2.57512
2.57211
2.56893
2.56564
2.56226
2.55872
2.5552
2.55158
2.54786
2.54402
2.53998
2.46039
2.46011
2.45962
2.45885
2.45786
2.45663
2.4552
2.45355
2.45171
2.44967
2.44742
2.445
2.44243
2.43972
2.43687
2.4339
2.43081
2.42765
2.42438
2.421
2.41759
2.41402
2.41027
2.32612
2.32588
2.32543
2.32474
2.32385
2.32275
2.32144
2.31995
2.31827
2.31641
2.31438
2.31221
2.3099
2.30743
2.30489
2.30221
2.29941
2.29656
2.29358
2.29057
2.28743
2.28417
2.28075
2.19208
2.19186
2.19145
2.19083
2.19002
2.18903
2.18785
2.18651
2.18499
2.18332
2.18152
2.17958
2.17749
2.17529
2.17297
2.17054
2.16804
2.16547
2.16287
2.16015
2.15733
2.15441
2.15136
2.05824
2.05804
2.05767
2.05712
2.05639
2.0555
2.05444
2.05323
2.05186
2.05036
2.04871
2.04696
2.0451
2.04314
2.04108
2.03897
2.03674
2.03443
2.03209
2.02965
2.02717
2.02462
2.022
1.92458
1.92441
1.92408
1.92358
1.92293
1.92213
1.92118
1.9201
1.91888
1.91753
1.91606
1.91449
1.91282
1.91108
1.90927
1.90737
1.90538
1.90335
1.90127
1.89921
1.89706
1.89485
1.89263
1.79109
1.79094
1.79065
1.7902
1.78962
1.78891
1.78806
1.78708
1.78599
1.78479
1.7835
1.78211
1.78063
1.77907
1.77744
1.77576
1.77407
1.77232
1.77053
1.76871
1.76687
1.76503
1.7632
1.65775
1.65761
1.65735
1.65695
1.65644
1.6558
1.65504
1.65418
1.65321
1.65215
1.65099
1.64977
1.64847
1.64711
1.6457
1.64425
1.64276
1.64122
1.63968
1.63815
1.63663
1.63512
1.63365
1.52454
1.52442
1.52419
1.52383
1.52337
1.5228
1.52213
1.52137
1.52052
1.51958
1.51858
1.51749
1.51635
1.51516
1.51393
1.51267
1.51139
1.51011
1.50882
1.50755
1.5063
1.5051
1.50396
1.39145
1.39134
1.39114
1.39083
1.39042
1.38992
1.38933
1.38866
1.38791
1.38709
1.3862
1.38526
1.38427
1.38325
1.3822
1.38112
1.38004
1.37896
1.3779
1.37686
1.37587
1.37494
1.37409
1.25846
1.25837
1.25819
1.25791
1.25756
1.25711
1.2566
1.256
1.25535
1.25463
1.25387
1.25306
1.25221
1.25134
1.25045
1.24955
1.24865
1.24776
1.2469
1.24608
1.24531
1.24462
1.24403
1.12557
1.12549
1.12534
1.12509
1.12478
1.12439
1.12394
1.12342
1.12285
1.12224
1.12158
1.12089
1.12017
1.11943
1.11869
1.11794
1.11721
1.1165
1.11582
1.11519
1.11463
1.11415
1.11377
0.992762
0.99269
0.992554
0.992338
0.992063
0.991726
0.991334
0.990892
0.990405
0.98988
0.98932
0.988734
0.988132
0.987526
0.986919
0.986312
0.985723
0.985166
0.984654
0.984193
0.983802
0.983498
0.983304
0.860037
0.859972
0.859855
0.859664
0.859424
0.859129
0.858787
0.858401
0.85798
0.857529
0.857058
0.856573
0.856085
0.855595
0.855104
0.854629
0.854182
0.853769
0.853393
0.853078
0.852838
0.852681
0.852632
0.727375
0.727313
0.727212
0.727043
0.726833
0.726576
0.72628
0.725949
0.72559
0.72521
0.724816
0.724416
0.724016
0.723623
0.723248
0.722899
0.722573
0.722279
0.722036
0.721857
0.721736
0.721699
0.721763
0.594736
0.59468
0.594593
0.594447
0.594267
0.594049
0.5938
0.593524
0.593226
0.592912
0.592591
0.592269
0.591955
0.591654
0.591373
0.591115
0.590894
0.590722
0.590595
0.590512
0.590498
0.590569
0.590715
0.462109
0.462056
0.461982
0.46186
0.461712
0.461535
0.461335
0.461116
0.460884
0.460642
0.460396
0.460153
0.459917
0.459695
0.459493
0.459322
0.45919
0.459106
0.459071
0.459087
0.459156
0.459291
0.459495
0.329543
0.329477
0.329414
0.329317
0.329201
0.329064
0.328911
0.328743
0.328569
0.328393
0.328218
0.32805
0.327893
0.327752
0.327634
0.327546
0.327494
0.327479
0.327507
0.327591
0.327736
0.327913
0.328135
0.197141
0.19708
0.197026
0.196951
0.196862
0.196758
0.196642
0.196517
0.196385
0.196251
0.196121
0.195999
0.195892
0.195805
0.195743
0.195718
0.195733
0.195791
0.195893
0.196035
0.196211
0.196423
0.196678
0.0649021
0.0649029
0.0648716
0.0648116
0.0647318
0.0646338
0.0645218
0.0644013
0.0642779
0.0641571
0.0640447
0.0639469
0.0638711
0.0638272
0.0638245
0.0638589
0.0639283
0.064034
0.0641772
0.0643575
0.0645722
0.0648152
0.0650731
2022.45
1957.17
1782.78
1494.04
654.587
622.696
560.657
489.787
140.06
133.5
127.7
126.191
130.167
123.428
116.461
110.006
86.6479
81.4347
73.6621
65.5002
41.125
34.8434
28.7449
22.8544
8.86511
7.27479
5.4165
4.28106
3.79033
3.90236
4.05266
4.19917
4.55539
4.49423
4.41791
4.34388
4.09935
4.11138
4.12608
4.14327
4.09368
4.09397
4.09342
4.09365
3.96993
3.9711
3.97093
3.97055
3.83573
3.83834
3.84074
3.84267
3.71111
3.71127
3.71156
3.71183
3.57837
3.57842
3.57847
3.57842
3.44874
3.44813
3.44749
3.44671
3.31828
3.31707
3.3158
3.3144
3.18773
3.18607
3.18433
3.18247
3.057
3.05499
3.05289
3.05062
2.92649
2.92431
2.922
2.91952
2.79632
2.79406
2.79167
2.78905
2.66635
2.66404
2.66164
2.65911
2.53669
2.53447
2.53221
2.52984
2.40728
2.40525
2.40315
2.40098
2.27806
2.27626
2.27441
2.27251
2.14902
2.14746
2.14586
2.14423
2.02002
2.01871
2.01738
2.01603
1.891
1.88994
1.88886
1.88779
1.76189
1.76105
1.76021
1.75939
1.63264
1.632
1.63138
1.63079
1.50321
1.50275
1.50232
1.50192
1.37357
1.37326
1.37299
1.37276
1.2437
1.24353
1.24339
1.24329
1.1136
1.11353
1.1135
1.11351
0.983265
0.983276
0.983327
0.983417
0.852692
0.852765
0.852876
0.853025
0.721896
0.722013
0.722162
0.722346
0.590894
0.591036
0.591205
0.591405
0.459703
0.459855
0.460029
0.460226
0.328348
0.328501
0.328665
0.328839
0.196875
0.197005
0.197141
0.197285
0.0652497
0.065358
0.0654617
0.0655604
817.153
740.619
657.382
613.372
584.316
566.166
569.421
590.383
593.51
614.941
663.919
747.545
953.065
1147.2
1196.3
1220.05
1216.44
1229.5
1383.86
352.974
332.648
346.077
378.761
403.757
432.384
459.568
486.551
522.314
561.09
596.385
626.852
643.425
842.855
1017.07
1135.1
1202.28
1200.5
1356.47
126.748
154.348
191.475
229.463
266.998
290.821
308.603
325.492
341.741
361.231
390.203
438.37
484.048
540.118
699.392
899.037
1077.8
1112.48
1208.59
97.7333
82.9472
80.8357
68.8576
65.074
88.5954
116.832
143.958
163.55
184.835
214.531
254.675
305.005
393.199
519.303
651.377
829.949
934.655
1029.48
49.3044
31.8419
21.1873
11.1912
7.61816
9.55602
14.8664
25.3564
28.5761
30.7605
29.7408
28.7938
35.395
78.7105
301.368
444.111
583.801
711.558
825.859
15.473
7.31606
4.06991
3.80404
3.72526
3.51236
3.07931
2.48433
1.0643
-1.19398
-2.93162
-3.88345
-4.13341
0.527633
44.9385
196.572
363.696
506.853
618.213
3.92425
4.06387
4.50072
4.56621
4.64884
4.52607
3.99149
2.62469
1.00073
-0.239741
-1.00917
-1.18566
-1.4402
-2.32248
-4.67331
20.1501
145.122
309.051
417.415
4.36763
4.47233
4.37036
4.28261
4.22333
4.09225
3.86594
2.56397
0.234296
-3.87645
-8.29691
-19.567
-26.4628
-35.2024
-76.0686
-102.193
-32.7712
93.4828
225.593
4.25435
4.26045
4.28264
4.27698
4.30609
4.2527
4.04072
2.1301
-1.45936
-8.33858
-23.6304
-48.5253
-79.7084
-125.337
-183.091
-229.553
-210.078
-85.6125
74.4709
4.1715
4.19165
4.21251
4.21007
4.2199
4.20988
4.12234
2.36441
-2.21708
-15.9112
-37.7658
-74.6741
-131.936
-215.033
-271.58
-305.328
-297.837
-133.532
7.00219
4.09497
4.09799
4.10223
4.10801
4.12413
4.14446
4.14724
3.39746
-0.598869
-16.1194
-40.5786
-76.423
-136.316
-222.148
-287.662
-310.264
-273.134
-87.8552
39.681
3.96992
3.97176
3.97873
3.98928
4.00052
4.00137
3.97965
3.90944
2.92338
-4.24618
-29.8767
-57.0252
-102.219
-169.346
-233.986
-254.166
-153.963
55.4967
179.05
3.84525
3.84681
3.84966
3.85569
3.86169
3.86306
3.83317
3.79444
3.83678
2.53748
-3.66336
-26.3071
-49.4506
-88.3653
-123.192
-96.8893
39.4954
229.209
344.362
3.71213
3.71286
3.71474
3.71712
3.71848
3.71605
3.70423
3.67209
3.6294
3.76354
3.00234
-2.79824
-7.4812
-24.0573
-31.0024
27.9266
179.94
354.946
448.955
3.5783
3.57826
3.57801
3.57699
3.57524
3.57124
3.56456
3.56027
3.54848
3.57039
3.67493
3.27082
0.191864
3.65457
31.8262
85.7603
217.87
382.601
456.119
3.44534
3.44307
3.43992
3.43581
3.43085
3.42493
3.41865
3.41606
3.41985
3.42507
3.46694
3.45095
3.13085
2.5552
9.30483
100.041
190.459
313.116
378.263
3.31191
3.30778
3.30278
3.29621
3.28774
3.27738
3.26608
3.25788
3.24613
3.23233
3.27573
3.1434
3.00474
2.7777
2.45036
2.08332
32.1236
160.295
248.029
3.17914
3.17359
3.16641
3.15699
3.1451
3.13023
3.11195
3.09136
3.05131
3.01984
3.00258
2.88161
2.7922
2.5452
2.32652
2.37675
3.1733
23.0297
116.362
3.0466
3.03978
3.03102
3.01989
3.00537
2.98618
2.96094
2.92588
2.86251
2.81664
2.71729
2.58379
2.54875
2.32992
2.20298
2.31531
2.58125
2.96618
13.6263
2.91511
2.90751
2.89799
2.88576
2.8698
2.84823
2.81808
2.77251
2.69974
2.64176
2.4144
2.30552
2.36873
2.1816
2.10072
2.16813
2.40992
2.56706
2.88878
2.78436
2.77651
2.76693
2.75469
2.73866
2.71731
2.68743
2.6426
2.57754
2.49098
2.1902
2.23124
2.29828
2.19462
2.15171
2.22632
2.45148
2.45115
2.72786
2.65454
2.64692
2.63776
2.62631
2.61166
2.59273
2.56727
2.53185
2.48281
2.40354
2.23743
2.26805
2.27027
2.27982
2.23534
2.277
2.43081
2.41546
2.9042
2.52553
2.51851
2.51029
2.50026
2.48794
2.47282
2.45382
2.43002
2.39978
2.3552
2.29136
2.32341
2.38521
2.40584
2.32191
2.31612
2.43262
2.39765
2.80534
2.39714
2.39097
2.38391
2.37567
2.36609
2.35516
2.34275
2.32952
2.31693
2.30748
2.3106
2.36942
2.46992
2.45293
2.3727
2.31577
2.37371
2.35311
2.66177
2.26918
2.26396
2.25823
2.25187
2.24498
2.23788
2.23105
2.22591
2.22489
2.23236
2.2586
2.31379
2.40831
2.38816
2.31371
2.25383
2.26276
2.26682
2.5266
2.14144
2.13724
2.13278
2.12818
2.12366
2.1197
2.11703
2.11717
2.12241
2.13613
2.1647
2.20543
2.26749
2.26058
2.18969
2.14098
2.12804
2.13661
2.2581
2.01377
2.0105
2.00724
2.00417
2.00155
1.9999
1.99998
2.00301
2.01051
2.02477
2.04917
2.07662
2.11187
2.10544
2.05532
2.01019
1.98939
2.00436
1.97907
1.88602
1.8836
1.88137
1.87953
1.87835
1.87831
1.88001
1.88429
1.89207
1.90475
1.92429
1.94035
1.96069
1.9517
1.9207
1.88389
1.86667
1.89179
1.89977
1.75807
1.7564
1.75502
1.75415
1.75402
1.75501
1.75756
1.7622
1.76934
1.7801
1.79519
1.80258
1.81706
1.8057
1.78918
1.76154
1.7581
1.78937
1.79377
1.62985
1.62881
1.62813
1.628
1.62861
1.63025
1.63322
1.6378
1.64418
1.65299
1.66411
1.66646
1.67842
1.66287
1.65605
1.6292
1.64809
1.69661
1.52471
1.50132
1.50079
1.50066
1.50109
1.50223
1.50429
1.50746
1.5119
1.5176
1.5246
1.53237
1.53326
1.54332
1.51765
1.51541
1.48356
1.53424
1.63908
1.60034
1.37244
1.37233
1.37264
1.37348
1.375
1.37735
1.38066
1.38497
1.39025
1.39622
1.40179
1.40317
1.40748
1.3751
1.36233
1.31541
1.43035
1.59001
1.61772
1.2432
1.24342
1.24406
1.24521
1.247
1.24955
1.25297
1.25733
1.26254
1.26838
1.27397
1.27703
1.27669
1.2528
1.22331
1.19537
1.35439
1.56532
1.60868
1.1136
1.11407
1.11494
1.1163
1.11827
1.12093
1.12449
1.1289
1.13428
1.14065
1.14756
1.15403
1.1573
1.14548
1.12018
1.15651
1.3442
1.56341
1.58169
0.983647
0.984286
0.985309
0.986796
0.988857
0.991616
0.995123
0.999581
1.00517
1.0123
1.02126
1.03267
1.04702
1.05939
1.05158
1.09643
1.32295
1.55861
1.52604
0.853347
0.854087
0.855182
0.856702
0.858743
0.861417
0.864823
0.86913
0.874558
0.88159
0.890639
0.903005
0.920751
0.943715
0.94429
0.881303
1.11316
1.91384
3.69466
0.72272
0.723499
0.724591
0.726059
0.727985
0.730465
0.733595
0.737504
0.742344
0.748455
0.75577
0.765194
0.77703
0.788498
0.784051
0.662824
0.630472
1.73499
3.98391
0.591793
0.592553
0.593568
0.594905
0.596627
0.598804
0.601511
0.60482
0.60878
0.613579
0.61853
0.623883
0.631586
0.625451
0.607133
0.517284
0.316897
0.462295
3.93861
0.460599
0.461295
0.46217
0.463308
0.46475
0.466542
0.468726
0.471325
0.474291
0.477626
0.480742
0.482496
0.488108
0.471823
0.454574
0.404119
0.298699
0.228356
3.0072
0.329152
0.329696
0.330423
0.331314
0.332417
0.333762
0.335367
0.337222
0.339232
0.341278
0.342861
0.342614
0.345378
0.329103
0.320045
0.297994
0.25822
0.0760047
4.16908
0.197537
0.197934
0.198417
0.199002
0.199713
0.20057
0.201576
0.202706
0.203884
0.205007
0.205779
0.204945
0.206233
0.201189
0.201766
0.180637
0.171776
-0.0277124
0.754101
0.0657217
0.0659787
0.0661906
0.0664146
0.066677
0.0669901
0.0673585
0.0677823
0.0682433
0.0687051
0.0691703
0.0681221
0.0696744
0.0570461
0.0721127
0.0229621
0.0595079
-0.0127527
0.171107
)
;

boundaryField
{
    leftWall
    {
        type            fixedFluxPressure;
        gradient        uniform 0;
        value           nonuniform List<scalar> 
50
(
4076.4
3276.63
2467.58
1647.76
910.769
744.695
750.012
641.116
596.182
433.902
300.235
163.476
5.372
4.71561
4.972
4.3496
4.73908
4.3294
4.32453
4.08997
3.98834
3.82304
3.68505
3.5474
3.40967
3.27269
3.13628
3.00037
2.86487
2.72972
2.59492
2.46039
2.32612
2.19208
2.05824
1.92458
1.79109
1.65775
1.52454
1.39145
1.25846
1.12557
0.992762
0.860037
0.727375
0.594736
0.462109
0.329543
0.197141
0.0649021
)
;
    }
    rightWall
    {
        type            fixedFluxPressure;
        gradient        uniform 0;
        value           nonuniform List<scalar> 
50
(
3278.69
2648.28
2318.29
2015.29
1815.86
1671.29
1543.79
1438.39
1383.86
1356.47
1208.59
1029.48
825.859
618.213
417.415
225.593
74.4709
7.00219
39.681
179.05
344.362
448.955
456.119
378.263
248.029
116.362
13.6263
2.88878
2.72786
2.9042
2.80534
2.66177
2.5266
2.2581
1.97907
1.89977
1.79377
1.52471
1.60034
1.61772
1.60868
1.58169
1.52604
3.69466
3.98391
3.93861
3.0072
4.16908
0.754101
0.171107
)
;
    }
    lowerWall
    {
        type            fixedFluxPressure;
        gradient        nonuniform List<scalar> 
62
(
132719
132719
132719
132719
132719
132719
132719
132719
132719
132719
132719
132719
132719
132719
132719
132719
132719
132719
132719
132719
132719
132719
132718
0
0
0
0
0
0
0
0
131702
130845
127851
121460
0
0
0
0
0
0
0
0
5175.33
5438.63
5486.31
5492.89
5503.53
5675.35
6080.96
6623.57
7263.97
8262.14
8819.83
9135.84
9312.53
9456.77
9695.79
10152.8
12141.4
12430.4
12183.7
)
;
        value           nonuniform List<scalar> 
62
(
4474.55
4471.91
4461.65
4466.58
4450.6
4441.26
4441.7
4437.35
4444.23
4466.02
4505.22
4579.44
4709.76
4928.12
5256.76
5730.94
6298.88
6904.11
7443.14
7857.35
8158.08
8367.62
8456.37
8058.22
7272.43
6535.88
5801.71
5083.08
4385.64
3716.28
3069.04
2862.84
2792.09
2598.59
2269.07
2792.7
2703.75
2657.31
2587.55
2489.5
2295.51
1854.18
1230.82
2808.23
2906.41
3038.93
3006.99
2891.89
2794.26
2741.04
2693.87
2622.06
2572.13
2584.34
2677.09
2713.68
2608.58
2413.92
2197.15
2237.02
2803.66
3315.24
)
;
    }
    atmosphere
    {
        type            totalPressure;
        U               U.air;
        phi             phi.air;
        rho             rho;
        psi             none;
        gamma           1;
        p0              uniform 0;
        value           nonuniform List<scalar> 
46
(
-0.00161945
-0.00177188
-0.00179999
-0.00184219
-0.00189356
-0.00195264
-0.00201635
-0.00208099
-0.00214239
-0.00219559
-0.00223594
-0.00225889
-0.00225933
-0.00223066
-0.00216644
-0.00206557
-0.0019288
-0.00175634
-0.00155026
-0.00131647
-0.00106318
-0.000801114
-0.000546375
-0.000398499
-0.000317227
-0.0002533
-0.000204872
-0.000161429
0
0
0
0
0
0
0
0
0
0
0
0
0
0
-0.0358072
0
0
0
)
;
    }
    defaultFaces
    {
        type            empty;
    }
}


// ************************************************************************* //
