/*--------------------------------*- C++ -*----------------------------------*\
| =========                 |                                                 |
| \\      /  F ield         | OpenFOAM: The Open Source CFD Toolbox           |
|  \\    /   O peration     | Version:  2.4.0                                 |
|   \\  /    A nd           | Web:      www.OpenFOAM.org                      |
|    \\/     M anipulation  |                                                 |
\*---------------------------------------------------------------------------*/
FoamFile
{
    version     2.0;
    format      ascii;
    class       surfaceScalarField;
    location    "0.55";
    object      phi;
}
// * * * * * * * * * * * * * * * * * * * * * * * * * * * * * * * * * * * * * //

dimensions      [0 3 -1 0 0 0 0];

internalField   nonuniform List<scalar> 
4432
(
2.48918e-06
-2.48918e-06
5.19157e-06
-2.70239e-06
7.04048e-06
-1.84892e-06
1.02775e-05
-3.23698e-06
1.2793e-05
-2.51556e-06
1.46361e-05
-1.84308e-06
1.71367e-05
-2.5006e-06
1.97519e-05
-2.61523e-06
2.27876e-05
-3.03569e-06
2.45376e-05
-1.74994e-06
2.54148e-05
-8.77207e-07
2.6213e-05
-7.9825e-07
2.67483e-05
-5.35265e-07
2.66227e-05
1.25559e-07
2.48794e-05
1.7433e-06
2.17147e-05
3.16472e-06
1.6997e-05
4.71768e-06
1.17295e-05
5.26751e-06
6.98175e-06
4.74776e-06
4.36025e-06
2.62151e-06
2.91774e-06
1.44251e-06
2.86474e-07
2.63127e-06
2.86476e-07
2.50634e-06
-4.99551e-06
5.14323e-06
-5.33929e-06
7.27771e-06
-3.9834e-06
1.02034e-05
-6.16262e-06
1.26248e-05
-4.93698e-06
1.48049e-05
-4.02323e-06
1.7409e-05
-5.10469e-06
1.99556e-05
-5.16179e-06
2.25089e-05
-5.589e-06
2.41339e-05
-3.37491e-06
2.55964e-05
-2.33971e-06
2.68346e-05
-2.03643e-06
2.74102e-05
-1.11094e-06
2.68717e-05
6.64138e-07
2.53913e-05
3.22368e-06
2.2197e-05
6.35897e-06
1.73922e-05
9.52249e-06
1.18348e-05
1.0825e-05
7.54111e-06
9.04142e-06
4.71417e-06
5.44844e-06
2.86212e-06
3.29456e-06
5.67387e-07
4.926e-06
8.53863e-07
2.52504e-06
-7.52055e-06
5.04405e-06
-7.85829e-06
7.47312e-06
-6.41247e-06
1.00384e-05
-8.7279e-06
1.25007e-05
-7.39933e-06
1.5058e-05
-6.58048e-06
1.77005e-05
-7.74717e-06
2.00774e-05
-7.53875e-06
2.20605e-05
-7.57207e-06
2.37567e-05
-5.07107e-06
2.61282e-05
-4.71127e-06
2.79582e-05
-3.86647e-06
2.88528e-05
-2.00547e-06
2.821e-05
1.30689e-06
2.56758e-05
5.75791e-06
2.15219e-05
1.05129e-05
1.6522e-05
1.45224e-05
1.09736e-05
1.63734e-05
6.89649e-06
1.31185e-05
5.12861e-06
7.21633e-06
4.3198e-06
4.10336e-06
3.21126e-06
6.03455e-06
4.06513e-06
2.531e-06
-1.00516e-05
4.81432e-06
-1.01416e-05
7.86672e-06
-9.46487e-06
9.65822e-06
-1.05194e-05
1.22992e-05
-1.00403e-05
1.53592e-05
-9.64053e-06
1.77377e-05
-1.01257e-05
1.97604e-05
-9.56143e-06
2.15573e-05
-9.36897e-06
2.39791e-05
-7.49289e-06
2.65862e-05
-7.31838e-06
2.78776e-05
-5.15784e-06
2.78186e-05
-1.94646e-06
2.6542e-05
2.58354e-06
2.53977e-05
6.90214e-06
2.27173e-05
1.31933e-05
1.7739e-05
1.95007e-05
1.19868e-05
2.21256e-05
7.47533e-06
1.763e-05
4.73176e-06
9.9599e-06
3.76365e-06
5.07148e-06
2.87848e-06
6.91971e-06
6.94361e-06
2.26325e-06
-1.23148e-05
4.23707e-06
-1.21154e-05
7.40218e-06
-1.263e-05
8.71401e-06
-1.18312e-05
1.0928e-05
-1.22543e-05
1.41236e-05
-1.28361e-05
1.60222e-05
-1.20243e-05
1.77395e-05
-1.12787e-05
1.9716e-05
-1.13455e-05
2.27145e-05
-1.04914e-05
2.45737e-05
-9.17757e-06
2.65196e-05
-7.10371e-06
2.89892e-05
-4.41606e-06
2.97805e-05
1.79223e-06
2.52492e-05
1.14335e-05
2.10043e-05
1.74382e-05
1.69335e-05
2.35714e-05
1.14182e-05
2.76409e-05
7.78954e-06
2.12587e-05
4.34011e-06
1.34093e-05
2.54527e-06
6.86632e-06
2.55107e-06
6.91392e-06
9.49468e-06
4.86143e-07
-1.28009e-05
1.14816e-06
-1.27775e-05
2.11718e-06
-1.3599e-05
2.93052e-06
-1.26446e-05
3.59738e-06
-1.29212e-05
5.36681e-06
-1.46056e-05
7.10139e-06
-1.37589e-05
8.60274e-06
-1.27801e-05
1.04901e-05
-1.32328e-05
1.2387e-05
-1.23883e-05
1.3692e-05
-1.04825e-05
1.5497e-05
-8.9088e-06
1.64321e-05
-5.35113e-06
1.56398e-05
2.58451e-06
1.51407e-05
1.19327e-05
1.43375e-05
1.82414e-05
1.11506e-05
2.67583e-05
9.02946e-06
2.97621e-05
7.24812e-06
2.304e-05
3.68269e-06
1.69748e-05
7.34225e-07
9.81479e-06
7.64869e-07
6.88328e-06
1.02595e-05
-6.66038e-07
-1.21349e-05
-1.1437e-06
-1.22998e-05
-1.45585e-06
-1.32868e-05
-1.17305e-06
-1.29274e-05
-4.49446e-07
-1.36448e-05
7.12302e-07
-1.57673e-05
1.91972e-06
-1.49663e-05
3.58184e-06
-1.44422e-05
4.6986e-06
-1.43496e-05
5.35682e-06
-1.30465e-05
4.94592e-06
-1.00716e-05
4.07863e-06
-8.0415e-06
3.18787e-06
-4.46038e-06
5.61123e-06
1.61157e-07
1.04798e-05
7.06408e-06
1.08898e-05
1.78314e-05
3.4618e-06
3.41863e-05
3.91282e-06
2.9311e-05
4.0092e-06
2.29436e-05
2.69872e-06
1.82852e-05
3.90784e-08
1.24744e-05
-1.419e-07
7.06426e-06
1.01176e-05
-8.02939e-07
-1.1332e-05
-1.47052e-06
-1.16322e-05
-1.64111e-06
-1.31163e-05
-1.73876e-06
-1.28297e-05
-1.16111e-06
-1.42224e-05
5.49015e-07
-1.74774e-05
1.98576e-06
-1.6403e-05
3.86128e-06
-1.63177e-05
5.77695e-06
-1.62653e-05
7.52998e-06
-1.47996e-05
8.46132e-06
-1.1003e-05
9.52384e-06
-9.10402e-06
6.47502e-06
-1.41156e-06
-1.6353e-06
8.27148e-06
-7.36361e-06
1.27924e-05
-3.29979e-06
1.37676e-05
-3.19614e-06
3.40826e-05
-8.3857e-06
3.45006e-05
-4.65445e-06
1.92124e-05
-1.68824e-06
1.5319e-05
-8.33164e-07
1.16193e-05
3.84349e-08
6.19266e-06
1.01561e-05
-1.72556e-05
1.72556e-05
-9.87285e-06
-7.38276e-06
8.13083e-06
-1.80037e-05
1.78982e-05
-9.76732e-06
2.16785e-05
-3.78031e-06
2.73304e-05
-5.65188e-06
3.54941e-05
-8.16372e-06
4.17104e-05
-6.21628e-06
4.34695e-05
-1.75912e-06
4.32884e-05
1.81114e-07
4.47378e-05
-1.44937e-06
5.2166e-05
-7.42821e-06
5.85376e-05
-6.37171e-06
5.27648e-05
5.77282e-06
3.39315e-05
1.88332e-05
1.51005e-05
1.8831e-05
1.64279e-06
1.34576e-05
3.15502e-06
-1.51227e-06
3.15499e-06
-1.1268e-05
2.85236e-05
1.22167e-06
-1.98724e-05
2.35412e-05
-4.03232e-05
3.80028e-05
-2.42289e-05
4.64822e-05
-1.22597e-05
5.4971e-05
-1.41407e-05
6.36607e-05
-1.68535e-05
6.94441e-05
-1.19996e-05
7.01241e-05
-2.43916e-06
6.6848e-05
3.45721e-06
6.54964e-05
-9.77645e-08
7.25954e-05
-1.45273e-05
8.42587e-05
-1.8035e-05
8.66956e-05
3.33592e-06
5.456e-05
5.09689e-05
2.0131e-05
5.32599e-05
1.48573e-05
1.87313e-05
1.79021e-05
-4.55703e-06
2.10571e-05
-3.63222e-06
3.21558e-05
1.19814e-05
-3.54861e-05
2.88839e-05
-5.72257e-05
4.41098e-05
-3.94548e-05
5.70563e-05
-2.52063e-05
6.57962e-05
-2.28805e-05
7.1039e-05
-2.20963e-05
7.53311e-05
-1.62917e-05
7.64374e-05
-3.54548e-06
7.33501e-05
6.54453e-06
7.16595e-05
1.59279e-06
7.66223e-05
-1.949e-05
8.72532e-05
-2.86659e-05
8.61168e-05
4.47233e-06
5.37653e-05
8.33204e-05
2.02159e-05
8.68093e-05
9.8881e-07
3.79584e-05
1.5845e-06
-5.15276e-06
2.26416e-05
7.9622e-06
2.41936e-05
2.24749e-05
-4.99989e-05
3.38099e-05
-6.85606e-05
4.59441e-05
-5.1589e-05
5.71187e-05
-3.6381e-05
6.5114e-05
-3.08757e-05
6.90828e-05
-2.60652e-05
7.064e-05
-1.78488e-05
7.18953e-05
-4.80082e-06
6.96439e-05
8.79594e-06
6.75575e-05
3.67917e-06
7.14577e-05
-2.33901e-05
7.79584e-05
-3.51667e-05
7.79938e-05
4.43689e-06
6.01569e-05
0.000101157
2.30251e-05
0.000123941
-9.25606e-06
7.02395e-05
-3.48881e-06
-1.092e-05
1.91528e-05
1.87209e-05
5.47267e-06
2.898e-05
-6.02579e-05
3.51531e-05
-7.47337e-05
4.39047e-05
-6.03406e-05
5.30892e-05
-4.55655e-05
5.9134e-05
-3.69205e-05
6.0498e-05
-2.74291e-05
6.12996e-05
-1.86505e-05
6.10896e-05
-4.59073e-06
5.98169e-05
1.00686e-05
6.03719e-05
3.12417e-06
6.69766e-05
-2.99947e-05
7.43705e-05
-4.25606e-05
7.49525e-05
3.85497e-06
6.41606e-05
0.000111949
3.32407e-05
0.000154861
-1.13758e-07
0.000103594
2.00727e-06
-1.3041e-05
2.116e-05
2.45197e-05
-1.90471e-05
3.24274e-05
-6.81656e-05
3.56102e-05
-7.79165e-05
4.16555e-05
-6.63859e-05
4.8979e-05
-5.2889e-05
5.45536e-05
-4.24951e-05
5.63723e-05
-2.92479e-05
5.55834e-05
-1.78615e-05
5.26163e-05
-1.62366e-06
5.34535e-05
9.23146e-06
5.49305e-05
1.64712e-06
5.92458e-05
-3.431e-05
6.15068e-05
-4.48216e-05
6.91145e-05
-3.75269e-06
6.22611e-05
0.000118803
3.36221e-05
0.0001835
-4.03772e-06
0.000141254
4.31838e-06
-2.13971e-05
2.54784e-05
2.53472e-05
-4.43943e-05
3.34685e-05
-7.62869e-05
3.62964e-05
-8.07444e-05
4.03617e-05
-7.04512e-05
4.67831e-05
-5.93104e-05
5.18285e-05
-4.75405e-05
5.32435e-05
-3.06628e-05
4.88004e-05
-1.34184e-05
4.48822e-05
2.29462e-06
4.77184e-05
6.39524e-06
4.81124e-05
1.25315e-06
4.22177e-05
-2.84153e-05
2.42627e-05
-2.68665e-05
2.27151e-05
-2.20472e-06
6.09291e-05
8.05888e-05
4.46872e-05
0.000199741
-1.74059e-06
0.00018768
4.67598e-06
-2.78137e-05
3.01544e-05
2.61374e-05
-7.05317e-05
3.40206e-05
-8.417e-05
3.64528e-05
-8.31767e-05
4.09331e-05
-7.49315e-05
4.72553e-05
-6.56326e-05
5.10582e-05
-5.13434e-05
5.19522e-05
-3.15568e-05
4.5838e-05
-7.30424e-06
4.47616e-05
3.37107e-06
4.71202e-05
4.03666e-06
4.35561e-05
4.81721e-06
2.73703e-05
-1.22294e-05
1.57743e-06
-1.07365e-06
-5.09703e-05
5.03431e-05
-3.54969e-05
6.51159e-05
3.80326e-05
0.000126213
-7.79608e-06
0.000233508
-1.09563e-05
-2.46534e-05
1.9198e-05
-1.82919e-06
-9.50278e-06
-3.12093e-06
-1.03405e-05
-4.37573e-06
-1.18614e-05
-3.74284e-06
-1.34626e-05
-2.59463e-06
-1.53706e-05
-5.38112e-07
-1.9534e-05
3.24204e-06
-2.01832e-05
7.60251e-06
-2.06782e-05
9.30869e-06
-1.79714e-05
8.78221e-06
-1.42731e-05
7.61249e-06
-9.83325e-06
6.40835e-06
-7.89988e-06
9.46774e-06
-4.47096e-06
1.76222e-05
1.17057e-07
2.16805e-05
8.73403e-06
1.76282e-05
1.78199e-05
9.64876e-06
4.20621e-05
-1.27279e-05
5.68773e-05
-2.58744e-05
3.23588e-05
-2.26623e-05
1.2107e-05
-9.61257e-06
-1.43043e-06
5.50366e-06
-8.92358e-06
-7.73513e-06
2.33949e-05
-2.32567e-06
-7.1771e-06
-4.21341e-06
-8.45273e-06
-4.94653e-06
-1.11283e-05
-3.96814e-06
-1.4441e-05
-2.21701e-06
-1.71218e-05
9.87816e-07
-2.27388e-05
6.84305e-06
-2.60384e-05
1.35962e-05
-2.74313e-05
1.80003e-05
-2.23755e-05
2.16055e-05
-1.78783e-05
2.42494e-05
-1.24772e-05
2.60819e-05
-9.73236e-06
2.16055e-05
5.46573e-09
1.54037e-05
6.31882e-06
1.19105e-05
1.22273e-05
1.2938e-05
1.67924e-05
2.47014e-05
3.02987e-05
3.09833e-05
5.05954e-05
7.55445e-06
5.57877e-05
-4.1366e-06
2.3798e-05
-2.31539e-06
-3.25165e-06
4.69134e-06
-1.59303e-05
-2.23728e-05
1.9329e-05
-2.56921e-06
-4.60789e-06
-5.07911e-06
-5.94283e-06
-7.13429e-06
-9.07315e-06
-7.85183e-06
-1.37235e-05
-8.08192e-06
-1.68917e-05
-3.1648e-06
-2.76559e-05
6.67374e-06
-3.58769e-05
1.48358e-05
-3.55934e-05
1.74617e-05
-2.50015e-05
1.7984e-05
-1.84006e-05
1.91821e-05
-1.36753e-05
2.01939e-05
-1.07441e-05
2.39332e-05
-3.73381e-06
2.97816e-05
4.70412e-07
3.25606e-05
9.4482e-06
3.38691e-05
1.5484e-05
4.00731e-05
2.40946e-05
5.90427e-05
3.16258e-05
7.59916e-05
3.88388e-05
7.53335e-05
2.44561e-05
6.51461e-05
6.93575e-06
5.82178e-05
-9.00197e-06
-3.00786e-05
6.59236e-05
-7.54861e-06
2.94072e-06
-1.50452e-05
1.55374e-06
-1.71264e-05
-6.99188e-06
-1.33307e-05
-1.75192e-05
-9.88054e-06
-2.03418e-05
-4.05983e-06
-3.34766e-05
2.52352e-06
-4.24603e-05
3.87592e-06
-3.69458e-05
4.41213e-06
-2.55377e-05
6.8345e-06
-2.08229e-05
1.01056e-05
-1.69464e-05
1.32003e-05
-1.38389e-05
1.733e-05
-7.86352e-06
2.04454e-05
-2.64495e-06
2.62494e-05
3.64419e-06
3.31297e-05
8.60366e-06
4.15701e-05
1.56542e-05
5.69714e-05
1.62244e-05
7.48261e-05
2.09841e-05
9.1267e-05
8.01524e-06
0.000103047
-4.8443e-06
0.000113469
-1.94238e-05
-3.66961e-05
0.000120086
1.06196e-06
1.87874e-06
-2.95014e-06
5.56584e-06
-1.06165e-05
6.74466e-07
-2.14929e-05
-6.64273e-06
-2.93159e-05
-1.25189e-05
-3.82622e-05
-2.45303e-05
-5.48673e-05
-2.58552e-05
-6.64566e-05
-2.53565e-05
-6.62769e-05
-2.57173e-05
-5.52685e-05
-3.18313e-05
-3.84991e-05
-3.37159e-05
-2.54665e-05
-2.68714e-05
-1.0792e-05
-2.2538e-05
1.01084e-06
-1.44477e-05
1.30427e-05
-8.38772e-06
2.22996e-05
-6.53211e-07
3.20662e-05
5.88767e-06
4.42097e-05
4.08095e-06
6.09797e-05
4.21413e-06
7.85974e-05
-9.60252e-06
8.88787e-05
-1.51256e-05
9.90299e-05
-2.95751e-05
-4.40886e-05
0.000106422
7.28758e-06
-5.40881e-06
-5.07945e-06
1.79329e-05
-5.37488e-05
4.93438e-05
-5.98853e-05
-5.06211e-07
-1.38561e-05
-5.85481e-05
-5.53501e-05
1.69637e-05
-0.000106258
2.50526e-05
-0.000132111
4.9633e-07
-0.000128271
-2.95573e-05
-0.000110426
-4.96762e-05
-9.70663e-05
-4.70754e-05
-8.91631e-05
-3.47746e-05
-7.57494e-05
-3.59518e-05
-5.94219e-05
-3.07752e-05
-3.95482e-05
-2.82614e-05
-1.88458e-05
-2.13556e-05
3.4441e-06
-1.64023e-05
2.11919e-05
-1.36669e-05
3.63031e-05
-1.08971e-05
5.15254e-05
-2.48248e-05
6.36663e-05
-2.72665e-05
7.2634e-05
-3.85428e-05
-4.77059e-05
7.62513e-05
8.97772e-07
-6.30657e-06
1.1014e-05
7.81667e-06
7.49239e-05
-1.45661e-05
0.000134188
-5.97705e-05
0.000144067
-6.84269e-05
0.000130025
3.10059e-05
4.45407e-05
0.000110537
-5.16382e-05
9.66752e-05
-0.000101779
2.05832e-05
-0.00011061
-4.08446e-05
-9.91339e-05
-5.85518e-05
-8.73161e-05
-4.65923e-05
-8.52969e-05
-3.7971e-05
-7.85012e-05
-3.7571e-05
-6.64395e-05
-4.03231e-05
-5.39747e-05
-3.38203e-05
-3.89657e-05
-3.14113e-05
-2.28801e-05
-2.97526e-05
-9.5341e-06
-2.4243e-05
3.18616e-07
-3.46775e-05
1.24016e-05
-3.93496e-05
1.96079e-05
-4.5749e-05
-5.34373e-05
2.53394e-05
-4.2617e-05
3.63104e-05
-5.08167e-05
1.60164e-05
-3.83337e-05
-2.70491e-05
-3.29511e-05
-6.51531e-05
-2.6939e-05
-7.4439e-05
2.26295e-05
-1.85627e-05
3.27422e-05
0.000100424
3.80249e-05
9.13925e-05
5.67193e-05
1.88877e-06
5.66052e-05
-4.07306e-05
5.61787e-05
-5.81253e-05
5.11094e-05
-4.1523e-05
2.89706e-06
1.02413e-05
-3.87694e-05
4.09544e-06
-5.05686e-05
-2.85239e-05
-4.45806e-05
-3.98084e-05
-3.91534e-05
-3.68385e-05
-2.93079e-05
-3.95981e-05
-2.08642e-05
-3.26866e-05
-2.12571e-05
-3.42847e-05
-1.11467e-05
-4.946e-05
-6.00174e-06
-5.08941e-05
-5.31258e-05
-6.31322e-06
2.17831e-05
1.45273e-05
4.62766e-05
-8.47706e-06
4.60534e-05
-2.6826e-05
1.96688e-05
-3.87686e-05
-1.24506e-05
-4.23196e-05
-1.04787e-05
-2.05345e-05
4.77469e-05
4.21986e-05
8.72061e-05
5.19333e-05
4.58947e-05
4.32001e-05
-1.00853e-05
1.52494e-05
-4.0344e-05
-2.78666e-05
-3.78252e-05
-4.40418e-05
9.90951e-06
-3.74934e-05
6.28009e-05
-4.8796e-05
8.7216e-05
-5.2939e-05
9.26141e-05
-4.52065e-05
9.61211e-05
-4.03456e-05
9.37083e-05
-3.71855e-05
7.5193e-05
-1.41715e-05
6.37024e-05
-2.27943e-05
4.51509e-05
-3.09086e-05
4.24115e-05
-4.81548e-05
-5.93725e-05
4.86583e-05
-1.16481e-06
1.56922e-05
-1.02099e-05
5.68009e-07
-1.41127e-05
-2.29232e-05
-1.70416e-05
-3.58396e-05
-2.12025e-05
-3.81588e-05
-1.56892e-05
-2.60478e-05
3.26476e-05
-6.13821e-06
6.59643e-05
1.86165e-05
7.27697e-05
3.63948e-05
6.52541e-05
2.2765e-05
3.90763e-05
-1.68875e-06
2.72204e-05
-3.2186e-05
2.88068e-05
-3.90798e-05
2.45256e-05
-4.45148e-05
2.29621e-05
-5.13755e-05
2.85592e-05
-5.08037e-05
3.48025e-05
-4.6589e-05
4.06101e-05
-4.29931e-05
6.12032e-05
-3.47647e-05
7.21237e-05
-3.37148e-05
7.93175e-05
-3.81026e-05
7.74747e-05
-4.63119e-05
-5.26304e-05
7.07326e-05
1.10633e-05
4.62891e-06
2.0015e-05
-8.38373e-06
1.39173e-05
-1.68255e-05
1.68343e-06
-2.36058e-05
-8.71142e-06
-2.77639e-05
-1.23325e-05
-2.24268e-05
-2.61075e-06
-1.58599e-05
2.34992e-05
-7.49338e-06
4.39653e-05
1.59287e-05
4.89087e-05
1.78216e-05
4.42206e-05
2.99929e-06
3.88162e-05
-2.67815e-05
4.07273e-05
-4.09909e-05
4.3627e-05
-4.74145e-05
4.29261e-05
-5.06746e-05
4.38149e-05
-5.16926e-05
4.75154e-05
-5.02895e-05
4.91994e-05
-4.46772e-05
5.04819e-05
-3.60473e-05
4.55624e-05
-2.87954e-05
3.67128e-05
-2.9253e-05
2.77299e-05
-3.73291e-05
-4.46757e-05
1.97753e-05
3.01749e-06
1.61143e-06
4.03207e-06
-9.39832e-06
4.5387e-06
-1.73321e-05
1.7893e-06
-2.08564e-05
-3.21485e-06
-2.27598e-05
-5.53324e-06
-2.01084e-05
-4.0514e-06
-1.73418e-05
1.68732e-06
-1.32321e-05
1.85753e-05
-9.59337e-07
3.02879e-05
6.10898e-06
3.63965e-05
-3.10935e-06
3.278e-05
-2.3165e-05
2.58321e-05
-3.40431e-05
2.05938e-05
-4.21763e-05
1.65703e-05
-4.66511e-05
1.24793e-05
-4.76016e-05
8.99568e-06
-4.68059e-05
9.06078e-06
-4.47424e-05
1.36427e-05
-4.06293e-05
2.13167e-05
-3.64694e-05
2.66032e-05
-3.45395e-05
2.49607e-05
-3.56865e-05
-3.71265e-05
1.74114e-05
5.68384e-06
-4.07242e-06
7.37763e-06
-1.10921e-05
5.77265e-06
-1.57271e-05
3.19737e-06
-1.82811e-05
-5.23144e-07
-1.90392e-05
-3.44597e-06
-1.71855e-05
-5.02338e-06
-1.57644e-05
-5.19979e-06
-1.30557e-05
3.26532e-06
-9.42445e-06
1.42205e-05
-4.8462e-06
2.15546e-05
-1.04435e-05
1.99609e-05
-2.15712e-05
1.64818e-05
-3.0564e-05
1.28494e-05
-3.85439e-05
9.13535e-06
-4.29372e-05
5.85173e-06
-4.4318e-05
2.72534e-06
-4.36796e-05
-4.34257e-07
-4.15828e-05
-2.98457e-06
-3.8079e-05
-4.85036e-06
-3.46036e-05
-6.37126e-06
-3.30185e-05
-8.60719e-06
-3.34507e-05
-3.39081e-05
-1.18255e-05
3.59464e-06
-7.66707e-06
5.906e-06
-1.34035e-05
5.70348e-06
-1.55246e-05
3.96046e-06
-1.65381e-05
1.63229e-06
-1.67111e-05
2.20931e-07
-1.57742e-05
-5.98788e-07
-1.49447e-05
-1.84494e-07
-1.347e-05
3.10106e-06
-1.271e-05
8.81426e-06
-1.05594e-05
1.21051e-05
-1.37343e-05
1.05436e-05
-2.00098e-05
7.49233e-06
-2.75128e-05
3.21013e-06
-3.42617e-05
-1.24843e-06
-3.84786e-05
-5.49876e-06
-4.00677e-05
-9.21638e-06
-3.9962e-05
-1.16836e-05
-3.91156e-05
-1.28231e-05
-3.69395e-05
-1.23191e-05
-3.51076e-05
-1.14409e-05
-3.38968e-05
-1.17109e-05
-3.31807e-05
-3.27676e-05
-1.28515e-05
1.7935e-06
-9.46058e-06
2.77822e-06
-1.43882e-05
2.51087e-06
-1.52573e-05
1.74233e-06
-1.57695e-05
9.93388e-07
-1.59621e-05
6.93098e-07
-1.54739e-05
8.83032e-07
-1.51346e-05
1.96988e-06
-1.45568e-05
3.81488e-06
-1.4555e-05
6.82285e-06
-1.35674e-05
8.73421e-06
-1.56456e-05
7.97059e-06
-1.92462e-05
5.04016e-06
-2.45824e-05
6.16255e-07
-2.98378e-05
-3.55353e-06
-3.43089e-05
-6.696e-06
-3.69253e-05
-9.13444e-06
-3.75236e-05
-1.10923e-05
-3.71577e-05
-1.2677e-05
-3.53548e-05
-1.37374e-05
-3.40472e-05
-1.43062e-05
-3.33279e-05
-1.49503e-05
-3.25366e-05
-3.17333e-05
-1.59845e-05
1.07337e-06
-1.05339e-05
1.36021e-06
-1.4675e-05
1.23476e-06
-1.51318e-05
1.0486e-06
-1.55834e-05
9.29497e-07
-1.5843e-05
1.22748e-06
-1.57719e-05
1.85084e-06
-1.57579e-05
2.86857e-06
-1.55746e-05
4.13747e-06
-1.58239e-05
6.09026e-06
-1.55202e-05
7.39272e-06
-1.69481e-05
7.61292e-06
-1.94664e-05
6.38026e-06
-2.33498e-05
3.52413e-06
-2.69817e-05
-2.39941e-07
-3.05448e-05
-3.84188e-06
-3.33234e-05
-6.60961e-06
-3.47558e-05
-8.7429e-06
-3.50244e-05
-1.06151e-05
-3.34826e-05
-1.2665e-05
-3.19973e-05
-1.42805e-05
-3.17123e-05
-1.53471e-05
-3.14701e-05
-3.06895e-05
-1.63909e-05
6.1153e-07
-1.11455e-05
8.5128e-07
-1.49148e-05
9.75737e-07
-1.52563e-05
1.02686e-06
-1.56345e-05
1.13296e-06
-1.59491e-05
1.51034e-06
-1.61492e-05
2.06782e-06
-1.63154e-05
2.92985e-06
-1.64366e-05
3.90385e-06
-1.67979e-05
5.35314e-06
-1.69695e-05
6.47066e-06
-1.80656e-05
7.1297e-06
-2.01254e-05
6.63862e-06
-2.28587e-05
5.03987e-06
-2.5383e-05
2.57915e-06
-2.80841e-05
-5.05122e-07
-3.02391e-05
-3.73189e-06
-3.15291e-05
-6.87949e-06
-3.18768e-05
-9.2334e-06
-3.11287e-05
-1.17199e-05
-2.95108e-05
-1.42334e-05
-2.91989e-05
-1.6026e-05
-2.96773e-05
-2.93105e-05
-1.7405e-05
4.25999e-07
-1.15715e-05
7.29785e-07
-1.52186e-05
9.68422e-07
-1.54949e-05
1.13965e-06
-1.58057e-05
1.24718e-06
-1.60566e-05
1.42664e-06
-1.63287e-05
1.70409e-06
-1.65929e-05
2.16404e-06
-1.68965e-05
2.71312e-06
-1.7347e-05
3.74459e-06
-1.80009e-05
4.70205e-06
-1.90231e-05
5.13601e-06
-2.05594e-05
4.58436e-06
-2.2307e-05
3.36863e-06
-2.41673e-05
1.41813e-06
-2.61336e-05
-1.4127e-06
-2.74083e-05
-4.50491e-06
-2.84368e-05
-7.34787e-06
-2.90339e-05
-9.71116e-06
-2.87654e-05
-1.18509e-05
-2.7371e-05
-1.41851e-05
-2.68646e-05
-1.5952e-05
-2.79105e-05
-2.81997e-05
-1.70626e-05
3.69087e-07
-1.19406e-05
6.78202e-07
-1.55277e-05
8.47995e-07
-1.56647e-05
9.21426e-07
-1.58791e-05
9.10657e-07
-1.60459e-05
8.47704e-07
-1.62657e-05
8.42125e-07
-1.65873e-05
9.14753e-07
-1.69692e-05
1.07962e-06
-1.75118e-05
1.42323e-06
-1.83445e-05
1.75614e-06
-1.9356e-05
1.75477e-06
-2.0558e-05
1.26331e-06
-2.18156e-05
2.67697e-07
-2.31717e-05
-1.52002e-06
-2.43459e-05
-3.91034e-06
-2.50179e-05
-6.29745e-06
-2.60497e-05
-8.52288e-06
-2.68085e-05
-1.07651e-05
-2.65233e-05
-1.25725e-05
-2.55636e-05
-1.40381e-05
-2.5399e-05
-1.53621e-05
-2.65865e-05
-2.691e-05
-1.66519e-05
3.08628e-07
-1.22492e-05
4.04809e-07
-1.56239e-05
4.3151e-07
-1.56914e-05
4.54579e-07
-1.59022e-05
4.80541e-07
-1.60718e-05
4.99477e-07
-1.62847e-05
5.1935e-07
-1.66072e-05
5.28703e-07
-1.69785e-05
5.08202e-07
-1.74913e-05
4.12782e-07
-1.82491e-05
2.14846e-07
-1.9158e-05
-2.39029e-07
-2.01041e-05
-1.06597e-06
-2.09886e-05
-2.12639e-06
-2.21113e-05
-3.47346e-06
-2.29988e-05
-4.75034e-06
-2.3741e-05
-6.36049e-06
-2.44396e-05
-8.40763e-06
-2.47613e-05
-1.02953e-05
-2.46356e-05
-1.17323e-05
-2.41266e-05
-1.2923e-05
-2.42082e-05
-1.42273e-05
-2.52823e-05
-2.56355e-05
-1.55019e-05
1.73535e-07
-1.24227e-05
2.2581e-07
-1.56761e-05
2.95273e-07
-1.57609e-05
3.54718e-07
-1.59616e-05
4.18986e-07
-1.61361e-05
4.92151e-07
-1.63578e-05
5.13363e-07
-1.66284e-05
4.78573e-07
-1.69437e-05
3.48837e-07
-1.73616e-05
5.05185e-08
-1.79508e-05
-3.69416e-07
-1.87381e-05
-9.86592e-07
-1.9487e-05
-1.81321e-06
-2.0162e-05
-2.87173e-06
-2.10527e-05
-4.04437e-06
-2.18262e-05
-5.24026e-06
-2.25452e-05
-6.81718e-06
-2.28626e-05
-8.66618e-06
-2.29123e-05
-1.03444e-05
-2.29574e-05
-1.18304e-05
-2.26405e-05
-1.31867e-05
-2.28519e-05
-1.47224e-05
-2.37466e-05
-2.40036e-05
-1.63543e-05
9.82291e-08
-1.2521e-05
1.76572e-07
-1.57545e-05
2.63101e-07
-1.58474e-05
2.81533e-07
-1.59801e-05
2.85507e-07
-1.61401e-05
2.7441e-07
-1.63467e-05
2.51225e-07
-1.66052e-05
2.26767e-07
-1.69193e-05
1.64257e-07
-1.72991e-05
-1.01431e-07
-1.76851e-05
-5.82625e-07
-1.82569e-05
-1.1732e-06
-1.88964e-05
-1.80808e-06
-1.95271e-05
-2.79572e-06
-2.00651e-05
-3.9628e-06
-2.06591e-05
-5.37381e-06
-2.11341e-05
-6.78397e-06
-2.14525e-05
-8.03813e-06
-2.16581e-05
-9.36492e-06
-2.16306e-05
-1.05778e-05
-2.14277e-05
-1.18161e-05
-2.16135e-05
-1.34663e-05
-2.20964e-05
-2.19166e-05
-1.55534e-05
8.75003e-08
-1.26085e-05
5.46264e-08
-1.57216e-05
-1.11427e-08
-1.57816e-05
-8.88948e-08
-1.59023e-05
-1.7633e-07
-1.60526e-05
-2.76953e-07
-1.62461e-05
-3.9406e-07
-1.64881e-05
-5.30308e-07
-1.6783e-05
-7.01244e-07
-1.71281e-05
-9.44105e-07
-1.74422e-05
-1.40302e-06
-1.7798e-05
-2.00173e-06
-1.82977e-05
-2.66887e-06
-1.886e-05
-3.43164e-06
-1.93023e-05
-4.40468e-06
-1.9686e-05
-5.71513e-06
-1.98237e-05
-7.12833e-06
-2.00392e-05
-8.47486e-06
-2.03116e-05
-9.85036e-06
-2.02551e-05
-1.11522e-05
-2.01258e-05
-1.24522e-05
-2.03136e-05
-1.40542e-05
-2.04943e-05
-2.01163e-05
-1.58545e-05
-1.16722e-09
-1.26073e-05
-7.00611e-08
-1.56527e-05
-1.39358e-07
-1.57123e-05
-2.23765e-07
-1.58179e-05
-3.31242e-07
-1.59452e-05
-4.74385e-07
-1.6103e-05
-6.64921e-07
-1.62975e-05
-8.96656e-07
-1.65513e-05
-1.18633e-06
-1.68385e-05
-1.5464e-06
-1.70822e-05
-2.01808e-06
-1.73263e-05
-2.61949e-06
-1.76963e-05
-3.43552e-06
-1.8044e-05
-4.29033e-06
-1.84475e-05
-5.23686e-06
-1.87395e-05
-6.08327e-06
-1.89772e-05
-6.93821e-06
-1.91843e-05
-8.15293e-06
-1.90968e-05
-9.3766e-06
-1.90314e-05
-1.05423e-05
-1.89601e-05
-1.19217e-05
-1.89342e-05
-1.36186e-05
-1.87974e-05
-1.85873e-05
-1.51477e-05
3.68169e-08
-1.26441e-05
-1.57499e-08
-1.56001e-05
-9.46164e-08
-1.56335e-05
-2.00702e-07
-1.57118e-05
-3.37855e-07
-1.5808e-05
-4.99823e-07
-1.5941e-05
-6.93394e-07
-1.6104e-05
-9.51374e-07
-1.62933e-05
-1.31787e-06
-1.6472e-05
-1.70947e-06
-1.66906e-05
-2.06754e-06
-1.69682e-05
-2.55342e-06
-1.72104e-05
-3.20304e-06
-1.73943e-05
-4.07799e-06
-1.75725e-05
-5.02231e-06
-1.77952e-05
-6.03338e-06
-1.79662e-05
-7.29483e-06
-1.79228e-05
-8.50718e-06
-1.78845e-05
-9.57322e-06
-1.79653e-05
-1.06874e-05
-1.78459e-05
-1.20267e-05
-1.75948e-05
-1.34516e-05
-1.73725e-05
-1.71881e-05
-1.48508e-05
-7.03036e-08
-1.25738e-05
-1.9761e-07
-1.54728e-05
-3.16244e-07
-1.55148e-05
-4.54629e-07
-1.55734e-05
-6.18507e-07
-1.56441e-05
-8.24911e-07
-1.57346e-05
-1.0671e-06
-1.58618e-05
-1.35817e-06
-1.60022e-05
-1.68522e-06
-1.61449e-05
-2.09465e-06
-1.62811e-05
-2.63303e-06
-1.64299e-05
-3.24779e-06
-1.65956e-05
-3.83932e-06
-1.68028e-05
-4.57506e-06
-1.68368e-05
-5.46386e-06
-1.69064e-05
-6.38716e-06
-1.70428e-05
-7.23177e-06
-1.70782e-05
-8.04768e-06
-1.70686e-05
-9.14252e-06
-1.68705e-05
-1.03813e-05
-1.66071e-05
-1.16511e-05
-1.6325e-05
-1.29398e-05
-1.60838e-05
-1.57349e-05
-1.4393e-05
-5.45187e-08
-1.25193e-05
-1.72063e-07
-1.53553e-05
-2.9507e-07
-1.53918e-05
-4.31472e-07
-1.5437e-05
-5.85384e-07
-1.54902e-05
-7.72135e-07
-1.55478e-05
-1.00778e-06
-1.56261e-05
-1.29498e-06
-1.5715e-05
-1.62904e-06
-1.58109e-05
-2.03124e-06
-1.58789e-05
-2.55145e-06
-1.59096e-05
-3.16744e-06
-1.59796e-05
-3.88135e-06
-1.60889e-05
-4.52928e-06
-1.61888e-05
-5.14251e-06
-1.62931e-05
-5.94154e-06
-1.62438e-05
-6.91312e-06
-1.61066e-05
-8.11696e-06
-1.58647e-05
-9.28007e-06
-1.57074e-05
-1.03163e-05
-1.55709e-05
-1.13266e-05
-1.53147e-05
-1.25385e-05
-1.48719e-05
-1.44279e-05
-1.38455e-05
-8.51978e-08
-1.24341e-05
-2.28e-07
-1.52125e-05
-3.8198e-07
-1.52378e-05
-5.65775e-07
-1.52532e-05
-7.7978e-07
-1.52762e-05
-1.01478e-06
-1.53128e-05
-1.29104e-06
-1.53499e-05
-1.61923e-06
-1.53868e-05
-1.99639e-06
-1.54337e-05
-2.3749e-06
-1.55004e-05
-2.73682e-06
-1.55477e-05
-3.16277e-06
-1.55537e-05
-3.74058e-06
-1.55111e-05
-4.47993e-06
-1.54495e-05
-5.42904e-06
-1.5344e-05
-6.33709e-06
-1.53357e-05
-7.18551e-06
-1.52582e-05
-7.93564e-06
-1.51146e-05
-8.72394e-06
-1.4919e-05
-9.75514e-06
-1.45397e-05
-1.09762e-05
-1.40936e-05
-1.21349e-05
-1.37132e-05
-1.32716e-05
-1.32913e-05
-8.38109e-08
-1.23503e-05
-2.10578e-07
-1.50857e-05
-3.37042e-07
-1.51114e-05
-4.7848e-07
-1.51118e-05
-6.46662e-07
-1.5108e-05
-8.5265e-07
-1.51069e-05
-1.09978e-06
-1.51027e-05
-1.39315e-06
-1.50934e-05
-1.75407e-06
-1.50728e-05
-2.22168e-06
-1.50328e-05
-2.78822e-06
-1.49812e-05
-3.40732e-06
-1.49346e-05
-4.0083e-06
-1.49101e-05
-4.59584e-06
-1.48619e-05
-5.12609e-06
-1.48138e-05
-5.75278e-06
-1.47091e-05
-6.5402e-06
-1.44708e-05
-7.49552e-06
-1.41592e-05
-8.6025e-06
-1.38121e-05
-9.63642e-06
-1.35058e-05
-1.05462e-05
-1.31838e-05
-1.15704e-05
-1.2689e-05
-1.21257e-05
-1.27163e-05
-1.07306e-07
-1.22429e-05
-2.6053e-07
-1.49325e-05
-4.20579e-07
-1.49513e-05
-6.03769e-07
-1.49286e-05
-8.09532e-07
-1.49022e-05
-1.04555e-06
-1.48708e-05
-1.31646e-06
-1.48318e-05
-1.62391e-06
-1.4786e-05
-1.96257e-06
-1.47341e-05
-2.31436e-06
-1.4681e-05
-2.66983e-06
-1.46257e-05
-3.0779e-06
-1.45265e-05
-3.5894e-06
-1.43986e-05
-4.19835e-06
-1.4253e-05
-4.95158e-06
-1.40605e-05
-5.82045e-06
-1.38402e-05
-6.65972e-06
-1.36315e-05
-7.45706e-06
-1.33619e-05
-8.20368e-06
-1.30654e-05
-9.05031e-06
-1.26591e-05
-1.00617e-05
-1.21724e-05
-1.10748e-05
-1.16759e-05
-1.11082e-05
-1.20923e-05
-7.91844e-08
-1.21638e-05
-1.89466e-07
-1.48222e-05
-3.06682e-07
-1.48341e-05
-4.47615e-07
-1.47877e-05
-6.20496e-07
-1.47294e-05
-8.34364e-07
-1.4657e-05
-1.09394e-06
-1.45722e-05
-1.4016e-06
-1.44783e-05
-1.76059e-06
-1.43751e-05
-2.1809e-06
-1.42607e-05
-2.67092e-06
-1.41357e-05
-3.19976e-06
-1.39976e-05
-3.75275e-06
-1.38456e-05
-4.33009e-06
-1.36756e-05
-4.90907e-06
-1.34815e-05
-5.49527e-06
-1.3254e-05
-6.163e-06
-1.29638e-05
-6.92152e-06
-1.26034e-05
-7.79682e-06
-1.21901e-05
-8.69222e-06
-1.17637e-05
-9.56071e-06
-1.13039e-05
-1.04787e-05
-1.07579e-05
-1.01368e-05
-1.14501e-05
-8.58984e-08
-1.20779e-05
-2.10705e-07
-1.46974e-05
-3.41692e-07
-1.47031e-05
-4.95173e-07
-1.46342e-05
-6.72233e-07
-1.45523e-05
-8.77568e-07
-1.44516e-05
-1.11555e-06
-1.43343e-05
-1.39041e-06
-1.42035e-05
-1.70407e-06
-1.40614e-05
-2.05688e-06
-1.39079e-05
-2.45185e-06
-1.37407e-05
-2.88422e-06
-1.35653e-05
-3.36549e-06
-1.33643e-05
-3.90963e-06
-1.31315e-05
-4.52213e-06
-1.2869e-05
-5.20403e-06
-1.25721e-05
-5.92577e-06
-1.2242e-05
-6.65139e-06
-1.18777e-05
-7.37718e-06
-1.14643e-05
-8.15319e-06
-1.09877e-05
-8.99966e-06
-1.04574e-05
-9.87617e-06
-9.8814e-06
-9.23692e-06
-1.07761e-05
-4.55419e-08
-1.20323e-05
-1.3855e-07
-1.46044e-05
-2.39916e-07
-1.46018e-05
-3.6418e-07
-1.45099e-05
-5.13796e-07
-1.44027e-05
-6.94587e-07
-1.42708e-05
-9.15982e-07
-1.41129e-05
-1.18247e-06
-1.3937e-05
-1.49593e-06
-1.3748e-05
-1.85573e-06
-1.35481e-05
-2.26132e-06
-1.33351e-05
-2.71865e-06
-1.31079e-05
-3.21469e-06
-1.28682e-05
-3.73912e-06
-1.26071e-05
-4.29238e-06
-1.23158e-05
-4.87433e-06
-1.19901e-05
-5.49336e-06
-1.1623e-05
-6.16354e-06
-1.12076e-05
-6.884e-06
-1.07439e-05
-7.63594e-06
-1.02358e-05
-8.41332e-06
-9.68005e-06
-9.22683e-06
-9.06789e-06
-8.39154e-06
-1.00722e-05
-2.89519e-08
-1.20034e-05
-1.19774e-07
-1.45135e-05
-2.17994e-07
-1.45035e-05
-3.34397e-07
-1.43935e-05
-4.68366e-07
-1.42687e-05
-6.19547e-07
-1.41196e-05
-7.91326e-07
-1.39411e-05
-9.92962e-07
-1.37353e-05
-1.24135e-06
-1.34996e-05
-1.55288e-06
-1.32365e-05
-1.92653e-06
-1.29614e-05
-2.35429e-06
-1.26802e-05
-2.83118e-06
-1.23914e-05
-3.34848e-06
-1.20898e-05
-3.8996e-06
-1.17647e-05
-4.48071e-06
-1.1409e-05
-5.08989e-06
-1.10138e-05
-5.71997e-06
-1.05775e-05
-6.37408e-06
-1.00898e-05
-7.06142e-06
-9.54844e-06
-7.78721e-06
-8.95427e-06
-8.54746e-06
-8.30763e-06
-7.60163e-06
-9.33738e-06
1.03419e-08
-1.20137e-05
-9.40503e-08
-1.44092e-05
-2.03407e-07
-1.43942e-05
-3.21595e-07
-1.42753e-05
-4.52024e-07
-1.41383e-05
-5.92623e-07
-1.3979e-05
-7.40204e-07
-1.37935e-05
-9.0608e-07
-1.35694e-05
-1.09943e-06
-1.33062e-05
-1.32862e-06
-1.30073e-05
-1.60992e-06
-1.26801e-05
-1.95717e-06
-1.23329e-05
-2.37713e-06
-1.19714e-05
-2.8717e-06
-1.15952e-05
-3.42031e-06
-1.1216e-05
-4.00034e-06
-1.0829e-05
-4.59147e-06
-1.04227e-05
-5.19408e-06
-9.97488e-06
-5.81465e-06
-9.46922e-06
-6.4578e-06
-8.9053e-06
-7.12799e-06
-8.28408e-06
-7.83189e-06
-7.60373e-06
-6.86482e-06
-8.5687e-06
2.40243e-08
-1.20377e-05
-1.34806e-07
-1.42503e-05
-2.98786e-07
-1.42302e-05
-4.54601e-07
-1.41195e-05
-6.11788e-07
-1.39811e-05
-7.74336e-07
-1.38165e-05
-9.40284e-07
-1.36276e-05
-1.1087e-06
-1.3401e-05
-1.28279e-06
-1.31322e-05
-1.46733e-06
-1.28228e-05
-1.67461e-06
-1.24728e-05
-1.91611e-06
-1.20914e-05
-2.1983e-06
-1.16892e-05
-2.53456e-06
-1.12589e-05
-2.93581e-06
-1.08148e-05
-3.41719e-06
-1.03476e-05
-3.97831e-06
-9.86158e-06
-4.58777e-06
-9.36543e-06
-5.19967e-06
-8.85732e-06
-5.8084e-06
-8.29657e-06
-6.4299e-06
-7.66258e-06
-7.0809e-06
-6.95272e-06
-6.18063e-06
-7.76511e-06
-1.08339e-08
-1.20269e-05
-2.85076e-07
-1.39761e-05
-5.61662e-07
-1.39536e-05
-8.10194e-07
-1.3871e-05
-1.0406e-06
-1.37507e-05
-1.25765e-06
-1.35995e-05