/*--------------------------------*- C++ -*----------------------------------*\
| =========                 |                                                 |
| \\      /  F ield         | OpenFOAM: The Open Source CFD Toolbox           |
|  \\    /   O peration     | Version:  2.4.0                                 |
|   \\  /    A nd           | Web:      www.OpenFOAM.org                      |
|    \\/     M anipulation  |                                                 |
\*---------------------------------------------------------------------------*/
FoamFile
{
    version     2.0;
    format      ascii;
    class       surfaceScalarField;
    location    "0.55";
    object      phi.water;
}
// * * * * * * * * * * * * * * * * * * * * * * * * * * * * * * * * * * * * * //

dimensions      [0 3 -1 0 0 0 0];

internalField   nonuniform List<scalar> 
4432
(
2.48919e-06
-2.48187e-06
5.19156e-06
-2.69513e-06
7.0405e-06
-1.84238e-06
1.02774e-05
-3.22869e-06
1.2793e-05
-2.50812e-06
1.46361e-05
-1.83608e-06
1.71367e-05
-2.49239e-06
1.97519e-05
-2.60592e-06
2.27876e-05
-3.02601e-06
2.45375e-05
-1.74137e-06
2.54147e-05
-8.69338e-07
2.62128e-05
-7.8937e-07
2.6748e-05
-5.2386e-07
2.66224e-05
1.39405e-07
2.4879e-05
1.75625e-06
2.17144e-05
3.17644e-06
1.69967e-05
4.72647e-06
1.17292e-05
5.27353e-06
6.98144e-06
4.75167e-06
4.35996e-06
2.6247e-06
2.91758e-06
1.44476e-06
2.86432e-07
2.63215e-06
2.8668e-07
2.50634e-06
-2.31825e-06
5.14325e-06
-2.16451e-06
7.27771e-06
-1.86955e-06
1.02034e-05
-1.72992e-06
1.26248e-05
-1.48446e-06
1.48049e-05
-7.30994e-07
1.74091e-05
3.88935e-07
1.99556e-05
5.02743e-07
2.25088e-05
5.39734e-07
2.41337e-05
6.69171e-07
2.55962e-05
1.53586e-06
2.68345e-05
9.62535e-07
2.74099e-05
3.0078e-07
2.68697e-05
1.00716e-06
2.5389e-05
3.32821e-06
2.21948e-05
6.40765e-06
1.73905e-05
9.55015e-06
1.18337e-05
1.08419e-05
7.54037e-06
9.05299e-06
4.71369e-06
5.45644e-06
2.86191e-06
3.29983e-06
5.67353e-07
4.92795e-06
8.54515e-07
2.54269e-06
1.90765e-05
5.00844e-06
1.89065e-05
7.4942e-06
1.98357e-05
1.00144e-05
1.83278e-05
1.25054e-05
1.92493e-05
1.50527e-05
1.98862e-05
1.77237e-05
1.93993e-05
2.00741e-05
1.98039e-05
2.19131e-05
2.01572e-05
2.37111e-05
2.22081e-05
2.60208e-05
2.26335e-05
2.77822e-05
2.34836e-05
2.8749e-05
2.43996e-05
2.81578e-05
2.48114e-05
2.56527e-05
1.33093e-05
2.15107e-05
1.1929e-05
1.65166e-05
1.47464e-05
1.09707e-05
1.65272e-05
6.89473e-06
1.3213e-05
5.12772e-06
7.28256e-06
4.31943e-06
4.13237e-06
3.21122e-06
6.04532e-06
4.06716e-06
2.58663e-06
2.27621e-05
4.75021e-06
2.26216e-05
7.9761e-06
2.31495e-05
9.64876e-06
2.20899e-05
1.23119e-05
2.22827e-05
1.5466e-05
2.246e-05
1.77709e-05
2.18878e-05
1.97409e-05
2.22987e-05
2.14198e-05
2.23846e-05
2.3766e-05
2.445e-05
2.61382e-05
2.50592e-05
2.69278e-05
2.81751e-05
2.6259e-05
3.35358e-05
2.09063e-05
4.1838e-05
2.37738e-05
3.9612e-05
2.25318e-05
3.34753e-05
1.76894e-05
3.5023e-05
1.19512e-05
2.3292e-05
7.45803e-06
1.78304e-05
4.72535e-06
1.01463e-05
3.76117e-06
5.15008e-06
2.87857e-06
6.95041e-06
6.94935e-06
2.24005e-06
5.11278e-06
4.06654e-06
4.97997e-06
7.32664e-06
4.7196e-06
8.48377e-06
4.62932e-06
1.07096e-05
4.21901e-06
1.39367e-05
3.14499e-06
1.57567e-05
2.92784e-06
1.74718e-05
3.44114e-06
1.93778e-05
2.7955e-06
2.23306e-05
3.91822e-06
2.40868e-05
5.20557e-06
2.59824e-05
7.78845e-06
2.84366e-05
1.2223e-05
2.78024e-05
2.14202e-05
1.98307e-05
3.76835e-05
1.58359e-05
5.39103e-05
9.90839e-06
5.94428e-05
1.11555e-05
4.01101e-05
7.75836e-06
2.65474e-05
4.32534e-06
1.4399e-05
2.54013e-06
7.07545e-06
2.55051e-06
6.98634e-06
9.50646e-06
4.7711e-07
-1.26792e-05
1.13167e-06
-1.26713e-05
2.0946e-06
-1.34863e-05
2.9078e-06
-1.25634e-05
3.57335e-06
-1.28418e-05
5.34794e-06
-1.45441e-05
7.08765e-06
-1.372e-05
8.59182e-06
-1.27499e-05
1.04814e-05
-1.32109e-05
1.23798e-05
-1.237e-05
1.36861e-05
-1.04683e-05
1.54919e-05
-8.89713e-06
1.64186e-05
-5.33928e-06
1.5267e-05
2.62979e-06
1.29465e-05
1.37478e-05
9.0002e-06
2.59478e-05
4.0695e-06
5.08116e-05
3.03586e-06
5.91569e-05
5.4252e-06
4.15691e-05
3.58289e-06
2.25755e-05
7.21579e-07
1.08009e-05
7.6223e-07
7.132e-06
1.02925e-05
-6.66037e-07
-1.21349e-05
-1.1437e-06
-1.22997e-05
-1.45584e-06
-1.32868e-05
-1.17305e-06
-1.29273e-05
-4.49443e-07
-1.36447e-05
7.12304e-07
-1.57673e-05
1.91973e-06
-1.49662e-05
3.58184e-06
-1.44422e-05
4.6986e-06
-1.43495e-05
5.35682e-06
-1.30465e-05
4.94592e-06
-1.00716e-05
4.07862e-06
-8.04147e-06
3.18787e-06
-4.46034e-06
5.61085e-06
1.61195e-07
1.04184e-05
7.06903e-06
9.44181e-06
1.81172e-05
-4.31125e-06
4.1137e-05
-2.99535e-06
5.38211e-05
-3.38073e-07
4.9644e-05
1.84123e-06
3.09283e-05
-2.39141e-08
1.44515e-05
-1.55761e-07
7.28757e-06
1.01668e-05
-8.0294e-07
-1.13319e-05
-1.47052e-06
-1.16322e-05
-1.64111e-06
-1.31162e-05
-1.73876e-06
-1.28297e-05
-1.16111e-06
-1.42224e-05
5.49014e-07
-1.74774e-05
1.98576e-06
-1.6403e-05
3.86128e-06
-1.63177e-05
5.77695e-06
-1.62652e-05
7.52998e-06
-1.47995e-05
8.46132e-06
-1.1003e-05
9.52384e-06
-9.104e-06
6.47502e-06
-1.41153e-06
-1.6353e-06
8.2715e-06
-7.36388e-06
1.27924e-05
-3.42702e-06
1.37685e-05
-6.39566e-06
3.47722e-05
-1.65334e-05
4.92944e-05
-8.56999e-06
4.66647e-05
-3.09449e-06
3.50979e-05
-9.36951e-07
2.0111e-05
3.32845e-08
1.3843e-05
1.4015e-05
-8.27353e-06
-3.04378e-05
-8.31773e-07
-5.64943e-05
1.18809e-05
-6.70182e-05
1.91895e-05
-5.94075e-05
2.43087e-05
-5.37386e-05
3.08287e-05
-5.58819e-05
3.76107e-05
-5.80488e-05
4.23471e-05
-5.52705e-05
4.38875e-05
-5.00876e-05
4.4201e-05
-4.65384e-05
4.60751e-05
-4.5964e-05
5.02553e-05
-4.97382e-05
5.04696e-05
-4.80463e-05
4.78224e-05
-3.00167e-05
3.50433e-05
-1.08564e-05
1.3828e-05
1.13272e-05
-6.94996e-07
4.04029e-05
1.72387e-06
1.92627e-05
1.05363e-05
-3.06373e-06
-1.3854e-05
8.91996e-06
-6.25901e-05
2.55733e-05
-7.99937e-05
3.74654e-05
-6.62114e-05
4.68322e-05
-5.54272e-05
5.56866e-05
-5.77369e-05
6.28034e-05
-6.08824e-05
6.75574e-05
-5.71646e-05
6.8919e-05
-4.88315e-05
6.72611e-05
-4.35402e-05
6.64419e-05
-4.54538e-05
7.10838e-05
-5.90234e-05
7.71464e-05
-6.74228e-05
6.09648e-05
-4.90045e-05
3.9761e-05
5.47216e-06
9.58947e-06
3.16895e-05
4.26576e-06
1.91944e-05
1.34421e-05
4.02346e-05
3.39536e-05
2.87153e-06
-1.2903e-05
1.67071e-05
-7.15711e-05
2.94483e-05
-8.71157e-05
4.15002e-05
-7.21251e-05
5.31824e-05
-6.05945e-05
6.15089e-05
-5.93975e-05
6.66343e-05
-5.86158e-05
7.05884e-05
-5.34348e-05
7.22459e-05
-4.33124e-05
7.08969e-05
-3.70462e-05
6.93232e-05
-3.90455e-05
7.16699e-05
-4.99582e-05
7.83279e-05
-5.87191e-05
6.49863e-05
-4.76478e-05
3.63775e-05
5.53022e-06
1.23125e-05
1.88435e-05
-3.67406e-06
5.58939e-07
-4.19833e-06
8.9985e-06
3.89967e-05
1.24407e-05
-1.74388e-05
2.41919e-05
-6.12447e-05
3.30051e-05
-7.56113e-05
4.28929e-05
-7.62125e-05
5.30239e-05
-6.67207e-05
6.08671e-05
-6.3346e-05
6.4924e-05
-5.96966e-05
6.70087e-05
-5.33965e-05
6.85506e-05
-4.30156e-05
6.69309e-05
-3.4734e-05
6.22519e-05
-3.47813e-05
6.58776e-05
-4.28643e-05
6.95944e-05
-5.65196e-05
7.29981e-05
-4.92462e-05
3.79298e-05
1.55022e-05
2.01696e-05
5.1854e-05
-6.51825e-06
2.48533e-05
-1.82548e-05
-1.38098e-05
3.17272e-05
1.92827e-05
-2.46054e-05
2.9624e-05
-4.44581e-05
3.2638e-05
-4.9313e-05
4.13104e-05
-3.43829e-05
4.99104e-05
-2.75638e-05
5.56799e-05
-2.74031e-05
5.73268e-05
-3.08101e-05
5.80585e-05
-4.17971e-05
5.81886e-05
-4.05245e-05
5.12418e-05
-3.10787e-05
4.93401e-05
-2.74259e-05
6.30095e-05
-3.24809e-05
6.43201e-05
-5.8895e-05
6.09248e-05
-8.09451e-05
4.44655e-05
1.42556e-05
3.03851e-05
7.64537e-05
4.86493e-06
3.69571e-05
-1.12112e-05
-1.85094e-05
2.97895e-05
1.96286e-05
-1.49535e-05
3.35692e-05
-6.60538e-05
3.73692e-05
-6.5748e-05
4.33262e-05
-4.99922e-05
4.92084e-05
-3.4625e-05
5.25853e-05
-2.52787e-05
5.11282e-05
-1.73212e-05
5.15586e-05
-9.78041e-06
5.14658e-05
-1.39614e-05
4.1761e-05
-1.96966e-05
4.57954e-05
-1.58026e-05
5.61468e-05
-3.0016e-05
5.06752e-05
-7.14621e-05
4.88542e-05
-0.000114144
4.76856e-05
1.41334e-05
1.99585e-05
7.84804e-05
-9.94519e-06
3.23389e-06
-1.09638e-05
-4.01048e-05
3.13042e-05
2.46686e-05
-2.20712e-05
3.50216e-05
-5.70805e-05
3.81882e-05
-5.84808e-05
4.25248e-05
-4.55928e-05
4.95949e-05
-3.62489e-05
5.54657e-05
-2.48185e-05
5.71136e-05
-1.12697e-05
4.7606e-05
1.63512e-06
4.63189e-05
1.87672e-06
4.44593e-05
-2.05605e-06
4.25174e-05
2.93488e-06
4.44842e-05
-2.05535e-05
4.16272e-05
-6.95148e-05
3.80573e-05
-0.0001095
5.53411e-05
6.46239e-06
1.64066e-05
9.49862e-05
-2.56012e-06
-3.81219e-05
2.2966e-06
-7.25785e-05
3.50979e-05
2.58153e-05
-5.59436e-05
3.60407e-05
-5.87875e-05
3.77779e-05
-5.84501e-05
4.20273e-05
-5.36875e-05
4.86292e-05
-4.63997e-05
5.28929e-05
-3.59262e-05
5.3734e-05
-1.89409e-05
4.69768e-05
-2.20199e-06
4.52075e-05
1.54962e-05
4.63952e-05
2.2569e-05
4.19121e-05
2.20073e-05
3.30401e-05
-6.92568e-06
3.56883e-05
-4.09381e-05
2.71666e-05
-8.81532e-05
5.96625e-05
-4.30869e-05
3.19348e-05
1.42883e-05
3.60209e-05
-5.94857e-05
2.81619e-05
-7.24695e-05
2.41579e-05
-1.82919e-06
-9.50277e-06
-3.12093e-06
-1.03405e-05
-4.37574e-06
-1.18614e-05
-3.74284e-06
-1.34626e-05
-2.59463e-06
-1.53706e-05
-5.38113e-07
-1.9534e-05
3.24204e-06
-2.01832e-05
7.60251e-06
-2.06798e-05
9.30869e-06
-1.79768e-05
8.78221e-06
-1.42824e-05
7.61249e-06
-9.8388e-06
6.40834e-06
-7.90256e-06
9.46774e-06
-4.4713e-06
1.76222e-05
1.17091e-07
2.16805e-05
8.73407e-06
1.76277e-05
1.78199e-05
9.41836e-06
4.20747e-05
-1.50557e-05
5.94208e-05
-3.4433e-05
4.83932e-05
-2.95774e-05
4.02013e-05
-1.35189e-05
2.66194e-05
3.94695e-06
1.71771e-05
1.38941e-05
2.4369e-05
-2.32567e-06
-7.1771e-06
-4.21341e-06
-8.45274e-06
-4.94653e-06
-1.11283e-05
-3.96814e-06
-1.4441e-05
-2.21701e-06
-1.71218e-05
9.87816e-07
-2.2739e-05
6.84324e-06
-2.60668e-05
1.35965e-05
-2.76247e-05
1.80009e-05
-2.27273e-05
2.16064e-05
-1.83455e-05
2.42506e-05
-1.28242e-05
2.60832e-05
-9.9275e-06
2.16056e-05
-2.6812e-08
1.54037e-05
6.31727e-06
1.19105e-05
1.22277e-05
1.2938e-05
1.67926e-05
2.47221e-05
3.02987e-05
3.21057e-05
5.06665e-05
1.07313e-05
5.89917e-05
-4.2228e-06
3.31947e-05
-4.5677e-06
1.31453e-05
3.48105e-06
5.85808e-06
-1.56665e-06
2.21969e-05
-2.56921e-06
-4.60907e-06
-5.07911e-06
-5.94526e-06
-7.13429e-06
-9.09551e-06
-7.85184e-06
-1.373e-05
-8.08196e-06
-1.68928e-05
-3.16517e-06
-2.77172e-05
6.69681e-06
-3.63447e-05
1.48877e-05
-3.82485e-05
1.75825e-05
-2.89098e-05
1.81269e-05
-2.27186e-05
1.92902e-05
-1.71804e-05
2.02497e-05
-1.3469e-05
2.39483e-05
-5.76143e-06
2.97881e-05
-6.57953e-07
3.25624e-05
9.18292e-06
3.38692e-05
1.54656e-05
4.00735e-05
2.40986e-05
5.91079e-05
3.16281e-05
7.6703e-05
3.89466e-05
7.68296e-05
2.51281e-05
6.62753e-05
8.38307e-06
5.89841e-05
-6.50791e-06
-2.63247e-05
6.74829e-05
-7.54835e-06
-2.41544e-05
-1.50423e-05
-2.28853e-05
-1.71186e-05
-2.18209e-05
-1.3329e-05
-2.21351e-05
-9.87912e-06
-2.22292e-05
-3.65933e-06
-3.6555e-05
3.69303e-06
-4.81695e-05
5.44839e-06
-4.78678e-05
6.25498e-06
-3.848e-05
8.70915e-06
-3.42306e-05
1.14925e-05
-2.93119e-05
1.41062e-05
-2.50786e-05
1.78646e-05
-1.73461e-05
2.06844e-05
-9.28567e-06
2.63101e-05
-8.26135e-07
3.31356e-05
6.09913e-06
4.15744e-05
1.4696e-05
5.69729e-05
1.5993e-05
7.48314e-05
2.0955e-05
9.12864e-05
7.95564e-06
0.000103085
-4.87385e-06
0.000113519
-1.94706e-05
-3.6841e-05
0.000120111
1.2765e-06
-6.66518e-05
-1.29104e-06
-6.41234e-05
-9.29912e-06
-0.000106634
-2.08905e-05
-0.000102253
-2.87741e-05
-9.06808e-05
-3.58465e-05
-9.51181e-05
-5.00907e-05
-0.00011246
-6.14067e-05
-0.000113816
-6.04485e-05
-8.77174e-05
-4.86914e-05
-7.51437e-05
-3.36638e-05
-6.09122e-05
-2.1443e-05
-4.59642e-05
-6.7741e-06
-3.98778e-05
3.78724e-06
-3.04599e-05
1.50061e-05
-2.21227e-05
2.29938e-05
-1.09372e-05
3.22325e-05
2.7937e-07
4.42061e-05
-1.26283e-07
6.0956e-05
1.76606e-06
7.85792e-05
-1.25848e-05
8.90921e-05
-1.7651e-05
9.95458e-05
-3.25461e-05
-4.86046e-05
0.000107591
1.67239e-06
-3.59813e-05
2.53223e-06
-4.99217e-05
4.27843e-06
-8.91073e-05
6.00237e-06
-0.000104792
3.22151e-06
-0.000120639
-2.88181e-05
-0.000121497
-8.49086e-05
-0.000141271
-0.000118395
-0.000104198
-0.000113755
-3.94818e-05
-0.000106245
-7.24338e-05
-9.91157e-05
-8.57015e-05
-8.9361e-05
-8.12917e-05
-7.50397e-05
-6.34082e-05
-5.60592e-05
-4.93853e-05
-3.43142e-05
-4.15502e-05
-1.25881e-05
-3.71521e-05
7.54415e-06
-3.51322e-05
2.35262e-05
-2.82728e-05
3.75383e-05
-2.24732e-05
5.23968e-05
-3.94139e-05
6.48213e-05
-4.14521e-05
7.39826e-05
-5.82786e-05
-7.62722e-05
7.77167e-05
2.01339e-06
-3.10173e-06
9.9346e-06
-1.80708e-05
3.23024e-05
-4.21898e-05
1.28905e-05
-5.81508e-05
-7.79493e-06
-5.80156e-05
3.02193e-06
-5.17623e-05
2.63012e-05
-6.0567e-05
-2.14182e-05
-9.02265e-06
-9.58226e-05
2.89945e-05
-8.94654e-05
-4.10858e-05
-8.68198e-05
-5.65308e-05
-8.65637e-05
-8.0371e-05
-7.98909e-05
-6.24514e-05
-7.28549e-05
-6.1717e-05
-5.80979e-05
-5.01048e-05
-4.83247e-05
-4.76927e-05
-3.83347e-05
-5.45709e-05
-2.22183e-05
-6.17262e-05
-1.2958e-05
-6.3041e-05
-2.10653e-06
-7.8641e-05
7.88895e-06
-8.61461e-05
9.67882e-06
-8.35229e-05
-7.55245e-05
1.61575e-05
-4.18537e-05
3.60825e-05
-5.08154e-05
1.38453e-05
-3.82905e-05
-2.88262e-05
-3.29075e-05
-6.52095e-05
-2.37542e-05
-7.44398e-05
2.52556e-05
-1.94747e-05
3.59499e-05
9.34858e-05
3.63927e-05
9.02012e-05
5.67299e-05
6.05567e-07
5.66179e-05
-4.12413e-05
5.61164e-05
-5.82437e-05
4.83556e-05
-4.12307e-05
-6.9653e-06
1.51711e-05
-4.16216e-05
-4.66041e-06
-4.46186e-05
-4.52758e-05
-3.95514e-05
-4.90437e-05
-3.21331e-05
-5.30598e-05
-3.19877e-05
-7.56788e-05
-2.90417e-05
-7.84945e-05
-2.42177e-05
-7.84456e-05
-1.59121e-05
-6.14587e-05
-5.64424e-06
-5.31353e-05
-4.65165e-05
1.57555e-07
2.13486e-05
1.29487e-05
4.61199e-05
-1.00287e-05
4.61725e-05
-2.79473e-05
1.98725e-05
-3.89358e-05
-1.24513e-05
-4.23334e-05
-1.04252e-05
-2.05336e-05
4.78612e-05
4.22645e-05
8.70755e-05
5.20798e-05
4.59679e-05
4.32807e-05
-1.00666e-05
1.52428e-05
-4.03386e-05
-2.78365e-05
-3.78359e-05
-4.39851e-05
9.87886e-06
-3.74891e-05
6.27883e-05
-4.87979e-05
8.72095e-05
-5.2948e-05
9.2604e-05
-4.52108e-05
9.60964e-05
-4.03493e-05
9.36699e-05
-3.71922e-05
7.5166e-05
-1.41857e-05
6.36666e-05
-2.28064e-05
4.51291e-05
-3.09111e-05
4.23905e-05
-4.8181e-05
-5.94517e-05
4.86341e-05
-1.18878e-06
1.56932e-05
-1.01511e-05
8.10611e-07
-1.40758e-05
-2.28035e-05
-1.70176e-05
-3.58583e-05
-2.12031e-05
-3.81668e-05
-1.56779e-05
-2.60526e-05
3.26812e-05
-6.14589e-06
6.59662e-05
1.86215e-05
7.27625e-05
3.638e-05
6.52244e-05
2.27388e-05
3.9081e-05
-1.70546e-06
2.72221e-05
-3.2282e-05
2.88031e-05
-3.91577e-05
2.45238e-05
-4.45266e-05
2.29596e-05
-5.13757e-05
2.85549e-05
-5.08037e-05
3.47964e-05
-4.65886e-05
4.06041e-05
-4.29918e-05
6.11985e-05
-3.47627e-05
7.21166e-05
-3.37132e-05
7.93099e-05
-3.81006e-05
7.74666e-05
-4.63091e-05
-5.26265e-05
7.07242e-05
1.08113e-05
3.96842e-06
1.99696e-05
-8.81506e-06
1.39676e-05
-1.69611e-05
1.70058e-06
-2.36235e-05
-8.71182e-06
-2.77677e-05
-1.23313e-05
-2.24273e-05
-2.60749e-06
-1.58606e-05
2.35279e-05
-7.50213e-06
4.39827e-05
1.58698e-05
4.88912e-05
1.77385e-05
4.42216e-05
2.93815e-06
3.88278e-05
-2.68901e-05
4.07202e-05
-4.1067e-05
4.36234e-05
-4.74318e-05
4.29232e-05
-5.06752e-05
4.38116e-05
-5.16916e-05
4.75112e-05
-5.02879e-05
4.91944e-05
-4.46749e-05
5.04761e-05
-3.60444e-05
4.55557e-05
-2.87919e-05
3.67059e-05
-2.92488e-05
2.7722e-05
-3.73245e-05
-4.467e-05
1.97683e-05
2.95577e-06
1.75785e-06
4.02484e-06
-9.36938e-06
4.53985e-06
-1.73423e-05
1.79053e-06
-2.08632e-05
-3.21487e-06
-2.2764e-05
-5.53355e-06
-2.01113e-05
-4.05187e-06
-1.73471e-05
1.71267e-06
-1.32421e-05
1.86707e-05
-9.29998e-07
3.02849e-05
6.15885e-06
3.63586e-05
-3.03383e-06
3.27986e-05
-2.31606e-05
2.58317e-05
-3.4044e-05
2.05911e-05
-4.21756e-05
1.65674e-05
-4.665e-05
1.2476e-05
-4.76001e-05
8.99169e-06
-4.6804e-05
9.05613e-06
-4.47399e-05
1.36374e-05
-4.06262e-05
2.13107e-05
-3.64656e-05
2.65971e-05
-3.45347e-05
2.49543e-05
-3.5681e-05
-3.71203e-05
1.74055e-05
5.67537e-06
-4.08193e-06
7.37706e-06
-1.10959e-05
5.77273e-06
-1.57288e-05
3.19739e-06
-1.82824e-05
-5.23237e-07
-1.90404e-05
-3.44612e-06
-1.71866e-05
-5.02376e-06
-1.57654e-05
-5.20037e-06
-1.30566e-05
3.2829e-06
-9.42514e-06
1.42121e-05
-4.84157e-06
2.15518e-05
-1.04442e-05
1.99586e-05
-2.15712e-05
1.64794e-05
-3.05634e-05
1.28469e-05
-3.85428e-05
9.13279e-06
-4.29356e-05
5.84884e-06
-4.43161e-05
2.72191e-06
-4.36772e-05
-4.38379e-07
-4.15799e-05
-2.98949e-06
-3.80755e-05
-4.85589e-06
-3.45994e-05
-6.37696e-06
-3.30135e-05
-8.61326e-06
-3.3445e-05
-3.39017e-05
-1.1831e-05
3.59438e-06
-7.6687e-06
5.90614e-06
-1.34046e-05
5.7037e-06
-1.55255e-05
3.96063e-06
-1.65388e-05
1.63237e-06
-1.67117e-05
2.20867e-07
-1.57748e-05
-5.99018e-07
-1.49452e-05
-1.84984e-07
-1.34704e-05
3.10027e-06
-1.27103e-05
8.813e-06
-1.05595e-05
1.21035e-05
-1.37341e-05
1.05417e-05
-2.00092e-05
7.49026e-06
-2.75119e-05
3.20798e-06
-3.42604e-05
-1.25071e-06
-3.84769e-05
-5.50133e-06
-4.00655e-05
-9.21945e-06
-3.99594e-05
-1.16873e-05
-3.91126e-05
-1.28274e-05
-3.6936e-05
-1.2324e-05
-3.51035e-05
-1.1446e-05
-3.38919e-05
-1.17163e-05
-3.31751e-05
-3.27613e-05
-1.28566e-05
1.79369e-06
-9.46075e-06
2.77848e-06
-1.43884e-05
2.51115e-06
-1.52575e-05
1.74259e-06
-1.57697e-05
9.93555e-07
-1.59623e-05
6.93144e-07
-1.5474e-05
8.82908e-07
-1.51346e-05
1.96953e-06
-1.45568e-05
3.81425e-06
-1.45548e-05
6.8219e-06
-1.3567e-05
8.73294e-06
-1.56451e-05
7.96906e-06
-1.92453e-05
5.03846e-06
-2.45812e-05
6.14452e-07
-2.98363e-05
-3.55539e-06
-3.43069e-05
-6.69825e-06
-3.69231e-05
-9.13704e-06
-3.7521e-05
-1.10955e-05
-3.71549e-05
-1.26807e-05
-3.53515e-05
-1.37414e-05
-3.40432e-05
-1.43107e-05
-3.33234e-05
-1.4955e-05
-3.25312e-05
-3.17273e-05
-1.5989e-05
1.0735e-06
-1.05337e-05
1.36045e-06
-1.46748e-05
1.23504e-06
-1.51316e-05
1.04888e-06
-1.55831e-05
9.29718e-07
-1.58427e-05
1.2276e-06
-1.57716e-05
1.8508e-06
-1.57576e-05
2.86835e-06
-1.55741e-05
4.13702e-06
-1.58234e-05
6.08956e-06
-1.55195e-05
7.39176e-06
-1.69472e-05
7.61174e-06
-1.94652e-05
6.3789e-06
-2.33484e-05
3.52274e-06
-2.698e-05
-2.41666e-07
-3.0543e-05
-3.84372e-06
-3.33211e-05
-6.61192e-06
-3.47535e-05
-8.74555e-06
-3.50216e-05
-1.0618e-05
-3.34793e-05
-1.26684e-05
-3.19935e-05
-1.42842e-05
-3.17077e-05
-1.53513e-05
-3.14649e-05
-3.06833e-05
-1.63948e-05
6.11696e-07
-1.11446e-05
8.51527e-07
-1.4914e-05
9.76029e-07
-1.52556e-05
1.02714e-06
-1.56339e-05
1.1332e-06
-1.59485e-05
1.51049e-06
-1.61486e-05
2.06787e-06
-1.63147e-05
2.92974e-06
-1.64358e-05
3.90356e-06
-1.67971e-05
5.35265e-06
-1.69685e-05
6.46996e-06
-1.80645e-05
7.12881e-06
-2.01241e-05
6.63762e-06
-2.28571e-05
5.03864e-06
-2.53813e-05
2.57788e-06
-2.8082e-05
-5.06871e-07
-3.0237e-05
-3.73375e-06
-3.15264e-05
-6.88161e-06
-3.18739e-05
-9.23583e-06
-3.11254e-05
-1.17225e-05
-2.95068e-05
-1.42364e-05
-2.91945e-05
-1.60292e-05
-2.9672e-05
-2.93045e-05
-1.74082e-05
4.26059e-07
-1.15706e-05
7.29983e-07
-1.52177e-05
9.68687e-07
-1.5494e-05
1.13993e-06
-1.58048e-05
1.24742e-06
-1.60557e-05
1.42682e-06
-1.63278e-05
1.70418e-06
-1.65919e-05
2.16403e-06
-1.68955e-05
2.71297e-06
-1.73459e-05
3.74428e-06
-1.79997e-05
4.70156e-06
-1.90217e-05
5.13537e-06
-2.05579e-05
4.58355e-06
-2.23053e-05
3.36777e-06
-2.41654e-05
1.41689e-06
-2.61316e-05
-1.4138e-06
-2.74058e-05
-4.50647e-06
-2.84343e-05
-7.34959e-06
-2.9031e-05
-9.71292e-06
-2.87621e-05
-1.18531e-05
-2.73673e-05
-1.41873e-05
-2.68603e-05
-1.59545e-05
-2.79057e-05
-2.81943e-05
-1.70651e-05
3.6922e-07
-1.19391e-05
6.7841e-07
-1.55263e-05
8.48268e-07
-1.56634e-05
9.21709e-07
-1.58778e-05
9.10923e-07
-1.60446e-05
8.47914e-07
-1.62645e-05
8.42272e-07
-1.6586e-05
9.14807e-07
-1.69678e-05
1.07957e-06
-1.75105e-05
1.42305e-06
-1.83431e-05
1.75582e-06
-1.93544e-05
1.7543e-06
-2.05563e-05
1.26275e-06
-2.18138e-05
2.66894e-07
-2.31697e-05
-1.52078e-06
-2.43437e-05
-3.91137e-06
-2.50156e-05
-6.29863e-06
-2.60471e-05
-8.52417e-06
-2.68055e-05
-1.07664e-05
-2.65199e-05
-1.25741e-05
-2.55599e-05
-1.40398e-05
-2.53949e-05
-1.53639e-05
-2.6582e-05
-2.6905e-05
-1.66536e-05
3.08708e-07
-1.22477e-05
4.04978e-07
-1.56224e-05
4.3175e-07
-1.56899e-05
4.54838e-07
-1.59007e-05
4.80798e-07
-1.60704e-05
4.99694e-07
-1.62832e-05
5.1952e-07
-1.66057e-05
5.288e-07
-1.6977e-05
5.0822e-07
-1.74898e-05
4.12692e-07
-1.82475e-05
2.14639e-07
-1.91564e-05
-2.39367e-07
-2.01024e-05
-1.06642e-06
-2.09867e-05
-2.12691e-06
-2.21092e-05
-3.47414e-06
-2.29967e-05
-4.75105e-06
-2.37386e-05
-6.36135e-06
-2.44369e-05
-8.40858e-06
-2.47584e-05
-1.02963e-05
-2.46324e-05
-1.17335e-05
-2.4123e-05
-1.29243e-05
-2.42043e-05
-1.42285e-05
-2.5278e-05
-2.56308e-05
-1.55032e-05
1.73623e-07
-1.24211e-05
2.25972e-07
-1.56745e-05
2.95493e-07
-1.57593e-05
3.54974e-07
-1.596e-05
4.19251e-07
-1.61345e-05
4.92401e-07
-1.63562e-05
5.13572e-07
-1.66268e-05
4.78726e-07
-1.69421e-05
3.4892e-07
-1.73599e-05
5.05185e-08
-1.79491e-05
-3.69525e-07
-1.87363e-05
-9.86815e-07
-1.94851e-05
-1.8135e-06
-2.016e-05
-2.87216e-06
-2.10507e-05
-4.04476e-06
-2.18239e-05
-5.24079e-06
-2.25428e-05
-6.81775e-06
-2.286e-05
-8.66683e-06
-2.29095e-05
-1.03451e-05
-2.29543e-05
-1.18312e-05
-2.26371e-05
-1.31876e-05
-2.28482e-05
-1.47233e-05
-2.37426e-05
-2.39993e-05
-1.63551e-05
9.83013e-08
-1.25192e-05
1.76717e-07
-1.57527e-05
2.63301e-07
-1.58457e-05
2.81777e-07
-1.59784e-05
2.85769e-07
-1.61383e-05
2.74673e-07
-1.6345e-05
2.51467e-07
-1.66035e-05
2.26969e-07
-1.69175e-05
1.644e-07
-1.72973e-05
-1.01365e-07
-1.76833e-05
-5.82651e-07
-1.82551e-05
-1.17331e-06
-1.88945e-05
-1.80828e-06
-1.95251e-05
-2.79592e-06
-2.0063e-05
-3.9631e-06
-2.06569e-05
-5.37409e-06
-2.11317e-05
-6.78429e-06
-2.14499e-05
-8.03853e-06
-2.16554e-05
-9.36538e-06
-2.16276e-05
-1.05783e-05
-2.14244e-05
-1.18167e-05
-2.161e-05
-1.34669e-05
-2.20926e-05
-2.19126e-05
-1.55539e-05
8.7577e-08
-1.26066e-05
5.47651e-08
-1.57198e-05
-1.09537e-08
-1.57798e-05
-8.86666e-08
-1.59005e-05
-1.7608e-07
-1.60508e-05
-2.76695e-07
-1.62443e-05
-3.93809e-07
-1.64863e-05
-5.30081e-07
-1.67812e-05
-7.01059e-07
-1.71263e-05
-9.43981e-07
-1.74404e-05
-1.40297e-06
-1.77961e-05
-2.00177e-06
-1.82957e-05
-2.66894e-06
-1.8858e-05
-3.43178e-06
-1.93002e-05
-4.40475e-06
-1.96838e-05
-5.71525e-06
-1.98214e-05
-7.12846e-06
-2.00367e-05
-8.47502e-06
-2.03089e-05
-9.85058e-06
-2.02522e-05
-1.11525e-05
-2.01227e-05
-1.24524e-05
-2.03103e-05
-1.40545e-05
-2.04908e-05
-2.01125e-05
-1.58547e-05
-1.10669e-09
-1.26054e-05
-6.99416e-08
-1.56508e-05
-1.39188e-07
-1.57105e-05
-2.23556e-07
-1.5816e-05
-3.31003e-07
-1.59433e-05
-4.74129e-07
-1.61011e-05
-6.64664e-07
-1.62957e-05
-8.96412e-07
-1.65494e-05
-1.18612e-06
-1.68366e-05
-1.54623e-06
-1.70803e-05
-2.01798e-06
-1.73244e-05
-2.61945e-06
-1.76943e-05
-3.43552e-06
-1.80419e-05
-4.29028e-06
-1.84453e-05
-5.23689e-06
-1.87374e-05
-6.08318e-06
-1.89749e-05
-6.93816e-06
-1.91819e-05
-8.15289e-06
-1.90943e-05
-9.37661e-06
-1.90286e-05
-1.05423e-05
-1.89572e-05
-1.19217e-05
-1.8931e-05
-1.36186e-05
-1.8794e-05
-1.85838e-05
-1.51477e-05
3.68816e-08
-1.26422e-05
-1.56371e-08
-1.55982e-05
-9.44605e-08
-1.56316e-05
-2.00509e-07
-1.57099e-05
-3.37629e-07
-1.58061e-05
-4.99576e-07
-1.59391e-05
-6.93136e-07
-1.61021e-05
-9.5112e-07
-1.62914e-05
-1.31763e-06
-1.64701e-05
-1.70927e-06
-1.66886e-05
-2.06739e-06
-1.69663e-05
-2.55332e-06
-1.72084e-05
-3.20293e-06
-1.73923e-05
-4.07795e-06
-1.75705e-05
-5.02211e-06
-1.77929e-05
-6.03322e-06
-1.79639e-05
-7.29461e-06
-1.79204e-05
-8.50697e-06
-1.78819e-05
-9.57303e-06
-1.79627e-05
-1.06872e-05
-1.78431e-05
-1.20266e-05
-1.75918e-05
-1.34515e-05
-1.73694e-05
-1.71848e-05
-1.48506e-05
-7.02498e-08
-1.25718e-05
-1.97508e-07
-1.54709e-05
-3.161e-07
-1.55129e-05
-4.54447e-07
-1.55715e-05
-6.18293e-07
-1.56422e-05
-8.2467e-07
-1.57327e-05
-1.06684e-06
-1.58599e-05
-1.3579e-06
-1.60003e-05
-1.68496e-06
-1.6143e-05
-2.09442e-06
-1.62792e-05
-2.63284e-06
-1.64279e-05
-3.24763e-06
-1.65936e-05
-3.83919e-06
-1.68008e-05
-4.57485e-06
-1.68347e-05
-5.46367e-06
-1.69043e-05
-6.38685e-06
-1.70406e-05
-7.23141e-06
-1.70759e-05
-8.04732e-06
-1.70661e-05
-9.14217e-06
-1.68679e-05
-1.0381e-05
-1.66044e-05
-1.16508e-05
-1.63222e-05
-1.29394e-05
-1.60809e-05
-1.57319e-05
-1.43927e-05
-5.44705e-08
-1.25173e-05
-1.71968e-07
-1.53533e-05
-2.94932e-07
-1.53899e-05
-4.31297e-07
-1.54351e-05
-5.85175e-07
-1.54883e-05
-7.71897e-07
-1.55459e-05
-1.00752e-06
-1.56242e-05
-1.29472e-06
-1.57131e-05
-1.62877e-06
-1.58089e-05
-2.03098e-06
-1.5877e-05
-2.55122e-06
-1.59077e-05
-3.16724e-06
-1.59776e-05
-3.88114e-06
-1.60869e-05
-4.52908e-06
-1.61868e-05
-5.14214e-06
-1.62909e-05
-5.94116e-06
-1.62417e-05
-6.91266e-06
-1.61043e-05
-8.11648e-06
-1.58623e-05
-9.27959e-06
-1.57049e-05
-1.03158e-05
-1.55684e-05
-1.13261e-05
-1.5312e-05
-1.25381e-05
-1.48692e-05
-1.44251e-05
-1.38449e-05
-8.51547e-08
-1.24321e-05
-2.27911e-07
-1.52105e-05
-3.81851e-07
-1.52359e-05
-5.65608e-07
-1.52513e-05
-7.79581e-07
-1.52742e-05
-1.01455e-06
-1.53109e-05
-1.29079e-06
-1.53479e-05
-1.61897e-06
-1.53849e-05
-1.99612e-06
-1.54317e-05
-2.37463e-06
-1.54985e-05
-2.73657e-06
-1.55457e-05
-3.16253e-06
-1.55517e-05
-3.74034e-06
-1.55091e-05
-4.47957e-06
-1.54474e-05
-5.42873e-06
-1.5342e-05
-6.33657e-06
-1.53335e-05
-7.18497e-06
-1.5256e-05
-7.93504e-06
-1.51123e-05
-8.72337e-06
-1.49167e-05
-9.75457e-06
-1.45373e-05
-1.09757e-05
-1.40912e-05
-1.21343e-05
-1.37106e-05
-1.3269e-05
-1.32908e-05
-8.377e-08
-1.23483e-05
-2.10495e-07
-1.50837e-05
-3.36919e-07
-1.51094e-05
-4.7832e-07
-1.51098e-05
-6.46468e-07
-1.51061e-05
-8.52426e-07
-1.51049e-05
-1.09953e-06
-1.51008e-05
-1.39289e-06
-1.50915e-05
-1.75378e-06
-1.50708e-05
-2.22139e-06
-1.50308e-05
-2.78795e-06
-1.49792e-05
-3.40706e-06
-1.49326e-05
-4.00798e-06
-1.49081e-05
-4.59555e-06
-1.486e-05
-5.12557e-06
-1.48116e-05
-5.75227e-06
-1.4707e-05
-6.53957e-06
-1.44686e-05
-7.49485e-06
-1.4157e-05
-8.60184e-06
-1.38098e-05
-9.63578e-06
-1.35035e-05
-1.05456e-05
-1.31814e-05
-1.15698e-05
-1.26867e-05
-1.21232e-05
-1.27155e-05
-1.07265e-07
-1.2241e-05
-2.60451e-07
-1.49305e-05
-4.20462e-07
-1.49494e-05
-6.03616e-07
-1.49266e-05
-8.09346e-07
-1.49003e-05
-1.04533e-06
-1.48689e-05
-1.31622e-06
-1.48299e-05
-1.62364e-06
-1.47841e-05
-1.96229e-06
-1.47322e-05
-2.31407e-06
-1.46791e-05
-2.66954e-06
-1.46237e-05
-3.07759e-06
-1.45245e-05
-3.5891e-06
-1.43966e-05
-4.19791e-06
-1.4251e-05
-4.95115e-06
-1.40586e-05
-5.81984e-06
-1.38381e-05
-6.65902e-06
-1.36294e-05
-7.45634e-06
-1.33598e-05
-8.20295e-06
-1.30632e-05
-9.04961e-06
-1.26569e-05
-1.00611e-05
-1.21702e-05
-1.10741e-05
-1.16736e-05
-1.11059e-05
-1.20917e-05
-7.91494e-08
-1.21618e-05
-1.89393e-07
-1.48202e-05
-3.06572e-07
-1.48322e-05
-4.4747e-07
-1.47857e-05
-6.20317e-07
-1.47274e-05
-8.34153e-07
-1.4655e-05
-1.0937e-06
-1.45703e-05
-1.40133e-06
-1.44764e-05
-1.7603e-06
-1.43732e-05
-2.1806e-06
-1.42588e-05
-2.67062e-06
-1.41337e-05
-3.19944e-06
-1.39957e-05
-3.75239e-06
-1.38436e-05
-4.32971e-06
-1.36737e-05
-4.90848e-06
-1.34795e-05
-5.49465e-06
-1.3252e-05
-6.16228e-06
-1.29617e-05
-6.92075e-06
-1.26013e-05
-7.79605e-06
-1.2188e-05
-8.69149e-06
-1.17616e-05
-9.55997e-06
-1.13018e-05
-1.04781e-05
-1.07558e-05
-1.01346e-05
-1.14493e-05
-8.58602e-08
-1.20759e-05
-2.10635e-07
-1.46954e-05
-3.41589e-07
-1.47012e-05
-4.95037e-07
-1.46322e-05
-6.72064e-07
-1.45504e-05
-8.77368e-07
-1.44497e-05
-1.11532e-06
-1.43323e-05
-1.39015e-06
-1.42016e-05
-1.70379e-06
-1.40596e-05
-2.05657e-06
-1.3906e-05
-2.45153e-06
-1.37388e-05
-2.88389e-06
-1.35634e-05
-3.36513e-06
-1.33624e-05
-3.90911e-06
-1.31295e-05
-4.52165e-06
-1.28672e-05
-5.20331e-06
-1.257e-05
-5.92503e-06
-1.22401e-05
-6.65059e-06
-1.18757e-05
-7.3764e-06
-1.14623e-05
-8.15243e-06
-1.09857e-05
-8.99898e-06
-1.04554e-05
-9.87542e-06
-9.87935e-06
-9.23497e-06
-1.07754e-05
-4.55122e-08
-1.20304e-05
-1.38488e-07
-1.46024e-05
-2.39821e-07
-1.45998e-05
-3.64054e-07
-1.4508e-05
-5.13638e-07
-1.44008e-05
-6.94398e-07
-1.42689e-05
-9.15761e-07
-1.4111e-05
-1.18222e-06
-1.39351e-05
-1.49565e-06
-1.37461e-05
-1.85543e-06
-1.35462e-05
-2.261e-06
-1.33332e-05
-2.7183e-06
-1.31061e-05
-3.21427e-06
-1.28664e-05
-3.73873e-06
-1.26052e-05
-4.29171e-06
-1.23138e-05
-4.87368e-06
-1.19883e-05
-5.49259e-06
-1.16211e-05
-6.16273e-06
-1.12056e-05
-6.88321e-06
-1.0742e-05
-7.63519e-06
-1.02339e-05
-8.41257e-06
-9.67815e-06
-9.22619e-06
-9.06607e-06
-8.38963e-06
-1.00713e-05
-2.89175e-08
-1.20014e-05
-1.19714e-07
-1.45116e-05
-2.17906e-07
-1.45016e-05
-3.3428e-07
-1.43916e-05
-4.68218e-07
-1.42668e-05
-6.19368e-07
-1.41178e-05
-7.91116e-07
-1.39392e-05
-9.9272e-07
-1.37335e-05
-1.24108e-06
-1.34977e-05
-1.55258e-06
-1.32347e-05
-1.92621e-06
-1.29596e-05
-2.35394e-06
-1.26783e-05
-2.8308e-06
-1.23895e-05
-3.34794e-06
-1.20879e-05
-3.89907e-06
-1.17629e-05
-4.47999e-06
-1.14071e-05
-5.08909e-06
-1.10119e-05
-5.71919e-06
-1.05756e-05
-6.3733e-06
-1.00879e-05
-7.06069e-06
-9.54662e-06
-7.78654e-06
-8.95249e-06
-8.54672e-06
-8.30582e-06
-7.59997e-06
-9.33673e-06
1.03652e-08
-1.20118e-05
-9.39985e-08
-1.44072e-05
-2.03327e-07
-1.43923e-05
-3.21487e-07
-1.42734e-05
-4.51886e-07
-1.41364e-05
-5.92454e-07
-1.39772e-05
-7.40004e-07
-1.37916e-05
-9.05847e-07
-1.35676e-05
-1.09917e-06
-1.33044e-05
-1.32833e-06
-1.30055e-05
-1.6096e-06
-1.26783e-05
-1.95682e-06
-1.23311e-05
-2.37671e-06
-1.19696e-05
-2.87126e-06
-1.15934e-05
-3.41964e-06
-1.12141e-05
-3.99965e-06
-1.08272e-05
-4.59069e-06
-1.04208e-05
-5.1933e-06
-9.97307e-06
-5.81391e-06
-9.46743e-06
-6.45711e-06
-8.90357e-06
-7.12728e-06
-8.2824e-06
-7.8313e-06
-7.60222e-06
-6.86323e-06
-8.56783e-06
2.40511e-08
-1.20358e-05
-1.34757e-07
-1.42484e-05
-2.98713e-07
-1.42283e-05
-4.54502e-07
-1.41176e-05
-6.11661e-07
-1.39792e-05
-7.7418e-07
-1.38146e-05
-9.40097e-07
-1.36257e-05
-1.10848e-06
-1.33992e-05
-1.28253e-06
-1.31304e-05
-1.46704e-06
-1.2821e-05
-1.67429e-06
-1.24711e-05
-1.91576e-06
-1.20897e-05
-2.1979e-06
-1.16875e-05
-2.53397e-06
-1.12571e-05
-2.93528e-06
-1.08132e-05
-3.41641e-06
-1.03457e-05
-3.97756e-06
-9.85984e-06
-4.58701e-06
-9.36368e-06
-5.199e-06
-8.85563e-06
-5.80777e-06
-8.29495e-06
-6.42937e-06
-7.66108e-06
-7.08022e-06
-6.95123e-06
-6.17937e-06
-7.7645e-06
-1.08207e-08
-1.2025e-05
-2.85037e-07
-1.39742e-05
-5.61599e-07
-1.39517e-05
-8.10106e-07
-1.38691e-05
-1.04049e-06
-1.37488e-05
-1.2575e-06
-1.35976e-05