/*--------------------------------*- C++ -*----------------------------------*\
| =========                 |                                                 |
| \\      /  F ield         | OpenFOAM: The Open Source CFD Toolbox           |
|  \\    /   O peration     | Version:  2.4.0                                 |
|   \\  /    A nd           | Web:      www.OpenFOAM.org                      |
|    \\/     M anipulation  |                                                 |
\*---------------------------------------------------------------------------*/
FoamFile
{
    version     2.0;
    format      ascii;
    class       surfaceScalarField;
    location    "0.55";
    object      phi.mercury;
}
// * * * * * * * * * * * * * * * * * * * * * * * * * * * * * * * * * * * * * //

dimensions      [0 3 -1 0 0 0 0];

internalField   nonuniform List<scalar> 
4432
(
2.48918e-06
-2.48918e-06
5.19157e-06
-2.70239e-06
7.04048e-06
-1.84892e-06
1.02775e-05
-3.23698e-06
1.2793e-05
-2.51556e-06
1.46361e-05
-1.84308e-06
1.71367e-05
-2.5006e-06
1.97519e-05
-2.61523e-06
2.27876e-05
-3.03569e-06
2.45376e-05
-1.74994e-06
2.54148e-05
-8.77207e-07
2.6213e-05
-7.9825e-07
2.67483e-05
-5.35265e-07
2.66227e-05
1.25559e-07
2.48794e-05
1.7433e-06
2.17147e-05
3.16472e-06
1.6997e-05
4.71768e-06
1.17295e-05
5.26751e-06
6.98175e-06
4.74776e-06
4.36025e-06
2.62151e-06
2.91774e-06
1.44251e-06
2.86475e-07
2.63127e-06
2.86447e-07
2.50634e-06
-4.99556e-06
5.14324e-06
-5.33936e-06
7.27772e-06
-3.98343e-06
1.02034e-05
-6.16278e-06
1.26248e-05
-4.93707e-06
1.48049e-05
-4.02331e-06
1.7409e-05
-5.10496e-06
1.99556e-05
-5.16208e-06
2.25089e-05
-5.58934e-06
2.41339e-05
-3.37504e-06
2.55964e-05
-2.33983e-06
2.68346e-05
-2.0365e-06
2.74102e-05
-1.11095e-06
2.68717e-05
6.64137e-07
2.53913e-05
3.22368e-06
2.2197e-05
6.35897e-06
1.73922e-05
9.52249e-06
1.18348e-05
1.0825e-05
7.54111e-06
9.04142e-06
4.71417e-06
5.44844e-06
2.86212e-06
3.29456e-06
5.67387e-07
4.92601e-06
8.53834e-07
2.52504e-06
-7.74514e-06
5.04405e-06
-8.10717e-06
7.47312e-06
-6.61936e-06
1.00384e-05
-9.02991e-06
1.25007e-05
-7.67462e-06
1.5058e-05
-6.86719e-06
1.77005e-05
-8.13947e-06
2.00774e-05
-7.94359e-06
2.20605e-05
-8.0161e-06
2.37567e-05
-5.43591e-06
2.61282e-05
-5.08408e-06
2.79583e-05
-4.16063e-06
2.88528e-05
-2.1501e-06
2.821e-05
1.28463e-06
2.56758e-05
5.75728e-06
2.15219e-05
1.05129e-05
1.6522e-05
1.45224e-05
1.09736e-05
1.63734e-05
6.89649e-06
1.31185e-05
5.12861e-06
7.21633e-06
4.3198e-06
4.10336e-06
3.21126e-06
6.03455e-06
4.0651e-06
2.53001e-06
-1.96916e-05
4.81543e-06
-2.02287e-05
7.86462e-06
-1.90056e-05
9.65843e-06
-2.14156e-05
1.22989e-05
-2.07014e-05
1.53565e-05
-2.07841e-05
1.77368e-05
-2.27997e-05
1.9761e-05
-2.25403e-05
2.15614e-05
-2.31005e-05
2.3985e-05
-2.09356e-05
2.65973e-05
-2.11964e-05
2.78931e-05
-1.86477e-05
2.78286e-05
-1.42978e-05
2.65477e-05
-6.99118e-06
2.53979e-05
3.40386e-06
2.27173e-05
1.2904e-05
1.7739e-05
1.94927e-05
1.19868e-05
2.21256e-05
7.47533e-06
1.763e-05
4.73176e-06
9.9599e-06
3.76365e-06
5.07148e-06
2.87849e-06
6.91971e-06
6.94358e-06
2.28184e-06
-5.59255e-05
4.37365e-06
-5.66373e-05
7.466e-06
-5.60518e-05
8.92423e-06
-5.78834e-05
1.11336e-05
-5.79659e-05
1.43232e-05
-5.94784e-05
1.63394e-05
-6.15477e-05
1.80819e-05
-6.16696e-05
2.0163e-05
-6.31229e-05
2.32228e-05
-6.23181e-05
2.5204e-05
-6.20633e-05
2.7126e-05
-5.90356e-05
2.94376e-05
-5.4992e-05
3.05951e-05
-4.26999e-05
2.59229e-05
-2.23344e-05
2.10807e-05
-6.69649e-07
1.69372e-05
2.07546e-05
1.14182e-05
2.75952e-05
7.78954e-06
2.12581e-05
4.34011e-06
1.34093e-05
2.54527e-06
6.86632e-06
2.55107e-06
6.91392e-06
9.49465e-06
1.62152e-06
-4.13857e-05
3.28378e-06
-4.16677e-05
5.42644e-06
-4.15814e-05
7.03717e-06
-4.1849e-05
8.45325e-06
-4.18295e-05
1.07203e-05
-4.25628e-05
1.30332e-05
-4.3068e-05
1.50267e-05
-4.31623e-05
1.73063e-05
-4.40199e-05
1.96403e-05
-4.4061e-05
2.13314e-05
-4.34988e-05
2.31608e-05
-4.2598e-05
2.49789e-05
-4.13524e-05
2.58728e-05
-3.3363e-05
2.30957e-05
-3.95299e-05
1.775e-05
-1.46279e-05
1.17325e-05
7.4893e-06
9.05203e-06
2.80884e-05
7.24832e-06
2.29979e-05
3.6827e-06
1.69743e-05
7.34225e-07
9.81478e-06
7.6487e-07
6.88328e-06
1.02595e-05
-7.38607e-07
-1.82738e-05
-1.37584e-06
-1.83338e-05
-1.80709e-06
-1.92023e-05
-1.55014e-06
-1.86099e-05
-8.33964e-07
-1.91402e-05
4.10828e-07
-2.08042e-05
1.76056e-06
-1.98899e-05
3.49072e-06
-1.93594e-05
4.71234e-06
-1.92247e-05
5.44416e-06
-1.80143e-05
5.14065e-06
-1.51892e-05
4.32861e-06
-1.33607e-05
3.46206e-06
-9.77041e-06
7.87822e-06
-4.9418e-06
1.82849e-05
-2.21463e-05
2.01552e-05
-1.91216e-05
9.1535e-06
-9.96889e-06
4.29469e-06
1.94107e-05
4.01893e-06
2.26646e-05
2.69878e-06
1.82818e-05
3.90787e-08
1.24744e-05
-1.419e-07
7.06426e-06
1.01176e-05
-7.54916e-07
-1.52473e-05
-1.37858e-06
-1.54963e-05
-1.5285e-06
-1.68372e-05
-1.60282e-06
-1.66366e-05
-1.03112e-06
-1.78398e-05
6.47555e-07
-2.04965e-05
2.0667e-06
-1.94338e-05
3.94231e-06
-1.91607e-05
5.86682e-06
-1.87903e-05
7.60575e-06
-1.72366e-05
8.55388e-06
-1.36859e-05
9.63691e-06
-1.19436e-05
6.86596e-06
-5.35342e-06
-9.59345e-07
5.17621e-06
-3.58271e-08
8.98845e-06
1.1492e-05
-4.71864e-06
5.41061e-06
-2.40049e-05
-5.73213e-06
1.06826e-05
-4.62135e-06
1.54724e-05
-1.68794e-06
1.51956e-05
-8.33163e-07
1.16172e-05
3.84353e-08
6.19143e-06
1.01558e-05
6.81274e-07
-9.62994e-05
7.01084e-06
-0.000105777
1.51194e-05
-0.000109319
2.0322e-05
-0.00010382
2.65202e-05
-9.98835e-05
3.35269e-05
-0.000100486
3.91153e-05
-9.86823e-05
4.27786e-05
-9.25104e-05
4.41617e-05
-8.52611e-05
4.48009e-05
-7.93722e-05
4.73379e-05
-7.54569e-05
5.35271e-05
-7.61722e-05
5.76126e-05
-7.94324e-05
5.01257e-05
-7.51066e-05
3.09473e-05
-8.27818e-05
1.55302e-05
-9.6505e-05
6.66644e-06
-6.52995e-05
7.5911e-06
-3.29449e-05
-2.47662e-05
8.147e-06
-7.9607e-05
1.6561e-05
-0.000107606
2.73906e-05
-0.000113609
3.69557e-05
-0.000103187
4.71823e-05
-9.50297e-05
5.63583e-05
-9.71984e-05
6.2084e-05
-9.82803e-05
6.60559e-05
-9.34407e-05
6.80024e-05
-8.53676e-05
6.75827e-05
-7.9858e-05
6.7115e-05
-7.86875e-05
7.01669e-05
-8.82736e-05
7.66102e-05
-9.84646e-05
7.95112e-05
-9.14769e-05
6.42996e-05
-8.40962e-05
4.34312e-05
-0.000105943
2.74815e-05
-0.00012053
2.26343e-05
-8.23597e-05
2.61119e-06
1.02462e-05
-6.68431e-05
2.08312e-05
-0.000102676
2.99071e-05
-0.000108957
3.93492e-05
-9.62403e-05
4.99968e-05
-8.69313e-05
5.80789e-05
-8.61302e-05
6.32075e-05
-8.48273e-05
6.69247e-05
-7.99045e-05
6.89797e-05
-7.19868e-05
6.90106e-05
-7.00184e-05
6.79243e-05
-7.4263e-05
6.81281e-05
-8.91824e-05
7.16644e-05
-0.000107369
7.38197e-05
-0.000107681
7.04581e-05
-9.93915e-05
7.27352e-05
-0.000114084
5.13658e-05
-0.000140427
1.94985e-05
-0.000159802
3.97691e-06
1.64462e-05
-5.46155e-05
2.54134e-05
-9.9383e-05
3.24655e-05
-0.000105854
4.08215e-05
-9.44171e-05
5.02403e-05
-8.58285e-05
5.80083e-05
-8.35698e-05
6.21365e-05
-8.09207e-05
6.45557e-05
-7.65561e-05
6.62328e-05
-6.87816e-05
6.63891e-05
-6.65125e-05
6.46459e-05
-7.18084e-05
6.23315e-05
-9.40562e-05
6.15479e-05
-0.000118229
6.48939e-05
-0.00012634
6.66664e-05
-0.000113508
6.83645e-05
-0.000108686
6.50376e-05
-0.000128947
3.43085e-05
-0.000178319
2.86665e-06
2.1623e-05
-5.06251e-05
2.84465e-05
-9.71836e-05
3.34883e-05
-0.000102198
4.0361e-05
-9.25107e-05
4.8174e-05
-8.40584e-05
5.36652e-05
-8.04651e-05
5.53872e-05
-7.64189e-05
5.59545e-05
-7.27544e-05
5.66661e-05
-6.63482e-05
5.68841e-05
-6.56929e-05
5.68373e-05
-7.23684e-05
5.66755e-05
-9.85582e-05
5.72653e-05
-0.00013014
5.91859e-05
-0.000149912
6.23101e-05
-0.000133652
6.73833e-05
-0.000115175
7.27696e-05
-0.000140218
4.27677e-05
-0.000180359
3.92659e-06
2.49584e-05
-5.63204e-05
3.01701e-05
-9.45709e-05
3.40772e-05
-9.92732e-05
3.95283e-05
-9.29868e-05
4.57972e-05
-8.73467e-05
5.06904e-05
-8.42321e-05
5.268e-05
-7.92229e-05
5.25696e-05
-7.66231e-05
5.21819e-05
-7.19197e-05
5.39634e-05
-7.01968e-05
5.39937e-05
-7.70456e-05
5.15638e-05
-0.000103365
5.11156e-05
-0.000128051
5.1807e-05
-0.000148642
6.26345e-05
-0.000145267
7.72012e-05
-0.000122089
8.32435e-05
-0.0001594
4.92907e-05
-0.000167664
6.00641e-06
2.61842e-05
-6.6013e-05
3.17004e-05
-9.24195e-05
3.48369e-05
-0.000100854
3.88982e-05
-0.000100458
4.4465e-05
-9.92657e-05
4.86529e-05
-9.74933e-05
5.00225e-05
-9.37232e-05
4.84176e-05
-9.38997e-05
4.7631e-05
-8.74914e-05
4.99993e-05
-8.22202e-05
5.00709e-05
-8.74977e-05
4.83476e-05
-0.000107837
4.7067e-05
-0.00011906
4.80097e-05
-0.000136913
7.22144e-05
-0.000152675
9.33722e-05
-0.000155157
9.11801e-05
-0.000176072
5.32625e-05
-0.000142787
9.83491e-06
2.71195e-05
-7.68149e-05
3.25484e-05
-9.65509e-05
3.45145e-05
-0.000109531
3.91366e-05
-0.00011775
4.43674e-05
-0.000121558
4.76202e-05
-0.000123093
4.89266e-05
-0.000122239
4.82814e-05
-0.000125689
4.90328e-05
-0.000121785
5.18791e-05
-0.000121236
5.09466e-05
-0.000122045
4.6328e-05
-0.000124432
4.33498e-05
-0.000110325
4.83939e-05
-0.000120741
7.28333e-05
-0.000138419
9.68702e-05
-0.000193472
9.39476e-05
-0.000202745
5.43313e-05
-0.000139969
6.67055e-06
-1.77436e-06
-1.2129e-05
-3.02554e-06
-1.27725e-05
-4.21523e-06
-1.38471e-05
-3.60431e-06
-1.50192e-05
-2.50691e-06
-1.63285e-05
-4.35683e-07
-1.94644e-05
3.23404e-06
-1.95589e-05
7.59588e-06
-2.00546e-05
9.52905e-06
-1.82799e-05
9.13299e-06
-1.56622e-05
8.14689e-06
-1.28425e-05
7.14269e-06
-1.26051e-05
1.01815e-05
-1.2792e-05
1.78373e-05
-9.47055e-06
2.23627e-05
5.18766e-07
1.94437e-05
9.85084e-06
1.50439e-05
-3.49132e-06
-8.77425e-06
-9.89063e-07
-2.40036e-05
6.03116e-06
-2.25949e-05
-3.19931e-07
-9.61019e-06
-5.15304e-06
5.50421e-06
-1.06646e-05
-8.86978e-06
2.33941e-05
-2.30232e-06
-7.50066e-06
-4.16896e-06
-8.57479e-06
-4.89543e-06
-1.09064e-05
-3.92301e-06
-1.38091e-05
-2.18637e-06
-1.63331e-05
9.67377e-07
-2.17792e-05
6.79194e-06
-2.49135e-05
1.3545e-05
-2.64955e-05
1.79995e-05
-2.18912e-05
2.16213e-05
-1.74958e-05
2.42867e-05
-1.1987e-05
2.61193e-05
-9.07167e-06
2.16674e-05
6.79323e-07
1.5083e-05
7.13994e-06
1.19334e-05
1.22833e-05
1.33581e-05
1.48123e-05
1.01985e-05
2.46561e-05
9.65936e-06
1.60156e-06
-1.90521e-06
-4.27511e-06
-4.07433e-06
-1.00234e-05
-1.8212e-06
-2.66906e-05
4.84624e-06
-3.88214e-05
-4.04796e-05
1.88938e-05
-2.56426e-06
-4.73386e-06
-5.07295e-06
-6.10293e-06
-7.12507e-06
-9.30389e-06
-7.84448e-06
-1.39703e-05
-8.0771e-06
-1.71188e-05
-3.1798e-06
-2.77287e-05
6.64134e-06
-3.583e-05
1.48106e-05
-3.54382e-05
1.74264e-05
-2.50787e-05
1.7943e-05
-1.86297e-05
1.91439e-05
-1.37564e-05
2.01752e-05
-1.06674e-05
2.3952e-05
-3.45342e-06
2.9778e-05
7.33828e-07
3.24262e-05
9.44925e-06
3.26919e-05
1.50721e-05
2.51793e-05
2.23766e-05
2.8115e-05
1.23566e-05
3.44722e-05
-1.03767e-05
4.20545e-05
-1.96402e-05
5.18813e-05
-4.20404e-05
5.33299e-05
-5.57029e-05
-7.01755e-05
5.81055e-05
-7.54757e-06
-2.32016e-05
-1.50417e-05
-2.20376e-05
-1.71182e-05
-2.13163e-05
-1.33285e-05
-2.19656e-05
-9.8794e-06
-2.21458e-05
-4.1576e-06
-3.62814e-05
2.54359e-06
-4.52959e-05
4.14246e-06
-4.058e-05
4.79863e-06
-2.94058e-05
7.23162e-06
-2.48109e-05
1.03667e-05
-2.04634e-05
1.33193e-05
-1.65866e-05
1.73387e-05
-9.9018e-06
2.03984e-05
-3.74947e-06
2.62361e-05
3.29332e-06
3.31629e-05
8.76813e-06
3.5247e-05
1.61092e-05
3.52643e-05
1.58378e-05
5.55964e-05
1.24583e-06
6.43543e-05
-1.60526e-05
7.4451e-05
-3.9973e-05
8.59678e-05
-5.43648e-05
-6.75857e-05
9.83368e-05
1.27123e-06
-6.24778e-05
-1.35155e-06
-5.83834e-05
-9.34056e-06
-9.83492e-05
-2.0907e-05
-9.32167e-05
-2.89712e-05
-8.54568e-05
-3.82293e-05
-9.27237e-05
-5.39952e-05
-9.92411e-05
-6.51999e-05
-8.61697e-05
-6.48404e-05
-6.57509e-05
-5.36838e-05
-5.46749e-05
-3.73871e-05
-4.39698e-05
-2.45679e-05
-3.20178e-05
-9.82879e-06
-2.69735e-05
1.69831e-06
-1.88766e-05
1.34643e-05
-1.23246e-05
2.23732e-05
-3.41949e-06
3.2143e-05
4.76505e-06
3.68496e-05
3.60593e-06
4.5854e-05
2.90514e-06
7.15049e-05
-8.40223e-06
8.52165e-05
-1.51725e-05
9.45485e-05
-2.73488e-05
-3.88381e-05
0.00010431
4.63465e-06
-1.03735e-05
-1.66336e-06
-1.48897e-05
-1.89009e-05
2.0986e-05
-7.20782e-06
-6.81505e-05
-6.53885e-06
-0.000109208
-5.38706e-05
-0.000104452
-0.00010431
-0.000102455
-0.000128342
-8.69663e-05
-0.00012291
-0.000112574
-0.000107316
-0.000112705
-9.63374e-05
-9.90023e-05
-8.88087e-05
-8.10263e-05
-7.54019e-05
-6.95136e-05
-5.88778e-05
-5.07104e-05
-3.88562e-05
-3.93482e-05
-1.75897e-05
-2.75513e-05
4.44047e-06
-2.29251e-05
2.17562e-05
-1.90936e-05
3.66469e-05
-1.54723e-05
5.22905e-05
-3.07195e-05
6.37526e-05
-2.88915e-05
7.25202e-05
-4.07653e-05
-5.50845e-05
7.55678e-05
8.97299e-07
-6.30955e-06
1.10172e-05
7.81266e-06
7.48758e-05
-1.45677e-05
0.000123212
-5.97732e-05
8.12384e-05
-6.8447e-05
4.42299e-05
-4.73431e-06
-2.37149e-06
3.59712e-05
-5.85502e-05
7.61813e-05
-0.000103455
1.35796e-05
-0.000101419
-5.56809e-05
-9.13133e-05
-6.66191e-05
-8.52478e-05
-8.83835e-05
-8.13851e-05
-0.000125426
-7.51655e-05
-0.000124101
-6.49559e-05
-0.000108264
-5.34804e-05
-8.92635e-05
-3.87726e-05
-8.23887e-05
-2.26986e-05
-7.54985e-05
-1.00264e-05
-6.86646e-05
-3.293e-08
-8.53092e-05
1.12033e-05
-8.83611e-05
1.70709e-05
-0.000100328
-0.000109736
2.11797e-05
-4.26184e-05
3.63071e-05
-5.08191e-05
1.60142e-05
-3.83342e-05
-2.7051e-05
-3.29522e-05
-6.51569e-05
-2.69366e-05
-7.44426e-05
2.24819e-05
-1.85768e-05
3.26505e-05
0.000100016
3.80192e-05
9.13971e-05
5.67174e-05
1.88925e-06
5.66025e-05
-4.07299e-05
5.61548e-05
-5.81247e-05
4.98789e-05
-4.15197e-05
-6.06659e-06
9.16787e-06
-4.20473e-05
-1.17357e-05
-4.56101e-05
-5.14685e-05
-4.23885e-05
-5.43858e-05
-3.73383e-05
-5.81364e-05
-3.3152e-05
-8.28493e-05
-2.90934e-05
-9.05863e-05
-2.53311e-05
-8.21281e-05
-1.63641e-05
-7.28653e-05
-6.50287e-06
-6.57246e-05
-6.49753e-05
-2.78914e-06
2.17823e-05
1.45237e-05
4.6276e-05
-8.47979e-06
4.60533e-05
-2.68282e-05
1.96682e-05
-3.87713e-05
-1.24528e-05
-4.23227e-05
-1.04841e-05
-2.05367e-05
4.77419e-05
4.21987e-05
8.72047e-05
5.19348e-05
4.58928e-05
4.31994e-05
-1.0088e-05
1.5249e-05
-4.03479e-05
-2.7866e-05
-3.7829e-05
-4.40415e-05
9.90795e-06
-3.74924e-05
6.27996e-05
-4.87957e-05
8.72132e-05
-5.29393e-05
9.26088e-05
-4.52084e-05
9.61119e-05
-4.03472e-05
9.36981e-05
-3.71834e-05
7.51911e-05
-1.41683e-05
6.36944e-05
-2.27951e-05
4.51418e-05
-3.09088e-05
4.23963e-05
-4.81551e-05
-5.93701e-05
4.86452e-05
-1.16569e-06
1.56889e-05
-1.02109e-05
5.65142e-07
-1.41132e-05
-2.29256e-05
-1.70423e-05
-3.58419e-05
-2.12037e-05
-3.81609e-05
-1.56912e-05
-2.60492e-05
3.26464e-05
-6.13919e-06
6.59645e-05
1.86158e-05
7.27682e-05
3.63942e-05
6.52507e-05
2.27647e-05
3.90721e-05
-1.68897e-06
2.7216e-05
-3.21858e-05
2.88033e-05
-3.90792e-05
2.45228e-05
-4.45145e-05
2.29595e-05
-5.13754e-05
2.85549e-05
-5.08035e-05
3.47964e-05
-4.65885e-05
4.06042e-05
-4.29916e-05
6.11985e-05
-3.47625e-05
7.21166e-05
-3.37132e-05
7.93099e-05
-3.81006e-05
7.74666e-05
-4.63091e-05
-5.26265e-05
7.07242e-05
1.10631e-05
4.6263e-06
2.00143e-05
-8.38594e-06
1.39167e-05
-1.68275e-05
1.68274e-06
-2.36078e-05
-8.71211e-06
-2.77657e-05
-1.23332e-05
-2.24282e-05
-2.61132e-06
-1.58612e-05
2.34982e-05
-7.49436e-06
4.39636e-05
1.59279e-05
4.89061e-05
1.7821e-05
4.42175e-05
2.99882e-06
3.8813e-05
-2.67816e-05
4.07245e-05
-4.09904e-05
4.36242e-05
-4.74138e-05
4.29232e-05
-5.06739e-05
4.38117e-05
-5.16916e-05
4.75112e-05
-5.02881e-05
4.91944e-05
-4.46751e-05
5.04761e-05
-3.60446e-05
4.55557e-05
-2.87922e-05
3.67059e-05
-2.9249e-05
2.77219e-05
-3.73245e-05
-4.467e-05
1.97683e-05
3.01713e-06
1.60939e-06
4.03207e-06
-9.40037e-06
4.53877e-06
-1.73338e-05
1.78929e-06
-2.08578e-05
-3.2151e-06
-2.27611e-05
-5.53354e-06
-2.01095e-05
-4.05186e-06
-1.73429e-05
1.68659e-06
-1.3233e-05
1.85741e-05
-9.60113e-07
3.0286e-05
6.1084e-06
3.6394e-05
-3.10971e-06
3.27771e-05
-2.31649e-05
2.58292e-05
-3.40425e-05
2.05911e-05
-4.21754e-05
1.65674e-05
-4.66499e-05
1.2476e-05
-4.76e-05
8.99169e-06
-4.68039e-05
9.05613e-06
-4.47399e-05
1.36374e-05
-4.06261e-05
2.13107e-05
-3.64655e-05
2.65971e-05
-3.45347e-05
2.49543e-05
-3.5681e-05
-3.71203e-05
1.74055e-05
5.68383e-06
-4.07364e-06
7.37756e-06
-1.10934e-05
5.77261e-06
-1.57284e-05
3.19739e-06
-1.82822e-05
-5.23225e-07
-1.90402e-05
-3.44613e-06
-1.71864e-05
-5.02374e-06
-1.57652e-05
-5.20039e-06
-1.30564e-05
3.26433e-06
-9.425e-06
1.4219e-05
-4.84653e-06
2.15526e-05
-1.04435e-05
1.99586e-05
-2.15709e-05
1.64794e-05
-3.05633e-05
1.28469e-05
-3.85427e-05
9.13278e-06
-4.29356e-05
5.84884e-06
-4.43161e-05
2.72191e-06
-4.36772e-05
-4.38379e-07
-4.15799e-05
-2.98949e-06
-3.80755e-05
-4.85589e-06
-3.45994e-05
-6.37696e-06
-3.30135e-05
-8.61326e-06
-3.3445e-05
-3.39017e-05
-1.1831e-05
3.5948e-06
-7.66784e-06
5.90619e-06
-1.34042e-05
5.70369e-06
-1.55253e-05
3.96062e-06
-1.65387e-05
1.63238e-06
-1.67116e-05
2.20876e-07
-1.57747e-05
-5.99013e-07
-1.49451e-05
-1.84976e-07
-1.34703e-05
3.10026e-06
-1.27102e-05
8.81305e-06
-1.05594e-05
1.21035e-05
-1.3734e-05
1.05417e-05
-2.00092e-05
7.49025e-06
-2.75119e-05
3.20798e-06
-3.42604e-05
-1.25072e-06
-3.84769e-05
-5.50133e-06
-4.00655e-05
-9.21945e-06
-3.99594e-05
-1.16873e-05
-3.91126e-05
-1.28274e-05
-3.6936e-05
-1.2324e-05
-3.51035e-05
-1.1446e-05
-3.38919e-05
-1.17163e-05
-3.31751e-05
-3.27613e-05
-1.28566e-05
1.79369e-06
-9.46068e-06
2.77848e-06
-1.43883e-05
2.51115e-06
-1.52575e-05
1.74259e-06
-1.57697e-05
9.93556e-07
-1.59622e-05
6.93145e-07
-1.5474e-05
8.82909e-07
-1.51346e-05
1.96953e-06
-1.45567e-05
3.81425e-06
-1.45548e-05
6.82191e-06
-1.3567e-05
8.73295e-06
-1.5645e-05
7.96906e-06
-1.92453e-05
5.03845e-06
-2.45812e-05
6.14452e-07
-2.98363e-05
-3.55539e-06
-3.43069e-05
-6.69825e-06
-3.69231e-05
-9.13704e-06
-3.7521e-05
-1.10955e-05
-3.71549e-05
-1.26807e-05
-3.53515e-05
-1.37414e-05
-3.40432e-05
-1.43107e-05
-3.33234e-05
-1.4955e-05
-3.25312e-05
-3.17273e-05
-1.5989e-05
1.0735e-06
-1.05337e-05
1.36045e-06
-1.46747e-05
1.23504e-06
-1.51316e-05
1.04888e-06
-1.55831e-05
9.29718e-07
-1.58427e-05
1.2276e-06
-1.57716e-05
1.8508e-06
-1.57576e-05
2.86835e-06
-1.55741e-05
4.13702e-06
-1.58233e-05
6.08956e-06
-1.55195e-05
7.39176e-06
-1.69472e-05
7.61174e-06
-1.94652e-05
6.3789e-06
-2.33484e-05
3.52274e-06
-2.698e-05
-2.41666e-07
-3.0543e-05
-3.84372e-06
-3.33211e-05
-6.61192e-06
-3.47535e-05
-8.74555e-06
-3.50216e-05
-1.0618e-05
-3.34793e-05
-1.26684e-05
-3.19935e-05
-1.42842e-05
-3.17077e-05
-1.53513e-05
-3.14649e-05
-3.06833e-05
-1.63948e-05
6.11696e-07
-1.11446e-05
8.51527e-07
-1.4914e-05
9.76029e-07
-1.52556e-05
1.02714e-06
-1.56339e-05
1.1332e-06
-1.59485e-05
1.51049e-06
-1.61486e-05
2.06787e-06
-1.63147e-05
2.92974e-06
-1.64358e-05
3.90356e-06
-1.6797e-05
5.35265e-06
-1.69685e-05
6.46996e-06
-1.80645e-05
7.12881e-06
-2.01241e-05
6.63762e-06
-2.28571e-05
5.03864e-06
-2.53813e-05
2.57788e-06
-2.8082e-05
-5.06871e-07
-3.0237e-05
-3.73375e-06
-3.15264e-05
-6.88161e-06
-3.18739e-05
-9.23583e-06
-3.11254e-05
-1.17225e-05
-2.95068e-05
-1.42364e-05
-2.91945e-05
-1.60292e-05
-2.9672e-05
-2.93045e-05
-1.74082e-05
4.26059e-07
-1.15706e-05
7.29983e-07
-1.52177e-05
9.68687e-07
-1.5494e-05
1.13993e-06
-1.58048e-05
1.24742e-06
-1.60557e-05
1.42682e-06
-1.63278e-05
1.70418e-06
-1.65919e-05
2.16403e-06
-1.68955e-05
2.71297e-06
-1.73459e-05
3.74428e-06
-1.79997e-05
4.70156e-06
-1.90217e-05
5.13537e-06
-2.05579e-05
4.58355e-06
-2.23053e-05
3.36777e-06
-2.41654e-05
1.41689e-06
-2.61316e-05
-1.4138e-06
-2.74058e-05
-4.50647e-06
-2.84343e-05
-7.34959e-06
-2.9031e-05
-9.71292e-06
-2.87621e-05
-1.18531e-05
-2.73673e-05
-1.41873e-05
-2.68603e-05
-1.59545e-05
-2.79057e-05
-2.81943e-05
-1.70651e-05
3.6922e-07
-1.19391e-05
6.7841e-07
-1.55263e-05
8.48268e-07
-1.56634e-05
9.21709e-07
-1.58778e-05
9.10923e-07
-1.60446e-05
8.47914e-07
-1.62645e-05
8.42272e-07
-1.6586e-05
9.14807e-07
-1.69678e-05
1.07957e-06
-1.75105e-05
1.42305e-06
-1.83431e-05
1.75582e-06
-1.93544e-05
1.7543e-06
-2.05563e-05
1.26275e-06
-2.18138e-05
2.66894e-07
-2.31697e-05
-1.52078e-06
-2.43437e-05
-3.91137e-06
-2.50156e-05
-6.29863e-06
-2.60471e-05
-8.52417e-06
-2.68055e-05
-1.07664e-05
-2.65199e-05
-1.25741e-05
-2.55599e-05
-1.40398e-05
-2.53949e-05
-1.53639e-05
-2.6582e-05
-2.6905e-05
-1.66536e-05
3.08708e-07
-1.22477e-05
4.04978e-07
-1.56224e-05
4.3175e-07
-1.56899e-05
4.54838e-07
-1.59007e-05
4.80798e-07
-1.60704e-05
4.99694e-07
-1.62832e-05
5.1952e-07
-1.66057e-05
5.288e-07
-1.6977e-05
5.0822e-07
-1.74898e-05
4.12692e-07
-1.82475e-05
2.14639e-07
-1.91564e-05
-2.39367e-07
-2.01024e-05
-1.06642e-06
-2.09867e-05
-2.12691e-06
-2.21092e-05
-3.47414e-06
-2.29967e-05
-4.75105e-06
-2.37386e-05
-6.36135e-06
-2.44369e-05
-8.40858e-06
-2.47584e-05
-1.02963e-05
-2.46324e-05
-1.17335e-05
-2.4123e-05
-1.29243e-05
-2.42043e-05
-1.42285e-05
-2.5278e-05
-2.56308e-05
-1.55032e-05
1.73623e-07
-1.24211e-05
2.25972e-07
-1.56745e-05
2.95493e-07
-1.57593e-05
3.54974e-07
-1.596e-05
4.19251e-07
-1.61345e-05
4.92401e-07
-1.63562e-05
5.13572e-07
-1.66268e-05
4.78726e-07
-1.69421e-05
3.4892e-07
-1.73599e-05
5.05185e-08
-1.79491e-05
-3.69525e-07
-1.87363e-05
-9.86815e-07
-1.94851e-05
-1.8135e-06
-2.016e-05
-2.87216e-06
-2.10507e-05
-4.04476e-06
-2.18239e-05
-5.24079e-06
-2.25428e-05
-6.81775e-06
-2.286e-05
-8.66683e-06
-2.29095e-05
-1.03451e-05
-2.29543e-05
-1.18312e-05
-2.26371e-05
-1.31876e-05
-2.28482e-05
-1.47233e-05
-2.37426e-05
-2.39993e-05
-1.63551e-05
9.83013e-08
-1.25192e-05
1.76717e-07
-1.57527e-05
2.63301e-07
-1.58457e-05
2.81777e-07
-1.59784e-05
2.85769e-07
-1.61383e-05
2.74673e-07
-1.6345e-05
2.51467e-07
-1.66035e-05
2.26969e-07
-1.69175e-05
1.644e-07
-1.72973e-05
-1.01365e-07
-1.76833e-05
-5.82651e-07
-1.82551e-05
-1.17331e-06
-1.88945e-05
-1.80828e-06
-1.95251e-05
-2.79592e-06
-2.0063e-05
-3.9631e-06
-2.06569e-05
-5.37409e-06
-2.11317e-05
-6.78429e-06
-2.14499e-05
-8.03853e-06
-2.16554e-05
-9.36538e-06
-2.16276e-05
-1.05783e-05
-2.14244e-05
-1.18167e-05
-2.161e-05
-1.34669e-05
-2.20926e-05
-2.19126e-05
-1.55539e-05
8.7577e-08
-1.26066e-05
5.47651e-08
-1.57198e-05
-1.09537e-08
-1.57798e-05
-8.86666e-08
-1.59005e-05
-1.7608e-07
-1.60508e-05
-2.76695e-07
-1.62443e-05
-3.93809e-07
-1.64863e-05
-5.30081e-07
-1.67812e-05
-7.01059e-07
-1.71263e-05
-9.43981e-07
-1.74404e-05
-1.40297e-06
-1.77961e-05
-2.00177e-06
-1.82957e-05
-2.66894e-06
-1.8858e-05
-3.43178e-06
-1.93002e-05
-4.40475e-06
-1.96838e-05
-5.71525e-06
-1.98214e-05
-7.12846e-06
-2.00367e-05
-8.47502e-06
-2.03089e-05
-9.85058e-06
-2.02522e-05
-1.11525e-05
-2.01227e-05
-1.24524e-05
-2.03103e-05
-1.40545e-05
-2.04908e-05
-2.01125e-05
-1.58547e-05
-1.10669e-09
-1.26054e-05
-6.99416e-08
-1.56508e-05
-1.39188e-07
-1.57105e-05
-2.23556e-07
-1.5816e-05
-3.31003e-07
-1.59433e-05
-4.74129e-07
-1.61011e-05
-6.64664e-07
-1.62957e-05
-8.96412e-07
-1.65494e-05
-1.18612e-06
-1.68366e-05
-1.54623e-06
-1.70803e-05
-2.01798e-06
-1.73244e-05
-2.61945e-06
-1.76943e-05
-3.43552e-06
-1.80419e-05
-4.29028e-06
-1.84453e-05
-5.23689e-06
-1.87374e-05
-6.08318e-06
-1.89749e-05
-6.93816e-06
-1.91819e-05
-8.15289e-06
-1.90943e-05
-9.37661e-06
-1.90286e-05
-1.05423e-05
-1.89572e-05
-1.19217e-05
-1.8931e-05
-1.36186e-05
-1.8794e-05
-1.85838e-05
-1.51477e-05
3.68816e-08
-1.26422e-05
-1.56371e-08
-1.55982e-05
-9.44605e-08
-1.56316e-05
-2.00509e-07
-1.57099e-05
-3.37629e-07
-1.58061e-05
-4.99576e-07
-1.59391e-05
-6.93136e-07
-1.61021e-05
-9.5112e-07
-1.62914e-05
-1.31763e-06
-1.64701e-05
-1.70927e-06
-1.66886e-05
-2.06739e-06
-1.69663e-05
-2.55332e-06
-1.72084e-05
-3.20293e-06
-1.73923e-05
-4.07795e-06
-1.75705e-05
-5.02211e-06
-1.77929e-05
-6.03322e-06
-1.79639e-05
-7.29461e-06
-1.79204e-05
-8.50697e-06
-1.78819e-05
-9.57303e-06
-1.79627e-05
-1.06872e-05
-1.78431e-05
-1.20266e-05
-1.75918e-05
-1.34515e-05
-1.73694e-05
-1.71848e-05
-1.48506e-05
-7.02498e-08
-1.25718e-05
-1.97508e-07
-1.54709e-05
-3.161e-07
-1.55129e-05
-4.54447e-07
-1.55715e-05
-6.18293e-07
-1.56422e-05
-8.2467e-07
-1.57327e-05
-1.06684e-06
-1.58599e-05
-1.3579e-06
-1.60003e-05
-1.68496e-06
-1.6143e-05
-2.09442e-06
-1.62792e-05
-2.63284e-06
-1.64279e-05
-3.24763e-06
-1.65936e-05
-3.83919e-06
-1.68008e-05
-4.57485e-06
-1.68347e-05
-5.46367e-06
-1.69043e-05
-6.38685e-06
-1.70406e-05
-7.23141e-06
-1.70759e-05
-8.04732e-06
-1.70661e-05
-9.14217e-06
-1.68679e-05
-1.0381e-05
-1.66044e-05
-1.16508e-05
-1.63222e-05
-1.29394e-05
-1.60809e-05
-1.57319e-05
-1.43927e-05
-5.44705e-08
-1.25173e-05
-1.71968e-07
-1.53533e-05
-2.94932e-07
-1.53899e-05
-4.31297e-07
-1.54351e-05
-5.85175e-07
-1.54883e-05
-7.71897e-07
-1.55459e-05
-1.00752e-06
-1.56242e-05
-1.29472e-06
-1.57131e-05
-1.62877e-06
-1.58089e-05
-2.03098e-06
-1.5877e-05
-2.55122e-06
-1.59077e-05
-3.16724e-06
-1.59776e-05
-3.88114e-06
-1.60869e-05
-4.52908e-06
-1.61868e-05
-5.14214e-06
-1.62909e-05
-5.94116e-06
-1.62417e-05
-6.91266e-06
-1.61043e-05
-8.11648e-06
-1.58623e-05
-9.27959e-06
-1.57049e-05
-1.03158e-05
-1.55684e-05
-1.13261e-05
-1.5312e-05
-1.25381e-05
-1.48692e-05
-1.44251e-05
-1.38449e-05
-8.51547e-08
-1.24321e-05
-2.27911e-07
-1.52105e-05
-3.81851e-07
-1.52359e-05
-5.65608e-07
-1.52513e-05
-7.79581e-07
-1.52742e-05
-1.01455e-06
-1.53109e-05
-1.29079e-06
-1.53479e-05
-1.61897e-06
-1.53849e-05
-1.99612e-06
-1.54317e-05
-2.37463e-06
-1.54985e-05
-2.73657e-06
-1.55457e-05
-3.16253e-06
-1.55517e-05
-3.74034e-06
-1.55091e-05
-4.47957e-06
-1.54474e-05
-5.42873e-06
-1.5342e-05
-6.33657e-06
-1.53335e-05
-7.18497e-06
-1.5256e-05
-7.93504e-06
-1.51123e-05
-8.72337e-06
-1.49167e-05
-9.75457e-06
-1.45373e-05
-1.09757e-05
-1.40912e-05
-1.21343e-05
-1.37106e-05
-1.3269e-05
-1.32908e-05
-8.377e-08
-1.23483e-05
-2.10495e-07
-1.50837e-05
-3.36919e-07
-1.51094e-05
-4.7832e-07
-1.51098e-05
-6.46468e-07
-1.51061e-05
-8.52426e-07
-1.51049e-05
-1.09953e-06
-1.51008e-05
-1.39289e-06
-1.50915e-05
-1.75378e-06
-1.50708e-05
-2.22139e-06
-1.50308e-05
-2.78795e-06
-1.49792e-05
-3.40706e-06
-1.49326e-05
-4.00798e-06
-1.49081e-05
-4.59555e-06
-1.486e-05
-5.12557e-06
-1.48116e-05
-5.75227e-06
-1.4707e-05
-6.53957e-06
-1.44686e-05
-7.49485e-06
-1.4157e-05
-8.60184e-06
-1.38098e-05
-9.63578e-06
-1.35035e-05
-1.05456e-05
-1.31814e-05
-1.15698e-05
-1.26867e-05
-1.21232e-05
-1.27155e-05
-1.07265e-07
-1.2241e-05
-2.60451e-07
-1.49305e-05
-4.20462e-07
-1.49494e-05
-6.03616e-07
-1.49266e-05
-8.09346e-07
-1.49003e-05
-1.04533e-06
-1.48689e-05
-1.31622e-06
-1.48299e-05
-1.62364e-06
-1.47841e-05
-1.96229e-06
-1.47322e-05
-2.31407e-06
-1.46791e-05
-2.66954e-06
-1.46237e-05
-3.07759e-06
-1.45245e-05
-3.5891e-06
-1.43966e-05
-4.19791e-06
-1.4251e-05
-4.95115e-06
-1.40586e-05
-5.81984e-06
-1.38381e-05
-6.65902e-06
-1.36294e-05
-7.45634e-06
-1.33598e-05
-8.20295e-06
-1.30632e-05
-9.04961e-06
-1.26569e-05
-1.00611e-05
-1.21702e-05
-1.10741e-05
-1.16736e-05
-1.11059e-05
-1.20917e-05
-7.91494e-08
-1.21618e-05
-1.89393e-07
-1.48202e-05
-3.06572e-07
-1.48322e-05
-4.4747e-07
-1.47857e-05
-6.20317e-07
-1.47274e-05
-8.34153e-07
-1.4655e-05
-1.0937e-06
-1.45703e-05
-1.40133e-06
-1.44764e-05
-1.7603e-06
-1.43732e-05
-2.1806e-06
-1.42588e-05
-2.67062e-06
-1.41337e-05
-3.19944e-06
-1.39957e-05
-3.75239e-06
-1.38436e-05
-4.32971e-06
-1.36737e-05
-4.90848e-06
-1.34795e-05
-5.49465e-06
-1.3252e-05
-6.16228e-06
-1.29617e-05
-6.92075e-06
-1.26013e-05
-7.79605e-06
-1.2188e-05
-8.69149e-06
-1.17616e-05
-9.55997e-06
-1.13018e-05
-1.04781e-05
-1.07558e-05
-1.01346e-05
-1.14493e-05
-8.58602e-08
-1.20759e-05
-2.10635e-07
-1.46954e-05
-3.41589e-07
-1.47012e-05
-4.95037e-07
-1.46322e-05
-6.72064e-07
-1.45504e-05
-8.77368e-07
-1.44497e-05
-1.11532e-06
-1.43323e-05
-1.39015e-06
-1.42016e-05
-1.70379e-06
-1.40596e-05
-2.05657e-06
-1.3906e-05
-2.45153e-06
-1.37388e-05
-2.88389e-06
-1.35634e-05
-3.36513e-06
-1.33624e-05
-3.90911e-06
-1.31295e-05
-4.52165e-06
-1.28672e-05
-5.20331e-06
-1.257e-05
-5.92503e-06
-1.22401e-05
-6.65059e-06
-1.18757e-05
-7.3764e-06
-1.14623e-05
-8.15243e-06
-1.09857e-05
-8.99898e-06
-1.04554e-05
-9.87542e-06
-9.87935e-06
-9.23497e-06
-1.07754e-05
-4.55122e-08
-1.20304e-05
-1.38488e-07
-1.46024e-05
-2.39821e-07
-1.45998e-05
-3.64054e-07
-1.4508e-05
-5.13638e-07
-1.44008e-05
-6.94398e-07
-1.42689e-05
-9.15761e-07
-1.4111e-05
-1.18222e-06
-1.39351e-05
-1.49565e-06
-1.37461e-05
-1.85543e-06
-1.35462e-05
-2.261e-06
-1.33332e-05
-2.7183e-06
-1.31061e-05
-3.21427e-06
-1.28664e-05
-3.73873e-06
-1.26052e-05
-4.29171e-06
-1.23138e-05
-4.87368e-06
-1.19883e-05
-5.49259e-06
-1.16211e-05
-6.16273e-06
-1.12056e-05
-6.88321e-06
-1.0742e-05
-7.63519e-06
-1.02339e-05
-8.41257e-06
-9.67815e-06
-9.22619e-06
-9.06607e-06
-8.38963e-06
-1.00713e-05
-2.89175e-08
-1.20014e-05
-1.19714e-07
-1.45116e-05
-2.17906e-07
-1.45016e-05
-3.3428e-07
-1.43916e-05
-4.68218e-07
-1.42668e-05
-6.19368e-07
-1.41178e-05
-7.91116e-07
-1.39392e-05
-9.9272e-07
-1.37335e-05
-1.24108e-06
-1.34977e-05
-1.55258e-06
-1.32347e-05
-1.92621e-06
-1.29596e-05
-2.35394e-06
-1.26783e-05
-2.8308e-06
-1.23895e-05
-3.34794e-06
-1.20879e-05
-3.89907e-06
-1.17629e-05
-4.47999e-06
-1.14071e-05
-5.08909e-06
-1.10119e-05
-5.71919e-06
-1.05756e-05
-6.3733e-06
-1.00879e-05
-7.06069e-06
-9.54662e-06
-7.78654e-06
-8.95249e-06
-8.54672e-06
-8.30582e-06
-7.59997e-06
-9.33673e-06
1.03652e-08
-1.20118e-05
-9.39985e-08
-1.44072e-05
-2.03327e-07
-1.43923e-05
-3.21487e-07
-1.42734e-05
-4.51886e-07
-1.41364e-05
-5.92454e-07
-1.39772e-05
-7.40004e-07
-1.37916e-05
-9.05847e-07
-1.35676e-05
-1.09917e-06
-1.33044e-05
-1.32833e-06
-1.30055e-05
-1.6096e-06
-1.26783e-05
-1.95682e-06
-1.23311e-05
-2.37671e-06
-1.19696e-05
-2.87126e-06
-1.15934e-05
-3.41964e-06
-1.12141e-05
-3.99965e-06
-1.08272e-05
-4.59069e-06
-1.04208e-05
-5.1933e-06
-9.97307e-06
-5.81391e-06
-9.46743e-06
-6.45711e-06
-8.90357e-06
-7.12728e-06
-8.2824e-06
-7.8313e-06
-7.60222e-06
-6.86323e-06
-8.56783e-06
2.40511e-08
-1.20358e-05
-1.34757e-07
-1.42484e-05
-2.98713e-07
-1.42283e-05
-4.54502e-07
-1.41176e-05
-6.11661e-07
-1.39792e-05
-7.7418e-07
-1.38146e-05
-9.40097e-07
-1.36257e-05
-1.10848e-06
-1.33992e-05
-1.28253e-06
-1.31304e-05
-1.46704e-06
-1.2821e-05
-1.67429e-06
-1.24711e-05
-1.91576e-06
-1.20897e-05
-2.1979e-06
-1.16875e-05
-2.53397e-06
-1.12571e-05
-2.93528e-06
-1.08132e-05
-3.41641e-06
-1.03457e-05
-3.97756e-06
-9.85984e-06
-4.58701e-06
-9.36368e-06
-5.199e-06
-8.85563e-06
-5.80777e-06
-8.29495e-06
-6.42937e-06
-7.66108e-06
-7.08022e-06
-6.95123e-06
-6.17937e-06
-7.7645e-06
-1.08207e-08
-1.2025e-05
-2.85037e-07
-1.39742e-05