/*--------------------------------*- C++ -*----------------------------------*\
| =========                 |                                                 |
| \\      /  F ield         | OpenFOAM: The Open Source CFD Toolbox           |
|  \\    /   O peration     | Version:  2.4.0                                 |
|   \\  /    A nd           | Web:      www.OpenFOAM.org                      |
|    \\/     M anipulation  |                                                 |
\*---------------------------------------------------------------------------*/
FoamFile
{
    version     2.0;
    format      ascii;
    class       surfaceScalarField;
    location    "0.55";
    object      phi.air;
}
// * * * * * * * * * * * * * * * * * * * * * * * * * * * * * * * * * * * * * //

dimensions      [0 3 -1 0 0 0 0];

internalField   nonuniform List<scalar> 
4432
(
2.48918e-06
-2.48923e-06
5.19157e-06
-2.70245e-06
7.04048e-06
-1.84899e-06
1.02774e-05
-3.23704e-06
1.2793e-05
-2.51563e-06
1.46361e-05
-1.84312e-06
1.71367e-05
-2.50064e-06
1.97519e-05
-2.61526e-06
2.27876e-05
-3.03571e-06
2.45375e-05
-1.74997e-06
2.54147e-05
-8.77226e-07
2.6213e-05
-7.98232e-07
2.67483e-05
-5.35237e-07
2.66227e-05
1.25548e-07
2.48795e-05
1.74321e-06
2.17148e-05
3.16459e-06
1.6997e-05
4.71753e-06
1.17294e-05
5.26741e-06
6.9816e-06
4.7477e-06
4.36007e-06
2.62152e-06
2.91762e-06
1.44255e-06
2.86423e-07
2.63134e-06
2.8654e-07
2.50634e-06
-4.99567e-06
5.14324e-06
-5.33943e-06
7.27771e-06
-3.98357e-06
1.02033e-05
-6.1627e-06
1.26248e-05
-4.93711e-06
1.48049e-05
-4.02335e-06
1.7409e-05
-5.10464e-06
1.99556e-05
-5.16171e-06
2.25089e-05
-5.58886e-06
2.41339e-05
-3.37495e-06
2.55963e-05
-2.3397e-06
2.68345e-05
-2.03639e-06
2.74102e-05
-1.11086e-06
2.68717e-05
6.64228e-07
2.53913e-05
3.22369e-06
2.2197e-05
6.35894e-06
1.73922e-05
9.52243e-06
1.18347e-05
1.08249e-05
7.54097e-06
9.04139e-06
4.71401e-06
5.44848e-06
2.86201e-06
3.2947e-06
5.67336e-07
4.92622e-06
8.54095e-07
2.52504e-06
-7.27405e-06
5.04405e-06
-7.59713e-06
7.47311e-06
-6.17865e-06
1.00384e-05
-8.43862e-06
1.25007e-05
-7.12564e-06
1.5058e-05
-6.30253e-06
1.77005e-05
-7.42136e-06
2.00774e-05
-7.20725e-06
2.20605e-05
-7.22479e-06
2.37566e-05
-4.75377e-06
2.61282e-05
-4.38971e-06
2.79582e-05
-3.57639e-06
2.88528e-05
-1.81016e-06
2.821e-05
1.35885e-06
2.56758e-05
5.75873e-06
2.15219e-05
1.05128e-05
1.6522e-05
1.45223e-05
1.09735e-05
1.63732e-05
6.89636e-06
1.31184e-05
5.12846e-06
7.2164e-06
4.31971e-06
4.10358e-06
3.21122e-06
6.03489e-06
4.06549e-06
2.53153e-06
-1.25167e-05
4.81372e-06
-1.28336e-05
7.86777e-06
-1.18504e-05
9.65816e-06
-1.36579e-05
1.22993e-05
-1.30352e-05
1.53602e-05
-1.2872e-05
1.77381e-05
-1.41682e-05
1.97603e-05
-1.37413e-05
2.15563e-05
-1.39025e-05
2.39774e-05
-1.17804e-05
2.65823e-05
-1.17859e-05
2.78686e-05
-9.29166e-06
2.78056e-05
-5.17201e-06
2.65289e-05
1.29161e-06
2.53975e-05
7.09071e-06
2.27173e-05
1.34419e-05
1.77391e-05
1.95194e-05
1.19868e-05
2.21255e-05
7.47524e-06
1.763e-05
4.73166e-06
9.95999e-06
3.76358e-06
5.07173e-06
2.87846e-06
6.92008e-06
6.94401e-06
2.2728e-06
-3.18865e-05
4.30682e-06
-3.2379e-05
7.43516e-06
-3.21085e-05
8.82363e-06
-3.33781e-05
1.10357e-05
-3.35527e-05
1.42298e-05
-3.50491e-05
1.61928e-05
-3.66947e-05
1.79245e-05
-3.67821e-05
1.99582e-05
-3.81788e-05
2.29903e-05
-3.76465e-05
2.49159e-05
-3.74581e-05
2.68462e-05
-3.5318e-05
2.92206e-05
-3.20852e-05
3.01404e-05
-1.97265e-05
2.53627e-05
-1.34883e-06
2.09389e-05
1.1307e-05
1.6925e-05
2.39717e-05
1.14182e-05
2.77098e-05
7.78947e-06
2.12591e-05
4.34004e-06
1.34094e-05
2.54523e-06
6.86662e-06
2.55105e-06
6.91442e-06
9.49528e-06
7.08062e-07
-1.80069e-05
1.55979e-06
-1.76659e-05
2.71981e-06
-1.85494e-05
3.60795e-06
-1.69201e-05
4.35555e-06
-1.71197e-05
6.07262e-06
-1.81945e-05
7.72893e-06
-1.65804e-05
9.17744e-06
-1.52457e-05
1.10103e-05
-1.52574e-05
1.2869e-05
-1.42168e-05
1.41291e-05
-1.20648e-05
1.59038e-05
-1.03117e-05
1.72434e-05
-6.82918e-06
1.95788e-05
-1.1264e-06
1.91808e-05
-1.05286e-05
1.5895e-05
6.61035e-07
1.11312e-05
1.8138e-05
8.99597e-06
2.99773e-05
7.24792e-06
2.31093e-05
3.68267e-06
1.69751e-05
7.34219e-07
9.81508e-06
7.64873e-07
6.88374e-06
1.026e-05
-6.66043e-07
-1.2136e-05
-1.14372e-06
-1.23009e-05
-1.45589e-06
-1.32879e-05
-1.17311e-06
-1.29283e-05
-4.49513e-07
-1.36456e-05
7.12265e-07
-1.57679e-05
1.91974e-06
-1.49667e-05
3.58187e-06
-1.44426e-05
4.69863e-06
-1.43497e-05
5.35685e-06
-1.30462e-05
4.94596e-06
-1.00708e-05
4.0787e-06
-8.03995e-06
3.18804e-06
-4.45883e-06
5.64189e-06
1.61744e-07
1.20931e-05
6.67192e-06
1.57181e-05
9.90226e-06
5.8333e-06
1.21186e-05
3.83946e-06
2.51745e-05
3.99322e-06
2.31873e-05
2.69871e-06
1.82893e-05
3.91092e-08
1.24746e-05
-1.41894e-07
7.06451e-06
1.0118e-05
-8.02931e-07
-1.1332e-05
-1.47049e-06
-1.16321e-05
-1.64108e-06
-1.31164e-05
-1.73873e-06
-1.28302e-05
-1.1611e-06
-1.42227e-05
5.49029e-07
-1.7477e-05
1.98579e-06
-1.64027e-05
3.86131e-06
-1.63176e-05
5.77698e-06
-1.6265e-05
7.52999e-06
-1.47992e-05
8.46133e-06
-1.10026e-05
9.52385e-06
-9.10376e-06
6.47505e-06
-1.41185e-06
-1.63504e-06
8.27141e-06
-7.33824e-06
1.27928e-05
4.67322e-07
1.36842e-05
9.9038e-07
1.92714e-05
-7.63318e-06
2.22591e-05
-4.68913e-06
1.89263e-05
-1.68856e-06
1.547e-05
-8.3311e-07
1.16223e-05
3.84669e-08
6.19432e-06
1.01564e-05
-7.30313e-06
-3.60317e-05
7.16893e-09
-6.16773e-05
1.23941e-05
-7.17009e-05
1.98257e-05
-6.36916e-05
2.52534e-05
-5.74067e-05
3.17917e-05
-5.8028e-05
3.85882e-05
-5.7568e-05
4.32628e-05
-4.54062e-05
4.43975e-05
-1.90814e-05
4.45654e-05
-9.62927e-06
4.61618e-05
-1.21207e-05
5.30821e-05
-2.07374e-05
5.79459e-05
-4.24105e-06
5.03328e-05
9.63554e-05
3.14719e-05
9.86102e-05
1.53647e-05
2.98192e-05
4.66482e-06
-2.31314e-05
4.81264e-06
-2.5475e-05
-1.35523e-06
-1.99098e-06
-1.94875e-05
9.79353e-06
-6.84776e-05
2.58081e-05
-8.45588e-05
3.74208e-05
-7.10123e-05
4.69026e-05
-6.06437e-05
5.5801e-05
-6.29103e-05
6.31608e-05
-6.60117e-05
6.9877e-05
-6.30281e-05
7.24836e-05
-5.53052e-05
6.90053e-05
-4.8061e-05
6.66223e-05
-4.71493e-05
7.17841e-05
-5.79948e-05
8.87558e-05
-6.20771e-05
9.7666e-05
-2.68076e-05
6.52565e-05
-1.71776e-05
2.77152e-05
-8.50058e-05
2.32287e-05
-5.38747e-05
2.03533e-05
-2.04049e-05
2.18858e-05
3.75984e-06
-1.80854e-05
1.73452e-05
-8.00017e-05
2.95158e-05
-9.42766e-05
4.12247e-05
-7.56457e-05
5.27747e-05
-6.41034e-05
6.10642e-05
-6.29526e-05
6.61787e-05
-6.21072e-05
7.00432e-05
-5.70049e-05
7.42789e-05
-4.74847e-05
7.35183e-05
-1.9761e-05
7.00187e-05
1.22524e-06
7.38736e-05
-1.68558e-05
8.16131e-05
-6.37053e-05
8.53246e-05
-3.71691e-05
4.78022e-05
4.40588e-05
3.62909e-05
4.39922e-05
3.67334e-05
3.69273e-05
-1.55348e-06
-6.36279e-05
2.28481e-05
1.41393e-05
-2.25556e-05
2.46855e-05
-7.68518e-06
3.28671e-05
-5.07474e-05
4.25947e-05
-8.27496e-05
5.26453e-05
-6.94204e-05
6.04752e-05
-6.54402e-05
6.45381e-05
-6.2073e-05
6.66662e-05
-5.63295e-05
6.80884e-05
-4.64893e-05
6.7777e-05
-4.13863e-05
6.5905e-05
-3.12449e-05
6.68919e-05
-4.14647e-05
6.70296e-05
4.63286e-05
6.87371e-05
-2.37957e-05
5.88885e-05
1.26794e-05
3.71319e-05
8.24585e-05
3.30274e-05
8.37975e-05
-7.77035e-06
-4.35426e-06
1.4102e-05
2.17593e-05
-3.34327e-05
3.46379e-05
-1.90627e-05
3.70188e-05
-2.82313e-05
4.13895e-05
-3.28265e-05
4.97694e-05
-7.35507e-05
5.55167e-05
-6.83716e-05
5.71267e-05
-5.99383e-05
5.77912e-05
-5.43136e-05
5.82203e-05
-4.48852e-05
5.78221e-05
-3.79786e-05
5.78875e-05
-4.60937e-05
7.54298e-05
-2.7083e-05
7.97596e-05
6.74889e-05
5.78573e-05
0.000156012
4.87835e-05
0.000224521
3.82303e-05
0.000203793
4.11629e-05
0.000154475
3.79886e-06
2.41156e-05
1.21325e-05
2.47614e-05
2.72092e-05
4.04285e-05
-1.70752e-05
3.97575e-05
-2.37581e-05
4.35197e-05
-8.47087e-06
4.66242e-05
5.09458e-06
5.1754e-05
-5.48127e-05
5.39158e-05
-6.4846e-05
5.35973e-05
-5.64123e-05
5.23293e-05
-4.66514e-05
5.3738e-05
-4.0904e-05
5.47843e-05
-4.55278e-05
7.39286e-05
3.75494e-05
6.75898e-05
-9.70902e-07
5.8796e-05
2.90337e-05
3.4335e-05
0.00022261
2.64679e-05
0.000384703
2.39387e-05
0.000380847
-4.60884e-06
9.57726e-05
3.4711e-05
2.26377e-05
2.62547e-05
3.96738e-05
-1.76798e-05
4.05226e-05
-2.23002e-05
4.32363e-05
4.38429e-06
4.95032e-05
3.16338e-05
5.03488e-05
4.98104e-05
5.09582e-05
-5.21232e-05
4.8547e-05
-6.51592e-05
4.66073e-05
-5.34801e-05
4.9028e-05
-4.81327e-05
4.81899e-05
-4.31458e-05
3.49771e-05
6.89795e-05
1.86522e-05
8.41759e-06
1.0664e-05
9.62343e-07
5.16916e-05
8.86476e-05
4.34079e-05
0.000244663
-1.08569e-05
0.00025388
-5.9462e-05
2.61497e-05
2.82664e-05
2.07292e-05
-3.9044e-05
3.94132e-05
-3.19885e-05
4.10612e-05
-3.15733e-05
4.36388e-05
-1.95483e-05
5.07662e-05
2.48244e-06
5.27846e-05
8.33541e-05
4.99467e-05
8.76633e-05
4.73841e-05
-5.63453e-05
4.73568e-05
-6.23428e-05
4.96686e-05
-6.21037e-05
3.92368e-05
-5.59456e-05
7.77281e-06
9.36607e-05
-1.26612e-05
6.4634e-05
-5.56318e-05
7.30312e-05
-4.70982e-05
7.23075e-05
3.43027e-05
0.000127514
-1.92905e-05
0.000245333
-9.82055e-05
-9.26213e-06
1.80919e-05
-1.82918e-06
-9.37758e-06
-3.1209e-06
-1.02221e-05
-4.3757e-06
-1.17894e-05
-3.74281e-06
-1.34427e-05
-2.59464e-06
-1.53476e-05
-5.38161e-07
-1.9509e-05
3.24202e-06
-2.01753e-05
7.60251e-06
-2.06744e-05
9.30864e-06
-1.79628e-05
8.78207e-06
-1.4256e-05
7.61219e-06
-9.82326e-06
6.40783e-06
-7.89424e-06
9.46744e-06
-4.46635e-06
1.76227e-05
1.25021e-07
2.16812e-05
8.74278e-06
1.76824e-05
1.7827e-05
1.19482e-05
4.0732e-05
-1.0938e-05
3.37623e-05
-2.54412e-05
2.03413e-05
-2.27256e-05
8.34797e-06
-9.61556e-06
-1.5551e-06
5.5031e-06
-8.64592e-06
-7.46313e-06
2.3396e-05
-2.32968e-06
-6.9906e-06
-4.21989e-06
-8.29519e-06
-4.95046e-06
-1.10319e-05
-3.96986e-06
-1.43792e-05
-2.21802e-06
-1.70629e-05
9.87757e-07
-2.26572e-05
6.84299e-06
-2.59354e-05
1.35958e-05
-2.73403e-05
1.79992e-05
-2.21965e-05
2.1604e-05
-1.76982e-05
2.42478e-05
-1.23368e-05
2.60806e-05
-9.53043e-06
2.16048e-05
5.35289e-08
1.54024e-05
6.32477e-06
1.19095e-05
1.22321e-05
1.29379e-05
1.67988e-05
2.33191e-05
3.03047e-05
2.20133e-05
4.58901e-05
2.82495e-06
3.12905e-05
-4.106e-06
8.19895e-06
-2.14343e-06
-1.2449e-05
4.72819e-06
-2.43304e-05
-2.91912e-05
1.921e-05
-2.57154e-06
4.91248e-06
-5.08214e-06
7.18147e-06
-7.13835e-06
2.36762e-05
-7.85546e-06
7.71052e-06
-8.08664e-06
-7.36229e-06
-3.16548e-06
-2.96561e-06
6.69766e-06
-1.32939e-05
1.48523e-05
-2.41184e-05
1.74682e-05
-2.0046e-05
1.79897e-05
-1.34553e-05
1.91573e-05
-9.04217e-06
2.01439e-05
-1.07591e-05
2.3911e-05
-4.47988e-06
2.9771e-05
5.69996e-07
3.25591e-05
9.59597e-06
3.38695e-05
1.55158e-05
4.00419e-05
2.40929e-05
5.5142e-05
3.1586e-05
6.44621e-05
3.27317e-05
6.30946e-05
1.10341e-05
5.94888e-05
-1.00996e-05
5.58776e-05
-2.78356e-05
-4.88276e-05
6.20305e-05
-8.38496e-06
0.000114775
-1.83985e-05
0.00011276
-2.5003e-05
8.95498e-05
-1.75173e-05
5.57226e-05
-1.23028e-05
3.46802e-05
7.75451e-07
2.58049e-05
1.02475e-05
3.61168e-05
5.65175e-06
5.49833e-05
5.2392e-06
5.71338e-05
7.25783e-06
5.79472e-05
1.05151e-05
6.17119e-05
1.36947e-05
5.08872e-05
1.7611e-05
4.03621e-05
2.04815e-05
5.19075e-06
2.62204e-05
6.69065e-06
3.31208e-05
7.94413e-06
4.15633e-05
1.53333e-05
5.68219e-05
1.6127e-05
7.43477e-05
2.09088e-05
8.99154e-05
7.95605e-06
0.000101068
-5.2306e-06
0.000111068
-1.86557e-05
-3.11878e-05
0.000117959
7.04231e-07
3.19974e-05
-6.60101e-06
3.86996e-05
-1.61802e-05
6.30985e-05
-2.74598e-05
7.05821e-05
-3.39211e-05
6.53178e-05
-3.79886e-05
5.34528e-05
-4.92463e-05
8.27484e-05
-6.98367e-05
7.88067e-05
-7.90334e-05
6.73759e-05
-7.21867e-05
4.92713e-05
-5.42215e-05
3.27282e-05
-3.51472e-05
3.11166e-05
-1.44977e-05
3.3398e-05
1.13177e-06
4.04127e-05
1.37923e-05
4.69883e-05
2.27192e-05
4.81034e-05
3.2171e-05
5.92511e-05
4.42069e-05
4.79553e-05
6.09794e-05
2.6462e-05
7.86885e-05
3.79395e-05
8.9495e-05
2.76979e-05
0.000101031
1.59605e-05
7.00746e-06
0.00011118
7.30132e-06
-5.40222e-06
-5.09831e-06
1.80842e-05
-5.41013e-05
4.9378e-05
-6.24652e-05
1.01472e-07
-1.45597e-05
-5.64815e-05
-5.35078e-05
2.76789e-05
-0.000104403
4.57508e-05
-0.000134492
2.36493e-05
-0.000134927
-2.80229e-07
-0.000119604
-1.38508e-05
-0.000104046
4.61478e-07
-9.69084e-05
3.28407e-05
-8.5682e-05
3.99048e-05
-7.17504e-05
4.23026e-05
-5.29892e-05
3.93217e-05
-3.41749e-05
4.06146e-05
-3.9349e-06
4.60143e-05
1.83974e-05
4.77189e-05
4.51217e-05
4.89371e-05
7.24206e-05
3.90696e-05
8.69772e-05
3.24641e-05
9.42755e-05
2.30422e-05
1.3733e-05
9.26065e-05
8.97773e-07
-6.30657e-06
1.1014e-05
7.81668e-06
7.4924e-05
-1.45661e-05
0.000134214
-5.97706e-05
0.00014439
-6.84266e-05
0.000130888
3.11684e-05
4.49286e-05
0.000111057
-5.16177e-05
9.67227e-05
-0.000101765
2.05959e-05
-0.000111029
-4.07341e-05
-0.000100532
-5.82399e-05
-8.82975e-05
-4.094e-05
-8.93024e-05
-1.39136e-05
-8.52592e-05
3.50756e-06
-7.21267e-05
5.84763e-06
-5.72099e-05
1.60389e-05
-4.10164e-05
2.56047e-05
-2.51941e-05
3.23168e-05
-5.64036e-06
4.18719e-05
2.58174e-06
2.07171e-05
1.71907e-05
8.96144e-06
2.51256e-05
-4.13134e-06
-1.92225e-05
3.03551e-05
-4.2617e-05
3.63105e-05
-5.08168e-05
1.60164e-05
-3.83337e-05
-2.70492e-05
-3.29511e-05
-6.51532e-05
-2.6939e-05
-7.44391e-05
2.263e-05
-1.85626e-05
3.27424e-05
0.000100425
3.80249e-05
9.13925e-05
5.67193e-05
1.88877e-06
5.66052e-05
-4.07306e-05
5.61788e-05
-5.81253e-05
5.11111e-05
-4.1523e-05
2.92349e-06
1.02428e-05
-3.87274e-05
4.13894e-06
-5.07839e-05
-2.82737e-05
-4.48035e-05
-3.93123e-05
-3.94945e-05
-3.53708e-05
-2.82359e-05
-3.47056e-05
-1.90359e-05
-2.4305e-05
-2.07679e-05
-3.10496e-05
-1.07751e-05
-4.82102e-05
-5.98894e-06
-5.05897e-05
-5.30291e-05
-6.34186e-06
2.17831e-05
1.45274e-05
4.62766e-05
-8.47707e-06
4.60535e-05
-2.6826e-05
1.96689e-05
-3.87686e-05
-1.24506e-05
-4.23197e-05
-1.04787e-05
-2.05346e-05
4.77469e-05
4.21986e-05
8.72061e-05
5.19333e-05
4.58947e-05
4.32002e-05
-1.00853e-05
1.52494e-05
-4.0344e-05
-2.78666e-05
-3.78252e-05
-4.40418e-05
9.90951e-06
-3.74934e-05
6.28009e-05
-4.8796e-05
8.7216e-05
-5.2939e-05
9.26141e-05
-4.52065e-05
9.61212e-05
-4.03457e-05
9.37084e-05
-3.71855e-05
7.5193e-05
-1.41715e-05
6.37024e-05
-2.27943e-05
4.51509e-05
-3.09086e-05
4.24115e-05
-4.81548e-05
-5.93725e-05
4.86583e-05
-1.16482e-06
1.56922e-05
-1.02099e-05
5.6801e-07
-1.41127e-05
-2.29232e-05
-1.70416e-05
-3.58397e-05
-2.12025e-05
-3.81588e-05
-1.56892e-05
-2.60478e-05
3.26476e-05
-6.13822e-06
6.59644e-05
1.86165e-05
7.27697e-05
3.63948e-05
6.52542e-05
2.2765e-05
3.90763e-05
-1.68875e-06
2.72204e-05
-3.2186e-05
2.88068e-05
-3.90798e-05
2.45256e-05
-4.45148e-05
2.29621e-05
-5.13755e-05
2.85592e-05
-5.08037e-05
3.48025e-05
-4.6589e-05
4.06101e-05
-4.29932e-05
6.12033e-05
-3.47648e-05
7.21237e-05
-3.37148e-05
7.93176e-05
-3.81026e-05
7.74747e-05
-4.63119e-05
-5.26305e-05
7.07327e-05
1.10633e-05
4.62892e-06
2.0015e-05
-8.38374e-06
1.39173e-05
-1.68255e-05
1.68344e-06
-2.36058e-05
-8.71143e-06
-2.77639e-05
-1.23325e-05
-2.24268e-05
-2.61075e-06
-1.586e-05
2.34992e-05
-7.49339e-06
4.39653e-05
1.59287e-05
4.89087e-05
1.78216e-05
4.42207e-05
2.99929e-06
3.88162e-05
-2.67816e-05
4.07273e-05
-4.09909e-05
4.3627e-05
-4.74146e-05
4.29261e-05
-5.06746e-05
4.38149e-05
-5.16926e-05
4.75154e-05
-5.02895e-05
4.91994e-05
-4.46773e-05
5.04819e-05
-3.60473e-05
4.55624e-05
-2.87954e-05
3.67128e-05
-2.9253e-05
2.77299e-05
-3.73291e-05
-4.46757e-05
1.97753e-05
3.01749e-06
1.61143e-06
4.03208e-06
-9.39833e-06
4.53871e-06
-1.73322e-05
1.78931e-06
-2.08564e-05
-3.21486e-06
-2.27598e-05
-5.53325e-06
-2.01084e-05
-4.0514e-06
-1.73418e-05
1.68732e-06
-1.32321e-05
1.85753e-05
-9.59337e-07
3.02879e-05
6.10898e-06
3.63966e-05
-3.10935e-06
3.278e-05
-2.3165e-05
2.58321e-05
-3.40431e-05
2.05939e-05
-4.21763e-05
1.65704e-05
-4.66512e-05
1.24793e-05
-4.76016e-05
8.99568e-06
-4.68059e-05
9.06079e-06
-4.47424e-05
1.36428e-05
-4.06293e-05
2.13167e-05
-3.64694e-05
2.66032e-05
-3.45395e-05
2.49607e-05
-3.56865e-05
-3.71265e-05
1.74114e-05
5.68385e-06
-4.07243e-06
7.37765e-06
-1.10921e-05
5.77266e-06
-1.57272e-05
3.19738e-06
-1.82811e-05
-5.23145e-07
-1.90393e-05
-3.44598e-06
-1.71856e-05
-5.02338e-06
-1.57644e-05
-5.19979e-06
-1.30557e-05
3.26532e-06
-9.42445e-06
1.42205e-05
-4.8462e-06
2.15546e-05
-1.04435e-05
1.99609e-05
-2.15713e-05
1.64818e-05
-3.05641e-05
1.28494e-05
-3.85439e-05
9.13536e-06
-4.29372e-05
5.85173e-06
-4.4318e-05
2.72534e-06
-4.36796e-05
-4.34257e-07
-4.15828e-05
-2.98457e-06
-3.8079e-05
-4.85037e-06
-3.46037e-05
-6.37127e-06
-3.30186e-05
-8.60719e-06
-3.34507e-05
-3.39081e-05
-1.18255e-05
3.59465e-06
-7.66708e-06
5.90601e-06
-1.34035e-05
5.70349e-06
-1.55247e-05
3.96047e-06
-1.65381e-05
1.63229e-06
-1.67111e-05
2.20931e-07
-1.57742e-05
-5.98788e-07
-1.49447e-05
-1.84494e-07
-1.347e-05
3.10106e-06
-1.271e-05
8.81426e-06
-1.05594e-05
1.21051e-05
-1.37343e-05
1.05436e-05
-2.00098e-05
7.49233e-06
-2.75128e-05
3.21013e-06
-3.42617e-05
-1.24843e-06
-3.84786e-05
-5.49876e-06
-4.00677e-05
-9.21638e-06
-3.9962e-05
-1.16836e-05
-3.91156e-05
-1.28231e-05
-3.69395e-05
-1.23191e-05
-3.51076e-05
-1.14409e-05
-3.38968e-05
-1.17109e-05
-3.31807e-05
-3.27676e-05
-1.28515e-05
1.79351e-06
-9.46059e-06
2.77822e-06
-1.43882e-05
2.51087e-06
-1.52573e-05
1.74233e-06
-1.57695e-05
9.93389e-07
-1.59621e-05
6.93098e-07
-1.54739e-05
8.83032e-07
-1.51346e-05
1.96988e-06
-1.45568e-05
3.81488e-06
-1.4555e-05
6.82285e-06
-1.35674e-05
8.73421e-06
-1.56456e-05
7.97059e-06
-1.92462e-05
5.04016e-06
-2.45824e-05
6.16255e-07
-2.98379e-05
-3.55353e-06
-3.43089e-05
-6.69599e-06
-3.69253e-05
-9.13444e-06
-3.75236e-05
-1.10923e-05
-3.71577e-05
-1.2677e-05
-3.53548e-05
-1.37374e-05
-3.40472e-05
-1.43062e-05
-3.33279e-05
-1.49503e-05
-3.25366e-05
-3.17334e-05
-1.59845e-05
1.07337e-06
-1.0534e-05
1.36021e-06
-1.4675e-05
1.23476e-06
-1.51318e-05
1.0486e-06
-1.55834e-05
9.29497e-07
-1.5843e-05
1.22748e-06
-1.57719e-05
1.85084e-06
-1.57579e-05
2.86857e-06
-1.55746e-05
4.13747e-06
-1.58239e-05
6.09026e-06
-1.55202e-05
7.39272e-06
-1.69481e-05
7.61293e-06
-1.94664e-05
6.38026e-06
-2.33498e-05
3.52413e-06
-2.69818e-05
-2.39941e-07
-3.05448e-05
-3.84188e-06
-3.33234e-05
-6.60961e-06
-3.47558e-05
-8.74289e-06
-3.50244e-05
-1.0615e-05
-3.34826e-05
-1.2665e-05
-3.19973e-05
-1.42805e-05
-3.17123e-05
-1.53471e-05
-3.14701e-05
-3.06895e-05
-1.63909e-05
6.1153e-07
-1.11455e-05
8.51281e-07
-1.49148e-05
9.75738e-07
-1.52563e-05
1.02686e-06
-1.56345e-05
1.13296e-06
-1.59491e-05
1.51034e-06
-1.61492e-05
2.06782e-06
-1.63154e-05
2.92985e-06
-1.64366e-05
3.90385e-06
-1.67979e-05
5.35314e-06
-1.69694e-05
6.47066e-06
-1.80656e-05
7.12971e-06
-2.01254e-05
6.63862e-06
-2.28587e-05
5.03987e-06
-2.5383e-05
2.57915e-06
-2.80841e-05
-5.05122e-07
-3.02391e-05
-3.73189e-06
-3.15291e-05
-6.87949e-06
-3.18768e-05
-9.2334e-06
-3.11287e-05
-1.17199e-05
-2.95108e-05
-1.42334e-05
-2.91989e-05
-1.6026e-05
-2.96773e-05
-2.93105e-05
-1.7405e-05
4.25999e-07
-1.15715e-05
7.29785e-07
-1.52186e-05
9.68423e-07
-1.54949e-05
1.13965e-06
-1.58057e-05
1.24718e-06
-1.60566e-05
1.42664e-06
-1.63287e-05
1.70409e-06
-1.65929e-05
2.16404e-06
-1.68965e-05
2.71312e-06
-1.7347e-05
3.74459e-06
-1.80009e-05
4.70205e-06
-1.90231e-05
5.13602e-06
-2.05594e-05
4.58436e-06
-2.2307e-05
3.36863e-06
-2.41673e-05
1.41814e-06
-2.61336e-05
-1.4127e-06
-2.74083e-05
-4.5049e-06
-2.84368e-05
-7.34787e-06
-2.90339e-05
-9.71115e-06
-2.87654e-05
-1.18509e-05
-2.7371e-05
-1.41852e-05
-2.68646e-05
-1.5952e-05
-2.79105e-05
-2.81998e-05
-1.70627e-05
3.69087e-07
-1.19406e-05
6.78203e-07
-1.55277e-05
8.47996e-07
-1.56647e-05
9.21427e-07
-1.58791e-05
9.10657e-07
-1.60459e-05
8.47704e-07
-1.62658e-05
8.42125e-07
-1.65873e-05
9.14753e-07
-1.69692e-05
1.07962e-06
-1.75118e-05
1.42323e-06
-1.83445e-05
1.75614e-06
-1.9356e-05
1.75477e-06
-2.0558e-05
1.26331e-06
-2.18156e-05
2.67697e-07
-2.31717e-05
-1.52002e-06
-2.43459e-05
-3.91034e-06
-2.5018e-05
-6.29745e-06
-2.60497e-05
-8.52287e-06
-2.68085e-05
-1.07651e-05
-2.65233e-05
-1.25725e-05
-2.55636e-05
-1.40381e-05
-2.5399e-05
-1.53621e-05
-2.65865e-05
-2.691e-05
-1.66519e-05
3.08628e-07
-1.22492e-05
4.04809e-07
-1.56239e-05
4.3151e-07
-1.56914e-05
4.5458e-07
-1.59022e-05
4.80541e-07
-1.60718e-05
4.99477e-07
-1.62847e-05
5.1935e-07
-1.66072e-05
5.28703e-07
-1.69785e-05
5.08202e-07
-1.74913e-05
4.12782e-07
-1.82491e-05
2.14846e-07
-1.9158e-05
-2.39029e-07
-2.01042e-05
-1.06598e-06
-2.09886e-05
-2.12639e-06
-2.21113e-05
-3.47346e-06
-2.29989e-05
-4.75034e-06
-2.37411e-05
-6.36049e-06
-2.44396e-05
-8.40763e-06
-2.47613e-05
-1.02953e-05
-2.46356e-05
-1.17323e-05
-2.41266e-05
-1.2923e-05
-2.42082e-05
-1.42273e-05
-2.52823e-05
-2.56355e-05
-1.55019e-05
1.73535e-07
-1.24227e-05
2.2581e-07
-1.56761e-05
2.95274e-07
-1.57609e-05
3.54718e-07
-1.59617e-05
4.18986e-07
-1.61361e-05
4.92151e-07
-1.63578e-05
5.13363e-07
-1.66284e-05
4.78572e-07
-1.69437e-05
3.48837e-07
-1.73616e-05
5.05185e-08
-1.79508e-05
-3.69416e-07
-1.87381e-05
-9.86593e-07
-1.9487e-05
-1.81321e-06
-2.0162e-05
-2.87173e-06
-2.10527e-05
-4.04437e-06
-2.18262e-05
-5.24027e-06
-2.25452e-05
-6.81719e-06
-2.28627e-05
-8.66619e-06
-2.29123e-05
-1.03444e-05
-2.29574e-05
-1.18304e-05
-2.26406e-05
-1.31867e-05
-2.28519e-05
-1.47224e-05
-2.37466e-05
-2.40036e-05
-1.63543e-05
9.82292e-08
-1.2521e-05
1.76572e-07
-1.57545e-05
2.63102e-07
-1.58474e-05
2.81533e-07
-1.59801e-05
2.85507e-07
-1.61401e-05
2.7441e-07
-1.63467e-05
2.51225e-07
-1.66052e-05
2.26767e-07
-1.69193e-05
1.64257e-07
-1.72991e-05
-1.01431e-07
-1.76851e-05
-5.82625e-07
-1.82569e-05
-1.1732e-06
-1.88964e-05
-1.80808e-06
-1.95271e-05
-2.79572e-06
-2.00651e-05
-3.9628e-06
-2.06591e-05
-5.37381e-06
-2.11341e-05
-6.78398e-06
-2.14525e-05
-8.03814e-06
-2.16582e-05
-9.36493e-06
-2.16306e-05
-1.05778e-05
-2.14277e-05
-1.18162e-05
-2.16136e-05
-1.34664e-05
-2.20964e-05
-2.19166e-05
-1.55534e-05
8.75003e-08
-1.26085e-05
5.46265e-08
-1.57216e-05
-1.11427e-08
-1.57816e-05
-8.88948e-08
-1.59023e-05
-1.7633e-07
-1.60526e-05
-2.76953e-07
-1.62461e-05
-3.9406e-07
-1.64881e-05
-5.30308e-07
-1.6783e-05
-7.01244e-07
-1.71281e-05
-9.44105e-07
-1.74422e-05
-1.40302e-06
-1.7798e-05
-2.00174e-06
-1.82977e-05
-2.66887e-06
-1.886e-05
-3.43165e-06
-1.93023e-05
-4.40469e-06
-1.96861e-05
-5.71514e-06
-1.98237e-05
-7.12834e-06
-2.00393e-05
-8.47487e-06
-2.03116e-05
-9.85038e-06
-2.02551e-05
-1.11522e-05
-2.01258e-05
-1.24522e-05
-2.03136e-05
-1.40542e-05
-2.04944e-05
-2.01164e-05
-1.58545e-05
-1.16722e-09
-1.26073e-05
-7.00611e-08
-1.56527e-05
-1.39358e-07
-1.57123e-05
-2.23765e-07
-1.58179e-05
-3.31242e-07
-1.59452e-05
-4.74385e-07
-1.6103e-05
-6.64921e-07
-1.62975e-05
-8.96655e-07
-1.65513e-05
-1.18633e-06
-1.68385e-05
-1.5464e-06
-1.70822e-05
-2.01808e-06
-1.73263e-05
-2.61949e-06
-1.76963e-05
-3.43552e-06
-1.8044e-05
-4.29033e-06
-1.84475e-05
-5.23686e-06
-1.87395e-05
-6.08328e-06
-1.89772e-05
-6.93821e-06
-1.91843e-05
-8.15294e-06
-1.90969e-05
-9.37662e-06
-1.90314e-05
-1.05423e-05
-1.89601e-05
-1.19217e-05
-1.89342e-05
-1.36186e-05
-1.87974e-05
-1.85873e-05
-1.51477e-05
3.68169e-08
-1.26441e-05
-1.57499e-08
-1.56001e-05
-9.46164e-08
-1.56335e-05
-2.00702e-07
-1.57118e-05
-3.37855e-07
-1.5808e-05
-4.99823e-07
-1.5941e-05
-6.93394e-07
-1.6104e-05
-9.51374e-07
-1.62933e-05
-1.31787e-06
-1.6472e-05
-1.70947e-06
-1.66906e-05
-2.06754e-06
-1.69682e-05
-2.55342e-06
-1.72104e-05
-3.20304e-06
-1.73943e-05
-4.07799e-06
-1.75725e-05
-5.02231e-06
-1.77952e-05
-6.03339e-06
-1.79662e-05
-7.29484e-06
-1.79228e-05
-8.5072e-06
-1.78845e-05
-9.57323e-06
-1.79654e-05
-1.06874e-05
-1.7846e-05
-1.20268e-05
-1.75948e-05
-1.34517e-05
-1.73725e-05
-1.71881e-05
-1.48508e-05
-7.03036e-08
-1.25738e-05
-1.9761e-07
-1.54728e-05
-3.16244e-07
-1.55148e-05
-4.54629e-07
-1.55734e-05
-6.18507e-07
-1.56441e-05
-8.24911e-07
-1.57346e-05
-1.0671e-06
-1.58618e-05
-1.35817e-06
-1.60022e-05
-1.68522e-06
-1.61449e-05
-2.09465e-06
-1.62811e-05
-2.63303e-06
-1.64299e-05
-3.24779e-06
-1.65956e-05
-3.83932e-06
-1.68028e-05
-4.57506e-06
-1.68368e-05
-5.46386e-06
-1.69064e-05
-6.38717e-06
-1.70428e-05
-7.23178e-06
-1.70782e-05
-8.04769e-06
-1.70686e-05
-9.14253e-06
-1.68705e-05
-1.03814e-05
-1.66071e-05
-1.16511e-05
-1.63251e-05
-1.29398e-05
-1.60839e-05
-1.57349e-05
-1.4393e-05
-5.45187e-08
-1.25193e-05
-1.72064e-07
-1.53553e-05
-2.9507e-07
-1.53918e-05
-4.31472e-07
-1.5437e-05
-5.85384e-07
-1.54902e-05
-7.72135e-07
-1.55478e-05
-1.00778e-06
-1.56261e-05
-1.29498e-06
-1.5715e-05
-1.62904e-06
-1.58109e-05
-2.03124e-06
-1.58789e-05
-2.55145e-06
-1.59096e-05
-3.16744e-06
-1.59796e-05
-3.88135e-06
-1.60889e-05
-4.52928e-06
-1.61888e-05
-5.14251e-06
-1.62931e-05
-5.94154e-06
-1.62438e-05
-6.91312e-06
-1.61066e-05
-8.11697e-06
-1.58647e-05
-9.28008e-06
-1.57074e-05
-1.03163e-05
-1.55709e-05
-1.13266e-05
-1.53147e-05
-1.25385e-05
-1.48719e-05
-1.4428e-05
-1.38455e-05
-8.51979e-08
-1.24341e-05
-2.28e-07
-1.52125e-05
-3.8198e-07
-1.52378e-05
-5.65775e-07
-1.52532e-05
-7.7978e-07
-1.52762e-05
-1.01478e-06
-1.53128e-05
-1.29104e-06
-1.53499e-05
-1.61923e-06
-1.53868e-05
-1.99639e-06
-1.54337e-05
-2.37489e-06
-1.55004e-05
-2.73682e-06
-1.55477e-05
-3.16276e-06
-1.55537e-05
-3.74058e-06
-1.55111e-05
-4.47993e-06
-1.54495e-05
-5.42904e-06
-1.5344e-05
-6.33709e-06
-1.53357e-05
-7.18551e-06
-1.52582e-05
-7.93564e-06
-1.51146e-05
-8.72395e-06
-1.49191e-05
-9.75515e-06
-1.45397e-05
-1.09762e-05
-1.40937e-05
-1.21349e-05
-1.37132e-05
-1.32716e-05
-1.32913e-05
-8.38109e-08
-1.23503e-05
-2.10578e-07
-1.50857e-05
-3.37042e-07
-1.51114e-05
-4.7848e-07
-1.51118e-05
-6.46662e-07
-1.5108e-05
-8.5265e-07
-1.51069e-05
-1.09978e-06
-1.51027e-05
-1.39315e-06
-1.50934e-05
-1.75406e-06
-1.50728e-05
-2.22168e-06
-1.50328e-05
-2.78822e-06
-1.49812e-05
-3.40732e-06
-1.49346e-05
-4.0083e-06
-1.49101e-05
-4.59584e-06
-1.48619e-05
-5.12609e-06
-1.48138e-05
-5.75278e-06
-1.47091e-05
-6.5402e-06
-1.44708e-05
-7.49552e-06
-1.41592e-05
-8.60251e-06
-1.38121e-05
-9.63643e-06
-1.35058e-05
-1.05463e-05
-1.31838e-05
-1.15704e-05
-1.26891e-05
-1.21257e-05
-1.27163e-05
-1.07306e-07
-1.22429e-05
-2.6053e-07
-1.49325e-05
-4.20579e-07
-1.49513e-05
-6.03769e-07
-1.49286e-05
-8.09532e-07
-1.49022e-05
-1.04555e-06
-1.48708e-05
-1.31646e-06
-1.48318e-05
-1.62391e-06
-1.4786e-05
-1.96257e-06
-1.47341e-05
-2.31436e-06
-1.4681e-05
-2.66983e-06
-1.46257e-05
-3.0779e-06
-1.45265e-05
-3.5894e-06
-1.43986e-05
-4.19835e-06
-1.4253e-05
-4.95158e-06
-1.40605e-05
-5.82046e-06
-1.38402e-05
-6.65972e-06
-1.36315e-05
-7.45706e-06
-1.33619e-05
-8.20369e-06
-1.30654e-05
-9.05032e-06
-1.26592e-05
-1.00617e-05
-1.21724e-05
-1.10748e-05
-1.16759e-05
-1.11082e-05
-1.20924e-05
-7.91845e-08
-1.21638e-05
-1.89466e-07
-1.48222e-05
-3.06682e-07
-1.48341e-05
-4.47615e-07
-1.47877e-05
-6.20496e-07
-1.47294e-05
-8.34364e-07
-1.4657e-05
-1.09394e-06
-1.45722e-05
-1.40159e-06
-1.44783e-05
-1.76059e-06
-1.43751e-05
-2.1809e-06
-1.42607e-05
-2.67092e-06
-1.41356e-05
-3.19976e-06
-1.39976e-05
-3.75275e-06
-1.38456e-05
-4.33009e-06
-1.36756e-05
-4.90907e-06
-1.34815e-05
-5.49527e-06
-1.3254e-05
-6.163e-06
-1.29638e-05
-6.92152e-06
-1.26034e-05
-7.79682e-06
-1.21901e-05
-8.69223e-06
-1.17637e-05
-9.56072e-06
-1.13039e-05
-1.04787e-05
-1.07579e-05
-1.01368e-05
-1.14501e-05
-8.58985e-08
-1.20779e-05
-2.10705e-07
-1.46974e-05
-3.41692e-07
-1.47031e-05
-4.95173e-07
-1.46342e-05
-6.72233e-07
-1.45523e-05
-8.77568e-07
-1.44516e-05
-1.11555e-06
-1.43343e-05
-1.39041e-06
-1.42035e-05
-1.70407e-06
-1.40614e-05
-2.05688e-06
-1.39079e-05
-2.45184e-06
-1.37407e-05
-2.88422e-06
-1.35653e-05
-3.36549e-06
-1.33643e-05
-3.90963e-06
-1.31315e-05
-4.52213e-06
-1.2869e-05
-5.20403e-06
-1.25721e-05
-5.92577e-06
-1.2242e-05
-6.6514e-06
-1.18777e-05
-7.37718e-06
-1.14644e-05
-8.1532e-06
-1.09877e-05
-8.99967e-06
-1.04574e-05
-9.87618e-06
-9.88141e-06
-9.23693e-06
-1.07761e-05
-4.55419e-08
-1.20323e-05
-1.3855e-07
-1.46044e-05
-2.39916e-07
-1.46018e-05
-3.6418e-07
-1.45099e-05
-5.13796e-07
-1.44027e-05
-6.94587e-07
-1.42708e-05
-9.15982e-07
-1.41129e-05
-1.18247e-06
-1.3937e-05
-1.49593e-06
-1.3748e-05
-1.85573e-06
-1.35481e-05
-2.26132e-06
-1.33351e-05
-2.71865e-06
-1.31079e-05
-3.21469e-06
-1.28682e-05
-3.73912e-06
-1.26071e-05
-4.29238e-06
-1.23158e-05
-4.87433e-06
-1.19901e-05
-5.49337e-06
-1.1623e-05
-6.16354e-06
-1.12076e-05
-6.884e-06
-1.07439e-05
-7.63594e-06
-1.02358e-05
-8.41333e-06
-9.68006e-06
-9.22684e-06
-9.0679e-06
-8.39155e-06
-1.00722e-05
-2.89519e-08
-1.20034e-05
-1.19774e-07
-1.45135e-05
-2.17994e-07
-1.45035e-05
-3.34397e-07
-1.43935e-05
-4.68366e-07
-1.42687e-05
-6.19547e-07
-1.41196e-05
-7.91326e-07
-1.39411e-05
-9.92961e-07
-1.37353e-05
-1.24135e-06
-1.34996e-05
-1.55288e-06
-1.32365e-05
-1.92653e-06
-1.29614e-05
-2.35429e-06
-1.26802e-05
-2.83118e-06
-1.23914e-05
-3.34848e-06
-1.20898e-05
-3.8996e-06
-1.17647e-05
-4.48071e-06
-1.1409e-05
-5.08989e-06
-1.10138e-05
-5.71998e-06
-1.05775e-05
-6.37409e-06
-1.00898e-05
-7.06142e-06
-9.54845e-06
-7.78721e-06
-8.95427e-06
-8.54746e-06
-8.30763e-06
-7.60164e-06
-9.33738e-06
1.03419e-08
-1.20137e-05
-9.40503e-08
-1.44092e-05
-2.03407e-07
-1.43942e-05
-3.21595e-07
-1.42753e-05
-4.52024e-07
-1.41383e-05
-5.92623e-07
-1.3979e-05
-7.40204e-07
-1.37935e-05
-9.0608e-07
-1.35694e-05
-1.09943e-06
-1.33062e-05
-1.32862e-06
-1.30073e-05
-1.60992e-06
-1.26801e-05
-1.95717e-06
-1.23329e-05
-2.37713e-06
-1.19714e-05
-2.8717e-06
-1.15952e-05
-3.42031e-06
-1.1216e-05
-4.00034e-06
-1.0829e-05
-4.59147e-06
-1.04227e-05
-5.19409e-06
-9.97489e-06
-5.81465e-06
-9.46922e-06
-6.4578e-06
-8.9053e-06
-7.12799e-06
-8.28408e-06
-7.8319e-06
-7.60373e-06
-6.86482e-06
-8.56871e-06
2.40243e-08
-1.20377e-05
-1.34806e-07
-1.42503e-05
-2.98786e-07
-1.42302e-05
-4.54601e-07
-1.41195e-05
-6.11788e-07
-1.39811e-05
-7.74336e-07
-1.38165e-05
-9.40284e-07
-1.36276e-05
-1.1087e-06
-1.3401e-05
-1.28279e-06
-1.31322e-05
-1.46733e-06
-1.28228e-05
-1.67461e-06
-1.24728e-05
-1.91611e-06
-1.20914e-05
-2.1983e-06
-1.16892e-05
-2.53456e-06
-1.12589e-05
-2.93581e-06
-1.08148e-05
-3.41719e-06
-1.03476e-05
-3.97831e-06
-9.86158e-06
-4.58777e-06
-9.36543e-06
-5.19968e-06
-8.85733e-06
-5.8084e-06
-8.29657e-06
-6.42991e-06
-7.66258e-06
-7.0809e-06
-6.95272e-06
-6.18063e-06
-7.76511e-06
-1.08339e-08
-1.20269e-05
-2.85076e-07
-1.39761e-05
-5.61662e-07
-1.39536e-05
-8.10194e-07
-1.3871e-05
-1.0406e-06
-1.37507e-05
-1.25765e-06
-1.35995e-05
-1.46176e-06
-1.34234e-05