/*--------------------------------*- C++ -*----------------------------------*\
| =========                 |                                                 |
| \\      /  F ield         | OpenFOAM: The Open Source CFD Toolbox           |
|  \\    /   O peration     | Version:  2.4.0                                 |
|   \\  /    A nd           | Web:      www.OpenFOAM.org                      |
|    \\/     M anipulation  |                                                 |
\*---------------------------------------------------------------------------*/
FoamFile
{
    version     2.0;
    format      ascii;
    class       volScalarField;
    location    "0.55";
    object      rho;
}
// * * * * * * * * * * * * * * * * * * * * * * * * * * * * * * * * * * * * * //

dimensions      [1 -3 0 0 0 0 0];

internalField   nonuniform List<scalar> 
2268
(
13529
13529
13529
13529
13529
13529
13529
13529
13529
13529
13529
13529
13529
13529
13529
13529
13529
13529
13529
13529
13529
13529
13528.9
13529
13529
13529
13529
13529
13529
13529
13529
13529
13529
13529
13529
13529
13529
13529
13529
13529
13529
13529
13529
13529
13529
13528.8
13528.5
13528.4
13528.7
13528.1
13528.4
13528.4
13527.8
13527.7
13527.6
13528.2
13528.2
13528.4
13528.8
13529
13529
13529
13529
13529
13529
13529
13529
13529
13528.8
13319.6
13298.7
13333.4
13253.3
13273.4
13261.1
13173.2
13164.7
13135.5
13199.1
13192.7
13262.9
13392.7
13505.3
13526.9
13528.8
13529
13529
13529
13529
13529
13529
13528.8
8048.39
7860.57
8053.36
7528.8
7569.57
7339.75
6777.93
6640.16
6357.78
6436.98
6347.12
6575.75
7194.94
8639.14
11110.1
13176.8
13516.2
13528.7
13529
13529
13529
13529
13528.8
1106.14
1091.65
1100.42
1069.35
1068.51
1054.9
1033.11
1024.81
1017.72
1014.35
1010.68
1008.59
1008.16
1031.43
1849.54
5567.74
11717.4
13437.6
13526.4
13528.8
13529
13529
13528.8
1000.12
1000.11
1000.11
1000.11
1000.1
1000.09
1000.09
1000.09
1000.09
1000.09
1000.09
1000.09
1000.09
1000.09
1004.15
1191.47
4195.19
12270.4
13474.8
13527.1
13528.9
13529
13528.8
1000.11
1000.11
1000.11
1000.11
1000.1
1000.09
1000.09
1000.09
1000.09
1000.09
1000.09
1000.09
1000.09
1000.1
1000.1
1000.84
1212.85
7577.67
13323.5
13523.9
13528.6
13529
13528.7
1180.81
1754.13
1860.73
1881.95
1903.5
2231.76
2887.09
3594.16
4264.33
5056.31
5399.01
5592.41
5680.89
5734.21
5787.13
6168.39
7116.24
7151.67
7162.53
791.078
1137.29
1738.43
1555.2
1412.58
1423.32
1621.14
1839.04
1948.52
2084.24
2388.84
2802.21
2840.59
2701.2
1880.16
1136.48
1626.25
6698.19
7172.33
973.893
1741.24
2422.77
2337.7
2238.57
2319.68
2508.21
2587.05
2515.2
2395.11
2398.2
2548.87
2476.03
1925.12
994.968
643.889
547.589
1495.06
7181.66
1358.89
2452.71
3570.48
3495.69
3331.7
3332.22
3406.36
3356.5
3144.4
2694.48
2515.99
2679.06
2514.89
1633.62
779.171
662.778
532.555
775.776
7190.84
2327.84
3644.54
5157.79
4963.95
4568.27
4333.61
4117.76
3836.4
3414.83
2667.07
2504.12
2679.5
2295.05
1160.69
702.425
661.705
522.762
690.369
6353.36
4401.69
5552.93
7080.38
6569.53
5756.04
5114.41
4516.02
4042.75
3458.26
2524.94
2519.15
2666.43
2122.99
690.375
542.653
530.605
513.273
685.084
5642.58
7332.8
8389.81
8375.09
7490.85
6228.21
5216.16
4304.18
3473.76
2572.47
2524.06
2478.95
2670.28
1468.28
104.186
235.529
386.707
366.517
742.923
5257.85
9728.29
9792.67
8197.99
6177.62
4914.45
3773.44
2774.31
1990.3
2076.6
2322.9
2271.04
2175.92
1884.27
264.434
35.8396
72.2154
51.3169
679.53
4685.66
1000.1
1000.09
1000.09
1000.09
1000.08
1000.06
1000.07
1000.06
1000.05
1000.05
1000.06
1000.07
1000.08
1000.1
1000.1
1000.11
1006.88
2019.2
9265.46
13294.7
13518.6
13522.4
13526.2
1000.01
1000.01
1000.01
1000.01
1000.01
1000.01
1000
999.853
999.603
999.377
999.593
999.777
999.958
1000
1000.02
1000.03
1000.06
1035.61
2215.59
6072.6
10599.6
11964.5
12279.6
1000
1000
1000
1000
1000
999.956
998.183
985.985
975.25
968.996
976.193
984.247
994.17
998.606
999.747
999.95
1000
1000.64
1051.83
1367.83
1702.55
2243.17
3116.82
999.755
999.631
998.637
999.387
999.75
995.251
952.079
853.191
795.007
769.395
790.818
828.304
885.146
937.954
979.971
994.916
998.777
999.779
1001.78
1005.92
1012.63
1017.63
1019.8
610.579
640.394
735.329
882.158
933.585
879.39
753.053
608.341
560.904
549.864
556.071
568.531
595.741
642.72
714.132
831.168
924.928
964.679
984.758
985.286
984.262
967.894
922.032
1.43086
5.44358
1.49266
12.5715
64.6159
118.224
151.096
180.284
231.983
321.935
419.466
472.641
486.815
492.777
504.427
518.734
589.657
651.65
752.932
716.932
716.802
687.191
637.356
1.00003
1.00051
1.00044
1.00356
1.21587
2.66427
4.069
1.32947
1.142
4.09004
28.578
104.69
196.885
291.484
364.252
419.607
449.089
467.35
473.429
445.881
434.404
385.268
314.522
1.00005
1.00003
1.00009
1.00043
1.00097
1.00687
1.01165
1.00066
1.00007
1.00004
1.00012
1.00121
1.02057
1.50753
6.55154
24.7315
53.0448
87.8225
111.573
51.8774
40.161
13.1807
4.06467
1.00006
1.00004
1.00005
1.00015
1.00006
1.00001
1.00002
1.00005
1.00003
1.00002
1.00002
1.00002
1.00001
1.00002
1.00003
1.00006
1.0001
1.00013
1.00014
1.00015
1.00016
1.00017
1.0001
1.00005
1.00003
1.00003
1.00002
1.00001
1
1.00001
1.00001
1.00001
1.00002
1.00003
1.00002
1.00002
1.00003
1.0001
1.00013
1.00012
1.0001
1.00007
1.00004
1.00003
1.00003
1.00003
1.00005
1.00002
1.00001
1
0.999999
1
1
1.00001
1.00002
1.00006
1.00009
1.00005
1.00004
1.00012
1.00031
1.00031
1.00027
1.00022
1.00013
1.00004
1.00003
1.00003
1.00003
1.00003
1.00001
1
0.999999
0.999999
0.999999
1
1.00001
1.00003
1.00008
1.00008
1.00002
1.00005
1.00031
1.00031
1.00021
1.00013
1.00013
1.00011
1.00007
1.00003
1.00005
1.00004
1
1
0.999999
0.999999
0.999999
0.999999
0.999999
1
1
1.00002
1
1
1.00006
1.00016
1.0001
1.00003
1.00002
1.00002
1.00001
1.00003
1.00005
1.00004
1.00002
0.999999
0.999999
0.999999
0.999999
0.999999
0.999999
0.999999
1
1
1
1
1.00001
1.00003
1.00002
1.00002
1.00002
1.00002
1.00002
1.00001
1.00001
1.00002
1.00001
1
0.999999
0.999999
0.999999
0.999999
0.999999
0.999999
1
1
1
1
1
1.00001
1.00001
1.00001
1.00003
1.00006
1.00004
1.00003
1.00001
1.00001
1
1
1
0.999999
0.999999
0.999999
0.999999
0.999999
1
1
1
1
1
1
1
1.00001
1.00003
1.00006
1.00006
1.00006
1.00003
1.00002
1
1
1
1
0.999999
0.999999
0.999999
0.999999
0.999999
1
1
1
1
1
1
1
1.00001
1.00003
1.00006
1.00006
1.00004
1.00003
1.00002
1.00001
1
1
1
0.999999
0.999999
0.999999
0.999999
1
1
1
1
1
1
1
1
1.00001
1.00002
1.00004
1.00004
1.00004
1.00003
1.00001
1.00001
1
1
1
0.999999
0.999999
0.999999
0.999999
1
1
1
1
1
1
1
1
1
1.00001
1.00001
1.00002
1.00002
1.00002
1.00001
1.00001
1
1
1
0.999999
0.999999
0.999999
1
1
1
1
1
1
1
1
1
1
1
1.00001
1.00001
1.00001
1.00001
1.00001
1
1
1
1
0.999999
0.999999
0.999999
1
1
1
1
1
1
1
1
1
1
1
1
1
1
1
1
1
1
1
1
0.999999
0.999999
0.999999
1
1
1
1
1
1
1
1
1
1
0.999999
1
1
1
1
1
0.999999
0.999999
0.999999
1
0.999999
0.999999
1
1
1
1
1
1
1
1
1
1
1
1
0.999999
0.999999
0.999999
0.999999
0.999999
0.999999
0.999999
0.999999
0.999999
0.999999
0.999999
1
1
1
1
1
1
1
1
1
1
1
1
1
0.999999
0.999999
0.999999
0.999998
0.999998
0.999998
0.999998
0.999999
1
1
1
1
1
1
1
1
1
1
1
1
1
1
0.999999
0.999999
0.999999
0.999999
0.999998
0.999998
0.999998
0.999998
0.999998
0.999999
1
1
1
1
1
1
1
1
1
1
1
1
1
1
0.999999
0.999999
0.999999
0.999999
0.999998
0.999998
0.999997
0.999998
1
1
1
1
1
1
1
1
1
1
1
1
1
1
1
1
0.999999
0.999999
0.999999
0.999998
0.999998
0.999998
0.999997
1
1
1
1
1
1
1
1
1
1
1
1
1
1
1
1
1
0.999999
0.999999
0.999999
0.999998
0.999997
0.999998
1
1
1
1
1
1
1
1
1
1
1
1
1
1
1
1
1
0.999999
0.999999
0.999999
0.999998
0.999998
0.999997
1
1
1
1
1
1
1
1
1
1
1
1
1
1
1
1
1
0.999999
0.999999
0.999999
0.999999
0.999998
0.999998
1
1
1
1
1
1
1
1
1
1
1
1
1
1
1
1
1
0.999999
0.999999
0.999999
0.999999
0.999999
0.999998
1
1
1
1
1
1
1
1
1
1
1
1
1
1
1
1
1
0.999999
0.999999
0.999999
0.999999
0.999999
0.999999
1
1
1
1
1
1
1
1
1
1
1
1
1
1
1
1
0.999999
0.999999
0.999999
0.999999
0.999999
0.999999
0.999999
1
1
1
1
1
1
1
1
1
1
1
1
1
1
1
0.999999
0.999999
0.999999
0.999999
1
1
0.999999
0.999999
1
1
1
1
1
1
1
1
1
1
1
1
1
1
1
1
0.999999
0.999999
0.999999
0.999999
1
1
0.999999
1
1
1
1
1
1
1
1
1
1
1
1
1
1
1
0.999999
0.999999
0.999999
0.999999
0.999999
1
1
1
1
1
1
1
1
1
1
1
1
1
1
1
1
1
0.999999
0.999999
0.999999
0.999999
0.999999
1
1
1
0.999999
1
1
1
1
1
1
1
1
1
1
1
1
1
1
1
0.999999
0.999999
0.999999
0.999999
1
1
1
1
1
1
1
1
1
1
1
1
1
1
1
1
1
1
0.999999
1
0.999999
1
1
1
1
1
0.999999
1
1
1
1
1
1
1
1
1
1
1
1
1
1
1
1
1
1
1
1
1
1
1
1
1
1
1
1
1
1
1
1
1
1
1
1
1
1
1
1
1
1
1
1
1
1
1
1
1
1
1
1
1
1
1
1
1
1
1
1
1
1
1
1
1
1
1
1
1
13515.4
13503.4
13463.4
13370.5
11675.9
11219.8
10421.1
9332.27
3037.41
2872.04
2552.94
2070.51
1013.36
1005.16
991.777
973.784
874.712
842.535
807.665
770.078
589.974
550.261
504.865
465.902
249.307
208.853
157.322
79.7992
1.66
1.14235
1.0203
1.00417
1.00011
1.00017
1.00017
1.00014
1.00002
1.00002
1.00003
1.00004
1.00004
1.00003
1.00003
1.00002
1.00003
1.00002
1.00002
1.00002
1.00001
1.00001
1.00001
1.00002
1
1.00001
1.00001
1.00001
1
1
1
1
1
1
1
1
1
0.999999
0.999999
0.999999
0.999999
0.999999
0.999999
0.999999
1
1
0.999999
0.999999
1
1
1
1
1
1
1
1
1
1
1
1
1
1
1
1
1
1
1
1
0.999999
1
1
0.999999
0.999998
0.999999
0.999999
0.999999
0.999998
0.999999
0.999999
0.999999
0.999998
0.999998
0.999999
0.999998
0.999998
0.999999
0.999998
0.999998
0.999998
0.999998
0.999998
0.999998
0.999999
0.999999
0.999998
0.999998
0.999999
0.999998
0.999999
0.999998
0.999999
0.999999
0.999999
0.999998
0.999999
0.999999
0.999999
0.999998
1
1
0.999999
0.999999
1
1
1
0.999999
1
1
1
0.999999
1
1
1
1
1
1
1
1
0.999999
0.999999
1
1
1
1
1
1
1
1
1
1
11963.7
9144.08
4992.61
2992.43
2326.33
1756.77
1376.73
1087.97
949.778
885.86
889.211
1052.75
2102.2
1869.19
1031.53
164.37
51.5377
487.532
4083.53
6129.83
3275.52
2120.9
1570.25
1130.46
977.046
893.226
867.243
841.187
820.81
806.364
807.117
875.711
2069.88
1906.84
1628.79
268.769
734.036
3025.94
1676.68
1165.84
983.74
907.508
864.594
849.055
849.109
852.25
852.971
853.056
850.947
848.548
842.125
869.162
1257.72
1653.64
1186.34
910.516
2093.19
928.04
840.465
766.349
709.584
678.086
676.803
690.285
716.447
732.975
742.683
757.623
781.157
787.488
794.72
811.996
898.817
1111.76
944.673
1564.82
699.252
584.238
437.625
279.948
200.45
245.989
325.754
375.05
400.769
450.495
488.318
517.568
590.445
682.013
714.062
746.188
765.249
732.647
1276.77
372.616
210.472
39.5472
3.68064
1.19528
1.50565
4.79884
19.5065
28.7365
33.3277
28.7871
21.9252
48.696
153.392
436.897
625.649
681.885
652.637
1060.14
16.5367
1.67202
1.00859
1.00037
1.00044
1.01792
1.12324
1.53396
3.26717
4.08784
4.05753
4.23107
5.42302
13.5767
222.297
509.683
618.991
629.364
919.96
1.00121
1.00017
1.00005
1.00006
1.00012
1.0005
1.69106
16.341
61.9332
157.687
341.304
346.344
321.602
274.119
231.572
434.788
576.439
605.064
821.868
1.00008
1.00005
1.00005
1.00013
1.00038
1.02681
7.9079
132.431
400.458
490.114
498.319
499.006
496.382
480.909
355.855
366.271
541.481
583.579
744.59
1.00004
1.00006
1.00017
1.00032
1.00075
1.20148
22.3087
220.119
465.14
499.245
500.225
500.291
500.082
486.088
396.255
367.326
446.291
565.793
674.73
1.00003
1.00012
1.00027
1.00045
1.00081
1.10401
11.1624
125.567
376.84
487.119
499.559
500.262
500.325
497.215
457.815
387.29
467.303
550.834
611.952
1.00004
1.00013
1.00022
1.00031
1.00065
1.00244
1.20629
10.6617
115.471
367.822
487.319
499.866
500.297
500.273
497.498
490.327
509.671
535.014
564.004
1.00003
1.00007
1.00007
1.00013
1.00022
1.00053
1.00122
1.05925
8.18669
109.812
369.302
488.093
500.014
500.464
500.734
503.6
510.158
520.163
532.131
1.00001
1.00001
1.00003
1.00005
1.00008
1.00017
1.00047
1.00146
1.04815
5.19253
82.2105
335.157
487.191
500.121
500.526
500.952
503.789
508.106
511.665
1.00001
1.00001
1.00001
1.00002
1.00004
1.00008
1.00016
1.0004
1.00167
1.02809
3.09847
48.3388
286.844
480.192
500.132
500.508
500.825
501.642
501.878
1
1
1
1.00001
1.00002
1.00004
1.0001
1.00019
1.0004
1.0017
1.00864
1.85772
29.8427
232.694
464.146
499.612
500.096
499.937
499.805
0.999999
0.999999
1
1
1.00001
1.00003
1.00006
1.00014
1.00026
1.00058
1.00169
1.00323
1.50485
19.1061
122.898
307.497
436.075
493.938
496.763
0.999999
0.999998
0.999998
0.999999
1
1.00001
1.00005
1.00011
1.00024
1.00045
1.00115
1.00139
1.00246
1.25897
5.61879
19.7894
30.8234
249.099
491.909
0.999999
0.999998
0.999998
0.999999
1
1.00001
1.00003
1.00009
1.00022
1.00043
1.00084
1.00141
1.0014
1.00157
1.01528
1.06816
1.11842
34.0613
432.125
0.999999
0.999999
0.999998
0.999998
0.999999
1
1.00002
1.00007
1.00018
1.0004
1.00074
1.00138
1.00131
1.00136
1.00149
1.00151
1.00151
2.78921
349.425
1
0.999999
0.999998
0.999998
0.999999
1
1.00001
1.00004
1.00013
1.00036
1.0007
1.00128
1.0014
1.00128
1.00123
1.00122
1.00133
1.55705
322.337
1
0.999999
0.999999
0.999998
0.999998
0.999999
1
1.00002
1.00008
1.00023
1.00057
1.00105
1.00136
1.00125
1.00111
1.00106
1.00114
1.18544
339.063
1
0.999999
0.999999
0.999999
0.999998
0.999999
1
1.00001
1.00003
1.00011
1.00034
1.00076
1.0012
1.0011
1.00094
1.00087
1.00098
1.06058
347.705
0.999999
0.999999
0.999999
0.999999
0.999999
0.999999
0.999999
1
1.00001
1.00004
1.00013
1.00042
1.00084
1.00084
1.00067
1.00065
1.00084
1.02209
307.004
0.999999
0.999999
0.999999
0.999998
0.999998
0.999999
0.999999
0.999999
1
1.00001
1.00004
1.00014
1.00038
1.00047
1.00038
1.00051
1.00079
1.01024
280.255
0.999999
0.999998
0.999998
0.999998
0.999998
0.999999
0.999999
0.999999
1
1
1.00001
1.00003
1.00011
1.00017
1.00021
1.00051
1.00084
1.00616
267.115
0.999998
0.999998
0.999998
0.999998
0.999998
0.999998
0.999999
0.999999
0.999999
1
1
1.00001
1.00002
1.00005
1.00019
1.00061
1.00091
1.00497
233.486
0.999998
0.999997
0.999997
0.999998
0.999998
0.999998
0.999999
0.999999
0.999999
1
1
1.00001
1.00001
1.00007
1.00023
1.00067
1.001
1.00699
203.603
0.999997
0.999997
0.999997
0.999997
0.999998
0.999998
0.999999
0.999999
1
1
1
1.00001
1.00002
1.0001
1.00029
1.00071
1.0012
1.04011
162.146
0.999997
0.999997
0.999997
0.999997
0.999998
0.999998
0.999999
0.999999
1
1
1
1.00001
1.00003
1.00016
1.00115
1.00116
1.00258
1.2709
81.3731
0.999997
0.999997
0.999997
0.999997
0.999998
0.999998
0.999999
0.999999
1
1
1
1.00001
1.00005
1.00029
1.01951
1.0073
1.00671
1.70303
12.8213
0.999997
0.999997
0.999997
0.999997
0.999998
0.999998
0.999999
0.999999
1
1
1
1.00001
1.00007
1.00093
1.03646
1.06306
1.0075
1.40492
1.49329
0.999998
0.999997
0.999997
0.999997
0.999998
0.999998
0.999999
0.999999
1
1
1
1.00002
1.00008
1.00159
1.03427
1.09463
1.0079
1.05339
1.05344
0.999998
0.999997
0.999997
0.999998
0.999998
0.999999
0.999999
0.999999
0.999999
1
1
1.00002
1.0001
1.00087
1.03032
1.1482
1.03764
1.09485
1.2988
0.999998
0.999998
0.999998
0.999998
0.999998
0.999999
0.999999
0.999999
0.999999
1
1
1.00002
1.00008
1.00041
1.008
1.28862
2.98258
11.8172
88.2194
0.999999
0.999998
0.999998
0.999998
0.999999
0.999999
0.999999
0.999999
0.999999
1
1
1.00001
1.00005
1.00028
1.00544
1.86725
27.1555
166.974
407.881
0.999999
0.999999
0.999999
0.999999
0.999999
0.999999
0.999999
0.999999
0.999999
1
1
1.00001
1.00002
1.00013
1.00334
2.2418
62.1027
361.043
492.498
0.999999
0.999999
0.999999
0.999999
0.999999
0.999999
0.999999
0.999999
0.999999
0.999999
1
1
1.00001
1.00005
1.00052
1.32635
29.1345
328.552
492.929
0.999999
0.999999
0.999999
0.999999
0.999999
0.999999
0.999999
0.999999
0.999999
0.999999
0.999999
1
1.00001
1.00003
1.00019
1.01871
3.2993
215.284
492.929
0.999999
0.999999
0.999999
0.999999
0.999999
0.999999
0.999998
0.999998
0.999999
0.999999
1
1
1.00003
1.00016
1.00038
1.00042
1.0395
86.8269
492.928
1
0.999999
0.999999
0.999999
0.999999
0.999999
0.999999
0.999999
0.999999
0.999999
1
1.00001
1.00003
1.00012
1.00029
1.00015
1.00039
13.4614
433.229
1
1
1
1
1
0.999999
0.999999
0.999999
0.999999
0.999999
1
1
1.00001
1.00001
1.00005
1.00002
1.00024
1.59956
222.448
)
;

boundaryField
{
    leftWall
    {
        type            calculated;
        value           nonuniform List<scalar> 
50
(
13529
13529
13528.5
13319.6
8048.39
1106.14
1000.12
1000.11
1000.1
1000.01
1000
999.755
610.579
1.43086
1.00003
1.00005
1.00006
1.00005
1.00005
1.00003
1
0.999999
0.999999
0.999999
0.999999
0.999999
0.999999
0.999999
0.999999
0.999999
0.999999
0.999999
1
0.999999
1
1
1
1
1
1
1
1
1
1
1
1
1
1
1
1
)
;
    }
    rightWall
    {
        type            calculated;
        value           nonuniform List<scalar> 
50
(
7162.53
7172.33
7181.66
7190.84
6353.36
5642.58
5257.85
4685.66
4083.53
3025.94
2093.19
1564.82
1276.77
1060.14
919.96
821.868
744.59
674.73
611.952
564.004
532.131
511.665
501.878
499.805
496.763
491.909
432.125
349.425
322.337
339.063
347.705
307.004
280.255
267.115
233.486
203.603
162.146
81.3731
12.8213
1.49329
1.05344
1.2988
88.2194
407.881
492.498
492.929
492.929
492.928
433.229
222.448
)
;
    }
    lowerWall
    {
        type            calculated;
        value           nonuniform List<scalar> 
62
(
13529
13529
13529
13529
13529
13529
13529
13529
13529
13529
13529
13529
13529
13529
13529
13529
13529
13529
13529
13529
13529
13529
13528.9
13528.9
13528.8
13528.8
13528.8
13528.8
13528.8
13528.8
13528.7
13515.4
13503.4
13463.4
13370.5
1180.81
791.078
973.893
1358.89
2327.84
4401.69
7332.8
9728.29
1180.81
1754.13
1860.73
1881.95
1903.5
2231.76
2887.09
3594.16
4264.33
5056.31
5399.01
5592.41
5680.89
5734.21
5787.13
6168.39
7116.24
7151.67
7162.53
)
;
    }
    atmosphere
    {
        type            calculated;
        value           nonuniform List<scalar> 
46
(
1
1
1
1
1
1
1
1
1
1
1
1
1
1
1
1
1
1
1
1
1
1
1
1
1
1
1
1
1
1
1
1
0.999999
0.999999
0.999999
0.999999
0.999999
1
1
1.00001
1.00001
1.00005
1
1.00024
1.59956
222.448
)
;
    }
    defaultFaces
    {
        type            empty;
    }
}


// ************************************************************************* //
