/*--------------------------------*- C++ -*----------------------------------*\
| =========                 |                                                 |
| \\      /  F ield         | OpenFOAM: The Open Source CFD Toolbox           |
|  \\    /   O peration     | Version:  2.4.0                                 |
|   \\  /    A nd           | Web:      www.OpenFOAM.org                      |
|    \\/     M anipulation  |                                                 |
\*---------------------------------------------------------------------------*/
FoamFile
{
    version     2.0;
    format      ascii;
    class       volVectorField;
    location    "0.55";
    object      U;
}
// * * * * * * * * * * * * * * * * * * * * * * * * * * * * * * * * * * * * * //

dimensions      [0 1 -1 0 0 0 0];

internalField   nonuniform List<vector> 
2268
(
(0.0150719 -0.00629345 0)
(0.0425165 -0.00672198 0)
(0.0731209 -0.00491393 0)
(0.0921304 -0.00818834 0)
(0.137504 -0.00651783 0)
(0.157601 -0.00518118 0)
(0.177372 -0.00589783 0)
(0.209064 -0.00687872 0)
(0.24396 -0.00747992 0)
(0.273679 -0.00490338 0)
(0.281917 -0.00302358 0)
(0.294652 -0.00281113 0)
(0.298268 -0.00330202 0)
(0.306116 -0.00698708 0)
(0.296702 -0.00878063 0)
(0.270659 -0.0145665 0)
(0.232346 -0.0027584 0)
(0.166494 -0.00271745 0)
(0.109801 0.0121837 0)
(0.0533438 -0.000637931 0)
(0.0474642 0.00629331 0)
(0.0221247 0.00909176 0)
(-0.0166866 0.00255125 0)
(0.0154958 -0.0196853 0)
(0.0415217 -0.0217096 0)
(0.0741676 -0.013898 0)
(0.0952516 -0.0264556 0)
(0.133887 -0.0194541 0)
(0.157025 -0.0136893 0)
(0.180774 -0.0204037 0)
(0.212201 -0.0208655 0)
(0.245543 -0.0241495 0)
(0.266032 -0.0129495 0)
(0.280775 -0.00558942 0)
(0.297593 -0.00489875 0)
(0.310827 -0.00145872 0)
(0.308512 0.00845022 0)
(0.299417 0.0303012 0)
(0.275336 0.0517233 0)
(0.233637 0.0548537 0)
(0.174254 0.0572617 0)
(0.105569 0.038456 0)
(0.0696023 0.027346 0)
(0.0406217 0.0103398 0)
(0.0269707 0.019494 0)
(-0.0156082 -0.000493388 0)
(0.0158795 -0.0366429 0)
(0.040879 -0.0382521 0)
(0.0744732 -0.03125 0)
(0.0979136 -0.0424206 0)
(0.128731 -0.0359002 0)
(0.159066 -0.0312959 0)
(0.183513 -0.0359357 0)
(0.216914 -0.0358572 0)
(0.243292 -0.0369131 0)
(0.258044 -0.0230626 0)
(0.281959 -0.018397 0)
(0.309805 -0.0162317 0)
(0.324628 -0.0110468 0)
(0.325897 -0.00204854 0)
(0.310903 -0.0013426 0)
(0.276743 0.0103232 0)
(0.220115 0.0463006 0)
(0.167749 0.065289 0)
(0.0909156 0.0617466 0)
(0.0704431 0.033689 0)
(0.0481229 0.0235767 0)
(0.0496216 0.0312444 0)
(0.0244647 0.0116485 0)
(0.0165589 -0.0431148 0)
(0.039218 -0.0459315 0)
(0.0742134 -0.0373391 0)
(0.101124 -0.0524743 0)
(0.122563 -0.0456669 0)
(0.159758 -0.0433885 0)
(0.186631 -0.0540595 0)
(0.218356 -0.0533143 0)
(0.233974 -0.0541156 0)
(0.255972 -0.0406677 0)
(0.287805 -0.041735 0)
(0.312703 -0.0339328 0)
(0.317572 -0.0152502 0)
(0.313609 0.0184249 0)
(0.295822 0.07594 0)
(0.275983 0.1166 0)
(0.238223 0.11201 0)
(0.179039 0.103855 0)
(0.105869 0.0754479 0)
(0.0682903 0.0417799 0)
(0.038932 0.019992 0)
(0.0468914 0.0366992 0)
(0.0179967 0.0302995 0)
(0.0153535 -0.104966 0)
(0.0340955 -0.103408 0)
(0.0668653 -0.103735 0)
(0.0962746 -0.101707 0)
(0.107829 -0.102288 0)
(0.14075 -0.0998141 0)
(0.176388 -0.0942169 0)
(0.193698 -0.0878883 0)
(0.208722 -0.0829913 0)
(0.243949 -0.0751265 0)
(0.270514 -0.0717317 0)
(0.292442 -0.0564202 0)
(0.313614 -0.0437446 0)
(0.341555 -0.032604 0)
(0.325374 -0.0185401 0)
(0.275202 0.00584329 0)
(0.222672 0.111035 0)
(0.167263 0.142389 0)
(0.105026 0.115574 0)
(0.0750983 0.0658914 0)
(0.023141 0.0343518 0)
(0.0324195 0.0348158 0)
(0.0246527 0.0419889 0)
(0.00247745 0.0779893 0)
(0.00926044 0.0779529 0)
(0.0165258 0.0732091 0)
(0.0319179 0.0774156 0)
(0.0355305 0.0729255 0)
(0.0479126 0.0595572 0)
(0.0721611 0.0600566 0)
(0.0902113 0.063248 0)
(0.106575 0.0551627 0)
(0.130794 0.0602437 0)
(0.149958 0.0748725 0)
(0.163952 0.093261 0)
(0.175887 0.133067 0)
(0.1918 0.231654 0)
(0.134087 0.301205 0)
(0.183724 0.177176 0)
(0.159937 0.108798 0)
(0.126144 0.149342 0)
(0.0894091 0.116169 0)
(0.0709857 0.0825845 0)
(0.0120974 0.04264 0)
(0.00282971 0.040334 0)
(0.013373 0.0580945 0)
(-0.0059891 -0.160383 0)
(-0.00889845 -0.161057 0)
(-0.0175016 -0.164077 0)
(-0.0149948 -0.162285 0)
(-0.0105823 -0.16174 0)
(-0.00016533 -0.166389 0)
(0.0158647 -0.161938 0)
(0.0294497 -0.157489 0)
(0.0482837 -0.154297 0)
(0.0593395 -0.150124 0)
(0.0606819 -0.143904 0)
(0.0549546 -0.142976 0)
(0.0391857 -0.150372 0)
(0.0404151 -0.177109 0)
(0.0798862 -0.115024 0)
(0.16249 0.105052 0)
(0.0178995 0.242256 0)
(0.0676997 0.150554 0)
(0.0364495 0.133714 0)
(0.0463723 0.0946274 0)
(0.013102 0.059952 0)
(-0.0119496 0.0371919 0)
(0.00831705 0.0548736 0)
(-0.00529843 -0.0187751 0)
(-0.0133444 -0.0192925 0)
(-0.0189051 -0.0275475 0)
(-0.0193937 -0.0230969 0)
(-0.0196682 -0.0309219 0)
(-0.00513188 -0.0488743 0)
(0.0160657 -0.0417559 0)
(0.0303026 -0.0392089 0)
(0.0569864 -0.0408959 0)
(0.0767559 -0.0317858 0)
(0.0914047 -0.00564712 0)
(0.103656 0.0143089 0)
(0.101552 0.067319 0)
(0.0423807 0.154709 0)
(-0.0779145 0.159246 0)
(-0.0688533 0.1008 0)
(-0.0349743 0.218904 0)
(-0.10291 0.181289 0)
(-0.0762251 0.102216 0)
(-0.0304574 0.109892 0)
(-0.0094462 0.0736658 0)
(-0.00974154 0.0354271 0)
(0.00989631 0.0565924 0)
(-0.177109 -0.0600702 0)
(-0.177729 -0.170472 0)
(0.00315649 -0.180235 0)
(0.161112 -0.175171 0)
(0.212825 -0.183992 0)
(0.278763 -0.225925 0)
(0.375324 -0.269905 0)
(0.451975 -0.298116 0)
(0.494692 -0.318293 0)
(0.503013 -0.340154 0)
(0.500153 -0.323445 0)
(0.545868 -0.301848 0)
(0.649219 -0.32086 0)
(0.666874 -0.356861 0)
(0.507486 -0.486896 0)
(0.237845 -0.592835 0)
(0.0868431 -0.266794 0)
(-0.0158278 -0.143349 0)
(0.110321 -0.208387 0)
(-0.135077 0.169955 0)
(-0.108848 0.0626938 0)
(0.150072 -0.0472323 0)
(0.356964 0.0343185 0)
(0.464704 0.0937807 0)
(0.57924 0.105118 0)
(0.694439 0.107187 0)
(0.76405 0.140116 0)
(0.803763 0.185739 0)
(0.78471 0.218199 0)
(0.756515 0.181777 0)
(0.77989 0.104246 0)
(0.877582 0.114072 0)
(1.001 0.224028 0)
(0.947325 0.454686 0)
(0.330738 0.615072 0)
(0.0826678 0.308883 0)
(0.214453 0.039383 0)
(0.257864 0.142251 0)
(-0.110585 0.160539 0)
(0.0504848 -0.191641 0)
(0.249454 -0.267489 0)
(0.405954 -0.197243 0)
(0.564601 -0.151367 0)
(0.72084 -0.163465 0)
(0.794465 -0.176012 0)
(0.83573 -0.151311 0)
(0.872957 -0.103568 0)
(0.859943 -0.0672984 0)
(0.835181 -0.0812303 0)
(0.835285 -0.151265 0)
(0.913154 -0.187758 0)
(1.02146 -0.0530667 0)
(0.914017 0.279753 0)
(0.422106 0.173285 0)
(0.010529 0.0268993 0)
(-0.0949484 0.0754491 0)
(0.170914 0.102009 0)
(-0.0164825 0.171997 0)
(0.215819 -0.187999 0)
(0.331795 -0.293474 0)
(0.436088 -0.210714 0)
(0.589186 -0.132309 0)
(0.717878 -0.106393 0)
(0.779106 -0.0896183 0)
(0.796356 -0.0525765 0)
(0.821109 0.0112629 0)
(0.814721 0.0647835 0)
(0.796548 0.0458816 0)
(0.782907 -0.0744571 0)
(0.798873 -0.134173 0)
(0.911143 0.0416277 0)
(0.897657 0.440337 0)
(0.476508 0.496373 0)
(0.0869184 0.269191 0)
(-0.40092 -0.0527759 0)
(0.167889 0.0992248 0)
(0.15533 0.113587 0)
(0.297335 -0.261175 0)
(0.371442 -0.343741 0)
(0.439778 -0.273246 0)
(0.557986 -0.205294 0)
(0.658095 -0.172165 0)
(0.700144 -0.138597 0)
(0.696289 -0.102878 0)
(0.70198 -0.0356921 0)
(0.701728 0.0357162 0)
(0.699125 0.00801015 0)
(0.7059 -0.147263 0)
(0.748202 -0.226821 0)
(0.882015 -0.0344093 0)
(0.912299 0.512541 0)
(0.512778 0.73221 0)
(0.29378 0.458043 0)
(-0.336899 -0.05254 0)
(0.180037 0.0945782 0)
(0.275071 -0.013889 0)
(0.323925 -0.3017 0)
(0.387384 -0.376749 0)
(0.437392 -0.313681 0)
(0.520256 -0.24443 0)
(0.600866 -0.197998 0)
(0.648393 -0.140143 0)
(0.646229 -0.0862904 0)
(0.619671 -0.0275499 0)
(0.612287 0.068319 0)
(0.63115 0.0264648 0)
(0.63417 -0.141888 0)
(0.610391 -0.207202 0)
(0.770831 -0.0108249 0)
(0.898227 0.494365 0)
(0.554128 0.769205 0)
(0.170486 0.493415 0)
(-0.321747 -0.0682609 0)
(0.16939 0.124195 0)
(0.310571 -0.190653 0)
(0.31704 -0.367772 0)
(0.396363 -0.401506 0)
(0.441646 -0.355236 0)
(0.499122 -0.301996 0)
(0.569002 -0.246195 0)
(0.612312 -0.170869 0)
(0.59627 -0.100775 0)
(0.53459 0.00344878 0)
(0.526778 0.0330495 0)
(0.555242 0.00474099 0)
(0.535096 -0.169962 0)
(0.371502 -0.111982 0)
(-0.377666 0.250185 0)
(0.783479 0.521816 0)
(0.713835 0.873254 0)
(0.155807 0.695201 0)
(-0.236545 -0.214683 0)
(0.190281 0.122468 0)
(0.32479 -0.295718 0)
(0.322141 -0.412365 0)
(0.401023 -0.419204 0)
(0.449479 -0.369105 0)
(0.513195 -0.314008 0)
(0.569657 -0.253262 0)
(0.600245 -0.1459 0)
(0.570162 -0.0270706 0)
(0.509224 0.00849542 0)
(0.520204 -0.00501933 0)
(0.531183 -0.0212331 0)
(0.441861 -0.109188 0)
(0.173214 -0.0444153 0)
(-0.483319 0.256369 0)
(-0.920189 0.810756 0)
(0.624716 0.994811 0)
(-0.33961 1.10741 0)
(-0.263579 -0.0687987 0)
(0.212059 0.139286 0)
(-0.00574896 -0.0894043 0)
(-0.0132335 -0.0939007 0)
(-0.0215118 -0.100146 0)
(-0.0233112 -0.107692 0)
(-0.0169715 -0.114226 0)
(-0.0120317 -0.129902 0)
(0.00669476 -0.130041 0)
(0.026888 -0.134504 0)
(0.0500647 -0.129551 0)
(0.0502661 -0.121041 0)
(0.0432758 -0.112307 0)
(0.0393847 -0.119649 0)
(0.0363085 -0.133329 0)
(0.0722591 -0.124402 0)
(0.103177 -0.0641344 0)
(0.119557 0.0380024 0)
(0.098061 0.199454 0)
(-0.0338211 0.360053 0)
(-0.128529 0.109032 0)
(-0.139612 0.00187723 0)
(-0.0943598 0.0438473 0)
(-0.00644382 0.0423864 0)
(0.0610002 0.0547606 0)
(-0.00653806 -0.037019 0)
(-0.0180259 -0.0416503 0)
(-0.0254598 -0.0513981 0)
(-0.0260825 -0.061055 0)
(-0.0148083 -0.0749533 0)
(-0.00932563 -0.106154 0)
(0.0199424 -0.114751 0)
(0.0520074 -0.116316 0)
(0.0901669 -0.0919172 0)
(0.106534 -0.0628581 0)
(0.120023 -0.0245407 0)
(0.141252 0.00233964 0)
(0.129771 0.0581759 0)
(0.105831 0.112074 0)
(0.0690337 0.132075 0)
(0.06118 0.128547 0)
(0.0876788 0.204052 0)
(0.195738 0.312128 0)
(0.101954 0.354205 0)
(-0.023037 0.123202 0)
(-0.0198198 -0.0798424 0)
(-0.00196878 -0.161532 0)
(0.0594445 -0.152095 0)
(-0.00648346 -0.0357571 0)
(-0.0208577 -0.0493492 0)
(-0.0330134 -0.0761489 0)
(-0.0419027 -0.108229 0)
(-0.0421041 -0.126791 0)
(-0.0404688 -0.156067 0)
(0.00867995 -0.177156 0)
(0.0563645 -0.18007 0)
(0.0953778 -0.140775 0)
(0.0926123 -0.109065 0)
(0.102031 -0.08368 0)
(0.108245 -0.0783514 0)
(0.111457 -0.0482489 0)
(0.152487 -0.0200352 0)
(0.164118 0.0256602 0)
(0.187648 0.0751682 0)
(0.187792 0.144472 0)
(0.26531 0.22898 0)
(0.36268 0.300601 0)
(0.411536 0.228371 0)
(0.393596 0.128445 0)
(0.327217 0.032475 0)
(0.312958 -0.0699912 0)
(-0.0189416 -0.0103831 0)
(-0.0646143 -0.00555449 0)
(-0.0911613 -0.00412942 0)
(-0.0844511 -0.0123975 0)
(-0.0574439 -0.0223745 0)
(-0.0430855 -0.102665 0)
(0.00150213 -0.172834 0)
(0.0185758 -0.194602 0)
(0.0275975 -0.147936 0)
(0.022748 -0.11323 0)
(0.0555538 -0.0879773 0)
(0.0569755 -0.0628821 0)
(0.0835002 -0.0141504 0)
(0.108114 0.0167453 0)
(0.119081 0.0587829 0)
(0.16945 0.0782 0)
(0.196139 0.120248 0)
(0.260796 0.135878 0)
(0.351167 0.163207 0)
(0.444923 0.0911405 0)
(0.517702 -0.0116239 0)
(0.575482 -0.0928695 0)
(0.631403 -0.170089 0)
(0.00773802 -0.152494 0)
(-0.00294785 -0.15797 0)
(-0.0233831 -0.185911 0)
(-0.0857953 -0.230905 0)
(-0.146738 -0.233988 0)
(-0.159833 -0.300549 0)
(-0.2599 -0.335819 0)
(-0.368473 -0.252992 0)
(-0.367427 -0.162174 0)
(-0.33893 -0.128184 0)
(-0.235668 -0.0872974 0)
(-0.180845 -0.0647524 0)
(-0.0974954 -0.0559903 0)
(-0.0184767 -0.0360078 0)
(0.0300344 -0.0170509 0)
(0.110302 -0.00039582 0)
(0.144288 0.0259394 0)
(0.201514 0.0195161 0)
(0.286047 0.0422792 0)
(0.360265 -0.0266355 0)
(0.462281 -0.0564843 0)
(0.493475 -0.144011 0)
(0.552704 -0.242494 0)
(0.0054855 0.90751 0)
(0.107923 0.932912 0)
(-0.218001 1.39871 0)
(-0.44423 1.04942 0)
(-0.0698536 0.213983 0)
(-0.0969692 0.00412728 0)
(-0.497097 -0.00787472 0)
(-0.683853 -0.127867 0)
(-0.729919 -0.228949 0)
(-0.645825 -0.290394 0)
(-0.546713 -0.30139 0)
(-0.498706 -0.24605 0)
(-0.445571 -0.180976 0)
(-0.363922 -0.100733 0)
(-0.267976 -0.0548888 0)
(-0.158461 0.0182872 0)
(-0.0289181 0.0629718 0)
(0.064887 0.0449603 0)
(0.179214 0.0204419 0)
(0.213328 -0.0606132 0)
(0.322704 -0.0871498 0)
(0.365811 -0.178518 0)
(0.411839 -0.264218 0)
(0.00329138 -0.907783 0)
(0.00913073 -0.618035 0)
(0.16853 -0.544473 0)
(0.617834 -0.771161 0)
(0.658849 -0.443268 0)
(0.945474 0.554505 0)
(0.531506 0.89548 0)
(-0.0714511 0.870747 0)
(-0.565554 0.754936 0)
(-0.5136 0.486985 0)
(-0.500739 0.0802075 0)
(-0.459821 -0.278227 0)
(-0.469025 -0.401305 0)
(-0.438442 -0.359933 0)
(-0.398765 -0.321159 0)
(-0.319061 -0.286705 0)
(-0.261072 -0.258686 0)
(-0.158854 -0.206851 0)
(-0.0718366 -0.144967 0)
(-0.0420313 -0.226461 0)
(0.0484737 -0.226846 0)
(0.0832495 -0.268382 0)
(0.129131 -0.303764 0)
(-0.151086 0.757652 0)
(-0.314434 0.610648 0)
(-0.228859 0.233694 0)
(-0.150968 -0.145131 0)
(-0.248119 -0.338977 0)
(-0.0389137 -0.103209 0)
(0.326796 0.547607 0)
(0.0136848 0.411511 0)
(0.327856 -0.386885 0)
(0.350101 -0.675895 0)
(0.257888 -0.46142 0)
(0.357152 0.049483 0)
(0.174465 0.701366 0)
(-0.156779 0.870503 0)
(-0.235415 0.56334 0)
(-0.243732 0.210102 0)
(-0.216244 -0.0529109 0)
(-0.173828 -0.205768 0)
(-0.146883 -0.269125 0)
(-0.0984552 -0.128846 0)
(-0.100524 -0.094152 0)
(-0.0452454 0.223162 0)
(-0.0220001 0.378473 0)
(0.0336218 -0.193234 0)
(0.201884 -0.323545 0)
(0.270873 -0.375248 0)
(0.208915 -0.360031 0)
(-0.00842404 -0.311764 0)
(-0.150989 -0.0550032 0)
(0.0777079 0.444901 0)
(0.384289 0.415779 0)
(0.470627 0.360956 0)
(0.078572 0.100236 0)
(-0.206362 -0.251406 0)
(-0.245612 -0.434242 0)
(-0.0942384 -0.508699 0)
(0.205257 -0.689402 0)
(0.414636 -0.635795 0)
(0.495008 -0.392356 0)
(0.493007 -0.147025 0)
(0.520631 0.0375487 0)
(0.464801 0.249239 0)
(0.385389 0.0304139 0)
(0.273633 -0.129239 0)
(0.232968 -0.429226 0)
(0.244408 -0.614621 0)
(0.00767435 0.263056 0)
(-0.029303 0.162472 0)
(-0.0648825 -0.0239275 0)
(-0.0771826 -0.16392 0)
(-0.114171 -0.230244 0)
(-0.116724 -0.201077 0)
(-0.0223263 -0.0257714 0)
(0.330561 0.184981 0)
(0.399018 0.188899 0)
(0.386107 0.107364 0)
(0.280387 -0.0153542 0)
(0.158425 -0.0946483 0)
(0.146824 -0.025006 0)
(0.142291 -0.0312809 0)
(0.127896 -0.131293 0)
(0.135216 -0.229599 0)
(0.169028 -0.310227 0)
(0.196153 -0.386204 0)
(0.255132 -0.388407 0)
(0.367929 -0.378367 0)
(0.418966 -0.350247 0)
(0.42561 -0.298336 0)
(0.39841 -0.255496 0)
(0.0292384 -0.0269431 0)
(0.0976495 -0.123265 0)
(0.0989872 -0.145152 0)
(0.0444555 -0.151398 0)
(-0.0264735 -0.143198 0)
(-0.0651126 -0.0875342 0)
(-0.0472441 -0.0429181 0)
(0.0103632 0.00990961 0)
(0.229191 0.15842 0)
(0.264753 0.121514 0)
(0.248357 0.003643 0)
(0.225885 -0.210753 0)
(0.21076 -0.313395 0)
(0.225762 -0.339058 0)
(0.23215 -0.315803 0)
(0.224681 -0.262721 0)
(0.240027 -0.209577 0)
(0.259267 -0.12207 0)
(0.275468 -0.029598 0)
(0.26004 0.0261886 0)
(0.228975 0.00216259 0)
(0.171373 -0.100784 0)
(0.13035 -0.19527 0)
(0.00786983 0.0504935 0)
(0.0207205 -0.00927498 0)
(0.0261716 -0.0835739 0)
(0.0227369 -0.135709 0)
(-0.00653422 -0.158391 0)
(-0.0260671 -0.14388 0)
(-0.0270574 -0.119014 0)
(-0.0224203 -0.0855167 0)
(0.0397208 0.0283175 0)
(0.16048 0.0664709 0)
(0.17441 0.0227943 0)
(0.20384 -0.105564 0)
(0.158346 -0.175241 0)
(0.116263 -0.229142 0)
(0.0982111 -0.273014 0)
(0.0781266 -0.294428 0)
(0.0525921 -0.310738 0)
(0.0446404 -0.32633 0)
(0.0553273 -0.323894 0)
(0.0941194 -0.311845 0)
(0.135983 -0.298912 0)
(0.142992 -0.292481 0)
(0.12175 -0.287143 0)
(0.0169731 -0.0215674 0)
(0.0384519 -0.060462 0)
(0.0375635 -0.0766589 0)
(0.0268775 -0.0908523 0)
(0.00645666 -0.0979134 0)
(-0.011052 -0.0861874 0)
(-0.0249658 -0.0783332 0)
(-0.0306889 -0.0670332 0)
(-0.0254317 -0.0414526 0)
(0.0577998 -0.00509912 0)
(0.105351 -0.0533533 0)
(0.11649 -0.129107 0)
(0.100038 -0.17039 0)
(0.0783999 -0.206386 0)
(0.0578103 -0.225137 0)
(0.0393437 -0.227177 0)
(0.0223886 -0.210546 0)
(0.00561146 -0.181139 0)
(-0.0108075 -0.145156 0)
(-0.0225076 -0.114652 0)
(-0.0281791 -0.107048 0)
(-0.0392316 -0.122486 0)
(-0.0522368 -0.138952 0)
(0.0110788 -0.036566 0)
(0.0275421 -0.0755564 0)
(0.0334587 -0.0925883 0)
(0.027458 -0.099315 0)
(0.0141059 -0.0990561 0)
(0.00452226 -0.0904241 0)
(-0.00208455 -0.0826877 0)
(-0.00409917 -0.0681588 0)
(0.00167631 -0.0618406 0)
(0.0320754 -0.0494879 0)
(0.0654902 -0.0695205 0)
(0.0625546 -0.117059 0)
(0.0498033 -0.166125 0)
(0.0299474 -0.208394 0)
(0.00335094 -0.231533 0)
(-0.0181373 -0.239425 0)
(-0.0404398 -0.243773 0)
(-0.0576498 -0.24506 0)
(-0.0676515 -0.238761 0)
(-0.0677228 -0.229618 0)
(-0.0634695 -0.220069 0)
(-0.0616331 -0.211526 0)
(-0.0634471 -0.203766 0)
(0.00589833 -0.0422941 0)
(0.0136614 -0.0725003 0)
(0.0150384 -0.080939 0)
(0.0115025 -0.0846616 0)
(0.00674803 -0.085757 0)
(0.00446082 -0.0829434 0)
(0.00280602 -0.0797391 0)
(0.0068027 -0.0762668 0)
(0.0138203 -0.0742611 0)
(0.0282951 -0.0664644 0)
(0.0456256 -0.0778639 0)
(0.0479124 -0.101666 0)
(0.0374721 -0.135592 0)
(0.0164927 -0.168426 0)
(-0.0101834 -0.192946 0)
(-0.0289299 -0.203942 0)
(-0.0428397 -0.202093 0)
(-0.0556709 -0.195553 0)
(-0.065049 -0.181666 0)
(-0.0703831 -0.172832 0)
(-0.0754986 -0.169086 0)
(-0.078196 -0.167667 0)
(-0.0806694 -0.168138 0)
(0.0041609 -0.0559436 0)
(0.00712095 -0.0795053 0)
(0.00700801 -0.0820397 0)
(0.00613162 -0.0846725 0)
(0.00494051 -0.08579 0)
(0.00528714 -0.0840471 0)
(0.00762532 -0.0832441 0)
(0.0126661 -0.0809745 0)
(0.0176602 -0.082161 0)
(0.0276425 -0.0793418 0)
(0.0378546 -0.0881122 0)
(0.0411341 -0.103289 0)
(0.0401444 -0.126565 0)
(0.028635 -0.14873 0)
(0.00867549 -0.171039 0)
(-0.0119196 -0.188315 0)
(-0.0298522 -0.195275 0)
(-0.0422968 -0.195195 0)
(-0.0510307 -0.186738 0)
(-0.0618677 -0.180688 0)
(-0.0734188 -0.177945 0)
(-0.0797119 -0.173296 0)
(-0.0837739 -0.167648 0)
(0.00239059 -0.0589744 0)
(0.00398848 -0.0798813 0)
(0.00494976 -0.0820744 0)
(0.00541039 -0.0842995 0)
(0.00550497 -0.0860394 0)
(0.00683281 -0.0863954 0)
(0.0091742 -0.0869246 0)
(0.0133743 -0.0867271 0)
(0.0177639 -0.0881448 0)
(0.0247917 -0.0875315 0)
(0.0324394 -0.0934225 0)
(0.0371328 -0.105663 0)
(0.0387028 -0.124701 0)
(0.0329758 -0.142041 0)
(0.0206223 -0.158633 0)
(0.00663312 -0.172281 0)
(-0.0122124 -0.180618 0)
(-0.0289772 -0.18404 0)
(-0.0438883 -0.177388 0)
(-0.0545949 -0.167481 0)
(-0.0705487 -0.165633 0)
(-0.0820009 -0.166418 0)
(-0.088679 -0.162618 0)
(0.00139604 -0.0615261 0)
(0.00310295 -0.0813988 0)
(0.00459327 -0.0830032 0)
(0.00577687 -0.0847707 0)
(0.00639758 -0.0864963 0)
(0.00706091 -0.0879461 0)
(0.00821528 -0.0892972 0)
(0.0102663 -0.0906333 0)
(0.0127958 -0.0927615 0)
(0.0167138 -0.0946471 0)
(0.0232595 -0.100582 0)
(0.0274513 -0.110629 0)
(0.0271276 -0.121864 0)
(0.0223373 -0.132174 0)
(0.0133298 -0.145687 0)
(0.00173166 -0.15533 0)
(-0.0169093 -0.160542 0)
(-0.0325444 -0.161415 0)
(-0.0454708 -0.15996 0)
(-0.0582096 -0.151522 0)
(-0.0691473 -0.148807 0)
(-0.0822268 -0.153162 0)
(-0.0883577 -0.1539 0)
(0.00103537 -0.0631082 0)
(0.00287597 -0.0828286 0)
(0.00432464 -0.0842241 0)
(0.00475707 -0.0857811 0)
(0.00511653 -0.0870339 0)
(0.00467425 -0.0885278 0)
(0.00440388 -0.089988 0)
(0.00467464 -0.0918344 0)
(0.00509298 -0.0945455 0)
(0.00666191 -0.0988471 0)
(0.00852991 -0.104429 0)
(0.0103381 -0.111639 0)
(0.0083352 -0.119284 0)
(0.00537334 -0.128717 0)
(-0.00259075 -0.136893 0)
(-0.0138957 -0.140357 0)
(-0.0280131 -0.146353 0)
(-0.0404076 -0.151158 0)
(-0.0514649 -0.150052 0)
(-0.0637794 -0.143817 0)
(-0.0713785 -0.141147 0)
(-0.0793659 -0.148115 0)
(-0.0847532 -0.150178 0)
(0.00111983 -0.0651898 0)
(0.0021718 -0.0840182 0)
(0.00217009 -0.0842605 0)
(0.00239195 -0.0852829 0)
(0.00249808 -0.0864277 0)
(0.00262897 -0.0876519 0)
(0.00275122 -0.0894924 0)
(0.00283735 -0.0915008 0)
(0.00284936 -0.0945258 0)
(0.00268859 -0.098796 0)
(0.00169751 -0.10355 0)
(0.000584989 -0.108944 0)
(-0.00328962 -0.115398 0)
(-0.00844636 -0.122041 0)
(-0.0149337 -0.126781 0)
(-0.0222308 -0.131017 0)
(-0.029417 -0.136878 0)
(-0.0392234 -0.140175 0)
(-0.0513569 -0.137799 0)
(-0.0598793 -0.133431 0)
(-0.0655876 -0.133464 0)
(-0.0732021 -0.139398 0)
(-0.0792557 -0.141244 0)
(0.000715588 -0.0665286 0)
(0.00110439 -0.0840731 0)
(0.00132106 -0.0845932 0)
(0.00181615 -0.0857186 0)
(0.00199552 -0.0866255 0)
(0.00249249 -0.0877069 0)
(0.00279133 -0.0892809 0)
(0.00272165 -0.0910102 0)
(0.00243097 -0.0933666 0)
(0.00141548 -0.0969612 0)
(-0.000908774 -0.102237 0)
(-0.00321729 -0.107662 0)
(-0.00723031 -0.111133 0)
(-0.0126877 -0.116357 0)
(-0.0184481 -0.120926 0)
(-0.0252239 -0.125576 0)
(-0.0316124 -0.126767 0)
(-0.0416806 -0.127156 0)
(-0.0518167 -0.127664 0)
(-0.0599025 -0.125939 0)
(-0.0674153 -0.127178 0)
(-0.0745688 -0.132486 0)
(-0.0830012 -0.133942 0)
(0.00041756 -0.0671073 0)
(0.0006153 -0.0847107 0)
(0.00129395 -0.0852457 0)
(0.0014928 -0.0862908 0)
(0.00154809 -0.0871382 0)
(0.00152929 -0.088283 0)
(0.00140773 -0.0896203 0)
(0.00129534 -0.0913642 0)
(0.00118071 -0.0937294 0)
(0.000557927 -0.0962954 0)
(-0.00177677 -0.0996679 0)
(-0.00468705 -0.103138 0)
(-0.00762565 -0.106477 0)
(-0.0122254 -0.110783 0)
(-0.0179541 -0.114806 0)
(-0.025117 -0.118411 0)
(-0.0327905 -0.120524 0)
(-0.0399576 -0.120993 0)
(-0.046952 -0.121658 0)
(-0.0535772 -0.119556 0)
(-0.0607282 -0.120494 0)
(-0.0665761 -0.124767 0)
(-0.0774264 -0.125444 0)
(0.000390676 -0.0676891 0)
(0.000533665 -0.0846947 0)
(6.75795e-05 -0.0851233 0)
(-0.000230329 -0.085667 0)
(-0.000672497 -0.0867151 0)
(-0.00118002 -0.0880935 0)
(-0.00173275 -0.0895639 0)
(-0.00238986 -0.0911372 0)
(-0.00326915 -0.0925709 0)
(-0.00443074 -0.094285 0)
(-0.00569872 -0.0964234 0)
(-0.00920294 -0.0993652 0)
(-0.0126052 -0.103466 0)
(-0.0162121 -0.105439 0)
(-0.0208151 -0.107984 0)
(-0.0267233 -0.109161 0)
(-0.0346835 -0.110507 0)
(-0.0424622 -0.112564 0)
(-0.0491145 -0.111702 0)
(-0.056574 -0.111122 0)
(-0.0636823 -0.112005 0)
(-0.0707265 -0.113172 0)
(-0.0800476 -0.111282 0)
(0.000111143 -0.0678445 0)
(-0.000138605 -0.0845137 0)
(-0.000572709 -0.0848572 0)
(-0.000921917 -0.0855711 0)
(-0.00146304 -0.0862672 0)
(-0.00205816 -0.0870388 0)
(-0.00296612 -0.0882214 0)
(-0.00414663 -0.0898064 0)
(-0.00555575 -0.0917584 0)
(-0.00725617 -0.0929794 0)
(-0.00946273 -0.095035 0)
(-0.0121577 -0.0980573 0)
(-0.0162251 -0.0998629 0)
(-0.0206458 -0.1024 0)
(-0.0257238 -0.104346 0)
(-0.0306365 -0.105043 0)
(-0.0348278 -0.106451 0)
(-0.0402071 -0.10741 0)
(-0.0473961 -0.10681 0)
(-0.0539381 -0.106911 0)
(-0.0594749 -0.10715 0)
(-0.069398 -0.107476 0)
(-0.0769778 -0.105152 0)
(0.000216392 -0.0682126 0)
(0.000167383 -0.0842857 0)
(-0.000309744 -0.0844518 0)
(-0.000741043 -0.0848681 0)
(-0.00138333 -0.0854287 0)
(-0.00222491 -0.0862756 0)
(-0.00315665 -0.0872156 0)
(-0.00432869 -0.0882977 0)
(-0.00591475 -0.0894842 0)
(-0.00830264 -0.0913565 0)
(-0.0102718 -0.0927574 0)
(-0.0120611 -0.0937285 0)
(-0.0151906 -0.095222 0)
(-0.0194483 -0.097164 0)
(-0.0244763 -0.0983618 0)
(-0.0293215 -0.0996145 0)
(-0.0359288 -0.100256 0)
(-0.042704 -0.0986725 0)
(-0.0490545 -0.099291 0)
(-0.0538993 -0.0984043 0)
(-0.0611494 -0.0981512 0)
(-0.0687394 -0.096305 0)
(-0.0760411 -0.0961502 0)
(-9.26141e-05 -0.067756 0)
(-0.000691735 -0.0835928 0)
(-0.00139609 -0.083876 0)
(-0.00202665 -0.0843216 0)
(-0.00283353 -0.0848356 0)
(-0.00384447 -0.0854977 0)
(-0.00502516 -0.0862985 0)
(-0.00646519 -0.0872203 0)
(-0.00817572 -0.0880563 0)
(-0.0100706 -0.08857 0)
(-0.0124296 -0.0895594 0)
(-0.0159342 -0.0910573 0)
(-0.0191492 -0.0920145 0)
(-0.0222629 -0.092167 0)
(-0.0266536 -0.0930696 0)
(-0.0321885 -0.0943751 0)
(-0.0367658 -0.0938626 0)
(-0.0412547 -0.0950374 0)
(-0.0454383 -0.0947612 0)
(-0.0526915 -0.0935091 0)
(-0.0590346 -0.0908897 0)
(-0.0666419 -0.0903546 0)
(-0.0729642 -0.0893582 0)
(-8.03807e-05 -0.0678125 0)
(-0.000530592 -0.0832737 0)
(-0.00128227 -0.0834679 0)
(-0.00192794 -0.0837388 0)
(-0.00272758 -0.0840291 0)
(-0.00357742 -0.0842831 0)
(-0.00472502 -0.0847689 0)
(-0.00615637 -0.0853498 0)
(-0.00782572 -0.0860128 0)
(-0.00966568 -0.086755 0)
(-0.0122305 -0.0875337 0)
(-0.0153344 -0.0879778 0)
(-0.0187312 -0.0890168 0)
(-0.0229565 -0.0894376 0)
(-0.0260606 -0.0902112 0)
(-0.0291882 -0.0897086 0)
(-0.0345536 -0.0896913 0)
(-0.0401633 -0.0886606 0)
(-0.0468743 -0.0868297 0)
(-0.0531373 -0.086291 0)
(-0.05804 -0.0864091 0)
(-0.0638789 -0.084082 0)
(-0.0713441 -0.0807888 0)
(-0.000166558 -0.0670777 0)
(-0.000772244 -0.0821884 0)
(-0.00164244 -0.0823636 0)
(-0.00250056 -0.082547 0)
(-0.00360343 -0.0828273 0)
(-0.00478687 -0.0832247 0)
(-0.00614704 -0.0836318 0)
(-0.0077675 -0.0840155 0)
(-0.00967546 -0.0844438 0)
(-0.0117964 -0.0847537 0)
(-0.0138445 -0.0845609 0)
(-0.0155944 -0.0848714 0)
(-0.0184922 -0.0850234 0)
(-0.0217643 -0.0854075 0)
(-0.0263988 -0.0847779 0)
(-0.0318443 -0.0849088 0)
(-0.0365133 -0.0844505 0)
(-0.0408588 -0.0832334 0)
(-0.0447956 -0.0837119 0)
(-0.0487842 -0.0822088 0)
(-0.055746 -0.0785098 0)
(-0.0627085 -0.0766694 0)
(-0.0681214 -0.0752152 0)
(-0.0001895 -0.0669845 0)
(-0.000732837 -0.0818829 0)
(-0.00149833 -0.0820058 0)
(-0.00216325 -0.0820122 0)
(-0.00298183 -0.0819762 0)
(-0.00399167 -0.0819846 0)
(-0.00521161 -0.0820186 0)
(-0.00665425 -0.0820838 0)
(-0.00837208 -0.0821612 0)
(-0.0105105 -0.0823274 0)
(-0.0132771 -0.0826197 0)
(-0.0167601 -0.0824369 0)
(-0.0199203 -0.0821475 0)
(-0.023189 -0.0816795 0)
(-0.0262786 -0.0817417 0)
(-0.0290673 -0.0816842 0)
(-0.0326696 -0.0807728 0)
(-0.03757 -0.0797206 0)
(-0.0431433 -0.0765522 0)
(-0.0494457 -0.07481 0)
(-0.0541502 -0.074272 0)
(-0.0593002 -0.0716871 0)
(-0.0654964 -0.0682858 0)
(-0.000249568 -0.0661357 0)
(-0.000923575 -0.0807455 0)
(-0.00184282 -0.0808923 0)
(-0.00271812 -0.0808772 0)
(-0.00377439 -0.0808703 0)
(-0.00495413 -0.0808428 0)
(-0.00631305 -0.080738 0)
(-0.00786241 -0.0805545 0)
(-0.00960322 -0.0802949 0)
(-0.0115017 -0.0799323 0)
(-0.0134335 -0.0794626 0)
(-0.0152775 -0.079183 0)
(-0.01778 -0.0789998 0)
(-0.0208105 -0.0785444 0)
(-0.0243615 -0.0775303 0)
(-0.0288832 -0.0761751 0)
(-0.033706 -0.0750186 0)
(-0.038042 -0.0735638 0)
(-0.0421232 -0.0731699 0)
(-0.0459897 -0.0713467 0)
(-0.0512621 -0.0681897 0)
(-0.0570537 -0.0656282 0)
(-0.0622954 -0.0628263 0)
(-0.000209998 -0.0659545 0)
(-0.000653778 -0.080379 0)
(-0.00135315 -0.0804529 0)
(-0.00198281 -0.0802562 0)
(-0.00283541 -0.0800119 0)
(-0.00386025 -0.0797298 0)
(-0.00512579 -0.0794258 0)
(-0.00664668 -0.079115 0)
(-0.00843266 -0.0787949 0)
(-0.0105006 -0.0784715 0)
(-0.0129258 -0.0781037 0)
(-0.015753 -0.0773229 0)
(-0.0186613 -0.0764151 0)
(-0.0216986 -0.0755909 0)
(-0.0248588 -0.0747223 0)
(-0.0279373 -0.07383 0)
(-0.0311637 -0.072541 0)
(-0.0350021 -0.070596 0)
(-0.0394792 -0.0678987 0)
(-0.0443679 -0.0655851 0)
(-0.0489876 -0.0635367 0)
(-0.0538512 -0.0606777 0)
(-0.059036 -0.057307 0)
(-0.000204909 -0.0652156 0)
(-0.000730537 -0.0794411 0)
(-0.00150364 -0.0794923 0)
(-0.00220828 -0.0791697 0)
(-0.00311161 -0.0787757 0)
(-0.00412876 -0.0782774 0)
(-0.00531276 -0.0776828 0)
(-0.00668559 -0.0770181 0)
(-0.00826129 -0.0762903 0)
(-0.0100517 -0.0754994 0)
(-0.012071 -0.0746981 0)
(-0.0142674 -0.0740443 0)
(-0.0167067 -0.0732179 0)
(-0.0194609 -0.0721026 0)
(-0.0225562 -0.0708195 0)
(-0.0260541 -0.0692681 0)
(-0.0298927 -0.0675454 0)
(-0.0338099 -0.0658198 0)
(-0.0376649 -0.064001 0)
(-0.0416148 -0.0616117 0)
(-0.0460008 -0.0587268 0)
(-0.0507703 -0.0557139 0)
(-0.0555611 -0.0523109 0)
(-9.46987e-05 -0.0650997 0)
(-0.000409242 -0.079193 0)
(-0.00104695 -0.0792092 0)
(-0.00157281 -0.0787953 0)
(-0.00232819 -0.0783045 0)
(-0.00320206 -0.077709 0)
(-0.00427622 -0.0770354 0)
(-0.00557947 -0.0762936 0)
(-0.00713161 -0.0754809 0)
(-0.00894181 -0.0745722 0)
(-0.0109784 -0.0734826 0)
(-0.0133111 -0.0722343 0)
(-0.0158959 -0.0709718 0)
(-0.0186401 -0.0696619 0)
(-0.0215347 -0.0681754 0)
(-0.0245823 -0.0665375 0)
(-0.027785 -0.0646754 0)
(-0.0312396 -0.0624517 0)
(-0.0350076 -0.0599209 0)
(-0.0389749 -0.0572436 0)
(-0.0430535 -0.054393 0)
(-0.0473884 -0.0511822 0)
(-0.0519059 -0.0475795 0)
(-1.3102e-05 -0.064765 0)
(-0.000307608 -0.0784068 0)
(-0.00094999 -0.0783666 0)
(-0.00143375 -0.0777939 0)
(-0.00213871 -0.077144 0)
(-0.00290838 -0.0763585 0)
(-0.0037697 -0.075404 0)
(-0.00474392 -0.0743044 0)
(-0.00592229 -0.0731118 0)
(-0.00740791 -0.071894 0)
(-0.00926376 -0.0707241 0)
(-0.0114296 -0.0695473 0)
(-0.0138615 -0.0682318 0)
(-0.0165397 -0.0666915 0)
(-0.0194202 -0.0649917 0)
(-0.0224648 -0.0630966 0)
(-0.0256689 -0.0610162 0)
(-0.0290035 -0.0587629 0)
(-0.0324472 -0.0562584 0)
(-0.0360387 -0.0534362 0)
(-0.0398246 -0.0503076 0)
(-0.043865 -0.0469125 0)
(-0.0480799 -0.0431678 0)
(0.000213703 -0.0648501 0)
(-0.000105867 -0.0782346 0)
(-0.000874338 -0.0781722 0)
(-0.00135689 -0.0775455 0)
(-0.00207621 -0.0768364 0)
(-0.00280945 -0.0759874 0)
(-0.00356186 -0.0749331 0)
(-0.0043872 -0.0737206 0)
(-0.00535132 -0.0723348 0)
(-0.00646898 -0.0707475 0)
(-0.0078155 -0.0690165 0)
(-0.00948168 -0.0672123 0)
(-0.0115173 -0.0654327 0)
(-0.0140114 -0.0637753 0)
(-0.0168395 -0.0620668 0)
(-0.0199078 -0.0602188 0)
(-0.023038 -0.0580535 0)
(-0.0262515 -0.0555772 0)
(-0.0295362 -0.0528183 0)
(-0.0329258 -0.0498145 0)
(-0.0364387 -0.0465363 0)
(-0.0401515 -0.042953 0)
(-0.0440682 -0.0390381 0)
(0.000358722 -0.064725 0)
(-0.000109877 -0.0772063 0)
(-0.00129657 -0.0771082 0)
(-0.00197145 -0.0764622 0)
(-0.00288245 -0.075695 0)
(-0.00371249 -0.0748053 0)
(-0.00460785 -0.0738336 0)
(-0.00550994 -0.0726439 0)
(-0.00642126 -0.0711967 0)
(-0.007374 -0.0695251 0)
(-0.00840248 -0.0676804 0)
(-0.00958701 -0.0657172 0)
(-0.011001 -0.063647 0)
(-0.0126416 -0.0613892 0)
(-0.014594 -0.059064 0)
(-0.0169162 -0.056729 0)
(-0.0197471 -0.0545142 0)
(-0.0229868 -0.0522363 0)
(-0.0262884 -0.0495989 0)
(-0.0295332 -0.0465197 0)
(-0.0328287 -0.0430663 0)
(-0.0362485 -0.0392978 0)
(-0.0398719 -0.0352042 0)
(0.000404811 -0.0648696 0)
(-0.000532776 -0.0762254 0)
(-0.00246645 -0.0761051 0)
(-0.00364321 -0.0755802 0)
(-0.00501592 -0.0748816 0)
(-0.00618693 -0.0740589 0)
(-0.00733114 -0.0730778 0)
(-0.00838516 -0.0718992 0)
(-0.00933838 -0.070489 0)
(-0.0101791 -0.0688353 0)
(-0.010946 -0.0669129 0)
(-0.0117292 -0.0647791 0)
(-0.0126259 -0.062498 0)
(-0.013639 -0.0600414 0)
(-0.0148053 -0.057535 0)
(-0.0162172 -0.0548716 0)
(-0.0179059 -0.0519912 0)
(-0.0198763 -0.0489698 0)
(-0.0224542 -0.0461045 0)