/*--------------------------------*- C++ -*----------------------------------*\
| =========                 |                                                 |
| \\      /  F ield         | OpenFOAM: The Open Source CFD Toolbox           |
|  \\    /   O peration     | Version:  2.4.0                                 |
|   \\  /    A nd           | Web:      www.OpenFOAM.org                      |
|    \\/     M anipulation  |                                                 |
\*---------------------------------------------------------------------------*/
FoamFile
{
    version     2.0;
    format      ascii;
    class       volVectorField;
    location    "0.55";
    object      U.air;
}
// * * * * * * * * * * * * * * * * * * * * * * * * * * * * * * * * * * * * * //

dimensions      [0 1 -1 0 0 0 0];

internalField   nonuniform List<vector> 
2268
(
(0.0150719 -0.0062936 0)
(0.0425165 -0.00672213 0)
(0.0731209 -0.00491411 0)
(0.0921303 -0.0081885 0)
(0.137504 -0.00651799 0)
(0.157601 -0.0051813 0)
(0.177372 -0.00589794 0)
(0.209064 -0.00687881 0)
(0.24396 -0.00747999 0)
(0.273679 -0.00490345 0)
(0.281917 -0.00302364 0)
(0.294651 -0.0028111 0)
(0.298267 -0.0033019 0)
(0.306116 -0.00698706 0)
(0.296702 -0.00878093 0)
(0.27066 -0.014567 0)
(0.232346 -0.00275881 0)
(0.166494 -0.00271774 0)
(0.1098 0.0121836 0)
(0.0533419 -0.000637898 0)
(0.0474625 0.00629344 0)
(0.0221237 0.00909197 0)
(-0.0166869 0.00255139 0)
(0.0154958 -0.0196859 0)
(0.0415218 -0.0217102 0)
(0.0741676 -0.0138987 0)
(0.0952515 -0.0264563 0)
(0.133887 -0.0194548 0)
(0.157025 -0.0136898 0)
(0.180774 -0.0204042 0)
(0.212201 -0.0208659 0)
(0.245543 -0.0241499 0)
(0.266032 -0.0129499 0)
(0.280774 -0.00558967 0)
(0.297593 -0.0048987 0)
(0.310827 -0.00145853 0)
(0.308512 0.00845036 0)
(0.299417 0.030301 0)
(0.275336 0.0517229 0)
(0.233637 0.0548532 0)
(0.174254 0.0572612 0)
(0.105568 0.0384558 0)
(0.0696005 0.0273461 0)
(0.0406201 0.0103403 0)
(0.0269698 0.0194947 0)
(-0.0156085 -0.000492604 0)
(0.0158795 -0.0366427 0)
(0.040879 -0.0382516 0)
(0.0744732 -0.0312502 0)
(0.0979135 -0.0424187 0)
(0.128731 -0.0358994 0)
(0.159066 -0.031295 0)
(0.183513 -0.0359317 0)
(0.216914 -0.0358526 0)
(0.243292 -0.0369075 0)
(0.258043 -0.0230606 0)
(0.281958 -0.0183948 0)
(0.309805 -0.01623 0)
(0.324628 -0.0110458 0)
(0.325897 -0.00204801 0)
(0.310903 -0.0013428 0)
(0.276743 0.0103228 0)
(0.220115 0.0463001 0)
(0.167748 0.0652884 0)
(0.0909145 0.0617463 0)
(0.0704415 0.0336893 0)
(0.0481216 0.0235776 0)
(0.0496209 0.0312459 0)
(0.0244645 0.0116501 0)
(0.0165623 -0.0414761 0)
(0.0392174 -0.0442946 0)
(0.0742149 -0.0357127 0)
(0.101131 -0.0508812 0)
(0.122562 -0.0440586 0)
(0.159762 -0.0417998 0)
(0.18664 -0.05264 0)
(0.218356 -0.0519182 0)
(0.233968 -0.0528038 0)
(0.255958 -0.0391763 0)
(0.287774 -0.0402502 0)
(0.312635 -0.0322858 0)
(0.317451 -0.0136053 0)
(0.313514 0.0192303 0)
(0.295818 0.0759619 0)
(0.275982 0.116601 0)
(0.238224 0.112009 0)
(0.179039 0.103854 0)
(0.105869 0.0754477 0)
(0.0682892 0.0417804 0)
(0.0389311 0.0199932 0)
(0.046891 0.0367012 0)
(0.0179965 0.0303015 0)
(0.0154552 -0.151788 0)
(0.0345058 -0.152939 0)
(0.0675197 -0.149972 0)
(0.0971371 -0.156234 0)
(0.10903 -0.15553 0)
(0.142136 -0.156384 0)
(0.178138 -0.160595 0)
(0.195693 -0.156041 0)
(0.21117 -0.156483 0)
(0.246955 -0.146863 0)
(0.274135 -0.146568 0)
(0.296191 -0.128198 0)
(0.316413 -0.107183 0)
(0.344731 -0.0743765 0)
(0.32838 -0.0325404 0)
(0.274773 0.00730228 0)
(0.222535 0.111457 0)
(0.167262 0.142389 0)
(0.105026 0.115574 0)
(0.0750975 0.0658919 0)
(0.0231404 0.0343533 0)
(0.0324192 0.0348181 0)
(0.0246527 0.0419916 0)
(0.00401745 -0.0126972 0)
(0.012594 -0.00765205 0)
(0.0227434 -0.0148016 0)
(0.0391303 0.00148184 0)
(0.0437329 -0.00217219 0)
(0.0566972 -0.00750062 0)
(0.0794734 0.00714367 0)
(0.0971045 0.0171667 0)
(0.112657 0.0166874 0)
(0.136677 0.0254985 0)
(0.155144 0.0448615 0)
(0.168667 0.0664612 0)
(0.181084 0.105614 0)
(0.204087 0.167867 0)
(0.192761 0.103908 0)
(0.2165 0.0754054 0)
(0.163427 0.100051 0)
(0.125537 0.150546 0)
(0.0894027 0.116183 0)
(0.0709854 0.0825849 0)
(0.0120972 0.0426416 0)
(0.00282969 0.0403366 0)
(0.0133731 0.0580973 0)
(-0.00598906 -0.160387 0)
(-0.00889859 -0.16106 0)
(-0.0175019 -0.16408 0)
(-0.0149954 -0.162289 0)
(-0.010583 -0.161743 0)
(-0.00016591 -0.166391 0)
(0.0158645 -0.16194 0)
(0.02945 -0.157491 0)
(0.0482841 -0.154298 0)
(0.0593399 -0.150124 0)
(0.0606823 -0.143902 0)
(0.0549553 -0.142972 0)
(0.039187 -0.150368 0)
(0.0404173 -0.177108 0)
(0.0821657 -0.118514 0)
(0.186521 0.0492375 0)
(0.0865689 0.11758 0)
(0.0698177 0.146755 0)
(0.0360523 0.134593 0)
(0.0463708 0.0946323 0)
(0.0131023 0.0599532 0)
(-0.0119494 0.0371938 0)
(0.00831712 0.0548758 0)
(-0.00529838 -0.0187789 0)
(-0.0133442 -0.0192961 0)
(-0.0189047 -0.0275515 0)
(-0.0193934 -0.0231017 0)
(-0.019668 -0.0309256 0)
(-0.00513174 -0.0488755 0)
(0.016066 -0.0417567 0)
(0.0303029 -0.0392103 0)
(0.0569868 -0.0408961 0)
(0.0767561 -0.0317844 0)
(0.0914049 -0.0056445 0)
(0.103656 0.0143132 0)
(0.101552 0.067322 0)
(0.0423822 0.154709 0)
(-0.0779084 0.159245 0)
(-0.0679928 0.0999211 0)
(0.0153408 0.128337 0)
(-0.0710011 0.131896 0)
(-0.0769098 0.103535 0)
(-0.0304719 0.109944 0)
(-0.00944561 0.0736667 0)
(-0.00974105 0.0354284 0)
(0.00989651 0.0565938 0)
(-0.0920017 -0.313175 0)
(-0.0535881 -0.398252 0)
(0.0835846 -0.412887 0)
(0.186918 -0.403176 0)
(0.243655 -0.405908 0)
(0.331245 -0.427648 0)
(0.414788 -0.442691 0)
(0.475669 -0.427014 0)
(0.507804 -0.377381 0)
(0.514469 -0.358472 0)
(0.515214 -0.342747 0)
(0.55911 -0.333765 0)
(0.650207 -0.3159 0)
(0.65126 -0.122166 0)
(0.47712 -0.242593 0)
(0.224355 -0.468697 0)
(0.111225 -0.307469 0)
(0.0148036 -0.206492 0)
(0.126414 -0.236694 0)
(-0.0530466 -0.069449 0)
(0.0177489 -0.227661 0)
(0.211664 -0.324488 0)
(0.357793 -0.258874 0)
(0.467721 -0.202344 0)
(0.594364 -0.201439 0)
(0.691882 -0.206916 0)
(0.761678 -0.166364 0)
(0.81876 -0.0817905 0)
(0.81186 -0.0284643 0)
(0.77584 -0.0392231 0)
(0.780707 -0.102073 0)
(0.904421 -0.0661617 0)
(1.07627 0.296222 0)
(1.02719 0.39592 0)
(0.455623 0.217977 0)
(0.223413 -0.0485721 0)
(0.246397 0.00696589 0)
(0.276098 0.127793 0)
(-0.0304198 -0.0826865 0)
(0.131726 -0.368997 0)
(0.275501 -0.43592 0)
(0.391594 -0.37491 0)
(0.527998 -0.333119 0)
(0.665833 -0.34311 0)
(0.737443 -0.352676 0)
(0.778087 -0.331292 0)
(0.832558 -0.288843 0)
(0.847686 -0.212766 0)
(0.82583 -0.157703 0)
(0.813561 -0.220701 0)
(0.879323 -0.329603 0)
(0.945812 -0.195872 0)
(0.831331 0.0433059 0)
(0.470665 -0.163501 0)
(0.231497 -0.0597874 0)
(0.0850414 -0.266746 0)
(0.124259 0.103679 0)
(0.060963 -0.0724276 0)
(0.253177 -0.222296 0)
(0.330825 -0.343854 0)
(0.412709 -0.363009 0)
(0.543487 -0.312321 0)
(0.664603 -0.297692 0)
(0.727436 -0.283976 0)
(0.74771 -0.253646 0)
(0.777909 -0.202216 0)
(0.77895 -0.128504 0)
(0.778975 -0.0598595 0)
(0.754096 -0.119852 0)
(0.721485 -0.103559 0)
(0.761984 -0.119571 0)
(0.795423 0.154227 0)
(0.564069 0.362634 0)
(0.296147 0.316373 0)
(-0.0938152 -0.12611 0)
(0.0316314 0.0911326 0)
(0.19536 -0.0857407 0)
(0.33673 -0.0433885 0)
(0.410897 -0.185786 0)
(0.437707 -0.282745 0)
(0.52723 -0.332757 0)
(0.618942 -0.32044 0)
(0.660263 -0.298491 0)
(0.658285 -0.275233 0)
(0.664379 -0.229825 0)
(0.672017 -0.193793 0)
(0.67245 -0.183449 0)
(0.733333 -0.187049 0)
(0.847831 0.298195 0)
(0.755013 0.0754488 0)
(0.692888 0.285694 0)
(0.499642 0.245623 0)
(0.401205 0.530839 0)
(0.031145 0.0171853 0)
(0.0768934 0.0589102 0)
(0.282617 -0.000868549 0)
(0.366097 -0.0778962 0)
(0.458433 -0.12176 0)
(0.473798 -0.0971995 0)
(0.517911 -0.169722 0)
(0.57335 -0.288156 0)
(0.619344 -0.292977 0)
(0.621081 -0.26156 0)
(0.604062 -0.219338 0)
(0.608918 -0.168998 0)
(0.637636 -0.200147 0)
(0.718236 0.011752 0)
(0.73097 0.157303 0)
(0.765056 0.366136 0)
(0.679121 1.10004 0)
(0.352167 1.44909 0)
(0.219074 1.29132 0)
(-0.110392 0.258922 0)
(0.0290281 0.122375 0)
(0.296785 0.110209 0)
(0.33702 -0.0901298 0)
(0.456249 -0.118875 0)
(0.482464 -0.011413 0)
(0.532772 0.0823364 0)
(0.577475 -0.0358267 0)
(0.59207 -0.276866 0)
(0.579702 -0.299747 0)
(0.53886 -0.240398 0)
(0.546167 -0.219017 0)
(0.56447 -0.210799 0)
(0.478958 0.247131 0)
(0.347455 0.0383588 0)
(-0.410005 0.274978 0)
(0.68021 0.668461 0)
(0.63831 1.4306 0)
(0.097171 1.35915 0)
(-0.56873 0.257512 0)
(-0.11881 0.141551 0)
(0.295222 -0.0439055 0)
(0.323846 -0.133963 0)
(0.457589 -0.14073 0)
(0.489215 -0.0509312 0)
(0.549568 0.0668099 0)
(0.603785 0.264945 0)
(0.593189 -0.0266641 0)
(0.565137 -0.284184 0)
(0.536454 -0.28223 0)
(0.545161 -0.271452 0)
(0.532908 -0.252085 0)
(0.255911 0.397214 0)
(-0.000702179 0.185163 0)
(-0.521012 0.282664 0)
(-1.00354 0.837226 0)
(0.54766 1.03678 0)
(-0.407446 1.17642 0)
(-0.55465 0.0438844 0)
(-0.478002 0.128859 0)
(-0.00574893 -0.0890672 0)
(-0.0132334 -0.0935818 0)
(-0.0215116 -0.099953 0)
(-0.0233109 -0.107639 0)
(-0.0169714 -0.114165 0)
(-0.0120319 -0.129834 0)
(0.00669455 -0.130019 0)
(0.026888 -0.134496 0)
(0.0500646 -0.129545 0)
(0.0502656 -0.121036 0)
(0.0432747 -0.112301 0)
(0.0393825 -0.119641 0)
(0.0363063 -0.133317 0)
(0.0722597 -0.124381 0)
(0.10318 -0.0641098 0)
(0.119562 0.03802 0)
(0.100879 0.186195 0)
(-0.0161178 0.206396 0)
(-0.118199 0.0813308 0)
(-0.140089 0.00312174 0)
(-0.0943901 0.0439715 0)
(-0.00644971 0.042443 0)
(0.0610002 0.0547683 0)
(-0.00654882 -0.0361789 0)
(-0.0180541 -0.0409068 0)
(-0.0254878 -0.0509449 0)
(-0.0260977 -0.0608353 0)
(-0.0148155 -0.0747329 0)
(-0.00932839 -0.105867 0)
(0.0199423 -0.114405 0)
(0.0520075 -0.115964 0)
(0.0901669 -0.0916529 0)
(0.106527 -0.0626113 0)
(0.120018 -0.0244406 0)
(0.141249 0.00237248 0)
(0.129769 0.0581942 0)
(0.105826 0.112106 0)
(0.0690277 0.132114 0)
(0.0611768 0.128586 0)
(0.0876795 0.204067 0)
(0.182724 0.27188 0)
(0.0563784 0.202131 0)
(-0.026322 0.0555923 0)
(-0.0185966 -0.0938677 0)
(-0.0016216 -0.166285 0)
(0.0593776 -0.154929 0)
(-0.00648936 -0.0102697 0)
(-0.0208721 -0.0145694 0)
(-0.0330326 0.0103483 0)
(-0.0419234 -0.0517621 0)
(-0.0421264 -0.10154 0)
(-0.0404824 -0.0911765 0)
(0.00873963 -0.117352 0)
(0.0564832 -0.14819 0)
(0.0954171 -0.124849 0)
(0.0926635 -0.093068 0)
(0.10204 -0.068769 0)
(0.10795 -0.0744814 0)
(0.111283 -0.0467787 0)
(0.152439 -0.0196294 0)
(0.164117 0.0257123 0)
(0.18765 0.0751982 0)
(0.187796 0.144503 0)
(0.265141 0.22834 0)
(0.335301 0.244454 0)
(0.334153 0.121281 0)
(0.341617 0.0210107 0)
(0.314496 -0.0769456 0)
(0.296695 -0.170853 0)
(-0.0211296 0.382693 0)
(-0.0757449 0.389548 0)
(-0.121392 0.382673 0)
(-0.116825 0.253898 0)
(-0.0751366 0.155255 0)
(-0.0370994 0.131923 0)
(0.0352004 0.105532 0)
(0.0441553 0.060533 0)
(0.0345455 0.0535343 0)
(0.0262648 0.0764696 0)
(0.0579202 0.101477 0)
(0.0592423 0.0855974 0)
(0.0855555 0.104485 0)
(0.108572 0.0388837 0)
(0.119022 0.0704117 0)
(0.16931 0.0798004 0)
(0.196132 0.120561 0)
(0.260799 0.135917 0)
(0.350474 0.161156 0)
(0.441532 0.0850332 0)
(0.508719 -0.0278382 0)
(0.563883 -0.109385 0)
(0.618074 -0.179892 0)
(0.0069729 0.0854781 0)
(-0.0129473 0.0876795 0)
(-0.0475825 0.0844515 0)
(-0.117936 0.11642 0)
(-0.176055 0.220696 0)
(-0.172761 0.171012 0)
(-0.240217 0.261801 0)
(-0.367573 0.348357 0)
(-0.411064 0.369943 0)
(-0.418326 0.331818 0)
(-0.322938 0.310902 0)
(-0.248914 0.268934 0)
(-0.132396 0.21707 0)
(-0.025937 0.103076 0)
(0.0320366 0.107018 0)
(0.112375 0.104398 0)
(0.14508 0.153665 0)
(0.20155 0.131193 0)
(0.28602 0.101502 0)
(0.360604 0.0948998 0)
(0.464005 0.0523408 0)
(0.500279 -0.0269909 0)
(0.570596 -0.0993753 0)
(0.00548044 0.908031 0)
(0.108382 0.938492 0)
(-0.218117 1.39979 0)
(-0.449767 1.07044 0)
(-0.0777448 0.27311 0)
(-0.094521 0.108304 0)
(-0.496466 0.168801 0)
(-0.684874 0.0428241 0)
(-0.751457 -0.0364924 0)
(-0.687254 -0.0463434 0)
(-0.592695 0.0329032 0)
(-0.539578 0.173427 0)
(-0.493211 0.241402 0)
(-0.423408 0.280743 0)
(-0.336934 0.2936 0)
(-0.235392 0.325331 0)
(-0.0908231 0.381262 0)
(0.0392336 0.323389 0)
(0.196208 0.225824 0)
(0.294121 0.237189 0)
(0.441842 0.188345 0)
(0.487375 0.117243 0)
(0.51483 0.0587452 0)
(0.00329139 -0.907784 0)
(0.00913074 -0.618035 0)
(0.16853 -0.544473 0)
(0.617836 -0.771162 0)
(0.659145 -0.443189 0)
(0.949201 0.558077 0)
(0.53683 0.904431 0)
(-0.0712261 0.871721 0)
(-0.56554 0.755386 0)
(-0.513494 0.49522 0)
(-0.501422 0.127253 0)
(-0.460759 -0.176079 0)
(-0.478685 -0.252467 0)
(-0.467035 -0.164642 0)
(-0.432936 -0.0666871 0)
(-0.34379 0.0353031 0)
(-0.275506 0.119147 0)
(-0.170667 0.197046 0)
(-0.0672905 0.270818 0)
(-0.0255251 0.156198 0)
(0.0677207 0.114731 0)
(0.111668 0.00263394 0)
(0.158412 -0.0964337 0)
(-0.151086 0.757653 0)
(-0.314434 0.610649 0)
(-0.22886 0.233694 0)
(-0.150968 -0.145131 0)
(-0.248119 -0.338977 0)
(-0.0389129 -0.103207 0)
(0.326801 0.547619 0)
(0.0136847 0.411511 0)
(0.327856 -0.386885 0)
(0.350101 -0.675895 0)
(0.257888 -0.46142 0)
(0.357153 0.0494837 0)
(0.174482 0.701422 0)
(-0.156671 0.872315 0)
(-0.235557 0.578725 0)
(-0.244103 0.253026 0)
(-0.216999 0.0141653 0)
(-0.171614 -0.117098 0)
(-0.138037 -0.167998 0)
(-0.0924253 -0.0642595 0)
(-0.0984016 -0.041204 0)
(-0.0446355 0.248774 0)
(-0.0221108 0.386405 0)
(0.0336218 -0.193234 0)
(0.201885 -0.323546 0)
(0.270874 -0.375249 0)
(0.208916 -0.360031 0)
(-0.00842405 -0.311765 0)
(-0.15099 -0.0550032 0)
(0.0777079 0.444902 0)
(0.384289 0.415779 0)
(0.470627 0.360956 0)
(0.078572 0.100236 0)
(-0.206362 -0.251406 0)
(-0.245612 -0.434242 0)
(-0.0942385 -0.508699 0)
(0.205257 -0.689403 0)
(0.414636 -0.635795 0)
(0.495008 -0.392356 0)
(0.493008 -0.147025 0)
(0.520631 0.0375487 0)
(0.464802 0.249239 0)
(0.385389 0.030414 0)
(0.273633 -0.129239 0)
(0.232968 -0.429226 0)
(0.244408 -0.614621 0)
(0.00767436 0.263056 0)
(-0.029303 0.162472 0)
(-0.0648826 -0.0239275 0)
(-0.0771827 -0.16392 0)
(-0.114171 -0.230244 0)
(-0.116724 -0.201077 0)
(-0.0223263 -0.0257714 0)
(0.330561 0.184981 0)
(0.399018 0.188899 0)
(0.386107 0.107364 0)
(0.280387 -0.0153542 0)
(0.158425 -0.0946484 0)
(0.146824 -0.025006 0)
(0.142291 -0.0312809 0)
(0.127896 -0.131293 0)
(0.135216 -0.229599 0)
(0.169028 -0.310228 0)
(0.196153 -0.386204 0)
(0.255132 -0.388407 0)
(0.367929 -0.378368 0)
(0.418966 -0.350247 0)
(0.42561 -0.298336 0)
(0.39841 -0.255496 0)
(0.0292384 -0.0269432 0)
(0.0976497 -0.123265 0)
(0.0989873 -0.145152 0)
(0.0444555 -0.151398 0)
(-0.0264736 -0.143198 0)
(-0.0651126 -0.0875343 0)
(-0.0472442 -0.0429181 0)
(0.0103633 0.00990961 0)
(0.229191 0.15842 0)
(0.264753 0.121514 0)
(0.248358 0.003643 0)
(0.225885 -0.210754 0)
(0.21076 -0.313395 0)
(0.225762 -0.339058 0)
(0.23215 -0.315803 0)
(0.224681 -0.262721 0)
(0.240027 -0.209577 0)
(0.259268 -0.12207 0)
(0.275468 -0.029598 0)
(0.26004 0.0261886 0)
(0.228975 0.0021626 0)
(0.171373 -0.100784 0)
(0.13035 -0.19527 0)
(0.00786984 0.0504936 0)
(0.0207206 -0.009275 0)
(0.0261716 -0.083574 0)
(0.0227369 -0.13571 0)
(-0.00653423 -0.158391 0)
(-0.0260671 -0.14388 0)
(-0.0270574 -0.119014 0)
(-0.0224203 -0.0855167 0)
(0.0397208 0.0283175 0)
(0.160481 0.0664709 0)
(0.17441 0.0227943 0)
(0.203841 -0.105564 0)
(0.158346 -0.175241 0)
(0.116263 -0.229142 0)
(0.0982112 -0.273014 0)
(0.0781266 -0.294428 0)
(0.0525921 -0.310738 0)
(0.0446404 -0.32633 0)
(0.0553273 -0.323894 0)
(0.0941195 -0.311846 0)
(0.135983 -0.298912 0)
(0.142992 -0.292481 0)
(0.12175 -0.287143 0)
(0.0169731 -0.0215675 0)
(0.038452 -0.0604621 0)
(0.0375635 -0.076659 0)
(0.0268775 -0.0908524 0)
(0.00645667 -0.0979135 0)
(-0.011052 -0.0861875 0)
(-0.0249658 -0.0783333 0)
(-0.030689 -0.0670332 0)
(-0.0254317 -0.0414526 0)
(0.0577998 -0.00509912 0)
(0.105351 -0.0533534 0)
(0.11649 -0.129107 0)
(0.100038 -0.17039 0)
(0.0784 -0.206386 0)
(0.0578103 -0.225137 0)
(0.0393438 -0.227178 0)
(0.0223887 -0.210546 0)
(0.00561146 -0.181139 0)
(-0.0108076 -0.145156 0)
(-0.0225076 -0.114652 0)
(-0.0281791 -0.107048 0)
(-0.0392316 -0.122486 0)
(-0.0522369 -0.138952 0)
(0.0110788 -0.036566 0)
(0.0275422 -0.0755565 0)
(0.0334588 -0.0925884 0)
(0.027458 -0.0993151 0)
(0.014106 -0.0990562 0)
(0.00452227 -0.0904242 0)
(-0.00208455 -0.0826878 0)
(-0.00409917 -0.0681588 0)
(0.00167631 -0.0618407 0)
(0.0320755 -0.0494879 0)
(0.0654902 -0.0695205 0)
(0.0625546 -0.117059 0)
(0.0498033 -0.166125 0)
(0.0299474 -0.208395 0)
(0.00335095 -0.231533 0)
(-0.0181373 -0.239425 0)
(-0.0404398 -0.243773 0)
(-0.0576498 -0.24506 0)
(-0.0676515 -0.238761 0)
(-0.0677228 -0.229618 0)
(-0.0634696 -0.220069 0)
(-0.0616331 -0.211526 0)
(-0.0634471 -0.203767 0)
(0.00589833 -0.0422941 0)
(0.0136615 -0.0725004 0)
(0.0150384 -0.0809391 0)
(0.0115025 -0.0846617 0)
(0.00674803 -0.0857571 0)
(0.00446083 -0.0829434 0)
(0.00280602 -0.0797391 0)
(0.0068027 -0.0762668 0)
(0.0138203 -0.0742611 0)
(0.0282951 -0.0664644 0)
(0.0456256 -0.0778639 0)
(0.0479124 -0.101666 0)
(0.0374722 -0.135592 0)
(0.0164927 -0.168426 0)
(-0.0101834 -0.192946 0)
(-0.0289299 -0.203942 0)
(-0.0428397 -0.202093 0)
(-0.0556709 -0.195553 0)
(-0.065049 -0.181666 0)
(-0.0703831 -0.172832 0)
(-0.0754986 -0.169086 0)
(-0.0781961 -0.167667 0)
(-0.0806694 -0.168138 0)
(0.00416091 -0.0559437 0)
(0.00712096 -0.0795054 0)
(0.00700801 -0.0820398 0)
(0.00613163 -0.0846725 0)
(0.00494052 -0.08579 0)
(0.00528714 -0.0840471 0)
(0.00762533 -0.0832441 0)
(0.0126661 -0.0809746 0)
(0.0176602 -0.0821611 0)
(0.0276425 -0.0793418 0)
(0.0378546 -0.0881122 0)
(0.0411341 -0.103289 0)
(0.0401444 -0.126565 0)
(0.028635 -0.14873 0)
(0.00867549 -0.171039 0)
(-0.0119196 -0.188315 0)
(-0.0298522 -0.195275 0)
(-0.0422968 -0.195195 0)
(-0.0510307 -0.186738 0)
(-0.0618677 -0.180688 0)
(-0.0734188 -0.177945 0)
(-0.0797119 -0.173296 0)
(-0.0837739 -0.167648 0)
(0.0023906 -0.0589745 0)
(0.00398849 -0.0798813 0)
(0.00494976 -0.0820744 0)
(0.00541039 -0.0842996 0)
(0.00550497 -0.0860394 0)
(0.00683281 -0.0863954 0)
(0.00917421 -0.0869246 0)
(0.0133743 -0.0867271 0)
(0.0177639 -0.0881447 0)
(0.0247917 -0.0875315 0)
(0.0324394 -0.0934225 0)
(0.0371328 -0.105663 0)
(0.0387029 -0.124701 0)
(0.0329758 -0.142041 0)
(0.0206223 -0.158633 0)
(0.00663312 -0.172281 0)
(-0.0122124 -0.180618 0)
(-0.0289771 -0.18404 0)
(-0.0438883 -0.177388 0)
(-0.0545948 -0.167481 0)
(-0.0705487 -0.165633 0)
(-0.0820009 -0.166418 0)
(-0.0886791 -0.162619 0)
(0.00139605 -0.0615262 0)
(0.00310295 -0.0813989 0)
(0.00459328 -0.0830032 0)
(0.00577687 -0.0847707 0)
(0.00639758 -0.0864964 0)
(0.00706091 -0.0879461 0)
(0.00821528 -0.0892972 0)
(0.0102663 -0.0906333 0)
(0.0127958 -0.0927615 0)
(0.0167138 -0.0946471 0)
(0.0232595 -0.100582 0)
(0.0274513 -0.110629 0)
(0.0271276 -0.121864 0)
(0.0223373 -0.132174 0)
(0.0133298 -0.145687 0)
(0.00173166 -0.15533 0)
(-0.0169093 -0.160542 0)
(-0.0325444 -0.161415 0)
(-0.0454708 -0.15996 0)
(-0.0582096 -0.151522 0)
(-0.0691473 -0.148807 0)
(-0.0822269 -0.153162 0)
(-0.0883577 -0.1539 0)
(0.00103537 -0.0631082 0)
(0.00287597 -0.0828287 0)
(0.00432465 -0.0842241 0)
(0.00475708 -0.0857812 0)
(0.00511653 -0.0870339 0)
(0.00467426 -0.0885278 0)
(0.00440388 -0.089988 0)
(0.00467464 -0.0918344 0)
(0.00509298 -0.0945455 0)
(0.00666191 -0.0988471 0)
(0.00852991 -0.104429 0)
(0.0103381 -0.111639 0)
(0.0083352 -0.119284 0)
(0.00537334 -0.128717 0)
(-0.00259075 -0.136893 0)
(-0.0138957 -0.140358 0)
(-0.0280131 -0.146353 0)
(-0.0404076 -0.151158 0)
(-0.0514649 -0.150052 0)
(-0.0637794 -0.143817 0)
(-0.0713785 -0.141147 0)
(-0.0793659 -0.148115 0)
(-0.0847533 -0.150178 0)
(0.00111984 -0.0651899 0)
(0.0021718 -0.0840183 0)
(0.00217009 -0.0842605 0)
(0.00239195 -0.085283 0)
(0.00249808 -0.0864277 0)
(0.00262897 -0.0876519 0)
(0.00275122 -0.0894924 0)
(0.00283735 -0.0915008 0)
(0.00284936 -0.0945258 0)
(0.00268858 -0.098796 0)
(0.00169751 -0.10355 0)
(0.000584989 -0.108944 0)
(-0.00328962 -0.115398 0)
(-0.00844637 -0.122041 0)
(-0.0149337 -0.126781 0)
(-0.0222308 -0.131017 0)
(-0.029417 -0.136878 0)
(-0.0392235 -0.140175 0)
(-0.0513569 -0.137799 0)
(-0.0598793 -0.133431 0)
(-0.0655876 -0.133464 0)
(-0.0732021 -0.139398 0)
(-0.0792557 -0.141244 0)
(0.000715588 -0.0665286 0)
(0.0011044 -0.0840732 0)
(0.00132106 -0.0845933 0)
(0.00181615 -0.0857186 0)
(0.00199552 -0.0866255 0)
(0.00249249 -0.0877069 0)
(0.00279133 -0.0892809 0)
(0.00272165 -0.0910102 0)
(0.00243097 -0.0933666 0)
(0.00141548 -0.0969612 0)
(-0.000908774 -0.102237 0)
(-0.00321729 -0.107662 0)
(-0.00723031 -0.111133 0)
(-0.0126878 -0.116357 0)
(-0.0184481 -0.120926 0)
(-0.0252239 -0.125576 0)
(-0.0316124 -0.126767 0)
(-0.0416806 -0.127156 0)
(-0.0518168 -0.127664 0)
(-0.0599025 -0.125939 0)
(-0.0674153 -0.127178 0)
(-0.0745688 -0.132486 0)
(-0.0830012 -0.133942 0)
(0.00041756 -0.0671073 0)
(0.0006153 -0.0847107 0)
(0.00129395 -0.0852457 0)
(0.0014928 -0.0862909 0)
(0.00154809 -0.0871382 0)
(0.00152929 -0.088283 0)
(0.00140773 -0.0896203 0)
(0.00129534 -0.0913642 0)
(0.00118071 -0.0937294 0)
(0.000557927 -0.0962954 0)
(-0.00177677 -0.0996679 0)
(-0.00468705 -0.103138 0)
(-0.00762565 -0.106477 0)
(-0.0122254 -0.110783 0)
(-0.0179541 -0.114807 0)
(-0.025117 -0.118411 0)
(-0.0327905 -0.120524 0)
(-0.0399577 -0.120993 0)
(-0.0469521 -0.121658 0)
(-0.0535773 -0.119557 0)
(-0.0607282 -0.120494 0)
(-0.0665761 -0.124767 0)
(-0.0774264 -0.125444 0)
(0.000390676 -0.0676892 0)
(0.000533666 -0.0846948 0)
(6.75796e-05 -0.0851234 0)
(-0.000230329 -0.085667 0)
(-0.000672497 -0.0867152 0)
(-0.00118002 -0.0880935 0)
(-0.00173275 -0.0895639 0)
(-0.00238986 -0.0911372 0)
(-0.00326915 -0.0925709 0)
(-0.00443074 -0.094285 0)
(-0.00569872 -0.0964234 0)
(-0.00920294 -0.0993652 0)
(-0.0126052 -0.103466 0)
(-0.0162121 -0.105439 0)
(-0.0208151 -0.107984 0)
(-0.0267233 -0.109161 0)
(-0.0346835 -0.110507 0)
(-0.0424623 -0.112564 0)
(-0.0491146 -0.111702 0)
(-0.0565741 -0.111122 0)
(-0.0636824 -0.112005 0)
(-0.0707266 -0.113172 0)
(-0.0800477 -0.111282 0)
(0.000111143 -0.0678445 0)
(-0.000138605 -0.0845138 0)
(-0.000572709 -0.0848572 0)
(-0.000921917 -0.0855711 0)
(-0.00146304 -0.0862672 0)
(-0.00205816 -0.0870388 0)
(-0.00296612 -0.0882214 0)
(-0.00414663 -0.0898064 0)
(-0.00555575 -0.0917584 0)
(-0.00725616 -0.0929794 0)
(-0.00946273 -0.095035 0)
(-0.0121577 -0.0980573 0)
(-0.0162251 -0.0998629 0)
(-0.0206458 -0.1024 0)
(-0.0257238 -0.104346 0)
(-0.0306365 -0.105043 0)
(-0.0348278 -0.106451 0)
(-0.0402071 -0.10741 0)
(-0.0473961 -0.10681 0)
(-0.0539382 -0.106911 0)
(-0.059475 -0.10715 0)
(-0.0693981 -0.107476 0)
(-0.0769779 -0.105152 0)
(0.000216392 -0.0682127 0)
(0.000167383 -0.0842857 0)
(-0.000309744 -0.0844518 0)
(-0.000741043 -0.0848681 0)
(-0.00138333 -0.0854287 0)
(-0.00222491 -0.0862756 0)
(-0.00315665 -0.0872156 0)
(-0.00432869 -0.0882977 0)
(-0.00591475 -0.0894842 0)
(-0.00830264 -0.0913565 0)
(-0.0102718 -0.0927574 0)
(-0.0120611 -0.0937285 0)
(-0.0151906 -0.095222 0)
(-0.0194483 -0.097164 0)
(-0.0244764 -0.0983619 0)
(-0.0293215 -0.0996145 0)
(-0.0359288 -0.100256 0)
(-0.042704 -0.0986726 0)
(-0.0490546 -0.0992912 0)
(-0.0538994 -0.0984045 0)
(-0.0611495 -0.0981514 0)
(-0.0687396 -0.0963053 0)
(-0.0760413 -0.0961504 0)
(-9.26142e-05 -0.067756 0)
(-0.000691736 -0.0835929 0)
(-0.00139609 -0.0838761 0)
(-0.00202665 -0.0843217 0)
(-0.00283353 -0.0848356 0)
(-0.00384447 -0.0854977 0)
(-0.00502516 -0.0862985 0)
(-0.00646519 -0.0872203 0)
(-0.00817572 -0.0880563 0)
(-0.0100706 -0.08857 0)
(-0.0124296 -0.0895594 0)
(-0.0159342 -0.0910573 0)
(-0.0191492 -0.0920145 0)
(-0.0222629 -0.092167 0)
(-0.0266536 -0.0930696 0)
(-0.0321885 -0.0943752 0)
(-0.0367658 -0.0938626 0)
(-0.0412547 -0.0950375 0)
(-0.0454383 -0.0947613 0)
(-0.0526916 -0.0935093 0)
(-0.0590347 -0.0908899 0)
(-0.066642 -0.0903549 0)
(-0.0729644 -0.0893584 0)
(-8.03808e-05 -0.0678125 0)
(-0.000530593 -0.0832737 0)
(-0.00128227 -0.0834679 0)
(-0.00192794 -0.0837388 0)
(-0.00272758 -0.0840291 0)
(-0.00357742 -0.0842831 0)
(-0.00472502 -0.0847689 0)
(-0.00615637 -0.0853498 0)
(-0.00782572 -0.0860128 0)
(-0.00966568 -0.086755 0)
(-0.0122305 -0.0875336 0)
(-0.0153344 -0.0879778 0)
(-0.0187312 -0.0890167 0)
(-0.0229565 -0.0894376 0)
(-0.0260606 -0.0902112 0)
(-0.0291883 -0.0897087 0)
(-0.0345537 -0.0896913 0)
(-0.0401633 -0.0886607 0)
(-0.0468744 -0.0868298 0)
(-0.0531374 -0.0862911 0)
(-0.0580401 -0.0864093 0)
(-0.0638791 -0.0840822 0)
(-0.0713443 -0.080789 0)
(-0.000166559 -0.0670777 0)
(-0.000772244 -0.0821884 0)
(-0.00164244 -0.0823636 0)
(-0.00250056 -0.0825471 0)
(-0.00360343 -0.0828273 0)
(-0.00478687 -0.0832247 0)
(-0.00614704 -0.0836318 0)
(-0.0077675 -0.0840155 0)
(-0.00967546 -0.0844437 0)
(-0.0117964 -0.0847537 0)
(-0.0138445 -0.0845609 0)
(-0.0155944 -0.0848714 0)
(-0.0184922 -0.0850234 0)
(-0.0217643 -0.0854075 0)
(-0.0263988 -0.0847779 0)
(-0.0318443 -0.0849088 0)
(-0.0365133 -0.0844505 0)
(-0.0408588 -0.0832335 0)
(-0.0447957 -0.083712 0)
(-0.0487843 -0.0822089 0)
(-0.0557461 -0.07851 0)
(-0.0627086 -0.0766695 0)
(-0.0681216 -0.0752154 0)
(-0.0001895 -0.0669845 0)
(-0.000732837 -0.0818829 0)
(-0.00149833 -0.0820059 0)
(-0.00216325 -0.0820122 0)
(-0.00298183 -0.0819762 0)
(-0.00399167 -0.0819846 0)
(-0.00521161 -0.0820186 0)
(-0.00665425 -0.0820837 0)
(-0.00837207 -0.0821612 0)
(-0.0105105 -0.0823274 0)
(-0.0132771 -0.0826197 0)
(-0.0167601 -0.0824369 0)
(-0.0199203 -0.0821475 0)
(-0.023189 -0.0816795 0)
(-0.0262787 -0.0817417 0)
(-0.0290673 -0.0816842 0)
(-0.0326696 -0.0807728 0)
(-0.03757 -0.0797207 0)
(-0.0431433 -0.0765523 0)
(-0.0494458 -0.0748101 0)
(-0.0541503 -0.0742721 0)
(-0.0593003 -0.0716872 0)
(-0.0654966 -0.068286 0)
(-0.000249568 -0.0661357 0)
(-0.000923575 -0.0807455 0)
(-0.00184282 -0.0808923 0)
(-0.00271812 -0.0808772 0)
(-0.00377439 -0.0808703 0)
(-0.00495413 -0.0808428 0)
(-0.00631305 -0.080738 0)
(-0.00786241 -0.0805545 0)
(-0.00960321 -0.0802948 0)
(-0.0115017 -0.0799322 0)
(-0.0134335 -0.0794626 0)
(-0.0152775 -0.079183 0)
(-0.01778 -0.0789997 0)
(-0.0208105 -0.0785444 0)
(-0.0243615 -0.0775303 0)
(-0.0288832 -0.0761751 0)
(-0.0337061 -0.0750186 0)
(-0.038042 -0.0735638 0)
(-0.0421232 -0.0731699 0)
(-0.0459897 -0.0713467 0)
(-0.0512622 -0.0681898 0)
(-0.0570538 -0.0656283 0)
(-0.0622955 -0.0628265 0)
(-0.000209998 -0.0659545 0)
(-0.000653778 -0.080379 0)
(-0.00135315 -0.0804529 0)
(-0.00198281 -0.0802562 0)
(-0.00283541 -0.080012 0)
(-0.00386025 -0.0797298 0)
(-0.00512579 -0.0794258 0)
(-0.00664668 -0.079115 0)
(-0.00843266 -0.0787949 0)
(-0.0105006 -0.0784715 0)
(-0.0129258 -0.0781037 0)
(-0.015753 -0.0773229 0)
(-0.0186613 -0.0764151 0)
(-0.0216986 -0.0755909 0)
(-0.0248588 -0.0747223 0)
(-0.0279373 -0.07383 0)
(-0.0311637 -0.072541 0)
(-0.0350021 -0.0705961 0)
(-0.0394792 -0.0678987 0)
(-0.0443679 -0.0655852 0)
(-0.0489876 -0.0635368 0)
(-0.0538513 -0.0606778 0)
(-0.0590361 -0.0573071 0)
(-0.000204909 -0.0652157 0)
(-0.000730537 -0.0794412 0)
(-0.00150364 -0.0794923 0)
(-0.00220828 -0.0791698 0)
(-0.00311161 -0.0787757 0)
(-0.00412876 -0.0782774 0)
(-0.00531276 -0.0776828 0)
(-0.00668559 -0.077018 0)
(-0.00826129 -0.0762903 0)
(-0.0100517 -0.0754994 0)
(-0.012071 -0.0746981 0)
(-0.0142674 -0.0740442 0)
(-0.0167067 -0.0732179 0)
(-0.0194609 -0.0721026 0)
(-0.0225562 -0.0708195 0)
(-0.0260541 -0.0692682 0)
(-0.0298927 -0.0675454 0)
(-0.03381 -0.0658199 0)
(-0.0376649 -0.064001 0)
(-0.0416149 -0.0616117 0)
(-0.0460009 -0.0587268 0)
(-0.0507704 -0.055714 0)
(-0.0555612 -0.052311 0)
(-9.46987e-05 -0.0650997 0)
(-0.000409242 -0.079193 0)
(-0.00104695 -0.0792092 0)
(-0.00157281 -0.0787953 0)
(-0.00232819 -0.0783045 0)
(-0.00320206 -0.077709 0)
(-0.00427622 -0.0770354 0)
(-0.00557947 -0.0762936 0)
(-0.00713161 -0.0754808 0)
(-0.00894181 -0.0745722 0)
(-0.0109784 -0.0734826 0)
(-0.0133111 -0.0722343 0)
(-0.0158959 -0.0709717 0)
(-0.0186401 -0.0696619 0)
(-0.0215348 -0.0681754 0)
(-0.0245823 -0.0665376 0)
(-0.0277851 -0.0646754 0)
(-0.0312396 -0.0624517 0)
(-0.0350076 -0.0599209 0)
(-0.038975 -0.0572437 0)
(-0.0430535 -0.054393 0)
(-0.0473885 -0.0511823 0)
(-0.0519059 -0.0475796 0)
(-1.3102e-05 -0.0647651 0)
(-0.000307608 -0.0784068 0)
(-0.00094999 -0.0783666 0)
(-0.00143375 -0.0777939 0)
(-0.00213871 -0.077144 0)
(-0.00290838 -0.0763585 0)
(-0.0037697 -0.075404 0)
(-0.00474392 -0.0743044 0)
(-0.00592229 -0.0731118 0)
(-0.00740791 -0.071894 0)
(-0.00926376 -0.0707241 0)
(-0.0114296 -0.0695473 0)
(-0.0138615 -0.0682318 0)
(-0.0165397 -0.0666915 0)
(-0.0194202 -0.0649917 0)
(-0.0224648 -0.0630967 0)
(-0.0256689 -0.0610162 0)
(-0.0290035 -0.058763 0)
(-0.0324472 -0.0562584 0)
(-0.0360388 -0.0534363 0)
(-0.0398246 -0.0503076 0)
(-0.043865 -0.0469125 0)
(-0.0480799 -0.0431678 0)
(0.000213703 -0.0648501 0)
(-0.000105867 -0.0782346 0)
(-0.000874338 -0.0781722 0)
(-0.00135689 -0.0775455 0)
(-0.00207621 -0.0768364 0)
(-0.00280945 -0.0759874 0)
(-0.00356186 -0.0749331 0)
(-0.0043872 -0.0737206 0)
(-0.00535132 -0.0723348 0)
(-0.00646898 -0.0707475 0)
(-0.00781549 -0.0690165 0)
(-0.00948168 -0.0672123 0)
(-0.0115173 -0.0654327 0)
(-0.0140114 -0.0637753 0)
(-0.0168395 -0.0620669 0)
(-0.0199078 -0.0602188 0)
(-0.023038 -0.0580535 0)
(-0.0262515 -0.0555773 0)
(-0.0295362 -0.0528184 0)
(-0.0329258 -0.0498145 0)
(-0.0364387 -0.0465363 0)
(-0.0401515 -0.042953 0)
(-0.0440682 -0.0390381 0)
(0.000358722 -0.064725 0)
(-0.000109877 -0.0772063 0)
(-0.00129657 -0.0771082 0)
(-0.00197145 -0.0764622 0)
(-0.00288245 -0.075695 0)
(-0.00371249 -0.0748053 0)
(-0.00460785 -0.0738336 0)
(-0.00550994 -0.0726439 0)
(-0.00642126 -0.0711967 0)
(-0.007374 -0.0695251 0)
(-0.00840248 -0.0676804 0)
(-0.00958701 -0.0657172 0)
(-0.011001 -0.063647 0)
(-0.0126416 -0.0613892 0)
(-0.014594 -0.059064 0)
(-0.0169162 -0.056729 0)
(-0.0197471 -0.0545142 0)
(-0.0229868 -0.0522364 0)
(-0.0262884 -0.0495989 0)
(-0.0295332 -0.0465197 0)
(-0.0328287 -0.0430664 0)
(-0.0362485 -0.0392979 0)
(-0.039872 -0.0352042 0)
(0.000404811 -0.0648696 0)
(-0.000532776 -0.0762254 0)
(-0.00246645 -0.0761051 0)
(-0.00364321 -0.0755802 0)
(-0.00501592 -0.0748816 0)
(-0.00618693 -0.0740589 0)
(-0.00733114 -0.0730778 0)
(-0.00838516 -0.0718992 0)
(-0.00933838 -0.070489 0)
(-0.0101791 -0.0688353 0)
(-0.010946 -0.0669129 0)
(-0.0117292 -0.0647791 0)
(-0.0126259 -0.062498 0)
(-0.013639 -0.0600414 0)
(-0.0148053 -0.057535 0)
(-0.0162172 -0.0548716 0)
(-0.0179059 -0.0519913 0)
(-0.0198763 -0.0489699 0)
(-0.0224542 -0.0461045 0)
(-0.0255389 -0.0431465 0)
(-0.0288608 -0.0398149 0)