/*--------------------------------*- C++ -*----------------------------------*\
| =========                 |                                                 |
| \\      /  F ield         | OpenFOAM: The Open Source CFD Toolbox           |
|  \\    /   O peration     | Version:  2.4.0                                 |
|   \\  /    A nd           | Web:      www.OpenFOAM.org                      |
|    \\/     M anipulation  |                                                 |
\*---------------------------------------------------------------------------*/
FoamFile
{
    version     2.0;
    format      ascii;
    class       volVectorField;
    location    "0.55";
    object      U.mercury;
}
// * * * * * * * * * * * * * * * * * * * * * * * * * * * * * * * * * * * * * //

dimensions      [0 1 -1 0 0 0 0];

internalField   nonuniform List<vector> 
2268
(
(0.0150719 -0.00629345 0)
(0.0425165 -0.00672198 0)
(0.0731209 -0.00491393 0)
(0.0921304 -0.00818834 0)
(0.137504 -0.00651783 0)
(0.157602 -0.00518118 0)
(0.177372 -0.00589784 0)
(0.209064 -0.00687872 0)
(0.24396 -0.00747992 0)
(0.273679 -0.00490338 0)
(0.281917 -0.00302358 0)
(0.294652 -0.00281113 0)
(0.298268 -0.00330203 0)
(0.306116 -0.00698708 0)
(0.296702 -0.00878063 0)
(0.27066 -0.0145665 0)
(0.232346 -0.0027584 0)
(0.166494 -0.00271745 0)
(0.109801 0.0121838 0)
(0.0533438 -0.000637931 0)
(0.0474642 0.00629332 0)
(0.0221247 0.00909176 0)
(-0.0166866 0.00255112 0)
(0.0154958 -0.0196853 0)
(0.0415218 -0.0217096 0)
(0.0741676 -0.013898 0)
(0.0952516 -0.0264556 0)
(0.133887 -0.0194541 0)
(0.157025 -0.0136893 0)
(0.180774 -0.0204037 0)
(0.212201 -0.0208655 0)
(0.245543 -0.0241495 0)
(0.266032 -0.0129495 0)
(0.280775 -0.00558942 0)
(0.297593 -0.00489875 0)
(0.310827 -0.00145872 0)
(0.308512 0.00845022 0)
(0.299417 0.0303012 0)
(0.275336 0.0517233 0)
(0.233637 0.0548537 0)
(0.174254 0.0572617 0)
(0.105569 0.038456 0)
(0.0696023 0.027346 0)
(0.0406217 0.0103398 0)
(0.0269708 0.019494 0)
(-0.0156082 -0.000493563 0)
(0.0158795 -0.0366447 0)
(0.040879 -0.0382545 0)
(0.0744732 -0.0312513 0)
(0.0979136 -0.0424247 0)
(0.128731 -0.0359029 0)
(0.159066 -0.0312984 0)
(0.183513 -0.0359419 0)
(0.216914 -0.0358637 0)
(0.243292 -0.0369207 0)
(0.258044 -0.0230664 0)
(0.281959 -0.0184007 0)
(0.309805 -0.0162342 0)
(0.324628 -0.0110476 0)
(0.325897 -0.00204868 0)
(0.310903 -0.00134261 0)
(0.276743 0.0103232 0)
(0.220115 0.0463006 0)
(0.167749 0.065289 0)
(0.0909156 0.0617467 0)
(0.0704431 0.033689 0)
(0.0481229 0.0235767 0)
(0.0496216 0.0312444 0)
(0.0244647 0.0116484 0)
(0.0165526 -0.0460501 0)
(0.0392196 -0.0491725 0)
(0.0742112 -0.0400645 0)
(0.101107 -0.0563758 0)
(0.122565 -0.0492505 0)
(0.159747 -0.0471444 0)
(0.186599 -0.0591177 0)
(0.218358 -0.0584967 0)
(0.234006 -0.0597352 0)
(0.256021 -0.0453871 0)
(0.287906 -0.0465991 0)
(0.312865 -0.0378326 0)
(0.317723 -0.0172898 0)
(0.313651 0.0180623 0)
(0.295824 0.0759237 0)
(0.275983 0.116599 0)
(0.238223 0.11201 0)
(0.179039 0.103855 0)
(0.105869 0.0754479 0)
(0.0682904 0.0417799 0)
(0.038932 0.019992 0)
(0.0468914 0.0366992 0)
(0.0179967 0.0302993 0)
(0.0155531 -0.197122 0)
(0.0348936 -0.200001 0)
(0.0681532 -0.194998 0)
(0.0979243 -0.206243 0)
(0.110136 -0.204783 0)
(0.143382 -0.207574 0)
(0.179646 -0.218032 0)
(0.197404 -0.214713 0)
(0.213238 -0.218732 0)
(0.249501 -0.207829 0)
(0.277172 -0.209521 0)
(0.299357 -0.188991 0)
(0.318845 -0.16254 0)
(0.347947 -0.116874 0)
(0.33344 -0.0562197 0)
(0.276778 0.00050872 0)
(0.22273 0.110856 0)
(0.167263 0.142388 0)
(0.105026 0.115574 0)
(0.0750983 0.0658914 0)
(0.023141 0.0343518 0)
(0.0324195 0.0348158 0)
(0.0246527 0.0419887 0)
(0.0101085 -0.371381 0)
(0.0269204 -0.375558 0)
(0.0481495 -0.374429 0)
(0.0754866 -0.381276 0)
(0.0854322 -0.383934 0)
(0.107622 -0.396221 0)
(0.136591 -0.40618 0)
(0.161062 -0.410416 0)
(0.182013 -0.422109 0)
(0.212837 -0.424299 0)
(0.235415 -0.419618 0)
(0.252055 -0.407454 0)
(0.274582 -0.38841 0)
(0.293645 -0.297112 0)
(0.264976 -0.138956 0)
(0.241885 -0.00350407 0)
(0.171037 0.0808994 0)
(0.126731 0.148177 0)
(0.0894157 0.116154 0)
(0.0709858 0.0825843 0)
(0.0120974 0.04264 0)
(0.00282971 0.040334 0)
(0.013373 0.0580943 0)
(-0.00569989 -0.177412 0)
(-0.0108268 -0.177688 0)
(-0.0210361 -0.18066 0)
(-0.0194082 -0.178548 0)
(-0.0150221 -0.177983 0)
(-0.00403627 -0.182947 0)
(0.0134298 -0.180911 0)
(0.0282498 -0.177273 0)
(0.0479636 -0.174748 0)
(0.0599218 -0.171091 0)
(0.0622648 -0.165186 0)
(0.0574886 -0.164432 0)
(0.0423884 -0.171145 0)
(0.0426638 -0.201057 0)
(0.179293 -0.267704 0)
(0.261604 -0.125236 0)
(0.140534 0.0195375 0)
(0.0772232 0.133412 0)
(0.0367354 0.133083 0)
(0.0463753 0.0946201 0)
(0.013102 0.0599519 0)
(-0.0119496 0.0371919 0)
(0.00831706 0.0548734 0)
(-0.00502835 -0.0478666 0)
(-0.0125378 -0.0481662 0)
(-0.0177711 -0.0557182 0)
(-0.0179402 -0.0514676 0)
(-0.0180591 -0.0584391 0)
(-0.00387488 -0.0737342 0)
(0.0171707 -0.0661495 0)
(0.0312393 -0.0633093 0)
(0.0579774 -0.0645305 0)
(0.0777336 -0.055349 0)
(0.0923596 -0.0299264 0)
(0.104823 -0.0107001 0)
(0.104186 0.0406221 0)
(0.04892 0.128376 0)
(-0.0699407 0.131915 0)
(0.060637 -0.0328301 0)
(0.14708 -0.108906 0)
(-0.0434255 0.0891334 0)
(-0.0749064 0.0996789 0)
(-0.0304462 0.109854 0)
(-0.00944602 0.073665 0)
(-0.00974154 0.0354271 0)
(0.00989632 0.0565921 0)
(-0.0140592 -0.54885 0)
(0.0348949 -0.558272 0)
(0.138388 -0.572557 0)
(0.198989 -0.563573 0)
(0.253873 -0.565306 0)
(0.352899 -0.568058 0)
(0.42611 -0.5615 0)
(0.474472 -0.54521 0)
(0.503311 -0.528407 0)
(0.514214 -0.514831 0)
(0.523181 -0.488781 0)
(0.568718 -0.468586 0)
(0.650517 -0.495078 0)
(0.648351 -0.531652 0)
(0.472772 -0.6611 0)
(0.22232 -0.732985 0)
(0.124667 -0.365397 0)
(0.0478868 -0.240602 0)
(0.142065 -0.306275 0)
(0.0592944 -0.409434 0)
(0.135105 -0.49702 0)
(0.253907 -0.517547 0)
(0.358142 -0.477048 0)
(0.469588 -0.438807 0)
(0.605331 -0.450967 0)
(0.685376 -0.450872 0)
(0.731848 -0.415759 0)
(0.771414 -0.36816 0)
(0.778973 -0.327749 0)
(0.770816 -0.315375 0)
(0.77341 -0.344854 0)
(0.825014 -0.35715 0)
(0.905307 -0.284966 0)
(0.897495 -0.245389 0)
(0.576457 -0.297794 0)
(0.382296 -0.335815 0)
(0.269056 -0.12607 0)
(0.289616 0.0235212 0)
(0.057166 -0.356179 0)
(0.1885 -0.518473 0)
(0.291492 -0.547222 0)
(0.382314 -0.488779 0)
(0.503965 -0.451434 0)
(0.630521 -0.457924 0)
(0.702123 -0.461848 0)
(0.74307 -0.441706 0)
(0.782174 -0.406964 0)
(0.792307 -0.394613 0)
(0.788783 -0.402599 0)
(0.771227 -0.462668 0)
(0.790969 -0.537697 0)
(0.822032 -0.531644 0)
(0.839524 -0.501848 0)
(0.783512 -0.631805 0)
(0.862261 -0.753926 0)
(0.265656 -0.674742 0)
(0.22824 0.0117253 0)
(0.125904 -0.280092 0)
(0.261923 -0.476305 0)
(0.332022 -0.508711 0)
(0.399955 -0.454065 0)
(0.518714 -0.409747 0)
(0.636123 -0.400119 0)
(0.700109 -0.387111 0)
(0.722033 -0.36034 0)
(0.753778 -0.317944 0)
(0.759034 -0.307328 0)
(0.76467 -0.333825 0)
(0.7213 -0.423133 0)
(0.671965 -0.530295 0)
(0.696959 -0.541099 0)
(0.758236 -0.492553 0)
(0.75377 -0.520812 0)
(0.823924 -0.622091 0)
(0.612295 -0.834068 0)
(0.213444 0.0188642 0)
(0.210053 -0.229406 0)
(0.296047 -0.471141 0)
(0.35508 -0.497587 0)
(0.412742 -0.45071 0)
(0.510102 -0.411824 0)
(0.598963 -0.397085 0)
(0.639783 -0.380913 0)
(0.638596 -0.365066 0)
(0.644509 -0.333157 0)
(0.65568 -0.328454 0)
(0.657377 -0.354285 0)
(0.641855 -0.481425 0)
(0.610868 -0.616701 0)
(0.654674 -0.699928 0)
(0.705942 -0.609077 0)
(0.71839 -0.495355 0)
(0.838853 -0.628325 0)
(0.772013 -0.880687 0)
(0.231733 0.0108048 0)
(0.283696 -0.236751 0)
(0.307382 -0.457313 0)
(0.367303 -0.485965 0)
(0.418396 -0.446302 0)
(0.491256 -0.411347 0)
(0.561568 -0.395349 0)
(0.604767 -0.372607 0)
(0.608291 -0.351319 0)
(0.595898 -0.321441 0)
(0.607429 -0.310363 0)
(0.63462 -0.348428 0)
(0.592652 -0.476394 0)
(0.535985 -0.616667 0)
(0.56665 -0.72721 0)
(0.688464 -0.698437 0)
(0.817091 -0.584759 0)
(0.97819 -0.725349 0)
(0.904387 -0.879263 0)
(0.228766 0.0337734 0)
(0.317273 -0.31806 0)
(0.311772 -0.458612 0)
(0.378295 -0.492591 0)
(0.425301 -0.470085 0)
(0.478781 -0.457499 0)
(0.539602 -0.444935 0)
(0.575383 -0.417951 0)
(0.570539 -0.406231 0)
(0.5416 -0.384565 0)
(0.559215 -0.368276 0)
(0.576535 -0.39067 0)
(0.564784 -0.512337 0)
(0.499704 -0.576995 0)
(0.527698 -0.680552 0)
(0.713038 -0.692734 0)
(0.990787 -0.522358 0)
(1.10133 -0.809545 0)
(0.982022 -0.753765 0)
(0.252357 0.0264516 0)
(0.331702 -0.359652 0)
(0.321206 -0.472027 0)
(0.381177 -0.519464 0)
(0.426234 -0.538292 0)
(0.487729 -0.53962 0)
(0.535861 -0.533334 0)
(0.560314 -0.512635 0)
(0.557105 -0.516304 0)
(0.553677 -0.47542 0)
(0.566609 -0.445082 0)
(0.599837 -0.470357 0)
(0.564187 -0.532172 0)
(0.484955 -0.542141 0)
(0.480167 -0.635615 0)
(0.638156 -0.767065 0)
(1.06839 -0.986448 0)
(1.14278 -0.903063 0)
(0.945147 -0.632019 0)
(0.270521 0.059762 0)
(-0.0056164 -0.10971 0)
(-0.0128532 -0.11381 0)
(-0.0208452 -0.119305 0)
(-0.0224469 -0.127269 0)
(-0.0163022 -0.132568 0)
(-0.0115055 -0.145854 0)
(0.00709006 -0.146445 0)
(0.0271735 -0.150169 0)
(0.0508058 -0.144356 0)
(0.0518 -0.135881 0)
(0.0457622 -0.128486 0)
(0.0428107 -0.136784 0)
(0.0402444 -0.151799 0)
(0.0745159 -0.14558 0)
(0.105313 -0.0890853 0)
(0.125163 0.00645264 0)
(0.164787 -0.114714 0)
(0.00487288 0.0239751 0)
(-0.10679 0.0506059 0)
(-0.138548 -0.000891103 0)
(-0.0943386 0.0437563 0)
(-0.00643835 0.0423376 0)
(0.0609998 0.0547471 0)
(-0.00648515 -0.04387 0)
(-0.0178624 -0.0483585 0)
(-0.0252176 -0.0578229 0)
(-0.0258156 -0.0672187 0)
(-0.0145712 -0.0807407 0)
(-0.00916607 -0.111163 0)
(0.0199704 -0.119492 0)
(0.0519839 -0.120778 0)
(0.0901735 -0.0960227 0)
(0.10659 -0.0668314 0)
(0.12014 -0.0287773 0)
(0.141492 -0.00211872 0)
(0.130211 0.0531 0)
(0.106542 0.106308 0)
(0.0704314 0.122446 0)
(0.0627876 0.115413 0)
(0.0904004 0.15995 0)
(0.084053 -0.0333265 0)
(0.00605251 0.0342401 0)
(-0.0291289 -0.00195385 0)
(-0.0168391 -0.114128 0)
(-0.000673704 -0.179599 0)
(0.0590929 -0.16643 0)
(-0.00647682 -0.0371433 0)
(-0.0208385 -0.0506833 0)
(-0.0329773 -0.0774255 0)
(-0.0418596 -0.109425 0)
(-0.0420707 -0.127905 0)
(-0.040459 -0.156999 0)
(0.00865178 -0.17786 0)
(0.0562738 -0.179762 0)
(0.0952207 -0.140016 0)
(0.0924036 -0.108198 0)
(0.101818 -0.0829291 0)
(0.108056 -0.0778279 0)
(0.1114 -0.0484232 0)
(0.152505 -0.0208399 0)
(0.164081 0.0240777 0)
(0.186995 0.0722818 0)
(0.18648 0.138608 0)
(0.225392 0.0780502 0)
(0.175359 -0.0835497 0)
(0.181114 -0.0905315 0)
(0.262872 -0.141759 0)
(0.299151 -0.208882 0)
(0.280511 -0.271129 0)
(-0.01894 -0.0106417 0)
(-0.0646079 -0.00585074 0)
(-0.091118 -0.00478671 0)
(-0.0844282 -0.0126915 0)
(-0.0574369 -0.0225327 0)
(-0.0432008 -0.102901 0)
(0.00113912 -0.172664 0)
(0.019648 -0.19798 0)
(0.0294269 -0.155787 0)
(0.0250426 -0.123158 0)
(0.0574206 -0.0961159 0)
(0.05795 -0.0682507 0)
(0.0837838 -0.015867 0)
(0.107992 0.0174889 0)
(0.118888 0.0599011 0)
(0.169382 0.078296 0)
(0.196136 0.118798 0)
(0.260672 0.120786 0)
(0.296174 0.000255427 0)
(0.342619 -0.103611 0)
(0.369979 -0.291281 0)
(0.425004 -0.363709 0)
(0.495589 -0.440049 0)
(0.00821445 -0.298716 0)
(0.00247125 -0.290985 0)
(-0.0149553 -0.279935 0)
(-0.0816279 -0.27578 0)
(-0.144734 -0.265007 0)
(-0.159218 -0.347824 0)
(-0.256876 -0.383919 0)
(-0.360628 -0.295051 0)
(-0.361129 -0.19448 0)
(-0.330674 -0.157348 0)
(-0.228166 -0.112052 0)
(-0.176328 -0.0851861 0)
(-0.0924126 -0.0757704 0)
(-0.0138551 -0.0536217 0)
(0.0328457 -0.0296264 0)
(0.111129 -0.00488569 0)
(0.144311 0.0256625 0)
(0.201595 0.0183387 0)
(0.286123 0.0293659 0)
(0.353666 -0.0798594 0)
(0.443892 -0.153602 0)
(0.472792 -0.264739 0)
(0.533909 -0.35884 0)
(0.00820375 0.628316 0)
(0.0509839 0.241052 0)
(-0.15721 0.833426 0)
(-0.115906 -0.196681 0)
(0.0301881 -0.532924 0)
(-0.0994062 -0.593752 0)
(-0.45122 -0.537391 0)
(-0.676759 -0.43626 0)
(-0.70476 -0.441084 0)
(-0.622175 -0.421922 0)
(-0.53891 -0.367591 0)
(-0.496384 -0.274811 0)
(-0.443918 -0.199857 0)
(-0.361672 -0.118127 0)
(-0.264252 -0.0695078 0)
(-0.154652 0.00660391 0)
(-0.0224438 0.0460819 0)
(0.0681134 0.0303475 0)
(0.18062 0.0107314 0)
(0.214617 -0.0737305 0)
(0.322932 -0.100406 0)
(0.365569 -0.194606 0)
(0.41015 -0.288369 0)
(0.00329075 -0.907809 0)
(0.00914184 -0.61805 0)
(0.16855 -0.54447 0)
(0.61706 -0.771029 0)
(0.558333 -0.469719 0)
(0.45476 0.0766133 0)
(0.098281 0.154919 0)
(-0.137188 0.581383 0)
(-0.571095 0.572927 0)
(-0.521872 -0.157435 0)
(-0.491592 -0.550417 0)
(-0.456652 -0.624101 0)
(-0.45527 -0.613121 0)
(-0.419253 -0.49083 0)
(-0.386772 -0.410434 0)
(-0.314598 -0.34496 0)
(-0.259525 -0.300486 0)
(-0.157857 -0.238593 0)
(-0.0722451 -0.176766 0)
(-0.0448889 -0.275121 0)
(0.0457121 -0.283413 0)
(0.0724047 -0.355795 0)
(0.109941 -0.430107 0)
(-0.151089 0.75764 0)
(-0.314443 0.610638 0)
(-0.228867 0.233675 0)
(-0.150976 -0.145157 0)
(-0.248133 -0.339006 0)
(-0.0390996 -0.103775 0)
(0.324688 0.543201 0)
(0.0136356 0.411573 0)
(0.327845 -0.386864 0)
(0.350093 -0.675886 0)
(0.257861 -0.461427 0)
(0.356889 0.0492501 0)
(0.163893 0.665221 0)
(-0.182341 0.442497 0)
(-0.228115 -0.226547 0)
(-0.238044 -0.449202 0)
(-0.2108 -0.536713 0)
(-0.183038 -0.574827 0)
(-0.174591 -0.585827 0)
(-0.142942 -0.605176 0)
(-0.120822 -0.600378 0)
(-0.0619612 -0.477828 0)
(-0.0134213 -0.235434 0)
(0.0336206 -0.193255 0)
(0.201882 -0.32356 0)
(0.270871 -0.375258 0)
(0.208914 -0.360046 0)
(-0.00843455 -0.311782 0)
(-0.151005 -0.0550175 0)
(0.0776784 0.444903 0)
(0.384265 0.415796 0)
(0.470623 0.360953 0)
(0.0785581 0.100231 0)
(-0.206378 -0.251406 0)
(-0.245633 -0.434245 0)
(-0.0942515 -0.508692 0)
(0.205252 -0.689394 0)
(0.414621 -0.63579 0)
(0.494985 -0.392374 0)
(0.492975 -0.147068 0)
(0.520576 0.0374755 0)
(0.464762 0.249143 0)
(0.385367 0.030334 0)
(0.273589 -0.129335 0)
(0.232903 -0.429307 0)
(0.244331 -0.614705 0)
(0.00767075 0.263038 0)
(-0.0293084 0.162455 0)
(-0.0648863 -0.023942 0)
(-0.0771862 -0.163935 0)
(-0.114177 -0.230261 0)
(-0.11673 -0.201089 0)
(-0.0223373 -0.0257788 0)
(0.330558 0.184976 0)
(0.399016 0.188896 0)
(0.386091 0.107364 0)
(0.280366 -0.0153521 0)
(0.158403 -0.0946437 0)
(0.146802 -0.025003 0)
(0.142274 -0.0312835 0)
(0.127882 -0.131301 0)
(0.135198 -0.229609 0)
(0.169 -0.310234 0)
(0.196121 -0.386203 0)
(0.255102 -0.3884 0)
(0.367898 -0.378374 0)
(0.418928 -0.350258 0)
(0.425567 -0.298348 0)
(0.398366 -0.255491 0)
(0.0292382 -0.0269582 0)
(0.0976471 -0.123276 0)
(0.0989833 -0.145161 0)
(0.0444518 -0.151407 0)
(-0.0264775 -0.143207 0)
(-0.0651158 -0.0875409 0)
(-0.0472473 -0.0429229 0)
(0.0103588 0.00990647 0)
(0.229184 0.158416 0)
(0.264741 0.121512 0)
(0.248342 0.00364051 0)
(0.225868 -0.210754 0)
(0.210744 -0.313391 0)
(0.225747 -0.339053 0)
(0.232134 -0.315798 0)
(0.224664 -0.262715 0)
(0.240007 -0.209569 0)
(0.259243 -0.122056 0)
(0.275439 -0.0295799 0)
(0.260006 0.0262058 0)
(0.228938 0.00218431 0)
(0.171333 -0.100757 0)
(0.13031 -0.195236 0)
(0.00786879 0.0504798 0)
(0.0207197 -0.00928855 0)
(0.0261716 -0.0835858 0)
(0.0227373 -0.13572 0)
(-0.00653526 -0.1584 0)
(-0.0260684 -0.143887 0)
(-0.0270595 -0.119021 0)
(-0.0224236 -0.0855217 0)
(0.0397153 0.0283134 0)
(0.160472 0.0664676 0)
(0.174398 0.0227923 0)
(0.203826 -0.105564 0)
(0.158331 -0.175239 0)
(0.116248 -0.229138 0)
(0.098196 -0.273009 0)
(0.0781096 -0.294422 0)
(0.0525721 -0.310731 0)
(0.0446171 -0.32632 0)
(0.0553003 -0.323881 0)
(0.094089 -0.311829 0)
(0.13595 -0.298891 0)
(0.142959 -0.292457 0)
(0.121717 -0.287113 0)
(0.0169729 -0.0215759 0)
(0.0384516 -0.0604692 0)
(0.0375632 -0.0766659 0)
(0.0268774 -0.0908591 0)
(0.00645648 -0.0979196 0)
(-0.0110526 -0.0861928 0)
(-0.0249672 -0.0783383 0)
(-0.0306915 -0.0670375 0)
(-0.025436 -0.0414564 0)
(0.0577933 -0.00510183 0)
(0.105342 -0.0533548 0)
(0.116478 -0.129106 0)
(0.100025 -0.170386 0)
(0.0783868 -0.20638 0)
(0.0577968 -0.225129 0)
(0.039329 -0.227168 0)
(0.0223716 -0.210533 0)
(0.00559119 -0.181122 0)
(-0.0108318 -0.145136 0)
(-0.0225356 -0.114629 0)
(-0.0282092 -0.10702 0)
(-0.0392631 -0.122454 0)
(-0.0522679 -0.138917 0)
(0.0110793 -0.0365725 0)
(0.0275431 -0.0755624 0)
(0.0334598 -0.0925937 0)
(0.027459 -0.0993197 0)
(0.0141066 -0.0990603 0)
(0.0045223 -0.0904277 0)
(-0.00208526 -0.0826909 0)
(-0.00410106 -0.0681614 0)
(0.00167281 -0.0618426 0)
(0.0320701 -0.0494888 0)
(0.0654828 -0.0695202 0)
(0.0625452 -0.117057 0)
(0.0497926 -0.166121 0)
(0.029936 -0.208388 0)
(0.00333904 -0.231524 0)
(-0.0181503 -0.239414 0)
(-0.040455 -0.24376 0)
(-0.0576679 -0.245044 0)
(-0.0676728 -0.238742 0)
(-0.0677472 -0.229596 0)
(-0.0634961 -0.220043 0)
(-0.0616613 -0.211496 0)
(-0.0634755 -0.203733 0)
(0.00589883 -0.0422964 0)
(0.0136626 -0.0725028 0)
(0.0150398 -0.0809413 0)
(0.011504 -0.0846638 0)
(0.00674909 -0.0857589 0)
(0.00446139 -0.0829449 0)
(0.00280585 -0.0797402 0)
(0.00680144 -0.0762675 0)
(0.0138177 -0.074261 0)
(0.0282909 -0.0664634 0)
(0.0456198 -0.0778616 0)
(0.0479049 -0.101662 0)
(0.0374634 -0.135586 0)
(0.0164832 -0.168419 0)
(-0.0101933 -0.192936 0)
(-0.0289409 -0.203931 0)
(-0.0428527 -0.202079 0)
(-0.0556863 -0.195538 0)
(-0.0650673 -0.181648 0)
(-0.0704039 -0.17281 0)
(-0.0755215 -0.16906 0)
(-0.0782208 -0.167638 0)
(-0.0806943 -0.168105 0)
(0.00416126 -0.0559431 0)
(0.00712198 -0.0795049 0)
(0.00700945 -0.0820394 0)
(0.00613312 -0.0846722 0)
(0.00494183 -0.0857895 0)
(0.0052881 -0.0840464 0)
(0.00762555 -0.0832431 0)
(0.0126654 -0.0809731 0)
(0.0176584 -0.082159 0)
(0.0276394 -0.0793389 0)
(0.0378501 -0.0881082 0)
(0.0411284 -0.103283 0)
(0.0401376 -0.126558 0)
(0.0286277 -0.148721 0)
(0.00866707 -0.171029 0)
(-0.0119292 -0.188304 0)
(-0.0298633 -0.195262 0)
(-0.0423101 -0.195179 0)
(-0.0510456 -0.18672 0)
(-0.0618849 -0.180667 0)
(-0.0734379 -0.177921 0)
(-0.0797328 -0.173267 0)
(-0.0837956 -0.167615 0)
(0.00239105 -0.0589714 0)
(0.0039896 -0.0798785 0)
(0.00495122 -0.0820718 0)
(0.00541187 -0.0842971 0)
(0.00550638 -0.0860369 0)
(0.00683385 -0.0863928 0)
(0.00917474 -0.0869218 0)
(0.0133741 -0.0867239 0)
(0.0177628 -0.088141 0)
(0.0247896 -0.087527 0)
(0.0324362 -0.093417 0)
(0.0371285 -0.105657 0)
(0.0386978 -0.124693 0)
(0.0329699 -0.142031 0)
(0.0206155 -0.158622 0)
(0.00662499 -0.172269 0)
(-0.012222 -0.180604 0)
(-0.0289878 -0.184025 0)
(-0.0439005 -0.17737 0)
(-0.0546083 -0.16746 0)
(-0.0705638 -0.165609 0)
(-0.0820177 -0.16639 0)
(-0.0886963 -0.162586 0)
(0.00139621 -0.0615216 0)
(0.00310365 -0.0813944 0)
(0.00459453 -0.0829989 0)
(0.00577832 -0.0847665 0)
(0.00639896 -0.0864923 0)
(0.00706204 -0.0879419 0)
(0.00821606 -0.0892928 0)
(0.0102665 -0.0906285 0)
(0.0127953 -0.0927562 0)
(0.0167125 -0.0946411 0)
(0.0232573 -0.100576 0)
(0.0274482 -0.110622 0)
(0.0271237 -0.121855 0)
(0.0223329 -0.132164 0)
(0.0133241 -0.145676 0)
(0.00172537 -0.155318 0)
(-0.0169164 -0.160528 0)
(-0.0325533 -0.161399 0)
(-0.0454801 -0.159942 0)
(-0.0582201 -0.151501 0)
(-0.0691589 -0.148784 0)
(-0.0822393 -0.153135 0)
(-0.0883707 -0.153869 0)
(0.00103573 -0.0631021 0)
(0.00287689 -0.0828225 0)
(0.00432593 -0.084218 0)
(0.00475857 -0.0857752 0)
(0.00511801 -0.087028 0)
(0.00467554 -0.0885219 0)
(0.00440483 -0.089982 0)
(0.00467518 -0.0918281 0)
(0.00509298 -0.0945389 0)
(0.00666129 -0.0988399 0)
(0.00852858 -0.104421 0)
(0.010336 -0.111631 0)
(0.00833244 -0.119275 0)
(0.00536969 -0.128706 0)
(-0.00259494 -0.136882 0)
(-0.0139005 -0.140345 0)
(-0.028019 -0.146339 0)
(-0.0404142 -0.151142 0)
(-0.0514721 -0.150034 0)
(-0.0637874 -0.143797 0)
(-0.0713873 -0.141125 0)
(-0.0793753 -0.14809 0)
(-0.0847628 -0.15015 0)
(0.00112005 -0.065182 0)
(0.00217247 -0.0840105 0)
(0.00217118 -0.0842529 0)
(0.00239329 -0.0852755 0)
(0.00249947 -0.0864203 0)
(0.00263026 -0.0876445 0)
(0.00275223 -0.089485 0)
(0.00283806 -0.0914932 0)
(0.00284965 -0.0945179 0)
(0.00268841 -0.0987877 0)
(0.00169672 -0.103541 0)
(0.000583527 -0.108935 0)
(-0.00329173 -0.115388 0)
(-0.00844894 -0.12203 0)
(-0.0149369 -0.126769 0)
(-0.0222345 -0.131004 0)
(-0.0294212 -0.136864 0)
(-0.0392283 -0.140159 0)
(-0.0513622 -0.137781 0)
(-0.0598852 -0.133411 0)
(-0.0655942 -0.133443 0)
(-0.0732088 -0.139374 0)
(-0.0792626 -0.141218 0)
(0.000715828 -0.06652 0)
(0.00110507 -0.0840647 0)
(0.00132206 -0.0845849 0)
(0.00181743 -0.0857102 0)
(0.00199692 -0.0866172 0)
(0.00249389 -0.0876985 0)
(0.00279254 -0.0892726 0)
(0.00272262 -0.0910017 0)
(0.00243159 -0.0933579 0)
(0.00141569 -0.0969522 0)
(-0.00090909 -0.102227 0)
(-0.00321818 -0.107652 0)
(-0.00723168 -0.111122 0)
(-0.0126897 -0.116346 0)
(-0.0184503 -0.120914 0)
(-0.0252263 -0.125563 0)
(-0.0316153 -0.126753 0)
(-0.0416838 -0.12714 0)
(-0.0518205 -0.127646 0)
(-0.0599067 -0.12592 0)
(-0.0674198 -0.127158 0)
(-0.0745735 -0.132464 0)
(-0.0830058 -0.133917 0)
(0.000417757 -0.0670981 0)
(0.000615881 -0.0847016 0)
(0.00129487 -0.0852366 0)
(0.00149399 -0.0862818 0)
(0.00154945 -0.0871292 0)
(0.00153069 -0.088274 0)
(0.00140909 -0.0896112 0)
(0.00129654 -0.091355 0)
(0.00118164 -0.0937202 0)
(0.000558486 -0.0962859 0)
(-0.00177667 -0.0996581 0)
(-0.00468743 -0.103128 0)
(-0.00762651 -0.106466 0)
(-0.0122265 -0.110772 0)
(-0.0179554 -0.114794 0)
(-0.0251186 -0.118398 0)
(-0.0327921 -0.12051 0)
(-0.0399596 -0.120978 0)
(-0.0469543 -0.121641 0)
(-0.0535799 -0.119539 0)
(-0.0607311 -0.120475 0)
(-0.066579 -0.124746 0)
(-0.0774294 -0.125422 0)
(0.000390882 -0.0676794 0)
(0.000534243 -0.0846851 0)
(6.84605e-05 -0.0851137 0)
(-0.00022922 -0.0856574 0)
(-0.000671208 -0.0867056 0)
(-0.00117866 -0.088084 0)
(-0.00173139 -0.0895544 0)
(-0.00238858 -0.0911276 0)
(-0.00326805 -0.0925612 0)
(-0.00442991 -0.0942751 0)
(-0.00569827 -0.0964132 0)
(-0.00920289 -0.0993547 0)
(-0.0126055 -0.103455 0)
(-0.0162127 -0.105428 0)
(-0.0208156 -0.107972 0)
(-0.0267238 -0.109148 0)
(-0.0346842 -0.110493 0)
(-0.042463 -0.112549 0)
(-0.0491155 -0.111686 0)
(-0.0565753 -0.111105 0)
(-0.0636838 -0.111987 0)
(-0.0707281 -0.113153 0)
(-0.080049 -0.11126 0)
(0.000111307 -0.0678344 0)
(-0.000138123 -0.0845038 0)
(-0.000571937 -0.0848473 0)
(-0.000920912 -0.0855612 0)
(-0.00146183 -0.0862573 0)
(-0.00205682 -0.0870289 0)
(-0.00296475 -0.0882115 0)
(-0.00414529 -0.0897965 0)
(-0.00555452 -0.0917484 0)
(-0.00725514 -0.0929692 0)
(-0.00946202 -0.0950246 0)
(-0.0121573 -0.0980466 0)
(-0.016225 -0.0998519 0)
(-0.0206457 -0.102389 0)
(-0.0257237 -0.104335 0)
(-0.0306363 -0.105031 0)
(-0.0348274 -0.106437 0)
(-0.0402068 -0.107396 0)
(-0.0473959 -0.106795 0)
(-0.0539381 -0.106895 0)
(-0.0594752 -0.107133 0)
(-0.0693982 -0.107457 0)
(-0.0769779 -0.105132 0)
(0.000216567 -0.0682023 0)
(0.000167861 -0.0842754 0)
(-0.000309027 -0.0844415 0)
(-0.00074011 -0.0848579 0)
(-0.0013822 -0.0854185 0)
(-0.00222364 -0.0862655 0)
(-0.00315529 -0.0872055 0)
(-0.00432732 -0.0882875 0)
(-0.00591343 -0.089474 0)
(-0.00830146 -0.0913461 0)
(-0.0102708 -0.0927469 0)
(-0.0120605 -0.0937178 0)
(-0.0151901 -0.0952109 0)
(-0.0194479 -0.0971526 0)
(-0.0244757 -0.09835 0)
(-0.0293205 -0.099602 0)
(-0.0359277 -0.100243 0)
(-0.0427028 -0.0986587 0)
(-0.0490535 -0.0992765 0)
(-0.0538984 -0.0983888 0)
(-0.0611485 -0.0981348 0)
(-0.0687387 -0.0962877 0)
(-0.0760401 -0.0961319 0)
(-9.24726e-05 -0.0677455 0)
(-0.000691317 -0.0835824 0)
(-0.00139543 -0.0838656 0)
(-0.00202577 -0.0843113 0)
(-0.00283247 -0.0848252 0)
(-0.00384325 -0.0854874 0)
(-0.00502383 -0.0862882 0)
(-0.0064638 -0.08721 0)
(-0.00817434 -0.0880459 0)
(-0.0100693 -0.0885595 0)
(-0.0124285 -0.0895488 0)
(-0.0159333 -0.0910465 0)
(-0.0191484 -0.0920035 0)
(-0.0222619 -0.0921557 0)
(-0.0266525 -0.0930578 0)
(-0.0321871 -0.094363 0)
(-0.036764 -0.0938498 0)
(-0.0412527 -0.095024 0)
(-0.0454364 -0.0947472 0)
(-0.0526897 -0.0934943 0)
(-0.0590329 -0.0908742 0)
(-0.0666402 -0.0903383 0)
(-0.0729625 -0.0893411 0)
(-8.02543e-05 -0.067802 0)
(-0.000530208 -0.0832631 0)
(-0.00128164 -0.0834574 0)
(-0.0019271 -0.0837283 0)
(-0.00272655 -0.0840186 0)
(-0.00357623 -0.0842727 0)
(-0.00472369 -0.0847585 0)
(-0.00615496 -0.0853394 0)
(-0.00782428 -0.0860024 0)
(-0.00966428 -0.0867445 0)
(-0.0122292 -0.087523 0)
(-0.0153332 -0.087967 0)
(-0.0187301 -0.0890058 0)
(-0.0229554 -0.0894263 0)
(-0.0260591 -0.0901996 0)
(-0.0291862 -0.0896967 0)
(-0.0345514 -0.0896788 0)
(-0.0401607 -0.0886477 0)
(-0.0468717 -0.0868162 0)
(-0.0531348 -0.0862769 0)
(-0.0580375 -0.0863944 0)
(-0.0638766 -0.0840668 0)
(-0.0713416 -0.080773 0)
(-0.000166443 -0.067067 0)
(-0.000771892 -0.0821778 0)
(-0.00164185 -0.082353 0)
(-0.00249977 -0.0825365 0)
(-0.00360244 -0.0828168 0)
(-0.00478572 -0.0832142 0)
(-0.00614575 -0.0836214 0)
(-0.00776611 -0.0840051 0)
(-0.00967401 -0.0844333 0)
(-0.011795 -0.0847431 0)
(-0.0138431 -0.0845503 0)
(-0.0155931 -0.0848607 0)
(-0.0184909 -0.0850125 0)
(-0.0217627 -0.0853963 0)
(-0.026397 -0.0847665 0)
(-0.0318421 -0.084897 0)
(-0.0365105 -0.0844384 0)
(-0.0408557 -0.0832209 0)
(-0.0447925 -0.0836989 0)
(-0.0487812 -0.0821954 0)
(-0.0557431 -0.0784959 0)
(-0.0627056 -0.0766551 0)
(-0.0681185 -0.0752005 0)
(-0.00018939 -0.0669739 0)
(-0.000732504 -0.0818722 0)
(-0.00149777 -0.0819952 0)
(-0.00216249 -0.0820016 0)
(-0.00298087 -0.0819656 0)
(-0.00399055 -0.0819741 0)
(-0.00521034 -0.0820081 0)
(-0.00665287 -0.0820733 0)
(-0.0083706 -0.0821508 0)
(-0.0105089 -0.0823169 0)
(-0.0132756 -0.0826091 0)
(-0.0167586 -0.0824263 0)
(-0.0199187 -0.0821366 0)
(-0.0231873 -0.0816685 0)
(-0.0262765 -0.0817305 0)
(-0.0290646 -0.0816727 0)
(-0.0326666 -0.0807611 0)
(-0.0375665 -0.0797085 0)
(-0.0431397 -0.0765397 0)
(-0.0494423 -0.0747972 0)
(-0.0541468 -0.0742588 0)
(-0.059297 -0.0716736 0)
(-0.065493 -0.0682721 0)
(-0.000249458 -0.0661251 0)
(-0.000923251 -0.0807349 0)
(-0.00184229 -0.0808817 0)
(-0.0027174 -0.0808666 0)
(-0.00377348 -0.0808598 0)
(-0.00495305 -0.0808323 0)
(-0.00631182 -0.0807276 0)
(-0.00786104 -0.080544 0)
(-0.00960174 -0.0802844 0)
(-0.0115002 -0.0799218 0)
(-0.0134319 -0.0794521 0)
(-0.0152759 -0.0791725 0)
(-0.0177784 -0.0789891 0)
(-0.0208085 -0.0785336 0)
(-0.0243592 -0.0775193 0)
(-0.0288804 -0.0761639 0)
(-0.0337025 -0.0750071 0)
(-0.0380382 -0.073552 0)
(-0.0421193 -0.0731579 0)
(-0.0459858 -0.0713344 0)
(-0.0512585 -0.0681772 0)
(-0.0570501 -0.0656155 0)
(-0.0622919 -0.0628135 0)
(-0.000209904 -0.0659439 0)
(-0.000653488 -0.0803684 0)
(-0.00135266 -0.0804424 0)
(-0.00198213 -0.0802457 0)
(-0.00283454 -0.0800015 0)
(-0.00385921 -0.0797194 0)
(-0.00512458 -0.0794154 0)
(-0.00664533 -0.0791046 0)
(-0.00843118 -0.0787845 0)
(-0.010499 -0.0784611 0)
(-0.0129242 -0.0780933 0)
(-0.0157513 -0.0773125 0)
(-0.0186594 -0.0764045 0)
(-0.0216966 -0.0755802 0)
(-0.0248562 -0.0747114 0)
(-0.027934 -0.073819 0)
(-0.0311601 -0.0725298 0)
(-0.0349981 -0.0705847 0)
(-0.0394751 -0.0678871 0)
(-0.0443638 -0.0655735 0)
(-0.0489836 -0.0635249 0)
(-0.0538475 -0.0606658 0)
(-0.0590321 -0.0572951 0)
(-0.000204806 -0.0652051 0)
(-0.000730246 -0.0794306 0)
(-0.00150317 -0.0794818 0)
(-0.00220764 -0.0791593 0)
(-0.0031108 -0.0787652 0)
(-0.00412777 -0.078267 0)
(-0.0053116 -0.0776725 0)
(-0.00668427 -0.0770077 0)
(-0.00825983 -0.07628 0)
(-0.0100502 -0.0754892 0)
(-0.0120694 -0.0746878 0)
(-0.0142657 -0.0740339 0)
(-0.0167048 -0.0732075 0)
(-0.0194585 -0.0720921 0)
(-0.0225535 -0.0708089 0)
(-0.0260509 -0.0692574 0)
(-0.0298888 -0.0675346 0)
(-0.0338058 -0.0658089 0)
(-0.0376606 -0.0639899 0)
(-0.0416107 -0.0616005 0)
(-0.0459969 -0.0587156 0)
(-0.0507665 -0.0557028 0)
(-0.0555573 -0.0522997 0)
(-9.46194e-05 -0.0650893 0)
(-0.000408994 -0.0791825 0)
(-0.00104653 -0.0791987 0)
(-0.00157221 -0.0787848 0)
(-0.00232743 -0.0782942 0)
(-0.00320112 -0.0776987 0)
(-0.00427512 -0.0770252 0)
(-0.00557821 -0.0762834 0)
(-0.00713019 -0.0754707 0)
(-0.00894024 -0.0745621 0)
(-0.0109767 -0.0734725 0)
(-0.0133093 -0.0722241 0)
(-0.0158938 -0.0709615 0)
(-0.0186379 -0.0696516 0)
(-0.0215319 -0.068165 0)
(-0.0245788 -0.066527 0)
(-0.0277812 -0.0646649 0)
(-0.0312353 -0.062441 0)
(-0.0350033 -0.0599103 0)
(-0.0389708 -0.057233 0)
(-0.0430495 -0.0543824 0)
(-0.0473847 -0.0511718 0)
(-0.0519018 -0.0475691 0)
(-1.30101e-05 -0.0647546 0)
(-0.000307354 -0.0783963 0)
(-0.000949592 -0.0783562 0)
(-0.0014332 -0.0777836 0)
(-0.002138 -0.0771337 0)
(-0.0029075 -0.0763483 0)
(-0.00376865 -0.0753938 0)
(-0.00474271 -0.0742943 0)
(-0.00592092 -0.0731018 0)
(-0.00740638 -0.071884 0)
(-0.0092621 -0.0707141 0)
(-0.0114278 -0.0695373 0)
(-0.0138595 -0.0682218 0)
(-0.0165373 -0.0666815 0)
(-0.0194173 -0.0649815 0)
(-0.0224614 -0.0630865 0)
(-0.0256648 -0.0610059 0)
(-0.0289992 -0.0587527 0)
(-0.0324429 -0.0562482 0)
(-0.0360347 -0.0534261 0)
(-0.0398209 -0.0502977 0)
(-0.0438612 -0.0469027 0)
(-0.0480762 -0.0431581 0)
(0.000213763 -0.0648398 0)
(-0.000105666 -0.0782243 0)
(-0.000873983 -0.0781619 0)
(-0.00135639 -0.0775352 0)
(-0.00207555 -0.0768262 0)
(-0.00280862 -0.0759772 0)
(-0.00356087 -0.074923 0)
(-0.00438603 -0.0737106 0)
(-0.00534999 -0.0723248 0)
(-0.00646749 -0.0707376 0)
(-0.00781384 -0.0690067 0)
(-0.00947986 -0.0672025 0)
(-0.0115153 -0.0654229 0)
(-0.014009 -0.0637655 0)
(-0.0168364 -0.0620569 0)
(-0.0199041 -0.0602089 0)
(-0.023034 -0.0580434 0)
(-0.0262473 -0.0555673 0)
(-0.0295321 -0.0528085 0)
(-0.032922 -0.0498049 0)
(-0.036435 -0.046527 0)
(-0.040148 -0.042944 0)
(-0.0440643 -0.0390293 0)
(0.000358791 -0.0647148 0)
(-0.000109674 -0.0771961 0)
(-0.00129624 -0.077098 0)
(-0.00197099 -0.0764521 0)
(-0.00288185 -0.0756849 0)
(-0.00371174 -0.0747953 0)
(-0.00460693 -0.0738236 0)
(-0.00550885 -0.072634 0)
(-0.00641999 -0.071187 0)
(-0.00737255 -0.0695154 0)
(-0.00840086 -0.0676708 0)
(-0.00958521 -0.0657076 0)
(-0.010999 -0.0636375 0)
(-0.012639 -0.0613796 0)
(-0.014591 -0.0590544 0)
(-0.0169127 -0.0567193 0)
(-0.019743 -0.0545045 0)
(-0.0229827 -0.0522267 0)
(-0.0262845 -0.0495895 0)
(-0.0295297 -0.0465107 0)
(-0.0328255 -0.0430578 0)
(-0.0362452 -0.0392898 0)
(-0.0398685 -0.0351965 0)
(0.000404845 -0.0648595 0)
(-0.000532636 -0.0762153 0)
(-0.00246618 -0.076095 0)
(-0.0036428 -0.0755701 0)
(-0.00501537 -0.0748716 0)
(-0.00618624 -0.074049 0)
(-0.0073303 -0.0730679 0)
(-0.00838415 -0.0718895 0)
(-0.0093372 -0.0704794 0)
(-0.0101777 -0.0688258 0)
(-0.0109444 -0.0669035 0)
(-0.0117274 -0.0647699 0)
(-0.0126238 -0.0624888 0)
(-0.0136366 -0.0600323 0)
(-0.0148021 -0.0575258 0)
(-0.0162134 -0.0548623 0)
(-0.017902 -0.051982 0)
(-0.0198724 -0.0489606 0)