/*--------------------------------*- C++ -*----------------------------------*\
| =========                 |                                                 |
| \\      /  F ield         | OpenFOAM: The Open Source CFD Toolbox           |
|  \\    /   O peration     | Version:  2.4.0                                 |
|   \\  /    A nd           | Web:      www.OpenFOAM.org                      |
|    \\/     M anipulation  |                                                 |
\*---------------------------------------------------------------------------*/
FoamFile
{
    version     2.0;
    format      ascii;
    class       volVectorField;
    location    "0.55";
    object      U.oil;
}
// * * * * * * * * * * * * * * * * * * * * * * * * * * * * * * * * * * * * * //

dimensions      [0 1 -1 0 0 0 0];

internalField   nonuniform List<vector> 
2268
(
(0.0150719 -0.00629361 0)
(0.0425165 -0.00672215 0)
(0.0731209 -0.00491413 0)
(0.0921303 -0.00818853 0)
(0.137504 -0.00651801 0)
(0.157601 -0.00518132 0)
(0.177372 -0.00589796 0)
(0.209064 -0.00687883 0)
(0.24396 -0.00748001 0)
(0.273679 -0.00490346 0)
(0.281917 -0.00302365 0)
(0.294651 -0.0028111 0)
(0.298267 -0.00330187 0)
(0.306116 -0.00698697 0)
(0.296702 -0.00878072 0)
(0.27066 -0.0145663 0)
(0.232345 -0.00275698 0)
(0.166492 -0.00271315 0)
(0.109798 0.0121924 0)
(0.0533393 -0.000623311 0)
(0.0474135 0.00632161 0)
(0.0218574 0.010492 0)
(-0.0169064 0.0142681 0)
(0.0154958 -0.019686 0)
(0.0415218 -0.0217103 0)
(0.0741676 -0.0138988 0)
(0.0952515 -0.0264564 0)
(0.133887 -0.0194549 0)
(0.157025 -0.0136899 0)
(0.180774 -0.0204043 0)
(0.212201 -0.0208661 0)
(0.245543 -0.02415 0)
(0.266032 -0.01295 0)
(0.280774 -0.0055897 0)
(0.297593 -0.00489871 0)
(0.310827 -0.00145851 0)
(0.308512 0.00845046 0)
(0.299417 0.0303013 0)
(0.275336 0.0517238 0)
(0.233636 0.0548562 0)
(0.17425 0.0572698 0)
(0.105563 0.0384753 0)
(0.0695948 0.0273777 0)
(0.040565 0.0103859 0)
(0.0266712 0.020881 0)
(-0.0158585 0.0118002 0)
(0.0158795 -0.0366436 0)
(0.040879 -0.0382527 0)
(0.0744732 -0.031251 0)
(0.0979135 -0.0424205 0)
(0.128731 -0.0359006 0)
(0.159066 -0.0312962 0)
(0.183513 -0.0359342 0)
(0.216914 -0.0358553 0)
(0.243292 -0.0369105 0)
(0.258043 -0.023062 0)
(0.281958 -0.0183961 0)
(0.309805 -0.0162308 0)
(0.324628 -0.011046 0)
(0.325897 -0.00204798 0)
(0.310903 -0.00134259 0)
(0.276742 0.0103238 0)
(0.220113 0.046304 0)
(0.167742 0.0653011 0)
(0.0909033 0.0617836 0)
(0.0704276 0.0337684 0)
(0.0480707 0.0236753 0)
(0.0492874 0.0325212 0)
(0.024166 0.0234272 0)
(0.0165616 -0.0418109 0)
(0.0392175 -0.0446299 0)
(0.0742146 -0.036046 0)
(0.10113 -0.0512148 0)
(0.122562 -0.0443925 0)
(0.159761 -0.0421324 0)
(0.186638 -0.0529651 0)
(0.218356 -0.0522421 0)
(0.233969 -0.0531239 0)
(0.255961 -0.0395048 0)
(0.287781 -0.0405787 0)
(0.312649 -0.0326226 0)
(0.317476 -0.0139369 0)
(0.313542 0.0189929 0)
(0.295819 0.0759537 0)
(0.275982 0.116603 0)
(0.238221 0.112016 0)
(0.17903 0.103872 0)
(0.105846 0.0755115 0)
(0.0682557 0.0419595 0)
(0.0388631 0.0202145 0)
(0.0465541 0.0379551 0)
(0.0177055 0.0417503 0)
(0.0154501 -0.149436 0)
(0.0344838 -0.150272 0)
(0.0674884 -0.147757 0)
(0.0970832 -0.152821 0)
(0.108958 -0.152337 0)
(0.142045 -0.15266 0)
(0.178 -0.15534 0)
(0.195531 -0.150528 0)
(0.210957 -0.150066 0)
(0.246698 -0.140725 0)
(0.273813 -0.139914 0)
(0.295871 -0.12207 0)
(0.316202 -0.102399 0)
(0.3446 -0.0726518 0)
(0.32835 -0.032403 0)
(0.274867 0.00699194 0)
(0.222578 0.111433 0)
(0.167243 0.142611 0)
(0.104978 0.115939 0)
(0.0750229 0.0664196 0)
(0.0230353 0.0348548 0)
(0.0320624 0.036249 0)
(0.0243581 0.0536042 0)
(0.00367917 0.00722273 0)
(0.0118435 0.0116212 0)
(0.0213629 0.00473975 0)
(0.0374289 0.019394 0)
(0.0417921 0.0155959 0)
(0.0545348 0.00900528 0)
(0.0775208 0.0212732 0)
(0.0951807 0.0300283 0)
(0.110865 0.0280245 0)
(0.13489 0.0360506 0)
(0.153501 0.0543669 0)
(0.167127 0.0752172 0)
(0.179394 0.114541 0)
(0.200913 0.184348 0)
(0.184583 0.131406 0)
(0.2127 0.0871806 0)
(0.163341 0.100226 0)
(0.125568 0.152051 0)
(0.0890152 0.117897 0)
(0.0706707 0.0846113 0)
(0.0118765 0.0441094 0)
(0.00244099 0.0421842 0)
(0.0130795 0.0703473 0)
(-0.00598907 -0.160387 0)
(-0.0088985 -0.16106 0)
(-0.0175018 -0.16408 0)
(-0.0149952 -0.162288 0)
(-0.0105828 -0.161742 0)
(-0.000165758 -0.16639 0)
(0.0158646 -0.161938 0)
(0.02945 -0.15749 0)
(0.0482842 -0.154285 0)
(0.05934 -0.150106 0)
(0.0606825 -0.143903 0)
(0.0549556 -0.142976 0)
(0.0391872 -0.150373 0)
(0.0404171 -0.17711 0)
(0.0810146 -0.11668 0)
(0.180981 0.0621616 0)
(0.077614 0.133071 0)
(0.0690223 0.151191 0)
(0.0344622 0.141754 0)
(0.0451682 0.0987472 0)
(0.012367 0.0623975 0)
(-0.0124791 0.0395767 0)
(0.00800732 0.0683143 0)
(-0.0052984 -0.0187795 0)
(-0.0133442 -0.0192967 0)
(-0.0189048 -0.0275513 0)
(-0.0193935 -0.0231005 0)
(-0.0196681 -0.0309248 0)
(-0.00513187 -0.0488762 0)
(0.0160645 -0.0417459 0)
(0.0303023 -0.0391782 0)
(0.0569846 -0.0408492 0)
(0.0767506 -0.0317355 0)
(0.091403 -0.00564791 0)
(0.103657 0.0142749 0)
(0.101553 0.0672705 0)
(0.0423614 0.154696 0)
(-0.0780481 0.159309 0)
(-0.0687849 0.100747 0)
(0.00468958 0.146276 0)
(-0.0769447 0.139516 0)
(-0.0827261 0.129017 0)
(-0.0333208 0.127206 0)
(-0.0101318 0.0877641 0)
(-0.0102599 0.0398919 0)
(0.00956495 0.0696427 0)
(-0.186099 -0.0331185 0)
(-0.200377 -0.129164 0)
(-0.0126151 -0.134479 0)
(0.156617 -0.129079 0)
(0.207867 -0.137946 0)
(0.267395 -0.173463 0)
(0.363927 -0.204476 0)
(0.444963 -0.221129 0)
(0.491187 -0.232902 0)
(0.496986 -0.246202 0)
(0.486269 -0.22379 0)
(0.531195 -0.194809 0)
(0.648359 -0.20576 0)
(0.679331 -0.239305 0)
(0.531281 -0.367756 0)
(0.249968 -0.484686 0)
(0.0478189 -0.164948 0)
(-0.0823453 -0.0418191 0)
(0.077065 -0.105841 0)
(-0.139521 0.183201 0)
(-0.121394 0.0914796 0)
(0.139165 0.00216777 0)
(0.35686 0.0793837 0)
(0.464336 0.133894 0)
(0.577249 0.147532 0)
(0.695291 0.15973 0)
(0.767737 0.203817 0)
(0.807804 0.255162 0)
(0.785489 0.293949 0)
(0.75408 0.266196 0)
(0.78128 0.200701 0)
(0.889085 0.217439 0)
(1.0203 0.32774 0)
(0.953097 0.53863 0)
(0.318757 0.663316 0)
(0.0553621 0.369404 0)
(0.165017 0.189471 0)
(0.224507 0.267023 0)
(-0.116919 0.180049 0)
(0.0359516 -0.157225 0)
(0.242176 -0.21906 0)
(0.409835 -0.14937 0)
(0.573937 -0.10516 0)
(0.735501 -0.115663 0)
(0.811289 -0.123926 0)
(0.853402 -0.0959207 0)
(0.889565 -0.0480546 0)
(0.871464 -0.0114888 0)
(0.843107 -0.0263024 0)
(0.847263 -0.0930472 0)
(0.935025 -0.12509 0)
(1.04603 0.00588206 0)
(0.917085 0.311109 0)
(0.418632 0.183372 0)
(0.00867933 0.0320651 0)
(-0.124728 0.136794 0)
(0.110536 0.19714 0)
(-0.0265323 0.203905 0)
(0.20768 -0.13715 0)
(0.331725 -0.227102 0)
(0.446876 -0.138054 0)
(0.608754 -0.0552658 0)
(0.740585 -0.0248077 0)
(0.801785 -0.00420327 0)
(0.817224 0.0338461 0)
(0.838253 0.0950944 0)
(0.826 0.140163 0)
(0.802396 0.11551 0)
(0.795327 -0.00425494 0)
(0.822167 -0.0615714 0)
(0.931648 0.0973526 0)
(0.900747 0.46095 0)
(0.473438 0.510365 0)
(0.0835675 0.274553 0)
(-0.423733 -0.0363425 0)
(0.119832 0.184111 0)
(0.146399 0.169561 0)
(0.297115 -0.196577 0)
(0.380466 -0.258267 0)
(0.453871 -0.18073 0)
(0.579726 -0.111521 0)
(0.682748 -0.0783905 0)
(0.723347 -0.0454464 0)
(0.716147 -0.0126257 0)
(0.718541 0.0500361 0)
(0.710914 0.108383 0)
(0.706721 0.0739528 0)
(0.718815 -0.0798126 0)
(0.76945 -0.16928 0)
(0.894544 0.00150698 0)
(0.915632 0.530483 0)
(0.510381 0.749209 0)
(0.29222 0.463788 0)
(-0.355147 -0.0397795 0)
(0.138129 0.163041 0)
(0.271374 0.0814854 0)
(0.329811 -0.219573 0)
(0.406101 -0.269613 0)
(0.453809 -0.198181 0)
(0.539863 -0.131408 0)
(0.622436 -0.0896067 0)
(0.667853 -0.0364261 0)
(0.660405 0.012748 0)
(0.626655 0.0587975 0)
(0.61318 0.138044 0)
(0.630508 0.0954709 0)
(0.64257 -0.0750147 0)
(0.580799 -0.256249 0)
(0.783185 -0.177414 0)
(0.907546 0.477409 0)
(0.555999 0.764823 0)
(0.172041 0.497539 0)
(-0.340881 -0.0579139 0)
(0.131092 0.183342 0)
(0.303292 -0.0545277 0)
(0.323026 -0.259547 0)
(0.419326 -0.287148 0)
(0.458857 -0.233413 0)
(0.514226 -0.183821 0)
(0.58517 -0.133618 0)
(0.627184 -0.0691172 0)
(0.603709 -0.0105672 0)
(0.533197 0.0771619 0)
(0.520784 0.10715 0)
(0.551401 0.0759546 0)
(0.53091 -0.104973 0)
(0.370478 -0.223357 0)
(0.443519 -0.319522 0)
(0.905026 0.350379 0)
(0.736618 0.705389 0)
(0.180392 0.443906 0)
(-0.205715 -0.300975 0)
(0.155945 0.178243 0)
(0.309636 -0.181744 0)
(0.320363 -0.285176 0)
(0.422464 -0.315744 0)
(0.463436 -0.282267 0)
(0.52344 -0.234044 0)
(0.581302 -0.1664 0)
(0.609261 -0.067551 0)
(0.571718 0.0372279 0)
(0.502146 0.074815 0)
(0.512539 0.0662039 0)
(0.520453 0.0489446 0)
(0.42878 -0.0546787 0)
(0.290699 -0.172732 0)
(0.44246 -0.107412 0)
(0.777574 0.292558 0)
(1.1054 0.735239 0)
(0.302022 0.462679 0)
(0.224153 -0.248006 0)
(0.185395 0.177023 0)
(-0.00574887 -0.0894064 0)
(-0.0132333 -0.0939026 0)
(-0.0215115 -0.100148 0)
(-0.0233108 -0.107693 0)
(-0.0169713 -0.114227 0)
(-0.0120326 -0.129874 0)
(0.00670153 -0.129373 0)
(0.0268951 -0.128753 0)
(0.0500778 -0.121922 0)
(0.050287 -0.112089 0)
(0.0432082 -0.102786 0)
(0.0392968 -0.110287 0)
(0.0362418 -0.127335 0)
(0.0722316 -0.123364 0)
(0.103165 -0.063803 0)
(0.119406 0.0384831 0)
(0.100189 0.192333 0)
(-0.0214294 0.230095 0)
(-0.132033 0.112823 0)
(-0.160013 0.06488 0)
(-0.10601 0.122974 0)
(-0.00945628 0.0936136 0)
(0.0613759 0.100299 0)
(-0.00653797 -0.0370188 0)
(-0.0180256 -0.04165 0)
(-0.0254592 -0.0513978 0)
(-0.026082 -0.061054 0)
(-0.0148096 -0.0749388 0)
(-0.00933844 -0.103708 0)
(0.0197868 -0.108217 0)
(0.0520818 -0.0855753 0)
(0.0901529 -0.0342982 0)
(0.103414 0.0106739 0)
(0.116487 0.0385133 0)
(0.136743 0.0463906 0)
(0.12781 0.072417 0)
(0.104814 0.115587 0)
(0.0688314 0.135748 0)
(0.0610841 0.131346 0)
(0.0879326 0.206472 0)
(0.188887 0.285182 0)
(0.067976 0.234466 0)
(-0.0211262 0.142698 0)
(-0.0308356 0.0272993 0)
(-0.0212976 -0.0527411 0)
(0.0536198 -0.0449188 0)
(-0.00648328 -0.0357559 0)
(-0.0208573 -0.0493478 0)
(-0.0330129 -0.0761478 0)
(-0.0419053 -0.108202 0)
(-0.0424045 -0.125827 0)
(-0.0476923 -0.140644 0)
(-0.00263665 -0.118036 0)
(0.0500229 -0.109467 0)
(0.0861725 -0.0662542 0)
(0.0807049 -0.0337045 0)
(0.0889584 -0.00866455 0)
(0.0942238 -0.00298217 0)
(0.0996994 0.0260455 0)
(0.142802 0.0542308 0)
(0.162453 0.0741866 0)
(0.188324 0.0941456 0)
(0.189116 0.152961 0)
(0.268802 0.23597 0)
(0.34913 0.261403 0)
(0.355737 0.146588 0)
(0.357521 0.0514982 0)
(0.31905 0.00314429 0)
(0.309526 -0.0120196 0)
(-0.0189408 -0.0104761 0)
(-0.0646098 -0.00569544 0)
(-0.0911336 -0.00464015 0)
(-0.0849704 -0.0124234 0)
(-0.06522 -0.0197898 0)
(-0.0872764 -0.0986378 0)
(-0.0344646 -0.132485 0)
(-0.000220375 -0.136988 0)
(0.0144286 -0.0915533 0)
(0.0104889 -0.060259 0)
(0.0428659 -0.0327495 0)
(0.0460423 -0.00263333 0)
(0.0722754 0.0533076 0)
(0.0963867 0.0919411 0)
(0.106739 0.136859 0)
(0.158893 0.156626 0)
(0.194523 0.192876 0)
(0.264486 0.181902 0)
(0.359087 0.18804 0)
(0.456013 0.104063 0)
(0.53097 -0.0128597 0)
(0.574518 -0.100716 0)
(0.625299 -0.176716 0)
(0.00821446 -0.29871 0)
(0.00247128 -0.29098 0)
(-0.014968 -0.279931 0)
(-0.0833621 -0.275879 0)
(-0.175545 -0.279261 0)
(-0.217093 -0.335533 0)
(-0.298488 -0.332207 0)
(-0.380109 -0.248058 0)
(-0.370718 -0.158948 0)
(-0.341678 -0.125709 0)
(-0.238734 -0.0803658 0)
(-0.183998 -0.0506436 0)
(-0.102733 -0.0359985 0)
(-0.0259712 -0.00746722 0)
(0.0214456 0.0213819 0)
(0.101144 0.0493908 0)
(0.136706 0.0792734 0)
(0.200793 0.0749212 0)
(0.289305 0.0915434 0)
(0.360609 0.0133133 0)
(0.456877 -0.0236179 0)
(0.472111 -0.122409 0)
(0.533692 -0.22133 0)
(0.00820374 0.628317 0)
(0.0509838 0.24105 0)
(-0.157211 0.83341 0)
(-0.116346 -0.200787 0)
(-0.139598 -0.660319 0)
(-0.325629 -0.620824 0)
(-0.535437 -0.466916 0)
(-0.682647 -0.433944 0)
(-0.705006 -0.454104 0)
(-0.622757 -0.427852 0)
(-0.537302 -0.368093 0)
(-0.495916 -0.273627 0)
(-0.443763 -0.196064 0)
(-0.362179 -0.111159 0)
(-0.267428 -0.0589592 0)
(-0.15942 0.0208094 0)
(-0.0349382 0.0774397 0)
(0.0592901 0.0693542 0)
(0.172489 0.0551832 0)
(0.20716 -0.0354909 0)
(0.317826 -0.0657429 0)
(0.356998 -0.165796 0)
(0.402375 -0.262123 0)
(0.00329066 -0.907808 0)
(0.00917066 -0.618203 0)
(0.167951 -0.544159 0)
(0.591648 -0.754603 0)
(-0.217736 -0.682299 0)
(-0.324781 -0.632051 0)
(-0.366809 -0.589744 0)
(-0.440926 -0.662564 0)
(-0.614167 -0.841265 0)
(-0.530631 -0.83646 0)
(-0.489066 -0.724331 0)
(-0.456243 -0.667748 0)
(-0.454074 -0.631665 0)
(-0.417915 -0.500147 0)
(-0.385991 -0.416297 0)
(-0.314299 -0.348681 0)
(-0.259402 -0.302208 0)
(-0.157976 -0.237293 0)
(-0.0721247 -0.172607 0)
(-0.0439917 -0.274622 0)
(0.045339 -0.281068 0)
(0.074816 -0.351903 0)
(0.111753 -0.428864 0)
(-0.151096 0.757628 0)
(-0.314305 0.610201 0)
(-0.229783 0.229309 0)
(-0.156696 -0.171129 0)
(-0.254127 -0.368006 0)
(-0.0974485 -0.283194 0)
(0.0979047 0.0583825 0)
(0.0534846 0.377149 0)
(0.33457 -0.386456 0)
(0.32399 -0.682103 0)
(0.127412 -0.500606 0)
(0.0596429 -0.210335 0)
(-0.222029 -0.656783 0)
(-0.263046 -0.909715 0)
(-0.222789 -0.804184 0)
(-0.236322 -0.649569 0)
(-0.209766 -0.62899 0)
(-0.184338 -0.626771 0)
(-0.177962 -0.624426 0)
(-0.15158 -0.697857 0)
(-0.125458 -0.716113 0)
(-0.0696381 -0.80109 0)
(-0.00408427 -0.906665 0)
(0.0336168 -0.19324 0)
(0.201721 -0.323405 0)
(0.270769 -0.376178 0)
(0.207217 -0.363952 0)
(-0.0089766 -0.315404 0)
(-0.15096 -0.0597353 0)
(0.077144 0.438787 0)
(0.3805 0.411772 0)
(0.47026 0.360174 0)
(0.0787822 0.0994469 0)
(-0.206057 -0.252509 0)
(-0.244969 -0.436744 0)
(-0.0934421 -0.513145 0)
(0.202544 -0.693792 0)
(0.377435 -0.642789 0)
(0.377928 -0.42955 0)
(0.323113 -0.267934 0)
(0.300867 -0.17993 0)
(0.255347 -0.0691716 0)
(0.272814 -0.149406 0)
(0.201922 -0.251786 0)
(0.217586 -0.452326 0)
(0.244796 -0.615196 0)
(0.0076707 0.263036 0)
(-0.0293158 0.162411 0)
(-0.0648983 -0.0243936 0)
(-0.0772169 -0.16544 0)
(-0.114188 -0.230987 0)
(-0.116693 -0.201235 0)
(-0.0222872 -0.0259282 0)
(0.330618 0.184788 0)
(0.399032 0.188731 0)
(0.385944 0.106632 0)
(0.280121 -0.0162997 0)
(0.158503 -0.0954705 0)
(0.146769 -0.0261356 0)
(0.142225 -0.0341271 0)
(0.129071 -0.140327 0)
(0.136995 -0.237471 0)
(0.169715 -0.315037 0)
(0.196146 -0.389172 0)
(0.254718 -0.390311 0)
(0.367233 -0.380168 0)
(0.418471 -0.352262 0)
(0.425392 -0.301176 0)
(0.397941 -0.257994 0)
(0.0292382 -0.0269584 0)
(0.0976456 -0.123288 0)
(0.0989719 -0.145259 0)
(0.0444501 -0.151545 0)
(-0.0264784 -0.143283 0)
(-0.0651138 -0.0875956 0)
(-0.0472521 -0.0431086 0)
(0.0102901 0.00956784 0)
(0.229145 0.157892 0)
(0.26462 0.119846 0)
(0.248199 0.00191717 0)
(0.226002 -0.211323 0)
(0.210848 -0.314174 0)
(0.224999 -0.342027 0)
(0.22983 -0.32234 0)
(0.222764 -0.270537 0)
(0.238521 -0.217278 0)
(0.25689 -0.129235 0)
(0.274544 -0.033876 0)
(0.259787 0.024458 0)
(0.228988 0.00150836 0)
(0.17142 -0.101662 0)
(0.130396 -0.195936 0)
(0.00786878 0.0504797 0)
(0.0207196 -0.00929206 0)
(0.0261718 -0.0835988 0)
(0.0227373 -0.135724 0)
(-0.00653528 -0.158402 0)
(-0.0260684 -0.1439 0)
(-0.0270619 -0.119108 0)
(-0.0224502 -0.0857844 0)
(0.0396397 0.0277008 0)
(0.16046 0.0644344 0)
(0.174279 0.020904 0)
(0.203773 -0.106012 0)
(0.158278 -0.176918 0)
(0.115202 -0.239462 0)
(0.0969007 -0.283295 0)
(0.0775236 -0.302007 0)
(0.0522204 -0.316043 0)
(0.0444715 -0.331331 0)
(0.0554375 -0.327708 0)
(0.0941077 -0.313565 0)
(0.135892 -0.300046 0)
(0.143075 -0.294091 0)
(0.121919 -0.288542 0)
(0.0169729 -0.0215759 0)
(0.0384516 -0.0604694 0)
(0.0375631 -0.0766669 0)
(0.0268774 -0.0908596 0)
(0.00645646 -0.0979201 0)
(-0.0110526 -0.0861951 0)
(-0.0249673 -0.078356 0)
(-0.0306918 -0.0671157 0)
(-0.0254369 -0.0416928 0)
(0.0578274 -0.00600013 0)
(0.105333 -0.0539781 0)
(0.116475 -0.129371 0)
(0.0998745 -0.172229 0)
(0.0777832 -0.21168 0)
(0.0574415 -0.229073 0)
(0.0391441 -0.229238 0)
(0.0222321 -0.212041 0)
(0.00548048 -0.182514 0)
(-0.0108693 -0.146279 0)
(-0.0225803 -0.11578 0)
(-0.0281514 -0.108205 0)
(-0.0391725 -0.123631 0)
(-0.0522335 -0.139611 0)
(0.0110793 -0.0365725 0)
(0.0275431 -0.0755624 0)
(0.0334598 -0.0925937 0)
(0.027459 -0.0993199 0)
(0.0141066 -0.0990605 0)
(0.00452229 -0.090428 0)
(-0.00208528 -0.0826917 0)
(-0.0041011 -0.0681637 0)
(0.00167275 -0.0618505 0)
(0.03207 -0.0496364 0)
(0.0654824 -0.0695636 0)
(0.0625342 -0.117288 0)
(0.0497101 -0.167318 0)
(0.0298493 -0.210057 0)
(0.00323179 -0.233012 0)
(-0.0182463 -0.24059 0)
(-0.0405113 -0.244545 0)
(-0.0577029 -0.245673 0)
(-0.0676925 -0.2392 0)
(-0.0677583 -0.230113 0)
(-0.063496 -0.220862 0)
(-0.0616583 -0.212086 0)
(-0.063474 -0.203976 0)
(0.00589883 -0.0422964 0)
(0.0136626 -0.0725028 0)
(0.0150398 -0.0809414 0)
(0.011504 -0.0846638 0)
(0.00674909 -0.085759 0)
(0.00446139 -0.0829451 0)
(0.00280584 -0.0797407 0)
(0.00680141 -0.0762687 0)
(0.0138176 -0.0742638 0)
(0.0282908 -0.0664674 0)
(0.0456191 -0.077878 0)
(0.0478924 -0.101897 0)
(0.0374467 -0.136061 0)
(0.0164483 -0.169144 0)
(-0.0102748 -0.194331 0)
(-0.0291024 -0.205898 0)
(-0.0429476 -0.203406 0)
(-0.0557483 -0.196465 0)
(-0.0650902 -0.182148 0)
(-0.0704111 -0.173076 0)
(-0.0755239 -0.169318 0)
(-0.0782214 -0.167785 0)
(-0.0806944 -0.168177 0)
(0.00416126 -0.0559431 0)
(0.00712198 -0.0795049 0)
(0.00700945 -0.0820394 0)
(0.00613312 -0.0846722 0)
(0.00494183 -0.0857896 0)
(0.0052881 -0.0840465 0)
(0.00762554 -0.0832435 0)
(0.0126654 -0.0809741 0)
(0.0176583 -0.0821615 0)
(0.0276393 -0.0793434 0)
(0.0378496 -0.0881232 0)
(0.0411249 -0.103399 0)
(0.0401239 -0.126856 0)
(0.0285679 -0.149709 0)
(0.00851647 -0.173152 0)
(-0.0120771 -0.190634 0)
(-0.0299906 -0.197048 0)
(-0.042367 -0.19626 0)
(-0.0510708 -0.187285 0)
(-0.061891 -0.180875 0)
(-0.0734401 -0.178013 0)
(-0.0797335 -0.173314 0)
(-0.083796 -0.167648 0)
(0.00239105 -0.0589714 0)
(0.0039896 -0.0798785 0)
(0.00495122 -0.0820718 0)
(0.00541187 -0.0842971 0)
(0.00550638 -0.0860369 0)
(0.00683384 -0.0863929 0)
(0.00917474 -0.0869219 0)
(0.0133741 -0.0867245 0)
(0.0177628 -0.0881427 0)
(0.0247895 -0.0875309 0)
(0.032436 -0.0934254 0)
(0.0371274 -0.105693 0)
(0.0386858 -0.124979 0)
(0.0329153 -0.143113 0)
(0.0205033 -0.160742 0)
(0.00650223 -0.174444 0)
(-0.0123003 -0.182243 0)
(-0.0290386 -0.185103 0)
(-0.0439251 -0.177969 0)
(-0.0546174 -0.167711 0)
(-0.0705664 -0.165695 0)
(-0.0820185 -0.166422 0)
(-0.0886967 -0.162604 0)
(0.00139621 -0.0615216 0)
(0.00310365 -0.0813944 0)
(0.00459453 -0.0829989 0)
(0.00577832 -0.0847665 0)
(0.00639896 -0.0864923 0)
(0.00706204 -0.087942 0)
(0.00821606 -0.0892929 0)
(0.0102665 -0.0906289 0)
(0.0127953 -0.0927573 0)
(0.0167125 -0.0946438 0)
(0.0232572 -0.10058 0)
(0.0274477 -0.110638 0)
(0.0271153 -0.122082 0)
(0.0223001 -0.132988 0)
(0.0132675 -0.147047 0)
(0.00166391 -0.156801 0)
(-0.0169724 -0.161837 0)
(-0.032591 -0.162313 0)
(-0.0454999 -0.160468 0)
(-0.0582286 -0.15175 0)
(-0.0691618 -0.148875 0)
(-0.0822401 -0.153162 0)
(-0.088371 -0.15388 0)
(0.00103573 -0.0631021 0)
(0.00287689 -0.0828225 0)
(0.00432593 -0.084218 0)
(0.00475857 -0.0857752 0)
(0.00511801 -0.087028 0)
(0.00467554 -0.0885219 0)
(0.00440483 -0.089982 0)
(0.00467518 -0.0918283 0)
(0.00509297 -0.0945394 0)
(0.00666126 -0.0988413 0)
(0.00852853 -0.104423 0)
(0.0103358 -0.111638 0)
(0.00832883 -0.119396 0)
(0.0053557 -0.129159 0)
(-0.00261328 -0.137497 0)
(-0.0139283 -0.141154 0)
(-0.0280543 -0.14725 0)
(-0.0404391 -0.151792 0)
(-0.0514861 -0.150422 0)
(-0.0637942 -0.143991 0)
(-0.0713899 -0.141201 0)
(-0.079376 -0.148112 0)
(-0.0847629 -0.150155 0)
(0.00112005 -0.065182 0)
(0.00217247 -0.0840105 0)
(0.00217118 -0.0842529 0)
(0.00239329 -0.0852755 0)
(0.00249947 -0.0864203 0)
(0.00263026 -0.0876445 0)
(0.00275223 -0.089485 0)
(0.00283806 -0.0914933 0)
(0.00284964 -0.0945182 0)
(0.0026884 -0.0987883 0)
(0.0016967 -0.103542 0)
(0.000583499 -0.108936 0)
(-0.00329241 -0.115425 0)
(-0.0084521 -0.122186 0)
(-0.0149484 -0.127067 0)
(-0.0222523 -0.131453 0)
(-0.0294383 -0.137384 0)
(-0.0392405 -0.140539 0)
(-0.0513698 -0.138013 0)
(-0.0598892 -0.133533 0)
(-0.0655957 -0.133492 0)
(-0.0732093 -0.13939 0)
(-0.0792627 -0.141221 0)
(0.000715828 -0.06652 0)
(0.00110507 -0.0840647 0)
(0.00132206 -0.0845849 0)
(0.00181743 -0.0857102 0)
(0.00199692 -0.0866172 0)
(0.00249389 -0.0876985 0)
(0.00279254 -0.0892726 0)
(0.00272262 -0.0910017 0)
(0.00243159 -0.093358 0)
(0.00141568 -0.0969524 0)
(-0.000909093 -0.102228 0)
(-0.00321819 -0.107652 0)
(-0.00723173 -0.111128 0)
(-0.0126905 -0.116381 0)
(-0.0184525 -0.121034 0)
(-0.0252316 -0.125769 0)
(-0.0316218 -0.126991 0)
(-0.041689 -0.127319 0)
(-0.0518236 -0.127753 0)
(-0.0599085 -0.125978 0)
(-0.0674206 -0.127183 0)
(-0.0745738 -0.132472 0)
(-0.0830059 -0.133919 0)
(0.000417757 -0.0670981 0)
(0.000615881 -0.0847016 0)
(0.00129487 -0.0852366 0)
(0.00149399 -0.0862818 0)
(0.00154945 -0.0871292 0)
(0.00153069 -0.088274 0)
(0.00140909 -0.0896112 0)
(0.00129654 -0.091355 0)
(0.00118164 -0.0937202 0)
(0.000558485 -0.0962859 0)
(-0.00177667 -0.0996582 0)
(-0.00468743 -0.103128 0)
(-0.00762651 -0.106467 0)
(-0.0122266 -0.110779 0)
(-0.0179557 -0.114817 0)
(-0.0251195 -0.118456 0)
(-0.0327938 -0.120592 0)
(-0.039961 -0.121043 0)
(-0.0469551 -0.121678 0)
(-0.0535803 -0.119559 0)
(-0.0607313 -0.120484 0)
(-0.0665791 -0.124749 0)
(-0.0774294 -0.125422 0)
(0.000390882 -0.0676794 0)
(0.000534243 -0.0846851 0)
(6.84605e-05 -0.0851137 0)
(-0.00022922 -0.0856574 0)
(-0.000671208 -0.0867056 0)
(-0.00117866 -0.088084 0)
(-0.00173139 -0.0895544 0)
(-0.00238858 -0.0911276 0)
(-0.00326805 -0.0925612 0)
(-0.00442991 -0.0942751 0)
(-0.00569827 -0.0964133 0)
(-0.00920289 -0.0993547 0)
(-0.0126055 -0.103455 0)
(-0.0162127 -0.105428 0)
(-0.0208157 -0.107975 0)
(-0.0267239 -0.109158 0)
(-0.0346844 -0.110511 0)
(-0.0424633 -0.112566 0)
(-0.0491157 -0.111696 0)
(-0.0565754 -0.111109 0)
(-0.0636838 -0.111989 0)
(-0.0707281 -0.113153 0)
(-0.080049 -0.111261 0)
(0.000111307 -0.0678344 0)
(-0.000138123 -0.0845038 0)
(-0.000571937 -0.0848473 0)
(-0.000920912 -0.0855612 0)
(-0.00146183 -0.0862573 0)
(-0.00205682 -0.0870289 0)
(-0.00296475 -0.0882115 0)
(-0.00414529 -0.0897965 0)
(-0.00555452 -0.0917484 0)
(-0.00725514 -0.0929692 0)
(-0.00946202 -0.0950246 0)
(-0.0121573 -0.0980466 0)
(-0.016225 -0.0998519 0)
(-0.0206457 -0.102389 0)
(-0.0257237 -0.104335 0)
(-0.0306363 -0.105032 0)
(-0.0348274 -0.106439 0)
(-0.0402068 -0.107398 0)
(-0.047396 -0.106797 0)
(-0.0539382 -0.106895 0)
(-0.0594752 -0.107133 0)
(-0.0693982 -0.107457 0)
(-0.0769779 -0.105132 0)
(0.000216567 -0.0682023 0)
(0.000167861 -0.0842754 0)
(-0.000309027 -0.0844415 0)
(-0.00074011 -0.0848579 0)
(-0.0013822 -0.0854185 0)
(-0.00222364 -0.0862655 0)
(-0.00315529 -0.0872055 0)
(-0.00432732 -0.0882875 0)
(-0.00591343 -0.089474 0)
(-0.00830146 -0.0913461 0)
(-0.0102708 -0.0927469 0)
(-0.0120605 -0.0937178 0)
(-0.0151901 -0.0952109 0)
(-0.0194479 -0.0971526 0)
(-0.0244757 -0.09835 0)
(-0.0293205 -0.0996021 0)
(-0.0359277 -0.100243 0)
(-0.0427028 -0.098659 0)
(-0.0490535 -0.0992768 0)
(-0.0538984 -0.098389 0)
(-0.0611485 -0.0981349 0)
(-0.0687387 -0.0962877 0)
(-0.0760401 -0.0961319 0)
(-9.24726e-05 -0.0677455 0)
(-0.000691317 -0.0835824 0)
(-0.00139543 -0.0838656 0)
(-0.00202577 -0.0843113 0)
(-0.00283247 -0.0848252 0)
(-0.00384325 -0.0854874 0)
(-0.00502383 -0.0862882 0)
(-0.0064638 -0.08721 0)
(-0.00817434 -0.0880459 0)
(-0.0100693 -0.0885595 0)
(-0.0124285 -0.0895488 0)
(-0.0159333 -0.0910465 0)
(-0.0191484 -0.0920035 0)
(-0.0222619 -0.0921557 0)
(-0.0266525 -0.0930578 0)
(-0.0321871 -0.094363 0)
(-0.036764 -0.0938498 0)
(-0.0412527 -0.0950241 0)
(-0.0454364 -0.0947472 0)
(-0.0526897 -0.0934944 0)
(-0.0590329 -0.0908742 0)
(-0.0666402 -0.0903383 0)
(-0.0729625 -0.0893411 0)
(-8.02543e-05 -0.067802 0)
(-0.000530208 -0.0832631 0)
(-0.00128164 -0.0834574 0)
(-0.0019271 -0.0837283 0)
(-0.00272655 -0.0840186 0)
(-0.00357623 -0.0842727 0)
(-0.00472369 -0.0847585 0)
(-0.00615496 -0.0853394 0)
(-0.00782428 -0.0860024 0)
(-0.00966428 -0.0867445 0)
(-0.0122292 -0.087523 0)
(-0.0153332 -0.087967 0)
(-0.0187301 -0.0890058 0)
(-0.0229554 -0.0894263 0)
(-0.0260591 -0.0901996 0)
(-0.0291862 -0.0896967 0)
(-0.0345514 -0.0896788 0)
(-0.0401607 -0.0886477 0)
(-0.0468717 -0.0868162 0)
(-0.0531348 -0.0862769 0)
(-0.0580375 -0.0863944 0)
(-0.0638766 -0.0840668 0)
(-0.0713416 -0.080773 0)
(-0.000166443 -0.067067 0)
(-0.000771892 -0.0821778 0)
(-0.00164185 -0.082353 0)
(-0.00249977 -0.0825365 0)
(-0.00360244 -0.0828168 0)
(-0.00478572 -0.0832142 0)
(-0.00614575 -0.0836214 0)
(-0.00776611 -0.0840051 0)
(-0.00967401 -0.0844333 0)
(-0.011795 -0.0847431 0)
(-0.0138431 -0.0845503 0)
(-0.0155931 -0.0848607 0)
(-0.0184909 -0.0850125 0)
(-0.0217627 -0.0853963 0)
(-0.026397 -0.0847665 0)
(-0.0318421 -0.084897 0)
(-0.0365105 -0.0844384 0)
(-0.0408557 -0.0832209 0)
(-0.0447925 -0.0836989 0)
(-0.0487812 -0.0821954 0)
(-0.0557431 -0.0784959 0)
(-0.0627056 -0.0766551 0)
(-0.0681185 -0.0752005 0)
(-0.00018939 -0.0669739 0)
(-0.000732504 -0.0818722 0)
(-0.00149777 -0.0819952 0)
(-0.00216249 -0.0820016 0)
(-0.00298087 -0.0819656 0)
(-0.00399055 -0.0819741 0)
(-0.00521034 -0.0820081 0)
(-0.00665287 -0.0820733 0)
(-0.0083706 -0.0821508 0)
(-0.0105089 -0.0823169 0)
(-0.0132756 -0.0826091 0)
(-0.0167586 -0.0824263 0)
(-0.0199187 -0.0821366 0)
(-0.0231873 -0.0816685 0)
(-0.0262765 -0.0817305 0)
(-0.0290646 -0.0816727 0)
(-0.0326666 -0.0807611 0)
(-0.0375665 -0.0797085 0)
(-0.0431397 -0.0765397 0)
(-0.0494423 -0.0747972 0)
(-0.0541468 -0.0742588 0)
(-0.059297 -0.0716736 0)
(-0.065493 -0.0682721 0)
(-0.000249458 -0.0661251 0)
(-0.000923251 -0.0807349 0)
(-0.00184229 -0.0808817 0)
(-0.0027174 -0.0808666 0)
(-0.00377348 -0.0808598 0)
(-0.00495305 -0.0808323 0)
(-0.00631182 -0.0807276 0)
(-0.00786104 -0.080544 0)
(-0.00960174 -0.0802844 0)
(-0.0115002 -0.0799218 0)
(-0.0134319 -0.0794521 0)
(-0.0152759 -0.0791725 0)
(-0.0177784 -0.0789891 0)
(-0.0208085 -0.0785336 0)
(-0.0243592 -0.0775193 0)
(-0.0288804 -0.0761639 0)
(-0.0337025 -0.0750071 0)
(-0.0380382 -0.073552 0)
(-0.0421193 -0.0731579 0)
(-0.0459858 -0.0713344 0)
(-0.0512585 -0.0681772 0)
(-0.0570501 -0.0656155 0)
(-0.0622919 -0.0628135 0)
(-0.000209904 -0.0659439 0)
(-0.000653488 -0.0803684 0)
(-0.00135266 -0.0804424 0)
(-0.00198213 -0.0802457 0)
(-0.00283454 -0.0800015 0)
(-0.00385921 -0.0797194 0)
(-0.00512458 -0.0794154 0)
(-0.00664533 -0.0791046 0)
(-0.00843118 -0.0787845 0)
(-0.010499 -0.0784611 0)
(-0.0129242 -0.0780933 0)
(-0.0157513 -0.0773125 0)
(-0.0186594 -0.0764045 0)
(-0.0216966 -0.0755802 0)
(-0.0248562 -0.0747114 0)
(-0.027934 -0.073819 0)
(-0.0311601 -0.0725298 0)
(-0.0349981 -0.0705847 0)
(-0.0394751 -0.0678871 0)
(-0.0443638 -0.0655735 0)
(-0.0489836 -0.0635249 0)
(-0.0538475 -0.0606658 0)
(-0.0590321 -0.0572951 0)
(-0.000204806 -0.0652051 0)
(-0.000730246 -0.0794306 0)
(-0.00150317 -0.0794818 0)
(-0.00220764 -0.0791593 0)
(-0.0031108 -0.0787652 0)
(-0.00412777 -0.078267 0)
(-0.0053116 -0.0776725 0)
(-0.00668427 -0.0770077 0)
(-0.00825983 -0.07628 0)
(-0.0100502 -0.0754892 0)
(-0.0120694 -0.0746878 0)
(-0.0142657 -0.0740339 0)
(-0.0167048 -0.0732075 0)
(-0.0194585 -0.0720921 0)
(-0.0225535 -0.0708089 0)
(-0.0260509 -0.0692574 0)
(-0.0298888 -0.0675346 0)
(-0.0338058 -0.0658089 0)
(-0.0376606 -0.0639899 0)
(-0.0416107 -0.0616005 0)
(-0.0459969 -0.0587156 0)
(-0.0507665 -0.0557028 0)
(-0.0555573 -0.0522997 0)
(-9.46194e-05 -0.0650893 0)
(-0.000408994 -0.0791825 0)
(-0.00104653 -0.0791987 0)
(-0.00157221 -0.0787848 0)
(-0.00232743 -0.0782942 0)
(-0.00320112 -0.0776987 0)
(-0.00427512 -0.0770252 0)
(-0.00557821 -0.0762834 0)
(-0.00713019 -0.0754707 0)
(-0.00894024 -0.0745621 0)
(-0.0109767 -0.0734725 0)
(-0.0133093 -0.0722241 0)
(-0.0158938 -0.0709615 0)
(-0.0186379 -0.0696516 0)
(-0.0215319 -0.068165 0)
(-0.0245788 -0.066527 0)
(-0.0277812 -0.0646649 0)
(-0.0312353 -0.062441 0)
(-0.0350033 -0.0599103 0)
(-0.0389708 -0.057233 0)
(-0.0430495 -0.0543824 0)
(-0.0473847 -0.0511718 0)
(-0.0519018 -0.0475691 0)
(-1.30101e-05 -0.0647546 0)
(-0.000307354 -0.0783963 0)
(-0.000949592 -0.0783562 0)
(-0.0014332 -0.0777836 0)
(-0.002138 -0.0771337 0)
(-0.0029075 -0.0763483 0)
(-0.00376865 -0.0753938 0)
(-0.00474271 -0.0742943 0)
(-0.00592092 -0.0731018 0)
(-0.00740638 -0.071884 0)
(-0.0092621 -0.0707141 0)
(-0.0114278 -0.0695373 0)
(-0.0138595 -0.0682218 0)
(-0.0165373 -0.0666815 0)
(-0.0194173 -0.0649815 0)
(-0.0224614 -0.0630865 0)
(-0.0256648 -0.0610059 0)
(-0.0289992 -0.0587527 0)
(-0.0324429 -0.0562482 0)
(-0.0360347 -0.0534261 0)
(-0.0398209 -0.0502977 0)
(-0.0438612 -0.0469027 0)
(-0.0480762 -0.0431581 0)
(0.000213763 -0.0648398 0)
(-0.000105666 -0.0782243 0)
(-0.000873983 -0.0781619 0)
(-0.00135639 -0.0775352 0)
(-0.00207555 -0.0768262 0)
(-0.00280862 -0.0759772 0)
(-0.00356087 -0.074923 0)
(-0.00438603 -0.0737106 0)
(-0.00534999 -0.0723248 0)
(-0.00646749 -0.0707376 0)
(-0.00781384 -0.0690067 0)
(-0.00947986 -0.0672025 0)
(-0.0115153 -0.0654229 0)
(-0.014009 -0.0637655 0)
(-0.0168364 -0.0620569 0)
(-0.0199041 -0.0602089 0)
(-0.023034 -0.0580434 0)
(-0.0262473 -0.0555673 0)
(-0.0295321 -0.0528085 0)
(-0.032922 -0.0498049 0)
(-0.036435 -0.046527 0)
(-0.040148 -0.042944 0)
(-0.0440643 -0.0390293 0)
(0.000358791 -0.0647148 0)
(-0.000109674 -0.0771961 0)
(-0.00129624 -0.077098 0)
(-0.00197099 -0.0764521 0)
(-0.00288185 -0.0756849 0)
(-0.00371174 -0.0747953 0)
(-0.00460693 -0.0738236 0)
(-0.00550885 -0.072634 0)
(-0.00641999 -0.071187 0)
(-0.00737255 -0.0695154 0)
(-0.00840086 -0.0676708 0)
(-0.00958521 -0.0657076 0)
(-0.010999 -0.0636375 0)
(-0.012639 -0.0613796 0)
(-0.014591 -0.0590544 0)
(-0.0169127 -0.0567193 0)
(-0.019743 -0.0545045 0)
(-0.0229827 -0.0522267 0)
(-0.0262845 -0.0495895 0)
(-0.0295297 -0.0465107 0)
(-0.0328255 -0.0430578 0)
(-0.0362452 -0.0392898 0)
(-0.0398685 -0.0351965 0)
(0.000404845 -0.0648595 0)
(-0.000532636 -0.0762153 0)
(-0.00246618 -0.076095 0)
(-0.0036428 -0.0755701 0)
(-0.00501537 -0.0748716 0)
(-0.00618624 -0.074049 0)
(-0.0073303 -0.0730679 0)
(-0.00838415 -0.0718895 0)
(-0.0093372 -0.0704794 0)
(-0.0101777 -0.0688258 0)
(-0.0109444 -0.0669035 0)
(-0.0117274 -0.0647699 0)
(-0.0126238 -0.0624888 0)
(-0.0136366 -0.0600323 0)
(-0.0148021 -0.0575258 0)
(-0.0162134 -0.0548623 0)
(-0.017902 -0.051982 0)
(-0.0198724 -0.0489606 0)
(-0.0224507 -0.0460956 0)