/*--------------------------------*- C++ -*----------------------------------*\
| =========                 |                                                 |
| \\      /  F ield         | OpenFOAM: The Open Source CFD Toolbox           |
|  \\    /   O peration     | Version:  2.4.0                                 |
|   \\  /    A nd           | Web:      www.OpenFOAM.org                      |
|    \\/     M anipulation  |                                                 |
\*---------------------------------------------------------------------------*/
FoamFile
{
    version     2.0;
    format      ascii;
    class       volVectorField;
    location    "0.55";
    object      U.water;
}
// * * * * * * * * * * * * * * * * * * * * * * * * * * * * * * * * * * * * * //

dimensions      [0 1 -1 0 0 0 0];

internalField   nonuniform List<vector> 
2268
(
(0.0150719 -0.00626672 0)
(0.0425166 -0.00669479 0)
(0.0731209 -0.00489066 0)
(0.0921304 -0.00815652 0)
(0.137504 -0.00648963 0)
(0.157601 -0.0051551 0)
(0.177372 -0.00586664 0)
(0.209064 -0.00684182 0)
(0.24396 -0.00744143 0)
(0.273678 -0.00487014 0)
(0.281916 -0.00299392 0)
(0.29465 -0.00277779 0)
(0.298265 -0.00326048 0)
(0.306112 -0.00693982 0)
(0.296697 -0.00873827 0)
(0.270655 -0.0145305 0)
(0.232341 -0.00273178 0)
(0.166491 -0.00269941 0)
(0.109798 0.0121973 0)
(0.0533404 -0.000626166 0)
(0.0474616 0.00630262 0)
(0.0221234 0.00909582 0)
(-0.0166869 0.00255206 0)
(0.0154959 -0.0140534 0)
(0.041522 -0.0151025 0)
(0.0741677 -0.00938894 0)
(0.0952518 -0.0174598 0)
(0.133887 -0.0123118 0)
(0.157025 -0.00678951 0)
(0.180774 -0.00942471 0)
(0.212201 -0.00957181 0)
(0.245542 -0.0121305 0)
(0.266031 -0.00457469 0)
(0.280773 0.00254612 0)
(0.297589 0.00157583 0)
(0.310819 0.00177578 0)
(0.308496 0.00931532 0)
(0.299393 0.0306322 0)
(0.275309 0.0518956 0)
(0.233613 0.0549504 0)
(0.174236 0.0573208 0)
(0.105557 0.0384959 0)
(0.0695949 0.0273755 0)
(0.0406174 0.0103597 0)
(0.026969 0.0195015 0)
(-0.0156085 -0.00049113 0)
(0.0159685 0.0128614 0)
(0.0409109 0.0137116 0)
(0.0745353 0.0156107 0)
(0.0981145 0.015614 0)
(0.128789 0.0174089 0)
(0.159205 0.0216114 0)
(0.183763 0.0282672 0)
(0.217006 0.0295324 0)
(0.242921 0.0313492 0)
(0.257575 0.0355916 0)
(0.281369 0.0403762 0)
(0.308985 0.0383693 0)
(0.323923 0.0348583 0)
(0.325493 0.0346651 0)
(0.31069 0.0126184 0)
(0.2766 0.0136012 0)
(0.220023 0.046998 0)
(0.167694 0.0657499 0)
(0.0908855 0.0620193 0)
(0.0704269 0.033883 0)
(0.0481152 0.0236692 0)
(0.049619 0.031278 0)
(0.0244642 0.0116555 0)
(0.0169251 0.129614 0)
(0.0391351 0.127156 0)
(0.0743515 0.134497 0)
(0.101884 0.120904 0)
(0.122474 0.126426 0)
(0.160242 0.12849 0)
(0.187713 0.119022 0)
(0.218275 0.119719 0)
(0.233006 0.119178 0)
(0.254187 0.13385 0)
(0.284115 0.134639 0)
(0.305228 0.145801 0)
(0.303833 0.170237 0)
(0.291048 0.210042 0)
(0.282123 0.174664 0)
(0.271507 0.169536 0)
(0.237123 0.147156 0)
(0.178569 0.107843 0)
(0.105556 0.0762487 0)
(0.0681352 0.0424528 0)
(0.0388713 0.0202781 0)
(0.0468762 0.0368106 0)
(0.0179946 0.0303198 0)
(0.0150969 0.0135527 0)
(0.0331294 0.0134993 0)
(0.0652063 0.0138252 0)
(0.0944797 0.0120369 0)
(0.105286 0.0107004 0)
(0.138055 0.0105661 0)
(0.1736 0.0117511 0)
(0.190664 0.0159482 0)
(0.205348 0.0184237 0)
(0.239693 0.0266077 0)
(0.265558 0.0308562 0)
(0.286896 0.0498872 0)
(0.308498 0.0724419 0)
(0.331569 0.0990465 0)
(0.291659 0.138945 0)
(0.220718 0.190292 0)
(0.165822 0.285529 0)
(0.15011 0.183582 0)
(0.103537 0.131644 0)
(0.0748121 0.0692112 0)
(0.0230064 0.0351243 0)
(0.0323876 0.035091 0)
(0.0246477 0.0420351 0)
(0.00241225 0.0818286 0)
(0.00913031 0.0812948 0)
(0.0162703 0.0768261 0)
(0.0316754 0.0799688 0)
(0.0352561 0.0754374 0)
(0.0476498 0.0615631 0)
(0.0719904 0.061292 0)
(0.0900707 0.0641881 0)
(0.106468 0.0558387 0)
(0.1307 0.0607993 0)
(0.149885 0.0752944 0)
(0.163892 0.0936044 0)
(0.175823 0.133407 0)
(0.191544 0.232984 0)
(0.124566 0.333221 0)
(0.150355 0.280841 0)
(0.0942716 0.27385 0)
(0.0462845 0.307887 0)
(0.0581 0.185594 0)
(0.0644844 0.0998133 0)
(0.0113112 0.0458171 0)
(0.00273914 0.0411997 0)
(0.0133623 0.0582143 0)
(-0.00598911 -0.160383 0)
(-0.00889843 -0.161057 0)
(-0.0175016 -0.164077 0)
(-0.0149948 -0.162285 0)
(-0.0105823 -0.16174 0)
(-0.000165301 -0.166389 0)
(0.0158647 -0.161938 0)
(0.0294497 -0.157489 0)
(0.0482837 -0.154296 0)
(0.0593395 -0.150124 0)
(0.0606819 -0.143904 0)
(0.0549546 -0.142976 0)
(0.0391856 -0.150372 0)
(0.0404151 -0.177109 0)
(0.0798533 -0.114973 0)
(0.160952 0.108626 0)
(-0.0240813 0.318498 0)
(-0.0175892 0.304075 0)
(-0.0294513 0.27925 0)
(0.026337 0.143992 0)
(0.0086586 0.0679984 0)
(-0.0124464 0.0384463 0)
(0.0082767 0.0550951 0)
(-0.00529843 -0.0187749 0)
(-0.0133444 -0.0192922 0)
(-0.0189051 -0.0275472 0)
(-0.0193937 -0.0230967 0)
(-0.0196682 -0.0309217 0)
(-0.00513189 -0.0488742 0)
(0.0160657 -0.0417558 0)
(0.0303026 -0.0392087 0)
(0.0569864 -0.0408957 0)
(0.0767559 -0.0317856 0)
(0.0914047 -0.00564695 0)
(0.103656 0.014309 0)
(0.101552 0.0673192 0)
(0.0423807 0.154709 0)
(-0.0779146 0.159246 0)
(-0.068862 0.100809 0)
(-0.0381207 0.22457 0)
(-0.168662 0.283153 0)
(-0.155496 0.254702 0)
(-0.0584791 0.205922 0)
(-0.0159558 0.101628 0)
(-0.0103479 0.0543893 0)
(0.00987904 0.0691965 0)
(-0.101523 -0.286689 0)
(-0.064786 -0.376543 0)
(0.0758448 -0.391311 0)
(0.181317 -0.383182 0)
(0.234727 -0.388405 0)
(0.319746 -0.415606 0)
(0.404543 -0.438425 0)
(0.465262 -0.445502 0)
(0.499851 -0.447128 0)
(0.509861 -0.449493 0)
(0.513999 -0.42732 0)
(0.55842 -0.404397 0)
(0.651049 -0.412467 0)
(0.665357 -0.376923 0)
(0.515105 -0.406756 0)
(0.238287 -0.508492 0)
(0.0504977 -0.191086 0)
(-0.0421105 -0.102135 0)
(0.105398 -0.190662 0)
(-0.0646509 -0.0399862 0)
(0.00434699 -0.197029 0)
(0.205604 -0.298774 0)
(0.357557 -0.231425 0)
(0.46713 -0.174236 0)
(0.592417 -0.176398 0)
(0.689584 -0.188336 0)
(0.746261 -0.165826 0)
(0.785598 -0.123921 0)
(0.781368 -0.0917895 0)
(0.764762 -0.106809 0)
(0.776045 -0.160724 0)
(0.846434 -0.15862 0)
(0.948941 -0.0497247 0)
(0.899587 0.195312 0)
(0.210077 0.513194 0)
(-0.0129736 0.381898 0)
(0.152864 0.18377 0)
(0.235482 0.204718 0)
(-0.0405048 -0.0553407 0)
(0.121561 -0.359949 0)
(0.272676 -0.422097 0)
(0.392936 -0.357566 0)
(0.531473 -0.315207 0)
(0.67107 -0.325657 0)
(0.742768 -0.335928 0)
(0.783389 -0.315219 0)
(0.821804 -0.274382 0)
(0.822067 -0.250169 0)
(0.80913 -0.258979 0)
(0.798576 -0.323364 0)
(0.842397 -0.381371 0)
(0.911156 -0.312362 0)
(0.862723 -0.0499226 0)
(0.315759 -0.0470037 0)
(-0.0187226 -0.102756 0)
(-0.122317 0.182199 0)
(0.122524 0.175649 0)
(0.0527892 -0.0479121 0)
(0.241809 -0.346625 0)
(0.332093 -0.418451 0)
(0.414541 -0.353769 0)
(0.547333 -0.296177 0)
(0.669111 -0.281066 0)
(0.731806 -0.267364 0)
(0.751858 -0.236591 0)
(0.781098 -0.184381 0)
(0.78234 -0.150934 0)
(0.777678 -0.166914 0)
(0.748734 -0.260798 0)
(0.736274 -0.339861 0)
(0.803122 -0.2608 0)
(0.851717 0.0749957 0)
(0.356073 0.169705 0)
(0.178606 0.0964957 0)
(-0.380711 -0.0388578 0)
(0.12565 0.176238 0)
(0.186759 -0.0747379 0)
(0.309985 -0.348814 0)
(0.376967 -0.395657 0)
(0.427602 -0.360321 0)
(0.528738 -0.316551 0)
(0.620998 -0.297111 0)
(0.662454 -0.276273 0)
(0.661003 -0.255691 0)
(0.667606 -0.211773 0)
(0.674964 -0.171961 0)
(0.678275 -0.185043 0)
(0.675317 -0.265173 0)
(0.702678 -0.362002 0)
(0.770597 -0.332958 0)
(0.843759 0.0589531 0)
(0.447255 0.359773 0)
(0.349717 0.172494 0)
(-0.277731 -0.090431 0)
(0.110992 0.14567 0)
(0.285986 -0.111542 0)
(0.336353 -0.253933 0)
(0.415207 -0.286318 0)
(0.468652 -0.224255 0)
(0.539622 -0.187418 0)
(0.609751 -0.184792 0)
(0.641891 -0.1907 0)
(0.62963 -0.206559 0)
(0.606605 -0.191085 0)
(0.609778 -0.137666 0)
(0.634225 -0.134343 0)
(0.601348 -0.134042 0)
(0.597304 -0.32842 0)
(0.649175 -0.448596 0)
(0.829856 0.0493186 0)
(0.47879 0.433835 0)
(0.0260879 0.165959 0)
(-0.287347 -0.0892502 0)
(0.0971742 0.161681 0)
(0.310967 -0.0844259 0)
(0.318468 -0.271153 0)
(0.412383 -0.293376 0)
(0.463136 -0.243903 0)
(0.521744 -0.193477 0)
(0.593473 -0.14348 0)
(0.637244 -0.0776278 0)
(0.617357 -0.0144958 0)
(0.559503 -0.0670189 0)
(0.542333 -0.118946 0)
(0.55912 -0.0418589 0)
(0.488223 -0.128078 0)
(0.461349 -0.358224 0)
(0.471212 -0.523971 0)
(0.871942 0.165712 0)
(0.587025 0.461086 0)
(-0.0277714 -0.162209 0)
(-0.0506097 -0.347871 0)
(0.122191 0.140994 0)
(0.331653 -0.199091 0)
(0.327583 -0.299751 0)
(0.418465 -0.323907 0)
(0.459927 -0.293368 0)
(0.520994 -0.249589 0)
(0.577042 -0.184687 0)
(0.604604 -0.0886736 0)
(0.572321 0.00601128 0)
(0.52648 0.0607221 0)
(0.520531 0.0655973 0)
(0.520418 0.0515858 0)
(0.410785 -0.0794335 0)
(0.342585 -0.231961 0)
(0.37543 -0.453864 0)
(0.496398 -0.0861151 0)
(0.98796 0.4836 0)
(0.234108 -0.236114 0)
(0.501945 -0.306381 0)
(0.164343 0.169237 0)
(-0.00574896 -0.0894041 0)
(-0.0132335 -0.0939005 0)
(-0.0215118 -0.100146 0)
(-0.0233112 -0.107691 0)
(-0.0169715 -0.114226 0)
(-0.0120317 -0.129902 0)
(0.00669476 -0.130041 0)
(0.026888 -0.134504 0)
(0.0500647 -0.129551 0)
(0.0502661 -0.121041 0)
(0.0432758 -0.112307 0)
(0.0393846 -0.119649 0)
(0.0363085 -0.133329 0)
(0.0722591 -0.124402 0)
(0.103177 -0.0641342 0)
(0.119557 0.0380027 0)
(0.0980244 0.199627 0)
(-0.0372481 0.389819 0)
(-0.170704 0.222386 0)
(-0.195892 0.148117 0)
(-0.124485 0.163583 0)
(-0.0173203 0.138151 0)
(0.0630357 0.116333 0)
(-0.00653807 -0.037019 0)
(-0.0180259 -0.0416503 0)
(-0.0254598 -0.0513981 0)
(-0.0260825 -0.061055 0)
(-0.0148083 -0.0749533 0)
(-0.00932563 -0.106154 0)
(0.0199424 -0.114751 0)
(0.0520074 -0.116325 0)
(0.0901669 -0.0919636 0)
(0.106538 -0.0629507 0)
(0.120026 -0.0245929 0)
(0.141254 0.00231945 0)
(0.129772 0.0581745 0)
(0.105831 0.112074 0)
(0.0690337 0.132075 0)
(0.06118 0.128547 0)
(0.0876788 0.204052 0)
(0.196057 0.313113 0)
(0.112271 0.388628 0)
(-0.0188877 0.208483 0)
(-0.029582 0.0325929 0)
(-0.010965 -0.0347162 0)
(0.0626934 -0.0224544 0)
(-0.00648346 -0.0357571 0)
(-0.0208577 -0.0493492 0)
(-0.0330134 -0.076149 0)
(-0.0419027 -0.108229 0)
(-0.0421041 -0.126791 0)
(-0.0404682 -0.156068 0)
(0.00872122 -0.177372 0)
(0.0565473 -0.182106 0)
(0.0958572 -0.144656 0)
(0.0933994 -0.114047 0)
(0.102685 -0.0874304 0)
(0.108701 -0.0808034 0)
(0.111595 -0.0491256 0)
(0.152514 -0.020243 0)
(0.164118 0.0256355 0)
(0.187648 0.0751661 0)
(0.187792 0.144472 0)
(0.265312 0.228988 0)
(0.363461 0.302203 0)
(0.418538 0.238064 0)
(0.401412 0.144603 0)
(0.330336 0.0592022 0)
(0.319607 -0.0291327 0)
(-0.0189411 -0.0104797 0)
(-0.0646102 -0.00570061 0)
(-0.09112 -0.00465786 0)
(-0.0844312 -0.0125609 0)
(-0.0574395 -0.0224142 0)
(-0.0427349 -0.102878 0)
(0.00523713 -0.177248 0)
(0.0263649 -0.218589 0)
(0.036742 -0.187122 0)
(0.0332362 -0.15858 0)
(0.0646757 -0.127706 0)
(0.0626929 -0.0943908 0)
(0.0868475 -0.034267 0)
(0.109775 0.0060922 0)
(0.119596 0.0555248 0)
(0.169558 0.0773944 0)
(0.196143 0.12007 0)
(0.260794 0.135853 0)
(0.351173 0.163223 0)
(0.444968 0.0912305 0)
(0.517848 -0.0113354 0)
(0.575702 -0.0924688 0)
(0.631673 -0.169579 0)
(0.00822681 -0.304519 0)
(0.002676 -0.296128 0)
(-0.0146611 -0.283357 0)
(-0.0814969 -0.277354 0)
(-0.144638 -0.266159 0)
(-0.154825 -0.350367 0)
(-0.238114 -0.408664 0)
(-0.336148 -0.355323 0)
(-0.341508 -0.26792 0)
(-0.304862 -0.232051 0)
(-0.204107 -0.184398 0)
(-0.159931 -0.159054 0)
(-0.0753633 -0.141502 0)
(0.000272402 -0.10746 0)
(0.0414968 -0.0683584 0)
(0.11497 -0.0257773 0)
(0.145628 0.0165169 0)
(0.201569 0.0153046 0)
(0.285944 0.040725 0)
(0.360254 -0.0278901 0)
(0.462472 -0.057625 0)
(0.495007 -0.14555 0)
(0.556264 -0.24649 0)
(0.0172089 -0.296707 0)
(0.00516556 -0.315926 0)
(0.0169475 -0.785041 0)
(0.0282902 -0.74396 0)
(0.0470256 -0.652168 0)
(-0.0146642 -0.649128 0)
(-0.297921 -0.741242 0)
(-0.628014 -0.768156 0)
(-0.646068 -0.584881 0)
(-0.570002 -0.5166 0)
(-0.557386 -0.451565 0)
(-0.502011 -0.33616 0)
(-0.444863 -0.277964 0)
(-0.35493 -0.203704 0)
(-0.240179 -0.150194 0)
(-0.128549 -0.0712417 0)
(-0.000880859 -0.00807855 0)
(0.0777541 -0.012214 0)
(0.185723 -0.0136573 0)
(0.220254 -0.0957805 0)
(0.326975 -0.118298 0)
(0.374086 -0.21023 0)
(0.4195 -0.306723 0)
(0.00507059 -0.910975 0)
(0.0203879 -0.554278 0)
(0.136976 -0.644251 0)
(0.269755 -0.70043 0)
(-0.0347109 -0.607585 0)
(-0.0333916 -0.633499 0)
(0.0660318 -0.723378 0)
(0.192109 -0.173796 0)
(-0.577631 0.436997 0)
(-0.50977 -0.302554 0)
(-0.480385 -0.634747 0)
(-0.455089 -0.666121 0)
(-0.448862 -0.615019 0)
(-0.410073 -0.497028 0)
(-0.378553 -0.431416 0)
(-0.316515 -0.400479 0)
(-0.26017 -0.395378 0)
(-0.153555 -0.319641 0)
(-0.074253 -0.259278 0)
(-0.0722763 -0.374634 0)
(0.049893 -0.370402 0)
(0.033017 -0.460701 0)
(0.0700302 -0.54093 0)
(-0.150856 0.756235 0)
(-0.313478 0.604679 0)
(-0.228288 0.230177 0)
(-0.150685 -0.14941 0)
(-0.247789 -0.344392 0)
(-0.0414412 -0.115991 0)
(0.321207 0.52919 0)
(0.0171649 0.406255 0)
(0.328001 -0.389597 0)
(0.350062 -0.679195 0)
(0.257694 -0.466009 0)
(0.35645 0.0440914 0)
(0.161122 0.661 0)
(-0.184664 0.432034 0)
(-0.227393 -0.235146 0)
(-0.236858 -0.458777 0)
(-0.210475 -0.548181 0)
(-0.182983 -0.593496 0)
(-0.17419 -0.609146 0)
(-0.14367 -0.65168 0)
(-0.116108 -0.673602 0)
(-0.058448 -0.587824 0)
(-0.00213682 -0.374997 0)
(0.0332927 -0.193543 0)
(0.201782 -0.324824 0)
(0.27052 -0.375707 0)
(0.208864 -0.360175 0)
(-0.00843125 -0.311832 0)
(-0.150999 -0.0558319 0)
(0.0776102 0.443659 0)
(0.38344 0.415141 0)
(0.470542 0.360719 0)
(0.0786072 0.100054 0)
(-0.206362 -0.251576 0)
(-0.245532 -0.434351 0)
(-0.0941775 -0.509015 0)
(0.205258 -0.69 0)
(0.414612 -0.636824 0)
(0.494972 -0.393958 0)
(0.492938 -0.149794 0)
(0.52045 0.0332756 0)
(0.464593 0.24442 0)
(0.385256 0.0258463 0)
(0.273481 -0.133875 0)
(0.232885 -0.433216 0)
(0.244272 -0.618194 0)
(0.0072459 0.259874 0)
(-0.0295481 0.160752 0)
(-0.0648502 -0.0249495 0)
(-0.0771736 -0.164171 0)
(-0.114174 -0.230293 0)
(-0.116724 -0.201108 0)
(-0.0223363 -0.0258321 0)
(0.330563 0.184938 0)
(0.399022 0.188867 0)
(0.386058 0.10725 0)
(0.280325 -0.0154976 0)
(0.158415 -0.0948058 0)
(0.146803 -0.0251519 0)
(0.142273 -0.0313389 0)
(0.127882 -0.131309 0)
(0.135198 -0.229611 0)
(0.169 -0.310235 0)
(0.196121 -0.386203 0)
(0.255102 -0.3884 0)
(0.367898 -0.378374 0)
(0.418928 -0.350262 0)
(0.425567 -0.298356 0)
(0.398366 -0.255502 0)
(0.0292011 -0.0285283 0)
(0.0974854 -0.12391 0)
(0.098878 -0.145456 0)
(0.0444326 -0.151484 0)
(-0.0264802 -0.143225 0)
(-0.065115 -0.0875548 0)
(-0.0472483 -0.0429591 0)
(0.0103481 0.00984881 0)
(0.229179 0.158322 0)
(0.26473 0.121304 0)
(0.24833 0.00341164 0)
(0.225889 -0.210915 0)
(0.210764 -0.313455 0)
(0.225749 -0.339069 0)
(0.232133 -0.3158 0)
(0.224665 -0.262717 0)
(0.240007 -0.209569 0)
(0.259243 -0.122056 0)
(0.275439 -0.02958 0)
(0.260006 0.0262057 0)
(0.228938 0.0021843 0)
(0.171333 -0.100757 0)
(0.13031 -0.195236 0)
(0.00779571 0.0490694 0)
(0.0206991 -0.00980169 0)
(0.0261739 -0.0837297 0)
(0.0227374 -0.135754 0)
(-0.00653539 -0.158411 0)
(-0.0260684 -0.143896 0)
(-0.02706 -0.11904 0)
(-0.0224281 -0.0855656 0)
(0.0396964 0.0282089 0)
(0.160463 0.0662176 0)
(0.174378 0.0225354 0)
(0.203817 -0.105679 0)
(0.158331 -0.175276 0)
(0.116248 -0.229147 0)
(0.0981959 -0.273011 0)
(0.0781095 -0.294422 0)
(0.0525721 -0.310731 0)
(0.0446171 -0.32632 0)
(0.0553003 -0.323881 0)
(0.094089 -0.311829 0)
(0.13595 -0.298891 0)
(0.142959 -0.292457 0)
(0.121717 -0.287113 0)
(0.0169673 -0.0219132 0)
(0.0384466 -0.0605777 0)
(0.0375626 -0.0766854 0)
(0.0268773 -0.0908647 0)
(0.00645643 -0.0979226 0)
(-0.0110526 -0.0861952 0)
(-0.0249673 -0.0783429 0)
(-0.0306916 -0.0670511 0)
(-0.0254361 -0.0414974 0)
(0.0577976 -0.00521672 0)
(0.105341 -0.0534523 0)
(0.116478 -0.12914 0)
(0.100025 -0.17039 0)
(0.0783868 -0.206381 0)
(0.0577968 -0.225129 0)
(0.039329 -0.227168 0)
(0.0223716 -0.210533 0)
(0.00559119 -0.181122 0)
(-0.0108318 -0.145136 0)
(-0.0225356 -0.114629 0)
(-0.0282092 -0.10702 0)
(-0.0392631 -0.122454 0)
(-0.0522679 -0.138917 0)
(0.0110793 -0.0366113 0)
(0.0275431 -0.0755767 0)
(0.0334598 -0.0925958 0)
(0.027459 -0.0993205 0)
(0.0141066 -0.099061 0)
(0.00452229 -0.0904284 0)
(-0.00208529 -0.0826917 0)
(-0.00410109 -0.0681622 0)
(0.00167279 -0.0618437 0)
(0.0320701 -0.049503 0)
(0.0654828 -0.0695249 0)
(0.0625452 -0.117058 0)
(0.0497926 -0.166121 0)
(0.029936 -0.208388 0)
(0.00333904 -0.231524 0)
(-0.0181503 -0.239414 0)
(-0.040455 -0.24376 0)
(-0.0576679 -0.245044 0)
(-0.0676728 -0.238742 0)
(-0.0677472 -0.229596 0)
(-0.0634961 -0.220043 0)
(-0.0616613 -0.211496 0)
(-0.0634755 -0.203733 0)
(0.00589883 -0.0422992 0)
(0.0136626 -0.0725041 0)
(0.0150398 -0.080942 0)
(0.011504 -0.0846641 0)
(0.00674909 -0.0857591 0)
(0.00446139 -0.0829452 0)
(0.00280585 -0.0797406 0)
(0.00680143 -0.0762679 0)
(0.0138177 -0.0742614 0)
(0.0282909 -0.0664638 0)
(0.0456198 -0.0778619 0)
(0.0479049 -0.101662 0)
(0.0374634 -0.135586 0)
(0.0164832 -0.168419 0)
(-0.0101933 -0.192936 0)
(-0.0289409 -0.203931 0)
(-0.0428527 -0.202079 0)
(-0.0556863 -0.195538 0)
(-0.0650673 -0.181648 0)
(-0.0704039 -0.17281 0)
(-0.0755215 -0.16906 0)
(-0.0782208 -0.167638 0)
(-0.0806943 -0.168104 0)
(0.00416126 -0.0559435 0)
(0.00712197 -0.0795053 0)
(0.00700945 -0.0820397 0)
(0.00613312 -0.0846723 0)
(0.00494183 -0.0857896 0)
(0.0052881 -0.0840465 0)
(0.00762555 -0.0832433 0)
(0.0126654 -0.0809733 0)
(0.0176584 -0.0821592 0)
(0.0276394 -0.0793391 0)
(0.0378501 -0.0881083 0)
(0.0411284 -0.103284 0)
(0.0401376 -0.126558 0)
(0.0286277 -0.148721 0)
(0.00866707 -0.171029 0)
(-0.0119292 -0.188304 0)
(-0.0298633 -0.195262 0)
(-0.0423101 -0.195179 0)
(-0.0510456 -0.18672 0)
(-0.0618849 -0.180667 0)
(-0.0734379 -0.177921 0)
(-0.0797328 -0.173267 0)
(-0.0837956 -0.167615 0)
(0.00239105 -0.0589715 0)
(0.0039896 -0.0798786 0)
(0.00495122 -0.0820718 0)
(0.00541187 -0.0842972 0)
(0.00550638 -0.0860369 0)
(0.00683385 -0.0863929 0)
(0.00917474 -0.0869218 0)
(0.0133741 -0.0867239 0)
(0.0177628 -0.088141 0)
(0.0247896 -0.087527 0)
(0.0324362 -0.093417 0)
(0.0371285 -0.105657 0)
(0.0386978 -0.124693 0)
(0.0329699 -0.142031 0)
(0.0206155 -0.158622 0)
(0.00662499 -0.172269 0)
(-0.012222 -0.180604 0)
(-0.0289878 -0.184025 0)
(-0.0439005 -0.17737 0)
(-0.0546083 -0.16746 0)
(-0.0705638 -0.165609 0)
(-0.0820177 -0.16639 0)
(-0.0886963 -0.162586 0)
(0.00139621 -0.0615216 0)
(0.00310365 -0.0813944 0)
(0.00459453 -0.0829989 0)
(0.00577832 -0.0847665 0)
(0.00639896 -0.0864923 0)
(0.00706204 -0.0879419 0)
(0.00821606 -0.0892928 0)
(0.0102665 -0.0906285 0)
(0.0127953 -0.0927563 0)
(0.0167125 -0.0946411 0)
(0.0232573 -0.100576 0)
(0.0274482 -0.110622 0)
(0.0271237 -0.121855 0)
(0.0223329 -0.132164 0)
(0.0133241 -0.145676 0)
(0.00172537 -0.155318 0)
(-0.0169164 -0.160528 0)
(-0.0325533 -0.161399 0)
(-0.0454801 -0.159942 0)
(-0.0582201 -0.151501 0)
(-0.0691589 -0.148784 0)
(-0.0822393 -0.153135 0)
(-0.0883707 -0.153869 0)
(0.00103573 -0.0631021 0)
(0.00287689 -0.0828225 0)
(0.00432593 -0.084218 0)
(0.00475857 -0.0857752 0)
(0.00511801 -0.087028 0)
(0.00467554 -0.0885219 0)
(0.00440483 -0.089982 0)
(0.00467518 -0.0918281 0)
(0.00509298 -0.0945389 0)
(0.00666129 -0.0988399 0)
(0.00852858 -0.104421 0)
(0.010336 -0.111631 0)
(0.00833244 -0.119275 0)
(0.00536969 -0.128706 0)
(-0.00259494 -0.136882 0)
(-0.0139005 -0.140345 0)
(-0.028019 -0.146339 0)
(-0.0404142 -0.151142 0)
(-0.0514721 -0.150034 0)
(-0.0637874 -0.143797 0)
(-0.0713873 -0.141125 0)
(-0.0793753 -0.14809 0)
(-0.0847628 -0.15015 0)
(0.00112005 -0.065182 0)
(0.00217247 -0.0840105 0)
(0.00217118 -0.0842529 0)
(0.00239329 -0.0852755 0)
(0.00249947 -0.0864203 0)
(0.00263026 -0.0876445 0)
(0.00275223 -0.089485 0)
(0.00283806 -0.0914932 0)
(0.00284965 -0.0945179 0)
(0.00268841 -0.0987877 0)
(0.00169672 -0.103541 0)
(0.000583527 -0.108935 0)
(-0.00329173 -0.115388 0)
(-0.00844894 -0.12203 0)
(-0.0149369 -0.126769 0)
(-0.0222345 -0.131004 0)
(-0.0294212 -0.136864 0)
(-0.0392283 -0.140159 0)
(-0.0513622 -0.137781 0)
(-0.0598852 -0.133411 0)
(-0.0655942 -0.133443 0)
(-0.0732088 -0.139374 0)
(-0.0792626 -0.141218 0)
(0.000715828 -0.06652 0)
(0.00110507 -0.0840647 0)
(0.00132206 -0.0845849 0)
(0.00181743 -0.0857102 0)
(0.00199692 -0.0866172 0)
(0.00249389 -0.0876985 0)
(0.00279254 -0.0892726 0)
(0.00272262 -0.0910017 0)
(0.00243159 -0.0933579 0)
(0.00141569 -0.0969522 0)
(-0.00090909 -0.102227 0)
(-0.00321818 -0.107652 0)
(-0.00723168 -0.111122 0)
(-0.0126897 -0.116346 0)
(-0.0184503 -0.120914 0)
(-0.0252263 -0.125563 0)
(-0.0316153 -0.126753 0)
(-0.0416838 -0.12714 0)
(-0.0518205 -0.127646 0)
(-0.0599067 -0.12592 0)
(-0.0674198 -0.127158 0)
(-0.0745735 -0.132464 0)
(-0.0830058 -0.133917 0)
(0.000417757 -0.0670981 0)
(0.000615881 -0.0847016 0)
(0.00129487 -0.0852366 0)
(0.00149399 -0.0862818 0)
(0.00154945 -0.0871292 0)
(0.00153069 -0.088274 0)
(0.00140909 -0.0896112 0)
(0.00129654 -0.091355 0)
(0.00118164 -0.0937202 0)
(0.000558486 -0.0962859 0)
(-0.00177667 -0.0996581 0)
(-0.00468743 -0.103128 0)
(-0.00762651 -0.106466 0)
(-0.0122265 -0.110772 0)
(-0.0179554 -0.114794 0)
(-0.0251186 -0.118398 0)
(-0.0327921 -0.12051 0)
(-0.0399596 -0.120978 0)
(-0.0469543 -0.121641 0)
(-0.0535799 -0.119539 0)
(-0.0607311 -0.120475 0)
(-0.066579 -0.124746 0)
(-0.0774294 -0.125422 0)
(0.000390882 -0.0676794 0)
(0.000534243 -0.0846851 0)
(6.84605e-05 -0.0851137 0)
(-0.00022922 -0.0856574 0)
(-0.000671208 -0.0867056 0)
(-0.00117866 -0.088084 0)
(-0.00173139 -0.0895544 0)
(-0.00238858 -0.0911276 0)
(-0.00326805 -0.0925612 0)
(-0.00442991 -0.0942751 0)
(-0.00569827 -0.0964132 0)
(-0.00920289 -0.0993547 0)
(-0.0126055 -0.103455 0)
(-0.0162127 -0.105428 0)
(-0.0208156 -0.107972 0)
(-0.0267238 -0.109148 0)
(-0.0346842 -0.110493 0)
(-0.042463 -0.112549 0)
(-0.0491155 -0.111686 0)
(-0.0565753 -0.111105 0)
(-0.0636838 -0.111987 0)
(-0.0707281 -0.113153 0)
(-0.080049 -0.11126 0)
(0.000111307 -0.0678344 0)
(-0.000138123 -0.0845038 0)
(-0.000571937 -0.0848473 0)
(-0.000920912 -0.0855612 0)
(-0.00146183 -0.0862573 0)
(-0.00205682 -0.0870289 0)
(-0.00296475 -0.0882115 0)
(-0.00414529 -0.0897965 0)
(-0.00555452 -0.0917484 0)
(-0.00725514 -0.0929692 0)
(-0.00946202 -0.0950246 0)
(-0.0121573 -0.0980466 0)
(-0.016225 -0.0998519 0)
(-0.0206457 -0.102389 0)
(-0.0257237 -0.104335 0)
(-0.0306363 -0.105031 0)
(-0.0348274 -0.106437 0)
(-0.0402068 -0.107396 0)
(-0.0473959 -0.106795 0)
(-0.0539381 -0.106895 0)
(-0.0594752 -0.107133 0)
(-0.0693982 -0.107457 0)
(-0.0769779 -0.105132 0)
(0.000216567 -0.0682023 0)
(0.000167861 -0.0842754 0)
(-0.000309027 -0.0844415 0)
(-0.00074011 -0.0848579 0)
(-0.0013822 -0.0854185 0)
(-0.00222364 -0.0862655 0)
(-0.00315529 -0.0872055 0)
(-0.00432732 -0.0882875 0)
(-0.00591343 -0.089474 0)
(-0.00830146 -0.0913461 0)
(-0.0102708 -0.0927469 0)
(-0.0120605 -0.0937178 0)
(-0.0151901 -0.0952109 0)
(-0.0194479 -0.0971526 0)
(-0.0244757 -0.09835 0)
(-0.0293205 -0.099602 0)
(-0.0359277 -0.100243 0)
(-0.0427028 -0.0986587 0)
(-0.0490535 -0.0992765 0)
(-0.0538984 -0.0983888 0)
(-0.0611485 -0.0981348 0)
(-0.0687387 -0.0962877 0)
(-0.0760401 -0.0961319 0)
(-9.24726e-05 -0.0677455 0)
(-0.000691317 -0.0835824 0)
(-0.00139543 -0.0838656 0)
(-0.00202577 -0.0843113 0)
(-0.00283247 -0.0848252 0)
(-0.00384325 -0.0854874 0)
(-0.00502383 -0.0862882 0)
(-0.0064638 -0.08721 0)
(-0.00817434 -0.0880459 0)
(-0.0100693 -0.0885595 0)
(-0.0124285 -0.0895488 0)
(-0.0159333 -0.0910465 0)
(-0.0191484 -0.0920035 0)
(-0.0222619 -0.0921557 0)
(-0.0266525 -0.0930578 0)
(-0.0321871 -0.094363 0)
(-0.036764 -0.0938498 0)
(-0.0412527 -0.095024 0)
(-0.0454364 -0.0947472 0)
(-0.0526897 -0.0934943 0)
(-0.0590329 -0.0908742 0)
(-0.0666402 -0.0903383 0)
(-0.0729625 -0.0893411 0)
(-8.02543e-05 -0.067802 0)
(-0.000530208 -0.0832631 0)
(-0.00128164 -0.0834574 0)
(-0.0019271 -0.0837283 0)
(-0.00272655 -0.0840186 0)
(-0.00357623 -0.0842727 0)
(-0.00472369 -0.0847585 0)
(-0.00615496 -0.0853394 0)
(-0.00782428 -0.0860024 0)
(-0.00966428 -0.0867445 0)
(-0.0122292 -0.087523 0)
(-0.0153332 -0.087967 0)
(-0.0187301 -0.0890058 0)
(-0.0229554 -0.0894263 0)
(-0.0260591 -0.0901996 0)
(-0.0291862 -0.0896967 0)
(-0.0345514 -0.0896788 0)
(-0.0401607 -0.0886477 0)
(-0.0468717 -0.0868162 0)
(-0.0531348 -0.0862769 0)
(-0.0580375 -0.0863944 0)
(-0.0638766 -0.0840668 0)
(-0.0713416 -0.080773 0)
(-0.000166443 -0.067067 0)
(-0.000771892 -0.0821778 0)
(-0.00164185 -0.082353 0)
(-0.00249977 -0.0825365 0)
(-0.00360244 -0.0828168 0)
(-0.00478572 -0.0832142 0)
(-0.00614575 -0.0836214 0)
(-0.00776611 -0.0840051 0)
(-0.00967401 -0.0844333 0)
(-0.011795 -0.0847431 0)
(-0.0138431 -0.0845503 0)
(-0.0155931 -0.0848607 0)
(-0.0184909 -0.0850125 0)
(-0.0217627 -0.0853963 0)
(-0.026397 -0.0847665 0)
(-0.0318421 -0.084897 0)
(-0.0365105 -0.0844384 0)
(-0.0408557 -0.0832209 0)
(-0.0447925 -0.0836989 0)
(-0.0487812 -0.0821954 0)
(-0.0557431 -0.0784959 0)
(-0.0627056 -0.0766551 0)
(-0.0681185 -0.0752005 0)
(-0.00018939 -0.0669739 0)
(-0.000732504 -0.0818722 0)
(-0.00149777 -0.0819952 0)
(-0.00216249 -0.0820016 0)
(-0.00298087 -0.0819656 0)
(-0.00399055 -0.0819741 0)
(-0.00521034 -0.0820081 0)
(-0.00665287 -0.0820733 0)
(-0.0083706 -0.0821508 0)
(-0.0105089 -0.0823169 0)
(-0.0132756 -0.0826091 0)
(-0.0167586 -0.0824263 0)
(-0.0199187 -0.0821366 0)
(-0.0231873 -0.0816685 0)
(-0.0262765 -0.0817305 0)
(-0.0290646 -0.0816727 0)
(-0.0326666 -0.0807611 0)
(-0.0375665 -0.0797085 0)
(-0.0431397 -0.0765397 0)
(-0.0494423 -0.0747972 0)
(-0.0541468 -0.0742588 0)
(-0.059297 -0.0716736 0)
(-0.065493 -0.0682721 0)
(-0.000249458 -0.0661251 0)
(-0.000923251 -0.0807349 0)
(-0.00184229 -0.0808817 0)
(-0.0027174 -0.0808666 0)
(-0.00377348 -0.0808598 0)
(-0.00495305 -0.0808323 0)
(-0.00631182 -0.0807276 0)
(-0.00786104 -0.080544 0)
(-0.00960174 -0.0802844 0)
(-0.0115002 -0.0799218 0)
(-0.0134319 -0.0794521 0)
(-0.0152759 -0.0791725 0)
(-0.0177784 -0.0789891 0)
(-0.0208085 -0.0785336 0)
(-0.0243592 -0.0775193 0)
(-0.0288804 -0.0761639 0)
(-0.0337025 -0.0750071 0)
(-0.0380382 -0.073552 0)
(-0.0421193 -0.0731579 0)
(-0.0459858 -0.0713344 0)
(-0.0512585 -0.0681772 0)
(-0.0570501 -0.0656155 0)
(-0.0622919 -0.0628135 0)
(-0.000209904 -0.0659439 0)
(-0.000653488 -0.0803684 0)
(-0.00135266 -0.0804424 0)
(-0.00198213 -0.0802457 0)
(-0.00283454 -0.0800015 0)
(-0.00385921 -0.0797194 0)
(-0.00512458 -0.0794154 0)
(-0.00664533 -0.0791046 0)
(-0.00843118 -0.0787845 0)
(-0.010499 -0.0784611 0)
(-0.0129242 -0.0780933 0)
(-0.0157513 -0.0773125 0)
(-0.0186594 -0.0764045 0)
(-0.0216966 -0.0755802 0)
(-0.0248562 -0.0747114 0)
(-0.027934 -0.073819 0)
(-0.0311601 -0.0725298 0)
(-0.0349981 -0.0705847 0)
(-0.0394751 -0.0678871 0)
(-0.0443638 -0.0655735 0)
(-0.0489836 -0.0635249 0)
(-0.0538475 -0.0606658 0)
(-0.0590321 -0.0572951 0)
(-0.000204806 -0.0652051 0)
(-0.000730246 -0.0794306 0)
(-0.00150317 -0.0794818 0)
(-0.00220764 -0.0791593 0)
(-0.0031108 -0.0787652 0)
(-0.00412777 -0.078267 0)
(-0.0053116 -0.0776725 0)
(-0.00668427 -0.0770077 0)
(-0.00825983 -0.07628 0)
(-0.0100502 -0.0754892 0)
(-0.0120694 -0.0746878 0)
(-0.0142657 -0.0740339 0)
(-0.0167048 -0.0732075 0)
(-0.0194585 -0.0720921 0)
(-0.0225535 -0.0708089 0)
(-0.0260509 -0.0692574 0)
(-0.0298888 -0.0675346 0)
(-0.0338058 -0.0658089 0)
(-0.0376606 -0.0639899 0)
(-0.0416107 -0.0616005 0)
(-0.0459969 -0.0587156 0)
(-0.0507665 -0.0557028 0)
(-0.0555573 -0.0522997 0)
(-9.46194e-05 -0.0650893 0)
(-0.000408994 -0.0791825 0)
(-0.00104653 -0.0791987 0)
(-0.00157221 -0.0787848 0)
(-0.00232743 -0.0782942 0)
(-0.00320112 -0.0776987 0)
(-0.00427512 -0.0770252 0)
(-0.00557821 -0.0762834 0)
(-0.00713019 -0.0754707 0)
(-0.00894024 -0.0745621 0)
(-0.0109767 -0.0734725 0)
(-0.0133093 -0.0722241 0)
(-0.0158938 -0.0709615 0)
(-0.0186379 -0.0696516 0)
(-0.0215319 -0.068165 0)
(-0.0245788 -0.066527 0)
(-0.0277812 -0.0646649 0)
(-0.0312353 -0.062441 0)
(-0.0350033 -0.0599103 0)
(-0.0389708 -0.057233 0)
(-0.0430495 -0.0543824 0)
(-0.0473847 -0.0511718 0)
(-0.0519018 -0.0475691 0)
(-1.30101e-05 -0.0647546 0)
(-0.000307354 -0.0783963 0)
(-0.000949592 -0.0783562 0)
(-0.0014332 -0.0777836 0)
(-0.002138 -0.0771337 0)
(-0.0029075 -0.0763483 0)
(-0.00376865 -0.0753938 0)
(-0.00474271 -0.0742943 0)
(-0.00592092 -0.0731018 0)
(-0.00740638 -0.071884 0)
(-0.0092621 -0.0707141 0)
(-0.0114278 -0.0695373 0)
(-0.0138595 -0.0682218 0)
(-0.0165373 -0.0666815 0)
(-0.0194173 -0.0649815 0)
(-0.0224614 -0.0630865 0)
(-0.0256648 -0.0610059 0)
(-0.0289992 -0.0587527 0)
(-0.0324429 -0.0562482 0)
(-0.0360347 -0.0534261 0)
(-0.0398209 -0.0502977 0)
(-0.0438612 -0.0469027 0)
(-0.0480762 -0.0431581 0)
(0.000213763 -0.0648398 0)
(-0.000105666 -0.0782243 0)
(-0.000873983 -0.0781619 0)
(-0.00135639 -0.0775352 0)
(-0.00207555 -0.0768262 0)
(-0.00280862 -0.0759772 0)
(-0.00356087 -0.074923 0)
(-0.00438603 -0.0737106 0)
(-0.00534999 -0.0723248 0)
(-0.00646749 -0.0707376 0)
(-0.00781384 -0.0690067 0)
(-0.00947986 -0.0672025 0)
(-0.0115153 -0.0654229 0)
(-0.014009 -0.0637655 0)
(-0.0168364 -0.0620569 0)
(-0.0199041 -0.0602089 0)
(-0.023034 -0.0580434 0)
(-0.0262473 -0.0555673 0)
(-0.0295321 -0.0528085 0)
(-0.032922 -0.0498049 0)
(-0.036435 -0.046527 0)
(-0.040148 -0.042944 0)
(-0.0440643 -0.0390293 0)
(0.000358791 -0.0647148 0)
(-0.000109674 -0.0771961 0)
(-0.00129624 -0.077098 0)
(-0.00197099 -0.0764521 0)
(-0.00288185 -0.0756849 0)
(-0.00371174 -0.0747953 0)
(-0.00460693 -0.0738236 0)
(-0.00550885 -0.072634 0)
(-0.00641999 -0.071187 0)
(-0.00737255 -0.0695154 0)
(-0.00840086 -0.0676708 0)
(-0.00958521 -0.0657076 0)
(-0.010999 -0.0636375 0)
(-0.012639 -0.0613796 0)
(-0.014591 -0.0590544 0)
(-0.0169127 -0.0567193 0)
(-0.019743 -0.0545045 0)
(-0.0229827 -0.0522267 0)
(-0.0262845 -0.0495895 0)
(-0.0295297 -0.0465107 0)
(-0.0328255 -0.0430578 0)
(-0.0362452 -0.0392898 0)
(-0.0398685 -0.0351965 0)
(0.000404845 -0.0648595 0)
(-0.000532636 -0.0762153 0)
(-0.00246618 -0.076095 0)
(-0.0036428 -0.0755701 0)
(-0.00501537 -0.0748716 0)
(-0.00618624 -0.074049 0)
(-0.0073303 -0.0730679 0)
(-0.00838415 -0.0718895 0)
(-0.0093372 -0.0704794 0)
(-0.0101777 -0.0688258 0)
(-0.0109444 -0.0669035 0)
(-0.0117274 -0.0647699 0)
(-0.0126238 -0.0624888 0)
(-0.0136366 -0.0600323 0)
(-0.0148021 -0.0575258 0)
(-0.0162134 -0.0548623 0)
(-0.017902 -0.051982 0)
(-0.0198724 -0.0489606 0)
(-0.0224507 -0.0460956 0)
(-0.025536 -0.043138 0)