/*--------------------------------*- C++ -*----------------------------------*\
| =========                 |                                                 |
| \\      /  F ield         | OpenFOAM: The Open Source CFD Toolbox           |
|  \\    /   O peration     | Version:  2.4.0                                 |
|   \\  /    A nd           | Web:      www.OpenFOAM.org                      |
|    \\/     M anipulation  |                                                 |
\*---------------------------------------------------------------------------*/
FoamFile
{
    version     2.0;
    format      ascii;
    class       volScalarField;
    location    "0.9";
    object      alpha.mercury;
}
// * * * * * * * * * * * * * * * * * * * * * * * * * * * * * * * * * * * * * //

dimensions      [0 0 0 0 0 0 0];

internalField   nonuniform List<scalar> 
559
(
0.999992
0.999989
0.999988
0.999986
0.99837
0.833526
0.0561846
0.00421762
0.867508
0.758278
0.754796
0.802219
0.867584
0.908404
0.922415
0.926296
0.928559
0.929954
0.931505
0.933451
0.934993
0.93601
0.936648
0.936922
0.936922
0.936933
0.936863
0.498304
0.156637
0.0683248
0.0657099
0.0750974
0.0978957
0.128898
0.171033
0.2133
0.245823
0.304302
0.479779
0.67382
0.778427
0.865804
0.933527
0.93698
0.936947
0.936933
0.0138914
0.00339258
0.00020414
3.95964e-05
3.2629e-05
6.74794e-05
0.000399344
0.000121397
4.39369e-05
0.000887825
0.0358348
0.271964
0.580275
0.754696
0.875117
0.93425
0.937082
0.937052
0.936946
0.0142016
0.00195529
5.68111e-05
3.26286e-05
3.26244e-05
3.13839e-05
4.03522e-05
4.03265e-05
4.203e-05
0.000456994
0.0241027
0.177981
0.451581
0.622256
0.83468
0.917333
0.937132
0.937088
0.93611
0.0300307
0.00163165
3.80952e-05
3.30058e-05
3.1345e-05
2.97904e-05
3.44201e-05
4.14227e-05
4.7669e-05
0.000113552
0.00689081
0.0682679
0.198204
0.276253
0.62944
0.908542
0.936295
0.932706
0.926261
0.00312064
0.000560506
8.34313e-05
5.76433e-05
4.97073e-05
2.96963e-05
3.06111e-05
3.43147e-05
3.63399e-05
4.5924e-05
0.0010759
0.0187312
0.0328716
0.0659924
0.201788
0.740584
0.930809
0.922291
0.913711
0.00350924
0.00039585
5.93847e-05
5.90975e-05
5.94312e-05
4.27485e-05
3.47013e-05
3.90568e-05
3.90506e-05
3.54329e-05
0.000106927
0.00221065
0.00770492
0.0282049
0.038633
0.296693
0.852718
0.909812
0.873764
0.00519757
0.000285565
2.95647e-05
2.95562e-05
2.99267e-05
4.00782e-05
3.11993e-05
3.90508e-05
3.88231e-05
3.48289e-05
4.89062e-05
0.000181108
0.000867108
0.00239181
0.0144605
0.0424917
0.307551
0.506509
0.504991
0.00350344
7.63051e-05
2.15906e-05
1.08082e-05
8.17206e-07
1.51178e-06
4.83211e-05
9.09046e-06
0.0627309
0.0810135
0.0673532
0.0473146
3.2536e-05
4.72342e-05
4.96289e-05
9.12565e-05
2.1466e-05
5.68714e-05
0.000100395
0.000116127
1.83889e-05
5.67404e-05
9.92383e-05
0.000125605
5.56676e-06
2.4348e-05
4.6638e-05
5.71255e-05
8.39836e-06
1.63626e-05
1.36276e-05
1.01332e-05
4.30851e-05
3.79912e-06
2.5131e-07
1.60792e-07
1.77439e-07
2.02605e-08
7.47997e-09
5.35902e-09
3.75755e-09
2.57289e-09
2.60259e-09
2.38739e-09
1.62065e-09
1.98934e-09
2.14829e-09
2.2758e-09
1.30824e-09
1.38117e-09
1.48178e-09
1.71732e-09
2.10487e-10
2.10857e-10
2.44427e-10
3.37012e-10
9.01145e-11
8.88709e-11
9.05141e-11
9.14138e-11
9.27143e-11
9.03548e-11
8.91718e-11
9.00259e-11
9.631e-11
9.44549e-11
9.30538e-11
9.18014e-11
7.65513e-11
7.80255e-11
7.85638e-11
7.89919e-11
3.45443e-11
3.96624e-11
4.39025e-11
4.75552e-11
0.0029234
6.22032e-05
3.73442e-05
3.05777e-05
2.83589e-05
3.07562e-05
3.11999e-05
3.76404e-05
3.86171e-05
3.48154e-05
4.92473e-05
7.12093e-05
0.000336748
0.000748789
0.000688265
0.00139824
0.00761484
0.0247975
0.0428336
0.000102368
0.000107851
0.00011141
8.32408e-05
4.38339e-05
2.5726e-05
2.57843e-05
3.45016e-05
3.89262e-05
4.01689e-05
4.01519e-05
6.25605e-05
0.000176784
0.00027681
0.000302602
0.000579849
0.00207262
0.00729914
0.0201529
0.000144764
0.000151292
0.000151298
0.000131356
6.71248e-05
2.86224e-05
2.57629e-05
3.24206e-05
3.8918e-05
4.01663e-05
4.02531e-05
5.47394e-05
0.000138991
0.000216403
0.000761312
0.00188976
0.00315381
0.00598566
0.0186732
0.00013531
0.000137563
0.000142693
0.000136145
9.51519e-05
4.57515e-05
3.20962e-05
3.35552e-05
3.79924e-05
3.9399e-05
4.11148e-05
5.25046e-05
0.000274562
0.000795191
0.00136582
0.00229248
0.00318037
0.00407419
0.0109274
6.69344e-05
8.71228e-05
0.000102951
0.000115628
0.000110817
6.91308e-05
4.1035e-05
3.63363e-05
3.70747e-05
5.18963e-05
0.000146775
0.000245252
0.000882001
0.0012716
0.00174865
0.00167101
0.00179858
0.00207101
0.00242389
1.31219e-05
3.06395e-05
6.86337e-05
0.000102678
0.000120592
0.000106893
5.72673e-05
4.60579e-05
7.5733e-05
0.000238303
0.000618294
0.000975853
0.000955972
0.000993848
0.000912104
0.000695078
0.000608547
0.000579718
0.000561415
3.95579e-07
6.2371e-06
3.89751e-05
8.33481e-05
0.000133361
0.000145619
9.36391e-05
0.000110343
0.000281352
0.000448946
0.000646103
0.000780082
0.000637847
0.000541788
0.00043498
0.00027312
0.000191313
0.000234471
0.000333499
5.00033e-09
1.94355e-07
7.22923e-06
5.4362e-05
0.000127967
0.000198631
0.00019843
0.000219612
0.000345788
0.000474147
0.000479276
0.000400698
0.000353844
0.000300627
0.000211428
0.000116857
3.81125e-05
2.27721e-05
3.49198e-05
2.26198e-09
2.26024e-09
9.71252e-08
6.1135e-06
7.25468e-05
0.000191744
0.000298386
0.000297985
0.000279859
0.000333834
0.000280989
0.000230463
0.000214774
0.000179558
4.17244e-05
5.07289e-06
9.25136e-07
5.6404e-07
1.09669e-06
2.26487e-09
2.25786e-09
2.34588e-09
2.52033e-07
1.04901e-05
8.58609e-05
0.000205402
0.000226693
0.000258201
0.000171819
0.000156987
0.000146908
5.29731e-05
7.59959e-06
4.01649e-07
1.39916e-08
3.50878e-09
3.46918e-09
5.24686e-09
1.96845e-09
2.25559e-09
2.25698e-09
3.42396e-09
2.21944e-07
6.24514e-06
3.89663e-05
8.838e-05
9.72187e-05
9.66237e-05
7.27284e-05
1.95858e-05
1.82875e-06
3.51861e-08
1.73359e-09
1.36693e-09
1.37764e-09
1.28377e-09
1.28371e-09
5.33879e-10
1.3854e-09
2.25849e-09
2.37677e-09
3.45693e-09
5.5097e-08
1.57449e-06
8.7483e-06
1.58051e-05
1.6705e-05
7.77225e-06
7.39861e-07
1.10417e-08
1.44954e-09
1.56496e-09
3.55646e-09
6.01425e-09
3.50354e-09
1.35375e-09
9.6823e-11
1.40635e-10
4.17136e-10
9.44349e-10
3.18608e-09
4.23752e-09
3.86185e-08
3.73029e-07
8.82498e-07
8.66574e-07
1.62879e-07
8.81774e-09
1.6892e-09
1.44656e-09
3.9589e-09
1.04879e-08
1.10172e-08
6.8766e-09
1.76878e-09
9.16695e-11
8.34117e-11
6.6303e-11
6.43639e-11
2.77154e-10
4.78717e-09
4.46521e-09
1.84471e-08
3.56989e-08
2.49139e-08
7.3987e-09
3.03211e-09
1.64112e-09
1.47727e-09
5.60325e-09
1.32404e-08
1.324e-08
7.30733e-09
1.83818e-09
8.97747e-11
8.63424e-11
7.43814e-11
4.9939e-11
3.88467e-11
1.32048e-10
8.26236e-10
8.28557e-09
1.61324e-08
8.73399e-09
3.92933e-09
6.79838e-09
3.3931e-09
1.43167e-09
6.17327e-09
1.32338e-08
1.16637e-08
4.95479e-09
1.78541e-09
7.99959e-11
7.7975e-11
7.14862e-11
4.86495e-11
3.70261e-11
4.1217e-11
1.47517e-10
3.04313e-09
1.93647e-08
8.79634e-09
2.71706e-09
2.99821e-09
1.29142e-09
1.66979e-09
8.08393e-09
1.29598e-08
9.59686e-09
3.79643e-09
1.71878e-09
5.55282e-11
5.98857e-11
5.44749e-11
4.07878e-11
2.93525e-11
3.35745e-11
6.11528e-11
2.22299e-09
1.49267e-08
7.48832e-09
1.70465e-09
1.06748e-09
1.00653e-09
3.19376e-09
8.93134e-09
1.15011e-08
8.07173e-09
3.46536e-09
1.71484e-09
)
;

boundaryField
{
    leftWall
    {
        type            zeroGradient;
    }
    rightWall
    {
        type            zeroGradient;
    }
    lowerWall
    {
        type            zeroGradient;
    }
    atmosphere
    {
        type            inletOutlet;
        inletValue      nonuniform 0();
        value           nonuniform 0();
    }
    defaultFaces
    {
        type            empty;
    }
    procBoundary1to0
    {
        type            processor;
        value           nonuniform List<scalar> 
26
(
0.999994
0.999994
0.999996
0.999993
0.999442
0.932356
0.259207
0.00213394
6.82093e-05
4.41602e-05
4.58729e-05
6.10454e-06
2.03081e-07
2.21484e-06
4.92464e-05
1.23762e-05
2.61327e-08
2.61327e-08
1.42178e-09
1.23369e-09
3.57637e-10
9.92581e-11
9.62616e-11
9.85494e-11
7.51202e-11
2.89631e-11
)
;
    }
    procBoundary1to3
    {
        type            processor;
        value           nonuniform List<scalar> 
23
(
2.14856e-11
2.43085e-11
2.75564e-11
3.10834e-11
3.98032e-11
4.4991e-11
4.07301e-11
2.89273e-11
2.13659e-11
2.41879e-11
4.92874e-11
9.384e-11
1.64153e-09
1.04862e-08
8.88785e-09
3.53252e-09
3.67216e-09
7.76598e-09
8.9698e-09
8.3702e-09
5.91398e-09
2.84985e-09
1.70851e-09
)
;
    }
}


// ************************************************************************* //
