/*--------------------------------*- C++ -*----------------------------------*\
| =========                 |                                                 |
| \\      /  F ield         | OpenFOAM: The Open Source CFD Toolbox           |
|  \\    /   O peration     | Version:  2.4.0                                 |
|   \\  /    A nd           | Web:      www.OpenFOAM.org                      |
|    \\/     M anipulation  |                                                 |
\*---------------------------------------------------------------------------*/
FoamFile
{
    version     2.0;
    format      ascii;
    class       volScalarField;
    location    "0.9";
    object      alpha.water;
}
// * * * * * * * * * * * * * * * * * * * * * * * * * * * * * * * * * * * * * //

dimensions      [0 0 0 0 0 0 0];

internalField   nonuniform List<scalar> 
559
(
4.31517e-10
1.51043e-09
6.60971e-09
1.54359e-06
0.00162031
0.166269
0.937338
0.973507
0.0453821
0.169929
0.175256
0.128876
0.0638745
0.024719
0.0130297
0.0103043
0.0080835
0.0066862
0.0050659
0.00317481
0.00187757
0.000966727
0.000440084
0.0002145
5.62963e-05
6.09787e-05
0.000107475
0.311658
0.556632
0.643173
0.643182
0.626729
0.530626
0.442945
0.40018
0.366958
0.334841
0.304522
0.210005
0.121798
0.0748977
0.0306097
0.00481714
0.00058734
0.000113493
0.000186255
0.474283
0.426415
0.493769
0.59808
0.701935
0.780942
0.782498
0.782849
0.782956
0.783128
0.747138
0.474693
0.170908
0.0530578
0.0179059
0.00399422
0.000442512
0.000105399
0.000232607
0.19462
0.0837041
0.0958993
0.140129
0.262655
0.534246
0.693509
0.708579
0.723999
0.772802
0.751067
0.506887
0.168826
0.0312734
0.00587597
0.00204703
0.000148769
9.92434e-05
0.000315582
0.162114
0.022228
0.0139368
0.0168718
0.0286608
0.128851
0.574855
0.758643
0.779125
0.779127
0.771667
0.521374
0.164144
0.0215946
0.0025186
0.000424539
5.12806e-05
9.93015e-05
0.000329171
0.0312462
0.0163139
0.0108767
0.0114385
0.0115049
0.0171118
0.28249
0.675623
0.746837
0.779965
0.777116
0.562814
0.17283
0.0296004
0.0170607
0.00375935
5.11814e-05
0.000109555
0.000308008
0.0312405
0.014736
0.00643602
0.0083567
0.00932221
0.01157
0.12505
0.661233
0.776077
0.779976
0.77319
0.606885
0.205719
0.0669797
0.0557062
0.0308815
0.00453669
0.000397581
0.000774196
0.0721704
0.011987
0.00355481
0.00355366
0.00374867
0.0111283
0.0596756
0.582792
0.774024
0.768154
0.758355
0.651468
0.259729
0.107295
0.0789064
0.0682892
0.0754512
0.0545448
0.046749
0.91911
0.635395
0.131223
0.0326799
0.00164569
0.000599361
0.0128231
0.00458932
0.797263
0.495772
0.239386
0.188172
0.334684
0.0497908
0.00977323
0.0151828
0.0805468
0.0312519
0.0263558
0.0340971
0.031925
0.0246982
0.0282571
0.0450003
0.00592889
0.00915391
0.013677
0.0202218
0.00262019
0.00602945
0.0053699
0.00402917
0.0123702
0.00138691
1.97744e-05
2.59567e-06
1.89794e-05
2.37207e-06
1.11459e-07
3.4134e-08
1.26837e-07
3.91561e-08
3.40022e-08
3.33374e-08
2.85184e-08
3.07956e-08
3.236e-08
3.43824e-08
2.27427e-08
2.30075e-08
2.57494e-08
3.06503e-08
8.80527e-09
8.80591e-09
8.86798e-09
9.0665e-09
2.45442e-08
1.67006e-08
1.10239e-08
9.59848e-09
1.44572e-07
9.49763e-08
4.75812e-08
4.36365e-08
2.18995e-07
2.1897e-07
2.18861e-07
2.18158e-07
1.06851e-07
9.78985e-08
9.73471e-08
7.33673e-08
1.16507e-08
1.66921e-08
1.72793e-08
1.1597e-08
0.0748141
0.00817519
0.00548978
0.00444824
0.00405013
0.00825213
0.0532669
0.452547
0.752456
0.751903
0.755426
0.691557
0.420721
0.206522
0.097015
0.0788153
0.156781
0.255146
0.311805
0.0195364
0.0269496
0.0314995
0.0267174
0.0174891
0.00956629
0.0466028
0.332627
0.689432
0.76288
0.754981
0.728326
0.568604
0.335437
0.121333
0.079574
0.157055
0.322256
0.43353
0.0516106
0.0654615
0.0739463
0.0719587
0.0475402
0.0323891
0.0678181
0.319968
0.60098
0.701167
0.704359
0.695935
0.594257
0.398845
0.176448
0.0824859
0.124946
0.354913
0.469616
0.0597209
0.0722651
0.0914438
0.103569
0.100756
0.0890573
0.126863
0.316911
0.476401
0.528273
0.539377
0.55531
0.552795
0.374873
0.187292
0.101069
0.158522
0.408337
0.470772
0.0340525
0.0611062
0.0870191
0.119171
0.139788
0.150301
0.180892
0.287995
0.370929
0.395071
0.394469
0.394956
0.414953
0.292901
0.185607
0.190308
0.305001
0.418153
0.436213
0.00699268
0.0290648
0.0750317
0.11862
0.162614
0.190123
0.210674
0.238839
0.250077
0.24941
0.236501
0.236225
0.238805
0.243663
0.253376
0.322006
0.350599
0.337028
0.302749
0.000165645
0.00672951
0.0490227
0.106292
0.164997
0.183719
0.17925
0.190569
0.206366
0.209734
0.225295
0.258788
0.295789
0.321516
0.320514
0.318425
0.283479
0.192351
0.186385
1.105e-06
0.000282416
0.0102661
0.0672609
0.136685
0.183371
0.179258
0.179195
0.250973
0.298293
0.324499
0.334893
0.334548
0.32148
0.291473
0.167706
0.066784
0.0348981
0.0398851
3.27906e-08
1.13787e-06
0.000235603
0.0100156
0.0812149
0.170435
0.233849
0.23364
0.260281
0.321369
0.32112
0.3064
0.267041
0.177081
0.0553219
0.00532947
0.000572151
0.000273093
0.000579965
3.28676e-08
3.10975e-08
2.67087e-06
0.000557759
0.0175883
0.106022
0.207536
0.235654
0.260467
0.258843
0.240678
0.172757
0.0586169
0.00517198
4.34076e-05
3.94871e-07
7.22641e-08
7.59182e-08
1.479e-07
3.29687e-08
3.12042e-08
2.54522e-08
3.35098e-06
0.000440286
0.0103993
0.0562282
0.118346
0.141919
0.13665
0.088674
0.0224805
0.000805444
9.16188e-07
6.53481e-09
3.40718e-09
2.58973e-09
1.27102e-09
8.43149e-10
1.07103e-08
1.83205e-08
2.42281e-08
1.67599e-08
2.15727e-07
4.49827e-05
0.00161939
0.0104131
0.0204847
0.0218815
0.00901584
0.000315052
1.87481e-07
4.29998e-09
2.52797e-09
2.6965e-09
5.27523e-09
2.54414e-09
7.85981e-10
1.57262e-08
7.97259e-09
6.21446e-09
5.71893e-09
2.96224e-08
1.05554e-07
1.05087e-05
0.000164898
0.000452018
0.000412918
4.86925e-05
5.85475e-07
1.27552e-08
2.71663e-09
3.04493e-09
1.15739e-08
1.64731e-08
1.14998e-08
1.22427e-09
5.18057e-08
2.34542e-08
5.7944e-09
4.42463e-09
3.55313e-09
3.82713e-08
9.57663e-08
1.72444e-06
2.95752e-06
1.38577e-06
3.1209e-07
1.0777e-07
3.48289e-08
4.7867e-09
4.74536e-09
2.67566e-08
3.13306e-08
1.58268e-08
1.52502e-09
1.45859e-07
4.43213e-08
1.80299e-08
3.7453e-09
2.33449e-09
5.77852e-09
1.95899e-08
4.68902e-08
7.13156e-08
4.63614e-08
6.12878e-08
1.8602e-07
7.11268e-08
1.22289e-08
7.10786e-09
3.13306e-08
3.13154e-08
1.44915e-08
1.50086e-09
7.78985e-08
5.99897e-08
1.99235e-08
5.12462e-09
2.52328e-09
1.41476e-09
9.69798e-09
2.21637e-08
7.57631e-08
3.87636e-08
3.78774e-08
7.50698e-08
1.59453e-08
3.62682e-09
1.42688e-08
3.1309e-08
2.83377e-08
9.94647e-09
1.14088e-09
1.22907e-08
1.44927e-08
9.89144e-09
5.70714e-09
2.55527e-09
1.25214e-09
2.56602e-09
1.99872e-08
4.89421e-08
2.13499e-08
5.65978e-09
1.03184e-08
3.46364e-09
4.31264e-09
2.05801e-08
3.11812e-08
2.2189e-08
6.90458e-09
8.74235e-10
)
;

boundaryField
{
    leftWall
    {
        type            zeroGradient;
    }
    rightWall
    {
        type            zeroGradient;
    }
    lowerWall
    {
        type            zeroGradient;
    }
    atmosphere
    {
        type            inletOutlet;
        inletValue      nonuniform 0();
        value           nonuniform 0();
    }
    defaultFaces
    {
        type            empty;
    }
    procBoundary1to0
    {
        type            processor;
        value           nonuniform List<scalar> 
26
(
6.462e-10
1.7638e-09
1.15846e-08
4.53111e-07
0.000549709
0.0675608
0.737461
0.979071
0.960217
0.607287
0.0750818
0.00442495
7.32885e-05
0.00061002
0.0131633
0.00765346
2.26794e-06
2.26794e-06
2.98808e-08
2.88522e-08
1.77578e-08
2.65227e-08
1.55906e-07
2.04637e-07
8.52748e-08
9.28556e-09
)
;
    }
    procBoundary1to3
    {
        type            processor;
        value           nonuniform List<scalar> 
23
(
3.85315e-09
3.90779e-09
3.68646e-09
3.68326e-09
4.67229e-09
6.39869e-09
5.94801e-09
4.24987e-09
2.0654e-09
1.00176e-09
8.26092e-10
2.75469e-09
1.12313e-08
3.00555e-08
2.33413e-08
9.23793e-09
9.09703e-09
1.79283e-08
2.281e-08
2.26196e-08
1.47386e-08
2.82579e-09
7.0458e-10
)
;
    }
}


// ************************************************************************* //
