/*--------------------------------*- C++ -*----------------------------------*\
| =========                 |                                                 |
| \\      /  F ield         | OpenFOAM: The Open Source CFD Toolbox           |
|  \\    /   O peration     | Version:  2.4.0                                 |
|   \\  /    A nd           | Web:      www.OpenFOAM.org                      |
|    \\/     M anipulation  |                                                 |
\*---------------------------------------------------------------------------*/
FoamFile
{
    version     2.0;
    format      ascii;
    class       volScalarField;
    location    "0.9";
    object      alpha.oil;
}
// * * * * * * * * * * * * * * * * * * * * * * * * * * * * * * * * * * * * * //

dimensions      [0 0 0 0 0 0 0];

internalField   nonuniform List<scalar> 
559
(
7.90044e-06
1.10011e-05
1.18415e-05
1.18569e-05
9.703e-06
0.00019786
0.00635852
0.0221645
0.0870468
0.0717745
0.0699211
0.0688745
0.0684996
0.0668357
0.0645168
0.0633615
0.0633268
0.063247
0.0631639
0.0630972
0.0630756
0.0630213
0.0629109
0.0628631
0.0629668
0.0629861
0.063019
0.187831
0.285785
0.288145
0.291043
0.298136
0.371442
0.428114
0.428499
0.417805
0.416162
0.388003
0.307042
0.201971
0.145781
0.103414
0.0616447
0.062408
0.0629132
0.0628703
0.434918
0.564326
0.505634
0.401844
0.297995
0.218953
0.217065
0.216993
0.216963
0.214887
0.215037
0.250561
0.246779
0.191856
0.106907
0.0617079
0.0624647
0.0628215
0.0628107
0.462694
0.850836
0.898529
0.859671
0.737276
0.465685
0.306413
0.29134
0.274922
0.225145
0.223262
0.313033
0.377852
0.34627
0.159425
0.0806046
0.0627093
0.0628024
0.0635646
0.47937
0.92712
0.985872
0.983059
0.971271
0.871082
0.425073
0.241271
0.22075
0.219861
0.221108
0.410106
0.637497
0.702096
0.367989
0.0910236
0.0636432
0.0671849
0.0733961
0.653244
0.947223
0.988347
0.988349
0.988348
0.982819
0.717413
0.324277
0.253098
0.21988
0.221778
0.418427
0.794237
0.903979
0.780624
0.25549
0.0691292
0.0775898
0.0859598
0.856694
0.964803
0.988349
0.988349
0.98835
0.988349
0.874877
0.338695
0.223856
0.21996
0.226675
0.390877
0.786505
0.903985
0.903991
0.670095
0.142387
0.0897782
0.125431
0.901165
0.958073
0.988347
0.988349
0.988348
0.98835
0.940255
0.41713
0.225542
0.226745
0.24138
0.348323
0.739371
0.889804
0.903997
0.886063
0.613839
0.43792
0.447799
0.0773318
0.363818
0.864304
0.771622
0.170638
0.0175762
0.283382
0.187159
0.13908
0.417996
0.688191
0.759443
0.641194
0.905636
0.964933
0.976995
0.914918
0.96423
0.970095
0.964842
0.958982
0.964303
0.961394
0.948553
0.531429
0.63124
0.722152
0.883702
0.136411
0.202527
0.199812
0.27573
0.258671
0.0817317
0.0138392
0.00761026
0.000232749
0.000145955
1.13719e-05
1.22935e-06
1.04155e-05
7.60875e-07
7.32961e-07
9.75767e-07
4.63256e-07
5.55515e-07
6.45192e-07
8.34769e-07
4.74192e-07
6.00661e-07
7.06522e-07
7.60613e-07
7.53722e-07
8.04104e-07
9.01087e-07
9.95481e-07
9.89509e-07
1.11051e-06
1.40762e-06
1.73734e-06
8.09754e-07
9.22258e-07
9.99675e-07
1.11397e-06
8.41322e-07
8.48571e-07
8.59742e-07
9.39003e-07
2.7132e-06
1.20438e-06
1.25143e-06
1.31119e-06
9.35326e-06
9.44284e-06
9.49471e-06
6.58257e-06
0.910199
0.962101
0.983607
0.98656
0.985369
0.988345
0.946664
0.546945
0.235558
0.21635
0.218245
0.30244
0.578798
0.792514
0.901864
0.917958
0.832446
0.716945
0.644086
0.97678
0.969526
0.963956
0.962628
0.971896
0.981687
0.952876
0.661623
0.293715
0.219123
0.218113
0.246306
0.426868
0.664062
0.878101
0.918135
0.838327
0.670231
0.546145
0.947589
0.93383
0.9255
0.926959
0.947526
0.95885
0.928966
0.676921
0.396763
0.297787
0.290556
0.289137
0.390806
0.6005
0.822538
0.914971
0.871377
0.63893
0.511539
0.937158
0.927209
0.908361
0.896243
0.898797
0.909862
0.871809
0.68287
0.523486
0.471616
0.459535
0.436356
0.432151
0.62274
0.811233
0.89657
0.838222
0.587417
0.518054
0.937245
0.932125
0.912614
0.880667
0.860059
0.849588
0.819024
0.711936
0.629002
0.604845
0.60508
0.602278
0.578357
0.704215
0.812608
0.807985
0.693163
0.579422
0.560903
0.584952
0.885118
0.912906
0.880104
0.835658
0.805996
0.785352
0.759909
0.749752
0.750312
0.762847
0.762673
0.759881
0.754901
0.745675
0.677258
0.647533
0.661754
0.695841
0.0330469
0.303336
0.779162
0.875853
0.818318
0.736315
0.714554
0.775973
0.789892
0.789686
0.774028
0.740411
0.703552
0.677812
0.67794
0.679711
0.701314
0.778683
0.780944
0.000172448
0.0148257
0.22752
0.709075
0.805996
0.626532
0.53825
0.538658
0.66998
0.693579
0.67444
0.664638
0.664986
0.676889
0.689456
0.701995
0.698485
0.611577
0.710051
1.13085e-06
0.000212046
0.0174973
0.238281
0.673697
0.715864
0.651055
0.542362
0.542495
0.610912
0.675552
0.69209
0.715462
0.715245
0.631483
0.292327
0.0643079
0.0296719
0.0771467
9.21709e-07
1.4423e-06
0.000420202
0.0280258
0.312
0.735749
0.74676
0.746868
0.721943
0.729065
0.746846
0.746172
0.712431
0.30715
0.0224424
9.52966e-05
4.13351e-06
3.88776e-06
1.05089e-05
8.02932e-07
8.10281e-07
1.59489e-06
0.000442679
0.026041
0.288917
0.723428
0.80387
0.80386
0.803845
0.800338
0.550097
0.0774564
0.000413099
2.43921e-06
2.48116e-06
3.31681e-06
1.78019e-06
1.48035e-06
1.16638e-06
9.25954e-07
5.64848e-07
4.78366e-07
3.73477e-05
0.00499468
0.116024
0.520034
0.734318
0.711119
0.319637
0.0239199
1.68661e-05
2.28051e-06
2.98815e-06
1.16417e-05
2.11167e-05
1.38423e-05
1.87134e-06
2.05992e-06
1.95053e-06
1.02839e-06
3.75866e-07
3.72415e-07
4.80407e-06
0.00120227
0.0276882
0.100499
0.103993
0.00678857
3.82705e-06
1.60556e-06
2.23835e-06
1.5486e-05
2.31612e-05
2.31447e-05
2.31557e-05
4.59023e-06
1.91622e-06
2.32279e-06
2.12785e-06
6.64146e-07
2.19397e-07
4.42474e-07
3.30044e-05
0.000212398
0.00031875
0.000187928
1.45333e-05
1.602e-06
1.60775e-06
1.78127e-06
6.48846e-06
1.4665e-05
2.13638e-05
2.30784e-05
4.30592e-06
1.17852e-06
2.24198e-06
2.42494e-06
1.44603e-06
3.43863e-07
1.39738e-07
1.02049e-07
2.70835e-07
1.10111e-06
1.76711e-06
1.91436e-06
1.66279e-06
1.60584e-06
1.78603e-06
1.3274e-06
1.05251e-06
2.49666e-06
5.321e-06
1.917e-06
1.3531e-06
2.01626e-06
2.41895e-06
1.49889e-06
5.14441e-07
1.38467e-07
8.59957e-08
1.48412e-07
1.12482e-06
1.79278e-06
2.08906e-06
1.85178e-06
1.66655e-06
1.7094e-06
1.17687e-06
9.16436e-07
8.87717e-07
1.06613e-06
1.39056e-06
1.94477e-06
2.16575e-06
1.99714e-06
1.35412e-06
3.79186e-07
1.34094e-07
6.73612e-08
1.78951e-07
8.38641e-07
1.6983e-06
2.0038e-06
2.03757e-06
1.97776e-06
1.35252e-06
9.62317e-07
7.4025e-07
7.52065e-07
1.03409e-06
1.36543e-06
)
;

boundaryField
{
    leftWall
    {
        type            zeroGradient;
    }
    rightWall
    {
        type            zeroGradient;
    }
    lowerWall
    {
        type            zeroGradient;
    }
    atmosphere
    {
        type            inletOutlet;
        inletValue      nonuniform 0();
        value           nonuniform 0();
    }
    defaultFaces
    {
        type            empty;
    }
    procBoundary1to0
    {
        type            processor;
        value           nonuniform List<scalar> 
26
(
5.82093e-06
6.2863e-06
4.22327e-06
6.07999e-06
8.12676e-06
6.69914e-05
0.00323112
0.0187723
0.0397095
0.391387
0.76338
0.168525
0.00886954
0.00576137
0.24461
0.354593
0.0002262
0.0002262
6.49276e-07
4.61324e-07
6.1819e-07
8.51314e-07
7.05032e-07
7.82456e-07
1.06102e-05
8.62141e-06
)
;
    }
    procBoundary1to3
    {
        type            processor;
        value           nonuniform List<scalar> 
23
(
3.04765e-06
7.31548e-06
4.25272e-06
1.62749e-06
1.66454e-06
2.30775e-06
2.2531e-06
1.00126e-06
2.59789e-07
1.0878e-07
5.35365e-08
7.02609e-08
1.22291e-07
5.11191e-07
1.5919e-06
2.03341e-06
1.85325e-06
9.34495e-07
5.97491e-07
4.89e-07
6.47089e-07
1.74052e-06
4.23526e-06
)
;
    }
}


// ************************************************************************* //
