/*--------------------------------*- C++ -*----------------------------------*\
| =========                 |                                                 |
| \\      /  F ield         | OpenFOAM: The Open Source CFD Toolbox           |
|  \\    /   O peration     | Version:  2.4.0                                 |
|   \\  /    A nd           | Web:      www.OpenFOAM.org                      |
|    \\/     M anipulation  |                                                 |
\*---------------------------------------------------------------------------*/
FoamFile
{
    version     2.0;
    format      ascii;
    class       volScalarField;
    location    "0.9";
    object      p;
}
// * * * * * * * * * * * * * * * * * * * * * * * * * * * * * * * * * * * * * //

dimensions      [1 -1 -2 0 0 0 0];

internalField   nonuniform List<scalar> 
559
(
5348.07
4525.59
3773.41
2860.57
2187.13
1179.97
742.054
802.63
1921.15
1532.25
1386.37
1361.62
1366.67
1395.17
1471.1
1592.41
1723.75
1876.44
2180
2856.37
3498.67
3975.01
4377.36
4860.46
5703.33
5820.94
5960.99
1087.26
934.563
852.644
808.101
768.051
760.842
813.181
887.151
971.252
1057.51
1197.61
1588.22
2232.9
2616.12
3003.29
3523.15
4535.44
4648.03
4867.28
984.743
1016.27
1028.2
1034.8
1037.88
1053.14
1075.01
1131.67
1197.82
1289.44
1394.89
1489.16
1941.55
2403.74
2749.99
3039.34
4011.11
4211.13
4383.38
952.733
926.836
859.675
812.227
762.923
741.039
770.198
833.336
905.539
981.472
1092.82
1103.94
1248.31
1475.6
1791.9
2276.44
3138.09
3341.27
3559.1
910.916
912.283
900.294
888.311
880.888
880.447
904.974
982.425
1027.12
1050.98
1059.34
923.65
868.152
980.524
1171.52
1773.15
2492.53
2741.1
2954.59
884.333
885.509
834.901
794.551
744.005
699.964
729.212
791.763
851.817
908.938
959.98
858.181
799.648
837.168
850.903
1152.23
1870.04
2135.75
2320.44
869.871
861.496
813.848
779.698
750.556
768.3
766.353
824.648
853.965
862.099
879.394
822.928
782.311
798.014
789.375
816.628
1213.31
1513.09
1680.56
841.977
837.299
785.013
736.643
693.347
643.471
689.962
738.745
783.358
808.872
818.092
784.469
737.3
743.778
751.308
724.265
777.702
1053.63
1274.49
641.083
538.779
518.701
98.8978
22.6887
15.2808
15.3452
5.7401
796.861
851.284
871.538
866.325
612.779
639.612
650.523
660.014
714.013
773.281
785.763
751.791
416.01
404.566
406.855
436.799
87.1276
89.9451
69.205
108.481
15.4833
15.3576
13.1922
14.7771
6.07605
4.18315
4.42042
4.26664
3.62076
4.01196
4.20489
4.50793
2.87163
3.05468
3.24255
3.46652
2.70315
2.76255
2.83004
2.93006
2.20118
2.26998
2.37664
2.49376
1.80806
1.83088
1.90151
2.01602
1.32121
1.2824
1.30839
1.40004
1.22588
1.18308
1.21162
1.30355
1.61398
1.59978
1.61792
1.67756
1.90475
1.88846
1.90763
1.9567
2.11545
2.10097
2.11523
2.15417
808.57
809.224
744.889
684.784
638.627
644.657
648.334
683.481
716.355
730.659
737.364
716.343
680.591
710.686
710.509
703.137
694.676
712.656
788.687
698.471
730.484
672.154
591.606
536.244
500.766
551.312
592.286
627.897
638.694
635.216
630.946
622.172
651.166
639.068
614.549
627.245
690.631
748.32
699.252
651.421
571.965
492.174
440.347
436.242
475.136
512.253
542.366
541.586
532.02
522.355
522.366
547.365
528.107
513.674
499.516
517.544
559.118
469.697
462.256
425.253
376.351
348.013
363.415
403.783
438.641
460.628
458.045
441.406
424.836
437.715
479.994
483.787
459.71
439.854
434.13
443.181
230.563
276.699
278.989
267.629
266.147
297.328
337.249
368.522
383.558
380.585
362.735
347.158
367.871
411.238
414.942
386.569
360.466
337.267
335.033
29.0191
84.3751
142.177
161.262
183.238
220.611
266.397
301.518
314.473
312.577
302.662
299.331
317.617
345.095
343.632
299.032
278.058
242.756
232.923
3.85752
6.0346
28.0615
80.4908
116.125
152.322
189.909
220.412
256.741
262.804
262.617
268.709
279.454
273.197
240.915
184.306
170.234
123.145
123.38
4.66018
3.81959
4.71436
16.6921
73.4025
115.119
144.39
167.961
191.149
208.891
210.362
207.235
194.657
163.199
110.971
65.6784
42.1777
31.8183
33.6143
3.79517
3.80566
3.57177
4.40071
18.8378
77.0329
103.81
127.958
139.856
144.975
140.978
125.804
96.7545
47.1895
17.381
6.46946
4.00315
4.0892
4.67685
3.1178
3.32006
3.39941
3.39147
4.35994
20.6022
64.4797
83.2922
92.8636
92.6832
79.1249
48.5312
21.173
5.76211
3.3437
4.48374
5.43796
5.92564
5.89358
2.67061
2.95216
3.22734
3.34973
3.3036
4.37201
14.5043
38.3238
47.5152
42.2047
20.1495
10.608
2.96938
3.52512
4.49333
4.61641
4.81582
5.11471
5.22363
2.20782
2.58538
2.97723
3.26121
3.39873
3.40706
3.71482
6.03546
13.3666
11.7717
5.55071
2.23845
3.32212
3.26626
3.37006
3.84806
4.28224
4.55107
4.70755
1.63018
2.24535
2.76156
3.14725
3.36011
3.46576
3.43621
3.31376
3.23488
3.15576
2.50433
3.31264
3.01437
2.93149
3.18444
3.51858
3.85147
4.06843
4.2139
1.54459
2.15526
2.66231
3.03325
3.24474
3.33748
3.4084
3.52376
3.73475
3.71199
3.46224
3.04641
2.77849
2.56778
2.66274
3.03368
3.48738
3.71967
3.86513
1.83763
2.23059
2.64103
2.95171
3.14585
3.22035
3.24754
3.24485
3.29531
3.12945
2.87399
2.86675
2.68322
2.32047
2.46255
2.87584
3.27733
3.51893
3.63691
2.07569
2.35148
2.64322
2.87509
3.02336
3.08719
3.11613
3.1142
3.11445
2.99864
2.8933
2.73805
2.52033
2.32034
2.44507
2.81731
3.17749
3.39575
3.49176
2.24181
2.42808
2.62732
2.79764
2.9083
2.96458
2.991
3.0052
2.98652
2.90954
2.82568
2.77431
2.61624
2.42445
2.53204
2.8233
3.13704
3.31739
3.41057
)
;

boundaryField
{
    leftWall
    {
        type            fixedFluxPressure;
        gradient        nonuniform 0();
        value           nonuniform 0();
    }
    rightWall
    {
        type            fixedFluxPressure;
        gradient        uniform 0;
        value           nonuniform List<scalar> 
25
(
5960.99
4867.28
4383.38
3559.1
2954.59
2320.44
1680.56
1274.49
788.687
748.32
559.118
443.181
335.033
232.923
123.38
33.6143
4.67685
5.89358
5.22363
4.70755
4.2139
3.86513
3.63691
3.49176
3.41057
)
;
    }
    lowerWall
    {
        type            fixedFluxPressure;
        gradient        nonuniform List<scalar> 
40
(
132718
0
0
0
0
0
0
0
0
8923.86
5839.2
4865.14
4491.72
0
0
0
0
0
0
0
0
44050
31110.1
30698.5
35711
45650.9
55067.5
59618.2
61320.4
62279
63203.8
64628.6
66180.3
66109.5
66586.5
66749.1
66522.7
65612.7
65557.2
65165.9
)
;
        value           nonuniform List<scalar> 
40
(
5746.21
5348.07
4525.59
3773.41
2860.57
2187.13
1179.97
742.054
802.63
853.804
888.544
902.582
894.986
1921.15
1087.26
984.743
952.733
910.916
884.333
869.871
841.977
2053.29
1625.57
1478.47
1468.75
1503.62
1560.37
1649.95
1776.36
1910.58
2066.05
2373.88
3054.91
3696.99
4174.76
4577.6
5060.02
5900.17
6017.61
6156.48
)
;
    }
    atmosphere
    {
        type            totalPressure;
        U               U.air;
        phi             phi.air;
        rho             rho;
        psi             none;
        gamma           1;
        p0              nonuniform 0();
        value           nonuniform 0();
    }
    defaultFaces
    {
        type            empty;
    }
    procBoundary1to0
    {
        type            processor;
        value           nonuniform List<scalar> 
26
(
5369.89
4568.43
3777.42
2931.63
2214.78
1239.3
719.908
674.63
550.802
326.146
99.7299
19.0478
15.1316
16.033
15.5721
3.03074
2.26322
2.26322
2.61566
2.13308
1.80731
1.41678
1.34173
1.68025
1.964
2.15778
)
;
    }
    procBoundary1to3
    {
        type            processor;
        value           nonuniform List<scalar> 
23
(
2.21129
2.19825
2.20752
2.2375
2.31187
2.45539
2.60121
2.72345
2.79688
2.84193
2.86273
2.87549
2.86607
2.81831
2.79249
2.75707
2.63278
2.56068
2.66244
2.89675
3.12157
3.2648
3.34261
)
;
    }
}


// ************************************************************************* //
