/*--------------------------------*- C++ -*----------------------------------*\
| =========                 |                                                 |
| \\      /  F ield         | OpenFOAM: The Open Source CFD Toolbox           |
|  \\    /   O peration     | Version:  2.4.0                                 |
|   \\  /    A nd           | Web:      www.OpenFOAM.org                      |
|    \\/     M anipulation  |                                                 |
\*---------------------------------------------------------------------------*/
FoamFile
{
    version     2.0;
    format      ascii;
    class       surfaceScalarField;
    location    "0.9";
    object      phi;
}
// * * * * * * * * * * * * * * * * * * * * * * * * * * * * * * * * * * * * * //

dimensions      [0 3 -1 0 0 0 0];

internalField   nonuniform List<scalar> 
1061
(
-2.33296e-06
-2.79381e-06
-2.7472e-06
-2.82402e-06
-4.15351e-06
-4.92087e-06
-1.39778e-05
-3.04563e-05
8.32486e-06
-8.32486e-06
2.07759e-05
-1.2451e-05
2.67502e-05
-5.97426e-06
3.00519e-05
-3.30176e-06
3.19361e-05
-1.88417e-06
3.2534e-05
-5.97945e-07
3.27669e-05
-2.32888e-07
3.39724e-05
-1.20553e-06
3.5204e-05
-1.23152e-06
3.56407e-05
-4.36704e-07
3.38829e-05
1.75775e-06
3.18515e-05
2.03141e-06
3.24151e-05
-5.63631e-07
3.18726e-05
5.42584e-07
2.64509e-05
5.42164e-06
1.39409e-05
1.251e-05
6.20821e-07
1.33201e-05
-5.43808e-06
6.05891e-06
-5.43809e-06
1.30743e-05
-2.13992e-05
2.63255e-05
-2.57022e-05
3.41873e-05
-1.38361e-05
4.00964e-05
-9.21095e-06
4.13618e-05
-3.1495e-06
3.94506e-05
1.31324e-06
3.70101e-05
2.20757e-06
3.66697e-05
-8.65118e-07
3.70837e-05
-1.64552e-06
3.53285e-05
1.31856e-06
2.90357e-05
8.05052e-06
1.666e-05
1.44071e-05
1.15899e-05
4.50649e-06
1.51245e-05
-2.99202e-06
1.91445e-05
1.4016e-06
1.12237e-05
2.04308e-05
1.32335e-06
2.32204e-05
-6.03787e-06
1.34201e-05
-1.1476e-05
1.38719e-05
-3.5271e-05
1.58741e-05
-2.77043e-05
2.05237e-05
-1.84857e-05
2.76563e-05
-1.63435e-05
3.47688e-05
-1.0262e-05
3.91643e-05
-3.08233e-06
3.68849e-05
4.48697e-06
3.20738e-05
3.94602e-06
2.37614e-05
6.66689e-06
7.20602e-06
1.78739e-05
-2.31723e-05
3.84289e-05
-4.49101e-05
3.61449e-05
-4.26819e-05
2.2783e-06
-2.92013e-05
-1.64726e-05
-4.62678e-06
-2.31729e-05
6.28979e-06
9.51425e-06
2.73281e-07
2.92369e-05
-2.94447e-06
1.66379e-05
-1.44204e-05
1.26236e-05
-4.78947e-05
1.47304e-05
-2.98111e-05
1.84991e-05
-2.22544e-05
2.62116e-05
-2.4056e-05
3.12897e-05
-1.534e-05
3.08435e-05
-2.63611e-06
2.56981e-05
9.63231e-06
1.75213e-05
1.21228e-05
7.57822e-06
1.661e-05
-6.52376e-06
3.19759e-05
-2.89452e-05
6.08503e-05
-4.52127e-05
5.24124e-05
-4.36068e-05
6.72398e-07
-3.71424e-05
-2.2937e-05
-2.14649e-05
-3.88504e-05
-4.91624e-06
-7.03445e-06
-9.04032e-07
2.52247e-05
-9.44003e-07
1.66778e-05
-1.53644e-05
-1.78554e-06
-4.61091e-05
-5.42736e-06
-2.61693e-05
9.41516e-07
-2.86233e-05
7.82448e-06
-3.0939e-05
1.43553e-05
-2.18709e-05
1.4516e-05
-2.79679e-06
1.14024e-05
1.27459e-05
9.50531e-06
1.402e-05
5.81743e-06
2.02978e-05
-7.28121e-07
3.85215e-05
-1.72853e-05
7.74075e-05
-3.29637e-05
6.80909e-05
-3.74241e-05
5.13273e-06
-3.43425e-05
-2.60186e-05
-3.05943e-05
-4.25985e-05
-1.55739e-05
-2.20549e-05
-3.76722e-06
1.3418e-05
-4.81714e-07
1.33923e-05
-1.58461e-05
-5.45347e-06
-4.06556e-05
-4.67792e-06
-2.69449e-05
2.37727e-06
-3.56785e-05
7.99707e-06
-3.65588e-05
1.53192e-05
-2.9193e-05
1.06785e-05
1.84383e-06
1.03103e-06
2.23934e-05
-4.1032e-06
1.91542e-05
-5.33973e-06
2.15344e-05
-3.83148e-06
3.70132e-05
-5.53032e-06
7.91063e-05
-1.74901e-05
8.00507e-05
-3.04293e-05
1.80719e-05
-3.02228e-05
-2.62251e-05
-2.7915e-05
-4.49063e-05
-2.06e-05
-2.93698e-05
-6.52017e-06
-6.61857e-07
5.96082e-08
6.81257e-06
-1.57865e-05
-1.81603e-06
-3.88395e-05
-5.22457e-06
-2.35363e-05
1.36477e-07
-4.10395e-05
1.43188e-06
-3.78542e-05
2.34595e-06
-3.01071e-05
3.35656e-06
8.3323e-07
-3.7248e-06
2.94748e-05
-9.26489e-06
2.46943e-05
-9.37576e-06
2.16452e-05
-6.32426e-06
3.39617e-05
-5.21484e-07
7.33035e-05
-1.03978e-05
8.99269e-05
-2.7699e-05
3.53732e-05
-2.98585e-05
-2.40656e-05
-3.02165e-05
-4.45483e-05
-2.48889e-05
-3.46974e-05
-1.17271e-05
-1.38237e-05
-4.39931e-07
-4.4746e-06
-1.62265e-05
3.09705e-07
-3.91492e-05
-5.39182e-06
-1.78348e-05
-2.08305e-06
-4.43483e-05
7.24715e-07
-4.06619e-05
9.77486e-07
-3.03598e-05
-4.3367e-06
6.14742e-06
-8.93772e-06
3.40758e-05
-1.51029e-05
3.08595e-05
-1.56674e-05
2.22098e-05
-1.15441e-05
2.98384e-05
4.65849e-08
6.17129e-05
-2.32276e-06
9.22963e-05
-2.08996e-05
5.395e-05
-2.95122e-05
-1.5453e-05
-3.05088e-05
-4.35517e-05
-3.18732e-05
-3.33329e-05
-2.34939e-05
-2.2203e-05
-5.9388e-06
-2.20297e-05
-2.21653e-05
1.26298e-05
-3.10407e-05
5.15543e-05
-3.67949e-05
0.00012886
-0.000214315
0.00020149
-0.000301156
0.000177286
-0.000363774
1.12117e-05
-0.000274268
-8.92105e-05
-0.000123842
-0.000279045
-2.70612e-05
-3.97951e-06
-1.78942e-05
-9.16703e-06
-3.4052e-06
-1.4489e-05
-1.37042e-05
1.0299e-05
-7.71581e-05
3.63836e-05
-0.000112118
2.57925e-05
-0.000143052
1.6445e-05
6.22026e-06
-0.000162976
-0.000240881
6.29495e-05
-0.000256319
4.12314e-05
-0.000256944
1.70696e-05
-7.35531e-06
-0.000243368
-0.000338061
9.98548e-05
-0.000345178
4.83482e-05
-0.000317125
-1.09835e-05
-3.59187e-05
-0.000288561
-0.000311657
4.77377e-05
-0.000270221
6.91247e-06
-0.000242827
-3.83777e-05
-3.90646e-05
-0.000239681
-0.000200392
-2.61385e-05
-0.000167395
-2.60839e-05
-0.000200306
-5.46629e-06
-1.14872e-05
-0.000227884
-0.000129003
-2.09773e-05
-0.000160969
5.88245e-06
-0.00017723
1.07943e-05
1.14396e-05
-0.000200157
-0.000333291
3.32687e-05
-0.000346956
1.95476e-05
-0.000324607
-1.1555e-05
-2.05442e-05
-0.000292623
-0.00029568
-1.17347e-05
-0.000263515
-1.26177e-05
-0.000255764
-1.93055e-05
-2.47168e-05
-0.000251591
-0.000243521
-2.46629e-06
-0.000250309
-5.83034e-06
-0.000253114
-1.65002e-05
-2.51326e-05
-0.000252698
-0.000290187
-5.74569e-06
-0.00028374
-1.22775e-05
-0.000274343
-2.58963e-05
-3.41357e-05
-0.00026534
-0.000200139
4.49361e-06
-0.000206397
-6.01974e-06
-0.000210231
-2.20628e-05
-3.19448e-05
-0.000212421
-0.000103764
1.48308e-05
-0.000112176
2.39273e-06
-0.000117959
-1.628e-05
-2.79156e-05
-0.000121988
0.000111967
1.55293e-05
0.000105977
8.38337e-06
9.54574e-05
-5.76059e-06
-1.52814e-05
8.28231e-05
0.000225968
1.41179e-05
0.000225358
8.99404e-06
0.000220789
-1.19156e-06
-7.94124e-06
0.000213449
0.000259849
1.30814e-05
0.000260609
8.2344e-06
0.00025579
3.62706e-06
-1.44208e-06
0.000249291
0.000249139
0.000251285
0.000249618
0.000244976
-2.16751e-05
-7.17508e-06
-3.08899e-05
-8.61999e-06
-2.63042e-05
-4.8934e-05
-2.33721e-05
-4.3594e-05
-2.68489e-05
-2.6883e-05
-2.27384e-05
2.03684e-06
-3.37512e-05
4.50887e-05
-4.53905e-05
4.24987e-05
-4.57243e-05
2.25436e-05
-3.34026e-05
1.75167e-05
-5.01212e-06
3.33224e-05
1.48723e-05
7.24118e-05
-4.75174e-06
7.35741e-05
-4.41269e-05
2.39221e-05
-6.74476e-05
-2.0231e-05
-7.11725e-05
-2.9608e-05
-6.8125e-05
-2.52505e-05
-4.56451e-05
-4.45096e-05
-6.78103e-05
-0.000151583
-1.85683e-05
-0.000115715
-4.44875e-05
-8.93732e-05
-7.52761e-05
-6.40157e-05
-6.89516e-05
-5.44878e-05
-3.6411e-05
-6.27271e-05
1.02762e-05
-6.06055e-05
4.2967e-05
-5.9768e-05
4.16613e-05
-5.73056e-05
2.00812e-05
-4.42737e-05
4.48481e-06
-2.2203e-05
1.12517e-05
5.00645e-06
4.52023e-05
7.99818e-07
7.77807e-05
-3.7903e-05
6.26249e-05
-7.72565e-05
1.91225e-05
-9.43349e-05
-1.25296e-05
-7.82793e-05
-4.13061e-05
-3.85379e-05
-8.4251e-05
-0.000106348
-0.000210809
-5.11283e-05
-0.000176605
-7.86911e-05
-0.000147077
-0.000104804
-0.000120942
-9.50872e-05
-0.000103951
-5.34021e-05
-9.96426e-05
5.9683e-06
-9.06172e-05
3.39416e-05
-7.90121e-05
3.00562e-05
-6.90241e-05
1.00932e-05
-5.61465e-05
-8.39278e-06
-3.82269e-05
-6.66796e-06
-1.33266e-05
2.0302e-05
-3.80022e-06
6.82543e-05
-1.45454e-05
7.33701e-05
-2.91764e-05
3.37535e-05
-3.56806e-05
-6.02542e-06
-3.47437e-05
-4.2243e-05
-1.62302e-05
-0.000102764
-0.000122579
-0.000237637
-0.000102053
-0.000199254
-0.000117074
-0.000177803
-0.000126255
-0.000162482
-0.000110408
-0.000147547
-6.8337e-05
-0.000133908
-7.6704e-06
-0.000116623
1.66564e-05
-9.80171e-05
1.14501e-05
-8.15778e-05
-6.34611e-06
-7.12608e-05
-1.87098e-05
-6.03604e-05
-1.75684e-05
-4.52067e-05
5.14837e-06
-2.98642e-05
5.29119e-05
-2.25997e-05
6.61056e-05
-2.10299e-05
3.21837e-05
-1.02866e-05
-1.67688e-05
-3.25371e-06
-4.92759e-05
1.27526e-06
-0.000107293
-0.000121303
-0.000229535
-0.000112199
-0.000214644
-0.000131965
-0.000201963
-0.000138936
-0.000189624
-0.000122746
-0.00017561
-8.23517e-05
-0.000156298
-2.69819e-05
-0.000134156
-5.48633e-06
-0.000111289
-1.14168e-05
-9.48483e-05
-2.27864e-05
-8.74485e-05
-2.61096e-05
-8.2979e-05
-2.2038e-05
-7.60213e-05
-1.80925e-06
-6.10331e-05
3.79236e-05
-4.12109e-05
4.62834e-05
-2.47695e-05
1.57423e-05
-4.52732e-06
-3.7011e-05
9.62144e-06
-6.34246e-05
9.83584e-06
-0.000107508
-0.000111467
-0.000222938
-0.000117145
-0.000237482
-0.000117421
-0.000226877
-0.00014954
-0.000212208
-0.000137415
-0.000194699
-9.98611e-05
-0.000172957
-4.87236e-05
-0.00015298
-2.54633e-05
-0.000138697
-2.56999e-05
-0.000133707
-2.7777e-05
-0.000133043
-2.6773e-05
-0.000133208
-2.18732e-05
-0.000127222
-7.79482e-06
-0.000102362
1.30629e-05
-6.72942e-05
1.12159e-05
-3.21234e-05
-1.94284e-05
-5.03443e-06
-6.41e-05
1.14883e-05
-7.99473e-05
9.35352e-06
-0.000105373
-0.000102114
-0.000294661
-2.26406e-05
-0.000258095
-0.000153987
-0.000247993
-0.000159643
-0.000238173
-0.000147235
-0.000222524
-0.00011551
-0.000207928
-6.33199e-05
-0.000198383
-3.50087e-05
-0.000195965
-2.81169e-05
-0.000189739
-3.4003e-05
-0.000178627
-3.78852e-05
-0.000163302
-3.71983e-05
-0.000138105
-3.29924e-05
-9.89758e-05
-2.60659e-05
-5.88163e-05
-2.89436e-05
-3.02127e-05
-4.80319e-05
-2.24173e-05
-7.18954e-05
-1.1416e-05
-9.09487e-05
-5.77697e-06
-0.000111012
-0.000107891
-0.000242994
-7.22699e-05
-0.000276779
-0.000120202
-0.000262332
-0.00017409
-0.000250677
-0.00015889
-0.000244282
-0.000121905
-0.000230059
-7.75429e-05
-0.000217462
-4.76064e-05
-0.000205687
-3.98914e-05
-0.000187952
-5.17387e-05
-0.00016335
-6.24866e-05
-0.000136965
-6.35828e-05
-0.00010931
-6.06475e-05
-7.85435e-05
-5.68329e-05
-5.36309e-05
-5.38562e-05
-4.30716e-05
-5.85912e-05
-4.16171e-05
-7.33499e-05
-3.62755e-05
-9.62903e-05
-2.41349e-05
-0.000123153
-0.000132026
-0.000237372
-8.64893e-05
-0.000232318
-0.000125256
-0.000260699
-0.000145709
-0.000267586
-0.000152002
-0.000252168
-0.000137322
-0.000226837
-0.000102875
-0.000198745
-7.56985e-05
-0.000177451
-6.11848e-05
-0.000160149
-6.90406e-05
-0.000144947
-7.76893e-05
-0.000126848
-8.16821e-05
-0.000106618
-8.08772e-05
-8.57177e-05
-7.7733e-05
-7.06963e-05
-6.88776e-05
-5.45922e-05
-7.46952e-05
-4.70293e-05
-8.09128e-05
-7.65712e-05
-6.67483e-05
-6.39578e-05
-0.000135766
-0.000195984
-0.00024537
-9.38181e-05
-0.000237859
-0.000132767
-0.000241188
-0.00014238
-0.000252633
-0.000140558
-0.00024979
-0.000140166
-0.000231819
-0.000120845
-0.00020435
-0.000103167
-0.00017671
-8.88247e-05
-0.000158572
-8.71795e-05
-0.000145759
-9.05021e-05
-0.000134274
-9.31671e-05
-0.000121403
-9.37481e-05
-0.000101877
-9.7259e-05
-9.26812e-05
-7.80733e-05
-0.000165559
-1.81737e-06
-0.000213412
-3.30598e-05
-0.000149013
-0.000131147
-5.57111e-05
-0.000229068
-0.000251695
-0.000242236
-0.000116922
-0.000225052
-0.000149951
-0.00021241
-0.000155023
-0.000212644
-0.000140324
-0.000230665
-0.000122144
-0.000231322
-0.000120189
-0.000215256
-0.000119233
-0.000193992
-0.000110089
-0.000171221
-0.00010995
-0.000149387
-0.000112337
-0.000134351
-0.000108202
-0.000119412
-0.000108688
-0.000184026
-3.26442e-05
-0.00029426
3.21599e-05
-0.000266396
-2.96809e-05
-0.000176661
-0.000122795
-0.000101544
-0.000206264
-5.80482e-05
-0.000272564
-0.000309743
-0.000203646
-0.000125698
-0.000183032
-0.000170565
-0.000155885
-0.00018217
-0.000145623
-0.000150586
-0.000147419
-0.000120348
-0.000169396
-9.82117e-05
-0.000193398
-9.52315e-05
-0.000178981
-0.000124506
-0.000167271
-0.000121661
-0.000148332
-0.000131275
-0.000159095
-9.74398e-05
-0.000261218
-6.56389e-06
-0.000312396
1.85335e-05
-0.000271462
-8.774e-06
-0.000215932
-8.52113e-05
-0.000147201
-0.000191525
-8.59388e-05
-0.000267527
-4.54949e-05
-0.000313008
-0.000355238
-0.000117606
-0.00013008
-0.00010341
-0.000184762
-8.42554e-05
-0.000201324
-6.59105e-05
-0.000168931
-6.18339e-05
-0.000124425
-7.05763e-05
-8.94693e-05
-9.39558e-05
-7.18519e-05
-0.000136271
-8.21904e-05
-0.00016616
-9.17715e-05
-0.00022026
-7.71757e-05
-0.000276035
-4.1664e-05
-0.000272897
-9.70213e-06
-0.000252224
-2.13986e-06
-0.000218672
-4.2326e-05
-0.000150128
-0.000153755
-7.69129e-05
-0.00026474
-3.15472e-05
-0.000312893
-1.83623e-05
-0.000326192
-0.0003736
4.94067e-05
-9.66633e-05
1.12481e-05
-0.000146603
-1.38655e-05
-0.00017621
-8.01991e-06
-0.000174776
2.69046e-06
-0.000135135
3.27635e-06
-9.00551e-05
-5.91989e-07
-6.79836e-05
-1.30055e-05
-6.97769e-05
-6.9044e-05
-3.5733e-05
-0.000139652
-6.56764e-06
-0.000167719
-1.35972e-05
-0.000161929
-1.54927e-05
-0.000143413
-2.06553e-05
-0.000100114
-8.5625e-05
-5.26331e-05
-0.000201236
-1.96787e-05
-0.000297695
1.97078e-06
-0.000334542
3.53836e-06
-0.00032776
-0.000370062
0.000174103
-5.73176e-05
0.000124062
-9.65625e-05
8.09907e-05
-0.000133139
4.85692e-05
-0.000142355
3.81737e-05
-0.00012474
4.32478e-05
-9.51292e-05
4.6502e-05
-7.12377e-05
4.01857e-05
-6.34607e-05
5.56044e-05
-5.11516e-05
9.054e-05
-4.15033e-05
7.51053e-05
1.83757e-06
2.61398e-05
3.34728e-05
-4.74543e-07
5.95902e-06
3.91957e-06
-9.00192e-05
2.10667e-05
-0.000218383
2.94636e-05
-0.000306092
2.62141e-05
-0.000331293
1.80037e-05
-0.00031955
-0.000352058
0.000213688
-2.17142e-05
0.000166714
-4.95885e-05
0.000126053
-9.24771e-05
9.50456e-05
-0.000111348
7.28274e-05
-0.000102521
6.05573e-05
-8.28591e-05
5.80468e-05
-6.87272e-05
4.67706e-05
-5.21845e-05
3.64816e-05
-4.08627e-05
4.77664e-05
-5.27882e-05
6.06413e-05
-1.10373e-05
5.61612e-05
3.7953e-05
5.07955e-05
1.13247e-05
6.41174e-05
-0.000103341
7.72225e-05
-0.000231489
7.23519e-05
-0.000301221
4.83177e-05
-0.000307258
2.0082e-05
-0.000291314
-0.000331976
0.000220765
0.000184291
0.000144862
0.000111093
8.97815e-05
7.48868e-05
6.27186e-05
4.79408e-05
2.37707e-05
5.03003e-06
2.61582e-05
6.8892e-05
0.000107577
0.000128983
0.000125922
0.000103847
7.22866e-05
3.63246e-05
)
;

boundaryField
{
    leftWall
    {
        type            calculated;
        value           nonuniform 0();
    }
    rightWall
    {
        type            calculated;
        value           uniform 0;
    }
    lowerWall
    {
        type            calculated;
        value           nonuniform List<scalar> 
40
(
-2.5763e-22
0
0
0
0
0
0
0
0
-4.46678e-23
-2.64698e-23
2.64698e-23
-2.64698e-23
0
0
0
0
0
0
0
0
5.39477e-23
5.07973e-23
1.25835e-22
-1.47794e-22
1.53649e-22
2.46603e-23
-1.02105e-22
-1.57449e-22
-9.79627e-23
-6.61744e-24
2.33058e-22
-1.15392e-22
-5.26035e-23
-7.21546e-23
-1.49826e-22
3.55542e-23
6.55024e-23
9.95977e-23
-1.17938e-23
)
;
    }
    atmosphere
    {
        type            calculated;
        value           nonuniform 0();
    }
    defaultFaces
    {
        type            empty;
        value           nonuniform 0();
    }
    procBoundary1to0
    {
        type            processor;
        value           nonuniform List<scalar> 
26
(
2.33296e-06
4.60852e-07
-4.66104e-08
7.68199e-08
1.32949e-06
7.67353e-07
9.05691e-06
1.64785e-05
-1.20454e-05
-2.12957e-06
0.000137009
0.000228526
0.00038798
0.000440342
0.000224264
0.000232724
-4.28895e-05
0.000340683
0.000234253
0.000293466
0.0001899
9.34265e-05
-0.000112666
-0.000224557
-0.000258813
-0.000244139
)
;
    }
    procBoundary1to3
    {
        type            processor;
        value           nonuniform List<scalar> 
23
(
8.08134e-06
6.08912e-06
5.29326e-06
3.20012e-06
2.49683e-06
-1.31146e-05
-5.30481e-05
-7.75787e-05
-8.12096e-05
-6.79644e-05
-5.65589e-05
-3.74067e-05
-1.66926e-05
-3.40475e-05
-3.21655e-05
-4.78079e-06
-2.73605e-05
-0.000124747
-0.000228427
-0.000279146
-0.000275698
-0.000255352
-0.000295651
)
;
    }
}


// ************************************************************************* //
