/*--------------------------------*- C++ -*----------------------------------*\
| =========                 |                                                 |
| \\      /  F ield         | OpenFOAM: The Open Source CFD Toolbox           |
|  \\    /   O peration     | Version:  2.4.0                                 |
|   \\  /    A nd           | Web:      www.OpenFOAM.org                      |
|    \\/     M anipulation  |                                                 |
\*---------------------------------------------------------------------------*/
FoamFile
{
    version     2.0;
    format      ascii;
    class       surfaceScalarField;
    location    "0.9";
    object      phi.oil;
}
// * * * * * * * * * * * * * * * * * * * * * * * * * * * * * * * * * * * * * //

dimensions      [0 3 -1 0 0 0 0];

internalField   nonuniform List<scalar> 
1061
(
-3.9944e-07
-7.44678e-07
-2.80584e-07
-1.41186e-06
3.23634e-06
3.75839e-05
-1.58239e-06
-2.30635e-05
1.21418e-05
3.03176e-05
2.23518e-05
2.9947e-05
2.70168e-05
4.35428e-05
3.00363e-05
4.76578e-05
3.16882e-05
5.39318e-05
3.18991e-05
5.559e-05
3.17012e-05
5.48517e-05
3.28668e-05
5.17363e-05
3.39699e-05
5.02974e-05
3.3313e-05
5.04364e-05
2.91736e-05
5.45427e-05
2.73164e-05
5.63174e-05
2.89367e-05
4.92629e-05
2.88715e-05
5.16358e-05
2.28745e-05
5.68657e-05
8.26352e-06
6.09856e-05
-1.15976e-06
5.86389e-05
-6.51873e-06
5.25044e-05
3.81128e-05
1.61172e-05
1.3672e-05
2.82244e-05
-5.50426e-06
3.5558e-05
5.76081e-07
4.14608e-05
2.06222e-06
4.18918e-05
6.99527e-06
3.87561e-05
8.7914e-06
3.561e-05
1.13013e-05
3.54186e-05
9.0821e-06
3.60432e-05
8.32443e-06
3.36802e-05
9.69082e-06
2.60236e-05
2.19231e-05
1.21402e-05
3.32398e-05
8.76183e-06
2.67379e-05
1.20281e-05
1.95667e-05
1.51742e-05
2.2969e-05
5.06166e-06
4.48797e-05
-8.24988e-07
4.88451e-05
-7.64929e-06
3.77824e-05
1.58146e-05
1.31472e-05
-4.12596e-05
1.52609e-05
-2.54276e-05
1.99118e-05
-1.35587e-05
2.73067e-05
-1.03002e-05
3.44952e-05
-1.93383e-06
3.86729e-05
1.1591e-05
3.52583e-05
2.46367e-05
2.99186e-05
2.30609e-05
2.1018e-05
2.73323e-05
4.80908e-06
4.03381e-05
-2.36745e-05
6.52797e-05
-5.0546e-05
6.46859e-05
-4.68455e-05
3.44543e-05
-3.1925e-05
1.97775e-05
-7.34711e-06
1.37139e-05
5.47243e-07
4.44951e-05
-2.16442e-06
6.67056e-05
-4.42783e-06
5.51729e-05
2.18214e-05
1.05143e-05
-7.92384e-05
1.42926e-05
-2.95425e-05
1.84797e-05
-2.08688e-05
2.61289e-05
-2.25092e-05
3.09234e-05
-1.19381e-05
3.07932e-05
5.03244e-06
2.4409e-05
1.56061e-05
1.54893e-05
1.85973e-05
5.27045e-06
2.48878e-05
-9.47965e-06
4.28477e-05
-3.11222e-05
7.71658e-05
-4.96343e-05
7.29981e-05
-4.63054e-05
2.37857e-05
-3.91381e-05
3.5982e-06
-2.52204e-05
-8.92765e-06
-1.12787e-05
1.88005e-05
-3.05303e-06
5.49387e-05
-2.61312e-06
4.55249e-05
1.43116e-05
-2.28831e-06
-6.57158e-05
-5.56592e-06
-2.82009e-05
9.56698e-07
-2.83667e-05
7.83513e-06
-3.05871e-05
1.42992e-05
-2.13272e-05
1.39186e-05
-1.06667e-06
9.91115e-06
2.36879e-05
8.10144e-06
3.09465e-05
4.44969e-06
3.8382e-05
-2.42762e-06
5.64891e-05
-1.73538e-05
9.6109e-05
-3.32673e-05
8.14389e-05
-3.91733e-05
1.61144e-05
-3.59346e-05
-1.16443e-05
-3.48764e-05
-1.91955e-05
-2.14994e-05
6.49179e-06
-6.11843e-06
4.32862e-05
-2.31563e-06
4.35408e-05
1.5151e-05
-5.60788e-06
-5.01021e-05
-5.02102e-06
-2.79667e-05
2.40604e-06
-3.55929e-05
8.03756e-06
-3.63504e-05
1.53543e-05
-2.88941e-05
1.06268e-05
2.30244e-06
1.68632e-07
2.56406e-05
-5.48708e-06
2.74897e-05
-6.72618e-06
3.2075e-05
-5.01669e-06
5.02918e-05
-5.07404e-06
9.56654e-05
-1.64059e-05
8.96185e-05
-3.08565e-05
2.0891e-05
-3.14525e-05
-2.0922e-05
-3.02099e-05
-3.53842e-05
-2.70203e-05
-6.61449e-06
-8.88169e-06
3.09021e-05
-1.53314e-06
3.78141e-05
1.57045e-05
-2.23451e-06
-4.13654e-05
-5.46428e-06
-2.45159e-05
1.05514e-07
-4.12966e-05
1.42244e-06
-3.81367e-05
2.36487e-06
-3.04267e-05
3.31411e-06
1.09026e-06
-4.70595e-06
3.18621e-05
-1.03116e-05
3.66754e-05
-9.75733e-06
3.52798e-05
-6.54485e-06
4.73619e-05
-2.08522e-07
8.8069e-05
-9.8572e-06
9.90436e-05
-2.78341e-05
3.647e-05
-3.02804e-05
-2.15869e-05
-3.14233e-05
-4.11512e-05
-2.84433e-05
-2.28495e-05
-1.44526e-05
1.37967e-05
-1.86334e-06
2.34093e-05
1.14614e-05
5.85511e-08
-3.71985e-05
-5.77887e-06
-1.87524e-05
-2.18789e-06
-4.4681e-05
6.45901e-07
-4.10441e-05
9.47549e-07
-3.07796e-05
-4.31433e-06
6.41185e-06
-9.01368e-06
3.51687e-05
-1.59723e-05
4.02178e-05
-1.62908e-05
3.30902e-05
-1.17008e-05
4.14739e-05
9.40598e-07
7.51365e-05
-2.45777e-06
0.00010259
-2.16923e-05
5.50728e-05
-3.00521e-05
-1.44472e-05
-3.08913e-05
-4.15528e-05
-3.26774e-05
-2.91708e-05
-2.7042e-05
8.77327e-07
-8.3742e-06
1.26387e-05
1.16566e-05
2.55293e-05
-4.58938e-05
6.02587e-05
-4.84339e-05
0.000115567
-0.000222993
0.000121269
-0.000293675
-1.88604e-05
-0.000279719
-0.000161291
-0.00021201
-0.000160684
-0.000186759
-0.00042113
-3.63126e-05
5.1331e-08
-2.40291e-05
-7.75803e-06
-6.55892e-06
-1.27674e-05
-1.14203e-05
8.31888e-06
-8.23902e-05
3.69924e-05
-0.000111119
2.74486e-05
-0.000142176
1.76782e-05
6.91742e-06
-0.000162142
-0.000243045
6.331e-05
-0.000256201
4.16769e-05
-0.000257056
1.75755e-05
-6.52985e-06
-0.000243644
-0.000340367
7.35716e-05
-0.000346208
3.12056e-05
-0.000318455
-2.2683e-05
-3.79799e-05
-0.00029017
-0.000310067
1.98712e-06
-0.000279613
-2.7475e-05
-0.000235451
-6.69338e-05
-7.25672e-05
-0.000235486
-0.000195269
-7.35795e-05
-0.000186664
-7.69512e-05
-0.000185194
-9.25269e-05
-9.64332e-05
-0.000193776
-0.000184578
-0.00016258
-0.000208799
-7.57039e-05
-0.000235901
-8.83717e-05
-9.8769e-05
-0.000240806
-0.000319805
-0.000161691
-0.000142534
-3.77186e-05
-0.000218116
-4.14476e-05
-6.38594e-05
-0.000184404
-0.000168104
-3.74877e-05
-0.000255954
-1.87727e-05
-0.000246754
-2.29363e-05
-2.94904e-05
-0.000241035
-0.000242209
-4.82019e-06
-0.000248079
-8.80716e-06
-0.000246981
-1.99615e-05
-2.8338e-05
-0.000246815
-0.000286032
-7.89045e-06
-0.000278097
-1.52083e-05
-0.000269821
-2.95282e-05
-3.80372e-05
-0.000260891
-0.000199152
5.73515e-07
-0.000202956
-9.76122e-06
-0.000204495
-2.65439e-05
-3.74857e-05
-0.000205925
-0.000105973
1.33679e-05
-0.00011046
1.28565e-06
-0.000111073
-1.77856e-05
-2.9937e-05
-0.000108459
0.00010903
1.82254e-05
0.000106798
1.12344e-05
9.88452e-05
-2.41923e-06
-1.19308e-05
8.71098e-05
0.000224641
1.55671e-05
0.000225867
1.18425e-05
0.000222536
2.25158e-06
-4.35352e-06
0.000216211
0.000237447
1.81386e-05
0.000260913
1.28907e-05
0.000257794
9.57306e-06
4.78981e-06
0.000252888
0.000234392
0.000234161
0.000228012
0.000232481
-2.15361e-05
-5.80957e-06
-3.16511e-05
-9.23194e-06
-2.6515e-05
-4.86997e-05
-2.35535e-05
-4.37268e-05
-2.67558e-05
-2.7413e-05
-2.25522e-05
1.44749e-06
-3.2757e-05
4.60525e-05
-4.63048e-05
5.0647e-05
-4.70973e-05
3.22588e-05
-3.38932e-05
2.71217e-05
-3.27753e-06
4.43202e-05
1.54193e-05
8.32571e-05
-7.8437e-06
7.91487e-05
-4.58323e-05
2.46358e-05
-6.77399e-05
-1.86732e-05
-7.12918e-05
-2.80902e-05
-6.93367e-05
-2.03405e-05
-4.82236e-05
-3.36484e-05
-5.21484e-05
-0.000150827
-1.67693e-05
-0.000115051
-4.24892e-05
-8.89361e-05
-7.34065e-05
-6.3796e-05
-6.76681e-05
-5.44956e-05
-3.59796e-05
-6.2632e-05
1.01277e-05
-6.0873e-05
4.3983e-05
-6.09e-05
4.8272e-05
-5.89694e-05
2.95725e-05
-4.44258e-05
1.49686e-05
-2.10583e-05
2.22273e-05
5.52336e-06
5.66461e-05
-2.38354e-06
8.66344e-05
-4.08936e-05
6.71874e-05
-7.84236e-05
2.13493e-05
-9.5892e-05
-1.06921e-05
-8.2345e-05
-3.73891e-05
-4.30109e-05
-7.56542e-05
-9.34315e-05
-0.000210571
-4.85906e-05
-0.000176105
-7.56696e-05
-0.000146236
-0.000101909
-0.00012021
-9.24306e-05
-0.000103664
-5.1442e-05
-9.96949e-05
6.90058e-06
-9.15478e-05
3.5867e-05
-8.0788e-05
3.67257e-05
-6.98071e-05
1.89083e-05
-5.56095e-05
1.06018e-06
-3.71616e-05
3.16917e-06
-1.28076e-05
2.99222e-05
-5.50373e-06
7.65548e-05
-1.59206e-05
7.88665e-05
-2.97895e-05
3.61602e-05
-3.62506e-05
-3.61635e-06
-3.70498e-05
-3.81356e-05
-1.9538e-05
-9.42452e-05
-0.000110805
-0.000238275
-0.000100896
-0.000199261
-0.00011458
-0.000177347
-0.000123311
-0.000161934
-0.000107421
-0.000147549
-6.52504e-05
-0.000134569
-4.79312e-06
-0.000117889
2.01296e-05
-9.98534e-05
1.77173e-05
-8.18567e-05
1.07037e-06
-7.02564e-05
-1.11244e-05
-5.93949e-05
-9.93409e-06
-4.55236e-05
1.26024e-05
-3.14289e-05
5.93572e-05
-2.3701e-05
7.09776e-05
-2.10585e-05
3.55952e-05
-1.02145e-05
-1.29514e-05
-3.53778e-06
-4.38889e-05
7.96715e-07
-9.88831e-05
-0.000111084
-0.000229957
-0.000154463
-0.000215115
-0.000134832
-0.000202066
-0.000137146
-0.00018971
-0.000120028
-0.000176109
-7.8808e-05
-0.000157226
-2.27334e-05
-0.000135437
-1.09156e-06
-0.000112422
-5.8987e-06
-9.49086e-05
-1.71946e-05
-8.67829e-05
-2.05946e-05
-8.27222e-05
-1.69914e-05
-7.72337e-05
2.84988e-06
-6.27055e-05
4.28209e-05
-4.17729e-05
5.12165e-05
-2.43509e-05
2.09645e-05
-3.59707e-06
-2.97261e-05
1.09435e-05
-5.61777e-05
1.04583e-05
-9.97409e-05
-0.000103304
-0.000213052
-0.00022719
-0.000236544
-0.000186309
-0.000227523
-0.000157836
-0.000213006
-0.000136429
-0.000195589
-9.75619e-05
-0.000173971
-4.76374e-05
-0.000153889
-2.5736e-05
-0.000138932
-2.24609e-05
-0.000133469
-2.3733e-05
-0.000132653
-2.28975e-05
-0.000133456
-1.80957e-05
-0.000128921
-3.58919e-06
-0.000104005
1.79806e-05
-6.7492e-05
1.79238e-05
-3.10518e-05
-1.14342e-05
-3.62982e-06
-5.61647e-05
1.29571e-05
-7.34482e-05
9.91115e-06
-0.000100487
-9.77154e-05
-0.000244204
-0.000255833
-0.000240217
-0.000222263
-0.000244982
-0.00019783
-0.000239343
-0.000156806
-0.000222731
-0.000115606
-0.000206233
-6.71429e-05
-0.000198042
-4.52936e-05
-0.000196866
-3.74978e-05
-0.000190917
-3.23969e-05
-0.000179875
-3.35969e-05
-0.000165026
-3.21625e-05
-0.000139791
-2.70831e-05
-9.95493e-05
-1.8879e-05
-5.78821e-05
-2.08605e-05
-2.83778e-05
-4.13531e-05
-2.12214e-05
-7.17541e-05
-1.10993e-05
-0.000100301
-5.34904e-06
-0.000129192
-0.00011826
-0.000250555
-0.000152275
-0.000245334
-0.00021046
-0.00024027
-0.000209712
-0.000243461
-0.000182452
-0.000241428
-0.000131594
-0.000223833
-8.29292e-05
-0.000210374
-5.69753e-05
-0.000203165
-5.32327e-05
-0.000189743
-5.71264e-05
-0.000165268
-6.00953e-05
-0.00013808
-5.8021e-05
-0.000109336
-5.457e-05
-7.73834e-05
-5.11754e-05
-5.20026e-05
-5.34572e-05
-4.30913e-05
-7.4284e-05
-4.35019e-05
-0.000131889
-3.85151e-05
-0.000202333
-2.32002e-05
-0.000256792
-0.000209433
-0.00015735
-0.000104362
-0.000204562
-0.000139476
-0.00023008
-0.000180308
-0.000237182
-0.000182306
-0.000241882
-0.000159414
-0.000226407
-0.000110083
-0.00019612
-7.68427e-05
-0.000175813
-6.69062e-05
-0.000160346
-7.32927e-05
-0.000145287
-7.62232e-05
-0.000126291
-7.7935e-05
-0.000105517
-7.99877e-05
-8.5959e-05
-8.49205e-05
-7.50399e-05
-0.000112165
-6.66465e-05
-0.000181004
-5.88839e-05
-0.000314409
-6.12666e-05
-0.000208059
-3.29246e-05
-0.000291286
-0.000355556
-0.000234338
-0.000101716
-0.000154984
-0.000142937
-0.000198582
-0.000126087
-0.000221686
-0.000163446
-0.000230504
-0.000165577
-0.000228847
-0.000148975
-0.000205786
-0.000110571
-0.000178159
-8.91924e-05
-0.00015906
-8.69387e-05
-0.000145194
-9.02083e-05
-0.000134064
-9.51952e-05
-0.000123577
-0.000111283
-0.000117805
-0.000162065
-0.000105147
-0.00028184
-8.50582e-05
-0.000146075
-9.62818e-05
-0.000281926
-0.000116032
-0.000203037
-2.15529e-05
-0.000302591
-0.000359533
-0.000238447
-0.00012662
-0.000209728
-0.000157521
-0.000144496
-0.000147311
-0.000182417
-0.000105602
-0.000200985
-0.000168835
-0.000215333
-0.00017598
-0.000211452
-0.000158849
-0.000193615
-0.000131699
-0.000171285
-0.000117023
-0.000150617
-0.000119823
-0.000138811
-0.000133289
-0.000142058
-0.000193362
-0.000178609
-0.000351473
-0.000187195
-0.000233169
-0.000234214
-6.66377e-05
-0.000144798
-0.000162808
-7.71563e-05
-0.000236178
-4.97009e-05
-0.000272552
-0.000336603
-0.00019402
-0.000137633
-0.000173375
-0.000171411
-0.000151715
-0.000183112
-9.35988e-05
-0.000152603
-0.000134359
-0.000111532
-0.000159197
-0.000141076
-0.000173959
-0.000172236
-0.000174205
-0.000170377
-0.000167978
-0.000162397
-0.000158765
-0.000166577
-0.000181379
-0.000210292
-0.000316145
-0.0002512
-0.000335199
-0.000255912
-0.000246255
-5.36684e-05
-0.000140205
-0.000122844
-6.99747e-05
-0.000249055
-2.91339e-05
-0.00032346
-1.55788e-05
-0.000349722
-0.000353043
-9.86309e-05
-0.000132495
-8.30911e-05
-0.000185315
-7.18364e-05
-0.000188846
-6.34348e-05
-0.000168645
-6.04285e-05
-0.00012171
-0.000104828
-8.58523e-05
-0.000147752
-0.000157696
-0.000155629
-0.000185421
-0.000172297
-0.000202805
-0.000277421
-0.000227716
-0.000380717
-0.000268544
-0.00039766
-0.000139918
-0.000243559
-2.15149e-05
-0.000141078
-6.63796e-05
-8.01664e-05
-0.000205123
-7.94302e-06
-0.000316045
2.21896e-05
-0.000353993
9.24952e-06
-0.000363758
-0.000392646
6.54408e-05
-8.87694e-05
2.977e-05
-0.000143738
-1.0666e-06
-0.000173466
-7.07658e-06
-0.000159746
1.11129e-07
-0.000135162
-5.71169e-05
-8.54495e-05
-0.000135433
-7.56192e-05
-0.000186961
-9.8007e-05
-0.000237667
-0.000120863
-0.000303414
-0.000139561
-0.000238349
-0.000142475
-0.00016907
-2.0492e-05
-0.000146401
-2.61514e-05
-7.23634e-05
-9.59688e-05
-2.07031e-05
-0.000182913
2.64507e-05
-0.000238501
5.11223e-05
-0.000313057
3.10282e-05
-0.000335393
-0.000365093
0.000172897
-4.89835e-05
0.000137581
-9.19914e-05
9.115e-05
-0.000133034
4.82048e-05
-0.000144838
3.71171e-05
-0.000123331
4.31422e-05
-9.57178e-05
4.46734e-05
-7.15131e-05
3.5735e-05
-6.29758e-05
5.08779e-05
-5.64747e-05
8.29628e-05
-4.87902e-05
7.2945e-05
-4.73846e-06
2.09134e-05
2.87129e-05
-5.36285e-06
3.17496e-07
8.87872e-06
-9.28275e-05
3.4111e-05
-0.00021522
4.70272e-05
-0.000302132
5.19061e-05
-0.000303006
3.42342e-05
-0.000276283
-0.000347004
0.000213472
-1.4607e-05
0.00017574
-4.76736e-05
0.000132159
-9.4116e-05
9.13018e-05
-0.000113861
6.89821e-05
-0.000104124
6.06901e-05
-8.34205e-05
5.78123e-05
-6.9136e-05
3.41228e-05
-5.21745e-05
3.08705e-05
-4.45287e-05
4.29919e-05
-5.70193e-05
5.47481e-05
-1.36153e-05
4.92712e-05
3.77394e-05
4.6496e-05
1.11518e-05
6.36936e-05
-0.000100248
8.29007e-05
-0.000227265
7.72785e-05
-0.000299279
4.907e-05
-0.000307014
1.98424e-05
-0.000291524
-0.000335632
0.000220111
0.000188674
0.000146561
0.000101127
8.69181e-05
7.50881e-05
6.11806e-05
3.68081e-05
1.76938e-05
1.60359e-06
2.28466e-05
6.22845e-05
9.98268e-05
0.000128848
0.000130329
0.000108428
7.24117e-05
3.73063e-05
)
;

boundaryField
{
    leftWall
    {
        type            fixedValue;
        value           nonuniform 0();
    }
    rightWall
    {
        type            fixedValue;
        value           uniform 0;
    }
    lowerWall
    {
        type            fixedValue;
        value           uniform 0;
    }
    atmosphere
    {
        type            calculated;
        value           nonuniform 0();
    }
    defaultFaces
    {
        type            empty;
        value           nonuniform 0();
    }
    procBoundary1to0
    {
        type            processor;
        value           nonuniform List<scalar> 
26
(
2.32117e-06
4.34576e-07
-5.17924e-08
3.31286e-08
1.32384e-06
7.65275e-07
9.38515e-06
2.08413e-05
-1.83281e-06
6.95336e-06
0.000126344
0.00015256
0.000209725
0.000232288
0.000222476
0.000209816
-0.000179893
0.000158113
0.000229451
0.000291772
0.000188837
9.47293e-05
-0.000109461
-0.000222327
-0.000219536
-0.000233043
)
;
    }
    procBoundary1to3
    {
        type            processor;
        value           nonuniform List<scalar> 
23
(
1.4312e-05
1.29308e-05
1.09997e-05
7.03857e-06
5.9652e-06
-1.38163e-05
-5.39008e-05
-7.93525e-05
-8.2525e-05
-6.85439e-05
-5.68877e-05
-3.70078e-05
-1.90213e-05
-3.73733e-05
-3.34009e-05
-5.53735e-06
-2.7096e-05
-0.000117319
-0.000220774
-0.00027507
-0.000275271
-0.000247017
-0.000270856
)
;
    }
}


// ************************************************************************* //
