/*--------------------------------*- C++ -*----------------------------------*\
| =========                 |                                                 |
| \\      /  F ield         | OpenFOAM: The Open Source CFD Toolbox           |
|  \\    /   O peration     | Version:  2.4.0                                 |
|   \\  /    A nd           | Web:      www.OpenFOAM.org                      |
|    \\/     M anipulation  |                                                 |
\*---------------------------------------------------------------------------*/
FoamFile
{
    version     2.0;
    format      ascii;
    class       surfaceScalarField;
    location    "0.9";
    object      phi.mercury;
}
// * * * * * * * * * * * * * * * * * * * * * * * * * * * * * * * * * * * * * //

dimensions      [0 3 -1 0 0 0 0];

internalField   nonuniform List<scalar> 
1061
(
-2.33298e-06
-2.79383e-06
-2.74723e-06
-2.84263e-06
-7.46253e-06
-4.77779e-05
-0.000127613
-0.000173307
7.47209e-06
-2.50948e-05
2.02198e-05
-4.77243e-05
2.66623e-05
-5.27788e-05
3.00964e-05
-5.02939e-05
3.19755e-05
-4.81675e-05
3.25908e-05
-4.53141e-05
3.28535e-05
-4.17769e-05
3.40579e-05
-3.82174e-05
3.52971e-05
-3.47771e-05
3.5814e-05
-3.23452e-05
3.42239e-05
-2.83064e-05
3.21701e-05
-1.96188e-05
3.26551e-05
-1.24122e-05
3.20771e-05
-7.7665e-06
2.66917e-05
-7.95815e-08
1.43223e-05
9.18105e-06
7.40537e-07
1.02786e-05
-5.3654e-06
2.9371e-06
-8.36599e-06
8.0612e-06
-0.000128775
1.93734e-05
-0.000145649
2.96018e-05
-0.000108481
3.70763e-05
-5.05225e-05
4.10005e-05
-3.82031e-05
4.21967e-05
-2.1973e-05
4.13846e-05
-1.63121e-05
4.07817e-05
-2.23464e-05
4.05789e-05
-2.46042e-05
3.92199e-05
-2.39813e-05
3.3189e-05
-3.19701e-05
1.96379e-05
-1.72572e-05
1.2596e-05
-9.30082e-06
1.57995e-05
-1.00682e-05
1.95957e-05
-1.88375e-06
1.16475e-05
1.86931e-05
1.46735e-06
2.15034e-05
-5.9296e-06
1.17848e-05
-1.33088e-05
1.43063e-05
-0.000248094
1.2247e-05
-0.000230733
1.74044e-05
-0.000126988
2.62484e-05
-4.72182e-05
3.47625e-05
-3.39542e-05
3.69514e-05
-1.33023e-05
3.94345e-05
2.92459e-06
3.59439e-05
-6.9349e-06
1.39941e-05
-1.02314e-05
-1.73169e-05
-3.20788e-05
-3.6727e-05
-4.42507e-05
-4.34779e-05
-2.85981e-05
-4.12401e-05
-2.65932e-05
-2.86844e-05
-3.26408e-05
-4.35422e-06
-2.9407e-05
6.68145e-06
6.71397e-06
4.36574e-07
2.67297e-05
-2.84497e-06
1.40538e-05
-1.68699e-05
9.33313e-06
-0.000247982
6.93645e-06
-0.000224326
1.23821e-05
-8.06706e-05
2.1144e-05
-4.65891e-05
2.84888e-05
-3.71436e-05
3.07232e-05
-2.06901e-05
2.78947e-05
-5.70155e-06
2.06532e-05
4.57201e-07
-4.38494e-06
2.95097e-06
-3.03294e-05
-2.52126e-05
-3.89117e-05
-4.60355e-05
-4.31143e-05
-3.59088e-05
-4.19258e-05
-4.46043e-05
-3.6434e-05
-5.52603e-05
-2.09364e-05
-4.97689e-05
-4.41905e-06
-9.49327e-06
-7.6004e-07
2.322e-05
-8.31363e-07
1.46717e-05
-1.75522e-05
9.49056e-06
-0.000239143
2.55249e-06
-0.000206422
-1.2675e-06
-6.55268e-05
4.94125e-06
-6.12224e-05
1.27467e-05
-5.32362e-05
1.56895e-05
-2.77137e-05
1.41221e-05
-1.02773e-05
1.18436e-05
-7.10644e-06
3.15662e-06
-3.75137e-06
-1.52237e-05
-1.72929e-06
-2.728e-05
-4.49524e-05
-3.017e-05
-5.11368e-05
-3.21663e-05
-7.49996e-05
-3.24576e-05
-9.45773e-05
-2.9316e-05
-7.54866e-05
-1.50764e-05
-2.81062e-05
-3.6026e-06
1.12938e-05
-3.43001e-07
1.10387e-05
-1.85357e-05
8.13652e-06
-0.000229429
2.93566e-07
-0.000191627
-2.74532e-06
-7.04016e-05
1.84879e-06
-6.85233e-05
9.89941e-06
-6.17701e-05
1.09461e-05
-2.67397e-05
3.47846e-06
5.47763e-06
-2.04419e-06
6.30158e-06
-3.89409e-06
7.6932e-06
-6.19061e-06
1.7555e-05
-1.20904e-05
-6.94907e-06
-1.38972e-05
-5.78373e-05
-1.72615e-05
-9.69702e-05
-2.21588e-05
-0.00012117
-2.53372e-05
-0.000112725
-1.93559e-05
-5.04651e-05
-6.33319e-06
-4.45398e-06
2.01505e-07
3.97776e-06
-1.95223e-05
8.22838e-06
-0.0002246
3.31889e-07
-0.000186914
-4.38312e-06
-6.39356e-05
-2.72106e-06
-6.40085e-05
4.49397e-07
-5.94808e-05
3.48832e-06
-3.14518e-05
-9.48694e-07
1.78057e-06
-7.4436e-06
3.67365e-06
-8.85631e-06
3.29561e-06
-7.01363e-06
1.69192e-05
-5.17523e-06
3.3183e-05
-9.76952e-06
-2.45441e-05
-1.60491e-05
-8.11582e-05
-1.92513e-05
-0.000119014
-2.41044e-05
-0.00013802
-2.2245e-05
-9.07834e-05
-1.13608e-05
-3.38426e-05
-2.67411e-07
-1.56686e-05
-2.86766e-05
7.94804e-06
-0.000225888
-1.42136e-06
-0.000140218
-7.99453e-06
-6.33172e-05
-4.93009e-06
-6.20923e-05
-2.97582e-06
-5.29215e-05
-3.06628e-06
-2.51462e-05
-6.152e-06
1.2813e-05
-1.30568e-05
1.3504e-05
-1.45378e-05
6.68834e-06
-1.14578e-05
1.32283e-05
-3.27495e-06
3.56335e-05
4.26827e-06
2.79502e-05
9.20238e-06
-3.96663e-05
-2.4535e-06
-9.14384e-05
-2.01217e-05
-0.000135077
-2.75595e-05
-0.000135194
-1.81899e-05
-0.000103386
-3.42777e-06
-8.33487e-05
-8.12388e-05
-0.00011734
-1.25368e-05
4.13078e-06
-2.25834e-05
6.95251e-05
-0.000194685
8.73976e-05
-0.000268261
3.21838e-05
-0.000254701
-0.000113622
-0.000215203
-0.000172149
-0.000200698
-0.000233002
-5.96793e-06
-3.4057e-05
5.76613e-07
-4.51844e-05
8.72809e-06
-5.27907e-05
-5.93265e-05
1.61984e-05
-5.81305e-05
2.89439e-05
-0.000100606
1.24717e-05
-0.000138886
-7.73954e-06
-2.86486e-05
-0.000155295
-0.000238148
3.83724e-05
-0.000253189
-2.71701e-06
-0.000251647
-3.39621e-05
-5.70509e-05
-0.00023509
-0.000297805
4.29371e-05
-0.000277302
-1.71597e-05
-0.00024576
-6.95013e-05
-8.25067e-05
-0.00022972
-0.000254013
-1.78164e-05
-0.00022869
-6.33244e-05
-0.000200711
-8.94981e-05
-9.14489e-05
-0.000199506
-0.000187549
-8.21976e-05
-0.00018961
-9.25731e-05
-0.000187253
-6.79713e-05
-6.31889e-05
-0.000192613
-0.000203281
-6.82618e-05
-0.000196496
-4.69377e-05
-0.00022346
-3.93199e-05
-3.46913e-05
-0.00023491
-0.000260203
-9.81389e-06
-0.000315876
1.83693e-05
-0.000324441
-9.69449e-06
-2.00059e-05
-0.000293554
-0.000295253
-1.34878e-05
-0.000262711
-1.32972e-05
-0.000254953
-1.98638e-05
-2.51507e-05
-0.000250976
-0.000243375
-2.60591e-06
-0.000250101
-5.88582e-06
-0.000252763
-1.65056e-05
-2.52486e-05
-0.000252313
-0.000290057
-6.04631e-06
-0.000283489
-1.25208e-05
-0.000273998
-2.59528e-05
-3.40162e-05
-0.000265009
-0.000200134
4.44176e-06
-0.000206366
-6.05032e-06
-0.000210167
-2.2083e-05
-3.19514e-05
-0.000212324
-0.000103772
1.48292e-05
-0.000112175
2.3913e-06
-0.000117946
-1.62829e-05
-2.79182e-05
-0.000121964
0.000111958
1.55422e-05
0.000105978
8.39685e-06
9.54673e-05
-5.74742e-06
-1.5269e-05
8.28415e-05
0.000225962
1.41282e-05
0.000225357
9.00301e-06
0.000220794
-1.18481e-06
-7.93461e-06
0.00021346
0.000259839
1.30917e-05
0.000260608
8.24357e-06
0.000255793
3.6328e-06
-1.4396e-06
0.000249297
0.000249112
0.000251255
0.000249591
0.000244967
-1.56758e-05
-0.000151861
-5.19081e-05
-6.76342e-05
-5.24982e-05
-9.5583e-05
-3.90785e-05
-8.68593e-05
-3.06253e-05
-5.64599e-05
-2.37726e-05
-2.1429e-05
-2.98027e-05
2.0672e-05
-4.11304e-05
2.33554e-05
-4.33991e-05
6.22789e-06
-3.10258e-05
1.02799e-06
-8.50638e-06
1.29881e-05
1.26357e-05
4.31623e-05
2.58914e-05
1.03419e-05
1.47156e-05
-3.23985e-05
-2.42073e-05
-9.14338e-05
-4.29704e-05
-0.000157376
-3.94734e-05
-0.00020553
-2.06492e-05
-0.000228557
-0.000226971
-0.000164719
-0.000105231
-0.000155819
-0.000134103
-0.000131189
-0.000152241
-9.32302e-05
-0.000134907
-6.53959e-05
-7.64485e-05
-5.81727e-05
-1.09812e-05
-5.4567e-05
2.26434e-05
-5.57162e-05
2.31474e-05
-5.54953e-05
3.08242e-06
-4.42058e-05
-1.21851e-05
-2.18622e-05
-7.19906e-06
5.1698e-06
1.93075e-05
1.12287e-05
2.72118e-05
-1.4429e-05
1.82919e-06
-4.0606e-05
-8.21229e-05
-3.20168e-05
-0.000170105
-1.23454e-05
-0.000221048
2.45833e-06
-0.000259015
-0.000248576
-0.000208523
-0.000163396
-0.000189133
-0.000181595
-0.000170995
-0.000187813
-0.000144338
-0.000166605
-0.000113104
-0.000105563
-9.50474e-05
-1.78546e-05
-8.52299e-05
1.30961e-05
-7.60719e-05
1.20564e-05
-6.86901e-05
-7.73062e-06
-5.7645e-05
-2.57088e-05
-3.91852e-05
-2.54463e-05
-1.36131e-05
-5.03303e-06
-3.01887e-06
2.41275e-08
-1.98099e-05
-3.61229e-05
-3.24146e-05
-0.000143348
-2.29366e-05
-0.000218822
-1.16652e-05
-0.000246476
1.31036e-06
-0.000277314
-0.000268037
-0.000209975
-0.000196557
-0.000194926
-0.000197255
-0.00018565
-0.000195603
-0.000174038
-0.000175795
-0.000150345
-0.000125396
-0.000128151
-4.0144e-05
-0.000112063
-5.96469e-06
-9.52722e-05
-7.11215e-06
-8.19512e-05
-2.5713e-05
-7.45653e-05
-4.28847e-05
-6.50605e-05
-5.46945e-05
-5.47247e-05
-5.11298e-05
-5.23409e-05
-8.17581e-05
-5.02113e-05
-0.000130419
-4.26283e-05
-0.00019947
-2.5045e-05
-0.000249782
-1.03589e-05
-0.000270568
-2.8774e-07
-0.000290085
-0.000296939
-0.00020247
-0.00019626
-0.000203354
-0.000186193
-0.000201157
-0.000192493
-0.000192072
-0.000177884
-0.00017232
-0.000137951
-0.000149231
-7.31986e-05
-0.000129927
-3.41409e-05
-0.000110881
-3.44852e-05
-0.000101584
-5.29085e-05
-0.000101946
-7.36659e-05
-0.000101126
-9.96068e-05
-9.28257e-05
-0.000113235
-8.26075e-05
-0.000151397
-6.44037e-05
-0.000181502
-4.83435e-05
-0.000224064
-3.3153e-05
-0.000262255
-1.76084e-05
-0.000279468
-4.4549e-06
-0.000300031
-0.000311777
-0.000206031
-0.000166603
-0.000214383
-0.000208819
-0.000214483
-0.000193983
-0.000205804
-0.000178425
-0.00018867
-0.000148543
-0.000164546
-0.000105403
-0.000150312
-6.96507e-05
-0.000146505
-6.69839e-05
-0.000138372
-8.38412e-05
-0.000133424
-0.000111557
-0.000122562
-0.000140157
-0.000107779
-0.000157485
-9.02161e-05
-0.000175507
-7.11488e-05
-0.000191604
-5.381e-05
-0.000221098
-3.74497e-05
-0.000245814
-2.11388e-05
-0.000257772
-6.99356e-06
-0.000284975
-0.00028624
-0.0001902
-0.000128922
-0.00021955
-0.000154182
-0.000217275
-0.000211095
-0.000214123
-0.000184358
-0.000204438
-0.000156974
-0.000190917
-0.000127501
-0.000183158
-0.000104302
-0.000172177
-0.000103052
-0.000157697
-0.000120443
-0.0001427
-0.000141466
-0.000126746
-0.000158242
-0.000109682
-0.00016943
-9.06325e-05
-0.000175125
-7.34708e-05
-0.000185871
-6.26366e-05
-0.000200781
-5.07732e-05
-0.000219436
-3.14868e-05
-0.000214725
-1.37896e-05
-0.000223617
-0.00022052
-0.000166945
-7.52447e-05
-0.000176809
-0.000103945
-0.000215148
-0.000137691
-0.000213095
-0.000176518
-0.000206157
-0.000162708
-0.000192586
-0.000142554
-0.00017807
-0.000129648
-0.000163672
-0.000131795
-0.000147824
-0.000143128
-0.000135634
-0.000153556
-0.000122807
-0.000158777
-0.000108634
-0.000163334
-9.46332e-05
-0.000170158
-8.22744e-05
-0.00018399
-6.9782e-05
-0.000181032
-5.40704e-05
-0.000180866
-4.24475e-05
-0.000192895
-2.37899e-05
-0.000198009
-0.000194515
-0.000235399
-8.75197e-05
-0.000155982
-0.000126543
-0.000163076
-0.000117873
-0.000202674
-0.000140657
-0.000199305
-0.000162789
-0.000187362
-0.000150237
-0.000167252
-0.000138907
-0.000153111
-0.000137787
-0.000145083
-0.000146147
-0.000138455
-0.000147859
-0.000131673
-0.000150715
-0.00012377
-0.000157928
-0.000112412
-0.000165068
-9.35064e-05
-0.000160213
-7.63384e-05
-0.000149264
-6.21873e-05
-0.000110596
-6.52063e-05
-0.000136022
-3.18295e-05
-0.000146652
-0.000144851
-0.000245058
-9.43751e-05
-0.000234453
-0.000133379
-0.000136228
-0.000142361
-0.000168418
-9.70754e-05
-0.000196384
-0.000122634
-0.000190431
-0.000148771
-0.000177467
-0.000137122
-0.000161233
-0.000133789
-0.000154938
-0.000137202
-0.000150256
-0.000139467
-0.000144163
-0.000145022
-0.000137599
-0.00014825
-0.000125805
-0.00016308
-0.000101304
-0.000121656
-9.09967e-05
-7.55173e-05
-0.000192192
-2.08816e-05
-0.000148387
-0.000122635
-5.30142e-05
-0.00022266
-0.000231188
-0.000241676
-0.000116085
-0.00022464
-0.000149657
-0.000208872
-0.000155407
-0.00013056
-0.000139072
-0.00015922
-9.29596e-05
-0.000196295
-9.8844e-05
-0.00018858
-0.000134862
-0.000179299
-0.000136983
-0.000166525
-0.000133724
-0.000153482
-0.000136067
-0.000142551
-0.000143835
-0.000145878
-0.000160941
-0.00012127
-0.000123404
-0.000196201
-2.03142e-07
-0.000266769
-3.10065e-05
-0.000176272
-0.000120276
-0.000101313
-0.000199414
-5.79569e-05
-0.000270971
-0.000310347
-0.000202771
-0.000125421
-0.000181889
-0.000168981
-0.000155433
-0.000179275
-0.000144397
-0.000149654
-0.000115573
-0.000120637
-0.000116343
-9.49948e-05
-0.000153913
-0.000102226
-0.000169752
-0.000122179
-0.000166798
-0.000138813
-0.000163356
-0.000135033
-0.000165689
-0.000124627
-0.000156023
-0.000112037
-0.000273555
1.38317e-05
-0.000271154
-9.27692e-06
-0.00021056
-8.90343e-05
-0.000141526
-0.000201933
-8.50283e-05
-0.000273559
-4.6313e-05
-0.000314125
-0.000356239
-0.000117562
-0.000130095
-0.00010314
-0.000184817
-8.38263e-05
-0.00020133
-6.43668e-05
-0.000167703
-6.12355e-05
-0.000122231
-6.50154e-05
-8.9131e-05
-0.000103183
-6.93395e-05
-0.00013871
-0.0001004
-0.00016902
-0.000115885
-0.000213808
-0.000124803
-0.000237878
-0.000110788
-0.000252369
-8.28558e-06
-0.000252456
-2.4226e-06
-0.000212402
-4.29341e-05
-0.000136771
-0.000158062
-7.37267e-05
-0.000268307
-3.0002e-05
-0.000315864
-1.92791e-05
-0.000327898
-0.000374096
4.94554e-05
-9.66406e-05
1.12958e-05
-0.000146592
-1.38478e-05
-0.000176198
-7.88296e-06
-0.000174797
2.82567e-06
-0.000135031
3.1579e-06
-8.34672e-05
-6.77696e-06
-6.69938e-05
-2.76369e-05
-7.28106e-05
-8.23589e-05
-4.54309e-05
-0.000136934
-1.5784e-05
-0.000164354
-1.74052e-05
-0.000161516
-1.39371e-05
-0.000143736
-2.10959e-05
-9.21448e-05
-8.59578e-05
-4.62091e-05
-0.000201907
-1.63163e-05
-0.000298995
3.80463e-06
-0.000336125
3.46182e-06
-0.000327368
-0.000370395
0.000174128
-5.73082e-05
0.000124103
-9.65619e-05
8.10316e-05
-0.000133139
4.85811e-05
-0.000142359
3.81881e-05
-0.000124744
4.33068e-05
-9.51687e-05
4.28276e-05
-7.11254e-05
3.96155e-05
-6.19771e-05
5.17009e-05
-5.32038e-05
8.42913e-05
-4.25928e-05
7.14382e-05
1.70809e-06
2.78324e-05
2.87669e-05
-7.22161e-07
3.38e-06
6.04244e-06
-8.99295e-05
2.39573e-05
-0.000218133
3.22094e-05
-0.000306619
2.75504e-05
-0.000331724
1.82958e-05
-0.00031966
-0.000352285
0.000213702
-2.17232e-05
0.000166737
-4.96023e-05
0.000126083
-9.25007e-05
9.50585e-05
-0.000111358
7.28266e-05
-0.000102528
6.05317e-05
-8.28647e-05
5.72849e-05
-6.87613e-05
3.74514e-05
-5.27212e-05
3.50243e-05
-4.30968e-05
4.20203e-05
-5.3296e-05
6.02306e-05
-1.09686e-05
5.6154e-05
3.89761e-05
5.06307e-05
1.16394e-05
6.48451e-05
-0.000103669
7.88449e-05
-0.000230979
7.48584e-05
-0.000301182
5.06241e-05
-0.000307558
2.11089e-05
-0.000291748
-0.000332087
0.000220765
0.000184302
0.000144882
0.000111103
8.97815e-05
7.4875e-05
6.19158e-05
3.79803e-05
2.44064e-05
5.66266e-06
2.53813e-05
6.87672e-05
0.000108974
0.000126363
0.000126886
0.000105832
7.46912e-05
3.72057e-05
)
;

boundaryField
{
    leftWall
    {
        type            fixedValue;
        value           nonuniform 0();
    }
    rightWall
    {
        type            fixedValue;
        value           uniform 0;
    }
    lowerWall
    {
        type            fixedValue;
        value           uniform 0;
    }
    atmosphere
    {
        type            calculated;
        value           nonuniform 0();
    }
    defaultFaces
    {
        type            empty;
        value           nonuniform 0();
    }
    procBoundary1to0
    {
        type            processor;
        value           nonuniform List<scalar> 
26
(
2.33296e-06
4.60852e-07
-4.66104e-08
7.68203e-08
1.3298e-06
8.26919e-07
1.02297e-05
9.21471e-06
-8.49642e-06
-8.78196e-06
7.98607e-05
0.000123371
0.000228495
0.000296682
0.000219733
0.000206864
-0.000102037
0.000284283
0.000234148
0.000293395
0.000189917
9.34436e-05
-0.000112647
-0.000224544
-0.000258774
-0.000244118
)
;
    }
    procBoundary1to3
    {
        type            processor;
        value           nonuniform List<scalar> 
23
(
8.09206e-06
6.10072e-06
5.30136e-06
3.20398e-06
2.49624e-06
-1.31259e-05
-5.30582e-05
-7.75882e-05
-8.12159e-05
-6.79701e-05
-5.65665e-05
-3.70531e-05
-1.86875e-05
-3.31062e-05
-3.40272e-05
-7.88651e-06
-2.99566e-05
-0.000122622
-0.000227679
-0.000278216
-0.00027568
-0.000255724
-0.000295746
)
;
    }
}


// ************************************************************************* //
