/*--------------------------------*- C++ -*----------------------------------*\
| =========                 |                                                 |
| \\      /  F ield         | OpenFOAM: The Open Source CFD Toolbox           |
|  \\    /   O peration     | Version:  2.4.0                                 |
|   \\  /    A nd           | Web:      www.OpenFOAM.org                      |
|    \\/     M anipulation  |                                                 |
\*---------------------------------------------------------------------------*/
FoamFile
{
    version     2.0;
    format      ascii;
    class       surfaceScalarField;
    location    "0.9";
    object      phi.air;
}
// * * * * * * * * * * * * * * * * * * * * * * * * * * * * * * * * * * * * * //

dimensions      [0 3 -1 0 0 0 0];

internalField   nonuniform List<scalar> 
1061
(
-2.33296e-06
-2.79383e-06
-2.74719e-06
-2.80145e-06
-3.32598e-06
-1.4189e-05
-6.32826e-05
-4.23389e-05
7.88819e-06
5.48925e-05
2.03844e-05
3.37966e-05
2.67252e-05
1.78611e-06
3.00682e-05
-1.52762e-05
3.18587e-05
-1.54887e-05
3.23133e-05
-1.41307e-05
3.25747e-05
-1.2125e-05
3.39479e-05
1.04941e-05
3.51377e-05
8.21762e-05
3.51332e-05
0.000116752
3.20624e-05
0.000138054
3.06345e-05
0.000126394
3.23741e-05
9.41808e-05
3.20334e-05
6.92351e-05
2.65891e-05
3.236e-05
1.19906e-05
1.59871e-05
3.73528e-07
2.93121e-05
-5.62962e-06
1.78415e-05
1.27682e-06
1.4133e-05
0.000105487
2.92525e-05
-0.000215557
3.32047e-05
-9.62076e-05
3.88552e-05
-3.86524e-05
4.11794e-05
-2.99958e-05
4.06927e-05
-2.14896e-05
3.8084e-05
-1.83865e-05
2.9745e-05
-5.63616e-05
2.54445e-05
-0.000182788
1.77973e-05
-0.000223923
1.026e-05
-0.000170931
5.21635e-07
1.26937e-05
4.11589e-06
3.22605e-05
9.84097e-06
9.01682e-06
1.66853e-05
7.24105e-06
9.92924e-06
2.6253e-05
1.20164e-06
2.68268e-05
-6.39569e-06
1.80187e-05
-8.81049e-06
5.41271e-06
3.88804e-05
9.18128e-06
0.000117037
2.02115e-05
0.000209714
2.7722e-05
4.29027e-05
3.45131e-05
2.35166e-05
3.88074e-05
3.07388e-05
3.57061e-05
3.68075e-05
3.09552e-05
4.21727e-05
8.26612e-06
0.000244251
-1.85913e-05
0.000310079
-4.22779e-05
0.000237025
-6.35215e-05
0.000137524
-5.18062e-05
9.25259e-05
-3.19404e-05
1.73173e-05
-5.65078e-06
-1.1938e-05
3.77585e-06
1.94917e-05
9.84058e-09
3.41558e-05
-3.22727e-06
2.39618e-05
-9.30955e-06
2.24143e-05
4.32845e-05
3.48291e-05
3.54432e-06
3.12083e-05
-7.68159e-05
2.97517e-05
-6.59326e-05
3.20872e-05
-4.30163e-05
3.01642e-05
-3.53939e-05
2.46206e-05
-1.15773e-05
5.82431e-06
-9.05444e-06
-5.12908e-06
-7.50874e-05
-2.54039e-05
-3.44275e-05
-3.66892e-05
4.2473e-05
-5.03475e-05
4.28166e-05
-4.761e-05
2.21132e-05
-3.81855e-05
-3.36303e-05
-2.17657e-05
-4.05982e-05
-5.86301e-06
-5.22586e-06
-1.07835e-06
2.92504e-05
-1.16591e-06
2.00567e-05
-1.13815e-05
-1.94814e-06
1.34467e-05
-1.99475e-07
3.66749e-05
2.44334e-06
4.62212e-05
8.175e-06
9.16491e-06
1.4538e-05
2.25444e-05
1.43515e-05
3.5997e-05
9.75483e-06
4.35796e-05
8.47827e-06
4.39278e-05
1.72562e-06
3.97182e-05
-4.74859e-06
0.000142701
-1.64385e-05
8.8897e-05
-2.98899e-05
1.09471e-05
-3.41639e-05
-4.6507e-05
-3.34448e-05
-5.57765e-05
-3.08644e-05
-3.77e-05
-1.61456e-05
-1.48048e-05
-4.05221e-06
1.55434e-05
-7.54824e-07
1.73357e-05
-1.01683e-05
-5.6544e-06
1.34129e-06
1.39349e-05
2.46597e-05
9.41557e-06
5.86801e-06
1.18901e-05
-8.63414e-06
1.76497e-05
-3.77931e-05
9.35071e-06
-8.30254e-06
-1.13728e-06
5.52545e-06
-5.34556e-06
1.10951e-05
-6.3353e-06
1.91995e-05
-4.74445e-06
3.96059e-05
-6.58441e-06
7.9293e-05
-1.57998e-05
4.04831e-05
-2.46685e-05
-2.51248e-05
-2.46023e-05
-6.17158e-05
-2.98215e-05
-5.84838e-05
-2.19559e-05
2.06886e-05
-6.67263e-06
1.41143e-05
-2.38112e-07
6.97007e-06
-1.17977e-05
2.23766e-06
3.0291e-05
1.28908e-05
3.02487e-05
1.28812e-05
1.51147e-05
1.29679e-05
3.89533e-05
-2.8111e-06
6.50123e-05
3.44352e-06
8.5463e-05
-5.11447e-06
4.16443e-05
-9.59408e-06
3.22079e-05
-9.39375e-06
4.77486e-05
-6.47677e-06
9.50684e-05
-1.63647e-07
8.53524e-05
-9.61076e-06
8.25899e-05
-2.41019e-05
1.3986e-05
-2.09397e-05
-7.79909e-06
-2.84743e-05
-1.76459e-05
-3.458e-05
-6.99889e-06
-1.26972e-05
6.03034e-05
-4.56045e-07
2.63173e-05
-3.02898e-06
2.83034e-06
9.25061e-06
1.48898e-05
2.24447e-05
1.38474e-05
4.01739e-06
1.35742e-05
1.70774e-05
1.47332e-05
2.84904e-05
-1.11396e-05
8.73302e-06
-1.02425e-05
3.66293e-05
-1.82192e-05
4.24697e-05
-2.10926e-05
7.83003e-05
-1.35177e-05
0.000100986
9.95674e-07
0.000125123
-1.26917e-06
0.000142506
-1.72121e-05
5.74918e-05
-2.42861e-05
-2.27983e-06
-1.57904e-05
-1.62413e-05
-3.76687e-05
-4.69227e-05
-3.52743e-05
-4.80107e-05
-8.57541e-06
-7.72322e-06
-1.72812e-05
2.14702e-05
-5.27382e-05
6.32858e-05
-0.000127993
0.000283301
-0.000335775
0.000279878
-0.000457802
0.000197958
-0.000425755
4.34816e-05
-0.000281249
-6.5716e-05
-9.93255e-05
-0.000269881
-5.59359e-05
6.29725e-05
-2.80494e-05
7.42279e-05
9.88884e-06
7.16996e-05
4.82037e-05
6.36022e-05
-0.000135371
9.06645e-07
-0.000138295
-2.88821e-05
-0.000164152
-4.46353e-05
-2.45173e-05
-0.000206265
-0.000325782
0.000108363
-0.000284148
0.000105873
-0.000175472
8.55973e-05
5.36028e-05
-0.000201795
-0.000334328
0.000186997
-0.000348038
0.000128139
-0.00033979
6.9084e-05
2.50185e-05
-0.000306637
-0.000315851
7.13684e-05
-0.000251451
3.28806e-05
-0.000279212
-1.23914e-05
1.04722e-05
-0.000298009
-0.000201484
-1.36308e-05
-0.000162365
-1.72384e-05
-0.000205132
5.4145e-06
2.83558e-06
-0.000248172
-0.000116801
1.04476e-06
-0.000158464
9.43687e-06
-0.000176592
1.1487e-05
1.18607e-05
-0.000199525
-0.000333294
3.32934e-05
-0.000346972
1.95518e-05
-0.000324607
-1.15548e-05
-2.05442e-05
-0.000292628
-0.00029568
-1.17345e-05
-0.000263514
-1.26177e-05
-0.000255764
-1.93055e-05
-2.47168e-05
-0.000251591
-0.000243521
-2.46629e-06
-0.000250309
-5.83033e-06
-0.000253114
-1.65002e-05
-2.51326e-05
-0.000252698
-0.000290186
-5.74568e-06
-0.000283739
-1.22775e-05
-0.000274343
-2.58963e-05
-3.41356e-05
-0.00026534
-0.000200139
4.49361e-06
-0.000206397
-6.01973e-06
-0.00021023
-2.20628e-05
-3.19448e-05
-0.000212421
-0.000103764
1.48308e-05
-0.000112176
2.39273e-06
-0.000117959
-1.628e-05
-2.79156e-05
-0.000121988
0.000111967
1.55293e-05
0.000105977
8.38336e-06
9.54572e-05
-5.76059e-06
-1.52814e-05
8.2823e-05
0.000225968
1.41179e-05
0.000225358
8.99403e-06
0.000220788
-1.19157e-06
-7.94123e-06
0.000213448
0.000259849
1.30813e-05
0.000260609
8.23436e-06
0.00025579
3.62702e-06
-1.4421e-06
0.000249291
0.000249139
0.000251284
0.000249618
0.000244976
-1.86837e-05
9.03887e-05
1.59868e-05
6.69709e-05
1.42829e-05
1.09842e-05
7.13393e-06
2.81916e-05
-3.08502e-05
5.44981e-05
-2.40339e-05
0.000114436
-4.27313e-05
7.62657e-05
-6.29416e-05
0.000121249
-5.36277e-05
8.77359e-05
-3.70479e-05
7.96183e-05
6.90778e-06
9.99455e-05
3.58512e-05
0.000133712
-7.47056e-06
0.000116988
-4.00646e-05
3.95363e-05
-5.852e-05
5.80494e-06
-5.50632e-05
4.52197e-05
-7.22012e-05
1.98664e-05
-6.71987e-05
-0.000105919
-0.000141642
-0.000175917
-1.40592e-05
-7.69566e-05
1.75569e-05
-3.97859e-05
-4.80124e-06
-2.98866e-05
4.84038e-06
-3.32405e-05
3.86643e-05
-9.07148e-05
6.51158e-05
-8.96372e-05
0.000103171
-8.42192e-05
0.000124873
-6.3514e-05
8.62744e-05
-4.22609e-05
7.05533e-05
-2.00269e-05
8.01416e-05
9.70725e-06
0.000119616
-1.63353e-05
0.000161945
-3.25175e-05
9.37906e-05
-6.24447e-05
5.28748e-05
-9.90815e-05
5.74939e-05
-0.000100604
3.31745e-05
-2.82031e-05
-0.000114686
-0.000148391
-0.000191894
7.10949e-05
-0.000151386
-1.89851e-05
-0.000112638
-7.3477e-05
-8.58004e-05
-4.11792e-05
-0.000100383
1.8494e-05
-0.00012991
7.71163e-05
-0.000120996
0.000100309
-0.000104433
9.1737e-05
-6.83311e-05
6.40308e-05
-5.00639e-05
2.61078e-05
-3.28406e-05
5.7597e-05
-1.35447e-05
9.3218e-05
-1.85557e-05
0.000140037
-7.56321e-06
0.000117897
-2.03254e-05
2.32721e-05
-2.2009e-05
-2.97172e-05
-3.19546e-05
-7.85769e-05
-1.31445e-05
-0.000137866
-0.000166723
-0.00023215
5.52514e-06
-0.000192333
-1.04786e-05
-0.00017565
-0.000105076
-0.000157035
-0.000108035
-0.000155391
-5.33019e-05
-0.000164812
2.45175e-05
-0.000133795
5.23579e-05
-9.93706e-05
1.53735e-05
-8.12464e-05
-5.27149e-06
-6.39168e-05
-1.68765e-05
-4.79821e-05
2.24448e-05
-5.49904e-05
7.98399e-05
-6.2144e-05
0.000120167
-2.62568e-05
0.000121947
-2.28607e-05
1.36757e-06
-1.23244e-05
-5.56356e-05
-4.25526e-06
-9.21917e-05
-2.93581e-07
-0.000123467
-0.000149907
-0.000249415
4.57919e-05
-0.00021173
-2.76853e-05
-0.000199822
-4.50567e-05
-0.000189456
-6.26972e-05
-0.000176219
-2.96645e-05
-0.000156678
3.28069e-05
-0.000134059
4.98272e-05
-0.000111019
2.39604e-05
-9.46333e-05
-1.99555e-05
-8.37495e-05
-2.5596e-05
-6.91595e-05
-1.2326e-05
-9.69052e-05
4.59486e-05
-0.000101984
8.50692e-05
-4.62125e-05
8.03022e-05
-2.77247e-05
-1.87809e-05
-8.72117e-06
-6.80881e-05
8.43994e-06
-3.97884e-05
7.08939e-06
-8.71895e-05
-7.8592e-05
-0.000252855
-6.68632e-05
-0.000264923
-6.73033e-06
-0.000240599
-4.95056e-05
-0.000227896
-6.59971e-05
-0.000224159
-2.38361e-05
-0.000210549
3.14181e-05
-0.000180453
6.0283e-05
-0.000142989
5.52391e-05
-0.000133757
2.55968e-05
-0.000132669
-2.5603e-05
-0.000131003
-3.12479e-05
-0.000129367
-2.43952e-05
-0.000114448
1.79026e-06
-6.82508e-05
1.33824e-05
-3.32159e-05
1.34194e-05
3.83257e-06
-2.10192e-06
2.80344e-05
1.05306e-05
1.23216e-05
-7.51529e-06
-5.29551e-06
-0.000305158
-1.86886e-05
-0.000281545
-0.00014078
-0.000284264
-0.00011574
-0.000268146
-6.98555e-05
-0.000256462
-7.02996e-05
-0.000242012
-1.24652e-05
-0.00022466
2.7597e-05
-0.000227317
4.79547e-05
-0.000186595
4.36461e-05
-0.000175274
1.96925e-05
-0.000159692
-2.57965e-05
-0.000135596
-4.04674e-05
-9.71167e-05
-2.99963e-05
-4.60463e-05
1.97906e-05
4.87057e-07
5.24025e-05
-1.17936e-05
2.80884e-05
1.93179e-05
1.98656e-05
-4.92605e-06
-1.1125e-05
-1.8348e-05
-0.000242945
-7.22628e-05
-0.00028147
-0.000119515
-0.000285251
-0.000168999
-0.000300146
-0.000133812
-0.000285429
-5.69434e-05
-0.00026212
-2.78208e-05
-0.000243936
9.60741e-06
-0.000231086
1.55269e-05
-0.000205211
1.70629e-05
-0.000159535
1.76016e-05
-0.000134022
2.24474e-06
-0.000108191
-1.53742e-05
-6.51983e-05
3.01492e-05
-2.02738e-05
4.85883e-05
-1.27884e-05
5.07637e-05
-2.63662e-05
2.20945e-05
-2.90018e-05
-1.69759e-05
-2.52236e-05
-5.3615e-05
-7.53801e-05
-0.00023738
-8.64892e-05
-0.000232573
-0.000125255
-0.000265469
-0.000145395
-0.000298349
-0.000147166
-0.00030661
-0.000110126
-0.000254357
-3.90524e-05
-0.00022546
-2.22113e-05
-0.000191233
7.80188e-06
-0.000165789
8.13463e-08
-0.000139981
-1.08707e-05
-0.000112894
-9.13377e-06
-8.36583e-05
2.46985e-06
-5.00491e-05
7.33493e-06
-4.47256e-05
9.75764e-06
-4.09442e-05
-1.38905e-05
-4.43131e-05
-4.0626e-05
-7.73302e-05
-6.20205e-05
-6.57194e-05
-0.000133417
-0.000189585
-0.00024537
-9.3818e-05
-0.000237877
-0.000132767
-0.000241818
-0.000142384
-0.000259485
-0.000140224
-0.000277266
-0.000134672
-0.000273942
-8.14394e-05
-0.000223472
-3.63063e-05
-0.000187103
-3.30636e-05
-0.000158405
-2.62703e-05
-0.000132363
-2.40123e-05
-0.000106628
-1.91691e-05
-9.58833e-05
-2.99521e-05
-7.91949e-05
-4.55854e-05
-8.9918e-05
-4.07073e-05
-0.000166477
-1.76857e-07
-0.000213418
-3.30476e-05
-0.000149013
-0.000131147
-5.57112e-05
-0.000229068
-0.000251694
-0.000242236
-0.000116922
-0.000225052
-0.000149951
-0.000212425
-0.000155022
-0.000213056
-0.000140331
-0.000236404
-0.000121531
-0.000249862
-0.000110194
-0.000238902
-8.59096e-05
-0.000203391
-4.70584e-05
-0.000165539
-5.79034e-05
-0.000126676
-6.30098e-05
-0.000118624
-6.48858e-05
-0.000107506
-7.16155e-05
-0.000184254
-1.9733e-05
-0.000294282
3.2215e-05
-0.000266396
-2.96807e-05
-0.00017666
-0.000122795
-0.000101543
-0.000206263
-5.80481e-05
-0.000272563
-0.000309742
-0.000203646
-0.000125698
-0.000183032
-0.000170565
-0.000155885
-0.000182169
-0.000145624
-0.000150586
-0.000147453
-0.000120348
-0.00017008
-9.81042e-05
-0.000202833
-9.03887e-05
-0.000187924
-0.000106616
-0.00016531
-9.066e-05
-0.000136011
-0.000105141
-0.000154103
-7.45336e-05
-0.000260567
-3.57445e-06
-0.000312395
1.8536e-05
-0.000271462
-8.77389e-06
-0.000215932
-8.52108e-05
-0.000147203
-0.000191524
-8.59396e-05
-0.000267525
-4.54951e-05
-0.000313006
-0.000355237
-0.000117606
-0.00013008
-0.00010341
-0.000184761
-8.42554e-05
-0.000201324
-6.59105e-05
-0.000168931
-6.18338e-05
-0.000124425
-7.05557e-05
-8.94693e-05
-9.31666e-05
-7.17989e-05
-0.00013494
-8.07267e-05
-0.000165451
-8.58688e-05
-0.0002169
-6.88909e-05
-0.00027568
-4.08874e-05
-0.000272897
-9.70176e-06
-0.000252224
-2.13982e-06
-0.000218672
-4.23259e-05
-0.000150129
-0.000153755
-7.69144e-05
-0.000264739
-3.15484e-05
-0.000312891
-1.83627e-05
-0.000326191
-0.000373599
4.94066e-05
-9.66632e-05
1.12481e-05
-0.000146603
-1.38655e-05
-0.00017621
-8.01991e-06
-0.000174776
2.69046e-06
-0.000135135
3.27736e-06
-9.00552e-05
-5.7544e-07
-6.79835e-05
-1.29592e-05
-6.97739e-05
-6.90011e-05
-3.57194e-05
-0.000139635
-6.55501e-06
-0.000167718
-1.35961e-05
-0.000161928
-1.54926e-05
-0.000143413
-2.06553e-05
-0.000100114
-8.56249e-05
-5.26333e-05
-0.000201236
-1.96795e-05
-0.000297695
1.96969e-06
-0.000334542
3.53798e-06
-0.000327759
-0.000370061
0.000174103
-5.73175e-05
0.000124062
-9.65623e-05
8.09906e-05
-0.000133138
4.85692e-05
-0.000142354
3.81738e-05
-0.00012474
4.32479e-05
-9.51293e-05
4.6502e-05
-7.12377e-05
4.01857e-05
-6.34607e-05
5.56043e-05
-5.11515e-05
9.05398e-05
-4.15032e-05
7.51052e-05
1.83758e-06
2.61397e-05
3.34728e-05
-4.74534e-07
5.95902e-06
3.91955e-06
-9.0019e-05
2.10667e-05
-0.000218383
2.94636e-05
-0.000306091
2.62139e-05
-0.000331292
1.80036e-05
-0.000319549
-0.000352057
0.000213688
-2.17142e-05
0.000166714
-4.95885e-05
0.000126052
-9.24769e-05
9.50455e-05
-0.000111347
7.28274e-05
-0.000102521
6.05573e-05
-8.28591e-05
5.80468e-05
-6.87272e-05
4.67706e-05
-5.21845e-05
3.64816e-05
-4.08626e-05
4.77664e-05
-5.27881e-05
6.06412e-05
-1.10373e-05
5.61611e-05
3.7953e-05
5.07954e-05
1.13247e-05
6.41173e-05
-0.000103341
7.72224e-05
-0.000231488
7.23519e-05
-0.000301221
4.83177e-05
-0.000307258
2.0082e-05
-0.000291313
-0.000331975
0.000220765
0.000184291
0.000144862
0.000111093
8.97816e-05
7.48869e-05
6.27186e-05
4.79408e-05
2.37707e-05
5.03003e-06
2.61581e-05
6.88919e-05
0.000107577
0.000128983
0.000125922
0.000103847
7.22866e-05
3.63245e-05
)
;

boundaryField
{
    leftWall
    {
        type            fixedValue;
        value           nonuniform 0();
    }
    rightWall
    {
        type            fixedValue;
        value           uniform 0;
    }
    lowerWall
    {
        type            fixedValue;
        value           uniform 0;
    }
    atmosphere
    {
        type            calculated;
        value           nonuniform 0();
    }
    defaultFaces
    {
        type            empty;
        value           nonuniform 0();
    }
    procBoundary1to0
    {
        type            processor;
        value           nonuniform List<scalar> 
26
(
2.33297e-06
4.60865e-07
-4.65916e-08
7.68401e-08
1.32899e-06
7.43705e-07
9.97109e-06
1.86914e-05
-1.02417e-05
6.6114e-05
0.000322868
0.000303591
0.000405851
0.000442942
0.000224816
0.000241409
-2.84705e-05
0.000340697
0.000234253
0.000293466
0.0001899
9.34264e-05
-0.000112666
-0.000224557
-0.000258813
-0.000244139
)
;
    }
    procBoundary1to3
    {
        type            processor;
        value           nonuniform List<scalar> 
23
(
8.08129e-06
6.08906e-06
5.29322e-06
3.2001e-06
2.49682e-06
-1.31145e-05
-5.3048e-05
-7.75787e-05
-8.12097e-05
-6.79644e-05
-5.6559e-05
-3.74068e-05
-1.66926e-05
-3.40475e-05
-3.21654e-05
-4.78078e-06
-2.73604e-05
-0.000124747
-0.000228427
-0.000279146
-0.000275698
-0.000255351
-0.000295651
)
;
    }
}


// ************************************************************************* //
