/*--------------------------------*- C++ -*----------------------------------*\
| =========                 |                                                 |
| \\      /  F ield         | OpenFOAM: The Open Source CFD Toolbox           |
|  \\    /   O peration     | Version:  2.4.0                                 |
|   \\  /    A nd           | Web:      www.OpenFOAM.org                      |
|    \\/     M anipulation  |                                                 |
\*---------------------------------------------------------------------------*/
FoamFile
{
    version     2.0;
    format      ascii;
    class       surfaceScalarField;
    location    "0.9";
    object      phi.water;
}
// * * * * * * * * * * * * * * * * * * * * * * * * * * * * * * * * * * * * * //

dimensions      [0 3 -1 0 0 0 0];

internalField   nonuniform List<scalar> 
1061
(
-2.33249e-06
-2.79179e-06
-2.53518e-06
2.00861e-05
3.19432e-05
2.93784e-05
-1.05648e-05
-3.01669e-05
1.19486e-05
2.56744e-05
2.25666e-05
1.10399e-05
2.70783e-05
1.94311e-05
2.96771e-05
2.57709e-05
3.15246e-05
3.16624e-05
3.19883e-05
3.60874e-05
3.17479e-05
3.60419e-05
3.2966e-05
3.429e-05
3.40638e-05
3.43592e-05
3.32337e-05
3.68749e-05
2.89758e-05
4.33287e-05
2.73712e-05
4.92871e-05
2.8754e-05
4.48947e-05
2.82256e-05
4.68788e-05
2.44665e-05
4.90462e-05
1.27751e-05
5.04804e-05
2.59397e-07
3.84725e-05
-5.43392e-06
1.65925e-05
6.67271e-06
1.51921e-05
8.01531e-06
2.67174e-05
-2.23267e-05
3.40482e-05
-1.8139e-05
3.97984e-05
-1.33131e-05
4.11091e-05
-5.71752e-06
3.93811e-05
-3.12429e-07
3.68761e-05
-6.24765e-07
3.60099e-05
-3.16954e-06
3.61183e-05
-2.5786e-06
3.42273e-05
3.03635e-06
2.7007e-05
1.39184e-05
1.35118e-05
3.38499e-05
9.28688e-06
2.91585e-05
1.19711e-05
2.21459e-05
1.47366e-05
2.57654e-05
6.00402e-06
4.64605e-05
4.57568e-07
4.05659e-05
-6.53449e-06
1.84618e-05
-6.62298e-07
1.54449e-05
-6.32365e-05
1.66467e-05
-5.15757e-05
2.10331e-05
-3.2457e-05
2.78445e-05
-2.66843e-05
3.48641e-05
-1.92014e-05
3.93021e-05
-1.07219e-05
3.73352e-05
-2.66048e-06
3.26707e-05
-2.56985e-06
2.45349e-05
-2.46868e-07
8.51997e-06
1.10583e-05
-1.94917e-05
3.34096e-05
-4.23199e-05
4.89306e-05
-4.30222e-05
2.98055e-05
-2.95881e-05
1.59681e-05
-6.19532e-06
1.18866e-05
1.84444e-06
4.36233e-05
-8.48138e-07
4.41546e-05
-3.18612e-06
2.48722e-05
-1.84823e-07
8.98046e-06
-0.00010823
1.13579e-05
-6.31654e-05
1.83396e-05
-4.31589e-05
2.65384e-05
-4.21462e-05
3.18427e-05
-3.52799e-05
3.08751e-05
-1.80901e-05
2.62476e-05
6.18927e-06
1.83331e-05
9.77446e-06
8.37556e-06
1.39491e-05
-5.23109e-06
2.89862e-05
-2.63934e-05
5.82875e-05
-4.26177e-05
5.91084e-05
-4.28227e-05
1.84259e-05
-3.77482e-05
2.70177e-07
-2.45641e-05
-1.44673e-05
-9.54244e-06
1.54044e-05
-1.48086e-06
3.06834e-05
-1.10331e-06
2.24514e-05
-7.03872e-08
4.46757e-07
-9.55592e-05
-5.57533e-06
-5.55883e-05
-3.30353e-08
-5.14103e-05
7.37055e-06
-5.5616e-05
1.50119e-05
-4.84822e-05
1.56163e-05
-2.47819e-05
1.21476e-05
-1.83716e-06
9.92705e-06
7.34447e-06
6.20701e-06
1.46822e-05
-1.76201e-07
3.33906e-05
-1.66713e-05
7.26863e-05
-3.35876e-05
6.74723e-05
-3.82421e-05
1.34571e-05
-3.44805e-05
-1.83573e-05
-3.07418e-05
-1.94204e-05
-1.84065e-05
-1.39535e-06
-4.03688e-06
1.64654e-05
-5.73189e-07
1.92698e-05
-1.687e-06
1.62425e-07
-7.52726e-05
-5.42373e-06
-5.19684e-05
-4.07456e-07
-5.9203e-05
4.49289e-06
-6.19593e-05
1.2904e-05
-5.64065e-05
1.09725e-05
-2.95738e-05
1.96878e-06
9.71356e-06
-3.54151e-06
1.50218e-05
-4.91021e-06
1.82339e-05
-3.49352e-06
3.327e-05
-5.65131e-06
7.43819e-05
-1.95296e-05
7.59012e-05
-3.329e-05
1.86469e-05
-3.2219e-05
-3.24316e-05
-3.03193e-05
-4.0869e-05
-1.93038e-05
-9.31753e-06
-6.40029e-06
1.7123e-05
1.33678e-08
1.66095e-05
3.22018e-06
2.56974e-06
-6.71839e-05
-4.81245e-06
-4.89556e-05
-2.92246e-06
-6.43169e-05
-1.0777e-06
-6.36803e-05
1.13517e-06
-5.53871e-05
3.93533e-06
-2.33803e-05
-2.21059e-06
6.02112e-06
-8.85528e-06
1.74159e-05
-9.26696e-06
1.76862e-05
-6.26075e-06
2.98949e-05
-6.53726e-07
6.87932e-05
-1.11887e-05
8.47893e-05
-2.84076e-05
3.39284e-05
-2.96007e-05
-3.30347e-05
-3.20285e-05
-5.41693e-05
-2.84156e-05
-3.03172e-05
-1.42577e-05
1.21698e-05
-1.60847e-06
1.56904e-05
1.08691e-05
3.82938e-06
-6.41056e-05
-6.22991e-06
-4.45824e-05
-9.05013e-06
-6.94062e-05
-5.95189e-06
-6.78179e-05
-2.75431e-06
-5.60294e-05
-4.89704e-06
-1.96978e-05
-8.77737e-06
1.62146e-05
-1.46902e-05
2.29253e-05
-1.54655e-05
1.86672e-05
-1.14892e-05
2.51648e-05
-3.26987e-07
5.68518e-05
-2.16925e-06
8.69953e-05
-1.76532e-05
5.16764e-05
-2.68473e-05
-2.0685e-05
-3.04544e-05
-5.46258e-05
-3.37304e-05
-4.31512e-05
-2.76216e-05
-7.60059e-06
-9.67921e-06
5.88119e-06
6.94963e-06
9.26401e-06
-2.98732e-05
3.75367e-05
-1.83835e-05
7.29594e-05
-0.00012812
6.65746e-05
-0.000174353
-4.11038e-05
-0.000144466
-0.000172901
-0.000191861
-0.000197611
-0.000195347
-0.000307068
-2.52831e-05
-6.57e-06
-1.22485e-05
-1.48381e-05
3.70333e-06
-2.60364e-05
-2.64694e-05
1.68453e-05
-4.57224e-05
3.65471e-05
-0.000112842
2.06498e-05
-0.000183301
-9.92142e-07
-1.56909e-05
-0.000195383
-0.000197685
5.14629e-05
-0.000256489
8.16414e-06
-0.000259292
-1.78306e-05
-3.27733e-05
-0.000237561
-0.000261094
4.88165e-05
-0.000306746
-1.68731e-05
-0.000277518
-6.49617e-05
-7.35033e-05
-0.000255979
-0.000205681
-3.67898e-05
-0.000226362
-7.31479e-05
-0.000205786
-0.000100687
-0.0001045
-0.000212923
-0.000192471
-0.000102158
-0.000187079
-0.000113732
-0.000186938
-0.000149566
-0.000125656
-0.000193235
-0.000213366
-0.000134398
-0.000301159
-8.95509e-05
-0.000355773
-0.000102277
-8.07197e-05
-0.000286401
-0.000246948
-8.02835e-05
-0.000191045
-1.70326e-05
-0.000323651
-8.79907e-06
-2.29151e-05
-0.000175169
-0.000285635
-1.37756e-05
-0.000262789
-1.34941e-05
-0.000254934
-1.96786e-05
-2.51089e-05
-0.000250997
-0.000243343
-2.65947e-06
-0.000250103
-5.95206e-06
-0.000252719
-1.66422e-05
-2.53919e-05
-0.000252246
-0.000290093
-6.08991e-06
-0.000283396
-1.2565e-05
-0.000273826
-2.6025e-05
-3.40409e-05
-0.00026496
-0.000200112
4.49009e-06
-0.000206311
-6.17879e-06
-0.000210092
-2.2232e-05
-3.21071e-05
-0.000212275
-0.000103578
1.55996e-05
-0.000112252
4.0476e-06
-0.000117841
-1.47593e-05
-2.62257e-05
-0.000121467
0.000111238
1.64989e-05
0.000104015
9.11049e-06
9.61955e-05
-4.22305e-06
-1.25593e-05
8.37945e-05
0.000224874
1.48214e-05
0.000224691
9.68355e-06
0.000221909
-4.23992e-07
-7.54309e-06
0.000213839
0.000259407
1.26033e-05
0.000260819
8.17245e-06
0.000255659
3.29163e-06
-1.72292e-06
0.000249739
0.000249095
0.000251261
0.000249568
0.000245022
-2.65314e-05
-4.60243e-05
-6.13869e-05
-4.58722e-05
-6.53264e-05
-8.58666e-05
-5.12316e-05
-8.01239e-05
-3.72463e-05
-5.84408e-05
-2.85194e-05
-9.02745e-06
-3.66784e-05
2.66019e-05
-4.46161e-05
2.93378e-05
-4.50826e-05
1.76779e-05
-3.3121e-05
1.27199e-05
-5.90137e-06
2.78021e-05
1.43252e-05
6.68745e-05
1.95661e-06
6.77427e-05
-3.48937e-05
2.20977e-05
-6.50484e-05
-3.26901e-05
-7.17054e-05
-4.72804e-05
-6.57591e-05
-4.66452e-05
-4.22696e-05
-6.00179e-05
-7.92269e-05
-0.000179508
-6.71937e-05
-0.000142754
-8.80642e-05
-0.000116476
-0.000111816
-8.98656e-05
-0.000102002
-6.90433e-05
-6.68992e-05
-6.14136e-05
-5.64317e-06
-5.89915e-05
2.43252e-05
-5.81712e-05
2.69823e-05
-5.65695e-05
1.40273e-05
-4.42893e-05
-7.15866e-08
-2.2638e-05
5.9206e-06
4.63062e-06
3.88029e-05
4.72278e-06
7.01826e-05
-2.78412e-05
5.47797e-05
-6.71275e-05
6.70806e-06
-8.33884e-05
-3.19359e-05
-6.66432e-05
-6.25337e-05
-3.28334e-05
-9.74247e-05
-0.000115344
-0.000214818
-9.78057e-05
-0.000183415
-0.000119713
-0.00015803
-0.000136833
-0.000134093
-0.000122879
-0.000111377
-8.02787e-05
-9.50572e-05
-1.40857e-05
-8.62727e-05
1.4608e-05
-7.67956e-05
1.55019e-05
-6.86082e-05
2.45012e-06
-5.63974e-05
-1.43377e-05
-3.87444e-05
-1.29143e-05
-1.3595e-05
1.33768e-05
-1.87364e-06
6.04724e-05
-1.11433e-05
6.47063e-05
-2.50603e-05
2.39894e-05
-3.11592e-05
-2.4859e-05
-2.79292e-05
-6.23736e-05
-1.21408e-05
-0.000114136
-0.00013087
-0.00022882
-0.000161257
-0.000199199
-0.000157362
-0.000182009
-0.000156238
-0.000167295
-0.000134158
-0.000147471
-9.08818e-05
-0.000128125
-2.89498e-05
-0.00011213
-2.57583e-06
-9.52244e-05
-3.0001e-06
-8.13014e-05
-1.6432e-05
-7.21442e-05
-2.75507e-05
-6.12555e-05
-2.63222e-05
-4.47518e-05
-3.83049e-06
-2.74892e-05
4.49116e-05
-1.96732e-05
5.67641e-05
-2.05856e-05
1.92744e-05
-1.04562e-05
-3.59163e-05
-2.44791e-06
-6.46855e-05
1.90444e-06
-0.000117797
-0.000130852
-0.000213888
-0.000225527
-0.00020893
-0.000181055
-0.000201069
-0.000166144
-0.000189048
-0.000143134
-0.000172666
-0.000102467
-0.000151626
-4.82895e-05
-0.000129972
-2.40455e-05
-0.000108982
-2.69127e-05
-9.47503e-05
-3.51964e-05
-8.84663e-05
-3.76847e-05
-8.3412e-05
-3.289e-05
-7.40156e-05
-1.18697e-05
-5.75077e-05
2.79862e-05
-3.92656e-05
3.36997e-05
-2.63593e-05
-1.33579e-06
-7.14549e-06
-5.70852e-05
7.44129e-06
-7.7498e-05
9.08289e-06
-0.000119624
-0.000124599
-0.000216263
-0.000273686
-0.000227917
-0.000228929
-0.000219968
-0.000184537
-0.00020719
-0.000151097
-0.000190109
-0.000115644
-0.000168214
-7.10868e-05
-0.000149544
-4.85912e-05
-0.000137957
-4.3783e-05
-0.000134418
-4.17898e-05
-0.000134258
-3.9645e-05
-0.000132443
-3.41197e-05
-0.000121856
-2.0029e-05
-9.72317e-05
1.70928e-07
-6.66809e-05
-5.23957e-06
-3.47128e-05
-3.88516e-05
-7.75533e-06
-8.07969e-05
8.70218e-06
-9.58707e-05
8.19243e-06
-0.000123821
-0.000121626
-0.00023417
-0.000175233
-0.000242807
-0.000210679
-0.000235824
-0.000202817
-0.000227092
-0.00016742
-0.000212237
-0.000126007
-0.000197253
-8.64319e-05
-0.000189855
-6.68368e-05
-0.000189528
-5.956e-05
-0.000185352
-5.29611e-05
-0.000174231
-5.10998e-05
-0.000158015
-5.02301e-05
-0.000133787
-4.67053e-05
-9.77085e-05
-4.14341e-05
-6.07911e-05
-4.58787e-05
-3.42056e-05
-6.60712e-05
-2.54325e-05
-9.92807e-05
-1.52089e-05
-0.000132492
-7.66433e-06
-0.000167673
-0.000151125
-0.000183677
-7.02738e-05
-0.000222164
-0.000143764
-0.000237455
-0.000188619
-0.000236198
-0.000186513
-0.000225328
-0.000146164
-0.000208352
-9.9674e-05
-0.000197126
-7.5531e-05
-0.000191534
-7.27164e-05
-0.000180851
-7.59443e-05
-0.000159229
-7.71006e-05
-0.000134724
-7.54705e-05
-0.000109261
-7.3499e-05
-8.09293e-05
-7.22229e-05
-5.83352e-05
-7.72068e-05
-5.28222e-05
-0.000103422
-5.40832e-05
-0.000196099
-4.94921e-05
-0.000272817
-3.18655e-05
-0.000303386
-0.00026717
-0.000144951
-8.75471e-05
-0.000173374
-9.63585e-05
-0.000217794
-0.000155949
-0.000235483
-0.000176968
-0.000231458
-0.00016888
-0.000212794
-0.000127691
-0.000186141
-9.14272e-05
-0.000169339
-8.08016e-05
-0.000157213
-8.70784e-05
-0.000144815
-9.01471e-05
-0.000128153
-9.30995e-05
-0.000110049
-9.77853e-05
-9.49374e-05
-0.000110454
-9.25103e-05
-0.000169036
-9.94802e-05
-0.000236485
-8.42317e-05
-0.00013688
-6.73896e-05
-0.000172573
-4.21815e-05
-0.00018043
-0.000172556
-0.000245082
-9.45438e-05
-0.000134914
-0.00013348
-0.000189396
-9.32666e-05
-0.000212612
-0.000150735
-0.000229122
-0.000164574
-0.000218549
-0.000163934
-0.000196828
-0.000129245
-0.000171712
-0.000102129
-0.000157218
-9.88643e-05
-0.000148072
-0.000103599
-0.000141257
-0.000111291
-0.000141853
-0.00014338
-0.000173167
-0.000236335
-0.000187043
-0.000150448
-0.000125389
-0.000146117
-0.000173933
-2.17014e-06
-0.000147973
-0.000106493
-5.09437e-05
-0.000202696
-0.000185621
-0.000241916
-0.000116009
-0.000224837
-0.000149602
-0.000121269
-0.000155374
-0.000184861
-8.82569e-05
-0.000206619
-0.000103276
-0.000217989
-0.000172891
-0.000208188
-0.000179519
-0.000191567
-0.000155752
-0.000173172
-0.000138869
-0.000157791
-0.000142336
-0.000156322
-0.000167424
-0.000198848
-0.00025839
-0.000164135
-0.000170178
-0.000164631
-8.83673e-06
-0.000266857
-3.02323e-05
-0.00017677
-0.000123222
-0.000101605
-0.000206375
-5.80739e-05
-0.00027263
-0.000309782
-0.000203019
-0.00012617
-0.000182342
-0.000169955
-0.000155692
-0.000180341
-0.000120663
-0.000150129
-8.9284e-05
-0.000110129
-0.000139585
-0.000101101
-0.000160897
-0.000145897
-0.00016596
-0.000187516
-0.000166814
-0.000191583
-0.000174419
-0.000203363
-0.000219741
-0.000239662
-0.000173433
-0.000176731
-0.000249378
1.15462e-05
-0.000271565
-8.97552e-06
-0.000215634
-8.54577e-05
-0.000146208
-0.000194267
-8.55967e-05
-0.000270214
-4.55122e-05
-0.000313864
-0.000355308
-0.000116813
-0.00012544
-0.000103241
-0.000183587
-8.41102e-05
-0.000201355
-6.45635e-05
-0.000168873
-5.91192e-05
-0.000123315
-4.78246e-05
-9.02178e-05
-0.000100246
-6.28288e-05
-0.000149725
-0.000117892
-0.000185771
-0.00012063
-0.000247093
-0.000124244
-0.000221239
-0.000130507
-0.00018669
-1.59715e-05
-0.000252391
-2.97651e-06
-0.000218369
-4.28018e-05
-0.000148338
-0.000154404
-7.55068e-05
-0.000265869
-3.10367e-05
-0.000313415
-1.86172e-05
-0.00032657
-0.000373639
5.19524e-05
-8.91936e-05
1.27129e-05
-0.000144071
-1.36695e-05
-0.000174576
-7.99706e-06
-0.00017486
2.84174e-06
-0.000135115
3.16979e-06
-8.72991e-05
-2.06264e-06
-6.58447e-05
-3.3437e-05
-4.87363e-05
-9.95835e-05
-3.62576e-05
-0.000136099
-1.5636e-05
-0.000155815
-1.37773e-05
-0.000156687
-1.53091e-05
-0.000143783
-2.1145e-05
-0.00010005
-8.57498e-05
-5.09842e-05
-0.000201294
-1.86689e-05
-0.000297709
2.56602e-06
-0.000334645
3.53277e-06
-0.000327971
-0.000370077
0.000171589
-5.75033e-05
0.000125838
-9.53732e-05
8.20067e-05
-0.000133033
4.86763e-05
-0.000142309
3.82115e-05
-0.000124748
4.33036e-05
-9.52419e-05
4.61316e-05
-7.11813e-05
4.02183e-05
-6.32936e-05
5.43358e-05
-5.18929e-05
9.07247e-05
-4.17086e-05
6.48838e-05
1.92615e-06
2.84694e-05
2.57363e-05
-6.60485e-07
1.89941e-06
3.7422e-06
-9.00235e-05
2.19601e-05
-0.000218478
3.00262e-05
-0.000306211
2.67013e-05
-0.000331568
1.81368e-05
-0.000319676
-0.000352081
0.000214801
-2.35154e-05
0.000167607
-5.13374e-05
0.000126832
-9.32799e-05
9.52211e-05
-0.000111295
7.28653e-05
-0.00010254
6.0355e-05
-8.28737e-05
5.8032e-05
-6.88689e-05
4.41763e-05
-5.23949e-05
3.63482e-05
-4.19844e-05
4.75472e-05
-5.28222e-05
5.94137e-05
-1.0199e-05
5.54825e-05
3.93847e-05
5.05524e-05
1.21951e-05
6.47219e-05
-0.00010332
7.74777e-05
-0.000231413
7.29196e-05
-0.000301208
4.94086e-05
-0.000307485
2.04907e-05
-0.000291552
-0.000331991
0.000220782
0.000184694
0.000145229
0.000111293
8.98195e-05
7.48431e-05
6.23979e-05
4.62196e-05
2.45143e-05
5.26603e-06
2.66554e-05
6.85673e-05
0.000107637
0.000129062
0.000125842
0.000104481
7.34761e-05
3.66214e-05
)
;

boundaryField
{
    leftWall
    {
        type            fixedValue;
        value           nonuniform 0();
    }
    rightWall
    {
        type            fixedValue;
        value           uniform 0;
    }
    lowerWall
    {
        type            fixedValue;
        value           uniform 0;
    }
    atmosphere
    {
        type            calculated;
        value           nonuniform 0();
    }
    defaultFaces
    {
        type            empty;
        value           nonuniform 0();
    }
    procBoundary1to0
    {
        type            processor;
        value           nonuniform List<scalar> 
26
(
2.33297e-06
4.60857e-07
-4.65789e-08
7.1299e-08
1.04497e-06
3.17519e-07
8.83405e-06
1.64105e-05
-1.26882e-05
-7.75822e-06
7.16728e-05
8.42847e-05
9.23343e-05
0.000207214
0.000229858
0.000220676
-0.000129254
0.000226258
0.000234032
0.000293318
0.00018976
9.37577e-05
-0.000111939
-0.000223739
-0.000257816
-0.000244152
)
;
    }
    procBoundary1to3
    {
        type            processor;
        value           nonuniform List<scalar> 
23
(
8.25512e-06
6.2469e-06
5.3796e-06
3.20211e-06
2.32892e-06
-1.3577e-05
-5.32431e-05
-7.76628e-05
-8.12469e-05
-6.79791e-05
-5.66005e-05
-3.73003e-05
-1.77741e-05
-3.36776e-05
-3.29859e-05
-4.6162e-06
-2.7894e-05
-0.000124834
-0.000228241
-0.000279211
-0.00027592
-0.000255565
-0.000295663
)
;
    }
}


// ************************************************************************* //
