/*--------------------------------*- C++ -*----------------------------------*\
| =========                 |                                                 |
| \\      /  F ield         | OpenFOAM: The Open Source CFD Toolbox           |
|  \\    /   O peration     | Version:  2.4.0                                 |
|   \\  /    A nd           | Web:      www.OpenFOAM.org                      |
|    \\/     M anipulation  |                                                 |
\*---------------------------------------------------------------------------*/
FoamFile
{
    version     2.0;
    format      ascii;
    class       volScalarField;
    location    "0.9";
    object      rho;
}
// * * * * * * * * * * * * * * * * * * * * * * * * * * * * * * * * * * * * * //

dimensions      [1 -3 0 0 0 0 0];

internalField   nonuniform List<scalar> 
559
(
13528.9
13528.9
13528.8
13528.8
13508.6
11443.1
1700.64
1041.65
11825.4
10464.6
10421.9
11016.5
11835.7
12347.9
12524.6
12573.8
12602.2
12619.7
12639
12663.4
12682.9
12695.8
12703.8
12707.3
12707.2
12707.3
12706.4
7147.14
2818.66
1711.61
1677.69
1791.79
2040.78
2400.86
2928.34
3461.6
3868.66
4615.43
6854.46
9338.89
10679.1
11795.8
12665.3
12708.2
12707.5
12707.4
879.755
754.482
749.348
799.537
851.374
891.332
896.433
892.987
892.032
902.584
1339.47
4279.38
8144.85
10359.3
11910.8
12674.3
12709.5
12708.9
12707.6
618.429
535.639
545.938
570.406
631.734
767.514
847.262
854.795
862.03
891.559
1188.78
3071.32
6467.2
8622.91
11378
12453
12710
12709.4
12696.7
808.413
507.912
507.388
508.848
514.721
564.795
787.858
879.839
890.144
890.595
975.447
1650.02
3164.4
4110.07
8702.21
12337.6
12699
12652.3
12568.4
400.4
497.544
506.18
506.393
506.351
508.923
641.611
838.225
873.878
890.527
902.561
1025.44
1014.67
1374.4
3137.36
10150.9
12627.5
12516.6
12404.9
507.173
502.513
501.419
503.334
504.303
506.323
562.958
831.109
888.533
890.436
887.974
832.232
703.211
900.558
1030.37
4379.89
11612.2
12354.1
11884.6
593.092
494.917
498.136
498.136
498.335
505.846
530.225
791.885
887.321
882.003
879.707
828.08
641.146
584.556
726.543
1086.19
4543.24
7126.06
7102.67
1005.17
818.338
563.672
418.833
87.8036
10.3898
155.871
99.1002
1715.49
1800.81
1494.71
1208.02
655.745
503.292
492.937
504.923
538.301
514.141
512.765
518.09
511.674
507.628
510.307
520.982
272.182
325.463
375.648
462.942
71.8003
108.306
106.255
142.751
143.018
43.221
7.92891
4.80229
1.1375
1.07548
1.00589
1.00072
1.00538
1.00045
1.00044
1.00055
1.00028
1.00034
1.00038
1.00048
1.00028
1.00034
1.0004
1.00043
1.00039
1.00041
1.00046
1.00051
1.00052
1.00057
1.00072
1.00088
1.00055
1.00056
1.00055
1.0006
1.00064
1.00064
1.00065
1.00069
1.00146
1.0007
1.00072
1.00073
1.00468
1.00473
1.00476
1.0033
569.476
490.097
497.809
498.151
497.129
502.844
527.021
726.53
870.769
860.581
865.241
843.746
714.676
612.91
557.259
556.713
676.028
949.108
1213.34
509.315
513.175
514.989
509.168
504.041
500.766
523.39
663.911
836.833
873.002
864.607
852.35
784.434
671.213
564.478
546.488
604.261
756.121
979.251
527.364
534.424
538.743
537.216
522.216
512.21
532.653
658.87
799.891
850.605
850.187
841.259
791.554
702.023
598.017
565.539
603.303
755.358
978.015
530.133
537.731
547.555
553.532
551.442
544.608
563.203
658.801
738.658
764.614
769.701
774.206
772.6
697.003
611.387
580.369
620.66
757.165
877.636
503.609
528.354
544.719
561.069
571.317
576.031
590.959
644.455
685.931
698.195
698.995
699.415
716.07
662.214
615.569
616.908
675.916
735.883
749.457
300.054
472.124
532.425
560.062
582.077
594.571
604.129
619.418
625.978
627.79
626.29
630.764
631.679
634.56
638.554
670.039
682.6
675.749
658.266
17.6612
159.172
439.303
545.364
575.977
553.927
537.9
580.082
605.122
610.651
621.051
639.547
656.195
667.752
665.37
661.977
636.739
584.893
581.401
1.08722
8.68279
124.886
422.757
541.471
499.514
451.35
451.776
590.72
651.505
668.204
672.633
671.828
663.993
639.081
520.415
416.777
341.348
395.633
1.00063
1.10698
9.96784
129.99
419.29
531.074
563.528
509.076
535.511
631.409
662.701
655.564
627.695
537.24
371.941
152.264
33.6737
16.0867
40.0904
1.00052
1.00078
1.21238
15.5455
174.401
475.216
583.74
612.172
624.949
625.712
616.237
547.912
415.778
159.537
12.2475
1.04814
1.00218
1.00206
1.00546
1.00046
1.00047
1.00085
1.22429
14.4373
155.643
418.69
521.555
545.218
539.939
489.938
298.221
40.4801
1.20753
1.00125
1.00126
1.00168
1.00091
1.00076
1.0006
1.0005
1.00034
1.00029
1.0189
3.53803
60.5353
271.018
388.103
377.934
169.611
13.2608
1.00875
1.00116
1.00152
1.00586
1.01063
1.00696
1.00095
1.00105
1.00098
1.00053
1.00021
1.00026
1.00256
1.61095
14.9862
51.6124
53.3165
4.43835
1.00262
1.00084
1.00114
1.00779
1.01171
1.01172
1.01166
1.00232
1.00101
1.00119
1.00107
1.00034
1.00012
1.00032
1.01663
1.10796
1.1625
1.0955
1.00767
1.00095
1.00086
1.00091
1.00332
1.00752
1.01087
1.01163
1.00218
1.00074
1.00117
1.00123
1.00073
1.00017
1.00008
1.00008
1.00029
1.00084
1.00105
1.00107
1.00111
1.00092
1.00092
1.00075
1.00074
1.00144
1.00274
1.00098
1.00076
1.00107
1.00123
1.00075
1.00026
1.00007
1.00005
1.00014
1.0009
1.00105
1.00112
1.00104
1.00087
1.00088
1.00071
1.00066
1.0006
1.00059
1.00072
1.00099
1.0011
1.00101
1.00068
1.00019
1.00007
1.00004
1.00014
1.00067
1.00097
1.00103
1.00104
1.00101
1.00072
1.00062
1.00056
1.00051
1.00057
1.00071
)
;

boundaryField
{
    leftWall
    {
        type            calculated;
        value           nonuniform 0();
    }
    rightWall
    {
        type            calculated;
        value           nonuniform List<scalar> 
25
(
12706.4
12707.4
12707.6
12696.7
12568.4
12404.9
11884.6
7102.67
1213.34
979.251
978.015
877.636
749.457
658.266
581.401
395.633
40.0904
1.00546
1.00076
1.00095
1.00232
1.00218
1.00098
1.00072
1.00071
)
;
    }
    lowerWall
    {
        type            calculated;
        value           nonuniform List<scalar> 
40
(
13528.9
13528.9
13528.9
13528.8
13528.8
13508.6
11443.1
1700.64
1041.65
1715.49
1800.81
1494.71
1208.02
11825.4
7147.14
879.755
618.429
808.413
400.4
507.173
593.092
11825.4
10464.6
10421.9
11016.5
11835.7
12347.9
12524.6
12573.8
12602.2
12619.7
12639
12663.4
12682.9
12695.8
12703.8
12707.3
12707.2
12707.3
12706.4
)
;
    }
    atmosphere
    {
        type            calculated;
        value           nonuniform 0();
    }
    defaultFaces
    {
        type            empty;
    }
    procBoundary1to0
    {
        type            processor;
        value           nonuniform List<scalar> 
26
(
13528.9
13528.9
13528.9
13528.9
13522
12681.4
4245.89
1017.33
980.995
803.58
457.554
89.5972
5.50187
4.5143
136.877
185.755
1.11549
1.11549
1.00037
1.00028
1.00033
1.00045
1.00051
1.0006
1.00538
1.00431
)
;
    }
    procBoundary1to3
    {
        type            processor;
        value           nonuniform List<scalar> 
23
(
1.00153
1.00366
1.00213
1.00082
1.00084
1.00116
1.00113
1.0005
1.00013
1.00005
1.00003
1.00004
1.00009
1.00043
1.00094
1.00107
1.00098
1.00059
1.00044
1.00038
1.00042
1.00091
1.00214
)
;
    }
}


// ************************************************************************* //
