/*--------------------------------*- C++ -*----------------------------------*\
| =========                 |                                                 |
| \\      /  F ield         | OpenFOAM: The Open Source CFD Toolbox           |
|  \\    /   O peration     | Version:  2.4.0                                 |
|   \\  /    A nd           | Web:      www.OpenFOAM.org                      |
|    \\/     M anipulation  |                                                 |
\*---------------------------------------------------------------------------*/
FoamFile
{
    version     2.0;
    format      ascii;
    class       volVectorField;
    location    "0.9";
    object      U;
}
// * * * * * * * * * * * * * * * * * * * * * * * * * * * * * * * * * * * * * //

dimensions      [0 1 -1 0 0 0 0];

internalField   nonuniform List<vector> 
559
(
(-0.0239135 -0.00894899 0)
(-0.00268744 -0.0187117 0)
(0.00235098 -0.00699931 0)
(0.00381141 -0.0285106 0)
(-0.00734521 0.00529704 0)
(-0.0192994 -0.0685397 0)
(-0.102228 0.15865 0)
(-0.126142 -0.252316 0)
(-0.0221803 -0.189711 0)
(0.195235 -0.257766 0)
(0.287844 -0.315767 0)
(0.334433 -0.369479 0)
(0.359333 -0.416771 0)
(0.372789 -0.437187 0)
(0.372116 -0.433637 0)
(0.381928 -0.406466 0)
(0.392513 -0.378153 0)
(0.406887 -0.351244 0)
(0.394116 -0.309816 0)
(0.376832 -0.254091 0)
(0.365987 -0.219618 0)
(0.371101 -0.184985 0)
(0.347388 -0.129792 0)
(0.25331 -0.0639937 0)
(0.0882703 -0.0379953 0)
(-0.0792488 -0.071428 0)
(-0.0426006 -0.108649 0)
(0.0314162 0.0603222 0)
(0.244467 0.127119 0)
(0.361441 0.271873 0)
(0.433569 0.343514 0)
(0.477212 0.396735 0)
(0.469057 0.417429 0)
(0.439101 0.402121 0)
(0.421583 0.34537 0)
(0.419078 0.305389 0)
(0.412874 0.280598 0)
(0.372627 0.252961 0)
(0.265045 0.20664 0)
(0.143494 0.165644 0)
(0.114771 0.14729 0)
(0.229462 0.160682 0)
(0.202967 0.155734 0)
(0.0761152 0.140001 0)
(-0.0534864 0.111236 0)
(-0.0767697 0.0320253 0)
(0.200714 0.0383387 0)
(0.142563 -0.249861 0)
(0.207826 -0.328487 0)
(0.268677 -0.370197 0)
(0.349629 -0.379157 0)
(0.435206 -0.361199 0)
(0.441819 -0.352181 0)
(0.411839 -0.327771 0)
(0.325403 -0.295298 0)
(0.213351 -0.238519 0)
(-0.0410365 -0.09542 0)
(-0.491336 0.0364837 0)
(-0.530963 -0.0631342 0)
(-0.452239 -0.128991 0)
(-0.233845 -0.122313 0)
(0.117402 0.0726762 0)
(0.0435361 0.114711 0)
(-0.0419332 0.044638 0)
(-0.0232071 -0.121014 0)
(0.176534 -0.264725 0)
(0.1156 -0.0847111 0)
(0.193653 0.0805255 0)
(0.245627 0.139128 0)
(0.341289 0.211322 0)
(0.38549 0.266742 0)
(0.333123 0.330692 0)
(0.269613 0.303434 0)
(0.139661 0.298243 0)
(0.0212984 0.327606 0)
(-0.154423 0.358404 0)
(-0.515428 0.238125 0)
(-0.522747 0.0326134 0)
(-0.480969 -0.0787344 0)
(-0.399926 -0.138012 0)
(-0.107902 0.00560759 0)
(0.00914159 0.145851 0)
(-0.0345047 0.0961284 0)
(0.0155811 -0.0377611 0)
(0.084405 -0.309904 0)
(-0.114307 -0.14138 0)
(-0.0187857 -0.224057 0)
(0.0399338 -0.284113 0)
(0.133518 -0.280329 0)
(0.185722 -0.231893 0)
(0.156816 -0.176801 0)
(0.126386 -0.119496 0)
(0.092249 -0.0629393 0)
(0.033903 0.0750975 0)
(-0.0465163 0.323223 0)
(-0.369624 0.319756 0)
(-0.404843 -0.00944971 0)
(-0.428139 -0.129518 0)
(-0.425887 -0.248651 0)
(-0.290689 -0.060677 0)
(-0.0496411 0.111269 0)
(-0.0436884 0.0781927 0)
(0.0344157 -0.0994138 0)
(0.027388 -0.141038 0)
(-0.132107 -0.122626 0)
(0.00570525 -0.108632 0)
(0.0530272 -0.0899617 0)
(0.122813 -0.0109115 0)
(0.199397 0.162541 0)
(0.059703 0.240878 0)
(-0.0308179 0.197367 0)
(-0.0626963 0.195653 0)
(-0.0622351 0.229761 0)
(-0.010392 0.381818 0)
(-0.13369 0.387681 0)
(-0.281727 0.117369 0)
(-0.372207 -0.0668959 0)
(-0.386317 -0.171122 0)
(-0.339801 -0.174489 0)
(-0.110507 0.0237165 0)
(-0.0475828 0.054022 0)
(0.0503741 -0.0582171 0)
(0.0976614 -0.178598 0)
(-0.13226 -0.131506 0)
(-0.00389834 -0.204169 0)
(0.00810246 -0.213827 0)
(0.0187091 -0.206606 0)
(0.0457353 -0.11023 0)
(0.0189601 0.0459143 0)
(-0.0952716 0.0446051 0)
(-0.11674 0.0623207 0)
(-0.108196 0.167886 0)
(-0.0217038 0.38486 0)
(0.00590446 0.424473 0)
(-0.247599 0.0934508 0)
(-0.349341 -0.147005 0)
(-0.358248 -0.181814 0)
(-0.408474 -0.114478 0)
(-0.212907 -0.0369203 0)
(-0.0604309 0.00664374 0)
(0.0511242 -0.107122 0)
(0.128497 -0.210436 0)
(-0.119264 -0.108335 0)
(-0.0224256 -0.208322 0)
(-0.026317 -0.183492 0)
(0.04454 -0.128459 0)
(-0.0298923 0.093394 0)
(-0.0514582 0.184686 0)
(-0.157337 0.15224 0)
(-0.186537 0.118224 0)
(-0.178052 0.151888 0)
(-0.0767461 0.343036 0)
(0.0768518 0.454466 0)
(-0.141765 0.223521 0)
(-0.314282 -0.114895 0)
(-0.332817 -0.23146 0)
(-0.412104 -0.139223 0)
(-0.362199 -0.0957381 0)
(-0.131038 -0.050157 0)
(0.00644598 -0.0330094 0)
(-0.0257551 -0.0605589 0)
(-0.0218761 0.221634 0)
(-0.877551 0.414708 0)
(-1.21142 0.801372 0)
(-1.84986 1.36046 0)
(-1.89744 1.33372 0)
(-0.863219 -0.6961 0)
(-1.07019 -0.443582 0)
(-0.205279 -0.663527 0)
(-0.0994424 -0.77429 0)
(-0.0931119 -0.631555 0)
(0.0546481 -0.564107 0)
(-0.279677 0.523769 0)
(-0.539184 0.411009 0)
(-0.684676 0.186214 0)
(-0.84916 0.174148 0)
(-1.19047 0.45276 0)
(-1.37823 0.352527 0)
(-1.40833 0.323349 0)
(-1.36505 0.0398279 0)
(-1.67159 0.847078 0)
(-1.96504 0.449845 0)
(-1.78837 -0.0350738 0)
(-1.55442 -0.25358 0)
(-1.6625 1.34797 0)
(-1.70648 0.569044 0)
(-1.33548 -0.334871 0)
(-1.23654 -0.588707 0)
(-1.1161 0.205989 0)
(-0.950282 -0.128378 0)
(-0.97751 -0.28081 0)
(-1.14174 -0.326109 0)
(-0.712008 -0.632092 0)
(-0.704571 -0.311826 0)
(-0.877463 0.342664 0)
(-0.997063 0.595441 0)
(-1.22465 1.14969 0)
(-1.92764 0.62769 0)
(-1.84151 0.0494471 0)
(-1.58395 -0.156289 0)
(-1.72108 -0.297451 0)
(-1.4628 -0.299906 0)
(-1.3923 -0.385716 0)
(-1.36615 -0.423602 0)
(-1.28174 0.040318 0)
(-1.33352 0.0327906 0)
(-1.35592 -0.0652707 0)
(-1.35649 -0.183414 0)
(-1.58628 -0.10103 0)
(-1.55322 -0.157829 0)
(-1.47626 -0.277504 0)
(-1.39804 -0.336355 0)
(-1.00932 -0.00979778 0)
(-1.14302 -0.0901148 0)
(-1.11837 -0.26882 0)
(-1.11411 -0.381561 0)
(-0.50287 0.0829802 0)
(-0.64418 -0.0849303 0)
(-0.588353 -0.311326 0)
(-0.671226 -0.447198 0)
(0.626597 0.23799 0)
(0.537627 0.133734 0)
(0.586515 -0.0512723 0)
(0.445009 -0.166263 0)
(1.20015 0.180973 0)
(1.19319 0.106452 0)
(1.19708 -0.0448755 0)
(1.16452 -0.128001 0)
(1.37595 0.155082 0)
(1.40136 0.0981699 0)
(1.39283 0.0169214 0)
(1.3567 -0.054942 0)
(1.31201 0.142749 0)
(1.35588 0.0948277 0)
(1.35337 0.0693489 0)
(1.33202 0.0239979 0)
(0.0238435 -0.1148 0)
(-0.213209 -0.0128751 0)
(-0.149842 -0.210963 0)
(-0.141874 -0.191435 0)
(-0.128525 -0.143439 0)
(-0.142014 -0.0566045 0)
(-0.119686 0.189641 0)
(-0.233558 0.195264 0)
(-0.263553 0.112316 0)
(-0.236357 0.121944 0)
(-0.114702 0.224941 0)
(0.0634156 0.435963 0)
(0.0741907 0.366045 0)
(-0.118942 0.0491956 0)
(-0.341897 -0.13355 0)
(-0.392351 -0.124682 0)
(-0.393923 0.100428 0)
(-0.357278 0.13637 0)
(-0.0909001 0.0227243 0)
(-0.867419 0.0237388 0)
(-0.690297 -0.0849885 0)
(-0.608751 -0.244825 0)
(-0.393518 -0.223995 0)
(-0.310408 -0.129505 0)
(-0.312493 0.0659746 0)
(-0.319277 0.220617 0)
(-0.327468 0.218554 0)
(-0.338836 0.112403 0)
(-0.290567 0.0572367 0)
(-0.196447 0.108358 0)
(-0.0334325 0.28585 0)
(0.0771781 0.378911 0)
(-0.0664565 0.19903 0)
(-0.348879 -0.0490174 0)
(-0.514875 -0.182114 0)
(-0.508045 -0.318511 0)
(-0.303371 -0.486835 0)
(-0.0888971 -0.568676 0)
(-1.20925 -0.159801 0)
(-1.00136 -0.3068 0)
(-0.886263 -0.476694 0)
(-0.726896 -0.43669 0)
(-0.608704 -0.220026 0)
(-0.536553 0.0503183 0)
(-0.5014 0.204445 0)
(-0.462128 0.187316 0)
(-0.408611 0.0872334 0)
(-0.353346 -0.0155131 0)
(-0.263474 -0.00427727 0)
(-0.159049 0.13454 0)
(0.00591766 0.34894 0)
(-0.0398596 0.370085 0)
(-0.129623 0.209193 0)
(-0.186949 0.0446095 0)
(-0.212027 -0.123582 0)
(-0.167291 -0.403737 0)
(0.00771079 -0.536527 0)
(-1.34151 -0.404145 0)
(-1.13562 -0.513341 0)
(-1.01085 -0.585783 0)
(-0.920806 -0.521661 0)
(-0.85764 -0.317037 0)
(-0.752199 0.00265066 0)
(-0.663256 0.126892 0)
(-0.57743 0.108035 0)
(-0.477677 0.0147855 0)
(-0.410198 -0.0642573 0)
(-0.369127 -0.0586019 0)
(-0.302354 0.0663897 0)
(-0.193199 0.309716 0)
(-0.107591 0.367478 0)
(-0.135962 0.150014 0)
(-0.103253 -0.0934177 0)
(-0.0129169 -0.252782 0)
(-0.0249166 -0.543571 0)
(0.0410071 -0.612192 0)
(-1.21119 -0.60993 0)
(-1.18929 -0.615111 0)
(-1.12502 -0.636014 0)
(-1.06289 -0.560378 0)
(-1.00784 -0.354388 0)
(-0.886535 -0.0711155 0)
(-0.774217 0.0394341 0)
(-0.649878 0.00647753 0)
(-0.536732 -0.0754166 0)
(-0.485412 -0.117006 0)
(-0.465867 -0.114038 0)
(-0.455813 -0.0207113 0)
(-0.356363 0.209809 0)
(-0.269684 0.279161 0)
(-0.172903 0.146342 0)
(-0.107961 -0.0765296 0)
(0.0575708 -0.240782 0)
(0.0404112 -0.51502 0)
(0.0720016 -0.561333 0)
(-1.17679 -0.575584 0)
(-1.23338 -0.715727 0)
(-1.25291 -0.72601 0)
(-1.18905 -0.634189 0)
(-1.11433 -0.453889 0)
(-0.982871 -0.203996 0)
(-0.859703 -0.0947146 0)
(-0.758898 -0.111679 0)
(-0.724378 -0.142547 0)
(-0.716943 -0.143844 0)
(-0.727399 -0.107873 0)
(-0.733288 0.00465508 0)
(-0.620498 0.171004 0)
(-0.442241 0.182606 0)
(-0.25306 0.0140517 0)
(-0.117355 -0.285721 0)
(0.0689366 -0.358996 0)
(0.0438453 -0.508342 0)
(0.0617589 -0.512048 0)
(-1.43898 0.223475 0)
(-1.40129 -0.563367 0)
(-1.34192 -0.791409 0)
(-1.29185 -0.72326 0)
(-1.24525 -0.525845 0)
(-1.15233 -0.29257 0)
(-1.0781 -0.174513 0)
(-1.04411 -0.154886 0)
(-1.03544 -0.129185 0)
(-0.998013 -0.106649 0)
(-0.942762 -0.0911449 0)
(-0.827701 -0.0723122 0)
(-0.625052 -0.0331727 0)
(-0.407095 -0.0674124 0)
(-0.211319 -0.208267 0)
(-0.137617 -0.351945 0)
(-0.08194 -0.41678 0)
(-0.0600104 -0.535035 0)
(0.007965 -0.495491 0)
(-1.43598 -0.261608 0)
(-1.42166 -0.28008 0)
(-1.42406 -0.663095 0)
(-1.33537 -0.752782 0)
(-1.31558 -0.584974 0)
(-1.28221 -0.291683 0)
(-1.20414 -0.145991 0)
(-1.14296 -0.116953 0)
(-1.05945 -0.207582 0)
(-0.947425 -0.267455 0)
(-0.809503 -0.27268 0)
(-0.658127 -0.25755 0)
(-0.493803 -0.233298 0)
(-0.336537 -0.22883 0)
(-0.246048 -0.28238 0)
(-0.244176 -0.37132 0)
(-0.192484 -0.509845 0)
(-0.207936 -0.584715 0)
(-0.0323805 -0.589321 0)
(-1.2999 -0.544594 0)
(-1.23616 -0.714752 0)
(-1.43114 -0.659147 0)
(-1.42233 -0.671228 0)
(-1.33049 -0.639742 0)
(-1.28312 -0.452728 0)
(-1.13497 -0.299975 0)
(-1.00919 -0.235911 0)
(-0.907536 -0.275369 0)
(-0.817283 -0.337095 0)
(-0.731171 -0.35698 0)
(-0.617119 -0.35088 0)
(-0.50649 -0.337127 0)
(-0.41934 -0.321396 0)
(-0.356824 -0.356654 0)
(-0.242968 -0.408925 0)
(-0.24029 -0.00151447 0)
(-0.491979 0.19138 0)
(-0.0662303 -0.328668 0)
(-1.34165 -0.369109 0)
(-1.27112 -0.611974 0)
(-1.28336 -0.694615 0)
(-1.43599 -0.587023 0)
(-1.34644 -0.626898 0)
(-1.24797 -0.586362 0)
(-1.16102 -0.438772 0)
(-1.01141 -0.378387 0)
(-0.887118 -0.401654 0)
(-0.814597 -0.407266 0)
(-0.754637 -0.427251 0)
(-0.681678 -0.437241 0)
(-0.622184 -0.448645 0)
(-0.495638 -0.378531 0)
(-0.452041 0.410517 0)
(-1.08384 0.706143 0)
(-1.11568 -0.287943 0)
(-0.531842 -0.972703 0)
(-0.129218 -0.847399 0)
(-1.3687 -0.483232 0)
(-1.23096 -0.648283 0)
(-1.15441 -0.69776 0)
(-1.12695 -0.674089 0)
(-1.31175 -0.495486 0)
(-1.23139 -0.555189 0)
(-1.17084 -0.575748 0)
(-1.08362 -0.485976 0)
(-0.970325 -0.450205 0)
(-0.855012 -0.487948 0)
(-0.765011 -0.510172 0)
(-0.672981 -0.507797 0)
(-0.572675 -0.142623 0)
(-1.11126 0.52898 0)
(-1.76645 -0.291443 0)
(-1.2783 -0.912603 0)
(-0.657266 -1.13264 0)
(-0.425177 -1.39059 0)
(-0.198803 -1.5503 0)
(-1.11095 -0.589609 0)
(-1.03087 -0.783394 0)
(-0.880555 -0.810258 0)
(-0.793565 -0.698848 0)
(-0.745799 -0.560272 0)
(-0.904503 -0.267663 0)
(-0.997145 -0.380222 0)
(-0.961555 -0.633654 0)
(-0.91813 -0.628129 0)
(-0.858328 -0.605711 0)
(-0.737741 -0.533434 0)
(-0.818976 0.0215174 0)
(-1.54743 0.143967 0)
(-1.71734 -0.132633 0)
(-1.35952 -0.120761 0)
(-0.945501 -0.453822 0)
(-0.568243 -0.989149 0)
(-0.358422 -1.36613 0)
(-0.123946 -1.5879 0)
(-0.572358 -0.749911 0)
(-0.605685 -0.95108 0)
(-0.487738 -0.996341 0)
(-0.401711 -0.742228 0)
(-0.333767 -0.619817 0)
(-0.322876 -0.570833 0)
(-0.444835 -0.307977 0)
(-0.629035 -0.166066 0)
(-0.806305 -0.383962 0)
(-0.926809 -0.469015 0)
(-1.20841 0.0327356 0)
(-1.44009 0.0384789 0)
(-1.48731 0.0351959 0)
(-1.34624 0.0322048 0)
(-0.965751 -0.569334 0)
(-0.602429 -1.24916 0)
(-0.189461 -1.5015 0)
(-0.158232 -1.61606 0)
(-0.0231324 -1.82636 0)
(0.421387 -0.501214 0)
(0.163478 -0.824106 0)
(-0.0391841 -0.976406 0)
(-0.100035 -0.932454 0)
(0.00572492 -0.620919 0)
(0.0169024 -0.352667 0)
(0.0137848 -0.361909 0)
(-0.0224789 -0.45961 0)
(-0.0919984 -0.178444 0)
(-0.656027 0.0390372 0)
(-0.889863 -0.254283 0)
(-0.889532 -0.179347 0)
(-0.893908 -0.0615239 0)
(-0.703446 -0.419174 0)
(-0.332807 -0.99685 0)
(-0.189696 -1.44746 0)
(0.0114103 -1.60066 0)
(0.00325335 -1.6075 0)
(0.0400989 -1.8412 0)
(1.09988 -0.355341 0)
(0.836308 -0.546158 0)
(0.548875 -0.688061 0)
(0.32719 -0.734994 0)
(0.181058 -0.693185 0)
(0.209115 -0.498736 0)
(0.240621 -0.332074 0)
(0.233205 -0.297751 0)
(0.240269 -0.249352 0)
(0.341063 -0.145256 0)
(0.586471 0.0525532 0)
(0.269669 0.0114868 0)
(0.0122299 -0.115184 0)
(-0.0298969 -0.44232 0)
(0.0812443 -0.991298 0)
(0.174132 -1.4311 0)
(0.167791 -1.63052 0)
(0.111558 -1.57172 0)
(0.0890542 -1.74272 0)
(1.29119 -0.184193 0)
(1.05929 -0.346963 0)
(0.785272 -0.574526 0)
(0.585584 -0.649562 0)
(0.417278 -0.530074 0)
(0.342582 -0.436934 0)
(0.293896 -0.351863 0)
(0.318799 -0.300749 0)
(0.214122 -0.252254 0)
(0.153666 -0.244154 0)
(0.344629 -0.0190122 0)
(0.331376 0.285382 0)
(0.242395 0.154554 0)
(0.258367 -0.409791 0)
(0.428719 -1.07835 0)
(0.457876 -1.48922 0)
(0.356376 -1.53367 0)
(0.17032 -1.48636 0)
(0.0452984 -1.64337 0)
(1.28026 -0.0248345 0)
(1.12238 -0.143334 0)
(0.905096 -0.321659 0)
(0.671525 -0.428804 0)
(0.506021 -0.454757 0)
(0.438028 -0.35845 0)
(0.349876 -0.301399 0)
(0.340396 -0.186148 0)
(0.189367 -0.127483 0)
(0.0517623 -0.238955 0)
(-0.000908242 -0.088549 0)
(0.30448 0.125642 0)
(0.402994 -0.0183107 0)
(0.679116 -0.560695 0)
(0.755421 -1.12665 0)
(0.654381 -1.40177 0)
(0.515081 -1.39296 0)
(0.262737 -1.29568 0)
(0.131169 -1.52563 0)
)
;

boundaryField
{
    leftWall
    {
        type            calculated;
        value           nonuniform 0();
    }
    rightWall
    {
        type            calculated;
        value           uniform (0 0 0);
    }
    lowerWall
    {
        type            calculated;
        value           uniform (0 0 0);
    }
    atmosphere
    {
        type            calculated;
        value           nonuniform 0();
    }
    defaultFaces
    {
        type            empty;
    }
    procBoundary1to0
    {
        type            processor;
        value           nonuniform List<vector> 
26
(
(-0.030628 0.00148335 0)
(-0.00867928 -0.00794319 0)
(-0.00110655 -0.0101531 0)
(-0.0060217 -0.0316242 0)
(-0.0245808 -0.0229417 0)
(0.000329719 -0.0745906 0)
(-0.0976487 0.00355607 0)
(-0.218518 0.0194593 0)
(0.137183 -0.0798764 0)
(0.0676162 0.139887 0)
(-0.45405 0.0974475 0)
(-1.15126 0.848945 0)
(-2.45134 1.11108 0)
(-2.75445 0.593308 0)
(-1.36514 -0.557949 0)
(-1.2089 -0.63793 0)
(-1.85777 0.16735 0)
(-1.85777 0.16735 0)
(-1.21978 -0.190074 0)
(-1.59322 0.113897 0)
(-1.01357 0.230863 0)
(-0.501803 0.267319 0)
(0.529348 0.425662 0)
(1.12883 0.373712 0)
(1.32834 0.285405 0)
(1.25387 0.173629 0)
)
;
    }
    procBoundary1to3
    {
        type            processor;
        value           nonuniform List<vector> 
23
(
(1.07388 0.0236316 0)
(1.12478 0.0299799 0)
(1.1483 0.0395505 0)
(1.14531 0.0409545 0)
(1.11355 0.0495465 0)
(1.01473 0.0224394 0)
(0.873836 -0.176289 0)
(0.708974 -0.307693 0)
(0.575794 -0.332663 0)
(0.472188 -0.303964 0)
(0.448617 -0.259047 0)
(0.432858 -0.191097 0)
(0.464432 -0.0376082 0)
(0.478704 -0.0860962 0)
(0.386359 -0.229061 0)
(0.48623 -0.17574 0)
(0.653144 -0.272737 0)
(0.878546 -0.651699 0)
(0.889896 -1.04857 0)
(0.718997 -1.23795 0)
(0.538953 -1.22573 0)
(0.296833 -1.13642 0)
(0.186623 -1.28255 0)
)
;
    }
}


// ************************************************************************* //
