/*--------------------------------*- C++ -*----------------------------------*\
| =========                 |                                                 |
| \\      /  F ield         | OpenFOAM: The Open Source CFD Toolbox           |
|  \\    /   O peration     | Version:  2.4.0                                 |
|   \\  /    A nd           | Web:      www.OpenFOAM.org                      |
|    \\/     M anipulation  |                                                 |
\*---------------------------------------------------------------------------*/
FoamFile
{
    version     2.0;
    format      ascii;
    class       volVectorField;
    location    "0.9";
    object      U.air;
}
// * * * * * * * * * * * * * * * * * * * * * * * * * * * * * * * * * * * * * //

dimensions      [0 1 -1 0 0 0 0];

internalField   nonuniform List<vector> 
559
(
(-0.0239135 -0.00894902 0)
(-0.00268752 -0.0187118 0)
(0.00235087 -0.00699934 0)
(0.00381129 -0.0284854 0)
(-0.00734187 0.0123259 0)
(-0.0192834 -0.0472299 0)
(-0.119119 -0.0685112 0)
(-0.130183 -0.351337 0)
(-0.0232155 -0.0169515 0)
(0.188245 -0.113748 0)
(0.285384 -0.246581 0)
(0.334141 -0.34618 0)
(0.358679 -0.384925 0)
(0.371022 -0.398242 0)
(0.369701 -0.391904 0)
(0.380645 -0.311564 0)
(0.391968 -0.114092 0)
(0.40365 -0.00349317 0)
(0.380885 0.0899942 0)
(0.359455 0.102093 0)
(0.35885 0.0300625 0)
(0.371794 -0.0109564 0)
(0.349103 -0.062615 0)
(0.242648 -0.0561936 0)
(0.0759174 0.0172627 0)
(-0.0820297 -0.0353292 0)
(-0.0436999 -0.0873073 0)
(0.0495117 0.439045 0)
(0.273159 -0.208648 0)
(0.367111 0.0218645 0)
(0.422139 0.12793 0)
(0.468013 0.178582 0)
(0.474718 0.197072 0)
(0.454065 0.197227 0)
(0.391032 0.149844 0)
(0.312253 -0.00660028 0)
(0.246342 -0.0553192 0)
(0.169431 0.0836599 0)
(0.0688843 0.472274 0)
(0.00595399 0.447035 0)
(0.0410851 0.334362 0)
(0.185204 0.235881 0)
(0.180861 0.177979 0)
(0.0681007 0.187593 0)
(-0.0565943 0.151011 0)
(-0.0787931 0.0549327 0)
(0.153293 0.51455 0)
(0.0447603 -0.341743 0)
(0.178952 0.0594522 0)
(0.268146 -0.26343 0)
(0.34773 -0.326518 0)
(0.431294 -0.307681 0)
(0.433781 -0.302312 0)
(0.395537 -0.332911 0)
(0.238344 -0.14354 0)
(0.00408971 -0.0398403 0)
(-0.308209 0.0205542 0)
(-0.646167 0.295988 0)
(-0.678694 0.23249 0)
(-0.520054 -0.0080491 0)
(-0.256936 -0.0789486 0)
(0.0975008 0.111567 0)
(0.0280103 0.135617 0)
(-0.0452284 0.0736904 0)
(-0.0248054 -0.101881 0)
(0.232115 0.12671 0)
(0.299726 0.355273 0)
(0.389404 0.50291 0)
(0.340076 0.181598 0)
(0.365138 0.219715 0)
(0.383816 0.27556 0)
(0.32241 0.36047 0)
(0.202835 0.343385 0)
(0.000457242 0.651772 0)
(-0.131603 0.874125 0)
(-0.333583 0.758447 0)
(-0.530078 0.463501 0)
(-0.568862 0.322663 0)
(-0.507803 -0.00514891 0)
(-0.407839 -0.106902 0)
(-0.115452 0.0341311 0)
(0.00234543 0.167649 0)
(-0.0368751 0.122326 0)
(0.0143604 -0.0154072 0)
(0.0843106 0.0383697 0)
(-0.0863377 0.0852699 0)
(0.0202561 -0.194305 0)
(0.0502491 -0.286966 0)
(0.136014 -0.23337 0)
(0.187807 -0.225314 0)
(0.145635 -0.14628 0)
(0.111042 -0.0940268 0)
(0.0640511 -0.24375 0)
(0.000458008 0.16331 0)
(-0.0955158 0.285007 0)
(-0.305806 0.135653 0)
(-0.363525 -0.0932087 0)
(-0.393233 -0.226846 0)
(-0.414216 -0.213148 0)
(-0.298723 -0.0315003 0)
(-0.0551707 0.126731 0)
(-0.0469166 0.0960322 0)
(0.0329559 -0.0758592 0)
(0.0217425 0.118526 0)
(-0.026339 0.155116 0)
(0.154564 0.174873 0)
(0.114355 0.0669128 0)
(0.15819 0.0669278 0)
(0.205287 0.235326 0)
(0.0445976 0.267367 0)
(-0.0500128 0.245507 0)
(-0.0762565 0.235814 0)
(-0.0725941 0.484957 0)
(-0.0185564 0.437979 0)
(-0.138651 0.168218 0)
(-0.236063 -0.107671 0)
(-0.291196 -0.256097 0)
(-0.3317 -0.212893 0)
(-0.358228 -0.0181442 0)
(-0.123558 0.0679073 0)
(-0.0502853 0.0654296 0)
(0.0487722 -0.0330472 0)
(0.116678 0.0917907 0)
(-0.0062109 0.125077 0)
(0.174298 0.0327489 0)
(0.147118 0.0436443 0)
(0.0525815 0.00838664 0)
(0.0156335 0.0651709 0)
(0.0149026 0.034402 0)
(-0.106283 0.05046 0)
(-0.118691 0.116383 0)
(-0.109242 0.317285 0)
(-0.0189093 0.422515 0)
(0.00352115 0.331554 0)
(-0.231533 -0.0585623 0)
(-0.259988 -0.226284 0)
(-0.284074 -0.204255 0)
(-0.420429 0.0867877 0)
(-0.281381 0.20758 0)
(-0.0667087 0.0998934 0)
(0.0513274 -0.0467637 0)
(0.138862 0.0717592 0)
(0.00924527 0.119003 0)
(0.186891 0.0446586 0)
(0.137731 0.142705 0)
(0.197111 0.245377 0)
(0.00636812 0.300365 0)
(-0.0992519 0.222411 0)
(-0.176536 0.191617 0)
(-0.237431 0.319253 0)
(-0.223169 0.480467 0)
(-0.081764 0.531285 0)
(0.0843449 0.577356 0)
(-0.114893 0.207927 0)
(-0.25953 0.0155407 0)
(-0.235112 -0.0706587 0)
(-0.340337 -0.116749 0)
(-0.459699 0.0639662 0)
(-0.219128 0.118602 0)
(-0.00729161 0.0638985 0)
(-0.121604 -0.139194 0)
(-0.428476 0.267571 0)
(-1.73809 0.886304 0)
(-1.8433 1.41394 0)
(-1.98347 1.49978 0)
(-1.90965 1.37464 0)
(-0.784098 -0.622081 0)
(-1.06774 -0.331355 0)
(-0.310946 -0.517033 0)
(-0.208562 -0.412307 0)
(-0.0782531 -0.290802 0)
(0.229689 -0.319073 0)
(-0.668934 0.695683 0)
(-0.768228 0.565972 0)
(-0.812856 0.344186 0)
(-1.02595 0.40098 0)
(-1.73846 0.485413 0)
(-1.67652 0.37343 0)
(-1.2556 0.31576 0)
(-1.05167 0.174055 0)
(-2.11495 1.73882 0)
(-1.95892 1.35926 0)
(-1.85371 0.861953 0)
(-1.66033 0.456555 0)
(-1.83314 1.89986 0)
(-1.66924 1.14589 0)
(-1.37318 0.255329 0)
(-1.50061 0.117717 0)
(-1.1274 0.370684 0)
(-0.938399 0.0540366 0)
(-0.974978 -0.123265 0)
(-1.1946 -0.102761 0)
(-0.613614 -0.547233 0)
(-0.677388 -0.256305 0)
(-0.872389 0.36456 0)
(-0.994795 0.609814 0)
(-1.22427 1.15068 0)
(-1.92781 0.627878 0)
(-1.84152 0.0494555 0)
(-1.58395 -0.156287 0)
(-1.72109 -0.297445 0)
(-1.4628 -0.299906 0)
(-1.39229 -0.385716 0)
(-1.36615 -0.423601 0)
(-1.28174 0.040318 0)
(-1.33352 0.0327906 0)
(-1.35592 -0.0652707 0)
(-1.35649 -0.183413 0)
(-1.58628 -0.10103 0)
(-1.55322 -0.157828 0)
(-1.47626 -0.277504 0)
(-1.39804 -0.336355 0)
(-1.00932 -0.00979774 0)
(-1.14301 -0.0901146 0)
(-1.11837 -0.268819 0)
(-1.11411 -0.381561 0)
(-0.50287 0.0829802 0)
(-0.64418 -0.0849301 0)
(-0.588352 -0.311326 0)
(-0.671225 -0.447198 0)
(0.626596 0.23799 0)
(0.537626 0.133734 0)
(0.586515 -0.0512722 0)
(0.445008 -0.166263 0)
(1.20015 0.180973 0)
(1.19319 0.106452 0)
(1.19708 -0.0448755 0)
(1.16452 -0.128001 0)
(1.37595 0.155082 0)
(1.40135 0.0981698 0)
(1.39283 0.0169213 0)
(1.35669 -0.054942 0)
(1.31201 0.142747 0)
(1.35588 0.0948265 0)
(1.35337 0.0693477 0)
(1.33202 0.0239974 0)
(0.166621 0.232883 0)
(-0.0835076 0.264482 0)
(0.0903691 0.0489877 0)
(0.0507714 0.12137 0)
(-0.0555517 0.19661 0)
(-0.160216 0.224333 0)
(-0.150855 0.270117 0)
(-0.301023 0.397943 0)
(-0.334451 0.411986 0)
(-0.267091 0.441679 0)
(-0.0932204 0.550218 0)
(0.153584 0.727753 0)
(0.11882 0.483264 0)
(-0.108339 0.134585 0)
(-0.308884 0.0313371 0)
(-0.341431 0.103472 0)
(-0.346506 0.0522108 0)
(-0.421222 -0.131662 0)
(-0.130923 -0.364663 0)
(-1.05032 0.270448 0)
(-0.648495 0.253071 0)
(-0.369073 0.0737108 0)
(-0.167886 0.129793 0)
(-0.160324 0.248436 0)
(-0.333144 0.469149 0)
(-0.475275 0.440085 0)
(-0.478947 0.617956 0)
(-0.416914 0.429217 0)
(-0.301732 0.37076 0)
(-0.185212 0.436324 0)
(-0.0151643 0.610808 0)
(0.0377959 0.703602 0)
(-0.0953442 0.31383 0)
(-0.297285 0.107647 0)
(-0.49371 0.201063 0)
(-0.589224 0.0587051 0)
(-0.310462 -0.644406 0)
(-0.0410753 -0.774034 0)
(-1.0529 0.115442 0)
(-0.884985 -0.0304027 0)
(-0.730776 -0.248266 0)
(-0.54722 -0.136912 0)
(-0.505234 0.141762 0)
(-0.609375 0.357343 0)
(-0.66379 0.517959 0)
(-0.612867 0.549953 0)
(-0.472907 0.389065 0)
(-0.336409 0.235195 0)
(-0.233759 0.324296 0)
(-0.145248 0.491076 0)
(-0.0375809 0.722538 0)
(-0.0597458 0.554532 0)
(-0.0896598 0.264917 0)
(-0.130589 0.0479909 0)
(-0.155206 -0.154352 0)
(-0.151435 -0.58729 0)
(0.0211239 -0.74253 0)
(-1.37854 0.158229 0)
(-1.10924 -0.134719 0)
(-0.988721 -0.468125 0)
(-0.90354 -0.399873 0)
(-0.866879 -0.121655 0)
(-0.858871 0.250561 0)
(-0.796764 0.375631 0)
(-0.624767 0.248256 0)
(-0.481471 0.137908 0)
(-0.394191 0.0167533 0)
(-0.321258 0.198773 0)
(-0.297074 0.425788 0)
(-0.30643 0.646375 0)
(-0.208726 0.621783 0)
(-0.15497 0.0369858 0)
(-0.114625 -0.249286 0)
(-0.0223761 -0.43099 0)
(-0.0289265 -0.634252 0)
(0.0355621 -0.787319 0)
(-1.42369 0.10173 0)
(-1.24182 -0.0900304 0)
(-1.12189 -0.382092 0)
(-1.05818 -0.425331 0)
(-1.00851 -0.210079 0)
(-0.889772 0.121004 0)
(-0.775179 0.232102 0)
(-0.648707 0.0884684 0)
(-0.53695 -0.0685425 0)
(-0.477396 -0.109428 0)
(-0.42745 0.00600971 0)
(-0.477279 0.300679 0)
(-0.523767 0.502398 0)
(-0.395294 0.495418 0)
(-0.194812 -0.0252729 0)
(-0.123036 -0.246132 0)
(0.0358805 -0.342431 0)
(0.0299259 -0.583494 0)
(0.0590018 -0.590649 0)
(-1.31062 -0.163686 0)
(-1.40252 -0.123108 0)
(-1.35785 -0.246972 0)
(-1.25844 -0.317673 0)
(-1.23478 -0.145742 0)
(-1.16443 0.147977 0)
(-1.03689 0.26544 0)
(-0.848763 0.162961 0)
(-0.740573 -0.0305424 0)
(-0.717625 -0.142725 0)
(-0.725227 -0.116951 0)
(-0.726836 -0.009607 0)
(-0.661935 0.162843 0)
(-0.477126 0.188756 0)
(-0.257509 -0.0351468 0)
(-0.106268 -0.262327 0)
(0.134409 -0.0854744 0)
(0.0959806 -0.238432 0)
(0.0691879 -0.208701 0)
(-1.44418 0.273833 0)
(-1.4597 -0.369944 0)
(-1.52561 -0.435812 0)
(-1.48139 -0.35677 0)
(-1.42218 -0.226305 0)
(-1.33604 0.0227961 0)
(-1.23823 0.181915 0)
(-1.19848 0.238846 0)
(-1.13011 0.198674 0)
(-0.997046 0.00612189 0)
(-0.920186 -0.10615 0)
(-0.811513 -0.123954 0)
(-0.61525 -0.0663075 0)
(-0.375328 0.0524664 0)
(-0.0974048 0.110762 0)
(-0.0298074 0.0443192 0)
(0.0285866 0.093934 0)
(0.0250476 -0.0280412 0)
(0.00827152 -0.027444 0)
(-1.43597 -0.261442 0)
(-1.42366 -0.268194 0)
(-1.47443 -0.568226 0)
(-1.53461 -0.512624 0)
(-1.59309 -0.311198 0)
(-1.48958 -0.0608228 0)
(-1.36096 0.119594 0)
(-1.27675 0.172843 0)
(-1.1806 0.149196 0)
(-0.99569 0.0799664 0)
(-0.801518 -0.0957449 0)
(-0.649557 -0.17856 0)
(-0.461521 -0.0595712 0)
(-0.21946 0.134173 0)
(-0.073581 0.250898 0)
(-0.124528 0.151548 0)
(-0.133562 -0.0492979 0)
(-0.192739 -0.228183 0)
(-0.0345685 -0.217561 0)
(-1.2999 -0.544593 0)
(-1.23618 -0.714684 0)
(-1.43582 -0.653391 0)
(-1.48837 -0.606454 0)
(-1.55345 -0.416626 0)
(-1.51742 -0.172822 0)
(-1.28753 -0.0231984 0)
(-1.11624 0.05169 0)
(-0.958477 0.0347597 0)
(-0.821485 0.0109059 0)
(-0.682398 -0.00932821 0)
(-0.526984 -0.0446921 0)
(-0.348837 0.0977446 0)
(-0.254768 0.1511 0)
(-0.252045 -0.0354435 0)
(-0.206177 -0.232459 0)
(-0.236292 0.0851326 0)
(-0.496282 0.24797 0)
(-0.0724274 -0.249619 0)
(-1.34165 -0.369109 0)
(-1.27112 -0.611973 0)
(-1.28343 -0.694544 0)
(-1.44471 -0.579693 0)
(-1.42234 -0.554081 0)
(-1.4542 -0.32356 0)
(-1.33395 -0.133566 0)
(-1.09176 -0.0598795 0)
(-0.914669 -0.0720589 0)
(-0.777771 -0.0776556 0)
(-0.642298 -0.06799 0)
(-0.539691 -0.0715671 0)
(-0.490222 -0.132522 0)
(-0.441241 -0.226299 0)
(-0.450653 0.446965 0)
(-1.0839 0.706412 0)
(-1.11568 -0.287941 0)
(-0.531842 -0.972699 0)
(-0.12922 -0.847382 0)
(-1.3687 -0.483231 0)
(-1.23096 -0.648282 0)
(-1.15441 -0.697759 0)
(-1.127 -0.67402 0)
(-1.31924 -0.487003 0)
(-1.28099 -0.468904 0)
(-1.29282 -0.337694 0)
(-1.17961 -0.184033 0)
(-0.980175 -0.170513 0)
(-0.776805 -0.20529 0)
(-0.665846 -0.230669 0)
(-0.59504 -0.316522 0)
(-0.553728 -0.0708911 0)
(-1.11127 0.530006 0)
(-1.76644 -0.291442 0)
(-1.27829 -0.912602 0)
(-0.657266 -1.13263 0)
(-0.425176 -1.39058 0)
(-0.198803 -1.5503 0)
(-1.11095 -0.589608 0)
(-1.03087 -0.783394 0)
(-0.880555 -0.810258 0)
(-0.793565 -0.698847 0)
(-0.745799 -0.560256 0)
(-0.904907 -0.264181 0)
(-1.01179 -0.318734 0)
(-1.00141 -0.485026 0)
(-0.942757 -0.426899 0)
(-0.817826 -0.423988 0)
(-0.690709 -0.42839 0)
(-0.811712 0.0516249 0)
(-1.54741 0.144009 0)
(-1.71734 -0.132632 0)
(-1.35952 -0.12076 0)
(-0.945504 -0.453816 0)
(-0.56825 -0.989139 0)
(-0.358425 -1.36612 0)
(-0.123946 -1.5879 0)
(-0.572357 -0.74991 0)
(-0.605684 -0.951079 0)
(-0.487738 -0.99634 0)
(-0.401711 -0.742228 0)
(-0.333767 -0.619817 0)
(-0.322875 -0.570832 0)
(-0.444438 -0.307349 0)
(-0.623546 -0.147067 0)
(-0.803551 -0.331289 0)
(-0.917616 -0.416154 0)
(-1.2033 0.0416813 0)
(-1.44008 0.0384836 0)
(-1.48731 0.0351961 0)
(-1.34624 0.0322051 0)
(-0.965753 -0.569329 0)
(-0.602437 -1.24915 0)
(-0.189469 -1.5015 0)
(-0.158238 -1.61605 0)
(-0.0231325 -1.82636 0)
(0.421387 -0.501213 0)
(0.163478 -0.824105 0)
(-0.0391842 -0.976405 0)
(-0.100035 -0.932454 0)
(0.00572492 -0.62092 0)
(0.0169024 -0.352667 0)
(0.0138034 -0.361894 0)
(-0.0222895 -0.459499 0)
(-0.0916783 -0.178154 0)
(-0.655875 0.039281 0)
(-0.889847 -0.254267 0)
(-0.889531 -0.179347 0)
(-0.893907 -0.0615237 0)
(-0.703445 -0.419174 0)
(-0.332807 -0.996848 0)
(-0.189698 -1.44746 0)
(0.0114044 -1.60065 0)
(0.00324735 -1.60749 0)
(0.0400986 -1.8412 0)
(1.09988 -0.355341 0)
(0.836307 -0.546157 0)
(0.548874 -0.68806 0)
(0.32719 -0.734994 0)
(0.181058 -0.693185 0)
(0.209115 -0.498737 0)
(0.240621 -0.332075 0)
(0.233205 -0.297751 0)
(0.240269 -0.249352 0)
(0.341062 -0.145256 0)
(0.58647 0.0525532 0)
(0.269668 0.0114868 0)
(0.0122299 -0.115184 0)
(-0.0298968 -0.442319 0)
(0.0812441 -0.991297 0)
(0.174132 -1.4311 0)
(0.16779 -1.63051 0)
(0.111557 -1.57172 0)
(0.089054 -1.74271 0)
(1.29119 -0.184193 0)
(1.05929 -0.346963 0)
(0.785271 -0.574525 0)
(0.585583 -0.649561 0)
(0.417278 -0.530074 0)
(0.342582 -0.436934 0)
(0.293896 -0.351863 0)
(0.3188 -0.300749 0)
(0.214122 -0.252254 0)
(0.153666 -0.244153 0)
(0.344628 -0.0190122 0)
(0.331376 0.285381 0)
(0.242394 0.154554 0)
(0.258367 -0.409791 0)
(0.428718 -1.07834 0)
(0.457876 -1.48922 0)
(0.356375 -1.53367 0)
(0.17032 -1.48636 0)
(0.0452984 -1.64337 0)
(1.28026 -0.0248345 0)
(1.12238 -0.143334 0)
(0.905094 -0.321658 0)
(0.671525 -0.428804 0)
(0.506021 -0.454757 0)
(0.438029 -0.358451 0)
(0.349877 -0.301399 0)
(0.340397 -0.186149 0)
(0.189367 -0.127483 0)
(0.0517622 -0.238955 0)
(-0.00090821 -0.0885488 0)
(0.30448 0.125641 0)
(0.402994 -0.0183107 0)
(0.679115 -0.560695 0)
(0.75542 -1.12665 0)
(0.65438 -1.40177 0)
(0.51508 -1.39296 0)
(0.262737 -1.29568 0)
(0.131168 -1.52563 0)
)
;

boundaryField
{
    leftWall
    {
        type            fixedValue;
        value           nonuniform 0();
    }
    rightWall
    {
        type            fixedValue;
        value           uniform (0 0 0);
    }
    lowerWall
    {
        type            fixedValue;
        value           uniform (0 0 0);
    }
    atmosphere
    {
        type            fluxCorrectedVelocity;
        value           nonuniform 0();
    }
    defaultFaces
    {
        type            empty;
    }
    procBoundary1to0
    {
        type            processor;
        value           nonuniform List<vector> 
26
(
(-0.0306283 0.00148329 0)
(-0.00867957 -0.0079432 0)
(-0.00110688 -0.0101528 0)
(-0.00602205 -0.0314068 0)
(-0.0245784 -0.0101037 0)
(0.00103548 -0.0344404 0)
(-0.101892 -0.0946149 0)
(-0.233387 -0.0375971 0)
(0.132857 0.0756661 0)
(-0.18971 0.564179 0)
(-0.974185 0.673352 0)
(-1.26677 1.00502 0)
(-2.46492 1.1177 0)
(-2.76418 0.601467 0)
(-1.39098 -0.467988 0)
(-1.23624 -0.532583 0)
(-1.85795 0.167615 0)
(-1.85795 0.167615 0)
(-1.21978 -0.190074 0)
(-1.59322 0.113897 0)
(-1.01357 0.230863 0)
(-0.501803 0.267319 0)
(0.529347 0.425662 0)
(1.12883 0.373711 0)
(1.32834 0.285404 0)
(1.25387 0.173628 0)
)
;
    }
    procBoundary1to3
    {
        type            processor;
        value           nonuniform List<vector> 
23
(
(1.07388 0.0236314 0)
(1.12478 0.0299795 0)
(1.1483 0.0395503 0)
(1.14531 0.0409544 0)
(1.11355 0.0495464 0)
(1.01473 0.0224394 0)
(0.873835 -0.176288 0)
(0.708973 -0.307693 0)
(0.575794 -0.332663 0)
(0.472189 -0.303964 0)
(0.448618 -0.259047 0)
(0.432859 -0.191097 0)
(0.464433 -0.0376082 0)
(0.478704 -0.0860962 0)
(0.386359 -0.22906 0)
(0.48623 -0.17574 0)
(0.653143 -0.272737 0)
(0.878545 -0.651698 0)
(0.889895 -1.04857 0)
(0.718997 -1.23795 0)
(0.538952 -1.22573 0)
(0.296833 -1.13642 0)
(0.186623 -1.28254 0)
)
;
    }
}


// ************************************************************************* //
