/*--------------------------------*- C++ -*----------------------------------*\
| =========                 |                                                 |
| \\      /  F ield         | OpenFOAM: The Open Source CFD Toolbox           |
|  \\    /   O peration     | Version:  2.4.0                                 |
|   \\  /    A nd           | Web:      www.OpenFOAM.org                      |
|    \\/     M anipulation  |                                                 |
\*---------------------------------------------------------------------------*/
FoamFile
{
    version     2.0;
    format      ascii;
    class       volVectorField;
    location    "0.9";
    object      U.oil;
}
// * * * * * * * * * * * * * * * * * * * * * * * * * * * * * * * * * * * * * //

dimensions      [0 1 -1 0 0 0 0];

internalField   nonuniform List<vector> 
559
(
(-0.0238614 0.000670289 0)
(-0.0025602 -0.00792978 0)
(0.00236166 0.005323 0)
(0.00403579 -0.0178545 0)
(-0.00729197 0.0311746 0)
(-0.01903 -0.0141364 0)
(-0.111502 0.252149 0)
(-0.166538 -0.22192 0)
(-0.000933816 -0.0438744 0)
(0.224813 -0.131186 0)
(0.298273 -0.193776 0)
(0.335444 -0.242064 0)
(0.357432 -0.280096 0)
(0.367666 -0.291116 0)
(0.362324 -0.282596 0)
(0.369549 -0.251444 0)
(0.379348 -0.219564 0)
(0.386216 -0.187192 0)
(0.353285 -0.135886 0)
(0.324573 -0.06933 0)
(0.319812 -0.0430337 0)
(0.334263 -0.00471529 0)
(0.309928 0.0485309 0)
(0.197358 0.106335 0)
(0.0454625 0.125141 0)
(-0.0910395 0.0948712 0)
(-0.0489458 0.0533742 0)
(0.0420897 0.185144 0)
(0.267966 0.242708 0)
(0.381842 0.39114 0)
(0.448134 0.447898 0)
(0.489164 0.510049 0)
(0.467196 0.511266 0)
(0.424555 0.492982 0)
(0.404939 0.44425 0)
(0.406783 0.408907 0)
(0.397233 0.379729 0)
(0.341729 0.362913 0)
(0.218522 0.352621 0)
(0.0993847 0.326343 0)
(0.0834019 0.310867 0)
(0.190072 0.3272 0)
(0.139674 0.332123 0)
(0.0281865 0.31165 0)
(-0.0682754 0.281321 0)
(-0.0868816 0.201106 0)
(0.192121 0.0578446 0)
(0.133931 -0.220282 0)
(0.201415 -0.299101 0)
(0.263358 -0.332433 0)
(0.348728 -0.336368 0)
(0.432922 -0.317704 0)
(0.430314 -0.276196 0)
(0.388706 -0.253514 0)
(0.297608 -0.22222 0)
(0.179151 -0.171899 0)
(-0.0587203 -0.00687094 0)
(-0.516578 0.142355 0)
(-0.575471 0.066246 0)
(-0.490438 0.0115839 0)
(-0.257249 0.0238253 0)
(0.0591464 0.216852 0)
(-0.0119636 0.266917 0)
(-0.0605414 0.195775 0)
(-0.0322523 0.0300769 0)
(0.149657 -0.397923 0)
(0.106972 -0.0952624 0)
(0.194063 0.0902072 0)
(0.244725 0.153009 0)
(0.340647 0.239246 0)
(0.388634 0.335324 0)
(0.328061 0.380253 0)
(0.246993 0.347819 0)
(0.115469 0.352979 0)
(-0.00910644 0.40792 0)
(-0.183823 0.467632 0)
(-0.538094 0.35903 0)
(-0.542868 0.167163 0)
(-0.506803 0.0798475 0)
(-0.435601 0.0310939 0)
(-0.167507 0.150847 0)
(-0.0397068 0.307837 0)
(-0.0540938 0.258585 0)
(0.00517443 0.123034 0)
(0.0734962 -0.413334 0)
(-0.116444 -0.148293 0)
(-0.0186258 -0.222761 0)
(0.0401103 -0.282454 0)
(0.133476 -0.277198 0)
(0.183415 -0.220095 0)
(0.144699 -0.13556 0)
(0.106819 -0.0658873 0)
(0.0774805 -0.000889678 0)
(0.0172996 0.139095 0)
(-0.0595873 0.405393 0)
(-0.367006 0.402792 0)
(-0.410402 0.0688989 0)
(-0.449042 -0.0376835 0)
(-0.47017 -0.124181 0)
(-0.356864 0.0773122 0)
(-0.0961168 0.258473 0)
(-0.0670853 0.223613 0)
(0.0230632 0.0482707 0)
(0.0254485 -0.248989 0)
(-0.136604 -0.130381 0)
(0.00594356 -0.107455 0)
(0.0534219 -0.0884033 0)
(0.123305 -0.00912856 0)
(0.199466 0.165331 0)
(0.0539156 0.26886 0)
(-0.0483697 0.257277 0)
(-0.0778589 0.264244 0)
(-0.0794346 0.307866 0)
(-0.0138158 0.466083 0)
(-0.125201 0.445779 0)
(-0.275202 0.139882 0)
(-0.382346 -0.0320141 0)
(-0.41051 -0.105612 0)
(-0.399052 -0.0496625 0)
(-0.159463 0.17316 0)
(-0.0701889 0.201575 0)
(0.0408304 0.0933817 0)
(0.093422 -0.203614 0)
(-0.13572 -0.134795 0)
(-0.00460441 -0.204675 0)
(0.00793646 -0.213667 0)
(0.0188404 -0.206014 0)
(0.0458668 -0.108938 0)
(0.0154448 0.058287 0)
(-0.114256 0.090159 0)
(-0.124532 0.119638 0)
(-0.111419 0.234227 0)
(-0.0195639 0.461572 0)
(0.0108199 0.467134 0)
(-0.241524 0.0997933 0)
(-0.354086 -0.129072 0)
(-0.364119 -0.159724 0)
(-0.442967 -0.0439514 0)
(-0.253515 0.105508 0)
(-0.0843313 0.149941 0)
(0.0419764 0.0321264 0)
(0.127195 -0.203621 0)
(-0.124163 -0.113484 0)
(-0.0238413 -0.20998 0)
(-0.027376 -0.185694 0)
(0.0436082 -0.130957 0)
(-0.0297489 0.0950043 0)
(-0.0512972 0.191359 0)
(-0.17285 0.203919 0)
(-0.196547 0.177723 0)
(-0.183332 0.212367 0)
(-0.0721995 0.413124 0)
(0.0888213 0.502598 0)
(-0.147464 0.225787 0)
(-0.320659 -0.10863 0)
(-0.336965 -0.220256 0)
(-0.417541 -0.1154 0)
(-0.385096 -0.0121665 0)
(-0.164766 0.0554835 0)
(-0.00864616 0.0773773 0)
(-0.10949 -0.013109 0)
(-0.0896601 0.2981 0)
(-0.935042 0.429995 0)
(-1.08061 0.663863 0)
(-1.21434 0.694484 0)
(-1.24613 -0.880967 0)
(-1.04917 -0.863906 0)
(-1.07841 -0.912853 0)
(-0.270538 -0.574736 0)
(-0.145063 -0.672284 0)
(-0.114938 -0.569568 0)
(0.0414019 -0.513671 0)
(-0.328319 0.538925 0)
(-0.538556 0.403197 0)
(-0.67881 0.183774 0)
(-0.844899 0.175537 0)
(-1.228 0.450242 0)
(-1.37849 0.359049 0)
(-1.40644 0.332855 0)
(-1.36503 0.0502476 0)
(-1.68742 0.84695 0)
(-1.97064 0.451471 0)
(-1.79259 -0.0323553 0)
(-1.5599 -0.242871 0)
(-1.52272 0.878223 0)
(-1.73338 0.254523 0)
(-1.32542 -0.53864 0)
(-1.21097 -0.655811 0)
(-1.04563 -0.807368 0)
(-0.994262 -0.810394 0)
(-0.987096 -0.882366 0)
(-1.00537 -0.896409 0)
(-0.974296 -0.847713 0)
(-1.00003 -0.915984 0)
(-1.23725 -1.21382 0)
(-1.29235 -1.27813 0)
(-2.78988 -2.87454 0)
(-0.758414 -0.651328 0)
(-1.13126 -0.695573 0)
(-1.29455 -1.04796 0)
(-0.923676 -0.853383 0)
(-1.43846 -0.4061 0)
(-1.36093 -0.43392 0)
(-1.32079 -0.490405 0)
(-1.27745 0.0178833 0)
(-1.3259 0.00296887 0)
(-1.34056 -0.102679 0)
(-1.32794 -0.228981 0)
(-1.57384 -0.126119 0)
(-1.53254 -0.188171 0)
(-1.45652 -0.312523 0)
(-1.37298 -0.371964 0)
(-1.00658 -0.0486509 0)
(-1.13285 -0.136505 0)
(-1.09432 -0.321533 0)
(-1.08527 -0.439527 0)
(-0.510354 0.0509187 0)
(-0.652206 -0.116688 0)
(-0.569723 -0.350631 0)
(-0.620298 -0.507377 0)
(0.611421 0.253569 0)
(0.532879 0.15055 0)
(0.599265 -0.0306289 0)
(0.472908 -0.146471 0)
(1.18995 0.211618 0)
(1.18987 0.140526 0)
(1.20711 -0.008824 0)
(1.17926 -0.090136 0)
(1.36533 0.204591 0)
(1.3973 0.135311 0)
(1.39986 0.0528101 0)
(1.37213 -0.0187871 0)
(1.26268 0.252503 0)
(1.27654 0.215945 0)
(1.31339 0.184588 0)
(1.33909 0.107566 0)
(0.0197624 -0.102363 0)
(-0.216424 -0.0202666 0)
(-0.151189 -0.213047 0)
(-0.142793 -0.193604 0)
(-0.128822 -0.146537 0)
(-0.141839 -0.0571253 0)
(-0.117325 0.194001 0)
(-0.241046 0.239678 0)
(-0.275349 0.162199 0)
(-0.241377 0.169772 0)
(-0.11261 0.282559 0)
(0.0770956 0.487589 0)
(0.0679128 0.389307 0)
(-0.135616 0.048594 0)
(-0.345146 -0.126104 0)
(-0.392902 -0.117427 0)
(-0.396317 0.131699 0)
(-0.371533 0.208658 0)
(-0.097676 0.125687 0)
(-0.863886 0.0273239 0)
(-0.686139 -0.08018 0)
(-0.60534 -0.239499 0)
(-0.391608 -0.222542 0)
(-0.309764 -0.130784 0)
(-0.312202 0.0630313 0)
(-0.319893 0.224975 0)
(-0.332701 0.251663 0)
(-0.35289 0.158261 0)
(-0.295219 0.105544 0)
(-0.194403 0.160478 0)
(-0.0229507 0.341184 0)
(0.0714232 0.41802 0)
(-0.0882218 0.210964 0)
(-0.356692 -0.0413906 0)
(-0.520009 -0.174577 0)
(-0.521405 -0.301493 0)
(-0.324933 -0.454384 0)
(-0.10752 -0.517553 0)
(-1.20793 -0.147806 0)
(-0.998266 -0.292552 0)
(-0.882385 -0.463755 0)
(-0.721677 -0.425652 0)
(-0.605723 -0.214529 0)
(-0.535829 0.0507094 0)
(-0.503522 0.210219 0)
(-0.470495 0.219354 0)
(-0.416956 0.134743 0)
(-0.353887 0.0349385 0)
(-0.257891 0.0487139 0)
(-0.153882 0.188198 0)
(0.00321169 0.391018 0)
(-0.0504077 0.399518 0)
(-0.13464 0.221264 0)
(-0.18841 0.0556421 0)
(-0.217952 -0.103234 0)
(-0.185904 -0.35676 0)
(-0.00192797 -0.469798 0)
(-1.34605 -0.390385 0)
(-1.13651 -0.498715 0)
(-1.00979 -0.571145 0)
(-0.917492 -0.507152 0)
(-0.855892 -0.303717 0)
(-0.753725 0.0124377 0)
(-0.667685 0.140395 0)
(-0.585529 0.140614 0)
(-0.481907 0.0552446 0)
(-0.407515 -0.022374 0)
(-0.362336 -0.0154043 0)
(-0.300472 0.110306 0)
(-0.198576 0.348846 0)
(-0.117513 0.394646 0)
(-0.138882 0.163674 0)
(-0.102239 -0.0821096 0)
(-0.0137386 -0.233759 0)
(-0.0275246 -0.504848 0)
(0.0385056 -0.559699 0)
(-1.2085 -0.621855 0)
(-1.19318 -0.606928 0)
(-1.12614 -0.623214 0)
(-1.06317 -0.545543 0)
(-1.00967 -0.337354 0)
(-0.889813 -0.0524748 0)
(-0.779798 0.0600077 0)
(-0.655709 0.0356494 0)
(-0.538299 -0.0430661 0)
(-0.482677 -0.0841543 0)
(-0.462607 -0.0822301 0)
(-0.458592 0.00892256 0)
(-0.364689 0.239435 0)
(-0.277428 0.301439 0)
(-0.173651 0.164551 0)
(-0.103404 -0.0491072 0)
(0.0641871 -0.207782 0)
(0.0466348 -0.473411 0)
(0.0733787 -0.516334 0)
(-1.08474 -0.855571 0)
(-1.21849 -0.764876 0)
(-1.25511 -0.723043 0)
(-1.19328 -0.623579 0)
(-1.11977 -0.437797 0)
(-0.987635 -0.182539 0)
(-0.865082 -0.0722038 0)
(-0.761193 -0.0873435 0)
(-0.723959 -0.120151 0)
(-0.715218 -0.123001 0)
(-0.725942 -0.0901011 0)
(-0.738948 0.0208915 0)
(-0.631538 0.19011 0)
(-0.447203 0.208689 0)
(-0.249706 0.0506649 0)
(-0.109569 -0.247345 0)
(0.0778293 -0.322204 0)
(0.0492612 -0.473135 0)
(0.0631204 -0.478968 0)
(-1.28729 -1.24175 0)
(-1.27172 -0.991994 0)
(-1.30807 -0.862628 0)
(-1.29683 -0.726813 0)
(-1.25436 -0.520089 0)
(-1.1463 -0.299604 0)
(-1.06865 -0.195508 0)
(-1.0467 -0.148114 0)
(-1.04184 -0.11177 0)
(-1.00425 -0.0892662 0)
(-0.950962 -0.0721451 0)
(-0.838139 -0.0485101 0)
(-0.63092 0.00026281 0)
(-0.40595 -0.0263689 0)
(-0.201856 -0.169284 0)
(-0.128812 -0.313936 0)
(-0.0772215 -0.390408 0)
(-0.0589588 -0.52614 0)
(0.00967199 -0.488169 0)
(-1.47427 -1.22073 0)
(-1.29154 -1.05701 0)
(-1.26453 -0.968405 0)
(-1.28398 -0.822197 0)
(-1.312 -0.597383 0)
(-1.25411 -0.325489 0)
(-1.16191 -0.224233 0)
(-1.10736 -0.20285 0)
(-1.06533 -0.209832 0)
(-0.959454 -0.244545 0)
(-0.817727 -0.24502 0)
(-0.660338 -0.226734 0)
(-0.490448 -0.198444 0)
(-0.327781 -0.191635 0)
(-0.237847 -0.258523 0)
(-0.250402 -0.422721 0)
(-0.205854 -0.635309 0)
(-0.212928 -0.767268 0)
(-0.0298966 -0.703844 0)
(-1.2512 -0.659016 0)
(-1.15745 -1.02941 0)
(-1.17113 -0.978354 0)
(-1.22269 -0.866766 0)
(-1.26554 -0.708395 0)
(-1.27245 -0.475775 0)
(-1.13048 -0.314911 0)
(-0.990498 -0.294255 0)
(-0.90333 -0.325603 0)
(-0.819965 -0.336432 0)
(-0.730451 -0.333417 0)
(-0.611597 -0.324 0)
(-0.500136 -0.317931 0)
(-0.428181 -0.357232 0)
(-0.394549 -0.490771 0)
(-0.326139 -0.817522 0)
(-0.297277 -1.24652 0)
(-0.352576 -1.6406 0)
(0.00807875 -1.26427 0)
(-1.3179 -0.421612 0)
(-1.22673 -0.718319 0)
(-1.10813 -0.862038 0)
(-1.13796 -0.835041 0)
(-1.19301 -0.773239 0)
(-1.21835 -0.63051 0)
(-1.16678 -0.439813 0)
(-1.01914 -0.370744 0)
(-0.89131 -0.392203 0)
(-0.814366 -0.39429 0)
(-0.749242 -0.41361 0)
(-0.684513 -0.453718 0)
(-0.650619 -0.531765 0)
(-0.60838 -0.706654 0)
(-0.511354 -1.1731 0)
(-0.417598 -2.1206 0)
(-0.898781 -0.75424 0)
(-0.38202 -1.61308 0)
(0.0917032 -2.30264 0)
(-1.34883 -0.521601 0)
(-1.21434 -0.683121 0)
(-1.10868 -0.766532 0)
(-1.01773 -0.828277 0)
(-1.03398 -0.806284 0)
(-1.11445 -0.754878 0)
(-1.13914 -0.638037 0)
(-1.07841 -0.504316 0)
(-0.969849 -0.45706 0)
(-0.856477 -0.496527 0)
(-0.772497 -0.537926 0)
(-0.726155 -0.642457 0)
(-0.791267 -0.981912 0)
(-1.09367 -1.95344 0)
(-1.53379 -0.384419 0)
(-1.11586 -0.982348 0)
(-0.477457 -1.32906 0)
(-0.355683 -1.54246 0)
(-0.181576 -1.63989 0)
(-1.06305 -0.651208 0)
(-0.983676 -0.821806 0)
(-0.849652 -0.825706 0)
(-0.780343 -0.725058 0)
(-0.753727 -0.977442 0)
(-0.825211 -0.955107 0)
(-0.887885 -0.840017 0)
(-0.927769 -0.762822 0)
(-0.910941 -0.689713 0)
(-0.872324 -0.66705 0)
(-0.830351 -0.741734 0)
(-1.10796 -1.18564 0)
(-2.47533 -2.36668 0)
(-1.59643 -0.420806 0)
(-1.21706 -0.345179 0)
(-0.611425 -0.881329 0)
(-0.203936 -1.39963 0)
(-0.122971 -1.69739 0)
(-0.078406 -1.74861 0)
(-0.491368 -0.804647 0)
(-0.505532 -0.980837 0)
(-0.420565 -1.01257 0)
(-0.382724 -0.746211 0)
(-0.325042 -0.615417 0)
(-0.527569 -0.678071 0)
(-0.773982 -0.827034 0)
(-0.821356 -0.828775 0)
(-0.830409 -0.852587 0)
(-1.00541 -0.921874 0)
(-1.95392 -1.26637 0)
(-2.87996 -1.19108 0)
(-1.50564 -0.111156 0)
(-1.24601 -0.122407 0)
(-0.704812 -0.869419 0)
(-0.224028 -1.51623 0)
(0.136391 -1.74389 0)
(0.100922 -1.85995 0)
(0.00486855 -1.94755 0)
(0.487659 -0.485438 0)
(0.260435 -0.828678 0)
(0.0532366 -0.98053 0)
(-0.075112 -0.935641 0)
(0.0106301 -0.625213 0)
(-0.012797 -0.383939 0)
(-0.549764 -0.798364 0)
(-0.913939 -0.982213 0)
(-1.09334 -1.0837 0)
(-1.46001 -1.25729 0)
(-1.90142 -1.36815 0)
(-0.928307 -0.190524 0)
(-0.927329 -0.0962348 0)
(-0.696007 -0.475282 0)
(-0.246258 -1.11348 0)
(0.00341673 -1.5797 0)
(0.285549 -1.71524 0)
(0.262836 -1.74259 0)
(0.0873985 -1.92526 0)
(1.13405 -0.318638 0)
(0.899122 -0.52959 0)
(0.623248 -0.689475 0)
(0.360514 -0.750642 0)
(0.189385 -0.698218 0)
(0.210306 -0.501797 0)
(0.240785 -0.336299 0)
(0.234985 -0.306731 0)
(0.232966 -0.288701 0)
(0.306094 -0.206514 0)
(0.554407 -0.00504304 0)
(0.250424 -0.0234012 0)
(-0.029179 -0.140875 0)
(-0.0387801 -0.468679 0)
(0.148407 -0.996158 0)
(0.2439 -1.44449 0)
(0.305801 -1.72885 0)
(0.265622 -1.66283 0)
(0.124946 -1.76812 0)
(1.31889 -0.150965 0)
(1.10603 -0.326792 0)
(0.839311 -0.578055 0)
(0.617959 -0.660492 0)
(0.427925 -0.540834 0)
(0.343757 -0.439639 0)
(0.29401 -0.353478 0)
(0.318877 -0.303412 0)
(0.203351 -0.27246 0)
(0.125754 -0.270689 0)
(0.31389 -0.0317377 0)
(0.296201 0.273673 0)
(0.207273 0.139544 0)
(0.261809 -0.423577 0)
(0.457565 -1.06945 0)
(0.487879 -1.48619 0)
(0.373421 -1.54032 0)
(0.17507 -1.49635 0)
(0.0509676 -1.66708 0)
(1.31283 -0.00277998 0)
(1.14779 -0.155282 0)
(0.916338 -0.328083 0)
(0.69148 -0.438801 0)
(0.511461 -0.460057 0)
(0.438921 -0.360989 0)
(0.350189 -0.3029 0)
(0.340171 -0.188577 0)
(0.180395 -0.13887 0)
(0.0337934 -0.257316 0)
(-0.0160899 -0.0960152 0)
(0.278145 0.128776 0)
(0.3673 -0.0109421 0)
(0.679619 -0.544454 0)
(0.775275 -1.11065 0)
(0.678798 -1.39533 0)
(0.53542 -1.38853 0)
(0.281065 -1.29481 0)
(0.139285 -1.5449 0)
)
;

boundaryField
{
    leftWall
    {
        type            fixedValue;
        value           nonuniform 0();
    }
    rightWall
    {
        type            fixedValue;
        value           uniform (0 0 0);
    }
    lowerWall
    {
        type            fixedValue;
        value           uniform (0 0 0);
    }
    atmosphere
    {
        type            fluxCorrectedVelocity;
        value           nonuniform 0();
    }
    defaultFaces
    {
        type            empty;
    }
    procBoundary1to0
    {
        type            processor;
        value           nonuniform List<vector> 
26
(
(-0.0305094 0.00902164 0)
(-0.00848111 -0.000632052 0)
(-0.00105656 -0.00323609 0)
(-0.00565491 -0.0246297 0)
(-0.0245281 -0.00785272 0)
(0.00125584 -0.0305227 0)
(-0.106068 0.110833 0)
(-0.265509 0.0781984 0)
(0.119182 0.0216195 0)
(0.0360003 0.224811 0)
(-0.359611 -0.000470352 0)
(-0.604562 0.100149 0)
(-0.948362 0.377187 0)
(-1.23193 -0.667101 0)
(-1.28732 -0.804406 0)
(-1.16039 -0.820787 0)
(-1.0967 -1.00071 0)
(-1.0967 -1.00071 0)
(-1.19329 -0.199408 0)
(-1.59026 0.0926935 0)
(-1.01797 0.201619 0)
(-0.516761 0.241381 0)
(0.507446 0.435109 0)
(1.11672 0.399801 0)
(1.25918 0.37514 0)
(1.21172 0.278575 0)
)
;
    }
    procBoundary1to3
    {
        type            processor;
        value           nonuniform List<vector> 
23
(
(1.04603 0.0624038 0)
(1.11466 0.0784518 0)
(1.17171 0.0733691 0)
(1.15854 0.0558982 0)
(1.14264 0.0597034 0)
(1.04672 0.0265724 0)
(0.903888 -0.182631 0)
(0.723752 -0.313358 0)
(0.579557 -0.336486 0)
(0.472926 -0.305891 0)
(0.448775 -0.260042 0)
(0.432725 -0.192507 0)
(0.464079 -0.0402258 0)
(0.478152 -0.0918861 0)
(0.369428 -0.245553 0)
(0.461483 -0.183675 0)
(0.629865 -0.269238 0)
(0.872956 -0.629599 0)
(0.900245 -1.03509 0)
(0.732505 -1.23145 0)
(0.552915 -1.22849 0)
(0.311119 -1.14508 0)
(0.18628 -1.33243 0)
)
;
    }
}


// ************************************************************************* //
