/*--------------------------------*- C++ -*----------------------------------*\
| =========                 |                                                 |
| \\      /  F ield         | OpenFOAM: The Open Source CFD Toolbox           |
|  \\    /   O peration     | Version:  2.4.0                                 |
|   \\  /    A nd           | Web:      www.OpenFOAM.org                      |
|    \\/     M anipulation  |                                                 |
\*---------------------------------------------------------------------------*/
FoamFile
{
    version     2.0;
    format      ascii;
    class       volScalarField;
    location    "0.65";
    object      alpha.oil;
}
// * * * * * * * * * * * * * * * * * * * * * * * * * * * * * * * * * * * * * //

dimensions      [0 0 0 0 0 0 0];

internalField   nonuniform List<scalar> 
559
(
5.1875e-08
3.41713e-08
1.64159e-08
8.72643e-09
2.96325e-09
8.52391e-10
2.97082e-10
2.91255e-17
5.07528e-16
4.9725e-15
2.44595e-14
8.44915e-14
3.53114e-13
1.72687e-12
6.98663e-12
2.14376e-11
5.18664e-11
7.84316e-11
1.45235e-10
3.18031e-09
1.47082e-08
1.39593e-08
3.17981e-08
3.32267e-08
2.17555e-08
1.17773e-08
6.27445e-09
2.38083e-09
6.58632e-10
1.51726e-10
5.53752e-18
7.54406e-17
7.15661e-16
3.90971e-15
1.97218e-14
1.18884e-13
6.42376e-13
2.65183e-12
8.06115e-12
1.74582e-11
2.53177e-11
4.25346e-11
5.18948e-10
2.82389e-09
1.2145e-08
1.27672e-08
1.83151e-08
1.2459e-08
6.7231e-09
3.29354e-09
1.38684e-09
4.15547e-10
9.96209e-11
4.13633e-19
3.73174e-18
4.32836e-17
3.86893e-16
3.41138e-15
2.56719e-14
1.46695e-13
6.22519e-13
1.90449e-12
4.03404e-12
6.11833e-12
1.3227e-11
6.8993e-11
9.78131e-10
2.245e-09
6.23471e-09
7.68935e-09
5.31962e-09
2.81899e-09
1.4058e-09
5.47538e-10
1.84164e-10
4.94756e-11
1.8179e-20
1.39426e-19
2.46616e-18
3.45005e-17
3.81125e-16
3.11624e-15
1.8752e-14
8.31194e-14
2.7217e-13
6.75826e-13
1.37667e-12
3.20078e-12
1.25301e-11
8.75617e-11
4.89162e-10
1.08679e-09
2.07213e-09
1.72864e-09
9.14391e-10
4.36564e-10
1.85029e-10
6.34137e-11
1.94955e-11
5.71689e-22
4.71936e-21
1.17545e-19
2.06467e-18
2.58316e-17
2.35554e-16
1.61124e-15
8.46129e-15
3.51465e-14
1.1936e-13
3.43137e-13
9.01639e-13
2.62974e-12
9.88758e-12
4.43856e-11
1.52957e-10
2.75905e-10
3.47305e-10
2.06082e-10
9.31541e-11
4.26689e-11
1.7083e-11
6.48313e-12
1.75304e-23
3.29923e-22
1.03023e-20
2.03961e-19
2.82357e-18
2.90405e-17
2.2925e-16
1.42277e-15
7.13584e-15
2.93692e-14
1.00235e-13
2.96531e-13
8.6228e-13
2.54484e-12
6.97005e-12
1.59927e-11
2.98545e-11
4.65746e-11
3.53342e-11
1.75285e-11
7.97859e-12
3.65514e-12
1.7585e-12
7.85205e-25
2.71997e-23
9.29347e-22
1.96772e-20
2.9223e-19
3.25079e-18
2.82336e-17
1.97303e-16
1.12956e-15
5.2253e-15
1.97413e-14
6.36486e-14
1.79756e-13
4.47212e-13
9.91054e-13
1.98511e-12
3.67309e-12
5.67203e-12
5.64415e-12
4.14629e-12
2.26416e-12
1.01106e-12
4.54723e-13
6.16453e-26
2.91314e-24
1.02931e-22
2.27358e-21
3.53809e-20
4.12599e-19
3.72543e-18
2.68642e-17
1.57688e-16
7.65342e-16
3.12469e-15
1.08137e-14
3.18152e-14
8.15313e-14
1.79538e-13
3.39646e-13
5.58103e-13
7.6089e-13
8.02042e-13
6.53014e-13
4.07173e-13
2.02266e-13
9.55991e-14
3.59649e-27
1.32775e-25
4.74031e-24
1.06538e-22
1.69681e-21
2.04202e-20
1.92126e-19
1.46143e-18
9.16578e-18
4.83462e-17
2.16316e-16
8.12031e-16
2.55961e-15
6.9395e-15
1.59709e-14
3.17114e-14
5.37743e-14
7.55262e-14
8.54872e-14
7.61113e-14
5.34471e-14
3.06558e-14
1.66303e-14
1.38094e-28
3.62985e-27
1.32231e-25
3.05622e-24
5.03773e-23
6.32161e-22
6.26273e-21
5.05569e-20
3.3782e-19
1.9015e-18
9.11827e-18
3.68763e-17
1.26657e-16
3.74429e-16
9.5003e-16
2.05854e-15
3.77527e-15
5.772e-15
7.13296e-15
7.15064e-15
5.76234e-15
3.85197e-15
2.43856e-15
3.7865e-30
7.00685e-29
2.62127e-27
6.28941e-26
1.08178e-24
1.42275e-23
1.49116e-22
1.28126e-21
9.14889e-21
5.5074e-20
2.84457e-19
1.25659e-18
4.75727e-18
1.5492e-17
4.31433e-17
1.01215e-16
2.04539e-16
3.46823e-16
4.8601e-16
5.58742e-16
5.20327e-16
4.0776e-16
3.07064e-16
7.93311e-32
1.03606e-30
3.99045e-29
9.99195e-28
1.80323e-26
2.50042e-25
2.78538e-24
2.55868e-23
1.96719e-22
1.28369e-21
7.19609e-21
3.46255e-20
1.42636e-19
5.08106e-19
1.55526e-18
4.07832e-18
9.24614e-18
1.77012e-17
2.81356e-17
3.66472e-17
3.94109e-17
3.69869e-17
3.36531e-17
1.33245e-33
1.23443e-32
4.90402e-31
1.28671e-29
2.44745e-28
3.59821e-27
4.27985e-26
4.2187e-25
3.49998e-24
2.47405e-23
1.50359e-22
7.90177e-22
3.58183e-21
1.41071e-20
4.81575e-20
1.413e-19
3.55561e-19
7.62507e-19
1.36795e-18
2.05731e-18
2.60919e-18
2.94014e-18
3.25965e-18
1.84972e-35
1.21833e-34
4.99707e-33
1.37901e-31
2.77549e-30
4.35019e-29
5.55326e-28
5.90304e-27
5.30746e-26
4.08189e-25
2.70404e-24
1.5547e-23
7.75288e-23
3.37026e-22
1.2748e-21
4.16572e-21
1.17532e-20
2.8533e-20
5.86781e-20
1.02027e-19
1.52674e-19
2.09061e-19
2.89657e-19
2.17366e-37
1.01867e-36
4.31498e-35
1.2564e-33
2.68391e-32
4.50047e-31
6.18563e-30
7.11389e-29
6.94967e-28
5.82423e-27
4.2165e-26
2.66077e-25
1.46294e-24
7.04402e-24
2.96366e-23
1.0835e-22
3.44109e-22
9.45457e-22
2.22976e-21
4.53269e-21
8.11792e-21
1.3632e-20
2.53446e-20
2.19336e-39
7.30242e-39
3.19528e-37
9.84302e-36
2.23779e-34
4.02697e-33
5.98025e-32
7.47e-31
7.96093e-30
7.29036e-29
5.79506e-28
4.02361e-27
2.44171e-26
1.30375e-25
6.11371e-25
2.50502e-24
9.00907e-24
2.82379e-23
7.70177e-23
1.84325e-22
3.98538e-22
8.57805e-22
2.9409e-21
1.92384e-41
4.54301e-41
2.05329e-39
6.70553e-38
1.62528e-36
3.14257e-35
5.04633e-34
6.85607e-33
7.99999e-32
8.04005e-31
7.05747e-30
5.41929e-29
3.64675e-28
2.16763e-27
1.1372e-26
5.24643e-26
2.14396e-25
7.70948e-25
2.44741e-24
6.94832e-24
1.85478e-23
6.08144e-23
5.60514e-22
1.47763e-43
2.48374e-43
1.15928e-41
4.01707e-40
1.03924e-38
2.15949e-37
3.74794e-36
5.54096e-35
7.081e-34
7.83108e-33
7.61974e-32
6.51483e-31
4.89599e-30
3.26783e-29
1.93094e-28
1.00893e-27
4.70198e-27
1.9476e-26
7.23724e-26
2.46075e-25
8.62442e-25
5.77553e-24
1.16454e-22
1.00236e-45
1.21682e-45
5.89164e-44
2.16427e-42
5.97899e-41
1.33397e-39
2.49789e-38
4.01089e-37
5.59799e-36
6.80947e-35
7.35344e-34
7.01912e-33
5.91756e-32
4.45644e-31
2.98587e-30
1.78286e-29
9.57009e-29
4.6037e-28
2.01141e-27
8.33158e-27
4.46649e-26
7.04033e-25
2.18273e-23
6.07493e-48
5.50501e-48
2.77137e-46
1.07594e-44
3.16422e-43
7.56001e-42
1.52192e-40
2.64211e-39
4.00966e-38
5.34638e-37
6.39159e-36
6.81176e-35
6.45454e-34
5.49409e-33
4.19639e-32
2.88002e-31
1.79127e-30
1.00884e-29
5.25056e-29
2.78009e-28
2.75059e-27
8.40391e-26
3.33155e-24
3.34526e-50
2.3657e-50
1.24016e-48
5.06799e-47
1.57969e-45
4.02246e-44
8.66194e-43
1.61587e-41
2.65003e-40
3.85037e-39
5.06357e-38
5.99582e-37
6.37626e-36
6.1327e-35
5.35951e-34
4.24033e-33
3.06348e-32
2.02858e-31
1.28211e-30
9.84371e-30
2.01559e-28
9.06378e-27
4.28668e-25
1.70837e-52
9.84176e-53
5.37997e-51
2.30865e-49
7.59763e-48
2.05085e-46
4.70124e-45
9.37723e-44
1.65204e-42
2.6039e-41
3.74606e-40
4.88591e-39
5.7766e-38
6.23244e-37
6.18499e-36
5.62753e-35
4.73738e-34
3.75305e-33
3.14112e-32
4.63155e-31
1.77271e-29
9.45557e-28
4.95665e-26
8.20225e-55
4.00327e-55
2.28776e-53
1.03276e-51
3.59354e-50
1.02827e-48
2.5065e-47
5.33562e-46
1.00861e-44
1.72073e-43
2.6924e-42
3.84127e-41
5.00646e-40
5.99993e-39
6.68047e-38
6.91387e-37
6.81967e-36
7.14897e-35
1.16196e-33
4.01881e-32
2.03564e-30
1.11982e-28
6.16656e-27
3.73361e-57
1.61666e-57
9.84152e-56
4.75632e-54
1.77951e-52
5.47092e-51
1.43166e-49
3.26945e-48
6.63463e-47
1.21611e-45
2.04145e-44
3.13202e-43
4.41189e-42
5.76079e-41
7.06374e-40
8.29054e-39
1.02885e-37
1.89656e-36
6.91109e-35
3.663e-33
2.11036e-31
1.2243e-29
7.06093e-28
)
;

boundaryField
{
    leftWall
    {
        type            zeroGradient;
    }
    rightWall
    {
        type            zeroGradient;
    }
    lowerWall
    {
        type            zeroGradient;
    }
    atmosphere
    {
        type            inletOutlet;
        inletValue      uniform 0;
        value           nonuniform List<scalar> 
23
(
3.73361e-57
1.61666e-57
9.84152e-56
4.75632e-54
1.77951e-52
5.47092e-51
1.43166e-49
3.26945e-48
6.63463e-47
1.21611e-45
2.04145e-44
3.13202e-43
4.41189e-42
5.76079e-41
7.06374e-40
8.29054e-39
1.02885e-37
1.89656e-36
6.91109e-35
3.663e-33
2.11036e-31
1.2243e-29
7.06093e-28
)
;
    }
    defaultFaces
    {
        type            empty;
    }
    procBoundary2to0
    {
        type            processor;
        value           nonuniform List<scalar> 
24
(
6.652e-08
4.49719e-08
2.37542e-08
9.50048e-09
3.27829e-09
1.08288e-09
5.86257e-10
1.16272e-16
1.90525e-15
2.19899e-14
1.12995e-13
3.2535e-13
9.3171e-13
3.68097e-12
1.38332e-11
4.02099e-11
1.05585e-10
1.4479e-10
4.35431e-10
7.6553e-09
2.34832e-08
4.67871e-08
3.62872e-08
3.62872e-08
)
;
    }
    procBoundary2to3
    {
        type            processor;
        value           nonuniform List<scalar> 
25
(
1.69644e-10
6.9484e-11
3.51963e-11
1.76312e-11
7.77632e-12
2.76853e-12
8.66787e-13
2.29409e-13
5.21708e-14
1.01699e-14
1.70599e-15
2.50924e-16
3.27389e-17
4.02395e-18
5.54085e-19
1.01683e-19
3.21281e-20
1.11986e-20
3.01953e-21
6.67776e-22
1.17784e-22
1.75261e-23
2.34788e-24
3.27657e-25
3.99954e-26
)
;
    }
}


// ************************************************************************* //
