/*--------------------------------*- C++ -*----------------------------------*\
| =========                 |                                                 |
| \\      /  F ield         | OpenFOAM: The Open Source CFD Toolbox           |
|  \\    /   O peration     | Version:  2.4.0                                 |
|   \\  /    A nd           | Web:      www.OpenFOAM.org                      |
|    \\/     M anipulation  |                                                 |
\*---------------------------------------------------------------------------*/
FoamFile
{
    version     2.0;
    format      ascii;
    class       volScalarField;
    location    "0.65";
    object      alpha.mercury;
}
// * * * * * * * * * * * * * * * * * * * * * * * * * * * * * * * * * * * * * //

dimensions      [0 0 0 0 0 0 0];

internalField   nonuniform List<scalar> 
559
(
2.67649e-20
1.11356e-19
4.65063e-19
2.07037e-18
9.26978e-18
5.03978e-17
3.50768e-16
5.75709e-25
5.3145e-27
6.35753e-29
5.6898e-31
1.56962e-31
3.12616e-30
4.84778e-29
6.03135e-28
6.564e-27
5.89193e-26
2.92525e-25
1.59281e-24
8.18305e-24
3.91834e-23
2.12417e-22
1.12206e-21
4.67363e-21
1.68505e-20
5.63294e-20
1.90462e-19
7.76091e-19
5.01662e-18
4.68884e-17
8.04351e-27
4.83048e-29
4.74417e-31
4.22524e-33
1.5836e-32
3.15654e-31
4.62424e-30
5.29579e-29
4.8863e-28
3.70807e-27
2.43889e-26
1.55429e-25
9.89419e-25
6.19071e-24
3.41408e-23
1.58441e-22
6.43377e-22
2.32617e-21
7.3458e-21
2.15875e-20
7.72666e-20
5.6066e-19
6.57218e-18
9.45846e-29
3.70012e-31
3.00674e-33
5.98902e-35
1.03202e-33
1.97382e-32
2.88929e-31
3.4518e-30
3.43884e-29
2.96238e-28
2.30812e-27
1.70824e-26
1.25902e-25
8.23244e-25
4.58067e-24
2.20697e-23
9.5378e-23
3.52091e-22
1.09985e-21
3.14871e-21
1.123e-20
9.28855e-20
1.24496e-18
9.55632e-31
2.45333e-33
1.6469e-35
2.09256e-36
5.18611e-35
1.01793e-33
1.59374e-32
2.07184e-31
2.29767e-30
2.27943e-29
1.99812e-28
1.59483e-27
1.19184e-26
8.03604e-26
4.67843e-25
2.38307e-24
1.04621e-23
3.91954e-23
1.28794e-22
3.86989e-22
1.29501e-21
9.59432e-21
1.43869e-19
8.40093e-33
1.43335e-35
7.9578e-38
8.73817e-38
2.35376e-36
4.84968e-35
8.02984e-34
1.10722e-32
1.32373e-31
1.44231e-30
1.44153e-29
1.27428e-28
9.961e-28
6.9682e-27
4.31184e-26
2.36235e-25
1.09462e-24
4.3887e-24
1.5717e-23
5.08222e-23
1.73148e-22
1.13443e-21
1.63324e-20
6.48153e-35
7.42257e-38
4.17694e-40
3.76898e-39
1.05501e-37
2.2934e-36
4.06861e-35
6.12223e-34
8.1776e-33
9.85896e-32
1.06039e-30
9.85884e-30
8.06614e-29
5.71435e-28
3.56579e-27
1.96511e-26
9.5393e-26
4.20081e-25
1.64814e-24
5.82455e-24
2.04528e-23
1.09362e-22
1.35789e-21
4.43333e-37
3.56175e-40
4.26499e-42
1.23529e-40
3.60813e-39
8.30552e-38
1.58125e-36
2.58497e-35
3.75883e-34
4.782e-33
5.30275e-32
5.1981e-31
4.57973e-30
3.55413e-29
2.45958e-28
1.50745e-27
8.25348e-27
3.97789e-26
1.68397e-25
6.5288e-25
2.47431e-24
1.19712e-23
1.15736e-22
2.6979e-39
1.49499e-42
8.44442e-44
3.42341e-42
1.07143e-40
2.66429e-39
5.49726e-38
9.77408e-37
1.53627e-35
2.11184e-34
2.55999e-33
2.7468e-32
2.60312e-31
2.20125e-30
1.63066e-29
1.0629e-28
6.1983e-28
3.20644e-27
1.51374e-26
6.65791e-26
2.95393e-25
1.62832e-24
1.37958e-23
1.47599e-41
5.9369e-45
1.79176e-45
8.03561e-44
2.69436e-42
7.2256e-41
1.61301e-39
3.11164e-38
5.27508e-37
7.88318e-36
1.04632e-34
1.21618e-33
1.23524e-32
1.1215e-31
8.96869e-31
6.46774e-30
4.21553e-29
2.46491e-28
1.31055e-27
6.73977e-27
3.94681e-26
3.05042e-25
2.88966e-24
7.27889e-44
2.18357e-47
3.37846e-47
1.62926e-45
5.88641e-44
1.71059e-42
4.16118e-41
8.75028e-40
1.60604e-38
2.59202e-37
3.7205e-36
4.71372e-35
5.31158e-34
5.36952e-33
4.81096e-32
3.79643e-31
2.67834e-30
1.7185e-29
1.06034e-28
7.46298e-28
6.8782e-27
7.61593e-26
8.69665e-25
3.25225e-46
7.98862e-50
5.52218e-49
2.86735e-47
1.12025e-45
3.52788e-44
9.36753e-43
2.15421e-41
4.32742e-40
7.66605e-39
1.2128e-37
1.69795e-36
2.0987e-35
2.29775e-34
2.21751e-33
1.88925e-32
1.49492e-31
1.15474e-30
1.00719e-29
1.13018e-28
1.52849e-27
2.16808e-26
2.90385e-25
1.32047e-48
3.22079e-52
7.81542e-51
4.37797e-49
1.85474e-47
6.35822e-46
1.84998e-44
4.6724e-43
1.03442e-41
2.02264e-40
3.49485e-39
5.31594e-38
7.12886e-37
8.54682e-36
9.18004e-35
8.98812e-34
8.58786e-33
9.18949e-32
1.27672e-30
2.21513e-29
4.02986e-28
6.7909e-27
1.03009e-25
4.8911e-51
1.80604e-54
9.65722e-53
5.84357e-51
2.69e-49
1.00802e-47
3.22151e-46
8.94575e-45
2.1802e-43
4.69087e-42
8.90969e-41
1.49638e-39
2.2248e-38
2.96268e-37
3.59008e-36
4.1776e-35
5.50188e-34
9.88581e-33
2.25466e-31
5.24513e-30
1.1202e-28
2.1551e-27
3.70007e-26
1.65343e-53
1.32272e-56
1.04101e-54
6.80672e-53
3.4076e-51
1.39984e-49
4.92682e-48
1.50975e-46
4.06774e-45
9.67961e-44
2.03138e-42
3.76798e-41
6.20491e-40
9.26439e-39
1.33659e-37
2.22052e-36
5.16684e-35
1.51636e-33
4.52249e-32
1.24722e-30
3.08501e-29
6.74668e-28
1.30455e-26
5.11442e-56
1.05763e-58
9.80532e-57
6.92669e-55
3.77156e-53
1.69978e-51
6.59521e-50
2.23476e-48
6.66783e-47
1.75587e-45
4.08266e-44
8.42187e-43
1.56177e-41
2.77324e-40
5.64282e-39
1.64305e-37
6.29218e-36
2.48222e-34
8.96323e-33
2.86104e-31
8.03344e-30
1.98791e-28
4.34125e-27
1.44611e-58
7.94464e-61
8.05328e-59
6.14665e-57
3.64158e-55
1.80137e-53
7.71328e-52
2.89395e-50
9.57747e-49
2.7946e-47
7.23209e-46
1.67057e-44
3.60362e-43
8.67499e-42
3.1051e-40
1.56792e-38
8.24056e-37
3.91233e-35
1.62736e-33
5.92318e-32
1.89344e-30
5.32032e-29
1.31293e-27
3.74292e-61
5.36075e-63
5.78506e-61
4.77143e-59
3.07499e-57
1.66693e-55
7.8579e-54
3.25792e-52
1.19701e-50
3.8824e-49
1.12571e-47
2.95999e-46
7.91273e-45
3.04682e-43
1.96546e-41
1.44478e-39
9.49584e-38
5.32411e-36
2.5621e-34
1.06915e-32
3.89526e-31
1.24387e-29
3.47845e-28
8.87632e-64
3.21653e-65
3.66149e-63
3.26255e-61
2.28762e-59
1.35695e-57
7.02165e-56
3.21027e-54
1.30715e-52
4.7261e-51
1.54998e-49
4.8423e-48
1.85662e-46
1.258e-44
1.18739e-42
1.08895e-40
8.67385e-39
5.84439e-37
3.31467e-35
1.59988e-33
6.67658e-32
2.43038e-30
7.71649e-29
1.94626e-66
1.74559e-67
2.11638e-65
2.04526e-63
1.56555e-61
1.01654e-59
5.76958e-58
2.90767e-56
1.31509e-54
5.40188e-53
2.15626e-51
1.00571e-49
7.2928e-48
7.46019e-46
8.00066e-44
7.83793e-42
6.76093e-40
5.09584e-38
3.35038e-36
1.90549e-34
9.30566e-33
3.90594e-31
1.41817e-29
4.05553e-69
9.00646e-70
1.19166e-67
1.26911e-65
1.08031e-63
7.90408e-62
5.20142e-60
3.23425e-58
2.01962e-56
1.35506e-54
1.02734e-52
8.76438e-51
8.09544e-49
7.68978e-47
7.236e-45
6.48851e-43
5.40875e-41
4.1312e-39
2.87018e-37
1.8053e-35
1.01698e-33
5.00082e-32
2.10719e-30
8.60089e-72
1.11735e-71
2.69806e-69
4.88127e-67
7.21825e-65
9.09565e-63
9.95574e-61
9.6043e-59
8.30223e-57
6.57142e-55
4.85751e-53
3.41678e-51
2.34342e-49
1.60319e-47
1.10615e-45
7.74274e-44
5.45891e-42
3.82013e-40
2.59107e-38
1.66861e-36
1.00562e-34
5.53844e-33
2.70532e-31
2.30298e-74
2.23227e-72
7.93927e-70
1.77361e-67
2.90592e-65
3.7631e-63
4.04699e-61
3.74914e-59
3.08052e-57
2.29484e-55
1.579e-53
1.02218e-51
6.33498e-50
3.81938e-48
2.26885e-46
1.34285e-44
7.97149e-43
4.768e-41
2.87701e-39
1.74165e-37
1.03856e-35
5.95103e-34
3.17465e-32
4.46413e-76
4.04448e-73
1.58421e-70
3.83862e-68
6.71845e-66
9.18197e-64
1.03097e-61
9.85801e-60
8.24142e-58
6.14458e-56
4.16949e-54
2.62242e-52
1.5551e-50
8.84207e-49
4.88541e-47
2.65891e-45
1.43774e-43
7.8019e-42
4.25401e-40
2.33593e-38
1.2921e-36
7.18262e-35
3.95253e-33
2.75646e-77
2.53555e-74
9.7889e-72
2.35291e-69
4.08844e-67
5.55514e-65
6.20581e-63
5.90684e-61
4.92584e-59
3.68741e-57
2.53273e-55
1.62837e-53
9.9839e-52
5.93732e-50
3.47132e-48
2.02102e-46
1.18047e-44
6.91078e-43
4.04874e-41
2.36526e-39
1.372e-37
7.8948e-36
4.50646e-34
)
;

boundaryField
{
    leftWall
    {
        type            zeroGradient;
    }
    rightWall
    {
        type            zeroGradient;
    }
    lowerWall
    {
        type            zeroGradient;
    }
    atmosphere
    {
        type            inletOutlet;
        inletValue      uniform 0;
        value           nonuniform List<scalar> 
23
(
2.75646e-77
2.53555e-74
9.7889e-72
2.35291e-69
4.08844e-67
5.55514e-65
6.20581e-63
5.90684e-61
4.92584e-59
3.68741e-57
2.53273e-55
1.62837e-53
9.9839e-52
5.93732e-50
3.47132e-48
2.02102e-46
1.18047e-44
6.91078e-43
4.04874e-41
2.36526e-39
1.372e-37
7.8948e-36
4.50646e-34
)
;
    }
    defaultFaces
    {
        type            empty;
    }
    procBoundary2to0
    {
        type            processor;
        value           nonuniform List<scalar> 
24
(
2.89242e-19
1.37892e-18
6.18059e-18
2.75152e-17
1.16315e-16
5.42893e-16
2.93241e-15
3.41043e-23
4.82677e-25
7.00868e-27
7.20419e-29
1.8846e-30
2.56036e-29
3.71087e-28
6.66648e-27
1.87302e-25
2.58634e-24
4.07206e-24
2.0037e-23
9.40681e-23
3.88467e-22
1.36896e-21
5.73674e-21
5.73674e-21
)
;
    }
    procBoundary2to3
    {
        type            processor;
        value           nonuniform List<scalar> 
25
(
2.62788e-15
4.6738e-16
8.23467e-17
1.70291e-17
2.2746e-18
2.75964e-19
2.41906e-20
1.92647e-21
1.73198e-22
2.9842e-23
9.4802e-24
3.52389e-24
1.40141e-24
5.62753e-25
2.22553e-25
8.32507e-26
2.83599e-26
8.48304e-27
2.1282e-27
4.44534e-28
7.56953e-29
1.1257e-29
1.52358e-30
2.0942e-31
2.52426e-32
)
;
    }
}


// ************************************************************************* //
