/*--------------------------------*- C++ -*----------------------------------*\
| =========                 |                                                 |
| \\      /  F ield         | OpenFOAM: The Open Source CFD Toolbox           |
|  \\    /   O peration     | Version:  2.4.0                                 |
|   \\  /    A nd           | Web:      www.OpenFOAM.org                      |
|    \\/     M anipulation  |                                                 |
\*---------------------------------------------------------------------------*/
FoamFile
{
    version     2.0;
    format      ascii;
    class       surfaceScalarField;
    location    "0.65";
    object      phi.air;
}
// * * * * * * * * * * * * * * * * * * * * * * * * * * * * * * * * * * * * * //

dimensions      [0 3 -1 0 0 0 0];

internalField   nonuniform List<scalar> 
1070
(
-4.75715e-06
5.96941e-06
-6.23777e-06
6.81361e-06
-7.21902e-06
8.87847e-06
-7.38574e-06
1.16381e-05
-6.97327e-06
1.33414e-05
-5.64485e-06
1.40127e-05
1.56717e-05
7.08177e-07
1.35496e-05
1.26981e-06
9.87986e-06
1.51865e-06
9.4813e-06
1.5315e-06
9.08214e-06
1.32884e-06
8.75707e-06
1.00251e-06
8.48687e-06
6.66668e-07
8.25482e-06
3.98564e-07
8.11854e-06
2.21845e-07
7.99641e-06
2.17611e-07
7.76261e-06
2.68616e-07
7.4618e-06
1.31927e-07
7.12503e-06
-2.68403e-07
6.80237e-06
-9.62319e-07
6.48108e-06
-2.08733e-06
6.46837e-06
-3.29733e-06
6.84063e-06
-4.37139e-06
7.04336e-06
-5.32004e-06
7.76215e-06
-5.87487e-06
9.43317e-06
-5.58969e-06
1.13527e-05
-4.57044e-06
1.2322e-05
-3.19788e-06
1.264e-05
1.40436e-05
5.50151e-07
1.29994e-05
8.35276e-07
9.59472e-06
9.7169e-07
9.34488e-06
1.01523e-06
9.03859e-06
9.63776e-07
8.80851e-06
8.54192e-07
8.59645e-06
7.07415e-07
8.40159e-06
5.30811e-07
8.29514e-06
3.75093e-07
8.15212e-06
1.78677e-07
7.95902e-06
-7.44319e-09
7.64791e-06
-3.13093e-07
7.43067e-06
-8.32806e-07
7.32205e-06
-1.42866e-06
7.0769e-06
-2.00622e-06
7.04598e-06
-2.33366e-06
7.16795e-06
-2.90866e-06
7.61831e-06
-3.62989e-06
8.48329e-06
-3.78338e-06
9.58655e-06
-3.29639e-06
1.08656e-05
-2.41805e-06
1.14436e-05
-1.32391e-06
1.15457e-05
1.26357e-05
3.56502e-07
1.26429e-05
5.82198e-07
9.36903e-06
7.59671e-07
9.1674e-06
8.57954e-07
8.9403e-06
9.09023e-07
8.75743e-06
9.22476e-07
8.58299e-06
8.77703e-07
8.44635e-06
8.16396e-07
8.35644e-06
7.03578e-07
8.26493e-06
5.0736e-07
8.15523e-06
2.37235e-07
7.91802e-06
-6.87454e-08
7.73663e-06
-4.54034e-07
7.70733e-06
-9.34347e-07
7.55724e-06
-1.39905e-06
7.51057e-06
-1.84103e-06
7.60998e-06
-2.38302e-06
8.16025e-06
-2.72756e-06
8.82777e-06
-2.69133e-06
9.55024e-06
-2.3072e-06
1.04813e-05
-1.66816e-06
1.08044e-05
-9.66126e-07
1.08436e-05
1.16271e-05
2.70221e-07
1.23727e-05
4.88484e-07
9.15075e-06
6.58133e-07
8.99774e-06
7.18062e-07
8.88037e-06
7.51404e-07
8.72408e-06
7.47221e-07
8.58716e-06
7.35826e-07
8.45774e-06
7.51792e-07
8.34046e-06
7.7244e-07
8.24427e-06
6.99721e-07
8.22794e-06
4.8031e-07
8.13742e-06
2.55319e-07
7.96162e-06
1.03566e-07
7.85907e-06
-2.17971e-07
7.87873e-06
-6.39788e-07
7.93246e-06
-1.18588e-06
8.15601e-06
-1.43824e-06
8.4126e-06
-1.36612e-06
8.75562e-06
-1.19267e-06
9.37673e-06
-6.61518e-07
9.95011e-06
1.40249e-08
1.01287e-05
5.92076e-07
1.02654e-05
1.0999e-05
2.29436e-07
1.21433e-05
3.33517e-07
9.04667e-06
3.89046e-07
8.94221e-06
4.18197e-07
8.85121e-06
4.20549e-07
8.72172e-06
3.92762e-07
8.61494e-06
3.46166e-07
8.50433e-06
2.92611e-07
8.39401e-06
2.38096e-07
8.29878e-06
1.9216e-07
8.27387e-06
6.39394e-08
8.26563e-06
-1.39119e-07
8.16466e-06
-3.39188e-07
8.05914e-06
-4.95118e-07
8.03468e-06
-6.97553e-07
8.13483e-06
-9.82506e-07
8.44102e-06
-1.19868e-06
8.62877e-06
-1.32283e-06
8.87976e-06
-1.19628e-06
9.25013e-06
-7.77411e-07
9.53117e-06
-2.69913e-07
9.62114e-06
2.53452e-07
9.74198e-06
1.0145e-05
1.67136e-07
1.19761e-05
2.57319e-07
8.95648e-06
3.24483e-07
8.87504e-06
3.75397e-07
8.80029e-06
3.82417e-07
8.71469e-06
3.61179e-07
8.63617e-06
3.08793e-07
8.5567e-06
2.36016e-07
8.46677e-06
1.414e-07
8.39338e-06
4.9872e-08
8.36538e-06
-4.53498e-08
8.36084e-06
-2.16142e-07
8.33544e-06
-4.82479e-07
8.32546e-06
-6.96729e-07
8.2489e-06
-8.63058e-07
8.30124e-06
-7.80601e-07
8.35852e-06
-6.47513e-07
8.49572e-06
-6.0779e-07
8.84003e-06
-3.70248e-07
9.01257e-06
-1.83907e-08
9.17925e-06
3.05676e-07
9.29701e-06
7.03465e-07
9.34406e-06
9.27402e-06
1.77013e-07
1.17991e-05
2.66213e-07
8.86728e-06
3.29637e-07
8.81161e-06
3.73821e-07
8.75609e-06
3.86053e-07
8.70245e-06
3.80693e-07
8.64152e-06
3.64246e-07
8.57314e-06
3.2022e-07
8.51079e-06
2.30263e-07
8.48333e-06
1.5126e-07
8.44438e-06
1.18062e-07
8.39403e-06
7.79662e-08
8.37552e-06
5.48236e-09
8.39793e-06
-1.99762e-07
8.45418e-06
-3.74461e-07
8.47588e-06
-5.45476e-07
8.52962e-06
-7.61947e-07
8.71221e-06
-6.94512e-07
8.7726e-06
-4.87645e-07
8.80568e-06
-1.98705e-07
8.89026e-06
1.10635e-07
8.98757e-06
5.87536e-07
8.86712e-06
8.62237e-06
1.03293e-07
1.16958e-05
1.51772e-07
8.81879e-06
2.02352e-07
8.76102e-06
2.33893e-07
8.72455e-06
2.43837e-07
8.6925e-06
2.28279e-07
8.65707e-06
1.93516e-07
8.60789e-06
1.38475e-07
8.56582e-06
8.28591e-08
8.53894e-06
-3.07256e-09
8.5303e-06
-1.47055e-07
8.538e-06
-2.86212e-07
8.51467e-06
-3.53703e-07
8.46542e-06
-4.50613e-07
8.55107e-06
-5.45633e-07
8.57098e-06
-5.91511e-07
8.57549e-06
-4.6888e-07
8.58961e-06
-2.86452e-07
8.5902e-06
-1.98416e-07
8.71762e-06
-5.43518e-08
8.74615e-06
2.56625e-07
8.67653e-06
6.20821e-07
8.50281e-06
8.24916e-06
1.14581e-07
1.15812e-05
1.6952e-07
8.76385e-06
2.15087e-07
8.71545e-06
2.50868e-07
8.68876e-06
2.77831e-07
8.66553e-06
2.88553e-07
8.64634e-06
2.74405e-07
8.62203e-06
2.4011e-07
8.60011e-06
2.02605e-07
8.57643e-06
1.55976e-07
8.57691e-06
7.22413e-08
8.62172e-06
-5.31966e-08
8.6401e-06
-2.11372e-07
8.62359e-06
-2.42041e-07
8.58176e-06
-2.27592e-07
8.5565e-06
-2.3905e-07
8.58702e-06
-3.04861e-07
8.65545e-06
-4.65905e-07
8.75126e-06
-4.13355e-07
8.66506e-06
-2.02545e-07
8.53529e-06
7.57434e-08
8.39816e-06
3.19717e-07
8.25879e-06
7.9066e-06
9.38649e-08
1.14873e-05
1.34748e-07
8.72296e-06
1.7172e-07
8.67847e-06
1.867e-07
8.67377e-06
1.84709e-07
8.66751e-06
1.74603e-07
8.65643e-06
1.42758e-07
8.65386e-06
8.77911e-08
8.65506e-06
1.25988e-08
8.65161e-06
-4.02781e-08
8.62978e-06
-3.11117e-08
8.61254e-06
-2.9101e-08
8.63808e-06
-9.21564e-08
8.68664e-06
-2.52982e-07
8.74257e-06
-4.70585e-07
8.77419e-06
-5.64932e-07
8.68136e-06
-5.60063e-07
8.65065e-06
-3.79625e-07
8.57085e-06
-2.20819e-07
8.50625e-06
-1.70888e-07
8.48532e-06
-1.58324e-07
8.38554e-06
4.21633e-09
8.09615e-06
7.71586e-06
9.32361e-08
1.13941e-05
1.44418e-07
8.67177e-06
2.0044e-07
8.62244e-06
2.45595e-07
8.62861e-06
2.76023e-07
8.63707e-06
2.87772e-07
8.64467e-06
2.83329e-07
8.6583e-06
2.62773e-07
8.67561e-06
2.14355e-07
8.70002e-06
1.08067e-07
8.73606e-06
-5.17218e-08
8.77233e-06
-2.03681e-07
8.79003e-06
-2.82791e-07
8.76575e-06
-2.88557e-07
8.74838e-06
-2.16841e-07
8.70244e-06
-2.13009e-07
8.67762e-06
-2.49874e-07
8.68754e-06
-3.7011e-07
8.69111e-06
-5.11328e-07
8.64747e-06
-5.04825e-07
8.47877e-06
-3.5707e-07
8.2377e-06
-2.84101e-07
8.02313e-06
7.69053e-06
7.8322e-08
1.13158e-05
1.16946e-07
8.63314e-06
1.5404e-07
8.58533e-06
1.77929e-07
8.60471e-06
1.86275e-07
8.62872e-06
1.75353e-07
8.65559e-06
1.47216e-07
8.68643e-06
1.0631e-07
8.71651e-06
6.16467e-08
8.74468e-06
3.55506e-08
8.76215e-06
3.96827e-08
8.76818e-06
3.94043e-08
8.7903e-06
-2.03635e-08
8.82552e-06
-1.20528e-07
8.84853e-06
-2.94675e-07
8.87667e-06
-4.79126e-07
8.86207e-06
-5.82875e-07
8.79133e-06
-6.07407e-07
8.71567e-06
-5.45238e-07
8.58529e-06
-5.43469e-07
8.47697e-06
-6.27273e-07
8.32145e-06
-6.66252e-07
8.06201e-06
7.72692e-06
9.92232e-08
1.12165e-05
1.68434e-07
8.56392e-06
2.36454e-07
8.51731e-06
2.88426e-07
8.55273e-06
3.23959e-07
8.59318e-06
3.35402e-07
8.64414e-06
3.20222e-07
8.7016e-06
2.77635e-07
8.75909e-06
2.08746e-07
8.81356e-06
1.09494e-07
8.86139e-06
-2.67446e-08
8.90442e-06
-1.66496e-07
8.93005e-06
-2.81489e-07
8.94052e-06
-3.69555e-07
8.93663e-06
-4.05044e-07
8.91213e-06
-4.14201e-07
8.87131e-06
-4.61431e-07
8.8386e-06
-5.46984e-07
8.80125e-06
-6.99918e-07
8.73822e-06
-8.17409e-07
8.59442e-06
-8.82614e-07
8.38658e-06
-9.80028e-07
8.15938e-06
7.87325e-06
9.28485e-08
1.11237e-05
1.50089e-07
8.50667e-06
2.05887e-07
8.4615e-06
2.45533e-07
8.51307e-06
2.70193e-07
8.56851e-06
2.78886e-07
8.63544e-06
2.70622e-07
8.70985e-06
2.44417e-07
8.78528e-06
2.02207e-07
8.85576e-06
1.49261e-07
8.91433e-06
8.97406e-08
8.96393e-06
1.85373e-08
9.00125e-06
-6.59616e-08
9.02502e-06
-1.73187e-07
9.04385e-06
-3.09991e-07
9.04903e-06
-4.73453e-07
9.03476e-06
-6.3046e-07
8.99567e-06
-7.50713e-07
8.92153e-06
-8.36282e-07
8.82379e-06
-9.49619e-07
8.70772e-06
-1.11471e-06
8.55162e-06
-1.29247e-06
8.33706e-06
8.08363e-06
1.23899e-07
1.09998e-05
2.02484e-07
8.42808e-06
2.76778e-07
8.3872e-06
3.36265e-07
8.45358e-06
3.80403e-07
8.52436e-06
4.06736e-07
8.60909e-06
4.09759e-07
8.70682e-06
3.85715e-07
8.80932e-06
3.30157e-07
8.91131e-06
2.5012e-07
8.99436e-06
1.39651e-07
9.07439e-06
7.59102e-09
9.13331e-06
-1.31101e-07
9.16371e-06
-2.63085e-07
9.17589e-06
-3.90018e-07
9.17592e-06
-5.03231e-07
9.14807e-06
-6.28273e-07
9.12074e-06
-7.76904e-07
9.07018e-06
-9.50195e-07
8.99708e-06
-1.13058e-06
8.88808e-06
-1.32417e-06
8.74514e-06
-1.54953e-06
8.56239e-06
8.35856e-06
1.30986e-07
1.08688e-05
1.97451e-07
8.36161e-06
2.6065e-07
8.32399e-06
3.12577e-07
8.40165e-06
3.55318e-07
8.48161e-06
3.91739e-07
8.57267e-06
4.2401e-07
8.67454e-06
4.45585e-07
8.78774e-06
4.37039e-07
8.91985e-06
3.91044e-07
9.04035e-06
3.03379e-07
9.16205e-06
1.78617e-07
9.25807e-06
2.22751e-08
9.32007e-06
-1.53746e-07
9.3519e-06
-3.33443e-07
9.35571e-06
-5.2101e-07
9.33563e-06
-7.00119e-07
9.29988e-06
-8.77873e-07
9.24797e-06
-1.05976e-06
9.17896e-06
-1.2596e-06
9.0879e-06
-1.49378e-06
8.97927e-06
-1.76945e-06
8.83798e-06
8.67565e-06
1.56779e-07
1.0712e-05
1.9057e-07
8.32781e-06
2.22381e-07
8.29218e-06
2.52225e-07
8.37179e-06
2.79042e-07
8.45479e-06
3.06787e-07
8.54492e-06
3.37932e-07
8.64339e-06
3.62991e-07
8.76268e-06
3.8284e-07
8.9e-06
3.79873e-07
9.04331e-06
3.52864e-07
9.18906e-06
2.82762e-07
9.32817e-06
1.6746e-07
9.43538e-06
-4.12076e-09
9.52352e-06
-2.17522e-07
9.56908e-06
-4.5436e-07
9.57255e-06
-6.89356e-07
9.53491e-06
-9.1184e-07
9.47048e-06
-1.13385e-06
9.40098e-06
-1.36986e-06
9.32389e-06
-1.62965e-06
9.23902e-06
-1.9323e-06
9.14061e-06
9.02683e-06
1.46823e-07
1.05652e-05
1.0621e-07
8.36842e-06
5.68649e-08
8.34151e-06
2.84853e-08
8.40017e-06
2.22984e-09
8.48104e-06
-1.66407e-08
8.56378e-06
-2.59964e-08
8.65274e-06
-2.67138e-08
8.76339e-06
-1.04742e-08
8.88375e-06
9.44638e-09
9.02339e-06
2.31374e-08
9.17536e-06
1.89008e-08
9.33242e-06
-1.55178e-08
9.46981e-06
-8.07352e-08
9.58873e-06
-1.87963e-07
9.67642e-06
-3.51885e-07
9.73644e-06
-5.85914e-07
9.769e-06
-8.70655e-07
9.75525e-06
-1.15987e-06
9.69021e-06
-1.4367e-06
9.60071e-06
-1.72188e-06
9.52418e-06
-2.04455e-06
9.46321e-06
9.39837e-06
9.24025e-08
1.04728e-05
-9.75707e-08
8.55839e-06
-2.87793e-07
8.53173e-06
-4.44189e-07
8.55656e-06
-5.69907e-07
8.60675e-06
-6.73418e-07
8.66729e-06
-7.50531e-07
8.72985e-06
-7.93979e-07
8.80683e-06
-8.03717e-07
8.89349e-06
-7.78366e-07
8.99803e-06
-7.26024e-07
9.12302e-06
-6.67894e-07
9.27429e-06
-6.19647e-07
9.42157e-06
-5.79264e-07
9.5484e-06
-5.76516e-07
9.67361e-06
-6.13117e-07
9.77316e-06
-6.94363e-07
9.85028e-06
-8.41069e-07
9.902e-06
-1.08206e-06
9.93122e-06
-1.40045e-06
9.9191e-06
-1.74737e-06
9.87107e-06
-2.098e-06
9.81384e-06
9.78555e-06
-2.44957e-08
1.04972e-05
-4.08023e-07
8.94191e-06
-7.85164e-07
8.90887e-06
-1.11758e-06
8.88897e-06
-1.40404e-06
8.8932e-06
-1.64679e-06
8.91003e-06
-1.84573e-06
8.9288e-06
-1.99003e-06
8.95113e-06
-2.07498e-06
8.97844e-06
-2.08905e-06
9.01209e-06
-2.02818e-06
9.06216e-06
-1.90343e-06
9.14955e-06
-1.74583e-06
9.26398e-06
-1.57285e-06
9.37541e-06
-1.42902e-06
9.52989e-06
-1.31939e-06
9.6635e-06
-1.24768e-06
9.77862e-06
-1.22177e-06
9.87614e-06
-1.25634e-06
9.96583e-06
-1.39172e-06
1.00545e-05
-1.6703e-06
1.01497e-05
-2.0549e-06
1.01984e-05
1.02081e-05
-1.84813e-07
1.06821e-05
-7.34329e-07
9.49142e-06
-1.27813e-06
9.45266e-06
-1.78543e-06
9.39627e-06
-2.24211e-06
9.34988e-06
-2.63696e-06
9.30488e-06
-2.97587e-06
9.26769e-06
-3.2566e-06
9.23186e-06
-3.46318e-06
9.18501e-06
-3.60069e-06
9.1496e-06
-3.66919e-06
9.13065e-06
-3.6384e-06
9.11876e-06
-3.49726e-06
9.12284e-06
-3.26947e-06
9.14767e-06
-2.95095e-06
9.21131e-06
-2.60163e-06
9.31428e-06
-2.27719e-06
9.45424e-06
-2.03476e-06
9.63379e-06
-1.87625e-06
9.80737e-06
-1.79421e-06
9.9725e-06
-1.82578e-06
1.01812e-05
-2.01583e-06
1.03885e-05
1.05896e-05
-2.85732e-07
1.09678e-05
-9.20194e-07
1.01259e-05
-1.53808e-06
1.00705e-05
-2.12575e-06
9.98393e-06
-2.6721e-06
9.89623e-06
-3.16191e-06
9.79469e-06
-3.5842e-06
9.68998e-06
-3.93103e-06
9.57868e-06
-4.20951e-06
9.46349e-06
-4.42103e-06
9.36112e-06
-4.55882e-06
9.26843e-06
-4.62561e-06
9.18556e-06
-4.62237e-06
9.11961e-06
-4.5511e-06
9.07637e-06
-4.3967e-06
9.05702e-06
-4.15163e-06
9.06926e-06
-3.807e-06
9.10973e-06
-3.38429e-06
9.21117e-06
-2.95597e-06
9.37916e-06
-2.60968e-06
9.62626e-06
-2.37268e-06
9.94425e-06
-2.2842e-06
1.03e-05
1.06655e-05
-3.41221e-07
1.1309e-05
-9.43025e-07
1.07277e-05
-1.52573e-06
1.06532e-05
-2.0932e-06
1.05514e-05
-2.64086e-06
1.04439e-05
-3.15615e-06
1.031e-05
-3.62973e-06
1.01636e-05
-4.05755e-06
1.00065e-05
-4.43847e-06
9.84442e-06
-4.74917e-06
9.67183e-06
-4.98372e-06
9.503e-06
-5.13763e-06
9.33949e-06
-5.20652e-06
9.18851e-06
-5.20561e-06
9.07552e-06
-5.12891e-06
8.98034e-06
-4.99077e-06
8.93122e-06
-4.7665e-06
8.88556e-06
-4.48148e-06
8.92624e-06
-4.11724e-06
9.01499e-06
-3.68753e-06
9.19662e-06
-3.23766e-06
9.49441e-06
-2.86533e-06
9.92764e-06
1.04526e-05
-4.38187e-07
-1.01269e-06
-1.59365e-06
-2.16194e-06
-2.70875e-06
-3.23117e-06
-3.7205e-06
-4.16809e-06
-4.5637e-06
-4.90849e-06
-5.19435e-06
-5.41534e-06
-5.56349e-06
-5.63031e-06
-5.6033e-06
-5.48287e-06
-5.3139e-06
-5.06479e-06
-4.77168e-06
-4.44229e-06
-4.07315e-06
-3.67847e-06
)
;

boundaryField
{
    leftWall
    {
        type            fixedValue;
        value           uniform 0;
    }
    rightWall
    {
        type            fixedValue;
        value           nonuniform 0();
    }
    lowerWall
    {
        type            fixedValue;
        value           nonuniform 0();
    }
    atmosphere
    {
        type            calculated;
        value           nonuniform List<scalar> 
23
(
1.17472e-05
1.13022e-05
1.12342e-05
1.11197e-05
1.09907e-05
1.08324e-05
1.06529e-05
1.04541e-05
1.024e-05
1.00166e-05
9.78886e-06
9.56049e-06
9.33668e-06
9.14235e-06
8.95336e-06
8.81083e-06
8.71662e-06
8.67716e-06
8.7219e-06
8.86725e-06
9.12527e-06
9.53297e-06
1.01145e-05
)
;
    }
    defaultFaces
    {
        type            empty;
        value           nonuniform 0();
    }
    procBoundary2to0
    {
        type            processor;
        value           nonuniform List<scalar> 
24
(
-3.93158e-06
-5.33309e-06
-7.89742e-06
-1.14715e-05
-1.3754e-05
-1.53413e-05
-1.78479e-05
-1.42577e-05
-1.04415e-05
-9.73014e-06
-9.09499e-06
-8.55441e-06
-8.16056e-06
-7.91899e-06
-7.85045e-06
-7.8197e-06
-7.75839e-06
-7.51281e-06
-6.98836e-06
-6.40204e-06
-5.78718e-06
-5.34355e-06
2.71918e-06
-5.63063e-06
)
;
    }
    procBoundary2to3
    {
        type            processor;
        value           nonuniform List<scalar> 
25
(
-3.46847e-06
-1.57009e-06
8.39467e-08
4.22137e-08
1.22009e-06
1.10728e-06
1.57435e-06
1.23902e-06
9.93966e-07
6.62137e-07
1.94892e-07
-2.58905e-07
-7.02704e-07
-1.12648e-06
-1.5029e-06
-1.82458e-06
-2.08659e-06
-2.28359e-06
-2.41611e-06
-2.48529e-06
-2.47744e-06
-2.39741e-06
-2.36013e-06
-2.65251e-06
-3.34037e-06
)
;
    }
}


// ************************************************************************* //
