/*--------------------------------*- C++ -*----------------------------------*\
| =========                 |                                                 |
| \\      /  F ield         | OpenFOAM: The Open Source CFD Toolbox           |
|  \\    /   O peration     | Version:  2.4.0                                 |
|   \\  /    A nd           | Web:      www.OpenFOAM.org                      |
|    \\/     M anipulation  |                                                 |
\*---------------------------------------------------------------------------*/
FoamFile
{
    version     2.0;
    format      ascii;
    class       surfaceScalarField;
    location    "0.65";
    object      phi.mercury;
}
// * * * * * * * * * * * * * * * * * * * * * * * * * * * * * * * * * * * * * //

dimensions      [0 3 -1 0 0 0 0];

internalField   nonuniform List<scalar> 
1070
(
-4.76647e-06
5.93045e-06
-6.24293e-06
6.77732e-06
-7.22631e-06
8.84312e-06
-7.38866e-06
1.1607e-05
-6.96626e-06
1.33136e-05
-5.64155e-06
1.3983e-05
1.56496e-05
7.08318e-07
1.35277e-05
1.2697e-06
9.85739e-06
1.51834e-06
9.4583e-06
1.53106e-06
9.05852e-06
1.32824e-06
8.73267e-06
1.00181e-06
8.46152e-06
6.65801e-07
8.22831e-06
3.97579e-07
8.09072e-06
2.20657e-07
7.96711e-06
2.16239e-07
7.73171e-06
2.66881e-07
7.42918e-06
1.29504e-07
7.09051e-06
-2.72563e-07
6.76607e-06
-9.6235e-07
6.44367e-06
-2.09665e-06
6.424e-06
-3.30337e-06
6.80058e-06
-4.378e-06
7.00178e-06
-5.32421e-06
7.72251e-06
-5.87775e-06
9.3954e-06
-5.58934e-06
1.13178e-05
-4.56522e-06
1.22899e-05
-3.18684e-06
1.26106e-05
1.40131e-05
5.49717e-07
1.29752e-05
8.34628e-07
9.57062e-06
9.70753e-07
9.32053e-06
1.014e-06
9.01378e-06
9.62207e-07
8.78303e-06
8.52324e-07
8.57015e-06
7.0522e-07
8.37429e-06
5.28344e-07
8.26672e-06
3.72307e-07
8.12243e-06
1.75586e-07
7.92797e-06
-1.10826e-08
7.61532e-06
-3.17307e-07
7.39651e-06
-8.38086e-07
7.28598e-06
-1.43571e-06
7.03814e-06
-2.01117e-06
7.00818e-06
-2.34124e-06
7.12525e-06
-2.91329e-06
7.57769e-06
-3.63216e-06
8.44343e-06
-3.7833e-06
9.54828e-06
-3.2932e-06
1.08293e-05
-2.4101e-06
1.14095e-05
-1.31396e-06
1.15113e-05
1.26025e-05
3.56155e-07
1.26185e-05
5.81304e-07
9.34422e-06
7.58263e-07
9.14221e-06
8.5605e-07
8.91466e-06
9.06634e-07
8.73122e-06
9.19622e-07
8.55609e-06
8.74396e-07
8.41864e-06
8.12657e-07
8.3278e-06
6.994e-07
8.23526e-06
5.0271e-07
8.12442e-06
2.32022e-07
7.88594e-06
-7.48888e-08
7.70313e-06
-4.62015e-07
7.67223e-06
-9.40422e-07
7.52172e-06
-1.40895e-06
7.47049e-06
-1.84649e-06
7.57246e-06
-2.38686e-06
8.12116e-06
-2.72821e-06
8.78904e-06
-2.6892e-06
9.51278e-06
-2.30177e-06
1.04451e-05
-1.66059e-06
1.07693e-05
-9.54891e-07
1.08097e-05
1.1591e-05
2.69489e-07
1.23468e-05
4.87206e-07
9.12502e-06
6.56267e-07
8.97188e-06
7.15584e-07
8.85419e-06
7.48319e-07
8.69746e-06
7.43552e-07
8.55999e-06
7.31599e-07
8.42994e-06
7.47031e-07
8.31194e-06
7.67127e-07
8.21495e-06
6.93805e-07
8.19771e-06
4.73649e-07
8.10616e-06
2.4756e-07
7.9292e-06
9.51705e-08
7.82546e-06
-2.2866e-07
7.84331e-06
-6.47109e-07
7.8983e-06
-1.19293e-06
8.11844e-06
-1.4417e-06
8.37568e-06
-1.36549e-06
8.71932e-06
-1.18931e-06
9.3409e-06
-6.55052e-07
9.91516e-06
2.27053e-08
1.00944e-05
6.01013e-07
1.02302e-05
1.0964e-05
2.28835e-07
1.21178e-05
3.32106e-07
9.02086e-06
3.86862e-07
8.91612e-06
4.15271e-07
8.82483e-06
4.16901e-07
8.69499e-06
3.88428e-07
8.5878e-06
3.41185e-07
8.47671e-06
2.8701e-07
8.36586e-06
2.31857e-07
8.27004e-06
1.85204e-07
8.24445e-06
5.61076e-08
8.23546e-06
-1.48085e-07
8.13359e-06
-3.4941e-07
8.02729e-06
-5.04528e-07
8.00246e-06
-7.08338e-07
8.09972e-06
-9.88917e-07
8.40814e-06
-1.20155e-06
8.59447e-06
-1.32179e-06
8.84575e-06
-1.19212e-06
9.21639e-06
-7.70423e-07
9.49791e-06
-2.62142e-07
9.58799e-06
2.62418e-07
9.70925e-06
1.01107e-05
1.66198e-07
1.19497e-05
2.5563e-07
8.93029e-06
3.2201e-07
8.84882e-06
3.72125e-07
8.77392e-06
3.7836e-07
8.6881e-06
3.56369e-07
8.60928e-06
3.03272e-07
8.5295e-06
2.29805e-07
8.4392e-06
1.34478e-07
8.36541e-06
4.21434e-08
8.33695e-06
-5.4084e-08
8.33188e-06
-2.25898e-07
8.30594e-06
-4.93078e-07
8.2953e-06
-7.09071e-07
8.21752e-06
-8.71592e-07
8.27185e-06
-7.88468e-07
8.32594e-06
-6.50141e-07
8.46452e-06
-6.06536e-07
8.8086e-06
-3.65654e-07
8.98129e-06
-1.13494e-08
9.14802e-06
3.13901e-07
9.2658e-06
7.10967e-07
9.31206e-06
9.24211e-06
1.76256e-07
1.17736e-05
2.64499e-07
8.84148e-06
3.27014e-07
8.78562e-06
3.70333e-07
8.72997e-06
3.81729e-07
8.67618e-06
3.75575e-07
8.61507e-06
3.58377e-07
8.5465e-06
3.13621e-07
8.48393e-06
2.229e-07
8.45623e-06
1.43022e-07
8.41701e-06
1.08806e-07
8.36635e-06
6.75701e-08
8.34751e-06
-6.31881e-09
8.36952e-06
-2.10084e-07
8.42627e-06
-3.86219e-07
8.44564e-06
-5.51929e-07
8.50188e-06
-7.64798e-07
8.68335e-06
-6.93108e-07
8.74353e-06
-4.83022e-07
8.77668e-06
-1.91666e-07
8.86112e-06
1.18059e-07
8.95817e-06
5.95211e-07
8.8377e-06
8.59189e-06
1.02246e-07
1.16698e-05
1.49874e-07
8.79299e-06
1.99579e-07
8.73528e-06
2.30246e-07
8.69878e-06
2.39347e-07
8.66668e-06
2.22983e-07
8.63117e-06
1.87451e-07
8.58192e-06
1.31646e-07
8.53977e-06
7.52233e-08
8.51279e-06
-1.16208e-08
8.50404e-06
-1.56652e-07
8.51161e-06
-2.97011e-07
8.48814e-06
-3.65e-07
8.4388e-06
-4.63294e-07
8.52393e-06
-5.54871e-07
8.5456e-06
-5.99078e-07
8.54809e-06
-4.7193e-07
8.56295e-06
-2.84966e-07
8.56367e-06
-1.93919e-07
8.69082e-06
-4.7512e-08
8.71913e-06
2.64109e-07
8.64918e-06
6.27464e-07
8.47468e-06
8.22097e-06
1.13761e-07
1.15563e-05
1.67685e-07
8.73874e-06
2.12289e-07
8.69023e-06
2.47164e-07
8.66351e-06
2.73269e-07
8.64028e-06
2.8318e-07
8.6211e-06
2.68256e-07
8.59681e-06
2.33189e-07
8.57491e-06
1.94863e-07
8.55127e-06
1.47301e-07
8.55178e-06
6.24863e-08
8.59662e-06
-6.40907e-08
8.61502e-06
-2.23197e-07
8.59868e-06
-2.52945e-07
8.55731e-06
-2.38873e-07
8.53055e-06
-2.4589e-07
8.56335e-06
-3.07778e-07
8.63088e-06
-4.64697e-07
8.72674e-06
-4.09063e-07
8.64026e-06
-1.96025e-07
8.51022e-06
8.25192e-08
8.37263e-06
3.26355e-07
8.23305e-06
7.88009e-06
9.27922e-08
1.14622e-05
1.32811e-07
8.69807e-06
1.68898e-07
8.65371e-06
1.82996e-07
8.64909e-06
1.80159e-07
8.6429e-06
1.69249e-07
8.6319e-06
1.36636e-07
8.62944e-06
8.08986e-08
8.63076e-06
4.88433e-09
8.62744e-06
-4.89251e-08
8.60575e-06
-4.08513e-08
8.58867e-06
-3.9839e-08
8.61443e-06
-1.03506e-07
8.66316e-06
-2.65401e-07
8.71883e-06
-4.79567e-07
8.7526e-06
-5.72704e-07
8.65772e-06
-5.62933e-07
8.62833e-06
-3.78701e-07
8.54828e-06
-2.16818e-07
8.48345e-06
-1.64895e-07
8.46207e-06
-1.51777e-07
8.36183e-06
1.00881e-08
8.07176e-06
7.69137e-06
9.24275e-08
1.13703e-05
1.42609e-07
8.64774e-06
1.97692e-07
8.59836e-06
2.41964e-07
8.60459e-06
2.7156e-07
8.61316e-06
2.82524e-07
8.6209e-06
2.77329e-07
8.63469e-06
2.56017e-07
8.6522e-06
2.06789e-07
8.67683e-06
9.9579e-08
8.7131e-06
-6.12439e-08
8.74963e-06
-2.14223e-07
8.76763e-06
-2.94388e-07
8.74362e-06
-2.98797e-07
8.72723e-06
-2.27888e-07
8.67997e-06
-2.19452e-07
8.65755e-06
-2.52988e-07
8.66678e-06
-3.69427e-07
8.67015e-06
-5.07768e-07
8.62634e-06
-4.99295e-07
8.4572e-06
-3.51209e-07
8.21562e-06
-2.78338e-07
8.00071e-06
7.66748e-06
7.72867e-08
1.12918e-05
1.15089e-07
8.60944e-06
1.51344e-07
8.56182e-06
1.74403e-07
8.58134e-06
1.81953e-07
8.60551e-06
1.70276e-07
8.63258e-06
1.41411e-07
8.66364e-06
9.97712e-08
8.69398e-06
5.43166e-08
8.72243e-06
2.7325e-08
8.74021e-06
3.0462e-08
8.74658e-06
2.91433e-08
8.76906e-06
-3.09708e-08
8.80471e-06
-1.32093e-07
8.82782e-06
-3.03306e-07
8.8578e-06
-4.8627e-07
8.84188e-06
-5.86189e-07
8.77196e-06
-6.06894e-07
8.69643e-06
-5.42135e-07
8.56569e-06
-5.38414e-07
8.45696e-06
-6.21707e-07
8.30092e-06
-6.61117e-07
8.04087e-06
7.70557e-06
9.84825e-08
1.1194e-05
1.66758e-07
8.54115e-06
2.33906e-07
8.49453e-06
2.85065e-07
8.53007e-06
3.19833e-07
8.5707e-06
3.30555e-07
8.62189e-06
3.14678e-07
8.67962e-06
2.71382e-07
8.73742e-06
2.01727e-07
8.79222e-06
1.01606e-07
8.84042e-06
-3.56019e-08
8.88384e-06
-1.76308e-07
8.90991e-06
-2.92006e-07
8.92093e-06
-3.79247e-07
8.91784e-06
-4.15018e-07
8.89246e-06
-4.20517e-07
8.85386e-06
-4.6462e-07
8.82052e-06
-5.46798e-07
8.78328e-06
-6.97173e-07
8.71995e-06
-8.12797e-07
8.57581e-06
-8.77613e-07
8.36746e-06
-9.75074e-07
8.13991e-06
7.85325e-06
9.18972e-08
1.1101e-05
1.48405e-07
8.48426e-06
2.03451e-07
8.4393e-06
2.42354e-07
8.49107e-06
2.66299e-07
8.54673e-06
2.74312e-07
8.61393e-06
2.65386e-07
8.68865e-06
2.38504e-07
8.76443e-06
1.95557e-07
8.83529e-06
1.41775e-07
8.89427e-06
8.13095e-08
8.94431e-06
9.28273e-09
8.98216e-06
-7.56747e-08
9.00643e-06
-1.83761e-07
9.0254e-06
-3.17722e-07
9.03272e-06
-4.80396e-07
9.01691e-06
-6.33516e-07
8.97911e-06
-7.50793e-07
8.90482e-06
-8.33835e-07
8.80687e-06
-9.45497e-07
8.69039e-06
-1.11006e-06
8.53384e-06
-1.28806e-06
8.31875e-06
8.06511e-06
1.23265e-07
1.09785e-05
2.01018e-07
8.40659e-06
2.74542e-07
8.36573e-06
3.33315e-07
8.43226e-06
3.76782e-07
8.50328e-06
4.02478e-07
8.5883e-06
4.04877e-07
8.68637e-06
3.80187e-07
8.78925e-06
3.23922e-07
8.89166e-06
2.43086e-07
8.97515e-06
1.3174e-07
9.05568e-06
-1.14212e-09
9.11515e-06
-1.4068e-07
9.14608e-06
-2.71498e-07
9.15939e-06
-3.99308e-07
9.15854e-06
-5.08861e-07
9.13297e-06
-6.31466e-07
9.10512e-06
-7.77182e-07
9.05445e-06
-9.48164e-07
8.98126e-06
-1.12692e-06
8.87191e-06
-1.32005e-06
8.72859e-06
-1.54533e-06
8.54553e-06
8.34117e-06
1.30152e-07
1.08473e-05
1.96005e-07
8.34043e-06
2.58569e-07
8.30305e-06
3.09863e-07
8.38093e-06
3.51993e-07
8.46118e-06
3.87826e-07
8.55255e-06
4.19513e-07
8.6548e-06
4.40477e-07
8.76841e-06
4.31256e-07
8.90097e-06
3.845e-07
9.02196e-06
2.96011e-07
9.1442e-06
1.70416e-07
9.24078e-06
1.3837e-08
9.30343e-06
-1.63075e-07
9.33559e-06
-3.40428e-07
9.34124e-06
-5.27172e-07
9.32004e-06
-7.03436e-07
9.28512e-06
-8.78236e-07
9.23338e-06
-1.05807e-06
9.16413e-06
-1.25631e-06
9.07284e-06
-1.48997e-06
8.96388e-06
-1.76579e-06
8.82215e-06
8.65969e-06
1.56278e-07
1.06919e-05
1.89369e-07
8.30751e-06
2.20537e-07
8.27191e-06
2.49785e-07
8.35171e-06
2.76041e-07
8.43498e-06
3.03245e-07
8.52545e-06
3.33849e-07
8.62432e-06
3.58334e-07
8.74404e-06
3.7755e-07
8.88185e-06
3.73861e-07
9.02569e-06
3.46071e-07
9.17203e-06
2.75224e-07
9.31177e-06
1.59349e-07
9.41971e-06
-1.15994e-08
9.50877e-06
-2.25636e-07
9.55364e-06
-4.5968e-07
9.55921e-06
-6.92492e-07
9.52095e-06
-9.12436e-07
9.45665e-06
-1.13241e-06
9.38702e-06
-1.3669e-06
9.30982e-06
-1.62629e-06
9.22471e-06
-1.92877e-06
9.12622e-06
9.01194e-06
1.46132e-07
1.05448e-05
1.05048e-07
8.34836e-06
5.52033e-08
8.32172e-06
2.6317e-08
8.38063e-06
-4.34442e-10
8.46181e-06
-1.97909e-08
8.54492e-06
-2.96416e-08
8.6343e-06
-3.08872e-08
8.74542e-06
-1.52388e-08
8.86631e-06
4.0163e-09
9.00652e-06
1.69698e-08
9.15913e-06
1.211e-08
9.3169e-06
-2.27025e-08
9.455e-06
-8.89155e-08
9.57421e-06
-1.93946e-07
9.66394e-06
-3.57838e-07
9.72238e-06
-5.88914e-07
9.75617e-06
-8.71379e-07
9.7423e-06
-1.15854e-06
9.67725e-06
-1.43398e-06
9.58763e-06
-1.71861e-06
9.51103e-06
-2.04153e-06
9.44977e-06
9.38509e-06
9.20568e-08
1.04537e-05
-9.84726e-08
8.53914e-06
-2.89196e-07
8.51254e-06
-4.46054e-07
8.53758e-06
-5.72208e-07
8.58807e-06
-6.76149e-07
8.64899e-06
-7.53702e-07
8.712e-06
-7.97628e-07
8.78948e-06
-8.07902e-07
8.8767e-06
-7.83162e-07
8.98187e-06
-7.31476e-07
9.10757e-06
-6.73978e-07
9.25961e-06
-6.26552e-07
9.40763e-06
-5.85388e-07
9.53566e-06
-5.8411e-07
9.65993e-06
-6.1784e-07
9.76179e-06
-6.97485e-07
9.83814e-06
-8.41819e-07
9.88987e-06
-1.08085e-06
9.91916e-06
-1.3978e-06
9.90707e-06
-1.74439e-06
9.85907e-06
-2.09482e-06
9.80224e-06
9.77332e-06
-2.50273e-08
1.04778e-05
-4.08872e-07
8.92281e-06
-7.8636e-07
8.89005e-06
-1.11914e-06
8.87043e-06
-1.40596e-06
8.875e-06
-1.64907e-06
8.89223e-06
-1.84839e-06
8.91146e-06
-1.99311e-06
8.93433e-06
-2.07854e-06
8.96225e-06
-2.09314e-06
8.99659e-06
-2.03285e-06
9.04742e-06
-1.90877e-06
9.13565e-06
-1.75152e-06
9.25097e-06
-1.57993e-06
9.36284e-06
-1.43428e-06
9.51942e-06
-1.3249e-06
9.65147e-06
-1.25079e-06
9.76746e-06
-1.22246e-06
9.86511e-06
-1.25513e-06
9.95484e-06
-1.38906e-06
1.00436e-05
-1.66692e-06
1.01391e-05
-2.05236e-06
1.01876e-05
1.01976e-05
-1.84992e-07
1.06634e-05
-7.349e-07
9.47264e-06
-1.27904e-06
9.434e-06
-1.78665e-06
9.37785e-06
-2.24362e-06
9.3318e-06
-2.63877e-06
9.28722e-06
-2.97798e-06
9.25052e-06
-3.25906e-06
9.21525e-06
-3.46603e-06
9.16906e-06
-3.604e-06
9.1344e-06
-3.67302e-06
9.1163e-06
-3.64284e-06
9.10535e-06
-3.50251e-06
9.11044e-06
-3.27441e-06
9.13661e-06
-2.9578e-06
9.19944e-06
-2.60626e-06
9.30463e-06
-2.28016e-06
9.44454e-06
-2.0354e-06
9.62459e-06
-1.87494e-06
9.79839e-06
-1.79123e-06
9.96372e-06
-1.8227e-06
1.01722e-05
-2.01298e-06
1.03791e-05
1.058e-05
-2.85992e-07
1.09491e-05
-9.20647e-07
1.01072e-05
-1.53874e-06
1.00521e-05
-2.12663e-06
9.96571e-06
-2.67319e-06
9.87835e-06
-3.16322e-06
9.77723e-06
-3.58574e-06
9.67303e-06
-3.93282e-06
9.56233e-06
-4.2116e-06
9.44783e-06
-4.42347e-06
9.34626e-06
-4.5617e-06
9.25449e-06
-4.62901e-06
9.17267e-06
-4.62628e-06
9.10787e-06
-4.55687e-06
9.06543e-06
-4.4013e-06
9.04864e-06
-4.15632e-06
9.06151e-06
-3.80946e-06
9.10375e-06
-3.38472e-06
9.20609e-06
-2.95445e-06
9.37447e-06
-2.60688e-06
9.62121e-06
-2.36995e-06
9.93806e-06
-2.28163e-06
1.02932e-05
1.0657e-05
-3.41405e-07
1.1291e-05
-9.43319e-07
1.07098e-05
-1.52614e-06
1.06356e-05
-2.09373e-06
1.0534e-05
-2.64152e-06
1.04269e-05
-3.15694e-06
1.02934e-05
-3.63066e-06
1.01475e-05
-4.05864e-06
9.99103e-06
-4.43976e-06
9.82967e-06
-4.75068e-06
9.65791e-06
-4.98553e-06
9.49007e-06
-5.13987e-06
9.32773e-06
-5.20963e-06
9.17818e-06
-5.20879e-06
9.06724e-06
-5.13287e-06
8.97392e-06
-4.99367e-06
8.92742e-06
-4.76805e-06
8.88368e-06
-4.48151e-06
8.92542e-06
-4.11608e-06
9.01419e-06
-3.68587e-06
9.19502e-06
-3.23553e-06
9.49183e-06
-2.86449e-06
9.92343e-06
1.04478e-05
-4.38248e-07
-1.01279e-06
-1.59379e-06
-2.16212e-06
-2.70897e-06
-3.23143e-06
-3.72081e-06
-4.16845e-06
-4.56413e-06
-4.90901e-06
-5.19498e-06
-5.41614e-06
-5.56452e-06
-5.63162e-06
-5.60459e-06
-5.48383e-06
-5.31437e-06
-5.0648e-06
-4.77133e-06
-4.44163e-06
-4.07266e-06
-3.67825e-06
)
;

boundaryField
{
    leftWall
    {
        type            fixedValue;
        value           uniform 0;
    }
    rightWall
    {
        type            fixedValue;
        value           nonuniform 0();
    }
    lowerWall
    {
        type            fixedValue;
        value           nonuniform 0();
    }
    atmosphere
    {
        type            calculated;
        value           nonuniform List<scalar> 
23
(
1.17298e-05
1.12849e-05
1.12171e-05
1.11029e-05
1.09742e-05
1.08163e-05
1.06374e-05
1.04392e-05
1.02259e-05
1.00033e-05
9.77656e-06
9.54943e-06
9.3272e-06
9.1349e-06
8.94849e-06
8.80852e-06
8.71622e-06
8.67769e-06
8.72243e-06
8.86706e-06
9.12375e-06
9.53047e-06
1.01116e-05
)
;
    }
    defaultFaces
    {
        type            empty;
        value           nonuniform 0();
    }
    procBoundary2to0
    {
        type            processor;
        value           nonuniform List<scalar> 
24
(
-3.89522e-06
-5.2969e-06
-7.86611e-06
-1.14371e-05
-1.37184e-05
-1.53129e-05
-1.78106e-05
-1.42364e-05
-1.04206e-05
-9.70914e-06
-9.07346e-06
-8.5321e-06
-8.13715e-06
-7.8943e-06
-7.8242e-06
-7.79177e-06
-7.72854e-06
-7.48103e-06
-6.9545e-06
-6.36622e-06
-5.74808e-06
-5.30977e-06
2.72999e-06
-5.58697e-06
)
;
    }
    procBoundary2to3
    {
        type            processor;
        value           nonuniform List<scalar> 
25
(
-3.45229e-06
-1.56477e-06
9.21859e-08
4.53045e-08
1.22459e-06
1.10837e-06
1.57681e-06
1.23976e-06
9.95845e-07
6.62971e-07
1.96571e-07
-2.57857e-07
-7.01098e-07
-1.12532e-06
-1.50133e-06
-1.82339e-06
-2.08511e-06
-2.28257e-06
-2.41469e-06
-2.48459e-06
-2.47612e-06
-2.39679e-06
-2.35928e-06
-2.6525e-06
-3.34132e-06
)
;
    }
}


// ************************************************************************* //
