/*--------------------------------*- C++ -*----------------------------------*\
| =========                 |                                                 |
| \\      /  F ield         | OpenFOAM: The Open Source CFD Toolbox           |
|  \\    /   O peration     | Version:  2.4.0                                 |
|   \\  /    A nd           | Web:      www.OpenFOAM.org                      |
|    \\/     M anipulation  |                                                 |
\*---------------------------------------------------------------------------*/
FoamFile
{
    version     2.0;
    format      ascii;
    class       volVectorField;
    location    "0.65";
    object      U;
}
// * * * * * * * * * * * * * * * * * * * * * * * * * * * * * * * * * * * * * //

dimensions      [0 1 -1 0 0 0 0];

internalField   nonuniform List<vector> 
559
(
(-0.0211242 0.0284955 0)
(-0.0299745 0.0350912 0)
(-0.0358941 0.0465083 0)
(-0.0402281 0.0637456 0)
(-0.0384408 0.074651 0)
(-0.0348785 0.0804434 0)
(-0.0241388 0.0907743 0)
(0.00201904 0.0750124 0)
(0.00546484 0.0547154 0)
(0.00780325 0.051558 0)
(0.00824129 0.0487517 0)
(0.00789323 0.0464705 0)
(0.00621258 0.0446314 0)
(0.00438939 0.0434725 0)
(0.00284551 0.0429533 0)
(0.00145838 0.0424321 0)
(0.00119177 0.0412338 0)
(0.00133271 0.0396117 0)
(0.00179024 0.0374974 0)
(-0.000256714 0.0353493 0)
(-0.00247969 0.0321983 0)
(-0.00776314 0.0318856 0)
(-0.0141639 0.0348141 0)
(-0.0206673 0.0354673 0)
(-0.0262405 0.0382137 0)
(-0.0304665 0.0486909 0)
(-0.0318956 0.0615369 0)
(-0.0273044 0.0688124 0)
(-0.020933 0.070543 0)
(-0.0119382 0.0787326 0)
(0.00181508 0.0713792 0)
(0.00398515 0.0523289 0)
(0.0047948 0.0509672 0)
(0.00541375 0.0492745 0)
(0.00530631 0.0476281 0)
(0.00491596 0.0463623 0)
(0.00423308 0.0450632 0)
(0.00334725 0.0443349 0)
(0.00251347 0.0434791 0)
(0.00169258 0.0422299 0)
(0.000394203 0.0409834 0)
(-0.000424907 0.0397416 0)
(-0.00282522 0.0380909 0)
(-0.00594344 0.036905 0)
(-0.00914701 0.0373897 0)
(-0.0119316 0.0383296 0)
(-0.0132153 0.0397614 0)
(-0.0173743 0.0444772 0)
(-0.0212656 0.0522524 0)
(-0.0192769 0.0603723 0)
(-0.0151651 0.0640075 0)
(-0.0101369 0.0655443 0)
(-0.0031112 0.0721295 0)
(0.00124085 0.0690698 0)
(0.00252557 0.0513565 0)
(0.00358966 0.0500729 0)
(0.00442994 0.0485406 0)
(0.00469035 0.0474291 0)
(0.00496238 0.0465222 0)
(0.00491447 0.0456939 0)
(0.00459364 0.04519 0)
(0.00425336 0.0447455 0)
(0.00356943 0.0438676 0)
(0.00204708 0.0418605 0)
(0.000545602 0.0401746 0)
(-0.00122116 0.0405236 0)
(-0.00365626 0.039514 0)
(-0.00608038 0.0390265 0)
(-0.00876573 0.0391329 0)
(-0.0109107 0.0432473 0)
(-0.0140624 0.0476904 0)
(-0.0151125 0.0518656 0)
(-0.0136063 0.0575496 0)
(-0.0109208 0.0598905 0)
(-0.00651367 0.0599022 0)
(-0.00287141 0.0647898 0)
(0.000886054 0.067559 0)
(0.00196384 0.049893 0)
(0.0032143 0.0488916 0)
(0.00372806 0.0478355 0)
(0.0039821 0.0470514 0)
(0.0040477 0.046223 0)
(0.00396975 0.0455666 0)
(0.00401096 0.0449597 0)
(0.00417814 0.044285 0)
(0.00427771 0.0440239 0)
(0.00342365 0.0433808 0)
(0.0017706 0.0427435 0)
(0.0011498 0.042466 0)
(-4.35318e-05 0.0418303 0)
(-0.00206515 0.0416378 0)
(-0.00483833 0.0424071 0)
(-0.0074748 0.0441225 0)
(-0.00766327 0.0467882 0)
(-0.00695311 0.0506174 0)
(-0.00518628 0.0549975 0)
(-0.00201276 0.0562432 0)
(0.00225685 0.0565468 0)
(0.00437213 0.0606823 0)
(0.000793605 0.066103 0)
(0.00165247 0.0491608 0)
(0.0018967 0.0484942 0)
(0.00221671 0.0479769 0)
(0.00227953 0.0471765 0)
(0.00223397 0.0462721 0)
(0.00203326 0.0455009 0)
(0.0017524 0.0449317 0)
(0.00149409 0.044815 0)
(0.00112795 0.0448522 0)
(0.000991317 0.0447844 0)
(-0.000263058 0.0439255 0)
(-0.00131551 0.0427861 0)
(-0.00211768 0.0435067 0)
(-0.00308181 0.0440881 0)
(-0.00420396 0.045884 0)
(-0.0059044 0.0469497 0)
(-0.00720329 0.0480494 0)
(-0.00678661 0.0511286 0)
(-0.00550996 0.0530992 0)
(-0.00274266 0.053772 0)
(-0.000319476 0.0549491 0)
(0.00333768 0.0583817 0)
(0.000555916 0.0651017 0)
(0.00120682 0.0486148 0)
(0.00154482 0.0480878 0)
(0.00195564 0.0474811 0)
(0.00205462 0.0469896 0)
(0.00207211 0.0466452 0)
(0.00187043 0.0461573 0)
(0.00151978 0.0455181 0)
(0.00105156 0.0447605 0)
(0.000512513 0.0448127 0)
(4.2063e-05 0.0445148 0)
(-0.000416895 0.0437275 0)
(-0.00184821 0.0439665 0)
(-0.00306671 0.0433547 0)
(-0.00438886 0.043587 0)
(-0.00463309 0.0447519 0)
(-0.00362089 0.04553 0)
(-0.00320056 0.0473388 0)
(-0.00301916 0.0485548 0)
(-0.00120653 0.0495417 0)
(0.0013689 0.0500337 0)
(0.00179269 0.0503956 0)
(0.00609355 0.051642 0)
(0.000616339 0.0640612 0)
(0.00126753 0.0480859 0)
(0.00159567 0.0477357 0)
(0.00194529 0.0474903 0)
(0.00209536 0.0471973 0)
(0.00208389 0.0467529 0)
(0.00205584 0.046376 0)
(0.00191385 0.046065 0)
(0.00160883 0.0458532 0)
(0.000919799 0.0452125 0)
(0.000704059 0.0451191 0)
(0.000568566 0.0456653 0)
(0.000334521 0.0455947 0)
(-0.000346166 0.0454364 0)
(-0.00157577 0.0457013 0)
(-0.00215584 0.0456967 0)
(-0.00379617 0.046594 0)
(-0.00414357 0.0482 0)
(-0.00344597 0.0484798 0)
(-0.00145952 0.0494946 0)
(-0.00054745 0.0498868 0)
(0.00165092 0.0501868 0)
(0.00475888 0.0483269 0)
(0.000374212 0.0634977 0)
(0.000725397 0.047792 0)
(0.000935541 0.0474001 0)
(0.00122367 0.0471289 0)
(0.00132435 0.0468525 0)
(0.0013101 0.0465597 0)
(0.00118024 0.0462212 0)
(0.00092707 0.0458946 0)
(0.000600102 0.0457511 0)
(0.000280029 0.0460201 0)
(-0.000244534 0.0458876 0)
(-0.0012434 0.0453595 0)
(-0.00175114 0.0454564 0)
(-0.00202469 0.0462935 0)
(-0.002492 0.0462914 0)
(-0.00333397 0.0461399 0)
(-0.00303135 0.0469152 0)
(-0.00206377 0.046066 0)
(-0.000775776 0.0469243 0)
(-0.00111419 0.047184 0)
(0.000702748 0.0480366 0)
(0.00196403 0.0463476 0)
(0.00446322 0.045253 0)
(0.000389783 0.0627243 0)
(0.000832173 0.0473786 0)
(0.00101248 0.0470432 0)
(0.00130273 0.0469159 0)
(0.0014257 0.0468222 0)
(0.00157491 0.0467975 0)
(0.00156231 0.0466583 0)
(0.00141488 0.0465306 0)
(0.00117898 0.0463915 0)
(0.00103536 0.0462064 0)
(0.000666596 0.0461175 0)
(0.000126413 0.0462626 0)
(-0.000585352 0.0458695 0)
(-0.00151796 0.0458298 0)
(-0.00125897 0.0456688 0)
(-0.000902173 0.0465235 0)
(-0.0014585 0.0463902 0)
(-0.00199439 0.0471946 0)
(-0.00262683 0.0475696 0)
(-0.00196017 0.0468984 0)
(-0.000244146 0.0452755 0)
(0.00115643 0.0451521 0)
(0.00218679 0.0439327 0)
(0.00032769 0.0623597 0)
(0.000668353 0.0473045 0)
(0.000811933 0.0470405 0)
(0.00102141 0.0469324 0)
(0.00100451 0.046806 0)
(0.00100456 0.0466388 0)
(0.000896572 0.046503 0)
(0.000657969 0.0464061 0)
(0.000289299 0.046289 0)
(-0.000119896 0.0462444 0)
(-0.000299273 0.0466518 0)
(2.71853e-05 0.0466673 0)
(-0.000292121 0.0468955 0)
(-0.000633999 0.0467962 0)
(-0.00189899 0.0472676 0)
(-0.00296636 0.04661 0)
(-0.00317852 0.0467265 0)
(-0.00275515 0.0467948 0)
(-0.00154538 0.0454119 0)
(-0.000472672 0.04545 0)
(-0.00106806 0.0460923 0)
(-0.000922348 0.0442711 0)
(0.000719751 0.0416989 0)
(0.000305668 0.0616452 0)
(0.000684769 0.0468402 0)
(0.000896209 0.0465944 0)
(0.00123859 0.0466314 0)
(0.00143251 0.0467174 0)
(0.00154844 0.046778 0)
(0.00156465 0.0468464 0)
(0.00150459 0.0469034 0)
(0.00134481 0.046965 0)
(0.000969234 0.0469748 0)
(0.000252052 0.0467524 0)
(-0.000813175 0.0469714 0)
(-0.00131028 0.0470852 0)
(-0.00164112 0.0472085 0)
(-0.00146636 0.0466966 0)
(-0.000983698 0.0463576 0)
(-0.00102729 0.0464193 0)
(-0.00155601 0.0461709 0)
(-0.00239642 0.0471279 0)
(-0.00316719 0.0462335 0)
(-0.00219042 0.0441302 0)
(-0.00165774 0.0431854 0)
(-0.00173565 0.0417801 0)
(0.000258001 0.0613828 0)
(0.00057354 0.0468138 0)
(0.000708047 0.0465322 0)
(0.000937792 0.0465601 0)
(0.00100006 0.046568 0)
(0.00100372 0.0465814 0)
(0.000893729 0.0466496 0)
(0.000705648 0.0467963 0)
(0.000462926 0.0469985 0)
(0.000230843 0.0472929 0)
(0.000133729 0.0476678 0)
(0.000314565 0.0476919 0)
(0.000122592 0.0475064 0)
(-0.000279938 0.047398 0)
(-0.000933578 0.047633 0)
(-0.00211425 0.0477882 0)
(-0.00301594 0.0475907 0)
(-0.0033306 0.0474199 0)
(-0.00313462 0.045839 0)
(-0.00258427 0.0452051 0)
(-0.00315798 0.0450277 0)
(-0.00374891 0.0434506 0)
(-0.003716 0.0414282 0)
(0.000280022 0.06073 0)
(0.000775225 0.0463432 0)
(0.00106389 0.0461059 0)
(0.00145888 0.0462722 0)
(0.00166839 0.0464667 0)
(0.00181641 0.0466915 0)
(0.00181198 0.0469144 0)
(0.00165617 0.0470855 0)
(0.00135574 0.0472138 0)
(0.000916079 0.0472867 0)
(0.000303311 0.0472957 0)
(-0.00053457 0.0475045 0)
(-0.00120607 0.047773 0)
(-0.0017568 0.0478105 0)
(-0.00214697 0.0476634 0)
(-0.00218792 0.0472668 0)
(-0.00221225 0.046946 0)
(-0.00259524 0.0468677 0)
(-0.00333334 0.0470579 0)
(-0.00418396 0.0462966 0)
(-0.00454384 0.04484 0)
(-0.0050341 0.0436329 0)
(-0.00580705 0.0421025 0)
(0.000281808 0.0603801 0)
(0.000706558 0.0461508 0)
(0.000933043 0.0458929 0)
(0.00126131 0.0461208 0)
(0.00139975 0.0463861 0)
(0.00150761 0.0467244 0)
(0.00151101 0.0471198 0)
(0.00141927 0.0475352 0)
(0.00122675 0.0479395 0)
(0.000969239 0.0482957 0)
(0.000656843 0.0486054 0)
(0.000326418 0.0486382 0)
(-7.75498e-05 0.0486119 0)
(-0.000579049 0.048684 0)
(-0.00121969 0.0487051 0)
(-0.00205872 0.0486976 0)
(-0.00299561 0.0485282 0)
(-0.00375228 0.0479957 0)
(-0.00426705 0.0471471 0)
(-0.00470358 0.0464612 0)
(-0.00550814 0.0457188 0)
(-0.00656037 0.0444763 0)
(-0.00759726 0.043004 0)
(0.00036786 0.059656 0)
(0.000951738 0.0455929 0)
(0.00125441 0.0453723 0)
(0.00170497 0.0456865 0)
(0.00193901 0.0460102 0)
(0.00215209 0.046398 0)
(0.00223604 0.0468133 0)
(0.0021885 0.0472301 0)
(0.00197726 0.0476196 0)
(0.00161185 0.0479425 0)
(0.00109426 0.0482468 0)
(0.000427085 0.0486181 0)
(-0.000311303 0.0488634 0)
(-0.00103782 0.0489452 0)
(-0.0017382 0.0489432 0)
(-0.00238113 0.0488092 0)
(-0.00298857 0.0485854 0)
(-0.00372063 0.0483816 0)
(-0.00462361 0.0481072 0)
(-0.00558439 0.0474943 0)
(-0.00655847 0.0465952 0)
(-0.00774588 0.0455678 0)
(-0.00914154 0.0443426 0)
(0.00042836 0.0590397 0)
(0.000966276 0.0453973 0)
(0.00118464 0.0451755 0)
(0.00159817 0.0455882 0)
(0.00179567 0.0460179 0)
(0.00201842 0.0465175 0)
(0.00220601 0.0471008 0)
(0.00237297 0.0477377 0)
(0.00242672 0.0483856 0)
(0.0022974 0.0490325 0)
(0.00194098 0.0494911 0)
(0.00135678 0.0497316 0)
(0.000593449 0.0498318 0)
(-0.00032064 0.0499116 0)
(-0.00127505 0.0499487 0)
(-0.00226948 0.0499237 0)
(-0.00326207 0.0497636 0)
(-0.00422866 0.0494326 0)
(-0.00518432 0.0489789 0)
(-0.00619457 0.0484538 0)
(-0.00735371 0.0477958 0)
(-0.00877794 0.0469428 0)
(-0.0104101 0.0459413 0)
(0.000620252 0.0581517 0)
(0.00104798 0.0448279 0)
(0.0010282 0.0446039 0)
(0.00133376 0.0450301 0)
(0.00141811 0.0454779 0)
(0.00157592 0.045987 0)
(0.0017404 0.0465909 0)
(0.00190293 0.0472642 0)
(0.00202767 0.0479839 0)
(0.00208794 0.0487838 0)
(0.00202467 0.0495883 0)
(0.00178163 0.0503156 0)
(0.00129906 0.0508571 0)
(0.000525179 0.0511027 0)
(-0.000530688 0.0510651 0)
(-0.00177702 0.0508315 0)
(-0.00306088 0.0505669 0)
(-0.00428584 0.0503552 0)
(-0.00548004 0.0500897 0)
(-0.00670165 0.0496837 0)
(-0.00801642 0.0491411 0)
(-0.00955514 0.0484928 0)
(-0.0113521 0.0477596 0)
(0.00070349 0.0574418 0)
(0.000863532 0.0450725 0)
(0.000305879 0.0449222 0)
(0.000283648 0.0453336 0)
(3.6047e-05 0.0458038 0)
(-3.05603e-05 0.0462908 0)
(-0.000126988 0.0467656 0)
(-0.00015936 0.0473497 0)
(-0.00010974 0.0480803 0)
(8.9919e-07 0.0488769 0)
(0.0001061 0.0497047 0)
(0.000152296 0.0504739 0)
(6.1228e-05 0.0511606 0)
(-0.000203197 0.0517627 0)
(-0.000647124 0.052224 0)
(-0.00133236 0.0524721 0)
(-0.00238112 0.0523552 0)
(-0.00387402 0.0518706 0)
(-0.00548258 0.051326 0)
(-0.00695345 0.0509539 0)
(-0.00845144 0.0506141 0)
(-0.0100892 0.0501973 0)
(-0.0119878 0.049725 0)
(0.000719964 0.0566851 0)
(0.000248844 0.0455088 0)
(-0.00124106 0.0453659 0)
(-0.00192079 0.0455986 0)
(-0.00278322 0.0459592 0)
(-0.003361 0.0463312 0)
(-0.00386352 0.0467623 0)
(-0.00419077 0.0472544 0)
(-0.00434068 0.0478493 0)
(-0.00428943 0.0485414 0)
(-0.00405774 0.0493635 0)
(-0.003736 0.0502423 0)
(-0.00343817 0.0510568 0)
(-0.00317844 0.0518004 0)
(-0.00302986 0.052366 0)
(-0.00311271 0.0527944 0)
(-0.00346521 0.0531514 0)
(-0.00400822 0.053406 0)
(-0.0049726 0.0532602 0)
(-0.00657277 0.0527192 0)
(-0.00849926 0.0522088 0)
(-0.0102939 0.0519401 0)
(-0.0123045 0.0517552 0)
(0.000565358 0.0564534 0)
(-0.000850319 0.046941 0)
(-0.00343761 0.0467959 0)
(-0.00508259 0.0468049 0)
(-0.00686163 0.0469418 0)
(-0.00823224 0.0471735 0)
(-0.00944146 0.0474169 0)
(-0.0103594 0.0476775 0)
(-0.0110009 0.0479689 0)
(-0.011285 0.0483572 0)
(-0.0111652 0.0489063 0)
(-0.0106295 0.0496072 0)
(-0.00978891 0.050417 0)
(-0.00888021 0.0512115 0)
(-0.00801157 0.0520008 0)
(-0.00731583 0.052673 0)
(-0.00684922 0.0531896 0)
(-0.0065157 0.0535527 0)
(-0.00657135 0.0539491 0)
(-0.00695831 0.0543518 0)
(-0.0079563 0.0543199 0)
(-0.00990019 0.0540175 0)
(-0.0122367 0.0539031 0)
(0.00018659 0.0567442 0)
(-0.00217234 0.0492936 0)
(-0.00562281 0.049099 0)
(-0.00821326 0.0488693 0)
(-0.0109016 0.0487517 0)
(-0.0131678 0.0486948 0)
(-0.0151373 0.0486816 0)
(-0.0167903 0.0487189 0)
(-0.0181261 0.0488131 0)
(-0.0190606 0.048833 0)
(-0.0196295 0.0488691 0)
(-0.0197437 0.0490359 0)
(-0.0192994 0.0493876 0)
(-0.018287 0.049911 0)
(-0.0167819 0.0505731 0)
(-0.0149094 0.0513985 0)
(-0.0129499 0.052295 0)
(-0.0114107 0.0531285 0)
(-0.0103891 0.0537823 0)
(-0.00977959 0.0543577 0)
(-0.00955879 0.0551854 0)
(-0.00991905 0.0560581 0)
(-0.0117212 0.0564415 0)
(-0.000197382 0.0581402 0)
(-0.00295721 0.0527469 0)
(-0.00678504 0.0524913 0)
(-0.00982419 0.0520819 0)
(-0.0129376 0.0516942 0)
(-0.0157342 0.0512653 0)
(-0.0181918 0.050891 0)
(-0.0202995 0.0505127 0)
(-0.0219227 0.0500873 0)
(-0.0232445 0.0497281 0)
(-0.024188 0.0493989 0)
(-0.0247402 0.0491896 0)
(-0.0249203 0.0490905 0)
(-0.0247293 0.0490551 0)
(-0.0241214 0.0491515 0)
(-0.0230539 0.0494349 0)
(-0.0214904 0.0499628 0)
(-0.0193872 0.0508333 0)
(-0.0169327 0.0520267 0)
(-0.0147082 0.0534513 0)
(-0.0131159 0.0549547 0)
(-0.0124118 0.0563359 0)
(-0.0122263 0.057808 0)
(-0.000497312 0.0599617 0)
(-0.00326616 0.0562385 0)
(-0.00674448 0.0558245 0)
(-0.00969341 0.0552674 0)
(-0.0127528 0.0547181 0)
(-0.0156058 0.0541146 0)
(-0.0182782 0.05346 0)
(-0.0206954 0.0527717 0)
(-0.022894 0.0520863 0)
(-0.0247582 0.0514146 0)
(-0.0262259 0.0507561 0)
(-0.0272855 0.0500943 0)
(-0.0278851 0.0494924 0)
(-0.0280521 0.048994 0)
(-0.0278356 0.0486318 0)
(-0.027253 0.0484569 0)
(-0.0262763 0.0485206 0)
(-0.0248944 0.0488691 0)
(-0.0231278 0.0496252 0)
(-0.0209964 0.0508244 0)
(-0.0185653 0.0526248 0)
(-0.0161881 0.0550895 0)
(-0.0143948 0.0576442 0)
(-0.000841895 0.0633721 0)
(-0.00375338 0.060969 0)
(-0.00711418 0.0606023 0)
(-0.0100608 0.0599853 0)
(-0.0131213 0.0592899 0)
(-0.0159869 0.0584362 0)
(-0.0187155 0.0574682 0)
(-0.0212346 0.0563962 0)
(-0.0235039 0.0552421 0)
(-0.0254949 0.0540372 0)
(-0.0271917 0.0528092 0)
(-0.0285631 0.0515783 0)
(-0.0295693 0.0503723 0)
(-0.0301344 0.0493254 0)
(-0.0302238 0.0483066 0)
(-0.0298232 0.0475381 0)
(-0.0290389 0.0470301 0)
(-0.0279019 0.046818 0)
(-0.0264273 0.0470596 0)
(-0.0247357 0.0478441 0)
(-0.0228324 0.0492371 0)
(-0.0207629 0.0514382 0)
(-0.0185414 0.0545775 0)
)
;

boundaryField
{
    leftWall
    {
        type            calculated;
        value           uniform (0 0 0);
    }
    rightWall
    {
        type            calculated;
        value           nonuniform 0();
    }
    lowerWall
    {
        type            calculated;
        value           nonuniform 0();
    }
    atmosphere
    {
        type            calculated;
        value           nonuniform List<vector> 
23
(
(-0.000841895 0.0633762 0)
(-0.00375338 0.0609754 0)
(-0.00711418 0.0606086 0)
(-0.0100608 0.0599909 0)
(-0.0131213 0.059295 0)
(-0.0159869 0.0584409 0)
(-0.0187155 0.0574725 0)
(-0.0212346 0.0563999 0)
(-0.0235039 0.0552451 0)
(-0.0254949 0.0540398 0)
(-0.0271917 0.052811 0)
(-0.0285631 0.0515789 0)
(-0.0295693 0.0503715 0)
(-0.0301344 0.049323 0)
(-0.0302238 0.0483034 0)
(-0.0298232 0.0475345 0)
(-0.0290389 0.0470262 0)
(-0.0279019 0.0468133 0)
(-0.0264273 0.0470547 0)
(-0.0247357 0.0478389 0)
(-0.0228324 0.0492309 0)
(-0.0207629 0.0514304 0)
(-0.0185414 0.0545679 0)
)
;
    }
    defaultFaces
    {
        type            empty;
    }
    procBoundary2to0
    {
        type            processor;
        value           nonuniform List<vector> 
24
(
(-0.0152728 0.0150812 0)
(-0.0303357 0.0235416 0)
(-0.04175 0.0400818 0)
(-0.0472596 0.0614806 0)
(-0.0527487 0.0747936 0)
(-0.0500961 0.0858869 0)
(-0.0386542 0.102495 0)
(0.00286994 0.0790617 0)
(0.00709765 0.0580262 0)
(0.0101337 0.0533723 0)
(0.0112642 0.0492102 0)
(0.0107436 0.0456052 0)
(0.00908203 0.0428678 0)
(0.00705723 0.0414432 0)
(0.00555843 0.0412578 0)
(0.00452105 0.0413549 0)
(0.00521998 0.0423807 0)
(0.00910779 0.0413177 0)
(0.0128608 0.0373172 0)
(0.0124609 0.0330296 0)
(0.00921259 0.029801 0)
(0.00227434 0.0251817 0)
(-0.00752812 0.0254449 0)
(-0.00752812 0.0254449 0)
)
;
    }
    procBoundary2to3
    {
        type            processor;
        value           nonuniform List<vector> 
25
(
(-0.0155799 0.0987891 0)
(-0.00643547 0.0858568 0)
(0.00215122 0.0809538 0)
(0.00181086 0.0731712 0)
(0.00779703 0.0652193 0)
(0.00737025 0.0607409 0)
(0.00988653 0.0522528 0)
(0.00777545 0.0478363 0)
(0.00597815 0.0447261 0)
(0.00436257 0.0409148 0)
(0.00126744 0.0403291 0)
(-0.00115886 0.0392338 0)
(-0.003827 0.0397038 0)
(-0.00621136 0.0403653 0)
(-0.00836342 0.0416382 0)
(-0.0101732 0.0432216 0)
(-0.0116409 0.0450838 0)
(-0.0127407 0.0471477 0)
(-0.0134772 0.049347 0)
(-0.0138582 0.0516192 0)
(-0.0138393 0.053961 0)
(-0.0134332 0.0564414 0)
(-0.0128538 0.0586682 0)
(-0.0141371 0.0593804 0)
(-0.0175913 0.0570576 0)
)
;
    }
}


// ************************************************************************* //
