/*--------------------------------*- C++ -*----------------------------------*\
| =========                 |                                                 |
| \\      /  F ield         | OpenFOAM: The Open Source CFD Toolbox           |
|  \\    /   O peration     | Version:  2.4.0                                 |
|   \\  /    A nd           | Web:      www.OpenFOAM.org                      |
|    \\/     M anipulation  |                                                 |
\*---------------------------------------------------------------------------*/
FoamFile
{
    version     2.0;
    format      ascii;
    class       volVectorField;
    location    "0.65";
    object      U.oil;
}
// * * * * * * * * * * * * * * * * * * * * * * * * * * * * * * * * * * * * * //

dimensions      [0 1 -1 0 0 0 0];

internalField   nonuniform List<vector> 
559
(
(-0.0211523 0.0271964 0)
(-0.0300011 0.0341606 0)
(-0.0359241 0.0459572 0)
(-0.0402556 0.0633833 0)
(-0.0384307 0.074415 0)
(-0.0348513 0.0802673 0)
(-0.0240867 0.0906071 0)
(0.00201943 0.0748958 0)
(0.00546493 0.0545984 0)
(0.00780211 0.0514393 0)
(0.00823926 0.0486299 0)
(0.00789044 0.0463446 0)
(0.00620909 0.0444998 0)
(0.00438517 0.0433343 0)
(0.00284051 0.0428073 0)
(0.0014526 0.0422773 0)
(0.00118497 0.0410688 0)
(0.00132439 0.0394364 0)
(0.00177919 0.0373092 0)
(-0.000272254 0.0350811 0)
(-0.00248194 0.0316992 0)
(-0.00777978 0.0312496 0)
(-0.0141906 0.0339763 0)
(-0.0206903 0.0345242 0)
(-0.0262657 0.0375263 0)
(-0.0304856 0.048239 0)
(-0.031904 0.0612236 0)
(-0.0272908 0.0685998 0)
(-0.0208899 0.0703693 0)
(-0.0118944 0.0785871 0)
(0.00181392 0.071255 0)
(0.00398225 0.0522033 0)
(0.00479055 0.0508395 0)
(0.00540794 0.0491439 0)
(0.0052988 0.0474936 0)
(0.00490673 0.046223 0)
(0.00422217 0.0449181 0)
(0.00333471 0.0441831 0)
(0.00249941 0.0433198 0)
(0.00167684 0.0420623 0)
(0.000376153 0.0408068 0)
(-0.000445936 0.0395551 0)
(-0.00285044 0.037875 0)
(-0.00597511 0.0365965 0)
(-0.00917415 0.0369493 0)
(-0.0119611 0.0377835 0)
(-0.013245 0.0391322 0)
(-0.0173929 0.0439863 0)
(-0.021273 0.0518969 0)
(-0.0192698 0.0601038 0)
(-0.0151364 0.0637979 0)
(-0.0100893 0.0653628 0)
(-0.00306243 0.0719555 0)
(0.00123992 0.0689388 0)
(0.00252224 0.0512246 0)
(0.00358348 0.0499393 0)
(0.00442106 0.0484045 0)
(0.00467881 0.0472897 0)
(0.00494834 0.0463786 0)
(0.00489794 0.0455454 0)
(0.00457473 0.045036 0)
(0.00423214 0.0445853 0)
(0.0035457 0.0437007 0)
(0.00202063 0.0416858 0)
(0.00051516 0.0399916 0)
(-0.00125906 0.0403284 0)
(-0.00369364 0.0392892 0)
(-0.00612267 0.0387336 0)
(-0.00880584 0.0387796 0)
(-0.0109354 0.0428479 0)
(-0.0140753 0.0473495 0)
(-0.0151097 0.0515921 0)
(-0.013587 0.0573198 0)
(-0.0108865 0.05969 0)
(-0.00646339 0.0597135 0)
(-0.00283304 0.0646019 0)
(0.000884091 0.0674235 0)
(0.00195845 0.0497567 0)
(0.00320586 0.048754 0)
(0.00371641 0.0476957 0)
(0.00396715 0.0469089 0)
(0.00402959 0.0460771 0)
(0.00394855 0.0454168 0)
(0.00398684 0.0448054 0)
(0.00415115 0.0441257 0)
(0.00424755 0.0438591 0)
(0.00338989 0.0432099 0)
(0.00173192 0.0425655 0)
(0.00110646 0.0422801 0)
(-9.4738e-05 0.0416334 0)
(-0.00211341 0.0414216 0)
(-0.00487686 0.0421631 0)
(-0.00750323 0.043857 0)
(-0.00767143 0.0465395 0)
(-0.00694296 0.050395 0)
(-0.00516022 0.0547935 0)
(-0.0019723 0.0560509 0)
(0.00230396 0.0563589 0)
(0.00440795 0.0604902 0)
(0.000791995 0.0659646 0)
(0.00164707 0.0490218 0)
(0.00188705 0.0483541 0)
(0.002203 0.0478352 0)
(0.00226189 0.0470326 0)
(0.00221255 0.0461257 0)
(0.00200825 0.0453515 0)
(0.00172401 0.0447789 0)
(0.00146233 0.0446585 0)
(0.00109255 0.0446913 0)
(0.00095164 0.0446187 0)
(-0.000308137 0.0437542 0)
(-0.00136699 0.0426094 0)
(-0.00217034 0.0433237 0)
(-0.00313599 0.0438985 0)
(-0.00425012 0.0456873 0)
(-0.00592939 0.046745 0)
(-0.00720832 0.0478477 0)
(-0.0067729 0.0509342 0)
(-0.00548005 0.0529121 0)
(-0.00270303 0.0535885 0)
(-0.000274776 0.0547654 0)
(0.00336449 0.0581946 0)
(0.000553398 0.0649619 0)
(0.00119977 0.0484746 0)
(0.00153364 0.0479468 0)
(0.00194023 0.0473389 0)
(0.00203497 0.0468458 0)
(0.00204831 0.0464996 0)
(0.00184271 0.0460094 0)
(0.00148828 0.0453679 0)
(0.00101633 0.0446075 0)
(0.000473198 0.0446567 0)
(-2.10829e-06 0.0443553 0)
(-0.000466506 0.0435642 0)
(-0.00190282 0.0437993 0)
(-0.00312825 0.0431832 0)
(-0.00444487 0.0434127 0)
(-0.0046771 0.0445743 0)
(-0.00364908 0.0453516 0)
(-0.00320426 0.0471601 0)
(-0.00300355 0.048378 0)
(-0.00117528 0.0493671 0)
(0.00140987 0.0498599 0)
(0.00183476 0.0502209 0)
(0.00612034 0.0514635 0)
(0.000614308 0.0639213 0)
(0.00126089 0.0479457 0)
(0.00158402 0.0475949 0)
(0.00192891 0.0473487 0)
(0.00207442 0.0470547 0)
(0.00205854 0.0466091 0)
(0.00202636 0.0462307 0)
(0.00188038 0.0459182 0)
(0.00157138 0.0457045 0)
(0.000877934 0.0450619 0)
(0.000657119 0.0449662 0)
(0.000515835 0.0455101 0)
(0.000274947 0.0454366 0)
(-0.00040552 0.0452764 0)
(-0.001635 0.0455404 0)
(-0.00220474 0.0455339 0)
(-0.00382105 0.0464319 0)
(-0.00414752 0.0480365 0)
(-0.0034298 0.0483171 0)
(-0.00142824 0.0493317 0)
(-0.000508751 0.0497232 0)
(0.0016913 0.0500213 0)
(0.00478172 0.0481588 0)
(0.000371399 0.0633587 0)
(0.000717494 0.0476528 0)
(0.000923004 0.0472606 0)
(0.00120644 0.046989 0)
(0.00130252 0.046712 0)
(0.00128385 0.0464184 0)
(0.00114975 0.0460792 0)
(0.000892472 0.0457518 0)
(0.000561291 0.0456074 0)
(0.000236605 0.0458755 0)
(-0.000293216 0.0457417 0)
(-0.00129813 0.0452123 0)
(-0.00181042 0.0453079 0)
(-0.00208903 0.046145 0)
(-0.0025508 0.0461414 0)
(-0.00337916 0.0459911 0)
(-0.00305966 0.0467655 0)
(-0.00206807 0.0459161 0)
(-0.00075976 0.0467738 0)
(-0.00108379 0.0470326 0)
(0.00074122 0.0478836 0)
(0.00200181 0.0461924 0)
(0.00448628 0.0450948 0)
(0.000387578 0.0625871 0)
(0.000825046 0.0472413 0)
(0.00100004 0.0469058 0)
(0.00128527 0.0467783 0)
(0.00140353 0.0466844 0)
(0.00154826 0.0466596 0)
(0.00153139 0.0465202 0)
(0.00137981 0.0463924 0)
(0.00113963 0.0462531 0)
(0.000991302 0.0460677 0)
(0.000617139 0.0459786 0)
(7.10081e-05 0.0461234 0)
(-0.0006463 0.0457306 0)
(-0.00157894 0.0456907 0)
(-0.00131849 0.0455303 0)
(-0.000950834 0.0463858 0)
(-0.00148458 0.046252 0)
(-0.00199904 0.047057 0)
(-0.00261212 0.0474305 0)
(-0.00193119 0.046758 0)
(-0.000208535 0.045133 0)
(0.00119256 0.0450069 0)
(0.00220688 0.0437853 0)
(0.000324809 0.0622248 0)
(0.000660273 0.0471696 0)
(0.000799166 0.0469057 0)
(0.0010039 0.0467977 0)
(0.000982361 0.0466715 0)
(0.000977984 0.0465046 0)
(0.000865779 0.0463691 0)
(0.000623045 0.0462726 0)
(0.000250111 0.0461559 0)
(-0.000163793 0.0461118 0)
(-0.000348612 0.0465197 0)
(-2.77622e-05 0.046536 0)
(-0.000351375 0.046765 0)
(-0.00069778 0.0466662 0)
(-0.00195641 0.0471394 0)
(-0.00301131 0.0464823 0)
(-0.00320708 0.0465999 0)
(-0.00276038 0.0466679 0)
(-0.00153217 0.0452835 0)
(-0.00044585 0.0453197 0)
(-0.00103464 0.0459595 0)
(-0.00088883 0.044136 0)
(0.000740066 0.0415615 0)
(0.000303496 0.0615132 0)
(0.000677742 0.0467083 0)
(0.00088398 0.0464627 0)
(0.00122148 0.0465001 0)
(0.00141079 0.0465865 0)
(0.00152238 0.0466477 0)
(0.00153447 0.0467168 0)
(0.00147036 0.0467747 0)
(0.00130637 0.0468372 0)
(0.000926155 0.046848 0)
(0.000203724 0.0466268 0)
(-0.000867009 0.0468471 0)
(-0.00136968 0.0469621 0)
(-0.0016997 0.0470874 0)
(-0.00152348 0.0465777 0)
(-0.00103063 0.0462397 0)
(-0.00105292 0.0463031 0)
(-0.00156255 0.0460535 0)
(-0.00238505 0.0470094 0)
(-0.00314281 0.0461127 0)
(-0.00216002 0.0440067 0)
(-0.00162645 0.0430592 0)
(-0.00171731 0.041652 0)
(0.000255222 0.061254 0)
(0.000565778 0.0466851 0)
(0.000695832 0.0464038 0)
(0.000921097 0.0464323 0)
(0.000978998 0.0464408 0)
(0.000978503 0.0464552 0)
(0.00086453 0.0465245 0)
(0.000672526 0.0466723 0)
(0.000425711 0.0468759 0)
(0.0001891 0.0471718 0)
(8.69195e-05 0.0475483 0)
(0.000262309 0.0475741 0)
(6.66178e-05 0.0473905 0)
(-0.000339434 0.0472851 0)
(-0.000987763 0.0475215 0)
(-0.00215657 0.0476796 0)
(-0.00304401 0.0474825 0)
(-0.00333811 0.0473115 0)
(-0.00312493 0.0457292 0)
(-0.00256247 0.0450929 0)
(-0.00312945 0.0449129 0)
(-0.0037202 0.0433331 0)
(-0.00369784 0.0413086 0)
(0.000278033 0.0606045 0)
(0.000768741 0.0462178 0)
(0.00105255 0.0459811 0)
(0.00144302 0.0461481 0)
(0.0016483 0.0463434 0)
(0.00179233 0.0465694 0)
(0.0017841 0.0467936 0)
(0.00162451 0.0469663 0)
(0.00132013 0.0470962 0)
(0.00087608 0.0471709 0)
(0.00025838 0.0471819 0)
(-0.000584664 0.0473928 0)
(-0.00126062 0.047664 0)
(-0.00181102 0.0477039 0)
(-0.00219974 0.0475595 0)
(-0.00223163 0.0471652 0)
(-0.00223775 0.0468449 0)
(-0.00260336 0.0467673 0)
(-0.00332545 0.0469558 0)
(-0.0041643 0.0461925 0)
(-0.00451796 0.0447331 0)
(-0.00500739 0.0435234 0)
(-0.00579061 0.0419911 0)
(0.000279255 0.060258 0)
(0.000699486 0.0460289 0)
(0.000921982 0.0457716 0)
(0.00124625 0.0460003 0)
(0.00138077 0.0462667 0)
(0.00148489 0.0466064 0)
(0.00148469 0.0470033 0)
(0.00138936 0.0474204 0)
(0.00119303 0.0478268 0)
(0.000931306 0.048185 0)
(0.00061413 0.0484969 0)
(0.000278972 0.0485324 0)
(-0.000128439 0.0485089 0)
(-0.000633486 0.0485835 0)
(-0.00126882 0.0486081 0)
(-0.00209808 0.0486025 0)
(-0.00302244 0.0484348 0)
(-0.00376075 0.0479022 0)
(-0.00426068 0.0470522 0)
(-0.00468597 0.0463643 0)
(-0.00548459 0.0456193 0)
(-0.00653606 0.0443745 0)
(-0.0075812 0.0429002 0)
(0.000366157 0.0595373 0)
(0.000946102 0.0454745 0)
(0.00124447 0.0452545 0)
(0.00169106 0.0455696 0)
(0.00192137 0.0458946 0)
(0.00213095 0.0462839 0)
(0.00221151 0.046701 0)
(0.00216056 0.0471197 0)
(0.00194569 0.0475114 0)
(0.00157624 0.0478366 0)
(0.00105415 0.0481433 0)
(0.000382431 0.0485176 0)
(-0.000360445 0.0487656 0)
(-0.00108609 0.0488508 0)
(-0.00178574 0.0488522 0)
(-0.00242114 0.0487204 0)
(-0.00301227 0.0484987 0)
(-0.00372994 0.0482941 0)
(-0.0046189 0.0480189 0)
(-0.00556913 0.047404 0)
(-0.00653757 0.0465026 0)
(-0.00772358 0.045473 0)
(-0.00912709 0.0442458 0)
(0.000426121 0.0589243 0)
(0.000960155 0.0452823 0)
(0.00117518 0.0450611 0)
(0.00158531 0.0454749 0)
(0.00177946 0.0459059 0)
(0.001999 0.0464071 0)
(0.00218344 0.0469924 0)
(0.0023472 0.0476314 0)
(0.0023975 0.0482817 0)
(0.00226432 0.0489311 0)
(0.00190365 0.0493925 0)
(0.001315 0.049636 0)
(0.000548809 0.0497394 0)
(-0.000368316 0.0498231 0)
(-0.00131882 0.0498627 0)
(-0.00230475 0.0498409 0)
(-0.00328754 0.0496816 0)
(-0.00423854 0.0493508 0)
(-0.00518075 0.0488963 0)
(-0.00618122 0.0483696 0)
(-0.00733467 0.0477096 0)
(-0.0087579 0.0468546 0)
(-0.0103963 0.0458514 0)
(0.000618908 0.0580395 0)
(0.00104342 0.0447159 0)
(0.00102004 0.0444927 0)
(0.00132227 0.04492 0)
(0.00140351 0.0453693 0)
(0.00155836 0.0458802 0)
(0.00171994 0.0464862 0)
(0.00187948 0.0471618 0)
(0.00200098 0.047884 0)
(0.00205761 0.0486866 0)
(0.00199031 0.0494942 0)
(0.00174317 0.0502247 0)
(0.00125706 0.05077 0)
(0.000483345 0.051019 0)
(-0.000572527 0.0509845 0)
(-0.00181307 0.0507536 0)
(-0.00308358 0.0504894 0)
(-0.00429585 0.0502786 0)
(-0.00547776 0.050012 0)
(-0.00668982 0.0496051 0)
(-0.00799944 0.049061 0)
(-0.00953665 0.0484113 0)
(-0.0113399 0.0476764 0)
(0.000701634 0.0573326 0)
(0.000858559 0.0449636 0)
(0.000298303 0.0448142 0)
(0.000273371 0.0452267 0)
(2.30773e-05 0.0456985 0)
(-4.61643e-05 0.0461874 0)
(-0.000145223 0.0466644 0)
(-0.000180342 0.047251 0)
(-0.000133724 0.0479843 0)
(-2.6458e-05 0.0487839 0)
(7.49842e-05 0.0496149 0)
(0.000117531 0.0503877 0)
(2.3727e-05 0.0510784 0)
(-0.000244432 0.0516837 0)
(-0.000685121 0.0521487 0)
(-0.0013644 0.0523981 0)
(-0.00240516 0.0522829 0)
(-0.00388401 0.0517985 0)
(-0.00548095 0.0512535 0)
(-0.00694257 0.0508807 0)
(-0.00843536 0.0505401 0)
(-0.0100724 0.0501222 0)
(-0.0119759 0.0496491 0)
(0.000719036 0.0565788 0)
(0.000245498 0.0454028 0)
(-0.00124725 0.0452609 0)
(-0.00192956 0.0454947 0)
(-0.0027944 0.045857 0)
(-0.00337451 0.046231 0)
(-0.00387936 0.0466644 0)
(-0.00420907 0.0471592 0)
(-0.0043617 0.047757 0)
(-0.00431353 0.0484523 0)
(-0.00408524 0.0492781 0)
(-0.00376695 0.0501608 0)
(-0.00347302 0.0509793 0)
(-0.00321339 0.0517269 0)
(-0.00306667 0.0522954 0)
(-0.00314578 0.0527258 0)
(-0.00348624 0.0530841 0)
(-0.00401863 0.0533384 0)
(-0.00497141 0.0531927 0)
(-0.00656242 0.0526516 0)
(-0.00848417 0.052141 0)
(-0.0102774 0.0518726 0)
(-0.012294 0.0516864 0)
(0.000563932 0.0563495 0)
(-0.000854022 0.0468376 0)
(-0.0034431 0.0466934 0)
(-0.00508998 0.0467037 0)
(-0.00687096 0.0468423 0)
(-0.00824352 0.0470761 0)
(-0.00945473 0.047322 0)
(-0.0103748 0.0475854 0)
(-0.0110186 0.04788 0)
(-0.0113055 0.0482719 0)
(-0.0111888 0.0488249 0)
(-0.0106564 0.0495301 0)
(-0.00981852 0.0503443 0)
(-0.00891447 0.0511432 0)
(-0.00804467 0.0519358 0)
(-0.00734473 0.05261 0)
(-0.00687236 0.0531268 0)
(-0.00652594 0.0534903 0)
(-0.00656999 0.053887 0)
(-0.00694793 0.0542899 0)
(-0.00794012 0.054259 0)
(-0.0098843 0.053957 0)
(-0.0122263 0.0538418 0)
(0.000186112 0.0566412 0)
(-0.00217435 0.0491914 0)
(-0.00562679 0.0489979 0)
(-0.00821898 0.0487696 0)
(-0.010909 0.0486538 0)
(-0.0131767 0.0485992 0)
(-0.0151478 0.0485885 0)
(-0.0168026 0.0486288 0)
(-0.0181403 0.0487264 0)
(-0.0190771 0.0487502 0)
(-0.0196486 0.0487906 0)
(-0.0197659 0.0489622 0)
(-0.0193254 0.0493191 0)
(-0.0183144 0.0498473 0)
(-0.0168135 0.0505129 0)
(-0.0149402 0.0513401 0)
(-0.0129703 0.0522388 0)
(-0.0114204 0.053074 0)
(-0.0103873 0.0537285 0)
(-0.00976809 0.0543047 0)
(-0.00954252 0.0551328 0)
(-0.00990317 0.0560037 0)
(-0.0117118 0.0563873 0)
(-0.000198081 0.0580393 0)
(-0.00295912 0.0526459 0)
(-0.00678804 0.0523911 0)
(-0.00982834 0.051983 0)
(-0.0129429 0.0515972 0)
(-0.0157406 0.0511706 0)
(-0.0181995 0.0507989 0)
(-0.0203085 0.0504238 0)
(-0.0219331 0.050002 0)
(-0.0232567 0.049647 0)
(-0.0242022 0.0493226 0)
(-0.0247571 0.0491185 0)
(-0.0249399 0.0490254 0)
(-0.0247552 0.0489957 0)
(-0.0241492 0.0490969 0)
(-0.0230788 0.049388 0)
(-0.0215096 0.0499205 0)
(-0.0193949 0.0507949 0)
(-0.0169298 0.0519899 0)
(-0.0146965 0.053414 0)
(-0.013101 0.0549138 0)
(-0.0123976 0.0562924 0)
(-0.0122171 0.0577591 0)
(-0.000497807 0.0598629 0)
(-0.00326744 0.0561401 0)
(-0.00674637 0.0557271 0)
(-0.00969595 0.0551714 0)
(-0.012756 0.054624 0)
(-0.0156097 0.0540228 0)
(-0.0182829 0.053371 0)
(-0.0207008 0.052686 0)
(-0.0229004 0.0520044 0)
(-0.0247657 0.0513371 0)
(-0.0262348 0.0506837 0)
(-0.0272964 0.0500279 0)
(-0.0278994 0.049433 0)
(-0.0280689 0.0489423 0)
(-0.0278547 0.048592 0)
(-0.0272714 0.0484258 0)
(-0.0262883 0.0484995 0)
(-0.0248987 0.0488533 0)
(-0.0231248 0.0496105 0)
(-0.0209889 0.0508065 0)
(-0.0185551 0.0526013 0)
(-0.0161801 0.0550599 0)
(-0.0143925 0.0576082 0)
(-0.000842059 0.0632765 0)
(-0.00375382 0.0608741 0)
(-0.00711482 0.0605084 0)
(-0.0100616 0.0598928 0)
(-0.0131224 0.0591994 0)
(-0.0159883 0.058348 0)
(-0.018717 0.0573829 0)
(-0.0212364 0.0563142 0)
(-0.023506 0.055164 0)
(-0.0254975 0.0539637 0)
(-0.0271947 0.052741 0)
(-0.0285669 0.0515167 0)
(-0.0295742 0.0503187 0)
(-0.0301406 0.0492829 0)
(-0.0302308 0.0482761 0)
(-0.0298292 0.0475216 0)
(-0.0290427 0.0470239 0)
(-0.0279032 0.0468171 0)
(-0.0264264 0.0470588 0)
(-0.0247329 0.0478393 0)
(-0.0228293 0.049226 0)
(-0.0207611 0.0514201 0)
(-0.0185433 0.0545564 0)
)
;

boundaryField
{
    leftWall
    {
        type            fixedValue;
        value           uniform (0 0 0);
    }
    rightWall
    {
        type            fixedValue;
        value           nonuniform 0();
    }
    lowerWall
    {
        type            fixedValue;
        value           nonuniform 0();
    }
    atmosphere
    {
        type            fluxCorrectedVelocity;
        value           nonuniform List<vector> 
23
(
(-0.000842059 0.0633762 0)
(-0.00375382 0.0609754 0)
(-0.00711482 0.0606086 0)
(-0.0100616 0.0599909 0)
(-0.0131224 0.059295 0)
(-0.0159883 0.0584409 0)
(-0.018717 0.0574725 0)
(-0.0212364 0.0564 0)
(-0.023506 0.0552451 0)
(-0.0254975 0.0540398 0)
(-0.0271947 0.052811 0)
(-0.0285669 0.0515789 0)
(-0.0295742 0.0503715 0)
(-0.0301406 0.0493231 0)
(-0.0302308 0.0483034 0)
(-0.0298292 0.0475345 0)
(-0.0290427 0.0470262 0)
(-0.0279032 0.0468134 0)
(-0.0264264 0.0470547 0)
(-0.0247329 0.0478389 0)
(-0.0228293 0.0492309 0)
(-0.0207611 0.0514304 0)
(-0.0185433 0.0545679 0)
)
;
    }
    defaultFaces
    {
        type            empty;
    }
    procBoundary2to0
    {
        type            processor;
        value           nonuniform List<vector> 
24
(
(-0.0152659 0.0134091 0)
(-0.0303623 0.0224088 0)
(-0.0417784 0.0394075 0)
(-0.0472732 0.0610946 0)
(-0.052754 0.0745271 0)
(-0.0500645 0.0856597 0)
(-0.038638 0.102273 0)
(0.00286911 0.0789562 0)
(0.00709676 0.0579199 0)
(0.0101342 0.053264 0)
(0.0112657 0.0490987 0)
(0.0107459 0.0454891 0)
(0.00908498 0.0427457 0)
(0.00706071 0.0413137 0)
(0.00556235 0.0411193 0)
(0.00452507 0.0412061 0)
(0.00522374 0.0422199 0)
(0.00911054 0.0411447 0)
(0.0128611 0.0371271 0)
(0.0124635 0.0326995 0)
(0.00921436 0.0290641 0)
(0.00229368 0.0240081 0)
(-0.00753203 0.0242241 0)
(-0.00753203 0.0242241 0)
)
;
    }
    procBoundary2to3
    {
        type            processor;
        value           nonuniform List<vector> 
25
(
(-0.0155083 0.0986459 0)
(-0.00640076 0.0856974 0)
(0.00218662 0.0807767 0)
(0.00182697 0.0729767 0)
(0.00781506 0.0650236 0)
(0.00737812 0.06055 0)
(0.00989717 0.0520735 0)
(0.00778124 0.047667 0)
(0.00598685 0.0445682 0)
(0.00436936 0.0407671 0)
(0.00127623 0.0401922 0)
(-0.00115083 0.0391056 0)
(-0.00381762 0.0395845 0)
(-0.006202 0.0402539 0)
(-0.00835345 0.0415345 0)
(-0.0101632 0.0431248 0)
(-0.0116306 0.0449937 0)
(-0.0127307 0.0470645 0)
(-0.0134668 0.0492705 0)
(-0.0138491 0.0515504 0)
(-0.0138303 0.0538996 0)
(-0.0134263 0.0563864 0)
(-0.0128476 0.0586182 0)
(-0.0141339 0.0593409 0)
(-0.0175905 0.0570384 0)
)
;
    }
}


// ************************************************************************* //
