/*--------------------------------*- C++ -*----------------------------------*\
| =========                 |                                                 |
| \\      /  F ield         | OpenFOAM: The Open Source CFD Toolbox           |
|  \\    /   O peration     | Version:  2.4.0                                 |
|   \\  /    A nd           | Web:      www.OpenFOAM.org                      |
|    \\/     M anipulation  |                                                 |
\*---------------------------------------------------------------------------*/
FoamFile
{
    version     2.0;
    format      ascii;
    class       volScalarField;
    location    "0.4";
    object      alpha.oil;
}
// * * * * * * * * * * * * * * * * * * * * * * * * * * * * * * * * * * * * * //

dimensions      [0 0 0 0 0 0 0];

internalField   nonuniform List<scalar> 
575
(
1.52205e-09
1.47796e-09
1.07746e-09
9.81025e-10
6.41921e-10
4.93239e-10
4.50407e-10
3.55914e-10
3.64198e-10
2.48254e-10
1.69349e-10
1.212e-10
2.12438e-10
1.46692e-10
9.75596e-11
6.70348e-11
8.85837e-11
6.46728e-11
4.5609e-11
3.13763e-11
2.83809e-11
2.13114e-11
1.53522e-11
1.06979e-11
7.58162e-12
5.89161e-12
4.37433e-12
3.11167e-12
1.67578e-12
1.36779e-12
1.06094e-12
7.81065e-13
3.08876e-13
2.66041e-13
2.16316e-13
1.654e-13
4.76768e-14
4.34097e-14
3.72986e-14
2.98076e-14
6.22556e-15
5.98895e-15
5.46607e-15
4.59952e-15
6.91705e-16
7.05078e-16
6.88456e-16
6.1507e-16
6.56827e-17
7.15373e-17
7.52951e-17
7.20593e-17
5.35404e-18
6.30964e-18
7.2234e-18
7.47624e-18
3.77106e-19
4.87817e-19
6.13334e-19
6.93219e-19
2.31343e-20
3.3319e-20
4.64821e-20
5.79437e-20
1.24547e-21
2.02304e-21
3.16475e-21
4.39588e-21
5.91889e-23
1.09722e-22
1.94601e-22
3.04559e-22
2.49005e-24
5.32451e-24
1.08335e-23
1.93408e-23
9.25441e-26
2.3079e-25
5.45943e-25
1.12769e-24
3.0143e-27
8.8663e-27
2.47695e-26
6.02329e-26
8.45821e-29
2.97225e-28
1.00005e-27
2.92993e-27
1.99701e-30
8.45978e-30
3.50257e-29
1.27424e-28
3.69207e-32
1.90792e-31
1.00702e-30
4.84849e-30
5.89356e-34
3.35414e-33
2.00787e-32
1.3123e-31
8.42155e-10
9.14074e-10
1.23994e-09
1.76718e-09
2.35788e-09
2.96664e-09
3.23819e-09
3.29011e-09
4.14555e-09
8.04447e-09
2.15373e-08
6.29876e-08
1.88325e-07
4.72884e-07
1.13797e-06
2.25051e-06
3.14519e-06
0.603029
0.981532
3.0319e-10
2.25309e-10
2.9583e-10
4.34668e-10
5.93124e-10
7.78269e-10
9.71685e-10
1.15043e-09
1.85001e-09
4.87403e-09
1.5423e-08
4.87673e-08
1.56986e-07
4.11195e-07
1.05682e-06
2.42905e-06
3.21635e-06
0.276512
0.962361
9.00448e-11
5.20133e-11
7.00855e-11
1.04319e-10
1.48946e-10
1.94614e-10
2.7637e-10
4.15101e-10
9.29148e-10
3.0663e-09
1.08464e-08
3.63837e-08
1.26453e-07
3.49047e-07
9.96487e-07
2.4986e-06
3.27642e-06
0.051866
0.920792
4.91287e-11
1.30906e-11
1.33948e-11
2.18228e-11
3.41056e-11
4.92516e-11
7.81356e-11
1.58451e-10
4.89384e-10
1.84287e-09
6.87325e-09
2.2327e-08
9.79908e-08
2.77571e-07
9.19828e-07
2.38483e-06
3.32044e-06
0.00462484
0.871118
2.13132e-11
4.49093e-12
2.94192e-12
4.62731e-12
7.5173e-12
1.16219e-11
2.15167e-11
6.07135e-11
2.37158e-10
9.91874e-10
3.98097e-09
1.41996e-08
5.60472e-08
1.29476e-07
6.25276e-07
2.11964e-06
3.2844e-06
0.000303816
0.833922
7.33393e-12
1.54079e-12
6.69899e-13
9.7606e-13
1.64106e-12
2.66469e-12
5.36373e-12
1.82264e-11
8.19748e-11
3.99412e-10
1.78694e-09
7.08033e-09
3.06581e-08
5.43654e-08
4.18084e-07
2.45686e-06
4.03199e-06
0.000157406
0.744011
2.16484e-12
4.86009e-13
1.56522e-13
1.9373e-13
3.33043e-13
5.82664e-13
1.32531e-12
5.09083e-12
2.41226e-11
1.21494e-10
7.17753e-10
3.36428e-09
1.75202e-08
3.85329e-08
2.58967e-07
9.40026e-06
1.88732e-05
0.000289127
0.431837
5.55103e-13
1.36318e-13
3.70347e-14
3.56304e-14
5.94145e-14
9.98757e-14
1.97677e-13
7.54982e-13
4.70735e-12
2.91166e-11
2.02103e-10
1.53026e-09
1.03039e-08
4.00294e-08
3.72112e-07
2.57141e-05
0.000102381
0.00149874
0.130023
1.20764e-13
3.37891e-14
8.6282e-15
6.35958e-15
1.0397e-14
1.97749e-14
5.32838e-14
2.75114e-13
1.99305e-12
1.52649e-11
1.32233e-10
1.15444e-09
8.50961e-09
4.82909e-08
4.25003e-07
4.55214e-05
0.000331674
0.00663221
0.261983
2.25209e-14
7.32814e-15
1.90406e-15
1.11537e-15
1.78358e-15
4.47338e-15
2.08691e-14
1.57343e-13
1.3506e-12
1.29097e-11
1.32814e-10
1.27615e-09
9.82578e-09
5.25531e-08
4.4158e-07
6.00097e-05
0.00103065
0.0112084
0.691157
3.6174e-15
1.38934e-15
3.88346e-16
1.97507e-16
3.60046e-16
1.73681e-15
1.45127e-14
1.38681e-13
1.44541e-12
1.57583e-11
1.64515e-10
1.52214e-09
1.15346e-08
6.16083e-08
2.79883e-07
6.92889e-05
0.00325412
0.0235368
0.945954
5.07455e-16
2.31378e-16
7.22444e-17
3.56993e-17
9.18965e-17
7.6309e-16
8.15907e-15
9.55197e-14
1.19614e-12
1.42871e-11
1.52012e-10
1.4533e-09
1.18237e-08
4.27472e-08
2.45303e-07
4.14083e-05
0.00833156
0.14412
0.985108
6.28777e-17
3.41379e-17
1.21524e-17
5.73151e-18
1.46603e-17
1.50858e-16
2.13211e-15
3.46536e-14
5.51083e-13
8.04877e-12
9.4436e-11
1.04292e-09
1.01418e-08
4.54846e-08
2.073e-07
4.55377e-06
0.00802247
0.394297
0.985829
6.95981e-18
4.50446e-18
1.85578e-18
8.75492e-19
2.24605e-18
3.13305e-17
6.7361e-16
1.46795e-14
2.99663e-13
5.46677e-12
7.20872e-11
9.09566e-10
9.75544e-09
4.22646e-08
1.8213e-07
4.81103e-07
0.00212398
0.403477
0.985829
6.94974e-19
5.3656e-19
2.59295e-19
1.47325e-19
7.81294e-19
1.85546e-17
4.93102e-16
1.24697e-14
2.85198e-13
5.67967e-12
7.38445e-11
9.53787e-10
1.05984e-08
4.31107e-08
1.18994e-07
3.26632e-07
0.000106167
0.262947
0.985829
6.31743e-20
5.82301e-20
3.33071e-20
2.53437e-20
2.79639e-19
8.89196e-18
2.85629e-16
8.56163e-15
2.26586e-13
5.00706e-12
6.72081e-11
8.56202e-10
9.9371e-09
4.30629e-08
9.84788e-08
2.4119e-07
1.04399e-06
0.0814914
0.968769
5.26871e-21
5.80879e-21
4.04606e-21
7.02818e-21
1.8557e-19
6.92157e-18
2.46627e-16
7.94472e-15
2.20934e-13
5.00692e-12
8.64795e-11
8.17207e-10
9.34217e-09
3.24792e-08
1.11439e-07
1.7805e-07
5.14399e-07
0.0122196
0.870697
4.05809e-22
5.36721e-22
4.69275e-22
1.95638e-21
7.82384e-20
3.46252e-18
1.42507e-16
5.19708e-15
1.60387e-13
3.99304e-12
7.19227e-11
1.06466e-09
9.50702e-09
5.05652e-08
2.42669e-07
3.02783e-07
5.85287e-07
0.000994588
0.6846
2.90118e-23
4.618e-23
4.95433e-23
3.21632e-22
1.66416e-20
9.15135e-19
4.66411e-17
2.11506e-15
8.14023e-14
2.50713e-12
5.33536e-11
9.44961e-10
1.03861e-08
5.86906e-08
2.76677e-07
7.25124e-07
8.57924e-07
3.35903e-05
0.514262
1.93173e-24
3.71958e-24
4.83421e-24
4.17675e-23
2.73951e-21
1.9212e-19
1.26139e-17
7.40349e-16
3.66103e-14
1.42396e-12
3.86649e-11
7.62293e-10
1.07314e-08
7.67379e-08
3.80958e-07
1.51255e-06
1.26025e-06
1.75205e-06
0.400744
1.19876e-25
2.8123e-25
4.39528e-25
4.52381e-24
3.61542e-22
3.13928e-20
2.60751e-18
1.96072e-16
1.25279e-14
6.33416e-13
2.33958e-11
5.79837e-10
9.04307e-09
6.83501e-08
5.29136e-07
2.62938e-06
1.52445e-06
1.84998e-06
0.266444
6.92666e-27
2.00066e-26
3.79619e-26
5.28338e-25
4.47787e-23
4.63137e-21
4.70966e-19
4.46975e-17
3.72071e-15
2.48133e-13
1.18455e-11
3.63766e-10
6.12486e-09
6.45633e-08
8.5834e-07
4.46894e-06
1.85122e-06
1.83688e-06
0.108727
3.68617e-28
1.33301e-27
2.89464e-27
3.41568e-26
3.55429e-24
3.7455e-22
4.45612e-20
5.39364e-18
6.04884e-16
5.67248e-14
3.88934e-12
1.66442e-10
3.44978e-09
7.54216e-08
1.09435e-06
7.22003e-06
2.21035e-06
1.83252e-06
0.0216401
1.82187e-29
8.42143e-29
2.29161e-28
5.04227e-27
7.5117e-25
1.07387e-22
1.4159e-20
1.73782e-18
1.95726e-16
1.83102e-14
1.12173e-12
4.67525e-11
2.40534e-09
5.58061e-08
9.58433e-07
6.93727e-06
6.01955e-06
2.88398e-05
0.00181781
6.88644e-31
4.54241e-30
1.3956e-29
4.47276e-29
4.80424e-27
9.2996e-25
1.54677e-22
2.16104e-20
2.43009e-18
2.03105e-16
1.09171e-14
3.01004e-13
3.58146e-12
3.85496e-09
1.55354e-07
3.52059e-06
1.61734e-05
3.81754e-05
4.88281e-05
)
;

boundaryField
{
    leftWall
    {
        type            zeroGradient;
    }
    rightWall
    {
        type            zeroGradient;
    }
    lowerWall
    {
        type            zeroGradient;
    }
    atmosphere
    {
        type            inletOutlet;
        inletValue      uniform 0;
        value           nonuniform List<scalar> 
23
(
0
0
0
0
0
0
0
0
0
0
0
0
0
0
0
0
0
0
0
0
1.61734e-05
3.81754e-05
4.88281e-05
)
;
    }
    defaultFaces
    {
        type            empty;
    }
    procBoundary3to1
    {
        type            processor;
        value           nonuniform List<scalar> 
23
(
3.57483e-09
2.5469e-09
2.63847e-09
2.3399e-09
2.79947e-09
3.1252e-09
5.19076e-09
6.6015e-09
9.11442e-09
1.00478e-08
9.83575e-09
9.57232e-09
1.0202e-08
1.44207e-08
3.0304e-08
7.87172e-08
2.15411e-07
5.31055e-07
1.21822e-06
2.12458e-06
3.07584e-06
0.711945
0.983791
)
;
    }
    procBoundary3to2
    {
        type            processor;
        value           nonuniform List<scalar> 
25
(
2.24056e-09
1.69868e-09
1.38502e-09
8.11306e-10
3.6432e-10
9.31743e-11
1.30269e-11
3.70032e-12
6.59472e-13
9.08108e-14
1.03827e-14
9.75602e-16
7.58983e-17
4.96589e-18
2.78094e-19
1.35411e-20
5.80228e-22
2.20435e-23
7.44513e-25
2.22719e-26
5.83878e-28
1.31118e-29
2.45156e-31
3.43728e-33
4.25886e-35
)
;
    }
}


// ************************************************************************* //
