/*--------------------------------*- C++ -*----------------------------------*\
| =========                 |                                                 |
| \\      /  F ield         | OpenFOAM: The Open Source CFD Toolbox           |
|  \\    /   O peration     | Version:  2.4.0                                 |
|   \\  /    A nd           | Web:      www.OpenFOAM.org                      |
|    \\/     M anipulation  |                                                 |
\*---------------------------------------------------------------------------*/
FoamFile
{
    version     2.0;
    format      ascii;
    class       volScalarField;
    location    "0.4";
    object      alpha.mercury;
}
// * * * * * * * * * * * * * * * * * * * * * * * * * * * * * * * * * * * * * //

dimensions      [0 0 0 0 0 0 0];

internalField   nonuniform List<scalar> 
575
(
2.94444e-17
4.6816e-17
7.20558e-17
1.0496e-16
2.81392e-18
3.89528e-18
5.211e-18
6.699e-18
3.58359e-19
4.93863e-19
6.56201e-19
8.46972e-19
5.56005e-20
7.84775e-20
1.06937e-19
1.42387e-19
7.67858e-21
1.15674e-20
1.67544e-20
2.3489e-20
1.01903e-21
1.63965e-21
2.51447e-21
3.68028e-21
1.22913e-22
2.09811e-22
3.38963e-22
5.18046e-22
1.32928e-23
2.39253e-23
4.07216e-23
6.56125e-23
1.27788e-24
2.45445e-24
4.441e-24
7.5795e-24
1.09848e-25
2.26035e-25
4.37412e-25
7.97278e-25
8.47148e-27
1.88418e-26
3.93286e-26
7.75034e-26
5.89198e-28
1.42536e-27
3.23641e-27
6.99127e-27
3.70473e-29
9.81546e-29
2.44776e-28
5.93754e-28
2.10651e-30
6.15663e-30
1.70948e-29
4.84606e-29
1.08297e-31
3.52106e-31
1.10901e-30
3.89063e-30
5.02063e-33
1.83462e-32
6.71923e-32
3.11221e-31
2.08835e-34
8.67564e-34
3.79643e-33
2.43187e-32
7.72993e-36
3.69525e-35
1.9754e-34
1.77117e-33
2.51357e-37
1.39736e-36
9.20167e-36
1.13184e-34
7.04122e-39
4.60342e-38
3.72134e-37
6.10141e-36
1.64787e-40
1.28041e-39
1.23817e-38
2.57277e-37
3.08277e-42
2.9343e-41
3.47723e-40
9.46624e-39
4.1548e-44
4.95583e-43
6.49666e-42
1.82115e-40
3.71257e-46
6.22597e-45
1.18672e-43
5.46283e-42
1.48161e-48
3.20734e-47
6.54638e-46
1.57397e-44
1.45196e-16
2.48319e-16
3.9059e-16
6.76369e-16
1.42892e-15
4.14387e-15
1.90611e-14
9.33449e-14
2.63099e-13
4.24879e-13
2.7292e-13
3.29011e-13
2.21203e-13
2.03401e-12
7.27906e-12
1.89139e-11
1.03566e-10
2.98952e-11
2.94381e-09
8.35076e-18
1.22334e-17
1.60518e-17
2.05198e-17
3.40055e-17
1.18152e-16
7.25288e-16
4.23664e-15
1.34895e-14
2.50614e-14
1.84549e-14
2.91768e-14
3.69889e-14
2.08464e-13
5.40846e-13
2.55578e-12
5.28511e-11
9.0949e-12
1.66835e-09
1.07282e-18
1.63662e-18
2.23833e-18
2.75492e-18
3.16357e-18
4.99919e-18
2.59059e-17
1.62143e-16
6.05839e-16
1.47704e-15
2.38177e-15
6.96783e-15
2.27364e-14
7.64778e-14
2.43976e-13
1.45405e-12
2.47363e-11
6.40878e-12
7.85497e-10
1.85702e-19
2.94687e-19
4.16107e-19
5.31264e-19
6.64024e-19
1.10481e-18
3.73771e-18
1.79327e-17
8.13977e-17
3.25231e-16
1.23187e-15
4.66827e-15
1.89861e-14
6.59426e-14
2.16248e-13
8.43054e-13
1.04562e-11
4.08201e-12
2.6309e-10
3.19404e-20
5.38708e-20
7.96186e-20
1.09189e-19
1.64859e-19
4.00414e-19
1.72814e-18
8.83141e-18
4.34889e-17
2.01769e-16
8.98559e-16
3.7594e-15
1.64892e-14
6.26251e-14
2.05795e-13
5.83695e-13
4.22732e-12
2.66146e-12
5.07045e-11
5.17191e-21
9.20366e-21
1.45223e-20
2.25198e-20
4.57572e-20
1.68413e-19
9.10297e-19
5.17126e-18
2.74867e-17
1.38138e-16
6.7182e-16
3.15046e-15
1.48454e-14
6.05865e-14
2.02225e-13
5.00531e-13
1.84737e-12
1.92292e-12
1.15453e-11
7.55576e-22
1.4424e-21
2.5164e-21
4.77434e-21
1.45122e-20
7.64782e-20
4.82711e-19
2.98222e-18
1.7238e-17
9.39292e-17
5.02268e-16
2.69973e-15
1.38333e-14
5.9505e-14
2.03502e-13
4.96959e-13
1.07433e-12
1.63004e-12
1.0176e-11
1.00626e-22
2.10062e-22
4.22163e-22
1.09532e-21
5.1514e-21
3.49857e-20
2.48163e-19
1.65878e-18
1.04693e-17
6.25183e-17
3.77598e-16
2.30405e-15
1.29306e-14
5.86524e-14
2.05789e-13
5.18154e-13
9.31049e-13
1.67599e-12
1.0124e-11
1.22819e-23
2.87108e-23
7.17091e-23
2.84939e-22
1.94325e-21
1.56457e-20
1.22242e-19
8.84367e-19
6.07464e-18
4.00431e-17
2.87763e-16
1.93373e-15
1.18117e-14
5.75076e-14
2.07208e-13
5.39728e-13
9.98366e-13
1.90392e-12
9.92605e-12
1.38959e-24
3.79593e-24
1.32259e-23
8.3172e-23
7.39478e-22
6.78136e-21
5.82842e-20
4.61247e-19
3.48791e-18
2.74283e-17
2.23057e-16
1.60624e-15
1.04286e-14
5.24453e-14
1.95895e-13
5.34819e-13
1.04942e-12
1.99548e-12
9.53491e-12
1.4809e-25
5.09751e-25
2.77159e-24
2.56106e-23
2.74249e-22
2.82163e-21
2.67466e-20
2.35808e-19
2.149e-18
1.99217e-17
1.77057e-16
1.34292e-15
8.99505e-15
4.52085e-14
1.71435e-13
4.73759e-13
9.89529e-13
1.98498e-12
9.00545e-12
1.52562e-26
7.41269e-26
6.4539e-25
7.86912e-24
9.7597e-23
1.12537e-21
1.19516e-20
1.28854e-19
1.44052e-18
1.51686e-17
1.45529e-16
1.16731e-15
7.868e-15
3.88716e-14
1.45198e-13
3.86042e-13
8.23686e-13
1.94222e-12
8.39966e-12
1.58473e-27
1.20375e-26
1.55587e-25
2.32167e-24
3.29701e-23
4.31356e-22
5.60667e-21
7.6941e-20
1.00262e-18
1.18086e-17
1.22588e-16
1.04938e-15
7.23381e-15
3.55776e-14
1.27103e-13
3.13309e-13
6.13489e-13
1.84033e-12
7.68477e-12
1.73834e-28
2.10773e-27
3.65192e-26
6.44587e-25
1.05466e-23
1.66103e-22
2.84468e-21
4.63807e-20
6.94948e-19
9.23788e-18
1.04889e-16
9.63777e-16
6.86528e-15
3.45645e-14
1.20548e-13
2.778e-13
4.83683e-13
1.66423e-12
6.80153e-12
2.03015e-29
3.67923e-28
7.97925e-27
1.65418e-25
3.16993e-24
6.75817e-23
1.40583e-21
2.71819e-20
4.72028e-19
7.14926e-18
9.01833e-17
9.00279e-16
6.71362e-15
3.47307e-14
1.20171e-13
2.67315e-13
4.36891e-13
1.46871e-12
5.73073e-12
2.41408e-30
6.0038e-29
1.58091e-27
3.87975e-26
9.70826e-25
2.59889e-23
6.5641e-22
1.51942e-20
3.10648e-19
5.40009e-18
7.65627e-17
8.393e-16
6.66638e-15
3.57746e-14
1.23925e-13
2.70552e-13
4.24371e-13
1.22023e-12
4.48911e-12
2.71407e-31
8.7301e-30
2.77621e-28
8.1743e-27
2.74668e-25
9.08124e-24
2.81628e-22
7.88728e-21
1.92761e-19
3.93058e-18
6.3651e-17
7.74422e-16
6.65032e-15
3.7653e-14
1.32361e-13
2.85806e-13
4.28601e-13
9.56468e-13
3.22214e-12
2.70932e-32
1.09738e-30
4.24825e-29
1.59172e-27
6.77957e-26
2.7899e-24
1.07357e-22
3.70414e-21
1.09759e-19
2.66939e-18
5.06179e-17
7.02399e-16
6.67032e-15
4.03761e-14
1.47097e-13
3.18861e-13
4.57042e-13
7.71796e-13
2.25874e-12
2.29089e-33
1.16341e-31
5.5396e-30
2.63971e-28
1.40812e-26
7.26384e-25
3.48636e-23
1.49853e-21
5.51117e-20
1.64175e-18
3.7318e-17
6.02893e-16
6.45962e-15
4.26878e-14
1.64841e-13
3.72146e-13
5.23602e-13
7.03745e-13
1.67631e-12
1.61384e-34
1.03971e-32
6.19789e-31
3.64309e-29
2.4178e-27
1.56941e-25
9.49587e-24
5.14568e-22
2.37488e-20
8.80861e-19
2.45727e-17
4.75884e-16
5.90998e-15
4.36978e-14
1.82754e-13
4.4439e-13
6.30927e-13
7.16671e-13
1.36961e-12
8.87865e-36
7.39654e-34
5.64635e-32
3.94366e-30
3.19248e-28
2.56764e-26
1.96101e-24
1.35552e-22
8.02747e-21
3.82172e-19
1.35522e-17
3.28121e-16
4.9461e-15
4.24802e-14
1.96828e-13
5.16327e-13
7.6818e-13
7.75829e-13
1.22482e-12
4.46586e-37
5.01499e-35
5.09205e-33
4.64338e-31
4.00531e-29
3.86711e-27
3.61005e-25
3.09917e-23
2.3225e-21
1.41811e-19
6.50544e-18
2.02473e-16
3.80131e-15
3.88241e-14
2.03119e-13
5.73639e-13
9.18556e-13
8.46213e-13
1.1782e-12
1.10955e-38
1.70709e-36
2.36744e-34
2.9155e-32
3.2134e-30
3.22938e-28
3.58259e-26
3.94447e-24
3.94877e-22
3.32795e-20
2.16435e-18
9.56176e-17
2.46974e-15
3.24749e-14
1.98993e-13
5.91208e-13
9.82942e-13
9.10505e-13
1.19769e-12
5.45261e-40
1.26963e-37
2.52302e-35
4.31081e-33
6.48892e-31
8.77012e-29
1.08506e-26
1.24905e-24
1.35362e-22
1.35347e-20
1.12416e-18
6.30683e-17
1.92493e-15
2.75511e-14
1.76108e-13
5.53225e-13
9.62536e-13
1.0193e-12
1.23445e-12
9.33211e-43
2.65534e-40
7.79841e-38
2.01605e-35
4.53882e-33
9.02698e-31
1.60757e-28
2.59594e-26
3.80017e-24
4.93402e-22
5.3003e-20
4.16525e-18
2.0361e-16
5.24069e-15
6.20114e-14
3.19273e-13
7.9676e-13
1.09616e-12
1.26678e-12
)
;

boundaryField
{
    leftWall
    {
        type            zeroGradient;
    }
    rightWall
    {
        type            zeroGradient;
    }
    lowerWall
    {
        type            zeroGradient;
    }
    atmosphere
    {
        type            inletOutlet;
        inletValue      uniform 0;
        value           nonuniform List<scalar> 
23
(
0
0
0
0
0
0
0
0
0
0
0
0
0
0
0
0
0
0
0
0
7.9676e-13
1.09616e-12
1.26678e-12
)
;
    }
    defaultFaces
    {
        type            empty;
    }
    procBoundary3to1
    {
        type            processor;
        value           nonuniform List<scalar> 
23
(
6.25013e-16
1.05512e-15
1.75697e-15
2.84651e-15
4.44496e-15
9.14963e-15
1.6375e-14
2.64415e-14
4.24498e-14
8.92481e-14
3.59224e-13
1.53617e-12
3.86084e-12
5.50967e-12
3.4286e-12
3.60002e-12
2.65319e-12
2.07023e-11
9.5422e-11
3.19888e-10
1.97347e-10
1.86176e-10
4.71262e-09
)
;
    }
    procBoundary3to2
    {
        type            processor;
        value           nonuniform List<scalar> 
25
(
1.24134e-17
1.45537e-18
1.85428e-19
2.78526e-20
3.4943e-21
4.15241e-22
4.50546e-23
4.47052e-24
3.90696e-25
3.05418e-26
2.12439e-27
1.32732e-28
7.45959e-30
3.77282e-31
1.71569e-32
6.988e-34
2.53381e-35
8.09909e-37
2.24899e-38
5.30212e-40
1.02399e-41
1.52796e-43
1.57154e-45
9.97997e-48
3.09135e-50
)
;
    }
}


// ************************************************************************* //
