/*--------------------------------*- C++ -*----------------------------------*\
| =========                 |                                                 |
| \\      /  F ield         | OpenFOAM: The Open Source CFD Toolbox           |
|  \\    /   O peration     | Version:  2.4.0                                 |
|   \\  /    A nd           | Web:      www.OpenFOAM.org                      |
|    \\/     M anipulation  |                                                 |
\*---------------------------------------------------------------------------*/
FoamFile
{
    version     2.0;
    format      ascii;
    class       volScalarField;
    location    "0.4";
    object      p;
}
// * * * * * * * * * * * * * * * * * * * * * * * * * * * * * * * * * * * * * //

dimensions      [1 -1 -2 0 0 0 0];

internalField   nonuniform List<scalar> 
575
(
3.34123
3.33935
3.33802
3.33723
3.22837
3.22833
3.22871
3.22971
3.1107
3.11215
3.11418
3.11673
2.99122
2.99357
2.99663
3.00028
2.86922
2.87249
2.87634
2.8807
2.74459
2.74851
2.75289
2.75793
2.61795
2.62238
2.62723
2.63264
2.48892
2.49378
2.49902
2.50475
2.3579
2.36304
2.36856
2.37452
2.2249
2.23023
2.23593
2.24203
2.09001
2.09543
2.10123
2.10741
1.95333
1.95876
1.96457
1.97074
1.81493
1.8203
1.82602
1.8321
1.67492
1.68014
1.68569
1.69158
1.53339
1.53837
1.54368
1.5493
1.39044
1.39513
1.40011
1.40538
1.24622
1.25055
1.25513
1.25998
1.10087
1.10478
1.1089
1.11326
0.95454
0.957984
0.96161
0.965425
0.807395
0.810348
0.813445
0.816689
0.659605
0.66205
0.6646
0.667259
0.511339
0.513265
0.515256
0.517321
0.362662
0.364091
0.365572
0.367089
0.213753
0.214711
0.215679
0.21665
0.0648556
0.065342
0.0658042
0.0662365
3.33694
3.34227
3.35543
3.37659
3.40503
3.43807
3.48947
3.5394
3.59228
3.64783
3.70446
3.75031
3.79886
3.85217
3.78796
3.89413
3.79712
3.50859
8.10661
3.23257
3.24157
3.25694
3.27901
3.30817
3.34478
3.3829
3.42669
3.4738
3.52224
3.57251
3.60759
3.65479
3.67884
3.63904
3.69029
3.66866
3.18232
5.63647
3.12196
3.13387
3.15073
3.17306
3.20099
3.23391
3.2702
3.30998
3.3528
3.39443
3.44125
3.46688
3.51609
3.52321
3.53202
3.53617
3.58567
3.24921
4.50505
3.00719
3.0208
3.03879
3.06137
3.08842
3.11943
3.15341
3.19022
3.23007
3.26535
3.31067
3.32845
3.38217
3.37621
3.43022
3.40791
3.49589
3.20664
3.97931
2.8889
2.90382
2.92251
2.94523
2.97157
3.00117
3.03351
3.06827
3.1057
3.1361
3.18049
3.19185
3.24816
3.23006
3.31445
3.26438
3.36144
3.1361
3.5474
2.76727
2.78308
2.80231
2.82517
2.85114
2.87994
2.91113
2.94446
2.98007
3.00752
3.05094
3.05738
3.11373
3.08677
3.16502
3.09733
3.21438
2.99303
3.6267
2.64257
2.65919
2.6789
2.70189
2.72763
2.75602
2.78664
2.8191
2.85393
2.88016
2.92266
2.92641
2.98184
2.94496
3.00332
2.90706
2.97083
2.83282
2.75654
2.51519
2.53239
2.55246
2.57559
2.60139
2.62975
2.6603
2.69261
2.72757
2.75452
2.79654
2.80137
2.85604
2.80869
2.85669
2.73894
2.7234
2.71337
2.79982
2.38527
2.40293
2.4233
2.44656
2.47253
2.50113
2.5321
2.56501
2.60104
2.63069
2.67368
2.68537
2.73902
2.6952
2.75763
2.59384
2.63337
2.56731
2.71614
2.25299
2.27092
2.29147
2.31487
2.34107
2.37008
2.40181
2.43589
2.4738
2.5074
2.55499
2.57598
2.63391
2.62121
2.68397
2.56657
2.66692
2.47798
3.39895
2.11846
2.13647
2.15707
2.18051
2.2069
2.23636
2.26898
2.30454
2.34473
2.38252
2.44017
2.46591
2.54107
2.55893
2.63633
2.61099
2.7204
2.49276
3.01987
1.98174
1.99964
2.0201
2.04342
2.06984
2.09962
2.13307
2.17024
2.21281
2.25092
2.33285
2.34091
2.45855
2.49101
2.60603
2.65915
2.73934
2.69715
3.62546
1.84292
1.86047
1.88056
1.90351
1.92969
1.95947
1.99345
2.03223
2.07755
2.12585
2.19796
2.23564
2.36343
2.39528
2.57785
2.68359
2.76865
3.22769
6.97245
1.70207
1.71904
1.73848
1.76074
1.78624
1.81549
1.84928
1.8883
1.93446
1.98755
2.05635
2.11976
2.24124
2.30333
2.51385
2.61794
2.80448
3.21729
13.3895
1.5593
1.57543
1.59393
1.6151
1.63942
1.6674
1.6999
1.73801
1.78349
1.8382
1.90684
1.98453
2.09954
2.18979
2.40201
2.47392
2.75839
2.19724
16.0453
1.41474
1.42979
1.44703
1.46671
1.48928
1.51524
1.54543
1.58099
1.62366
1.67598
1.74218
1.82533
1.93813
2.05346
2.27553
2.38121
2.79356
2.3716
6.41913
1.26856
1.2823
1.29799
1.31579
1.33612
1.35934
1.38615
1.41752
1.45493
1.5008
1.55918
1.63536
1.74503
1.87466
2.109
2.27688
2.80426
2.50964
3.67667
1.12095
1.13319
1.14706
1.16264
1.18042
1.20021
1.22271
1.24847
1.27837
1.31401
1.35828
1.41579
1.5013
1.62367
1.85171
2.02892
2.56154
2.33077
3.10735
0.972144
0.982752
0.994647
1.00786
1.0226
1.03865
1.05624
1.0754
1.09618
1.11871
1.1436
1.17147
1.21245
1.26779
1.40388
1.53861
1.9189
1.70097
2.81799
0.822381
0.831269
0.841099
0.851822
0.863506
0.875631
0.888138
0.900411
0.911504
0.919794
0.922761
0.915658
0.898791
0.848737
0.828961
0.76132
0.837322
0.52884
1.61196
0.671901
0.679051
0.686801
0.69501
0.703867
0.71225
0.72
0.725944
0.728172
0.723377
0.705886
0.665272
0.58872
0.420546
0.169124
-0.336485
-0.740933
-1.35358
-0.602072
0.520911
0.526351
0.532135
0.538079
0.544073
0.549332
0.553186
0.554176
0.549858
0.535921
0.504373
0.440807
0.320194
0.0662313
-0.37658
-1.37055
-2.56789
-3.87186
-1.34598
0.369672
0.37347
0.377376
0.381178
0.384706
0.3874
0.388472
0.386381
0.378827
0.361492
0.326511
0.259324
0.130936
-0.124489
-0.554435
-1.96968
-2.91836
-5.25793
-0.67581
0.218281
0.220535
0.222665
0.224595
0.226109
0.226804
0.226055
0.22275
0.215146
0.200311
0.173044
0.123296
0.030231
-0.147476
-0.520546
-1.32725
-2.08662
-4.0323
-0.453199
0.0669067
0.0676317
0.0681097
0.0682717
0.0679933
0.0670819
0.065223
0.0619158
0.05643
0.0477262
0.0343013
0.0139872
-0.0167037
-0.0651236
-0.162069
-0.375154
-0.616359
-1.53158
-0.383567
)
;

boundaryField
{
    leftWall
    {
        type            fixedFluxPressure;
        gradient        nonuniform 0();
        value           nonuniform 0();
    }
    rightWall
    {
        type            fixedFluxPressure;
        gradient        uniform 0;
        value           nonuniform List<scalar> 
25
(
8.10661
5.63647
4.50505
3.97931
3.5474
3.6267
2.75654
2.79982
2.71614
3.39895
3.01987
3.62546
6.97245
13.3895
16.0453
6.41913
3.67667
3.10735
2.81799
1.61196
-0.602072
-1.34598
-0.67581
-0.453199
-0.383567
)
;
    }
    lowerWall
    {
        type            fixedFluxPressure;
        gradient        nonuniform 0();
        value           nonuniform 0();
    }
    atmosphere
    {
        type            totalPressure;
        U               U.air;
        phi             phi.air;
        rho             rho;
        psi             none;
        gamma           1;
        p0              uniform 0;
        value           nonuniform List<scalar> 
23
(
-0.00935027
-0.00911659
-0.00893276
-0.0087945
-0.00864569
-0.00870786
-0.00903471
-0.00965283
-0.0106104
-0.0119941
-0.0139397
-0.0166583
-0.0204443
-0.0256802
-0.0327882
-0.0421077
-0.053759
-0.0685755
-0.0984277
-0.18002
0
0
0
)
;
    }
    defaultFaces
    {
        type            empty;
    }
    procBoundary3to1
    {
        type            processor;
        value           nonuniform List<scalar> 
23
(
3.45556
3.45195
3.44888
3.44615
3.44216
3.44369
3.4557
3.47944
3.51392
3.55933
3.59561
3.64766
3.70717
3.77006
3.83594
3.89396
3.95258
4.02937
4.00439
4.12934
3.95976
4.27054
10.4816
)
;
    }
    procBoundary3to2
    {
        type            processor;
        value           nonuniform List<scalar> 
25
(
3.34485
3.229
3.1092
2.98824
2.86478
2.73907
2.61159
2.48197
2.35049
2.21719
2.08213
1.94541
1.80711
1.6673
1.52608
1.38356
1.23986
1.09511
0.949447
0.803012
0.655961
0.508436
0.360519
0.212275
0.0640693
)
;
    }
}


// ************************************************************************* //
