/*--------------------------------*- C++ -*----------------------------------*\
| =========                 |                                                 |
| \\      /  F ield         | OpenFOAM: The Open Source CFD Toolbox           |
|  \\    /   O peration     | Version:  2.4.0                                 |
|   \\  /    A nd           | Web:      www.OpenFOAM.org                      |
|    \\/     M anipulation  |                                                 |
\*---------------------------------------------------------------------------*/
FoamFile
{
    version     2.0;
    format      ascii;
    class       surfaceScalarField;
    location    "0.4";
    object      phi.air;
}
// * * * * * * * * * * * * * * * * * * * * * * * * * * * * * * * * * * * * * //

dimensions      [0 3 -1 0 0 0 0];

internalField   nonuniform List<scalar> 
1102
(
-3.28994e-05
-1.50544e-05
-3.40686e-05
-1.46856e-05
-3.56314e-05
-1.37899e-05
-1.3318e-05
-3.72712e-05
-3.31085e-05
-1.43156e-05
-3.40447e-05
-1.37493e-05
-3.47904e-05
-1.30441e-05
-1.26057e-05
-3.55027e-05
-2.91839e-05
-1.3667e-05
-2.99437e-05
-1.29895e-05
-3.04765e-05
-1.25113e-05
-1.20591e-05
-3.10231e-05
-2.72523e-05
-1.33404e-05
-2.76516e-05
-1.25902e-05
-2.79981e-05
-1.21648e-05
-1.15598e-05
-2.84974e-05
-2.40529e-05
-1.29606e-05
-2.45104e-05
-1.21327e-05
-2.50645e-05
-1.16107e-05
-1.10014e-05
-2.56229e-05
-2.20784e-05
-1.24578e-05
-2.25272e-05
-1.16839e-05
-2.30381e-05
-1.10998e-05
-1.05572e-05
-2.34823e-05
-2.00024e-05
-1.19586e-05
-2.03537e-05
-1.13326e-05
-2.07098e-05
-1.07438e-05
-1.02433e-05
-2.10237e-05
-1.80647e-05
-1.16066e-05
-1.82674e-05
-1.11299e-05
-1.84076e-05
-1.06035e-05
-1.00732e-05
-1.85778e-05
-1.60852e-05
-1.13389e-05
-1.62823e-05
-1.09328e-05
-1.64106e-05
-1.04752e-05
-9.97984e-06
-1.6504e-05
-1.42662e-05
-1.11739e-05
-1.43731e-05
-1.08259e-05
-1.4428e-05
-1.04204e-05
-1.00027e-05
-1.44052e-05
-1.25451e-05
-1.10762e-05
-1.26072e-05
-1.07638e-05
-1.26103e-05
-1.04173e-05
-1.00356e-05
-1.25775e-05
-1.09786e-05
-1.10462e-05
-1.09821e-05
-1.07603e-05
-1.09477e-05
-1.04516e-05
-1.01209e-05
-1.08624e-05
-9.55009e-06
-1.10679e-05
-9.5088e-06
-1.08016e-05
-9.4336e-06
-1.05268e-05
-1.02396e-05
-9.31499e-06
-8.2605e-06
-1.1131e-05
-8.17693e-06
-1.08852e-05
-8.06567e-06
-1.06381e-05
-1.03881e-05
-7.91715e-06
-7.11122e-06
-1.12224e-05
-6.99643e-06
-1.09999e-05
-6.85504e-06
-1.07795e-05
-1.05624e-05
-6.68077e-06
-6.09456e-06
-1.1331e-05
-5.96026e-06
-1.11342e-05
-5.79914e-06
-1.09406e-05
-1.07529e-05
-5.6087e-06
-5.20937e-06
-1.14465e-05
-5.06641e-06
-1.12772e-05
-4.89705e-06
-1.111e-05
-1.09529e-05
-4.69699e-06
-4.44818e-06
-1.15598e-05
-4.30954e-06
-1.14158e-05
-4.14361e-06
-1.1276e-05
-1.11471e-05
-3.94949e-06
-3.80702e-06
-1.16601e-05
-3.6818e-06
-1.15411e-05
-3.53072e-06
-1.1427e-05
-1.13234e-05
-3.35436e-06
-3.27013e-06
-1.17384e-05
-3.17088e-06
-1.16403e-05
-3.04878e-06
-1.15491e-05
-1.14689e-05
-2.90331e-06
-2.82167e-06
-1.17839e-05
-2.75901e-06
-1.1703e-05
-2.67831e-06
-1.16298e-05
-1.15699e-05
-2.57732e-06
-2.42262e-06
-1.1776e-05
-2.41591e-06
-1.17097e-05
-2.39146e-06
-1.16543e-05
-1.16117e-05
-2.34971e-06
-2.05776e-06
-1.1751e-05
-2.09196e-06
-1.16755e-05
-2.12534e-06
-1.16209e-05
-1.15872e-05
-2.14984e-06
-1.94636e-06
-1.18032e-05
-1.93493e-06
-1.16869e-05
-1.95485e-06
-1.1601e-05
-1.15402e-05
-2.00183e-06
-2.26627e-06
-2.17215e-06
-2.10975e-06
-2.07625e-06
-4.08659e-05
-2.91613e-05
-4.36103e-05
-2.52406e-05
-4.50903e-05
-1.98534e-05
-4.6598e-05
-1.2893e-05
-4.66805e-05
-5.75421e-06
-4.57446e-05
8.84903e-08
-4.41193e-05
7.44926e-06
-4.19724e-05
1.51243e-05
-3.86107e-05
2.07091e-05
-3.41332e-05
2.82316e-05
-2.86344e-05
3.3238e-05
-2.1708e-05
3.96514e-05
-1.44783e-05
4.07349e-05
1.29778e-06
5.68273e-05
2.20417e-05
3.74724e-05
1.56357e-05
0.0001925
1.04877e-05
0.000312071
-1.81239e-06
0.000142595
0.000202141
-3.73948e-05
-2.72692e-05
-3.93517e-05
-2.32836e-05
-4.06232e-05
-1.85819e-05
-4.12794e-05
-1.22367e-05
-4.09509e-05
-6.08273e-06
-3.99181e-05
-9.44277e-07
-3.85466e-05
6.07771e-06
-3.62114e-05
1.27892e-05
-3.311e-05
1.76078e-05
-2.88634e-05
2.3985e-05
-2.41027e-05
2.84773e-05
-1.76871e-05
3.32358e-05
-1.24501e-05
3.54979e-05
1.22321e-06
4.31539e-05
6.34337e-06
3.23523e-05
1.4379e-05
0.000184464
3.59421e-05
0.000292936
2.56134e-06
0.000168972
0.000206582
-3.26555e-05
-2.56368e-05
-3.45622e-05
-2.1377e-05
-3.61294e-05
-1.70147e-05
-3.629e-05
-1.20761e-05
-3.56965e-05
-6.67619e-06
-3.50854e-05
-1.5554e-06
-3.36328e-05
4.62518e-06
-3.10299e-05
1.01862e-05
-2.82945e-05
1.48724e-05
-2.43553e-05
2.00458e-05
-2.03442e-05
2.44662e-05
-1.44083e-05
2.73001e-05
-1.06703e-05
3.17599e-05
-9.00194e-07
3.33838e-05
-3.51061e-06
3.49627e-05
1.75912e-05
0.000163362
4.54268e-05
0.000265431
7.65947e-07
0.000203752
0.000213664
-3.00153e-05
-2.4119e-05
-3.12512e-05
-2.0141e-05
-3.19432e-05
-1.63228e-05
-3.17506e-05
-1.22687e-05
-3.1308e-05
-7.11874e-06
-3.07284e-05
-2.13502e-06
-2.89284e-05
2.82517e-06
-2.66632e-05
7.92098e-06
-2.40687e-05
1.2278e-05
-2.04489e-05
1.64261e-05
-1.69998e-05
2.10171e-05
-1.1526e-05
2.18263e-05
-8.49068e-06
2.87246e-05
-5.66715e-07
2.54599e-05
-3.41416e-06
3.78102e-05
2.36394e-05
0.000136309
4.41474e-05
0.000244915
-4.00507e-07
0.000236596
0.000225027
-2.68157e-05
-2.29262e-05
-2.77397e-05
-1.9217e-05
-2.79512e-05
-1.61113e-05
-2.77553e-05
-1.24646e-05
-2.75077e-05
-7.36636e-06
-2.65394e-05
-3.10332e-06
-2.47288e-05
1.0146e-06
-2.29257e-05
6.11789e-06
-2.03619e-05
9.71414e-06
-1.71168e-05
1.3181e-05
-1.3998e-05
1.78982e-05
-9.03155e-06
1.68598e-05
-5.66777e-06
2.53608e-05
1.36399e-06
1.84281e-05
2.94706e-06
3.62271e-05
2.96547e-05
0.000109601
4.42925e-05
0.000230275
8.03055e-06
0.000263496
0.000237294
-2.42195e-05
-2.2189e-05
-2.44772e-05
-1.89593e-05
-2.44337e-05
-1.61548e-05
-2.42942e-05
-1.26041e-05
-2.38548e-05
-7.80578e-06
-2.27284e-05
-4.22976e-06
-2.12293e-05
-4.84534e-07
-1.94531e-05
4.34174e-06
-1.71342e-05
7.39528e-06
-1.42733e-05
1.03201e-05
-1.14526e-05
1.50775e-05
-7.05867e-06
1.24659e-05
-3.302e-06
2.16042e-05
3.57511e-06
1.1551e-05
1.12107e-05
2.85916e-05
3.52756e-05
8.55364e-05
5.66949e-05
0.000208856
2.05403e-05
0.000292652
0.000259842
-2.13962e-05
-2.18166e-05
-2.13998e-05
-1.89557e-05
-2.13834e-05
-1.61712e-05
-2.12208e-05
-1.27668e-05
-2.0441e-05
-8.58551e-06
-1.93764e-05
-5.29437e-06
-1.81079e-05
-1.75309e-06
-1.6288e-05
2.52191e-06
-1.43324e-05
5.43963e-06
-1.18835e-05
7.87121e-06
-9.45416e-06
1.26482e-05
-5.96185e-06
8.97363e-06
-2.53638e-06
1.81787e-05
3.62653e-06
5.38811e-06
1.30172e-05
1.9201e-05
3.31956e-05
6.53584e-05
5.96009e-05
0.000182459
3.73155e-05
0.000316695
0.000303346
-1.88046e-05
-2.15898e-05
-1.87497e-05
-1.90105e-05
-1.85923e-05
-1.63287e-05
-1.82457e-05
-1.31133e-05
-1.73484e-05
-9.4829e-06
-1.63082e-05
-6.33452e-06
-1.5151e-05
-2.91032e-06
-1.34364e-05
8.07379e-07
-1.1818e-05
3.82115e-06
-9.84001e-06
5.89327e-06
-7.93005e-06
1.07382e-05
-5.75379e-06
6.79737e-06
-3.38084e-06
1.58057e-05
1.05469e-06
9.52584e-07
5.77816e-06
1.44777e-05
2.00129e-05
5.11247e-05
3.57076e-05
0.000166793
5.63707e-06
0.000346396
0.000308872
-1.64404e-05
-2.16534e-05
-1.62717e-05
-1.91793e-05
-1.59701e-05
-1.66303e-05
-1.5459e-05
-1.36244e-05
-1.4557e-05
-1.03849e-05
-1.34991e-05
-7.39243e-06
-1.23152e-05
-4.0942e-06
-1.07666e-05
-7.4117e-07
-9.41798e-06
2.47251e-06
-7.96957e-06
4.44486e-06
-6.68836e-06
9.457e-06
-6.19914e-06
6.30816e-06
-5.17427e-06
1.47809e-05
-5.74673e-06
1.52504e-06
-5.93758e-06
1.46687e-05
-1.58399e-07
4.53457e-05
-1.82422e-06
0.000168446
-7.81283e-06
0.000349657
0.00030397
-1.42738e-05
-2.17848e-05
-1.40012e-05
-1.94519e-05
-1.3564e-05
-1.70675e-05
-1.29022e-05
-1.42863e-05
-1.19381e-05
-1.1349e-05
-1.08314e-05
-8.49906e-06
-9.59269e-06
-5.33296e-06
-8.14972e-06
-2.18414e-06
-6.91875e-06
1.24154e-06
-5.85612e-06
3.38224e-06
-5.21314e-06
8.81402e-06
-5.88059e-06
6.97561e-06
-6.83358e-06
1.57339e-05
-1.18483e-05
6.53979e-06
-1.61521e-05
1.89722e-05
-2.38628e-05
5.30482e-05
-2.23297e-05
0.000166788
-1.48477e-05
0.000332336
0.000301239
-1.2312e-05
-2.20503e-05
-1.19066e-05
-1.98574e-05
-1.13395e-05
-1.76346e-05
-1.0527e-05
-1.50987e-05
-9.46898e-06
-1.24071e-05
-8.27068e-06
-9.69736e-06
-6.9287e-06
-6.67495e-06
-5.51477e-06
-3.59806e-06
-4.23635e-06
-3.68799e-08
-3.2501e-06
2.39599e-06
-2.96937e-06
8.53329e-06
-3.86853e-06
7.87477e-06
-6.51185e-06
1.83772e-05
-1.34056e-05
1.34335e-05
-2.12748e-05
2.6841e-05
-3.69752e-05
6.87056e-05
-2.83424e-05
0.000157763
-5.12567e-06
0.00030309
0.000289439
-1.05122e-05
-2.24005e-05
-9.98992e-06
-2.03797e-05
-9.28911e-06
-1.83354e-05
-8.33879e-06
-1.6049e-05
-7.15413e-06
-1.35918e-05
-5.80517e-06
-1.10463e-05
-4.2937e-06
-8.18642e-06
-2.7671e-06
-5.12466e-06
-1.30448e-06
-1.4995e-06
3.15671e-08
1.05995e-06
3.95986e-07
8.16887e-06
2.40353e-07
8.0304e-06
-3.04598e-06
2.16635e-05
-9.11455e-06
1.95021e-05
-1.86e-05
3.63263e-05
-3.42088e-05
8.42173e-05
-2.7664e-05
0.000149588
-2.93438e-06
0.000278937
0.00029305
-8.87718e-06
-2.28384e-05
-8.24511e-06
-2.10117e-05
-7.41937e-06
-1.91612e-05
-6.33499e-06
-1.71334e-05
-5.00061e-06
-1.49262e-05
-3.44723e-06
-1.25997e-05
-1.70021e-06
-9.93344e-06
1.87174e-07
-7.01205e-06
2.20405e-06
-3.51638e-06
3.31308e-06
-4.90844e-08
5.55562e-06
5.92634e-06
4.84122e-06
8.7448e-06
4.38384e-06
2.21209e-05
8.45087e-07
2.30409e-05
-7.74542e-06
4.49169e-05
-1.73812e-05
9.38137e-05
-1.53549e-05
0.00014603
-1.33094e-05
0.00026461
0.000288511
-7.41054e-06
-2.3345e-05
-6.6886e-06
-2.17337e-05
-5.74857e-06
-2.01013e-05
-4.53351e-06
-1.83485e-05
-3.03426e-06
-1.64254e-05
-1.24726e-06
-1.43867e-05
8.4229e-07
-1.2023e-05
3.14962e-06
-9.31938e-06
5.70173e-06
-6.06848e-06
7.91031e-06
-2.25767e-06
1.08045e-05
3.03215e-06
1.15092e-05
8.04005e-06
1.39975e-05
1.96327e-05
1.24845e-05
2.45538e-05
1.02705e-05
4.71309e-05
1.53606e-05
8.87394e-05
1.42632e-05
0.000150836
-3.35513e-05
0.000281433
0.000293906
-6.11859e-06
-2.39072e-05
-5.32477e-06
-2.25275e-05
-4.29054e-06
-2.11355e-05
-2.9653e-06
-1.96738e-05
-1.29056e-06
-1.81002e-05
7.15589e-07
-1.63929e-05
3.11425e-06
-1.44217e-05
5.90778e-06
-1.21129e-05
9.11062e-06
-9.27133e-06
1.2522e-05
-5.66907e-06
1.63905e-05
-8.36346e-07
1.94109e-05
5.01964e-06
2.40226e-05
1.5021e-05
2.56584e-05
2.29181e-05
2.84856e-05
4.43036e-05
3.83868e-05
7.88398e-05
3.86139e-05
0.000154939
-6.16905e-05
0.000325549
0.000302743
-5.01029e-06
-2.45056e-05
-4.17279e-06
-2.33651e-05
-3.07309e-06
-2.22352e-05
-1.66318e-06
-2.10837e-05
1.25852e-07
-1.98892e-05
2.32535e-06
-1.85924e-05
5.0255e-06
-1.71218e-05
8.2941e-06
-1.53815e-05
1.2193e-05
-1.31702e-05
1.67584e-05
-1.02345e-05
2.20798e-05
-6.1577e-06
2.77045e-05
-6.05073e-07
3.45972e-05
8.12831e-06
3.97184e-05
1.7797e-05
4.53208e-05
3.87012e-05
4.76826e-05
7.64779e-05
1.30804e-05
0.000189601
-4.566e-05
0.000336718
0.000284067
-4.09021e-06
-2.51124e-05
-3.23973e-06
-2.42155e-05
-2.11848e-06
-2.33565e-05
-6.56878e-07
-2.25453e-05
1.18088e-06
-2.1727e-05
3.50919e-06
-2.09207e-05
6.43943e-06
-2.00521e-05
1.00902e-05
-1.90323e-05
1.46579e-05
-1.77379e-05
2.03121e-05
-1.58887e-05
2.73093e-05
-1.3155e-05
3.5648e-05
-8.94373e-06
4.58007e-05
-2.02442e-06
5.64202e-05
7.17748e-06
6.9201e-05
2.59204e-05
7.23755e-05
7.33035e-05
4.4363e-05
0.000217721
-1.43291e-06
0.000361345
0.000299972
-3.36115e-06
-2.57008e-05
-2.53555e-06
-2.50411e-05
-1.43679e-06
-2.44552e-05
-5.56562e-09
-2.39765e-05
1.84424e-06
-2.35768e-05
4.21045e-06
-2.32869e-05
7.22948e-06
-2.30711e-05
1.11128e-05
-2.29157e-05
1.6113e-05
-2.27381e-05
2.26261e-05
-2.24018e-05
3.11339e-05
-2.16627e-05
4.21881e-05
-1.99979e-05
5.65433e-05
-1.63797e-05
7.4133e-05
-1.04121e-05
9.81494e-05
1.90388e-06
0.000114454
5.69989e-05
0.000124055
0.000208162
5.36493e-05
0.000427918
0.000359841
-2.81786e-06
-2.62373e-05
-2.05895e-06
-2.58001e-05
-1.03394e-06
-2.54802e-05
3.11255e-07
-2.53217e-05
2.07094e-06
-2.53365e-05
4.36187e-06
-2.55779e-05
7.33383e-06
-2.60431e-05
1.12175e-05
-2.67993e-05
1.63324e-05
-2.78529e-05
2.3193e-05
-2.92625e-05
3.25306e-05
-3.10003e-05
4.55549e-05
-3.30222e-05
6.37157e-05
-3.45406e-05
8.94306e-05
-3.61271e-05
0.000123782
-3.24475e-05
0.000157944
2.28364e-05
0.000188978
0.000177131
0.00010465
0.000513843
0.00046691
-2.45113e-06
-2.66894e-05
-1.80214e-06
-2.6449e-05
-9.04876e-07
-2.63775e-05
2.91586e-07
-2.65182e-05
1.87487e-06
-2.69198e-05
3.94474e-06
-2.76478e-05
6.6731e-06
-2.87714e-05
1.02673e-05
-3.03935e-05
1.50815e-05
-3.26671e-05
2.16382e-05
-3.58191e-05
3.0781e-05
-4.01432e-05
4.39347e-05
-4.61759e-05
6.36042e-05
-5.421e-05
9.40445e-05
-6.65674e-05
0.000138661
-7.70645e-05
0.00018807
-2.6572e-05
0.000228908
0.000136292
0.000149855
0.000597212
0.000612394
-2.24602e-06
-2.70208e-05
-1.7431e-06
-2.6952e-05
-1.02725e-06
-2.70933e-05
-2.80877e-08
-2.75173e-05
1.28578e-06
-2.82336e-05
3.04119e-06
-2.94032e-05
5.35649e-06
-3.10867e-05
8.41011e-06
-3.34472e-05
1.24871e-05
-3.67441e-05
1.80087e-05
-4.13407e-05
2.5732e-05
-4.78665e-05
3.69473e-05
-5.73912e-05
5.41787e-05
-7.14415e-05
8.23964e-05
-9.47852e-05
0.000128256
-0.000122924
0.000190719
-8.90349e-05
0.00023325
9.37611e-05
0.000181347
0.000651566
0.000786551
-2.17854e-06
-2.71919e-05
-1.87155e-06
-2.72589e-05
-1.38046e-06
-2.75844e-05
-6.81252e-07
-2.82165e-05
3.05068e-07
-2.922e-05
1.58729e-06
-3.06854e-05
3.2968e-06
-3.27962e-05
5.53626e-06
-3.56866e-05
8.454e-06
-3.96618e-05
1.23058e-05
-4.51925e-05
1.74624e-05
-5.3023e-05
2.45182e-05
-6.4447e-05
3.49506e-05
-8.1874e-05
5.13176e-05
-0.000111152
7.8763e-05
-0.00015037
0.000135886
-0.000146158
0.000187633
4.20139e-05
0.000169866
0.000666086
0.000956579
-2.16059e-06
-2.71812e-05
-2.06556e-06
-2.7354e-05
-1.83475e-06
-2.78152e-05
-1.42828e-06
-2.8623e-05
-8.03969e-07
-2.98443e-05
8.06898e-08
-3.157e-05
1.19109e-06
-3.39066e-05
2.5849e-06
-3.70804e-05
4.26975e-06
-4.13467e-05
6.22189e-06
-4.71447e-05
8.33351e-06
-5.51347e-05
1.03796e-05
-6.6493e-05
1.20441e-05
-8.35386e-05
1.06118e-05
-0.00010972
1.21101e-07
-0.000139879
1.41745e-05
-0.000160211
7.98605e-06
4.8202e-05
6.40275e-05
0.000607559
0.00102665
-2.18314e-06
-2.69998e-05
-2.35181e-06
-2.71853e-05
-2.44624e-06
-2.77208e-05
-2.43577e-06
-2.86335e-05
-2.3131e-06
-2.99669e-05
-2.06427e-06
-3.18188e-05
-1.6889e-06
-3.4282e-05
-1.24128e-06
-3.7528e-05
-8.46765e-07
-4.17412e-05
-7.97731e-07
-4.71937e-05
-1.74777e-06
-5.41846e-05
-5.0843e-06
-6.31565e-05
-1.37843e-05
-7.48386e-05
-3.32821e-05
-9.02221e-05
-6.23766e-05
-0.000110784
-0.00010788
-0.000114708
-0.00010247
4.27877e-05
-3.7025e-05
0.000541644
0.00099321
-2.10026e-06
-2.22295e-06
-2.3922e-06
-2.56082e-06
-2.68911e-06
-2.77589e-06
-2.82938e-06
-2.91253e-06
-3.1458e-06
-3.81157e-06
-5.46877e-06
-9.31409e-06
-1.79576e-05
-3.66148e-05
-7.35357e-05
-0.000127369
-0.000126023
-5.6695e-05
)
;

boundaryField
{
    leftWall
    {
        type            fixedValue;
        value           nonuniform 0();
    }
    rightWall
    {
        type            fixedValue;
        value           uniform 0;
    }
    lowerWall
    {
        type            fixedValue;
        value           nonuniform 0();
    }
    atmosphere
    {
        type            calculated;
        value           nonuniform List<scalar> 
23
(
-1.19278e-05
-1.1781e-05
-1.16634e-05
-1.15737e-05
-2.69758e-05
-2.70626e-05
-2.75515e-05
-2.84648e-05
-2.98386e-05
-3.1732e-05
-3.42284e-05
-3.74448e-05
-4.15078e-05
-4.65279e-05
-5.25273e-05
-5.93111e-05
-6.6195e-05
-7.15648e-05
-7.38633e-05
-6.08739e-05
4.14366e-05
0.000472297
0.000936834
)
;
    }
    defaultFaces
    {
        type            empty;
        value           nonuniform 0();
    }
    procBoundary3to1
    {
        type            processor;
        value           nonuniform List<scalar> 
23
(
1.60949e-05
1.58548e-05
1.53527e-05
1.49578e-05
3.2756e-05
2.79851e-05
2.13334e-05
1.44006e-05
5.83681e-06
-1.02444e-06
-9.07453e-06
-1.72712e-05
-2.40707e-05
-3.27091e-05
-3.87368e-05
-4.65777e-05
-4.79646e-05
-7.26033e-05
-5.82163e-05
-0.000186094
-0.000308537
-0.0001396
-0.000194052
)
;
    }
    procBoundary3to2
    {
        type            processor;
        value           nonuniform List<scalar> 
25
(
3.1859e-05
3.23696e-05
2.85353e-05
2.69257e-05
2.36731e-05
2.15756e-05
1.95032e-05
1.77127e-05
1.58175e-05
1.41012e-05
1.24474e-05
1.09487e-05
9.57179e-06
8.32364e-06
7.20262e-06
6.20314e-06
5.32487e-06
4.56152e-06
3.90726e-06
3.34843e-06
2.86719e-06
2.41476e-06
2.03269e-06
1.99858e-06
2.39088e-06
)
;
    }
}


// ************************************************************************* //
