/*--------------------------------*- C++ -*----------------------------------*\
| =========                 |                                                 |
| \\      /  F ield         | OpenFOAM: The Open Source CFD Toolbox           |
|  \\    /   O peration     | Version:  2.4.0                                 |
|   \\  /    A nd           | Web:      www.OpenFOAM.org                      |
|    \\/     M anipulation  |                                                 |
\*---------------------------------------------------------------------------*/
FoamFile
{
    version     2.0;
    format      ascii;
    class       surfaceScalarField;
    location    "0.4";
    object      phi.oil;
}
// * * * * * * * * * * * * * * * * * * * * * * * * * * * * * * * * * * * * * //

dimensions      [0 3 -1 0 0 0 0];

internalField   nonuniform List<scalar> 
1102
(
-3.28922e-05
-1.50552e-05
-3.40546e-05
-1.46863e-05
-3.56192e-05
-1.37908e-05
-1.33186e-05
-3.7251e-05
-3.31007e-05
-1.43155e-05
-3.40337e-05
-1.37493e-05
-3.47769e-05
-1.30443e-05
-1.26058e-05
-3.54851e-05
-2.91769e-05
-1.36677e-05
-2.99345e-05
-1.29901e-05
-3.04635e-05
-1.25118e-05
-1.20596e-05
-3.10066e-05
-2.72459e-05
-1.33408e-05
-2.76424e-05
-1.25906e-05
-2.79855e-05
-1.21654e-05
-1.15604e-05
-2.84815e-05
-2.40468e-05
-1.29613e-05
-2.4502e-05
-1.21335e-05
-2.5052e-05
-1.16114e-05
-1.10021e-05
-2.56074e-05
-2.20725e-05
-1.24583e-05
-2.25186e-05
-1.16844e-05
-2.30259e-05
-1.11005e-05
-1.05579e-05
-2.34671e-05
-1.99967e-05
-1.19593e-05
-2.03457e-05
-1.13333e-05
-2.06978e-05
-1.07445e-05
-1.02441e-05
-2.10089e-05
-1.80592e-05
-1.16072e-05
-1.82593e-05
-1.11305e-05
-1.8396e-05
-1.06043e-05
-1.0074e-05
-1.85633e-05
-1.60799e-05
-1.13397e-05
-1.62748e-05
-1.09336e-05
-1.63993e-05
-1.04761e-05
-9.98077e-06
-1.64899e-05
-1.42611e-05
-1.11747e-05
-1.43657e-05
-1.08267e-05
-1.44171e-05
-1.04213e-05
-1.00037e-05
-1.43914e-05
-1.25402e-05
-1.10771e-05
-1.26002e-05
-1.07648e-05
-1.25997e-05
-1.04183e-05
-1.00367e-05
-1.25641e-05
-1.09738e-05
-1.10472e-05
-1.09751e-05
-1.07613e-05
-1.09375e-05
-1.04527e-05
-1.01221e-05
-1.08494e-05
-9.54551e-06
-1.1069e-05
-9.50217e-06
-1.08027e-05
-9.42364e-06
-1.0528e-05
-1.02408e-05
-9.30233e-06
-8.25603e-06
-1.11322e-05
-8.17055e-06
-1.08863e-05
-8.05597e-06
-1.06393e-05
-1.03894e-05
-7.90479e-06
-7.10704e-06
-1.12236e-05
-6.99018e-06
-1.10011e-05
-6.84557e-06
-1.07807e-05
-1.05637e-05
-6.66869e-06
-6.09046e-06
-1.13322e-05
-5.95427e-06
-1.11355e-05
-5.7899e-06
-1.09419e-05
-1.07541e-05
-5.59692e-06
-5.20551e-06
-1.14476e-05
-5.06046e-06
-1.12783e-05
-4.88807e-06
-1.11112e-05
-1.09542e-05
-4.68564e-06
-4.44437e-06
-1.1561e-05
-4.30399e-06
-1.1417e-05
-4.13506e-06
-1.12772e-05
-1.11484e-05
-3.93867e-06
-3.80351e-06
-1.16611e-05
-3.6763e-06
-1.15421e-05
-3.52269e-06
-1.14282e-05
-1.13248e-05
-3.34429e-06
-3.26659e-06
-1.17394e-05
-3.16609e-06
-1.16414e-05
-3.04143e-06
-1.15503e-05
-1.14703e-05
-2.89418e-06
-2.81875e-06
-1.17848e-05
-2.75443e-06
-1.17039e-05
-2.67176e-06
-1.1631e-05
-1.15713e-05
-2.56929e-06
-2.41984e-06
-1.1777e-05
-2.41226e-06
-1.17108e-05
-2.38598e-06
-1.16555e-05
-1.1613e-05
-2.34285e-06
-2.05567e-06
-1.17519e-05
-2.08867e-06
-1.16765e-05
-2.1207e-06
-1.16221e-05
-1.15888e-05
-2.14457e-06
-1.9444e-06
-1.18043e-05
-1.93253e-06
-1.16883e-05
-1.95205e-06
-1.16027e-05
-1.15423e-05
-1.99849e-06
-2.26538e-06
-2.1713e-06
-2.10875e-06
-2.07521e-06
-4.08457e-05
-2.91643e-05
-4.35871e-05
-2.52443e-05
-4.50715e-05
-1.98606e-05
-4.65816e-05
-1.29021e-05
-4.66668e-05
-5.76417e-06
-4.57353e-05
7.79829e-08
-4.41126e-05
7.43706e-06
-4.19682e-05
1.51115e-05
-3.86016e-05
2.06973e-05
-3.40052e-05
2.82108e-05
-2.8604e-05
3.31829e-05
-1.98969e-05
3.94546e-05
-1.41305e-05
4.00995e-05
2.58394e-06
5.49305e-05
2.39235e-05
3.3406e-05
2.21652e-05
0.000183468
1.58422e-05
0.00023175
1.15502e-05
0.000138636
0.00019643
-3.73748e-05
-2.72705e-05
-3.93312e-05
-2.32858e-05
-4.06055e-05
-1.85859e-05
-4.12649e-05
-1.22418e-05
-4.09401e-05
-6.08914e-06
-3.99116e-05
-9.51936e-07
-3.85429e-05
6.06966e-06
-3.6209e-05
1.2781e-05
-3.31082e-05
1.75982e-05
-2.87639e-05
2.39687e-05
-2.41758e-05
2.84335e-05
-1.59552e-05
3.30922e-05
-1.33861e-05
3.49627e-05
3.35346e-06
4.16577e-05
5.65908e-06
2.95346e-05
9.09197e-06
0.000176068
1.83796e-05
0.000249266
1.27574e-05
0.000147768
0.000205398
-3.26364e-05
-2.56382e-05
-3.4543e-05
-2.1379e-05
-3.61125e-05
-1.70178e-05
-3.62767e-05
-1.20801e-05
-3.5687e-05
-6.68096e-06
-3.50798e-05
-1.561e-06
-3.36301e-05
4.61916e-06
-3.1029e-05
1.01796e-05
-2.8296e-05
1.48643e-05
-2.42837e-05
2.00327e-05
-2.04655e-05
2.44338e-05
-1.28496e-05
2.72157e-05
-1.24113e-05
3.13296e-05
2.08197e-06
3.21991e-05
-6.31252e-06
3.24529e-05
1.38418e-05
0.000155854
3.26573e-05
0.000248767
1.59151e-05
0.000157757
0.000213594
-2.99968e-05
-2.41206e-05
-3.12328e-05
-2.01431e-05
-3.19271e-05
-1.63256e-05
-3.1738e-05
-1.22722e-05
-3.12993e-05
-7.12289e-06
-3.07233e-05
-2.13978e-06
-2.89264e-05
2.81994e-06
-2.66633e-05
7.91499e-06
-2.40724e-05
1.22707e-05
-2.04051e-05
1.64152e-05
-1.71091e-05
2.09933e-05
-1.01419e-05
2.17692e-05
-1.03954e-05
2.84121e-05
3.26294e-06
2.46185e-05
-6.54272e-06
3.48665e-05
2.75365e-05
0.000129087
4.78131e-05
0.000235346
2.37339e-05
0.000174161
0.00022355
-2.67977e-05
-2.29281e-05
-2.77219e-05
-1.92193e-05
-2.79357e-05
-1.61142e-05
-2.77432e-05
-1.2468e-05
-2.74994e-05
-7.37025e-06
-2.65347e-05
-3.10769e-06
-2.47274e-05
1.00972e-06
-2.29269e-05
6.11221e-06
-2.03671e-05
9.70727e-06
-1.70946e-05
1.31716e-05
-1.40845e-05
1.78813e-05
-8.24288e-06
1.68273e-05
-6.6551e-06
2.52044e-05
6.74588e-06
1.81814e-05
-1.85531e-07
3.39787e-05
3.66772e-05
9.79654e-05
5.61537e-05
0.000210191
3.0142e-05
0.000206549
0.000242019
-2.42019e-05
-2.21911e-05
-2.44598e-05
-1.89618e-05
-2.44186e-05
-1.61577e-05
-2.42826e-05
-1.26075e-05
-2.3847e-05
-7.80957e-06
-2.27241e-05
-4.23388e-06
-2.12285e-05
-4.89319e-07
-1.94555e-05
4.3363e-06
-1.71407e-05
7.38827e-06
-1.42691e-05
1.03109e-05
-1.15059e-05
1.50632e-05
-6.63029e-06
1.2442e-05
-3.66719e-06
2.15179e-05
8.9176e-06
1.13963e-05
4.975e-06
2.72182e-05
3.86879e-05
5.57549e-05
6.48172e-05
0.000125951
3.93502e-05
0.000234431
0.000274672
-2.1379e-05
-2.18188e-05
-2.13829e-05
-1.89583e-05
-2.13687e-05
-1.61743e-05
-2.12095e-05
-1.27702e-05
-2.04334e-05
-8.58922e-06
-1.93727e-05
-5.29845e-06
-1.81077e-05
-1.75763e-06
-1.62919e-05
2.51648e-06
-1.43402e-05
5.43259e-06
-1.18894e-05
7.86164e-06
-9.48778e-06
1.26348e-05
-5.73403e-06
8.953e-06
-2.85361e-06
1.812e-05
7.25193e-06
5.20372e-06
-1.13871e-07
1.75338e-05
1.14604e-05
4.17442e-05
3.84368e-05
7.96176e-05
2.93166e-05
0.000266146
0.000306202
-1.87878e-05
-2.15921e-05
-1.87331e-05
-1.90133e-05
-1.85779e-05
-1.63319e-05
-1.82347e-05
-1.31168e-05
-1.73411e-05
-9.48649e-06
-1.63048e-05
-6.33853e-06
-1.51515e-05
-2.91438e-06
-1.34417e-05
8.01993e-07
-1.18277e-05
3.81404e-06
-9.8522e-06
5.88303e-06
-7.95499e-06
1.07241e-05
-5.64322e-06
6.77657e-06
-3.80016e-06
1.57541e-05
4.66957e-06
7.86587e-07
-5.72557e-06
1.39016e-05
-5.46955e-06
5.35658e-05
1.2431e-05
8.706e-05
1.40526e-05
0.000285342
0.000316353
-1.6424e-05
-2.16559e-05
-1.62554e-05
-1.91822e-05
-1.59559e-05
-1.66337e-05
-1.5448e-05
-1.36279e-05
-1.455e-05
-1.03886e-05
-1.34957e-05
-7.39594e-06
-1.23168e-05
-4.09822e-06
-1.07733e-05
-7.46037e-07
-9.43025e-06
2.46527e-06
-7.98504e-06
4.43438e-06
-6.71278e-06
9.44232e-06
-6.13802e-06
6.28685e-06
-5.64058e-06
1.47307e-05
-2.43215e-06
1.41649e-06
-1.17201e-05
1.50729e-05
-9.83729e-06
7.5587e-05
8.00166e-06
0.00010822
1.32014e-05
0.000315117
0.000306861
-1.42577e-05
-2.17875e-05
-1.39852e-05
-1.9455e-05
-1.355e-05
-1.70709e-05
-1.28914e-05
-1.42898e-05
-1.1931e-05
-1.13526e-05
-1.08286e-05
-8.50213e-06
-9.59503e-06
-5.33644e-06
-8.15835e-06
-2.18852e-06
-6.93365e-06
1.23438e-06
-5.87482e-06
3.37153e-06
-5.24006e-06
8.79891e-06
-5.83389e-06
6.95342e-06
-7.28836e-06
1.56854e-05
-8.57778e-06
6.4564e-06
-9.97689e-06
1.90439e-05
-1.10075e-05
0.000100399
2.21987e-06
0.000139262
1.16663e-05
0.000353624
0.000299495
-1.22964e-05
-2.20531e-05
-1.18908e-05
-1.98606e-05
-1.13255e-05
-1.76381e-05
-1.05163e-05
-1.51023e-05
-9.46152e-06
-1.24102e-05
-8.26813e-06
-9.70039e-06
-6.93181e-06
-6.67771e-06
-5.52573e-06
-3.60232e-06
-4.2542e-06
-4.36261e-08
-3.27207e-06
2.38538e-06
-2.99889e-06
8.51851e-06
-3.82831e-06
7.85172e-06
-6.99722e-06
1.83292e-05
-1.17995e-05
1.32344e-05
-8.85893e-06
2.6869e-05
-1.06632e-05
0.000119643
-7.06535e-06
0.000173655
4.55483e-06
0.000326848
0.000299733
-1.04969e-05
-2.24035e-05
-9.97435e-06
-2.0383e-05
-9.27525e-06
-1.8339e-05
-8.32758e-06
-1.60526e-05
-7.14664e-06
-1.35948e-05
-5.8024e-06
-1.10489e-05
-4.29805e-06
-8.1889e-06
-2.78011e-06
-5.12857e-06
-1.32547e-06
-1.50607e-06
6.23302e-09
1.04966e-06
3.65337e-07
8.15473e-06
2.79321e-07
8.01006e-06
-3.34234e-06
2.16131e-05
-7.59291e-06
1.93698e-05
-1.04416e-05
3.5912e-05
-1.04521e-05
0.000112782
-9.21892e-06
0.000200371
4.17717e-06
0.0002745
0.000300569
-8.86218e-06
-2.28415e-05
-8.22973e-06
-2.10152e-05
-7.40544e-06
-1.91649e-05
-6.32339e-06
-1.71369e-05
-4.99275e-06
-1.49294e-05
-3.44437e-06
-1.26022e-05
-1.70575e-06
-9.9363e-06
1.71985e-07
-7.01603e-06
2.18007e-06
-3.52309e-06
3.28478e-06
-5.88845e-08
5.52594e-06
5.91345e-06
4.87166e-06
8.72724e-06
4.07845e-06
2.20708e-05
2.12243e-06
2.29016e-05
-8.87652e-06
4.44893e-05
-7.41681e-06
9.29723e-05
-7.46546e-06
0.000224897
5.66925e-06
0.000263552
0.000300415
-7.3958e-06
-2.33482e-05
-6.67344e-06
-2.17373e-05
-5.73445e-06
-2.01051e-05
-4.52173e-06
-1.83523e-05
-3.02578e-06
-1.64289e-05
-1.24471e-06
-1.43898e-05
8.35822e-07
-1.20264e-05
3.13219e-06
-9.32408e-06
5.6752e-06
-6.07552e-06
7.87972e-06
-2.26698e-06
1.07753e-05
3.02076e-06
1.15369e-05
8.02455e-06
1.37876e-05
1.95771e-05
1.3931e-05
2.44016e-05
7.54704e-06
4.65014e-05
4.8386e-07
8.76845e-05
-2.62648e-06
0.000242182
1.02253e-05
0.000271634
0.00029715
-6.10419e-06
-2.39105e-05
-5.3098e-06
-2.25313e-05
-4.27641e-06
-2.11396e-05
-2.95323e-06
-1.96781e-05
-1.28175e-06
-1.81043e-05
7.17872e-07
-1.63971e-05
3.10668e-06
-1.44263e-05
5.88843e-06
-1.21189e-05
9.08224e-06
-9.2789e-06
1.249e-05
-5.6779e-06
1.63624e-05
-8.45862e-07
1.94457e-05
5.00709e-06
2.39021e-05
1.49682e-05
2.67562e-05
2.27426e-05
2.54729e-05
4.39493e-05
1.04582e-05
7.75833e-05
6.44088e-06
0.000177605
2.31968e-05
0.000300519
0.000288084
-4.99628e-06
-2.4509e-05
-4.15812e-06
-2.33691e-05
-3.05918e-06
-2.22399e-05
-1.65092e-06
-2.10888e-05
1.34588e-07
-1.98945e-05
2.32733e-06
-1.8598e-05
5.01679e-06
-1.7128e-05
8.27344e-06
-1.53889e-05
1.21636e-05
-1.31782e-05
1.67261e-05
-1.02427e-05
2.20531e-05
-6.16502e-06
2.77445e-05
-6.14506e-07
3.45603e-05
8.07548e-06
4.06996e-05
1.76537e-05
4.28557e-05
3.81749e-05
3.88769e-05
7.55809e-05
1.16385e-05
0.000213568
3.49327e-05
0.000355515
0.000285166
-4.07671e-06
-2.51159e-05
-3.22561e-06
-2.422e-05
-2.10492e-06
-2.33618e-05
-6.44749e-07
-2.25513e-05
1.18936e-06
-2.17337e-05
3.51065e-06
-2.09279e-05
6.42978e-06
-2.00602e-05
1.00691e-05
-1.9041e-05
1.46284e-05
-1.77465e-05
2.0281e-05
-1.58959e-05
2.7285e-05
-1.31601e-05
3.56994e-05
-8.95285e-06
4.58636e-05
-2.09057e-06
5.76724e-05
6.70278e-06
6.85563e-05
2.32278e-05
7.53956e-05
6.98808e-05
2.68039e-05
0.000216362
4.73043e-05
0.000425867
0.000306644
-3.34839e-06
-2.57045e-05
-2.5222e-06
-2.50461e-05
-1.42378e-06
-2.44613e-05
6.01541e-09
-2.39836e-05
1.8523e-06
-2.35849e-05
4.21117e-06
-2.32958e-05
7.21944e-06
-2.30809e-05
1.10916e-05
-2.29254e-05
1.60846e-05
-2.27469e-05
2.25969e-05
-2.24081e-05
3.11153e-05
-2.16657e-05
4.2256e-05
-2.00023e-05
5.67135e-05
-1.64684e-05
7.53944e-05
-1.10703e-05
9.84712e-05
-1.26725e-06
0.000121004
4.46929e-05
3.84862e-05
0.000188727
6.59171e-05
0.00045075
0.000365137
-2.80607e-06
-2.62412e-05
-2.04658e-06
-2.58054e-05
-1.02176e-06
-2.5487e-05
3.22065e-07
-2.53299e-05
2.0783e-06
-2.53457e-05
4.3619e-06
-2.55884e-05
7.32377e-06
-2.60541e-05
1.11971e-05
-2.68102e-05
1.63061e-05
-2.78619e-05
2.31667e-05
-2.92684e-05
3.25154e-05
-3.1002e-05
4.56475e-05
-3.30236e-05
6.39577e-05
-3.46354e-05
8.99292e-05
-3.72314e-05
0.000117676
-3.86764e-05
0.000161223
8.58701e-07
7.83357e-05
0.000142494
9.84819e-05
0.000430474
0.000465095
-2.44048e-06
-2.66936e-05
-1.79092e-06
-2.64548e-05
-8.93838e-07
-2.63848e-05
3.01482e-07
-2.65271e-05
1.88123e-06
-2.69302e-05
3.94429e-06
-2.76596e-05
6.66318e-06
-2.87839e-05
1.02484e-05
-3.04055e-05
1.50577e-05
-3.26767e-05
2.16153e-05
-3.58252e-05
3.0768e-05
-4.0145e-05
4.40305e-05
-4.61768e-05
6.37659e-05
-5.42738e-05
9.27588e-05
-6.72854e-05
0.000120662
-8.56544e-05
0.000180096
-5.85739e-05
0.000183259
8.55281e-05
0.00012831
0.000602946
0.000610066
-2.23668e-06
-2.7025e-05
-1.73322e-06
-2.6958e-05
-1.01751e-06
-2.71012e-05
-1.9419e-08
-2.75269e-05
1.291e-06
-2.82452e-05
3.04027e-06
-2.94161e-05
5.34696e-06
-3.11008e-05
8.39314e-06
-3.34603e-05
1.24663e-05
-3.67554e-05
1.79893e-05
-4.13482e-05
2.57203e-05
-4.78707e-05
3.70099e-05
-5.73939e-05
5.42449e-05
-7.14739e-05
7.69076e-05
-9.53416e-05
9.62925e-05
-0.000130209
0.000156852
-0.0001202
0.000188227
3.73093e-05
0.000162944
0.0006354
0.000807677
-2.17069e-06
-2.71965e-05
-1.86319e-06
-2.72655e-05
-1.37218e-06
-2.75933e-05
-6.74187e-07
-2.82277e-05
3.09135e-07
-2.92333e-05
1.58548e-06
-3.07009e-05
3.28803e-06
-3.28121e-05
5.52073e-06
-3.57021e-05
8.4363e-06
-3.96736e-05
1.22891e-05
-4.52012e-05
1.74514e-05
-5.30273e-05
2.45345e-05
-6.44501e-05
3.48335e-05
-8.18907e-05
4.08975e-05
-0.000111522
3.42184e-05
-0.000151481
7.49094e-05
-0.000137783
0.00014456
3.32217e-05
0.000229582
0.000696342
0.00106469
-2.15438e-06
-2.71866e-05
-2.05913e-06
-2.73623e-05
-1.82838e-06
-2.78264e-05
-1.42302e-06
-2.86371e-05
-8.01681e-07
-2.98611e-05
7.86587e-08
-3.15882e-05
1.18259e-06
-3.39252e-05
2.5725e-06
-3.70956e-05
4.25464e-06
-4.13577e-05
6.20881e-06
-4.7149e-05
8.32304e-06
-5.51344e-05
1.03716e-05
-6.64891e-05
1.16263e-05
-8.35502e-05
2.19135e-06
-0.000109964
-3.9944e-05
-0.000135063
-3.83235e-05
-9.81224e-05
-9.83313e-06
8.37397e-05
0.000293361
0.000934232
0.00132359
-2.17929e-06
-2.70069e-05
-2.34766e-06
-2.71955e-05
-2.44229e-06
-2.77343e-05
-2.43279e-06
-2.86503e-05
-2.31187e-06
-2.99861e-05
-2.0666e-06
-3.18393e-05
-1.69446e-06
-3.43006e-05
-1.25018e-06
-3.75424e-05
-8.56184e-07
-4.17483e-05
-8.06743e-07
-4.71934e-05
-1.75453e-06
-5.4177e-05
-5.10059e-06
-6.3144e-05
-1.43323e-05
-7.48459e-05
-3.77594e-05
-9.06444e-05
-7.65507e-05
-9.88702e-05
-0.000153894
-4.46722e-05
7.75777e-05
0.000143861
0.000453491
0.00129159
0.00137044
-2.09894e-06
-2.22154e-06
-2.39089e-06
-2.55982e-06
-2.68886e-06
-2.77671e-06
-2.83143e-06
-2.91542e-06
-3.14894e-06
-3.81434e-06
-5.47083e-06
-9.3153e-06
-1.80056e-05
-3.80777e-05
-5.72011e-05
-0.000118203
-1.15944e-05
0.000291977
)
;

boundaryField
{
    leftWall
    {
        type            fixedValue;
        value           nonuniform 0();
    }
    rightWall
    {
        type            fixedValue;
        value           uniform 0;
    }
    lowerWall
    {
        type            fixedValue;
        value           nonuniform 0();
    }
    atmosphere
    {
        type            calculated;
        value           nonuniform List<scalar> 
23
(
-1.19291e-05
-1.17827e-05
-1.16655e-05
-1.15762e-05
-2.69836e-05
-2.70736e-05
-2.75659e-05
-2.84825e-05
-2.98586e-05
-3.17526e-05
-3.42468e-05
-3.74579e-05
-4.15135e-05
-4.65253e-05
-5.25172e-05
-5.92952e-05
-6.61754e-05
-7.15379e-05
-6.91401e-05
-8.10745e-06
0.000211636
0.00130959
0.00191216
)
;
    }
    defaultFaces
    {
        type            empty;
        value           nonuniform 0();
    }
    procBoundary3to1
    {
        type            processor;
        value           nonuniform List<scalar> 
23
(
1.61006e-05
1.58589e-05
1.53579e-05
1.49637e-05
3.27722e-05
2.80061e-05
2.136e-05
1.44392e-05
5.88122e-06
-9.84933e-07
-9.04765e-06
-1.72516e-05
-2.40505e-05
-3.26827e-05
-3.86646e-05
-4.63258e-05
-4.72104e-05
-7.03845e-05
-5.22032e-05
-0.000177121
-0.000214497
-0.000136446
-0.000187706
)
;
    }
    procBoundary3to2
    {
        type            processor;
        value           nonuniform List<scalar> 
25
(
3.18522e-05
3.23652e-05
2.85304e-05
2.69219e-05
2.36691e-05
2.15724e-05
1.94998e-05
1.77096e-05
1.58142e-05
1.40981e-05
1.24442e-05
1.09458e-05
9.56881e-06
8.32087e-06
7.19996e-06
6.20068e-06
5.32262e-06
4.55938e-06
3.90533e-06
3.34665e-06
2.86559e-06
2.41329e-06
2.03144e-06
1.99764e-06
2.39051e-06
)
;
    }
}


// ************************************************************************* //
