/*--------------------------------*- C++ -*----------------------------------*\
| =========                 |                                                 |
| \\      /  F ield         | OpenFOAM: The Open Source CFD Toolbox           |
|  \\    /   O peration     | Version:  2.4.0                                 |
|   \\  /    A nd           | Web:      www.OpenFOAM.org                      |
|    \\/     M anipulation  |                                                 |
\*---------------------------------------------------------------------------*/
FoamFile
{
    version     2.0;
    format      ascii;
    class       volScalarField;
    location    "0.4";
    object      rho;
}
// * * * * * * * * * * * * * * * * * * * * * * * * * * * * * * * * * * * * * //

dimensions      [1 -3 0 0 0 0 0];

internalField   nonuniform List<scalar> 
575
(
1
1
0.999999
1
0.999999
0.999999
1
0.999999
1
1
1
1
1
1
1
1
1
1
1
1
1
1
1
1
1
1
1
1
0.999998
0.999999
1
1
0.999999
0.999999
0.999999
0.999999
0.999997
0.999997
0.999999
0.999998
0.999998
0.999998
0.999998
0.999998
0.999997
0.999997
0.999998
0.999998
0.999998
0.999998
0.999998
0.999998
0.999998
0.999998
0.999998
0.999998
0.999999
0.999999
0.999998
0.999998
0.999999
0.999998
0.999999
0.999998
0.999999
0.999999
0.999999
0.999998
0.999999
0.999999
0.999999
0.999999
0.999999
0.999999
1
0.999999
1
1
0.999999
0.999999
0.999999
0.999999
1
0.999999
1
1
0.999999
1
0.999999
0.999999
1
1
1
1
1
1
1
1
1
1
0.999999
0.999999
0.999999
1
1
1
1
1
1
1
1.00001
1.00003
1.00009
1.00024
1.00057
1.00113
1.00157
301.911
490.784
0.999999
0.999999
0.999999
0.999999
0.999999
0.999999
0.999999
1
1
1
1.00001
1.00002
1.00008
1.00021
1.00053
1.00122
1.00161
138.98
481.218
0.999999
0.999999
0.999999
0.999999
0.999999
0.999999
0.999999
0.999999
1
1
1.00001
1.00002
1.00006
1.00017
1.0005
1.00125
1.00164
26.8811
460.475
1
0.999999
0.999999
0.999999
0.999999
0.999998
0.999999
0.999999
0.999999
1
1
1.00001
1.00005
1.00014
1.00046
1.00119
1.00166
3.3078
435.688
1
1
0.999999
0.999999
0.999999
0.999999
0.999999
0.999999
0.999999
1
1
1.00001
1.00003
1.00006
1.00031
1.00106
1.00164
1.15161
417.127
1
1
1
0.999999
0.999999
0.999999
0.999999
0.999999
0.999999
1
1
1
1.00002
1.00003
1.00021
1.00123
1.00202
1.07855
372.262
1
1
1
0.999999
0.999999
0.999999
0.999999
0.999999
0.999999
1
1
1
1.00001
1.00002
1.00013
1.00469
1.00942
1.14428
216.487
0.999999
0.999999
0.999999
0.999999
0.999999
0.999999
0.999999
0.999999
0.999999
1
1
1
1
1.00002
1.00019
1.01283
1.05109
1.74788
65.8813
0.999999
0.999999
0.999999
0.999999
0.999999
0.999999
0.999999
0.999999
0.999999
1
1
1
1
1.00002
1.00021
1.02272
1.16551
4.30948
131.729
0.999998
0.999998
0.999999
0.999999
0.999999
0.999999
0.999999
0.999999
0.999999
1
1
1
1
1.00003
1.00022
1.02995
1.5143
6.59302
345.888
0.999998
0.999998
0.999998
0.999998
0.999998
0.999998
0.999999
0.999999
1
1
1
1
1.00001
1.00003
1.00014
1.03458
2.62381
12.7449
473.031
0.999997
0.999997
0.999998
0.999998
0.999998
0.999998
0.999999
0.999999
1
1
1
1
1.00001
1.00002
1.00012
1.02066
5.15745
72.9157
492.569
0.999997
0.999997
0.999997
0.999997
0.999998
0.999998
0.999999
0.999999
1
1
1
1
1
1.00002
1.0001
1.00227
5.00322
197.754
492.929
0.999997
0.999997
0.999997
0.999997
0.999998
0.999998
0.999999
1
1
1
1
1
1
1.00002
1.00009
1.00024
2.05987
202.335
492.929
0.999997
0.999997
0.999997
0.999997
0.999998
0.999998
0.999999
1
1
1
0.999999
1
1
1.00002
1.00006
1.00016
1.05298
132.211
492.929
0.999998
0.999997
0.999997
0.999997
0.999998
0.999999
0.999999
1
1
1
0.999999
1
1
1.00002
1.00005
1.00012
1.00052
41.6642
484.416
0.999998
0.999998
0.999997
0.999998
0.999998
0.999999
1
1
1
0.999999
0.999999
1
1
1.00002
1.00006
1.00009
1.00026
7.09758
435.478
0.999998
0.999998
0.999998
0.999998
0.999999
0.999999
1
1
1
0.999999
0.999999
1
1
1.00002
1.00012
1.00015
1.00029
1.4963
342.615
0.999999
0.999998
0.999998
0.999999
0.999999
0.999999
1
1
1
0.999999
0.999999
1
1
1.00003
1.00014
1.00036
1.00043
1.01676
257.617
0.999999
0.999999
0.999999
0.999999
0.999999
1
1
1
1
0.999999
0.999999
1
1.00001
1.00004
1.00019
1.00076
1.00063
1.00088
200.971
0.999999
0.999999
0.999999
0.999999
0.999999
1
1
1
0.999999
0.999999
0.999999
1
1
1.00003
1.00026
1.00131
1.00076
1.00092
133.956
0.999999
0.999999
0.999999
0.999999
0.999999
1
0.999999
0.999999
0.999999
0.999999
0.999999
0.999999
1
1.00003
1.00043
1.00223
1.00093
1.00092
55.2548
1
0.999999
0.999999
0.999999
0.999999
0.999999
0.999999
0.999999
0.999999
0.999999
0.999999
0.999999
1
1.00004
1.00055
1.0036
1.00111
1.00092
11.7984
1
1
0.999999
0.999999
0.999999
0.999999
0.999999
0.999999
0.999999
0.999999
0.999999
0.999999
1
1.00003
1.00048
1.00346
1.00301
1.01439
1.90709
1
1
1
1
1
1
0.999999
0.999999
0.999999
0.999999
0.999999
0.999999
0.999999
1
1.00008
1.00176
1.00807
1.01905
1.02437
)
;

boundaryField
{
    leftWall
    {
        type            calculated;
        value           nonuniform 0();
    }
    rightWall
    {
        type            calculated;
        value           nonuniform List<scalar> 
25
(
490.784
481.218
460.475
435.688
417.127
372.262
216.487
65.8813
131.729
345.888
473.031
492.569
492.929
492.929
492.929
484.416
435.478
342.615
257.617
200.971
133.956
55.2548
11.7984
1.90709
1.02437
)
;
    }
    lowerWall
    {
        type            calculated;
        value           nonuniform 0();
    }
    atmosphere
    {
        type            calculated;
        value           nonuniform List<scalar> 
23
(
1
1
1
1
1
1
1
1
1
1
1
1
1
1
1
1
1
1
1
1
1.00807
1.01905
1.02437
)
;
    }
    defaultFaces
    {
        type            empty;
    }
    procBoundary3to1
    {
        type            processor;
        value           nonuniform List<scalar> 
23
(
1
1
1
1
1
1
1
1
1
1
1.00001
1.00001
1.00001
1.00001
1.00002
1.00004
1.00011
1.00027
1.00061
1.00107
1.00154
356.261
491.912
)
;
    }
    procBoundary3to2
    {
        type            processor;
        value           nonuniform List<scalar> 
25
(
1
1
1
1
1
1
0.999999
0.999998
0.999997
0.999997
0.999997
0.999997
0.999997
0.999998
0.999998
0.999999
0.999999
0.999999
1
0.999999
1
0.999999
1
1
1
)
;
    }
}


// ************************************************************************* //
