/*--------------------------------*- C++ -*----------------------------------*\
| =========                 |                                                 |
| \\      /  F ield         | OpenFOAM: The Open Source CFD Toolbox           |
|  \\    /   O peration     | Version:  2.4.0                                 |
|   \\  /    A nd           | Web:      www.OpenFOAM.org                      |
|    \\/     M anipulation  |                                                 |
\*---------------------------------------------------------------------------*/
FoamFile
{
    version     2.0;
    format      ascii;
    class       volVectorField;
    location    "0.4";
    object      U;
}
// * * * * * * * * * * * * * * * * * * * * * * * * * * * * * * * * * * * * * //

dimensions      [0 1 -1 0 0 0 0];

internalField   nonuniform List<vector> 
575
(
(-0.17379 -0.169623 0)
(-0.18007 -0.166539 0)
(-0.187191 -0.157333 0)
(-0.195382 -0.153186 0)
(-0.175379 -0.166544 0)
(-0.18073 -0.160284 0)
(-0.18567 -0.149431 0)
(-0.189233 -0.142549 0)
(-0.154585 -0.164223 0)
(-0.159977 -0.157376 0)
(-0.162002 -0.150995 0)
(-0.165679 -0.146699 0)
(-0.144948 -0.1492 0)
(-0.148609 -0.141486 0)
(-0.148268 -0.137351 0)
(-0.150209 -0.131715 0)
(-0.127831 -0.153874 0)
(-0.131656 -0.144053 0)
(-0.132512 -0.138612 0)
(-0.135818 -0.130794 0)
(-0.116445 -0.14454 0)
(-0.120331 -0.135721 0)
(-0.123241 -0.129295 0)
(-0.124187 -0.123151 0)
(-0.10531 -0.139476 0)
(-0.108764 -0.130804 0)
(-0.111039 -0.123802 0)
(-0.112032 -0.118155 0)
(-0.0956648 -0.134797 0)
(-0.0973097 -0.129228 0)
(-0.0992455 -0.12259 0)
(-0.0992488 -0.116901 0)
(-0.0851028 -0.130884 0)
(-0.0867806 -0.125809 0)
(-0.0878768 -0.120463 0)
(-0.08904 -0.114046 0)
(-0.0760521 -0.128704 0)
(-0.0764174 -0.12457 0)
(-0.0774265 -0.119463 0)
(-0.0780048 -0.114654 0)
(-0.0669249 -0.127037 0)
(-0.0672817 -0.123313 0)
(-0.0674617 -0.119152 0)
(-0.0682244 -0.114416 0)
(-0.0588343 -0.126346 0)
(-0.0587334 -0.122982 0)
(-0.0585382 -0.119235 0)
(-0.0590074 -0.115245 0)
(-0.0513132 -0.126274 0)
(-0.0510556 -0.123116 0)
(-0.0504589 -0.119822 0)
(-0.0506476 -0.116293 0)
(-0.0445232 -0.126767 0)
(-0.0440823 -0.123836 0)
(-0.0432341 -0.120862 0)
(-0.043098 -0.11779 0)
(-0.0384288 -0.127634 0)
(-0.0378781 -0.124955 0)
(-0.0368737 -0.12229 0)
(-0.0364261 -0.119612 0)
(-0.0330121 -0.128762 0)
(-0.0323937 -0.126362 0)
(-0.0313335 -0.123994 0)
(-0.030635 -0.121673 0)
(-0.0282746 -0.130034 0)
(-0.0276276 -0.127935 0)
(-0.0265861 -0.125871 0)
(-0.0257171 -0.123887 0)
(-0.0241798 -0.13133 0)
(-0.0235489 -0.129536 0)
(-0.0225937 -0.127777 0)
(-0.0216672 -0.126118 0)
(-0.0207038 -0.132538 0)
(-0.0201311 -0.131036 0)
(-0.0193079 -0.129577 0)
(-0.0184255 -0.128231 0)
(-0.0177626 -0.133563 0)
(-0.0173066 -0.132316 0)
(-0.0166742 -0.131133 0)
(-0.0159337 -0.130074 0)
(-0.0152669 -0.134278 0)
(-0.0149899 -0.133243 0)
(-0.0145913 -0.132298 0)
(-0.014082 -0.131491 0)
(-0.0129888 -0.134386 0)
(-0.0130064 -0.13358 0)
(-0.012911 -0.132871 0)
(-0.0127216 -0.132294 0)
(-0.0109387 -0.134128 0)
(-0.0111226 -0.133407 0)
(-0.0113168 -0.132848 0)
(-0.0114785 -0.132469 0)
(-0.0105119 -0.134133 0)
(-0.0103721 -0.133004 0)
(-0.0103977 -0.13218 0)
(-0.0105706 -0.131628 0)
(-0.0124786 -0.136154 0)
(-0.0118594 -0.13448 0)
(-0.0114595 -0.133138 0)
(-0.0111861 -0.132115 0)
(-0.212744 -0.143137 0)
(-0.228292 -0.125939 0)
(-0.236371 -0.0979828 0)
(-0.245016 -0.0625561 0)
(-0.252566 -0.0231748 0)
(-0.246633 0.00629597 0)
(-0.241277 0.03971 0)
(-0.234076 0.0783939 0)
(-0.210743 0.108332 0)
(-0.209107 0.147356 0)
(-0.147306 0.174051 0)
(-0.170214 0.208098 0)
(-0.0572204 0.213863 0)
(-0.0780653 0.312453 0)
(0.0819326 0.21927 0)
(0.19726 0.920924 0)
(-0.0312724 1.5334 0)
(0.103465 0.663715 0)
(0.00104562 0.941247 0)
(-0.195874 -0.133124 0)
(-0.207598 -0.115682 0)
(-0.211936 -0.0931686 0)
(-0.221985 -0.0596486 0)
(-0.220021 -0.0285811 0)
(-0.216609 -0.00398666 0)
(-0.211598 0.0323896 0)
(-0.202456 0.0682353 0)
(-0.180047 0.0923862 0)
(-0.182317 0.126213 0)
(-0.116137 0.149222 0)
(-0.155451 0.175939 0)
(-0.0221705 0.183703 0)
(-0.108679 0.239484 0)
(0.11499 0.161542 0)
(-0.0324775 0.943268 0)
(0.220343 1.51422 0)
(0.0782536 0.693871 0)
(-0.00455527 0.989295 0)
(-0.17245 -0.132036 0)
(-0.178211 -0.10965 0)
(-0.191441 -0.0871959 0)
(-0.194706 -0.0602328 0)
(-0.192622 -0.0315871 0)
(-0.188456 -0.00622129 0)
(-0.188644 0.0260086 0)
(-0.172522 0.0554792 0)
(-0.153653 0.0785332 0)
(-0.158735 0.106419 0)
(-0.0899448 0.128004 0)
(-0.14338 0.145995 0)
(0.00375013 0.162497 0)
(-0.129736 0.183122 0)
(0.121418 0.165238 0)
(-0.166005 0.862589 0)
(0.398808 1.36401 0)
(-0.0288525 0.816701 0)
(-0.0126269 1.03205 0)
(-0.157958 -0.119887 0)
(-0.163075 -0.100949 0)
(-0.170929 -0.0802716 0)
(-0.171039 -0.0586523 0)
(-0.168063 -0.0343615 0)
(-0.16638 -0.00921126 0)
(-0.162736 0.0184129 0)
(-0.148761 0.0430316 0)
(-0.130099 0.0658823 0)
(-0.138164 0.0880847 0)
(-0.0676565 0.110144 0)
(-0.13093 0.118122 0)
(0.0234249 0.146573 0)
(-0.130315 0.140567 0)
(0.127762 0.178845 0)
(-0.176288 0.72647 0)
(0.484859 1.21729 0)
(-0.126607 1.07418 0)
(-0.0113761 1.0723 0)
(-0.140784 -0.114723 0)
(-0.146968 -0.0955108 0)
(-0.150011 -0.0794066 0)
(-0.148488 -0.0613792 0)
(-0.147832 -0.0355451 0)
(-0.147597 -0.0121458 0)
(-0.135999 0.00868982 0)
(-0.130507 0.0338748 0)
(-0.108382 0.0531353 0)
(-0.120448 0.0714954 0)
(-0.0493788 0.0943605 0)
(-0.117029 0.0926826 0)
(0.0360484 0.1312 0)
(-0.11219 0.104817 0)
(0.136325 0.182036 0)
(-0.120454 0.585276 0)
(0.499147 1.15044 0)
(-0.12184 1.21345 0)
(-0.00684475 1.13187 0)
(-0.127032 -0.10923 0)
(-0.132815 -0.092621 0)
(-0.130602 -0.0785993 0)
(-0.130135 -0.0610479 0)
(-0.129354 -0.0369138 0)
(-0.126349 -0.0184167 0)
(-0.116633 0.000955078 0)
(-0.112394 0.0254209 0)
(-0.0895525 0.0412232 0)
(-0.104322 0.0568271 0)
(-0.0354381 0.0798735 0)
(-0.102926 0.0701386 0)
(0.0421615 0.11361 0)
(-0.0896934 0.0701143 0)
(0.143409 0.157203 0)
(-0.0541803 0.458362 0)
(0.499652 1.06273 0)
(-0.0115466 1.3132 0)
(0.000430775 1.25486 0)
(-0.112645 -0.107927 0)
(-0.11632 -0.0927673 0)
(-0.114241 -0.0791664 0)
(-0.11369 -0.0619893 0)
(-0.113401 -0.039733 0)
(-0.105618 -0.0232724 0)
(-0.101393 -0.00587354 0)
(-0.0945403 0.0166818 0)
(-0.0738952 0.0309061 0)
(-0.0891302 0.0439983 0)
(-0.0259724 0.0670834 0)
(-0.0898114 0.0511533 0)
(0.0402812 0.0958572 0)
(-0.0782462 0.0377477 0)
(0.132196 0.11114 0)
(-0.0238289 0.35279 0)
(0.431822 0.925666 0)
(0.152218 1.47694 0)
(0.0283159 1.45008 0)
(-0.0992617 -0.105042 0)
(-0.101739 -0.0924221 0)
(-0.100344 -0.0790846 0)
(-0.097919 -0.0631124 0)
(-0.0972994 -0.0443398 0)
(-0.0884262 -0.028558 0)
(-0.0859186 -0.0114341 0)
(-0.0784005 0.00792466 0)
(-0.0601533 0.0223926 0)
(-0.0746913 0.033431 0)
(-0.0200054 0.0566394 0)
(-0.0778965 0.0372887 0)
(0.0308349 0.0817197 0)
(-0.0800617 0.0092382 0)
(0.0991852 0.0774507 0)
(-0.0549727 0.26939 0)
(0.286905 0.839196 0)
(0.0719286 1.59003 0)
(0.0259511 1.51241 0)
(-0.0874143 -0.105627 0)
(-0.088037 -0.0930612 0)
(-0.0872629 -0.0802624 0)
(-0.0832518 -0.0651001 0)
(-0.0820692 -0.0485134 0)
(-0.0738806 -0.0335517 0)
(-0.070397 -0.0171177 0)
(-0.0635707 1.06765e-06 0)
(-0.0472327 0.0153141 0)
(-0.0604498 0.0251959 0)
(-0.0161631 0.0493625 0)
(-0.0661918 0.0311524 0)
(0.0140083 0.0736392 0)
(-0.0857466 0.000314295 0)
(0.0466685 0.0679002 0)
(-0.137032 0.226257 0)
(0.144609 0.837473 0)
(-0.179203 1.69068 0)
(0.0398395 1.49718 0)
(-0.0763909 -0.105536 0)
(-0.0757934 -0.0939748 0)
(-0.0748632 -0.0820677 0)
(-0.0701138 -0.0679715 0)
(-0.0677829 -0.0530132 0)
(-0.0602861 -0.0388085 0)
(-0.0554822 -0.0230043 0)
(-0.0491537 -0.00723985 0)
(-0.0345315 0.00915936 0)
(-0.0450962 0.0188174 0)
(-0.01071 0.0451224 0)
(-0.0536648 0.0322715 0)
(0.00239255 0.074453 0)
(-0.0911041 0.0186296 0)
(-0.00868112 0.0801801 0)
(-0.2052 0.241643 0)
(0.00673344 0.840905 0)
(-0.320992 1.63999 0)
(0.0719216 1.46036 0)
(-0.0666539 -0.106629 0)
(-0.0645738 -0.0955947 0)
(-0.0632644 -0.0843892 0)
(-0.0580337 -0.0715179 0)
(-0.0544048 -0.057897 0)
(-0.0472627 -0.0443563 0)
(-0.0412277 -0.0292846 0)
(-0.0345375 -0.0140978 0)
(-0.0217142 0.00325265 0)
(-0.0281136 0.0138049 0)
(-0.0015719 0.0431831 0)
(-0.036964 0.0365192 0)
(0.00416112 0.0850325 0)
(-0.0869966 0.0508806 0)
(-0.034763 0.115062 0)
(-0.225726 0.304748 0)
(-0.114001 0.797674 0)
(-0.265801 1.49658 0)
(0.0919152 1.46486 0)
(-0.0574942 -0.108029 0)
(-0.0545451 -0.0978021 0)
(-0.0524832 -0.087468 0)
(-0.0469007 -0.0757879 0)
(-0.0420974 -0.0633128 0)
(-0.034725 -0.0505418 0)
(-0.0274858 -0.0362312 0)
(-0.0195766 -0.0212073 0)
(-0.00806649 -0.00336341 0)
(-0.0087173 0.00882679 0)
(0.011825 0.0418901 0)
(-0.0140441 0.0402871 0)
(0.0217165 0.10142 0)
(-0.0641149 0.0841607 0)
(-0.0178131 0.15944 0)
(-0.196088 0.381703 0)
(-0.187528 0.752886 0)
(-0.168752 1.31702 0)
(0.105926 1.47366 0)
(-0.0491525 -0.109933 0)
(-0.045505 -0.100573 0)
(-0.0426432 -0.0911493 0)
(-0.0367017 -0.0807145 0)
(-0.0308284 -0.0694112 0)
(-0.0228358 -0.057578 0)
(-0.0142034 -0.0441612 0)
(-0.0044817 -0.0295477 0)
(0.00638681 -0.0119473 0)
(0.0133183 0.00360753 0)
(0.0290422 0.0356325 0)
(0.0166231 0.0436798 0)
(0.0518464 0.110914 0)
(-0.0237244 0.109178 0)
(0.0425406 0.207252 0)
(-0.131444 0.4438 0)
(-0.0799709 0.724646 0)
(-0.129543 1.27846 0)
(0.126061 1.47794 0)
(-0.0415579 -0.112181 0)
(-0.0374869 -0.103833 0)
(-0.0338581 -0.0954021 0)
(-0.0275397 -0.0862546 0)
(-0.020693 -0.0762662 0)
(-0.0118195 -0.0656828 0)
(-0.00174907 -0.053518 0)
(0.00996226 -0.0398125 0)
(0.0227523 -0.0232348 0)
(0.0351035 -0.00450708 0)
(0.0505287 0.023322 0)
(0.0530592 0.0443362 0)
(0.0889857 0.106094 0)
(0.0325525 0.122358 0)
(0.132657 0.233184 0)
(-0.0495229 0.452337 0)
(0.237835 0.722645 0)
(-0.160813 1.31384 0)
(0.169638 1.47788 0)
(-0.0347897 -0.114763 0)
(-0.0304655 -0.107507 0)
(-0.0261845 -0.100171 0)
(-0.0195424 -0.0923882 0)
(-0.0119205 -0.0839597 0)
(-0.00212064 -0.0749207 0)
(0.00951399 -0.0644706 0)
(0.0233283 -0.0523231 0)
(0.0390813 -0.0374376 0)
(0.0564788 -0.0188219 0)
(0.0759845 0.0068946 0)
(0.0912915 0.0354917 0)
(0.130524 0.0892166 0)
(0.0967149 0.12374 0)
(0.221537 0.233003 0)
(0.0320918 0.415736 0)
(0.475883 0.743296 0)
(-0.267523 1.40466 0)
(0.284668 1.44978 0)
(-0.0288983 -0.117546 0)
(-0.0245 -0.111439 0)
(-0.0197573 -0.10531 0)
(-0.0129232 -0.099022 0)
(-0.00468931 -0.0923482 0)
(0.00596755 -0.0851193 0)
(0.0189651 -0.0768635 0)
(0.0348229 -0.0671323 0)
(0.0537623 -0.0549109 0)
(0.0763559 -0.0388309 0)
(0.102399 -0.0162838 0)
(0.129203 0.0140739 0)
(0.175883 0.0616979 0)
(0.165231 0.109574 0)
(0.307933 0.217606 0)
(0.107253 0.393869 0)
(0.523014 0.857017 0)
(-0.472293 1.61057 0)
(0.437851 1.41309 0)
(-0.02392 -0.120459 0)
(-0.0196076 -0.115519 0)
(-0.014645 -0.110679 0)
(-0.00780312 -0.105965 0)
(0.000801958 -0.101108 0)
(0.0120436 -0.0960585 0)
(0.0260304 -0.0904779 0)
(0.0435688 -0.0839361 0)
(0.0653447 -0.0756568 0)
(0.0925961 -0.0641452 0)
(0.126332 -0.0473847 0)
(0.164748 -0.0220209 0)
(0.223814 0.0196168 0)
(0.240859 0.0725597 0)
(0.41142 0.177962 0)
(0.245128 0.39099 0)
(0.682997 1.04025 0)
(-0.357079 1.65391 0)
(0.587673 1.45266 0)
(-0.0198826 -0.123352 0)
(-0.0158227 -0.119562 0)
(-0.0108987 -0.116057 0)
(-0.00422675 -0.112948 0)
(0.00438102 -0.110008 0)
(0.0157355 -0.107387 0)
(0.0301536 -0.104854 0)
(0.0485895 -0.102188 0)
(0.0722832 -0.098872 0)
(0.103053 -0.0939521 0)
(0.142904 -0.0859407 0)
(0.193337 -0.0716758 0)
(0.267877 -0.0442989 0)
(0.319045 -0.000837493 0)
(0.524703 0.0860845 0)
(0.437729 0.343953 0)
(0.96337 1.05928 0)
(0.147101 1.86891 0)
(0.756754 1.65151 0)
(-0.0167564 -0.126073 0)
(-0.0131232 -0.123381 0)
(-0.00851138 -0.121192 0)
(-0.00228481 -0.119657 0)
(0.00592008 -0.118721 0)
(0.0168437 -0.118639 0)
(0.0309358 -0.119333 0)
(0.0493187 -0.120946 0)
(0.0733906 -0.123308 0)
(0.105375 -0.126402 0)
(0.14873 -0.129583 0)
(0.206385 -0.131457 0)
(0.296971 -0.127451 0)
(0.38062 -0.115929 0)
(0.622751 -0.0692087 0)
(0.62857 0.219079 0)
(1.19239 0.920865 0)
(0.56897 2.21734 0)
(0.971576 2.06749 0)
(-0.0145016 -0.12847 0)
(-0.0114646 -0.126807 0)
(-0.00742609 -0.125837 0)
(-0.00195996 -0.125779 0)
(0.00538623 -0.126768 0)
(0.0152832 -0.12913 0)
(0.028222 -0.133007 0)
(0.045256 -0.138865 0)
(0.0678254 -0.14717 0)
(0.0983084 -0.158625 0)
(0.14035 -0.174108 0)
(0.199077 -0.195147 0)
(0.292458 -0.220861 0)
(0.397489 -0.259676 0)
(0.661346 -0.281652 0)
(0.74824 -0.00559285 0)
(1.28638 0.734024 0)
(0.892227 2.64354 0)
(1.23194 2.71423 0)
(-0.0130324 -0.130381 0)
(-0.0107489 -0.129607 0)
(-0.00753034 -0.129757 0)
(-0.00313108 -0.131121 0)
(0.00297238 -0.133818 0)
(0.0113221 -0.138386 0)
(0.0223549 -0.145191 0)
(0.036906 -0.154923 0)
(0.0561829 -0.168589 0)
(0.0821783 -0.187645 0)
(0.117973 -0.214694 0)
(0.168606 -0.253742 0)
(0.249328 -0.310049 0)
(0.349486 -0.401723 0)
(0.594352 -0.50871 0)
(0.715932 -0.312437 0)
(1.25721 0.463702 0)
(0.985339 2.90063 0)
(1.55668 3.54725 0)
(-0.012198 -0.13159 0)
(-0.0109214 -0.131589 0)
(-0.00876663 -0.132604 0)
(-0.00563058 -0.135105 0)
(-0.0012572 -0.139219 0)
(0.00482086 -0.145508 0)
(0.0129952 -0.154715 0)
(0.0237489 -0.167432 0)
(0.0379246 -0.185092 0)
(0.0565496 -0.209803 0)
(0.0812657 -0.24488 0)
(0.11546 -0.296658 0)
(0.165388 -0.375289 0)
(0.225398 -0.507604 0)
(0.385663 -0.67896 0)
(0.410887 -0.609943 0)
(0.979639 0.269897 0)
(0.682816 3.21084 0)
(1.79586 4.56049 0)
(-0.0116737 -0.132131 0)
(-0.0113325 -0.132679 0)
(-0.0105296 -0.13459 0)
(-0.00880794 -0.138038 0)
(-0.00602566 -0.143342 0)
(-0.00214182 -0.150989 0)
(0.00320965 -0.161653 0)
(0.0102548 -0.176256 0)
(0.0188635 -0.196184 0)
(0.0293233 -0.223613 0)
(0.0412223 -0.262315 0)
(0.0542597 -0.318557 0)
(0.066043 -0.404861 0)
(0.0653051 -0.544984 0)
(0.0852107 -0.718162 0)
(-0.117697 -0.768902 0)
(0.312688 0.218013 0)
(-0.415633 3.29474 0)
(1.54881 4.86859 0)
(-0.0111369 -0.131123 0)
(-0.0121875 -0.132045 0)
(-0.0129236 -0.134563 0)
(-0.013103 -0.138773 0)
(-0.0127148 -0.144965 0)
(-0.0116499 -0.153578 0)
(-0.00986649 -0.165076 0)
(-0.00747192 -0.18044 0)
(-0.00487978 -0.200644 0)
(-0.00301334 -0.227181 0)
(-0.00386845 -0.262524 0)
(-0.0117309 -0.310071 0)
(-0.036401 -0.377222 0)
(-0.093492 -0.475001 0)
(-0.224559 -0.607602 0)
(-0.509668 -0.66792 0)
(-0.604909 0.326513 0)
(-0.908901 3.06842 0)
(0.825874 5.08452 0)
(-0.0110973 -0.130985 0)
(-0.0115241 -0.131408 0)
(-0.0123359 -0.133782 0)
(-0.0133083 -0.138211 0)
(-0.0141077 -0.144871 0)
(-0.0146602 -0.154048 0)
(-0.0149801 -0.166145 0)
(-0.0152412 -0.181733 0)
(-0.015883 -0.201429 0)
(-0.0178947 -0.225784 0)
(-0.0233002 -0.254947 0)
(-0.0362244 -0.288079 0)
(-0.0652666 -0.322128 0)
(-0.128291 -0.349799 0)
(-0.261286 -0.364528 0)
(-0.522181 -0.309783 0)
(-0.782756 0.195259 0)
(-0.803785 2.30726 0)
(0.374882 4.56713 0)
)
;

boundaryField
{
    leftWall
    {
        type            calculated;
        value           nonuniform 0();
    }
    rightWall
    {
        type            calculated;
        value           uniform (0 0 0);
    }
    lowerWall
    {
        type            calculated;
        value           nonuniform 0();
    }
    atmosphere
    {
        type            calculated;
        value           nonuniform List<vector> 
23
(
(-0.0124785 -0.136165 0)
(-0.0118594 -0.134489 0)
(-0.0114595 -0.133146 0)
(-0.0111861 -0.132122 0)
(-0.0110973 -0.13099 0)
(-0.0115241 -0.131412 0)
(-0.0123359 -0.133786 0)
(-0.0133083 -0.138221 0)
(-0.0141078 -0.144892 0)
(-0.0146602 -0.154086 0)
(-0.0149801 -0.166208 0)
(-0.0152412 -0.181826 0)
(-0.015883 -0.201556 0)
(-0.0178947 -0.225932 0)
(-0.0233002 -0.255065 0)
(-0.0362245 -0.288006 0)
(-0.0652666 -0.321433 0)
(-0.128291 -0.347508 0)
(-0.261286 -0.358669 0)
(-0.522181 -0.295595 0)
(-0.782756 0.201224 0)
(-0.803785 2.29357 0)
(0.374882 4.54938 0)
)
;
    }
    defaultFaces
    {
        type            empty;
    }
    procBoundary3to1
    {
        type            processor;
        value           nonuniform List<vector> 
23
(
(-0.178416 -0.206291 0)
(-0.187722 -0.205567 0)
(-0.19347 -0.203909 0)
(-0.207387 -0.20047 0)
(-0.233427 -0.187563 0)
(-0.258249 -0.159888 0)
(-0.280579 -0.123938 0)
(-0.284176 -0.0912916 0)
(-0.284433 -0.0433873 0)
(-0.275463 -0.00264849 0)
(-0.272655 0.0442816 0)
(-0.26829 0.0888993 0)
(-0.245929 0.124977 0)
(-0.241125 0.169319 0)
(-0.183666 0.20174 0)
(-0.193371 0.243329 0)
(-0.0999519 0.253599 0)
(-0.0676319 0.387799 0)
(0.024873 0.339638 0)
(0.30157 0.871762 0)
(-0.132113 1.47871 0)
(0.0964642 0.664175 0)
(0.00645274 0.896641 0)
)
;
    }
    procBoundary3to2
    {
        type            processor;
        value           nonuniform List<vector> 
25
(
(-0.166665 -0.179683 0)
(-0.170827 -0.175507 0)
(-0.15045 -0.171545 0)
(-0.142817 -0.156713 0)
(-0.123733 -0.16084 0)
(-0.112696 -0.149568 0)
(-0.101558 -0.146478 0)
(-0.0932679 -0.139747 0)
(-0.0838669 -0.137699 0)
(-0.0748481 -0.134146 0)
(-0.0666654 -0.132881 0)
(-0.0587943 -0.131764 0)
(-0.0516688 -0.131449 0)
(-0.0450982 -0.13151 0)
(-0.0391745 -0.131921 0)
(-0.0338522 -0.13256 0)
(-0.0291407 -0.133343 0)
(-0.025005 -0.134171 0)
(-0.0214113 -0.134957 0)
(-0.0182874 -0.135621 0)
(-0.0155331 -0.136037 0)
(-0.0128384 -0.135818 0)
(-0.0107527 -0.135552 0)
(-0.0110448 -0.136091 0)
(-0.0134333 -0.138989 0)
)
;
    }
}


// ************************************************************************* //
