/*--------------------------------*- C++ -*----------------------------------*\
| =========                 |                                                 |
| \\      /  F ield         | OpenFOAM: The Open Source CFD Toolbox           |
|  \\    /   O peration     | Version:  2.4.0                                 |
|   \\  /    A nd           | Web:      www.OpenFOAM.org                      |
|    \\/     M anipulation  |                                                 |
\*---------------------------------------------------------------------------*/
FoamFile
{
    version     2.0;
    format      ascii;
    class       volVectorField;
    location    "0.4";
    object      U.mercury;
}
// * * * * * * * * * * * * * * * * * * * * * * * * * * * * * * * * * * * * * //

dimensions      [0 1 -1 0 0 0 0];

internalField   nonuniform List<vector> 
575
(
(-0.173753 -0.169604 0)
(-0.180013 -0.166526 0)
(-0.187122 -0.157321 0)
(-0.195296 -0.153181 0)
(-0.175348 -0.166534 0)
(-0.18068 -0.160275 0)
(-0.185605 -0.149428 0)
(-0.18915 -0.142545 0)
(-0.154555 -0.164219 0)
(-0.159934 -0.157374 0)
(-0.161943 -0.150995 0)
(-0.1656 -0.1467 0)
(-0.144922 -0.149202 0)
(-0.148567 -0.141489 0)
(-0.14821 -0.137355 0)
(-0.150132 -0.131719 0)
(-0.127804 -0.153879 0)
(-0.131617 -0.144058 0)
(-0.132456 -0.138618 0)
(-0.135743 -0.1308 0)
(-0.116421 -0.144546 0)
(-0.120292 -0.135728 0)
(-0.123185 -0.129302 0)
(-0.124113 -0.123158 0)
(-0.105285 -0.139483 0)
(-0.108728 -0.130811 0)
(-0.110985 -0.12381 0)
(-0.11196 -0.118164 0)
(-0.0956419 -0.134805 0)
(-0.0972735 -0.129236 0)
(-0.0991927 -0.122598 0)
(-0.0991787 -0.11691 0)
(-0.0850797 -0.130892 0)
(-0.0867464 -0.125817 0)
(-0.0878264 -0.120473 0)
(-0.088972 -0.114056 0)
(-0.0760302 -0.128714 0)
(-0.0763838 -0.12458 0)
(-0.0773772 -0.119473 0)
(-0.0779388 -0.114665 0)
(-0.0669032 -0.127048 0)
(-0.0672497 -0.123324 0)
(-0.0674145 -0.119164 0)
(-0.0681603 -0.114429 0)
(-0.0588136 -0.126357 0)
(-0.058702 -0.122993 0)
(-0.0584922 -0.119247 0)
(-0.0589452 -0.115258 0)
(-0.051293 -0.126286 0)
(-0.0510257 -0.123128 0)
(-0.0504145 -0.119835 0)
(-0.050587 -0.116306 0)
(-0.0445039 -0.12678 0)
(-0.0440534 -0.12385 0)
(-0.0431911 -0.120876 0)
(-0.0430389 -0.117804 0)
(-0.0384104 -0.127648 0)
(-0.0378502 -0.124969 0)
(-0.0368317 -0.122304 0)
(-0.0363684 -0.119626 0)
(-0.0329946 -0.128776 0)
(-0.0323667 -0.126376 0)
(-0.0312927 -0.124008 0)
(-0.0305787 -0.121688 0)
(-0.0282582 -0.130047 0)
(-0.0276013 -0.127949 0)
(-0.0265461 -0.125885 0)
(-0.0256626 -0.123902 0)
(-0.0241639 -0.131342 0)
(-0.0235238 -0.12955 0)
(-0.0225558 -0.127791 0)
(-0.0216153 -0.126133 0)
(-0.0206892 -0.132551 0)
(-0.020107 -0.131049 0)
(-0.0192716 -0.129591 0)
(-0.0183769 -0.128246 0)
(-0.0177483 -0.133575 0)
(-0.0172843 -0.132328 0)
(-0.0166416 -0.131146 0)
(-0.0158894 -0.130089 0)
(-0.0152548 -0.134288 0)
(-0.0149698 -0.133255 0)
(-0.0145615 -0.132311 0)
(-0.0140429 -0.131506 0)
(-0.0129774 -0.134396 0)
(-0.0129892 -0.133592 0)
(-0.0128866 -0.132884 0)
(-0.0126885 -0.13231 0)
(-0.0109297 -0.134139 0)
(-0.0111082 -0.133419 0)
(-0.0112955 -0.132861 0)
(-0.0114519 -0.132486 0)
(-0.0105041 -0.134145 0)
(-0.0103604 -0.133017 0)
(-0.0103838 -0.132197 0)
(-0.0105542 -0.131649 0)
(-0.0124751 -0.136168 0)
(-0.0118547 -0.134498 0)
(-0.0114545 -0.13316 0)
(-0.0111806 -0.132142 0)
(-0.212636 -0.143135 0)
(-0.228176 -0.125954 0)
(-0.236259 -0.098003 0)
(-0.244925 -0.0625884 0)
(-0.252494 -0.0232135 0)
(-0.246589 0.00625386 0)
(-0.241255 0.0396648 0)
(-0.234076 0.0783549 0)
(-0.210757 0.108292 0)
(-0.209128 0.147324 0)
(-0.147329 0.174016 0)
(-0.170236 0.208064 0)
(-0.0572401 0.213822 0)
(-0.0780822 0.312404 0)
(0.0819151 0.219204 0)
(0.197286 0.920799 0)
(-0.0312833 1.53272 0)
(0.125025 0.655422 0)
(0.00191826 0.940679 0)
(-0.195774 -0.133127 0)
(-0.20749 -0.115689 0)
(-0.211833 -0.0931871 0)
(-0.2219 -0.0596724 0)
(-0.219956 -0.0286116 0)
(-0.216567 -0.00402225 0)
(-0.211577 0.0323544 0)
(-0.202453 0.0681978 0)
(-0.180059 0.0923537 0)
(-0.182338 0.126178 0)
(-0.116162 0.149188 0)
(-0.155478 0.175898 0)
(-0.0221971 0.183657 0)
(-0.108704 0.239427 0)
(0.114965 0.161474 0)
(-0.0324937 0.943171 0)
(0.220169 1.51381 0)
(0.130632 0.674054 0)
(-0.00294276 0.988398 0)
(-0.172355 -0.13204 0)
(-0.178108 -0.109658 0)
(-0.191345 -0.0872106 0)
(-0.194626 -0.0602524 0)
(-0.192562 -0.0316114 0)
(-0.188416 -0.00624939 0)
(-0.188624 0.0259789 0)
(-0.172519 0.0554478 0)
(-0.153664 0.0785014 0)
(-0.158757 0.106384 0)
(-0.0899739 0.127965 0)
(-0.143413 0.145948 0)
(0.00371564 0.162443 0)
(-0.129771 0.183057 0)
(0.121383 0.165163 0)
(-0.166045 0.862492 0)
(0.398687 1.36386 0)
(0.124029 0.754381 0)
(-0.0101523 1.03096 0)
(-0.157866 -0.119893 0)
(-0.162976 -0.100959 0)
(-0.170837 -0.0802853 0)
(-0.170962 -0.0586699 0)
(-0.168006 -0.0343824 0)
(-0.166343 -0.00923538 0)
(-0.162718 0.0183868 0)
(-0.14876 0.0430029 0)
(-0.130112 0.0658509 0)
(-0.13819 0.0880483 0)
(-0.0676919 0.110101 0)
(-0.130971 0.11807 0)
(0.023382 0.146512 0)
(-0.130358 0.140496 0)
(0.127721 0.178767 0)
(-0.17633 0.726375 0)
(0.484795 1.21718 0)
(0.0266299 0.974974 0)
(-0.00852687 1.07078 0)
(-0.140694 -0.114731 0)
(-0.146872 -0.0955215 0)
(-0.149922 -0.0794203 0)
(-0.148414 -0.0613959 0)
(-0.147777 -0.0355644 0)
(-0.147563 -0.0121677 0)
(-0.135983 0.00866558 0)
(-0.130508 0.0338473 0)
(-0.1084 0.0531037 0)
(-0.120481 0.0714569 0)
(-0.0494221 0.0943133 0)
(-0.117079 0.0926249 0)
(0.0359967 0.131131 0)
(-0.112239 0.104739 0)
(0.13628 0.181952 0)
(-0.120494 0.58518 0)
(0.499108 1.15034 0)
(-0.0866646 1.19121 0)
(-0.00442016 1.13089 0)
(-0.126944 -0.10924 0)
(-0.132721 -0.0926326 0)
(-0.130515 -0.0786135 0)
(-0.130064 -0.0610643 0)
(-0.129302 -0.0369325 0)
(-0.126317 -0.0184373 0)
(-0.11662 0.000931695 0)
(-0.112399 0.0253942 0)
(-0.089576 0.0411905 0)
(-0.104363 0.0567859 0)
(-0.0354911 0.0798213 0)
(-0.102986 0.0700741 0)
(0.0421002 0.113533 0)
(-0.0897502 0.0700275 0)
(0.143361 0.15711 0)
(-0.0542156 0.458252 0)
(0.499616 1.06256 0)
(0.00782021 1.30163 0)
(0.00552557 1.25129 0)
(-0.112559 -0.107937 0)
(-0.116228 -0.0927797 0)
(-0.114156 -0.079181 0)
(-0.11362 -0.0620059 0)
(-0.11335 -0.0397512 0)
(-0.105587 -0.0232923 0)
(-0.101383 -0.00589616 0)
(-0.0945503 0.0166555 0)
(-0.0739263 0.0308724 0)
(-0.0891805 0.043954 0)
(-0.0260371 0.0670258 0)
(-0.0898831 0.0510817 0)
(0.0402093 0.0957724 0)
(-0.0783114 0.0376518 0)
(0.132142 0.111037 0)
(-0.0239402 0.352475 0)
(0.430105 0.922374 0)
(0.160289 1.46208 0)
(0.025277 1.43104 0)
(-0.0991778 -0.105053 0)
(-0.101649 -0.0924354 0)
(-0.10026 -0.0790998 0)
(-0.0978507 -0.0631293 0)
(-0.0972503 -0.0443575 0)
(-0.0883978 -0.0285777 0)
(-0.0859112 -0.011455 0)
(-0.0784161 0.00789842 0)
(-0.0601933 0.0223583 0)
(-0.0747534 0.0333833 0)
(-0.0200833 0.0565766 0)
(-0.077981 0.0372103 0)
(0.0307516 0.0816273 0)
(-0.0801355 0.0091345 0)
(0.0991259 0.0773397 0)
(-0.05516 0.26912 0)
(0.27882 0.824959 0)
(0.0783346 1.54433 0)
(0.0426947 1.53926 0)
(-0.0873327 -0.105639 0)
(-0.0879493 -0.0930753 0)
(-0.0871812 -0.0802783 0)
(-0.0831844 -0.0651171 0)
(-0.0820212 -0.0485312 0)
(-0.0738532 -0.03357 0)
(-0.0703927 -0.0171374 0)
(-0.063593 -2.38154e-05 0)
(-0.0472834 0.0152793 0)
(-0.0605261 0.0251459 0)
(-0.0162557 0.0492952 0)
(-0.0662899 0.0310687 0)
(0.0139137 0.0735413 0)
(-0.0858284 0.000206104 0)
(0.0466059 0.0677856 0)
(-0.136922 0.226789 0)
(0.133248 0.80849 0)
(-0.0585715 1.56297 0)
(0.0509542 1.52572 0)
(-0.0763112 -0.105549 0)
(-0.0757076 -0.0939897 0)
(-0.0747827 -0.0820844 0)
(-0.0700473 -0.0679885 0)
(-0.067735 -0.0530308 0)
(-0.0602594 -0.0388245 0)
(-0.0554809 -0.0230226 0)
(-0.0491832 -0.00726231 0)
(-0.0345947 0.00912444 0)
(-0.0451879 0.0187662 0)
(-0.0108187 0.0450526 0)
(-0.0537771 0.0321848 0)
(0.00228803 0.0743535 0)
(-0.0911922 0.0185209 0)
(-0.00874494 0.0800666 0)
(-0.204001 0.244279 0)
(0.00322549 0.804443 0)
(-0.125454 1.64342 0)
(0.0797181 1.46311 0)
(-0.0665763 -0.106643 0)
(-0.0644898 -0.0956105 0)
(-0.0631847 -0.0844062 0)
(-0.0579673 -0.0715354 0)
(-0.054356 -0.0579132 0)
(-0.0472359 -0.0443712 0)
(-0.0412293 -0.0292998 0)
(-0.0345753 -0.0141188 0)
(-0.0217915 0.00321892 0)
(-0.028222 0.0137534 0)
(-0.00169708 0.043113 0)
(-0.0370899 0.0364326 0)
(0.00404709 0.0849354 0)
(-0.0870901 0.0507759 0)
(-0.0348264 0.114954 0)
(-0.22351 0.309706 0)
(-0.0922593 0.792654 0)
(-0.123899 1.68257 0)
(0.0927836 1.46477 0)
(-0.0574184 -0.108044 0)
(-0.0544623 -0.0978185 0)
(-0.0524044 -0.0874854 0)
(-0.0468335 -0.0758054 0)
(-0.0420473 -0.0633279 0)
(-0.0346975 -0.0505555 0)
(-0.0274901 -0.036244 0)
(-0.0196232 -0.0212272 0)
(-0.00815781 -0.00339572 0)
(-0.00884253 0.00877632 0)
(0.0116839 0.0418221 0)
(-0.0141822 0.0402049 0)
(0.0215942 0.101329 0)
(-0.0642115 0.0840652 0)
(-0.0178725 0.159347 0)
(-0.195011 0.384994 0)
(-0.114425 0.853031 0)
(-0.0815517 1.37683 0)
(0.106278 1.47407 0)
(-0.0490784 -0.109948 0)
(-0.0454236 -0.10059 0)
(-0.0425646 -0.0911673 0)
(-0.0366333 -0.0807317 0)
(-0.0307762 -0.0694266 0)
(-0.0228071 -0.0575904 0)
(-0.0142106 -0.0441742 0)
(-0.00453732 -0.0295669 0)
(0.00628159 -0.0119795 0)
(0.0131774 0.00355893 0)
(0.0288879 0.0355687 0)
(0.0164763 0.0436059 0)
(0.0517193 0.110834 0)
(-0.0238203 0.109097 0)
(0.0424861 0.207175 0)
(-0.131421 0.443943 0)
(-0.0497535 0.902072 0)
(-0.0712763 1.28646 0)
(0.126766 1.47865 0)
(-0.0414853 -0.112197 0)
(-0.0374068 -0.10385 0)
(-0.0337796 -0.0954206 0)
(-0.0274703 -0.0862725 0)
(-0.0206387 -0.0762827 0)
(-0.01179 -0.0656963 0)
(-0.0017596 -0.0535332 0)
(0.00989813 -0.0398336 0)
(0.0226343 -0.0232682 0)
(0.0349497 -0.00455342 0)
(0.0503645 0.0232646 0)
(0.0529067 0.0442733 0)
(0.0888581 0.106029 0)
(0.0324601 0.122297 0)
(0.13261 0.233126 0)
(-0.0495184 0.452286 0)
(0.174001 0.890242 0)
(-0.066833 1.30465 0)
(0.171123 1.47842 0)
(-0.0347187 -0.114779 0)
(-0.0303868 -0.107525 0)
(-0.0261065 -0.100191 0)
(-0.0194721 -0.0924084 0)
(-0.0118645 -0.0839784 0)
(-0.00209087 -0.0749384 0)
(0.00949982 -0.06449 0)
(0.0232561 -0.0523491 0)
(0.0389532 -0.0374731 0)
(0.056316 -0.0188659 0)
(0.075815 0.0068454 0)
(0.0911373 0.0354425 0)
(0.130397 0.0891711 0)
(0.0966265 0.123701 0)
(0.221494 0.232967 0)
(0.0321051 0.415694 0)
(0.461278 0.771357 0)
(-0.0619276 1.39717 0)
(0.287082 1.4494 0)
(-0.0288292 -0.117562 0)
(-0.0244231 -0.111459 0)
(-0.0196806 -0.105332 0)
(-0.012853 -0.0990453 0)
(-0.00463298 -0.0923712 0)
(0.00599632 -0.0851433 0)
(0.0189471 -0.0768898 0)
(0.034744 -0.0671648 0)
(0.0536279 -0.0549487 0)
(0.0761895 -0.038872 0)
(0.10223 -0.0163227 0)
(0.129053 0.0140412 0)
(0.175761 0.0616749 0)
(0.165145 0.109562 0)
(0.307885 0.217596 0)
(0.107243 0.393845 0)
(0.522996 0.856986 0)
(-0.131961 1.64545 0)
(0.440343 1.41123 0)
(-0.0238533 -0.120476 0)
(-0.0195335 -0.11554 0)
(-0.0145708 -0.110703 0)
(-0.00773419 -0.105992 0)
(0.000857257 -0.101137 0)
(0.0120702 -0.0960897 0)
(0.0260084 -0.0905128 0)
(0.0434861 -0.0839749 0)
(0.0652086 -0.075697 0)
(0.0924322 -0.0641823 0)
(0.12617 -0.0474129 0)
(0.164608 -0.0220358 0)
(0.223704 0.0196181 0)
(0.24078 0.0725778 0)
(0.411371 0.177993 0)
(0.2451 0.391022 0)
(0.68289 1.04024 0)
(-0.18469 1.8937 0)
(0.592768 1.44897 0)
(-0.0198194 -0.12337 0)
(-0.0157526 -0.119585 0)
(-0.010828 -0.116085 0)
(-0.00416077 -0.11298 0)
(0.00443375 -0.110044 0)
(0.0157591 -0.107426 0)
(0.0301286 -0.104897 0)
(0.0485058 -0.102233 0)
(0.0721502 -0.0989143 0)
(0.102897 -0.0939848 0)
(0.142756 -0.0859588 0)
(0.193213 -0.0716744 0)
(0.267784 -0.0442761 0)
(0.318983 -0.000791409 0)
(0.524672 0.0861569 0)
(0.437708 0.344057 0)
(0.963237 1.05946 0)
(0.115892 1.99792 0)
(0.769222 1.64849 0)
(-0.0166978 -0.126092 0)
(-0.0130583 -0.123406 0)
(-0.0084455 -0.121223 0)
(-0.0022231 -0.119695 0)
(0.00596887 -0.118763 0)
(0.0168635 -0.118686 0)
(0.0309089 -0.119384 0)
(0.049237 -0.120996 0)
(0.0732653 -0.123351 0)
(0.105233 -0.126432 0)
(0.148599 -0.129594 0)
(0.206281 -0.131444 0)
(0.2969 -0.127415 0)
(0.380583 -0.115864 0)
(0.622752 -0.0691094 0)
(0.62858 0.219241 0)
(1.19232 0.921172 0)
(0.564593 2.22397 0)
(1.00008 2.06222 0)
(-0.0144486 -0.12849 0)
(-0.0114059 -0.126834 0)
(-0.00736636 -0.125871 0)
(-0.00190378 -0.125821 0)
(0.00542987 -0.126816 0)
(0.0152991 -0.129184 0)
(0.0281942 -0.133064 0)
(0.0451788 -0.13892 0)
(0.067711 -0.147216 0)
(0.0981829 -0.158654 0)
(0.140239 -0.174116 0)
(0.198995 -0.195132 0)
(0.292411 -0.220824 0)
(0.397483 -0.25961 0)
(0.661392 -0.281551 0)
(0.748318 -0.00543146 0)
(1.28646 0.73437 0)
(0.892052 2.64375 0)
(1.2775 2.69971 0)
(-0.0129858 -0.130401 0)
(-0.0106973 -0.129636 0)
(-0.0074777 -0.129794 0)
(-0.00308168 -0.131166 0)
(0.00300965 -0.133872 0)
(0.0113336 -0.138446 0)
(0.0223269 -0.145255 0)
(0.0368349 -0.154984 0)
(0.0560814 -0.16864 0)
(0.0820704 -0.187678 0)
(0.117881 -0.214708 0)
(0.168543 -0.253738 0)
(0.249302 -0.310029 0)
(0.349509 -0.401682 0)
(0.594447 -0.508644 0)
(0.716057 -0.312375 0)
(1.25748 0.463934 0)
(0.985889 2.90034 0)
(1.6289 3.61502 0)
(-0.0121586 -0.131611 0)
(-0.0108779 -0.13162 0)
(-0.008722 -0.132645 0)
(-0.00558942 -0.135155 0)
(-0.00122731 -0.13928 0)
(0.00482693 -0.145577 0)
(0.0129668 -0.154788 0)
(0.0236838 -0.167502 0)
(0.0378355 -0.185148 0)
(0.0564573 -0.209843 0)
(0.0811882 -0.244901 0)
(0.115409 -0.296666 0)
(0.165373 -0.375287 0)
(0.225437 -0.507597 0)
(0.385786 -0.678959 0)
(0.410799 -0.610052 0)
(0.980057 0.269836 0)
(0.683848 3.20974 0)
(2.02971 4.83622 0)
(-0.0116429 -0.132155 0)
(-0.0112986 -0.132715 0)
(-0.0104952 -0.134638 0)
(-0.00877673 -0.138099 0)
(-0.00600541 -0.143416 0)
(-0.00214111 -0.151071 0)
(0.00318142 -0.161736 0)
(0.0101988 -0.176331 0)
(0.0187897 -0.196239 0)
(0.0292477 -0.223644 0)
(0.041159 -0.262325 0)
(0.0542167 -0.318551 0)
(0.0660293 -0.404849 0)
(0.065334 -0.544975 0)
(0.0852937 -0.718167 0)
(-0.118165 -0.768565 0)
(0.312972 0.217786 0)
(-0.415283 3.29431 0)
(2.2501 5.9952 0)
(-0.0111177 -0.131154 0)
(-0.012166 -0.13209 0)
(-0.0129018 -0.134623 0)
(-0.0130845 -0.138848 0)
(-0.0127035 -0.145053 0)
(-0.0116529 -0.153672 0)
(-0.00988767 -0.165167 0)
(-0.00751072 -0.180512 0)
(-0.00492892 -0.20069 0)
(-0.00306273 -0.227193 0)
(-0.00391035 -0.262507 0)
(-0.0117601 -0.310032 0)
(-0.0364149 -0.377173 0)
(-0.0934848 -0.474953 0)
(-0.224554 -0.607579 0)
(-0.510028 -0.667158 0)
(-0.605788 0.326804 0)
(-0.799272 3.24291 0)
(1.59625 6.19324 0)
(-0.011091 -0.131021 0)
(-0.0115168 -0.13146 0)
(-0.0123286 -0.13385 0)
(-0.0133021 -0.138295 0)
(-0.0141044 -0.144966 0)
(-0.0146618 -0.154147 0)
(-0.0149878 -0.166235 0)
(-0.0152544 -0.181799 0)
(-0.0158991 -0.20146 0)
(-0.0179106 -0.225777 0)
(-0.0233132 -0.254903 0)
(-0.0362331 -0.288007 0)
(-0.0652704 -0.32204 0)
(-0.128289 -0.349709 0)
(-0.261283 -0.364461 0)
(-0.522234 -0.309522 0)
(-0.783307 0.200432 0)
(-0.743167 2.43498 0)
(0.494611 4.75041 0)
)
;

boundaryField
{
    leftWall
    {
        type            fixedValue;
        value           nonuniform 0();
    }
    rightWall
    {
        type            fixedValue;
        value           uniform (0 0 0);
    }
    lowerWall
    {
        type            fixedValue;
        value           nonuniform 0();
    }
    atmosphere
    {
        type            fluxCorrectedVelocity;
        value           nonuniform List<vector> 
23
(
(-0.0124751 -0.136165 0)
(-0.0118547 -0.134489 0)
(-0.0114545 -0.133146 0)
(-0.0111806 -0.132122 0)
(-0.011091 -0.13099 0)
(-0.0115168 -0.131412 0)
(-0.0123286 -0.133786 0)
(-0.0133021 -0.138221 0)
(-0.0141044 -0.144892 0)
(-0.0146618 -0.154086 0)
(-0.0149878 -0.166208 0)
(-0.0152544 -0.181826 0)
(-0.0158991 -0.201556 0)
(-0.0179106 -0.225932 0)
(-0.0233132 -0.255065 0)
(-0.0362331 -0.288006 0)
(-0.0652704 -0.321433 0)
(-0.128289 -0.347508 0)
(-0.261283 -0.358669 0)
(-0.522234 -0.295595 0)
(-0.783307 0.201223 0)
(-0.743167 2.29356 0)
(0.494611 4.54937 0)
)
;
    }
    defaultFaces
    {
        type            empty;
    }
    procBoundary3to1
    {
        type            processor;
        value           nonuniform List<vector> 
23
(
(-0.178379 -0.206265 0)
(-0.187657 -0.205541 0)
(-0.193388 -0.203887 0)
(-0.207286 -0.200455 0)
(-0.233309 -0.187561 0)
(-0.258121 -0.159903 0)
(-0.28046 -0.123966 0)
(-0.284073 -0.0913322 0)
(-0.284359 -0.043437 0)
(-0.275415 -0.00270281 0)
(-0.272636 0.0442266 0)
(-0.268293 0.088848 0)
(-0.245947 0.124929 0)
(-0.241149 0.169277 0)
(-0.183689 0.201704 0)
(-0.193391 0.243294 0)
(-0.0999668 0.253562 0)
(-0.0676453 0.387742 0)
(0.0248402 0.339535 0)
(0.30161 0.871484 0)
(-0.131933 1.47793 0)
(0.11493 0.659847 0)
(0.00728734 0.896467 0)
)
;
    }
    procBoundary3to2
    {
        type            processor;
        value           nonuniform List<vector> 
25
(
(-0.166646 -0.179669 0)
(-0.170809 -0.175493 0)
(-0.15043 -0.17154 0)
(-0.142797 -0.156713 0)
(-0.123713 -0.160844 0)
(-0.112678 -0.149573 0)
(-0.101539 -0.146485 0)
(-0.0932498 -0.139755 0)
(-0.0838484 -0.137707 0)
(-0.0748301 -0.134155 0)
(-0.0666473 -0.132891 0)
(-0.0587768 -0.131775 0)
(-0.0516517 -0.131461 0)
(-0.0450819 -0.131522 0)
(-0.039159 -0.131933 0)
(-0.0338377 -0.132573 0)
(-0.0291273 -0.133355 0)
(-0.0249925 -0.134183 0)
(-0.0213998 -0.134969 0)
(-0.0182769 -0.135632 0)
(-0.0155236 -0.136047 0)
(-0.0128298 -0.135828 0)
(-0.0107455 -0.135562 0)
(-0.0110395 -0.136102 0)
(-0.0134312 -0.139001 0)
)
;
    }
}


// ************************************************************************* //
