/*--------------------------------*- C++ -*----------------------------------*\
| =========                 |                                                 |
| \\      /  F ield         | OpenFOAM: The Open Source CFD Toolbox           |
|  \\    /   O peration     | Version:  2.4.0                                 |
|   \\  /    A nd           | Web:      www.OpenFOAM.org                      |
|    \\/     M anipulation  |                                                 |
\*---------------------------------------------------------------------------*/
FoamFile
{
    version     2.0;
    format      ascii;
    class       volVectorField;
    location    "0.4";
    object      U.oil;
}
// * * * * * * * * * * * * * * * * * * * * * * * * * * * * * * * * * * * * * //

dimensions      [0 1 -1 0 0 0 0];

internalField   nonuniform List<vector> 
575
(
(-0.173754 -0.169634 0)
(-0.180014 -0.16655 0)
(-0.187122 -0.157342 0)
(-0.195296 -0.153199 0)
(-0.175348 -0.166547 0)
(-0.18068 -0.160286 0)
(-0.185604 -0.149437 0)
(-0.18915 -0.142552 0)
(-0.154555 -0.164225 0)
(-0.159934 -0.157379 0)
(-0.161942 -0.150999 0)
(-0.1656 -0.146702 0)
(-0.144921 -0.149206 0)
(-0.148567 -0.141491 0)
(-0.148209 -0.137357 0)
(-0.150132 -0.131721 0)
(-0.127804 -0.153881 0)
(-0.131617 -0.14406 0)
(-0.132456 -0.138618 0)
(-0.135743 -0.130801 0)
(-0.116421 -0.144547 0)
(-0.120292 -0.135729 0)
(-0.123185 -0.129302 0)
(-0.124113 -0.123159 0)
(-0.105285 -0.139483 0)
(-0.108728 -0.130811 0)
(-0.110985 -0.12381 0)
(-0.11196 -0.118164 0)
(-0.0956419 -0.134805 0)
(-0.0972735 -0.129236 0)
(-0.0991927 -0.122598 0)
(-0.0991787 -0.11691 0)
(-0.0850797 -0.130892 0)
(-0.0867464 -0.125817 0)
(-0.0878264 -0.120473 0)
(-0.088972 -0.114056 0)
(-0.0760302 -0.128714 0)
(-0.0763838 -0.12458 0)
(-0.0773772 -0.119473 0)
(-0.0779388 -0.114665 0)
(-0.0669032 -0.127048 0)
(-0.0672497 -0.123324 0)
(-0.0674145 -0.119164 0)
(-0.0681603 -0.114429 0)
(-0.0588136 -0.126357 0)
(-0.058702 -0.122993 0)
(-0.0584922 -0.119247 0)
(-0.0589452 -0.115258 0)
(-0.051293 -0.126286 0)
(-0.0510257 -0.123128 0)
(-0.0504145 -0.119835 0)
(-0.050587 -0.116306 0)
(-0.0445039 -0.12678 0)
(-0.0440534 -0.12385 0)
(-0.0431911 -0.120876 0)
(-0.0430389 -0.117804 0)
(-0.0384104 -0.127648 0)
(-0.0378502 -0.124969 0)
(-0.0368317 -0.122304 0)
(-0.0363684 -0.119626 0)
(-0.0329946 -0.128776 0)
(-0.0323667 -0.126376 0)
(-0.0312927 -0.124008 0)
(-0.0305787 -0.121688 0)
(-0.0282582 -0.130047 0)
(-0.0276013 -0.127949 0)
(-0.0265461 -0.125885 0)
(-0.0256626 -0.123902 0)
(-0.0241639 -0.131342 0)
(-0.0235238 -0.12955 0)
(-0.0225558 -0.127791 0)
(-0.0216153 -0.126133 0)
(-0.0206892 -0.132551 0)
(-0.020107 -0.131049 0)
(-0.0192716 -0.129591 0)
(-0.0183769 -0.128246 0)
(-0.0177483 -0.133575 0)
(-0.0172843 -0.132328 0)
(-0.0166416 -0.131146 0)
(-0.0158894 -0.130089 0)
(-0.0152548 -0.134288 0)
(-0.0149698 -0.133255 0)
(-0.0145615 -0.132311 0)
(-0.0140429 -0.131506 0)
(-0.0129774 -0.134396 0)
(-0.0129892 -0.133592 0)
(-0.0128866 -0.132884 0)
(-0.0126885 -0.13231 0)
(-0.0109297 -0.134139 0)
(-0.0111082 -0.133419 0)
(-0.0112955 -0.132861 0)
(-0.0114519 -0.132486 0)
(-0.0105041 -0.134145 0)
(-0.0103604 -0.133017 0)
(-0.0103838 -0.132197 0)
(-0.0105542 -0.131649 0)
(-0.0124751 -0.136168 0)
(-0.0118547 -0.134498 0)
(-0.0114545 -0.13316 0)
(-0.0111806 -0.132142 0)
(-0.212636 -0.143154 0)
(-0.228175 -0.125974 0)
(-0.236257 -0.0980338 0)
(-0.24492 -0.062629 0)
(-0.252485 -0.02327 0)
(-0.246573 0.00618684 0)
(-0.241234 0.0395965 0)
(-0.234055 0.0782855 0)
(-0.21073 0.10821 0)
(-0.209054 0.147178 0)
(-0.147211 0.17363 0)
(-0.169656 0.206794 0)
(-0.0561381 0.210216 0)
(-0.0784049 0.301698 0)
(0.084638 0.194518 0)
(0.196626 0.879237 0)
(0.0385573 1.06912 0)
(0.126307 0.65492 0)
(0.00195139 0.940657 0)
(-0.195773 -0.133133 0)
(-0.20749 -0.115695 0)
(-0.211833 -0.0931946 0)
(-0.221899 -0.0596832 0)
(-0.219953 -0.0286261 0)
(-0.216564 -0.00404071 0)
(-0.211572 0.0323322 0)
(-0.202447 0.068173 0)
(-0.180048 0.0923174 0)
(-0.182294 0.126089 0)
(-0.116102 0.148907 0)
(-0.155052 0.17492 0)
(-0.0216962 0.180677 0)
(-0.109053 0.230551 0)
(0.115998 0.144618 0)
(-0.0313801 0.900023 0)
(0.147903 1.18982 0)
(0.136215 0.671926 0)
(-0.00288264 0.988363 0)
(-0.172355 -0.132043 0)
(-0.178108 -0.109659 0)
(-0.191345 -0.0872125 0)
(-0.194625 -0.0602551 0)
(-0.192561 -0.0316152 0)
(-0.188415 -0.00625447 0)
(-0.188623 0.0259721 0)
(-0.172517 0.0554388 0)
(-0.153659 0.078484 0)
(-0.158732 0.106328 0)
(-0.0899437 0.127766 0)
(-0.143111 0.145248 0)
(0.00394645 0.16005 0)
(-0.129335 0.175997 0)
(0.121838 0.153016 0)
(-0.159845 0.821487 0)
(0.32387 1.25142 0)
(0.172354 0.734672 0)
(-0.0100619 1.03092 0)
(-0.157866 -0.119894 0)
(-0.162976 -0.100959 0)
(-0.170837 -0.0802858 0)
(-0.170962 -0.0586705 0)
(-0.168005 -0.0343834 0)
(-0.166343 -0.00923667 0)
(-0.162718 0.0183849 0)
(-0.14876 0.0429996 0)
(-0.13011 0.0658419 0)
(-0.138176 0.0880143 0)
(-0.0676761 0.10997 0)
(-0.130816 0.11762 0)
(0.0235202 0.144705 0)
(-0.129515 0.135194 0)
(0.129233 0.166564 0)
(-0.168536 0.688106 0)
(0.447572 1.17128 0)
(0.25 0.830445 0)
(-0.00842105 1.07071 0)
(-0.140694 -0.114731 0)
(-0.146872 -0.0955216 0)
(-0.149922 -0.0794204 0)
(-0.148414 -0.061396 0)
(-0.147777 -0.0355647 0)
(-0.147563 -0.0121681 0)
(-0.135983 0.00866503 0)
(-0.130508 0.033846 0)
(-0.108399 0.0530992 0)
(-0.120474 0.0714384 0)
(-0.0494148 0.0942365 0)
(-0.116979 0.0923568 0)
(0.0361219 0.13001 0)
(-0.111734 0.10201 0)
(0.137713 0.170885 0)
(-0.115368 0.550055 0)
(0.488767 1.10426 0)
(0.308203 0.942279 0)
(-0.00433133 1.13085 0)
(-0.126944 -0.10924 0)
(-0.132721 -0.0926326 0)
(-0.130515 -0.0786135 0)
(-0.130064 -0.0610643 0)
(-0.129302 -0.0369325 0)
(-0.126317 -0.0184374 0)
(-0.11662 0.000931548 0)
(-0.112399 0.0253937 0)
(-0.0895757 0.0411886 0)
(-0.10436 0.0567775 0)
(-0.0354884 0.0797831 0)
(-0.102942 0.0699307 0)
(0.0421513 0.112904 0)
(-0.0895861 0.0687368 0)
(0.143679 0.148502 0)
(-0.0498528 0.409342 0)
(0.474757 0.946964 0)
(0.403059 1.06658 0)
(0.00574669 1.25115 0)
(-0.112559 -0.107937 0)
(-0.116228 -0.0927798 0)
(-0.114156 -0.079181 0)
(-0.11362 -0.0620059 0)
(-0.11335 -0.0397512 0)
(-0.105587 -0.0232923 0)
(-0.101383 -0.0058962 0)
(-0.0945503 0.0166554 0)
(-0.0739262 0.0308718 0)
(-0.0891797 0.0439511 0)
(-0.0260361 0.0670101 0)
(-0.0898632 0.0510146 0)
(0.0402268 0.0954246 0)
(-0.0782611 0.036817 0)
(0.131611 0.105087 0)
(-0.0680074 0.226211 0)
(0.192011 0.476154 0)
(0.28533 1.23324 0)
(0.0250486 1.42961 0)
(-0.0991778 -0.105053 0)
(-0.101649 -0.0924354 0)
(-0.10026 -0.0790998 0)
(-0.0978507 -0.0631293 0)
(-0.0972503 -0.0443575 0)
(-0.0883978 -0.0285777 0)
(-0.0859112 -0.011455 0)
(-0.0784161 0.00789839 0)
(-0.0601933 0.0223582 0)
(-0.0747532 0.0333825 0)
(-0.0200831 0.0565708 0)
(-0.0779715 0.037179 0)
(0.0307496 0.0814205 0)
(-0.0801371 0.00839045 0)
(0.0974369 0.071283 0)
(-0.104032 0.217602 0)
(0.0390562 0.404966 0)
(0.104701 1.35716 0)
(0.0459952 1.5445 0)
(-0.0873327 -0.105639 0)
(-0.0879493 -0.0930753 0)
(-0.0871812 -0.0802783 0)
(-0.0831844 -0.0651171 0)
(-0.0820212 -0.0485312 0)
(-0.0738532 -0.03357 0)
(-0.0703927 -0.0171374 0)
(-0.063593 -2.38219e-05 0)
(-0.0472834 0.0152792 0)
(-0.060526 0.0251456 0)
(-0.0162555 0.0492926 0)
(-0.0662826 0.0310491 0)
(0.0139103 0.0733855 0)
(-0.085578 -0.000321565 0)
(0.0409796 0.0683923 0)
(-0.115689 0.319832 0)
(-0.0005594 0.46786 0)
(0.0862327 1.40986 0)
(0.0522385 1.52893 0)
(-0.0763112 -0.105549 0)
(-0.0757076 -0.0939897 0)
(-0.0747827 -0.0820844 0)
(-0.0700473 -0.0679885 0)
(-0.067735 -0.0530308 0)
(-0.0602594 -0.0388245 0)
(-0.0554809 -0.0230226 0)
(-0.0491832 -0.00726231 0)
(-0.0345947 0.00912442 0)
(-0.0451879 0.018766 0)
(-0.0108182 0.0450502 0)
(-0.0537687 0.0321656 0)
(0.00230533 0.0742055 0)
(-0.0909726 0.0180315 0)
(-0.0116409 0.0839669 0)
(-0.114895 0.443004 0)
(-0.016496 0.599781 0)
(0.0393216 1.64647 0)
(0.0800824 1.46323 0)
(-0.0665763 -0.106643 0)
(-0.0644898 -0.0956105 0)
(-0.0631847 -0.0844062 0)
(-0.0579673 -0.0715354 0)
(-0.054356 -0.0579132 0)
(-0.0472359 -0.0443712 0)
(-0.0412293 -0.0292998 0)
(-0.0345753 -0.0141188 0)
(-0.0217915 0.00321889 0)
(-0.0282219 0.0137532 0)
(-0.00169628 0.0431105 0)
(-0.037079 0.0364095 0)
(0.00410425 0.084792 0)
(-0.0866685 0.0503673 0)
(-0.034154 0.117348 0)
(-0.102418 0.581951 0)
(-0.0270978 0.777923 0)
(-0.0496445 1.77987 0)
(0.0928081 1.46478 0)
(-0.0574184 -0.108044 0)
(-0.0544623 -0.0978185 0)
(-0.0524044 -0.0874854 0)
(-0.0468335 -0.0758054 0)
(-0.0420473 -0.0633279 0)
(-0.0346975 -0.0505555 0)
(-0.0274901 -0.036244 0)
(-0.0196232 -0.0212272 0)
(-0.0081578 -0.00339575 0)
(-0.00884242 0.00877608 0)
(0.0116848 0.0418197 0)
(-0.0141704 0.0401824 0)
(0.021705 0.101187 0)
(-0.063793 0.0834969 0)
(-0.0150185 0.158199 0)
(-0.0990219 0.679001 0)
(-0.0340366 0.963207 0)
(-0.0665491 1.3871 0)
(0.106284 1.47409 0)
(-0.0490784 -0.109948 0)
(-0.0454236 -0.10059 0)
(-0.0425646 -0.0911673 0)
(-0.0366333 -0.0807317 0)
(-0.0307762 -0.0694266 0)
(-0.0228071 -0.0575904 0)
(-0.0142106 -0.0441742 0)
(-0.00453732 -0.0295669 0)
(0.00628159 -0.0119796 0)
(0.0131774 0.00355876 0)
(0.0288886 0.0355667 0)
(0.0164874 0.0435882 0)
(0.0518253 0.110673 0)
(-0.0231976 0.108507 0)
(0.0462061 0.205828 0)
(-0.0978829 0.6556 0)
(-0.0183845 1.08648 0)
(-0.0663872 1.28714 0)
(0.126788 1.47868 0)
(-0.0414853 -0.112197 0)
(-0.0374068 -0.10385 0)
(-0.0337796 -0.0954206 0)
(-0.0274703 -0.0862725 0)
(-0.0206387 -0.0762827 0)
(-0.01179 -0.0656963 0)
(-0.0017596 -0.0535332 0)
(0.00989813 -0.0398336 0)
(0.0226343 -0.0232682 0)
(0.0349497 -0.00455354 0)
(0.0503651 0.023263 0)
(0.0529176 0.0442561 0)
(0.0889764 0.105843 0)
(0.033187 0.121661 0)
(0.136376 0.231085 0)
(-0.0423041 0.455308 0)
(0.0256878 1.27943 0)
(-0.05901 1.30388 0)
(0.17119 1.47844 0)
(-0.0347187 -0.114779 0)
(-0.0303868 -0.107525 0)
(-0.0261065 -0.100191 0)
(-0.0194721 -0.0924084 0)
(-0.0118645 -0.0839784 0)
(-0.00209087 -0.0749384 0)
(0.00949982 -0.06449 0)
(0.0232561 -0.0523491 0)
(0.0389532 -0.0374731 0)
(0.0563161 -0.018866 0)
(0.0758157 0.00684376 0)
(0.0911491 0.0354228 0)
(0.130542 0.0889503 0)
(0.0974597 0.122944 0)
(0.223801 0.230996 0)
(0.0382152 0.40788 0)
(0.125952 1.4137 0)
(-0.039795 1.39632 0)
(0.287214 1.44936 0)
(-0.0288292 -0.117562 0)
(-0.0244231 -0.111459 0)
(-0.0196806 -0.105332 0)
(-0.012853 -0.0990453 0)
(-0.00463298 -0.0923712 0)
(0.00599632 -0.0851433 0)
(0.0189471 -0.0768898 0)
(0.034744 -0.0671648 0)
(0.0536279 -0.0549487 0)
(0.0761896 -0.0388721 0)
(0.102231 -0.0163245 0)
(0.129063 0.0140192 0)
(0.175912 0.0614256 0)
(0.166083 0.108649 0)
(0.310089 0.215616 0)
(0.113642 0.389781 0)
(0.374144 1.07995 0)
(-0.0579265 1.65298 0)
(0.44045 1.41112 0)
(-0.0238533 -0.120476 0)
(-0.0195335 -0.11554 0)
(-0.0145708 -0.110703 0)
(-0.00773419 -0.105992 0)
(0.000857257 -0.101137 0)
(0.0120702 -0.0960897 0)
(0.0260084 -0.0905128 0)
(0.0434861 -0.0839749 0)
(0.0652086 -0.075697 0)
(0.0924323 -0.0641824 0)
(0.126171 -0.0474151 0)
(0.164618 -0.0220615 0)
(0.223855 0.0193255 0)
(0.241547 0.0714852 0)
(0.414605 0.174673 0)
(0.251514 0.38556 0)
(0.655351 1.07026 0)
(-0.0594014 2.06739 0)
(0.592965 1.4488 0)
(-0.0198194 -0.12337 0)
(-0.0157526 -0.119585 0)
(-0.010828 -0.116085 0)
(-0.00416077 -0.11298 0)
(0.00443375 -0.110044 0)
(0.0157591 -0.107426 0)
(0.0301286 -0.104897 0)
(0.0485058 -0.102233 0)
(0.0721502 -0.0989143 0)
(0.102897 -0.0939849 0)
(0.142756 -0.085961 0)
(0.193223 -0.0717081 0)
(0.267922 -0.0446409 0)
(0.320159 -0.00290104 0)
(0.531986 0.0754516 0)
(0.447239 0.326425 0)
(0.970119 1.01453 0)
(-0.00611762 2.5049 0)
(0.769837 1.64831 0)
(-0.0166978 -0.126092 0)
(-0.0130583 -0.123406 0)
(-0.0084455 -0.121223 0)
(-0.0022231 -0.119695 0)
(0.00596887 -0.118763 0)
(0.0168635 -0.118686 0)
(0.0309089 -0.119384 0)
(0.049237 -0.120996 0)
(0.0732653 -0.123351 0)
(0.105233 -0.126432 0)
(0.148599 -0.129595 0)
(0.206286 -0.131478 0)
(0.29698 -0.127863 0)
(0.381357 -0.119123 0)
(0.627223 -0.0883911 0)
(0.639385 0.158121 0)
(1.18796 0.799883 0)
(0.241386 2.69258 0)
(1.00198 2.06183 0)
(-0.0144486 -0.12849 0)
(-0.0114059 -0.126834 0)
(-0.00736636 -0.125871 0)
(-0.00190378 -0.125821 0)
(0.00542987 -0.126816 0)
(0.0152991 -0.129184 0)
(0.0281942 -0.133064 0)
(0.0451788 -0.13892 0)
(0.067711 -0.147216 0)
(0.0981829 -0.158655 0)
(0.140239 -0.174117 0)
(0.198994 -0.19516 0)
(0.29238 -0.221299 0)
(0.396643 -0.264067 0)
(0.658335 -0.312536 0)
(0.735811 -0.128029 0)
(1.25462 0.546774 0)
(0.641183 2.75246 0)
(1.28124 2.69854 0)
(-0.0129858 -0.130401 0)
(-0.0106973 -0.129636 0)
(-0.0074777 -0.129794 0)
(-0.00308168 -0.131166 0)
(0.00300965 -0.133872 0)
(0.0113336 -0.138446 0)
(0.0223269 -0.145255 0)
(0.0368349 -0.154984 0)
(0.0560814 -0.16864 0)
(0.0820704 -0.187678 0)
(0.117881 -0.214709 0)
(0.168539 -0.253758 0)
(0.249173 -0.310403 0)
(0.347108 -0.405156 0)
(0.571103 -0.545841 0)
(0.605863 -0.464519 0)
(1.16395 0.194021 0)
(0.74933 2.95831 0)
(1.63669 3.62248 0)
(-0.0121586 -0.131611 0)
(-0.0108779 -0.13162 0)
(-0.008722 -0.132645 0)
(-0.00558942 -0.135155 0)
(-0.00122731 -0.13928 0)
(0.00482693 -0.145577 0)
(0.0129668 -0.154788 0)
(0.0236838 -0.167502 0)
(0.0378355 -0.185148 0)
(0.0564573 -0.209843 0)
(0.0811881 -0.244901 0)
(0.115405 -0.296676 0)
(0.165231 -0.375487 0)
(0.222398 -0.509843 0)
(0.322198 -0.705977 0)
(0.126689 -0.710617 0)
(0.785869 0.0810596 0)
(0.591165 3.10729 0)
(2.07163 4.88579 0)
(-0.0116429 -0.132155 0)
(-0.0112986 -0.132715 0)
(-0.0104952 -0.134638 0)
(-0.00877673 -0.138099 0)
(-0.00600541 -0.143416 0)
(-0.00214111 -0.151071 0)
(0.00318142 -0.161736 0)
(0.0101988 -0.176331 0)
(0.0187897 -0.196239 0)
(0.0292477 -0.223644 0)
(0.041159 -0.262325 0)
(0.0542148 -0.318555 0)
(0.0659473 -0.404928 0)
(0.0620947 -0.545968 0)
(-0.0059584 -0.712221 0)
(-0.420341 -0.590037 0)
(0.100224 0.305979 0)
(-0.310991 3.54159 0)
(2.55442 6.48398 0)
(-0.0111177 -0.131154 0)
(-0.012166 -0.13209 0)
(-0.0129018 -0.134623 0)
(-0.0130845 -0.138848 0)
(-0.0127035 -0.145053 0)
(-0.0116529 -0.153672 0)
(-0.00988767 -0.165167 0)
(-0.00751072 -0.180512 0)
(-0.00492892 -0.20069 0)
(-0.00306273 -0.227193 0)
(-0.00391036 -0.262507 0)
(-0.0117606 -0.310034 0)
(-0.036467 -0.377227 0)
(-0.0963872 -0.475311 0)
(-0.292204 -0.562426 0)
(-0.676079 -0.30886 0)
(-1.00694 0.599762 0)
(1.74394 7.25823 0)
(2.8227 7.95552 0)
(-0.011091 -0.131021 0)
(-0.0115168 -0.13146 0)
(-0.0123286 -0.13385 0)
(-0.0133021 -0.138295 0)
(-0.0141044 -0.144966 0)
(-0.0146618 -0.154147 0)
(-0.0149878 -0.166235 0)
(-0.0152544 -0.181799 0)
(-0.0158991 -0.20146 0)
(-0.0179106 -0.225777 0)
(-0.0233132 -0.254903 0)
(-0.0362331 -0.288008 0)
(-0.0652705 -0.322051 0)
(-0.128494 -0.3499 0)
(-0.268928 -0.3532 0)
(-0.539473 -0.0656672 0)
(-0.850019 0.876699 0)
(0.681928 5.39223 0)
(2.5028 7.77916 0)
)
;

boundaryField
{
    leftWall
    {
        type            fixedValue;
        value           nonuniform 0();
    }
    rightWall
    {
        type            fixedValue;
        value           uniform (0 0 0);
    }
    lowerWall
    {
        type            fixedValue;
        value           nonuniform 0();
    }
    atmosphere
    {
        type            fluxCorrectedVelocity;
        value           nonuniform List<vector> 
23
(
(-0.0124751 -0.136165 0)
(-0.0118547 -0.134489 0)
(-0.0114545 -0.133146 0)
(-0.0111806 -0.132122 0)
(-0.011091 -0.13099 0)
(-0.0115168 -0.131412 0)
(-0.0123286 -0.133786 0)
(-0.0133021 -0.138221 0)
(-0.0141044 -0.144892 0)
(-0.0146618 -0.154086 0)
(-0.0149878 -0.166208 0)
(-0.0152544 -0.181826 0)
(-0.0158991 -0.201556 0)
(-0.0179106 -0.225932 0)
(-0.0233132 -0.255065 0)
(-0.0362331 -0.288006 0)
(-0.0652705 -0.321433 0)
(-0.128494 -0.347508 0)
(-0.268928 -0.358669 0)
(-0.539473 -0.295595 0)
(-0.850019 0.201223 0)
(0.681928 2.29356 0)
(2.5028 4.54937 0)
)
;
    }
    defaultFaces
    {
        type            empty;
    }
    procBoundary3to1
    {
        type            processor;
        value           nonuniform List<vector> 
23
(
(-0.178383 -0.206328 0)
(-0.18766 -0.20559 0)
(-0.19339 -0.203929 0)
(-0.207288 -0.200502 0)
(-0.233311 -0.187612 0)
(-0.258119 -0.15997 0)
(-0.280448 -0.124059 0)
(-0.284055 -0.091466 0)
(-0.284312 -0.0435968 0)
(-0.275364 -0.0028637 0)
(-0.272586 0.0440503 0)
(-0.268229 0.0886598 0)
(-0.245874 0.124733 0)
(-0.241019 0.169017 0)
(-0.183473 0.201171 0)
(-0.192684 0.241711 0)
(-0.09812 0.249432 0)
(-0.0660481 0.375619 0)
(0.0308789 0.309226 0)
(0.298585 0.83171 0)
(0.0101343 1.02056 0)
(0.115919 0.659609 0)
(0.00731729 0.89646 0)
)
;
    }
    procBoundary3to2
    {
        type            processor;
        value           nonuniform List<vector> 
25
(
(-0.166648 -0.179717 0)
(-0.170809 -0.175523 0)
(-0.150429 -0.171563 0)
(-0.142797 -0.156728 0)
(-0.123713 -0.160851 0)
(-0.112677 -0.149576 0)
(-0.101539 -0.146485 0)
(-0.0932498 -0.139755 0)
(-0.0838484 -0.137707 0)
(-0.0748301 -0.134155 0)
(-0.0666473 -0.132891 0)
(-0.0587768 -0.131775 0)
(-0.0516517 -0.131461 0)
(-0.0450819 -0.131522 0)
(-0.039159 -0.131933 0)
(-0.0338377 -0.132573 0)
(-0.0291273 -0.133355 0)
(-0.0249925 -0.134183 0)
(-0.0213998 -0.134969 0)
(-0.0182769 -0.135632 0)
(-0.0155236 -0.136047 0)
(-0.0128298 -0.135828 0)
(-0.0107455 -0.135562 0)
(-0.0110395 -0.136102 0)
(-0.0134312 -0.139001 0)
)
;
    }
}


// ************************************************************************* //
