/*--------------------------------*- C++ -*----------------------------------*\
| =========                 |                                                 |
| \\      /  F ield         | OpenFOAM: The Open Source CFD Toolbox           |
|  \\    /   O peration     | Version:  2.4.0                                 |
|   \\  /    A nd           | Web:      www.OpenFOAM.org                      |
|    \\/     M anipulation  |                                                 |
\*---------------------------------------------------------------------------*/
FoamFile
{
    version     2.0;
    format      ascii;
    class       volScalarField;
    location    "1";
    object      alpha.mercury;
}
// * * * * * * * * * * * * * * * * * * * * * * * * * * * * * * * * * * * * * //

dimensions      [0 0 0 0 0 0 0];

internalField   nonuniform List<scalar> 
2268
(
1
1
1
1
1
1
1
1
1
1
1
1
1
1
1
1
1
1
1
0.999999
0.999997
0.999994
0.999993
0.999999
0.999999
0.999999
0.999999
1
1
1
1
1
1
1
1
1
1
1
1
1
1
1
0.999999
0.999998
0.999993
0.999989
0.999983
0.999994
0.999998
0.999999
0.999999
0.999999
0.999999
0.999999
0.999999
1
1
1
1
1
1
1
1
1
0.999999
0.999999
0.999998
0.999995
0.999988
0.999817
0.999923
0.999972
0.999983
0.99999
0.999996
0.999992
0.999988
0.999991
0.999995
0.999996
0.999996
0.999997
0.999998
0.999997
0.999996
0.999994
0.999986
0.999956
0.999934
0.99994
0.999965
0.99998
0.998432
0.999442
0.999873
0.999948
0.999935
0.999114
0.995135
0.991493
0.991054
0.993575
0.994249
0.995171
0.996431
0.996604
0.99589
0.994643
0.99335
0.989252
0.981837
0.978543
0.98073
0.982819
0.987708
0.994711
0.998131
0.999521
0.998901
0.975776
0.833906
0.625595
0.510259
0.473549
0.488924
0.574607
0.670961
0.73407
0.746688
0.724254
0.687939
0.660482
0.600941
0.522636
0.48943
0.522845
0.545946
0.479124
0.990136
0.994823
0.963048
0.643319
0.222066
0.0308013
0.00298753
0.00075451
0.000565992
0.000559516
0.000486677
0.00111889
0.0051829
0.0130728
0.0166445
0.0141159
0.0113777
0.00721881
0.00377014
0.00212841
0.00117258
0.00214833
0.00693881
0.982695
0.909195
0.407937
0.0318735
0.00252173
0.000567038
0.000563093
0.000566179
0.000563246
0.000565107
0.000459269
0.000231562
7.50308e-05
5.53689e-05
2.82933e-05
8.07111e-06
6.96764e-06
7.45834e-06
1.04656e-05
1.51585e-05
5.89408e-05
0.000894096
0.00389554
0.755855
0.586434
0.563775
0.564771
0.594546
0.697312
0.841115
0.934841
0.960004
0.964691
0.967551
0.967737
0.967844
0.9679
0.968006
0.968032
0.968032
0.968054
0.968173
0.0224022
0.0054192
0.00153941
0.000303384
0.000280169
0.00364894
0.0385284
0.152302
0.46517
0.688064
0.83566
0.927864
0.958296
0.962926
0.965883
0.968032
0.968055
0.968178
0.968204
0.00210322
0.000472525
5.82515e-05
2.23643e-05
2.23389e-05
2.28551e-05
0.0019708
0.0639999
0.375791
0.755167
0.903196
0.949441
0.958217
0.955337
0.966076
0.968077
0.968179
0.968206
0.968205
0.00217825
0.000408838
5.36409e-05
2.81431e-05
3.72939e-05
3.1769e-05
0.000324845
0.0179199
0.126984
0.285952
0.393456
0.524873
0.646473
0.77957
0.938842
0.964967
0.96792
0.965726
0.968221
0.00270667
0.000423186
6.77537e-05
6.62367e-05
5.50879e-05
4.5396e-05
5.81206e-05
0.00237386
0.0161947
0.0209061
0.00192785
0.0116825
0.0338764
0.219972
0.739214
0.960903
0.96779
0.952691
0.886214
0.00200206
0.000271251
4.32631e-05
4.28543e-05
4.40469e-05
3.39618e-05
3.39689e-05
0.000149739
0.000751192
0.000399485
3.98422e-05
7.70864e-05
0.000765259
0.00830274
0.213798
0.733168
0.842706
0.638242
0.334121
0.00193013
0.000189937
5.55697e-05
5.15926e-05
3.23973e-05
4.10561e-05
4.16903e-05
3.93507e-05
3.92296e-05
3.46163e-05
3.46171e-05
0.000126257
0.000764564
0.00095041
0.00930162
0.0861597
0.133201
0.0461155
0.00301099
0.00196661
0.000117
0.000101048
3.34168e-05
3.23793e-05
3.35278e-05
4.83315e-05
6.32762e-05
4.37021e-05
3.71474e-05
4.89544e-05
0.000163562
0.000778495
0.000643526
0.000485912
0.000333952
0.000137703
7.81514e-05
7.83603e-05
0.855718
0.31746
0.0293098
0.00237079
0.000583303
0.000561523
0.000554187
0.000535654
0.000462668
0.00021415
8.12787e-05
3.40728e-05
1.85957e-05
1.08474e-05
8.9691e-06
7.00783e-06
5.02198e-06
5.07494e-06
1.24396e-05
3.21895e-05
4.55019e-05
0.000733619
0.00412963
0.474383
0.0318289
0.000712625
0.000555253
0.000502794
0.000447843
0.000371331
0.000191463
8.38829e-05
4.25152e-05
2.82398e-05
2.094e-05
1.49941e-05
1.08751e-05
7.95767e-06
6.59694e-06
5.09292e-06
5.58844e-06
3.5604e-05
8.81098e-05
0.000105558
8.66509e-05
7.17826e-05
0.103282
0.00789587
0.000467681
0.000207533
0.000101079
6.89824e-05
4.22641e-05
2.37129e-05
1.65343e-05
1.50587e-05
1.37564e-05
1.18122e-05
9.35297e-06
6.66987e-06
6.02832e-06
6.48087e-06
1.12992e-05
2.33326e-05
8.90647e-05
0.000115536
0.000126803
0.00013834
0.000147148
0.0127379
0.00178954
5.2396e-05
1.93054e-05
1.45618e-05
9.94761e-06
6.59377e-06
7.67945e-06
1.41142e-05
2.06495e-05
2.28354e-05
1.88423e-05
1.29952e-05
9.43116e-06
1.02743e-05
1.6366e-05
4.5605e-05
7.53105e-05
9.10602e-05
0.000102825
0.000115569
0.00013702
0.00015769
0.000422035
6.36615e-05
9.59413e-07
4.92263e-07
4.77797e-07
7.79602e-07
4.83904e-06
2.10442e-05
3.90484e-05
3.90264e-05
3.70551e-05
2.82044e-05
2.10427e-05
2.1115e-05
3.36401e-05
4.9141e-05
5.6806e-05
6.06126e-05
6.03133e-05
6.4126e-05
7.82926e-05
0.000110572
0.000134691
6.47742e-07
5.96687e-08
1.69039e-09
1.83285e-09
8.276e-08
7.22026e-06
2.95739e-05
3.61238e-05
3.7136e-05
3.44213e-05
3.12433e-05
3.12077e-05
3.43911e-05
3.85888e-05
4.24153e-05
4.43126e-05
4.03218e-05
3.38441e-05
2.99434e-05
2.44487e-05
3.11098e-05
4.8661e-05
6.43773e-05
2.72428e-11
3.22945e-11
2.15266e-10
9.13945e-08
3.92804e-06
1.8304e-05
2.73187e-05
3.02287e-05
2.03559e-05
1.60473e-05
2.44843e-05
3.72843e-05
3.82141e-05
3.84268e-05
3.78291e-05
3.35612e-05
2.84717e-05
1.86752e-05
1.19141e-05
6.19017e-06
4.70294e-06
9.78386e-06
1.88018e-05
2.50819e-11
3.4089e-10
1.61863e-07
3.78638e-06
1.24555e-05
1.7521e-05
1.89055e-05
1.10809e-05
4.88938e-06
2.69654e-06
9.02685e-06
2.99142e-05
3.90984e-05
3.91002e-05
3.85713e-05
2.93233e-05
1.52818e-05
4.74899e-06
6.71237e-07
1.26151e-07
3.32873e-08
1.36523e-08
2.37756e-07
9.15386e-10
4.95343e-08
1.5832e-06
6.70512e-06
9.71393e-06
7.68376e-06
1.87528e-06
8.53455e-07
2.6354e-07
8.27565e-08
3.53687e-07
3.05756e-06
1.5528e-05
2.66895e-05
2.7328e-05
1.57471e-05
3.74243e-06
2.2541e-07
3.76036e-09
3.08644e-10
2.02647e-10
6.38879e-10
1.46023e-09
4.8735e-08
7.23949e-07
3.41149e-06
5.60902e-06
4.89016e-06
9.4601e-07
1.94529e-08
4.38514e-09
1.92798e-09
6.35758e-10
1.72286e-09
3.94319e-08
7.33153e-07
3.46256e-06
4.85508e-06
2.28831e-06
2.19694e-07
2.99659e-09
1.93457e-10
1.9353e-10
1.93127e-10
1.96436e-10
2.09926e-10
4.42014e-07
1.71726e-06
3.14047e-06
3.37826e-06
7.73562e-07
1.17979e-08
5.25912e-11
5.32121e-11
8.07698e-11
1.89707e-10
2.28637e-10
3.66996e-10
5.17389e-09
4.05718e-08
7.95837e-08
4.55838e-08
3.29962e-09
2.34682e-10
2.33702e-10
2.35678e-10
1.81569e-10
1.18064e-10
1.01751e-10
7.6429e-07
1.61239e-06
1.95096e-06
5.13368e-07
1.72804e-08
3.51839e-11
3.00426e-11
1.00471e-10
1.67593e-10
2.73247e-10
3.8197e-10
4.6592e-10
5.10865e-10
5.19312e-10
5.17824e-10
4.76982e-10
3.7313e-10
3.69418e-10
3.88067e-10
3.27178e-10
2.06616e-10
1.45681e-10
1.50289e-10
7.03189e-07
9.58639e-07
2.60835e-07
1.15301e-08
7.97775e-11
6.57553e-12
1.41109e-11
3.30184e-11
1.06313e-10
2.39265e-10
3.96262e-10
5.74211e-10
6.90763e-10
7.1978e-10
7.01032e-10
6.89606e-10
7.24537e-10
7.65321e-10
7.79598e-10
5.44732e-10
3.35287e-10
2.39193e-10
2.41926e-10
5.04845e-07
1.52545e-07
4.89012e-09
5.33017e-11
4.94203e-12
4.67575e-12
4.93064e-12
5.14308e-12
1.47313e-11
1.13442e-10
2.69528e-10
4.6575e-10
6.4915e-10
7.42834e-10
7.8223e-10
8.20549e-10
8.67893e-10
9.04067e-10
9.18195e-10
8.55281e-10
5.97259e-10
4.46884e-10
3.43369e-10
1.9873e-07
3.5031e-09
2.01058e-11
7.35078e-12
3.86264e-12
3.47644e-12
3.02057e-12
2.66303e-12
3.48721e-12
1.02229e-11
8.48257e-11
2.31098e-10
4.08238e-10
5.73601e-10
6.51074e-10
6.70238e-10
6.99835e-10
7.06259e-10
6.9094e-10
6.60675e-10
5.27524e-10
4.0454e-10
2.62156e-10
2.38056e-08
1.6775e-11
8.71288e-12
6.35256e-12
3.23788e-12
2.43538e-12
2.06144e-12
1.87056e-12
1.98047e-12
2.84382e-12
6.14421e-12
3.68895e-11
1.02213e-10
2.35949e-10
3.56198e-10
4.31619e-10
4.60871e-10
4.44202e-10
4.21788e-10
3.52215e-10
2.65195e-10
2.0208e-10
1.51225e-10
9.92152e-10
1.50082e-11
9.35563e-12
5.25626e-12
2.70676e-12
1.68389e-12
1.321e-12
1.26262e-12
1.35706e-12
1.53814e-12
2.26431e-12
4.09903e-12
1.10519e-11
3.49046e-11
9.55914e-11
1.69697e-10
2.28813e-10
2.52518e-10
2.40999e-10
2.09541e-10
1.50566e-10
1.13502e-10
6.46446e-11
4.10851e-11
1.96722e-11
9.55e-12
4.54537e-12
2.20925e-12
1.22568e-12
8.40535e-13
7.74027e-13
8.79794e-13
1.00845e-12
1.22164e-12
1.79139e-12
3.47746e-12
6.70464e-12
1.10992e-11
2.53543e-11
5.00071e-11
7.91478e-11
8.34523e-11
7.34879e-11
5.16228e-11
2.35474e-11
1.25065e-11
1.40517e-11
1.5883e-11
7.80748e-12
3.6677e-12
1.8584e-12
1.0084e-12
5.97829e-13
4.65617e-13
5.20921e-13
6.45013e-13
7.56417e-13
8.83191e-13
1.2461e-12
2.20067e-12
3.68687e-12
6.59131e-12
1.36405e-11
1.46444e-11
1.29473e-11
1.02072e-11
7.15678e-12
5.27463e-12
4.36303e-12
1.2539e-11
1.11024e-11
5.75155e-12
3.00047e-12
1.67282e-12
9.17273e-13
4.8667e-13
3.00902e-13
2.93417e-13
3.81465e-13
4.6678e-13
5.0146e-13
5.44567e-13
7.3955e-13
1.1459e-12
2.37377e-12
3.98715e-12
4.25472e-12
3.94238e-12
2.97432e-12
2.20596e-12
1.81728e-12
1.89685e-12
1.00553e-11
7.60152e-12
4.37884e-12
2.60223e-12
1.53752e-12
8.31295e-13
4.07235e-13
2.07559e-13
1.64318e-13
2.07661e-13
2.65999e-13
2.84246e-13
2.71534e-13
2.83323e-13
3.65743e-13
6.9453e-13
1.00992e-12
1.08324e-12
1.01642e-12
7.55251e-13
6.5359e-13
7.3782e-13
1.03653e-12
7.53192e-12
5.46393e-12
3.5309e-12
2.24244e-12
1.3137e-12
6.79952e-13
3.11338e-13
1.3931e-13
9.055e-14
1.05442e-13
1.36618e-13
1.47069e-13
1.34589e-13
1.19705e-13
1.23865e-13
1.85139e-13
2.33954e-13
2.47915e-13
2.3128e-13
2.0202e-13
2.39607e-13
3.5236e-13
5.68672e-13
5.4275e-12
4.06245e-12
2.78339e-12
1.75379e-12
9.7689e-13
4.75653e-13
2.04327e-13
8.37905e-14
4.70666e-14
4.99719e-14
6.35466e-14
6.82516e-14
6.14361e-14
5.02318e-14
4.32054e-14
4.79674e-14
5.2159e-14
5.46566e-14
5.61543e-14
6.55259e-14
9.9152e-14
1.63208e-13
2.73273e-13
3.71396e-12
2.88904e-12
1.96501e-12
1.17295e-12
6.09791e-13
2.78225e-13
1.12984e-13
4.36009e-14
2.2264e-14
2.19334e-14
2.70497e-14
2.86303e-14
2.52752e-14
1.95603e-14
1.47292e-14
1.26331e-14
1.19411e-14
1.28589e-14
1.60017e-14
2.35366e-14
3.92358e-14
6.62465e-14
1.08585e-13
2.28926e-12
1.81764e-12
1.18014e-12
6.5686e-13
3.19035e-13
1.37425e-13
5.32153e-14
1.96048e-14
9.42963e-15
8.8581e-15
1.05852e-14
1.09273e-14
9.36283e-15
6.88953e-15
4.69861e-15
3.36111e-15
2.88319e-15
3.33418e-15
4.95702e-15
8.09274e-15
1.36598e-14
2.26917e-14
3.49669e-14
1.21572e-12
9.69189e-13
5.93605e-13
3.09694e-13
1.41915e-13
5.81923e-14
2.16147e-14
7.66012e-15
3.55788e-15
3.27363e-15
3.80733e-15
3.80678e-15
3.13495e-15
2.18783e-15
1.37444e-15
8.7162e-16
7.11081e-16
8.95384e-16
1.49124e-15
2.51101e-15
4.14692e-15
6.52779e-15
9.12582e-15
5.49098e-13
4.34031e-13
2.51497e-13
1.24458e-13
5.43887e-14
2.13887e-14
7.65458e-15
2.62126e-15
1.19817e-15
1.10461e-15
1.25638e-15
1.21041e-15
9.51076e-16
6.27005e-16
3.6527e-16
2.12652e-16
1.71377e-16
2.34156e-16
4.13184e-16
6.92332e-16
1.0794e-15
1.55971e-15
1.93987e-15
2.12432e-13
1.64828e-13
9.11354e-14
4.32447e-14
1.81757e-14
6.89227e-15
2.38349e-15
7.90857e-16
3.61629e-16
3.4037e-16
3.79723e-16
3.51263e-16
2.62164e-16
1.62688e-16
8.81876e-17
4.80406e-17
3.91302e-17
5.7101e-17
1.03016e-16
1.68522e-16
2.43088e-16
3.14398e-16
3.4169e-16
7.13598e-14
5.39925e-14
2.87227e-14
1.31686e-14
5.35418e-15
1.96493e-15
6.57795e-16
2.11887e-16
9.84235e-17
9.59502e-17
1.05067e-16
9.3077e-17
6.57629e-17
3.83129e-17
1.93476e-17
9.96915e-18
8.33405e-18
1.28185e-17
2.31085e-17
3.62924e-17
4.73294e-17
5.36884e-17
5.04734e-17
2.11132e-14
1.55179e-14
7.98928e-15
3.55525e-15
1.40312e-15
4.99355e-16
1.61958e-16
5.07258e-17
2.43209e-17
2.48051e-17
2.66367e-17
2.2545e-17
1.50484e-17
8.21645e-18
3.87012e-18
1.9014e-18
1.64606e-18
2.62729e-18
4.64555e-18
6.90187e-18
8.05773e-18
7.90725e-18
6.3756e-18
5.57483e-15
3.97031e-15
1.98499e-15
8.59319e-16
3.29713e-16
1.13882e-16
3.57875e-17
1.09163e-17
5.49495e-18
5.89656e-18
6.19595e-18
5.00066e-18
3.14873e-18
1.60965e-18
7.07941e-19
3.33837e-19
3.00753e-19
4.90959e-19
8.40913e-19
1.16877e-18
1.21068e-18
1.01428e-18
6.96773e-19
1.32887e-15
9.1508e-16
4.44872e-16
1.87505e-16
6.99722e-17
2.34534e-17
7.13734e-18
2.12453e-18
1.14306e-18
1.29256e-18
1.32526e-18
1.01826e-18
6.042e-19
2.89054e-19
1.18786e-19
5.40812e-20
5.0815e-20
8.3789e-20
1.37565e-19
1.77288e-19
1.63039e-19
1.15106e-19
6.69757e-20
2.88792e-16
1.91819e-16
9.06661e-17
3.71993e-17
1.34963e-17
4.38701e-18
1.29174e-18
3.76208e-19
2.20377e-19
2.62045e-19
2.6139e-19
1.90951e-19
1.06701e-19
4.77622e-20
1.83529e-20
8.11227e-21
7.94904e-21
1.30884e-20
2.04398e-20
2.42695e-20
1.98776e-20
1.16834e-20
5.73359e-21
5.77047e-17
3.68601e-17
1.69207e-17
6.7529e-18
2.37989e-18
7.49441e-19
2.13283e-19
6.0998e-20
3.9625e-20
4.92897e-20
4.76963e-20
3.30907e-20
1.74019e-20
7.28652e-21
2.61943e-21
1.13048e-21
1.15494e-21
1.881e-21
2.77433e-21
3.01666e-21
2.19459e-21
1.07358e-21
4.42553e-22
1.06792e-17
6.53681e-18
2.90976e-18
1.12835e-18
3.85834e-19
1.17568e-19
3.23019e-20
9.11758e-21
6.68226e-21
8.63232e-21
8.08039e-21
5.31872e-21
2.63036e-21
1.02966e-21
3.46355e-22
1.46847e-22
1.56242e-22
2.49734e-22
3.46397e-22
3.4381e-22
2.21791e-22
9.06578e-23
3.12158e-23
1.84213e-18
1.07617e-18
4.6362e-19
1.74474e-19
5.78134e-20
1.70242e-20
4.51095e-21
1.26567e-21
1.06228e-21
1.41313e-21
1.27656e-21
7.9686e-22
3.70497e-22
1.35549e-22
4.2676e-23
1.78731e-23
1.97504e-23
3.07694e-23
3.99427e-23
3.60982e-23
2.06633e-23
7.13093e-24
2.02955e-24
2.97858e-19
1.65385e-19
6.88273e-20
2.51059e-20
8.05145e-21
2.28832e-21
5.84175e-22
1.64439e-22
1.59789e-22
2.16976e-22
1.88793e-22
1.11686e-22
4.87971e-23
1.66785e-23
4.91834e-24
2.05046e-24
2.34912e-24
3.54519e-24
4.29455e-24
3.52551e-24
1.7847e-24
5.2856e-25
1.21631e-25
4.53845e-20
2.38444e-20
9.56546e-21
3.37719e-21
1.04657e-21
2.86596e-22
7.03908e-23
2.01221e-23
2.28345e-23
3.13914e-23
2.62646e-23
1.47189e-23
6.04068e-24
1.92763e-24
5.32671e-25
2.22675e-25
2.63703e-25
3.84366e-25
4.34766e-25
3.24699e-25
1.45877e-25
3.75807e-26
6.86818e-27
6.54524e-21
3.24317e-21
1.2522e-21
4.27552e-22
1.27918e-22
3.37202e-23
7.96287e-24
2.34472e-24
3.10612e-24
4.28995e-24
3.44886e-24
1.83143e-24
7.06336e-25
2.1051e-25
5.46079e-26
2.30777e-26
2.8133e-26
3.94665e-26
4.16357e-26
2.83481e-26
1.13601e-26
2.55762e-27
3.79736e-28
8.97319e-22
4.18016e-22
1.54953e-22
5.10448e-23
1.47019e-23
3.71851e-24
8.41629e-25
2.60322e-25
4.0422e-25
5.57092e-25
4.28636e-25
2.14683e-25
7.73862e-26
2.14182e-26
5.20796e-27
2.27687e-27
2.88022e-27
3.8859e-27
3.82318e-27
2.37126e-27
8.43831e-28
1.64712e-28
2.35703e-29
1.17454e-22
5.141e-23
1.82869e-23
5.80452e-24
1.60648e-24
3.89117e-25
8.43061e-26
2.80313e-26
5.06187e-26
6.91737e-26
5.07997e-26
2.39262e-26
8.03323e-27
2.05667e-27
4.68805e-28
2.15613e-28
2.81864e-28
3.64342e-28
3.33858e-28
1.8851e-28
5.94016e-29
1.00121e-29
2.67518e-30
1.47362e-23
6.06047e-24
2.0609e-24
6.27324e-25
1.65865e-25
3.82074e-26
7.87594e-27
2.9263e-27
6.15925e-27
8.27936e-27
5.73941e-27
2.50593e-27
7.70298e-28
1.78906e-28
3.80487e-29
1.95089e-29
2.66804e-29
3.28829e-29
2.78244e-29
1.40243e-29
3.73004e-30
5.34877e-31
1.17746e-30
0.0194538
0.0235872
0.0204796
0.01665
6.94568e-05
5.65143e-05
4.70024e-05
4.52591e-05
0.00014803
0.000138022
0.000126082
0.000117058
0.000168444
0.000174201
0.000180922
0.00018807
0.000147119
0.00015519
0.000166477
0.000175913
7.36779e-05
7.82389e-05
8.18565e-05
8.4193e-05
2.61609e-05
2.9912e-05
3.214e-05
3.27295e-05
1.04816e-06
2.3102e-06
3.27058e-06
3.80372e-06
2.82137e-09
4.58762e-09
7.93288e-09
1.15257e-08
1.68218e-10
1.51341e-10
1.44177e-10
1.44353e-10
9.48667e-11
9.28033e-11
8.64297e-11
7.77484e-11
1.57175e-10
1.42217e-10
1.36358e-10
1.14855e-10
2.45177e-10
2.1162e-10
1.68322e-10
1.35144e-10
2.7268e-10
2.31079e-10
1.90702e-10
1.48969e-10
1.69261e-10
1.43943e-10
1.30323e-10
9.96053e-11
1.08683e-10
8.91001e-11
7.13136e-11
4.75933e-11
4.47366e-11
4.13953e-11
2.7697e-11
2.00808e-11
1.1229e-11
9.41507e-12
8.1503e-12
7.46006e-12
4.04931e-12
3.94267e-12
4.0822e-12
4.47509e-12
2.0531e-12
2.32791e-12
2.73925e-12
3.3136e-12
1.23767e-12
1.50478e-12
1.85676e-12
2.31695e-12
7.02518e-13
8.71508e-13
1.08304e-12
1.34005e-12
3.38067e-13
4.16087e-13
5.06438e-13
6.05263e-13
1.31815e-13
1.57686e-13
1.84232e-13
2.08822e-13
4.10089e-14
4.69254e-14
5.19155e-14
5.51758e-14
1.02055e-14
1.10376e-14
1.14473e-14
1.13149e-14
2.04982e-15
2.07803e-15
2.00534e-15
1.83251e-15
3.37552e-16
3.17624e-16
2.82856e-16
2.37543e-16
4.6204e-17
4.0046e-17
3.27039e-17
2.51298e-17
5.35869e-18
4.24291e-18
3.15719e-18
2.21086e-18
5.33101e-19
3.82865e-19
2.58245e-19
1.64341e-19
4.62298e-20
2.98901e-20
1.81744e-20
1.04761e-20
3.53915e-21
2.04448e-21
1.11408e-21
5.79474e-22
2.41892e-22
1.23776e-22
6.00301e-23
2.82051e-23
1.4924e-23
6.69425e-24
2.88668e-24
1.41017e-24
8.36756e-25
3.27432e-25
1.44813e-25
2.43563e-25
4.27243e-26
1.609e-26
2.23235e-26
1.61748e-25
2.12977e-27
1.79853e-27
1.20582e-26
1.15859e-25
1.59078e-28
7.1782e-28
7.22986e-27
7.60272e-26
3.75536e-29
3.65544e-28
4.08405e-27
4.71555e-26
1.59095e-29
1.92461e-28
2.53448e-27
3.5827e-26
2.59943e-29
3.78633e-28
5.48251e-27
7.63952e-26
0.00166118
4.55451e-05
5.08736e-05
3.46121e-05
4.05869e-05
0.000103783
0.000237421
0.000322385
0.000226561
0.000133965
0.000240954
0.000293755
0.000779474
0.000479648
0.000353905
0.000261866
0.000117434
7.30361e-05
8.36573e-05
4.52617e-05
4.55982e-05
4.8927e-05
7.30684e-05
0.000190724
0.000370832
0.000497994
0.000558804
0.00056006
0.000355396
0.000496407
0.000585231
0.00070943
0.000301594
0.000244943
0.000265425
0.000154401
7.27668e-05
8.91548e-05
0.000109561
0.0001044
0.000156452
0.000250741
0.000359196
0.000424158
0.000421628
0.00040605
0.000501558
0.000505179
0.000496231
0.000585025
0.000459525
0.000189159
0.000148546
0.000200056
9.95218e-05
5.39147e-05
7.74156e-05
0.000202755
0.000225236
0.000253186
0.000253215
0.000250173
0.000199407
0.000156225
0.000138848
0.000159554
0.000367239
0.000548601
0.000544403
0.000223258
0.000120307
6.79199e-05
3.82682e-05
3.39718e-05
4.48855e-05
8.20195e-05
0.000185972
0.000188807
0.000175158
0.000153835
0.000110387
8.78292e-05
7.96316e-05
7.77445e-05
7.80398e-05
8.31136e-05
0.00012486
0.00017323
0.000109702
8.31614e-05
4.67201e-05
2.44938e-05
1.63066e-05
1.77897e-05
2.20758e-05
8.7471e-05
8.91329e-05
7.9901e-05
6.32461e-05
5.56511e-05
5.38217e-05
5.38798e-05
5.34155e-05
5.34071e-05
5.36799e-05
5.24924e-05
5.74141e-05
6.65121e-05
5.16627e-05
3.42202e-05
2.19988e-05
6.84955e-06
1.33552e-06
7.24967e-07
3.38676e-05
3.53543e-05
3.53295e-05
3.12316e-05
2.46622e-05
2.26691e-05
2.23236e-05
2.23779e-05
2.19035e-05
2.31483e-05
2.75037e-05
3.12986e-05
2.85247e-05
2.15608e-05
1.01569e-05
1.33865e-06
1.86252e-08
1.83353e-09
1.54234e-09
4.3336e-06
4.85062e-06
4.89392e-06
4.75388e-06
3.29014e-06
2.56467e-06
2.23233e-06
2.25073e-06
2.12397e-06
2.41768e-06
3.56058e-06
4.92082e-06
4.49543e-06
7.49623e-07
1.91822e-08
1.72256e-09
1.62762e-09
1.51406e-09
1.50525e-09
1.68477e-08
2.28996e-08
2.43664e-08
2.08171e-08
9.15019e-09
5.78664e-09
6.37281e-09
6.88902e-09
8.84808e-09
7.51167e-09
5.70574e-09
4.66014e-09
4.09432e-09
4.00106e-09
4.02485e-09
4.25618e-09
4.00436e-09
2.21632e-09
1.72162e-09
2.09709e-10
4.10141e-10
1.16355e-09
2.84694e-09
3.71198e-09
3.12362e-09
2.66554e-09
3.35296e-09
4.63764e-09
4.98127e-09
4.90976e-09
4.75709e-09
5.14278e-09
6.06468e-09
7.10367e-09
7.09712e-09
6.5901e-09
3.58669e-09
1.84293e-09
7.32119e-11
7.27959e-11
1.66768e-10
4.48277e-10
1.41294e-09
2.15441e-09
2.59022e-09
2.69403e-09
3.16741e-09
4.71709e-09
5.63898e-09
5.60178e-09
5.525e-09
5.58655e-09
5.70872e-09
6.03061e-09
5.93341e-09
4.15341e-09
1.92888e-09
9.15428e-11
7.17918e-11
6.31686e-11
7.21776e-11
2.80483e-10
8.71959e-10
2.83646e-09
3.59341e-09
3.95625e-09
4.1656e-09
4.04942e-09
4.05417e-09
4.13762e-09
3.74866e-09
3.33071e-09
3.37208e-09
4.03601e-09
3.77855e-09
1.93606e-09
9.69682e-11
6.57182e-11
5.37355e-11
5.66983e-11
5.44932e-11
9.36502e-11
8.03062e-10
2.71486e-09
3.69968e-09
3.61043e-09
4.19055e-09
4.97675e-09
6.18083e-09
5.08869e-09
3.32882e-09
3.16894e-09
3.31749e-09
2.71754e-09
1.90053e-09
9.71668e-11
4.45439e-11
3.47795e-11
4.38327e-11
5.03039e-11
4.91291e-11
4.7094e-11
1.5378e-10
2.53837e-09
5.30563e-09
7.33401e-09
7.34338e-09
6.96222e-09
5.85841e-09
3.66917e-09
3.16864e-09
3.02194e-09
2.47858e-09
1.81726e-09
6.25634e-11
2.74479e-11
2.72553e-11
3.32155e-11
4.05176e-11
4.24426e-11
3.98634e-11
6.50302e-11
6.12889e-10
3.95218e-09
6.56535e-09
6.80746e-09
5.31472e-09
3.83439e-09
3.52804e-09
2.98559e-09
2.69097e-09
2.48402e-09
1.81503e-09
2.63883e-11
1.90474e-11
2.11754e-11
2.67111e-11
3.2837e-11
3.53513e-11
3.34282e-11
3.59469e-11
3.65821e-10
2.18814e-09
4.39917e-09
4.09893e-09
2.75284e-09
2.75552e-09
2.67028e-09
2.51729e-09
2.37201e-09
2.46844e-09
1.91653e-09
1.26338e-11
1.40312e-11
1.83839e-11
2.39204e-11
2.82407e-11
2.88289e-11
2.62495e-11
2.65851e-11
1.32969e-10
7.6573e-10
1.80506e-09
2.04241e-09
1.9815e-09
1.83868e-09
1.76324e-09
1.69233e-09
2.01284e-09
2.56568e-09
2.01526e-09
8.39694e-12
1.19002e-11
1.71285e-11
2.17683e-11
2.30953e-11
2.0911e-11
1.77112e-11
1.57164e-11
1.94007e-11
9.55767e-11
3.81477e-10
5.55943e-10
7.37644e-10
7.35608e-10
8.5832e-10
1.28999e-09
2.04592e-09
2.99823e-09
2.13637e-09
6.76625e-12
1.05429e-11
1.46373e-11
1.67531e-11
1.55629e-11
1.25021e-11
9.84981e-12
8.71015e-12
1.0448e-11
2.37344e-11
5.51706e-11
9.08629e-11
1.67351e-10
4.01658e-10
7.60432e-10
1.43394e-09
2.40881e-09
3.83879e-09
2.19437e-09
5.49392e-12
8.21841e-12
1.00453e-11
9.88216e-12
8.10094e-12
5.94933e-12
4.49402e-12
4.10305e-12
5.11124e-12
8.55211e-12
1.67094e-11
4.85651e-11
1.5105e-10
5.06567e-10
9.58848e-10
1.83102e-09
3.3704e-09
4.2387e-09
2.09026e-09
3.72422e-12
4.92782e-12
5.16881e-12
4.41015e-12
3.26072e-12
2.22946e-12
1.65109e-12
1.62743e-12
2.25003e-12
4.55936e-12
1.46978e-11
5.7685e-11
1.99159e-10
7.53195e-10
1.38644e-09
2.77049e-09
4.37486e-09
4.60984e-09
1.4214e-09
1.93204e-12
2.19848e-12
1.98627e-12
1.49307e-12
1.00635e-12
6.60784e-13
5.15933e-13
5.97149e-13
1.08034e-12
3.41602e-12
1.64638e-11
7.73815e-11
2.65441e-10
1.07395e-09
2.12139e-09
4.29095e-09
5.48236e-09
4.68735e-09
9.40011e-10
7.52971e-13
7.32293e-13
5.78774e-13
3.90375e-13
2.45683e-13
1.63664e-13
1.48827e-13
2.25045e-13
6.07375e-13
2.98666e-12
1.88465e-11
9.90298e-11
3.31824e-10
1.3549e-09
4.31099e-09
7.19598e-09
6.18549e-09
3.53456e-09
5.72432e-10
2.21629e-13
1.86264e-13
1.30204e-13
8.00668e-14
4.93041e-14
3.63631e-14
4.18529e-14
9.10056e-14
3.89244e-13
2.69682e-12
2.02358e-11
1.16465e-10
3.92306e-10
1.59528e-09
6.99144e-09
8.84871e-09
6.30056e-09
2.18102e-09
5.7503e-10
5.00834e-14
3.66167e-14
2.29236e-14
1.33142e-14
8.55827e-15
7.61961e-15
1.16249e-14
4.0547e-14
2.60127e-13
2.31755e-12
1.93409e-11
1.23377e-10
4.36933e-10
1.91739e-09
8.07889e-09
8.84782e-09
5.36002e-09
2.10076e-09
7.14875e-10
8.8145e-15
5.6594e-15
3.23816e-15
1.87656e-15
1.35644e-15
1.51046e-15
3.18397e-15
1.91391e-14
1.62658e-13
1.77303e-12
1.55727e-11
9.65052e-11
4.32782e-10
1.76373e-09
7.08262e-09
8.62323e-09
4.83238e-09
3.32049e-09
8.40483e-10
1.23045e-15
7.0333e-16
3.79671e-16
2.3261e-16
2.00006e-16
2.77384e-16
8.57853e-16
8.59647e-15
8.80035e-14
1.15184e-12
9.98781e-12
4.23364e-11
2.42098e-10
1.12766e-09
4.41633e-09
8.12983e-09
6.14842e-09
4.33718e-09
8.42141e-10
1.38284e-16
7.1477e-17
3.80019e-17
2.60799e-17
2.71825e-17
4.74069e-17
2.28181e-16
3.22926e-15
3.83581e-14
6.11603e-13
4.92181e-12
1.8812e-11
8.20861e-11
7.98583e-10
3.52202e-09
6.78171e-09
7.11442e-09
4.11194e-09
7.27612e-10
1.27827e-17
6.09946e-18
3.35086e-18
2.69293e-18
3.49679e-18
9.0342e-18
6.65052e-17
9.83283e-16
1.36947e-14
2.57508e-13
1.99945e-12
8.39462e-12
2.57675e-11
4.15459e-10
2.21012e-09
4.83713e-09
5.35792e-09
2.16734e-09
4.31802e-10
9.90889e-19
4.48141e-19
2.69091e-19
2.79107e-19
6.50497e-19
4.01505e-18
4.00671e-17
4.53208e-16
5.69394e-15
9.20979e-14
7.47852e-13
3.4822e-12
1.17238e-11
1.14358e-10
1.31146e-09
3.27609e-09
3.30107e-09
1.12504e-09
2.16112e-10
6.55633e-20
2.93072e-20
2.31053e-20
5.92622e-20
4.43764e-19
4.65888e-18
5.03089e-17
5.03309e-16
4.55278e-15
4.27524e-14
3.31756e-13
1.74269e-12
7.49494e-12
3.19077e-11
4.28224e-10
1.55383e-09
1.09913e-09
2.98344e-10
4.87758e-11
3.78393e-21
2.06867e-21
5.52917e-21
4.90553e-20
5.53587e-19
6.37222e-18
6.88484e-17
6.53079e-16
5.21368e-15
3.55445e-14
2.10596e-13
1.47702e-12
6.86046e-12
1.96715e-11
7.78837e-11
2.07182e-10
2.56952e-10
4.44984e-11
1.63255e-11
2.17978e-22
4.68921e-22
4.64196e-21
5.60577e-20
6.85675e-19
8.00791e-18
8.43505e-17
7.64219e-16
5.72727e-15
3.56104e-14
1.90995e-13
1.95784e-12
8.28617e-12
1.8546e-11
3.54282e-11
5.09449e-11
4.54427e-11
1.27722e-11
6.10068e-12
3.35195e-23
3.52894e-22
4.5962e-21
5.99851e-20
7.52373e-19
8.66356e-18
8.76844e-17
7.56924e-16
5.39078e-15
3.23788e-14
2.17379e-13
2.41461e-12
8.07178e-12
1.497e-11
2.17418e-11
2.28872e-11
1.32613e-11
5.20491e-12
2.6048e-12
2.00116e-23
2.92899e-22
4.12032e-21
5.5505e-20
6.92701e-19
7.72279e-18
7.45122e-17
6.13283e-16
4.17343e-15
2.44965e-14
1.89161e-13
1.80758e-12
5.59662e-12
9.38808e-12
1.23674e-11
1.07814e-11
4.91444e-12
2.17028e-12
1.02647e-12
1.38175e-23
2.15376e-22
3.139e-21
4.24202e-20
5.16997e-19
5.53619e-18
5.08914e-17
3.99729e-16
2.59816e-15
1.45683e-14
7.31673e-14
7.65874e-13
2.57698e-12
3.99906e-12
5.15692e-12
3.87771e-12
1.69266e-12
7.68684e-13
3.51053e-13
8.48856e-24
1.36168e-22
2.01557e-21
2.70212e-20
3.21586e-19
3.32797e-18
2.92948e-17
2.17507e-16
1.31607e-15
6.68233e-15
2.68395e-14
1.74838e-13
7.12343e-13
1.07039e-12
1.35359e-12
9.67211e-13
5.34279e-13
2.30915e-13
1.29541e-13
4.57077e-24
7.51262e-23
1.13685e-21
1.54646e-20
1.85851e-19
1.91416e-18
1.61855e-17
1.09821e-16
5.87301e-16
2.50643e-15
8.7673e-15
2.99564e-14
1.18147e-13
1.78821e-13
2.03411e-13
1.63286e-13
1.08912e-13
5.3126e-14
5.22319e-14
2.22831e-24
3.87361e-23
6.32928e-22
9.33027e-21
1.19021e-19
1.23204e-18
9.72617e-18
5.77428e-17
2.63466e-16
8.94711e-16
2.55638e-15
5.2058e-15
1.43224e-14
1.95228e-14
2.10735e-14
1.80998e-14
1.4424e-14
9.75025e-15
2.3195e-14
1.0714e-24
2.19915e-23
4.23638e-22
6.84978e-21
8.7565e-20
8.39097e-19
5.81932e-18
2.92227e-17
1.12981e-16
3.0833e-16
7.381e-16
1.17618e-15
2.15348e-15
2.46182e-15
2.57296e-15
2.35944e-15
2.34944e-15
2.22209e-15
1.02595e-14
6.97601e-25
1.80558e-23
3.59929e-22
5.23983e-21
5.65203e-20
4.49055e-19
2.61082e-18
1.09725e-17
3.68597e-17
8.58615e-17
1.84864e-16
2.61103e-16
3.95886e-16
4.32227e-16
4.52026e-16
4.27376e-16
4.87367e-16
5.23971e-16
3.47693e-15
9.21814e-25
1.71219e-23
2.37572e-22
2.46323e-21
1.94378e-20
1.18379e-19
5.69986e-19
2.05193e-18
6.19128e-18
1.28319e-17
2.55601e-17
3.36228e-17
4.72501e-17
5.00008e-17
5.13995e-17
4.87634e-17
6.11281e-17
7.13378e-17
6.12249e-16
)
;

boundaryField
{
    leftWall
    {
        type            zeroGradient;
    }
    rightWall
    {
        type            zeroGradient;
    }
    lowerWall
    {
        type            zeroGradient;
    }
    atmosphere
    {
        type            inletOutlet;
        inletValue      uniform 0;
        value           nonuniform List<scalar> 
46
(
1.47362e-23
6.06047e-24
2.0609e-24
6.27324e-25
1.65865e-25
3.82074e-26
7.87594e-27
2.9263e-27
6.15925e-27
8.27936e-27
5.73941e-27
2.50593e-27
7.70298e-28
1.78906e-28
3.80487e-29
1.95089e-29
2.66804e-29
3.28829e-29
2.78244e-29
1.40243e-29
3.73004e-30
5.34877e-31
1.17746e-30
0
0
0
0
0
0
0
0
0
0
0
0
0
0
0
0
0
0
0
0
0
0
0
)
;
    }
    defaultFaces
    {
        type            empty;
    }
}


// ************************************************************************* //
