/*--------------------------------*- C++ -*----------------------------------*\
| =========                 |                                                 |
| \\      /  F ield         | OpenFOAM: The Open Source CFD Toolbox           |
|  \\    /   O peration     | Version:  2.4.0                                 |
|   \\  /    A nd           | Web:      www.OpenFOAM.org                      |
|    \\/     M anipulation  |                                                 |
\*---------------------------------------------------------------------------*/
FoamFile
{
    version     2.0;
    format      ascii;
    class       volScalarField;
    location    "1";
    object      alpha.oil;
}
// * * * * * * * * * * * * * * * * * * * * * * * * * * * * * * * * * * * * * //

dimensions      [0 0 0 0 0 0 0];

internalField   nonuniform List<scalar> 
2268
(
5.74779e-14
3.7103e-13
1.30213e-12
3.39401e-12
7.55945e-12
1.541e-11
2.97843e-11
5.65315e-11
1.05876e-10
1.92836e-10
3.3907e-10
5.81444e-10
1.10955e-09
2.25558e-09
3.9543e-09
6.27809e-09
9.4878e-09
1.74955e-08
1.30293e-07
8.15222e-07
2.9885e-06
5.69605e-06
7.11807e-06
4.93888e-14
3.03281e-13
1.04454e-12
2.74357e-12
6.23916e-12
1.30488e-11
2.66183e-11
5.34597e-11
9.96517e-11
2.07439e-10
4.70445e-10
9.43824e-10
2.35511e-09
4.38359e-09
6.81574e-09
8.91214e-09
1.25523e-08
2.7789e-08
8.39038e-08
4.15771e-07
2.08019e-06
6.40784e-06
1.04396e-05
7.78478e-14
4.79311e-13
2.21671e-12
9.64879e-12
4.5942e-11
5.64938e-10
2.27744e-09
2.93424e-09
1.96551e-09
3.00909e-09
1.02772e-08
1.83196e-08
2.07691e-08
1.88399e-08
1.6791e-08
1.76367e-08
3.48311e-08
9.99848e-08
3.05088e-07
7.16201e-07
1.65134e-06
5.02366e-06
1.17386e-05
3.21673e-13
1.98088e-12
7.04047e-12
4.67578e-10
1.69743e-08
7.27492e-08
2.65021e-07
4.17254e-07
4.30508e-07
3.93987e-07
4.61813e-07
5.74358e-07
5.5079e-07
4.98437e-07
3.96044e-07
3.33124e-07
3.12558e-07
5.1421e-07
1.40481e-06
2.53962e-06
3.8129e-06
6.52522e-06
1.17904e-05
1.28279e-12
5.41853e-12
1.98761e-10
1.51874e-08
2.18918e-07
1.1053e-06
2.96522e-06
6.31955e-06
1.29626e-05
2.28262e-05
3.59187e-05
4.89773e-05
4.95149e-05
4.63556e-05
4.58798e-05
4.31771e-05
4.00628e-05
4.95012e-05
7.18302e-05
4.67926e-05
9.7176e-06
2.14251e-05
2.47365e-05
4.16069e-12
4.28665e-10
2.55928e-08
3.17873e-07
1.8009e-06
5.53854e-06
1.10679e-05
2.20101e-05
5.89588e-05
0.000174804
0.000392097
0.000606361
0.000713608
0.000775689
0.000902245
0.00106734
0.00119151
0.00127827
0.00142706
0.00119548
0.000988278
0.00728527
0.0173572
1.58397e-10
2.8586e-08
5.85297e-07
2.41446e-06
3.42113e-06
3.10978e-06
1.40478e-06
8.82407e-07
9.26299e-07
4.05208e-06
7.9224e-05
0.000343151
0.000680082
0.000905935
0.00123921
0.00183182
0.00249849
0.00274603
0.0029031
0.00573132
0.0277182
0.117158
0.248092
4.63866e-09
1.09731e-07
4.04668e-07
4.72189e-07
5.22351e-07
4.0586e-07
4.07445e-07
4.05371e-07
4.07427e-07
4.7814e-07
0.000105218
0.000334173
0.000490525
0.000510761
0.000537694
0.000631681
0.00224609
0.00278081
0.00278113
0.0106667
0.0997299
0.360057
0.682193
0.0893619
0.154058
0.107142
0.0727116
0.0512637
0.0331298
0.0317123
0.0316694
0.0315181
0.0314654
0.0313452
0.031319
0.0312123
0.0310874
0.0315031
0.0316582
0.0318202
0.0318675
0.031722
0.518514
0.6411
0.611448
0.511159
0.396603
0.241024
0.189599
0.188726
0.177583
0.15782
0.112462
0.0532485
0.0311467
0.0301329
0.0303385
0.0311967
0.0317306
0.0316875
0.0316231
0.650992
0.933535
0.950433
0.950667
0.862064
0.385811
0.226123
0.164188
0.138542
0.0982808
0.0596758
0.0352108
0.0312326
0.0372762
0.0306945
0.0311428
0.0315515
0.0316477
0.0315823
0.63218
0.763053
0.934558
0.986511
0.987617
0.876735
0.476967
0.243223
0.227858
0.379831
0.450074
0.40903
0.321857
0.201851
0.0570443
0.0341092
0.031817
0.0341416
0.0314007
0.872099
0.764363
0.989719
0.989731
0.987574
0.858649
0.416063
0.257956
0.243041
0.409487
0.715261
0.847689
0.863752
0.683529
0.228813
0.0374193
0.0318745
0.0429796
0.0893773
0.91909
0.941636
0.983368
0.988606
0.982189
0.860719
0.494726
0.263741
0.246224
0.329653
0.631238
0.834079
0.863571
0.847272
0.628315
0.191992
0.106547
0.198697
0.39334
0.913888
0.9586
0.975515
0.988616
0.976502
0.771597
0.388168
0.258188
0.242884
0.264908
0.566664
0.837116
0.861157
0.854552
0.749522
0.542663
0.449334
0.484062
0.52744
0.910266
0.957781
0.952778
0.986632
0.969976
0.764179
0.419123
0.262217
0.23572
0.236667
0.414116
0.769069
0.861111
0.844206
0.764389
0.583812
0.530581
0.53063
0.530641
4.40373e-09
5.17523e-08
9.94501e-08
1.54481e-07
6.53455e-07
3.74336e-06
1.24366e-05
2.84842e-05
0.000103202
0.000350955
0.000486344
0.000626183
0.000928029
0.00131918
0.00169579
0.00369101
0.00935838
0.0117955
0.0119797
0.0205908
0.121258
0.596481
0.858236
1.11909e-07
5.53513e-07
1.80688e-06
1.28195e-05
6.29908e-05
0.000118369
0.000193984
0.000375189
0.000676536
0.00308074
0.00945852
0.0119949
0.0105922
0.00839028
0.00733531
0.00790095
0.0112618
0.0190739
0.0577912
0.144117
0.316949
0.712174
0.884455
0.000109305
0.000142753
0.000248383
0.000534042
0.000805678
0.000632626
0.000718539
0.003566
0.0255513
0.0900094
0.167638
0.192902
0.156871
0.104454
0.0667337
0.0390919
0.0257033
0.0525475
0.272867
0.577087
0.793628
0.850415
0.85519
0.0094682
0.013592
0.0175426
0.0151269
0.00918613
0.0054097
0.0190218
0.107305
0.32111
0.538258
0.652818
0.648618
0.553083
0.389661
0.210145
0.105827
0.153252
0.386108
0.668667
0.812173
0.833799
0.832547
0.818758
0.293626
0.240717
0.148774
0.066886
0.0262662
0.0515515
0.259578
0.600056
0.848731
0.876783
0.829938
0.764785
0.714367
0.54534
0.412071
0.414356
0.609906
0.785448
0.857245
0.860031
0.833364
0.813026
0.799825
0.784931
0.581645
0.239296
0.116563
0.118452
0.471676
0.87517
0.922747
0.920363
0.900077
0.85315
0.82238
0.805671
0.735063
0.718116
0.794098
0.890755
0.922182
0.923206
0.922601
0.872714
0.831828
0.809745
0.870995
0.725024
0.410337
0.363902
0.597834
0.872482
0.924422
0.924421
0.924416
0.817656
0.683031
0.880199
0.915464
0.910171
0.918798
0.937846
0.943769
0.9435
0.748679
0.41827
0.297362
0.396327
0.624956
0.891738
0.781157
0.638105
0.734194
0.892953
0.92443
0.924428
0.924422
0.769645
0.260544
0.245984
0.762617
0.937872
0.94578
0.945836
0.945798
0.912417
0.488297
0.0769564
0.013565
0.00383114
0.000174652
0.00517567
0.884162
0.851078
0.835867
0.910326
0.924437
0.924444
0.808097
0.319064
0.0963245
0.0134554
0.0104896
0.0981702
0.455068
0.820157
0.89331
0.80372
0.377189
0.0433618
0.000582582
2.28936e-05
2.09058e-06
7.63957e-07
7.04424e-07
0.893977
0.913441
0.917252
0.917252
0.899087
0.351522
0.0378284
0.00747008
0.00118852
0.000135976
0.000121313
0.00359414
0.0389192
0.167323
0.252502
0.183937
0.0302404
0.000756349
1.73863e-06
1.06862e-06
6.40059e-07
4.3408e-07
3.90784e-07
0.917212
0.917252
0.917252
0.851024
0.256763
0.0107259
0.000129144
2.98249e-05
3.26216e-05
2.98775e-06
3.00836e-06
5.78388e-05
0.000804412
0.00395309
0.00736421
0.00555734
0.000444121
5.87273e-06
1.07709e-06
9.02752e-07
6.24392e-07
4.88879e-07
4.19327e-07
0.917252
0.917252
0.762035
0.198178
0.00839362
3.37448e-05
1.03414e-06
9.21544e-06
5.86052e-05
7.52683e-05
3.38264e-06
2.30807e-06
2.33976e-06
7.87669e-06
1.71083e-05
1.66742e-05
1.76654e-06
1.067e-06
9.57723e-07
1.06271e-06
1.38319e-06
9.40639e-07
6.94705e-07
0.917252
0.736358
0.136731
0.00595355
3.94723e-05
5.47994e-07
5.16788e-07
2.87419e-06
6.13156e-05
0.000184428
0.000170342
3.13643e-05
2.43889e-06
1.01324e-06
1.00129e-06
9.87562e-07
1.04431e-06
9.82163e-07
9.13684e-07
1.11566e-06
1.46791e-06
1.46821e-06
1.08861e-06
0.893358
0.172126
0.00315985
2.44167e-05
4.9273e-07
3.16668e-07
2.27229e-07
1.8967e-07
6.84645e-06
9.07455e-05
0.000201559
0.000201685
7.23893e-05
1.3165e-06
9.19809e-07
8.93031e-07
8.55908e-07
8.48012e-07
8.49433e-07
8.46315e-07
9.92793e-07
8.72813e-07
8.02567e-07
0.520266
0.00600154
9.25646e-06
4.51658e-07
1.70414e-07
1.03668e-07
8.54031e-08
6.508e-08
1.15674e-07
6.24449e-06
0.00010243
0.0001639
3.5607e-05
9.50089e-06
5.89182e-06
1.36001e-05
4.54485e-06
8.68945e-07
8.18155e-07
8.21833e-07
1.41659e-06
1.37125e-06
8.31115e-07
0.0908573
2.43338e-05
3.29951e-07
1.28777e-07
9.62631e-08
5.76239e-08
4.90963e-08
4.51081e-08
2.94209e-08
8.96373e-08
5.56598e-06
2.05441e-05
4.39775e-06
4.04188e-06
3.32791e-05
3.34428e-05
2.61733e-05
5.52027e-06
1.16895e-05
6.31014e-05
5.95468e-05
2.19261e-05
3.21323e-06
0.00442559
3.02422e-06
1.52335e-07
5.88851e-08
5.46261e-08
3.63719e-08
2.3905e-08
2.59182e-08
2.07992e-08
2.03097e-08
5.34437e-08
3.65931e-07
2.0006e-07
6.99172e-07
1.25253e-05
2.60209e-05
1.12343e-05
4.65957e-06
2.10672e-05
6.60398e-05
6.59084e-05
6.05856e-05
1.097e-05
5.42271e-05
1.14306e-06
1.12273e-07
4.88312e-08
5.18036e-08
3.74337e-08
1.56797e-08
1.3467e-08
1.50012e-08
1.37435e-08
1.28124e-08
2.57103e-08
4.53742e-08
1.55221e-07
1.03332e-06
2.80252e-06
1.06677e-06
1.17815e-06
6.73816e-06
2.69207e-05
2.11336e-05
6.16096e-06
9.24878e-07
1.51771e-07
4.13196e-07
8.51601e-08
6.12879e-08
7.18935e-08
4.55442e-08
1.48179e-08
7.25848e-09
9.79736e-09
1.13659e-08
1.09632e-08
9.40119e-09
1.65521e-08
4.53256e-08
9.82175e-08
1.58493e-07
2.14899e-07
2.70107e-07
6.78132e-07
1.11842e-06
7.01053e-07
2.40139e-07
8.43874e-08
1.61463e-08
9.71731e-08
6.71872e-08
1.29353e-07
9.34978e-08
3.92238e-08
7.79826e-09
3.57514e-09
5.0987e-09
7.24711e-09
8.66596e-09
8.13962e-09
1.46664e-08
2.3692e-08
4.85648e-08
4.64031e-08
5.85473e-08
7.89114e-08
9.6853e-08
1.17643e-07
1.32848e-07
1.15525e-07
4.37986e-08
1.61462e-08
2.79281e-08
1.07094e-07
1.29747e-07
7.39408e-08
2.49865e-08
4.50028e-09
1.51538e-09
1.76137e-09
2.51092e-09
3.49272e-09
4.55998e-09
1.06848e-08
1.41282e-08
1.51612e-08
1.97809e-08
1.98696e-08
1.8891e-08
2.18041e-08
8.63495e-08
1.12112e-07
1.15345e-07
8.60995e-08
3.73056e-08
8.78598e-08
1.42059e-07
1.1062e-07
4.25017e-08
1.19853e-08
1.67689e-09
4.55617e-10
3.28758e-10
3.88311e-10
6.20891e-10
1.1165e-09
2.40501e-09
3.82181e-09
5.71636e-09
6.00245e-09
5.49996e-09
6.78541e-09
5.42101e-08
9.68185e-08
1.18096e-07
7.61534e-08
3.29864e-08
1.34769e-07
1.4432e-07
1.43314e-07
6.38239e-08
1.699e-08
2.56585e-09
2.1947e-10
5.15101e-11
3.25788e-11
3.83416e-11
6.45319e-11
1.05484e-10
1.47718e-10
8.15096e-10
1.63088e-09
1.93832e-09
2.14962e-09
1.03141e-08
4.20118e-08
7.99588e-08
6.08057e-08
2.40821e-08
1.07226e-08
1.39656e-07
1.40362e-07
7.85445e-08
2.3114e-08
3.36278e-09
2.22781e-10
1.33195e-11
1.29196e-11
1.845e-11
2.63354e-11
3.474e-11
4.29821e-11
5.10986e-11
2.19098e-10
5.5477e-10
1.02389e-09
2.43069e-09
1.21747e-08
2.71755e-08
2.77558e-08
2.3823e-08
1.53441e-08
9.20895e-09
5.65975e-08
5.36059e-08
2.12454e-08
3.66114e-09
2.98346e-10
9.82093e-12
7.08102e-12
8.40441e-12
1.26233e-11
2.03122e-11
2.95295e-11
3.78227e-11
4.45661e-11
1.03193e-10
3.09036e-10
1.20298e-09
5.36159e-09
9.09293e-09
1.26383e-08
1.39085e-08
1.33341e-08
1.06753e-08
7.81557e-09
1.30004e-08
7.10409e-09
1.85098e-09
2.26352e-10
9.60038e-12
4.60228e-12
3.96203e-12
5.13963e-12
8.64205e-12
1.51205e-11
2.30829e-11
3.02818e-11
3.5815e-11
6.21245e-11
2.14087e-10
8.98468e-10
2.66828e-09
4.74448e-09
8.00256e-09
1.0407e-08
9.1851e-09
7.4676e-09
5.17109e-09
2.60267e-09
3.97129e-10
5.35074e-11
5.83467e-12
3.56541e-12
2.29383e-12
2.09755e-12
3.02667e-12
5.63064e-12
1.04308e-11
1.64262e-11
2.17964e-11
2.54714e-11
3.63754e-11
1.20451e-10
4.79281e-10
9.43012e-10
1.33624e-09
3.24191e-09
5.25856e-09
4.63184e-09
3.58188e-09
2.4164e-09
2.05079e-10
1.63359e-11
4.01134e-12
2.64932e-12
1.61227e-12
1.06513e-12
1.04107e-12
1.69746e-12
3.42121e-12
6.57531e-12
1.05151e-11
1.39593e-11
1.60064e-11
2.08972e-11
4.58414e-11
1.13468e-10
1.70267e-10
2.7955e-10
6.23382e-10
1.4295e-09
1.42568e-09
1.15346e-09
8.05431e-10
6.89196e-12
4.30202e-12
2.03871e-12
1.15061e-12
6.67729e-13
4.48583e-13
4.86364e-13
8.9496e-13
1.91375e-12
3.75882e-12
6.02764e-12
7.94e-12
8.95065e-12
1.07091e-11
1.77209e-11
2.19411e-11
2.48479e-11
3.85252e-11
5.37257e-11
8.7354e-11
1.58243e-10
1.58091e-10
1.28803e-10
2.46973e-12
1.54487e-12
7.91195e-13
4.3001e-13
2.45165e-13
1.73224e-13
2.14171e-13
4.38928e-13
9.78009e-13
1.94119e-12
3.09421e-12
4.02346e-12
4.48364e-12
5.17759e-12
7.8754e-12
1.05862e-11
1.32349e-11
1.76083e-11
2.1459e-11
2.01631e-11
1.69086e-11
1.53553e-11
1.27969e-11
8.58524e-13
5.0405e-13
2.65222e-13
1.41078e-13
8.08643e-14
6.21269e-14
8.86903e-14
1.98688e-13
4.54793e-13
9.04658e-13
1.42497e-12
1.82481e-12
2.02102e-12
2.36121e-12
3.7744e-12
5.50047e-12
6.94503e-12
8.17021e-12
8.76207e-12
7.95935e-12
6.78371e-12
5.48841e-12
3.99247e-12
2.69226e-13
1.52362e-13
7.9156e-14
4.13181e-14
2.43097e-14
2.08964e-14
3.43837e-14
8.26058e-14
1.92181e-13
3.80792e-13
5.90505e-13
7.44473e-13
8.23629e-13
1.00577e-12
1.74061e-12
2.65517e-12
3.30348e-12
3.56049e-12
3.4227e-12
2.93799e-12
2.28992e-12
1.61271e-12
9.96848e-13
7.65151e-14
4.20106e-14
2.12446e-14
1.09304e-14
6.74842e-15
6.62823e-15
1.24225e-14
3.14733e-14
7.3846e-14
1.4512e-13
2.21081e-13
2.74682e-13
3.05167e-13
3.97174e-13
7.36105e-13
1.14039e-12
1.37742e-12
1.38202e-12
1.21158e-12
9.52705e-13
6.62513e-13
3.99741e-13
2.10075e-13
1.9999e-14
1.0571e-14
5.16709e-15
2.63887e-15
1.74984e-15
1.9862e-15
4.16867e-15
1.0989e-14
2.58609e-14
5.02486e-14
7.51276e-14
9.21646e-14
1.03376e-13
1.4475e-13
2.81877e-13
4.33914e-13
5.02819e-13
4.71331e-13
3.79599e-13
2.70438e-13
1.66184e-13
8.53427e-14
3.79945e-14
4.83172e-15
2.43618e-15
1.14691e-15
5.87073e-16
4.27781e-16
5.61934e-16
1.29736e-15
3.52165e-15
8.28111e-15
1.58777e-14
2.32919e-14
2.82904e-14
3.22048e-14
4.85914e-14
9.76269e-14
1.46983e-13
1.61777e-13
1.41438e-13
1.04808e-13
6.74113e-14
3.64626e-14
1.58735e-14
5.94805e-15
1.0798e-15
5.16187e-16
2.33803e-16
1.21466e-16
9.92724e-17
1.49907e-16
3.74587e-16
1.03898e-15
2.43451e-15
4.60081e-15
6.62618e-15
7.99625e-15
9.28006e-15
1.50035e-14
3.05972e-14
4.45463e-14
4.62502e-14
3.76037e-14
2.55764e-14
1.48021e-14
7.02821e-15
2.5893e-15
8.08243e-16
2.23549e-16
1.00999e-16
4.40586e-17
2.35911e-17
2.19626e-17
3.76639e-17
1.00468e-16
2.83083e-16
6.59731e-16
1.22854e-15
1.73966e-15
2.09387e-15
2.4867e-15
4.26872e-15
8.72394e-15
1.21825e-14
1.18738e-14
8.95316e-15
5.57798e-15
2.89525e-15
1.20031e-15
3.74311e-16
9.53725e-17
4.30237e-17
1.83386e-17
7.71996e-18
4.33706e-18
4.64272e-18
8.91648e-18
2.51166e-17
7.15847e-17
1.65757e-16
3.04199e-16
4.24374e-16
5.11557e-16
6.22976e-16
1.12107e-15
2.27073e-15
3.02272e-15
2.75584e-15
1.92471e-15
1.09764e-15
5.10551e-16
1.84719e-16
4.8885e-17
9.95218e-18
7.73088e-18
3.10815e-18
1.26721e-18
7.61815e-19
9.39298e-19
1.99052e-18
5.86505e-18
1.68438e-17
3.87211e-17
7.00896e-17
9.66235e-17
1.17181e-16
1.46474e-16
2.72603e-16
5.42695e-16
6.86116e-16
5.84168e-16
3.77513e-16
1.96634e-16
8.17796e-17
2.57759e-17
5.77553e-18
9.24512e-19
1.30375e-18
4.94251e-19
1.95853e-19
1.28566e-19
1.82008e-19
4.20684e-19
1.28881e-18
3.72257e-18
8.49514e-18
1.51801e-17
2.07281e-17
2.53847e-17
3.25749e-17
6.21248e-17
1.20746e-16
1.43969e-16
1.13754e-16
6.77053e-17
3.20686e-17
1.18485e-17
3.21774e-18
6.00417e-19
7.33139e-20
2.07507e-19
7.43034e-20
2.88024e-20
2.10639e-20
3.39236e-20
8.46018e-20
2.6797e-19
7.76945e-19
1.7601e-18
3.108e-18
4.21527e-18
5.22743e-18
6.8666e-18
1.32407e-17
2.49226e-17
2.78836e-17
2.0363e-17
1.11217e-17
4.76675e-18
1.55253e-18
3.59025e-19
5.46206e-20
4.97215e-21
3.1336e-20
1.06053e-20
4.04411e-21
3.36828e-21
6.12051e-21
1.63655e-20
5.34507e-20
1.55459e-19
3.49562e-19
6.10085e-19
8.22479e-19
1.03476e-18
1.38788e-18
2.68898e-18
4.86465e-18
5.02145e-18
3.31684e-18
1.62728e-18
6.1398e-19
1.68302e-19
3.05551e-20
3.25278e-21
1.5569e-22
0.840082
0.828825
0.827294
0.833559
0.893729
0.896418
0.908195
0.920112
0.85483
0.86479
0.878483
0.889677
0.817207
0.817304
0.817775
0.817259
0.794909
0.79256
0.786218
0.777122
0.801146
0.794849
0.78846
0.783331
0.735271
0.780764
0.79499
0.795151
0.0326383
0.126472
0.254663
0.298391
7.19418e-07
3.13999e-06
3.46158e-05
0.000137334
3.8921e-07
4.17173e-07
3.65962e-07
3.65305e-07
3.84188e-07
3.84294e-07
3.9759e-07
5.21282e-07
3.84281e-07
3.84188e-07
4.10319e-07
1.61773e-06
5.39571e-07
4.06329e-07
5.36456e-07
1.01551e-06
5.09952e-07
4.375e-07
5.75777e-07
1.32302e-06
3.01997e-07
2.58724e-07
4.79508e-07
1.21251e-06
2.37525e-07
2.37755e-07
5.25473e-07
1.13767e-06
2.50821e-07
3.37446e-07
1.27987e-06
2.93921e-06
1.42742e-07
1.46663e-07
2.73038e-07
2.6939e-07
4.25686e-08
3.91186e-08
3.47535e-08
2.34717e-08
2.02536e-08
1.94123e-08
1.97886e-08
1.33824e-08
2.41336e-08
2.15624e-08
1.4115e-08
1.10578e-08
1.58045e-08
1.3247e-08
1.40576e-08
1.09612e-08
6.76463e-09
8.03435e-09
6.86186e-09
5.77642e-09
6.56166e-09
5.69925e-09
5.24484e-09
5.5345e-09
6.27513e-09
4.66733e-09
4.08627e-09
3.47179e-09
3.73336e-09
3.02126e-09
2.41473e-09
1.86852e-09
1.93974e-09
1.43681e-09
1.09076e-09
7.93869e-10
6.26174e-10
4.71105e-10
3.46712e-10
2.4581e-10
1.02413e-10
8.22959e-11
6.00202e-11
4.4197e-11
1.15424e-11
1.00899e-11
8.31475e-12
6.37997e-12
3.22641e-12
2.47989e-12
1.79745e-12
1.22319e-12
7.26207e-13
5.00267e-13
3.2436e-13
1.97628e-13
1.37483e-13
8.46916e-14
4.89933e-14
2.6614e-14
2.21472e-14
1.20964e-14
6.18844e-15
2.96926e-15
3.05045e-15
1.45935e-15
6.52369e-16
2.73387e-16
3.59346e-16
1.48453e-16
5.71942e-17
2.08251e-17
3.60486e-17
1.26313e-17
4.13719e-18
1.44893e-18
3.12039e-18
9.04525e-19
2.57742e-19
2.10297e-19
2.34675e-19
5.52676e-20
2.14106e-20
1.04619e-19
1.44199e-20
3.04633e-21
6.1482e-21
6.53918e-20
7.00084e-22
3.6177e-22
3.68996e-21
5.21516e-20
4.56506e-23
5.75857e-22
8.38649e-21
1.18339e-19
0.909058
0.9566
0.952854
0.983189
0.910373
0.635092
0.343019
0.245633
0.232881
0.234859
0.28497
0.55899
0.783009
0.836139
0.829265
0.713557
0.629674
0.558617
0.530743
0.933526
0.941556
0.937128
0.93333
0.758756
0.500429
0.321798
0.254659
0.23294
0.232833
0.250232
0.358884
0.607796
0.809783
0.841363
0.841514
0.764185
0.684914
0.645831
0.897234
0.895993
0.860829
0.757905
0.596246
0.473054
0.432882
0.422958
0.384462
0.290055
0.25021
0.286661
0.446066
0.705098
0.840629
0.837587
0.795265
0.764135
0.760498
0.807581
0.787178
0.728833
0.664221
0.637664
0.635308
0.645733
0.652132
0.629801
0.525861
0.365734
0.305794
0.432997
0.640543
0.79644
0.788085
0.78852
0.788374
0.788228
0.758948
0.737759
0.725035
0.722834
0.724992
0.729396
0.73058
0.727226
0.709725
0.65681
0.55226
0.450846
0.488671
0.673995
0.753777
0.782655
0.788374
0.788228
0.788082
0.776705
0.772551
0.772292
0.77336
0.772391
0.767643
0.761893
0.757163
0.749641
0.729667
0.691262
0.648273
0.633957
0.720305
0.776926
0.777201
0.547437
0.315976
0.230637
0.795038
0.795201
0.795055
0.795186
0.787351
0.767603
0.752318
0.749727
0.739655
0.744178
0.758504
0.761505
0.761579
0.730879
0.555042
0.135137
0.000626078
1.76782e-05
1.88314e-06
0.30192
0.331327
0.337397
0.317853
0.209837
0.147872
0.121017
0.121675
0.117999
0.135916
0.197613
0.28124
0.265814
0.051044
3.26861e-05
1.591e-06
6.55513e-07
8.43928e-07
1.02232e-06
0.000329189
0.000483721
0.000482536
0.000307506
2.2258e-05
1.69531e-06
1.48021e-06
7.13759e-07
9.92672e-07
9.91724e-07
9.78278e-07
9.21215e-07
9.95979e-07
7.31799e-07
4.87625e-07
7.43203e-07
6.50258e-07
6.84047e-07
1.06809e-06
3.27172e-07
3.18182e-07
3.39168e-07
6.35006e-07
8.31518e-07
4.80976e-07
3.72856e-07
4.11202e-07
9.88821e-07
9.59749e-07
7.88042e-07
7.9149e-07
8.48508e-07
6.84321e-07
4.9035e-07
3.78307e-07
4.32596e-07
8.70476e-07
2.2812e-06
4.27884e-07
4.14825e-07
2.71725e-07
2.67412e-07
2.67839e-07
3.10664e-07
4.09532e-07
5.22435e-07
8.12039e-07
1.34063e-06
1.52482e-06
1.32368e-06
1.17012e-06
8.13819e-07
5.82441e-07
3.72408e-07
3.51539e-07
1.03952e-06
6.56599e-06
4.77703e-06
4.53897e-06
9.49439e-07
6.18478e-07
5.18748e-07
3.29117e-07
4.56757e-07
1.17981e-06
1.66831e-06
1.93714e-06
2.09074e-06
2.08997e-06
2.09063e-06
1.93389e-06
1.30948e-06
6.12691e-07
2.82052e-07
9.8592e-07
6.56599e-06
1.48478e-05
1.85309e-05
5.31544e-06
3.0513e-06
2.37086e-06
6.84189e-07
2.76928e-07
3.63331e-07
6.81954e-07
9.28901e-07
1.02158e-06
1.72637e-06
2.08994e-06
2.09027e-06
2.08766e-06
9.51897e-07
2.83146e-07
1.30363e-06
6.56599e-06
1.86109e-05
1.8631e-05
1.12422e-05
6.88384e-06
6.7319e-06
2.47723e-06
4.1148e-07
1.50895e-07
1.27499e-07
2.49588e-07
6.08386e-07
8.03637e-07
1.90936e-06
2.08994e-06
1.93326e-06
6.64084e-07
2.75829e-07
2.86065e-06
6.56599e-06
1.80601e-05
1.35183e-05
2.94686e-06
7.14899e-06
7.20674e-06
4.95094e-06
7.81449e-07
2.79796e-07
1.10575e-07
1.24065e-07
2.5426e-07
4.58121e-07
7.09856e-07
1.71803e-06
1.26749e-06
2.84425e-07
2.40081e-07
3.48746e-06
2.82191e-06
1.11356e-05
3.45154e-06
7.77048e-07
2.71064e-06
7.20697e-06
2.75745e-06
8.87221e-07
2.59024e-07
1.11055e-07
1.01311e-07
1.74923e-07
2.42277e-07
2.73452e-07
6.31831e-07
2.98507e-07
1.1558e-07
1.68511e-07
3.35814e-06
1.22913e-06
2.03595e-06
5.21327e-07
5.09394e-07
9.92163e-07
1.69579e-06
1.19108e-06
4.31482e-07
1.54942e-07
9.50693e-08
8.44736e-08
1.32826e-07
1.72883e-07
1.37947e-07
8.12004e-08
6.71201e-08
4.52539e-08
1.219e-07
1.60656e-06
1.0783e-06
1.65993e-07
1.67631e-07
3.85095e-07
4.28072e-07
5.75917e-07
4.8195e-07
2.55385e-07
1.16395e-07
6.96574e-08
5.07508e-08
5.25365e-08
3.70672e-08
2.50185e-08
1.72735e-08
1.86162e-08
3.82823e-08
1.35679e-07
4.93987e-07
1.17368e-06
2.97409e-08
1.14954e-07
1.81751e-07
1.84227e-07
1.96581e-07
1.74568e-07
1.33701e-07
7.76635e-08
4.12237e-08
2.65039e-08
9.47908e-09
3.29807e-09
4.40991e-09
1.73791e-08
3.08756e-08
6.86906e-08
1.59635e-07
5.87161e-07
1.11361e-06
2.29351e-08
1.20627e-07
1.41887e-07
1.21913e-07
9.9434e-08
7.52643e-08
4.9259e-08
2.76486e-08
1.40433e-08
4.65576e-09
1.76576e-09
2.18139e-09
6.3294e-09
4.65132e-08
5.57794e-08
9.80514e-08
2.78716e-07
6.10372e-07
1.2109e-06
1.92889e-08
8.84752e-08
8.77481e-08
6.54909e-08
4.36422e-08
2.5322e-08
1.30157e-08
6.14948e-09
2.68973e-09
1.21819e-09
1.21768e-09
3.68804e-09
1.10967e-08
9.26698e-08
1.39053e-07
2.05043e-07
4.1958e-07
8.66658e-07
1.20484e-06
1.68009e-08
4.10316e-08
3.51595e-08
2.36686e-08
1.35343e-08
6.68729e-09
2.95326e-09
1.23614e-09
5.33482e-10
3.72076e-10
1.36287e-09
5.69589e-09
1.60506e-08
1.56647e-07
4.75115e-07
4.76937e-07
6.93146e-07
9.40009e-07
1.21213e-06
1.11717e-08
1.45552e-08
1.06495e-08
6.17191e-09
3.0206e-09
1.28517e-09
5.0168e-10
1.99243e-10
1.23359e-10
3.15486e-10
1.75113e-09
8.3648e-09
2.22069e-08
2.02679e-07
5.74941e-06
1.8691e-06
9.52249e-07
1.49956e-06
1.14672e-06
5.17223e-09
3.83007e-09
2.34026e-09
1.20642e-09
5.46031e-10
2.21215e-10
8.60538e-11
4.47491e-11
7.41741e-11
3.57219e-10
2.34073e-09
1.17984e-08
3.03952e-08
2.28134e-07
1.78223e-05
7.79467e-06
1.34021e-06
1.7062e-06
4.20947e-06
2.23162e-09
1.28674e-09
6.65079e-10
3.06476e-10
1.28175e-10
5.035e-11
2.16443e-11
2.33473e-11
8.29612e-11
4.92621e-10
3.22673e-09
1.58451e-08
4.08711e-08
3.06445e-07
1.80393e-05
2.32319e-05
2.64943e-06
1.08461e-05
9.35085e-06
1.02507e-09
5.11416e-10
2.32846e-10
9.71169e-11
3.72465e-11
1.41303e-11
8.99933e-12
2.41855e-11
1.22255e-10
7.61812e-10
4.54135e-09
2.0796e-08
5.29657e-08
3.42024e-07
4.69324e-06
3.33784e-05
1.63704e-05
2.53005e-05
3.55778e-06
3.94032e-10
1.78484e-10
7.37902e-11
2.80367e-11
9.9159e-12
4.12079e-12
7.07417e-12
3.39767e-11
2.02078e-10
1.2419e-09
6.55532e-09
2.79057e-08
6.57353e-08
3.13381e-07
1.49328e-06
3.35037e-05
3.35028e-05
2.2524e-05
1.51958e-06
1.1432e-10
4.7841e-11
1.81462e-11
6.30198e-12
2.17008e-12
1.84345e-12
8.94868e-12
5.17966e-11
3.38748e-10
2.03965e-09
9.75929e-09
3.9025e-08
8.10224e-08
2.87652e-07
1.02074e-06
1.03349e-05
3.17494e-05
3.04649e-06
9.35593e-07
2.10162e-11
8.58274e-12
3.10799e-12
1.03543e-12
5.1432e-13
1.81125e-12
1.28317e-11
7.89546e-11
5.47252e-10
3.28018e-09
1.46514e-08
5.6725e-08
1.03366e-07
3.49933e-07
8.77911e-07
1.44507e-06
2.24302e-06
1.52021e-06
6.94972e-07
3.07145e-12
1.23506e-12
4.30756e-13
1.61811e-13
3.14027e-13
2.40416e-12
1.82852e-11
1.16488e-10
8.37715e-10
5.01086e-09
2.14458e-08
8.39852e-08
1.48954e-07
5.00911e-07
8.24501e-07
1.21369e-06
1.46481e-06
1.08815e-06
5.9091e-07
5.00639e-13
1.75764e-13
5.75073e-14
5.19542e-14
3.62177e-13
3.24145e-12
2.48618e-11
1.62761e-10
1.2011e-09
7.17293e-09
2.98055e-08
1.21763e-07
3.58598e-07
7.24896e-07
9.16819e-07
1.11903e-06
1.23656e-06
9.50282e-07
3.30523e-07
6.91881e-14
2.13689e-14
9.75281e-15
4.51405e-14
4.48114e-13
4.14227e-12
3.13479e-11
2.12002e-10
1.5839e-09
9.51236e-09
3.87659e-08
1.69799e-07
6.39397e-07
1.01492e-06
1.34911e-06
1.51065e-06
1.13801e-06
4.98284e-07
2.3167e-07
7.96709e-15
2.43886e-15
4.79765e-15
4.93106e-14
5.24453e-13
4.8562e-12
3.54825e-11
2.53613e-10
1.8946e-09
1.13984e-08
4.69148e-08
2.41396e-07
8.70743e-07
2.15787e-06
2.43461e-06
2.37058e-06
8.37891e-07
3.34938e-07
5.70281e-08
7.74303e-16
5.06168e-16
4.34609e-15
5.15975e-14
5.57506e-13
5.04911e-12
3.49898e-11
2.74259e-10
2.01012e-09
1.16229e-08
5.23924e-08
2.91882e-07
8.166e-07
1.59482e-06
2.32792e-06
1.60947e-06
5.43143e-07
8.06604e-08
2.83996e-08
7.81562e-17
3.08479e-16
3.97004e-15
4.83236e-14
5.16095e-13
4.50437e-12
2.94134e-11
2.41286e-10
1.42538e-09
5.75162e-09
2.81113e-08
2.13492e-07
5.61012e-07
7.45916e-07
1.21561e-06
5.78292e-07
2.33335e-07
3.98112e-08
6.46114e-09
1.89457e-17
2.33202e-16
3.17332e-15
3.86046e-14
4.03706e-13
3.41691e-12
2.16339e-11
1.53365e-10
8.08004e-10
2.52878e-09
6.824e-09
9.00347e-08
2.99914e-07
3.63075e-07
4.04093e-07
2.71637e-07
1.24433e-07
1.80611e-08
4.15885e-09
1.02846e-17
1.56172e-16
2.15815e-15
2.62766e-14
2.74754e-13
2.35527e-12
1.56827e-11
1.20712e-10
5.80553e-10
1.69313e-09
2.45427e-09
1.55601e-08
1.08377e-07
1.29664e-07
1.47001e-07
1.00243e-07
5.33609e-08
1.54947e-08
3.66849e-09
5.75315e-18
9.0627e-17
1.2926e-15
1.64531e-14
1.84106e-13
1.72611e-12
1.27157e-11
9.70707e-11
4.42426e-10
1.14774e-09
1.13423e-09
1.56866e-09
2.33797e-08
3.21701e-08
3.54507e-08
2.77872e-08
1.83642e-08
6.75926e-09
3.39547e-09
2.90846e-18
4.88472e-17
7.77157e-16
1.13651e-14
1.45334e-13
1.49405e-12
1.14968e-11
7.25683e-11
2.56083e-10
4.60382e-10
4.07803e-10
2.47348e-10
1.84262e-09
5.23493e-09
6.66022e-09
5.76988e-09
4.56448e-09
3.67822e-09
2.4313e-09
1.45185e-18
2.99079e-17
5.91247e-16
9.86253e-15
1.29178e-13
1.25481e-12
8.70793e-12
4.25632e-11
7.26995e-11
1.01587e-10
1.10022e-10
5.79221e-11
1.4961e-10
6.8287e-10
1.06925e-09
1.13337e-09
1.34687e-09
1.53618e-09
1.30461e-09
1.02706e-18
2.75639e-17
5.66155e-16
8.42775e-15
9.22496e-14
7.38839e-13
4.25984e-12
1.48571e-11
1.5597e-11
1.28158e-11
1.09264e-11
9.80179e-12
1.61159e-11
5.43836e-11
1.12772e-10
1.88262e-10
3.43798e-10
4.85683e-10
4.66196e-10
1.45682e-18
2.77003e-17
3.92751e-16
4.14928e-15
3.32167e-14
2.03476e-13
9.52373e-13
1.67278e-12
1.43626e-12
8.58267e-13
6.50487e-13
5.45536e-13
4.75962e-13
4.79314e-13
3.02108e-12
1.31714e-11
5.07302e-11
8.12388e-11
9.11115e-11
)
;

boundaryField
{
    leftWall
    {
        type            zeroGradient;
    }
    rightWall
    {
        type            zeroGradient;
    }
    lowerWall
    {
        type            zeroGradient;
    }
    atmosphere
    {
        type            inletOutlet;
        inletValue      uniform 0;
        value           nonuniform List<scalar> 
46
(
3.1336e-20
1.06053e-20
4.04411e-21
3.36828e-21
6.12051e-21
1.63655e-20
5.34507e-20
1.55459e-19
3.49562e-19
6.10085e-19
8.22479e-19
1.03476e-18
1.38788e-18
2.68898e-18
4.86465e-18
5.02145e-18
3.31684e-18
1.62728e-18
6.1398e-19
1.68302e-19
3.05551e-20
3.25278e-21
1.5569e-22
0
0
0
0
0
0
0
0
0
0
0
0
0
0
0
0
0
0
0
0
0
0
0
)
;
    }
    defaultFaces
    {
        type            empty;
    }
}


// ************************************************************************* //
