/*--------------------------------*- C++ -*----------------------------------*\
| =========                 |                                                 |
| \\      /  F ield         | OpenFOAM: The Open Source CFD Toolbox           |
|  \\    /   O peration     | Version:  2.4.0                                 |
|   \\  /    A nd           | Web:      www.OpenFOAM.org                      |
|    \\/     M anipulation  |                                                 |
\*---------------------------------------------------------------------------*/
FoamFile
{
    version     2.0;
    format      ascii;
    class       volScalarField;
    location    "1";
    object      alpha.air;
}
// * * * * * * * * * * * * * * * * * * * * * * * * * * * * * * * * * * * * * //

dimensions      [0 0 0 0 0 0 0];

internalField   nonuniform List<scalar> 
2268
(
9.36064e-12
7.35424e-12
5.19452e-12
4.05293e-12
3.11718e-12
2.57608e-12
2.22468e-12
1.65675e-12
1.03465e-12
6.30544e-13
4.70076e-13
3.94555e-13
2.92144e-13
1.83936e-13
1.09545e-13
8.2733e-14
9.81605e-14
1.54616e-13
2.55768e-13
3.10969e-13
1.67609e-13
8.92455e-14
2.67545e-13
2.39694e-11
2.33491e-11
2.06281e-11
1.82906e-11
1.47841e-11
1.21864e-11
1.08002e-11
8.35725e-12
5.5286e-12
3.58577e-12
2.59581e-12
1.98781e-12
1.42176e-12
9.65198e-13
7.10029e-13
7.94812e-13
1.04256e-12
1.29316e-12
2.21673e-12
4.36761e-12
6.33268e-12
3.65571e-12
1.88101e-12
4.66847e-11
4.40091e-11
3.53025e-11
3.00894e-11
2.75407e-11
2.81585e-11
2.84647e-11
2.37212e-11
1.68329e-11
1.14307e-11
8.2988e-12
6.33192e-12
4.58155e-12
4.86748e-12
5.35189e-12
9.43547e-12
9.92319e-12
6.45017e-12
1.12483e-11
7.3182e-11
1.43735e-10
8.35838e-11
1.2488e-11
7.49297e-11
7.03405e-11
6.55074e-11
6.48956e-11
6.5695e-11
6.61475e-11
6.04207e-11
5.37381e-11
4.60687e-11
3.67402e-11
3.2208e-11
2.70888e-11
2.01857e-11
5.98837e-11
3.78619e-10
9.18879e-10
8.55234e-10
3.12258e-11
3.17991e-09
5.62473e-08
1.4464e-07
6.54875e-08
1.35641e-08
1.14754e-10
1.10423e-10
1.05558e-10
1.04046e-10
1.22666e-10
1.64835e-10
2.93482e-10
4.34656e-10
8.44367e-10
1.74592e-09
2.73737e-09
2.43183e-09
1.98973e-10
6.95378e-09
5.06658e-08
1.10583e-07
1.02335e-07
5.1675e-09
1.23917e-07
2.27588e-06
1.22897e-05
1.31326e-05
3.04638e-06
1.50585e-10
1.38214e-10
1.29859e-10
2.20858e-10
5.87268e-10
1.16749e-09
1.55918e-09
1.77011e-09
4.24756e-09
1.34699e-08
2.11717e-08
2.11831e-08
8.22479e-09
5.63126e-08
4.00463e-07
6.3872e-07
6.38329e-07
1.25506e-07
7.09556e-07
8.7643e-06
0.000145671
0.000895307
0.000655107
1.74826e-10
1.87351e-10
5.42978e-10
9.68263e-10
9.67319e-10
7.55131e-10
2.73467e-10
2.03662e-10
2.04531e-10
2.03818e-10
2.58233e-09
1.74489e-08
3.55936e-08
3.55728e-08
1.07431e-07
4.13557e-07
6.38714e-07
4.40462e-07
5.50203e-07
3.69873e-06
0.000109438
0.00177352
0.0028444
2.07919e-10
3.10066e-10
4.56438e-10
2.43924e-10
2.03399e-10
1.58273e-10
1.58299e-10
2.04712e-10
7.80222e-10
2.09227e-10
3.05234e-09
9.60943e-09
6.06299e-08
1.14009e-07
1.03124e-07
1.03132e-07
4.53969e-07
9.72845e-07
5.53823e-07
6.18974e-06
0.000104224
0.000464441
0.00243131
0.00206296
0.00379935
0.00111755
0.000595424
0.000410789
9.95442e-05
3.3693e-05
3.10279e-05
2.55354e-05
1.352e-05
1.18524e-05
1.18524e-05
1.18524e-05
3.95067e-05
1.42128e-05
4.71696e-06
5.20115e-05
1.01847e-05
1.01847e-05
0.122645
0.0599425
0.0314163
0.00517382
0.000118404
3.36986e-05
3.36979e-05
3.55134e-05
0.000355652
0.000933643
0.000327238
0.0001426
0.00012237
0.000232126
8.40411e-05
6.99908e-06
3.26151e-05
2.39309e-05
1.01847e-05
0.271148
0.00985485
0.00137904
6.14834e-05
3.37044e-05
3.3701e-05
3.37035e-05
3.92449e-05
0.000331543
0.00137975
0.000928342
7.29678e-05
7.22729e-05
2.11765e-05
2.09975e-05
1.15779e-05
1.21861e-05
2.40865e-05
1.01896e-05
0.327289
0.212604
0.0562276
0.00437247
0.00120696
9.18095e-05
3.70425e-05
0.000323301
0.00221436
0.00304614
0.00304619
0.00200527
0.000287701
0.000193847
7.21196e-05
1.57694e-05
1.01882e-05
1.01906e-05
1.45789e-05
0.0574955
0.212441
0.000233585
0.000142591
3.16416e-05
3.15145e-05
3.13886e-05
0.000102596
0.00132731
0.00304622
0.00281708
0.000192463
0.000418044
0.00146439
0.00147265
4.9143e-05
1.01855e-05
2.41163e-05
0.000224878
0.00125544
0.0211145
0.00727515
0.00313494
0.000777288
5.49437e-05
2.63534e-05
4.27393e-05
0.000482088
0.00304617
0.000983963
0.000116128
0.000116181
0.000995502
0.00323228
0.00160167
0.000330425
0.000433048
0.000544276
0.000837478
0.00847299
0.0143585
0.00163649
7.35972e-05
3.28939e-05
2.61183e-05
2.61182e-05
5.99662e-05
0.00213464
0.002131
0.000210874
0.000143422
0.000746968
0.0032316
0.00323228
0.00253602
0.000584307
0.000309768
0.000833179
0.00560078
0.020433
0.00367575
0.00027601
2.6111e-05
2.61109e-05
2.61183e-05
2.61181e-05
0.00028737
0.00156574
0.000161599
0.000158538
0.000925729
0.00306954
0.000905458
5.23683e-05
5.23722e-05
5.23817e-05
2.01743e-10
1.8302e-10
1.35049e-10
1.34842e-10
1.37406e-10
2.87527e-10
4.67711e-10
8.42775e-10
1.53929e-08
1.99414e-08
1.09678e-08
9.85587e-09
1.93452e-08
1.04041e-07
3.59621e-07
5.61195e-07
1.31906e-06
1.9409e-06
1.55912e-06
8.75678e-05
0.00244457
0.0043531
0.00349482
1.54941e-10
1.54911e-10
5.01323e-10
1.44759e-09
6.90952e-09
1.13105e-08
6.07186e-09
3.74771e-09
3.74747e-08
1.14548e-07
1.20643e-07
1.89298e-07
1.48823e-07
1.60268e-07
2.39291e-07
4.90301e-07
1.17555e-06
2.22364e-06
5.25954e-06
0.000145603
0.00132279
0.00200174
0.00114943
3.73035e-10
1.5417e-09
9.13045e-09
3.06589e-08
7.93071e-08
6.8102e-08
1.99544e-08
1.17602e-08
2.49256e-07
3.92558e-06
5.55209e-06
6.41518e-06
4.21166e-06
4.40595e-06
1.18837e-06
9.28653e-07
1.83477e-06
8.22854e-06
0.000520194
0.00188486
0.00188374
0.000958238
6.18256e-05
3.32874e-08
6.21058e-08
1.23704e-07
2.6101e-07
2.60989e-07
1.76281e-07
3.75637e-08
2.04842e-07
6.30753e-06
9.20766e-05
0.000763539
0.00027766
5.28414e-05
6.13645e-05
1.63593e-05
9.06042e-06
1.57229e-05
8.40336e-05
0.000715152
0.0011386
0.000328104
6.3453e-05
6.19241e-05
3.86333e-07
7.77446e-07
8.34371e-07
5.13857e-07
9.11679e-08
5.53807e-08
1.52233e-07
5.16809e-06
9.76694e-05
0.00330978
0.0312077
0.0342664
0.000285627
4.0803e-05
1.76567e-05
9.12957e-06
1.94716e-05
0.000148278
0.000341154
0.000117956
6.39111e-05
6.21073e-05
6.20178e-05
1.34082e-06
6.17145e-07
3.011e-07
2.44338e-07
9.36614e-08
5.52982e-08
1.08006e-06
0.000161316
0.0046797
0.0282221
0.0518213
0.0321403
0.000309937
1.25658e-05
1.2482e-05
1.24002e-05
4.59828e-05
0.000187562
0.000396806
0.000940104
0.00614122
0.0152089
0.0106486
1.88707e-06
7.02003e-07
1.28365e-06
2.58567e-06
1.19186e-06
1.35333e-07
7.65796e-05
0.00601959
0.0446395
0.162874
0.275766
0.0464506
0.000215109
1.2651e-05
2.39207e-05
0.000301181
0.00406211
0.0211923
0.224613
0.563869
0.68681
0.584074
0.325868
0.00292984
0.000750724
3.11656e-05
3.93264e-06
6.51297e-05
0.00316761
0.0295849
0.0554799
0.225745
0.737726
0.744455
0.204678
0.014011
0.00180473
0.00243217
0.0156723
0.0684557
0.506755
0.92209
0.986172
0.996103
0.999825
0.994747
0.0661786
0.00116406
3.13116e-05
0.00019575
0.00912828
0.0568316
0.189753
0.680089
0.903527
0.986511
0.989215
0.899726
0.534878
0.160406
0.0853807
0.184333
0.620341
0.956534
0.999416
0.999978
0.999999
1
1
0.0459628
0.000452859
0.000250815
0.0126456
0.0833106
0.647449
0.962163
0.992529
0.998812
0.999865
0.999879
0.996387
0.9608
0.831472
0.745722
0.815182
0.969696
0.999244
0.999999
1
1
1
1
0.0102358
0.00128472
0.0169874
0.124526
0.741925
0.989268
0.999872
0.999972
0.999969
0.999998
0.999998
0.999944
0.999196
0.996042
0.992624
0.994436
0.999556
0.999995
1
1
1
1
1
0.0165801
0.0266419
0.21553
0.799884
0.991591
0.999967
1
0.999992
0.999943
0.999926
0.999998
0.999999
0.999999
0.999993
0.999984
0.999984
0.999999
1
1
1
0.999999
1
1
0.039906
0.248762
0.861745
0.994024
0.999961
1
1
0.999998
0.999939
0.999816
0.999831
0.99997
0.999999
1
1
1
1
1
1
1
0.999999
1
1
0.0907109
0.82702
0.996827
0.999976
1
1
1
1
0.999993
0.99991
0.999799
0.999799
0.999929
1
1
1
1
1
1
1
1
1
1
0.477345
0.993994
0.999992
1
1
1
1
1
1
0.999994
0.999898
0.999836
0.999965
0.999991
0.999995
0.999987
0.999996
1
1
1
0.999999
0.999999
0.999999
0.909059
0.999979
1
1
0.999999
0.999999
1
1
1
1
0.999994
0.999979
0.999996
0.999996
0.999967
0.999967
0.999974
0.999995
0.999989
0.999937
0.99994
0.999978
0.999996
0.995572
0.999999
0.999999
0.999999
0.999999
0.999999
0.999999
1
1
1
1
0.999999
1
0.999999
0.999988
0.999974
0.999989
0.999996
0.999979
0.999934
0.999934
0.999939
0.999989
0.999944
0.999999
0.999999
0.999999
0.999999
0.999999
0.999999
0.999999
1
1
1
1
1
1
0.999999
0.999997
0.999999
0.999999
0.999993
0.999973
0.999979
0.999994
0.999999
0.999998
0.999998
0.999999
0.999999
0.999999
0.999999
0.999999
0.999999
0.999999
1
1
1
1
1
1
1
1
1
0.999999
0.999999
0.999999
1
1
0.999998
0.999999
0.999999
0.999999
0.999999
0.999999
0.999999
0.999999
1
1
1
1
1
1
1
1
1
1
1
1
1
1
1
0.999999
0.999999
0.999999
0.999999
0.999999
0.999999
0.999999
0.999999
1
1
1
1
1
1
1
1
1
1
1
1
1
1
1
0.999999
0.999999
0.999999
0.999999
0.999999
0.999999
0.999999
0.999999
1
1
1
1
1
1
1
1
1
1
1
1
1
1
1
0.999999
0.999999
0.999999
0.999999
0.999999
0.999999
0.999999
1
1
1
1
1
1
1
1
1
1
1
1
1
1
1
1
0.999999
0.999999
0.999999
0.999999
0.999999
0.999999
0.999999
1
1
1
1
1
1
1
1
1
1
1
1
1
1
1
1
0.999999
0.999999
0.999999
0.999999
0.999999
0.999999
1
1
1
1
1
1
1
1
1
1
1
1
1
1
1
1
0.999999
0.999999
0.999999
0.999999
0.999999
0.999999
1
1
1
1
1
1
1
1
1
1
1
1
1
1
1
0.999999
0.999999
0.999999
0.999999
0.999999
0.999999
0.999999
0.999999
1
1
1
1
1
1
1
1
1
1
1
1
1
1
1
0.999999
0.999999
0.999999
0.999999
0.999999
0.999999
0.999999
1
1
1
1
1
1
1
1
1
1
1
1
1
1
1
1
1
0.999999
0.999999
0.999999
0.999999
0.999999
1
1
1
1
1
1
1
1
1
1
1
1
1
1
1
1
1
1
0.999999
0.999999
0.999999
0.999999
1
1
1
1
1
1
1
1
1
1
1
1
1
1
1
1
1
1
1
0.999999
0.999999
0.999999
0.999999
1
1
1
1
1
1
1
1
1
1
1
1
1
1
1
1
1
1
1
1
0.999999
0.999999
1
1
1
1
1
1
1
1
1
1
1
1
1
1
1
1
1
1
1
1
1
1
1
1
1
1
1
1
1
1
1
1
1
1
1
1
1
1
1
1
1
1
1
1
1
1
1
1
1
1
1
1
1
1
1
1
1
1
1
1
1
1
1
1
1
1
1
1
1
1
1
1
1
1
1
1
1
1
1
1
1
1
1
1
1
1
1
1
1
1
1
1
1
1
1
1
1
1
1
1
1
1
1
1
1
1
1
1
1
1
1
1
1
1
1
1
1
1
1
1
1
1
1
1
1
1
1
1
1
1
1
1
1
1
1
1
1
1
1
1
1
1
1
1
1
1
1
1
1
1
1
1
1
1
1
1
1
1
1
1
1
1
1
1
1
1
1
1
1
1
1
1
1
1
1
1
1
1
1
1
1
1
1
1
1
1
1
1
1
1
1
1
1
1
1
1
1
1
1
1
1
1
1
1
1
1
1
1
1
1
1
1
1
1
1
1
1
1
1
1
1
1
1
1
0.999999
0.999999
0.999999
1
0.999999
1
1
1
1
1
1
1
1
1
1
1
1
1
1
1
1
1
0.999999
0.999999
0.999999
0.999999
1
0.999999
6.14889e-05
6.16126e-05
6.20181e-05
6.20435e-05
6.16109e-05
6.17323e-05
6.18478e-05
6.1947e-05
6.172e-05
6.18355e-05
6.19192e-05
0.000125712
6.18331e-05
6.1901e-05
0.000100501
0.000935935
6.19302e-05
6.19941e-05
9.48162e-05
0.000192484
0.0054537
0.00392799
0.00233594
0.00166046
0.189074
0.129009
0.103358
0.0965198
0.966873
0.872022
0.742383
0.697184
1
0.999997
0.999964
0.999861
0.999999
0.999999
0.999999
1
1
1
1
1
1
1
0.999999
0.999998
1
1
1
0.999999
1
1
1
0.999999
1
1
1
0.999999
1
1
1
0.999999
1
1
0.999999
0.999997
1
1
1
1
1
1
1
1
1
1
1
1
1
1
1
1
1
1
1
1
1
1
1
0.999999
1
0.999999
0.999999
0.999999
1
0.999999
0.999999
0.999999
0.999999
0.999999
0.999999
0.999999
0.999999
0.999999
0.999999
0.999999
0.999999
0.999999
0.999999
0.999998
0.999999
0.999999
0.999999
0.999998
0.999999
0.999999
0.999999
0.999998
0.999999
0.999999
0.999999
0.999999
0.999999
0.999999
0.999999
0.999999
1
1
0.999999
0.999999
1
0.999999
0.999999
0.999999
1
1
0.999999
0.999999
1
0.999999
0.999999
0.999998
1
0.999999
0.999999
0.999998
0.999999
0.999999
0.999999
0.999998
0.999999
0.999999
0.999998
0.999998
0.999999
0.999999
0.999998
0.999998
0.999999
0.999998
0.999998
0.999998
0.999998
0.999998
0.999998
0.999999
0.000815831
0.00669576
0.0213909
0.00169622
0.000146854
2.61034e-05
9.494e-05
0.00119089
0.00265089
0.000760414
0.000291685
0.000117258
0.000240662
0.00167708
0.00307428
0.000423732
5.23719e-05
5.23814e-05
5.23851e-05
0.00286648
0.0140293
0.0213967
0.00066682
0.000151727
0.000339795
0.00711297
0.0238929
0.0238868
0.0202916
0.00281654
0.000121001
0.000121602
0.00138374
0.00168951
0.0014532
5.23811e-05
5.23847e-05
5.23941e-05
0.00418726
0.0153762
0.0158479
0.00123186
0.000807301
0.00330956
0.00709434
0.00436056
0.00121917
0.00517944
0.0122773
0.00187665
0.000641595
0.000299927
0.000548676
0.000318656
5.24146e-05
5.23941e-05
5.91607e-05
0.00551682
0.00947227
0.00468708
0.00158084
0.000305241
0.00022542
3.77997e-05
3.31223e-05
0.000191467
0.00399096
0.0163339
0.014235
0.00152159
0.000189827
7.37165e-05
7.4054e-05
0.000868904
0.00190128
0.00745987
0.000242209
4.17934e-05
4.21787e-05
9.41129e-05
3.31974e-05
3.31269e-05
3.31251e-05
3.31575e-05
0.000221478
0.00388646
0.0163474
0.015929
0.000948304
0.000135836
7.37266e-05
0.00333812
0.0318456
0.109288
0.153163
0.00102858
0.000564555
0.00054998
0.000716632
0.00209104
0.00366152
0.00478222
0.00461479
0.00546194
0.00666314
0.00800433
0.00392348
0.00101281
0.00072549
0.0107987
0.109783
0.424855
0.682719
0.769141
0.0865087
0.0754749
0.074054
0.0770076
0.102606
0.129129
0.146222
0.146168
0.152962
0.131002
0.0857673
0.0533489
0.0513939
0.130632
0.393336
0.862371
0.999369
0.999983
0.999999
0.691585
0.660378
0.653905
0.673748
0.784657
0.848367
0.875951
0.875103
0.878547
0.858981
0.792674
0.704233
0.724181
0.948176
0.999961
0.999999
1
1
1
0.999669
0.999514
0.999516
0.999693
0.999979
0.999999
1
1
1
1
1
1
1
1
1
1
1
1
1
1
1
1
1
1
1
0.999999
1
1
1
1
1
1
1
1
1
1
1
0.999999
1
1
1
1
1
1
1
1
0.999999
0.999999
1
1
1
1
1
1
1
0.999999
0.999994
0.999995
0.999996
1
1
0.999999
0.999999
1
0.999999
0.999999
0.999999
0.999999
0.999999
0.999999
0.999999
0.999999
1
1
0.999999
0.999994
0.999985
0.999982
0.999995
0.999998
0.999998
0.999999
0.999999
1
1
1
1
0.999999
0.999999
0.999999
0.999999
0.999999
1
0.999999
0.999995
0.999982
0.999982
0.99999
0.999994
0.999994
0.999998
1
0.999999
1
1
1
1
0.999999
0.999999
0.999999
1
1
0.999998
0.999995
0.999983
0.999987
0.999998
0.999994
0.999994
0.999996
1
1
1
1
1
1
1
0.999999
0.999999
1
1
0.999997
0.999998
0.999989
0.999997
1
0.999998
0.999994
0.999998
1
1
1
0.999999
1
0.999999
1
0.999999
0.999999
0.999999
1
0.999997
1
0.999998
1
1
1
0.999999
0.999999
1
0.999999
0.999999
0.999999
0.999999
0.999999
0.999999
0.999999
0.999999
0.999999
1
0.999999
1
1
1
1
1
1
0.999999
0.999999
0.999999
0.999999
0.999998
0.999998
0.999998
0.999999
0.999999
0.999999
0.999999
1
1
1
1
1
1
1
0.999999
0.999999
0.999999
0.999999
0.999998
0.999998
0.999998
0.999998
0.999999
0.999999
0.999999
1
1
1
1
1
1
1
0.999999
0.999999
0.999999
0.999999
0.999998
0.999998
0.999998
0.999998
0.999998
0.999999
0.999999
0.999999
1
1
1
1
1
0.999999
0.999999
0.999999
0.999999
0.999999
0.999998
0.999998
0.999998
0.999998
0.999998
0.999999
0.999999
0.999999
1
1
1
1
1
0.999999
0.999999
0.999999
0.999999
0.999999
0.999998
0.999998
0.999998
0.999998
0.999998
0.999998
0.999999
0.999999
0.999999
1
1
1
1
1
0.999999
0.999999
0.999999
0.999999
0.999998
0.999998
0.999998
0.999998
0.999998
0.999998
0.999999
0.999999
0.999999
1
0.999995
0.999999
1
1
1
0.999999
0.999999
0.999999
0.999998
0.999998
0.999998
0.999998
0.999998
0.999998
0.999998
0.999999
0.999999
0.999999
1
0.999983
0.999993
1
1
0.999997
0.999999
0.999999
0.999998
0.999998
0.999998
0.999997
0.999997
0.999998
0.999998
0.999998
0.999999
0.999999
0.999999
1
0.999983
0.999978
0.999999
0.999991
0.999992
0.999999
0.999998
0.999998
0.999998
0.999997
0.999997
0.999997
0.999998
0.999998
0.999998
0.999999
0.999999
1
1
0.999997
0.999968
0.999985
0.999976
0.999998
0.999998
0.999998
0.999998
0.999997
0.999997
0.999997
0.999997
0.999998
0.999998
0.999999
0.999999
0.999999
1
1
1
0.999968
0.999968
0.999979
0.999999
0.999998
0.999998
0.999997
0.999997
0.999997
0.999997
0.999997
0.999998
0.999998
0.999999
0.999999
0.999999
1
1
1
0.999991
0.99997
0.999998
1
0.999998
0.999997
0.999997
0.999997
0.999997
0.999997
0.999998
0.999998
0.999998
0.999999
0.999999
0.999999
1
1
1
1
0.999999
1
1
0.999998
0.999997
0.999997
0.999997
0.999997
0.999997
0.999998
0.999998
0.999999
0.999999
0.999999
1
1
1
1
1
1
1
1
0.999998
0.999997
0.999997
0.999997
0.999997
0.999998
0.999998
0.999998
0.999999
0.999999
0.999999
1
1
1
1
1
1
1
1
0.999998
0.999997
0.999997
0.999997
0.999997
0.999998
0.999998
0.999999
0.999999
0.999999
0.999999
1
1
1
1
1
1
1
1
0.999998
0.999997
0.999997
0.999997
0.999998
0.999998
0.999999
0.999999
0.999999
0.999999
1
1
1
0.999999
0.999999
0.999999
1
1
1
0.999998
0.999997
0.999997
0.999998
0.999998
0.999998
0.999999
0.999999
0.999999
0.999999
1
1
1
0.999999
0.999999
0.999999
1
1
1
0.999998
0.999997
0.999998
0.999998
0.999998
0.999999
0.999999
0.999999
0.999999
0.999999
1
1
1
1
1
1
1
1
1
0.999998
0.999998
0.999998
0.999998
0.999999
0.999999
0.999999
0.999999
0.999999
1
1
1
1
1
1
1
1
1
1
0.999998
0.999998
0.999998
0.999999
0.999999
0.999999
0.999999
0.999999
0.999999
1
1
1
1
1
1
1
1
1
1
0.999998
0.999998
0.999999
0.999999
0.999999
0.999999
0.999999
0.999999
1
1
1
1
1
1
1
1
1
1
1
0.999998
0.999999
0.999999
0.999999
0.999999
0.999999
0.999999
1
1
1
1
1
1
1
1
1
1
1
1
0.999998
0.999999
0.999999
0.999999
0.999999
1
1
1
1
1
1
1
1
1
1
1
1
1
1
0.999999
0.999999
0.999999
1
1
1
1
1
1
1
1
1
1
1
1
1
1
1
1
0.999999
1
1
1
1
1
1
1
1
1
1
1
1
1
1
1
1
1
1
)
;

boundaryField
{
    leftWall
    {
        type            alphaContactAngle;
        thetaProperties 6 ( ( water mercury ) 90 0 0 0 ( water air ) 90 0 0 0 ( water oil ) 90 0 0 0 ( mercury air ) 90 0 0 0 ( oil mercury ) 90 0 0 0 ( oil air ) 90 0 0 0 );
        value           nonuniform List<scalar> 
50
(
9.36064e-12
2.39694e-11
4.66847e-11
7.49297e-11
1.14754e-10
1.50585e-10
1.74826e-10
2.07919e-10
2.01743e-10
1.54941e-10
3.73035e-10
3.32874e-08
3.86333e-07
1.34082e-06
1.88707e-06
0.00292984
0.0661786
0.0459628
0.0102358
0.0165801
0.039906
0.0907109
0.477345
0.909059
0.995572
0.999944
0.999998
0.999998
0.999999
0.999999
0.999999
0.999999
0.999999
0.999999
0.999999
0.999999
0.999999
0.999999
0.999999
0.999999
1
1
1
1
1
1
1
1
1
1
)
;
    }
    rightWall
    {
        type            alphaContactAngle;
        thetaProperties 6 ( ( water mercury ) 90 0 0 0 ( water air ) 90 0 0 0 ( water oil ) 90 0 0 0 ( mercury air ) 90 0 0 0 ( oil mercury ) 90 0 0 0 ( oil air ) 90 0 0 0 );
        value           nonuniform List<scalar> 
50
(
1.01847e-05
1.01847e-05
1.01896e-05
1.45789e-05
0.000224878
0.000544276
0.000309768
5.23817e-05
5.23851e-05
5.23941e-05
5.91607e-05
0.00745987
0.153163
0.769141
0.999999
1
1
0.999999
0.999994
0.999994
0.999995
0.999995
0.999998
1
1
1
1
1
1
1
1
0.999997
0.999992
0.999998
0.999999
1
1
1
1
1
1
1
1
1
1
1
1
1
1
1
)
;
    }
    lowerWall
    {
        type            alphaContactAngle;
        thetaProperties 6 ( ( water mercury ) 90 0 0 0 ( water air ) 90 0 0 0 ( water oil ) 90 0 0 0 ( mercury air ) 90 0 0 0 ( oil mercury ) 90 0 0 0 ( oil air ) 90 0 0 0 );
        value           nonuniform List<scalar> 
62
(
9.36064e-12
7.35424e-12
5.19452e-12
4.05293e-12
3.11718e-12
2.57608e-12
2.22468e-12
1.65675e-12
1.03465e-12
6.30544e-13
4.70076e-13
3.94555e-13
2.92144e-13
1.83936e-13
1.09545e-13
8.2733e-14
9.81605e-14
1.54616e-13
2.55768e-13
3.10969e-13
1.67609e-13
8.92455e-14
2.67545e-13
2.67545e-13
1.88101e-12
1.2488e-11
1.35641e-08
3.04638e-06
0.000655107
0.0028444
0.00243131
6.14889e-05
6.16126e-05
6.20181e-05
6.20435e-05
0.00206296
0.122645
0.271148
0.327289
0.0574955
0.00125544
0.000837478
0.000833179
0.00206296
0.00379935
0.00111755
0.000595424
0.000410789
9.95442e-05
3.3693e-05
3.10279e-05
2.55354e-05
1.352e-05
1.18524e-05
1.18524e-05
1.18524e-05
3.95067e-05
1.42128e-05
4.71696e-06
5.20115e-05
1.01847e-05
1.01847e-05
)
;
    }
    atmosphere
    {
        type            inletOutlet;
        inletValue      uniform 1;
        value           nonuniform List<scalar> 
46
(
1
1
1
1
1
1
1
1
1
1
1
1
1
1
1
1
1
0.999999
0.999999
0.999999
0.999999
1
0.999999
1
1
1
1
1
1
1
1
1
1
1
1
1
1
1
1
1
1
1
1
1
1
1
)
;
    }
    defaultFaces
    {
        type            empty;
    }
}


// ************************************************************************* //
