/*--------------------------------*- C++ -*----------------------------------*\
| =========                 |                                                 |
| \\      /  F ield         | OpenFOAM: The Open Source CFD Toolbox           |
|  \\    /   O peration     | Version:  2.4.0                                 |
|   \\  /    A nd           | Web:      www.OpenFOAM.org                      |
|    \\/     M anipulation  |                                                 |
\*---------------------------------------------------------------------------*/
FoamFile
{
    version     2.0;
    format      ascii;
    class       volScalarField;
    location    "1";
    object      alphas;
}
// * * * * * * * * * * * * * * * * * * * * * * * * * * * * * * * * * * * * * //

dimensions      [0 0 0 0 0 0 0];

internalField   nonuniform List<scalar> 
2268
(
2
2
2
2
2
2
2
2
2
2
2
2
2
2
2
2
2
2
2
2
2
1.99999
1.99999
2
2
2
2
2
2
2
2
2
2
2
2
2
2
2
2
2
2
2
2
2
1.99999
1.99999
1.99997
1.99999
2
2
2
2
2
2
2
2
2
2
2
2
2
2
2
2
2
2
2
1.99999
1.99999
1.99963
1.99985
1.99994
1.99997
1.99998
1.99999
1.99998
1.99998
1.99998
1.99999
1.99999
1.99999
2
2
1.99999
1.99999
1.99999
1.99997
1.99991
1.99987
1.99988
1.99994
1.99997
1.99686
1.99888
1.99975
1.9999
1.99987
1.99823
1.99027
1.98299
1.98212
1.98717
1.98853
1.99039
1.99291
1.99325
1.99183
1.98933
1.98674
1.97855
1.96375
1.95714
1.96151
1.9657
1.97545
1.98942
1.99626
1.99904
1.9978
1.95155
1.66782
1.2512
1.02054
0.947158
0.978024
1.14961
1.34253
1.46885
1.49415
1.44941
1.37695
1.32216
1.20316
1.0467
0.980081
1.04712
1.10186
0.977571
1.98027
1.98965
1.9261
1.28664
0.444136
0.0616058
0.00597647
0.0015099
0.00113291
0.00112308
0.00105259
0.00258099
0.011046
0.0270517
0.0345286
0.0300648
0.0252558
0.017185
0.010445
0.00999922
0.0303916
0.126775
0.270502
1.96539
1.81839
0.815874
0.0637475
0.00504399
0.00113448
0.00112659
0.00113276
0.0011269
0.00113069
0.00102377
0.000797325
0.000640769
0.000621841
0.00059459
0.000648133
0.00226139
0.00279865
0.00280372
0.0107156
0.100161
0.363239
0.697278
1.60726
1.33832
1.23805
1.20404
1.24159
1.42805
1.71404
1.90144
1.9516
1.96089
1.96648
1.96683
1.96694
1.96701
1.96756
1.96774
1.96804
1.96801
1.9681
0.931254
0.831766
0.708776
0.527287
0.397518
0.248423
0.266757
0.493436
1.10899
1.53675
1.78476
1.9094
1.94811
1.95668
1.96236
1.96728
1.96794
1.96812
1.96806
1.46864
0.964044
0.954686
0.950896
0.862209
0.385958
0.230165
0.292306
0.891119
1.61275
1.86885
1.93431
1.94788
1.94801
1.96291
1.96733
1.96795
1.96813
1.96802
1.6184
1.40168
1.10335
0.999684
0.991312
0.877074
0.477728
0.280033
0.488469
0.960874
1.24612
1.46479
1.61567
1.76157
1.93494
1.96409
1.96769
1.96563
1.96789
1.05
1.40253
0.990556
0.990291
0.987779
0.858835
0.416273
0.263011
0.279412
0.460438
0.727567
0.871631
0.932758
1.12787
1.71166
1.95937
1.96748
1.94843
1.86248
0.926861
1.00552
1.00528
0.998097
0.984609
0.860951
0.494873
0.264168
0.249172
0.33959
0.634269
0.834582
0.86545
0.866864
1.06561
1.66313
1.79295
1.47648
1.06322
0.92026
0.984398
1.0187
0.993629
0.976788
0.771777
0.388329
0.258345
0.243143
0.271381
0.573127
0.838002
0.863116
0.858694
0.77782
0.724679
0.723344
0.578046
0.534391
0.916699
0.974817
1.01428
0.997726
0.970869
0.764324
0.419298
0.262422
0.235886
0.237604
0.418911
0.769881
0.863144
0.84827
0.774569
0.587196
0.531013
0.530943
0.530955
1.71144
0.634921
0.0586198
0.00474173
0.00116726
0.00112679
0.00112081
0.00109979
0.00102858
0.000779315
0.000648934
0.000694358
0.000965278
0.00134119
0.0017148
0.00370671
0.00937238
0.0118115
0.0120093
0.0209178
0.128683
0.611008
0.87698
0.948767
0.0636584
0.00142706
0.00112333
0.0010686
0.00101409
0.000936664
0.000758126
0.000844415
0.00316611
0.00951536
0.0120373
0.0106226
0.00841251
0.00735194
0.00791561
0.0112755
0.0190918
0.0578782
0.14473
0.321129
0.718353
0.888046
0.206673
0.0159345
0.00118377
0.000949201
0.00100807
0.000770795
0.000803127
0.00361346
0.0255851
0.0900512
0.167682
0.192945
0.156902
0.104481
0.0667493
0.0391076
0.0257314
0.0526189
0.274606
0.582972
0.799533
0.853566
0.85567
0.0349441
0.0171713
0.0176477
0.0151663
0.00921603
0.00543012
0.0190351
0.107321
0.321157
0.538576
0.655155
0.649489
0.553267
0.389864
0.210214
0.105887
0.15339
0.386511
0.670994
0.815795
0.835014
0.833011
0.819259
0.294471
0.240846
0.148779
0.0668885
0.0262675
0.0515532
0.259588
0.600114
0.849102
0.88679
0.923635
0.867641
0.715266
0.545504
0.412191
0.414481
0.610078
0.786014
0.858389
0.860513
0.833713
0.813433
0.80028
0.784936
0.581647
0.239297
0.116564
0.118453
0.471691
0.875232
0.923303
0.934477
0.984812
1.00868
0.918863
0.806669
0.735178
0.718239
0.794224
0.890974
0.922812
0.924457
0.92547
0.8912
0.877552
0.84182
0.871001
0.725026
0.410341
0.363909
0.597845
0.872519
0.924707
0.942541
1.05837
1.30631
1.51038
1.01963
0.916186
0.910286
0.918946
0.938817
0.956012
1.00711
1.42254
2.10989
2.3578
2.14857
1.6026
0.900527
0.783409
0.638199
0.734213
0.893174
0.933968
1.01322
1.09088
1.44689
2.47373
2.47937
1.37671
0.979983
0.951272
0.953209
0.992874
1.11781
2.00857
2.84323
2.97208
2.99214
2.99965
2.98942
1.0827
0.85457
0.835964
0.910927
0.951842
1.09495
1.37736
2.35933
2.80691
2.97299
2.97814
2.79735
2.05973
1.30143
1.14951
1.35675
2.23822
2.91297
2.99883
2.99996
3
3
3
1.03187
0.914801
0.918012
0.955201
1.14903
2.29387
2.92432
2.98506
2.99763
2.99973
2.99976
2.99276
2.92132
2.66175
2.48968
2.62949
2.93933
2.99849
3
3
3
3
3
0.947921
0.92111
0.968221
1.22461
2.48254
2.97853
2.99975
2.99994
2.99994
3
3
2.99989
2.99839
2.99208
2.98524
2.98887
2.99911
2.99999
3
3
3
3
3
0.966994
0.997181
1.40863
2.59783
2.98317
2.99994
3
2.99999
2.99989
2.99985
3
3
3
2.99999
2.99997
2.99997
3
3
3
3
3
3
3
1.03697
1.48264
2.72197
2.98802
2.99992
3
3
3
2.99988
2.99963
2.99966
2.99994
3
3
3
3
3
3
3
3
3
3
3
1.16549
2.65319
2.99364
2.99995
3
3
3
3
2.99999
2.99982
2.9996
2.9996
2.99986
3
3
3
3
3
3
3
3
3
3
1.9523
2.98798
2.99998
3
3
3
3
3
3
2.99999
2.9998
2.99967
2.99993
2.99998
2.99999
2.99998
2.99999
3
3
3
3
3
3
2.81804
2.99996
3
3
3
3
3
3
3
3
2.99999
2.99996
2.99999
2.99999
2.99994
2.99993
2.99995
2.99999
2.99998
2.99987
2.99988
2.99996
2.99999
2.99114
3
3
3
3
3
3
3
3
3
3
3
3
3
2.99998
2.99995
2.99998
2.99999
2.99996
2.99987
2.99987
2.99988
2.99998
2.99989
3
3
3
3
3
3
3
3
3
3
3
3
3
3
2.99999
3
3
2.99999
2.99995
2.99996
2.99999
3
2.99999
3
3
3
3
3
3
3
3
3
3
3
3
3
3
3
3
3
3
3
3
3
3
2.99999
3
3
3
3
3
3
3
3
3
3
3
3
3
3
3
3
3
3
3
3
3
3
3
3
3
3
3
3
3
3
3
3
3
3
3
3
3
3
3
3
3
3
3
3
3
3
3
3
3
3
3
3
3
3
3
3
3
3
3
3
3
3
3
3
3
3
3
3
3
3
3
3
3
3
3
3
3
3
3
3
3
3
3
3
3
3
3
3
3
3
3
3
3
3
3
3
3
3
3
3
3
3
3
3
3
3
3
3
3
3
3
3
3
3
3
3
3
3
3
3
3
3
3
3
3
3
3
3
3
3
3
3
3
3
3
3
3
3
3
3
3
3
3
3
3
3
3
3
3
3
3
3
3
3
3
3
3
3
3
3
3
3
3
3
3
3
3
3
3
3
3
3
3
3
3
3
3
3
3
3
3
3
3
3
3
3
3
3
3
3
3
3
3
3
3
3
3
3
3
3
3
3
3
3
3
3
3
3
3
3
3
3
3
3
3
3
3
3
3
3
3
3
3
3
3
3
3
3
3
3
3
3
3
3
3
3
3
3
3
3
3
3
3
3
3
3
3
3
3
3
3
3
3
3
3
3
3
3
3
3
3
3
3
3
3
3
3
3
3
3
3
3
3
3
3
3
3
3
3
3
3
3
3
3
3
3
3
3
3
3
3
3
3
3
3
3
3
3
3
3
3
3
3
3
3
3
3
3
3
3
3
3
3
3
3
3
3
3
3
3
3
3
3
3
3
3
3
3
3
3
3
3
3
3
3
3
3
3
3
3
3
3
3
3
3
3
3
3
3
3
3
3
3
3
3
3
3
3
3
3
3
3
3
3
3
3
3
3
3
3
3
3
3
3
3
3
3
3
3
3
3
3
3
3
3
3
3
3
3
3
3
3
3
3
3
3
3
3
3
3
3
3
3
3
3
3
3
3
3
3
3
3
3
3
3
3
3
3
3
3
3
3
3
3
3
3
3
3
3
3
3
3
3
3
3
3
3
3
3
3
3
3
3
3
3
3
3
3
3
3
3
3
3
3
3
3
3
3
3
3
3
3
3
3
3
3
3
3
3
3
3
3
3
3
3
3
3
3
3
3
3
3
3
3
3
3
3
3
3
3
3
3
3
3
3
3
3
3
3
3
3
3
3
3
3
3
3
3
3
3
3
3
3
3
3
3
3
3
3
3
3
3
3
3
3
3
3
3
0.879174
0.876184
0.868439
0.867045
0.894052
0.896716
0.908474
0.920388
0.855311
0.865251
0.878921
0.890289
0.817729
0.817838
0.818439
0.820442
0.795389
0.793056
0.786835
0.778052
0.817655
0.80679
0.795632
0.788481
1.30255
1.16785
1.10513
1.08478
2.93326
2.74254
2.48182
2.38995
3
2.99999
2.99993
2.99972
3
3
3
3
3
3
3
3
3
3
3
3
3
3
3
3
3
3
3
3
3
3
3
3
3
3
3
3
3
3
3
3
3
3
3
3
3
3
3
3
3
3
3
3
3
3
3
3
3
3
3
3
3
3
3
3
3
3
3
3
3
3
3
3
3
3
3
3
3
3
3
3
3
3
3
3
3
3
3
3
3
3
3
3
3
3
3
3
3
3
3
3
3
3
3
3
3
3
3
3
3
3
3
3
3
3
3
3
3
3
3
2.99999
3
3
3
2.99999
3
3
3
2.99999
3
3
3
2.99999
3
3
2.99999
2.99999
2.99999
2.99999
2.99999
3
0.914827
0.976778
1.01713
0.988347
0.910894
0.635378
0.343778
0.249851
0.241287
0.237408
0.286327
0.55993
0.78529
0.84213
0.839196
0.715352
0.630066
0.55892
0.531068
0.942216
0.983735
1.00142
0.935476
0.759592
0.50219
0.344133
0.327456
0.30572
0.294419
0.259674
0.360417
0.60958
0.814538
0.846921
0.846404
0.764651
0.685217
0.646166
0.910015
0.94233
0.908686
0.762102
0.599386
0.483831
0.455009
0.436852
0.389123
0.306604
0.288034
0.293461
0.44891
0.706376
0.842572
0.838943
0.795621
0.7644
0.76083
0.824537
0.816046
0.743401
0.66947
0.639081
0.636383
0.646159
0.652509
0.630695
0.538568
0.415833
0.349587
0.438008
0.641353
0.796797
0.788383
0.791194
0.794168
0.810772
0.760046
0.738262
0.725512
0.723424
0.725312
0.729671
0.730839
0.72748
0.710545
0.668636
0.601551
0.498979
0.491736
0.674569
0.754091
0.792719
0.883944
1.11613
1.24762
0.779965
0.774423
0.774102
0.775637
0.778776
0.778735
0.776347
0.771115
0.766134
0.749764
0.71538
0.660159
0.637129
0.722585
0.80939
1.10659
1.82202
2.36413
2.53806
1.05463
1.0217
1.01729
1.02627
1.09522
1.15504
1.19103
1.18827
1.19858
1.13723
1.01586
0.921614
0.915818
1.12282
1.73507
2.72225
2.99873
2.99997
3
2.37668
2.31247
2.29912
2.33911
2.56381
2.69298
2.74887
2.74699
2.75364
2.71286
2.57564
2.39395
2.43837
2.89557
2.99992
3
3
3
3
2.99934
2.99903
2.99903
2.99939
2.99996
3
3
3
3
3
3
3
3
3
3
3
3
3
3
3
3
3
3
3
3
3
3
3
3
3
3
3
3
3
3
3
3
3
3
3
3
3
3
3
3
3
3
3
3
3
3
3
3
3
3
3
2.99999
2.99999
2.99999
3
3
3
3
3
3
3
3
3
3
3
3
3
3
3
3
2.99999
2.99997
2.99996
2.99999
3
3
3
3
3
3
3
3
3
3
3
3
3
3
3
2.99999
2.99996
2.99996
2.99998
2.99999
2.99999
3
3
3
3
3
3
3
3
3
3
3
3
3
2.99999
2.99997
2.99998
3
2.99999
2.99999
2.99999
3
3
3
3
3
3
3
3
3
3
3
2.99999
3
2.99998
2.99999
3
3
2.99999
3
3
3
3
3
3
3
3
3
3
3
3
2.99999
3
3
3
3
3
3
3
3
3
3
3
3
3
3
3
3
3
3
3
3
3
3
3
3
3
3
3
3
3
3
3
3
3
3
3
3
3
3
3
3
3
3
3
3
3
3
3
2.99999
2.99999
2.99999
2.99999
3
3
3
3
3
3
3
3
3
3
3
3
3
3
3
2.99999
2.99999
2.99999
3
3
3
3
3
3
3
3
3
3
3
3
3
3
3
2.99999
2.99999
2.99999
3
3
3
3
3
3
3
3
3
3
3
3
3
3
3
2.99999
2.99999
2.99999
2.99999
3
3
3
3
3
3
3
3
3
3
3
3
3
3
2.99999
2.99999
2.99999
2.99999
2.99999
3
3
3
3
2.99999
3
3
3
3
3
3
3
3
2.99999
2.99999
2.99999
2.99999
2.99999
2.99999
3
3
3
3
2.99997
2.99999
3
3
3
3
3
2.99999
2.99999
2.99999
2.99999
2.99999
2.99999
2.99999
3
3
3
3
3
2.99997
2.99996
3
2.99998
2.99998
3
2.99999
2.99999
2.99999
2.99999
2.99999
2.99999
2.99999
2.99999
3
3
3
3
3
2.99999
2.99994
2.99997
2.99995
3
2.99999
2.99999
2.99999
2.99999
2.99999
2.99999
2.99999
2.99999
2.99999
3
3
3
3
3
3
2.99994
2.99994
2.99996
3
2.99999
2.99999
2.99999
2.99999
2.99999
2.99999
2.99999
2.99999
2.99999
3
3
3
3
3
3
2.99998
2.99994
3
3
2.99999
2.99999
2.99999
2.99999
2.99999
2.99999
2.99999
2.99999
3
3
3
3
3
3
3
3
3
3
3
2.99999
2.99999
2.99999
2.99999
2.99999
2.99999
2.99999
2.99999
3
3
3
3
3
3
3
3
3
3
3
2.99999
2.99999
2.99999
2.99999
2.99999
2.99999
2.99999
3
3
3
3
3
3
3
3
3
3
3
3
2.99999
2.99999
2.99999
2.99999
2.99999
2.99999
2.99999
3
3
3
3
3
3
3
3
3
3
3
3
2.99999
2.99999
2.99999
2.99999
2.99999
2.99999
3
3
3
3
3
3
3
3
3
3
3
3
3
2.99999
2.99999
2.99999
2.99999
2.99999
3
3
3
3
3
3
3
3
3
3
3
3
3
3
2.99999
2.99999
2.99999
2.99999
3
3
3
3
3
3
3
3
3
3
3
3
3
3
3
2.99999
2.99999
2.99999
3
3
3
3
3
3
3
3
3
3
3
3
3
3
3
3
2.99999
2.99999
3
3
3
3
3
3
3
3
3
3
3
3
3
3
3
3
3
2.99999
2.99999
3
3
3
3
3
3
3
3
3
3
3
3
3
3
3
3
3
2.99999
3
3
3
3
3
3
3
3
3
3
3
3
3
3
3
3
3
3
3
3
3
3
3
3
3
3
3
3
3
3
3
3
3
3
3
3
3
3
3
3
3
3
3
3
3
3
3
3
3
3
3
3
3
3
3
3
3
3
3
3
3
3
3
3
3
3
3
3
3
3
3
3
3
3
3
)
;

boundaryField
{
    leftWall
    {
        type            zeroGradient;
    }
    rightWall
    {
        type            zeroGradient;
    }
    lowerWall
    {
        type            zeroGradient;
    }
    atmosphere
    {
        type            zeroGradient;
    }
    defaultFaces
    {
        type            empty;
    }
}


// ************************************************************************* //
