/*--------------------------------*- C++ -*----------------------------------*\
| =========                 |                                                 |
| \\      /  F ield         | OpenFOAM: The Open Source CFD Toolbox           |
|  \\    /   O peration     | Version:  2.4.0                                 |
|   \\  /    A nd           | Web:      www.OpenFOAM.org                      |
|    \\/     M anipulation  |                                                 |
\*---------------------------------------------------------------------------*/
FoamFile
{
    version     2.0;
    format      ascii;
    class       volScalarField;
    location    "1";
    object      alpha.water;
}
// * * * * * * * * * * * * * * * * * * * * * * * * * * * * * * * * * * * * * //

dimensions      [0 0 0 0 0 0 0];

internalField   nonuniform List<scalar> 
2268
(
5.48631e-08
3.36419e-08
2.32234e-08
2.08828e-08
2.0066e-08
2.07159e-08
2.15153e-08
2.09082e-08
1.92955e-08
1.84332e-08
1.92993e-08
2.04696e-08
1.81119e-08
1.17019e-08
7.8293e-09
6.59438e-09
6.55987e-09
7.19598e-09
9.1301e-09
6.22714e-09
1.62175e-09
6.60757e-10
5.03385e-10
9.5171e-07
8.46428e-07
5.83805e-07
3.8862e-07
1.83266e-07
1.29761e-07
1.23353e-07
9.42333e-08
7.33046e-08
6.8463e-08
7.01179e-08
7.02797e-08
5.39823e-08
3.93645e-08
3.126e-08
2.82e-08
2.89587e-08
3.36489e-08
3.31917e-08
2.77289e-08
1.0888e-08
1.75302e-09
1.65643e-09
1.70627e-05
6.29331e-06
1.87503e-06
1.13262e-06
1.10604e-06
1.28518e-06
1.20737e-06
7.01369e-07
4.27212e-07
3.47068e-07
3.15123e-07
2.50661e-07
1.4539e-07
8.588e-08
7.11776e-08
6.98573e-08
9.68121e-08
1.32333e-07
1.43532e-07
1.04465e-07
3.74357e-08
1.3381e-08
7.94984e-09
0.000182846
7.69823e-05
2.81228e-05
1.69202e-05
9.86893e-06
4.05533e-06
7.32512e-06
1.18229e-05
8.85799e-06
4.91639e-06
3.80244e-06
3.07287e-06
2.0472e-06
1.87983e-06
2.33604e-06
3.60469e-06
5.16876e-06
1.38181e-05
4.24579e-05
6.37118e-05
5.56625e-05
2.84612e-05
8.09395e-06
0.00156806
0.000558349
0.000127302
5.2284e-05
6.46125e-05
0.000884815
0.00486189
0.00850086
0.00893261
0.00640233
0.00571495
0.00478033
0.00351945
0.0033498
0.00406381
0.00531385
0.00661007
0.0106981
0.0180912
0.0214075
0.0192481
0.0171463
0.0122643
0.00528842
0.00186932
0.000478762
0.00109819
0.024222
0.166088
0.374394
0.489718
0.526392
0.510901
0.425001
0.328433
0.265216
0.252537
0.274844
0.310993
0.338326
0.39778
0.475936
0.509366
0.476021
0.445873
0.502863
0.00986423
0.00517727
0.036951
0.356679
0.777931
0.969196
0.997011
0.999245
0.999433
0.999436
0.999434
0.998538
0.994137
0.986021
0.982116
0.984052
0.986123
0.990035
0.993326
0.992137
0.971
0.87892
0.742126
0.0173046
0.0908044
0.592063
0.968126
0.997478
0.999433
0.999437
0.999433
0.999436
0.999434
0.999436
0.999434
0.999434
0.999434
0.999434
0.99936
0.997746
0.997211
0.997208
0.989312
0.900107
0.638585
0.311481
0.152721
0.255709
0.327966
0.361922
0.35378
0.269459
0.127139
0.033459
0.00845311
0.00383052
0.00109235
0.000933016
0.000932873
0.000973485
0.000477069
0.000306401
9.73873e-05
6.92462e-05
9.58904e-05
0.33644
0.29354
0.355597
0.483365
0.602999
0.755294
0.77184
0.658937
0.356892
0.153182
0.0515508
0.0187452
0.0104357
0.00670944
0.00369501
0.000765646
0.00018314
0.000111807
0.000164752
0.0757592
0.0561394
0.0481313
0.0492501
0.137881
0.614133
0.771873
0.771773
0.485336
0.145173
0.0362013
0.0152766
0.0104797
0.007367
0.00320969
0.000769281
0.00025877
0.000123378
0.000204199
0.0383546
0.0239358
0.00916247
0.00908998
0.0111401
0.123142
0.522671
0.738534
0.642944
0.331171
0.153425
0.064094
0.0313838
0.018387
0.00404352
0.00090882
0.000254265
0.000123327
0.000365051
0.0676997
0.0227746
0.0099808
0.0100616
0.0123401
0.141274
0.583848
0.739568
0.739437
0.566561
0.279996
0.140438
0.101956
0.0950359
0.0305021
0.00162962
0.000326814
0.00430649
0.0241855
0.0776538
0.0369792
0.00931495
0.00821765
0.0169908
0.139193
0.505214
0.736067
0.752543
0.666902
0.367739
0.165729
0.135549
0.143431
0.154656
0.0732399
0.0504186
0.16263
0.271996
0.0833459
0.0327389
0.0100722
0.00969723
0.0233931
0.22833
0.611765
0.741746
0.757016
0.732923
0.431171
0.162548
0.137937
0.143752
0.237947
0.367947
0.41493
0.46924
0.469241
0.0869357
0.0365029
0.026689
0.00965984
0.0297163
0.235762
0.580803
0.737694
0.76421
0.763008
0.58427
0.230607
0.137953
0.154226
0.232057
0.41495
0.46923
0.469241
0.469229
0.144282
0.68254
0.97069
0.997629
0.999416
0.999435
0.999433
0.999436
0.999434
0.999435
0.999432
0.99934
0.999053
0.99867
0.998295
0.996301
0.990635
0.988197
0.988006
0.979289
0.876252
0.398433
0.134141
0.525617
0.968171
0.999286
0.999432
0.999434
0.999434
0.999435
0.999433
0.999239
0.996877
0.990513
0.987984
0.989393
0.991599
0.992656
0.992092
0.988732
0.980918
0.942168
0.855649
0.681623
0.285738
0.114325
0.896609
0.991961
0.999284
0.999258
0.999093
0.999298
0.999239
0.99641
0.974432
0.909972
0.832343
0.80708
0.843115
0.895534
0.933259
0.960901
0.974283
0.947421
0.726524
0.420914
0.204363
0.148489
0.144602
0.977794
0.984618
0.982405
0.984853
0.990799
0.99458
0.980972
0.892688
0.678869
0.461629
0.346395
0.351085
0.446851
0.610268
0.789829
0.894147
0.846687
0.613733
0.330528
0.186586
0.165759
0.167254
0.181023
0.705951
0.759219
0.851224
0.933113
0.973733
0.948448
0.740417
0.399918
0.151133
0.119868
0.138817
0.20092
0.285326
0.454598
0.587878
0.585587
0.390018
0.214344
0.142354
0.139788
0.166494
0.186802
0.199979
0.215067
0.418355
0.760704
0.883436
0.881548
0.528317
0.1248
0.0770564
0.0749197
0.0716658
0.0949961
0.145448
0.193985
0.264886
0.281829
0.205845
0.109159
0.0775975
0.0763671
0.0764346
0.121114
0.152915
0.179543
0.129003
0.274975
0.589661
0.636096
0.402161
0.127501
0.0754745
0.0695295
0.0309247
0.019454
0.0411777
0.0733125
0.0842829
0.0897784
0.0811408
0.06182
0.0521413
0.0352895
0.026697
0.0178553
0.0158243
0.0195906
0.0491592
0.105332
0.218092
0.361863
0.265799
0.10697
0.072386
0.0459689
0.0200875
0.00460608
0.00172737
0.00955296
0.032677
0.0480787
0.0523773
0.0516945
0.0385012
0.0191131
0.00494497
0.000954454
0.000265486
6.85934e-05
3.28582e-06
7.9142e-05
0.0496591
0.147757
0.164101
0.0894717
0.0664255
0.0187183
0.002149
0.000847013
0.000149399
3.3746e-05
0.00029489
0.00210315
0.0100416
0.0194118
0.0212831
0.0119321
0.00246672
0.000104548
2.76615e-06
2.5967e-07
3.88651e-08
9.53211e-08
1.386e-07
0.0600594
0.0861056
0.0824938
0.0700971
0.0175987
0.00102883
9.20312e-06
2.20174e-06
6.6733e-07
1.20865e-07
9.50331e-07
1.97912e-05
0.000281665
0.00120384
0.00177266
0.000880398
6.46042e-05
6.13033e-07
6.09286e-09
1.60351e-08
3.97661e-08
1.21168e-07
1.23981e-07
0.0725509
0.0814615
0.0657576
0.0244482
0.00131222
6.74232e-06
1.19316e-08
1.23417e-08
1.89951e-08
1.02411e-08
1.00716e-08
2.28908e-08
7.13461e-07
6.40103e-06
1.25397e-05
7.50017e-06
5.29842e-07
5.90336e-09
4.54171e-09
1.15604e-08
5.33896e-08
1.30843e-07
1.43774e-07
0.0661667
0.0561046
0.022434
0.00193813
1.59647e-05
8.23885e-09
2.92055e-09
1.86508e-08
3.19128e-08
2.87092e-08
8.37707e-09
8.38888e-09
8.34248e-09
8.78535e-09
1.0465e-08
1.0194e-08
3.97997e-09
4.01509e-09
4.44365e-09
6.25725e-09
1.52328e-08
3.45076e-08
1.16643e-07
0.0428411
0.0148805
0.001525
2.36588e-05
4.29119e-08
2.40194e-09
2.40938e-09
5.58052e-09
3.05843e-08
5.36874e-08
4.69422e-08
1.27123e-08
8.35826e-09
1.43075e-08
1.44378e-08
8.94145e-09
6.46425e-09
4.93287e-09
4.59119e-09
4.7308e-09
5.78345e-09
9.56613e-09
2.76585e-08
0.0159307
0.000854987
1.42223e-05
5.28425e-08
2.78031e-09
2.83221e-09
2.40002e-09
1.34459e-09
5.68242e-09
4.35524e-08
7.87748e-08
6.90812e-08
2.04338e-08
1.6593e-08
3.04414e-08
2.61769e-08
2.89635e-08
2.41083e-08
2.74091e-08
1.43237e-08
8.98068e-09
1.9895e-08
1.60415e-07
0.00239011
6.89546e-06
1.88536e-08
2.83914e-09
1.70298e-09
1.95384e-09
1.87365e-09
1.32836e-09
1.22805e-09
5.74132e-09
4.05348e-08
9.86234e-08
1.32713e-07
1.26635e-07
1.1089e-07
5.44439e-08
3.19233e-08
4.82749e-08
5.50715e-08
8.82149e-08
1.29519e-07
3.19162e-07
5.90576e-07
8.34022e-05
8.72897e-09
1.88998e-09
1.63919e-09
1.45574e-09
1.45618e-09
1.42565e-09
1.27666e-09
1.22082e-09
1.25209e-09
4.1847e-09
3.08406e-08
8.83599e-08
1.59471e-07
2.16138e-07
2.17175e-07
1.62554e-07
1.90119e-07
4.51404e-07
1.05562e-06
1.06546e-06
1.06485e-06
1.06508e-06
4.9464e-07
2.97377e-09
1.67525e-09
1.5167e-09
3.31942e-09
3.14504e-09
1.96794e-09
1.27631e-09
1.2505e-09
1.33939e-09
1.52829e-09
2.90495e-09
1.37616e-08
4.55667e-08
9.27987e-08
1.2647e-07
1.11641e-07
1.41996e-07
2.94313e-07
9.14957e-07
1.03172e-06
1.01797e-06
3.25705e-07
1.23508e-09
2.04363e-09
1.63758e-09
2.02768e-09
9.24466e-09
1.19014e-08
6.43822e-09
1.82899e-09
1.33925e-09
1.51664e-09
1.73171e-09
1.91937e-09
4.30039e-09
9.20323e-09
1.11166e-08
1.8471e-08
2.47874e-08
4.17663e-08
8.03424e-08
1.76375e-07
1.53577e-07
5.90419e-08
1.14613e-08
1.08388e-09
1.57857e-09
1.75325e-09
3.60509e-09
1.37313e-08
2.07015e-08
1.19961e-08
2.46012e-09
1.31182e-09
1.57859e-09
1.84378e-09
2.10307e-09
2.59831e-09
3.16863e-09
2.98107e-09
4.27322e-09
1.00183e-08
9.67981e-09
7.69421e-09
6.08414e-09
3.06833e-09
7.63887e-10
2.81668e-10
1.16406e-09
1.60881e-09
2.08943e-09
7.41558e-09
2.05077e-08
2.2636e-08
1.24494e-08
2.15311e-09
1.11337e-09
1.45657e-09
1.78558e-09
2.0686e-09
2.55297e-09
2.66409e-09
2.67981e-09
2.88933e-09
3.79932e-09
3.2227e-09
1.67624e-09
5.52377e-10
1.15459e-10
7.76179e-11
1.30471e-10
1.31754e-09
1.73954e-09
2.25165e-09
1.08359e-08
2.23022e-08
2.26318e-08
9.60963e-09
1.22962e-09
6.58076e-10
9.82135e-10
1.37213e-09
1.71344e-09
2.17784e-09
2.14075e-09
1.85678e-09
1.81584e-09
1.58696e-09
1.19209e-09
5.38885e-10
9.98087e-11
4.28853e-11
4.8963e-11
7.51783e-11
1.40839e-09
1.69766e-09
5.69811e-09
1.74541e-08
2.3001e-08
1.75151e-08
4.07383e-09
3.0459e-10
2.01812e-10
3.56354e-10
6.18356e-10
8.73762e-10
1.04573e-09
1.00559e-09
9.17964e-10
7.74358e-10
6.47487e-10
4.16256e-10
1.51754e-10
2.77853e-11
2.02375e-11
2.27662e-11
3.65438e-11
4.83743e-09
7.58526e-09
1.44225e-08
2.30683e-08
2.15015e-08
7.13395e-09
5.9458e-10
2.56713e-11
2.47217e-11
4.97625e-11
1.13436e-10
1.77151e-10
1.94062e-10
2.90167e-10
3.15495e-10
2.80486e-10
2.07462e-10
1.27963e-10
3.74928e-11
1.18497e-11
9.37725e-12
1.08969e-11
1.73012e-11
1.84667e-08
1.94007e-08
2.30826e-08
2.31353e-08
9.20938e-09
9.30511e-10
2.30243e-11
1.11446e-11
1.13566e-11
1.17146e-11
1.33415e-11
1.60049e-11
1.90849e-11
7.40807e-11
9.76111e-11
8.48052e-11
5.85252e-11
2.89547e-11
1.09418e-11
5.3566e-12
3.55128e-12
4.15637e-12
7.22264e-12
2.47756e-08
2.48228e-08
2.28251e-08
9.8711e-09
1.16217e-09
2.82386e-11
6.95124e-12
6.09785e-12
6.03565e-12
6.70113e-12
7.2262e-12
8.04783e-12
9.93463e-12
2.22704e-11
2.66743e-11
2.0889e-11
1.34869e-11
6.98718e-12
3.19918e-12
1.53407e-12
1.06009e-12
1.29915e-12
2.27693e-12
1.64095e-08
1.58412e-08
7.63043e-09
1.08878e-09
3.11505e-11
5.0603e-12
3.87555e-12
3.27657e-12
3.14046e-12
3.40109e-12
3.70891e-12
4.12179e-12
4.78681e-12
7.24688e-12
7.77474e-12
5.80279e-12
3.57145e-12
1.83625e-12
8.46921e-13
4.06276e-13
2.80791e-13
3.39644e-13
5.32446e-13
5.08649e-09
2.64121e-09
5.10291e-10
2.15836e-11
4.19954e-12
2.79573e-12
1.98179e-12
1.62203e-12
1.51499e-12
1.60432e-12
1.73957e-12
1.91457e-12
2.10207e-12
2.49561e-12
2.36352e-12
1.68514e-12
9.83433e-13
4.83051e-13
2.1411e-13
9.94394e-14
6.58512e-14
7.37014e-14
9.90514e-14
4.74238e-10
8.79284e-11
6.87804e-12
3.40832e-12
2.14032e-12
1.33656e-12
9.17292e-13
7.29138e-13
6.68943e-13
6.97908e-13
7.43347e-13
7.98816e-13
8.36307e-13
8.53519e-13
7.19947e-13
4.79852e-13
2.61754e-13
1.20441e-13
5.01449e-14
2.21183e-14
1.37045e-14
1.35707e-14
1.51963e-14
1.14799e-11
3.54661e-12
2.44966e-12
1.54738e-12
9.41456e-13
5.74044e-13
3.81445e-13
2.96918e-13
2.69392e-13
2.77512e-13
2.88821e-13
3.0027e-13
2.99375e-13
2.74601e-13
2.09243e-13
1.28691e-13
6.50188e-14
2.77375e-14
1.07334e-14
4.45214e-15
2.52921e-15
2.14887e-15
1.9794e-15
3.12576e-12
1.67023e-12
1.01176e-12
6.23668e-13
3.72143e-13
2.20539e-13
1.42693e-13
1.09635e-13
9.88559e-14
1.00535e-13
1.01957e-13
1.02013e-13
9.64779e-14
8.10755e-14
5.6407e-14
3.19145e-14
1.48661e-14
5.84702e-15
2.09016e-15
8.07726e-16
4.15423e-16
2.98666e-16
2.25135e-16
9.90266e-13
6.20654e-13
3.75013e-13
2.26007e-13
1.31678e-13
7.60345e-14
4.82115e-14
3.67977e-14
3.30733e-14
3.31806e-14
3.27254e-14
3.14261e-14
2.80983e-14
2.18091e-14
1.39389e-14
7.25487e-15
3.10936e-15
1.12451e-15
3.70312e-16
1.32493e-16
6.10624e-17
3.67799e-17
2.26663e-17
3.1507e-13
2.04928e-13
1.24445e-13
7.36242e-14
4.19083e-14
2.36584e-14
1.47822e-14
1.12645e-14
1.01055e-14
9.9931e-15
9.57121e-15
8.80831e-15
7.42931e-15
5.34508e-15
3.14759e-15
1.50764e-15
5.93941e-16
1.97254e-16
5.96965e-17
1.96557e-17
8.0982e-18
4.05609e-18
2.04493e-18
9.48261e-14
6.21002e-14
3.74003e-14
2.16926e-14
1.20728e-14
6.68275e-15
4.13409e-15
3.15734e-15
2.82751e-15
2.75357e-15
2.55842e-15
2.25426e-15
1.79132e-15
1.19662e-15
6.5028e-16
2.86777e-16
1.03812e-16
3.16245e-17
8.77568e-18
2.64515e-18
9.7501e-19
4.02513e-19
1.66164e-19
2.6779e-14
1.73225e-14
1.02451e-14
5.81652e-15
3.16733e-15
1.72366e-15
1.06012e-15
8.13761e-16
7.27029e-16
6.96533e-16
6.27216e-16
5.28636e-16
3.95395e-16
2.45428e-16
1.23183e-16
5.0034e-17
1.6647e-17
4.65085e-18
1.18136e-18
3.24189e-19
1.0626e-19
3.61482e-20
1.2212e-20
7.08029e-15
4.45142e-15
2.57096e-15
1.42765e-15
7.61316e-16
4.08341e-16
2.50619e-16
1.93738e-16
1.72489e-16
1.62393e-16
1.41567e-16
1.14021e-16
8.02068e-17
4.62722e-17
2.14544e-17
8.02491e-18
2.45228e-18
6.27582e-19
1.45658e-19
3.62815e-20
1.05402e-20
2.96316e-21
8.16994e-22
1.74815e-15
1.05632e-15
5.9394e-16
3.22569e-16
1.68625e-16
8.93572e-17
5.49133e-17
4.28138e-17
3.79334e-17
3.50554e-17
2.95559e-17
2.27316e-17
1.50317e-17
8.06244e-18
3.45439e-18
1.18971e-18
3.3367e-19
7.80725e-20
1.64917e-20
3.70957e-21
9.52823e-22
2.23131e-22
4.98444e-23
4.02776e-16
2.32318e-16
1.26997e-16
6.74826e-17
3.46204e-17
1.81668e-17
1.12107e-17
8.82176e-18
7.76539e-18
7.03547e-18
5.73141e-18
4.20527e-18
2.61326e-18
1.30364e-18
5.16434e-19
1.63842e-19
4.21897e-20
9.02205e-21
1.73166e-21
3.50206e-22
7.90044e-23
1.55956e-23
2.75968e-24
8.6743e-17
4.75557e-17
2.52555e-17
1.31376e-17
6.62124e-18
3.44767e-18
2.14207e-18
1.70223e-18
1.48676e-18
1.31915e-18
1.03753e-18
7.2581e-19
4.23788e-19
1.96657e-19
7.20479e-20
2.10462e-20
4.96865e-21
9.69428e-22
1.68817e-22
3.06982e-23
6.09829e-24
1.02822e-24
1.40804e-25
1.75083e-17
9.10829e-18
4.70062e-18
2.39623e-18
1.18803e-18
6.15103e-19
3.85421e-19
3.09028e-19
2.67285e-19
2.31926e-19
1.7601e-19
1.17372e-19
6.44311e-20
2.78442e-20
9.44799e-21
2.54401e-21
5.50711e-22
9.78864e-23
1.54033e-23
2.50934e-24
4.394e-25
6.34243e-26
6.65192e-27
3.32428e-18
1.63974e-18
8.22111e-19
4.10707e-19
2.00366e-19
1.03303e-19
6.54256e-20
5.29507e-20
4.52849e-20
3.83703e-20
2.80371e-20
1.77834e-20
9.15109e-21
3.66913e-21
1.14731e-21
2.83108e-22
5.58174e-23
8.97213e-24
1.27044e-24
1.86337e-25
2.89542e-26
3.55755e-27
2.81303e-28
5.96319e-19
2.79427e-19
1.36322e-19
6.67984e-20
3.20913e-20
1.65044e-20
1.05824e-20
8.63917e-21
7.29241e-21
6.02261e-21
4.22863e-21
2.54615e-21
1.22559e-21
4.54742e-22
1.30585e-22
2.93975e-23
5.24758e-24
7.56889e-25
9.57655e-26
1.26485e-26
1.74823e-27
1.80393e-28
1.16118e-29
1.01506e-19
4.52836e-20
2.14916e-20
1.0319e-20
4.87842e-21
2.50655e-21
1.63333e-21
1.34713e-21
1.11977e-21
8.9887e-22
6.02698e-22
3.42125e-22
1.52327e-22
5.14636e-23
1.32927e-23
2.65967e-24
4.1587e-25
5.17486e-26
5.69424e-27
6.86629e-28
8.4192e-29
6.47689e-30
9.5365e-31
0.140404
0.147527
0.152165
0.14973
0.106141
0.103465
0.0916974
0.0797822
0.144961
0.135011
0.12133
0.110081
0.182564
0.18246
0.181944
0.181618
0.204883
0.207224
0.213522
0.22251
0.193328
0.201146
0.209123
0.214925
0.0756302
0.090199
0.101622
0.108298
0.000488249
0.00150485
0.00295208
0.00442288
1.50846e-07
2.42595e-07
5.94216e-07
8.36648e-07
6.67021e-08
4.76529e-08
4.67771e-08
3.89071e-08
1.4344e-07
1.53567e-07
1.38994e-07
7.56956e-08
2.27847e-07
2.39612e-07
3.64902e-07
3.64512e-07
1.84702e-07
1.8869e-07
2.46279e-07
3.27389e-07
3.33045e-07
3.54877e-07
1.28796e-07
3.17494e-08
7.45176e-07
5.29123e-07
2.12599e-07
3.279e-08
8.77343e-07
3.72839e-07
1.48331e-07
1.69569e-08
4.61767e-08
3.62157e-08
7.32215e-09
1.975e-09
1.64676e-09
4.27103e-10
3.43937e-10
3.72882e-10
2.38814e-10
2.57847e-10
3.11996e-10
4.19454e-10
2.06375e-10
2.5308e-10
2.98116e-10
3.63479e-10
1.10515e-10
1.52282e-10
1.98012e-10
2.41851e-10
5.99278e-11
6.99681e-11
9.63411e-11
1.20078e-10
2.18896e-11
3.04748e-11
4.12609e-11
5.33546e-11
9.36979e-12
1.25499e-11
1.70299e-11
2.25915e-11
2.89659e-12
3.6597e-12
4.48625e-12
5.24076e-12
6.40644e-13
7.53178e-13
8.4597e-13
8.94229e-13
1.11027e-13
1.20156e-13
1.22896e-13
1.17285e-13
1.56256e-14
1.53786e-14
1.42036e-14
1.2179e-14
1.84389e-15
1.63426e-15
1.35316e-15
1.03756e-15
1.87846e-16
1.48475e-16
1.09397e-16
7.46352e-17
1.67809e-17
1.17347e-17
7.64452e-18
4.61685e-18
1.3314e-18
8.16819e-19
4.66828e-19
2.4776e-19
9.42966e-20
5.02941e-20
2.49884e-20
1.15456e-20
5.97701e-21
2.74127e-21
1.17088e-21
4.65635e-22
3.40234e-22
1.32362e-22
4.79629e-23
1.63214e-23
1.73773e-23
5.64879e-24
1.72417e-24
6.14298e-25
7.88723e-25
2.11544e-25
6.40346e-26
1.19601e-25
3.22834e-26
7.69141e-27
9.34083e-27
7.81651e-26
1.23915e-27
6.64625e-28
4.8863e-27
5.12255e-26
6.02725e-29
2.49564e-28
2.74982e-27
3.18049e-26
1.15308e-29
1.29552e-28
1.70938e-27
2.42067e-26
1.75401e-29
2.55866e-28
3.70914e-27
5.17296e-26
0.0884665
0.0366599
0.0257057
0.0150812
0.0894407
0.364779
0.656649
0.752853
0.764241
0.764247
0.714498
0.440599
0.215973
0.161705
0.167308
0.285758
0.370158
0.441259
0.469122
0.0635632
0.0443697
0.0414276
0.0659311
0.240902
0.498861
0.670591
0.720889
0.742614
0.74652
0.746456
0.640411
0.391374
0.188533
0.156704
0.156769
0.235609
0.314962
0.354029
0.0984702
0.0885277
0.123167
0.240613
0.402588
0.523213
0.559602
0.572276
0.613818
0.704261
0.737017
0.710878
0.552834
0.294414
0.158675
0.161896
0.204584
0.23576
0.239367
0.1867
0.203125
0.266228
0.333946
0.361781
0.364268
0.354073
0.347697
0.369849
0.469782
0.617384
0.679428
0.565259
0.359148
0.203419
0.211804
0.210579
0.209681
0.204231
0.240625
0.262012
0.274748
0.276919
0.274865
0.270484
0.269308
0.272665
0.289977
0.339221
0.431269
0.533053
0.510272
0.325787
0.246104
0.213983
0.179765
0.102467
0.0587344
0.222181
0.226796
0.227079
0.225861
0.225463
0.228643
0.233272
0.23817
0.244845
0.263618
0.300682
0.347747
0.364964
0.278919
0.212243
0.112996
0.027703
0.00130524
0.000222516
0.118421
0.12929
0.130857
0.127776
0.110019
0.103246
0.101439
0.104085
0.107363
0.124799
0.155702
0.185116
0.187
0.138469
0.0516128
0.00249179
5.38103e-06
7.36458e-08
1.3917e-08
0.00649301
0.0082923
0.0086945
0.00839555
0.00550358
0.00375887
0.0030292
0.00322152
0.00345317
0.00510242
0.00971027
0.0145226
0.0100011
0.000779902
6.68766e-06
2.96649e-08
3.56488e-09
2.41732e-09
1.65028e-09
9.32402e-07
9.56846e-07
8.85561e-07
4.5738e-07
1.45975e-07
6.87139e-08
8.6631e-08
1.81015e-07
4.20798e-07
4.10303e-07
1.52841e-07
2.82802e-08
1.50352e-08
1.45066e-08
1.44213e-08
1.63842e-08
5.54693e-09
2.1949e-09
1.16886e-09
3.29825e-08
2.61477e-08
3.00865e-08
5.14379e-08
5.75748e-08
2.60129e-08
8.63292e-09
8.58115e-09
1.77755e-08
2.20923e-08
1.29358e-08
1.33702e-08
1.76674e-08
1.84091e-08
1.69336e-08
1.77604e-08
1.52104e-08
4.7548e-09
1.1806e-09
4.96338e-08
2.55724e-08
2.55617e-08
2.5495e-08
2.85415e-08
3.12588e-08
1.54812e-08
6.68199e-09
6.68138e-09
6.68156e-09
6.79623e-09
1.9713e-08
3.58712e-08
3.74604e-08
2.46304e-08
1.95141e-08
1.39849e-08
5.39559e-09
1.0791e-09
2.81697e-07
9.96131e-08
5.21554e-08
3.56495e-08
1.86972e-08
1.97868e-08
3.23097e-08
2.25731e-08
9.49525e-09
6.79631e-09
1.11569e-08
2.91968e-08
6.82237e-08
7.19759e-08
3.33005e-08
1.34481e-08
7.91073e-09
4.06957e-09
9.51334e-10
3.49758e-07
2.39892e-07
6.16843e-08
4.70064e-08
2.45966e-08
9.3401e-09
2.59095e-08
6.53958e-08
6.36974e-08
3.31126e-08
4.43771e-08
3.73051e-08
7.58232e-08
7.58383e-08
4.57562e-08
1.63265e-08
6.91387e-09
2.00617e-09
8.5831e-10
1.35528e-07
1.43105e-07
4.14637e-08
1.07491e-08
2.22296e-08
1.37867e-08
4.22495e-09
3.82141e-09
3.70135e-08
6.992e-08
7.10064e-08
5.12819e-08
4.43859e-08
6.77749e-08
3.51575e-08
1.60941e-08
6.14783e-09
1.52593e-09
7.4337e-10
9.2303e-09
8.03564e-09
7.85561e-09
4.41816e-09
8.02605e-09
8.05075e-09
4.18404e-09
2.67421e-09
3.92278e-09
1.52719e-08
2.25118e-08
1.81306e-08
9.82885e-09
1.18694e-08
1.79094e-08
9.14328e-09
4.12901e-09
1.46581e-09
7.1677e-10
1.23352e-09
1.10712e-09
2.90509e-09
3.62246e-09
3.75935e-09
4.16367e-09
3.74246e-09
2.29269e-09
3.12432e-09
9.54342e-09
1.28596e-08
1.0795e-08
5.97983e-09
5.78813e-09
4.53873e-09
4.84312e-09
3.01515e-09
1.21005e-09
7.23241e-10
7.53126e-10
1.34246e-09
2.96809e-09
3.74517e-09
4.14687e-09
3.95523e-09
2.98882e-09
1.81007e-09
1.7654e-09
3.64697e-09
7.23966e-09
7.45138e-09
5.46231e-09
3.82178e-09
2.8832e-09
1.84877e-09
9.02044e-10
9.78874e-10
7.22132e-10
9.14959e-10
2.11125e-09
3.50049e-09
4.21865e-09
4.21579e-09
3.311e-09
2.07889e-09
1.18054e-09
7.78508e-10
8.59359e-10
1.69467e-09
2.03889e-09
2.00919e-09
1.45585e-09
8.26147e-10
5.4485e-10
6.43857e-10
8.99382e-10
7.17098e-10
8.31626e-10
2.16048e-09
3.23138e-09
3.28229e-09
2.62389e-09
1.82898e-09
1.17943e-09
6.71785e-10
3.67391e-10
2.66717e-10
1.95693e-10
1.63895e-10
1.54333e-10
2.01396e-10
2.89014e-10
4.45108e-10
6.62927e-10
9.82e-10
6.97849e-10
7.19546e-10
1.68225e-09
2.09528e-09
1.82169e-09
1.34628e-09
8.88017e-10
5.27027e-10
2.79333e-10
1.34315e-10
5.40869e-11
2.40853e-11
2.4421e-11
5.60233e-11
1.52784e-10
2.88504e-10
5.25551e-10
8.44503e-10
1.07682e-09
6.52554e-10
5.1126e-10
1.01672e-09
1.00982e-09
8.10341e-10
5.51889e-10
3.21947e-10
1.65189e-10
7.67293e-11
3.18542e-11
1.30152e-11
8.75923e-12
1.95087e-11
6.28014e-11
2.10211e-10
4.16434e-10
7.6149e-10
1.07784e-09
1.18179e-09
4.83795e-10
2.88682e-10
4.41181e-10
3.83851e-10
2.69588e-10
1.60252e-10
8.14735e-11
3.64714e-11
1.48805e-11
5.63141e-12
2.68461e-12
5.4543e-12
2.37396e-11
8.28692e-11
2.91106e-10
6.10694e-10
1.08024e-09
1.32975e-09
1.23968e-09
3.44308e-10
1.22083e-10
1.33555e-10
1.03355e-10
6.3397e-11
3.25051e-11
1.4199e-11
5.50552e-12
1.96247e-12
7.64283e-13
1.07107e-12
5.80219e-12
2.98537e-11
1.03115e-10
3.64046e-10
9.96592e-10
1.58288e-09
1.52629e-09
1.1412e-09
2.16523e-10
2.97044e-11
2.66739e-11
1.8172e-11
9.89198e-12
4.55167e-12
1.80083e-12
6.34285e-13
2.1744e-13
1.68909e-13
8.72498e-13
6.22964e-12
3.39695e-11
1.20035e-10
4.30563e-10
1.43295e-09
2.02024e-09
1.62981e-09
8.98278e-10
2.06988e-10
5.33261e-12
3.99144e-12
2.34843e-12
1.12341e-12
4.56032e-13
1.6246e-13
5.221e-14
2.42268e-14
8.7846e-14
7.66087e-13
6.00124e-12
3.37317e-11
1.3047e-10
5.05387e-10
1.67937e-09
2.09882e-09
1.5979e-09
8.58837e-10
2.20084e-10
7.38901e-13
4.64975e-13
2.34965e-13
9.87801e-14
3.53467e-14
1.13572e-14
3.80049e-15
5.98157e-15
5.86176e-14
5.9909e-13
4.98397e-12
2.82895e-11
1.26053e-10
4.96669e-10
1.67625e-09
2.0985e-09
1.65843e-09
1.05116e-09
2.47494e-10
7.97693e-14
4.25292e-14
1.85343e-14
6.84036e-15
2.19128e-15
6.59662e-16
3.62965e-16
2.52689e-15
3.50307e-14
3.92816e-13
3.46626e-12
1.87417e-11
6.8275e-11
3.32743e-10
1.20545e-09
2.02609e-09
1.73458e-09
1.18683e-09
2.38246e-10
6.88402e-15
3.12629e-15
1.18332e-15
3.85026e-16
1.12627e-16
3.7485e-17
6.99603e-17
1.00804e-15
1.65679e-14
2.07158e-13
1.95389e-12
9.20285e-12
2.74379e-11
2.21484e-10
8.90615e-10
1.65653e-09
1.71365e-09
1.01691e-09
1.99679e-10
4.91342e-16
1.91152e-16
6.31659e-17
1.83227e-17
5.24805e-18
3.88672e-18
2.50345e-17
3.55173e-16
5.91241e-15
8.51842e-14
8.51965e-13
4.14317e-12
1.35445e-11
1.10569e-10
5.49419e-10
1.13348e-09
1.2019e-09
5.77532e-10
1.22598e-10
2.97711e-17
9.95974e-18
2.88148e-18
7.75405e-19
4.23149e-19
2.20083e-18
2.10095e-17
2.06444e-16
2.21973e-15
3.00328e-14
3.0815e-13
1.59969e-12
5.61895e-12
3.24935e-11
3.15983e-10
7.33051e-10
7.77573e-10
3.07306e-10
6.34665e-11
1.55467e-18
4.47166e-19
1.15755e-19
5.34326e-20
2.80946e-19
2.85969e-18
2.81176e-17
2.45665e-16
1.88574e-15
1.46644e-14
1.1908e-13
6.06416e-13
2.42073e-12
1.22186e-11
1.087e-10
3.74331e-10
3.15679e-10
9.36522e-11
1.79485e-11
7.02411e-20
1.75135e-20
6.67599e-21
3.26471e-20
3.5814e-19
3.87374e-18
3.79031e-17
3.16946e-16
2.18195e-15
1.24911e-14
6.3545e-14
3.05668e-13
1.18103e-12
4.88216e-12
2.62088e-11
6.63629e-11
7.80216e-11
1.3751e-11
3.89774e-12
2.75644e-21
8.24697e-22
3.17339e-21
3.71367e-20
4.37782e-19
4.77591e-18
4.57573e-17
3.69164e-16
2.41517e-15
1.27259e-14
5.30135e-14
2.65308e-13
9.10009e-13
2.79773e-12
8.01371e-12
1.26798e-11
9.39555e-12
2.0938e-12
8.6889e-13
1.08244e-22
2.4996e-22
3.07748e-21
3.94042e-20
4.73947e-19
5.11095e-18
4.74653e-17
3.69072e-16
2.32135e-15
1.19142e-14
5.26294e-14
2.63694e-13
6.57339e-13
1.24653e-12
2.10512e-12
2.36536e-12
1.20151e-12
3.92441e-13
2.78771e-13
1.57986e-23
1.97066e-22
2.74871e-21
3.62254e-20
4.34471e-19
4.57237e-18
4.09586e-17
3.07555e-16
1.87075e-15
9.46496e-15
4.3572e-14
1.92313e-13
4.00879e-13
5.62275e-13
7.05971e-13
6.0188e-13
2.98803e-13
1.5541e-13
1.54333e-13
9.34577e-24
1.44775e-22
2.09252e-21
2.77365e-20
3.27291e-19
3.34762e-18
2.89859e-17
2.10844e-16
1.2428e-15
6.08462e-15
2.33702e-14
9.98745e-14
2.07448e-13
2.4524e-13
2.86857e-13
2.25693e-13
1.264e-13
7.27224e-14
9.38202e-14
5.71818e-24
9.16121e-23
1.34712e-21
1.78127e-20
2.07355e-19
2.0799e-18
1.75573e-17
1.23127e-16
6.89991e-16
3.13004e-15
1.08276e-14
3.59784e-14
8.34228e-14
9.07832e-14
1.04236e-13
8.40134e-14
5.66272e-14
3.33407e-14
5.59517e-14
3.08165e-24
5.06115e-23
7.62826e-22
1.02973e-20
1.22322e-19
1.23973e-18
1.02483e-17
6.72454e-17
3.42716e-16
1.35632e-15
4.26405e-15
1.03788e-14
2.43742e-14
2.72086e-14
2.96496e-14
2.58102e-14
2.01042e-14
1.35688e-14
3.14287e-14
1.50348e-24
2.61332e-23
4.2636e-22
6.268e-21
7.96392e-20
8.19564e-19
6.41128e-18
3.75087e-17
1.67363e-16
5.48236e-16
1.48336e-15
2.71825e-15
5.65083e-15
6.54545e-15
6.9979e-15
6.38393e-15
5.71955e-15
4.77758e-15
1.64095e-14
7.23529e-25
1.48623e-23
2.86375e-22
4.62915e-21
5.91203e-20
5.65435e-19
3.90896e-18
1.95315e-17
7.49451e-17
2.02313e-16
4.76585e-16
7.41146e-16
1.26922e-15
1.43435e-15
1.52567e-15
1.4368e-15
1.48284e-15
1.4841e-15
7.55879e-15
4.71941e-25
1.22282e-23
2.43888e-22
3.55102e-21
3.8293e-20
3.04013e-19
1.76558e-18
7.40932e-18
2.48409e-17
5.77344e-17
1.2398e-16
1.74933e-16
2.64565e-16
2.89665e-16
3.05192e-16
2.90548e-16
3.33936e-16
3.66826e-16
2.57668e-15
6.24623e-25
1.16081e-23
1.61127e-22
1.67109e-21
1.31896e-20
8.03357e-20
3.86817e-19
1.39242e-18
4.20075e-18
8.70545e-18
1.73439e-17
2.28361e-17
3.21529e-17
3.40799e-17
3.51163e-17
3.339e-17
4.20507e-17
5.00735e-17
4.54118e-16
)
;

boundaryField
{
    leftWall
    {
        type            zeroGradient;
    }
    rightWall
    {
        type            zeroGradient;
    }
    lowerWall
    {
        type            zeroGradient;
    }
    atmosphere
    {
        type            inletOutlet;
        inletValue      uniform 0;
        value           nonuniform List<scalar> 
46
(
1.01506e-19
4.52836e-20
2.14916e-20
1.0319e-20
4.87842e-21
2.50655e-21
1.63333e-21
1.34713e-21
1.11977e-21
8.9887e-22
6.02698e-22
3.42125e-22
1.52327e-22
5.14636e-23
1.32927e-23
2.65967e-24
4.1587e-25
5.17486e-26
5.69424e-27
6.86629e-28
8.4192e-29
6.47689e-30
9.5365e-31
0
0
0
0
0
0
0
0
0
0
0
0
0
0
0
0
0
0
0
0
0
0
0
)
;
    }
    defaultFaces
    {
        type            empty;
    }
}


// ************************************************************************* //
