/*--------------------------------*- C++ -*----------------------------------*\
| =========                 |                                                 |
| \\      /  F ield         | OpenFOAM: The Open Source CFD Toolbox           |
|  \\    /   O peration     | Version:  2.4.0                                 |
|   \\  /    A nd           | Web:      www.OpenFOAM.org                      |
|    \\/     M anipulation  |                                                 |
\*---------------------------------------------------------------------------*/
FoamFile
{
    version     2.0;
    format      ascii;
    class       volScalarField;
    location    "1";
    object      p;
}
// * * * * * * * * * * * * * * * * * * * * * * * * * * * * * * * * * * * * * //

dimensions      [1 -1 -2 0 0 0 0];

internalField   nonuniform List<scalar> 
2268
(
7556.97
7223.58
6820.88
6420.01
6063.23
5760.43
5521.6
5344.49
5235.19
5188.75
5196.47
5211.94
5229.4
5241.34
5244.11
5237.18
5220.75
5196.13
5172.28
5151.12
5129.52
5117.01
5092.14
6697.53
6382.25
6010.69
5608.19
5241.26
4942.91
4713.64
4570.77
4456.02
4408.67
4384.92
4390.36
4402.68
4415.16
4424.11
4424.41
4413.83
4396.34
4373.07
4351.51
4330.51
4320.05
4287.75
6103.69
5679.11
5236.07
4804.58
4454.84
4145.38
3885.9
3651.81
3546.4
3512.41
3595.02
3634.49
3668.22
3685.23
3682.76
3667.07
3641.28
3605.03
3569.47
3548.86
3531.89
3528.5
3443.01
5345.74
4907.49
4446.61
3961.67
3525.97
3226.02
3046.64
2977.99
2895.28
2847.49
2797.24
2778.29
2773.33
2786.27
2806.98
2819.67
2811.67
2786.65
2755.35
2741.72
2729.69
2740.75
2776.25
4699.04
4149.1
3622.89
3108.77
2854.79
2554.91
2180.15
1950.25
1837.79
1828.38
1922.15
2034.23
2135.72
2169.33
2150.38
2106.37
2055.18
1980.45
1913.93
1875.6
1860.12
1778.53
1712.29
4211.39
3436.96
2828.7
2182.35
1634.11
1324.32
1201.03
1144.44
1106.15
1085.59
1090.69
1090.47
1087.92
1102.5
1132.97
1169.39
1178.96
1159.62
1121.24
1085.13
1075.16
1139.91
1121.04
3608.7
2678.88
1792.4
1067.78
958.846
919.629
927.203
940.299
938.813
929.176
894.017
849.656
846.446
856.545
873.196
899.531
912.258
931.708
952.538
952.152
925.198
890.802
843.085
2846.21
1700.72
1055.96
901.022
1002.65
1101.91
1118.89
1061.91
1030.37
1024.2
1023.6
1033.75
1018.6
1016.4
1033.92
1045.26
1061.22
1062.08
1043.81
1018.02
1020.65
1096.95
938.113
1125.62
1114.53
1116.33
1109.5
1143.92
1275.99
1588.59
2366.28
2905.97
3023.79
3085.32
3346.76
3771.97
3994.67
4002.29
4543.63
4841.78
4757.48
4837.75
772.101
726.306
668.176
649.586
655.198
612.66
610.321
638.152
970.032
1232.93
1398.16
1858.78
2431.13
2697.29
2777.68
3356.84
3726.59
3720.66
3791.64
798.211
836.174
896.876
994.324
982.159
1113.1
1232.36
1284.62
1268.25
1387.41
1524.79
1827.21
2250.51
2305.96
2504.56
2882.1
3163.94
3109.73
3085.81
762.471
747.987
721.884
702.646
685.52
654.59
678.989
823.349
743.991
625.03
663.905
708.238
873
1153.7
1539
2031.89
2296.74
2262.94
2248.11
740.237
742.957
783.416
836.122
851.014
897.368
925.489
882.08
759.611
695.601
680.647
649.88
615.027
617.848
912.84
1519.47
1733.27
1533.51
1303.9
697.709
704.887
672.396
674.851
664.808
716.908
717.705
794.437
725.319
674.002
675.976
675.728
668.939
593.611
571.578
808.794
877.273
761.408
645.595
657.072
672.756
692.62
726.56
749.113
759.31
764.213
740.667
686.402
634.923
594.592
577.462
553.893
568.998
538.076
503.354
524.881
570.272
610.628
615.388
625.964
626.199
634.718
656.188
679.806
672.417
685.554
648.124
601.345
581.846
574.463
556.862
532.521
538.211
587.21
587.293
600.03
603.641
1601.96
673.932
764.011
802.491
744.403
677.256
669.079
664.23
650.682
613.131
559.969
543.531
546.762
566.057
592.392
617.548
642.622
668.494
695.939
702.438
662.784
640.26
640.466
711.711
388.26
660.831
603.893
657.95
707.901
732.588
727.036
716.512
715.556
719.314
709.854
724.752
751.547
777.951
805.063
830.516
845.207
820.601
802.078
802.948
820.372
687.419
645.883
490.967
568.426
580.914
583.143
579.56
556.265
516.047
468.957
412.87
360.668
342.137
362.919
422.425
491.995
537.989
555.005
552.802
578.892
602.643
599.881
573.395
546.785
611.592
523.246
514.119
510.608
499.07
480.268
446.99
390.823
312.846
243.23
183.621
172.78
227.934
316.206
383.567
428.329
475.509
539.242
565.738
571.819
553.526
508.038
451.303
510.911
472.647
461.777
443.912
418.561
390.406
341.728
318.919
266.892
165.962
41.4713
-18.6238
40.9978
161.285
248.374
326.851
371.292
392.233
423.46
430.548
414.923
383.805
352.86
422.435
405.128
396.811
370.594
334.307
315.137
267.791
222.085
188.044
121.63
40.4707
-27.6212
-11.5509
67.1801
126.119
185.435
231.969
262.467
273.894
210.078
113.862
96.1483
124.761
360.331
341.207
323.761
294.368
259.488
227.803
202.178
176.341
139.88
54.1355
11.6491
-9.54559
22.3532
60.6982
87.5335
121.923
132.777
99.1999
48.5045
20.6586
7.63479
6.83598
10.768
310.041
294.963
285.878
240.509
194.569
165.862
125.496
59.6248
41.8033
11.5762
4.29643
-1.34153
8.94481
71.4757
83.4495
76.4774
43.0187
18.7064
2.66863
2.0615
2.06896
1.93425
1.84912
262.271
242.491
224.219
189.981
143.613
77.3569
18.4966
6.88753
5.8009
4.54993
4.49303
2.91079
2.82341
4.51857
18.5651
14.8218
7.05278
3.37492
3.32385
3.68661
3.73107
3.87424
3.80696
222.884
191.658
168.755
119.333
41.5989
10.4784
3.63112
4.02204
4.22233
4.29327
3.9647
3.88562
3.8064
3.19574
2.74897
2.66436
2.47564
2.80638
2.7384
2.4601
2.16537
2.03897
2.32979
246.305
161.943
115.667
32.3794
7.05345
3.8917
4.52643
4.53692
4.48092
4.28381
3.88387
3.63274
3.44255
3.21602
2.93792
2.69922
2.68426
2.68604
2.45452
2.28289
2.14425
2.04292
2.00807
234.64
130.242
29.3605
5.53786
3.72339
4.33709
4.26509
4.209
4.17819
4.04045
3.80896
3.54571
3.3628
3.17338
3.00394
2.86293
2.73577
2.52825
2.23282
1.96308
1.68925
1.41741
1.63548
179.098
34.8795
4.77048
3.53582
3.83599
3.87038
3.84891
3.87239
3.87402
3.81309
3.64396
3.43064
3.24346
3.08369
2.94657
2.83218
2.68431
2.44878
2.15489
1.85459
1.58017
1.34971
1.48204
49.3904
4.39851
3.31697
3.49225
3.47304
3.41733
3.51528
3.60129
3.62336
3.61227
3.49193
3.33515
3.15732
2.96686
2.79786
2.68932
2.579
2.39038
2.14343
1.86781
1.63901
1.49786
1.62602
8.44287
1.37861
3.15959
3.03695
3.10672
3.15208
3.2992
3.38325
3.41672
3.39694
3.32523
3.20192
3.05183
2.88371
2.74128
2.60189
2.45129
2.28771
2.11297
1.9345
1.81805
1.76578
1.87003
3.44789
1.2916
2.77561
2.5699
2.85945
2.92035
3.08637
3.158
3.19477
3.18686
3.13746
3.05486
2.95085
2.829
2.70128
2.57196
2.43071
2.29023
2.16109
2.05835
2.0073
2.00917
2.09627
2.84077
1.07068
2.62683
2.20421
2.69546
2.7325
2.87757
2.95891
2.99854
2.99881
2.96345
2.90076
2.82823
2.74763
2.65326
2.55409
2.44719
2.34621
2.25842
2.19876
2.16993
2.18513
2.25495
2.5029
0.91822
2.51673
2.11967
2.49837
2.61244
2.71991
2.79252
2.83043
2.83593
2.81242
2.76651
2.71032
2.65041
2.58288
2.51027
2.44108
2.37381
2.31646
2.28647
2.27491
2.28967
2.34471
2.51626
1.58136
2.26769
2.23171
2.40272
2.51022
2.59517
2.65395
2.6859
2.69412
2.67985
2.64775
2.60608
2.55942
2.50967
2.45758
2.4123
2.36935
2.33445
2.31785
2.3149
2.3279
2.36303
2.61473
2.16596
2.27773
2.28611
2.36334
2.43605
2.49548
2.53669
2.56084
2.56854
2.55981
2.53863
2.50928
2.47355
2.43606
2.39817
2.36497
2.33393
2.31095
2.305
2.30595
2.31674
2.34288
2.62613
2.39785
2.34876
2.31668
2.34032
2.37785
2.41183
2.43608
2.45041
2.45451
2.44902
2.43489
2.41312
2.38638
2.35831
2.33053
2.30617
2.28401
2.26972
2.26687
2.2694
2.2795
2.29898
2.60079
2.47859
2.3785
2.32601
2.31681
2.32493
2.33609
2.34498
2.34928
2.34894
2.34378
2.33226
2.31563
2.29635
2.2755
2.2553
2.23746
2.22259
2.2137
2.2113
2.21408
2.22229
2.2366
2.54145
2.47936
2.37473
2.31338
2.28214
2.26791
2.2611
2.25706
2.25299
2.24805
2.24116
2.23062
2.21764
2.20322
2.18775
2.1731
2.16015
2.1497
2.14335
2.14166
2.14399
2.15076
2.1615
2.44107
2.41462
2.32605
2.26714
2.22906
2.20064
2.18115
2.16791
2.15772
2.14893
2.13993
2.12992
2.11903
2.10746
2.0957
2.08474
2.07504
2.06732
2.06275
2.06171
2.06369
2.06883
2.07713
2.3165
2.30066
2.24178
2.19048
2.14933
2.11684
2.09271
2.07472
2.06078
2.04936
2.03892
2.0289
2.01907
2.00929
1.99991
1.99134
1.98386
1.97807
1.97462
1.97403
1.97558
1.9797
1.98613
2.1805
2.16852
2.12999
2.08892
2.0519
2.02087
1.99615
1.97657
1.96088
1.94796
1.93681
1.92676
1.91752
1.90886
1.90093
1.89387
1.88795
1.88348
1.88095
1.88079
1.88163
1.88473
1.88988
2.04024
2.03129
2.00416
1.97324
1.94275
1.91551
1.89243
1.87324
1.85735
1.84406
1.83271
1.82278
1.81398
1.8061
1.79914
1.79313
1.78821
1.78447
1.78214
1.78132
1.7827
1.78539
1.78955
1.8999
1.89312
1.87339
1.85042
1.8262
1.80332
1.78292
1.76524
1.75014
1.73724
1.72618
1.71662
1.7083
1.70103
1.69477
1.68947
1.68519
1.68203
1.6801
1.67948
1.68034
1.68246
1.68586
1.76109
1.75581
1.74124
1.72412
1.70515
1.68641
1.66898
1.65332
1.63955
1.62755
1.61716
1.60816
1.60038
1.59367
1.58796
1.58321
1.57944
1.57665
1.57491
1.5743
1.57494
1.57664
1.5794
1.62413
1.61993
1.60919
1.59626
1.58146
1.56631
1.55173
1.53823
1.52603
1.51521
1.5057
1.49742
1.49025
1.4841
1.4789
1.47461
1.47122
1.46873
1.46716
1.46657
1.46701
1.46834
1.47056
1.48897
1.48566
1.47768
1.46782
1.45628
1.44413
1.43209
1.42065
1.41009
1.40054
1.39205
1.38458
1.37808
1.37251
1.36781
1.36395
1.36089
1.35865
1.35723
1.35664
1.35693
1.35791
1.35969
1.35542
1.35283
1.34685
1.33928
1.33027
1.32055
1.31071
1.30116
1.29217
1.28391
1.27646
1.26985
1.26407
1.25909
1.25488
1.25141
1.24867
1.24665
1.24533
1.24473
1.24486
1.24562
1.24702
1.22323
1.22121
1.2167
1.21086
1.2038
1.19607
1.18809
1.1802
1.17266
1.16563
1.15921
1.15346
1.1484
1.14401
1.14028
1.13721
1.13478
1.13296
1.13176
1.13116
1.13114
1.13172
1.13282
1.09215
1.0906
1.08717
1.08265
1.07714
1.071
1.06458
1.05814
1.0519
1.046
1.04057
1.03565
1.03128
1.02748
1.02425
1.02157
1.01943
1.01781
1.01672
1.01613
1.01604
1.01646
1.01727
0.961983
0.960785
0.958165
0.954678
0.950385
0.945555
0.940434
0.935237
0.930139
0.925275
0.920745
0.916616
0.912928
0.909696
0.906926
0.90462
0.902773
0.901369
0.900398
0.899854
0.899736
0.900038
0.900561
0.832534
0.831625
0.829636
0.826961
0.823642
0.819873
0.815836
0.811698
0.807601
0.803659
0.799957
0.796558
0.793499
0.790804
0.788487
0.786549
0.784979
0.78377
0.782921
0.782425
0.782301
0.782695
0.782805
0.703648
0.702957
0.701458
0.69943
0.696902
0.694011
0.690893
0.687672
0.684456
0.681336
0.678384
0.675656
0.673187
0.671003
0.669114
0.66752
0.666218
0.665207
0.664469
0.663983
0.663707
0.663479
0.663951
0.575202
0.574695
0.573598
0.572101
0.570224
0.568066
0.565723
0.563286
0.560836
0.558443
0.556166
0.554049
0.552125
0.550412
0.548922
0.54766
0.546625
0.545804
0.545183
0.544748
0.54447
0.54433
0.544497
0.447087
0.446731
0.445955
0.444898
0.443569
0.442034
0.440355
0.438601
0.436828
0.435091
0.43343
0.431881
0.430468
0.429202
0.428095
0.427149
0.42636
0.425723
0.425231
0.42487
0.424623
0.424485
0.424446
0.319207
0.318987
0.318479
0.317787
0.316918
0.315911
0.314809
0.313654
0.312484
0.311333
0.310229
0.309195
0.308244
0.307388
0.306633
0.305981
0.305429
0.304976
0.30461
0.304319
0.304084
0.303871
0.303647
0.191471
0.191358
0.191099
0.190741
0.190269
0.189714
0.189106
0.188468
0.187821
0.187184
0.186572
0.185996
0.185467
0.184991
0.184572
0.18421
0.183903
0.183647
0.183436
0.183268
0.183144
0.183085
0.183178
0.0637921
0.0637474
0.0636447
0.0635267
0.0634031
0.0632625
0.0631094
0.0629449
0.0627764
0.0626088
0.0624474
0.0622979
0.062165
0.0620493
0.061949
0.0618629
0.0617878
0.0617192
0.0616529
0.0615769
0.0614738
0.0613127
0.0610198
666.068
662.444
645.838
622.181
618.968
579.986
543.141
504.763
524.62
506.919
487.162
467.527
419.466
402.558
386.191
370.757
335.524
320.489
301.509
286.232
152.876
165.552
167.783
166.499
17.8401
31.1072
49.7645
54.547
1.70808
1.57459
1.95271
3.42691
3.69029
3.58004
3.46944
3.39412
2.7814
3.11399
3.44676
3.77401
2.24477
2.44513
2.67891
2.9043
1.96407
2.19931
2.46593
2.74955
1.8068
2.0521
2.30115
2.55315
1.89113
2.08625
2.28856
2.48968
2.0639
2.20459
2.35283
2.50153
2.2227
2.31757
2.41768
2.51883
2.34302
2.40767
2.47498
2.54136
2.40614
2.44792
2.4891
2.52935
2.40086
2.42821
2.45595
2.48536
2.37096
2.39066
2.41153
2.43326
2.31912
2.33325
2.34796
2.36313
2.25094
2.2613
2.27218
2.28359
2.17215
2.17985
2.1881
2.1966
2.08529
2.09117
2.0975
2.10414
1.99243
1.99702
2.00207
2.00738
1.89498
1.89866
1.9027
1.907
1.79369
1.79669
1.79998
1.80351
1.68927
1.69173
1.69443
1.69734
1.5822
1.58423
1.58645
1.58887
1.47286
1.47452
1.47635
1.47836
1.36155
1.36291
1.36441
1.36606
1.24853
1.24962
1.25084
1.25219
1.134
1.13487
1.13585
1.13693
1.01818
1.01884
1.0196
1.02044
0.901207
0.901695
0.902256
0.902887
0.783219
0.783552
0.783944
0.784388
0.664292
0.664528
0.664789
0.665075
0.544679
0.544804
0.544938
0.54508
0.424493
0.42452
0.424537
0.424542
0.303692
0.303661
0.30359
0.303487
0.182889
0.182713
0.1825
0.182229
0.0607559
0.0605287
0.0602583
0.0599354
563.296
585.828
597.198
627.677
644.026
653.978
651.097
616.707
587.526
543.98
521.283
500.14
477.972
466.932
414.713
379.441
384.674
423.201
449.268
455.349
480.397
503.509
528.934
544.417
545.72
523.404
505.109
485.004
456.925
428.925
412.896
403.541
374.417
328.547
297.198
299.739
331.196
348.525
437.966
430.054
449.414
470.525
473.436
457.903
428.782
401.436
376.398
348.678
325.815
315.474
317.347
293.532
268.192
250.772
244.466
254.986
267.961
354.104
360.1
374.728
384.802
378.242
357.105
330.698
303.37
277.634
251.148
227.427
222.819
235.58
223.818
201.921
177.593
166.855
167.867
172.231
270.367
276.954
284.006
282.235
272.332
254.384
235.947
216.092
195.646
172.677
151.119
149.932
163.866
152.305
132.899
105.958
72.0869
54.8564
50.5611
169.554
179.655
178.083
171.625
160.752
150.313
145.059
132.742
120.555
116.011
119.692
125.635
125.167
97.7615
56.2931
26.81
4.01368
3.73703
5.29968
51.1583
47.7192
49.0433
43.8429
35.7092
31.0307
32.0562
27.5657
23.737
22.7338
25.4101
30.9608
29.9735
18.5918
7.47209
5.05349
4.99251
5.65636
5.5129
5.19016
6.5157
7.21367
6.88149
4.86966
-0.371579
-0.197974
0.395541
0.663156
1.35503
2.06606
3.55085
4.85274
4.49208
4.56191
4.74886
5.3722
5.6564
5.51625
3.35564
3.24512
3.18142
3.23476
3.60083
5.00195
4.5018
4.41902
4.51594
4.26435
3.94431
4.00489
4.30517
4.927
5.37758
5.07122
5.0581
5.05558
5.07151
4.32499
4.93999
5.31001
5.49419
5.51035
5.16927
4.43943
3.88156
3.47503
3.38327
3.60747
3.98118
4.38347
4.70386
4.87788
4.92041
4.98508
5.00515
4.98332
3.26746
3.58903
3.66268
3.61356
3.55073
3.58024
3.64061
3.62101
3.52235
3.32578
3.28311
3.52428
3.9978
4.31678
4.4779
4.57061
4.67342
4.70978
4.71965
3.18893
3.63526
3.90618
4.03675
4.12057
4.18991
4.12575
3.92275
3.64392
3.39046
3.23902
3.391
3.80742
4.05926
4.19509
4.32015
4.44788
4.48507
4.49168
2.94953
3.36612
3.63932
3.77146
3.80613
3.73719
3.60181
3.45574
3.32546
3.22389
3.2183
3.38006
3.67308
3.88977
4.00481
4.10241
4.22219
4.27012
4.27861
2.81115
3.16647
3.39458
3.50641
3.52896
3.51631
3.47607
3.43298
3.38579
3.34489
3.34216
3.42047
3.57884
3.72965
3.82963
3.92559
4.03118
4.07192
4.08162
2.73913
3.00602
3.1772
3.28238
3.33017
3.34148
3.33498
3.31807
3.30083
3.29693
3.31526
3.37312
3.47426
3.58051
3.67093
3.75964
3.84871
3.89019
3.89653
2.68213
2.86984
2.99248
3.07667
3.13866
3.17734
3.19489
3.20157
3.20515
3.21596
3.24104
3.29369
3.36542
3.44433
3.52415
3.59423
3.67176
3.71164
3.71876
2.65101
2.77476
2.86024
2.91888
2.97851
3.0312
3.06307
3.08433
3.10213
3.12374
3.15388
3.19843
3.25474
3.31677
3.37928
3.44209
3.50708
3.54014
3.5465
2.5991
2.68469
2.7502
2.80601
2.8638
2.90986
2.94288
2.96782
2.9917
3.01864
3.04974
3.09001
3.13719
3.18856
3.24004
3.2936
3.34408
3.37312
3.38216
2.53751
2.60511
2.65975
2.70613
2.75285
2.79187
2.82339
2.85099
2.8768
2.90471
2.93576
2.97092
3.01119
3.05281
3.09502
3.13699
3.18314
3.21131
3.21895
2.47052
2.51842
2.56136
2.601
2.63975
2.67421
2.70437
2.73253
2.75931
2.78717
2.81692
2.84691
2.87982
2.91378
2.94685
2.9792
3.01917
3.05276
3.06332
2.38971
2.42637
2.4618
2.49557
2.52791
2.55879
2.5871
2.61394
2.64072
2.66693
2.69377
2.72167
2.74905
2.77613
2.80092
2.82328
2.85314
2.88717
2.90618
2.30353
2.33201
2.36086
2.38908
2.41693
2.44432
2.47044
2.49553
2.52062
2.54527
2.56909
2.59366
2.6184
2.63828
2.65363
2.66871
2.69023
2.72148
2.73732
2.21163
2.23434
2.25818
2.28217
2.30614
2.3304
2.35394
2.37684
2.39983
2.42242
2.44367
2.46459
2.48845
2.50284
2.50844
2.51654
2.53547
2.55933
2.57329
2.11599
2.13442
2.15411
2.17435
2.19516
2.21629
2.23743
2.25803
2.27895
2.29927
2.31862
2.33701
2.35807
2.3701
2.37018
2.37107
2.38826
2.40563
2.41446
2.0169
2.03188
2.04834
2.06554
2.08349
2.10183
2.12065
2.13882
2.15785
2.1758
2.19305
2.21033
2.22832
2.23942
2.23826
2.24393
2.25147
2.26219
2.26627
1.91476
1.92716
1.94087
1.9555
1.97093
1.98682
2.00332
2.01955
2.03575
2.05204
2.06748
2.08294
2.09801
2.10947
2.11486
2.12265
2.12162
2.12119
2.12812
1.80991
1.82023
1.83173
1.84418
1.8574
1.8712
1.8854
1.89967
1.91366
1.92799
1.94146
1.95457
1.96705
1.97851
1.9884
1.99123
1.99222
1.98869
1.9953
1.70266
1.71129
1.72098
1.73156
1.74287
1.7547
1.76695
1.77923
1.79141
1.80337
1.81515
1.82617
1.83615
1.84625
1.85552
1.85899
1.85929
1.85977
1.86629
1.59329
1.60052
1.60869
1.61765
1.6273
1.63743
1.64789
1.65842
1.66882
1.67885
1.68848
1.69763
1.7052
1.71277
1.72021
1.72517
1.72665
1.72982
1.73483
1.48203
1.48808
1.49494
1.50253
1.5107
1.51932
1.52824
1.53724
1.54601
1.55443
1.56225
1.56875
1.57359
1.57736
1.58279
1.59019
1.59469
1.59943
1.6022
1.3691
1.37413
1.37987
1.38622
1.39311
1.40041
1.40794
1.41563
1.42308
1.4301
1.43673
1.44088
1.4429
1.44078
1.44495
1.45638
1.46307
1.46866
1.46923
1.25468
1.25882
1.26355
1.26883
1.27455
1.28065
1.28699
1.29344
1.29982
1.30567
1.312
1.31502
1.31606
1.30764
1.31086
1.32318
1.33258
1.33711
1.33761
1.13893
1.14227
1.14611
1.15041
1.15509
1.16007
1.1653
1.17062
1.17602
1.18095
1.18671
1.18873
1.18789
1.18357
1.18767
1.19609
1.20527
1.20571
1.2071
1.02201
1.02464
1.02767
1.03106
1.03477
1.03872
1.0429
1.04713
1.0515
1.0556
1.0602
1.06234
1.06189
1.0621
1.06835
1.07117
1.07662
1.07605
1.07762
0.90406
0.906043
0.90833
0.910892
0.913695
0.916691
0.919851
0.923052
0.926396
0.929816
0.932725
0.935611
0.935694
0.937829
0.94278
0.94333
0.947744
0.947228
0.948912
0.785215
0.786612
0.788217
0.79001
0.791973
0.794066
0.796309
0.798548
0.800924
0.803381
0.805031
0.807751
0.808144
0.81061
0.815385
0.815807
0.81913
0.818938
0.820678
0.665598
0.666461
0.667437
0.668515
0.66969
0.670948
0.672318
0.673635
0.675201
0.676665
0.678064
0.679927
0.681069
0.68335
0.686956
0.687551
0.690237
0.690855
0.692603
0.545327
0.545699
0.546094
0.546511
0.546959
0.547328
0.547864
0.548441
0.549234
0.550205
0.551202
0.552619
0.55424
0.555961
0.558562
0.559638
0.561718
0.562523
0.564212
0.424529
0.424435
0.424288
0.424041
0.42371
0.423408
0.423331
0.42318
0.423379
0.423761
0.424576
0.425546
0.426722
0.428225
0.430205
0.431364
0.433259
0.434037
0.435915
0.303266
0.302765
0.301996
0.301133
0.300313
0.299383
0.298579
0.297688
0.297384
0.2973
0.29755
0.298249
0.299187
0.300516
0.302311
0.303515
0.305767
0.306202
0.307963
0.181669
0.180635
0.179386
0.177927
0.176345
0.174652
0.173242
0.171644
0.170748
0.170116
0.170102
0.171024
0.172169
0.173637
0.175721
0.176828
0.179489
0.17969
0.181548
0.0593039
0.0580559
0.0564163
0.0544206
0.0521451
0.04963
0.0473115
0.0449195
0.0434394
0.0426226
0.0423846
0.0431967
0.0447984
0.0468714
0.0499073
0.0513528
0.0542495
0.0541298
0.0559187
)
;

boundaryField
{
    leftWall
    {
        type            fixedFluxPressure;
        gradient        uniform 0;
        value           nonuniform List<scalar> 
50
(
7556.97
6697.53
6103.69
5345.74
4699.04
4211.39
3608.7
2846.21
1601.96
711.711
645.883
611.592
510.911
422.435
360.331
310.041
262.271
222.884
246.305
234.64
179.098
49.3904
8.44287
3.44789
2.84077
2.5029
2.51626
2.61473
2.62613
2.60079
2.54145
2.44107
2.3165
2.1805
2.04024
1.8999
1.76109
1.62413
1.48897
1.35542
1.22323
1.09215
0.961983
0.832534
0.703648
0.575202
0.447087
0.319207
0.191471
0.0637921
)
;
    }
    rightWall
    {
        type            fixedFluxPressure;
        gradient        uniform 0;
        value           nonuniform List<scalar> 
50
(
4837.75
3791.64
3085.81
2248.11
1303.9
645.595
610.628
603.641
449.268
348.525
267.961
172.231
50.5611
5.29968
5.5129
5.51625
5.07151
4.98332
4.71965
4.49168
4.27861
4.08162
3.89653
3.71876
3.5465
3.38216
3.21895
3.06332
2.90618
2.73732
2.57329
2.41446
2.26627
2.12812
1.9953
1.86629
1.73483
1.6022
1.46923
1.33761
1.2071
1.07762
0.948912
0.820678
0.692603
0.564212
0.435915
0.307963
0.181548
0.0559187
)
;
    }
    lowerWall
    {
        type            fixedFluxPressure;
        gradient        nonuniform List<scalar> 
62
(
132719
132719
132719
132719
132719
132719
132719
132719
132719
132719
132719
132719
132719
132719
132719
132719
132719
132719
132719
132719
132719
132719
132718
0
0
0
0
0
0
0
0
5381.98
5425.75
5420.48
5391
0
0
0
0
0
0
0
0
30307
17938
18658.6
19790.3
21840.2
29500.8
50025.7
82064
93769.1
94779.2
95799.7
94701.1
94504.2
93837.4
93629.4
93138.3
92627.8
92454.3
92543.6
)
;
        value           nonuniform List<scalar> 
62
(
7955.12
7621.73
7219.03
6818.16
6461.38
6158.58
5919.75
5742.64
5633.34
5586.9
5594.62
5610.09
5627.55
5639.49
5642.26
5635.33
5618.9
5594.28
5570.43
5549.27
5527.67
5515.16
5490.28
5092.14
4287.75
3443.01
2776.25
1712.29
1121.04
843.085
938.113
700.41
697.066
680.426
656.581
1125.62
772.101
798.211
762.471
740.237
697.709
657.072
615.388
1216.54
1168.35
1172.3
1168.87
1209.44
1364.49
1738.67
2612.47
3187.27
3308.12
3372.71
3630.86
4055.47
4276.18
4283.17
4823.04
5119.66
5034.84
5115.37
)
;
    }
    atmosphere
    {
        type            totalPressure;
        U               U.air;
        phi             phi.air;
        rho             rho;
        psi             none;
        gamma           1;
        p0              uniform 0;
        value           nonuniform List<scalar> 
46
(
0
0
0
0
0
0
0
0
0
0
0
0
0
0
0
0
0
0
0
0
0
0
0
-2.86107e-05
-0.000114945
-0.000270945
-0.00050234
-0.00104869
-0.00220777
-0.00380557
-0.0058163
-0.00818735
-0.0108779
-0.0136428
-0.016601
-0.0189509
-0.0211303
-0.0222484
-0.0222343
-0.0214993
-0.0200426
-0.017454
-0.0152021
-0.011668
-0.0102168
-0.00739738
)
;
    }
    defaultFaces
    {
        type            empty;
    }
}


// ************************************************************************* //
