/*--------------------------------*- C++ -*----------------------------------*\
| =========                 |                                                 |
| \\      /  F ield         | OpenFOAM: The Open Source CFD Toolbox           |
|  \\    /   O peration     | Version:  2.4.0                                 |
|   \\  /    A nd           | Web:      www.OpenFOAM.org                      |
|    \\/     M anipulation  |                                                 |
\*---------------------------------------------------------------------------*/
FoamFile
{
    version     2.0;
    format      ascii;
    class       surfaceScalarField;
    location    "1";
    object      phi;
}
// * * * * * * * * * * * * * * * * * * * * * * * * * * * * * * * * * * * * * //

dimensions      [0 3 -1 0 0 0 0];

internalField   nonuniform List<scalar> 
4432
(
-4.14461e-06
4.14461e-06
-8.34849e-06
4.20387e-06
-1.16986e-05
3.35012e-06
-1.37921e-05
2.09354e-06
-1.48534e-05
1.06128e-06
-1.53107e-05
4.57258e-07
-1.51958e-05
-1.14927e-07
-1.51924e-05
-3.35891e-09
-1.55005e-05
3.08089e-07
-1.57157e-05
2.15213e-07
-1.52341e-05
-4.81596e-07
-1.40396e-05
-1.19452e-06
-1.28267e-05
-1.21288e-06
-1.19191e-05
-9.07591e-07
-1.12358e-05
-6.83277e-07
-1.04889e-05
-7.46956e-07
-9.36747e-06
-1.12141e-06
-7.62518e-06
-1.74229e-06
-5.31269e-06
-2.31249e-06
-3.29427e-06
-2.01842e-06
-2.51761e-06
-7.76658e-07
-1.90131e-06
-6.163e-07
-1.90131e-06
-4.13233e-06
8.27695e-06
-8.29176e-06
8.36331e-06
-1.15973e-05
6.65561e-06
-1.39701e-05
4.4664e-06
-1.53778e-05
2.469e-06
-1.58265e-05
9.05878e-07
-1.54239e-05
-5.17529e-07
-1.52564e-05
-1.70784e-07
-1.53244e-05
3.7608e-07
-1.51873e-05
7.80596e-08
-1.46481e-05
-1.02078e-06
-1.38055e-05
-2.0371e-06
-1.28938e-05
-2.12462e-06
-1.21359e-05
-1.66548e-06
-1.14163e-05
-1.40285e-06
-1.03712e-05
-1.79204e-06
-8.98561e-06
-2.50703e-06
-7.09738e-06
-3.63052e-06
-4.93231e-06
-4.47757e-06
-2.94614e-06
-4.00459e-06
-1.18983e-06
-2.53298e-06
-7.75319e-08
-1.7286e-06
-1.97884e-06
-4.14887e-06
1.24258e-05
-7.90947e-06
1.21239e-05
-1.11876e-05
9.93373e-06
-1.40044e-05
7.28327e-06
-1.57396e-05
4.20412e-06
-1.57525e-05
9.18823e-07
-1.55666e-05
-7.03467e-07
-1.52474e-05
-4.89952e-07
-1.53307e-05
4.59396e-07
-1.54112e-05
1.58568e-07
-1.49742e-05
-1.45784e-06
-1.43101e-05
-2.70121e-06
-1.33642e-05
-3.07044e-06
-1.21658e-05
-2.86393e-06
-1.09165e-05
-2.65219e-06
-9.51824e-06
-3.19025e-06
-8.04141e-06
-3.98386e-06
-6.66348e-06
-5.00845e-06
-5.26189e-06
-5.87916e-06
-3.75118e-06
-5.5153e-06
-1.7027e-06
-4.58145e-06
1.94086e-07
-3.62538e-06
-1.78475e-06
-4.89167e-06
1.73175e-05
-9.49453e-06
1.67268e-05
-1.33293e-05
1.37685e-05
-1.59358e-05
9.88978e-06
-1.70866e-05
5.35494e-06
-1.76105e-05
1.44275e-06
-1.72177e-05
-1.09627e-06
-1.66332e-05
-1.07451e-06
-1.56464e-05
-5.27336e-07
-1.50262e-05
-4.61639e-07
-1.49023e-05
-1.58173e-06
-1.45112e-05
-3.09237e-06
-1.39025e-05
-3.67911e-06
-1.27669e-05
-3.99951e-06
-1.11894e-05
-4.22969e-06
-9.47457e-06
-4.90512e-06
-8.03591e-06
-5.42252e-06
-6.6973e-06
-6.34706e-06
-5.47299e-06
-7.10346e-06
-4.16002e-06
-6.82828e-06
-2.30584e-06
-6.43564e-06
-5.36011e-07
-5.39521e-06
-2.32077e-06
-5.88356e-06
2.3201e-05
-1.34417e-05
2.42849e-05
-1.80625e-05
1.83893e-05
-2.09829e-05
1.28101e-05
-2.07311e-05
5.10314e-06
-1.89842e-05
-3.04101e-07
-1.90981e-05
-9.82393e-07
-1.90705e-05
-1.10212e-06
-1.86198e-05
-9.78e-07
-1.85132e-05
-5.683e-07
-1.79836e-05
-2.11135e-06
-1.67842e-05
-4.29176e-06
-1.49989e-05
-5.46434e-06
-1.30469e-05
-5.9515e-06
-1.10048e-05
-6.27181e-06
-9.32865e-06
-6.58129e-06
-7.63574e-06
-7.11543e-06
-6.00612e-06
-7.97668e-06
-4.79929e-06
-8.31029e-06
-4.06761e-06
-7.55995e-06
-2.8642e-06
-7.63904e-06
-6.18187e-07
-7.64122e-06
-2.93895e-06
-1.14355e-05
3.46366e-05
-2.06289e-05
3.34783e-05
-2.3614e-05
2.13744e-05
-2.19633e-05
1.11594e-05
-2.29605e-05
6.10034e-06
-2.37264e-05
4.6185e-07
-2.26687e-05
-2.04016e-06
-2.10267e-05
-2.74405e-06
-1.81263e-05
-3.87844e-06
-1.53037e-05
-3.39091e-06
-1.40068e-05
-3.4082e-06
-1.44679e-05
-3.83072e-06
-1.60235e-05
-3.90872e-06
-1.68793e-05
-5.09574e-06
-1.62741e-05
-6.87696e-06
-1.38679e-05
-8.98752e-06
-1.07836e-05
-1.01998e-05
-7.43611e-06
-1.13242e-05
-4.96082e-06
-1.07856e-05
-4.71951e-06
-7.80127e-06
-7.16047e-06
-5.19809e-06
-6.87124e-06
-7.93046e-06
-9.8102e-06
-1.85994e-05
5.32359e-05
-2.55482e-05
4.04271e-05
-2.44172e-05
2.02435e-05
-2.35638e-05
1.0306e-05
-2.4383e-05
6.91951e-06
-2.50615e-05
1.14043e-06
-2.35027e-05
-3.59902e-06
-1.65638e-05
-9.68291e-06
-7.92147e-06
-1.25208e-05
-7.33147e-07
-1.05792e-05
1.49283e-06
-5.63419e-06
-1.43751e-06
-9.00386e-07
-6.31906e-06
9.72824e-07
-1.15477e-05
1.32896e-07
-1.52594e-05
-3.16528e-06
-1.63641e-05
-7.88283e-06
-1.66196e-05
-9.94429e-06
-1.68542e-05
-1.10895e-05
-1.71212e-05
-1.05187e-05
-1.6968e-05
-7.9545e-06
-1.49039e-05
-7.2622e-06
-1.70888e-05
-5.74555e-06
-2.6899e-05
-2.05082e-05
7.37441e-05
-2.06596e-05
4.05785e-05
-2.27966e-05
2.23805e-05
-4.38635e-05
3.1373e-05
-4.30142e-05
6.07019e-06
-2.51592e-05
-1.67146e-05
-1.06736e-05
-1.80846e-05
-1.51311e-06
-1.88434e-05
3.62678e-06
-1.76607e-05
6.5479e-06
-1.35004e-05
9.87813e-06
-8.96443e-06
1.23689e-05
-3.39112e-06
1.11676e-05
2.17407e-06
5.63811e-06
5.66239e-06
-2.45489e-06
4.92772e-06
-9.65983e-06
-6.7789e-07
-1.47435e-05
-4.86062e-06
-2.01128e-05
-5.72025e-06
-2.4931e-05
-5.70046e-06
-2.68606e-05
-6.02491e-06
-2.42854e-05
-9.83742e-06
-1.6052e-05
-1.3979e-05
-4.2951e-05
5.70781e-06
-5.70782e-06
1.44337e-05
-8.72586e-06
1.85794e-05
-4.14568e-06
2.23594e-05
-3.78001e-06
2.53553e-05
-2.99594e-06
2.48296e-05
5.25665e-07
2.18461e-05
2.98356e-06
1.82324e-05
3.61367e-06
1.87271e-05
-4.94731e-07
1.91924e-05
-4.65313e-07
1.78806e-05
1.31185e-06
1.40108e-05
3.8698e-06
1.31653e-05
8.45543e-07
1.5575e-05
-2.40972e-06
1.2099e-05
3.47597e-06
1.91808e-06
1.01809e-05
-7.46422e-06
9.3823e-06
-8.65769e-06
1.19347e-06
-8.65769e-06
1.37098e-05
-1.94176e-05
2.02825e-05
-1.52985e-05
2.23486e-05
-6.21175e-06
2.15328e-05
-2.96424e-06
2.52197e-05
-6.68289e-06
2.14247e-05
4.32071e-06
1.75778e-05
6.83049e-06
-3.81673e-07
2.15731e-05
-1.2682e-05
1.18056e-05
-1.29884e-05
-1.58935e-07
-1.20137e-05
3.37235e-07
-1.53849e-05
7.24093e-06
-1.92786e-05
4.7393e-06
-1.05665e-05
-1.11218e-05
-2.9613e-06
-4.12925e-06
-6.21219e-06
1.34318e-05
-9.03257e-06
1.22027e-05
-7.85587e-06
1.67727e-08
-1.65136e-05
-6.22842e-06
-1.31892e-05
-4.50774e-06
-1.70192e-05
1.13714e-07
-1.08332e-05
3.32018e-06
-6.17069e-06
-2.01842e-06
-1.3443e-06
-6.09005e-06
8.39234e-06
-1.07001e-05
1.14405e-05
-2.63522e-05
3.72253e-05
-4.40312e-05
2.94845e-05
-4.70948e-05
2.90474e-06
-4.40545e-05
-2.70315e-06
-4.09395e-05
4.12595e-06
-3.60237e-05
-1.76462e-07
-2.78284e-05
-1.93172e-05
-1.41459e-05
-1.78117e-05
-8.74791e-06
8.03378e-06
-8.44624e-06
1.1901e-05
-3.74894e-06
-4.68053e-06
-2.02625e-05
1.25791e-05
-2.57683e-05
1.4392e-05
-1.88321e-05
1.3818e-05
-1.02591e-05
1.31644e-05
-5.51714e-06
1.33106e-05
-1.49047e-06
3.51045e-06
1.81925e-05
-9.1655e-06
2.41165e-05
-1.97649e-05
4.78247e-05
-3.31081e-05
4.28277e-05
-4.23306e-05
1.21272e-05
-4.38961e-05
-1.13766e-06
-4.42459e-05
4.47579e-06
-4.2292e-05
-2.13037e-06
-3.63758e-05
-2.52334e-05
-2.4837e-05
-2.93505e-05
-1.41682e-05
-2.635e-06
-8.39869e-06
6.13152e-06
-2.36272e-06
-1.07165e-05
-2.26252e-05
4.73693e-06
-3.05053e-05
-3.78444e-06
-1.03107e-05
-4.47691e-06
-9.56668e-06
-8.00337e-06
-1.99068e-06
-1.14328e-05
1.93901e-06
-9.72971e-06
1.64894e-05
-3.12198e-06
1.75087e-05
-1.29433e-06
4.5997e-05
-1.15787e-05
5.31121e-05
-1.97494e-05
2.02978e-05
-2.4293e-05
3.40603e-06
-3.35745e-05
1.37573e-05
-3.9745e-05
4.04012e-06
-3.5691e-05
-2.92875e-05
-3.03587e-05
-3.46828e-05
-1.71572e-05
-1.58365e-05
-6.85691e-06
-4.16878e-06
1.00276e-06
-1.85762e-05
-2.16224e-05
7.51476e-06
-3.802e-05
1.19083e-05
-1.47042e-05
1.09834e-05
-8.64183e-06
5.36747e-06
3.62528e-06
-9.91259e-06
1.72191e-05
-1.5477e-05
2.20538e-05
-1.36008e-05
1.56325e-05
1.55335e-06
3.08429e-05
3.12185e-06
5.15436e-05
-9.48062e-06
3.29003e-05
-1.70916e-05
1.1017e-05
-1.66098e-05
1.32755e-05
-1.1541e-05
-1.02874e-06
-2.02112e-05
-2.06172e-05
-2.61433e-05
-2.87508e-05
-1.98747e-05
-2.2105e-05
-7.32909e-06
-1.67144e-05
4.16735e-07
-2.6322e-05
-2.12057e-05
4.79902e-06
-4.2819e-05
1.40818e-06
-1.13134e-05
-5.68491e-06
-1.54874e-06
-1.23001e-05
1.02405e-05
-1.45426e-05
1.94615e-05
-1.60598e-05
2.3571e-05
-1.05617e-05
1.01344e-05
1.88332e-06
1.83979e-05
1.08039e-05
4.2623e-05
3.11156e-06
4.05927e-05
-1.05049e-05
2.46335e-05
-1.41024e-05
1.68729e-05
-1.384e-05
-1.29117e-06
-1.48716e-05
-1.95855e-05
-2.31195e-05
-2.0503e-05
-2.68481e-05
-1.83764e-05
-1.86133e-05
-2.49492e-05
-9.66039e-06
-3.52749e-05
-3.08661e-05
6.37327e-06
-4.91923e-05
3.67325e-06
-8.61335e-06
-6.17597e-07
2.74211e-06
-1.26078e-05
2.22307e-05
-2.10525e-05
2.79061e-05
-1.89254e-05
2.14439e-05
-1.62403e-05
7.44932e-06
-3.31638e-06
5.47396e-06
1.09962e-05
2.83105e-05
1.1474e-05
4.01149e-05
-1.61926e-07
3.62694e-05
-9.2514e-06
2.59624e-05
-1.14652e-05
9.22659e-07
-1.89258e-05
-1.2125e-05
-2.806e-05
-1.13688e-05
-2.92338e-05
-1.72026e-05
-2.67018e-05
-2.74812e-05
-1.59754e-05
-4.60013e-05
-4.68415e-05
-2.94706e-05
0.000103215
-5.30749e-05
6.41828e-05
-5.57801e-05
2.50857e-05
-1.89393e-05
-5.4678e-06
8.3621e-06
-2.12313e-05
1.80612e-05
-2.64137e-05
2.56906e-05
-2.5714e-05
3.48309e-05
-2.79837e-05
4.4842e-05
-2.76717e-05
5.34482e-05
-2.21066e-05
5.28845e-05
-8.40078e-06
4.28186e-05
6.6748e-06
2.73128e-05
1.76799e-05
9.5342e-06
2.3441e-05
-4.69892e-06
1.91608e-05
-1.64756e-05
1.10988e-05
-2.46501e-05
3.31391e-06
-2.6548e-05
-3.82239e-06
-1.86958e-05
-1.35526e-05
-1.56177e-05
-9.10309e-06
-2.90983e-05
3.64318e-06
-5.30647e-05
9.98743e-06
-3.89671e-05
-5.70487e-05
-1.16727e-05
0.000114887
2.48729e-06
5.00228e-05
2.30831e-05
4.48997e-06
3.59295e-05
-1.83142e-05
4.11778e-05
-2.64795e-05
4.47531e-05
-2.9989e-05
5.12085e-05
-3.21693e-05
5.68876e-05
-3.36628e-05
6.03895e-05
-3.11737e-05
6.22611e-05
-2.39782e-05
6.47724e-05
-1.0912e-05
6.32102e-05
8.237e-06
5.33647e-05
2.75254e-05
4.04876e-05
3.63181e-05
2.90384e-05
3.061e-05
1.50173e-05
2.51199e-05
-1.47278e-06
1.9804e-05
-1.08631e-05
5.56796e-06
-2.15173e-05
-2.89838e-06
-3.74406e-05
6.82017e-06
-4.3238e-05
9.44061e-06
-2.65877e-05
-6.66285e-06
-1.91952e-05
-4.63596e-05
2.39596e-05
9.09279e-05
4.48605e-05
2.91218e-05
5.45734e-05
-5.2229e-06
5.60348e-05
-1.97756e-05
5.59491e-05
-2.63939e-05
5.67309e-05
-3.07708e-05
6.18532e-05
-3.72916e-05
6.81088e-05
-3.99184e-05
7.57294e-05
-3.87944e-05
8.31076e-05
-3.13563e-05
8.5248e-05
-1.30524e-05
7.41617e-05
1.93233e-05
5.4456e-05
4.72311e-05
3.58018e-05
5.49723e-05
2.09653e-05
4.54466e-05
1.00151e-05
3.60701e-05
-2.65232e-07
3.00843e-05
-2.2839e-05
2.81417e-05
-6.55607e-05
3.98233e-05
-0.000103218
4.44773e-05
-0.000118118
2.43404e-05
-0.000121209
-3.57184e-06
-2.07804e-05
-0.000119624
4.52108e-05
4.57171e-05
5.64626e-05
1.78701e-05
5.69535e-05
-5.71378e-06
5.39284e-05
-1.67505e-05
5.11045e-05
-2.357e-05
5.04576e-05
-3.01238e-05
5.14219e-05
-3.82559e-05
5.40541e-05
-4.25506e-05
5.3897e-05
-3.86373e-05
5.64478e-05
-3.39071e-05
5.4146e-05
-1.07507e-05
4.23891e-05
3.10801e-05
2.72884e-05
6.23319e-05
1.16493e-05
7.06113e-05
-2.6004e-06
5.96963e-05
-1.88287e-05
5.22984e-05
-4.94124e-05
6.0668e-05
-0.00010457
8.32989e-05
-0.00016162
9.68734e-05
-0.000183505
6.63629e-05
-0.000181978
2.28135e-05
-0.000182026
-3.52422e-06
-1.83645e-05
-0.000184442
3.18113e-05
1.39058e-05
3.64312e-05
1.32501e-05
3.53616e-05
-4.64417e-06
3.2768e-05
-1.41569e-05
2.81762e-05
-1.89782e-05
2.30394e-05
-2.49871e-05
1.56866e-06
-1.67851e-05
-3.11601e-05
-9.82179e-06
-5.10533e-05
-1.87441e-05
-5.40905e-05
-3.08699e-05
-4.76574e-05
-1.71838e-05
-4.25787e-05
2.60015e-05
-4.25134e-05
6.22665e-05
-5.26333e-05
8.07313e-05
-8.40714e-05
9.11344e-05
-0.000137866
0.000106093
-0.000204662
0.000127464
-0.00024191
0.000120546
-0.00024567
0.000100633
-0.000244
6.46932e-05
-0.000243772
2.25853e-05
-0.000234453
-1.28426e-05
-2.62782e-05
-0.00022654
1.25502e-05
1.35563e-06
9.46626e-06
1.63341e-05
4.98152e-06
-1.59429e-07
2.87452e-06
-1.20499e-05
-6.32062e-06
-9.7831e-06
-4.1363e-05
1.00553e-05
-7.90247e-05
2.08766e-05
-0.000105981
1.71345e-05
-0.000124481
-2.44449e-07
-0.000148407
-6.94397e-06
-0.000169227
3.63658e-06
-0.00017173
2.85045e-05
-0.000182801
7.33373e-05
-0.000200657
9.85873e-05
-0.000225693
0.00011617
-0.000250995
0.000131395
-0.000260141
0.00013661
-0.0002675
0.000127905
-0.000265157
9.82908e-05
-0.000279154
7.86899e-05
-0.000301287
4.47187e-05
-0.000294144
-1.99858e-05
-5.04e-05
-0.000270022
-3.49519e-07
1.70515e-06
8.58662e-09
1.5976e-05
-3.73453e-06
3.58368e-06
-1.90061e-05
3.22169e-06
-5.77894e-05
2.90002e-05
-9.17122e-05
4.39781e-05
-0.000102499
3.16634e-05
-0.000114353
2.89882e-05
-0.000137705
2.31083e-05
-0.000197847
5.31979e-05
-0.000236512
4.23011e-05
-0.000244411
3.6404e-05
-0.000248881
7.78067e-05
-0.000257123
0.00010683
-0.000258502
0.000117549
-0.000256471
0.000129365
-0.000253549
0.000133688
-0.000250136
0.000124492
-0.00026072
0.000108875
-0.000281468
9.94377e-05
-0.000286287
4.9538e-05
-0.000288591
-1.76821e-05
-6.49696e-05
-0.000274021
-1.2356e-06
2.94076e-06
-7.35571e-06
2.20961e-05
-2.95574e-05
2.57854e-05
-7.51786e-05
4.88429e-05
-0.00010942
6.32418e-05
-0.000112277
4.68349e-05
-9.20605e-05
1.14469e-05
-0.000108872
4.58e-05
-0.000167101
8.13377e-05
-0.000271355
0.000157452
-0.00029043
6.13751e-05
-0.000270031
1.60055e-05
-0.000256524
6.42999e-05
-0.000248545
9.88498e-05
-0.000245279
0.000114283
-0.000237281
0.000121367
-0.000231276
0.000127683
-0.000268791
0.000162008
-0.000259462
9.95447e-05
-0.000248709
8.8685e-05
-0.000228857
2.96859e-05
-0.000242908
-3.63155e-06
-4.9859e-05
-0.000258018
1.40612e-06
1.53463e-06
-1.92038e-05
4.2706e-05
-6.32002e-05
6.97818e-05
-0.000104864
9.05072e-05
-0.000119495
7.78718e-05
-0.000121574
4.89148e-05
-0.000132511
2.2384e-05
-0.000142835
5.61232e-05
-0.000183501
0.000122004
-0.00024128
0.000215231
-0.000302961
0.000123058
-0.000292183
5.22655e-06
-0.000255423
2.75396e-05
-0.000227628
7.10553e-05
-0.000216591
0.000103246
-0.00020109
0.000105866
-0.000225495
0.000152087
-0.000249878
0.000186391
-0.00029651
0.000146177
-0.000276198
6.83729e-05
-0.000263232
1.67195e-05
-0.000241308
-2.55555e-05
-7.06974e-05
-0.00022047
-1.87424e-05
2.0277e-05
-5.5847e-05
7.98107e-05
-9.25275e-05
0.000106462
-0.000106109
0.000104089
-0.000106775
7.85372e-05
-0.000124672
6.68122e-05
-0.000164012
6.1724e-05
-0.00020145
9.3561e-05
-0.000190897
0.000111451
-0.00015594
0.000180274
-0.000180851
0.000147969
-0.000234947
5.93224e-05
-0.00024162
3.42126e-05
-0.00023384
6.32748e-05
-0.000209328
7.87341e-05
-0.000203895
0.000100433
-0.00021842
0.000166612
-0.000229449
0.00019742
-0.000250038
0.000166766
-0.000273739
9.20738e-05
-0.000318528
6.15087e-05
-0.000350892
6.80842e-06
-8.49779e-05
-0.000336611
-5.29018e-05
7.31788e-05
-8.49706e-05
0.000111879
-9.73879e-05
0.00011888
-0.00010286
0.000109561
-0.000134001
0.000109677
-0.000177715
0.000110526
-0.000186331
7.03402e-05
-0.000172547
7.97772e-05
-0.000155221
9.41243e-05
-0.00012445
0.000149503
-0.000124998
0.000148517
-0.000159751
9.40746e-05
-0.000186344
6.08064e-05
-0.000188385
6.53158e-05
-0.000193012
8.33608e-05
-0.000210772
0.000118193
-0.000216137
0.000171978
-0.000210371
0.000191654
-0.000215887
0.000172282
-0.000239774
0.000115961
-0.000251572
7.33067e-05
-0.000247315
2.55084e-06
-7.69425e-05
-0.00025535
-6.54691e-05
0.000138648
-8.50454e-05
0.000131456
-0.000108625
0.000142459
-0.000143158
0.000144094
-0.000191235
0.000157754
-0.000189372
0.000108663
-0.000192845
7.38135e-05
-0.000175744
6.2676e-05
-0.000150929
6.93099e-05
-0.000122305
0.000120879
-0.000116188
0.0001424
-0.000142263
0.000120149
-0.0001691
8.76433e-05
-0.000184457
8.06731e-05
-0.000191149
9.00525e-05
-0.000192915
0.000119959
-0.000182811
0.000161874
-0.000164733
0.000173576
-0.000150459
0.000158009
-0.000152366
0.000117867
-0.000148729
6.96695e-05
-0.000144164
-2.01382e-06
-8.96659e-05
-0.000131441
-4.86825e-05
0.00018733
-8.81646e-05
0.000170938
-0.000121491
0.000175786
-0.000163414
0.000186017
-0.000180728
0.000175068
-0.000169914
9.78494e-05
-0.000159504
6.34035e-05
-0.000145168
4.83402e-05
-0.000130396
5.4538e-05
-0.000106288
9.67713e-05
-9.98097e-05
0.000135921
-0.000121676
0.000142015
-0.000153298
0.000119265
-0.000170602
9.79766e-05
-0.000175782
9.52332e-05
-0.000165724
0.000109901
-0.000137112
0.000133262
-0.000105299
0.000141764
-7.70635e-05
0.000129773
-5.76572e-05
9.84612e-05
-4.21729e-05
5.41852e-05
-2.94476e-05
-1.47391e-05
-0.000103333
-1.57801e-05
-2.42902e-05
0.000211621
-9.45434e-05
0.000241191
-0.000136457
0.000217699
-0.000144106
0.000193665
-0.00011321
0.000144172
-9.21782e-05
7.68176e-05
-8.93477e-05
6.0573e-05
-0.000100389
5.93817e-05
-0.000109245
6.33938e-05
-8.98374e-05
7.73637e-05
-6.0262e-05
0.000106346
-4.93557e-05
0.000131109
-7.25157e-05
0.000142425
-0.000107031
0.000132492
-0.000126682
0.000114884
-0.000122934
0.000106152
-9.61831e-05
0.000106512
-5.78753e-05
0.000103456
-1.67329e-05
8.86303e-05
1.95242e-05
6.22041e-05
5.68447e-05
1.68648e-05
8.00114e-05
-3.79058e-05
-0.000112763
8.94407e-05
-0.000128163
0.000339784
-0.00014939
0.000262417
-0.000129502
0.000197811
-8.88395e-05
0.000153003
-3.89962e-05
9.43285e-05
-2.13066e-05
5.9128e-05
-1.94066e-05
5.86729e-05
-2.74978e-05
6.74729e-05
-4.36542e-05
7.95502e-05
-5.0432e-05
8.41416e-05
-3.57488e-05
9.16627e-05
-8.30685e-06
0.000103667
1.50894e-05
0.000119029
2.08326e-05
0.000126749
1.26335e-05
0.000123083
6.08878e-06
0.000112697
1.25829e-05
0.000100017
3.61644e-05
7.98745e-05
6.91286e-05
5.5666e-05
9.93993e-05
3.19334e-05
0.000127427
-1.11625e-05
0.000145491
-5.59702e-05
-0.00011026
0.000142988
-0.000115882
0.000455666
-0.000124129
0.000270663
-8.4135e-05
0.000157818
-3.31068e-05
0.000101974
-6.70781e-06
6.79295e-05
5.23375e-06
4.71864e-05
1.02941e-05
5.36126e-05
1.34755e-05
6.42916e-05
1.21725e-05
8.08532e-05
5.77099e-06
9.0543e-05
2.33835e-06
9.50954e-05
1.23272e-05
9.36782e-05
3.51117e-05
9.62445e-05
6.20278e-05
9.98329e-05
8.16521e-05
0.000103459
9.75307e-05
9.68184e-05
0.000109134
8.84139e-05
0.00012227
6.67387e-05
0.000136279
4.16565e-05
0.000153624
1.4589e-05
0.000169509
-2.70473e-05
0.000174153
-6.06147e-05
-0.000101126
0.00016502
-4.68835e-05
0.00050255
-2.30622e-05
0.000246842
-2.21712e-05
0.000156927
5.81038e-06
7.39928e-05
1.48385e-05
5.89014e-05
1.79688e-05
4.40562e-05
2.3918e-05
4.76633e-05
3.20284e-05
5.61812e-05
4.07911e-05
7.20905e-05
4.36895e-05
8.76446e-05
4.31985e-05
9.55864e-05
4.45264e-05
9.23503e-05
5.32329e-05
8.7538e-05
7.09236e-05
8.21422e-05
9.28902e-05
8.14921e-05
0.00011609
7.36187e-05
0.000137084
6.74195e-05
0.000151025
5.27985e-05
0.000160192
3.24891e-05
0.00016822
6.56066e-06
0.000173177
-3.20036e-05
0.000174248
-6.16864e-05
-9.3643e-05
0.000166765
5.51888e-06
0.000497031
2.12694e-05
0.000231091
2.80821e-05
0.000150114
2.42264e-05
7.78485e-05
2.91537e-05
5.39741e-05
3.04199e-05
4.27899e-05
3.44031e-05
4.36801e-05
4.13264e-05
4.92579e-05
5.23194e-05
6.10975e-05
6.16601e-05
7.83039e-05
6.71831e-05
9.00634e-05
7.01286e-05
8.94049e-05
7.5614e-05
8.20525e-05
8.56644e-05
7.20918e-05
0.000100743
6.64139e-05
0.00011602
5.83409e-05
0.00013364
4.97995e-05
0.000147903
3.85355e-05
0.000157318
2.30747e-05
0.000161544
2.33469e-06
0.000158775
-2.92353e-05
0.000153958
-5.68686e-05
-7.81657e-05
0.00013848
6.72067e-05
0.000429825
5.29308e-05
0.000245367
5.38605e-05
0.000149184
4.37059e-05
8.8003e-05
4.23934e-05
5.52866e-05
4.23388e-05
4.28445e-05
4.41402e-05
4.18787e-05
4.7685e-05
4.57131e-05
5.5485e-05
5.32975e-05
6.65461e-05
6.72429e-05
7.59037e-05
8.07058e-05
8.2348e-05
8.29605e-05
8.88577e-05
7.55428e-05
9.57856e-05
6.5164e-05
0.000105573
5.66263e-05
0.000113829
5.00848e-05
0.000123269
4.03602e-05
0.000134195
2.76093e-05
0.00014085
1.64191e-05
0.000144688
-1.5032e-06
0.00014146
-2.60069e-05
0.000131477
-4.68858e-05
-6.30774e-05
0.000116389
7.50816e-05
0.000354743
7.25819e-05
0.000247867
6.50595e-05
0.000156707
5.85298e-05
9.45327e-05
5.56581e-05
5.81583e-05
5.36579e-05
4.48446e-05
5.28525e-05
4.26841e-05
5.32893e-05
4.52763e-05
5.59079e-05
5.06789e-05
6.42974e-05
5.88534e-05
7.51765e-05
6.98266e-05
8.46915e-05
7.34455e-05
9.21861e-05
6.80483e-05
9.79774e-05
5.93726e-05
0.000103644
5.09602e-05
0.000108898
4.48304e-05
0.000114712
3.45463e-05
0.000119954
2.23667e-05
0.000124018
1.23559e-05
0.000127101
-4.58606e-06
0.000123786
-2.2692e-05
0.000115888
-3.89884e-05
-5.20179e-05
0.000104829
6.13444e-05
0.000293399
7.4045e-05
0.000235166
7.41601e-05
0.000156592
7.19387e-05
9.67541e-05
6.77932e-05
6.23038e-05
6.3515e-05
4.91228e-05
6.00659e-05
4.61332e-05
5.79895e-05
4.73526e-05
5.78925e-05
5.07759e-05
6.19398e-05
5.48061e-05
7.07222e-05
6.10443e-05
8.08892e-05
6.32785e-05
8.87563e-05
6.01811e-05
9.42678e-05
5.38612e-05
9.82561e-05
4.69719e-05
0.000102821
4.02652e-05
0.000107195
3.01724e-05
0.000110057
1.95049e-05
0.000113432
8.98073e-06
0.000114448
-5.60168e-06
0.000110678
-1.89222e-05
0.000103874
-3.21842e-05
-4.32761e-05
9.51319e-05
5.13769e-05
0.000242022
7.50751e-05
0.000211468
8.21868e-05
0.00014948
8.11496e-05
9.77913e-05
7.58159e-05
6.76375e-05
6.96523e-05
5.52865e-05
6.44831e-05
5.13024e-05
6.11111e-05
5.07247e-05
6.00422e-05
5.18448e-05
6.17828e-05
5.30656e-05
6.75614e-05
5.52657e-05
7.52344e-05
5.56055e-05
8.19734e-05
5.34421e-05
8.72735e-05
4.8561e-05
9.13586e-05
4.28868e-05
9.57664e-05
3.58574e-05
9.93452e-05
2.65936e-05
0.000101647
1.72031e-05
0.000103426
7.20178e-06
0.000102744
-4.91996e-06
9.91931e-05
-1.53711e-05
9.34617e-05
-2.64528e-05
-3.5682e-05
8.58677e-05
4.42757e-05
0.000197746
7.25307e-05
0.000183213
8.31807e-05
0.00013883
8.28858e-05
9.80862e-05
7.74613e-05
7.3062e-05
7.07497e-05
6.1998e-05
6.53874e-05
5.66647e-05
6.19439e-05
5.41681e-05
6.07763e-05
5.30124e-05
6.16936e-05
5.21482e-05
6.51098e-05
5.18496e-05
7.00808e-05
5.06345e-05
7.53353e-05
4.81877e-05
8.00331e-05
4.38632e-05
8.4134e-05
3.87859e-05
8.80093e-05
3.1982e-05
9.07743e-05
2.38286e-05
9.25763e-05
1.54011e-05
9.33304e-05
6.44774e-06
9.18563e-05
-3.44588e-06
8.89028e-05
-1.24176e-05
8.41791e-05
-2.17291e-05
-2.93753e-05
7.78724e-05
3.61141e-05
0.000161632
6.22634e-05
0.000157064
7.52321e-05
0.000125861
7.69376e-05
9.63807e-05
7.24294e-05
7.75703e-05
6.7177e-05
6.72503e-05
6.31186e-05
6.07231e-05
6.06389e-05
5.66478e-05
5.97946e-05
5.38568e-05
6.03243e-05
5.16185e-05
6.24879e-05
4.9686e-05
6.58083e-05
4.73141e-05
6.97127e-05
4.42832e-05
7.35986e-05
3.99773e-05
7.72683e-05
3.51162e-05
8.04337e-05
2.88167e-05
8.24923e-05
2.177e-05
8.37096e-05
1.41837e-05
8.37707e-05
6.38661e-06
8.23136e-05
-1.98879e-06
7.99674e-05
-1.00714e-05
7.61364e-05
-1.7898e-05
-2.43713e-05
7.11324e-05
2.67794e-05
0.000134853
4.93334e-05
0.00013451
6.16323e-05
0.000113563
6.48562e-05
9.31568e-05
6.34588e-05
7.89677e-05
6.10982e-05
6.96109e-05
5.90009e-05
6.28204e-05
5.77086e-05
5.79401e-05
5.74363e-05
5.41291e-05
5.81193e-05
5.09354e-05
5.97786e-05
4.80266e-05
6.2158e-05
4.49347e-05
6.50458e-05
4.13954e-05
6.79702e-05
3.70529e-05
7.08173e-05
3.22691e-05
7.31528e-05
2.64811e-05
7.47851e-05
2.01377e-05
7.56923e-05
1.32765e-05
7.56028e-05
6.47614e-06
7.44551e-05
-8.41131e-07
7.2443e-05
-8.05928e-06
6.92186e-05
-1.46736e-05
-2.04559e-05
6.53032e-05
1.91626e-05
0.00011569
3.74374e-05
0.000116235
4.87863e-05
0.000102214
5.33273e-05
8.86158e-05
5.44214e-05
7.78735e-05
5.43084e-05
6.97238e-05
5.39133e-05
6.32156e-05
5.37661e-05
5.80873e-05
5.41008e-05
5.37944e-05
5.50254e-05
5.00109e-05
5.64916e-05
4.65604e-05
5.84254e-05
4.30009e-05
6.07009e-05
3.912e-05
6.29553e-05
3.47985e-05
6.51597e-05
3.00648e-05
6.69328e-05
2.4708e-05
6.81122e-05
1.89583e-05
6.85786e-05
1.28101e-05
6.83801e-05
6.67467e-06
6.73513e-05
1.8766e-07
6.54931e-05
-6.20102e-06
6.29723e-05
-1.21528e-05
-1.74701e-05
5.99865e-05
1.40761e-05
0.000101614
2.85269e-05
0.000101784
3.82853e-05
9.24552e-05
4.35865e-05
8.33146e-05
4.63011e-05
7.51589e-05
4.77532e-05
6.82717e-05
4.86266e-05
6.23422e-05
4.93829e-05
5.73309e-05
5.02714e-05
5.29059e-05
5.14289e-05
4.88534e-05
5.28727e-05
4.51166e-05
5.45456e-05
4.1328e-05
5.63392e-05
3.73263e-05
5.80998e-05
3.30379e-05
5.97286e-05
2.8436e-05
6.10117e-05
2.34248e-05
6.18656e-05
1.81045e-05
6.22037e-05
1.24719e-05
6.19982e-05
6.88018e-06
6.10891e-05
1.09681e-06
5.95673e-05
-4.67925e-06
5.73963e-05
-9.98177e-06
-1.49823e-05
5.49084e-05
1.08451e-05
9.07691e-05
2.21042e-05
9.05251e-05
3.03484e-05
8.4211e-05
3.58129e-05
7.78501e-05
3.93552e-05
7.16166e-05
4.17403e-05
6.58866e-05
4.34459e-05
6.06366e-05
4.48426e-05
5.59343e-05
4.61557e-05
5.15928e-05
4.74886e-05
4.75205e-05
4.89362e-05
4.3669e-05
5.04478e-05
3.98165e-05
5.19808e-05
3.57933e-05
5.34295e-05
3.15892e-05
5.47317e-05
2.71338e-05
5.57442e-05
2.24123e-05
5.63652e-05
1.74834e-05
5.65053e-05
1.23318e-05
5.62036e-05
7.18185e-06
5.53652e-05
1.93524e-06
5.40083e-05
-3.32235e-06
5.2265e-05
-8.23848e-06
-1.2925e-05
5.02077e-05
8.66897e-06
8.21002e-05
1.75238e-05
8.16702e-05
2.45223e-05
7.72126e-05
2.97642e-05
7.26082e-05
3.36078e-05
6.7773e-05
3.64685e-05
6.30259e-05
3.8657e-05
5.8448e-05
4.04538e-05
5.41375e-05
4.20299e-05
5.00166e-05
4.34912e-05
4.60592e-05
4.49272e-05
4.22329e-05
4.63344e-05
3.84093e-05
4.76658e-05
3.44619e-05
4.8886e-05
3.0369e-05
4.99182e-05
2.61016e-05
5.06822e-05
2.16483e-05
5.11245e-05
1.70412e-05
5.11907e-05
1.22656e-05
5.09019e-05
7.4707e-06
5.01957e-05
2.64145e-06
4.90583e-05
-2.18497e-06
4.75473e-05
-6.72741e-06
-1.11329e-05
4.57552e-05
7.09339e-06
7.50068e-05
1.42362e-05
7.45274e-05
2.01967e-05
7.12521e-05
2.50269e-05
6.7778e-05
2.88463e-05
6.39536e-05
3.18696e-05
6.00027e-05
3.42884e-05
5.60292e-05
3.62988e-05
5.21271e-05
3.80221e-05
4.82934e-05
3.95573e-05
4.45241e-05
4.09862e-05
4.08041e-05
4.23119e-05
3.70835e-05
4.35109e-05
3.3263e-05
4.45666e-05
2.93132e-05
4.5416e-05
2.52523e-05
4.60229e-05
2.10414e-05
4.63548e-05
1.67093e-05
4.63696e-05
1.22509e-05
4.60522e-05
7.78813e-06
4.53888e-05
3.30483e-06
4.43815e-05
-1.17772e-06
4.30948e-05
-5.44062e-06
-9.58667e-06
4.15486e-05
5.89594e-06
6.91108e-05
1.17756e-05
6.86477e-05
1.6891e-05
6.61366e-05
2.12468e-05
6.34222e-05
2.48691e-05
6.03313e-05
2.7864e-05
5.70077e-05
3.0345e-05
5.35482e-05
3.24314e-05
5.00407e-05
3.42145e-05
4.65103e-05
3.57701e-05
4.29684e-05
3.71634e-05
3.94108e-05
3.84124e-05
3.58344e-05
3.95061e-05
3.21693e-05
4.04282e-05
2.83911e-05
4.11538e-05
2.45267e-05
4.1653e-05
2.05422e-05
4.19086e-05
1.64536e-05
4.18777e-05
1.22818e-05
4.15685e-05
8.09726e-06
4.09663e-05
3.90713e-06
4.00637e-05
-2.75142e-07
3.89164e-05
-4.2933e-06
-8.21949e-06
3.75492e-05
4.95819e-06
6.41527e-05
9.88146e-06
6.37245e-05
1.42983e-05
6.17198e-05
1.81847e-05
5.95358e-05
2.15297e-05
5.69862e-05
2.43829e-05
5.41546e-05
2.68065e-05
5.11246e-05
2.88738e-05
4.79734e-05
3.06479e-05
4.47361e-05
3.21812e-05
4.14351e-05
3.3516e-05
3.8076e-05
3.46801e-05
3.46704e-05
3.56694e-05
3.118e-05
3.64784e-05
2.7582e-05
3.70982e-05
2.39069e-05
3.75094e-05
2.0131e-05
3.77027e-05
1.62603e-05
3.76526e-05
1.2332e-05
3.73487e-05
8.40118e-06
3.67894e-05
4.46645e-06
3.59644e-05
5.49788e-07
3.49545e-05
-3.28331e-06
-7.00509e-06
3.37401e-05
4.2015e-06
5.99511e-05
8.37197e-06
5.9554e-05
1.21964e-05
5.78953e-05
1.56402e-05
5.6092e-05
1.86807e-05
5.39458e-05
2.13341e-05
5.15012e-05
2.36296e-05
4.8829e-05
2.56099e-05
4.59931e-05
2.73137e-05
4.30323e-05
2.87843e-05
3.99645e-05
3.00443e-05
3.6816e-05
3.11262e-05
3.35885e-05
3.20323e-05
3.02739e-05
3.27573e-05
2.68571e-05
3.32972e-05
2.3367e-05
3.3638e-05
1.97902e-05
3.376e-05
1.61383e-05
3.36616e-05
1.24304e-05
3.33545e-05
8.70829e-06
3.28388e-05
4.98219e-06
3.21043e-05
1.28425e-06
3.11933e-05
-2.37227e-06
-5.91282e-06
3.0101e-05
3.5778e-06
5.63733e-05
7.14005e-06
5.59918e-05
1.04557e-05
5.45797e-05
1.34921e-05
5.30557e-05
1.62226e-05
5.12152e-05
1.86427e-05
4.90811e-05
2.07651e-05
4.67067e-05
2.26149e-05
4.41433e-05
2.42135e-05
4.14338e-05
2.55882e-05
3.85897e-05
2.67644e-05
3.56398e-05
2.77592e-05
3.25937e-05
2.85788e-05
2.94543e-05
2.92179e-05
2.6218e-05
2.96802e-05
2.29048e-05
2.99566e-05
1.95137e-05
3.00475e-05
1.60474e-05
2.99397e-05
1.25382e-05
2.96275e-05
9.02048e-06
2.91225e-05
5.48726e-06
2.84384e-05
1.96836e-06
2.7596e-05
-1.52987e-06
-4.92685e-06
2.661e-05
3.05947e-06
5.33139e-05
6.11702e-06
5.29342e-05
8.99862e-06
5.16981e-05
1.16624e-05
5.0392e-05
1.4086e-05
4.87916e-05
1.62599e-05
4.69071e-05
1.81832e-05
4.47834e-05
1.98635e-05
4.2463e-05
2.13225e-05
3.99748e-05
2.25718e-05
3.73404e-05
2.36306e-05
3.4581e-05
2.45081e-05
3.17163e-05
2.52204e-05
2.8742e-05
2.57717e-05
2.56667e-05
2.61655e-05
2.2511e-05
2.63953e-05
1.92839e-05
2.64501e-05
1.59926e-05
2.63277e-05
1.26606e-05
2.60452e-05
9.30297e-06
2.55887e-05
5.94373e-06
2.49531e-05
2.60402e-06
2.41732e-05
-7.49968e-07
-4.01202e-06
2.32583e-05
2.62089e-06
5.0693e-05
5.23934e-06
5.03157e-05
7.7193e-06
4.92181e-05
1.00384e-05
4.80728e-05
1.21728e-05
4.66573e-05
1.41071e-05
4.49728e-05
1.58346e-05
4.30559e-05
1.7358e-05
4.09396e-05
1.86917e-05
3.86411e-05
1.98363e-05
3.61959e-05
2.08029e-05
3.36143e-05
2.16032e-05
3.09161e-05
2.22358e-05
2.81093e-05
2.2698e-05
2.52045e-05
2.29931e-05
2.22159e-05
2.31226e-05
1.91544e-05
2.30867e-05
1.60285e-05
2.29067e-05
1.28407e-05
2.25837e-05
9.6259e-06
2.21304e-05
6.39704e-06
2.15608e-05
3.17366e-06
2.08544e-05
-4.35285e-08
-3.1775e-06
2.00198e-05
2.23011e-06
4.84629e-05
4.48611e-06
4.80597e-05
6.64321e-06
4.7061e-05
8.66344e-06
4.60526e-05
1.05311e-05
4.47896e-05
1.2233e-05
4.32709e-05
1.37613e-05
4.15275e-05
1.51124e-05
3.95885e-05
1.62834e-05
3.74701e-05
1.7282e-05
3.51972e-05
1.81135e-05
3.27829e-05
1.87852e-05
3.02444e-05
1.93094e-05
2.7585e-05
1.96938e-05
2.48201e-05
1.99362e-05
2.19736e-05
2.00397e-05
1.90509e-05
2.00008e-05
1.60673e-05
1.9799e-05
1.30425e-05
1.94359e-05
9.989e-06
1.8938e-05
6.89489e-06
1.83266e-05
3.78511e-06
1.7618e-05
6.65052e-07
-2.41217e-06
1.68527e-05
1.91635e-06
4.65465e-05
3.80671e-06
4.61694e-05
5.6039e-06
4.52638e-05
7.29258e-06
4.43639e-05
8.86519e-06
4.3217e-05
1.03126e-05
4.18234e-05
1.16337e-05
4.02065e-05
1.2828e-05
3.83942e-05
1.38884e-05
3.64097e-05
1.48053e-05
3.42803e-05