/*--------------------------------*- C++ -*----------------------------------*\
| =========                 |                                                 |
| \\      /  F ield         | OpenFOAM: The Open Source CFD Toolbox           |
|  \\    /   O peration     | Version:  2.4.0                                 |
|   \\  /    A nd           | Web:      www.OpenFOAM.org                      |
|    \\/     M anipulation  |                                                 |
\*---------------------------------------------------------------------------*/
FoamFile
{
    version     2.0;
    format      ascii;
    class       surfaceScalarField;
    location    "1";
    object      phi.mercury;
}
// * * * * * * * * * * * * * * * * * * * * * * * * * * * * * * * * * * * * * //

dimensions      [0 3 -1 0 0 0 0];

internalField   nonuniform List<scalar> 
4432
(
-4.14461e-06
4.14461e-06
-8.34849e-06
4.20387e-06
-1.16986e-05
3.35012e-06
-1.37921e-05
2.09354e-06
-1.48534e-05
1.06129e-06
-1.53107e-05
4.57258e-07
-1.51958e-05
-1.14927e-07
-1.51924e-05
-3.35892e-09
-1.55005e-05
3.08089e-07
-1.57157e-05
2.15213e-07
-1.52341e-05
-4.81596e-07
-1.40396e-05
-1.19452e-06
-1.28267e-05
-1.21288e-06
-1.19191e-05
-9.07591e-07
-1.12358e-05
-6.83278e-07
-1.04889e-05
-7.46956e-07
-9.36747e-06
-1.12141e-06
-7.62518e-06
-1.74229e-06
-5.31269e-06
-2.31249e-06
-3.29427e-06
-2.01842e-06
-2.51761e-06
-7.7666e-07
-1.90131e-06
-6.16309e-07
-1.90132e-06
-4.13233e-06
8.27694e-06
-8.29176e-06
8.36331e-06
-1.15973e-05
6.65561e-06
-1.39701e-05
4.4664e-06
-1.53778e-05
2.469e-06
-1.58265e-05
9.05878e-07
-1.54239e-05
-5.17529e-07
-1.52564e-05
-1.70784e-07
-1.53244e-05
3.7608e-07
-1.51873e-05
7.80596e-08
-1.46481e-05
-1.02078e-06
-1.38055e-05
-2.0371e-06
-1.28938e-05
-2.12462e-06
-1.21359e-05
-1.66548e-06
-1.14163e-05
-1.40285e-06
-1.03712e-05
-1.79204e-06
-8.98561e-06
-2.50703e-06
-7.09738e-06
-3.63052e-06
-4.93231e-06
-4.47757e-06
-2.94614e-06
-4.00459e-06
-1.18983e-06
-2.53298e-06
-7.75321e-08
-1.7286e-06
-1.97887e-06
-4.14888e-06
1.24251e-05
-7.90947e-06
1.21237e-05
-1.11876e-05
9.9337e-06
-1.40045e-05
7.28325e-06
-1.57396e-05
4.20411e-06
-1.57525e-05
9.18821e-07
-1.55666e-05
-7.03471e-07
-1.52474e-05
-4.89958e-07
-1.53307e-05
4.59393e-07
-1.54112e-05
1.58567e-07
-1.49742e-05
-1.45784e-06
-1.43101e-05
-2.70121e-06
-1.33642e-05
-3.07044e-06
-1.21658e-05
-2.86393e-06
-1.09165e-05
-2.65219e-06
-9.51824e-06
-3.19025e-06
-8.04141e-06
-3.98386e-06
-6.66348e-06
-5.00846e-06
-5.26189e-06
-5.87923e-06
-3.75118e-06
-5.51544e-06
-1.7027e-06
-4.58156e-06
1.94086e-07
-3.62543e-06
-1.78478e-06
-4.89184e-06
1.73008e-05
-9.49458e-06
1.67224e-05
-1.33293e-05
1.3768e-05
-1.59358e-05
9.88964e-06
-1.70866e-05
5.3548e-06
-1.76105e-05
1.4344e-06
-1.72177e-05
-1.15586e-06
-1.66332e-05
-1.18891e-06
-1.56464e-05
-6.4806e-07
-1.50262e-05
-5.45441e-07
-1.49023e-05
-1.65322e-06
-1.45112e-05
-3.15083e-06
-1.39025e-05
-3.72013e-06
-1.27669e-05
-4.03775e-06
-1.11894e-05
-4.27681e-06
-9.47457e-06
-4.96933e-06
-8.03591e-06
-5.50487e-06
-6.6973e-06
-6.48478e-06
-5.473e-06
-7.34161e-06
-4.16002e-06
-7.11344e-06
-2.30583e-06
-6.69157e-06
-5.3601e-07
-5.63355e-06
-2.49152e-06
-5.88781e-06
2.31217e-05
-1.34433e-05
2.42553e-05
-1.80627e-05
1.83848e-05
-2.09829e-05
1.27994e-05
-2.07341e-05
4.77787e-06
-1.89923e-05
-3.99476e-06
-1.91095e-05
-9.69911e-06
-1.9078e-05
-1.25821e-05
-1.86201e-05
-1.31226e-05
-1.8509e-05
-1.22174e-05
-1.79791e-05
-1.15384e-05
-1.67813e-05
-1.13997e-05
-1.49979e-05
-1.12173e-05
-1.30468e-05
-1.14187e-05
-1.10051e-05
-1.2173e-05
-9.32914e-06
-1.31765e-05
-7.63883e-06
-1.41964e-05
-6.01282e-06
-1.64557e-05
-4.80529e-06
-1.90644e-05
-4.06934e-06
-1.94947e-05
-2.87164e-06
-1.84644e-05
-6.22225e-07
-1.70426e-05
-1.41999e-05
-1.14577e-05
3.44412e-05
-2.06363e-05
3.33791e-05
-2.36178e-05
2.08404e-05
-2.20139e-05
2.52715e-06
-2.33028e-05
-1.92515e-05
-2.43483e-05
-4.64511e-05
-2.32556e-05
-5.81797e-05
-2.15381e-05
-6.37026e-05
-1.84343e-05
-6.41619e-05
-1.54598e-05
-5.92033e-05
-1.41275e-05
-5.44669e-05
-1.4591e-05
-5.31903e-05
-1.60459e-05
-4.88806e-05
-1.68338e-05
-4.66781e-05
-1.61831e-05
-4.6148e-05
-1.38049e-05
-4.89945e-05
-1.07821e-05
-5.08147e-05
-7.54772e-06
-5.42138e-05
-5.02099e-06
-5.8152e-05
-4.59305e-06
-6.05399e-05
-6.66637e-06
-6.84506e-05
-6.87462e-06
-0.00010593
-0.000114925
-1.86537e-05
5.28398e-05
-2.569e-05
3.88199e-05
-2.62237e-05
5.50909e-06
-2.68313e-05
-3.69785e-05
-2.94433e-05
-6.8604e-05
-3.28552e-05
-9.28203e-05
-2.83409e-05
-9.79616e-05
-1.61526e-05
-0.000103154
-4.84357e-06
-0.000105891
2.29818e-07
-9.33782e-05
4.0651e-07
-8.31177e-05
-8.68811e-07
-6.97224e-05
-4.59987e-06
-5.02306e-05
-1.0455e-05
-4.55046e-05
-1.46353e-05
-3.97902e-05
-1.54364e-05
-3.75365e-05
-1.39438e-05
-3.87986e-05
-1.22137e-05
-4.13786e-05
-1.34672e-05
-4.48032e-05
-2.03704e-05
-4.96873e-05
-2.39144e-05
-7.87205e-05
-2.19524e-05
-0.000186251
-0.000216186
-2.09302e-05
7.1991e-05
-2.45794e-05
3.09132e-05
-2.46359e-05
-1.71954e-05
-2.21663e-05
-6.97026e-05
-1.09526e-05
-9.60232e-05
-1.72149e-06
-9.92835e-05
4.59854e-06
-9.31841e-05
8.66166e-06
-9.25199e-05
1.24411e-05
-9.20409e-05
1.47245e-05
-7.41766e-05
1.26443e-05
-5.75268e-05
1.08503e-05
-4.14758e-05
9.83023e-06
-2.09711e-05
5.83803e-06
-1.66158e-05
-7.60903e-07
-1.01755e-05
-8.90822e-06
-6.7404e-06
-1.46787e-05
-1.04249e-05
-2.03794e-05
-1.14125e-05
-2.504e-05
-1.25611e-05
-2.40312e-05
-1.60024e-05
-1.89004e-05
-4.5537e-05
-1.96564e-05
-0.000170143
-0.000212487
5.38106e-06
-0.000100468
1.43336e-05
-0.000103753
1.87427e-05
-0.000103239
2.27369e-05
-8.77929e-05
2.61025e-05
-8.32284e-05
2.57483e-05
-9.26067e-05
2.24973e-05
-8.75524e-05
1.83892e-05
-7.3054e-05
1.87556e-05
-2.9396e-05
1.92093e-05
-1.4124e-05
1.79381e-05
-5.41399e-06
1.4107e-05
8.13617e-07
1.32167e-05
-1.12122e-06
1.55876e-05
-4.16748e-06
1.22154e-05
1.83442e-06
1.98451e-06
8.64935e-06
-7.4747e-06
7.90214e-06
-8.64134e-06
-2.23603e-07
-1.00416e-05
8.1866e-06
-0.000177799
1.16731e-05
-0.000147748
1.63483e-05
-8.06375e-05
2.42269e-05
-4.89342e-05
2.92791e-05
-4.82591e-05
3.05458e-05
-6.10364e-05
2.08302e-05
-6.05348e-05
1.35326e-06
-4.2817e-05
-1.18094e-05
-1.06356e-05
-1.26495e-05
-7.09893e-06
-1.15593e-05
-2.13441e-06
-1.51451e-05
6.01268e-06
-1.91983e-05
3.80814e-06
-1.05416e-05
-1.22655e-05
-2.82563e-06
-4.90425e-06
-6.12328e-06
1.26221e-05
-9.02881e-06
1.13149e-05
-7.83865e-06
-9.13595e-07
-1.75601e-05
4.99693e-06
-0.000233186
4.54488e-06
-0.000175756
5.47634e-06
-5.76247e-05
6.66406e-06
-3.21495e-05
1.65263e-06
-2.74203e-05
-1.64638e-05
-1.36285e-05
-3.497e-05
-5.23621e-05
-4.04609e-05
-4.16283e-05
-4.60331e-05
-2.89251e-05
-4.72399e-05
-2.8749e-05
-4.39496e-05
-2.53183e-05
-4.08188e-05
-1.3789e-05
-3.60033e-05
-1.34402e-05
-2.77686e-05
-2.59504e-05
-1.40425e-05
-1.97431e-05
-8.67502e-06
6.71782e-06
-8.45298e-06
1.06375e-05
-3.75326e-06
-5.9513e-06
-2.14295e-05
5.52272e-06
-0.000223709
7.61947e-06
-0.000161701
1.0984e-05
-4.8925e-05
1.08958e-05
-3.70676e-05
1.16165e-05
-2.01426e-05
-7.62444e-06
5.04631e-06
-2.9006e-05
-3.03751e-05
-3.39052e-05
-4.526e-05
-3.73168e-05
-3.65761e-05
-4.19491e-05
-4.61427e-05
-4.35288e-05
-7.60967e-05
-4.34713e-05
-6.49885e-05
-4.15407e-05
-6.32377e-05
-3.59608e-05
-5.7023e-05
-2.46499e-05
-3.5146e-05
-1.40967e-05
-3.63687e-06
-8.40258e-06
5.22408e-06
-2.36603e-06
-1.20734e-05
-2.55497e-05
4.51818e-06
-0.00022188
3.15174e-06
-0.000146806
1.33388e-06
-4.77089e-05
-2.54722e-06
-3.77788e-05
-6.66737e-06
-2.15472e-05
-1.0682e-05
-1.27734e-05
-1.34732e-05
-1.23443e-05
-1.86505e-05
-3.75578e-05
-2.13006e-05
-5.23583e-05
-2.38848e-05
-6.58534e-05
-2.75856e-05
-7.26745e-05
-3.3782e-05
-7.63217e-05
-3.71622e-05
-0.00011508
-3.4277e-05
-0.000111386
-2.95787e-05
-6.2278e-05
-1.70959e-05
-2.1897e-05
-6.91062e-06
-7.98273e-06
8.69956e-07
-2.77528e-05
-4.35788e-05
5.31415e-06
-0.000223866
6.81813e-06
-0.000134352
1.01355e-05
-4.16244e-05
5.87789e-06
-2.52134e-05
-6.69484e-06
-2.31909e-06
-1.43575e-05
6.91278e-06
-1.23638e-05
2.21223e-06
-8.17313e-06
-2.08286e-06
-4.22397e-06
-1.25721e-05
-3.52061e-06
-2.04752e-05
-1.23111e-05
-5.70578e-06
-1.16565e-05
-3.77649e-05
-1.14695e-05
-0.000113634
-1.93035e-05
-0.000141438
-2.49783e-05
-0.000105578
-1.96366e-05
-6.11709e-05
-7.71508e-06
-4.70422e-05
-3.34031e-07
-7.21177e-05
-0.000106011
4.0461e-06
-0.00022476
2.05242e-06
-0.000125244
-2.65926e-06
-4.31638e-05
-9.6555e-06
-2.1241e-05
-1.3689e-05
-7.69978e-06
-1.57948e-05
-2.76985e-06
-1.19443e-05
-1.23054e-05
-1.72925e-06
-6.18733e-06
7.49728e-06
2.25042e-05
1.54282e-06
2.61463e-05
-9.61531e-06
1.07852e-05
-9.80365e-06
-3.87641e-05
-1.30835e-05
-0.000114947
-1.89309e-05
-0.000151183
-2.3714e-05
-0.000135247
-2.47005e-05
-0.000111687
-1.55596e-05
-8.78746e-05
-6.56876e-06
-8.82656e-05
-0.00011162
4.18045e-06
-0.000225998
2.24961e-06
-9.24073e-05
-3.18095e-07
-4.26889e-05
-1.04803e-05
2.4982e-06
-1.9861e-05
9.15512e-06
-1.96938e-05
-2.36175e-06
-1.76141e-05
-2.72515e-05
-6.9611e-06
-3.70218e-05
8.09678e-06
-5.96548e-06
1.01757e-05
1.7132e-05
9.52426e-07
8.14708e-06
-5.76943e-06
-2.93026e-05
-1.15182e-05
-0.000104367
-1.86565e-05
-0.000135632
-2.32644e-05
-0.000134089
-2.56032e-05
-0.000127335
-2.37354e-05
-9.75409e-05
-1.30167e-05
-9.24833e-05
-9.03984e-05
-3.8911e-05
9.52915e-05
-5.21079e-05
2.28181e-05
-2.36235e-05
-5.01338e-05
1.72823e-05
-7.26736e-05
2.9732e-05
-8.0324e-05
3.04739e-05
-8.54076e-05
3.30803e-05
-8.73981e-05
3.82381e-05
-8.26318e-05
4.17502e-05
-6.74348e-05
4.53108e-05
-4.8408e-05
4.72265e-05
-2.61558e-05
4.18728e-05
-4.31926e-06
2.83603e-05
1.25411e-05
1.06859e-05
2.07298e-05
-3.56842e-06
1.75201e-05
-1.5333e-05
9.68271e-06
-2.4134e-05
1.85888e-06
-2.38265e-05
-6.15156e-06
-1.75509e-05
-2.12599e-05
-2.03919e-05
-2.53575e-05
-3.05381e-05
-2.2851e-05
-4.05262e-05
-9.23739e-05
-0.000131069
-3.7456e-05
-3.01101e-05
0.000104551
-5.84159e-06
4.36852e-05
2.5846e-05
-2.54075e-05
3.64176e-05
-5.20114e-05
3.95681e-05
-5.58845e-05
4.22181e-05
-5.7868e-05
4.66042e-05
-6.01012e-05
5.12134e-05
-5.59465e-05
5.65691e-05
-4.68629e-05
6.06937e-05
-3.83189e-05
6.31078e-05
-2.51102e-05
6.31833e-05
-6.19224e-06
5.45506e-05
1.47787e-05
4.17417e-05
2.53263e-05
3.02661e-05
2.27615e-05
1.63658e-05
1.8943e-05
-1.09168e-06
1.42163e-05
-1.11608e-05
-2.08841e-06
-2.40944e-05
-1.81992e-05
-4.58674e-05
-1.78566e-05
-6.55469e-05
-3.02861e-05
-6.92941e-05
-4.99064e-05
-6.37336e-05
-8.58704e-05
-3.38972e-05
0.000100852
-5.35289e-06
7.68404e-05
3.45211e-05
5.71214e-06
5.27885e-05
-2.9108e-05
5.68732e-05
-3.42584e-05
5.59496e-05
-3.54103e-05
5.74784e-05
-3.80328e-05
6.35576e-05
-4.31769e-05
7.22088e-05
-4.62974e-05
7.99426e-05
-4.26096e-05
8.38864e-05
-2.83017e-05
7.50279e-05
6.10504e-06
5.65363e-05
3.84624e-05
3.78655e-05
5.02062e-05
2.20599e-05
4.01736e-05
9.89148e-06
2.77102e-05
-1.20494e-06
1.86309e-05
-2.86013e-05
1.6687e-05
-8.05306e-05
1.63166e-05
-0.000131534
8.00193e-06
-0.000156394
-3.01755e-05
-0.000161878
-6.44096e-05
-7.6356e-05
-0.000162315
-3.104e-05
8.10055e-05
4.21183e-06
5.46389e-05
4.51001e-05
4.37915e-06
5.27673e-05
-1.27761e-05
4.97191e-05
-1.6874e-05
4.85069e-05
-2.29661e-05
4.9151e-05
-3.93304e-05
4.60648e-05
-4.34875e-05
4.06617e-05
-4.09238e-05
4.22614e-05
-4.18225e-05
4.68922e-05
-2.74204e-05
4.37728e-05
7.07095e-06
3.1299e-05
4.4185e-05
1.44557e-05
5.39136e-05
-7.85225e-07
4.35308e-05
-1.94776e-05
4.17343e-05
-5.91831e-05
4.53443e-05
-0.000122875
5.39168e-05
-0.000181778
5.14363e-05
-0.000210082
1.35386e-05
-0.000215541
-3.96861e-05
-0.000214137
-6.84932e-05
-8.20462e-05
-0.000211716
-1.09338e-05
3.38787e-05
1.02734e-05
1.80201e-05
3.47248e-05
-4.24105e-06
3.27761e-05
-1.40657e-05
2.75938e-05
-1.94302e-05
1.50586e-05
-1.83694e-05
-9.76557e-06
-1.6411e-05
-5.01587e-05
-2.02979e-05
-7.70401e-05
-3.48249e-05
-8.28507e-05
-4.29769e-05
-6.75994e-05
-2.50466e-05
-4.29964e-05
1.89285e-05
-3.54248e-05
4.89739e-05
-4.98513e-05
6.5884e-05
-8.95532e-05
7.39239e-05
-0.000148993
8.6037e-05
-0.000212173
9.94191e-05
-0.000244424
8.61021e-05
-0.00025386
5.95551e-05
-0.000260434
1.58304e-05
-0.000254131
-3.36826e-05
-0.000245024
-6.97212e-05
-8.46878e-05
-0.000237179
1.07378e-05
-7.15378e-08
9.26069e-06
1.40931e-05
4.94603e-06
-8.14379e-07
2.81324e-06
-1.22214e-05
-1.10582e-05
-6.39557e-06
-5.21585e-05
3.02776e-06
-9.1842e-05
5.11733e-06
-0.000119925
4.94266e-07
-0.000144727
-1.86812e-05
-0.000172888
-2.50251e-05
-0.00018688
-8.00842e-06
-0.000172572
2.9679e-05
-0.000177088
6.79065e-05
-0.000197138
8.91394e-05
-0.000219557
0.000101392
-0.000244877
0.000111233
-0.000258004
0.000111744
-0.000267114
9.6557e-05
-0.000271213
4.95991e-05
-0.000287726
-2.34349e-05
-0.000286807
-6.99362e-05
-0.000273173
-0.000100398
-9.89911e-05
-0.000259824
-8.87525e-07
-7.93581e-07
-6.0542e-07
1.35745e-05
-4.26391e-06
2.46008e-06
-2.26594e-05
6.95204e-06
-5.82035e-05
2.8253e-05
-9.73637e-05
3.23543e-05
-0.000111474
1.52924e-05
-0.000121934
7.96501e-06
-0.000159818
-1.28652e-06
-0.000227631
-1.99159e-09
-0.00023511
1.5894e-05
-0.000235182
3.25263e-05
-0.000238873
6.55374e-05
-0.000249014
9.56197e-05
-0.000251682
0.000104864
-0.000253282
0.000112132
-0.000252314
0.000112467
-0.00025735
7.41771e-05
-0.00027856
6.82728e-06
-0.000302554
-3.47686e-05
-0.000271216
-5.7927e-05
-0.00027478
-4.85004e-05
-0.000107066
-0.000260904
-1.87034e-06
-8.11493e-07
-8.71892e-06
1.96836e-05
-3.45115e-05
2.67254e-05
-7.82311e-05
4.86025e-05
-0.000114153
5.46022e-05
-0.00011953
3.58923e-05
-0.000102116
-4.49761e-06
-0.000108825
-6.55976e-06
-0.000212917
-6.49623e-06
-0.000316636
2.17548e-05
-0.00027546
2.97538e-05
-0.000246787
3.30127e-05
-0.000239047
4.84843e-05
-0.000241277
7.52284e-05
-0.0002432
9.16234e-05
-0.00023705
9.58996e-05
-0.00023636
9.13635e-05
-0.000243689
4.73675e-05
-0.000266837
1.45301e-06
-0.000263815
-5.55755e-06
-0.000244136
-1.15362e-06
-0.000178801
8.37896e-06
-4.7901e-05
-0.000216511
-5.85813e-07
-1.68707e-06
-2.49936e-05
4.3359e-05
-6.72316e-05
6.94941e-05
-0.000109908
8.29625e-05
-0.000127446
6.52169e-05
-0.000117094
1.27531e-06
-0.000139896
-3.37606e-05
-0.000132843
-2.3334e-05
-0.000221137
-1.21528e-06
-0.000355381
8.90863e-05
-0.000303244
5.46185e-05
-0.000274335
2.80743e-05
-0.00023736
4.02593e-05
-0.000222755
5.65052e-05
-0.000216698
6.98869e-05
-0.000210621
6.94485e-05
-0.000168146
6.38172e-05
-0.000197684
6.94577e-05
-0.000290257
0.000125844
-0.000276047
6.74273e-05
-0.000262996
1.64015e-05
-0.000240685
-2.71426e-05
-7.19704e-05
-0.000219408
-2.23834e-05
2.40434e-05
-5.93391e-05
7.8374e-05
-9.68535e-05
0.000101766
-0.000115001
9.19265e-05
-0.000119625
3.45219e-05
-0.000103153
-1.50217e-05
-0.000155348
-2.60706e-05
-0.000180303
3.03915e-05
-0.000199689
8.05859e-05
-0.000179624
0.000175437
-0.000282499
0.000143054
-0.000228116
5.59295e-05
-0.000236279
3.57331e-05
-0.000222474
3.90102e-05
-0.000205035
4.94213e-05
-0.000155331
5.05298e-05
-0.00014079
7.26726e-05
-0.000217679
0.0001783
-0.000250091
0.000166717
-0.00027379
9.20156e-05
-0.000318561
6.14983e-05
-0.000350813
6.82052e-06
-8.50628e-05
-0.000336553
-5.52275e-05
7.35616e-05
-8.88553e-05
0.000108226
-0.000107797
0.000104068
-0.000129716
6.02073e-05
-0.000102125
2.11057e-05
-0.000162844
2.78429e-05
-0.000185641
6.83155e-05
-0.000172563
7.92681e-05
-0.000155093
9.21084e-05
-0.000124577
0.000147374
-0.00013083
0.000148447
-0.000200394
9.38042e-05
-0.000220599
5.90529e-05
-0.000213235
4.87168e-05
-0.000203595
4.96762e-05
-0.000172759
7.01731e-05
-0.000207973
0.000160113
-0.00021041
0.000191534
-0.000215933
0.000172216
-0.000239779
0.00011592
-0.000251591
7.32349e-05
-0.000247344
2.46926e-06
-7.70291e-05
-0.000255355
-7.05593e-05
0.000133246
-0.000103649
0.000115605
-0.000141667
7.4993e-05
-0.000113398
4.86991e-05
-0.000163193
7.37741e-05
-0.000188971
0.00010783
-0.000192766
7.38052e-05
-0.000175412
6.26098e-05
-0.000151461
6.7153e-05
-0.000122825
0.000113433
-0.00011634
0.000138813
-0.000142431
0.000119801
-0.000169338
8.76484e-05
-0.000184877
8.0628e-05
-0.000191512
8.99266e-05
-0.000192906
0.000119733
-0.000182889
0.000161672
-0.000164841
0.0001734
-0.000150558
0.000157863
-0.000152412
0.000117808
-0.000148792
6.96292e-05
-0.000144157
-2.05935e-06
-8.96959e-05
-0.000131416
-7.06141e-05
0.000178088
-0.000131909
0.000106568
-0.000125845
7.23729e-05
-0.000147435
0.000113475
-0.000180109
0.000173673
-0.000169922
9.78268e-05
-0.000159507
6.33791e-05
-0.000144822
4.82974e-05
-0.000130571
5.35989e-05
-0.000108912
8.99981e-05
-0.000102488
0.000125494
-0.000122036
0.000136794
-0.000153404
0.000118208
-0.000170682
9.79075e-05
-0.000175859
9.51501e-05
-0.000165799
0.00010976
-0.000137223
0.000133064
-0.000105456
0.000141562
-7.73238e-05
0.000129613
-5.78093e-05
9.82043e-05
-4.2272e-05
5.40438e-05
-2.94418e-05
-1.47583e-05
-0.000103337
-1.57296e-05
-9.41771e-05
0.000191092
-0.000117867
0.000109167
-0.000132034
0.000163117
-0.000143828
0.000192859
-0.000113219
0.000144149
-9.21877e-05
7.67929e-05
-8.93593e-05
6.05514e-05
-0.000100383
5.93609e-05
-0.000109217
6.33317e-05
-9.16497e-05
7.59004e-05
-6.51998e-05
9.92267e-05
-5.2493e-05
0.000121733
-7.26593e-05
0.000140835
-0.000107176
0.000132301
-0.00012677
0.000114704
-0.000123012
0.000105965
-9.63019e-05
0.000106408
-5.8045e-05
0.000103453
-1.69705e-05
8.87454e-05
1.92323e-05
6.23315e-05
5.66634e-05
1.69789e-05
7.9984e-05
-3.7809e-05
-0.000112703
8.9467e-05
-0.000179514
0.000249118
-0.000131901
0.000188189
-0.000129483
0.000197544
-8.88463e-05
0.000152969
-3.90001e-05
9.43011e-05
-2.13122e-05
5.91017e-05
-1.94145e-05
5.86495e-05
-2.7509e-05
6.74517e-05
-4.36702e-05
7.95305e-05
-5.10474e-05
8.40782e-05
-3.86651e-05
9.00303e-05
-1.01636e-05
0.000100221
1.49498e-05
0.000118884
2.07127e-05
0.000126916
1.25248e-05
0.000123079
5.9759e-06
0.000112587
1.24585e-05
9.99448e-05
3.60275e-05
7.98936e-05
6.89909e-05
5.57326e-05
9.92461e-05
3.20332e-05
0.000127325
-1.09682e-05
0.000145438
-5.5855e-05
-0.000110239
0.000143003
-0.000264435
0.00041339
-0.000123846
0.000269602
-8.41541e-05
0.000157764
-3.31098e-05
0.000101936
-6.70986e-06
6.78991e-05
5.23067e-06
4.71599e-05
1.02884e-05
5.35891e-05
1.34669e-05
6.42707e-05
1.21607e-05
8.08343e-05
5.73774e-06
9.05256e-05
2.15644e-06
9.50418e-05
1.22104e-05
9.34528e-05
3.51369e-05
9.62348e-05
6.18796e-05
9.99027e-05
8.12421e-05
0.0001034
9.71381e-05
9.67379e-05
0.000108945
8.84256e-05
0.000122151
6.68026e-05
0.000135782
4.17411e-05
0.00015296
1.46779e-05
0.000169196
-2.67095e-05
0.000174084
-6.03885e-05
-0.000101091
0.000165009
-0.000211964
0.000510151
-2.30142e-05
0.000246753
-2.21735e-05
0.000156885
5.81757e-06
7.39606e-05
1.48415e-05
5.88736e-05
1.7969e-05
4.40325e-05
2.39148e-05
4.7642e-05
3.20218e-05
5.61619e-05
4.07813e-05
7.2073e-05
4.36767e-05
8.76286e-05
4.31831e-05
9.55717e-05
4.45088e-05
9.23363e-05
5.32171e-05
8.75254e-05
7.08864e-05
8.21347e-05
9.27767e-05
8.14684e-05
0.000115917
7.35835e-05
0.000137021
6.74754e-05
0.000150864
5.28443e-05
0.000159571
3.25342e-05
0.000167193
6.62557e-06
0.000172448
-3.18121e-05
0.000173964
-6.15148e-05
-9.36148e-05
0.00016671
-5.81528e-06
0.000491922
2.13272e-05
0.000231073
2.80914e-05
0.000150084
2.42384e-05
7.78254e-05
2.91602e-05
5.39526e-05
3.04226e-05
4.27704e-05
3.44019e-05
4.36619e-05
4.13215e-05
4.92411e-05
5.23111e-05
6.10821e-05
6.16488e-05
7.82897e-05
6.71692e-05
9.00503e-05
7.01122e-05
8.93929e-05
7.55959e-05
8.20418e-05
8.56438e-05
7.20824e-05
0.000100723
6.64067e-05
0.000115999
5.83345e-05
0.000133623
4.98036e-05
0.000147864
3.85537e-05
0.000157203
2.30896e-05
0.000161431
2.34372e-06
0.000158716
-2.92163e-05
0.000153933
-5.68583e-05
-7.81596e-05
0.000138461
6.7237e-05
0.000429885
5.29742e-05
0.000245363
5.38787e-05
0.000149173
4.37198e-05
8.79905e-05
4.24019e-05
5.52732e-05
4.23429e-05
4.28303e-05
4.41403e-05
4.18641e-05
4.76814e-05
4.56987e-05
5.5478e-05
5.32837e-05
6.6536e-05
6.72299e-05
7.58909e-05
8.06938e-05
8.23328e-05
8.29497e-05
8.88406e-05
7.55333e-05
9.57671e-05
6.51559e-05
0.000105553
5.66196e-05
0.000113809
5.00802e-05
0.000123247
4.03583e-05
0.000134173
2.76101e-05
0.000140829
1.64213e-05
0.000144669
-1.4982e-06
0.000141442
-2.60003e-05
0.00013146
-4.6878e-05
-6.30672e-05
0.000116371
7.51155e-05
0.000354768
7.26137e-05
0.000247873
6.50773e-05
0.000156708
5.85416e-05
9.45282e-05
5.56656e-05
5.81505e-05
5.36617e-05
4.48348e-05
5.28528e-05
4.26731e-05
5.32863e-05
4.52648e-05
5.59018e-05
5.06675e-05
6.42883e-05
5.88426e-05
7.51649e-05
6.98165e-05
8.46776e-05
7.34364e-05
9.21702e-05
6.80403e-05
9.79601e-05
5.93659e-05
0.000103625
5.09551e-05
0.000108879
4.48271e-05
0.000114693
3.45452e-05
0.000119936
2.23678e-05
0.000124
1.23593e-05
0.000127084
-4.58035e-06
0.00012377
-2.26844e-05
0.000115873
-3.89786e-05
-5.20064e-05
0.000104812
6.13567e-05
0.000293408
7.40575e-05
0.000235176
7.41701e-05
0.000156595
7.19465e-05
9.67529e-05
6.77985e-05
6.22992e-05
6.35176e-05
4.9116e-05
6.00657e-05
4.6125e-05
5.79865e-05
4.73437e-05
5.78867e-05
5.07668e-05
6.19316e-05
5.47972e-05
7.07115e-05
6.1036e-05
8.08764e-05
6.3271e-05
8.87418e-05
6.01746e-05
9.42521e-05
5.3856e-05
9.82394e-05
4.69681e-05
0.000102804
4.02634e-05
0.000107179
3.01725e-05
0.000110041
1.95071e-05
0.000113416
8.98503e-06
0.000114433
-5.5953e-06
0.000110664
-1.89138e-05
0.000103861
-3.21741e-05
-4.32638e-05
9.51187e-05
5.13771e-05
0.000242027
7.50782e-05
0.000211474
8.21914e-05
0.000149483
8.1154e-05
9.77906e-05
7.5819e-05
6.76344e-05
6.96534e-05
5.52817e-05
6.44821e-05
5.12963e-05
6.11078e-05
5.07177e-05
6.00367e-05
5.18375e-05
6.1775e-05
5.30584e-05
6.75515e-05
5.52589e-05
7.52227e-05
5.55994e-05
8.19602e-05
5.3437e-05
8.72592e-05
4.85571e-05
9.13438e-05
4.28844e-05
9.57515e-05
3.58565e-05
9.93307e-05
2.65946e-05
0.000101633
1.72061e-05
0.000103412
7.20665e-06
0.000102731
-4.91323e-06
9.91809e-05
-1.53626e-05
9.34507e-05
-2.64424e-05
-3.56701e-05
8.5856e-05
4.42746e-05
0.000197749
7.25314e-05
0.000183216
8.31827e-05
0.000138831
8.28877e-05
9.80852e-05
7.74622e-05
7.30596e-05
7.07494e-05
6.19943e-05
6.53855e-05
5.66599e-05
6.19402e-05
5.41627e-05
6.07707e-05
5.30066e-05
6.16862e-05
5.21424e-05
6.51006e-05
5.18441e-05
7.00701e-05
5.06296e-05
7.53233e-05
4.81837e-05
8.00203e-05
4.38604e-05
8.41208e-05
3.87844e-05
8.79963e-05
3.19822e-05
9.07617e-05
2.38303e-05
9.25642e-05
1.54045e-05
9.33187e-05
6.45287e-06
9.18453e-05
-3.4391e-06
8.88926e-05
-1.24092e-05
8.41695e-05
-2.17194e-05
-2.93639e-05
7.78633e-05
3.61136e-05
0.000161633
6.22633e-05
0.000157064
7.52324e-05
0.000125861
7.69377e-05
9.63793e-05
7.24288e-05
7.7568e-05
6.71755e-05
6.72472e-05
6.31159e-05
6.07192e-05
6.06349e-05
5.66434e-05
5.9789e-05
5.38521e-05
6.03173e-05
5.16138e-05
6.24794e-05
4.96816e-05
6.57985e-05
4.73103e-05
6.97019e-05
4.42803e-05
7.35871e-05
3.99754e-05
7.72568e-05
3.51156e-05
8.04223e-05
2.88174e-05
8.24814e-05
2.17721e-05
8.36992e-05
1.41874e-05
8.37608e-05
6.39177e-06
8.23043e-05
-1.9822e-06
7.99585e-05
-1.00635e-05
7.61286e-05
-1.78886e-05
-2.4361e-05
7.11243e-05
2.67789e-05
0.000134852
4.93326e-05
0.000134509
6.16314e-05
0.000113561
6.4855e-05
9.31548e-05
6.34571e-05
7.89652e-05
6.10958e-05
6.96079e-05
5.89976e-05
6.2817e-05
5.77043e-05
5.79363e-05
5.74308e-05
5.41252e-05
5.81126e-05
5.09316e-05
5.97708e-05
4.80231e-05
6.2149e-05
4.49318e-05
6.5036e-05
4.13932e-05
6.796e-05
3.70517e-05
7.0807e-05
3.2269e-05
7.3143e-05
2.64823e-05
7.47757e-05
2.01401e-05
7.56834e-05
1.32802e-05
7.55943e-05
6.48114e-06
7.44471e-05
-8.34883e-07
7.24356e-05
-8.05183e-06
6.92118e-05
-1.46652e-05
-2.04462e-05
6.5297e-05
1.91621e-05
0.000115688
3.74363e-05
0.000116233
4.87849e-05
0.000102211
5.33255e-05
8.86133e-05
5.44191e-05
7.78709e-05
5.43055e-05
6.97209e-05
5.39096e-05
6.32124e-05
5.37616e-05
5.80839e-05
5.40954e-05
5.3791e-05
5.5019e-05
5.00077e-05
5.64842e-05
4.65576e-05
5.84172e-05
4.29986e-05
6.06921e-05
3.91184e-05
6.29462e-05
3.47977e-05
6.51508e-05
3.00651e-05
6.69242e-05
2.47093e-05
6.81042e-05
1.89608e-05
6.8571e-05
1.28137e-05
6.83729e-05
6.67943e-06
6.73445e-05
1.93466e-07
6.54866e-05
-6.19423e-06
6.29668e-05
-1.21449e-05
-1.74615e-05
5.99809e-05
1.40756e-05
0.000101612
2.85258e-05
0.000101782
3.82837e-05
9.24525e-05
4.35844e-05
8.33118e-05
4.62985e-05
7.5156e-05
4.77501e-05
6.82687e-05
4.86229e-05
6.23391e-05
4.93785e-05
5.73278e-05
5.02662e-05
5.29029e-05
5.14229e-05
4.88506e-05
5.28659e-05
4.51143e-05
5.45381e-05
4.13262e-05
5.63313e-05
3.73251e-05
5.80918e-05
3.30375e-05
5.97206e-05
2.84365e-05
6.10043e-05
2.34264e-05
6.18587e-05
1.8107e-05
6.21973e-05
1.24754e-05
6.19921e-05
6.88459e-06
6.10833e-05
1.10213e-06
5.9562e-05
-4.67304e-06
5.73915e-05
-9.97492e-06
-1.49745e-05
5.49042e-05
1.08445e-05
9.0766e-05
2.21031e-05
9.05219e-05
3.03467e-05
8.42079e-05
3.58107e-05
7.7847e-05
3.93525e-05
7.16135e-05
4.17371e-05
6.58836e-05
4.34422e-05
6.06336e-05
4.48382e-05
5.59314e-05
4.61507e-05
5.15901e-05
4.74829e-05
4.7518e-05
4.893e-05
4.36669e-05
5.0441e-05
3.9815e-05
5.19737e-05
3.57924e-05
5.34223e-05
3.1589e-05
5.47248e-05
2.71346e-05
5.57377e-05
2.24138e-05
5.63593e-05
1.74858e-05
5.64998e-05
1.23351e-05
5.61984e-05
7.18589e-06
5.53603e-05
1.94006e-06
5.40037e-05
-3.31685e-06
5.22612e-05
-8.23216e-06
-1.29182e-05
5.02039e-05
8.66843e-06
8.20969e-05
1.75227e-05
8.16669e-05
2.45206e-05
7.72092e-05
2.9762e-05
7.26049e-05
3.36051e-05
6.77698e-05
3.64653e-05
6.30228e-05
3.86534e-05
5.8445e-05
4.04496e-05
5.41347e-05
4.20253e-05
5.00141e-05
4.3486e-05
4.6057e-05
4.49215e-05
4.22311e-05
4.63283e-05
3.8408e-05
4.76594e-05
3.44612e-05
4.88797e-05
3.0369e-05
4.99122e-05
2.61023e-05
5.06767e-05
2.16498e-05
5.11194e-05
1.70434e-05
5.1186e-05
1.22685e-05
5.08974e-05
7.47433e-06
5.01915e-05
2.64575e-06
4.90545e-05
-2.18002e-06
4.75439e-05
-6.72197e-06
-1.11268e-05
4.57523e-05
7.09283e-06
7.50032e-05
1.42352e-05
7.45238e-05
2.01951e-05
7.12486e-05
2.50248e-05
6.77746e-05
2.88437e-05
6.39503e-05
3.18665e-05
5.99995e-05
3.42849e-05
5.60263e-05
3.62949e-05
5.21243e-05
3.80178e-05
4.82909e-05
3.95525e-05
4.45219e-05
4.09809e-05
4.08024e-05
4.23063e-05
3.70824e-05
4.35052e-05
3.32624e-05
4.4561e-05
2.93132e-05
4.54108e-05
2.5253e-05
4.60181e-05
2.10427e-05
4.63505e-05
1.67113e-05
4.63656e-05
1.22535e-05
4.60484e-05
7.79138e-06
4.53852e-05
3.30865e-06
4.43782e-05
-1.17336e-06
4.30921e-05
-5.43564e-06
-9.58136e-06
4.15458e-05
5.89545e-06
6.91072e-05
1.17745e-05
6.86441e-05
1.68895e-05
6.6133e-05
2.12449e-05
6.34187e-05
2.48667e-05
6.0328e-05
2.78612e-05
5.70046e-05
3.03418e-05
5.35453e-05
3.24278e-05
5.0038e-05
3.42105e-05
4.65079e-05
3.57657e-05
4.29664e-05
3.71586e-05
3.94092e-05
3.84075e-05
3.58333e-05
3.95011e-05
3.21687e-05
4.04234e-05
2.83911e-05
4.11491e-05
2.45273e-05
4.16489e-05
2.05434e-05
4.19049e-05
1.64554e-05
4.18743e-05
1.22842e-05
4.15653e-05
8.10013e-06
4.09632e-05
3.9105e-06
4.0061e-05
-2.71276e-07
3.8914e-05
-4.2891e-06
-8.21478e-06
3.75472e-05
4.95769e-06
6.41488e-05
9.8805e-06
6.37207e-05
1.42969e-05
6.17161e-05
1.81828e-05
5.95323e-05
2.15275e-05
5.69828e-05
2.43802e-05
5.41515e-05
2.68035e-05
5.11216e-05
2.88705e-05
4.79707e-05
3.06443e-05
4.47338e-05
3.21773e-05
4.14332e-05
3.35118e-05
3.80745e-05
3.46757e-05
3.46693e-05
3.56649e-05
3.11795e-05
3.64741e-05
2.7582e-05
3.70943e-05
2.39075e-05
3.75058e-05
2.0132e-05
3.76996e-05
1.62619e-05
3.76497e-05
1.2334e-05
3.73459e-05
8.40369e-06
3.67868e-05
4.46941e-06
3.5962e-05
5.53135e-07
3.49526e-05
-3.27949e-06
-7.00103e-06
3.37382e-05
4.20109e-06
5.99474e-05
8.37111e-06
5.95503e-05
1.21951e-05
5.78917e-05
1.56385e-05
5.60885e-05
1.86786e-05
5.39424e-05
2.13317e-05
5.14981e-05
2.36269e-05
4.88261e-05
2.56069e-05
4.59905e-05
2.73104e-05
4.303e-05
2.87808e-05
3.99626e-05
3.00406e-05
3.68145e-05
3.11223e-05
3.35875e-05
3.20284e-05
3.02733e-05
3.27536e-05
2.6857e-05
3.32937e-05
2.33674e-05
3.3635e-05
1.97912e-05
3.37573e-05
1.61397e-05
3.36592e-05
1.24321e-05
3.33522e-05
8.71047e-06
3.28366e-05
4.98476e-06
3.21024e-05
1.28721e-06
3.11916e-05
-2.36903e-06
-5.90918e-06
3.00997e-05
3.57738e-06
5.63695e-05
7.13926e-06
5.5988e-05
1.04545e-05
5.4576e-05
1.34905e-05
5.30522e-05
1.62208e-05
5.12118e-05
1.86406e-05
4.90779e-05
2.07627e-05
4.67038e-05
2.26123e-05
4.41407e-05
2.42106e-05
4.14315e-05
2.55851e-05
3.85878e-05
2.67611e-05
3.56383e-05
2.77558e-05
3.25926e-05
2.85755e-05
2.94537e-05
2.92147e-05
2.62178e-05
2.96773e-05
2.29051e-05
2.9954e-05
1.95144e-05
3.00453e-05
1.60486e-05
2.99377e-05
1.25397e-05
2.96257e-05
9.02237e-06
2.91207e-05
5.48948e-06
2.84368e-05
1.97091e-06
2.75948e-05
-1.52693e-06
-4.92371e-06
2.66088e-05
3.05914e-06
5.33102e-05
6.11634e-06
5.29305e-05
8.99761e-06
5.16944e-05
1.1661e-05
5.03884e-05
1.40844e-05
4.87882e-05
1.62581e-05
4.6904e-05
1.81811e-05
4.47805e-05
1.98612e-05
4.24604e-05
2.13199e-05
3.99726e-05
2.25691e-05
3.73385e-05
2.36278e-05
3.45794e-05
2.45051e-05
3.17151e-05
2.52175e-05
2.87413e-05
2.5769e-05
2.56665e-05
2.61629e-05
2.25111e-05
2.63932e-05
1.92846e-05
2.64482e-05
1.59936e-05
2.6326e-05
1.26619e-05
2.60436e-05
9.30458e-06
2.55873e-05
5.94565e-06
2.49518e-05
2.60625e-06
2.41721e-05
-7.47529e-07
-4.00926e-06
2.32575e-05
2.62056e-06
5.06892e-05
5.23874e-06
5.0312e-05
7.71842e-06
4.92145e-05
1.00373e-05
4.80693e-05
1.21714e-05
4.66539e-05
1.41055e-05
4.49697e-05
1.58328e-05
4.3053e-05
1.7356e-05
4.0937e-05
1.86895e-05
3.86389e-05
1.9834e-05
3.61939e-05
2.08005e-05
3.36128e-05
2.16006e-05
3.09149e-05
2.22333e-05
2.81086e-05
2.26956e-05
2.52042e-05
2.2991e-05
2.22161e-05
2.31207e-05
1.91548e-05
2.30852e-05
1.60293e-05
2.29053e-05
1.28418e-05
2.25825e-05
9.62727e-06
2.21293e-05
6.39868e-06
2.15598e-05
3.17555e-06
2.08537e-05
-4.13328e-08
-3.17517e-06
2.00191e-05
2.22988e-06
4.84592e-05
4.48562e-06
4.80561e-05
6.64247e-06
4.70574e-05
8.66248e-06
4.60491e-05
1.05299e-05
4.47863e-05
1.22316e-05
4.32678e-05
1.37598e-05
4.15247e-05
1.51107e-05
3.9586e-05
1.62815e-05
3.74679e-05
1.72801e-05
3.51953e-05
1.81114e-05
3.27813e-05
1.87831e-05
3.02432e-05
1.93074e-05
2.75843e-05
1.9692e-05
2.48198e-05
1.99344e-05
2.19736e-05
2.00383e-05
1.90513e-05
1.99996e-05
1.6068e-05
1.97979e-05
1.30434e-05
1.94349e-05
9.99016e-06
1.89372e-05
6.89629e-06
1.83259e-05
3.78675e-06
1.76174e-05
6.66855e-07
-2.4101e-06
1.68523e-05
1.91612e-06
4.65428e-05
3.80629e-06
4.61657e-05
5.60329e-06
4.52602e-05
7.2918e-06
4.43605e-05