/*--------------------------------*- C++ -*----------------------------------*\
| =========                 |                                                 |
| \\      /  F ield         | OpenFOAM: The Open Source CFD Toolbox           |
|  \\    /   O peration     | Version:  2.4.0                                 |
|   \\  /    A nd           | Web:      www.OpenFOAM.org                      |
|    \\/     M anipulation  |                                                 |
\*---------------------------------------------------------------------------*/
FoamFile
{
    version     2.0;
    format      ascii;
    class       surfaceScalarField;
    location    "1";
    object      phi.air;
}
// * * * * * * * * * * * * * * * * * * * * * * * * * * * * * * * * * * * * * //

dimensions      [0 3 -1 0 0 0 0];

internalField   nonuniform List<scalar> 
4432
(
-4.14466e-06
4.14438e-06
-8.34855e-06
4.20361e-06
-1.16987e-05
3.34983e-06
-1.37923e-05
2.09326e-06
-1.48537e-05
1.06102e-06
-1.5311e-05
4.57011e-07
-1.5196e-05
-1.15149e-07
-1.51926e-05
-3.55691e-09
-1.55006e-05
3.07908e-07
-1.57158e-05
2.15041e-07
-1.52342e-05
-4.81761e-07
-1.40396e-05
-1.19468e-06
-1.28267e-05
-1.21303e-06
-1.19191e-05
-9.07747e-07
-1.12359e-05
-6.8344e-07
-1.04889e-05
-7.47127e-07
-9.36748e-06
-1.12159e-06
-7.62519e-06
-1.7425e-06
-5.31268e-06
-2.31273e-06
-3.29425e-06
-2.01869e-06
-2.51757e-06
-7.76952e-07
-1.90131e-06
-6.16654e-07
-1.90161e-06
-4.13238e-06
8.27634e-06
-8.29182e-06
8.36273e-06
-1.15974e-05
6.65498e-06
-1.39703e-05
4.46574e-06
-1.53781e-05
2.46836e-06
-1.58267e-05
9.05279e-07
-1.54241e-05
-5.18058e-07
-1.52566e-05
-1.7125e-07
-1.53245e-05
3.75636e-07
-1.51874e-05
7.76327e-08
-1.46482e-05
-1.02121e-06
-1.38056e-05
-2.03753e-06
-1.28938e-05
-2.12507e-06
-1.21359e-05
-1.66593e-06
-1.14163e-05
-1.40332e-06
-1.03712e-05
-1.79252e-06
-8.98562e-06
-2.50754e-06
-7.09739e-06
-3.63107e-06
-4.93231e-06
-4.47817e-06
-2.94614e-06
-4.00515e-06
-1.1898e-06
-2.53351e-06
-7.75238e-08
-1.72931e-06
-1.97975e-06
-4.1489e-06
1.24256e-05
-7.90953e-06
1.21232e-05
-1.11877e-05
9.93287e-06
-1.40046e-05
7.28234e-06
-1.57398e-05
4.20322e-06
-1.57528e-05
9.18006e-07
-1.55668e-05
-7.04167e-07
-1.52476e-05
-4.90557e-07
-1.53308e-05
4.58842e-07
-1.54113e-05
1.58041e-07
-1.49742e-05
-1.45836e-06
-1.43101e-05
-2.70175e-06
-1.33643e-05
-3.07101e-06
-1.21658e-05
-2.86444e-06
-1.09165e-05
-2.65213e-06
-9.51826e-06
-3.18928e-06
-8.04143e-06
-3.98304e-06
-6.6635e-06
-5.00911e-06
-5.26191e-06
-5.87448e-06
-3.75119e-06
-5.45151e-06
-1.7027e-06
-4.46172e-06
1.94082e-07
-3.56454e-06
-1.77015e-06
-4.89158e-06
1.7345e-05
-9.49459e-06
1.67323e-05
-1.33294e-05
1.37676e-05
-1.59359e-05
9.88855e-06
-1.70868e-05
5.35377e-06
-1.76107e-05
1.46065e-06
-1.72179e-05
-9.90103e-07
-1.66333e-05
-9.04675e-07
-1.56466e-05
-3.51168e-07
-1.50263e-05
-3.23359e-07
-1.49024e-05
-1.45938e-06
-1.45112e-05
-2.98841e-06
-1.39026e-05
-3.60209e-06
-1.2767e-05
-3.9207e-06
-1.11895e-05
-4.1003e-06
-9.47458e-06
-4.69598e-06
-8.03593e-06
-5.19832e-06
-6.69729e-06
-6.16401e-06
-5.47277e-06
-6.75026e-06
-4.15959e-06
-5.45885e-06
-2.30625e-06
-3.79899e-06
-5.36701e-07
-3.52086e-06
-1.69669e-06
-5.87606e-06
2.33171e-05
-1.34396e-05
2.43431e-05
-1.80626e-05
1.83948e-05
-2.0983e-05
1.2835e-05
-2.07248e-05
5.40947e-06
-1.897e-05
9.24915e-08
-1.90852e-05
-2.42868e-06
-1.90636e-05
-3.94569e-06
-1.86197e-05
-4.13145e-06
-1.85183e-05
-3.36763e-06
-1.79895e-05
-3.99254e-06
-1.67886e-05
-5.21127e-06
-1.50007e-05
-5.85547e-06
-1.30469e-05
-6.23289e-06
-1.10026e-05
-6.6986e-06
-9.32537e-06
-7.30946e-06
-7.63124e-06
-8.10053e-06
-6.00053e-06
-9.77168e-06
-4.78643e-06
-1.12177e-05
-4.05657e-06
-9.87259e-06
-2.81723e-06
4.69377e-06
-5.96737e-07
3.09437e-05
2.77812e-05
-1.14015e-05
3.48313e-05
-2.06137e-05
3.36421e-05
-2.36055e-05
2.17574e-05
-2.19154e-05
1.02252e-05
-2.30007e-05
-1.60793e-06
-2.39906e-05
-1.39762e-05
-2.29695e-05
-2.65229e-05
-2.13006e-05
-3.46021e-05
-1.82919e-05
-3.62405e-05
-1.53856e-05
-3.36502e-05
-1.40659e-05
-3.1475e-05
-1.45232e-05
-2.80757e-05
-1.60332e-05
-2.2113e-05
-1.68607e-05
-2.08773e-05
-1.62359e-05
-2.26066e-05
-1.38393e-05
-2.55314e-05
-1.07819e-05
-2.73279e-05
-7.49135e-06
-3.04446e-05
-4.97185e-06
-3.35879e-05
-4.55665e-06
-3.45177e-05
-8.2891e-06
-3.47119e-05
-6.33212e-06
5.74415e-06
4.14081e-05
-1.85449e-05
5.34913e-05
-2.54718e-05
4.07617e-05
-2.49436e-05
1.50669e-05
-2.52207e-05
-8.76404e-06
-2.67516e-05
-2.88465e-05
-2.73372e-05
-2.85116e-05
-2.40227e-05
-1.39726e-05
-1.65413e-05
-1.49099e-05
-7.76374e-06
-1.71313e-05
-6.87532e-07
-1.45144e-05
1.42299e-06
-8.87219e-06
-1.36177e-06
-5.28962e-06
-5.94747e-06
-6.79295e-06
-1.12621e-05
-1.05581e-05
-1.5097e-05
-1.23837e-05
-1.6141e-05
-1.4816e-05
-1.60587e-05
-1.59581e-05
-1.60905e-05
-1.60784e-05
-1.66832e-05
-1.45558e-05
-1.66049e-05
-1.11969e-05
-1.16998e-05
-1.95929e-05
-1.16674e-05
-0.000104894
-0.000121256
-2.04774e-05
7.38862e-05
-2.22956e-05
3.72865e-05
-2.36623e-05
1.97451e-06
-3.72567e-05
-3.15881e-06
-3.97543e-05
-5.47016e-06
-2.40365e-05
-2.0742e-05
-9.98246e-06
-2.15643e-05
-1.05921e-06
-2.21465e-05
4.01067e-06
-2.08935e-05
6.86274e-06
-1.57467e-05
9.95282e-06
-1.0356e-05
1.23529e-05
-3.85435e-06
1.11638e-05
2.29768e-06
5.63304e-06
6.01035e-06
-2.45778e-06
5.49943e-06
-9.67007e-06
6.11807e-08
-1.4746e-05
-3.19014e-06
-2.00897e-05
-3.33714e-06
-2.48503e-05
-4.08437e-06
-2.69045e-05
1.13357e-05
-2.80972e-05
0.000135617
2.75365e-05
0.000269674
0.000192113
5.51766e-06
0.000336964
1.43135e-05
0.000280693
1.87794e-05
0.000298747
2.23932e-05
9.04731e-05
2.47746e-05
-3.3863e-05
2.44406e-05
-4.90682e-05
2.08571e-05
-3.43767e-05
1.78987e-05
-2.67383e-05
1.87121e-05
3.57591e-05
1.91924e-05
8.33669e-05
1.78179e-05
5.15675e-05
1.38408e-05
3.12096e-05
1.29505e-05
2.48126e-05
1.5576e-05
3.18557e-05
1.17053e-05
2.3586e-05
1.22487e-06
1.46531e-05
-7.26088e-06
2.51675e-05
-8.74642e-06
1.01955e-05
-2.18154e-06
2.92133e-05
-7.70003e-05
4.91551e-05
-0.000285927
2.98358e-05
-0.000487965
2.02636e-05
-0.000349041
2.69613e-05
-3.85157e-05
2.47442e-05
-3.09363e-05
1.93044e-05
-3.57876e-05
-2.70497e-06
-2.67571e-05
-1.79804e-05
-3.08027e-05
-1.61582e-05
-2.41418e-05
-1.63772e-05
-1.06602e-05
-1.8792e-05
6.53913e-06
-2.11179e-05
7.91841e-06
-1.1107e-05
-4.67712e-07
-5.06995e-06
1.37328e-06
-6.81608e-06
1.60745e-05
-9.0158e-06
1.76731e-05
-7.97133e-06
7.1898e-06
-1.20298e-05
-3.45715e-05
7.81199e-05
-2.1161e-05
0.000138005
-1.01185e-05
0.000249107
3.6792e-06
0.00033224
-2.67681e-06
0.000229694
-7.36873e-06
6.3698e-05
-2.06949e-05
4.73626e-05
-3.77971e-05
7.45583e-05
-4.78525e-05
0.000139272
-4.93296e-05
0.000166995
-4.6077e-05
0.00015417
-4.14745e-05
0.000107023
-3.61163e-05
3.59516e-05
-2.80826e-05
-3.73638e-06
-1.4788e-05
-8.11599e-06
-9.11627e-06
1.528e-05
-8.34137e-06
1.80555e-05
-3.70367e-06
3.28628e-06
-1.64095e-05
1.72929e-05
2.77475e-05
2.22184e-05
-2.27969e-06
1.92885e-05
-9.78573e-05
1.91075e-05
-0.00016892
2.38389e-05
-0.000199881
2.79489e-06
-3.29235e-05
-2.26211e-05
-4.32083e-06
-2.02227e-05
1.77078e-06
-1.98644e-05
-2.0268e-05
-4.65349e-05
-0.000101182
-4.67785e-05
-7.20331e-05
-4.89987e-05
-3.96585e-05
-4.34375e-05
-2.21172e-05
-3.72821e-05
3.05152e-05
-2.56995e-05
1.60991e-05
-1.45766e-05
5.09048e-07
-8.35585e-06
8.22359e-06
-2.35097e-06
-7.64947e-06
-3.72615e-06
3.22656e-06
5.69744e-05
-2.37319e-05
8.17334e-05
-8.15866e-06
0.000151259
-8.39493e-06
0.000205693
-1.20862e-05
0.000158977
-1.03146e-05
4.5232e-05
-2.52172e-06
3.5366e-05
1.29439e-05
5.24779e-05
4.46312e-06
6.33437e-05
-1.40886e-05
5.4004e-05
-1.60571e-05
8.85438e-06
-3.17489e-05
-1.32789e-05
-3.82326e-05
-4.81346e-05
-4.50377e-05
-6.6353e-05
-3.81519e-05
3.81347e-05
-1.73412e-05
3.39488e-05
-6.73229e-06
1.48251e-05
1.75564e-06
1.12643e-05
9.13196e-06
5.56494e-06
2.90089e-06
2.16791e-05
4.29601e-05
1.04354e-05
-4.05491e-05
8.13364e-06
-7.76582e-05
-2.20108e-05
-9.01131e-05
-1.56547e-05
1.20315e-05
-1.51306e-05
7.89835e-06
7.97193e-06
3.43603e-05
1.87711e-05
6.86949e-05
-1.01267e-05
0.000106717
-1.67117e-05
0.000148667
-1.61585e-05
6.19843e-05
3.14217e-06
3.89298e-05
-1.50516e-05
-3.89233e-06
-3.71388e-05
-3.34352e-05
-2.06335e-05
3.26563e-05
-6.62674e-06
4.25515e-05
2.55319e-06
-3.15475e-05
-7.028e-05
-3.12388e-07
-6.18277e-06
-6.10536e-06
7.74179e-05
-1.99321e-05
0.000121465
-1.96887e-05
0.000160776
-1.50797e-05
7.08444e-05
-1.61419e-05
2.8418e-05
-1.01656e-05
1.70502e-05
2.82069e-06
2.0022e-05
2.22617e-05
4.43945e-05
1.56901e-05
8.18346e-05
-5.29611e-06
5.20697e-05
-1.15583e-05
1.5522e-05
-1.74127e-05
-1.88563e-05
-1.8073e-06
3.03572e-05
-9.30166e-06
-2.68133e-05
-3.35805e-05
-0.00018746
-2.82255e-05
-0.000131914
-1.25116e-05
-6.90658e-05
-3.69048e-05
2.66828e-06
-2.41559e-05
3.6083e-06
4.2895e-05
-3.20909e-06
3.98775e-05
-1.76746e-05
3.44115e-05
-2.34087e-05
3.32102e-05
-1.88714e-05
1.81423e-05
-1.64894e-05
6.69594e-06
-3.24567e-06
3.60248e-05
1.32546e-05
6.52709e-05
1.63875e-05
6.41426e-05
2.88506e-06
9.74509e-05
-6.99831e-06
4.69144e-05
-6.26054e-06
2.43373e-05
-2.13592e-05
5.20167e-05
-4.85472e-05
0.000138591
-2.95833e-05
0.000132796
-2.69342e-05
-1.57925e-05
-1.60077e-05
-2.52975e-05
-3.11566e-05
-3.36637e-05
9.9626e-05
-5.26029e-05
4.336e-05
-4.64864e-05
1.87457e-06
-1.57118e-05
-1.15953e-05
9.36118e-06
-2.37569e-05
1.86371e-05
-2.88492e-05
2.60271e-05
-2.81853e-05
3.49744e-05
-2.99566e-05
4.47406e-05
-2.88944e-05
5.3317e-05
-2.24503e-05
5.28562e-05
-8.44945e-06
4.28142e-05
6.63727e-06
2.73022e-05
1.76508e-05
9.49526e-06
2.33614e-05
-4.76943e-06
1.89214e-05
-1.66001e-05
1.06584e-05
-2.48285e-05
2.38937e-06
-2.67386e-05
-4.99826e-06
-1.91018e-05
-1.4265e-05
7.64806e-06
-1.75964e-05
-1.33434e-05
-0.000102246
-5.241e-05
-0.000119303
-6.32893e-05
-6.3137e-05
-2.00043e-05
0.000109641
-1.1013e-08
4.81664e-05
2.32088e-05
3.22106e-06
3.59469e-05
-1.93564e-05
4.11195e-05
-2.72372e-05
4.46718e-05
-3.05992e-05
5.10956e-05
-3.27129e-05
5.68167e-05
-3.38584e-05
6.03758e-05
-3.09224e-05
6.22766e-05
-2.26875e-05
6.47877e-05
-1.06288e-05
6.32016e-05
9.90212e-06
5.3346e-05
2.95584e-05
4.04579e-05
3.83291e-05
2.89665e-05
3.16783e-05
1.48757e-05
2.60806e-05
-1.59501e-06
2.13679e-05
-1.07416e-05
9.07406e-06
-2.06405e-05
4.3327e-05
-3.90383e-05
0.000108092
-5.98373e-05
0.000160962
8.31117e-05
0.000158045
3.50121e-05
-1.43816e-05
2.62974e-06
9.47368e-05
3.596e-05
3.70634e-05
5.41182e-05
-4.99813e-06
5.60045e-05
-1.9731e-05
5.59533e-05
-2.62933e-05
5.67339e-05
-3.06767e-05
6.18449e-05
-3.71419e-05
6.81456e-05
-3.94475e-05
7.59558e-05
-3.76696e-05
8.30797e-05
-2.41823e-05
8.51237e-05
2.66207e-05
7.40542e-05
3.34746e-05
5.40714e-05
4.85841e-05
3.54008e-05
5.85288e-05
2.07758e-05
4.70784e-05
9.91068e-06
3.75009e-05
-2.48604e-07
3.1483e-05
-3.00849e-05
2.76959e-05
-8.24894e-05
4.49105e-05
-0.000101823
7.06512e-05
-0.000104832
4.98608e-05
-0.000115449
1.53234e-05
-1.82484e-05
-0.000121675
3.01874e-05
5.2638e-05
5.22109e-05
2.01683e-05
5.69477e-05
-5.41902e-06
5.39578e-05
-1.64629e-05
5.11457e-05
-2.33656e-05
5.04876e-05
-2.98297e-05
5.13776e-05
-3.77204e-05
5.46538e-05
-4.3807e-05
5.81359e-05
-3.68426e-05
7.11607e-05
1.08405e-05
5.51152e-05
9.20547e-05
3.62118e-05
0.000183178
2.20369e-05
8.78798e-05
8.24925e-06
7.68852e-05
-3.62798e-06
6.19888e-05
-1.99401e-05
5.33885e-05
-5.33449e-05
6.16601e-05
-0.00011526
9.71983e-05
-0.000167701
0.000153294
-0.000172455
0.000127907
-0.000172678
3.93354e-05
-0.000180456
-4.98142e-06
-1.92653e-05
-0.000183259
3.09981e-05
1.27507e-05
3.63972e-05
1.24887e-05
3.54566e-05
-4.55359e-06
3.28849e-05
-1.38746e-05
2.82433e-05
-1.86739e-05
2.30541e-05
-2.49409e-05
1.23812e-06
-1.96375e-05
-3.09723e-05
-8.12094e-07
5.97696e-06
3.96683e-05
3.82762e-05
4.64371e-06
-2.90991e-07
-1.2904e-05
-8.8681e-05
3.82902e-05
-6.2057e-05
7.44583e-05
-5.64536e-05
7.88465e-05
-8.46525e-05
8.95665e-05
-0.000134784
0.000102848
-0.000201034
0.000127855
-0.00024898
0.000137905
-0.000248801
0.000131005
-0.00024586
0.000107986
-0.000244084
0.000121877
-0.000234684
0.000108537
8.64955e-05
-0.000226952
1.21655e-05
-1.29682e-06
9.23934e-06
1.28163e-05
5.01978e-06
-6.46682e-07
2.98067e-06
-1.19279e-05
-6.38371e-06
-1.03922e-05
-4.19734e-05
8.11822e-06
-7.50297e-05
2.22279e-05
-7.6157e-05
5.52924e-05
-6.98138e-05
3.80107e-05
-8.0177e-05
4.12978e-05
-0.000101432
4.01147e-05
-0.000187678
4.49248e-07
-0.000197678
6.17776e-05
-0.000196939
9.49562e-05
-0.000219707
0.000113194
-0.00024818
0.000141268
-0.000262527
0.000198012
-0.000270174
0.000209475
-0.000249983
0.000227847
-0.000246124
0.000274127
-0.000294353
0.000225953
-0.000308929
0.000115049
6.99631e-05
-0.000292546
-1.02287e-06
4.32882e-05
-1.01443e-06
3.57275e-05
-4.05695e-06
3.24594e-06
-1.93973e-05
1.23836e-06
-5.81768e-05
2.96028e-05
-9.15678e-05
9.0374e-05
-7.69662e-05
8.40542e-05
-8.58456e-05
9.78683e-05
-7.67565e-05
9.31586e-05
-0.000158593
0.000115713
-0.000208125
6.2165e-05
-0.000276985
1.9471e-05
-0.000252447
8.8428e-05
-0.000254731
9.59783e-05
-0.000264543
0.000116498
-0.000259239
0.000166014
-0.000237877
0.000199189
-0.000220242
0.000215243
-0.0002408
0.00018801
-0.000272023
0.000147044
-0.00028584
7.77426e-05
-0.000292797
1.50537e-05
-2.25757e-05
-0.000281743
1.26978e-05
5.47779e-05
-3.33537e-06
6.46004e-05
-2.90354e-05
2.60214e-05
-7.27024e-05
5.36793e-05
-8.38969e-05
0.000102308
-8.33458e-05
9.91797e-05
-5.30788e-05
9.34506e-05
-9.64407e-05
0.000134672
-0.000135664
0.000153553
-0.000259078
0.00018265
-0.0002697
6.45479e-05
-0.000276534
-7.06486e-06
-0.000319366
8.07636e-05
-0.000260895
0.000174861
-0.00024075
0.000176844
-0.000214182
0.000186679
-0.000199527
0.000186391
-0.000257872
0.000201006
-0.00025624
0.000105607
-0.000248273
9.00267e-05
-0.000228783
2.99049e-05
-0.000242864
-3.62292e-06
-4.973e-05
-0.000258284
2.24077e-05
4.79089e-05
-6.19346e-06
7.78458e-05
-5.87788e-05
7.86552e-05
-6.53459e-05
0.000141463
-8.13057e-05
0.000142626
-8.01261e-05
0.000142401
-0.000117276
7.8962e-05
-0.000142214
7.76372e-05
-0.000179234
0.000130706
-0.000238916
0.000216547
-0.000295441
0.000123347
-0.000289158
1.93007e-06
-0.000280651
1.70607e-05
-0.000241135
7.56804e-05
-0.000212682
0.000139967
-0.000186494
0.000137422
-0.000222926
0.000173259
-0.000248543
0.000189788
-0.000296507
0.000146213
-0.000276198
6.8374e-05
-0.000263232
1.67195e-05
-0.000241308
-2.55554e-05
-7.06973e-05
-0.000220469
2.77447e-05
-9.32676e-06
-4.8392e-05
9.76432e-05
-5.33067e-05
0.000144254
-5.69519e-05
0.00016395
-6.21115e-05
0.000140775
-0.000115998
9.07732e-05
-0.00016424
6.42417e-05
-0.000201659
9.40838e-05
-0.000190863
0.00011155
-0.000155901
0.000180282
-0.000180246
0.000147972
-0.00023131
5.92771e-05
-0.000237302
3.34296e-05
-0.000235107
6.32346e-05
-0.000209626
8.09429e-05
-0.000204662
0.00010506
-0.000218613
0.000168476
-0.000229468
0.000197466
-0.000250038
0.000166766
-0.000273738
9.20737e-05
-0.000318528
6.15086e-05
-0.000350891
6.80842e-06
-8.49778e-05
-0.000336611
3.20864e-05
8.57917e-05
-4.77163e-05
0.000133614
-3.97787e-05
0.000182639
-6.09494e-05
0.000162691
-0.000128516
0.000126782
-0.000177773
0.000111406
-0.000186333
7.03453e-05
-0.000172547
7.97787e-05
-0.000155221
9.41295e-05
-0.00012445
0.000149508
-0.000124992
0.000148516
-0.000159641
9.40749e-05
-0.000185974
6.08064e-05
-0.00018801
6.5331e-05
-0.000192868
8.34587e-05
-0.000210822
0.000118384
-0.000216149
0.000172003
-0.000210371
0.000191654
-0.000215887
0.000172282
-0.000239774
0.000115961
-0.000251572
7.33067e-05
-0.000247315
2.55085e-06
-7.69424e-05
-0.00025535
1.0268e-05
0.000181801
-1.26331e-05
0.00019337
-7.68483e-05
0.000191975
-0.000140148
0.000156236
-0.000191349
0.00015846
-0.000189372
0.000108665
-0.000192845
7.38134e-05
-0.000175744
6.26763e-05
-0.000150928
6.9316e-05
-0.000122304
0.000120899
-0.000116188
0.000142408
-0.000142262
0.000120149
-0.000169099
8.76432e-05
-0.000184456
8.06731e-05
-0.000191148
9.00527e-05
-0.000192915
0.000119959
-0.000182811
0.000161874
-0.000164733
0.000173576
-0.000150459
0.000158008
-0.000152366
0.000117867
-0.000148729
6.96694e-05
-0.000144164
-2.01381e-06
-8.96659e-05
-0.00013144
4.2984e-05
0.00026463
-5.26075e-05
0.000217457
-0.000118581
0.000184043
-0.000163455
0.000186487
-0.000180729
0.00017507
-0.000169914
9.78494e-05
-0.000159504
6.34035e-05
-0.000145169
4.83402e-05
-0.000130395
5.45406e-05
-0.000106281
9.67897e-05
-9.98035e-05
0.00013595
-0.000121676
0.000142028
-0.000153298
0.000119268
-0.000170601
9.79765e-05
-0.000175782
9.52331e-05
-0.000165724
0.000109901
-0.000137112
0.000133262
-0.000105299
0.000141764
-7.70634e-05
0.000129773
-5.76572e-05
9.84611e-05
-4.21729e-05
5.41852e-05
-2.94476e-05
-1.4739e-05
-0.000103333
-1.57801e-05
5.88479e-05
0.000259457
-8.99184e-05
0.000254462
-0.000136458
0.00021795
-0.000144106
0.000193667
-0.00011321
0.000144172
-9.21781e-05
7.68176e-05
-8.93477e-05
6.0573e-05
-0.000100389
5.93817e-05
-0.000109245
6.3394e-05
-8.98323e-05
7.73675e-05
-6.02482e-05
0.000106365
-4.9348e-05
0.000131135
-7.2516e-05
0.00014243
-0.000107031
0.000132492
-0.000126682
0.000114884
-0.000122933
0.000106152
-9.6183e-05
0.000106511
-5.78752e-05
0.000103456
-1.67329e-05
8.86302e-05
1.95242e-05
6.2204e-05
5.68446e-05
1.68648e-05
8.00113e-05
-3.79057e-05
-0.000112763
8.94406e-05
-0.000104249
0.00037117
-0.000149488
0.00026292
-0.000129502
0.000197812
-8.88395e-05
0.000153003
-3.89962e-05
9.43286e-05
-2.13066e-05
5.9128e-05
-1.94066e-05
5.8673e-05
-2.74978e-05
6.74729e-05
-4.36542e-05
7.95502e-05
-5.04304e-05
8.41418e-05
-3.57406e-05
9.1667e-05
-8.30175e-06
0.000103676
1.50898e-05
0.00011903
2.08327e-05
0.000126749
1.26334e-05
0.000123083
6.0887e-06
0.000112697
1.25829e-05
0.000100018
3.61643e-05
7.98745e-05
6.91286e-05
5.5666e-05
9.93992e-05
3.19337e-05
0.000127427
-1.11628e-05
0.000145491
-5.59704e-05
-0.00011026
0.000142988
-0.000106892
0.000457715
-0.000124129
0.000270665
-8.4135e-05
0.000157818
-3.31068e-05
0.000101974
-6.70781e-06
6.79295e-05
5.23376e-06
4.71864e-05
1.02941e-05
5.36126e-05
1.34755e-05
6.42916e-05
1.21725e-05
8.08532e-05
5.77107e-06
9.05431e-05
2.33889e-06
9.50956e-05
1.23276e-05
9.36788e-05
3.51117e-05
9.62446e-05
6.20283e-05
9.98329e-05
8.16535e-05
0.000103459
9.75319e-05
9.68191e-05
0.000109135
8.84141e-05
0.00012227
6.67387e-05
0.000136281
4.16564e-05
0.000153626
1.45889e-05
0.00016951
-2.70486e-05
0.000174153
-6.06157e-05
-0.000101127
0.00016502
-4.6048e-05
0.000502503
-2.30621e-05
0.000246842
-2.21713e-05
0.000156927
5.81038e-06
7.39929e-05
1.48385e-05
5.89014e-05
1.79688e-05
4.40562e-05
2.3918e-05
4.76633e-05
3.20284e-05
5.61812e-05
4.07911e-05
7.20905e-05
4.36895e-05
8.76447e-05
4.31985e-05
9.55864e-05
4.45264e-05
9.23503e-05
5.32329e-05
8.7538e-05
7.09237e-05
8.21422e-05
9.28907e-05
8.14923e-05
0.000116091
7.3619e-05
0.000137084
6.74196e-05
0.000151025
5.27984e-05
0.000160194
3.24891e-05
0.000168224
6.56048e-06
0.00017318
-3.20043e-05
0.00017425
-6.16871e-05
-9.36431e-05
0.000166765
5.5279e-06
0.000497036
2.12694e-05
0.000231091
2.80821e-05
0.000150114
2.42264e-05
7.78486e-05
2.91537e-05
5.39741e-05
3.042e-05
4.27899e-05
3.44032e-05
4.36801e-05
4.13264e-05
4.92579e-05
5.23194e-05
6.10975e-05
6.16601e-05
7.8304e-05
6.71831e-05
9.00634e-05
7.01286e-05
8.94049e-05
7.5614e-05
8.20526e-05
8.56644e-05
7.20918e-05
0.000100743
6.64139e-05
0.00011602
5.83409e-05
0.00013364
4.97995e-05
0.000147903
3.85355e-05
0.000157318
2.30747e-05
0.000161544
2.33469e-06
0.000158776
-2.92354e-05
0.000153958
-5.68687e-05
-7.81657e-05
0.00013848
6.72069e-05
0.000429826
5.29309e-05
0.000245367
5.38605e-05
0.000149185
4.3706e-05
8.80031e-05
4.23935e-05
5.52867e-05
4.23389e-05
4.28446e-05
4.41403e-05
4.18787e-05
4.7685e-05
4.57131e-05
5.5485e-05
5.32975e-05
6.65461e-05
6.72429e-05
7.59037e-05
8.07058e-05
8.2348e-05
8.29606e-05
8.88578e-05
7.55428e-05
9.57856e-05
6.5164e-05
0.000105573
5.66263e-05
0.000113829
5.00848e-05
0.000123269
4.03602e-05
0.000134195
2.76093e-05
0.00014085
1.64191e-05
0.000144688
-1.5032e-06
0.00014146
-2.60069e-05
0.000131477
-4.68859e-05
-6.30775e-05
0.000116389
7.50817e-05
0.000354744
7.2582e-05
0.000247867
6.50596e-05
0.000156707
5.85299e-05
9.45328e-05
5.56581e-05
5.81584e-05
5.3658e-05
4.48447e-05
5.28525e-05
4.26842e-05
5.32893e-05
4.52763e-05
5.5908e-05
5.06789e-05
6.42974e-05
5.88535e-05
7.51765e-05
6.98266e-05
8.46916e-05
7.34455e-05
9.21861e-05
6.80483e-05
9.79774e-05
5.93727e-05
0.000103644
5.09602e-05
0.000108898
4.48304e-05
0.000114712
3.45463e-05
0.000119954
2.23667e-05
0.000124018
1.23559e-05
0.000127101
-4.58607e-06
0.000123786
-2.2692e-05
0.000115888
-3.89884e-05
-5.2018e-05
0.000104829
6.13445e-05
0.000293399
7.4045e-05
0.000235166
7.41601e-05
0.000156592
7.19387e-05
9.67542e-05
6.77933e-05
6.23038e-05
6.3515e-05
4.91229e-05
6.0066e-05
4.61332e-05
5.79896e-05
4.73527e-05
5.78925e-05
5.07759e-05
6.19399e-05
5.48061e-05
7.07222e-05
6.10443e-05
8.08892e-05
6.32785e-05
8.87563e-05
6.01812e-05
9.42678e-05
5.38612e-05
9.82561e-05
4.69719e-05
0.000102821
4.02652e-05
0.000107195
3.01724e-05
0.000110057
1.95049e-05
0.000113432
8.98073e-06
0.000114448
-5.60169e-06
0.000110678
-1.89222e-05
0.000103874
-3.21842e-05
-4.32761e-05
9.51319e-05
5.13769e-05
0.000242022
7.50752e-05
0.000211468
8.21869e-05
0.00014948
8.11497e-05
9.77914e-05
7.5816e-05
6.76375e-05
6.96524e-05
5.52865e-05
6.44832e-05
5.13024e-05
6.11111e-05
5.07247e-05
6.00423e-05
5.18448e-05
6.17828e-05
5.30656e-05
6.75614e-05
5.52657e-05
7.52344e-05
5.56055e-05
8.19734e-05
5.34421e-05
8.72736e-05
4.8561e-05
9.13586e-05
4.28868e-05
9.57664e-05
3.58574e-05
9.93453e-05
2.65936e-05
0.000101647
1.72031e-05
0.000103426
7.20179e-06
0.000102744
-4.91996e-06
9.91931e-05
-1.53711e-05
9.34618e-05
-2.64528e-05
-3.5682e-05
8.58677e-05
4.42757e-05
0.000197747
7.25307e-05
0.000183213
8.31807e-05
0.00013883
8.28859e-05
9.80862e-05
7.74613e-05
7.30621e-05
7.07498e-05
6.1998e-05
6.53874e-05
5.66647e-05
6.19439e-05
5.41682e-05
6.07763e-05
5.30124e-05
6.16937e-05
5.21482e-05
6.51098e-05
5.18496e-05
7.00808e-05
5.06345e-05
7.53353e-05
4.81877e-05
8.00331e-05
4.38632e-05
8.4134e-05
3.87859e-05
8.80093e-05
3.19821e-05
9.07743e-05
2.38286e-05
9.25764e-05
1.54011e-05
9.33304e-05
6.44775e-06
9.18563e-05
-3.44588e-06
8.89028e-05
-1.24176e-05
8.41791e-05
-2.17291e-05
-2.93753e-05
7.78724e-05
3.61141e-05
0.000161632
6.22635e-05
0.000157064
7.52322e-05
0.000125861
7.69377e-05
9.63807e-05
7.24294e-05
7.75703e-05
6.71771e-05
6.72504e-05
6.31186e-05
6.07232e-05
6.0639e-05
5.66478e-05
5.97946e-05
5.38568e-05
6.03243e-05
5.16185e-05
6.24879e-05
4.9686e-05
6.58083e-05
4.73141e-05
6.97127e-05
4.42833e-05
7.35986e-05
3.99773e-05
7.72684e-05
3.51162e-05
8.04337e-05
2.88167e-05
8.24923e-05
2.177e-05
8.37096e-05
1.41838e-05
8.37708e-05
6.38662e-06
8.23137e-05
-1.98879e-06
7.99675e-05
-1.00714e-05
7.61364e-05
-1.7898e-05
-2.43713e-05
7.11324e-05
2.67794e-05
0.000134853
4.93334e-05
0.00013451
6.16323e-05
0.000113563
6.48562e-05
9.31568e-05
6.34588e-05
7.89677e-05
6.10982e-05
6.96109e-05
5.90009e-05
6.28204e-05
5.77087e-05
5.79401e-05
5.74363e-05
5.41292e-05
5.81193e-05
5.09354e-05
5.97786e-05
4.80266e-05
6.2158e-05
4.49347e-05
6.50458e-05
4.13954e-05
6.79702e-05
3.70529e-05
7.08173e-05
3.22691e-05
7.31529e-05
2.64811e-05
7.47851e-05
2.01377e-05
7.56923e-05
1.32765e-05
7.56028e-05
6.47614e-06
7.44552e-05
-8.41132e-07
7.2443e-05
-8.05928e-06
6.92186e-05
-1.46736e-05
-2.04559e-05
6.53032e-05
1.91626e-05
0.00011569
3.74374e-05
0.000116235
4.87863e-05
0.000102214
5.33273e-05
8.86158e-05
5.44214e-05
7.78736e-05
5.43084e-05
6.97239e-05
5.39133e-05
6.32156e-05
5.37661e-05
5.80873e-05
5.41008e-05
5.37944e-05
5.50254e-05
5.00109e-05
5.64916e-05
4.65604e-05
5.84254e-05
4.30009e-05
6.07009e-05
3.912e-05
6.29553e-05
3.47985e-05
6.51597e-05
3.00648e-05
6.69328e-05
2.4708e-05
6.81122e-05
1.89583e-05
6.85786e-05
1.28101e-05
6.83801e-05
6.67468e-06
6.73513e-05
1.8766e-07
6.54931e-05
-6.20103e-06
6.29724e-05
-1.21528e-05
-1.74701e-05
5.99866e-05
1.40762e-05
0.000101614
2.85269e-05
0.000101784
3.82853e-05
9.24553e-05
4.35865e-05
8.33147e-05
4.63011e-05
7.51589e-05
4.77533e-05
6.82717e-05
4.86266e-05
6.23422e-05
4.93829e-05
5.73309e-05
5.02714e-05
5.29059e-05
5.14289e-05
4.88534e-05
5.28727e-05
4.51166e-05
5.45456e-05
4.1328e-05
5.63392e-05
3.73263e-05
5.80998e-05
3.30379e-05
5.97286e-05
2.8436e-05
6.10117e-05
2.34249e-05
6.18656e-05
1.81045e-05
6.22038e-05
1.24719e-05
6.19983e-05
6.88018e-06
6.10891e-05
1.09681e-06
5.95674e-05
-4.67925e-06
5.73963e-05
-9.98178e-06
-1.49823e-05
5.49085e-05
1.08451e-05
9.07692e-05
2.21042e-05
9.05251e-05
3.03484e-05
8.42111e-05
3.58129e-05
7.78501e-05
3.93552e-05
7.16166e-05
4.17403e-05
6.58866e-05
4.34459e-05
6.06366e-05
4.48426e-05
5.59343e-05
4.61557e-05
5.15928e-05
4.74886e-05
4.75205e-05
4.89362e-05
4.3669e-05
5.04478e-05
3.98165e-05
5.19808e-05
3.57933e-05
5.34295e-05
3.15892e-05
5.47317e-05
2.71339e-05
5.57442e-05
2.24123e-05
5.63652e-05
1.74834e-05
5.65053e-05
1.23318e-05
5.62036e-05
7.18185e-06
5.53652e-05
1.93524e-06
5.40083e-05
-3.32235e-06
5.22651e-05
-8.23849e-06
-1.2925e-05
5.02078e-05
8.66898e-06
8.21002e-05
1.75238e-05
8.16703e-05
2.45223e-05
7.72126e-05
2.97642e-05
7.26083e-05
3.36078e-05
6.7773e-05
3.64685e-05
6.30259e-05
3.8657e-05
5.8448e-05
4.04538e-05
5.41375e-05
4.203e-05
5.00166e-05
4.34912e-05
4.60592e-05
4.49272e-05
4.22329e-05
4.63344e-05
3.84093e-05
4.76658e-05
3.44619e-05
4.8886e-05
3.0369e-05
4.99183e-05
2.61016e-05
5.06823e-05
2.16483e-05
5.11245e-05
1.70412e-05
5.11908e-05
1.22656e-05
5.09019e-05
7.4707e-06
5.01957e-05
2.64145e-06
4.90584e-05
-2.18497e-06
4.75473e-05
-6.72741e-06
-1.11329e-05
4.57552e-05
7.09339e-06
7.50068e-05
1.42363e-05
7.45274e-05
2.01968e-05
7.12521e-05
2.50269e-05
6.77781e-05
2.88463e-05
6.39536e-05
3.18696e-05
6.00027e-05
3.42884e-05
5.60292e-05
3.62988e-05
5.21271e-05
3.80221e-05
4.82934e-05
3.95573e-05
4.45241e-05
4.09862e-05
4.08041e-05
4.23119e-05
3.70835e-05
4.35109e-05
3.3263e-05
4.45666e-05
2.93132e-05
4.5416e-05
2.52523e-05
4.60229e-05
2.10414e-05
4.63548e-05
1.67093e-05
4.63696e-05
1.22509e-05
4.60522e-05
7.78813e-06
4.53888e-05
3.30483e-06
4.43816e-05
-1.17772e-06
4.30948e-05
-5.44062e-06
-9.58668e-06
4.15486e-05
5.89594e-06
6.91109e-05
1.17756e-05
6.86478e-05
1.6891e-05
6.61366e-05
2.12468e-05
6.34222e-05
2.48691e-05
6.03313e-05
2.78641e-05
5.70077e-05
3.03451e-05
5.35482e-05
3.24314e-05
5.00407e-05
3.42145e-05
4.65103e-05
3.57701e-05
4.29684e-05
3.71634e-05
3.94108e-05
3.84124e-05
3.58344e-05
3.95061e-05
3.21693e-05
4.04283e-05
2.83911e-05
4.11538e-05
2.45267e-05
4.1653e-05
2.05422e-05
4.19086e-05
1.64536e-05
4.18777e-05
1.22818e-05
4.15685e-05
8.09726e-06
4.09663e-05
3.90713e-06
4.00637e-05
-2.75142e-07
3.89164e-05
-4.2933e-06
-8.21949e-06
3.75492e-05
4.9582e-06
6.41527e-05
9.88146e-06
6.37245e-05
1.42983e-05
6.17198e-05
1.81847e-05
5.95359e-05
2.15297e-05
5.69862e-05
2.43829e-05
5.41546e-05
2.68065e-05
5.11246e-05
2.88738e-05
4.79734e-05
3.06479e-05
4.47362e-05
3.21812e-05
4.14351e-05
3.3516e-05
3.8076e-05
3.46801e-05
3.46704e-05
3.56694e-05
3.118e-05
3.64784e-05
2.7582e-05
3.70982e-05
2.39069e-05
3.75094e-05
2.0131e-05
3.77027e-05
1.62603e-05
3.76526e-05
1.2332e-05
3.73487e-05
8.40118e-06
3.67893e-05
4.46645e-06
3.59644e-05
5.49788e-07
3.49545e-05
-3.28331e-06
-7.00509e-06
3.37401e-05
4.20151e-06
5.99512e-05
8.37197e-06
5.9554e-05
1.21964e-05
5.78953e-05
1.56402e-05
5.60921e-05
1.86807e-05
5.39458e-05
2.13341e-05
5.15012e-05
2.36296e-05
4.88291e-05
2.56099e-05
4.59931e-05
2.73137e-05
4.30323e-05
2.87843e-05
3.99645e-05
3.00443e-05
3.6816e-05
3.11262e-05
3.35885e-05
3.20323e-05
3.02739e-05
3.27573e-05
2.68571e-05
3.32972e-05
2.3367e-05
3.3638e-05
1.97902e-05
3.376e-05
1.61383e-05
3.36616e-05
1.24304e-05
3.33545e-05
8.70829e-06
3.28388e-05
4.98218e-06
3.21043e-05
1.28425e-06
3.11933e-05
-2.37227e-06
-5.91282e-06
3.0101e-05
3.5778e-06
5.63734e-05
7.14006e-06
5.59918e-05
1.04557e-05
5.45797e-05
1.34921e-05
5.30557e-05
1.62226e-05
5.12152e-05
1.86427e-05
4.90811e-05
2.07651e-05
4.67067e-05
2.26149e-05
4.41433e-05
2.42135e-05
4.14338e-05
2.55882e-05
3.85897e-05
2.67644e-05
3.56398e-05
2.77592e-05
3.25937e-05
2.85788e-05
2.94543e-05
2.92179e-05
2.6218e-05
2.96802e-05
2.29048e-05
2.99566e-05
1.95137e-05
3.00475e-05
1.60474e-05
2.99397e-05
1.25382e-05
2.96275e-05
9.02048e-06
2.91225e-05
5.48726e-06
2.84384e-05
1.96836e-06
2.7596e-05
-1.52987e-06
-4.92685e-06
2.661e-05
3.05947e-06
5.33139e-05
6.11703e-06
5.29342e-05
8.99862e-06
5.16981e-05
1.16624e-05
5.0392e-05
1.4086e-05
4.87916e-05
1.62599e-05
4.69071e-05
1.81832e-05
4.47834e-05
1.98635e-05
4.2463e-05
2.13225e-05
3.99748e-05
2.25718e-05
3.73404e-05
2.36306e-05
3.4581e-05
2.45081e-05
3.17163e-05
2.52204e-05
2.8742e-05
2.57717e-05
2.56667e-05
2.61655e-05
2.2511e-05
2.63953e-05
1.92839e-05
2.64501e-05
1.59926e-05
2.63277e-05
1.26606e-05
2.60452e-05
9.30297e-06
2.55887e-05
5.94373e-06
2.49531e-05
2.60402e-06
2.41732e-05
-7.49968e-07
-4.01202e-06
2.32583e-05
2.62089e-06
5.0693e-05
5.23934e-06
5.03158e-05
7.71931e-06
4.92181e-05
1.00384e-05
4.80729e-05
1.21728e-05
4.66573e-05
1.41071e-05
4.49728e-05
1.58346e-05
4.30559e-05
1.7358e-05
4.09396e-05
1.86917e-05
3.86411e-05
1.98363e-05
3.61958e-05
2.08029e-05
3.36143e-05
2.16031e-05
3.09161e-05
2.22358e-05
2.81093e-05
2.2698e-05
2.52045e-05
2.29931e-05
2.22159e-05
2.31226e-05
1.91544e-05
2.30867e-05
1.60285e-05
2.29066e-05
1.28407e-05
2.25837e-05
9.6259e-06
2.21304e-05
6.39703e-06
2.15608e-05
3.17366e-06
2.08544e-05
-4.35285e-08
-3.1775e-06
2.00199e-05
2.23011e-06
4.84629e-05
4.48611e-06
4.80598e-05
6.64321e-06
4.7061e-05
8.66345e-06
4.60526e-05
1.05311e-05
4.47896e-05
1.2233e-05
4.32709e-05
1.37613e-05
4.15275e-05
1.51124e-05
3.95885e-05
1.62834e-05
3.74701e-05
1.7282e-05
3.51972e-05
1.81135e-05
3.27829e-05
1.87852e-05
3.02444e-05
1.93094e-05
2.7585e-05
1.96938e-05
2.48201e-05
1.99362e-05
2.19736e-05
2.00397e-05
1.90509e-05
2.00008e-05
1.60673e-05
1.9799e-05
1.30425e-05
1.94359e-05
9.989e-06
1.8938e-05
6.89489e-06
1.83266e-05
3.78511e-06
1.7618e-05
6.65052e-07
-2.41217e-06
1.68527e-05
1.91635e-06
4.65465e-05
3.80671e-06
4.61694e-05
5.6039e-06
4.52638e-05
7.29258e-06
4.43639e-05
8.8652e-06
4.3217e-05
1.03126e-05
4.18234e-05
1.16337e-05
4.02065e-05
1.2828e-05
3.83942e-05
1.38884e-05
3.64097e-05
1.48053e-05
3.42803e-05
1.55706e-05