/*--------------------------------*- C++ -*----------------------------------*\
| =========                 |                                                 |
| \\      /  F ield         | OpenFOAM: The Open Source CFD Toolbox           |
|  \\    /   O peration     | Version:  2.4.0                                 |
|   \\  /    A nd           | Web:      www.OpenFOAM.org                      |
|    \\/     M anipulation  |                                                 |
\*---------------------------------------------------------------------------*/
FoamFile
{
    version     2.0;
    format      ascii;
    class       surfaceScalarField;
    location    "1";
    object      phi.oil;
}
// * * * * * * * * * * * * * * * * * * * * * * * * * * * * * * * * * * * * * //

dimensions      [0 3 -1 0 0 0 0];

internalField   nonuniform List<scalar> 
4432
(
-4.14466e-06
4.14432e-06
-8.34855e-06
4.20356e-06
-1.16987e-05
3.34979e-06
-1.37923e-05
2.09322e-06
-1.48537e-05
1.061e-06
-1.5311e-05
4.56994e-07
-1.5196e-05
-1.15156e-07
-1.51926e-05
-3.54542e-09
-1.55006e-05
3.0795e-07
-1.57158e-05
2.15136e-07
-1.52342e-05
-4.81553e-07
-1.40396e-05
-1.19428e-06
-1.28267e-05
-1.21213e-06
-1.19191e-05
-9.05997e-07
-1.12358e-05
-6.80606e-07
-1.04889e-05
-7.43142e-07
-9.36739e-06
-1.11584e-06
-7.62392e-06
-1.73081e-06
-5.30313e-06
-2.25669e-06
-3.27858e-06
-1.73682e-06
-2.50986e-06
1.53332e-08
-1.88996e-06
8.02552e-07
-1.07519e-07
-4.13239e-06
8.27625e-06
-8.29183e-06
8.36263e-06
-1.15974e-05
6.65489e-06
-1.39703e-05
4.46566e-06
-1.53781e-05
2.46831e-06
-1.58267e-05
9.05374e-07
-1.54241e-05
-5.17487e-07
-1.52566e-05
-1.70403e-07
-1.53245e-05
3.76207e-07
-1.51874e-05
7.85365e-08
-1.46482e-05
-1.01845e-06
-1.38056e-05
-2.03267e-06
-1.28938e-05
-2.11931e-06
-1.21359e-05
-1.66026e-06
-1.14163e-05
-1.39755e-06
-1.03712e-05
-1.78598e-06
-8.98547e-06
-2.49572e-06
-7.09669e-06
-3.59872e-06
-4.92821e-06
-4.37838e-06
-2.93198e-06
-3.75521e-06
-1.17188e-06
-1.92963e-06
-6.05336e-08
-3.85656e-07
2.43901e-07
-4.14892e-06
1.24252e-05
-7.90955e-06
1.2123e-05
-1.11877e-05
9.9327e-06
-1.40046e-05
7.2823e-06
-1.57398e-05
4.20775e-06
-1.57527e-05
9.37826e-07
-1.55667e-05
-6.39965e-07
-1.52475e-05
-4.17659e-07
-1.53308e-05
5.24098e-07
-1.54114e-05
2.15603e-07
-1.49743e-05
-1.37955e-06
-1.43102e-05
-2.59745e-06
-1.33643e-05
-2.96141e-06
-1.21658e-05
-2.76224e-06
-1.09164e-05
-2.57324e-06
-9.51804e-06
-3.12488e-06
-8.04072e-06
-3.91925e-06
-6.66119e-06
-4.90211e-06
-5.25763e-06
-5.61757e-06
-3.74427e-06
-5.03249e-06
-1.68361e-06
-3.75599e-06
2.40446e-07
-2.3168e-06
1.16084e-07
-4.89166e-06
1.7334e-05
-9.49463e-06
1.67294e-05
-1.33294e-05
1.37672e-05
-1.59355e-05
9.8929e-06
-1.70849e-05
5.40995e-06
-1.76049e-05
1.67214e-06
-1.72144e-05
-4.855e-07
-1.66312e-05
2.34258e-08
-1.56456e-05
1.16562e-06
-1.50248e-05
1.79429e-06
-1.49018e-05
1.17211e-06
-1.45112e-05
1.38365e-07
-1.39032e-05
-6.98845e-07
-1.27681e-05
-1.25754e-06
-1.11901e-05
-1.45408e-06
-9.47446e-06
-2.14066e-06
-8.03444e-06
-2.73368e-06
-6.69204e-06
-3.07782e-06
-5.46974e-06
-2.8011e-06
-4.15526e-06
-3.77765e-06
-2.30124e-06
-5.56315e-06
-5.47949e-07
-3.44075e-06
4.42244e-07
-5.87895e-06
2.32797e-05
-1.34405e-05
2.43212e-05
-1.80623e-05
1.83996e-05
-2.09777e-05
1.29121e-05
-2.06897e-05
5.68834e-06
-1.89008e-05
1.69947e-07
-1.90112e-05
-2.35732e-06
-1.89861e-05
-3.60374e-06
-1.85846e-05
-3.09141e-06
-1.85657e-05
2.44581e-07
-1.8074e-05
4.93521e-06
-1.68864e-05
9.58336e-06
-1.50366e-05
1.22059e-05
-1.30403e-05
1.31948e-05
-1.09819e-05
1.40199e-05
-9.29917e-06
1.46245e-05
-7.56697e-06
1.45363e-05
-5.91499e-06
1.30594e-05
-4.76426e-06
1.25945e-05
-4.04928e-06
9.25952e-06
-2.82944e-06
7.91438e-06
-6.00141e-07
2.1601e-05
2.88416e-05
-1.14122e-05
3.47838e-05
-2.06188e-05
3.35981e-05
-2.35896e-05
2.17414e-05
-2.18563e-05
1.01039e-05
-2.29476e-05
-5.62789e-07
-2.39488e-05
-1.41223e-05
-2.29121e-05
-2.61516e-05
-2.11137e-05
-3.16978e-05
-1.76287e-05
-3.07603e-05
-1.48903e-05
-2.36049e-05
-1.40226e-05
-8.67397e-06
-1.44692e-05
2.28903e-06
-1.60989e-05
4.17477e-06
-1.70784e-05
1.5836e-06
-1.65163e-05
1.73647e-06
-1.39491e-05
4.12434e-06
-1.06169e-05
6.9955e-06
-6.99627e-06
7.12593e-06
-4.532e-06
7.23015e-06
-4.64918e-06
1.59231e-05
-7.76827e-06
3.47252e-05
-7.36269e-06
5.75212e-05
4.28644e-05
-1.85578e-05
5.34364e-05
-2.54557e-05
4.06817e-05
-2.4884e-05
1.57667e-05
-2.50784e-05
-7.88944e-06
-2.64413e-05
-2.40669e-05
-2.69472e-05
-2.31794e-05
-2.38941e-05
-1.12793e-05
-1.65467e-05
-1.33276e-05
-7.68299e-06
-1.58683e-05
1.00042e-07
-1.22834e-05
1.6022e-06
-9.16521e-06
-1.45023e-06
-5.41637e-06
-6.37239e-06
-5.24426e-06
-1.19676e-05
-8.07342e-06
-1.57967e-05
-1.01521e-05
-1.68295e-05
-9.50492e-06
-1.71783e-05
-6.45396e-06
-1.69036e-05
-4.62614e-06
-1.66464e-05
-1.55928e-06
-1.5687e-05
2.50034e-07
-1.35429e-05
-2.46044e-06
-1.65737e-05
-2.21142e-06
-2.04485e-05
-2.04879e-05
7.38184e-05
-2.21248e-05
3.76115e-05
-2.35662e-05
4.1308e-06
-3.84325e-05
2.51176e-06
-4.06432e-05
-2.52302e-06
-2.44083e-05
-1.88658e-05
-1.01994e-05
-1.7904e-05
-1.16692e-06
-1.59961e-05
3.95285e-06
-7.56479e-06
5.39239e-06
5.00574e-06
9.18455e-06
1.66588e-06
1.26684e-05
9.17998e-06
1.12938e-05
2.19127e-05
5.12249e-06
2.63109e-05
-3.39983e-06
2.51033e-05
-1.04676e-05
1.71859e-05
-1.56455e-05
1.11532e-05
-2.03497e-05
8.52111e-06
-2.40649e-05
8.83345e-06
-2.49949e-05
3.78525e-06
-2.45053e-05
-2.99922e-06
-1.51415e-05
-8.30509e-06
-3.71875e-05
6.24406e-06
3.73195e-05
1.44527e-05
3.19807e-05
1.81922e-05
4.62762e-05
2.17022e-05
5.20654e-05
2.36892e-05
5.66892e-05
2.29774e-05
8.15763e-05
1.80914e-05
0.000104637
1.55457e-05
0.000113614
1.80043e-05
8.00206e-05
1.87097e-05
6.84429e-05
1.61587e-05
6.44888e-05
1.11134e-05
6.02142e-05
1.16151e-05
5.26895e-05
1.52061e-05
4.70854e-05
8.55356e-06
5.19848e-05
-1.07633e-07
5.67948e-05
-7.14596e-06
5.43903e-05
-9.15509e-06
4.43308e-05
3.35967e-05
1.21694e-05
4.7688e-06
1.85718e-05
-1.66762e-06
2.16058e-05
4.77312e-06
2.07602e-05
1.91704e-06
2.47343e-05
-2.12703e-06
2.00632e-05
1.12434e-05
1.56675e-05
1.49164e-05
-2.54583e-06
2.60065e-05
-1.47384e-05
2.36345e-05
-1.4183e-05
1.52785e-05
-1.54668e-05
1.54485e-05
-1.93859e-05
2.5345e-05
-2.12268e-05
2.5607e-05
-1.12004e-05
1.55107e-05
-6.96419e-06
1.7722e-05
-8.93654e-06
3.80378e-05
-9.14701e-06
3.92873e-05
-8.38198e-06
2.8429e-05
1.54786e-05
-1.92479e-06
-4.90275e-05
-4.57002e-06
-3.4951e-05
3.18114e-08
-1.75958e-05
3.07546e-06
-6.02674e-06
-3.453e-06
1.09064e-06
-7.68596e-06
2.47735e-05
-1.18246e-05
4.17977e-05
-2.52336e-05
6.50137e-05
-4.56051e-05
6.54317e-05
-4.73728e-05
4.43249e-05
-4.5714e-05
4.16182e-05
-4.35894e-05
5.57786e-05
-3.64832e-05
5.45747e-05
-2.93126e-05
2.4512e-05
-1.72206e-05
2.11038e-05
-1.09874e-05
4.61741e-05
-8.23998e-06
5.03636e-05
-3.61764e-06
3.26362e-05
1.54628e-05
1.08828e-05
-3.59093e-05
1.32388e-05
-2.21631e-05
1.367e-05
-7.37043e-06
1.31736e-05
-4.81974e-06
1.34916e-05
-1.07762e-06
3.35869e-06
2.1728e-05
-1.07669e-05
3.57468e-05
-1.88903e-05
6.10407e-05
-3.32919e-05
5.84618e-05
-4.34484e-05
2.42297e-05
-4.46735e-05
1.86729e-05
-4.55302e-05
3.06942e-05
-4.41962e-05
2.98531e-05
-3.89294e-05
6.56279e-06
-2.85506e-05
9.2775e-07
-1.62529e-05
2.34569e-05
-8.28333e-06
3.35914e-05
-2.2703e-06
2.16406e-05
1.56111e-05
4.87204e-06
-3.06446e-05
-1.49079e-06
-2.15079e-05
-4.5143e-06
-9.94899e-06
-8.03599e-06
-2.1325e-06
-1.15213e-05
2.06286e-06
-9.67122e-06
2.00691e-05
-2.88456e-06
3.57119e-05
-3.69946e-07
6.28891e-05
-1.03685e-05
6.46763e-05
-1.90178e-05
2.61462e-05
-2.42694e-05
8.28288e-06
-3.36825e-05
1.67712e-05
-4.04524e-05
7.80806e-06
-3.7202e-05
-1.72895e-05
-3.48587e-05
-9.57926e-06
-1.88398e-05
1.84236e-05
-5.61507e-06
3.46079e-05
2.54624e-06
1.87048e-05
1.4589e-05
7.58484e-06
-3.56737e-05
1.18353e-05
-1.45709e-05
1.10002e-05
-8.01114e-06
5.38191e-06
4.07615e-06
-9.80505e-06
1.76569e-05
-1.52669e-05
2.46602e-05
-1.40013e-05
2.18936e-05
3.16097e-06
4.43996e-05
4.36961e-06
6.2124e-05
-9.49846e-06
4.01716e-05
-1.71769e-05
1.84519e-05
-1.64772e-05
1.72087e-05
-1.12232e-05
1.84747e-06
-2.00392e-05
-1.71708e-05
-2.7055e-05
-1.72967e-05
-2.06635e-05
7.6051e-06
-6.02406e-06
1.4923e-05
1.57113e-06
2.46941e-06
2.82089e-07
4.87103e-06
-4.05273e-05
1.49432e-06
-1.10282e-05
-5.58582e-06
-3.31506e-06
-1.22951e-05
1.00599e-05
-1.43504e-05
2.0094e-05
-1.61482e-05
2.99096e-05
-1.02906e-05
2.34331e-05
3.74142e-06
3.18731e-05
1.26281e-05
5.32052e-05
2.84925e-06
4.9058e-05
-1.08049e-05
2.97595e-05
-1.39523e-05
1.9816e-05
-1.35948e-05
2.39942e-06
-1.41935e-05
-1.67464e-05
-2.20942e-05
-1.59172e-05
-2.69093e-05
-5.80467e-06
-1.91617e-05
-1.1209e-05
-9.81016e-06
-2.40194e-05
-2.05761e-05
6.56668e-06
-4.71454e-05
3.75955e-06
-8.00965e-06
-5.5758e-07
2.70933e-06
-1.25745e-05
2.24035e-05
-2.0924e-05
2.86985e-05
-1.87591e-05
2.58568e-05
-1.61202e-05
1.4939e-05
-1.77704e-06
1.6458e-05
1.30212e-05
3.91803e-05
1.16247e-05
4.94301e-05
-5.37998e-07
4.36758e-05
-9.20779e-06
3.13029e-05
-1.10256e-05
3.92587e-06
-1.82187e-05
-8.84904e-06
-2.75424e-05
-7.42539e-06
-2.93924e-05
-9.16704e-06
-2.75321e-05
-1.69888e-05
-1.65824e-05
-3.52921e-05
-3.67266e-05
-3.3197e-05
9.9788e-05
-5.26706e-05
4.62639e-05
-4.82118e-05
6.50015e-06
-1.65759e-05
-9.20559e-06
9.32533e-06
-1.67103e-05
1.85477e-05
-2.54101e-05
2.62866e-05
-2.77427e-05
3.38635e-05
-2.78526e-05
4.24825e-05
-2.50615e-05
5.59013e-05
-1.228e-05
5.37582e-05
3.13763e-06
4.16637e-05
1.49547e-05
2.57505e-05
2.64308e-05
7.43935e-06
3.16734e-05
-7.1644e-06
2.71748e-05
-1.8699e-05
1.88388e-05
-2.65527e-05
1.11157e-05
-2.82992e-05
6.35709e-06
-1.92042e-05
-4.78921e-07
-1.50939e-05
2.38482e-06
-2.94678e-05
1.00654e-05
-5.30406e-05
1.33803e-05
-3.65229e-05
-5.65261e-05
-1.93511e-05
0.000108661
4.89428e-07
4.06228e-05
2.52781e-05
1.30858e-06
3.29425e-05
-1.20443e-05
4.00578e-05
-1.60128e-05
4.42879e-05
-2.07614e-05
5.07059e-05
-2.26747e-05
5.73562e-05
-2.15332e-05
6.10606e-05
-1.80458e-05
6.58238e-05
-9.10191e-06
6.65189e-05
6.18416e-06
6.33065e-05
3.07571e-05
5.26004e-05
4.85926e-05
3.90951e-05
5.5973e-05
2.61491e-05
4.83716e-05
1.09575e-05
4.1585e-05
-4.94337e-06
3.56173e-05
-1.14401e-05
2.15806e-05
-2.18762e-05
9.21788e-06
-3.72873e-05
1.90728e-05
-4.0764e-05
1.95633e-05
-2.31221e-05
-3.06869e-06
-1.66649e-05
-4.36695e-05
1.21298e-05
4.85291e-05
4.07016e-05
1.908e-05
5.13829e-05
-5.04352e-07
5.47867e-05
-1.16204e-05
5.59915e-05
-1.62229e-05
5.81386e-05
-1.92194e-05
6.05892e-05
-2.38923e-05
6.93749e-05
-2.68077e-05
7.79365e-05
-2.58422e-05
8.61239e-05
-1.88924e-05
8.69217e-05
-9.54091e-07
7.34977e-05
3.13728e-05
5.2294e-05
6.02721e-05
3.28879e-05
6.83699e-05
1.73098e-05
5.85734e-05
6.92114e-06
4.82786e-05
-2.36267e-06
4.05626e-05
-2.53237e-05
3.7068e-05
-6.68817e-05
4.70451e-05
-0.000102567
4.96943e-05
-0.000116317
2.83742e-05
-0.000118557
8.47963e-07
-1.71105e-05
-0.000117056
5.46478e-05
4.73338e-05
6.01469e-05
2.33857e-05
5.8177e-05
1.20573e-06
5.54003e-05
-8.56318e-06
5.3752e-05
-1.43874e-05
5.15751e-05
-1.92313e-05
4.92599e-05
-2.62504e-05
5.17937e-05
-3.15326e-05
5.37516e-05
-3.17459e-05
5.93477e-05
-2.9289e-05
5.67901e-05
-8.07483e-06
4.21955e-05
3.54054e-05
2.44493e-05
7.1204e-05
8.60586e-06
8.10864e-05
-5.16419e-06
7.05501e-05
-2.24639e-05
6.38468e-05
-5.4934e-05
7.42993e-05
-0.000106754
9.66293e-05
-0.000160364
0.000104175
-0.000181278
7.16828e-05
-0.000179261
2.78051e-05
-0.000179403
2.00016e-06
-1.32087e-05
-0.000182215
3.32434e-05
1.94359e-05
3.7945e-05
2.03794e-05
3.80573e-05
3.43204e-06
3.64294e-05
-5.76903e-06
3.05821e-05
-9.47156e-06
2.31442e-05
-1.32424e-05
3.39132e-06
-7.61831e-06
-2.65701e-05
-5.00785e-06
-4.69061e-05
-1.71625e-05
-5.16677e-05
-3.0386e-05
-4.53998e-05
-1.66145e-05
-3.98232e-05
2.7135e-05
-4.23184e-05
6.60869e-05
-5.24976e-05
8.8189e-05
-8.90857e-05
0.000102677
-0.000152082
0.000118462
-0.000211825
0.000134082
-0.000242661
0.00012511
-0.000244509
0.000104744
-0.000242104
6.99071e-05
-0.000242577
2.84692e-05
-0.000233233
-8.28162e-06
-2.14903e-05
-0.000225235
1.33292e-05
4.11731e-06
1.13896e-05
2.11845e-05
8.62337e-06
7.62286e-06
7.21372e-06
-4.33185e-06
-3.96314e-06
-1.16231e-06
-4.01434e-05
1.58365e-05
-7.74317e-05
2.28097e-05
-0.000104752
1.8345e-05
-0.000123521
9.3775e-09
-0.000149108
-1.12735e-05
-0.000171579
-2.94083e-06
-0.000171948
3.00412e-05
-0.000185481
7.47348e-05
-0.000206095
0.000101192
-0.000233289
0.000119234
-0.000254521
0.000134204
-0.00026064
0.000138802
-0.000267033
0.000129528
-0.000264284
8.58494e-05
-0.000278637
6.13947e-06
-0.000302243
-4.54778e-05
-0.00029571
-7.13895e-05
-6.91607e-05
-0.000270593
2.47533e-07
3.35299e-06
1.97061e-06
1.9224e-05
-3.85085e-07
8.18021e-06
-1.67352e-05
9.3192e-06
-5.70829e-05
3.43974e-05
-9.08991e-05
4.57291e-05
-0.000101699
3.22638e-05
-0.000114246
2.80934e-05
-0.000143712
1.2761e-05
-0.000207558
2.11978e-06
-0.000241791
2.18226e-05
-0.000244452
3.8943e-05
-0.000250263
7.83242e-05
-0.000258612
0.000107748
-0.000259527
0.00011868
-0.000256745
0.000130183
-0.000253432
0.000132225
-0.000253515
9.34942e-05
-0.000272163
4.82786e-06
-0.000296947
-6.20503e-05
-0.000287513
-9.78168e-05
-0.000285248
-0.000143043
-0.000143599
-0.000272336
-7.13142e-07
2.13681e-06
-5.60488e-06
2.45299e-05
-2.79554e-05
2.96865e-05
-7.48859e-05
5.23868e-05
-0.000108877
6.45611e-05
-0.000112102
4.60308e-05
-9.32125e-05
1.73724e-06
-0.000110486
-5.66805e-06
-0.000195833
-1.21282e-05
-0.000305282
-3.30308e-07
-0.000308449
4.05915e-05
-0.000269046
4.44047e-05
-0.000256232
5.81514e-05
-0.000249076
9.25907e-05
-0.000245556
0.000112089
-0.000238097
0.000114668
-0.000243456
9.70772e-05
-0.000295837
5.61527e-05
-0.000326574
-4.89352e-05
-0.000297607
-0.000104301
-0.000265743
-8.27807e-05
-0.000259882
-0.000101134
-9.87012e-05
-0.000247924
1.44985e-06
-9.43901e-07
-1.78948e-05
4.40708e-05
-6.2359e-05
7.18492e-05
-0.00010417
9.17552e-05
-0.000120177
7.55714e-05
-0.00012718
-1.86688e-06
-0.000144252
-5.45285e-05
-0.000145206
-5.39145e-05
-0.000256796
-4.75749e-05
-0.000432709
2.31559e-05
-0.000431791
7.06569e-05
-0.000299981
6.56412e-05
-0.00024192
5.86697e-05
-0.000225667
6.66151e-05
-0.000217095
7.72564e-05
-0.000210661
7.44503e-05
-0.000235012
7.00715e-05
-0.00030933
3.61353e-05
-0.0003077
2.1682e-05
-0.000233882
-2.95989e-05
-0.000243027
-1.79159e-05
-0.000242676
-4.3893e-05
-8.10892e-05
-0.000228453
-1.8782e-05
2.09666e-05
-5.47497e-05
8.07997e-05
-9.17457e-05
0.000107531
-0.000107695
0.000100832
-0.00013196
3.49029e-05
-0.000160528
-4.12494e-05
-0.000154186
-6.84044e-05
-0.000153292
-4.53394e-05
-0.000241389
-5.06824e-05
-0.000452051
6.09723e-05
-0.000505354
9.17479e-05
-0.00040173
8.41309e-05
-0.000278842
7.27917e-05
-0.000229068
6.37867e-05
-0.000208232
6.41043e-05
-0.000197517
5.64693e-05
-0.000206299
4.7222e-05
-0.000177793
7.63845e-05
-0.000250729
0.000150021
-0.000272159
7.81612e-05
-0.000314299
5.80415e-05
-0.000348551
3.02193e-06
-8.8261e-05
-0.000331026
-5.19441e-05
7.33909e-05
-8.41979e-05
0.000113011
-0.000100745
0.000111884
-0.000134234
6.41457e-05
-0.000169524
-1.70802e-06
-0.00016702
-5.20653e-05
-0.000161434
-9.54275e-06
-0.000172042
-1.1994e-06
-0.000141263
-2.12194e-05
-0.000208273
3.45809e-05
-0.000330467
0.000138019
-0.000412735
7.78225e-05
-0.000341631
6.06611e-05
-0.00025414
5.76872e-05
-0.000215144
5.69971e-05
-0.000194294
4.99606e-05
-0.000163932
5.87511e-05
-0.000173294
0.000138787
-0.000218878
0.000167492
-0.00023803
0.000110319
-0.000251716
6.43969e-05
-0.000247476
-4.60612e-06
-8.1142e-05
-0.000252411
-6.58584e-05
0.000138671
-9.34933e-05
0.000123012
-0.000140816
8.53686e-05
-0.000169281
3.83752e-05
-0.000164285
-8.70451e-06
-0.000137965
6.6191e-06
-0.000146946
6.457e-05
-0.000151626
6.73817e-06
-0.000171782
-3.29007e-05
-0.000145304
-2.9182e-05
-0.000179864
4.53042e-05
-0.000224514
6.85878e-05
-0.000243404
8.79285e-05
-0.000253938
6.82877e-05
-0.000241191
5.72768e-05
-0.000166934
6.25709e-05
-0.000182233
0.000146212
-0.000168723
0.000170174
-0.000155523
0.000155689
-0.000156818
0.000115559
-0.000151702
6.61233e-05
-0.000140808
-5.16427e-06
-8.95802e-05
-0.000124606
-6.28988e-05
0.000182753
-0.000131988
0.000117621
-0.00015914
6.74499e-05
-0.00015
2.96586e-05
-0.000122016
4.00318e-05
-0.000170478
9.01021e-05
-0.000131825
5.60184e-05
-0.00011463
1.62168e-05
-0.000135434
-2.27924e-05
-0.000147186
-3.73155e-05
-0.000160179
-1.91183e-05
-0.00014076
3.03237e-05
-0.000152089
5.49806e-05
-0.000178672
9.90268e-05
-0.000183325
9.18612e-05
-0.000170888
0.000105792
-0.000143006
0.000131416
-0.000111445
0.000141236
-8.22312e-05
0.000129578
-6.3856e-05
9.94542e-05
-4.79184e-05
5.60933e-05
-2.80457e-05
-1.09545e-05
-9.97387e-05
-9.69755e-06
-9.40374e-05
0.000192802
-0.000142475
0.000106338
-0.000136033
6.03928e-05
-9.53684e-05
6.02141e-05
-0.000114226
0.000136744
-9.18135e-05
7.46864e-05
-8.96922e-05
5.9318e-05
-7.26902e-05
5.67427e-05
-0.000108933
1.79235e-05
-0.000124284
-9.81759e-07
-0.000128436
-2.14161e-05
-0.00010543
-9.8415e-06
-6.29411e-05
6.07944e-05
-0.000104173
0.000102758
-0.000129977
9.38563e-05
-0.000126998
7.32662e-05
-0.00010075
8.18304e-05
-6.27762e-05
0.000101632
-2.21702e-05
8.79427e-05
1.43288e-05
6.35064e-05
5.28974e-05
1.79659e-05
8.15837e-05
-3.3066e-05
-0.000109063
9.2593e-05
-0.000194602
0.000268983
-0.000116897
9.58476e-05
-0.000105507
8.60896e-05
-8.86378e-05
0.000143627
-4.07773e-05
9.43901e-05
-2.10478e-05
5.88729e-05
-1.93156e-05
5.82225e-05
-2.85405e-05
6.70489e-05
-4.15752e-05
7.7406e-05
-8.01908e-05
3.07864e-05
-9.71982e-05
1.37387e-05
-5.94284e-05
9.93533e-06
-3.74583e-06
6.90534e-05
1.53211e-05
0.000109891
1.77531e-05
0.00010068
1.51105e-05
8.89359e-05
1.02386e-05
7.91438e-05
3.24716e-05
6.30352e-05
6.56953e-05
4.555e-05
9.79114e-05
2.09414e-05
0.000128775
-2.69663e-06
0.000144272
-3.12532e-05
-8.8027e-05
0.000139958
-0.000304579
0.000414909
-8.39625e-05
0.000134411
-9.05897e-05
0.000152713
-3.30253e-05
0.000102106
-7.21125e-06
6.78399e-05
5.43612e-06
4.69768e-05
1.0347e-05
5.34074e-05
1.34429e-05
6.41194e-05
1.12791e-05
8.07115e-05
-1.92329e-05
8.91001e-05
-3.91586e-05
4.27899e-05
-1.93511e-05
3.12908e-05
2.53996e-05
5.63967e-05
3.12312e-05
7.57153e-05
3.98386e-05
7.35259e-05
5.37379e-05
7.04926e-05
7.62325e-05
7.15899e-05
9.46235e-05
6.68806e-05
8.96513e-05
5.00664e-05
0.000108929
1.67547e-05
0.000133124
-7.09036e-06
0.000139285
-3.55031e-05
-7.4601e-05
0.000112774
-0.000423329
0.000523683
-2.27657e-05
0.000208052
-2.71285e-05
0.000156659
6.40377e-06
7.39491e-05
1.47239e-05
5.86048e-05
1.8059e-05
4.39138e-05
2.39729e-05
4.7579e-05
3.20115e-05
5.61252e-05
4.0753e-05
7.20334e-05
4.31781e-05
8.75823e-05
3.85497e-05
9.50526e-05
4.16161e-05
8.22589e-05
4.92338e-05
8.48399e-05
4.23149e-05
7.37767e-05
6.43233e-05
5.18668e-05
7.5934e-05
5.10601e-05
0.000112762
5.00158e-05
0.00010879
4.7196e-05
0.000108538
3.60601e-05
0.000110452
1.03678e-05
0.000126137
-1.44324e-05
0.00013782
-3.80988e-05
-6.17186e-05
9.49757e-05
-0.0003203
0.000347315
2.20818e-05
0.000234894
2.64006e-05
0.000150053
2.46774e-05
7.80323e-05
2.92609e-05
5.37561e-05
3.04391e-05
4.26537e-05
3.44222e-05
4.36139e-05
4.13451e-05
4.9223e-05
5.22993e-05
6.10704e-05
6.16319e-05
7.82522e-05
6.71463e-05
9.00172e-05
6.99889e-05
8.93464e-05
7.46485e-05
8.19527e-05
7.07349e-05
7.1154e-05
9.01804e-05
5.25736e-05
9.87995e-05
3.87091e-05
0.000130308
4.52503e-05
0.000114699
3.60431e-05
0.000126973
2.01417e-05
0.000136444
2.60198e-06
0.000135284
-1.79272e-05
0.000121032
-3.58687e-05
-6.54936e-05
0.000120572
4.84662e-05
0.000431799
5.44115e-05
0.000233192
5.38848e-05
0.000149443
4.39925e-05
8.78732e-05
4.25435e-05
5.51726e-05
4.23361e-05
4.27418e-05
4.41423e-05
4.18322e-05
4.76962e-05
4.5686e-05
5.54944e-05
5.32733e-05
6.65323e-05
6.72322e-05
7.58761e-05
8.06766e-05
8.2334e-05
8.29287e-05
8.88437e-05
7.5503e-05
9.54138e-05
6.51223e-05
0.000105005
5.64636e-05
0.000113747
4.92855e-05
0.000123384
3.99442e-05
0.000128011
2.72241e-05
0.00013786
1.45223e-05
0.000140932
-1.13626e-06
0.000132674
-2.35601e-05
0.00012967
-4.69401e-05
-6.28587e-05
0.000116019
7.66203e-05
0.000354809
7.31273e-05
0.000246785
6.4828e-05
0.000156515
5.87664e-05
9.45437e-05
5.56748e-05
5.80354e-05
5.36454e-05
4.47416e-05
5.28584e-05
4.26531e-05
5.329e-05
4.52558e-05
5.59101e-05
5.0658e-05
6.42982e-05
5.88442e-05
7.51566e-05
6.98349e-05
8.46943e-05
7.34465e-05
9.21847e-05
6.80294e-05
9.78916e-05
5.9349e-05
0.000103573
5.08831e-05
0.000108851
4.4792e-05
0.000114657
3.45058e-05
0.000119901
2.22517e-05
0.000123964
1.23542e-05
0.000127052
-4.67025e-06
0.000123734
-2.28527e-05
0.000115564
-3.90926e-05
-5.17088e-05
0.000104859
6.15545e-05
0.000292236
7.31186e-05
0.000233087
7.40727e-05
0.000156446
7.18556e-05
9.66446e-05
6.77688e-05
6.21177e-05
6.35397e-05
4.9033e-05
6.00737e-05
4.61094e-05
5.7987e-05
4.7339e-05
5.78878e-05
5.07629e-05
6.1936e-05
5.47964e-05
7.07182e-05
6.10445e-05
8.09059e-05
6.32845e-05
8.87468e-05
6.01929e-05
9.42458e-05
5.38655e-05
9.82389e-05
4.69647e-05
0.000102796
4.02679e-05
0.000107169
3.01763e-05
0.000110046
1.95075e-05
0.000112807
8.85376e-06
0.000114332
-5.76008e-06
0.000110682
-1.90895e-05
0.000103935
-3.23923e-05
-4.34436e-05
9.48925e-05
5.1845e-05
0.000235676
7.50208e-05
0.00020977
8.18955e-05
0.000149719
8.07866e-05
9.73611e-05
7.58376e-05
6.74709e-05
6.96844e-05
5.5223e-05
6.44862e-05
5.12888e-05
6.11081e-05
5.07161e-05
6.00367e-05
5.18368e-05
6.17755e-05
5.30581e-05
6.75541e-05
5.52597e-05
7.5229e-05
5.5602e-05
8.19652e-05
5.34432e-05
8.72639e-05
4.85622e-05
9.13431e-05
4.28876e-05
9.57486e-05
3.58599e-05
9.93315e-05
2.65961e-05
0.000101322
1.71867e-05
0.000103176
7.11797e-06
0.000102674
-5.10293e-06
9.90956e-05
-1.55841e-05
9.33955e-05
-2.65876e-05
-3.57873e-05
8.58963e-05
4.41537e-05
0.000196866
7.21558e-05
0.000182932
8.21536e-05
0.000138358
8.26395e-05
9.77408e-05
7.74974e-05
7.2985e-05
7.07585e-05
6.1982e-05
6.5386e-05
5.6659e-05
6.19402e-05
5.41626e-05
6.07707e-05
5.30065e-05
6.16862e-05
5.21424e-05
6.51007e-05
5.18441e-05
7.00703e-05
5.06296e-05
7.53256e-05
4.81838e-05
8.00229e-05
4.3861e-05
8.41214e-05
3.87849e-05
8.79967e-05
3.19812e-05
9.07583e-05
2.38252e-05
9.25249e-05
1.53806e-05
9.30816e-05
6.38152e-06
9.17494e-05
-3.59907e-06
8.88263e-05
-1.25478e-05
8.41965e-05
-2.17867e-05
-2.93938e-05
7.78755e-05
3.59567e-05
0.000161247
6.09537e-05
0.000156388
7.44126e-05
0.000125399
7.69274e-05
9.63326e-05
7.24377e-05
7.75565e-05
6.71761e-05
6.72464e-05
6.31159e-05
6.07192e-05
6.06349e-05
5.66433e-05
5.9789e-05
5.3852e-05
6.03173e-05
5.16137e-05
6.24794e-05
4.96816e-05
6.57985e-05
4.73102e-05
6.97024e-05
4.42802e-05
7.35881e-05
3.99753e-05
7.72578e-05
3.51151e-05
8.04249e-05
2.88144e-05
8.24726e-05
2.17584e-05
8.36783e-05
1.4164e-05
8.37629e-05
6.33786e-06
8.231e-05
-2.04311e-06
7.99706e-05
-1.01201e-05
7.61443e-05
-1.79311e-05
-2.43866e-05
7.11327e-05
2.67769e-05
0.00013517
4.8806e-05
0.000134529
6.14975e-05
0.000113617
6.48533e-05
9.31581e-05
6.34574e-05
7.89649e-05
6.10958e-05
6.96079e-05
5.89976e-05
6.2817e-05
5.77043e-05
5.79363e-05
5.74308e-05
5.41252e-05
5.81126e-05
5.09316e-05
5.97708e-05
4.80231e-05
6.2149e-05
4.49317e-05
6.50361e-05
4.13932e-05
6.79604e-05
3.70516e-05
7.08084e-05
3.22685e-05
7.31464e-05
2.64801e-05
7.47757e-05
2.01318e-05
7.56834e-05
1.3264e-05
7.55935e-05
6.45455e-06
7.44485e-05
-8.68437e-07
7.24419e-05
-8.08664e-06
6.92192e-05
-1.46944e-05
-2.0469e-05
6.53014e-05
1.90967e-05
0.000115764
3.73716e-05
0.000116281
4.87765e-05
0.000102221
5.33251e-05
8.86138e-05
5.44191e-05
7.78709e-05
5.43055e-05
6.97209e-05
5.39096e-05
6.32124e-05
5.37616e-05
5.80839e-05
5.40954e-05
5.3791e-05
5.5019e-05
5.00076e-05
5.64842e-05
4.65575e-05
5.84172e-05
4.29985e-05
6.06921e-05
3.91183e-05
6.29464e-05
3.47977e-05
6.51516e-05
3.00648e-05
6.69256e-05
2.4708e-05
6.81044e-05
1.89573e-05
6.85703e-05
1.28064e-05
6.8371e-05
6.66352e-06
6.73459e-05
1.69294e-07
6.54901e-05
-6.21729e-06
6.29717e-05
-1.21658e-05
-1.74768e-05
5.99837e-05
1.40562e-05
0.000101625
2.85225e-05
0.000101784
3.82835e-05
9.24527e-05
4.35844e-05
8.33118e-05
4.62985e-05
7.5156e-05
4.77501e-05
6.82687e-05
4.86229e-05
6.23391e-05
4.93785e-05
5.73278e-05
5.02662e-05
5.29029e-05
5.14229e-05
4.88506e-05
5.28659e-05
4.51142e-05
5.45381e-05
4.13261e-05
5.63313e-05
3.73251e-05
5.80919e-05
3.30375e-05
5.9721e-05
2.84364e-05
6.10047e-05
2.34259e-05
6.18587e-05
1.81058e-05
6.21971e-05
1.24733e-05
6.19908e-05
6.87858e-06
6.1084e-05
1.09027e-06
5.95638e-05
-4.68475e-06
5.73937e-05
-9.98456e-06
-1.49814e-05
5.49052e-05
1.08433e-05
9.0767e-05
2.2103e-05
9.0522e-05
3.03467e-05
8.42079e-05
3.58107e-05
7.7847e-05
3.93525e-05
7.16135e-05
4.17371e-05
6.58836e-05
4.34422e-05
6.06336e-05
4.48382e-05
5.59314e-05
4.61507e-05
5.15901e-05
4.74829e-05
4.7518e-05
4.893e-05
4.36669e-05
5.0441e-05
3.98149e-05
5.19737e-05
3.57924e-05
5.34223e-05
3.1589e-05
5.47249e-05
2.71345e-05
5.57378e-05
2.24137e-05
5.63593e-05
1.74856e-05
5.64998e-05
1.23346e-05
5.61979e-05
7.18485e-06
5.53604e-05
1.93724e-06
5.40041e-05
-3.32016e-06
5.22618e-05
-8.23517e-06
-1.29205e-05
5.02042e-05
8.66842e-06
8.20969e-05
1.75227e-05
8.16669e-05
2.45206e-05
7.72092e-05
2.9762e-05
7.26049e-05
3.36051e-05
6.77698e-05
3.64653e-05
6.30228e-05
3.86534e-05
5.8445e-05
4.04496e-05
5.41347e-05
4.20253e-05
5.00141e-05
4.3486e-05
4.6057e-05
4.49215e-05
4.22311e-05
4.63283e-05
3.84079e-05
4.76594e-05
3.44612e-05
4.88797e-05
3.03689e-05
4.99122e-05
2.61022e-05
5.06767e-05
2.16498e-05
5.11194e-05
1.70433e-05
5.1186e-05
1.22685e-05
5.08974e-05
7.47422e-06
5.01915e-05
2.64556e-06
4.90545e-05
-2.18038e-06
4.75439e-05
-6.72236e-06
-1.11271e-05
4.57523e-05
7.09282e-06
7.50032e-05
1.42351e-05
7.45238e-05
2.01951e-05
7.12486e-05
2.50248e-05
6.77746e-05
2.88437e-05
6.39503e-05
3.18665e-05
5.99995e-05
3.42849e-05
5.60263e-05
3.62949e-05
5.21243e-05
3.80178e-05
4.82909e-05
3.95525e-05
4.45219e-05
4.09809e-05
4.08024e-05
4.23063e-05
3.70823e-05
4.35052e-05
3.32624e-05
4.4561e-05
2.93132e-05
4.54108e-05
2.5253e-05
4.60181e-05
2.10427e-05
4.63505e-05
1.67113e-05
4.63656e-05
1.22535e-05
4.60484e-05
7.79134e-06
4.53852e-05
3.3086e-06
4.43782e-05
-1.1734e-06
4.30921e-05
-5.43568e-06
-9.58139e-06
4.15458e-05
5.89545e-06
6.91072e-05
1.17745e-05
6.86441e-05
1.68895e-05
6.6133e-05
2.12449e-05
6.34187e-05
2.48667e-05
6.0328e-05
2.78612e-05
5.70046e-05
3.03418e-05
5.35453e-05
3.24278e-05
5.0038e-05
3.42105e-05
4.65079e-05
3.57657e-05
4.29664e-05
3.71586e-05
3.94092e-05
3.84075e-05
3.58333e-05
3.95011e-05
3.21687e-05
4.04234e-05
2.83911e-05
4.11491e-05
2.45273e-05
4.16489e-05
2.05434e-05
4.19049e-05
1.64554e-05
4.18743e-05
1.22841e-05
4.15653e-05
8.10011e-06
4.09632e-05
3.91048e-06
4.0061e-05
-2.71293e-07
3.8914e-05
-4.28911e-06
-8.21479e-06
3.75472e-05
4.95769e-06
6.41488e-05
9.88049e-06
6.37207e-05
1.42969e-05
6.17161e-05
1.81828e-05
5.95323e-05
2.15275e-05
5.69828e-05
2.43802e-05
5.41515e-05
2.68035e-05
5.11216e-05
2.88705e-05
4.79707e-05
3.06443e-05
4.47338e-05
3.21773e-05
4.14332e-05
3.35118e-05
3.80745e-05
3.46757e-05
3.46693e-05
3.56649e-05
3.11795e-05
3.64741e-05
2.7582e-05
3.70943e-05
2.39075e-05
3.75058e-05
2.0132e-05
3.76996e-05
1.62619e-05
3.76497e-05
1.2334e-05
3.73459e-05
8.40369e-06
3.67868e-05
4.4694e-06
3.5962e-05
5.5313e-07
3.49526e-05
-3.2795e-06
-7.00104e-06
3.37382e-05
4.20109e-06
5.99474e-05
8.37111e-06
5.95503e-05
1.21951e-05
5.78917e-05
1.56385e-05
5.60885e-05
1.86786e-05
5.39424e-05
2.13317e-05
5.14981e-05
2.36269e-05
4.88261e-05
2.56069e-05
4.59905e-05
2.73104e-05
4.303e-05
2.87808e-05
3.99626e-05
3.00406e-05
3.68145e-05
3.11223e-05
3.35875e-05
3.20284e-05
3.02733e-05
3.27536e-05
2.6857e-05
3.32937e-05
2.33674e-05
3.3635e-05
1.97912e-05
3.37573e-05
1.61397e-05
3.36592e-05
1.24321e-05
3.33522e-05
8.71047e-06
3.28366e-05
4.98476e-06
3.21024e-05
1.28721e-06
3.11916e-05
-2.36903e-06
-5.90918e-06
3.00997e-05
3.57738e-06
5.63695e-05
7.13926e-06
5.5988e-05
1.04545e-05
5.4576e-05
1.34905e-05
5.30522e-05
1.62208e-05
5.12118e-05
1.86406e-05
4.90779e-05
2.07627e-05
4.67038e-05
2.26123e-05
4.41407e-05
2.42106e-05
4.14315e-05
2.55851e-05
3.85878e-05
2.67611e-05
3.56383e-05
2.77558e-05
3.25926e-05
2.85755e-05
2.94537e-05
2.92147e-05
2.62178e-05
2.96773e-05
2.29051e-05
2.9954e-05
1.95144e-05
3.00453e-05
1.60486e-05
2.99377e-05
1.25397e-05
2.96257e-05
9.02237e-06
2.91207e-05
5.48948e-06
2.84368e-05
1.97091e-06
2.75948e-05
-1.52693e-06
-4.92371e-06
2.66088e-05
3.05914e-06
5.33102e-05
6.11634e-06
5.29305e-05
8.99761e-06
5.16944e-05
1.1661e-05
5.03884e-05
1.40844e-05
4.87882e-05
1.62581e-05
4.6904e-05
1.81811e-05
4.47805e-05
1.98612e-05
4.24604e-05
2.13199e-05
3.99726e-05
2.25691e-05
3.73385e-05
2.36278e-05
3.45794e-05
2.45051e-05
3.17151e-05
2.52175e-05
2.87413e-05
2.5769e-05
2.56665e-05
2.61629e-05
2.25111e-05
2.63932e-05
1.92846e-05
2.64482e-05
1.59936e-05
2.6326e-05
1.26619e-05
2.60436e-05
9.30458e-06
2.55873e-05
5.94565e-06
2.49518e-05
2.60625e-06
2.41721e-05
-7.47529e-07
-4.00926e-06
2.32575e-05
2.62056e-06
5.06892e-05
5.23874e-06
5.0312e-05
7.71842e-06
4.92145e-05
1.00373e-05
4.80693e-05
1.21714e-05
4.66539e-05
1.41055e-05
4.49697e-05
1.58328e-05
4.3053e-05
1.7356e-05
4.0937e-05
1.86895e-05
3.86389e-05
1.9834e-05
3.61939e-05
2.08005e-05
3.36128e-05
2.16006e-05
3.09149e-05
2.22333e-05
2.81086e-05
2.26956e-05
2.52042e-05
2.2991e-05
2.22161e-05
2.31207e-05
1.91548e-05
2.30852e-05
1.60293e-05
2.29053e-05
1.28418e-05
2.25825e-05
9.62727e-06
2.21293e-05
6.39868e-06
2.15598e-05
3.17555e-06
2.08537e-05
-4.13329e-08
-3.17517e-06
2.00191e-05
2.22988e-06
4.84592e-05
4.48562e-06
4.80561e-05
6.64247e-06
4.70574e-05
8.66248e-06
4.60491e-05
1.05299e-05
4.47863e-05
1.22316e-05
4.32678e-05
1.37598e-05
4.15247e-05
1.51107e-05
3.9586e-05
1.62815e-05
3.74679e-05
1.72801e-05
3.51953e-05
1.81114e-05
3.27813e-05
1.87831e-05
3.02432e-05
1.93074e-05
2.75843e-05
1.9692e-05
2.48198e-05
1.99344e-05
2.19736e-05
2.00383e-05
1.90513e-05
1.99996e-05
1.6068e-05
1.97979e-05
1.30434e-05
1.94349e-05
9.99016e-06
1.89372e-05
6.89629e-06
1.83259e-05
3.78675e-06
1.76174e-05
6.66855e-07
-2.4101e-06
1.68523e-05
1.91612e-06
4.65428e-05
3.80629e-06
4.61657e-05
5.60329e-06
4.52602e-05
7.2918e-06
4.43605e-05
8.86424e-06
4.32138e-05
1.03115e-05
4.18204e-05
1.16324e-05
4.02037e-05
1.28266e-05
3.83917e-05
1.38869e-05
3.64075e-05
1.48037e-05
3.42784e-05