/*--------------------------------*- C++ -*----------------------------------*\
| =========                 |                                                 |
| \\      /  F ield         | OpenFOAM: The Open Source CFD Toolbox           |
|  \\    /   O peration     | Version:  2.4.0                                 |
|   \\  /    A nd           | Web:      www.OpenFOAM.org                      |
|    \\/     M anipulation  |                                                 |
\*---------------------------------------------------------------------------*/
FoamFile
{
    version     2.0;
    format      ascii;
    class       surfaceScalarField;
    location    "1";
    object      phi.water;
}
// * * * * * * * * * * * * * * * * * * * * * * * * * * * * * * * * * * * * * //

dimensions      [0 3 -1 0 0 0 0];

internalField   nonuniform List<scalar> 
4432
(
-4.14181e-06
4.41123e-06
-8.34659e-06
4.45775e-06
-1.16974e-05
3.52333e-06
-1.37913e-05
2.20019e-06
-1.48528e-05
1.10902e-06
-1.53103e-05
4.91941e-07
-1.51955e-05
-8.08186e-08
-1.51923e-05
2.29942e-08
-1.55005e-05
3.3005e-07
-1.57158e-05
2.36098e-07
-1.52342e-05
-4.59599e-07
-1.40397e-05
-1.17246e-06
-1.28268e-05
-1.19552e-06
-1.19192e-05
-8.95317e-07
-1.12359e-05
-6.73948e-07
-1.04889e-05
-7.38652e-07
-9.36745e-06
-1.1129e-06
-7.62512e-06
-1.73267e-06
-5.31272e-06
-2.30267e-06
-3.29429e-06
-2.0106e-06
-2.51757e-06
-7.73999e-07
-1.90131e-06
-6.16086e-07
-1.90109e-06
-4.10574e-06
9.3241e-06
-8.25714e-06
9.0267e-06
-1.15668e-05
7.01918e-06
-1.39528e-05
4.73554e-06
-1.53711e-05
2.72789e-06
-1.58227e-05
1.24892e-06
-1.5422e-05
-2.10455e-07
-1.52553e-05
3.19306e-08
-1.53241e-05
5.08837e-07
-1.51871e-05
1.92102e-07
-1.46482e-05
-9.25613e-07
-1.38058e-05
-1.95849e-06
-1.2894e-05
-2.07679e-06
-1.2136e-05
-1.6362e-06
-1.14164e-05
-1.37882e-06
-1.03712e-05
-1.76899e-06
-8.98548e-06
-2.47779e-06
-7.09729e-06
-3.59603e-06
-4.93232e-06
-4.44708e-06
-2.94634e-06
-3.98392e-06
-1.18993e-06
-2.52571e-06
-7.75164e-08
-1.72643e-06
-1.9772e-06
-3.841e-06
1.96513e-05
-7.73909e-06
1.62621e-05
-1.11308e-05
1.22001e-05
-1.39754e-05
8.99584e-06
-1.57188e-05
5.47928e-06
-1.57195e-05
1.55231e-06
-1.55434e-05
1.22499e-07
-1.52381e-05
4.74915e-07
-1.53287e-05
1.17491e-06
-1.5415e-05
5.9658e-07
-1.49759e-05
-1.03604e-06
-1.43116e-05
-2.32923e-06
-1.33651e-05
-2.80278e-06
-1.2166e-05
-2.6186e-06
-1.09163e-05
-2.36182e-06
-9.51757e-06
-2.76833e-06
-8.04081e-06
-3.39893e-06
-6.66385e-06
-3.6401e-06
-5.2622e-06
-2.53596e-06
-3.75146e-06
-1.03141e-06
-1.7029e-06
-6.52454e-07
1.94166e-07
-1.34778e-06
-1.06843e-06
-3.55752e-06
3.63453e-05
-8.48151e-06
3.06112e-05
-1.28369e-05
2.02228e-05
-1.56037e-05
1.38076e-05
-1.70893e-05
9.1818e-06
-1.75634e-05
2.0206e-05
-1.71849e-05
2.33215e-05
-1.66192e-05
2.56867e-05
-1.56372e-05
2.63524e-05
-1.50197e-05
2.56046e-05
-1.49011e-05
2.3329e-05
-1.45106e-05
2.12591e-05
-1.39048e-05
1.95347e-05
-1.27674e-05
1.87406e-05
-1.11855e-05
1.88678e-05
-9.46757e-06
1.91594e-05
-7.99469e-06
1.93756e-05
-6.56633e-06
1.92111e-05
-5.4131e-06
1.89061e-05
-4.14673e-06
1.94411e-05
-2.37045e-06
1.98215e-05
-5.75942e-07
2.21157e-05
2.53255e-05
-1.88939e-06
4.6277e-05
-8.97489e-06
4.86994e-05
-1.65288e-05
3.3236e-05
-2.06714e-05
3.14269e-05
-1.4475e-05
3.1564e-05
-1.61926e-05
4.02118e-05
-1.73973e-05
3.62681e-05
-1.8221e-05
3.35015e-05
-1.85866e-05
3.2249e-05
-1.91924e-05
3.28156e-05
-1.88203e-05
3.22192e-05
-1.74742e-05
3.12219e-05
-1.52907e-05
3.15315e-05
-1.3095e-05
3.12336e-05
-1.09556e-05
3.00545e-05
-9.24861e-06
2.84275e-05
-7.28277e-06
2.67576e-05
-5.54831e-06
2.49635e-05
-4.50146e-06
2.4376e-05
-3.9843e-06
2.54089e-05
-2.4628e-06
2.51902e-05
-3.47727e-07
2.28625e-05
2.80152e-05
-5.27321e-06
6.02253e-05
-1.42845e-05
6.15347e-05
-1.88584e-05
4.93769e-05
-1.80165e-05
5.0782e-05
-1.97056e-05
4.3958e-05
-2.20472e-05
3.6194e-05
-2.18971e-05
2.36916e-05
-2.05316e-05
1.81775e-05
-1.78406e-05
1.48543e-05
-1.51265e-05
1.46997e-05
-1.38073e-05
1.72077e-05
-1.41766e-05
2.11644e-05
-1.59592e-05
2.24813e-05
-1.70056e-05
2.04028e-05
-1.64927e-05
1.62562e-05
-1.39984e-05
1.26713e-05
-1.07867e-05
1.03553e-05
-7.29394e-06
7.4172e-06
-4.90015e-06
6.13173e-06
-4.8496e-06
9.35494e-06
-7.72656e-06
1.69211e-05
-6.8557e-06
2.64382e-05
1.98535e-05
-1.14231e-05
8.19983e-05
-1.89537e-05
7.23095e-05
-1.70452e-05
5.23583e-05
-2.10716e-05
3.44048e-05
-2.36506e-05
1.64733e-05
-2.49276e-05
2.63765e-06
-2.34936e-05
-3.43119e-06
-1.65641e-05
-9.62114e-06
-7.9232e-06
-1.24681e-05
-7.33686e-07
-1.05327e-05
1.49368e-06
-5.59719e-06
-1.4393e-06
-8.52338e-07
-6.33487e-06
1.11152e-06
-1.15638e-05
4.40517e-07
-1.52683e-05
-2.85085e-06
-1.63751e-05
-7.66965e-06
-1.66433e-05
-9.78705e-06
-1.68798e-05
-1.09973e-05
-1.71341e-05
-1.04791e-05
-1.69841e-05
-7.97724e-06
-1.49975e-05
-7.54083e-06
-1.71931e-05
-6.34883e-06
-3.01756e-05
-1.31233e-05
0.000102263
-1.30989e-05
6.54275e-05
-2.22781e-05
3.82995e-05
-4.42432e-05
3.3693e-05
-4.30638e-05
6.26473e-06
-2.51724e-05
-1.66679e-05
-1.06822e-05
-1.80425e-05
-1.51886e-06
-1.88024e-05
3.6218e-06
-1.76215e-05
6.54377e-06
-1.3475e-05
9.87733e-06
-8.9504e-06
1.2369e-05
-3.39008e-06
1.11676e-05
2.16294e-06
5.63838e-06
5.64741e-06
-2.45437e-06
4.90972e-06
-9.65868e-06
-7.06651e-07
-1.47412e-05
-4.93331e-06
-2.01121e-05
-5.80133e-06
-2.49369e-05
-5.78404e-06
-2.69697e-05
-6.16295e-06
-2.42216e-05
-1.07911e-05
-1.71655e-05
-1.90072e-05
-5.95724e-05
6.46477e-06
4.22379e-06
1.46233e-05
1.15332e-06
1.84125e-05
1.0384e-05
2.18616e-05
1.31649e-05
2.40326e-05
1.89628e-05
2.15689e-05
4.25537e-05
1.61269e-05
6.65499e-05
1.51957e-05
8.89796e-05
1.79728e-05
6.61264e-05
1.8716e-05
5.97323e-05
1.62208e-05
5.87883e-05
1.13474e-05
5.59159e-05
1.16227e-05
4.94098e-05
1.46573e-05
4.37358e-05
1.01855e-05
4.48796e-05
1.94824e-06
4.30468e-05
-7.27651e-06
2.38415e-05
-8.68048e-06
1.15922e-05
2.69544e-06
1.22958e-05
-2.36128e-05
1.96121e-05
-2.04292e-05
2.3029e-05
-9.28033e-06
2.21831e-05
-1.29316e-05
2.54356e-05
-1.43992e-05
2.15566e-05
1.3289e-06
1.7649e-05
6.42214e-06
-6.54961e-07
3.02169e-05
-1.32891e-05
2.98079e-05
-1.39135e-05
2.03467e-05
-1.52444e-05
1.98288e-05
-1.92768e-05
2.79476e-05
-2.12793e-05
2.77958e-05
-1.14766e-05
1.70111e-05
-6.51789e-06
1.94842e-05
-6.90751e-06
3.54108e-05
-8.98729e-06
2.28255e-05
-7.87083e-06
7.28419e-06
-4.64245e-06
2.23535e-06
-8.07892e-05
-1.63426e-06
-6.60205e-05
1.85956e-06
-4.96099e-05
5.6897e-06
-3.66476e-05
3.61939e-07
-3.34803e-05
-5.37045e-06
-1.96674e-05
-9.37803e-06
-4.93589e-06
-2.16824e-05
3.39973e-05
-3.98387e-05
4.35912e-05
-4.54977e-05
2.89901e-05
-4.47289e-05
2.95056e-05
-4.30362e-05
4.51001e-05
-3.64428e-05
4.61453e-05
-2.91473e-05
2.0446e-05
-1.66181e-05
1.85894e-05
-9.42811e-06
4.0732e-05
-8.32655e-06
2.88357e-05
-3.48146e-06
4.55833e-06
-3.3397e-06
1.0011e-05
-6.69747e-05
1.00658e-05
-5.79835e-05
1.12452e-05
-4.20222e-05
1.06343e-05
-3.88023e-05
1.06964e-05
-2.56809e-05
3.83484e-06
-4.98352e-06
-7.96016e-06
1.47507e-05
-1.85791e-05
4.46348e-05
-3.12808e-05
4.58879e-05
-4.08982e-05
2.21728e-05
-4.23089e-05
1.49377e-05
-4.3802e-05
2.60828e-05
-4.37693e-05
2.53829e-05
-3.86776e-05
5.89722e-06
-2.83672e-05
-4.10626e-07
-1.48029e-05
2.21667e-05
-8.53898e-06
1.90729e-05
-1.62818e-06
1.35725e-05
9.99146e-06
6.8068e-06
-5.79467e-05
2.80021e-06
-4.88042e-05
-7.52599e-07
-3.28365e-05
-5.14976e-06
-2.36667e-05
-1.0373e-05
-1.063e-05
-9.83234e-06
-5.45612e-06
-3.22394e-06
2.28686e-06
-1.40332e-06
4.01672e-05
-1.1961e-05
5.05054e-05
-2.06489e-05
1.81148e-05
-2.43332e-05
-6.53274e-06
-3.27772e-05
6.88544e-07
-3.75308e-05
-5.87164e-06
-3.52936e-05
-2.73338e-05
-3.39689e-05
-1.07083e-05
-1.79441e-05
1.52207e-05
-4.65079e-06
2.60045e-05
2.3976e-06
1.48254e-05
9.74555e-06
6.80106e-06
-6.07254e-05
8.98545e-06
-4.20164e-05
9.42972e-06
-3.65935e-05
3.80732e-06
-2.43366e-05
-1.11185e-05
-1.71996e-06
-1.59191e-05
1.04831e-05
-1.33561e-05
1.06848e-05
1.00624e-06
2.6059e-05
2.58268e-06
4.81429e-05
-9.46405e-06
2.95552e-05
-1.6859e-05
-6.66232e-07
-1.73708e-05
-6.76504e-06
-1.355e-05
-1.85755e-05
-2.18124e-05
-3.72483e-05
-2.74689e-05
-2.52141e-05
-2.09927e-05
3.71679e-07
-6.51815e-06
8.73004e-06
5.19084e-07
-7.82386e-06
-9.2701e-06
4.06112e-06
-6.35644e-05
1.51972e-06
-3.67369e-05
-4.01806e-06
-2.51421e-05
-1.22224e-05
-1.25031e-05
-1.5877e-05
-4.02432e-06
-1.59376e-05
2.59882e-06
-1.06911e-05
1.13344e-06
1.26224e-06
1.36595e-05
1.01655e-05
3.92947e-05
3.25293e-06
3.76882e-05
-9.81649e-06
1.95837e-05
-1.49664e-05
4.89165e-06
-1.53269e-05
-2.3675e-05
-1.77487e-05
-3.53475e-05
-2.53597e-05
-3.27999e-05
-2.73226e-05
-2.52627e-05
-1.86198e-05
-3.03745e-05
-9.65806e-06
-4.48131e-05
-4.21994e-05
3.67639e-06
-6.6952e-05
1.0956e-06
-3.25952e-05
-2.10206e-06
-2.51282e-05
-1.37586e-05
4.09199e-06
-2.18893e-05
1.24589e-05
-1.91662e-05
9.93344e-06
-1.63023e-05
2.56882e-06
-3.82647e-06
1.66554e-06
1.03695e-05
2.49334e-05
1.13945e-05
3.72223e-05
3.77374e-07
3.17496e-05
-9.45505e-06
1.34013e-05
-1.40502e-05
-1.40152e-05
-2.18457e-05
-2.97403e-05
-2.90185e-05
-2.79392e-05
-2.90353e-05
-3.08606e-05
-2.57635e-05
-4.09447e-05
-1.52895e-05
-5.85497e-05
-5.82761e-05
-1.60756e-05
0.000118946
-5.32777e-05
7.29355e-05
-5.62977e-05
2.62321e-05
-1.89929e-05
-5.36931e-06
8.34986e-06
-2.11993e-05
1.80543e-05
-2.6384e-05
2.56865e-05
-2.56852e-05
3.48293e-05
-2.79639e-05
4.48435e-05
-2.76619e-05
5.34484e-05
-2.21201e-05
5.28844e-05
-8.45747e-06
4.28195e-05
6.62252e-06
2.73146e-05
1.76292e-05
9.53735e-06
2.34009e-05
-4.69227e-06
1.91245e-05
-1.6461e-05
1.10536e-05
-2.46298e-05
3.23265e-06
-2.65269e-05
-3.98196e-06
-1.86874e-05
-1.4025e-05
-1.56892e-05
-1.01321e-05
-2.89733e-05
2.09533e-06
-5.32543e-05
4.82125e-06
-5.40977e-05
-6.22494e-05
-5.4247e-06
0.000119086
2.62505e-06
5.01519e-05
2.30813e-05
4.50802e-06
3.59294e-05
-1.83031e-05
4.11786e-05
-2.64752e-05
4.47542e-05
-2.99853e-05
5.12099e-05
-3.21679e-05
5.68881e-05
-3.36844e-05
6.03885e-05
-3.13474e-05
6.22387e-05
-2.4704e-05
6.47535e-05
-1.25727e-05
6.32091e-05
5.66671e-06
5.3372e-05
2.56003e-05
4.04986e-05
3.51429e-05
2.90606e-05
2.99269e-05
1.50565e-05
2.47238e-05
-1.41933e-06
1.95062e-05
-1.08401e-05
4.97332e-06
-2.14769e-05
-5.31268e-06
-3.7484e-05
-2.5916e-07
-4.58085e-05
-3.78603e-06
-4.12659e-05
-2.06969e-05
-3.6411e-05
-6.84854e-05
2.73671e-05
9.05303e-05
4.50722e-05
2.89578e-05
5.45814e-05
-5.26813e-06
5.60361e-05
-1.9839e-05
5.5949e-05
-2.64445e-05
5.673e-05
-3.08056e-05
6.18561e-05
-3.74252e-05
6.80901e-05
-4.06878e-05
7.55942e-05
-4.15101e-05
8.26616e-05
-3.70657e-05
8.48799e-05
-2.14988e-05
7.43025e-05
1.0565e-05
5.4781e-05
4.00538e-05
3.60746e-05
5.05759e-05
2.11695e-05
4.33373e-05
1.01187e-05
3.51165e-05
-1.79808e-07
2.90549e-05
-2.23533e-05
2.56344e-05
-6.45439e-05
3.33888e-05
-0.000104641
3.24297e-05
-0.000126584
6.48683e-06
-0.000136617
-2.71381e-05
-3.95951e-05
-0.000134733
4.56644e-05
4.51503e-05
5.64532e-05
1.70267e-05
5.69336e-05
-6.34169e-06
5.39103e-05
-1.71006e-05
5.10851e-05
-2.37358e-05
5.04438e-05
-3.04432e-05
5.15676e-05
-4.0199e-05
5.46704e-05
-4.858e-05
5.40066e-05
-4.83504e-05
5.21582e-05
-4.54061e-05
4.92113e-05
-2.56996e-05
4.26833e-05
1.04893e-05
2.98207e-05
4.69626e-05
1.29533e-05
6.14136e-05
-2.11935e-06
5.47949e-05
-1.82877e-05
4.82392e-05
-4.73721e-05
5.22575e-05
-0.000102117
6.44399e-05
-0.000165185
7.3201e-05
-0.00019394
3.88955e-05
-0.000195558
-2.21611e-06
-0.000194434
-2.91543e-05
-4.02182e-05
-0.000194417
3.13032e-05
7.42063e-06
3.60662e-05
8.27118e-06
3.50358e-05
-6.58851e-06
3.25891e-05
-1.50039e-05
2.80788e-05
-1.97198e-05
2.30202e-05
-2.91483e-05
1.94917e-07
-2.88076e-05
-4.32259e-05
-2.51928e-05
-7.81685e-05
-3.2351e-05
-8.23915e-05
-4.12016e-05
-6.73787e-05
-2.27993e-05
-4.76848e-05
1.84526e-05
-4.28371e-05
5.01375e-05
-5.27579e-05
6.74609e-05
-8.05396e-05
7.6136e-05
-0.00012294
8.72096e-05
-0.000188123
0.000107573
-0.000238439
9.38449e-05
-0.00025272
6.70877e-05
-0.000254471
2.15157e-05
-0.000249332
-1.44389e-05
-0.000239534
-4.03558e-05
-4.97354e-05
-0.000231642
1.08695e-05
-1.19356e-05
8.1271e-06
7.193e-06
4.19327e-06
-3.90333e-06
2.29674e-06
-1.44903e-05
-7.30736e-06
-1.45934e-05
-4.38774e-05
-1.79348e-06
-9.32126e-05
3.51012e-06
-0.000121831
2.79756e-07
-0.000148665
-2.24838e-05
-0.000173794
-2.64884e-05
-0.000176508
-9.91251e-06
-0.000169158
2.66233e-05
-0.000173791
6.4717e-05
-0.000186201
8.65061e-05
-0.00020214
0.000102358
-0.000232136
0.000113219
-0.000255293
0.000110132
-0.000273081
8.56379e-05
-0.000275842
1.72859e-05
-0.000285032
-6.02532e-05
-0.000295885
-0.000101668
-0.000285269
-0.000123098
-0.000109796
-0.000266745
-2.70832e-06
-1.12106e-05
-2.56776e-06
6.02419e-06
-5.85018e-06
-1.48101e-06
-2.11096e-05
-4.20229e-06
-5.97505e-05
1.31966e-05
-9.89081e-05
2.75038e-05
-0.000113761
9.73286e-06
-0.000130693
1.89361e-07
-0.000181033
-1.66031e-05
-0.000241459
-4.76731e-06
-0.000244325
1.786e-05
-0.000234304
3.71727e-05
-0.000234378
6.94255e-05
-0.000241189
9.49883e-05
-0.000245169
0.000101697
-0.000251834
0.000108173
-0.000260597
0.000105154
-0.000276432
3.68124e-05
-0.000313549
-6.61177e-05
-0.000303255
-0.000124333
-0.000278293
-0.000144464
-0.000282574
-0.000127108
-0.000195729
-0.00026479
-4.09656e-06
-1.0961e-05
-1.16457e-05
1.10154e-05
-3.306e-05
1.48527e-05
-7.64561e-05
3.24357e-05
-0.00011538
4.73425e-05
-0.000123015
2.8683e-05
-0.000110011
-1.27416e-05
-0.000139751
-1.96987e-05
-0.000276014
-4.74352e-05
-0.000360981
3.58572e-05
-0.000325963
4.41167e-05
-0.000273175
4.56974e-05
-0.000252129
5.61844e-05
-0.000238393
8.10862e-05
-0.000240381
9.43207e-05
-0.000244688
9.47423e-05
-0.000281155
8.28037e-05
-0.000321827
6.24097e-06
-0.000318442
-4.23014e-05
-0.000285498
-7.35223e-05
-0.00020499
-5.97575e-05
-0.000178474
-4.18188e-05
-0.00010566
-0.000204063
-6.14237e-06
-5.6957e-06
-2.63347e-05
3.21661e-05
-6.89969e-05
5.50734e-05
-0.000115404
7.21122e-05
-0.000134259
5.65582e-05
-0.000145975
-3.97976e-06
-0.00013893
-2.90065e-05
-0.000140275
-7.13184e-06
-0.000280307
-8.10884e-08
-0.000503106
7.6756e-05
-0.000389074
5.77408e-05
-0.000294148
5.34351e-05
-0.000244492
5.60944e-05
-0.000228638
6.12181e-05
-0.000222566
7.11714e-05
-0.000231847
6.59303e-05
-0.000244188
5.428e-05
-0.000237085
5.51474e-05
-0.000224694
3.80045e-05
-0.000252142
3.17294e-05
-0.000259067
1.29826e-05
-0.000240424
-2.99011e-05
-7.62687e-05
-0.000221323
-3.30149e-05
2.34038e-05
-6.77924e-05
6.88203e-05
-0.00010524
8.88467e-05
-0.000127054
7.8159e-05
-0.000167971
2.95428e-05
-0.000125064
-3.13626e-06
-0.000132171
-1.38969e-05
-0.000169167
2.34032e-05
-0.000183787
6.57478e-05
-0.000210167
0.00016825
-0.000275686
9.19874e-05
-0.000320279
4.03781e-05
-0.000282744
4.18601e-05
-0.000234762
5.14861e-05
-0.000214286
5.73968e-05
-0.000199845
5.19465e-05
-0.000144435
6.21753e-05
-0.000155948
0.000127932
-0.000250249
0.000166663
-0.000274279
9.17831e-05
-0.000315017
6.0406e-05
-0.000347715
5.5725e-06
-8.60553e-05
-0.000331461
-7.06667e-05
6.7936e-05
-9.92224e-05
9.23722e-05
-0.000121957
8.39794e-05
-0.00016335
5.40933e-05
-0.000128571
2.11314e-05
-9.81527e-05
1.52084e-05
-0.000185748
6.76569e-05
-0.000172459
7.91778e-05
-0.000155699
9.16007e-05
-0.000124776
0.00014632
-0.000132115
0.000148312
-0.000182419
9.30496e-05
-0.000200574
4.44521e-05
-0.000232112
3.88158e-05
-0.000223679
4.06291e-05
-0.000154118
4.41705e-05
-0.000152934
0.000113918
-0.000210381
0.000191567
-0.000215971
0.000172221
-0.00023902
0.000115641
-0.000247344
7.13735e-05
-0.000246832
6.05475e-08
-7.81976e-05
-0.000253086
-8.64001e-05
0.000115897
-0.000127695
8.79378e-05
-0.000164273
5.76782e-05
-0.000140809
4.14709e-05
-9.89603e-05
3.87229e-05
-0.00018874
0.00010761
-0.000192033
7.37672e-05
-0.000174885
6.30976e-05
-0.000152026
6.68606e-05
-0.000122449
0.000112134
-0.000116401
0.000136219
-0.000142426
0.000119905
-0.000169451
8.75826e-05
-0.000185297
8.06486e-05
-0.000191887
8.98993e-05
-0.000192922
0.000119627
-0.000182879
0.000161759
-0.000164836
0.000173537
-0.000150553
0.000157982
-0.000152647
0.000117819
-0.00014875
6.95661e-05
-0.000137705
-1.76448e-06
-8.81205e-05
-0.000126139
-9.98406e-05
0.000156557
-0.000162815
6.88187e-05
-0.000139696
5.14717e-05
-8.54428e-05
5.42269e-05
-0.000176445
0.000169679
-0.000169934
9.77708e-05
-0.000159472
6.33385e-05
-0.000143613
4.81404e-05
-0.00012994
5.26234e-05
-0.000109248
8.9674e-05
-0.000101427
0.000124343
-0.000121695
0.000133743
-0.000153583
0.000118616
-0.000170759
9.78707e-05
-0.000175913
9.50456e-05
-0.000165903
0.000109141
-0.000137274
0.000131335
-0.000105426
0.000139738
-7.71851e-05
0.00012758
-5.77604e-05
9.78234e-05
-4.22184e-05
5.40757e-05
-2.84485e-05
-1.4829e-05
-9.8446e-05
-1.09308e-05
-0.000142472
0.000180453
-0.000132659
7.13622e-05
-8.62593e-05
5.90235e-05
-0.000141059
0.00018802
-0.00011321
0.000144188
-9.21782e-05
7.67969e-05
-8.93324e-05
6.05385e-05
-0.000100501
5.93456e-05
-0.000107626
6.32356e-05
-9.08248e-05
7.49084e-05
-6.57026e-05
9.88762e-05
-5.17215e-05
0.000120736
-7.26052e-05
0.000134039
-0.000107868
0.00012913
-0.000126808
0.000115335
-0.000123005
0.000106184
-9.67468e-05
0.000106244
-5.8177e-05
0.00010239
-1.76426e-05
8.70295e-05
1.91231e-05
5.81921e-05
5.73737e-05
1.25865e-05
7.85055e-05
-3.55832e-05
-9.67559e-05
9.22542e-05
-0.000219996
0.000240468
-8.02259e-05
8.82804e-05
-0.000130716
0.000196392
-8.88943e-05
0.000152999
-3.89828e-05
9.4295e-05
-2.12998e-05
5.90931e-05
-1.94076e-05
5.86331e-05
-2.75047e-05
6.74363e-05
-4.38174e-05
7.95168e-05
-5.05459e-05
8.39674e-05
-3.7549e-05
8.86053e-05
-9.39173e-06
9.85937e-05
1.47447e-05
0.000118702
2.10405e-05
0.000126038
1.27663e-05
0.000119342
5.65153e-06
0.000104642
1.21669e-05
9.3992e-05
3.56754e-05
7.50889e-05
6.90434e-05
4.50293e-05
9.93374e-05
2.3733e-05
0.000124567
-8.0454e-06
0.000145614
-4.39816e-05
-9.86152e-05
0.000149408
-0.000262806
0.000242121
-0.00012267
0.000269026
-8.42533e-05
0.000157764
-3.30894e-05
0.000101914
-6.70524e-06
6.78325e-05
5.24275e-06
4.71216e-05
1.0292e-05
5.35665e-05
1.34694e-05
6.42574e-05
1.21605e-05
8.08215e-05
5.6705e-06
9.05139e-05
2.13809e-06
9.49896e-05
1.27141e-05
9.26771e-05
3.53067e-05
9.43287e-05
6.11684e-05
9.80353e-05
8.04748e-05
0.000102055
9.61107e-05
9.67196e-05
0.000108362
8.87669e-05
0.000113972
6.80257e-05
0.000128035
4.47522e-05
0.000150618
1.98203e-05
0.000168665
-2.02334e-05
0.000176776
-5.40023e-05
-8.40778e-05
0.000168147
-0.000222843
0.000456874
-2.2584e-05
0.00024673
-2.22248e-05
0.000156876
5.83474e-06
7.3947e-05
1.48438e-05
5.87445e-05
1.79856e-05
4.3947e-05
2.39146e-05
4.75721e-05
3.20243e-05
5.61422e-05
4.07828e-05
7.20601e-05
4.36739e-05
8.76146e-05
4.31725e-05
9.55582e-05
4.44671e-05
9.23188e-05
5.31715e-05
8.74583e-05
7.0736e-05
8.175e-05
9.25204e-05
8.00647e-05
0.000114904
7.16203e-05
0.000136399
6.7286e-05
0.000145406
5.26681e-05
0.000144264
3.25293e-05
0.000165562
8.67472e-06
0.000172472
-2.22654e-05
0.000154045
-4.06733e-05
-7.60773e-05
0.000148518
-5.60854e-06
0.000492106
2.14966e-05
0.000231116
2.80848e-05
0.000150062
2.42355e-05
7.78618e-05
2.92376e-05
5.3883e-05
3.04514e-05
4.26581e-05
3.43839e-05
4.35708e-05
4.13185e-05
4.92202e-05
5.2315e-05
6.10724e-05
6.1649e-05
7.82774e-05
6.71668e-05
9.00367e-05
7.01045e-05
8.93788e-05
7.56035e-05
8.20348e-05
8.56217e-05
7.20908e-05
0.000100812
6.64765e-05
0.000115971
5.84153e-05
0.00013362
4.99689e-05
0.000147206
3.89693e-05
0.000154075
2.35123e-05
0.000161302
2.71229e-06
0.000154238
-2.68556e-05
0.000152733
-5.62706e-05
-7.83375e-05
0.000138549
6.72513e-05
0.000429878
5.30137e-05
0.0002454
5.3893e-05
0.000149176
4.36651e-05
8.80464e-05
4.24802e-05
5.5238e-05
4.23915e-05
4.27478e-05
4.41053e-05
4.17993e-05
4.76769e-05
4.56846e-05
5.54831e-05
5.32771e-05
6.65388e-05
6.72221e-05
7.58912e-05
8.06833e-05
8.23309e-05
8.2938e-05
8.88408e-05
7.55205e-05
9.57585e-05
6.51477e-05
0.000105565
5.66115e-05
0.000113817
5.0079e-05
0.000123238
4.03889e-05
0.000134119
2.76541e-05
0.000140819
1.64405e-05
0.000144655
-1.47065e-06
0.000141451
-2.60105e-05
0.000131469
-4.68871e-05
-6.30665e-05
0.000116369
7.51319e-05
0.000354748
7.26068e-05
0.000247888
6.5065e-05
0.000156721
5.84602e-05
9.45429e-05
5.57433e-05
5.81181e-05
5.3708e-05
4.47643e-05
5.28333e-05
4.26129e-05
5.3287e-05
4.52535e-05
5.59047e-05
5.06627e-05
6.42931e-05
5.8839e-05
7.51676e-05
6.98139e-05
8.46792e-05
7.3432e-05
9.21669e-05
6.80324e-05
9.79552e-05
5.93587e-05
0.000103622
5.09504e-05
0.000108878
4.48249e-05
0.000114683
3.45482e-05
0.000119919
2.2367e-05
0.000123993
1.23621e-05
0.000127083
-4.57963e-06
0.00012377
-2.26848e-05
0.000115873
-3.89788e-05
-5.20072e-05
0.000104812
6.13667e-05
0.000293394
7.4051e-05
0.000235187
7.41792e-05
0.000156552
7.184e-05
9.67156e-05
6.78411e-05
6.22598e-05
6.35398e-05
4.90125e-05
6.00816e-05
4.60555e-05
5.79887e-05
4.7336e-05
5.78876e-05
5.07638e-05
6.19351e-05
5.47955e-05
7.07157e-05
6.10383e-05
8.08804e-05
6.32747e-05
8.87387e-05
6.01777e-05
9.42478e-05
5.38574e-05
9.82369e-05
4.69673e-05
0.000102801
4.02648e-05
0.000107176
3.01734e-05
0.000110036
1.95074e-05
0.000113415
8.98551e-06
0.000114433
-5.59538e-06
0.000110664
-1.8914e-05
0.00010386
-3.21744e-05
-4.32643e-05
9.51186e-05
5.13827e-05
0.000241699
7.51318e-05
0.000211153
8.2177e-05
0.000149216
8.11062e-05
9.77463e-05
7.58596e-05
6.75752e-05
6.9677e-05
5.51179e-05
6.45021e-05
5.12577e-05
6.11084e-05
5.07156e-05
6.00368e-05
5.18366e-05
6.17761e-05
5.30578e-05
6.7554e-05
5.52599e-05
7.52239e-05
5.56023e-05
8.19592e-05
5.3441e-05
8.7258e-05
4.85592e-05
9.13425e-05
4.28853e-05
9.57502e-05
3.58574e-05
9.93297e-05
2.65952e-05
0.000101632
1.72061e-05
0.000103412
7.20653e-06
0.000102731
-4.91331e-06
9.91809e-05
-1.53627e-05
9.34506e-05
-2.64425e-05
-3.56704e-05
8.58559e-05
4.43318e-05
0.000196688
7.26473e-05
0.000182498
8.31332e-05
0.000138603
8.28535e-05
9.80081e-05
7.74696e-05
7.28683e-05
7.07803e-05
6.19145e-05
6.53893e-05
5.66551e-05
6.19402e-05
5.41626e-05
6.07707e-05
5.30065e-05
6.16864e-05
5.21423e-05
6.5101e-05
5.18442e-05
7.00702e-05
5.063e-05
7.53239e-05
4.81843e-05
8.00205e-05
4.38608e-05
8.41205e-05
3.87847e-05
8.79958e-05
3.19823e-05
9.07615e-05
2.38302e-05
9.25639e-05
1.54043e-05
9.33188e-05
6.4528e-06
9.18453e-05
-3.43914e-06
8.88926e-05
-1.24093e-05
8.41695e-05
-2.17195e-05
-2.9364e-05
7.78633e-05
3.61161e-05
0.000161225
6.22741e-05
0.000156704
7.5176e-05
0.0001258
7.68698e-05
9.6235e-05
7.24474e-05
7.74827e-05
6.7181e-05
6.72411e-05
6.31159e-05
6.07191e-05
6.06349e-05
5.66433e-05
5.9789e-05
5.3852e-05
6.03173e-05
5.16138e-05
6.24794e-05
4.96816e-05
6.57985e-05
4.73102e-05
6.97022e-05
4.42802e-05
7.35873e-05
3.99754e-05
7.72567e-05
3.51156e-05
8.04222e-05
2.88174e-05
8.24813e-05
2.17721e-05
8.36992e-05
1.41874e-05
8.37608e-05
6.39173e-06
8.23043e-05
-1.98222e-06
7.99585e-05
-1.00635e-05
7.61286e-05
-1.78886e-05
-2.4361e-05
7.11243e-05
2.67434e-05
0.000134855
4.91835e-05
0.000134496
6.13859e-05
0.000113517
6.48171e-05
9.31236e-05
6.34598e-05
7.8963e-05
6.10959e-05
6.96079e-05
5.89976e-05
6.28169e-05
5.77043e-05
5.79362e-05
5.74308e-05
5.41252e-05
5.81126e-05
5.09316e-05
5.97708e-05
4.80231e-05
6.2149e-05
4.49318e-05
6.5036e-05
4.13932e-05
6.796e-05
3.70517e-05
7.0807e-05
3.22689e-05
7.3143e-05
2.64823e-05
7.47757e-05
2.01401e-05
7.56834e-05
1.32802e-05
7.55943e-05
6.48113e-06
7.44471e-05
-8.34888e-07
7.24356e-05
-8.05184e-06
6.92118e-05
-1.46652e-05
-2.04463e-05
6.5297e-05
1.91434e-05
0.000115738
3.72217e-05
0.000116321
4.87036e-05
0.000102251
5.33224e-05
8.86181e-05
5.44191e-05
7.78709e-05
5.43055e-05
6.97209e-05
5.39096e-05
6.32124e-05
5.37616e-05
5.80839e-05
5.40954e-05
5.3791e-05
5.5019e-05
5.00077e-05
5.64842e-05
4.65576e-05
5.84172e-05
4.29986e-05
6.06921e-05
3.91183e-05
6.29462e-05
3.47977e-05
6.51508e-05
3.00651e-05
6.69242e-05
2.47093e-05
6.81042e-05
1.89608e-05
6.8571e-05
1.28137e-05
6.83729e-05
6.67942e-06
6.73445e-05
1.93464e-07
6.54866e-05
-6.19423e-06
6.29668e-05
-1.21449e-05
-1.74615e-05
5.99809e-05
1.40332e-05
0.000101653
2.84858e-05
0.000101815
3.82798e-05
9.24579e-05
4.35843e-05
8.33119e-05
4.62985e-05
7.5156e-05
4.77501e-05
6.82687e-05
4.86229e-05
6.23391e-05
4.93785e-05
5.73278e-05
5.02662e-05
5.29029e-05
5.14229e-05
4.88506e-05
5.28659e-05
4.51143e-05
5.45381e-05
4.13262e-05
5.63313e-05
3.73251e-05
5.80918e-05
3.30375e-05
5.97206e-05
2.84365e-05
6.10043e-05
2.34264e-05
6.18587e-05
1.8107e-05
6.21973e-05
1.24754e-05
6.19921e-05
6.88459e-06
6.10833e-05
1.10213e-06
5.9562e-05
-4.67304e-06
5.73915e-05
-9.97492e-06
-1.49745e-05
5.49042e-05
1.08395e-05
9.07707e-05
2.2102e-05
9.0523e-05
3.03467e-05
8.42079e-05
3.58107e-05
7.7847e-05
3.93525e-05
7.16135e-05
4.17371e-05
6.58836e-05
4.34422e-05
6.06336e-05
4.48382e-05
5.59314e-05
4.61507e-05
5.15901e-05
4.74829e-05
4.7518e-05
4.893e-05
4.36669e-05
5.0441e-05
3.9815e-05
5.19737e-05
3.57924e-05
5.34223e-05
3.1589e-05
5.47248e-05
2.71346e-05
5.57377e-05
2.24138e-05
5.63593e-05
1.74858e-05
5.64998e-05
1.23351e-05
5.61984e-05
7.18589e-06
5.53603e-05
1.94006e-06
5.40037e-05
-3.31685e-06
5.22612e-05
-8.23216e-06
-1.29182e-05
5.02039e-05
8.66836e-06
8.20969e-05
1.75227e-05
8.16669e-05
2.45206e-05
7.72092e-05
2.9762e-05
7.26049e-05
3.36051e-05
6.77698e-05
3.64653e-05
6.30228e-05
3.86534e-05
5.8445e-05
4.04496e-05
5.41347e-05
4.20253e-05
5.00141e-05
4.3486e-05
4.6057e-05
4.49215e-05
4.22311e-05
4.63283e-05
3.8408e-05
4.76594e-05
3.44612e-05
4.88797e-05
3.0369e-05
4.99122e-05
2.61023e-05
5.06767e-05
2.16498e-05
5.11194e-05
1.70434e-05
5.1186e-05
1.22685e-05
5.08974e-05
7.47433e-06
5.01915e-05
2.64575e-06
4.90545e-05
-2.18002e-06
4.75439e-05
-6.72197e-06
-1.11268e-05
4.57523e-05
7.09282e-06
7.50032e-05
1.42351e-05
7.45238e-05
2.01951e-05
7.12486e-05
2.50248e-05
6.77746e-05
2.88437e-05
6.39503e-05
3.18665e-05
5.99995e-05
3.42849e-05
5.60263e-05
3.62949e-05
5.21243e-05
3.80178e-05
4.82909e-05
3.95525e-05
4.45219e-05
4.09809e-05
4.08024e-05
4.23063e-05
3.70824e-05
4.35052e-05
3.32624e-05
4.4561e-05
2.93132e-05
4.54108e-05
2.5253e-05
4.60181e-05
2.10427e-05
4.63505e-05
1.67113e-05
4.63656e-05
1.22535e-05
4.60484e-05
7.79138e-06
4.53852e-05
3.30865e-06
4.43782e-05
-1.17336e-06
4.30921e-05
-5.43564e-06
-9.58136e-06
4.15458e-05
5.89544e-06
6.91072e-05
1.17745e-05
6.86441e-05
1.68895e-05
6.6133e-05
2.12449e-05
6.34187e-05
2.48667e-05
6.0328e-05
2.78612e-05
5.70046e-05
3.03418e-05
5.35453e-05
3.24278e-05
5.0038e-05
3.42105e-05
4.65079e-05
3.57657e-05
4.29664e-05
3.71586e-05
3.94092e-05
3.84075e-05
3.58333e-05
3.95011e-05
3.21687e-05
4.04234e-05
2.83911e-05
4.11491e-05
2.45273e-05
4.16489e-05
2.05434e-05
4.19049e-05
1.64554e-05
4.18743e-05
1.22842e-05
4.15653e-05
8.10013e-06
4.09632e-05
3.9105e-06
4.0061e-05
-2.71276e-07
3.8914e-05
-4.2891e-06
-8.21478e-06
3.75472e-05
4.95769e-06
6.41488e-05
9.88049e-06
6.37207e-05
1.42969e-05
6.17161e-05
1.81828e-05
5.95323e-05
2.15275e-05
5.69828e-05
2.43802e-05
5.41515e-05
2.68035e-05
5.11216e-05
2.88705e-05
4.79707e-05
3.06443e-05
4.47338e-05
3.21773e-05
4.14332e-05
3.35118e-05
3.80745e-05
3.46757e-05
3.46693e-05
3.56649e-05
3.11795e-05
3.64741e-05
2.7582e-05
3.70943e-05
2.39075e-05
3.75058e-05
2.0132e-05
3.76996e-05
1.62619e-05
3.76497e-05
1.2334e-05
3.73459e-05
8.40369e-06
3.67868e-05
4.46941e-06
3.5962e-05
5.53135e-07
3.49526e-05
-3.27949e-06
-7.00103e-06
3.37382e-05
4.20109e-06
5.99474e-05
8.37111e-06
5.95503e-05
1.21951e-05
5.78917e-05
1.56385e-05
5.60885e-05
1.86786e-05
5.39424e-05
2.13317e-05
5.14981e-05
2.36269e-05
4.88261e-05
2.56069e-05
4.59905e-05
2.73104e-05
4.303e-05
2.87808e-05
3.99626e-05
3.00406e-05
3.68145e-05
3.11223e-05
3.35875e-05
3.20284e-05
3.02733e-05
3.27536e-05
2.6857e-05
3.32937e-05
2.33674e-05
3.3635e-05
1.97912e-05
3.37573e-05
1.61397e-05
3.36592e-05
1.24321e-05
3.33522e-05
8.71047e-06
3.28366e-05
4.98476e-06
3.21024e-05
1.28721e-06
3.11916e-05
-2.36903e-06
-5.90918e-06
3.00997e-05
3.57738e-06
5.63695e-05
7.13926e-06
5.5988e-05
1.04545e-05
5.4576e-05
1.34905e-05
5.30522e-05
1.62208e-05
5.12118e-05
1.86406e-05
4.90779e-05
2.07627e-05
4.67038e-05
2.26123e-05
4.41407e-05
2.42106e-05
4.14315e-05
2.55851e-05
3.85878e-05
2.67611e-05
3.56383e-05
2.77558e-05
3.25926e-05
2.85755e-05
2.94537e-05
2.92147e-05
2.62178e-05
2.96773e-05
2.29051e-05
2.9954e-05
1.95144e-05
3.00453e-05
1.60486e-05
2.99377e-05
1.25397e-05
2.96257e-05
9.02237e-06
2.91207e-05
5.48948e-06
2.84368e-05
1.97091e-06
2.75948e-05
-1.52693e-06
-4.92371e-06
2.66088e-05
3.05914e-06
5.33102e-05
6.11634e-06
5.29305e-05
8.99761e-06
5.16944e-05
1.1661e-05
5.03884e-05
1.40844e-05
4.87882e-05
1.62581e-05
4.6904e-05
1.81811e-05
4.47805e-05
1.98612e-05
4.24604e-05
2.13199e-05
3.99726e-05
2.25691e-05
3.73385e-05
2.36278e-05
3.45794e-05
2.45051e-05
3.17151e-05
2.52175e-05
2.87413e-05
2.5769e-05
2.56665e-05
2.61629e-05
2.25111e-05
2.63932e-05
1.92846e-05
2.64482e-05
1.59936e-05
2.6326e-05
1.26619e-05
2.60436e-05
9.30458e-06
2.55873e-05
5.94565e-06
2.49518e-05
2.60625e-06
2.41721e-05
-7.47529e-07
-4.00926e-06
2.32575e-05
2.62056e-06
5.06892e-05
5.23874e-06
5.0312e-05
7.71842e-06
4.92145e-05
1.00373e-05
4.80693e-05
1.21714e-05
4.66539e-05
1.41055e-05
4.49697e-05
1.58328e-05
4.3053e-05
1.7356e-05
4.0937e-05
1.86895e-05
3.86389e-05
1.9834e-05
3.61939e-05
2.08005e-05
3.36128e-05
2.16006e-05
3.09149e-05
2.22333e-05
2.81086e-05
2.26956e-05
2.52042e-05
2.2991e-05
2.22161e-05
2.31207e-05
1.91548e-05
2.30852e-05
1.60293e-05
2.29053e-05
1.28418e-05
2.25825e-05
9.62727e-06
2.21293e-05
6.39868e-06
2.15598e-05
3.17555e-06
2.08537e-05
-4.13328e-08
-3.17517e-06
2.00191e-05
2.22988e-06
4.84592e-05
4.48562e-06
4.80561e-05
6.64247e-06
4.70574e-05
8.66248e-06
4.60491e-05
1.05299e-05
4.47863e-05
1.22316e-05
4.32678e-05
1.37598e-05
4.15247e-05
1.51107e-05
3.9586e-05
1.62815e-05
3.74679e-05
1.72801e-05
3.51953e-05
1.81114e-05
3.27813e-05
1.87831e-05
3.02432e-05
1.93074e-05
2.75843e-05
1.9692e-05
2.48198e-05
1.99344e-05
2.19736e-05
2.00383e-05
1.90513e-05
1.99996e-05
1.6068e-05
1.97979e-05
1.30434e-05
1.94349e-05
9.99016e-06
1.89372e-05
6.89629e-06
1.83259e-05
3.78675e-06
1.76174e-05
6.66855e-07
-2.4101e-06
1.68523e-05
1.91612e-06
4.65428e-05
3.80629e-06
4.61657e-05
5.60329e-06
4.52602e-05
7.2918e-06
4.43605e-05
8.86424e-06
4.32138e-05
1.03115e-05
4.18204e-05
1.16324e-05
4.02037e-05
1.28266e-05
3.83917e-05
1.38869e-05
3.64075e-05
1.48037e-05
3.42784e-05
1.5569e-05