/*--------------------------------*- C++ -*----------------------------------*\
| =========                 |                                                 |
| \\      /  F ield         | OpenFOAM: The Open Source CFD Toolbox           |
|  \\    /   O peration     | Version:  2.4.0                                 |
|   \\  /    A nd           | Web:      www.OpenFOAM.org                      |
|    \\/     M anipulation  |                                                 |
\*---------------------------------------------------------------------------*/
FoamFile
{
    version     2.0;
    format      ascii;
    class       volScalarField;
    location    "1";
    object      rho;
}
// * * * * * * * * * * * * * * * * * * * * * * * * * * * * * * * * * * * * * //

dimensions      [1 -3 0 0 0 0 0];

internalField   nonuniform List<scalar> 
2268
(
13529
13529
13529
13529
13529
13529
13529
13529
13529
13529
13529
13529
13529
13529
13529
13529
13529
13529
13529
13529
13529
13528.9
13528.9
13529
13529
13529
13529
13529
13529
13529
13529
13529
13529
13529
13529
13529
13529
13529
13529
13529
13529
13529
13529
13529
13528.9
13528.9
13528.8
13528.9
13529
13529
13529
13529
13529
13529
13529
13529
13529
13529
13529
13529
13529
13529
13529
13529
13529
13529
13529
13528.9
13528.8
13526.7
13528
13528.6
13528.8
13528.9
13528.9
13528.9
13528.8
13528.9
13528.9
13528.9
13529
13529
13529
13529
13528.9
13528.9
13528.8
13528.4
13528.2
13528.2
13528.6
13528.7
13509.4
13522
13527.4
13528.3
13528.2
13517.9
13468
13422.4
13416.9
13448.5
13456.9
13468.5
13484.3
13486.4
13477.5
13461.9
13445.7
13394.3
13301.4
13260.1
13287.5
13313.7
13375
13462.7
13505.6
13523
13515.2
13225.5
11448
8838.07
7393.03
6933.07
7125.65
8199.05
9406.17
10196.8
10354.9
10073.7
9618.65
9274.58
8528.55
7547.39
7131.46
7550.09
7835.62
6993.62
13405.4
13464.1
13066
9060.14
3782.26
1385.91
1037.43
1009.45
1007.09
1007.01
1006.06
1013.85
1064.6
1163.34
1207.92
1175.94
1141.3
1089.07
1045.78
1023.8
1000.72
966.566
960.049
13312.2
12391.3
6111.04
1399.34
1031.59
1007.1
1007.05
1007.09
1007.06
1007.08
1005.7
1002.73
1000.69
1000.44
1000.09
999.785
998.964
998.702
998.74
994.851
950.77
830.71
705.283
10423.4
8266.61
8008.85
8039.07
8423.02
9719.96
11522.4
12696.8
13012.1
13070.9
13106.8
13109.1
13110.5
13111.2
13112.4
13112.6
13112.5
13112.8
13114.4
898.899
687.466
682.179
743.054
805.091
925.172
1387.89
2813.79
6738.96
9540.91
11413.4
12598.4
12990.8
13049.2
13086.3
13112.9
13112.9
13114.4
13114.8
429.981
529.309
524.137
524.886
569.215
807.348
911.597
1719.72
5638.68
10411
12285.4
12877.9
12989.8
12950.8
13088.6
13113.5
13114.5
13114.8
13114.8
384.242
411.206
477.223
502.73
505.454
561.94
765.55
1102.58
2474.84
4389.74
5701.53
7369.61
8938.45
10666.1
12734.2
13073
13111.2
13082.5
13115.1
540.425
410.894
505.757
505.823
506.872
571.213
792.666
900.662
1080.06
1054.15
663.711
722.335
992.145
3412.8
10145.7
13020.4
13109.5
12914.8
12058.5
564.286
511.488
501.592
503.104
508.682
570.012
753.036
869.963
885.818
837.136
683.898
583.812
577.688
679.396
3361.29
10088.3
11504.7
8896.75
4988.99
566.403
514.617
498.596
504.705
512.083
614.684
806.413
871.373
878.989
865.848
714.974
582.814
578.859
583.887
738.552
1804.94
2441.68
1335.17
773.697
568.676
516.982
504.466
503.432
515.143
618.305
791.018
869.658
882.661
881.845
791.992
617.355
579.041
585.036
620.829
711.375
736.384
735.613
735.61
11721.3
4977.46
1367.22
1029.7
1007.31
1007.03
1006.94
1006.7
1005.75
1002.51
1000.78
1000.11
999.769
999.476
999.264
998.242
995.382
994.164
994.164
990.02
937.499
706.603
619.132
6943.55
1398.78
1008.93
1006.95
1006.27
1005.55
1004.56
1002.21
1000.71
998.992
995.624
994.265
994.892
995.941
996.432
996.132
994.432
990.531
971.545
928.9
841.527
643
557.525
2293.97
1098.86
1005.74
1002.33
1000.86
1000.55
1000.17
998.514
987.431
955.18
916.348
903.691
921.677
947.852
966.707
980.534
987.288
974.01
864.163
711.022
602.894
575.57
574.188
1154.86
1015.63
991.885
992.678
995.589
997.42
990.572
946.444
839.615
731.038
673.114
675.65
723.569
805.226
895.04
947.282
923.93
807.806
666.094
594.065
584.222
585.381
592.536
858.474
880.438
925.624
966.563
986.873
974.234
870.272
700.231
576.026
558.791
554.319
583.729
642.795
727.554
794.368
793.429
695.74
607.888
571.793
570.671
584.236
594.811
601.714
607.541
709.178
880.352
941.718
940.775
764.252
562.785
538.919
535.608
522.198
522.046
557.092
597.286
632.94
641.461
603.494
555.082
539.146
538.376
538.067
557.898
569.503
585.297
564.5
637.487
794.83
818.048
701.132
563.989
538.055
532.155
493.453
428.662
383.3
513.963
542.532
545.384
541.052
531.197
524.415
507.314
401.422
227.638
165.256
218.47
362.217
551.204
608.671
680.918
632.947
553.615
534.841
508.468
482.504
389.72
132.773
133.412
414.595
517.558
525.798
525.137
511.813
475.597
249.664
40.3638
8.03585
2.98072
1.09062
3.66494
491.806
573.298
582.055
544.726
528.785
481.101
406.413
161.071
49.2187
7.7491
6.53367
52.1294
238.321
430.012
468.393
414.189
191.732
22.745
1.29352
1.01169
1.00109
1.00049
1.00051
507.094
542.836
541.166
528.812
467.292
177.45
19.8858
4.72983
1.59377
1.06798
1.06151
2.81378
20.712
85.7435
128.835
93.695
16.1574
1.37807
1.00088
1.00055
1.00036
1.00034
1.00032
531.173
540.112
524.443
450.13
130.446
6.35913
1.06446
1.0149
1.0163
1.0015
1.00152
1.02889
1.40219
2.97954
4.68835
3.78123
1.22219
1.00294
1.00055
1.00047
1.00037
1.00038
1.00035
524.82
514.779
403.693
101.834
5.2046
1.01685
1.00052
1.00462
1.02928
1.03759
1.0017
1.00117
1.00118
1.00395
1.00856
1.00834
1.00089
1.00054
1.00049
1.00054
1.00071
1.00051
1.00047
501.517
383.321
70.7556
3.99461
1.01974
1.00028
1.00026
1.00144
1.03063
1.09209
1.08505
1.01567
1.00124
1.00053
1.00052
1.00051
1.00054
1.00051
1.00047
1.00057
1.00074
1.00075
1.00058
462.707
87.7473
2.59104
1.01224
1.00025
1.00016
1.00012
1.0001
1.00342
1.04533
1.10066
1.10072
1.03615
1.00068
1.0005
1.00048
1.00047
1.00046
1.00046
1.00045
1.00051
1.00046
1.00057
263.003
4.00171
1.00464
1.00023
1.00009
1.00005
1.00004
1.00003
1.00006
1.00312
1.05115
1.08189
1.01791
1.00488
1.00306
1.00685
1.00231
1.00049
1.00047
1.00051
1.00084
1.00101
1.00101
46.4214
1.01215
1.00017
1.00007
1.00005
1.00003
1.00003
1.00002
1.00002
1.00005
1.00278
1.01028
1.00228
1.00218
1.01683
1.01691
1.01323
1.00295
1.00629
1.03255
1.03078
1.01201
1.00267
3.20888
1.00151
1.00008
1.00003
1.00003
1.00002
1.00001
1.00001
1.00001
1.00001
1.00003
1.00019
1.00011
1.00039
1.00634
1.01311
1.00572
1.00247
1.01081
1.03387
1.03392
1.03125
1.0058
1.02706
1.00057
1.00006
1.00003
1.00003
1.00003
1.00001
1.00001
1.00001
1.00001
1.00001
1.00001
1.00003
1.00009
1.00053
1.00142
1.00056
1.00063
1.00344
1.01361
1.0107
1.00313
1.00047
1.00007
1.00021
1.00004
1.00003
1.00005
1.00004
1.00002
1.00001
1.00001
1.00001
1.00001
1.00001
1.00001
1.00003
1.00005
1.00008
1.00012
1.00014
1.00035
1.00056
1.00035
1.00012
1.00004
1.00001
1.00005
1.00003
1.00007
1.00007
1.00004
1.00002
1
1
1
1.00001
1.00001
1.00001
1.00001
1.00003
1.00003
1.00003
1.00004
1.00005
1.00006
1.00007
1.00006
1.00002
1.00001
1.00001
1.00006
1.00007
1.00006
1.00003
1.00001
1
1
1
1
1
1.00001
1.00001
1.00001
1.00001
1.00001
1.00001
1.00001
1.00004
1.00006
1.00006
1.00004
1.00002
1.00004
1.00008
1.00007
1.00004
1.00002
1
1
1
1
1
1
1
1
1
1
1
1
1.00003
1.00005
1.00006
1.00004
1.00002
1.00007
1.00008
1.00009
1.00005
1.00003
1.00001
1
1
1
1
1
1
1
1
1
1
1
1
1.00002
1.00004
1.00003
1.00001
1.00001
1.00009
1.00009
1.00006
1.00003
1.00001
1
0.999999
1
1
1
1
1
1
1
1
1
1
1.00001
1.00001
1.00001
1.00001
1.00001
1
1.00005
1.00005
1.00003
1.00001
1
0.999999
1
1
1
1
1
1
1
1
1
1
1
1
1.00001
1.00001
1.00001
1
1
1.00002
1.00002
1.00001
1
0.999999
1
1
1
1
1
1
1
1
1
1
1
1
1
1
1
1
1
1
1.00001
1
1
0.999999
1
1
1
1
1
1
1
1
1
1
1
1
1
1
1
1
1
1
1
1
0.999999
0.999999
0.999999
1
1
1
1
1
1
1
1
1
1
1
1
1
1
1
1
1
1
1
0.999999
0.999999
0.999999
1
1
1
1
1
1
1
1
1
1
1
1
1
1
1
1
1
1
1
0.999999
0.999999
0.999999
1
1
1
1
1
1
1
1
1
1
1
1
1
1
1
1
1
1
1
0.999999
0.999999
0.999999
0.999999
1
1
1
1
1
1
1
1
1
1
1
1
1
1
1
1
1
1
1
1
0.999999
0.999999
1
1
1
1
1
1
1
1
1
1
1
1
1
1
1
1
1
1
1
1
1
1
1
1
1
1
1
1
1
1
1
1
1
1
1
1
1
1
1
1
1
1
1
1
1
1
1
1
1
1
1
1
1
1
1
1
1
1
1
1
1
1
1
1
1
1
1
1
1
1
1
1
1
1
1
1
1
1
1
1
1
1
1
1
1
1
1
1
1
1
1
1
1
1
1
1
1
1
1
1
1
1
1
1
1
1
1
1
1
1
1
1
1
1
1
1
1
1
1
1
1
1
1
1
1
1
1
1
1
1
1
1
1
1
1
1
1
1
1
1
1
1
1
1
1
1
1
1
1
1
1
1
1
1
1
1
1
1
1
1
1
1
1
1
1
1
1
1
1
1
1
1
1
1
1
1
1
1
1
1
1
1
1
1
1
1
1
1
1
1
1
1
1
1
1
1
1
1
1
1
1
1
1
1
1
1
1
1
1
1
1
1
1
1
1
1
1
1
1
1
1
1
1
1
0.999999
0.999999
0.999999
1
0.999999
1
1
1
1
1
1
1
1
1
1
1
1
1
1
1
1
1
0.999999
0.999999
0.999999
0.999999
1
0.999999
823.635
881.051
842.881
791.768
553.945
552.439
546.431
540.45
574.379
569.274
562.277
556.503
593.446
593.469
593.28
592.793
604.328
605.604
608.883
613.452
594.903
599.633
604.463
607.732
443.809
481.115
499.655
506.413
17.7884
65.6439
131.07
154.367
1.00055
1.00187
1.01797
1.06952
1.00026
1.00026
1.00023
1.00022
1.00034
1.00035
1.00034
1.00034
1.00042
1.00043
1.00057
1.00117
1.00046
1.00039
1.00052
1.00084
1.00059
1.00058
1.00042
1.00069
1.0009
1.00066
1.00045
1.00064
1.001
1.00049
1.00041
1.00059
1.00017
1.00021
1.00065
1.00147
1.00007
1.00007
1.00014
1.00013
1.00002
1.00002
1.00002
1.00001
1.00001
1.00001
1.00001
1.00001
1.00001
1.00001
1.00001
1.00001
1.00001
1.00001
1.00001
1.00001
1
1
1
1
1
1
1
1
1
1
1
1
1
1
1
1
1
1
0.999999
0.999999
0.999999
0.999999
0.999999
0.999999
0.999999
0.999999
0.999999
0.999998
0.999999
0.999999
0.999999
0.999998
0.999999
0.999999
0.999999
0.999999
0.999999
0.999999
0.999999
0.999999
1
1
0.999999
0.999999
1
0.999999
0.999999
0.999999
1
1
0.999999
0.999999
1
0.999999
0.999999
0.999998
1
0.999999
0.999999
0.999998
0.999999
0.999999
0.999999
0.999998
0.999999
0.999999
0.999998
0.999998
0.999999
0.999999
0.999998
0.999998
0.999999
0.999998
0.999998
0.999998
0.999998
0.999998
0.999998
0.999999
565.47
515.583
502.842
507.146
545.176
683.729
831.371
880.033
883.75
883.49
860.243
724.069
618.023
586.266
586.732
646.08
686.583
721.556
735.625
530.941
515.779
510.675
533.585
622.861
754.093
838.235
855.803
866.684
867.765
878.29
827.77
704.87
597.506
580.701
581.118
619.791
658.404
678.151
548.574
537.952
555.714
622.959
705.572
765.482
781.755
789.253
812.836
856.128
868.848
862.125
782.084
649.523
581
583.396
603.563
618.557
620.663
593.239
599.771
634.074
669.484
683.998
684.62
679.054
675.641
686.908
737.685
807.69
839.704
784.779
681.048
602.559
606.364
605.299
604.477
599.462
622.615
633.445
639.636
640.417
638.855
636.37
635.675
637.329
645.895
668.755
709.105
760.835
756.092
663.91
623.625
605.646
574.205
496.932
453.227
611.717
614.278
614.307
613.397
612.414
613.196
614.952
617.479
620.393
629.184
647.031
672.664
682.844
639.771
601.179
502.003
301.939
159.994
116.32
516.485
527.444
528.937
525.869
504.131
487.483
478.046
479.397
477.64
497.332
535.412
566.345
568.226
504.331
329.664
70.9409
1.31804
1.00892
1.00098
158.203
174.682
178.113
168.06
111.251
78.5779
64.444
64.9646
63.36
73.9519
109.358
155.913
143.693
27.2602
1.02325
1.00085
1.00035
1.00044
1.00053
1.16542
1.24264
1.242
1.15418
1.01138
1.00099
1.00091
1.00063
1.00104
1.00101
1.00072
1.00055
1.00057
1.00043
1.00031
1.00045
1.00038
1.00037
1.00056
1.0002
1.00019
1.00022
1.00041
1.00052
1.00031
1.00023
1.00026
1.00058
1.00057
1.00047
1.00047
1.00051
1.00044
1.00036
1.0003
1.00032
1.00049
1.00117
1.00026
1.00023
1.00016
1.00016
1.00018
1.00022
1.00026
1.0003
1.00046
1.00074
1.00085
1.00076
1.0007
1.00052
1.00039
1.00029
1.00027
1.00058
1.0033
1.00267
1.00237
1.00053
1.00035
1.00028
1.0002
1.0003
1.00066
1.0009
1.00103
1.00111
1.00113
1.00117
1.00109
1.00073
1.00037
1.0002
1.00055
1.0033
1.00776
1.00949
1.00272
1.00157
1.00121
1.00035
1.00017
1.00028
1.00045
1.00055
1.00061
1.00097
1.0012
1.00119
1.00113
1.00053
1.00019
1.00069
1.0033
1.00942
1.00944
1.00565
1.00345
1.00338
1.00125
1.00021
1.00008
1.00013
1.00027
1.00047
1.00055
1.00109
1.00119
1.00105
1.00039
1.00018
1.00146
1.0033
1.00902
1.00675
1.00148
1.00357
1.00361
1.00248
1.0004
1.00014
1.00007
1.00013
1.00024
1.00034
1.00044
1.00092
1.0007
1.00019
1.00016
1.00178
1.00143
1.00556
1.00172
1.00039
1.00136
1.0036
1.00138
1.00045
1.00013
1.00006
1.00009
1.00016
1.00019
1.00018
1.00036
1.00019
1.0001
1.00012
1.00171
1.00064
1.00102
1.00026
1.00026
1.0005
1.00085
1.0006
1.00022
1.00008
1.00005
1.00006
1.0001
1.00012
1.0001
1.00007
1.00006
1.00005
1.00009
1.00084
1.00057
1.00008
1.00009
1.0002
1.00022
1.00029
1.00024
1.00013
1.00006
1.00003
1.00003
1.00003
1.00003
1.00002
1.00002
1.00002
1.00004
1.0001
1.00029
1.00062
1.00002
1.00006
1.00009
1.0001
1.0001
1.00009
1.00007
1.00004
1.00002
1.00001
1
1
1
1.00001
1.00003
1.00005
1.00011
1.00035
1.00059
1.00001
1.00006
1.00007
1.00006
1.00005
1.00004
1.00002
1.00001
1.00001
1
0.999999
1
1
1.00003
1.00004
1.00007
1.00019
1.00036
1.00063
1.00001
1.00004
1.00004
1.00003
1.00002
1.00001
1.00001
1
1
0.999999
0.999999
1
1.00001
1.00006
1.00009
1.00014
1.00027
1.0005
1.00062
1.00001
1.00002
1.00002
1.00001
1.00001
1
1
0.999999
0.999998
0.999998
0.999999
1
1.00001
1.00009
1.00027
1.0003
1.00042
1.00053
1.00062
1
1.00001
1
1
1
0.999999
0.999998
0.999998
0.999998
0.999998
1
1
1.00001
1.00012
1.00293
1.00103
1.00056
1.0008
1.00058
1
1
1
0.999999
0.999998
0.999998
0.999998
0.999998
0.999998
0.999999
1
1.00001
1.00002
1.00014
1.00899
1.00401
1.00076
1.00088
1.00211
1
0.999999
0.999999
0.999998
0.999998
0.999997
0.999997
0.999998
0.999998
0.999999
1
1.00001
1.00003
1.00018
1.00911
1.01172
1.0014
1.00544
1.00468
0.999999
0.999998
0.999998
0.999998
0.999997
0.999997
0.999997
0.999998
0.999998
0.999999
1
1.00001
1.00003
1.0002
1.00244
1.01678
1.00824
1.01267
1.00179
0.999998
0.999998
0.999998
0.999997
0.999997
0.999997
0.999997
0.999998
0.999998
0.999999
1
1.00001
1.00004
1.00017
1.00081
1.01683
1.0168
1.0113
1.00077
0.999998
0.999998
0.999997
0.999997
0.999997
0.999997
0.999997
0.999998
0.999998
1
1
1.00002
1.00004
1.00015
1.00056
1.00525
1.01594
1.00158
1.00048
0.999998
0.999997
0.999997
0.999997
0.999997
0.999997
0.999998
0.999998
0.999999
1
1.00001
1.00003
1.00005
1.00018
1.00047
1.00079
1.00119
1.00079
1.00035
0.999998
0.999997
0.999997
0.999997
0.999997
0.999997
0.999998
0.999998
0.999999
1
1.00001
1.00004
1.00007
1.00025
1.00043
1.00065
1.00078
1.00056
1.0003
0.999998
0.999997
0.999997
0.999997
0.999997
0.999998
0.999998
0.999999
0.999999
1
1.00001
1.00006
1.00018
1.00036
1.00046
1.00058
1.00063
1.00048
1.00017
0.999998
0.999997
0.999997
0.999997
0.999997
0.999998
0.999998
0.999999
1
1
1.00002
1.00008
1.00032
1.00051
1.00068
1.00076
1.00057
1.00025
1.00012
0.999998
0.999997
0.999997
0.999997
0.999998
0.999998
0.999999
0.999999
1
1
1.00002
1.00012
1.00044
1.00108
1.00122
1.00118
1.00042
1.00017
1.00003
0.999998
0.999997
0.999997
0.999998
0.999998
0.999998
0.999999
0.999999
1
1.00001
1.00003
1.00015
1.00041
1.0008
1.00116
1.0008
1.00027
1.00004
1.00001
0.999998
0.999997
0.999998
0.999998
0.999998
0.999999
0.999999
0.999999
1
1
1.00001
1.00011
1.00028
1.00037
1.00061
1.00029
1.00012
1.00002
1
0.999998
0.999998
0.999998
0.999998
0.999999
0.999999
0.999999
0.999999
1
1
1
1.00005
1.00015
1.00018
1.0002
1.00014
1.00006
1.00001
1
0.999998
0.999998
0.999998
0.999999
0.999999
0.999999
0.999999
0.999999
1
1
1
1.00001
1.00005
1.00006
1.00007
1.00005
1.00003
1.00001
1
0.999998
0.999998
0.999999
0.999999
0.999999
0.999999
0.999999
0.999999
1
1
1
1
1.00001
1.00002
1.00002
1.00001
1.00001
1
1
0.999998
0.999999
0.999999
0.999999
0.999999
0.999999
0.999999
1
1
1
1
1
1
1
1
1
1
1
1
0.999998
0.999999
0.999999
0.999999
0.999999
1
1
1
1
1
1
1
1
1
1
1
1
1
1
0.999999
0.999999
0.999999
1
1
1
1
1
1
1
1
1
1
1
1
1
1
1
1
0.999999
1
1
1
1
1
1
1
1
1
1
1
1
1
1
1
1
1
1
)
;

boundaryField
{
    leftWall
    {
        type            calculated;
        value           nonuniform List<scalar> 
50
(
13529
13529
13528.8
13526.7
13509.4
13462.7
13405.4
13312.2
11721.3
6943.55
2293.97
1154.86
858.474
607.541
564.5
551.204
491.806
507.094
531.173
524.82
501.517
462.707
263.003
46.4214
3.20888
1.02706
1.00007
1.00001
1.00001
1.00002
1.00007
1.00009
1.00005
1.00002
1.00001
1
0.999999
0.999999
0.999999
0.999999
1
1
1
1
1
1
1
1
1
1
)
;
    }
    rightWall
    {
        type            calculated;
        value           nonuniform List<scalar> 
50
(
13114.4
13114.8
13114.8
13115.1
12058.5
4988.99
773.697
735.61
735.625
678.151
620.663
599.462
453.227
116.32
1.00098
1.00053
1.00056
1.00117
1.0033
1.0033
1.0033
1.0033
1.00143
1.00064
1.00057
1.00062
1.00059
1.00063
1.00062
1.00062
1.00058
1.00211
1.00468
1.00179
1.00077
1.00048
1.00035
1.0003
1.00017
1.00012
1.00003
1.00001
1
1
1
1
1
1
1
1
)
;
    }
    lowerWall
    {
        type            calculated;
        value           nonuniform List<scalar> 
62
(
13529
13529
13529
13529
13529
13529
13529
13529
13529
13529
13529
13529
13529
13529
13529
13529
13529
13529
13529
13529
13529
13528.9
13528.9
13528.9
13528.9
13528.8
13528.7
13375
6993.62
960.049
705.283
823.635
881.051
842.881
791.768
10423.4
898.899
429.981
384.242
540.425
564.286
566.403
568.676
10423.4
8266.61
8008.85
8039.07
8423.02
9719.96
11522.4
12696.8
13012.1
13070.9
13106.8
13109.1
13110.5
13111.2
13112.4
13112.6
13112.5
13112.8
13114.4
)
;
    }
    atmosphere
    {
        type            calculated;
        value           nonuniform List<scalar> 
46
(
1
1
1
1
1
1
1
1
1
1
1
1
1
1
1
1
1
0.999999
0.999999
0.999999
0.999999
1
0.999999
1
1
1
1
1
1
1
1
1
1
1
1
1
1
1
1
1
1
1
1
1
1
1
)
;
    }
    defaultFaces
    {
        type            empty;
    }
}


// ************************************************************************* //
