/*--------------------------------*- C++ -*----------------------------------*\
| =========                 |                                                 |
| \\      /  F ield         | OpenFOAM: The Open Source CFD Toolbox           |
|  \\    /   O peration     | Version:  2.4.0                                 |
|   \\  /    A nd           | Web:      www.OpenFOAM.org                      |
|    \\/     M anipulation  |                                                 |
\*---------------------------------------------------------------------------*/
FoamFile
{
    version     2.0;
    format      ascii;
    class       volVectorField;
    location    "1";
    object      U.mercury;
}
// * * * * * * * * * * * * * * * * * * * * * * * * * * * * * * * * * * * * * //

dimensions      [0 1 -1 0 0 0 0];

internalField   nonuniform List<vector> 
2268
(
(-0.0267775 -0.0155344 0)
(-0.0761305 -0.0132966 0)
(-0.123408 -0.00181529 0)
(-0.149589 0.00775258 0)
(-0.165513 0.0133553 0)
(-0.17442 0.0125304 0)
(-0.175252 0.00708456 0)
(-0.172986 0.0059651 0)
(-0.175281 0.00454973 0)
(-0.179329 0.00236369 0)
(-0.179075 0.000127022 0)
(-0.168128 -0.000643327 0)
(-0.15237 0.00200307 0)
(-0.140871 0.00261994 0)
(-0.131591 0.00252168 0)
(-0.125015 0.000485603 0)
(-0.114522 -0.00318686 0)
(-0.0987874 -0.0052686 0)
(-0.0749401 -0.00561 0)
(-0.0458494 -0.00515761 0)
(-0.0305053 0.00110355 0)
(-0.026127 0.0038475 0)
(-0.018325 -0.00547229 0)
(-0.0253174 0.0521904 0)
(-0.0771349 0.0525605 0)
(-0.119111 0.035092 0)
(-0.152542 0.0134939 0)
(-0.169947 -0.00340985 0)
(-0.180875 -0.00843323 0)
(-0.179828 -0.00810605 0)
(-0.174646 -0.00534133 0)
(-0.174778 9.3195e-05 0)
(-0.175678 0.00101753 0)
(-0.171398 -0.00627149 0)
(-0.162557 -0.0144354 0)
(-0.152529 -0.0176267 0)
(-0.142703 -0.0146317 0)
(-0.134497 -0.0116256 0)
(-0.125119 -0.0100643 0)
(-0.11086 -0.0103971 0)
(-0.0934345 -0.0141842 0)
(-0.0688699 -0.0187444 0)
(-0.0438061 -0.0163875 0)
(-0.023233 -0.00962338 0)
(-0.00279277 -0.0109712 0)
(0.000553819 -0.0155502 0)
(-0.0292227 0.0501031 0)
(-0.0752777 0.0467924 0)
(-0.113061 0.0410897 0)
(-0.148812 0.0377762 0)
(-0.172866 0.0341867 0)
(-0.182926 0.0204246 0)
(-0.18041 0.00296663 0)
(-0.175248 0.0016787 0)
(-0.1751 0.00157947 0)
(-0.175865 -0.00154707 0)
(-0.173391 -0.00326655 0)
(-0.167159 -0.00367081 0)
(-0.159049 -0.000500819 0)
(-0.146223 0.00100194 0)
(-0.131532 5.65952e-05 0)
(-0.117877 -0.00590975 0)
(-0.0993165 -0.013432 0)
(-0.084341 -0.0224808 0)
(-0.0679617 -0.0289515 0)
(-0.0524242 -0.0267575 0)
(-0.0345291 -0.0166042 0)
(-0.00163446 -0.00654535 0)
(0.00500243 -0.00970623 0)
(-0.0348938 0.0712262 0)
(-0.0880389 0.0782427 0)
(-0.136589 0.0698604 0)
(-0.175103 0.0399781 0)
(-0.194289 0.0030655 0)
(-0.197609 -0.0141557 0)
(-0.201144 -0.0113361 0)
(-0.19599 -0.00323623 0)
(-0.183235 0.00659143 0)
(-0.174135 0.00557228 0)
(-0.170655 -0.0116372 0)
(-0.168341 -0.0304608 0)
(-0.164072 -0.0399831 0)
(-0.153594 -0.0392846 0)
(-0.136281 -0.034965 0)
(-0.117479 -0.034069 0)
(-0.0984186 -0.0344933 0)
(-0.0839549 -0.0352583 0)
(-0.0692724 -0.0365704 0)
(-0.056804 -0.0332541 0)
(-0.0393862 -0.0328737 0)
(-0.0115113 -0.0298909 0)
(-0.000214732 -0.00283122 0)
(-0.0243473 0.11292 0)
(-0.124937 0.100863 0)
(-0.194287 0.0759088 0)
(-0.231967 0.0698555 0)
(-0.243982 0.0681015 0)
(-0.226423 0.0364435 0)
(-0.218915 0.000501964 0)
(-0.22119 -0.0152293 0)
(-0.217307 -0.0182886 0)
(-0.211039 -0.0154292 0)
(-0.207205 -0.0100077 0)
(-0.198028 0.00243847 0)
(-0.182284 0.010041 0)
(-0.162173 0.00688851 0)
(-0.137187 -0.000998164 0)
(-0.115705 -0.011089 0)
(-0.095544 -0.0185273 0)
(-0.0778171 -0.032302 0)
(-0.0619027 -0.0470564 0)
(-0.0497249 -0.0508943 0)
(-0.0440379 -0.0468833 0)
(-0.0183277 -0.0425833 0)
(0.00232898 -0.0338873 0)
(-0.077329 0.157879 0)
(-0.210787 0.175516 0)
(-0.274042 0.136853 0)
(-0.263848 0.0732463 0)
(-0.258612 -0.0318535 0)
(-0.278196 -0.0959055 0)
(-0.277417 -0.126389 0)
(-0.262485 -0.13806 0)
(-0.232889 -0.136231 0)
(-0.186286 -0.130053 0)
(-0.165368 -0.134522 0)
(-0.162026 -0.14979 0)
(-0.176716 -0.158245 0)
(-0.189448 -0.157771 0)
(-0.192132 -0.157605 0)
(-0.17311 -0.157173 0)
(-0.14227 -0.159714 0)
(-0.101969 -0.170303 0)
(-0.0698512 -0.184831 0)
(-0.0478789 -0.185935 0)
(-0.0625703 -0.177839 0)
(-0.0787277 -0.15092 0)
(-0.0875667 -0.104992 0)
(-0.165856 0.222258 0)
(-0.294804 0.198006 0)
(-0.31431 0.0633323 0)
(-0.32015 -0.0573466 0)
(-0.315574 -0.163679 0)
(-0.351486 -0.362735 0)
(-0.387894 -0.468112 0)
(-0.258635 -0.513877 0)
(-0.109951 -0.510433 0)
(0.000161635 -0.464387 0)
(0.00503241 -0.407702 0)
(0.00384501 -0.388917 0)
(-0.0224809 -0.329085 0)
(-0.0824242 -0.308066 0)
(-0.15763 -0.307983 0)
(-0.17699 -0.343408 0)
(-0.17487 -0.364813 0)
(-0.142312 -0.39149 0)
(-0.135178 -0.41556 0)
(-0.171852 -0.434888 0)
(-0.294652 -0.52307 0)
(-0.253629 -0.946271 0)
(-0.249185 -1.09153 0)
(-0.230571 0.331318 0)
(-0.292807 0.186971 0)
(-0.301655 0.00326345 0)
(-0.268094 -0.287932 0)
(-0.195004 -0.5197 0)
(-0.053043 -0.591221 0)
(0.0120146 -0.565135 0)
(0.0864827 -0.565569 0)
(0.107762 -0.576235 0)
(0.176265 -0.487311 0)
(0.163194 -0.430278 0)
(0.133862 -0.347364 0)
(0.13167 -0.246555 0)
(0.0875526 -0.224495 0)
(0.0417467 -0.167943 0)
(-0.0686595 -0.139748 0)
(-0.134251 -0.133022 0)
(-0.194643 -0.130677 0)
(-0.263252 -0.13933 0)
(-0.325763 -0.180259 0)
(-0.282266 -0.414218 0)
(-0.229686 -1.01308 0)
(-0.238248 -1.17648 0)
(-0.00785255 -0.532144 0)
(0.130514 -0.605565 0)
(0.197619 -0.693027 0)
(0.238591 -0.729416 0)
(0.284104 -0.761877 0)
(0.303765 -0.822718 0)
(0.282065 -0.80964 0)
(0.237773 -0.722941 0)
(0.205649 -0.554252 0)
(0.212833 -0.410452 0)
(0.21495 -0.29312 0)
(0.186861 -0.201557 0)
(0.153919 -0.175214 0)
(0.149403 -0.120273 0)
(0.182276 -0.0692557 0)
(0.117125 -0.037002 0)
(-0.0670538 -0.0282529 0)
(-0.117193 -0.0597609 0)
(-0.0709173 -0.0787321 0)
(0.0739193 -0.479829 0)
(0.105388 -0.480183 0)
(0.159506 -0.395663 0)
(0.242542 -0.104455 0)
(0.318168 -0.00639874 0)
(0.381897 -0.147369 0)
(0.300724 -0.0318713 0)
(0.136107 0.0564461 0)
(-0.109136 0.215977 0)
(-0.157383 0.233373 0)
(-0.147079 0.215705 0)
(-0.115197 0.199949 0)
(-0.213554 0.154252 0)
(-0.229756 0.0633772 0)
(-0.0290562 0.0763126 0)
(-0.0266823 0.0991611 0)
(-0.105255 0.0858869 0)
(-0.11578 0.0539147 0)
(-0.0544129 -0.0374394 0)
(0.0688428 -1.17951 0)
(0.0418089 -0.944102 0)
(0.062168 -0.452093 0)
(0.0769263 -0.431476 0)
(0.0578511 -0.545764 0)
(-0.015232 -0.60373 0)
(-0.351656 -0.45228 0)
(-0.425998 -0.367313 0)
(-0.518508 -0.276202 0)
(-0.563398 -0.271137 0)
(-0.547486 -0.220386 0)
(-0.472542 -0.116964 0)
(-0.44153 -0.0984447 0)
(-0.401415 -0.154265 0)
(-0.2446 -0.106219 0)
(-0.0680459 0.0467175 0)
(-0.119956 0.0437235 0)
(-0.0847279 -0.0581087 0)
(-0.00346073 -0.115347 0)
(0.0715291 -1.09423 0)
(0.0608551 -0.786977 0)
(0.145924 -0.0870825 0)
(0.119935 0.111906 0)
(0.132933 0.231998 0)
(0.12153 0.409595 0)
(-0.271342 0.0113092 0)
(-0.35327 -0.0919885 0)
(-0.402594 -0.0502378 0)
(-0.469495 -0.0511162 0)
(-0.492715 -0.0660908 0)
(-0.503294 -0.0511668 0)
(-0.495123 -0.0679906 0)
(-0.470098 -0.136082 0)
(-0.376091 -0.114619 0)
(-0.175382 0.00470989 0)
(-0.135634 0.043447 0)
(-0.0685301 -0.00903074 0)
(0.0151646 -0.0983522 0)
(0.0727722 -1.07328 0)
(0.0259655 -0.755466 0)
(0.0494257 -0.328052 0)
(-0.0154625 -0.381127 0)
(-0.047691 -0.355727 0)
(-0.104833 -0.324251 0)
(-0.128722 -0.283777 0)
(-0.212073 -0.304066 0)
(-0.21966 -0.276564 0)
(-0.272332 -0.358877 0)
(-0.263642 -0.626907 0)
(-0.36261 -0.529041 0)
(-0.403377 -0.493491 0)
(-0.421584 -0.417193 0)
(-0.421263 -0.240311 0)
(-0.254582 -0.031359 0)
(-0.130454 0.018789 0)
(-0.0383995 -0.0996167 0)
(0.0556733 -0.170417 0)
(0.0775601 -1.08378 0)
(0.0544512 -0.678276 0)
(0.124639 -0.143933 0)
(0.119113 0.0389208 0)
(0.0053157 0.175243 0)
(-0.148781 0.177237 0)
(-0.200482 0.146982 0)
(-0.107391 -0.0173926 0)
(-0.102394 -0.206262 0)
(-0.00176329 -0.251871 0)
(-0.100603 -0.0968937 0)
(-0.183538 -0.245842 0)
(-0.120802 -0.571793 0)
(-0.153642 -0.595883 0)
(-0.28511 -0.378286 0)
(-0.314246 -0.208437 0)
(-0.14593 -0.112889 0)
(-0.0329116 -0.199436 0)
(0.0237865 -0.282892 0)
(0.0775458 -1.09058 0)
(0.0185785 -0.623773 0)
(0.0297701 -0.226578 0)
(-0.0850317 -0.247978 0)
(-0.144316 -0.185139 0)
(-0.175255 -0.0900243 0)
(-0.187463 -0.112934 0)
(-0.0909899 0.00463145 0)
(0.0555659 0.128234 0)
(0.104458 0.0985008 0)
(-0.0636918 0.0321675 0)
(-0.145027 -0.152538 0)
(-0.107245 -0.549964 0)
(-0.193366 -0.774838 0)
(-0.246099 -0.599571 0)
(-0.277846 -0.392707 0)
(-0.278582 -0.344121 0)
(-0.0767881 -0.477107 0)
(-0.0739472 -0.706819 0)
(0.0808484 -1.09533 0)
(0.0196247 -0.608448 0)
(0.0267947 -0.222124 0)
(-0.0370752 0.046057 0)
(-0.199253 0.09152 0)
(-0.240461 0.0544343 0)
(-0.232691 -0.0226292 0)
(-0.17591 -0.0696404 0)
(0.0264287 0.0946907 0)
(0.14587 0.143812 0)
(0.0886646 0.089205 0)
(-0.0604894 -0.196507 0)
(-0.0854223 -0.550135 0)
(-0.18212 -0.700283 0)
(-0.248509 -0.71444 0)
(-0.290306 -0.658703 0)
(-0.329084 -0.497367 0)
(-0.204352 -0.456838 0)
(-0.0891019 -0.453325 0)
(-0.236504 0.51768 0)
(-0.234044 0.184466 0)
(-0.266129 -0.249372 0)
(0.0303731 -0.484331 0)
(0.150267 -0.516843 0)
(0.168074 -0.486477 0)
(0.16246 -0.450499 0)
(0.192482 -0.435826 0)
(0.221924 -0.40488 0)
(0.246234 -0.269807 0)
(0.270306 -0.0574997 0)
(0.259519 0.138321 0)
(0.203253 0.255805 0)
(0.103065 0.282925 0)
(0.0142188 0.236337 0)
(-0.0548905 0.160848 0)
(-0.116871 0.0784026 0)
(-0.144911 0.0571174 0)
(-0.122174 0.0442516 0)
(-0.0843973 0.0562631 0)
(-0.148523 0.067698 0)
(-0.234119 -0.756572 0)
(-0.23132 -1.14058 0)
(-0.223193 0.588993 0)
(-0.132546 0.0770636 0)
(0.0818341 -0.268595 0)
(0.191684 -0.315574 0)
(0.209916 -0.35387 0)
(0.218181 -0.406272 0)
(0.238566 -0.455327 0)
(0.273039 -0.430559 0)
(0.304936 -0.352433 0)
(0.332189 -0.284163 0)
(0.336651 -0.222529 0)
(0.343779 -0.170391 0)
(0.325873 -0.0853936 0)
(0.259558 -0.00450623 0)
(0.193391 0.000859776 0)
(0.136269 -0.020122 0)
(0.041069 -0.0410043 0)
(-0.0504825 -0.0981101 0)
(-0.0927668 -0.213027 0)
(-0.178044 -0.267505 0)
(-0.311315 -0.249454 0)
(-0.362647 -0.215925 0)
(-0.411004 -0.27492 0)
(-0.214802 0.584852 0)
(-0.162862 0.431829 0)
(0.113903 0.00483003 0)
(0.275104 -0.231401 0)
(0.313978 -0.267718 0)
(0.310352 -0.268766 0)
(0.310963 -0.267832 0)
(0.331727 -0.259002 0)
(0.367568 -0.229022 0)
(0.407896 -0.18035 0)
(0.433922 -0.0708525 0)
(0.446184 0.1152 0)
(0.362519 0.229108 0)
(0.263528 0.256776 0)
(0.161528 0.214928 0)
(0.0870384 0.190052 0)
(0.0303609 0.15034 0)
(-0.0401193 0.0551314 0)
(-0.254822 -0.0159201 0)
(-0.596646 0.0618888 0)
(-0.792223 -0.0780748 0)
(-0.880132 -0.351632 0)
(-0.875262 -0.436224 0)
(-0.188076 0.531569 0)
(-0.129492 0.424541 0)
(0.211787 0.0521011 0)
(0.298968 -0.120599 0)
(0.281424 -0.145312 0)
(0.268605 -0.168518 0)
(0.272545 -0.214826 0)
(0.260159 -0.264023 0)
(0.251365 -0.310508 0)
(0.216069 -0.303545 0)
(0.221021 -0.224165 0)
(0.259961 -0.0260029 0)
(0.227372 0.239095 0)
(0.129111 0.340203 0)
(0.0357873 0.260924 0)
(-0.0426358 0.152579 0)
(-0.166212 0.0999958 0)
(-0.459764 0.156632 0)
(-0.873566 0.218273 0)
(-1.07632 0.0448759 0)
(-1.13448 -0.223816 0)
(-1.16619 -0.326039 0)
(-1.16268 -0.384028 0)
(-0.116264 0.407219 0)
(0.0328887 0.231372 0)
(0.201104 -0.0257055 0)
(0.180321 -0.0832166 0)
(0.171381 -0.130422 0)
(0.138716 -0.184098 0)
(0.0590519 -0.246911 0)
(-0.124525 -0.254291 0)
(-0.369912 -0.203888 0)
(-0.466473 -0.190407 0)
(-0.464166 -0.104516 0)
(-0.299365 0.0843994 0)
(-0.158084 0.205685 0)
(-0.187681 0.25607 0)
(-0.334151 0.265738 0)
(-0.645571 0.343854 0)
(-1.00327 0.43408 0)
(-1.24419 0.453388 0)
(-1.33954 0.361777 0)
(-1.36667 0.130583 0)
(-1.40883 -0.16995 0)
(-1.38948 -0.393526 0)
(-1.30782 -0.479986 0)
(0.0334171 0.0182423 0)
(0.0797845 0.0704961 0)
(0.0281337 -0.0267724 0)
(0.022494 -0.0773839 0)
(0.00414524 -0.0861317 0)
(-0.0984631 -0.100749 0)
(-0.425494 -0.0192423 0)
(-0.576674 -0.00509379 0)
(-0.693785 -0.187672 0)
(-0.850254 -0.256531 0)
(-1.04593 -0.1369 0)
(-0.986587 0.142324 0)
(-0.883283 0.353076 0)
(-0.968595 0.474479 0)
(-1.12608 0.546443 0)
(-1.23179 0.601009 0)
(-1.34943 0.608404 0)
(-1.43141 0.537018 0)
(-1.41855 0.343923 0)
(-1.54924 0.0113662 0)
(-1.65197 -0.241944 0)
(-1.54568 -0.414189 0)
(-1.4394 -0.485555 0)
(-0.0154187 -0.0195609 0)
(0.00308141 0.0808463 0)
(-0.00771288 0.00853721 0)
(-0.0392054 -0.0667021 0)
(-0.200821 -0.0281366 0)
(-0.461089 0.110741 0)
(-0.583307 0.0717873 0)
(-0.619906 0.0147263 0)
(-0.680545 0.00721999 0)
(-1.11532 0.00860265 0)
(-1.32191 0.0399503 0)
(-1.2512 0.171425 0)
(-1.19665 0.408502 0)
(-1.2949 0.530614 0)
(-1.34629 0.581896 0)
(-1.34597 0.628036 0)
(-1.36988 0.627912 0)
(-1.41589 0.493887 0)
(-1.47041 0.123102 0)
(-1.61956 -0.30652 0)
(-1.54175 -0.517696 0)
(-1.49367 -0.627904 0)
(-1.45941 -0.624148 0)
(-0.0171835 0.0129242 0)
(-0.00732341 0.0799971 0)
(-0.0727494 0.0260854 0)
(-0.295881 0.0903815 0)
(-0.581562 0.268306 0)
(-0.643116 0.258741 0)
(-0.609491 0.114311 0)
(-0.541221 0.0672358 0)
(-0.703475 -0.0282675 0)
(-1.51414 -0.00957685 0)
(-1.79221 0.144803 0)
(-1.46689 0.189547 0)
(-1.28111 0.284419 0)
(-1.30018 0.487712 0)
(-1.32098 0.554704 0)
(-1.31305 0.585623 0)
(-1.32535 0.573595 0)
(-1.41114 0.324915 0)
(-1.63469 -0.00760778 0)
(-1.4758 0.199214 0)
(-1.40073 0.323298 0)
(-1.23376 0.61178 0)
(-1.38741 -0.30339 0)
(0.00119967 -0.0252142 0)
(-0.0111483 0.119203 0)
(-0.207308 0.215099 0)
(-0.517286 0.398012 0)
(-0.660454 0.363088 0)
(-0.686666 0.11391 0)
(-0.779174 -0.207573 0)
(-0.746605 -0.182703 0)
(-0.745977 0.00555427 0)
(-1.5636 0.534057 0)
(-2.16253 0.31478 0)
(-2.02696 0.228899 0)
(-1.48882 0.28031 0)
(-1.28565 0.346033 0)
(-1.23259 0.42775 0)
(-1.19715 0.442146 0)
(-1.19352 0.439994 0)
(-1.27396 0.419157 0)
(-1.48483 0.557831 0)
(-1.55182 -0.117157 0)
(-1.45558 -0.520552 0)
(-1.37375 -0.642858 0)
(-1.26143 -0.633996 0)
(-0.0870097 0.00204959 0)
(-0.177964 0.330863 0)
(-0.433606 0.525384 0)
(-0.608993 0.493522 0)
(-0.674589 0.294138 0)
(-0.781871 -0.125007 0)
(-0.728542 -0.070724 0)
(-0.897495 0.260855 0)
(-1.01996 0.651116 0)
(-0.938537 1.19947 0)
(-1.09724 0.874767 0)
(-1.95824 0.282055 0)
(-1.80132 0.27935 0)
(-1.41199 0.339698 0)
(-1.24771 0.382049 0)
(-1.14231 0.373605 0)
(-1.08647 0.518948 0)
(-1.14558 1.01243 0)
(-1.31819 0.878172 0)
(-1.40296 0.589473 0)
(-1.61019 0.553697 0)
(-1.92787 0.177258 0)
(-1.87612 -0.415147 0)
(-0.294181 0.270411 0)
(-0.388064 0.554366 0)
(-0.568026 0.572579 0)
(-0.655109 0.443141 0)
(-0.755973 0.128749 0)
(-0.741155 0.221831 0)
(-1.05593 0.211015 0)
(-0.965911 0.304042 0)
(-0.916329 0.420556 0)
(-0.699298 0.812079 0)
(-0.668049 0.823032 0)
(-0.836042 0.486608 0)
(-1.33072 0.346204 0)
(-1.32822 0.340014 0)
(-1.21318 0.41249 0)
(-1.13889 0.517621 0)
(-1.12519 0.880557 0)
(-1.12834 1.05886 0)
(-1.16804 0.909873 0)
(-1.21059 0.535412 0)
(-1.37978 0.282425 0)
(-1.42246 -0.035084 0)
(-1.3328 -0.371297 0)
(-0.37565 0.543412 0)
(-0.469343 0.600719 0)
(-0.673762 0.468719 0)
(-0.722097 0.299139 0)
(-0.830207 0.448047 0)
(-1.07461 0.569533 0)
(-1.0775 0.467908 0)
(-0.983756 0.4425 0)
(-0.907461 0.483345 0)
(-0.691403 0.706601 0)
(-0.622382 0.758175 0)
(-0.671345 0.56583 0)
(-0.875749 0.400374 0)
(-0.968591 0.400214 0)
(-1.01983 0.468452 0)
(-1.02016 0.654274 0)
(-0.997916 0.91224 0)
(-0.945832 0.979387 0)
(-0.842557 0.901944 0)
(-0.807733 0.665885 0)
(-0.872074 0.394038 0)
(-0.865053 0.023166 0)
(-0.720895 -0.519111 0)
(-0.386687 0.831917 0)
(-0.470491 0.580956 0)
(-0.756341 0.433719 0)
(-0.703295 0.673727 0)
(-0.95196 0.886894 0)
(-1.00522 0.467547 0)
(-0.86342 0.264678 0)
(-0.810645 0.195646 0)
(-0.739278 0.234078 0)
(-0.633635 0.539095 0)
(-0.552124 0.734267 0)
(-0.560679 0.728031 0)
(-0.781627 0.515052 0)
(-0.889041 0.438713 0)
(-0.941105 0.473855 0)
(-0.922292 0.604267 0)
(-0.79956 0.806842 0)
(-0.64575 0.904742 0)
(-0.499564 0.844529 0)
(-0.359956 0.647715 0)
(-0.298701 0.380341 0)
(-0.225389 -0.0367887 0)
(-0.105956 -0.483304 0)
(-0.645456 0.99342 0)
(-0.447937 0.604314 0)
(-0.662157 0.934276 0)
(-0.796197 1.05109 0)
(-0.769688 0.90407 0)
(-0.510993 0.523484 0)
(-0.428777 0.390307 0)
(-0.49089 0.330657 0)
(-0.600019 0.3352 0)
(-0.557682 0.423603 0)
(-0.425505 0.614921 0)
(-0.285733 0.73213 0)
(-0.298506 0.783516 0)
(-0.497495 0.638035 0)
(-0.666787 0.524981 0)
(-0.687109 0.51833 0)
(-0.591583 0.572294 0)
(-0.414843 0.594141 0)
(-0.211027 0.550705 0)
(0.00724668 0.415816 0)
(0.180706 0.215012 0)
(0.368268 -0.104044 0)
(0.453989 -0.55193 0)
(-1.16945 1.28008 0)
(-0.340157 1.11509 0)
(-1.06688 1.1599 0)
(-0.553729 0.936091 0)
(-0.354482 0.616689 0)
(-0.0987104 0.363889 0)
(-0.10509 0.313963 0)
(-0.102859 0.342384 0)
(-0.188102 0.380947 0)
(-0.282558 0.405099 0)
(-0.275234 0.455396 0)
(-0.139601 0.567744 0)
(0.0216627 0.730599 0)
(0.120547 0.797539 0)
(0.087142 0.744007 0)
(0.0483399 0.65733 0)
(0.0216304 0.574931 0)
(0.124338 0.479291 0)
(0.278102 0.35671 0)
(0.436509 0.252351 0)
(0.589225 -0.00374211 0)
(0.711664 -0.268465 0)
(0.79908 -0.594953 0)
(-1.97377 2.00077 0)
(-0.0196738 1.49279 0)
(-0.948952 0.957985 0)
(-0.151002 0.674412 0)
(-0.133234 0.421817 0)
(0.0407624 0.275539 0)
(0.0357489 0.29851 0)
(0.0747294 0.360029 0)
(0.0801913 0.441526 0)
(0.0564273 0.474087 0)
(0.00160808 0.490243 0)
(0.0200736 0.486079 0)
(0.113383 0.536312 0)
(0.259824 0.594365 0)
(0.384842 0.624685 0)
(0.477886 0.601997 0)
(0.540607 0.549831 0)
(0.622647 0.428102 0)
(0.675432 0.276518 0)
(0.775152 0.121345 0)
(0.847675 -0.105897 0)
(0.917977 -0.304851 0)
(0.912872 -0.548387 0)
(-2.23112 2.95855 0)
(0.370415 1.36953 0)
(-0.464481 0.828263 0)
(0.109879 0.453435 0)
(0.00627592 0.332437 0)
(0.100821 0.240354 0)
(0.109775 0.270474 0)
(0.151308 0.324435 0)
(0.199973 0.420462 0)
(0.246668 0.495555 0)
(0.221436 0.526998 0)
(0.229672 0.504163 0)
(0.255827 0.477737 0)
(0.324161 0.456553 0)
(0.426786 0.468755 0)
(0.560552 0.433282 0)
(0.662298 0.431485 0)
(0.785941 0.335082 0)
(0.832007 0.212066 0)
(0.885829 0.058063 0)
(0.890357 -0.173041 0)
(0.925815 -0.336911 0)
(0.911717 -0.52603 0)
(-0.681207 2.96523 0)
(0.466077 1.32548 0)
(-0.0611646 0.833531 0)
(0.205776 0.400112 0)
(0.134317 0.300809 0)
(0.159447 0.23317 0)
(0.173427 0.245205 0)
(0.198945 0.282401 0)
(0.250302 0.360454 0)
(0.317105 0.453451 0)
(0.345279 0.511258 0)
(0.368763 0.502852 0)
(0.386252 0.465806 0)
(0.430314 0.413213 0)
(0.48371 0.391969 0)
(0.58655 0.342562 0)
(0.653619 0.300037 0)
(0.75714 0.249392 0)
(0.829985 0.153466 0)
(0.869508 0.0199189 0)
(0.834269 -0.170622 0)
(0.854559 -0.341431 0)
(0.787345 -0.487738 0)
(-0.00978737 2.54988 0)
(0.521014 1.30189 0)
(0.223906 0.805148 0)
(0.275775 0.448172 0)
(0.232022 0.295537 0)
(0.228113 0.23102 0)
(0.231928 0.228962 0)
(0.244979 0.253551 0)
(0.27028 0.303517 0)
(0.330185 0.398241 0)
(0.384332 0.467441 0)
(0.430104 0.471153 0)
(0.453634 0.433012 0)
(0.498745 0.375277 0)
(0.526526 0.330287 0)
(0.598626 0.289049 0)
(0.623169 0.22955 0)
(0.682012 0.161551 0)
(0.751004 0.0908936 0)
(0.761882 0.00183005 0)
(0.767481 -0.156196 0)
(0.748088 -0.290141 0)
(0.660276 -0.391148 0)
(0.187409 2.09911 0)
(0.500226 1.32629 0)
(0.339115 0.831097 0)
(0.339127 0.498739 0)
(0.314139 0.306934 0)
(0.294979 0.235203 0)
(0.285736 0.225983 0)
(0.284687 0.242731 0)
(0.290011 0.276971 0)
(0.314931 0.334466 0)
(0.37533 0.410466 0)
(0.435049 0.431654 0)
(0.472294 0.392455 0)
(0.513574 0.339016 0)
(0.535298 0.289236 0)
(0.57309 0.254605 0)
(0.593547 0.195779 0)
(0.62494 0.12227 0)
(0.65466 0.0728302 0)
(0.673716 -0.02009 0)
(0.675337 -0.138343 0)
(0.651868 -0.235395 0)
(0.588817 -0.313817 0)
(0.186523 1.73627 0)
(0.404261 1.31935 0)
(0.383015 0.85727 0)
(0.408202 0.522331 0)
(0.383423 0.325839 0)
(0.353913 0.252779 0)
(0.332861 0.238997 0)
(0.315796 0.249389 0)
(0.308672 0.2731 0)
(0.316268 0.303927 0)
(0.35239 0.350182 0)
(0.408186 0.367253 0)
(0.457775 0.346969 0)
(0.493659 0.308748 0)
(0.51513 0.266526 0)
(0.536062 0.231214 0)
(0.563604 0.17364 0)
(0.577778 0.112207 0)
(0.598849 0.0540757 0)
(0.613627 -0.0311597 0)
(0.605534 -0.114872 0)
(0.57853 -0.195533 0)
(0.532491 -0.261736 0)
(0.180458 1.43185 0)
(0.344752 1.21511 0)
(0.425831 0.835215 0)
(0.456304 0.527181 0)
(0.427122 0.35253 0)
(0.391737 0.282245 0)
(0.360186 0.26314 0)
(0.334982 0.265112 0)
(0.322877 0.277626 0)
(0.324803 0.290379 0)
(0.341715 0.309915 0)
(0.38329 0.317267 0)
(0.424387 0.306358 0)
(0.45449 0.277136 0)
(0.479249 0.244215 0)
(0.498613 0.205891 0)
(0.524858 0.153102 0)
(0.536001 0.0978841 0)
(0.551533 0.0397453 0)
(0.553749 -0.0309692 0)
(0.542613 -0.0940548 0)
(0.518057 -0.159692 0)
(0.48178 -0.216386 0)
(0.17823 1.16826 0)
(0.305593 1.05658 0)
(0.430905 0.775512 0)
(0.461314 0.528792 0)
(0.434648 0.379982 0)
(0.397108 0.31688 0)
(0.364772 0.292281 0)
(0.339727 0.284502 0)
(0.327378 0.283854 0)
(0.327627 0.283752 0)
(0.336875 0.287595 0)
(0.362265 0.28511 0)
(0.390863 0.272678 0)
(0.416521 0.248553 0)
(0.440593 0.220061 0)
(0.460023 0.181744 0)
(0.481123 0.133372 0)
(0.48944 0.0846453 0)
(0.501208 0.0340432 0)
(0.495949 -0.0238065 0)
(0.486191 -0.0761246 0)
(0.465016 -0.131387 0)
(0.434761 -0.176083 0)
(0.151358 0.950399 0)
(0.253385 0.902355 0)
(0.378855 0.70904 0)
(0.425671 0.524041 0)
(0.401376 0.405581 0)
(0.373116 0.350084 0)
(0.349091 0.318553 0)
(0.330371 0.300576 0)
(0.322564 0.289439 0)
(0.321348 0.280692 0)
(0.327832 0.273729 0)
(0.343636 0.263111 0)
(0.363426 0.248418 0)
(0.383797 0.22548 0)
(0.404968 0.198364 0)
(0.422431 0.162351 0)
(0.438268 0.121342 0)
(0.444205 0.0779727 0)
(0.451689 0.0322921 0)
(0.44395 -0.014435 0)
(0.43683 -0.0606082 0)
(0.418829 -0.10758 0)
(0.396056 -0.145923 0)
(0.0996668 0.78477 0)
(0.199847 0.775687 0)
(0.307558 0.639196 0)
(0.347301 0.50826 0)
(0.344684 0.423257 0)
(0.334096 0.37092 0)
(0.321857 0.334961 0)
(0.312309 0.310575 0)
(0.308322 0.292481 0)
(0.309479 0.277562 0)
(0.31555 0.264014 0)
(0.326646 0.248691 0)
(0.340966 0.230504 0)
(0.356365 0.206516 0)
(0.372562 0.180516 0)
(0.385804 0.14757 0)
(0.397461 0.111583 0)
(0.402873 0.0724407 0)
(0.40736 0.0339961 0)
(0.401542 -0.00770704 0)
(0.395861 -0.0500462 0)
(0.379417 -0.0878948 0)
(0.36146 -0.120352 0)
(0.064395 0.666117 0)
(0.148595 0.669764 0)
(0.24 0.576593 0)
(0.277962 0.48881 0)
(0.289673 0.423777 0)
(0.291994 0.376976 0)
(0.29016 0.341074 0)
(0.288517 0.313944 0)
(0.289036 0.291842 0)
(0.292402 0.272892 0)
(0.298844 0.25537 0)
(0.307749 0.23727 0)
(0.319475 0.216832 0)
(0.331461 0.193515 0)
(0.343642 0.167262 0)
(0.354426 0.137285 0)
(0.362656 0.104527 0)
(0.36641 0.069231 0)
(0.368282 0.0343654 0)
(0.363637 -0.00169402 0)
(0.35728 -0.0381202 0)
(0.344366 -0.0725996 0)
(0.329876 -0.102652 0)
(0.0448371 0.580829 0)
(0.111244 0.583069 0)
(0.185757 0.521863 0)
(0.221844 0.462991 0)
(0.241804 0.413082 0)
(0.252716 0.372812 0)
(0.258564 0.339298 0)
(0.262854 0.311842 0)
(0.267153 0.288208 0)
(0.27259 0.266777 0)
(0.279615 0.247262 0)
(0.287968 0.227163 0)
(0.297411 0.205832 0)
(0.306857 0.182475 0)
(0.316221 0.157207 0)
(0.323842 0.129011 0)
(0.329935 0.0989844 0)
(0.332565 0.0673425 0)
(0.333675 0.0357004 0)
(0.330261 0.00298251 0)
(0.324401 -0.0296363 0)
(0.313523 -0.0594844 0)
(0.301394 -0.0875426 0)
(0.0342355 0.516003 0)
(0.0855905 0.515299 0)
(0.1451 0.474631 0)
(0.178798 0.434083 0)
(0.202266 0.395913 0)
(0.217928 0.362125 0)
(0.228672 0.332063 0)
(0.236851 0.30587 0)
(0.244067 0.282166 0)
(0.251123 0.260195 0)
(0.258542 0.239651 0)
(0.266612 0.21892 0)
(0.274707 0.197102 0)
(0.282763 0.174024 0)
(0.290192 0.149484 0)
(0.296337 0.123136 0)
(0.301204 0.0955017 0)
(0.302691 0.0663767 0)
(0.302787 0.0375583 0)
(0.299256 0.00815064 0)
(0.293866 -0.0213042 0)
(0.285007 -0.0492412 0)
(0.27519 -0.0754615 0)
(0.0275377 0.464399 0)
(0.0677606 0.462213 0)
(0.115679 0.434008 0)
(0.146436 0.405113 0)
(0.170516 0.375656 0)
(0.188327 0.34758 0)
(0.201753 0.321158 0)
(0.212277 0.296862 0)
(0.221342 0.273976 0)
(0.229384 0.252285 0)
(0.237138 0.231454 0)
(0.244874 0.210653 0)
(0.252147 0.189022 0)
(0.259053 0.166565 0)
(0.265179 0.142932 0)
(0.269935 0.118193 0)
(0.273391 0.0923903 0)
(0.274423 0.0656136 0)
(0.274156 0.0387042 0)
(0.271294 0.0117853 0)
(0.266743 -0.0148125 0)
(0.259121 -0.0402704 0)
(0.250642 -0.0649617 0)
(0.0222236 0.422547 0)
(0.0553507 0.41996 0)
(0.0942021 0.399639 0)
(0.121838 0.378254 0)
(0.144918 0.355149 0)
(0.163176 0.331831 0)
(0.177691 0.308837 0)
(0.189447 0.286687 0)
(0.19948 0.265216 0)
(0.208138 0.244341 0)
(0.216084 0.22394 0)
(0.223509 0.203551 0)
(0.23025 0.182546 0)
(0.236383 0.160746 0)
(0.241557 0.138215 0)
(0.245341 0.114762 0)
(0.248057 0.0906787 0)
(0.248808 0.0658393 0)
(0.248213 0.0409363 0)
(0.245392 0.0158783 0)
(0.241202 -0.00893784 0)
(0.234661 -0.0328264 0)
(0.22746 -0.0559827 0)
(0.0182364 0.387839 0)
(0.0459889 0.385186 0)
(0.0781081 0.369847 0)
(0.102664 0.35336 0)
(0.124004 0.334854 0)
(0.141709 0.315312 0)
(0.156338 0.295324 0)
(0.16854 0.275367 0)
(0.178898 0.255533 0)
(0.187812 0.235813 0)
(0.195683 0.216172 0)
(0.202819 0.196473 0)
(0.209113 0.176281 0)
(0.214554 0.155417 0)
(0.218993 0.134018 0)
(0.222234 0.111845 0)
(0.224358 0.0890756 0)
(0.224882 0.0657479 0)
(0.224097 0.0423851 0)
(0.221546 0.0190729 0)
(0.21772 -0.00386944 0)
(0.21192 -0.0262357 0)
(0.205519 -0.0481033 0)
(0.0151484 0.358844 0)
(0.0387165 0.35643 0)
(0.0656951 0.344461 0)
(0.0873944 0.33137 0)
(0.106753 0.316242 0)
(0.123366 0.299706 0)
(0.137481 0.282222 0)
(0.149506 0.26425 0)
(0.15979 0.245969 0)
(0.168658 0.227504 0)
(0.176308 0.208815 0)
(0.183054 0.18995 0)
(0.188831 0.170603 0)
(0.193651 0.150629 0)
(0.197508 0.130234 0)
(0.200282 0.109322 0)
(0.201917 0.0878764 0)
(0.202332 0.0660938 0)
(0.20142 0.0442479 0)
(0.199042 0.0223756 0)
(0.195456 0.000741915 0)
(0.190338 -0.0204363 0)
(0.184666 -0.0411532 0)
(0.0127125 0.334253 0)
(0.032867 0.331994 0)
(0.0557722 0.322166 0)
(0.0748633 0.311472 0)
(0.0922321 0.298879 0)
(0.107508 0.284693 0)
(0.120772 0.269363 0)
(0.132226 0.253264 0)
(0.14209 0.236572 0)
(0.150618 0.219418 0)
(0.157909 0.201857 0)
(0.164199 0.183933 0)
(0.169546 0.16555 0)
(0.173923 0.146652 0)
(0.177337 0.127362 0)
(0.179722 0.107498 0)
(0.180981 0.0870857 0)
(0.181053 0.0664088 0)
(0.179949 0.0457897 0)
(0.17774 0.0252143 0)
(0.174472 0.00483363 0)
(0.169948 -0.0152092 0)
(0.164776 -0.0348975 0)
(0.0106957 0.313373 0)
(0.0280854 0.31131 0)
(0.0476319 0.303152 0)
(0.0643851 0.294238 0)
(0.0798443 0.283522 0)
(0.0936734 0.271199 0)
(0.105859 0.25759 0)
(0.116503 0.243009 0)
(0.125739 0.227662 0)
(0.133718 0.2117 0)
(0.140555 0.195219 0)
(0.146378 0.178286 0)
(0.151267 0.160921 0)
(0.15518 0.142979 0)
(0.158142 0.124607 0)
(0.16014 0.105832 0)
(0.161127 0.0867052 0)
(0.161124 0.0672614 0)
(0.159989 0.0476236 0)
(0.157776 0.0279685 0)
(0.154624 0.00856473 0)
(0.1505 -0.0105291 0)
(0.145702 -0.029295 0)
(0.00905683 0.295584 0)
(0.0240639 0.293474 0)
(0.0408939 0.286297 0)
(0.0555436 0.278658 0)
(0.0691882 0.269392 0)
(0.0815384 0.258575 0)
(0.0925194 0.246453 0)
(0.102202 0.23328 0)
(0.110608 0.219309 0)
(0.117864 0.204594 0)
(0.124073 0.189196 0)
(0.129274 0.1732 0)
(0.133508 0.156625 0)
(0.136901 0.139553 0)
(0.139471 0.122105 0)
(0.141154 0.104286 0)
(0.14194 0.0860266 0)
(0.141747 0.0676249 0)
(0.140658 0.0492889 0)
(0.138736 0.0308208 0)
(0.135792 0.0122853 0)
(0.131985 -0.00609914 0)
(0.12748 -0.0241573 0)
(0.00767822 0.280252 0)
(0.0206946 0.278367 0)
(0.0349967 0.272201 0)
(0.047739 0.265647 0)
(0.0596753 0.257547 0)
(0.0706104 0.247929 0)
(0.0804411 0.237057 0)
(0.0891542 0.225098 0)
(0.0968319 0.212131 0)
(0.103475 0.198367 0)
(0.109139 0.183918 0)
(0.113874 0.168892 0)
(0.117741 0.15331 0)
(0.120704 0.137164 0)
(0.122732 0.120527 0)
(0.123874 0.103439 0)
(0.124098 0.0860573 0)
(0.123536 0.0684394 0)
(0.122221 0.0505738 0)
(0.120076 0.0328472 0)
(0.117389 0.0153982 0)
(0.114023 -0.00201394 0)
(0.109861 -0.0193871 0)
(0.00641736 0.267265 0)
(0.0176692 0.264985 0)
(0.0300631 0.259196 0)
(0.0411598 0.253313 0)
(0.0515733 0.24607 0)
(0.0611752 0.237472 0)
(0.0698468 0.227658 0)
(0.0775949 0.216772 0)
(0.0843385 0.204955 0)
(0.090167 0.192314 0)
(0.0950857 0.178918 0)
(0.0990948 0.164816 0)
(0.102323 0.15009 0)
(0.104754 0.134832 0)
(0.106435 0.119117 0)
(0.107362 0.103052 0)
(0.107597 0.0866603 0)
(0.106978 0.0698625 0)
(0.105389 0.0529172 0)
(0.10315 0.0357598 0)
(0.100099 0.0184519 0)
(0.0965862 0.00151875 0)
(0.0926681 -0.0151072 0)
(0.00552582 0.256207 0)
(0.015165 0.254273 0)
(0.0253915 0.249384 0)
(0.0346763 0.244376 0)
(0.0434196 0.237929 0)
(0.0515148 0.230062 0)
(0.0589567 0.220961 0)
(0.0656997 0.210777 0)
(0.0717743 0.199633 0)
(0.0770887 0.187663 0)
(0.0816116 0.174948 0)
(0.0853312 0.161576 0)
(0.0882037 0.147566 0)
(0.0902488 0.132997 0)
(0.091529 0.117957 0)
(0.0920008 0.102483 0)
(0.0917261 0.0866134 0)
(0.0907505 0.0705985 0)
(0.0892377 0.0544868 0)
(0.0870916 0.038218 0)
(0.0841938 0.021951 0)
(0.0806204 0.00537323 0)
(0.0764464 -0.0111558 0)
(0.00470078 0.246541 0)
(0.0129025 0.244216 0)
(0.0216675 0.239158 0)
(0.0298964 0.234375 0)
(0.0376073 0.228399 0)
(0.0447837 0.221203 0)
(0.0513606 0.212883 0)
(0.05729 0.20357 0)
(0.0625739 0.193374 0)
(0.0671672 0.182416 0)
(0.071058 0.170786 0)
(0.0742103 0.158471 0)
(0.0765946 0.145495 0)
(0.0781998 0.131917 0)
(0.0790413 0.117848 0)
(0.0790942 0.103283 0)
(0.0783929 0.0883331 0)
(0.0770043 0.0730445 0)
(0.0749067 0.0573778 0)
(0.0721804 0.0415467 0)
(0.069033 0.0256019 0)
(0.065505 0.00972068 0)
(0.0613111 -0.00610174 0)
(0.00394418 0.238536 0)
(0.0107513 0.236976 0)
(0.0171563 0.232945 0)
(0.0231051 0.228859 0)
(0.0286409 0.223435 0)
(0.0338765 0.21673 0)
(0.0385808 0.208811 0)
(0.042812 0.199852 0)
(0.0465096 0.190012 0)
(0.0497239 0.179371 0)
(0.0524492 0.168027 0)
(0.0546974 0.156054 0)
(0.0564666 0.143498 0)
(0.0577126 0.130434 0)
(0.0584755 0.116866 0)
(0.0587714 0.102878 0)
(0.0585331 0.0884725 0)
(0.0577705 0.0737196 0)
(0.0564556 0.0586959 0)
(0.0545962 0.0435314 0)
(0.0521386 0.0282127 0)
(0.0491304 0.0127173 0)
(0.045262 -0.00282271 0)
(0.00361393 0.23168 0)
(0.00886906 0.229992 0)
(0.0138457 0.225981 0)
(0.0185439 0.222032 0)
(0.022717 0.216892 0)
(0.0267457 0.210724 0)
(0.0303014 0.203441 0)