/*--------------------------------*- C++ -*----------------------------------*\
| =========                 |                                                 |
| \\      /  F ield         | OpenFOAM: The Open Source CFD Toolbox           |
|  \\    /   O peration     | Version:  2.4.0                                 |
|   \\  /    A nd           | Web:      www.OpenFOAM.org                      |
|    \\/     M anipulation  |                                                 |
\*---------------------------------------------------------------------------*/
FoamFile
{
    version     2.0;
    format      ascii;
    class       volVectorField;
    location    "1";
    object      U.oil;
}
// * * * * * * * * * * * * * * * * * * * * * * * * * * * * * * * * * * * * * //

dimensions      [0 1 -1 0 0 0 0];

internalField   nonuniform List<vector> 
2268
(
(-0.0267778 -0.0155352 0)
(-0.0761312 -0.0132975 0)
(-0.123409 -0.00181618 0)
(-0.149591 0.00775174 0)
(-0.165516 0.0133546 0)
(-0.174423 0.0125297 0)
(-0.175254 0.007084 0)
(-0.172988 0.00596468 0)
(-0.175283 0.00454951 0)
(-0.179331 0.00236375 0)
(-0.179076 0.000127609 0)
(-0.168128 -0.000641854 0)
(-0.152371 0.00200671 0)
(-0.140871 0.00262746 0)
(-0.131591 0.00253449 0)
(-0.125015 0.000504703 0)
(-0.114521 -0.00315855 0)
(-0.0987856 -0.00521305 0)
(-0.0749309 -0.005279 0)
(-0.0458181 -0.00344097 0)
(-0.0304579 0.00564166 0)
(-0.0260456 0.0112906 0)
(-0.0182677 0.00345597 0)
(-0.0253177 0.0521878 0)
(-0.0771356 0.0525579 0)
(-0.119112 0.0350892 0)
(-0.152544 0.013491 0)
(-0.169949 -0.00341251 0)
(-0.180878 -0.00843533 0)
(-0.179831 -0.00810661 0)
(-0.174648 -0.00534084 0)
(-0.17478 9.31655e-05 0)
(-0.175679 0.00101863 0)
(-0.171399 -0.00626515 0)
(-0.162557 -0.0144233 0)
(-0.15253 -0.017611 0)
(-0.142703 -0.0146138 0)
(-0.134497 -0.0116042 0)
(-0.125119 -0.0100377 0)
(-0.11086 -0.0103514 0)
(-0.0934332 -0.0140661 0)
(-0.0688646 -0.0183237 0)
(-0.0437857 -0.0149633 0)
(-0.0231968 -0.00587573 0)
(-0.00267982 -0.00348379 0)
(0.000647243 -0.00460731 0)
(-0.029223 0.0500991 0)
(-0.0752784 0.0467882 0)
(-0.113062 0.0410849 0)
(-0.148814 0.0377716 0)
(-0.172868 0.0341958 0)
(-0.182928 0.0204799 0)
(-0.180412 0.00314352 0)
(-0.175249 0.00187121 0)
(-0.175101 0.00174625 0)
(-0.175867 -0.00140055 0)
(-0.173392 -0.00305233 0)
(-0.16716 -0.00337552 0)
(-0.159051 -0.000182551 0)
(-0.146224 0.00130136 0)
(-0.131532 0.00029064 0)
(-0.117877 -0.00571421 0)
(-0.0993141 -0.0132273 0)
(-0.0843332 -0.0221119 0)
(-0.0679482 -0.0279908 0)
(-0.0524048 -0.0248032 0)
(-0.034512 -0.0127511 0)
(-0.00138738 0.00059246 0)
(0.00524682 0.00140333 0)
(-0.0348924 0.0712371 0)
(-0.0880389 0.0782407 0)
(-0.13659 0.0698545 0)
(-0.175101 0.0399832 0)
(-0.194277 0.00320106 0)
(-0.197578 -0.0135715 0)
(-0.201109 -0.00966458 0)
(-0.195961 -0.000151289 0)
(-0.183212 0.0112939 0)
(-0.17412 0.0115957 0)
(-0.170644 -0.00495109 0)
(-0.168338 -0.0235516 0)
(-0.164075 -0.0341082 0)
(-0.153603 -0.0339336 0)
(-0.136287 -0.0294399 0)
(-0.117481 -0.0283916 0)
(-0.0984134 -0.0287821 0)
(-0.0839398 -0.0279952 0)
(-0.0692523 -0.0263664 0)
(-0.056779 -0.0246 0)
(-0.0393919 -0.0279749 0)
(-0.0116359 -0.0210534 0)
(-0.000319463 0.00938099 0)
(-0.024242 0.113368 0)
(-0.12489 0.100982 0)
(-0.194282 0.0759275 0)
(-0.231942 0.0701082 0)
(-0.243838 0.0695009 0)
(-0.225917 0.0398025 0)
(-0.218034 0.00663585 0)
(-0.220385 -0.00551435 0)
(-0.216937 -0.00214651 0)
(-0.211455 0.0122626 0)
(-0.208292 0.0321006 0)
(-0.199225 0.0556637 0)
(-0.183051 0.0681048 0)
(-0.162332 0.0660364 0)
(-0.137019 0.0590493 0)
(-0.115403 0.0482943 0)
(-0.0949839 0.0396399 0)
(-0.0770087 0.0277809 0)
(-0.0611762 0.0197941 0)
(-0.0493956 0.00896794 0)
(-0.0437964 0.000649112 0)
(-0.0180751 0.0102117 0)
(0.00228987 0.0202927 0)
(-0.0768747 0.159202 0)
(-0.210468 0.176177 0)
(-0.273906 0.137317 0)
(-0.263369 0.0748513 0)
(-0.257044 -0.0243747 0)
(-0.275364 -0.0712454 0)
(-0.274403 -0.0793112 0)
(-0.259303 -0.075475 0)
(-0.230053 -0.0651834 0)
(-0.184945 -0.047233 0)
(-0.165133 -0.0297105 0)
(-0.161315 -0.0207015 0)
(-0.176231 -0.0180637 0)
(-0.19116 -0.01121 0)
(-0.195799 0.00178834 0)
(-0.176378 0.017508 0)
(-0.142874 0.024837 0)
(-0.0989742 0.0195769 0)
(-0.0647897 0.0164039 0)
(-0.0438859 -0.000536614 0)
(-0.0725158 -0.00329201 0)
(-0.0873947 0.0958965 0)
(-0.101644 0.160658 0)
(-0.165035 0.224618 0)
(-0.293829 0.199761 0)
(-0.310884 0.0710229 0)
(-0.307831 -0.015548 0)
(-0.296498 -0.0171715 0)
(-0.298264 0.055549 0)
(-0.297792 0.15243 0)
(-0.237466 0.13948 0)
(-0.135703 0.107937 0)
(-0.0375172 0.108693 0)
(0.0206263 0.145805 0)
(0.0140151 0.175898 0)
(-0.03977 0.148072 0)
(-0.103647 0.091018 0)
(-0.17066 0.0580785 0)
(-0.192761 0.0646489 0)
(-0.198874 0.0772404 0)
(-0.189034 0.0896473 0)
(-0.183472 0.106736 0)
(-0.183252 0.169352 0)
(-0.180674 0.257746 0)
(-0.157107 0.370217 0)
(-0.237371 0.211787 0)
(-0.229287 0.335229 0)
(-0.285828 0.20013 0)
(-0.271507 0.0833285 0)
(-0.328039 0.128019 0)
(-0.535612 0.0216448 0)
(-0.353031 -0.184399 0)
(-0.200893 -0.220654 0)
(-0.0571346 -0.218675 0)
(0.0250351 -0.202338 0)
(0.0680106 -0.169264 0)
(0.0939165 -0.15466 0)
(0.129867 -0.146266 0)
(0.144319 -0.122814 0)
(0.106284 -0.0977291 0)
(0.0180581 -0.0776961 0)
(-0.0902387 -0.0795222 0)
(-0.15095 -0.0684661 0)
(-0.197688 -0.067288 0)
(-0.260274 -0.0654314 0)
(-0.329135 -0.115222 0)
(-0.300192 -0.219101 0)
(-0.174142 -0.287013 0)
(-0.254514 -0.310163 0)
(-0.00456985 -0.382563 0)
(0.13316 -0.420997 0)
(0.194832 -0.499078 0)
(0.23034 -0.528023 0)
(0.266396 -0.566563 0)
(0.272123 -0.621027 0)
(0.234995 -0.593126 0)
(0.195927 -0.452257 0)
(0.184764 -0.293209 0)
(0.20593 -0.175626 0)
(0.202264 -0.0728685 0)
(0.159115 0.000221493 0)
(0.126644 0.0171328 0)
(0.139342 0.068694 0)
(0.1584 0.116097 0)
(0.081626 0.144234 0)
(-0.0776749 0.150118 0)
(-0.117418 0.114051 0)
(-0.0739439 0.0947706 0)
(0.10585 0.50935 0)
(0.149206 0.509894 0)
(0.256943 0.638113 0)
(0.251944 0.672405 0)
(0.258488 0.726245 0)
(0.270663 0.87841 0)
(0.204721 0.938129 0)
(0.0822766 0.799162 0)
(-0.157472 0.551464 0)
(-0.18207 0.470935 0)
(-0.17843 0.408175 0)
(-0.163327 0.370844 0)
(-0.249552 0.320979 0)
(-0.243614 0.243469 0)
(-0.0568048 0.243404 0)
(-0.0682157 0.27634 0)
(-0.121452 0.265732 0)
(-0.118486 0.231603 0)
(-0.0579153 0.147352 0)
(0.0419563 -0.403874 0)
(-0.0773803 -0.446105 0)
(-0.0322856 -0.46704 0)
(0.039682 -0.482788 0)
(-0.000343999 -0.569893 0)
(-0.0607239 -0.546409 0)
(-0.117763 -0.519763 0)
(-0.132664 -0.213965 0)
(-0.497107 -0.0512772 0)
(-0.572807 -0.105794 0)
(-0.563192 -0.0666307 0)
(-0.499501 0.0599048 0)
(-0.460763 0.0922734 0)
(-0.414079 0.0226762 0)
(-0.270768 0.0451303 0)
(-0.100325 0.203809 0)
(-0.131261 0.207809 0)
(-0.0823657 0.108996 0)
(-0.0025138 0.0549837 0)
(0.147441 -0.144803 0)
(0.0951005 0.00596294 0)
(0.18851 0.187437 0)
(0.139863 0.310479 0)
(0.168142 0.461761 0)
(0.114931 0.568732 0)
(-0.0579523 0.636277 0)
(-0.134131 0.543205 0)
(-0.331295 0.413325 0)
(-0.45481 0.264232 0)
(-0.503856 0.207902 0)
(-0.522628 0.207783 0)
(-0.525024 0.194185 0)
(-0.507344 0.0943744 0)
(-0.417886 0.0685359 0)
(-0.209753 0.164586 0)
(-0.146781 0.208416 0)
(-0.066329 0.165176 0)
(0.0159872 0.0886002 0)
(0.109388 -0.156196 0)
(-0.0145535 -0.161026 0)
(-0.0126045 -0.200788 0)
(-0.0791203 -0.28027 0)
(-0.125169 -0.385249 0)
(-0.122954 -0.202413 0)
(-0.0798159 -0.0854855 0)
(0.025898 0.23693 0)
(-0.0404047 0.328397 0)
(-0.2006 0.125473 0)
(-0.210698 0.126311 0)
(-0.333289 0.277481 0)
(-0.484704 0.254034 0)
(-0.491998 -0.0455909 0)
(-0.490446 -0.0657078 0)
(-0.2968 0.127008 0)
(-0.131413 0.187733 0)
(-0.0200433 0.0838427 0)
(0.0655836 0.0364854 0)
(0.108153 -0.165645 0)
(0.0845898 -0.0778255 0)
(0.153985 0.0470769 0)
(0.119858 0.205357 0)
(-0.0178704 0.3392 0)
(-0.177998 0.281985 0)
(-0.213958 0.273312 0)
(-0.0500563 0.286073 0)
(0.100502 0.310996 0)
(-0.0132984 0.141954 0)
(-0.173698 -0.0226911 0)
(-0.215662 -0.0563956 0)
(-0.127706 -0.115596 0)
(-0.172792 -0.0312178 0)
(-0.356618 -0.0712768 0)
(-0.340859 -0.0197132 0)
(-0.14427 0.0707414 0)
(-0.0190227 0.00428842 0)
(0.0385148 0.00950001 0)
(0.102382 -0.19377 0)
(0.0170312 -0.0502548 0)
(0.0112154 -0.0818198 0)
(-0.127879 -0.127663 0)
(-0.151123 -0.0784303 0)
(-0.189655 0.0459887 0)
(-0.188401 0.0268503 0)
(-0.0528945 0.175466 0)
(0.127045 0.287132 0)
(0.143378 0.221754 0)
(-0.067495 0.149006 0)
(-0.158341 0.161062 0)
(-0.166632 0.103109 0)
(-0.117082 -0.109484 0)
(-0.235765 -0.0252351 0)
(-0.301732 0.0615406 0)
(-0.297791 0.0361952 0)
(-0.154433 0.0534003 0)
(-0.0708481 0.072164 0)
(0.135991 -0.21555 0)
(0.0249628 -0.0776333 0)
(0.0494118 0.0263964 0)
(-0.0611864 0.177081 0)
(-0.220633 0.201535 0)
(-0.242332 0.173801 0)
(-0.222732 0.133756 0)
(-0.134365 0.11905 0)
(0.0882333 0.236082 0)
(0.187152 0.249111 0)
(0.0881875 0.193387 0)
(-0.0945763 0.0824559 0)
(-0.117441 -0.0579646 0)
(-0.148524 -0.0668017 0)
(-0.278257 -0.0850412 0)
(-0.350593 -0.0554224 0)
(-0.357375 -0.0657929 0)
(-0.237283 -0.195804 0)
(-0.13009 -0.216921 0)
(-0.229788 0.533965 0)
(-0.191849 0.285861 0)
(-0.323983 0.100351 0)
(-0.192253 -0.0806978 0)
(-0.00797041 -0.132509 0)
(0.0943914 -0.0692307 0)
(0.116212 -0.0187926 0)
(0.166292 -0.0194658 0)
(0.224797 -0.010434 0)
(0.278868 0.0646698 0)
(0.299885 0.179063 0)
(0.26842 0.314772 0)
(0.197581 0.406676 0)
(0.088554 0.41102 0)
(-0.00244148 0.356939 0)
(-0.0720782 0.270458 0)
(-0.130214 0.185325 0)
(-0.157631 0.162501 0)
(-0.131835 0.173649 0)
(-0.0656481 0.22866 0)
(-0.12177 0.32116 0)
(-0.22497 0.313289 0)
(-0.367527 -0.20132 0)
(-0.206249 0.634083 0)
(-0.000468354 0.315693 0)
(0.00107292 0.0622398 0)
(0.19991 -0.0412807 0)
(0.213886 -0.0942298 0)
(0.230751 -0.148701 0)
(0.256781 -0.178777 0)
(0.296173 -0.184356 0)
(0.325348 -0.161561 0)
(0.357731 -0.11492 0)
(0.353597 -0.0776636 0)
(0.347723 -0.0460833 0)
(0.319447 0.0154367 0)
(0.248186 0.0766773 0)
(0.176245 0.0689942 0)
(0.110581 0.0413708 0)
(0.0146777 0.0166288 0)
(-0.0603102 -0.0352935 0)
(-0.0788401 -0.12752 0)
(-0.166116 -0.156736 0)
(-0.236769 -0.134196 0)
(-0.15355 -0.0739871 0)
(-0.14724 -0.0837761 0)
(-0.0950418 0.64222 0)
(0.17758 0.232235 0)
(0.287412 -0.00585545 0)
(0.300227 -0.102111 0)
(0.304113 -0.124769 0)
(0.30705 -0.138526 0)
(0.327453 -0.139894 0)
(0.350577 -0.128548 0)
(0.391684 -0.102863 0)
(0.437896 -0.0373999 0)
(0.460554 0.0965085 0)
(0.449697 0.281843 0)
(0.34385 0.387733 0)
(0.241688 0.396393 0)
(0.13499 0.33876 0)
(0.060713 0.30586 0)
(0.0145968 0.267604 0)
(-0.0468345 0.181792 0)
(-0.22899 0.171796 0)
(-0.474863 0.287862 0)
(-0.595497 0.266629 0)
(-0.666667 0.0100439 0)
(-0.626726 -0.140504 0)
(0.21052 0.311169 0)
(0.31629 0.120328 0)
(0.341377 0.00119025 0)
(0.311551 -0.050145 0)
(0.298594 -0.0700945 0)
(0.293037 -0.091756 0)
(0.27533 -0.139726 0)
(0.269579 -0.185714 0)
(0.302463 -0.220997 0)
(0.30047 -0.196941 0)
(0.304136 -0.0953847 0)
(0.277535 0.121665 0)
(0.198235 0.363032 0)
(0.0923443 0.443059 0)
(0.00742405 0.363524 0)
(-0.0690521 0.259281 0)
(-0.18041 0.234233 0)
(-0.397202 0.308621 0)
(-0.76703 0.424647 0)
(-0.943937 0.335351 0)
(-0.957245 0.101417 0)
(-0.964921 0.0114077 0)
(-0.99211 -0.0287471 0)
(0.120307 0.188761 0)
(0.208828 0.105091 0)
(0.220005 0.0120576 0)
(0.200515 -0.0358323 0)
(0.19545 -0.0764219 0)
(0.146557 -0.120695 0)
(0.0855588 -0.17833 0)
(-0.0356303 -0.184101 0)
(-0.219119 -0.124189 0)
(-0.303794 -0.107763 0)
(-0.308589 -0.0177263 0)
(-0.228752 0.197462 0)
(-0.177882 0.328275 0)
(-0.225651 0.382255 0)
(-0.338942 0.407178 0)
(-0.645643 0.484535 0)
(-1.03418 0.622224 0)
(-1.2347 0.680454 0)
(-1.31567 0.636481 0)
(-1.28789 0.463303 0)
(-1.30889 0.235677 0)
(-1.31158 0.0208491 0)
(-1.23787 -0.0834282 0)
(0.0444605 0.0449418 0)
(0.0883446 0.11335 0)
(0.044342 0.0197155 0)
(0.0445244 -0.0306989 0)
(0.0246487 -0.0366446 0)
(-0.0560286 -0.0445279 0)
(-0.354986 0.0706834 0)
(-0.490596 0.109929 0)
(-0.59986 -0.0864232 0)
(-0.718585 -0.189903 0)
(-0.940799 -0.117297 0)
(-0.968015 0.14247 0)
(-0.903177 0.426612 0)
(-1.0058 0.573036 0)
(-1.19184 0.681396 0)
(-1.30878 0.76024 0)
(-1.37956 0.775804 0)
(-1.41993 0.714002 0)
(-1.39515 0.544701 0)
(-1.47935 0.220221 0)
(-1.6449 -0.00578009 0)
(-1.62604 -0.151075 0)
(-1.48654 -0.203868 0)
(-0.0115458 0.00597453 0)
(0.0131586 0.115352 0)
(0.00950347 0.0470041 0)
(-0.0155013 -0.0254331 0)
(-0.172307 0.0192739 0)
(-0.417629 0.184153 0)
(-0.532632 0.170221 0)
(-0.569487 0.124038 0)
(-0.612935 0.0910358 0)
(-0.991575 0.0525644 0)
(-1.28313 0.0754551 0)
(-1.29053 0.184119 0)
(-1.25505 0.452494 0)
(-1.34914 0.592914 0)
(-1.39471 0.671212 0)
(-1.37066 0.742687 0)
(-1.36297 0.754465 0)
(-1.37172 0.621228 0)
(-1.42751 0.264991 0)
(-1.59113 -0.176579 0)
(-1.53574 -0.412549 0)
(-1.51045 -0.517194 0)
(-1.50196 -0.507482 0)
(-0.0138073 0.033124 0)
(0.00295029 0.110031 0)
(-0.0523296 0.0588719 0)
(-0.264159 0.123682 0)
(-0.542348 0.322273 0)
(-0.605446 0.337689 0)
(-0.559052 0.205346 0)
(-0.506489 0.134672 0)
(-0.671462 0.0171201 0)
(-1.44203 -0.0321543 0)
(-1.73355 0.146805 0)
(-1.45773 0.216698 0)
(-1.3276 0.34497 0)
(-1.35042 0.567892 0)
(-1.34499 0.648497 0)
(-1.30738 0.682708 0)
(-1.29079 0.635923 0)
(-1.37773 0.377806 0)
(-1.74053 -0.193075 0)
(-1.6513 -0.518928 0)
(-1.48773 -0.615306 0)
(-1.49989 -0.88845 0)
(-1.37778 -0.901842 0)
(0.00771246 -0.0142828 0)
(0.00448462 0.14102 0)
(-0.182485 0.238776 0)
(-0.487485 0.438842 0)
(-0.623156 0.41548 0)
(-0.655838 0.135962 0)
(-0.772119 -0.197384 0)
(-0.761719 -0.20531 0)
(-0.761927 -0.132872 0)
(-1.94903 0.0115295 0)
(-2.65507 0.255267 0)
(-2.07395 0.285544 0)
(-1.5048 0.318246 0)
(-1.3008 0.416329 0)
(-1.24138 0.502608 0)
(-1.19004 0.503887 0)
(-1.1714 0.450008 0)
(-1.35016 0.198653 0)
(-1.92931 -0.321608 0)
(-1.61901 -0.535679 0)
(-1.45074 -0.564202 0)
(-1.36952 -0.639903 0)
(-1.27282 -0.623836 0)
(-0.071834 0.000164094 0)
(-0.155338 0.342591 0)
(-0.406616 0.553303 0)
(-0.577154 0.537367 0)
(-0.645989 0.325862 0)
(-0.792772 -0.161301 0)
(-0.837484 -0.344209 0)
(-0.773829 -0.364853 0)
(-0.858608 -0.373826 0)
(-1.82245 0.267896 0)
(-3.23735 0.662922 0)
(-3.0183 0.518611 0)
(-1.92084 0.382375 0)
(-1.42573 0.364298 0)
(-1.26082 0.391641 0)
(-1.1511 0.355812 0)
(-1.08561 0.300175 0)
(-1.16714 0.187647 0)
(-1.38896 0.805898 0)
(-1.44541 0.425329 0)
(-1.61438 0.497549 0)
(-1.92649 0.134232 0)
(-1.85588 -0.452901 0)
(-0.268748 0.265992 0)
(-0.358894 0.573925 0)
(-0.537972 0.608895 0)
(-0.629802 0.476929 0)
(-0.774881 0.0846906 0)
(-0.917559 -0.304395 0)
(-0.890664 -0.364089 0)
(-0.946948 -0.0721006 0)
(-0.926908 -0.107941 0)
(-0.902769 0.656624 0)
(-1.33477 0.767059 0)
(-2.72333 0.604113 0)
(-2.53772 0.516061 0)
(-1.72976 0.394584 0)
(-1.37244 0.360972 0)
(-1.2014 0.297296 0)
(-1.0539 0.232005 0)
(-1.0867 0.876828 0)
(-1.19334 0.884921 0)
(-1.2235 0.506925 0)
(-1.38945 0.261409 0)
(-1.4246 -0.0573262 0)
(-1.32559 -0.390687 0)
(-0.349487 0.558533 0)
(-0.436975 0.634527 0)
(-0.645332 0.50147 0)
(-0.746943 0.254599 0)
(-0.96313 -0.107796 0)
(-0.983909 -0.173603 0)
(-1.08 0.402395 0)
(-0.965601 0.0706857 0)
(-0.922789 -0.133221 0)
(-0.97133 -0.0759776 0)
(-0.908215 0.761914 0)
(-1.15287 0.578809 0)
(-1.28161 0.422852 0)
(-1.48634 0.42285 0)
(-1.38147 0.403272 0)
(-1.2108 0.385068 0)
(-0.999103 0.77765 0)
(-0.958302 0.947011 0)
(-0.866027 0.882982 0)
(-0.840228 0.646219 0)
(-0.894663 0.356312 0)
(-0.868301 -0.0139218 0)
(-0.691993 -0.53608 0)
(-0.354349 0.864316 0)
(-0.439944 0.611504 0)
(-0.815623 0.375924 0)
(-0.803199 0.122898 0)
(-0.989319 0.0591386 0)
(-1.00856 0.425016 0)
(-0.863087 0.232334 0)
(-0.815835 -0.00174893 0)
(-0.784114 -0.232577 0)
(-0.776723 -0.23058 0)
(-0.851097 -0.0385124 0)
(-0.91017 0.410992 0)
(-0.894566 0.536475 0)
(-0.931617 0.421484 0)
(-0.985755 0.455447 0)
(-0.96012 0.578384 0)
(-0.824561 0.79046 0)
(-0.679009 0.895801 0)
(-0.526175 0.835007 0)
(-0.393945 0.640405 0)
(-0.338495 0.373954 0)
(-0.235919 -0.033357 0)
(-0.0736888 -0.48221 0)
(-0.624632 1.01202 0)
(-0.506077 0.562276 0)
(-0.901189 0.329029 0)
(-0.791046 0.307844 0)
(-0.77594 0.853838 0)
(-0.508109 0.506461 0)
(-0.429957 0.38212 0)
(-0.497458 0.314747 0)
(-0.694426 0.0587233 0)
(-0.716547 -0.140463 0)
(-0.701714 -0.157845 0)
(-0.711055 -0.0513568 0)
(-0.441525 0.253072 0)
(-0.487201 0.656978 0)
(-0.681492 0.510113 0)
(-0.710191 0.503574 0)
(-0.61421 0.564425 0)
(-0.437845 0.588478 0)
(-0.23698 0.548976 0)
(-0.0207401 0.420414 0)
(0.152218 0.228052 0)
(0.365772 -0.0847448 0)
(0.47591 -0.537107 0)
(-1.16126 1.27391 0)
(-0.631715 0.568157 0)
(-0.977007 0.571906 0)
(-0.556258 0.880514 0)
(-0.359231 0.612159 0)
(-0.0982737 0.360281 0)
(-0.103911 0.311174 0)
(-0.103 0.340083 0)
(-0.196458 0.370656 0)
(-0.446409 0.162896 0)
(-0.576556 -0.0531472 0)
(-0.525588 -0.0486618 0)
(-0.113011 0.445783 0)
(0.0849847 0.715894 0)
(0.0720563 0.737531 0)
(0.121674 0.576798 0)
(0.054207 0.541343 0)
(0.105215 0.473275 0)
(0.261198 0.353767 0)
(0.420734 0.259284 0)
(0.592223 0.00657263 0)
(0.730461 -0.237242 0)
(0.816025 -0.576155 0)
(-2.05231 1.96732 0)
(-0.604334 0.745612 0)
(-0.921435 0.923606 0)
(-0.157227 0.670415 0)
(-0.131343 0.419409 0)
(0.0415663 0.273866 0)
(0.0364783 0.297038 0)
(0.0750091 0.358674 0)
(0.0798212 0.440353 0)
(0.0495659 0.466036 0)
(-0.183345 0.291999 0)
(-0.217123 0.1906 0)
(0.0480133 0.462475 0)
(0.215943 0.541662 0)
(0.185856 0.469337 0)
(0.237271 0.434246 0)
(0.366061 0.449103 0)
(0.561511 0.415516 0)
(0.516404 0.326409 0)
(0.5251 0.106294 0)
(0.686878 -0.0312917 0)
(0.88327 -0.220502 0)
(0.940725 -0.510989 0)
(-3.37784 3.25032 0)
(-0.000284674 1.08058 0)
(-0.459913 0.826537 0)
(0.109539 0.451996 0)
(0.00815313 0.330998 0)
(0.101282 0.239484 0)
(0.110131 0.269804 0)
(0.151509 0.323758 0)
(0.200013 0.419923 0)
(0.246409 0.494933 0)
(0.218381 0.522014 0)
(0.211301 0.483096 0)
(0.25084 0.472111 0)
(0.315355 0.450038 0)
(0.321834 0.373198 0)
(0.374423 0.354114 0)
(0.530515 0.399087 0)
(0.712032 0.331691 0)
(0.61685 0.236401 0)
(0.588209 0.0842024 0)
(0.624771 -0.0432514 0)
(0.801904 -0.18799 0)
(0.917164 -0.415104 0)
(-3.31013 3.84231 0)
(0.336824 1.42183 0)
(-0.0517709 0.834906 0)
(0.205574 0.400435 0)
(0.136112 0.299592 0)
(0.160061 0.232537 0)
(0.173626 0.244863 0)
(0.199046 0.282098 0)
(0.25035 0.360131 0)
(0.317047 0.453054 0)
(0.345206 0.510868 0)
(0.368434 0.501509 0)
(0.385283 0.464763 0)
(0.428525 0.410599 0)
(0.468079 0.377417 0)
(0.545037 0.330523 0)
(0.634987 0.300725 0)
(0.746963 0.254811 0)
(0.765745 0.181197 0)
(0.725761 0.034644 0)
(0.777447 -0.126406 0)
(0.852227 -0.305853 0)
(0.796732 -0.489212 0)
(-0.228761 2.66463 0)
(0.496379 1.33373 0)
(0.228555 0.807011 0)
(0.2765 0.44832 0)
(0.233479 0.294769 0)
(0.228763 0.230518 0)
(0.232089 0.228755 0)
(0.245026 0.253413 0)
(0.270313 0.303335 0)
(0.3302 0.398048 0)
(0.384307 0.467228 0)
(0.430078 0.470924 0)
(0.453533 0.432686 0)
(0.498541 0.374466 0)
(0.525541 0.327869 0)
(0.594743 0.284402 0)
(0.626911 0.230139 0)
(0.68017 0.160167 0)
(0.749109 0.0899918 0)
(0.759302 0.000246147 0)
(0.767554 -0.156326 0)
(0.752182 -0.292648 0)
(0.653801 -0.38812 0)
(0.186308 2.09926 0)
(0.499235 1.3297 0)
(0.339864 0.832033 0)
(0.339955 0.498952 0)
(0.315191 0.306544 0)
(0.295364 0.234874 0)
(0.285793 0.225867 0)
(0.284704 0.24267 0)
(0.290025 0.276882 0)
(0.314937 0.33435 0)
(0.375314 0.410329 0)
(0.435022 0.431533 0)
(0.472236 0.392267 0)
(0.51344 0.338678 0)
(0.535051 0.288669 0)
(0.572897 0.25397 0)
(0.59338 0.195051 0)
(0.624705 0.121473 0)
(0.654587 0.0714612 0)
(0.673667 -0.0220752 0)
(0.675319 -0.139998 0)
(0.651692 -0.236238 0)
(0.588916 -0.314239 0)
(0.186269 1.73618 0)
(0.403784 1.31958 0)
(0.382036 0.856573 0)
(0.408165 0.522582 0)
(0.383801 0.325908 0)
(0.354067 0.252617 0)
(0.332882 0.238946 0)
(0.315801 0.249364 0)
(0.308675 0.273065 0)
(0.316269 0.303877 0)
(0.352388 0.350121 0)
(0.408176 0.367187 0)
(0.457738 0.346832 0)
(0.493608 0.308573 0)
(0.515085 0.266263 0)
(0.536016 0.230963 0)
(0.56355 0.173365 0)
(0.577759 0.111897 0)
(0.598857 0.0536039 0)
(0.613678 -0.0320547 0)
(0.605614 -0.11579 0)
(0.578767 -0.196184 0)
(0.532771 -0.262074 0)
(0.18014 1.4309 0)
(0.343044 1.21504 0)
(0.425575 0.837043 0)
(0.455448 0.526544 0)
(0.427156 0.3525 0)
(0.39177 0.282163 0)
(0.360189 0.263116 0)
(0.334983 0.265103 0)
(0.322877 0.277617 0)
(0.324803 0.290366 0)
(0.341715 0.309896 0)
(0.38329 0.317241 0)
(0.424385 0.3063 0)
(0.454489 0.277058 0)
(0.479243 0.244123 0)
(0.498605 0.205784 0)
(0.524853 0.153007 0)
(0.535998 0.0977736 0)
(0.551541 0.0393351 0)
(0.553796 -0.0318783 0)
(0.542758 -0.0949779 0)
(0.518236 -0.160253 0)
(0.48192 -0.216772 0)
(0.177632 1.16485 0)
(0.303686 1.05512 0)
(0.43024 0.776537 0)
(0.460291 0.527793 0)
(0.434602 0.379895 0)
(0.39711 0.316832 0)
(0.364772 0.292273 0)
(0.339727 0.284499 0)
(0.327378 0.283852 0)
(0.327627 0.28375 0)
(0.336875 0.287592 0)
(0.362265 0.285105 0)
(0.390863 0.272667 0)
(0.416522 0.248533 0)
(0.440593 0.220028 0)
(0.460022 0.181708 0)
(0.481122 0.133335 0)
(0.489447 0.0845651 0)
(0.502023 0.033635 0)
(0.49493 -0.0245593 0)
(0.486508 -0.0769253 0)
(0.465037 -0.131835 0)
(0.434776 -0.176309 0)
(0.150648 0.945861 0)
(0.252302 0.900318 0)
(0.377083 0.706247 0)
(0.425511 0.523809 0)
(0.401362 0.405505 0)
(0.373116 0.350073 0)
(0.349091 0.318552 0)
(0.330371 0.300576 0)
(0.322564 0.289438 0)
(0.321348 0.280691 0)
(0.327832 0.273729 0)
(0.343636 0.26311 0)
(0.363426 0.248417 0)
(0.383797 0.225475 0)
(0.404968 0.198353 0)
(0.422431 0.162333 0)
(0.438268 0.121303 0)
(0.444198 0.0778456 0)
(0.451684 0.0319476 0)
(0.443982 -0.0149225 0)
(0.436846 -0.0610091 0)
(0.418848 -0.107792 0)
(0.396071 -0.146043 0)
(0.100028 0.786034 0)
(0.199639 0.77484 0)
(0.30742 0.63888 0)
(0.347285 0.508159 0)
(0.344684 0.423241 0)
(0.334096 0.370919 0)
(0.321857 0.334961 0)
(0.312309 0.310575 0)
(0.308322 0.292481 0)
(0.309479 0.277561 0)
(0.31555 0.264014 0)
(0.326646 0.248691 0)
(0.340966 0.230503 0)
(0.356365 0.206514 0)
(0.372562 0.180511 0)
(0.385803 0.147557 0)
(0.397457 0.111532 0)
(0.402871 0.0723228 0)
(0.40736 0.0337848 0)
(0.401545 -0.00793713 0)
(0.395869 -0.0502531 0)
(0.379427 -0.0880462 0)
(0.36147 -0.120455 0)
(0.0644081 0.665899 0)
(0.148576 0.669447 0)
(0.239997 0.576499 0)
(0.277962 0.488794 0)
(0.289673 0.423776 0)
(0.291994 0.376976 0)
(0.29016 0.341074 0)
(0.288517 0.313944 0)
(0.289036 0.291842 0)
(0.292402 0.272892 0)
(0.298844 0.25537 0)
(0.307749 0.23727 0)
(0.319475 0.216832 0)
(0.331461 0.193514 0)
(0.343642 0.167259 0)
(0.354426 0.137273 0)
(0.362655 0.104485 0)
(0.366408 0.069162 0)
(0.368283 0.0342555 0)
(0.363639 -0.00183317 0)
(0.357284 -0.0382469 0)
(0.344372 -0.0727014 0)
(0.329882 -0.102726 0)
(0.0448357 0.580737 0)
(0.111243 0.583035 0)
(0.185758 0.521855 0)
(0.221844 0.46299 0)
(0.241804 0.413082 0)
(0.252716 0.372812 0)
(0.258564 0.339298 0)
(0.262854 0.311842 0)
(0.267153 0.288208 0)
(0.27259 0.266777 0)
(0.279615 0.247262 0)
(0.287968 0.227163 0)
(0.297411 0.205832 0)
(0.306857 0.182474 0)
(0.316221 0.157205 0)
(0.323842 0.129003 0)
(0.329935 0.0989664 0)
(0.332565 0.0673129 0)
(0.333675 0.0356438 0)
(0.330262 0.00289921 0)
(0.324403 -0.0297097 0)
(0.313525 -0.0595431 0)
(0.301396 -0.0875831 0)
(0.0342356 0.51599 0)
(0.0855905 0.515298 0)
(0.1451 0.474631 0)
(0.178798 0.434083 0)
(0.202266 0.395913 0)
(0.217928 0.362125 0)
(0.228672 0.332063 0)
(0.236851 0.30587 0)
(0.244067 0.282166 0)
(0.251123 0.260195 0)
(0.258542 0.239651 0)
(0.266612 0.21892 0)
(0.274707 0.197102 0)
(0.282763 0.174024 0)
(0.290192 0.149484 0)
(0.296337 0.123133 0)
(0.301204 0.0954963 0)
(0.302691 0.0663689 0)
(0.302787 0.0375398 0)
(0.299257 0.00811776 0)
(0.293866 -0.0213344 0)
(0.285008 -0.049265 0)
(0.275191 -0.0754779 0)
(0.0275377 0.464398 0)
(0.0677606 0.462213 0)
(0.115679 0.434008 0)
(0.146436 0.405113 0)
(0.170516 0.375656 0)
(0.188327 0.34758 0)
(0.201753 0.321158 0)
(0.212277 0.296862 0)
(0.221342 0.273976 0)
(0.229384 0.252285 0)
(0.237138 0.231454 0)
(0.244874 0.210653 0)
(0.252147 0.189022 0)
(0.259053 0.166565 0)
(0.265179 0.142932 0)
(0.269935 0.118192 0)
(0.273391 0.0923893 0)
(0.274423 0.065612 0)
(0.274156 0.038701 0)
(0.271294 0.0117782 0)
(0.266743 -0.01482 0)
(0.259121 -0.0402767 0)
(0.250642 -0.0649662 0)
(0.0222236 0.422547 0)
(0.0553507 0.41996 0)
(0.0942021 0.399639 0)
(0.121838 0.378254 0)
(0.144918 0.355149 0)
(0.163176 0.331831 0)
(0.177691 0.308837 0)
(0.189447 0.286687 0)
(0.19948 0.265216 0)
(0.208138 0.244341 0)
(0.216084 0.22394 0)
(0.223509 0.203551 0)
(0.23025 0.182546 0)
(0.236383 0.160746 0)
(0.241557 0.138215 0)
(0.245341 0.114761 0)
(0.248057 0.0906785 0)
(0.248808 0.065839 0)
(0.248213 0.0409358 0)
(0.245392 0.0158777 0)
(0.241202 -0.0089387 0)
(0.234661 -0.0328272 0)
(0.22746 -0.0559834 0)
(0.0182364 0.387839 0)
(0.0459889 0.385186 0)
(0.0781081 0.369847 0)
(0.102664 0.35336 0)
(0.124004 0.334854 0)
(0.141709 0.315312 0)
(0.156338 0.295324 0)
(0.16854 0.275367 0)
(0.178898 0.255533 0)
(0.187812 0.235813 0)
(0.195683 0.216172 0)
(0.202819 0.196473 0)
(0.209113 0.176281 0)
(0.214554 0.155417 0)
(0.218993 0.134018 0)
(0.222234 0.111845 0)
(0.224358 0.0890755 0)
(0.224882 0.0657477 0)
(0.224097 0.042385 0)
(0.221546 0.0190727 0)
(0.21772 -0.00386957 0)
(0.21192 -0.0262358 0)
(0.205519 -0.0481034 0)
(0.0151484 0.358844 0)
(0.0387165 0.35643 0)
(0.0656951 0.344461 0)
(0.0873944 0.33137 0)
(0.106753 0.316242 0)
(0.123366 0.299706 0)
(0.137481 0.282222 0)
(0.149506 0.26425 0)
(0.15979 0.245969 0)
(0.168658 0.227504 0)
(0.176308 0.208815 0)
(0.183054 0.18995 0)
(0.188831 0.170603 0)
(0.193651 0.150628 0)
(0.197508 0.130234 0)
(0.200282 0.109322 0)
(0.201917 0.0878764 0)
(0.202332 0.0660938 0)
(0.20142 0.0442478 0)
(0.199042 0.0223756 0)
(0.195456 0.000741865 0)
(0.190338 -0.0204363 0)
(0.184666 -0.0411532 0)
(0.0127125 0.334253 0)
(0.032867 0.331994 0)
(0.0557722 0.322166 0)
(0.0748633 0.311472 0)
(0.0922321 0.298879 0)
(0.107508 0.284693 0)
(0.120772 0.269363 0)
(0.132226 0.253264 0)
(0.14209 0.236572 0)
(0.150618 0.219418 0)
(0.157909 0.201857 0)
(0.164199 0.183933 0)
(0.169546 0.16555 0)
(0.173923 0.146652 0)
(0.177337 0.127362 0)
(0.179722 0.107498 0)
(0.180981 0.0870857 0)
(0.181053 0.0664087 0)
(0.179949 0.0457896 0)
(0.17774 0.0252143 0)
(0.174472 0.00483361 0)
(0.169948 -0.0152092 0)
(0.164776 -0.0348975 0)
(0.0106957 0.313373 0)
(0.0280854 0.31131 0)
(0.0476319 0.303152 0)
(0.0643851 0.294238 0)
(0.0798443 0.283522 0)
(0.0936734 0.271199 0)
(0.105859 0.25759 0)
(0.116503 0.243009 0)
(0.125739 0.227662 0)
(0.133718 0.2117 0)
(0.140555 0.195219 0)
(0.146378 0.178286 0)
(0.151267 0.160921 0)
(0.15518 0.142979 0)
(0.158142 0.124607 0)
(0.16014 0.105832 0)
(0.161127 0.0867052 0)
(0.161124 0.0672613 0)
(0.159989 0.0476236 0)
(0.157776 0.0279685 0)
(0.154624 0.00856473 0)
(0.1505 -0.0105291 0)
(0.145702 -0.029295 0)
(0.00905683 0.295584 0)
(0.0240639 0.293474 0)
(0.0408939 0.286297 0)
(0.0555436 0.278658 0)
(0.0691882 0.269392 0)
(0.0815384 0.258575 0)
(0.0925194 0.246453 0)
(0.102202 0.23328 0)
(0.110608 0.219309 0)
(0.117864 0.204594 0)
(0.124073 0.189196 0)
(0.129274 0.1732 0)
(0.133508 0.156625 0)
(0.136901 0.139553 0)
(0.139471 0.122105 0)
(0.141154 0.104286 0)
(0.14194 0.0860266 0)
(0.141747 0.0676249 0)
(0.140658 0.0492889 0)
(0.138736 0.0308208 0)
(0.135792 0.0122853 0)
(0.131985 -0.00609914 0)
(0.12748 -0.0241573 0)
(0.00767822 0.280252 0)
(0.0206946 0.278367 0)
(0.0349967 0.272201 0)
(0.047739 0.265647 0)
(0.0596753 0.257547 0)
(0.0706104 0.247929 0)
(0.0804411 0.237057 0)
(0.0891542 0.225098 0)
(0.0968319 0.212131 0)
(0.103475 0.198367 0)
(0.109139 0.183918 0)
(0.113874 0.168892 0)
(0.117741 0.15331 0)
(0.120704 0.137164 0)
(0.122732 0.120527 0)
(0.123874 0.103439 0)
(0.124098 0.0860573 0)
(0.123536 0.0684394 0)
(0.122221 0.0505738 0)
(0.120076 0.0328472 0)
(0.117389 0.0153982 0)
(0.114023 -0.00201394 0)
(0.109861 -0.0193871 0)
(0.00641736 0.267265 0)
(0.0176692 0.264985 0)
(0.0300631 0.259196 0)
(0.0411598 0.253313 0)
(0.0515733 0.24607 0)
(0.0611752 0.237472 0)
(0.0698468 0.227658 0)
(0.0775949 0.216772 0)
(0.0843385 0.204955 0)
(0.090167 0.192314 0)
(0.0950857 0.178918 0)
(0.0990948 0.164816 0)
(0.102323 0.15009 0)
(0.104754 0.134832 0)
(0.106435 0.119117 0)
(0.107362 0.103052 0)
(0.107597 0.0866603 0)
(0.106978 0.0698625 0)
(0.105389 0.0529172 0)
(0.10315 0.0357598 0)
(0.100099 0.0184519 0)
(0.0965862 0.00151875 0)
(0.0926681 -0.0151072 0)
(0.00552582 0.256207 0)
(0.015165 0.254273 0)
(0.0253915 0.249384 0)
(0.0346763 0.244376 0)
(0.0434196 0.237929 0)
(0.0515148 0.230062 0)
(0.0589567 0.220961 0)
(0.0656997 0.210777 0)
(0.0717743 0.199633 0)
(0.0770887 0.187663 0)
(0.0816116 0.174948 0)
(0.0853312 0.161576 0)
(0.0882037 0.147566 0)
(0.0902488 0.132997 0)
(0.091529 0.117957 0)
(0.0920008 0.102483 0)
(0.0917261 0.0866134 0)
(0.0907505 0.0705985 0)
(0.0892377 0.0544868 0)
(0.0870916 0.038218 0)
(0.0841938 0.021951 0)
(0.0806204 0.00537323 0)
(0.0764464 -0.0111558 0)
(0.00470078 0.246541 0)
(0.0129025 0.244216 0)
(0.0216675 0.239158 0)
(0.0298964 0.234375 0)
(0.0376073 0.228399 0)
(0.0447837 0.221203 0)
(0.0513606 0.212883 0)
(0.05729 0.20357 0)
(0.0625739 0.193374 0)
(0.0671672 0.182416 0)
(0.071058 0.170786 0)
(0.0742103 0.158471 0)
(0.0765946 0.145495 0)
(0.0781998 0.131917 0)
(0.0790413 0.117848 0)
(0.0790942 0.103283 0)
(0.0783929 0.0883331 0)
(0.0770043 0.0730445 0)
(0.0749067 0.0573778 0)
(0.0721804 0.0415467 0)
(0.069033 0.0256019 0)
(0.065505 0.00972068 0)
(0.0613111 -0.00610174 0)
(0.00394418 0.238536 0)
(0.0107513 0.236976 0)
(0.0171563 0.232945 0)
(0.0231051 0.228859 0)
(0.0286409 0.223435 0)
(0.0338765 0.21673 0)
(0.0385808 0.208811 0)
(0.042812 0.199852 0)
(0.0465096 0.190012 0)
(0.0497239 0.179371 0)
(0.0524492 0.168027 0)
(0.0546974 0.156054 0)
(0.0564666 0.143498 0)
(0.0577126 0.130434 0)
(0.0584755 0.116866 0)
(0.0587714 0.102878 0)
(0.0585331 0.0884725 0)
(0.0577705 0.0737196 0)
(0.0564556 0.0586959 0)
(0.0545962 0.0435314 0)
(0.0521386 0.0282127 0)
(0.0491304 0.0127173 0)
(0.045262 -0.00282271 0)
(0.00361393 0.23168 0)
(0.00886906 0.229992 0)
(0.0138457 0.225981 0)
(0.0185439 0.222032 0)
(0.022717 0.216892 0)
(0.0267457 0.210724 0)
(0.0303014 0.203441 0)
(0.0334849 0.195198 0)
(0.0362338 0.186073 0)
(0.0385901 0.176128 0)