/*--------------------------------*- C++ -*----------------------------------*\
| =========                 |                                                 |
| \\      /  F ield         | OpenFOAM: The Open Source CFD Toolbox           |
|  \\    /   O peration     | Version:  2.4.0                                 |
|   \\  /    A nd           | Web:      www.OpenFOAM.org                      |
|    \\/     M anipulation  |                                                 |
\*---------------------------------------------------------------------------*/
FoamFile
{
    version     2.0;
    format      ascii;
    class       volVectorField;
    location    "1";
    object      U.water;
}
// * * * * * * * * * * * * * * * * * * * * * * * * * * * * * * * * * * * * * //

dimensions      [0 1 -1 0 0 0 0];

internalField   nonuniform List<vector> 
2268
(
(-0.0267662 -0.0148942 0)
(-0.0761102 -0.0127258 0)
(-0.123392 -0.00139604 0)
(-0.149578 0.00805728 0)
(-0.165505 0.013522 0)
(-0.174414 0.012661 0)
(-0.175247 0.00721122 0)
(-0.172983 0.00606737 0)
(-0.175281 0.00463572 0)
(-0.17933 0.0024449 0)
(-0.179076 0.000213534 0)
(-0.168129 -0.000553521 0)
(-0.152371 0.00207715 0)
(-0.140871 0.00267076 0)
(-0.131591 0.00255875 0)
(-0.125015 0.000517804 0)
(-0.114522 -0.00315442 0)
(-0.0987871 -0.00523201 0)
(-0.0749399 -0.00556993 0)
(-0.045849 -0.00512715 0)
(-0.0305049 0.00111333 0)
(-0.0261268 0.00384906 0)
(-0.018325 -0.00547094 0)
(-0.0251616 0.0558214 0)
(-0.0768094 0.0550332 0)
(-0.118794 0.0364775 0)
(-0.152315 0.0144831 0)
(-0.169827 -0.00264352 0)
(-0.180817 -0.00751718 0)
(-0.179796 -0.007232 0)
(-0.174628 -0.00473905 0)
(-0.17477 0.000506805 0)
(-0.175675 0.00138258 0)
(-0.171398 -0.00595955 0)
(-0.162558 -0.0141712 0)
(-0.152531 -0.0174555 0)
(-0.142704 -0.0145212 0)
(-0.134497 -0.0115366 0)
(-0.125119 -0.0099799 0)
(-0.110859 -0.0102945 0)
(-0.0934335 -0.0140644 0)
(-0.0688689 -0.0186364 0)
(-0.0438053 -0.0163112 0)
(-0.0232325 -0.00959681 0)
(-0.00279248 -0.0109651 0)
(0.000553909 -0.0155453 0)
(-0.0280027 0.0697413 0)
(-0.0735042 0.0587414 0)
(-0.112212 0.0477378 0)
(-0.148374 0.0430651 0)
(-0.172495 0.0385169 0)
(-0.18254 0.0228555 0)
(-0.180088 0.0056558 0)
(-0.175078 0.00413499 0)
(-0.175053 0.00332199 0)
(-0.175878 -0.000364747 0)
(-0.173422 -0.00209561 0)
(-0.167173 -0.00258337 0)
(-0.159057 0.000291848 0)
(-0.146225 0.00169351 0)
(-0.131531 0.000824445 0)
(-0.117875 -0.00487161 0)
(-0.0993123 -0.0120575 0)
(-0.0843361 -0.019556 0)
(-0.0679585 -0.0225956 0)
(-0.0524229 -0.0187169 0)
(-0.0345287 -0.00930151 0)
(-0.00163391 -0.00217267 0)
(0.00500289 -0.00843665 0)
(-0.0283249 0.134723 0)
(-0.0782457 0.120511 0)
(-0.130644 0.0926301 0)
(-0.171236 0.0550724 0)
(-0.192265 0.0143647 0)
(-0.196921 0.00703293 0)
(-0.200863 0.0191358 0)
(-0.195783 0.0340272 0)
(-0.183079 0.0438597 0)
(-0.174062 0.0399265 0)
(-0.170624 0.0182385 0)
(-0.168353 -0.00494909 0)
(-0.164092 -0.0185881 0)
(-0.153618 -0.0186534 0)
(-0.136301 -0.0126311 0)
(-0.117481 -0.00900784 0)
(-0.0983658 -0.00703376 0)
(-0.0837452 -0.00230948 0)
(-0.0689325 0.00706435 0)
(-0.0565049 0.0167467 0)
(-0.0393349 0.0149529 0)
(-0.0116611 0.0136893 0)
(-0.000335009 0.0361287 0)
(0.00720317 0.248625 0)
(-0.0817203 0.214054 0)
(-0.176596 0.128633 0)
(-0.225344 0.114717 0)
(-0.236761 0.128703 0)
(-0.20056 0.211461 0)
(-0.193529 0.189425 0)
(-0.206529 0.17541 0)
(-0.212089 0.170725 0)
(-0.214803 0.171538 0)
(-0.216222 0.172199 0)
(-0.206247 0.179926 0)
(-0.187685 0.185095 0)
(-0.164082 0.180932 0)
(-0.137492 0.172844 0)
(-0.115218 0.162261 0)
(-0.0933639 0.154038 0)
(-0.0730009 0.141876 0)
(-0.0572866 0.131119 0)
(-0.0471977 0.130412 0)
(-0.0408967 0.133246 0)
(-0.0149206 0.131547 0)
(0.00435469 0.144354 0)
(-0.0319486 0.290844 0)
(-0.139431 0.324243 0)
(-0.229236 0.260248 0)
(-0.215594 0.266199 0)
(-0.222564 0.164204 0)
(-0.255661 0.108636 0)
(-0.263378 0.0979338 0)
(-0.250809 0.0979794 0)
(-0.223644 0.0982478 0)
(-0.181065 0.099137 0)
(-0.161936 0.081647 0)
(-0.158552 0.0559047 0)
(-0.17434 0.0413668 0)
(-0.189917 0.0410788 0)
(-0.194992 0.0433038 0)
(-0.176273 0.0466272 0)
(-0.144136 0.0449014 0)
(-0.102259 0.0402549 0)
(-0.0687732 0.0388524 0)
(-0.0489761 0.0454295 0)
(-0.0710974 0.0452831 0)
(-0.0846637 0.0667059 0)
(-0.0885344 0.128989 0)
(-0.115289 0.369484 0)
(-0.212266 0.364296 0)
(-0.23796 0.243935 0)
(-0.256295 0.159427 0)
(-0.268546 0.197076 0)
(-0.27292 0.254169 0)
(-0.287239 0.224285 0)
(-0.236434 0.169324 0)
(-0.136646 0.129284 0)
(-0.0397095 0.125674 0)
(0.0183236 0.164836 0)
(0.0120775 0.21657 0)
(-0.0401875 0.225808 0)
(-0.103494 0.193713 0)
(-0.16491 0.13713 0)
(-0.183657 0.102187 0)
(-0.189423 0.0808151 0)
(-0.185783 0.0664672 0)
(-0.190374 0.0633772 0)
(-0.195035 0.1071 0)
(-0.194402 0.208411 0)
(-0.16741 0.320901 0)
(-0.225855 0.194116 0)
(-0.178137 0.493905 0)
(-0.198185 0.365649 0)
(-0.199956 0.273117 0)
(-0.358109 0.336668 0)
(-0.572304 0.0799781 0)
(-0.363418 -0.170764 0)
(-0.207787 -0.211716 0)
(-0.0617704 -0.211801 0)
(0.0217777 -0.198903 0)
(0.0638074 -0.178726 0)
(0.0930565 -0.176393 0)
(0.127451 -0.177119 0)
(0.140314 -0.167135 0)
(0.10785 -0.144238 0)
(0.024883 -0.122776 0)
(-0.0785461 -0.125669 0)
(-0.139025 -0.119454 0)
(-0.191762 -0.118062 0)
(-0.260773 -0.118602 0)
(-0.328894 -0.147675 0)
(-0.309169 -0.241363 0)
(-0.179561 -0.333989 0)
(-0.279718 -0.421331 0)
(-0.00229601 -0.389606 0)
(0.135167 -0.439005 0)
(0.197836 -0.522587 0)
(0.231787 -0.551637 0)
(0.268662 -0.583457 0)
(0.272353 -0.648028 0)
(0.231305 -0.619109 0)
(0.191614 -0.479055 0)
(0.182727 -0.313135 0)
(0.204487 -0.187043 0)
(0.201734 -0.0799471 0)
(0.160701 -0.0133003 0)
(0.128433 0.00537699 0)
(0.137336 0.0595689 0)
(0.167738 0.0613202 0)
(0.099571 0.064628 0)
(-0.0706724 0.0212233 0)
(-0.11715 -0.0212243 0)
(-0.0716348 -0.031639 0)
(0.10581 0.369773 0)
(0.156871 0.402783 0)
(0.274991 0.54328 0)
(0.262097 0.566988 0)
(0.269694 0.617947 0)
(0.280485 0.78443 0)
(0.225389 0.833975 0)
(0.117263 0.770351 0)
(-0.13926 0.555262 0)
(-0.178041 0.472664 0)
(-0.176723 0.411073 0)
(-0.162248 0.373085 0)
(-0.250518 0.323266 0)
(-0.24424 0.243076 0)
(-0.0572967 0.241867 0)
(-0.0623534 0.245764 0)
(-0.114108 0.152367 0)
(-0.116656 0.102435 0)
(-0.055548 0.0269719 0)
(0.0883392 -0.513363 0)
(-0.0331259 -0.515928 0)
(-0.00585837 -0.563615 0)
(0.0607115 -0.599193 0)
(0.0408624 -0.659997 0)
(-0.0250413 -0.663605 0)
(-0.0931576 -0.625017 0)
(-0.105847 -0.243407 0)
(-0.46359 -0.0543724 0)
(-0.567116 -0.114225 0)
(-0.557476 -0.0739263 0)
(-0.493925 0.050526 0)
(-0.458647 0.0846019 0)
(-0.410663 0.0206331 0)
(-0.264977 0.0463711 0)
(-0.0942596 0.181706 0)
(-0.126937 0.118225 0)
(-0.0836126 -0.0104695 0)
(-0.0031097 -0.0452129 0)
(0.138085 -0.324968 0)
(0.0872017 -0.220569 0)
(0.144191 -0.0375957 0)
(0.123231 0.107952 0)
(0.123387 0.210134 0)
(0.115876 0.352307 0)
(-0.0243646 0.476381 0)
(-0.119527 0.410788 0)
(-0.328407 0.307271 0)
(-0.462086 0.229911 0)
(-0.503326 0.189899 0)
(-0.52273 0.194831 0)
(-0.524249 0.180109 0)
(-0.50677 0.0812497 0)
(-0.417792 0.0603165 0)
(-0.205319 0.152501 0)
(-0.142292 0.118992 0)
(-0.0676284 0.056058 0)
(0.0180408 0.0175382 0)
(0.105704 -0.288254 0)
(0.040316 -0.282349 0)
(0.0295009 -0.27366 0)
(-0.0434583 -0.360946 0)
(-0.0855044 -0.345192 0)
(-0.131001 -0.333636 0)
(-0.0810297 -0.230541 0)
(0.0158253 0.141597 0)
(-0.0574723 0.253278 0)
(-0.229488 0.0893353 0)
(-0.227282 0.0497918 0)
(-0.339079 0.185478 0)
(-0.446904 0.172072 0)
(-0.459169 -0.0491282 0)
(-0.484995 -0.0726824 0)
(-0.299285 0.113377 0)
(-0.130499 0.11756 0)
(-0.0212738 0.070656 0)
(0.064132 0.0257053 0)
(0.0968949 -0.289849 0)
(0.071889 -0.211069 0)
(0.115338 -0.11208 0)
(0.115736 0.0560561 0)
(-0.0432803 0.187926 0)
(-0.186531 0.224939 0)
(-0.208707 0.211707 0)
(-0.0585117 0.19218 0)
(0.0729022 0.244194 0)
(-0.0231422 0.098511 0)
(-0.179024 -0.0981565 0)
(-0.217138 -0.167007 0)
(-0.153684 -0.191649 0)
(-0.192371 -0.133007 0)
(-0.351193 -0.0839201 0)
(-0.335608 -0.0258363 0)
(-0.151612 0.0591836 0)
(-0.0265595 -0.00466319 0)
(0.0311959 -0.00215166 0)
(0.0871909 -0.311419 0)
(0.00995219 -0.187175 0)
(0.0201152 -0.180112 0)
(-0.105034 -0.224007 0)
(-0.173633 -0.177372 0)
(-0.190878 -0.080486 0)
(-0.183816 -0.0609405 0)
(-0.0729073 0.0823966 0)
(0.0972027 0.221356 0)
(0.121145 0.16794 0)
(-0.0540093 0.0829937 0)
(-0.171612 0.0722967 0)
(-0.176919 -0.0395358 0)
(-0.154255 -0.196586 0)
(-0.272361 -0.0994343 0)
(-0.311605 0.00564972 0)
(-0.288714 -0.0126388 0)
(-0.152927 -0.0407764 0)
(-0.071065 -0.0305588 0)
(0.0933624 -0.319315 0)
(-0.00345835 -0.194637 0)
(0.0236122 -0.104839 0)
(-0.069118 0.0635976 0)
(-0.237817 0.112837 0)
(-0.246765 0.0885381 0)
(-0.22375 0.0595315 0)
(-0.148216 0.0407703 0)
(0.0579775 0.166306 0)
(0.163323 0.191538 0)
(0.0935932 0.139402 0)
(-0.0866925 -0.00491867 0)
(-0.135249 -0.148466 0)
(-0.193698 -0.159361 0)
(-0.308487 -0.173287 0)
(-0.350296 -0.16307 0)
(-0.3417 -0.184747 0)
(-0.218169 -0.299707 0)
(-0.121009 -0.313524 0)
(-0.168766 0.681878 0)
(-0.11234 0.476835 0)
(-0.350073 0.258038 0)
(-0.212728 -0.0443489 0)
(-0.0132584 -0.120807 0)
(0.0918886 -0.0539215 0)
(0.113875 -0.00121659 0)
(0.164067 -0.00276746 0)
(0.215901 -0.000222357 0)
(0.265495 0.0385367 0)
(0.290231 0.12582 0)
(0.264328 0.242091 0)
(0.201204 0.317717 0)
(0.0984374 0.322041 0)
(0.00969693 0.269753 0)
(-0.0586685 0.18857 0)
(-0.11948 0.0998071 0)
(-0.14766 0.0782613 0)
(-0.125538 0.0867118 0)
(-0.0686534 0.145016 0)
(-0.118704 0.236051 0)
(-0.203114 0.238276 0)
(-0.40955 -0.312746 0)
(-0.158763 0.760512 0)
(0.0573822 0.424055 0)
(-0.00230601 0.0723146 0)
(0.19977 -0.0329248 0)
(0.212364 -0.0935655 0)
(0.230471 -0.1581 0)
(0.253547 -0.197048 0)
(0.288668 -0.219112 0)
(0.312891 -0.217826 0)
(0.333319 -0.197612 0)
(0.340454 -0.161702 0)
(0.343507 -0.121753 0)
(0.320625 -0.0480961 0)
(0.252763 0.0203631 0)
(0.187128 0.0165745 0)
(0.130791 -0.00886054 0)
(0.037582 -0.0317178 0)
(-0.0500801 -0.0859494 0)
(-0.0783166 -0.178546 0)
(-0.16113 -0.208513 0)
(-0.245537 -0.189832 0)
(-0.207036 -0.144639 0)
(-0.290468 -0.176864 0)
(-0.0074155 0.692198 0)
(0.243709 0.204041 0)
(0.296889 -0.0185028 0)
(0.304113 -0.131168 0)
(0.305577 -0.172281 0)
(0.301867 -0.184631 0)
(0.31579 -0.194515 0)
(0.346007 -0.198026 0)
(0.382983 -0.177482 0)
(0.423975 -0.128814 0)
(0.444019 -0.0224038 0)
(0.44539 0.151988 0)
(0.356198 0.256857 0)
(0.254635 0.279867 0)
(0.154417 0.236914 0)
(0.0832551 0.21329 0)
(0.0275279 0.183392 0)
(-0.0306946 0.107144 0)
(-0.222788 0.0935622 0)
(-0.49603 0.197057 0)
(-0.625503 0.131128 0)
(-0.761687 -0.133108 0)
(-0.723187 -0.258582 0)
(0.162533 0.322479 0)
(0.28233 0.111324 0)
(0.328484 -0.0317987 0)
(0.304747 -0.0942521 0)
(0.285078 -0.119966 0)
(0.272767 -0.146997 0)
(0.278935 -0.197913 0)
(0.279009 -0.24916 0)
(0.312646 -0.30633 0)
(0.283435 -0.306192 0)
(0.254183 -0.223572 0)
(0.251165 -0.0153373 0)
(0.224313 0.233883 0)
(0.124375 0.331392 0)
(0.0274455 0.275424 0)
(-0.0509848 0.187889 0)
(-0.153372 0.16759 0)
(-0.368242 0.228302 0)
(-0.788115 0.335367 0)
(-1.01088 0.212596 0)
(-1.03608 -0.0376247 0)
(-1.05367 -0.123564 0)
(-1.06324 -0.159809 0)
(0.113006 0.1277 0)
(0.19898 0.0503205 0)
(0.202972 -0.0358078 0)
(0.178728 -0.0839976 0)
(0.170784 -0.12869 0)
(0.140658 -0.18225 0)
(0.0873135 -0.259398 0)
(-0.0833715 -0.277993 0)
(-0.384589 -0.184158 0)
(-0.472229 -0.158028 0)
(-0.464178 -0.0653021 0)
(-0.31064 0.103687 0)
(-0.199767 0.220703 0)
(-0.216004 0.28663 0)
(-0.33541 0.323707 0)
(-0.556763 0.388661 0)
(-0.849627 0.482052 0)
(-1.16404 0.522577 0)
(-1.34345 0.459654 0)
(-1.35276 0.240344 0)
(-1.35984 0.0214096 0)
(-1.34836 -0.160533 0)
(-1.27259 -0.238795 0)
(0.0348077 -0.0464269 0)
(0.073279 0.0406302 0)
(0.0237631 -0.0383248 0)
(0.019452 -0.0831234 0)
(0.00168054 -0.0908838 0)
(-0.0740489 -0.118003 0)
(-0.441517 -0.0260177 0)
(-0.580244 0.00339459 0)
(-0.706556 -0.189111 0)
(-0.882461 -0.266502 0)
(-1.02374 -0.139287 0)
(-0.940201 0.124173 0)
(-0.861071 0.354229 0)
(-0.924563 0.477606 0)
(-1.04907 0.561889 0)
(-1.12971 0.615782 0)
(-1.28437 0.624673 0)
(-1.45598 0.524635 0)
(-1.43669 0.312433 0)
(-1.5664 -0.0482754 0)
(-1.6401 -0.219364 0)
(-1.58291 -0.34371 0)
(-1.46397 -0.358749 0)
(-0.0244698 -0.0772166 0)
(-0.00909306 0.0393214 0)
(-0.0158745 -0.0094581 0)
(-0.048805 -0.0819096 0)
(-0.194607 -0.0629979 0)
(-0.47014 0.0999765 0)
(-0.595398 0.0629642 0)
(-0.632351 0.00376719 0)
(-0.742803 -0.0337649 0)
(-1.25197 -0.0345394 0)
(-1.32258 0.0125144 0)
(-1.20094 0.168961 0)
(-1.17392 0.396545 0)
(-1.24382 0.519948 0)
(-1.30463 0.569699 0)
(-1.31516 0.609279 0)
(-1.36974 0.588087 0)
(-1.46777 0.358596 0)
(-1.55588 -0.175999 0)
(-1.64523 -0.570491 0)
(-1.52421 -0.725838 0)
(-1.45732 -0.811561 0)
(-1.42679 -0.749012 0)
(-0.0264401 -0.0423663 0)
(-0.022681 0.0352764 0)
(-0.0901899 -0.00267703 0)
(-0.282013 0.043733 0)
(-0.571715 0.218372 0)
(-0.659198 0.220951 0)
(-0.637668 0.0560389 0)
(-0.583026 -0.00631321 0)
(-0.906593 -0.170237 0)
(-1.95976 -0.0117063 0)
(-1.83438 0.171582 0)
(-1.42316 0.209349 0)
(-1.28185 0.302992 0)
(-1.28975 0.476691 0)
(-1.3019 0.538855 0)
(-1.29756 0.561071 0)
(-1.3604 0.49712 0)
(-1.58947 -0.0210391 0)
(-1.71469 -0.462357 0)
(-1.66551 -0.6179 0)
(-1.50603 -0.637105 0)
(-1.20953 -0.152359 0)
(-1.15006 -1.11889 0)
(-0.0298503 -0.078989 0)
(-0.0432914 0.0753906 0)
(-0.225312 0.166792 0)
(-0.53951 0.336565 0)
(-0.68992 0.323902 0)
(-0.729431 0.0698335 0)
(-0.807533 -0.196183 0)
(-0.664181 -0.180163 0)
(-0.847873 -0.291602 0)
(-2.44623 0.51213 0)
(-2.76612 0.382832 0)
(-2.04383 0.31912 0)
(-1.50821 0.309226 0)
(-1.3244 0.363432 0)
(-1.26248 0.425425 0)
(-1.22515 0.410983 0)
(-1.26909 0.339198 0)
(-1.48926 0.115014 0)
(-1.56528 0.204896 0)
(-1.56853 -0.198737 0)
(-1.45491 -0.525947 0)
(-1.37341 -0.640032 0)
(-1.27381 -0.623504 0)
(-0.149433 0.0109696 0)
(-0.232933 0.289227 0)
(-0.477813 0.463743 0)
(-0.650885 0.430233 0)
(-0.752384 0.233041 0)
(-0.92953 -0.108912 0)
(-0.776951 -0.114191 0)
(-0.858288 0.205756 0)
(-1.02427 0.59414 0)
(-0.996949 1.17189 0)
(-1.58885 0.759693 0)
(-2.23996 0.388072 0)
(-1.98597 0.374187 0)
(-1.49149 0.349769 0)
(-1.30695 0.364789 0)
(-1.18476 0.3152 0)
(-1.14956 0.32664 0)
(-1.15912 0.989652 0)
(-1.31833 0.875994 0)
(-1.40445 0.584618 0)
(-1.61402 0.544508 0)
(-1.92479 0.155782 0)
(-1.85016 -0.431893 0)
(-0.377539 0.277775 0)
(-0.447486 0.493114 0)
(-0.633945 0.487251 0)
(-0.713656 0.350601 0)
(-0.890738 0.0816549 0)
(-0.82515 0.121802 0)
(-1.05579 0.20968 0)
(-0.966011 0.301986 0)
(-0.916974 0.417147 0)
(-0.702024 0.813268 0)
(-0.667032 0.819417 0)
(-0.851144 0.482986 0)
(-1.40965 0.350443 0)
(-1.47754 0.356635 0)
(-1.3381 0.391517 0)
(-1.16839 0.39392 0)
(-1.11841 0.846122 0)
(-1.12808 1.05714 0)
(-1.16818 0.909822 0)
(-1.21097 0.535254 0)
(-1.38085 0.280801 0)
(-1.42387 -0.0412497 0)
(-1.3262 -0.382318 0)
(-0.460283 0.489031 0)
(-0.554891 0.487021 0)
(-0.781552 0.33245 0)
(-0.817308 0.205638 0)
(-0.943023 0.230562 0)
(-1.07402 0.566343 0)
(-1.07753 0.467663 0)
(-0.983694 0.441337 0)
(-0.9084 0.481289 0)
(-0.692572 0.705195 0)
(-0.622706 0.757911 0)
(-0.671789 0.565743 0)
(-0.875645 0.399005 0)
(-0.969886 0.398595 0)
(-1.02292 0.466906 0)
(-1.02107 0.651324 0)
(-0.997816 0.91083 0)
(-0.945842 0.979485 0)
(-0.842558 0.901945 0)
(-0.807974 0.665693 0)
(-0.873766 0.39316 0)
(-0.865649 0.0215386 0)
(-0.714978 -0.523862 0)
(-0.526592 0.699394 0)
(-0.657204 0.359562 0)
(-0.861435 0.244793 0)
(-0.806365 0.352201 0)
(-0.950731 0.876749 0)
(-1.00531 0.467203 0)
(-0.863378 0.264403 0)
(-0.810829 0.195458 0)
(-0.739223 0.232951 0)
(-0.634633 0.536991 0)
(-0.553347 0.73328 0)
(-0.561321 0.728017 0)
(-0.782065 0.515008 0)
(-0.889267 0.43854 0)
(-0.941647 0.473631 0)
(-0.922555 0.60423 0)
(-0.799494 0.80679 0)
(-0.645474 0.904694 0)
(-0.499354 0.844508 0)
(-0.359897 0.647666 0)
(-0.298873 0.380289 0)
(-0.225519 -0.0369422 0)
(-0.101001 -0.486101 0)
(-0.829285 0.853922 0)
(-0.772684 0.355495 0)
(-0.848321 0.47638 0)
(-0.797277 1.03047 0)
(-0.76965 0.903515 0)
(-0.510919 0.523195 0)
(-0.428704 0.390135 0)
(-0.490886 0.33053 0)
(-0.600226 0.334723 0)
(-0.557761 0.422353 0)
(-0.426944 0.612814 0)
(-0.286879 0.731683 0)
(-0.298413 0.782983 0)
(-0.499567 0.636467 0)
(-0.667484 0.523905 0)
(-0.687364 0.517583 0)
(-0.592084 0.571366 0)
(-0.41695 0.593735 0)
(-0.211651 0.550088 0)
(0.0071668 0.415297 0)
(0.180482 0.21438 0)
(0.370714 -0.105166 0)
(0.471829 -0.542521 0)
(-1.4442 1.19722 0)
(-0.599573 0.74094 0)
(-1.0635 1.1467 0)
(-0.553682 0.935388 0)
(-0.354472 0.616545 0)
(-0.0986777 0.363758 0)
(-0.105034 0.313851 0)
(-0.102834 0.342303 0)
(-0.188107 0.380838 0)
(-0.283101 0.40467 0)
(-0.275981 0.454489 0)
(-0.142198 0.565993 0)
(0.020017 0.727427 0)
(0.120834 0.798501 0)
(0.089506 0.747554 0)
(0.0457993 0.655291 0)
(0.0194415 0.573867 0)
(0.12017 0.478313 0)
(0.275816 0.355612 0)
(0.43323 0.253008 0)
(0.588399 0.00150879 0)
(0.71948 -0.246142 0)
(0.824779 -0.562348 0)
(-2.13874 1.94158 0)
(-0.0246679 1.4861 0)
(-0.94862 0.957721 0)
(-0.150995 0.674226 0)
(-0.133167 0.42172 0)
(0.0408063 0.275436 0)
(0.0357945 0.298418 0)
(0.0747496 0.359952 0)
(0.0801977 0.441455 0)
(0.0564213 0.473981 0)
(0.0013132 0.489822 0)
(0.0191609 0.484981 0)
(0.110818 0.535052 0)
(0.254448 0.592809 0)
(0.378239 0.621066 0)
(0.476207 0.602235 0)
(0.538278 0.550988 0)
(0.618222 0.434367 0)
(0.661818 0.293685 0)
(0.758541 0.151059 0)
(0.83902 -0.0655298 0)
(0.922783 -0.256434 0)
(0.936861 -0.505086 0)
(-2.22869 2.94504 0)
(0.37023 1.36933 0)
(-0.464233 0.828203 0)
(0.109893 0.453339 0)
(0.00652962 0.332225 0)
(0.100903 0.240156 0)
(0.10984 0.270338 0)
(0.151331 0.324364 0)
(0.199982 0.420398 0)
(0.246665 0.495489 0)
(0.221425 0.526905 0)
(0.229549 0.503836 0)
(0.255172 0.477051 0)
(0.322736 0.455668 0)
(0.424574 0.468862 0)
(0.556051 0.431182 0)
(0.658724 0.431877 0)
(0.781429 0.339525 0)
(0.824076 0.225877 0)
(0.877142 0.0823908 0)
(0.885279 -0.142442 0)
(0.934964 -0.313488 0)
(0.919891 -0.516303 0)
(-0.682163 2.96478 0)
(0.466106 1.32554 0)
(-0.0609025 0.833455 0)
(0.205779 0.400107 0)
(0.134994 0.30042 0)
(0.15983 0.232794 0)
(0.173598 0.244935 0)
(0.198975 0.28232 0)
(0.250312 0.360396 0)
(0.317103 0.453388 0)
(0.345266 0.51119 0)
(0.368742 0.502773 0)
(0.386114 0.465612 0)
(0.430095 0.412756 0)
(0.48346 0.391345 0)
(0.586237 0.341939 0)
(0.652907 0.29967 0)
(0.756145 0.24955 0)
(0.828843 0.154709 0)
(0.868783 0.0214313 0)
(0.834706 -0.168793 0)
(0.854453 -0.341603 0)
(0.787583 -0.488845 0)
(-0.00995782 2.54992 0)
(0.520992 1.30208 0)
(0.224061 0.805089 0)
(0.275859 0.448237 0)
(0.232595 0.295239 0)
(0.22869 0.230553 0)
(0.232185 0.228621 0)
(0.245011 0.253466 0)
(0.27029 0.303468 0)
(0.330186 0.398183 0)
(0.384322 0.467377 0)
(0.430085 0.471087 0)
(0.453603 0.432926 0)
(0.498713 0.375159 0)
(0.526482 0.33016 0)
(0.598554 0.288858 0)
(0.623239 0.229445 0)
(0.681907 0.161303 0)
(0.750956 0.0904357 0)
(0.761885 0.000886911 0)
(0.767475 -0.157068 0)
(0.748128 -0.290582 0)
(0.66022 -0.391207 0)
(0.187354 2.09912 0)
(0.500171 1.32643 0)
(0.339151 0.83111 0)
(0.339243 0.49885 0)
(0.314594 0.306756 0)
(0.295442 0.234804 0)
(0.285924 0.225686 0)
(0.28471 0.242667 0)
(0.290017 0.276936 0)
(0.314932 0.334421 0)
(0.375325 0.410411 0)
(0.435037 0.431594 0)
(0.472274 0.392387 0)
(0.513548 0.33895 0)
(0.535272 0.289184 0)
(0.573065 0.254552 0)
(0.59352 0.195686 0)
(0.62492 0.122195 0)
(0.654656 0.0727699 0)
(0.673717 -0.0201387 0)
(0.675338 -0.138368 0)
(0.651868 -0.235401 0)
(0.588818 -0.313818 0)
(0.186485 1.73625 0)
(0.404198 1.31941 0)
(0.383 0.857324 0)
(0.408197 0.522231 0)
(0.383624 0.325586 0)
(0.354125 0.252438 0)
(0.332969 0.238823 0)
(0.315808 0.249357 0)
(0.308675 0.27308 0)
(0.316269 0.303898 0)
(0.352388 0.350144 0)
(0.408179 0.367208 0)
(0.457761 0.346914 0)
(0.493644 0.308699 0)
(0.515117 0.266486 0)
(0.536051 0.231176 0)
(0.563595 0.173601 0)
(0.577775 0.112178 0)
(0.598848 0.0540617 0)
(0.613627 -0.0311634 0)
(0.605534 -0.114873 0)
(0.578531 -0.195534 0)
(0.532491 -0.261738 0)
(0.180435 1.4318 0)
(0.344711 1.21513 0)
(0.425632 0.835015 0)
(0.456257 0.527116 0)
(0.427117 0.352305 0)
(0.391796 0.28204 0)
(0.360212 0.263045 0)
(0.334985 0.265099 0)
(0.322877 0.277618 0)
(0.324803 0.290366 0)
(0.341715 0.309895 0)
(0.383288 0.31724 0)
(0.424383 0.306327 0)
(0.454487 0.277107 0)
(0.479246 0.24419 0)
(0.49861 0.205869 0)
(0.524856 0.153085 0)
(0.536 0.0978723 0)
(0.551533 0.0397405 0)
(0.553749 -0.0309699 0)
(0.542613 -0.0940552 0)
(0.518057 -0.159693 0)
(0.481781 -0.216386 0)
(0.178156 1.16775 0)
(0.305393 1.05633 0)
(0.430451 0.775141 0)
(0.460957 0.52858 0)
(0.434499 0.379781 0)
(0.397101 0.316748 0)
(0.364777 0.292245 0)
(0.339727 0.284499 0)
(0.327378 0.283851 0)
(0.327627 0.283748 0)
(0.336875 0.287588 0)
(0.362265 0.285101 0)
(0.390863 0.272667 0)
(0.416521 0.248542 0)
(0.440593 0.22005 0)
(0.460023 0.181734 0)
(0.481123 0.133365 0)
(0.48944 0.0846409 0)
(0.501208 0.0340418 0)
(0.495949 -0.0238068 0)
(0.486191 -0.0761248 0)
(0.465016 -0.131387 0)
(0.434761 -0.176083 0)
(0.151345 0.950183 0)
(0.253018 0.901838 0)
(0.378659 0.709172 0)
(0.425219 0.523586 0)
(0.401326 0.405436 0)
(0.373121 0.350026 0)
(0.349091 0.318548 0)
(0.330371 0.300576 0)
(0.322564 0.289438 0)
(0.321348 0.280691 0)
(0.327832 0.273728 0)
(0.343636 0.263109 0)
(0.363426 0.248416 0)
(0.383797 0.225477 0)
(0.404968 0.19836 0)
(0.422431 0.162347 0)
(0.438268 0.121339 0)
(0.444205 0.0779713 0)
(0.451689 0.0322916 0)
(0.44395 -0.0144351 0)
(0.43683 -0.0606083 0)
(0.418829 -0.107581 0)
(0.396056 -0.145923 0)
(0.0995553 0.783744 0)
(0.199453 0.774472 0)
(0.307138 0.638537 0)
(0.34721 0.508013 0)
(0.344686 0.423182 0)
(0.334097 0.370912 0)
(0.321857 0.334961 0)
(0.312309 0.310575 0)
(0.308322 0.292481 0)
(0.309479 0.277562 0)
(0.31555 0.264014 0)
(0.326646 0.248691 0)
(0.340966 0.230503 0)
(0.356365 0.206515 0)
(0.372562 0.180514 0)
(0.385804 0.147569 0)
(0.397461 0.111583 0)
(0.402873 0.0724404 0)
(0.40736 0.033996 0)
(0.401542 -0.00770709 0)
(0.395861 -0.0500462 0)
(0.379417 -0.0878948 0)
(0.36146 -0.120352 0)
(0.0643711 0.665439 0)
(0.148538 0.669332 0)
(0.239956 0.576325 0)
(0.277965 0.488728 0)
(0.289673 0.423768 0)
(0.291994 0.376976 0)
(0.29016 0.341074 0)
(0.288517 0.313944 0)
(0.289036 0.291842 0)
(0.292402 0.272892 0)
(0.298844 0.25537 0)
(0.307749 0.23727 0)
(0.319475 0.216832 0)
(0.331461 0.193514 0)
(0.343642 0.167262 0)
(0.354426 0.137284 0)
(0.362656 0.104527 0)
(0.36641 0.0692309 0)
(0.368282 0.0343654 0)
(0.363637 -0.00169403 0)
(0.35728 -0.0381202 0)
(0.344366 -0.0725996 0)
(0.329876 -0.102652 0)
(0.0448363 0.58059 0)
(0.111249 0.582923 0)
(0.185762 0.521802 0)
(0.221845 0.462981 0)
(0.241804 0.413082 0)
(0.252716 0.372812 0)
(0.258564 0.339298 0)
(0.262854 0.311842 0)
(0.267153 0.288208 0)
(0.27259 0.266777 0)
(0.279615 0.247262 0)
(0.287968 0.227163 0)
(0.297411 0.205832 0)
(0.306857 0.182475 0)
(0.316221 0.157207 0)
(0.323842 0.12901 0)
(0.329935 0.0989844 0)
(0.332565 0.0673425 0)
(0.333675 0.0357004 0)
(0.330261 0.00298251 0)
(0.324401 -0.0296363 0)
(0.313523 -0.0594844 0)
(0.301394 -0.0875426 0)
(0.0342359 0.515954 0)
(0.085591 0.515277 0)
(0.1451 0.474626 0)
(0.178798 0.434083 0)
(0.202266 0.395913 0)
(0.217928 0.362125 0)
(0.228672 0.332063 0)
(0.236851 0.30587 0)
(0.244067 0.282166 0)
(0.251123 0.260195 0)
(0.258542 0.239651 0)
(0.266612 0.21892 0)
(0.274707 0.197102 0)
(0.282763 0.174024 0)
(0.290192 0.149484 0)
(0.296337 0.123136 0)
(0.301204 0.0955017 0)
(0.302691 0.0663767 0)
(0.302787 0.0375583 0)
(0.299256 0.00815064 0)
(0.293866 -0.0213042 0)
(0.285007 -0.0492412 0)
(0.27519 -0.0754615 0)
(0.0275377 0.464395 0)
(0.0677606 0.462212 0)
(0.115679 0.434008 0)
(0.146436 0.405113 0)
(0.170516 0.375656 0)
(0.188327 0.34758 0)
(0.201753 0.321158 0)
(0.212277 0.296862 0)
(0.221342 0.273976 0)
(0.229384 0.252285 0)
(0.237138 0.231454 0)
(0.244874 0.210653 0)
(0.252147 0.189022 0)
(0.259053 0.166565 0)
(0.265179 0.142932 0)
(0.269935 0.118193 0)
(0.273391 0.0923903 0)
(0.274423 0.0656136 0)
(0.274156 0.0387042 0)
(0.271294 0.0117853 0)
(0.266743 -0.0148125 0)
(0.259121 -0.0402704 0)
(0.250642 -0.0649617 0)
(0.0222236 0.422547 0)
(0.0553507 0.41996 0)
(0.0942021 0.399639 0)
(0.121838 0.378254 0)
(0.144918 0.355149 0)
(0.163176 0.331831 0)
(0.177691 0.308837 0)
(0.189447 0.286687 0)
(0.19948 0.265216 0)
(0.208138 0.244341 0)
(0.216084 0.22394 0)
(0.223509 0.203551 0)
(0.23025 0.182546 0)
(0.236383 0.160746 0)
(0.241557 0.138215 0)
(0.245341 0.114762 0)
(0.248057 0.0906787 0)
(0.248808 0.0658393 0)
(0.248213 0.0409363 0)
(0.245392 0.0158783 0)
(0.241202 -0.00893784 0)
(0.234661 -0.0328264 0)
(0.22746 -0.0559827 0)
(0.0182364 0.387839 0)
(0.0459889 0.385186 0)
(0.0781081 0.369847 0)
(0.102664 0.35336 0)
(0.124004 0.334854 0)
(0.141709 0.315312 0)
(0.156338 0.295324 0)
(0.16854 0.275367 0)
(0.178898 0.255533 0)
(0.187812 0.235813 0)
(0.195683 0.216172 0)
(0.202819 0.196473 0)
(0.209113 0.176281 0)
(0.214554 0.155417 0)
(0.218993 0.134018 0)
(0.222234 0.111845 0)
(0.224358 0.0890756 0)
(0.224882 0.0657479 0)
(0.224097 0.0423851 0)
(0.221546 0.0190729 0)
(0.21772 -0.00386944 0)
(0.21192 -0.0262357 0)
(0.205519 -0.0481033 0)
(0.0151484 0.358844 0)
(0.0387165 0.35643 0)
(0.0656951 0.344461 0)
(0.0873944 0.33137 0)
(0.106753 0.316242 0)
(0.123366 0.299706 0)
(0.137481 0.282222 0)
(0.149506 0.26425 0)
(0.15979 0.245969 0)
(0.168658 0.227504 0)
(0.176308 0.208815 0)
(0.183054 0.18995 0)
(0.188831 0.170603 0)
(0.193651 0.150629 0)
(0.197508 0.130234 0)
(0.200282 0.109322 0)
(0.201917 0.0878764 0)
(0.202332 0.0660938 0)
(0.20142 0.0442479 0)
(0.199042 0.0223756 0)
(0.195456 0.000741915 0)
(0.190338 -0.0204363 0)
(0.184666 -0.0411532 0)
(0.0127125 0.334253 0)
(0.032867 0.331994 0)
(0.0557722 0.322166 0)
(0.0748633 0.311472 0)
(0.0922321 0.298879 0)
(0.107508 0.284693 0)
(0.120772 0.269363 0)
(0.132226 0.253264 0)
(0.14209 0.236572 0)
(0.150618 0.219418 0)
(0.157909 0.201857 0)
(0.164199 0.183933 0)
(0.169546 0.16555 0)
(0.173923 0.146652 0)
(0.177337 0.127362 0)
(0.179722 0.107498 0)
(0.180981 0.0870857 0)
(0.181053 0.0664088 0)
(0.179949 0.0457897 0)
(0.17774 0.0252143 0)
(0.174472 0.00483363 0)
(0.169948 -0.0152092 0)
(0.164776 -0.0348975 0)
(0.0106957 0.313373 0)
(0.0280854 0.31131 0)
(0.0476319 0.303152 0)
(0.0643851 0.294238 0)
(0.0798443 0.283522 0)
(0.0936734 0.271199 0)
(0.105859 0.25759 0)
(0.116503 0.243009 0)
(0.125739 0.227662 0)
(0.133718 0.2117 0)
(0.140555 0.195219 0)
(0.146378 0.178286 0)
(0.151267 0.160921 0)
(0.15518 0.142979 0)
(0.158142 0.124607 0)
(0.16014 0.105832 0)
(0.161127 0.0867052 0)
(0.161124 0.0672614 0)
(0.159989 0.0476236 0)
(0.157776 0.0279685 0)
(0.154624 0.00856473 0)
(0.1505 -0.0105291 0)
(0.145702 -0.029295 0)
(0.00905683 0.295584 0)
(0.0240639 0.293474 0)
(0.0408939 0.286297 0)
(0.0555436 0.278658 0)
(0.0691882 0.269392 0)
(0.0815384 0.258575 0)
(0.0925194 0.246453 0)
(0.102202 0.23328 0)
(0.110608 0.219309 0)
(0.117864 0.204594 0)
(0.124073 0.189196 0)
(0.129274 0.1732 0)
(0.133508 0.156625 0)
(0.136901 0.139553 0)
(0.139471 0.122105 0)
(0.141154 0.104286 0)
(0.14194 0.0860266 0)
(0.141747 0.0676249 0)
(0.140658 0.0492889 0)
(0.138736 0.0308208 0)
(0.135792 0.0122853 0)
(0.131985 -0.00609914 0)
(0.12748 -0.0241573 0)
(0.00767822 0.280252 0)
(0.0206946 0.278367 0)
(0.0349967 0.272201 0)
(0.047739 0.265647 0)
(0.0596753 0.257547 0)
(0.0706104 0.247929 0)
(0.0804411 0.237057 0)
(0.0891542 0.225098 0)
(0.0968319 0.212131 0)
(0.103475 0.198367 0)
(0.109139 0.183918 0)
(0.113874 0.168892 0)
(0.117741 0.15331 0)
(0.120704 0.137164 0)
(0.122732 0.120527 0)
(0.123874 0.103439 0)
(0.124098 0.0860573 0)
(0.123536 0.0684394 0)
(0.122221 0.0505738 0)
(0.120076 0.0328472 0)
(0.117389 0.0153982 0)
(0.114023 -0.00201394 0)
(0.109861 -0.0193871 0)
(0.00641736 0.267265 0)
(0.0176692 0.264985 0)
(0.0300631 0.259196 0)
(0.0411598 0.253313 0)
(0.0515733 0.24607 0)
(0.0611752 0.237472 0)
(0.0698468 0.227658 0)
(0.0775949 0.216772 0)
(0.0843385 0.204955 0)
(0.090167 0.192314 0)
(0.0950857 0.178918 0)
(0.0990948 0.164816 0)
(0.102323 0.15009 0)
(0.104754 0.134832 0)
(0.106435 0.119117 0)
(0.107362 0.103052 0)
(0.107597 0.0866603 0)
(0.106978 0.0698625 0)
(0.105389 0.0529172 0)
(0.10315 0.0357598 0)
(0.100099 0.0184519 0)
(0.0965862 0.00151875 0)
(0.0926681 -0.0151072 0)
(0.00552582 0.256207 0)
(0.015165 0.254273 0)
(0.0253915 0.249384 0)
(0.0346763 0.244376 0)
(0.0434196 0.237929 0)
(0.0515148 0.230062 0)
(0.0589567 0.220961 0)
(0.0656997 0.210777 0)
(0.0717743 0.199633 0)
(0.0770887 0.187663 0)
(0.0816116 0.174948 0)
(0.0853312 0.161576 0)
(0.0882037 0.147566 0)
(0.0902488 0.132997 0)
(0.091529 0.117957 0)
(0.0920008 0.102483 0)
(0.0917261 0.0866134 0)
(0.0907505 0.0705985 0)
(0.0892377 0.0544868 0)
(0.0870916 0.038218 0)
(0.0841938 0.021951 0)
(0.0806204 0.00537323 0)
(0.0764464 -0.0111558 0)
(0.00470078 0.246541 0)
(0.0129025 0.244216 0)
(0.0216675 0.239158 0)
(0.0298964 0.234375 0)
(0.0376073 0.228399 0)
(0.0447837 0.221203 0)
(0.0513606 0.212883 0)
(0.05729 0.20357 0)
(0.0625739 0.193374 0)
(0.0671672 0.182416 0)
(0.071058 0.170786 0)
(0.0742103 0.158471 0)
(0.0765946 0.145495 0)
(0.0781998 0.131917 0)
(0.0790413 0.117848 0)
(0.0790942 0.103283 0)
(0.0783929 0.0883331 0)
(0.0770043 0.0730445 0)
(0.0749067 0.0573778 0)
(0.0721804 0.0415467 0)
(0.069033 0.0256019 0)
(0.065505 0.00972068 0)
(0.0613111 -0.00610174 0)
(0.00394418 0.238536 0)
(0.0107513 0.236976 0)
(0.0171563 0.232945 0)
(0.0231051 0.228859 0)
(0.0286409 0.223435 0)
(0.0338765 0.21673 0)
(0.0385808 0.208811 0)
(0.042812 0.199852 0)
(0.0465096 0.190012 0)
(0.0497239 0.179371 0)
(0.0524492 0.168027 0)
(0.0546974 0.156054 0)
(0.0564666 0.143498 0)
(0.0577126 0.130434 0)
(0.0584755 0.116866 0)
(0.0587714 0.102878 0)
(0.0585331 0.0884725 0)
(0.0577705 0.0737196 0)
(0.0564556 0.0586959 0)
(0.0545962 0.0435314 0)
(0.0521386 0.0282127 0)
(0.0491304 0.0127173 0)
(0.045262 -0.00282271 0)
(0.00361393 0.23168 0)
(0.00886906 0.229992 0)
(0.0138457 0.225981 0)
(0.0185439 0.222032 0)
(0.022717 0.216892 0)
(0.0267457 0.210724 0)
(0.0303014 0.203441 0)
(0.0334849 0.195198 0)
(0.0362338 0.186073 0)
(0.0385901 0.176128 0)
(0.0405619 0.165485 0)