/*--------------------------------*- C++ -*----------------------------------*\
| =========                 |                                                 |
| \\      /  F ield         | OpenFOAM: The Open Source CFD Toolbox           |
|  \\    /   O peration     | Version:  2.4.0                                 |
|   \\  /    A nd           | Web:      www.OpenFOAM.org                      |
|    \\/     M anipulation  |                                                 |
\*---------------------------------------------------------------------------*/
FoamFile
{
    version     2.0;
    format      ascii;
    class       volScalarField;
    location    "0.8";
    object      alphas;
}
// * * * * * * * * * * * * * * * * * * * * * * * * * * * * * * * * * * * * * //

dimensions      [0 0 0 0 0 0 0];

internalField   nonuniform List<scalar> 
575
(
2
2
2
2
2
2
2
2
2
2
2
2
2
2
2
2
2
2
2
2
2
1.99999
1.99882
1.99886
1.99945
1.99979
1.99992
1.99998
2
2
2
2
2
2
2
2
2
2
2
2
2
2
2
1.99999
1.71696
1.73641
1.77973
1.86303
1.94983
1.99359
1.99971
1.99998
2
2
2
2
2
2
2
2
2
2
2
2
2
2
0.0877611
0.0958705
0.113371
0.159482
0.291921
0.663634
1.30744
1.91005
1.99731
1.99983
1.99998
2
2
2
2
2
2
2
2
2
2
2
9.91425e-06
9.85314e-06
9.84706e-06
9.8523e-06
0.000917362
0.0117234
0.137211
1.05247
1.91634
1.99632
1.99972
1.99994
1.99997
1.99998
1.99999
1.99999
1.99999
2
2
2
1.99999
1.99999
1.14778e-05
1.06269e-05
1.00523e-05
1.00761e-05
1.00768e-05
2.54502e-05
0.00977507
0.3752
1.55543
1.96394
1.99707
1.99963
1.99988
1.99939
1.99698
1.99534
1.9961
1.99855
1.9994
1.99955
1.99901
1.99761
1.38921e-05
1.30659e-05
1.18516e-05
1.18508e-05
1.10484e-05
1.73888e-05
0.00473126
0.189264
1.11287
1.88047
1.9904
1.99733
1.98803
1.93155
1.83385
1.78744
1.79748
1.86149
1.90319
1.91898
1.90093
1.84616
8.24783e-06
7.61946e-06
7.4056e-06
8.77641e-06
9.51926e-06
1.10481e-05
0.00099443
0.0599132
0.544949
1.45674
1.84115
1.83174
1.61551
1.21709
0.884526
0.754327
0.72335
0.767496
0.813344
0.845303
0.843921
0.776695
3.64281e-06
3.91699e-06
4.21186e-06
4.86575e-06
6.02208e-06
1.25183e-05
8.77765e-05
0.00801435
0.0838673
0.251682
0.430605
0.508624
0.396927
0.201376
0.106928
0.0774503
0.0614985
0.0593256
0.0568442
0.0563189
0.0599083
0.064268
1.97616e-06
6.6618e-05
0.000536534
0.000227343
0.000102803
0.000274399
0.000176862
0.000402143
0.00254374
0.0083616
0.0114786
0.00637039
0.00563064
0.00400721
0.00737902
0.0183885
0.0314206
0.0446838
0.0534295
0.0580984
0.0531637
0.0541472
0.000188032
0.0101538
0.0399779
0.0227828
0.00682275
0.00718293
0.00446363
0.00160319
0.00109934
0.00131757
0.00138869
0.00130769
0.00658373
0.0434054
0.122055
0.192332
0.240566
0.253742
0.243238
0.244668
0.246335
0.251045
0.0248627
0.20696
0.397249
0.292055
0.117412
0.0873274
0.0514633
0.0295908
0.0213763
0.0183184
0.0235142
0.0754934
0.188361
0.426962
0.731479
1.22046
1.47073
1.37897
0.858827
0.659536
0.645783
0.650898
0.267911
0.742222
0.844154
0.72656
0.511207
0.415633
0.3474
0.31795
0.327508
0.362803
0.537594
0.711143
1.20728
2.02565
2.64227
2.90542
2.59158
1.57901
0.987736
0.922115
0.915711
0.964299
0.615095
0.918578
1.00836
0.942864
0.897298
0.845726
0.824249
0.845993
0.981297
1.24611
2.08846
2.79699
2.99378
2.99989
2.99796
2.97068
2.40055
1.22249
0.985363
0.94479
0.963832
1.10192
1.26228
1.89942
2.32236
2.47033
2.53016
2.52414
2.53634
2.6954
2.88731
2.97616
2.99884
2.99974
2.99999
3
2.99999
2.99758
2.87231
2.06723
1.15442
1.06211
1.0618
1.50739
2.72562
2.93337
2.98201
2.99234
2.99606
2.99661
2.99785
2.99893
2.99949
2.99994
3
3
3
3
3
2.99998
2.99757
2.91834
2.14062
1.22129
1.18207
2.15656
2.99549
2.99956
2.99997
2.99999
3
3
3
3
3
3
3
3
3
3
3
3
2.99999
2.99855
2.89077
2.34682
2.06421
2.76419
2.9992
2.99999
3
3
3
3
3
3
3
3
3
3
3
3
3
3
3
3
2.99996
2.99492
2.95378
2.91038
2.97585
2.9999
3
3
3
3
3
3
3
3
3
3
3
3
3
3
3
3
3
3
2.99995
2.99943
2.99872
2.99941
2.99999
3
3
3
3
3
3
3
3
3
3
3
3
3
3
3
3
3
3
3
3
3
3
3
3
3
3
3
3
3
3
3
3
3
3
3
3
3
3
3
3
3
3
3
3
3
3
3
3
3
3
3
3
3
3
3
3
3
3
3
3
3
3
3
3
3
3
3
3
3
3
3
3
3
3
3
3
3
3
3
3
3
3
3
3
3
3
3
3
3
3
3
3
3
3
3
3
3
3
3
3
3
3
3
3
3
3
3
3
3
3
3
3
3
3
3
3
3
3
3
3
3
3
3
3
3
3
3
3
3
3
3
3
3
3
3
3
3
3
3
3
3
3
3
3
3
3
3
3
3
3
3
3
3
3
)
;

boundaryField
{
    leftWall
    {
        type            zeroGradient;
    }
    rightWall
    {
        type            zeroGradient;
    }
    lowerWall
    {
        type            zeroGradient;
    }
    atmosphere
    {
        type            zeroGradient;
    }
    defaultFaces
    {
        type            empty;
    }
    procBoundary0to1
    {
        type            processor;
        value           nonuniform List<scalar> 
26
(
1.99999
1.99999
1.99999
1.99999
1.99998
1.99341
1.73296
0.679241
0.140028
0.0773591
0.323605
0.805748
1.05179
1.79726
2.80665
2.98769
2.98769
3
3
3
3
3
3
3
3
3
)
;
    }
    procBoundary0to2
    {
        type            processor;
        value           nonuniform List<scalar> 
24
(
3
3
3
3
3
3
3
3
3
3
3
3
3
3
3
3
3
3
3
3
3
3
3
3
)
;
    }
}


// ************************************************************************* //
