/*--------------------------------*- C++ -*----------------------------------*\
| =========                 |                                                 |
| \\      /  F ield         | OpenFOAM: The Open Source CFD Toolbox           |
|  \\    /   O peration     | Version:  2.4.0                                 |
|   \\  /    A nd           | Web:      www.OpenFOAM.org                      |
|    \\/     M anipulation  |                                                 |
\*---------------------------------------------------------------------------*/
FoamFile
{
    version     2.0;
    format      ascii;
    class       volScalarField;
    location    "0.8";
    object      alpha.mercury;
}
// * * * * * * * * * * * * * * * * * * * * * * * * * * * * * * * * * * * * * //

dimensions      [0 0 0 0 0 0 0];

internalField   nonuniform List<scalar> 
575
(
1
1
1
1
1
1
1
1
1
1
1
1
1
1
1
1
1
1
1
1
0.999999
0.999995
0.999411
0.999428
0.999725
0.999897
0.99996
0.999991
0.999999
1
1
1
1
1
1
1
1
1
1
1
1
1
0.999999
0.999995
0.858478
0.868204
0.889864
0.931514
0.974916
0.996795
0.999856
0.999989
0.999998
0.999999
0.999999
1
1
1
1
1
1
1
1
1
1
0.999998
0.0438805
0.0479352
0.0566853
0.0797408
0.14596
0.331817
0.65372
0.955025
0.998654
0.999914
0.999989
0.999998
0.999999
0.999999
0.999999
1
1
1
0.999999
0.999999
0.999999
0.999996
4.95704e-06
4.92649e-06
4.92344e-06
4.92606e-06
0.000458681
0.0058617
0.0686055
0.526237
0.958172
0.99816
0.999861
0.99997
0.999985
0.99999
0.999994
0.999993
0.999995
0.999998
0.999998
0.999998
0.999996
0.999992
5.73883e-06
5.31335e-06
5.02607e-06
5.03796e-06
5.03819e-06
1.27248e-05
0.00488753
0.1876
0.777717
0.98197
0.998536
0.999817
0.99994
0.999694
0.998485
0.997665
0.998048
0.999275
0.999701
0.999776
0.999506
0.998801
6.94595e-06
6.53285e-06
5.9257e-06
5.92524e-06
5.52225e-06
8.68904e-06
0.00236563
0.0946319
0.556434
0.940237
0.9952
0.998663
0.994011
0.965771
0.91692
0.893714
0.898734
0.930743
0.951591
0.959486
0.950462
0.923071
4.12336e-06
3.80656e-06
3.70019e-06
4.38582e-06
4.72085e-06
5.46156e-06
0.000497214
0.0299566
0.272474
0.72837
0.920574
0.915864
0.807746
0.608539
0.442258
0.377143
0.361613
0.383526
0.406256
0.422246
0.421799
0.387803
1.66599e-06
1.6718e-06
1.52448e-06
2.03688e-06
2.5338e-06
2.60179e-06
4.06621e-05
0.00400591
0.0419333
0.125841
0.215302
0.25431
0.198451
0.10061
0.0528052
0.0364026
0.0266766
0.0230241
0.0195424
0.0187483
0.0222522
0.0229289
2.59073e-07
2.36564e-07
2.08506e-07
3.08839e-07
5.63586e-07
5.56129e-07
2.52029e-06
0.00015413
0.00125014
0.00416624
0.00572699
0.00316932
0.00256006
0.000932487
0.000270186
0.000100185
5.8135e-05
5.07513e-05
4.61908e-05
4.12148e-05
3.85824e-05
3.03394e-05
2.99494e-08
2.0825e-08
1.30235e-08
1.86702e-08
5.29675e-08
6.44541e-08
1.48552e-07
5.02089e-06
0.000168517
0.000385876
0.00045811
0.000210167
9.16312e-05
3.52541e-05
1.30581e-05
6.0565e-06
3.90713e-06
3.71271e-06
3.98586e-06
4.19651e-06
3.96129e-06
3.99515e-06
1.58822e-09
7.26338e-10
3.02831e-10
6.12729e-10
2.92018e-09
4.765e-09
1.23273e-08
2.41027e-08
1.93083e-06
5.9346e-06
4.11558e-06
1.77958e-06
7.05975e-07
4.2539e-07
6.73717e-07
7.85828e-07
8.46846e-07
1.24141e-06
2.48991e-06
3.23941e-06
3.31045e-06
5.43883e-06
1.12795e-10
2.22915e-11
3.70938e-11
5.8127e-11
1.25645e-10
2.6588e-10
5.50042e-10
5.64053e-10
1.53049e-09
7.25964e-09
3.83166e-09
2.3273e-09
8.07585e-10
8.19755e-10
4.42425e-09
5.43327e-09
8.6605e-08
7.65399e-07
1.78578e-06
2.16105e-06
3.94947e-06
9.80413e-06
1.92111e-11
1.65623e-11
2.40892e-11
2.71544e-11
2.64487e-11
3.25329e-11
3.99626e-11
4.18362e-11
4.78161e-11
3.07813e-11
1.82851e-11
8.38755e-12
1.21525e-12
1.41019e-12
2.66003e-12
1.12235e-09
8.84782e-08
8.25026e-07
1.99361e-06
2.94041e-06
4.04694e-06
7.48122e-06
1.16699e-11
9.44449e-12
1.13172e-11
1.08577e-11
9.61649e-12
9.8037e-12
1.05525e-11
9.36801e-12
5.59299e-12
2.75302e-12
1.40646e-12
1.26912e-12
1.28777e-12
1.61928e-12
2.22593e-12
4.31004e-11
7.0881e-09
1.98298e-07
1.30363e-06
2.57438e-06
3.01738e-06
3.0506e-06
7.15492e-12
5.33018e-12
4.57367e-12
3.15906e-12
1.61128e-12
1.1034e-12
9.25108e-13
1.73107e-12
2.86627e-12
2.45067e-12
1.54193e-12
8.18406e-13
5.90981e-13
1.03892e-12
1.8426e-12
3.31507e-12
7.2411e-11
1.53518e-08
3.8132e-07
1.365e-06
1.6902e-06
8.05164e-07
5.31117e-12
4.00927e-12
2.46672e-12
1.39727e-12
5.13195e-13
1.70686e-13
1.14439e-13
6.08574e-13
1.44183e-12
1.48489e-12
7.00277e-13
1.45421e-13
2.70393e-13
6.99728e-13
1.53153e-12
3.06778e-12
5.34417e-12
2.6664e-10
2.90267e-08
2.3685e-07
3.96634e-07
1.0508e-07
4.06879e-10
4.23127e-12
3.70852e-12
2.21331e-12
8.45041e-13
1.40395e-13
2.67609e-14
3.1435e-14
2.79497e-13
7.91123e-13
8.73732e-13
4.19684e-13
3.69694e-14
2.09457e-14
1.34851e-13
5.65741e-13
1.90037e-12
4.89812e-12
1.05481e-11
5.08385e-10
7.24771e-09
1.66897e-08
5.40932e-09
1.72563e-10
3.08381e-12
3.20033e-12
2.01741e-12
9.74626e-13
3.94425e-13
7.53506e-14
1.80759e-14
1.25119e-13
4.72717e-13
5.76356e-13
2.65891e-13
7.95064e-14
2.75e-14
1.05451e-13
4.99461e-13
1.80512e-12
5.08874e-12
1.09759e-11
1.89261e-11
4.88216e-11
1.54877e-10
1.61484e-10
1.40652e-10
2.00951e-12
2.40238e-12
1.3734e-12
4.75289e-13
6.71004e-14
8.48939e-15
3.65241e-15
4.79399e-14
2.84911e-13
3.64495e-13
1.56394e-13
3.97512e-14
9.01779e-15
3.70507e-14
2.90635e-13
1.44217e-12
4.92996e-12
1.2124e-11
2.22988e-11
3.07225e-11
3.08134e-11
3.92793e-11
1.22602e-10
1.21369e-12
1.48615e-12
7.54591e-13
2.37216e-13
4.57593e-14
3.99108e-15
4.36615e-15
2.58321e-14
1.68614e-13
2.07148e-13
8.98438e-14
2.22857e-14
3.2175e-15
2.08937e-14
1.83185e-13
1.00991e-12
3.94202e-12
1.12525e-11
2.32228e-11
3.50226e-11
3.69483e-11
3.86112e-11
1.04326e-10
6.94726e-13
7.28457e-13
3.26221e-13
8.85153e-14
1.47084e-14
1.24596e-15
1.67827e-15
1.30418e-14
8.26383e-14
9.94713e-14
4.13422e-14
8.2784e-15
1.18419e-15
8.5956e-15
8.20176e-14
5.26082e-13
2.40195e-12
8.03953e-12
1.9668e-11
3.52081e-11
4.25574e-11
4.28976e-11
7.37638e-11
3.60399e-13
2.93923e-13
1.16827e-13
2.87997e-14
4.3931e-15
3.51994e-16
5.46299e-16
5.26862e-15
3.09764e-14
3.91628e-14
1.53755e-14
2.63015e-15
4.16464e-16
3.14253e-15
3.06845e-14
2.13985e-13
1.10323e-12
4.25414e-12
1.22111e-11
2.7382e-11
4.259e-11
4.58829e-11
6.26533e-11
1.57344e-13
1.00682e-13
3.51909e-14
7.91393e-15
1.11474e-15
8.55738e-17
1.36601e-16
1.62568e-15
9.37461e-15
1.29551e-14
5.17502e-15
8.52712e-16
1.16635e-16
8.07779e-16
8.47813e-15
6.51097e-14
3.77528e-13
1.66583e-12
5.6763e-12
1.48476e-11
3.24264e-11
4.09876e-11
5.09653e-11
5.61005e-14
2.90838e-14
8.94367e-15
1.83681e-15
2.40302e-16
1.78368e-17
3.0494e-17
4.1137e-16
2.45187e-15
3.72755e-15
1.59271e-15
2.68631e-16
2.90327e-17
1.45083e-16
1.65625e-15
1.42723e-14
9.50811e-14
4.98336e-13
2.09433e-12
6.58963e-12
1.5243e-11
2.3654e-11
2.91262e-11
1.66147e-14
7.16285e-15
1.96677e-15
3.7225e-16
4.57452e-17
3.32071e-18
6.30895e-18
9.35664e-17
5.73908e-16
9.5296e-16
4.43758e-16
8.03983e-17
8.27952e-18
2.41262e-17
2.81646e-16
2.64225e-15
)
;

boundaryField
{
    leftWall
    {
        type            zeroGradient;
    }
    rightWall
    {
        type            zeroGradient;
    }
    lowerWall
    {
        type            zeroGradient;
    }
    atmosphere
    {
        type            inletOutlet;
        inletValue      nonuniform 0();
        value           nonuniform 0();
    }
    defaultFaces
    {
        type            empty;
    }
    procBoundary0to1
    {
        type            processor;
        value           nonuniform List<scalar> 
26
(
0.999991
0.999988
0.999988
0.999988
0.999981
0.996699
0.866352
0.336106
0.0486912
2.15949e-05
9.46883e-06
2.93636e-05
3.06036e-05
1.09852e-05
6.82877e-07
1.16442e-08
1.16442e-08
1.32683e-10
1.35325e-10
1.40765e-10
1.40541e-10
1.37759e-10
1.06688e-10
8.26342e-11
5.74598e-11
2.8775e-11
)
;
    }
    procBoundary0to2
    {
        type            processor;
        value           nonuniform List<scalar> 
24
(
2.01705e-14
1.23605e-13
6.16844e-13
2.30371e-12
6.21948e-12
9.84655e-12
1.22872e-11
4.20747e-15
1.53317e-15
3.82054e-16
6.73281e-17
7.85011e-18
5.59518e-19
1.20178e-18
1.92763e-17
1.22178e-16
2.18717e-16
1.10368e-16
2.16114e-17
2.32456e-18
3.92218e-18
4.54828e-17
2.01705e-14
4.51954e-16
)
;
    }
}


// ************************************************************************* //
