/*--------------------------------*- C++ -*----------------------------------*\
| =========                 |                                                 |
| \\      /  F ield         | OpenFOAM: The Open Source CFD Toolbox           |
|  \\    /   O peration     | Version:  2.4.0                                 |
|   \\  /    A nd           | Web:      www.OpenFOAM.org                      |
|    \\/     M anipulation  |                                                 |
\*---------------------------------------------------------------------------*/
FoamFile
{
    version     2.0;
    format      ascii;
    class       volScalarField;
    location    "0.8";
    object      alpha.air;
}
// * * * * * * * * * * * * * * * * * * * * * * * * * * * * * * * * * * * * * //

dimensions      [0 0 0 0 0 0 0];

internalField   nonuniform List<scalar> 
575
(
8.37677e-12
1.06572e-11
6.2728e-12
6.614e-12
8.03332e-12
5.66783e-12
3.64312e-12
2.30105e-12
1.73441e-12
1.27844e-12
7.11011e-13
3.08977e-13
1.40644e-13
1.0081e-13
8.42193e-14
5.93368e-14
3.66528e-14
2.6159e-14
2.53886e-14
3.08784e-14
1.97429e-14
4.69456e-15
4.55277e-11
5.38285e-11
4.17197e-11
4.51568e-11
4.85771e-11
3.76362e-11
2.64135e-11
1.70041e-11
1.19622e-11
8.14356e-12
4.18079e-12
1.72891e-12
8.30902e-13
6.11305e-13
4.79172e-13
3.30762e-13
2.14971e-13
1.62973e-13
1.62852e-13
1.7794e-13
1.25351e-13
4.13646e-14
1.50461e-10
1.60082e-10
1.36342e-10
1.29829e-10
1.24874e-10
8.58827e-11
4.26957e-11
2.55663e-11
2.11836e-11
1.69463e-11
1.06326e-11
5.6254e-12
3.14218e-12
2.08638e-12
1.46054e-12
9.96521e-13
6.92826e-13
5.4727e-13
5.26782e-13
5.14125e-13
4.30782e-13
2.70473e-13
1.40259e-10
1.58405e-10
1.61848e-10
1.92314e-10
2.51484e-10
2.60618e-10
2.60524e-10
1.79279e-10
8.96693e-11
5.72821e-11
3.12947e-11
1.19988e-11
6.36627e-12
4.44787e-12
3.11988e-12
2.18791e-12
1.61414e-12
1.26747e-12
1.10956e-12
1.09488e-12
1.68914e-12
1.88308e-12
5.67208e-11
5.6735e-11
5.70977e-11
5.77293e-11
5.77883e-11
6.68218e-11
9.87925e-11
1.86052e-10
1.6652e-10
9.18365e-11
4.8012e-11
2.54492e-11
1.49816e-11
8.79379e-12
5.32531e-12
3.64625e-12
2.80308e-12
2.2731e-12
2.04382e-12
3.3537e-12
8.38762e-12
7.29715e-12
5.6942e-11
5.70635e-11
5.90081e-11
6.63599e-11
7.50235e-11
9.02358e-11
9.03186e-11
1.41356e-10
1.98571e-10
1.41553e-10
6.4278e-11
3.70483e-11
2.07335e-11
1.0714e-11
5.97183e-12
4.31179e-12
3.72887e-12
3.65956e-12
7.30744e-12
2.31186e-11
1.25052e-10
3.31221e-10
6.05746e-11
5.86072e-11
6.58329e-11
6.6929e-11
1.21398e-10
2.31787e-10
1.33986e-10
1.63133e-10
2.15353e-10
1.60679e-10
6.03786e-11
3.94497e-11
2.6135e-11
9.60576e-12
5.24631e-12
4.39752e-12
5.89747e-12
7.71868e-10
8.84235e-09
1.33109e-08
1.31069e-08
2.08656e-08
3.73167e-10
2.1149e-09
1.73888e-09
8.60706e-11
4.38282e-10
7.50525e-10
2.85897e-10
2.61497e-10
3.74762e-10
4.33546e-10
3.47549e-10
3.24278e-10
1.80937e-11
9.67773e-12
2.12783e-10
4.11218e-10
4.69295e-09
1.53526e-07
5.15e-07
5.09533e-07
2.75938e-07
3.59325e-07
1.03311e-07
8.26096e-08
4.71762e-08
1.67221e-08
3.11488e-09
2.12832e-09
5.51068e-10
4.91734e-10
7.01462e-10
9.43892e-10
1.24822e-09
1.35874e-09
2.31481e-09
2.88786e-08
2.75198e-07
7.3591e-07
1.35927e-06
2.21067e-06
2.60928e-06
2.60328e-06
2.64326e-06
2.91995e-06
4.1583e-07
2.6954e-07
1.55108e-07
5.80282e-08
1.17706e-08
4.55581e-09
1.13327e-09
7.70053e-10
9.50652e-10
1.06426e-09
1.06539e-09
1.06798e-09
4.19264e-08
1.93961e-06
1.16501e-06
3.18202e-06
5.16858e-06
3.80293e-06
2.76272e-06
4.21874e-06
1.00234e-05
1.43127e-05
5.26093e-07
4.30281e-07
5.00462e-07
2.98421e-07
1.86594e-07
8.45052e-08
2.42947e-08
8.83709e-09
2.02625e-09
1.4474e-09
1.31101e-09
8.87523e-09
6.6913e-07
0.00012199
0.000855715
0.00346765
0.00466338
0.00301957
0.0017273
0.000641526
0.00051266
0.000652638
8.31741e-07
1.06075e-06
1.64906e-06
1.02141e-06
1.87486e-07
1.5641e-07
4.67097e-08
9.97734e-09
3.15482e-09
2.18752e-09
7.91149e-07
5.74311e-05
0.00177947
0.0348094
0.115602
0.278519
0.360007
0.314018
0.0883867
0.00322974
0.00071678
0.00795305
1.43313e-05
3.53116e-05
4.93785e-07
2.85263e-07
7.26047e-08
5.59628e-08
1.5627e-08
3.64831e-09
4.33708e-09
9.16991e-05
0.0131607
0.0522159
0.217656
0.544932
0.826606
0.953257
0.800369
0.307996
0.0295135
0.00401535
0.00865098
0.0326728
0.000986343
0.0233836
0.0533123
0.0314791
0.0197225
0.0163114
0.0148683
0.0236613
0.0687304
0.164437
0.554343
0.899827
0.996937
0.999946
0.998982
0.985353
0.70147
0.123923
0.0222083
0.00868284
0.0150302
0.0657927
0.216834
0.459561
0.665775
0.73972
0.770657
0.769841
0.776507
0.852844
0.944615
0.988211
0.999425
0.999873
0.999994
0.999998
0.999997
0.998791
0.936205
0.535139
0.0861871
0.0477895
0.0476853
0.25893
0.867523
0.967093
0.991034
0.996187
0.998043
0.998322
0.998937
0.999471
0.999748
0.999969
0.999999
0.999999
0.999999
0.999999
0.999999
0.999989
0.998785
0.959206
0.571053
0.113388
0.0946994
0.579544
0.997774
0.999782
0.999984
0.999997
0.999999
0.999999
0.999999
1
0.999999
0.999999
0.999999
0.999999
0.999999
0.999999
0.999999
0.999999
0.999997
0.999277
0.945395
0.673509
0.532301
0.882181
0.999599
0.999995
0.999999
0.999999
0.999999
0.999999
0.999999
1
1
1
0.999999
0.999999
0.999999
0.999999
0.999999
0.999999
0.999999
1
0.999981
0.997461
0.97689
0.955191
0.987925
0.999949
0.999999
0.999999
0.999999
0.999999
0.999999
0.999999
1
1
1
1
1
1
0.999999
0.999999
0.999999
1
1
1
0.999972
0.999712
0.999361
0.999703
0.999996
0.999999
0.999999
0.999999
0.999999
0.999999
0.999999
1
1
1
1
1
1
0.999999
0.999999
0.999999
1
1
1
1
1
1
0.999999
1
0.999999
0.999999
0.999999
0.999999
0.999999
0.999999
1
1
1
1
1
1
0.999999
0.999999
1
1
1
1
1
1
1
1
1
0.999999
0.999999
0.999999
0.999999
0.999999
0.999999
1
1
1
1
1
1
0.999999
1
1
1
1
1
1
1
1
1
1
0.999999
0.999999
0.999999
0.999999
0.999999
0.999999
1
1
1
1
1
1
0.999999
1
1
1
1
1
1
1
1
1
1
0.999999
0.999999
0.999999
0.999999
0.999999
0.999999
1
1
1
1
1
1
0.999999
0.999999
0.999999
0.999999
0.999999
1
1
1
1
1
1
0.999999
0.999999
0.999999
0.999999
0.999999
1
1
1
1
1
1
1
0.999999
0.999999
0.999999
0.999999
0.999999
0.999999
0.999999
1
1
1
1
0.999999
0.999999
0.999999
0.999999
0.999999
1
1
1
1
1
1
1
0.999999
0.999999
0.999999
0.999999
)
;

boundaryField
{
    leftWall
    {
        type            alphaContactAngle;
        thetaProperties 
6
(

(
water
mercury
)
 90 0 0 0

(
water
air
)
 90 0 0 0

(
water
oil
)
 90 0 0 0

(
mercury
air
)
 90 0 0 0

(
oil
mercury
)
 90 0 0 0

(
oil
air
)
 90 0 0 0
);
        value           nonuniform List<scalar> 
26
(
8.37677e-12
4.55277e-11
1.50461e-10
1.40259e-10
5.67208e-11
5.6942e-11
6.05746e-11
3.73167e-10
1.03311e-07
4.1583e-07
5.26093e-07
8.31741e-07
1.43313e-05
0.000986343
0.216834
0.867523
0.997774
0.999995
0.999999
0.999999
0.999999
0.999999
0.999999
0.999999
0.999999
0.999999
)
;
    }
    rightWall
    {
        type            alphaContactAngle;
        thetaProperties 
6
(

(
water
mercury
)
 90 0 0 0

(
water
air
)
 90 0 0 0

(
water
oil
)
 90 0 0 0

(
mercury
air
)
 90 0 0 0

(
oil
mercury
)
 90 0 0 0

(
oil
air
)
 90 0 0 0
);
        value           nonuniform 0();
    }
    lowerWall
    {
        type            alphaContactAngle;
        thetaProperties 
6
(

(
water
mercury
)
 90 0 0 0

(
water
air
)
 90 0 0 0

(
water
oil
)
 90 0 0 0

(
mercury
air
)
 90 0 0 0

(
oil
mercury
)
 90 0 0 0

(
oil
air
)
 90 0 0 0
);
        value           nonuniform List<scalar> 
22
(
8.37677e-12
1.06572e-11
6.2728e-12
6.614e-12
8.03332e-12
5.66783e-12
3.64312e-12
2.30105e-12
1.73441e-12
1.27844e-12
7.11011e-13
3.08977e-13
1.40644e-13
1.0081e-13
8.42193e-14
5.93368e-14
3.66528e-14
2.6159e-14
2.53886e-14
3.08784e-14
1.97429e-14
4.69456e-15
)
;
    }
    atmosphere
    {
        type            inletOutlet;
        inletValue      nonuniform 0();
        value           nonuniform 0();
    }
    defaultFaces
    {
        type            empty;
    }
    procBoundary0to1
    {
        type            processor;
        value           nonuniform List<scalar> 
26
(
7.6026e-15
3.92393e-14
2.50215e-13
1.89931e-12
8.29713e-12
3.58109e-10
6.19688e-08
9.68722e-07
1.00138e-05
0.000251084
0.0289705
0.035458
0.0499376
0.401328
0.903503
0.993855
0.993855
1
1
1
1
1
1
1
1
1
)
;
    }
    procBoundary0to2
    {
        type            processor;
        value           nonuniform List<scalar> 
24
(
1
0.999999
0.999999
0.999999
0.999999
0.999999
0.999999
0.999999
0.999999
0.999999
0.999999
1
1
1
1
1
1
1
1
0.999999
0.999999
0.999999
1
1
)
;
    }
}


// ************************************************************************* //
