/*--------------------------------*- C++ -*----------------------------------*\
| =========                 |                                                 |
| \\      /  F ield         | OpenFOAM: The Open Source CFD Toolbox           |
|  \\    /   O peration     | Version:  2.4.0                                 |
|   \\  /    A nd           | Web:      www.OpenFOAM.org                      |
|    \\/     M anipulation  |                                                 |
\*---------------------------------------------------------------------------*/
FoamFile
{
    version     2.0;
    format      ascii;
    class       volScalarField;
    location    "0.8";
    object      alpha.oil;
}
// * * * * * * * * * * * * * * * * * * * * * * * * * * * * * * * * * * * * * //

dimensions      [0 0 0 0 0 0 0];

internalField   nonuniform List<scalar> 
575
(
9.56122e-17
5.80751e-16
8.04573e-16
1.17884e-15
2.2563e-15
1.68067e-15
2.38844e-15
9.24064e-15
1.268e-13
1.07398e-12
5.98791e-12
2.39959e-11
7.44906e-11
1.95023e-10
4.68724e-10
1.16669e-09
2.71374e-09
4.93395e-09
1.36886e-08
7.10579e-08
1.07778e-06
5.06255e-06
1.03067e-15
5.79954e-15
1.42106e-14
1.58413e-14
2.99515e-14
3.22048e-14
5.25187e-14
5.55507e-14
1.94936e-13
1.28235e-12
6.0154e-12
1.97397e-11
4.82116e-11
9.47361e-11
2.33912e-10
1.57507e-09
5.24951e-09
8.60332e-09
1.8656e-08
4.83816e-08
6.74115e-07
5.20277e-06
5.97679e-15
3.16468e-14
1.12623e-13
1.04509e-13
2.17761e-13
3.45286e-13
6.2797e-13
4.95843e-13
4.91731e-13
1.26477e-12
4.84889e-12
1.48341e-11
3.39324e-11
6.01053e-11
3.77841e-10
2.59946e-09
5.93066e-09
1.5419e-08
3.04177e-08
6.5361e-08
2.02174e-07
2.33321e-06
2.65907e-14
1.2854e-13
4.63266e-13
4.60858e-13
1.47166e-12
2.88203e-12
5.91985e-12
3.72068e-12
2.54761e-12
2.65758e-12
5.54501e-12
1.55213e-11
4.27406e-11
2.44503e-10
5.81193e-09
2.44274e-08
3.6121e-08
5.44045e-08
1.40718e-07
3.98957e-07
1.12462e-06
3.85305e-06
1.11767e-13
4.38582e-13
1.25591e-12
2.46827e-12
1.18601e-11
1.98742e-11
5.77071e-11
2.29056e-11
9.77858e-12
7.05774e-12
8.16415e-12
2.28332e-11
3.05658e-09
9.91086e-08
6.9954e-07
1.27433e-06
1.32259e-06
8.70064e-07
8.66366e-07
1.39277e-06
2.85772e-06
6.0765e-06
4.9125e-13
1.12744e-12
4.23361e-12
3.49634e-11
1.85187e-10
3.92921e-10
3.28235e-10
2.39789e-10
1.41829e-10
1.06672e-10
5.33584e-10
4.28143e-08
6.65764e-07
3.04178e-06
6.42729e-06
6.91515e-06
5.94613e-06
3.60724e-06
2.53871e-06
2.43391e-06
3.56402e-06
6.27433e-06
1.66688e-12
2.04067e-12
9.35229e-12
7.63113e-11
3.56983e-09
1.00287e-08
2.34593e-09
7.2314e-10
3.53155e-10
2.52408e-09
2.04334e-07
2.47071e-06
8.03146e-06
1.09385e-05
1.09979e-05
1.03197e-05
8.81308e-06
7.01954e-06
7.14142e-06
6.13146e-06
3.9429e-06
2.02523e-05
1.72917e-12
1.72857e-12
1.74196e-12
4.50622e-09
7.62388e-08
1.22705e-07
1.10915e-09
3.53766e-10
3.53474e-10
7.58108e-08
2.50438e-06
1.10187e-05
1.88023e-05
1.18906e-05
1.09977e-05
4.10301e-05
0.000123015
0.000443532
0.000831827
0.000809852
0.000321449
0.00108894
8.9291e-10
3.2556e-07
1.02137e-06
7.41835e-07
9.45147e-07
7.30837e-06
6.45056e-06
2.53098e-06
5.85962e-07
5.50249e-07
1.034e-06
3.73296e-06
2.45321e-05
0.000156168
0.00131641
0.00464281
0.00814118
0.0132707
0.0177515
0.0188145
0.015396
0.0184014
2.10524e-07
6.53362e-05
0.000535651
0.000226551
0.000101641
0.000273273
0.000171818
9.38803e-05
4.34505e-05
2.91101e-05
2.46594e-05
3.17478e-05
0.000510399
0.00213642
0.00683515
0.0181786
0.0312889
0.0445709
0.0533289
0.0580034
0.0530564
0.0540436
0.000186394
0.0101524
0.0399763
0.0227819
0.00682209
0.00718255
0.00446326
0.00159312
0.000762305
0.000545815
0.000472468
0.000887328
0.00639846
0.0429689
0.119462
0.181917
0.226569
0.244675
0.238048
0.242735
0.244789
0.24908
0.0248602
0.206957
0.397244
0.292052
0.117412
0.0873269
0.0514632
0.0295907
0.0213724
0.0183065
0.0235036
0.0753175
0.183021
0.322533
0.384671
0.384905
0.390705
0.43691
0.593662
0.64984
0.643626
0.627028
0.267868
0.742116
0.844153
0.72656
0.511207
0.415633
0.3474
0.31795
0.327508
0.362527
0.498112
0.554495
0.554317
0.390853
0.162448
0.045651
0.190474
0.655019
0.899192
0.910065
0.88975
0.866261
0.612136
0.848427
0.848427
0.848427
0.838131
0.796792
0.779644
0.775009
0.775105
0.752796
0.425427
0.0975125
0.0029713
5.05805e-05
0.0010123
0.0146242
0.296138
0.850721
0.918734
0.918736
0.918734
0.904531
0.611779
0.520732
0.325041
0.251172
0.218192
0.214616
0.206816
0.13687
0.053466
0.0115278
0.000561804
0.000125597
4.83831e-06
5.7286e-07
1.75679e-06
0.00120772
0.0636953
0.46181
0.895858
0.918737
0.918739
0.730593
0.123053
0.0320927
0.00890884
0.00377789
0.00192894
0.00164433
0.00103978
0.000517536
0.000249281
2.95185e-05
4.56186e-07
4.26582e-08
6.26458e-08
7.51215e-08
1.08909e-07
1.04076e-05
0.00121489
0.0407235
0.427456
0.881124
0.897969
0.417929
0.00216613
0.000209582
1.5226e-05
1.81059e-06
1.60357e-07
2.70203e-08
1.25936e-07
9.6185e-08
1.17611e-07
2.59799e-08
1.56359e-08
4.2803e-08
1.47436e-07
2.026e-07
1.51133e-07
3.49209e-07
2.54468e-06
0.000723071
0.0545856
0.326294
0.467305
0.11765
0.00039999
4.65019e-06
3.68652e-07
2.91655e-07
1.17294e-07
3.47087e-08
9.43895e-09
1.07604e-08
1.07627e-08
1.51343e-08
1.51585e-08
1.51863e-08
2.38326e-08
1.65778e-07
2.92675e-07
3.64924e-07
4.21654e-07
4.79501e-07
1.96085e-05
0.0025403
0.0231115
0.044809
0.0120751
5.21022e-05
3.45888e-07
3.15097e-07
2.16088e-07
8.04139e-08
4.72478e-08
1.23989e-08
2.05975e-08
2.04276e-08
1.51727e-08
1.58392e-08
1.64656e-08
2.27604e-08
1.13935e-07
3.66093e-07
3.66097e-07
3.5006e-07
3.45966e-07
7.55541e-07
2.87668e-05
0.000290428
0.00064156
0.000298952
5.64355e-06
2.6006e-07
1.95764e-07
8.31802e-08
4.48483e-08
9.16797e-09
1.46687e-09
1.22261e-08
3.30485e-08
2.84459e-08
1.64659e-08
2.44229e-08
4.98369e-08
8.87699e-08
2.17487e-07
2.89356e-07
1.44424e-07
2.47023e-07
6.17577e-07
1.25315e-06
2.17299e-06
3.08118e-06
2.97453e-06
1.89572e-06
1.4141e-07
6.92697e-08
4.40665e-08
2.18011e-08
5.2971e-09
3.19248e-10
8.91704e-09
3.28768e-08
3.39177e-08
3.01272e-08
6.19663e-08
6.41573e-08
5.34098e-08
5.06697e-08
6.65053e-08
4.70085e-08
1.49922e-07
4.95829e-07
1.18846e-06
2.10861e-06
2.80366e-06
2.73245e-06
2.26991e-06
4.64392e-08
3.20246e-08
2.05464e-08
9.66284e-09
8.08156e-10
3.40658e-11
3.35563e-09
1.55673e-08
2.54906e-08
6.35523e-08
6.5617e-08
5.12507e-08
2.6204e-08
2.48429e-08
2.49479e-08
2.66534e-08
6.5432e-08
2.73783e-07
8.88722e-07
1.75508e-06
2.574e-06
2.78613e-06
2.66718e-06
2.79575e-08
1.63091e-08
9.04635e-09
1.57967e-09
3.26012e-11
1.85203e-11
1.11524e-09
3.73773e-09
1.47909e-08
3.61515e-08
4.62844e-08
2.04296e-08
2.12481e-08
2.48228e-08
2.48447e-08
2.48776e-08
4.40844e-08
1.13514e-07
3.70164e-07
1.03458e-06
2.02958e-06
2.5909e-06
2.50434e-06
1.43182e-08
6.19196e-09
1.57505e-09
4.99428e-11
9.76137e-12
1.13553e-11
1.09704e-10
4.23026e-10
3.28648e-09
6.9183e-09
1.32192e-08
8.11383e-09
2.32466e-08
6.01249e-08
9.35787e-08
5.51059e-08
3.33424e-08
5.31408e-08
1.28303e-07
3.42962e-07
1.06922e-06
1.6869e-06
1.69386e-06
4.00671e-09
1.08361e-09
4.64451e-11
5.62099e-12
4.73521e-12
7.28644e-12
2.11515e-11
5.04507e-11
2.44569e-10
5.02306e-10
1.01227e-09
4.27114e-09
1.95707e-08
6.37237e-08
1.18495e-07
1.1695e-07
4.41364e-08
3.20973e-08
6.16074e-08
1.34692e-07
2.88098e-07
5.57743e-07
4.87922e-07
3.28262e-10
3.84412e-11
4.49106e-12
2.27625e-12
2.52273e-12
4.49695e-12
1.35634e-11
3.70708e-11
8.01012e-11
1.39057e-10
1.96693e-10
2.14134e-09
1.21549e-08
5.54535e-08
1.18499e-07
1.18381e-07
)
;

boundaryField
{
    leftWall
    {
        type            zeroGradient;
    }
    rightWall
    {
        type            zeroGradient;
    }
    lowerWall
    {
        type            zeroGradient;
    }
    atmosphere
    {
        type            inletOutlet;
        inletValue      nonuniform 0();
        value           nonuniform 0();
    }
    defaultFaces
    {
        type            empty;
    }
    procBoundary0to1
    {
        type            processor;
        value           nonuniform List<scalar> 
26
(
8.54809e-06
1.15264e-05
1.17179e-05
1.18015e-05
1.2066e-05
1.11882e-05
0.000255554
0.00702654
0.0426156
0.0765627
0.236675
0.699315
0.901913
0.593257
0.0961399
0.00612526
0.00612526
1.1345e-06
8.95653e-07
9.38038e-07
1.47841e-06
2.17864e-06
2.61059e-06
2.45595e-06
1.52245e-06
4.4588e-07
)
;
    }
    procBoundary0to2
    {
        type            processor;
        value           nonuniform List<scalar> 
24
(
6.32022e-08
3.03676e-08
2.93824e-08
6.17218e-08
1.07607e-07
1.5021e-07
1.6356e-07
8.2636e-12
4.2844e-12
1.50887e-12
8.54049e-13
1.30145e-12
2.56226e-12
7.87987e-12
2.52034e-11
6.33801e-11
1.25714e-10
1.76456e-10
9.74122e-10
7.50024e-09
3.62559e-08
8.68916e-08
6.32022e-08
1.16029e-07
)
;
    }
}


// ************************************************************************* //
