/*--------------------------------*- C++ -*----------------------------------*\
| =========                 |                                                 |
| \\      /  F ield         | OpenFOAM: The Open Source CFD Toolbox           |
|  \\    /   O peration     | Version:  2.4.0                                 |
|   \\  /    A nd           | Web:      www.OpenFOAM.org                      |
|    \\/     M anipulation  |                                                 |
\*---------------------------------------------------------------------------*/
FoamFile
{
    version     2.0;
    format      ascii;
    class       volScalarField;
    location    "0.8";
    object      alpha.water;
}
// * * * * * * * * * * * * * * * * * * * * * * * * * * * * * * * * * * * * * //

dimensions      [0 0 0 0 0 0 0];

internalField   nonuniform List<scalar> 
575
(
9.37389e-08
1.18525e-07
3.86429e-08
3.02712e-08
3.12238e-08
2.37513e-08
1.7986e-08
1.57347e-08
1.72449e-08
1.7959e-08
1.45756e-08
1.08636e-08
9.09838e-09
9.6704e-09
9.71551e-09
7.05008e-09
5.10131e-09
4.39892e-09
4.33423e-09
4.67973e-09
2.14872e-09
6.93406e-10
0.000589336
0.00057212
0.000274749
0.000102768
4.03031e-05
8.93845e-06
1.22419e-06
2.58947e-07
1.38778e-07
1.17014e-07
6.09503e-08
3.51852e-08
3.37625e-08
3.84694e-08
3.41376e-08
2.64675e-08
2.12882e-08
1.57159e-08
1.56827e-08
1.66663e-08
1.47448e-08
1.63992e-09
0.141522
0.131796
0.110136
0.0684855
0.0250839
0.00320524
0.000144091
1.10558e-05
2.09051e-06
9.04225e-07
4.18307e-07
2.3669e-07
2.37539e-07
2.3761e-07
1.17903e-07
6.75341e-08
5.2823e-08
5.47202e-08
7.7055e-08
8.82432e-08
3.95527e-08
1.15876e-08
0.956119
0.952065
0.943315
0.920259
0.854039
0.668183
0.34628
0.0449752
0.00134629
8.6131e-05
1.07233e-05
2.04918e-06
1.018e-06
1.02294e-06
6.66675e-07
3.04743e-07
2.22619e-07
2.32365e-07
3.15281e-07
3.24163e-07
1.38041e-07
4.65912e-08
0.999995
0.999995
0.999995
0.999995
0.999541
0.994138
0.931394
0.473763
0.0418282
0.00184034
0.000138511
2.95068e-05
1.53482e-05
9.98345e-06
5.75006e-06
5.29035e-06
3.64096e-06
1.20239e-06
9.59608e-07
9.42013e-07
1.01499e-06
2.11852e-06
0.999994
0.999995
0.999995
0.999995
0.999995
0.999987
0.995112
0.8124
0.222283
0.01803
0.00146386
0.000182733
5.92929e-05
0.000302626
0.00150869
0.00232807
0.00194636
0.000721238
0.000296562
0.000221677
0.000490781
0.00119274
0.999993
0.999993
0.999994
0.999994
0.999994
0.999991
0.997634
0.905368
0.443566
0.0597632
0.00480015
0.00133438
0.00598052
0.0342178
0.0830692
0.106275
0.101257
0.06925
0.0484018
0.0405079
0.0495344
0.0769087
0.999996
0.999996
0.999996
0.999996
0.999995
0.999994
0.999503
0.970043
0.727525
0.27163
0.0794234
0.0841252
0.192235
0.391449
0.557731
0.622816
0.638264
0.61603
0.592912
0.576944
0.577879
0.611108
0.999998
0.999998
0.999997
0.999997
0.999996
0.99999
0.999953
0.995991
0.958066
0.874158
0.784697
0.745686
0.801524
0.899234
0.945878
0.958954
0.965181
0.963703
0.962703
0.962435
0.962349
0.958667
0.999999
0.999934
0.999464
0.999773
0.999898
0.999726
0.999826
0.999752
0.998706
0.995805
0.994248
0.996799
0.99693
0.996929
0.992893
0.981718
0.968648
0.955374
0.946622
0.941951
0.946895
0.945912
0.999813
0.989847
0.960023
0.977218
0.993178
0.992817
0.995537
0.998402
0.999069
0.999068
0.999069
0.998903
0.993509
0.956874
0.87967
0.814609
0.768764
0.752301
0.76022
0.756619
0.754694
0.750264
0.975139
0.793042
0.602754
0.707947
0.882588
0.912673
0.948537
0.970409
0.978626
0.981688
0.976491
0.924623
0.815198
0.642657
0.499726
0.336575
0.249286
0.24907
0.317948
0.346927
0.355655
0.365014
0.732118
0.257848
0.155847
0.27344
0.488793
0.584367
0.6526
0.68205
0.672492
0.637381
0.488728
0.393289
0.228027
0.0642138
0.0109445
0.00109159
0.00915694
0.0369843
0.071293
0.0859192
0.101597
0.101058
0.386878
0.128189
0.0982607
0.120094
0.142147
0.186896
0.205488
0.201329
0.156164
0.0827668
0.0202294
0.00265887
9.07772e-05
2.43206e-06
4.67311e-06
2.27222e-05
0.00239236
0.0253551
0.0590571
0.07258
0.0662338
0.0296709
0.171387
0.0197062
0.00918423
0.00910728
0.0111502
0.0155422
0.0166759
0.0102862
0.00191875
0.000260203
1.15684e-05
2.82064e-07
4.82928e-09
5.40054e-10
3.45459e-10
2.81909e-07
9.99351e-05
0.00305152
0.017955
0.0334729
0.0335744
0.0104755
0.00942358
0.000813392
5.6216e-05
3.43688e-05
2.68031e-05
3.265e-05
2.29188e-05
1.08015e-05
2.24835e-06
1.78276e-07
5.8831e-09
1.9061e-09
1.06293e-09
2.4323e-10
2.01074e-10
6.35068e-10
4.09567e-07
7.14463e-05
0.00149248
0.0054886
0.0073324
0.00252845
5.96702e-05
7.38943e-06
7.52434e-08
9.20812e-09
4.60005e-09
1.7893e-09
1.601e-09
2.25863e-09
1.77515e-09
1.74109e-09
1.75992e-09
1.73394e-09
9.2511e-10
2.41987e-10
2.01159e-10
2.68877e-10
4.14855e-10
2.12961e-07
2.12385e-05
0.000199246
0.000396015
0.000170488
2.83952e-06
8.66018e-08
2.69345e-08
1.05809e-08
9.66873e-09
6.45412e-09
1.57564e-09
1.30683e-09
1.72331e-09
1.72833e-09
1.73685e-09
1.93668e-09
3.65759e-09
3.77712e-09
1.47489e-09
2.00127e-10
1.98469e-10
2.97047e-10
5.14353e-10
4.10039e-08
8.84546e-07
2.78018e-06
2.24988e-06
2.19945e-07
2.64023e-08
2.1307e-08
1.09464e-08
1.38929e-08
1.17562e-08
3.61885e-09
2.49607e-09
3.62998e-09
2.71539e-09
2.05321e-09
2.06656e-09
3.14064e-09
3.68119e-09
5.72058e-10
1.24767e-10
1.98499e-10
4.53702e-10
7.17883e-10
7.69295e-10
1.75679e-09
3.29166e-09
6.24705e-09
8.79478e-09
2.33395e-08
1.7299e-08
1.64203e-08
1.58346e-08
4.68478e-09
4.96351e-10
1.11961e-09
4.36785e-09
3.92214e-09
2.54769e-09
2.68358e-09
4.6827e-09
4.23885e-09
3.99819e-10
4.39074e-11
1.7843e-10
6.15755e-10
1.6988e-09
2.30857e-09
1.91147e-09
1.89507e-09
1.89513e-09
4.39772e-09
2.38848e-08
1.95007e-08
2.40521e-08
1.56002e-08
4.97791e-09
1.68015e-10
8.22873e-10
3.45715e-09
4.24095e-09
3.4515e-09
4.11263e-09
4.86958e-09
2.71151e-09
1.46422e-10
2.35286e-11
1.15733e-10
5.07708e-10
1.86166e-09
4.91073e-09
7.4027e-09
3.87399e-09
1.89547e-09
3.47516e-09
4.50522e-08
3.49928e-08
2.45378e-08
1.30721e-08
1.54279e-09
3.85158e-11
3.1438e-10
1.59877e-09
3.32764e-09
3.50939e-09
4.16889e-09
3.47075e-09
8.13737e-10
1.58249e-11
8.05178e-12
4.42987e-11
2.56862e-10
1.25149e-09
4.39195e-09
1.06253e-08
1.35142e-08
5.83648e-09
4.40725e-09
4.69805e-08
3.38075e-08
2.00427e-08
4.72957e-09
1.30921e-10
1.94582e-11
1.10302e-10
4.56747e-10
1.78767e-09
2.57461e-09
2.84923e-09
1.33512e-09
1.84249e-10
5.01952e-12
2.32964e-12
1.19363e-11
1.19527e-10
5.516e-10
2.22724e-09
7.36932e-09
1.56975e-08
1.48323e-08
1.40027e-08
4.06589e-08
2.30567e-08
6.90066e-09
3.7463e-10
1.37124e-11
1.05558e-11
2.12185e-11
5.53441e-11
3.99128e-10
9.59187e-10
1.13871e-09
4.12404e-10
7.79404e-11
2.03576e-12
6.38335e-13
3.37106e-12
3.23254e-11
1.96349e-10
7.72411e-10
2.8606e-09
1.0125e-08
1.43945e-08
1.39733e-08
1.82841e-08
6.5132e-09
5.04844e-10
1.26036e-11
7.5541e-12
5.43431e-12
9.40315e-12
1.3002e-11
2.64456e-11
1.18971e-10
1.35382e-10
1.13919e-10
3.14266e-11
9.86774e-13
1.64952e-13
6.60059e-13
6.21282e-12
5.20841e-11
2.67487e-10
9.81985e-10
3.27093e-09
6.3248e-09
6.77847e-09
2.27799e-09
3.94425e-10
1.20224e-11
6.16833e-12
3.59322e-12
2.57499e-12
3.8319e-12
6.00475e-12
8.67691e-12
1.06661e-11
9.92276e-12
3.08405e-11
1.11762e-11
6.99038e-13
6.67292e-14
1.14799e-13
)
;

boundaryField
{
    leftWall
    {
        type            zeroGradient;
    }
    rightWall
    {
        type            zeroGradient;
    }
    lowerWall
    {
        type            zeroGradient;
    }
    atmosphere
    {
        type            inletOutlet;
        inletValue      nonuniform 0();
        value           nonuniform 0();
    }
    defaultFaces
    {
        type            empty;
    }
    procBoundary0to1
    {
        type            processor;
        value           nonuniform List<scalar> 
26
(
3.50162e-10
1.16511e-09
4.71849e-09
1.34827e-08
6.25095e-06
0.00328968
0.133392
0.656867
0.908683
0.923165
0.734346
0.265199
0.0481207
0.00540592
0.000357708
2.08361e-05
2.08361e-05
9.75448e-09
9.78608e-09
1.53207e-08
2.04196e-08
1.40963e-08
9.63412e-09
1.61977e-08
1.5706e-08
7.70324e-09
)
;
    }
    procBoundary0to2
    {
        type            processor;
        value           nonuniform List<scalar> 
24
(
1.07882e-12
1.09545e-11
6.53077e-11
3.18942e-10
1.0168e-09
1.90407e-09
2.30649e-09
5.01715e-11
8.32591e-12
4.93091e-12
2.77045e-12
1.51906e-12
1.10474e-12
1.47536e-12
2.35804e-12
3.21904e-12
4.95446e-12
4.5466e-12
9.1036e-12
3.50174e-12
3.49703e-13
3.5521e-14
1.07882e-12
2.06274e-14
)
;
    }
}


// ************************************************************************* //
