/*--------------------------------*- C++ -*----------------------------------*\
| =========                 |                                                 |
| \\      /  F ield         | OpenFOAM: The Open Source CFD Toolbox           |
|  \\    /   O peration     | Version:  2.4.0                                 |
|   \\  /    A nd           | Web:      www.OpenFOAM.org                      |
|    \\/     M anipulation  |                                                 |
\*---------------------------------------------------------------------------*/
FoamFile
{
    version     2.0;
    format      ascii;
    class       surfaceScalarField;
    location    "0.8";
    object      phi;
}
// * * * * * * * * * * * * * * * * * * * * * * * * * * * * * * * * * * * * * //

dimensions      [0 3 -1 0 0 0 0];

internalField   nonuniform List<scalar> 
1101
(
1.25702e-06
-1.25702e-06
2.699e-06
-1.44198e-06
3.2251e-06
-5.26102e-07
3.04123e-06
1.83874e-07
2.32315e-06
7.18081e-07
-1.26656e-07
2.4498e-06
-4.52571e-06
4.39905e-06
-1.06677e-05
6.14203e-06
-1.54578e-05
4.79001e-06
-1.79491e-05
2.4913e-06
-1.94633e-05
1.51427e-06
-2.00246e-05
5.61296e-07
-1.924e-05
-7.84601e-07
-1.70354e-05
-2.20466e-06
-1.4451e-05
-2.5844e-06
-1.23754e-05
-2.0756e-06
-1.09564e-05
-1.41896e-06
-9.76989e-06
-1.1865e-06
-8.38848e-06
-1.38141e-06
-6.17375e-06
-2.21473e-06
-4.57815e-06
-1.5956e-06
-7.12346e-07
1.21943e-06
-2.47645e-06
2.39992e-06
-2.62246e-06
3.19359e-06
-1.31978e-06
3.7529e-06
-3.75434e-07
3.88279e-06
5.88186e-07
1.77401e-06
4.55859e-06
-2.86891e-06
9.04197e-06
-9.77327e-06
1.30464e-05
-1.55459e-05
1.05627e-05
-1.89214e-05
5.86677e-06
-2.02544e-05
2.84727e-06
-2.03872e-05
6.94153e-07
-1.91515e-05
-2.02038e-06
-1.68784e-05
-4.47771e-06
-1.43461e-05
-5.11668e-06
-1.22244e-05
-4.19736e-06
-1.0649e-05
-2.99435e-06
-9.40795e-06
-2.42755e-06
-7.75063e-06
-3.03873e-06
-5.73081e-06
-4.23455e-06
-3.84359e-06
-3.48282e-06
-2.28317e-06
1.45274e-06
-3.9292e-06
2.24215e-06
-3.41186e-06
3.70721e-06
-2.78484e-06
3.97727e-06
-6.45492e-07
1.72826e-06
2.83719e-06
-1.68714e-06
7.97399e-06
-5.55663e-06
1.29115e-05
-1.13617e-05
1.88515e-05
-1.61397e-05
1.53406e-05
-1.91357e-05
8.86279e-06
-2.03982e-05
4.10971e-06
-2.02173e-05
5.13237e-07
-1.89091e-05
-3.32854e-06
-1.67936e-05
-6.59321e-06
-1.45448e-05
-7.36543e-06
-1.24628e-05
-6.27934e-06
-1.05599e-05
-4.89726e-06
-9.01321e-06
-3.97428e-06
-7.20855e-06
-4.8434e-06
-5.51783e-06
-5.92527e-06
-3.45922e-06
-5.54143e-06
-4.33296e-06
1.03682e-06
-4.96602e-06
6.71637e-07
-3.04668e-06
7.46582e-07
-2.85978e-06
1.74422e-07
-7.33316e-08
-6.89568e-07
3.70118e-06
-2.34683e-06
9.63125e-06
-7.74446e-06
1.83091e-05
-1.41761e-05
2.52831e-05
-1.84542e-05
1.96187e-05
-2.0408e-05
1.08166e-05
-2.0488e-05
4.1897e-06
-1.99997e-05
2.49922e-08
-1.88584e-05
-4.46986e-06
-1.67779e-05
-8.67375e-06
-1.43004e-05
-9.84292e-06
-1.18008e-05
-8.77895e-06
-9.49018e-06
-7.20785e-06
-7.90538e-06
-5.55908e-06
-6.9884e-06
-5.76037e-06
-6.62316e-06
-6.29051e-06
-4.87166e-06
-7.29292e-06
-7.04477e-06
-4.7533e-07
-4.49069e-06
-4.29148e-07
-3.09286e-06
-8.08446e-07
-2.48049e-06
-4.48345e-07
-4.33432e-07
-2.6519e-07
3.51803e-06
-2.54874e-06
1.19148e-05
-1.09894e-05
2.67498e-05
-1.99007e-05
3.41945e-05
-2.39409e-05
2.36589e-05
-2.54078e-05
1.22834e-05
-2.47624e-05
3.54434e-06
-2.26742e-05
-2.06319e-06
-2.02861e-05
-6.85803e-06
-1.7779e-05
-1.11808e-05
-1.47019e-05
-1.292e-05
-1.14076e-05
-1.20733e-05
-8.50721e-06
-1.01082e-05
-7.00365e-06
-7.06263e-06
-6.80925e-06
-5.95477e-06
-6.98553e-06
-6.11423e-06
-6.27486e-06
-8.00359e-06
-9.73264e-06
-2.55133e-07
-4.23555e-06
-2.27223e-06
-1.07577e-06
-5.9182e-06
1.16549e-06
-1.1536e-05
5.18441e-06
-1.73553e-05
9.33731e-06
-1.8906e-05
1.34654e-05
-2.27513e-05
3.05952e-05
-2.97781e-05
4.12212e-05
-3.11127e-05
2.49935e-05
-3.01563e-05
1.1327e-05
-2.90762e-05
2.46416e-06
-2.73072e-05
-3.8321e-06
-2.46915e-05
-9.47377e-06
-2.15844e-05
-1.42879e-05
-1.74721e-05
-1.70323e-05
-1.30198e-05
-1.65256e-05
-9.33212e-06
-1.37959e-05
-7.31765e-06
-9.0771e-06
-6.81492e-06
-6.4575e-06
-6.92514e-06
-6.00401e-06
-6.63963e-06
-8.28911e-06
-1.16333e-05
-7.59667e-07
-3.47588e-06
-8.5824e-07
-9.77199e-07
-1.53471e-06
1.84196e-06
-3.75359e-06
7.40329e-06
-7.8269e-06
1.34106e-05
-1.49401e-05
2.05786e-05
-2.42614e-05
3.99165e-05
-3.68817e-05
5.38415e-05
-4.17042e-05
2.9816e-05
-3.97068e-05
9.32965e-06
-3.54578e-05
-1.78482e-06
-3.11453e-05
-8.1446e-06
-2.72602e-05
-1.33589e-05
-2.30178e-05
-1.85303e-05
-1.88119e-05
-2.12382e-05
-1.52572e-05
-2.00803e-05
-1.22831e-05
-1.677e-05
-9.41478e-06
-1.19454e-05
-7.06649e-06
-8.80579e-06
-5.76375e-06
-7.30675e-06
-6.11053e-06
-7.94233e-06
-1.17005e-05
5.56546e-07
-4.03243e-06
-1.17994e-06
7.59288e-07
-4.22068e-06
4.8827e-06
-7.2909e-06
1.04735e-05
-1.03628e-05
1.64825e-05
-1.36707e-05
2.38865e-05
-1.88291e-05
4.50749e-05
-3.04961e-05
6.55085e-05
-4.14332e-05
4.07531e-05
-4.29089e-05
1.08053e-05
-4.12566e-05
-3.43704e-06
-3.61838e-05
-1.32175e-05
-2.8601e-05
-2.09416e-05
-1.99425e-05
-2.71889e-05
-1.53573e-05
-2.58233e-05
-1.49045e-05
-2.05331e-05
-1.52917e-05
-1.63828e-05
-1.27633e-05
-1.44738e-05
-8.30565e-06
-1.32635e-05
-4.95094e-06
-1.06615e-05
-6.48773e-06
-6.40554e-06
-7.60059e-06
1.53058e-06
-5.56301e-06
5.68749e-06
-3.39763e-06
8.63368e-06
1.93651e-06
6.67188e-06
1.24353e-05
-1.06407e-06
2.42185e-05
-8.74585e-06
3.15683e-05
-7.32655e-06
4.36556e-05
-1.62154e-06
5.98035e-05
-1.51761e-05
5.43076e-05
-3.66622e-05
3.22914e-05
-4.8535e-05
8.43576e-06
-4.76808e-05
-1.40716e-05
-3.73529e-05
-3.12696e-05
-2.96222e-05
-3.49195e-05
-2.63782e-05
-2.90673e-05
-2.59879e-05
-2.09234e-05
-2.67506e-05
-1.56201e-05
-2.59367e-05
-1.52877e-05
-2.47012e-05
-1.4499e-05
-2.51497e-05
-1.0213e-05
-2.91569e-05
-2.39827e-06
-1.56095e-06
6.88768e-06
-1.24507e-05
9.91802e-06
-6.42797e-06
6.49999e-06
5.35454e-06
2.62639e-06
1.63089e-05
6.17683e-07
2.62272e-05
6.27369e-07
3.15586e-05
5.05156e-06
3.92314e-05
1.84362e-05
4.64189e-05
2.85577e-05
4.4186e-05
3.15531e-05
2.92961e-05
3.21267e-05
7.86215e-06
3.12919e-05
-1.32369e-05
2.61081e-05
-2.60858e-05
2.18044e-05
-3.06157e-05
2.06842e-05
-2.79472e-05
2.17127e-05
-2.19518e-05
2.27872e-05
-1.66946e-05
2.15135e-05
-1.4014e-05
1.64878e-05
-9.47326e-06
1.10876e-05
-4.81281e-06
8.42101e-06
2.68315e-07
-2.36e-06
9.20414e-06
-2.16548e-05
1.76508e-05
-1.48746e-05
2.08888e-05
2.1165e-06
1.60728e-05
2.11249e-05
7.88579e-06
3.44143e-05
1.90747e-06
3.75369e-05
2.48526e-06
3.86536e-05
1.1236e-05
3.76682e-05
2.34885e-05
3.19335e-05
3.35225e-05
1.92621e-05
3.92616e-05
2.12298e-06
3.82354e-05
-1.22106e-05
3.59943e-05
-2.38448e-05
3.74418e-05
-3.20632e-05
4.19531e-05
-3.24585e-05
4.14745e-05
-2.14732e-05
3.47571e-05
-9.97726e-06
2.44098e-05
-3.66664e-06
1.83943e-05
-3.45776e-06
9.21185e-06
4.36962e-06
-9.40843e-06
1.88886e-05
4.41996e-05
1.64689e-05
-3.81238e-05
2.30977e-05
-2.15034e-05
1.14892e-05
1.37251e-05
3.10755e-06
2.95065e-05
-1.77039e-06
3.92922e-05
-6.41494e-06
4.21815e-05
-5.84188e-06
3.80806e-05
3.89746e-07
3.14366e-05
9.79001e-06
2.25332e-05
1.76519e-05
1.14002e-05
2.29113e-05
-3.13643e-06
2.57467e-05
-1.5046e-05
2.81856e-05
-2.62836e-05
2.79794e-05
-3.18571e-05
2.87188e-05
-3.31979e-05
1.43395e-05
-7.09386e-06
-1.37204e-05
1.80826e-05
-3.28784e-05
1.54914e-05
-5.11663e-05
1.48301e-05
-8.17427e-05
3.4946e-05
-0.000133281
7.04268e-05
0.00010743
-5.24698e-06
-3.28768e-05
-2.29705e-05
-3.77991e-06
-3.78287e-05
2.85833e-05
-4.29212e-05
3.4599e-05
-3.93749e-05
3.57459e-05
-3.34658e-05
3.62724e-05
-2.63272e-05
3.0942e-05
-1.84447e-05
2.35541e-05
-6.60217e-06
1.06907e-05
7.85544e-06
-3.05741e-06
1.80217e-05
-1.33027e-05
1.4427e-05
-1.14512e-05
1.4234e-07
-1.1999e-05
-1.60672e-05
-1.56476e-05
-7.72121e-05
2.7947e-05
-0.000199169
0.000114864
-0.000211979
3.08924e-05
-0.000199184
2.69615e-06
-0.000204793
2.0439e-05
-0.000233356
6.35088e-05
-0.000263604
0.000100676
0.000114783
-2.95361e-05
-3.34067e-06
-6.00868e-05
2.67708e-05
-7.29805e-05
4.1477e-05
-7.48962e-05
3.65147e-05
-6.94259e-05
3.02755e-05
-5.97842e-05
2.66307e-05
-5.1635e-05
2.27928e-05
-4.43662e-05
1.62852e-05
-4.09184e-05
7.2429e-06
-4.53376e-05
1.36179e-06
-4.62542e-05
-1.23861e-05
-7.13301e-05
1.36246e-05
-0.000163056
7.97271e-05
-0.000231338
5.26346e-05
-0.000258704
5.53126e-05
-0.000247313
0.000103473
-0.000226973
1.05522e-05
-0.000220027
-4.24953e-06
-0.000222048
2.24597e-05
-0.00023865
8.0111e-05
-0.000250563
0.000112589
0.000115354
-4.5055e-05
4.17143e-05
-7.96268e-05
6.13426e-05
-9.04839e-05
5.23341e-05
-8.85328e-05
3.45636e-05
-7.92603e-05
2.1003e-05
-6.99312e-05
1.73017e-05
-5.86258e-05
1.14874e-05
-5.62349e-05
1.38944e-05
-0.000100464
5.14722e-05
-0.000180798
8.16953e-05
-0.000219689
2.65053e-05
-0.000186153
-1.99116e-05
-0.000139553
3.31271e-05
-0.000143659
5.67407e-05
-0.000151535
6.31881e-05
-0.000154541
0.000106479
-0.000197606
5.36174e-05
-0.000203285
1.42914e-06
-0.000212824
3.19991e-05
-0.000215666
8.29531e-05
-0.00022019
0.000117113
0.000132143
-4.88279e-05
9.05422e-05
-9.90456e-05
0.00011156
-0.000105995
5.92833e-05
-9.32246e-05
2.17934e-05
-7.9342e-05
7.12039e-06
-6.49392e-05
2.89885e-06
-7.13759e-05
1.79241e-05
-8.52342e-05
2.77526e-05
-8.63952e-05
5.26333e-05
-7.5465e-05
7.0765e-05
-7.1169e-05
2.22093e-05
-8.01812e-05
-1.08993e-05
-7.12517e-05
2.41976e-05
-6.63785e-05
5.18675e-05
-7.02405e-05
6.70501e-05
-6.1711e-05
9.79495e-05
-0.000115753
0.000107659
-0.000186615
7.22916e-05
-0.000205813
5.11966e-05
-0.000201183
7.83229e-05
-0.000198037
0.000113967
0.00018767
-5.04106e-05
0.000140953
-5.97642e-05
0.000120914
-4.90053e-05
4.85244e-05
-3.36244e-05
6.41246e-06
-1.38359e-05
-1.26681e-05
4.85032e-06
-1.57874e-05
3.87121e-06
1.89032e-05
-3.4709e-05
6.63328e-05
-5.1203e-05
6.91273e-05
-5.34286e-05
7.29906e-05
-7.77918e-05
4.65724e-05
-9.65992e-05
7.90807e-06
-8.25604e-05
1.01588e-05
-6.80577e-05
3.73648e-05
-5.71762e-05
5.61687e-05
-3.90559e-05
7.98292e-05
-3.82733e-05
0.000106877
-9.91884e-05
0.000133207
-0.00017703
0.000129038
-0.000195853
9.71462e-05
-0.000206967
0.000125081
-0.000247214
0.000227917
0.000334847
-5.14758e-06
0.0001461
2.48807e-06
0.000113278
-2.39679e-06
5.34093e-05
-1.16755e-05
1.56912e-05
-1.54945e-05
-8.84918e-06
-2.7121e-05
-4.16085e-06
-2.27049e-05
1.44872e-05
-1.80551e-05
6.1683e-05
-2.55347e-05
7.6607e-05
-2.86286e-05
7.60846e-05
-3.07184e-05
4.86622e-05
-3.3289e-05
1.04787e-05
-3.74627e-05
1.43324e-05
-3.19823e-05
3.18843e-05
-2.38432e-05
4.80296e-05
-1.41658e-05
7.01517e-05
-4.47714e-06
9.71882e-05
-1.4123e-06
0.000130142
-3.48493e-05
0.000162475
-9.95096e-05
0.000161807
-0.000158885
0.000184456
-0.000211707
0.000280739
0.00033034
1.81961e-05
0.000127904
2.54253e-05
0.000106049
2.2623e-05
5.62115e-05
1.78539e-05
2.04603e-05
8.20669e-06
7.98067e-07
-6.70197e-06
1.07478e-05
-1.04735e-05
1.82587e-05
-7.51899e-06
5.87284e-05
-8.48184e-06
7.75699e-05
-4.17901e-06
7.17817e-05
-1.19549e-07
4.46028e-05
-1.16732e-05
2.20323e-05
-2.75855e-05
3.02447e-05
-2.79107e-05
3.22095e-05
-2.35407e-05
4.36597e-05
-1.51758e-05
6.17869e-05
-3.99051e-06
8.60029e-05
9.25772e-06
0.000116894
1.53646e-05
0.000156368
-1.6315e-05
0.000193486
-9.12356e-05
0.000259377
-0.00014603
0.000335533
0.000332935
1.40346e-05
0.00011387
2.2478e-05
9.76056e-05
1.85822e-05
6.01073e-05
1.02086e-05
2.88339e-05
6.07562e-07
1.03991e-05
-2.61356e-06
1.39689e-05
-1.56391e-06
1.72091e-05
1.47881e-06
5.56857e-05
2.11414e-06
7.69345e-05
4.65384e-06
6.9242e-05
2.80205e-06
4.64546e-05
-3.89469e-06
2.87291e-05
-8.9738e-06
3.53238e-05
-1.39401e-05
3.71758e-05
-1.64381e-05
4.61577e-05
-1.45339e-05
5.98826e-05
-9.01593e-06
8.04849e-05
2.55542e-07
0.000107622
1.00283e-05
0.000146595
7.54317e-06
0.000195971
-2.293e-05
0.00028985
-6.2142e-05
0.000374745
0.000344701
7.87701e-06
0.000105993
2.01693e-05
8.53132e-05
2.44887e-05
5.5788e-05
2.20146e-05
3.1308e-05
9.32926e-06
2.30845e-05
-2.54441e-06
2.58426e-05
-1.12893e-05
2.59539e-05
-2.88105e-06
4.72775e-05
7.53413e-06
6.65193e-05
1.34382e-05
6.33379e-05
1.14851e-05
4.84077e-05
1.33415e-06
3.888e-05
-7.31173e-06
4.39697e-05
-1.52961e-05
4.51602e-05
-1.93936e-05
5.02552e-05
-1.89589e-05
5.94479e-05
-1.5512e-05
7.70381e-05
-1.0749e-05
0.000102859
-2.16265e-07
0.000136063
1.32336e-05
0.000182521
2.96309e-05
0.000273453
4.46468e-05
0.00035973
0.000340121
9.11295e-06
9.68798e-05
1.92355e-05
7.51907e-05
2.16753e-05
5.33481e-05
1.58274e-05
3.71558e-05
8.59354e-06
3.03184e-05
1.0746e-06
3.33615e-05
-5.05984e-06
3.20884e-05
-3.14825e-06
4.53659e-05
7.22497e-06
5.61461e-05
1.25901e-05
5.79728e-05
7.48449e-06
5.35134e-05
-2.12388e-06
4.84884e-05
-8.23426e-06
5.00801e-05
-1.28784e-05
4.98043e-05
-1.65094e-05
5.38862e-05
-1.88589e-05
6.17975e-05
-1.80819e-05
7.62611e-05
-1.48146e-05
9.95918e-05
-8.43785e-06
0.000129686
6.17727e-06
0.000167906
3.75073e-05
0.000242123
8.30026e-05
0.000314234
0.00029549
1.28818e-05
8.3998e-05
1.96034e-05
6.84692e-05
2.07697e-05
5.21819e-05
1.60072e-05
4.19183e-05
8.64289e-06
3.76827e-05
2.7597e-06
3.92447e-05
-3.97124e-06
3.88193e-05
-3.84321e-06
4.52379e-05
1.58241e-06
5.07205e-05
4.17699e-06
5.53782e-05
1.1436e-06
5.65467e-05
-5.22656e-06
5.48586e-05
-9.64112e-06
5.44947e-05
-1.36625e-05
5.38257e-05
-1.64918e-05
5.67155e-05
-1.80911e-05
6.33968e-05
-1.74447e-05
7.56147e-05
-1.33764e-05
9.55234e-05
-6.33253e-06
0.000122642
6.87896e-06
0.000154695
4.26241e-05
0.000206377
0.000100515
0.000256343
0.00023699
1.17525e-05
7.22455e-05
1.72489e-05
6.29728e-05
1.74105e-05
5.20202e-05
1.34e-05
4.59288e-05
8.08607e-06
4.29967e-05
3.97374e-06
4.33571e-05
-5.69258e-07
4.33623e-05
-1.88503e-06
4.65537e-05
-4.44158e-07
4.92796e-05
1.03518e-06
5.38989e-05
4.57317e-07
5.71246e-05
-2.32953e-06
5.76454e-05
-5.43267e-06
5.75978e-05
-9.18789e-06
5.75809e-05
-1.21227e-05
5.96504e-05
-1.33683e-05
6.46424e-05
-1.18912e-05
7.41376e-05
-5.7014e-06
8.93335e-05
6.42365e-06
0.000110517
2.54469e-05
0.000135671
6.13084e-05
0.000170516
0.000118497
0.000199155
0.000180629
7.89852e-06
6.4347e-05
1.21444e-05
5.87269e-05
1.22747e-05
5.18899e-05
1.00286e-05
4.81749e-05
7.03652e-06
4.59887e-05
4.63408e-06
4.57595e-05
2.18579e-06
4.58106e-05
8.78552e-07
4.78609e-05
6.05852e-07
4.95523e-05
1.37314e-06
5.31316e-05
2.21564e-06
5.62821e-05
2.15801e-06
5.7703e-05
1.3563e-06
5.83995e-05
-3.57285e-07
5.92945e-05
-2.07677e-06
6.13699e-05
-2.81804e-06
6.53837e-05
-1.38714e-06
4.22244e-06
1.59906e-05
3.63962e-05
6.96577e-05
0.000119053
4.9339e-06
8.10946e-06
8.65016e-06
7.86561e-06
6.49004e-06
5.31923e-06
4.11878e-06
3.60229e-06
3.33371e-06
3.98188e-06
5.35853e-06
6.59559e-06
7.36306e-06
7.46919e-06
7.49518e-06
)
;

boundaryField
{
    leftWall
    {
        type            calculated;
        value           uniform 0;
    }
    rightWall
    {
        type            calculated;
        value           nonuniform 0();
    }
    lowerWall
    {
        type            calculated;
        value           nonuniform List<scalar> 
22
(
1.4399e-22
8.82405e-23
1.1868e-22
-3.27262e-23
1.04367e-22
1.8308e-23
-3.48753e-24
3.86492e-23
-2.50006e-23
-4.20764e-23
3.40497e-23
-8.08421e-23
1.55506e-23
1.11876e-22
-4.90028e-24
-4.2805e-23
-5.79319e-23
6.95516e-23
-1.78998e-22
2.3787e-23
1.33728e-22
3.8005e-23
)
;
    }
    atmosphere
    {
        type            calculated;
        value           nonuniform 0();
    }
    defaultFaces
    {
        type            empty;
        value           nonuniform 0();
    }
    procBoundary0to1
    {
        type            processor;
        value           nonuniform List<scalar> 
26
(
-3.8658e-06
-2.27276e-06
-1.40943e-06
-2.15985e-06
-3.587e-06
-4.739e-06
-6.04327e-06
-1.05877e-05
-3.51966e-05
9.22006e-06
-5.5968e-05
-0.000196512
-0.000270957
-0.000251135
-0.000236979
-0.000253564
-0.000323191
-0.00025887
-0.0002072
-0.000148624
-7.39078e-05
4.92265e-05
0.000127634
0.000159015
0.000174858
0.000165483
)
;
    }
    procBoundary0to2
    {
        type            processor;
        value           nonuniform List<scalar> 
24
(
7.27067e-05
8.3724e-05
9.87488e-05
0.000115266
0.000137254
0.00014976
0.000134198
5.94131e-05
5.55514e-05
5.13492e-05
4.89594e-05
4.73643e-05
4.69303e-05
4.70111e-05
4.83774e-05
4.98209e-05
5.24834e-05
5.49055e-05
5.6466e-05
5.7632e-05
5.91883e-05
6.13439e-05
8.00509e-06
6.48738e-05
)
;
    }
}


// ************************************************************************* //
