/*--------------------------------*- C++ -*----------------------------------*\
| =========                 |                                                 |
| \\      /  F ield         | OpenFOAM: The Open Source CFD Toolbox           |
|  \\    /   O peration     | Version:  2.4.0                                 |
|   \\  /    A nd           | Web:      www.OpenFOAM.org                      |
|    \\/     M anipulation  |                                                 |
\*---------------------------------------------------------------------------*/
FoamFile
{
    version     2.0;
    format      ascii;
    class       surfaceScalarField;
    location    "0.8";
    object      phi.mercury;
}
// * * * * * * * * * * * * * * * * * * * * * * * * * * * * * * * * * * * * * //

dimensions      [0 3 -1 0 0 0 0];

internalField   nonuniform List<scalar> 
1101
(
1.25702e-06
-1.26307e-06
2.699e-06
-1.44779e-06
3.2251e-06
-5.28121e-07
3.04123e-06
1.83417e-07
2.32315e-06
7.17979e-07
-1.26656e-07
2.4498e-06
-4.52571e-06
4.39905e-06
-1.06677e-05
6.14203e-06
-1.54578e-05
4.79001e-06
-1.79491e-05
2.4913e-06
-1.94633e-05
1.51427e-06
-2.00246e-05
5.61296e-07
-1.924e-05
-7.84601e-07
-1.70354e-05
-2.20466e-06
-1.4451e-05
-2.5844e-06
-1.23754e-05
-2.0756e-06
-1.09564e-05
-1.41896e-06
-9.76989e-06
-1.1865e-06
-8.38848e-06
-1.38141e-06
-6.17375e-06
-2.21473e-06
-4.57815e-06
-1.5956e-06
-7.12353e-07
1.21954e-06
-5.04484e-06
2.4001e-06
-5.01619e-06
3.19368e-06
-3.06582e-06
3.75292e-06
-1.27596e-06
3.8828e-06
3.32853e-07
1.77401e-06
4.53853e-06
-2.86891e-06
9.04168e-06
-9.77327e-06
1.30464e-05
-1.55459e-05
1.05627e-05
-1.89214e-05
5.86677e-06
-2.02544e-05
2.84727e-06
-2.03872e-05
6.94153e-07
-1.91515e-05
-2.02038e-06
-1.68784e-05
-4.47771e-06
-1.43461e-05
-5.11668e-06
-1.22244e-05
-4.19736e-06
-1.0649e-05
-2.99435e-06
-9.40795e-06
-2.42755e-06
-7.75063e-06
-3.03873e-06
-5.73081e-06
-4.23455e-06
-3.84359e-06
-3.48282e-06
-2.28318e-06
1.46787e-06
-3.65494e-05
2.27504e-06
-3.58546e-05
3.75644e-06
-3.40295e-05
4.04179e-06
-3.01482e-05
1.77126e-06
-2.31098e-05
-1.68363e-06
-9.79223e-06
-5.55668e-06
6.91238e-06
-1.13617e-05
1.86755e-05
-1.61397e-05
1.53363e-05
-1.91357e-05
8.86272e-06
-2.03982e-05
4.10971e-06
-2.02173e-05
5.13237e-07
-1.89091e-05
-3.32854e-06
-1.67936e-05
-6.59321e-06
-1.45448e-05
-7.36543e-06
-1.24628e-05
-6.27934e-06
-1.05599e-05
-4.89726e-06
-9.01321e-06
-3.97428e-06
-7.20855e-06
-4.8434e-06
-5.51783e-06
-5.92527e-06
-3.45922e-06
-5.54143e-06
-4.33296e-06
1.43193e-06
-3.28134e-05
1.90046e-06
-3.19019e-05
3.14642e-06
-3.1514e-05
3.54601e-06
-2.88891e-05
2.17956e-06
-3.99801e-05
-3.9489e-07
-3.06368e-05
-6.41503e-06
-1.16419e-05
-1.40057e-05
1.41162e-05
-1.84556e-05
1.89697e-05
-2.04081e-05
1.08011e-05
-2.0488e-05
4.18927e-06
-1.99997e-05
2.49538e-08
-1.88584e-05
-4.46988e-06
-1.67779e-05
-8.67376e-06
-1.43004e-05
-9.84293e-06
-1.18008e-05
-8.77895e-06
-9.49018e-06
-7.20785e-06
-7.90538e-06
-5.55908e-06
-6.9884e-06
-5.76037e-06
-6.62316e-06
-6.29051e-06
-4.87166e-06
-7.29293e-06
-7.04478e-06
-2.49168e-07
-9.23423e-06
-3.65455e-07
-7.66935e-06
-7.23238e-07
-6.93046e-06
1.1281e-06
-4.72197e-06
2.64556e-06
-1.89369e-05
1.04216e-06
-2.49951e-05
-7.06215e-06
-1.6895e-05
-1.79568e-05
9.15761e-06
-2.38279e-05
1.93846e-05
-2.54114e-05
1.19975e-05
-2.47626e-05
3.52747e-06
-2.26742e-05
-2.06403e-06
-2.02861e-05
-6.85819e-06
-1.7779e-05
-1.11828e-05
-1.47019e-05
-1.29389e-05
-1.14076e-05
-1.21028e-05
-8.50721e-06
-1.01325e-05
-7.00365e-06
-7.07012e-06
-6.80925e-06
-5.95677e-06
-6.98553e-06
-6.11551e-06
-6.27486e-06
-8.00794e-06
-9.74732e-06
-1.93163e-07
-7.04834e-06
-2.01367e-06
-4.24241e-06
-5.556e-06
-1.53931e-06
-1.10492e-05
2.96084e-06
-1.64774e-05
6.97555e-06
-1.80918e-05
4.2475e-06
-2.61671e-05
-8.56119e-06
-2.84717e-05
3.79995e-06
-3.05902e-05
1.35211e-05
-3.01418e-05
1.03173e-05
-2.90794e-05
2.38616e-06
-2.73075e-05
-3.84827e-06
-2.46922e-05
-9.54524e-06
-2.15873e-05
-1.47613e-05
-1.74731e-05
-1.84978e-05
-1.30203e-05
-1.84631e-05
-9.33218e-06
-1.56522e-05
-7.31773e-06
-1.02505e-05
-6.81489e-06
-7.16407e-06
-6.92519e-06
-6.56771e-06
-6.63974e-06
-9.06251e-06
-1.29911e-05
-7.21273e-07
-8.46162e-06
-8.93566e-07
-5.8283e-06
-1.56809e-06
-3.1053e-06
-3.73094e-06
1.83319e-06
-1.01697e-05
8.44223e-06
-2.3355e-05
1.40638e-05
-3.89864e-05
-7.19606e-06
-4.06538e-05
-3.93373e-06
-4.13663e-05
2.96402e-06
-3.96618e-05
3.13805e-06
-3.54567e-05
-3.28778e-06
-3.11462e-05
-9.60515e-06
-2.72797e-05
-1.67585e-05
-2.31161e-05
-2.65436e-05
-1.8905e-05
-3.4774e-05
-1.53059e-05
-3.64113e-05
-1.22799e-05
-3.36028e-05
-9.3895e-06
-2.72666e-05
-7.0448e-06
-2.30105e-05
-5.74383e-06
-2.09598e-05
-6.08033e-06
-2.19154e-05
-2.72259e-05
6.11301e-07
-4.76385e-06
-9.46042e-07
-3.61657e-07
-3.97659e-06
4.08168e-06
-6.98269e-06
8.95394e-06
-1.06269e-05
1.38397e-05
-2.04785e-05
1.87262e-05
-3.66072e-05
7.85364e-07
-4.08627e-05
-9.7741e-06
-4.25826e-05
-5.43599e-06
-4.30422e-05
-7.39675e-06
-4.11832e-05
-1.52332e-05
-3.63372e-05
-2.48231e-05
-2.93954e-05
-3.64616e-05
-2.14121e-05
-5.40182e-05
-1.65821e-05
-6.50417e-05
-1.58362e-05
-6.39589e-05
-1.55676e-05
-6.09375e-05
-1.25779e-05
-5.69988e-05
-7.6615e-06
-5.42896e-05
-4.00513e-06
-5.08968e-05
-5.03475e-06
-4.54151e-05
-4.9707e-05
1.45915e-06
-7.4315e-06
5.29549e-06
-6.33795e-06
8.27232e-06
-9.11186e-07
6.09042e-06
6.96204e-06
-1.4644e-06
1.77036e-05
-2.07543e-05
2.49616e-05
-4.76358e-05
2.01662e-05
-6.07225e-05
2.24772e-06
-5.40327e-05
-1.08074e-05
-4.91269e-05
-2.1422e-05
-4.84419e-05
-3.5661e-05
-4.69035e-05
-5.53673e-05
-3.58968e-05
-7.60831e-05
-2.5493e-05
-9.8419e-05
-2.61315e-05
-9.85178e-05
-2.97366e-05
-7.41578e-05
-2.79738e-05
-6.04865e-05
-2.14282e-05
-5.98348e-05
-1.51882e-05
-5.89711e-05
-9.03239e-06
-5.60696e-05
-6.92356e-06
-4.78244e-05
-4.55271e-05
6.84228e-06
-1.08239e-05
9.92977e-06
-5.29752e-06
6.3801e-06
5.27677e-06
2.53384e-06
1.45034e-05
6.56875e-07
2.18976e-05
-7.82031e-07
2.70939e-05
-1.01808e-05
2.64275e-05
-2.27657e-05
1.93048e-05
-2.33424e-05
-3.37883e-06
-1.26836e-05
-2.66023e-05
-1.50505e-06
-4.51107e-05
7.14324e-06
-5.58312e-05
1.27286e-05
-6.28726e-05
1.87232e-05
-6.73266e-05
2.58231e-05
-6.02039e-05
3.049e-05
-4.23335e-05
3.15457e-05
-2.95085e-05
3.03091e-05
-2.69286e-05
2.61059e-05
-2.4671e-05
1.95348e-05
-1.96448e-05
1.54983e-05
-1.4569e-05
-1.4503e-05
9.15987e-06
-2.14119e-05
1.7649e-05
-1.455e-05
2.09093e-05
2.1954e-06
1.59559e-05
2.14726e-05
7.82642e-06
3.48966e-05
1.76912e-06
3.78763e-05
9.81527e-07
3.88334e-05
-2.00301e-06
2.05807e-05
-1.96573e-06
9.30655e-06
4.95025e-06
-7.6845e-06
1.85575e-05
-1.93931e-05
3.05936e-05
-2.25196e-05
3.34595e-05
-2.37196e-05
3.4703e-05
-2.58691e-05
3.88257e-05
-3.01647e-05
4.1502e-05
-3.24112e-05
3.6198e-05
-2.84254e-05
2.5233e-05
-2.13181e-05
1.86129e-05
-9.03137e-06
9.89047e-06
2.49875e-06
-8.44844e-06
1.70042e-05
3.97539e-05
1.64893e-05
-3.80876e-05
2.3049e-05
-2.32297e-05
1.15373e-05
1.09187e-05
3.12019e-06
2.75435e-05
-1.78161e-06
3.87551e-05
-6.41724e-06
4.19442e-05
-5.80975e-06
3.81003e-05
1.49067e-06
3.16476e-05
8.63503e-06
1.41758e-05
1.62855e-05
3.91292e-06
2.07985e-05
-5.34745e-06
2.30951e-05
-1.21247e-05
2.74037e-05
-2.97158e-05
2.65053e-05
-5.27936e-05
2.51957e-05
-5.57589e-05
2.33052e-05
-5.65956e-05
5.19425e-06
-4.43184e-05
-2.26665e-05
-1.62531e-05
-4.92592e-05
4.15272e-06
-8.02902e-05
2.72536e-05
-0.000134592
6.31233e-05
9.11901e-05
-5.56375e-06
-3.41456e-05
-2.35156e-05
-8.12712e-06
-3.74736e-05
2.29666e-05
-4.18591e-05
2.97805e-05
-3.88022e-05
3.19032e-05
-3.32259e-05
3.32281e-05
-2.6235e-05
2.8266e-05
-1.84241e-05
2.049e-05
-6.69015e-06
4.99727e-06
7.20519e-06
-1.41044e-05
1.62391e-05
-5.2046e-05
1.09082e-05
-7.89192e-05
-9.06786e-07
-8.5655e-05
-7.57963e-06
-7.66664e-05
-4.53254e-05
-7.9077e-05
-0.000144126
-1.67769e-05
-0.00015887
-1.43536e-05
-0.000181582
2.40163e-07
-0.000204033
2.19103e-05
-0.000225256
6.25398e-05
-0.000239841
9.61828e-05
9.25052e-05
-3.02444e-05
-1.88374e-05
-6.19986e-05
-1.29811e-05
-7.31028e-05
-9.31216e-06
-7.39371e-05
-1.26522e-05
-6.82032e-05
-1.60187e-05
-5.87475e-05
-1.63376e-05
-5.09135e-05
-2.12169e-05
-4.40234e-05
-3.13823e-05
-4.10537e-05
-4.87181e-05
-4.5911e-05
-6.57442e-05
-4.74704e-05
-8.11216e-05
-5.10157e-05
-8.59545e-05
-0.000129261
2.97147e-05
-0.000195956
5.11135e-05
-0.000187135
3.29742e-05
-0.000191256
3.25631e-05
-0.000167135
-2.10011e-05
-0.000200351
-1.42714e-05
-0.000217337
1.80776e-05
-0.00023521
7.67832e-05
-0.000246891
0.000105551
9.4881e-05
-5.21566e-05
-3.69939e-05
-8.55847e-05
-3.11352e-05
-9.19069e-05
-2.61799e-05
-8.84497e-05
-3.62264e-05
-7.80765e-05
-4.58793e-05
-6.94772e-05
-4.69369e-05
-6.17102e-05
-4.98936e-05
-5.9e-05
-5.90795e-05
-7.47965e-05
-4.86864e-05
-0.000126546
5.75702e-06
-0.00020037
1.84452e-05
-0.00018288
-2.07107e-05
-0.000139529
3.31063e-05
-0.000143663
5.67398e-05
-0.000158269
6.31771e-05
-0.000210785
8.40854e-05
-0.000162731
-1.00147e-05
-0.000157479
-1.2224e-05
-0.00020506
1.80197e-05
-0.00021759
7.50898e-05
-0.000229553
0.000110048
0.000107878
-6.01145e-05
-2.46814e-05
-9.82653e-05
6.80612e-06
-0.00010238
6.60891e-06
-9.17873e-05
1.77945e-06
-7.83917e-05
-1.78003e-06
-6.53384e-05
-3.34237e-06
-7.00224e-05
9.95115e-06
-8.27125e-05
2.17773e-05
-8.50594e-05
4.78146e-05
-7.53327e-05
7.03303e-05
-7.11651e-05
2.2204e-05
-8.01762e-05
-1.09038e-05
-7.12458e-05
2.41959e-05
-6.63717e-05
5.1867e-05
-7.03074e-05
6.70506e-05
-8.87478e-05
9.77622e-05
-0.000179567
8.89783e-05
-0.000143267
2.9469e-05
-0.000173291
2.48052e-05
-0.000201094
5.15944e-05
-0.000214227
9.50869e-05
0.000112984
-5.53238e-05
0.000104728
-6.05546e-05
0.000116373
-4.90302e-05
4.84206e-05
-3.36234e-05
6.4075e-06
-1.38328e-05
-1.26695e-05
4.85397e-06
-1.5789e-05
3.87453e-06
1.89013e-05
-3.4706e-05
6.63302e-05
-5.11986e-05
6.91243e-05
-5.34236e-05
7.29878e-05
-7.77863e-05
4.65696e-05
-9.65938e-05
7.9055e-06
-8.25537e-05
1.01567e-05
-6.80494e-05
3.7363e-05
-5.71668e-05
5.61671e-05
-3.90559e-05
7.9828e-05
-5.36652e-05
0.000106858
-0.000174535
0.000122346
-0.000164366
6.65232e-05
-0.000189364
4.87337e-05
-0.000186556
6.98051e-05
-0.000176597
0.000123856
0.000321148
-5.15404e-06
0.000146042
2.48769e-06
0.000113277
-2.39343e-06
5.34084e-05
-1.16734e-05
1.56899e-05
-1.54915e-05
-8.85049e-06
-2.71176e-05
-4.16272e-06
-2.27008e-05
1.44848e-05
-1.80513e-05
6.16803e-05
-2.55305e-05
7.66038e-05
-2.86239e-05
7.60812e-05
-3.07136e-05
4.86588e-05
-3.32833e-05
1.04752e-05
-3.74559e-05
1.43288e-05
-3.19742e-05
3.18804e-05
-2.38338e-05
4.80252e-05
-1.41543e-05
7.01465e-05
-5.02794e-06
9.71816e-05
-6.01572e-05
0.000129834
-0.000144075
0.000138997
-0.000173587
0.000104543
-0.000182684
0.000106132
-0.000215134
0.00019229
0.000328364
1.81965e-05
0.000127903
2.54263e-05
0.000106048
2.26248e-05
5.62098e-05
1.78563e-05
2.04583e-05
8.20944e-06
7.96235e-07
-6.69892e-06
1.07456e-05
-1.04701e-05
1.82561e-05
-7.51542e-06
5.87254e-05
-8.47782e-06
7.75664e-05
-4.17465e-06
7.1778e-05
-1.14739e-07
4.45989e-05
-1.16675e-05
2.20281e-05
-2.7579e-05
3.02401e-05
-2.79032e-05
3.22043e-05
-2.3532e-05
4.36536e-05
-1.5165e-05
6.17796e-05
-3.97732e-06
8.59937e-05
8.41623e-06
0.00011688
-8.93027e-08
0.000155893
-4.39754e-05
0.000187443
-0.000107012
0.000243449
-0.000148133
0.000323732
0.000332771
1.40353e-05
0.000113868
2.2479e-05
9.76041e-05
1.85837e-05
6.01052e-05
1.02107e-05
2.88316e-05
6.09817e-07
1.03967e-05
-2.61087e-06
1.39662e-05
-1.56083e-06
1.72061e-05
1.48215e-06
5.56824e-05
2.11784e-06
7.69308e-05
4.6579e-06
6.92379e-05
2.80665e-06
4.64501e-05
-3.88946e-06
2.87241e-05
-8.96786e-06
3.53183e-05
-1.39335e-05
3.71695e-05
-1.64308e-05
4.61502e-05
-1.45251e-05
5.98737e-05
-9.0059e-06
8.04742e-05
2.69651e-07
0.000107608
1.00302e-05
0.000146576
7.51893e-06
0.000195942
-2.30074e-05
0.0002898
-6.23727e-05
0.00037468
0.000344627
7.87766e-06
0.000105991
2.01701e-05
8.53112e-05
2.44897e-05
5.57856e-05
2.20163e-05
3.13054e-05
9.33126e-06
2.30817e-05
-2.54206e-06
2.58396e-05
-1.12866e-05
2.59506e-05
-2.87799e-06
4.72738e-05
7.53746e-06
6.65153e-05
1.34419e-05
6.33335e-05
1.14893e-05
4.84028e-05
1.33879e-06
3.88746e-05
-7.3066e-06
4.39636e-05
-1.52905e-05
4.51532e-05
-1.93876e-05
5.0247e-05
-1.89521e-05
5.94383e-05
-1.55042e-05
7.70265e-05
-1.07398e-05
0.000102845
-2.09474e-07
0.000136046
1.323e-05
0.0001825
2.96104e-05
0.000273421
4.45994e-05
0.000359697
0.000340141
9.1133e-06
9.68774e-05
1.92361e-05
7.51882e-05
2.16763e-05
5.33454e-05
1.58289e-05
3.71529e-05
8.59526e-06
3.03153e-05
1.07664e-06
3.33582e-05
-5.05751e-06
3.20848e-05
-3.14561e-06
4.5362e-05
7.22788e-06
5.61418e-05
1.25934e-05
5.7968e-05
7.48806e-06
5.35081e-05
-2.11997e-06
4.84826e-05
-8.23002e-06
5.00736e-05
-1.28739e-05
4.97969e-05
-1.65047e-05
5.38777e-05
-1.88543e-05
6.17876e-05
-1.80763e-05
7.62498e-05
-1.48086e-05
9.95788e-05
-8.43317e-06
0.000129671
6.17922e-06
0.000167892
3.74881e-05
0.000242107
8.30235e-05
0.000314215
0.000295531
1.28821e-05
8.39953e-05
1.9604e-05
6.84663e-05
2.07706e-05
5.21789e-05
1.60084e-05
4.19151e-05
8.64437e-06
3.76794e-05
2.76144e-06
3.92412e-05
-3.96924e-06
3.88155e-05
-3.84097e-06
4.52337e-05
1.58488e-06
5.07159e-05
4.1797e-06
5.53732e-05
1.14656e-06
5.65413e-05
-5.22337e-06
5.48525e-05
-9.63778e-06
5.44879e-05
-1.3659e-05
5.38181e-05
-1.64884e-05
5.6707e-05
-1.80877e-05
6.33873e-05
-1.74412e-05
7.56039e-05
-1.33713e-05
9.55118e-05
-6.3277e-06
0.000122631
6.89142e-06
0.000154689
4.26183e-05
0.000206378
0.000100532
0.000256347
0.000237024
1.17527e-05
7.22424e-05
1.72494e-05
6.29696e-05
1.74113e-05
5.2017e-05
1.3401e-05
4.59254e-05
8.08731e-06
4.29931e-05
3.97521e-06
4.33533e-05
-5.67583e-07
4.33583e-05
-1.88316e-06
4.65493e-05
-4.42113e-07
4.92749e-05
1.03739e-06
5.38937e-05
4.59689e-07
5.7119e-05
-2.32703e-06
5.76393e-05
-5.43014e-06
5.7591e-05
-9.18546e-06
5.75734e-05
-1.21203e-05
5.96422e-05
-1.33661e-05
6.46333e-05
-1.18889e-05
7.41277e-05
-5.69821e-06
8.93227e-05
6.42985e-06
0.000110507
2.54662e-05
0.000135666
6.13185e-05
0.000170528
0.000118509
0.000199182
0.000180668
7.89873e-06
6.43438e-05
1.21448e-05
5.87236e-05
1.22754e-05
5.18865e-05
1.00294e-05
4.81713e-05
7.03755e-06
4.5985e-05
4.63528e-06
4.57556e-05
2.18716e-06
4.58064e-05
8.80059e-07
4.78564e-05
6.07484e-07
4.95475e-05
1.37488e-06
5.31264e-05
2.21746e-06
5.62765e-05
2.15987e-06
5.76969e-05
1.35809e-06
5.83929e-05
-3.55517e-07
5.92872e-05
-2.07531e-06
6.13618e-05
-2.81658e-06
6.53752e-05
-1.38609e-06
4.22372e-06
1.59934e-05
3.64056e-05
6.96675e-05
0.000119059
4.93406e-06
8.10981e-06
8.65067e-06
7.86628e-06
6.49086e-06
5.32018e-06
4.11985e-06
3.60346e-06
3.33496e-06
3.98318e-06
5.35985e-06
6.59688e-06
7.36428e-06
7.47018e-06
7.49618e-06
)
;

boundaryField
{
    leftWall
    {
        type            fixedValue;
        value           uniform 0;
    }
    rightWall
    {
        type            fixedValue;
        value           nonuniform 0();
    }
    lowerWall
    {
        type            fixedValue;
        value           uniform 0;
    }
    atmosphere
    {
        type            calculated;
        value           nonuniform 0();
    }
    defaultFaces
    {
        type            empty;
        value           nonuniform 0();
    }
    procBoundary0to1
    {
        type            processor;
        value           nonuniform List<scalar> 
26
(
-3.86581e-06
-2.27276e-06
-1.40943e-06
-2.15985e-06
-3.587e-06
-4.73839e-06
-5.94617e-06
-8.25217e-06
-1.68262e-05
1.45889e-05
-5.71831e-05
-0.000173949
-0.00024138
-0.000257981
-0.000266772
-0.000159445
-0.0002275
-0.00025533
-0.000206997
-0.000148661
-7.39719e-05
4.91187e-05
0.000127588
0.000159001
0.000174847
0.000165473
)
;
    }
    procBoundary0to2
    {
        type            processor;
        value           nonuniform List<scalar> 
24
(
7.26972e-05
8.37138e-05
9.87381e-05
0.000115257
0.000137253
0.000149772
0.000134211
5.94097e-05
5.55479e-05
5.13456e-05
4.89558e-05
4.73605e-05
4.69263e-05
4.70068e-05
4.83729e-05
4.98161e-05
5.24782e-05
5.48999e-05
5.646e-05
5.76256e-05
5.91813e-05
6.13364e-05
8.00545e-06
6.48655e-05
)
;
    }
}


// ************************************************************************* //
