/*--------------------------------*- C++ -*----------------------------------*\
| =========                 |                                                 |
| \\      /  F ield         | OpenFOAM: The Open Source CFD Toolbox           |
|  \\    /   O peration     | Version:  2.4.0                                 |
|   \\  /    A nd           | Web:      www.OpenFOAM.org                      |
|    \\/     M anipulation  |                                                 |
\*---------------------------------------------------------------------------*/
FoamFile
{
    version     2.0;
    format      ascii;
    class       surfaceScalarField;
    location    "0.8";
    object      phi.oil;
}
// * * * * * * * * * * * * * * * * * * * * * * * * * * * * * * * * * * * * * //

dimensions      [0 3 -1 0 0 0 0];

internalField   nonuniform List<scalar> 
1101
(
1.25702e-06
-1.25028e-06
2.699e-06
-1.43554e-06
3.2251e-06
-5.24589e-07
3.04122e-06
1.84047e-07
2.32314e-06
7.18097e-07
-1.26668e-07
2.44981e-06
-4.52572e-06
4.39906e-06
-1.06677e-05
6.14204e-06
-1.54578e-05
4.79001e-06
-1.79491e-05
2.4913e-06
-1.94633e-05
1.51427e-06
-2.00246e-05
5.61312e-07
-1.924e-05
-7.84563e-07
-1.70354e-05
-2.20458e-06
-1.44509e-05
-2.58421e-06
-1.23753e-05
-2.07489e-06
-1.09564e-05
-1.4169e-06
-9.7698e-06
-1.18298e-06
-8.38764e-06
-1.37307e-06
-6.14492e-06
-2.18335e-06
-4.53897e-06
-1.21495e-06
5.74891e-07
1.21931e-06
-2.26266e-06
2.39974e-06
-2.37297e-06
3.19353e-06
-1.04625e-06
3.75289e-06
-9.95533e-08
3.88279e-06
7.56334e-07
1.774e-06
4.58629e-06
-2.86892e-06
9.04215e-06
-9.77328e-06
1.30464e-05
-1.55459e-05
1.05627e-05
-1.89214e-05
5.86677e-06
-2.02544e-05
2.84728e-06
-2.03873e-05
6.94173e-07
-1.91515e-05
-2.02034e-06
-1.68784e-05
-4.47766e-06
-1.43461e-05
-5.11651e-06
-1.22243e-05
-4.19629e-06
-1.0649e-05
-2.99144e-06
-9.40785e-06
-2.4214e-06
-7.75013e-06
-3.02613e-06
-5.7181e-06
-4.2053e-06
-3.77245e-06
-3.27161e-06
-1.24631e-06
1.45716e-06
-1.4948e-05
2.25075e-06
-1.4157e-05
3.71593e-06
-1.25871e-05
3.97445e-06
-8.65663e-06
1.70205e-06
-2.83143e-06
-1.69188e-06
5.09428e-06
-5.55661e-06
1.22188e-05
-1.13617e-05
1.8934e-05
-1.61397e-05
1.53466e-05
-1.91357e-05
8.8628e-06
-2.03982e-05
4.10972e-06
-2.02173e-05
5.13255e-07
-1.89091e-05
-3.32851e-06
-1.67936e-05
-6.59313e-06
-1.45448e-05
-7.36386e-06
-1.24628e-05
-6.27244e-06
-1.05598e-05
-4.88656e-06
-9.01304e-06
-3.95628e-06
-7.20798e-06
-4.80022e-06
-5.51651e-06
-5.80943e-06
-3.41329e-06
-5.26709e-06
-3.49417e-06
1.16541e-06
-1.30664e-05
1.08977e-06
-1.17595e-05
1.63586e-06
-1.21106e-05
1.59858e-06
-1.06661e-05
6.62382e-07
-1.55435e-05
-1.41449e-06
-9.4566e-06
-7.35207e-06
4.98978e-06
-1.42553e-05
2.17324e-05
-1.84524e-05
1.99214e-05
-2.0408e-05
1.0836e-05
-2.0488e-05
4.18983e-06
-1.99997e-05
2.49875e-08
-1.88584e-05
-4.46917e-06
-1.67777e-05
-8.65108e-06
-1.42998e-05
-9.69222e-06
-1.18003e-05
-8.50575e-06
-9.4897e-06
-6.91657e-06
-7.90453e-06
-5.34451e-06
-6.98668e-06
-5.51075e-06
-6.61877e-06
-5.88563e-06
-4.82194e-06
-6.58028e-06
-5.76682e-06
-4.7533e-07
-4.49104e-06
-4.29174e-07
-3.09321e-06
-8.08497e-07
-2.48084e-06
-4.37927e-07
-4.33755e-07
-2.39414e-08
3.36844e-06
-1.42585e-06
8.91841e-06
-9.17684e-06
1.27296e-05
-1.93077e-05
2.19159e-05
-2.39934e-05
2.26497e-05
-2.54033e-05
1.24832e-05
-2.47623e-05
3.56397e-06
-2.26742e-05
-2.05474e-06
-2.02822e-05
-6.73176e-06
-1.77466e-05
-1.05987e-05
-1.4681e-05
-1.18137e-05
-1.14012e-05
-1.09008e-05
-8.50639e-06
-9.05773e-06
-7.00361e-06
-6.32649e-06
-6.81145e-06
-5.37449e-06
-6.9868e-06
-5.50556e-06
-6.25738e-06
-7.13343e-06
-8.43104e-06
-2.55141e-07
-4.23598e-06
-2.27225e-06
-1.0762e-06
-5.91825e-06
1.16507e-06
-1.15361e-05
5.18397e-06
-1.73553e-05
9.33553e-06
-1.88575e-05
1.34643e-05
-2.41333e-05
2.74703e-05
-2.92001e-05
2.55742e-05
-3.10348e-05
1.98464e-05
-3.01665e-05
1.14446e-05
-2.90724e-05
2.57503e-06
-2.72584e-05
-3.3568e-06
-2.45757e-05
-8.22528e-06
-2.14603e-05
-1.26896e-05
-1.74382e-05
-1.54981e-05
-1.30135e-05
-1.52562e-05
-9.34254e-06
-1.28316e-05
-7.32609e-06
-8.38912e-06
-6.82367e-06
-5.7478e-06
-6.93527e-06
-5.35424e-06
-6.63367e-06
-7.75068e-06
-1.01627e-05
-7.59676e-07
-3.47648e-06
-8.58276e-07
-9.77806e-07
-1.53477e-06
1.84135e-06
-3.7539e-06
7.40525e-06
-7.82793e-06
1.34381e-05
-1.53578e-05
2.05943e-05
-2.9107e-05
3.74152e-05
-3.86269e-05
3.41836e-05
-4.15905e-05
1.68667e-05
-3.97456e-05
7.501e-06
-3.52679e-05
-1.38504e-06
-3.08668e-05
-7.02534e-06
-2.71532e-05
-1.2423e-05
-2.2999e-05
-2.02363e-05
-1.88331e-05
-2.58821e-05
-1.52818e-05
-2.47851e-05
-1.23035e-05
-1.80436e-05
-9.41452e-06
-6.89787e-06
-7.06978e-06
1.08055e-06
-5.76177e-06
2.68469e-06
-6.10235e-06
-4.16708e-06
1.48868e-06
5.56531e-07
-4.03327e-06
-1.17997e-06
6.55368e-07
-4.22107e-06
4.60561e-06
-7.29567e-06
1.03233e-05
-1.03665e-05
1.64704e-05
-1.37746e-05
2.36143e-05
-2.31859e-05
4.46849e-05
-3.47598e-05
4.70339e-05
-4.19489e-05
2.06082e-05
-4.30701e-05
3.24583e-06
-4.0961e-05
-6.9633e-06
-3.60928e-05
-1.6981e-05
-2.91256e-05
-2.67471e-05
-2.06837e-05
-3.62335e-05
-1.56821e-05
-1.79658e-05
-1.47109e-05
-1.01445e-05
-1.33055e-05
-8.87685e-06
-1.20298e-05
-5.49573e-06
-8.70329e-06
-1.70946e-06
-5.07088e-06
2.57839e-06
-6.7762e-06
5.49378e-06
5.51268e-06
1.54212e-06
-5.50405e-06
5.73936e-06
1.81934e-06
8.63409e-06
1.31432e-05
6.65754e-06
1.07285e-05
-1.71175e-06
1.59377e-05
-8.63745e-06
2.19978e-05
-1.16679e-05
2.97111e-05
-1.76991e-05
3.94044e-05
-3.01161e-05
3.98975e-05
-4.21646e-05
1.4753e-05
-4.84945e-05
-8.65334e-06
-4.66855e-05
-3.44642e-05
-3.11304e-05
-2.40716e-05
-2.02943e-05
-2.58483e-05
-2.25215e-05
-2.79136e-05
-2.45148e-05
-1.35862e-05
-2.76104e-05
-2.87349e-06
-2.90631e-05
-1.08481e-06
-2.90104e-05
-1.08913e-06
-2.98122e-05
3.87116e-06
-3.46463e-05
1.15602e-05
1.16436e-05
5.10255e-06
-9.63522e-06
7.36565e-06
1.40322e-06
5.45495e-06
1.60147e-05
1.95058e-06
2.42734e-05
4.33594e-07
3.04408e-05
1.23547e-06
3.80883e-05
5.81128e-06
4.17175e-05
1.55621e-05
4.40686e-05
2.38955e-05
3.39689e-05
2.64122e-05
1.96259e-05
2.88826e-05
9.71585e-06
2.01139e-05
-6.28353e-06
2.34777e-05
-1.68797e-05
2.23349e-05
-1.93593e-05
2.31936e-05
-1.47197e-05
2.35547e-05
-7.78645e-06
2.29854e-05
-2.14419e-06
2.00896e-05
2.49104e-07
1.33597e-05
4.49652e-06
6.91227e-06
9.43808e-06
3.48872e-06
1.55522e-05
1.11734e-05
9.37969e-06
-1.32608e-05
1.97755e-05
-3.04765e-06
2.23319e-05
1.80347e-05
1.73038e-05
3.55172e-05
9.04131e-06
4.89775e-05
3.25336e-06
5.13098e-05
4.37087e-06
5.13574e-05
1.40576e-05
4.94663e-05
2.62371e-05
4.0709e-05
3.62709e-05
2.55501e-05
4.04765e-05
8.47089e-06
3.66547e-05
-4.26896e-06
3.43003e-05
-1.5178e-05
3.66737e-05
-2.40291e-05
4.23047e-05
-3.09492e-05
4.06104e-05
-3.34258e-05
3.17039e-05
-2.77281e-05
2.08503e-05
-1.31901e-05
1.60699e-05
3.71614e-06
6.27156e-06
1.41707e-05
-1.35425e-05
2.65017e-05
5.40227e-05
1.77185e-05
-2.77044e-05
2.39554e-05
-1.22517e-05
1.09216e-05
2.0629e-05
2.07628e-06
3.82901e-05
-2.16484e-06
4.98842e-05
-5.98904e-06
5.31342e-05
-4.77858e-06
4.87162e-05
2.70658e-06
4.17014e-05
1.2712e-05
3.18303e-05
2.0684e-05
1.98694e-05
2.54412e-05
4.45603e-06
2.71142e-05
-1.01576e-05
2.88894e-05
-3.24205e-05
2.57481e-05
-6.17586e-05
2.28091e-05
-8.55752e-05
1.74062e-05
-9.1782e-05
-3.26516e-06
-3.86364e-05
-2.83222e-05
-7.50509e-06
-5.12024e-05
1.37223e-05
-8.29145e-05
3.95696e-05
-0.000137986
7.56777e-05
0.00011139
-3.70663e-06
-2.47133e-05
-2.2357e-05
-1.47833e-07
-3.82378e-05
2.99464e-05
-4.55598e-05
3.74149e-05
-4.23867e-05
4.04321e-05
-3.54977e-05
4.12734e-05
-2.74238e-05
3.63818e-05
-1.86692e-05
2.87198e-05
-5.34349e-06
1.31826e-05
1.01908e-05
-6.59281e-06
1.93715e-05
-4.30123e-05
1.31588e-05
-7.4255e-05
-6.44131e-07
-0.000101207
-7.97621e-06
-9.86039e-05
-3.90014e-05
-0.00010741
-0.000135788
-6.36387e-05
-0.000201506
-1.83527e-05
-0.000196107
2.10761e-06
-0.000206015
2.31752e-05
-0.000235306
6.51419e-05
-0.000265332
0.000102079
0.000111225
-2.93129e-05
-8.75615e-06
-6.07745e-05
-8.36247e-07
-7.38726e-05
-3.21608e-06
-7.58559e-05
-7.97052e-06
-7.0578e-05
-1.28714e-05
-6.09202e-05
-1.5008e-05
-5.26654e-05
-1.95939e-05
-4.55065e-05
-3.02577e-05
-4.20941e-05
-4.7012e-05
-4.6796e-05
-6.68874e-05
-4.89029e-05
-9.44156e-05
-4.57906e-05
-0.000113553
-5.27569e-05
-7.94735e-05
-3.87376e-05
-4.19854e-05
-0.000118453
-6.38985e-05
-0.000230605
-3.2443e-05
-0.000214127
-2.85661e-05
-0.000214923
-1.74393e-05
-0.000222784
1.96826e-05
-0.000239748
8.068e-05
-0.000251899
0.000111241
0.000106494
-5.68716e-05
-2.44169e-05
-8.80638e-05
-2.81233e-05
-9.38728e-05
-4.0997e-05
-9.06063e-05
-4.96172e-05
-7.97057e-05
-5.94556e-05
-7.14274e-05
-5.99886e-05
-6.38145e-05
-6.21543e-05
-6.06424e-05
-7.76797e-05
-6.61935e-05
-8.81445e-05
-7.19617e-05
-6.3284e-05
-6.04992e-05
-4.53069e-05
-8.14107e-05
-4.59312e-05
-0.000109459
3.03534e-07
-0.00017202
3.67192e-05
-0.000190403
2.06093e-05
-0.000242643
-2.17091e-05
-0.000214114
-3.85353e-05
-0.000196757
-1.40221e-05
-0.000209274
1.95152e-05
-0.000217604
7.87137e-05
-0.000226311
0.000115821
0.000120285
-7.60411e-05
-4.92157e-05
-0.000100934
-4.49996e-05
-9.87489e-05
-5.2727e-05
-8.92714e-05
-4.29386e-05
-7.59655e-05
-3.67851e-05
-6.68723e-05
-3.18802e-05
-6.32894e-05
-4.53507e-05
-6.08065e-05
-5.06909e-05
-5.98161e-05
-5.0405e-05
-5.0961e-05
-1.19263e-05
-5.83758e-05
8.15707e-06
-8.02037e-05
-1.11504e-05
-7.1065e-05
2.39267e-05
-6.62898e-05
4.7963e-05
-9.66971e-05
6.52261e-05
-0.000207967
3.12212e-05
-0.00023004
7.8162e-06
-0.000206126
1.51913e-05
-0.00019509
3.19645e-05
-0.000201383
6.0061e-05
-0.000217582
0.000105575
0.000141342
-7.16566e-05
-4.90769e-07
-7.91957e-05
1.41174e-05
-6.05729e-05
1.29004e-06
-3.62341e-05
-1.17769e-05
-1.61501e-05
-1.47578e-05
4.87052e-06
-1.68127e-05
2.26683e-06
1.73612e-05
-3.58207e-05
6.09347e-05
-4.92292e-05
6.35457e-05
-5.31946e-05
7.28833e-05
-7.82991e-05
4.65261e-05
-9.2125e-05
8.60342e-06
-8.15645e-05
8.77577e-06
-6.83454e-05
3.4181e-05
-5.35259e-05
4.94129e-05
-6.56372e-05
7.5867e-05
-0.000153061
7.15173e-05
-0.000223757
5.54985e-05
-0.000205879
5.79041e-05
-0.000194635
6.33336e-05
-0.000208663
9.33981e-05
-0.000284029
0.000136877
0.000178832
-1.34447e-05
7.27696e-05
1.74491e-07
0.000109767
-8.49532e-07
5.32568e-05
-1.1596e-05
1.6004e-05
-1.50092e-05
-8.31336e-06
-2.71199e-05
-3.97166e-06
-2.26747e-05
1.48915e-05
-1.81251e-05
6.15495e-05
-2.5527e-05
7.65359e-05
-2.86455e-05
7.60083e-05
-3.05454e-05
4.86033e-05
-3.21295e-05
1.03118e-05
-3.6741e-05
1.17408e-05
-3.17291e-05
3.03791e-05
-2.39779e-05
4.58688e-05
-1.49268e-05
6.72651e-05
-9.89134e-05
9.31858e-05
-0.000208594
8.03077e-05
-0.000222128
8.25344e-05
-0.000202682
7.7973e-05
-0.000197832
8.7914e-05
-0.000236726
0.000121393
0.000195966
1.74573e-05
0.000125789
2.50136e-05
0.000103843
2.20511e-05
5.31855e-05
1.8175e-05
1.98808e-05
8.76832e-06
1.26507e-06
-6.95913e-06
1.09109e-05
-1.04944e-05
1.85493e-05
-7.44202e-06
5.84086e-05
-8.47665e-06
7.73574e-05
-4.19115e-06
7.17086e-05
-2.6041e-08
4.44057e-05
-1.41116e-05
2.12563e-05
-2.57864e-05
2.9969e-05
-2.83743e-05
3.08473e-05
-2.42783e-05
4.20805e-05
-1.61974e-05
5.78125e-05
-1.18276e-05
8.3932e-05
-9.28236e-05
0.00011361
-0.000194959
0.00010141
-0.000209966
0.000108127
-0.000203631
0.000127208
-0.000175911
0.000157668
0.000266474
1.31272e-05
0.00011122
2.18745e-05
9.39886e-05
1.85602e-05
5.93901e-05
1.09418e-05
2.82441e-05
6.1645e-07
1.01622e-05
-2.70887e-06
1.39152e-05
-1.31551e-06
1.69987e-05
1.48553e-06
5.55352e-05
2.03272e-06
7.67431e-05
4.64883e-06
6.89214e-05
2.6969e-06
4.61288e-05
-4.23194e-06
2.87732e-05
-9.03944e-06
3.40319e-05
-1.44475e-05
3.09374e-05
-1.6217e-05
3.8585e-05
-1.44823e-05
5.68306e-05
-9.30736e-06
7.8212e-05
-6.2791e-06
0.000105101
-1.10969e-05
0.000141769
-3.63237e-05
0.000185772
-7.6007e-05
0.000262044
-0.00010132
0.000337189
0.000337775
6.25146e-06
0.000102151
2.00287e-05
8.48518e-05
2.42133e-05
5.55636e-05
2.22534e-05
3.12147e-05
9.40709e-06
2.31042e-05
-2.7735e-06
2.5839e-05
-1.11378e-05
2.599e-05
-2.87295e-06
4.72467e-05
7.47652e-06
6.65249e-05
1.33865e-05
6.24538e-05
1.14459e-05
4.81555e-05
1.47365e-06
3.85479e-05
-7.34807e-06
4.34522e-05
-1.54909e-05
4.47204e-05
-1.9442e-05
4.94113e-05
-1.82424e-05
5.9104e-05
-1.417e-05
7.46903e-05
-1.23367e-05
9.80288e-05
-8.765e-06
0.000132491
-3.5141e-06
0.000178723
3.72007e-06
0.00026675
1.15239e-05
0.000353364
0.000346003
8.71982e-06
9.6833e-05
1.91872e-05
7.51585e-05
2.16298e-05
5.32784e-05
1.59687e-05
3.70272e-05
8.60236e-06
3.02982e-05
1.02778e-06
3.33579e-05
-5.13172e-06
3.20293e-05
-3.02817e-06
4.52731e-05
7.6798e-06
5.61363e-05
1.25624e-05
5.76209e-05
7.62712e-06
5.30545e-05
-1.86956e-06
4.76144e-05
-8.25292e-06
4.99249e-05
-1.29126e-05
4.96873e-05
-1.65648e-05
5.37705e-05
-1.88723e-05
6.16819e-05
-1.62914e-05
7.59095e-05
-1.42004e-05
9.46542e-05
-1.33231e-05
0.000118475
-5.84276e-06
0.000162487
1.59022e-05
0.000243047
5.46393e-05
0.000320851
0.000308583
1.26701e-05
8.40752e-05
1.95626e-05
6.84619e-05
2.07664e-05
5.2135e-05
1.60291e-05
4.18994e-05
8.6445e-06
3.7679e-05
2.74809e-06
3.9241e-05
-3.99131e-06
3.88028e-05
-3.75843e-06
4.52114e-05
1.74292e-06
5.06517e-05
4.15509e-06
5.49669e-05
1.3278e-06
5.58451e-05
-5.24649e-06
5.46169e-05
-9.68183e-06
5.44116e-05
-1.3695e-05
5.34966e-05
-1.65342e-05
5.53171e-05
-1.81443e-05
6.29219e-05
-1.71101e-05
7.54431e-05
-1.20069e-05
9.41747e-05
-7.48622e-06
0.000114089
1.37753e-06
0.000138659
2.91247e-05
0.00020035
7.99484e-05
0.000260788
0.000244443
1.16683e-05
7.22808e-05
1.72118e-05
6.29757e-05
1.74192e-05
5.20124e-05
1.34014e-05
4.59251e-05
8.0873e-06
4.2993e-05
3.97442e-06
4.33532e-05
-5.69631e-07
4.33577e-05
-1.87967e-06
4.65474e-05
-4.32691e-07
4.9264e-05
1.04284e-06
5.38645e-05
4.71244e-07
5.70135e-05
-2.39935e-06
5.76014e-05
-5.58671e-06
5.74957e-05
-9.37121e-06
5.73433e-05
-1.20659e-05
5.91748e-05
-1.33963e-05
6.33062e-05
-1.18768e-05
7.39186e-05
-5.11171e-06
8.91567e-05
6.80854e-06
0.000109293
2.39757e-05
0.000130182
5.65512e-05
0.000149775
0.000108206
0.000182394
0.000164211
7.87701e-06
6.43615e-05
1.21394e-05
5.87268e-05
1.22755e-05
5.18864e-05
1.00294e-05
4.81713e-05
7.03753e-06
4.5985e-05
4.63522e-06
4.57556e-05
2.18706e-06
4.58064e-05
8.79685e-07
4.78563e-05
6.07459e-07
4.95468e-05
1.37547e-06
5.31255e-05
2.2172e-06
5.62755e-05
2.13637e-06
5.76861e-05
1.2295e-06
5.83105e-05
-5.4983e-07
5.90411e-05
-2.21522e-06
6.0953e-05
-2.84518e-06
6.49894e-05
-1.48985e-06
4.41737e-06
1.65731e-05
3.70786e-05
6.8987e-05
0.000116171
4.93245e-06
8.10969e-06
8.65067e-06
7.86628e-06
6.49085e-06
5.32016e-06
4.11981e-06
3.60341e-06
3.33489e-06
3.98321e-06
5.36358e-06
6.60104e-06
7.25639e-06
7.25294e-06
7.37823e-06
)
;

boundaryField
{
    leftWall
    {
        type            fixedValue;
        value           uniform 0;
    }
    rightWall
    {
        type            fixedValue;
        value           nonuniform 0();
    }
    lowerWall
    {
        type            fixedValue;
        value           uniform 0;
    }
    atmosphere
    {
        type            calculated;
        value           nonuniform 0();
    }
    defaultFaces
    {
        type            empty;
        value           nonuniform 0();
    }
    procBoundary0to1
    {
        type            processor;
        value           nonuniform List<scalar> 
26
(
-3.86955e-06
-2.26151e-06
-1.37225e-06
-2.12474e-06
-3.56067e-06
-4.74093e-06
-4.97838e-06
-1.16565e-05
-4.0371e-05
4.40605e-06
-6.04021e-05
-0.000205502
-0.000272454
-0.000262107
-0.000270083
-0.000284651
-0.000155862
-0.00020957
-0.000182698
-0.000145343
-8.91335e-05
1.87641e-05
9.86753e-05
0.000137837
0.00016599
0.000162923
)
;
    }
    procBoundary0to2
    {
        type            processor;
        value           nonuniform List<scalar> 
24
(
7.23375e-05
8.36362e-05
9.84183e-05
0.00011395
0.000132573
0.000138891
0.000127686
5.94109e-05
5.55479e-05
5.13456e-05
4.89558e-05
4.73605e-05
4.69263e-05
4.70068e-05
4.83728e-05
4.98158e-05
5.24777e-05
5.48992e-05
5.64564e-05
5.75855e-05
5.88913e-05
6.07677e-05
7.75729e-06
6.448e-05
)
;
    }
}


// ************************************************************************* //
