/*--------------------------------*- C++ -*----------------------------------*\
| =========                 |                                                 |
| \\      /  F ield         | OpenFOAM: The Open Source CFD Toolbox           |
|  \\    /   O peration     | Version:  2.4.0                                 |
|   \\  /    A nd           | Web:      www.OpenFOAM.org                      |
|    \\/     M anipulation  |                                                 |
\*---------------------------------------------------------------------------*/
FoamFile
{
    version     2.0;
    format      ascii;
    class       volScalarField;
    location    "0.8";
    object      rho;
}
// * * * * * * * * * * * * * * * * * * * * * * * * * * * * * * * * * * * * * //

dimensions      [1 -3 0 0 0 0 0];

internalField   nonuniform List<scalar> 
575
(
13529
13529
13529
13529
13529
13529
13529
13529
13529
13529
13529
13529
13529
13529
13529
13529
13529
13529
13529
13529
13529
13528.9
13521.6
13521.8
13525.6
13527.7
13528.5
13528.9
13529
13529
13529
13529
13529
13529
13529
13529
13529
13529
13529
13529
13529
13529
13529
13528.9
11755.9
11877.7
12149.1
12670.9
13214.7
13488.8
13527.2
13528.9
13529
13529
13529
13529
13529
13529
13529
13529
13529
13529
13529
13529
13529
13529
1549.78
1600.58
1710.21
1999.07
2828.74
5157.34
9190.46
12965.5
13512.1
13527.9
13528.9
13529
13529
13529
13529
13529
13529
13529
13529
13529
13529
13528.9
1000.06
1000.06
1000.06
1000.06
1005.75
1073.44
1859.56
7593.22
13004.9
13505.9
13527.3
13528.6
13528.8
13528.9
13528.9
13528.9
13528.9
13529
13529
13529
13528.9
13528.9
1000.07
1000.07
1000.06
1000.06
1000.06
1000.16
1061.24
3350.44
10744
13303.1
13510.7
13526.7
13528.2
13525.2
13510
13499.7
13504.5
13519.9
13525.3
13526.2
13522.8
13514
1000.09
1000.08
1000.07
1000.07
1000.07
1000.11
1029.64
2185.64
7971.56
12780.2
13468.9
13512.2
13454
13100.1
12488.1
12197.3
12260.2
12661.3
12922.5
13021.4
12908.3
12565.1
1000.05
1000.05
1000.05
1000.05
1000.06
1000.07
1006.23
1375.33
4413.83
10125.7
12533.9
12474.9
11120.2
8624.38
6541.04
5725.2
5530.59
5804.97
6089.56
6289.91
6284.56
5858.23
1000.02
1000.02
1000.02
1000.03
1000.03
1000.03
1000.51
1050.19
1525.38
2576.66
3697.52
4186.25
3486.38
2260.46
1660.94
1453.77
1330.16
1281.83
1235.97
1225.49
1271.1
1278.07
1000
999.97
999.735
999.89
999.956
999.87
999.946
1001.88
1015.64
1052.18
1071.74
1039.69
1031.82
1010.61
999.966
992.163
985.079
978.346
973.911
971.51
973.945
973.344
999.907
994.924
980.011
988.609
996.589
996.409
997.77
999.266
1001.73
1004.56
1005.5
1002.19
997.948
978.835
939.578
905.653
882.106
874.692
879.3
878.044
877.143
874.858
987.569
896.52
801.376
853.973
941.294
956.336
974.268
985.205
989.338
990.921
988.299
962.306
906.72
803.964
692.186
529.316
445.01
467.856
614.901
671.894
677.513
678.61
866.052
628.907
577.923
636.72
744.396
792.183
826.3
841.025
836.246
818.645
737.797
670.588
505.403
260.185
92.9951
24.8704
105.195
364.812
520.943
540.985
546.534
534.354
692.947
552.426
522.528
544.339
561.232
585.309
595.325
588.858
543.785
459.329
233.497
52.315
2.57337
1.02767
1.50981
8.32017
151.164
450.851
518.473
531.996
525.67
482.103
477.493
280.532
172.37
135.433
121.017
123.62
120.861
79.5739
29.5964
7.01231
1.2919
1.06295
1.00242
1.00029
1.00088
1.60294
32.8839
234.494
465.988
492.924
493.033
376.072
71.8177
17.8268
5.50167
2.9195
1.98932
1.85314
1.54174
1.26904
1.12664
1.01491
1.00023
1.00002
1.00003
1.00004
1.00005
1.00519
1.60664
21.3926
215.797
446.183
456.434
212.083
2.14051
1.11196
1.00767
1.00091
1.00008
1.00001
1.00006
1.00005
1.00006
1.00001
1.00001
1.00002
1.00007
1.0001
1.00007
1.00017
1.00127
1.36103
28.2598
164.023
234.586
59.8793
1.20244
1.00241
1.00021
1.00016
1.00007
1.00002
1.00001
1.00001
1.00001
1.00001
1.00001
1.00001
1.00001
1.00009
1.00015
1.00018
1.00021
1.00024
1.00979
2.26766
12.5336
23.3627
7.02781
1.02622
1.0002
1.00018
1.00012
1.00005
1.00003
1.00001
1.00001
1.00001
1.00001
1.00001
1.00001
1.00001
1.00006
1.00018
1.00018
1.00017
1.00017
1.00038
1.01436
1.14493
1.32015
1.14919
1.00283
1.00015
1.00011
1.00006
1.00004
1.00001
1
1.00001
1.00002
1.00002
1.00001
1.00001
1.00003
1.00005
1.00011
1.00014
1.00007
1.00012
1.00031
1.00063
1.00109
1.00154
1.00149
1.00095
1.00009
1.00005
1.00004
1.00003
1.00001
0.999999
1
1.00002
1.00002
1.00002
1.00003
1.00004
1.00003
1.00002
1.00003
1.00002
1.00008
1.00025
1.0006
1.00106
1.00141
1.00137
1.00114
1.00007
1.00005
1.00003
1.00002
1
0.999999
1
1.00001
1.00002
1.00003
1.00004
1.00003
1.00001
1.00001
1.00001
1.00001
1.00003
1.00014
1.00045
1.00089
1.0013
1.0014
1.00134
1.00006
1.00004
1.00002
1
0.999999
0.999999
1
1
1.00001
1.00002
1.00003
1.00001
1.00001
1.00001
1.00001
1.00001
1.00002
1.00006
1.00019
1.00053
1.00103
1.00131
1.00127
1.00005
1.00002
1.00001
0.999999
0.999999
0.999999
1
1
1
1
1.00001
1
1.00001
1.00003
1.00005
1.00003
1.00002
1.00003
1.00006
1.00017
1.00055
1.00086
1.00086
1.00002
1.00001
1
0.999999
0.999999
1
1
1
1
1
1
1
1.00001
1.00003
1.00006
1.00006
1.00002
1.00002
1.00003
1.00007
1.00015
1.00029
1.00025
1
0.999999
0.999999
0.999999
0.999999
1
1
1
1
1
1
1
1.00001
1.00003
1.00006
1.00006
)
;

boundaryField
{
    leftWall
    {
        type            calculated;
        value           nonuniform List<scalar> 
26
(
13529
13521.6
11755.9
1549.78
1000.06
1000.07
1000.09
1000.05
1000.02
1000
999.907
987.569
866.052
692.947
477.493
71.8177
2.14051
1.00241
1.0002
1.00015
1.00009
1.00007
1.00006
1.00005
1.00002
1
)
;
    }
    rightWall
    {
        type            calculated;
        value           nonuniform 0();
    }
    lowerWall
    {
        type            calculated;
        value           nonuniform List<scalar> 
22
(
13529
13529
13529
13529
13529
13529
13529
13529
13529
13529
13529
13529
13529
13529
13529
13529
13529
13529
13529
13529
13529
13528.9
)
;
    }
    atmosphere
    {
        type            calculated;
        value           nonuniform 0();
    }
    defaultFaces
    {
        type            empty;
    }
    procBoundary0to1
    {
        type            processor;
        value           nonuniform List<scalar> 
26
(
13528.9
13528.8
13528.8
13528.8
13528.8
13487.6
11854.4
5207.56
1588.73
961.738
852.84
615.289
499.541
302.584
49.3404
4.07748
4.07748
1.00058
1.00046
1.00049
1.00076
1.00111
1.00132
1.00125
1.00078
1.00023
)
;
    }
    procBoundary0to2
    {
        type            processor;
        value           nonuniform List<scalar> 
24
(
1.00003
1.00001
1.00001
1.00003
1.00005
1.00008
1.00008
0.999999
0.999999
0.999999
0.999999
1
1
1
1
1
1
1
1
1
1.00002
1.00004
1.00003
1.00006
)
;
    }
}


// ************************************************************************* //
