/*--------------------------------*- C++ -*----------------------------------*\
| =========                 |                                                 |
| \\      /  F ield         | OpenFOAM: The Open Source CFD Toolbox           |
|  \\    /   O peration     | Version:  2.4.0                                 |
|   \\  /    A nd           | Web:      www.OpenFOAM.org                      |
|    \\/     M anipulation  |                                                 |
\*---------------------------------------------------------------------------*/
FoamFile
{
    version     2.0;
    format      ascii;
    class       volVectorField;
    location    "0.8";
    object      U;
}
// * * * * * * * * * * * * * * * * * * * * * * * * * * * * * * * * * * * * * //

dimensions      [0 1 -1 0 0 0 0];

internalField   nonuniform List<vector> 
575
(
(0.00806628 -0.0531685 0)
(0.0211189 -0.0542233 0)
(0.0387189 -0.0552389 0)
(0.0349169 -0.0582119 0)
(0.0320536 -0.0564149 0)
(0.0184789 -0.0374737 0)
(-0.0211389 -0.0070431 0)
(-0.0821599 0.0233435 0)
(-0.153576 0.0336776 0)
(-0.19486 0.030898 0)
(-0.214173 0.0249184 0)
(-0.229374 0.0101518 0)
(-0.229545 -0.000922987 0)
(-0.211911 -0.00775199 0)
(-0.180938 -0.0119866 0)
(-0.152755 -0.00994983 0)
(-0.132992 -0.00660091 0)
(-0.119822 -0.00566055 0)
(-0.105559 -0.00373643 0)
(-0.0850027 -0.00844328 0)
(-0.0566491 -0.00199761 0)
(-0.0492899 0.00107676 0)
(0.00994303 0.0438521 0)
(0.0182936 0.0433437 0)
(0.0349211 0.0523586 0)
(0.0392248 0.0617667 0)
(0.0453365 0.0669795 0)
(0.0387077 0.0676425 0)
(0.00159192 0.0534428 0)
(-0.0666718 0.0399409 0)
(-0.147699 0.0212431 0)
(-0.20251 -0.000507782 0)
(-0.229385 -0.00623106 0)
(-0.23661 -0.0031751 0)
(-0.230714 -0.00704998 0)
(-0.20995 -0.0159117 0)
(-0.179356 -0.0166041 0)
(-0.151691 -0.0130896 0)
(-0.13014 -0.00902534 0)
(-0.115824 -0.00744019 0)
(-0.101006 -0.0112776 0)
(-0.0758992 -0.0157259 0)
(-0.0548187 -0.0150292 0)
(-0.034389 -0.00909511 0)
(0.0130664 -0.0834181 0)
(0.0194182 -0.084526 0)
(0.0316134 -0.0741627 0)
(0.0504565 -0.0689483 0)
(0.0363867 -0.0613322 0)
(0.0020748 -0.0244512 0)
(-0.0385045 0.0532544 0)
(-0.0917203 0.108938 0)
(-0.157966 0.0888889 0)
(-0.207613 0.0574096 0)
(-0.230679 0.0330922 0)
(-0.2356 0.00957324 0)
(-0.226241 -0.015568 0)
(-0.208468 -0.0320871 0)
(-0.180011 -0.0379173 0)
(-0.155672 -0.0313102 0)
(-0.131761 -0.0225208 0)
(-0.112253 -0.0179917 0)
(-0.0952883 -0.0208701 0)
(-0.0696907 -0.0295542 0)
(-0.0560659 -0.0220225 0)
(-0.0240692 -0.0152235 0)
(0.0114477 0.12041 0)
(0.0101922 0.125905 0)
(0.00496878 0.125499 0)
(0.0113426 0.146088 0)
(-0.00789652 0.158589 0)
(-0.0113027 0.124277 0)
(-0.050714 0.0858924 0)
(-0.116752 0.0896662 0)
(-0.1914 0.0836956 0)
(-0.231524 0.0450846 0)
(-0.240087 0.015219 0)
(-0.234071 -0.00448715 0)
(-0.225389 -0.0208401 0)
(-0.208294 -0.0399043 0)
(-0.179783 -0.0420171 0)
(-0.150612 -0.03678 0)
(-0.121615 -0.0308046 0)
(-0.0980383 -0.0254953 0)
(-0.0834631 -0.0303715 0)
(-0.0765084 -0.0337984 0)
(-0.0755923 -0.0377462 0)
(-0.0357768 -0.0302144 0)
(-0.0063474 -0.152223 0)
(-0.00344367 -0.146266 0)
(-0.0061295 -0.147876 0)
(-0.0115056 -0.145338 0)
(9.65298e-05 -0.0974103 0)
(-0.00498027 0.0318895 0)
(-0.0632907 0.213583 0)
(-0.222308 0.185569 0)
(-0.246622 0.119251 0)
(-0.289941 0.0669334 0)
(-0.293713 0.0320014 0)
(-0.275073 0.00525405 0)
(-0.247836 -0.0254269 0)
(-0.221814 -0.0516168 0)
(-0.189588 -0.0622233 0)
(-0.150325 -0.0568185 0)
(-0.112553 -0.0466043 0)
(-0.0843566 -0.037012 0)
(-0.0764999 -0.0359007 0)
(-0.0781592 -0.0385296 0)
(-0.08254 -0.0455256 0)
(-0.0617579 -0.0492462 0)
(0.00154349 0.0713707 0)
(-0.00826422 0.0860979 0)
(-0.0414611 0.0982441 0)
(-0.0922164 0.124238 0)
(-0.17366 0.114898 0)
(-0.217279 0.0746354 0)
(-0.194436 0.107265 0)
(-0.367029 0.233351 0)
(-0.364618 0.137342 0)
(-0.357913 0.0619392 0)
(-0.346158 0.000402629 0)
(-0.325541 -0.0300294 0)
(-0.298927 -0.0500391 0)
(-0.270823 -0.0673748 0)
(-0.229073 -0.072202 0)
(-0.174793 -0.067055 0)
(-0.125828 -0.0558603 0)
(-0.0895669 -0.0325143 0)
(-0.0777586 -0.0216275 0)
(-0.0771571 -0.0205844 0)
(-0.0800568 -0.0330732 0)
(-0.0742274 -0.0484946 0)
(-0.00641115 -0.086279 0)
(-0.00938752 -0.0773384 0)
(-0.0113682 -0.068186 0)
(-0.0249028 -0.0406146 0)
(-0.0611529 0.0154196 0)
(-0.123944 0.0883221 0)
(-0.203388 0.20007 0)
(-0.359026 0.247334 0)
(-0.515809 0.150893 0)
(-0.486122 0.0710048 0)
(-0.440469 0.0324344 0)
(-0.383459 -0.00671389 0)
(-0.336775 -0.0491587 0)
(-0.292616 -0.091603 0)
(-0.241581 -0.123453 0)
(-0.192325 -0.124674 0)
(-0.157967 -0.105863 0)
(-0.125706 -0.0753296 0)
(-0.0896014 -0.0548772 0)
(-0.0709166 -0.0503287 0)
(-0.0621539 -0.0644713 0)
(-0.081292 -0.0876807 0)
(0.00789743 0.0222139 0)
(0.00283161 0.0485641 0)
(-0.0275091 0.0712294 0)
(-0.0659817 0.0912605 0)
(-0.0989852 0.100102 0)
(-0.132027 0.117017 0)
(-0.172351 0.224457 0)
(-0.236461 0.321991 0)
(-0.489131 0.185674 0)
(-0.515981 0.0152115 0)
(-0.502566 -0.0618019 0)
(-0.454618 -0.0942241 0)
(-0.382006 -0.110081 0)
(-0.287839 -0.123619 0)
(-0.189286 -0.116451 0)
(-0.167591 -0.101188 0)
(-0.178381 -0.0872653 0)
(-0.169707 -0.0695556 0)
(-0.120731 -0.0587818 0)
(-0.0655626 -0.0482813 0)
(-0.0500711 -0.0416805 0)
(-0.102419 -0.0551564 0)
(0.00251999 -0.0736036 0)
(0.0159245 -0.0660665 0)
(0.0411155 -0.0300078 0)
(0.0497823 0.0300761 0)
(0.0196439 0.106459 0)
(-0.0295573 0.172875 0)
(-0.0584328 0.268408 0)
(-0.00807106 0.392663 0)
(-0.0123114 0.374395 0)
(-0.145275 0.253628 0)
(-0.251836 0.130945 0)
(-0.273666 0.0120498 0)
(-0.233016 -0.0759123 0)
(-0.174495 -0.104699 0)
(-0.146436 -0.0784156 0)
(-0.14199 -0.042563 0)
(-0.147718 -0.0128732 0)
(-0.142263 -0.00571132 0)
(-0.132015 0.00463175 0)
(-0.132141 0.0508809 0)
(-0.140425 0.113212 0)
(-0.15845 0.106615 0)
(0.0210067 -0.0120715 0)
(0.0489032 0.00956842 0)
(0.052975 0.0379589 0)
(0.0219571 0.0780789 0)
(0.00835403 0.131272 0)
(-0.000677106 0.159355 0)
(0.0070253 0.212006 0)
(0.0516903 0.274771 0)
(0.131772 0.26171 0)
(0.16569 0.155207 0)
(0.169215 0.0081575 0)
(0.178164 -0.124701 0)
(0.16027 -0.19975 0)
(0.127721 -0.217286 0)
(0.114074 -0.197081 0)
(0.109346 -0.159988 0)
(0.122439 -0.143467 0)
(0.118073 -0.154497 0)
(0.106163 -0.164103 0)
(0.074603 -0.166187 0)
(0.0448614 -0.14778 0)
(0.0506814 -0.132291 0)
(0.0264184 -0.0920571 0)
(0.070366 -0.0561351 0)
(0.114999 0.038707 0)
(0.107255 0.122597 0)
(0.0697641 0.170875 0)
(0.0181544 0.185916 0)
(0.00240559 0.212794 0)
(0.0259447 0.234336 0)
(0.0902673 0.217572 0)
(0.156428 0.151286 0)
(0.196478 0.0598998 0)
(0.215912 -0.0388453 0)
(0.200253 -0.112329 0)
(0.195008 -0.145902 0)
(0.21399 -0.138716 0)
(0.221251 -0.10807 0)
(0.214707 -0.0584106 0)
(0.162125 -0.0100407 0)
(0.114186 0.0556247 0)
(0.0777646 0.105732 0)
(0.0116258 0.140212 0)
(-0.112583 0.0951659 0)
(0.046029 -0.171786 0)
(0.119376 -0.13175 0)
(0.119705 -0.0303267 0)
(0.0161961 0.0805988 0)
(0.013478 0.174614 0)
(-0.0299453 0.201454 0)
(-0.0387703 0.190156 0)
(-0.0232977 0.156595 0)
(0.0270128 0.107413 0)
(0.0746073 0.0412798 0)
(0.112409 -0.03772 0)
(0.133305 -0.0859322 0)
(0.146987 -0.149139 0)
(0.15066 -0.214684 0)
(0.154946 -0.240737 0)
(0.120109 -0.1922 0)
(0.0259837 -0.108255 0)
(-0.145129 -0.0515751 0)
(-0.204591 -0.0902852 0)
(-0.346396 -0.0406606 0)
(-0.512446 0.0967407 0)
(-0.915462 0.437491 0)
(0.00696683 -0.225923 0)
(-0.0625278 -0.0766325 0)
(-0.178638 0.200351 0)
(-0.235783 0.270912 0)
(-0.214111 0.290723 0)
(-0.202997 0.289767 0)
(-0.156975 0.251818 0)
(-0.122835 0.211029 0)
(-0.0702855 0.161552 0)
(0.00240815 0.100533 0)
(0.0756503 0.00496947 0)
(0.107955 -0.094002 0)
(0.044698 -0.214227 0)
(-0.0462368 -0.229331 0)
(-0.109204 0.0312806 0)
(-0.846378 0.664416 0)
(-1.24569 0.418106 0)
(-1.07134 0.185837 0)
(-1.02995 0.203827 0)
(-1.15532 0.368963 0)
(-1.35857 0.60023 0)
(-1.4178 0.673174 0)
(-0.0515466 -0.0990521 0)
(-0.276447 0.0448619 0)
(-0.365982 0.0948527 0)
(-0.396872 0.0822746 0)
(-0.393815 0.0740469 0)
(-0.342241 0.0797634 0)
(-0.288161 0.0628145 0)
(-0.260136 0.0224076 0)
(-0.225383 -0.0695337 0)
(-0.221646 -0.176068 0)
(-0.261065 -0.214917 0)
(-0.239938 0.21314 0)
(-0.513281 0.738751 0)
(-1.2104 0.394086 0)
(-1.35588 0.512885 0)
(-1.3766 0.740667 0)
(-1.40015 0.0317962 0)
(-1.1984 -0.0737659 0)
(-1.1621 0.0762864 0)
(-1.22771 0.380622 0)
(-1.31796 0.560198 0)
(-1.36113 0.575371 0)
(-0.176118 0.0337749 0)
(-0.361983 0.146973 0)
(-0.444512 0.238773 0)
(-0.479014 0.257152 0)
(-0.453155 0.241974 0)
(-0.38716 0.208718 0)
(-0.344611 0.189148 0)
(-0.303628 0.280023 0)
(-0.29886 0.600445 0)
(-0.752276 0.796122 0)
(-1.24468 0.42259 0)
(-1.10813 0.0757796 0)
(-0.785444 0.220201 0)
(-0.789583 0.211103 0)
(-0.752481 0.17256 0)
(-0.774863 0.486968 0)
(-1.02573 0.176879 0)
(-1.20084 -0.0200551 0)
(-1.0972 0.125785 0)
(-1.14981 0.467515 0)
(-1.17594 0.611428 0)
(-1.21787 0.642666 0)
(-0.24254 0.573559 0)
(-0.309385 0.976154 0)
(-0.636897 0.732589 0)
(-0.527922 0.41226 0)
(-0.47894 0.213002 0)
(-0.359049 0.182138 0)
(-0.334771 0.106427 0)
(-0.433842 0.0313222 0)
(-0.452841 0.154874 0)
(-0.433554 0.245542 0)
(-0.44152 -0.0720389 0)
(-0.339737 -0.276307 0)
(-0.454061 0.0961406 0)
(-0.367208 0.331589 0)
(-0.348257 0.433141 0)
(-0.357801 0.61301 0)
(-0.36261 0.537544 0)
(-0.878809 0.0994017 0)
(-1.19772 0.214797 0)
(-1.063 0.385294 0)
(-1.10391 0.641615 0)
(-1.14494 0.842728 0)
(-0.2154 0.79486 0)
(-0.334545 0.516012 0)
(-0.296211 0.0635159 0)
(-0.250392 -0.0966238 0)
(-0.0848588 -0.0940321 0)
(-0.0687672 -0.127612 0)
(0.122089 0.134683 0)
(-0.0861317 0.293201 0)
(-0.271605 0.357114 0)
(-0.266127 0.426824 0)
(-0.343028 0.270173 0)
(-0.492459 0.140326 0)
(-0.491231 0.163111 0)
(-0.416092 0.267993 0)
(-0.319005 0.339371 0)
(-0.27598 0.480382 0)
(-0.17328 0.612345 0)
(-0.213056 0.644406 0)
(-0.841057 0.464536 0)
(-1.08051 0.510722 0)
(-1.05414 0.649295 0)
(-1.12431 1.15515 0)
(-1.19255 1.86872 0)
(-0.0263897 0.777955 0)
(-0.0409238 0.642167 0)
(0.0602681 0.350296 0)
(-0.0786643 0.129813 0)
(-0.0542769 -0.0952838 0)
(-0.109363 -0.0981142 0)
(-0.170114 0.0195346 0)
(-0.0597257 0.355057 0)
(-0.140719 0.384679 0)
(-0.13847 0.395829 0)
(-0.192426 0.253365 0)
(-0.136739 -0.0512593 0)
(-0.1965 -0.0506854 0)
(-0.213079 0.126898 0)
(-0.141073 0.246315 0)
(-0.102264 0.371582 0)
(-0.05282 0.517326 0)
(0.00241383 0.714727 0)
(-0.0150411 0.874154 0)
(-0.353521 0.78682 0)
(-0.741309 0.955058 0)
(-1.03994 1.56707 0)
(-1.11893 1.82091 0)
(0.0525143 0.7473 0)
(0.125725 0.608254 0)
(0.135452 0.302901 0)
(0.119816 0.0841305 0)
(0.0812608 0.0375852 0)
(0.0139948 0.0782456 0)
(-0.0954255 0.173466 0)
(-0.0133008 0.340148 0)
(-0.0679457 0.428041 0)
(-0.0236878 0.407707 0)
(-0.0276986 0.272551 0)
(0.0270373 0.164751 0)
(-0.141723 0.203932 0)
(-0.162983 0.21023 0)
(-0.139914 0.268176 0)
(-0.108734 0.367358 0)
(-0.0514814 0.500337 0)
(0.0114804 0.671858 0)
(0.0915781 0.863828 0)
(0.06909 0.989167 0)
(-0.222378 1.20591 0)
(-0.785683 1.64943 0)
(-0.879755 1.74116 0)
(0.0216392 0.663733 0)
(0.124129 0.564447 0)
(0.110955 0.311723 0)
(0.0980383 0.116639 0)
(0.00515792 -0.0365801 0)
(0.00334713 0.00890199 0)
(-0.029884 0.00228071 0)
(0.0139223 0.302543 0)
(-0.000163897 0.426721 0)
(0.0238661 0.38649 0)
(0.024456 0.226635 0)
(0.0074674 0.0862108 0)
(-0.0445023 0.133561 0)
(-0.0577472 0.143524 0)
(-0.085657 0.212702 0)
(-0.0890977 0.313068 0)
(-0.0610858 0.443357 0)
(-0.033223 0.603351 0)
(0.0391607 0.835966 0)
(0.0604289 1.07436 0)
(0.0369148 1.52798 0)
(-0.262641 1.90603 0)
(-0.485429 1.78446 0)
(-0.0237034 0.582141 0)
(0.104823 0.484412 0)
(0.113556 0.314942 0)
(0.145204 0.177801 0)
(0.0808417 0.147286 0)
(0.0296211 0.146712 0)
(-0.0622595 0.170804 0)
(-0.0482715 0.28259 0)
(0.0138171 0.399287 0)
(0.0686451 0.355093 0)
(0.0760061 0.259003 0)
(0.0425132 0.20729 0)
(-0.0256714 0.234969 0)
(-0.0585004 0.246975 0)
(-0.0996197 0.275203 0)
(-0.105279 0.326255 0)
(-0.0924981 0.421731 0)
(-0.0692705 0.567272 0)
(-0.0345129 0.76546 0)
(0.027393 1.05254 0)
(0.131287 1.54321 0)
(0.199888 2.03893 0)
(0.237146 1.95926 0)
(-0.00739607 0.559311 0)
(0.100447 0.433362 0)
(0.109272 0.295326 0)
(0.117683 0.177106 0)
(0.0597581 0.120897 0)
(0.0303362 0.146683 0)
(-0.0177598 0.130762 0)
(-0.0397777 0.241646 0)
(0.00731147 0.322796 0)
(0.0688217 0.323177 0)
(0.0691319 0.272867 0)
(0.0123225 0.228399 0)
(-0.0327808 0.25198 0)
(-0.054648 0.254164 0)
(-0.0812763 0.279274 0)
(-0.0962227 0.325898 0)
(-0.104044 0.419282 0)
(-0.0850976 0.553133 0)
(-0.0638596 0.717314 0)
(-0.0296749 0.947481 0)
(0.101508 1.44654 0)
(0.300015 1.91291 0)
(0.555105 1.82996 0)
(0.0361977 0.488719 0)
(0.0974865 0.384049 0)
(0.112451 0.280316 0)
(0.108669 0.211761 0)
(0.0628987 0.188113 0)
(0.0335211 0.198409 0)
(-0.00596262 0.197267 0)
(-0.0341698 0.238794 0)
(-0.00818299 0.277532 0)
(0.0243812 0.301899 0)
(0.0226054 0.296801 0)
(-0.0110597 0.281377 0)
(-0.0420496 0.278781 0)
(-0.0612902 0.274563 0)
(-0.0833566 0.296087 0)
(-0.0926979 0.339092 0)
(-0.097829 0.411025 0)
(-0.0860331 0.532065 0)
(-0.0510532 0.694738 0)
(-0.0191031 0.88826 0)
(0.102508 1.22034 0)
(0.348902 1.57746 0)
(0.685862 1.47343 0)
(0.0459071 0.411686 0)
(0.0788932 0.34911 0)
(0.103287 0.278396 0)
(0.0852977 0.237666 0)
(0.0561888 0.22357 0)
(0.0333791 0.229063 0)
(0.00769878 0.2287 0)
(-0.0129948 0.247643 0)
(-0.00813527 0.266499 0)
(0.00282806 0.292693 0)
(0.00881714 0.309205 0)
(-0.00410686 0.311 0)
(-0.0195133 0.311613 0)
(-0.0378496 0.30965 0)
(-0.0590729 0.320418 0)
(-0.0696753 0.350094 0)
(-0.0711851 0.406549 0)
(-0.0540738 0.497789 0)
(-0.00370253 0.629003 0)
(0.0716351 0.787826 0)
(0.219525 1.0114 0)
(0.447007 1.20815 0)
(0.787557 1.09642 0)
(0.030817 0.362775 0)
(0.0551014 0.325101 0)
(0.0723058 0.279243 0)
(0.0608947 0.25461 0)
(0.0454005 0.241385 0)
(0.0317569 0.241698 0)
(0.0171616 0.241806 0)
(0.00713984 0.255186 0)
(0.00208848 0.265551 0)
(0.00426928 0.288393 0)
(0.0108974 0.30749 0)
(0.0128005 0.315041 0)
(0.0106969 0.316445 0)
(0.00387993 0.318079 0)
(-0.00731904 0.328487 0)
(-0.0143649 0.351114 0)
(-0.0150022 0.394326 0)
(0.000687676 0.461488 0)
(0.0459666 0.554563 0)
(0.128057 0.661944 0)
(0.277789 0.811175 0)
(0.478031 0.905278 0)
(0.774792 0.799804 0)
(0.0176717 0.330807 0)
(0.0364009 0.306512 0)
(0.0485076 0.278522 0)
(0.0451732 0.263015 0)
(0.0385283 0.252736 0)
(0.0320679 0.25052 0)
(0.0246655 0.250701 0)
(0.0202252 0.259566 0)
(0.0184054 0.267753 0)
(0.0177092 0.284412 0)
(0.0248434 0.300194 0)
(0.033022 0.308304 0)
(0.0386331 0.313273 0)
(0.040651 0.320497 0)
(0.0400305 0.33151 0)
(0.0409539 0.350664 0)
)
;

boundaryField
{
    leftWall
    {
        type            calculated;
        value           uniform (0 0 0);
    }
    rightWall
    {
        type            calculated;
        value           nonuniform 0();
    }
    lowerWall
    {
        type            calculated;
        value           uniform (0 0 0);
    }
    atmosphere
    {
        type            calculated;
        value           nonuniform 0();
    }
    defaultFaces
    {
        type            empty;
    }
    procBoundary0to1
    {
        type            processor;
        value           nonuniform List<vector> 
26
(
(-0.0363106 -0.0114056 0)
(-0.0155325 -0.0313447 0)
(-0.00660148 -0.03531 0)
(-0.0115571 -0.0453834 0)
(-0.0169903 -0.0592815 0)
(-0.0306742 -0.0807281 0)
(-0.0502618 -0.123119 0)
(-0.123908 -0.134068 0)
(-0.252323 -0.181364 0)
(0.0472999 -0.139531 0)
(-0.471498 -0.0271644 0)
(-1.27011 0.613213 0)
(-1.46346 0.492912 0)
(-1.38685 0.300737 0)
(-1.3581 0.982442 0)
(-1.18583 1.6218 0)
(-1.18583 1.6218 0)
(-1.42181 1.60854 0)
(-1.14552 1.09362 0)
(-0.8126 0.926732 0)
(-0.424045 0.791812 0)
(0.221283 1.40563 0)
(0.683608 1.48843 0)
(0.880695 1.16901 0)
(0.968916 0.842352 0)
(0.913775 0.626967 0)
)
;
    }
    procBoundary0to2
    {
        type            processor;
        value           nonuniform List<vector> 
24
(
(0.0458851 0.384907 0)
(0.0634564 0.435304 0)
(0.102238 0.501115 0)
(0.171368 0.567454 0)
(0.289147 0.648988 0)
(0.452277 0.678801 0)
(0.661071 0.605059 0)
(0.0102959 0.310423 0)
(0.0247676 0.292208 0)
(0.0354311 0.274568 0)
(0.0364646 0.264195 0)
(0.0349348 0.257078 0)
(0.0319957 0.254651 0)
(0.0281787 0.255287 0)
(0.0263816 0.261343 0)
(0.0262527 0.26847 0)
(0.0286744 0.280521 0)
(0.0363887 0.291315 0)
(0.0454173 0.29962 0)
(0.053849 0.30704 0)
(0.0608367 0.31656 0)
(0.0667793 0.328092 0)
(0.0458851 0.384907 0)
(0.07409 0.346649 0)
)
;
    }
}


// ************************************************************************* //
