/*--------------------------------*- C++ -*----------------------------------*\
| =========                 |                                                 |
| \\      /  F ield         | OpenFOAM: The Open Source CFD Toolbox           |
|  \\    /   O peration     | Version:  2.4.0                                 |
|   \\  /    A nd           | Web:      www.OpenFOAM.org                      |
|    \\/     M anipulation  |                                                 |
\*---------------------------------------------------------------------------*/
FoamFile
{
    version     2.0;
    format      ascii;
    class       volVectorField;
    location    "0.8";
    object      U.oil;
}
// * * * * * * * * * * * * * * * * * * * * * * * * * * * * * * * * * * * * * //

dimensions      [0 1 -1 0 0 0 0];

internalField   nonuniform List<vector> 
575
(
(0.00806628 -0.0531685 0)
(0.0211188 -0.0542233 0)
(0.0387189 -0.0552389 0)
(0.0349169 -0.0582119 0)
(0.0320535 -0.0564149 0)
(0.0184788 -0.0374737 0)
(-0.021139 -0.00704308 0)
(-0.08216 0.0233435 0)
(-0.153576 0.0336776 0)
(-0.19486 0.030898 0)
(-0.214173 0.0249184 0)
(-0.229374 0.0101518 0)
(-0.229545 -0.000922782 0)
(-0.211911 -0.0077515 0)
(-0.180938 -0.0119855 0)
(-0.152755 -0.00994626 0)
(-0.132992 -0.00659153 0)
(-0.119822 -0.00564415 0)
(-0.10556 -0.00369467 0)
(-0.085015 -0.00826026 0)
(-0.0566928 0.000186623 0)
(-0.0494367 0.00790729 0)
(0.0099424 0.0439416 0)
(0.018292 0.0434294 0)
(0.0349205 0.0523783 0)
(0.0392246 0.061769 0)
(0.0453364 0.0669798 0)
(0.0387076 0.0676425 0)
(0.00159179 0.0534428 0)
(-0.0666719 0.0399409 0)
(-0.147699 0.0212431 0)
(-0.20251 -0.000507763 0)
(-0.229385 -0.00623101 0)
(-0.23661 -0.003175 0)
(-0.230714 -0.00704979 0)
(-0.209951 -0.0159113 0)
(-0.179356 -0.0166032 0)
(-0.151691 -0.0130847 0)
(-0.13014 -0.00901185 0)
(-0.115824 -0.00741372 0)
(-0.101007 -0.0112204 0)
(-0.0759084 -0.0155621 0)
(-0.0548585 -0.013467 0)
(-0.0345511 -0.00279294 0)
(0.0130916 -0.0914342 0)
(0.0194966 -0.0915846 0)
(0.0317295 -0.0790681 0)
(0.0505269 -0.0702561 0)
(0.0362301 -0.0601878 0)
(0.00189607 -0.0237213 0)
(-0.0385062 0.0532609 0)
(-0.0917204 0.108938 0)
(-0.157966 0.0888889 0)
(-0.207613 0.0574096 0)
(-0.230679 0.0330922 0)
(-0.2356 0.00957334 0)
(-0.226241 -0.0155678 0)
(-0.208468 -0.0320867 0)
(-0.180011 -0.0379125 0)
(-0.155672 -0.0312881 0)
(-0.131761 -0.0224828 0)
(-0.112253 -0.0179248 0)
(-0.0952897 -0.0207146 0)
(-0.0696953 -0.0291633 0)
(-0.0560879 -0.0207232 0)
(-0.0241992 -0.010274 0)
(0.0122404 -0.00210769 0)
(0.0127767 -2.74449e-05 0)
(0.0121239 -0.00567276 0)
(0.0245521 0.00381761 0)
(0.0107247 0.0145285 0)
(0.00147956 0.0258799 0)
(-0.0390723 0.0496543 0)
(-0.116863 0.0899151 0)
(-0.191523 0.0839778 0)
(-0.231524 0.0450852 0)
(-0.240087 0.015219 0)
(-0.234071 -0.00448711 0)
(-0.225389 -0.0208381 0)
(-0.208294 -0.0398406 0)
(-0.179782 -0.0416139 0)
(-0.15061 -0.0360501 0)
(-0.121614 -0.0300156 0)
(-0.0980391 -0.0248723 0)
(-0.0834708 -0.0295941 0)
(-0.0765316 -0.0324214 0)
(-0.0756536 -0.035098 0)
(-0.0359523 -0.0244412 0)
(-0.00634732 -0.152224 0)
(-0.00344385 -0.146268 0)
(-0.00612994 -0.147877 0)
(-0.0115063 -0.145339 0)
(0.000474941 -0.0992546 0)
(-0.00124014 0.00284549 0)
(-0.0424771 0.0927542 0)
(-0.19497 0.129696 0)
(-0.246796 0.119606 0)
(-0.290041 0.0673016 0)
(-0.293714 0.0320045 0)
(-0.275073 0.00528281 0)
(-0.247835 -0.0250724 0)
(-0.221795 -0.0501794 0)
(-0.189539 -0.0592765 0)
(-0.150264 -0.0532776 0)
(-0.112507 -0.0432273 0)
(-0.0843381 -0.0346141 0)
(-0.0765218 -0.0337925 0)
(-0.0782304 -0.0358746 0)
(-0.0826959 -0.0412789 0)
(-0.0621017 -0.0421743 0)
(0.00154343 0.0713684 0)
(-0.00826439 0.0860957 0)
(-0.0414615 0.0982419 0)
(-0.0922169 0.124235 0)
(-0.173661 0.114895 0)
(-0.21728 0.0746195 0)
(-0.203607 0.092893 0)
(-0.346161 0.14585 0)
(-0.358033 0.121217 0)
(-0.35818 0.0629163 0)
(-0.346191 0.00075148 0)
(-0.325555 -0.0289947 0)
(-0.298878 -0.0469339 0)
(-0.270596 -0.0618745 0)
(-0.228753 -0.0645777 0)
(-0.174567 -0.0593353 0)
(-0.125767 -0.0490802 0)
(-0.0896237 -0.0277621 0)
(-0.0778509 -0.0176621 0)
(-0.0772756 -0.0167984 0)
(-0.0801711 -0.0286536 0)
(-0.0743183 -0.0397099 0)
(-0.00641119 -0.0862818 0)
(-0.00938778 -0.0773411 0)
(-0.0113688 -0.0681886 0)
(-0.0249036 -0.040616 0)
(-0.0611537 0.015433 0)
(-0.123952 0.0883311 0)
(-0.221236 0.183469 0)
(-0.400948 0.154732 0)
(-0.502291 0.105275 0)
(-0.485944 0.0703337 0)
(-0.44055 0.0341326 0)
(-0.383415 -0.00167731 0)
(-0.336285 -0.0405842 0)
(-0.291819 -0.0844328 0)
(-0.241264 -0.12017 0)
(-0.192358 -0.121558 0)
(-0.157988 -0.0981387 0)
(-0.125677 -0.0570416 0)
(-0.0896084 -0.0303152 0)
(-0.0709133 -0.0250223 0)
(-0.0621608 -0.0463376 0)
(-0.0820288 -0.0610763 0)
(0.00789734 0.0222107 0)
(0.00283134 0.0485113 0)
(-0.0275097 0.0711236 0)
(-0.0659854 0.0912181 0)
(-0.0989913 0.100112 0)
(-0.13203 0.117342 0)
(-0.178478 0.218301 0)
(-0.301034 0.215342 0)
(-0.491064 0.0851712 0)
(-0.513953 -0.00639618 0)
(-0.502601 -0.0627749 0)
(-0.454809 -0.0922414 0)
(-0.382439 -0.116256 0)
(-0.291772 -0.156979 0)
(-0.195995 -0.180225 0)
(-0.172805 -0.176298 0)
(-0.180423 -0.154449 0)
(-0.16929 -0.0932613 0)
(-0.123966 -0.0406789 0)
(-0.0708202 -0.0273664 0)
(-0.0521404 -0.06811 0)
(-0.111915 -0.0235637 0)
(0.0025214 -0.0735453 0)
(0.0159486 -0.0613793 0)
(0.0411471 -0.0243794 0)
(0.0498371 0.0339961 0)
(0.0197909 0.108974 0)
(-0.0292123 0.176146 0)
(-0.058423 0.270745 0)
(-0.0483968 0.341682 0)
(-0.113319 0.238894 0)
(-0.201063 0.130036 0)
(-0.255853 0.0379389 0)
(-0.270562 -0.0709513 0)
(-0.235333 -0.173245 0)
(-0.165952 -0.247337 0)
(-0.135938 -0.189209 0)
(-0.133915 -0.0466999 0)
(-0.143093 0.0308427 0)
(-0.15126 0.0559093 0)
(-0.153495 0.0749907 0)
(-0.157326 0.125414 0)
(-0.166035 0.186331 0)
(-0.185733 0.177363 0)
(0.0210578 -0.0135315 0)
(0.0488726 0.0196949 0)
(0.048025 0.0950365 0)
(0.0166006 0.108785 0)
(0.0060894 0.148364 0)
(0.000557137 0.193363 0)
(0.0125464 0.23639 0)
(0.0586815 0.285374 0)
(0.120398 0.245815 0)
(0.137536 0.119059 0)
(0.143752 -0.0266258 0)
(0.164187 -0.142903 0)
(0.154336 -0.165786 0)
(0.120676 -0.158516 0)
(0.124705 -0.120048 0)
(0.122388 -0.0761063 0)
(0.127562 -0.0569836 0)
(0.114334 -0.0719884 0)
(0.0938451 -0.0932301 0)
(0.0543512 -0.0945844 0)
(0.019392 -0.0684503 0)
(0.0233157 -0.0552726 0)
(0.0289182 -0.0746999 0)
(0.0836475 0.00989961 0)
(0.122284 0.121376 0)
(0.114318 0.203995 0)
(0.0766118 0.253947 0)
(0.0245819 0.267415 0)
(0.0106212 0.290308 0)
(0.0391747 0.302666 0)
(0.107293 0.265151 0)
(0.172833 0.18402 0)
(0.210869 0.0883184 0)
(0.220677 0.000295273 0)
(0.189892 -0.0613075 0)
(0.189166 -0.0886223 0)
(0.2125 -0.0747485 0)
(0.2209 -0.0350908 0)
(0.205385 0.0210689 0)
(0.142707 0.0706 0)
(0.096672 0.13267 0)
(0.0669835 0.178533 0)
(-0.00909668 0.205441 0)
(-0.135448 0.151904 0)
(0.0453789 -0.113261 0)
(0.127306 -0.0620409 0)
(0.121281 0.033187 0)
(0.00888435 0.143614 0)
(0.00992396 0.243977 0)
(-0.0296795 0.270892 0)
(-0.0354432 0.256196 0)
(-0.0147015 0.218883 0)
(0.0413904 0.16221 0)
(0.0901453 0.0902613 0)
(0.12945 0.0124919 0)
(0.145985 -0.0391858 0)
(0.15414 -0.109531 0)
(0.15229 -0.193362 0)
(0.131301 -0.281759 0)
(0.109536 -0.320904 0)
(0.0669895 -0.29844 0)
(-0.0998395 -0.19912 0)
(-0.198729 -0.0878915 0)
(-0.351171 -0.00259316 0)
(-0.518837 0.127223 0)
(-0.95884 0.479089 0)
(0.0102672 -0.181738 0)
(-0.0542761 -0.0524083 0)
(-0.176922 0.217438 0)
(-0.245067 0.301264 0)
(-0.232594 0.34095 0)
(-0.216002 0.346335 0)
(-0.164199 0.309959 0)
(-0.126957 0.268758 0)
(-0.068352 0.214753 0)
(0.0140806 0.147427 0)
(0.0854522 0.0276425 0)
(0.112465 -0.0893576 0)
(0.0350478 -0.274404 0)
(-0.0405675 -0.464949 0)
(-0.045478 -0.567936 0)
(-0.371545 -0.581411 0)
(-1.07247 -0.0767227 0)
(-1.05638 0.113719 0)
(-1.03141 0.209862 0)
(-1.16489 0.37727 0)
(-1.37158 0.611099 0)
(-1.42781 0.668127 0)
(-0.0534578 -0.0636557 0)
(-0.275497 0.0518308 0)
(-0.372156 0.0829399 0)
(-0.401931 0.079759 0)
(-0.399302 0.0774537 0)
(-0.348741 0.085437 0)
(-0.293756 0.0708788 0)
(-0.265649 0.0262952 0)
(-0.231715 -0.0858309 0)
(-0.227197 -0.227526 0)
(-0.270717 -0.460131 0)
(-0.249749 -0.629097 0)
(-0.22512 -0.742411 0)
(-0.41653 -0.510304 0)
(-0.0614613 -0.536743 0)
(-1.29848 -0.095288 0)
(-1.20776 -0.105894 0)
(-1.16158 -0.0837038 0)
(-1.16252 0.0806857 0)
(-1.23439 0.388301 0)
(-1.32528 0.561853 0)
(-1.37562 0.550648 0)
(-0.208179 -0.0481482 0)
(-0.425269 -0.0653007 0)
(-0.489227 -0.113417 0)
(-0.495577 -0.152273 0)
(-0.459487 -0.19545 0)
(-0.391471 -0.22389 0)
(-0.359231 -0.254516 0)
(-0.331422 -0.314086 0)
(-0.322458 -0.368165 0)
(-0.367845 -0.43907 0)
(-0.391089 -0.5174 0)
(-0.320321 -0.548655 0)
(-0.69124 -0.0367156 0)
(-0.781083 0.192169 0)
(-1.10696 -0.0224123 0)
(-1.49869 -0.229321 0)
(-1.29629 -0.191162 0)
(-1.11766 -0.105898 0)
(-1.07775 0.103795 0)
(-1.14975 0.461992 0)
(-1.18612 0.603355 0)
(-1.26761 0.583016 0)
(-0.304829 -0.181958 0)
(-0.507571 -0.224308 0)
(-0.547002 -0.317706 0)
(-0.530373 -0.36187 0)
(-0.452862 -0.420783 0)
(-0.383982 -0.3997 0)
(-0.351515 -0.39699 0)
(-0.325406 -0.500171 0)
(-0.337921 -0.551424 0)
(-0.348021 -0.19747 0)
(-0.442487 -0.0536368 0)
(-0.339313 -0.278347 0)
(-0.453205 0.0920992 0)
(-0.366953 0.327569 0)
(-0.35274 0.42454 0)
(-1.09468 0.078469 0)
(-1.41562 -0.191273 0)
(-1.22973 -0.0306337 0)
(-1.09391 0.120759 0)
(-1.0522 0.354415 0)
(-1.11287 0.626667 0)
(-1.26115 0.73481 0)
(-0.323512 -0.328743 0)
(-0.481801 -0.228692 0)
(-0.434192 -0.208698 0)
(-0.315374 -0.175833 0)
(-0.106677 -0.117957 0)
(-0.0777872 -0.137348 0)
(0.103569 0.109266 0)
(-0.0900635 0.27612 0)
(-0.272102 0.345329 0)
(-0.266137 0.4246 0)
(-0.343003 0.269052 0)
(-0.49175 0.13916 0)
(-0.489865 0.158311 0)
(-0.416847 0.261979 0)
(-0.31933 0.335435 0)
(-0.277931 0.463022 0)
(-0.558982 0.373602 0)
(-1.34605 0.209592 0)
(-1.22305 0.237904 0)
(-1.079 0.322946 0)
(-1.06606 0.543349 0)
(-1.20804 0.784499 0)
(-1.79953 0.975696 0)
(-0.118991 0.379396 0)
(-0.0575093 0.600806 0)
(0.0573639 0.337524 0)
(-0.0779475 0.125852 0)
(-0.0540223 -0.0966402 0)
(-0.109246 -0.0984594 0)
(-0.169989 0.0188223 0)
(-0.059583 0.354429 0)
(-0.140587 0.383936 0)
(-0.138503 0.395369 0)
(-0.192397 0.253064 0)
(-0.136591 -0.0519128 0)
(-0.195479 -0.0553162 0)
(-0.213486 0.117681 0)
(-0.142971 0.234396 0)
(-0.104803 0.355846 0)
(-0.0596409 0.498878 0)
(-1.07472 0.526783 0)
(-1.29738 0.437175 0)
(-1.15908 0.389983 0)
(-1.07667 0.487273 0)
(-1.10415 0.681069 0)
(-1.53426 1.0175 0)
(0.0492567 0.731376 0)
(0.124148 0.603342 0)
(0.136581 0.302974 0)
(0.120839 0.0841147 0)
(0.0816981 0.0375511 0)
(0.0140013 0.0781996 0)
(-0.0955403 0.173307 0)
(-0.0133518 0.339714 0)
(-0.0679581 0.427616 0)
(-0.0237252 0.40731 0)
(-0.0276859 0.272171 0)
(0.0270567 0.164126 0)
(-0.141651 0.200665 0)
(-0.164727 0.200296 0)
(-0.143038 0.257546 0)
(-0.113309 0.356241 0)
(-0.0573739 0.489784 0)
(-0.078717 0.649529 0)
(-0.936586 0.605423 0)
(-1.12027 0.525804 0)
(-1.10201 0.52299 0)
(-1.06649 0.693239 0)
(-1.12609 1.41706 0)
(0.0213399 0.658897 0)
(0.12372 0.561685 0)
(0.111036 0.310234 0)
(0.0980129 0.115589 0)
(0.00517998 -0.0369781 0)
(0.00336535 0.0088072 0)
(-0.0298509 0.00191794 0)
(0.0139147 0.301777 0)
(-0.00019113 0.42608 0)
(0.0238507 0.386052 0)
(0.0244577 0.225995 0)
(0.00751173 0.0849969 0)
(-0.0446904 0.131164 0)
(-0.0594857 0.137944 0)
(-0.0885449 0.205292 0)
(-0.0910182 0.308664 0)
(-0.065388 0.436032 0)
(-0.0466329 0.589506 0)
(-0.0285388 0.800118 0)
(-0.0974825 1.00491 0)
(-0.279005 1.30357 0)
(-0.525933 1.58809 0)
(-0.625417 1.71089 0)
(-0.0237114 0.579675 0)
(0.104682 0.483041 0)
(0.113474 0.314082 0)
(0.145154 0.177322 0)
(0.0808681 0.147188 0)
(0.0296317 0.146688 0)
(-0.0622457 0.170625 0)
(-0.0482337 0.281892 0)
(0.0137748 0.398555 0)
(0.0686048 0.354342 0)
(0.0758711 0.257716 0)
(0.0424158 0.205843 0)
(-0.0258515 0.233595 0)
(-0.0588375 0.245317 0)
(-0.10022 0.273004 0)
(-0.105899 0.324885 0)
(-0.0949299 0.418537 0)
(-0.0789954 0.558703 0)
(-0.0638146 0.748801 0)
(-0.0414312 1.01546 0)
(0.00967985 1.48393 0)
(0.0345299 1.96558 0)
(0.0727691 1.96428 0)
(-0.00745619 0.558195 0)
(0.100414 0.4327 0)
(0.109273 0.294897 0)
(0.117703 0.176896 0)
(0.05977 0.120854 0)
(0.0303463 0.146664 0)
(-0.0177578 0.130668 0)
(-0.0398024 0.241277 0)
(0.00725983 0.322238 0)
(0.0686693 0.321925 0)
(0.0689706 0.271472 0)
(0.0121732 0.227295 0)
(-0.0328937 0.251243 0)
(-0.0548055 0.253439 0)
(-0.0814884 0.278493 0)
(-0.0965416 0.325204 0)
(-0.105027 0.417857 0)
(-0.0899577 0.549451 0)
(-0.0833145 0.710359 0)
(-0.0724573 0.944288 0)
(0.0103002 1.42894 0)
(0.160708 1.91497 0)
(0.407609 1.88798 0)
(0.0361417 0.488191 0)
(0.097468 0.38371 0)
(0.112447 0.280112 0)
(0.108673 0.211686 0)
(0.062906 0.188092 0)
(0.0335297 0.19839 0)
(-0.00595438 0.197214 0)
(-0.0341628 0.238654 0)
(-0.00820355 0.277189 0)
(0.0243007 0.301094 0)
(0.0224966 0.295787 0)
(-0.0111174 0.280808 0)
(-0.0421412 0.278228 0)
(-0.0614434 0.273827 0)
(-0.0835572 0.295265 0)
(-0.092952 0.338428 0)
(-0.0983842 0.41023 0)
(-0.0877105 0.530623 0)
(-0.0582722 0.692072 0)
(-0.0380082 0.890841 0)
(0.0495365 1.24067 0)
(0.251218 1.62218 0)
(0.580295 1.53608 0)
(0.0458958 0.411388 0)
(0.078888 0.348949 0)
(0.103291 0.278323 0)
(0.0853025 0.237641 0)
(0.0561949 0.223551 0)
(0.0333864 0.229042 0)
(0.00770701 0.228672 0)
(-0.0129862 0.247598 0)
(-0.00813235 0.266368 0)
(0.002824 0.29243 0)
(0.00879153 0.308809 0)
(-0.00412616 0.310753 0)
(-0.0196121 0.311095 0)
(-0.0381964 0.308474 0)
(-0.0597238 0.318701 0)
(-0.0702029 0.34896 0)
(-0.0715097 0.405879 0)
(-0.0547289 0.497062 0)
(-0.00557594 0.628094 0)
(0.0654469 0.790783 0)
(0.198013 1.02106 0)
(0.401671 1.23795 0)
(0.736839 1.13432 0)
(0.0308177 0.36265 0)
(0.0551037 0.325047 0)
(0.0723088 0.279218 0)
(0.0608986 0.254591 0)
(0.0454055 0.241365 0)
(0.0317629 0.241677 0)
(0.0171685 0.241783 0)
(0.00714744 0.25516 0)
(0.0020962 0.265507 0)
(0.00427695 0.288328 0)
(0.0109037 0.30739 0)
(0.0127936 0.314911 0)
(0.0106175 0.316016 0)
(0.00354534 0.316797 0)
(-0.00801799 0.326284 0)
(-0.0151557 0.349165 0)
(-0.01533 0.393517 0)
(0.000397906 0.460924 0)
(0.0453071 0.553908 0)
(0.126797 0.66119 0)
(0.273687 0.813921 0)
(0.468445 0.924293 0)
(0.7617 0.811107 0)
(0.0176723 0.330768 0)
(0.0364023 0.306488 0)
(0.0485099 0.278503 0)
(0.0451764 0.262995 0)
(0.0385323 0.252716 0)
(0.0320726 0.250499 0)
(0.0246709 0.250678 0)
(0.0202311 0.259541 0)
(0.0184116 0.267725 0)
(0.0177157 0.28438 0)
(0.0248498 0.300156 0)
(0.0330207 0.308223 0)
(0.0385873 0.31298 0)
(0.0403911 0.319407 0)
(0.0394326 0.329355 0)
(0.0403002 0.348536 0)
)
;

boundaryField
{
    leftWall
    {
        type            fixedValue;
        value           uniform (0 0 0);
    }
    rightWall
    {
        type            fixedValue;
        value           nonuniform 0();
    }
    lowerWall
    {
        type            fixedValue;
        value           uniform (0 0 0);
    }
    atmosphere
    {
        type            fluxCorrectedVelocity;
        value           nonuniform 0();
    }
    defaultFaces
    {
        type            empty;
    }
    procBoundary0to1
    {
        type            processor;
        value           nonuniform List<vector> 
26
(
(-0.0364267 -0.00146128 0)
(-0.0156677 -0.0200394 0)
(-0.00672167 -0.0235866 0)
(-0.0116944 -0.033525 0)
(-0.0172327 -0.048283 0)
(-0.0307164 -0.0575991 0)
(-0.0526809 -0.0476651 0)
(-0.146824 0.00962016 0)
(-0.293592 -0.0811203 0)
(0.0260836 -0.0844238 0)
(-0.482691 0.00190474 0)
(-1.31503 0.635864 0)
(-1.47025 0.456137 0)
(-1.46373 0.0498998 0)
(-1.67548 0.182467 0)
(-1.76116 0.702784 0)
(-1.76116 0.702784 0)
(-1.44717 1.30757 0)
(-1.1713 1.08046 0)
(-0.833312 0.878012 0)
(-0.457564 0.717509 0)
(0.0898647 1.41633 0)
(0.543996 1.57819 0)
(0.772173 1.26383 0)
(0.930306 0.897534 0)
(0.90341 0.639844 0)
)
;
    }
    procBoundary0to2
    {
        type            processor;
        value           nonuniform List<vector> 
24
(
(0.0455165 0.383813 0)
(0.0632611 0.434741 0)
(0.101964 0.5006 0)
(0.17082 0.56682 0)
(0.288152 0.648603 0)
(0.45078 0.679828 0)
(0.658742 0.605528 0)
(0.0102963 0.310402 0)
(0.0247687 0.292189 0)
(0.0354329 0.274548 0)
(0.0364671 0.264175 0)
(0.0349379 0.257057 0)
(0.0319993 0.254629 0)
(0.0281828 0.255264 0)
(0.026386 0.261319 0)
(0.0262573 0.268442 0)
(0.0286789 0.28049 0)
(0.036393 0.291282 0)
(0.0454182 0.299565 0)
(0.0538232 0.306843 0)
(0.060682 0.315811 0)
(0.0663733 0.326477 0)
(0.0455165 0.383813 0)
(0.0735631 0.34473 0)
)
;
    }
}


// ************************************************************************* //
