/*--------------------------------*- C++ -*----------------------------------*\
| =========                 |                                                 |
| \\      /  F ield         | OpenFOAM: The Open Source CFD Toolbox           |
|  \\    /   O peration     | Version:  2.4.0                                 |
|   \\  /    A nd           | Web:      www.OpenFOAM.org                      |
|    \\/     M anipulation  |                                                 |
\*---------------------------------------------------------------------------*/
FoamFile
{
    version     2.0;
    format      ascii;
    class       volVectorField;
    location    "0.8";
    object      U.water;
}
// * * * * * * * * * * * * * * * * * * * * * * * * * * * * * * * * * * * * * //

dimensions      [0 1 -1 0 0 0 0];

internalField   nonuniform List<vector> 
575
(
(0.00807164 -0.0435475 0)
(0.0211161 -0.0447983 0)
(0.0387157 -0.0471374 0)
(0.0349136 -0.0521315 0)
(0.0320471 -0.0521185 0)
(0.0184669 -0.0355262 0)
(-0.021154 -0.0065216 0)
(-0.0821762 0.0235257 0)
(-0.15359 0.0337971 0)
(-0.19487 0.0310009 0)
(-0.214178 0.0249836 0)
(-0.229376 0.0101957 0)
(-0.229546 -0.000882706 0)
(-0.211911 -0.00770697 0)
(-0.180938 -0.0119441 0)
(-0.152755 -0.00991771 0)
(-0.132992 -0.00657626 0)
(-0.119822 -0.00564105 0)
(-0.105559 -0.00371712 0)
(-0.0850029 -0.00842259 0)
(-0.0566493 -0.00198335 0)
(-0.04929 0.00107927 0)
(0.00897434 0.180022 0)
(0.0157032 0.178453 0)
(0.0320867 0.148066 0)
(0.0371485 0.121603 0)
(0.0438015 0.10599 0)
(0.0374821 0.0898304 0)
(0.000925284 0.0623954 0)
(-0.0669537 0.0424523 0)
(-0.147844 0.0220602 0)
(-0.202576 2.94083e-05 0)
(-0.229409 -0.00591057 0)
(-0.236618 -0.00296921 0)
(-0.230717 -0.00684564 0)
(-0.209951 -0.0156986 0)
(-0.179355 -0.0164729 0)
(-0.15169 -0.0130036 0)
(-0.130139 -0.00895741 0)
(-0.115824 -0.00737892 0)
(-0.101007 -0.0112015 0)
(-0.0759 -0.0156407 0)
(-0.0548193 -0.0149811 0)
(-0.0343893 -0.0090846 0)
(0.0125583 0.0785765 0)
(0.0175972 0.0795509 0)
(0.0276826 0.0919042 0)
(0.0412941 0.101048 0)
(0.0125865 0.112637 0)
(-0.0414665 0.153474 0)
(-0.0566043 0.130036 0)
(-0.0964746 0.132092 0)
(-0.159136 0.102532 0)
(-0.207889 0.0644287 0)
(-0.230802 0.0358184 0)
(-0.235656 0.0106915 0)
(-0.226262 -0.0147967 0)
(-0.208467 -0.0312561 0)
(-0.180003 -0.0373607 0)
(-0.155668 -0.0310165 0)
(-0.131759 -0.0222901 0)
(-0.112253 -0.0177478 0)
(-0.0952906 -0.0205424 0)
(-0.0696942 -0.0292054 0)
(-0.0560681 -0.0218658 0)
(-0.02407 -0.0151757 0)
(0.0113342 0.137966 0)
(0.00979845 0.145092 0)
(0.00373827 0.148057 0)
(0.00839665 0.177817 0)
(-0.0149839 0.213419 0)
(-0.0242072 0.223614 0)
(-0.0978769 0.232705 0)
(-0.193776 0.262551 0)
(-0.257875 0.236596 0)
(-0.242428 0.0856913 0)
(-0.24192 0.0284865 0)
(-0.234341 0.00106861 0)
(-0.225446 -0.016706 0)
(-0.208269 -0.0366146 0)
(-0.179746 -0.0398523 0)
(-0.15059 -0.0350158 0)
(-0.121606 -0.0294716 0)
(-0.0980396 -0.0247926 0)
(-0.0834747 -0.0296022 0)
(-0.0765217 -0.0330046 0)
(-0.0756011 -0.0371972 0)
(-0.0357806 -0.02947 0)
(-0.00634742 -0.152223 0)
(-0.00344368 -0.146266 0)
(-0.0061295 -0.147875 0)
(-0.0115056 -0.145338 0)
(8.28696e-05 -0.0973439 0)
(-0.00517728 0.0334189 0)
(-0.0674699 0.237844 0)
(-0.283417 0.310465 0)
(-0.322856 0.275013 0)
(-0.331352 0.220463 0)
(-0.301166 0.0888594 0)
(-0.276333 0.0274095 0)
(-0.247771 -0.0115336 0)
(-0.221538 -0.0349378 0)
(-0.189402 -0.0444587 0)
(-0.150251 -0.0391279 0)
(-0.112512 -0.030256 0)
(-0.0843402 -0.0237616 0)
(-0.0765095 -0.0250858 0)
(-0.0781808 -0.0285507 0)
(-0.0825759 -0.0337908 0)
(-0.0618666 -0.0348863 0)
(0.00154349 0.0713708 0)
(-0.00826423 0.086098 0)
(-0.0414611 0.0982442 0)
(-0.0922164 0.124238 0)
(-0.17366 0.114898 0)
(-0.217279 0.0746363 0)
(-0.193931 0.108057 0)
(-0.377892 0.278902 0)
(-0.422414 0.278876 0)
(-0.397262 0.205878 0)
(-0.362291 0.150173 0)
(-0.331059 0.0322782 0)
(-0.298559 -0.0123109 0)
(-0.266818 0.0249816 0)
(-0.222094 0.0988693 0)
(-0.170642 0.105916 0)
(-0.125346 0.117498 0)
(-0.0916329 0.113342 0)
(-0.0798176 0.0716355 0)
(-0.0789698 0.0584561 0)
(-0.0821199 0.0866198 0)
(-0.0769121 0.119927 0)
(-0.00641115 -0.0862789 0)
(-0.00938752 -0.0773383 0)
(-0.0113682 -0.0681859 0)
(-0.0249028 -0.0406145 0)
(-0.0611529 0.0154197 0)
(-0.123944 0.0883224 0)
(-0.202797 0.20062 0)
(-0.347746 0.27225 0)
(-0.550385 0.267574 0)
(-0.527802 0.225347 0)
(-0.452438 0.194109 0)
(-0.384301 0.156552 0)
(-0.33129 0.113851 0)
(-0.277324 0.0760652 0)
(-0.228053 0.0482829 0)
(-0.184871 0.0482775 0)
(-0.155951 0.0683759 0)
(-0.128572 0.100721 0)
(-0.0946474 0.122766 0)
(-0.0757896 0.127728 0)
(-0.0669089 0.113275 0)
(-0.0892672 0.0861146 0)
(0.00789743 0.0222139 0)
(0.00283161 0.0485641 0)
(-0.0275091 0.0712294 0)
(-0.0659817 0.0912606 0)
(-0.0989852 0.100102 0)
(-0.132027 0.117017 0)
(-0.172229 0.224588 0)
(-0.229503 0.333487 0)
(-0.48762 0.26436 0)
(-0.528771 0.149914 0)
(-0.513421 0.0902315 0)
(-0.457493 0.0580734 0)
(-0.376232 0.0334014 0)
(-0.27459 0.00316174 0)
(-0.178131 -0.00660769 0)
(-0.160025 -0.00036856 0)
(-0.17406 0.00936846 0)
(-0.169209 0.0270755 0)
(-0.123667 0.0398226 0)
(-0.0724112 0.0526056 0)
(-0.0594672 0.0598158 0)
(-0.116135 0.0434437 0)
(0.00251999 -0.0736036 0)
(0.0159245 -0.0660665 0)
(0.0411155 -0.0300078 0)
(0.0497823 0.0300761 0)
(0.0196439 0.106459 0)
(-0.0295573 0.172875 0)
(-0.0584268 0.268415 0)
(-0.00667449 0.394457 0)
(0.000974822 0.392147 0)
(-0.126622 0.29477 0)
(-0.249404 0.186952 0)
(-0.275981 0.0729499 0)
(-0.232041 -0.0221374 0)
(-0.17741 -0.0647558 0)
(-0.147594 -0.0538717 0)
(-0.141495 -0.026645 0)
(-0.147227 -0.0017917 0)
(-0.142307 0.00356225 0)
(-0.132378 0.0121389 0)
(-0.132896 0.058352 0)
(-0.142582 0.122278 0)
(-0.160696 0.115933 0)
(0.0210067 -0.0120715 0)
(0.0489032 0.00956776 0)
(0.0529776 0.0379283 0)
(0.0219583 0.0780719 0)
(0.00835426 0.13127 0)
(-0.000677443 0.159346 0)
(0.00702439 0.212002 0)
(0.0517122 0.274799 0)
(0.13213 0.262139 0)
(0.166811 0.156631 0)
(0.170406 0.00986639 0)
(0.178665 -0.123827 0)
(0.160541 -0.199029 0)
(0.127779 -0.217095 0)
(0.113997 -0.197521 0)
(0.109099 -0.161521 0)
(0.122271 -0.146253 0)
(0.118245 -0.158341 0)
(0.106855 -0.168091 0)
(0.0758478 -0.170592 0)
(0.046287 -0.152223 0)
(0.0522439 -0.13669 0)
(0.0264179 -0.0920603 0)
(0.0702298 -0.0568124 0)
(0.114696 0.0352646 0)
(0.10709 0.120699 0)
(0.0697171 0.170304 0)
(0.0181079 0.185327 0)
(0.00236876 0.212447 0)
(0.0259237 0.234227 0)
(0.0902731 0.217563 0)
(0.156479 0.151361 0)
(0.196538 0.0600011 0)
(0.215921 -0.0388436 0)
(0.20032 -0.112647 0)
(0.19527 -0.148496 0)
(0.214164 -0.147768 0)
(0.22134 -0.126664 0)
(0.217877 -0.0852565 0)
(0.168835 -0.038337 0)
(0.11983 0.0305567 0)
(0.0812564 0.0821581 0)
(0.0184088 0.118966 0)
(-0.104803 0.0761747 0)
(0.0460455 -0.173278 0)
(0.117307 -0.149941 0)
(0.118667 -0.0721853 0)
(0.0192125 0.0546028 0)
(0.0139508 0.165386 0)
(-0.0299708 0.19481 0)
(-0.0389508 0.186573 0)
(-0.0235599 0.154696 0)
(0.0266989 0.106216 0)
(0.0743176 0.0403665 0)
(0.111999 -0.0389286 0)
(0.132271 -0.0897523 0)
(0.145237 -0.158858 0)
(0.145029 -0.249135 0)
(0.15195 -0.308248 0)
(0.135386 -0.356667 0)
(0.148109 -0.397595 0)
(-0.00157896 -0.353629 0)
(-0.160571 -0.234513 0)
(-0.335138 -0.116755 0)
(-0.500338 0.0408922 0)
(-0.835967 0.357774 0)
(0.00575927 -0.24209 0)
(-0.0862761 -0.146362 0)
(-0.187929 0.107795 0)
(-0.211113 0.190264 0)
(-0.194781 0.238193 0)
(-0.193747 0.249533 0)
(-0.15313 0.220867 0)
(-0.120914 0.184117 0)
(-0.0712272 0.135644 0)
(-0.00424238 0.0738238 0)
(0.0608415 -0.0296156 0)
(0.0829379 -0.150649 0)
(0.01405 -0.353039 0)
(-0.0260717 -0.562925 0)
(-0.0195605 -0.773868 0)
(-0.332873 -0.728454 0)
(-0.907438 -0.192409 0)
(-1.00433 -0.00464656 0)
(-0.994633 0.131726 0)
(-1.04695 0.273466 0)
(-1.21815 0.478167 0)
(-1.25992 0.556305 0)
(-0.0487153 -0.155817 0)
(-0.311822 -0.0804678 0)
(-0.374706 -0.0395439 0)
(-0.374116 -0.0130509 0)
(-0.363501 -0.00709856 0)
(-0.314682 0.0161785 0)
(-0.26797 -0.000649402 0)
(-0.24307 -0.0438032 0)
(-0.209729 -0.154857 0)
(-0.210949 -0.3237 0)
(-0.237093 -0.620678 0)
(-0.189804 -0.748648 0)
(-0.146022 -0.398397 0)
(-0.803826 0.133617 0)
(-0.567657 -0.249241 0)
(-1.23226 -0.0611721 0)
(-1.16744 -0.126653 0)
(-1.0956 -0.0859802 0)
(-1.08134 0.0495679 0)
(-1.1396 0.303569 0)
(-1.22843 0.507869 0)
(-1.27072 0.551583 0)
(-0.139613 -0.195429 0)
(-0.311843 -0.481094 0)
(-0.461759 -0.31624 0)
(-0.445514 -0.311342 0)
(-0.407341 -0.285214 0)
(-0.352515 -0.248789 0)
(-0.306286 -0.281164 0)
(-0.285136 -0.341324 0)
(-0.270374 -0.469406 0)
(-0.291458 -0.492951 0)
(-0.714464 -0.0457289 0)
(-0.997293 -0.0279572 0)
(-0.78403 0.216239 0)
(-0.789534 0.209875 0)
(-0.752655 0.171118 0)
(-0.984576 0.249664 0)
(-1.21176 -0.144049 0)
(-1.1027 -0.105793 0)
(-1.04956 0.0623553 0)
(-1.08673 0.329532 0)
(-1.14169 0.526601 0)
(-1.18563 0.591514 0)
(-0.0944762 -0.465717 0)
(-0.056275 -0.467265 0)
(-0.511665 -0.210166 0)
(-0.471036 -0.233402 0)
(-0.422276 -0.243067 0)
(-0.347937 -0.235972 0)
(-0.305825 -0.249069 0)
(-0.326545 -0.243211 0)
(-0.406641 0.00687858 0)
(-0.431881 0.237609 0)
(-0.441468 -0.0734769 0)
(-0.33965 -0.277191 0)
(-0.454007 0.0959973 0)
(-0.367173 0.331569 0)
(-0.348218 0.43313 0)
(-0.361989 0.609297 0)
(-0.703722 0.314531 0)
(-1.16214 0.0539993 0)
(-1.10534 0.10248 0)
(-1.0499 0.273251 0)
(-1.07745 0.493571 0)
(-1.10208 0.582469 0)
(-0.0912213 -0.190188 0)
(-0.233465 0.263232 0)
(-0.292886 0.0637786 0)
(-0.251031 -0.0988272 0)
(-0.0849752 -0.0957112 0)
(-0.0688888 -0.129134 0)
(0.121778 0.132901 0)
(-0.0861471 0.291648 0)
(-0.271578 0.355744 0)
(-0.266099 0.426004 0)
(-0.343005 0.27004 0)
(-0.492375 0.140191 0)
(-0.491182 0.163003 0)
(-0.416054 0.267961 0)
(-0.318962 0.339353 0)
(-0.275934 0.480356 0)
(-0.173635 0.611312 0)
(-0.496203 0.529219 0)
(-1.13655 0.275569 0)
(-1.1022 0.298044 0)
(-1.07614 0.474132 0)
(-1.09364 0.621719 0)
(-1.3483 1.57545 0)
(-0.025962 0.762495 0)
(-0.041269 0.63871 0)
(0.060326 0.349281 0)
(-0.0785765 0.129202 0)
(-0.054178 -0.095701 0)
(-0.109311 -0.0982317 0)
(-0.170054 0.0194359 0)
(-0.0596647 0.354923 0)
(-0.140677 0.384555 0)
(-0.138457 0.395716 0)
(-0.1924 0.253247 0)
(-0.136632 -0.0514404 0)
(-0.196402 -0.0509461 0)
(-0.213033 0.126785 0)
(-0.14103 0.246284 0)
(-0.102217 0.371547 0)
(-0.0527654 0.517279 0)
(-0.00978223 0.711942 0)
(-0.478702 0.713407 0)
(-0.913543 0.50978 0)
(-1.01144 0.590174 0)
(-1.07723 0.9943 0)
(-1.14021 1.77564 0)
(0.0522893 0.745494 0)
(0.125531 0.607664 0)
(0.1356 0.30289 0)
(0.120152 0.0840734 0)
(0.0814821 0.0375594 0)
(0.0140088 0.0782208 0)
(-0.0954409 0.173419 0)
(-0.0133114 0.339999 0)
(-0.0679388 0.427894 0)
(-0.0236818 0.407588 0)
(-0.0276768 0.272443 0)
(0.0270934 0.164565 0)
(-0.141676 0.203686 0)
(-0.162953 0.210157 0)
(-0.139873 0.268139 0)
(-0.108691 0.367311 0)
(-0.0514417 0.500265 0)
(0.0115082 0.67174 0)
(0.0755408 0.859544 0)
(-0.0607893 0.93775 0)
(-0.372481 1.08846 0)
(-0.8142 1.55287 0)
(-0.881039 1.73826 0)
(0.0216299 0.66286 0)
(0.12408 0.563909 0)
(0.110963 0.31113 0)
(0.0980146 0.115904 0)
(0.00517675 -0.0369214 0)
(0.00336411 0.00883674 0)
(-0.0298663 0.00219889 0)
(0.0139324 0.30233 0)
(-0.000159857 0.426529 0)
(0.0238769 0.386351 0)
(0.0244759 0.226492 0)
(0.00749756 0.0859653 0)
(-0.044493 0.133314 0)
(-0.0577186 0.143469 0)
(-0.0856203 0.212662 0)
(-0.0890608 0.313015 0)
(-0.0610623 0.443271 0)
(-0.0332472 0.603185 0)
(0.0390575 0.835732 0)
(0.0602914 1.07412 0)
(0.036377 1.52744 0)
(-0.263304 1.90538 0)
(-0.486148 1.7827 0)
(-0.0237534 0.581161 0)
(0.104736 0.483622 0)
(0.113469 0.314046 0)
(0.145165 0.177209 0)
(0.0808776 0.14714 0)
(0.0296331 0.146689 0)
(-0.0622458 0.170757 0)
(-0.0482463 0.282424 0)
(0.0138193 0.399086 0)
(0.0686488 0.354921 0)
(0.0760063 0.258804 0)
(0.0425177 0.207038 0)
(-0.0256673 0.234791 0)
(-0.0584735 0.246929 0)
(-0.0995887 0.27516 0)
(-0.105248 0.326201 0)
(-0.0924785 0.421651 0)
(-0.0693087 0.567128 0)
(-0.0347893 0.765165 0)
(0.026759 1.05211 0)
(0.130817 1.54289 0)
(0.199414 2.03864 0)
(0.235948 1.95918 0)
(-0.00746299 0.557581 0)
(0.100375 0.432031 0)
(0.109258 0.294406 0)
(0.117709 0.176642 0)
(0.0597766 0.120815 0)
(0.0303464 0.146664 0)
(-0.0177499 0.130729 0)
(-0.0397721 0.241552 0)
(0.00731037 0.322636 0)
(0.0688207 0.323002 0)
(0.0691279 0.272666 0)
(0.0123208 0.228218 0)
(-0.0327668 0.251895 0)
(-0.0546248 0.254123 0)
(-0.0812518 0.279229 0)
(-0.0961981 0.325843 0)
(-0.104024 0.419211 0)
(-0.0851158 0.553024 0)
(-0.0640634 0.717126 0)
(-0.0304331 0.947311 0)
(0.0999611 1.44631 0)
(0.299093 1.91282 0)
(0.55411 1.83076 0)
(0.0361496 0.486847 0)
(0.0973983 0.382754 0)
(0.112415 0.279576 0)
(0.108664 0.211529 0)
(0.0629063 0.188078 0)
(0.0335297 0.198389 0)
(-0.00595293 0.19724 0)
(-0.0341595 0.238745 0)
(-0.00817793 0.277429 0)
(0.0243831 0.301765 0)
(0.0226061 0.296646 0)
(-0.0110523 0.281271 0)
(-0.0420338 0.278732 0)
(-0.0612721 0.274522 0)
(-0.0833384 0.296041 0)
(-0.0926797 0.33904 0)
(-0.0978135 0.410961 0)
(-0.0860306 0.531982 0)
(-0.0511189 0.694619 0)
(-0.0194176 0.888162 0)
(0.101468 1.22066 0)
(0.347418 1.57769 0)
(0.683803 1.47519 0)
(0.0458609 0.410088 0)
(0.0788448 0.348186 0)
(0.103277 0.278056 0)
(0.0853028 0.237598 0)
(0.0561949 0.22355 0)
(0.0333864 0.229042 0)
(0.00770713 0.228677 0)
(-0.0129856 0.247614 0)
(-0.00812661 0.266448 0)
(0.00283507 0.292618 0)
(0.00882271 0.309119 0)
(-0.00409717 0.310943 0)
(-0.0195007 0.311573 0)
(-0.0378363 0.309609 0)
(-0.0590598 0.320373 0)
(-0.0696629 0.350044 0)
(-0.0711742 0.406491 0)
(-0.0540683 0.497721 0)
(-0.00371904 0.62892 0)
(0.0715195 0.787817 0)
(0.219082 1.01153 0)
(0.446095 1.20868 0)
(0.786024 1.09777 0)
(0.0308091 0.36197 0)
(0.0551015 0.324754 0)
(0.0723102 0.279155 0)
(0.0608987 0.254588 0)
(0.0454055 0.241365 0)
(0.0317629 0.241677 0)
(0.0171685 0.241783 0)
(0.00714749 0.255162 0)
(0.00209673 0.265521 0)
(0.00427767 0.288353 0)
(0.0109061 0.307447 0)
(0.0128094 0.315002 0)
(0.0107064 0.316407 0)
(0.00388947 0.31804 0)
(-0.00731035 0.328444 0)
(-0.0143571 0.351066 0)
(-0.0149957 0.394274 0)
(0.000691099 0.461428 0)
(0.0459622 0.554494 0)
(0.128033 0.661865 0)
(0.277687 0.811147 0)
(0.477759 0.905504 0)
(0.774377 0.800095 0)
(0.0176736 0.330591 0)
(0.0364026 0.306429 0)
(0.0485099 0.278498 0)
(0.0451764 0.262995 0)
(0.0385323 0.252716 0)
(0.0320726 0.250499 0)
(0.0246709 0.250678 0)
(0.0202311 0.259542 0)
(0.0184118 0.267726 0)
(0.017716 0.284383 0)
(0.0248503 0.300162 0)
(0.0330288 0.308269 0)
(0.0386397 0.313237 0)
(0.0406569 0.320459 0)
(0.0400358 0.331468 0)
(0.0409576 0.350618 0)
)
;

boundaryField
{
    leftWall
    {
        type            fixedValue;
        value           uniform (0 0 0);
    }
    rightWall
    {
        type            fixedValue;
        value           nonuniform 0();
    }
    lowerWall
    {
        type            fixedValue;
        value           uniform (0 0 0);
    }
    atmosphere
    {
        type            fluxCorrectedVelocity;
        value           nonuniform 0();
    }
    defaultFaces
    {
        type            empty;
    }
    procBoundary0to1
    {
        type            processor;
        value           nonuniform List<vector> 
26
(
(-0.0363107 -0.0114042 0)
(-0.0155326 -0.0313398 0)
(-0.0066018 -0.0352947 0)
(-0.0115582 -0.0437668 0)
(-0.017155 -0.0407055 0)
(-0.0330147 0.0869666 0)
(-0.0572489 0.0428712 0)
(-0.135903 -0.0356694 0)
(-0.256138 -0.164442 0)
(0.049065 -0.144131 0)
(-0.454064 -0.0476957 0)
(-1.11254 0.492517 0)
(-1.31631 0.500056 0)
(-1.37817 0.345094 0)
(-1.51305 0.526627 0)
(-1.79689 1.03279 0)
(-1.79689 1.03279 0)
(-1.42318 1.60474 0)
(-1.14633 1.09166 0)
(-0.814162 0.924454 0)
(-0.425813 0.789429 0)
(0.217811 1.4052 0)
(0.681641 1.49144 0)
(0.878099 1.17343 0)
(0.966851 0.845047 0)
(0.913269 0.62742 0)
)
;
    }
    procBoundary0to2
    {
        type            processor;
        value           nonuniform List<vector> 
24
(
(0.0458869 0.384858 0)
(0.0634562 0.43525 0)
(0.102234 0.501055 0)
(0.171355 0.567387 0)
(0.289119 0.648919 0)
(0.452226 0.678751 0)
(0.661004 0.605013 0)
(0.0102963 0.310383 0)
(0.0247687 0.292186 0)
(0.0354329 0.274548 0)
(0.0364671 0.264175 0)
(0.0349379 0.257057 0)
(0.0319993 0.254629 0)
(0.0281828 0.255264 0)
(0.0263861 0.261319 0)
(0.0262574 0.268444 0)
(0.0286792 0.280493 0)
(0.0363935 0.291285 0)
(0.0454217 0.299587 0)
(0.0538528 0.307006 0)
(0.06084 0.316523 0)
(0.0667812 0.328052 0)
(0.0458869 0.384858 0)
(0.0740903 0.346606 0)
)
;
    }
}


// ************************************************************************* //
