/*--------------------------------*- C++ -*----------------------------------*\
| =========                 |                                                 |
| \\      /  F ield         | OpenFOAM: The Open Source CFD Toolbox           |
|  \\    /   O peration     | Version:  2.4.0                                 |
|   \\  /    A nd           | Web:      www.OpenFOAM.org                      |
|    \\/     M anipulation  |                                                 |
\*---------------------------------------------------------------------------*/
FoamFile
{
    version     2.0;
    format      ascii;
    class       volScalarField;
    location    "0.45";
    object      alpha.oil;
}
// * * * * * * * * * * * * * * * * * * * * * * * * * * * * * * * * * * * * * //

dimensions      [0 0 0 0 0 0 0];

internalField   nonuniform List<scalar> 
2268
(
1.83899e-21
1.25933e-20
4.10964e-20
3.63969e-19
2.4304e-19
1.08436e-18
2.3458e-18
2.7306e-18
2.46446e-17
7.91489e-15
1.30387e-12
1.34762e-11
6.62796e-11
2.18468e-10
5.31858e-10
1.11227e-09
1.9767e-09
3.10739e-09
4.57962e-09
7.01897e-09
1.67852e-08
1.16375e-06
1.78179e-05
4.87972e-20
3.16122e-19
1.12406e-18
7.13349e-18
5.96676e-18
2.01284e-17
3.97534e-17
5.62365e-17
3.28653e-16
2.96732e-14
3.3084e-12
3.65009e-11
2.01362e-10
7.12228e-10
2.25802e-09
5.17341e-09
8.79752e-09
1.22697e-08
1.49432e-08
1.67983e-08
2.6228e-08
1.20832e-06
2.05651e-05
6.32765e-19
3.89416e-18
1.51646e-17
6.89333e-17
7.21092e-17
1.87922e-16
3.38322e-16
6.23713e-16
2.95963e-15
5.63428e-14
2.97925e-12
2.63082e-11
2.8438e-10
9.02421e-10
2.88815e-09
8.36435e-09
2.25507e-08
4.80565e-08
6.00503e-08
5.47756e-08
5.4169e-08
1.10867e-06
1.98051e-05
5.34382e-18
3.15638e-17
1.33323e-16
4.4209e-16
5.58445e-16
1.17469e-15
1.98888e-15
5.03749e-15
1.98759e-14
1.08969e-13
1.46328e-12
1.44866e-11
5.75084e-11
3.92997e-10
2.94349e-09
1.77767e-08
8.40011e-08
3.10399e-07
4.20963e-07
3.46133e-07
1.79165e-07
1.26722e-06
2.10013e-05
3.30638e-17
1.90115e-16
8.5311e-16
2.12993e-15
3.10739e-15
5.49925e-15
9.35978e-15
3.26593e-14
9.98804e-14
3.02769e-13
1.45008e-12
1.90842e-11
3.32857e-10
2.97169e-09
2.67938e-08
1.21941e-07
4.79849e-07
1.08892e-06
1.23509e-06
1.01273e-06
4.76991e-07
1.60171e-06
2.31045e-05
1.59915e-16
9.11609e-16
4.19915e-15
8.37736e-15
1.2926e-14
2.06211e-14
4.13438e-14
1.62688e-13
3.77926e-13
8.32683e-13
2.05821e-12
4.68133e-11
7.65844e-10
8.23983e-09
1.07087e-07
1.22972e-06
8.80606e-06
4.28547e-05
2.51436e-05
8.60024e-06
1.54705e-06
2.29193e-06
2.74849e-05
6.31781e-16
3.64824e-15
1.64846e-14
2.8416e-14
4.22908e-14
6.46013e-14
1.90753e-13
6.2324e-13
9.86204e-13
1.62638e-12
4.12868e-12
1.28173e-11
1.07969e-10
4.32571e-09
1.07038e-07
1.34418e-06
8.76814e-06
6.76888e-05
0.000131714
5.42741e-05
8.58467e-06
3.40498e-06
2.91719e-05
2.14437e-15
1.27689e-14
5.42178e-14
8.59842e-14
1.18113e-13
1.77149e-13
8.60433e-13
2.121e-12
1.25627e-12
1.5277e-12
1.79859e-12
2.06994e-12
2.34281e-12
1.57993e-08
4.66945e-07
8.76833e-06
3.54448e-05
5.04848e-05
0.000372479
0.000184951
2.95409e-05
5.27921e-06
2.86541e-05
0.999345
0.999339
0.999334
0.998664
0.995049
0.986912
0.971819
0.951519
0.929209
0.903704
0.86488
0.803149
0.755671
0.754366
0.753072
0.751776
0.750539
0.749293
0.747893
0.99935
0.999801
0.999935
0.999938
0.999962
0.999962
0.999962
0.999905
0.999696
0.999498
0.999521
0.994834
0.958054
0.884004
0.84298
0.80522
0.752261
0.747852
0.746663
0.999639
0.999954
0.999981
0.999979
0.999828
0.998614
0.998052
0.958561
0.922151
0.900124
0.939589
0.974832
0.9705
0.942231
0.939373
0.946911
0.952151
0.829038
0.745413
0.999822
0.999974
0.999981
0.999964
0.994135
0.880166
0.415616
0.20026
0.177213
0.138311
0.217778
0.461265
0.846967
0.931868
0.938563
0.952128
0.976744
0.961505
0.744159
0.999557
0.999701
0.999915
0.999964
0.963107
0.418816
0.0348713
0.00118033
0.000981639
0.000897912
0.000891119
0.00835991
0.252001
0.795999
0.92799
0.950466
0.97679
0.993671
0.796363
0.994752
0.995466
0.997793
0.999027
0.955985
0.754
0.314669
0.0417646
0.00111097
0.000896181
0.000890512
0.00776175
0.133792
0.628036
0.911574
0.952176
0.979074
0.997049
0.854222
0.970254
0.971871
0.981634
0.9874
0.984516
0.968068
0.844811
0.444517
0.0758581
0.00260683
0.00162863
0.0852151
0.560588
0.842581
0.920481
0.957142
0.983061
0.99784
0.907885
0.878419
0.899076
0.925137
0.938473
0.945821
0.949232
0.930684
0.808332
0.397434
0.0624752
0.0387843
0.265144
0.753286
0.892782
0.922205
0.961995
0.98734
0.99795
0.953579
6.76236e-15
4.12095e-14
1.60721e-13
2.28303e-13
3.00311e-13
4.5528e-13
2.56926e-12
1.40417e-11
1.2132e-09
2.01592e-09
2.96558e-09
5.44079e-09
1.2306e-08
4.40573e-08
2.02542e-07
2.61672e-06
3.80176e-05
0.000210456
0.00072
0.00184047
0.00100686
0.000130529
4.19735e-05
3.29067e-14
2.10512e-13
7.28067e-13
9.06634e-13
1.10817e-12
2.15477e-12
2.42972e-10
1.35065e-08
2.62615e-07
5.69661e-07
8.74375e-07
1.08246e-06
1.09054e-06
1.30098e-06
1.44397e-06
2.55039e-06
2.23337e-05
0.00019097
0.000906141
0.00329808
0.00430917
0.00326446
0.00149974
1.37347e-13
9.43949e-13
2.78292e-12
3.06196e-12
3.62803e-12
1.46868e-11
3.31237e-08
4.10006e-07
1.05588e-05
0.000106927
0.00024878
0.000293539
0.000221255
0.000235377
0.000155138
6.8996e-05
4.06305e-05
8.57349e-05
0.000433663
0.00216865
0.00427531
0.0091234
0.00917118
4.86509e-13
3.66724e-12
8.72581e-12
8.42756e-12
1.37354e-11
8.88835e-10
7.27398e-07
0.000164651
0.00302455
0.0137598
0.0224809
0.0243694
0.0216056
0.0222654
0.017235
0.00923583
0.0046131
0.0022171
0.000953489
0.00125459
0.00264471
0.00549566
0.00806701
1.45696e-12
1.33669e-11
2.01924e-10
2.46234e-10
1.28572e-09
1.3839e-07
0.000111321
0.00867526
0.0758644
0.196696
0.259067
0.278492
0.282456
0.303084
0.296462
0.254804
0.18376
0.114411
0.0603362
0.0321656
0.0136739
0.0119734
0.0115761
3.66003e-12
8.40055e-11
1.60939e-09
3.12757e-09
1.82945e-08
1.49484e-06
0.00141245
0.0604074
0.30172
0.566786
0.704956
0.769527
0.811437
0.858663
0.882353
0.889232
0.83696
0.721053
0.554838
0.443825
0.324289
0.234151
0.175761
7.40663e-12
1.1227e-10
2.51323e-09
9.18611e-09
4.20703e-08
1.51636e-06
0.00189843
0.0885918
0.322567
0.565947
0.781158
0.906887
0.964012
0.983248
0.991017
0.994601
0.994634
0.994642
0.976942
0.974769
0.91917
0.855317
0.752554
1.21109e-11
5.00895e-10
1.18636e-08
7.05057e-08
3.30773e-07
1.40568e-06
6.64297e-05
0.000983613
0.00163257
0.0152348
0.0708559
0.189268
0.348198
0.492921
0.617488
0.745627
0.845853
0.913341
0.956386
0.951026
0.963466
0.962599
0.96348
1.75767e-11
1.15608e-09
2.75997e-08
2.9407e-07
1.94485e-06
3.15264e-06
9.60122e-07
8.56392e-07
2.25313e-06
2.13203e-06
1.66159e-06
2.72244e-06
1.29043e-05
0.000126697
0.00135597
0.0105305
0.0422941
0.108078
0.207305
0.229737
0.368199
0.34975
0.413529
1.13487e-11
6.74608e-10
2.44821e-08
3.44966e-07
9.26013e-07
4.28827e-07
1.43575e-08
3.43772e-08
1.375e-07
1.70129e-07
6.70259e-08
1.97284e-08
1.81793e-08
1.8228e-08
5.68276e-08
1.1687e-07
1.7552e-07
1.6113e-07
3.39963e-07
3.59957e-06
1.67738e-05
7.27242e-05
0.000216568
8.79506e-12
4.02805e-10
8.39285e-09
2.50664e-08
1.98841e-08
5.2551e-09
6.43583e-09
2.48109e-08
1.37218e-07
2.14871e-07
7.97611e-08
2.1364e-08
1.9249e-08
7.94462e-08
2.94593e-07
4.09619e-07
3.10707e-07
1.4492e-07
7.51022e-08
7.51502e-08
7.51055e-08
8.30427e-08
1.62389e-07
8.62668e-12
1.76874e-10
1.55415e-09
1.1838e-09
1.38946e-10
4.29786e-10
4.32958e-09
2.63531e-08
8.60984e-08
2.14863e-07
9.55102e-08
2.84067e-08
7.43766e-08
4.69562e-07
6.90519e-07
7.32995e-07
7.2669e-07
5.3416e-07
1.08486e-07
7.5061e-08
1.17024e-07
2.07782e-07
1.23732e-07
8.10515e-13
9.79327e-12
6.91767e-11
4.47571e-11
2.75686e-11
3.59152e-11
1.6029e-10
7.64389e-10
3.42648e-09
4.21765e-08
7.4812e-09
1.12549e-08
2.63621e-07
7.33306e-07
7.34328e-07
6.50514e-07
4.93121e-07
2.52901e-07
8.85515e-08
7.50998e-08
1.33018e-07
1.61459e-07
1.03015e-07
6.58046e-14
6.76794e-13
6.16973e-12
1.14033e-11
1.75317e-11
2.37605e-11
3.43439e-11
6.85361e-11
1.2221e-10
2.03002e-10
3.7334e-10
1.72194e-08
3.71007e-07
7.35579e-07
4.34729e-07
8.18435e-08
5.02189e-08
5.08634e-08
4.69519e-08
8.69163e-08
1.11594e-07
9.93321e-08
4.89601e-08
8.71341e-15
1.26801e-13
1.22488e-12
5.17327e-12
1.10145e-11
1.6591e-11
3.16322e-11
7.90194e-11
1.68371e-10
1.9725e-10
1.00765e-09
2.95672e-08
1.17692e-07
2.18246e-07
9.24662e-08
6.32814e-08
5.61699e-08
4.71059e-08
4.71032e-08
5.19783e-08
6.54074e-08
4.30432e-08
1.66211e-08
7.85101e-16
1.83981e-14
3.05929e-13
2.21973e-12
5.9403e-12
9.88966e-12
2.25914e-11
6.71207e-11
1.75704e-10
2.92138e-10
1.62595e-09
1.66096e-08
2.77666e-08
4.95643e-08
1.17621e-07
1.1989e-07
9.32941e-08
7.49201e-08
3.8868e-08
2.3015e-08
1.21127e-08
8.22021e-09
6.51941e-09
1.62461e-16
7.38998e-15
1.29875e-13
8.94298e-13
2.5058e-12
4.95849e-12
1.40544e-11
4.73089e-11
1.30575e-10
2.85097e-10
8.68319e-10
5.36624e-09
2.15549e-08
5.60944e-08
1.28586e-07
1.40553e-07
1.17229e-07
8.35659e-08
5.05255e-08
1.80528e-08
7.09927e-09
3.30828e-09
2.07811e-09
1.13242e-16
4.1681e-15
5.35245e-14
2.9104e-13
8.18896e-13
2.0404e-12
7.36953e-12
2.73233e-11
7.59015e-11
2.2481e-10
3.63227e-10
2.81055e-09
2.17682e-08
6.26657e-08
1.13061e-07
1.3709e-07
1.19746e-07
8.74808e-08
5.31857e-08
2.66426e-08
1.02005e-08
3.23554e-09
1.41113e-09
5.17345e-17
1.25833e-15
1.26748e-14
6.31965e-14
2.04387e-13
7.40106e-13
3.49479e-12
1.44772e-11
4.63603e-11
1.31895e-10
2.36304e-10
6.39537e-10
1.39289e-08
5.05453e-08
8.70957e-08
1.03207e-07
9.49589e-08
7.28496e-08
4.604e-08
2.41863e-08
1.00887e-08
3.23521e-09
8.81518e-10
8.90627e-18
1.80721e-16
1.70844e-15
9.17507e-15
4.31106e-14
2.54085e-13
1.43485e-12
6.26967e-12
2.05077e-11
4.94789e-11
7.31026e-11
1.05445e-10
3.88e-09
2.00982e-08
3.31979e-08
5.85083e-08
5.69248e-08
4.67895e-08
3.13489e-08
1.74962e-08
7.78661e-09
2.58495e-09
6.57152e-10
1.03922e-20
8.66806e-19
2.98503e-17
5.62663e-16
6.85371e-15
5.82411e-14
3.57217e-13
1.61339e-12
5.27705e-12
1.17562e-11
1.66348e-11
2.1715e-11
3.78326e-10
3.1752e-09
1.42072e-08
1.76577e-08
2.51875e-08
2.16123e-08
1.519e-08
9.00656e-09
4.306e-09
1.48456e-09
3.7436e-10
1.59495e-21
1.00654e-19
3.0172e-18
5.56005e-17
6.96752e-16
6.21402e-15
4.03006e-14
1.90522e-13
6.57491e-13
1.68e-12
3.29438e-12
6.27137e-12
1.69375e-11
3.41937e-10
1.24831e-09
5.73805e-09
7.47489e-09
7.41238e-09
4.48349e-09
2.67336e-09
1.46394e-09
5.97844e-10
1.57354e-10
2.22001e-23
1.7801e-21
6.6432e-20
1.50506e-18
2.29601e-17
2.50027e-16
2.023e-15
1.24383e-14
5.92183e-14
2.19715e-13
6.44083e-13
1.53622e-12
3.38742e-12
9.91287e-12
5.56944e-11
4.04471e-10
1.41221e-09
1.49946e-09
1.00644e-09
4.48012e-10
2.46076e-10
1.07395e-10
3.72403e-11
5.10224e-24
3.5638e-22
1.19869e-20
2.53585e-19
3.78005e-18
4.19389e-17
3.56337e-16
2.36346e-15
1.24624e-14
5.32807e-14
1.85577e-13
5.24437e-13
1.30364e-12
3.42795e-12
1.08368e-11
3.33216e-11
9.85236e-11
1.80415e-10
1.49847e-10
6.92717e-11
2.73415e-11
1.33728e-11
7.34178e-12
3.87756e-25
2.84299e-23
9.98972e-22
2.18768e-20
3.38286e-19
3.94811e-18
3.62237e-17
2.67956e-16
1.61737e-15
7.94926e-15
3.19772e-14
1.07583e-13
3.08821e-13
7.50918e-13
1.56703e-12
2.90299e-12
5.29135e-12
1.17585e-11
1.57583e-11
1.62221e-11
1.04467e-11
4.69971e-12
1.9693e-12
3.83173e-26
2.93784e-24
1.08643e-22
2.5217e-21
4.12064e-20
5.02187e-19
4.7265e-18
3.53272e-17
2.1414e-16
1.0728e-15
4.53611e-15
1.64499e-14
5.1122e-14
1.37434e-13
3.22137e-13
6.52233e-13
1.15117e-12
1.74294e-12
2.14993e-12
2.0547e-12
1.50244e-12
8.21589e-13
3.59942e-13
4.43751e-28
3.57976e-26
1.39319e-24
3.42329e-23
6.0167e-22
8.10592e-21
8.71713e-20
7.64935e-19
5.55802e-18
3.37849e-17
1.71838e-16
7.28966e-16
2.58437e-15
7.75272e-15
1.97935e-14
4.37245e-14
8.33691e-14
1.34485e-13
1.79019e-13
1.90838e-13
1.58696e-13
1.01049e-13
5.18012e-14
4.0384e-30
3.59666e-28
1.54604e-26
4.20702e-25
8.15412e-24
1.19712e-22
1.38514e-21
1.29778e-20
1.00128e-19
6.442e-19
3.51343e-18
1.65257e-17
6.74745e-17
2.38039e-16
7.24658e-16
1.87932e-15
4.08653e-15
7.43668e-15
1.12359e-14
1.38841e-14
1.35917e-14
1.01991e-14
6.18778e-15
1.94513e-32
1.90912e-30
9.1131e-29
2.77442e-27
6.07112e-26
1.017e-24
1.35329e-23
1.4648e-22
1.31317e-21
9.89257e-21
6.31106e-20
3.41281e-19
1.56807e-18
6.15617e-18
2.06962e-17
5.97568e-17
1.4865e-16
3.1523e-16
5.59095e-16
8.07155e-16
9.24985e-16
8.29569e-16
6.10882e-16
8.64607e-35
9.45331e-33
4.99222e-31
1.68019e-29
4.05541e-28
7.48316e-27
1.09819e-25
1.31567e-24
1.30934e-23
1.0954e-22
7.78094e-22
4.74052e-21
2.4971e-20
1.13922e-19
4.49496e-19
1.52706e-18
4.42342e-18
1.08186e-17
2.21378e-17
3.73918e-17
5.09925e-17
5.52768e-17
5.02123e-17
2.22883e-37
2.74433e-35
1.6458e-33
6.33015e-32
1.75494e-30
3.73102e-29
6.3136e-28
8.71709e-27
1.00003e-25
9.6665e-25
7.95428e-24
5.60746e-23
3.39645e-22
1.77192e-21
7.97652e-21
3.09628e-20
1.03395e-19
2.95186e-19
7.11435e-19
1.42265e-18
2.32015e-18
3.07171e-18
3.48867e-18
4.47717e-40
6.31986e-38
4.31851e-36
1.89331e-34
5.97987e-33
1.44954e-31
2.80312e-30
4.43597e-29
5.84776e-28
6.50065e-27
6.14618e-26
4.98303e-25
3.49072e-24
2.11967e-23
1.11535e-22
5.07637e-22
1.99e-21
6.67299e-21
1.89738e-20
4.52204e-20
8.91865e-20
1.45611e-19
2.08158e-19
5.87444e-43
9.63195e-41
7.63425e-39
3.88786e-37
1.42859e-35
4.0348e-34
9.10043e-33
1.67977e-31
2.58241e-30
3.35217e-29
3.71304e-28
3.53348e-27
2.9016e-26
2.0632e-25
1.27303e-24
6.81348e-24
3.155e-23
1.25756e-22
4.27909e-22
1.22989e-21
2.95943e-21
5.99905e-21
1.08167e-20
4.87708e-46
9.68012e-44
9.11072e-42
5.492e-40
2.38542e-38
7.96712e-37
2.12861e-35
4.66147e-34
8.51159e-33
1.31212e-31
1.72382e-30
1.94532e-29
1.89777e-28
1.60689e-27
1.18303e-26
7.57289e-26
4.20624e-25
2.018e-24
8.30564e-24
2.90822e-23
8.61289e-23
2.17798e-22
4.94588e-22
2.44847e-49
6.19554e-47
7.10519e-45
5.14881e-43
2.67007e-41
1.05974e-39
3.36159e-38
8.80228e-37
1.94145e-35
3.64766e-34
5.87104e-33
8.1214e-32
9.68562e-31
9.99732e-30
8.9597e-29
6.98368e-28
4.72991e-27
2.77387e-26
1.40017e-25
6.04032e-25
2.21887e-24
7.02031e-24
2.00205e-23
6.37265e-53
2.45662e-50
3.5991e-48
3.1985e-46
2.00665e-44
9.58537e-43
3.65703e-41
1.15402e-39
3.0824e-38
7.06748e-37
1.40327e-35
2.42244e-34
3.63948e-33
4.75386e-32
5.37933e-31
5.26715e-30
4.45948e-29
3.25952e-28
2.0495e-27
1.10258e-26
5.065e-26
2.01103e-25
7.18498e-25
1.07303e-56
7.71943e-54
1.47209e-51
1.59219e-49
1.19806e-47
6.854e-46
3.13793e-44
1.19069e-42
3.83665e-41
1.06829e-39
2.59853e-38
5.54427e-37
1.03736e-35
1.70149e-34
2.45032e-33
3.08737e-32
3.38119e-31
3.18569e-30
2.55921e-29
1.74679e-28
1.01464e-27
5.08168e-27
2.27471e-26
3.56745e-60
3.8843e-57
8.94271e-55
1.12136e-52
9.67749e-51
6.33411e-49
3.30598e-47
1.42202e-45
5.17095e-44
1.6257e-42
4.50698e-41
1.11846e-39
2.50268e-38
5.04249e-37
9.09681e-36
1.45349e-34
2.03334e-33
2.47293e-32
2.59126e-31
2.31049e-30
1.73857e-29
1.11271e-28
6.27213e-28
9.09005e-63
8.35152e-60
1.91966e-57
2.44767e-55
2.1451e-53
1.4232e-51
7.56115e-50
3.33334e-48
1.25227e-46
4.0916e-45
1.18313e-43
3.07838e-42
7.30858e-41
1.59874e-39
3.23239e-38
6.03342e-37
1.03045e-35
1.58058e-34
2.12671e-33
2.45989e-32
2.41985e-31
2.02349e-30
1.46439e-29
8.10618e-65
5.24513e-62
1.08219e-59
1.30145e-57
1.0934e-55
7.02371e-54
3.65031e-52
1.59142e-50
5.97123e-49
1.96681e-47
5.77119e-46
1.52646e-44
3.67925e-43
8.15655e-42
1.67509e-40
3.20766e-39
5.75509e-38
9.67845e-37
1.51622e-35
2.17373e-34
2.76748e-33
3.03291e-32
2.82464e-31
4.36165e-67
2.26656e-64
4.52673e-62
5.51079e-60
4.78e-58
3.20104e-56
1.74018e-54
7.95181e-53
3.13169e-51
1.08298e-49
3.33719e-48
9.27052e-47
2.34497e-45
5.4502e-44
1.17196e-42
2.34599e-41
4.39364e-40
7.72313e-39
1.27498e-37
1.97029e-36
2.82398e-35
3.68916e-34
4.30877e-33
1.03309e-69
5.9167e-67
1.30116e-64
1.7362e-62
1.64162e-60
1.19229e-58
6.98725e-57
3.41946e-55
1.43339e-53
5.24866e-52
1.70545e-50
4.98165e-49
1.32242e-47
3.22318e-46
7.29364e-45
1.5459e-43
3.08916e-42
5.84877e-41
1.05231e-39
1.79865e-38
2.90368e-37
4.3706e-36
6.0032e-35
0.0012052
0.0127901
0.0484732
0.188091
0.00150344
0.00372749
0.0156307
0.0443806
0.0091086
0.00968806
0.0128853
0.0148773
0.0100855
0.0117266
0.0137694
0.0165897
0.0118158
0.0124265
0.0142205
0.0167582
0.146609
0.150099
0.166495
0.187252
0.69143
0.697288
0.721889
0.746117
0.962666
0.951472
0.925925
0.893001
0.402641
0.341222
0.23432
0.142928
0.000218855
0.000155018
5.58962e-05
1.00306e-05
1.34756e-07
1.22485e-07
1.02423e-07
9.59603e-08
1.1919e-07
1.35836e-07
6.32215e-08
8.96028e-08
4.61453e-08
2.44628e-08
2.08761e-08
2.91133e-08
1.58572e-08
1.27555e-08
1.48524e-08
3.01321e-08
4.66065e-09
6.39071e-09
9.73796e-09
1.7394e-08
3.3033e-09
3.19674e-09
3.98487e-09
5.06252e-09
1.83384e-09
1.5312e-09
1.56533e-09
1.67585e-09
7.57441e-10
7.16982e-10
5.72774e-10
5.60513e-10
3.16165e-10
2.21799e-10
1.97558e-10
1.6724e-10
1.61264e-10
1.11442e-10
8.69032e-11
6.56701e-11
9.84954e-11
7.1218e-11
4.89379e-11
3.4509e-11
4.30814e-11
3.20128e-11
2.22689e-11
1.52652e-11
1.469e-11
1.08632e-11
7.71098e-12
5.34422e-12
4.09965e-12
3.13301e-12
2.29049e-12
1.61836e-12
9.54385e-13
7.62679e-13
5.8067e-13
4.22992e-13
1.85736e-13
1.55819e-13
1.23719e-13
9.32405e-14
3.02063e-14
2.67598e-14
2.23335e-14
1.75252e-14
4.14122e-15
3.88443e-15
3.42779e-15
2.81982e-15
4.81617e-16
4.80969e-16
4.52393e-16
3.93225e-16
4.78477e-17
5.12813e-17
5.18337e-17
4.80129e-17
4.0855e-18
4.74959e-18
5.20677e-18
5.18711e-18
3.02006e-19
3.8534e-19
4.62502e-19
5.00277e-19
1.94771e-20
2.76046e-20
3.66332e-20
4.34447e-20
1.10341e-21
1.75716e-21
2.60457e-21
3.42134e-21
5.51944e-23
9.98932e-23
1.67172e-22
2.4595e-22
2.44298e-24
5.08123e-24
9.71486e-24
1.62036e-23
9.54253e-26
2.30984e-25
5.11522e-25
9.80843e-25
3.2583e-27
9.31205e-27
2.42927e-26
5.4488e-26
9.52403e-29
3.27539e-28
1.02933e-27
2.76575e-27
2.30938e-30
9.70614e-30
3.77701e-29
1.25511e-28
4.49105e-32
2.33208e-31
1.16215e-30
5.10109e-30
7.38277e-34
4.30464e-33
2.58347e-32
1.46792e-31
0.458115
0.657198
0.76097
0.806096
0.842295
0.876765
0.885679
0.859462
0.712201
0.459138
0.462409
0.646973
0.83295
0.893894
0.890823
0.772738
0.924372
0.995524
0.983875
0.103466
0.270661
0.442291
0.588457
0.672981
0.749363
0.799622
0.81591
0.812519
0.793146
0.791542
0.814204
0.849156
0.883001
0.772095
0.767528
0.889608
0.996388
0.997462
0.0251367
0.0710022
0.167587
0.281684
0.391443
0.511086
0.59796
0.641498
0.660119
0.675966
0.714751
0.76788
0.827564
0.841868
0.787147
0.804766
0.967527
0.998867
0.998894
0.0220278
0.0347173
0.0588569
0.0911529
0.132731
0.208677
0.284061
0.348026
0.416192
0.510983
0.641666
0.732986
0.821283
0.806947
0.91686
0.952907
0.993631
0.996588
0.986733
0.0266777
0.063738
0.0963831
0.100481
0.100379
0.111996
0.145615
0.204931
0.313628
0.468354
0.644432
0.69828
0.751422
0.899316
0.99395
0.996692
0.984796
0.951039
0.943611
0.260011
0.396519
0.46377
0.449264
0.368875
0.246308
0.211726
0.240056
0.390716
0.523218
0.512477
0.259395
0.471207
0.957558
0.998246
0.997998
0.975667
0.957053
0.968003
0.777707
0.776938
0.775092
0.752979
0.663708
0.521302
0.474196
0.506372
0.555265
0.53165
0.186028
0.0146785
0.170316
0.878067
0.998294
0.998195
0.990606
0.991713
0.996078
0.778997
0.488961
0.403729
0.547792
0.656838
0.657702
0.657633
0.657702
0.555711
0.158765
0.00879333
0.000120362
0.021097
0.342447
0.890269
0.998921
0.999425
0.99969
0.999943
0.0447193
0.00449655
0.00382219
0.038775
0.219186
0.466956
0.527391
0.380549
0.0790457
0.00231452
7.08494e-06
2.42445e-06
0.000610613
0.0220064
0.271978
0.889005
0.999756
0.999988
0.999996
2.27762e-06
2.78562e-07
3.66588e-07
4.04968e-06
0.000753417
0.0156158
0.0196042
0.00642128
0.00015421
3.23722e-06
3.02134e-06
2.40317e-06
4.0209e-06
0.000180658
0.0151441
0.331803
0.962721
0.99999
0.999996
1.30131e-07
1.08668e-07
1.24509e-07
1.80808e-07
4.59495e-07
1.05767e-06
2.42163e-06
4.52688e-06
3.27222e-06
2.26038e-06
2.44873e-06
2.56478e-06
1.67925e-06
1.67556e-06
0.000182043
0.0345018
0.545258
0.999583
0.999986
7.44728e-08
7.96819e-08
2.86693e-07
7.53881e-07
1.38135e-06
1.63691e-06
1.78258e-06
1.69522e-06
1.40633e-06
1.47665e-06
1.78905e-06
2.28243e-06
1.67585e-06
1.67552e-06
1.98211e-06
0.0005957
0.0937528
0.918131
0.999863
5.60909e-08
1.64376e-07
4.70722e-07
7.45902e-07
8.11088e-07
6.89292e-07
6.79569e-07
7.38392e-07
7.9058e-07
9.76166e-07
1.35584e-06
1.85891e-06
1.85829e-06
1.68466e-06
1.89901e-06
2.71323e-06
0.00125814
0.527719
0.995194
6.34428e-08
1.53274e-07
3.11586e-07
3.77478e-07
2.87219e-07
2.33515e-07
2.74355e-07
3.31443e-07
4.17154e-07
6.19566e-07
1.00148e-06
1.52227e-06
1.89821e-06
1.69223e-06
1.94339e-06
2.53884e-06
3.53757e-06
0.148547
0.934176
2.52137e-08
3.51844e-08
6.57066e-08
8.5178e-08
8.25189e-08
7.81125e-08
9.77044e-08
1.33809e-07
2.05346e-07
3.6738e-07
6.88629e-07
1.1846e-06
1.6892e-06
1.68938e-06
2.0897e-06
2.58391e-06
3.24725e-06
0.0654257
0.871523
6.1983e-09
1.07741e-08
1.58787e-08
2.14284e-08
2.51673e-08
2.93758e-08
3.79446e-08
5.60118e-08
9.80628e-08
2.00965e-07
4.30574e-07
8.46369e-07
1.37203e-06
1.65477e-06
2.20262e-06
2.61606e-06
3.16693e-06
0.0847481
0.881343
2.0045e-09
2.76754e-09
4.59289e-09
6.34481e-09
8.40994e-09
1.0281e-08
1.39864e-08
2.31256e-08
4.66742e-08
1.06862e-07
2.4875e-07
5.40416e-07
1.00558e-06
1.48049e-06
2.0748e-06
2.55613e-06
3.08665e-06
0.254309
0.916741
5.7149e-10
8.34216e-10
1.26146e-09
1.8335e-09
2.53458e-09
3.48155e-09
5.32301e-09
1.00975e-08
2.33561e-08
5.80726e-08
1.41098e-07
3.22076e-07
6.56871e-07
1.1406e-06
1.73002e-06
2.38086e-06
3.0031e-06
0.606805
0.964373
1.73802e-10
1.99843e-10
3.00424e-10
4.76822e-10
7.04252e-10
1.09518e-09
2.00759e-09
4.55706e-09
1.20484e-08
3.25185e-08
8.23691e-08
1.93048e-07
4.07766e-07
7.77023e-07
1.37327e-06
2.14539e-06
2.89856e-06
0.607156
0.975615
5.38828e-11
4.42953e-11
6.83208e-11
1.24909e-10
1.90767e-10
3.40973e-10
7.70277e-10
2.10562e-09
6.31102e-09
1.84273e-08
4.94444e-08
1.21302e-07
2.65094e-07
5.18392e-07
1.12014e-06
1.95547e-06
2.80098e-06
0.377146
0.959754
2.48832e-11
1.1119e-11
1.50613e-11
2.46987e-11
4.65104e-11
1.06549e-10
2.94452e-10
9.51881e-10
3.15401e-09
9.91345e-09
2.86987e-08
7.69372e-08
1.86493e-07
3.78137e-07
1.00502e-06
1.92791e-06
2.7475e-06
0.0969979
0.911487
1.04092e-11
3.14616e-12
3.36827e-12
6.00045e-12
1.21653e-11
3.14394e-11
1.07676e-10
4.04915e-10
1.46308e-09
4.92531e-09
1.51924e-08
4.27361e-08
1.19087e-07
2.50777e-07
8.89267e-07
2.09413e-06
2.7893e-06
0.0119663
0.866813
3.65075e-12
9.47586e-13
7.22668e-13
1.27429e-12
2.73629e-12
7.94641e-12
3.16008e-11
1.40269e-10
5.68593e-10
2.0953e-09
6.96791e-09
2.09579e-08
5.72052e-08
1.24443e-07
7.24276e-07
2.19172e-06
2.85098e-06
0.0010564
0.818868
1.11788e-12
2.81867e-13
1.52589e-13
2.51385e-13
5.60558e-13
1.72243e-12
7.23322e-12
3.43349e-11
1.67956e-10
7.57581e-10
2.89767e-09
9.62352e-09
2.95078e-08
5.60443e-08
4.43744e-07
2.0386e-06
2.8646e-06
9.97132e-05
0.761004
2.97536e-13
7.796e-14
3.14044e-14
4.23634e-14
8.71902e-14
2.60397e-13
1.21484e-12
6.72351e-12
3.60431e-11
1.9935e-10
1.05647e-09
4.37475e-09
1.67891e-08
3.50622e-08
3.42104e-07
1.68431e-06
2.90154e-06
4.21888e-05
0.740753
6.73477e-14
1.95559e-14
6.64389e-15
7.60349e-15
1.79451e-14
6.97165e-14
4.0162e-13
2.61237e-12
1.68078e-11
1.00272e-10
5.67507e-10
2.83748e-09
1.21565e-08
4.98112e-08
4.45312e-07
5.63172e-06
2.90823e-06
3.59049e-05
0.70316
1.30878e-14
4.3427e-15
1.39302e-15
1.47075e-15
4.99433e-15
3.03933e-14
2.301e-13
1.80134e-12
1.37325e-11
9.70426e-11
6.17054e-10
3.38527e-09
1.45305e-08
7.09591e-08
6.49372e-07
3.47582e-05
4.40456e-06
3.35921e-05
0.489111
2.18975e-15
8.48037e-16
2.87587e-16
3.88752e-16
2.38192e-15
2.08071e-14
1.89859e-13
1.69527e-12
1.44178e-11
1.12934e-10
7.92791e-10
4.91732e-09
2.4373e-08
1.46451e-07
8.26993e-07
3.97805e-05
3.53111e-05
4.45952e-05
0.147468
3.19754e-16
1.45819e-16
5.66138e-17
1.1508e-16
1.02919e-15
1.0993e-14
1.16593e-13
1.18601e-12
1.13182e-11
9.85345e-11
7.55745e-10
4.91831e-09
2.54666e-08
1.70085e-07
7.71946e-07
3.57433e-05
0.000374449
0.000110186
0.0112236
4.11759e-17
2.21569e-17
9.46899e-18
2.07293e-17
2.36776e-16
3.18284e-15
4.16851e-14
5.14927e-13
5.90848e-12
6.15983e-11
5.62118e-10
4.28677e-09
2.47463e-08
1.45249e-07
6.30168e-07
2.5477e-05
0.000821897
0.00634307
0.0209051
4.72806e-18
3.0092e-18
1.48236e-18
4.21789e-18
6.43376e-17
1.08305e-15
1.72362e-14
2.5306e-13
3.38529e-12
4.04598e-11
4.18655e-10
3.4422e-09
1.95244e-08
1.04841e-07
5.38816e-07
3.40631e-05
0.00164412
0.0554586
0.291565
4.88857e-19
3.70383e-19
2.55206e-19
1.65666e-18
3.1974e-17
6.10285e-16
1.074e-14
1.70732e-13
2.38021e-12
2.52262e-11
3.3422e-10
2.96774e-09
1.75894e-08
8.64543e-08
5.30021e-07
9.16243e-05
0.00396077
0.0981106
0.832386
4.59283e-20
4.17679e-20
4.7102e-20
5.93348e-19
1.3544e-17
2.92183e-16
5.71382e-15
9.83574e-14
1.40789e-12
1.42262e-11
2.21772e-10
2.13882e-09
1.45193e-08
5.6231e-08
3.27643e-07
0.000161458
0.0129168
0.172543
0.982331
3.95891e-21
4.53815e-21
1.34071e-20
2.90174e-19
7.35732e-18
1.72796e-16
3.68629e-15
7.00207e-14
1.1486e-12
1.55666e-11
1.67737e-10
1.46481e-09
1.06717e-08
3.28624e-08
1.25555e-07
7.06536e-05
0.0184015
0.410616
0.985829
3.15761e-22
4.91051e-22
3.53429e-21
9.97658e-20
2.84884e-18
7.45167e-17
1.7608e-15
3.70002e-14
6.78413e-13
1.05614e-11
1.35391e-10
1.37557e-09
9.60705e-09
3.87701e-08
1.3739e-07
2.48746e-06
0.00687058
0.49295
0.985829
2.33653e-23
4.92284e-23
6.09909e-22
2.1167e-20
7.13158e-19
2.18989e-17
6.04952e-16
1.47848e-14
3.12576e-13
5.58308e-12
8.33569e-11
1.04078e-09
8.97397e-09
4.24146e-08
1.15765e-07
2.41138e-07
0.00057984
0.383827
0.985829
1.6128e-24
4.71418e-24
9.26228e-23
3.95456e-21
1.60004e-19
5.86732e-18
1.92471e-16
5.56851e-15
1.39176e-13
2.94278e-12
5.14622e-11
7.29797e-10
7.93737e-09
3.63154e-08
9.8602e-08
2.75162e-07
2.06591e-05
0.151104
0.978901
1.04026e-25
4.25843e-25
1.21753e-23
6.302e-22
3.05208e-20
1.33634e-18
5.22663e-17
1.80088e-15
5.37258e-14
1.35963e-12
2.85355e-11
4.74274e-10
5.52306e-09
1.37923e-08
1.6382e-07
3.36197e-07
1.29928e-06
0.0250418
0.897558
6.32997e-27
4.07165e-26
1.74531e-24
1.09963e-22
6.40262e-21
3.36313e-19
1.56799e-17
6.38897e-16
2.2341e-14
6.54714e-13
1.5583e-11
2.85641e-10
3.32085e-09
1.93072e-08
4.92181e-07
1.849e-06
1.56717e-06
0.00202008
0.740381
3.53164e-28
3.28883e-27
1.91004e-25
1.48317e-23
1.06344e-21
6.91571e-20
4.03521e-18
2.07267e-16
9.17008e-15
3.39469e-13
1.01412e-11
2.35059e-10
3.87788e-09
4.21361e-08
1.02373e-06
2.23605e-06
1.93948e-06
7.20204e-05
0.578846
2.33429e-29
8.89011e-28
8.76348e-26
8.10968e-24
6.60302e-22
4.78226e-20
3.12365e-18
1.85894e-16
1.00294e-14
4.73897e-13
1.82377e-11
5.10762e-10
8.6678e-09
8.51312e-08
5.02134e-07
1.73115e-06
1.24206e-06
2.68164e-06
0.364395
6.71779e-31
6.94134e-30
4.54783e-28
5.58415e-26
6.53195e-24
7.35352e-22
7.96758e-20
7.98661e-18
6.91929e-16
4.74223e-14
2.28637e-12
6.7246e-11
1.05933e-09
8.21502e-09
5.13026e-08
2.60668e-07
1.05757e-06
1.14285e-06
0.132622
)
;

boundaryField
{
    leftWall
    {
        type            zeroGradient;
    }
    rightWall
    {
        type            zeroGradient;
    }
    lowerWall
    {
        type            zeroGradient;
    }
    atmosphere
    {
        type            inletOutlet;
        inletValue      uniform 0;
        value           nonuniform List<scalar> 
46
(
0
0
0
0
0
0
0
0
0
0
0
0
0
0
0
0
0
0
0
0
0
0
0
0
0
0
0
0
0
0
0
0
0
0
0
0
4.74223e-14
2.28637e-12
0
0
0
0
0
0
1.14285e-06
0.132622
)
;
    }
    defaultFaces
    {
        type            empty;
    }
}


// ************************************************************************* //
