/*--------------------------------*- C++ -*----------------------------------*\
| =========                 |                                                 |
| \\      /  F ield         | OpenFOAM: The Open Source CFD Toolbox           |
|  \\    /   O peration     | Version:  2.4.0                                 |
|   \\  /    A nd           | Web:      www.OpenFOAM.org                      |
|    \\/     M anipulation  |                                                 |
\*---------------------------------------------------------------------------*/
FoamFile
{
    version     2.0;
    format      ascii;
    class       volScalarField;
    location    "0.45";
    object      alpha.mercury;
}
// * * * * * * * * * * * * * * * * * * * * * * * * * * * * * * * * * * * * * //

dimensions      [0 0 0 0 0 0 0];

internalField   nonuniform List<scalar> 
2268
(
1
1
1
1
1
1
1
1
1
1
1
1
1
1
1
1
1
1
1
1
1
0.999999
0.999982
1
1
1
1
1
1
1
1
1
1
1
1
1
1
1
1
1
1
1
1
1
0.999999
0.999979
1
1
1
1
1
1
1
1
1
1
1
1
1
1
1
1
1
1
1
1
1
0.999999
0.99998
0.999984
0.999981
0.999985
0.999961
0.999978
0.999958
0.99991
0.999917
0.999874
0.999791
0.999586
0.999532
0.999421
0.999566
0.999773
0.999933
0.999982
0.999994
0.999997
0.999999
1
0.999999
0.999979
0.992798
0.992147
0.992586
0.988502
0.990507
0.986459
0.979841
0.978369
0.971316
0.961704
0.945685
0.937162
0.925186
0.930013
0.942829
0.976703
0.995452
0.999522
0.999955
0.999995
0.999999
0.999998
0.999977
0.749345
0.739644
0.739702
0.695242
0.702362
0.657995
0.597084
0.565507
0.508783
0.446088
0.369816
0.316224
0.270311
0.24836
0.233992
0.283937
0.459962
0.792051
0.976734
0.999184
0.999986
0.999997
0.999972
0.0805932
0.0754036
0.0726691
0.0549139
0.0524482
0.0375925
0.0229929
0.0157307
0.00887119
0.00420595
0.00167079
0.000637532
0.000255289
0.000116369
5.5233e-05
0.000449235
0.0163639
0.167602
0.726658
0.980127
0.999635
0.999992
0.999968
0.000301915
0.000280319
0.000250056
0.000202148
0.000167218
0.000120544
8.66388e-05
6.2486e-05
4.35711e-05
3.09511e-05
2.24297e-05
1.61833e-05
1.2209e-05
1.06586e-05
1.06828e-05
1.09401e-05
3.6721e-05
0.00531947
0.23366
0.87423
0.996243
0.999947
0.999964
0.000635917
0.000652294
0.000665249
0.00133534
0.00494793
0.0130837
0.0281773
0.0484767
0.0707825
0.096288
0.135111
0.196798
0.244196
0.245458
0.246742
0.248065
0.249352
0.250642
0.251875
0.00063011
0.000188146
6.37155e-05
5.17002e-05
1.08675e-05
8.01601e-06
8.06184e-06
8.85342e-06
1.30059e-05
3.06072e-05
0.000165154
0.00480268
0.0412964
0.114912
0.15575
0.193604
0.247002
0.251913
0.253112
0.000347254
4.00181e-05
1.63499e-05
8.9363e-06
8.2452e-06
7.97238e-06
9.87104e-06
1.135e-05
1.04418e-05
1.05925e-05
5.13128e-05
0.00204743
0.0269018
0.0549184
0.056813
0.0496098
0.0455594
0.17029
0.254485
0.000175689
2.45187e-05
1.5434e-05
7.05973e-06
2.99572e-06
1.72263e-06
1.14791e-06
7.7119e-07
4.8999e-07
1.29889e-06
4.75597e-05
0.00147988
0.0282313
0.0545362
0.0543445
0.0422093
0.0198929
0.0375149
0.255782
0.000440834
0.000297931
8.22232e-05
1.84783e-05
9.10021e-05
7.54146e-05
1.35833e-05
3.54421e-07
2.52119e-07
4.92899e-07
0.000206389
0.0020264
0.0240499
0.0626785
0.0565508
0.0397724
0.0178251
0.00522813
0.203578
0.00523397
0.00453191
0.00220492
0.000959052
0.00242008
0.00310116
0.00179311
0.000348631
8.8009e-06
2.01279e-06
0.000393757
0.0186992
0.0660929
0.0713896
0.0568071
0.0338078
0.0138092
0.00176406
0.145697
0.029721
0.0281202
0.018364
0.0125246
0.0145529
0.0185404
0.0193098
0.0143073
0.00305762
8.16768e-05
0.000554893
0.0581547
0.104181
0.0872764
0.0523947
0.0256344
0.00922882
0.00104782
0.0920128
0.102191
0.0981573
0.0748351
0.0615025
0.0540839
0.0497225
0.0538255
0.0571993
0.0417529
0.0112844
0.0146197
0.0952108
0.103891
0.0672361
0.0444921
0.01782
0.00554624
0.000912824
0.0463003
4.67575e-05
4.47395e-05
4.15039e-05
3.8024e-05
3.31895e-05
2.7652e-05
2.4023e-05
1.97243e-05
1.64375e-05
1.43829e-05
1.32825e-05
1.2112e-05
1.1694e-05
1.0611e-05
1.17822e-05
1.3316e-05
1.327e-05
0.000193724
0.0237024
0.352581
0.893861
0.991675
0.999579
1.89321e-06
1.8466e-06
1.79395e-06
1.73474e-06
1.63879e-06
1.48819e-06
1.45351e-06
1.35177e-06
1.26523e-06
1.24393e-06
1.26461e-06
1.29914e-06
1.39534e-06
1.45622e-06
1.56559e-06
2.04807e-06
4.4951e-06
5.67004e-06
0.000326742
0.0282096
0.360282
0.791823
0.957524
3.59481e-07
3.47957e-07
3.39948e-07
3.29199e-07
3.14349e-07
2.70204e-07
2.59974e-07
2.05024e-07
1.63114e-07
1.36021e-07
1.25292e-07
1.18602e-07
1.28382e-07
1.34844e-07
1.53545e-07
1.98204e-07
6.88256e-07
7.34759e-07
3.06642e-06
0.000888978
0.0398284
0.202594
0.513899
1.65848e-08
1.59707e-08
1.58397e-08
1.55744e-08
1.52062e-08
1.34584e-08
1.22722e-08
9.01893e-09
6.4886e-09
4.67152e-09
3.8756e-09
3.76909e-09
4.38494e-09
5.06203e-09
6.54707e-09
9.76281e-09
2.79996e-08
1.08927e-07
1.9615e-07
1.72645e-05
0.00113308
0.0124188
0.0572248
7.38031e-11
7.03616e-11
6.88243e-11
6.81256e-11
6.908e-11
6.59241e-11
6.29915e-11
4.30948e-11
2.76093e-11
1.96911e-11
1.75822e-11
2.29251e-11
2.84799e-11
3.4202e-11
4.31262e-11
6.74427e-11
2.57962e-10
4.44708e-09
7.09222e-09
1.34254e-06
0.000137075
0.00184647
0.00299771
2.93993e-14
1.11826e-14
6.61313e-15
6.00013e-15
6.27932e-15
7.0296e-15
6.79863e-15
4.04161e-15
2.52084e-15
2.33756e-15
3.45257e-15
6.29621e-15
1.27933e-14
2.88502e-14
6.60448e-14
1.37974e-13
5.59164e-13
2.27997e-11
4.31857e-11
7.021e-09
2.24461e-06
2.73671e-05
9.7319e-05
7.02181e-28
1.78322e-26
2.52997e-25
2.48411e-24
2.24682e-23
1.77051e-22
8.9734e-19
9.36379e-17
6.22976e-16
2.1553e-15
6.21129e-15
1.82528e-14
5.36566e-14
1.5309e-13
4.08719e-13
1.00991e-12
2.33359e-12
5.51134e-12
2.10092e-11
1.02507e-10
2.65045e-08
7.91024e-07
4.31381e-06
6.2765e-27
1.57111e-25
2.2208e-24
2.3757e-23
2.31212e-22
1.72751e-21
4.31917e-20
1.0045e-16
1.19951e-15
3.19786e-15
8.11606e-15
2.36072e-14
7.2908e-14
2.1829e-13
6.23184e-13
1.65663e-12
4.02399e-12
8.53053e-12
1.58774e-11
3.1731e-10
1.73407e-08
2.02787e-07
8.46291e-07
5.55723e-26
1.2493e-24
1.60275e-23
1.54861e-22
1.32209e-21
1.3121e-20
2.67584e-19
3.54083e-17
1.6904e-16
3.39488e-17
1.02843e-17
3.98972e-17
3.71273e-16
2.31523e-15
7.90183e-15
2.07454e-14
5.4285e-14
1.47799e-13
3.46821e-13
5.4595e-13
1.29578e-10
8.80408e-09
5.74107e-08
1.48379e-26
3.68087e-25
5.27737e-24
5.92625e-23
5.6576e-22
4.14374e-21
3.83329e-20
1.95331e-18
7.30617e-18
5.61605e-19
1.84049e-20
1.3964e-21
7.40586e-22
2.98602e-21
1.3575e-20
5.23181e-20
1.55347e-19
4.70405e-19
6.90568e-19
6.65116e-16
4.60888e-15
1.89081e-13
4.06497e-12
1.62233e-31
1.7573e-30
8.19729e-29
6.24277e-27
2.48804e-25
4.87849e-24
4.81288e-23
3.79471e-22
5.12205e-19
1.31571e-19
1.83424e-20
1.32353e-21
1.0792e-21
8.37333e-21
5.09133e-20
2.42406e-19
8.02711e-19
2.43954e-18
5.60211e-18
1.1889e-16
1.66587e-16
1.06768e-15
4.94906e-15
1.56686e-32
6.88573e-31
9.29474e-29
8.55958e-27
4.05805e-25
9.99534e-24
1.38573e-22
1.41118e-21
1.04303e-20
1.75165e-20
2.02676e-21
4.1619e-22
2.56351e-21
2.38047e-20
1.57874e-19
8.08784e-19
3.14945e-18
9.93578e-18
2.40969e-17
6.12315e-17
3.19556e-16
2.78833e-15
1.31201e-14
6.80582e-35
5.03867e-34
5.33686e-33
3.67622e-31
4.20455e-29
9.57965e-28
9.02636e-27
5.01711e-26
1.66086e-25
9.0133e-25
2.25783e-23
4.92808e-22
6.67242e-21
6.6173e-20
4.65348e-19
2.5198e-18
1.07715e-17
3.85898e-17
1.11225e-16
2.85772e-16
9.07847e-16
4.73213e-15
2.04204e-14
1.14033e-37
1.86161e-36
2.01454e-34
3.05933e-32
1.36936e-29
7.48284e-28
1.06759e-26
8.32928e-26
4.55384e-25
3.11491e-24
6.08011e-23
1.24786e-21
1.63555e-20
1.6064e-19
1.11677e-18
6.09105e-18
2.65136e-17
9.58081e-17
2.95719e-16
8.52571e-16
2.70266e-15
9.55658e-15
3.0263e-14
3.358e-39
2.86092e-36
6.75031e-34
1.02461e-31
1.54054e-29
6.77175e-28
1.12328e-26
1.14293e-25
9.33685e-25
7.50543e-24
1.46451e-22
2.95466e-21
3.23055e-20
2.46708e-19
1.50064e-18
7.44845e-18
3.05628e-17
1.05343e-16
3.13716e-16
8.27136e-16
2.12745e-15
5.92723e-15
1.79072e-14
1.11829e-38
1.09116e-35
2.47871e-33
3.58535e-31
1.92883e-29
5.18358e-28
8.70023e-27
1.08145e-25
1.21961e-24
1.43727e-23
2.28603e-22
2.66728e-21
2.04689e-20
1.12971e-19
4.91833e-19
1.78693e-18
5.73968e-18
1.69346e-17
4.83246e-17
1.36641e-16
3.95341e-16
1.17678e-15
3.42691e-15
3.68298e-38
4.04154e-35
6.36464e-33
3.84621e-31
1.25274e-29
2.65668e-28
4.16278e-27
5.49868e-26
6.79452e-25
7.94859e-24
9.22269e-23
7.81658e-22
4.94081e-21
2.4253e-20
9.30516e-20
2.96034e-19
8.5153e-19
2.34128e-18
6.39377e-18
1.74112e-17
4.63076e-17
1.21547e-16
3.15557e-16
1.10278e-37
3.07631e-35
2.48164e-33
1.04262e-31
2.84368e-30
5.58292e-29
8.8082e-28
1.20326e-26
1.46658e-25
1.48581e-24
1.2967e-23
8.75194e-23
4.69366e-22
1.99152e-21
6.58393e-21
1.86975e-20
5.00963e-20
1.31605e-19
3.42699e-19
9.11253e-19
2.42598e-18
6.21702e-18
1.50008e-17
2.51059e-38
3.2538e-36
2.02398e-34
8.22299e-33
2.38825e-31
5.04365e-30
8.31364e-29
1.10289e-27
1.18016e-26
1.01846e-25
7.34491e-25
4.55562e-24
2.51544e-23
1.16821e-22
4.73599e-22
1.76256e-21
5.86262e-21
1.7793e-20
5.04425e-20
1.34886e-19
3.32229e-19
7.25184e-19
1.43477e-18
1.39044e-39
1.96425e-37
1.42831e-35
6.33084e-34
1.83477e-32
3.8235e-31
5.92894e-30
7.14561e-29
6.87878e-28
5.53923e-27
3.99733e-26
2.67112e-25
1.60813e-24
8.60631e-24
4.14073e-23
1.74056e-22
6.31578e-22
2.05792e-21
6.16408e-21
1.68503e-20
4.15475e-20
9.08543e-20
1.81206e-19
6.90376e-41
1.17305e-38
7.9494e-37
3.06179e-35
8.17694e-34
1.65334e-32
2.64824e-31
3.47808e-30
3.81925e-29
3.58698e-28
2.95143e-27
2.14594e-26
1.38714e-25
7.93691e-25
4.01604e-24
1.78683e-23
7.17474e-23
2.60796e-22
8.48341e-22
2.44009e-21
6.1579e-21
1.37037e-20
2.81294e-20
4.55539e-42
5.41332e-40
3.16452e-38
1.22717e-36
3.48825e-35
7.69007e-34
1.36381e-32
1.9834e-31
2.42283e-30
2.54679e-29
2.26489e-28
1.74166e-27
1.17271e-26
6.88787e-26
3.53153e-25
1.61206e-24
6.6857e-24
2.50889e-23
8.37619e-23
2.50715e-22
6.76356e-22
1.66542e-21
3.8198e-21
7.27594e-44
1.12914e-41
8.00527e-40
3.50694e-38
1.0683e-36
2.44497e-35
4.45278e-34
6.69449e-33
8.57535e-32
9.49035e-31
9.20745e-30
7.79473e-29
5.70612e-28
3.71416e-27
2.14492e-26
1.10438e-25
5.04208e-25
2.02182e-24
7.27175e-24
2.39067e-23
7.11623e-23
1.95677e-22
5.04167e-22
4.34445e-45
5.58021e-43
3.44888e-41
1.38196e-39
4.06312e-38
9.36122e-37
1.75706e-35
2.76646e-34
3.75118e-33
4.46697e-32
4.62739e-31
4.04649e-30
3.06066e-29
2.04657e-28
1.21475e-27
6.44132e-27
3.07528e-26
1.34743e-25
5.43701e-25
1.99099e-24
6.67108e-24
2.07638e-23
5.94961e-23
3.41318e-47
5.24592e-45
3.83349e-43
1.78896e-41
6.07038e-40
1.60639e-38
3.45841e-37
6.20662e-36
9.36379e-35
1.18326e-33
1.27289e-32
1.212e-31
1.0367e-30
7.80624e-30
5.23611e-29
3.18379e-28
1.76242e-27
8.79811e-27
3.90359e-26
1.56573e-25
5.84456e-25
2.01685e-24
6.26814e-24
6.82877e-49
1.08997e-46
8.32057e-45
4.07887e-43
1.4425e-41
3.91424e-40
8.48798e-39
1.52348e-37
2.32545e-36
3.0921e-35
3.65976e-34
3.89383e-33
3.68419e-32
3.11922e-31
2.34462e-30
1.53411e-29
8.96261e-29
4.77768e-28
2.3588e-27
1.08083e-26
4.53332e-26
1.71476e-25
5.8188e-25
5.64742e-51
9.27596e-49
7.33491e-47
3.7807e-45
1.44678e-43
4.41764e-42
1.11886e-40
2.3917e-39
4.36228e-38
6.84206e-37
9.21459e-36
1.06345e-34
1.06304e-33
9.41361e-33
7.53624e-32
5.62079e-31
3.86955e-30
2.42024e-29
1.36323e-28
6.8508e-28
3.10239e-27
1.28524e-26
4.81615e-26
5.27082e-53
9.69072e-51
8.57354e-49
4.91781e-47
2.05719e-45
6.67787e-44
1.75411e-42
3.84166e-41
7.15909e-40
1.15601e-38
1.65621e-37
2.15166e-36
2.5479e-35
2.72159e-34
2.61041e-33
2.21034e-32
1.64203e-31
1.09061e-30
6.5852e-30
3.66768e-29
1.87383e-28
8.61724e-28
3.54891e-27
2.51771e-55
5.10906e-53
5.0452e-51
3.26839e-49
1.56827e-47
5.94491e-46
1.84795e-44
4.82135e-43
1.07411e-41
2.06858e-40
3.45892e-39
5.01962e-38
6.36038e-37
7.12804e-36
7.13993e-35
6.49176e-34
5.43461e-33
4.16448e-32
2.896e-31
1.80682e-30
1.01075e-29
5.12686e-29
2.35398e-28
1.49938e-57
3.37743e-55
3.67266e-53
2.60738e-51
1.36102e-49
5.57251e-48
1.86267e-46
5.21944e-45
1.24867e-43
2.58657e-42
4.70495e-41
7.62481e-40
1.11149e-38
1.46011e-37
1.72802e-36
1.83598e-35
1.73851e-34
1.46814e-33
1.1152e-32
7.69597e-32
4.83026e-31
2.74021e-30
1.40865e-29
4.72332e-60
1.20898e-57
1.51131e-55
1.24327e-53
7.56317e-52
3.61912e-50
1.4136e-48
4.62017e-47
1.28714e-45
3.09996e-44
6.52029e-43
1.20608e-41
1.9717e-40
2.86391e-39
3.71795e-38
4.33734e-37
4.57371e-36
4.37096e-35
3.77593e-34
2.93794e-33
2.06078e-32
1.31055e-31
7.64871e-31
1.36662e-62
4.02042e-60
5.73392e-58
5.36961e-56
3.7078e-54
2.0117e-52
8.91453e-51
3.30957e-49
1.04795e-47
2.86599e-46
6.83336e-45
1.43471e-43
2.67886e-42
4.47074e-41
6.68037e-40
8.94901e-39
1.07523e-37
1.15941e-36
1.12485e-35
9.85001e-35
7.80286e-34
5.6266e-33
3.79767e-32
2.50784e-65
8.67852e-63
1.44967e-60
1.59085e-58
1.28812e-56
8.19574e-55
4.25472e-53
1.84573e-51
6.80866e-50
2.16584e-48
6.0071e-47
1.46316e-45
3.14657e-44
6.00775e-43
1.02355e-41
1.56126e-40
2.13743e-39
2.63083e-38
2.91269e-37
2.9031e-36
2.61594e-35
2.16467e-34
1.73963e-33
2.95806e-68
1.26307e-65
2.53609e-63
3.32356e-61
3.20143e-59
2.41905e-57
1.49098e-55
7.67588e-54
3.35576e-52
1.2608e-50
4.10854e-49
1.17096e-47
2.94067e-46
6.54326e-45
1.29518e-43
2.28767e-42
3.61451e-41
5.11722e-40
6.50204e-39
7.43382e-38
7.70531e-37
7.44742e-36
7.40293e-35
2.09571e-71
1.17435e-68
2.89763e-66
4.56163e-64
5.21264e-62
4.63751e-60
3.36627e-58
2.06491e-56
1.09127e-54
5.00886e-53
2.00063e-51
6.95513e-50
2.10866e-48
5.60253e-47
1.31206e-45
2.7242e-44
5.03544e-43
8.31203e-42
1.22824e-40
1.6311e-39
1.97163e-38
2.27636e-37
2.92199e-36
7.71598e-75
7.08701e-72
2.2399e-69
4.27392e-67
5.82366e-65
6.15207e-63
5.29872e-61
3.85416e-59
2.42021e-57
1.32896e-55
6.43026e-54
2.74806e-52
1.03568e-50
3.42862e-49
9.91798e-48
2.50873e-46
5.57411e-45
1.09477e-43
1.91357e-42
2.99913e-41
4.30336e-40
6.09624e-39
1.04933e-37
2.69924e-78
4.73764e-75
1.90767e-72
4.31773e-70
6.85302e-68
8.37072e-66
8.29202e-64
6.90089e-62
4.94712e-60
3.11011e-58
1.73297e-56
8.58842e-55
3.78469e-53
1.48396e-51
5.19855e-50
1.62365e-48
4.49727e-47
1.09572e-45
2.34345e-44
4.45033e-43
7.77477e-42
1.39893e-40
3.34736e-39
6.08814e-81
1.272e-77
5.51812e-75
1.3002e-72
2.11137e-70
2.61163e-68
2.59484e-66
2.14658e-64
1.52177e-62
9.48361e-61
5.31304e-59
2.72227e-57
1.2865e-55
5.60132e-54
2.23405e-52
8.08532e-51
2.6371e-49
7.76329e-48
2.0622e-46
4.93904e-45
1.09849e-43
2.62079e-42
8.94114e-41
1.6519e-82
2.4025e-79
8.85413e-77
1.82134e-74
2.59082e-72
2.81084e-70
2.464e-68
1.81078e-66
1.14676e-64
6.39532e-63
3.20236e-61
1.46825e-59
6.27734e-58
2.54046e-56
9.82082e-55
3.64444e-53
1.2941e-51
4.34097e-50
1.3559e-48
3.95248e-47
1.14191e-45
4.03049e-44
2.23957e-42
9.06084e-84
8.56256e-81
2.5986e-78
4.61917e-76
5.75985e-74
5.5141e-72
4.28976e-70
2.814e-68
1.5988e-66
8.03726e-65
3.63456e-63
1.49965e-61
5.72671e-60
2.0523e-58
6.99564e-57
2.30163e-55
7.42141e-54
2.37687e-52
7.64653e-51
2.50381e-49
8.86716e-48
4.24352e-46
3.40419e-44
1.26541e-85
9.19844e-83
2.57219e-80
4.39094e-78
5.34977e-76
5.04342e-74
3.87142e-72
2.50838e-70
1.4086e-68
6.99662e-67
3.1261e-65
1.2743e-63
4.80109e-62
1.69321e-60
5.65366e-59
1.80892e-57
5.62148e-56
1.72858e-54
5.47166e-53
2.00795e-51
1.13009e-49
1.15422e-47
1.66464e-45
2.70505e-88
2.0154e-85
5.77141e-83
1.00491e-80
1.24356e-78
1.18686e-76
9.18896e-75
5.98166e-73
3.36414e-71
1.67057e-69
7.45974e-68
3.04363e-66
1.15117e-64
4.09519e-63
1.39269e-61
4.59672e-60
1.49421e-58
4.8663e-57
1.63342e-55
6.07262e-54
3.03699e-52
2.64489e-50
3.74785e-48
0.997057
0.981351
0.879191
0.541734
0.996647
0.993385
0.969005
0.882434
0.731083
0.823944
0.851814
0.846757
0.103539
0.137311
0.172834
0.218834
0.00438431
0.00573881
0.00756931
0.0103613
0.000220169
0.000367337
0.000552868
0.000851399
8.37544e-06
1.17536e-05
1.4451e-05
1.86345e-05
1.1337e-06
1.3807e-06
1.67813e-06
2.04998e-06
9.16898e-08
1.04935e-07
1.24014e-07
1.17979e-07
8.25535e-12
8.90078e-12
7.02041e-12
4.52181e-12
1.09232e-14
2.60508e-14
5.93861e-14
1.33757e-13
3.7831e-14
9.52252e-14
2.16563e-13
4.74459e-13
7.02664e-14
1.74115e-13
4.03208e-13
8.99084e-13
9.58915e-14
2.05849e-13
4.31923e-13
8.69271e-13
5.28445e-14
9.87426e-14
1.78117e-13
3.08526e-13
9.25399e-15
1.61977e-14
2.77186e-14
4.59296e-14
7.94674e-16
1.33689e-15
2.18286e-15
3.45074e-15
3.35469e-17
5.06698e-17
7.3674e-17
1.04919e-16
2.63633e-18
3.50989e-18
4.52366e-18
5.74273e-18
3.36904e-19
4.53393e-19
5.93135e-19
7.64399e-19
5.45418e-20
7.58895e-20
1.02681e-19
1.36301e-19
8.19651e-21
1.21388e-20
1.72773e-20
2.38551e-20
1.18856e-21
1.84768e-21
2.73735e-21
3.90586e-21
1.52395e-22
2.48253e-22
3.8504e-22
5.75467e-22
1.73119e-23
2.96723e-23
4.86707e-23
7.77631e-23
1.76161e-24
3.21674e-24
5.64034e-24
9.83865e-24
1.59839e-25
3.13741e-25
6.01022e-25
1.20442e-24
1.3105e-26
2.81778e-26
6.12652e-26
1.52021e-25
9.76491e-28
2.36281e-27
6.20094e-27
2.07509e-26
6.69443e-29
1.90903e-28
6.56665e-28
3.0974e-27
4.29591e-30
1.54539e-29
7.45396e-29
4.83165e-28
2.64567e-31
1.28985e-30
8.79291e-30
7.38262e-29
1.59816e-32
1.10149e-31
1.02035e-30
1.06338e-29
9.45122e-34
9.12887e-33
1.09279e-31
1.38378e-30
5.32369e-35
6.97548e-34
1.04767e-32
1.60623e-31
2.71592e-36
4.66775e-35
8.6808e-34
1.61553e-32
1.21835e-37
2.70342e-36
6.22359e-35
1.4138e-33
4.52183e-39
1.29208e-37
3.70793e-36
1.03529e-34
1.67509e-40
6.39372e-39
2.3481e-37
8.19627e-36
3.62781e-42
1.90972e-40
9.50319e-39
4.40519e-37
2.61107e-43
1.89594e-41
1.30596e-39
8.4398e-38
6.62108e-46
5.75e-44
4.95844e-42
4.17846e-40
0.345162
0.283689
0.225484
0.190752
0.155673
0.121451
0.109158
0.112135
0.11944
0.116095
0.12822
0.125628
0.0917435
0.0489659
0.0345129
0.0104643
0.00309151
0.000401609
0.0155479
0.736287
0.543113
0.410319
0.331134
0.265528
0.21009
0.172933
0.154827
0.149992
0.149887
0.136624
0.0894683
0.0557029
0.0363247
0.0131421
0.00818114
0.0011274
0.000149303
0.00209279
0.782781
0.621227
0.44169
0.316134
0.260475
0.22378
0.194318
0.163852
0.145676
0.120345
0.0846886
0.0523396
0.0372347
0.0194708
0.00677151
0.00330244
0.000347051
0.000115169
0.00067045
0.214765
0.177535
0.14563
0.113864
0.115493
0.130436
0.138028
0.13355
0.113865
0.0860236
0.0556704
0.0417038
0.0220383
0.0137088
0.00190315
0.000213862
6.764e-05
7.39219e-05
0.000249313
0.0176024
0.0226735
0.0244131
0.0289878
0.0406424
0.0639138
0.0814757
0.0813287
0.0757709
0.0585263
0.0348622
0.0223237
0.00722417
0.00244498
0.000199182
4.60287e-05
5.75821e-05
4.46601e-05
3.88242e-05
0.00160018
0.00215623
0.00252152
0.00348996
0.00846079
0.0250485
0.0425771
0.0488453
0.0397568
0.0298401
0.0203399
0.00561526
0.000482822
6.82029e-05
2.16496e-05
4.12253e-05
5.28162e-05
4.05887e-05
2.16613e-05
2.81785e-05
4.63013e-05
0.000100318
0.000538021
0.00309266
0.0110599
0.0174418
0.0173526
0.0168668
0.0110502
0.00286924
0.000198443
5.7147e-06
1.62185e-06
1.19346e-05
2.98194e-05
4.05084e-05
3.77201e-05
1.54645e-05
2.19369e-06
3.06322e-06
9.52912e-06
0.00010213
0.00113466
0.00464706
0.00665617
0.00615621
0.00381499
0.00104433
7.55001e-05
1.30626e-06
1.8832e-08
1.60543e-07
3.52692e-06
1.24117e-05
2.06889e-05
2.36696e-05
6.82423e-06
9.08527e-08
6.03265e-08
1.65686e-07
4.89675e-06
8.35352e-05
0.00045252
0.000592776
0.000449083
0.000131866
6.14144e-06
1.08916e-07
8.06184e-09
7.9527e-09
9.0321e-09
2.74694e-07
3.08603e-06
8.18923e-06
9.74128e-06
3.68715e-06
9.45938e-12
3.34096e-10
2.35795e-09
2.71589e-08
6.04948e-07
4.03364e-06
5.36861e-06
2.76536e-06
4.4626e-07
1.53632e-07
7.79709e-08
1.46521e-08
8.0049e-09
7.95559e-09
1.03079e-08
4.07914e-07
3.13346e-06
5.8982e-06
2.82992e-06
3.87141e-12
2.90582e-11
8.95463e-11
5.58861e-10
3.66174e-09
1.70101e-08
2.45839e-08
2.40556e-08
2.9461e-08
7.46899e-08
8.96526e-08
6.85957e-08
8.14636e-09
8.38578e-09
7.83958e-09
1.79349e-08
4.00722e-07
1.36363e-06
1.50799e-06
2.07385e-12
6.29146e-12
8.53959e-11
6.95746e-10
2.44802e-09
6.00207e-09
1.30029e-08
2.43065e-08
4.09059e-08
4.97408e-08
5.86646e-08
6.53413e-08
8.00312e-09
8.07335e-09
7.84363e-09
7.83957e-09
9.6952e-09
9.6597e-08
5.02916e-07
2.16393e-12
8.20596e-12
3.10353e-11
1.1588e-10
3.59514e-10
2.59603e-09
9.3376e-09
1.36287e-08
1.69001e-08
2.24275e-08
3.38781e-08
5.02071e-08
2.73e-08
1.16304e-08
1.0628e-08
1.28151e-08
7.99482e-09
1.08255e-08
1.39405e-07
1.62434e-12
3.86208e-12
7.92273e-12
1.81444e-11
3.04219e-10
1.60116e-09
2.81639e-09
4.36812e-09
6.49327e-09
1.06159e-08
1.93462e-08
3.30127e-08
3.82756e-08
1.11609e-08
1.5095e-08
2.70793e-08
1.05011e-08
2.38947e-09
4.69018e-08
5.14475e-13
1.2003e-12
2.74078e-12
6.05656e-12
4.3441e-11
2.45343e-10
5.6395e-10
1.11488e-09
2.07031e-09
4.30297e-09
9.81437e-09
2.02446e-08
3.09503e-08
1.10961e-08
2.26887e-08
2.75459e-08
9.65019e-09
1.39428e-09
2.31301e-08
7.58973e-14
1.98453e-13
6.65567e-13
2.72344e-12
1.0892e-11
3.69497e-11
1.02788e-10
2.40869e-10
5.34571e-10
1.37375e-09
4.04227e-09
1.07096e-08
2.07133e-08
1.91226e-08
2.87722e-08
2.62025e-08
6.93437e-09
1.23772e-09
1.49888e-08
5.44427e-15
1.34898e-14
4.46638e-14
1.96168e-13
9.03345e-13
3.72512e-12
1.30071e-11
3.84194e-11
1.06732e-10
3.4046e-10
1.24537e-09
4.24991e-09
1.10514e-08
1.78174e-08
2.54599e-08
1.92919e-08
4.85368e-09
9.59523e-10
1.03972e-08
1.57657e-16
4.35847e-16
2.01144e-15
1.19352e-14
6.77008e-14
3.35243e-13
1.40587e-12
5.03312e-12
1.69507e-11
6.44322e-11
2.76118e-10
1.18059e-09
4.06242e-09
9.62296e-09
1.4416e-08
1.18229e-08
3.43073e-09
5.13845e-10
7.17001e-09
7.50262e-18
1.63187e-17
7.38133e-17
5.14067e-16
3.55019e-15
2.15482e-14
1.11722e-13
4.99629e-13
2.11938e-12
9.13494e-12
4.37976e-11
2.25984e-10
9.89023e-10
3.24232e-09
5.23841e-09
6.25151e-09
2.46602e-09
2.23504e-10
4.90419e-09
9.72762e-19
1.58676e-18
3.69484e-18
1.97299e-17
1.51258e-16
1.10173e-15
6.98625e-15
3.87324e-14
2.03071e-13
9.73779e-13
4.99062e-12
2.98624e-11
1.59513e-10
7.16527e-10
1.17037e-09
3.12186e-09
1.71244e-09
1.91996e-10
3.29159e-09
1.76328e-19
2.77899e-19
4.52378e-19
1.18357e-18
6.55954e-18
4.83488e-17
3.53407e-16
2.41499e-15
1.51131e-14
7.91084e-14
4.15289e-13
2.75238e-12
1.7171e-11
1.01721e-10
1.47552e-10
1.28161e-09
1.07324e-09
1.96504e-10
2.13255e-09
3.19512e-20
5.37974e-20
9.43999e-20
2.37637e-19
9.711e-19
5.04024e-18
2.87864e-17
1.76605e-16
1.07405e-15
5.65577e-15
2.81367e-14
1.87134e-13
1.27971e-12
8.44348e-12
9.88729e-12
1.19381e-10
6.12444e-10
1.30444e-10
1.29696e-09
5.43162e-21
1.01219e-20
2.21786e-20
7.57266e-20
3.61572e-19
1.85396e-18
9.24017e-18
4.39928e-17
1.99468e-16
8.58409e-16
3.45948e-15
1.59741e-14
8.98227e-14
4.73461e-13
8.75189e-13
7.96053e-12
3.39104e-10
6.85979e-11
6.72044e-10
8.50034e-22
1.87929e-21
5.67981e-21
2.65926e-20
1.50179e-19
8.46821e-19
4.4884e-18
2.20875e-17
1.00635e-16
4.28557e-16
1.71061e-15
6.38044e-15
2.4124e-14
7.8792e-14
2.83189e-13
2.83681e-12
1.73251e-10
4.46685e-11
2.50902e-10
1.2653e-22
3.61815e-22
1.5772e-21
9.53286e-21
6.15307e-20
3.81514e-19
2.2063e-18
1.18711e-17
5.96767e-17
2.8044e-16
1.23912e-15
4.97445e-15
1.8868e-14
6.03101e-14
2.07137e-13
9.73435e-13
8.37038e-11
2.66857e-11
5.54664e-11
1.86033e-23
7.55302e-23
4.63674e-22
3.3822e-21
2.43931e-20
1.65886e-19
1.05686e-18
6.34944e-18
3.62819e-17
1.93793e-16
9.64946e-16
4.29412e-15
1.7343e-14
6.04947e-14
2.06059e-13
5.3267e-13
3.23679e-11
1.08566e-11
1.26093e-11
2.89392e-24
1.74004e-23
1.39654e-22
1.1768e-21
9.45975e-21
7.16142e-20
5.13762e-19
3.52839e-18
2.32791e-17
1.4318e-16
8.08121e-16
4.06551e-15
1.75559e-14
6.76748e-14
2.1941e-13
5.10399e-13
8.27984e-12
6.12953e-12
9.74976e-12
4.98308e-25
4.24655e-24
4.14633e-23
3.97237e-22
3.60335e-21
3.10924e-20
2.57603e-19
2.05637e-18
1.56706e-17
1.10857e-16
7.09895e-16
4.05442e-15
1.91813e-14
7.97516e-14
2.46275e-13
5.80112e-13
3.13384e-12
3.95751e-12
8.85911e-12
9.42665e-26
1.04597e-24
1.19525e-23
1.308e-22
1.36508e-21
1.37132e-20
1.32824e-19
1.22982e-18
1.07234e-17
8.61607e-17
6.23222e-16
3.97847e-15
2.07792e-14
9.11725e-14
2.85785e-13
6.91572e-13
1.78227e-12
2.92693e-12
9.06257e-12
1.85177e-26
2.50889e-25
3.3294e-24
4.22561e-23
5.16214e-22
6.0862e-21
6.86342e-20
7.28937e-19
7.20189e-18
6.49531e-17
5.19987e-16
3.61291e-15
2.02897e-14
9.1644e-14
3.01141e-13
7.80962e-13
1.60358e-12
2.83102e-12
9.35654e-12
3.58513e-27
5.77174e-26
8.96462e-25
1.33929e-23
1.9306e-22
2.66599e-21
3.47504e-20
4.20804e-19
4.67756e-18
4.67992e-17
4.06883e-16
2.99882e-15
1.75081e-14
7.91256e-14
2.63617e-13
7.19132e-13
1.57346e-12
3.28543e-12
9.36687e-12
6.57289e-28
1.25405e-26
2.30686e-25
4.08962e-24
6.9478e-23
1.11774e-21
1.67637e-20
2.31401e-19
2.89277e-18
3.20144e-17
3.01879e-16
2.34959e-15
1.41812e-14
6.36475e-14
2.09952e-13
5.73096e-13
1.31573e-12
2.89573e-12
9.08097e-12
1.1275e-28
2.567e-27
5.62905e-26
1.18397e-24
2.36275e-23
4.41497e-22
7.61506e-21
1.19687e-19
1.68198e-18
2.06413e-17
2.12369e-16
1.76446e-15
1.11484e-14
5.02988e-14
1.62137e-13
4.18503e-13
9.83516e-13
2.35758e-12
8.57726e-12
1.75212e-29
4.79414e-28
1.25918e-26
3.14483e-25
7.37604e-24
1.6033e-22
3.19394e-21
5.75211e-20
9.18096e-19
1.2616e-17
1.4345e-16
1.29585e-15
8.77335e-15
4.07818e-14
1.30642e-13
3.03086e-13
6.66668e-13
1.99742e-12
7.91229e-12
2.4416e-30
8.05211e-29
2.53368e-27
7.51996e-26
2.07749e-24
5.27849e-23
1.21991e-21
2.52877e-20
4.62122e-19
7.23553e-18
9.32528e-17
9.44059e-16
7.07379e-15
3.476e-14
1.15895e-13
2.49537e-13
4.50728e-13
1.76564e-12
7.08418e-12
2.96459e-31
1.18119e-29
4.45628e-28
1.5737e-26
5.13738e-25
1.53327e-23
4.14103e-22
9.98697e-21
2.11213e-19
3.82031e-18
5.68926e-17
6.5982e-16
5.68385e-15
3.11752e-14
1.10209e-13
2.36884e-13
3.79647e-13
1.57995e-12
6.06272e-12
3.14952e-32
1.52134e-30
6.90604e-29
2.91452e-27
1.13033e-25
3.98442e-24
1.26261e-22
3.55396e-21
8.72944e-20
1.83591e-18
3.20847e-17
4.4159e-16
4.49783e-15
2.90641e-14
1.09346e-13
2.33952e-13
3.62158e-13
1.39073e-12
4.82344e-12
2.81184e-33
1.64804e-31
9.01672e-30
4.5629e-28
2.11521e-26
8.88263e-25
3.34158e-23
1.11123e-21
3.21274e-20
7.9202e-19
1.63189e-17
2.70891e-16
3.41233e-15
2.65913e-14
1.11075e-13
2.39083e-13
3.57451e-13
1.10919e-12
3.4742e-12
2.73887e-34
1.95031e-32
1.28386e-30
7.79064e-29
4.3125e-27
2.1578e-25
9.61889e-24
3.76981e-22
1.27937e-20
3.68755e-19
8.82434e-18
1.71282e-16
2.61973e-15
2.58212e-14
1.25143e-13
2.81453e-13
3.78446e-13
8.14303e-13
2.43202e-12
1.91266e-35
1.72538e-33
1.4144e-31
1.06255e-29
7.32465e-28
4.61123e-26
2.6294e-24
1.33526e-22
5.91581e-21
2.21962e-19
6.77652e-18
1.60928e-16
2.74015e-15
2.79673e-14
1.44024e-13
3.478e-13
4.46403e-13
6.56961e-13
1.75548e-12
5.08077e-36
6.2468e-34
6.71091e-32
6.37592e-30
5.43345e-28
4.18777e-26
2.91372e-24
1.8005e-22
9.56444e-21
4.16167e-19
1.38996e-17
3.25548e-16
4.54421e-15
3.54725e-14
1.39592e-13
2.61766e-13
6.31958e-13
6.45932e-13
1.38008e-12
3.40873e-38
6.14676e-36
1.0099e-33
1.48571e-31
1.95093e-29
2.29201e-27
2.40064e-25
2.2143e-23
1.74392e-21
1.10555e-19
5.11655e-18
1.51783e-16
2.45051e-15
1.91558e-14
7.06698e-14
1.07719e-13
3.48101e-13
6.39891e-13
1.21245e-12
)
;

boundaryField
{
    leftWall
    {
        type            zeroGradient;
    }
    rightWall
    {
        type            zeroGradient;
    }
    lowerWall
    {
        type            zeroGradient;
    }
    atmosphere
    {
        type            inletOutlet;
        inletValue      uniform 0;
        value           nonuniform List<scalar> 
46
(
0
0
0
0
0
0
0
0
0
0
0
0
0
0
0
0
0
0
0
0
0
0
0
0
0
0
0
0
0
0
0
0
0
0
0
0
1.10555e-19
5.11655e-18
0
0
0
0
0
0
6.39891e-13
1.21245e-12
)
;
    }
    defaultFaces
    {
        type            empty;
    }
}


// ************************************************************************* //
