/*--------------------------------*- C++ -*----------------------------------*\
| =========                 |                                                 |
| \\      /  F ield         | OpenFOAM: The Open Source CFD Toolbox           |
|  \\    /   O peration     | Version:  2.4.0                                 |
|   \\  /    A nd           | Web:      www.OpenFOAM.org                      |
|    \\/     M anipulation  |                                                 |
\*---------------------------------------------------------------------------*/
FoamFile
{
    version     2.0;
    format      ascii;
    class       volScalarField;
    location    "0.45";
    object      alpha.water;
}
// * * * * * * * * * * * * * * * * * * * * * * * * * * * * * * * * * * * * * //

dimensions      [0 0 0 0 0 0 0];

internalField   nonuniform List<scalar> 
2268
(
1.39563e-09
1.28878e-09
1.10258e-09
1.73225e-09
1.18892e-09
1.5988e-09
2.4824e-09
2.23389e-09
2.13208e-09
2.63952e-09
4.03245e-09
4.85099e-09
4.79312e-09
4.2363e-09
3.11638e-09
2.6855e-09
2.70662e-09
2.7534e-09
2.73619e-09
2.50791e-09
1.69558e-09
5.00574e-10
1.28027e-10
1.24483e-08
1.14127e-08
1.02276e-08
1.42371e-08
1.12247e-08
1.38538e-08
1.93294e-08
1.81565e-08
1.82012e-08
2.12889e-08
2.77603e-08
3.08085e-08
3.0572e-08
2.81098e-08
2.34416e-08
1.93827e-08
1.69897e-08
1.50365e-08
1.24763e-08
8.60872e-09
4.25374e-09
9.54663e-10
3.67919e-10
5.14677e-08
4.63239e-08
4.15985e-08
5.5451e-08
4.64813e-08
5.6316e-08
8.23295e-08
7.75041e-08
8.43391e-08
1.19474e-07
2.81291e-07
3.09351e-07
3.4253e-07
2.47836e-07
1.27227e-07
7.26552e-08
6.06863e-08
4.8489e-08
3.68985e-08
2.43337e-08
1.11533e-08
5.29622e-09
3.39811e-09
1.60185e-05
1.86219e-05
1.53655e-05
3.86755e-05
2.15241e-05
4.22952e-05
9.04001e-05
8.31075e-05
0.000125485
0.000208588
0.000414403
0.000467891
0.000578985
0.000434077
0.000227223
6.65736e-05
1.81664e-05
5.36949e-06
2.16916e-06
7.88677e-07
1.31418e-07
4.4945e-08
1.6145e-08
0.0072023
0.00785286
0.00741363
0.0114976
0.00949307
0.0135407
0.0201593
0.0216307
0.0286835
0.0382962
0.0543151
0.062838
0.074814
0.069987
0.0571706
0.0232968
0.00454703
0.00047689
4.34841e-05
4.11119e-06
3.90459e-07
2.08694e-07
6.97379e-08
0.250655
0.260356
0.260298
0.304758
0.297638
0.342005
0.402916
0.434493
0.491217
0.553912
0.630184
0.683776
0.729689
0.75164
0.766008
0.716061
0.540029
0.207906
0.0232409
0.000807111
1.25638e-05
8.74172e-07
1.73639e-07
0.919407
0.924596
0.927331
0.945086
0.947552
0.962407
0.977007
0.984269
0.991129
0.995794
0.998329
0.999362
0.999745
0.999884
0.999945
0.999549
0.983627
0.832331
0.273211
0.0198183
0.000355869
4.01328e-06
2.22762e-06
0.999698
0.99972
0.99975
0.999798
0.999833
0.999879
0.999913
0.999937
0.999956
0.999969
0.999978
0.999984
0.999988
0.999989
0.999989
0.99998
0.999928
0.99463
0.765968
0.125585
0.00372701
4.71894e-05
6.75988e-06
6.00721e-09
1.01824e-07
4.09939e-07
7.15124e-07
9.26691e-07
1.13017e-06
1.35754e-06
1.62207e-06
1.99599e-06
3.02258e-06
9.79501e-06
5.30001e-05
0.000133278
0.000175647
0.000183493
0.000152444
0.000104519
5.11291e-05
1.40373e-05
6.92211e-09
1.04809e-07
3.41477e-07
4.64199e-07
4.8873e-07
4.86221e-07
4.86234e-07
4.86221e-07
4.8698e-07
7.60278e-07
9.0804e-06
0.00014615
0.000642553
0.00108294
0.00124969
0.0011094
0.000710113
0.000219905
2.10761e-05
5.8592e-09
1.03053e-07
4.13056e-07
6.50108e-07
7.41287e-07
7.44327e-07
7.45656e-07
6.17866e-07
5.10839e-07
9.52341e-07
1.60241e-05
0.000176671
0.00106169
0.00274826
0.00368298
0.00341181
0.00227929
0.000665615
3.94832e-05
4.45238e-09
9.71074e-08
4.2212e-07
5.89138e-07
3.97715e-07
3.80216e-07
3.30813e-07
1.34731e-07
4.81506e-08
1.35163e-07
8.00194e-06
0.000117366
0.00124341
0.00491751
0.00662661
0.00564967
0.00335895
0.00097543
5.11086e-05
5.21364e-09
9.64211e-08
3.86824e-07
4.70291e-07
3.42343e-07
1.36131e-07
6.3538e-09
8.60654e-10
8.43378e-10
1.59223e-09
8.70961e-07
2.59561e-05
0.000975531
0.00770235
0.0110274
0.00971896
0.00538086
0.00109644
5.45141e-05
7.60773e-09
8.50338e-08
3.26304e-07
2.94166e-07
5.7498e-07
1.80663e-06
4.86622e-07
1.16067e-07
5.87143e-09
4.4862e-09
1.00663e-06
0.000139479
0.00305687
0.0124058
0.0160718
0.0139043
0.00711231
0.00118271
7.62358e-05
4.26827e-09
3.42179e-08
1.27694e-07
1.37127e-07
5.14186e-07
3.77804e-06
4.68079e-06
7.33793e-07
7.86479e-09
4.67886e-10
1.6025e-07
0.000480239
0.009802
0.0213623
0.0223288
0.0171443
0.00770605
0.00110744
9.74293e-05
8.71463e-13
6.11251e-13
3.80843e-13
2.37205e-13
-1.11053e-11
-6.26171e-10
6.60948e-06
1.49522e-06
9.0456e-11
1.31285e-12
1.57593e-12
0.00206153
0.0200983
0.0305018
0.0300245
0.0188952
0.00699425
0.00112589
0.000115903
0.999953
0.999955
0.999958
0.999962
0.999967
0.999972
0.999976
0.99998
0.999984
0.999986
0.999987
0.999988
0.999988
0.999989
0.999988
0.999984
0.999949
0.999596
0.975578
0.645578
0.105132
0.00819478
0.000378966
0.999998
0.999998
0.999998
0.999998
0.999998
0.999998
0.999998
0.999999
0.999998
0.999998
0.999998
0.999998
0.999998
0.999997
0.999997
0.999995
0.999973
0.999803
0.998767
0.968492
0.635408
0.204913
0.0409766
0.999999
0.999999
0.999999
0.999999
0.999999
1
1
0.999999
0.999989
0.999893
0.999751
0.999706
0.999779
0.999765
0.999845
0.999931
0.999959
0.999914
0.999563
0.996942
0.955896
0.788282
0.47693
0.999927
0.999933
0.999949
0.999967
0.999985
0.999996
0.999999
0.999835
0.996975
0.98624
0.977519
0.975631
0.978395
0.977735
0.982765
0.990764
0.995387
0.997783
0.999046
0.998728
0.996222
0.982085
0.934708
0.974352
0.975874
0.979647
0.984612
0.990594
0.996598
0.999323
0.990942
0.923637
0.802768
0.740794
0.721491
0.71754
0.696915
0.703538
0.745196
0.816241
0.885589
0.939664
0.967833
0.986189
0.98618
0.985426
0.425943
0.436894
0.465664
0.516046
0.609604
0.773589
0.922436
0.890393
0.64071
0.379927
0.27624
0.225425
0.186957
0.140674
0.117405
0.110705
0.163034
0.278946
0.445162
0.556175
0.675708
0.765822
0.824142
0.000200056
0.000232931
0.000352662
0.000725411
0.00220882
0.0140556
0.130577
0.248983
0.0949172
0.0265971
0.0197204
0.0110696
0.00413868
0.00193564
0.0013998
0.00133381
0.00164921
0.00315141
0.0221606
0.0237617
0.079913
0.143646
0.246601
3.21541e-07
1.54473e-07
9.66283e-08
3.30665e-08
4.35884e-07
7.78941e-06
5.2102e-05
0.000644804
4.60353e-06
1.17917e-05
3.59482e-05
5.56427e-05
5.75779e-05
4.99685e-05
3.94561e-05
3.03938e-05
2.62277e-05
2.60478e-05
4.61665e-05
0.000141468
0.00120639
0.00252521
0.0042615
1.13299e-07
5.90538e-08
4.29752e-08
7.95534e-09
1.57737e-09
1.04427e-08
3.19239e-08
7.54865e-08
1.06794e-08
2.08357e-08
2.77197e-08
2.87638e-08
7.39156e-08
1.35582e-07
2.28949e-07
4.27045e-07
5.3499e-07
4.54207e-07
4.67031e-07
8.12321e-07
6.10898e-06
1.26777e-05
3.01163e-05
5.60879e-08
3.38695e-08
2.81021e-08
9.15621e-09
1.28441e-09
5.60379e-10
8.94909e-10
2.41993e-09
1.04571e-08
1.18288e-08
4.87322e-09
1.81922e-09
7.11845e-10
4.15858e-10
2.17734e-10
7.41752e-11
4.76733e-11
3.15051e-11
2.27628e-11
1.48818e-11
1.99901e-11
7.60447e-10
1.26872e-08
5.11952e-08
2.91316e-08
2.25e-08
1.23004e-08
2.16342e-09
5.59142e-10
6.42304e-10
1.9251e-09
8.55863e-09
1.54888e-08
6.23917e-09
1.65932e-09
3.4344e-10
1.04578e-10
3.50906e-11
1.6201e-11
1.10177e-11
1.4148e-11
2.15614e-11
1.47786e-11
6.88008e-12
2.32837e-12
1.41261e-12
4.46622e-08
1.78902e-08
8.49068e-09
3.34644e-09
1.1186e-09
4.84675e-10
6.60943e-10
2.09522e-09
6.41646e-09
1.54809e-08
7.32889e-09
2.47181e-09
3.3828e-10
9.14702e-11
3.17497e-11
1.44021e-11
7.57551e-12
4.49211e-12
2.78044e-12
2.08489e-12
1.36039e-12
6.95024e-13
4.0402e-13
9.68602e-09
3.65362e-09
8.54987e-10
2.35731e-10
1.71489e-10
1.3436e-10
8.82828e-11
7.56297e-11
1.70502e-10
1.38031e-09
4.35448e-10
5.65024e-11
2.32549e-11
9.96074e-12
5.87182e-12
3.35694e-12
1.65947e-12
8.54935e-13
4.97584e-13
2.98162e-13
1.74139e-13
1.10702e-13
9.94695e-14
9.66048e-10
3.64583e-10
5.92899e-11
2.88838e-11
2.36229e-11
3.00486e-11
4.14119e-11
3.39317e-11
2.35282e-11
2.84631e-11
1.74491e-11
1.33003e-11
9.06029e-12
2.80038e-12
6.18114e-13
1.29699e-13
3.52374e-14
1.6128e-14
1.82091e-14
2.82855e-14
4.40581e-14
5.6236e-14
5.75236e-14
3.97902e-11
5.83797e-11
2.37968e-11
1.25416e-11
9.48109e-12
1.0573e-11
1.34313e-11
1.76227e-11
1.71529e-11
1.66753e-11
1.22112e-11
7.30871e-12
2.99126e-12
6.08682e-13
4.26565e-14
1.65047e-15
2.984e-15
6.27593e-15
1.18161e-14
1.80336e-14
2.14802e-14
1.91655e-14
1.28503e-14
1.16479e-11
1.74382e-11
8.99369e-12
5.16961e-12
3.78036e-12
3.72422e-12
4.54446e-12
5.95848e-12
6.22575e-12
6.01807e-12
4.05647e-12
2.27737e-12
8.25059e-13
1.7047e-13
1.246e-14
3.58251e-16
7.50821e-16
1.44416e-15
2.43619e-15
3.4121e-15
3.8575e-15
3.40353e-15
2.20102e-15
3.13024e-12
4.48164e-12
2.37404e-12
1.51923e-12
1.13883e-12
1.11233e-12
1.39752e-12
1.78123e-12
1.84026e-12
1.65415e-12
1.24384e-12
6.89075e-13
2.46755e-13
5.32186e-14
4.39943e-15
3.91045e-17
8.18951e-17
1.57694e-16
2.71901e-16
3.99957e-16
4.69141e-16
4.38943e-16
3.4936e-16
5.91573e-13
7.86605e-13
3.99859e-13
2.60315e-13
1.94884e-13
2.015e-13
2.88282e-13
3.94208e-13
4.31829e-13
3.90713e-13
3.07197e-13
1.81094e-13
6.97845e-14
1.62928e-14
1.45611e-15
1.58426e-18
3.62617e-18
7.60955e-18
1.44188e-17
2.46475e-17
3.64691e-17
4.72311e-17
5.83878e-17
3.93086e-14
5.9263e-14
3.03246e-14
1.90858e-14
1.20713e-14
1.59712e-14
3.25704e-14
5.21606e-14
6.04861e-14
5.47481e-14
4.38965e-14
2.76128e-14
1.12823e-14
2.72929e-15
2.4419e-16
8.15158e-20
2.22353e-19
5.48253e-19
1.24094e-18
2.59957e-18
4.92166e-18
8.17625e-18
1.23671e-17
2.60442e-21
9.37181e-20
1.70172e-18
1.77009e-17
1.11043e-16
4.37576e-16
1.09789e-15
1.74348e-15
1.69502e-15
9.79237e-16
3.71132e-16
1.20766e-16
2.22164e-17
1.96617e-18
1.99906e-21
6.94925e-21
2.12079e-20
5.86816e-20
1.50084e-19
3.51126e-19
7.37569e-19
1.35751e-18
2.25389e-18
2.85941e-37
3.38403e-35
1.64367e-33
4.5022e-32
8.40889e-31
1.17131e-29
1.27607e-28
1.13298e-27
8.44979e-27
5.49451e-26
3.24274e-25
1.76342e-24
8.90701e-24
4.14841e-23
1.76379e-22
6.72261e-22
2.3341e-21
7.37938e-21
2.09673e-20
5.26772e-20
1.15352e-19
2.19638e-19
3.81158e-19
1.53688e-38
1.26862e-36
5.11966e-35
1.34186e-33
2.55055e-32
3.74496e-31
4.44489e-30
4.39954e-29
3.76739e-28
2.89719e-27
1.98141e-26
1.22805e-25
6.92503e-25
3.49403e-24
1.56343e-23
6.27548e-23
2.29381e-22
7.5811e-22
2.2209e-21
5.79087e-21
1.34479e-20
2.80475e-20
5.39329e-20
1.7994e-40
1.86095e-38
8.95802e-37
2.66651e-35
5.54507e-34
8.73604e-33
1.11261e-31
1.20009e-30
1.142e-29
9.78039e-29
7.66034e-28
5.44001e-27
3.42923e-26
1.95004e-25
9.90616e-25
4.49412e-24
1.80564e-23
6.34286e-23
1.9822e-22
5.6116e-22
1.42238e-21
3.29429e-21
7.12031e-21
6.24967e-42
5.59444e-40
2.43187e-38
6.84834e-37
1.42386e-35
2.35546e-34
3.25641e-33
3.9073e-32
4.19663e-31
4.11231e-30
3.61849e-29
2.74598e-28
1.82526e-27
1.0801e-26
5.67936e-26
2.65929e-25
1.11405e-24
4.24617e-24
1.47829e-23
4.63572e-23
1.31894e-22
3.46785e-22
8.40521e-22
3.76031e-44
3.9551e-42
2.02811e-40
6.73895e-39
1.66322e-37
3.29229e-36
5.47892e-35
7.86471e-34
9.79574e-33
1.04839e-31
9.71999e-31
8.06221e-30
6.05145e-29
4.01257e-28
2.36972e-27
1.26564e-26
6.12685e-26
2.66163e-25
1.02228e-24
3.52854e-24
1.12881e-23
3.33335e-23
8.8605e-23
4.51838e-46
5.21635e-44
2.95727e-42
1.09669e-40
2.99996e-39
6.44908e-38
1.13462e-36
1.68926e-35
2.18092e-34
2.49255e-33
2.56818e-32
2.40124e-31
2.00816e-30
1.50567e-29
1.00164e-28
5.78226e-28
2.96673e-27
1.38246e-26
5.9399e-26
2.36218e-25
8.5847e-25
2.80675e-24
8.19604e-24
2.81754e-48
3.46847e-46
2.1029e-44
8.43145e-43
2.55332e-41
6.29396e-40
1.31517e-38
2.36939e-37
3.71014e-36
5.06829e-35
6.00521e-34
6.13394e-33
5.43847e-32
4.26943e-31
3.02326e-30
1.98962e-29
1.20732e-28
6.64891e-28
3.29332e-27
1.4527e-26
5.75471e-26
2.07571e-25
6.72431e-25
1.81365e-50
2.57197e-48
1.80085e-46
8.33343e-45
2.86965e-43
7.81825e-42
1.75331e-40
3.32463e-39
5.42172e-38
7.71782e-37
9.79232e-36
1.12972e-34
1.19015e-33
1.13269e-32
9.69117e-32
7.32453e-31
4.85218e-30
2.86708e-29
1.53515e-28
7.55352e-28
3.39541e-27
1.36604e-26
4.87516e-26
6.51744e-53
1.05018e-50
8.43391e-49
4.51954e-47
1.82414e-45
5.90759e-44
1.59058e-42
3.6363e-41
7.16493e-40
1.22936e-38
1.84147e-37
2.40271e-36
2.74221e-35
2.76828e-34
2.49473e-33
2.0363e-32
1.52687e-31
1.04595e-30
6.48791e-30
3.59923e-29
1.78154e-28
7.93402e-28
3.15716e-27
2.79316e-55
5.19171e-53
4.7593e-51
2.89132e-49
1.30921e-47
4.70521e-46
1.39415e-44
3.48974e-43
7.50023e-42
1.40094e-40
2.30235e-39
3.3735e-38
4.44665e-37
5.2808e-36
5.64755e-35
5.41904e-34
4.62966e-33
3.52062e-32
2.40064e-31
1.48046e-30
8.25159e-30
4.11796e-29
1.82869e-28
6.95153e-58
1.50699e-55
1.62426e-53
1.16614e-51
6.25802e-50
2.66569e-48
9.3364e-47
2.75179e-45
6.94257e-44
1.5188e-42
2.90774e-41
4.90138e-40
7.30438e-39
9.66814e-38
1.1426e-36
1.2115e-35
1.15856e-34
1.00138e-33
7.79733e-33
5.4433e-32
3.40162e-31
1.90338e-30
9.49901e-30
1.60522e-60
4.10901e-58
5.17164e-56
4.31341e-54
2.67336e-52
1.31008e-50
5.26964e-49
1.78252e-47
5.15643e-46
1.2906e-44
2.8188e-43
5.42261e-42
9.27381e-41
1.41648e-39
1.93488e-38
2.36585e-37
2.58943e-36
2.53673e-35
2.22775e-34
1.7564e-33
1.24197e-32
7.85416e-32
4.43079e-31
2.48403e-63
7.61341e-61
1.13944e-58
1.12807e-56
8.2874e-55
4.80614e-53
2.28238e-51
9.0818e-50
3.0788e-48
9.01113e-47
2.30092e-45
5.15985e-44
1.02118e-42
1.79268e-41
2.80436e-40
3.92058e-39
4.90807e-38
5.50777e-37
5.53775e-36
4.98303e-35
4.00963e-34
2.88387e-33
1.85442e-32
2.54944e-66
9.76417e-64
1.77619e-61
2.12047e-59
1.86881e-57
1.29643e-55
7.35521e-54
3.49218e-52
1.4098e-50
4.89476e-49
1.47435e-47
3.88323e-46
9.00659e-45
1.84892e-43
3.37163e-42
5.47623e-41
7.93776e-40
1.02784e-38
1.18949e-37
1.23018e-36
1.13648e-35
9.38075e-35
6.94759e-34
1.61542e-69
8.18802e-67
1.84697e-64
2.67155e-62
2.81481e-60
2.31437e-58
1.5546e-56
8.82992e-55
4.32207e-53
1.83763e-51
6.79891e-50
2.18898e-48
6.14321e-47
1.50957e-45
3.26542e-44
6.25121e-43
1.06289e-41
1.60893e-40
2.17043e-39
2.60986e-38
2.79796e-37
2.67978e-36
2.31786e-35
5.41008e-73
4.50941e-70
1.31387e-67
2.32184e-65
2.93669e-63
2.883e-61
2.30902e-59
1.56224e-57
9.12474e-56
4.65866e-54
2.09432e-52
8.30755e-51
2.90279e-49
8.89916e-48
2.3809e-46
5.56145e-45
1.13875e-43
2.05502e-42
3.28481e-41
4.6613e-40
5.88216e-39
6.63177e-38
6.81895e-37
1.65754e-76
2.67383e-73
1.00299e-70
2.12223e-68
3.15457e-66
3.61223e-64
3.3559e-62
2.61917e-60
1.75993e-58
1.03612e-56
5.39988e-55
2.49919e-53
1.02657e-51
3.74356e-50
1.21658e-48
3.51539e-47
8.98346e-46
2.01297e-44
3.93962e-43
6.76337e-42
1.02585e-40
1.38918e-39
1.73991e-38
2.99349e-79
5.94502e-76
2.45393e-73
5.50605e-71
8.5172e-69
1.00339e-66
9.48845e-65
7.46203e-63
5.02087e-61
2.96369e-59
1.56884e-57
7.57449e-56
3.36307e-54
1.37144e-52
5.10699e-51
1.71983e-49
5.19942e-48
1.41197e-46
3.43553e-45
7.41777e-44
1.40844e-42
2.36705e-41
3.72883e-40
6.71668e-81
9.44322e-78
3.36124e-75
6.67354e-73
9.15546e-71
9.5703e-69
8.07311e-67
5.70081e-65
3.46322e-63
1.84908e-61
8.84408e-60
3.86283e-58
1.56829e-56
6.00495e-55
2.1871e-53
7.61146e-52
2.52197e-50
7.84777e-49
2.25312e-47
5.89496e-46
1.40149e-44
3.05435e-43
6.58054e-42
3.27188e-82
3.00425e-79
8.85154e-77
1.52632e-74
1.84472e-72
1.71011e-70
1.28691e-68
8.1559e-67
4.47058e-65
2.16467e-63
9.41116e-62
3.72531e-60
1.36139e-58
4.65533e-57
1.50886e-55
4.70027e-54
1.42746e-52
4.27622e-51
1.27184e-49
3.73378e-48
1.0611e-46
2.89215e-45
8.31996e-44
4.38781e-84
3.10177e-81
8.42859e-79
1.39698e-76
1.65094e-74
1.50809e-72
1.12038e-70
7.01642e-69
3.80279e-67
1.8201e-65
7.82199e-64
3.06068e-62
1.10442e-60
3.72086e-59
1.18332e-57
3.59268e-56
1.05355e-54
3.02041e-53
8.57874e-52
2.45735e-50
7.38875e-49
2.67946e-47
1.64874e-45
1.01288e-86
7.37482e-84
2.06227e-81
3.50307e-79
4.22434e-77
3.92361e-75
2.95168e-73
1.86363e-71
1.01448e-69
4.86445e-68
2.09175e-66
8.19331e-65
2.96474e-63
1.00513e-61
3.24365e-60
1.011e-58
3.08498e-57
9.34211e-56
2.84721e-54
8.86761e-53
2.88828e-51
1.0545e-49
5.4296e-48
0.00173726
0.00369947
0.00389775
0.00331385
0.00184918
0.00264059
0.00477929
0.0103158
0.259808
0.16636
0.134943
0.137638
0.886375
0.850962
0.813397
0.764575
0.9838
0.981835
0.97821
0.97288
0.853171
0.849532
0.832943
0.81187
0.307534
0.300781
0.273927
0.246467
0.00482524
0.00457946
0.00411038
0.00414891
4.01063e-05
3.85872e-05
3.725e-05
3.58156e-05
3.18179e-08
3.26326e-08
2.72129e-08
1.93227e-08
9.58751e-13
7.56213e-13
1.49068e-12
2.84187e-12
3.21107e-13
2.92116e-13
4.05838e-13
1.12271e-12
1.01915e-13
1.63491e-13
4.85842e-13
2.14152e-12
7.25916e-14
1.51736e-13
3.90269e-13
1.05777e-12
9.34967e-15
1.63378e-14
3.53389e-14
8.08097e-14
1.17384e-15
1.32765e-15
1.73516e-15
2.51503e-15
2.9147e-16
3.20586e-16
3.59591e-16
3.98812e-16
7.3545e-17
8.38256e-17
9.34052e-17
1.00604e-16
1.75291e-17
2.01316e-17
2.24145e-17
2.43196e-17
3.45958e-18
4.12088e-18
4.74864e-18
5.35583e-18
6.19677e-19
7.68597e-19
9.22738e-19
1.08252e-18
9.67461e-20
1.27441e-19
1.60957e-19
1.96673e-19
1.41046e-20
1.95413e-20
2.57387e-20
3.247e-20
1.8233e-21
2.64821e-21
3.6433e-21
4.76981e-21
2.08369e-22
3.17407e-22
4.58173e-22
6.28523e-22
2.117e-23
3.41366e-23
5.19033e-23
7.47964e-23
1.90422e-24
3.26632e-24
5.27262e-24
8.08559e-24
1.5309e-25
2.82021e-25
4.8829e-25
8.09542e-25
1.10331e-26
2.20057e-26
4.13794e-26
7.63339e-26
7.15949e-28
1.56164e-27
3.25475e-27
7.0635e-27
4.19343e-29
1.01456e-28
2.43141e-28
6.80766e-28
2.22588e-30
6.10764e-30
1.7893e-29
7.17676e-29
1.07469e-31
3.46847e-31
1.35381e-30
8.25844e-30
4.73697e-33
1.89386e-32
1.06431e-31
9.63732e-31
1.91135e-34
1.00753e-33
8.44713e-33
1.06855e-31
7.03344e-36
5.15165e-35
6.32904e-34
1.05772e-32
2.34136e-37
2.47742e-36
4.31049e-35
9.22388e-34
6.82594e-39
1.05504e-37
2.50813e-36
6.76655e-35
1.8876e-40
4.71209e-39
1.56401e-37
5.37735e-36
3.60432e-42
1.36103e-40
6.33086e-39
2.90989e-37
1.87735e-43
1.27663e-41
8.71107e-40
5.63101e-38
5.38388e-46
3.983e-44
3.33649e-42
2.80309e-40
0.00338539
0.00278829
0.00159254
0.00176642
0.00184166
0.00123998
0.00086424
0.00108114
0.00157192
0.00247642
0.00624556
0.0231476
0.0472612
0.0495371
0.0383707
0.0125057
0.00394379
0.000587009
7.31206e-05
0.0335422
0.0571451
0.0586784
0.0614133
0.0579804
0.0395031
0.0256624
0.0260897
0.0310043
0.0468231
0.0631656
0.0926095
0.0938011
0.0734841
0.0289362
0.0100945
0.00111492
0.000131298
1.19145e-05
0.184972
0.278149
0.344856
0.355804
0.329295
0.261152
0.206984
0.19447
0.19408
0.203601
0.20047
0.179689
0.134831
0.0692532
0.0178412
0.00320149
0.000129268
1.28742e-05
1.80175e-06
0.763196
0.787655
0.794739
0.78374
0.737324
0.652298
0.576333
0.518341
0.469902
0.402952
0.302601
0.223384
0.145302
0.0621752
0.00443912
0.000169873
6.65905e-06
5.6938e-07
3.03666e-07
0.955719
0.913584
0.879198
0.870522
0.858895
0.823754
0.772618
0.713624
0.610559
0.472915
0.314178
0.214388
0.0711495
0.0150233
0.000386563
1.61702e-06
1.14665e-06
1.00743e-08
3.56532e-09
0.738197
0.599823
0.532239
0.546514
0.622559
0.728634
0.745688
0.711075
0.569245
0.433949
0.300677
0.0773038
0.00619284
0.000665992
1.32133e-05
1.47599e-08
9.35555e-08
5.74767e-10
1.79778e-10
0.199263
0.149439
0.147051
0.200215
0.31945
0.466379
0.507618
0.474948
0.402448
0.251067
0.059641
0.00378945
8.8615e-05
4.03081e-06
2.52681e-07
9.45075e-10
1.97644e-09
4.81725e-10
2.45281e-10
0.00341196
0.00249084
0.00595539
0.0383641
0.148958
0.261391
0.275757
0.251376
0.147441
0.0324163
0.00158239
3.05935e-05
2.87916e-07
3.48151e-09
3.80595e-10
5.9358e-10
6.60593e-10
5.74827e-10
3.46577e-10
1.98854e-05
4.00529e-06
1.71017e-05
0.00188753
0.0204732
0.0504358
0.0535621
0.0351343
0.00737991
0.000233759
1.1262e-06
8.25395e-08
1.51199e-09
7.05577e-10
1.2866e-10
3.61379e-10
5.65513e-10
5.94757e-10
3.66688e-10
1.13841e-08
1.54026e-08
3.59319e-08
1.05922e-06
0.000100527
0.000616713
0.000830174
0.000276272
2.94779e-06
1.10141e-07
2.0896e-07
5.30993e-08
1.25709e-09
1.12679e-09
1.10292e-10
1.47285e-10
4.61978e-10
5.52731e-10
3.62198e-10
5.29206e-10
2.34757e-09
5.00875e-09
2.3693e-08
1.26232e-07
5.18575e-07
1.11616e-06
5.51431e-07
1.26129e-07
1.23581e-08
3.00439e-08
4.41745e-08
2.00383e-09
2.58337e-09
2.10235e-10
6.8769e-11
2.43594e-10
4.32958e-10
3.46701e-10
1.56964e-10
1.47675e-10
4.29413e-09
2.95389e-08
5.16165e-08
7.20891e-08
1.15853e-07
9.27411e-08
6.86841e-09
1.95544e-09
4.22968e-09
1.55305e-08
4.89168e-09
3.14111e-09
8.99556e-10
5.55833e-11
4.50255e-11
2.7897e-10
3.16843e-10
1.04102e-11
6.30236e-11
4.70069e-10
1.56112e-09
3.87263e-09
3.88784e-09
6.36913e-09
4.81157e-09
7.35556e-10
4.83789e-10
1.42422e-09
5.09973e-09
6.79117e-09
3.9646e-09
1.16687e-09
1.29048e-10
7.54475e-12
1.4379e-10
2.72428e-10
2.67306e-12
8.78836e-12
2.95675e-11
5.8614e-11
1.62634e-10
4.43878e-10
6.4555e-10
5.54513e-10
1.32252e-10
1.36087e-10
4.89884e-10
1.89596e-09
5.08615e-09
2.92564e-09
1.13915e-09
1.6236e-10
6.43595e-12
6.59144e-11
2.31058e-10
1.7969e-13
5.87566e-13
1.60214e-12
3.86381e-12
9.28008e-12
2.19156e-11
4.25734e-11
5.09485e-11
2.56292e-11
3.1734e-11
1.37018e-10
6.37201e-10
2.26515e-09
1.89003e-09
7.82992e-10
8.54102e-11
4.02956e-12
6.43034e-11
2.02741e-10
4.2098e-15
1.27375e-14
4.59231e-14
1.68261e-13
5.6752e-13
1.614e-12
3.53817e-12
5.24866e-12
4.68265e-12
5.85113e-12
2.88081e-11
1.61559e-10
6.78952e-10
9.94481e-10
2.18649e-10
1.60129e-11
2.81555e-12
6.22904e-11
1.80479e-10
4.4756e-16
6.50302e-16
1.54803e-15
5.7551e-15
2.30807e-14
8.20728e-14
2.33235e-13
4.71646e-13
6.27158e-13
9.13198e-13
4.58229e-12
2.99418e-11
1.51756e-10
3.58741e-10
6.36182e-11
5.35739e-12
2.13362e-12
5.46222e-11
1.59225e-10
1.06123e-16
1.15425e-16
1.3638e-16
2.77758e-16
1.05252e-15
4.43696e-15
1.57345e-14
4.1443e-14
7.64731e-14
1.25351e-13
5.5843e-13
4.06644e-12
2.48771e-11
8.357e-11
1.32939e-11
2.04992e-12
1.50783e-12
3.42407e-11
1.32438e-10
2.58216e-17
2.77556e-17
2.76933e-17
2.97849e-17
5.56268e-17
2.12004e-16
9.02822e-16
3.12999e-15
8.34959e-15
1.61042e-14
5.74839e-14
4.13e-13
2.94754e-12
1.33587e-11
2.07642e-12
8.84322e-13
1.11087e-12
1.65253e-11
1.05675e-10
5.89165e-18
6.69938e-18
6.78682e-18
6.539e-18
7.74282e-18
1.87247e-17
7.48268e-17
3.02062e-16
1.0568e-15
2.72214e-15
7.91273e-15
3.89202e-14
2.64657e-13
1.54598e-12
3.36049e-13
4.42254e-13
8.49924e-13
7.45159e-12
8.32509e-11
1.23027e-18
1.47455e-18
1.56096e-18
1.58548e-18
2.07e-18
5.22271e-18
1.99014e-17
7.9911e-17
2.99672e-16
9.7514e-16
2.92573e-15
9.00585e-15
3.27608e-14
1.5385e-13
1.40629e-13
2.92829e-13
6.78528e-13
3.89662e-12
6.26425e-11
2.31344e-19
2.94565e-19
3.30001e-19
3.77456e-19
6.5642e-19
2.1825e-18
9.33909e-18
3.94976e-17
1.54112e-16
5.53484e-16
1.83543e-15
5.68081e-15
1.68503e-14
4.51056e-14
1.31372e-13
2.61463e-13
5.8405e-13
2.59352e-12
5.18086e-11
3.93181e-20
5.30973e-20
6.47799e-20
9.07663e-20
2.29675e-19
9.83795e-19
4.70944e-18
2.14434e-17
8.96736e-17
3.48922e-16
1.26796e-15
4.29284e-15
1.41292e-14
4.03253e-14
1.32173e-13
2.66101e-13
5.24461e-13
1.98287e-12
3.20999e-11
5.98102e-21
8.72399e-21
1.21715e-20
2.33535e-20
8.7179e-20
4.52983e-19
2.38271e-18
1.17395e-17
5.35281e-17
2.2788e-16
9.11762e-16
3.36752e-15
1.20854e-14
3.74814e-14
1.24695e-13
2.76628e-13
4.76621e-13
1.62443e-12
2.02362e-11
8.24729e-22
1.33063e-21
2.28852e-21
6.64853e-21
3.42946e-20
2.05642e-19
1.18899e-18
6.42507e-18
3.24867e-17
1.53741e-16
6.85236e-16
2.77956e-15
1.0646e-14
3.47606e-14
1.20869e-13
2.83572e-13
4.40965e-13
1.39575e-12
1.38215e-11
1.03651e-22
1.93278e-22
4.59898e-22
2.0735e-21
1.34879e-20
9.07276e-20
5.7987e-19
3.50296e-18
2.01516e-17
1.08525e-16
5.45699e-16
2.45832e-15
1.00596e-14
3.60821e-14
1.26231e-13
2.97042e-13
4.3077e-13
1.20427e-12
9.9642e-12
1.2137e-23
2.82613e-23
1.04657e-22
6.84419e-22
5.28378e-21
3.99775e-20
2.88366e-19
1.99419e-18
1.32625e-17
8.23568e-17
4.7016e-16
2.39991e-15
1.05248e-14
4.19606e-14
1.40393e-13
3.40901e-13
4.72614e-13
1.09972e-12
7.61331e-12
1.36578e-24
4.4854e-24
2.67123e-23
2.28935e-22
2.05205e-21
1.77846e-20
1.48408e-19
1.19449e-18
9.1872e-18
6.56892e-17
4.2613e-16
2.47512e-15
1.19362e-14
5.14981e-14
1.66185e-13
4.21646e-13
6.02851e-13
1.14178e-12
7.10268e-12
1.56662e-25
8.17363e-25
7.26065e-24
7.62429e-23
7.95937e-22
8.05068e-21
7.86159e-20
7.3436e-19
6.46577e-18
5.25296e-17
3.84977e-16
2.50032e-15
1.33619e-14
6.10786e-14
2.03116e-13
5.27178e-13
8.47326e-13
1.38091e-12
7.52083e-12
1.97527e-26
1.67828e-25
2.00088e-24
2.51148e-23
3.0843e-22
3.66485e-21
4.16752e-20
4.46516e-19
4.45303e-18
4.05738e-17
3.2864e-16
2.3177e-15
1.33017e-14
6.25895e-14
2.20158e-13
6.16096e-13
1.17516e-12
1.92823e-12
7.84179e-12
2.85427e-27
3.63942e-26
5.43813e-25
8.13128e-24
1.18032e-22
1.64276e-21
2.15863e-20
2.63564e-19
2.95459e-18
2.98203e-17
2.61695e-16
1.94988e-15
1.15603e-14
5.39112e-14
1.91534e-13
5.74268e-13
1.30634e-12
2.66038e-12
7.77926e-12
4.52492e-28
7.80913e-27
1.42155e-25
2.53284e-24
4.33393e-23
7.02418e-22
1.06137e-20
1.47606e-19
1.85894e-18
2.07234e-17
1.96835e-16
1.54369e-15
9.40122e-15
4.29523e-14
1.4845e-13
4.47048e-13
1.12174e-12
2.50024e-12
7.38216e-12
7.33271e-29
1.60694e-27
3.52479e-26
7.45933e-25
1.49868e-23
2.81929e-22
4.89523e-21
7.74423e-20
1.09522e-18
1.3522e-17
1.39922e-16
1.16899e-15
7.42528e-15
3.37553e-14
1.11178e-13
3.09857e-13
8.19419e-13
2.10648e-12
6.79602e-12
1.12212e-29
3.03273e-28
7.9969e-27
2.00932e-25
4.74163e-24
1.03683e-22
2.07748e-21
3.76241e-20
6.03731e-19
8.33777e-18
9.52431e-17
8.64085e-16
5.8722e-15
2.73958e-14
8.82238e-14
2.1128e-13
5.18828e-13
1.77213e-12
6.11172e-12
1.56418e-30
5.14826e-29
1.62796e-27
4.85876e-26
1.34957e-24
3.44679e-23
8.00548e-22
1.66733e-20
3.06061e-19
4.812e-18
6.22537e-17
6.32426e-16
4.75278e-15
2.34162e-14
7.82131e-14
1.69066e-13
3.19921e-13
1.50301e-12
5.3456e-12
1.90948e-31
7.62274e-30
2.89006e-28
1.02571e-26
3.36439e-25
1.00862e-23
2.73557e-22
6.62357e-21
1.40601e-19
2.55184e-18
3.81212e-17
4.43374e-16
3.82871e-15
2.10452e-14
7.45072e-14
1.60223e-13
2.59049e-13
1.28468e-12
4.48337e-12
2.04188e-32
9.89604e-31
4.51295e-29
1.913e-27
7.44966e-26
2.63603e-24
8.3828e-23
2.36732e-21
5.83243e-20
1.23008e-18
2.15526e-17
2.97335e-16
3.03485e-15
1.96477e-14
7.40184e-14
1.58466e-13
2.45304e-13
1.1078e-12
3.5109e-12
1.83453e-33
1.07915e-31
5.92878e-30
3.01188e-28
1.40115e-26
5.90303e-25
2.22725e-23
7.42668e-22
2.15249e-20
5.31852e-19
1.09814e-17
1.8265e-16
2.30503e-15
1.7994e-14
7.52708e-14
1.62136e-13
2.41989e-13
8.66851e-13
2.50387e-12
1.7986e-34
1.28524e-32
8.49113e-31
5.16958e-29
2.87011e-27
1.43992e-25
6.43426e-24
2.52719e-22
8.59353e-21
2.48138e-19
5.94781e-18
1.1563e-16
1.77132e-15
1.74886e-14
8.49078e-14
1.91192e-13
2.56618e-13
6.15733e-13
1.74091e-12
1.26529e-35
1.14479e-33
9.413e-32
7.09101e-30
4.9002e-28
3.09158e-26
1.76622e-24
8.98431e-23
3.98641e-21
1.49771e-19
4.5781e-18
1.08846e-16
1.85544e-15
1.89638e-14
9.78969e-14
2.38877e-13
3.05663e-13
4.78625e-13
1.24906e-12
3.39563e-36
4.18264e-34
4.50146e-32
4.28409e-30
3.6567e-28
2.82248e-26
1.96632e-24
1.2164e-22
6.46765e-21
2.81648e-19
9.41389e-18
2.20657e-16
3.08308e-15
2.41126e-14
9.54621e-14
1.84542e-13
4.22074e-13
4.53775e-13
9.75076e-13
2.28917e-38
4.1344e-36
6.80305e-34
1.0022e-31
1.31762e-29
1.54957e-27
1.62443e-25
1.49944e-23
1.18166e-21
7.49531e-20
3.47076e-18
1.0302e-16
1.66444e-15
1.30249e-14
4.81504e-14
7.37043e-14
2.43545e-13
4.43962e-13
8.51758e-13
)
;

boundaryField
{
    leftWall
    {
        type            zeroGradient;
    }
    rightWall
    {
        type            zeroGradient;
    }
    lowerWall
    {
        type            zeroGradient;
    }
    atmosphere
    {
        type            inletOutlet;
        inletValue      uniform 0;
        value           nonuniform List<scalar> 
46
(
0
0
0
0
0
0
0
0
0
0
0
0
0
0
0
0
0
0
0
0
0
0
0
0
0
0
0
0
0
0
0
0
0
0
0
0
7.49531e-20
3.47076e-18
0
0
0
0
0
0
4.43962e-13
8.51758e-13
)
;
    }
    defaultFaces
    {
        type            empty;
    }
}


// ************************************************************************* //
