/*--------------------------------*- C++ -*----------------------------------*\
| =========                 |                                                 |
| \\      /  F ield         | OpenFOAM: The Open Source CFD Toolbox           |
|  \\    /   O peration     | Version:  2.4.0                                 |
|   \\  /    A nd           | Web:      www.OpenFOAM.org                      |
|    \\/     M anipulation  |                                                 |
\*---------------------------------------------------------------------------*/
FoamFile
{
    version     2.0;
    format      ascii;
    class       volScalarField;
    location    "0.45";
    object      alpha.air;
}
// * * * * * * * * * * * * * * * * * * * * * * * * * * * * * * * * * * * * * //

dimensions      [0 0 0 0 0 0 0];

internalField   nonuniform List<scalar> 
2268
(
1.30183e-14
1.35274e-14
1.12446e-14
1.88387e-14
1.11088e-14
1.58744e-14
2.02827e-14
1.65118e-14
1.38608e-14
1.57435e-14
2.44022e-14
2.80144e-14
2.42403e-14
1.74734e-14
1.06025e-14
7.37096e-15
6.09648e-15
5.44127e-15
4.61199e-15
3.4163e-15
2.07827e-15
9.08658e-16
1.87102e-16
1.56488e-13
1.60896e-13
1.3914e-13
2.06128e-13
1.36713e-13
1.77232e-13
2.08758e-13
1.7608e-13
1.58435e-13
1.75114e-13
2.31714e-13
2.47791e-13
2.23851e-13
1.76799e-13
1.2567e-13
9.28372e-14
7.42474e-14
6.09546e-14
4.71636e-14
3.22494e-14
1.74173e-14
6.67796e-15
1.50972e-15
9.3206e-13
9.49758e-13
8.57273e-13
1.15176e-12
8.40861e-13
9.9424e-13
1.07172e-12
9.07223e-13
8.36737e-13
8.81538e-13
1.00671e-12
1.01586e-12
9.64588e-13
8.52125e-13
6.96935e-13
5.42736e-13
4.29709e-13
3.31549e-13
2.41208e-13
1.5208e-13
7.74417e-14
2.89373e-14
7.54213e-15
3.96655e-12
4.06e-12
3.86425e-12
4.91909e-12
3.83837e-12
4.22878e-12
4.1638e-12
3.28957e-12
2.80132e-12
2.66621e-12
2.71019e-12
2.64853e-12
2.60646e-12
2.4423e-12
2.18762e-12
1.79769e-12
1.44892e-12
1.10541e-12
7.77412e-13
4.66205e-13
2.19248e-13
7.34426e-14
1.54133e-14
1.58014e-11
1.68811e-11
1.72458e-11
2.21794e-11
1.86248e-11
1.99231e-11
1.83241e-11
1.25958e-11
7.47736e-12
5.91651e-12
5.38798e-12
5.0601e-12
5.10513e-12
5.07967e-12
4.75886e-12
3.97127e-12
3.17197e-12
2.41537e-12
1.67563e-12
1.0102e-12
4.89226e-13
1.63315e-13
3.51831e-14
1.46094e-10
1.61846e-10
1.7604e-10
1.98823e-10
1.91062e-10
1.90278e-10
1.50133e-10
8.25081e-11
1.82354e-11
1.13218e-11
9.45071e-12
8.58745e-12
9.36327e-12
1.08507e-11
1.11168e-11
7.81895e-12
5.50208e-12
3.91091e-12
2.65309e-12
1.63569e-12
8.47239e-13
3.17991e-13
6.7895e-14
2.57299e-10
2.78417e-10
3.01191e-10
3.00794e-10
2.98656e-10
2.70102e-10
1.8399e-10
8.71128e-11
2.26475e-11
2.17052e-11
1.76224e-11
1.7202e-11
2.23307e-11
3.44206e-11
4.33748e-11
2.14879e-11
1.00907e-11
5.56881e-12
3.42332e-12
2.08199e-12
1.15171e-12
5.03349e-13
1.35608e-13
2.25921e-10
2.2315e-10
2.20408e-10
2.14528e-10
1.98693e-10
1.50657e-10
9.86557e-11
5.12446e-11
2.48643e-11
8.66217e-11
2.04776e-10
3.23022e-10
4.58705e-10
7.97445e-10
5.68601e-10
2.11201e-10
3.22638e-11
7.5475e-12
4.1312e-12
2.30216e-12
1.32492e-12
6.64744e-13
2.22378e-13
1.9724e-05
8.69034e-06
1.07801e-06
6.3248e-07
2.6119e-06
4.19933e-06
2.93512e-06
3.3458e-06
7.40284e-06
6.05933e-06
5.62843e-07
5.22348e-07
5.12115e-07
1.01407e-06
3.80064e-06
7.79961e-06
5.45712e-06
1.44637e-05
0.000218823
2.00217e-05
1.15421e-05
1.48083e-06
1.11081e-05
2.74608e-05
3.05192e-05
3.04228e-05
8.64165e-05
0.000291482
0.000472466
0.00030645
0.000218695
8.70539e-06
2.61144e-06
2.12453e-05
6.772e-05
2.81645e-05
1.64578e-05
0.000205339
1.4259e-05
6.98933e-06
2.67448e-06
1.30428e-05
0.000165593
0.00137954
0.00193885
0.0414279
0.0778396
0.0998662
0.0603453
0.0229453
0.00153795
0.000103536
0.000133115
6.88212e-05
1.16699e-05
7.12463e-06
6.32658e-05
2.72628e-06
1.61931e-06
3.86265e-06
3.00715e-05
0.00586661
0.119836
0.584385
0.799741
0.822788
0.86169
0.782169
0.53714
0.12356
0.00868004
0.000467413
1.42471e-05
5.78163e-06
5.79595e-06
8.65814e-06
2.52374e-06
1.26768e-06
3.56524e-06
1.92621e-05
0.0368067
0.581113
0.965119
0.998823
0.999021
0.999104
0.998905
0.98959
0.722975
0.133622
0.00443337
4.38782e-05
5.79774e-06
5.80037e-06
5.81111e-06
1.44057e-05
2.31341e-06
2.48654e-06
1.51445e-05
0.0415973
0.242901
0.683542
0.95789
0.998883
0.999104
0.998717
0.973402
0.79706
0.28817
0.0155491
0.000112938
5.80322e-06
5.81295e-06
5.80931e-06
2.56229e-05
9.40716e-06
2.53709e-06
7.73519e-05
0.000932632
0.0133906
0.135878
0.541179
0.921088
0.997314
0.997819
0.856152
0.325431
0.0487821
0.0047974
8.12136e-05
5.8159e-06
5.81674e-06
5.83035e-06
0.0193914
0.00276767
2.85592e-05
2.62813e-05
9.71314e-05
0.00104746
0.015487
0.13447
0.560817
0.926244
0.946599
0.637586
0.122727
0.00948151
0.00327999
0.00129086
0.000120465
1.27547e-05
6.34343e-06
4.05499e-10
4.3585e-10
5.0196e-10
5.51754e-10
6.00291e-10
6.79367e-10
6.86145e-10
7.78217e-10
1.24016e-09
1.81268e-09
2.68676e-09
3.65572e-09
4.51785e-09
6.1848e-09
5.91282e-09
4.60457e-09
2.11061e-09
3.71832e-10
3.26029e-11
1.35281e-11
3.29796e-12
1.54794e-12
4.4995e-13
2.09789e-09
2.16244e-09
2.27431e-09
2.38115e-09
2.61455e-09
3.2547e-09
6.06521e-09
4.67408e-09
5.10218e-09
4.85266e-09
5.99644e-09
7.93486e-09
9.78489e-09
1.27172e-08
1.28525e-08
1.28515e-08
8.81121e-09
3.02771e-09
7.15054e-10
1.77589e-10
5.84082e-11
1.11153e-11
2.75122e-12
1.97169e-07
1.91109e-07
1.79247e-07
1.63698e-07
1.43061e-07
1.30329e-07
1.19064e-07
2.87395e-08
9.68632e-09
6.53517e-09
6.15159e-09
6.38798e-09
7.19108e-09
6.89211e-09
7.87283e-09
1.23687e-08
1.26133e-08
1.14712e-08
5.50766e-09
1.28821e-09
4.73535e-10
2.08128e-10
7.36158e-11
7.31149e-05
6.72581e-05
5.07962e-05
3.2601e-05
1.51343e-05
3.52445e-06
6.10651e-07
4.48372e-07
4.1549e-07
5.2449e-07
1.25548e-07
1.50488e-08
9.09243e-09
6.4126e-09
3.32145e-09
3.23896e-09
3.77356e-09
4.79418e-09
4.08339e-09
2.39577e-09
1.22635e-09
7.64865e-10
3.3949e-10
0.0256479
0.0241263
0.0203528
0.0153874
0.00940618
0.00340176
0.00056592
0.000382724
0.000498981
0.000536157
0.000138669
1.72375e-05
3.83949e-06
1.21804e-06
2.18882e-07
2.59412e-08
9.34636e-09
4.71943e-09
2.91136e-09
2.13879e-09
1.23276e-09
1.06855e-09
6.73707e-10
0.574056
0.563105
0.534336
0.483954
0.390396
0.226409
0.0761516
0.0491996
0.0575697
0.0532873
0.0188042
0.00504838
0.00160596
0.000663272
0.000241889
6.32217e-05
6.37793e-06
8.28925e-07
1.91775e-07
4.1506e-08
7.97625e-09
1.54344e-08
6.7176e-08
0.9998
0.999767
0.999647
0.999274
0.997791
0.985943
0.867524
0.662425
0.582515
0.407456
0.199122
0.0820432
0.031849
0.0148165
0.00758345
0.00406504
0.00371665
0.002207
0.000897942
0.00146886
0.000916537
0.00103635
0.000840593
0.999999
0.999999
0.999999
0.999999
0.999998
0.99999
0.999881
0.998371
0.998363
0.984753
0.929108
0.810677
0.651745
0.507029
0.382473
0.254342
0.154121
0.0866332
0.0435677
0.0488327
0.0353273
0.0348756
0.0322573
0.999999
0.999999
0.999999
0.999999
0.999997
0.999996
0.999998
0.999999
0.999997
0.999998
0.999998
0.999997
0.999987
0.999873
0.998643
0.989469
0.957705
0.891921
0.792694
0.770262
0.631795
0.650237
0.586441
0.999999
0.999999
0.999999
0.999998
0.999998
0.999999
0.999999
1
1
1
1
0.999999
0.999999
0.999999
0.999999
0.999999
0.999999
0.999999
0.999999
0.999996
0.999983
0.999927
0.999783
0.999999
0.999999
0.999999
0.999999
0.999999
0.999999
0.999999
0.999999
1
1
1
1
0.999999
0.999999
0.999999
0.999999
0.999999
0.999999
0.999999
0.999999
0.999999
0.999999
1
0.999999
0.999999
0.999999
0.999999
0.999999
0.999999
0.999999
0.999999
0.999999
1
1
1
0.999999
0.999999
0.999999
0.999999
0.999999
0.999999
0.999999
1
1
1
0.999999
0.999998
0.999998
0.999999
0.999999
0.999999
0.999999
0.999999
0.999999
0.999999
1
1
1
0.999999
0.999999
0.999999
0.999999
0.999999
1
1
1
1
0.999999
0.999999
0.999999
0.999999
0.999999
0.999999
0.999999
0.999999
0.999999
0.999999
1
1
1
1
0.999999
0.999999
0.999999
1
1
1
1
1
0.999999
1
0.999999
0.999999
0.999999
0.999999
0.999999
0.999999
0.999999
0.999999
1
1
1
1
1
1
1
1
1
1
1
1
1
1
0.999999
0.999999
0.999999
0.999999
0.999999
0.999999
0.999999
0.999999
1
1
1
1
1
1
1
1
1
1
1
1
1
1
1
0.999999
0.999999
0.999999
0.999999
0.999999
0.999999
0.999999
1
1
1
1
1
1
1
1
1
1
1
1
1
1
1
1
0.999999
0.999999
0.999999
0.999999
0.999999
0.999999
1
1
1
1
1
1
1
1
1
1
1
1
1
1
1
1
1
1
0.999999
0.999999
0.999999
0.999999
1
1
1
1
1
1
1
1
1
1
0.999999
1
1
1
1
1
1
1
1
0.999999
0.999999
0.999999
0.999999
1
1
1
1
1
1
1
1
1
1
0.999999
0.999999
1
1
1
1
1
1
1
1
0.999999
0.999999
0.999999
1
1
1
1
1
1
1
1
1
1
0.999999
0.999999
0.999999
1
1
1
1
1
1
1
0.999999
0.999999
1
1
1
1
1
1
1
1
1
1
1
1
0.999999
0.999999
0.999999
0.999999
1
1
1
1
1
0.999999
0.999999
1
1
1
1
1
1
1
1
1
1
1
1
1
0.999999
0.999999
0.999999
0.999999
0.999999
0.999999
0.999999
0.999999
0.999999
1
1
1
1
1
1
1
1
1
1
1
1
1
0.999999
1
0.999999
0.999999
0.999999
0.999998
0.999998
0.999998
0.999998
0.999999
1
1
1
1
1
1
1
1
1
1
1
1
1
1
0.999999
0.999999
0.999999
0.999998
0.999998
0.999998
0.999997
0.999998
1
1
1
1
1
1
1
1
1
1
1
1
1
1
1
1
0.999999
0.999999
0.999999
0.999998
0.999998
0.999997
0.999997
1
1
1
1
1
1
1
1
1
1
1
1
1
1
1
1
1
0.999999
0.999999
0.999998
0.999998
0.999997
0.999997
1
1
1
1
1
1
1
1
1
1
1
1
1
1
1
1
1
0.999999
0.999999
0.999999
0.999998
0.999998
0.999997
1
1
1
1
1
1
1
1
1
1
1
1
1
1
1
1
1
0.999999
0.999999
0.999999
0.999998
0.999997
0.999997
1
1
1
1
1
1
1
1
1
1
1
1
1
1
1
1
1
0.999999
0.999999
0.999999
0.999998
0.999998
0.999997
1
1
1
1
1
1
1
1
1
1
1
1
1
1
1
1
1
1
0.999999
0.999999
0.999999
0.999998
0.999998
1
1
1
1
1
1
1
1
1
1
1
1
1
1
1
1
1
1
0.999999
0.999999
0.999999
0.999999
0.999998
1
1
1
1
1
1
1
1
1
1
1
1
1
1
1
1
1
0.999999
0.999999
0.999999
0.999999
0.999999
0.999999
1
1
1
1
1
1
1
1
1
1
1
1
1
1
1
1
1
0.999999
0.999999
0.999999
0.999999
1
0.999999
1
1
1
1
1
1
1
1
1
1
1
1
1
1
1
0.999999
0.999999
0.999999
0.999999
0.999999
0.999999
0.999999
0.999999
1
1
1
1
1
1
1
1
1
1
1
1
1
1
1
1
0.999999
0.999999
0.999999
0.999999
0.999999
1
0.999999
1
1
1
1
1
1
1
1
1
1
1
1
1
1
1
0.999999
0.999999
0.999999
0.999999
0.999999
1
0.999999
1
1
1
1
1
1
1
1
1
1
1
1
1
1
1
1
0.999999
0.999999
0.999999
0.999999
0.999999
0.999999
1
0.999999
1
1
1
1
1
1
1
1
1
1
1
1
1
1
1
1
0.999999
0.999999
0.999999
0.999999
0.999999
1
1
1
1
1
1
1
1
1
1
1
1
1
1
1
1
1
1
1
0.999999
0.999999
0.999999
1
1
1
1
1
1
1
1
1
1
1
1
1
1
1
1
1
1
1
1
1
1
1
1
1
0.999999
1
1
1
1
1
1
1
1
1
1
1
1
1
1
1
1
1
1
1
1
1
1
1
4.95413e-07
0.00215966
0.068439
0.266863
3.10009e-07
0.000246697
0.010585
0.0628702
2.05534e-08
7.76117e-06
0.000357653
0.000727686
4.87478e-10
1.0806e-08
1.77553e-07
8.3421e-07
5.59949e-10
9.90021e-10
8.96706e-09
4.27322e-08
4.12418e-07
1.97633e-06
9.79642e-06
2.68692e-05
0.00102849
0.00191936
0.00416926
0.00739678
0.032508
0.0439471
0.069963
0.102848
0.597319
0.65874
0.765643
0.857037
0.99978
0.999844
0.999943
0.99999
0.999999
0.999999
0.999999
1
0.999999
1
1
1
0.999999
0.999999
1
1
0.999999
1
1
1
0.999999
0.999999
1
1
0.999999
0.999999
0.999999
0.999999
0.999999
0.999999
0.999999
0.999999
0.999998
0.999999
0.999999
0.999999
0.999999
0.999999
0.999999
0.999999
0.999999
1
1
1
1
1
1
1
1
1
1
1
0.999999
1
1
1
0.999999
1
0.999999
1
0.999998
0.999998
0.999999
0.999999
0.999998
0.999999
0.999998
0.999999
0.999996
0.999997
0.999999
0.999998
0.999997
0.999998
0.999997
0.999998
0.999996
0.999997
0.999998
0.999997
0.999998
0.999998
0.999997
0.999998
0.999997
0.999997
0.999998
0.999997
0.999998
0.999999
0.999998
0.999998
0.999998
0.999998
0.999999
0.999998
0.999999
1
0.999998
0.999998
0.999998
0.999998
0.999999
0.999998
0.999999
1
0.999999
0.999999
0.999999
0.999999
1
0.999999
0.999999
1
0.999999
0.999999
0.999999
0.999999
1
0.999999
0.999999
0.999999
0.999999
0.999999
0.999999
0.999998
0.999999
0.999999
0.999999
0.999999
0.999999
1
0.193339
0.0563257
0.0119544
0.00138632
0.000191901
0.00054612
0.0043006
0.0273242
0.16679
0.422294
0.403128
0.204253
0.0280466
0.00760418
0.0362949
0.204293
0.0685937
0.00348919
0.000505135
0.126706
0.129082
0.0887124
0.0189966
0.00351246
0.00104618
0.00178427
0.00317581
0.00648672
0.0101459
0.00867011
0.00371992
0.0013412
0.00719122
0.185828
0.214197
0.108151
0.00333238
0.000434931
0.00711103
0.029622
0.0458673
0.0463782
0.0187888
0.00398416
0.000739162
0.000181525
0.000126865
8.9583e-05
9.20009e-05
9.28276e-05
0.000371457
0.0694086
0.188242
0.188731
0.0319982
0.00100606
0.000434933
1.07247e-05
9.24255e-05
0.000774101
0.0112437
0.0144527
0.00859004
0.00157885
8.36743e-05
4.22505e-05
4.23258e-05
6.34597e-05
0.00192637
0.0113772
0.11717
0.0767984
0.0467099
0.00629556
0.00333842
0.0130195
9.07244e-07
4.88629e-06
5.96084e-06
8.96615e-06
8.41406e-05
0.000336945
0.000291381
0.000116651
4.26145e-05
0.000205542
0.00652834
0.0650098
0.170205
0.083217
0.00546549
0.003261
0.0151459
0.0489173
0.0563518
0.00019185
0.00150161
0.00147022
0.000731663
0.00010512
9.18151e-06
9.00083e-06
2.33648e-05
0.000282849
0.0129937
0.166507
0.657687
0.522118
0.0417084
0.00172002
0.0019616
0.0242812
0.0429081
0.0319764
0.0230025
0.0735768
0.0777565
0.0462682
0.0137496
0.00125988
0.000744115
0.00132755
0.0254203
0.206233
0.751462
0.981334
0.829591
0.121928
0.00169488
0.00177615
0.00935421
0.00824988
0.00390766
0.217589
0.508545
0.590306
0.413742
0.19307
0.0762608
0.0599543
0.0847665
0.293033
0.807775
0.98955
0.999848
0.978904
0.657554
0.109728
0.00106793
0.000554993
0.000287301
5.17062e-05
0.955261
0.995499
0.99616
0.959333
0.760257
0.482156
0.418455
0.583868
0.913443
0.997447
0.999995
0.999999
0.999391
0.977995
0.728024
0.110993
0.000237055
2.74215e-06
1.58581e-06
0.999998
1
1
0.999995
0.999146
0.983764
0.979561
0.993301
0.999845
1
1
1
0.999998
0.999821
0.984858
0.668199
0.0372776
4.81639e-06
2.54432e-06
1
1
1
1
1
0.999999
0.999998
0.999998
1
1
1
1
1
1
0.99982
0.965501
0.454744
0.000417255
1.31177e-05
1
1
1
1
1
1
1
1
1
1
1
1
1
1
1
0.999407
0.90625
0.0818705
0.000138024
1
1
1
1
1
1
1
1
1
1
1
1
1
1
1
1
0.998745
0.472284
0.00480696
1
1
1
1
1
1
1
1
1
1
1
1
1
1
1
1
1
0.851455
0.065825
0.999999
1
1
1
1
1
1
1
1
1
1
1
1
1
1
1
1
0.934577
0.128478
0.999999
0.999999
1
1
1
1
1
1
1
1
1
1
1
1
1
1
1
0.915254
0.118658
0.999999
0.999999
0.999999
1
1
1
1
1
1
1
1
1
1
1
1
1
1
0.745694
0.0832609
0.999999
0.999999
0.999999
0.999999
1
1
1
1
1
1
1
1
1
1
1
1
1
0.393197
0.0356285
0.999999
0.999999
0.999999
0.999999
0.999999
0.999999
1
1
1
1
1
1
1
1
1
1
1
0.392847
0.024387
0.999999
0.999999
0.999999
0.999999
0.999999
0.999999
0.999999
0.999999
1
1
1
1
1
1
1
1
1
0.622857
0.0402475
1
1
0.999999
0.999999
0.999999
0.999999
0.999999
0.999999
0.999999
1
1
1
1
1
1
1
1
0.903005
0.0885147
1
1
0.999999
0.999999
0.999999
0.999999
0.999999
0.999999
0.999999
1
1
1
1
1
1
1
1
0.988037
0.133189
1
1
1
0.999999
0.999999
0.999999
0.999999
0.999999
0.999999
1
1
1
1
1
1
1
1
0.998947
0.181134
1
1
1
0.999999
0.999999
0.999999
0.999999
0.999999
0.999999
1
1
1
1
1
1
1
1
0.999904
0.238999
0.999999
0.999999
0.999999
0.999999
0.999999
0.999999
0.999999
0.999999
0.999999
1
1
1
1
1
1
1
1
0.999961
0.259249
0.999999
0.999999
0.999999
0.999999
0.999999
0.999999
0.999999
0.999999
0.999999
1
1
1
1
1
1
0.999996
1
0.999967
0.296843
0.999998
0.999998
0.999998
0.999999
0.999999
0.999999
0.999999
0.999999
0.999999
1
1
1
1
1
1
0.999966
0.999998
0.999969
0.510892
0.999998
0.999998
0.999998
0.999998
0.999998
0.999998
0.999999
0.999999
1
1
1
1
1
1
1
0.999961
0.999967
0.999958
0.852534
0.999997
0.999997
0.999997
0.999998
0.999998
0.999998
0.999999
0.999999
1
1
1
1
1
1
1
0.999966
0.999628
0.999893
0.988779
0.999997
0.999997
0.999997
0.999997
0.999997
0.999998
0.999999
0.999999
1
1
1
1
1
1
1
0.999976
0.999181
0.99366
0.979097
0.999997
0.999997
0.999997
0.999997
0.999997
0.999998
0.999999
0.999999
1
1
1
1
1
1
1
0.999967
0.998358
0.944545
0.708437
0.999997
0.999997
0.999997
0.999997
0.999998
0.999998
0.999999
0.999999
1
1
1
1
1
1
1
0.999909
0.996041
0.901892
0.167617
0.999998
0.999997
0.999997
0.999997
0.999998
0.999999
0.999999
1
1
1
0.999999
0.999999
1
1
1
0.999839
0.987085
0.82746
0.017672
0.999998
0.999997
0.999997
0.999998
0.999998
0.999999
0.999999
1
0.999999
0.999999
0.999999
0.999999
0.999999
1
1
0.99993
0.981599
0.589387
0.0141737
0.999998
0.999998
0.999998
0.999998
0.999999
0.999999
0.999999
0.999999
0.999999
0.999999
0.999999
0.999999
0.999999
1
1
0.999998
0.99313
0.507052
0.0141737
0.999998
0.999998
0.999998
0.999998
0.999999
0.999999
0.999999
0.999999
0.999999
0.999999
0.999999
0.999999
1
1
1
1
0.999421
0.616174
0.0141737
0.999999
0.999999
0.999999
0.999999
0.999999
0.999999
0.999999
0.999999
0.999999
0.999999
0.999999
0.999999
1
1
1
1
0.99998
0.848898
0.0211011
0.999999
0.999999
0.999999
0.999999
0.999999
0.999999
0.999999
0.999999
0.999999
0.999999
0.999999
0.999999
0.999999
1
1
1
0.999999
0.974959
0.102444
0.999999
0.999999
0.999999
0.999999
0.999999
0.999999
0.999999
0.999999
0.999999
0.999999
0.999999
0.999999
0.999999
0.999999
0.999999
0.999998
0.999999
0.997981
0.25962
0.999999
0.999999
0.999999
0.999999
0.999999
0.999999
0.999999
0.999998
0.999998
0.999999
0.999999
0.999999
0.999999
0.999999
0.999999
0.999998
0.999999
0.999929
0.421156
0.999999
0.999999
0.999999
0.999999
0.999999
0.999999
0.999999
0.999999
0.999999
0.999999
0.999999
0.999999
0.999999
0.999999
0.999999
0.999999
1
0.999998
0.635606
1
1
1
1
1
1
0.999999
0.999999
0.999999
1
1
1
1
1
1
1
1
1
0.86738
)
;

boundaryField
{
    leftWall
    {
        type            alphaContactAngle;
        thetaProperties 6 ( ( water mercury ) 90 0 0 0 ( water air ) 90 0 0 0 ( water oil ) 90 0 0 0 ( mercury air ) 90 0 0 0 ( oil mercury ) 90 0 0 0 ( oil air ) 90 0 0 0 );
        value           nonuniform List<scalar> 
50
(
1.30183e-14
1.56488e-13
9.3206e-13
3.96655e-12
1.58014e-11
1.46094e-10
2.57299e-10
2.25921e-10
4.05499e-10
2.09789e-09
1.97169e-07
7.31149e-05
0.0256479
0.574056
0.9998
0.999999
0.999999
0.999999
0.999999
0.999999
0.999998
0.999999
0.999999
0.999999
0.999999
0.999999
0.999999
0.999999
0.999999
0.999999
0.999999
0.999999
0.999999
1
1
1
1
1
1
1
1
1
1
1
1
1
1
1
1
1
)
;
    }
    rightWall
    {
        type            alphaContactAngle;
        thetaProperties 6 ( ( water mercury ) 90 0 0 0 ( water air ) 90 0 0 0 ( water oil ) 90 0 0 0 ( mercury air ) 90 0 0 0 ( oil mercury ) 90 0 0 0 ( oil air ) 90 0 0 0 );
        value           nonuniform List<scalar> 
50
(
0.000218823
0.000205339
6.32658e-05
8.65814e-06
5.81111e-06
5.80931e-06
5.83035e-06
6.34343e-06
0.000505135
0.000434931
0.000434933
0.0130195
0.0563518
0.0319764
0.00390766
5.17062e-05
1.58581e-06
2.54432e-06
1.31177e-05
0.000138024
0.00480696
0.065825
0.128478
0.118658
0.0832609
0.0356285
0.024387
0.0402475
0.0885147
0.133189
0.181134
0.238999
0.259249
0.296843
0.510892
0.852534
0.988779
0.979097
0.708437
0.167617
0.017672
0.0141737
0.0141737
0.0141737
0.0211011
0.102444
0.25962
0.421156
0.635606
0.86738
)
;
    }
    lowerWall
    {
        type            alphaContactAngle;
        thetaProperties 6 ( ( water mercury ) 90 0 0 0 ( water air ) 90 0 0 0 ( water oil ) 90 0 0 0 ( mercury air ) 90 0 0 0 ( oil mercury ) 90 0 0 0 ( oil air ) 90 0 0 0 );
        value           nonuniform List<scalar> 
62
(
1.30183e-14
1.35274e-14
1.12446e-14
1.88387e-14
1.11088e-14
1.58744e-14
2.02827e-14
1.65118e-14
1.38608e-14
1.57435e-14
2.44022e-14
2.80144e-14
2.42403e-14
1.74734e-14
1.06025e-14
7.37096e-15
6.09648e-15
5.44127e-15
4.61199e-15
3.4163e-15
2.07827e-15
9.08658e-16
1.87102e-16
1.87102e-16
1.50972e-15
7.54213e-15
1.54133e-14
3.51831e-14
6.7895e-14
1.35608e-13
2.22378e-13
4.95413e-07
0.00215966
0.068439
0.266863
1.9724e-05
2.00217e-05
1.4259e-05
2.72628e-06
2.52374e-06
1.44057e-05
2.56229e-05
0.0193914
1.9724e-05
8.69034e-06
1.07801e-06
6.3248e-07
2.6119e-06
4.19933e-06
2.93512e-06
3.3458e-06
7.40284e-06
6.05933e-06
5.62843e-07
5.22348e-07
5.12115e-07
1.01407e-06
3.80064e-06
7.79961e-06
5.45712e-06
1.44637e-05
0.000218823
)
;
    }
    atmosphere
    {
        type            inletOutlet;
        inletValue      uniform 1;
        value           nonuniform List<scalar> 
46
(
1
1
1
1
1
1
1
1
1
1
1
1
1
1
1
1
1
1
1
1
1
1
1
1
1
1
1
1
1
1
1
1
1
1
1
1
1
1
1
1
1
1
1
1
1
0.86738
)
;
    }
    defaultFaces
    {
        type            empty;
    }
}


// ************************************************************************* //
