/*--------------------------------*- C++ -*----------------------------------*\
| =========                 |                                                 |
| \\      /  F ield         | OpenFOAM: The Open Source CFD Toolbox           |
|  \\    /   O peration     | Version:  2.4.0                                 |
|   \\  /    A nd           | Web:      www.OpenFOAM.org                      |
|    \\/     M anipulation  |                                                 |
\*---------------------------------------------------------------------------*/
FoamFile
{
    version     2.0;
    format      ascii;
    class       volScalarField;
    location    "0.45";
    object      alphas;
}
// * * * * * * * * * * * * * * * * * * * * * * * * * * * * * * * * * * * * * //

dimensions      [0 0 0 0 0 0 0];

internalField   nonuniform List<scalar> 
2268
(
2
2
2
2
2
2
2
2
2
2
2
2
2
2
2
2
2
2
2
2
2
2
1.99998
2
2
2
2
2
2
2
2
2
2
2
2
2
2
2
2
2
2
2
2
2
2
1.99998
2
2
2
2
2
2
2
2
2
2
2
2
2
2
2
2
2
2
2
2
2
2
1.99998
1.99997
1.99996
1.99997
1.99992
1.99996
1.99992
1.99982
1.99983
1.99975
1.99958
1.99917
1.99906
1.99884
1.99913
1.99955
1.99987
1.99996
1.99999
2
2
2
2
1.99998
1.9856
1.98429
1.98517
1.977
1.98101
1.97292
1.95968
1.95674
1.94263
1.92341
1.89137
1.87432
1.85037
1.86003
1.88566
1.95341
1.99091
1.99905
1.99991
1.99999
2
2
1.99998
1.49869
1.47929
1.4794
1.39048
1.40472
1.31599
1.19417
1.13101
1.01757
0.892176
0.739631
0.632447
0.540622
0.49672
0.467984
0.567876
0.919933
1.58414
1.95349
1.99838
1.99997
2
1.99997
0.161186
0.150807
0.145338
0.109828
0.104896
0.0751849
0.0459858
0.0314614
0.0177424
0.00841191
0.00334158
0.00127506
0.000510578
0.000232742
0.000110573
0.000899815
0.0327366
0.335271
1.45345
1.96031
1.99928
1.99999
1.99997
0.000603831
0.000560639
0.000500112
0.000404297
0.000334437
0.000241089
0.000173278
0.000124972
8.71422e-05
6.19024e-05
4.48601e-05
3.23675e-05
2.44194e-05
2.13353e-05
2.18342e-05
3.06492e-05
0.000108887
0.0106894
0.467692
1.74864
1.99252
1.9999
1.99996
1.00068
1.00067
1.00067
1.00134
1.00495
1.01309
1.02818
1.04848
1.0708
1.0963
1.1351
1.19675
1.24407
1.24529
1.24657
1.24793
1.24926
1.25062
1.2523
1.00067
1.00021
1.00007
1.00007
1.00007
1.00007
1.00007
1.00018
1.0006
1.00098
1.00077
1.0051
1.04067
1.11384
1.15454
1.19263
1.24635
1.25173
1.2535
1.00038
1.00005
1.00002
1.00004
1.00034
1.00277
1.00389
1.08287
1.15569
1.19974
1.12073
1.04776
1.02892
1.05238
1.0534
1.04634
1.0433
1.16964
1.25457
1.00018
1.00003
1.00002
1.00007
1.01174
1.23968
2.16877
2.59948
2.64558
2.72338
2.56438
2.07564
1.27411
1.06698
1.04865
1.03659
1.01655
1.03655
1.25575
1.00045
1.0003
1.00009
1.00006
1.07371
2.16231
2.93026
2.99765
2.99805
2.99821
2.99802
2.98118
2.46903
1.32222
1.05439
1.03014
1.01246
1.00414
1.20354
1.00526
1.00454
1.00221
1.00099
1.08562
1.4889
2.36888
2.91613
2.99778
2.99821
2.99783
2.96537
2.65716
1.63533
1.07184
1.02013
1.00671
1.00059
1.14563
1.02977
1.02814
1.01837
1.01268
1.01642
1.04532
1.29107
2.09667
2.84524
2.99471
2.9962
2.76998
1.74524
1.16348
1.03966
1.00865
1.00154
0.999953
1.09193
1.14097
1.10369
1.07489
1.06156
1.05428
1.05182
1.0848
1.32614
2.16339
2.86377
2.90782
2.36832
1.32925
1.0557
1.02103
1.00151
0.998794
0.999814
1.0462
9.35162e-05
8.94802e-05
8.30094e-05
7.60497e-05
6.63809e-05
5.53061e-05
4.80481e-05
3.9451e-05
3.28799e-05
2.87733e-05
2.6576e-05
2.42405e-05
2.34139e-05
2.12845e-05
2.37848e-05
2.92626e-05
6.45639e-05
0.000597905
0.0481248
0.707003
1.78873
1.98348
1.9992
3.79271e-06
3.6997e-06
3.59473e-06
3.47662e-06
3.28543e-06
2.98614e-06
2.92546e-06
2.73106e-06
2.80838e-06
3.07208e-06
3.42159e-06
3.70455e-06
3.91057e-06
4.25157e-06
4.6137e-06
6.68509e-06
3.13504e-05
0.000202319
0.00155963
0.0597174
0.724874
1.58691
1.91655
1.31047e-06
1.26924e-06
1.21764e-06
1.1495e-06
1.05788e-06
9.31412e-07
9.10263e-07
9.06273e-07
1.0914e-05
0.000107219
0.000249049
0.000293795
0.000221534
0.000235667
0.000155469
6.94295e-05
4.20448e-05
8.72388e-05
0.000439812
0.00394661
0.0839322
0.414312
1.03697
0.000219378
0.000201806
0.00015242
9.78342e-05
4.54334e-05
1.06011e-05
2.5839e-06
0.000166014
0.00302581
0.0137614
0.0224813
0.0243695
0.0216056
0.0222654
0.0172351
0.00923585
0.00461317
0.00221733
0.000953894
0.00128913
0.00491088
0.0303333
0.122517
0.0769436
0.0723789
0.0610583
0.0461623
0.0282185
0.0102054
0.00180908
0.00982343
0.0773613
0.198305
0.259483
0.278543
0.282467
0.303087
0.296463
0.254805
0.18376
0.114411
0.0603362
0.0321683
0.013948
0.0156664
0.0175716
1.72217
1.68932
1.60301
1.45186
1.17119
0.679229
0.229867
0.208006
0.474429
0.726648
0.761369
0.784672
0.816255
0.860653
0.883079
0.889421
0.836979
0.721056
0.554838
0.443825
0.324294
0.234206
0.175956
2.9994
2.9993
2.99894
2.99782
2.99337
2.95783
2.60447
2.07587
2.07011
1.78831
1.37852
1.15302
1.05956
1.0277
1.01377
1.0068
1.00578
1.00126
0.979635
0.979176
0.92192
0.858428
0.755085
3
3
3
3
3
2.99997
2.99971
2.9961
2.99672
2.96949
2.85818
2.6213
2.30343
2.01401
1.76491
1.50865
1.30822
1.17324
1.08709
1.09752
1.06945
1.06723
1.06025
3
3
3
3
2.99999
2.99999
3
3
2.99999
2.99999
3
2.99999
2.99997
2.99975
2.99729
2.97894
2.91541
2.78384
2.58539
2.54052
2.26358
2.30046
2.17285
3
3
3
3
3
3
3
3
3
3
3
3
3
3
3
3
3
3
3
2.99999
2.99996
2.99985
2.99957
3
3
3
3
3
3
3
3
3
3
3
3
3
3
3
3
3
3
3
3
3
3
3
3
3
3
3
3
3
3
3
3
3
3
3
3
3
3
3
3
3
3
3
3
3
3
3
3
3
3
3
3
3
3
3
3
3
3
3
3
3
3
3
3
3
3
3
3
3
3
3
3
3
3
3
3
3
3
3
3
3
3
3
3
3
3
3
3
3
3
3
3
3
3
3
3
3
3
3
3
3
3
3
3
3
3
3
3
3
3
3
3
3
3
3
3
3
3
3
3
3
3
3
3
3
3
3
3
3
3
3
3
3
3
3
3
3
3
3
3
3
3
3
3
3
3
3
3
3
3
3
3
3
3
3
3
3
3
3
3
3
3
3
3
3
3
3
3
3
3
3
3
3
3
3
3
3
3
3
3
3
3
3
3
3
3
3
3
3
3
3
3
3
3
3
3
3
3
3
3
3
3
3
3
3
3
3
3
3
3
3
3
3
3
3
3
3
3
3
3
3
3
3
3
3
3
3
3
3
3
3
3
3
3
3
3
3
3
3
3
3
3
3
3
3
3
3
3
3
3
3
3
3
3
3
3
3
3
3
3
3
3
3
3
3
3
3
3
3
3
3
3
3
3
3
3
3
3
3
3
3
3
3
3
3
3
3
3
3
3
3
3
3
3
3
3
3
3
3
3
3
3
3
3
3
3
3
3
3
3
3
3
3
3
3
3
3
3
3
2.99999
3
2.99999
3
3
3
3
3
3
3
3
3
3
3
3
3
3
3
3
3
3
3
2.99999
2.99999
2.99999
2.99999
3
3
3
3
3
3
3
3
3
3
3
3
3
3
3
3
3
3
3
2.99999
2.99999
2.99999
2.99999
3
3
3
3
3
3
3
3
3
3
3
3
3
3
3
3
3
3
3
2.99999
2.99999
2.99999
2.99999
3
3
3
3
3
3
3
3
3
3
3
3
3
3
3
3
3
3
3
3
2.99999
2.99999
2.99999
3
3
3
3
3
3
3
3
3
3
3
3
3
3
3
3
3
3
3
3
2.99999
2.99999
2.99999
3
3
3
3
3
3
3
3
3
3
3
3
3
3
3
3
3
3
3
3
3
2.99999
2.99999
3
3
3
3
3
3
3
3
3
3
3
3
3
3
3
3
3
3
3
3
3
2.99999
2.99999
3
3
3
3
3
3
3
3
3
3
3
3
3
3
3
3
3
3
3
3
3
3
2.99999
3
3
3
3
3
3
3
3
3
3
3
3
3
3
3
3
3
3
3
3
3
3
3
3
3
3
3
3
3
3
3
3
3
3
3
3
3
3
3
3
3
3
3
3
3
3
3
3
3
3
3
3
3
3
3
3
3
3
3
3
3
3
3
3
3
3
3
3
3
3
3
3
3
3
3
3
3
3
3
3
3
3
3
3
3
3
3
3
3
3
3
3
3
3
3
3
3
3
3
3
3
3
3
3
3
3
3
3
3
3
3
3
3
3
3
3
3
3
3
3
3
3
3
3
3
3
3
3
3
3
3
3
3
3
3
3
3
3
3
3
3
3
3
3
3
3
3
3
3
3
3
3
3
3
3
3
3
3
3
3
3
3
3
3
3
3
3
3
3
3
3
3
3
3
3
3
3
3
3
3
3
3
3
3
3
3
3
3
3
3
3
3
3
3
3
3
3
3
3
3
3
3
3
3
3
3
3
3
3
3
3
3
3
3
3
3
3
3
3
3
3
3
3
3
3
3
3
3
3
3
1.99532
1.98197
2.01217
2.07215
1.9948
1.99124
1.9854
1.99786
1.47128
1.6576
1.71759
1.71057
0.217164
0.286349
0.359437
0.45426
0.0205844
0.0239041
0.0293591
0.037481
0.14705
0.15084
0.16763
0.189036
0.694532
0.703069
0.734426
0.768345
1.06019
1.08332
1.13582
1.20155
2.1946
2.31744
2.53125
2.71404
2.99956
2.99969
2.99989
2.99998
3
3
3
3
3
3
3
3
3
3
3
3
3
3
3
3
3
3
3
3
3
3
3
3
3
3
3
3
3
3
3
3
3
3
3
3
3
3
3
3
3
3
3
3
3
3
3
3
3
3
3
3
3
3
3
3
2.99999
2.99999
3
3
2.99999
3
2.99999
3
2.99999
2.99999
3
2.99999
2.99999
2.99999
2.99999
2.99999
2.99999
2.99999
2.99999
2.99999
2.99999
3
2.99999
2.99999
2.99999
2.99999
3
2.99999
3
3
2.99999
2.99999
2.99999
2.99999
3
2.99999
3
3
2.99999
2.99999
2.99999
2.99999
3
2.99999
3
3
3
3
3
3
3
3
3
3
3
3
3
3
3
3
3
3
3
3
3
3
3
3
3
3
3
3
1.72846
1.39355
1.2478
1.19176
1.15422
1.1213
1.1169
1.16571
1.45145
1.95821
1.92823
1.51099
1.10058
1.01464
1.06873
1.40655
1.13634
1.00679
1.01649
1.95616
1.74413
1.52907
1.30772
1.21457
1.17268
1.15084
1.13509
1.13196
1.12336
1.0908
1.0043
0.964586
0.977224
1.35586
1.42648
1.21632
1.00668
1.00295
1.61203
1.40232
1.18857
1.05309
0.968759
0.970598
0.988814
0.969746
0.951852
0.916924
0.884404
0.872837
0.903148
1.08904
1.36541
1.37756
1.06422
1.00212
1.00154
0.451591
0.390065
0.352438
0.352612
0.407075
0.495318
0.564854
0.615377
0.644048
0.683157
0.753197
0.822173
0.899491
1.18587
1.15106
1.09346
1.01265
1.00675
1.02629
0.0618852
0.1091
0.145227
0.158484
0.181916
0.240834
0.309441
0.367939
0.465298
0.586023
0.733742
0.937956
1.27649
1.15386
1.01074
1.00657
1.03035
1.09788
1.11274
0.263787
0.405337
0.473223
0.458439
0.386112
0.296432
0.296907
0.337817
0.471078
0.621879
1.05268
2.24369
2.03853
1.08282
1.00345
1.00397
1.04862
1.08586
1.06398
0.846771
0.997761
1.00856
0.89286
0.711142
0.547201
0.511312
0.54506
0.66526
1.17245
2.44615
2.95908
2.6591
1.24385
1.0034
1.00358
1.01875
1.01654
1.00783
1.43177
2.0146
2.17467
1.78922
1.23832
0.895778
0.850808
0.924314
1.44244
2.58418
2.97759
2.99967
2.95781
2.31511
1.21946
1.00215
1.00113
1.0006
1.00011
2.9105
2.991
2.9923
2.91678
2.50013
1.91433
1.78394
2.13305
2.81964
2.99467
2.99999
3
2.99878
2.95599
2.45605
1.22199
1.00048
1.00002
1.00001
3
3
3
2.99999
2.99819
2.96692
2.9583
2.98633
2.99969
3
3
3
3
2.99964
2.96972
2.3364
1.07456
1.00002
1.00001
3
3
3
3
3
3
3
3
3
3.00001
3.00001
3
3
3
2.99964
2.931
1.90949
1.00084
1.00003
3
3
3
3
3
3
3
3.00001
3.00001
3.00001
3.00001
3
3
3
3
2.99882
2.8125
1.16374
1.00028
3
3
3
3
3
3
3.00001
3.00001
3.00001
3.00001
3.00001
3.00001
3
3
3
3
2.99749
1.94457
1.00962
3
3
3
3
3
3.00001
3.00001
3.00001
3.00001
3.00001
3.00001
3.00001
3
3
3
3
3
2.70291
1.13165
3
3
3
3
3
3.00001
3.00001
3.00001
3.00001
3.00001
3.00001
3.00001
3
3
3
3
3
2.86916
1.25696
3
3
3
3
3
3
3.00001
3.00001
3.00001
3.00001
3.00001
3.00001
3.00001
3
3
3
3
2.83051
1.23732
3
3
3
3
3
3
3
3
3
3.00001
3
3.00001
3.00001
3
3
3.00001
3
2.49139
1.16652
3
3
3
3
3
3
3
3
3
3
3
3
3
3
3
3.00001
3.00001
1.7864
1.07126
3
3
3
3
3
3
3
3
3
3
3
3
3
3
3
3.00001
3.00001
1.7857
1.04878
3
3
3
3
3
3
3
3
3
3
3
3
3
3
3
3
3.00001
2.24572
1.0805
3
3
3
3
3
3
3
3
3
3
3
3
3
3
3
3
3.00001
2.80601
1.17703
3
3
3
3
3
3
3
3
3
3
3
3
3
3
3
3
3.00001
2.97608
1.26638
3
3
3
3
3
3
3
3
3
3
3
3
3
3
3
3
3
2.9979
1.36227
3
3
3
3
3
3
3
3
3
3
3
3
3
3
3
3
3
2.99981
1.478
3
3
3
3
3
3
3
3
3
3
3
3
3
3
3
3
3
2.99993
1.5185
3
3
3
3
3
3
3
3
3
3
3
3
3
3
3
2.99999
3
2.99994
1.59369
2.99999
2.99999
3
3
3
3
3
3
3
3
3
3
3
3
3
2.99993
3
2.99994
2.02179
2.99999
2.99999
2.99999
2.99999
2.99999
2.99999
3
3
3
3
3
3
3
3
3
2.99992
2.99994
2.99992
2.70507
2.99999
2.99999
2.99999
2.99999
2.99999
2.99999
3
3
3
3
3
3
3
3
3
2.99993
2.99926
2.99979
2.97756
2.99999
2.99999
2.99999
2.99999
2.99999
2.99999
3
3
3
3
3
3
3
3
3
2.99995
2.99836
2.98732
2.9582
2.99999
2.99999
2.99999
2.99999
2.99999
2.99999
3
3
3
3
3
3
3
3
3
2.99994
2.99672
2.88909
2.41688
2.99999
2.99999
2.99999
2.99999
2.99999
2.99999
3
3
3
3
3
3
3
3
3
2.99982
2.99208
2.80379
1.33524
2.99999
2.99999
2.99999
2.99999
2.99999
3
3
3
3
3
3
3
3
3
3
2.99968
2.97417
2.65492
1.03535
2.99999
2.99999
2.99999
2.99999
2.99999
3
3
3
3
3
3
3
3
3
3
2.99986
2.9632
2.17878
1.02835
2.99999
2.99999
2.99999
2.99999
3
3
3
3
3
3
3
3
3
3
3
3
2.98626
2.01411
1.02835
3
2.99999
2.99999
3
3
3
3
3
3
3
3
3
3
3
3
3
2.99884
2.23235
1.02835
3
3
3
3
3
3
3
3
3
3
3
3
3
3
3
3
2.99996
2.6978
1.0422
3
3
3
3
3
3
3
3
3
3
3
3
3
3
3
3
3
2.94992
1.20489
3
3
3
3
3
3
3
3
3
3
3
3
3
3
3
3
3
2.99596
1.51924
3
3
3
3
3
3
3
3
3
3
3
3
3
3
3
3
3
2.99986
1.84231
3
3
3
3
3
3
3
3
3
3
3
3
3
3
3
3
3
3
2.27121
3
3
3
3
3
3
3
3
3
3
3
3
3
3
3
3
3
3
2.73476
)
;

boundaryField
{
    leftWall
    {
        type            zeroGradient;
    }
    rightWall
    {
        type            zeroGradient;
    }
    lowerWall
    {
        type            zeroGradient;
    }
    atmosphere
    {
        type            zeroGradient;
    }
    defaultFaces
    {
        type            empty;
    }
}


// ************************************************************************* //
