/*--------------------------------*- C++ -*----------------------------------*\
| =========                 |                                                 |
| \\      /  F ield         | OpenFOAM: The Open Source CFD Toolbox           |
|  \\    /   O peration     | Version:  2.4.0                                 |
|   \\  /    A nd           | Web:      www.OpenFOAM.org                      |
|    \\/     M anipulation  |                                                 |
\*---------------------------------------------------------------------------*/
FoamFile
{
    version     2.0;
    format      ascii;
    class       volScalarField;
    location    "0.45";
    object      p;
}
// * * * * * * * * * * * * * * * * * * * * * * * * * * * * * * * * * * * * * //

dimensions      [1 -1 -2 0 0 0 0];

internalField   nonuniform List<scalar> 
2268
(
5252.91
5247.49
5234.75
5227.6
5187.07
5161.5
5120.74
5062.67
5017.84
4982.38
4950.36
4935.07
4947.53
5003.38
5116.65
5337
5698.02
6182.96
6756.59
7368.94
7917.02
8286.96
8437.96
4450.67
4445.07
4433.32
4423.69
4387.61
4359.4
4315.77
4258.6
4215.33
4178.66
4144.47
4125.03
4133.03
4186.27
4329.45
4531.06
4873.73
5358.32
5943.88
6566.17
7123.94
7490.22
7642.62
3642.68
3636.87
3626.81
3613.75
3584.18
3552.34
3503.41
3447.62
3406.12
3368.48
3330.4
3306.53
3305.35
3327.9
3404.79
3628.18
3980.22
4487.87
5102.14
5760.13
6324.87
6698.03
6878.48
2830.22
2824.21
2816.17
2799.87
2777.44
2741.4
2683.64
2628.9
2587.49
2545.23
2508.34
2485.99
2500.08
2567.59
2693.88
2834.91
3106.88
3588.9
4226.85
4944.3
5528.21
5912.48
6084.68
2006.36
1998.41
1995.03
1966.59
1957.26
1912.83
1837.32
1788.22
1731.89
1668.27
1597.23
1545.66
1513.05
1515.29
1542.1
1710.81
2090.96
2650.79
3340.02
4122.77
4743.09
5114.15
5271.47
1146.74
1145.46
1150.08
1141.62
1152.75
1132.55
1083.14
1062.82
1040.39
1018.48
996.463
981.721
968.338
967.068
988.204
1053.98
1163.08
1493.59
2382.49
3299.24
3970.24
4353.5
4475.03
806.201
808.777
812.696
818.732
826.399
835.653
851.896
865.001
876.685
889.268
903.602
919.597
938.997
958.544
977.658
987.209
992.962
1055.46
1450.82
2467.83
3196.55
3623.66
3712.42
812.616
817.52
824.016
838.494
850.566
863.262
875.272
877.22
875.468
874.8
874.073
877.63
884.145
895.732
909.567
928.086
953.272
968.017
1030.6
1708.4
2450.24
2896.75
2964.65
1869.45
1829.23
1734.01
1621.33
1562.63
1535.94
1509.57
1498.38
1499.69
1508.63
1531.98
1682.55
2058.53
2567.72
2895.21
3069.13
3268.54
3725.44
4800.68
1842.89
1799.35
1698.1
1574.51
1517.92
1492.34
1461.34
1431.96
1417.41
1411.95
1406.99
1415.59
1587.47
1946.1
2197.56
2293.44
2504.64
3088.22
4234.17
1808.85
1769.8
1670.38
1534.87
1491.26
1489.87
1418.53
1394.14
1391.23
1389.94
1388.73
1411.53
1552.64
1755.38
1900.11
1958.96
2009.59
2514.7
3677.83
1783.79
1746.87
1646.12
1495.18
1445.97
1414.7
1390.18
1387.14
1387.06
1386.16
1385.35
1392.37
1434.05
1596.49
1755.71
1845.69
1920.11
2081.85
3046.21
1766.99
1730.97
1627.53
1481.79
1412.66
1391.21
1390.36
1388.4
1387.12
1386.64
1386.23
1386.27
1401.09
1458.03
1591.86
1671.47
1768.59
1887.06
2481.77
1753.83
1722.57
1618.49
1478.56
1396.93
1382.68
1386.74
1388.03
1387.21
1386.54
1385.96
1386.7
1386.28
1375.55
1423
1496.26
1607.65
1742.03
2090.36
1739.63
1716.25
1616.29
1483.27
1391.56
1370.89
1379.1
1385.02
1386.1
1386.17
1385.3
1380.45
1345.08
1272.91
1259.18
1316.24
1435.82
1582.49
1788.68
1696.34
1686.99
1599.35
1479.47
1374.01
1341.57
1342.51
1367.11
1378.64
1385.65
1384.34
1349.84
1245.15
1119.88
1096.51
1117.49
1243.47
1401.62
1550.01
670.953
672.739
676.216
681.368
688.443
695.971
702.54
709.52
718.472
729.3
740.649
753.213
766.576
781.494
797.156
813.885
834.363
865.776
857.897
888.818
1405.2
1815.74
1715.08
533.853
536.291
541.067
548.585
559.167
572.978
590.277
606.139
618.266
628.24
636.14
645.576
657.85
672.176
686.653
698.225
714.905
718.621
716.166
672.273
654.008
787.198
1044.22
401.778
403.95
408.573
416.258
428.065
443.19
460.16
474.36
483.375
487.015
489.633
493.765
497.296
504.663
515.707
533.482
552.786
561.522
552.2
523.113
439.563
353.837
308.832
259.68
261.743
266.322
274.967
289.884
309.285
330.499
347.294
351.84
346.629
344.571
348.657
358.348
370.972
383.574
396.15
406.267
412.688
410.153
388.56
325.812
240.612
158.654
93.3021
96.4827
103.637
116.706
140.104
182.268
226.594
240.493
227.267
206.826
196.038
195.876
200.839
208.645
220.228
235.667
254.712
269.448
279.047
272.865
248.301
213.646
173.892
21.2917
21.5818
22.3767
23.5758
26.6946
38.0984
55.9296
74.9657
74.6446
76.0567
83.0303
96.8711
106.903
113.267
119.512
126.64
134.662
147.124
163.973
171.198
166.364
158.325
145.838
3.50062
3.51311
3.53202
3.57482
3.63125
3.73939
4.91725
5.6926
6.1137
11.2515
17.3893
22.9988
31.5247
45.2415
59.6247
76.895
96.7005
113.562
126
125.806
117.13
112.921
105.972
5.53857
5.5233
5.48955
5.43819
5.29225
4.92661
4.52654
4.32908
4.16834
4.06776
4.20639
4.25453
4.11262
6.49529
9.3886
13.6084
20.1553
25.1468
29.5087
29.9077
34.1792
33.5436
36.463
4.13291
4.14738
4.17553
4.21946
4.27132
4.29196
4.36317
4.61643
4.57756
4.49648
4.49223
4.40681
4.31936
4.04788
3.87296
3.84472
4.01565
4.33915
4.61228
3.74936
4.55316
6.61342
8.26065
4.64008
4.60024
4.54357
4.47382
4.39972
4.32053
4.32818
4.47165
4.35242
4.2468
4.21735
4.28346
4.45594
4.64675
4.69052
4.60464
4.4522
4.2799
4.1203
4.05456
3.9578
3.72681
3.6283
4.24293
4.24747
4.2526
4.25738
4.24865
4.22875
4.25427
4.2899
4.25799
4.19783
4.14271
4.12472
4.10598
4.07957
4.05514
4.04619
4.07066
4.0768
4.07804
4.11052
4.30035
4.40856
4.42383
4.1093
4.10954
4.10991
4.1088
4.10216
4.09168
4.09117
4.08741
4.07796
4.06654
4.06513
4.05282
4.0639
4.07186
4.05898
4.02196
3.97496
3.93563
3.88805
3.85043
3.83022
3.81602
3.80455
3.98087
3.97924
3.97749
3.97449
3.97011
3.96689
3.96946
3.97281
3.96772
3.95492
3.94283
3.92674
3.91755
3.90581
3.8855
3.85914
3.83126
3.81316
3.81463
3.84406
3.87973
3.88689
3.87665
3.833
3.83303
3.8322
3.83026
3.82769
3.82604
3.82568
3.82436
3.82011
3.8167
3.81049
3.79909
3.78815
3.77525
3.75485
3.72985
3.70621
3.68716
3.67378
3.66762
3.66766
3.66681
3.66039
3.69705
3.69613
3.69463
3.69283
3.69082
3.68907
3.68704
3.68419
3.68002
3.67576
3.66788
3.65832
3.64784
3.63543
3.61988
3.60246
3.58598
3.57236
3.56335
3.55842
3.55346
3.5433
3.53106
3.55793
3.55733
3.55613
3.55459
3.55285
3.55069
3.54817
3.54515
3.54107
3.53644
3.52939
3.52126
3.51138
3.49974
3.48628
3.47216
3.45886
3.44698
3.43733
3.42951
3.42141
3.41139
3.39884
3.41964
3.41903
3.41796
3.41654
3.41477
3.41258
3.40996
3.4067
3.40251
3.39777
3.39149
3.38404
3.37543
3.36569
3.35447
3.34263
3.33125
3.32055
3.31103
3.302
3.29237
3.28151
3.26941
3.28187
3.28132
3.28035
3.27901
3.27727
3.2751
3.27235
3.269
3.26497
3.26031
3.25451
3.24785
3.24028
3.23193
3.22239
3.21233
3.20235
3.19255
3.18339
3.1742
3.16459
3.15426
3.14267
3.14465
3.14418
3.14328
3.14196
3.14022
3.13803
3.13537
3.13215
3.1283
3.12375
3.11838
3.11223
3.10533
3.09779
3.08953
3.08107
3.07237
3.06363
3.05494
3.04606
3.03691
3.02732
3.01687
3.00786
3.00744
3.00661
3.00532
3.00361
3.00146
2.99888
2.9958
2.99221
2.98804
2.98323
2.97775
2.97159
2.96478
2.95753
2.95009
2.94233
2.93451
2.9266
2.91835
2.91003
2.90122
2.89181
2.87145
2.87105
2.87027
2.86908
2.86748
2.86546
2.86301
2.86013
2.85676
2.85287
2.84843
2.84347
2.83805
2.83212
2.82585
2.81919
2.81232
2.80535
2.79825
2.79087
2.78336
2.77554
2.76763
2.73542
2.73503
2.73429
2.73318
2.7317
2.72983
2.72755
2.72484
2.7217
2.71811
2.71406
2.70961
2.70477
2.69951
2.69399
2.68815
2.68213
2.67598
2.66954
2.66305
2.65635
2.64966
2.64306
2.59978
2.59943
2.59873
2.59768
2.59628
2.59452
2.5924
2.58993
2.58707
2.58384
2.58029
2.57635
2.57198
2.56733
2.56242
2.55729
2.55202
2.54658
2.54096
2.53539
2.52966
2.52401
2.51849
2.46445
2.46413
2.46348
2.46251
2.46122
2.45961
2.45767
2.45541
2.45283
2.44993
2.4467
2.44316
2.43932
2.43527
2.43093
2.42643
2.4218
2.41702
2.41233
2.40747
2.40268
2.39799
2.39362
2.32942
2.32913
2.32855
2.32767
2.32651
2.32504
2.32327
2.32121
2.31886
2.31621
2.31328
2.31014
2.3068
2.30321
2.29949
2.29563
2.29159
2.28751
2.28346
2.27936
2.2754
2.27162
2.26815
2.1947
2.19443
2.1939
2.1931
2.19204
2.19071
2.18912
2.18727
2.18517
2.18283
2.18028
2.17751
2.17454
2.17141
2.16817
2.16478
2.16132
2.15788
2.15446
2.15119
2.14795
2.14493
2.14223
2.06021
2.05997
2.05949
2.05876
2.05781
2.05662
2.05521
2.05356
2.0517
2.04963
2.04736
2.04492
2.04234
2.03964
2.03681
2.03397
2.03111
2.02819
2.02535
2.02262
2.02003
2.01773
2.01576
1.92596
1.92574
1.92532
1.92467
1.92382
1.92276
1.92149
1.92003
1.91838
1.91656
1.91458
1.91246
1.91023
1.90791
1.90554
1.90313
1.90067
1.89827
1.89593
1.89376
1.89182
1.8901
1.88873
1.79193
1.79173
1.79135
1.79078
1.79002
1.78907
1.78795
1.78667
1.78523
1.78366
1.78195
1.78012
1.77819
1.7762
1.77416
1.77211
1.77011
1.76819
1.76636
1.76468
1.76321
1.76202
1.76117
1.65807
1.6579
1.65756
1.65706
1.65639
1.65557
1.65459
1.65347
1.65222
1.65085
1.64937
1.64781
1.64618
1.64451
1.64282
1.64114
1.6395
1.63794
1.63652
1.63528
1.63425
1.63349
1.63308
1.52438
1.52423
1.52394
1.52349
1.52291
1.52219
1.52134
1.52037
1.51929
1.51811
1.51686
1.51554
1.51417
1.51277
1.51137
1.51001
1.50871
1.50752
1.50646
1.50557
1.50491
1.50453
1.50448
1.39083
1.39071
1.39045
1.39007
1.38956
1.38894
1.38821
1.38738
1.38646
1.38545
1.38439
1.38328
1.38215
1.38101
1.37988
1.3788
1.37779
1.37689
1.37614
1.37557
1.37522
1.37514
1.37538
1.2574
1.25729
1.25707
1.25674
1.2563
1.25577
1.25515
1.25444
1.25366
1.25283
1.25195
1.25103
1.25011
1.2492
1.24831
1.24747
1.24672
1.24608
1.24558
1.24527
1.24517
1.24534
1.24582
1.12409
1.12399
1.1238
1.12352
1.12315
1.1227
1.12217
1.12157
1.12092
1.12023
1.1195
1.11876
1.11803
1.11731
1.11663
1.11601
1.11548
1.11506
1.11478
1.11468
1.11479
1.11515
1.11581
0.990867
0.99079
0.990633
0.990393
0.990082
0.989703
0.989266
0.988777
0.988247
0.987685
0.987105
0.986518
0.98594
0.98538
0.984864
0.984426
0.984082
0.983848
0.983752
0.983823
0.984093
0.984597
0.985374
0.857743
0.857675
0.857544
0.857338
0.857077
0.856761
0.856399
0.856
0.855574
0.855129
0.854672
0.854215
0.853768
0.853358
0.85301
0.852734
0.852541
0.852452
0.852499
0.852707
0.853096
0.8537
0.854551
0.724683
0.724621
0.724512
0.724336
0.724117
0.723852
0.723551
0.72322
0.722871
0.722513
0.722159
0.721828
0.721526
0.721266
0.721052
0.720897
0.720832
0.720876
0.721049
0.721355
0.721826
0.72249
0.72337
0.591638
0.59158
0.59149
0.591342
0.591162
0.59095
0.590712
0.590455
0.590185
0.589912
0.589648
0.589405
0.589198
0.589044
0.588959
0.588936
0.58899
0.589133
0.589385
0.589775
0.590312
0.591005
0.591878
0.458627
0.458559
0.458483
0.458365
0.458226
0.458067
0.457893
0.457713
0.457529
0.457343
0.457167
0.45701
0.456885
0.456805
0.456785
0.456857
0.457016
0.457262
0.457587
0.458008
0.458557
0.459269
0.460105
0.325764
0.325678
0.325613
0.325522
0.325419
0.325302
0.325177
0.325045
0.324919
0.324808
0.324714
0.324644
0.324605
0.324606
0.324657
0.324766
0.324947
0.325219
0.325593
0.326079
0.326662
0.327314
0.328065
0.193101
0.193044
0.192992
0.192921
0.192841
0.192751
0.192655
0.192557
0.192464
0.192384
0.192323
0.192289
0.192287
0.192327
0.192419
0.192574
0.192804
0.193116
0.193512
0.193984
0.194527
0.195144
0.195855
0.060386
0.0603734
0.0603403
0.0602849
0.0602182
0.0601426
0.0600625
0.0599845
0.0599158
0.059865
0.0598403
0.0598494
0.0598998
0.0599997
0.0601548
0.0603641
0.0606313
0.0609605
0.0613549
0.0618158
0.0623454
0.0629391
0.0635796
1165.66
1453.09
1613.9
1590.66
1130.32
1099.36
1020.56
1031.09
262.719
247.672
229.209
235.638
119.01
99.8724
90.0335
86.6265
152.382
140.438
123.685
111.2
138.243
135.399
127.63
116.373
107.037
108.453
103.91
96.2716
37.2052
36.1018
32.4807
29.081
7.70644
6.35396
4.64818
3.64507
3.67884
3.75488
3.86544
3.9802
4.36244
4.30202
4.22733
4.15385
3.80808
3.8124
3.81818
3.82419
3.85204
3.83192
3.8101
3.78775
3.65071
3.64219
3.63204
3.62028
3.51955
3.51093
3.50097
3.48925
3.38742
3.37923
3.37015
3.35973
3.25881
3.25127
3.24291
3.23362
3.13289
3.12619
3.11899
3.11124
3.00841
3.00268
2.99667
2.99031
2.8845
2.87971
2.87488
2.86984
2.7615
2.75755
2.75367
2.7497
2.63814
2.635
2.63193
2.62889
2.51455
2.51204
2.50965
2.50745
2.39057
2.38862
2.3868
2.38517
2.26585
2.26443
2.26312
2.26201
2.14058
2.13959
2.1387
2.13798
2.01464
2.01401
2.01347
2.01308
1.88806
1.88773
1.88749
1.88738
1.76087
1.76078
1.76079
1.76091
1.63309
1.6332
1.63341
1.63372
1.50474
1.50501
1.50538
1.50585
1.37585
1.37625
1.37674
1.37733
1.24644
1.24693
1.24752
1.2482
1.11654
1.1171
1.11775
1.11849
0.98618
0.986778
0.98746
0.98823
0.855387
0.855997
0.856684
0.857451
0.724202
0.724799
0.725463
0.726198
0.592668
0.593228
0.593845
0.594521
0.460827
0.461333
0.461882
0.462476
0.32872
0.329165
0.329636
0.330132
0.196415
0.196782
0.197162
0.197556
0.0640434
0.0643345
0.0646179
0.0648909
1572.57
1567.31
1510.35
1408.76
1298.76
1256.37
1256.78
1271.13
1323.81
1351
1334.74
1211
1024.14
900.343
843.996
825.854
920.284
1090.55
1250.41
1111.53
1103.27
1088.89
1034.5
998.769
990.58
997.905
1003.78
1008.89
1010.14
963.57
867.099
753.178
670.98
600.126
584.392
649.112
748.058
925.96
271.486
375.139
480.116
540.529
584.816
631.99
672.414
694.048
695.905
681.682
649.646
620.504
582.247
555.88
496.299
465.165
526.472
585.332
736.937
93.0938
154.189
226.136
291.634
341.308
380.093
415.429
436.489
441.928
432.772
424.217
423.844
433.379
428.364
425.892
409.73
480.497
556.494
662.809
111.38
127.655
151.926
183.188
216.02
243.598
260.027
266.529
261.636
243.718
226.864
177.746
229.49
315.426
325.639
363.295
447.309
535.44
618.559
104.78
96.0795
100.613
118.944
137.935
153.946
160.335
152.268
132.001
103.979
47.5671
39.5762
78.0574
175.679
239.989
304.994
391.894
476.732
546.16
84.5556
55.5668
41.978
51.1668
68.9679
82.3809
90.3219
82.3537
59.8397
17.7235
6.7147
7.74937
15.6736
33.7369
186.588
253.335
330.241
401.53
451.272
26.7338
16.2369
14.3864
18.1759
19.5648
32.4686
42.232
31.831
12.3462
3.8773
2.91612
5.16806
4.31063
2.31575
25.218
197.139
261.798
320.286
357.215
3.02819
2.84197
2.99432
3.4695
5.94881
11.8766
16.4144
7.61441
3.22304
2.81679
2.80461
3.8224
2.11791
1.82531
2.38998
32.8896
179.782
233.457
270.957
4.09144
4.25402
4.09386
3.72406
2.95809
2.50789
2.38966
2.5108
2.73505
2.78406
2.7764
3.05534
2.02286
1.77742
2.13685
4.77937
62.2779
159.693
191.235
4.03903
3.90155
3.83235
3.67541
3.65084
3.64771
3.49392
3.22202
2.97301
2.82901
2.73996
2.56339
2.16873
1.99324
2.09161
2.42907
8.81284
109.038
125.007
3.82429
3.77988
3.6843
3.50937
3.36291
3.29821
3.23394
3.12036
2.99194
2.84951
2.67233
2.26581
2.52382
2.39957
2.16034
2.46094
3.21796
11.2848
61.9763
3.74842
3.67796
3.5766
3.45891
3.34881
3.26744
3.19429
3.10947
3.01374
2.8972
2.73417
2.52227
2.8994
2.69154
2.44003
2.64136
3.13454
3.60957
20.0912
3.59649
3.54449
3.4744
3.39578
3.31736
3.24809
3.17533
3.10845
3.04175
2.97017
2.88458
2.83719
3.07464
2.85329
2.89067
2.94944
3.23608
3.32514
6.01074
3.4659
3.42062
3.36436
3.30537
3.24756
3.19523
3.14648
3.10382
3.06791
3.04053
3.01592
3.02103
3.17869
3.28098
3.39119
3.26498
3.36778
3.45643
4.31189
3.3399
3.30502
3.26413
3.22036
3.178
3.14013
3.10802
3.08641
3.07835
3.08734
3.11547
3.17982
3.37622
3.63511
3.59084
3.43776
3.43784
3.5512
4.62621
3.21663
3.1888
3.15819
3.12622
3.09669
3.07316
3.05734
3.05248
3.06547
3.09461
3.15511
3.25951
3.45477
3.66284
3.52564
3.41892
3.37683
3.70358
6.06711
3.09738
3.07583
3.05337
3.03107
3.01174
2.99813
2.99233
2.99766
3.01582
3.06093
3.13105
3.23488
3.38404
3.52338
3.39784
3.36323
3.24248
3.95666
7.53032
2.97925
2.96305
2.94668
2.93166
2.92018
2.9141
2.91546
2.92744
2.95228
2.99631
3.06104
3.14688
3.25406
3.34129
3.24201
3.26311
3.09742
3.24793
7.10748
2.86115
2.84911
2.83756
2.82801
2.82204
2.8211
2.82709
2.84236
2.86778
2.90723
2.96096
3.02504
3.09937
3.14902
3.06386
3.09668
2.94531
2.37955
4.9928
2.743
2.73413
2.72646
2.721
2.7188
2.72105
2.72911
2.74459
2.7684
2.80134
2.84301
2.88792
2.93621
2.95221
2.87174
2.84432
2.78299
2.31311
3.7628
2.62392
2.61764
2.61282
2.6102
2.61042
2.61458
2.62352
2.63808
2.65881
2.68566
2.71683
2.74704
2.77835
2.76735
2.69127
2.64228
2.68254
2.37676
3.32966
2.50386
2.49954
2.49686
2.49624
2.49806
2.50317
2.51211
2.52524
2.54266
2.56485
2.58841
2.60706
2.63173
2.61278
2.59556
2.53275
2.60788
2.40407
3.11582
2.38264
2.37999
2.37885
2.37953
2.38231
2.38783
2.39629
2.40786
2.42244
2.44044
2.45851
2.46988
2.49368
2.47422
2.50039
2.45439
2.50578
2.40438
2.73809
2.26037
2.25894
2.25892
2.26051
2.26389
2.26945
2.27724
2.28734
2.29942
2.31376
2.32808
2.33435
2.35848
2.33835
2.3852
2.34526
2.38415
2.32962
2.43166
2.13702
2.13659
2.13739
2.13959
2.1433
2.14875
2.15586
2.16457
2.17466
2.18595
2.19717
2.19932
2.22218
2.19702
2.24334
2.20771
2.26461
2.18393
2.34786
2.01269
2.01302
2.01444
2.01709
2.02102
2.02631
2.03286
2.04054
2.04902
2.05787
2.06615
2.06537
2.08457
2.05114
2.0853
2.03317
2.07889
2.02571
2.02802
1.88745
1.88838
1.89029
1.89328
1.89737
1.90258
1.90876
1.91576
1.9231
1.9303
1.93613
1.93463
1.94619
1.90448
1.9241
1.84487
1.83111
1.82313
1.56855
1.76135
1.76277
1.76508
1.76836
1.77263
1.77785
1.7839
1.79063
1.79743
1.80386
1.80867
1.80839
1.81137
1.77638
1.76991
1.68442
1.61768
1.78328
1.9742
1.63446
1.63627
1.63892
1.64247
1.64693
1.65229
1.65846
1.66532
1.67222
1.67897
1.68465
1.68671
1.68719
1.66647
1.65556
1.58086
1.51807
1.69204
1.65708
1.50684
1.50897
1.51188
1.51567
1.52035
1.52595
1.53243
1.53973
1.54731
1.55521
1.56272
1.56858
1.57217
1.5682
1.57217
1.54304
1.53562
1.81859
3.68167
1.37852
1.38089
1.38402
1.38801
1.3929
1.39876
1.40564
1.41356
1.42233
1.432
1.44277
1.45331
1.46682
1.47352
1.49565
1.49638
1.5077
1.53065
5.47256
1.24953
1.25207
1.25535
1.25948
1.26454
1.27064
1.27791
1.28647
1.29645
1.30803
1.32178
1.33649
1.35755
1.3746
1.41426
1.43542
1.46522
1.36217
3.91691
1.11991
1.12254
1.12589
1.13007
1.13521
1.14147
1.14902
1.15811
1.16902
1.18221
1.19865
1.21607
1.2457
1.26693
1.3249
1.36486
1.39704
1.69277
4.53833
0.98968
0.992318
0.995651
0.999792
1.00489
1.01114
1.01878
1.02812
1.03959
1.0538
1.07216
1.09037
1.12857
1.14614
1.22389
1.25842
1.31447
1.61882
7.51659
0.858882
0.861444
0.864655
0.868634
0.873539
0.879586
0.887042
0.896271
0.907786
0.922316
0.941439
0.958629
1.00417
1.00861
1.11066
1.07883
1.22478
1.11528
13.8165
0.727558
0.729957
0.732942
0.736631
0.741179
0.746804
0.753783
0.762484
0.773456
0.787622
0.8062
0.821556
0.870711
0.857736
0.995473
0.893245
1.06653
0.565502
6.47305
0.595762
0.597916
0.600572
0.603841
0.607866
0.612844
0.61904
0.626795
0.636586
0.649165
0.666509
0.680285
0.729503
0.71347
0.861489
0.75869
1.01609
0.699858
1.79772
0.463556
0.465392
0.467626
0.470355
0.473706
0.477839
0.482974
0.489406
0.497537
0.508061
0.522174
0.534979
0.578173
0.568556
0.697866
0.623484
0.889147
0.637164
1.33923
0.331018
0.332476
0.334207
0.33629
0.338826
0.341938
0.345783
0.350574
0.35656
0.36418
0.374243
0.385664
0.417802
0.413727
0.50805
0.451958
0.653524
0.506966
1.15972
0.198238
0.199283
0.200454
0.201815
0.20344
0.205414
0.207842
0.210837
0.214468
0.218575
0.223504
0.232259
0.249134
0.2424
0.308467
0.229324
0.378528
0.255115
0.290448
0.0653294
0.0658979
0.0664549
0.0670301
0.0676585
0.0683839
0.0692561
0.0703523
0.0718495
0.0742425
0.0773225
0.0787327
0.0833308
0.0707736
0.105059
0.00437012
0.0945859
-0.0754172
0.771218
)
;

boundaryField
{
    leftWall
    {
        type            fixedFluxPressure;
        gradient        uniform 0;
        value           nonuniform List<scalar> 
50
(
5252.91
4450.67
3642.68
2830.22
2006.36
1146.74
806.201
812.616
670.953
533.853
401.778
259.68
93.3021
21.2917
3.50062
5.53857
4.13291
4.64008
4.24293
4.1093
3.98087
3.833
3.69705
3.55793
3.41964
3.28187
3.14465
3.00786
2.87145
2.73542
2.59978
2.46445
2.32942
2.1947
2.06021
1.92596
1.79193
1.65807
1.52438
1.39083
1.2574
1.12409
0.990867
0.857743
0.724683
0.591638
0.458627
0.325764
0.193101
0.060386
)
;
    }
    rightWall
    {
        type            fixedFluxPressure;
        gradient        uniform 0;
        value           nonuniform List<scalar> 
50
(
4800.68
4234.17
3677.83
3046.21
2481.77
2090.36
1788.68
1550.01
1250.41
925.96
736.937
662.809
618.559
546.16
451.272
357.215
270.957
191.235
125.007
61.9763
20.0912
6.01074
4.31189
4.62621
6.06711
7.53032
7.10748
4.9928
3.7628
3.32966
3.11582
2.73809
2.43166
2.34786
2.02802
1.56855
1.9742
1.65708
3.68167
5.47256
3.91691
4.53833
7.51659
13.8165
6.47305
1.79772
1.33923
1.15972
0.290448
0.771218
)
;
    }
    lowerWall
    {
        type            fixedFluxPressure;
        gradient        nonuniform List<scalar> 
62
(
132719
132719
132719
132719
132719
132719
132719
132719
132719
132719
132719
132719
132719
132719
132719
132719
132719
132719
132719
132719
132719
132719
132717
0
0
0
0
0
0
0
0
129135
106543
21877.3
2260.4
0
0
0
0
0
0
0
0
4907.87
4908.07
4908.13
4911.54
4929.11
4968.55
5043.31
5148.84
5272.65
5426.35
5692.65
6242.4
6848.6
6886.62
6901.9
6912.83
6898.95
6917.65
6918.09
)
;
        value           nonuniform List<scalar> 
62
(
5651.06
5645.64
5632.9
5625.75
5585.22
5559.65
5518.89
5460.82
5415.99
5380.53
5348.51
5333.22
5345.68
5401.53
5514.8
5735.15
6096.17
6581.11
7154.74
7767.09
8315.16
8685.11
8836.1
8437.96
7642.62
6878.48
6084.68
5271.47
4475.03
3712.42
2964.65
1989.66
2132.93
1753.5
1605.08
1869.45
1842.89
1808.85
1783.79
1766.99
1753.83
1739.63
1696.34
1884.17
1843.95
1748.73
1636.07
1577.42
1550.85
1524.69
1513.83
1515.51
1524.91
1549.06
1701.28
2079.08
2588.38
2915.92
3089.87
3289.24
3746.2
4821.44
)
;
    }
    atmosphere
    {
        type            totalPressure;
        U               U.air;
        phi             phi.air;
        rho             rho;
        psi             none;
        gamma           1;
        p0              uniform 0;
        value           nonuniform List<scalar> 
46
(
-0.00637834
-0.00666225
-0.00668073
-0.00670735
-0.00673105
-0.006752
-0.00676585
-0.00676799
-0.00675332
-0.00671627
-0.0066515
-0.006554
-0.00641864
-0.00623899
-0.00600872
-0.00572586
-0.00538974
-0.00500028
-0.00455926
-0.00407154
-0.00354307
-0.00298352
-0.00241041
-0.0020329
-0.00180573
-0.00160184
-0.00141752
-0.00115219
-0.000872177
-0.000668046
-0.000521491
-0.000415923
-0.000342319
-0.000295258
-0.000274257
-0.000283387
0
0
0
-0.000679273
-0.00505472
-0.00619445
-0.0721989
-0.0377834
0
0
)
;
    }
    defaultFaces
    {
        type            empty;
    }
}


// ************************************************************************* //
