/*--------------------------------*- C++ -*----------------------------------*\
| =========                 |                                                 |
| \\      /  F ield         | OpenFOAM: The Open Source CFD Toolbox           |
|  \\    /   O peration     | Version:  2.4.0                                 |
|   \\  /    A nd           | Web:      www.OpenFOAM.org                      |
|    \\/     M anipulation  |                                                 |
\*---------------------------------------------------------------------------*/
FoamFile
{
    version     2.0;
    format      ascii;
    class       surfaceScalarField;
    location    "0.45";
    object      phi;
}
// * * * * * * * * * * * * * * * * * * * * * * * * * * * * * * * * * * * * * //

dimensions      [0 3 -1 0 0 0 0];

internalField   nonuniform List<scalar> 
4432
(
2.98581e-06
-2.98581e-06
6.07854e-06
-3.09273e-06
8.69148e-06
-2.61294e-06
1.24983e-05
-3.8068e-06
1.47792e-05
-2.28097e-06
1.78016e-05
-3.0223e-06
2.15252e-05
-3.72362e-06
2.45669e-05
-3.04173e-06
2.69894e-05
-2.42251e-06
2.90281e-05
-2.03864e-06
3.20893e-05
-3.06127e-06
3.53264e-05
-3.23706e-06
3.77595e-05
-2.4331e-06
3.91637e-05
-1.40421e-06
3.89952e-05
1.68539e-07
3.75121e-05
1.48307e-06
3.45217e-05
2.99042e-06
3.03696e-05
4.15204e-06
2.53389e-05
5.0307e-06
2.01287e-05
5.21019e-06
1.35577e-05
6.57104e-06
5.27983e-06
8.27787e-06
5.27983e-06
2.98768e-06
-5.97349e-06
6.08106e-06
-6.18611e-06
8.74478e-06
-5.27666e-06
1.23888e-05
-7.45081e-06
1.48124e-05
-4.70456e-06
1.79322e-05
-6.14213e-06
2.1533e-05
-7.32444e-06
2.4431e-05
-5.93969e-06
2.69929e-05
-4.98441e-06
2.94443e-05
-4.49001e-06
3.26632e-05
-6.2802e-06
3.55296e-05
-6.10352e-06
3.7743e-05
-4.64647e-06
3.88461e-05
-2.50731e-06
3.94349e-05
-4.20205e-07
3.7929e-05
2.98891e-06
3.54056e-05
5.51382e-06
3.10751e-05
8.48253e-06
2.63784e-05
9.72738e-06
2.03101e-05
1.12786e-05
1.38214e-05
1.30597e-05
6.31184e-06
1.57874e-05
1.15917e-05
2.99527e-06
-8.96876e-06
6.05007e-06
-9.24091e-06
8.85521e-06
-8.0818e-06
1.22106e-05
-1.08062e-05
1.49498e-05
-7.44368e-06
1.81398e-05
-9.3322e-06
2.13898e-05
-1.05744e-05
2.40978e-05
-8.64768e-06
2.70023e-05
-7.88895e-06
3.02143e-05
-7.70201e-06
3.33411e-05
-9.40704e-06
3.53183e-05
-8.08066e-06
3.72711e-05
-6.59929e-06
3.90897e-05
-4.32587e-06
3.97526e-05
-1.08312e-06
3.918e-05
3.56145e-06
3.6731e-05
7.96289e-06
3.26843e-05
1.25292e-05
2.72023e-05
1.52094e-05
2.14388e-05
1.7042e-05
1.54889e-05
1.90097e-05
9.35503e-06
2.19213e-05
2.09467e-05
3.00498e-06
-1.19737e-05
6.01802e-06
-1.22539e-05
9.01678e-06
-1.10806e-05
1.20473e-05
-1.38367e-05
1.50438e-05
-1.04402e-05
1.82527e-05
-1.25411e-05
2.13438e-05
-1.36655e-05
2.38783e-05
-1.11822e-05
2.73086e-05
-1.13192e-05
3.07573e-05
-1.11507e-05
3.33048e-05
-1.19546e-05
3.49714e-05
-9.74722e-06
3.7129e-05
-8.75687e-06
3.8517e-05
-5.71396e-06
4.02074e-05
-2.77344e-06
4.1595e-05
2.17385e-06
3.94346e-05
1.01232e-05
3.52051e-05
1.67587e-05
2.76621e-05
2.27524e-05
1.96037e-05
2.51004e-05
1.30033e-05
2.56101e-05
7.12509e-06
2.77995e-05
2.80718e-05
3.01116e-06
-1.49849e-05
5.95895e-06
-1.52017e-05
9.25151e-06
-1.43731e-05
1.16388e-05
-1.6224e-05
1.52735e-05
-1.40749e-05
1.83849e-05
-1.56526e-05
2.08026e-05
-1.60832e-05
2.40539e-05
-1.44335e-05
2.76165e-05
-1.48818e-05
3.08273e-05
-1.43615e-05
3.29662e-05
-1.40935e-05
3.53298e-05
-1.21107e-05
3.78026e-05
-1.12297e-05
4.03146e-05
-8.226e-06
4.20664e-05
-4.52517e-06
4.19088e-05
2.33143e-06
4.0312e-05
1.172e-05
3.56932e-05
2.13776e-05
2.82431e-05
3.02025e-05
1.95889e-05
3.37546e-05
1.12691e-05
3.39299e-05
6.53605e-06
3.25325e-05
3.46078e-05
2.9112e-06
-1.78961e-05
5.70345e-06
-1.7994e-05
9.14608e-06
-1.78157e-05
1.0961e-05
-1.80389e-05
1.45858e-05
-1.76997e-05
1.75603e-05
-1.8627e-05
1.96064e-05
-1.81293e-05
2.27091e-05
-1.75362e-05
2.55033e-05
-1.7676e-05
2.79622e-05
-1.68204e-05
2.98951e-05
-1.60264e-05
3.24224e-05
-1.46381e-05
3.38421e-05
-1.26494e-05
3.57313e-05
-1.01152e-05
3.68858e-05
-5.67958e-06
3.80295e-05
1.18769e-06
3.6365e-05
1.33845e-05
3.18557e-05
2.58869e-05
2.68823e-05
3.51758e-05
2.01835e-05
4.04534e-05
1.14483e-05
4.26651e-05
4.97927e-06
3.90016e-05
3.95871e-05
2.19291e-06
-2.0089e-05
4.23042e-06
-2.00315e-05
6.77504e-06
-2.03603e-05
7.84152e-06
-1.91054e-05
9.79016e-06
-1.96484e-05
1.16008e-05
-2.04377e-05
1.25065e-05
-1.9035e-05
1.35409e-05
-1.85706e-05
1.49739e-05
-1.91089e-05
1.61003e-05
-1.79469e-05
1.6864e-05
-1.67901e-05
1.69234e-05
-1.46974e-05
1.64139e-05
-1.214e-05
1.559e-05
-9.29122e-06
1.5805e-05
-5.89461e-06
1.97705e-05
-2.77776e-06
2.55033e-05
7.65172e-06
2.33367e-05
2.80535e-05
2.03135e-05
3.8199e-05
1.86088e-05
4.21581e-05
1.25416e-05
4.87322e-05
6.63641e-06
4.49067e-05
4.62235e-05
4.68179e-07
-2.05572e-05
1.06201e-06
-2.06253e-05
1.41425e-06
-2.07126e-05
2.57552e-06
-2.02666e-05
3.14603e-06
-2.02189e-05
4.23275e-06
-2.15244e-05
5.87573e-06
-2.0678e-05
8.21501e-06
-2.09099e-05
1.05708e-05
-2.14647e-05
1.29861e-05
-2.03622e-05
1.42851e-05
-1.8089e-05
1.55791e-05
-1.59914e-05
1.61905e-05
-1.27514e-05
1.63938e-05
-9.49458e-06
1.39233e-05
-3.42407e-06
1.14638e-05
-3.18289e-07
1.60041e-05
3.11149e-06
1.74393e-05
2.66182e-05
9.94789e-06
4.56905e-05
1.27147e-05
3.93913e-05
1.25776e-05
4.88694e-05
8.84889e-06
4.86354e-05
5.50724e-05
-1.93553e-05
1.93553e-05
-3.80332e-05
1.8678e-05
-5.60336e-05
1.80004e-05
-6.86937e-05
1.26601e-05
-6.60363e-05
-2.65731e-06
-5.44406e-05
-1.15957e-05
-4.84582e-05
-5.98242e-06
-4.09636e-05
-7.4946e-06
-3.15299e-05
-9.43373e-06
-2.18711e-05
-9.65874e-06
-1.45486e-05
-7.32259e-06
-1.58421e-06
-1.29644e-05
1.60734e-05
-1.76576e-05
3.91781e-05
-2.31048e-05
6.29352e-05
-2.3757e-05
7.53218e-05
-1.23866e-05
6.8356e-05
6.96577e-06
3.79293e-05
3.04268e-05
3.79293e-05
-1.57583e-05
3.51135e-05
-3.05577e-05
3.34774e-05
-4.3529e-05
3.09717e-05
-5.35593e-05
2.26904e-05
-5.37411e-05
-2.47554e-06
-5.16896e-05
-1.36472e-05
-5.01593e-05
-7.51279e-06
-4.52703e-05
-1.23836e-05
-3.92626e-05
-1.54414e-05
-3.17391e-05
-1.71823e-05
-2.12399e-05
-1.78218e-05
1.88684e-08
-3.42231e-05
2.88111e-05
-4.64498e-05
6.36854e-05
-5.79791e-05
8.64277e-05
-4.64993e-05
9.13849e-05
-1.73438e-05
8.16527e-05
1.6698e-05
4.64496e-05
6.56298e-05
8.43789e-05
-7.98328e-06
4.30968e-05
-1.68462e-05
4.23403e-05
-2.64773e-05
4.06028e-05
-3.30704e-05
2.92835e-05
-2.5327e-05
-1.02189e-05
-1.98885e-05
-1.90857e-05
-2.91847e-05
1.78341e-06
-2.74519e-05
-1.41164e-05
-1.93155e-05
-2.35777e-05
-1.08383e-05
-2.56595e-05
-2.22751e-06
-2.64326e-05
1.4047e-05
-5.04976e-05
3.71319e-05
-6.95346e-05
6.46212e-05
-8.54684e-05
8.791e-05
-6.97882e-05
9.39458e-05
-2.33795e-05
7.43628e-05
3.62809e-05
4.13646e-05
9.8628e-05
0.000125743
1.13898e-06
4.19579e-05
-1.8673e-06
4.53466e-05
-7.15407e-06
4.58896e-05
4.22455e-07
2.1707e-05
1.57627e-05
-2.55591e-05
1.68692e-05
-2.01922e-05
1.84016e-05
2.51143e-07
2.33231e-05
-1.9038e-05
3.56628e-05
-3.59176e-05
4.21571e-05
-3.21539e-05
4.69114e-05
-3.11869e-05
5.11356e-05
-5.47218e-05
6.11404e-05
-7.95394e-05
7.58171e-05
-0.000100145
9.02839e-05
-8.4255e-05
9.97987e-05
-3.28943e-05
7.71695e-05
5.89101e-05
3.5899e-05
0.000139899
0.000161642
6.76797e-06
3.51899e-05
1.1378e-05
4.07366e-05
1.43118e-05
4.29558e-05
2.53949e-05
1.0624e-05
4.84343e-05
-4.85985e-05
9.48421e-05
-6.66e-05
0.000133914
-3.88209e-05
0.000131729
-1.68525e-05
0.000127378
-3.15671e-05
9.42814e-05
9.42811e-07
1.72159e-05
4.58785e-05
4.44246e-05
-8.19306e-05
7.42716e-05
-0.000109386
9.27674e-05
-0.000118641
9.9422e-05
-9.09096e-05
9.61602e-05
-2.96325e-05
7.53827e-05
7.96876e-05
3.53417e-05
0.00017994
0.000196984
1.34834e-05
2.17065e-05
2.67984e-05
2.74216e-05
4.0378e-05
2.93762e-05
5.4507e-05
-3.50498e-06
6.1571e-05
-5.56626e-05
6.49927e-05
-7.00217e-05
9.37788e-05
-6.7607e-05
0.000119322
-4.23961e-05
0.00010066
-1.29045e-05
7.71213e-05
2.44814e-05
4.9852e-05
7.31479e-05
9.63313e-05
-0.00012841
0.000106035
-0.00011909
0.000103137
-0.000115742
0.000104914
-9.26869e-05
9.72607e-05
-2.19791e-05
7.49257e-05
0.000102023
3.89714e-05
0.000215894
0.000235956
1.91235e-05
2.58299e-06
4.06999e-05
5.8452e-06
5.86066e-05
1.14695e-05
7.10445e-05
-1.59429e-05
7.2816e-05
-5.74341e-05
6.89161e-05
-6.61218e-05
7.01022e-05
-6.8793e-05
9.46328e-05
-6.69267e-05
0.000118784
-3.70561e-05
0.000132161
1.11051e-05
0.000164116
4.11921e-05
0.000118806
-8.30993e-05
0.000112747
-0.000113032
0.000112086
-0.000115081
0.000107943
-8.85441e-05
9.81683e-05
-1.22043e-05
7.11404e-05
0.000129051
3.92731e-05
0.000247761
0.000275229
2.50211e-05
-2.24381e-05
4.91002e-05
-1.8234e-05
6.90569e-05
-8.48711e-06
8.07686e-05
-2.76546e-05
7.94117e-05
-5.60773e-05
7.33163e-05
-6.00263e-05
6.81708e-05
-6.36476e-05
6.88135e-05
-6.75694e-05
8.28252e-05
-5.10679e-05
0.000107454
-1.35238e-05
0.000148323
3.22746e-07
0.000118854
-5.36296e-05
0.000115969
-0.000110147
0.000114146
-0.000113258
0.000110411
-8.4809e-05
9.69714e-05
1.23519e-06
7.50303e-05
0.000150992
4.54613e-05
0.00027733
0.00032069
1.95667e-06
-2.25138e-05
4.06323e-06
-2.27319e-05
6.27091e-06
-2.29203e-05
8.53208e-06
-2.25278e-05
1.13962e-05
-2.3083e-05
1.49442e-05
-2.50724e-05
1.80498e-05
-2.37835e-05
2.2951e-05
-2.58111e-05
2.81694e-05
-2.66831e-05
3.25985e-05
-2.47913e-05
3.62028e-05
-2.16933e-05
3.97544e-05
-1.95429e-05
4.1998e-05
-1.49951e-05
4.40972e-05
-1.15937e-05
4.49376e-05
-4.26446e-06
4.26099e-05
2.0094e-06
2.92117e-05
1.65097e-05
2.42422e-05
3.15877e-05
2.27279e-05
4.72048e-05
1.21233e-05
4.99958e-05
2.09091e-05
4.00837e-05
3.23526e-05
3.71919e-05
3.65063e-05
5.09186e-05
2.07996e-06
-2.45938e-05
4.31741e-06
-2.49693e-05
6.4e-06
-2.50028e-05
8.90867e-06
-2.50365e-05
1.11787e-05
-2.5353e-05
1.37386e-05
-2.76323e-05
1.67577e-05
-2.68026e-05
2.11613e-05
-3.02147e-05
2.53908e-05
-3.09126e-05
3.01156e-05
-2.95161e-05
3.48833e-05
-2.6461e-05
3.85044e-05
-2.31641e-05
3.93183e-05
-1.5809e-05
3.90229e-05
-1.12983e-05
3.89142e-05
-4.15575e-06
3.83681e-05
2.55547e-06
3.99386e-05
1.49392e-05
4.10468e-05
3.04795e-05
4.36334e-05
4.46182e-05
3.06456e-05
6.29835e-05
1.98835e-05
5.08458e-05
2.82778e-05
2.87976e-05
2.35448e-05
4.12394e-05
2.57811e-06
-2.71719e-05
5.08332e-06
-2.74745e-05
7.36213e-06
-2.72816e-05
9.68867e-06
-2.7363e-05
1.19565e-05
-2.76209e-05
1.38857e-05
-2.95616e-05
1.74929e-05
-3.04098e-05
2.29486e-05
-3.56703e-05
2.90895e-05
-3.70535e-05
3.7133e-05
-3.75596e-05
4.46855e-05
-3.40136e-05
5.08888e-05
-2.93674e-05
5.55249e-05
-2.04451e-05
5.95601e-05
-1.53335e-05
5.97974e-05
-4.39308e-06
5.69926e-05
5.3603e-06
5.4154e-05
1.77777e-05
5.7178e-05
2.74555e-05
6.17038e-05
4.00925e-05
7.31757e-05
5.15116e-05
6.18323e-05
6.21892e-05
4.75296e-05
4.31003e-05
1.90569e-05
5.20175e-05
2.72183e-06
-2.98937e-05
5.23845e-06
-2.99911e-05
7.21055e-06
-2.92537e-05
8.73662e-06
-2.88891e-05
1.01891e-05
-2.90734e-05
1.18151e-05
-3.11875e-05
1.48035e-05
-3.33983e-05
2.07759e-05
-4.16427e-05
2.96324e-05
-4.59101e-05
3.90499e-05
-4.6977e-05
4.63062e-05
-4.12699e-05
5.03516e-05
-3.34127e-05
5.33838e-05
-2.34774e-05
5.49694e-05
-1.69191e-05
5.72242e-05
-6.64788e-06
6.03641e-05
2.22038e-06
6.50132e-05
1.31287e-05
6.94088e-05
2.30598e-05
7.63506e-05
3.31507e-05
9.23671e-05
3.54951e-05
0.000111359
4.31976e-05
0.000117763
3.66959e-05
2.42455e-05
0.000112575
2.82516e-06
-3.27189e-05
4.97728e-06
-3.21433e-05
6.16942e-06
-3.04459e-05
6.00655e-06
-2.87262e-05
5.37166e-06
-2.84385e-05
6.93826e-06
-3.27541e-05
1.0219e-05
-3.6679e-05
1.47882e-05
-4.62119e-05
2.44725e-05
-5.55944e-05
3.27977e-05
-5.53022e-05
3.76857e-05
-4.61579e-05
4.14507e-05
-3.71778e-05
4.61838e-05
-2.82104e-05
4.96918e-05
-2.04271e-05
5.50414e-05
-1.19974e-05
5.93873e-05
-2.12551e-06
6.43715e-05
8.1444e-06
7.0855e-05
1.65763e-05
8.05576e-05
2.34481e-05
9.37099e-05
2.23428e-05
0.000111992
2.49152e-05
0.000131742
1.6946e-05
1.01415e-05
0.000145846
4.95305e-06
-3.76719e-05
8.88523e-06
-3.60754e-05
1.2876e-05
-3.44366e-05
1.48415e-05
-3.06917e-05
1.20949e-05
-2.56919e-05
4.54375e-06
-2.52029e-05
-7.53669e-06
-2.45986e-05
-1.16246e-05
-4.2124e-05
-1.5452e-05
-5.1767e-05
-1.4407e-05
-5.63472e-05
-1.22117e-05
-4.83532e-05
-1.19894e-05
-3.74e-05
-1.28231e-05
-2.73768e-05
-1.05298e-05
-2.27203e-05
-2.78704e-06
-1.97402e-05
1.01182e-05
-1.50307e-05
2.5871e-05
-7.60839e-06
4.30228e-05
-5.75526e-07
5.80589e-05
8.41206e-06
7.76887e-05
2.71306e-06
9.40582e-05
8.54558e-06
0.000112246
-1.24139e-06
-4.3615e-06
0.000126749
2.26148e-06
-3.99334e-05
3.00059e-06
-3.68145e-05
2.39261e-06
-3.38286e-05
-8.17622e-07
-2.74814e-05
-4.6696e-06
-2.18398e-05
-1.96739e-07
-2.96757e-05
-7.45116e-07
-2.40502e-05
-5.19377e-05
9.06859e-06
-9.01162e-05
-1.35885e-05
-8.78477e-05
-5.86156e-05
-7.80486e-05
-5.81523e-05
-7.05641e-05
-4.48845e-05
-6.53678e-05
-3.25731e-05
-6.0911e-05
-2.71771e-05
-5.5134e-05
-2.55173e-05
-4.62396e-05
-2.39251e-05
-3.0712e-05
-2.3136e-05
-1.0409e-05
-2.08785e-05
1.15553e-05
-1.35523e-05
3.31313e-05
-1.8863e-05
5.16427e-05
-9.96575e-06
6.68782e-05
-1.64769e-05
-1.76482e-05
8.01649e-05
1.07513e-06
-4.10085e-05
6.81478e-06
-4.25541e-05
1.8329e-05
-4.53427e-05
4.07459e-05
-4.98983e-05
8.00565e-05
-6.11505e-05
0.000116147
-6.5766e-05
8.43847e-05
7.7119e-06
-7.48277e-06
0.000100936
-7.43042e-05
5.32329e-05
-9.41874e-05
-3.87324e-05
-8.74074e-05
-6.49324e-05
-7.16822e-05
-6.06097e-05
-6.7399e-05
-3.68563e-05
-5.81069e-05
-3.64691e-05
-5.17236e-05
-3.19006e-05
-4.52488e-05
-3.03998e-05
-3.80803e-05
-3.03045e-05
-3.26113e-05
-2.63476e-05
-2.51844e-05
-2.09791e-05
-1.71632e-05
-2.68841e-05
-2.29051e-07
-2.68999e-05
1.83887e-05
-3.50947e-05
-3.84857e-05
3.92262e-05
-1.66596e-05
-2.43488e-05
-2.82262e-05
-3.09875e-05
-3.58057e-05
-3.77632e-05
-3.81526e-05
-4.75513e-05
-3.93841e-05
-5.9919e-05
-4.12626e-05
-6.38873e-05
-8.22697e-06
-2.53237e-05
5.58163e-05
3.68929e-05
8.7881e-05
2.11682e-05
7.5214e-05
-2.60654e-05
5.56298e-05
-4.53482e-05
4.60245e-05
-5.10044e-05
2.86123e-05
-1.94441e-05
-7.10506e-06
-7.51752e-07
-2.91133e-05
-9.8924e-06
-3.2845e-05
-2.66681e-05
-2.48973e-05
-3.82522e-05
-1.41384e-05
-3.71064e-05
-3.16962e-06
-3.19479e-05
-1.15775e-05
-1.84762e-05
-4.89069e-06
-3.35867e-05
1.06557e-05
-5.0641e-05
-5.62309e-05
2.84009e-05
-1.25023e-06
-2.30986e-05
-2.59599e-06
-2.96416e-05
-4.03432e-06
-3.63248e-05
-6.85186e-06
-4.47337e-05
-1.38002e-05
-5.29706e-05
-2.14789e-05
-5.62086e-05
-1.29849e-05
-3.38177e-05
2.64744e-05
-2.56635e-06
1.72787e-05
3.0364e-05
-1.97828e-05
1.09962e-05
-3.25975e-05
-3.25335e-05
-2.88223e-05
-5.47796e-05
3.66202e-06
-5.19283e-05
5.25071e-05
-4.95968e-05
9.37912e-05
-5.11764e-05
0.000117488
-5.03651e-05
0.000122745
-4.3509e-05
0.000134819
-4.91807e-05
0.000138314
-3.54427e-05
0.00013575
-1.5912e-05
0.000110832
-8.66908e-06
9.57567e-05
-3.55655e-05
-4.38774e-05
8.34032e-05
-1.16829e-06
-2.19302e-05
-1.97647e-06
-2.88334e-05
-3.26096e-06
-3.50403e-05
-6.12006e-06
-4.18746e-05
-1.17613e-05
-4.73294e-05
-1.94847e-05
-4.84851e-05
-1.44056e-05
-3.88968e-05
1.61086e-05
-3.30805e-05
4.36828e-05
2.78976e-06
3.52204e-05
1.94586e-05
2.45091e-05
-2.18222e-05
2.67351e-05
-5.70055e-05
3.11883e-05
-5.63815e-05
3.52813e-05
-5.36898e-05
3.66132e-05
-5.25084e-05
3.8617e-05
-5.23689e-05
4.09677e-05
-4.58597e-05
3.35925e-05
-4.18054e-05
3.04983e-05
-3.23485e-05
4.08334e-05
-2.62472e-05
7.25189e-05
-4.03545e-05
9.04499e-05
-5.34963e-05
-5.38077e-05
0.00010038
-9.93062e-07
-2.09372e-05
-1.18875e-06
-2.86377e-05
-2.19243e-06
-3.40366e-05
-4.62515e-06
-3.94418e-05
-8.86122e-06
-4.30933e-05
-1.39967e-05
-4.33496e-05
-1.43626e-05
-3.85309e-05
-1.34893e-05
-3.39538e-05
2.71957e-06
-1.34191e-05
2.52375e-05
-3.05935e-06
3.32627e-05
-2.98473e-05
2.8971e-05
-5.27138e-05
3.09042e-05
-5.83147e-05
3.76609e-05
-6.04465e-05
4.49517e-05
-5.97992e-05
4.89144e-05
-5.63315e-05
5.38369e-05
-5.07822e-05
5.60261e-05
-4.39947e-05
5.63101e-05
-3.26324e-05
5.3216e-05
-2.3153e-05
4.15344e-05
-2.86729e-05
3.23268e-05
-4.42887e-05
-4.62672e-05
2.47863e-05
2.87667e-06
-2.38138e-05
4.14931e-06
-2.99103e-05
3.612e-06
-3.34992e-05
1.01574e-06
-3.68455e-05
-3.14435e-06
-3.89331e-05
-7.70183e-06
-3.8792e-05
-9.74631e-06
-3.64864e-05
-1.12376e-05
-3.24625e-05
-1.17944e-07
-2.45387e-05
1.52307e-05
-1.84079e-05
2.0291e-05
-3.49076e-05
1.58098e-05
-4.82327e-05
1.09605e-05
-5.34654e-05
7.83965e-06
-5.73256e-05
6.54026e-06
-5.84998e-05
6.03402e-06
-5.58253e-05
6.1264e-06
-5.08746e-05
8.03579e-06
-4.59041e-05
1.49153e-05
-3.95119e-05
2.57696e-05
-3.40073e-05
2.96842e-05
-3.25875e-05
2.1201e-05
-3.58055e-05
-3.65743e-05
1.1508e-05
2.13329e-06
-2.59471e-05
3.62548e-06
-3.14025e-05
3.73533e-06
-3.36091e-05
2.06373e-06
-3.51739e-05
-9.9751e-07
-3.58719e-05
-4.33708e-06
-3.54525e-05
-6.58693e-06
-3.42365e-05
-7.11939e-06
-3.193e-05
-1.94654e-06
-2.97115e-05
6.89452e-06
-2.7249e-05
7.96224e-06
-3.59753e-05
2.73272e-06
-4.30031e-05
-1.94405e-06
-4.87886e-05
-5.81504e-06
-5.34546e-05
-9.45033e-06
-5.48645e-05
-1.31102e-05
-5.21655e-05
-1.58898e-05
-4.80949e-05
-1.79306e-05
-4.38633e-05
-1.90901e-05
-3.83524e-05
-1.82433e-05
-3.48541e-05
-1.6144e-05
-3.46868e-05
-1.49415e-05
-3.7008e-05
-3.77711e-05
-1.37446e-05
1.54029e-06
-2.74873e-05
2.48651e-06
-3.23487e-05
2.25337e-06
-3.33759e-05
8.54229e-07
-3.37747e-05
-1.25724e-06
-3.37604e-05
-3.2501e-06
-3.34596e-05
-4.66626e-06
-3.28204e-05
-4.71914e-06
-3.18771e-05
-2.93828e-06
-3.14923e-05
2.6877e-07
-3.0456e-05
-7.01061e-07
-3.50054e-05
-4.67715e-06
-3.9027e-05
-8.93209e-06
-4.45336e-05
-1.34011e-05
-4.89855e-05
-1.78881e-05
-5.03776e-05
-2.15173e-05
-4.85363e-05
-2.41415e-05
-4.54707e-05
-2.5501e-05
-4.25038e-05
-2.5329e-05
-3.85245e-05
-2.36785e-05
-3.65045e-05
-2.20377e-05
-3.63277e-05
-2.20916e-05
-3.6954e-05
-3.6439e-05
-2.34238e-05
6.95432e-07
-2.81827e-05
6.13356e-07
-3.22666e-05
-2.3593e-07
-3.25266e-05
-1.25032e-06
-3.27603e-05
-2.14738e-06
-3.28633e-05
-2.92761e-06
-3.26793e-05
-3.45021e-06
-3.22977e-05
-3.27514e-06
-3.20521e-05
-2.67433e-06
-3.20931e-05
-1.54063e-06
-3.15897e-05
-2.8641e-06
-3.36819e-05
-5.92411e-06
-3.5967e-05
-1.04696e-05
-3.99881e-05
-1.55775e-05
-4.38777e-05
-2.02147e-05
-4.57403e-05
-2.33433e-05
-4.54078e-05
-2.52309e-05
-4.35831e-05
-2.57973e-05
-4.19375e-05
-2.52998e-05
-3.9022e-05
-2.44397e-05
-3.73646e-05
-2.3792e-05
-3.69753e-05
-2.38212e-05
-3.69249e-05
-3.58322e-05
-2.4428e-05
2.57109e-08
-2.82084e-05
-4.70874e-07
-3.177e-05
-1.13096e-06
-3.18665e-05
-1.77736e-06
-3.21139e-05
-2.32289e-06
-3.23177e-05
-2.65575e-06
-3.23464e-05
-2.66252e-06
-3.22909e-05
-2.45315e-06
-3.22615e-05
-2.24245e-06
-3.23038e-05
-1.80973e-06
-3.20224e-05
-2.48985e-06
-3.30018e-05
-3.83646e-06
-3.46203e-05
-6.60442e-06
-3.72201e-05
-1.10186e-05
-3.94635e-05
-1.5659e-05
-4.10999e-05
-1.89508e-05
-4.21159e-05
-2.07139e-05
-4.182e-05
-2.16787e-05
-4.09726e-05
-2.19862e-05
-3.87146e-05
-2.29047e-05
-3.64461e-05
-2.40128e-05
-3.58673e-05
-2.49707e-05
-3.5967e-05
-3.51176e-05
-2.56853e-05
-2.16911e-07
-2.79915e-05
-6.73228e-07
-3.13136e-05
-1.08568e-06
-3.1454e-05
-1.4654e-06
-3.17342e-05
-1.85873e-06
-3.19244e-05
-2.1277e-06
-3.20774e-05
-2.25817e-06
-3.21604e-05
-2.2434e-06
-3.22762e-05
-2.26265e-06
-3.22845e-05
-1.98173e-06
-3.23033e-05
-2.16367e-06
-3.28198e-05
-2.74261e-06
-3.40414e-05
-4.32797e-06
-3.56347e-05
-6.87144e-06
-3.692e-05
-9.70047e-06
-3.82709e-05
-1.26732e-05
-3.91432e-05
-1.54015e-05
-3.90916e-05
-1.79234e-05
-3.84508e-05
-1.93253e-05
-3.73126e-05
-2.06406e-05
-3.51308e-05
-2.28202e-05
-3.36877e-05
-2.51137e-05
-3.36736e-05
-3.34975e-05
-2.67338e-05
-2.76925e-07
-2.77145e-05
-5.28234e-07
-3.10623e-05
-7.98841e-07
-3.11834e-05
-1.16832e-06
-3.13646e-05
-1.66648e-06
-3.14262e-05
-2.17273e-06
-3.15712e-05
-2.64702e-06
-3.16861e-05
-3.07756e-06
-3.18457e-05
-3.3487e-06
-3.20133e-05
-3.30931e-06
-3.23426e-05
-3.30811e-06
-3.2821e-05
-3.72963e-06
-3.36198e-05
-5.03126e-06
-3.43331e-05
-6.71247e-06
-3.52388e-05
-8.91077e-06
-3.60725e-05
-1.20042e-05
-3.60498e-05
-1.50161e-05
-3.60797e-05
-1.74903e-05
-3.59766e-05
-1.95818e-05
-3.52212e-05
-2.14808e-05
-3.32319e-05
-2.38522e-05
-3.13163e-05
-2.60252e-05
-3.15006e-05
-3.19116e-05
-2.7611e-05
-2.12666e-07
-2.75018e-05
-5.54036e-07
-3.07209e-05
-1.02078e-06
-3.07166e-05
-1.60005e-06
-3.07854e-05
-2.19214e-06
-3.08341e-05
-2.86896e-06
-3.08943e-05
-3.51004e-06
-3.1045e-05
-4.1294e-06
-3.12263e-05
-4.66879e-06
-3.14739e-05
-5.0816e-06
-3.19298e-05
-5.50742e-06
-3.23952e-05
-6.24845e-06
-3.28788e-05
-7.26226e-06
-3.33192e-05
-8.58978e-06
-3.39112e-05
-1.05587e-05
-3.41036e-05
-1.28041e-05
-3.38044e-05
-1.49428e-05
-3.3941e-05
-1.70138e-05
-3.39057e-05
-1.90776e-05
-3.31573e-05
-2.0698e-05
-3.16115e-05
-2.21242e-05
-2.98901e-05
-2.36062e-05
-3.00186e-05
-3.04055e-05
-2.51124e-05
-2.87161e-07
-2.72147e-05
-7.81185e-07
-3.02269e-05
-1.31879e-06
-3.0179e-05
-1.8089e-06
-3.02952e-05
-2.29983e-06
-3.03431e-05
-2.80205e-06
-3.03921e-05
-3.35193e-06
-3.04951e-05
-3.99702e-06
-3.05812e-05
-4.71565e-06
-3.07553e-05
-5.47905e-06
-3.11664e-05
-6.31678e-06
-3.15574e-05
-7.31728e-06
-3.18783e-05
-8.58457e-06
-3.20519e-05
-1.00602e-05
-3.24356e-05
-1.16634e-05
-3.25005e-05
-1.30384e-05
-3.24294e-05
-1.47179e-05
-3.22615e-05
-1.68348e-05
-3.17888e-05
-1.89708e-05
-3.10213e-05
-2.08676e-05
-2.97147e-05
-2.23677e-05
-2.839e-05
-2.37627e-05
-2.86236e-05
-2.9087e-05
-2.50811e-05
-4.04001e-07
-2.68107e-05
-8.19904e-07
-2.98109e-05
-1.19495e-06
-2.98039e-05
-1.62199e-06
-2.98682e-05
-2.0727e-06
-2.98924e-05
-2.54484e-06
-2.992e-05
-3.06906e-06
-2.99709e-05
-3.62161e-06
-3.00286e-05
-4.22396e-06
-3.01529e-05
-5.09451e-06
-3.02959e-05
-6.05463e-06
-3.05973e-05
-7.09275e-06
-3.08402e-05
-8.26113e-06
-3.08835e-05
-9.71513e-06
-3.09816e-05
-1.11833e-05
-3.10324e-05
-1.2595e-05
-3.10177e-05
-1.41158e-05
-3.07406e-05
-1.58033e-05
-3.01013e-05
-1.73739e-05
-2.94508e-05
-1.8746e-05
-2.83426e-05
-1.9883e-05
-2.72531e-05
-2.13548e-05
-2.71518e-05
-2.72172e-05
-2.32246e-05
-3.23144e-07
-2.64875e-05
-7.61373e-07
-2.93727e-05
-1.23209e-06
-2.93332e-05
-1.74651e-06
-2.93537e-05
-2.26659e-06
-2.93723e-05
-2.77168e-06
-2.94149e-05
-3.27545e-06
-2.94671e-05
-3.76998e-06
-2.95341e-05
-4.32056e-06
-2.96023e-05
-4.96626e-06
-2.96502e-05
-5.83522e-06
-2.97283e-05
-6.87271e-06
-2.98027e-05
-7.82327e-06
-2.9933e-05
-8.95519e-06
-2.98497e-05
-1.027e-05
-2.97175e-05
-1.1893e-05
-2.93948e-05
-1.37289e-05
-2.89047e-05
-1.52768e-05
-2.85535e-05
-1.66925e-05
-2.80351e-05
-1.81461e-05
-2.68891e-05
-1.93529e-05
-2.60463e-05
-2.06578e-05
-2.58468e-05
-2.52851e-05
-2.259e-05
-4.57509e-07
-2.603e-05
-9.73196e-07
-2.8857e-05
-1.47045e-06
-2.88359e-05
-1.96565e-06
-2.88585e-05
-2.47135e-06
-2.88666e-05
-3.01134e-06
-2.88749e-05
-3.5873e-06
-2.88911e-05
-4.18168e-06
-2.89397e-05
-4.78611e-06
-2.89979e-05
-5.50084e-06
-2.89354e-05
-6.47244e-06
-2.87567e-05
-7.47755e-06
-2.87976e-05
-8.54099e-06
-2.88695e-05
-9.63672e-06
-2.87539e-05
-1.07882e-05
-2.85661e-05
-1.19552e-05
-2.82278e-05
-1.29986e-05
-2.78613e-05
-1.42088e-05
-2.73433e-05
-1.56713e-05
-2.65725e-05
-1.69434e-05
-2.5617e-05
-1.81019e-05
-2.48878e-05
-1.96112e-05
-2.43376e-05
-2.34754e-05
-2.14208e-05
-3.27833e-07
-2.57021e-05
-7.50015e-07
-2.84348e-05
-1.20355e-06
-2.83824e-05
-1.68446e-06
-2.83776e-05
-2.18695e-06
-2.83641e-05
-2.70765e-06
-2.83542e-05
-3.25798e-06
-2.83408e-05
-3.87662e-06
-2.83211e-05
-4.61213e-06
-2.82624e-05
-5.36599e-06
-2.81816e-05
-6.01715e-06
-2.81056e-05
-6.76196e-06
-2.80527e-05
-7.81242e-06
-2.78191e-05
-8.94447e-06
-2.76219e-05
-1.00526e-05
-2.7458e-05
-1.11509e-05
-2.71295e-05
-1.24353e-05
-2.65768e-05
-1.39466e-05
-2.58321e-05
-1.52533e-05
-2.52657e-05
-1.62551e-05
-2.46153e-05
-1.73716e-05
-2.37713e-05
-1.88329e-05
-2.28763e-05
-2.20076e-05
-2.03007e-05
-4.17919e-07
-2.52842e-05
-8.96827e-07
-2.79559e-05
-1.37517e-06
-2.7904e-05
-1.87644e-06
-2.78763e-05
-2.40843e-06
-2.78321e-05
-2.97652e-06
-2.77861e-05
-3.56791e-06
-2.77494e-05
-4.18918e-06
-2.76998e-05
-4.83453e-06
-2.7617e-05
-5.50037e-06
-2.75157e-05
-6.21069e-06
-2.73952e-05
-7.04273e-06
-2.72207e-05
-7.84973e-06
-2.70121e-05
-8.80182e-06
-2.66698e-05
-1.00446e-05
-2.62152e-05
-1.11984e-05
-2.59757e-05
-1.22241e-05
-2.55512e-05
-1.31011e-05
-2.49551e-05
-1.40662e-05
-2.43007e-05
-1.52132e-05
-2.34683e-05
-1.64947e-05
-2.24898e-05
-1.77596e-05
-2.16114e-05
-2.07346e-05
-1.90325e-05
-3.90197e-07
-2.4894e-05
-8.37302e-07
-2.75088e-05
-1.27722e-06
-2.74641e-05
-1.71679e-06
-2.74368e-05
-2.15809e-06
-2.73908e-05
-2.62142e-06
-2.73227e-05
-3.1351e-06
-2.72357e-05
-3.70188e-06
-2.7133e-05
-4.32273e-06
-2.69962e-05
-5.04428e-06
-2.67942e-05
-5.89399e-06
-2.65455e-05
-6.80705e-06
-2.63076e-05
-7.71053e-06
-2.61086e-05
-8.55706e-06
-2.58233e-05
-9.2304e-06
-2.55419e-05
-1.0089e-05
-2.51171e-05
-1.11201e-05
-2.45201e-05
-1.22796e-05
-2.37956e-05
-1.35699e-05
-2.30104e-05
-1.47057e-05
-2.23325e-05
-1.56175e-05
-2.15779e-05
-1.66165e-05
-2.06124e-05
-1.95125e-05
-1.78386e-05
-3.88106e-07
-2.45059e-05
-8.37892e-07
-2.7059e-05
-1.29778e-06
-2.70042e-05
-1.78602e-06
-2.69485e-05
-2.30504e-06
-2.68718e-05
-2.8447e-06
-2.67831e-05
-3.40186e-06
-2.66786e-05
-3.98661e-06
-2.65483e-05
-4.59168e-06
-2.63911e-05
-5.17168e-06
-2.62142e-05
-5.71554e-06
-2.60017e-05
-6.30721e-06
-2.5716e-05
-7.05078e-06
-2.5365e-05
-7.89502e-06
-2.4979e-05
-8.93336e-06
-2.45036e-05
-1.00534e-05
-2.39971e-05
-1.10439e-05
-2.35297e-05
-1.19087e-05
-2.29308e-05
-1.26498e-05
-2.22693e-05
-1.35074e-05
-2.14749e-05
-1.45796e-05
-2.05057e-05
-1.56437e-05
-1.95483e-05
-1.85503e-05
-1.66059e-05
-3.53151e-07
-2.41527e-05
-7.49815e-07
-2.66623e-05
-1.14359e-06
-2.66104e-05
-1.54815e-06
-2.65439e-05
-1.97093e-06
-2.6449e-05
-2.42689e-06
-2.63271e-05
-2.92829e-06
-2.61771e-05
-3.47731e-06
-2.59992e-05
-4.07733e-06
-2.57911e-05
-4.74881e-06
-2.55427e-05
-5.50457e-06
-2.52459e-05
-6.29846e-06
-2.49221e-05
-7.06903e-06
-2.45945e-05
-7.82855e-06
-2.42195e-05
-8.5275e-06
-2.38046e-05
-9.17823e-06
-2.33463e-05
-9.94717e-06
-2.27607e-05
-1.0821e-05
-2.2057e-05
-1.18326e-05
-2.12577e-05
-1.28534e-05
-2.04542e-05
-1.36983e-05
-1.96608e-05
-1.45369e-05
-1.87096e-05
-1.76391e-05
-1.54482e-05
-3.59917e-07
-2.37928e-05
-7.68734e-07
-2.62535e-05
-1.17917e-06
-2.62e-05
-1.60626e-06
-2.61168e-05
-2.04997e-06
-2.60053e-05
-2.51114e-06
-2.58659e-05
-2.99157e-06
-2.56967e-05
-3.4942e-06
-2.54966e-05
-4.01896e-06
-2.52663e-05
-4.55545e-06
-2.50062e-05
-5.09611e-06
-2.47052e-05
-5.66384e-06
-2.43543e-05
-6.29395e-06
-2.39643e-05
-6.98681e-06
-2.35267e-05
-7.76119e-06
-2.30302e-05
-8.63986e-06
-2.24677e-05
-9.53558e-06
-2.1865e-05
-1.03697e-05
-2.12229e-05
-1.11097e-05
-2.05176e-05
-1.18515e-05
-1.97124e-05
-1.26904e-05
-1.88219e-05
-1.3521e-05
-1.7879e-05
-1.68522e-05
-1.43078e-05
-3.11537e-07
-2.34813e-05
-6.59251e-07
-2.59058e-05
-1.01009e-06
-2.58492e-05
-1.38008e-06
-2.57468e-05
-1.77461e-06
-2.56107e-05
-2.19997e-06
-2.54406e-05
-2.65934e-06
-2.52373e-05
-3.15237e-06
-2.50036e-05
-3.67867e-06
-2.474e-05
-4.2392e-06
-2.44456e-05
-4.83235e-06
-2.41121e-05
-5.45606e-06
-2.37306e-05
-6.1038e-06
-2.33166e-05
-6.76364e-06
-2.28668e-05
-7.42624e-06
-2.23676e-05
-8.0786e-06
-2.18153e-05
-8.74487e-06
-2.11987e-05
-9.46357e-06
-2.05042e-05
-1.02397e-05
-1.97414e-05
-1.10183e-05
-1.89338e-05
-1.17589e-05
-1.80813e-05
-1.24858e-05
-1.71522e-05
-1.61341e-05
-1.32038e-05
-2.94305e-07
-2.3187e-05
-6.26242e-07
-2.55738e-05
-9.59967e-07
-2.55154e-05
-1.31064e-06
-2.53962e-05
-1.67873e-06
-2.52427e-05
-2.06736e-06
-2.5052e-05
-2.47996e-06
-2.48247e-05
-2.91906e-06
-2.45645e-05
-3.38873e-06
-2.42703e-05
-3.89287e-06
-2.39415e-05
-4.41972e-06
-2.35852e-05
-4.95753e-06
-2.31928e-05
-5.52037e-06
-2.27537e-05
-6.12076e-06
-2.22664e-05
-6.75555e-06
-2.17328e-05
-7.4222e-06
-2.11487e-05
-8.10901e-06
-2.05119e-05
-8.78923e-06
-1.98239e-05
-9.45328e-06
-1.90774e-05
-1.01204e-05
-1.82666e-05
-1.08029e-05
-1.73988e-05
-1.14776e-05
-1.64775e-05
-1.54839e-05
-1.21278e-05
-2.46678e-07
-2.29403e-05
-5.34376e-07
-2.52861e-05
-8.25313e-07
-2.52245e-05
-1.1342e-06
-2.50873e-05
-1.46294e-06
-2.49139e-05
-1.81586e-06
-2.4699e-05
-2.19816e-06
-2.44424e-05
-2.61007e-06
-2.41525e-05
-3.04889e-06
-2.38315e-05
-3.51235e-06
-2.3478e-05
-4.0064e-06
-2.30912e-05
-4.53044e-06
-2.26688e-05
-5.07441e-06
-2.22098e-05
-5.63185e-06
-2.1709e-05
-6.2046e-06
-2.11601e-05
-6.79005e-06
-2.05632e-05
-7.38666e-06
-1.99153e-05
-7.99851e-06
-1.92121e-05
-8.62228e-06
-1.84536e-05
-9.24723e-06
-1.76416e-05
-9.8668e-06
-1.67792e-05
-1.04791e-05
-1.58652e-05
-1.4889e-05
-1.10741e-05
-2.00137e-07
-2.27401e-05
-4.50573e-07
-2.50357e-05
-7.04432e-07
-2.49706e-05
-9.74566e-07
-2.48171e-05
-1.26059e-06
-2.46279e-05
-1.56519e-06
-2.43944e-05
-1.89544e-06
-2.41122e-05
-2.25624e-06
-2.37917e-05
-2.65151e-06
-2.34362e-05
-3.08178e-06
-2.30478e-05
-3.54121e-06
-2.26317e-05
-4.02303e-06
-2.21869e-05
-4.5249e-06
-2.17079e-05
-5.04486e-06
-2.1189e-05
-5.58142e-06
-2.06235e-05
-6.12892e-06
-2.00157e-05
-6.68486e-06
-1.93593e-05
-7.24521e-06
-1.86517e-05
-7.80701e-06
-1.78918e-05
-8.37005e-06
-1.70786e-05
-8.93437e-06
-1.62149e-05
-9.49482e-06
-1.53047e-05
-1.43428e-05
-1.0041e-05
-1.5061e-07
-2.25895e-05
-3.72664e-07
-2.48137e-05
-5.98997e-07
-2.47443e-05
-8.36758e-07
-2.45794e-05
-1.08444e-06
-2.43802e-05
-1.33779e-06
-2.41411e-05
-1.59274e-06
-2.38572e-05
-1.8637e-06
-2.35208e-05
-2.16805e-06
-2.31319e-05
-2.52043e-06
-2.26954e-05
-2.92919e-06
-2.2223e-05
-3.39066e-06
-2.17255e-05
-3.88797e-06
-2.12106e-05
-4.40329e-06
-2.06737e-05
-4.91921e-06
-2.01076e-05
-5.43586e-06
-1.9499e-05
-5.95113e-06
-1.8844e-05
-6.46683e-06
-1.8136e-05
-6.98185e-06
-1.73767e-05
-7.4957e-06
-1.65647e-05
-8.00871e-06
-1.57019e-05
-8.51994e-06
-1.47934e-05
-1.38396e-05
-9.02313e-06
-9.41308e-08
-2.24954e-05
-3.2049e-07
-2.45873e-05
-5.4679e-07
-2.4518e-05
-7.74056e-07
-2.43521e-05
-1.00594e-06
-2.41483e-05
-1.24245e-06
-2.39046e-05
-1.47936e-06
-2.36203e-05
-1.71781e-06
-2.32823e-05
-1.96219e-06
-2.28875e-05
-2.2175e-06
-2.24401e-05
-2.49618e-06
-2.19443e-05
-2.81344e-06
-2.14082e-05
-3.18616e-06
-2.08379e-05
-3.63063e-06
-2.02292e-05
-4.1277e-06
-1.96105e-05
-4.64819e-06
-1.89785e-05
-5.1661e-06
-1.83261e-05
-5.66272e-06
-1.76393e-05
-6.14434e-06
-1.6895e-05
-6.61678e-06
-1.60922e-05
-7.08476e-06
-1.52339e-05
-7.55186e-06
-1.43263e-05
-1.33738e-05
-8.01763e-06
-7.21929e-08
-2.24232e-05