/*--------------------------------*- C++ -*----------------------------------*\
| =========                 |                                                 |
| \\      /  F ield         | OpenFOAM: The Open Source CFD Toolbox           |
|  \\    /   O peration     | Version:  2.4.0                                 |
|   \\  /    A nd           | Web:      www.OpenFOAM.org                      |
|    \\/     M anipulation  |                                                 |
\*---------------------------------------------------------------------------*/
FoamFile
{
    version     2.0;
    format      ascii;
    class       surfaceScalarField;
    location    "0.45";
    object      phi.air;
}
// * * * * * * * * * * * * * * * * * * * * * * * * * * * * * * * * * * * * * //

dimensions      [0 3 -1 0 0 0 0];

internalField   nonuniform List<scalar> 
4432
(
2.98583e-06
-2.9858e-06
6.07857e-06
-3.09271e-06
8.69151e-06
-2.61295e-06
1.24983e-05
-3.80681e-06
1.47793e-05
-2.28097e-06
1.78016e-05
-3.02227e-06
2.15252e-05
-3.72356e-06
2.4567e-05
-3.04167e-06
2.69895e-05
-2.42245e-06
2.90281e-05
-2.03857e-06
3.20894e-05
-3.06119e-06
3.53264e-05
-3.237e-06
3.77595e-05
-2.43302e-06
3.91637e-05
-1.40413e-06
3.89953e-05
1.68556e-07
3.75123e-05
1.48306e-06
3.45218e-05
2.99044e-06
3.03697e-05
4.15198e-06
2.53391e-05
5.03064e-06
2.01289e-05
5.21016e-06
1.35578e-05
6.57107e-06
5.27994e-06
8.278e-06
5.27992e-06
2.98769e-06
-5.97347e-06
6.08109e-06
-6.1861e-06
8.74481e-06
-5.27667e-06
1.23888e-05
-7.45085e-06
1.48124e-05
-4.70459e-06
1.79322e-05
-6.14212e-06
2.15331e-05
-7.32443e-06
2.4431e-05
-5.93969e-06
2.69929e-05
-4.98441e-06
2.94443e-05
-4.48999e-06
3.26632e-05
-6.28017e-06
3.55297e-05
-6.10351e-06
3.77431e-05
-4.64644e-06
3.88462e-05
-2.50727e-06
3.9435e-05
-4.20208e-07
3.79291e-05
2.98891e-06
3.54057e-05
5.5139e-06
3.10752e-05
8.48259e-06
2.63786e-05
9.72737e-06
2.03102e-05
1.12786e-05
1.38215e-05
1.30599e-05
6.31194e-06
1.57877e-05
1.15922e-05
2.99528e-06
-8.96871e-06
6.05009e-06
-9.24089e-06
8.85523e-06
-8.0818e-06
1.22107e-05
-1.08063e-05
1.49498e-05
-7.44371e-06
1.81399e-05
-9.33214e-06
2.13898e-05
-1.05742e-05
2.40978e-05
-8.6475e-06
2.70023e-05
-7.88854e-06
3.02143e-05
-7.70089e-06
3.33412e-05
-9.40231e-06
3.53183e-05
-8.07466e-06
3.72711e-05
-6.59037e-06
3.90897e-05
-4.32101e-06
3.97526e-05
-1.08182e-06
3.91801e-05
3.5616e-06
3.6731e-05
7.96303e-06
3.26844e-05
1.25292e-05
2.72024e-05
1.52094e-05
2.1439e-05
1.70419e-05
1.54891e-05
1.90098e-05
9.35518e-06
2.19217e-05
2.09473e-05
3.00499e-06
-1.18212e-05
6.01804e-06
-1.20917e-05
9.0168e-06
-1.09266e-05
1.20473e-05
-1.36266e-05
1.50438e-05
-1.02605e-05
1.82527e-05
-1.23138e-05
2.13439e-05
-1.33758e-05
2.38784e-05
-1.08875e-05
2.73086e-05
-1.09809e-05
3.07573e-05
-1.07597e-05
3.3305e-05
-1.14885e-05
3.49714e-05
-9.2539e-06
3.71286e-05
-8.23067e-06
3.85166e-05
-5.17716e-06
4.02072e-05
-2.2467e-06
4.1595e-05
2.50536e-06
3.94346e-05
1.02186e-05
3.52051e-05
1.67646e-05
2.76623e-05
2.27523e-05
1.9604e-05
2.51003e-05
1.30036e-05
2.56102e-05
7.1253e-06
2.78e-05
2.80727e-05
3.01164e-06
-1.54295e-05
5.95913e-06
-1.57395e-05
9.25343e-06
-1.4888e-05
1.16392e-05
-1.72285e-05
1.52762e-05
-1.49264e-05
1.839e-05
-1.69986e-05
2.08062e-05
-1.83013e-05
2.40574e-05
-1.70194e-05
2.76196e-05
-1.83306e-05
3.08293e-05
-1.88256e-05
3.29659e-05
-2.00081e-05
3.53286e-05
-1.89716e-05
3.78031e-05
-1.91732e-05
4.03158e-05
-1.65322e-05
4.20586e-05
-1.29335e-05
4.18788e-05
-4.60996e-06
4.02835e-05
7.97879e-06
3.56909e-05
2.15319e-05
2.82433e-05
3.03921e-05
1.95892e-05
3.37639e-05
1.12694e-05
3.39299e-05
6.53634e-06
3.2533e-05
3.4609e-05
2.9128e-06
-3.22282e-05
5.71831e-06
-3.26678e-05
9.14659e-06
-3.24948e-05
1.10055e-05
-3.43467e-05
1.45956e-05
-3.37954e-05
1.75371e-05
-3.57911e-05
1.96204e-05
-3.70184e-05
2.27524e-05
-3.73347e-05
2.55959e-05
-3.9716e-05
2.80762e-05
-4.1806e-05
3.01049e-05
-4.46876e-05
3.27152e-05
-4.60571e-05
3.428e-05
-4.36493e-05
3.63648e-05
-3.6546e-05
3.79575e-05
-2.62416e-05
3.91579e-05
-2.19073e-05
3.75613e-05
-6.67057e-06
3.20138e-05
1.45732e-05
2.68107e-05
3.39817e-05
2.01783e-05
4.07498e-05
1.14488e-05
4.26666e-05
4.97965e-06
3.9002e-05
3.95883e-05
2.2988e-06
-5.16038e-05
4.46982e-06
-5.09452e-05
7.09935e-06
-5.04711e-05
8.341e-06
-4.68385e-05
1.02389e-05
-4.60041e-05
1.22978e-05
-4.21738e-05
1.34796e-05
-3.48758e-05
1.44415e-05
-3.02097e-05
1.57473e-05
-2.69523e-05
1.68339e-05
-2.30621e-05
1.74176e-05
-1.97421e-05
1.7253e-05
-1.62755e-05
1.65686e-05
-1.28219e-05
1.56314e-05
-9.50586e-06
1.59516e-05
-5.93389e-06
2.26524e-05
-3.19359e-06
3.18519e-05
-6.06392e-07
2.67783e-05
3.56303e-06
2.05869e-05
2.81327e-05
1.85425e-05
4.2071e-05
1.25413e-05
4.88015e-05
6.63688e-06
4.49069e-05
4.62251e-05
5.00657e-07
-2.23516e-05
1.11371e-06
-2.22725e-05
1.48431e-06
-2.21435e-05
2.63553e-06
-2.13385e-05
3.19435e-06
-2.10246e-05
4.25716e-06
-2.19733e-05
5.87884e-06
-2.08812e-05
8.213e-06
-2.09861e-05
1.05701e-05
-2.14871e-05
1.2986e-05
-2.037e-05
1.42854e-05
-1.80919e-05
1.55795e-05
-1.59922e-05
1.6191e-05
-1.27514e-05
1.63945e-05
-9.49392e-06
1.39241e-05
-3.42373e-06
1.14672e-05
-3.18685e-07
1.68061e-05
3.09448e-06
2.42035e-05
1.87953e-05
1.2567e-05
2.62557e-05
1.2655e-05
3.59831e-05
1.25575e-05
4.92862e-05
8.84985e-06
4.86303e-05
5.50748e-05
-2.16918e-05
1.41854e-05
-4.02871e-05
1.35466e-05
-5.73974e-05
1.14651e-05
-6.71901e-05
4.03639e-07
-6.24516e-05
-1.95922e-05
-5.1317e-05
-3.61211e-05
-4.46222e-05
-3.52749e-05
-3.66345e-05
-3.5766e-05
-2.64917e-05
-2.68131e-05
-1.52698e-05
-2.14888e-05
-4.64019e-06
-6.37937e-05
9.43042e-06
-7.58566e-05
2.64709e-05
-8.88523e-05
4.5628e-05
-9.35358e-05
6.64641e-05
-8.6535e-05
7.9224e-05
-6.94347e-05
7.72278e-05
-4.6032e-05
4.60349e-05
-1.85e-05
2.31102e-05
-1.63944e-05
3.3017e-05
-2.93465e-05
3.63462e-05
-4.2142e-05
3.14565e-05
-5.1864e-05
2.66327e-05
-5.26639e-05
7.59054e-06
-5.08326e-05
-8.28098e-06
-4.91073e-05
3.54276e-05
-4.37819e-05
4.93565e-05
-3.81277e-05
4.28551e-05
-2.97219e-05
3.6025e-05
-1.29492e-06
2.60304e-05
2.69475e-05
-3.35051e-05
5.14147e-05
-0.000124294
7.4706e-05
-0.000155864
9.00925e-05
-0.000128817
9.48615e-05
-0.000106784
8.98026e-05
-6.99588e-05
5.47529e-05
5.91533e-06
5.39172e-05
-7.40785e-06
4.22853e-05
-1.58713e-05
4.35903e-05
-2.47325e-05
4.14127e-05
-3.02503e-05
3.37534e-05
-2.46717e-05
6.19453e-05
-2.57866e-06
8.76347e-05
-2.197e-05
0.000135493
-2.63072e-05
5.65988e-05
-1.86312e-05
2.01014e-05
-1.01891e-05
1.46016e-05
-1.08043e-05
1.49094e-05
-2.31723e-05
1.81243e-05
4.84271e-05
5.3061e-05
7.84522e-05
-4.94365e-06
9.24751e-05
-0.0001542
9.86025e-05
-0.000124342
8.80244e-05
-7.23383e-05
5.648e-05
-3.72878e-07
7.64794e-05
1.31581e-06
3.74675e-05
-1.25068e-06
4.31632e-05
-4.50023e-06
4.62237e-05
1.4978e-05
2.28797e-05
2.39698e-05
3.58252e-05
2.93157e-05
5.91839e-05
2.1915e-05
2.493e-05
2.392e-05
-9.76988e-06
3.78383e-05
-2.90139e-05
4.34348e-05
-2.20216e-05
4.29972e-05
-1.17844e-05
3.44934e-05
-2.03347e-05
3.00911e-05
3.94365e-06
5.63692e-05
2.26072e-05
9.36118e-05
-3.66468e-05
0.000100401
-0.000114448
8.83938e-05
-4.05828e-05
5.57499e-05
2.23899e-05
0.000104823
7.68589e-06
1.08909e-05
1.24574e-05
1.71696e-05
1.58992e-05
2.75936e-05
4.78811e-05
8.15023e-06
6.79921e-05
-1.65313e-05
0.000105302
-4.4756e-05
0.000135001
-2.49377e-05
0.000131774
-1.41472e-05
0.000127413
-3.14315e-05
9.42689e-05
1.15959e-06
1.66229e-05
4.62373e-05
3.31332e-05
-7.94052e-05
4.67531e-05
-8.70481e-05
6.78162e-05
-3.87807e-05
8.741e-05
4.17126e-05
9.65611e-05
-0.000116753
8.30568e-05
-2.16974e-05
5.52871e-05
0.000102234
0.000139294
1.58246e-05
-3.16495e-05
2.82763e-05
-1.72481e-05
4.17605e-05
-6.45057e-06
8.59737e-05
-2.6199e-05
6.96073e-05
-4.45914e-05
6.2738e-05
-3.10377e-05
9.59602e-05
-3.05581e-05
0.000119753
-1.78968e-05
0.000100661
-7.43647e-06
7.70984e-05
2.48373e-05
4.93207e-05
7.36384e-05
9.57539e-05
-0.000123419
0.00010374
-7.7254e-05
8.76967e-05
-6.64635e-06
9.15186e-05
3.50866e-05
9.52688e-05
-0.000129949
7.96718e-05
8.29391e-08
5.49043e-05
0.00015903
0.000171536
2.13021e-05
4.30516e-05
3.79081e-05
-1.68043e-05
5.68961e-05
-4.00141e-05
8.20332e-05
-5.21261e-05
7.97746e-05
-7.33076e-05
6.52687e-05
-1.35054e-05
6.56844e-05
1.14284e-05
9.71943e-05
-1.21021e-05
0.000119234
-7.61327e-06
0.000132178
1.78188e-05
0.000167985
4.7553e-05
0.000125848
-5.86316e-05
0.000120978
-3.61404e-05
0.000110374
-4.41238e-08
9.42955e-05
-7.86188e-06
9.48253e-05
-4.58385e-05
7.42172e-05
2.55821e-05
5.14079e-05
0.000179658
0.000194378
2.75167e-05
-1.09498e-05
5.31635e-05
-3.82432e-06
5.53474e-05
-1.11228e-05
6.80055e-05
-5.99712e-05
6.9899e-05
-8.84687e-05
7.00106e-05
-6.33416e-05
5.93427e-05
7.10136e-06
6.18487e-05
2.07208e-05
8.27229e-05
1.02137e-05
0.000108388
2.12925e-05
0.000159164
3.97223e-05
0.000134381
1.19488e-05
0.000130618
-8.50225e-06
0.000112129
-2.43938e-06
0.000100821
4.84334e-05
8.2058e-05
0.000199636
7.37557e-05
0.000323221
5.67362e-05
0.000409144
0.000242026
1.95671e-06
-2.2513e-05
4.06345e-06
-2.27304e-05
6.27126e-06
-2.29182e-05
8.53261e-06
-2.25253e-05
1.13971e-05
-2.308e-05
1.49452e-05
-2.50687e-05
1.80507e-05
-2.37794e-05
2.29519e-05
-2.58075e-05
2.81703e-05
-2.66797e-05
3.25994e-05
-2.47882e-05
3.62036e-05
-2.16901e-05
3.97551e-05
-1.95391e-05
4.19988e-05
-1.49908e-05
4.4098e-05
-1.15884e-05
4.49388e-05
-4.25947e-06
4.26118e-05
2.01387e-06
2.92872e-05
1.65119e-05
2.99606e-05
3.12235e-05
3.12305e-05
3.27923e-05
1.49732e-05
3.2926e-05
2.08592e-05
3.60254e-05
3.23427e-05
3.69562e-05
3.65806e-05
5.09644e-05
2.07998e-06
-2.45469e-05
4.31745e-06
-2.49229e-05
6.40004e-06
-2.49562e-05
8.90872e-06
-2.49895e-05
1.11788e-05
-2.53064e-05
1.37387e-05
-2.75838e-05
1.67578e-05
-2.67571e-05
2.11615e-05
-3.02019e-05
2.53911e-05
-3.09066e-05
3.01159e-05
-2.95113e-05
3.48835e-05
-2.64553e-05
3.85046e-05
-2.31571e-05
3.93183e-05
-1.58014e-05
3.90229e-05
-1.12893e-05
3.89147e-05
-4.14667e-06
3.83689e-05
2.56581e-06
3.99405e-05
1.49471e-05
4.09008e-05
3.04837e-05
4.27805e-05
4.40389e-05
3.15762e-05
4.62084e-05
2.14173e-05
3.44162e-05
2.85061e-05
2.21666e-05
2.14043e-05
4.12262e-05
2.57704e-06
-2.18687e-05
5.08099e-06
-2.25244e-05
7.35806e-06
-2.33955e-05
9.68197e-06
-2.47455e-05
1.19468e-05
-2.63364e-05
1.38744e-05
-2.92283e-05
1.74876e-05
-3.03155e-05
2.29481e-05
-3.56023e-05
2.90897e-05
-3.70127e-05
3.71332e-05
-3.75686e-05
4.46858e-05
-3.39629e-05
5.08891e-05
-2.91703e-05
5.55252e-05
-2.02497e-05
5.95603e-05
-1.51384e-05
5.97974e-05
-4.27298e-06
5.69928e-05
5.40211e-06
5.41553e-05
1.77811e-05
5.71784e-05
2.74578e-05
6.05766e-05
4.0102e-05
6.57365e-05
4.97201e-05
5.55969e-05
4.32497e-05
4.64842e-05
2.44842e-05
8.43323e-06
5.18524e-05
2.62965e-06
2.58658e-05
5.06166e-06
2.5171e-05
6.96838e-06
2.48068e-05
8.48788e-06
2.34674e-05
1.00539e-05
2.10872e-05
1.17732e-05
1.37551e-05
1.47926e-05
-1.11495e-05
2.07812e-05
-2.46812e-05
2.96504e-05
-2.38135e-05
3.9062e-05
-2.29988e-05
4.63032e-05
-3.31833e-05
5.03186e-05
-3.26582e-05
5.33437e-05
-2.39632e-05
5.49389e-05
-1.80021e-05
5.72029e-05
-7.18363e-06
6.03583e-05
2.53369e-06
6.50143e-05
1.38345e-05
6.94126e-05
2.36385e-05
7.6349e-05
3.3494e-05
9.02923e-05
3.57046e-05
0.000103178
4.09175e-05
0.000105648
2.63092e-05
8.53501e-06
0.000102132
1.74571e-06
3.54996e-05
2.54977e-06
3.70787e-05
1.71653e-06
4.03404e-05
-2.1021e-06
4.43072e-05
-1.01342e-05
4.48945e-05
-1.04395e-05
3.20239e-05
6.45454e-06
1.41442e-05
1.80358e-05
5.27688e-06
2.98475e-05
1.43018e-05
3.5128e-05
4.39681e-05
3.83795e-05
4.97915e-05
4.22027e-05
4.14277e-05
4.70602e-05
2.33789e-05
5.0445e-05
1.00036e-05
5.53765e-05
1.99267e-06
5.94543e-05
1.58113e-06
6.43389e-05
6.50158e-06
7.08252e-05
1.51697e-05
8.05833e-05
2.22911e-05
9.36258e-05
2.14914e-05
0.000109646
2.42886e-05
0.000128731
1.51269e-05
7.63783e-06
0.000142038
4.75248e-06
-3.81816e-07
8.35374e-06
2.14041e-06
1.21107e-05
5.36874e-06
1.30562e-05
1.20091e-05
6.66511e-06
2.29837e-05
-2.09263e-06
3.22596e-05
-1.29656e-05
4.94728e-05
-1.08884e-05
5.02673e-05
-1.48522e-05
5.54815e-05
-1.91896e-05
2.88114e-05
-2.52473e-05
1.92775e-05
-2.23884e-05
2.24199e-05
-1.75001e-05
2.62531e-05
-1.29477e-05
2.55645e-05
-3.63634e-06
2.34521e-05
1.08385e-05
2.19794e-05
2.82461e-05
2.30962e-05
4.5416e-05
2.53353e-05
5.94247e-05
2.94913e-05
7.82476e-05
3.23366e-05
9.40864e-05
3.34169e-05
0.000111875
2.32915e-05
1.41948e-05
0.000126743
2.25992e-06
-3.99238e-05
2.997e-06
-3.6804e-05
2.38224e-06
-3.38138e-05
-8.56735e-07
-2.74535e-05
-4.94707e-06
-2.17461e-05
-2.27519e-06
-2.90223e-05
-6.7273e-07
-1.65636e-05
-5.18226e-05
3.85354e-05
-9.69266e-05
1.92876e-05
-9.41059e-05
-3.39925e-05
-8.27677e-05
-2.59511e-05
-7.67552e-05
6.51136e-06
-7.47594e-05
3.5974e-05
-7.12161e-05
4.67632e-05
-6.85231e-05
4.8397e-05
-6.32616e-05
4.63975e-05
-4.62594e-05
4.07432e-05
-2.21517e-05
3.95556e-05
1.19673e-05
4.51151e-05
4.1532e-05
4.06979e-05
5.63605e-05
4.72943e-05
7.33244e-05
4.12321e-05
3.71906e-05
7.9424e-05
1.07513e-06
-4.10085e-05
6.81479e-06
-4.25541e-05
1.8329e-05
-4.53428e-05
4.07459e-05
-4.98983e-05
8.00568e-05
-6.11505e-05
0.000116153
-6.57661e-05
8.44826e-05
7.71551e-06
-7.37179e-06
0.00010107
-7.40338e-05
5.33459e-05
-9.38736e-05
-3.84327e-05
-8.75869e-05
-6.46523e-05
-7.17743e-05
-5.74968e-05
-7.16036e-05
-2.12595e-05
-6.19373e-05
-2.70054e-06
-5.63771e-05
1.07236e-05
-5.10509e-05
1.67899e-05
-4.16547e-05
2.17614e-05
-3.53403e-05
3.64581e-05
-2.53955e-05
5.37494e-05
-1.9842e-05
4.52927e-05
1.44461e-07
4.18011e-05
1.6269e-05
2.89729e-05
2.09954e-05
3.84582e-05
-1.66596e-05
-2.43489e-05
-2.82262e-05
-3.09875e-05
-3.58057e-05
-3.77632e-05
-3.81527e-05
-4.75513e-05
-3.93841e-05
-5.9919e-05
-4.12627e-05
-6.38874e-05
-8.22697e-06
-2.53238e-05
5.58163e-05
3.68929e-05
8.7881e-05
2.11683e-05
7.5214e-05
-2.60653e-05
5.56299e-05
-4.53482e-05
4.6025e-05
-5.10044e-05
2.8617e-05
-1.94439e-05
-7.07901e-06
-7.4712e-07
-2.90916e-05
-9.84587e-06
-3.30586e-05
-2.64292e-05
-2.55255e-05
-3.77116e-05
-1.4482e-05
-3.55074e-05
-1.59977e-06
-2.50962e-05
-1.31624e-05
-1.02986e-05
-8.19692e-06
-1.15321e-05
8.24092e-06
-2.45894e-05
-2.68401e-05
2.98843e-05
-1.25023e-06
-2.30986e-05
-2.59599e-06
-2.96417e-05
-4.03433e-06
-3.63249e-05
-6.85187e-06
-4.47338e-05
-1.38002e-05
-5.29707e-05
-2.1479e-05
-5.62086e-05
-1.29849e-05
-3.38178e-05
2.64744e-05
-2.56635e-06
1.72787e-05
3.0364e-05
-1.97829e-05
1.09962e-05
-3.25975e-05
-3.25335e-05
-2.88223e-05
-5.47796e-05
3.66202e-06
-5.19283e-05
5.25071e-05
-4.95969e-05
9.37912e-05
-5.11765e-05
0.000117488
-5.03652e-05
0.000122745
-4.3509e-05
0.000134819
-4.91807e-05
0.000138314
-3.54427e-05
0.000135751
-1.5912e-05
0.000110835
-8.6686e-06
9.57628e-05
-3.55629e-05
-4.38704e-05
8.3409e-05
-1.1683e-06
-2.19303e-05
-1.97648e-06
-2.88335e-05
-3.26096e-06
-3.50403e-05
-6.12007e-06
-4.18746e-05
-1.17613e-05
-4.73294e-05
-1.94847e-05
-4.84852e-05
-1.44056e-05
-3.88968e-05
1.61086e-05
-3.30805e-05
4.36828e-05
2.78976e-06
3.52204e-05
1.94586e-05
2.45091e-05
-2.18222e-05
2.67351e-05
-5.70056e-05
3.11883e-05
-5.63815e-05
3.52813e-05
-5.36898e-05
3.66132e-05
-5.25084e-05
3.8617e-05
-5.23689e-05
4.09677e-05
-4.58597e-05
3.35925e-05
-4.18055e-05
3.04983e-05
-3.23485e-05
4.08335e-05
-2.62472e-05
7.2519e-05
-4.03546e-05
9.04499e-05
-5.34963e-05
-5.38077e-05
0.00010038
-9.93063e-07
-2.09372e-05
-1.18875e-06
-2.86378e-05
-2.19244e-06
-3.40366e-05
-4.62516e-06
-3.94419e-05
-8.86123e-06
-4.30933e-05
-1.39968e-05
-4.33496e-05
-1.43626e-05
-3.8531e-05
-1.34893e-05
-3.39538e-05
2.71957e-06
-1.34191e-05
2.52375e-05
-3.05935e-06
3.32627e-05
-2.98473e-05
2.8971e-05
-5.27139e-05
3.09042e-05
-5.83147e-05
3.76609e-05
-6.04465e-05
4.49518e-05
-5.97993e-05
4.89144e-05
-5.63316e-05
5.38369e-05
-5.07822e-05
5.60261e-05
-4.39947e-05
5.63101e-05
-3.26324e-05
5.3216e-05
-2.3153e-05
4.15344e-05
-2.86729e-05
3.23268e-05
-4.42887e-05
-4.62672e-05
2.47864e-05
2.87668e-06
-2.38138e-05
4.14932e-06
-2.99104e-05
3.61201e-06
-3.34993e-05
1.01574e-06
-3.68456e-05
-3.14435e-06
-3.89332e-05
-7.70184e-06
-3.87921e-05
-9.74632e-06
-3.64864e-05
-1.12376e-05
-3.24625e-05
-1.17944e-07
-2.45387e-05
1.52307e-05
-1.84079e-05
2.0291e-05
-3.49076e-05
1.58098e-05
-4.82327e-05
1.09605e-05
-5.34654e-05
7.83966e-06
-5.73256e-05
6.54026e-06
-5.84998e-05
6.03402e-06
-5.58253e-05
6.1264e-06
-5.08746e-05
8.03579e-06
-4.59041e-05
1.49153e-05
-3.9512e-05
2.57696e-05
-3.40073e-05
2.96842e-05
-3.25875e-05
2.1201e-05
-3.58055e-05
-3.65743e-05
1.15081e-05
2.1333e-06
-2.59471e-05
3.62548e-06
-3.14025e-05
3.73533e-06
-3.36091e-05
2.06373e-06
-3.51739e-05
-9.97511e-07
-3.58719e-05
-4.33708e-06
-3.54525e-05
-6.58694e-06
-3.42366e-05
-7.11939e-06
-3.193e-05
-1.94654e-06
-2.97115e-05
6.89452e-06
-2.7249e-05
7.96225e-06
-3.59753e-05
2.73273e-06
-4.30031e-05
-1.94405e-06
-4.87886e-05
-5.81504e-06
-5.34546e-05
-9.45033e-06
-5.48645e-05
-1.31102e-05
-5.21655e-05
-1.58898e-05
-4.80949e-05
-1.79306e-05
-4.38633e-05
-1.90901e-05
-3.83524e-05
-1.82433e-05
-3.48541e-05
-1.6144e-05
-3.46868e-05
-1.49415e-05
-3.7008e-05
-3.77712e-05
-1.37446e-05
1.54029e-06
-2.74874e-05
2.48652e-06
-3.23487e-05
2.25337e-06
-3.33759e-05
8.5423e-07
-3.37748e-05
-1.25724e-06
-3.37604e-05
-3.25011e-06
-3.34596e-05
-4.66626e-06
-3.28204e-05
-4.71914e-06
-3.18771e-05
-2.93828e-06
-3.14923e-05
2.6877e-07
-3.0456e-05
-7.01061e-07
-3.50054e-05
-4.67715e-06
-3.9027e-05
-8.93209e-06
-4.45336e-05
-1.34011e-05
-4.89855e-05
-1.78881e-05
-5.03776e-05
-2.15173e-05
-4.85363e-05
-2.41415e-05
-4.54707e-05
-2.5501e-05
-4.25038e-05
-2.5329e-05
-3.85245e-05
-2.36785e-05
-3.65045e-05
-2.20377e-05
-3.63277e-05
-2.20917e-05
-3.69541e-05
-3.6439e-05
-2.34238e-05
6.95433e-07
-2.81828e-05
6.13357e-07
-3.22666e-05
-2.35931e-07
-3.25266e-05
-1.25033e-06
-3.27603e-05
-2.14738e-06
-3.28633e-05
-2.92761e-06
-3.26793e-05
-3.45021e-06
-3.22977e-05
-3.27514e-06
-3.20521e-05
-2.67433e-06
-3.20931e-05
-1.54063e-06
-3.15897e-05
-2.8641e-06
-3.36819e-05
-5.92411e-06
-3.5967e-05
-1.04696e-05
-3.99881e-05
-1.55775e-05
-4.38777e-05
-2.02147e-05
-4.57403e-05
-2.33433e-05
-4.54077e-05
-2.52309e-05
-4.35831e-05
-2.57973e-05
-4.19375e-05
-2.52998e-05
-3.9022e-05
-2.44397e-05
-3.73646e-05
-2.3792e-05
-3.69753e-05
-2.38212e-05
-3.69249e-05
-3.58322e-05
-2.4428e-05
2.57109e-08
-2.82085e-05
-4.70874e-07
-3.177e-05
-1.13096e-06
-3.18665e-05
-1.77736e-06
-3.21139e-05
-2.32289e-06
-3.23178e-05
-2.65575e-06
-3.23464e-05
-2.66252e-06
-3.22909e-05
-2.45315e-06
-3.22615e-05
-2.24245e-06
-3.23038e-05
-1.80973e-06
-3.20224e-05
-2.48985e-06
-3.30018e-05
-3.83646e-06
-3.46204e-05
-6.60442e-06
-3.72201e-05
-1.10186e-05
-3.94635e-05
-1.5659e-05
-4.10999e-05
-1.89508e-05
-4.21159e-05
-2.07139e-05
-4.182e-05
-2.16787e-05
-4.09726e-05
-2.19862e-05
-3.87146e-05
-2.29047e-05
-3.64461e-05
-2.40128e-05
-3.58673e-05
-2.49707e-05
-3.5967e-05
-3.51176e-05
-2.56853e-05
-2.16911e-07
-2.79915e-05
-6.73229e-07
-3.13137e-05
-1.08568e-06
-3.1454e-05
-1.4654e-06
-3.17342e-05
-1.85874e-06
-3.19244e-05
-2.1277e-06
-3.20774e-05
-2.25817e-06
-3.21604e-05
-2.2434e-06
-3.22762e-05
-2.26265e-06
-3.22845e-05
-1.98173e-06
-3.23033e-05
-2.16367e-06
-3.28198e-05
-2.74261e-06
-3.40414e-05
-4.32798e-06
-3.56347e-05
-6.87144e-06
-3.692e-05
-9.70047e-06
-3.82709e-05
-1.26732e-05
-3.91431e-05
-1.54015e-05
-3.90916e-05
-1.79233e-05
-3.84508e-05
-1.93253e-05
-3.73126e-05
-2.06406e-05
-3.51308e-05
-2.28202e-05
-3.36877e-05
-2.51137e-05
-3.36736e-05
-3.34975e-05
-2.67339e-05
-2.76925e-07
-2.77146e-05
-5.28234e-07
-3.10623e-05
-7.98841e-07
-3.11834e-05
-1.16832e-06
-3.13647e-05
-1.66648e-06
-3.14262e-05
-2.17273e-06
-3.15712e-05
-2.64702e-06
-3.16861e-05
-3.07756e-06
-3.18457e-05
-3.3487e-06
-3.20133e-05
-3.30931e-06
-3.23426e-05
-3.30811e-06
-3.2821e-05
-3.72963e-06
-3.36199e-05
-5.03126e-06
-3.43331e-05
-6.71248e-06
-3.52388e-05
-8.91077e-06
-3.60726e-05
-1.20042e-05
-3.60498e-05
-1.50161e-05
-3.60796e-05
-1.74903e-05
-3.59766e-05
-1.95818e-05
-3.52212e-05
-2.14807e-05
-3.32318e-05
-2.38522e-05
-3.13163e-05
-2.60252e-05
-3.15006e-05
-3.19116e-05
-2.7611e-05
-2.12666e-07
-2.75019e-05
-5.54037e-07
-3.07209e-05
-1.02078e-06
-3.07166e-05
-1.60005e-06
-3.07854e-05
-2.19214e-06
-3.08341e-05
-2.86896e-06
-3.08943e-05
-3.51004e-06
-3.1045e-05
-4.1294e-06
-3.12263e-05
-4.66879e-06
-3.14739e-05
-5.0816e-06
-3.19298e-05
-5.50742e-06
-3.23952e-05
-6.24845e-06
-3.28788e-05
-7.26226e-06
-3.33192e-05
-8.58978e-06
-3.39113e-05
-1.05587e-05
-3.41036e-05
-1.28041e-05
-3.38044e-05
-1.49428e-05
-3.3941e-05
-1.70138e-05
-3.39056e-05
-1.90776e-05
-3.31573e-05
-2.0698e-05
-3.16115e-05
-2.21242e-05
-2.98901e-05
-2.36062e-05
-3.00186e-05
-3.04055e-05
-2.51124e-05
-2.87161e-07
-2.72147e-05
-7.81186e-07
-3.02269e-05
-1.31879e-06
-3.0179e-05
-1.8089e-06
-3.02952e-05
-2.29983e-06
-3.03431e-05
-2.80205e-06
-3.03921e-05
-3.35193e-06
-3.04951e-05
-3.99702e-06
-3.05812e-05
-4.71565e-06
-3.07553e-05
-5.47905e-06
-3.11664e-05
-6.31678e-06
-3.15574e-05
-7.31728e-06
-3.18783e-05
-8.58458e-06
-3.20519e-05
-1.00602e-05
-3.24356e-05
-1.16634e-05
-3.25005e-05
-1.30384e-05
-3.24294e-05
-1.47179e-05
-3.22615e-05
-1.68348e-05
-3.17888e-05
-1.89708e-05
-3.10213e-05
-2.08676e-05
-2.97147e-05
-2.23676e-05
-2.839e-05
-2.37627e-05
-2.86236e-05
-2.9087e-05
-2.50811e-05
-4.04001e-07
-2.68107e-05
-8.19904e-07
-2.9811e-05
-1.19495e-06
-2.98039e-05
-1.62199e-06
-2.98682e-05
-2.0727e-06
-2.98924e-05
-2.54484e-06
-2.992e-05
-3.06906e-06
-2.99709e-05
-3.62161e-06
-3.00286e-05
-4.22396e-06
-3.01529e-05
-5.09451e-06
-3.02959e-05
-6.05463e-06
-3.05973e-05
-7.09275e-06
-3.08402e-05
-8.26113e-06
-3.08835e-05
-9.71514e-06
-3.09816e-05
-1.11833e-05
-3.10324e-05
-1.2595e-05
-3.10177e-05
-1.41158e-05
-3.07406e-05
-1.58033e-05
-3.01013e-05
-1.73739e-05
-2.94508e-05
-1.8746e-05
-2.83426e-05
-1.9883e-05
-2.72531e-05
-2.13548e-05
-2.71518e-05
-2.72172e-05
-2.32246e-05
-3.23145e-07
-2.64875e-05
-7.61373e-07
-2.93727e-05
-1.23209e-06
-2.93332e-05
-1.74651e-06
-2.93537e-05
-2.26659e-06
-2.93723e-05
-2.77168e-06
-2.94149e-05
-3.27545e-06
-2.94671e-05
-3.76998e-06
-2.95341e-05
-4.32056e-06
-2.96023e-05
-4.96626e-06
-2.96502e-05
-5.83522e-06
-2.97283e-05
-6.87271e-06
-2.98027e-05
-7.82327e-06
-2.9933e-05
-8.95519e-06
-2.98497e-05
-1.027e-05
-2.97175e-05
-1.1893e-05
-2.93948e-05
-1.3729e-05
-2.89047e-05
-1.52768e-05
-2.85535e-05
-1.66926e-05
-2.80351e-05
-1.81461e-05
-2.68891e-05
-1.93529e-05
-2.60464e-05
-2.06578e-05
-2.58469e-05
-2.52851e-05
-2.259e-05
-4.57509e-07
-2.603e-05
-9.73196e-07
-2.8857e-05
-1.47046e-06
-2.88359e-05
-1.96565e-06
-2.88585e-05
-2.47135e-06
-2.88666e-05
-3.01134e-06
-2.88749e-05
-3.5873e-06
-2.88911e-05
-4.18168e-06
-2.89397e-05
-4.78611e-06
-2.89979e-05
-5.50084e-06
-2.89354e-05
-6.47244e-06
-2.87567e-05
-7.47755e-06
-2.87976e-05
-8.54099e-06
-2.88695e-05
-9.63672e-06
-2.87539e-05
-1.07882e-05
-2.85661e-05
-1.19552e-05
-2.82278e-05
-1.29986e-05
-2.78613e-05
-1.42088e-05
-2.73433e-05
-1.56714e-05
-2.65726e-05
-1.69434e-05
-2.5617e-05
-1.8102e-05
-2.48879e-05
-1.96112e-05
-2.43376e-05
-2.34755e-05
-2.14208e-05
-3.27833e-07
-2.57022e-05
-7.50015e-07
-2.84348e-05
-1.20355e-06
-2.83824e-05
-1.68446e-06
-2.83776e-05
-2.18695e-06
-2.83641e-05
-2.70765e-06
-2.83542e-05
-3.25798e-06
-2.83408e-05
-3.87662e-06
-2.83211e-05
-4.61213e-06
-2.82624e-05
-5.36599e-06
-2.81816e-05
-6.01715e-06
-2.81056e-05
-6.76196e-06
-2.80527e-05
-7.81242e-06
-2.78191e-05
-8.94448e-06
-2.76219e-05
-1.00526e-05
-2.7458e-05
-1.11509e-05
-2.71295e-05
-1.24353e-05
-2.65769e-05
-1.39466e-05
-2.58321e-05
-1.52534e-05
-2.52658e-05
-1.62551e-05
-2.46153e-05
-1.73716e-05
-2.37714e-05
-1.88329e-05
-2.28763e-05
-2.20077e-05
-2.03008e-05
-4.17919e-07
-2.52842e-05
-8.96828e-07
-2.79559e-05
-1.37517e-06
-2.7904e-05
-1.87644e-06
-2.78763e-05
-2.40843e-06
-2.78321e-05
-2.97652e-06
-2.77861e-05
-3.56791e-06
-2.77494e-05
-4.18918e-06
-2.76998e-05
-4.83452e-06
-2.7617e-05
-5.50037e-06
-2.75157e-05
-6.21069e-06
-2.73952e-05
-7.04273e-06
-2.72207e-05
-7.84973e-06
-2.70121e-05
-8.80182e-06
-2.66698e-05
-1.00446e-05
-2.62152e-05
-1.11984e-05
-2.59757e-05
-1.22241e-05
-2.55512e-05
-1.31011e-05
-2.49552e-05
-1.40662e-05
-2.43007e-05
-1.52132e-05
-2.34683e-05
-1.64947e-05
-2.24898e-05
-1.77596e-05
-2.16115e-05
-2.07347e-05
-1.90326e-05
-3.90197e-07
-2.4894e-05
-8.37303e-07
-2.75088e-05
-1.27722e-06
-2.74641e-05
-1.71679e-06
-2.74368e-05
-2.15809e-06
-2.73908e-05
-2.62142e-06
-2.73227e-05
-3.1351e-06
-2.72357e-05
-3.70188e-06
-2.7133e-05
-4.32273e-06
-2.69962e-05
-5.04428e-06
-2.67942e-05
-5.89399e-06
-2.65455e-05
-6.80705e-06
-2.63076e-05
-7.71053e-06
-2.61086e-05
-8.55706e-06
-2.58233e-05
-9.2304e-06
-2.55419e-05
-1.0089e-05
-2.51171e-05
-1.11201e-05
-2.45201e-05
-1.22796e-05
-2.37956e-05
-1.35699e-05
-2.30104e-05
-1.47057e-05
-2.23326e-05
-1.56176e-05
-2.15779e-05
-1.66166e-05
-2.06125e-05
-1.95126e-05
-1.78387e-05
-3.88106e-07
-2.45059e-05
-8.37893e-07
-2.7059e-05
-1.29778e-06
-2.70042e-05
-1.78602e-06
-2.69485e-05
-2.30504e-06
-2.68718e-05
-2.8447e-06
-2.67831e-05
-3.40186e-06
-2.66786e-05
-3.98661e-06
-2.65483e-05
-4.59168e-06
-2.63911e-05
-5.17168e-06
-2.62142e-05
-5.71554e-06
-2.60016e-05
-6.30721e-06
-2.5716e-05
-7.05078e-06
-2.5365e-05
-7.89502e-06
-2.4979e-05
-8.93336e-06
-2.45036e-05
-1.00534e-05
-2.39971e-05
-1.10439e-05
-2.35297e-05
-1.19087e-05
-2.29308e-05
-1.26498e-05
-2.22694e-05
-1.35074e-05
-2.14749e-05
-1.45796e-05
-2.05057e-05
-1.56438e-05
-1.95483e-05
-1.85503e-05
-1.6606e-05
-3.53151e-07
-2.41528e-05
-7.49816e-07
-2.66623e-05
-1.14359e-06
-2.66104e-05
-1.54816e-06
-2.65439e-05
-1.97093e-06
-2.6449e-05
-2.42689e-06
-2.63271e-05
-2.92829e-06
-2.61771e-05
-3.47731e-06
-2.59992e-05
-4.07733e-06
-2.57911e-05
-4.74881e-06
-2.55427e-05
-5.50457e-06
-2.52459e-05
-6.29846e-06
-2.49221e-05
-7.06903e-06
-2.45944e-05
-7.82855e-06
-2.42195e-05
-8.52749e-06
-2.38046e-05
-9.17823e-06
-2.33463e-05
-9.94717e-06
-2.27607e-05
-1.0821e-05
-2.2057e-05
-1.18327e-05
-2.12577e-05
-1.28534e-05
-2.04542e-05
-1.36983e-05
-1.96608e-05
-1.4537e-05
-1.87097e-05
-1.76391e-05
-1.54482e-05
-3.59917e-07
-2.37928e-05
-7.68734e-07
-2.62535e-05
-1.17917e-06
-2.62e-05
-1.60626e-06
-2.61168e-05
-2.04997e-06
-2.60053e-05
-2.51114e-06
-2.5866e-05
-2.99157e-06
-2.56967e-05
-3.4942e-06
-2.54966e-05
-4.01896e-06
-2.52663e-05
-4.55545e-06
-2.50062e-05
-5.09611e-06
-2.47052e-05
-5.66384e-06
-2.43543e-05
-6.29395e-06
-2.39643e-05
-6.9868e-06
-2.35267e-05
-7.76119e-06
-2.30302e-05
-8.63986e-06
-2.24677e-05
-9.53558e-06
-2.1865e-05
-1.03697e-05
-2.12229e-05
-1.11097e-05
-2.05176e-05
-1.18515e-05
-1.97124e-05
-1.26904e-05
-1.88219e-05
-1.3521e-05
-1.78791e-05
-1.68522e-05
-1.43079e-05
-3.11537e-07
-2.34813e-05
-6.59251e-07
-2.59058e-05
-1.01009e-06
-2.58492e-05
-1.38008e-06
-2.57469e-05
-1.77461e-06
-2.56108e-05
-2.19997e-06
-2.54406e-05
-2.65934e-06
-2.52373e-05
-3.15237e-06
-2.50036e-05
-3.67867e-06
-2.474e-05
-4.2392e-06
-2.44456e-05
-4.83235e-06
-2.41121e-05
-5.45606e-06
-2.37306e-05
-6.1038e-06
-2.33166e-05
-6.76364e-06
-2.28668e-05
-7.42624e-06
-2.23676e-05
-8.07861e-06
-2.18153e-05
-8.74487e-06
-2.11987e-05
-9.46357e-06
-2.05042e-05
-1.02397e-05
-1.97414e-05
-1.10183e-05
-1.89338e-05
-1.17589e-05
-1.80814e-05
-1.24858e-05
-1.71522e-05
-1.61341e-05
-1.32039e-05
-2.94305e-07
-2.3187e-05
-6.26242e-07
-2.55738e-05
-9.59967e-07
-2.55154e-05
-1.31064e-06
-2.53962e-05
-1.67873e-06
-2.52427e-05
-2.06736e-06
-2.5052e-05
-2.47996e-06
-2.48247e-05
-2.91906e-06
-2.45645e-05
-3.38873e-06
-2.42703e-05
-3.89287e-06
-2.39415e-05
-4.41972e-06
-2.35852e-05
-4.95753e-06
-2.31928e-05
-5.52037e-06
-2.27537e-05
-6.12076e-06
-2.22664e-05
-6.75555e-06
-2.17328e-05
-7.4222e-06
-2.11487e-05
-8.10902e-06
-2.05119e-05
-8.78924e-06
-1.98239e-05
-9.45328e-06
-1.90774e-05
-1.01204e-05
-1.82666e-05
-1.08029e-05
-1.73988e-05
-1.14776e-05
-1.64775e-05
-1.54839e-05
-1.21278e-05
-2.46678e-07
-2.29403e-05
-5.34376e-07
-2.52862e-05
-8.25313e-07
-2.52245e-05
-1.1342e-06
-2.50873e-05
-1.46294e-06
-2.49139e-05
-1.81586e-06
-2.4699e-05
-2.19816e-06
-2.44424e-05
-2.61007e-06
-2.41525e-05
-3.04889e-06
-2.38315e-05
-3.51235e-06
-2.3478e-05
-4.0064e-06
-2.30912e-05
-4.53044e-06
-2.26688e-05
-5.07441e-06
-2.22098e-05
-5.63185e-06
-2.1709e-05
-6.2046e-06
-2.11601e-05
-6.79005e-06
-2.05632e-05
-7.38666e-06
-1.99153e-05
-7.99851e-06
-1.92121e-05
-8.62229e-06
-1.84536e-05
-9.24724e-06
-1.76416e-05
-9.86681e-06
-1.67792e-05
-1.04791e-05
-1.58652e-05
-1.4889e-05
-1.10741e-05
-2.00137e-07
-2.27401e-05
-4.50573e-07
-2.50357e-05
-7.04432e-07
-2.49706e-05
-9.74566e-07
-2.48171e-05
-1.26059e-06
-2.46279e-05
-1.56519e-06
-2.43944e-05
-1.89544e-06
-2.41122e-05
-2.25624e-06
-2.37917e-05
-2.65151e-06
-2.34362e-05
-3.08178e-06
-2.30478e-05
-3.54121e-06
-2.26317e-05
-4.02303e-06
-2.21869e-05
-4.52489e-06
-2.17079e-05
-5.04486e-06
-2.1189e-05
-5.58142e-06
-2.06235e-05
-6.12892e-06
-2.00157e-05
-6.68486e-06
-1.93594e-05
-7.24521e-06
-1.86517e-05
-7.80701e-06
-1.78918e-05
-8.37006e-06
-1.70786e-05
-8.93437e-06
-1.62149e-05
-9.49483e-06
-1.53047e-05
-1.43428e-05
-1.0041e-05
-1.5061e-07
-2.25895e-05
-3.72664e-07
-2.48137e-05
-5.98997e-07
-2.47443e-05
-8.36758e-07
-2.45794e-05
-1.08444e-06
-2.43802e-05
-1.33779e-06
-2.41411e-05
-1.59274e-06
-2.38572e-05
-1.8637e-06
-2.35208e-05
-2.16805e-06
-2.31319e-05
-2.52043e-06
-2.26954e-05
-2.92919e-06
-2.2223e-05
-3.39066e-06
-2.17255e-05
-3.88797e-06
-2.12106e-05
-4.40329e-06
-2.06737e-05
-4.91921e-06
-2.01076e-05
-5.43586e-06
-1.9499e-05
-5.95114e-06
-1.88441e-05
-6.46683e-06
-1.8136e-05
-6.98185e-06
-1.73767e-05
-7.49571e-06
-1.65647e-05
-8.00872e-06
-1.57019e-05
-8.51995e-06
-1.47935e-05
-1.38396e-05
-9.02314e-06
-9.41308e-08
-2.24954e-05
-3.2049e-07
-2.45873e-05
-5.4679e-07
-2.4518e-05
-7.74056e-07
-2.43521e-05
-1.00594e-06
-2.41483e-05
-1.24245e-06
-2.39046e-05
-1.47936e-06
-2.36203e-05
-1.71781e-06
-2.32823e-05
-1.96219e-06
-2.28875e-05
-2.2175e-06
-2.24401e-05
-2.49618e-06
-2.19443e-05
-2.81344e-06
-2.14082e-05
-3.18616e-06
-2.08379e-05
-3.63063e-06
-2.02292e-05
-4.1277e-06
-1.96105e-05
-4.64819e-06
-1.89785e-05
-5.1661e-06
-1.83261e-05
-5.66272e-06
-1.76393e-05
-6.14435e-06
-1.68951e-05
-6.61679e-06
-1.60922e-05
-7.08477e-06
-1.52339e-05
-7.55186e-06
-1.43263e-05
-1.33738e-05
-8.01763e-06
-7.21929e-08
-2.24232e-05
-3.50461e-07
-2.4309e-05
-6.27176e-07
-2.42413e-05
-8.86705e-07