/*--------------------------------*- C++ -*----------------------------------*\
| =========                 |                                                 |
| \\      /  F ield         | OpenFOAM: The Open Source CFD Toolbox           |
|  \\    /   O peration     | Version:  2.4.0                                 |
|   \\  /    A nd           | Web:      www.OpenFOAM.org                      |
|    \\/     M anipulation  |                                                 |
\*---------------------------------------------------------------------------*/
FoamFile
{
    version     2.0;
    format      ascii;
    class       surfaceScalarField;
    location    "0.45";
    object      phi.water;
}
// * * * * * * * * * * * * * * * * * * * * * * * * * * * * * * * * * * * * * //

dimensions      [0 3 -1 0 0 0 0];

internalField   nonuniform List<scalar> 
4432
(
2.98583e-06
-2.98249e-06
6.07857e-06
-3.08968e-06
8.69152e-06
-2.61022e-06
1.24983e-05
-3.80304e-06
1.47793e-05
-2.27797e-06
1.78016e-05
-3.01857e-06
2.15252e-05
-3.71839e-06
2.4567e-05
-3.03677e-06
2.69895e-05
-2.41755e-06
2.90281e-05
-2.03272e-06
3.20894e-05
-3.05352e-06
3.53264e-05
-3.22838e-06
3.77595e-05
-2.42435e-06
3.91637e-05
-1.39602e-06
3.89952e-05
1.75159e-07
3.75121e-05
1.48883e-06
3.45216e-05
2.99572e-06
3.03695e-05
4.15692e-06
2.53388e-05
5.03473e-06
2.01287e-05
5.21314e-06
1.35578e-05
6.57259e-06
5.27995e-06
8.27838e-06
5.28004e-06
2.98769e-06
-5.95996e-06
6.08109e-06
-6.1742e-06
8.74487e-06
-5.26565e-06
1.23888e-05
-7.43839e-06
1.48125e-05
-4.69309e-06
1.79324e-05
-6.12991e-06
2.15332e-05
-7.3095e-06
2.44311e-05
-5.92541e-06
2.69931e-05
-4.97058e-06
2.94445e-05
-4.47314e-06
3.26634e-05
-6.24722e-06
3.55296e-05
-6.06748e-06
3.77428e-05
-4.60745e-06
3.88456e-05
-2.47565e-06
3.94344e-05
-3.98579e-07
3.79283e-05
3.00486e-06
3.54046e-05
5.53097e-06
3.10742e-05
8.49896e-06
2.63777e-05
9.74071e-06
2.03099e-05
1.12872e-05
1.38215e-05
1.30639e-05
6.31196e-06
1.57894e-05
1.15932e-05
2.99524e-06
-7.62395e-06
6.05011e-06
-7.70737e-06
8.8553e-06
-6.79433e-06
1.22108e-05
-7.96862e-06
1.49499e-05
-5.74076e-06
1.81401e-05
-6.32422e-06
2.13901e-05
-5.13516e-06
2.4098e-05
-3.5882e-06
2.70025e-05
-1.07122e-06
3.02144e-05
1.71426e-06
3.33416e-05
5.64216e-06
3.53184e-05
7.86667e-06
3.72705e-05
1.07993e-05
3.90882e-05
9.34305e-06
3.9751e-05
7.35558e-06
3.91788e-05
7.22014e-06
3.67282e-05
9.28649e-06
3.2681e-05
1.30257e-05
2.71999e-05
1.5556e-05
2.14381e-05
1.72394e-05
1.54888e-05
1.90476e-05
9.35514e-06
2.1935e-05
2.09526e-05
3.01366e-06
1.51196e-05
6.01547e-06
1.49586e-05
9.04784e-06
1.57977e-05
1.20187e-05
1.38826e-05
1.50905e-05
1.64061e-05
1.83312e-05
1.48711e-05
2.14353e-05
1.43571e-05
2.3958e-05
1.64267e-05
2.74281e-05
1.65153e-05
3.06161e-05
1.76038e-05
3.34615e-05
1.89949e-05
3.49301e-05
2.22511e-05
3.66774e-05
2.47931e-05
3.74954e-05
2.83596e-05
3.89383e-05
3.1215e-05
4.10896e-05
3.10807e-05
3.92164e-05
3.18593e-05
3.50935e-05
2.91913e-05
2.75639e-05
2.52259e-05
1.95826e-05
2.54861e-05
1.3001e-05
2.57143e-05
7.12558e-06
2.78664e-05
2.8096e-05
3.06796e-06
1.92805e-05
5.97675e-06
1.89754e-05
9.46391e-06
1.96894e-05
1.16764e-05
1.76e-05
1.55587e-05
1.93762e-05
1.89e-05
1.74629e-05
2.11684e-05
1.68378e-05
2.44265e-05
1.80179e-05
2.80132e-05
1.69658e-05
3.13282e-05
1.68424e-05
3.33392e-05
1.64963e-05
3.55691e-05
1.81102e-05
3.77732e-05
1.89945e-05
4.01049e-05
2.27958e-05
4.07132e-05
2.80568e-05
3.90569e-05
3.94182e-05
3.42554e-05
5.32265e-05
3.07948e-05
5.70265e-05
2.76837e-05
4.70968e-05
1.95041e-05
4.54301e-05
1.12577e-05
3.46319e-05
6.53584e-06
3.2756e-05
3.46687e-05
2.90085e-06
6.73216e-06
5.60491e-06
6.47963e-06
9.1452e-06
6.67959e-06
1.07319e-05
5.81645e-06
1.45424e-05
6.45857e-06
1.76435e-05
4.06022e-06
1.95696e-05
2.25675e-06
2.26135e-05
1.57079e-06
2.53455e-05
-4.73346e-07
2.78182e-05
-1.50358e-06
2.9695e-05
-3.03384e-06
3.21998e-05
-3.36646e-06
3.35598e-05
-3.69209e-06
3.53596e-05
-3.38622e-06
3.62033e-05
-8.90275e-07
3.6821e-05
7.89167e-06
3.2188e-05
2.60617e-05
2.42027e-05
4.90306e-05
2.06332e-05
6.78576e-05
1.34482e-05
6.91418e-05
1.12931e-05
4.98666e-05
4.98085e-06
3.94668e-05
3.99592e-05
2.17285e-06
-1.68743e-05
4.18704e-06
-1.7049e-05
6.72304e-06
-1.75555e-05
7.77198e-06
-1.70357e-05
9.73555e-06
-1.77699e-05
1.15371e-05
-1.92298e-05
1.24405e-05
-1.84005e-05
1.34946e-05
-1.82009e-05
1.4946e-05
-1.8925e-05
1.60828e-05
-1.78627e-05
1.68554e-05
-1.67566e-05
1.69198e-05
-1.46844e-05
1.64127e-05
-1.21353e-05
1.55896e-05
-9.2896e-06
1.58035e-05
-5.89411e-06
1.96671e-05
-2.77355e-06
2.41365e-05
7.92386e-06
1.74556e-05
3.27926e-05
1.19191e-05
5.70403e-05
1.19847e-05
6.93607e-05
9.62989e-06
6.83031e-05
6.61791e-06
4.67496e-05
4.69459e-05
4.67873e-07
-2.05426e-05
1.06153e-06
-2.06121e-05
1.41363e-06
-2.07012e-05
2.575e-06
-2.02582e-05
3.14562e-06
-2.02125e-05
4.23254e-06
-2.15206e-05
5.8757e-06
-2.06759e-05
8.21504e-06
-2.09089e-05
1.05709e-05
-2.14642e-05
1.29861e-05
-2.03619e-05
1.42851e-05
-1.80889e-05
1.55791e-05
-1.59913e-05
1.61905e-05
-1.27514e-05
1.63938e-05
-9.49452e-06
1.39233e-05
-3.42401e-06
1.14638e-05
-3.18223e-07
1.59879e-05
3.11184e-06
1.56181e-05
2.68235e-05
2.3319e-06
5.32333e-05
5.97191e-06
6.04102e-05
6.37069e-06
7.46844e-05
8.83688e-06
4.73707e-05
5.6186e-05
-2.13003e-05
1.39964e-05
-3.99842e-05
1.4383e-05
-5.7101e-05
1.29719e-05
-6.75622e-05
1.96899e-06
-6.31048e-05
-1.94539e-05
-5.17976e-05
-3.48181e-05
-4.51497e-05
-3.78152e-05
-3.73114e-05
-4.33063e-05
-2.74615e-05
-4.6568e-05
-1.65028e-05
-5.17567e-05
-5.4358e-06
-6.74874e-05
8.75429e-06
-7.01127e-05
2.62036e-05
-6.74444e-05
4.66029e-05
-5.94673e-05
6.69405e-05
-5.37408e-05
7.91563e-05
-4.18074e-05
7.65171e-05
-2.72095e-05
5.22071e-05
-6.91544e-06
-4.99039e-06
-1.67358e-05
3.11445e-05
-3.09693e-05
3.29021e-05
-4.36384e-05
3.08288e-05
-5.35772e-05
2.2445e-05
-5.3741e-05
-2.66606e-06
-5.16923e-05
-1.38411e-05
-5.0164e-05
-8.1001e-06
-4.52712e-05
-1.40493e-05
-3.91719e-05
-1.78818e-05
-2.8883e-05
-2.09491e-05
-5.04642e-06
-3.45328e-05
2.71805e-05
-9.35101e-05
4.82619e-05
-0.000137591
7.14339e-05
-0.00010396
8.94514e-05
-7.85365e-05
9.22451e-05
-5.43302e-05
8.2651e-05
-2.31713e-05
5.72449e-05
2.06303e-05
4.14452e-05
-8.20277e-06
4.13609e-05
-1.69554e-05
4.2285e-05
-2.65449e-05
4.05486e-05
-3.3061e-05
2.91784e-05
-2.53264e-05
-1.05421e-05
-1.99495e-05
-2.55619e-05
-2.93423e-05
-4.97521e-05
-2.75332e-05
-6.14366e-05
-1.92785e-05
-5.65919e-05
-8.57135e-06
-5.99117e-05
8.61865e-06
-5.67941e-05
3.48105e-05
-0.000118982
5.45589e-05
-0.000150074
7.38883e-05
-0.000124248
9.24213e-05
-0.00011318
9.62347e-05
-8.25283e-05
7.10792e-05
-3.34811e-05
4.52349e-05
2.10612e-05
7.75362e-05
1.09486e-06
3.91471e-05
-1.92914e-06
4.37677e-05
-7.20999e-06
4.55213e-05
2.81784e-07
2.16663e-05
1.52356e-05
-2.70924e-05
1.05288e-05
-6.01378e-05
1.11442e-05
-7.37818e-05
2.10283e-05
-8.55463e-05
2.56336e-05
-9.13458e-05
3.17068e-05
-0.000129121
5.08323e-05
-0.00010912
6.26437e-05
-0.000213669
7.61832e-05
-0.000197507
8.62564e-05
-0.000137401
9.59224e-05
-0.000112279
9.83895e-05
-6.96026e-05
7.95222e-05
-4.84973e-06
4.08739e-05
4.08638e-05
0.000110787
7.32692e-06
1.60937e-05
1.18186e-05
2.25055e-05
1.44251e-05
3.12002e-05
2.5126e-05
5.33308e-06
4.06678e-05
-5.55128e-05
6.40398e-05
-8.66074e-05
9.47963e-05
-0.000109632
0.00012274
-0.00012851
0.000118881
-7.25036e-05
7.40108e-05
-5.0985e-05
5.01901e-05
-0.000106016
8.75711e-05
-0.000229598
9.93894e-05
-0.000208474
0.000102474
-0.000154644
0.000104112
-0.000116454
9.62066e-05
-6.67121e-05
8.21199e-05
1.37623e-05
3.92393e-05
8.51031e-05
0.000144957
1.52748e-05
-1.43031e-05
2.78833e-05
-6.84012e-06
4.12135e-05
-2.42981e-07
5.42902e-05
-2.6452e-05
6.10256e-05
-6.96782e-05
6.65357e-05
-8.90712e-05
8.42919e-05
-0.00010743
0.000109886
-0.000140209
0.000102455
-0.00018142
6.78056e-05
-7.64842e-05
4.79776e-05
-0.000130553
8.89183e-05
-0.000210702
0.000110761
-0.000182653
0.00011096
-0.000149255
0.000107684
-0.000117043
9.74848e-05
-6.71514e-05
8.19916e-05
3.11956e-05
4.19583e-05
0.000128648
0.000175949
2.05714e-05
-3.68746e-05
3.83666e-05
-3.20325e-05
5.57105e-05
-2.66372e-05
6.70269e-05
-4.66278e-05
6.88598e-05
-7.89745e-05
6.63926e-05
-8.82149e-05
6.91166e-05
-9.51017e-05
8.2394e-05
-0.000126653
0.000108738
-0.000165315
0.00012626
-0.00019302
5.78552e-05
-0.000197423
0.000100272
-0.000160943
0.000115029
-0.000144291
0.000114618
-0.00013346
0.000108709
-0.000115361
9.82387e-05
-6.42498e-05
7.99498e-05
4.6801e-05
4.34662e-05
0.000163152
0.000206119
2.44586e-05
-1.96656e-05
4.18527e-05
-2.02796e-05
5.81924e-05
-2.08449e-05
6.941e-05
-2.78408e-05
7.0633e-05
-3.8199e-05
6.6731e-05
-4.35131e-05
6.44944e-05
-5.07468e-05
6.90925e-05
-4.89998e-05
7.82592e-05
-5.09352e-05
8.75655e-05
-4.37768e-05
5.76118e-05
-3.82762e-05
0.000110514
-0.000121692
0.000116825
-0.000129911
0.000114922
-0.000131956
0.000110524
-0.000117942
9.79951e-05
-8.11522e-05
8.23076e-05
4.72038e-05
4.71207e-05
0.000170829
0.000240007
1.95667e-06
-2.25138e-05
4.06323e-06
-2.27318e-05
6.27091e-06
-2.29203e-05
8.53207e-06
-2.25278e-05
1.13962e-05
-2.3083e-05
1.49442e-05
-2.50724e-05
1.80498e-05
-2.37836e-05
2.2951e-05
-2.58112e-05
2.81694e-05
-2.66832e-05
3.25985e-05
-2.47913e-05
3.62028e-05
-2.16934e-05
3.97543e-05
-1.9543e-05
4.1998e-05
-1.49951e-05
4.40972e-05
-1.15937e-05
4.49376e-05
-4.26446e-06
4.261e-05
2.00941e-06
2.92119e-05
1.65096e-05
2.39934e-05
3.15896e-05
1.86298e-05
4.78286e-05
9.13434e-07
5.81832e-05
1.20224e-05
5.59725e-05
2.98038e-05
5.75237e-05
4.38561e-05
6.24099e-05
2.07996e-06
-2.45938e-05
4.31742e-06
-2.49693e-05
6.4e-06
-2.50028e-05
8.90867e-06
-2.50365e-05
1.11787e-05
-2.5353e-05
1.37386e-05
-2.76323e-05
1.67577e-05
-2.68026e-05
2.11613e-05
-3.02147e-05
2.53908e-05
-3.09126e-05
3.01156e-05
-2.95164e-05
3.48833e-05
-2.64624e-05
3.85044e-05
-2.31657e-05
3.93183e-05
-1.58099e-05
3.90229e-05
-1.12991e-05
3.89142e-05
-4.15618e-06
3.83681e-05
2.55532e-06
3.99395e-05
1.49391e-05
4.10505e-05
3.04793e-05
4.36701e-05
4.46192e-05
3.01512e-05
6.38477e-05
1.53952e-05
5.96265e-05
2.10927e-05
4.34391e-05
4.19838e-05
4.01296e-05
2.57811e-06
-2.71721e-05
5.08333e-06
-2.74747e-05
7.36213e-06
-2.72817e-05
9.68867e-06
-2.7363e-05
1.19565e-05
-2.76209e-05
1.38857e-05
-2.95616e-05
1.74929e-05
-3.04098e-05
2.29486e-05
-3.56713e-05
2.90897e-05
-3.70804e-05
3.71332e-05
-3.76771e-05
4.46855e-05
-3.41905e-05
5.08889e-05
-2.95594e-05
5.55249e-05
-2.05996e-05
5.95603e-05
-1.54808e-05
5.97977e-05
-4.47543e-06
5.69926e-05
5.33726e-06
5.41541e-05
1.77786e-05
5.71805e-05
2.74568e-05
6.17203e-05
4.00869e-05
7.3645e-05
5.15062e-05
6.36781e-05
6.34109e-05
4.8644e-05
4.81568e-05
2.86902e-05
5.26638e-05
2.72184e-06
-3.06202e-05
5.23846e-06
-3.06666e-05
7.21056e-06
-2.98109e-05
8.73663e-06
-2.92959e-05
1.01891e-05
-2.93108e-05
1.18151e-05
-3.12642e-05
1.48039e-05
-3.3405e-05
2.07862e-05
-4.17233e-05
2.9651e-05
-4.63274e-05
3.90695e-05
-4.84263e-05
4.63369e-05
-4.35207e-05
5.03956e-05
-3.58749e-05
5.34265e-05
-2.58454e-05
5.49987e-05
-1.93972e-05
5.72412e-05
-9.25332e-06
6.03684e-05
-2.2042e-07
6.50134e-05
1.16248e-05
6.94079e-05
2.22097e-05
7.6349e-05
3.27668e-05
9.23819e-05
3.52988e-05
0.000111633
4.31478e-05
0.000119019
3.70183e-05
2.56445e-05
0.000114853
2.85271e-06
-6.19348e-05
5.03249e-06
-6.09161e-05
6.25045e-06
-5.76126e-05
6.10834e-06
-5.30279e-05
5.4716e-06
-4.67604e-05
6.97294e-06
-4.11638e-05
1.02485e-05
-3.8711e-05
1.4993e-05
-4.78526e-05
2.51561e-05
-6.05432e-05
3.38968e-05
-6.4881e-05
3.89651e-05
-5.62989e-05
4.27933e-05
-4.72895e-05
4.75377e-05
-3.85693e-05
5.09487e-05
-3.15697e-05
5.59326e-05
-2.28545e-05
5.99066e-05
-1.22169e-05
6.46735e-05
-8.99819e-07
7.0945e-05
1.13624e-05
8.05209e-05
2.03559e-05
9.36405e-05
2.03886e-05
0.000111967
2.38325e-05
0.000131748
1.62939e-05
9.88525e-06
0.000145906
5.21739e-06
-0.000175394
9.53149e-06
-0.00017271
1.36698e-05
-0.000165464
1.62283e-05
-0.000153251
1.45162e-05
-0.000136135
5.73454e-06
-0.000113649
-6.93734e-06
-9.07538e-05
-1.07362e-05
-9.32982e-05
-1.20488e-05
-0.000114036
-8.49781e-06
-0.000104198
-5.70134e-06
-7.16845e-05
-5.77325e-06
-5.54139e-05
-7.42168e-06
-4.55154e-05
-6.31965e-06
-4.13136e-05
1.06124e-06
-3.84375e-05
1.47094e-05
-3.41422e-05
3.21356e-05
-2.56575e-05
4.79354e-05
-1.54693e-05
6.03251e-05
8.3744e-07
7.85174e-05
-6.08484e-06
9.41017e-05
3.05222e-06
0.000111714
-7.10054e-06
-7.95441e-06
0.000126745
9.47626e-06
-0.000135919
1.52877e-05
-0.000126554
2.16183e-05
-0.00011807
2.58027e-05
-0.000104512
2.91698e-05
-0.000106597
2.64345e-05
-0.000121937
3.72993e-06
-0.000129526
-4.59126e-05
-0.000129971
-9.01635e-05
-0.000144948
-9.49955e-05
-0.000123709
-7.72436e-05
-9.7567e-05
-6.62991e-05
-8.06712e-05
-6.04997e-05
-6.55837e-05
-5.65026e-05
-5.33877e-05
-5.1483e-05
-4.2497e-05
-4.35473e-05
-3.35731e-05
-2.63906e-05
-2.86415e-05
1.20219e-06
-2.39651e-05
2.4117e-05
-1.66448e-05
4.43156e-05
-2.6147e-05
6.01406e-05
-2.5501e-05
7.07835e-05
-3.16587e-05
-2.97985e-05
8.31923e-05
8.77362e-07
-5.40874e-05
6.24495e-06
-5.28289e-05
1.74141e-05
-5.29686e-05
3.83174e-05
-5.39303e-05
3.36505e-05
-6.46574e-05
3.26817e-05
-4.92242e-05
7.15252e-06
-5.27792e-05
-3.63509e-05
-5.40506e-05
-0.000101612
-2.6605e-05
-0.000100426
-5.48395e-05
-8.42224e-05
-5.51562e-05
-6.97003e-05
-7.14826e-05
-6.0922e-05
-5.72936e-05
-5.42034e-05
-4.49302e-05
-4.94433e-05
-5.78522e-05
-4.37596e-05
-6.40763e-05
-3.79027e-05
-5.38159e-05
-3.15102e-05
-5.00355e-05
-2.27471e-05
-4.03115e-05
-1.29803e-05
-4.11624e-05
-1.69466e-06
-4.08303e-05
1.63906e-05
-4.90184e-05
-5.35043e-05
3.70889e-05
-1.60933e-05
-2.1434e-05
-2.80698e-05
-2.92952e-05
-3.55514e-05
-3.67338e-05
-3.81265e-05
-4.74656e-05
-3.94419e-05
-5.99126e-05
-4.09843e-05
-6.41014e-05
-8.83486e-06
-2.6481e-05
5.24809e-05
2.89367e-05
8.79171e-05
2.09389e-05
7.51004e-05
-2.68356e-05
5.55709e-05
-4.55919e-05
4.50924e-05
-4.92566e-05
2.4171e-05
-8.96339e-06
-1.46693e-05
8.90014e-06
-3.10007e-05
-1.619e-05
-2.75192e-05
-4.46098e-05
-1.87709e-05
-5.36994e-05
-1.25599e-05
-5.91526e-05
-8.12247e-06
-8.20058e-05
-7.8101e-06
-7.20687e-05
1.52492e-06
-9.0082e-05
1.52505e-05
-9.66198e-05
-8.51709e-05
2.74538e-05
-1.31378e-06
-2.41001e-05
-2.68048e-06
-3.02047e-05
-4.07425e-06
-3.66926e-05
-6.8416e-06
-4.48875e-05
-1.37936e-05
-5.30004e-05
-2.14751e-05
-5.62135e-05
-1.29548e-05
-3.38103e-05
2.66688e-05
-2.54347e-06
1.71623e-05
3.04363e-05
-1.96728e-05
1.10283e-05
-3.2574e-05
-3.24958e-05
-2.88182e-05
-5.48035e-05
3.66753e-06
-5.1968e-05
5.25147e-05
-4.96333e-05
9.38002e-05
-5.11957e-05
0.000117503
-5.03675e-05
0.00012276
-4.35077e-05
0.00013483
-4.91721e-05
0.000138291
-3.5439e-05
0.000135232
-1.59339e-05
0.000108862
-9.06955e-06
9.24679e-05
-3.74941e-05
-4.67608e-05
8.09429e-05
-1.14425e-06
-2.23388e-05
-1.96144e-06
-2.91654e-05
-3.23739e-06
-3.53754e-05
-6.0821e-06
-4.20987e-05
-1.1749e-05
-4.73667e-05
-1.94807e-05
-4.84934e-05
-1.43903e-05
-3.89042e-05
1.63328e-05
-3.30982e-05
4.3671e-05
2.72096e-06
3.53088e-05
1.93537e-05
2.45074e-05
-2.18682e-05
2.67399e-05
-5.70338e-05
3.11952e-05
-5.63829e-05
3.52924e-05
-5.3689e-05
3.66284e-05
-5.25075e-05
3.86362e-05
-5.23681e-05
4.09877e-05
-4.58589e-05
3.36182e-05
-4.18052e-05
3.05301e-05
-3.23534e-05
4.08555e-05
-2.62596e-05
7.25455e-05
-4.03662e-05
9.04976e-05
-5.35116e-05
-5.38417e-05
0.000100442
-9.87565e-07
-2.05847e-05
-1.18526e-06
-2.85194e-05
-2.18426e-06
-3.39855e-05
-4.61722e-06
-3.94307e-05
-8.85627e-06
-4.30951e-05
-1.39939e-05
-4.33527e-05
-1.43614e-05
-3.85316e-05
-1.34739e-05
-3.39433e-05
2.91766e-06
-1.33282e-05
2.51578e-05
-2.94123e-06
3.32635e-05
-2.98998e-05
2.89846e-05
-5.27629e-05
3.09141e-05
-5.8324e-05
3.76732e-05
-6.04498e-05
4.49675e-05
-5.98012e-05
4.89324e-05
-5.63339e-05
5.38569e-05
-5.07851e-05
5.60473e-05
-4.39992e-05
5.63314e-05
-3.26406e-05
5.32353e-05
-2.31654e-05
4.1559e-05
-2.8689e-05
3.23558e-05
-4.43128e-05
-4.63021e-05
2.48275e-05
2.86652e-06
-2.38953e-05
4.15061e-06
-2.99417e-05
3.61548e-06
-3.35086e-05
1.01888e-06
-3.68502e-05
-3.14099e-06
-3.89376e-05
-7.6979e-06
-3.87962e-05
-9.74187e-06
-3.64902e-05
-1.12328e-05
-3.24661e-05
-9.16447e-08
-2.45416e-05
1.52306e-05
-1.83982e-05
2.02977e-05
-3.49085e-05
1.58184e-05
-4.82356e-05
1.0971e-05
-5.34684e-05
7.85263e-06
-5.7329e-05
6.5559e-06
-5.85038e-05
6.05146e-06
-5.58303e-05
6.14473e-06
-5.08812e-05
8.05421e-06
-4.59129e-05
1.49333e-05
-3.95238e-05
2.57867e-05
-3.40223e-05
2.97018e-05
-3.26066e-05
2.12187e-05
-3.58302e-05
-3.6608e-05
1.15283e-05
2.13353e-06
-2.59496e-05
3.62714e-06
-3.14053e-05
3.73776e-06
-3.36115e-05
2.06651e-06
-3.51766e-05
-9.94336e-07
-3.58748e-05
-4.33337e-06
-3.54556e-05
-6.58259e-06
-3.42399e-05
-7.11443e-06
-3.19334e-05
-1.94095e-06
-2.97149e-05
6.90078e-06
-2.72524e-05
7.96941e-06
-3.59789e-05
2.7412e-06
-4.30069e-05
-1.9339e-06
-4.87927e-05
-5.80282e-06
-5.34593e-05
-9.43619e-06
-5.48703e-05
-1.30948e-05
-5.21729e-05
-1.58742e-05
-4.81041e-05
-1.79158e-05
-4.38751e-05
-1.90764e-05
-3.83664e-05
-1.82315e-05
-3.48712e-05
-1.61328e-05
-3.47068e-05
-1.49332e-05
-3.70328e-05
-3.78004e-05
-1.37344e-05
1.54112e-06
-2.74895e-05
2.48805e-06
-3.2351e-05
2.2555e-06
-3.33783e-05
8.56819e-07
-3.37773e-05
-1.2542e-06
-3.37631e-05
-3.24652e-06
-3.34624e-05
-4.66206e-06
-3.28234e-05
-4.71429e-06
-3.18803e-05
-2.93279e-06
-3.14958e-05
2.74922e-07
-3.04596e-05
-6.94115e-07
-3.50094e-05
-4.66919e-06
-3.90314e-05
-8.92283e-06
-4.45386e-05
-1.33903e-05
-4.89914e-05
-1.7876e-05
-5.03849e-05
-2.1504e-05
-4.85454e-05
-2.41288e-05
-4.54822e-05
-2.54885e-05
-4.25171e-05
-2.53184e-05
-3.85406e-05
-2.36695e-05
-3.65223e-05
-2.20312e-05
-3.63481e-05
-2.2088e-05
-3.6977e-05
-3.64647e-05
-2.34206e-05
6.96162e-07
-2.81848e-05
6.14723e-07
-3.22688e-05
-2.34026e-07
-3.25289e-05
-1.24794e-06
-3.27628e-05
-2.1445e-06
-3.28659e-05
-2.92416e-06
-3.26821e-05
-3.44617e-06
-3.23007e-05
-3.27052e-06
-3.20553e-05
-2.66913e-06
-3.20965e-05
-1.53482e-06
-3.15935e-05
-2.85763e-06
-3.36861e-05
-5.91687e-06
-3.59718e-05
-1.04614e-05
-3.99937e-05
-1.55683e-05
-4.38844e-05
-2.02044e-05
-4.57486e-05
-2.33325e-05
-4.54179e-05
-2.52198e-05
-4.35951e-05
-2.57878e-05
-4.19521e-05
-2.5291e-05
-3.90379e-05
-2.44335e-05
-3.73829e-05
-2.37878e-05
-3.69949e-05
-2.38201e-05
-3.69459e-05
-3.58542e-05
-2.44274e-05
2.63193e-08
-2.82108e-05
-4.69675e-07
-3.17723e-05
-1.12923e-06
-3.18688e-05
-1.77513e-06
-3.21164e-05
-2.32016e-06
-3.23203e-05
-2.65252e-06
-3.23492e-05
-2.65879e-06
-3.22939e-05
-2.44889e-06
-3.22647e-05
-2.23767e-06
-3.23073e-05
-1.80439e-06
-3.20263e-05
-2.484e-06
-3.30062e-05
-3.83005e-06
-3.46255e-05
-6.59743e-06
-3.7226e-05
-1.10111e-05
-3.94706e-05
-1.56506e-05
-4.11081e-05
-1.8942e-05
-4.21262e-05
-2.07055e-05
-4.18322e-05
-2.16705e-05
-4.09859e-05
-2.198e-05
-3.87304e-05
-2.28999e-05
-3.64628e-05
-2.40103e-05
-3.58858e-05
-2.49704e-05
-3.59863e-05
-3.51371e-05
-2.56852e-05
-2.16293e-07
-2.79936e-05
-6.72094e-07
-3.13159e-05
-1.08405e-06
-3.14564e-05
-1.46329e-06
-3.17367e-05
-1.85616e-06
-3.1927e-05
-2.12466e-06
-3.20802e-05
-2.25467e-06
-3.21634e-05
-2.23944e-06
-3.22795e-05
-2.25822e-06
-3.22881e-05
-1.97688e-06
-3.23074e-05
-2.15841e-06
-3.28244e-05
-2.73696e-06
-3.40466e-05
-4.32205e-06
-3.56408e-05
-6.86502e-06
-3.69269e-05
-9.69412e-06
-3.82794e-05
-1.26663e-05
-3.91525e-05
-1.53942e-05
-3.91026e-05
-1.79177e-05
-3.84639e-05
-1.932e-05
-3.73272e-05
-2.06374e-05
-3.51472e-05
-2.28187e-05
-3.3705e-05
-2.51138e-05
-3.36914e-05
-3.35153e-05
-2.67345e-05
-2.76436e-07
-2.77167e-05
-5.27219e-07
-3.10645e-05
-7.97324e-07
-3.11856e-05
-1.16634e-06
-3.1367e-05
-1.66405e-06
-3.14286e-05
-2.16985e-06
-3.15738e-05
-2.64374e-06
-3.16889e-05
-3.07389e-06
-3.18488e-05
-3.34468e-06
-3.20168e-05
-3.30496e-06
-3.23466e-05
-3.30342e-06
-3.28255e-05
-3.72468e-06
-3.3625e-05
-5.02612e-06
-3.4339e-05
-6.70761e-06
-3.52456e-05
-8.90521e-06
-3.60799e-05
-1.19989e-05
-3.60588e-05
-1.5011e-05
-3.60899e-05
-1.74861e-05
-3.59885e-05
-1.95783e-05
-3.52345e-05
-2.14786e-05
-3.32465e-05
-2.38514e-05
-3.13317e-05
-2.60255e-05
-3.15165e-05
-3.19275e-05
-2.76111e-05
-2.1216e-07
-2.7504e-05
-5.53062e-07
-3.07231e-05
-1.01935e-06
-3.07189e-05
-1.59819e-06
-3.07877e-05
-2.18988e-06
-3.08366e-05
-2.86632e-06
-3.0897e-05
-3.50707e-06
-3.10479e-05
-4.12613e-06
-3.12295e-05
-4.66526e-06
-3.14775e-05
-5.07781e-06
-3.19338e-05
-5.50341e-06
-3.23997e-05
-6.24428e-06
-3.28839e-05
-7.25803e-06
-3.3325e-05
-8.58552e-06
-3.39177e-05
-1.05548e-05
-3.41112e-05
-1.28001e-05
-3.38126e-05
-1.49393e-05
-3.39506e-05
-1.7011e-05
-3.39165e-05
-1.90755e-05
-3.31694e-05
-2.06968e-05
-3.16246e-05
-2.21238e-05
-2.99037e-05
-2.36065e-05
-3.00326e-05
-3.04195e-05
-2.51123e-05
-2.86717e-07
-2.7217e-05
-7.80287e-07
-3.02292e-05
-1.31746e-06
-3.01814e-05
-1.80718e-06
-3.02977e-05
-2.29775e-06
-3.03458e-05
-2.79965e-06
-3.03949e-05
-3.34926e-06
-3.04982e-05
-3.99411e-06
-3.05845e-05
-4.71254e-06
-3.0759e-05
-5.47577e-06
-3.11706e-05
-6.31338e-06
-3.1562e-05
-7.31378e-06
-3.18834e-05
-8.58105e-06
-3.20577e-05
-1.00571e-05
-3.24421e-05
-1.16601e-05
-3.25074e-05
-1.30358e-05
-3.24376e-05
-1.47157e-05
-3.22704e-05
-1.68332e-05
-3.17987e-05
-1.89697e-05
-3.10322e-05
-2.08671e-05
-2.97263e-05
-2.23676e-05
-2.84021e-05
-2.37629e-05
-2.86359e-05
-2.90993e-05
-2.50809e-05
-4.03558e-07
-2.68131e-05
-8.1906e-07
-2.98134e-05
-1.19372e-06
-2.98065e-05
-1.62041e-06
-2.98708e-05
-2.07081e-06
-2.98952e-05
-2.54268e-06
-2.9923e-05
-3.06669e-06
-2.99741e-05
-3.61906e-06
-3.00322e-05
-4.22128e-06
-3.01568e-05
-5.09172e-06
-3.03001e-05
-6.05176e-06
-3.0602e-05
-7.08985e-06
-3.08454e-05
-8.25837e-06
-3.08893e-05
-9.71245e-06
-3.09878e-05
-1.11812e-05
-3.10394e-05
-1.25932e-05
-3.10252e-05
-1.41146e-05
-3.0749e-05
-1.58027e-05
-3.01104e-05
-1.73736e-05
-2.94606e-05
-1.87461e-05
-2.83529e-05
-1.98832e-05
-2.72638e-05
-2.13551e-05
-2.71626e-05
-2.72281e-05
-2.32244e-05
-3.22775e-07
-2.64902e-05
-7.60617e-07
-2.93754e-05
-1.23098e-06
-2.9336e-05
-1.74508e-06
-2.93566e-05
-2.26489e-06
-2.93754e-05
-2.76976e-06
-2.94181e-05
-3.27336e-06
-2.94706e-05
-3.76777e-06
-2.95378e-05
-4.31827e-06
-2.96064e-05
-4.96391e-06
-2.96546e-05
-5.83284e-06
-2.97331e-05
-6.87034e-06
-2.98079e-05
-7.82102e-06
-2.99387e-05
-8.95335e-06
-2.98559e-05
-1.02684e-05
-2.9724e-05
-1.18921e-05
-2.94022e-05
-1.37285e-05
-2.89125e-05
-1.52768e-05
-2.85618e-05
-1.66928e-05
-2.80439e-05
-1.81466e-05
-2.68983e-05
-1.93533e-05
-2.60558e-05
-2.06582e-05
-2.58565e-05
-2.52946e-05
-2.25896e-05
-4.57137e-07
-2.60328e-05
-9.725e-07
-2.88599e-05
-1.46945e-06
-2.88389e-05
-1.96438e-06
-2.88616e-05
-2.46985e-06
-2.88699e-05
-3.00966e-06
-2.88783e-05
-3.58549e-06
-2.88948e-05
-4.1798e-06
-2.89436e-05
-4.78419e-06
-2.90021e-05
-5.49889e-06
-2.894e-05
-6.47048e-06
-2.87616e-05
-7.47565e-06
-2.88028e-05
-8.53927e-06
-2.88752e-05
-9.63517e-06
-2.87599e-05
-1.07874e-05
-2.85727e-05
-1.19547e-05
-2.82346e-05
-1.29988e-05
-2.78686e-05
-1.42093e-05
-2.7351e-05
-1.5672e-05
-2.65806e-05
-1.69441e-05
-2.56253e-05
-1.81025e-05
-2.48963e-05
-1.96115e-05
-2.43461e-05
-2.3484e-05
-2.14205e-05
-3.27541e-07
-2.57053e-05
-7.49412e-07
-2.8438e-05
-1.20267e-06
-2.83856e-05
-1.68334e-06
-2.8381e-05
-2.18564e-06
-2.83676e-05
-2.7062e-06
-2.83578e-05
-3.25644e-06
-2.83447e-05
-3.87503e-06
-2.83252e-05
-4.61053e-06
-2.82667e-05
-5.36439e-06
-2.81862e-05
-6.01556e-06
-2.81105e-05
-6.76043e-06
-2.8058e-05
-7.81103e-06
-2.78247e-05
-8.94361e-06
-2.76279e-05
-1.00519e-05
-2.74641e-05
-1.1151e-05
-2.71362e-05
-1.24359e-05
-2.65837e-05
-1.39474e-05
-2.58393e-05
-1.52543e-05
-2.52731e-05
-1.6256e-05
-2.46228e-05
-1.73722e-05
-2.37789e-05
-1.88333e-05
-2.2884e-05
-2.20152e-05
-2.03003e-05
-4.1762e-07
-2.52875e-05
-8.96281e-07
-2.79593e-05
-1.37439e-06
-2.79075e-05
-1.87546e-06
-2.78799e-05
-2.4073e-06
-2.78358e-05
-2.97528e-06
-2.77899e-05
-3.56661e-06
-2.77534e-05
-4.18786e-06
-2.77041e-05
-4.83321e-06
-2.76215e-05
-5.49907e-06
-2.75204e-05
-6.20942e-06
-2.74002e-05
-7.04152e-06
-2.7226e-05
-7.84876e-06
-2.70176e-05
-8.80104e-06
-2.66755e-05
-1.00446e-05
-2.62214e-05
-1.11987e-05
-2.59818e-05
-1.22249e-05
-2.55577e-05
-1.31022e-05
-2.49618e-05
-1.40673e-05
-2.43075e-05
-1.52142e-05
-2.34751e-05
-1.64954e-05
-2.24967e-05
-1.77599e-05
-2.16183e-05
-2.07416e-05
-1.90322e-05
-3.89981e-07
-2.48977e-05
-8.36847e-07
-2.75124e-05
-1.27655e-06
-2.74678e-05
-1.71596e-06
-2.74405e-05
-2.15712e-06
-2.73947e-05
-2.62038e-06
-2.73268e-05
-3.13401e-06
-2.72399e-05
-3.70079e-06
-2.71374e-05
-4.32166e-06
-2.70008e-05
-5.04324e-06
-2.6799e-05
-5.89299e-06
-2.65505e-05
-6.80612e-06
-2.63129e-05
-7.70978e-06
-2.61141e-05
-8.55675e-06
-2.5829e-05
-9.23031e-06
-2.55476e-05
-1.00896e-05
-2.51232e-05
-1.11211e-05
-2.45262e-05
-1.22808e-05
-2.38019e-05
-1.35711e-05
-2.30167e-05
-1.47067e-05
-2.23389e-05
-1.56182e-05
-2.15842e-05
-1.66169e-05
-2.06188e-05
-1.95188e-05
-1.78381e-05
-3.87875e-07
-2.45096e-05
-8.37483e-07
-2.70628e-05
-1.2972e-06
-2.70081e-05
-1.78531e-06
-2.69525e-05
-2.30423e-06
-2.68759e-05
-2.84383e-06
-2.67873e-05
-3.40097e-06
-2.66829e-05
-3.98573e-06
-2.65528e-05
-4.59083e-06
-2.63958e-05
-5.17086e-06
-2.6219e-05
-5.71475e-06
-2.60067e-05
-6.3065e-06
-2.57212e-05
-7.05027e-06
-2.53704e-05
-7.89468e-06
-2.49845e-05
-8.93372e-06
-2.45094e-05
-1.0054e-05
-2.40027e-05
-1.10449e-05
-2.35355e-05
-1.191e-05
-2.29367e-05
-1.2651e-05
-2.22752e-05
-1.35084e-05
-2.14808e-05
-1.45802e-05
-2.05116e-05
-1.5644e-05
-1.95541e-05
-1.85561e-05
-1.66056e-05
-3.53e-07
-2.41568e-05
-7.49486e-07
-2.66664e-05
-1.14311e-06
-2.66145e-05
-1.54756e-06
-2.65481e-05
-1.97025e-06
-2.64532e-05
-2.42617e-06
-2.63315e-05
-2.92756e-06
-2.61816e-05
-3.4766e-06
-2.60039e-05
-4.07665e-06
-2.57958e-05
-4.74816e-06
-2.55476e-05
-5.50396e-06
-2.5251e-05
-6.29793e-06
-2.49273e-05
-7.06861e-06
-2.45998e-05
-7.8286e-06
-2.4225e-05
-8.52763e-06
-2.381e-05
-9.17904e-06
-2.3352e-05
-9.94823e-06
-2.27663e-05
-1.08222e-05
-2.20625e-05
-1.18338e-05
-2.12632e-05
-1.28544e-05
-2.04597e-05
-1.36989e-05
-1.96662e-05
-1.45372e-05
-1.87151e-05
-1.76445e-05
-1.54476e-05
-3.59742e-07
-2.37969e-05
-7.68437e-07
-2.62577e-05
-1.17876e-06
-2.62042e-05
-1.60576e-06
-2.61212e-05
-2.04941e-06
-2.60097e-05
-2.51055e-06
-2.58704e-05
-2.99098e-06
-2.57013e-05
-3.49363e-06
-2.55013e-05
-4.01843e-06
-2.52711e-05
-4.55495e-06
-2.50111e-05
-5.09564e-06
-2.47103e-05
-5.66342e-06
-2.43595e-05
-6.29373e-06
-2.39696e-05
-6.9867e-06
-2.35319e-05
-7.76168e-06
-2.30358e-05
-8.64054e-06
-2.24729e-05
-9.53659e-06
-2.18704e-05
-1.03709e-05
-2.12282e-05
-1.11109e-05
-2.05229e-05
-1.18524e-05
-1.97176e-05
-1.2691e-05
-1.88271e-05
-1.35211e-05
-1.78841e-05
-1.68573e-05
-1.43074e-05
-3.11439e-07
-2.34857e-05
-6.59023e-07
-2.59102e-05
-1.00976e-06
-2.58536e-05
-1.37967e-06
-2.57513e-05
-1.77415e-06
-2.56153e-05
-2.19948e-06
-2.54452e-05
-2.65886e-06
-2.52421e-05
-3.15192e-06
-2.50084e-05
-3.67826e-06
-2.47449e-05
-4.23881e-06
-2.44506e-05
-4.83198e-06
-2.41172e-05
-5.45574e-06
-2.37358e-05
-6.1036e-06
-2.33218e-05
-6.76378e-06
-2.28721e-05
-7.42647e-06
-2.23727e-05
-8.07936e-06
-2.18207e-05
-8.74586e-06
-2.12039e-05
-9.46469e-06
-2.05093e-05
-1.02408e-05
-1.97464e-05
-1.10192e-05
-1.89387e-05
-1.17594e-05
-1.80862e-05
-1.2486e-05
-1.71571e-05
-1.61389e-05
-1.32033e-05
-2.94176e-07
-2.31914e-05
-6.26033e-07
-2.55783e-05
-9.59684e-07
-2.552e-05
-1.3103e-06
-2.54008e-05
-1.67835e-06
-2.52473e-05
-2.06696e-06
-2.50567e-05
-2.47958e-06
-2.48295e-05
-2.91871e-06
-2.45693e-05
-3.3884e-06
-2.42753e-05
-3.89256e-06
-2.39465e-05
-4.41942e-06
-2.35903e-05
-4.95728e-06
-2.31979e-05
-5.52025e-06
-2.27589e-05
-6.1207e-06
-2.22715e-05
-6.75605e-06
-2.17382e-05
-7.42275e-06
-2.11536e-05
-8.10994e-06
-2.0517e-05
-8.79026e-06
-1.98289e-05
-9.45428e-06
-1.90822e-05
-1.01212e-05
-1.82713e-05
-1.08035e-05
-1.74035e-05
-1.14777e-05
-1.64821e-05
-1.54886e-05
-1.21274e-05
-2.46622e-07
-2.2945e-05
-5.34224e-07
-2.52908e-05
-8.25087e-07
-2.52292e-05
-1.13393e-06
-2.5092e-05
-1.46263e-06
-2.49187e-05
-1.81554e-06
-2.47039e-05
-2.19785e-06
-2.44473e-05
-2.60979e-06
-2.41575e-05
-3.04863e-06
-2.38365e-05
-3.5121e-06
-2.34831e-05
-4.00615e-06
-2.30963e-05
-4.53022e-06
-2.26739e-05
-5.07424e-06
-2.22149e-05
-5.63203e-06
-2.17142e-05
-6.20471e-06
-2.1165e-05
-6.7907e-06
-2.05683e-05
-7.38745e-06
-1.99202e-05
-7.99943e-06
-1.92168e-05
-8.62319e-06
-1.84583e-05
-9.24799e-06
-1.76462e-05
-9.86722e-06
-1.67838e-05
-1.04793e-05
-1.58697e-05
-1.48934e-05
-1.10735e-05
-2.0004e-07
-2.27448e-05
-4.50428e-07
-2.50404e-05
-7.04241e-07
-2.49754e-05
-9.74337e-07
-2.4822e-05
-1.26034e-06
-2.46328e-05
-1.56493e-06
-2.43994e-05
-1.89519e-06
-2.41171e-05
-2.25601e-06
-2.37968e-05
-2.65129e-06
-2.34413e-05
-3.08157e-06
-2.30528e-05
-3.541e-06
-2.26368e-05
-4.02282e-06
-2.21921e-05
-4.5248e-06
-2.1713e-05
-5.04475e-06
-2.11941e-05
-5.58177e-06
-2.06287e-05
-6.12932e-06
-2.00205e-05
-6.68551e-06
-1.93642e-05
-7.24604e-06
-1.86564e-05
-7.80782e-06
-1.78963e-05
-8.37074e-06
-1.70831e-05
-8.93481e-06
-1.62193e-05
-9.4949e-06
-1.53091e-05
-1.43472e-05
-1.00406e-05
-1.50583e-07
-2.25945e-05
-3.72566e-07
-2.48186e-05
-5.98847e-07
-2.47492e-05
-8.36573e-07
-2.45843e-05
-1.08424e-06
-2.43852e-05
-1.33758e-06
-2.41461e-05
-1.59254e-06
-2.38623e-05
-1.86351e-06
-2.35259e-05
-2.16786e-06
-2.3137e-05
-2.52023e-06
-2.27005e-05
-2.92898e-06
-2.22281e-05
-3.39044e-06
-2.17306e-05
-3.88779e-06
-2.12157e-05
-4.40334e-06
-2.06788e-05
-4.91918e-06
-2.01124e-05
-5.43625e-06
-1.95041e-05
-5.95169e-06
-1.88488e-05
-6.46753e-06
-1.81406e-05
-6.98258e-06
-1.73812e-05
-7.49634e-06
-1.65691e-05
-8.00908e-06
-1.57063e-05
-8.52011e-06
-1.47979e-05
-1.3844e-05
-9.02264e-06
-9.40567e-08
-2.25003e-05
-3.20389e-07
-2.45922e-05
-5.46662e-07
-2.4523e-05
-7.73904e-07
-2.43571e-05
-1.00577e-06
-2.41534e-05
-1.24229e-06
-2.39097e-05
-1.4792e-06
-2.36254e-05
-1.71765e-06
-2.32875e-05
-1.96202e-06
-2.28927e-05
-2.21731e-06
-2.24452e-05
-2.49596e-06
-2.19495e-05
-2.81322e-06
-2.14134e-05
-3.18598e-06
-2.0843e-05
-3.63036e-06
-2.02343e-05
-4.12786e-06
-1.96157e-05
-4.64828e-06
-1.89833e-05
-5.16654e-06
-1.83309e-05
-5.66331e-06
-1.7644e-05
-6.145e-06
-1.68996e-05
-6.61738e-06
-1.60967e-05
-7.0852e-06
-1.52383e-05
-7.55195e-06
-1.43308e-05
-1.33784e-05
-8.01736e-06
-7.21821e-08