/*--------------------------------*- C++ -*----------------------------------*\
| =========                 |                                                 |
| \\      /  F ield         | OpenFOAM: The Open Source CFD Toolbox           |
|  \\    /   O peration     | Version:  2.4.0                                 |
|   \\  /    A nd           | Web:      www.OpenFOAM.org                      |
|    \\/     M anipulation  |                                                 |
\*---------------------------------------------------------------------------*/
FoamFile
{
    version     2.0;
    format      ascii;
    class       surfaceScalarField;
    location    "0.45";
    object      phi.oil;
}
// * * * * * * * * * * * * * * * * * * * * * * * * * * * * * * * * * * * * * //

dimensions      [0 3 -1 0 0 0 0];

internalField   nonuniform List<scalar> 
4432
(
2.98583e-06
-2.9858e-06
6.07857e-06
-3.09271e-06
8.69151e-06
-2.61295e-06
1.24983e-05
-3.80681e-06
1.47793e-05
-2.28097e-06
1.78016e-05
-3.02227e-06
2.15252e-05
-3.72356e-06
2.4567e-05
-3.04167e-06
2.69895e-05
-2.42245e-06
2.90281e-05
-2.03857e-06
3.20894e-05
-3.06119e-06
3.53264e-05
-3.23699e-06
3.77595e-05
-2.43295e-06
3.91637e-05
-1.40389e-06
3.89952e-05
1.69272e-07
3.75122e-05
1.48473e-06
3.45216e-05
2.99337e-06
3.03694e-05
4.15623e-06
2.53385e-05
5.03591e-06
2.01278e-05
5.21652e-06
1.35051e-05
6.58224e-06
5.05744e-06
8.72955e-06
8.28853e-06
2.98769e-06
-5.97347e-06
6.08109e-06
-6.1861e-06
8.74481e-06
-5.27667e-06
1.23888e-05
-7.45085e-06
1.48124e-05
-4.70459e-06
1.79322e-05
-6.14213e-06
2.15331e-05
-7.32443e-06
2.4431e-05
-5.93969e-06
2.69929e-05
-4.98442e-06
2.94443e-05
-4.48999e-06
3.26632e-05
-6.28017e-06
3.55297e-05
-6.10349e-06
3.77431e-05
-4.64631e-06
3.88462e-05
-2.50682e-06
3.94348e-05
-4.1867e-07
3.79287e-05
2.99286e-06
3.54049e-05
5.52298e-06
3.1074e-05
8.49971e-06
2.63771e-05
9.74825e-06
2.03083e-05
1.12977e-05
1.37735e-05
1.30812e-05
6.02421e-06
1.62246e-05
1.45788e-05
2.99528e-06
-8.96873e-06
6.05009e-06
-9.2409e-06
8.85523e-06
-8.08181e-06
1.22107e-05
-1.08063e-05
1.49498e-05
-7.44372e-06
1.81399e-05
-9.33217e-06
2.13898e-05
-1.05743e-05
2.40978e-05
-8.64758e-06
2.70023e-05
-7.88871e-06
3.02143e-05
-7.70134e-06
3.33412e-05
-9.40413e-06
3.53183e-05
-8.07694e-06
3.72712e-05
-6.59363e-06
3.90897e-05
-4.32252e-06
3.97525e-05
-1.08098e-06
3.91793e-05
3.56842e-06
3.67283e-05
7.99441e-06
3.26795e-05
1.26391e-05
2.7197e-05
1.53455e-05
2.14346e-05
1.71501e-05
1.54445e-05
1.90714e-05
9.05636e-06
2.23613e-05
2.40348e-05
3.00499e-06
-1.18652e-05
6.01804e-06
-1.2138e-05
9.0168e-06
-1.09709e-05
1.20473e-05
-1.36843e-05
1.50438e-05
-1.03111e-05
1.82527e-05
-1.23756e-05
2.13439e-05
-1.34519e-05
2.38784e-05
-1.09648e-05
2.73086e-05
-1.10683e-05
3.07573e-05
-1.08604e-05
3.3305e-05
-1.16106e-05
3.49714e-05
-9.38577e-06
3.71288e-05
-8.37567e-06
3.85168e-05
-5.32025e-06
4.02071e-05
-2.37539e-06
4.1593e-05
2.44912e-06
3.94196e-05
1.03062e-05
3.51711e-05
1.69819e-05
2.76252e-05
2.30463e-05
1.95851e-05
2.53758e-05
1.2954e-05
2.57706e-05
6.85155e-06
2.83142e-05
3.13746e-05
3.01154e-06
-1.55244e-05
5.95909e-06
-1.58304e-05
9.25303e-06
-1.49811e-05
1.16391e-05
-1.73008e-05
1.52756e-05
-1.5007e-05
1.8389e-05
-1.70609e-05
2.08054e-05
-1.82269e-05
2.40567e-05
-1.68856e-05
2.76188e-05
-1.8055e-05
3.08284e-05
-1.84045e-05
3.29654e-05
-1.93769e-05
3.53283e-05
-1.81749e-05
3.78032e-05
-1.82197e-05
4.03161e-05
-1.55319e-05
4.20622e-05
-1.18439e-05
4.18877e-05
-3.33292e-06
4.02755e-05
8.55441e-06
3.56478e-05
2.36092e-05
2.81763e-05
3.22389e-05
1.95427e-05
3.47709e-05
1.12126e-05
3.42795e-05
6.3149e-06
3.3152e-05
3.81883e-05
2.91277e-06
-3.13864e-05
5.71809e-06
-3.18406e-05
9.14659e-06
-3.1683e-05
1.10047e-05
-3.36024e-05
1.45955e-05
-3.30764e-05
1.75378e-05
-3.52088e-05
1.96198e-05
-3.62531e-05
2.27498e-05
-3.65112e-05
2.55889e-05
-3.85137e-05
2.80658e-05
-4.00501e-05
3.00822e-05
-4.19521e-05
3.26793e-05
-4.24199e-05
3.42229e-05
-3.94388e-05
3.62817e-05
-3.27622e-05
3.78162e-05
-2.30568e-05
3.90235e-05
-1.87911e-05
3.73708e-05
-4.44138e-06
3.15348e-05
1.67796e-05
2.63123e-05
3.96069e-05
1.99663e-05
4.39504e-05
1.13753e-05
4.37732e-05
4.77187e-06
3.97947e-05
4.3325e-05
2.28358e-06
-4.64482e-05
4.43518e-06
-4.58211e-05
7.05143e-06
-4.5432e-05
8.26544e-06
-4.19384e-05
1.01691e-05
-4.12854e-05
1.21813e-05
-3.79661e-05
1.3302e-05
-3.14052e-05
1.4262e-05
-2.73071e-05
1.55743e-05
-2.47513e-05
1.66455e-05
-2.14207e-05
1.72514e-05
-1.86451e-05
1.71356e-05
-1.56064e-05
1.65015e-05
-1.2492e-05
1.56095e-05
-9.38908e-06
1.58574e-05
-5.90602e-06
2.1905e-05
-3.20485e-06
3.06403e-05
-7.5326e-07
2.63456e-05
8.96339e-06
1.90068e-05
3.62598e-05
1.76864e-05
4.85776e-05
1.23846e-05
5.07176e-05
6.43655e-06
4.57627e-05
4.99384e-05
4.88406e-07
-2.15824e-05
1.09374e-06
-2.15553e-05
1.456e-06
-2.15054e-05
2.60982e-06
-2.08364e-05
3.172e-06
-2.06309e-05
4.24472e-06
-2.17364e-05
5.87725e-06
-2.07652e-05
8.21449e-06
-2.09387e-05
1.05708e-05
-2.14737e-05
1.29863e-05
-2.03658e-05
1.42855e-05
-1.80907e-05
1.55796e-05
-1.59921e-05
1.61911e-05
-1.27512e-05
1.63919e-05
-9.49238e-06
1.36705e-05
-3.42455e-06
1.09265e-05
-5.13539e-07
1.648e-05
4.29753e-06
2.18954e-05
2.62784e-05
1.04973e-05
3.55907e-05
1.11999e-05
5.23397e-05
1.22908e-05
5.7514e-05
8.67883e-06
5.15462e-05
5.88788e-05
-1.9335e-05
1.94142e-05
-3.80139e-05
1.87146e-05
-5.60212e-05
1.80383e-05
-6.87155e-05
1.27521e-05
-6.61394e-05
-2.41661e-06
-5.46001e-05
-1.10262e-05
-4.87725e-05
-4.69618e-06
-4.14588e-05
-5.35114e-06
-3.22676e-05
-6.44137e-06
-2.31691e-05
-5.23237e-06
-1.74518e-05
2.98436e-06
-6.13579e-06
5.18836e-06
1.10832e-05
4.85445e-06
3.60301e-05
9.83164e-07
6.12553e-05
2.07239e-06
7.34425e-05
1.49276e-05
6.40324e-05
3.553e-05
3.00745e-05
5.48691e-05
6.16403e-05
-1.57491e-05
3.51551e-05
-3.05555e-05
3.34821e-05
-4.35283e-05
3.09729e-05
-5.35593e-05
2.26916e-05
-5.37411e-05
-2.47642e-06
-5.16896e-05
-1.36509e-05
-5.01593e-05
-7.55494e-06
-4.52705e-05
-1.36921e-05
-3.92632e-05
-1.78111e-05
-3.1744e-05
-1.99919e-05
-2.14459e-05
-1.9177e-05
-1.66153e-06
-3.34303e-05
2.53052e-05
-3.99264e-05
6.09352e-05
-4.36636e-05
8.51954e-05
-2.82841e-05
8.97009e-05
4.49904e-06
7.73498e-05
4.24845e-05
3.93135e-05
8.97556e-05
0.00010823
-7.98158e-06
4.3114e-05
-1.6846e-05
4.23409e-05
-2.64772e-05
4.06029e-05
-3.30706e-05
2.92835e-05
-2.53274e-05
-1.04372e-05
-1.99172e-05
-2.59709e-05
-2.93445e-05
-5.36725e-05
-2.75244e-05
-6.54469e-05
-1.93822e-05
-5.93604e-05
-1.08956e-05
-6.29393e-05
-1.92408e-06
-5.65141e-05
1.35179e-05
-7.67041e-05
3.5228e-05
-7.28501e-05
6.31524e-05
-7.6815e-05
8.73685e-05
-5.98998e-05
9.34829e-05
-1.38295e-05
7.15528e-05
4.40824e-05
3.45861e-05
0.000118575
0.00015267
1.13949e-06
4.19824e-05
-1.8672e-06
4.53574e-05
-7.15405e-06
4.58919e-05
3.79421e-07
2.17073e-05
1.52122e-05
-2.68953e-05
1.01049e-05
-6.30208e-05
1.05055e-05
-8.46299e-05
2.07573e-05
-0.000101787
2.40487e-05
-0.000106497
3.62583e-05
-0.000167589
5.44547e-05
-0.000189001
5.87432e-05
-0.000164986
6.21224e-05
-0.000136076
7.46584e-05
-0.000100617
8.98036e-05
-7.52493e-05
9.97583e-05
-2.46521e-05
7.64483e-05
6.39668e-05
3.00104e-05
0.000145958
0.00018669
6.76315e-06
3.55312e-05
1.13749e-05
4.10333e-05
1.4311e-05
4.30875e-05
2.49717e-05
1.06693e-05
3.96863e-05
-4.98316e-05
5.91932e-05
-8.17815e-05
7.46961e-05
-0.000103645
8.94534e-05
-0.000138317
8.95753e-05
-0.000159602
0.000110952
-0.000240297
0.000131407
-0.000264313
0.000114754
-0.000202047
9.50988e-05
-0.000167328
9.4246e-05
-0.000130687
9.93708e-05
-8.32042e-05
9.61031e-05
-2.18265e-05
7.50985e-05
8.43123e-05
3.08977e-05
0.000181203
0.000215924
1.34384e-05
2.36712e-05
2.67765e-05
2.92196e-05
4.03664e-05
3.05347e-05
5.38316e-05
-2.79454e-06
6.02214e-05
-5.53723e-05
6.69384e-05
-7.50812e-05
8.38019e-05
-9.23465e-05
9.96714e-05
-0.000113565
9.93989e-05
-0.000139589
9.68991e-05
-0.00017144
0.000104732
-0.000186723
0.000110471
-0.000156402
0.000111348
-0.000160439
0.000106351
-0.000127821
0.00010524
-8.53488e-05
9.73102e-05
-1.50537e-05
7.47737e-05
0.000105858
3.64751e-05
0.000216491
0.000250515
1.90126e-05
8.17918e-06
4.08549e-05
1.13836e-05
5.87543e-05
1.57254e-05
7.12375e-05
-1.31025e-05
7.29883e-05
-5.5505e-05
6.93933e-05
-6.461e-05
7.25653e-05
-7.31851e-05
8.80845e-05
-9.07389e-05
0.000108293
-0.000112759
0.000124996
-0.000141968
0.000124154
-0.000157133
0.000113255
-0.00013715
0.000112844
-0.000123335
0.000113106
-0.000108773
0.00010834
-8.08206e-05
9.82679e-05
-6.46287e-06
7.10418e-05
0.000131971
3.80373e-05
0.000248208
0.00028526
2.5109e-05
-1.11189e-05
5.04419e-05
-7.94577e-06
7.06869e-05
6.2176e-07
8.22676e-05
-2.05354e-05
8.04931e-05
-5.10011e-05
7.40901e-05
-5.56969e-05
6.94365e-05
-5.98965e-05
7.3084e-05
-7.15598e-05
8.41659e-05
-9.02426e-05
9.6533e-05
-0.000114658
0.000113559
-0.000119964
0.000112687
-0.000101813
0.000116762
-0.000109054
0.000115148
-0.000105882
0.000110868
-7.91762e-05
9.70403e-05
-7.88998e-06
7.49802e-05
0.000149375
4.49956e-05
0.000277563
0.00032723
1.95674e-06
-2.2513e-05
4.06342e-06
-2.27308e-05
6.2712e-06
-2.2919e-05
8.53251e-06
-2.25264e-05
1.13969e-05
-2.30815e-05
1.4945e-05
-2.50707e-05
1.80506e-05
-2.37821e-05
2.29519e-05
-2.58102e-05
2.81703e-05
-2.66899e-05
3.25995e-05
-2.48037e-05
3.62038e-05
-2.17143e-05
3.97554e-05
-1.95743e-05
4.19994e-05
-1.50312e-05
4.40992e-05
-1.16306e-05
4.48918e-05
-4.31456e-06
3.90864e-05
2.16584e-06
2.30197e-05
1.87177e-05
2.72691e-05
3.71994e-05
2.84692e-05
4.87009e-05
2.16508e-06
5.8906e-05
1.15779e-05
6.35079e-05
3.20788e-05
4.91768e-05
4.05887e-05
6.0806e-05
2.08001e-06
-2.45926e-05
4.31751e-06
-2.49682e-05
6.40014e-06
-2.50018e-05
8.90887e-06
-2.50354e-05
1.1179e-05
-2.53521e-05
1.37391e-05
-2.76314e-05
1.67585e-05
-2.68026e-05
2.11689e-05
-3.02144e-05
2.53919e-05
-3.04373e-05
3.01213e-05
-2.29201e-05
3.48929e-05
-1.58451e-05
3.85078e-05
-1.23992e-05
3.93191e-05
-7.90626e-06
3.90197e-05
-4.32171e-06
3.8917e-05
1.24776e-06
3.75702e-05
6.90354e-06
3.17193e-05
1.68959e-05
3.71815e-05
3.17644e-05
4.62166e-05
5.23685e-05
3.29707e-05
7.42149e-05
1.68307e-05
6.40875e-05
2.08107e-05
4.92409e-05
4.73996e-05
3.76429e-05
2.57813e-06
-2.71712e-05
5.08336e-06
-2.74738e-05
7.3622e-06
-2.72809e-05
9.68883e-06
-2.73623e-05
1.19568e-05
-2.76202e-05
1.38866e-05
-2.95609e-05
1.74925e-05
-3.03838e-05
2.28925e-05
-2.4339e-05
2.60639e-05
-1.93761e-05
3.61042e-05
-2.07272e-05
4.47251e-05
-1.86185e-05
5.03056e-05
-1.39883e-05
5.52008e-05
-6.44587e-06
5.85118e-05
-2.38557e-06
5.67769e-05
4.99477e-06
5.65316e-05
1.029e-05
5.27242e-05
1.74006e-05
4.78519e-05
2.63008e-05
5.82576e-05
4.81159e-05
7.60697e-05
6.60891e-05
6.72539e-05
7.21008e-05
5.19463e-05
5.39872e-05
3.05097e-05
5.50922e-05
2.72183e-06
-3.05965e-05
5.23843e-06
-3.06446e-05
7.21057e-06
-2.97928e-05
8.73673e-06
-2.92826e-05
1.01893e-05
-2.93031e-05
1.18121e-05
-3.12597e-05
1.03424e-05
-2.55777e-05
1.43414e-05
-2.42129e-05
2.74407e-05
-3.58897e-05
3.79849e-05
-3.47184e-05
4.50266e-05
-2.75373e-05
4.84815e-05
-1.96153e-05
5.14781e-05
-1.02692e-05
5.35152e-05
-4.1635e-06
5.59555e-05
7.35787e-06
5.97564e-05
1.82677e-05
6.49608e-05
2.75924e-05
7.00125e-05
3.67885e-05
7.79602e-05
4.52958e-05
9.63878e-05
4.70525e-05
0.000114954
5.24953e-05
0.000122951
4.3281e-05
2.85639e-05
0.000119065
2.85187e-06
-6.07888e-05
5.03079e-06
-5.97959e-05
6.24798e-06
-5.65762e-05
6.1053e-06
-5.21302e-05
5.46802e-06
-4.61187e-05
4.46013e-06
-4.11571e-05
3.94805e-06
-3.27614e-05
1.01152e-05
-3.84842e-05
2.0122e-05
-4.58407e-05
2.90719e-05
-4.74621e-05
3.42052e-05
-3.73446e-05
3.80066e-05
-2.84215e-05
4.29133e-05
-1.9721e-05
4.6756e-05
-1.24109e-05
5.26993e-05
-4.43924e-06
5.75381e-05
5.4241e-06
6.26478e-05
1.68214e-05
6.99154e-05
2.38439e-05
8.13157e-05
3.04091e-05
9.67908e-05
2.85999e-05
0.000116541
3.02464e-05
0.00013736
2.18545e-05
1.32402e-05
0.000150891
5.2051e-06
-0.000163212
9.50208e-06
-0.000160568
1.36344e-05
-0.000153664
1.61704e-05
-0.000141942
1.43582e-05
-0.000125773
-3.73093e-06
-0.000109667
-1.41043e-05
-9.62205e-05
-1.55977e-05
-9.20658e-05
-1.95278e-05
-8.83545e-05
-1.71848e-05
-7.38128e-05
-1.42158e-05
-5.36243e-05
-1.35671e-05
-3.79665e-05
-1.38763e-05
-2.64351e-05
-1.11526e-05
-2.16865e-05
-3.28241e-06
-1.87349e-05
9.39005e-06
-1.39752e-05
2.40938e-05
-6.04797e-06
4.02347e-05
1.83999e-06
5.57866e-05
1.07106e-05
7.63596e-05
6.27907e-06
9.39474e-05
1.18654e-05
0.000114312
3.62649e-06
-2.33247e-07
0.000126768
3.41287e-06
-5.07329e-05
5.30357e-06
-4.7993e-05
7.23334e-06
-4.83064e-05
9.15299e-06
-5.07187e-05
1.64912e-05
-6.73562e-05
1.11313e-07
-0.000105394
-2.07395e-05
-0.000127015
-5.73257e-05
-0.000149796
-8.25216e-05
-0.00013544
-8.47841e-05
-0.000114619
-7.72773e-05
-9.9879e-05
-7.02219e-05
-8.63787e-05
-6.51579e-05
-6.81771e-05
-6.08016e-05
-5.32807e-05
-5.50604e-05
-4.3426e-05
-4.61771e-05
-3.43597e-05
-3.06761e-05
-2.86092e-05
-1.05396e-05
-2.36874e-05
1.12593e-05
-1.48661e-05
3.25085e-05
-2.03283e-05
5.05669e-05
-1.03987e-05
6.59228e-05
-1.63962e-05
-1.69297e-05
7.89399e-05
1.07985e-06
-4.10082e-05
6.83955e-06
-4.25383e-05
1.8382e-05
-4.50697e-05
3.81867e-05
-4.71372e-05
6.42291e-05
-5.80522e-05
1.19595e-05
-7.52826e-05
-5.06061e-05
-5.25487e-05
-8.50249e-05
-6.88529e-05
-0.000106078
-8.45762e-05
-0.000101162
-7.77578e-05
-8.62076e-05
-7.25622e-05
-7.1432e-05
-9.03866e-05
-6.16073e-05
-0.000110836
-5.50389e-05
-0.000139675
-4.95497e-05
-0.000127026
-4.37597e-05
-0.000108021
-3.75911e-05
-9.54825e-05
-3.24213e-05
-8.6517e-05
-2.51744e-05
-7.46804e-05
-1.70484e-05
-7.69514e-05
-2.39826e-07
-6.13042e-05
1.84696e-05
-6.85142e-05
-6.51641e-05
3.92623e-05
-1.66616e-05
-2.43483e-05
-2.82853e-05
-3.09661e-05
-3.4894e-05
-3.74769e-05
-3.07947e-05
-4.69684e-05
-3.79965e-05
-6.01191e-05
-3.85285e-05
-6.20962e-05
-1.04967e-05
-3.3284e-05
5.42342e-05
1.35171e-05
8.08947e-05
-1.30127e-05
5.56827e-05
-3.81102e-05
1.68823e-05
-4.38466e-05
-1.34212e-05
-3.95096e-05
-3.92513e-05
-4.19131e-05
-4.22163e-05
-7.38754e-05
-3.27446e-05
-7.84739e-05
-2.49693e-05
-7.18088e-05
-1.71698e-05
-6.32773e-05
-1.23034e-05
-6.50974e-05
-8.78374e-06
-9.11985e-05
-7.86125e-06
-8.14882e-05
1.01301e-06
-0.000131323
1.45678e-05
-0.000173528
-0.000168908
2.62318e-05
-1.24813e-06
-2.3098e-05
-2.62336e-06
-2.96471e-05
-4.34658e-06
-3.64274e-05
-8.10783e-06
-4.29482e-05
-1.40099e-05
-4.18566e-05
-2.13834e-05
-4.95986e-05
-1.27802e-05
-3.36613e-05
2.7282e-05
-2.32947e-06
1.63348e-05
2.99715e-05
-1.90474e-05
1.10198e-05
-3.24034e-05
-3.2347e-05
-2.87056e-05
-5.48071e-05
3.8104e-06
-5.20379e-05
5.26015e-05
-4.78755e-05
8.9381e-05
-4.63852e-05
0.000102607
-4.84128e-05
9.44811e-05
-4.8568e-05
8.97348e-05
-5.70511e-05
7.07412e-05
-4.39634e-05
6.06306e-05
-1.91613e-05
4.83113e-05
-6.57719e-05
5.34534e-05
-0.000106915
-0.000108965
5.70506e-05
-1.16577e-06
-2.19304e-05
-1.97471e-06
-2.88371e-05
-3.26691e-06
-3.51198e-05
-6.1154e-06
-4.21422e-05
-1.17175e-05
-4.7575e-05
-1.94775e-05
-4.85578e-05
-1.4319e-05
-3.89449e-05
1.76162e-05
-3.31907e-05
4.34889e-05
2.17446e-06
3.55179e-05
1.87754e-05
2.44324e-05
-2.21152e-05
2.67311e-05
-5.71186e-05
3.11732e-05
-5.74564e-05
3.48562e-05
-5.89822e-05
3.66034e-05
-5.68126e-05
3.87728e-05
-5.4718e-05
4.10444e-05
-4.60383e-05
3.38088e-05
-3.80919e-05
3.06182e-05
-3.20552e-05
4.12487e-05
-2.66588e-05
7.28324e-05
-3.94951e-05
9.10128e-05
-5.08534e-05
-5.70975e-05
0.000100707
-9.91203e-07
-2.09376e-05
-1.18605e-06
-2.8638e-05
-2.1891e-06
-3.40331e-05
-4.62068e-06
-3.94416e-05
-8.85886e-06
-4.30961e-05
-1.39976e-05
-4.33521e-05
-1.43746e-05
-3.85242e-05
-1.33967e-05
-3.38648e-05
3.7594e-06
-1.28362e-05
2.46181e-05
-2.58041e-06
3.3172e-05
-3.00693e-05
2.8892e-05
-5.29007e-05
2.97478e-05
-5.67814e-05
3.74065e-05
-6.13115e-05
4.43713e-05
-6.26328e-05
4.8215e-05
-5.89637e-05
5.28976e-05
-5.19823e-05
5.27721e-05
-4.28089e-05
5.6223e-05
-3.26029e-05
5.30249e-05
-2.31821e-05
4.10233e-05
-2.88555e-05
3.23358e-05
-4.37006e-05
-4.59299e-05
2.48585e-05
2.87803e-06
-2.38151e-05
4.15165e-06
-2.99119e-05
3.6148e-06
-3.35016e-05
1.01877e-06
-3.68482e-05
-3.1411e-06
-3.89361e-05
-7.69824e-06
-3.87952e-05
-9.74222e-06
-3.64901e-05
-1.12343e-05
-3.24678e-05
2.02397e-07
-2.45388e-05
1.51207e-05
-1.8206e-05
2.02927e-05
-3.48911e-05
1.48901e-05
-4.82875e-05
9.90395e-06
-5.43901e-05
7.52113e-06
-5.96393e-05
6.27638e-06
-6.00875e-05
5.87596e-06
-5.4369e-05
6.01139e-06
-5.04867e-05
7.82643e-06
-4.68458e-05
1.49516e-05
-4.00835e-05
2.59707e-05
-3.42963e-05
2.96943e-05
-3.34014e-05
2.1383e-05
-3.68749e-05
-3.72662e-05
1.16018e-05
2.1344e-06
-2.59486e-05
3.62736e-06
-3.14043e-05
3.73774e-06
-3.36113e-05
2.0665e-06
-3.51765e-05
-9.94327e-07
-3.58747e-05
-4.33335e-06
-3.54555e-05
-6.58261e-06
-3.42397e-05
-7.11443e-06
-3.19334e-05
-1.94066e-06
-2.97153e-05
6.90113e-06
-2.7253e-05
7.93445e-06
-3.59807e-05
2.13719e-06
-4.3064e-05
-2.34238e-06
-4.8936e-05
-5.79011e-06
-5.27566e-05
-8.892e-06
-5.37366e-05
-1.3105e-05
-5.23791e-05
-1.59029e-05
-4.82803e-05
-1.79325e-05
-4.40175e-05
-1.90648e-05
-3.85027e-05
-1.82094e-05
-3.49411e-05
-1.61374e-05
-3.4829e-05
-1.49646e-05
-3.71705e-05
-3.78886e-05
-1.37343e-05
1.5411e-06
-2.74893e-05
2.48807e-06
-3.23508e-05
2.25549e-06
-3.33782e-05
8.56811e-07
-3.37773e-05
-1.2542e-06
-3.37631e-05
-3.24653e-06
-3.34624e-05
-4.66207e-06
-3.28234e-05
-4.71429e-06
-3.18805e-05
-2.93277e-06
-3.14963e-05
2.75366e-07
-3.04605e-05
-7.38899e-07
-3.50136e-05
-4.80405e-06
-3.91366e-05
-9.11182e-06
-4.48286e-05
-1.31928e-05
-4.92552e-05
-1.78691e-05
-5.06784e-05
-2.15265e-05
-4.86876e-05
-2.41411e-05
-4.56517e-05
-2.54998e-05
-4.26766e-05
-2.53211e-05
-3.86859e-05
-2.36687e-05
-3.66224e-05
-2.20494e-05
-3.63778e-05
-2.20872e-05
-3.70242e-05
-3.65058e-05
-2.34152e-05
6.96161e-07
-2.81848e-05
6.1472e-07
-3.22687e-05
-2.3403e-07
-3.25289e-05
-1.24794e-06
-3.27628e-05
-2.1445e-06
-3.28659e-05
-2.92417e-06
-3.26821e-05
-3.44618e-06
-3.23007e-05
-3.27052e-06
-3.20555e-05
-2.6691e-06
-3.2097e-05
-1.5349e-06
-3.15945e-05
-2.87416e-06
-3.36909e-05
-5.93898e-06
-3.60189e-05
-1.05117e-05
-4.00883e-05
-1.56929e-05
-4.40592e-05
-2.02503e-05
-4.6156e-05
-2.33423e-05
-4.58337e-05
-2.52329e-05
-4.39265e-05
-2.57856e-05
-4.22155e-05
-2.53019e-05
-3.91874e-05
-2.44382e-05
-3.74523e-05
-2.37906e-05
-3.70284e-05
-2.3823e-05
-3.69648e-05
-3.58664e-05
-2.4428e-05
2.63199e-08
-2.82108e-05
-4.69676e-07
-3.17723e-05
-1.12923e-06
-3.18688e-05
-1.77513e-06
-3.21164e-05
-2.32016e-06
-3.23203e-05
-2.65252e-06
-3.23492e-05
-2.65879e-06
-3.22939e-05
-2.4489e-06
-3.22648e-05
-2.23765e-06
-3.23077e-05
-1.80451e-06
-3.20273e-05
-2.48665e-06
-3.30085e-05
-3.84207e-06
-3.46406e-05
-6.65189e-06
-3.73036e-05
-1.11385e-05
-3.96717e-05
-1.57076e-05
-4.15439e-05
-1.89606e-05
-4.26012e-05
-2.071e-05
-4.22304e-05
-2.16716e-05
-4.1272e-05
-2.19721e-05
-3.89052e-05
-2.28946e-05
-3.65311e-05
-2.40101e-05
-3.59117e-05
-2.4971e-05
-3.59976e-05
-3.51439e-05
-2.56859e-05
-2.16293e-07
-2.79936e-05
-6.72094e-07
-3.13159e-05
-1.08405e-06
-3.14564e-05
-1.46329e-06
-3.17367e-05
-1.85616e-06
-3.1927e-05
-2.12467e-06
-3.20802e-05
-2.25467e-06
-3.21634e-05
-2.23944e-06
-3.22796e-05
-2.25823e-06
-3.22883e-05
-1.97692e-06
-3.2308e-05
-2.15914e-06
-3.28255e-05
-2.74461e-06
-3.40529e-05
-4.36089e-06
-3.57073e-05
-6.93006e-06
-3.71323e-05
-9.74393e-06
-3.86297e-05
-1.26816e-05
-3.95714e-05
-1.53878e-05
-3.94822e-05
-1.79031e-05
-3.8748e-05
-1.93106e-05
-3.75012e-05
-2.06293e-05
-3.5235e-05
-2.2813e-05
-3.37396e-05
-2.5113e-05
-3.37023e-05
-3.35192e-05
-2.67346e-05
-2.76436e-07
-2.77167e-05
-5.27219e-07
-3.10645e-05
-7.97324e-07
-3.11856e-05
-1.16634e-06
-3.1367e-05
-1.66405e-06
-3.14286e-05
-2.16986e-06
-3.15738e-05
-2.64374e-06
-3.16889e-05
-3.0739e-06
-3.18488e-05
-3.34469e-06
-3.20169e-05
-3.30498e-06
-3.23469e-05
-3.30349e-06
-3.28261e-05
-3.7298e-06
-3.36265e-05
-5.04928e-06
-3.43745e-05
-6.74421e-06
-3.53724e-05
-8.93625e-06
-3.62835e-05
-1.20113e-05
-3.63544e-05
-1.5006e-05
-3.63583e-05
-1.74763e-05
-3.61941e-05
-1.9566e-05
-3.53723e-05
-2.14686e-05
-3.33211e-05
-2.38463e-05
-3.13635e-05
-2.60243e-05
-3.15268e-05
-3.19302e-05
-2.76111e-05
-2.1216e-07
-2.7504e-05
-5.53062e-07
-3.07231e-05
-1.01935e-06
-3.07189e-05
-1.59819e-06
-3.07877e-05
-2.18988e-06
-3.08366e-05
-2.86632e-06
-3.0897e-05
-3.50707e-06
-3.10479e-05
-4.12614e-06
-3.12295e-05
-4.66527e-06
-3.14775e-05
-5.07782e-06
-3.1934e-05
-5.50343e-06
-3.23999e-05
-6.24601e-06
-3.28842e-05
-7.26537e-06
-3.33338e-05
-8.59885e-06
-3.39644e-05
-1.05784e-05
-3.42012e-05
-1.2811e-05
-3.39388e-05
-1.49424e-05
-3.41019e-05
-1.70058e-05
-3.40522e-05
-1.90689e-05
-3.32624e-05
-2.06939e-05
-3.1676e-05
-2.21214e-05
-2.99262e-05
-2.36059e-05
-3.004e-05
-3.04214e-05
-2.51122e-05
-2.86717e-07
-2.7217e-05
-7.80287e-07
-3.02292e-05
-1.31746e-06
-3.01814e-05
-1.80718e-06
-3.02977e-05
-2.29775e-06
-3.03458e-05
-2.79965e-06
-3.03949e-05
-3.34926e-06
-3.04982e-05
-3.99411e-06
-3.05846e-05
-4.71255e-06
-3.0759e-05
-5.47577e-06
-3.11706e-05
-6.31338e-06
-3.15621e-05
-7.31398e-06
-3.18835e-05
-8.58293e-06
-3.20586e-05
-1.0064e-05
-3.24497e-05
-1.16654e-05
-3.2538e-05
-1.30435e-05
-3.24812e-05
-1.47177e-05
-3.23283e-05
-1.6831e-05
-3.1852e-05
-1.89671e-05
-3.10686e-05
-2.08655e-05
-2.97478e-05
-2.23664e-05
-2.84124e-05
-2.37627e-05
-2.86396e-05
-2.91003e-05
-2.50809e-05
-4.03558e-07
-2.68131e-05
-8.1906e-07
-2.98134e-05
-1.19372e-06
-2.98065e-05
-1.62041e-06
-2.98708e-05
-2.07081e-06
-2.98952e-05
-2.54268e-06
-2.9923e-05
-3.06669e-06
-2.99741e-05
-3.61907e-06
-3.00322e-05
-4.22128e-06
-3.01568e-05
-5.09172e-06
-3.03001e-05
-6.05176e-06
-3.0602e-05
-7.08986e-06
-3.08454e-05
-8.25857e-06
-3.08893e-05
-9.71308e-06
-3.09886e-05
-1.11844e-05
-3.10424e-05
-1.25952e-05
-3.10392e-05
-1.41159e-05
-3.0769e-05
-1.58016e-05
-3.01304e-05
-1.73733e-05
-2.94727e-05
-1.87459e-05
-2.83601e-05
-1.9883e-05
-2.72676e-05
-2.13549e-05
-2.71642e-05
-2.72285e-05
-2.32244e-05
-3.22775e-07
-2.64902e-05
-7.60617e-07
-2.93754e-05
-1.23098e-06
-2.9336e-05
-1.74508e-06
-2.93566e-05
-2.26489e-06
-2.93754e-05
-2.76976e-06
-2.94181e-05
-3.27336e-06
-2.94706e-05
-3.76777e-06
-2.95378e-05
-4.31827e-06
-2.96064e-05
-4.96391e-06
-2.96546e-05
-5.83284e-06
-2.97331e-05
-6.87034e-06
-2.98079e-05
-7.82102e-06
-2.99387e-05
-8.95338e-06
-2.98559e-05
-1.02686e-05
-2.97241e-05
-1.18929e-05
-2.94032e-05
-1.37288e-05
-2.89157e-05
-1.52768e-05
-2.8565e-05
-1.66927e-05
-2.80461e-05
-1.81465e-05
-2.68993e-05
-1.93533e-05
-2.60563e-05
-2.06581e-05
-2.58567e-05
-2.52947e-05
-2.25896e-05
-4.57137e-07
-2.60328e-05
-9.725e-07
-2.88599e-05
-1.46945e-06
-2.88389e-05
-1.96438e-06
-2.88616e-05
-2.46985e-06
-2.88699e-05
-3.00966e-06
-2.88783e-05
-3.58549e-06
-2.88948e-05
-4.1798e-06
-2.89436e-05
-4.78419e-06
-2.90021e-05
-5.49889e-06
-2.894e-05
-6.47048e-06
-2.87616e-05
-7.47565e-06
-2.88028e-05
-8.53927e-06
-2.88752e-05
-9.63517e-06
-2.87599e-05
-1.07874e-05
-2.85727e-05
-1.19548e-05
-2.82346e-05
-1.29988e-05
-2.78688e-05
-1.42093e-05
-2.73515e-05
-1.5672e-05
-2.6581e-05
-1.69441e-05
-2.56255e-05
-1.81025e-05
-2.48964e-05
-1.96115e-05
-2.43461e-05
-2.3484e-05
-2.14205e-05
-3.27541e-07
-2.57053e-05
-7.49412e-07
-2.8438e-05
-1.20267e-06
-2.83856e-05
-1.68334e-06
-2.8381e-05
-2.18564e-06
-2.83676e-05
-2.7062e-06
-2.83578e-05
-3.25644e-06
-2.83447e-05
-3.87503e-06
-2.83252e-05
-4.61053e-06
-2.82667e-05
-5.36439e-06
-2.81862e-05
-6.01556e-06
-2.81105e-05
-6.76043e-06
-2.8058e-05
-7.81103e-06
-2.78247e-05
-8.94361e-06
-2.76279e-05
-1.00519e-05
-2.74641e-05
-1.1151e-05
-2.71362e-05
-1.24359e-05
-2.65837e-05
-1.39474e-05
-2.58393e-05
-1.52543e-05
-2.52731e-05
-1.6256e-05
-2.46228e-05
-1.73722e-05
-2.3779e-05
-1.88333e-05
-2.2884e-05
-2.20153e-05
-2.03003e-05
-4.1762e-07
-2.52875e-05
-8.96281e-07
-2.79593e-05
-1.37439e-06
-2.79075e-05
-1.87546e-06
-2.78799e-05
-2.4073e-06
-2.78358e-05
-2.97528e-06
-2.77899e-05
-3.56661e-06
-2.77534e-05
-4.18786e-06
-2.77041e-05
-4.83321e-06
-2.76215e-05
-5.49907e-06
-2.75204e-05
-6.20942e-06
-2.74002e-05
-7.04152e-06
-2.7226e-05
-7.84876e-06
-2.70176e-05
-8.80104e-06
-2.66755e-05
-1.00446e-05
-2.62214e-05
-1.11987e-05
-2.59818e-05
-1.22249e-05
-2.55577e-05
-1.31022e-05
-2.49618e-05
-1.40673e-05
-2.43075e-05
-1.52142e-05
-2.34751e-05
-1.64954e-05
-2.24967e-05
-1.77599e-05
-2.16183e-05
-2.07416e-05
-1.90322e-05
-3.89981e-07
-2.48977e-05
-8.36847e-07
-2.75124e-05
-1.27655e-06
-2.74678e-05
-1.71596e-06
-2.74405e-05
-2.15712e-06
-2.73947e-05
-2.62038e-06
-2.73268e-05
-3.13401e-06
-2.72399e-05
-3.70079e-06
-2.71374e-05
-4.32166e-06
-2.70008e-05
-5.04324e-06
-2.6799e-05
-5.89299e-06
-2.65505e-05
-6.80612e-06
-2.63129e-05
-7.70978e-06
-2.61141e-05
-8.55675e-06
-2.5829e-05
-9.23031e-06
-2.55476e-05
-1.00896e-05
-2.51232e-05
-1.11211e-05
-2.45262e-05
-1.22808e-05
-2.38019e-05
-1.35711e-05
-2.30167e-05
-1.47067e-05
-2.23389e-05
-1.56182e-05
-2.15842e-05
-1.66169e-05
-2.06188e-05
-1.95188e-05
-1.78381e-05
-3.87875e-07
-2.45096e-05
-8.37483e-07
-2.70628e-05
-1.2972e-06
-2.70081e-05
-1.78531e-06
-2.69525e-05
-2.30423e-06
-2.68759e-05
-2.84383e-06
-2.67873e-05
-3.40097e-06
-2.66829e-05
-3.98573e-06
-2.65528e-05
-4.59083e-06
-2.63958e-05
-5.17086e-06
-2.6219e-05
-5.71475e-06
-2.60067e-05
-6.3065e-06
-2.57212e-05
-7.05027e-06
-2.53704e-05
-7.89468e-06
-2.49845e-05
-8.93372e-06
-2.45094e-05
-1.0054e-05
-2.40027e-05
-1.10449e-05
-2.35355e-05
-1.191e-05
-2.29367e-05
-1.2651e-05
-2.22752e-05
-1.35084e-05
-2.14808e-05
-1.45802e-05
-2.05116e-05
-1.5644e-05
-1.95541e-05
-1.85561e-05
-1.66056e-05
-3.53e-07
-2.41568e-05
-7.49486e-07
-2.66664e-05
-1.14311e-06
-2.66145e-05
-1.54756e-06
-2.65481e-05
-1.97025e-06
-2.64532e-05
-2.42617e-06
-2.63315e-05
-2.92756e-06
-2.61816e-05
-3.4766e-06
-2.60039e-05
-4.07665e-06
-2.57958e-05
-4.74816e-06
-2.55476e-05
-5.50396e-06
-2.5251e-05
-6.29793e-06
-2.49273e-05
-7.06861e-06
-2.45998e-05
-7.8286e-06
-2.4225e-05
-8.52763e-06
-2.381e-05
-9.17904e-06
-2.3352e-05
-9.94823e-06
-2.27663e-05
-1.08222e-05
-2.20625e-05
-1.18338e-05
-2.12632e-05
-1.28544e-05
-2.04597e-05
-1.36989e-05
-1.96662e-05
-1.45372e-05
-1.87151e-05
-1.76445e-05
-1.54476e-05
-3.59742e-07
-2.37969e-05
-7.68437e-07
-2.62577e-05
-1.17876e-06
-2.62042e-05
-1.60576e-06
-2.61212e-05
-2.04941e-06
-2.60097e-05
-2.51055e-06
-2.58704e-05
-2.99098e-06
-2.57013e-05
-3.49363e-06
-2.55013e-05
-4.01843e-06
-2.52711e-05
-4.55495e-06
-2.50111e-05
-5.09564e-06
-2.47103e-05
-5.66342e-06
-2.43595e-05
-6.29373e-06
-2.39696e-05
-6.9867e-06
-2.35319e-05
-7.76168e-06
-2.30358e-05
-8.64054e-06
-2.24729e-05
-9.53659e-06
-2.18704e-05
-1.03709e-05
-2.12282e-05
-1.11109e-05
-2.05229e-05
-1.18524e-05
-1.97176e-05
-1.2691e-05
-1.88271e-05
-1.35211e-05
-1.78841e-05
-1.68573e-05
-1.43074e-05
-3.11439e-07
-2.34857e-05
-6.59023e-07
-2.59102e-05
-1.00976e-06
-2.58536e-05
-1.37967e-06
-2.57513e-05
-1.77415e-06
-2.56153e-05
-2.19948e-06
-2.54452e-05
-2.65886e-06
-2.52421e-05
-3.15192e-06
-2.50084e-05
-3.67826e-06
-2.47449e-05
-4.23881e-06
-2.44506e-05
-4.83198e-06
-2.41172e-05
-5.45574e-06
-2.37358e-05
-6.1036e-06
-2.33218e-05
-6.76378e-06
-2.28721e-05
-7.42647e-06
-2.23727e-05
-8.07936e-06
-2.18207e-05
-8.74586e-06
-2.12039e-05
-9.46469e-06
-2.05093e-05
-1.02408e-05
-1.97464e-05
-1.10192e-05
-1.89387e-05
-1.17594e-05
-1.80862e-05
-1.2486e-05
-1.71571e-05
-1.61389e-05
-1.32033e-05
-2.94176e-07
-2.31914e-05
-6.26033e-07
-2.55783e-05
-9.59684e-07
-2.552e-05
-1.3103e-06
-2.54008e-05
-1.67835e-06
-2.52473e-05
-2.06696e-06
-2.50567e-05
-2.47958e-06
-2.48295e-05
-2.91871e-06
-2.45693e-05
-3.3884e-06
-2.42753e-05
-3.89256e-06
-2.39465e-05
-4.41942e-06
-2.35903e-05
-4.95728e-06
-2.31979e-05
-5.52025e-06
-2.27589e-05
-6.1207e-06
-2.22715e-05
-6.75605e-06
-2.17382e-05
-7.42275e-06
-2.11536e-05
-8.10994e-06
-2.0517e-05
-8.79026e-06
-1.98289e-05
-9.45428e-06
-1.90822e-05
-1.01212e-05
-1.82713e-05
-1.08035e-05
-1.74035e-05
-1.14777e-05
-1.64821e-05
-1.54886e-05
-1.21274e-05
-2.46622e-07
-2.2945e-05
-5.34224e-07
-2.52908e-05
-8.25087e-07
-2.52292e-05
-1.13393e-06
-2.5092e-05
-1.46263e-06
-2.49187e-05
-1.81554e-06
-2.47039e-05
-2.19785e-06
-2.44473e-05
-2.60979e-06
-2.41575e-05
-3.04863e-06
-2.38365e-05
-3.5121e-06
-2.34831e-05
-4.00615e-06
-2.30963e-05
-4.53022e-06
-2.26739e-05
-5.07424e-06
-2.22149e-05
-5.63203e-06
-2.17142e-05
-6.20471e-06
-2.1165e-05
-6.7907e-06
-2.05683e-05
-7.38745e-06
-1.99202e-05
-7.99943e-06
-1.92168e-05
-8.62319e-06
-1.84583e-05
-9.24799e-06
-1.76462e-05
-9.86722e-06
-1.67838e-05
-1.04793e-05
-1.58697e-05
-1.48934e-05
-1.10735e-05
-2.0004e-07
-2.27448e-05
-4.50428e-07
-2.50404e-05
-7.04241e-07
-2.49754e-05
-9.74337e-07
-2.4822e-05
-1.26034e-06
-2.46328e-05
-1.56493e-06
-2.43994e-05
-1.89519e-06
-2.41171e-05
-2.25601e-06
-2.37968e-05
-2.65129e-06
-2.34413e-05
-3.08157e-06
-2.30528e-05
-3.541e-06
-2.26368e-05
-4.02282e-06
-2.21921e-05
-4.5248e-06
-2.1713e-05
-5.04475e-06
-2.11941e-05
-5.58177e-06
-2.06287e-05
-6.12932e-06
-2.00205e-05
-6.68551e-06
-1.93642e-05
-7.24604e-06
-1.86564e-05
-7.80782e-06
-1.78963e-05
-8.37074e-06
-1.70831e-05
-8.93481e-06
-1.62193e-05
-9.4949e-06
-1.53091e-05
-1.43472e-05
-1.00406e-05
-1.50583e-07
-2.25945e-05
-3.72566e-07
-2.48186e-05
-5.98847e-07
-2.47492e-05
-8.36573e-07
-2.45843e-05
-1.08424e-06
-2.43852e-05
-1.33758e-06
-2.41461e-05
-1.59254e-06
-2.38623e-05
-1.86351e-06
-2.35259e-05
-2.16786e-06
-2.3137e-05
-2.52023e-06
-2.27005e-05
-2.92898e-06
-2.22281e-05
-3.39044e-06
-2.17306e-05
-3.88779e-06
-2.12157e-05
-4.40334e-06
-2.06788e-05
-4.91918e-06
-2.01124e-05
-5.43625e-06
-1.95041e-05
-5.95169e-06
-1.88488e-05
-6.46753e-06
-1.81406e-05
-6.98258e-06
-1.73812e-05
-7.49634e-06
-1.65691e-05
-8.00908e-06
-1.57063e-05
-8.52011e-06
-1.47979e-05
-1.3844e-05
-9.02264e-06
-9.40567e-08
-2.25003e-05
-3.20389e-07
-2.45922e-05
-5.46662e-07
-2.4523e-05
-7.73904e-07
-2.43571e-05
-1.00577e-06
-2.41534e-05
-1.24229e-06
-2.39097e-05
-1.4792e-06
-2.36254e-05
-1.71765e-06
-2.32875e-05
-1.96202e-06
-2.28927e-05
-2.21731e-06
-2.24452e-05
-2.49596e-06
-2.19495e-05
-2.81322e-06
-2.14134e-05
-3.18598e-06
-2.0843e-05
-3.63036e-06
-2.02343e-05
-4.12786e-06
-1.96157e-05
-4.64828e-06
-1.89833e-05
-5.16654e-06
-1.83309e-05
-5.66331e-06
-1.7644e-05
-6.145e-06
-1.68996e-05
-6.61738e-06
-1.60967e-05
-7.0852e-06
-1.52383e-05
-7.55195e-06
-1.43308e-05
-1.33784e-05
-8.01736e-06