/*--------------------------------*- C++ -*----------------------------------*\
| =========                 |                                                 |
| \\      /  F ield         | OpenFOAM: The Open Source CFD Toolbox           |
|  \\    /   O peration     | Version:  2.4.0                                 |
|   \\  /    A nd           | Web:      www.OpenFOAM.org                      |
|    \\/     M anipulation  |                                                 |
\*---------------------------------------------------------------------------*/
FoamFile
{
    version     2.0;
    format      ascii;
    class       surfaceScalarField;
    location    "0.45";
    object      phi.mercury;
}
// * * * * * * * * * * * * * * * * * * * * * * * * * * * * * * * * * * * * * //

dimensions      [0 3 -1 0 0 0 0];

internalField   nonuniform List<scalar> 
4432
(
2.98581e-06
-2.98581e-06
6.07854e-06
-3.09273e-06
8.69148e-06
-2.61294e-06
1.24983e-05
-3.8068e-06
1.47792e-05
-2.28097e-06
1.78016e-05
-3.0223e-06
2.15252e-05
-3.72362e-06
2.45669e-05
-3.04173e-06
2.69894e-05
-2.42251e-06
2.90281e-05
-2.03865e-06
3.20893e-05
-3.06127e-06
3.53264e-05
-3.23706e-06
3.77595e-05
-2.4331e-06
3.91637e-05
-1.40421e-06
3.89952e-05
1.68539e-07
3.75121e-05
1.48307e-06
3.45217e-05
2.99042e-06
3.03696e-05
4.15204e-06
2.53389e-05
5.0307e-06
2.01287e-05
5.21019e-06
1.35577e-05
6.57104e-06
5.27983e-06
8.27787e-06
5.27978e-06
2.98768e-06
-5.97349e-06
6.08106e-06
-6.18611e-06
8.74478e-06
-5.27666e-06
1.23888e-05
-7.45081e-06
1.48124e-05
-4.70456e-06
1.79322e-05
-6.14213e-06
2.1533e-05
-7.32444e-06
2.4431e-05
-5.93969e-06
2.69929e-05
-4.98441e-06
2.94443e-05
-4.49001e-06
3.26632e-05
-6.2802e-06
3.55297e-05
-6.10352e-06
3.7743e-05
-4.64647e-06
3.88461e-05
-2.50731e-06
3.94349e-05
-4.20205e-07
3.7929e-05
2.98891e-06
3.54056e-05
5.51382e-06
3.10751e-05
8.48253e-06
2.63784e-05
9.72738e-06
2.03101e-05
1.12786e-05
1.38214e-05
1.30597e-05
6.31184e-06
1.57874e-05
1.15916e-05
2.99527e-06
-8.96877e-06
6.05007e-06
-9.24092e-06
8.85521e-06
-8.08181e-06
1.22106e-05
-1.08063e-05
1.49498e-05
-7.4437e-06
1.81398e-05
-9.33226e-06
2.13898e-05
-1.05746e-05
2.40978e-05
-8.64789e-06
2.70023e-05
-7.88938e-06
3.02143e-05
-7.70299e-06
3.33411e-05
-9.41016e-06
3.53183e-05
-8.0844e-06
3.72711e-05
-6.60433e-06
3.90897e-05
-4.32884e-06
3.97526e-05
-1.08408e-06
3.918e-05
3.56133e-06
3.6731e-05
7.96288e-06
3.26843e-05
1.25292e-05
2.72023e-05
1.52094e-05
2.14388e-05
1.7042e-05
1.54889e-05
1.90097e-05
9.35504e-06
2.19213e-05
2.09466e-05
3.00498e-06
-1.20719e-05
6.01802e-06
-1.23615e-05
9.01678e-06
-1.11808e-05
1.20473e-05
-1.39975e-05
1.50438e-05
-1.05685e-05
1.82527e-05
-1.27285e-05
2.13438e-05
-1.39521e-05
2.38783e-05
-1.14852e-05
2.73086e-05
-1.1726e-05
3.07573e-05
-1.17151e-05
3.33048e-05
-1.28253e-05
3.49714e-05
-1.07932e-05
3.71292e-05
-1.00711e-05
3.85174e-05
-6.95749e-06
4.02076e-05
-3.77769e-06
4.1595e-05
1.83218e-06
3.94346e-05
1.00735e-05
3.52051e-05
1.67557e-05
2.76621e-05
2.27523e-05
1.96037e-05
2.51004e-05
1.30033e-05
2.56101e-05
7.1251e-06
2.77995e-05
2.80717e-05
3.01073e-06
-2.00566e-05
5.95881e-06
-2.04949e-05
9.24948e-06
-1.96372e-05
1.16384e-05
-2.25771e-05
1.52701e-05
-2.01438e-05
1.83761e-05
-2.28125e-05
2.07948e-05
-2.49156e-05
2.40443e-05
-2.4021e-05
2.76027e-05
-2.60686e-05
3.0803e-05
-2.74878e-05
3.2943e-05
-3.00105e-05
3.53121e-05
-3.01127e-05
3.78049e-05
-3.15689e-05
4.03289e-05
-2.98561e-05
4.21231e-05
-2.7316e-05
4.19491e-05
-1.94197e-05
4.03273e-05
-3.81053e-06
3.56944e-05
1.72311e-05
2.82431e-05
3.00035e-05
1.95889e-05
3.37498e-05
1.12691e-05
3.39299e-05
6.53606e-06
3.25325e-05
3.46078e-05
2.91474e-06
-5.26174e-05
5.73813e-06
-5.35748e-05
9.14642e-06
-5.36262e-05
1.10597e-05
-5.77846e-05
1.46062e-05
-5.7553e-05
1.75109e-05
-6.11717e-05
1.96329e-05
-6.34964e-05
2.27915e-05
-6.41752e-05
2.5676e-05
-6.69371e-05
2.81714e-05
-6.9534e-05
3.02784e-05
-7.29828e-05
3.29588e-05
-7.45118e-05
3.46486e-05
-6.99039e-05
3.6901e-05
-5.75482e-05
3.88386e-05
-4.18163e-05
4.007e-05
-3.9255e-05
3.88602e-05
-2.71662e-05
3.28558e-05
8.00851e-07
2.69584e-05
2.94876e-05
2.01863e-05
4.01543e-05
1.14483e-05
4.26637e-05
4.97927e-06
3.90016e-05
3.9587e-05
2.43009e-06
-9.6352e-05
4.77302e-06
-9.58634e-05
7.53819e-06
-9.44846e-05
9.06732e-06
-9.21383e-05
1.09485e-05
-8.91733e-05
1.36393e-05
-8.32849e-05
1.58519e-05
-7.33812e-05
1.72627e-05
-6.5017e-05
1.92112e-05
-6.01911e-05
2.20551e-05
-5.76044e-05
2.43609e-05
-5.62636e-05
2.48281e-05
-5.43705e-05
2.33869e-05
-4.74324e-05
1.9558e-05
-3.48688e-05
2.18087e-05
-2.10116e-05
3.19615e-05
-2.10879e-05
3.89931e-05
-2.52391e-05
3.06066e-05
-2.20041e-05
2.17548e-05
1.78116e-05
1.86763e-05
4.00243e-05
1.25421e-05
4.86922e-05
6.63642e-06
4.49067e-05
4.62234e-05
1.52059e-06
-8.66234e-05
2.85918e-06
-8.5149e-05
4.17559e-06
-8.2565e-05
5.38786e-06
-7.67615e-05
5.98573e-06
-7.15503e-05
6.28347e-06
-6.32175e-05
6.25303e-06
-5.12985e-05
7.53334e-06
-4.23186e-05
9.82005e-06
-3.62594e-05
1.22019e-05
-3.16239e-05
1.38043e-05
-2.71439e-05
1.53003e-05
-2.33656e-05
1.61984e-05
-1.89516e-05
1.66812e-05
-1.51716e-05
1.43855e-05
-8.96232e-06
1.37875e-05
-5.87337e-06
2.1997e-05
-1.01687e-05
3.0849e-05
-2.89494e-05
1.60764e-05
7.98687e-06
1.31811e-05
3.07059e-05
1.25893e-05
4.78977e-05
8.84889e-06
4.86386e-05
5.50722e-05
-5.06623e-05
-7.34886e-05
-6.73485e-05
-6.83597e-05
-6.83111e-05
-8.60346e-05
-6.17323e-05
-0.000119869
-5.47028e-05
-9.93899e-05
-4.68672e-05
-9.79608e-05
-4.0573e-05
-9.59278e-05
-3.31538e-05
-9.37096e-05
-2.34366e-05
-9.08892e-05
-1.1951e-05
-9.70606e-05
3.99618e-08
-0.000149238
1.45003e-05
-0.000174735
3.14559e-05
-0.000152653
4.88139e-05
-0.000132489
6.80409e-05
-0.000126071
8.09955e-05
-0.000108583
8.13224e-05
-7.94579e-05
6.13259e-05
-4.23658e-05
-3.22303e-05
-3.80857e-05
-4.99081e-05
-4.77775e-05
-8.1011e-06
-5.49819e-05
-1.55348e-07
-5.34989e-05
-1.93816e-05
-5.42115e-05
-1.21341e-05
-5.21899e-05
-2.10617e-05
-4.97525e-05
-2.58001e-05
-4.38408e-05
-3.6882e-05
-3.01808e-05
-4.00752e-05
1.05074e-05
-5.1942e-05
5.8891e-05
-0.00016282
7.06078e-05
-0.000261804
6.99364e-05
-0.000226877
8.11649e-05
-0.000210819
9.22194e-05
-0.000198431
9.73327e-05
-0.000173963
9.45873e-05
-0.000133111
6.75585e-05
-2.43805e-05
1.42891e-05
-1.67833e-05
-2.24969e-05
-2.33627e-05
2.30997e-05
-3.17266e-05
3.08625e-05
-3.4539e-05
1.97866e-05
-2.6101e-05
-2.16979e-05
-2.26556e-05
-3.25465e-05
-3.05525e-05
-5.62653e-05
-2.9042e-05
-5.86038e-05
-1.97709e-05
-5.4375e-05
1.17917e-05
-6.03657e-05
6.03816e-05
-0.000178076
8.01909e-05
-0.000271233
8.06003e-05
-0.000235041
8.87911e-05
-0.000237377
9.71974e-05
-0.000232364
0.000103039
-0.000214967
9.75938e-05
-0.000187592
6.648e-05
-7.26296e-05
4.71548e-05
-3.97558e-06
-3.77673e-05
-6.99803e-06
-2.14448e-05
-1.24129e-05
-2.8686e-06
-1.3269e-06
-5.62534e-06
1.73386e-05
-6.81318e-05
9.99613e-06
-8.27544e-05
9.59257e-06
-0.000148074
1.97502e-05
-0.000155899
2.73898e-05
-0.000198771
4.33994e-05
-8.17604e-05
7.38148e-05
-0.000217906
8.57119e-05
-0.000252691
8.85216e-05
-0.000237855
9.62454e-05
-0.000238202
9.89538e-05
-0.000233477
0.000101251
-0.000217234
0.000101336
-0.000188191
7.01252e-05
-0.000132434
7.76559e-05
1.98039e-05
-8.46992e-05
2.77889e-05
-8.17989e-05
3.01331e-05
-7.20783e-05
4.76008e-05
-8.21402e-05
6.90361e-05
-0.000107318
8.5076e-05
-0.000127691
8.61747e-05
-0.000165964
0.000162535
-0.00023756
0.000131092
-0.000345642
6.79362e-05
-0.000144254
7.17761e-05
-0.000227274
8.2116e-05
-0.000226489
9.18802e-05
-0.000233651
9.87511e-05
-0.000236541
9.99656e-05
-0.000233222
9.80514e-05
-0.000219389
9.77658e-05
-0.000180175
7.34161e-05
-0.000148876
0.000107498
2.265e-05
-8.86813e-05
3.32667e-05
-8.08959e-05
4.7679e-05
-8.2108e-05
5.76848e-05
-0.000108011
6.53893e-05
-0.000116568
6.68425e-05
-0.000129065
8.199e-05
-0.00014688
0.000116443
-0.000186885
0.000134496
-0.000256687
0.000102616
-0.000268152
7.98664e-05
-0.000269212
8.50572e-05
-0.000212682
9.41765e-05
-0.000221464
9.93743e-05
-0.000228341
9.96004e-05
-0.000231036
9.51553e-05
-0.000220475
9.04328e-05
-0.000179033
7.02827e-05
-0.000136645
0.000128075
2.2846e-05
-8.18016e-05
3.41835e-05
-7.57144e-05
4.91901e-05
-7.5586e-05
5.65708e-05
-8.97866e-05
5.96303e-05
-0.000111446
6.04344e-05
-0.000119707
6.45944e-05
-0.000128189
7.51303e-05
-0.000167737
0.000105696
-0.000211154
0.000122926
-0.000248608
0.000101909
-0.000245704
9.07963e-05
-0.000196638
9.55783e-05
-0.000209092
9.90677e-05
-0.000223137
9.88643e-05
-0.000227668
9.25742e-05
-0.000221545
8.25784e-05
-0.000177772
6.45238e-05
-0.000110579
0.000140334
2.39648e-05
-7.40602e-05
3.48861e-05
-7.37231e-05
4.67802e-05
-7.29715e-05
5.63437e-05
-8.95468e-05
5.9773e-05
-0.000109668
5.97927e-05
-0.000115253
6.0266e-05
-0.000123535
6.57084e-05
-0.000141968
7.40565e-05
-0.000158176
8.26147e-05
-0.000180175
8.98559e-05
-0.000184381
9.20286e-05
-0.000181951
9.67728e-05
-0.000206936
9.76668e-05
-0.000225436
9.71979e-05
-0.000227629
9.09732e-05
-0.000226434
8.1274e-05
-0.000185873
6.46592e-05
-9.58025e-05
0.000148516
1.93594e-06
-2.39925e-05
4.10372e-06
-2.37785e-05
6.35383e-06
-2.33924e-05
8.70446e-06
-2.24675e-05
1.17907e-05
-2.21551e-05
1.53452e-05
-2.25499e-05
1.84064e-05
-2.09782e-05
2.32627e-05
-2.15753e-05
2.86232e-05
-2.15828e-05
3.31623e-05
-1.97334e-05
3.67935e-05
-1.71024e-05
4.03885e-05
-1.53172e-05
4.26285e-05
-1.20738e-05
4.48426e-05
-9.80482e-06
4.57194e-05
-4.28495e-06
4.34992e-05
3.15363e-07
3.51685e-05
1.47907e-05
4.46861e-05
1.81513e-06
4.03446e-05
-4.14925e-06
1.88976e-05
1.51714e-05
2.14489e-05
3.06024e-05
3.23636e-05
3.47397e-05
3.63478e-05
5.08954e-05
2.10137e-06
-2.33127e-05
4.36079e-06
-2.36885e-05
6.47088e-06
-2.37785e-05
8.9996e-06
-2.38378e-05
1.12869e-05
-2.42164e-05
1.38921e-05
-2.64673e-05
1.68878e-05
-2.55892e-05
2.12347e-05
-2.87093e-05
2.54615e-05
-2.94886e-05
3.01667e-05
-2.81506e-05
3.49326e-05
-2.54021e-05
3.85611e-05
-2.26601e-05
3.94014e-05
-1.62659e-05
3.9109e-05
-1.22308e-05
3.89166e-05
-6.12107e-06
3.74618e-05
-1.0244e-06
4.02133e-05
7.50456e-06
3.16973e-05
2.13339e-05
4.07247e-05
7.31789e-06
3.26415e-05
2.50669e-06
2.31772e-05
1.56397e-05
2.93081e-05
1.39195e-05
1.68817e-05
4.12611e-05
2.58132e-06
-2.71485e-05
5.09416e-06
-2.7458e-05
7.38136e-06
-2.72801e-05
9.71707e-06
-2.73654e-05
1.1987e-05
-2.76098e-05
1.39232e-05
-2.95365e-05
1.75029e-05
-3.0333e-05
2.29289e-05
-3.55661e-05
2.90783e-05
-3.69504e-05
3.71261e-05
-3.74074e-05
4.46867e-05
-3.38927e-05
5.08973e-05
-2.92542e-05
5.55385e-05
-2.03223e-05
5.95708e-05
-1.52041e-05
5.98304e-05
-4.26801e-06
5.59518e-05
5.54722e-06
5.41768e-05
1.76386e-05
5.40077e-05
2.69573e-05
3.46604e-05
3.36606e-05
5.02116e-05
8.26138e-06
4.82532e-05
2.29317e-06
4.5449e-05
7.26671e-07
-5.09924e-06
5.16531e-05
2.72191e-06
-3.0578e-05
5.23908e-06
-3.06286e-05
7.21184e-06
-2.97819e-05
8.73891e-06
-2.92792e-05
1.01921e-05
-2.93098e-05
1.1818e-05
-3.12767e-05
1.48048e-05
-3.34195e-05
2.07697e-05
-4.16204e-05
2.96214e-05
-4.57956e-05
3.90392e-05
-4.673e-05
4.62918e-05
-4.10109e-05
5.03303e-05
-3.31815e-05
5.33619e-05
-2.32535e-05
5.49544e-05
-1.67231e-05
5.72192e-05
-6.40002e-06
6.03635e-05
2.6e-06
6.50779e-05
1.34826e-05
6.93329e-05
2.33903e-05
4.93762e-05
3.34629e-05
5.31521e-05
2.13555e-05
6.92309e-05
1.44069e-06
8.21959e-05
-1.58619e-05
-2.17685e-05
8.87089e-05
2.85187e-06
-6.07882e-05
5.03079e-06
-5.97952e-05
6.24799e-06
-5.65752e-05
6.1053e-06
-5.21289e-05
5.46879e-06
-4.61141e-05
6.9723e-06
-4.08779e-05
1.02108e-05
-3.86332e-05
1.47275e-05
-4.74162e-05
2.44342e-05
-5.77284e-05
3.28829e-05
-5.91067e-05
3.78341e-05
-4.89645e-05
4.16205e-05
-3.94989e-05
4.63685e-05
-3.04824e-05
4.98709e-05
-2.29615e-05
5.51533e-05
-1.44872e-05
5.94256e-05
-4.41063e-06
6.43711e-05
6.22745e-06
7.08472e-05
1.56671e-05
7.87103e-05
2.30938e-05
5.34666e-05
2.27605e-05
7.8164e-05
6.97168e-06
0.000102104
-1.81573e-05
-2.75703e-05
0.000115785
5.2051e-06
-0.000163212
9.50204e-06
-0.000160571
1.36344e-05
-0.000153715
1.61705e-05
-0.000142043
1.4426e-05
-0.000125866
5.68516e-06
-0.000106104
-7.22024e-06
-8.72388e-05
-1.1634e-05
-9.13243e-05
-1.47741e-05
-0.000102738
-1.281e-05
-8.62338e-05
-1.05304e-05
-6.01783e-05
-1.0528e-05
-4.36051e-05
-1.16437e-05
-3.19566e-05
-9.68092e-06
-2.64778e-05
-2.0451e-06
-2.3036e-05
1.1059e-05
-1.82113e-05
2.73408e-05
-1.1168e-05
4.42403e-05
-4.20454e-06
5.85985e-05
6.48774e-06
7.63047e-05
4.62491e-07
6.89687e-05
7.75797e-06
9.89799e-05
-5.1967e-06
-1.26872e-05
0.000124495
3.41285e-06
-5.07318e-05
5.30287e-06
-4.79445e-05
7.23059e-06
-4.71788e-05
9.14772e-06
-4.53938e-05
1.6337e-05
-5.34389e-05
2.21029e-05
-9.0488e-05
-2.22052e-07
-0.00011555
-5.08977e-05
-0.000121592
-8.51105e-05
-0.000131323
-8.64509e-05
-0.000112093
-7.73157e-05
-9.59157e-05
-7.00667e-05
-8.2953e-05
-6.50741e-05
-6.57041e-05
-6.07548e-05
-5.15973e-05
-5.50274e-05
-4.23145e-05
-4.61498e-05
-3.3724e-05
-3.06017e-05
-2.82746e-05
-9.71871e-06
-2.35198e-05
1.25974e-05
-1.49144e-05
3.46437e-05
-2.06466e-05
5.22136e-05
-1.29064e-05
6.1991e-05
-1.90586e-05
-1.83268e-05
7.88496e-05
1.07973e-06
-4.1008e-05
6.82212e-06
-4.25538e-05
1.83366e-05
-4.53434e-05
4.07521e-05
-4.98996e-05
7.99561e-05
-6.11526e-05
0.000111966
-6.57402e-05
5.26695e-05
5.01878e-06
-2.869e-05
5.01931e-05
-9.03001e-05
2.01725e-05
-9.93172e-05
-5.98904e-05
-8.63903e-05
-7.0628e-05
-7.14668e-05
-8.57441e-05
-6.20516e-05
-0.000102435
-5.52438e-05
-0.000127939
-4.96861e-05
-0.000114401
-4.3851e-05
-9.73982e-05
-3.76222e-05
-8.78117e-05
-3.24338e-05
-8.06613e-05
-2.51738e-05
-7.01595e-05
-1.69568e-05
-7.29233e-05
2.34888e-07
-5.84156e-05
1.9748e-05
-6.19012e-05
-5.10446e-05
3.93526e-05
-1.66555e-05
-2.43486e-05
-2.82198e-05
-3.09876e-05
-3.57992e-05
-3.77642e-05
-3.81455e-05
-4.75534e-05
-3.93785e-05
-5.99218e-05
-4.12611e-05
-6.38899e-05
-8.23044e-06
-2.5326e-05
5.58174e-05
3.68978e-05
8.78768e-05
2.11652e-05
7.52077e-05
-2.60674e-05
5.56112e-05
-4.53447e-05
4.57934e-05
-5.10005e-05
2.55046e-05
-1.95275e-05
-1.42553e-05
-4.00899e-06
-3.08195e-05
-2.44697e-05
-2.74473e-05
-4.9362e-05
-1.86718e-05
-5.58283e-05
-1.2544e-05
-5.95838e-05
-8.17148e-06
-8.27295e-05
-8.2258e-06
-7.28375e-05
5.88614e-07
-0.000120191
1.44593e-05
-0.000156055
-0.00014736
2.65054e-05
-1.24731e-06
-2.30979e-05
-2.59171e-06
-2.96418e-05
-4.0301e-06
-3.63259e-05
-6.84831e-06
-4.47362e-05
-1.37973e-05
-5.29733e-05
-2.14775e-05
-5.62109e-05
-1.29852e-05
-3.38191e-05
2.6477e-05
-2.56488e-06
1.72842e-05
3.03626e-05
-1.97784e-05
1.09954e-05
-3.25902e-05
-3.25327e-05
-2.88142e-05
-5.47799e-05
3.67217e-06
-5.19285e-05
5.25204e-05
-4.95949e-05
9.38042e-05
-5.11732e-05
0.000117504
-5.03617e-05
0.000122761
-4.35059e-05
0.000134831
-4.91722e-05
0.000138292
-3.54388e-05
0.000135231
-1.59333e-05
0.000108875
-9.07098e-06
9.26624e-05
-3.76187e-05
-4.81144e-05
8.09535e-05
-1.16567e-06
-2.19304e-05
-1.97249e-06
-2.88342e-05
-3.25649e-06
-3.50418e-05
-6.11618e-06
-4.1877e-05
-1.1758e-05
-4.73323e-05
-1.94816e-05
-4.84879e-05
-1.44023e-05
-3.88992e-05
1.6114e-05
-3.30822e-05
4.36876e-05
2.78761e-06
3.52245e-05
1.94581e-05
2.45147e-05
-2.1823e-05
2.6742e-05
-5.70063e-05
3.11964e-05
-5.63821e-05
3.52927e-05
-5.36897e-05
3.66284e-05
-5.25078e-05
3.86362e-05
-5.23681e-05
4.09877e-05
-4.58589e-05
3.36183e-05
-4.18048e-05
3.05301e-05
-3.23521e-05
4.08556e-05
-2.62584e-05
7.25456e-05
-4.03656e-05
9.04976e-05
-5.35114e-05
-5.38416e-05
0.000100442
-9.9118e-07
-2.09376e-05
-1.18576e-06
-2.86388e-05
-2.18908e-06
-3.40384e-05
-4.62191e-06
-3.94443e-05
-8.85811e-06
-4.30961e-05
-1.39934e-05
-4.33525e-05
-1.43587e-05
-3.85338e-05
-1.34846e-05
-3.39567e-05
2.72438e-06
-1.34218e-05
2.52431e-05
-3.06141e-06
3.32695e-05
-2.98493e-05
2.89793e-05
-5.27156e-05
3.09145e-05
-5.83162e-05
3.76736e-05
-6.04479e-05
4.49676e-05
-5.98008e-05
4.89325e-05
-5.63338e-05
5.38569e-05
-5.07851e-05
5.60473e-05
-4.39993e-05
5.63314e-05
-3.26407e-05
5.32353e-05
-2.31655e-05
4.1559e-05
-2.86891e-05
3.23557e-05
-4.43128e-05
-4.63021e-05
2.48275e-05
2.87802e-06
-2.38151e-05
4.15164e-06
-2.99119e-05
3.61479e-06
-3.35013e-05
1.01875e-06
-3.6848e-05
-3.14108e-06
-3.8936e-05
-7.69805e-06
-3.8795e-05
-9.7419e-06
-3.64895e-05
-1.12327e-05
-3.24656e-05
-1.12667e-07
-2.45417e-05
1.52367e-05
-1.84108e-05
2.0298e-05
-3.49104e-05
1.58183e-05
-4.82355e-05
1.0971e-05
-5.34683e-05
7.85263e-06
-5.7329e-05
6.5559e-06
-5.85038e-05
6.05146e-06
-5.58303e-05
6.14473e-06
-5.08812e-05
8.05421e-06
-4.59129e-05
1.49333e-05
-3.95238e-05
2.57867e-05
-3.40223e-05
2.97018e-05
-3.26066e-05
2.12186e-05
-3.58302e-05
-3.6608e-05
1.15283e-05
2.1344e-06
-2.59486e-05
3.62736e-06
-3.14043e-05
3.73774e-06
-3.36113e-05
2.06651e-06
-3.51764e-05
-9.94318e-07
-3.58747e-05
-4.33334e-06
-3.54554e-05
-6.58259e-06
-3.42396e-05
-7.11442e-06
-3.19332e-05
-1.94099e-06
-2.97148e-05
6.90084e-06
-2.72523e-05
7.9694e-06
-3.59788e-05
2.74119e-06
-4.30068e-05
-1.93392e-06
-4.87926e-05
-5.80283e-06
-5.34593e-05
-9.43619e-06
-5.48703e-05
-1.30948e-05
-5.21729e-05
-1.58742e-05
-4.81041e-05
-1.79158e-05
-4.38751e-05
-1.90764e-05
-3.83664e-05
-1.82315e-05
-3.48712e-05
-1.61328e-05
-3.47068e-05
-1.49332e-05
-3.70328e-05
-3.78004e-05
-1.37344e-05
1.5411e-06
-2.74893e-05
2.48807e-06
-3.23508e-05
2.2555e-06
-3.33782e-05
8.56815e-07
-3.37772e-05
-1.25419e-06
-3.37631e-05
-3.24651e-06
-3.34624e-05
-4.66205e-06
-3.28233e-05
-4.71429e-06
-3.18802e-05
-2.93279e-06
-3.14957e-05
2.74934e-07
-3.04596e-05
-6.94125e-07
-3.50093e-05
-4.6692e-06
-3.90313e-05
-8.92284e-06
-4.45386e-05
-1.33903e-05
-4.89914e-05
-1.7876e-05
-5.03849e-05
-2.1504e-05
-4.85454e-05
-2.41288e-05
-4.54822e-05
-2.54885e-05
-4.25171e-05
-2.53184e-05
-3.85406e-05
-2.36695e-05
-3.65223e-05
-2.20312e-05
-3.63481e-05
-2.2088e-05
-3.6977e-05
-3.64647e-05
-2.34206e-05
6.96161e-07
-2.81848e-05
6.1472e-07
-3.22687e-05
-2.34029e-07
-3.25289e-05
-1.24794e-06
-3.27628e-05
-2.1445e-06
-3.28659e-05
-2.92416e-06
-3.26821e-05
-3.44617e-06
-3.23007e-05
-3.27052e-06
-3.20553e-05
-2.66913e-06
-3.20965e-05
-1.53482e-06
-3.15934e-05
-2.85763e-06
-3.36861e-05
-5.91687e-06
-3.59718e-05
-1.04614e-05
-3.99936e-05
-1.55683e-05
-4.38844e-05
-2.02044e-05
-4.57486e-05
-2.33325e-05
-4.54179e-05
-2.52198e-05
-4.35951e-05
-2.57878e-05
-4.19521e-05
-2.5291e-05
-3.90379e-05
-2.44335e-05
-3.73829e-05
-2.37878e-05
-3.69949e-05
-2.38201e-05
-3.69459e-05
-3.58542e-05
-2.44274e-05
2.63199e-08
-2.82108e-05
-4.69676e-07
-3.17723e-05
-1.12923e-06
-3.18688e-05
-1.77513e-06
-3.21164e-05
-2.32016e-06
-3.23203e-05
-2.65252e-06
-3.23492e-05
-2.65879e-06
-3.22939e-05
-2.44889e-06
-3.22647e-05
-2.23767e-06
-3.23073e-05
-1.80439e-06
-3.20263e-05
-2.484e-06
-3.30062e-05
-3.83005e-06
-3.46254e-05
-6.59743e-06
-3.7226e-05
-1.10111e-05
-3.94706e-05
-1.56506e-05
-4.11081e-05
-1.8942e-05
-4.21262e-05
-2.07055e-05
-4.18322e-05
-2.16705e-05
-4.09859e-05
-2.198e-05
-3.87304e-05
-2.28999e-05
-3.64628e-05
-2.40103e-05
-3.58858e-05
-2.49704e-05
-3.59863e-05
-3.51371e-05
-2.56852e-05
-2.16293e-07
-2.79936e-05
-6.72094e-07
-3.13159e-05
-1.08405e-06
-3.14564e-05
-1.46329e-06
-3.17367e-05
-1.85616e-06
-3.1927e-05
-2.12466e-06
-3.20802e-05
-2.25467e-06
-3.21634e-05
-2.23944e-06
-3.22795e-05
-2.25822e-06
-3.22881e-05
-1.97688e-06
-3.23073e-05
-2.15841e-06
-3.28244e-05
-2.73696e-06
-3.40466e-05
-4.32205e-06
-3.56407e-05
-6.86502e-06
-3.69269e-05
-9.69412e-06
-3.82794e-05
-1.26663e-05
-3.91525e-05
-1.53942e-05
-3.91026e-05
-1.79177e-05
-3.84639e-05
-1.932e-05
-3.73272e-05
-2.06374e-05
-3.51472e-05
-2.28187e-05
-3.3705e-05
-2.51138e-05
-3.36914e-05
-3.35153e-05
-2.67345e-05
-2.76436e-07
-2.77167e-05
-5.27219e-07
-3.10645e-05
-7.97324e-07
-3.11856e-05
-1.16634e-06
-3.1367e-05
-1.66405e-06
-3.14286e-05
-2.16985e-06
-3.15738e-05
-2.64374e-06
-3.16889e-05
-3.07389e-06
-3.18488e-05
-3.34468e-06
-3.20168e-05
-3.30496e-06
-3.23466e-05
-3.30342e-06
-3.28255e-05
-3.72468e-06
-3.3625e-05
-5.02612e-06
-3.4339e-05
-6.70761e-06
-3.52456e-05
-8.90521e-06
-3.60799e-05
-1.19989e-05
-3.60588e-05
-1.5011e-05
-3.60899e-05
-1.74861e-05
-3.59885e-05
-1.95783e-05
-3.52345e-05
-2.14786e-05
-3.32465e-05
-2.38514e-05
-3.13317e-05
-2.60255e-05
-3.15165e-05
-3.19275e-05
-2.76111e-05
-2.1216e-07
-2.7504e-05
-5.53062e-07
-3.07231e-05
-1.01935e-06
-3.07189e-05
-1.59819e-06
-3.07877e-05
-2.18988e-06
-3.08366e-05
-2.86632e-06
-3.0897e-05
-3.50707e-06
-3.10479e-05
-4.12613e-06
-3.12295e-05
-4.66526e-06
-3.14775e-05
-5.07781e-06
-3.19338e-05
-5.50341e-06
-3.23997e-05
-6.24428e-06
-3.28839e-05
-7.25803e-06
-3.3325e-05
-8.58552e-06
-3.39177e-05
-1.05548e-05
-3.41112e-05
-1.28001e-05
-3.38126e-05
-1.49393e-05
-3.39506e-05
-1.7011e-05
-3.39165e-05
-1.90755e-05
-3.31694e-05
-2.06968e-05
-3.16246e-05
-2.21238e-05
-2.99037e-05
-2.36065e-05
-3.00326e-05
-3.04195e-05
-2.51123e-05
-2.86717e-07
-2.7217e-05
-7.80287e-07
-3.02292e-05
-1.31746e-06
-3.01814e-05
-1.80718e-06
-3.02977e-05
-2.29775e-06
-3.03458e-05
-2.79965e-06
-3.03949e-05
-3.34926e-06
-3.04982e-05
-3.99411e-06
-3.05845e-05
-4.71254e-06
-3.0759e-05
-5.47577e-06
-3.11706e-05
-6.31338e-06
-3.1562e-05
-7.31378e-06
-3.18834e-05
-8.58105e-06
-3.20577e-05
-1.00571e-05
-3.24421e-05
-1.16601e-05
-3.25074e-05
-1.30358e-05
-3.24376e-05
-1.47157e-05
-3.22704e-05
-1.68332e-05
-3.17987e-05
-1.89697e-05
-3.10322e-05
-2.08671e-05
-2.97263e-05
-2.23676e-05
-2.84021e-05
-2.37629e-05
-2.86359e-05
-2.90993e-05
-2.50809e-05
-4.03558e-07
-2.68131e-05
-8.1906e-07
-2.98134e-05
-1.19372e-06
-2.98065e-05
-1.62041e-06
-2.98708e-05
-2.07081e-06
-2.98952e-05
-2.54268e-06
-2.9923e-05
-3.06669e-06
-2.99741e-05
-3.61906e-06
-3.00322e-05
-4.22128e-06
-3.01568e-05
-5.09172e-06
-3.03001e-05
-6.05176e-06
-3.0602e-05
-7.08985e-06
-3.08454e-05
-8.25837e-06
-3.08893e-05
-9.71245e-06
-3.09878e-05
-1.11812e-05
-3.10394e-05
-1.25932e-05
-3.10252e-05
-1.41146e-05
-3.0749e-05
-1.58027e-05
-3.01104e-05
-1.73736e-05
-2.94606e-05
-1.87461e-05
-2.83529e-05
-1.98832e-05
-2.72638e-05
-2.13551e-05
-2.71626e-05
-2.72281e-05
-2.32244e-05
-3.22775e-07
-2.64902e-05
-7.60617e-07
-2.93754e-05
-1.23098e-06
-2.9336e-05
-1.74508e-06
-2.93566e-05
-2.26489e-06
-2.93754e-05
-2.76976e-06
-2.94181e-05
-3.27336e-06
-2.94706e-05
-3.76777e-06
-2.95378e-05
-4.31827e-06
-2.96064e-05
-4.96391e-06
-2.96546e-05
-5.83284e-06
-2.97331e-05
-6.87034e-06
-2.98079e-05
-7.82102e-06
-2.99387e-05
-8.95335e-06
-2.98559e-05
-1.02684e-05
-2.9724e-05
-1.18921e-05
-2.94022e-05
-1.37285e-05
-2.89125e-05
-1.52768e-05
-2.85618e-05
-1.66928e-05
-2.80439e-05
-1.81466e-05
-2.68983e-05
-1.93533e-05
-2.60558e-05
-2.06582e-05
-2.58565e-05
-2.52946e-05
-2.25896e-05
-4.57137e-07
-2.60328e-05
-9.725e-07
-2.88599e-05
-1.46945e-06
-2.88389e-05
-1.96438e-06
-2.88616e-05
-2.46985e-06
-2.88699e-05
-3.00966e-06
-2.88783e-05
-3.58549e-06
-2.88948e-05
-4.1798e-06
-2.89436e-05
-4.78419e-06
-2.90021e-05
-5.49889e-06
-2.894e-05
-6.47048e-06
-2.87616e-05
-7.47565e-06
-2.88028e-05
-8.53927e-06
-2.88752e-05
-9.63517e-06
-2.87599e-05
-1.07874e-05
-2.85727e-05
-1.19547e-05
-2.82346e-05
-1.29988e-05
-2.78686e-05
-1.42093e-05
-2.7351e-05
-1.5672e-05
-2.65806e-05
-1.69441e-05
-2.56253e-05
-1.81025e-05
-2.48963e-05
-1.96115e-05
-2.43461e-05
-2.3484e-05
-2.14205e-05
-3.27541e-07
-2.57053e-05
-7.49412e-07
-2.8438e-05
-1.20267e-06
-2.83856e-05
-1.68334e-06
-2.8381e-05
-2.18564e-06
-2.83676e-05
-2.7062e-06
-2.83578e-05
-3.25644e-06
-2.83447e-05
-3.87503e-06
-2.83252e-05
-4.61053e-06
-2.82667e-05
-5.36439e-06
-2.81862e-05
-6.01556e-06
-2.81105e-05
-6.76043e-06
-2.8058e-05
-7.81103e-06
-2.78247e-05
-8.94361e-06
-2.76279e-05
-1.00519e-05
-2.74641e-05
-1.1151e-05
-2.71362e-05
-1.24359e-05
-2.65837e-05
-1.39474e-05
-2.58393e-05
-1.52543e-05
-2.52731e-05
-1.6256e-05
-2.46228e-05
-1.73722e-05
-2.37789e-05
-1.88333e-05
-2.2884e-05
-2.20152e-05
-2.03003e-05
-4.1762e-07
-2.52875e-05
-8.96281e-07
-2.79593e-05
-1.37439e-06
-2.79075e-05
-1.87546e-06
-2.78799e-05
-2.4073e-06
-2.78358e-05
-2.97528e-06
-2.77899e-05
-3.56661e-06
-2.77534e-05
-4.18786e-06
-2.77041e-05
-4.83321e-06
-2.76215e-05
-5.49907e-06
-2.75204e-05
-6.20942e-06
-2.74002e-05
-7.04152e-06
-2.7226e-05
-7.84876e-06
-2.70176e-05
-8.80104e-06
-2.66755e-05
-1.00446e-05
-2.62214e-05
-1.11987e-05
-2.59818e-05
-1.22249e-05
-2.55577e-05
-1.31022e-05
-2.49618e-05
-1.40673e-05
-2.43075e-05
-1.52142e-05
-2.34751e-05
-1.64954e-05
-2.24967e-05
-1.77599e-05
-2.16183e-05
-2.07416e-05
-1.90322e-05
-3.89981e-07
-2.48977e-05
-8.36847e-07
-2.75124e-05
-1.27655e-06
-2.74678e-05
-1.71596e-06
-2.74405e-05
-2.15712e-06
-2.73947e-05
-2.62038e-06
-2.73268e-05
-3.13401e-06
-2.72399e-05
-3.70079e-06
-2.71374e-05
-4.32166e-06
-2.70008e-05
-5.04324e-06
-2.6799e-05
-5.89299e-06
-2.65505e-05
-6.80612e-06
-2.63129e-05
-7.70978e-06
-2.61141e-05
-8.55675e-06
-2.5829e-05
-9.23031e-06
-2.55476e-05
-1.00896e-05
-2.51232e-05
-1.11211e-05
-2.45262e-05
-1.22808e-05
-2.38019e-05
-1.35711e-05
-2.30167e-05
-1.47067e-05
-2.23389e-05
-1.56182e-05
-2.15842e-05
-1.66169e-05
-2.06188e-05
-1.95188e-05
-1.78381e-05
-3.87875e-07
-2.45096e-05
-8.37483e-07
-2.70628e-05
-1.2972e-06
-2.70081e-05
-1.78531e-06
-2.69525e-05
-2.30423e-06
-2.68759e-05
-2.84383e-06
-2.67873e-05
-3.40097e-06
-2.66829e-05
-3.98573e-06
-2.65528e-05
-4.59083e-06
-2.63958e-05
-5.17086e-06
-2.6219e-05
-5.71475e-06
-2.60067e-05
-6.3065e-06
-2.57212e-05
-7.05027e-06
-2.53704e-05
-7.89468e-06
-2.49845e-05
-8.93372e-06
-2.45094e-05
-1.0054e-05
-2.40027e-05
-1.10449e-05
-2.35355e-05
-1.191e-05
-2.29367e-05
-1.2651e-05
-2.22752e-05
-1.35084e-05
-2.14808e-05
-1.45802e-05
-2.05116e-05
-1.5644e-05
-1.95541e-05
-1.85561e-05
-1.66056e-05
-3.53e-07
-2.41568e-05
-7.49486e-07
-2.66664e-05
-1.14311e-06
-2.66145e-05
-1.54756e-06
-2.65481e-05
-1.97025e-06
-2.64532e-05
-2.42617e-06
-2.63315e-05
-2.92756e-06
-2.61816e-05
-3.4766e-06
-2.60039e-05
-4.07665e-06
-2.57958e-05
-4.74816e-06
-2.55476e-05
-5.50396e-06
-2.5251e-05
-6.29793e-06
-2.49273e-05
-7.06861e-06
-2.45998e-05
-7.8286e-06
-2.4225e-05
-8.52763e-06
-2.381e-05
-9.17904e-06
-2.3352e-05
-9.94823e-06
-2.27663e-05
-1.08222e-05
-2.20625e-05
-1.18338e-05
-2.12632e-05
-1.28544e-05
-2.04597e-05
-1.36989e-05
-1.96662e-05
-1.45372e-05
-1.87151e-05
-1.76445e-05
-1.54476e-05
-3.59742e-07
-2.37969e-05
-7.68437e-07
-2.62577e-05
-1.17876e-06
-2.62042e-05
-1.60576e-06
-2.61212e-05
-2.04941e-06
-2.60097e-05
-2.51055e-06
-2.58704e-05
-2.99098e-06
-2.57013e-05
-3.49363e-06
-2.55013e-05
-4.01843e-06
-2.52711e-05
-4.55495e-06
-2.50111e-05
-5.09564e-06
-2.47103e-05
-5.66342e-06
-2.43595e-05
-6.29373e-06
-2.39696e-05
-6.9867e-06
-2.35319e-05
-7.76168e-06
-2.30358e-05
-8.64054e-06
-2.24729e-05
-9.53659e-06
-2.18704e-05
-1.03709e-05
-2.12282e-05
-1.11109e-05
-2.05229e-05
-1.18524e-05
-1.97176e-05
-1.2691e-05
-1.88271e-05
-1.35211e-05
-1.78841e-05
-1.68573e-05
-1.43074e-05
-3.11439e-07
-2.34857e-05
-6.59023e-07
-2.59102e-05
-1.00976e-06
-2.58536e-05
-1.37967e-06
-2.57513e-05
-1.77415e-06
-2.56153e-05
-2.19948e-06
-2.54452e-05
-2.65886e-06
-2.52421e-05
-3.15192e-06
-2.50084e-05
-3.67826e-06
-2.47449e-05
-4.23881e-06
-2.44506e-05
-4.83198e-06
-2.41172e-05
-5.45574e-06
-2.37358e-05
-6.1036e-06
-2.33218e-05
-6.76378e-06
-2.28721e-05
-7.42647e-06
-2.23727e-05
-8.07936e-06
-2.18207e-05
-8.74586e-06
-2.12039e-05
-9.46469e-06
-2.05093e-05
-1.02408e-05
-1.97464e-05
-1.10192e-05
-1.89387e-05
-1.17594e-05
-1.80862e-05
-1.2486e-05
-1.71571e-05
-1.61389e-05
-1.32033e-05
-2.94176e-07
-2.31914e-05
-6.26033e-07
-2.55783e-05
-9.59684e-07
-2.552e-05
-1.3103e-06
-2.54008e-05
-1.67835e-06
-2.52473e-05
-2.06696e-06
-2.50567e-05
-2.47958e-06
-2.48295e-05
-2.91871e-06
-2.45693e-05
-3.3884e-06
-2.42753e-05
-3.89256e-06
-2.39465e-05
-4.41942e-06
-2.35903e-05
-4.95728e-06
-2.31979e-05
-5.52025e-06
-2.27589e-05
-6.1207e-06
-2.22715e-05
-6.75605e-06
-2.17382e-05
-7.42275e-06
-2.11536e-05
-8.10994e-06
-2.0517e-05
-8.79026e-06
-1.98289e-05
-9.45428e-06
-1.90822e-05
-1.01212e-05
-1.82713e-05
-1.08035e-05
-1.74035e-05
-1.14777e-05
-1.64821e-05
-1.54886e-05
-1.21274e-05
-2.46622e-07
-2.2945e-05
-5.34224e-07
-2.52908e-05
-8.25087e-07
-2.52292e-05
-1.13393e-06
-2.5092e-05
-1.46263e-06
-2.49187e-05
-1.81554e-06
-2.47039e-05
-2.19785e-06
-2.44473e-05
-2.60979e-06
-2.41575e-05
-3.04863e-06
-2.38365e-05
-3.5121e-06
-2.34831e-05
-4.00615e-06
-2.30963e-05
-4.53022e-06
-2.26739e-05
-5.07424e-06
-2.22149e-05
-5.63203e-06
-2.17142e-05
-6.20471e-06
-2.1165e-05
-6.7907e-06
-2.05683e-05
-7.38745e-06
-1.99202e-05
-7.99943e-06
-1.92168e-05
-8.62319e-06
-1.84583e-05
-9.24799e-06
-1.76462e-05
-9.86722e-06
-1.67838e-05
-1.04793e-05
-1.58697e-05
-1.48934e-05
-1.10735e-05
-2.0004e-07
-2.27448e-05
-4.50428e-07
-2.50404e-05
-7.04241e-07
-2.49754e-05
-9.74337e-07
-2.4822e-05
-1.26034e-06
-2.46328e-05
-1.56493e-06
-2.43994e-05
-1.89519e-06
-2.41171e-05
-2.25601e-06
-2.37968e-05
-2.65129e-06
-2.34413e-05
-3.08157e-06
-2.30528e-05
-3.541e-06
-2.26368e-05
-4.02282e-06
-2.21921e-05
-4.5248e-06
-2.1713e-05
-5.04475e-06
-2.11941e-05
-5.58177e-06
-2.06287e-05
-6.12932e-06
-2.00205e-05
-6.68551e-06
-1.93642e-05
-7.24604e-06
-1.86564e-05
-7.80782e-06
-1.78963e-05
-8.37074e-06
-1.70831e-05
-8.93481e-06
-1.62193e-05
-9.4949e-06
-1.53091e-05
-1.43472e-05
-1.00406e-05
-1.50583e-07
-2.25945e-05
-3.72566e-07
-2.48186e-05
-5.98847e-07
-2.47492e-05
-8.36573e-07
-2.45843e-05
-1.08424e-06
-2.43852e-05
-1.33758e-06
-2.41461e-05
-1.59254e-06
-2.38623e-05
-1.86351e-06
-2.35259e-05
-2.16786e-06
-2.3137e-05
-2.52023e-06
-2.27005e-05
-2.92898e-06
-2.22281e-05
-3.39044e-06
-2.17306e-05
-3.88779e-06
-2.12157e-05
-4.40334e-06
-2.06788e-05
-4.91918e-06
-2.01124e-05
-5.43625e-06
-1.95041e-05
-5.95169e-06
-1.88488e-05
-6.46753e-06
-1.81406e-05
-6.98258e-06
-1.73812e-05
-7.49634e-06
-1.65691e-05
-8.00908e-06
-1.57063e-05
-8.52011e-06
-1.47979e-05
-1.3844e-05
-9.02264e-06
-9.40567e-08
-2.25003e-05
-3.20389e-07
-2.45922e-05
-5.46662e-07
-2.4523e-05
-7.73904e-07
-2.43571e-05
-1.00577e-06
-2.41534e-05
-1.24229e-06
-2.39097e-05
-1.4792e-06
-2.36254e-05
-1.71765e-06
-2.32875e-05
-1.96202e-06
-2.28927e-05
-2.21731e-06
-2.24452e-05
-2.49596e-06
-2.19495e-05
-2.81322e-06
-2.14134e-05
-3.18598e-06
-2.0843e-05
-3.63036e-06
-2.02343e-05
-4.12786e-06
-1.96157e-05
-4.64828e-06
-1.89833e-05
-5.16654e-06
-1.83309e-05
-5.66331e-06
-1.7644e-05
-6.145e-06
-1.68996e-05
-6.61738e-06
-1.60967e-05
-7.0852e-06