/*--------------------------------*- C++ -*----------------------------------*\
| =========                 |                                                 |
| \\      /  F ield         | OpenFOAM: The Open Source CFD Toolbox           |
|  \\    /   O peration     | Version:  2.4.0                                 |
|   \\  /    A nd           | Web:      www.OpenFOAM.org                      |
|    \\/     M anipulation  |                                                 |
\*---------------------------------------------------------------------------*/
FoamFile
{
    version     2.0;
    format      ascii;
    class       volVectorField;
    location    "0.45";
    object      U.air;
}
// * * * * * * * * * * * * * * * * * * * * * * * * * * * * * * * * * * * * * //

dimensions      [0 1 -1 0 0 0 0];

internalField   nonuniform List<vector> 
2268
(
(0.0176477 -0.00805293 0)
(0.0503185 -0.00830135 0)
(0.0871813 -0.00714656 0)
(0.115841 -0.0100716 0)
(0.162559 -0.00637108 0)
(0.181727 -0.0082612 0)
(0.221138 -0.00964762 0)
(0.266996 -0.00874705 0)
(0.297842 -0.00584495 0)
(0.315412 -0.00600742 0)
(0.343683 -0.00824784 0)
(0.387992 -0.00856015 0)
(0.413009 -0.00556255 0)
(0.441234 -0.00420335 0)
(0.446362 -0.00118631 0)
(0.438125 0.00149177 0)
(0.415633 0.00820161 0)
(0.374515 0.00573622 0)
(0.328906 0.0143353 0)
(0.265011 0.00885077 0)
(0.209808 0.0237839 0)
(0.10647 0.0227307 0)
(0.00838803 0.010837 0)
(0.0176973 -0.0242072 0)
(0.0501672 -0.0251598 0)
(0.0880321 -0.0210037 0)
(0.115377 -0.0314207 0)
(0.161561 -0.0178238 0)
(0.182779 -0.0248558 0)
(0.223068 -0.0309053 0)
(0.265846 -0.0242315 0)
(0.295957 -0.0200573 0)
(0.316788 -0.0162806 0)
(0.352752 -0.025077 0)
(0.390457 -0.0270149 0)
(0.415986 -0.0210042 0)
(0.436025 -0.0108309 0)
(0.446293 0.00440157 0)
(0.44132 0.0175257 0)
(0.420073 0.0269623 0)
(0.387265 0.0414081 0)
(0.332137 0.0422584 0)
(0.285742 0.0476907 0)
(0.193428 0.0481678 0)
(0.128208 0.0653581 0)
(0.00984703 0.0424049 0)
(0.0176964 -0.0407024 0)
(0.0501444 -0.0420879 0)
(0.0883451 -0.0363078 0)
(0.115921 -0.0498341 0)
(0.15874 -0.033004 0)
(0.187487 -0.0422302 0)
(0.223382 -0.0485163 0)
(0.263241 -0.0402111 0)
(0.290688 -0.033772 0)
(0.321708 -0.0323924 0)
(0.366316 -0.0436501 0)
(0.392029 -0.0391638 0)
(0.410709 -0.0307193 0)
(0.433475 -0.0211246 0)
(0.447758 -0.012412 0)
(0.451936 0.0079078 0)
(0.435802 0.0265675 0)
(0.406187 0.0469007 0)
(0.344382 0.0633355 0)
(0.294908 0.0749063 0)
(0.209371 0.0897919 0)
(0.149408 0.104788 0)
(0.0600746 0.0903347 0)
(0.0177096 -0.0550586 0)
(0.0501819 -0.0564495 0)
(0.0883465 -0.0501394 0)
(0.116941 -0.0647046 0)
(0.156713 -0.0463244 0)
(0.189863 -0.0567228 0)
(0.224162 -0.0627834 0)
(0.262572 -0.0514616 0)
(0.285409 -0.0486508 0)
(0.333452 -0.0486037 0)
(0.369095 -0.0519512 0)
(0.386082 -0.0413111 0)
(0.410304 -0.0306142 0)
(0.430504 -0.0139336 0)
(0.442908 0.0084755 0)
(0.46688 0.0415043 0)
(0.46594 0.0691602 0)
(0.43441 0.0927526 0)
(0.372388 0.0967349 0)
(0.28101 0.106684 0)
(0.179534 0.114392 0)
(0.122334 0.13292 0)
(0.035397 0.131037 0)
(0.0178526 -0.0652481 0)
(0.049741 -0.0671408 0)
(0.0889687 -0.0611469 0)
(0.118095 -0.0771823 0)
(0.152564 -0.0598433 0)
(0.194762 -0.0738044 0)
(0.223412 -0.0834156 0)
(0.254697 -0.0706477 0)
(0.293131 -0.0805644 0)
(0.337904 -0.0836157 0)
(0.362072 -0.0952596 0)
(0.389499 -0.0841016 0)
(0.417595 -0.08763 0)
(0.442642 -0.0698528 0)
(0.462558 -0.0559525 0)
(0.481832 -0.025858 0)
(0.473139 0.02864 0)
(0.448182 0.101468 0)
(0.368231 0.158735 0)
(0.297573 0.166676 0)
(0.165295 0.164863 0)
(0.0936089 0.156597 0)
(0.0495268 0.164557 0)
(0.0173273 -0.152112 0)
(0.0479697 -0.154026 0)
(0.0857966 -0.150093 0)
(0.117673 -0.161914 0)
(0.140426 -0.151823 0)
(0.189707 -0.162332 0)
(0.210859 -0.169736 0)
(0.241581 -0.169706 0)
(0.277451 -0.175489 0)
(0.31087 -0.177593 0)
(0.330844 -0.176696 0)
(0.362186 -0.173851 0)
(0.388514 -0.169472 0)
(0.398858 -0.158024 0)
(0.428605 -0.13129 0)
(0.43525 -0.0899177 0)
(0.45125 -0.0161186 0)
(0.434154 0.0763826 0)
(0.349309 0.156318 0)
(0.288262 0.198187 0)
(0.18685 0.20363 0)
(0.0783972 0.202622 0)
(0.0271203 0.210536 0)
(0.013194 -0.173352 0)
(0.0385145 -0.171877 0)
(0.0646438 -0.172499 0)
(0.0929401 -0.160479 0)
(0.101473 -0.163599 0)
(0.126869 -0.148736 0)
(0.149998 -0.114709 0)
(0.159985 -0.0919829 0)
(0.168111 -0.0708318 0)
(0.187367 -0.0438186 0)
(0.197945 -0.0307753 0)
(0.199153 -0.0178022 0)
(0.195624 -0.0153289 0)
(0.188432 -0.0205494 0)
(0.179096 -0.0273988 0)
(0.189751 0.0180693 0)
(0.289616 0.0970916 0)
(0.346713 0.111618 0)
(0.284306 0.171994 0)
(0.244373 0.221412 0)
(0.194837 0.244288 0)
(0.0985714 0.214671 0)
(0.0412035 0.224014 0)
(0.00200606 -0.143016 0)
(0.0106475 -0.144791 0)
(0.0119999 -0.146055 0)
(0.0258059 -0.149186 0)
(0.0307123 -0.150095 0)
(0.0428812 -0.162982 0)
(0.0588289 -0.165448 0)
(0.0763568 -0.167566 0)
(0.108919 -0.171182 0)
(0.135355 -0.165465 0)
(0.157059 -0.150136 0)
(0.170613 -0.134323 0)
(0.181496 -0.112309 0)
(0.18918 -0.0874216 0)
(0.180499 -0.0519725 0)
(0.138845 -0.0470746 0)
(0.134924 -0.0841717 0)
(0.241552 0.0646475 0)
(0.173503 0.173259 0)
(0.152206 0.213117 0)
(0.159606 0.270596 0)
(0.134436 0.262125 0)
(0.0554095 0.28491 0)
(-0.135306 0.063483 0)
(-0.350952 0.0284607 0)
(-0.625137 -0.038951 0)
(-0.748645 -0.135055 0)
(-0.762112 -0.290691 0)
(-0.645456 -0.433047 0)
(-0.531197 -0.515355 0)
(-0.461877 -0.556733 0)
(-0.367374 -0.561452 0)
(-0.232165 -0.533653 0)
(-0.129517 -0.49088 0)
(0.0294684 -0.463453 0)
(0.2165 -0.492173 0)
(0.39246 -0.433692 0)
(0.607304 -0.421524 0)
(0.83928 -0.358069 0)
(0.908497 -0.281175 0)
(0.747595 -0.319395 0)
(0.548431 -0.204277 0)
(-0.101495 0.098274 0)
(-0.265347 0.107792 0)
(-0.468329 0.131221 0)
(-0.56203 0.140834 0)
(-0.588044 0.0975004 0)
(-0.582488 0.0698259 0)
(-0.565077 0.292011 0)
(-0.544119 0.378102 0)
(-0.490232 0.41655 0)
(-0.390744 0.455733 0)
(-0.333958 0.428232 0)
(0.133573 -0.121473 0)
(0.434971 -0.356354 0)
(0.736247 -0.584196 0)
(0.948429 -0.537498 0)
(1.03306 -0.481875 0)
(1.07546 -0.30162 0)
(0.879015 0.0500564 0)
(0.611393 0.228013 0)
(-0.0426794 0.182439 0)
(-0.117122 0.205764 0)
(-0.279195 0.179787 0)
(-0.366656 0.122376 0)
(-0.284192 0.117068 0)
(-0.106635 0.154755 0)
(-0.165441 0.258735 0)
(-0.28215 0.0477901 0)
(-0.293424 -0.0802244 0)
(-0.151176 -0.129076 0)
(-0.16372 -0.201261 0)
(-0.229113 -0.24296 0)
(0.326658 -0.457799 0)
(0.745333 -0.517201 0)
(0.958414 -0.6141 0)
(1.09319 -0.466707 0)
(1.06045 -0.324161 0)
(0.821525 0.00620658 0)
(0.653442 0.323794 0)
(0.0170478 0.219795 0)
(0.018017 0.215 0)
(-0.0493764 0.201644 0)
(-0.0502973 0.159353 0)
(0.296785 0.281402 0)
(0.339762 0.318894 0)
(0.185429 0.193718 0)
(0.285279 0.0196463 0)
(0.348766 0.0889146 0)
(0.440998 0.054393 0)
(0.414857 0.00706892 0)
(0.428668 0.0658784 0)
(0.389984 0.142108 0)
(0.542285 0.0254826 0)
(0.892287 -0.556514 0)
(1.09526 -0.674507 0)
(1.12725 -0.235837 0)
(0.724638 0.0297315 0)
(0.646552 0.393604 0)
(0.0505799 0.15761 0)
(0.143372 0.18596 0)
(0.122834 0.222016 0)
(0.306938 0.0883691 0)
(0.690975 -0.0088618 0)
(0.688439 0.0308397 0)
(0.962784 0.355502 0)
(1.51879 -0.222824 0)
(1.59032 -0.0914855 0)
(1.5352 0.145285 0)
(0.39267 0.522275 0)
(-0.26822 0.325037 0)
(0.525661 -0.218059 0)
(0.687437 -0.0375455 0)
(0.893708 -0.0785501 0)
(1.03026 -0.447905 0)
(1.14105 -0.148285 0)
(0.546628 0.456563 0)
(0.611684 0.567451 0)
(0.125263 0.0101788 0)
(0.262678 0.050469 0)
(0.359799 0.100599 0)
(0.713378 0.00173497 0)
(0.971301 -0.0984329 0)
(0.70049 -0.0922137 0)
(0.678274 -0.0450095 0)
(1.01671 0.228764 0)
(1.32598 -0.0459811 0)
(1.14064 -0.159635 0)
(0.389765 -0.107804 0)
(0.797827 -0.496106 0)
(1.0941 -0.423847 0)
(1.14183 -0.132424 0)
(1.0463 0.218126 0)
(1.04741 -0.691517 0)
(1.135 -0.0641632 0)
(0.558176 0.695302 0)
(0.600535 0.74822 0)
(0.169692 -0.0192936 0)
(0.347699 -0.0545709 0)
(0.506155 -0.0704536 0)
(0.81232 -0.195124 0)
(0.96602 -0.35669 0)
(0.83783 -0.107546 0)
(0.704115 -0.0519177 0)
(0.776247 -0.111121 0)
(1.02594 0.286966 0)
(1.42472 0.338885 0)
(1.71535 0.699025 0)
(1.27589 -0.341947 0)
(1.37297 -0.233833 0)
(1.35696 -0.00432613 0)
(1.17556 -0.0173162 0)
(1.07159 -0.393175 0)
(1.13274 0.0909844 0)
(0.564073 0.867 0)
(0.573572 0.924132 0)
(0.2083 0.155914 0)
(0.468181 -0.0328516 0)
(0.60122 -0.111526 0)
(0.740966 -0.238332 0)
(0.842453 -0.366643 0)
(0.780543 -0.256833 0)
(0.74094 0.0608233 0)
(0.676677 0.0509151 0)
(0.699343 0.00902252 0)
(0.946693 0.326674 0)
(1.52759 0.33622 0)
(1.45413 -0.10117 0)
(1.54741 -0.0885539 0)
(1.4197 0.0018287 0)
(1.21034 -0.034793 0)
(1.03583 0.0768491 0)
(1.03535 0.460083 0)
(0.677786 1.02432 0)
(0.626451 1.06622 0)
(0.0051726 -0.154366 0)
(0.0162603 -0.152606 0)
(0.0269093 -0.150992 0)
(0.0409778 -0.138719 0)
(0.0516299 -0.135532 0)
(0.0710674 -0.131246 0)
(0.0899171 -0.108039 0)
(0.105639 -0.101664 0)
(0.138997 -0.0954855 0)
(0.162502 -0.0772621 0)
(0.184012 -0.0555057 0)
(0.203985 -0.0401516 0)
(0.218558 -0.0175805 0)
(0.230721 -0.00364189 0)
(0.240279 0.0380935 0)
(0.239863 0.089406 0)
(0.209954 0.210139 0)
(0.131799 0.222943 0)
(0.158768 0.229281 0)
(0.0974528 0.218094 0)
(0.0931764 0.239484 0)
(0.148213 0.247723 0)
(0.209533 0.269906 0)
(0.0055928 -0.0954816 0)
(0.0171161 -0.0979998 0)
(0.0287025 -0.0994559 0)
(0.0409451 -0.100632 0)
(0.0545323 -0.104017 0)
(0.0656429 -0.120072 0)
(0.0839366 -0.115763 0)
(0.0967592 -0.135501 0)
(0.128054 -0.147951 0)
(0.147341 -0.147655 0)
(0.169806 -0.141185 0)
(0.202585 -0.137376 0)
(0.208867 -0.114954 0)
(0.218031 -0.095587 0)
(0.208046 -0.0686442 0)
(0.204938 -0.0583051 0)
(0.219346 -0.00522749 0)
(0.202409 0.124588 0)
(0.262493 0.203932 0)
(0.184979 0.260475 0)
(0.120029 0.197024 0)
(0.133127 0.148971 0)
(0.192072 0.164184 0)
(0.00694995 -0.137799 0)
(0.0206018 -0.140632 0)
(0.0338115 -0.143243 0)
(0.0451336 -0.147404 0)
(0.0600481 -0.15246 0)
(0.0671049 -0.166038 0)
(0.0858832 -0.167315 0)
(0.103238 -0.189608 0)
(0.142242 -0.191896 0)
(0.172235 -0.187917 0)
(0.221025 -0.167835 0)
(0.258534 -0.13702 0)
(0.282966 -0.0804316 0)
(0.315716 -0.0499556 0)
(0.311664 0.00891273 0)
(0.334467 0.0763483 0)
(0.29398 0.145558 0)
(0.300313 0.187499 0)
(0.313456 0.243429 0)
(0.378565 0.302163 0)
(0.31921 0.264564 0)
(0.268348 0.138218 0)
(0.269036 0.0388935 0)
(0.00716609 0.0188038 0)
(0.0208238 0.0145461 0)
(0.0330177 0.0095474 0)
(0.0412727 -3.76576e-05 0)
(0.0519307 -0.0145445 0)
(0.0564385 -0.0475238 0)
(0.0737583 -0.118762 0)
(0.0900074 -0.164851 0)
(0.135123 -0.159836 0)
(0.177726 -0.161869 0)
(0.233509 -0.180429 0)
(0.256077 -0.165282 0)
(0.284638 -0.117005 0)
(0.293835 -0.0901972 0)
(0.297927 -0.0408142 0)
(0.324127 -0.00518281 0)
(0.32898 0.0617571 0)
(0.376445 0.118885 0)
(0.380082 0.201932 0)
(0.464228 0.221857 0)
(0.520394 0.293273 0)
(0.575361 0.212789 0)
(0.567789 0.106649 0)
(0.00566887 0.188371 0)
(0.0114096 0.191664 0)
(0.0124373 0.202723 0)
(-0.0011237 0.215761 0)
(-0.0308094 0.219967 0)
(-0.0550848 0.174097 0)
(-0.00723555 0.0577365 0)
(0.0554201 -0.0193622 0)
(0.125448 -0.0173596 0)
(0.170728 0.0204263 0)
(0.20443 -0.0213141 0)
(0.218873 -0.0386815 0)
(0.241752 -0.0424396 0)
(0.264856 -0.0506763 0)
(0.274038 -0.0201129 0)
(0.324194 0.0346932 0)
(0.328125 0.0697103 0)
(0.374518 0.119586 0)
(0.400547 0.146969 0)
(0.475663 0.159918 0)
(0.537445 0.166325 0)
(0.643728 0.124439 0)
(0.711932 0.0737728 0)
(0.0158775 -0.0271232 0)
(0.0339375 -0.0231837 0)
(0.0559042 -0.0112809 0)
(0.068575 0.00322523 0)
(0.0597456 0.0242637 0)
(0.0239109 0.0696124 0)
(-0.0459756 0.167967 0)
(-0.0728617 0.158087 0)
(-0.0731199 0.175332 0)
(-0.110801 0.154916 0)
(-0.108135 0.169607 0)
(-0.132497 0.170494 0)
(-0.10121 0.123453 0)
(-0.0917861 0.0909485 0)
(-0.0515248 0.0580129 0)
(0.0127466 0.045444 0)
(0.0964583 0.0685453 0)
(0.219684 0.0981908 0)
(0.289371 0.13723 0)
(0.366104 0.135424 0)
(0.479768 0.145992 0)
(0.547733 0.0830623 0)
(0.634953 0.0565606 0)
(0.00786515 0.907328 0)
(0.0137197 0.927938 0)
(0.0139153 0.932017 0)
(0.0145748 0.941222 0)
(-0.0253453 0.929862 0)
(-0.0605914 0.648759 0)
(0.0460936 -0.0656925 0)
(-0.0989158 -0.211792 0)
(-0.457951 -0.105556 0)
(-0.558265 -0.0538153 0)
(-0.478337 0.0135004 0)
(-0.421291 0.133185 0)
(-0.400481 0.233229 0)
(-0.387713 0.2561 0)
(-0.379953 0.244807 0)
(-0.355981 0.226151 0)
(-0.296978 0.199115 0)
(-0.199877 0.201077 0)
(-0.00438539 0.243433 0)
(0.115413 0.231127 0)
(0.296156 0.250895 0)
(0.346878 0.200244 0)
(0.426966 0.139427 0)
(-0.0011986 -0.906945 0)
(0.0151322 -0.903865 0)
(0.0615594 -0.886722 0)
(0.159855 -0.845648 0)
(0.304682 -0.800052 0)
(0.486492 -0.613339 0)
(0.687437 0.391063 0)
(0.269326 1.28998 0)
(-0.369777 1.03473 0)
(-0.445659 0.217673 0)
(-0.452198 -0.0790645 0)
(-0.386579 -0.232063 0)
(-0.377761 -0.249342 0)
(-0.346969 -0.147428 0)
(-0.324048 -0.0651779 0)
(-0.28532 0.0193918 0)
(-0.256158 0.104874 0)
(-0.200905 0.175229 0)
(-0.163634 0.240074 0)
(-0.137641 0.210994 0)
(-0.0461134 0.241382 0)
(0.0314516 0.194249 0)
(0.165564 0.189013 0)
(-0.0493045 0.129879 0)
(-0.127407 0.109033 0)
(-0.177715 0.0602343 0)
(-0.198529 -0.0314681 0)
(-0.200726 -0.198649 0)
(-0.264334 -0.364506 0)
(-0.169444 -0.282216 0)
(0.120648 0.0494864 0)
(0.402855 -0.241735 0)
(0.49506 -0.395662 0)
(0.343341 -0.319605 0)
(0.261282 -0.0710167 0)
(0.22454 0.480367 0)
(0.0360811 0.837591 0)
(-0.125307 0.829216 0)
(-0.165258 0.608569 0)
(-0.141537 0.288684 0)
(-0.0853257 0.0206052 0)
(-0.0377707 -0.0824485 0)
(-0.0328273 -0.151592 0)
(-0.0766722 -0.165747 0)
(0.00622258 -0.174054 0)
(0.108167 -0.189168 0)
(-0.0057045 -0.203465 0)
(-0.0126554 -0.238596 0)
(-0.0190603 -0.256677 0)
(-0.0268133 -0.268165 0)
(-0.0497321 -0.253822 0)
(-0.123191 -0.219232 0)
(-0.0924154 -0.0104011 0)
(0.000202271 0.26634 0)
(0.227162 0.384155 0)
(-0.0471335 0.0111738 0)
(-0.173643 -0.290825 0)
(-0.18245 -0.473501 0)
(-0.0881966 -0.617872 0)
(0.143487 -0.720442 0)
(0.39453 -0.751066 0)
(0.565387 -0.643832 0)
(0.674071 -0.40446 0)
(0.639589 -0.154242 0)
(0.805411 0.127844 0)
(0.735315 0.34376 0)
(0.641727 0.65657 0)
(0.558938 0.616284 0)
(0.470989 0.581139 0)
(-0.00342485 -0.162726 0)
(-0.00798252 -0.203002 0)
(-0.0129538 -0.248468 0)
(-0.0229177 -0.298282 0)
(-0.0472167 -0.340732 0)
(-0.0937486 -0.361185 0)
(-0.0959557 -0.311106 0)
(-0.0405935 -0.284815 0)
(0.206714 0.00918076 0)
(0.230533 0.147558 0)
(0.136346 -0.0182632 0)
(0.144249 -0.18447 0)
(0.150594 -0.0876858 0)
(0.176037 -0.0205466 0)
(0.194875 -0.0295821 0)
(0.20344 -0.110115 0)
(0.221944 -0.207549 0)
(0.190539 -0.345721 0)
(0.150513 -0.420169 0)
(0.189036 -0.477441 0)
(0.301363 -0.677598 0)
(0.441738 -0.760505 0)
(0.523571 -0.753051 0)
(-0.00433452 -0.0477909 0)
(-0.00554432 -0.096197 0)
(-0.00730975 -0.134098 0)
(-0.0159359 -0.17198 0)
(-0.0346545 -0.199116 0)
(-0.0625271 -0.202651 0)
(-0.0762043 -0.161602 0)
(-0.0868494 -0.12534 0)
(-0.0654605 0.00732235 0)
(0.0961657 0.031569 0)
(0.1689 -0.191805 0)
(0.171498 -0.364382 0)
(0.157512 -0.414276 0)
(0.177809 -0.424335 0)
(0.222796 -0.396259 0)
(0.246306 -0.330403 0)
(0.274928 -0.232227 0)
(0.293357 -0.133563 0)
(0.308635 0.003287 0)
(0.301639 0.106786 0)
(0.263051 0.076699 0)
(0.187938 -0.0430047 0)
(0.158031 -0.0647334 0)
(0.00826245 -0.156204 0)
(0.0210571 -0.188031 0)
(0.0230947 -0.207271 0)
(0.0145683 -0.227305 0)
(-0.00456941 -0.239438 0)
(-0.0288133 -0.236744 0)
(-0.0497372 -0.216723 0)
(-0.0569078 -0.192314 0)
(-0.0636356 -0.122481 0)
(0.0620436 -0.0567043 0)
(0.103865 -0.155892 0)
(0.105241 -0.243775 0)
(0.0724875 -0.272657 0)
(0.0453579 -0.299095 0)
(0.03481 -0.32194 0)
(0.0294983 -0.326978 0)
(0.0299288 -0.31566 0)
(0.0345471 -0.310863 0)
(0.0558763 -0.300949 0)
(0.117722 -0.287098 0)
(0.162093 -0.280183 0)
(0.144704 -0.290904 0)
(0.0898724 -0.284413 0)
(0.00626758 -0.12282 0)
(0.0167871 -0.157116 0)
(0.0216718 -0.175842 0)
(0.0175308 -0.191579 0)
(0.00410593 -0.201264 0)
(-0.0141368 -0.201238 0)
(-0.031972 -0.194966 0)
(-0.0394124 -0.180709 0)
(-0.0388864 -0.162919 0)
(0.0202114 -0.14729 0)
(0.0539135 -0.209433 0)
(0.0283087 -0.256521 0)
(0.0029053 -0.276866 0)
(-0.022493 -0.290824 0)
(-0.0431026 -0.289615 0)
(-0.0631478 -0.269371 0)
(-0.0786713 -0.241331 0)
(-0.0908503 -0.20895 0)
(-0.101734 -0.169119 0)
(-0.0996186 -0.14192 0)
(-0.0896235 -0.146161 0)
(-0.0851456 -0.175668 0)
(-0.0723036 -0.190682 0)
(0.00463459 -0.143398 0)
(0.0115769 -0.170352 0)
(0.0146638 -0.17867 0)
(0.00938923 -0.183472 0)
(-0.000429731 -0.184761 0)
(-0.0124706 -0.182869 0)
(-0.0227829 -0.177662 0)
(-0.027003 -0.169879 0)
(-0.0249384 -0.164957 0)
(-0.00395844 -0.157163 0)
(0.00651063 -0.195414 0)
(-0.014263 -0.225386 0)
(-0.0362282 -0.261193 0)
(-0.0596964 -0.287757 0)
(-0.0871639 -0.29462 0)
(-0.108758 -0.280189 0)
(-0.122946 -0.261137 0)
(-0.134636 -0.242935 0)
(-0.139205 -0.216268 0)
(-0.129999 -0.198412 0)
(-0.12224 -0.189455 0)
(-0.116464 -0.192229 0)
(-0.118 -0.194829 0)
(0.00273157 -0.151325 0)
(0.0048185 -0.175533 0)
(0.00149126 -0.178129 0)
(-0.00412887 -0.178924 0)
(-0.00911825 -0.178376 0)
(-0.0136954 -0.177193 0)
(-0.0176609 -0.174687 0)
(-0.0184848 -0.171179 0)
(-0.0175148 -0.170713 0)
(-0.00941196 -0.167511 0)
(-0.00806415 -0.182378 0)
(-0.0218848 -0.197997 0)
(-0.042455 -0.222773 0)
(-0.0699151 -0.246091 0)
(-0.100532 -0.25623 0)
(-0.119824 -0.252421 0)
(-0.131577 -0.239509 0)
(-0.138404 -0.226981 0)
(-0.138395 -0.210552 0)
(-0.131436 -0.20359 0)
(-0.128171 -0.202839 0)
(-0.128513 -0.200309 0)
(-0.126788 -0.191297 0)
(0.00124362 -0.152759 0)
(-0.000999648 -0.17331 0)
(-0.00421902 -0.174105 0)
(-0.00775565 -0.175517 0)
(-0.0110152 -0.176416 0)
(-0.0138294 -0.175514 0)
(-0.0144191 -0.17403 0)
(-0.013559 -0.173836 0)
(-0.0132494 -0.174207 0)
(-0.00969003 -0.171794 0)
(-0.0101965 -0.177966 0)
(-0.0164488 -0.187006 0)
(-0.0249057 -0.204755 0)
(-0.0458827 -0.222691 0)
(-0.0748824 -0.233634 0)
(-0.0962491 -0.237479 0)
(-0.10822 -0.232181 0)
(-0.11463 -0.227671 0)
(-0.116243 -0.213038 0)
(-0.118203 -0.202518 0)
(-0.126638 -0.200602 0)
(-0.131919 -0.203119 0)
(-0.135205 -0.198445 0)
(2.49212e-05 -0.152452 0)
(-0.00247507 -0.170622 0)
(-0.00488556 -0.170891 0)
(-0.00658565 -0.172048 0)
(-0.00900825 -0.173358 0)
(-0.0106117 -0.173964 0)
(-0.0118698 -0.174437 0)
(-0.0121865 -0.174482 0)
(-0.0120243 -0.174602 0)
(-0.0113549 -0.173028 0)
(-0.0103804 -0.177082 0)
(-0.0129111 -0.184763 0)
(-0.0171648 -0.19595 0)
(-0.0293122 -0.202699 0)
(-0.0460364 -0.21024 0)
(-0.0597431 -0.217172 0)
(-0.0768702 -0.218441 0)
(-0.0903612 -0.214732 0)
(-0.0999544 -0.205515 0)
(-0.106773 -0.191388 0)
(-0.115204 -0.185735 0)
(-0.129218 -0.183787 0)
(-0.140407 -0.180068 0)
(-0.000875448 -0.149796 0)
(-0.00217568 -0.167751 0)
(-0.00345339 -0.168791 0)
(-0.00506083 -0.170393 0)
(-0.00737053 -0.171461 0)
(-0.0102559 -0.172897 0)
(-0.0128019 -0.173481 0)
(-0.0153121 -0.174218 0)
(-0.0172964 -0.174223 0)
(-0.0179968 -0.175169 0)
(-0.0179004 -0.177966 0)
(-0.0180081 -0.184149 0)
(-0.0225506 -0.189567 0)
(-0.0308238 -0.19524 0)
(-0.0425431 -0.202447 0)
(-0.0542599 -0.204728 0)
(-0.0737453 -0.202812 0)
(-0.0892735 -0.198869 0)
(-0.0991269 -0.195364 0)
(-0.109857 -0.185021 0)
(-0.122028 -0.174998 0)
(-0.134696 -0.176783 0)
(-0.144536 -0.178442 0)
(-0.000265184 -0.148416 0)
(-0.00202643 -0.166489 0)
(-0.00385549 -0.166897 0)
(-0.00709944 -0.167465 0)
(-0.0099109 -0.168043 0)
(-0.0134302 -0.168722 0)
(-0.0170413 -0.169321 0)
(-0.0203193 -0.170228 0)
(-0.023483 -0.171986 0)
(-0.0261494 -0.173883 0)
(-0.0284138 -0.175525 0)
(-0.031154 -0.177925 0)
(-0.0363584 -0.181785 0)
(-0.0418185 -0.186983 0)
(-0.0513907 -0.189007 0)
(-0.0622476 -0.186414 0)
(-0.0751844 -0.189259 0)
(-0.0861222 -0.19148 0)
(-0.0972521 -0.186733 0)
(-0.107863 -0.176103 0)
(-0.114659 -0.164847 0)
(-0.123342 -0.165145 0)
(-0.130505 -0.168533 0)
(-0.000553906 -0.147591 0)
(-0.00249629 -0.164051 0)
(-0.00591484 -0.163615 0)
(-0.00823342 -0.163992 0)
(-0.0109933 -0.16448 0)
(-0.0135552 -0.164787 0)
(-0.0162523 -0.16559 0)
(-0.019356 -0.16617 0)
(-0.0230991 -0.166814 0)
(-0.0272412 -0.16923 0)
(-0.0319011 -0.172236 0)
(-0.0360632 -0.175233 0)
(-0.0425841 -0.176663 0)
(-0.0503724 -0.178444 0)
(-0.0581921 -0.178531 0)
(-0.0666799 -0.178333 0)
(-0.0741352 -0.176899 0)
(-0.0844205 -0.174982 0)
(-0.0968462 -0.171039 0)
(-0.108016 -0.163585 0)
(-0.116418 -0.155725 0)
(-0.124993 -0.157078 0)
(-0.130537 -0.157817 0)
(-0.000961694 -0.1453 0)
(-0.00343443 -0.161573 0)
(-0.00530758 -0.16151 0)
(-0.00744608 -0.16232 0)
(-0.00980962 -0.162401 0)
(-0.012202 -0.162356 0)
(-0.0149012 -0.162614 0)
(-0.0177436 -0.162965 0)
(-0.0208 -0.164061 0)
(-0.0246469 -0.165798 0)
(-0.0304931 -0.167631 0)
(-0.0349693 -0.169416 0)
(-0.0407152 -0.169224 0)
(-0.0484671 -0.170929 0)
(-0.0561378 -0.171585 0)
(-0.0645488 -0.172191 0)
(-0.0713525 -0.171789 0)
(-0.0799639 -0.16851 0)
(-0.0899447 -0.165076 0)
(-0.0976663 -0.158775 0)
(-0.104473 -0.152596 0)
(-0.110242 -0.153142 0)
(-0.119107 -0.155772 0)
(-0.000704061 -0.143806 0)
(-0.00277644 -0.159575 0)
(-0.00531157 -0.159401 0)
(-0.00792778 -0.159465 0)
(-0.0106931 -0.159755 0)
(-0.0134849 -0.160346 0)
(-0.016112 -0.160774 0)
(-0.0187794 -0.161085 0)
(-0.0216034 -0.161067 0)
(-0.0251609 -0.161411 0)
(-0.0282911 -0.1624 0)
(-0.0341718 -0.162507 0)
(-0.0396598 -0.163772 0)
(-0.0447593 -0.163955 0)
(-0.0513049 -0.163641 0)
(-0.059164 -0.162371 0)
(-0.0688775 -0.159646 0)
(-0.0790023 -0.156284 0)
(-0.0863781 -0.153264 0)
(-0.0932082 -0.146964 0)
(-0.102448 -0.141608 0)
(-0.106855 -0.140425 0)
(-0.115627 -0.139405 0)
(-0.00112391 -0.141079 0)
(-0.00382398 -0.156576 0)
(-0.00656705 -0.156562 0)
(-0.00918873 -0.156826 0)
(-0.0118509 -0.156928 0)
(-0.0145872 -0.156939 0)
(-0.0176093 -0.157124 0)
(-0.0208297 -0.157471 0)
(-0.0242125 -0.157871 0)
(-0.0273182 -0.157287 0)
(-0.0318203 -0.157149 0)
(-0.0374676 -0.158322 0)
(-0.0430962 -0.158751 0)
(-0.0488148 -0.157565 0)
(-0.054799 -0.156864 0)
(-0.0611611 -0.154811 0)
(-0.067233 -0.152571 0)
(-0.0732188 -0.152636 0)
(-0.0800618 -0.149216 0)
(-0.0885625 -0.143372 0)
(-0.0940659 -0.138496 0)
(-0.101775 -0.136973 0)
(-0.10977 -0.132417 0)
(-0.000781208 -0.139856 0)
(-0.00276683 -0.154786 0)
(-0.00523095 -0.154485 0)
(-0.00769786 -0.154465 0)
(-0.0103376 -0.15443 0)
(-0.0130957 -0.154439 0)
(-0.0159614 -0.154384 0)
(-0.0190728 -0.154389 0)
(-0.0225864 -0.154446 0)
(-0.0269516 -0.154678 0)
(-0.0309997 -0.154178 0)
(-0.0338457 -0.153852 0)
(-0.038554 -0.153237 0)
(-0.0452068 -0.152665 0)
(-0.0513438 -0.152038 0)
(-0.0564319 -0.149942 0)
(-0.0635593 -0.147901 0)
(-0.0707931 -0.142764 0)
(-0.0793556 -0.138056 0)
(-0.0846147 -0.134348 0)
(-0.0903132 -0.13188 0)
(-0.0975447 -0.12739 0)
(-0.105433 -0.121896 0)
(-0.0010249 -0.136981 0)
(-0.00349096 -0.15154 0)
(-0.00609755 -0.151304 0)
(-0.00867713 -0.151261 0)
(-0.0114348 -0.151156 0)
(-0.0144283 -0.151094 0)
(-0.0175567 -0.151058 0)
(-0.0207845 -0.150892 0)
(-0.0242438 -0.150487 0)
(-0.0278402 -0.149672 0)
(-0.0312235 -0.14895 0)
(-0.0355928 -0.14844 0)
(-0.0402728 -0.147031 0)
(-0.0441677 -0.145849 0)
(-0.0500669 -0.143724 0)
(-0.0577728 -0.142521 0)
(-0.0630603 -0.139578 0)
(-0.0685451 -0.136713 0)
(-0.0727113 -0.135396 0)
(-0.0784445 -0.131334 0)
(-0.0849154 -0.124343 0)
(-0.0930744 -0.119058 0)
(-0.0986701 -0.116195 0)
(-0.000977908 -0.13564 0)
(-0.00324069 -0.149946 0)
(-0.00571144 -0.149695 0)
(-0.00803783 -0.149569 0)
(-0.0104136 -0.149312 0)
(-0.0127707 -0.148872 0)
(-0.015384 -0.148404 0)
(-0.0183503 -0.147978 0)
(-0.0215192 -0.147422 0)
(-0.0249007 -0.146755 0)
(-0.029199 -0.146005 0)
(-0.0342748 -0.144656 0)
(-0.0388448 -0.143686 0)
(-0.0439732 -0.141625 0)
(-0.0481609 -0.140206 0)
(-0.0512443 -0.138648 0)
(-0.0569834 -0.135958 0)
(-0.0628732 -0.132511 0)
(-0.0690576 -0.126502 0)
(-0.0768405 -0.122022 0)
(-0.0816352 -0.119612 0)
(-0.0863872 -0.115195 0)
(-0.0929084 -0.108077 0)
(-0.00097561 -0.132851 0)
(-0.00322186 -0.146734 0)
(-0.00573583 -0.14646 0)
(-0.00823783 -0.146233 0)
(-0.0109497 -0.145939 0)
(-0.013818 -0.145651 0)
(-0.0167679 -0.145262 0)
(-0.0198295 -0.144646 0)
(-0.0230268 -0.143824 0)
(-0.026299 -0.142725 0)
(-0.0293448 -0.141207 0)
(-0.0320211 -0.13999 0)
(-0.0357656 -0.138677 0)
(-0.0399757 -0.137263 0)
(-0.0448527 -0.134744 0)
(-0.0510593 -0.131412 0)
(-0.0570844 -0.128598 0)
(-0.0618757 -0.12491 0)
(-0.0662838 -0.122902 0)
(-0.0695604 -0.119941 0)
(-0.0752399 -0.113401 0)
(-0.0818925 -0.107802 0)
(-0.0867958 -0.103066 0)
(-0.000915538 -0.131536 0)
(-0.00290303 -0.14523 0)
(-0.00511033 -0.14494 0)
(-0.00720813 -0.144605 0)
(-0.00942834 -0.144113 0)
(-0.0117708 -0.14348 0)
(-0.0143366 -0.142747 0)
(-0.0171539 -0.141938 0)
(-0.0202249 -0.141022 0)
(-0.0235726 -0.139994 0)
(-0.0273594 -0.138833 0)
(-0.0317639 -0.137097 0)
(-0.035918 -0.135033 0)
(-0.0400237 -0.132822 0)
(-0.044086 -0.130706 0)
(-0.0476311 -0.128879 0)
(-0.051059 -0.126291 0)
(-0.0556589 -0.122618 0)
(-0.0607011 -0.117106 0)
(-0.0665597 -0.112105 0)
(-0.0714067 -0.108651 0)
(-0.0758976 -0.103721 0)
(-0.0807998 -0.0975873 0)
(-0.000920157 -0.128964 0)
(-0.00297234 -0.142343 0)
(-0.00524442 -0.142066 0)
(-0.00745662 -0.141666 0)
(-0.00980323 -0.141116 0)
(-0.0122345 -0.140415 0)
(-0.0147584 -0.139533 0)
(-0.0173841 -0.138462 0)
(-0.0201335 -0.137212 0)
(-0.0230144 -0.135757 0)
(-0.0259498 -0.134076 0)
(-0.0287724 -0.132444 0)
(-0.0319865 -0.130745 0)
(-0.035584 -0.12859 0)
(-0.039465 -0.125982 0)
(-0.04392 -0.122738 0)
(-0.0489147 -0.119258 0)
(-0.0536058 -0.115969 0)
(-0.0577737 -0.112988 0)
(-0.0614707 -0.109087 0)
(-0.0657915 -0.103912 0)
(-0.070659 -0.0986983 0)
(-0.0749595 -0.0931777 0)
(-0.000832189 -0.127811 0)
(-0.00253594 -0.141009 0)
(-0.00450389 -0.140722 0)
(-0.00638616 -0.140249 0)
(-0.00843959 -0.13961 0)
(-0.0106296 -0.138816 0)
(-0.0129989 -0.137872 0)
(-0.0155544 -0.13678 0)
(-0.0182946 -0.135538 0)
(-0.0212097 -0.134115 0)
(-0.0242676 -0.132338 0)
(-0.0275643 -0.13014 0)
(-0.0310117 -0.127846 0)
(-0.0345293 -0.125506 0)
(-0.0381043 -0.122894 0)
(-0.0416359 -0.120094 0)
(-0.045106 -0.116958 0)
(-0.0487955 -0.113113 0)
(-0.0528795 -0.108646 0)
(-0.057108 -0.10412 0)
(-0.061141 -0.0996825 0)
(-0.0652081 -0.0946754 0)
(-0.0691869 -0.0890525 0)
(-0.000767473 -0.125567 0)
(-0.00240982 -0.138505 0)
(-0.00427874 -0.138185 0)
(-0.00606758 -0.137556 0)
(-0.00800166 -0.13674 0)
(-0.0100252 -0.135725 0)
(-0.0121695 -0.134517 0)
(-0.0144512 -0.133137 0)
(-0.0168818 -0.131593 0)
(-0.0194852 -0.129918 0)
(-0.0222812 -0.128211 0)
(-0.0251321 -0.12635 0)
(-0.0280629 -0.124137 0)
(-0.0311878 -0.121575 0)
(-0.0345098 -0.11878 0)
(-0.0380109 -0.11567 0)
(-0.041679 -0.112251 0)
(-0.0453854 -0.10867 0)
(-0.0489854 -0.104835 0)
(-0.0525131 -0.100549 0)
(-0.0561231 -0.0958139 0)
(-0.0599144 -0.0908041 0)
(-0.0635513 -0.0853664 0)
(-0.000657966 -0.12462 0)
(-0.00202075 -0.137471 0)
(-0.00367471 -0.137164 0)
(-0.00522463 -0.136498 0)
(-0.00694099 -0.135645 0)
(-0.00876089 -0.134581 0)
(-0.0107287 -0.133311 0)
(-0.0128589 -0.131855 0)
(-0.0151422 -0.130204 0)
(-0.0175599 -0.128329 0)
(-0.0201196 -0.126216 0)
(-0.0228599 -0.123894 0)
(-0.0257442 -0.121434 0)
(-0.0287028 -0.118797 0)
(-0.031736 -0.115887 0)
(-0.0348503 -0.112717 0)
(-0.0380205 -0.109268 0)
(-0.0412659 -0.105459 0)
(-0.0446069 -0.10132 0)
(-0.0479648 -0.0969182 0)
(-0.0512821 -0.0922831 0)
(-0.0546684 -0.0873354 0)
(-0.0579997 -0.0819892 0)
(-0.000506552 -0.12305 0)
(-0.00166455 -0.135529 0)
(-0.00313386 -0.13518 0)
(-0.00447008 -0.134377 0)
(-0.00597374 -0.133378 0)
(-0.00755531 -0.132156 0)
(-0.00924684 -0.130721 0)
(-0.011089 -0.129113 0)
(-0.0131104 -0.127346 0)
(-0.0153268 -0.125426 0)
(-0.0177232 -0.123346 0)
(-0.0202552 -0.121066 0)
(-0.022895 -0.118532 0)
(-0.0256439 -0.115736 0)
(-0.0284848 -0.112721 0)
(-0.0313977 -0.109464 0)
(-0.0343656 -0.105944 0)
(-0.0373707 -0.102169 0)
(-0.0403911 -0.0981087 0)
(-0.0434104 -0.0937378 0)
(-0.0464224 -0.0890731 0)
(-0.0494945 -0.0841487 0)
(-0.0525472 -0.0789006 0)
(-0.000323868 -0.122391 0)
(-0.001304 -0.134629 0)
(-0.00266201 -0.13427 0)
(-0.00381716 -0.133406 0)
(-0.00514439 -0.132357 0)
(-0.00650468 -0.131065 0)
(-0.007849 -0.129439 0)
(-0.00923315 -0.127568 0)
(-0.0107564 -0.125498 0)
(-0.0124986 -0.123262 0)
(-0.0145352 -0.120915 0)
(-0.0168853 -0.11847 0)
(-0.0194739 -0.115898 0)
(-0.0222416 -0.113151 0)
(-0.0249882 -0.110078 0)
(-0.027769 -0.106755 0)
(-0.0305412 -0.103171 0)
(-0.0333082 -0.0993209 0)
(-0.0360817 -0.0951976 0)
(-0.038847 -0.0908042 0)
(-0.0415937 -0.0861491 0)
(-0.0443707 -0.0812421 0)
(-0.047164 -0.0760561 0)
(-4.80438e-05 -0.121465 0)
(-0.000978731 -0.133178 0)
(-0.0024211 -0.132801 0)
(-0.00351054 -0.131889 0)
(-0.00477868 -0.130786 0)
(-0.00602497 -0.129462 0)
(-0.00729942 -0.12795 0)
(-0.00857284 -0.126141 0)
(-0.00986255 -0.124 0)
(-0.0111967 -0.121534 0)
(-0.0126113 -0.118816 0)
(-0.014183 -0.115925 0)
(-0.0160075 -0.112965 0)
(-0.0181832 -0.109992 0)
(-0.0207581 -0.106997 0)
(-0.0235183 -0.103834 0)
(-0.026349 -0.100439 0)
(-0.0290551 -0.0966545 0)
(-0.0316845 -0.0925513 0)
(-0.0342402 -0.0881643 0)
(-0.0367559 -0.0835055 0)
(-0.0392765 -0.0785946 0)
(-0.0418361 -0.0734348 0)
(0.000126329 -0.121052 0)
(-0.000927057 -0.131902 0)
(-0.00277542 -0.131529 0)
(-0.00403482 -0.130669 0)
(-0.00545048 -0.129589 0)
(-0.00676662 -0.128328 0)
(-0.00806364 -0.126845 0)
(-0.00931252 -0.12506 0)
(-0.0104949 -0.122943 0)
(-0.011627 -0.120522 0)
(-0.0127534 -0.117809 0)
(-0.0139505 -0.114869 0)
(-0.0152598 -0.111708 0)
(-0.0166053 -0.108208 0)
(-0.0180211 -0.104636 0)
(-0.0196745 -0.101014 0)
(-0.0216858 -0.0973619 0)
(-0.0242161 -0.093745 0)
(-0.0268823 -0.0899169 0)
(-0.0294263 -0.0857237 0)
(-0.0318134 -0.0811013 0)
(-0.0341497 -0.0761876 0)
(-0.0365127 -0.0710283 0)
(0.000173669 -0.120876 0)
(-0.00136277 -0.130452 0)
(-0.00396201 -0.130085 0)
(-0.00575134 -0.129373 0)
(-0.00766133 -0.128396 0)
(-0.00931873 -0.127148 0)
(-0.0109221 -0.125683 0)
(-0.0123653 -0.12396 0)
(-0.0136342 -0.121985 0)
(-0.0146605 -0.119693 0)
(-0.0154251 -0.117033 0)
(-0.015996 -0.114022 0)
(-0.0165109 -0.110744 0)
(-0.0171235 -0.10732 0)
(-0.0179081 -0.103701 0)
(-0.018855 -0.0998826 0)
(-0.0199608 -0.0958116 0)
(-0.0209516 -0.0915764 0)
(-0.0222698 -0.0872971 0)
(-0.0241145 -0.0829991 0)
(-0.0264763 -0.0786079 0)
(-0.0288428 -0.0738971 0)