/*--------------------------------*- C++ -*----------------------------------*\
| =========                 |                                                 |
| \\      /  F ield         | OpenFOAM: The Open Source CFD Toolbox           |
|  \\    /   O peration     | Version:  2.4.0                                 |
|   \\  /    A nd           | Web:      www.OpenFOAM.org                      |
|    \\/     M anipulation  |                                                 |
\*---------------------------------------------------------------------------*/
FoamFile
{
    version     2.0;
    format      ascii;
    class       volVectorField;
    location    "0.45";
    object      U.mercury;
}
// * * * * * * * * * * * * * * * * * * * * * * * * * * * * * * * * * * * * * //

dimensions      [0 1 -1 0 0 0 0];

internalField   nonuniform List<vector> 
2268
(
(0.0176476 -0.00805298 0)
(0.0503183 -0.00830138 0)
(0.087181 -0.00714654 0)
(0.115841 -0.0100715 0)
(0.162559 -0.00637106 0)
(0.181726 -0.00826131 0)
(0.221138 -0.00964778 0)
(0.266996 -0.0087472 0)
(0.297842 -0.00584512 0)
(0.315411 -0.00600764 0)
(0.343682 -0.00824805 0)
(0.387991 -0.00856031 0)
(0.413008 -0.00556289 0)
(0.441234 -0.00420364 0)
(0.446361 -0.00118629 0)
(0.438123 0.00149198 0)
(0.415631 0.00820144 0)
(0.374514 0.00573628 0)
(0.328904 0.0143354 0)
(0.265009 0.00885087 0)
(0.209807 0.0237838 0)
(0.106468 0.0227303 0)
(0.00838742 0.0108366 0)
(0.0176972 -0.0242073 0)
(0.0501669 -0.0251599 0)
(0.0880318 -0.0210036 0)
(0.115377 -0.0314205 0)
(0.16156 -0.0178238 0)
(0.182778 -0.024856 0)
(0.223068 -0.0309055 0)
(0.265846 -0.0242317 0)
(0.295956 -0.0200574 0)
(0.316787 -0.0162808 0)
(0.352752 -0.0250773 0)
(0.390457 -0.0270151 0)
(0.415986 -0.0210044 0)
(0.436024 -0.0108312 0)
(0.446292 0.00440138 0)
(0.441319 0.0175256 0)
(0.420072 0.0269622 0)
(0.387264 0.0414082 0)
(0.332136 0.0422586 0)
(0.285741 0.0476908 0)
(0.193426 0.0481673 0)
(0.128207 0.0653569 0)
(0.00984645 0.042403 0)
(0.0176963 -0.0407026 0)
(0.0501442 -0.042088 0)
(0.0883449 -0.0363078 0)
(0.115921 -0.049834 0)
(0.15874 -0.0330039 0)
(0.187487 -0.0422303 0)
(0.223382 -0.0485164 0)
(0.263241 -0.0402112 0)
(0.290687 -0.0337722 0)
(0.321707 -0.0323927 0)
(0.366315 -0.0436505 0)
(0.392029 -0.039164 0)
(0.410709 -0.0307196 0)
(0.433474 -0.021125 0)
(0.447757 -0.0124118 0)
(0.451935 0.00790792 0)
(0.435802 0.0265668 0)
(0.406186 0.0469002 0)
(0.34438 0.0633358 0)
(0.294906 0.0749066 0)
(0.209368 0.0897912 0)
(0.149406 0.104786 0)
(0.0600737 0.0903315 0)
(0.0177096 -0.05506 0)
(0.0501818 -0.0564511 0)
(0.0883463 -0.0501406 0)
(0.116941 -0.0647077 0)
(0.156713 -0.0463259 0)
(0.189862 -0.0567265 0)
(0.224161 -0.0627938 0)
(0.262571 -0.0514707 0)
(0.285408 -0.0486676 0)
(0.333451 -0.0486416 0)
(0.369092 -0.0520726 0)
(0.38608 -0.0414621 0)
(0.410307 -0.0308319 0)
(0.430508 -0.0140742 0)
(0.44291 0.00842277 0)
(0.46688 0.0414954 0)
(0.46594 0.0691581 0)
(0.434409 0.0927524 0)
(0.372387 0.0967353 0)
(0.281007 0.106684 0)
(0.179531 0.114391 0)
(0.122331 0.132917 0)
(0.0353959 0.131033 0)
(0.0178474 -0.0679134 0)
(0.0497341 -0.069966 0)
(0.0889489 -0.0638515 0)
(0.11806 -0.0808261 0)
(0.152537 -0.0630049 0)
(0.194649 -0.0778046 0)
(0.223263 -0.0886584 0)
(0.254559 -0.0760916 0)
(0.292961 -0.087114 0)
(0.337687 -0.0915413 0)
(0.361778 -0.105322 0)
(0.389272 -0.095196 0)
(0.4175 -0.100267 0)
(0.442725 -0.0822169 0)
(0.462998 -0.0671228 0)
(0.482556 -0.0322648 0)
(0.473543 0.0263563 0)
(0.448227 0.101265 0)
(0.36823 0.158732 0)
(0.297569 0.166677 0)
(0.165291 0.164862 0)
(0.0936051 0.156594 0)
(0.0495251 0.164552 0)
(0.0173503 -0.180895 0)
(0.0480911 -0.183762 0)
(0.0859323 -0.179708 0)
(0.11799 -0.196264 0)
(0.140797 -0.185058 0)
(0.189737 -0.200223 0)
(0.210722 -0.213035 0)
(0.241932 -0.215488 0)
(0.278302 -0.22726 0)
(0.311931 -0.237288 0)
(0.33223 -0.248443 0)
(0.364686 -0.256307 0)
(0.392173 -0.263675 0)
(0.404244 -0.259192 0)
(0.438204 -0.23849 0)
(0.444795 -0.189842 0)
(0.462134 -0.0816871 0)
(0.442862 0.0500159 0)
(0.351678 0.150511 0)
(0.288406 0.197839 0)
(0.186846 0.20363 0)
(0.0783925 0.202619 0)
(0.0271182 0.21053 0)
(0.0140301 -0.38462 0)
(0.0409289 -0.390963 0)
(0.0689831 -0.395833 0)
(0.100264 -0.418596 0)
(0.10936 -0.429425 0)
(0.137538 -0.448029 0)
(0.172413 -0.452621 0)
(0.190221 -0.452119 0)
(0.203009 -0.462246 0)
(0.234482 -0.473605 0)
(0.269007 -0.493398 0)
(0.288449 -0.498226 0)
(0.287095 -0.437036 0)
(0.261182 -0.309846 0)
(0.202578 -0.172813 0)
(0.352809 -0.189324 0)
(0.417198 -0.174302 0)
(0.409983 -0.0329093 0)
(0.298294 0.141226 0)
(0.246714 0.216803 0)
(0.194863 0.244212 0)
(0.0985664 0.21467 0)
(0.0412009 0.224007 0)
(0.00870157 -0.611605 0)
(0.0263591 -0.601841 0)
(0.0382318 -0.584374 0)
(0.058575 -0.544355 0)
(0.0634503 -0.50773 0)
(0.074383 -0.446517 0)
(0.0725133 -0.364475 0)
(0.0725178 -0.297968 0)
(0.101047 -0.25202 0)
(0.127793 -0.220758 0)
(0.151835 -0.191597 0)
(0.168825 -0.167692 0)
(0.182031 -0.142034 0)
(0.191761 -0.117892 0)
(0.184569 -0.0829201 0)
(0.145646 -0.0812785 0)
(0.201005 -0.145593 0)
(0.393801 -0.174837 0)
(0.238577 0.0815591 0)
(0.160983 0.198221 0)
(0.160206 0.269157 0)
(0.134427 0.262121 0)
(0.0554038 0.284899 0)
(-0.426815 -0.386062 0)
(-0.73837 -0.483558 0)
(-0.833797 -0.658817 0)
(-0.77102 -0.82483 0)
(-0.686955 -0.857479 0)
(-0.582098 -0.852815 0)
(-0.485285 -0.826145 0)
(-0.41446 -0.794846 0)
(-0.330628 -0.770128 0)
(-0.195739 -0.724855 0)
(-0.0818016 -0.644469 0)
(0.0856419 -0.608046 0)
(0.271757 -0.580368 0)
(0.439858 -0.536179 0)
(0.633984 -0.532228 0)
(0.855232 -0.479608 0)
(0.944862 -0.39327 0)
(0.868884 -0.393772 0)
(0.641277 -0.361791 0)
(-0.353318 -0.313854 0)
(-0.561654 -0.160447 0)
(-0.634692 -0.107071 0)
(-0.68001 -0.216288 0)
(-0.629198 0.00726385 0)
(-0.600514 0.00771148 0)
(-0.576242 0.10198 0)
(-0.549217 0.105516 0)
(-0.49057 0.0883351 0)
(-0.25562 -0.054674 0)
(0.424049 -0.780718 0)
(0.851964 -1.1691 0)
(0.781778 -0.997583 0)
(0.83636 -0.857242 0)
(0.993954 -0.801818 0)
(1.05488 -0.682655 0)
(1.11613 -0.463397 0)
(0.992232 -0.0683703 0)
(0.684822 0.00294572 0)
(-0.200333 -0.181918 0)
(-0.234356 0.102924 0)
(-0.379385 0.116487 0)
(-0.424184 0.0525688 0)
(-0.313498 -0.12798 0)
(-0.232886 -0.183984 0)
(-0.327132 -0.329234 0)
(-0.351 -0.394936 0)
(-0.321989 -0.414183 0)
(-0.14425 -0.447908 0)
(0.38732 -0.845498 0)
(0.949774 -1.34119 0)
(0.890806 -1.14093 0)
(0.963437 -1.11888 0)
(1.05372 -1.08304 0)
(1.13667 -1.00416 0)
(1.18192 -0.867034 0)
(0.945811 -0.175878 0)
(0.70717 0.154705 0)
(-0.064764 -0.0231849 0)
(-0.0348135 0.136242 0)
(-0.148709 0.164158 0)
(-0.186915 0.116225 0)
(0.202551 -0.109493 0)
(0.203068 -0.242002 0)
(0.0346158 -0.291234 0)
(0.193577 -0.251583 0)
(0.269818 -0.175826 0)
(0.378152 -0.153829 0)
(0.776565 -0.919046 0)
(0.980832 -1.29935 0)
(0.958166 -1.14209 0)
(1.07004 -1.15102 0)
(1.11258 -1.1295 0)
(1.12209 -1.05697 0)
(1.17525 -0.929728 0)
(1.01554 -0.579823 0)
(0.693712 0.261708 0)
(0.165766 -0.342102 0)
(0.303759 -0.307637 0)
(0.331981 -0.188715 0)
(0.386948 -0.166304 0)
(0.739084 -0.605447 0)
(0.860112 -0.770738 0)
(1.21944 -1.05187 0)
(1.6388 -1.06206 0)
(2.19587 -1.42091 0)
(1.25044 -0.251218 0)
(0.786167 -1.04514 0)
(0.851269 -1.14595 0)
(0.977127 -1.16437 0)
(1.1041 -1.16499 0)
(1.1424 -1.1331 0)
(1.12139 -1.05681 0)
(1.13304 -0.879011 0)
(1.03215 -0.702795 0)
(0.662695 0.429258 0)
(0.202783 -0.424233 0)
(0.338922 -0.392523 0)
(0.47469 -0.387699 0)
(0.715799 -0.494251 0)
(0.770803 -0.638063 0)
(0.799506 -0.713398 0)
(0.946349 -0.871664 0)
(1.29879 -1.2374 0)
(2.10017 -1.87471 0)
(1.52406 -1.15749 0)
(0.920646 -1.16113 0)
(0.886271 -1.04523 0)
(1.02359 -1.09145 0)
(1.11961 -1.12739 0)
(1.1498 -1.13397 0)
(1.11784 -1.06983 0)
(1.09184 -0.863571 0)
(1.03866 -0.676169 0)
(0.650979 0.570157 0)
(0.205046 -0.394797 0)
(0.337405 -0.366643 0)
(0.461987 -0.361639 0)
(0.660815 -0.469533 0)
(0.727545 -0.583367 0)
(0.720083 -0.623515 0)
(0.758637 -0.691151 0)
(0.850717 -0.828096 0)
(1.10014 -1.09647 0)
(1.56011 -1.49905 0)
(1.26637 -1.45641 0)
(0.993041 -0.991403 0)
(1.06499 -1.03319 0)
(1.11977 -1.08744 0)
(1.14263 -1.11452 0)
(1.10851 -1.06897 0)
(1.0527 -0.853074 0)
(0.953544 -0.584357 0)
(0.642613 0.676067 0)
(0.223139 -0.365744 0)
(0.340479 -0.356465 0)
(0.464487 -0.338652 0)
(0.623049 -0.422161 0)
(0.707328 -0.528037 0)
(0.709319 -0.574237 0)
(0.711037 -0.621921 0)
(0.737389 -0.692773 0)
(0.808979 -0.784445 0)
(0.889523 -0.884889 0)
(0.968425 -0.920733 0)
(1.01426 -0.901435 0)
(1.08435 -1.00153 0)
(1.12115 -1.08425 0)
(1.1094 -1.10163 0)
(1.09463 -1.09091 0)
(1.03752 -0.877684 0)
(0.932343 -0.531198 0)
(0.689515 0.725873 0)
(0.00530507 -0.232896 0)
(0.0158256 -0.228814 0)
(0.0279677 -0.222361 0)
(0.0409549 -0.208407 0)
(0.053442 -0.20003 0)
(0.0745569 -0.192294 0)
(0.092222 -0.16762 0)
(0.10921 -0.156439 0)
(0.142261 -0.143404 0)
(0.165762 -0.118891 0)
(0.187568 -0.0923292 0)
(0.207377 -0.0725349 0)
(0.222361 -0.0481245 0)
(0.234482 -0.0319356 0)
(0.24472 0.00778821 0)
(0.244896 0.0553437 0)
(0.215332 0.173989 0)
(0.263424 -0.0419108 0)
(0.264571 -0.0112776 0)
(0.126981 0.151583 0)
(0.0988913 0.227573 0)
(0.148502 0.245391 0)
(0.209319 0.26985 0)
(0.00566288 -0.106172 0)
(0.0173159 -0.108508 0)
(0.0290366 -0.10975 0)
(0.0414352 -0.11063 0)
(0.0551493 -0.113544 0)
(0.0663982 -0.128849 0)
(0.0847543 -0.124113 0)
(0.0974273 -0.143023 0)
(0.128532 -0.155046 0)
(0.147675 -0.154741 0)
(0.170074 -0.148517 0)
(0.202805 -0.145037 0)
(0.20924 -0.123186 0)
(0.218482 -0.104067 0)
(0.208617 -0.0776531 0)
(0.205979 -0.0683822 0)
(0.220754 -0.0215564 0)
(0.20543 0.100599 0)
(0.287074 -0.01955 0)
(0.197237 0.0323385 0)
(0.126904 0.13749 0)
(0.137532 0.132001 0)
(0.193467 0.15908 0)
(0.00696895 -0.154853 0)
(0.0206606 -0.156684 0)
(0.0339196 -0.156408 0)
(0.0453088 -0.157111 0)
(0.0602857 -0.15847 0)
(0.0673645 -0.169251 0)
(0.0861353 -0.169798 0)
(0.103381 -0.191719 0)
(0.142308 -0.193803 0)
(0.172267 -0.189791 0)
(0.221056 -0.169582 0)
(0.25856 -0.138718 0)
(0.283001 -0.0822184 0)
(0.315781 -0.0518076 0)
(0.311765 0.00692014 0)
(0.334621 0.0738916 0)
(0.293737 0.139579 0)
(0.30065 0.182037 0)
(0.313855 0.219917 0)
(0.307157 -0.00135086 0)
(0.245393 0.0502794 0)
(0.251226 0.0437003 0)
(0.264774 0.00319668 0)
(0.00740647 -0.146058 0)
(0.0215494 -0.147585 0)
(0.0341457 -0.146372 0)
(0.0425985 -0.147471 0)
(0.0529759 -0.151906 0)
(0.0569299 -0.167617 0)
(0.0739162 -0.17817 0)
(0.0900513 -0.210325 0)
(0.135071 -0.219026 0)
(0.17756 -0.226078 0)
(0.233393 -0.20287 0)
(0.256108 -0.169555 0)
(0.284729 -0.118956 0)
(0.293925 -0.0916624 0)
(0.297993 -0.0419139 0)
(0.32418 -0.00605312 0)
(0.328979 0.06055 0)
(0.376421 0.11753 0)
(0.380065 0.19932 0)
(0.452294 0.161733 0)
(0.356012 -0.0242305 0)
(0.395999 -0.0328822 0)
(0.469588 -0.0474546 0)
(0.00863465 -0.216433 0)
(0.0210345 -0.213355 0)
(0.0312402 -0.200054 0)
(0.0330244 -0.182122 0)
(0.0330491 -0.15894 0)
(0.0336887 -0.14378 0)
(0.0495514 -0.14466 0)
(0.0568212 -0.206908 0)
(0.102139 -0.27012 0)
(0.14964 -0.304323 0)
(0.197051 -0.279465 0)
(0.215875 -0.230831 0)
(0.238414 -0.171447 0)
(0.260732 -0.1242 0)
(0.271981 -0.0546929 0)
(0.323812 0.022141 0)
(0.328209 0.066758 0)
(0.374641 0.117872 0)
(0.400543 0.14554 0)
(0.477031 0.150091 0)
(0.474035 0.0502148 0)
(0.498224 -0.130651 0)
(0.582594 -0.177706 0)
(0.0170818 -0.469083 0)
(0.0381741 -0.463801 0)
(0.0629743 -0.446479 0)
(0.0808787 -0.422514 0)
(0.0889685 -0.386623 0)
(0.0657853 -0.349129 0)
(-0.00899385 -0.328349 0)
(-0.0590359 -0.359478 0)
(-0.0756645 -0.412668 0)
(-0.0904855 -0.398983 0)
(-0.0491771 -0.299729 0)
(-0.0583856 -0.227455 0)
(-0.0554904 -0.174907 0)
(-0.0677809 -0.129291 0)
(-0.038532 -0.0990102 0)
(0.0177657 -0.0622845 0)
(0.0943201 -0.00108831 0)
(0.213707 0.042249 0)
(0.284459 0.092411 0)
(0.36388 0.0690117 0)
(0.48175 0.0809913 0)
(0.535396 -0.038542 0)
(0.638746 -0.103375 0)
(0.0126159 0.564411 0)
(0.0218651 0.554295 0)
(0.0319638 0.47859 0)
(0.0480831 0.332254 0)
(0.0492429 0.0771787 0)
(0.101386 -0.414637 0)
(0.105238 -0.61805 0)
(-0.100575 -0.678248 0)
(-0.415644 -0.673675 0)
(-0.50959 -0.489339 0)
(-0.439869 -0.356979 0)
(-0.387563 -0.260121 0)
(-0.356553 -0.176406 0)
(-0.333739 -0.131366 0)
(-0.315891 -0.112001 0)
(-0.273909 -0.0893959 0)
(-0.20914 -0.071474 0)
(-0.125557 -0.0432609 0)
(0.0309817 0.016787 0)
(0.0972538 -0.0230417 0)
(0.26891 0.0181793 0)
(0.322241 -0.0344029 0)
(0.415086 -0.0701015 0)
(-0.00118588 -0.906913 0)
(0.0151643 -0.903834 0)
(0.0616003 -0.886693 0)
(0.159895 -0.845617 0)
(0.304701 -0.800021 0)
(0.485325 -0.612999 0)
(0.641301 0.318815 0)
(0.0963686 0.554902 0)
(-0.431021 0.504393 0)
(-0.520124 -0.338723 0)
(-0.49951 -0.549275 0)
(-0.401252 -0.606235 0)
(-0.357494 -0.575605 0)
(-0.305831 -0.47891 0)
(-0.288265 -0.400644 0)
(-0.247948 -0.329637 0)
(-0.226 -0.288847 0)
(-0.18213 -0.264906 0)
(-0.15521 -0.225466 0)
(-0.129633 -0.25127 0)
(-0.0396942 -0.174028 0)
(0.0357274 -0.206159 0)
(0.173654 -0.183604 0)
(-0.0492936 0.129862 0)
(-0.127378 0.109012 0)
(-0.17768 0.0602062 0)
(-0.198495 -0.0315043 0)
(-0.200697 -0.198703 0)
(-0.264314 -0.364594 0)
(-0.16944 -0.282229 0)
(0.120639 0.0495183 0)
(0.402848 -0.241735 0)
(0.495045 -0.395676 0)
(0.343276 -0.319638 0)
(0.26114 -0.0712287 0)
(0.222121 0.47446 0)
(0.0159742 0.717056 0)
(-0.145046 0.360931 0)
(-0.156765 -0.177203 0)
(-0.118984 -0.455349 0)
(-0.0700609 -0.549279 0)
(-0.0616272 -0.540118 0)
(-0.0377474 -0.559962 0)
(-0.0402032 -0.496936 0)
(0.0456764 -0.541771 0)
(0.114916 -0.543283 0)
(-0.00569701 -0.203445 0)
(-0.0126364 -0.23858 0)
(-0.0190376 -0.256665 0)
(-0.0267928 -0.268161 0)
(-0.0497154 -0.253826 0)
(-0.12318 -0.219239 0)
(-0.0924038 -0.0104054 0)
(0.000203061 0.26636 0)
(0.227182 0.384138 0)
(-0.0471057 0.0111718 0)
(-0.173609 -0.290823 0)
(-0.182409 -0.473516 0)
(-0.0881494 -0.617894 0)
(0.143555 -0.720432 0)
(0.3946 -0.751034 0)
(0.565457 -0.643804 0)
(0.674165 -0.40445 0)
(0.639699 -0.154235 0)
(0.805435 0.127753 0)
(0.735127 0.342987 0)
(0.637746 0.640235 0)
(0.546188 0.532357 0)
(0.455273 0.411 0)
(-0.0034177 -0.162738 0)
(-0.00796494 -0.203016 0)
(-0.012931 -0.248483 0)
(-0.0228954 -0.298299 0)
(-0.0471977 -0.34075 0)
(-0.0937314 -0.361202 0)
(-0.0959376 -0.311118 0)
(-0.0405706 -0.284823 0)
(0.206745 0.00917317 0)
(0.230555 0.147559 0)
(0.13637 -0.0182609 0)
(0.144284 -0.184465 0)
(0.150635 -0.0876829 0)
(0.176089 -0.0205446 0)
(0.194946 -0.0295806 0)
(0.203532 -0.110112 0)
(0.222048 -0.20754 0)
(0.190662 -0.345703 0)
(0.150666 -0.420164 0)
(0.189179 -0.47746 0)
(0.301507 -0.677677 0)
(0.441938 -0.760684 0)
(0.52386 -0.753268 0)
(-0.00432945 -0.0477901 0)
(-0.00553126 -0.0961995 0)
(-0.00729272 -0.134105 0)
(-0.0159181 -0.171992 0)
(-0.0346373 -0.19913 0)
(-0.0625095 -0.202666 0)
(-0.0761846 -0.161616 0)
(-0.086827 -0.125352 0)
(-0.0654341 0.00731058 0)
(0.0961923 0.03156 0)
(0.168934 -0.191813 0)
(0.171538 -0.36439 0)
(0.157562 -0.414281 0)
(0.17787 -0.424335 0)
(0.222873 -0.396257 0)
(0.246396 -0.330403 0)
(0.27503 -0.23223 0)
(0.293468 -0.13357 0)
(0.308748 0.00325964 0)
(0.301748 0.106722 0)
(0.263172 0.076623 0)
(0.188081 -0.0431052 0)
(0.158219 -0.0649176 0)
(0.00826605 -0.156209 0)
(0.0210669 -0.188038 0)
(0.0231083 -0.207282 0)
(0.0145838 -0.227318 0)
(-0.00455255 -0.239453 0)
(-0.0287943 -0.23676 0)
(-0.0497151 -0.216738 0)
(-0.0568828 -0.192329 0)
(-0.0636083 -0.122495 0)
(0.0620739 -0.0567168 0)
(0.1039 -0.155905 0)
(0.105283 -0.243787 0)
(0.0725383 -0.272669 0)
(0.0454208 -0.299109 0)
(0.0348867 -0.321957 0)
(0.0295871 -0.326999 0)
(0.0300245 -0.315687 0)
(0.0346456 -0.310901 0)
(0.0559744 -0.301005 0)
(0.117817 -0.287172 0)
(0.162186 -0.280274 0)
(0.144799 -0.29103 0)
(0.0899739 -0.284593 0)
(0.00627055 -0.122828 0)
(0.0167951 -0.157125 0)
(0.0216833 -0.175853 0)
(0.0175447 -0.191593 0)
(0.00412197 -0.201279 0)
(-0.0141182 -0.201254 0)
(-0.0319504 -0.194983 0)
(-0.0393873 -0.180727 0)
(-0.0388582 -0.162937 0)
(0.0202433 -0.147307 0)
(0.0539496 -0.20945 0)
(0.0283507 -0.256539 0)
(0.0029552 -0.276885 0)
(-0.0224331 -0.290846 0)
(-0.0430318 -0.289641 0)
(-0.0630689 -0.269404 0)
(-0.0785883 -0.241373 0)
(-0.0907688 -0.209005 0)
(-0.101658 -0.169189 0)
(-0.0995498 -0.142007 0)
(-0.0895618 -0.146269 0)
(-0.0850935 -0.175804 0)
(-0.0722533 -0.190856 0)
(0.00463677 -0.143408 0)
(0.0115833 -0.170362 0)
(0.0146737 -0.178682 0)
(0.0094019 -0.183485 0)
(-0.000414596 -0.184776 0)
(-0.0124528 -0.182885 0)
(-0.022762 -0.177678 0)
(-0.0269787 -0.169896 0)
(-0.0249105 -0.164975 0)
(-0.00392714 -0.157182 0)
(0.00654579 -0.195435 0)
(-0.0142231 -0.225408 0)
(-0.036182 -0.261218 0)
(-0.0596426 -0.287785 0)
(-0.0871023 -0.294656 0)
(-0.10869 -0.280233 0)
(-0.122876 -0.261193 0)
(-0.134569 -0.243002 0)
(-0.139144 -0.216349 0)
(-0.129946 -0.198505 0)
(-0.122198 -0.189563 0)
(-0.116437 -0.192357 0)
(-0.117982 -0.194976 0)
(0.00273352 -0.151336 0)
(0.00482411 -0.175544 0)
(0.00150005 -0.178142 0)
(-0.00411736 -0.178937 0)
(-0.00910414 -0.17839 0)
(-0.0136784 -0.177208 0)
(-0.0176408 -0.174703 0)
(-0.0184616 -0.171195 0)
(-0.0174884 -0.170731 0)
(-0.00938235 -0.167531 0)
(-0.00803128 -0.1824 0)
(-0.0218481 -0.198022 0)
(-0.0424135 -0.222801 0)
(-0.0698683 -0.246125 0)
(-0.100479 -0.256272 0)
(-0.119768 -0.252473 0)
(-0.131518 -0.239572 0)
(-0.138349 -0.227056 0)
(-0.138346 -0.210638 0)
(-0.131395 -0.203687 0)
(-0.128143 -0.202947 0)
(-0.128498 -0.200428 0)
(-0.126784 -0.191426 0)
(0.00124525 -0.152771 0)
(-0.000994789 -0.173322 0)
(-0.00421114 -0.174117 0)
(-0.007745 -0.17553 0)
(-0.0110019 -0.17643 0)
(-0.0138134 -0.175529 0)
(-0.0144004 -0.174046 0)
(-0.0135375 -0.173853 0)
(-0.0132252 -0.174225 0)
(-0.00966265 -0.171815 0)
(-0.0101666 -0.177989 0)
(-0.0164159 -0.187032 0)
(-0.0248698 -0.204787 0)
(-0.0458438 -0.222729 0)
(-0.0748399 -0.233679 0)
(-0.0962032 -0.237534 0)
(-0.108174 -0.232246 0)
(-0.114585 -0.227746 0)
(-0.116204 -0.213124 0)
(-0.118174 -0.202612 0)
(-0.126618 -0.200705 0)
(-0.131911 -0.203228 0)
(-0.135203 -0.198556 0)
(2.65854e-05 -0.152464 0)
(-0.00247037 -0.170634 0)
(-0.00487814 -0.170904 0)
(-0.00657564 -0.172062 0)
(-0.00899566 -0.173372 0)
(-0.0105966 -0.173978 0)
(-0.0118523 -0.174453 0)
(-0.0121665 -0.174499 0)
(-0.0120018 -0.174621 0)
(-0.0113298 -0.17305 0)
(-0.0103534 -0.177107 0)
(-0.0128818 -0.184791 0)
(-0.0171337 -0.195982 0)
(-0.029279 -0.202736 0)
(-0.0460021 -0.210285 0)
(-0.0597076 -0.217225 0)
(-0.0768322 -0.218504 0)
(-0.0903264 -0.214803 0)
(-0.0999251 -0.205597 0)
(-0.10675 -0.191478 0)
(-0.115191 -0.185832 0)
(-0.129215 -0.183887 0)
(-0.140408 -0.180168 0)
(-0.000874136 -0.149808 0)
(-0.00217164 -0.167763 0)
(-0.00344659 -0.168803 0)
(-0.00505144 -0.170406 0)
(-0.0073587 -0.171475 0)
(-0.0102417 -0.172911 0)
(-0.0127854 -0.173496 0)
(-0.0152934 -0.174235 0)
(-0.0172758 -0.174242 0)
(-0.0179744 -0.17519 0)
(-0.0178761 -0.177991 0)
(-0.0179822 -0.184177 0)
(-0.0225235 -0.189599 0)
(-0.0307969 -0.195277 0)
(-0.0425151 -0.20249 0)
(-0.0542308 -0.204778 0)
(-0.0737175 -0.202869 0)
(-0.0892485 -0.198937 0)
(-0.0991065 -0.195439 0)
(-0.109842 -0.185105 0)
(-0.12202 -0.175087 0)
(-0.134694 -0.176874 0)
(-0.144537 -0.178533 0)
(-0.000263829 -0.148428 0)
(-0.00202246 -0.166501 0)
(-0.00384903 -0.166909 0)
(-0.00709062 -0.167478 0)
(-0.00989983 -0.168056 0)
(-0.013417 -0.168736 0)
(-0.0170262 -0.169337 0)
(-0.0203025 -0.170245 0)
(-0.0234647 -0.172005 0)
(-0.0261297 -0.173904 0)
(-0.0283929 -0.175549 0)
(-0.0311321 -0.177953 0)
(-0.0363358 -0.181817 0)
(-0.0417957 -0.187018 0)
(-0.0513687 -0.189048 0)
(-0.0622263 -0.186461 0)
(-0.0751645 -0.189312 0)
(-0.0861054 -0.191542 0)
(-0.097239 -0.186801 0)
(-0.107855 -0.176178 0)
(-0.114655 -0.164925 0)
(-0.123342 -0.165226 0)
(-0.130506 -0.168613 0)
(-0.000552715 -0.147603 0)
(-0.00249268 -0.164064 0)
(-0.00590887 -0.163628 0)
(-0.00822525 -0.164005 0)
(-0.0109831 -0.164494 0)
(-0.0135432 -0.164802 0)
(-0.0162387 -0.165606 0)
(-0.019341 -0.166188 0)
(-0.023083 -0.166834 0)
(-0.0272241 -0.169252 0)
(-0.0318832 -0.172261 0)
(-0.0360447 -0.17526 0)
(-0.0425652 -0.176694 0)
(-0.0503544 -0.178478 0)
(-0.0581749 -0.17857 0)
(-0.0666643 -0.178377 0)
(-0.0741224 -0.176949 0)
(-0.0844103 -0.175038 0)
(-0.096839 -0.171101 0)
(-0.108012 -0.163652 0)
(-0.116416 -0.155794 0)
(-0.124993 -0.157149 0)
(-0.130538 -0.157888 0)
(-0.000960503 -0.145313 0)
(-0.00343097 -0.161586 0)
(-0.00530202 -0.161523 0)
(-0.00743854 -0.162334 0)
(-0.00980029 -0.162415 0)
(-0.0121912 -0.162372 0)
(-0.014889 -0.162631 0)
(-0.0177304 -0.162984 0)
(-0.0207859 -0.164082 0)
(-0.0246322 -0.165821 0)
(-0.030478 -0.167656 0)
(-0.0349539 -0.169444 0)
(-0.0407 -0.169255 0)
(-0.0484525 -0.170963 0)
(-0.0561252 -0.171622 0)
(-0.0645386 -0.172233 0)
(-0.0713446 -0.171835 0)
(-0.0799589 -0.168561 0)
(-0.0899422 -0.165131 0)
(-0.0976657 -0.158834 0)
(-0.104474 -0.152657 0)
(-0.110243 -0.153205 0)
(-0.119107 -0.155835 0)
(-0.000703068 -0.14382 0)
(-0.00277342 -0.159589 0)
(-0.00530656 -0.159415 0)
(-0.00792096 -0.15948 0)
(-0.0106847 -0.159771 0)
(-0.0134752 -0.160363 0)
(-0.0161013 -0.160792 0)
(-0.0187678 -0.161105 0)
(-0.0215913 -0.161088 0)
(-0.0251485 -0.161434 0)
(-0.0282784 -0.162426 0)
(-0.0341591 -0.162535 0)
(-0.0396474 -0.163803 0)
(-0.0447484 -0.163988 0)
(-0.0512956 -0.163678 0)
(-0.0591571 -0.162411 0)
(-0.068874 -0.159689 0)
(-0.0790011 -0.156331 0)
(-0.0863789 -0.153315 0)
(-0.0932101 -0.147016 0)
(-0.10245 -0.141662 0)
(-0.106857 -0.14048 0)
(-0.115628 -0.13946 0)
(-0.00112291 -0.141094 0)
(-0.00382111 -0.156591 0)
(-0.0065625 -0.156578 0)
(-0.00918262 -0.156842 0)
(-0.0118435 -0.156945 0)
(-0.0145787 -0.156957 0)
(-0.0175999 -0.157143 0)
(-0.0208198 -0.157491 0)
(-0.0242023 -0.157894 0)
(-0.0273078 -0.157311 0)
(-0.0318098 -0.157175 0)
(-0.0374573 -0.15835 0)
(-0.0430865 -0.158781 0)
(-0.048806 -0.157598 0)
(-0.0547927 -0.156899 0)
(-0.0611577 -0.154849 0)
(-0.0672322 -0.152611 0)
(-0.0732206 -0.152679 0)
(-0.0800649 -0.149262 0)
(-0.0885662 -0.143419 0)
(-0.0940692 -0.138544 0)
(-0.101777 -0.137022 0)
(-0.10977 -0.132465 0)
(-0.000780426 -0.139872 0)
(-0.00276443 -0.154802 0)
(-0.00522696 -0.154502 0)
(-0.00769249 -0.154482 0)
(-0.0103311 -0.154448 0)
(-0.0130883 -0.154458 0)
(-0.0159534 -0.154404 0)
(-0.0190644 -0.15441 0)
(-0.0225778 -0.154469 0)
(-0.026943 -0.154703 0)
(-0.0309912 -0.154204 0)
(-0.0338374 -0.15388 0)
(-0.0385462 -0.153267 0)
(-0.0452007 -0.152697 0)
(-0.0513396 -0.152072 0)
(-0.0564303 -0.149978 0)
(-0.0635609 -0.14794 0)
(-0.0707967 -0.142804 0)
(-0.0793603 -0.138097 0)
(-0.0846195 -0.13439 0)
(-0.090317 -0.131923 0)
(-0.0975471 -0.127433 0)
(-0.105433 -0.121939 0)
(-0.0010241 -0.136999 0)
(-0.00348869 -0.151558 0)
(-0.006094 -0.151322 0)
(-0.00867244 -0.15128 0)
(-0.0114292 -0.151176 0)
(-0.014422 -0.151114 0)
(-0.0175499 -0.15108 0)
(-0.0207774 -0.150915 0)
(-0.0242367 -0.150511 0)
(-0.0278332 -0.149697 0)
(-0.0312166 -0.148977 0)
(-0.0355862 -0.148468 0)
(-0.0402669 -0.147061 0)
(-0.044163 -0.14588 0)
(-0.0500646 -0.143757 0)
(-0.0577733 -0.142556 0)
(-0.0630631 -0.139614 0)
(-0.06855 -0.13675 0)
(-0.0727171 -0.135434 0)
(-0.0784499 -0.131373 0)
(-0.0849197 -0.124382 0)
(-0.0930768 -0.119097 0)
(-0.0986698 -0.116234 0)
(-0.000977328 -0.135658 0)
(-0.00323889 -0.149965 0)
(-0.00570843 -0.149714 0)
(-0.0080338 -0.149589 0)
(-0.0104088 -0.149333 0)
(-0.0127653 -0.148894 0)
(-0.0153783 -0.148426 0)
(-0.0183445 -0.148002 0)
(-0.0215134 -0.147446 0)
(-0.024895 -0.14678 0)
(-0.0291935 -0.146032 0)
(-0.0342696 -0.144684 0)
(-0.0388403 -0.143716 0)
(-0.0439703 -0.141656 0)
(-0.0481598 -0.140238 0)
(-0.0512456 -0.138681 0)
(-0.0569874 -0.135992 0)
(-0.0628789 -0.132545 0)
(-0.0690639 -0.126537 0)
(-0.0768462 -0.122058 0)
(-0.0816395 -0.119648 0)
(-0.0863896 -0.11523 0)
(-0.0929078 -0.108113 0)
(-0.000974991 -0.13287 0)
(-0.00322014 -0.146754 0)
(-0.00573319 -0.14648 0)
(-0.00823437 -0.146253 0)
(-0.0109456 -0.145961 0)
(-0.0138135 -0.145674 0)
(-0.0167631 -0.145285 0)
(-0.0198247 -0.14467 0)
(-0.0230221 -0.143849 0)
(-0.0262945 -0.142751 0)
(-0.0293404 -0.141235 0)
(-0.0320171 -0.140018 0)
(-0.0357624 -0.138706 0)
(-0.0399734 -0.137293 0)
(-0.0448528 -0.134776 0)
(-0.0510617 -0.131444 0)
(-0.0570887 -0.12863 0)
(-0.0618818 -0.124943 0)
(-0.0662903 -0.122934 0)
(-0.0695663 -0.119974 0)
(-0.0752443 -0.113434 0)
(-0.0818948 -0.107835 0)
(-0.0867951 -0.103098 0)
(-0.000915134 -0.131557 0)
(-0.00290174 -0.145251 0)
(-0.00510816 -0.144961 0)
(-0.00720524 -0.144627 0)
(-0.00942491 -0.144135 0)
(-0.011767 -0.143503 0)
(-0.0143327 -0.142771 0)
(-0.0171501 -0.141962 0)
(-0.0202212 -0.141048 0)
(-0.023569 -0.140021 0)
(-0.027356 -0.13886 0)
(-0.0317608 -0.137125 0)
(-0.0359154 -0.135062 0)
(-0.0400227 -0.132852 0)
(-0.0440865 -0.130737 0)
(-0.0476336 -0.128909 0)
(-0.051064 -0.126322 0)
(-0.055665 -0.122648 0)
(-0.0607075 -0.117137 0)
(-0.0665655 -0.112136 0)
(-0.0714109 -0.108682 0)
(-0.0758997 -0.103752 0)
(-0.0807988 -0.0976173 0)
(-0.000919688 -0.128986 0)
(-0.00297108 -0.142365 0)
(-0.00524253 -0.142088 0)
(-0.00745418 -0.141688 0)
(-0.00980037 -0.141139 0)
(-0.0122314 -0.140439 0)
(-0.0147552 -0.139557 0)
(-0.017381 -0.138488 0)
(-0.0201305 -0.137238 0)
(-0.0230116 -0.135783 0)
(-0.0259472 -0.134103 0)
(-0.0287701 -0.132472 0)
(-0.0319848 -0.130774 0)
(-0.0355831 -0.128619 0)
(-0.039466 -0.126012 0)
(-0.0439231 -0.122767 0)
(-0.0489192 -0.119287 0)
(-0.0536117 -0.115999 0)
(-0.0577799 -0.113017 0)
(-0.0614762 -0.109115 0)
(-0.0657955 -0.103941 0)
(-0.0706609 -0.0987265 0)
(-0.0749587 -0.0932058 0)
(-0.000831926 -0.127834 0)
(-0.00253506 -0.141032 0)
(-0.00450238 -0.140746 0)
(-0.00638416 -0.140273 0)
(-0.00843724 -0.139634 0)
(-0.0106271 -0.138841 0)
(-0.0129963 -0.137897 0)
(-0.0155519 -0.136805 0)
(-0.0182923 -0.135564 0)
(-0.0212076 -0.134142 0)
(-0.0242656 -0.132365 0)
(-0.0275624 -0.130168 0)
(-0.0310103 -0.127875 0)
(-0.0345291 -0.125534 0)
(-0.0381053 -0.122922 0)
(-0.0416385 -0.120123 0)
(-0.0451106 -0.116986 0)
(-0.0488011 -0.113141 0)
(-0.0528854 -0.108674 0)
(-0.0571132 -0.104147 0)
(-0.0611447 -0.0997094 0)
(-0.0652098 -0.0947021 0)
(-0.0691858 -0.089079 0)
(-0.000767126 -0.125591 0)
(-0.00240891 -0.138529 0)
(-0.00427742 -0.138209 0)
(-0.00606591 -0.13758 0)
(-0.00799973 -0.136765 0)
(-0.0100231 -0.13575 0)
(-0.0121674 -0.134542 0)
(-0.0144492 -0.133164 0)
(-0.01688 -0.13162 0)
(-0.0194835 -0.129945 0)
(-0.0222796 -0.128239 0)
(-0.0251307 -0.126378 0)
(-0.0280619 -0.124165 0)
(-0.0311873 -0.121603 0)
(-0.034511 -0.118808 0)
(-0.0380137 -0.115698 0)
(-0.041683 -0.112278 0)
(-0.0453906 -0.108697 0)
(-0.0489908 -0.104861 0)
(-0.0525179 -0.100575 0)
(-0.0561266 -0.0958396 0)
(-0.059916 -0.0908297 0)
(-0.0635503 -0.0853919 0)
(-0.000657815 -0.124645 0)
(-0.00202019 -0.137496 0)
(-0.0036737 -0.137189 0)
(-0.00522327 -0.136523 0)
(-0.00693941 -0.13567 0)
(-0.00875922 -0.134607 0)
(-0.0107271 -0.133337 0)
(-0.0128573 -0.131881 0)
(-0.0151408 -0.130231 0)
(-0.0175585 -0.128356 0)
(-0.0201182 -0.126244 0)
(-0.0228587 -0.123922 0)
(-0.0257432 -0.121462 0)
(-0.0287029 -0.118824 0)
(-0.0317368 -0.115915 0)
(-0.0348524 -0.112744 0)
(-0.0380244 -0.109295 0)
(-0.0412705 -0.105485 0)
(-0.0446118 -0.101345 0)
(-0.0479693 -0.0969433 0)
(-0.0512852 -0.0923079 0)
(-0.0546699 -0.08736 0)
(-0.0579987 -0.0820138 0)
(-0.000506291 -0.123075 0)
(-0.0016639 -0.135554 0)
(-0.00313296 -0.135206 0)
(-0.00446895 -0.134402 0)
(-0.00597245 -0.133404 0)
(-0.00755395 -0.132182 0)
(-0.00924549 -0.130748 0)
(-0.0110877 -0.12914 0)
(-0.0131091 -0.127373 0)
(-0.0153256 -0.125454 0)
(-0.0177221 -0.123374 0)
(-0.020254 -0.121094 0)
(-0.0228941 -0.11856 0)
(-0.0256433 -0.115764 0)
(-0.0284854 -0.112748 0)
(-0.0313997 -0.109491 0)
(-0.0343684 -0.10597 0)
(-0.0373746 -0.102194 0)
(-0.0403955 -0.0981337 0)
(-0.0434144 -0.0937623 0)
(-0.0464255 -0.0890973 0)
(-0.0494959 -0.0841727 0)
(-0.0525465 -0.0789246 0)
(-0.000323795 -0.122417 0)
(-0.00130366 -0.134655 0)
(-0.00266135 -0.134296 0)
(-0.00381626 -0.133432 0)
(-0.00514335 -0.132384 0)
(-0.00650358 -0.131092 0)
(-0.0078479 -0.129466 0)
(-0.0092321 -0.127595 0)
(-0.0107554 -0.125525 0)
(-0.0124976 -0.123289 0)
(-0.0145341 -0.120943 0)
(-0.0168842 -0.118498 0)
(-0.0194728 -0.115925 0)
(-0.0222412 -0.113179 0)
(-0.0249883 -0.110105 0)
(-0.0277699 -0.106782 0)
(-0.0305438 -0.103197 0)
(-0.0333116 -0.0993461 0)
(-0.0360855 -0.0952221 0)
(-0.0388507 -0.0908283 0)
(-0.0415963 -0.086173 0)
(-0.0443721 -0.0812659 0)
(-0.0471631 -0.07608 0)
(-4.78471e-05 -0.121491 0)
(-0.000978263 -0.133204 0)
(-0.00242049 -0.132828 0)
(-0.00350978 -0.131915 0)
(-0.00477783 -0.130814 0)
(-0.00602408 -0.129489 0)
(-0.00729853 -0.127977 0)
(-0.00857197 -0.126168 0)
(-0.00986168 -0.124027 0)
(-0.0111958 -0.121562 0)
(-0.0126102 -0.118843 0)
(-0.0141819 -0.115953 0)
(-0.0160064 -0.112993 0)
(-0.0181819 -0.110019 0)
(-0.0207578 -0.107024 0)
(-0.023519 -0.10386 0)
(-0.0263504 -0.100465 0)
(-0.0290578 -0.0966795 0)
(-0.0316878 -0.0925758 0)
(-0.0342436 -0.0881883 0)
(-0.0367587 -0.0835295 0)
(-0.0392778 -0.0786185 0)
(-0.0418356 -0.0734589 0)
(0.000126356 -0.121079 0)
(-0.000926865 -0.131929 0)
(-0.00277499 -0.131556 0)
(-0.00403423 -0.130697 0)
(-0.0054498 -0.129616 0)
(-0.0067659 -0.128356 0)
(-0.0080629 -0.126872 0)
(-0.00931178 -0.125088 0)
(-0.0104941 -0.122971 0)
(-0.0116262 -0.12055 0)
(-0.0127523 -0.117837 0)
(-0.0139492 -0.114897 0)
(-0.0152583 -0.111735 0)
(-0.0166042 -0.108236 0)
(-0.0180199 -0.104663 0)
(-0.0196739 -0.101041 0)
(-0.0216868 -0.0973878 0)
(-0.0242181 -0.0937701 0)
(-0.0268852 -0.0899416 0)
(-0.0294294 -0.0857481 0)
(-0.031816 -0.0811256 0)
(-0.0341514 -0.0762121 0)
(-0.0365122 -0.071053 0)
(0.000173834 -0.120904 0)
(-0.00136242 -0.13048 0)
(-0.00396159 -0.130113 0)
(-0.00575085 -0.129401 0)
(-0.00766077 -0.128424 0)
(-0.00931814 -0.127176 0)
(-0.0109215 -0.125711 0)
(-0.0123647 -0.123989 0)
(-0.0136335 -0.122014 0)
(-0.0146597 -0.119721 0)
(-0.0154241 -0.117062 0)
(-0.0159947 -0.11405 0)
(-0.0165095 -0.110773 0)
(-0.0171216 -0.107349 0)
(-0.0179067 -0.103728 0)
(-0.0188542 -0.0999097 0)
(-0.0199606 -0.095838 0)
(-0.0209529 -0.0916021 0)
(-0.0222722 -0.0873223 0)
(-0.0241174 -0.0830241 0)
(-0.0264792 -0.078633 0)
(-0.0288445 -0.0739224 0)