/*--------------------------------*- C++ -*----------------------------------*\
| =========                 |                                                 |
| \\      /  F ield         | OpenFOAM: The Open Source CFD Toolbox           |
|  \\    /   O peration     | Version:  2.4.0                                 |
|   \\  /    A nd           | Web:      www.OpenFOAM.org                      |
|    \\/     M anipulation  |                                                 |
\*---------------------------------------------------------------------------*/
FoamFile
{
    version     2.0;
    format      ascii;
    class       volVectorField;
    location    "0.45";
    object      U.oil;
}
// * * * * * * * * * * * * * * * * * * * * * * * * * * * * * * * * * * * * * //

dimensions      [0 1 -1 0 0 0 0];

internalField   nonuniform List<vector> 
2268
(
(0.0176477 -0.00805293 0)
(0.0503185 -0.00830135 0)
(0.0871813 -0.00714656 0)
(0.115841 -0.0100716 0)
(0.162559 -0.00637108 0)
(0.181727 -0.0082612 0)
(0.221138 -0.00964762 0)
(0.266996 -0.00874705 0)
(0.297842 -0.00584496 0)
(0.315412 -0.00600742 0)
(0.343683 -0.00824784 0)
(0.387992 -0.0085601 0)
(0.413009 -0.00556227 0)
(0.441234 -0.00420238 0)
(0.446361 -0.00118365 0)
(0.438124 0.00149775 0)
(0.415631 0.00821215 0)
(0.374512 0.00575166 0)
(0.328901 0.0143556 0)
(0.265002 0.0088773 0)
(0.209645 0.0238372 0)
(0.105802 0.0251407 0)
(0.00786297 0.0264973 0)
(0.0176973 -0.0242072 0)
(0.0501672 -0.0251598 0)
(0.0880321 -0.0210037 0)
(0.115377 -0.0314207 0)
(0.161561 -0.0178238 0)
(0.182779 -0.0248558 0)
(0.223068 -0.0309053 0)
(0.265846 -0.0242315 0)
(0.295957 -0.0200573 0)
(0.316788 -0.0162806 0)
(0.352752 -0.025077 0)
(0.390457 -0.0270148 0)
(0.415986 -0.0210037 0)
(0.436025 -0.0108291 0)
(0.446292 0.00440766 0)
(0.441317 0.0175409 0)
(0.420066 0.0269947 0)
(0.387254 0.0414653 0)
(0.332122 0.0423276 0)
(0.285724 0.047758 0)
(0.193255 0.0482539 0)
(0.127467 0.0677571 0)
(0.00923689 0.0585985 0)
(0.0176964 -0.0407024 0)
(0.0501444 -0.042088 0)
(0.0883451 -0.0363078 0)
(0.115921 -0.0498342 0)
(0.15874 -0.033004 0)
(0.187487 -0.0422303 0)
(0.223382 -0.0485163 0)
(0.263241 -0.0402111 0)
(0.290688 -0.0337721 0)
(0.321708 -0.0323924 0)
(0.366316 -0.0436502 0)
(0.392029 -0.0391637 0)
(0.410709 -0.0307187 0)
(0.433474 -0.0211225 0)
(0.447756 -0.0124042 0)
(0.45193 0.00793664 0)
(0.435783 0.0266736 0)
(0.406145 0.0472293 0)
(0.344323 0.0637477 0)
(0.294852 0.0752392 0)
(0.209188 0.0900108 0)
(0.148596 0.107152 0)
(0.0593846 0.106709 0)
(0.0177096 -0.0550588 0)
(0.0501819 -0.0564499 0)
(0.0883465 -0.0501397 0)
(0.116941 -0.0647053 0)
(0.156713 -0.0463248 0)
(0.189863 -0.0567235 0)
(0.224162 -0.0627855 0)
(0.262572 -0.0514634 0)
(0.285408 -0.0486543 0)
(0.333452 -0.0486119 0)
(0.369094 -0.0519795 0)
(0.386082 -0.0413467 0)
(0.410305 -0.0306662 0)
(0.430505 -0.0139643 0)
(0.442908 0.00848378 0)
(0.466867 0.041612 0)
(0.46585 0.0696183 0)
(0.434147 0.0936412 0)
(0.371986 0.0978868 0)
(0.280668 0.107708 0)
(0.179213 0.114977 0)
(0.121492 0.135488 0)
(0.0347253 0.148252 0)
(0.017852 -0.0655594 0)
(0.0497403 -0.0674569 0)
(0.0889664 -0.061459 0)
(0.118092 -0.0775146 0)
(0.152561 -0.060166 0)
(0.194753 -0.0741385 0)
(0.223402 -0.0837544 0)
(0.254688 -0.0709838 0)
(0.293122 -0.0808916 0)
(0.337896 -0.0839239 0)
(0.362064 -0.0955292 0)
(0.389494 -0.084348 0)
(0.417593 -0.0878436 0)
(0.442643 -0.07008 0)
(0.462565 -0.0561981 0)
(0.481827 -0.0259996 0)
(0.473071 0.0303634 0)
(0.447786 0.112721 0)
(0.367584 0.165705 0)
(0.296911 0.170333 0)
(0.16477 0.166247 0)
(0.0927368 0.159636 0)
(0.0488902 0.183041 0)
(0.017327 -0.151804 0)
(0.0479683 -0.153688 0)
(0.085795 -0.149756 0)
(0.117668 -0.161435 0)
(0.140421 -0.151369 0)
(0.189706 -0.161734 0)
(0.210864 -0.167895 0)
(0.241562 -0.167266 0)
(0.277386 -0.171551 0)
(0.310767 -0.171852 0)
(0.330674 -0.16795 0)
(0.361836 -0.162327 0)
(0.387947 -0.154893 0)
(0.398023 -0.142376 0)
(0.427109 -0.114683 0)
(0.433627 -0.0738089 0)
(0.448747 -0.00690532 0)
(0.429741 0.089541 0)
(0.342714 0.179745 0)
(0.284022 0.211104 0)
(0.185315 0.207701 0)
(0.0774774 0.206419 0)
(0.0265473 0.230251 0)
(0.0130961 -0.148632 0)
(0.0382372 -0.146716 0)
(0.0641506 -0.147122 0)
(0.0921729 -0.133446 0)
(0.100658 -0.136138 0)
(0.125873 -0.120812 0)
(0.148217 -0.0878661 0)
(0.157882 -0.0669358 0)
(0.166153 -0.0488711 0)
(0.185414 -0.0260071 0)
(0.195975 -0.0179522 0)
(0.19757 -0.00928607 0)
(0.1946 -0.0106065 0)
(0.187933 -0.0185722 0)
(0.179013 -0.0268982 0)
(0.187235 0.0216822 0)
(0.279709 0.117255 0)
(0.334232 0.13728 0)
(0.271784 0.208091 0)
(0.229123 0.250424 0)
(0.189374 0.253064 0)
(0.0971835 0.219115 0)
(0.0407535 0.244118 0)
(0.00192413 -0.137283 0)
(0.0104626 -0.139411 0)
(0.0117094 -0.1412 0)
(0.025484 -0.145304 0)
(0.030426 -0.146967 0)
(0.0426635 -0.161024 0)
(0.0587608 -0.164458 0)
(0.0763688 -0.167157 0)
(0.108929 -0.171081 0)
(0.135359 -0.165437 0)
(0.15706 -0.150128 0)
(0.170613 -0.134321 0)
(0.181496 -0.11231 0)
(0.189173 -0.0874206 0)
(0.180361 -0.0518866 0)
(0.13819 -0.0455799 0)
(0.133839 -0.0795434 0)
(0.232467 0.0786265 0)
(0.149122 0.215625 0)
(0.128935 0.278032 0)
(0.150193 0.311513 0)
(0.13274 0.275696 0)
(0.0550711 0.305076 0)
(-0.108228 0.0913131 0)
(-0.317374 0.0711632 0)
(-0.607435 0.0218604 0)
(-0.745933 -0.0292256 0)
(-0.788479 -0.104321 0)
(-0.682689 -0.197988 0)
(-0.571412 -0.252561 0)
(-0.517829 -0.301264 0)
(-0.426565 -0.337164 0)
(-0.312468 -0.345405 0)
(-0.251766 -0.313683 0)
(-0.133224 -0.280218 0)
(0.0378845 -0.2167 0)
(0.253897 -0.133392 0)
(0.524705 -0.106082 0)
(0.783052 -0.039839 0)
(0.803316 0.0166587 0)
(0.557283 -0.0671402 0)
(0.381427 -0.0429896 0)
(-0.0836325 0.117137 0)
(-0.262419 0.110475 0)
(-0.485318 0.13106 0)
(-0.579316 0.130269 0)
(-0.603818 0.0681839 0)
(-0.593789 0.0554187 0)
(-0.576064 0.185856 0)
(-0.558304 0.215796 0)
(-0.504728 0.228707 0)
(-0.404427 0.249171 0)
(-0.372998 0.309942 0)
(-0.188489 0.275988 0)
(0.152474 0.143729 0)
(0.5227 -0.0212341 0)
(0.854352 -0.0513979 0)
(0.982261 -0.0123319 0)
(0.985242 0.114744 0)
(0.702812 0.422285 0)
(0.464607 0.469323 0)
(-0.03505 0.190023 0)
(-0.127573 0.193255 0)
(-0.294695 0.176314 0)
(-0.392201 0.101598 0)
(-0.301721 -0.079191 0)
(-0.210795 -0.135051 0)
(-0.306315 -0.273914 0)
(-0.331063 -0.345407 0)
(-0.304672 -0.370657 0)
(-0.159301 -0.400326 0)
(-0.115382 -0.438151 0)
(0.0517942 -0.469395 0)
(0.302587 -0.339958 0)
(0.575142 -0.229788 0)
(0.843769 -0.106354 0)
(1.04963 0.116784 0)
(0.912465 0.342031 0)
(0.564894 0.448696 0)
(0.486189 0.642446 0)
(0.0189383 0.220471 0)
(0.0129908 0.21139 0)
(-0.0679938 0.197941 0)
(-0.145522 0.14564 0)
(0.164662 -0.0472659 0)
(0.188076 -0.198127 0)
(0.0340074 -0.283315 0)
(0.209819 -0.268248 0)
(0.264116 -0.187806 0)
(0.278745 -0.192454 0)
(0.535116 -0.130856 0)
(0.660494 -0.357354 0)
(0.702204 -0.48963 0)
(0.794165 -0.448185 0)
(0.878551 -0.351773 0)
(1.09198 -0.175138 0)
(1.09457 0.258877 0)
(0.410554 0.694747 0)
(0.484935 0.754236 0)
(0.041257 0.193101 0)
(0.130749 0.213812 0)
(0.1079 0.226756 0)
(0.170141 0.0852697 0)
(0.425059 -0.242106 0)
(0.530142 -0.379304 0)
(0.682164 -0.500813 0)
(0.991381 -0.687902 0)
(1.05497 -0.801323 0)
(0.993673 -1.40065 0)
(1.52447 -1.68145 0)
(1.47022 -1.19979 0)
(1.09104 -0.819524 0)
(1.07198 -0.580897 0)
(1.08291 -0.392428 0)
(1.08263 -0.113419 0)
(1.1508 0.366303 0)
(0.365297 0.893348 0)
(0.470812 0.942995 0)
(0.0979822 0.155054 0)
(0.236926 0.188259 0)
(0.330543 0.20137 0)
(0.516163 0.0289433 0)
(0.722785 -0.207747 0)
(0.679193 -0.324786 0)
(0.755535 -0.427466 0)
(1.02447 -0.597561 0)
(1.22335 -0.741863 0)
(1.04518 -0.891019 0)
(1.15196 -0.863842 0)
(1.23358 -0.74932 0)
(1.24983 -0.76064 0)
(1.22924 -0.637791 0)
(1.20624 -0.433469 0)
(1.11781 -0.08344 0)
(1.17205 0.440762 0)
(0.452582 0.997876 0)
(0.495673 1.12006 0)
(0.110259 0.110302 0)
(0.355602 0.126875 0)
(0.518005 0.125028 0)
(0.738362 -0.0477379 0)
(0.896439 -0.28283 0)
(0.816755 -0.345379 0)
(0.75708 -0.389754 0)
(0.827609 -0.44438 0)
(1.06668 -0.583467 0)
(1.31678 -0.793489 0)
(1.53366 -0.964889 0)
(1.21839 -0.709044 0)
(1.24227 -0.66239 0)
(1.30282 -0.57828 0)
(1.28088 -0.409181 0)
(1.14156 -0.0448413 0)
(1.18549 0.561243 0)
(0.500566 1.09519 0)
(0.464637 1.31518 0)
(0.159957 -0.0154343 0)
(0.447528 0.00823356 0)
(0.650581 0.0587488 0)
(0.890419 -0.05285 0)
(0.978578 -0.234053 0)
(0.907213 -0.273054 0)
(0.804149 -0.296024 0)
(0.777902 -0.344654 0)
(0.842547 -0.401648 0)
(0.989013 -0.482264 0)
(1.17787 -0.497565 0)
(1.22082 -0.529084 0)
(1.3136 -0.558377 0)
(1.33349 -0.515226 0)
(1.30834 -0.389626 0)
(1.13948 -0.0357024 0)
(1.1845 0.650339 0)
(0.582261 1.24822 0)
(0.515134 1.52726 0)
(0.00517244 -0.154266 0)
(0.0162608 -0.152518 0)
(0.0269083 -0.150924 0)
(0.0409779 -0.138663 0)
(0.0516288 -0.135493 0)
(0.0710658 -0.13122 0)
(0.0899163 -0.10802 0)
(0.105638 -0.101651 0)
(0.138997 -0.0954715 0)
(0.162502 -0.077243 0)
(0.184012 -0.0554798 0)
(0.203986 -0.0401205 0)
(0.218559 -0.017551 0)
(0.23072 -0.00360687 0)
(0.240242 0.0382032 0)
(0.239415 0.0906343 0)
(0.20779 0.21767 0)
(0.125241 0.253657 0)
(0.159544 0.286734 0)
(0.0372848 0.3467 0)
(0.032639 0.359793 0)
(0.134274 0.307259 0)
(0.239929 0.303354 0)
(0.00559288 -0.0956072 0)
(0.0171164 -0.0981244 0)
(0.0287029 -0.0995814 0)
(0.0409457 -0.100758 0)
(0.0545333 -0.104143 0)
(0.0656447 -0.120204 0)
(0.0839388 -0.115888 0)
(0.096759 -0.135515 0)
(0.128056 -0.147398 0)
(0.147349 -0.144495 0)
(0.169838 -0.136406 0)
(0.202615 -0.132001 0)
(0.208872 -0.109596 0)
(0.218029 -0.0896727 0)
(0.208014 -0.0634574 0)
(0.204694 -0.0548095 0)
(0.219127 0.000870091 0)
(0.200067 0.151026 0)
(0.276678 0.276065 0)
(0.188953 0.426789 0)
(0.103514 0.368149 0)
(0.100223 0.271362 0)
(0.162268 0.276795 0)
(0.00695288 -0.152079 0)
(0.0206111 -0.153969 0)
(0.0338289 -0.153743 0)
(0.0451631 -0.154519 0)
(0.0600933 -0.156014 0)
(0.0671627 -0.167057 0)
(0.0859252 -0.16764 0)
(0.103184 -0.186452 0)
(0.141658 -0.184362 0)
(0.17217 -0.169527 0)
(0.222751 -0.137015 0)
(0.257409 -0.101963 0)
(0.281901 -0.0510967 0)
(0.313509 -0.0198856 0)
(0.310046 0.0319454 0)
(0.332755 0.0908975 0)
(0.293203 0.158376 0)
(0.299284 0.20667 0)
(0.313791 0.291313 0)
(0.398357 0.399642 0)
(0.384974 0.442751 0)
(0.305387 0.332022 0)
(0.285344 0.164541 0)
(0.00740568 -0.145536 0)
(0.0215467 -0.147079 0)
(0.0341402 -0.145875 0)
(0.0425887 -0.146988 0)
(0.0529614 -0.151443 0)
(0.0569 -0.167207 0)
(0.0729424 -0.175771 0)
(0.083704 -0.191055 0)
(0.120512 -0.165811 0)
(0.169139 -0.166377 0)
(0.22641 -0.134286 0)
(0.247544 -0.0959283 0)
(0.274371 -0.0431676 0)
(0.285305 -0.0130847 0)
(0.291565 0.0381414 0)
(0.317395 0.0749146 0)
(0.327181 0.139379 0)
(0.377367 0.195984 0)
(0.386596 0.27326 0)
(0.478826 0.297373 0)
(0.559872 0.384604 0)
(0.654772 0.34044 0)
(0.666781 0.255553 0)
(0.00863465 -0.216408 0)
(0.0210344 -0.213332 0)
(0.0312402 -0.200031 0)
(0.0330244 -0.182099 0)
(0.0330437 -0.158917 0)
(0.0316423 -0.143677 0)
(0.0385467 -0.142551 0)
(0.0277542 -0.166785 0)
(0.0774692 -0.218274 0)
(0.124649 -0.245006 0)
(0.178857 -0.212867 0)
(0.196665 -0.164498 0)
(0.21972 -0.105431 0)
(0.242318 -0.0574686 0)
(0.256823 0.0129427 0)
(0.314583 0.0928025 0)
(0.320707 0.139854 0)
(0.367813 0.191226 0)
(0.400991 0.215297 0)
(0.485111 0.22522 0)
(0.552558 0.221683 0)
(0.68153 0.186946 0)
(0.757321 0.125046 0)
(0.0170818 -0.469083 0)
(0.0381741 -0.463801 0)
(0.0629742 -0.446477 0)
(0.0808785 -0.422513 0)
(0.0889491 -0.386615 0)
(0.0641149 -0.349256 0)
(-0.0472724 -0.338179 0)
(-0.087598 -0.329211 0)
(-0.0968239 -0.360775 0)
(-0.120624 -0.348791 0)
(-0.0684076 -0.255166 0)
(-0.0767472 -0.185619 0)
(-0.0701673 -0.133935 0)
(-0.0767056 -0.0924922 0)
(-0.0459349 -0.0649928 0)
(0.0115971 -0.0296054 0)
(0.082551 0.0328905 0)
(0.192886 0.078499 0)
(0.267789 0.133663 0)
(0.355841 0.113148 0)
(0.480294 0.130103 0)
(0.553123 0.0609383 0)
(0.641541 0.0330754 0)
(0.0126159 0.564411 0)
(0.0218651 0.554287 0)
(0.0319672 0.478449 0)
(0.0481006 0.331896 0)
(0.049338 0.0761097 0)
(0.10473 -0.421203 0)
(-0.0216249 -0.673315 0)
(-0.193577 -0.68606 0)
(-0.409707 -0.585702 0)
(-0.495133 -0.453504 0)
(-0.437564 -0.353791 0)
(-0.388278 -0.258359 0)
(-0.356936 -0.175298 0)
(-0.334037 -0.130461 0)
(-0.316077 -0.11121 0)
(-0.274073 -0.0884731 0)
(-0.209216 -0.0702072 0)
(-0.126466 -0.0411888 0)
(0.0228926 0.023604 0)
(0.0910686 -0.0144798 0)
(0.25357 0.0342128 0)
(0.313562 -0.00520289 0)
(0.407935 -0.0327235 0)
(-0.0011859 -0.906912 0)
(0.0151594 -0.90379 0)
(0.0613954 -0.885689 0)
(0.157096 -0.839183 0)
(0.272776 -0.771077 0)
(0.391875 -0.558623 0)
(-0.104712 -0.493409 0)
(-0.337451 -0.727098 0)
(-0.573282 -0.72786 0)
(-0.565346 -0.67734 0)
(-0.510102 -0.654663 0)
(-0.402791 -0.646161 0)
(-0.356285 -0.594908 0)
(-0.30431 -0.491454 0)
(-0.287367 -0.409201 0)
(-0.247356 -0.335181 0)
(-0.225709 -0.292644 0)
(-0.182022 -0.26738 0)
(-0.155185 -0.226847 0)
(-0.129608 -0.252782 0)
(-0.0396336 -0.173873 0)
(0.0362234 -0.203737 0)
(0.173785 -0.17678 0)
(-0.0492936 0.129861 0)
(-0.127376 0.108945 0)
(-0.177553 0.058489 0)
(-0.196678 -0.0488965 0)
(-0.194797 -0.275008 0)
(-0.251941 -0.465776 0)
(-0.158682 -0.311511 0)
(0.0797286 -0.0916635 0)
(0.434711 -0.348582 0)
(0.420605 -0.410521 0)
(0.182186 -0.381785 0)
(0.0206706 -0.265891 0)
(-0.121866 -0.346974 0)
(-0.25412 -0.901035 0)
(-0.197978 -0.891209 0)
(-0.150485 -0.763651 0)
(-0.112064 -0.68458 0)
(-0.0675882 -0.642105 0)
(-0.0639525 -0.584876 0)
(-0.0381419 -0.596573 0)
(-0.0381949 -0.515379 0)
(0.04793 -0.563123 0)
(0.115088 -0.559274 0)
(-0.00569704 -0.203445 0)
(-0.012641 -0.238576 0)
(-0.0192641 -0.25648 0)
(-0.0302437 -0.265507 0)
(-0.059783 -0.250195 0)
(-0.126065 -0.220468 0)
(-0.0922351 -0.0126185 0)
(0.000160102 0.263965 0)
(0.224282 0.378998 0)
(-0.0486189 0.00520583 0)
(-0.172888 -0.294094 0)
(-0.181808 -0.476249 0)
(-0.0875861 -0.62164 0)
(0.144137 -0.72399 0)
(0.388143 -0.750004 0)
(0.524826 -0.643297 0)
(0.56164 -0.43748 0)
(0.457312 -0.275731 0)
(0.512262 -0.123331 0)
(0.450322 -0.0180244 0)
(0.302026 -0.63606 0)
(0.279789 -1.19607 0)
(0.305024 -1.18773 0)
(-0.0034177 -0.162738 0)
(-0.00796469 -0.203031 0)
(-0.0129261 -0.248803 0)
(-0.0229084 -0.300045 0)
(-0.0472506 -0.343477 0)
(-0.0937363 -0.362701 0)
(-0.0959059 -0.31126 0)
(-0.0405707 -0.285532 0)
(0.206043 0.00575111 0)
(0.229276 0.14534 0)
(0.136212 -0.0188243 0)
(0.144232 -0.184832 0)
(0.150567 -0.0885959 0)
(0.175858 -0.0273283 0)
(0.194739 -0.0463576 0)
(0.204367 -0.127026 0)
(0.223148 -0.217622 0)
(0.19165 -0.347947 0)
(0.151104 -0.420846 0)
(0.190418 -0.480886 0)
(0.302946 -0.678575 0)
(0.442794 -0.758282 0)
(0.527856 -0.757693 0)
(-0.00432946 -0.0477902 0)
(-0.00553135 -0.0962028 0)
(-0.00729399 -0.134157 0)
(-0.0159199 -0.172113 0)
(-0.0346378 -0.199219 0)
(-0.0625106 -0.202692 0)
(-0.0761912 -0.161686 0)
(-0.0868638 -0.125735 0)
(-0.065595 0.00575799 0)
(0.0958865 0.0284181 0)
(0.16888 -0.192615 0)
(0.17157 -0.364584 0)
(0.157303 -0.415213 0)
(0.176723 -0.42849 0)
(0.220833 -0.40322 0)
(0.24265 -0.338657 0)
(0.271874 -0.242007 0)
(0.290569 -0.140593 0)
(0.308142 0.00100426 0)
(0.301394 0.105263 0)
(0.26291 0.0732782 0)
(0.187649 -0.0498031 0)
(0.158108 -0.0698818 0)
(0.00826605 -0.156209 0)
(0.0210669 -0.188039 0)
(0.0231083 -0.207289 0)
(0.0145838 -0.227324 0)
(-0.00455256 -0.239454 0)
(-0.0287943 -0.236762 0)
(-0.0497151 -0.21676 0)
(-0.0568831 -0.192452 0)
(-0.0636129 -0.122889 0)
(0.0620165 -0.0578863 0)
(0.103874 -0.156325 0)
(0.105257 -0.244089 0)
(0.0720645 -0.277452 0)
(0.0437149 -0.312665 0)
(0.0331552 -0.335868 0)
(0.0284804 -0.338928 0)
(0.0298721 -0.324914 0)
(0.0349861 -0.316147 0)
(0.0563233 -0.302371 0)
(0.118116 -0.288209 0)
(0.162353 -0.281523 0)
(0.145106 -0.292836 0)
(0.0897277 -0.285543 0)
(0.00627055 -0.122828 0)
(0.0167951 -0.157125 0)
(0.0216833 -0.175854 0)
(0.0175447 -0.191593 0)
(0.00412197 -0.20128 0)
(-0.0141182 -0.201255 0)
(-0.0319504 -0.194984 0)
(-0.0393873 -0.180731 0)
(-0.0388583 -0.162955 0)
(0.0202431 -0.147493 0)
(0.0539485 -0.209492 0)
(0.0283131 -0.256891 0)
(0.00246801 -0.282638 0)
(-0.0238052 -0.302534 0)
(-0.0440039 -0.296997 0)
(-0.0634477 -0.272355 0)
(-0.0787478 -0.243618 0)
(-0.0909035 -0.210585 0)
(-0.101723 -0.170193 0)
(-0.0995878 -0.14359 0)
(-0.0895654 -0.148704 0)
(-0.0851465 -0.178198 0)
(-0.0723287 -0.192133 0)
(0.00463677 -0.143408 0)
(0.0115833 -0.170362 0)
(0.0146737 -0.178682 0)
(0.00940189 -0.183486 0)
(-0.000414598 -0.184776 0)
(-0.0124528 -0.182885 0)
(-0.022762 -0.177679 0)
(-0.0269787 -0.169898 0)
(-0.0249106 -0.164978 0)
(-0.00392734 -0.157186 0)
(0.00654433 -0.195455 0)
(-0.0142662 -0.225884 0)
(-0.036495 -0.263979 0)
(-0.060376 -0.292719 0)
(-0.0873376 -0.297514 0)
(-0.108863 -0.281627 0)
(-0.123007 -0.262278 0)
(-0.134647 -0.24393 0)
(-0.13919 -0.217111 0)
(-0.129986 -0.199411 0)
(-0.122266 -0.190649 0)
(-0.116525 -0.193229 0)
(-0.118014 -0.19538 0)
(0.00273352 -0.151336 0)
(0.00482411 -0.175544 0)
(0.00150005 -0.178142 0)
(-0.00411736 -0.178937 0)
(-0.00910414 -0.17839 0)
(-0.0136785 -0.177208 0)
(-0.0176408 -0.174703 0)
(-0.0184617 -0.171197 0)
(-0.0174885 -0.170734 0)
(-0.00938259 -0.167536 0)
(-0.00803314 -0.182426 0)
(-0.021872 -0.198364 0)
(-0.0424605 -0.223658 0)
(-0.0699766 -0.247684 0)
(-0.100704 -0.258408 0)
(-0.119989 -0.254529 0)
(-0.131675 -0.241201 0)
(-0.138459 -0.22832 0)
(-0.138397 -0.211425 0)
(-0.131422 -0.204211 0)
(-0.12816 -0.203379 0)
(-0.128515 -0.200713 0)
(-0.126796 -0.191572 0)
(0.00124525 -0.152771 0)
(-0.000994789 -0.173322 0)
(-0.00421114 -0.174117 0)
(-0.007745 -0.17553 0)
(-0.0110019 -0.17643 0)
(-0.0138134 -0.175529 0)
(-0.0144004 -0.174046 0)
(-0.0135376 -0.173854 0)
(-0.0132253 -0.174228 0)
(-0.00966288 -0.171821 0)
(-0.0101675 -0.178007 0)
(-0.0164223 -0.187176 0)
(-0.0248965 -0.205232 0)
(-0.0459342 -0.223801 0)
(-0.0750647 -0.235984 0)
(-0.0964363 -0.240018 0)
(-0.108356 -0.23429 0)
(-0.114705 -0.229244 0)
(-0.116271 -0.214006 0)
(-0.118196 -0.203 0)
(-0.126628 -0.20087 0)
(-0.131917 -0.203311 0)
(-0.135207 -0.198612 0)
(2.65854e-05 -0.152464 0)
(-0.00247037 -0.170634 0)
(-0.00487814 -0.170904 0)
(-0.00657564 -0.172062 0)
(-0.00899566 -0.173372 0)
(-0.0105966 -0.173978 0)
(-0.0118523 -0.174453 0)
(-0.0121665 -0.1745 0)
(-0.0120019 -0.174622 0)
(-0.01133 -0.173054 0)
(-0.0103537 -0.177115 0)
(-0.0128847 -0.184848 0)
(-0.0171586 -0.196369 0)
(-0.0293613 -0.203864 0)
(-0.0461631 -0.212372 0)
(-0.0599005 -0.219636 0)
(-0.0769994 -0.220599 0)
(-0.0904438 -0.216337 0)
(-0.0999949 -0.206537 0)
(-0.106785 -0.19192 0)
(-0.115205 -0.186005 0)
(-0.12922 -0.183946 0)
(-0.140411 -0.180194 0)
(-0.000874136 -0.149808 0)
(-0.00217164 -0.167763 0)
(-0.00344659 -0.168803 0)
(-0.00505144 -0.170406 0)
(-0.0073587 -0.171475 0)
(-0.0102417 -0.172912 0)
(-0.0127854 -0.173496 0)
(-0.0152934 -0.174236 0)
(-0.0172758 -0.174243 0)
(-0.0179744 -0.175193 0)
(-0.0178763 -0.177995 0)
(-0.0179827 -0.184196 0)
(-0.0225368 -0.189859 0)
(-0.0308511 -0.196171 0)
(-0.0426173 -0.204013 0)
(-0.054352 -0.20666 0)
(-0.0738343 -0.204574 0)
(-0.0893403 -0.200234 0)
(-0.0991644 -0.196259 0)
(-0.109873 -0.185533 0)
(-0.122033 -0.175261 0)
(-0.134699 -0.17693 0)
(-0.144539 -0.17855 0)
(-0.000263829 -0.148428 0)
(-0.00202246 -0.166501 0)
(-0.00384903 -0.166909 0)
(-0.00709062 -0.167478 0)
(-0.00989983 -0.168056 0)
(-0.013417 -0.168736 0)
(-0.0170262 -0.169337 0)
(-0.0203025 -0.170245 0)
(-0.0234647 -0.172005 0)
(-0.0261298 -0.173905 0)
(-0.0283929 -0.175551 0)
(-0.0311321 -0.177957 0)
(-0.0363399 -0.181922 0)
(-0.0418156 -0.187464 0)
(-0.0514067 -0.189807 0)
(-0.0622892 -0.187561 0)
(-0.0752293 -0.190396 0)
(-0.0861592 -0.192416 0)
(-0.0972753 -0.187377 0)
(-0.107875 -0.176493 0)
(-0.114664 -0.165063 0)
(-0.123345 -0.16527 0)
(-0.130507 -0.168625 0)
(-0.000552715 -0.147603 0)
(-0.00249268 -0.164064 0)
(-0.00590887 -0.163628 0)
(-0.00822525 -0.164005 0)
(-0.0109831 -0.164494 0)
(-0.0135432 -0.164802 0)
(-0.0162387 -0.165606 0)
(-0.019341 -0.166188 0)
(-0.023083 -0.166834 0)
(-0.0272241 -0.169252 0)
(-0.0318832 -0.172261 0)
(-0.0360447 -0.175261 0)
(-0.0425656 -0.176715 0)
(-0.0503579 -0.178601 0)
(-0.0581888 -0.178865 0)
(-0.0666845 -0.17883 0)
(-0.0741485 -0.177477 0)
(-0.084433 -0.175486 0)
(-0.0968557 -0.171406 0)
(-0.108023 -0.163827 0)
(-0.116421 -0.155875 0)
(-0.124995 -0.157177 0)
(-0.130538 -0.157895 0)
(-0.000960503 -0.145313 0)
(-0.00343097 -0.161586 0)
(-0.00530202 -0.161523 0)
(-0.00743854 -0.162334 0)
(-0.00980029 -0.162415 0)
(-0.0121912 -0.162372 0)
(-0.014889 -0.162631 0)
(-0.0177304 -0.162984 0)
(-0.0207859 -0.164082 0)
(-0.0246322 -0.165821 0)
(-0.030478 -0.167656 0)
(-0.0349539 -0.169445 0)
(-0.0407 -0.169257 0)
(-0.0484528 -0.170981 0)
(-0.0561264 -0.171698 0)
(-0.064544 -0.17237 0)
(-0.0713515 -0.172027 0)
(-0.0799658 -0.168736 0)
(-0.0899468 -0.165247 0)
(-0.0976685 -0.158902 0)
(-0.104475 -0.152691 0)
(-0.110244 -0.153218 0)
(-0.119108 -0.155838 0)
(-0.000703068 -0.14382 0)
(-0.00277342 -0.159589 0)
(-0.00530656 -0.159415 0)
(-0.00792096 -0.15948 0)
(-0.0106847 -0.159771 0)
(-0.0134752 -0.160363 0)
(-0.0161013 -0.160792 0)
(-0.0187678 -0.161105 0)
(-0.0215913 -0.161088 0)
(-0.0251485 -0.161434 0)
(-0.0282784 -0.162426 0)
(-0.0341591 -0.162535 0)
(-0.0396475 -0.163803 0)
(-0.0447484 -0.16399 0)
(-0.0512956 -0.163684 0)
(-0.0591575 -0.162441 0)
(-0.0688751 -0.159737 0)
(-0.0790024 -0.15638 0)
(-0.0863797 -0.153345 0)
(-0.0932105 -0.147033 0)
(-0.10245 -0.141671 0)
(-0.106857 -0.140484 0)
(-0.115628 -0.139461 0)
(-0.00112291 -0.141094 0)
(-0.00382111 -0.156591 0)
(-0.0065625 -0.156578 0)
(-0.00918262 -0.156842 0)
(-0.0118435 -0.156945 0)
(-0.0145787 -0.156957 0)
(-0.0175999 -0.157143 0)
(-0.0208198 -0.157491 0)
(-0.0242023 -0.157894 0)
(-0.0273078 -0.157311 0)
(-0.0318098 -0.157175 0)
(-0.0374573 -0.15835 0)
(-0.0430865 -0.158781 0)
(-0.048806 -0.157598 0)
(-0.0547927 -0.1569 0)
(-0.0611577 -0.154851 0)
(-0.0672322 -0.152619 0)
(-0.0732207 -0.152687 0)
(-0.080065 -0.149268 0)
(-0.0885663 -0.143422 0)
(-0.0940692 -0.138545 0)
(-0.101777 -0.137023 0)
(-0.10977 -0.132465 0)
(-0.000780426 -0.139872 0)
(-0.00276443 -0.154802 0)
(-0.00522696 -0.154502 0)
(-0.00769249 -0.154482 0)
(-0.0103311 -0.154448 0)
(-0.0130883 -0.154458 0)
(-0.0159534 -0.154404 0)
(-0.0190644 -0.15441 0)
(-0.0225778 -0.154469 0)
(-0.026943 -0.154703 0)
(-0.0309912 -0.154204 0)
(-0.0338374 -0.15388 0)
(-0.0385462 -0.153267 0)
(-0.0452007 -0.152697 0)
(-0.0513396 -0.152072 0)
(-0.0564303 -0.149978 0)
(-0.0635609 -0.14794 0)
(-0.0707968 -0.142805 0)
(-0.0793603 -0.138098 0)
(-0.0846196 -0.134391 0)
(-0.090317 -0.131924 0)
(-0.0975471 -0.127434 0)
(-0.105433 -0.121939 0)
(-0.0010241 -0.136999 0)
(-0.00348869 -0.151558 0)
(-0.006094 -0.151322 0)
(-0.00867244 -0.15128 0)
(-0.0114292 -0.151176 0)
(-0.014422 -0.151114 0)
(-0.0175499 -0.15108 0)
(-0.0207774 -0.150915 0)
(-0.0242367 -0.150511 0)
(-0.0278332 -0.149697 0)
(-0.0312166 -0.148977 0)
(-0.0355862 -0.148468 0)
(-0.0402669 -0.147061 0)
(-0.044163 -0.14588 0)
(-0.0500646 -0.143757 0)
(-0.0577733 -0.142556 0)
(-0.0630631 -0.139614 0)
(-0.06855 -0.13675 0)
(-0.0727171 -0.135434 0)
(-0.0784499 -0.131373 0)
(-0.0849197 -0.124382 0)
(-0.0930768 -0.119097 0)
(-0.0986698 -0.116234 0)
(-0.000977328 -0.135658 0)
(-0.00323889 -0.149965 0)
(-0.00570843 -0.149714 0)
(-0.0080338 -0.149589 0)
(-0.0104088 -0.149333 0)
(-0.0127653 -0.148894 0)
(-0.0153783 -0.148426 0)
(-0.0183445 -0.148002 0)
(-0.0215134 -0.147446 0)
(-0.024895 -0.14678 0)
(-0.0291935 -0.146032 0)
(-0.0342696 -0.144684 0)
(-0.0388403 -0.143716 0)
(-0.0439703 -0.141656 0)
(-0.0481598 -0.140238 0)
(-0.0512456 -0.138681 0)
(-0.0569874 -0.135992 0)
(-0.0628789 -0.132545 0)
(-0.0690639 -0.126537 0)
(-0.0768462 -0.122058 0)
(-0.0816395 -0.119648 0)
(-0.0863896 -0.11523 0)
(-0.0929078 -0.108113 0)
(-0.000974991 -0.13287 0)
(-0.00322014 -0.146754 0)
(-0.00573319 -0.14648 0)
(-0.00823437 -0.146253 0)
(-0.0109456 -0.145961 0)
(-0.0138135 -0.145674 0)
(-0.0167631 -0.145285 0)
(-0.0198247 -0.14467 0)
(-0.0230221 -0.143849 0)
(-0.0262945 -0.142751 0)
(-0.0293404 -0.141235 0)
(-0.0320171 -0.140018 0)
(-0.0357624 -0.138706 0)
(-0.0399734 -0.137293 0)
(-0.0448528 -0.134776 0)
(-0.0510617 -0.131444 0)
(-0.0570887 -0.12863 0)
(-0.0618818 -0.124943 0)
(-0.0662903 -0.122934 0)
(-0.0695663 -0.119974 0)
(-0.0752443 -0.113434 0)
(-0.0818948 -0.107835 0)
(-0.0867951 -0.103098 0)
(-0.000915134 -0.131557 0)
(-0.00290174 -0.145251 0)
(-0.00510816 -0.144961 0)
(-0.00720524 -0.144627 0)
(-0.00942491 -0.144135 0)
(-0.011767 -0.143503 0)
(-0.0143327 -0.142771 0)
(-0.0171501 -0.141962 0)
(-0.0202212 -0.141048 0)
(-0.023569 -0.140021 0)
(-0.027356 -0.13886 0)
(-0.0317608 -0.137125 0)
(-0.0359154 -0.135062 0)
(-0.0400227 -0.132852 0)
(-0.0440865 -0.130737 0)
(-0.0476336 -0.128909 0)
(-0.051064 -0.126322 0)
(-0.055665 -0.122648 0)
(-0.0607075 -0.117137 0)
(-0.0665655 -0.112136 0)
(-0.0714109 -0.108682 0)
(-0.0758997 -0.103752 0)
(-0.0807988 -0.0976173 0)
(-0.000919688 -0.128986 0)
(-0.00297108 -0.142365 0)
(-0.00524253 -0.142088 0)
(-0.00745418 -0.141688 0)
(-0.00980037 -0.141139 0)
(-0.0122314 -0.140439 0)
(-0.0147552 -0.139557 0)
(-0.017381 -0.138488 0)
(-0.0201305 -0.137238 0)
(-0.0230116 -0.135783 0)
(-0.0259472 -0.134103 0)
(-0.0287701 -0.132472 0)
(-0.0319848 -0.130774 0)
(-0.0355831 -0.128619 0)
(-0.039466 -0.126012 0)
(-0.0439231 -0.122767 0)
(-0.0489192 -0.119287 0)
(-0.0536117 -0.115999 0)
(-0.0577799 -0.113017 0)
(-0.0614762 -0.109115 0)
(-0.0657955 -0.103941 0)
(-0.0706609 -0.0987265 0)
(-0.0749587 -0.0932058 0)
(-0.000831926 -0.127834 0)
(-0.00253506 -0.141032 0)
(-0.00450238 -0.140746 0)
(-0.00638416 -0.140273 0)
(-0.00843724 -0.139634 0)
(-0.0106271 -0.138841 0)
(-0.0129963 -0.137897 0)
(-0.0155519 -0.136805 0)
(-0.0182923 -0.135564 0)
(-0.0212076 -0.134142 0)
(-0.0242656 -0.132365 0)
(-0.0275624 -0.130168 0)
(-0.0310103 -0.127875 0)
(-0.0345291 -0.125534 0)
(-0.0381053 -0.122922 0)
(-0.0416385 -0.120123 0)
(-0.0451106 -0.116986 0)
(-0.0488011 -0.113141 0)
(-0.0528854 -0.108674 0)
(-0.0571132 -0.104147 0)
(-0.0611447 -0.0997094 0)
(-0.0652098 -0.0947021 0)
(-0.0691858 -0.089079 0)
(-0.000767126 -0.125591 0)
(-0.00240891 -0.138529 0)
(-0.00427742 -0.138209 0)
(-0.00606591 -0.13758 0)
(-0.00799973 -0.136765 0)
(-0.0100231 -0.13575 0)
(-0.0121674 -0.134542 0)
(-0.0144492 -0.133164 0)
(-0.01688 -0.13162 0)
(-0.0194835 -0.129945 0)
(-0.0222796 -0.128239 0)
(-0.0251307 -0.126378 0)
(-0.0280619 -0.124165 0)
(-0.0311873 -0.121603 0)
(-0.034511 -0.118808 0)
(-0.0380137 -0.115698 0)
(-0.041683 -0.112278 0)
(-0.0453906 -0.108697 0)
(-0.0489908 -0.104861 0)
(-0.0525179 -0.100575 0)
(-0.0561266 -0.0958396 0)
(-0.059916 -0.0908297 0)
(-0.0635503 -0.0853919 0)
(-0.000657815 -0.124645 0)
(-0.00202019 -0.137496 0)
(-0.0036737 -0.137189 0)
(-0.00522327 -0.136523 0)
(-0.00693941 -0.13567 0)
(-0.00875922 -0.134607 0)
(-0.0107271 -0.133337 0)
(-0.0128573 -0.131881 0)
(-0.0151408 -0.130231 0)
(-0.0175585 -0.128356 0)
(-0.0201182 -0.126244 0)
(-0.0228587 -0.123922 0)
(-0.0257432 -0.121462 0)
(-0.0287029 -0.118824 0)
(-0.0317368 -0.115915 0)
(-0.0348524 -0.112744 0)
(-0.0380244 -0.109295 0)
(-0.0412705 -0.105485 0)
(-0.0446118 -0.101345 0)
(-0.0479693 -0.0969433 0)
(-0.0512852 -0.0923079 0)
(-0.0546699 -0.08736 0)
(-0.0579987 -0.0820138 0)
(-0.000506291 -0.123075 0)
(-0.0016639 -0.135554 0)
(-0.00313296 -0.135206 0)
(-0.00446895 -0.134402 0)
(-0.00597245 -0.133404 0)
(-0.00755395 -0.132182 0)
(-0.00924549 -0.130748 0)
(-0.0110877 -0.12914 0)
(-0.0131091 -0.127373 0)
(-0.0153256 -0.125454 0)
(-0.0177221 -0.123374 0)
(-0.020254 -0.121094 0)
(-0.0228941 -0.11856 0)
(-0.0256433 -0.115764 0)
(-0.0284854 -0.112748 0)
(-0.0313997 -0.109491 0)
(-0.0343684 -0.10597 0)
(-0.0373746 -0.102194 0)
(-0.0403955 -0.0981337 0)
(-0.0434144 -0.0937623 0)
(-0.0464255 -0.0890973 0)
(-0.0494959 -0.0841727 0)
(-0.0525465 -0.0789246 0)
(-0.000323795 -0.122417 0)
(-0.00130366 -0.134655 0)
(-0.00266135 -0.134296 0)
(-0.00381626 -0.133432 0)
(-0.00514335 -0.132384 0)
(-0.00650358 -0.131092 0)
(-0.0078479 -0.129466 0)
(-0.0092321 -0.127595 0)
(-0.0107554 -0.125525 0)
(-0.0124976 -0.123289 0)
(-0.0145341 -0.120943 0)
(-0.0168842 -0.118498 0)
(-0.0194728 -0.115925 0)
(-0.0222412 -0.113179 0)
(-0.0249883 -0.110105 0)
(-0.0277699 -0.106782 0)
(-0.0305438 -0.103197 0)
(-0.0333116 -0.0993461 0)
(-0.0360855 -0.0952221 0)
(-0.0388507 -0.0908283 0)
(-0.0415963 -0.086173 0)
(-0.0443721 -0.0812659 0)
(-0.0471631 -0.07608 0)
(-4.78471e-05 -0.121491 0)
(-0.000978263 -0.133204 0)
(-0.00242049 -0.132828 0)
(-0.00350978 -0.131915 0)
(-0.00477783 -0.130814 0)
(-0.00602408 -0.129489 0)
(-0.00729853 -0.127977 0)
(-0.00857197 -0.126168 0)
(-0.00986168 -0.124027 0)
(-0.0111958 -0.121562 0)
(-0.0126102 -0.118843 0)
(-0.0141819 -0.115953 0)
(-0.0160064 -0.112993 0)
(-0.0181819 -0.110019 0)
(-0.0207578 -0.107024 0)
(-0.023519 -0.10386 0)
(-0.0263504 -0.100465 0)
(-0.0290578 -0.0966795 0)
(-0.0316878 -0.0925758 0)
(-0.0342436 -0.0881883 0)
(-0.0367587 -0.0835295 0)
(-0.0392778 -0.0786185 0)
(-0.0418356 -0.0734589 0)
(0.000126356 -0.121079 0)
(-0.000926865 -0.131929 0)
(-0.00277499 -0.131556 0)
(-0.00403423 -0.130697 0)
(-0.0054498 -0.129616 0)
(-0.0067659 -0.128356 0)
(-0.0080629 -0.126872 0)
(-0.00931178 -0.125088 0)
(-0.0104941 -0.122971 0)
(-0.0116262 -0.12055 0)
(-0.0127523 -0.117837 0)
(-0.0139492 -0.114897 0)
(-0.0152583 -0.111735 0)
(-0.0166042 -0.108236 0)
(-0.0180199 -0.104663 0)
(-0.0196739 -0.101041 0)
(-0.0216868 -0.0973878 0)
(-0.0242181 -0.0937701 0)
(-0.0268852 -0.0899416 0)
(-0.0294294 -0.0857481 0)
(-0.031816 -0.0811256 0)
(-0.0341514 -0.0762121 0)
(-0.0365122 -0.071053 0)
(0.000173834 -0.120904 0)
(-0.00136242 -0.13048 0)
(-0.00396159 -0.130113 0)
(-0.00575085 -0.129401 0)
(-0.00766077 -0.128424 0)
(-0.00931814 -0.127176 0)
(-0.0109215 -0.125711 0)
(-0.0123647 -0.123989 0)
(-0.0136335 -0.122014 0)
(-0.0146597 -0.119721 0)
(-0.0154241 -0.117062 0)
(-0.0159947 -0.11405 0)
(-0.0165095 -0.110773 0)
(-0.0171216 -0.107349 0)
(-0.0179067 -0.103728 0)
(-0.0188542 -0.0999097 0)
(-0.0199606 -0.095838 0)
(-0.0209529 -0.0916021 0)
(-0.0222722 -0.0873223 0)
(-0.0241174 -0.0830241 0)
(-0.0264792 -0.078633 0)