/*--------------------------------*- C++ -*----------------------------------*\
| =========                 |                                                 |
| \\      /  F ield         | OpenFOAM: The Open Source CFD Toolbox           |
|  \\    /   O peration     | Version:  2.4.0                                 |
|   \\  /    A nd           | Web:      www.OpenFOAM.org                      |
|    \\/     M anipulation  |                                                 |
\*---------------------------------------------------------------------------*/
FoamFile
{
    version     2.0;
    format      ascii;
    class       volVectorField;
    location    "0.45";
    object      U.water;
}
// * * * * * * * * * * * * * * * * * * * * * * * * * * * * * * * * * * * * * //

dimensions      [0 1 -1 0 0 0 0];

internalField   nonuniform List<vector> 
2268
(
(0.0176477 -0.00804171 0)
(0.0503186 -0.00829104 0)
(0.0871814 -0.00713743 0)
(0.115841 -0.0100585 0)
(0.162559 -0.00636113 0)
(0.181727 -0.00824862 0)
(0.221138 -0.00962952 0)
(0.266996 -0.00873025 0)
(0.297843 -0.00582836 0)
(0.315412 -0.00598769 0)
(0.343683 -0.00822088 0)
(0.387992 -0.00852934 0)
(0.413008 -0.00553187 0)
(0.441234 -0.0041754 0)
(0.446361 -0.00116455 0)
(0.438124 0.00151035 0)
(0.415631 0.00821894 0)
(0.374513 0.00575228 0)
(0.328903 0.0143494 0)
(0.265009 0.00886165 0)
(0.209807 0.0237902 0)
(0.10647 0.0227323 0)
(0.00838799 0.0108375 0)
(0.0176973 -0.0241614 0)
(0.0501673 -0.0251193 0)
(0.0880323 -0.0209662 0)
(0.115378 -0.0313769 0)
(0.161561 -0.0177845 0)
(0.18278 -0.024813 0)
(0.223069 -0.0308514 0)
(0.265848 -0.0241802 0)
(0.295958 -0.0200074 0)
(0.316789 -0.0162209 0)
(0.352753 -0.0249743 0)
(0.390457 -0.0269029 0)
(0.415985 -0.0208863 0)
(0.436021 -0.01073 0)
(0.446287 0.0044747 0)
(0.441312 0.0175837 0)
(0.420061 0.0270225 0)
(0.387252 0.0414646 0)
(0.332125 0.0423037 0)
(0.285734 0.0477206 0)
(0.193424 0.0481821 0)
(0.128207 0.0653633 0)
(0.00984695 0.0424076 0)
(0.0176965 -0.0377958 0)
(0.0501448 -0.0388023 0)
(0.0883457 -0.0335129 0)
(0.115922 -0.0439767 0)
(0.158742 -0.0293276 0)
(0.187489 -0.0359929 0)
(0.223385 -0.0377596 0)
(0.263244 -0.0300482 0)
(0.29069 -0.0205633 0)
(0.321712 -0.0145202 0)
(0.366321 -0.0183335 0)
(0.392031 -0.0126652 0)
(0.410709 -0.00219333 0)
(0.43347 0.0023646 0)
(0.447748 0.00318376 0)
(0.451919 0.0157874 0)
(0.435776 0.0298865 0)
(0.406151 0.0483334 0)
(0.344346 0.0643542 0)
(0.294884 0.075437 0)
(0.20936 0.0898978 0)
(0.149405 0.104826 0)
(0.060074 0.0903502 0)
(0.0177478 -0.0104574 0)
(0.0502256 -0.0108804 0)
(0.0884452 -0.0058166 0)
(0.117166 -0.0129301 0)
(0.15695 7.86218e-05 0)
(0.190622 -0.00400656 0)
(0.225366 0.00190876 0)
(0.263591 0.0114248 0)
(0.287013 0.0232935 0)
(0.335536 0.0384825 0)
(0.371067 0.0651737 0)
(0.387067 0.0828187 0)
(0.408451 0.105548 0)
(0.425855 0.109951 0)
(0.438356 0.108565 0)
(0.463862 0.109537 0)
(0.463904 0.117538 0)
(0.433071 0.122071 0)
(0.371364 0.104495 0)
(0.280328 0.108261 0)
(0.179307 0.114767 0)
(0.122302 0.133123 0)
(0.0353926 0.131109 0)
(0.0181847 0.107472 0)
(0.0501498 0.105638 0)
(0.0902014 0.110839 0)
(0.119744 0.0959892 0)
(0.153983 0.110772 0)
(0.199536 0.0971187 0)
(0.228284 0.0891341 0)
(0.258965 0.100572 0)
(0.297523 0.0909946 0)
(0.342579 0.0885084 0)
(0.367123 0.078631 0)
(0.393031 0.0901532 0)
(0.418869 0.0892404 0)
(0.441369 0.11129 0)
(0.455097 0.131677 0)
(0.459873 0.167951 0)
(0.437277 0.231276 0)
(0.416828 0.244708 0)
(0.355599 0.215103 0)
(0.294852 0.200052 0)
(0.164881 0.167752 0)
(0.0935205 0.157364 0)
(0.0495093 0.164771 0)
(0.017189 0.0154298 0)
(0.0472717 0.0137661 0)
(0.0850073 0.0170677 0)
(0.116078 0.00780213 0)
(0.138529 0.0157541 0)
(0.189535 0.00653171 0)
(0.211362 -8.64188e-06 0)
(0.240254 -0.00175402 0)
(0.274611 -0.00525729 0)
(0.307753 -0.00428316 0)
(0.327363 0.00212538 0)
(0.356603 0.0095724 0)
(0.381173 0.0191306 0)
(0.388604 0.0341649 0)
(0.410893 0.0661335 0)
(0.414832 0.123423 0)
(0.417139 0.188957 0)
(0.374136 0.257729 0)
(0.276723 0.333894 0)
(0.228262 0.339771 0)
(0.172302 0.229186 0)
(0.0776689 0.204713 0)
(0.0270754 0.211851 0)
(0.0123771 0.0329433 0)
(0.0362401 0.0343758 0)
(0.0606374 0.0335527 0)
(0.0871349 0.0439793 0)
(0.0953652 0.042083 0)
(0.120003 0.043663 0)
(0.139137 0.0489062 0)
(0.148276 0.0473876 0)
(0.158482 0.0370975 0)
(0.179036 0.0321116 0)
(0.190802 0.0156876 0)
(0.194271 0.00843351 0)
(0.193006 -0.00328639 0)
(0.1874 -0.0164724 0)
(0.17897 -0.0266625 0)
(0.183863 0.0255444 0)
(0.239169 0.204369 0)
(0.246566 0.340286 0)
(0.206546 0.342748 0)
(0.164338 0.378721 0)
(0.158804 0.337548 0)
(0.0917139 0.222592 0)
(0.0411088 0.227193 0)
(0.00178478 -0.127558 0)
(0.0101572 -0.130562 0)
(0.0112525 -0.133598 0)
(0.0250276 -0.139834 0)
(0.0300567 -0.142971 0)
(0.0424301 -0.158966 0)
(0.0586991 -0.163633 0)
(0.0763717 -0.166905 0)
(0.108931 -0.171011 0)
(0.135358 -0.165411 0)
(0.157056 -0.150117 0)
(0.170608 -0.134316 0)
(0.18149 -0.112307 0)
(0.189172 -0.0874199 0)
(0.180491 -0.0519693 0)
(0.138833 -0.0470681 0)
(0.134793 -0.0840603 0)
(0.212228 0.110751 0)
(0.0497951 0.347481 0)
(0.0641929 0.362167 0)
(0.0957199 0.422087 0)
(0.122659 0.307688 0)
(0.0551526 0.308468 0)
(-0.127216 0.0628197 0)
(-0.344656 0.0351415 0)
(-0.622428 -0.0232855 0)
(-0.748558 -0.112696 0)
(-0.767451 -0.260009 0)
(-0.651504 -0.400813 0)
(-0.536533 -0.484781 0)
(-0.468807 -0.535366 0)
(-0.376477 -0.563256 0)
(-0.246945 -0.558428 0)
(-0.148964 -0.51337 0)
(0.0133432 -0.483773 0)
(0.205851 -0.44923 0)
(0.39676 -0.384715 0)
(0.623632 -0.368858 0)
(0.842659 -0.314231 0)
(0.91025 -0.242325 0)
(0.780177 -0.281637 0)
(0.562295 -0.267133 0)
(-0.0989202 0.0926357 0)
(-0.268894 0.104532 0)
(-0.486537 0.129216 0)
(-0.580162 0.1276 0)
(-0.6039 0.0678746 0)
(-0.593784 0.0551978 0)
(-0.576104 0.185438 0)
(-0.558337 0.21524 0)
(-0.504726 0.228086 0)
(-0.40324 0.246814 0)
(-0.34202 0.261237 0)
(0.0467129 -0.0906049 0)
(0.453186 -0.434332 0)
(0.681817 -0.466633 0)
(0.91832 -0.425673 0)
(1.03757 -0.340385 0)
(1.06141 -0.195015 0)
(0.900643 0.103305 0)
(0.613282 0.137864 0)
(-0.0406732 0.177248 0)
(-0.127796 0.192934 0)
(-0.294989 0.17604 0)
(-0.392487 0.101141 0)
(-0.301798 -0.079558 0)
(-0.210994 -0.135444 0)
(-0.30656 -0.274207 0)
(-0.331046 -0.344569 0)
(-0.304793 -0.369463 0)
(-0.159521 -0.399059 0)
(-0.101279 -0.439762 0)
(0.21811 -0.624026 0)
(0.57893 -0.725177 0)
(0.738407 -0.562341 0)
(0.923492 -0.438429 0)
(1.10039 -0.282778 0)
(1.03327 -0.1234 0)
(0.797392 0.0853426 0)
(0.624079 0.293289 0)
(0.0176702 0.216595 0)
(0.0130128 0.211207 0)
(-0.0683159 0.197706 0)
(-0.145855 0.145356 0)
(0.164724 -0.0473603 0)
(0.18895 -0.19437 0)
(0.0403605 -0.261895 0)
(0.216705 -0.241484 0)
(0.272707 -0.1593 0)
(0.298946 -0.161725 0)
(0.514638 -0.150247 0)
(0.762938 -0.592263 0)
(0.884516 -0.835361 0)
(0.927722 -0.65986 0)
(0.999208 -0.567794 0)
(1.12254 -0.4096 0)
(1.15478 -0.080827 0)
(0.772243 0.1156 0)
(0.614401 0.401825 0)
(0.047175 0.167657 0)
(0.137171 0.194605 0)
(0.110434 0.221639 0)
(0.170337 0.0847257 0)
(0.430221 -0.246997 0)
(0.544003 -0.369002 0)
(0.760248 -0.29969 0)
(1.40463 -0.325406 0)
(1.47798 -0.243928 0)
(1.40774 -0.212617 0)
(0.661148 -0.347613 0)
(0.959243 -1.08622 0)
(1.04858 -1.06762 0)
(1.1441 -0.74761 0)
(1.16928 -0.570957 0)
(1.14301 -0.331761 0)
(1.18281 0.0282943 0)
(0.740289 0.387879 0)
(0.590525 0.59305 0)
(0.119475 0.0362427 0)
(0.256554 0.0768086 0)
(0.349914 0.122341 0)
(0.532536 -0.0138506 0)
(0.7294 -0.264034 0)
(0.69928 -0.389153 0)
(0.795365 -0.512478 0)
(1.11001 -0.617803 0)
(1.38965 -0.352289 0)
(1.12611 -0.306138 0)
(0.682931 -0.682976 0)
(0.960164 -1.08546 0)
(1.17763 -0.966608 0)
(1.25331 -0.760152 0)
(1.2593 -0.593983 0)
(1.17847 -0.316561 0)
(1.20008 0.0951123 0)
(0.798847 0.553221 0)
(0.595207 0.768785 0)
(0.149088 -0.0966478 0)
(0.348385 -0.0708884 0)
(0.498848 -0.0422456 0)
(0.71611 -0.169658 0)
(0.847273 -0.370878 0)
(0.78608 -0.432922 0)
(0.756433 -0.491661 0)
(0.836318 -0.595172 0)
(1.08061 -0.770831 0)
(1.44331 -0.419142 0)
(1.4602 -0.6132 0)
(1.14894 -0.899532 0)
(1.26595 -0.747138 0)
(1.31048 -0.678153 0)
(1.30274 -0.568179 0)
(1.20631 -0.317642 0)
(1.20655 0.186406 0)
(0.813154 0.6874 0)
(0.576336 0.940987 0)
(0.196216 -0.214727 0)
(0.38666 -0.197898 0)
(0.550925 -0.15445 0)
(0.754365 -0.242074 0)
(0.848158 -0.376556 0)
(0.814114 -0.415473 0)
(0.755642 -0.450353 0)
(0.757568 -0.517234 0)
(0.822595 -0.615256 0)
(0.919827 -0.702712 0)
(1.048 -0.76095 0)
(1.19765 -0.689877 0)
(1.31592 -0.657854 0)
(1.3287 -0.641836 0)
(1.31369 -0.569741 0)
(1.21622 -0.352525 0)
(1.18904 0.215074 0)
(0.862388 0.799924 0)
(0.620574 1.11945 0)
(0.00517209 -0.1542 0)
(0.0162606 -0.152459 0)
(0.0269065 -0.150876 0)
(0.0409764 -0.138621 0)
(0.0516257 -0.135463 0)
(0.0710613 -0.131198 0)
(0.0899117 -0.108002 0)
(0.105633 -0.101639 0)
(0.138992 -0.0954726 0)
(0.162497 -0.0772565 0)
(0.184007 -0.0555056 0)
(0.203981 -0.0401564 0)
(0.218554 -0.0175881 0)
(0.230717 -0.00365506 0)
(0.240274 0.038083 0)
(0.239855 0.0893998 0)
(0.209942 0.210141 0)
(0.129093 0.228357 0)
(0.107201 0.346459 0)
(0.024766 0.381629 0)
(0.0284148 0.373972 0)
(0.129122 0.392284 0)
(0.251514 0.340253 0)
(0.00559275 -0.0956142 0)
(0.017116 -0.0981313 0)
(0.0287023 -0.0995881 0)
(0.0409448 -0.100765 0)
(0.0545319 -0.104149 0)
(0.0656426 -0.12021 0)
(0.0839363 -0.115894 0)
(0.0967582 -0.135541 0)
(0.128052 -0.147973 0)
(0.14734 -0.147674 0)
(0.169804 -0.141205 0)
(0.202584 -0.1374 0)
(0.208866 -0.114984 0)
(0.218031 -0.0956235 0)
(0.208045 -0.0686817 0)
(0.204935 -0.0583455 0)
(0.219338 -0.00525491 0)
(0.202396 0.124571 0)
(0.261803 0.209768 0)
(0.178463 0.380696 0)
(0.103491 0.33951 0)
(0.102595 0.265847 0)
(0.163195 0.272133 0)
(0.00695283 -0.152085 0)
(0.0206109 -0.153975 0)
(0.0338287 -0.153749 0)
(0.0451625 -0.154524 0)
(0.0600921 -0.156018 0)
(0.0671614 -0.167061 0)
(0.0859277 -0.167692 0)
(0.103253 -0.189826 0)
(0.142243 -0.192064 0)
(0.172234 -0.188124 0)
(0.221022 -0.167936 0)
(0.258533 -0.137071 0)
(0.282964 -0.0804737 0)
(0.315714 -0.0499989 0)
(0.311663 0.0088767 0)
(0.334466 0.076308 0)
(0.293976 0.145523 0)
(0.300302 0.187472 0)
(0.31344 0.243383 0)
(0.382893 0.320607 0)
(0.367337 0.404408 0)
(0.296103 0.291846 0)
(0.282221 0.150599 0)
(0.00740571 -0.145541 0)
(0.0215468 -0.147083 0)
(0.0341403 -0.145879 0)
(0.0425884 -0.146991 0)
(0.0529607 -0.151446 0)
(0.0569126 -0.167218 0)
(0.073899 -0.177793 0)
(0.0900438 -0.210029 0)
(0.135132 -0.219021 0)
(0.177736 -0.227141 0)
(0.233631 -0.205057 0)
(0.256428 -0.172171 0)
(0.285079 -0.121372 0)
(0.294226 -0.0942593 0)
(0.298168 -0.0439672 0)
(0.32428 -0.00707997 0)
(0.328997 0.0607416 0)
(0.37643 0.118396 0)
(0.380052 0.201749 0)
(0.464166 0.221641 0)
(0.532668 0.317 0)
(0.634753 0.29414 0)
(0.643634 0.225843 0)
(0.00863702 -0.216747 0)
(0.0210416 -0.21365 0)
(0.0312519 -0.200296 0)
(0.0330403 -0.182296 0)
(0.0330666 -0.159031 0)
(0.0336957 -0.143793 0)
(0.0495508 -0.144646 0)
(0.0571724 -0.207385 0)
(0.104504 -0.275102 0)
(0.155388 -0.317999 0)
(0.202521 -0.299545 0)
(0.222071 -0.252277 0)
(0.244516 -0.19304 0)
(0.267183 -0.147619 0)
(0.27716 -0.0778565 0)
(0.326519 0.00132236 0)
(0.329826 0.0509133 0)
(0.375602 0.10754 0)
(0.40049 0.140115 0)
(0.475073 0.155959 0)
(0.537577 0.165724 0)
(0.657652 0.148967 0)
(0.728589 0.106583 0)
(0.0171161 -0.481376 0)
(0.0382873 -0.475636 0)
(0.0631503 -0.457146 0)
(0.0811434 -0.431403 0)
(0.0894256 -0.392926 0)
(0.0661233 -0.35251 0)
(-0.00882723 -0.329712 0)
(-0.0569253 -0.362562 0)
(-0.0680484 -0.432529 0)
(-0.0656619 -0.441392 0)
(-0.026295 -0.353085 0)
(-0.0318127 -0.288097 0)
(-0.0305712 -0.244522 0)
(-0.0487207 -0.207945 0)
(-0.0203469 -0.18264 0)
(0.0336065 -0.146298 0)
(0.116654 -0.0656039 0)
(0.238477 -0.000883692 0)
(0.296435 0.0627632 0)
(0.368075 0.0470944 0)
(0.479701 0.0738134 0)
(0.547304 0.0131482 0)
(0.634463 0.00466512 0)
(0.0390035 -1.34576 0)
(0.0626583 -1.32563 0)
(0.101392 -1.27072 0)
(0.13068 -1.17141 0)
(0.146132 -1.03135 0)
(0.166376 -0.841519 0)
(0.112123 -0.666575 0)
(-0.0725057 -0.694266 0)
(-0.421794 -0.819189 0)
(-0.571964 -0.689734 0)
(-0.454476 -0.418604 0)
(-0.374354 -0.316863 0)
(-0.339811 -0.245904 0)
(-0.310101 -0.217806 0)
(-0.295741 -0.201293 0)
(-0.256545 -0.184505 0)
(-0.202201 -0.173105 0)
(-0.0856187 -0.134668 0)
(0.102197 -0.0431992 0)
(0.149349 -0.0950941 0)
(0.321655 -0.0283103 0)
(0.343657 -0.0803838 0)
(0.426444 -0.0945371 0)
(0.000327899 -0.862278 0)
(0.0128594 -0.883315 0)
(0.0604668 -0.878414 0)
(0.15881 -0.847216 0)
(0.295163 -0.732133 0)
(0.218762 -0.528817 0)
(0.154879 -0.648648 0)
(-0.0534266 -0.585091 0)
(-0.499339 -0.269144 0)
(-0.6029 -0.602679 0)
(-0.49484 -0.652355 0)
(-0.389258 -0.650959 0)
(-0.352603 -0.591042 0)
(-0.301497 -0.490427 0)
(-0.286668 -0.413777 0)
(-0.246775 -0.341182 0)
(-0.226189 -0.29999 0)
(-0.18404 -0.273739 0)
(-0.157173 -0.235306 0)
(-0.127094 -0.272164 0)
(-0.0439033 -0.274734 0)
(0.0241761 -0.290692 0)
(0.159734 -0.256175 0)
(-0.049141 0.116361 0)
(-0.127216 0.101655 0)
(-0.177386 0.0546426 0)
(-0.198376 -0.0328745 0)
(-0.200678 -0.200874 0)
(-0.264199 -0.369695 0)
(-0.169779 -0.287761 0)
(0.105605 -0.0208743 0)
(0.402664 -0.245182 0)
(0.494865 -0.399515 0)
(0.343339 -0.324654 0)
(0.261073 -0.0756721 0)
(0.218411 0.474768 0)
(0.010458 0.707254 0)
(-0.14712 0.349725 0)
(-0.156282 -0.184218 0)
(-0.118422 -0.459871 0)
(-0.0700663 -0.551619 0)
(-0.0615941 -0.542512 0)
(-0.0378594 -0.563041 0)
(-0.0400077 -0.499934 0)
(0.0463415 -0.543472 0)
(0.119364 -0.544576 0)
(-0.00601533 -0.2029 0)
(-0.0131076 -0.238249 0)
(-0.0195517 -0.256419 0)
(-0.0269783 -0.268143 0)
(-0.0497417 -0.253847 0)
(-0.123186 -0.219329 0)
(-0.0923827 -0.0106704 0)
(0.000196553 0.265767 0)
(0.226813 0.383891 0)
(-0.0473387 0.0105826 0)
(-0.17355 -0.291225 0)
(-0.182337 -0.473805 0)
(-0.088117 -0.61848 0)
(0.143569 -0.721176 0)
(0.394599 -0.751793 0)
(0.565453 -0.644586 0)
(0.67416 -0.405084 0)
(0.639694 -0.154651 0)
(0.805429 0.127403 0)
(0.735123 0.3424 0)
(0.637755 0.637925 0)
(0.54623 0.529573 0)
(0.455353 0.407273 0)
(-0.00338563 -0.166538 0)
(-0.0079254 -0.205048 0)
(-0.0129018 -0.249857 0)
(-0.0229057 -0.298902 0)
(-0.047206 -0.340829 0)
(-0.093731 -0.36122 0)
(-0.0959314 -0.311143 0)
(-0.0405703 -0.284933 0)
(0.206664 0.00887491 0)
(0.230321 0.147216 0)
(0.136346 -0.0183423 0)
(0.144277 -0.184532 0)
(0.150633 -0.0877107 0)
(0.176088 -0.0205561 0)
(0.194946 -0.0295853 0)
(0.203532 -0.110114 0)
(0.222048 -0.207541 0)
(0.190662 -0.345704 0)
(0.150666 -0.420165 0)
(0.18918 -0.477461 0)
(0.301508 -0.677678 0)
(0.441938 -0.760689 0)
(0.52386 -0.75334 0)
(-0.00433768 -0.0491283 0)
(-0.00554379 -0.0968085 0)
(-0.00730431 -0.134468 0)
(-0.0159275 -0.172169 0)
(-0.0346422 -0.199176 0)
(-0.062511 -0.202681 0)
(-0.076186 -0.161635 0)
(-0.086833 -0.125413 0)
(-0.0654555 0.00709145 0)
(0.0961574 0.0311373 0)
(0.168921 -0.191916 0)
(0.171547 -0.36443 0)
(0.157565 -0.41429 0)
(0.177871 -0.424338 0)
(0.222873 -0.396258 0)
(0.246396 -0.330403 0)
(0.27503 -0.23223 0)
(0.293468 -0.13357 0)
(0.308748 0.00325941 0)
(0.301748 0.106721 0)
(0.263172 0.0766229 0)
(0.188081 -0.0431053 0)
(0.158219 -0.0649176 0)
(0.00826462 -0.15682 0)
(0.0210655 -0.188282 0)
(0.0231078 -0.207378 0)
(0.0145835 -0.227354 0)
(-0.00455279 -0.239468 0)
(-0.0287944 -0.236768 0)
(-0.0497151 -0.216747 0)
(-0.0568828 -0.19235 0)
(-0.0636088 -0.122555 0)
(0.0620702 -0.0568752 0)
(0.103898 -0.155976 0)
(0.105283 -0.24381 0)
(0.0725383 -0.272673 0)
(0.0454207 -0.29911 0)
(0.0348867 -0.321957 0)
(0.0295871 -0.326999 0)
(0.0300245 -0.315687 0)
(0.0346456 -0.310901 0)
(0.0559744 -0.301005 0)
(0.117817 -0.287172 0)
(0.162186 -0.280274 0)
(0.144799 -0.29103 0)
(0.0899739 -0.284593 0)
(0.00627061 -0.122935 0)
(0.0167951 -0.157166 0)
(0.0216833 -0.175863 0)
(0.0175447 -0.191595 0)
(0.00412196 -0.201281 0)
(-0.0141182 -0.201256 0)
(-0.0319504 -0.194984 0)
(-0.0393874 -0.180728 0)
(-0.0388582 -0.162939 0)
(0.0202432 -0.14732 0)
(0.0539495 -0.209455 0)
(0.0283507 -0.25654 0)
(0.00295517 -0.276885 0)
(-0.0224331 -0.290846 0)
(-0.0430318 -0.289641 0)
(-0.0630689 -0.269404 0)
(-0.0785883 -0.241373 0)
(-0.0907688 -0.209005 0)
(-0.101658 -0.169189 0)
(-0.0995498 -0.142007 0)
(-0.0895618 -0.146269 0)
(-0.0850935 -0.175804 0)
(-0.0722533 -0.190856 0)
(0.00463677 -0.143417 0)
(0.0115833 -0.170367 0)
(0.0146736 -0.178683 0)
(0.00940189 -0.183486 0)
(-0.000414599 -0.184776 0)
(-0.0124528 -0.182885 0)
(-0.022762 -0.177679 0)
(-0.0269787 -0.169897 0)
(-0.0249106 -0.164975 0)
(-0.00392717 -0.157182 0)
(0.00654577 -0.195435 0)
(-0.0142231 -0.225408 0)
(-0.036182 -0.261218 0)
(-0.0596426 -0.287785 0)
(-0.0871023 -0.294656 0)
(-0.10869 -0.280233 0)
(-0.122876 -0.261193 0)
(-0.134569 -0.243002 0)
(-0.139144 -0.216349 0)
(-0.129946 -0.198505 0)
(-0.122198 -0.189563 0)
(-0.116437 -0.192357 0)
(-0.117982 -0.194976 0)
(0.00273352 -0.151336 0)
(0.00482411 -0.175545 0)
(0.00150005 -0.178142 0)
(-0.00411736 -0.178937 0)
(-0.00910414 -0.17839 0)
(-0.0136785 -0.177208 0)
(-0.0176408 -0.174703 0)
(-0.0184616 -0.171196 0)
(-0.0174884 -0.170731 0)
(-0.00938236 -0.167531 0)
(-0.00803129 -0.1824 0)
(-0.0218481 -0.198022 0)
(-0.0424135 -0.222801 0)
(-0.0698683 -0.246125 0)
(-0.100479 -0.256272 0)
(-0.119768 -0.252473 0)
(-0.131518 -0.239572 0)
(-0.138349 -0.227056 0)
(-0.138346 -0.210638 0)
(-0.131395 -0.203687 0)
(-0.128143 -0.202947 0)
(-0.128498 -0.200428 0)
(-0.126784 -0.191426 0)
(0.00124525 -0.152771 0)
(-0.00099479 -0.173322 0)
(-0.00421114 -0.174118 0)
(-0.007745 -0.17553 0)
(-0.0110019 -0.17643 0)
(-0.0138134 -0.175529 0)
(-0.0144004 -0.174046 0)
(-0.0135375 -0.173853 0)
(-0.0132252 -0.174225 0)
(-0.00966266 -0.171815 0)
(-0.0101666 -0.177989 0)
(-0.0164159 -0.187032 0)
(-0.0248698 -0.204787 0)
(-0.0458438 -0.222729 0)
(-0.0748399 -0.233679 0)
(-0.0962032 -0.237534 0)
(-0.108174 -0.232246 0)
(-0.114585 -0.227746 0)
(-0.116204 -0.213124 0)
(-0.118174 -0.202612 0)
(-0.126618 -0.200705 0)
(-0.131911 -0.203228 0)
(-0.135203 -0.198556 0)
(2.65854e-05 -0.152464 0)
(-0.00247037 -0.170634 0)
(-0.00487814 -0.170904 0)
(-0.00657564 -0.172062 0)
(-0.00899566 -0.173372 0)
(-0.0105966 -0.173978 0)
(-0.0118523 -0.174453 0)
(-0.0121665 -0.174499 0)
(-0.0120018 -0.174621 0)
(-0.0113298 -0.17305 0)
(-0.0103534 -0.177107 0)
(-0.0128818 -0.184791 0)
(-0.0171337 -0.195982 0)
(-0.029279 -0.202736 0)
(-0.0460021 -0.210285 0)
(-0.0597076 -0.217225 0)
(-0.0768322 -0.218504 0)
(-0.0903264 -0.214803 0)
(-0.0999251 -0.205597 0)
(-0.10675 -0.191478 0)
(-0.115191 -0.185832 0)
(-0.129215 -0.183887 0)
(-0.140408 -0.180168 0)
(-0.000874136 -0.149808 0)
(-0.00217164 -0.167763 0)
(-0.00344659 -0.168803 0)
(-0.00505144 -0.170406 0)
(-0.0073587 -0.171475 0)
(-0.0102417 -0.172911 0)
(-0.0127854 -0.173496 0)
(-0.0152934 -0.174236 0)
(-0.0172758 -0.174242 0)
(-0.0179744 -0.17519 0)
(-0.0178761 -0.177991 0)
(-0.0179822 -0.184177 0)
(-0.0225235 -0.189599 0)
(-0.0307969 -0.195277 0)
(-0.0425151 -0.20249 0)
(-0.0542308 -0.204778 0)
(-0.0737175 -0.202869 0)
(-0.0892485 -0.198937 0)
(-0.0991065 -0.195439 0)
(-0.109842 -0.185105 0)
(-0.12202 -0.175087 0)
(-0.134694 -0.176874 0)
(-0.144537 -0.178533 0)
(-0.000263829 -0.148428 0)
(-0.00202246 -0.166501 0)
(-0.00384903 -0.166909 0)
(-0.00709062 -0.167478 0)
(-0.00989983 -0.168056 0)
(-0.013417 -0.168736 0)
(-0.0170262 -0.169337 0)
(-0.0203025 -0.170245 0)
(-0.0234647 -0.172005 0)
(-0.0261297 -0.173904 0)
(-0.0283929 -0.175549 0)
(-0.0311321 -0.177953 0)
(-0.0363358 -0.181817 0)
(-0.0417957 -0.187018 0)
(-0.0513687 -0.189048 0)
(-0.0622263 -0.186461 0)
(-0.0751645 -0.189312 0)
(-0.0861054 -0.191542 0)
(-0.097239 -0.186801 0)
(-0.107855 -0.176178 0)
(-0.114655 -0.164925 0)
(-0.123342 -0.165226 0)
(-0.130506 -0.168613 0)
(-0.000552715 -0.147603 0)
(-0.00249268 -0.164064 0)
(-0.00590887 -0.163628 0)
(-0.00822525 -0.164005 0)
(-0.0109831 -0.164494 0)
(-0.0135432 -0.164802 0)
(-0.0162387 -0.165606 0)
(-0.019341 -0.166188 0)
(-0.023083 -0.166834 0)
(-0.0272241 -0.169252 0)
(-0.0318832 -0.172261 0)
(-0.0360447 -0.17526 0)
(-0.0425652 -0.176694 0)
(-0.0503544 -0.178478 0)
(-0.0581749 -0.17857 0)
(-0.0666643 -0.178377 0)
(-0.0741224 -0.176949 0)
(-0.0844103 -0.175038 0)
(-0.096839 -0.171101 0)
(-0.108012 -0.163652 0)
(-0.116416 -0.155794 0)
(-0.124993 -0.157149 0)
(-0.130538 -0.157888 0)
(-0.000960503 -0.145313 0)
(-0.00343097 -0.161586 0)
(-0.00530202 -0.161523 0)
(-0.00743854 -0.162334 0)
(-0.00980029 -0.162415 0)
(-0.0121912 -0.162372 0)
(-0.014889 -0.162631 0)
(-0.0177304 -0.162984 0)
(-0.0207859 -0.164082 0)
(-0.0246322 -0.165821 0)
(-0.030478 -0.167656 0)
(-0.0349539 -0.169444 0)
(-0.0407 -0.169255 0)
(-0.0484525 -0.170963 0)
(-0.0561252 -0.171622 0)
(-0.0645386 -0.172233 0)
(-0.0713446 -0.171835 0)
(-0.0799589 -0.168561 0)
(-0.0899422 -0.165131 0)
(-0.0976657 -0.158834 0)
(-0.104474 -0.152657 0)
(-0.110243 -0.153205 0)
(-0.119107 -0.155835 0)
(-0.000703068 -0.14382 0)
(-0.00277342 -0.159589 0)
(-0.00530656 -0.159415 0)
(-0.00792096 -0.15948 0)
(-0.0106847 -0.159771 0)
(-0.0134752 -0.160363 0)
(-0.0161013 -0.160792 0)
(-0.0187678 -0.161105 0)
(-0.0215913 -0.161088 0)
(-0.0251485 -0.161434 0)
(-0.0282784 -0.162426 0)
(-0.0341591 -0.162535 0)
(-0.0396474 -0.163803 0)
(-0.0447484 -0.163988 0)
(-0.0512956 -0.163678 0)
(-0.0591571 -0.162411 0)
(-0.068874 -0.159689 0)
(-0.0790011 -0.156331 0)
(-0.0863789 -0.153315 0)
(-0.0932101 -0.147016 0)
(-0.10245 -0.141662 0)
(-0.106857 -0.14048 0)
(-0.115628 -0.13946 0)
(-0.00112291 -0.141094 0)
(-0.00382111 -0.156591 0)
(-0.0065625 -0.156578 0)
(-0.00918262 -0.156842 0)
(-0.0118435 -0.156945 0)
(-0.0145787 -0.156957 0)
(-0.0175999 -0.157143 0)
(-0.0208198 -0.157491 0)
(-0.0242023 -0.157894 0)
(-0.0273078 -0.157311 0)
(-0.0318098 -0.157175 0)
(-0.0374573 -0.15835 0)
(-0.0430865 -0.158781 0)
(-0.048806 -0.157598 0)
(-0.0547927 -0.156899 0)
(-0.0611577 -0.154849 0)
(-0.0672322 -0.152611 0)
(-0.0732206 -0.152679 0)
(-0.0800649 -0.149262 0)
(-0.0885662 -0.143419 0)
(-0.0940692 -0.138544 0)
(-0.101777 -0.137022 0)
(-0.10977 -0.132465 0)
(-0.000780426 -0.139872 0)
(-0.00276443 -0.154802 0)
(-0.00522696 -0.154502 0)
(-0.00769249 -0.154482 0)
(-0.0103311 -0.154448 0)
(-0.0130883 -0.154458 0)
(-0.0159534 -0.154404 0)
(-0.0190644 -0.15441 0)
(-0.0225778 -0.154469 0)
(-0.026943 -0.154703 0)
(-0.0309912 -0.154204 0)
(-0.0338374 -0.15388 0)
(-0.0385462 -0.153267 0)
(-0.0452007 -0.152697 0)
(-0.0513396 -0.152072 0)
(-0.0564303 -0.149978 0)
(-0.0635609 -0.14794 0)
(-0.0707967 -0.142804 0)
(-0.0793603 -0.138097 0)
(-0.0846195 -0.13439 0)
(-0.090317 -0.131923 0)
(-0.0975471 -0.127433 0)
(-0.105433 -0.121939 0)
(-0.0010241 -0.136999 0)
(-0.00348869 -0.151558 0)
(-0.006094 -0.151322 0)
(-0.00867244 -0.15128 0)
(-0.0114292 -0.151176 0)
(-0.014422 -0.151114 0)
(-0.0175499 -0.15108 0)
(-0.0207774 -0.150915 0)
(-0.0242367 -0.150511 0)
(-0.0278332 -0.149697 0)
(-0.0312166 -0.148977 0)
(-0.0355862 -0.148468 0)
(-0.0402669 -0.147061 0)
(-0.044163 -0.14588 0)
(-0.0500646 -0.143757 0)
(-0.0577733 -0.142556 0)
(-0.0630631 -0.139614 0)
(-0.06855 -0.13675 0)
(-0.0727171 -0.135434 0)
(-0.0784499 -0.131373 0)
(-0.0849197 -0.124382 0)
(-0.0930768 -0.119097 0)
(-0.0986698 -0.116234 0)
(-0.000977328 -0.135658 0)
(-0.00323889 -0.149965 0)
(-0.00570843 -0.149714 0)
(-0.0080338 -0.149589 0)
(-0.0104088 -0.149333 0)
(-0.0127653 -0.148894 0)
(-0.0153783 -0.148426 0)
(-0.0183445 -0.148002 0)
(-0.0215134 -0.147446 0)
(-0.024895 -0.14678 0)
(-0.0291935 -0.146032 0)
(-0.0342696 -0.144684 0)
(-0.0388403 -0.143716 0)
(-0.0439703 -0.141656 0)
(-0.0481598 -0.140238 0)
(-0.0512456 -0.138681 0)
(-0.0569874 -0.135992 0)
(-0.0628789 -0.132545 0)
(-0.0690639 -0.126537 0)
(-0.0768462 -0.122058 0)
(-0.0816395 -0.119648 0)
(-0.0863896 -0.11523 0)
(-0.0929078 -0.108113 0)
(-0.000974991 -0.13287 0)
(-0.00322014 -0.146754 0)
(-0.00573319 -0.14648 0)
(-0.00823437 -0.146253 0)
(-0.0109456 -0.145961 0)
(-0.0138135 -0.145674 0)
(-0.0167631 -0.145285 0)
(-0.0198247 -0.14467 0)
(-0.0230221 -0.143849 0)
(-0.0262945 -0.142751 0)
(-0.0293404 -0.141235 0)
(-0.0320171 -0.140018 0)
(-0.0357624 -0.138706 0)
(-0.0399734 -0.137293 0)
(-0.0448528 -0.134776 0)
(-0.0510617 -0.131444 0)
(-0.0570887 -0.12863 0)
(-0.0618818 -0.124943 0)
(-0.0662903 -0.122934 0)
(-0.0695663 -0.119974 0)
(-0.0752443 -0.113434 0)
(-0.0818948 -0.107835 0)
(-0.0867951 -0.103098 0)
(-0.000915134 -0.131557 0)
(-0.00290174 -0.145251 0)
(-0.00510816 -0.144961 0)
(-0.00720524 -0.144627 0)
(-0.00942491 -0.144135 0)
(-0.011767 -0.143503 0)
(-0.0143327 -0.142771 0)
(-0.0171501 -0.141962 0)
(-0.0202212 -0.141048 0)
(-0.023569 -0.140021 0)
(-0.027356 -0.13886 0)
(-0.0317608 -0.137125 0)
(-0.0359154 -0.135062 0)
(-0.0400227 -0.132852 0)
(-0.0440865 -0.130737 0)
(-0.0476336 -0.128909 0)
(-0.051064 -0.126322 0)
(-0.055665 -0.122648 0)
(-0.0607075 -0.117137 0)
(-0.0665655 -0.112136 0)
(-0.0714109 -0.108682 0)
(-0.0758997 -0.103752 0)
(-0.0807988 -0.0976173 0)
(-0.000919688 -0.128986 0)
(-0.00297108 -0.142365 0)
(-0.00524253 -0.142088 0)
(-0.00745418 -0.141688 0)
(-0.00980037 -0.141139 0)
(-0.0122314 -0.140439 0)
(-0.0147552 -0.139557 0)
(-0.017381 -0.138488 0)
(-0.0201305 -0.137238 0)
(-0.0230116 -0.135783 0)
(-0.0259472 -0.134103 0)
(-0.0287701 -0.132472 0)
(-0.0319848 -0.130774 0)
(-0.0355831 -0.128619 0)
(-0.039466 -0.126012 0)
(-0.0439231 -0.122767 0)
(-0.0489192 -0.119287 0)
(-0.0536117 -0.115999 0)
(-0.0577799 -0.113017 0)
(-0.0614762 -0.109115 0)
(-0.0657955 -0.103941 0)
(-0.0706609 -0.0987265 0)
(-0.0749587 -0.0932058 0)
(-0.000831926 -0.127834 0)
(-0.00253506 -0.141032 0)
(-0.00450238 -0.140746 0)
(-0.00638416 -0.140273 0)
(-0.00843724 -0.139634 0)
(-0.0106271 -0.138841 0)
(-0.0129963 -0.137897 0)
(-0.0155519 -0.136805 0)
(-0.0182923 -0.135564 0)
(-0.0212076 -0.134142 0)
(-0.0242656 -0.132365 0)
(-0.0275624 -0.130168 0)
(-0.0310103 -0.127875 0)
(-0.0345291 -0.125534 0)
(-0.0381053 -0.122922 0)
(-0.0416385 -0.120123 0)
(-0.0451106 -0.116986 0)
(-0.0488011 -0.113141 0)
(-0.0528854 -0.108674 0)
(-0.0571132 -0.104147 0)
(-0.0611447 -0.0997094 0)
(-0.0652098 -0.0947021 0)
(-0.0691858 -0.089079 0)
(-0.000767126 -0.125591 0)
(-0.00240891 -0.138529 0)
(-0.00427742 -0.138209 0)
(-0.00606591 -0.13758 0)
(-0.00799973 -0.136765 0)
(-0.0100231 -0.13575 0)
(-0.0121674 -0.134542 0)
(-0.0144492 -0.133164 0)
(-0.01688 -0.13162 0)
(-0.0194835 -0.129945 0)
(-0.0222796 -0.128239 0)
(-0.0251307 -0.126378 0)
(-0.0280619 -0.124165 0)
(-0.0311873 -0.121603 0)
(-0.034511 -0.118808 0)
(-0.0380137 -0.115698 0)
(-0.041683 -0.112278 0)
(-0.0453906 -0.108697 0)
(-0.0489908 -0.104861 0)
(-0.0525179 -0.100575 0)
(-0.0561266 -0.0958396 0)
(-0.059916 -0.0908297 0)
(-0.0635503 -0.0853919 0)
(-0.000657815 -0.124645 0)
(-0.00202019 -0.137496 0)
(-0.0036737 -0.137189 0)
(-0.00522327 -0.136523 0)
(-0.00693941 -0.13567 0)
(-0.00875922 -0.134607 0)
(-0.0107271 -0.133337 0)
(-0.0128573 -0.131881 0)
(-0.0151408 -0.130231 0)
(-0.0175585 -0.128356 0)
(-0.0201182 -0.126244 0)
(-0.0228587 -0.123922 0)
(-0.0257432 -0.121462 0)
(-0.0287029 -0.118824 0)
(-0.0317368 -0.115915 0)
(-0.0348524 -0.112744 0)
(-0.0380244 -0.109295 0)
(-0.0412705 -0.105485 0)
(-0.0446118 -0.101345 0)
(-0.0479693 -0.0969433 0)
(-0.0512852 -0.0923079 0)
(-0.0546699 -0.08736 0)
(-0.0579987 -0.0820138 0)
(-0.000506291 -0.123075 0)
(-0.0016639 -0.135554 0)
(-0.00313296 -0.135206 0)
(-0.00446895 -0.134402 0)
(-0.00597245 -0.133404 0)
(-0.00755395 -0.132182 0)
(-0.00924549 -0.130748 0)
(-0.0110877 -0.12914 0)
(-0.0131091 -0.127373 0)
(-0.0153256 -0.125454 0)
(-0.0177221 -0.123374 0)
(-0.020254 -0.121094 0)
(-0.0228941 -0.11856 0)
(-0.0256433 -0.115764 0)
(-0.0284854 -0.112748 0)
(-0.0313997 -0.109491 0)
(-0.0343684 -0.10597 0)
(-0.0373746 -0.102194 0)
(-0.0403955 -0.0981337 0)
(-0.0434144 -0.0937623 0)
(-0.0464255 -0.0890973 0)
(-0.0494959 -0.0841727 0)
(-0.0525465 -0.0789246 0)
(-0.000323795 -0.122417 0)
(-0.00130366 -0.134655 0)
(-0.00266135 -0.134296 0)
(-0.00381626 -0.133432 0)
(-0.00514335 -0.132384 0)
(-0.00650358 -0.131092 0)
(-0.0078479 -0.129466 0)
(-0.0092321 -0.127595 0)
(-0.0107554 -0.125525 0)
(-0.0124976 -0.123289 0)
(-0.0145341 -0.120943 0)
(-0.0168842 -0.118498 0)
(-0.0194728 -0.115925 0)
(-0.0222412 -0.113179 0)
(-0.0249883 -0.110105 0)
(-0.0277699 -0.106782 0)
(-0.0305438 -0.103197 0)
(-0.0333116 -0.0993461 0)
(-0.0360855 -0.0952221 0)
(-0.0388507 -0.0908283 0)
(-0.0415963 -0.086173 0)
(-0.0443721 -0.0812659 0)
(-0.0471631 -0.07608 0)
(-4.78471e-05 -0.121491 0)
(-0.000978263 -0.133204 0)
(-0.00242049 -0.132828 0)
(-0.00350978 -0.131915 0)
(-0.00477783 -0.130814 0)
(-0.00602408 -0.129489 0)
(-0.00729853 -0.127977 0)
(-0.00857197 -0.126168 0)
(-0.00986168 -0.124027 0)
(-0.0111958 -0.121562 0)
(-0.0126102 -0.118843 0)
(-0.0141819 -0.115953 0)
(-0.0160064 -0.112993 0)
(-0.0181819 -0.110019 0)
(-0.0207578 -0.107024 0)
(-0.023519 -0.10386 0)
(-0.0263504 -0.100465 0)
(-0.0290578 -0.0966795 0)
(-0.0316878 -0.0925758 0)
(-0.0342436 -0.0881883 0)
(-0.0367587 -0.0835295 0)
(-0.0392778 -0.0786185 0)
(-0.0418356 -0.0734589 0)
(0.000126356 -0.121079 0)
(-0.000926865 -0.131929 0)
(-0.00277499 -0.131556 0)
(-0.00403423 -0.130697 0)
(-0.0054498 -0.129616 0)
(-0.0067659 -0.128356 0)
(-0.0080629 -0.126872 0)
(-0.00931178 -0.125088 0)
(-0.0104941 -0.122971 0)
(-0.0116262 -0.12055 0)
(-0.0127523 -0.117837 0)
(-0.0139492 -0.114897 0)
(-0.0152583 -0.111735 0)
(-0.0166042 -0.108236 0)
(-0.0180199 -0.104663 0)
(-0.0196739 -0.101041 0)
(-0.0216868 -0.0973878 0)
(-0.0242181 -0.0937701 0)
(-0.0268852 -0.0899416 0)
(-0.0294294 -0.0857481 0)
(-0.031816 -0.0811256 0)
(-0.0341514 -0.0762121 0)
(-0.0365122 -0.071053 0)
(0.000173834 -0.120904 0)
(-0.00136242 -0.13048 0)
(-0.00396159 -0.130113 0)
(-0.00575085 -0.129401 0)
(-0.00766077 -0.128424 0)
(-0.00931814 -0.127176 0)
(-0.0109215 -0.125711 0)
(-0.0123647 -0.123989 0)
(-0.0136335 -0.122014 0)
(-0.0146597 -0.119721 0)
(-0.0154241 -0.117062 0)
(-0.0159947 -0.11405 0)
(-0.0165095 -0.110773 0)
(-0.0171216 -0.107349 0)
(-0.0179067 -0.103728 0)
(-0.0188542 -0.0999097 0)
(-0.0199606 -0.095838 0)
(-0.0209529 -0.0916021 0)
(-0.0222722 -0.0873223 0)
(-0.0241174 -0.0830241 0)
(-0.0264792 -0.078633 0)
(-0.0288445 -0.0739224 0)