/*--------------------------------*- C++ -*----------------------------------*\
| =========                 |                                                 |
| \\      /  F ield         | OpenFOAM: The Open Source CFD Toolbox           |
|  \\    /   O peration     | Version:  2.4.0                                 |
|   \\  /    A nd           | Web:      www.OpenFOAM.org                      |
|    \\/     M anipulation  |                                                 |
\*---------------------------------------------------------------------------*/
FoamFile
{
    version     2.0;
    format      ascii;
    class       volScalarField;
    location    "0.1";
    object      alpha.air;
}
// * * * * * * * * * * * * * * * * * * * * * * * * * * * * * * * * * * * * * //

dimensions      [0 0 0 0 0 0 0];

internalField   nonuniform List<scalar> 
575
(
2.34057e-35
2.47776e-35
5.43558e-35
1.80522e-34
9.8955e-34
8.25158e-33
9.88839e-32
1.30723e-30
1.41618e-29
2.11606e-28
1.81948e-27
3.54755e-26
6.48336e-26
3.61222e-26
1.02779e-26
1.91472e-27
2.98118e-28
4.71742e-29
7.27694e-30
1.00132e-30
1.07564e-31
6.30536e-33
5.16829e-33
5.15946e-33
1.05591e-32
3.14325e-32
1.50176e-31
1.08707e-30
1.09861e-29
1.22271e-28
1.10079e-27
1.25493e-26
1.09294e-25
1.36143e-24
1.98026e-24
1.00533e-24
2.89476e-25
5.80368e-26
1.00411e-26
1.6378e-27
2.43554e-28
2.65854e-29
1.88563e-30
9.14968e-32
5.44527e-31
5.12624e-31
9.80598e-31
2.61586e-30
1.09055e-29
6.86644e-29
5.8606e-28
5.49735e-27
4.11738e-26
3.65631e-25
3.059e-24
2.59019e-23
3.06381e-23
1.39391e-23
3.86302e-24
7.89494e-25
1.42111e-25
2.25445e-26
2.81314e-27
2.34752e-28
1.38909e-29
6.22758e-31
3.65128e-29
3.2417e-29
5.81156e-29
1.38852e-28
5.05953e-28
2.77789e-27
2.00501e-26
1.58867e-25
9.89951e-25
7.00274e-24
5.39081e-23
3.24869e-22
3.15622e-22
1.27861e-22
3.36302e-23
6.86606e-24
1.12891e-24
1.54624e-25
1.49609e-26
1.03374e-27
5.86339e-29
2.64284e-30
1.75332e-27
1.46795e-27
2.47496e-27
5.29133e-27
1.689e-26
8.11103e-26
4.95697e-25
3.32857e-24
1.7309e-23
9.87546e-23
6.81802e-22
3.01944e-21
2.43902e-21
8.7029e-22
2.12692e-22
3.92766e-23
5.69353e-24
6.20451e-25
4.66708e-26
2.95518e-27
1.69568e-28
8.10493e-30
6.43281e-26
5.07616e-26
8.08206e-26
1.54445e-25
4.33149e-25
1.82566e-24
9.46266e-24
5.40644e-23
2.35873e-22
1.09564e-21
6.64073e-21
2.21794e-20
1.5105e-20
4.69715e-21
1.02316e-21
1.61834e-22
1.90745e-23
1.54887e-24
9.95283e-26
6.1681e-27
3.70903e-28
1.96589e-29
1.87945e-24
1.39552e-24
2.10722e-24
3.59659e-24
8.89611e-24
3.30312e-23
1.45548e-22
7.10575e-22
2.62213e-21
9.98114e-21
5.23872e-20
1.34891e-19
7.84604e-20
2.09765e-20
3.85665e-21
4.97413e-22
4.49883e-23
2.87707e-24
1.74461e-25
1.11603e-26
7.33532e-28
4.38181e-29
4.50376e-23
3.13456e-23
4.5051e-23
6.87192e-23
1.5061e-22
4.94501e-22
1.85884e-21
7.78902e-21
2.4575e-20
7.71871e-20
3.49241e-19
7.05392e-19
3.54652e-19
7.68325e-20
1.10102e-20
1.12428e-21
7.2989e-23
3.97993e-24
2.43274e-25
1.6738e-26
1.24504e-27
8.89148e-29
9.06169e-22
5.86775e-22
8.04213e-22
1.09984e-21
2.14706e-21
6.25809e-21
2.01679e-20
7.28839e-20
1.9918e-19
5.23186e-19
2.04033e-18
3.28324e-18
1.43549e-18
2.30752e-19
2.00962e-20
1.04344e-21
4.62641e-23
2.57995e-24
1.79342e-25
1.44218e-26
1.3269e-27
1.32605e-28
2.94112e-20
1.74634e-20
2.27427e-20
2.80135e-20
4.88642e-20
1.26588e-19
3.51505e-19
1.09261e-18
2.62993e-18
5.84502e-18
1.92336e-17
2.51669e-17
9.28399e-18
1.10098e-18
5.4839e-20
1.74085e-21
7.13894e-23
3.92659e-24
2.69581e-25
2.19285e-26
2.0784e-27
2.30203e-28
7.80255e-19
4.17219e-19
5.12272e-19
5.79967e-19
9.1707e-19
2.10917e-18
5.1308e-18
1.3788e-17
3.04422e-17
6.11555e-17
1.6928e-16
1.70457e-16
5.61574e-17
6.57589e-18
4.81295e-19
7.50888e-20
7.6888e-20
5.55174e-21
4.89954e-22
5.11693e-21
6.74102e-21
1.73213e-18
1.75193e-17
8.25772e-18
9.39688e-18
9.97247e-18
1.48634e-17
3.05001e-17
6.65417e-17
1.575e-16
3.26982e-16
6.13288e-16
1.28339e-15
1.02575e-15
3.23463e-16
4.4171e-17
5.69971e-18
3.0214e-18
2.0205e-17
1.05607e-16
2.94508e-16
1.19415e-15
2.60014e-15
7.89514e-15
3.36867e-16
1.42937e-16
1.40794e-16
1.42774e-16
2.04054e-16
3.65842e-16
7.06697e-16
1.51114e-15
3.13739e-15
5.99374e-15
9.48142e-15
6.10701e-15
1.78165e-15
2.61573e-16
5.55011e-17
7.40056e-17
8.96963e-16
4.19191e-15
1.53578e-14
4.78647e-14
1.14988e-13
2.17445e-13
4.88489e-15
1.65093e-15
1.55586e-15
1.58515e-15
2.40657e-15
3.95129e-15
6.85368e-15
1.45599e-14
3.05036e-14
6.1447e-14
6.99231e-14
3.62617e-14
9.32648e-15
1.35225e-15
5.33184e-16
1.29789e-15
2.16265e-14
7.11612e-14
2.82638e-13
8.03056e-13
1.66415e-12
2.61736e-12
5.95339e-14
1.48089e-14
1.43309e-14
1.67278e-14
2.62927e-14
4.0349e-14
5.99513e-14
1.49247e-13
2.69112e-13
6.30286e-13
4.68367e-13
2.01275e-13
4.58383e-14
6.51738e-15
4.89343e-15
1.61604e-14
3.22323e-13
7.1484e-13
2.37327e-12
8.18615e-12
2.12702e-11
2.85316e-11
6.3608e-13
1.16656e-13
1.35221e-13
1.90293e-13
2.58046e-13
3.8271e-13
4.46538e-13
1.59784e-12
1.66831e-12
5.9657e-12
2.4923e-12
9.40163e-13
1.9638e-13
2.77908e-14
3.76688e-14
1.39807e-13
2.61919e-12
5.19313e-12
4.7918e-11
6.92624e-11
1.65917e-10
1.77562e-10
6.05198e-12
1.00527e-12
1.54234e-12
2.02349e-12
1.76214e-12
3.01542e-12
2.63518e-12
1.62723e-11
3.37363e-11
5.03549e-11
2.59706e-11
3.20829e-12
6.50191e-13
9.86478e-14
2.23708e-13
7.74359e-13
3.89263e-11
1.77142e-10
3.49011e-10
6.45869e-10
1.00584e-09
9.03334e-10
1.61457e-09
5.11859e-11
1.09794e-11
1.89002e-11
3.05341e-11
4.82807e-11
6.81587e-11
1.03015e-10
1.47445e-10
2.55625e-10
3.5315e-10
3.03822e-10
2.97477e-11
1.34215e-12
2.64875e-13
9.51297e-13
2.96158e-12
3.3517e-10
1.01005e-09
1.98195e-09
3.30924e-09
4.51395e-09
3.7731e-09
6.48716e-09
3.79568e-10
1.29088e-10
2.03797e-10
2.89455e-10
3.96694e-10
5.3973e-10
7.51774e-10
1.09376e-09
1.69427e-09
2.0458e-09
2.20355e-09
1.9623e-10
2.86921e-12
5.83945e-13
2.58492e-12
9.60614e-11
2.00395e-09
4.95388e-09
8.89603e-09
1.27203e-08
1.92313e-08
1.24178e-08
2.8384e-08
2.37804e-09
1.30119e-09
1.7323e-09
2.18663e-09
2.77069e-09
3.6315e-09
4.5784e-09
6.50608e-09
9.05728e-09
9.77783e-09
1.03968e-08
8.82243e-10
6.93748e-12
1.48162e-12
4.72364e-12
1.66303e-09
9.45642e-09
1.94524e-08
3.27731e-08
5.13154e-08
5.99102e-08
4.4956e-08
6.23466e-08
1.43025e-08
9.84434e-09
1.10904e-08
1.27669e-08
1.52855e-08
1.9342e-08
2.55298e-08
3.75015e-08
4.85114e-08
5.1796e-08
5.02667e-08
1.59201e-08
9.13165e-10
3.46536e-11
5.02143e-10
1.23578e-08
3.49211e-08
7.88419e-08
1.13453e-07
1.34317e-07
1.39546e-07
8.20412e-08
1.49851e-06
7.01231e-08
6.80574e-08
7.13914e-08
7.91833e-08
9.03103e-08
1.08354e-07
1.3264e-07
1.5853e-07
1.86268e-07
2.18411e-07
2.81734e-07
7.18447e-07
2.33275e-07
3.21582e-07
2.10245e-07
6.54012e-08
1.42876e-07
2.09906e-07
3.16789e-07
9.76703e-07
5.10497e-06
2.83505e-05
0.00101288
3.9986e-06
4.38086e-06
5.17842e-06
6.61924e-06
9.12157e-06
1.34992e-05
2.13244e-05
3.56213e-05
6.22005e-05
0.000111761
0.000195808
0.00036558
0.000143558
0.000102499
3.67149e-06
7.20752e-06
2.00814e-05
6.41587e-05
0.000218759
0.000756317
0.00249469
0.00827152
0.070511
0.00241011
0.00256051
0.0028653
0.00337397
0.00416593
0.00537426
0.00720045
0.00994568
0.0140319
0.0199734
0.0276259
0.0386515
0.0114118
0.00175094
0.00215256
0.00376038
0.00732508
0.0151086
0.0315908
0.0645975
0.123465
0.234811
0.582924
0.134292
0.138545
0.146797
0.15955
0.177448
0.201299
0.231982
0.270211
0.316225
0.369014
0.421991
0.471394
0.122485
0.110492
0.131072
0.174894
0.243109
0.340203
0.465287
0.606931
0.740817
0.867146
0.971946
0.800761
0.806659
0.817438
0.832618
0.851405
0.872698
0.895207
0.917381
0.937766
0.955105
0.967991
0.954462
0.787157
0.772118
0.807343
0.861065
)
;

boundaryField
{
    leftWall
    {
        type            alphaContactAngle;
        thetaProperties 
6
(

(
water
mercury
)
 90 0 0 0

(
water
air
)
 90 0 0 0

(
water
oil
)
 90 0 0 0

(
mercury
air
)
 90 0 0 0

(
oil
mercury
)
 90 0 0 0

(
oil
air
)
 90 0 0 0
);
        value           nonuniform List<scalar> 
26
(
2.34057e-35
5.16829e-33
5.44527e-31
3.65128e-29
1.75332e-27
6.43281e-26
1.87945e-24
4.50376e-23
9.06169e-22
2.94112e-20
7.80255e-19
1.75193e-17
3.36867e-16
4.88489e-15
5.95339e-14
6.3608e-13
6.05198e-12
5.11859e-11
3.79568e-10
2.37804e-09
1.43025e-08
7.01231e-08
3.9986e-06
0.00241011
0.134292
0.800761
)
;
    }
    rightWall
    {
        type            alphaContactAngle;
        thetaProperties 
6
(

(
water
mercury
)
 90 0 0 0

(
water
air
)
 90 0 0 0

(
water
oil
)
 90 0 0 0

(
mercury
air
)
 90 0 0 0

(
oil
mercury
)
 90 0 0 0

(
oil
air
)
 90 0 0 0
);
        value           nonuniform 0();
    }
    lowerWall
    {
        type            alphaContactAngle;
        thetaProperties 
6
(

(
water
mercury
)
 90 0 0 0

(
water
air
)
 90 0 0 0

(
water
oil
)
 90 0 0 0

(
mercury
air
)
 90 0 0 0

(
oil
mercury
)
 90 0 0 0

(
oil
air
)
 90 0 0 0
);
        value           nonuniform List<scalar> 
22
(
2.34057e-35
2.47776e-35
5.43558e-35
1.80522e-34
9.8955e-34
8.25158e-33
9.88839e-32
1.30723e-30
1.41618e-29
2.11606e-28
1.81948e-27
3.54755e-26
6.48336e-26
3.61222e-26
1.02779e-26
1.91472e-27
2.98118e-28
4.71742e-29
7.27694e-30
1.00132e-30
1.07564e-31
6.30536e-33
)
;
    }
    atmosphere
    {
        type            inletOutlet;
        inletValue      nonuniform 0();
        value           nonuniform 0();
    }
    defaultFaces
    {
        type            empty;
    }
    procBoundary0to1
    {
        type            processor;
        value           nonuniform List<scalar> 
26
(
1.59114e-34
2.22899e-33
1.54889e-32
6.79796e-32
2.40111e-31
6.9716e-31
1.98983e-30
5.331e-30
1.59141e-29
3.00371e-29
2.79952e-18
1.69141e-14
3.01411e-13
2.2162e-12
4.76468e-11
2.93426e-10
2.93426e-10
2.52898e-09
7.30014e-09
8.8245e-08
1.13351e-05
0.00257723
0.108957
0.623154
0.964171
0.999777
)
;
    }
    procBoundary0to2
    {
        type            processor;
        value           nonuniform List<scalar> 
24
(
0.913336
0.954794
0.981271
0.994101
0.99834
0.999454
0.999779
0.999411
0.999449
0.999513
0.999594
0.99968
0.999761
0.999831
0.999886
0.999926
0.999953
0.999938
0.999434
0.999125
0.999279
0.999555
0.913336
0.999789
)
;
    }
}


// ************************************************************************* //
