/*--------------------------------*- C++ -*----------------------------------*\
| =========                 |                                                 |
| \\      /  F ield         | OpenFOAM: The Open Source CFD Toolbox           |
|  \\    /   O peration     | Version:  2.4.0                                 |
|   \\  /    A nd           | Web:      www.OpenFOAM.org                      |
|    \\/     M anipulation  |                                                 |
\*---------------------------------------------------------------------------*/
FoamFile
{
    version     2.0;
    format      ascii;
    class       volScalarField;
    location    "0.1";
    object      alphas;
}
// * * * * * * * * * * * * * * * * * * * * * * * * * * * * * * * * * * * * * //

dimensions      [0 0 0 0 0 0 0];

internalField   nonuniform List<scalar> 
575
(
2
2
2
2
2
2
2
2
2
2
2
2
1.99998
1.99984
1.99915
1.99538
1.97496
1.85454
1.49538
1.13841
1.01644
1.00052
2
2
2
2
2
2
2
2
2
2
2
2
1.99992
1.99936
1.99654
1.98298
1.88929
1.5011
1.10545
1.01377
1.0014
1.00003
2
2
2
2
2
2
2
2
2
2
2
2
1.99969
1.9969
1.98243
1.91609
1.5851
1.13831
1.00827
1.00021
1.00001
0.999999
2
2
2
2
2
2
2
2
2
2
2
2
1.99903
1.98928
1.93414
1.66899
1.20153
1.01351
1.00013
1
0.999999
0.999999
2
2
2
2
2
2
2
2
2
2
2
2
1.99734
1.96744
1.77879
1.30751
1.03223
1.00051
1
1
0.999999
0.999999
2
2
2
2
2
2
2
2
2
2
2
2
1.99219
1.89735
1.479
1.08485
1.00272
1.00001
1
0.999999
0.999999
0.999999
2
2
2
2
2
2
2
2
2
2
2
2
1.97122
1.69938
1.20407
1.01421
1.00014
1
1
0.999999
0.999999
0.999999
2
2
2
2
2
2
2
2
2
2
2
1.9999
1.89938
1.41879
1.06208
1.00174
1.00001
1
0.999999
0.999999
0.999999
0.999999
2
2
2
2
1.99999
1.99998
1.99992
1.99971
1.9988
1.99473
1.97859
1.8344
1.52567
1.11605
1.00695
1.00009
1
1
1
0.999999
0.999999
0.999999
1.9989
1.99871
1.99825
1.99721
1.99489
1.99029
1.97951
1.95708
1.90572
1.79362
1.57352
0.947072
0.748067
0.928786
0.998527
0.999999
1
1
1
1
1
1
1.87713
1.86841
1.84744
1.80861
1.74519
1.65797
1.5204
1.33995
1.08245
0.774208
0.447723
0.139685
0.356771
0.854296
0.995415
0.999992
1
1
1
1
1
1
0.785841
0.765515
0.714774
0.628357
0.516937
0.414481
0.293343
0.195543
0.110316
0.0544123
0.0222062
0.0100855
0.199109
0.726617
0.979458
0.999825
1
1
1
1
1
1
1.63316e-05
9.37776e-07
1.0475e-05
6.73722e-06
1.78437e-05
2.14039e-05
2.64732e-05
2.60673e-05
2.42812e-05
2.0517e-05
2.15089e-05
0.000561719
0.163589
0.668271
0.966616
0.999516
0.999999
1
1
1
1
1
3.07588e-10
3.26377e-12
4.209e-10
4.59622e-10
3.72762e-09
4.66289e-09
7.36259e-09
8.27408e-09
1.27837e-08
1.30979e-08
1.77469e-07
0.00051548
0.173737
0.675132
0.967078
0.999511
0.999999
1
1
1
1
1
1.78602e-13
4.44266e-14
4.29927e-14
5.01835e-14
7.8878e-14
1.21047e-13
1.79854e-13
4.47742e-13
8.07335e-13
1.89086e-12
1.3074e-07
0.000501195
0.194981
0.706702
0.973842
0.999663
1
1
1
1
1
1
1.90824e-12
3.49967e-13
4.05664e-13
5.7088e-13
7.74138e-13
1.14813e-12
1.33961e-12
4.79351e-12
5.00494e-12
1.78971e-11
1.03994e-07
0.000506978
0.229435
0.75469
0.982721
0.999839
1
1
1
1
1
1
1.81559e-11
3.01581e-12
4.62701e-12
6.07046e-12
5.28643e-12
9.04625e-12
7.90554e-12
4.8817e-11
1.01209e-10
1.51065e-10
8.27616e-08
0.000504098
0.274768
0.807321
0.990018
0.999938
1
1
1
1
1
1
1
1.53558e-10
3.29381e-11
5.67006e-11
9.16022e-11
1.44842e-10
2.04476e-10
3.09046e-10
4.42336e-10
7.66876e-10
1.05945e-09
6.22296e-08
0.000503641
0.331173
0.858979
0.995026
0.999981
1
1
1
1
1
1
1
1.1387e-09
3.87265e-10
6.11391e-10
8.68364e-10
1.19008e-09
1.61919e-09
2.25532e-09
3.28128e-09
5.08281e-09
6.1374e-09
5.13062e-08
0.000503994
0.398906
0.905225
0.997905
0.999996
1
1
1
1
1
1
1
7.13412e-09
3.90357e-09
5.19691e-09
6.55988e-09
8.31208e-09
1.08945e-08
1.37352e-08
1.95182e-08
2.71718e-08
2.93335e-08
6.13239e-08
0.000502189
0.478366
0.943081
0.999281
0.999999
1
1
1
1
1
1
1
4.29074e-08
2.9533e-08
3.32713e-08
3.83008e-08
4.58564e-08
5.8026e-08
7.65894e-08
1.12505e-07
1.45534e-07
1.55388e-07
1.7088e-07
0.000489898
0.572467
0.971226
0.999815
1
1
1
1
1
1
1
1
2.10369e-07
2.04172e-07
2.14174e-07
2.3755e-07
2.70931e-07
3.25063e-07
3.97921e-07
4.7559e-07
5.58804e-07
6.55234e-07
8.59229e-07
0.000476304
0.689031
0.989223
0.99997
1
1
1
1
1
1.00001
1.00006
1.00203
1.19958e-05
1.31426e-05
1.55353e-05
1.98577e-05
2.73647e-05
4.04977e-05
6.39732e-05
0.000106864
0.000186601
0.000335284
0.000587489
0.00300866
0.826983
0.997653
1
1.00001
1.00004
1.00013
1.00044
1.00151
1.00499
1.01654
1.14102
0.00723032
0.00768152
0.0085959
0.0101219
0.0124978
0.0161228
0.0216014
0.029837
0.0420957
0.0599203
0.08288
0.131159
0.957803
1.00322
1.0043
1.00752
1.01465
1.03022
1.06318
1.1292
1.24693
1.46962
2.16585
0.402877
0.415636
0.440392
0.478651
0.532343
0.603898
0.695945
0.810633
0.948675
1.10704
1.26599
1.44698
1.23715
1.22097
1.26215
1.34979
1.48622
1.68041
1.93057
2.21386
2.48163
2.73429
2.94389
2.40228
2.41998
2.45231
2.49785
2.55421
2.61809
2.68562
2.75214
2.8133
2.86531
2.90407
2.88796
2.57258
2.54424
2.61469
2.72213
)
;

boundaryField
{
    leftWall
    {
        type            zeroGradient;
    }
    rightWall
    {
        type            zeroGradient;
    }
    lowerWall
    {
        type            zeroGradient;
    }
    atmosphere
    {
        type            zeroGradient;
    }
    defaultFaces
    {
        type            empty;
    }
    procBoundary0to1
    {
        type            processor;
        value           nonuniform List<scalar> 
26
(
1
0.999998
0.999999
0.999998
0.999998
0.999998
0.999998
0.999998
0.999999
0.999999
1
1
1
1
1
1
1
1
1
1
1.00002
1.00515
1.21791
2.24631
2.92834
2.99955
)
;
    }
    procBoundary0to2
    {
        type            processor;
        value           nonuniform List<scalar> 
24
(
2.82667
2.90959
2.96254
2.9882
2.99668
2.99891
2.99956
2.99823
2.99835
2.99854
2.99878
2.99904
2.99928
2.99949
2.99966
2.99978
2.99986
2.99985
2.99885
2.99819
2.99855
2.99911
2.82667
2.99958
)
;
    }
}


// ************************************************************************* //
