/*--------------------------------*- C++ -*----------------------------------*\
| =========                 |                                                 |
| \\      /  F ield         | OpenFOAM: The Open Source CFD Toolbox           |
|  \\    /   O peration     | Version:  2.4.0                                 |
|   \\  /    A nd           | Web:      www.OpenFOAM.org                      |
|    \\/     M anipulation  |                                                 |
\*---------------------------------------------------------------------------*/
FoamFile
{
    version     2.0;
    format      ascii;
    class       volScalarField;
    location    "0.1";
    object      alpha.water;
}
// * * * * * * * * * * * * * * * * * * * * * * * * * * * * * * * * * * * * * //

dimensions      [0 0 0 0 0 0 0];

internalField   nonuniform List<scalar> 
575
(
5.65045e-18
8.88349e-19
3.35878e-18
8.38839e-18
4.39688e-17
2.45641e-16
9.60986e-16
1.79406e-15
1.01854e-13
9.0614e-13
1.70746e-12
1.63053e-11
9.86492e-12
4.65718e-12
2.60564e-12
1.18276e-12
4.75628e-13
1.86883e-13
6.70973e-14
2.11141e-14
4.79263e-15
5.70944e-16
5.41118e-16
1.00793e-16
3.47734e-16
9.32925e-16
3.98699e-15
1.73085e-14
4.83581e-14
6.59228e-14
2.77152e-12
1.96063e-11
3.08661e-11
3.0596e-10
2.24023e-10
7.82165e-11
1.45156e-11
6.33018e-12
3.00487e-12
1.34931e-12
5.15675e-13
1.29217e-13
2.03885e-14
2.18204e-15
2.38091e-14
5.62661e-15
1.72034e-14
4.73604e-14
1.60271e-13
5.22513e-13
1.03898e-12
1.04959e-12
3.37641e-11
1.93736e-10
2.90348e-10
2.13785e-09
2.08237e-09
1.31947e-09
4.40925e-10
6.86165e-11
6.03566e-12
2.84941e-12
1.01791e-12
2.25769e-13
3.42563e-14
3.76832e-15
6.44002e-13
2.05531e-13
5.40929e-13
1.42479e-12
3.66805e-12
8.68996e-12
1.23171e-11
9.32716e-12
2.45251e-10
1.1583e-09
1.66448e-09
9.88728e-09
1.1199e-08
7.55848e-09
2.76083e-09
4.44762e-10
2.00253e-11
2.63012e-12
8.74879e-13
1.90387e-13
3.22761e-14
4.0613e-15
1.21595e-11
5.42724e-12
1.1906e-11
2.72918e-11
5.05683e-11
8.44847e-11
8.6169e-11
4.9507e-11
1.21618e-09
4.71099e-09
6.62346e-09
3.28571e-08
3.28262e-08
2.06943e-08
7.73001e-09
2.69994e-09
1.66826e-10
1.77493e-12
5.89096e-13
1.44804e-13
2.77445e-14
3.9791e-15
1.73478e-10
1.0557e-10
1.84138e-10
3.22773e-10
4.00094e-10
4.59726e-10
3.45889e-10
1.66346e-10
4.5667e-09
1.4361e-08
2.03267e-08
6.4582e-08
6.34583e-08
2.43495e-07
1.1743e-06
5.81513e-07
1.95525e-08
2.24136e-11
8.95075e-13
1.15298e-13
2.27271e-14
3.75175e-15
1.9128e-09
1.42278e-09
1.78482e-09
1.88853e-09
1.4434e-09
1.12292e-09
6.13492e-10
6.01652e-10
1.39696e-08
3.51237e-08
4.75182e-08
8.10291e-08
2.09532e-07
8.89936e-05
8.9737e-05
1.14173e-05
9.46366e-08
3.20997e-11
1.70034e-12
1.82507e-13
2.88144e-14
4.48546e-15
1.83133e-08
1.03327e-08
5.13724e-09
1.50094e-10
1.57504e-10
1.50094e-10
1.57492e-10
4.9211e-10
3.08283e-08
6.51817e-08
7.92077e-08
7.98464e-08
0.000269633
0.00387883
0.00100567
2.41533e-05
3.27652e-08
4.52287e-11
4.48433e-12
5.95431e-13
8.42733e-14
1.09822e-14
2.63673e-07
3.3861e-07
5.72817e-07
1.24413e-06
3.47657e-06
1.03923e-05
3.85971e-05
0.000145081
0.000599532
0.00263738
0.0107047
0.0812373
0.0995429
0.0401275
0.00231908
6.94027e-06
1.16867e-09
2.26054e-11
2.61313e-12
3.67958e-13
5.85146e-14
1.01373e-14
0.000551984
0.00064416
0.000877411
0.00139479
0.00255669
0.00485264
0.0102429
0.0214577
0.04714
0.103192
0.213217
0.52159
0.423768
0.0857686
0.00162593
1.00345e-06
2.67634e-11
1.49087e-12
4.8716e-13
1.25847e-13
3.42305e-14
1.00244e-14
0.0614328
0.0657975
0.07628
0.0956972
0.127404
0.171014
0.239801
0.330025
0.458776
0.612896
0.776096
0.925465
0.660879
0.146665
0.00459137
8.12441e-06
5.53429e-08
1.151e-08
1.98536e-09
3.94648e-10
8.94477e-11
2.37832e-11
0.607079
0.617243
0.642613
0.685822
0.741532
0.79276
0.853329
0.902228
0.944842
0.972794
0.988882
0.993684
0.801588
0.273445
0.0205437
0.000175023
1.51363e-07
3.72286e-08
1.31279e-08
4.60088e-09
1.53202e-09
5.20044e-10
0.999992
0.999999
0.999995
0.999997
0.999991
0.999989
0.999987
0.999987
0.999988
0.99999
0.999988
0.999446
0.836415
0.331731
0.0333845
0.000483748
6.72448e-07
2.49654e-08
1.09238e-08
4.04165e-09
1.42185e-09
4.86101e-10
1
1
1
1
1
1
1
1
1
1
1
0.999484
0.826263
0.324868
0.0329215
0.000489396
6.97558e-07
8.34262e-09
1.44335e-09
7.87553e-10
3.2434e-10
1.14448e-10
1
1
1
1
1
1
1
1
1
1
1
0.999499
0.805019
0.293298
0.026158
0.000337242
4.17545e-07
5.27423e-09
1.49479e-10
7.14591e-11
2.81993e-11
8.93517e-12
1
1
1
1
1
1
1
1
1
1
1
0.999493
0.770565
0.24531
0.0172792
0.000161294
1.48739e-07
1.28273e-11
1.91439e-12
5.16019e-13
1.74931e-13
6.06185e-14
1
1
1
1
1
1
1
1
1
1
1
0.999496
0.725232
0.192679
0.00998165
6.17279e-05
3.76665e-08
3.73044e-12
1.09979e-12
3.80486e-13
1.22055e-13
3.59259e-14
9.89872e-15
1
1
1
1
1
1
1
1
1
1
1
0.999496
0.668826
0.141021
0.00497433
1.846e-05
5.45347e-09
2.65363e-12
1.15664e-12
3.80247e-13
1.05471e-13
2.64685e-14
6.22463e-15
1
1
1
1
1
1
1
1
1
1
1
0.999496
0.601094
0.0947752
0.00209485
4.24247e-06
6.19484e-10
3.4339e-12
1.32084e-12
3.74643e-13
9.10091e-14
2.00804e-14
4.12484e-15
1
1
1
1
1
1
1
1
1
1
1
0.999498
0.521634
0.0569187
0.00071886
7.11906e-07
6.02571e-11
5.43336e-12
1.63109e-12
3.94057e-13
8.35939e-14
1.59588e-14
2.7941e-15
1
1
1
1
1
1
1
1
1
1
1
0.99951
0.427533
0.0287742
0.000184466
7.94216e-08
4.22319e-11
6.53448e-12
1.67645e-12
3.562e-13
6.45923e-14
1.03222e-14
1.48503e-15
1
1
1
1
1
1
1
1
1
1
1
0.999525
0.310969
0.0107772
3.05647e-05
1.11694e-08
1.89905e-10
3.57042e-12
1.02846e-12
2.00556e-13
3.06201e-14
3.98718e-15
4.51329e-16
0.999996
0.999996
0.999995
0.999994
0.999991
0.999987
0.999979
0.999965
0.999938
0.999889
0.999805
0.997723
0.173305
0.00255209
3.46135e-06
6.50881e-08
1.52286e-10
2.48282e-12
4.73782e-13
6.35928e-14
6.87481e-15
6.32866e-16
5.02659e-17
0.997591
0.99744
0.997136
0.996627
0.995835
0.994627
0.992801
0.990055
0.985969
0.980028
0.972373
0.946145
0.0650208
0.000280654
4.26371e-06
2.91277e-09
6.43232e-12
1.19047e-12
1.18654e-13
8.72095e-15
4.96702e-16
2.10151e-17
8.02968e-19
0.865709
0.861456
0.853204
0.840451
0.822554
0.798702
0.76802
0.72979
0.683776
0.630987
0.577988
0.495806
0.00782138
1.41006e-05
5.60823e-08
1.77508e-11
1.87843e-12
9.92047e-14
3.35164e-15
8.70426e-17
2.36034e-18
7.7731e-20
2.94192e-21
0.19924
0.193342
0.182564
0.167384
0.148596
0.127303
0.104793
0.0826192
0.0622344
0.0448952
0.0319174
0.0209679
0.00173407
1.99895e-06
1.22699e-10
8.8321e-13
)
;

boundaryField
{
    leftWall
    {
        type            zeroGradient;
    }
    rightWall
    {
        type            zeroGradient;
    }
    lowerWall
    {
        type            zeroGradient;
    }
    atmosphere
    {
        type            inletOutlet;
        inletValue      nonuniform 0();
        value           nonuniform 0();
    }
    defaultFaces
    {
        type            empty;
    }
    procBoundary0to1
    {
        type            processor;
        value           nonuniform List<scalar> 
26
(
2.87791e-17
1.15236e-16
2.20345e-16
2.74894e-16
3.25536e-16
3.78179e-16
5.20316e-16
1.18633e-15
2.07282e-15
3.15837e-15
6.45729e-12
1.75445e-10
1.6226e-10
3.69293e-11
3.23306e-12
1.97029e-14
1.97029e-14
4.32811e-15
2.40246e-15
1.4158e-15
8.3003e-16
3.6936e-16
8.83983e-17
8.50303e-18
1.48196e-19
6.9932e-21
)
;
    }
    procBoundary0to2
    {
        type            processor;
        value           nonuniform List<scalar> 
24
(
4.53359e-15
3.25214e-17
2.62375e-19
2.41862e-21
3.5723e-23
4.42679e-23
4.62757e-22
0.000587143
0.000549428
0.000484949
0.000404151
0.000318011
0.000236732
0.000167101
0.000112154
7.19217e-05
4.49021e-05
2.77037e-05
1.83348e-05
5.60605e-05
5.3539e-06
2.8052e-14
4.53359e-15
2.52978e-16
)
;
    }
}


// ************************************************************************* //
