/*--------------------------------*- C++ -*----------------------------------*\
| =========                 |                                                 |
| \\      /  F ield         | OpenFOAM: The Open Source CFD Toolbox           |
|  \\    /   O peration     | Version:  2.4.0                                 |
|   \\  /    A nd           | Web:      www.OpenFOAM.org                      |
|    \\/     M anipulation  |                                                 |
\*---------------------------------------------------------------------------*/
FoamFile
{
    version     2.0;
    format      ascii;
    class       surfaceScalarField;
    location    "0.1";
    object      phi.mercury;
}
// * * * * * * * * * * * * * * * * * * * * * * * * * * * * * * * * * * * * * //

dimensions      [0 3 -1 0 0 0 0];

internalField   nonuniform List<scalar> 
1101
(
2.213e-06
-2.213e-06
4.4896e-06
-2.2766e-06
6.89664e-06
-2.40704e-06
9.50911e-06
-2.61247e-06
1.24138e-05
-2.90464e-06
1.57253e-05
-3.31157e-06
1.95572e-05
-3.83185e-06
2.41146e-05
-4.55738e-06
2.94804e-05
-5.36588e-06
3.66959e-05
-7.2155e-06
4.3193e-05
-6.49706e-06
5.39185e-05
-1.07255e-05
6.87621e-05
-1.4844e-05
8.42143e-05
-1.54619e-05
9.56275e-05
-1.14998e-05
0.000100536
-5.32465e-06
0.000101191
-3.86203e-06
0.000101343
-1.76117e-05
0.000107985
-4.44074e-05
0.000126194
-7.81364e-05
0.00013838
-0.000113878
-9.45818e-05
2.19954e-06
-4.41254e-06
4.46194e-06
-4.539e-06
6.85303e-06
-4.79813e-06
9.44654e-06
-5.20599e-06
1.23277e-05
-5.78584e-06
1.56108e-05
-6.59466e-06
1.94028e-05
-7.62386e-06
2.39277e-05
-9.08222e-06
2.93134e-05
-1.07516e-05
3.61651e-05
-1.40672e-05
4.32563e-05
-1.35882e-05
5.42018e-05
-2.1671e-05
6.81309e-05
-2.87764e-05
8.21135e-05
-2.95115e-05
9.36061e-05
-2.33637e-05
9.99804e-05
-1.34979e-05
0.00010128
-1.56799e-05
0.000107441
-3.5962e-05
0.000118596
-5.55628e-05
0.000132103
-7.03578e-05
0.00011342
-6.69261e-05
-9.59962e-06
2.17126e-06
-6.58381e-06
4.40375e-06
-6.77149e-06
6.7615e-06
-7.15588e-06
9.31553e-06
-7.76001e-06
1.21485e-05
-8.61879e-06
1.53706e-05
-9.81676e-06
1.9089e-05
-1.13423e-05
2.35259e-05
-1.35191e-05
2.88739e-05
-1.60996e-05
3.53176e-05
-2.05109e-05
4.27755e-05
-2.10462e-05
5.37447e-05
-3.26401e-05
6.71582e-05
-4.22144e-05
7.96262e-05
-4.22638e-05
8.88764e-05
-3.3961e-05
9.28522e-05
-2.83185e-05
9.70331e-05
-4.39457e-05
0.000102677
-7.1136e-05
0.00010313
-8.35542e-05
8.24148e-05
-1.86677e-05
5.1396e-05
2.72196e-05
6.03666e-05
2.12934e-06
-8.71314e-06
4.31756e-06
-8.95972e-06
6.6261e-06
-9.46441e-06
9.12177e-06
-1.02557e-05
1.18834e-05
-1.13804e-05
1.50137e-05
-1.29471e-05
1.86254e-05
-1.4954e-05
2.29206e-05
-1.78143e-05
2.80902e-05
-2.12692e-05
3.42813e-05
-2.67019e-05
4.18689e-05
-2.86338e-05
5.27388e-05
-4.35093e-05
6.5015e-05
-5.46006e-05
7.56154e-05
-5.37116e-05
8.22654e-05
-4.69898e-05
8.61652e-05
-5.64335e-05
8.425e-05
-7.59775e-05
7.2885e-05
-9.83635e-05
4.66636e-05
-2.36372e-05
4.53626e-05
6.3651e-05
3.50011e-05
7.07031e-05
7.68249e-05
2.07428e-06
-1.07874e-05
4.20447e-06
-1.10899e-05
6.44879e-06
-1.17087e-05
8.86827e-06
-1.26752e-05
1.15361e-05
-1.40482e-05
1.45466e-05
-1.59576e-05
1.80145e-05
-1.84219e-05
2.21147e-05
-2.19145e-05
2.70146e-05
-2.61692e-05
3.28404e-05
-3.25277e-05
4.05406e-05
-3.6334e-05
5.11603e-05
-5.41263e-05
6.19912e-05
-6.57504e-05
6.95372e-05
-6.40974e-05
7.20748e-05
-6.967e-05
7.13007e-05
-8.34366e-05
6.11359e-05
-0.000104165
3.65069e-05
-6.73175e-05
4.58753e-05
5.70859e-05
4.13818e-05
7.23976e-05
3.56169e-05
7.85369e-05
9.01089e-05
2.00666e-06
-1.27941e-05
4.06573e-06
-1.3149e-05
6.23201e-06
-1.3875e-05
8.5589e-06
-1.50021e-05
1.11116e-05
-1.66008e-05
1.39771e-05
-1.88231e-05
1.7263e-05
-2.17079e-05
2.11244e-05
-2.57759e-05
2.56644e-05
-3.07092e-05
3.11284e-05
-3.79917e-05
3.86717e-05
-4.38773e-05
4.8501e-05
-6.395e-05
5.72667e-05
-7.5569e-05
5.97945e-05
-7.73772e-05
6.11348e-05
-9.32747e-05
5.18334e-05
-0.000105704
3.2815e-05
-0.000102366
3.42998e-05
1.4992e-05
4.04273e-05
6.58146e-05
4.1011e-05
7.32114e-05
3.77529e-05
8.25033e-05
0.000101844
1.92661e-06
-1.47207e-05
3.90144e-06
-1.51238e-05
5.97608e-06
-1.59496e-05
8.19481e-06
-1.72208e-05
1.06129e-05
-1.90189e-05
1.33107e-05
-2.1521e-05
1.63783e-05
-2.47754e-05
1.99548e-05
-2.93523e-05
2.40815e-05
-3.4836e-05
2.91275e-05
-4.30377e-05
3.61027e-05
-5.08525e-05
4.45236e-05
-7.23638e-05
4.99068e-05
-8.47066e-05
5.04164e-05
-9.8877e-05
4.65654e-05
-0.000109772
3.43902e-05
-0.00011654
2.22954e-05
-4.98285e-05
3.65853e-05
5.43441e-05
3.95771e-05
6.36689e-05
4.28483e-05
7.04701e-05
4.12373e-05
8.44223e-05
0.000109544
1.8295e-06
-1.65502e-05
3.70179e-06
-1.69961e-05
5.66606e-06
-1.79139e-05
7.75687e-06
-1.93116e-05
1.00233e-05
-2.12854e-05
1.25321e-05
-2.40298e-05
1.53429e-05
-2.75862e-05
1.85833e-05
-3.25931e-05
2.23048e-05
-3.85618e-05
2.68063e-05
-4.75667e-05
3.29693e-05
-5.7147e-05
3.93385e-05
-8.01607e-05
3.97618e-05
-9.67764e-05
4.00849e-05
-0.000117905
3.24213e-05
-0.000119659
1.99067e-05
-0.000102657
2.34105e-05
9.89238e-06
3.41304e-05
5.15751e-05
4.00399e-05
5.82612e-05
4.60402e-05
6.50279e-05
4.73354e-05
8.33128e-05
0.000113066
3.50295e-06
-2.00582e-05
7.08912e-06
-2.05887e-05
1.08748e-05
-2.17098e-05
1.48925e-05
-2.33472e-05
1.92178e-05
-2.56455e-05
2.39597e-05
-2.88407e-05
2.90704e-05
-3.28466e-05
3.49562e-05
-3.88017e-05
4.14248e-05
-4.57795e-05
4.91891e-05
-5.71517e-05
5.89069e-05
-7.15632e-05
6.184e-05
-0.000101547
5.22767e-05
-0.000129883
4.03623e-05
-0.000139558
2.83264e-05
-0.000113238
2.2841e-05
-3.43001e-05
5.53696e-05
2.68658e-05
7.37542e-05
3.56722e-05
8.99977e-05
4.26769e-05
0.000110325
4.50771e-05
0.00012968
6.40676e-05
6.2536e-05
3.08288e-06
-2.40571e-05
6.23903e-06
-2.4738e-05
9.59371e-06
-2.62515e-05
1.29414e-05
-2.82436e-05
1.63052e-05
-3.11105e-05
2.01605e-05
-3.56229e-05
2.39862e-05
-4.09584e-05
2.82326e-05
-4.95052e-05
3.23411e-05
-6.00024e-05
3.52979e-05
-7.57514e-05
3.4022e-05
-9.49863e-05
2.5152e-05
-0.000135495
1.96333e-05
-0.000153946
1.27442e-05
-0.00014337
1.30087e-05
-5.95784e-05
4.12545e-05
-5.31191e-08
6.18248e-05
1.06629e-05
7.98506e-05
1.74001e-05
9.80689e-05
2.43129e-05
0.000119889
2.31828e-05
0.000147186
3.67421e-05
2.52959e-05
2.64685e-06
-3.91189e-05
5.30964e-06
-4.00988e-05
8.23947e-06
-4.25309e-05
1.12216e-05
-4.57595e-05
1.3471e-05
-4.986e-05
1.58681e-05
-5.67839e-05
1.76047e-05
-6.44147e-05
1.85995e-05
-7.493e-05
1.96464e-05
-8.85218e-05
2.01898e-05
-0.000106294
2.04884e-05
-0.000127382
1.68909e-05
-0.000159624
1.22824e-05
-0.000159425
1.44602e-05
-0.000109469
2.62543e-05
-3.58087e-05
5.64156e-05
-1.15421e-05
7.03054e-05
-3.13647e-06
8.6008e-05
1.77957e-06
0.000103821
6.54842e-06
0.000122807
4.22334e-06
0.000147565
1.19965e-05
3.0088e-06
1.79294e-06
-3.52182e-05
2.71594e-06
-2.80386e-05
4.38728e-06
-3.52986e-05
6.46702e-06
-3.51966e-05
9.23982e-06
-4.12261e-05
1.22318e-05
-4.66744e-05
1.60402e-05
-5.28198e-05
1.97314e-05
-5.93452e-05
2.36553e-05
-6.72945e-05
2.71113e-05
-7.57439e-05
2.68693e-05
-8.75962e-05
2.19948e-05
-0.000102055
2.47476e-05
-9.71518e-05
3.02075e-05
-5.27909e-05
4.72819e-05
-3.05475e-05
6.628e-05
-1.82941e-05
7.67669e-05
-1.36512e-05
8.99994e-05
-1.14908e-05
0.000105988
-9.46118e-06
0.000123387
-1.31853e-05
0.000146692
-1.13147e-05
-1.85284e-05
6.11185e-06
-2.47035e-05
1.6047e-05
-3.66069e-05
2.47327e-05
-2.79593e-05
3.23557e-05
-3.28885e-05
4.18146e-05
-2.88069e-05
4.89123e-05
-3.18943e-05
5.60114e-05
-3.47718e-05
6.26598e-05
-3.95568e-05
6.80901e-05
-4.48916e-05
7.24983e-05
-5.20639e-05
7.21545e-05
-5.77669e-05
6.60833e-05
-6.58671e-05
6.2653e-05
-7.4712e-05
5.79946e-05
-5.89233e-05
6.17172e-05
-3.27825e-05
7.02423e-05
-2.41097e-05
7.94203e-05
-2.27631e-05
9.11523e-05
-2.32249e-05
0.000105612
-2.3923e-05
0.00012169
-2.92642e-05
0.00014105
-3.06754e-05
-3.82806e-05
7.07614e-06
-4.44196e-05
1.45662e-05
-4.50983e-05
2.19383e-05
-4.67732e-05
2.88891e-05
-4.94364e-05
3.70228e-05
-5.22615e-05
4.39667e-05
-5.66822e-05
5.07896e-05
-6.16319e-05
5.63085e-05
-6.78229e-05
6.06399e-05
-7.44545e-05
6.23148e-05
-8.18253e-05
6.30215e-05
-8.87342e-05
6.23714e-05
-9.73371e-05
6.07135e-05
-9.10509e-05
5.99301e-05
-6.11158e-05
6.30751e-05
-3.59398e-05
6.99766e-05
-3.02929e-05
7.87386e-05
-3.14771e-05
8.96028e-05
-3.40898e-05
0.000102741
-3.70617e-05
0.000117175
-4.36984e-05
0.000133746
-4.72466e-05
-5.67663e-05
6.53487e-06
-5.09547e-05
1.31725e-05
-5.17359e-05
1.96901e-05
-5.32911e-05
2.58191e-05
-5.55657e-05
3.20419e-05
-5.84862e-05
3.77047e-05
-6.23474e-05
4.30339e-05
-6.69647e-05
4.75764e-05
-7.23696e-05
5.15523e-05
-7.84372e-05
5.46391e-05
-8.49184e-05
5.66964e-05
-9.08003e-05
5.77681e-05
-9.84302e-05
5.71368e-05
-9.08272e-05
5.67629e-05
-6.13465e-05
6.07886e-05
-3.93525e-05
6.76106e-05
-3.63411e-05
7.59979e-05
-3.98351e-05
8.60365e-05
-4.41289e-05
9.78915e-05
-4.89171e-05
0.00011078
-5.65873e-05
0.000125529
-6.1995e-05
-7.32863e-05
5.80103e-06
-5.6756e-05
1.15818e-05
-5.75171e-05
1.72353e-05
-5.8945e-05
2.27397e-05
-6.10703e-05
2.82072e-05
-6.3954e-05
3.33517e-05
-6.74919e-05
3.818e-05
-7.1793e-05
4.24602e-05
-7.66496e-05
4.60517e-05
-8.20284e-05
4.88117e-05
-8.76781e-05
5.10428e-05
-9.30322e-05
5.28956e-05
-0.000100291
5.24434e-05
-9.08727e-05
5.21604e-05
-6.15737e-05
5.66577e-05
-4.31834e-05
6.35963e-05
-4.25631e-05
7.15596e-05
-4.77871e-05
8.0798e-05
-5.33678e-05
9.14433e-05
-5.95627e-05
0.000102927
-6.8071e-05
0.000115954
-7.50216e-05
-8.76503e-05
5.08383e-06
-6.18404e-05
1.01299e-05
-6.25637e-05
1.50925e-05
-6.39083e-05
1.99395e-05
-6.59179e-05
2.45816e-05
-6.85965e-05
2.90076e-05
-7.19182e-05
3.30647e-05
-7.58502e-05
3.67418e-05
-8.03267e-05
3.99673e-05
-8.52538e-05
4.27376e-05
-9.04483e-05
4.53138e-05
-9.56091e-05
4.76342e-05
-0.000102617
4.70332e-05
-9.08912e-05
4.69722e-05
-6.17482e-05
5.17038e-05
-4.72163e-05
5.85418e-05
-4.88567e-05
6.59566e-05
-5.51997e-05
7.43192e-05
-6.17309e-05
8.37647e-05
-6.90086e-05
9.38822e-05
-7.81885e-05
0.000105314
-8.64529e-05
0.000117734
-0.000100071
-0.000113824
4.40737e-06
-6.62485e-05
8.77348e-06
-6.69305e-05
1.30536e-05
-6.81891e-05
1.7214e-05
-7.00788e-05
2.12147e-05
-7.25977e-05
2.50058e-05
-7.57096e-05
2.85445e-05
-7.93891e-05
3.17844e-05
-8.35667e-05
3.4715e-05
-8.81844e-05
3.73888e-05
-9.31221e-05
3.99686e-05
-9.81896e-05
4.23089e-05
-0.00010496
4.11711e-05
-9.04951e-05
4.1513e-05
-6.20051e-05
4.62502e-05
-5.12521e-05
5.26597e-05
-5.49666e-05
5.94168e-05
-6.19571e-05
6.68518e-05
-6.91666e-05
7.50936e-05
-7.72508e-05
8.38682e-05
-8.69633e-05
9.37647e-05
-9.63491e-05
0.000104418
-0.000110724
-0.000124783
3.77053e-06
-7.00198e-05
7.50106e-06
-7.06618e-05
1.11473e-05
-7.1836e-05
1.46813e-05
-7.36136e-05
1.80721e-05
-7.5989e-05
2.12913e-05
-7.89292e-05
2.42999e-05
-8.2398e-05
2.7091e-05
-8.6358e-05
2.96708e-05
-9.07642e-05
3.20847e-05
-9.55361e-05
3.45e-05
-0.000100606
3.67233e-05
-0.000107185
3.49171e-05
-8.95321e-05
3.57289e-05
-6.23633e-05
4.02589e-05
-5.52024e-05
4.61835e-05
-6.07271e-05
5.21857e-05
-6.79601e-05
5.86424e-05
-7.5624e-05
6.56582e-05
-8.42674e-05
7.30599e-05
-9.43656e-05
8.14283e-05
-0.000104718
9.04458e-05
-0.000119742
-0.00013428
3.16619e-06
-7.31871e-05
6.29933e-06
-7.3796e-05
9.34286e-06
-7.48805e-05
1.2276e-05
-7.65476e-05
1.50949e-05
-7.88087e-05
1.77705e-05
-8.16055e-05
2.02808e-05
-8.4909e-05
2.26211e-05
-8.8699e-05
2.48106e-05
-9.29543e-05
2.68993e-05
-9.76254e-05
2.90395e-05
-0.000102747
3.09796e-05
-0.000109125
2.84196e-05
-8.78833e-05
2.94729e-05
-6.27504e-05
3.40398e-05
-5.92606e-05
3.92679e-05
-6.59186e-05
4.44673e-05
-7.31605e-05
4.99043e-05
-8.10623e-05
5.56582e-05
-9.00224e-05
6.16227e-05
-0.000100331
6.8448e-05
-0.000111544
7.5769e-05
-0.000127063
-0.000141879
2.50148e-06
-7.56899e-05
5.00976e-06
-7.63058e-05
7.51236e-06
-7.73847e-05
9.94322e-06
-7.898e-05
1.22454e-05
-8.11126e-05
1.4412e-05
-8.37737e-05
1.6429e-05
-8.69278e-05
1.8299e-05
-9.05709e-05
2.00421e-05
-9.46994e-05
2.17121e-05
-9.92976e-05
2.34658e-05
-0.000104503
2.49986e-05
-0.000110659
2.17107e-05
-8.55132e-05
2.30941e-05
-6.33656e-05
2.76131e-05
-6.33998e-05
3.2105e-05
-7.04073e-05
3.6468e-05
-7.75253e-05
4.08357e-05
-8.54315e-05
4.52725e-05
-9.4461e-05
4.97338e-05
-0.000104794
5.48984e-05
-0.00011671
5.98405e-05
-0.000132006
-0.000147135
1.9064e-06
-7.75982e-05
3.80667e-06
-7.8208e-05
5.73872e-06
-7.93187e-05
7.67141e-06
-8.09148e-05
9.50313e-06
-8.29465e-05
1.11806e-05
-8.54537e-05
1.27106e-05
-8.84604e-05
1.40878e-05
-9.19511e-05
1.5325e-05
-9.59399e-05
1.64792e-05
-0.000100455
1.76914e-05
-0.000105719
1.8649e-05
-0.000111621
1.50248e-05
-8.26096e-05
1.68664e-05
-6.44583e-05
2.11486e-05
-6.74873e-05
2.49471e-05
-7.42074e-05
2.84369e-05
-8.10167e-05
3.17039e-05
-8.87007e-05
3.47727e-05
-9.75324e-05
3.77154e-05
-0.000107748
4.11666e-05
-0.000120209
4.31987e-05
-0.000134212
-0.000150195
1.52698e-06
-7.91741e-05
2.99593e-06
-7.97293e-05
4.38171e-06
-8.07637e-05
5.70028e-06
-8.23041e-05
6.98389e-06
-8.43186e-05
8.17809e-06
-8.67637e-05
9.23867e-06
-8.96782e-05
1.01362e-05
-9.30687e-05
1.08291e-05
-9.69467e-05
1.1286e-05
-0.000101362
1.14351e-05
-0.000106493
1.09874e-05
-0.000112034
8.34559e-06
-8.01396e-05
1.1015e-05
-6.65862e-05
1.50595e-05
-7.15261e-05
1.82314e-05
-7.74633e-05
2.09013e-05
-8.38597e-05
2.31258e-05
-9.13014e-05
2.47321e-05
-9.99659e-05
2.57392e-05
-0.000110504
2.64786e-05
-0.000124206
2.59488e-05
-0.00014008
-0.000165703
1.14464e-06
-8.39987e-05
2.26107e-06
-8.46381e-05
3.27928e-06
-8.5791e-05
4.16171e-06
-8.7525e-05
4.89247e-06
-8.98404e-05
5.52206e-06
-9.2767e-05
6.04415e-06
-9.62954e-05
6.41866e-06
-0.000100404
6.5295e-06
-0.000105046
6.17549e-06
-0.000110151
4.73193e-06
-0.000115468
1.1506e-06
-0.000119876
1.57357e-06
-8.34192e-05
6.31624e-06
-7.44384e-05
1.00098e-05
-7.89099e-05
1.2303e-05
-8.47446e-05
1.3835e-05
-9.23637e-05
1.46248e-05
-0.000102003
1.42035e-05
-0.00011357
1.21524e-05
-0.000127087
7.97583e-06
-0.000142108
4.13347e-06
-0.000160975
-0.00019117
5.48592e-07
-0.000115129
1.0415e-06
-0.000116009
1.46393e-06
-0.00011759
1.78474e-06
-0.00011994
1.98042e-06
-0.000123063
2.00618e-06
-0.000126984
1.84268e-06
-0.000131778
1.54272e-06
-0.000137579
1.12266e-06
-0.000144465
4.63189e-07
-0.000152444
-1.52401e-06
-0.000160408
-3.71017e-06
-0.000165046
-1.68621e-06
-0.000112445
2.99173e-06
-0.000109252
4.4961e-06
-0.000113477
4.36423e-06
-0.000121216
3.32442e-06
1.88191e-06
2.27054e-07
-1.16323e-06
-3.19374e-06
-4.45946e-06
-3.02574e-07
-6.70748e-07
-1.04365e-06
-1.45473e-06
-1.90847e-06
-2.37188e-06
-2.73045e-06
-3.10214e-06
-3.72205e-06
-4.60608e-06
-4.86581e-06
-5.48845e-06
-2.19153e-06
-1.68402e-06
-3.21901e-06
)
;

boundaryField
{
    leftWall
    {
        type            fixedValue;
        value           uniform 0;
    }
    rightWall
    {
        type            fixedValue;
        value           nonuniform 0();
    }
    lowerWall
    {
        type            fixedValue;
        value           uniform 0;
    }
    atmosphere
    {
        type            calculated;
        value           nonuniform 0();
    }
    defaultFaces
    {
        type            empty;
        value           nonuniform 0();
    }
    procBoundary0to1
    {
        type            processor;
        value           nonuniform List<scalar> 
26
(
8.63957e-05
5.80006e-05
2.20625e-05
2.08221e-05
2.29795e-05
2.64547e-05
3.36237e-05
4.40072e-05
0.000180323
0.00018439
0.000169853
0.000168227
0.000160802
0.000152232
0.000142049
0.000130318
0.00010079
0.000130771
0.000115378
9.99428e-05
8.33676e-05
6.502e-05
4.09626e-05
1.23596e-05
2.83349e-06
-5.60387e-05
)
;
    }
    procBoundary0to2
    {
        type            processor;
        value           nonuniform List<scalar> 
24
(
-0.00013226
-0.000147955
-0.000172019
-0.000199919
-0.000227761
-0.000239582
-0.00017162
-0.00015773
-0.000158798
-0.000160778
-0.000163719
-0.000167625
-0.000172521
-0.000178391
-0.000185127
-0.000192354
-0.000199378
-0.000203067
-0.000187882
-0.000150446
-0.000149457
-0.000154607
-5.18063e-06
-0.000164243
)
;
    }
}


// ************************************************************************* //
