/*--------------------------------*- C++ -*----------------------------------*\
| =========                 |                                                 |
| \\      /  F ield         | OpenFOAM: The Open Source CFD Toolbox           |
|  \\    /   O peration     | Version:  2.4.0                                 |
|   \\  /    A nd           | Web:      www.OpenFOAM.org                      |
|    \\/     M anipulation  |                                                 |
\*---------------------------------------------------------------------------*/
FoamFile
{
    version     2.0;
    format      ascii;
    class       surfaceScalarField;
    location    "0.1";
    object      phi.water;
}
// * * * * * * * * * * * * * * * * * * * * * * * * * * * * * * * * * * * * * //

dimensions      [0 3 -1 0 0 0 0];

internalField   nonuniform List<scalar> 
1101
(
2.21309e-06
-2.21276e-06
4.48978e-06
-2.27636e-06
6.89693e-06
-2.4068e-06
9.50949e-06
-2.61224e-06
1.24142e-05
-2.90442e-06
1.57258e-05
-3.31138e-06
1.95577e-05
-3.83169e-06
2.4115e-05
-4.55724e-06
2.94809e-05
-5.36576e-06
3.66963e-05
-7.21543e-06
4.31933e-05
-6.49696e-06
5.39183e-05
-1.0725e-05
6.87613e-05
-1.48431e-05
8.4217e-05
-1.54534e-05
9.56653e-05
-1.14204e-05
0.000100683
-5.02883e-06
0.000101701
-2.37833e-06
0.000101999
-1.10461e-05
0.00010713
-2.68493e-05
0.000106637
-2.79608e-05
7.95625e-05
-1.01988e-05
2.04044e-05
2.19963e-06
-4.41197e-06
4.46212e-06
-4.53844e-06
6.85332e-06
-4.79757e-06
9.44692e-06
-5.20545e-06
1.23282e-05
-5.78532e-06
1.56113e-05
-6.5942e-06
1.94033e-05
-7.62346e-06
2.39281e-05
-9.08187e-06
2.93138e-05
-1.07513e-05
3.61655e-05
-1.4067e-05
4.32565e-05
-1.35879e-05
5.42018e-05
-2.16698e-05
6.8132e-05
-2.87724e-05
8.21403e-05
-2.94368e-05
9.37235e-05
-2.30081e-05
0.000100454
-1.25137e-05
0.000102141
-1.09935e-05
0.000106922
-2.36435e-05
0.000100187
-1.51606e-05
7.8548e-05
9.74823e-06
4.9003e-05
4.05678e-05
4.75666e-05
2.17135e-06
-6.58301e-06
4.40394e-06
-6.77069e-06
6.76179e-06
-7.15509e-06
9.3159e-06
-7.75924e-06
1.21489e-05
-8.61808e-06
1.53711e-05
-9.81613e-06
1.90895e-05
-1.13418e-05
2.35264e-05
-1.35187e-05
2.88744e-05
-1.60992e-05
3.5318e-05
-2.05102e-05
4.27759e-05
-2.10453e-05
5.37449e-05
-3.26364e-05
6.71719e-05
-4.21888e-05
7.97596e-05
-4.20016e-05
8.92419e-05
-3.30674e-05
9.39788e-05
-2.38776e-05
9.90732e-05
-3.1559e-05
9.54166e-05
-2.8805e-05
7.34476e-05
1.32648e-05
4.78658e-05
5.99756e-05
3.59992e-05
6.5369e-05
6.33847e-05
2.12943e-06
-8.71191e-06
4.31775e-06
-8.9585e-06
6.62637e-06
-9.46321e-06
9.12213e-06
-1.02545e-05
1.18838e-05
-1.13793e-05
1.50141e-05
-1.29461e-05
1.86258e-05
-1.49532e-05
2.2921e-05
-1.78136e-05
2.80907e-05
-2.12683e-05
3.42818e-05
-2.67001e-05
4.18699e-05
-2.86313e-05
5.27397e-05
-4.34979e-05
6.50955e-05
-5.45092e-05
7.59484e-05
-5.31192e-05
8.33973e-05
-4.42931e-05
8.93227e-05
-4.58125e-05
8.61363e-05
-4.30018e-05
6.99442e-05
-2.51755e-06
5.11895e-05
5.88235e-05
4.2846e-05
7.04897e-05
3.47811e-05
7.34689e-05
7.77887e-05
2.07436e-06
-1.0786e-05
4.20464e-06
-1.10885e-05
6.44906e-06
-1.17073e-05
8.86861e-06
-1.26738e-05
1.15365e-05
-1.40469e-05
1.4547e-05
-1.59564e-05
1.80149e-05
-1.84209e-05
2.21152e-05
-2.19137e-05
2.70152e-05
-2.61672e-05
3.28412e-05
-3.25226e-05
4.05435e-05
-3.63271e-05
5.11623e-05
-5.40998e-05
6.21961e-05
-6.55244e-05
7.03874e-05
-6.29312e-05
7.51305e-05
-6.23011e-05
7.6294e-05
-6.13656e-05
6.68824e-05
-3.0478e-05
5.13031e-05
4.18997e-05
4.47132e-05
6.72924e-05
4.14224e-05
7.37794e-05
3.5527e-05
7.93643e-05
9.05838e-05
2.00675e-06
-1.27919e-05
4.0659e-06
-1.3147e-05
6.23227e-06
-1.3873e-05
8.55923e-06
-1.5e-05
1.11119e-05
-1.65991e-05
1.39775e-05
-1.88216e-05
1.72634e-05
-2.17066e-05
2.1125e-05
-2.57748e-05
2.56654e-05
-3.0704e-05
3.11302e-05
-3.79788e-05
3.86776e-05
-4.38597e-05
4.85044e-05
-6.39096e-05
5.76814e-05
-7.52173e-05
6.1807e-05
-6.66015e-05
6.65542e-05
-7.90081e-05
6.00534e-05
-6.21005e-05
4.90777e-05
8.85479e-06
4.18675e-05
5.62058e-05
4.12503e-05
6.79128e-05
4.11826e-05
7.38464e-05
3.77301e-05
8.28172e-05
0.000101972
1.92668e-06
-1.47141e-05
3.90161e-06
-1.51192e-05
5.97633e-06
-1.59462e-05
8.19512e-06
-1.72186e-05
1.06132e-05
-1.90171e-05
1.33111e-05
-2.15194e-05
1.63787e-05
-2.47742e-05
1.99557e-05
-2.93511e-05
2.40836e-05
-3.48318e-05
2.91313e-05
-4.30335e-05
3.61108e-05
-5.0847e-05
4.45421e-05
-7.23341e-05
5.09159e-05
-7.37949e-05
5.76134e-05
-4.06613e-05
5.24012e-05
-5.8485e-05
4.49383e-05
-3.93283e-05
3.75608e-05
3.46311e-05
3.67633e-05
5.72128e-05
4.00952e-05
6.45794e-05
4.30548e-05
7.08863e-05
4.12411e-05
8.46319e-05
0.00010966
1.82956e-06
-1.65199e-05
3.70195e-06
-1.69586e-05
5.66622e-06
-1.78539e-05
7.75713e-06
-1.9184e-05
1.00236e-05
-2.09292e-05
1.25324e-05
-2.30067e-05
1.53432e-05
-2.44545e-05
1.85836e-05
-2.37676e-05
2.23056e-05
-1.66437e-05
2.68074e-05
-1.50024e-05
3.29652e-05
-1.87234e-05
4.23497e-05
-3.12427e-05
4.39349e-05
-4.71882e-05
5.67804e-05
-5.38878e-05
3.54693e-05
-7.19866e-05
3.17244e-05
-1.48107e-05
3.00015e-05
4.05831e-05
3.45366e-05
5.26687e-05
4.04049e-05
5.87104e-05
4.61733e-05
6.51178e-05
4.73896e-05
8.34163e-05
0.000113091
3.50398e-06
-1.65007e-06
7.09187e-06
-6.69573e-07
1.08825e-05
1.47544e-06
1.49179e-05
2.33075e-06
1.92996e-05
1.55444e-06
2.42267e-05
-4.35336e-07
2.97282e-05
-3.73995e-06
3.67791e-05
-8.92693e-06
4.74075e-05
-1.45962e-05
5.87088e-05
-2.32416e-05
7.1492e-05
-3.30167e-05
8.78776e-05
-5.42482e-05
0.000103894
-6.84378e-05
8.38468e-05
-9.13324e-05
4.51883e-05
-7.49274e-05
4.34361e-05
6.55163e-06
5.6838e-05
2.78263e-05
7.41155e-05
3.53903e-05
9.02978e-05
4.25274e-05
0.000110424
4.49917e-05
0.000129807
6.40333e-05
6.24936e-05
3.54874e-06
5.65274e-06
7.28505e-06
5.33664e-06
1.12905e-05
4.75329e-06
1.5319e-05
3.97101e-06
1.92374e-05
1.66726e-06
2.3837e-05
-1.74425e-06
2.86158e-05
-5.84404e-06
3.41773e-05
-1.16694e-05
4.02634e-05
-1.86234e-05
4.57899e-05
-3.00229e-05
5.01431e-05
-4.498e-05
6.07918e-05
-8.20227e-05
5.76736e-05
-0.000103055
5.04097e-05
-9.20726e-05
2.6032e-05
-7.01831e-05
4.45189e-05
-4.01491e-06
6.1931e-05
1.06438e-05
7.98984e-05
1.74168e-05
9.81016e-05
2.43226e-05
0.000119908
2.3185e-05
0.0001472
3.67404e-05
2.52934e-05
3.31014e-06
6.51648e-07
6.89137e-06
-1.97988e-07
1.08584e-05
-2.37804e-06
1.50194e-05
-5.07143e-06
1.77249e-05
-7.46596e-06
2.0716e-05
-1.24126e-05
2.29839e-05
-1.76262e-05
2.53345e-05
-2.63109e-05
2.95964e-05
-3.8274e-05
3.71589e-05
-5.59457e-05
4.90485e-05
-7.7229e-05
5.56688e-05
-0.000104452
5.16931e-05
-0.000105011
4.74415e-05
-8.1084e-05
2.9124e-05
-5.96863e-05
5.27411e-05
-1.94463e-05
7.03575e-05
-3.24817e-06
8.60507e-05
1.73034e-06
0.00010385
6.52187e-06
0.000122822
4.21084e-06
0.000147572
1.19891e-05
3.00627e-06
3.61369e-06
-2.71473e-05
5.13239e-06
-2.77466e-05
8.90936e-06
-3.03703e-05
1.29451e-05
-3.32546e-05
1.76797e-05
-3.52994e-05
2.46748e-05
-4.16387e-05
3.32295e-05
-4.70762e-05
4.34498e-05
-5.52834e-05
5.4281e-05
-6.45658e-05
6.36676e-05
-7.63315e-05
6.86112e-05
-8.84224e-05
6.51152e-05
-0.000103534
5.85764e-05
-9.85341e-05
5.69762e-05
-7.57774e-05
4.81484e-05
-5.72487e-05
3.75281e-05
-3.44041e-05
7.67463e-05
-1.3895e-05
8.99932e-05
-1.14927e-05
0.000105985
-9.46298e-06
0.000123386
-1.31861e-05
0.000146691
-1.13152e-05
-1.85285e-05
8.61352e-06
-3.73466e-05
1.84223e-05
-3.76114e-05
2.65751e-05
-3.94038e-05
3.55048e-05
-4.24894e-05
4.35702e-05
-4.41309e-05
5.11533e-05
-4.97437e-05
5.847e-05
-5.48143e-05
6.52994e-05
-6.23116e-05
7.07887e-05
-7.01305e-05
7.46234e-05
-8.01583e-05
7.42493e-05
-8.80354e-05
6.88874e-05
-9.7994e-05
6.31744e-05
-9.40898e-05
6.0253e-05
-7.25285e-05
5.6209e-05
-5.76908e-05
4.1343e-05
-4.42142e-05
7.92395e-05
-2.30488e-05
9.11478e-05
-2.32223e-05
0.000105609
-2.39207e-05
0.000121689
-2.92633e-05
0.00014105
-3.0675e-05
-3.82804e-05
7.07611e-06
-4.44227e-05
1.45658e-05
-4.51011e-05
2.1938e-05
-4.67761e-05
2.88877e-05
-4.94391e-05
3.70225e-05
-5.22656e-05
4.39657e-05
-5.66868e-05
5.07893e-05
-6.16378e-05
5.6307e-05
-6.78291e-05
6.06398e-05
-7.44632e-05
6.23146e-05
-8.18329e-05
6.30282e-05
-8.87425e-05
6.249e-05
-9.73503e-05
5.94559e-05
-9.28455e-05
5.78382e-05
-7.26123e-05
5.48495e-05
-6.11658e-05
4.04904e-05
-4.71951e-05
7.8549e-05
-3.16402e-05
8.9601e-05
-3.40897e-05
0.000102741
-3.70614e-05
0.000117175
-4.36982e-05
0.000133746
-4.72465e-05
-5.67662e-05
6.53479e-06
-5.09575e-05
1.31724e-05
-5.17387e-05
1.969e-05
-5.32937e-05
2.5819e-05
-5.55681e-05
3.20419e-05
-5.84885e-05
3.77046e-05
-6.23495e-05
4.30335e-05
-6.69667e-05
4.75757e-05
-7.23714e-05
5.15512e-05
-7.84386e-05
5.46376e-05
-8.49194e-05
5.67014e-05
-9.08007e-05
5.78725e-05
-9.8434e-05
5.57282e-05
-9.29055e-05
5.43397e-05
-7.34908e-05
5.04394e-05
-6.34209e-05
3.83853e-05
-4.72778e-05
7.59108e-05
-3.98827e-05
8.60351e-05
-4.4128e-05
9.78914e-05
-4.8917e-05
0.00011078
-5.65873e-05
0.000125529
-6.1995e-05
-7.32863e-05
5.80098e-06
-5.67585e-05
1.15818e-05
-5.75195e-05
1.72354e-05
-5.89473e-05
2.27398e-05
-6.10725e-05
2.82074e-05
-6.39561e-05
3.33517e-05
-6.74939e-05
3.81799e-05
-7.17949e-05
4.24598e-05
-7.66513e-05
4.60509e-05
-8.20298e-05
4.88107e-05
-8.76791e-05
5.10476e-05
-9.30327e-05
5.29864e-05
-0.000100295
5.09652e-05
-9.33892e-05
4.97468e-05
-7.49062e-05
4.31721e-05
-6.65911e-05
3.47965e-05
-4.79197e-05
7.15332e-05
-4.77937e-05
8.0798e-05
-5.33678e-05
9.14433e-05
-5.95627e-05
0.000102927
-6.8071e-05
0.000115954
-7.50216e-05
-8.76503e-05
5.08384e-06
-6.18423e-05
1.01299e-05
-6.25656e-05
1.50927e-05
-6.39101e-05
1.99398e-05
-6.59196e-05
2.45819e-05
-6.85982e-05
2.90078e-05
-7.19198e-05
3.30647e-05
-7.58518e-05
3.67416e-05
-8.03282e-05
3.99668e-05
-8.52551e-05
4.2737e-05
-9.04493e-05
4.53182e-05
-9.56096e-05
4.77112e-05
-0.000102621
4.55517e-05
-9.40048e-05
4.46355e-05
-7.64673e-05
3.52862e-05
-6.95373e-05
3.58603e-05
-4.92798e-05
6.59505e-05
-5.51993e-05
7.43192e-05
-6.17309e-05
8.37647e-05
-6.90086e-05
9.38822e-05
-7.81885e-05
0.000105314
-8.64529e-05
0.000117734
-0.000100071
-0.000113824
4.40741e-06
-6.62497e-05
8.77362e-06
-6.69318e-05
1.30539e-05
-6.81903e-05
1.72143e-05
-7.00801e-05
2.12151e-05
-7.25989e-05
2.50061e-05
-7.57109e-05
2.85447e-05
-7.93904e-05
3.17845e-05
-8.35679e-05
3.47148e-05
-8.81854e-05
3.73886e-05
-9.3123e-05
3.99727e-05
-9.81901e-05
4.23768e-05
-0.000104964
3.97766e-05
-9.44345e-05
3.92525e-05
-7.83527e-05
2.93227e-05
-7.16492e-05
4.21871e-05
-5.32512e-05
5.94156e-05
-6.19567e-05
6.68518e-05
-6.91666e-05
7.50936e-05
-7.72508e-05
8.38682e-05
-8.69633e-05
9.37647e-05
-9.63491e-05
0.000104418
-0.000110724
-0.000124783
3.7706e-06
-7.00203e-05
7.50121e-06
-7.06624e-05
1.11475e-05
-7.18366e-05
1.46816e-05
-7.36142e-05
1.80724e-05
-7.59897e-05
2.12915e-05
-7.893e-05
2.43001e-05
-8.23989e-05
2.70911e-05
-8.6359e-05
2.96709e-05
-9.07652e-05
3.20848e-05
-9.55369e-05
3.45039e-05
-0.000100606
3.67849e-05
-0.000107188
3.3741e-05
-9.4589e-05
3.34853e-05
-8.03298e-05
1.88963e-05
-6.96353e-05
4.42604e-05
-5.98294e-05
5.21856e-05
-6.796e-05
5.86424e-05
-7.5624e-05
6.56582e-05
-8.42674e-05
7.30599e-05
-9.43656e-05
8.14283e-05
-0.000104718
9.04458e-05
-0.000119742
-0.00013428
3.16626e-06
-7.31865e-05
6.29947e-06
-7.37955e-05
9.34304e-06
-7.48802e-05
1.22762e-05
-7.65473e-05
1.50951e-05
-7.88086e-05
1.77706e-05
-8.16055e-05
2.02809e-05
-8.49092e-05
2.26213e-05
-8.86993e-05
2.48109e-05
-9.29547e-05
2.68997e-05
-9.76257e-05
2.90431e-05
-0.000102747
3.10363e-05
-0.000109128
2.75962e-05
-9.44312e-05
2.61694e-05
-8.20727e-05
1.75262e-05
-6.29907e-05
3.91484e-05
-6.58967e-05
4.44673e-05
-7.31605e-05
4.99043e-05
-8.10623e-05
5.56582e-05
-9.00224e-05
6.16227e-05
-0.000100331
6.8448e-05
-0.000111544
7.5769e-05
-0.000127063
-0.000141879
2.50144e-06
-7.5688e-05
5.00978e-06
-7.63038e-05
7.5124e-06
-7.73827e-05
9.94326e-06
-7.89781e-05
1.22455e-05
-8.11108e-05
1.44121e-05
-8.37721e-05
1.64291e-05
-8.69262e-05
1.82992e-05
-9.05694e-05
2.00424e-05
-9.46979e-05
2.17127e-05
-9.9296e-05
2.3469e-05
-0.000104501
2.5048e-05
-0.00011066
2.13342e-05
-9.40776e-05
1.80596e-05
-8.36007e-05
1.53628e-05
-5.56479e-05
3.20961e-05
-7.04072e-05
3.64679e-05
-7.75252e-05
4.08357e-05
-8.54315e-05
4.52725e-05
-9.4461e-05
4.97338e-05
-0.000104794
5.48984e-05
-0.00011671
5.98405e-05
-0.000132006
-0.000147135
1.90636e-06
-7.75943e-05
3.80661e-06
-7.8204e-05
5.73865e-06
-7.93147e-05
7.67135e-06
-8.09108e-05
9.50305e-06
-8.29424e-05
1.11806e-05
-8.54495e-05
1.27105e-05
-8.84561e-05
1.4088e-05
-9.19467e-05
1.53255e-05
-9.59355e-05
1.648e-05
-0.000100451
1.7694e-05
-0.000105714
1.86853e-05
-0.000111633
1.50792e-05
-9.39616e-05
1.07663e-05
-8.47375e-05
1.46011e-05
-5.73162e-05
2.49461e-05
-7.42135e-05
2.84369e-05
-8.10167e-05
3.17039e-05
-8.87007e-05
3.47727e-05
-9.75324e-05
3.77154e-05
-0.000107748
4.11666e-05
-0.000120209
4.31987e-05
-0.000134212
-0.000150195
1.52697e-06
-7.91705e-05
2.99591e-06
-7.97257e-05
4.38168e-06
-8.07603e-05
5.70025e-06
-8.23009e-05
6.98386e-06
-8.43158e-05
8.17808e-06
-8.67615e-05
9.23872e-06
-8.96771e-05
1.01364e-05
-9.30692e-05
1.08295e-05
-9.695e-05
1.12867e-05
-0.00010137
1.14402e-05
-0.000106506
1.09946e-05
-0.000112142
8.69263e-06
-9.45237e-05
5.17348e-06
-7.33663e-05
1.45317e-05
-7.19585e-05
1.82255e-05
-7.746e-05
2.09012e-05
-8.38597e-05
2.31258e-05
-9.13014e-05
2.47321e-05
-9.99659e-05
2.57392e-05
-0.000110504
2.64786e-05
-0.000124206
2.59488e-05
-0.00014008
-0.000165703
1.14465e-06
-8.41166e-05
2.26107e-06
-8.47599e-05
3.27924e-06
-8.59203e-05
4.1616e-06
-8.76659e-05
4.89223e-06
-8.99974e-05
5.52159e-06
-9.29452e-05
6.04329e-06
-9.65007e-05
6.41708e-06
-0.000100643
6.52678e-06
-0.000105326
6.17164e-06
-0.000110483
4.75756e-06
-0.000115856
1.40913e-06
-0.000121083
2.09803e-06
-0.000105089
3.32724e-06
-5.88925e-05
9.50357e-06
-7.5173e-05
1.23028e-05
-8.47431e-05
1.3835e-05
-9.23637e-05
1.46248e-05
-0.000102003
1.42035e-05
-0.00011357
1.21524e-05
-0.000127087
7.97583e-06
-0.000142108
4.13347e-06
-0.000160975
-0.00019117
5.48491e-07
-0.000116764
1.04127e-06
-0.000117678
1.46376e-06
-0.000119325
1.78477e-06
-0.000121776
1.98068e-06
-0.000125041
2.00612e-06
-0.000129158
1.8399e-06
-0.000134216
1.5313e-06
-0.000140374
1.09335e-06
-0.000147751
4.03532e-07
-0.000156405
-1.61222e-06
-0.000165259
-4.26353e-06
-0.000175114
-3.07269e-06
-0.00014737
2.01724e-06
-8.80515e-05
4.49627e-06
-0.00011329
4.36423e-06
-0.000121216
3.32442e-06
1.88191e-06
2.27054e-07
-1.16323e-06
-3.19374e-06
-4.45946e-06
-3.44552e-07
-7.54072e-07
-1.17671e-06
-1.65265e-06
-2.19385e-06
-2.77995e-06
-3.30011e-06
-3.86487e-06
-4.64948e-06
-5.56945e-06
-4.33476e-06
-2.69616e-06
-1.31797e-06
-1.97133e-06
-3.21896e-06
)
;

boundaryField
{
    leftWall
    {
        type            fixedValue;
        value           uniform 0;
    }
    rightWall
    {
        type            fixedValue;
        value           nonuniform 0();
    }
    lowerWall
    {
        type            fixedValue;
        value           uniform 0;
    }
    atmosphere
    {
        type            calculated;
        value           nonuniform 0();
    }
    defaultFaces
    {
        type            empty;
        value           nonuniform 0();
    }
    procBoundary0to1
    {
        type            processor;
        value           nonuniform List<scalar> 
26
(
2.76192e-05
2.15389e-05
2.04996e-05
2.03764e-05
2.27322e-05
2.63437e-05
3.35557e-05
4.39594e-05
0.000180404
0.000184399
0.000169858
0.000168227
0.000160802
0.000152232
0.000142049
0.000130318
0.00010079
0.000130771
0.000115378
9.99428e-05
8.33676e-05
6.502e-05
4.09626e-05
1.23596e-05
2.83349e-06
-5.60387e-05
)
;
    }
    procBoundary0to2
    {
        type            processor;
        value           nonuniform List<scalar> 
24
(
-0.00013226
-0.000147955
-0.000172019
-0.000199919
-0.000227761
-0.000239582
-0.00017162
-0.000169487
-0.000170817
-0.000173264
-0.00017694
-0.00018191
-0.000188285
-0.000196205
-0.00020582
-0.000217159
-0.000229879
-0.000242274
-0.000250473
-0.000165552
-0.000132709
-0.000154604
-5.18063e-06
-0.000164243
)
;
    }
}


// ************************************************************************* //
