/*--------------------------------*- C++ -*----------------------------------*\
| =========                 |                                                 |
| \\      /  F ield         | OpenFOAM: The Open Source CFD Toolbox           |
|  \\    /   O peration     | Version:  2.4.0                                 |
|   \\  /    A nd           | Web:      www.OpenFOAM.org                      |
|    \\/     M anipulation  |                                                 |
\*---------------------------------------------------------------------------*/
FoamFile
{
    version     2.0;
    format      ascii;
    class       volVectorField;
    location    "0.1";
    object      U;
}
// * * * * * * * * * * * * * * * * * * * * * * * * * * * * * * * * * * * * * //

dimensions      [0 1 -1 0 0 0 0];

internalField   nonuniform List<vector> 
575
(
(0.0126347 -0.00597384 0)
(0.0382716 -0.00614457 0)
(0.0650302 -0.00649649 0)
(0.0936998 -0.00705081 0)
(0.125406 -0.0078394 0)
(0.160401 -0.00893589 0)
(0.203576 -0.0103591 0)
(0.245617 -0.0121822 0)
(0.315518 -0.0150999 0)
(0.366837 -0.0178476 0)
(0.473354 -0.0184573 0)
(0.549269 -0.0331296 0)
(0.670697 -0.0412789 0)
(0.87443 -0.03315 0)
(1.06543 -0.0207772 0)
(1.17031 -0.0249112 0)
(1.20172 -0.0541249 0)
(1.23201 -0.154207 0)
(1.34168 -0.256703 0)
(1.28039 -0.159304 0)
(0.75777 0.0767871 0)
(0.410866 0.0854498 0)
(0.0125579 -0.017888 0)
(0.0380382 -0.0184013 0)
(0.0646254 -0.0194527 0)
(0.0930986 -0.0211081 0)
(0.124559 -0.023462 0)
(0.159277 -0.026745 0)
(0.202047 -0.0309199 0)
(0.243606 -0.03693 0)
(0.313283 -0.0428845 0)
(0.363548 -0.0596737 0)
(0.469184 -0.050375 0)
(0.552402 -0.0859381 0)
(0.680077 -0.126686 0)
(0.862837 -0.139047 0)
(1.03349 -0.103067 0)
(1.15346 -0.0287499 0)
(1.21268 0.0247343 0)
(1.2998 0.077438 0)
(1.2087 0.205448 0)
(0.786762 0.282431 0)
(0.543064 0.263727 0)
(0.35948 0.201659 0)
(0.0123972 -0.0296877 0)
(0.0375471 -0.0305355 0)
(0.0637747 -0.0322722 0)
(0.0918381 -0.0350036 0)
(0.122786 -0.0388865 0)
(0.156943 -0.0443057 0)
(0.198812 -0.0512018 0)
(0.23959 -0.0609812 0)
(0.308371 -0.0727043 0)
(0.355364 -0.0927587 0)
(0.463868 -0.0935458 0)
(0.543099 -0.151444 0)
(0.679217 -0.1923 0)
(0.854392 -0.191697 0)
(1.00409 -0.146214 0)
(1.09794 -0.0983216 0)
(1.18068 -0.0647053 0)
(1.24517 -0.0127503 0)
(0.877348 0.108648 0)
(0.594344 0.283599 0)
(0.470503 0.327455 0)
(0.33573 0.305159 0)
(0.012159 -0.0412966 0)
(0.0368192 -0.0424685 0)
(0.0625152 -0.0448676 0)
(0.0899732 -0.0486333 0)
(0.120163 -0.0539864 0)
(0.153493 -0.0614505 0)
(0.193944 -0.0709747 0)
(0.233912 -0.0845947 0)
(0.300157 -0.10076 0)
(0.344089 -0.127871 0)
(0.455235 -0.134491 0)
(0.526912 -0.20281 0)
(0.668608 -0.265751 0)
(0.827807 -0.268576 0)
(0.951986 -0.210664 0)
(1.04413 -0.132017 0)
(1.16942 0.000988088 0)
(0.980769 0.135606 0)
(0.627373 0.286979 0)
(0.518315 0.360819 0)
(0.44836 0.375358 0)
(0.334311 0.382215 0)
(0.0118461 -0.0526473 0)
(0.0358634 -0.0541292 0)
(0.0608642 -0.0571609 0)
(0.0875309 -0.0619037 0)
(0.116731 -0.0686415 0)
(0.148961 -0.0780204 0)
(0.187572 -0.090085 0)
(0.226421 -0.107212 0)
(0.289098 -0.128179 0)
(0.329591 -0.159855 0)
(0.439312 -0.175261 0)
(0.509228 -0.266292 0)
(0.646676 -0.327474 0)
(0.789708 -0.314036 0)
(0.883151 -0.261419 0)
(1.01139 -0.140942 0)
(1.01371 0.0148828 0)
(0.667898 0.206497 0)
(0.518593 0.353054 0)
(0.48731 0.389799 0)
(0.450064 0.412796 0)
(0.352259 0.452828 0)
(0.0114619 -0.0636839 0)
(0.03469 -0.0654577 0)
(0.0588424 -0.0690862 0)
(0.0845454 -0.0747363 0)
(0.112545 -0.0827591 0)
(0.143403 -0.0939195 0)
(0.179828 -0.108394 0)
(0.217131 -0.128863 0)
(0.275449 -0.153843 0)
(0.311742 -0.190864 0)
(0.419839 -0.217606 0)
(0.482952 -0.320035 0)
(0.611932 -0.383381 0)
(0.724686 -0.373035 0)
(0.836795 -0.29328 0)
(0.964487 -0.0988539 0)
(0.705569 0.09181 0)
(0.491149 0.288317 0)
(0.459842 0.372081 0)
(0.473921 0.403168 0)
(0.461805 0.438768 0)
(0.404236 0.530236 0)
(0.0110071 -0.0741909 0)
(0.0333007 -0.0762364 0)
(0.0564537 -0.080429 0)
(0.0810193 -0.0869267 0)
(0.107623 -0.0961792 0)
(0.13686 -0.10902 0)
(0.170811 -0.125696 0)
(0.206047 -0.14916 0)
(0.259345 -0.177376 0)
(0.291036 -0.219109 0)
(0.395506 -0.256198 0)
(0.447459 -0.365713 0)
(0.557253 -0.432381 0)
(0.665654 -0.414976 0)
(0.847412 -0.281003 0)
(0.755322 -0.0957412 0)
(0.463152 0.167139 0)
(0.401967 0.314404 0)
(0.434011 0.360445 0)
(0.479234 0.393369 0)
(0.501551 0.453843 0)
(0.468622 0.55335 0)
(0.0104645 -0.0841231 0)
(0.0316405 -0.0864494 0)
(0.0536058 -0.0912153 0)
(0.0768188 -0.0984962 0)
(0.101876 -0.108739 0)
(0.129349 -0.122908 0)
(0.160642 -0.141162 0)
(0.193403 -0.166695 0)
(0.241285 -0.19694 0)
(0.268608 -0.242325 0)
(0.368862 -0.287142 0)
(0.399317 -0.407959 0)
(0.488893 -0.482431 0)
(0.639222 -0.440414 0)
(0.777594 -0.269941 0)
(0.484697 -0.0111031 0)
(0.334733 0.222153 0)
(0.351437 0.303768 0)
(0.43317 0.335222 0)
(0.502416 0.373707 0)
(0.543449 0.448271 0)
(0.592532 0.633585 0)
(0.00940849 -0.101138 0)
(0.028443 -0.103671 0)
(0.0482687 -0.108818 0)
(0.0692294 -0.1163 0)
(0.0918493 -0.126626 0)
(0.116426 -0.141486 0)
(0.143602 -0.160701 0)
(0.172026 -0.188331 0)
(0.211453 -0.222082 0)
(0.233112 -0.276402 0)
(0.317125 -0.343161 0)
(0.316247 -0.485262 0)
(0.391584 -0.547043 0)
(0.540352 -0.426031 0)
(0.37873 -0.183335 0)
(0.219075 0.0900508 0)
(0.260443 0.204784 0)
(0.35555 0.245527 0)
(0.436283 0.278474 0)
(0.565369 0.293607 0)
(0.629577 0.416157 0)
(0.894931 0.478255 0)
(0.00829141 -0.114088 0)
(0.0250261 -0.116659 0)
(0.0426309 -0.12213 0)
(0.0607275 -0.1295 0)
(0.0789827 -0.140915 0)
(0.0981127 -0.158349 0)
(0.120032 -0.181278 0)
(0.141653 -0.219176 0)
(0.167359 -0.266956 0)
(0.187867 -0.341298 0)
(0.219948 -0.429821 0)
(0.215001 -0.551902 0)
(0.33262 -0.523812 0)
(0.311376 -0.3663 0)
(0.153072 -0.0939795 0)
(0.204909 0.0451868 0)
(0.28511 0.108892 0)
(0.385709 0.143181 0)
(0.478893 0.182836 0)
(0.598955 0.184254 0)
(0.716032 0.289735 0)
(0.880394 0.233703 0)
(0.00732974 -0.143618 0)
(0.0218722 -0.148878 0)
(0.0375417 -0.162526 0)
(0.0529067 -0.179861 0)
(0.0701692 -0.201136 0)
(0.0822533 -0.230959 0)
(0.0972349 -0.257025 0)
(0.1092 -0.295366 0)
(0.122977 -0.327466 0)
(0.150936 -0.367785 0)
(0.195126 -0.397579 0)
(0.284752 -0.499415 0)
(0.339437 -0.523783 0)
(0.226567 -0.337407 0)
(0.224126 -0.131025 0)
(0.274279 -0.0437356 0)
(0.339165 0.0132269 0)
(0.424479 0.0480178 0)
(0.508821 0.0827406 0)
(0.616418 0.0746553 0)
(0.735136 0.131837 0)
(0.846241 0.0688298 0)
(0.00866991 -0.170907 0)
(0.0188939 -0.17336 0)
(0.0300833 -0.175167 0)
(0.046204 -0.171903 0)
(0.0714078 -0.161836 0)
(0.0988947 -0.175245 0)
(0.139722 -0.179543 0)
(0.192268 -0.202442 0)
(0.250254 -0.23967 0)
(0.311682 -0.302676 0)
(0.368309 -0.402856 0)
(0.360637 -0.554589 0)
(0.355637 -0.545897 0)
(0.320627 -0.335979 0)
(0.311101 -0.158877 0)
(0.338355 -0.0908864 0)
(0.382544 -0.0520147 0)
(0.452262 -0.0304678 0)
(0.522574 -0.0107289 0)
(0.626242 -0.0260175 0)
(0.726134 -0.0052333 0)
(0.842552 -0.040891 0)
(0.0232769 -0.16011 0)
(0.0731669 -0.173601 0)
(0.121717 -0.175786 0)
(0.165269 -0.197289 0)
(0.214484 -0.206814 0)
(0.252588 -0.244454 0)
(0.295869 -0.279026 0)
(0.332351 -0.327182 0)
(0.365623 -0.376351 0)
(0.392129 -0.436697 0)
(0.403819 -0.486374 0)
(0.380923 -0.548303 0)
(0.384572 -0.517929 0)
(0.356121 -0.323711 0)
(0.338558 -0.159579 0)
(0.363975 -0.115958 0)
(0.401389 -0.0998724 0)
(0.461119 -0.0951196 0)
(0.524609 -0.0912921 0)
(0.619629 -0.115417 0)
(0.704562 -0.115709 0)
(0.809384 -0.15066 0)
(0.0190088 -0.224357 0)
(0.0580351 -0.226387 0)
(0.0981437 -0.238001 0)
(0.135292 -0.255212 0)
(0.177702 -0.275196 0)
(0.217109 -0.301768 0)
(0.255179 -0.331269 0)
(0.287275 -0.366746 0)
(0.314102 -0.405185 0)
(0.333792 -0.449542 0)
(0.326336 -0.482847 0)
(0.341037 -0.522013 0)
(0.361397 -0.489434 0)
(0.344736 -0.30644 0)
(0.331594 -0.166093 0)
(0.360397 -0.145416 0)
(0.40002 -0.146491 0)
(0.45439 -0.155205 0)
(0.513575 -0.165362 0)
(0.598731 -0.197639 0)
(0.671213 -0.211002 0)
(0.769005 -0.258346 0)
(0.0176025 -0.256359 0)
(0.0529714 -0.260589 0)
(0.0879368 -0.269144 0)
(0.122766 -0.281902 0)
(0.155232 -0.295625 0)
(0.187364 -0.317571 0)
(0.216333 -0.341719 0)
(0.243308 -0.37305 0)
(0.26387 -0.407036 0)
(0.285657 -0.442543 0)
(0.294541 -0.481028 0)
(0.314375 -0.52844 0)
(0.341918 -0.490092 0)
(0.326143 -0.310589 0)
(0.320628 -0.189263 0)
(0.344359 -0.180042 0)
(0.387299 -0.192606 0)
(0.437165 -0.211345 0)
(0.491589 -0.232479 0)
(0.567569 -0.271063 0)
(0.63059 -0.295407 0)
(0.722442 -0.352626 0)
(0.0155788 -0.291679 0)
(0.046664 -0.295776 0)
(0.0773639 -0.303789 0)
(0.107244 -0.315823 0)
(0.136833 -0.332859 0)
(0.165071 -0.352953 0)
(0.191843 -0.378393 0)
(0.216133 -0.405974 0)
(0.236697 -0.437207 0)
(0.256394 -0.47095 0)
(0.262192 -0.499865 0)
(0.287834 -0.53686 0)
(0.317674 -0.489402 0)
(0.297223 -0.30868 0)
(0.296221 -0.211466 0)
(0.322016 -0.211909 0)
(0.364863 -0.236031 0)
(0.410877 -0.263026 0)
(0.460858 -0.29295 0)
(0.528029 -0.336605 0)
(0.583679 -0.370095 0)
(0.666679 -0.435161 0)
(0.0136432 -0.319905 0)
(0.040835 -0.323913 0)
(0.0676795 -0.331425 0)
(0.0940694 -0.342601 0)
(0.119483 -0.357148 0)
(0.143809 -0.37572 0)
(0.166448 -0.397368 0)
(0.187233 -0.42267 0)
(0.205076 -0.450336 0)
(0.223454 -0.479178 0)
(0.230948 -0.508233 0)
(0.259217 -0.547697 0)
(0.29068 -0.489355 0)
(0.262649 -0.309469 0)
(0.266921 -0.236943 0)
(0.295614 -0.246269 0)
(0.33616 -0.277674 0)
(0.378129 -0.310524 0)
(0.423323 -0.347059 0)
(0.482267 -0.394786 0)
(0.530602 -0.435972 0)
(0.605112 -0.507205 0)
(0.674364 -0.578551 0)
(0.0118264 -0.345865 0)
(0.0353832 -0.349643 0)
(0.0585957 -0.35665 0)
(0.0812358 -0.367167 0)
(0.103135 -0.381297 0)
(0.124005 -0.39867 0)
(0.143618 -0.419427 0)
(0.161823 -0.442829 0)
(0.177967 -0.468753 0)
(0.194941 -0.496409 0)
(0.202622 -0.523902 0)
(0.231141 -0.560449 0)
(0.261886 -0.487303 0)
(0.224646 -0.310335 0)
(0.235433 -0.261666 0)
(0.265907 -0.279722 0)
(0.302502 -0.315944 0)
(0.340217 -0.353124 0)
(0.380414 -0.394709 0)
(0.431318 -0.445679 0)
(0.472728 -0.493419 0)
(0.538412 -0.569233 0)
(0.594668 -0.644619 0)
(0.0101184 -0.36773 0)
(0.0302618 -0.371289 0)
(0.0500632 -0.377842 0)
(0.0693288 -0.387718 0)
(0.0878984 -0.40087 0)
(0.105623 -0.4172 0)
(0.122304 -0.436436 0)
(0.137877 -0.458426 0)
(0.15205 -0.482792 0)
(0.166931 -0.508973 0)
(0.174166 -0.536378 0)
(0.201889 -0.572538 0)
(0.230266 -0.481659 0)
(0.184497 -0.313886 0)
(0.202253 -0.285507 0)
(0.233806 -0.312019 0)
(0.265262 -0.350453 0)
(0.298508 -0.390617 0)
(0.333397 -0.435832 0)
(0.376338 -0.489285 0)
(0.410751 -0.542557 0)
(0.467706 -0.622442 0)
(0.515645 -0.700407 0)
(0.00849502 -0.385855 0)
(0.0253982 -0.389292 0)
(0.04199 -0.395592 0)
(0.058037 -0.405077 0)
(0.073464 -0.417653 0)
(0.0881999 -0.433162 0)
(0.102108 -0.451486 0)
(0.115137 -0.472443 0)
(0.127166 -0.49589 0)
(0.1397 -0.521453 0)
(0.14618 -0.548973 0)
(0.171938 -0.58389 0)
(0.19667 -0.471861 0)
(0.143215 -0.319619 0)
(0.169425 -0.307985 0)
(0.199268 -0.341781 0)
(0.225623 -0.380752 0)
(0.254158 -0.422815 0)
(0.283375 -0.470446 0)
(0.318324 -0.525579 0)
(0.344935 -0.583734 0)
(0.393497 -0.666836 0)
(0.437484 -0.745333 0)
(0.00668887 -0.402012 0)
(0.0200455 -0.405354 0)
(0.0335278 -0.411104 0)
(0.0469165 -0.419867 0)
(0.0595978 -0.43186 0)
(0.0715681 -0.446651 0)
(0.0827949 -0.464135 0)
(0.0932399 -0.484269 0)
(0.102909 -0.506985 0)
(0.112668 -0.532084 0)
(0.11807 -0.560052 0)
(0.140533 -0.593855 0)
(0.160951 -0.45838 0)
(0.101544 -0.327451 0)
(0.137465 -0.330866 0)
(0.162719 -0.368273 0)
(0.1848 -0.407133 0)
(0.20825 -0.449913 0)
(0.231397 -0.498556 0)
(0.258108 -0.554143 0)
(0.275494 -0.616275 0)
(0.317763 -0.699301 0)
(0.349346 -0.772779 0)
(0.00509997 -0.415092 0)
(0.0153217 -0.418311 0)
(0.025568 -0.423994 0)
(0.0359246 -0.432232 0)
(0.0461957 -0.443101 0)
(0.0555606 -0.456895 0)
(0.0641633 -0.473357 0)
(0.072003 -0.492434 0)
(0.0790933 -0.514084 0)
(0.0856326 -0.538382 0)
(0.0898594 -0.566467 0)
(0.106387 -0.598974 0)
(0.122498 -0.441315 0)
(0.0627137 -0.337738 0)
(0.105643 -0.353722 0)
(0.125751 -0.390796 0)
(0.144001 -0.428029 0)
(0.162156 -0.469389 0)
(0.179085 -0.516529 0)
(0.197057 -0.57055 0)
(0.20536 -0.635813 0)
(0.245662 -0.714199 0)
(0.237982 -0.798486 0)
(0.00414028 -0.418109 0)
(0.0123196 -0.421097 0)
(0.0199607 -0.4266 0)
(0.0270118 -0.434737 0)
(0.0339587 -0.445135 0)
(0.0407468 -0.457883 0)
(0.0467995 -0.473311 0)
(0.0521314 -0.491386 0)
(0.0565607 -0.512157 0)
(0.0594225 -0.536001 0)
(0.061836 -0.564181 0)
(0.0641544 -0.596579 0)
(0.074332 -0.417209 0)
(0.0317221 -0.345709 0)
(0.0745545 -0.369867 0)
(0.0910279 -0.402662 0)
(0.105784 -0.43677 0)
(0.119013 -0.476411 0)
(0.12969 -0.523289 0)
(0.137224 -0.580052 0)
(0.137794 -0.653195 0)
(0.160687 -0.736446 0)
(0.107888 -0.856854 0)
(0.00312234 -0.425969 0)
(0.00925813 -0.428988 0)
(0.0149949 -0.434666 0)
(0.0201865 -0.443304 0)
(0.0244002 -0.454898 0)
(0.0280315 -0.469634 0)
(0.0312376 -0.487388 0)
(0.0338192 -0.50799 0)
(0.0354373 -0.531447 0)
(0.0348391 -0.557505 0)
(0.0341067 -0.585813 0)
(0.0116008 -0.613925 0)
(0.00603747 -0.400859 0)
(0.0136474 -0.362783 0)
(0.0470999 -0.389227 0)
(0.0614867 -0.421067 0)
(0.0713127 -0.459847 0)
(0.078193 -0.507789 0)
(0.0803814 -0.563307 0)
(0.0753456 -0.623686 0)
(0.0652807 -0.686979 0)
(0.0534621 -0.747089 0)
(0.0894567 -0.836799 0)
(0.00153473 -0.477683 0)
(0.00424405 -0.480019 0)
(0.00675814 -0.483873 0)
(0.0086935 -0.489232 0)
(0.0100693 -0.495677 0)
(0.0106832 -0.502551 0)
(0.0105098 -0.509272 0)
(0.00979017 -0.515623 0)
(0.00973426 -0.521571 0)
(0.0100154 -0.527193 0)
(0.0117524 -0.534567 0)
(-0.00753118 -0.532114 0)
(-0.0225863 -0.455009 0)
(0.00806525 -0.448409 0)
(0.0213402 -0.464459 0)
(0.0250824 -0.480469 0)
(0.023624 -0.495018 0)
(0.0248064 -0.507819 0)
(0.0346403 -0.521747 0)
(0.0586793 -0.546003 0)
(0.100346 -0.57802 0)
(0.135287 -0.611757 0)
(0.0216302 -0.475268 0)
(0.000765963 -0.450973 0)
(0.00139131 -0.449954 0)
(0.00218785 -0.447157 0)
(0.00304827 -0.44184 0)
(0.00410061 -0.432199 0)
(0.0054019 -0.415814 0)
(0.00707466 -0.389436 0)
(0.00921031 -0.35003 0)
(0.00844686 -0.294557 0)
(2.08089e-05 -0.223571 0)
(-0.00035548 -0.133571 0)
(-0.150442 -0.0628493 0)
(-0.0720844 -0.42284 0)
(-0.0153692 -0.430848 0)
(-0.00246695 -0.412462 0)
(0.0044759 -0.36811 0)
)
;

boundaryField
{
    leftWall
    {
        type            calculated;
        value           uniform (0 0 0);
    }
    rightWall
    {
        type            calculated;
        value           nonuniform 0();
    }
    lowerWall
    {
        type            calculated;
        value           uniform (0 0 0);
    }
    atmosphere
    {
        type            calculated;
        value           nonuniform 0();
    }
    defaultFaces
    {
        type            empty;
    }
    procBoundary0to1
    {
        type            processor;
        value           nonuniform List<vector> 
26
(
(0.136446 0.0628436 0)
(0.127233 0.190253 0)
(0.12841 0.289905 0)
(0.121802 0.430802 0)
(0.147442 0.511597 0)
(0.159539 0.690739 0)
(0.231251 0.780338 0)
(0.318554 1.08262 0)
(1.16628 0.964011 0)
(1.15929 0.394285 0)
(1.05557 0.0857045 0)
(1.00209 -0.0563796 0)
(0.941714 -0.205081 0)
(0.885474 -0.320741 0)
(0.821167 -0.417251 0)
(0.750367 -0.503533 0)
(0.750367 -0.503533 0)
(0.710719 -0.640684 0)
(0.627657 -0.707462 0)
(0.549499 -0.758619 0)
(0.457588 -0.802036 0)
(0.32835 -0.840008 0)
(0.201212 -0.878506 0)
(0.17695 -0.840676 0)
(0.178937 -0.376795 0)
(-0.605735 0.617217 0)
)
;
    }
    procBoundary0to2
    {
        type            processor;
        value           nonuniform List<vector> 
24
(
(0.00795439 -0.28191 0)
(0.0110081 -0.142753 0)
(0.000699492 0.0175947 0)
(-0.0285673 0.0824937 0)
(-0.0776306 -0.0231203 0)
(-0.201895 -0.193723 0)
(-0.793074 0.0508754 0)
(-0.00497789 0.107835 0)
(-0.0176844 0.101344 0)
(-0.029095 0.0861367 0)
(-0.0423245 0.0627986 0)
(-0.0565815 0.030143 0)
(-0.0728101 -0.0135616 0)
(-0.0910364 -0.0698544 0)
(-0.111398 -0.13838 0)
(-0.131843 -0.217755 0)
(-0.153543 -0.305257 0)
(-0.152986 -0.370299 0)
(-0.142281 -0.411399 0)
(-0.134419 -0.0607105 0)
(-0.20103 0.0404568 0)
(-0.24053 0.0348017 0)
(0.00795439 -0.28191 0)
(-0.275768 -0.037457 0)
)
;
    }
}


// ************************************************************************* //
