/*--------------------------------*- C++ -*----------------------------------*\
| =========                 |                                                 |
| \\      /  F ield         | OpenFOAM: The Open Source CFD Toolbox           |
|  \\    /   O peration     | Version:  2.4.0                                 |
|   \\  /    A nd           | Web:      www.OpenFOAM.org                      |
|    \\/     M anipulation  |                                                 |
\*---------------------------------------------------------------------------*/
FoamFile
{
    version     2.0;
    format      ascii;
    class       volVectorField;
    location    "0.1";
    object      U.air;
}
// * * * * * * * * * * * * * * * * * * * * * * * * * * * * * * * * * * * * * //

dimensions      [0 1 -1 0 0 0 0];

internalField   nonuniform List<vector> 
575
(
(0.0126353 -0.00597317 0)
(0.0382732 -0.00614391 0)
(0.0650329 -0.00649583 0)
(0.0937036 -0.00705019 0)
(0.125411 -0.00783879 0)
(0.160407 -0.00893536 0)
(0.203582 -0.0103586 0)
(0.245622 -0.0121818 0)
(0.315523 -0.0150996 0)
(0.366841 -0.0178474 0)
(0.473358 -0.0184567 0)
(0.549272 -0.033128 0)
(0.670692 -0.0412793 0)
(0.874418 -0.0331545 0)
(1.0655 -0.0206937 0)
(1.17061 -0.024605 0)
(1.20118 -0.0547684 0)
(1.22059 -0.166815 0)
(1.30429 -0.300376 0)
(1.3927 -0.333129 0)
(1.18405 -0.189306 0)
(0.567768 0.0142797 0)
(0.0125584 -0.0178858 0)
(0.0380398 -0.0183991 0)
(0.0646281 -0.0194506 0)
(0.0931024 -0.021106 0)
(0.124564 -0.02346 0)
(0.159283 -0.0267432 0)
(0.202052 -0.0309184 0)
(0.243611 -0.0369287 0)
(0.313288 -0.0428834 0)
(0.363552 -0.0596731 0)
(0.469188 -0.0503744 0)
(0.552404 -0.0859354 0)
(0.680077 -0.126679 0)
(0.862876 -0.138986 0)
(1.03378 -0.102717 0)
(1.15337 -0.028875 0)
(1.20447 0.0130323 0)
(1.25373 -0.00217639 0)
(1.29328 0.00999567 0)
(1.10658 0.0528939 0)
(0.754357 0.142459 0)
(0.376828 0.19376 0)
(0.0123977 -0.029684 0)
(0.0375487 -0.0305319 0)
(0.0637774 -0.0322686 0)
(0.0918419 -0.035 0)
(0.122791 -0.0388832 0)
(0.156948 -0.0443027 0)
(0.198817 -0.0511993 0)
(0.239595 -0.060979 0)
(0.308376 -0.0727025 0)
(0.355368 -0.0927573 0)
(0.463871 -0.0935439 0)
(0.5431 -0.15144 0)
(0.679224 -0.192285 0)
(0.85467 -0.191327 0)
(1.004 -0.146341 0)
(1.09232 -0.106093 0)
(1.1324 -0.127922 0)
(1.20542 -0.18722 0)
(1.04568 -0.0570489 0)
(0.637718 0.253175 0)
(0.472715 0.32618 0)
(0.335722 0.305133 0)
(0.0121595 -0.0412911 0)
(0.0368207 -0.0424631 0)
(0.0625178 -0.0448623 0)
(0.0899769 -0.0486282 0)
(0.120167 -0.0539816 0)
(0.153498 -0.0614462 0)
(0.193949 -0.0709711 0)
(0.233917 -0.0845915 0)
(0.300162 -0.100757 0)
(0.344094 -0.127868 0)
(0.455238 -0.134489 0)
(0.526914 -0.202805 0)
(0.668687 -0.265622 0)
(0.828004 -0.26831 0)
(0.948003 -0.215498 0)
(1.00861 -0.18684 0)
(1.0479 -0.181645 0)
(0.992484 -0.0559299 0)
(0.642678 0.265196 0)
(0.518188 0.360836 0)
(0.448315 0.375362 0)
(0.334302 0.382167 0)
(0.0118466 -0.0526403 0)
(0.0358649 -0.0541221 0)
(0.0608667 -0.057154 0)
(0.0875344 -0.0618971 0)
(0.116736 -0.0686354 0)
(0.148966 -0.0780149 0)
(0.187577 -0.0900804 0)
(0.226425 -0.107208 0)
(0.289103 -0.128176 0)
(0.329595 -0.159853 0)
(0.439315 -0.175258 0)
(0.509231 -0.266287 0)
(0.646906 -0.327114 0)
(0.788674 -0.31527 0)
(0.860466 -0.292287 0)
(0.894177 -0.287827 0)
(0.906489 -0.222505 0)
(0.677727 0.149081 0)
(0.518493 0.353009 0)
(0.487227 0.389802 0)
(0.450029 0.412767 0)
(0.352242 0.452772 0)
(0.0114624 -0.0636756 0)
(0.0346915 -0.0654496 0)
(0.0588449 -0.0690783 0)
(0.0845487 -0.0747288 0)
(0.112549 -0.0827522 0)
(0.143408 -0.0939135 0)
(0.179832 -0.108389 0)
(0.217135 -0.128859 0)
(0.275453 -0.153839 0)
(0.311746 -0.190861 0)
(0.419843 -0.217603 0)
(0.482955 -0.32003 0)
(0.612189 -0.383016 0)
(0.71628 -0.382405 0)
(0.759398 -0.386441 0)
(0.785659 -0.333131 0)
(0.681634 -0.0264106 0)
(0.491245 0.287297 0)
(0.45976 0.372064 0)
(0.473869 0.403142 0)
(0.461773 0.438726 0)
(0.404211 0.530178 0)
(0.0110075 -0.0741815 0)
(0.033302 -0.0762271 0)
(0.056456 -0.0804201 0)
(0.0810224 -0.0869183 0)
(0.107626 -0.0961716 0)
(0.136864 -0.109013 0)
(0.170815 -0.12569 0)
(0.206051 -0.149156 0)
(0.259349 -0.177372 0)
(0.29104 -0.219106 0)
(0.39551 -0.256195 0)
(0.447461 -0.365709 0)
(0.556539 -0.433197 0)
(0.630038 -0.455412 0)
(0.674492 -0.443091 0)
(0.655147 -0.273731 0)
(0.462755 0.147211 0)
(0.401925 0.314364 0)
(0.43396 0.360416 0)
(0.479194 0.393329 0)
(0.501517 0.453805 0)
(0.468586 0.553307 0)
(0.010465 -0.0841134 0)
(0.0316417 -0.0864398 0)
(0.0536078 -0.0912061 0)
(0.0768214 -0.0984876 0)
(0.101879 -0.108732 0)
(0.129353 -0.122902 0)
(0.160645 -0.141156 0)
(0.193407 -0.16669 0)
(0.241288 -0.196936 0)
(0.268611 -0.242323 0)
(0.368865 -0.287139 0)
(0.39932 -0.407957 0)
(0.481398 -0.490411 0)
(0.541021 -0.526792 0)
(0.581143 -0.458015 0)
(0.465215 -0.0977229 0)
(0.334738 0.221841 0)
(0.351409 0.303731 0)
(0.433138 0.335185 0)
(0.502386 0.373667 0)
(0.543413 0.448241 0)
(0.592486 0.633545 0)
(0.00940884 -0.101129 0)
(0.028444 -0.103662 0)
(0.0482702 -0.108809 0)
(0.0692315 -0.116292 0)
(0.0918517 -0.126619 0)
(0.116429 -0.14148 0)
(0.143605 -0.160695 0)
(0.17203 -0.18832 0)
(0.211483 -0.221965 0)
(0.233352 -0.275593 0)
(0.317696 -0.341643 0)
(0.315043 -0.487335 0)
(0.354521 -0.586956 0)
(0.367945 -0.576562 0)
(0.321751 -0.328828 0)
(0.218258 0.0812644 0)
(0.260441 0.204751 0)
(0.355537 0.24549 0)
(0.436264 0.278437 0)
(0.565344 0.293573 0)
(0.629543 0.416129 0)
(0.894892 0.478234 0)
(0.00829262 -0.113975 0)
(0.0250307 -0.116511 0)
(0.0426438 -0.12188 0)
(0.0607609 -0.129023 0)
(0.0790547 -0.140089 0)
(0.0982356 -0.157193 0)
(0.120233 -0.179759 0)
(0.141916 -0.217591 0)
(0.167476 -0.266409 0)
(0.186818 -0.344923 0)
(0.214236 -0.444304 0)
(0.180457 -0.612712 0)
(0.210242 -0.650922 0)
(0.236684 -0.498919 0)
(0.152693 -0.110344 0)
(0.204915 0.0451618 0)
(0.285109 0.108862 0)
(0.3857 0.143149 0)
(0.478877 0.182803 0)
(0.598932 0.184223 0)
(0.716003 0.28971 0)
(0.880365 0.233686 0)
(0.0073253 -0.144021 0)
(0.0218472 -0.149592 0)
(0.0374448 -0.164025 0)
(0.052604 -0.182957 0)
(0.0694409 -0.207125 0)
(0.0808493 -0.241308 0)
(0.0945655 -0.275087 0)
(0.104332 -0.324669 0)
(0.112741 -0.377058 0)
(0.128649 -0.446355 0)
(0.148947 -0.508917 0)
(0.208489 -0.628582 0)
(0.255819 -0.620764 0)
(0.222858 -0.386538 0)
(0.226379 -0.140624 0)
(0.274282 -0.0437623 0)
(0.339162 0.0131989 0)
(0.42447 0.047989 0)
(0.508805 0.0827115 0)
(0.616397 0.0746274 0)
(0.73511 0.131815 0)
(0.84621 0.0688082 0)
(0.00692301 -0.243619 0)
(0.015245 -0.247849 0)
(0.0240008 -0.254056 0)
(0.0356093 -0.258718 0)
(0.0560785 -0.259567 0)
(0.0768728 -0.280252 0)
(0.107104 -0.295033 0)
(0.148693 -0.320362 0)
(0.195898 -0.354264 0)
(0.256904 -0.398968 0)
(0.320577 -0.471669 0)
(0.33101 -0.595738 0)
(0.34084 -0.565161 0)
(0.32091 -0.361138 0)
(0.312404 -0.176659 0)
(0.338379 -0.0910674 0)
(0.382541 -0.0520412 0)
(0.452252 -0.0304946 0)
(0.522559 -0.0107557 0)
(0.626221 -0.026044 0)
(0.72611 -0.00525743 0)
(0.842527 -0.0409202 0)
(0.0232788 -0.160102 0)
(0.0731687 -0.173588 0)
(0.121719 -0.175776 0)
(0.165271 -0.197278 0)
(0.214485 -0.206807 0)
(0.252588 -0.244449 0)
(0.29587 -0.279024 0)
(0.332354 -0.327181 0)
(0.365629 -0.376351 0)
(0.392139 -0.436697 0)
(0.403832 -0.486378 0)
(0.380948 -0.54829 0)
(0.385039 -0.51735 0)
(0.353894 -0.344703 0)
(0.338674 -0.180159 0)
(0.364014 -0.116643 0)
(0.401386 -0.0998972 0)
(0.46111 -0.0951444 0)
(0.524594 -0.0913167 0)
(0.619609 -0.115442 0)
(0.704539 -0.115733 0)
(0.809357 -0.150683 0)
(0.0190093 -0.224343 0)
(0.0580362 -0.226372 0)
(0.0981451 -0.237987 0)
(0.135293 -0.255199 0)
(0.177703 -0.275184 0)
(0.217111 -0.301757 0)
(0.255181 -0.331259 0)
(0.287279 -0.366738 0)
(0.314109 -0.405179 0)
(0.333802 -0.449539 0)
(0.326347 -0.482846 0)
(0.34106 -0.521999 0)
(0.36179 -0.48895 0)
(0.341878 -0.327134 0)
(0.331277 -0.185295 0)
(0.360412 -0.146022 0)
(0.400018 -0.146513 0)
(0.454382 -0.155227 0)
(0.513561 -0.165384 0)
(0.598711 -0.197662 0)
(0.67119 -0.211024 0)
(0.768979 -0.258365 0)
(0.0176027 -0.256344 0)
(0.052972 -0.260574 0)
(0.0879374 -0.26913 0)
(0.122766 -0.281888 0)
(0.155232 -0.295613 0)
(0.187365 -0.31756 0)
(0.216334 -0.341708 0)
(0.243311 -0.37304 0)
(0.263875 -0.407029 0)
(0.285664 -0.442538 0)
(0.29455 -0.481025 0)
(0.314392 -0.528427 0)
(0.342052 -0.489927 0)
(0.323037 -0.331975 0)
(0.319672 -0.205914 0)
(0.344359 -0.180359 0)
(0.387296 -0.192625 0)
(0.437156 -0.211364 0)
(0.491575 -0.232498 0)
(0.56755 -0.271082 0)
(0.630568 -0.295426 0)
(0.722417 -0.352643 0)
(0.015579 -0.291665 0)
(0.0466642 -0.295762 0)
(0.0773638 -0.303776 0)
(0.107244 -0.315811 0)
(0.136832 -0.332847 0)
(0.16507 -0.352942 0)
(0.191844 -0.378383 0)
(0.216135 -0.405965 0)
(0.2367 -0.437199 0)
(0.256399 -0.470945 0)
(0.262198 -0.499863 0)
(0.287848 -0.536846 0)
(0.317337 -0.489879 0)
(0.294377 -0.331547 0)
(0.295267 -0.224375 0)
(0.322013 -0.212009 0)
(0.36486 -0.236047 0)
(0.410868 -0.263042 0)
(0.460844 -0.292966 0)
(0.52801 -0.336621 0)
(0.583658 -0.370109 0)
(0.666656 -0.435175 0)
(0.0136432 -0.319893 0)
(0.0408348 -0.323901 0)
(0.0676788 -0.331413 0)
(0.0940683 -0.34259 0)
(0.119481 -0.357138 0)
(0.143807 -0.37571 0)
(0.166447 -0.397359 0)
(0.187234 -0.422662 0)
(0.205077 -0.450329 0)
(0.223457 -0.479173 0)
(0.230951 -0.50823 0)
(0.259228 -0.547683 0)
(0.28972 -0.490862 0)
(0.260447 -0.333314 0)
(0.26617 -0.245946 0)
(0.295614 -0.246296 0)
(0.336156 -0.277686 0)
(0.37812 -0.310536 0)
(0.42331 -0.34707 0)
(0.482251 -0.394794 0)
(0.530584 -0.435978 0)
(0.605093 -0.507211 0)
(0.674348 -0.578552 0)
(0.0118263 -0.345856 0)
(0.0353827 -0.349635 0)
(0.0585948 -0.356641 0)
(0.0812344 -0.367158 0)
(0.103134 -0.381289 0)
(0.124003 -0.398661 0)
(0.143617 -0.419419 0)
(0.161823 -0.442821 0)
(0.177967 -0.468746 0)
(0.194943 -0.496403 0)
(0.202624 -0.523897 0)
(0.23115 -0.560436 0)
(0.260207 -0.490366 0)
(0.22332 -0.334119 0)
(0.234937 -0.267094 0)
(0.265907 -0.279733 0)
(0.302498 -0.315952 0)
(0.34021 -0.353129 0)
(0.380404 -0.394709 0)
(0.431308 -0.445673 0)
(0.472719 -0.493405 0)
(0.538406 -0.569224 0)
(0.59467 -0.644592 0)
(0.0101183 -0.367723 0)
(0.0302613 -0.371283 0)
(0.0500622 -0.377835 0)
(0.0693275 -0.387711 0)
(0.087897 -0.400862 0)
(0.105621 -0.417191 0)
(0.122304 -0.436426 0)
(0.137877 -0.458414 0)
(0.152051 -0.482778 0)
(0.166933 -0.508959 0)
(0.174167 -0.536367 0)
(0.201896 -0.572524 0)
(0.22789 -0.486994 0)
(0.184127 -0.336282 0)
(0.202 -0.288125 0)
(0.233805 -0.312027 0)
(0.26526 -0.350452 0)
(0.298506 -0.390602 0)
(0.333398 -0.435799 0)
(0.376348 -0.489231 0)
(0.410771 -0.542488 0)
(0.467743 -0.622397 0)
(0.515729 -0.700338 0)
(0.00849491 -0.38584 0)
(0.0253978 -0.389282 0)
(0.0419895 -0.39558 0)
(0.0580366 -0.405064 0)
(0.0734639 -0.417636 0)
(0.0882005 -0.43314 0)
(0.102109 -0.451459 0)
(0.11514 -0.472405 0)
(0.127171 -0.495842 0)
(0.139706 -0.521405 0)
(0.146185 -0.548928 0)
(0.171944 -0.583868 0)
(0.193745 -0.480366 0)
(0.143664 -0.338647 0)
(0.169352 -0.308685 0)
(0.199267 -0.341778 0)
(0.225627 -0.380715 0)
(0.254173 -0.422724 0)
(0.283411 -0.470306 0)
(0.318395 -0.5254 0)
(0.345036 -0.583547 0)
(0.393615 -0.666736 0)
(0.440132 -0.745105 0)
(0.00668933 -0.401943 0)
(0.0200466 -0.405294 0)
(0.0335294 -0.411041 0)
(0.0469192 -0.419795 0)
(0.0596022 -0.431779 0)
(0.0715752 -0.446556 0)
(0.0828065 -0.464023 0)
(0.0932585 -0.484137 0)
(0.102935 -0.50684 0)
(0.112699 -0.531941 0)
(0.118097 -0.559912 0)
(0.140548 -0.593649 0)
(0.157694 -0.470954 0)
(0.102434 -0.341222 0)
(0.137456 -0.330755 0)
(0.162723 -0.368211 0)
(0.184825 -0.40698 0)
(0.208318 -0.44968 0)
(0.231521 -0.498283 0)
(0.258291 -0.55374 0)
(0.275697 -0.61518 0)
(0.318092 -0.695213 0)
(0.455082 -0.718538 0)
(0.00510159 -0.414281 0)
(0.0153267 -0.41744 0)
(0.0255769 -0.422984 0)
(0.0359386 -0.430973 0)
(0.0462164 -0.441437 0)
(0.0555894 -0.454549 0)
(0.0642013 -0.469855 0)
(0.0720494 -0.486952 0)
(0.0791455 -0.505223 0)
(0.0856896 -0.523931 0)
(0.0899436 -0.54407 0)
(0.106504 -0.563456 0)
(0.118314 -0.44684 0)
(0.0640149 -0.330251 0)
(0.1057 -0.352705 0)
(0.125792 -0.389262 0)
(0.144061 -0.424118 0)
(0.162242 -0.458466 0)
(0.179221 -0.486439 0)
(0.19753 -0.495122 0)
(0.207968 -0.536804 0)
(0.308963 -0.611301 0)
(0.452586 -0.638985 0)
(0.0041504 -0.310864 0)
(0.012357 -0.313054 0)
(0.020037 -0.317177 0)
(0.0271528 -0.323503 0)
(0.0342191 -0.331795 0)
(0.0412432 -0.3422 0)
(0.0477772 -0.354853 0)
(0.0540952 -0.369764 0)
(0.0604851 -0.38572 0)
(0.0666888 -0.40232 0)
(0.0753869 -0.421518 0)
(0.0823339 -0.438536 0)
(0.0762185 -0.284043 0)
(0.0271592 -0.210862 0)
(0.0754051 -0.258446 0)
(0.0915726 -0.282974 0)
(0.108203 -0.307702 0)
(0.128693 -0.333498 0)
(0.163574 -0.352408 0)
(0.211868 -0.353532 0)
(0.244555 -0.406632 0)
(0.302525 -0.511968 0)
(0.303934 -0.693152 0)
(0.00431882 -0.166112 0)
(0.0129444 -0.168659 0)
(0.0212743 -0.173638 0)
(0.0292629 -0.181689 0)
(0.0367522 -0.19314 0)
(0.0443031 -0.208612 0)
(0.0520592 -0.228124 0)
(0.059823 -0.251249 0)
(0.0665521 -0.278221 0)
(0.0686301 -0.308663 0)
(0.0689991 -0.341497 0)
(0.00884237 -0.36828 0)
(-0.038636 -0.10352 0)
(-0.00637672 -0.0864519 0)
(0.0602573 -0.113772 0)
(0.0914165 -0.138081 0)
(0.121312 -0.172779 0)
(0.145189 -0.218514 0)
(0.152506 -0.275382 0)
(0.137122 -0.347337 0)
(0.113607 -0.440015 0)
(0.126047 -0.55645 0)
(0.152771 -0.773081 0)
(0.00153811 -0.174899 0)
(0.00427666 -0.177992 0)
(0.00672652 -0.183547 0)
(0.00843276 -0.191664 0)
(0.00953494 -0.202189 0)
(0.0100749 -0.215001 0)
(0.0105473 -0.230191 0)
(0.011861 -0.248643 0)
(0.0153143 -0.271221 0)
(0.0200186 -0.297414 0)
(0.0268894 -0.328011 0)
(0.00517332 -0.342737 0)
(-0.0176518 -0.148028 0)
(0.00577644 -0.129527 0)
(0.0217469 -0.147432 0)
(0.0263585 -0.172023 0)
(0.0312125 -0.206863 0)
(0.0457434 -0.25719 0)
(0.070272 -0.322105 0)
(0.102163 -0.403308 0)
(0.143004 -0.484466 0)
(0.164715 -0.560067 0)
(0.0238229 -0.456449 0)
(0.00113981 -0.376247 0)
(0.00244141 -0.376407 0)
(0.00381993 -0.375798 0)
(0.00517378 -0.373541 0)
(0.00660446 -0.367695 0)
(0.0081357 -0.355696 0)
(0.00984028 -0.334218 0)
(0.0117449 -0.300225 0)
(0.0105097 -0.250724 0)
(0.00131231 -0.186201 0)
(0.000696874 -0.102131 0)
(-0.156962 -0.022429 0)
(-0.0876458 -0.338407 0)
(-0.0185071 -0.34087 0)
(0.000311784 -0.328528 0)
(0.00948901 -0.295458 0)
)
;

boundaryField
{
    leftWall
    {
        type            fixedValue;
        value           uniform (0 0 0);
    }
    rightWall
    {
        type            fixedValue;
        value           nonuniform 0();
    }
    lowerWall
    {
        type            fixedValue;
        value           uniform (0 0 0);
    }
    atmosphere
    {
        type            fluxCorrectedVelocity;
        value           nonuniform 0();
    }
    defaultFaces
    {
        type            empty;
    }
    procBoundary0to1
    {
        type            processor;
        value           nonuniform List<vector> 
26
(
(0.136557 0.0628015 0)
(0.127238 0.19022 0)
(0.128411 0.289846 0)
(0.1218 0.430734 0)
(0.147433 0.511523 0)
(0.159528 0.690662 0)
(0.231234 0.780281 0)
(0.318523 1.08252 0)
(1.1662 0.963916 0)
(1.15925 0.394269 0)
(1.05553 0.0856509 0)
(1.00206 -0.0564041 0)
(0.941673 -0.205094 0)
(0.885437 -0.320758 0)
(0.821138 -0.417274 0)
(0.75034 -0.503549 0)
(0.75034 -0.503549 0)
(0.710706 -0.640671 0)
(0.627714 -0.707422 0)
(0.561889 -0.75735 0)
(0.570804 -0.749728 0)
(0.655435 -0.70288 0)
(0.459086 -0.763988 0)
(0.262927 -0.805065 0)
(0.186398 -0.356829 0)
(-0.605847 0.617578 0)
)
;
    }
    procBoundary0to2
    {
        type            processor;
        value           nonuniform List<vector> 
24
(
(0.0127365 -0.223144 0)
(0.0146281 -0.100688 0)
(0.0026533 0.04201 0)
(-0.0279682 0.0921496 0)
(-0.0775465 -0.0201126 0)
(-0.201953 -0.192744 0)
(-0.793215 0.051253 0)
(-0.00498301 0.108501 0)
(-0.0176941 0.101969 0)
(-0.0291092 0.0866883 0)
(-0.0423416 0.0632589 0)
(-0.0565995 0.0305054 0)
(-0.0728273 -0.0132921 0)
(-0.0910515 -0.0696648 0)
(-0.11141 -0.138254 0)
(-0.131852 -0.217674 0)
(-0.15355 -0.305207 0)
(-0.152994 -0.370261 0)
(-0.142357 -0.411172 0)
(-0.134527 -0.0599215 0)
(-0.201168 0.0411865 0)
(-0.240633 0.0352773 0)
(0.0127365 -0.223144 0)
(-0.275823 -0.0372264 0)
)
;
    }
}


// ************************************************************************* //
