/*--------------------------------*- C++ -*----------------------------------*\
| =========                 |                                                 |
| \\      /  F ield         | OpenFOAM: The Open Source CFD Toolbox           |
|  \\    /   O peration     | Version:  2.4.0                                 |
|   \\  /    A nd           | Web:      www.OpenFOAM.org                      |
|    \\/     M anipulation  |                                                 |
\*---------------------------------------------------------------------------*/
FoamFile
{
    version     2.0;
    format      ascii;
    class       volVectorField;
    location    "0.1";
    object      U.mercury;
}
// * * * * * * * * * * * * * * * * * * * * * * * * * * * * * * * * * * * * * //

dimensions      [0 1 -1 0 0 0 0];

internalField   nonuniform List<vector> 
575
(
(0.0126347 -0.00597384 0)
(0.0382716 -0.00614457 0)
(0.0650302 -0.00649649 0)
(0.0936998 -0.00705082 0)
(0.125406 -0.0078394 0)
(0.160401 -0.00893589 0)
(0.203576 -0.0103591 0)
(0.245617 -0.0121822 0)
(0.315518 -0.0150999 0)
(0.366837 -0.0178476 0)
(0.473354 -0.0184573 0)
(0.549269 -0.0331296 0)
(0.670697 -0.0412794 0)
(0.874422 -0.0331601 0)
(1.06532 -0.0208931 0)
(1.1697 -0.0255795 0)
(1.19841 -0.0580103 0)
(1.2113 -0.177077 0)
(1.2849 -0.322882 0)
(1.45789 -0.43379 0)
(1.78801 -0.566228 0)
(1.91328 -0.596177 0)
(0.0125579 -0.0178881 0)
(0.0380382 -0.0184013 0)
(0.0646254 -0.0194528 0)
(0.0930986 -0.0211081 0)
(0.124559 -0.023462 0)
(0.159277 -0.026745 0)
(0.202047 -0.0309199 0)
(0.243606 -0.03693 0)
(0.313283 -0.0428845 0)
(0.363548 -0.0596738 0)
(0.469184 -0.050375 0)
(0.552403 -0.0859381 0)
(0.680075 -0.12669 0)
(0.862772 -0.13913 0)
(1.03302 -0.103632 0)
(1.15113 -0.0312918 0)
(1.19655 0.00169195 0)
(1.23162 -0.0404984 0)
(1.34836 -0.117306 0)
(1.60699 -0.306122 0)
(1.81787 -0.467992 0)
(1.31875 -0.234592 0)
(0.0123972 -0.0296877 0)
(0.0375471 -0.0305355 0)
(0.0637747 -0.0322722 0)
(0.0918381 -0.0350036 0)
(0.122786 -0.0388865 0)
(0.156943 -0.0443057 0)
(0.198812 -0.0512018 0)
(0.23959 -0.0609812 0)
(0.308371 -0.0727043 0)
(0.355364 -0.0927587 0)
(0.463868 -0.0935458 0)
(0.543099 -0.151444 0)
(0.679197 -0.19233 0)
(0.853994 -0.192227 0)
(1.00182 -0.149177 0)
(1.0856 -0.115458 0)
(1.10811 -0.159785 0)
(1.18125 -0.293455 0)
(1.39835 -0.403821 0)
(1.40562 -0.283236 0)
(0.93374 0.0644472 0)
(0.36736 0.286277 0)
(0.012159 -0.0412966 0)
(0.0368192 -0.0424685 0)
(0.0625152 -0.0448676 0)
(0.0899732 -0.0486333 0)
(0.120163 -0.0539864 0)
(0.153493 -0.0614505 0)
(0.193944 -0.0709747 0)
(0.233912 -0.0845947 0)
(0.300157 -0.10076 0)
(0.344089 -0.127871 0)
(0.455235 -0.134491 0)
(0.526912 -0.20281 0)
(0.668508 -0.265909 0)
(0.826422 -0.270444 0)
(0.942012 -0.222777 0)
(0.988921 -0.217326 0)
(0.985873 -0.274977 0)
(1.01283 -0.389524 0)
(1.03837 -0.292967 0)
(0.574343 0.308161 0)
(0.456906 0.363294 0)
(0.335918 0.378081 0)
(0.0118461 -0.0526473 0)
(0.0358634 -0.0541292 0)
(0.0608642 -0.0571609 0)
(0.0875309 -0.0619038 0)
(0.116731 -0.0686415 0)
(0.148961 -0.0780204 0)
(0.187572 -0.090085 0)
(0.226421 -0.107212 0)
(0.289098 -0.128179 0)
(0.329591 -0.159855 0)
(0.439312 -0.175261 0)
(0.509228 -0.266292 0)
(0.64638 -0.327934 0)
(0.78504 -0.319618 0)
(0.845246 -0.313076 0)
(0.83975 -0.356165 0)
(0.787433 -0.486158 0)
(0.786866 -0.491884 0)
(0.561138 0.251759 0)
(0.489835 0.381436 0)
(0.450788 0.40901 0)
(0.35272 0.450925 0)
(0.0114619 -0.0636839 0)
(0.03469 -0.0654577 0)
(0.0588424 -0.0690863 0)
(0.0845454 -0.0747363 0)
(0.112545 -0.0827591 0)
(0.143403 -0.0939195 0)
(0.179828 -0.108394 0)
(0.217131 -0.128863 0)
(0.275449 -0.153843 0)
(0.311742 -0.190864 0)
(0.419839 -0.217606 0)
(0.482952 -0.320035 0)
(0.611007 -0.384691 0)
(0.707184 -0.39258 0)
(0.722785 -0.430588 0)
(0.658228 -0.500102 0)
(0.578447 -0.53482 0)
(0.526969 -0.00994374 0)
(0.462206 0.358326 0)
(0.475106 0.399493 0)
(0.461975 0.436877 0)
(0.404276 0.529316 0)
(0.0110071 -0.0741909 0)
(0.0333007 -0.0762364 0)
(0.0564537 -0.080429 0)
(0.0810194 -0.0869267 0)
(0.107623 -0.0961792 0)
(0.13686 -0.10902 0)
(0.170811 -0.125696 0)
(0.206047 -0.14916 0)
(0.259345 -0.177376 0)
(0.291036 -0.219109 0)
(0.395506 -0.256198 0)
(0.447458 -0.365713 0)
(0.553181 -0.437042 0)
(0.608521 -0.479898 0)
(0.58453 -0.52749 0)
(0.478579 -0.587423 0)
(0.450411 -0.415077 0)
(0.405309 0.28985 0)
(0.434914 0.355269 0)
(0.479322 0.390869 0)
(0.501408 0.452494 0)
(0.468526 0.55277 0)
(0.0104645 -0.0841231 0)
(0.0316405 -0.0864494 0)
(0.0536058 -0.0912153 0)
(0.0768188 -0.0984962 0)
(0.101876 -0.108739 0)
(0.129349 -0.122908 0)
(0.160642 -0.141162 0)
(0.193403 -0.166695 0)
(0.241285 -0.19694 0)
(0.268608 -0.242325 0)
(0.368862 -0.287142 0)
(0.399312 -0.407966 0)
(0.472901 -0.49946 0)
(0.493512 -0.568577 0)
(0.416511 -0.615615 0)
(0.352342 -0.598992 0)
(0.338577 0.0293557 0)
(0.352441 0.298742 0)
(0.433203 0.332702 0)
(0.502098 0.372149 0)
(0.543205 0.447359 0)
(0.592194 0.632954 0)
(0.00940849 -0.101138 0)
(0.0284431 -0.103671 0)
(0.0482687 -0.108818 0)
(0.0692294 -0.1163 0)
(0.0918493 -0.126626 0)
(0.116426 -0.141486 0)
(0.143602 -0.160703 0)
(0.172025 -0.188342 0)
(0.211436 -0.222155 0)
(0.232988 -0.276824 0)
(0.316455 -0.344946 0)
(0.308234 -0.499306 0)
(0.32963 -0.615723 0)
(0.264328 -0.666939 0)
(0.188409 -0.665405 0)
(0.181305 -0.307116 0)
(0.262343 0.193793 0)
(0.355414 0.244067 0)
(0.436148 0.277435 0)
(0.565074 0.293092 0)
(0.629387 0.415825 0)
(0.894659 0.47819 0)
(0.00829078 -0.114157 0)
(0.0250236 -0.116744 0)
(0.0426246 -0.122261 0)
(0.0607121 -0.129726 0)
(0.0789461 -0.14134 0)
(0.0980259 -0.159171 0)
(0.1198 -0.183032 0)
(0.14104 -0.222853 0)
(0.165603 -0.275077 0)
(0.182737 -0.359107 0)
(0.20505 -0.467651 0)
(0.150621 -0.665372 0)
(0.121136 -0.746 0)
(0.0876504 -0.754364 0)
(0.0747765 -0.516002 0)
(0.203133 0.0338225 0)
(0.285074 0.107884 0)
(0.385658 0.142717 0)
(0.478828 0.182557 0)
(0.598896 0.184108 0)
(0.715975 0.289655 0)
(0.880345 0.233671 0)
(0.00721589 -0.154314 0)
(0.021478 -0.160364 0)
(0.0366909 -0.175852 0)
(0.0512764 -0.196656 0)
(0.0674402 -0.223681 0)
(0.0781126 -0.261574 0)
(0.0907042 -0.301301 0)
(0.0986169 -0.35915 0)
(0.103065 -0.423991 0)
(0.109887 -0.512525 0)
(0.108065 -0.607483 0)
(0.103597 -0.806107 0)
(0.0679256 -0.837797 0)
(0.0659976 -0.781577 0)
(0.193469 -0.248784 0)
(0.274118 -0.0449756 0)
(0.339051 0.0129862 0)
(0.424388 0.0478514 0)
(0.508754 0.0826364 0)
(0.616366 0.0745944 0)
(0.735092 0.131799 0)
(0.846201 0.0688048 0)
(0.00541939 -0.306232 0)
(0.0121303 -0.311471 0)
(0.0188324 -0.321128 0)
(0.0265658 -0.332853 0)
(0.0426888 -0.344958 0)
(0.0565911 -0.376979 0)
(0.0738544 -0.412767 0)
(0.096814 -0.460749 0)
(0.112935 -0.529139 0)
(0.137792 -0.608285 0)
(0.151859 -0.714777 0)
(0.13428 -0.868899 0)
(0.101267 -0.879954 0)
(0.218877 -0.502673 0)
(0.305489 -0.186332 0)
(0.338385 -0.0912493 0)
(0.382537 -0.0521178 0)
(0.452249 -0.0305388 0)
(0.522556 -0.0107769 0)
(0.626219 -0.0260533 0)
(0.726109 -0.00526129 0)
(0.842527 -0.0409218 0)
(0.0327248 -0.189511 0)
(0.0700478 -0.185792 0)
(0.116647 -0.197495 0)
(0.158767 -0.213427 0)
(0.206443 -0.231316 0)
(0.241738 -0.269447 0)
(0.283241 -0.306473 0)
(0.318531 -0.353054 0)
(0.352264 -0.400823 0)
(0.380121 -0.457428 0)
(0.393577 -0.510894 0)
(0.372822 -0.567652 0)
(0.380285 -0.531791 0)
(0.351667 -0.349896 0)
(0.338141 -0.180034 0)
(0.363986 -0.116489 0)
(0.401387 -0.0998996 0)
(0.46111 -0.0951462 0)
(0.524594 -0.0913178 0)
(0.619609 -0.115443 0)
(0.704539 -0.115733 0)
(0.809357 -0.150683 0)
(0.0190097 -0.227159 0)
(0.0580362 -0.22684 0)
(0.0981452 -0.240395 0)
(0.135293 -0.257185 0)
(0.177702 -0.278151 0)
(0.217109 -0.304913 0)
(0.255178 -0.334596 0)
(0.287275 -0.37007 0)
(0.314101 -0.408456 0)
(0.333793 -0.452728 0)
(0.326336 -0.485957 0)
(0.341042 -0.52496 0)
(0.361306 -0.491758 0)
(0.341932 -0.327785 0)
(0.331316 -0.18336 0)
(0.360408 -0.145799 0)
(0.400018 -0.146513 0)
(0.454382 -0.155227 0)
(0.513561 -0.165384 0)
(0.598711 -0.197662 0)
(0.67119 -0.211024 0)
(0.768979 -0.258366 0)
(0.0176027 -0.256344 0)
(0.052972 -0.260574 0)
(0.0879374 -0.26913 0)
(0.122766 -0.281889 0)
(0.155232 -0.295615 0)
(0.187365 -0.317563 0)
(0.216334 -0.341714 0)
(0.243311 -0.373046 0)
(0.263875 -0.407037 0)
(0.285664 -0.442547 0)
(0.29455 -0.481034 0)
(0.314386 -0.528445 0)
(0.34131 -0.490883 0)
(0.32307 -0.331749 0)
(0.319796 -0.203768 0)
(0.344361 -0.180234 0)
(0.387296 -0.192625 0)
(0.437156 -0.211364 0)
(0.491575 -0.232498 0)
(0.56755 -0.271082 0)
(0.630568 -0.295426 0)
(0.722417 -0.352644 0)
(0.015579 -0.291665 0)
(0.0466642 -0.295762 0)
(0.0773638 -0.303776 0)
(0.107244 -0.315811 0)
(0.136832 -0.332847 0)
(0.16507 -0.352942 0)
(0.191844 -0.378383 0)
(0.216135 -0.405965 0)
(0.2367 -0.437199 0)
(0.256399 -0.470945 0)
(0.262198 -0.499863 0)
(0.287842 -0.536856 0)
(0.316652 -0.490843 0)
(0.294439 -0.331052 0)
(0.295418 -0.222348 0)
(0.322015 -0.211974 0)
(0.36486 -0.236047 0)
(0.410868 -0.263043 0)
(0.460844 -0.292966 0)
(0.52801 -0.336621 0)
(0.583657 -0.37011 0)
(0.666655 -0.435176 0)
(0.0136432 -0.319893 0)
(0.0408348 -0.323901 0)
(0.0676788 -0.331413 0)
(0.0940683 -0.34259 0)
(0.119481 -0.357138 0)
(0.143807 -0.37571 0)
(0.166447 -0.397359 0)
(0.187234 -0.422662 0)
(0.205077 -0.450329 0)
(0.223457 -0.479173 0)
(0.230951 -0.50823 0)
(0.259223 -0.547693 0)
(0.289115 -0.491813 0)
(0.260523 -0.332492 0)
(0.26632 -0.244167 0)
(0.295614 -0.24629 0)
(0.336156 -0.277687 0)
(0.37812 -0.310537 0)
(0.423309 -0.347072 0)
(0.482249 -0.394798 0)
(0.530581 -0.435984 0)
(0.605089 -0.507215 0)
(0.67434 -0.57856 0)
(0.0118263 -0.345856 0)
(0.0353827 -0.349635 0)
(0.0585948 -0.356642 0)
(0.0812344 -0.367158 0)
(0.103134 -0.381289 0)
(0.124003 -0.398662 0)
(0.143617 -0.419419 0)
(0.161823 -0.442822 0)
(0.177967 -0.468747 0)
(0.194942 -0.496404 0)
(0.202624 -0.523899 0)
(0.231144 -0.560445 0)
(0.259711 -0.491273 0)
(0.223385 -0.33294 0)
(0.235063 -0.265719 0)
(0.265907 -0.279733 0)
(0.302498 -0.315955 0)
(0.340209 -0.353136 0)
(0.3804 -0.39472 0)
(0.431301 -0.445689 0)
(0.472709 -0.493428 0)
(0.538391 -0.56924 0)
(0.594647 -0.644621 0)
(0.0101183 -0.367725 0)
(0.0302612 -0.371284 0)
(0.0500621 -0.377837 0)
(0.0693274 -0.387714 0)
(0.0878969 -0.400865 0)
(0.105621 -0.417194 0)
(0.122303 -0.43643 0)
(0.137876 -0.45842 0)
(0.152049 -0.482787 0)
(0.166931 -0.508968 0)
(0.174165 -0.536376 0)
(0.20189 -0.572534 0)
(0.227527 -0.487812 0)
(0.184153 -0.334752 0)
(0.202083 -0.287275 0)
(0.233804 -0.312029 0)
(0.265258 -0.350464 0)
(0.2985 -0.390628 0)
(0.333384 -0.435843 0)
(0.376322 -0.489295 0)
(0.410733 -0.542564 0)
(0.467688 -0.622447 0)
(0.515623 -0.700409 0)
(0.00849484 -0.385855 0)
(0.0253976 -0.389292 0)
(0.0419892 -0.395591 0)
(0.058036 -0.405076 0)
(0.0734629 -0.417652 0)
(0.0881989 -0.433159 0)
(0.102107 -0.451483 0)
(0.115136 -0.472439 0)
(0.127165 -0.495886 0)
(0.139699 -0.52145 0)
(0.146178 -0.548971 0)
(0.171937 -0.583887 0)
(0.19352 -0.48102 0)
(0.143622 -0.336852 0)
(0.169381 -0.308399 0)
(0.199265 -0.341792 0)
(0.225618 -0.380764 0)
(0.25415 -0.422828 0)
(0.283363 -0.470458 0)
(0.318309 -0.525591 0)
(0.344919 -0.583744 0)
(0.39348 -0.666844 0)
(0.437469 -0.745341 0)
(0.00668896 -0.402019 0)
(0.0200456 -0.40536 0)
(0.0335277 -0.41111 0)
(0.0469163 -0.419872 0)
(0.0595976 -0.431865 0)
(0.071568 -0.446655 0)
(0.0827948 -0.464139 0)
(0.0932395 -0.484273 0)
(0.102908 -0.506988 0)
(0.112665 -0.532087 0)
(0.118066 -0.560057 0)
(0.140529 -0.593858 0)
(0.157599 -0.471355 0)
(0.102312 -0.339468 0)
(0.137458 -0.330919 0)
(0.162714 -0.36829 0)
(0.184794 -0.40715 0)
(0.208241 -0.449931 0)
(0.231386 -0.498574 0)
(0.258094 -0.554159 0)
(0.27548 -0.616289 0)
(0.317748 -0.699313 0)
(0.349329 -0.772787 0)
(0.00510008 -0.415108 0)
(0.015322 -0.418327 0)
(0.0255684 -0.42401 0)
(0.0359249 -0.432248 0)
(0.0461961 -0.443117 0)
(0.055561 -0.45691 0)
(0.0641635 -0.473373 0)
(0.0720027 -0.492449 0)
(0.0790918 -0.514099 0)
(0.0856295 -0.538397 0)
(0.089855 -0.566482 0)
(0.106383 -0.598987 0)
(0.119331 -0.458617 0)
(0.0633019 -0.343932 0)
(0.105638 -0.353748 0)
(0.125745 -0.390821 0)
(0.143995 -0.428054 0)
(0.162147 -0.469414 0)
(0.179074 -0.516553 0)
(0.197045 -0.570571 0)
(0.205348 -0.635832 0)
(0.24565 -0.714214 0)
(0.237767 -0.798644 0)
(0.00414032 -0.418134 0)
(0.0123197 -0.421122 0)
(0.0199608 -0.426625 0)
(0.027012 -0.434763 0)
(0.0339588 -0.445162 0)
(0.0407469 -0.457911 0)
(0.0467994 -0.47334 0)
(0.0521306 -0.491418 0)
(0.0565588 -0.512192 0)
(0.0594188 -0.536042 0)
(0.0618304 -0.564233 0)
(0.0641454 -0.596659 0)
(0.0725864 -0.437475 0)
(0.0318754 -0.347578 0)
(0.074551 -0.3699 0)
(0.0910232 -0.402694 0)
(0.105778 -0.436803 0)
(0.119005 -0.476448 0)
(0.129674 -0.523349 0)
(0.137161 -0.580232 0)
(0.137535 -0.65379 0)
(0.159564 -0.738222 0)
(0.0938692 -0.868539 0)
(0.00311942 -0.426597 0)
(0.00924863 -0.429655 0)
(0.0149769 -0.435412 0)
(0.0201561 -0.444183 0)
(0.0243494 -0.455981 0)
(0.0279453 -0.471023 0)
(0.03109 -0.489235 0)
(0.0335642 -0.510516 0)
(0.0350055 -0.534968 0)
(0.0341675 -0.562452 0)
(0.0331407 -0.592576 0)
(0.0116966 -0.623286 0)
(0.0069465 -0.419726 0)
(0.013687 -0.363334 0)
(0.0470705 -0.389811 0)
(0.0613769 -0.422096 0)
(0.070961 -0.461864 0)
(0.0772202 -0.511987 0)
(0.0781611 -0.572161 0)
(0.0713277 -0.641638 0)
(0.0588683 -0.719738 0)
(0.0325007 -0.802129 0)
(0.00786594 -0.918882 0)
(0.00153444 -0.523116 0)
(0.00423969 -0.527002 0)
(0.00676467 -0.533847 0)
(0.00874341 -0.543856 0)
(0.0101838 -0.556882 0)
(0.0108359 -0.572584 0)
(0.0105055 -0.590687 0)
(0.00905945 -0.611021 0)
(0.0072585 -0.633188 0)
(0.00439732 -0.656554 0)
(0.00114344 -0.679486 0)
(-0.018462 -0.69453 0)
(-0.0236451 -0.501791 0)
(0.0083324 -0.485607 0)
(0.0212859 -0.509367 0)
(0.0248366 -0.541851 0)
(0.0213547 -0.581834 0)
(0.0147335 -0.628727 0)
(0.00581342 -0.683308 0)
(-0.00299096 -0.748322 0)
(-0.00911188 -0.818049 0)
(-0.028353 -0.899187 0)
(-0.0303015 -0.921669 0)
(-0.000625212 -0.728983 0)
(-0.0026588 -0.733568 0)
(-0.00454751 -0.741604 0)
(-0.00665107 -0.753465 0)
(-0.00897106 -0.768911 0)
(-0.0115125 -0.787737 0)
(-0.0139708 -0.809617 0)
(-0.0154151 -0.833959 0)
(-0.0180992 -0.858748 0)
(-0.0226995 -0.880992 0)
(-0.0256719 -0.889765 0)
(-0.0384401 -0.849922 0)
(-0.0211112 -0.702635 0)
(-0.00589786 -0.702513 0)
(-0.0127308 -0.722271 0)
(-0.0222086 -0.754621 0)
)
;

boundaryField
{
    leftWall
    {
        type            fixedValue;
        value           uniform (0 0 0);
    }
    rightWall
    {
        type            fixedValue;
        value           nonuniform 0();
    }
    lowerWall
    {
        type            fixedValue;
        value           uniform (0 0 0);
    }
    atmosphere
    {
        type            fluxCorrectedVelocity;
        value           nonuniform 0();
    }
    defaultFaces
    {
        type            empty;
    }
    procBoundary0to1
    {
        type            processor;
        value           nonuniform List<vector> 
26
(
(0.465915 -0.0574869 0)
(0.152509 0.179817 0)
(0.129379 0.288818 0)
(0.122162 0.430151 0)
(0.147594 0.511256 0)
(0.159611 0.690442 0)
(0.231299 0.780064 0)
(0.318587 1.08219 0)
(1.16591 0.963815 0)
(1.15924 0.394279 0)
(1.05553 0.0856497 0)
(1.00206 -0.0564047 0)
(0.941673 -0.205094 0)
(0.885437 -0.320758 0)
(0.821137 -0.417275 0)
(0.750338 -0.503551 0)
(0.750338 -0.503551 0)
(0.71069 -0.64068 0)
(0.627642 -0.707465 0)
(0.549487 -0.758628 0)
(0.457568 -0.802045 0)
(0.327545 -0.840353 0)
(0.171531 -0.891663 0)
(0.0464225 -0.894712 0)
(0.034125 -0.764584 0)
(-0.556656 0.456772 0)
)
;
    }
    procBoundary0to2
    {
        type            processor;
        value           nonuniform List<vector> 
24
(
(-0.0334023 -0.789843 0)
(-0.0467409 -0.813383 0)
(-0.0651191 -0.804209 0)
(-0.075596 -0.674657 0)
(-0.0919608 -0.536396 0)
(-0.184719 -0.480323 0)
(-0.731676 -0.11276 0)
(-0.00301784 -0.147637 0)
(-0.013862 -0.145619 0)
(-0.0231973 -0.144513 0)
(-0.0346111 -0.145214 0)
(-0.0476716 -0.150258 0)
(-0.0633206 -0.163399 0)
(-0.0816703 -0.188536 0)
(-0.102763 -0.228316 0)
(-0.124532 -0.282885 0)
(-0.147748 -0.350353 0)
(-0.14865 -0.402426 0)
(-0.126495 -0.468129 0)
(-0.111055 -0.232314 0)
(-0.168876 -0.130133 0)
(-0.211728 -0.0996591 0)
(-0.0334023 -0.789843 0)
(-0.256069 -0.120771 0)
)
;
    }
}


// ************************************************************************* //
