/*--------------------------------*- C++ -*----------------------------------*\
| =========                 |                                                 |
| \\      /  F ield         | OpenFOAM: The Open Source CFD Toolbox           |
|  \\    /   O peration     | Version:  2.4.0                                 |
|   \\  /    A nd           | Web:      www.OpenFOAM.org                      |
|    \\/     M anipulation  |                                                 |
\*---------------------------------------------------------------------------*/
FoamFile
{
    version     2.0;
    format      ascii;
    class       volVectorField;
    location    "0.1";
    object      U.water;
}
// * * * * * * * * * * * * * * * * * * * * * * * * * * * * * * * * * * * * * //

dimensions      [0 1 -1 0 0 0 0];

internalField   nonuniform List<vector> 
575
(
(0.0126353 -0.00597317 0)
(0.0382732 -0.00614391 0)
(0.0650329 -0.00649583 0)
(0.0937036 -0.00705019 0)
(0.125411 -0.00783879 0)
(0.160407 -0.00893536 0)
(0.203582 -0.0103586 0)
(0.245622 -0.0121818 0)
(0.315523 -0.0150996 0)
(0.366841 -0.0178474 0)
(0.473358 -0.0184567 0)
(0.549272 -0.0331278 0)
(0.670692 -0.0412792 0)
(0.874416 -0.033157 0)
(1.06546 -0.0207471 0)
(1.17046 -0.0247737 0)
(1.20098 -0.0550117 0)
(1.22047 -0.166949 0)
(1.30475 -0.299835 0)
(1.3822 -0.316879 0)
(1.14913 -0.167502 0)
(0.532595 0.0302423 0)
(0.0125584 -0.0178858 0)
(0.0380398 -0.0183991 0)
(0.0646281 -0.0194506 0)
(0.0931024 -0.021106 0)
(0.124564 -0.02346 0)
(0.159283 -0.0267432 0)
(0.202052 -0.0309184 0)
(0.243611 -0.0369287 0)
(0.313288 -0.0428833 0)
(0.363552 -0.0596729 0)
(0.469188 -0.0503742 0)
(0.552404 -0.0859334 0)
(0.680077 -0.126677 0)
(0.862849 -0.139019 0)
(1.03363 -0.102888 0)
(1.15316 -0.0291052 0)
(1.20432 0.0128236 0)
(1.25516 0.000292142 0)
(1.28484 0.0295582 0)
(1.06754 0.0809248 0)
(0.712403 0.166546 0)
(0.369539 0.197079 0)
(0.0123977 -0.029684 0)
(0.0375487 -0.0305319 0)
(0.0637774 -0.0322686 0)
(0.0918419 -0.035 0)
(0.122791 -0.0388832 0)
(0.156948 -0.0443027 0)
(0.198817 -0.0511992 0)
(0.239595 -0.060979 0)
(0.308376 -0.0727023 0)
(0.355369 -0.0927562 0)
(0.463872 -0.0935424 0)
(0.543103 -0.151429 0)
(0.679221 -0.192282 0)
(0.854541 -0.191493 0)
(1.0038 -0.146601 0)
(1.09215 -0.106341 0)
(1.13341 -0.126603 0)
(1.2093 -0.170227 0)
(1.01841 -0.0301823 0)
(0.624829 0.262188 0)
(0.471291 0.326989 0)
(0.335722 0.305133 0)
(0.0121595 -0.0412911 0)
(0.0368207 -0.0424631 0)
(0.0625178 -0.0448623 0)
(0.0899769 -0.0486281 0)
(0.120167 -0.0539816 0)
(0.153498 -0.0614462 0)
(0.193949 -0.070971 0)
(0.233917 -0.0845915 0)
(0.300162 -0.100756 0)
(0.344094 -0.127863 0)
(0.455242 -0.134482 0)
(0.526926 -0.202764 0)
(0.66866 -0.265646 0)
(0.827829 -0.268542 0)
(0.947796 -0.21575 0)
(1.00893 -0.186336 0)
(1.05823 -0.166117 0)
(0.990658 -0.0257832 0)
(0.637149 0.273027 0)
(0.518186 0.360837 0)
(0.448315 0.375362 0)
(0.334302 0.382167 0)
(0.0118466 -0.0526402 0)
(0.0358649 -0.054122 0)
(0.0608667 -0.0571539 0)
(0.0875344 -0.0618969 0)
(0.116736 -0.068635 0)
(0.148966 -0.0780145 0)
(0.187577 -0.09008 0)
(0.226425 -0.107208 0)
(0.289104 -0.128171 0)
(0.329598 -0.159835 0)
(0.439329 -0.175234 0)
(0.509272 -0.266182 0)
(0.646831 -0.327202 0)
(0.788463 -0.315461 0)
(0.860418 -0.292135 0)
(0.903755 -0.2758 0)
(0.919982 -0.192625 0)
(0.675015 0.165066 0)
(0.51849 0.353016 0)
(0.487227 0.389802 0)
(0.450029 0.412767 0)
(0.352242 0.452772 0)
(0.0114624 -0.0636741 0)
(0.0346915 -0.0654485 0)
(0.0588449 -0.0690769 0)
(0.0845488 -0.0747271 0)
(0.112549 -0.0827507 0)
(0.143408 -0.0939121 0)
(0.179833 -0.108388 0)
(0.217136 -0.128858 0)
(0.275457 -0.153823 0)
(0.311755 -0.190814 0)
(0.419875 -0.217536 0)
(0.483035 -0.319848 0)
(0.61214 -0.383121 0)
(0.71474 -0.371589 0)
(0.762747 -0.377897 0)
(0.803012 -0.310744 0)
(0.68682 -0.00128162 0)
(0.491176 0.287883 0)
(0.45976 0.372064 0)
(0.473869 0.403142 0)
(0.461773 0.438726 0)
(0.404211 0.530178 0)
(0.0110076 -0.0741668 0)
(0.0333021 -0.0762184 0)
(0.0564561 -0.0804142 0)
(0.0810226 -0.0869155 0)
(0.107627 -0.0961693 0)
(0.136864 -0.109012 0)
(0.170815 -0.125689 0)
(0.206053 -0.149155 0)
(0.259359 -0.177348 0)
(0.291064 -0.219048 0)
(0.395566 -0.256118 0)
(0.447567 -0.365564 0)
(0.56611 -0.411426 0)
(0.660502 -0.398143 0)
(0.708565 -0.430226 0)
(0.677265 -0.253808 0)
(0.463555 0.153965 0)
(0.401923 0.314364 0)
(0.43396 0.360416 0)
(0.479194 0.393329 0)
(0.501517 0.453805 0)
(0.468586 0.553307 0)
(0.0104652 -0.0840384 0)
(0.0316423 -0.0863604 0)
(0.0536082 -0.0910918 0)
(0.0768216 -0.098261 0)
(0.101879 -0.108118 0)
(0.129352 -0.121213 0)
(0.160645 -0.136299 0)
(0.193408 -0.154813 0)
(0.241293 -0.171052 0)
(0.268619 -0.20631 0)
(0.368864 -0.247547 0)
(0.413945 -0.366668 0)
(0.587246 -0.453274 0)
(0.742045 -0.371446 0)
(0.706237 -0.439245 0)
(0.51816 -0.125077 0)
(0.334881 0.221801 0)
(0.351409 0.303731 0)
(0.433138 0.335185 0)
(0.502386 0.373667 0)
(0.543413 0.448241 0)
(0.592486 0.633545 0)
(0.00941053 -0.0745856 0)
(0.0284505 -0.0755089 0)
(0.0482891 -0.0766162 0)
(0.0692927 -0.0821056 0)
(0.0920653 -0.0904412 0)
(0.117262 -0.102211 0)
(0.146776 -0.113098 0)
(0.18256 -0.118894 0)
(0.240192 -0.100445 0)
(0.280018 -0.116912 0)
(0.379044 -0.178149 0)
(0.402623 -0.332964 0)
(0.467628 -0.424424 0)
(0.54986 -0.424037 0)
(0.504636 -0.401654 0)
(0.244932 0.0478731 0)
(0.260433 0.204744 0)
(0.355537 0.24549 0)
(0.436264 0.278437 0)
(0.565344 0.293573 0)
(0.629543 0.416129 0)
(0.894892 0.478234 0)
(0.00943354 0.00932319 0)
(0.0287792 0.0146639 0)
(0.0498775 0.0265587 0)
(0.0717251 0.0321359 0)
(0.0932561 0.0249682 0)
(0.115916 0.0102737 0)
(0.142433 -0.0117998 0)
(0.169588 -0.0514856 0)
(0.202848 -0.102816 0)
(0.232447 -0.186532 0)
(0.274915 -0.290233 0)
(0.271338 -0.452074 0)
(0.349841 -0.490692 0)
(0.327275 -0.47826 0)
(0.274805 -0.377001 0)
(0.207954 0.0360599 0)
(0.285128 0.108854 0)
(0.3857 0.143148 0)
(0.478877 0.182803 0)
(0.598932 0.184223 0)
(0.716003 0.28971 0)
(0.880365 0.233686 0)
(0.00906917 0.0197961 0)
(0.0274691 0.0142016 0)
(0.0478447 -0.00115008 0)
(0.0683124 -0.021162 0)
(0.0888602 -0.0467272 0)
(0.102325 -0.0825556 0)
(0.117938 -0.116664 0)
(0.130685 -0.165881 0)
(0.146467 -0.213594 0)
(0.176863 -0.276368 0)
(0.220237 -0.337034 0)
(0.296995 -0.478835 0)
(0.328456 -0.538169 0)
(0.270919 -0.461791 0)
(0.275287 -0.347016 0)
(0.280083 -0.0686411 0)
(0.339365 0.0131685 0)
(0.424464 0.0479793 0)
(0.508804 0.0827089 0)
(0.616396 0.0746268 0)
(0.73511 0.131815 0)
(0.84621 0.0688082 0)
(0.0107737 -0.0833206 0)
(0.0230881 -0.0877162 0)
(0.0363405 -0.0939911 0)
(0.0552003 -0.0981716 0)
(0.0814181 -0.0980071 0)
(0.109954 -0.122508 0)
(0.151043 -0.139457 0)
(0.202612 -0.17445 0)
(0.25827 -0.222772 0)
(0.316545 -0.294129 0)
(0.370737 -0.399357 0)
(0.361429 -0.553442 0)
(0.350305 -0.555026 0)
(0.322473 -0.43311 0)
(0.323785 -0.332599 0)
(0.350519 -0.178276 0)
(0.383573 -0.0524138 0)
(0.452252 -0.0305135 0)
(0.522555 -0.010762 0)
(0.626218 -0.0260457 0)
(0.726109 -0.00525825 0)
(0.842527 -0.0409203 0)
(0.0232768 -0.160109 0)
(0.0731669 -0.173601 0)
(0.121717 -0.175786 0)
(0.165269 -0.197289 0)
(0.214484 -0.206814 0)
(0.252588 -0.244454 0)
(0.295869 -0.279026 0)
(0.332352 -0.327182 0)
(0.365623 -0.37635 0)
(0.39213 -0.436697 0)
(0.403819 -0.486374 0)
(0.380912 -0.54832 0)
(0.377824 -0.526516 0)
(0.347411 -0.405607 0)
(0.339398 -0.318691 0)
(0.369948 -0.22826 0)
(0.40275 -0.101412 0)
(0.461135 -0.0951567 0)
(0.524589 -0.0913212 0)
(0.619607 -0.115444 0)
(0.704538 -0.115734 0)
(0.809357 -0.150683 0)
(0.0190088 -0.224357 0)
(0.0580351 -0.226387 0)
(0.0981437 -0.238001 0)
(0.135292 -0.255212 0)
(0.177702 -0.275196 0)
(0.217109 -0.301768 0)
(0.255179 -0.331269 0)
(0.287275 -0.366746 0)
(0.314102 -0.405185 0)
(0.333792 -0.449542 0)
(0.326336 -0.482847 0)
(0.341026 -0.52203 0)
(0.353938 -0.498903 0)
(0.333542 -0.387241 0)
(0.329028 -0.316514 0)
(0.362171 -0.248723 0)
(0.401253 -0.147958 0)
(0.454412 -0.155233 0)
(0.513561 -0.165385 0)
(0.598711 -0.197662 0)
(0.67119 -0.211024 0)
(0.768979 -0.258366 0)
(0.0176025 -0.256359 0)
(0.0529714 -0.260589 0)
(0.0879368 -0.269144 0)
(0.122766 -0.281902 0)
(0.155232 -0.295625 0)
(0.187364 -0.317571 0)
(0.216333 -0.341719 0)
(0.243308 -0.37305 0)
(0.26387 -0.407036 0)
(0.285657 -0.442543 0)
(0.294542 -0.481028 0)
(0.314365 -0.528456 0)
(0.333401 -0.501011 0)
(0.313968 -0.394194 0)
(0.312089 -0.336425 0)
(0.343241 -0.266291 0)
(0.388246 -0.193407 0)
(0.437172 -0.211366 0)
(0.491575 -0.232499 0)
(0.56755 -0.271083 0)
(0.630568 -0.295426 0)
(0.722417 -0.352644 0)
(0.0155788 -0.291679 0)
(0.046664 -0.295776 0)
(0.0773639 -0.303789 0)
(0.107244 -0.315823 0)
(0.136833 -0.332859 0)
(0.165071 -0.352953 0)
(0.191843 -0.378393 0)
(0.216133 -0.405974 0)
(0.236697 -0.437207 0)
(0.256394 -0.47095 0)
(0.262192 -0.499865 0)
(0.287824 -0.536876 0)
(0.30803 -0.502975 0)
(0.285912 -0.399417 0)
(0.285554 -0.354701 0)
(0.318043 -0.275277 0)
(0.365579 -0.23628 0)
(0.410875 -0.263043 0)
(0.460844 -0.292966 0)
(0.52801 -0.336621 0)
(0.583657 -0.37011 0)
(0.666655 -0.435176 0)
(0.0136432 -0.319905 0)
(0.040835 -0.323913 0)
(0.0676795 -0.331425 0)
(0.0940694 -0.342601 0)
(0.119483 -0.357148 0)
(0.143809 -0.37572 0)
(0.166448 -0.397368 0)
(0.187233 -0.42267 0)
(0.205076 -0.450336 0)
(0.223454 -0.479179 0)
(0.230948 -0.508233 0)
(0.259208 -0.547713 0)
(0.279698 -0.506625 0)
(0.253531 -0.40806 0)
(0.255296 -0.375415 0)
(0.290957 -0.2864 0)
(0.336654 -0.277737 0)
(0.378122 -0.310537 0)
(0.423309 -0.347072 0)
(0.482249 -0.394798 0)
(0.530581 -0.435984 0)
(0.605089 -0.507215 0)
(0.67434 -0.57856 0)
(0.0118264 -0.345865 0)
(0.0353832 -0.349643 0)
(0.0585957 -0.35665 0)
(0.0812358 -0.367167 0)
(0.103135 -0.381297 0)
(0.124005 -0.39867 0)
(0.143618 -0.419427 0)
(0.161823 -0.442829 0)
(0.177967 -0.468754 0)
(0.194941 -0.496409 0)
(0.202622 -0.523902 0)
(0.231132 -0.560465 0)
(0.249598 -0.50976 0)
(0.218702 -0.416749 0)
(0.223329 -0.393362 0)
(0.262969 -0.299093 0)
(0.302761 -0.315961 0)
(0.340209 -0.353136 0)
(0.3804 -0.39472 0)
(0.431301 -0.445689 0)
(0.472709 -0.493428 0)
(0.538391 -0.56924 0)
(0.594647 -0.644621 0)
(0.0101184 -0.36773 0)
(0.0302618 -0.371289 0)
(0.0500632 -0.377842 0)
(0.0693288 -0.387719 0)
(0.0878984 -0.40087 0)
(0.105623 -0.4172 0)
(0.122304 -0.436436 0)
(0.137877 -0.458426 0)
(0.15205 -0.482792 0)
(0.166931 -0.508973 0)
(0.174166 -0.536378 0)
(0.201881 -0.572554 0)
(0.217046 -0.5114 0)
(0.182606 -0.428071 0)
(0.190583 -0.405699 0)
(0.232891 -0.318328 0)
(0.265347 -0.350465 0)
(0.2985 -0.390628 0)
(0.333384 -0.435843 0)
(0.376322 -0.489295 0)
(0.410733 -0.542564 0)
(0.467688 -0.622447 0)
(0.515623 -0.700409 0)
(0.00849502 -0.385855 0)
(0.0253982 -0.389292 0)
(0.04199 -0.395592 0)
(0.058037 -0.405077 0)
(0.073464 -0.417653 0)
(0.0882 -0.433162 0)
(0.102108 -0.451486 0)
(0.115137 -0.472443 0)
(0.127166 -0.49589 0)
(0.1397 -0.521453 0)
(0.14618 -0.548973 0)
(0.171931 -0.583906 0)
(0.183054 -0.511515 0)
(0.146039 -0.438842 0)
(0.160168 -0.397274 0)
(0.199437 -0.342833 0)
(0.225634 -0.380765 0)
(0.25415 -0.422828 0)
(0.283363 -0.470458 0)
(0.318309 -0.525591 0)
(0.344919 -0.583744 0)
(0.39348 -0.666844 0)
(0.437469 -0.745341 0)
(0.00668887 -0.402012 0)
(0.0200455 -0.405354 0)
(0.0335278 -0.411104 0)
(0.0469165 -0.419867 0)
(0.0595978 -0.43186 0)
(0.0715681 -0.446651 0)
(0.0827949 -0.464135 0)
(0.0932399 -0.484269 0)
(0.102909 -0.506985 0)
(0.112668 -0.532084 0)
(0.11807 -0.560052 0)
(0.140526 -0.593871 0)
(0.147411 -0.510857 0)
(0.109313 -0.448323 0)
(0.131822 -0.377645 0)
(0.162956 -0.368414 0)
(0.184795 -0.40715 0)
(0.208241 -0.449931 0)
(0.231386 -0.498574 0)
(0.258094 -0.554159 0)
(0.27548 -0.616289 0)
(0.317748 -0.699313 0)
(0.349329 -0.772787 0)
(0.00509997 -0.415092 0)
(0.0153217 -0.418311 0)
(0.025568 -0.423994 0)
(0.0359246 -0.432232 0)
(0.0461957 -0.443101 0)
(0.0555606 -0.456895 0)
(0.0641633 -0.473357 0)
(0.072003 -0.492434 0)
(0.0790933 -0.514084 0)
(0.0856326 -0.538381 0)
(0.0898594 -0.566467 0)
(0.106382 -0.598988 0)
(0.109833 -0.510542 0)
(0.0740891 -0.456311 0)
(0.103612 -0.369424 0)
(0.125864 -0.390848 0)
(0.143995 -0.428054 0)
(0.162147 -0.469414 0)
(0.179074 -0.516553 0)
(0.197045 -0.570571 0)
(0.205348 -0.635832 0)
(0.24565 -0.714214 0)
(0.237767 -0.798644 0)
(0.00414028 -0.41811 0)
(0.0123195 -0.421097 0)
(0.0199607 -0.426601 0)
(0.0270118 -0.434737 0)
(0.0339587 -0.445136 0)
(0.0407468 -0.457885 0)
(0.0467995 -0.473314 0)
(0.0521313 -0.49139 0)
(0.0565604 -0.512165 0)
(0.0594217 -0.536015 0)
(0.0618333 -0.564208 0)
(0.0641598 -0.596676 0)
(0.0664592 -0.50848 0)
(0.0410434 -0.455999 0)
(0.0743474 -0.373199 0)
(0.0910252 -0.402709 0)
(0.105779 -0.436803 0)
(0.119005 -0.476448 0)
(0.129674 -0.523349 0)
(0.137161 -0.580232 0)
(0.137535 -0.65379 0)
(0.159564 -0.738222 0)
(0.0938692 -0.868539 0)
(0.00311944 -0.426597 0)
(0.00924866 -0.429656 0)
(0.0149768 -0.435415 0)
(0.0201557 -0.444189 0)
(0.0243485 -0.455993 0)
(0.0279435 -0.471044 0)
(0.0310865 -0.489268 0)
(0.033558 -0.510569 0)
(0.0349945 -0.53505 0)
(0.0341504 -0.562576 0)
(0.0331153 -0.592754 0)
(0.0117488 -0.624572 0)
(0.0092388 -0.507496 0)
(0.0186361 -0.4153 0)
(0.0464783 -0.390001 0)
(0.0614056 -0.422104 0)
(0.070961 -0.461864 0)
(0.0772202 -0.511987 0)
(0.0781611 -0.572161 0)
(0.0713277 -0.641638 0)
(0.0588683 -0.719738 0)
(0.0325007 -0.802129 0)
(0.00786594 -0.918882 0)
(0.00153421 -0.524652 0)
(0.0042388 -0.528592 0)
(0.00676357 -0.535544 0)
(0.00874298 -0.545721 0)
(0.0101846 -0.558989 0)
(0.0108365 -0.575022 0)
(0.0104985 -0.593568 0)
(0.0090234 -0.614473 0)
(0.00715363 -0.637349 0)
(0.00416534 -0.661571 0)
(0.000701341 -0.685368 0)
(-0.019033 -0.706288 0)
(-0.0314242 -0.623504 0)
(0.00807714 -0.489437 0)
(0.0212972 -0.509713 0)
(0.0248366 -0.541852 0)
(0.0213547 -0.581834 0)
(0.0147335 -0.628727 0)
(0.00581342 -0.683308 0)
(-0.00299096 -0.748322 0)
(-0.00911188 -0.818049 0)
(-0.028353 -0.899187 0)
(-0.0303015 -0.921669 0)
(-0.000736563 -0.751301 0)
(-0.00298991 -0.756801 0)
(-0.00511989 -0.76667 0)
(-0.00752468 -0.781578 0)
(-0.0102456 -0.801784 0)
(-0.0133391 -0.827932 0)
(-0.016551 -0.86114 0)
(-0.0189328 -0.903045 0)
(-0.0226361 -0.955052 0)
(-0.0274547 -1.01859 0)
(-0.0322148 -1.08525 0)
(-0.0159042 -1.15913 0)
(-0.0111453 -0.869639 0)
(-0.0102796 -0.691965 0)
(-0.0127298 -0.722281 0)
(-0.0222086 -0.754621 0)
)
;

boundaryField
{
    leftWall
    {
        type            fixedValue;
        value           uniform (0 0 0);
    }
    rightWall
    {
        type            fixedValue;
        value           nonuniform 0();
    }
    lowerWall
    {
        type            fixedValue;
        value           uniform (0 0 0);
    }
    atmosphere
    {
        type            fluxCorrectedVelocity;
        value           nonuniform 0();
    }
    defaultFaces
    {
        type            empty;
    }
    procBoundary0to1
    {
        type            processor;
        value           nonuniform List<vector> 
26
(
(0.136492 0.0628253 0)
(0.127238 0.19022 0)
(0.128411 0.289846 0)
(0.1218 0.430734 0)
(0.147433 0.511523 0)
(0.159528 0.690662 0)
(0.231234 0.780281 0)
(0.318523 1.08252 0)
(1.1662 0.963916 0)
(1.15925 0.394269 0)
(1.05553 0.0856509 0)
(1.00206 -0.0564041 0)
(0.941673 -0.205094 0)
(0.885437 -0.320758 0)
(0.821137 -0.417275 0)
(0.750338 -0.503551 0)
(0.750338 -0.503551 0)
(0.71069 -0.64068 0)
(0.627642 -0.707465 0)
(0.549487 -0.758628 0)
(0.457568 -0.802045 0)
(0.327545 -0.840353 0)
(0.171531 -0.891663 0)
(0.0464225 -0.894712 0)
(0.034125 -0.764584 0)
(-0.556656 0.456772 0)
)
;
    }
    procBoundary0to2
    {
        type            processor;
        value           nonuniform List<vector> 
24
(
(-0.0334023 -0.789843 0)
(-0.0467409 -0.813383 0)
(-0.0651191 -0.804209 0)
(-0.075596 -0.674657 0)
(-0.0919608 -0.536396 0)
(-0.184719 -0.480323 0)
(-0.731676 -0.11276 0)
(0.0037105 -1.02502 0)
(-0.000122332 -1.03391 0)
(-4.15397e-05 -1.05048 0)
(-0.000145888 -1.07535 0)
(-0.000380541 -1.10902 0)
(-0.000828763 -1.15216 0)
(-0.00162592 -1.2054 0)
(-0.0029947 -1.26923 0)
(-0.00534975 -1.34354 0)
(-0.00945353 -1.42466 0)
(-0.0132089 -1.50422 0)
(-0.0256036 -1.54178 0)
(-0.0111548 -0.862115 0)
(-0.104688 -0.346151 0)
(-0.211725 -0.099661 0)
(-0.0334023 -0.789843 0)
(-0.256069 -0.120771 0)
)
;
    }
}


// ************************************************************************* //
