/*--------------------------------*- C++ -*----------------------------------*\
| =========                 |                                                 |
| \\      /  F ield         | OpenFOAM: The Open Source CFD Toolbox           |
|  \\    /   O peration     | Version:  2.4.0                                 |
|   \\  /    A nd           | Web:      www.OpenFOAM.org                      |
|    \\/     M anipulation  |                                                 |
\*---------------------------------------------------------------------------*/
FoamFile
{
    version     2.0;
    format      ascii;
    class       volScalarField;
    location    "0.3";
    object      alpha.mercury;
}
// * * * * * * * * * * * * * * * * * * * * * * * * * * * * * * * * * * * * * //

dimensions      [0 0 0 0 0 0 0];

internalField   nonuniform List<scalar> 
559
(
2.22097e-20
5.75934e-20
1.33946e-19
2.97388e-19
6.51707e-19
1.38939e-18
2.94978e-18
2.05708e-40
6.42905e-38
7.59201e-36
4.62868e-34
1.74252e-32
4.56562e-31
9.09809e-30
1.47305e-28
2.02514e-27
2.38165e-26
2.3292e-25
1.80649e-24
1.08111e-23
5.20238e-23
2.05686e-22
6.8701e-22
2.0483e-21
5.74132e-21
1.52692e-20
3.9144e-20
9.74922e-20
2.3305e-19
5.3023e-19
7.01198e-41
1.11826e-38
8.3501e-37
3.87814e-35
1.24864e-33
2.98804e-32
5.62034e-31
8.59205e-30
1.08722e-28
1.14809e-27
1.00028e-26
7.11835e-26
4.28718e-25
2.22117e-24
9.94726e-24
3.92151e-23
1.38379e-22
4.53101e-22
1.41123e-21
4.15028e-21
1.15696e-20
3.1122e-20
7.85193e-20
2.10046e-42
3.25357e-40
2.36582e-38
1.06754e-36
3.35647e-35
7.91031e-34
1.4604e-32
2.18734e-31
2.71672e-30
2.83883e-29
2.5451e-28
1.98541e-27
1.34579e-26
8.015e-26
4.26927e-25
2.0499e-24
8.88646e-24
3.51087e-23
1.29237e-22
4.48178e-22
1.45833e-21
4.38369e-21
1.17623e-20
8.14768e-44
1.16291e-41
7.92969e-40
3.46089e-38
1.09043e-36
2.64305e-35
5.11537e-34
8.09615e-33
1.07005e-31
1.20857e-30
1.17851e-29
9.92673e-29
7.27771e-28
4.7463e-27
2.77623e-26
1.46248e-25
7.00988e-25
3.08288e-24
1.24843e-23
4.66891e-23
1.60791e-22
5.02268e-22
1.40398e-21
1.22878e-45
1.94386e-43
1.47298e-41
7.12783e-40
2.47952e-38
6.59884e-37
1.39903e-35
2.42664e-34
3.51238e-33
4.2861e-32
4.44967e-31
4.02749e-30
3.26053e-29
2.35388e-28
1.51062e-27
8.67242e-27
4.53283e-26
2.17912e-25
9.59553e-25
3.84237e-24
1.39483e-23
4.60772e-23
1.39695e-22
2.80643e-47
4.45875e-45
3.40443e-43
1.6681e-41
5.89435e-40
1.59884e-38
3.46396e-37
6.17422e-36
9.27231e-35
1.19752e-33
1.35154e-32
1.3424e-31
1.17573e-30
9.16533e-30
6.44559e-29
4.08266e-28
2.31685e-27
1.1918e-26
5.62978e-26
2.45532e-25
9.83719e-25
3.59031e-24
1.21816e-23
3.33905e-49
5.39541e-47
4.21259e-45
2.13405e-43
7.90123e-42
2.28364e-40
5.37247e-39
1.05785e-37
1.77367e-36
2.5549e-35
3.17671e-34
3.42205e-33
3.23166e-32
2.71048e-31
2.03404e-30
1.38937e-29
8.79531e-29
5.15603e-28
2.77231e-27
1.35883e-26
6.06203e-26
2.5e-25
9.7514e-25
3.12224e-51
5.47574e-49
4.64473e-47
2.55023e-45
1.01858e-43
3.1503e-42
7.8446e-41
1.61598e-39
2.81181e-38
4.20848e-37
5.52016e-36
6.45248e-35
6.79927e-34
6.49025e-33
5.63671e-32
4.45122e-31
3.1709e-30
2.03743e-29
1.19794e-28
6.52028e-28
3.32193e-27
1.5832e-26
7.04141e-26
2.196e-53
4.14641e-51
3.79027e-49
2.24942e-47
9.75476e-46
3.29519e-44
9.02358e-43
2.05832e-41
3.98969e-40
6.6762e-39
9.76837e-38
1.26403e-36
1.45481e-35
1.4992e-34
1.39428e-33
1.18209e-32
9.25339e-32
6.75225e-31
4.58797e-30
2.8875e-29
1.67424e-28
9.02032e-28
4.54603e-27
1.21986e-55
2.47145e-53
2.42346e-51
1.54419e-49
7.20038e-48
2.62242e-46
7.77538e-45
1.93117e-43
4.10129e-42
7.56153e-41
1.22483e-39
1.76281e-38
2.28213e-37
2.68253e-36
2.88069e-35
2.83466e-34
2.55797e-33
2.11605e-32
1.61082e-31
1.13672e-30
7.47519e-30
4.5776e-29
2.60271e-28
5.06698e-58
1.13082e-55
1.22559e-53
8.65862e-52
4.48931e-50
1.82099e-48
6.01497e-47
1.66351e-45
3.93406e-44
8.09458e-43
1.47007e-41
2.38184e-40
3.4671e-39
4.56401e-38
5.4712e-37
6.01052e-36
6.08308e-35
5.69875e-34
4.95115e-33
3.9875e-32
2.97613e-31
2.05963e-30
1.32009e-29
1.64668e-60
4.07731e-58
4.89344e-56
3.83238e-54
2.20591e-52
9.95802e-51
3.67298e-49
1.13867e-47
3.02887e-46
7.02266e-45
1.43747e-43
2.62686e-42
4.32805e-41
6.47868e-40
8.8585e-39
1.11119e-37
1.28332e-36
1.36801e-35
1.34895e-34
1.23274e-33
1.04467e-32
8.19658e-32
5.93677e-31
4.2148e-63
1.16285e-60
1.56095e-58
1.37008e-56
8.85473e-55
4.4957e-53
1.86798e-51
6.53467e-50
1.96559e-48
5.16733e-47
1.20267e-45
2.50355e-44
4.6992e-43
8.0087e-42
1.24683e-40
1.78187e-39
2.34632e-38
2.85465e-37
3.21424e-36
3.35126e-35
3.23403e-34
2.88374e-33
2.36868e-32
8.05785e-66
2.52287e-63
3.83874e-61
3.82369e-59
2.80773e-57
1.62167e-55
7.67497e-54
3.06184e-52
1.05127e-50
3.15673e-49
8.39656e-48
1.99917e-46
4.29744e-45
8.39795e-44
1.50002e-42
2.45965e-41
3.71526e-40
5.18196e-39
6.68395e-38
7.97667e-37
8.80139e-36
8.95962e-35
8.38549e-34
1.15025e-68
4.11545e-66
7.16674e-64
8.18024e-62
6.89024e-60
4.56982e-58
2.48628e-56
1.14151e-54
4.5156e-53
1.56382e-51
4.80126e-50
1.32009e-48
3.27713e-47
7.39488e-46
1.52507e-44
2.88694e-43
5.03257e-42
8.09686e-41
1.20377e-39
1.65403e-38
2.09838e-37
2.45224e-36
2.63027e-35
1.14687e-71
4.77685e-69
9.67274e-67
1.28452e-64
1.25941e-62
9.72723e-61
6.16563e-59
3.29884e-57
1.52097e-55
6.1397e-54
2.19729e-52
7.04247e-51
2.03801e-49
5.36023e-48
1.28805e-46
2.8395e-45
5.76018e-44
1.07748e-42
1.86043e-41
2.96502e-40
4.35654e-39
5.88678e-38
7.28761e-37
7.47756e-75
3.69849e-72
8.86625e-70
1.3935e-67
1.61689e-65
1.47812e-63
1.1091e-61
7.02452e-60
3.83298e-58
1.83041e-56
7.74548e-55
2.93346e-53
1.00244e-51
3.11106e-50
8.81379e-49
2.28851e-47
5.46191e-46
1.2005e-44
2.43208e-43
4.54042e-42
7.80057e-41
1.23006e-39
1.77331e-38
2.83084e-78
1.71794e-75
4.99779e-73
9.50744e-71
1.33401e-68
1.47453e-66
1.33811e-64
1.02491e-62
6.75937e-61
3.89744e-59
1.98863e-57
9.06777e-56
3.7249e-54
1.38739e-52
4.70959e-51
1.4628e-49
4.16902e-48
1.09221e-46
2.63227e-45
5.83367e-44
1.18703e-42
2.21136e-41
3.756e-40
5.28533e-82
4.13061e-79
1.50127e-76
3.53765e-74
6.13156e-72
8.3679e-70
9.3884e-68
8.91771e-66
7.32275e-64
5.2699e-62
3.35425e-60
1.90183e-58
9.67361e-57
4.4432e-55
1.85266e-53
7.04283e-52
2.44859e-50
7.80132e-49
2.27994e-47
6.10958e-46
1.49856e-44
3.35392e-43
6.81861e-42
3.99924e-86
4.31451e-83
1.99505e-80
5.85098e-78
1.25536e-75
2.12421e-73
2.97523e-71
3.57054e-69
3.75215e-67
3.50222e-65
2.92773e-63
2.1968e-61
1.47698e-59
8.89004e-58
4.79782e-56
2.33047e-54
1.02466e-52
4.09883e-51
1.49553e-49
4.97881e-48
1.51011e-46
4.15949e-45
1.03538e-43
1.89458e-90
3.11328e-87
1.87544e-84
6.91309e-82
1.84671e-79
3.87555e-77
6.67436e-75
9.73569e-73
1.23302e-70
1.38457e-68
1.40348e-66
1.30263e-64
1.11591e-62
8.84004e-61
6.45111e-59
4.29851e-57
2.58458e-55
1.39146e-53
6.7043e-52
2.90376e-50
1.13459e-48
3.98974e-47
1.25748e-45
3.86551e-94
7.73845e-91
5.1666e-88
2.06162e-85
5.89452e-83
1.31703e-80
2.41939e-78
3.77431e-76
5.13472e-74
6.22525e-72
6.84942e-70
6.95644e-68
6.61805e-66
5.95438e-64
5.09597e-62
4.16171e-60
3.24209e-58
2.39033e-56
1.63682e-54
1.01432e-52
5.58972e-51
2.71947e-49
1.1557e-47
5.93337e-97
9.73493e-94
5.98936e-91
2.24639e-88
6.05631e-86
1.27605e-83
2.22103e-81
3.31456e-79
4.35437e-77
5.1403e-75
5.54716e-73
5.55439e-71
5.23824e-69
4.719e-67
4.10957e-65
3.49799e-63
2.9365e-61
2.44531e-59
2.02529e-57
1.66266e-55
1.32113e-53
9.72363e-52
6.30144e-50
7.77142e-100
1.23598e-96
7.77508e-94
3.01114e-91
8.38979e-89
1.82438e-86
3.25596e-84
4.94208e-82
6.55117e-80
7.74442e-78
8.30742e-76
8.2083e-74
7.57186e-72
6.61113e-70
5.5425e-68
4.51999e-66
3.63087e-64
2.91008e-62
2.35837e-60
1.95995e-58
1.69469e-56
1.53881e-54
1.44248e-52
)
;

boundaryField
{
    leftWall
    {
        type            zeroGradient;
    }
    rightWall
    {
        type            zeroGradient;
    }
    lowerWall
    {
        type            zeroGradient;
    }
    atmosphere
    {
        type            inletOutlet;
        inletValue      uniform 0;
        value           uniform 0;
    }
    defaultFaces
    {
        type            empty;
    }
    procBoundary2to0
    {
        type            processor;
        value           nonuniform List<scalar> 
24
(
6.74914e-20
2.11205e-19
5.83932e-19
1.49869e-18
3.72711e-18
9.71049e-18
2.68206e-17
4.07073e-41
2.55358e-38
7.9211e-36
9.94195e-34
5.9704e-32
2.06097e-30
4.68625e-29
7.86924e-28
1.07231e-26
1.27153e-25
1.3561e-24
1.21849e-23
8.54636e-23
4.61023e-22
2.01234e-21
7.29905e-21
7.29905e-21
)
;
    }
    procBoundary2to3
    {
        type            processor;
        value           nonuniform List<scalar> 
25
(
6.48742e-18
1.15176e-18
1.81639e-19
2.82691e-20
3.60108e-21
3.96351e-22
3.92903e-23
3.59489e-24
2.93368e-25
2.13013e-26
1.36779e-27
7.79247e-29
3.94903e-30
1.783e-31
7.17855e-33
2.5761e-34
8.22278e-36
2.32512e-37
5.78565e-39
1.25223e-40
2.31352e-42
3.52674e-44
4.25332e-46
3.43418e-48
1.27641e-50
)
;
    }
}


// ************************************************************************* //
