/*--------------------------------*- C++ -*----------------------------------*\
| =========                 |                                                 |
| \\      /  F ield         | OpenFOAM: The Open Source CFD Toolbox           |
|  \\    /   O peration     | Version:  2.4.0                                 |
|   \\  /    A nd           | Web:      www.OpenFOAM.org                      |
|    \\/     M anipulation  |                                                 |
\*---------------------------------------------------------------------------*/
FoamFile
{
    version     2.0;
    format      ascii;
    class       volScalarField;
    location    "0.3";
    object      p;
}
// * * * * * * * * * * * * * * * * * * * * * * * * * * * * * * * * * * * * * //

dimensions      [1 -1 -2 0 0 0 0];

internalField   nonuniform List<scalar> 
559
(
2.73387
2.71316
2.70229
2.6946
2.68749
2.6818
2.67591
2.80308
2.80301
2.80274
2.80215
2.80105
2.79916
2.79617
2.79168
2.78543
2.77647
2.76345
2.7462
2.7268
2.70462
2.68006
2.65461
2.63125
2.61023
2.59032
2.57454
2.5606
2.54645
2.53616
2.68062
2.68032
2.6797
2.67862
2.67691
2.67443
2.6709
2.66598
2.65943
2.6505
2.63848
2.62439
2.60895
2.59223
2.57429
2.55698
2.54124
2.52354
2.50538
2.49236
2.4804
2.46769
2.45654
2.55818
2.55781
2.55699
2.5556
2.5536
2.55076
2.54693
2.54189
2.53539
2.52688
2.51656
2.50465
2.49089
2.47577
2.45966
2.44334
2.42605
2.40913
2.39372
2.37843
2.36387
2.35088
2.3395
2.43596
2.43548
2.43452
2.43302
2.43086
2.42791
2.42406
2.41916
2.41293
2.40524
2.39596
2.38532
2.37322
2.35981
2.34576
2.3316
2.31687
2.30237
2.28836
2.27456
2.26261
2.25093
2.23832
2.3138
2.31331
2.31234
2.31079
2.30861
2.30568
2.30188
2.29709
2.29115
2.28392
2.27549
2.26592
2.25544
2.24411
2.23202
2.21926
2.20624
2.19319
2.18014
2.16776
2.15551
2.14308
2.13078
2.19216
2.19166
2.19064
2.18907
2.18687
2.18397
2.18029
2.17571
2.17017
2.16365
2.15623
2.1478
2.13846
2.12833
2.11767
2.10649
2.09475
2.08296
2.07123
2.0596
2.04817
2.03649
2.0241
2.07085
2.07034
2.06932
2.06775
2.0656
2.06281
2.05933
2.0551
2.05007
2.04422
2.0375
2.02996
2.02168
2.01271
2.00316
1.99314
1.98287
1.9722
1.96142
1.95086
1.94006
1.92891
1.91754
1.94981
1.94932
1.94834
1.94685
1.94481
1.94219
1.93894
1.93502
1.9304
1.92505
1.91898
1.91221
1.90485
1.89702
1.88865
1.8798
1.87053
1.86085
1.85115
1.84147
1.83161
1.82141
1.81098
1.82913
1.82867
1.82775
1.82634
1.82443
1.82198
1.81896
1.81536
1.81117
1.80638
1.80097
1.79499
1.78845
1.78136
1.77377
1.76582
1.75757
1.74917
1.74061
1.73181
1.72288
1.71375
1.7044
1.70882
1.7084
1.70755
1.70624
1.70448
1.70223
1.69948
1.69622
1.69242
1.68808
1.68321
1.67787
1.67206
1.66583
1.65921
1.65221
1.64491
1.63738
1.62973
1.62198
1.61404
1.60594
1.59772
1.58871
1.58831
1.58752
1.58632
1.58471
1.58267
1.58019
1.57726
1.57388
1.57005
1.56579
1.56109
1.55597
1.55047
1.54463
1.53849
1.53211
1.52552
1.51876
1.51191
1.50496
1.49794
1.49087
1.46897
1.4686
1.46789
1.46681
1.46536
1.46352
1.4613
1.45869
1.45569
1.45231
1.44855
1.44442
1.43994
1.43514
1.43005
1.4247
1.41913
1.4134
1.40755
1.40164
1.39567
1.38968
1.38374
1.34953
1.3492
1.34857
1.34761
1.34632
1.34469
1.34274
1.34044
1.33781
1.33485
1.33156
1.32797
1.32408
1.31992
1.31551
1.3109
1.30611
1.30118
1.29617
1.29112
1.28608
1.2811
1.27623
1.2303
1.23001
1.22945
1.22861
1.22747
1.22605
1.22435
1.22235
1.22007
1.21751
1.21469
1.2116
1.20826
1.2047
1.20094
1.19701
1.19294
1.18877
1.18455
1.18034
1.17617
1.17211
1.16824
1.11132
1.11107
1.11059
1.10986
1.10889
1.10767
1.1062
1.10449
1.10254
1.10036
1.09795
1.09533
1.09251
1.08951
1.08634
1.08304
1.07964
1.07618
1.07269
1.06924
1.06588
1.06267
1.05969
0.992516
0.992306
0.991901
0.991282
0.990457
0.989426
0.988191
0.986755
0.985122
0.9833
0.981295
0.979117
0.976778
0.974294
0.971684
0.968974
0.966193
0.963376
0.960567
0.957816
0.95518
0.952725
0.950536
0.87389
0.873716
0.873383
0.872871
0.872191
0.871341
0.870324
0.869146
0.867811
0.866326
0.864699
0.862935
0.861045
0.859044
0.856951
0.854786
0.852575
0.850353
0.848157
0.846037
0.844047
0.842253
0.840736
0.755406
0.755264
0.755001
0.754589
0.754045
0.753365
0.752551
0.751614
0.750559
0.749395
0.748127
0.746755
0.745286
0.743735
0.742121
0.740461
0.738776
0.737095
0.735455
0.733898
0.732475
0.731247
0.730286
0.637043
0.636931
0.636733
0.636416
0.636
0.635479
0.634866
0.634167
0.633385
0.632526
0.631594
0.630578
0.629489
0.628354
0.627187
0.625992
0.624787
0.623599
0.62246
0.621402
0.620469
0.619714
0.619205
0.518755
0.518661
0.518525
0.518297
0.518006
0.517654
0.517248
0.516777
0.516245
0.515653
0.515002
0.514317
0.513623
0.512906
0.51216
0.511392
0.510615
0.509871
0.509181
0.508561
0.508048
0.507686
0.507523
0.400505
0.400405
0.400329
0.400184
0.400015
0.399813
0.399582
0.399322
0.399038
0.398723
0.398381
0.398026
0.397647
0.397256
0.396868
0.396505
0.396197
0.395919
0.395643
0.395401
0.395244
0.395207
0.395305
0.282384
0.282252
0.282226
0.282165
0.282113
0.282061
0.281999
0.281927
0.281849
0.281771
0.281704
0.281648
0.281604
0.281576
0.281563
0.281569
0.28158
0.281614
0.28172
0.28189
0.282097
0.282314
0.282575
0.164622
0.164529
0.164541
0.164552
0.164589
0.164645
0.164719
0.164813
0.164926
0.165063
0.165223
0.165409
0.165619
0.16585
0.166124
0.166444
0.16681
0.167209
0.167641
0.168096
0.16856
0.169042
0.1695
0.0469721
0.047027
0.0470928
0.0471571
0.0472561
0.0473875
0.0475622
0.0477833
0.0480526
0.0483713
0.0487401
0.0491602
0.0496371
0.0501708
0.050745
0.0513517
0.0519876
0.0526481
0.053324
0.0540101
0.0546915
0.0553426
0.0559206
)
;

boundaryField
{
    leftWall
    {
        type            fixedFluxPressure;
        gradient        uniform 0;
        value           nonuniform List<scalar> 
24
(
2.80308
2.68062
2.55818
2.43596
2.3138
2.19216
2.07085
1.94981
1.82913
1.70882
1.58871
1.46897
1.34953
1.2303
1.11132
0.992516
0.87389
0.755406
0.637043
0.518755
0.400505
0.282384
0.164622
0.0469721
)
;
    }
    rightWall
    {
        type            fixedFluxPressure;
        gradient        nonuniform 0();
        value           nonuniform 0();
    }
    lowerWall
    {
        type            fixedFluxPressure;
        gradient        nonuniform 0();
        value           nonuniform 0();
    }
    atmosphere
    {
        type            totalPressure;
        U               U.air;
        phi             phi.air;
        rho             rho;
        psi             none;
        gamma           1;
        p0              uniform 0;
        value           nonuniform List<scalar> 
23
(
-0.0127186
-0.0130617
-0.012955
-0.012798
-0.0125718
-0.0122805
-0.0119231
-0.0114991
-0.0110098
-0.0104569
-0.00984273
-0.0091704
-0.00844297
-0.00766449
-0.00684352
-0.00599078
-0.00511865
-0.00424257
-0.00338049
-0.00255339
-0.00178371
-0.00110156
-0.000550953
)
;
    }
    defaultFaces
    {
        type            empty;
    }
    procBoundary2to0
    {
        type            processor;
        value           nonuniform List<scalar> 
24
(
2.81066
2.78782
2.77751
2.76965
2.75701
2.73226
2.70034
2.92491
2.9252
2.92561
2.92583
2.92549
2.925
2.92345
2.91968
2.9134
2.90392
2.88773
2.86758
2.84497
2.81849
2.79022
2.76243
2.76243
)
;
    }
    procBoundary2to3
    {
        type            processor;
        value           nonuniform List<scalar> 
25
(
2.67125
2.53275
2.44769
2.33178
2.22917
2.122
2.01557
1.90941
1.80346
1.6976
1.59175
1.48576
1.3795
1.27283
1.16562
1.05777
0.94921
0.839907
0.729853
0.619074
0.507612
0.395526
0.282839
0.169838
0.0562585
)
;
    }
}


// ************************************************************************* //
