/*--------------------------------*- C++ -*----------------------------------*\
| =========                 |                                                 |
| \\      /  F ield         | OpenFOAM: The Open Source CFD Toolbox           |
|  \\    /   O peration     | Version:  2.4.0                                 |
|   \\  /    A nd           | Web:      www.OpenFOAM.org                      |
|    \\/     M anipulation  |                                                 |
\*---------------------------------------------------------------------------*/
FoamFile
{
    version     2.0;
    format      ascii;
    class       surfaceScalarField;
    location    "0.3";
    object      phi.mercury;
}
// * * * * * * * * * * * * * * * * * * * * * * * * * * * * * * * * * * * * * //

dimensions      [0 3 -1 0 0 0 0];

internalField   nonuniform List<scalar> 
1070
(
-8.05944e-05
-4.4709e-05
-8.16105e-05
-3.59539e-05
-7.76618e-05
-3.07709e-05
-7.02432e-05
-2.49248e-05
-6.36191e-05
-1.73639e-05
-5.75256e-05
-1.40233e-05
-1.20508e-05
-8.15531e-07
-5.24705e-05
-2.1094e-06
-5.53063e-05
-3.86183e-06
-5.56281e-05
-5.92566e-06
-5.6256e-05
-8.1571e-06
-5.67762e-05
-1.03923e-05
-5.71819e-05
-1.25576e-05
-5.75231e-05
-1.46714e-05
-5.78531e-05
-1.71667e-05
-5.81577e-05
-2.07653e-05
-5.8729e-05
-2.61719e-05
-5.93576e-05
-3.35531e-05
-5.89909e-05
-4.1241e-05
-5.85371e-05
-5.00756e-05
-5.75736e-05
-5.88187e-05
-5.54347e-05
-6.39799e-05
-5.15581e-05
-6.41091e-05
-4.45783e-05
-6.33583e-05
-3.67034e-05
-6.23879e-05
-3.17397e-05
-6.04537e-05
-2.68576e-05
-5.79197e-05
-1.98964e-05
-5.70808e-05
-1.48611e-05
-1.19568e-05
-1.37345e-06
-5.10964e-05
-2.83043e-06
-5.38489e-05
-4.37749e-06
-5.40807e-05
-6.15556e-06
-5.44776e-05
-8.12888e-06
-5.48026e-05
-1.0177e-05
-5.51335e-05
-1.23224e-05
-5.53774e-05
-1.46315e-05
-5.55438e-05
-1.71737e-05
-5.56152e-05
-2.03516e-05
-5.55508e-05
-2.44186e-05
-5.52904e-05
-2.85767e-05
-5.48326e-05
-3.34266e-05
-5.36868e-05
-3.91575e-05
-5.18419e-05
-4.50967e-05
-4.94963e-05
-5.09237e-05
-4.57294e-05
-5.42966e-05
-4.12048e-05
-5.49774e-05
-3.60216e-05
-5.55538e-05
-3.11621e-05
-5.51147e-05
-2.72957e-05
-5.239e-05
-2.26198e-05
-5.06762e-05
-1.65731e-05
-1.27214e-05
-1.3378e-06
-4.97586e-05
-2.85188e-06
-5.23346e-05
-4.54082e-06
-5.23914e-05
-6.43398e-06
-5.25842e-05
-8.46634e-06
-5.277e-05
-1.06628e-05
-5.29368e-05
-1.29583e-05
-5.30816e-05
-1.54007e-05
-5.31012e-05
-1.80473e-05
-5.29685e-05
-2.07846e-05
-5.28132e-05
-2.37574e-05
-5.23175e-05
-2.73762e-05
-5.12134e-05
-3.12269e-05
-4.98358e-05
-3.49415e-05
-4.81277e-05
-3.86697e-05
-4.57665e-05
-4.22616e-05
-4.21383e-05
-4.54607e-05
-3.80052e-05
-4.73698e-05
-3.41119e-05
-4.80964e-05
-3.04347e-05
-4.8519e-05
-2.68722e-05
-4.88578e-05
-2.22797e-05
-4.9343e-05
-1.6087e-05
-1.29389e-05
-1.56561e-06
-4.81925e-05
-3.27019e-06
-5.06297e-05
-5.04338e-06
-5.0618e-05
-6.90421e-06
-5.07231e-05
-8.88663e-06
-5.07873e-05
-1.10398e-05
-5.07834e-05
-1.34101e-05
-5.07112e-05
-1.59589e-05
-5.05523e-05
-1.85606e-05
-5.03666e-05
-2.13827e-05
-4.99909e-05
-2.46015e-05
-4.90985e-05
-2.8023e-05
-4.77917e-05
-3.12928e-05
-4.6566e-05
-3.45889e-05
-4.4831e-05
-3.78065e-05
-4.25501e-05
-4.03829e-05
-3.95611e-05
-4.23438e-05
-3.60442e-05
-4.39547e-05
-3.25009e-05
-4.51432e-05
-2.92456e-05
-4.59609e-05
-2.6054e-05
-4.64266e-05
-2.18131e-05
-4.62238e-05
-1.62885e-05
-1.38406e-05
-1.4274e-06
-4.67651e-05
-2.99479e-06
-4.90621e-05
-4.66041e-06
-4.89522e-05
-6.43944e-06
-4.89439e-05
-8.35131e-06
-4.88753e-05
-1.03913e-05
-4.87433e-05
-1.25855e-05
-4.85169e-05
-1.49453e-05
-4.81924e-05
-1.75798e-05
-4.77321e-05
-2.0493e-05
-4.70775e-05
-2.32805e-05
-4.6311e-05
-2.57783e-05
-4.52938e-05
-2.86018e-05
-4.37424e-05
-3.16764e-05
-4.17569e-05
-3.46683e-05
-3.95573e-05
-3.70199e-05
-3.72105e-05
-3.8721e-05
-3.43432e-05
-4.02225e-05
-3.09994e-05
-4.17148e-05
-2.77529e-05
-4.29839e-05
-2.47845e-05
-4.34989e-05
-2.12971e-05
-4.29112e-05
-1.68757e-05
-1.45529e-05
-1.56241e-06
-4.52022e-05
-3.22468e-06
-4.73996e-05
-4.93442e-06
-4.72422e-05
-6.72402e-06
-4.71541e-05
-8.61296e-06
-4.69862e-05
-1.06124e-05
-4.67437e-05
-1.27084e-05
-4.64207e-05
-1.48815e-05
-4.60192e-05
-1.71004e-05
-4.55131e-05
-1.93697e-05
-4.48082e-05
-2.18175e-05
-4.3863e-05
-2.44762e-05
-4.26351e-05
-2.70436e-05
-4.11749e-05
-2.9329e-05
-3.94712e-05
-3.16967e-05
-3.7191e-05
-3.42292e-05
-3.46775e-05
-3.62817e-05
-3.22914e-05
-3.76371e-05
-2.96441e-05
-3.84983e-05
-2.68917e-05
-3.93138e-05
-2.39688e-05
-4.01191e-05
-2.04913e-05
-3.98245e-05
-1.71693e-05
-1.5077e-05
-1.54707e-06
-4.36552e-05
-3.17875e-06
-4.57679e-05
-4.82086e-06
-4.56e-05
-6.49558e-06
-4.54793e-05
-8.19855e-06
-4.52831e-05
-9.93361e-06
-4.50086e-05
-1.1719e-05
-4.46353e-05
-1.36029e-05
-4.41352e-05
-1.566e-05
-4.34559e-05
-1.79335e-05
-4.25346e-05
-2.04286e-05
-4.13679e-05
-2.29429e-05
-4.01206e-05
-2.53781e-05
-3.87396e-05
-2.77888e-05
-3.70612e-05
-2.97651e-05
-3.52139e-05
-3.11826e-05
-3.32614e-05
-3.25343e-05
-3.094e-05
-3.39889e-05
-2.81899e-05
-3.5474e-05
-2.54067e-05
-3.68148e-05
-2.26279e-05
-3.7378e-05
-1.99276e-05
-3.71148e-05
-1.74322e-05
-1.50831e-05
-1.48142e-06
-4.21735e-05
-3.05074e-06
-4.41984e-05
-4.65304e-06
-4.39976e-05
-6.31549e-06
-4.38167e-05
-8.04979e-06
-4.35487e-05
-9.86372e-06
-4.31946e-05
-1.17541e-05
-4.27449e-05
-1.37054e-05
-4.21837e-05
-1.56771e-05
-4.14842e-05
-1.75872e-05
-4.06245e-05
-1.93991e-05
-3.95559e-05
-2.11781e-05
-3.83414e-05
-2.30072e-05
-3.69106e-05
-2.48191e-05
-3.5249e-05
-2.66939e-05
-3.33404e-05
-2.87909e-05
-3.11643e-05
-3.08196e-05
-2.89119e-05
-3.22935e-05
-2.67165e-05
-3.32888e-05
-2.44116e-05
-3.38079e-05
-2.21087e-05
-3.42654e-05
-1.94698e-05
-3.47784e-05
-1.69185e-05
-1.4809e-05
-1.41688e-06
-4.07567e-05
-2.90417e-06
-4.2711e-05
-4.40374e-06
-4.24979e-05
-5.93526e-06
-4.22851e-05
-7.50686e-06
-4.1977e-05
-9.13032e-06
-4.15711e-05
-1.0818e-05
-4.10572e-05
-1.25778e-05
-4.04239e-05
-1.4405e-05
-3.96569e-05
-1.62895e-05
-3.87399e-05
-1.81881e-05
-3.76573e-05
-2.01458e-05
-3.63836e-05
-2.21026e-05
-3.49538e-05
-2.39808e-05
-3.33713e-05
-2.56574e-05
-3.16633e-05
-2.6988e-05
-2.98349e-05
-2.80329e-05
-2.78675e-05
-2.90674e-05
-2.56825e-05
-3.01705e-05
-2.33087e-05
-3.13656e-05
-2.09137e-05
-3.21493e-05
-1.86858e-05
-3.25723e-05
-1.64954e-05
-1.43409e-05
-1.37397e-06
-3.93824e-05
-2.81637e-06
-4.12685e-05
-4.26833e-06
-4.10459e-05
-5.74553e-06
-4.08079e-05
-7.24685e-06
-4.04757e-05
-8.77152e-06
-4.00464e-05
-1.03201e-05
-3.95086e-05
-1.18971e-05
-3.88469e-05
-1.35088e-05
-3.80452e-05
-1.51546e-05
-3.70941e-05
-1.68083e-05
-3.60035e-05
-1.8398e-05
-3.47939e-05
-1.99285e-05
-3.34233e-05
-2.14189e-05
-3.18807e-05
-2.29045e-05
-3.0179e-05
-2.44037e-05
-2.83354e-05
-2.59023e-05
-2.63698e-05
-2.72375e-05
-2.43478e-05
-2.82706e-05
-2.2276e-05
-2.90515e-05
-2.0133e-05
-2.97685e-05
-1.79686e-05
-3.04421e-05
-1.58214e-05
-1.37372e-05
-1.28067e-06
-3.81019e-05
-2.6214e-06
-3.99278e-05
-3.96846e-06
-3.96988e-05
-5.33843e-06
-3.94379e-05
-6.73846e-06
-3.90756e-05
-8.17376e-06
-3.86111e-05
-9.64444e-06
-3.80379e-05
-1.11418e-05
-3.73496e-05
-1.26475e-05
-3.65395e-05
-1.41445e-05
-3.5597e-05
-1.56385e-05
-3.45095e-05
-1.71545e-05
-3.32779e-05
-1.86617e-05
-3.19161e-05
-2.01106e-05
-3.04323e-05
-2.14703e-05
-2.88187e-05
-2.27258e-05
-2.70813e-05
-2.38561e-05
-2.52399e-05
-2.49094e-05
-2.3295e-05
-2.5923e-05
-2.12628e-05
-2.68614e-05
-1.91948e-05
-2.76762e-05
-1.71537e-05
-2.83831e-05
-1.51145e-05
-1.30611e-05
-1.19721e-06
-3.69045e-05
-2.45463e-06
-3.86703e-05
-3.71267e-06
-3.84407e-05
-4.98727e-06
-3.81633e-05
-6.27956e-06
-3.77833e-05
-7.59136e-06
-3.72993e-05
-8.92378e-06
-3.67055e-05
-1.02773e-05
-3.59961e-05
-1.16502e-05
-3.51665e-05
-1.30332e-05
-3.4214e-05
-1.44043e-05
-3.31384e-05
-1.57436e-05
-3.19385e-05
-1.70507e-05
-3.0609e-05
-1.83324e-05
-2.91504e-05
-1.95783e-05
-2.75739e-05
-2.0771e-05
-2.58886e-05
-2.19061e-05
-2.41055e-05
-2.29597e-05
-2.22421e-05
-2.39122e-05
-2.03107e-05
-2.47747e-05
-1.83325e-05
-2.55855e-05
-1.6343e-05
-2.63504e-05
-1.43493e-05
-1.23324e-05
-1.11321e-06
-3.57915e-05
-2.2739e-06
-3.75096e-05
-3.43524e-06
-3.72793e-05
-4.61016e-06
-3.69883e-05
-5.80041e-06
-3.65931e-05
-7.00688e-06
-3.60928e-05
-8.22818e-06
-3.54842e-05
-9.46042e-06
-3.47639e-05
-1.06984e-05
-3.39286e-05
-1.19373e-05
-3.2975e-05
-1.31743e-05
-3.19013e-05
-1.44047e-05
-3.07081e-05
-1.56148e-05
-2.93989e-05
-1.67883e-05
-2.79773e-05
-1.79168e-05
-2.64451e-05
-1.89958e-05
-2.48105e-05
-2.0018e-05
-2.30838e-05
-2.09846e-05
-2.12761e-05
-2.18955e-05
-1.94002e-05
-2.27525e-05
-1.74758e-05
-2.35644e-05
-1.5531e-05
-2.43411e-05
-1.35726e-05
-1.15786e-05
-1.01416e-06
-3.47771e-05
-2.0757e-06
-3.6448e-05
-3.1351e-06
-3.62199e-05
-4.20622e-06
-3.59172e-05
-5.29003e-06
-3.55093e-05
-6.38718e-06
-3.49957e-05
-7.49688e-06
-3.43745e-05
-8.61677e-06
-3.3644e-05
-9.74258e-06
-3.28027e-05
-1.08681e-05
-3.18495e-05
-1.19857e-05
-3.07837e-05
-1.30882e-05
-2.96055e-05
-1.41712e-05
-2.83159e-05
-1.52305e-05
-2.69179e-05
-1.62593e-05
-2.54173e-05
-1.72498e-05
-2.382e-05
-1.8199e-05
-2.21354e-05
-1.91027e-05
-2.0373e-05
-1.99602e-05
-1.85431e-05
-2.07778e-05
-1.66585e-05
-2.15689e-05
-1.47401e-05
-2.23422e-05
-1.27991e-05
-1.08183e-05
-9.18046e-07
-3.38592e-05
-1.87644e-06
-3.54896e-05
-2.83263e-06
-3.52637e-05
-3.79914e-06
-3.49507e-05
-4.77612e-06
-3.45323e-05
-5.76376e-06
-3.40081e-05
-6.76118e-06
-3.33771e-05
-7.76606e-06
-3.26392e-05
-8.77508e-06
-3.17937e-05
-9.78412e-06
-3.08404e-05
-1.07886e-05
-2.97792e-05
-1.17832e-05
-2.86109e-05
-1.27617e-05
-2.73373e-05
-1.37186e-05
-2.59614e-05
-1.46486e-05
-2.44869e-05
-1.55495e-05
-2.29202e-05
-1.64178e-05
-2.12676e-05
-1.72534e-05
-1.95379e-05
-1.80574e-05
-1.77395e-05
-1.88343e-05
-1.5882e-05
-1.9594e-05
-1.39804e-05
-2.03461e-05
-1.20472e-05
-1.00702e-05
-8.13119e-07
-3.30459e-05
-1.66563e-06
-3.46371e-05
-2.51568e-06
-3.44137e-05
-3.37573e-06
-3.40907e-05
-4.24573e-06
-3.36623e-05
-5.1259e-06
-3.31279e-05
-6.01571e-06
-3.24873e-05
-6.91297e-06
-3.17419e-05
-7.8142e-06
-3.08925e-05
-8.71517e-06
-2.99394e-05
-9.61134e-06
-2.8883e-05
-1.04983e-05
-2.77239e-05
-1.13723e-05
-2.64634e-05
-1.22294e-05
-2.51042e-05
-1.30668e-05
-2.36503e-05
-1.38811e-05
-2.21059e-05
-1.46717e-05
-2.04777e-05
-1.54384e-05
-1.87718e-05
-1.61832e-05
-1.69952e-05
-1.69105e-05
-1.5155e-05
-1.7629e-05
-1.32622e-05
-1.83476e-05
-1.13285e-05
-9.34834e-06
-7.04243e-07
-3.23419e-05
-1.44884e-06
-3.38925e-05
-2.19146e-06
-3.36711e-05
-2.94384e-06
-3.33383e-05
-3.70553e-06
-3.29007e-05
-4.47695e-06
-3.23566e-05
-5.2586e-06
-3.17057e-05
-6.04891e-06
-3.09517e-05
-6.8446e-06
-3.00968e-05
-7.64152e-06
-2.91425e-05
-8.43525e-06
-2.80892e-05
-9.22179e-06
-2.69373e-05
-9.99785e-06
-2.56874e-05
-1.07604e-05
-2.43419e-05
-1.15069e-05
-2.29036e-05
-1.22366e-05
-2.13771e-05
-1.29486e-05
-1.97662e-05
-1.36441e-05
-1.80769e-05
-1.43256e-05
-1.63143e-05
-1.49973e-05
-1.44837e-05
-1.56666e-05
-1.25931e-05
-1.6342e-05
-1.06533e-05
-8.66367e-06
-5.87662e-07
-3.1754e-05
-1.22546e-06
-3.32547e-05
-1.86121e-06
-3.30353e-05
-2.50507e-06
-3.26945e-05
-3.15642e-06
-3.22494e-05
-3.81571e-06
-3.16973e-05
-4.48615e-06
-3.10353e-05
-5.16805e-06
-3.02698e-05
-5.85898e-06
-2.94059e-05
-6.55529e-06
-2.84462e-05
-7.25189e-06
-2.73926e-05
-7.94395e-06
-2.62453e-05
-8.62837e-06
-2.5003e-05
-9.3014e-06
-2.36688e-05
-9.96165e-06
-2.22443e-05
-1.0608e-05
-2.07308e-05
-1.12417e-05
-1.91332e-05
-1.18637e-05
-1.74555e-05
-1.24775e-05
-1.57011e-05
-1.30876e-05
-1.3874e-05
-1.37011e-05
-1.198e-05
-1.43257e-05
-1.00287e-05
-8.02381e-06
-4.66402e-07
-3.12878e-05
-1.00658e-06
-3.27146e-05
-1.54338e-06
-3.24986e-05
-2.08265e-06
-3.21552e-05
-2.62305e-06
-3.1709e-05
-3.16217e-06
-3.11582e-05
-3.70097e-06
-3.04965e-05
-4.24452e-06
-2.97263e-05
-4.80495e-06
-2.88455e-05
-5.39036e-06
-2.78608e-05
-5.99815e-06
-2.67848e-05
-6.61337e-06
-2.563e-05
-7.22258e-06
-2.43938e-05
-7.82224e-06
-2.30695e-05
-8.40837e-06
-2.16579e-05
-8.98093e-06
-2.01592e-05
-9.54072e-06
-1.8574e-05
-1.00892e-05
-1.69077e-05
-1.06319e-05
-1.5159e-05
-1.11752e-05
-1.33311e-05
-1.17267e-05
-1.14288e-05
-1.22947e-05
-9.46093e-06
-7.43479e-06
-3.49545e-07
-3.09381e-05
-8.23977e-07
-3.22401e-05
-1.29134e-06
-3.20312e-05
-1.74906e-06
-3.16975e-05
-2.19603e-06
-3.1262e-05
-2.62697e-06
-3.07273e-05
-3.03402e-06
-3.00895e-05
-3.42511e-06
-2.93352e-05
-3.8084e-06
-2.84623e-05
-4.19836e-06
-2.74708e-05
-4.61967e-06
-2.63635e-05
-5.09516e-06
-2.51546e-05
-5.62336e-06
-2.38657e-05
-6.18482e-06
-2.2508e-05
-6.75415e-06
-2.10893e-05
-7.30061e-06
-1.96128e-05
-7.81274e-06
-1.80625e-05
-8.30046e-06
-1.64207e-05
-8.77699e-06
-1.46831e-05
-9.25267e-06
-1.28559e-05
-9.7374e-06
-1.09445e-05
-1.02415e-05
-8.95691e-06
-6.89692e-06
-2.68639e-07
-3.06696e-05
-7.41808e-07
-3.17669e-05
-1.20166e-06
-3.15713e-05
-1.63574e-06
-3.12634e-05
-2.04969e-06
-3.08481e-05
-2.4556e-06
-3.03214e-05
-2.84695e-06
-2.96982e-05
-3.21476e-06
-2.89674e-05
-3.54826e-06
-2.81287e-05
-3.83849e-06
-2.71806e-05
-4.08535e-06
-2.61167e-05
-4.30489e-06
-2.4935e-05
-4.52066e-06
-2.36499e-05
-4.7632e-06
-2.22657e-05
-5.06445e-06
-2.07879e-05
-5.45272e-06
-1.92253e-05
-5.91539e-06
-1.76005e-05
-6.40355e-06
-1.59333e-05
-6.86841e-06
-1.42189e-05
-7.29812e-06
-1.24268e-05
-7.72728e-06
-1.05156e-05
-8.16769e-06
-8.51674e-06
-6.42091e-06
-2.7846e-07
-3.0391e-05
-8.26042e-07
-3.12193e-05
-1.35317e-06
-3.10442e-05
-1.84374e-06
-3.07729e-05
-2.29932e-06
-3.03925e-05
-2.72111e-06
-2.98996e-05
-3.11406e-06
-2.93052e-05
-3.46735e-06
-2.86141e-05
-3.77427e-06
-2.78218e-05
-4.02954e-06
-2.69253e-05
-4.22315e-06
-2.59231e-05
-4.35325e-06
-2.48049e-05
-4.43448e-06
-2.35688e-05
-4.47877e-06
-2.22214e-05
-4.49499e-06
-2.07724e-05
-4.49657e-06
-1.92242e-05
-4.51905e-06
-1.75789e-05
-4.62136e-06
-1.58318e-05
-4.85327e-06
-1.39878e-05
-5.18798e-06
-1.20927e-05
-5.57044e-06
-1.01336e-05
-6.01081e-06
-8.07662e-06
-5.93434e-06
-3.95211e-07
-2.99959e-05
-1.03019e-06
-3.05845e-05
-1.64815e-06
-3.04264e-05
-2.23434e-06
-3.01868e-05
-2.78311e-06
-2.98439e-05
-3.27582e-06
-2.9407e-05
-3.71051e-06
-2.88707e-05
-4.08801e-06
-2.82367e-05
-4.40516e-06
-2.75048e-05
-4.65718e-06
-2.66734e-05
-4.83947e-06
-2.57409e-05
-4.94032e-06
-2.47042e-05
-4.95649e-06
-2.35527e-05
-4.89525e-06
-2.2283e-05
-4.76064e-06
-2.09072e-05
-4.56578e-06
-1.94197e-05
-4.3309e-06
-1.78144e-05
-4.07358e-06
-1.60898e-05
-3.82032e-06
-1.42416e-05
-3.65031e-06
-1.22632e-05
-3.63729e-06
-1.0147e-05
-3.81555e-06
-7.89852e-06
-5.55751e-06
-4.33873e-07
-1.06834e-06
-1.69151e-06
-2.29005e-06
-2.85459e-06
-3.3793e-06
-3.85476e-06
-4.27544e-06
-4.63608e-06
-4.93134e-06
-5.15633e-06
-5.30561e-06
-5.367e-06
-5.32902e-06
-5.19542e-06
-4.96893e-06
-4.65283e-06
-4.25594e-06
-3.79331e-06
-3.28754e-06
-2.78079e-06
-2.35508e-06
)
;

boundaryField
{
    leftWall
    {
        type            fixedValue;
        value           uniform 0;
    }
    rightWall
    {
        type            fixedValue;
        value           nonuniform 0();
    }
    lowerWall
    {
        type            fixedValue;
        value           nonuniform 0();
    }
    atmosphere
    {
        type            calculated;
        value           nonuniform List<scalar> 
23
(
-2.95622e-05
-2.99501e-05
-2.98033e-05
-2.95884e-05
-2.92794e-05
-2.88824e-05
-2.83953e-05
-2.78162e-05
-2.71443e-05
-2.63782e-05
-2.5516e-05
-2.4555e-05
-2.34914e-05
-2.2321e-05
-2.1041e-05
-1.96464e-05
-1.81307e-05
-1.64869e-05
-1.47044e-05
-1.27691e-05
-1.06538e-05
-8.32432e-06
-5.76129e-06
)
;
    }
    defaultFaces
    {
        type            empty;
        value           nonuniform 0();
    }
    procBoundary2to0
    {
        type            processor;
        value           nonuniform List<scalar> 
24
(
4.99529e-05
3.69709e-05
2.68263e-05
1.75071e-05
1.07423e-05
7.93231e-06
6.71261e-06
5.32862e-05
5.66007e-05
5.73811e-05
5.83205e-05
5.90082e-05
5.94178e-05
5.96889e-05
5.99674e-05
6.06536e-05
6.23282e-05
6.47648e-05
6.63728e-05
6.62255e-05
6.64083e-05
6.4181e-05
7.53539e-05
5.67197e-05
)
;
    }
    procBoundary2to3
    {
        type            processor;
        value           nonuniform List<scalar> 
25
(
-5.21847e-05
-5.71709e-05
-4.99088e-05
-4.91221e-05
-4.53199e-05
-4.21962e-05
-3.92988e-05
-3.71065e-05
-3.50512e-05
-3.30388e-05
-3.10448e-05
-2.90579e-05
-2.70783e-05
-2.5094e-05
-2.3102e-05
-2.10935e-05
-1.90692e-05
-1.70263e-05
-1.49655e-05
-1.28835e-05
-1.07794e-05
-8.64358e-06
-6.49738e-06
-4.19251e-06
-2.15135e-06
)
;
    }
}


// ************************************************************************* //
