/*--------------------------------*- C++ -*----------------------------------*\
| =========                 |                                                 |
| \\      /  F ield         | OpenFOAM: The Open Source CFD Toolbox           |
|  \\    /   O peration     | Version:  2.4.0                                 |
|   \\  /    A nd           | Web:      www.OpenFOAM.org                      |
|    \\/     M anipulation  |                                                 |
\*---------------------------------------------------------------------------*/
FoamFile
{
    version     2.0;
    format      ascii;
    class       surfaceScalarField;
    location    "0.3";
    object      phi.air;
}
// * * * * * * * * * * * * * * * * * * * * * * * * * * * * * * * * * * * * * //

dimensions      [0 3 -1 0 0 0 0];

internalField   nonuniform List<scalar> 
1070
(
-8.0601e-05
-4.47093e-05
-8.1617e-05
-3.59532e-05
-7.76702e-05
-3.07697e-05
-7.02517e-05
-2.49224e-05
-6.36286e-05
-1.73606e-05
-5.75361e-05
-1.4019e-05
-1.20451e-05
-8.15731e-07
-5.24722e-05
-2.10989e-06
-5.53081e-05
-3.86261e-06
-5.56299e-05
-5.92672e-06
-5.62579e-05
-8.15843e-06
-5.67781e-05
-1.0394e-05
-5.71839e-05
-1.25595e-05
-5.7525e-05
-1.46735e-05
-5.7855e-05
-1.71691e-05
-5.81596e-05
-2.0768e-05
-5.87307e-05
-2.61749e-05
-5.93593e-05
-3.35563e-05
-5.89925e-05
-4.12443e-05
-5.85385e-05
-5.00786e-05
-5.75749e-05
-5.88231e-05
-5.54366e-05
-6.39845e-05
-5.15591e-05
-6.41146e-05
-4.45791e-05
-6.33643e-05
-3.67035e-05
-6.2395e-05
-3.1739e-05
-6.04614e-05
-2.6856e-05
-5.79282e-05
-1.98938e-05
-5.709e-05
-1.48573e-05
-1.19521e-05
-1.37375e-06
-5.10985e-05
-2.83098e-06
-5.38509e-05
-4.3783e-06
-5.40826e-05
-6.15663e-06
-5.44796e-05
-8.13022e-06
-5.48045e-05
-1.01786e-05
-5.51355e-05
-1.23243e-05
-5.53793e-05
-1.46336e-05
-5.55457e-05
-1.71761e-05
-5.56171e-05
-2.03542e-05
-5.55526e-05
-2.44214e-05
-5.52921e-05
-2.85797e-05
-5.48342e-05
-3.34298e-05
-5.36884e-05
-3.91611e-05
-5.18436e-05
-4.51002e-05
-4.94975e-05
-5.09281e-05
-4.57311e-05
-5.43013e-05
-4.12058e-05
-5.49827e-05
-3.6022e-05
-5.55599e-05
-3.11619e-05
-5.51213e-05
-2.72946e-05
-5.23974e-05
-2.26177e-05
-5.06845e-05
-1.65702e-05
-1.27172e-05
-1.33804e-06
-4.97604e-05
-2.85241e-06
-5.23365e-05
-4.54163e-06
-5.23934e-05
-6.43506e-06
-5.25861e-05
-8.46768e-06
-5.27719e-05
-1.06644e-05
-5.29387e-05
-1.29602e-05
-5.30835e-05
-1.54028e-05
-5.31031e-05
-1.80496e-05
-5.29703e-05
-2.07872e-05
-5.2815e-05
-2.37601e-05
-5.23192e-05
-2.73792e-05
-5.12151e-05
-3.12302e-05
-4.98374e-05
-3.49446e-05
-4.81292e-05
-3.86737e-05
-4.57684e-05
-4.22653e-05
-4.21395e-05
-4.54649e-05
-3.80063e-05
-4.73743e-05
-3.41126e-05
-4.81015e-05
-3.04346e-05
-4.85246e-05
-2.68714e-05
-4.88642e-05
-2.22781e-05
-4.93501e-05
-1.60843e-05
-1.29355e-05
-1.56591e-06
-4.81945e-05
-3.27075e-06
-5.06317e-05
-5.0442e-06
-5.06199e-05
-6.90528e-06
-5.0725e-05
-8.88796e-06
-5.07892e-05
-1.10414e-05
-5.07853e-05
-1.34119e-05
-5.0713e-05
-1.59609e-05
-5.05541e-05
-1.85628e-05
-5.03684e-05
-2.13852e-05
-4.99926e-05
-2.46042e-05
-4.91002e-05
-2.8026e-05
-4.77933e-05
-3.12959e-05
-4.65675e-05
-3.45925e-05
-4.48327e-05
-3.78096e-05
-4.25513e-05
-4.03865e-05
-3.95626e-05
-4.23475e-05
-3.60453e-05
-4.39585e-05
-3.25015e-05
-4.51475e-05
-2.92456e-05
-4.59656e-05
-2.60534e-05
-4.6432e-05
-2.18117e-05
-4.623e-05
-1.62864e-05
-1.38374e-05
-1.42763e-06
-4.67669e-05
-2.99532e-06
-4.9064e-05
-4.66121e-06
-4.8954e-05
-6.44049e-06
-4.89458e-05
-8.35261e-06
-4.88771e-05
-1.03929e-05
-4.87451e-05
-1.25873e-05
-4.85186e-05
-1.49473e-05
-4.81941e-05
-1.75819e-05
-4.77337e-05
-2.04955e-05
-4.70791e-05
-2.32832e-05
-4.63125e-05
-2.57812e-05
-4.52952e-05
-2.8605e-05
-4.37438e-05
-3.16795e-05
-4.17582e-05
-3.46719e-05
-3.95589e-05
-3.70231e-05
-3.72114e-05
-3.87242e-05
-3.43442e-05
-4.02257e-05
-3.1e-05
-4.17184e-05
-2.7753e-05
-4.29878e-05
-2.4784e-05
-4.35036e-05
-2.12959e-05
-4.29163e-05
-1.68736e-05
-1.45502e-05
-1.56271e-06
-4.52041e-05
-3.22522e-06
-4.74015e-05
-4.9352e-06
-4.7244e-05
-6.72505e-06
-4.71559e-05
-8.61423e-06
-4.69879e-05
-1.06139e-05
-4.67454e-05
-1.27101e-05
-4.64224e-05
-1.48834e-05
-4.60207e-05
-1.71026e-05
-4.55146e-05
-1.93721e-05
-4.48096e-05
-2.18202e-05
-4.38644e-05
-2.4479e-05
-4.26363e-05
-2.70467e-05
-4.11761e-05
-2.93324e-05
-3.94725e-05
-3.16996e-05
-3.71918e-05
-3.42324e-05
-3.46787e-05
-3.62845e-05
-3.22921e-05
-3.76399e-05
-2.96445e-05
-3.85013e-05
-2.68917e-05
-3.9317e-05
-2.39683e-05
-4.01228e-05
-2.04901e-05
-3.98289e-05
-1.71675e-05
-1.50744e-05
-1.54729e-06
-4.36568e-05
-3.17924e-06
-4.57695e-05
-4.82161e-06
-4.56016e-05
-6.49658e-06
-4.54809e-05
-8.19977e-06
-4.52847e-05
-9.93505e-06
-4.50101e-05
-1.17206e-05
-4.46368e-05
-1.36047e-05
-4.41366e-05
-1.56621e-05
-4.34572e-05
-1.79358e-05
-4.25359e-05
-2.04311e-05
-4.13691e-05
-2.29457e-05
-4.01217e-05
-2.53812e-05
-3.87407e-05
-2.77917e-05
-3.7062e-05
-2.97684e-05
-3.5215e-05
-3.11852e-05
-3.32619e-05
-3.25369e-05
-3.09405e-05
-3.39913e-05
-2.81901e-05
-3.54764e-05
-2.54065e-05
-3.68174e-05
-2.26273e-05
-3.73811e-05
-1.99265e-05
-3.71182e-05
-1.74305e-05
-1.50808e-05
-1.4817e-06
-4.21751e-05
-3.05124e-06
-4.42e-05
-4.65377e-06
-4.39991e-05
-6.31645e-06
-4.38183e-05
-8.05097e-06
-4.35502e-05
-9.8651e-06
-4.3196e-05
-1.17557e-05
-4.27463e-05
-1.37072e-05
-4.2185e-05
-1.56791e-05
-4.14854e-05
-1.75894e-05
-4.06256e-05
-1.94015e-05
-3.95569e-05
-2.11809e-05
-3.83423e-05
-2.30101e-05
-3.69114e-05
-2.48223e-05
-3.52498e-05
-2.66966e-05
-3.33408e-05
-2.87936e-05
-3.11649e-05
-3.08219e-05
-2.89122e-05
-3.22956e-05
-2.67165e-05
-3.32908e-05
-2.44113e-05
-3.381e-05
-2.21081e-05
-3.42678e-05
-1.94687e-05
-3.47813e-05
-1.6917e-05
-1.48068e-05
-1.41708e-06
-4.07581e-05
-2.90463e-06
-4.27124e-05
-4.40443e-06
-4.24993e-05
-5.93617e-06
-4.22865e-05
-7.50798e-06
-4.19784e-05
-9.13164e-06
-4.15724e-05
-1.08195e-05
-4.10584e-05
-1.25795e-05
-4.0425e-05
-1.44069e-05
-3.9658e-05
-1.62916e-05
-3.87409e-05
-1.81904e-05
-3.76581e-05
-2.01484e-05
-3.63844e-05
-2.21054e-05
-3.49544e-05
-2.39835e-05
-3.33717e-05
-2.56604e-05
-3.16639e-05
-2.69903e-05
-2.98349e-05
-2.8035e-05
-2.78676e-05
-2.90691e-05
-2.56824e-05
-3.01721e-05
-2.33083e-05
-3.13672e-05
-2.0913e-05
-3.21513e-05
-1.86847e-05
-3.25745e-05
-1.64938e-05
-1.43389e-05
-1.37422e-06
-3.93838e-05
-2.81683e-06
-4.12698e-05
-4.269e-06
-4.10471e-05
-5.7464e-06
-4.08091e-05
-7.24792e-06
-4.04768e-05
-8.77277e-06
-4.00475e-05
-1.03216e-05
-3.95096e-05
-1.18987e-05
-3.88479e-05
-1.35106e-05
-3.80461e-05
-1.51566e-05
-3.70949e-05
-1.68106e-05
-3.60042e-05
-1.84005e-05
-3.47945e-05
-1.99311e-05
-3.34237e-05
-2.14218e-05
-3.18811e-05
-2.29068e-05
-3.01789e-05
-2.44061e-05
-2.83357e-05
-2.59041e-05
-2.63696e-05
-2.7239e-05
-2.43475e-05
-2.82719e-05
-2.22754e-05
-2.90528e-05
-2.01322e-05
-2.97699e-05
-1.79675e-05
-3.04438e-05
-1.582e-05
-1.37352e-05
-1.28085e-06
-3.8103e-05
-2.62181e-06
-3.99289e-05
-3.96908e-06
-3.96999e-05
-5.33925e-06
-3.94389e-05
-6.73946e-06
-3.90766e-05
-8.17493e-06
-3.8612e-05
-9.64578e-06
-3.80388e-05
-1.11433e-05
-3.73504e-05
-1.26492e-05
-3.65402e-05
-1.41465e-05
-3.55976e-05
-1.56407e-05
-3.451e-05
-1.71569e-05
-3.32782e-05
-1.86643e-05
-3.19164e-05
-2.0113e-05
-3.04323e-05
-2.1473e-05
-2.88189e-05
-2.27278e-05
-2.70809e-05
-2.38578e-05
-2.52396e-05
-2.49107e-05
-2.32946e-05
-2.5924e-05
-2.12621e-05
-2.68623e-05
-1.91939e-05
-2.76773e-05
-1.71526e-05
-2.83843e-05
-1.5113e-05
-1.30593e-05
-1.19744e-06
-3.69055e-05
-2.45504e-06
-3.86713e-05
-3.71326e-06
-3.84416e-05
-4.98804e-06
-3.81642e-05
-6.2805e-06
-3.77842e-05
-7.59246e-06
-3.73001e-05
-8.92504e-06
-3.67062e-05
-1.02787e-05
-3.59968e-05
-1.16518e-05
-3.5167e-05
-1.3035e-05
-3.42144e-05
-1.44063e-05
-3.31387e-05
-1.57458e-05
-3.19387e-05
-1.70531e-05
-3.06091e-05
-1.8335e-05
-2.91504e-05
-1.95805e-05
-2.75735e-05
-2.0773e-05
-2.58883e-05
-2.19076e-05
-2.4105e-05
-2.29607e-05
-2.22415e-05
-2.3913e-05
-2.03099e-05
-2.47754e-05
-1.83315e-05
-2.55862e-05
-1.63418e-05
-2.63513e-05
-1.43479e-05
-1.23307e-05
-1.11337e-06
-3.57922e-05
-2.27426e-06
-3.75104e-05
-3.43578e-06
-3.72801e-05
-4.61088e-06
-3.69891e-05
-5.80129e-06
-3.65938e-05
-7.00791e-06
-3.60934e-05
-8.22935e-06
-3.54847e-05
-9.46175e-06
-3.47644e-05
-1.06999e-05
-3.39289e-05
-1.1939e-05
-3.29753e-05
-1.31762e-05
-3.19014e-05
-1.44068e-05
-3.07081e-05
-1.56171e-05
-2.93988e-05
-1.67905e-05
-2.7977e-05
-1.79191e-05
-2.64449e-05
-1.89976e-05
-2.48099e-05
-2.00194e-05
-2.30832e-05
-2.09855e-05
-2.12754e-05
-2.18961e-05
-1.93993e-05
-2.27529e-05
-1.74747e-05
-2.35649e-05
-1.55298e-05
-2.43417e-05
-1.35711e-05
-1.1577e-05
-1.01436e-06
-3.47778e-05
-2.07605e-06
-3.64487e-05
-3.13561e-06
-3.62206e-05
-4.20688e-06
-3.59178e-05
-5.29084e-06
-3.55098e-05
-6.38812e-06
-3.49962e-05
-7.49796e-06
-3.43749e-05
-8.61799e-06
-3.36443e-05
-9.74397e-06
-3.28029e-05
-1.08697e-05
-3.18496e-05
-1.19874e-05
-3.07837e-05
-1.30902e-05
-2.96054e-05
-1.41733e-05
-2.83157e-05
-1.52328e-05
-2.69175e-05
-1.62612e-05
-2.54165e-05
-1.72516e-05
-2.38195e-05
-1.82002e-05
-2.21346e-05
-1.91035e-05
-2.03721e-05
-1.99607e-05
-1.85421e-05
-2.07781e-05
-1.66574e-05
-2.15691e-05
-1.47388e-05
-2.23425e-05
-1.27977e-05
-1.08166e-05
-9.18174e-07
-3.38596e-05
-1.87675e-06
-3.54901e-05
-2.83309e-06
-3.52642e-05
-3.79974e-06
-3.49511e-05
-4.77687e-06
-3.45327e-05
-5.76463e-06
-3.40084e-05
-6.76218e-06
-3.33773e-05
-7.76719e-06
-3.26393e-05
-8.77636e-06
-3.17938e-05
-9.78558e-06
-3.08403e-05
-1.07902e-05
-2.9779e-05
-1.1785e-05
-2.86106e-05
-1.27638e-05
-2.73369e-05
-1.37205e-05
-2.59608e-05
-1.46507e-05
-2.44863e-05
-1.5551e-05
-2.29192e-05
-1.64189e-05
-2.12667e-05
-1.72541e-05
-1.95369e-05
-1.80578e-05
-1.77384e-05
-1.88344e-05
-1.58807e-05
-1.95941e-05
-1.39791e-05
-2.03462e-05
-1.20456e-05
-1.00686e-05
-8.13291e-07
-3.30464e-05
-1.66593e-06
-3.46375e-05
-2.5161e-06
-3.4414e-05
-3.37629e-06
-3.4091e-05
-4.24641e-06
-3.36626e-05
-5.12669e-06
-3.31281e-05
-6.01662e-06
-3.24874e-05
-6.914e-06
-3.17419e-05
-7.81537e-06
-3.08924e-05
-8.71652e-06
-2.99392e-05
-9.61287e-06
-2.88827e-05
-1.05e-05
-2.77234e-05
-1.13741e-05
-2.64628e-05
-1.22314e-05
-2.51035e-05
-1.30684e-05
-2.36493e-05
-1.38826e-05
-2.2105e-05
-1.46727e-05
-2.04766e-05
-1.5439e-05
-1.87706e-05
-1.61835e-05
-1.6994e-05
-1.69105e-05
-1.51537e-05
-1.76289e-05
-1.32607e-05
-1.83476e-05
-1.1327e-05
-9.34664e-06
-7.04343e-07
-3.2342e-05
-1.44908e-06
-3.38927e-05
-2.19184e-06
-3.36713e-05
-2.94434e-06
-3.33385e-05
-3.70614e-06
-3.29008e-05
-4.47766e-06
-3.23566e-05
-5.25943e-06
-3.17057e-05
-6.04985e-06
-3.09515e-05
-6.84566e-06
-3.00966e-05
-7.64274e-06
-2.91421e-05
-8.43665e-06
-2.80888e-05
-9.22338e-06
-2.69367e-05
-9.99957e-06
-2.56866e-05
-1.07621e-05
-2.4341e-05
-1.15086e-05
-2.29028e-05
-1.22379e-05
-2.13758e-05
-1.29495e-05
-1.9765e-05
-1.36446e-05
-1.80756e-05
-1.43258e-05
-1.63128e-05
-1.49972e-05
-1.44822e-05
-1.56664e-05
-1.25915e-05
-1.63418e-05
-1.06516e-05
-8.66192e-06
-5.87804e-07
-3.17542e-05
-1.2257e-06
-3.32548e-05
-1.86154e-06
-3.30354e-05
-2.50551e-06
-3.26945e-05
-3.15695e-06
-3.22493e-05
-3.81634e-06
-3.16972e-05
-4.48688e-06
-3.10351e-05
-5.16888e-06
-3.02695e-05
-5.85994e-06
-2.94055e-05
-6.55639e-06
-2.84457e-05
-7.25316e-06
-2.7392e-05
-7.94538e-06
-2.62445e-05
-8.62992e-06
-2.50021e-05
-9.30312e-06
-2.36678e-05
-9.96302e-06
-2.22429e-05
-1.06093e-05
-2.07296e-05
-1.12425e-05
-1.91318e-05
-1.18641e-05
-1.7454e-05
-1.24775e-05
-1.56994e-05
-1.30875e-05
-1.38723e-05
-1.37008e-05
-1.19782e-05
-1.43255e-05
-1.00269e-05
-8.02189e-06
-4.66473e-07
-3.12877e-05
-1.00676e-06
-3.27145e-05
-1.54367e-06
-3.24985e-05
-2.08302e-06
-3.21551e-05
-2.62351e-06
-3.17088e-05
-3.16272e-06
-3.1158e-05
-3.70161e-06
-3.04962e-05
-4.24525e-06
-2.97259e-05
-4.80579e-06
-2.8845e-05
-5.39133e-06
-2.78601e-05
-5.99927e-06
-2.67841e-05
-6.61466e-06
-2.56291e-05
-7.22402e-06
-2.43927e-05
-7.82361e-06
-2.30682e-05
-8.40991e-06
-2.16566e-05
-8.982e-06
-2.01575e-05
-9.54148e-06
-1.85723e-05
-1.00896e-05
-1.69059e-05
-1.06319e-05
-1.51572e-05
-1.1175e-05
-1.33292e-05
-1.17263e-05
-1.14268e-05
-1.22943e-05
-9.45887e-06
-7.43273e-06
-3.49657e-07
-3.09381e-05
-8.24152e-07
-3.224e-05
-1.29158e-06
-3.20311e-05
-1.74938e-06
-3.16973e-05
-2.19641e-06
-3.12618e-05
-2.62743e-06
-3.0727e-05
-3.03455e-06
-3.00891e-05
-3.42573e-06
-2.93347e-05
-3.80911e-06
-2.84616e-05
-4.19919e-06
-2.74701e-05
-4.62064e-06
-2.63626e-05
-5.09628e-06
-2.51535e-05
-5.62459e-06
-2.38644e-05
-6.18624e-06
-2.25066e-05
-6.75528e-06
-2.10875e-05
-7.30169e-06
-1.96111e-05
-7.81341e-06
-1.80606e-05
-8.30071e-06
-1.64186e-05
-8.77692e-06
-1.4681e-05
-9.25236e-06
-1.28537e-05
-9.73698e-06
-1.09422e-05
-1.02412e-05
-8.95467e-06
-6.89462e-06
-2.68678e-07
-3.06694e-05
-7.41927e-07
-3.17668e-05
-1.20185e-06
-3.15712e-05
-1.63599e-06
-3.12632e-05
-2.04999e-06
-3.08478e-05
-2.45596e-06
-3.0321e-05
-2.84736e-06
-2.96977e-05
-3.21525e-06
-2.89668e-05
-3.54883e-06
-2.8128e-05
-3.83917e-06
-2.71797e-05
-4.08614e-06
-2.61156e-05
-4.30583e-06
-2.49338e-05
-4.52174e-06
-2.36485e-05
-4.76426e-06
-2.2264e-05
-5.06567e-06
-2.07861e-05
-5.45358e-06
-1.92232e-05
-5.91595e-06
-1.75982e-05
-6.40373e-06
-1.59308e-05
-6.86829e-06
-1.42164e-05
-7.29776e-06
-1.24242e-05
-7.72686e-06
-1.05131e-05
-8.16729e-06
-8.51424e-06
-6.41845e-06
-2.78515e-07
-3.03909e-05
-8.26136e-07
-3.12192e-05
-1.3533e-06
-3.1044e-05
-1.84391e-06
-3.07726e-05
-2.29954e-06
-3.03922e-05
-2.72136e-06
-2.98992e-05
-3.11436e-06
-2.93047e-05
-3.4677e-06
-2.86135e-05
-3.77468e-06
-2.78211e-05
-4.03003e-06
-2.69244e-05
-4.22374e-06
-2.59219e-05
-4.35396e-06
-2.48036e-05
-4.43528e-06
-2.35672e-05
-4.47977e-06
-2.22196e-05
-4.49581e-06
-2.07701e-05
-4.49733e-06
-1.92217e-05
-4.51947e-06
-1.75761e-05
-4.62146e-06
-1.58288e-05
-4.8531e-06
-1.39848e-05
-5.18764e-06
-1.20897e-05
-5.57005e-06
-1.01307e-05
-6.01046e-06
-8.07383e-06
-5.93169e-06
-3.95249e-07
-2.99956e-05
-1.03025e-06
-3.05842e-05
-1.64823e-06
-3.0426e-05
-2.23445e-06
-3.01864e-05
-2.78324e-06
-2.98434e-05
-3.27597e-06
-2.94065e-05
-3.71069e-06
-2.887e-05
-4.08822e-06
-2.82359e-05
-4.40542e-06
-2.75039e-05
-4.65748e-06
-2.66723e-05
-4.83983e-06
-2.57396e-05
-4.94076e-06
-2.47026e-05
-4.95704e-06
-2.35509e-05
-4.89582e-06
-2.22808e-05
-4.76125e-06
-2.09046e-05
-4.56622e-06
-1.94167e-05
-4.33114e-06
-1.78112e-05
-4.07361e-06
-1.60864e-05
-3.82019e-06
-1.42382e-05
-3.65008e-06
-1.22598e-05
-3.63701e-06
-1.01438e-05
-3.81535e-06
-7.8955e-06
-5.55462e-06
-4.33885e-07
-1.06836e-06
-1.69154e-06
-2.29009e-06
-2.85464e-06
-3.37935e-06
-3.85482e-06
-4.27551e-06
-4.63616e-06
-4.93144e-06
-5.15646e-06
-5.30577e-06
-5.36719e-06
-5.32924e-06
-5.19563e-06
-4.96908e-06
-4.65291e-06
-4.25595e-06
-3.79327e-06
-3.28746e-06
-2.78071e-06
-2.35502e-06
)
;

boundaryField
{
    leftWall
    {
        type            fixedValue;
        value           uniform 0;
    }
    rightWall
    {
        type            fixedValue;
        value           nonuniform 0();
    }
    lowerWall
    {
        type            fixedValue;
        value           nonuniform 0();
    }
    atmosphere
    {
        type            calculated;
        value           nonuniform List<scalar> 
23
(
-2.95617e-05
-2.99497e-05
-2.98029e-05
-2.95878e-05
-2.92788e-05
-2.88818e-05
-2.83945e-05
-2.78153e-05
-2.71432e-05
-2.6377e-05
-2.55146e-05
-2.45533e-05
-2.34895e-05
-2.23187e-05
-2.10383e-05
-1.96432e-05
-1.81273e-05
-1.64833e-05
-1.47009e-05
-1.27656e-05
-1.06505e-05
-8.32118e-06
-5.75828e-06
)
;
    }
    defaultFaces
    {
        type            empty;
        value           nonuniform 0();
    }
    procBoundary2to0
    {
        type            processor;
        value           nonuniform List<scalar> 
24
(
4.99512e-05
3.69693e-05
2.6823e-05
1.75038e-05
1.07376e-05
7.92656e-06
6.7062e-06
5.3288e-05
5.66023e-05
5.73826e-05
5.8322e-05
5.90098e-05
5.94194e-05
5.96906e-05
5.9969e-05
6.06552e-05
6.23296e-05
6.47662e-05
6.63739e-05
6.62265e-05
6.64092e-05
6.41812e-05
7.53592e-05
5.67204e-05
)
;
    }
    procBoundary2to3
    {
        type            processor;
        value           nonuniform List<scalar> 
25
(
-5.21972e-05
-5.7183e-05
-4.99194e-05
-4.91318e-05
-4.5328e-05
-4.22035e-05
-3.93048e-05
-3.71118e-05
-3.50553e-05
-3.30424e-05
-3.10475e-05
-2.90602e-05
-2.708e-05
-2.50954e-05
-2.31029e-05
-2.10942e-05
-1.90696e-05
-1.70266e-05
-1.49656e-05
-1.28835e-05
-1.07793e-05
-8.64348e-06
-6.49722e-06
-4.19243e-06
-2.15136e-06
)
;
    }
}


// ************************************************************************* //
