/*--------------------------------*- C++ -*----------------------------------*\
| =========                 |                                                 |
| \\      /  F ield         | OpenFOAM: The Open Source CFD Toolbox           |
|  \\    /   O peration     | Version:  2.4.0                                 |
|   \\  /    A nd           | Web:      www.OpenFOAM.org                      |
|    \\/     M anipulation  |                                                 |
\*---------------------------------------------------------------------------*/
FoamFile
{
    version     2.0;
    format      ascii;
    class       volVectorField;
    location    "0.3";
    object      U.water;
}
// * * * * * * * * * * * * * * * * * * * * * * * * * * * * * * * * * * * * * //

dimensions      [0 1 -1 0 0 0 0];

internalField   nonuniform List<vector> 
559
(
(-0.430868 -0.27527 0)
(-0.439582 -0.236602 0)
(-0.430318 -0.213684 0)
(-0.395877 -0.185993 0)
(-0.353404 -0.149341 0)
(-0.325418 -0.133974 0)
(-0.295002 -0.118713 0)
(-0.00167898 -0.286455 0)
(-0.00707891 -0.302556 0)
(-0.0157836 -0.304577 0)
(-0.0260638 -0.307714 0)
(-0.0376666 -0.31186 0)
(-0.0494621 -0.314954 0)
(-0.0614896 -0.317531 0)
(-0.0726654 -0.319229 0)
(-0.0828028 -0.320793 0)
(-0.0989178 -0.324924 0)
(-0.1231 -0.333486 0)
(-0.161541 -0.334151 0)
(-0.199718 -0.334257 0)
(-0.242233 -0.33148 0)
(-0.294212 -0.315471 0)
(-0.338096 -0.284742 0)
(-0.347814 -0.224877 0)
(-0.345581 -0.167897 0)
(-0.3391 -0.136334 0)
(-0.330127 -0.101099 0)
(-0.315983 -0.0542965 0)
(-0.309207 -0.0338779 0)
(-0.305764 -0.0281062 0)
(-0.00339693 -0.278177 0)
(-0.0114872 -0.293108 0)
(-0.0191734 -0.294649 0)
(-0.0279587 -0.298473 0)
(-0.0380709 -0.301615 0)
(-0.0487457 -0.303916 0)
(-0.0600214 -0.304939 0)
(-0.0714927 -0.306418 0)
(-0.0838054 -0.308463 0)
(-0.0986118 -0.310493 0)
(-0.121901 -0.308915 0)
(-0.14254 -0.307002 0)
(-0.164517 -0.302821 0)
(-0.193555 -0.2916 0)
(-0.225969 -0.276328 0)
(-0.258882 -0.258811 0)
(-0.284851 -0.240056 0)
(-0.295935 -0.211909 0)
(-0.300095 -0.190054 0)
(-0.298228 -0.172157 0)
(-0.289752 -0.145134 0)
(-0.272413 -0.11261 0)
(-0.269879 -0.0884411 0)
(-0.00329817 -0.27152 0)
(-0.0111107 -0.286067 0)
(-0.0196833 -0.287074 0)
(-0.0292651 -0.288609 0)
(-0.0396426 -0.290435 0)
(-0.0511122 -0.292535 0)
(-0.0629926 -0.294504 0)
(-0.0752666 -0.295096 0)
(-0.0885924 -0.294062 0)
(-0.104815 -0.29173 0)
(-0.119942 -0.289199 0)
(-0.135936 -0.285867 0)
(-0.157758 -0.279077 0)
(-0.176346 -0.271635 0)
(-0.198003 -0.263196 0)
(-0.21688 -0.242482 0)
(-0.234712 -0.216663 0)
(-0.252371 -0.19074 0)
(-0.2587 -0.158761 0)
(-0.260246 -0.135056 0)
(-0.262407 -0.111956 0)
(-0.263983 -0.0774316 0)
(-0.266073 -0.0582716 0)
(-0.0039538 -0.2628 0)
(-0.0129286 -0.276265 0)
(-0.0222762 -0.276167 0)
(-0.0318922 -0.276957 0)
(-0.0421161 -0.27771 0)
(-0.0531303 -0.277943 0)
(-0.0650949 -0.277837 0)
(-0.0780568 -0.277322 0)
(-0.0925027 -0.276525 0)
(-0.10744 -0.27518 0)
(-0.123227 -0.271717 0)
(-0.141548 -0.264844 0)
(-0.158296 -0.257665 0)
(-0.176962 -0.249517 0)
(-0.195081 -0.234864 0)
(-0.209306 -0.215904 0)
(-0.222675 -0.19515 0)
(-0.23147 -0.176321 0)
(-0.239129 -0.166518 0)
(-0.248533 -0.15008 0)
(-0.247133 -0.120707 0)
(-0.249744 -0.0888764 0)
(-0.247161 -0.0754346 0)
(-0.00363565 -0.257116 0)
(-0.0117709 -0.269913 0)
(-0.0204243 -0.269864 0)
(-0.0296341 -0.270277 0)
(-0.0395185 -0.27031 0)
(-0.0500682 -0.27002 0)
(-0.0612809 -0.269212 0)
(-0.0734823 -0.267907 0)
(-0.0870181 -0.266123 0)
(-0.102455 -0.263522 0)
(-0.118492 -0.259 0)
(-0.131356 -0.25367 0)
(-0.144773 -0.247468 0)
(-0.161516 -0.235177 0)
(-0.177869 -0.222594 0)
(-0.193011 -0.210695 0)
(-0.204016 -0.195064 0)
(-0.212219 -0.175323 0)
(-0.221672 -0.151475 0)
(-0.227919 -0.131969 0)
(-0.234218 -0.115532 0)
(-0.234304 -0.0906372 0)
(-0.228823 -0.0767918 0)
(-0.0039873 -0.246428 0)
(-0.0128577 -0.258482 0)
(-0.0218284 -0.25759 0)
(-0.0311982 -0.257309 0)
(-0.0410369 -0.2567 0)
(-0.0514394 -0.25569 0)
(-0.0624273 -0.254198 0)
(-0.074034 -0.25212 0)
(-0.0861358 -0.24919 0)
(-0.0981581 -0.245152 0)
(-0.109954 -0.241503 0)
(-0.123747 -0.236043 0)
(-0.138852 -0.225857 0)
(-0.151393 -0.217084 0)
(-0.162688 -0.205708 0)
(-0.176343 -0.19027 0)
(-0.190515 -0.173927 0)
(-0.199596 -0.158811 0)
(-0.205901 -0.14757 0)
(-0.208913 -0.137136 0)
(-0.214006 -0.115377 0)
(-0.216935 -0.0905016 0)
(-0.213737 -0.0802891 0)
(-0.00397584 -0.240744 0)
(-0.0126857 -0.252418 0)
(-0.0214623 -0.251673 0)
(-0.0303608 -0.25122 0)
(-0.0394405 -0.250355 0)
(-0.0486522 -0.24908 0)
(-0.058089 -0.247303 0)
(-0.0679192 -0.244949 0)
(-0.0784425 -0.241885 0)
(-0.0898475 -0.237686 0)
(-0.102765 -0.231635 0)
(-0.11642 -0.22391 0)
(-0.129348 -0.217119 0)
(-0.142756 -0.207396 0)
(-0.155148 -0.195958 0)
(-0.164197 -0.186294 0)
(-0.170272 -0.176319 0)
(-0.179482 -0.162007 0)
(-0.186363 -0.143579 0)
(-0.193929 -0.121234 0)
(-0.201382 -0.106625 0)
(-0.201098 -0.0959736 0)
(-0.19955 -0.0820891 0)
(-0.00381152 -0.229944 0)
(-0.012146 -0.241065 0)
(-0.0206355 -0.240041 0)
(-0.0293786 -0.239181 0)
(-0.0384795 -0.237863 0)
(-0.0480093 -0.236086 0)
(-0.0579827 -0.233787 0)
(-0.0683703 -0.23086 0)
(-0.0789585 -0.227086 0)
(-0.089475 -0.222234 0)
(-0.0993131 -0.216252 0)
(-0.108766 -0.21087 0)
(-0.11857 -0.203138 0)
(-0.128061 -0.194224 0)
(-0.13783 -0.184512 0)
(-0.148342 -0.171625 0)
(-0.160479 -0.156587 0)
(-0.170927 -0.143 0)
(-0.176625 -0.131843 0)
(-0.180207 -0.123796 0)
(-0.182001 -0.108633 0)
(-0.186536 -0.0920655 0)
(-0.188683 -0.0808836 0)
(-0.00367969 -0.225215 0)
(-0.0115908 -0.236007 0)
(-0.0196103 -0.234926 0)
(-0.0277285 -0.233922 0)
(-0.0360508 -0.232438 0)
(-0.0446143 -0.230465 0)
(-0.0535053 -0.227945 0)
(-0.0627697 -0.224812 0)
(-0.072398 -0.220999 0)
(-0.0822903 -0.216405 0)
(-0.0924218 -0.210559 0)
(-0.102752 -0.202638 0)
(-0.113276 -0.194496 0)
(-0.123678 -0.185884 0)
(-0.133597 -0.176296 0)
(-0.14172 -0.166428 0)
(-0.147874 -0.156913 0)
(-0.152865 -0.145274 0)
(-0.158814 -0.130542 0)
(-0.165334 -0.114661 0)
(-0.171066 -0.102299 0)
(-0.174386 -0.0909478 0)
(-0.17668 -0.0789696 0)
(-0.00353985 -0.214646 0)
(-0.0112543 -0.224912 0)
(-0.0190046 -0.223702 0)
(-0.026866 -0.222429 0)
(-0.0348651 -0.22064 0)
(-0.0429971 -0.218316 0)
(-0.0512512 -0.215399 0)
(-0.0596259 -0.211824 0)
(-0.0681444 -0.207518 0)
(-0.0768621 -0.202461 0)
(-0.0857383 -0.196924 0)
(-0.0945062 -0.191198 0)
(-0.102834 -0.184055 0)
(-0.1109 -0.175431 0)
(-0.118775 -0.16604 0)
(-0.126837 -0.155814 0)
(-0.135023 -0.144306 0)
(-0.143025 -0.132925 0)
(-0.149361 -0.12225 0)
(-0.153786 -0.111632 0)
(-0.157704 -0.0995873 0)
(-0.162193 -0.087318 0)
(-0.165711 -0.0758997 0)
(-0.00335212 -0.21006 0)
(-0.0104596 -0.22019 0)
(-0.017689 -0.219017 0)
(-0.0249606 -0.217743 0)
(-0.03239 -0.215949 0)
(-0.0399964 -0.213618 0)
(-0.0477974 -0.21069 0)
(-0.0557687 -0.207097 0)
(-0.0638332 -0.202756 0)
(-0.0718723 -0.197564 0)
(-0.0798474 -0.191384 0)
(-0.087908 -0.18426 0)
(-0.0960708 -0.176653 0)
(-0.104049 -0.168644 0)
(-0.111634 -0.159856 0)
(-0.118667 -0.150317 0)
(-0.125063 -0.140367 0)
(-0.130875 -0.129563 0)
(-0.136482 -0.117918 0)
(-0.1417 -0.106073 0)
(-0.146381 -0.0948339 0)
(-0.150841 -0.0837259 0)
(-0.154694 -0.0724492 0)
(-0.00311202 -0.201598 0)
(-0.00979701 -0.211183 0)
(-0.0165525 -0.209914 0)
(-0.0233384 -0.208409 0)
(-0.0302265 -0.206349 0)
(-0.0372118 -0.203736 0)
(-0.0442991 -0.200553 0)
(-0.0514909 -0.196785 0)
(-0.0587909 -0.192426 0)
(-0.0661868 -0.187471 0)
(-0.0735956 -0.181908 0)
(-0.0808746 -0.175667 0)
(-0.0879568 -0.168558 0)
(-0.0949012 -0.160562 0)
(-0.101702 -0.151907 0)
(-0.108264 -0.142675 0)
(-0.114541 -0.13284 0)
(-0.120483 -0.122664 0)
(-0.125894 -0.112219 0)
(-0.13067 -0.101499 0)
(-0.135094 -0.0905941 0)
(-0.139663 -0.0796472 0)
(-0.143855 -0.0686197 0)
(-0.00292723 -0.196473 0)
(-0.00907378 -0.205934 0)
(-0.0153246 -0.204715 0)
(-0.021576 -0.203214 0)
(-0.0279196 -0.20116 0)
(-0.0343454 -0.198539 0)
(-0.0408542 -0.195318 0)
(-0.0474322 -0.191462 0)
(-0.0540544 -0.186936 0)
(-0.0606921 -0.181713 0)
(-0.067327 -0.175791 0)
(-0.0739495 -0.169206 0)
(-0.0805143 -0.162034 0)
(-0.0869232 -0.1543 0)
(-0.0931072 -0.14595 0)
(-0.0990433 -0.137007 0)
(-0.104695 -0.127563 0)
(-0.110053 -0.117633 0)
(-0.115129 -0.107299 0)
(-0.119845 -0.0967258 0)
(-0.124257 -0.086121 0)
(-0.128749 -0.0754661 0)
(-0.133057 -0.0646008 0)
(-0.00266803 -0.19016 0)
(-0.00826974 -0.199269 0)
(-0.0139855 -0.198028 0)
(-0.0196815 -0.196416 0)
(-0.0254597 -0.194238 0)
(-0.0313055 -0.191496 0)
(-0.0372205 -0.188181 0)
(-0.0431968 -0.184283 0)
(-0.049218 -0.179795 0)
(-0.0552571 -0.174708 0)
(-0.0612768 -0.169007 0)
(-0.0672344 -0.162679 0)
(-0.0730985 -0.155705 0)
(-0.0788523 -0.148102 0)
(-0.0844667 -0.139925 0)
(-0.0898965 -0.131222 0)
(-0.0951151 -0.122034 0)
(-0.100109 -0.112433 0)
(-0.104865 -0.102469 0)
(-0.109347 -0.0922123 0)
(-0.113605 -0.0817845 0)
(-0.117961 -0.0712523 0)
(-0.122279 -0.0604945 0)
(-0.00243333 -0.185224 0)
(-0.00746727 -0.194146 0)
(-0.012638 -0.192929 0)
(-0.0177726 -0.191276 0)
(-0.0229839 -0.189056 0)
(-0.028249 -0.186264 0)
(-0.0335697 -0.182892 0)
(-0.0389372 -0.17893 0)
(-0.0443366 -0.174371 0)
(-0.0497483 -0.169211 0)
(-0.0551495 -0.163453 0)
(-0.0605146 -0.157107 0)
(-0.0658135 -0.150188 0)
(-0.0710121 -0.142714 0)
(-0.0760818 -0.134699 0)
(-0.0810039 -0.126172 0)
(-0.0857616 -0.117178 0)
(-0.0903499 -0.107761 0)
(-0.094776 -0.0979751 0)
(-0.0990207 -0.0878809 0)
(-0.103098 -0.0775744 0)
(-0.107255 -0.0671153 0)
(-0.111471 -0.0564082 0)
(-0.00216334 -0.180426 0)
(-0.00660932 -0.189113 0)
(-0.0112221 -0.187904 0)
(-0.0157813 -0.186189 0)
(-0.0204207 -0.183906 0)
(-0.02511 -0.181053 0)
(-0.0298537 -0.177628 0)
(-0.0346445 -0.173634 0)
(-0.039467 -0.169073 0)
(-0.0443006 -0.163944 0)
(-0.049122 -0.158247 0)
(-0.0539069 -0.151982 0)
(-0.0586336 -0.145157 0)
(-0.0632824 -0.137786 0)
(-0.0678355 -0.129895 0)
(-0.0722752 -0.121511 0)
(-0.0765911 -0.112671 0)
(-0.0807828 -0.103413 0)
(-0.0848598 -0.0937774 0)
(-0.0888204 -0.083807 0)
(-0.0926692 -0.0735699 0)
(-0.0965849 -0.0631314 0)
(-0.100621 -0.0524308 0)
(-0.00187852 -0.176379 0)
(-0.00572277 -0.184866 0)
(-0.00977355 -0.183669 0)
(-0.0137495 -0.1819 0)
(-0.0178105 -0.179564 0)
(-0.0219167 -0.176655 0)
(-0.0260776 -0.17317 0)
(-0.0302914 -0.169126 0)
(-0.034544 -0.16453 0)
(-0.0388158 -0.159388 0)
(-0.0430835 -0.1537 0)
(-0.0473243 -0.147469 0)
(-0.0515187 -0.140701 0)
(-0.0556501 -0.133411 0)
(-0.0597037 -0.125616 0)
(-0.0636709 -0.117339 0)
(-0.0675472 -0.108608 0)
(-0.0713344 -0.099456 0)
(-0.0750461 -0.0899146 0)
(-0.0786912 -0.0800166 0)
(-0.0822729 -0.0698106 0)
(-0.0859144 -0.0593564 0)
(-0.0897083 -0.0486261 0)
(-0.00155658 -0.172858 0)
(-0.00479386 -0.181109 0)
(-0.00829727 -0.17992 0)
(-0.0116859 -0.178097 0)
(-0.0151603 -0.175712 0)
(-0.0186701 -0.17275 0)
(-0.0222295 -0.169214 0)
(-0.0258517 -0.165132 0)
(-0.0295301 -0.160514 0)
(-0.0332508 -0.155364 0)
(-0.03699 -0.149689 0)
(-0.0407188 -0.14349 0)
(-0.0444141 -0.136771 0)
(-0.0480592 -0.129544 0)
(-0.0516405 -0.121821 0)
(-0.0551511 -0.113621 0)
(-0.058592 -0.104968 0)
(-0.0619693 -0.0958893 0)
(-0.0652976 -0.0864066 0)
(-0.0685959 -0.0765443 0)
(-0.0718736 -0.0663372 0)
(-0.0752141 -0.0558384 0)
(-0.0787238 -0.0450464 0)
(-0.00119458 -0.169962 0)
(-0.00385633 -0.17789 0)
(-0.00687831 -0.176714 0)
(-0.00970558 -0.174863 0)
(-0.0126017 -0.172458 0)
(-0.0155077 -0.169489 0)
(-0.0183898 -0.16593 0)
(-0.0212659 -0.161784 0)
(-0.0242047 -0.157085 0)
(-0.0272671 -0.151867 0)
(-0.0304747 -0.146168 0)
(-0.0337873 -0.140001 0)
(-0.0370689 -0.133326 0)
(-0.0403178 -0.126154 0)
(-0.0435079 -0.118497 0)
(-0.0466212 -0.110361 0)
(-0.0496614 -0.101769 0)
(-0.0526397 -0.09274 0)
(-0.0555753 -0.0832825 0)
(-0.0585002 -0.0734206 0)
(-0.0614397 -0.0631816 0)
(-0.0644547 -0.0526089 0)
(-0.0676469 -0.0417188 0)
(-0.000794904 -0.167822 0)
(-0.00301236 -0.175251 0)
(-0.00575182 -0.174102 0)
(-0.00814682 -0.172264 0)
(-0.0105811 -0.16988 0)
(-0.0129629 -0.166941 0)
(-0.015179 -0.163355 0)
(-0.0173141 -0.15916 0)
(-0.0193841 -0.154348 0)
(-0.0214313 -0.148943 0)
(-0.0235582 -0.143004 0)
(-0.0259278 -0.136623 0)
(-0.0286479 -0.129872 0)
(-0.0315966 -0.122732 0)
(-0.0346719 -0.11521 0)
(-0.0377194 -0.107284 0)
(-0.0405322 -0.0988693 0)
(-0.0432108 -0.0899574 0)
(-0.0458021 -0.0805495 0)
(-0.0483567 -0.0706787 0)
(-0.0509355 -0.060383 0)
(-0.053598 -0.0497212 0)
(-0.0564587 -0.0387171 0)
(-0.000437486 -0.166619 0)
(-0.00251982 -0.173273 0)
(-0.00534164 -0.172173 0)
(-0.00761566 -0.170407 0)
(-0.00990135 -0.168065 0)
(-0.01206 -0.165163 0)
(-0.0142223 -0.16174 0)
(-0.0162753 -0.157696 0)
(-0.0181719 -0.153017 0)
(-0.0198589 -0.147688 0)
(-0.0212891 -0.141692 0)
(-0.0225117 -0.135102 0)
(-0.0236438 -0.128008 0)
(-0.0248249 -0.120486 0)
(-0.0262276 -0.112558 0)
(-0.0280203 -0.104301 0)
(-0.0303748 -0.0957971 0)
(-0.0330187 -0.0870162 0)
(-0.0356657 -0.0778883 0)
(-0.0380149 -0.0682191 0)
(-0.0402969 -0.0579126 0)
(-0.0426327 -0.0469872 0)
(-0.045129 -0.0356941 0)
(-0.000350033 -0.165231 0)
(-0.0027392 -0.170644 0)
(-0.00599952 -0.169635 0)
(-0.00858685 -0.168041 0)
(-0.0111554 -0.165847 0)
(-0.0134623 -0.162992 0)
(-0.0156837 -0.159623 0)
(-0.0176926 -0.155726 0)
(-0.0194641 -0.151285 0)
(-0.0209783 -0.146283 0)
(-0.0222154 -0.140684 0)
(-0.023064 -0.134402 0)
(-0.0236119 -0.127517 0)
(-0.0239376 -0.12004 0)
(-0.0240787 -0.112034 0)
(-0.024106 -0.10352 0)
(-0.0241113 -0.0945513 0)
(-0.0243234 -0.0851903 0)
(-0.0251517 -0.0755117 0)
(-0.026809 -0.0656864 0)
(-0.0288411 -0.0557033 0)
(-0.0310918 -0.0452843 0)
(-0.0336077 -0.0339329 0)
(-0.000702705 -0.161568 0)
(-0.00363608 -0.164927 0)
(-0.00731941 -0.164064 0)
(-0.010427 -0.162762 0)
(-0.0135163 -0.160905 0)
(-0.0163376 -0.158552 0)
(-0.0188082 -0.155635 0)
(-0.0209881 -0.152196 0)
(-0.0228564 -0.148232 0)
(-0.0243889 -0.143743 0)
(-0.0255558 -0.138737 0)
(-0.0263441 -0.133199 0)
(-0.0266543 -0.127017 0)
(-0.0265228 -0.120192 0)
(-0.0259799 -0.112699 0)
(-0.0250685 -0.104522 0)
(-0.0238817 -0.0956443 0)
(-0.0225464 -0.0860685 0)
(-0.0211034 -0.0758207 0)
(-0.019837 -0.0648838 0)
(-0.0192343 -0.0533449 0)
(-0.0196419 -0.0414685 0)
(-0.0215072 -0.0297645 0)
(-0.000839356 -0.15951 0)
(-0.00385185 -0.161615 0)
(-0.00754032 -0.160822 0)
(-0.0106944 -0.159661 0)
(-0.0138352 -0.157992 0)
(-0.0167588 -0.155847 0)
(-0.0194476 -0.153215 0)
(-0.0218553 -0.150087 0)
(-0.0239558 -0.146459 0)
(-0.0257199 -0.142323 0)
(-0.0271201 -0.137667 0)
(-0.0281311 -0.132479 0)
(-0.0287022 -0.126738 0)
(-0.0287659 -0.120422 0)
(-0.0283036 -0.113513 0)
(-0.0273348 -0.105987 0)
(-0.0258735 -0.0978073 0)
(-0.0239501 -0.0889365 0)
(-0.0216256 -0.0793185 0)
(-0.0190008 -0.0688769 0)
(-0.0162408 -0.0574655 0)
(-0.0136468 -0.0448992 0)
(-0.0116535 -0.0310738 0)
)
;

boundaryField
{
    leftWall
    {
        type            fixedValue;
        value           uniform (0 0 0);
    }
    rightWall
    {
        type            fixedValue;
        value           nonuniform 0();
    }
    lowerWall
    {
        type            fixedValue;
        value           nonuniform 0();
    }
    atmosphere
    {
        type            fluxCorrectedVelocity;
        value           nonuniform List<vector> 
23
(
(-0.000839356 -0.159486 0)
(-0.00385185 -0.161579 0)
(-0.00754032 -0.160787 0)
(-0.0106944 -0.159627 0)
(-0.0138352 -0.15796 0)
(-0.0167588 -0.155817 0)
(-0.0194476 -0.153189 0)
(-0.0218553 -0.150064 0)
(-0.0239558 -0.146438 0)
(-0.0257199 -0.142304 0)
(-0.0271201 -0.137651 0)
(-0.0281311 -0.132465 0)
(-0.0287022 -0.126726 0)
(-0.0287659 -0.12041 0)
(-0.0283036 -0.113502 0)
(-0.0273348 -0.105975 0)
(-0.0258735 -0.0977971 0)
(-0.0239501 -0.0889276 0)
(-0.0216256 -0.0793112 0)
(-0.0190008 -0.0688707 0)
(-0.0162408 -0.0574596 0)
(-0.0136468 -0.0448929 0)
(-0.0116535 -0.031066 0)
)
;
    }
    defaultFaces
    {
        type            empty;
    }
    procBoundary2to0
    {
        type            processor;
        value           nonuniform List<vector> 
24
(
(-0.366216 -0.245184 0)
(-0.392032 -0.147265 0)
(-0.405784 -0.0635259 0)
(-0.404734 0.00655214 0)
(-0.388138 0.0434076 0)
(-0.392163 0.0614685 0)
(-0.416655 0.0621157 0)
(0.000628195 -0.289524 0)
(-0.000482539 -0.308632 0)
(-0.00464277 -0.314846 0)
(-0.015991 -0.32087 0)
(-0.0296178 -0.323928 0)
(-0.046118 -0.326921 0)
(-0.0636811 -0.329489 0)
(-0.0803846 -0.330787 0)
(-0.0933203 -0.334432 0)
(-0.104566 -0.344669 0)
(-0.123749 -0.357738 0)
(-0.162287 -0.376715 0)
(-0.215191 -0.37979 0)
(-0.273384 -0.387543 0)
(-0.32822 -0.387702 0)
(-0.384507 -0.345208 0)
(-0.384507 -0.345208 0)
)
;
    }
    procBoundary2to3
    {
        type            processor;
        value           nonuniform List<vector> 
25
(
(-0.274885 -0.0571448 0)
(-0.303619 -0.020996 0)
(-0.266021 -0.063917 0)
(-0.261464 -0.0546695 0)
(-0.240028 -0.07242 0)
(-0.224285 -0.0759403 0)
(-0.209376 -0.0785208 0)
(-0.199191 -0.0765615 0)
(-0.188138 -0.0750791 0)
(-0.178024 -0.0718288 0)
(-0.167448 -0.0684757 0)
(-0.156938 -0.0646747 0)
(-0.146361 -0.0607102 0)
(-0.135723 -0.0566212 0)
(-0.125021 -0.0524762 0)
(-0.114214 -0.0483569 0)
(-0.10331 -0.0443445 0)
(-0.0922933 -0.0404972 0)
(-0.0811799 -0.0368613 0)
(-0.0699438 -0.0334635 0)
(-0.0585877 -0.0303669 0)
(-0.0470642 -0.0272701 0)
(-0.0355174 -0.0251508 0)
(-0.0230351 -0.0213574 0)
(-0.0115062 -0.0208765 0)
)
;
    }
}


// ************************************************************************* //
