/*--------------------------------*- C++ -*----------------------------------*\
| =========                 |                                                 |
| \\      /  F ield         | OpenFOAM: The Open Source CFD Toolbox           |
|  \\    /   O peration     | Version:  2.4.0                                 |
|   \\  /    A nd           | Web:      www.OpenFOAM.org                      |
|    \\/     M anipulation  |                                                 |
\*---------------------------------------------------------------------------*/
FoamFile
{
    version     2.0;
    format      ascii;
    class       volScalarField;
    location    "0.8";
    object      alphas;
}
// * * * * * * * * * * * * * * * * * * * * * * * * * * * * * * * * * * * * * //

dimensions      [0 0 0 0 0 0 0];

internalField   nonuniform List<scalar> 
559
(
1.99999
1.99999
1.99999
1.99999
1.99998
1.99341
1.73296
0.679241
1.86589
1.86043
1.86057
1.86242
1.86679
1.87761
1.87862
1.87959
1.88043
1.88057
1.8806
1.88122
1.88233
1.88305
1.88319
1.88335
1.88341
1.88317
1.88304
1.86154
1.42097
1.1895
1.1516
1.18823
1.24075
1.30763
1.39197
1.45871
1.46905
1.45434
1.47155
1.53845
1.65099
1.80289
1.88342
1.88342
1.88315
1.88278
1.35909
0.643976
0.387536
0.346293
0.344561
0.338592
0.323833
0.30942
0.308654
0.316851
0.334925
0.415492
0.608188
0.911343
1.39072
1.83016
1.88341
1.88323
1.8827
0.385002
0.333658
0.307189
0.312992
0.31467
0.310454
0.295065
0.253496
0.218106
0.217006
0.222415
0.285105
0.473101
0.758654
1.1837
1.74357
1.88342
1.88331
1.88015
0.359952
0.327547
0.312332
0.305345
0.285536
0.257789
0.239405
0.232495
0.22238
0.221861
0.260613
0.334142
0.51966
0.819497
1.19757
1.68683
1.88281
1.88316
1.88272
0.534759
0.510555
0.548021
0.543404
0.49825
0.395625
0.257133
0.188456
0.188903
0.247594
0.405226
0.420227
0.494983
0.804361
1.19566
1.6423
1.88126
1.87929
1.86957
1.19062
0.896204
0.872528
0.871687
0.840931
0.73617
0.496504
0.261001
0.218926
0.345646
0.345764
0.426108
0.445215
0.756597
1.15966
1.61733
1.86775
1.87518
1.73503
1.34959
1.34925
1.00062
0.970063
0.964338
0.935731
0.819436
0.517697
0.270657
0.19801
0.21009
0.291316
0.406678
0.697249
1.07847
1.35736
1.6717
1.77726
1.22883
0.140028
0.0773591
0.323605
0.805748
1.05179
1.79726
2.80665
2.98769
0.33842
0.412859
0.506732
0.632325
0.0950789
0.46875
1.24389
1.4982
0.926366
1.32767
1.45681
1.11744
1.00062
1.01967
1.01453
1.01449
1.06674
1.05802
1.05779
1.1812
2.35634
2.17181
2.07662
2.3447
2.98854
2.9913
2.99455
2.94421
2.99999
3
2.99991
2.98551
3
3
3
3
3
3
3
3
3
3
3
3
3
3
3
3
3
3
3
3
3
3
3
3
3
3
3
3
3
3
3
3
3
3
3
3
1.43775
1.35473
1.00929
0.99171
0.991456
0.986277
0.962647
0.868843
0.571555
0.263464
0.189199
0.22728
0.37128
0.606889
0.908159
1.03576
1.09592
1.06797
0.979016
1.33594
1.03695
1.01053
1.01166
1.01774
1.02045
1.01513
1.00151
0.908322
0.616777
0.317167
0.310101
0.395073
0.579079
0.825078
0.954907
0.987571
0.964481
0.915497
1.03796
1.03809
1.0859
1.13618
1.09905
1.05831
1.04572
1.03025
1.00732
0.839056
0.520829
0.396779
0.447748
0.587962
0.789016
0.930321
0.982151
0.963924
0.820488
1.06228
1.50282
2.22248
2.43962
2.31711
2.05817
1.7893
1.39228
1.1667
1.1257
0.762386
0.496262
0.471538
0.598462
0.793685
0.927735
0.975305
0.95454
0.725009
1.97063
2.87064
2.97628
2.97633
2.97633
2.97634
2.9707
2.65815
1.56824
1.17536
0.867332
0.569361
0.491939
0.624007
0.821523
0.936054
0.95983
0.869259
0.632011
2.6325
2.89494
2.91475
2.97288
2.97631
2.97633
2.97633
2.95541
2.29538
1.11361
0.865109
0.652011
0.573446
0.731145
0.872193
0.924877
0.884719
0.683111
0.567511
2.39536
1.68736
2.19117
2.7255
2.96675
2.97633
2.97633
2.97531
2.61424
1.32835
0.87569
0.866407
1.18341
0.977281
0.869342
0.860647
0.69539
0.524089
0.549252
2.54286
1.62853
1.62091
1.87486
2.72113
2.9732
2.97617
2.89207
2.2507
1.27811
0.912844
1.07057
1.47049
1.50761
1.45776
0.857532
0.551
0.532601
0.551284
2.96526
2.49481
1.62132
1.61922
1.89937
2.70492
2.81531
2.1987
1.31203
1.07011
0.900591
0.907609
1.20696
1.26852
0.997418
0.686157
0.563439
0.528564
0.584433
2.99959
2.96741
2.52748
1.64877
1.58626
1.6043
1.77729
1.35816
1.14526
1.03298
0.904753
0.857787
0.736073
0.681745
0.621519
0.610752
0.567205
0.571011
0.625709
3
2.99976
2.98166
2.64292
1.59174
1.20044
1.17746
1.17179
1.13392
1.07199
1.04797
1.23041
1.55773
1.53197
0.956308
0.632941
0.610129
0.614623
0.620416
3
3
2.99987
2.98785
2.77249
2.16586
1.88958
1.87089
1.60986
1.25233
1.1154
1.51606
2.06138
2.06111
1.77848
0.736142
0.640143
0.656528
0.679865
3
3
3
2.99993
2.99688
2.97143
2.92717
2.90555
2.85448
2.49292
1.78299
1.27506
1.03744
1.03684
1.14883
0.866908
0.773325
0.832166
0.902946
3
3
3
3
2.99999
2.99998
2.99998
2.99995
2.99981
2.99631
2.90285
2.30462
1.55487
1.23593
1.11655
1.02677
0.9883
1.05364
1.12429
3
3
3
3
3
3
3
3
3
3
2.9999
2.99636
2.94556
2.69352
2.3144
2.04662
1.51508
1.1388
1.05125
3
3
2.99999
3
3
3
3
3
3
3
3
3
2.99999
2.99949
2.99198
2.9536
2.52127
1.29348
1.02848
3
2.99999
2.99999
3
3
3
3
3
3
3
3
3
3
2.99996
2.99805
2.97811
2.89809
2.20709
1.14269
)
;

boundaryField
{
    leftWall
    {
        type            zeroGradient;
    }
    rightWall
    {
        type            zeroGradient;
    }
    lowerWall
    {
        type            zeroGradient;
    }
    atmosphere
    {
        type            zeroGradient;
    }
    defaultFaces
    {
        type            empty;
    }
    procBoundary1to0
    {
        type            processor;
        value           nonuniform List<scalar> 
26
(
1.99999
1.99999
2
2
1.99999
1.99761
1.84616
0.776695
0.064268
0.0541472
0.251045
0.650898
0.964299
1.10192
1.50739
2.15656
2.9992
2.9992
2.9999
2.99999
3
3
3
3
3
3
)
;
    }
    procBoundary1to3
    {
        type            processor;
        value           nonuniform List<scalar> 
23
(
3
3
3
3
2.99999
2.99999
2.99999
3
3
3
3
3
3
3
3
3
3
2.99968
2.98949
2.97249
2.9844
2.88394
2.17638
)
;
    }
}


// ************************************************************************* //
