/*--------------------------------*- C++ -*----------------------------------*\
| =========                 |                                                 |
| \\      /  F ield         | OpenFOAM: The Open Source CFD Toolbox           |
|  \\    /   O peration     | Version:  2.4.0                                 |
|   \\  /    A nd           | Web:      www.OpenFOAM.org                      |
|    \\/     M anipulation  |                                                 |
\*---------------------------------------------------------------------------*/
FoamFile
{
    version     2.0;
    format      ascii;
    class       volScalarField;
    location    "0.8";
    object      alpha.air;
}
// * * * * * * * * * * * * * * * * * * * * * * * * * * * * * * * * * * * * * //

dimensions      [0 0 0 0 0 0 0];

internalField   nonuniform List<scalar> 
559
(
7.6026e-15
3.92393e-14
2.50215e-13
1.89931e-12
8.29713e-12
3.58109e-10
6.19688e-08
9.68722e-07
5.9101e-06
1.23089e-05
3.1752e-05
4.17489e-05
3.25281e-05
2.63712e-05
2.84002e-05
1.41313e-05
7.45989e-06
6.36446e-06
1.31035e-05
1.23518e-05
9.1707e-06
1.68071e-06
1.30401e-06
4.58187e-05
7.57115e-05
1.6698e-05
1.24531e-05
7.43623e-06
5.44424e-05
9.80263e-05
0.000158538
0.000560024
0.00160629
0.00258867
0.00264481
0.00180235
0.0016022
0.0012992
0.00104464
0.00104047
0.000787208
0.000148674
7.31886e-05
4.99799e-05
2.12549e-05
1.66263e-05
5.87134e-05
7.39267e-05
6.20369e-05
6.20274e-05
6.20252e-05
6.86466e-05
0.000869694
0.00320834
0.00372985
0.00371756
0.00119007
0.000493719
0.000897542
0.00125737
0.000802527
9.61063e-05
1.51852e-05
1.20089e-05
1.65713e-05
6.54876e-05
6.22144e-05
6.20274e-05
6.20252e-05
6.20255e-05
6.20233e-05
0.000338334
0.00108616
0.000681028
0.000239279
0.000198105
9.63726e-05
9.65833e-05
0.00015243
0.000164325
3.17712e-05
1.20042e-05
1.20019e-05
2.41315e-05
0.000461818
7.73843e-05
6.20328e-05
6.20279e-05
6.5356e-05
6.20236e-05
7.09755e-05
0.000288982
0.000535048
0.000937217
0.00371764
0.000869495
0.000100959
1.47086e-05
1.47697e-05
2.49375e-05
1.2001e-05
1.20017e-05
2.64405e-05
0.03569
0.0035459
0.000614647
0.000271252
9.4402e-05
6.31996e-05
6.33265e-05
7.2016e-05
0.00057035
0.0230313
0.063806
0.0348198
0.00107589
1.6057e-05
2.50318e-05
0.000119349
2.50922e-05
1.20018e-05
4.42451e-05
0.263667
0.0616053
0.00881754
0.000765204
6.61162e-05
6.33265e-05
6.34541e-05
0.000248935
0.0155893
0.0641689
0.0641768
0.0641716
0.00455529
4.61187e-05
9.19811e-05
0.000555601
3.11053e-05
1.20017e-05
4.17976e-05
0.310378
0.201363
0.0165711
0.000467881
6.35843e-05
6.34525e-05
6.35827e-05
0.000322423
0.0140496
0.0130619
0.0190139
0.0409776
0.0206344
0.000402405
0.000247294
0.000681127
0.000228535
1.20028e-05
4.80297e-05
1.00138e-05
0.000251084
0.0289705
0.035458
0.0499376
0.401328
0.903503
0.993855
0.000125719
0.00414207
0.0219734
0.0438799
0.0021881
0.0848651
0.266004
0.266001
0.218346
0.254299
0.243225
0.0633649
0.0374452
0.0190004
0.013238
0.0132188
0.0380621
0.0338701
0.0348672
0.096568
0.678534
0.587919
0.543632
0.678332
0.994276
0.995669
0.997315
0.972602
0.999992
0.999998
0.999956
0.992753
1
1
1
1
1
1
1
1
1
1
1
1
1
1
1
1
1
1
1
1
1
1
1
1
1
1
1
1
1
1
1
1
1
1
0.999999
0.999999
0.310376
0.184501
0.00953146
0.00164721
0.00156365
0.00129171
0.00125562
0.00124335
0.000954763
0.000703915
0.00125781
0.00730148
0.0206236
0.00356229
0.000544916
0.000682197
0.00247158
0.00302488
0.000903076
0.17138
0.021503
0.00828757
0.00829654
0.0103271
0.0112311
0.00945705
0.00570571
0.00107702
0.000615084
0.000614739
0.00204447
0.00884974
0.00489316
0.000448921
0.000106348
0.000336839
0.00302234
0.00640814
0.0237313
0.0238238
0.0469225
0.069601
0.0502202
0.0295105
0.0230425
0.0153154
0.0105032
0.0226505
0.00997584
0.000535125
0.00058734
0.00146861
0.000233637
7.72031e-06
0.0002442
0.00302484
0.000752357
0.0371225
0.256369
0.612073
0.719951
0.658649
0.529162
0.394704
0.196206
0.0852324
0.102245
0.0103446
0.000160207
1.09059e-05
6.80256e-05
2.52944e-05
1.31574e-06
7.33353e-05
0.000961412
0.000647526
0.491299
0.936354
0.988157
0.988175
0.988178
0.988179
0.985362
0.829087
0.284666
0.101968
0.00408501
3.09305e-05
5.88026e-06
2.99881e-06
1.28589e-06
1.28487e-06
1.16322e-05
0.00011232
0.000677774
0.82175
0.948786
0.95859
0.986687
0.98817
0.988178
0.988177
0.977723
0.649479
0.0814519
0.00205334
0.00124189
0.00274782
0.000615455
4.7879e-06
4.13994e-06
1.64794e-05
0.000133225
0.000673243
0.702472
0.35395
0.604151
0.865626
0.983557
0.988174
0.988177
0.987689
0.809942
0.19677
0.018646
0.0764221
0.2261
0.0778144
0.00177999
0.0011771
0.00106852
0.00272767
0.00139345
0.773719
0.324558
0.322172
0.447988
0.863412
0.986753
0.988123
0.946374
0.631049
0.175066
0.0384743
0.155521
0.332588
0.332561
0.297311
0.0796665
0.0203047
0.0153076
0.00151586
0.982803
0.750846
0.322388
0.322172
0.461133
0.856579
0.910111
0.605805
0.174116
0.077277
0.0220906
0.0712947
0.241587
0.271608
0.181225
0.0596624
0.0258016
0.0117967
0.00127413
0.999798
0.983879
0.767077
0.336976
0.307865
0.319965
0.405647
0.199536
0.102254
0.0648087
0.0221418
0.0222316
0.0222966
0.0238861
0.00630664
0.00283286
0.00135422
0.00127401
0.00127396
0.999999
0.99988
0.990924
0.823823
0.308638
0.12074
0.113037
0.111118
0.0984658
0.0777946
0.0697913
0.165943
0.336248
0.344922
0.122934
0.0094962
0.00127391
0.00127384
0.00127398
0.999999
0.999999
0.999938
0.993997
0.887568
0.588426
0.453509
0.445039
0.315968
0.146839
0.0928965
0.302461
0.567022
0.566876
0.468921
0.0464731
0.00127376
0.00132946
0.00300988
1
0.999999
0.999999
0.999966
0.998461
0.98585
0.963905
0.953199
0.927807
0.749304
0.405796
0.178592
0.0901693
0.0900277
0.158389
0.0463691
0.00557025
0.0153606
0.0369162
1
0.999999
0.999998
0.999998
0.999994
0.999992
0.999989
0.999977
0.999904
0.998167
0.951997
0.658509
0.298864
0.161774
0.113278
0.0723922
0.0420922
0.0562686
0.0859175
1
0.999999
0.999998
0.999998
0.999999
1
1
1
1
1
0.99995
0.998199
0.973171
0.849416
0.66382
0.531283
0.262245
0.071855
0.0275762
0.999999
0.999998
0.999998
0.999998
0.999999
1
1
1
1
1
1
1
0.999997
0.999751
0.996028
0.976847
0.760669
0.146773
0.0142791
0.999999
0.999998
0.999998
0.999998
0.999999
0.999999
1
1
1
1
1
1
1
0.999979
0.999025
0.989052
0.949045
0.603545
0.0713434
)
;

boundaryField
{
    leftWall
    {
        type            alphaContactAngle;
        thetaProperties 
6
(

(
water
mercury
)
 90 0 0 0

(
water
air
)
 90 0 0 0

(
water
oil
)
 90 0 0 0

(
mercury
air
)
 90 0 0 0

(
oil
mercury
)
 90 0 0 0

(
oil
air
)
 90 0 0 0
);
        value           nonuniform 0();
    }
    rightWall
    {
        type            alphaContactAngle;
        thetaProperties 
6
(

(
water
mercury
)
 90 0 0 0

(
water
air
)
 90 0 0 0

(
water
oil
)
 90 0 0 0

(
mercury
air
)
 90 0 0 0

(
oil
mercury
)
 90 0 0 0

(
oil
air
)
 90 0 0 0
);
        value           nonuniform List<scalar> 
25
(
1.24531e-05
1.66263e-05
1.65713e-05
2.41315e-05
2.64405e-05
4.42451e-05
4.17976e-05
4.80297e-05
0.000903076
0.00640814
0.000752357
0.000647526
0.000677774
0.000673243
0.00139345
0.00151586
0.00127413
0.00127396
0.00127398
0.00300988
0.0369162
0.0859175
0.0275762
0.0142791
0.0713434
)
;
    }
    lowerWall
    {
        type            alphaContactAngle;
        thetaProperties 
6
(

(
water
mercury
)
 90 0 0 0

(
water
air
)
 90 0 0 0

(
water
oil
)
 90 0 0 0

(
mercury
air
)
 90 0 0 0

(
oil
mercury
)
 90 0 0 0

(
oil
air
)
 90 0 0 0
);
        value           nonuniform List<scalar> 
40
(
7.6026e-15
7.6026e-15
3.92393e-14
2.50215e-13
1.89931e-12
8.29713e-12
3.58109e-10
6.19688e-08
9.68722e-07
0.000125719
0.00414207
0.0219734
0.0438799
5.9101e-06
7.43623e-06
5.87134e-05
6.54876e-05
0.000461818
0.03569
0.263667
0.310378
5.9101e-06
1.23089e-05
3.1752e-05
4.17489e-05
3.25281e-05
2.63712e-05
2.84002e-05
1.41313e-05
7.45989e-06
6.36446e-06
1.31035e-05
1.23518e-05
9.1707e-06
1.68071e-06
1.30401e-06
4.58187e-05
7.57115e-05
1.6698e-05
1.24531e-05
)
;
    }
    atmosphere
    {
        type            inletOutlet;
        inletValue      nonuniform 0();
        value           nonuniform 0();
    }
    defaultFaces
    {
        type            empty;
    }
    procBoundary1to0
    {
        type            processor;
        value           nonuniform List<scalar> 
26
(
4.69456e-15
4.13646e-14
2.70473e-13
1.88308e-12
7.29715e-12
3.31221e-10
2.08656e-08
3.59325e-07
2.91995e-06
1.43127e-05
0.000652638
0.00795305
0.0326728
0.0657927
0.25893
0.579544
0.999599
0.999599
0.999949
0.999996
1
1
1
1
1
1
)
;
    }
    procBoundary1to3
    {
        type            processor;
        value           nonuniform List<scalar> 
23
(
0.999999
0.999999
0.999999
0.999999
0.999998
0.999998
0.999998
0.999998
0.999999
0.999999
0.999999
1
1
1
1
1
1
0.999838
0.994742
0.986243
0.992201
0.94197
0.588189
)
;
    }
}


// ************************************************************************* //
