/*--------------------------------*- C++ -*----------------------------------*\
| =========                 |                                                 |
| \\      /  F ield         | OpenFOAM: The Open Source CFD Toolbox           |
|  \\    /   O peration     | Version:  2.4.0                                 |
|   \\  /    A nd           | Web:      www.OpenFOAM.org                      |
|    \\/     M anipulation  |                                                 |
\*---------------------------------------------------------------------------*/
FoamFile
{
    version     2.0;
    format      ascii;
    class       volScalarField;
    location    "0.8";
    object      alpha.water;
}
// * * * * * * * * * * * * * * * * * * * * * * * * * * * * * * * * * * * * * //

dimensions      [0 0 0 0 0 0 0];

internalField   nonuniform List<scalar> 
559
(
3.50162e-10
1.16511e-09
4.71849e-09
1.34827e-08
6.25095e-06
0.00328968
0.133392
0.656867
0.000493042
0.00595743
0.00597153
0.00505219
0.0035436
0.0025733
0.00208228
0.0016296
0.00123021
0.00119419
0.00119502
0.000923487
0.000390797
5.69977e-05
8.47014e-06
3.90669e-06
2.06018e-05
0.000105274
0.00017146
0.00471537
0.131687
0.191308
0.201556
0.183387
0.164264
0.160884
0.154511
0.137424
0.131713
0.129453
0.105412
0.0692327
0.0199717
0.00164131
3.36827e-05
2.59643e-05
0.000144525
0.00032027
0.228198
0.524626
0.641642
0.65806
0.656352
0.661833
0.678223
0.697617
0.700402
0.693162
0.670232
0.58788
0.396009
0.186328
0.0213198
0.000470328
3.37872e-05
0.000128059
0.000345699
0.678211
0.698117
0.698155
0.687472
0.685494
0.689712
0.705655
0.74872
0.7833
0.783519
0.778029
0.715136
0.527236
0.262345
0.0269922
0.000748774
5.52345e-05
0.000132091
0.000417589
0.67716
0.689522
0.689602
0.694895
0.714634
0.742382
0.760794
0.768144
0.778759
0.780095
0.746904
0.667677
0.48088
0.211353
0.0203087
0.00072313
6.6232e-05
0.000142437
0.00033564
0.57393
0.50708
0.453602
0.457184
0.501979
0.604543
0.743039
0.811734
0.812284
0.798536
0.72246
0.64949
0.507507
0.223399
0.0170394
0.00074233
9.80266e-05
0.000160655
0.000365519
0.366958
0.233316
0.145226
0.129889
0.159241
0.263995
0.503663
0.739536
0.812287
0.782726
0.782656
0.702319
0.564082
0.259328
0.0193509
0.00103571
0.000192617
0.00020236
0.0012078
0.311604
0.0562243
0.0325918
0.0309182
0.0358292
0.0644356
0.18073
0.482987
0.757478
0.82815
0.827978
0.790692
0.634687
0.310418
0.0365134
0.0036621
0.00298065
0.00159241
0.0103532
0.908683
0.923165
0.734346
0.265199
0.0481207
0.00540592
0.000357708
2.08361e-05
0.807703
0.765978
0.70642
0.611579
0.90932
0.701022
0.288168
0.0338414
0.51035
0.180957
0.0296721
0.00932887
0.0743296
0.0183891
0.012011
0.0120147
0.00942992
0.00977385
0.0120039
0.0119985
0.000741105
0.00404942
0.0106694
0.0119895
8.88769e-06
3.98818e-05
7.99019e-05
0.000992623
2.08517e-08
2.59838e-08
2.07504e-08
1.80388e-08
9.75448e-09
1.00084e-08
1.3597e-08
1.8048e-08
9.78608e-09
1.08138e-08
1.18668e-08
1.08092e-08
1.53207e-08
1.01563e-08
7.9306e-09
7.92979e-09
2.04196e-08
1.78235e-08
9.07104e-09
9.24006e-09
1.40963e-08
4.56904e-08
5.42579e-08
4.56687e-08
9.63412e-09
4.99256e-08
7.87587e-08
7.88196e-08
1.61977e-08
5.51578e-08
7.87799e-08
7.8835e-08
1.5706e-08
3.45857e-08
4.53111e-08
2.9399e-08
7.70324e-09
1.05867e-08
1.00118e-08
7.37888e-09
0.22589
0.0146876
0.0098181
0.011634
0.0117202
0.016349
0.039904
0.133682
0.43039
0.737975
0.813353
0.787368
0.670058
0.403315
0.12189
0.0204128
0.017998
0.037692
0.0544943
0.00685886
0.00609385
0.00608756
0.0049865
0.00295919
0.0020589
0.00383147
0.0099455
0.093866
0.384484
0.684094
0.694025
0.622681
0.431206
0.178355
0.0491308
0.0179685
0.0450733
0.104269
0.00955159
0.00961102
0.00799277
0.00305087
0.00141517
0.00073908
0.000397457
0.000406538
0.0137175
0.206281
0.499157
0.604328
0.553472
0.415045
0.211603
0.069867
0.0206275
0.043438
0.187243
0.0120282
0.00996606
0.00167898
0.000289952
0.000193592
0.000163701
0.000114287
0.000146095
0.00378829
0.0788212
0.25834
0.504096
0.528526
0.401725
0.206426
0.0723242
0.0253155
0.0476618
0.283979
0.0120109
0.00207354
4.08796e-05
2.32562e-05
2.32178e-05
2.32127e-05
2.32176e-05
2.39128e-05
0.00110647
0.028602
0.140872
0.430737
0.508112
0.376044
0.17854
0.0640051
0.0402865
0.131149
0.380833
0.0110148
0.00264179
0.00244025
0.000501455
2.81308e-05
2.32176e-05
2.32135e-05
3.91167e-05
0.00358002
0.0493104
0.139027
0.350505
0.432084
0.270128
0.127875
0.075186
0.115363
0.317923
0.449962
0.00960259
0.0205941
0.0171834
0.00577294
0.000367698
2.40972e-05
2.32694e-05
7.05937e-05
0.00564382
0.0652072
0.161631
0.286471
0.268827
0.178385
0.134267
0.141758
0.306796
0.482841
0.474042
0.00459481
0.02065
0.0235
0.0211793
0.0057065
0.000305289
7.49049e-05
0.000682169
0.0114006
0.0720402
0.164134
0.240503
0.194721
0.157549
0.136894
0.301841
0.489694
0.499958
0.474535
0.000346402
0.00690217
0.0235266
0.0251939
0.0229649
0.00826394
0.00493094
0.0129636
0.0362702
0.0845004
0.143626
0.235015
0.27625
0.274731
0.365075
0.433214
0.48862
0.500046
0.441111
4.01124e-06
0.000353128
0.00669636
0.0252524
0.0295544
0.0357363
0.0341195
0.0410667
0.0594317
0.0968202
0.139658
0.18673
0.308557
0.366066
0.391144
0.395093
0.436666
0.436222
0.394087
1.67687e-08
2.55688e-06
0.000191611
0.00473997
0.0256052
0.0411609
0.048774
0.0506364
0.0632254
0.0838395
0.09185
0.101646
0.11482
0.157923
0.289676
0.386706
0.393981
0.39215
0.392172
9.07346e-09
1.36242e-08
1.94209e-06
0.000141829
0.00265376
0.0110274
0.0174928
0.0192555
0.0221596
0.0414994
0.0706135
0.0891428
0.0728778
0.072914
0.159987
0.358489
0.365273
0.351848
0.335915
1.25602e-08
4.12252e-09
1.72343e-08
1.96804e-06
4.24496e-05
0.000268714
0.000647314
0.000851505
0.00114161
0.0057027
0.0286563
0.0824032
0.143566
0.143983
0.169127
0.228096
0.24147
0.205569
0.180669
3.16737e-08
7.10851e-09
1.67179e-09
4.99851e-08
6.70164e-07
8.35776e-07
8.4559e-07
1.00703e-06
1.40882e-06
2.74983e-05
0.00114861
0.0124209
0.0429613
0.0880652
0.110819
0.119414
0.0984808
0.0623431
0.0518371
2.72166e-08
7.14104e-09
1.78898e-09
1.98324e-09
7.02834e-08
1.91197e-07
4.0036e-07
4.02174e-07
3.1796e-07
2.21532e-07
1.16738e-06
3.64636e-05
0.000783146
0.00533696
0.0133257
0.0161333
0.00960219
0.00504721
0.00400879
9.42252e-09
3.50626e-09
9.39874e-10
6.87775e-10
9.86663e-09
9.65123e-08
2.38541e-07
3.62926e-07
3.65137e-07
2.2204e-07
1.28253e-07
1.65293e-07
1.08342e-06
1.87629e-05
7.88605e-05
9.61198e-05
7.05104e-05
6.91273e-05
8.51839e-05
3.01939e-09
9.97657e-10
2.86868e-10
3.74897e-10
9.09472e-10
4.14138e-08
1.03047e-07
5.28685e-08
2.58411e-07
2.58347e-07
8.6273e-08
4.13367e-08
4.0877e-08
8.61664e-09
1.63966e-08
7.63762e-09
1.74612e-08
2.93923e-07
1.07607e-06
)
;

boundaryField
{
    leftWall
    {
        type            zeroGradient;
    }
    rightWall
    {
        type            zeroGradient;
    }
    lowerWall
    {
        type            zeroGradient;
    }
    atmosphere
    {
        type            inletOutlet;
        inletValue      nonuniform 0();
        value           nonuniform 0();
    }
    defaultFaces
    {
        type            empty;
    }
    procBoundary1to0
    {
        type            processor;
        value           nonuniform List<scalar> 
26
(
6.93406e-10
1.63992e-09
1.15876e-08
4.65912e-08
2.11852e-06
0.00119274
0.0769087
0.611108
0.958667
0.945912
0.750264
0.365014
0.101058
0.0296709
0.0104755
0.00252845
2.83952e-06
2.83952e-06
2.19945e-07
8.79478e-09
4.39772e-09
3.47516e-09
4.40725e-09
1.40027e-08
1.39733e-08
6.77847e-09
)
;
    }
    procBoundary1to3
    {
        type            processor;
        value           nonuniform List<scalar> 
23
(
2.78263e-09
3.43853e-09
2.94968e-09
2.08341e-09
7.33343e-10
2.46219e-10
8.43853e-11
1.47358e-10
2.92733e-10
2.46624e-09
1.29241e-08
2.40571e-08
2.74977e-08
2.42333e-07
5.69854e-08
3.3395e-09
1.91401e-09
4.40209e-10
3.1745e-10
1.3348e-10
6.73158e-12
1.41452e-11
2.35394e-10
)
;
    }
}


// ************************************************************************* //
