/*--------------------------------*- C++ -*----------------------------------*\
| =========                 |                                                 |
| \\      /  F ield         | OpenFOAM: The Open Source CFD Toolbox           |
|  \\    /   O peration     | Version:  2.4.0                                 |
|   \\  /    A nd           | Web:      www.OpenFOAM.org                      |
|    \\/     M anipulation  |                                                 |
\*---------------------------------------------------------------------------*/
FoamFile
{
    version     2.0;
    format      ascii;
    class       surfaceScalarField;
    location    "0.8";
    object      phi;
}
// * * * * * * * * * * * * * * * * * * * * * * * * * * * * * * * * * * * * * //

dimensions      [0 3 -1 0 0 0 0];

internalField   nonuniform List<scalar> 
1061
(
-3.86581e-06
-6.13857e-06
-7.548e-06
-9.70785e-06
-1.32948e-05
-1.80338e-05
-2.40771e-05
-3.46648e-05
-4.29828e-07
4.29828e-07
1.81239e-05
-1.85537e-05
2.80578e-05
-9.93393e-06
3.32689e-05
-5.21108e-06
3.63142e-05
-3.04529e-06
3.86559e-05
-2.34169e-06
4.1098e-05
-2.44211e-06
4.38932e-05
-2.79527e-06
4.69272e-05
-3.034e-06
5.00305e-05
-3.10322e-06
5.32787e-05
-3.2482e-06
5.59515e-05
-2.67286e-06
5.66136e-05
-6.62118e-07
5.31838e-05
3.42985e-06
4.33221e-05
9.8617e-06
2.59695e-05
1.73525e-05
6.27888e-06
1.96907e-05
-2.69888e-06
8.97776e-06
-2.69888e-06
4.88451e-06
-4.45468e-06
3.49493e-05
-4.86185e-05
4.52731e-05
-2.02577e-05
4.85976e-05
-8.53554e-06
5.01345e-05
-4.58225e-06
4.97843e-05
-1.99147e-06
5.00585e-05
-2.71636e-06
5.13906e-05
-4.12736e-06
5.27956e-05
-4.43895e-06
5.38024e-05
-4.11008e-06
5.51497e-05
-4.59547e-06
5.67911e-05
-4.3143e-06
5.73936e-05
-1.26454e-06
5.35233e-05
7.30005e-06
4.24646e-05
2.09205e-05
2.71506e-05
3.26665e-05
1.27154e-05
3.41259e-05
-1.37372e-06
2.30669e-05
-4.0726e-06
2.65368e-05
-3.09914e-05
4.48668e-05
-6.69485e-05
5.78137e-05
-3.32046e-05
6.63522e-05
-1.70741e-05
7.20316e-05
-1.02617e-05
7.55167e-05
-5.47658e-06
7.40572e-05
-1.25683e-06
6.86856e-05
1.2443e-06
6.11836e-05
3.06304e-06
5.21781e-05
4.89535e-06
4.27542e-05
4.82852e-06
3.15396e-05
6.90022e-06
1.89719e-05
1.13032e-05
2.02981e-05
5.97388e-06
2.41225e-05
1.70961e-05
2.29475e-05
3.38415e-05
1.2619e-05
4.44544e-05
1.1965e-06
3.44893e-05
-2.8761e-06
3.55711e-05
-6.65626e-05
3.9637e-05
-7.10144e-05
4.79013e-05
-4.14689e-05
5.53507e-05
-2.45236e-05
6.06559e-05
-1.55668e-05
6.24439e-05
-7.26465e-06
6.15669e-05
-3.79795e-07
5.95895e-05
3.22171e-06
5.62631e-05
6.38946e-06
5.12471e-05
9.91136e-06
4.29919e-05
1.30837e-05
2.98555e-05
2.00366e-05
1.45047e-05
2.6654e-05
-1.38157e-05
3.42943e-05
-1.21784e-05
1.54587e-05
1.16883e-05
9.97486e-06
1.20559e-05
4.40868e-05
5.50176e-06
4.10434e-05
2.62566e-06
3.03813e-05
-9.69439e-05
3.48704e-05
-7.55035e-05
3.91707e-05
-4.57692e-05
4.59318e-05
-3.12847e-05
5.15863e-05
-2.12213e-05
5.36757e-05
-9.35402e-06
5.13144e-05
1.98145e-06
4.62897e-05
8.24646e-06
4.1967e-05
1.07121e-05
3.9596e-05
1.22824e-05
3.53071e-05
1.73727e-05
2.58594e-05
2.94843e-05
7.10054e-06
4.54128e-05
-2.27723e-05
6.41672e-05
-2.84979e-05
2.11843e-05
-8.45173e-06
-1.00713e-05
6.98056e-06
2.86545e-05
6.98815e-06
4.10358e-05
9.61381e-06
1.62561e-05
-0.0001132
1.79725e-05
-7.72199e-05
2.31915e-05
-5.09882e-05
3.14864e-05
-3.95796e-05
3.705e-05
-2.67848e-05
3.94869e-05
-1.1791e-05
3.97161e-05
1.75228e-06
3.82454e-05
9.71714e-06
3.41149e-05
1.48425e-05
3.04209e-05
1.59764e-05
2.79448e-05
1.98487e-05
2.32369e-05
3.41922e-05
8.58717e-06
6.00626e-05
-1.90194e-05
9.17737e-05
-2.59853e-05
2.81503e-05
-1.12527e-05
-2.48039e-05
5.29529e-06
1.21066e-05
8.41903e-06
3.79121e-05
1.80328e-05
6.55785e-06
-0.000119758
-3.89631e-06
-6.67657e-05
4.21832e-06
-5.91029e-05
2.00943e-05
-5.54556e-05
3.2243e-05
-3.89335e-05
3.71554e-05
-1.67033e-05
3.58621e-05
3.04556e-06
3.21027e-05
1.34766e-05
2.60964e-05
2.08488e-05
2.25399e-05
1.9533e-05
2.17896e-05
2.0599e-05
2.13264e-05
3.46554e-05
1.30469e-05
6.83421e-05
-1.06509e-05
0.000115471
-2.31494e-05
4.06488e-05
-1.93119e-05
-2.86415e-05
-3.67049e-06
-3.53482e-06
7.35473e-06
2.68869e-05
2.53876e-05
-5.46581e-06
-0.000114292
-1.37986e-05
-5.84329e-05
-5.84298e-06
-6.70585e-05
6.16834e-06
-6.74669e-05
1.9426e-05
-5.21911e-05
3.07964e-05
-2.80737e-05
3.44151e-05
-5.73213e-07
3.12422e-05
1.66495e-05
2.55811e-05
2.65099e-05
2.05165e-05
2.45976e-05
1.82257e-05
2.28897e-05
1.81635e-05
3.47176e-05
1.69076e-05
6.95981e-05
2.41057e-07
0.000132138
-1.98852e-05
6.07751e-05
-2.56462e-05
-2.28805e-05
-1.55913e-05
-1.35898e-05
1.53139e-06
9.76418e-06
2.6919e-05
-3.07515e-05
-3.91098e-05
-1.52271e-05
-6.30438e-06
5.06046e-05
-0.0001218
0.000103318
-0.000249225
9.09041e-05
-0.000258543
9.82244e-05
-0.000258455
0.000232868
-0.000371623
-0.000343887
-1.7175e-05
-2.19348e-05
-2.30637e-06
-1.48687e-05
1.18622e-05
-1.41686e-05
-2.13327e-05
3.31949e-05
-3.50618e-05
6.82266e-06
-6.83509e-05
1.84204e-05
-9.30254e-05
1.05059e-05
-1.00063e-05
-0.000104352
-0.000142355
2.73781e-05
-0.000140105
1.61705e-05
-0.000127174
-2.42563e-06
-2.89767e-05
-0.000108203
-0.00023243
1.05829e-05
-0.000190826
-2.5433e-05
-0.000149806
-4.34457e-05
-5.74721e-05
-0.000121311
-0.000255554
7.59456e-06
-0.000257775
-2.32126e-05
-0.00025426
-4.69607e-05
-5.89657e-05
-0.000252766
-0.000298772
4.79119e-05
-0.000346348
2.43633e-05
-0.000402964
9.65463e-06
1.12764e-05
-0.000473206
-0.000471902
0.000148191
-0.00053373
8.6191e-05
-0.000586335
6.22597e-05
8.16337e-06
-0.000583222
-0.000346316
0.00015062
-0.000329169
6.90439e-05
-0.000297721
3.08124e-05
-3.10783e-05
-0.00025848
-0.000220665
0.000112415
-0.000203893
5.2272e-05
-0.000195634
2.25542e-05
-3.11562e-05
-0.000195557
-0.000181943
8.71583e-05
-0.000176223
4.65521e-05
-0.000169404
1.57347e-05
-2.48838e-05
-0.000175676
-0.000140812
7.93461e-05
-0.000135472
4.12124e-05
-0.000128869
9.13128e-06
-2.20174e-05
-0.000131735
-9.12682e-05
9.67065e-05
-9.66733e-05
4.66174e-05
-9.47821e-05
7.24016e-06
-2.15468e-05
-9.52528e-05
2.53655e-05
0.000120567
5.46007e-06
6.65229e-05
-1.06159e-05
2.33161e-05
-1.19531e-05
-2.02096e-05
0.000137155
0.000111046
0.000130123
7.3555e-05
0.000120907
3.25327e-05
-1.29612e-07
0.000109083
0.000181299
8.87613e-05
0.000191525
6.33294e-05
0.000191364
3.26934e-05
7.01182e-06
0.000184223
0.000196746
6.68739e-05
0.000209131
5.09441e-05
0.000210313
3.15115e-05
1.31816e-05
0.000204143
0.000181049
0.000190817
0.000192695
0.000188123
-3.10544e-05
-5.00427e-05
-3.15382e-05
-5.79491e-05
-1.38564e-05
-8.47403e-05
5.00909e-09
-8.13284e-05
1.37362e-05
-6.59223e-05
3.43139e-05
-4.86514e-05
5.43077e-05
-2.05671e-05
5.93495e-05
1.16078e-05
4.44832e-05
4.13761e-05
3.04002e-05
3.86806e-05
2.7466e-05
2.58239e-05
3.19527e-05
3.02309e-05
4.31768e-05
5.8374e-05
4.9465e-05
0.00012585
6.91946e-06
0.000103321
-3.74232e-05
2.14622e-05
-4.99014e-05
-1.11152e-06
-3.85058e-05
-1.63145e-06
-1.15868e-05
-7.87743e-05
-7.56202e-05
-3.09502e-05
-0.000105773
-1.25725e-05
-0.000103118
-9.53296e-06
-8.43679e-05
-9.5814e-06
-6.58739e-05
-6.74508e-06
-5.14877e-05
1.14782e-05
-3.87903e-05
3.6759e-05
-1.3673e-05
3.62758e-05
4.18593e-05
1.48533e-05
6.01031e-05
3.07997e-06
3.75972e-05
9.20562e-06
2.41052e-05
2.64576e-05
4.1122e-05
4.39304e-05
0.000108377
2.72065e-05
0.000120044
-2.10128e-05
6.96815e-05
-4.44731e-05
2.23488e-05
-3.26806e-05
-1.3424e-05
-4.42674e-05
-5.89095e-05
-0.000124914
-2.70883e-05
-0.000137594
-2.36274e-05
-0.000106579
-2.87225e-05
-7.92728e-05
-3.83551e-05
-5.62412e-05
-4.7071e-05
-4.27718e-05
-4.57859e-05
-4.00754e-05
-1.71994e-05
-4.22595e-05
1.2019e-05
1.26409e-05
-1.18263e-06
7.33047e-05
-1.25023e-05
4.89169e-05
-1.21399e-05
2.37428e-05
2.56814e-06
2.6414e-05
2.72515e-05
8.36937e-05
3.0956e-05
0.00011634
1.43313e-05
8.63061e-05
-1.09013e-05
4.75814e-05
-2.03413e-05
-3.98396e-06
-6.46087e-05
-9.84724e-05
-0.000147753
-9.05953e-05
-0.000145471
-9.4184e-05
-0.00010299
-8.51374e-05
-8.83194e-05
-8.04825e-05
-6.08961e-05
-8.24939e-05
-4.07604e-05
-9.21811e-05
-3.03882e-05
-8.4737e-05
-4.97037e-05
-4.44617e-05
-2.76343e-05
-2.21661e-05
5.10091e-05
-2.62547e-05
5.30055e-05
-2.64041e-05
2.38923e-05
-1.67473e-05
1.67571e-05
6.40781e-06
6.05387e-05
1.78372e-05
0.000104911
1.17195e-05
9.24237e-05
-3.49656e-06
6.27975e-05
-4.06275e-06
-3.41778e-06
-6.86715e-05
-0.000252644
-0.000147874
-0.000361589
-3.65271e-05
-0.000377099
-8.74799e-05
-0.000306354
-0.000159064
-0.000230875
-0.000136375
-0.000187979
-8.36569e-05
-0.000154416
-6.39507e-05
-0.000116352
-8.77683e-05
-9.30212e-05
-5.09649e-05
-5.74619e-05
1.54498e-05
-4.14914e-05
3.7035e-05
-3.7742e-05
2.01429e-05
-2.82464e-05
7.26151e-06
-1.89856e-05
5.12779e-05
-1.19487e-05
9.78736e-05
-7.27036e-06
8.77454e-05
-5.70699e-06
6.12342e-05
7.05629e-07
-9.8304e-06
-6.79658e-05
-0.000603992
-1.70879e-05
-0.000503513
-0.000137006
-0.000384824
-0.000206169
-0.000319526
-0.000224362
-0.000273988
-0.000181912
-0.000216511
-0.000141134
-0.000161984
-0.000118478
-0.000145657
-0.000104095
-0.00012504
-7.1582e-05
-8.75616e-05
-2.2029e-05
-6.15464e-05
1.10198e-05
-5.04486e-05
9.04514e-06
-5.24754e-05
9.28829e-06
-5.88869e-05
5.76894e-05
-5.26454e-05
9.16321e-05
-3.50055e-05
7.01055e-05
-9.07804e-06
3.53067e-05
3.90896e-06
-2.28174e-05
-6.40569e-05
-0.00036739
-0.00023292
-0.000285075
-0.000219322
-0.000279161
-0.000212082
-0.000282167
-0.000221356
-0.00027866
-0.000185419
-0.000273717
-0.000146078
-0.00026065
-0.000131544
-0.000212514
-0.000152231
-0.000159147
-0.000124949
-0.000118126
-6.30504e-05
-9.18743e-05
-1.52319e-05
-8.80605e-05
5.23128e-06
-9.36994e-05
1.49272e-05
-8.96383e-05
5.36283e-05
-7.58922e-05
7.7886e-05
-4.25744e-05
3.67877e-05
-4.50726e-06
-2.76045e-06
6.37516e-06
-3.36998e-05
-5.76817e-05
-0.000273684
-0.000217716
-0.000262523
-0.000230483
-0.000254862
-0.000219743
-0.00026145
-0.000214768
-0.000251088
-0.000195781
-0.000265732
-0.000131433
-0.000274873
-0.000122403
-0.000236568
-0.000190536
-0.000185949
-0.000175568
-0.00014258
-0.000106419
-0.00012326
-3.45514e-05
-0.000122441
4.41139e-06
-0.000128521
2.1008e-05
-0.000116959
4.20664e-05
-7.83406e-05
3.92671e-05
-3.07003e-05
-1.08526e-05
-2.49831e-06
-3.09624e-05
4.88401e-06
-4.10821e-05
-5.27977e-05
-0.000239706
-0.000173567
-0.00025122
-0.000218969
-0.00024905
-0.000221913
-0.000249122
-0.000214697
-0.000249471
-0.000195432
-0.000222599
-0.000158305
-0.000193602
-0.000151401
-0.000187851
-0.000196287
-0.00017509
-0.000188329
-0.000146737
-0.000134772
-0.000120456
-6.0832e-05
-0.000111635
-4.40966e-06
-0.000108228
1.76004e-05
-8.25907e-05
1.64294e-05
-3.79504e-05
-5.37318e-06
-1.37987e-05
-3.50043e-05
-5.65452e-06
-3.91066e-05
-1.79298e-06
-4.49437e-05
-5.45907e-05
-0.000207497
-0.000141746
-0.00023325
-0.000193215
-0.000241173
-0.00021399
-0.000237024
-0.000218846
-0.000221132
-0.000211324
-0.000186682
-0.000192755
-0.000164128
-0.000173955
-0.000172457
-0.000187958
-0.000179047
-0.000181739
-0.00016456
-0.00014926
-0.000127779
-9.76126e-05
-9.51826e-05
-3.7006e-05
-7.22923e-05
-5.28993e-06
-5.29406e-05
-2.92224e-06
-3.86669e-05
-1.96469e-05
-3.90538e-05
-3.46173e-05
-3.64705e-05
-4.169e-05
-2.28605e-05
-5.85536e-05
-7.74512e-05
-0.000153356
-0.000120126
-0.000179453
-0.000167119
-0.000205627
-0.000187815
-0.00021541
-0.000209063
-0.000196923
-0.00022981
-0.000178489
-0.000211189
-0.000158467
-0.000193977
-0.000163905
-0.00018252
-0.000178782
-0.000166862
-0.000181937
-0.000146105
-0.00016369
-0.00011586
-0.000133978
-6.67173e-05
-0.000121413
-1.78556e-05
-0.000109544
-1.47907e-05
-0.000105709
-2.34819e-05
-9.73183e-05
-4.30084e-05
-7.80458e-05
-6.09624e-05
-3.97212e-05
-9.68783e-05
-0.000117172
-9.20444e-05
-0.000123334
-9.72475e-05
-0.000161916
-0.000139325
-0.000145737
-0.000176191
-0.000172197
-0.000199231
-0.00020677
-0.00017864
-0.00023178
-0.000155375
-0.000217242
-0.000155462
-0.000182433
-0.000166788
-0.000155537
-0.000184754
-0.000128139
-0.000189748
-0.000110865
-0.000186107
-7.0359e-05
-0.000178507
-2.54552e-05
-0.000161802
-3.14955e-05
-0.000147615
-3.76692e-05
-0.000123162
-6.74614e-05
-9.3844e-05
-9.02804e-05
-4.67306e-05
-0.000143992
-0.000163903
-1.8146e-05
-0.000125398
-1.30174e-05
-0.000167044
-2.21252e-05
-0.00013663
-7.65487e-05
-0.000117774
-0.000128518
-0.000154801
-0.000174679
-0.000185618
-0.000182152
-0.000209769
-0.0001678
-0.000196785
-0.000174169
-0.000149168
-0.000175262
-0.000127046
-0.000171175
-0.000114952
-0.000159481
-8.2053e-05
-0.000121955
-6.29817e-05
-0.000105407
-4.80431e-05
-0.000115383
-2.76938e-05
-0.000136641
-4.62028e-05
-0.000120463
-0.000106459
-6.16188e-05
-0.000202836
-0.000225522
8.77713e-05
-0.000104086
5.98153e-05
-0.000139088
4.45353e-05
-0.00012135
1.42943e-05
-8.75326e-05
-4.87262e-05
-9.1781e-05
-0.000107182
-0.000127162
-0.000152017
-0.000164933
-0.000165323
-0.000183479
-0.000150969
-0.000163522
-0.000153592
-0.000124422
-0.000168965
-9.95791e-05
-0.000147822
-0.000103197
-0.000130521
-8.02823e-05
-0.000124429
-5.41349e-05
-0.000144495
-7.62812e-06
-0.000190967
2.69183e-07
-0.000157124
-0.000140301
-7.97278e-05
-0.000280232
-0.00030525
0.000145822
-6.56848e-05
0.000108251
-0.000101518
7.97181e-05
-9.28166e-05
5.76658e-05
-6.54803e-05
1.69385e-05
-5.10536e-05
-5.39445e-05
-5.62796e-05
-0.000119193
-9.96851e-05
-0.000152935
-0.000149737
-0.000142036
-0.000174421
-9.34816e-05
-0.000172976
-4.58388e-05
-0.000147222
-4.48312e-05
-0.000104205
-8.34219e-05
-4.16917e-05
-0.000155597
1.80402e-05
-0.000206778
4.35525e-05
-0.000224579
1.80702e-05
-0.000153859
-0.000211021
-7.45598e-05
-0.000359531
-0.000379809
0.000167892
-2.9434e-05
0.000126678
-6.03033e-05
9.4846e-05
-6.09845e-05
7.72958e-05
-4.79301e-05
6.47577e-05
-3.85156e-05
3.96107e-05
-3.11326e-05
-2.13206e-05
-3.87538e-05
-9.35304e-05
-7.75271e-05
-0.000143173
-0.000124778
-0.000159135
-0.000157014
-0.000174185
-0.000132172
-0.000236149
-4.22407e-05
-0.00031544
3.75999e-05
-0.000427858
0.000130458
-0.000401051
1.67453e-05
-0.000267217
-0.000115764
-9.43981e-05
-0.00038384
-3.2948e-05
-0.000420982
-0.000412757
0.000158801
0.000124545
9.89087e-05
8.36191e-05
7.16145e-05
6.40903e-05
4.70609e-05
-3.46182e-06
-9.17146e-05
-0.000189501
-0.000277993
-0.000352307
-0.000392912
-0.000349081
-0.000243565
-0.000100696
-8.90267e-05
-1.74116e-05
)
;

boundaryField
{
    leftWall
    {
        type            calculated;
        value           nonuniform 0();
    }
    rightWall
    {
        type            calculated;
        value           uniform 0;
    }
    lowerWall
    {
        type            calculated;
        value           nonuniform List<scalar> 
40
(
4.49487e-23
0
0
0
0
0
0
0
0
1.96455e-24
0
0
-2.64698e-23
0
0
0
0
0
0
0
0
3.11566e-24
4.41217e-23
6.56058e-23
-2.03021e-22
-6.78547e-25
5.08538e-23
1.48941e-23
9.77034e-23
-5.44378e-23
1.11557e-22
2.0484e-23
-7.57807e-23
3.63653e-23
1.25206e-22
-3.46339e-23
-1.83918e-22
2.35074e-22
-1.01071e-23
-4.90815e-23
)
;
    }
    atmosphere
    {
        type            calculated;
        value           nonuniform 0();
    }
    defaultFaces
    {
        type            empty;
        value           nonuniform 0();
    }
    procBoundary1to0
    {
        type            processor;
        value           nonuniform List<scalar> 
26
(
3.8658e-06
2.27276e-06
1.40943e-06
2.15985e-06
3.587e-06
4.739e-06
6.04327e-06
1.05877e-05
3.51966e-05
-9.22006e-06
5.5968e-05
0.000196512
0.000270957
0.000251135
0.000236979
0.000253564
0.000323191
0.00025887
0.0002072
0.000148624
7.39078e-05
-4.92265e-05
-0.000127634
-0.000159015
-0.000174858
-0.000165483
)
;
    }
    procBoundary1to3
    {
        type            processor;
        value           nonuniform List<scalar> 
23
(
5.13081e-05
4.11758e-05
2.96335e-05
1.77535e-05
-1.1161e-07
-2.60471e-05
-3.53483e-05
-3.26406e-05
-2.65109e-05
-2.36084e-05
-2.17243e-05
-2.70044e-05
-3.65257e-05
-5.92278e-05
-4.36802e-05
3.20732e-05
7.8205e-05
8.66274e-05
-8.87709e-05
-0.000258633
-0.00039551
-0.000492597
-0.000430169
)
;
    }
}


// ************************************************************************* //
