/*--------------------------------*- C++ -*----------------------------------*\
| =========                 |                                                 |
| \\      /  F ield         | OpenFOAM: The Open Source CFD Toolbox           |
|  \\    /   O peration     | Version:  2.4.0                                 |
|   \\  /    A nd           | Web:      www.OpenFOAM.org                      |
|    \\/     M anipulation  |                                                 |
\*---------------------------------------------------------------------------*/
FoamFile
{
    version     2.0;
    format      ascii;
    class       surfaceScalarField;
    location    "0.8";
    object      phi.water;
}
// * * * * * * * * * * * * * * * * * * * * * * * * * * * * * * * * * * * * * //

dimensions      [0 3 -1 0 0 0 0];

internalField   nonuniform List<scalar> 
1061
(
-3.86549e-06
-6.13714e-06
-7.54386e-06
-8.68278e-06
1.12064e-05
1.38878e-05
3.13258e-06
-2.04398e-05
2.02034e-06
3.42047e-05
2.27555e-05
1.81644e-05
3.23079e-05
3.0534e-05
3.5429e-05
3.16797e-05
3.70704e-05
3.19005e-05
3.84634e-05
3.23627e-05
4.03448e-05
3.2755e-05
4.31488e-05
3.36958e-05
4.64375e-05
3.45561e-05
4.94255e-05
3.47261e-05
5.20051e-05
3.46805e-05
5.11828e-05
3.38418e-05
4.4548e-05
3.31576e-05
5.04029e-05
3.92943e-05
4.38495e-05
5.14264e-05
2.40216e-05
2.14908e-05
3.82045e-06
2.11561e-05
-2.42266e-06
2.07633e-05
1.39758e-05
1.03874e-05
1.69375e-05
3.93996e-05
-2.1815e-05
4.78844e-05
2.37568e-06
5.06228e-05
1.06899e-05
5.18024e-05
1.47151e-05
5.07998e-05
1.46843e-05
5.03826e-05
1.65805e-05
5.11562e-05
1.98124e-05
5.23668e-05
2.09491e-05
5.31254e-05
2.05561e-05
5.41595e-05
1.90403e-05
5.50222e-05
1.95546e-05
5.35311e-05
2.50795e-05
4.50183e-05
2.55678e-05
2.6233e-05
4.02167e-05
2.69859e-05
3.03533e-05
8.96554e-06
3.40046e-05
-1.96164e-06
2.63144e-05
7.86739e-06
3.17342e-05
-3.99764e-06
4.51558e-05
-5.92671e-05
5.67154e-05
-3.84126e-05
6.49368e-05
-2.39539e-05
7.09987e-05
-1.556e-05
7.49407e-05
-1.05151e-05
7.39069e-05
-6.51799e-06
6.92818e-05
-3.86399e-06
6.23908e-05
-1.49158e-06
5.36526e-05
5.1832e-07
4.4648e-05
3.42718e-07
3.51233e-05
1.40699e-06
2.13763e-05
2.39007e-06
1.18726e-05
1.42201e-06
1.31405e-05
3.13261e-05
1.50391e-05
5.13508e-05
9.53651e-06
4.63272e-05
7.10843e-07
4.29688e-05
1.66229e-05
3.50813e-05
-6.80322e-05
3.88618e-05
-7.50008e-05
4.66737e-05
-4.81681e-05
5.40964e-05
-3.04453e-05
5.95418e-05
-2.08414e-05
6.18991e-05
-1.2475e-05
6.16013e-05
-5.27741e-06
5.99158e-05
-1.52424e-06
5.6831e-05
1.82654e-06
5.20216e-05
5.41468e-06
4.41771e-05
8.10236e-06
3.23188e-05
1.33883e-05
2.00403e-05
1.49399e-05
-8.7437e-06
1.80009e-05
-1.86158e-05
2.95949e-05
5.70767e-06
2.16742e-05
1.0899e-05
4.66373e-05
4.63951e-06
4.81416e-05
1.52281e-05
2.95421e-05
-0.00010479
3.37552e-05
-8.36449e-05
3.80881e-05
-5.52547e-05
4.49519e-05
-3.98927e-05
5.08407e-05
-2.94198e-05
5.32628e-05
-1.57791e-05
5.12589e-05
-1.85517e-06
4.64556e-05
5.26763e-06
4.24074e-05
7.88643e-06
4.03029e-05
9.02865e-06
3.65112e-05
1.24553e-05
2.86165e-05
2.30981e-05
1.43918e-05
3.6622e-05
-1.67672e-05
5.18187e-05
-2.91056e-05
3.58993e-05
-1.45152e-05
1.11672e-06
6.43527e-06
3.04562e-05
6.31523e-06
4.78152e-05
2.52596e-05
1.53254e-05
-0.000136857
1.6619e-05
-9.59339e-05
2.18127e-05
-6.71001e-05
2.98222e-05
-5.49807e-05
3.61498e-05
-4.13446e-05
3.94895e-05
-2.32739e-05
3.98666e-05
-6.27668e-06
3.85527e-05
5.03126e-06
3.47132e-05
1.04643e-05
3.1792e-05
8.55706e-06
3.00081e-05
1.05916e-05
2.58891e-05
2.35246e-05
1.4783e-05
4.84259e-05
-1.39033e-05
7.58751e-05
-2.62612e-05
4.42334e-05
-1.61738e-05
-1.17497e-05
5.09954e-06
1.68686e-05
8.35066e-06
4.51299e-05
3.74864e-05
2.35388e-06
-0.000147591
-7.36943e-06
-9.79871e-05
3.55077e-07
-8.16016e-05
1.65724e-05
-7.55096e-05
3.02704e-05
-5.9861e-05
3.70733e-05
-3.84699e-05
3.64459e-05
-1.1417e-05
3.2679e-05
6.88078e-06
2.73567e-05
1.68303e-05
2.42553e-05
1.5075e-05
2.36385e-05
1.57229e-05
2.34163e-05
2.67954e-05
1.7104e-05
5.75046e-05
-5.89118e-06
9.64196e-05
-2.21009e-05
5.96263e-05
-2.09209e-05
-1.32352e-05
-3.91583e-06
1.25342e-05
7.94508e-06
3.50154e-05
5.85163e-05
-1.42553e-05
-0.000139908
-2.55404e-05
-8.44613e-05
-1.35914e-05
-8.84704e-05
-1.22446e-06
-9.12502e-05
1.45145e-05
-7.77194e-05
2.9271e-05
-5.59533e-05
3.52201e-05
-2.30408e-05
3.24429e-05
1.27873e-06
2.65287e-05
1.89646e-05
2.13468e-05
2.0596e-05
1.91572e-05
1.92337e-05
1.94095e-05
2.91613e-05
1.88557e-05
5.98733e-05
6.99907e-06
0.000112981
-1.5405e-05
7.65453e-05
-2.8302e-05
-6.36402e-07
-1.65946e-05
1.31869e-05
2.61551e-06
3.15644e-05
4.55701e-05
-3.07052e-05
-4.08096e-05
-1.74559e-05
-5.64319e-06
3.67568e-05
-0.000105453
9.32786e-05
-0.000213194
8.29587e-05
-0.000247251
8.10138e-05
-0.000253689
0.000135227
-0.000269582
-0.000158796
-1.85863e-05
-2.10133e-05
-3.51559e-06
-1.60095e-05
1.29409e-05
-2.40789e-05
-3.69804e-05
2.624e-05
-3.0541e-05
4.85736e-06
-6.30767e-05
1.56991e-05
-0.000118898
8.49657e-06
-2.35395e-05
-0.000151035
-0.00011268
1.78729e-05
-0.000140065
-7.4894e-07
-0.00016213
-2.32257e-05
-5.2816e-05
-0.000149279
-0.000214728
-1.49241e-05
-0.000201279
-5.36501e-05
-0.000173328
-7.81295e-05
-8.94561e-05
-0.000147141
-0.000252469
-8.83586e-05
-0.000245389
-0.000110747
-0.000242931
-0.000117284
-0.000125787
-0.00024304
-0.000253019
-8.9582e-05
-0.000256043
-0.000122737
-0.000255619
-0.000134577
-0.000143143
-0.000250476
-0.000293549
-1.71432e-06
-0.000269502
-6.23588e-05
-0.00023016
-7.14084e-05
-7.27562e-05
-0.000234927
-0.000344907
0.000147351
-0.000327049
6.41039e-05
-0.000253053
2.60024e-05
-5.5616e-05
-0.00011335
-0.000221187
0.000112279
-0.000203813
5.20178e-05
-0.000195413
2.27922e-05
-3.10863e-05
-7.75879e-05
-0.000181903
8.66737e-05
-0.000176302
4.63849e-05
-0.000169487
1.54528e-05
-2.52234e-05
-7.68293e-05
-0.00014127
7.88864e-05
-0.000135301
4.04172e-05
-0.000128878
8.92586e-06
-2.2187e-05
-0.000131597
-9.11061e-05
9.55218e-05
-9.58661e-05
4.76411e-05
-9.47101e-05
8.58329e-06
-1.9941e-05
-9.50469e-05
2.27038e-05
0.000120585
5.66056e-06
6.71467e-05
-9.45834e-06
2.43683e-05
-1.0678e-05
-1.96591e-05
0.000132385
0.000110821
0.000128959
7.44715e-05
0.000121579
3.38531e-05
8.90237e-07
0.000107563
0.000176999
8.90959e-05
0.000190364
6.417e-05
0.000191367
3.33155e-05
7.00676e-06
0.000179936
0.000195524
6.72464e-05
0.000208516
5.10473e-05
0.000209111
3.10108e-05
1.2898e-05
0.000202902
0.000181045
0.000190758
0.000192632
0.00018819
-3.9774e-05
-0.000101202
-6.00892e-05
-0.000103163
-3.29774e-05
-0.000118518
-1.71176e-05
-0.000116016
3.07895e-07
-9.77197e-05
2.51072e-05
-7.97297e-05
5.37412e-05
-5.25589e-05
6.36186e-05
-1.72924e-05
4.78804e-05
2.39419e-05
3.21349e-05
2.99798e-05
2.87148e-05
2.17244e-05
3.34534e-05
2.55078e-05
4.46994e-05
5.03092e-05
5.52672e-05
0.000110442
2.3317e-05
9.89776e-05
-2.88394e-05
4.00226e-05
-4.80863e-05
1.20761e-06
-3.41206e-05
-9.27982e-06
-2.86344e-05
-0.000106525
-0.000123885
-4.83288e-05
-0.000161337
-2.82693e-05
-0.000158321
-2.17966e-05
-0.000137889
-2.21703e-05
-0.000110487
-1.83466e-05
-8.72887e-05
5.21865e-06
-6.30986e-05
3.9175e-05
-3.44414e-05
4.33872e-05
1.56105e-05
1.85113e-05
4.23561e-05
5.07965e-06
3.0252e-05
1.08534e-05
1.8872e-05
2.79043e-05
3.43046e-05
4.62516e-05
9.54156e-05
3.76533e-05
0.00010589
-2.88068e-06
7.10553e-05
-3.15323e-05
1.0707e-05
-2.08745e-05
-3.36239e-05
-5.99721e-05
-9.05152e-05
-0.000189923
-6.06743e-05
-0.000223922
-4.73353e-05
-0.000254003
-4.2123e-05
-0.000206199
-4.55817e-05
-0.000142167
-5.11221e-05
-0.000102337
-4.45011e-05
-7.8025e-05
-5.2377e-06
-5.31097e-05
2.43318e-05
6.03253e-06
7.35466e-06
4.53371e-05
-8.40239e-06
3.61011e-05
-9.69856e-06
1.72169e-05
4.97921e-06
1.98102e-05
2.9672e-05
7.20961e-05
3.71828e-05
0.000101098
2.47287e-05
7.8593e-05
6.2485e-07
3.8735e-05
-8.23823e-06
-2.38345e-05
-7.47821e-05
-0.000148592
-0.000264883
-0.000163646
-0.000335033
-0.000126946
-0.000365988
-8.99394e-05
-0.00024299
-8.13556e-05
-0.000181567
-7.92153e-05
-0.000139839
-8.14784e-05
-0.000120912
-4.44367e-05
-9.94285e-05
-4.96521e-06
-1.08869e-05
-2.39427e-06
3.11537e-05
-1.93096e-05
3.69475e-05
-2.27108e-05
1.70916e-05
-1.34522e-05
1.01139e-05
1.00305e-05
4.9362e-05
2.5174e-05
9.05202e-05
2.12627e-05
7.96594e-05
3.19384e-06
5.16425e-05
1.04853e-07
-1.33522e-05
-7.45791e-05
-0.000243668
-0.000321801
-0.000252202
-0.000344283
-0.000238555
-0.000334197
-0.000181798
-0.000234838
-0.000150999
-0.000209166
-0.000124356
-0.000171776
-0.000105221
-0.000149922
-6.38782e-05
-0.000104696
-4.27482e-05
-2.98178e-05
-3.12999e-05
1.13501e-05
-3.27061e-05
2.25378e-05
-3.33818e-05
1.27939e-05
-2.47528e-05
-2.40419e-07
-1.24232e-05
3.91433e-05
-3.44449e-06
8.53912e-05
7.78176e-07
7.45125e-05
-2.21467e-06
4.85966e-05
2.69329e-06
-1.77716e-05
-7.13041e-05
-0.000245978
-0.000319835
-0.000221787
-0.000320161
-0.000188508
-0.000295691
-0.000163953
-0.000273362
-0.000156579
-0.000236143
-0.000124249
-0.000208799
-9.48709e-05
-0.000187772
-6.80876e-05
-0.000100219
-6.79787e-05
-4.78031e-05
-6.38786e-05
-1.78329e-05
-5.16358e-05
9.69851e-07
-4.55934e-05
3.3919e-07
-4.68591e-05
-4.98723e-06
-4.81169e-05
4.2854e-05
-4.29034e-05
7.89637e-05
-2.94015e-05
5.66044e-05
-6.72303e-06
2.31854e-05
5.54915e-06
-2.78829e-05
-6.57403e-05
-0.000244097
-0.000307466
-0.00022371
-0.000290797
-0.000198188
-0.00029284
-0.000171991
-0.000289379
-0.00015534
-0.00026608
-0.000164499
-0.000234188
-0.000128647
-0.000236364
-8.56251e-05
-0.000184875
-8.46648e-05
-0.000107483
-8.65414e-05
-5.08897e-05
-7.75398e-05
-1.9121e-05
-7.21949e-05
-4.42169e-06
-7.13826e-05
2.25062e-06
-7.18508e-05
3.879e-05
-6.34925e-05
5.50401e-05
-3.35281e-05
1.86142e-05
-2.04956e-06
-1.06622e-05
7.87766e-06
-3.69313e-05
-5.81384e-05
-0.000210219
-0.000284636
-0.000217105
-0.000299239
-0.000209039
-0.000279892
-0.000199366
-0.000279436
-0.000183311
-0.000280723
-0.000178881
-0.000269107
-0.000183244
-0.000254491
-0.000158811
-0.000253933
-0.000132087
-0.00019332
-0.000113758
-9.83532e-05
-0.000104476
-3.6851e-05
-9.28481e-05
-5.99234e-06
-8.02066e-05
5.52329e-06
-6.84514e-05
2.14239e-05
-4.97967e-05
2.13633e-05
-1.74776e-05
-2.04525e-05
1.57642e-06
-3.55248e-05
7.29817e-06
-4.26458e-05
-5.17167e-05
-0.000172001
-0.000222948
-0.00020124
-0.000280928
-0.000206934
-0.000290077
-0.000201954
-0.000270779
-0.000193166
-0.000265833
-0.000176011
-0.000269506
-0.000166628
-0.000260607
-0.000169928
-0.000248433
-0.000153574
-0.000214219
-0.000130802
-0.000150928
-0.000105044
-6.75641e-05
-9.19508e-05
-1.74275e-05
-7.99289e-05
-3.04596e-06
-5.58478e-05
-3.58426e-06
-2.35245e-05
-1.66902e-05
-5.17989e-06
-4.02055e-05
-6.63652e-07
-4.17127e-05
1.28432e-06
-4.45196e-05
-5.15063e-05
-0.000144542
-0.000100213
-0.000165026
-0.000197119
-0.000191456
-0.000265944
-0.000196686
-0.000288259
-0.000188991
-0.000263656
-0.000172572
-0.000249445
-0.000157476
-0.000242338
-0.000160578
-0.000231494
-0.000166064
-0.000209741
-0.000149504
-0.000172284
-0.000114936
-0.000115051
-8.5417e-05
-6.11744e-05
-6.51545e-05
-4.12784e-05
-4.63642e-05
-4.19327e-05
-3.4074e-05
-3.93418e-05
-3.285e-05
-4.23731e-05
-3.07882e-05
-4.39743e-05
-1.94836e-05
-5.6013e-05
-7.30686e-05
-6.51867e-05
-0.000120331
-0.000113904
-9.00139e-05
-0.000148374
-0.000207365
-0.000179583
-0.000285557
-0.000183331
-0.000297703
-0.000171019
-0.000272719
-0.000155343
-0.00024683
-0.000154921
-0.000235822
-0.000166022
-0.000215578
-0.000168217
-0.000181736
-0.000146734
-0.000146859
-0.000108381
-0.000110703
-8.9383e-05
-8.85806e-05
-8.5217e-05
-8.34548e-05
-8.89322e-05
-6.62987e-05
-8.66516e-05
-5.41706e-05
-6.96364e-05
-6.29501e-05
-3.52643e-05
-9.20555e-05
-0.000110594
-9.16054e-05
-0.000123563
-6.10964e-05
-0.000160729
-0.000123675
-0.000108061
-0.000152537
-0.000217305
-0.000161045
-0.000317621
-0.000167811
-0.000341662
-0.000160857
-0.000334048
-0.000151908
-0.000304241
-0.000156592
-0.000286086
-0.000166901
-0.00023916
-0.00016089
-0.000177439
-0.000129849
-0.000127565
-0.000101371
-0.000101817
-9.50609e-05
-9.15935e-05
-0.000101144
-7.94698e-05
-0.000105668
-7.91192e-05
-8.17569e-05
-9.11159e-05
-3.99794e-05
-0.000129259
-0.000144142
-1.74093e-05
-0.000122472
-1.21761e-05
-0.00016666
-2.98167e-05
-0.000134988
-0.000112456
-9.8747e-05
-0.000182806
-0.000200345
-0.000199059
-0.000237733
-0.000208397
-0.000246057
-0.0001907
-0.000238709
-0.000156332
-0.000234971
-0.000144077
-0.000286952
-0.000144941
-0.00024176
-0.000141005
-0.000191597
-0.000111068
-0.000123633
-9.09595e-05
-9.32158e-05
-9.30084e-05
-7.38137e-05
-0.000109683
-7.11884e-05
-9.67051e-05
-9.81665e-05
-4.88006e-05
-0.000154878
-0.0001691
8.87278e-05
-0.00010293
6.0418e-05
-0.000138984
4.13984e-05
-0.000121367
1.6732e-05
-8.28119e-05
-4.31942e-05
-7.5029e-05
-0.000133191
-0.000118798
-0.000191931
-0.000179497
-0.000207769
-0.000203215
-0.000164002
-0.00018797
-0.000156698
-0.000181088
-0.000141055
-0.000176563
-0.00013254
-0.000256674
-0.000120192
-0.000224911
-0.00011062
-0.000177388
-0.0001169
-0.000128712
-0.000143613
-0.000106692
-0.000125416
-0.000141643
-7.08219e-05
-0.000243168
-0.000273488
0.000146507
-6.59165e-05
0.000108883
-0.000101894
7.97213e-05
-9.29269e-05
4.8351e-05
-6.56041e-05
1.4896e-05
-4.83072e-05
-5.75472e-05
-6.19178e-05
-0.000117582
-0.000109571
-0.000149748
-0.000155242
-0.000141748
-0.000177347
-9.1067e-05
-0.000175264
-0.000109497
-0.000128679
-0.000144021
-0.000144733
-0.000133231
-0.000117995
-0.000121355
-0.000114582
-0.000121344
-0.000135511
-0.00014051
-0.000149883
-0.000134949
-0.000255743
-8.4272e-05
-0.000312745
-0.000327242
0.000168554
-2.9804e-05
0.000127018
-6.05573e-05
9.4866e-05
-6.10603e-05
7.68115e-05
-4.79634e-05
5.43469e-05
-3.88977e-05
3.42717e-05
-2.95787e-05
-2.4762e-05
-3.89772e-05
-9.58111e-05
-7.88368e-05
-0.000138553
-0.000125957
-0.000154025
-0.000154467
-0.000176847
-0.000136124
-0.000198226
-5.65196e-05
-0.000231719
2.00724e-05
-0.000223717
8.61159e-06
-0.000140426
-5.09121e-05
-8.39225e-05
-8.41224e-05
-5.42161e-05
-0.000226383
-3.00059e-05
-0.000259284
-0.000254069
0.000159009
0.000124615
9.88964e-05
8.35868e-05
6.76925e-05
6.06147e-05
4.81542e-05
-1.0217e-05
-9.14248e-05
-0.000162374
-0.000267567
-0.000353038
-0.000383447
-0.000300237
-0.000153847
-3.46992e-05
-7.00648e-06
9.25131e-06
)
;

boundaryField
{
    leftWall
    {
        type            fixedValue;
        value           nonuniform 0();
    }
    rightWall
    {
        type            fixedValue;
        value           uniform 0;
    }
    lowerWall
    {
        type            fixedValue;
        value           uniform 0;
    }
    atmosphere
    {
        type            calculated;
        value           nonuniform 0();
    }
    defaultFaces
    {
        type            empty;
        value           nonuniform 0();
    }
    procBoundary1to0
    {
        type            processor;
        value           nonuniform List<scalar> 
26
(
3.86582e-06
2.27279e-06
1.40969e-06
2.16166e-06
3.51685e-06
5.01058e-06
6.87088e-06
1.19142e-05
3.57321e-05
-9.5569e-06
5.34238e-05
0.000175086
0.000243574
0.000249906
0.000257631
0.000255671
0.000214102
0.000124084
0.000155256
0.000148518
7.33453e-05
-4.83556e-05
-0.000127435
-0.00015864
-0.000174589
-0.000165448
)
;
    }
    procBoundary1to3
    {
        type            processor;
        value           nonuniform List<scalar> 
23
(
5.14476e-05
4.12787e-05
2.9658e-05
1.77071e-05
-2.63978e-07
-2.61258e-05
-3.53785e-05
-3.26687e-05
-2.65432e-05
-2.44587e-05
-2.00257e-05
-2.76155e-05
-4.4378e-05
-5.99514e-05
-4.64611e-05
3.20817e-05
7.78556e-05
6.47251e-05
-0.000204344
-0.000336438
-0.000521062
-0.000535078
-0.000445981
)
;
    }
}


// ************************************************************************* //
