/*--------------------------------*- C++ -*----------------------------------*\
| =========                 |                                                 |
| \\      /  F ield         | OpenFOAM: The Open Source CFD Toolbox           |
|  \\    /   O peration     | Version:  2.4.0                                 |
|   \\  /    A nd           | Web:      www.OpenFOAM.org                      |
|    \\/     M anipulation  |                                                 |
\*---------------------------------------------------------------------------*/
FoamFile
{
    version     2.0;
    format      ascii;
    class       surfaceScalarField;
    location    "0.8";
    object      phi.mercury;
}
// * * * * * * * * * * * * * * * * * * * * * * * * * * * * * * * * * * * * * //

dimensions      [0 3 -1 0 0 0 0];

internalField   nonuniform List<scalar> 
1061
(
-3.86583e-06
-6.13859e-06
-7.54803e-06
-9.70788e-06
-1.33353e-05
-2.03774e-05
-4.21328e-05
-7.97144e-05
-5.66526e-07
-6.36235e-06
1.75833e-05
-3.63622e-05
2.75414e-05
-3.7487e-05
3.30659e-05
-3.19077e-05
3.62709e-05
-2.75903e-05
3.87203e-05
-2.47983e-05
4.12447e-05
-2.20478e-05
4.40448e-05
-1.93053e-05
4.70375e-05
-1.77289e-05
5.01432e-05
-1.76763e-05
5.34102e-05
-1.85177e-05
5.6155e-05
-1.83661e-05
5.69727e-05
-1.57188e-05
5.38538e-05
-1.05364e-05
4.44755e-05
4.74127e-07
2.70547e-05
1.08935e-05
6.44716e-06
1.32352e-05
-2.76194e-06
2.43383e-06
-8.7859e-06
3.4481e-06
-1.25489e-05
3.07352e-05
-9.78071e-05
4.15067e-05
-0.000120039
4.64704e-05
-0.000110738
4.88062e-05
-9.66879e-05
4.97969e-05
-7.16782e-05
5.07987e-05
-6.60042e-05
5.20749e-05
-6.77428e-05
5.33353e-05
-6.43416e-05
5.44041e-05
-6.17307e-05
5.58562e-05
-6.28456e-05
5.76004e-05
-6.46501e-05
5.83529e-05
-6.41617e-05
5.53273e-05
-1.92756e-05
4.40309e-05
8.20214e-06
2.82634e-05
2.91815e-05
1.28979e-05
3.10011e-05
-1.35856e-06
2.04015e-05
-7.23803e-06
1.748e-05
-9.94226e-05
3.30689e-05
-0.000182019
3.91104e-05
-0.000202509
4.50169e-05
-0.000176476
5.35575e-05
-0.000106535
6.65871e-05
-7.68033e-05
7.22796e-05
-6.99829e-05
7.3331e-05
-7.24417e-05
7.03178e-05
-6.93601e-05
6.5634e-05
-6.5589e-05
6.16176e-05
-6.54434e-05
5.47896e-05
-6.59968e-05
4.62752e-05
-7.55641e-05
3.82541e-05
-4.74562e-05
3.10958e-05
-1.59978e-05
2.45423e-05
2.52587e-05
1.30499e-05
3.96535e-05
1.21796e-06
2.92675e-05
-8.33397e-06
3.0103e-05
-0.000193
2.58039e-05
-0.000210596
2.3463e-05
-0.000209429
3.37391e-05
-0.000134729
5.32509e-05
-4.53011e-05
5.76133e-05
-2.85746e-05
5.84318e-05
-1.98634e-05
5.78534e-05
-1.48367e-05
5.56211e-05
-1.24252e-05
5.22403e-05
-1.20487e-05
4.6677e-05
-1.06287e-05
2.35694e-05
-4.04306e-06
-5.35282e-06
-2.3927e-05
-1.47601e-05
-4.16365e-05
-1.10291e-06
-2.56228e-05
1.35243e-05
2.58623e-06
1.23659e-05
3.99552e-05
5.41209e-06
3.67876e-05
-7.3759e-07
1.97335e-05
-0.000208081
1.95713e-05
-0.000216924
2.21731e-05
-0.000197799
3.55995e-05
-8.59989e-05
4.80328e-05
-4.73122e-05
5.14734e-05
-3.25207e-05
5.10864e-05
-2.10325e-05
4.80155e-05
-1.32265e-05
4.4999e-05
-1.08746e-05
4.33192e-05
-1.55219e-05
4.0915e-05
-1.37891e-05
1.79915e-05
-7.86602e-07
-1.17223e-05
-1.87537e-05
-2.24012e-05
-3.31509e-05
-2.12796e-05
-2.56578e-05
-6.24094e-06
-2.16278e-05
7.30536e-06
2.52542e-05
7.13324e-06
3.7006e-05
4.82937e-06
1.75238e-05
-0.000212878
1.444e-05
-0.000219492
1.55084e-05
-0.000155835
2.61394e-05
-7.03118e-05
3.41232e-05
-5.26604e-05
3.93898e-05
-3.61315e-05
4.10144e-05
-2.17454e-05
4.03937e-05
-1.1533e-05
3.70562e-05
-6.19835e-06
3.57585e-05
-1.21891e-05
3.45437e-05
-1.52284e-05
1.57511e-05
-5.12895e-06
-1.11806e-05
-8.74156e-06
-2.14448e-05
-3.0661e-05
-2.15093e-05
-2.75172e-05
-8.95751e-06
-3.75449e-05
5.52312e-06
7.92193e-06
8.45448e-06
3.39219e-05
1.04728e-05
1.43511e-05
-0.000210597
2.49582e-06
-0.000209541
-1.98682e-06
-0.000117525
1.22251e-05
-8.27551e-05
2.7622e-05
-6.64331e-05
3.61661e-05
-4.35006e-05
3.75941e-05
-2.13165e-05
3.48467e-05
-7.0107e-06
3.0246e-05
3.77967e-06
2.73715e-05
2.49494e-06
2.857e-05
-2.72338e-06
1.95767e-05
3.32214e-06
-4.33063e-06
1.3473e-05
-1.98352e-05
-2.93254e-05
-2.19342e-05
-3.03063e-05
-1.74654e-05
-4.63808e-05
-3.51212e-06
-1.15256e-05
7.18445e-06
2.07996e-05
-6.44157e-06
1.23985e-05
-0.000207497
-2.79004e-06
-0.000192885
-1.28683e-05
-0.00010664
-1.16386e-06
-9.88563e-05
1.42096e-05
-8.31416e-05
2.84455e-05
-5.79313e-05
3.5435e-05
-2.86132e-05
3.45653e-05
-8.90297e-06
2.96918e-05
5.36285e-06
2.43249e-05
7.35462e-06
2.21234e-05
4.22934e-06
2.07621e-05
1.02047e-05
4.3495e-06
2.80835e-05
-1.40234e-05
-2.59698e-05
-1.98788e-05
-2.86479e-05
-2.27794e-05
-5.48843e-05
-1.52954e-05
-3.64632e-05
6.9961e-07
-8.42613e-06
-5.57917e-05
-6.59086e-05
-2.29529e-05
-2.13623e-05
-2.61217e-06
3.51347e-05
-0.000101966
5.68552e-05
-0.000221743
1.16504e-05
-0.000250714
1.19913e-05
-0.000279895
6.93782e-05
-0.000299167
-0.000276988
-8.08795e-06
-3.91766e-05
5.09886e-06
-3.53103e-05
1.78862e-05
-4.47057e-05
-5.1519e-05
3.05979e-05
-3.12354e-05
2.09637e-06
-8.07319e-05
9.11146e-06
-0.000127092
-6.64651e-06
-2.93078e-05
-0.000133698
-0.000125174
6.52817e-06
-0.000152333
-1.30118e-05
-0.000157895
-3.40728e-05
-5.67819e-05
-0.000134492
-0.000219624
-2.13334e-05
-0.000195287
-5.96187e-05
-0.000173928
-7.87211e-05
-9.33605e-05
-0.000161186
-0.000242458
-6.3898e-05
-0.000246627
-8.5948e-05
-0.000255686
-0.000102643
-0.000117968
-0.000259615
-0.00028181
-3.32987e-05
-0.000292218
-5.79226e-05
-0.000297381
-7.38361e-05
-0.000100294
-0.000292963
-0.00037748
3.25633e-05
-0.000373588
1.04919e-05
-0.000263927
-2.03744e-06
-7.28522e-05
-0.000231165
-0.000345414
0.000149334
-0.000327821
6.88017e-05
-0.000168459
2.90417e-05
-5.373e-05
-0.000135554
-0.00022076
0.000112368
-0.000203906
5.224e-05
-0.000195631
2.25155e-05
-3.11932e-05
-6.45807e-05
-0.000181989
8.7112e-05
-0.000176192
4.65111e-05
-0.000169412
1.56899e-05
-2.49291e-05
-0.00012937
-0.000140845
7.92992e-05
-0.000135429
4.11922e-05
-0.00012889
9.11706e-06
-2.20371e-05
-0.00013173
-9.1249e-05
9.66711e-05
-9.66344e-05
4.6597e-05
-9.47911e-05
7.23294e-06
-2.15578e-05
-9.52408e-05
2.53502e-05
0.000120561
5.47595e-06
6.65084e-05
-1.05781e-05
2.33115e-05
-1.19538e-05
-2.01988e-05
0.000137097
0.000111091
0.000130107
7.35834e-05
0.000120924
3.25453e-05
-1.28044e-07
0.000109102
0.000181263
8.87967e-05
0.0001915
6.33543e-05
0.00019136
3.27023e-05
7.00507e-06
0.000184236
0.000196725
6.68927e-05
0.000209116
5.09547e-05
0.000210306
3.15092e-05
1.31721e-05
0.000204148
0.000181042
0.00019081
0.00019269
0.000188123
1.98996e-05
-0.000134487
-1.73609e-05
-0.000138755
-3.30948e-05
-0.000121017
-1.42615e-05
-0.000119733
2.44228e-06
-0.000100555
2.57682e-05
-8.04388e-05
5.20984e-05
-5.22859e-05
6.43488e-05
-1.90371e-05
5.40935e-05
1.70575e-05
3.86577e-05
2.17661e-05
3.37339e-05
1.07529e-05
3.68223e-05
1.10337e-05
1.58486e-05
2.82546e-05
-9.01752e-06
-1.36959e-06
-7.96856e-06
-2.00545e-05
-2.06985e-05
-6.20422e-05
-4.02056e-05
-7.56599e-05
-1.79322e-05
-7.83647e-05
-0.000151294
-9.88221e-05
-0.000123669
-5.13404e-05
-0.000153733
-2.95046e-05
-0.000156575
-2.12437e-05
-0.000130565
-1.84427e-05
-0.000102398
-1.30364e-05
-8.37761e-05
7.15011e-06
-6.98877e-05
3.70814e-05
-4.23373e-05
4.60322e-05
1.43782e-05
2.53017e-05
3.72858e-05
9.97329e-06
2.27744e-05
1.52542e-05
8.81264e-06
1.85893e-05
2.16404e-05
1.35092e-05
3.63503e-05
1.31229e-05
1.13734e-05
2.06665e-05
-2.40334e-05
2.02725e-05
-7.96249e-05
2.99398e-05
-0.000104707
-0.000169097
-9.18333e-05
-0.000191981
-6.05663e-05
-0.000215403
-4.07564e-05
-0.000200902
-3.45459e-05
-0.000169559
-4.00117e-05
-0.000128055
-4.68608e-05
-9.60697e-05
-4.57337e-05
-8.14891e-05
-1.50768e-05
-6.82313e-05
2.02999e-05
-1.52737e-05
1.33213e-05
4.37176e-05
-2.45189e-06
3.19676e-05
-5.35988e-06
8.67059e-06
7.86764e-06
9.97767e-06
2.47967e-05
5.35466e-05
2.67856e-05
6.24264e-05
3.23456e-05
4.16344e-05
4.02578e-05
-6.16615e-05
4.13994e-05
-7.90709e-05
-0.000165762
-0.000153994
-0.00026658
-0.000135145
-0.000315398
-0.000103344
-0.000228551
-8.26676e-05
-0.000184091
-7.88588e-05
-0.000154708
-8.03222e-05
-0.000119671
-8.60043e-05
-0.000104297
-7.34418e-05
-9.40428e-05
-2.59603e-05
-4.98407e-05
1.01492e-06
2.81986e-05
-1.24383e-05
3.87524e-05
-1.73318e-05
1.14704e-05
-7.90159e-06
1.80077e-06
1.4471e-05
3.86275e-05
2.51476e-05
7.84259e-05
2.68869e-05
6.9565e-05
2.61098e-05
-9.71436e-06
3.19034e-05
-5.26696e-05
-0.000155229
-0.000277229
-0.000306004
-0.000243919
-0.000313961
-0.000256111
-0.000211825
-0.000200587
-0.000209454
-0.000160363
-0.000206925
-0.000131788
-0.000169059
-0.000103286
-0.000142584
-7.95725e-05
-0.000115186
-6.00873e-05
-6.50311e-05
-3.53381e-05
-3.53352e-07
-2.76418e-05
2.70114e-05
-2.8654e-05
9.65821e-06
-2.00345e-05
-5.65108e-06
-3.15736e-06
3.56909e-05
3.32194e-06
7.79105e-05
5.60759e-06
6.9647e-05
5.30449e-06
3.24052e-05
1.9672e-05
-8.36531e-05
-0.000144327
-0.000282546
-0.000290558
-0.000241383
-0.000298353
-0.00020569
-0.000296801
-0.000180619
-0.000255163
-0.000168835
-0.000213105
-0.000133701
-0.00018804
-0.000108371
-0.000165711
-8.55036e-05
-0.000130188
-7.35049e-05
-6.5832e-05
-6.44127e-05
-2.85623e-05
-4.95789e-05
3.33864e-06
-4.18344e-05
-3.886e-08
-4.07315e-05
-5.15134e-06
-3.81236e-05
4.57201e-05
-3.49902e-05
7.39665e-05
-2.20311e-05
5.45706e-05
6.45296e-06
2.01466e-05
2.40321e-05
-0.00012981
-0.000132763
-0.000245703
-0.000301682
-0.000227538
-0.000285131
-0.000201744
-0.000287319
-0.000174027
-0.000286525
-0.000170113
-0.000230451
-0.000170285
-0.00019749
-0.00016292
-0.000199015
-0.000123287
-0.000188438
-9.1496e-05
-0.000127058
-8.5234e-05
-5.97258e-05
-7.55158e-05
-1.97012e-05
-6.76447e-05
-2.70036e-06
-6.70057e-05
6.26791e-06
-6.48733e-05
4.50631e-05
-5.76146e-05
5.67983e-05
-2.90228e-05
1.95775e-05
1.08516e-05
-1.92155e-05
2.40248e-05
-0.000145779
-0.000125332
-0.000202218
-0.000261895
-0.000209084
-0.000296339
-0.000206308
-0.000282965
-0.000197421
-0.000280983
-0.000179963
-0.000275386
-0.000195764
-0.000232192
-0.000193401
-0.000216989
-0.000189791
-0.000226378
-0.000132487
-0.000175474
-0.000110587
-0.000116033
-0.000101923
-4.73227e-05
-8.69586e-05
-4.96966e-06
-7.37493e-05
7.20296e-06
-6.50848e-05
2.47394e-05
-4.73407e-05
2.37482e-05
-1.10831e-05
-2.25684e-05
1.28563e-05
-6.34872e-05
2.09699e-05
-0.000149978
-0.000124976
-0.000174894
-0.000154587
-0.000197293
-0.000258169
-0.000201558
-0.000289868
-0.000198875
-0.000278658
-0.000192512
-0.000270595
-0.0001782
-0.000272635
-0.000171413
-0.000261771
-0.000177197
-0.000244762
-0.00016207
-0.000214539
-0.000134106
-0.000170156
-0.000106181
-0.000100891
-8.80471e-05
-2.97438e-05
-7.26126e-05
-6.77396e-06
-4.75247e-05
-7.24523e-06
-1.85616e-05
-2.08414e-05
2.07926e-06
-6.15409e-05
9.27619e-06
-0.00010786
1.49376e-05
-0.000152208
-0.00013559
-0.000127303
-0.000110727
-0.000167335
-0.000148376
-0.000187511
-0.000233215
-0.000191986
-0.000286704
-0.000184531
-0.000272413
-0.000170109
-0.000264262
-0.000154212
-0.000258832
-0.000151599
-0.000248174
-0.000157146
-0.000232963
-0.000149859
-0.000206501
-0.000118892
-0.000159508
-8.62924e-05
-9.7246e-05
-6.20422e-05
-5.2228e-05
-3.9953e-05
-5.62695e-05
-2.55363e-05
-7.40394e-05
-1.72373e-05
-0.000112621
-2.50062e-06
-0.000150052
1.08647e-05
-0.000166439
-0.000163608
-0.000132997
-0.000120224
-0.00010895
-0.000148463
-0.000153349
-0.000133595
-0.000177277
-0.00022942
-0.00017503
-0.000281817
-0.000165019
-0.000270828
-0.000151004
-0.000256689
-0.000144099
-0.000249405
-0.000147192
-0.000236193
-0.000150291
-0.000218528
-0.000136892
-0.00019299
-0.00010418
-0.00016269
-8.60686e-05
-0.000117167
-7.42696e-05
-0.000120814
-5.83649e-05
-0.000135606
-3.9678e-05
-0.000170542
-1.47597e-05
-0.000178285
9.41828e-06
-0.000189808
-0.00018739
-9.20247e-05
-0.000123387
-9.31852e-05
-0.000161941
-8.83187e-05
-0.000142659
-0.000142082
-0.000135457
-0.000160465
-0.00022367
-0.000164268
-0.000276021
-0.000155679
-0.000283922
-0.000146364
-0.000269208
-0.000142553
-0.000252971
-0.000141763
-0.000218784
-0.000132953
-0.000201637
-0.000112516
-0.000190978
-8.67375e-05
-0.000174486
-6.99085e-05
-0.000183212
-5.58802e-05
-0.000185763
-4.05041e-05
-0.000193982
-2.06609e-05
-0.000193589
2.02667e-06
-0.000204504
-0.00019891
-1.81291e-05
-0.000125416
-1.29546e-05
-0.000167078
-2.4358e-05
-0.000136634
-7.41122e-05
-0.000117144
-0.000145093
-0.000127535
-0.000174408
-0.000191707
-0.000178941
-0.000210003
-0.000167324
-0.000197976
-0.000154127
-0.00018018
-0.000140302
-0.000176626
-0.000123122
-0.000219716
-0.000111958
-0.000186885
-9.38481e-05
-0.000190484
-7.32399e-05
-0.000202686
-5.4697e-05
-0.000204949
-4.12534e-05
-0.000203824
-2.8192e-05
-0.00020335
-8.40185e-06
-0.000224292
-0.000223475
8.7807e-05
-0.000104103
5.97704e-05
-0.000139121
4.44969e-05
-0.000121384
1.05424e-05
-8.75425e-05
-4.91906e-05
-9.55391e-05
-0.000114578
-0.000107897
-0.000170605
-0.000162498
-0.000184196
-0.000188147
-0.000172515
-0.000178864
-0.000135173
-0.000152313
-0.000144419
-0.000148041
-0.000117517
-0.000141496
-9.52564e-05
-0.000218787
-7.88691e-05
-0.000219862
-6.48359e-05
-0.000224522
-5.40184e-05
-0.000219896
-3.84544e-05
-0.000257915
-1.90798e-05
-0.000313601
-0.000316384
0.000145852
-6.57285e-05
0.000108188
-0.000101557
7.95939e-05
-9.28482e-05
5.76076e-05
-6.54991e-05
1.27671e-05
-5.10781e-05
-6.48923e-05
-6.16878e-05
-0.000119796
-0.000111804
-0.000151594
-0.000158714
-0.000145407
-0.000180584
-0.000105688
-0.000172357
-9.05161e-05
-0.000154544
-9.87304e-05
-0.000119606
-0.000126658
-9.82068e-05
-0.000110212
-0.000110525
-8.65596e-05
-0.000164269
-7.36411e-05
-0.000195309
-6.44943e-05
-0.000282349
-5.34769e-05
-0.00031869
-0.000316964
0.000167896
-2.94651e-05
0.000126606
-6.03312e-05
9.46824e-05
-6.09991e-05
7.72825e-05
-4.7984e-05
6.47268e-05
-3.8564e-05
3.28618e-05
-3.11287e-05
-3.38294e-05
-3.88511e-05
-9.8638e-05
-7.13144e-05
-0.000142381
-0.000127381
-0.000164755
-0.000156299
-0.000176034
-0.000136318
-0.00024996
-5.0292e-05
-0.000283132
2.40853e-05
-0.000315506
3.5996e-05
-0.000210363
-4.23865e-05
-0.00010025
-0.000130917
-5.07593e-05
-0.000237894
-2.61081e-05
-0.000264939
-0.000255367
0.000158791
0.000124471
9.88371e-05
8.35769e-05
7.16121e-05
6.40765e-05
4.60719e-05
-1.87645e-05
-0.000101771
-0.0001987
-0.000265136
-0.000275916
-0.000386347
-0.000314989
-0.00015513
-3.60015e-05
-7.30657e-06
8.49097e-06
)
;

boundaryField
{
    leftWall
    {
        type            fixedValue;
        value           nonuniform 0();
    }
    rightWall
    {
        type            fixedValue;
        value           uniform 0;
    }
    lowerWall
    {
        type            fixedValue;
        value           uniform 0;
    }
    atmosphere
    {
        type            calculated;
        value           nonuniform 0();
    }
    defaultFaces
    {
        type            empty;
        value           nonuniform 0();
    }
    procBoundary1to0
    {
        type            processor;
        value           nonuniform List<scalar> 
26
(
3.86581e-06
2.27276e-06
1.40943e-06
2.15985e-06
3.587e-06
4.73839e-06
5.94617e-06
8.25217e-06
1.68262e-05
-1.45889e-05
5.71831e-05
0.000173949
0.00024138
0.000257981
0.000266772
0.000159445
0.0002275
0.00025533
0.000206997
0.000148661
7.39719e-05
-4.91187e-05
-0.000127588
-0.000159001
-0.000174847
-0.000165473
)
;
    }
    procBoundary1to3
    {
        type            processor;
        value           nonuniform List<scalar> 
23
(
5.13103e-05
4.11752e-05
2.96291e-05
1.77458e-05
-1.34222e-07
-2.60669e-05
-3.53868e-05
-3.26916e-05
-2.65564e-05
-2.36727e-05
-2.17665e-05
-2.74022e-05
-4.34771e-05
-6.31197e-05
-4.78002e-05
2.81276e-05
7.79925e-05
6.48218e-05
-0.000205511
-0.000336928
-0.000522202
-0.000543029
-0.000463171
)
;
    }
}


// ************************************************************************* //
