/*--------------------------------*- C++ -*----------------------------------*\
| =========                 |                                                 |
| \\      /  F ield         | OpenFOAM: The Open Source CFD Toolbox           |
|  \\    /   O peration     | Version:  2.4.0                                 |
|   \\  /    A nd           | Web:      www.OpenFOAM.org                      |
|    \\/     M anipulation  |                                                 |
\*---------------------------------------------------------------------------*/
FoamFile
{
    version     2.0;
    format      ascii;
    class       volScalarField;
    location    "0.8";
    object      rho;
}
// * * * * * * * * * * * * * * * * * * * * * * * * * * * * * * * * * * * * * //

dimensions      [1 -3 0 0 0 0 0];

internalField   nonuniform List<scalar> 
559
(
13528.9
13528.8
13528.8
13528.8
13528.8
13487.6
11854.4
5207.56
11788.2
11790.8
11792.3
11803.7
11840.5
11968.5
11975
11981.9
11987.6
11988.9
11989.1
11993.6
12000.9
12006
12007.1
12007.9
12008.1
12007.8
12007.1
11788.6
7765
5554.56
5197.84
5418.56
5816.37
6615.99
7627.08
8287.81
8350.67
8136.41
8042.22
8424.51
9231
10979.1
12008.6
12009.1
12007.9
12005.7
8264.31
2957.06
1199.33
884.098
838.428
834.634
842.797
855.284
869.131
878.312
870.687
824.755
728.845
1832.32
5857.78
11319.9
12010
12009
12005
1660.97
1261.4
917.055
848.13
843.236
845.377
853.227
874.388
891.882
892.241
889.523
858.138
765.434
900.71
3254.17
10197.2
12010.5
12010.1
11972.5
1309.84
1065.09
868.357
848.935
857.797
871.782
881.108
884.717
890.008
890.639
872.657
834.439
744.795
1007.21
3348.47
9457.81
12002.6
12008.3
12004.8
1255.26
889.137
731.633
729.049
751.456
802.779
872.088
906.427
906.458
888.654
830.358
808.378
757.605
972.943
3279.06
8875.36
11982.6
11958
11833.4
946.009
668.113
569.754
565.147
580.102
632.471
752.321
870.155
898.818
859.796
860.168
820.228
782.182
835.903
2839.51
8542.43
11807.7
11905.1
10092
1027.84
463.479
508.904
515.798
518.395
532.69
590.837
741.844
872.201
908.028
905.032
875.572
808.286
744.392
2009.74
5187.49
9285.81
10648.2
3620.16
1588.73
961.738
852.84
615.289
499.541
302.584
49.3404
4.07748
2804.35
3103.04
3046.81
2818.29
953.866
808.705
512.034
384.692
646.531
463.955
393.881
473.562
519.244
500.512
500.2
500.212
486.285
488.698
489.393
458.611
161.899
208.87
234.365
167.818
3.8633
3.18326
2.3808
15.1783
1.00409
1.00138
1.02253
4.61712
1.00058
1.00052
1.00047
1.00046
1.00046
1.00042
1.00033
1.00027
1.00049
1.00037
1.0002
1.0002
1.00076
1.00071
1.00044
1.0002
1.00111
1.00122
1.00112
1.00087
1.00132
1.00136
1.00125
1.00109
1.00125
1.00124
1.0011
1.00089
1.00078
1.00068
1.00051
1.00027
1.00023
1.00019
1.00015
1.00011
1016.8
420.724
500.784
505.628
505.698
508.073
519.837
566.718
715.173
869.041
906.53
890.62
825.915
739.996
937.964
1224.01
1927.54
1815.13
939.848
418.386
492.794
499.502
498.976
496.89
495.963
497.735
502.657
546.827
692.339
842.144
846.467
807.625
719.648
621.965
574.324
572.189
566.74
639.458
493.605
493.601
481.239
467.2
475.976
485.99
489.085
492.902
502.072
592.292
745.042
802.379
777.019
707.686
607.648
537.154
540.009
537.287
674.35
488.292
377.694
195.577
140.967
171.509
236.116
303.194
402.303
459.636
488.841
624.481
752.452
764.807
701.483
603.97
536.883
518.779
526.96
741.893
261.429
33.8609
6.93665
6.91886
6.91759
6.91662
8.32226
86.3129
358.622
463.788
568.83
715.821
754.563
688.602
590.039
532.723
521.34
567.89
839.747
95.6639
27.968
22.9935
7.91992
6.92381
6.91759
6.9178
12.1424
177.747
484.266
568.867
675.05
715.117
635.297
564.697
538.285
558.293
668.889
934.736
154.514
334.4
207.802
71.1684
9.40625
6.91993
6.91812
7.18507
98.6871
434.616
571.868
605.542
522.016
550.848
566.882
570.95
653.485
759.262
1003.5
116.4
349.136
351.844
287.819
72.2233
7.77874
6.97317
28.1348
190.886
448.862
563.244
543.087
431.826
413.256
420.525
611.682
735.803
767.651
1033.41
9.77009
129.042
351.749
352.717
282.206
77.0399
48.5855
204.833
432.095
504.358
561.241
582.365
518.008
502.269
592.65
687.428
737.361
809.491
1019.51
1.10327
9.23443
120.808
345.359
362.187
359.593
316.174
422.985
481.101
518.482
560.423
582.954
643.62
671.606
693.055
698.461
732.792
778.502
921.117
1.00038
1.06115
5.63098
91.418
359.613
461.85
470.064
472.263
485.304
506.185
514.183
470.278
390.264
407.407
584.992
697.132
716.704
750.473
826.238
1.00017
1.0003
1.03229
4.07114
58.5125
212.27
283.126
288.369
354.443
449.467
491.818
397.234
256.288
257.161
354.131
677.991
719.366
749.726
793.605
1.00017
1.00007
1.00025
1.01835
1.79192
8.2111
19.3776
24.839
37.6727
129.131
312.571
455.675
535.522
536.994
520.827
620.4
665.539
686.493
699.35
1.00036
1.00007
1.00006
1.00053
1.00338
1.0052
1.00724
1.01366
1.05071
1.93137
25.5527
177.865
373.671
469.064
509.433
541.833
562.037
548.028
538.942
1.00026
1.00009
1.00005
1.00012
1.00028
1.00042
1.00105
1.00134
1.00156
1.00156
1.02696
1.91959
14.8037
79.0554
176.564
245.31
376.408
468.379
489.558
1.00011
1.00006
1.00003
1.00007
1.00022
1.00026
1.00042
1.00101
1.00148
1.00191
1.00183
1.00162
1.00395
1.13925
3.03401
12.6181
120.477
426.818
492.945
1.00006
1.00002
1.00002
1.00004
1.00007
1.00016
1.00019
1.00014
1.00112
1.0019
1.00203
1.00162
1.00138
1.01178
1.48753
6.46394
26.4267
198.832
464.401
)
;

boundaryField
{
    leftWall
    {
        type            calculated;
        value           nonuniform 0();
    }
    rightWall
    {
        type            calculated;
        value           nonuniform List<scalar> 
25
(
12007.1
12005.7
12005
11972.5
12004.8
11833.4
10092
3620.16
939.848
639.458
674.35
741.893
839.747
934.736
1003.5
1033.41
1019.51
921.117
826.238
793.605
699.35
538.942
489.558
492.945
464.401
)
;
    }
    lowerWall
    {
        type            calculated;
        value           nonuniform List<scalar> 
40
(
13528.9
13528.9
13528.8
13528.8
13528.8
13528.8
13487.6
11854.4
5207.56
2804.35
3103.04
3046.81
2818.29
11788.2
11788.6
8264.31
1660.97
1309.84
1255.26
946.009
1027.84
11788.2
11790.8
11792.3
11803.7
11840.5
11968.5
11975
11981.9
11987.6
11988.9
11989.1
11993.6
12000.9
12006
12007.1
12007.9
12008.1
12007.8
12007.1
)
;
    }
    atmosphere
    {
        type            calculated;
        value           nonuniform 0();
    }
    defaultFaces
    {
        type            empty;
    }
    procBoundary1to0
    {
        type            processor;
        value           nonuniform List<scalar> 
26
(
13528.9
13528.9
13529
13528.9
13528.9
13514
12565.1
5858.23
1278.07
973.344
874.858
678.61
534.354
482.103
376.072
212.083
1.20244
1.20244
1.02622
1.00283
1.00095
1.00114
1.00134
1.00127
1.00086
1.00025
)
;
    }
    procBoundary1to3
    {
        type            processor;
        value           nonuniform List<scalar> 
23
(
1.0001
1.00009
1.00006
1.00004
1.00002
1.00001
1.00001
1.00002
1.00004
1.00007
1.00011
1.0001
1.00012
1.00147
1.00187
1.00112
1.00122
1.08218
3.62452
7.86508
4.89209
29.9575
206.494
)
;
    }
}


// ************************************************************************* //
