/*--------------------------------*- C++ -*----------------------------------*\
| =========                 |                                                 |
| \\      /  F ield         | OpenFOAM: The Open Source CFD Toolbox           |
|  \\    /   O peration     | Version:  2.4.0                                 |
|   \\  /    A nd           | Web:      www.OpenFOAM.org                      |
|    \\/     M anipulation  |                                                 |
\*---------------------------------------------------------------------------*/
FoamFile
{
    version     2.0;
    format      ascii;
    class       volVectorField;
    location    "0.8";
    object      U;
}
// * * * * * * * * * * * * * * * * * * * * * * * * * * * * * * * * * * * * * //

dimensions      [0 1 -1 0 0 0 0];

internalField   nonuniform List<vector> 
559
(
(-0.0363106 -0.0114056 0)
(-0.0155325 -0.0313447 0)
(-0.00660148 -0.03531 0)
(-0.0115571 -0.0453834 0)
(-0.0169903 -0.0592815 0)
(-0.0306742 -0.0807281 0)
(-0.0502618 -0.123119 0)
(-0.123908 -0.134068 0)
(-0.139196 -0.147203 0)
(0.132663 -0.186263 0)
(0.269996 -0.184122 0)
(0.353772 -0.193328 0)
(0.400882 -0.19948 0)
(0.432612 -0.195225 0)
(0.460193 -0.184349 0)
(0.488965 -0.171633 0)
(0.518315 -0.167272 0)
(0.554408 -0.167667 0)
(0.584345 -0.167463 0)
(0.625758 -0.169007 0)
(0.645968 -0.15735 0)
(0.630445 -0.144242 0)
(0.573771 -0.10996 0)
(0.443918 -0.0724677 0)
(0.181354 -0.0353678 0)
(-0.0528233 -0.0926877 0)
(-0.0135362 -0.141233 0)
(-0.18447 0.118822 0)
(0.302091 -0.0425826 0)
(0.473697 0.0412418 0)
(0.542158 0.0951537 0)
(0.571727 0.116634 0)
(0.576333 0.111879 0)
(0.574368 0.0962556 0)
(0.583976 0.084137 0)
(0.598225 0.080407 0)
(0.607654 0.0802605 0)
(0.616737 0.0778466 0)
(0.641739 0.084421 0)
(0.647976 0.0934231 0)
(0.634583 0.121507 0)
(0.579663 0.176617 0)
(0.425265 0.20072 0)
(0.229356 0.186159 0)
(0.0387116 0.150677 0)
(-0.0718213 0.080946 0)
(0.0942051 -0.124093 0)
(0.478582 -0.324217 0)
(0.591576 -0.101336 0)
(0.719586 -0.0055815 0)
(0.804685 0.0227513 0)
(0.859383 0.0220336 0)
(0.863976 0.0506053 0)
(0.827383 0.0914397 0)
(0.749949 0.100336 0)
(0.653539 0.0936605 0)
(0.547727 0.0788444 0)
(0.4521 0.0833346 0)
(0.264157 0.149078 0)
(0.133508 0.0403654 0)
(0.262691 0.0776164 0)
(0.337803 0.160607 0)
(0.214224 0.187112 0)
(0.058743 0.1151 0)
(-0.0356049 -0.0938836 0)
(0.384104 -0.0458995 0)
(0.415191 -0.242349 0)
(0.482439 -0.192856 0)
(0.600605 -0.159827 0)
(0.663193 -0.134464 0)
(0.712841 -0.104272 0)
(0.719456 -0.0931909 0)
(0.701859 -0.0990511 0)
(0.666839 -0.0812886 0)
(0.627487 -0.0542028 0)
(0.54731 -0.0388721 0)
(0.451211 -0.0220395 0)
(0.258776 -0.0281226 0)
(0.0668855 0.0362052 0)
(-0.373873 0.11482 0)
(0.125037 0.130056 0)
(0.16411 0.215367 0)
(0.0962293 0.186593 0)
(0.0191759 0.0397701 0)
(0.312547 -0.498805 0)
(0.347127 -0.40862 0)
(0.432583 -0.242267 0)
(0.480667 -0.101735 0)
(0.555513 -0.0317979 0)
(0.607497 0.0257934 0)
(0.614753 0.084084 0)
(0.566793 0.120439 0)
(0.502473 0.13022 0)
(0.470748 0.132672 0)
(0.434865 0.144667 0)
(0.381594 0.187914 0)
(0.225475 0.243382 0)
(-0.067564 0.25369 0)
(-0.453266 0.073142 0)
(-0.255328 -0.0106894 0)
(0.0797204 0.20412 0)
(0.0684625 0.211084 0)
(0.087152 -0.0025152 0)
(0.192267 -0.533618 0)
(0.161861 -0.370782 0)
(0.23174 -0.214961 0)
(0.315874 -0.182087 0)
(0.385111 -0.156735 0)
(0.450433 -0.102607 0)
(0.461823 -0.0544154 0)
(0.453513 -0.0235301 0)
(0.420171 -0.00441297 0)
(0.367638 0.0115255 0)
(0.326985 0.0549621 0)
(0.319042 0.134174 0)
(0.239663 0.246967 0)
(-0.0504516 0.398432 0)
(-0.374238 0.110053 0)
(-0.28033 -0.0964894 0)
(0.0468767 0.0904075 0)
(0.0638956 0.195226 0)
(0.122734 0.0858176 0)
(0.160781 -0.556139 0)
(-0.0526197 -0.398994 0)
(-0.0351078 -0.286525 0)
(0.138886 -0.219771 0)
(0.302325 -0.12494 0)
(0.428683 -0.0229227 0)
(0.446113 0.0528887 0)
(0.402116 0.0994396 0)
(0.342264 0.124392 0)
(0.268877 0.115821 0)
(0.24734 0.110009 0)
(0.252792 0.169663 0)
(0.258196 0.300657 0)
(0.0530078 0.476034 0)
(-0.285738 0.147677 0)
(-0.295827 -0.147579 0)
(-0.116571 0.0206971 0)
(0.0261992 0.181659 0)
(0.136814 0.0860058 0)
(0.0603848 -0.557298 0)
(-0.199379 -0.263764 0)
(-0.12949 -0.290653 0)
(0.004672 -0.297284 0)
(0.127389 -0.226857 0)
(0.311693 -0.117085 0)
(0.417014 0.000724206 0)
(0.404541 0.0519002 0)
(0.336573 0.100387 0)
(0.268521 0.0976252 0)
(0.207723 0.107673 0)
(0.205865 0.176678 0)
(0.226169 0.351229 0)
(0.189925 0.625635 0)
(-0.187591 0.215308 0)
(-0.294244 -0.145965 0)
(-0.26289 -0.0677885 0)
(-0.111085 0.0615604 0)
(0.137087 0.212252 0)
(-0.252323 -0.181364 0)
(0.0472999 -0.139531 0)
(-0.471498 -0.0271644 0)
(-1.27011 0.613213 0)
(-1.46346 0.492912 0)
(-1.38685 0.300737 0)
(-1.3581 0.982442 0)
(-1.18583 1.6218 0)
(-0.164963 -0.599747 0)
(-0.0286399 -0.638769 0)
(-0.00127287 -0.73033 0)
(0.148339 -0.760019 0)
(-0.0792026 0.0262233 0)
(-0.261981 0.214406 0)
(-0.458285 0.215412 0)
(-0.566208 0.064425 0)
(-0.729272 0.187094 0)
(-0.738579 0.343793 0)
(-0.75658 0.187793 0)
(-0.679212 -0.163418 0)
(-1.36159 0.431374 0)
(-1.09853 0.0113106 0)
(-0.876746 -0.262885 0)
(-0.714112 -0.462299 0)
(-1.40092 -0.207968 0)
(-1.35556 -0.637086 0)
(-1.34466 -0.811941 0)
(-1.35575 -0.954931 0)
(-1.4965 -0.00587474 0)
(-1.73596 -0.271525 0)
(-1.99269 -0.527883 0)
(-2.26906 -0.453901 0)
(-2.15714 2.13255 0)
(-2.95538 1.81924 0)
(-3.25944 1.87222 0)
(-3.08999 1.07646 0)
(-1.93015 1.58756 0)
(-1.95639 0.487999 0)
(-1.64527 0.0132821 0)
(-1.50562 -0.616191 0)
(-1.42181 1.60854 0)
(-1.0649 0.844264 0)
(-1.00327 0.501187 0)
(-1.09801 -0.208057 0)
(-1.14552 1.09362 0)
(-0.855719 0.47957 0)
(-0.952323 0.103114 0)
(-0.890899 -0.413999 0)
(-0.8126 0.926732 0)
(-0.632263 0.608089 0)
(-0.785209 0.258163 0)
(-0.638036 -0.1629 0)
(-0.424045 0.791812 0)
(-0.453296 0.307996 0)
(-0.574511 -0.0507025 0)
(-0.482114 -0.351348 0)
(0.221283 1.40563 0)
(0.0757275 0.658757 0)
(-0.00244064 0.176953 0)
(-0.116222 -0.197367 0)
(0.683608 1.48843 0)
(0.72377 0.964966 0)
(0.723377 0.406573 0)
(0.615343 -0.0484783 0)
(0.880695 1.16901 0)
(0.996253 0.825906 0)
(1.06368 0.41125 0)
(1.03009 0.0516445 0)
(0.968916 0.842352 0)
(1.09424 0.62825 0)
(1.13614 0.353789 0)
(1.13059 0.11654 0)
(0.913775 0.626967 0)
(0.998298 0.493494 0)
(1.03682 0.338326 0)
(1.04102 0.175615 0)
(0.100162 -0.400299 0)
(-0.258611 -0.202626 0)
(-0.128057 -0.34449 0)
(-0.0262238 -0.36758 0)
(0.0263553 -0.296491 0)
(0.122994 -0.197928 0)
(0.248561 -0.0227713 0)
(0.354201 0.127031 0)
(0.307945 0.169358 0)
(0.199512 0.143161 0)
(0.140268 0.101409 0)
(0.146442 0.145987 0)
(0.203873 0.305194 0)
(0.297395 0.64619 0)
(0.176491 0.523234 0)
(-0.0936252 0.0326004 0)
(-0.272834 0.049236 0)
(-0.315086 0.183645 0)
(-0.058836 0.138204 0)
(-0.528154 -0.199515 0)
(-0.280722 -0.395293 0)
(-0.0858911 -0.46768 0)
(-0.0475739 -0.389001 0)
(-0.0499915 -0.311978 0)
(-0.0563263 -0.250657 0)
(-0.016453 -0.158981 0)
(0.1418 0.00264346 0)
(0.239976 0.242352 0)
(0.16837 0.247134 0)
(0.00611107 0.154148 0)
(0.0217567 0.138212 0)
(0.0687274 0.251341 0)
(0.235317 0.600672 0)
(0.224919 0.556592 0)
(0.0405296 0.218171 0)
(-0.237266 -0.0351015 0)
(-0.283282 -0.172043 0)
(-0.0324474 -0.219495 0)
(-0.445403 -0.472815 0)
(-0.214344 -0.607554 0)
(-0.109989 -0.566588 0)
(-0.127676 -0.476566 0)
(-0.167936 -0.36927 0)
(-0.233812 -0.273299 0)
(-0.260056 -0.215541 0)
(-0.245105 -0.133426 0)
(0.0596445 0.186585 0)
(0.0581028 0.341808 0)
(-0.0611971 0.214142 0)
(-0.0791251 0.108628 0)
(-0.061516 0.166209 0)
(0.0939109 0.478463 0)
(0.202075 0.576753 0)
(0.111785 0.407868 0)
(0.0602331 0.21295 0)
(-0.198603 0.00622537 0)
(0.00802576 -0.262842 0)
(-0.590146 -0.716478 0)
(-0.54505 -0.806836 0)
(-0.462329 -0.658308 0)
(-0.455953 -0.445862 0)
(-0.425228 -0.325101 0)
(-0.426854 -0.280943 0)
(-0.475734 -0.284809 0)
(-0.517373 -0.320643 0)
(-0.410737 -0.0777034 0)
(-0.0854804 0.348644 0)
(-0.130326 0.264713 0)
(-0.162012 0.112937 0)
(-0.132148 0.0990434 0)
(-0.056316 0.338813 0)
(0.131322 0.541192 0)
(0.0520008 0.434849 0)
(0.0851114 0.284855 0)
(-0.129467 -0.0319801 0)
(0.0903443 -0.334583 0)
(-1.33102 -0.881318 0)
(-1.23339 -0.100309 0)
(-2.02511 0.297285 0)
(-1.94934 0.0649801 0)
(-1.40655 0.235644 0)
(-1.13995 0.484932 0)
(-0.99621 0.497117 0)
(-0.747055 -0.144765 0)
(-0.563772 -0.2219 0)
(-0.384612 0.178348 0)
(-0.215829 0.253874 0)
(-0.236099 0.123677 0)
(-0.181317 0.0623696 0)
(-0.14218 0.233946 0)
(-0.045396 0.486408 0)
(-0.091305 0.445502 0)
(0.0228146 0.325085 0)
(-0.0950286 -0.00717766 0)
(0.10365 -0.33366 0)
(-2.64954 -0.0466865 0)
(-3.51653 0.11874 0)
(-2.39905 -0.801583 0)
(-1.98804 -1.25872 0)
(-1.6291 -1.26881 0)
(-1.28247 -1.03648 0)
(-0.922522 -0.855715 0)
(-1.05621 -0.463508 0)
(-0.77871 -0.243987 0)
(-0.516625 -0.0356153 0)
(-0.379188 0.120787 0)
(-0.289532 0.0686447 0)
(-0.272437 0.0030041 0)
(-0.315185 0.258296 0)
(-0.286489 0.47095 0)
(-0.296254 0.410943 0)
(-0.0593057 0.258623 0)
(-0.0482178 -0.0817229 0)
(0.0930962 -0.321288 0)
(-1.96661 -0.598196 0)
(-1.6664 -1.05626 0)
(-1.40557 -1.01456 0)
(-1.51339 -0.841238 0)
(-1.7371 -0.733339 0)
(-1.44813 -0.59968 0)
(-1.43465 -0.531921 0)
(-1.49382 -0.653633 0)
(-1.05575 -0.403571 0)
(-0.662342 -0.185721 0)
(-0.532573 -0.0192288 0)
(-0.458144 0.0198878 0)
(-0.529062 0.0664987 0)
(-0.498329 0.301533 0)
(-0.43652 0.404078 0)
(-0.38419 0.274883 0)
(-0.051621 0.0883525 0)
(-0.00568206 -0.146444 0)
(0.0806565 -0.297913 0)
(-1.4449 -1.10828 0)
(-1.33442 -1.11725 0)
(-1.39215 -1.0967 0)
(-1.30765 -1.09264 0)
(-1.42862 -0.756086 0)
(-1.525 -0.567993 0)
(-1.48648 -0.64428 0)
(-1.51406 -0.713789 0)
(-1.11416 -0.823962 0)
(-0.776281 -0.396552 0)
(-0.680042 -0.122273 0)
(-0.650019 0.0378195 0)
(-0.705236 0.116115 0)
(-0.650398 0.267715 0)
(-0.586694 0.350815 0)
(-0.284954 0.0466516 0)
(-0.0225111 -0.118317 0)
(-0.0139679 -0.183785 0)
(0.0717069 -0.267475 0)
(-1.34633 -0.727043 0)
(-1.33365 -1.00946 0)
(-1.28679 -1.10919 0)
(-1.33423 -1.07195 0)
(-1.28211 -0.976961 0)
(-1.36777 -0.449879 0)
(-1.15196 -0.285201 0)
(-1.06261 -0.915219 0)
(-0.96588 -0.884038 0)
(-0.861038 -0.596962 0)
(-0.669694 -0.194998 0)
(-0.610683 0.0197603 0)
(-0.611491 0.123301 0)
(-0.555723 0.161638 0)
(-0.305173 0.0713844 0)
(-0.119543 -0.131153 0)
(-0.0163529 -0.177488 0)
(-0.0477849 -0.22002 0)
(0.0313051 -0.245047 0)
(-1.00987 -0.746324 0)
(-1.38997 -0.747609 0)
(-1.27432 -0.966221 0)
(-1.23283 -1.08188 0)
(-1.24626 -1.01084 0)
(-1.08387 -0.922456 0)
(-0.926793 -0.828636 0)
(-0.90729 -0.914072 0)
(-0.949108 -0.891183 0)
(-0.949066 -0.712039 0)
(-0.795418 -0.402917 0)
(-0.558409 -0.079833 0)
(-0.45504 0.00828409 0)
(-0.336373 -0.0274484 0)
(-0.207597 -0.117317 0)
(-0.226734 -0.201576 0)
(-0.176035 -0.199833 0)
(-0.204593 -0.215618 0)
(-0.0361892 -0.2895 0)
(-0.728818 -0.653593 0)
(-0.84182 -0.931456 0)
(-1.24801 -0.742586 0)
(-1.17942 -0.917397 0)
(-1.07656 -1.1053 0)
(-1.01245 -1.04693 0)
(-0.884672 -0.959269 0)
(-0.855731 -0.937213 0)
(-0.911074 -0.87051 0)
(-0.990208 -0.723298 0)
(-0.95378 -0.538995 0)
(-0.7831 -0.291436 0)
(-0.67134 -0.0883294 0)
(-0.638017 -0.0489795 0)
(-0.5812 -0.110898 0)
(-0.530754 -0.14012 0)
(-0.484126 -0.19635 0)
(-0.344489 -0.345639 0)
(-0.086156 -0.451518 0)
(-0.481511 -0.573341 0)
(-0.43659 -0.731694 0)
(-0.568126 -0.884896 0)
(-1.05734 -0.723966 0)
(-1.04408 -0.884792 0)
(-0.993623 -1.05021 0)
(-0.909615 -0.953537 0)
(-0.818718 -0.893901 0)
(-0.860254 -0.820127 0)
(-0.947379 -0.732589 0)
(-1.01703 -0.55262 0)
(-1.01114 -0.276727 0)
(-1.01665 0.0393953 0)
(-0.92565 -0.00142911 0)
(-0.920614 -0.0986784 0)
(-0.656179 -0.301328 0)
(-0.601503 -0.4014 0)
(-0.379925 -0.607503 0)
(-0.136671 -0.703878 0)
(-0.0482342 -0.663611 0)
(-0.122263 -0.86758 0)
(-0.0322389 -0.615171 0)
(-0.186094 -0.778769 0)
(-0.649429 -0.658353 0)
(-0.847421 -0.502171 0)
(-1.00995 -0.655697 0)
(-0.931348 -0.597702 0)
(-0.941691 -0.475011 0)
(-0.949399 -0.610198 0)
(-0.923236 -0.614867 0)
(-0.900722 -0.484711 0)
(-0.749187 -0.318067 0)
(-0.580401 -0.250452 0)
(-0.595141 -0.176314 0)
(-0.678129 -0.297001 0)
(-0.735086 -0.484789 0)
(-0.496152 -0.783228 0)
(-0.196505 -0.870869 0)
(0.600963 -0.526958 0)
(0.417404 -0.712625 0)
(0.237373 -0.664225 0)
(0.193332 -0.426088 0)
(-0.0292064 -0.705747 0)
(-0.440243 -0.89079 0)
(-0.768459 -0.841101 0)
(-0.885301 -0.815524 0)
(-0.847559 -0.513716 0)
(-0.827325 -0.109471 0)
(-0.888904 -0.0676185 0)
(-0.80404 -0.404231 0)
(-0.746101 -0.402455 0)
(-0.669929 -0.287756 0)
(-0.692964 -0.160969 0)
(-0.927798 -0.164963 0)
(-0.995189 -0.453239 0)
(-0.640034 -1.09901 0)
(-0.259384 -1.24786 0)
(0.946992 -0.410616 0)
(0.696342 -0.592572 0)
(0.480847 -0.524738 0)
(0.357548 -0.389554 0)
(0.21769 -0.266096 0)
(-0.0097073 -0.48009 0)
(-0.546838 -0.854448 0)
(-0.787128 -1.01668 0)
(-0.82656 -1.05067 0)
(-0.63335 -0.955213 0)
(-0.349516 -0.617932 0)
(-0.187714 -0.0535416 0)
(-0.247648 0.178267 0)
(-0.746599 -0.171582 0)
(-0.974758 -0.064283 0)
(-1.27656 0.0668752 0)
(-0.990693 -0.998826 0)
(-0.607329 -1.72931 0)
(-0.184101 -1.80037 0)
(1.05296 -0.213697 0)
(0.805591 -0.375247 0)
(0.577168 -0.362591 0)
(0.4377 -0.268453 0)
(0.390523 -0.230996 0)
(0.287441 -0.109823 0)
(0.134434 -0.203099 0)
(-0.342844 -0.53763 0)
(-0.692947 -0.780836 0)
(-0.81177 -0.879773 0)
(-0.887355 -0.881007 0)
(-1.08303 -0.740673 0)
(-1.19369 -0.338941 0)
(-2.28239 0.716961 0)
(-2.67448 1.15232 0)
(-2.16476 1.08962 0)
(-0.656234 -1.25985 0)
(-0.316395 -1.96851 0)
(0.00344368 -1.98077 0)
(0.955085 -0.06019 0)
(0.764745 -0.200388 0)
(0.589959 -0.226862 0)
(0.480567 -0.196578 0)
(0.40854 -0.148193 0)
(0.369743 -0.157843 0)
(0.313661 -0.119561 0)
(0.171549 -0.159259 0)
(-0.199188 -0.333658 0)
(-0.762445 -0.573932 0)
(-1.26682 -0.464567 0)
(-1.81715 0.213647 0)
(-2.02159 0.542953 0)
(-2.13835 0.325537 0)
(-1.71451 -0.854824 0)
(-0.708283 -1.63113 0)
(-0.716755 -1.43198 0)
(-0.249745 -2.02236 0)
(0.100871 -2.13171 0)
)
;

boundaryField
{
    leftWall
    {
        type            calculated;
        value           nonuniform 0();
    }
    rightWall
    {
        type            calculated;
        value           uniform (0 0 0);
    }
    lowerWall
    {
        type            calculated;
        value           uniform (0 0 0);
    }
    atmosphere
    {
        type            calculated;
        value           nonuniform 0();
    }
    defaultFaces
    {
        type            empty;
    }
    procBoundary1to0
    {
        type            processor;
        value           nonuniform List<vector> 
26
(
(-0.0492899 0.00107676 0)
(-0.034389 -0.00909511 0)
(-0.0240692 -0.0152235 0)
(-0.0357768 -0.0302144 0)
(-0.0617579 -0.0492462 0)
(-0.0742274 -0.0484946 0)
(-0.081292 -0.0876807 0)
(-0.102419 -0.0551564 0)
(-0.15845 0.106615 0)
(0.0506814 -0.132291 0)
(-0.112583 0.0951659 0)
(-0.915462 0.437491 0)
(-1.4178 0.673174 0)
(-1.36113 0.575371 0)
(-1.21787 0.642666 0)
(-1.14494 0.842728 0)
(-1.19255 1.86872 0)
(-1.19255 1.86872 0)
(-1.11893 1.82091 0)
(-0.879755 1.74116 0)
(-0.485429 1.78446 0)
(0.237146 1.95926 0)
(0.555105 1.82996 0)
(0.685862 1.47343 0)
(0.787557 1.09642 0)
(0.774792 0.799804 0)
)
;
    }
    procBoundary1to3
    {
        type            processor;
        value           nonuniform List<vector> 
23
(
(0.754224 0.499531 0)
(0.812382 0.41244 0)
(0.834015 0.310088 0)
(0.844263 0.207856 0)
(0.79732 0.0570281 0)
(0.680534 -0.0622189 0)
(0.572097 -0.120341 0)
(0.480404 -0.123889 0)
(0.433459 -0.107695 0)
(0.37563 -0.0770288 0)
(0.33515 -0.103956 0)
(0.282612 -0.0928979 0)
(0.128764 -0.015275 0)
(-0.125619 0.0564002 0)
(-0.857294 0.10876 0)
(-1.15136 0.17674 0)
(-1.16355 0.339502 0)
(-1.12635 0.36102 0)
(-0.742918 -0.269848 0)
(-0.456534 -1.29579 0)
(-0.555599 -1.81046 0)
(-0.865431 -1.89407 0)
(0.0543351 -2.10457 0)
)
;
    }
}


// ************************************************************************* //
