/*--------------------------------*- C++ -*----------------------------------*\
| =========                 |                                                 |
| \\      /  F ield         | OpenFOAM: The Open Source CFD Toolbox           |
|  \\    /   O peration     | Version:  2.4.0                                 |
|   \\  /    A nd           | Web:      www.OpenFOAM.org                      |
|    \\/     M anipulation  |                                                 |
\*---------------------------------------------------------------------------*/
FoamFile
{
    version     2.0;
    format      ascii;
    class       volVectorField;
    location    "0.8";
    object      U.air;
}
// * * * * * * * * * * * * * * * * * * * * * * * * * * * * * * * * * * * * * //

dimensions      [0 1 -1 0 0 0 0];

internalField   nonuniform List<vector> 
559
(
(-0.0363106 -0.0114057 0)
(-0.0155325 -0.0313447 0)
(-0.00660149 -0.03531 0)
(-0.0115571 -0.0453833 0)
(-0.0169903 -0.0592799 0)
(-0.0306867 -0.0797258 0)
(-0.0499489 -0.129906 0)
(-0.110504 -0.24266 0)
(-0.139228 -0.1459 0)
(0.134274 -0.158621 0)
(0.273911 -0.130147 0)
(0.355922 -0.126317 0)
(0.400701 -0.0706531 0)
(0.43269 0.0734232 0)
(0.461074 0.126159 0)
(0.490394 0.104786 0)
(0.519588 0.057337 0)
(0.555509 0.0512831 0)
(0.585443 0.0410995 0)
(0.627191 0.0276006 0)
(0.648652 0.0388309 0)
(0.635707 0.0247046 0)
(0.57217 -0.0627993 0)
(0.421249 -0.0187138 0)
(0.163873 0.0251205 0)
(-0.0524757 -0.0688691 0)
(-0.0132681 -0.123462 0)
(-0.182533 0.125961 0)
(0.296052 -0.0774803 0)
(0.460313 -0.0573132 0)
(0.538568 -0.0028607 0)
(0.595467 0.0567484 0)
(0.588104 0.0110002 0)
(0.517363 -0.0345028 0)
(0.51336 0.133561 0)
(0.544058 0.166254 0)
(0.56324 0.167968 0)
(0.576747 0.179949 0)
(0.604595 0.185058 0)
(0.608952 0.212377 0)
(0.580567 0.281782 0)
(0.521112 0.282367 0)
(0.382238 0.260665 0)
(0.2111 0.244555 0)
(0.0382952 0.173645 0)
(-0.0719133 0.0994406 0)
(0.0887047 -0.135077 0)
(0.409115 -0.546608 0)
(0.516135 -0.423379 0)
(0.674646 -0.177515 0)
(0.788798 -0.0504641 0)
(0.843326 -0.238854 0)
(0.814436 -0.0854073 0)
(0.649788 0.217288 0)
(0.466646 0.208338 0)
(0.349758 0.18132 0)
(0.304117 0.0905118 0)
(0.273745 0.0374711 0)
(0.123711 0.0810655 0)
(0.196938 -0.0630018 0)
(0.163658 0.124746 0)
(0.222155 0.185343 0)
(0.198027 0.202805 0)
(0.0578178 0.125376 0)
(-0.0353177 -0.0738951 0)
(0.376472 -0.406157 0)
(0.3754 -0.531389 0)
(0.442309 -0.340178 0)
(0.600993 -0.132143 0)
(0.667818 -0.077533 0)
(0.707384 -0.0552494 0)
(0.668474 0.203976 0)
(0.596141 0.35073 0)
(0.569709 0.274698 0)
(0.570428 0.266957 0)
(0.511473 0.288218 0)
(0.417429 0.168159 0)
(0.236909 0.0635946 0)
(-0.035387 -0.0163129 0)
(-0.273938 0.0331495 0)
(0.104037 0.135578 0)
(0.155122 0.23033 0)
(0.09661 0.20314 0)
(0.0201027 0.0660041 0)
(0.290846 -0.462267 0)
(0.321474 -0.499709 0)
(0.409565 -0.268918 0)
(0.486157 -0.0369375 0)
(0.559623 0.0160912 0)
(0.603265 0.0646306 0)
(0.592067 0.137596 0)
(0.507048 0.269146 0)
(0.38018 0.298333 0)
(0.280254 0.338623 0)
(0.206453 0.465981 0)
(0.186743 0.448153 0)
(0.159922 0.338806 0)
(-0.140223 0.096298 0)
(-0.349461 -0.0425002 0)
(-0.244168 -0.00758917 0)
(0.0731311 0.217518 0)
(0.0664834 0.223427 0)
(0.0862556 0.0253565 0)
(0.257805 0.13419 0)
(0.312741 0.0337772 0)
(0.312035 0.0641119 0)
(0.338825 -0.0313557 0)
(0.391043 -0.112969 0)
(0.444914 -0.0622175 0)
(0.44561 -0.00990489 0)
(0.408056 0.056423 0)
(0.285354 0.253005 0)
(0.156264 0.292435 0)
(0.0977436 0.338279 0)
(0.036356 0.463701 0)
(0.0629222 0.571798 0)
(-0.137333 0.176133 0)
(-0.311708 -0.0310008 0)
(-0.280977 -0.0473534 0)
(0.0272022 0.106542 0)
(0.0631297 0.206787 0)
(0.12262 0.124875 0)
(0.278825 -0.186464 0)
(0.190896 -0.0117249 0)
(0.13631 0.100524 0)
(0.232392 0.0178708 0)
(0.338485 -0.0894905 0)
(0.424705 -0.00593872 0)
(0.426254 0.0810186 0)
(0.309097 0.208994 0)
(0.153274 0.491261 0)
(0.0616064 0.448018 0)
(0.04887 0.440967 0)
(0.0433478 0.555251 0)
(0.0991778 0.837693 0)
(-0.0739649 0.301368 0)
(-0.267057 -0.000933296 0)
(-0.323195 -0.0349905 0)
(-0.159133 0.0587888 0)
(0.0263807 0.185951 0)
(0.136731 0.0973279 0)
(0.223599 -0.336639 0)
(0.0828417 -0.0906731 0)
(0.0893749 -0.00808432 0)
(0.0813979 -0.0567341 0)
(0.149348 -0.106589 0)
(0.30691 -0.00381301 0)
(0.398445 0.112971 0)
(0.314498 0.224185 0)
(0.135933 0.43176 0)
(0.0486024 0.400295 0)
(0.0235834 0.413581 0)
(0.03987 0.525447 0)
(0.0931355 0.83604 0)
(0.0769659 0.640131 0)
(-0.166702 0.0406893 0)
(-0.291341 -0.114142 0)
(-0.294606 0.0334536 0)
(-0.111939 0.173116 0)
(0.131238 0.0703519 0)
(-0.216239 -0.336335 0)
(0.0250972 -0.024419 0)
(-0.821949 0.255791 0)
(-1.56275 1.06932 0)
(-1.48255 1.15038 0)
(-1.27332 0.670945 0)
(-1.32426 1.06774 0)
(-1.18227 1.62747 0)
(-0.139733 -0.63238 0)
(0.00472429 -0.38649 0)
(0.0579568 -0.385755 0)
(0.489766 -0.490431 0)
(-0.213431 0.221679 0)
(-0.342628 0.531787 0)
(-0.310014 0.607613 0)
(-0.347787 0.393136 0)
(-1.04994 0.375078 0)
(-0.885613 0.646876 0)
(-0.58733 0.421931 0)
(-0.325016 0.0474745 0)
(-1.66752 0.938404 0)
(-1.23848 0.587046 0)
(-0.770477 0.272682 0)
(-0.330734 0.0417878 0)
(-1.42472 0.697359 0)
(-1.40962 0.235871 0)
(-1.2771 0.00284546 0)
(-1.21917 -0.271735 0)
(-1.46649 0.318315 0)
(-1.79023 0.0905276 0)
(-2.17596 -0.150217 0)
(-2.51347 -0.123464 0)
(-2.16032 2.14983 0)
(-2.96106 1.83114 0)
(-3.26379 1.88085 0)
(-3.13406 1.14423 0)
(-1.93015 1.58757 0)
(-1.95638 0.488001 0)
(-1.64529 0.013348 0)
(-1.50788 -0.610061 0)
(-1.42181 1.60854 0)
(-1.0649 0.844264 0)
(-1.00327 0.501187 0)
(-1.09801 -0.208057 0)
(-1.14552 1.09362 0)
(-0.855718 0.479569 0)
(-0.952322 0.103114 0)
(-0.890899 -0.413999 0)
(-0.8126 0.926731 0)
(-0.632263 0.608089 0)
(-0.785209 0.258163 0)
(-0.638036 -0.1629 0)
(-0.424044 0.791811 0)
(-0.453296 0.307996 0)
(-0.574511 -0.0507024 0)
(-0.482114 -0.351348 0)
(0.221283 1.40563 0)
(0.0757274 0.658756 0)
(-0.00244072 0.176952 0)
(-0.116222 -0.197366 0)
(0.683607 1.48843 0)
(0.723768 0.964963 0)
(0.723375 0.406572 0)
(0.615342 -0.0484784 0)
(0.880694 1.16901 0)
(0.996251 0.825904 0)
(1.06368 0.411249 0)
(1.03009 0.0516443 0)
(0.968915 0.84235 0)
(1.09424 0.628249 0)
(1.13614 0.353788 0)
(1.13059 0.11654 0)
(0.913774 0.626966 0)
(0.998298 0.493494 0)
(1.03682 0.338326 0)
(1.04102 0.175615 0)
(0.453895 -0.16981 0)
(-0.00369334 0.041232 0)
(0.15071 -0.0410443 0)
(0.126684 -0.0561393 0)
(0.140012 -0.0107588 0)
(0.179623 0.0945307 0)
(0.208719 0.284729 0)
(0.225171 0.44132 0)
(0.144691 0.517004 0)
(0.0154914 0.419512 0)
(-0.0395817 0.394916 0)
(0.00279953 0.493879 0)
(0.0845221 0.730051 0)
(0.36419 1.06799 0)
(0.184507 0.235546 0)
(-0.180049 -0.129019 0)
(-0.300743 -0.0825112 0)
(-0.391911 0.0126629 0)
(-0.153505 -0.224935 0)
(-0.336741 0.123562 0)
(-0.0441293 0.0372303 0)
(0.103923 -0.046848 0)
(0.040541 0.0147226 0)
(0.0214453 0.0625497 0)
(-0.0177406 0.100362 0)
(-0.0471732 0.171004 0)
(0.0587746 0.345799 0)
(0.0830887 0.557133 0)
(-0.0128283 0.514522 0)
(-0.14098 0.426039 0)
(-0.115473 0.434279 0)
(-0.119247 0.587506 0)
(0.033025 0.984017 0)
(0.11199 0.486435 0)
(-0.0258698 0.107947 0)
(-0.182034 -0.0825932 0)
(-0.437348 -0.00521467 0)
(-0.19961 0.00539678 0)
(-0.0763036 -0.113304 0)
(0.0922815 -0.103231 0)
(0.0455786 -0.0143387 0)
(-0.10388 0.0461703 0)
(-0.173643 0.122462 0)
(-0.267743 0.183251 0)
(-0.315422 0.213015 0)
(-0.335331 0.243939 0)
(-0.125618 0.522588 0)
(-0.278624 0.725197 0)
(-0.381776 0.549218 0)
(-0.222876 0.266774 0)
(-0.190972 0.33711 0)
(-0.091377 0.751852 0)
(0.121231 0.651715 0)
(0.0839171 0.41702 0)
(0.11596 0.241675 0)
(-0.295806 0.301363 0)
(-0.051607 -0.0840637 0)
(-0.178317 -0.128987 0)
(-0.31134 -0.377089 0)
(-0.406029 -0.428007 0)
(-0.464309 -0.254465 0)
(-0.438441 -0.130241 0)
(-0.444491 -0.0642324 0)
(-0.518575 -0.0330965 0)
(-0.621748 -0.0186972 0)
(-0.612697 0.214829 0)
(-0.427949 0.599545 0)
(-0.512524 0.560843 0)
(-0.292561 0.163468 0)
(-0.141905 0.125861 0)
(-0.0666344 0.428103 0)
(0.121133 0.543916 0)
(0.0438089 0.424136 0)
(0.0631378 0.264994 0)
(-0.229487 -0.0108519 0)
(0.0805144 -0.388128 0)
(-1.2179 -0.496393 0)
(-1.2107 -3.0837e-05 0)
(-2.03431 0.318903 0)
(-1.96235 0.081051 0)
(-1.41528 0.253293 0)
(-1.14659 0.50407 0)
(-1.00332 0.517208 0)
(-0.799569 -0.0592465 0)
(-0.78568 -0.0762836 0)
(-0.748724 0.324616 0)
(-0.555712 0.43977 0)
(-0.338692 0.180388 0)
(-0.1758 0.156968 0)
(-0.131516 0.255787 0)
(-0.0365113 0.474332 0)
(-0.0866326 0.434765 0)
(0.024761 0.32786 0)
(-0.123256 0.0611029 0)
(0.112165 -0.386941 0)
(-2.84907 0.214399 0)
(-3.61944 0.194738 0)
(-2.45266 -0.78221 0)
(-2.0025 -1.25882 0)
(-1.64112 -1.26975 0)
(-1.29188 -1.03619 0)
(-0.928353 -0.855014 0)
(-1.07089 -0.461703 0)
(-0.941858 -0.211684 0)
(-0.929555 0.0844659 0)
(-0.70014 0.230314 0)
(-0.491091 0.227887 0)
(-0.493613 0.252377 0)
(-0.512684 0.34246 0)
(-0.355511 0.502766 0)
(-0.294623 0.430792 0)
(-0.0659131 0.264295 0)
(-0.0577796 -0.0744684 0)
(0.1045 -0.393608 0)
(-2.16312 -0.338089 0)
(-1.95418 -0.789133 0)
(-1.51836 -0.859433 0)
(-1.58246 -0.780899 0)
(-1.75341 -0.727329 0)
(-1.45862 -0.594983 0)
(-1.44542 -0.52729 0)
(-1.50554 -0.653027 0)
(-1.16817 -0.40637 0)
(-1.03223 -0.163599 0)
(-0.937378 0.0625788 0)
(-0.725861 0.175452 0)
(-0.81399 0.181174 0)
(-0.909023 0.375038 0)
(-0.809221 0.580389 0)
(-0.668856 0.444483 0)
(-0.213469 0.194668 0)
(-0.106145 -0.0560422 0)
(0.0310502 -0.379274 0)
(-1.5381 -1.03297 0)
(-1.56504 -0.855096 0)
(-1.60809 -0.828964 0)
(-1.45124 -0.915081 0)
(-1.48576 -0.690877 0)
(-1.53278 -0.560891 0)
(-1.49326 -0.63877 0)
(-1.54378 -0.693954 0)
(-1.25804 -0.853993 0)
(-1.12665 -0.459241 0)
(-1.03856 -0.0215939 0)
(-0.945071 0.138766 0)
(-1.02657 0.172205 0)
(-1.001 0.324444 0)
(-0.918868 0.502408 0)
(-0.679683 0.212663 0)
(-0.322473 0.0221861 0)
(-0.196253 -0.157941 0)
(-0.00038926 -0.384044 0)
(-1.35307 -0.715426 0)
(-1.42304 -0.902455 0)
(-1.49111 -0.850212 0)
(-1.55462 -0.79993 0)
(-1.43653 -0.769717 0)
(-1.4211 -0.341734 0)
(-1.16689 -0.204008 0)
(-1.10704 -0.815366 0)
(-1.16179 -0.871974 0)
(-1.13191 -0.515749 0)
(-0.945806 0.0207743 0)
(-0.904074 0.24747 0)
(-0.903321 0.327166 0)
(-0.876412 0.342182 0)
(-0.646041 0.151448 0)
(-0.496551 -0.0617348 0)
(-0.352357 -0.107626 0)
(-0.276762 -0.305111 0)
(-0.0313934 -0.411908 0)
(-1.00989 -0.746198 0)
(-1.39778 -0.737145 0)
(-1.3514 -0.867507 0)
(-1.42159 -0.842516 0)
(-1.44475 -0.723812 0)
(-1.20083 -0.627275 0)
(-0.945388 -0.55499 0)
(-0.940233 -0.625267 0)
(-1.04369 -0.657429 0)
(-1.08847 -0.433133 0)
(-0.996372 -0.101666 0)
(-0.786706 0.261638 0)
(-0.707654 0.420359 0)
(-0.6547 0.399982 0)
(-0.545933 0.189085 0)
(-0.584949 -0.0656652 0)
(-0.498072 -0.195468 0)
(-0.365154 -0.393434 0)
(-0.0647666 -0.490024 0)
(-0.728818 -0.653593 0)
(-0.841857 -0.931451 0)
(-1.2527 -0.737224 0)
(-1.2413 -0.831858 0)
(-1.19847 -0.869954 0)
(-1.0894 -0.700144 0)
(-0.896155 -0.579971 0)
(-0.899204 -0.591328 0)
(-1.02567 -0.521562 0)
(-1.13451 -0.404732 0)
(-1.15281 -0.255745 0)
(-1.0227 -0.0408853 0)
(-0.898492 0.189463 0)
(-0.884993 0.276619 0)
(-0.982064 0.28348 0)
(-1.02686 0.0972223 0)
(-0.843153 -0.210694 0)
(-0.531152 -0.507034 0)
(-0.119779 -0.644486 0)
(-0.481512 -0.573341 0)
(-0.43659 -0.731695 0)
(-0.568122 -0.884865 0)
(-1.05981 -0.719708 0)
(-1.08145 -0.816089 0)
(-1.04206 -0.891816 0)
(-0.914412 -0.76053 0)
(-0.826244 -0.714217 0)
(-0.918927 -0.580496 0)
(-1.08379 -0.41602 0)
(-1.26702 -0.221737 0)
(-1.29564 -0.00115579 0)
(-1.25091 0.2706 0)
(-1.16196 0.205091 0)
(-1.27433 0.0978697 0)
(-1.28248 -0.111178 0)
(-1.03516 -0.400759 0)
(-0.611083 -0.73693 0)
(-0.225818 -0.852016 0)
(-0.0482342 -0.663611 0)
(-0.122263 -0.867581 0)
(-0.032239 -0.615171 0)
(-0.186078 -0.77874 0)
(-0.649151 -0.656432 0)
(-0.846181 -0.479536 0)
(-1.0042 -0.613425 0)
(-0.929985 -0.561301 0)
(-0.952244 -0.418769 0)
(-1.00044 -0.491883 0)
(-1.05675 -0.378945 0)
(-1.12887 -0.0737449 0)
(-0.983622 0.207045 0)
(-0.788752 0.219222 0)
(-0.894972 0.220559 0)
(-1.23101 -0.0426977 0)
(-1.37892 -0.444643 0)
(-0.938893 -0.73884 0)
(-0.328929 -0.782507 0)
(0.600962 -0.526958 0)
(0.417405 -0.712625 0)
(0.237373 -0.664226 0)
(0.193332 -0.426088 0)
(-0.0292035 -0.705743 0)
(-0.440234 -0.890776 0)
(-0.768444 -0.841076 0)
(-0.885272 -0.815474 0)
(-0.847494 -0.513557 0)
(-0.827093 -0.106996 0)
(-0.893668 -0.0153356 0)
(-0.838122 -0.234115 0)
(-0.827997 -0.0680046 0)
(-0.793282 0.213271 0)
(-0.923919 0.447903 0)
(-1.46101 0.433788 0)
(-1.57307 -0.0246532 0)
(-0.880091 -0.662134 0)
(-0.300881 -0.79649 0)
(0.946992 -0.410615 0)
(0.696342 -0.592572 0)
(0.480848 -0.524739 0)
(0.357548 -0.389554 0)
(0.21769 -0.266096 0)
(-0.0097073 -0.48009 0)
(-0.546837 -0.854447 0)
(-0.787127 -1.01668 0)
(-0.826558 -1.05067 0)
(-0.633349 -0.955211 0)
(-0.349485 -0.617893 0)
(-0.186472 -0.0513585 0)
(-0.232863 0.212675 0)
(-0.753147 -0.0537661 0)
(-1.08911 0.148291 0)
(-1.53017 0.460906 0)
(-1.36106 -0.272101 0)
(-0.896329 -1.04008 0)
(-0.284159 -1.18241 0)
(1.05296 -0.213697 0)
(0.805592 -0.375248 0)
(0.577169 -0.362591 0)
(0.4377 -0.268453 0)
(0.390523 -0.230996 0)
(0.287441 -0.109823 0)
(0.134434 -0.203098 0)
(-0.342844 -0.537629 0)
(-0.692946 -0.780835 0)
(-0.811769 -0.879772 0)
(-0.887353 -0.881006 0)
(-1.08303 -0.740672 0)
(-1.19369 -0.33894 0)
(-2.28274 0.717325 0)
(-2.68275 1.16013 0)
(-2.20834 1.15527 0)
(-0.805849 -0.997864 0)
(-0.718842 -1.45234 0)
(-0.20576 -1.4044 0)
(0.955086 -0.0601901 0)
(0.764747 -0.200389 0)
(0.58996 -0.226862 0)
(0.480567 -0.196578 0)
(0.40854 -0.148193 0)
(0.369743 -0.157843 0)
(0.313661 -0.119561 0)
(0.171549 -0.159259 0)
(-0.199188 -0.333657 0)
(-0.762444 -0.573931 0)
(-1.26681 -0.464566 0)
(-1.81715 0.213647 0)
(-2.02158 0.542952 0)
(-2.13838 0.325567 0)
(-1.71597 -0.853929 0)
(-0.714541 -1.62842 0)
(-0.757689 -1.38169 0)
(-0.41885 -1.82006 0)
(-0.064637 -1.67306 0)
)
;

boundaryField
{
    leftWall
    {
        type            fixedValue;
        value           nonuniform 0();
    }
    rightWall
    {
        type            fixedValue;
        value           uniform (0 0 0);
    }
    lowerWall
    {
        type            fixedValue;
        value           uniform (0 0 0);
    }
    atmosphere
    {
        type            fluxCorrectedVelocity;
        value           nonuniform 0();
    }
    defaultFaces
    {
        type            empty;
    }
    procBoundary1to0
    {
        type            processor;
        value           nonuniform List<vector> 
26
(
(-0.0492899 0.00107677 0)
(-0.0343891 -0.00909504 0)
(-0.0240692 -0.0152234 0)
(-0.0357768 -0.0302143 0)
(-0.0617579 -0.0492447 0)
(-0.0742344 -0.0480094 0)
(-0.0812102 -0.0892624 0)
(-0.0905372 -0.140706 0)
(-0.121659 -0.0330946 0)
(0.0395095 -0.0406076 0)
(-0.330256 0.273193 0)
(-1.14389 0.816535 0)
(-1.6408 1.16846 0)
(-1.20271 0.925978 0)
(-1.07882 0.813039 0)
(-1.06132 0.921684 0)
(-1.1923 1.86907 0)
(-1.1923 1.86907 0)
(-1.11891 1.82095 0)
(-0.879752 1.74116 0)
(-0.485428 1.78445 0)
(0.237145 1.95925 0)
(0.555104 1.82996 0)
(0.68586 1.47343 0)
(0.787556 1.09642 0)
(0.774791 0.799803 0)
)
;
    }
    procBoundary1to3
    {
        type            processor;
        value           nonuniform List<vector> 
23
(
(0.754225 0.499531 0)
(0.812383 0.41244 0)
(0.834016 0.310089 0)
(0.844264 0.207856 0)
(0.797321 0.0570282 0)
(0.680535 -0.062219 0)
(0.572098 -0.120342 0)
(0.480405 -0.123889 0)
(0.433459 -0.107695 0)
(0.37563 -0.0770288 0)
(0.33515 -0.103956 0)
(0.282612 -0.0928979 0)
(0.128764 -0.015275 0)
(-0.125619 0.0564001 0)
(-0.857293 0.10876 0)
(-1.15136 0.17674 0)
(-1.16355 0.339502 0)
(-1.12648 0.361312 0)
(-0.745973 -0.261885 0)
(-0.461147 -1.28689 0)
(-0.558468 -1.79959 0)
(-0.923951 -1.82841 0)
(-0.0294894 -1.8765 0)
)
;
    }
}


// ************************************************************************* //
