/*--------------------------------*- C++ -*----------------------------------*\
| =========                 |                                                 |
| \\      /  F ield         | OpenFOAM: The Open Source CFD Toolbox           |
|  \\    /   O peration     | Version:  2.4.0                                 |
|   \\  /    A nd           | Web:      www.OpenFOAM.org                      |
|    \\/     M anipulation  |                                                 |
\*---------------------------------------------------------------------------*/
FoamFile
{
    version     2.0;
    format      ascii;
    class       volVectorField;
    location    "0.8";
    object      U.mercury;
}
// * * * * * * * * * * * * * * * * * * * * * * * * * * * * * * * * * * * * * //

dimensions      [0 1 -1 0 0 0 0];

internalField   nonuniform List<vector> 
559
(
(-0.0363106 -0.0114057 0)
(-0.0155325 -0.0313449 0)
(-0.00660148 -0.0353102 0)
(-0.0115571 -0.0453836 0)
(-0.0169903 -0.0592818 0)
(-0.0306664 -0.0812819 0)
(-0.0491853 -0.148699 0)
(-0.0999882 -0.329376 0)
(-0.139559 -0.171668 0)
(0.129041 -0.212881 0)
(0.263955 -0.21068 0)
(0.349609 -0.217862 0)
(0.399492 -0.222869 0)
(0.432729 -0.216933 0)
(0.4614 -0.206192 0)
(0.490709 -0.193426 0)
(0.51978 -0.189082 0)
(0.555686 -0.189519 0)
(0.585734 -0.189414 0)
(0.627643 -0.191075 0)
(0.649212 -0.179787 0)
(0.636314 -0.167509 0)
(0.584342 -0.132586 0)
(0.457095 -0.0942658 0)
(0.188416 -0.0574641 0)
(-0.0531572 -0.11528 0)
(-0.0140729 -0.16319 0)
(-0.186117 0.0946155 0)
(0.275035 -0.177383 0)
(0.425305 -0.191706 0)
(0.506798 -0.124611 0)
(0.551251 -0.0746403 0)
(0.569266 -0.0529544 0)
(0.578336 -0.0362674 0)
(0.590815 -0.0208831 0)
(0.604591 -0.00899707 0)
(0.614095 -0.00810867 0)
(0.62417 -0.0170386 0)
(0.650759 -0.0139658 0)
(0.657873 0.00202802 0)
(0.651189 0.043547 0)
(0.597367 0.13265 0)
(0.438573 0.177724 0)
(0.236749 0.162638 0)
(0.0390749 0.12872 0)
(-0.0717666 0.059153 0)
(0.0671512 -0.199652 0)
(0.339846 -0.73953 0)
(0.396673 -0.92577 0)
(0.473924 -0.902006 0)
(0.566104 -0.814287 0)
(0.702174 -0.592526 0)
(0.820453 -0.554407 0)
(0.858577 -0.591278 0)
(0.829709 -0.574724 0)
(0.776801 -0.551198 0)
(0.723319 -0.553434 0)
(0.686276 -0.573465 0)
(0.563069 -0.58519 0)
(0.458923 -0.207322 0)
(0.382221 -0.0394213 0)
(0.362377 0.135638 0)
(0.224261 0.168478 0)
(0.0605215 0.0970189 0)
(-0.0359037 -0.113554 0)
(0.366993 -0.805116 0)
(0.309164 -0.984915 0)
(0.265831 -1.0158 0)
(0.312597 -0.823363 0)
(0.561052 -0.284637 0)
(0.646982 -0.189227 0)
(0.671395 -0.155355 0)
(0.672131 -0.139448 0)
(0.653864 -0.123909 0)
(0.622046 -0.107181 0)
(0.574552 -0.101976 0)
(0.50483 -0.0817235 0)
(0.0665805 -0.157199 0)
(-0.172965 -0.237094 0)
(-0.18495 -0.107604 0)
(0.157334 0.0874402 0)
(0.172932 0.194073 0)
(0.0969029 0.163782 0)
(0.018285 0.0177695 0)
(0.228871 -1.01181 0)
(0.21623 -1.04145 0)
(0.223228 -1.02309 0)
(0.348724 -0.505626 0)
(0.51473 -0.170401 0)
(0.576374 -0.0967317 0)
(0.598603 -0.0416251 0)
(0.576275 -0.00411144 0)
(0.534044 0.000234352 0)
(0.505897 -0.016994 0)
(0.486108 -0.00980479 0)
(0.456598 0.0361846 0)
(-0.0072735 -0.09063 0)
(-0.241069 -0.166379 0)
(-0.288323 -0.126633 0)
(-0.220516 -0.0564998 0)
(0.087025 0.185544 0)
(0.0705662 0.190951 0)
(0.0881395 -0.0213905 0)
(0.199397 -1.02683 0)
(0.199386 -1.07095 0)
(0.145997 -0.909141 0)
(0.252627 -0.338686 0)
(0.33468 -0.267406 0)
(0.434836 -0.205891 0)
(0.468546 -0.154594 0)
(0.472754 -0.116925 0)
(0.448399 -0.0986049 0)
(0.41921 -0.124541 0)
(0.399723 -0.11484 0)
(0.397644 -0.0410136 0)
(-0.00274721 -0.08167 0)
(-0.232973 -0.148846 0)
(-0.269795 -0.130704 0)
(-0.246056 -0.157562 0)
(0.0532941 0.0724405 0)
(0.0647301 0.175532 0)
(0.122934 0.0624418 0)
(0.190665 -1.03794 0)
(0.13541 -1.05426 0)
(-0.0806963 -0.631074 0)
(0.0416302 -0.349136 0)
(0.230647 -0.259087 0)
(0.393097 -0.154581 0)
(0.4494 -0.0664663 0)
(0.426818 -0.00146979 0)
(0.378412 0.0337102 0)
(0.324648 0.00951467 0)
(0.322184 -0.0394215 0)
(0.338 -0.0139708 0)
(0.128806 -0.00404104 0)
(-0.212408 -0.152225 0)
(-0.256273 -0.144285 0)
(-0.269441 -0.207778 0)
(-0.11109 -0.000337911 0)
(0.0262635 0.16137 0)
(0.135283 0.0348661 0)
(0.156978 -1.00371 0)
(0.125811 -0.975307 0)
(-0.201557 -0.522232 0)
(-0.083434 -0.43942 0)
(0.0550054 -0.368109 0)
(0.263424 -0.250905 0)
(0.404026 -0.126523 0)
(0.429204 -0.0589997 0)
(0.378731 0.007928 0)
(0.314537 0.0183421 0)
(0.251887 0.0170493 0)
(0.255183 0.0499663 0)
(0.235793 0.13664 0)
(-0.114884 -0.13207 0)
(-0.222425 -0.161098 0)
(-0.249143 -0.254031 0)
(-0.250537 -0.119697 0)
(-0.110932 0.0276173 0)
(0.129834 -0.0904829 0)
(-0.145024 -0.584872 0)
(0.0689839 -0.186752 0)
(-0.464372 -0.0466423 0)
(-1.23894 0.428594 0)
(-1.43763 0.196831 0)
(-1.47239 -0.0984645 0)
(-1.61212 0.293175 0)
(-1.46741 1.18335 0)
(-0.104919 -0.850823 0)
(0.015246 -0.852324 0)
(0.0377261 -0.929077 0)
(0.156902 -0.972081 0)
(-0.0548813 -0.0226001 0)
(-0.260237 0.108739 0)
(-0.596138 -0.0507125 0)
(-0.747507 -0.237067 0)
(-0.619349 0.0734316 0)
(-0.709616 0.11967 0)
(-0.898706 -0.088511 0)
(-0.80329 -0.413332 0)
(-1.26412 0.084697 0)
(-1.11052 -0.399902 0)
(-0.965168 -0.664208 0)
(-0.883153 -0.848334 0)
(-1.36638 -0.597793 0)
(-1.30107 -0.991533 0)
(-1.33596 -1.17383 0)
(-1.36858 -1.33615 0)
(-1.5351 -0.897095 0)
(-1.55643 -1.02666 0)
(-1.60959 -1.24319 0)
(-1.56476 -1.41418 0)
(-1.91414 0.484298 0)
(-2.23202 0.211144 0)
(-2.40179 0.235145 0)
(-1.70157 -1.00527 0)
(-1.9273 1.56606 0)
(-1.95642 0.48396 0)
(-1.63373 -0.0337799 0)
(-1.30575 -1.21641 0)
(-1.42219 1.60755 0)
(-1.06506 0.843399 0)
(-1.00326 0.500475 0)
(-1.09801 -0.209949 0)
(-1.14562 1.09311 0)
(-0.855696 0.479087 0)
(-0.952307 0.102687 0)
(-0.890861 -0.414399 0)
(-0.812742 0.926205 0)
(-0.632271 0.60763 0)
(-0.785213 0.257737 0)
(-0.637984 -0.163277 0)
(-0.424215 0.791397 0)
(-0.453256 0.307601 0)
(-0.574495 -0.0510472 0)
(-0.482064 -0.351663 0)
(0.220863 1.40551 0)
(0.0756566 0.658579 0)
(-0.00236885 0.17675 0)
(-0.116093 -0.197563 0)
(0.683222 1.48855 0)
(0.723574 0.9651 0)
(0.723368 0.406665 0)
(0.615432 -0.0484439 0)
(0.880477 1.16913 0)
(0.996096 0.826041 0)
(1.06361 0.41135 0)
(1.03009 0.0516961 0)
(0.968812 0.842346 0)
(1.09415 0.628244 0)
(1.13609 0.353774 0)
(1.13056 0.116502 0)
(0.91373 0.626903 0)
(0.998268 0.493434 0)
(1.03679 0.33826 0)
(1.041 0.175544 0)
(0.160109 -0.960893 0)
(0.0394783 -0.86262 0)
(-0.245685 -0.495784 0)
(-0.116071 -0.541945 0)
(-0.0408328 -0.457294 0)
(0.0686415 -0.348052 0)
(0.213738 -0.174245 0)
(0.360802 -0.0163012 0)
(0.348749 0.0578588 0)
(0.249366 0.0652118 0)
(0.179079 0.0226615 0)
(0.177984 0.0460723 0)
(0.227921 0.130703 0)
(-0.0324797 -0.110855 0)
(-0.0736996 -0.103776 0)
(-0.0115011 -0.269612 0)
(-0.202133 -0.274737 0)
(-0.245209 -0.17246 0)
(0.062295 -0.608295 0)
(-0.649323 -0.44344 0)
(-0.376915 -0.597335 0)
(-0.199899 -0.690307 0)
(-0.126199 -0.598538 0)
(-0.103185 -0.496717 0)
(-0.0971309 -0.41484 0)
(-0.0438809 -0.318685 0)
(0.120638 -0.158669 0)
(0.280164 0.112597 0)
(0.226687 0.150961 0)
(0.0539095 0.085454 0)
(0.0487666 0.0567347 0)
(0.108213 0.140455 0)
(0.107068 0.101499 0)
(0.0496017 -0.0977622 0)
(0.0871897 -0.326733 0)
(0.141318 -0.437647 0)
(0.0695562 -0.556342 0)
(0.260128 -0.827231 0)
(-0.605471 -0.734543 0)
(-0.41254 -0.875902 0)
(-0.261343 -0.826268 0)
(-0.183324 -0.693462 0)
(-0.183596 -0.530604 0)
(-0.237366 -0.411417 0)
(-0.25707 -0.355801 0)
(-0.244194 -0.259503 0)
(0.0740044 0.0360123 0)
(0.135566 0.213018 0)
(0.0115827 0.133939 0)
(-0.0385572 0.0346683 0)
(-0.0227633 0.078743 0)
(0.105678 0.297745 0)
(0.163897 0.233421 0)
(0.128956 0.11871 0)
(0.237762 -0.344816 0)
(0.185883 -0.475562 0)
(0.266528 -0.823806 0)
(-0.857725 -1.09852 0)
(-0.83552 -1.22366 0)
(-0.660111 -1.21836 0)
(-0.45333 -1.03368 0)
(-0.421112 -0.772186 0)
(-0.413756 -0.585803 0)
(-0.449625 -0.504628 0)
(-0.476543 -0.450858 0)
(-0.347835 -0.197597 0)
(0.0453965 0.209758 0)
(-0.0319102 0.18107 0)
(-0.10504 0.045092 0)
(-0.0874147 0.0228041 0)
(-0.00171258 0.224747 0)
(0.155064 0.388028 0)
(0.110047 0.315438 0)
(0.194388 -0.235119 0)
(0.0762998 -0.27769 0)
(0.24943 -0.777962 0)
(-1.39832 -1.49735 0)
(-1.54315 -1.69025 0)
(-1.48446 -0.946833 0)
(-1.21147 -0.775252 0)
(-0.960498 -0.695707 0)
(-0.785899 -0.488821 0)
(-0.662132 -0.408616 0)
(-0.51816 -0.538506 0)
(-0.433048 -0.316475 0)
(-0.258851 0.0719207 0)
(-0.120284 0.193412 0)
(-0.175912 0.0667982 0)
(-0.13993 -0.00643981 0)
(-0.0850308 0.141434 0)
(0.0527476 0.380411 0)
(-0.0192178 0.348155 0)
(0.0774201 0.154358 0)
(-0.0181347 -0.233852 0)
(0.215531 -0.726047 0)
(-1.55003 -1.47272 0)
(-1.45852 -1.32911 0)
(-1.21519 -1.37647 0)
(-1.12705 -1.31041 0)
(-1.01726 -1.18154 0)
(-0.796999 -1.0151 0)
(-0.622499 -0.841448 0)
(-0.598228 -0.517812 0)
(-0.447304 -0.293604 0)
(-0.396948 -0.0778524 0)
(-0.294947 0.0777468 0)
(-0.236873 0.0252499 0)
(-0.224744 -0.0508921 0)
(-0.226305 0.198829 0)
(-0.172687 0.377796 0)
(-0.212295 0.330475 0)
(-0.0132154 0.168397 0)
(0.0741884 -0.565847 0)
(0.18375 -0.667739 0)
(-1.3261 -1.39487 0)
(-1.29357 -1.40227 0)
(-1.13402 -1.40081 0)
(-1.01199 -1.33397 0)
(-1.05085 -1.09631 0)
(-0.922392 -0.882506 0)
(-0.891307 -0.825045 0)
(-0.882791 -0.761816 0)
(-0.577981 -0.361338 0)
(-0.49451 -0.194208 0)
(-0.442716 -0.0481661 0)
(-0.369378 -0.02475 0)
(-0.37039 0.00110181 0)
(-0.362851 0.250274 0)
(-0.325508 0.33235 0)
(-0.299886 0.197717 0)
(-0.00112246 0.030362 0)
(0.107143 -0.690696 0)
(0.156044 -0.61956 0)
(-1.08792 -1.43084 0)
(-1.0881 -1.38968 0)
(-1.1262 -1.37347 0)
(-1.072 -1.37631 0)
(-1.01023 -1.29784 0)
(-1.0997 -1.12822 0)
(-1.11366 -1.10262 0)
(-1.07161 -1.17734 0)
(-0.867071 -0.861645 0)
(-0.645801 -0.383367 0)
(-0.583729 -0.143426 0)
(-0.512789 -0.00114528 0)
(-0.433041 0.063751 0)
(-0.360697 0.200127 0)
(-0.336611 0.229855 0)
(-0.180095 -0.0195178 0)
(0.0534064 -0.21546 0)
(0.088908 -0.723318 0)
(0.140163 -0.601175 0)
(-1.02891 -1.2756 0)
(-1.02468 -1.4083 0)
(-1.05568 -1.38173 0)
(-1.08608 -1.36526 0)
(-1.03555 -1.32362 0)
(-0.995279 -1.2984 0)
(-0.958133 -1.28267 0)
(-0.924767 -1.2485 0)
(-0.870803 -1.05534 0)
(-0.804619 -0.775771 0)
(-0.630243 -0.304224 0)
(-0.522445 -0.0444616 0)
(-0.435414 0.0105017 0)
(-0.352965 0.04099 0)
(-0.161421 0.0137603 0)
(-0.0372805 -0.192676 0)
(0.0533194 -0.411441 0)
(0.0508996 -0.733893 0)
(0.113091 -0.614291 0)
(-0.996667 -0.792005 0)
(-0.998577 -1.25912 0)
(-0.966857 -1.37587 0)
(-1.01648 -1.35355 0)
(-1.02128 -1.31933 0)
(-0.949749 -1.28925 0)
(-0.860083 -1.25074 0)
(-0.815252 -1.21384 0)
(-0.811441 -1.14371 0)
(-0.829989 -0.986168 0)
(-0.765399 -0.696301 0)
(-0.529913 -0.252427 0)
(-0.399723 -0.0796458 0)
(-0.274444 -0.115145 0)
(-0.145472 -0.222299 0)
(-0.149608 -0.413622 0)
(-0.0506976 -0.639402 0)
(0.0240129 -0.746204 0)
(0.0959836 -0.706491 0)
(-0.728683 -0.65458 0)
(-0.827391 -0.925695 0)
(-0.9526 -1.14629 0)
(-0.923566 -1.37004 0)
(-0.940311 -1.35183 0)
(-0.927788 -1.29741 0)
(-0.844657 -1.23334 0)
(-0.786006 -1.20851 0)
(-0.772533 -1.15999 0)
(-0.801153 -1.06523 0)
(-0.787262 -0.904573 0)
(-0.665646 -0.694193 0)
(-0.499802 -0.421225 0)
(-0.425028 -0.435974 0)
(-0.399013 -0.519923 0)
(-0.288144 -0.705674 0)
(-0.159302 -0.813916 0)
(-0.00489561 -0.868068 0)
(0.107923 -0.87579 0)
(-0.481455 -0.573638 0)
(-0.436518 -0.732428 0)
(-0.56794 -0.895234 0)
(-0.881272 -1.1441 0)
(-0.864824 -1.3826 0)
(-0.876875 -1.36304 0)
(-0.878813 -1.29842 0)
(-0.804106 -1.23679 0)
(-0.773636 -1.17392 0)
(-0.765764 -1.0851 0)
(-0.754097 -0.988607 0)
(-0.662895 -0.900891 0)
(-0.535125 -0.755686 0)
(-0.41376 -0.796172 0)
(-0.357274 -0.85729 0)
(-0.267118 -0.92712 0)
(-0.175367 -0.928016 0)
(-0.0498746 -0.969767 0)
(0.0701816 -0.936797 0)
(-0.0481496 -0.663818 0)
(-0.122232 -0.867782 0)
(-0.0321304 -0.615646 0)
(-0.190056 -0.789504 0)
(-0.780235 -1.08612 0)
(-0.92899 -1.48656 0)
(-0.980509 -1.50206 0)
(-0.949707 -1.39149 0)
(-0.847218 -1.30725 0)
(-0.789996 -1.14763 0)
(-0.738922 -1.04626 0)
(-0.652748 -0.976274 0)
(-0.559696 -0.947992 0)
(-0.44154 -0.952967 0)
(-0.345076 -0.967387 0)
(-0.259654 -0.985837 0)
(-0.187251 -0.967732 0)
(-0.108103 -1.01136 0)
(0.0141597 -0.99399 0)
(0.601038 -0.527033 0)
(0.417436 -0.712764 0)
(0.237394 -0.66436 0)
(0.193499 -0.426531 0)
(-0.0151115 -0.702422 0)
(-0.413565 -0.798954 0)
(-0.858418 -0.852498 0)
(-0.988286 -0.853186 0)
(-0.958897 -0.651891 0)
(-0.907218 -0.646497 0)
(-0.81492 -1.05169 0)
(-0.713885 -0.966915 0)
(-0.607014 -0.995436 0)
(-0.478059 -1.05362 0)
(-0.38176 -1.05726 0)
(-0.319399 -1.02076 0)
(-0.258313 -1.01447 0)
(-0.149563 -1.14972 0)
(-0.0613275 -1.16001 0)
(0.947017 -0.410649 0)
(0.696341 -0.592683 0)
(0.480848 -0.524851 0)
(0.357591 -0.38964 0)
(0.21781 -0.266593 0)
(-0.0127125 -0.488573 0)
(-0.556124 -0.889904 0)
(-0.787842 -1.04106 0)
(-0.829539 -1.05628 0)
(-0.671872 -0.931342 0)
(-0.471878 -0.62896 0)
(-0.510492 -0.507331 0)
(-0.703803 -1.04467 0)
(-0.682912 -1.17944 0)
(-0.535033 -1.17844 0)
(-0.413876 -1.14149 0)
(-0.373839 -1.56003 0)
(-0.307503 -2.02111 0)
(-0.26768 -2.021 0)
(1.05295 -0.213764 0)
(0.805569 -0.375344 0)
(0.577145 -0.362688 0)
(0.43771 -0.268544 0)
(0.390539 -0.231114 0)
(0.287424 -0.110271 0)
(0.132182 -0.207833 0)
(-0.361421 -0.564369 0)
(-0.705417 -0.806334 0)
(-0.826759 -0.90189 0)
(-0.925387 -0.879772 0)
(-1.09881 -0.704034 0)
(-1.40559 -0.086944 0)
(-1.96649 0.306453 0)
(-1.61293 -0.203429 0)
(-0.751924 -0.957633 0)
(-0.273151 -2.04043 0)
(-0.272994 -2.08487 0)
(0.0230999 -2.01791 0)
(0.955059 -0.0602686 0)
(0.764711 -0.200475 0)
(0.589925 -0.226945 0)
(0.480548 -0.196673 0)
(0.408545 -0.148303 0)
(0.369763 -0.157966 0)
(0.313672 -0.120017 0)
(0.171249 -0.160476 0)
(-0.21837 -0.343438 0)
(-0.808833 -0.573143 0)
(-1.32738 -0.498414 0)
(-1.84398 0.181158 0)
(-2.0251 0.528734 0)
(-2.10897 0.290943 0)
(-1.34808 -1.08022 0)
(-0.392483 -1.76867 0)
(-0.124198 -2.16079 0)
(-0.0134044 -2.30562 0)
(0.11261 -2.16539 0)
)
;

boundaryField
{
    leftWall
    {
        type            fixedValue;
        value           nonuniform 0();
    }
    rightWall
    {
        type            fixedValue;
        value           uniform (0 0 0);
    }
    lowerWall
    {
        type            fixedValue;
        value           uniform (0 0 0);
    }
    atmosphere
    {
        type            fluxCorrectedVelocity;
        value           nonuniform 0();
    }
    defaultFaces
    {
        type            empty;
    }
    procBoundary1to0
    {
        type            processor;
        value           nonuniform List<vector> 
26
(
(-0.0492899 0.00107673 0)
(-0.034389 -0.00909514 0)
(-0.0240692 -0.0152235 0)
(-0.0357768 -0.0302144 0)
(-0.0617579 -0.0492462 0)
(-0.0742242 -0.0486958 0)
(-0.0806275 -0.102162 0)
(-0.0807784 -0.210621 0)
(-0.0426496 -0.339706 0)
(0.0856972 -0.202286 0)
(-0.106617 0.0793279 0)
(-0.931497 0.39716 0)
(-1.40017 0.55194 0)
(-1.38748 0.463795 0)
(-1.28624 0.560289 0)
(-1.24558 0.734458 0)
(-1.26613 1.75976 0)
(-1.26613 1.75976 0)
(-1.12894 1.80112 0)
(-0.880486 1.74008 0)
(-0.485898 1.7841 0)
(0.236665 1.95912 0)
(0.554812 1.82997 0)
(0.685692 1.47345 0)
(0.787466 1.09638 0)
(0.774749 0.799735 0)
)
;
    }
    procBoundary1to3
    {
        type            processor;
        value           nonuniform List<vector> 
23
(
(0.754199 0.499462 0)
(0.812356 0.412371 0)
(0.833988 0.310019 0)
(0.844235 0.207784 0)
(0.79729 0.0569548 0)
(0.680498 -0.0622937 0)
(0.572059 -0.120418 0)
(0.480369 -0.123974 0)
(0.433435 -0.107795 0)
(0.375616 -0.0771553 0)
(0.335148 -0.10412 0)
(0.282628 -0.0931638 0)
(0.128883 -0.0166672 0)
(-0.139663 0.0289545 0)
(-0.880768 0.0726144 0)
(-1.17501 0.175844 0)
(-1.16835 0.337903 0)
(-1.05532 0.197828 0)
(-0.468441 -0.982977 0)
(-0.259322 -1.67623 0)
(-0.365511 -2.53067 0)
(-0.113131 -2.73831 0)
(0.164362 -2.404 0)
)
;
    }
}


// ************************************************************************* //
