/*--------------------------------*- C++ -*----------------------------------*\
| =========                 |                                                 |
| \\      /  F ield         | OpenFOAM: The Open Source CFD Toolbox           |
|  \\    /   O peration     | Version:  2.4.0                                 |
|   \\  /    A nd           | Web:      www.OpenFOAM.org                      |
|    \\/     M anipulation  |                                                 |
\*---------------------------------------------------------------------------*/
FoamFile
{
    version     2.0;
    format      ascii;
    class       volVectorField;
    location    "0.8";
    object      U.oil;
}
// * * * * * * * * * * * * * * * * * * * * * * * * * * * * * * * * * * * * * //

dimensions      [0 1 -1 0 0 0 0];

internalField   nonuniform List<vector> 
559
(
(-0.0364267 -0.00146128 0)
(-0.0156677 -0.0200394 0)
(-0.00672167 -0.0235866 0)
(-0.0116944 -0.033525 0)
(-0.0172327 -0.048283 0)
(-0.0307164 -0.0575991 0)
(-0.0526809 -0.0476651 0)
(-0.146824 0.00962016 0)
(-0.136839 0.0116462 0)
(0.155372 -0.0136591 0)
(0.308668 -0.0117381 0)
(0.380674 -0.0328017 0)
(0.410027 -0.0424973 0)
(0.43167 -0.0357748 0)
(0.451209 -0.0231641 0)
(0.475955 -0.0100035 0)
(0.50735 -0.00481457 0)
(0.544844 -0.00474532 0)
(0.573951 -0.00377246 0)
(0.611617 -0.00373511 0)
(0.621503 0.0117318 0)
(0.586084 0.0316049 0)
(0.493829 0.0611256 0)
(0.344187 0.0925017 0)
(0.127884 0.131932 0)
(-0.0502949 0.0783623 0)
(-0.00947356 0.0249618 0)
(-0.174736 0.276198 0)
(0.326188 0.13674 0)
(0.501766 0.191471 0)
(0.558442 0.220637 0)
(0.579515 0.233859 0)
(0.577257 0.226105 0)
(0.56696 0.214267 0)
(0.571796 0.210879 0)
(0.586188 0.212688 0)
(0.596992 0.213468 0)
(0.606109 0.211545 0)
(0.630113 0.219144 0)
(0.633216 0.234508 0)
(0.600904 0.279552 0)
(0.506869 0.357368 0)
(0.32446 0.3749 0)
(0.17334 0.364358 0)
(0.0359601 0.316963 0)
(-0.0722348 0.245803 0)
(0.113491 -0.00917554 0)
(0.521822 -0.216195 0)
(0.62878 -0.00131075 0)
(0.75497 0.0692739 0)
(0.834339 0.0757892 0)
(0.876321 0.062894 0)
(0.872508 0.0839864 0)
(0.825625 0.12994 0)
(0.726739 0.142271 0)
(0.620975 0.136792 0)
(0.510172 0.121704 0)
(0.417597 0.121877 0)
(0.230529 0.179468 0)
(0.0885642 0.0677981 0)
(0.179792 0.159665 0)
(0.217307 0.283115 0)
(0.138151 0.328358 0)
(0.0452628 0.252132 0)
(-0.0333447 0.0548385 0)
(0.401559 0.12338 0)
(0.444452 -0.119971 0)
(0.516328 -0.103077 0)
(0.630527 -0.0944047 0)
(0.693915 -0.0786251 0)
(0.735593 -0.0429326 0)
(0.727184 -0.0243617 0)
(0.698039 -0.0241138 0)
(0.648837 -0.000660387 0)
(0.599379 0.0223768 0)
(0.511421 0.0351483 0)
(0.410293 0.0467684 0)
(0.219661 0.0280512 0)
(0.0398889 0.072503 0)
(-0.42537 0.173808 0)
(0.0309341 0.254213 0)
(0.0972101 0.376863 0)
(0.0911173 0.359618 0)
(0.0257561 0.202201 0)
(0.333086 -0.396986 0)
(0.382642 -0.316131 0)
(0.463617 -0.162131 0)
(0.509563 -0.0328193 0)
(0.578567 0.0395781 0)
(0.628225 0.0960673 0)
(0.621407 0.141676 0)
(0.565317 0.172253 0)
(0.490827 0.183827 0)
(0.449283 0.191507 0)
(0.407831 0.202035 0)
(0.347356 0.246008 0)
(0.185921 0.287002 0)
(-0.0947896 0.28795 0)
(-0.499823 0.128469 0)
(-0.332001 0.0902072 0)
(0.0246433 0.344182 0)
(0.0525259 0.363597 0)
(0.0796854 0.140185 0)
(0.192392 -0.463347 0)
(0.173066 -0.304883 0)
(0.245259 -0.170692 0)
(0.33131 -0.136735 0)
(0.402379 -0.106147 0)
(0.457732 -0.0467426 0)
(0.462176 0.0136174 0)
(0.444095 0.049741 0)
(0.401179 0.0656701 0)
(0.353832 0.0755544 0)
(0.318888 0.1027 0)
(0.298211 0.18647 0)
(0.207254 0.298677 0)
(-0.0757424 0.438015 0)
(-0.402427 0.174826 0)
(-0.342087 0.0135459 0)
(-0.000810107 0.223931 0)
(0.0578015 0.339012 0)
(0.121393 0.242304 0)
(0.101454 -0.628546 0)
(-0.0652428 -0.384386 0)
(-0.0280035 -0.271143 0)
(0.145023 -0.205365 0)
(0.308803 -0.107525 0)
(0.433955 0.00692388 0)
(0.443238 0.102636 0)
(0.388442 0.163328 0)
(0.321956 0.187349 0)
(0.255091 0.160794 0)
(0.230364 0.155228 0)
(0.237963 0.214472 0)
(0.231795 0.366494 0)
(0.0322297 0.520999 0)
(-0.292442 0.210934 0)
(-0.338436 -0.0504321 0)
(-0.152602 0.159038 0)
(0.0257459 0.324319 0)
(0.141083 0.228792 0)
(-0.0726758 -0.582795 0)
(-0.263956 -0.297429 0)
(-0.130325 -0.292065 0)
(0.00757097 -0.293834 0)
(0.130037 -0.222307 0)
(0.314571 -0.108093 0)
(0.417411 0.0226442 0)
(0.392848 0.0988863 0)
(0.313281 0.160357 0)
(0.237566 0.158533 0)
(0.17995 0.166848 0)
(0.186503 0.233782 0)
(0.208946 0.414509 0)
(0.179253 0.677287 0)
(-0.187322 0.261687 0)
(-0.319673 -0.0852904 0)
(-0.288474 0.0396404 0)
(-0.111589 0.181139 0)
(0.139141 0.306978 0)
(-0.293592 -0.0811203 0)
(0.0260836 -0.0844238 0)
(-0.482691 0.00190474 0)
(-1.31503 0.635864 0)
(-1.47025 0.456137 0)
(-1.46373 0.0498998 0)
(-1.67548 0.182467 0)
(-1.76116 0.702784 0)
(-0.205737 -0.499442 0)
(-0.0609546 -0.531659 0)
(-0.0418356 -0.642785 0)
(0.022328 -0.630175 0)
(-0.131206 0.0867379 0)
(-0.329451 0.188844 0)
(-0.544336 0.0511022 0)
(-0.635939 -0.0512979 0)
(-0.693335 0.181182 0)
(-0.722152 0.25018 0)
(-0.807475 0.112693 0)
(-0.701036 -0.175512 0)
(-1.36552 0.417804 0)
(-1.09561 0.00451278 0)
(-0.87623 -0.265209 0)
(-0.718103 -0.464894 0)
(-1.39981 -0.239161 0)
(-1.35395 -0.663475 0)
(-1.348 -0.836875 0)
(-1.3713 -1.02381 0)
(-1.56009 -0.688788 0)
(-1.66115 -0.782447 0)
(-1.78366 -0.966735 0)
(-1.76945 -1.13511 0)
(-1.60464 -0.869649 0)
(-1.6507 -0.914349 0)
(-1.64793 -1.33333 0)
(-1.53376 -1.31986 0)
(-1.70393 -0.215755 0)
(-1.81175 -0.242747 0)
(-1.28699 -1.44885 0)
(-1.19519 -1.45581 0)
(-1.44717 1.30757 0)
(-1.10135 0.685911 0)
(-1.03802 0.27276 0)
(-1.08811 -0.382958 0)
(-1.1713 1.08046 0)
(-0.8786 0.444899 0)
(-0.961881 0.0813318 0)
(-0.886461 -0.50374 0)
(-0.833312 0.878012 0)
(-0.641765 0.565478 0)
(-0.792902 0.223554 0)
(-0.62904 -0.186075 0)
(-0.457564 0.717509 0)
(-0.439462 0.236494 0)
(-0.573832 -0.0887724 0)
(-0.464426 -0.365849 0)
(0.0898647 1.41633 0)
(0.0442558 0.668518 0)
(0.0379756 0.186593 0)
(-0.0482925 -0.185714 0)
(0.543996 1.57819 0)
(0.639592 1.06611 0)
(0.712925 0.512142 0)
(0.655412 0.0440008 0)
(0.772173 1.26383 0)
(0.937673 0.934517 0)
(1.0377 0.503768 0)
(1.03296 0.121577 0)
(0.930306 0.897534 0)
(1.06082 0.676489 0)
(1.1184 0.393009 0)
(1.13026 0.140394 0)
(0.90341 0.639844 0)
(0.991697 0.505959 0)
(1.03398 0.348844 0)
(1.04021 0.183472 0)
(-0.13469 -0.411726 0)
(-0.314234 -0.255189 0)
(-0.129776 -0.346098 0)
(-0.0252099 -0.366342 0)
(0.0271336 -0.295313 0)
(0.124015 -0.195884 0)
(0.250065 -0.017237 0)
(0.351038 0.144542 0)
(0.290529 0.214012 0)
(0.166633 0.2053 0)
(0.110841 0.163862 0)
(0.126628 0.210982 0)
(0.19047 0.367362 0)
(0.297622 0.703836 0)
(0.174188 0.545677 0)
(-0.100316 0.0479808 0)
(-0.28163 0.0890017 0)
(-0.324225 0.225575 0)
(-0.0637269 0.169242 0)
(-0.565991 -0.264895 0)
(-0.285435 -0.403173 0)
(-0.0868487 -0.469757 0)
(-0.0479394 -0.391297 0)
(-0.050551 -0.315302 0)
(-0.0566116 -0.254285 0)
(-0.0159519 -0.161468 0)
(0.142446 0.00238295 0)
(0.235103 0.253134 0)
(0.149462 0.28647 0)
(-0.0211748 0.208196 0)
(0.00445434 0.192606 0)
(0.0557355 0.304675 0)
(0.234102 0.651645 0)
(0.220664 0.570864 0)
(0.0353378 0.217592 0)
(-0.240576 -0.032179 0)
(-0.287851 -0.167702 0)
(-0.0373696 -0.207503 0)
(-0.452991 -0.478936 0)
(-0.219979 -0.617265 0)
(-0.116285 -0.591638 0)
(-0.12913 -0.514836 0)
(-0.167563 -0.394965 0)
(-0.232752 -0.287058 0)
(-0.258738 -0.225607 0)
(-0.243719 -0.139272 0)
(0.0605786 0.185203 0)
(0.0518782 0.358572 0)
(-0.0882432 0.252839 0)
(-0.101106 0.151928 0)
(-0.0787764 0.207485 0)
(0.0848282 0.519753 0)
(0.197362 0.595641 0)
(0.107873 0.409839 0)
(0.0585557 0.215213 0)
(-0.202531 0.011728 0)
(-0.00163503 -0.242575 0)
(-0.603685 -0.734822 0)
(-0.622475 -0.94992 0)
(-0.549784 -1.01937 0)
(-0.434378 -0.937574 0)
(-0.399705 -0.700989 0)
(-0.407024 -0.524462 0)
(-0.447798 -0.448935 0)
(-0.491904 -0.394349 0)
(-0.393083 -0.105493 0)
(-0.0556686 0.331962 0)
(-0.145709 0.287121 0)
(-0.186939 0.146444 0)
(-0.15134 0.135391 0)
(-0.0704554 0.374496 0)
(0.126079 0.560959 0)
(0.0473018 0.439039 0)
(0.0840083 0.286481 0)
(-0.131098 -0.0292038 0)
(0.0855443 -0.314517 0)
(-1.44419 -1.24607 0)
(-1.57668 -1.56896 0)
(-1.25611 -1.50507 0)
(-0.862337 -1.2785 0)
(-0.675943 -1.2405 0)
(-0.583724 -1.11595 0)
(-0.517208 -0.855832 0)
(-0.492307 -0.559607 0)
(-0.475728 -0.280076 0)
(-0.348794 0.163037 0)
(-0.22523 0.266658 0)
(-0.260124 0.148996 0)
(-0.198978 0.0957795 0)
(-0.157369 0.265859 0)
(-0.0544029 0.500364 0)
(-0.095036 0.450021 0)
(0.0217726 0.327523 0)
(-0.097913 -4.5737e-05 0)
(0.0983065 -0.312462 0)
(-1.75752 -1.22925 0)
(-1.62702 -1.27503 0)
(-1.16268 -1.24113 0)
(-0.913572 -1.24683 0)
(-0.624351 -1.18992 0)
(-0.495663 -1.06114 0)
(-0.434868 -0.914404 0)
(-0.411912 -0.542891 0)
(-0.477723 -0.305315 0)
(-0.487684 -0.047901 0)
(-0.390281 0.130525 0)
(-0.306344 0.0890911 0)
(-0.289678 0.0291689 0)
(-0.329783 0.282057 0)
(-0.296711 0.479696 0)
(-0.299496 0.416212 0)
(-0.0610054 0.266866 0)
(-0.0552916 -0.0670252 0)
(0.0879825 -0.300813 0)
(-1.51148 -1.20268 0)
(-1.51717 -1.19512 0)
(-1.23896 -1.24414 0)
(-1.07207 -1.22435 0)
(-0.758031 -1.08849 0)
(-0.570339 -0.991867 0)
(-0.533296 -0.918599 0)
(-0.553002 -0.703084 0)
(-0.580848 -0.395193 0)
(-0.58346 -0.194902 0)
(-0.54157 -0.0147766 0)
(-0.455109 0.0217266 0)
(-0.470139 0.0587358 0)
(-0.481812 0.312323 0)
(-0.446885 0.413137 0)
(-0.394264 0.287045 0)
(-0.060178 0.110198 0)
(-0.015736 -0.128671 0)
(0.0728617 -0.279839 0)
(-1.12783 -1.36471 0)
(-1.22689 -1.23857 0)
(-1.29438 -1.21843 0)
(-1.19577 -1.23142 0)
(-1.06996 -1.16093 0)
(-0.9448 -1.09128 0)
(-0.921739 -1.10117 0)
(-0.988854 -1.05995 0)
(-0.870948 -0.771789 0)
(-0.713499 -0.38829 0)
(-0.684376 -0.125351 0)
(-0.619455 0.0329667 0)
(-0.573333 0.107584 0)
(-0.504667 0.261205 0)
(-0.469691 0.306613 0)
(-0.282662 0.0633046 0)
(-0.0398485 -0.0970759 0)
(-0.0286681 -0.169904 0)
(0.0623787 -0.253476 0)
(-0.962284 -1.39052 0)
(-1.06625 -1.32962 0)
(-1.19346 -1.22795 0)
(-1.23419 -1.19586 0)
(-1.1546 -1.14742 0)
(-1.05389 -1.08351 0)
(-1.00482 -1.09626 0)
(-0.996832 -1.06239 0)
(-0.925669 -0.879339 0)
(-0.845871 -0.600987 0)
(-0.677088 -0.197945 0)
(-0.607878 0.0157294 0)
(-0.544913 0.0811746 0)
(-0.461123 0.123555 0)
(-0.258733 0.0845792 0)
(-0.119167 -0.119739 0)
(-0.032187 -0.164733 0)
(-0.0672123 -0.209958 0)
(0.0203343 -0.236723 0)
(-0.891327 -1.37302 0)
(-0.914475 -1.38696 0)
(-1.02273 -1.28944 0)
(-1.14106 -1.19909 0)
(-1.16283 -1.13216 0)
(-1.03229 -1.05239 0)
(-0.917172 -1.00617 0)
(-0.902331 -0.979056 0)
(-0.943136 -0.911038 0)
(-0.947191 -0.72295 0)
(-0.803403 -0.403432 0)
(-0.56493 -0.0747809 0)
(-0.465211 0.0224452 0)
(-0.346226 -0.0106641 0)
(-0.220959 -0.0888978 0)
(-0.243418 -0.180703 0)
(-0.201862 -0.189777 0)
(-0.225425 -0.215777 0)
(-0.0477836 -0.290563 0)
(-0.692094 -0.65686 0)
(-0.529705 -0.977274 0)
(-0.735355 -1.32969 0)
(-0.890322 -1.31603 0)
(-1.0245 -1.20653 0)
(-1.00389 -1.0886 0)
(-0.884536 -1.00051 0)
(-0.8521 -0.973658 0)
(-0.902221 -0.901163 0)
(-0.98474 -0.739125 0)
(-0.945807 -0.548293 0)
(-0.743101 -0.324265 0)
(-0.567225 -0.20189 0)
(-0.523466 -0.182378 0)
(-0.548259 -0.127164 0)
(-0.560014 -0.115035 0)
(-0.518455 -0.187426 0)
(-0.368409 -0.352176 0)
(-0.0990239 -0.457168 0)
(-0.463985 -0.584202 0)
(-0.429893 -0.769354 0)
(-0.630925 -1.37215 0)
(-0.643576 -1.42915 0)
(-0.747336 -1.42693 0)
(-0.926063 -1.27419 0)
(-0.905543 -1.10898 0)
(-0.812253 -1.033 0)
(-0.833761 -0.925412 0)
(-0.927054 -0.779709 0)
(-0.998463 -0.573428 0)
(-0.900322 -0.369682 0)
(-0.733241 -0.221898 0)
(-0.637918 -0.237634 0)
(-0.643203 -0.229845 0)
(-0.667869 -0.282479 0)
(-0.646053 -0.393384 0)
(-0.409709 -0.62136 0)
(-0.152941 -0.722597 0)
(-0.0201444 -0.661341 0)
(-0.110525 -0.86623 0)
(-0.0363863 -0.639429 0)
(-0.663788 -1.64519 0)
(-0.825901 -1.90977 0)
(-0.931815 -2.08338 0)
(-1.16456 -1.78288 0)
(-0.955883 -1.33254 0)
(-0.80425 -1.19168 0)
(-0.797769 -0.95624 0)
(-0.836557 -0.765178 0)
(-0.859356 -0.558968 0)
(-0.733507 -0.346796 0)
(-0.567917 -0.274963 0)
(-0.553498 -0.221192 0)
(-0.684369 -0.285626 0)
(-0.777469 -0.483244 0)
(-0.516784 -0.806868 0)
(-0.204857 -0.901424 0)
(0.631265 -0.479655 0)
(0.431193 -0.706481 0)
(0.242465 -0.662754 0)
(0.181042 -0.462345 0)
(-0.573677 -1.44725 0)
(-1.52144 -2.54736 0)
(-1.9509 -2.88745 0)
(-2.0208 -2.85057 0)
(-1.48995 -2.13537 0)
(-0.952354 -1.45606 0)
(-0.794839 -1.10146 0)
(-0.740152 -0.71925 0)
(-0.713745 -0.531197 0)
(-0.650491 -0.364981 0)
(-0.674927 -0.215402 0)
(-0.913082 -0.191653 0)
(-0.994472 -0.477346 0)
(-0.63376 -1.1488 0)
(-0.257245 -1.31324 0)
(0.960059 -0.373452 0)
(0.704721 -0.586168 0)
(0.484567 -0.523833 0)
(0.364653 -0.386828 0)
(0.235974 -0.265698 0)
(0.00761393 -0.480598 0)
(-0.527259 -0.843785 0)
(-0.770892 -1.00053 0)
(-0.821485 -1.04094 0)
(-0.723619 -1.01558 0)
(-0.944524 -1.36856 0)
(-0.876634 -1.26144 0)
(-0.784669 -1.06372 0)
(-0.711206 -0.828325 0)
(-0.754179 -0.471101 0)
(-0.999571 -0.368604 0)
(-0.859874 -1.26121 0)
(-0.584936 -1.78366 0)
(-0.180784 -1.8182 0)
(1.05665 -0.202651 0)
(0.809291 -0.371766 0)
(0.579158 -0.362296 0)
(0.439967 -0.2682 0)
(0.396174 -0.232339 0)
(0.290277 -0.116171 0)
(0.135481 -0.209199 0)
(-0.351554 -0.5536 0)
(-0.701185 -0.795424 0)
(-0.823149 -0.884341 0)
(-0.916907 -0.838502 0)
(-1.08811 -0.672706 0)
(-1.17798 -0.532542 0)
(-0.81906 -0.801149 0)
(-0.590271 -0.813522 0)
(-0.325143 -1.68402 0)
(-0.180672 -2.09255 0)
(-0.247161 -2.0573 0)
(0.00647479 -1.98911 0)
(0.955946 -0.05532 0)
(0.765777 -0.199296 0)
(0.5905 -0.226662 0)
(0.481364 -0.196835 0)
(0.410605 -0.14956 0)
(0.372681 -0.159805 0)
(0.315376 -0.120702 0)
(0.173319 -0.160335 0)
(-0.209422 -0.337943 0)
(-0.803503 -0.563349 0)
(-1.36493 -0.430132 0)
(-1.85435 0.130261 0)
(-1.88792 0.266441 0)
(-0.783046 -0.996559 0)
(-0.224089 -1.76865 0)
(-0.142956 -1.87545 0)
(0.0456544 -2.36854 0)
(0.00769191 -2.33033 0)
(0.113587 -2.16695 0)
)
;

boundaryField
{
    leftWall
    {
        type            fixedValue;
        value           nonuniform 0();
    }
    rightWall
    {
        type            fixedValue;
        value           uniform (0 0 0);
    }
    lowerWall
    {
        type            fixedValue;
        value           uniform (0 0 0);
    }
    atmosphere
    {
        type            fluxCorrectedVelocity;
        value           nonuniform 0();
    }
    defaultFaces
    {
        type            empty;
    }
    procBoundary1to0
    {
        type            processor;
        value           nonuniform List<vector> 
26
(
(-0.0494367 0.00790729 0)
(-0.0345511 -0.00279294 0)
(-0.0241992 -0.010274 0)
(-0.0359523 -0.0244412 0)
(-0.0621017 -0.0421743 0)
(-0.0743183 -0.0397099 0)
(-0.0820288 -0.0610763 0)
(-0.111915 -0.0235637 0)
(-0.185733 0.177363 0)
(0.0233157 -0.0552726 0)
(-0.135448 0.151904 0)
(-0.95884 0.479089 0)
(-1.42781 0.668127 0)
(-1.37562 0.550648 0)
(-1.26761 0.583016 0)
(-1.26115 0.73481 0)
(-1.79953 0.975696 0)
(-1.79953 0.975696 0)
(-1.53426 1.0175 0)
(-1.12609 1.41706 0)
(-0.625417 1.71089 0)
(0.0727691 1.96428 0)
(0.407609 1.88798 0)
(0.580295 1.53608 0)
(0.736839 1.13432 0)
(0.7617 0.811107 0)
)
;
    }
    procBoundary1to3
    {
        type            processor;
        value           nonuniform List<vector> 
23
(
(0.751403 0.500459 0)
(0.810609 0.41401 0)
(0.833638 0.31166 0)
(0.843898 0.208734 0)
(0.79726 0.0576192 0)
(0.680634 -0.0621084 0)
(0.572187 -0.120503 0)
(0.480552 -0.124262 0)
(0.433904 -0.108563 0)
(0.37663 -0.0791483 0)
(0.336736 -0.107686 0)
(0.284255 -0.0962087 0)
(0.131336 -0.0204127 0)
(-0.140947 0.0397808 0)
(-0.924663 0.0944302 0)
(-1.23383 0.148737 0)
(-1.17036 0.121646 0)
(-0.327174 -1.41931 0)
(-0.164933 -1.7758 0)
(-0.12575 -1.93369 0)
(-0.190644 -3.1924 0)
(0.0844788 -2.95989 0)
(0.174061 -2.43033 0)
)
;
    }
}


// ************************************************************************* //
