/*--------------------------------*- C++ -*----------------------------------*\
| =========                 |                                                 |
| \\      /  F ield         | OpenFOAM: The Open Source CFD Toolbox           |
|  \\    /   O peration     | Version:  2.4.0                                 |
|   \\  /    A nd           | Web:      www.OpenFOAM.org                      |
|    \\/     M anipulation  |                                                 |
\*---------------------------------------------------------------------------*/
FoamFile
{
    version     2.0;
    format      ascii;
    class       volVectorField;
    location    "0.8";
    object      U.water;
}
// * * * * * * * * * * * * * * * * * * * * * * * * * * * * * * * * * * * * * //

dimensions      [0 1 -1 0 0 0 0];

internalField   nonuniform List<vector> 
559
(
(-0.0363107 -0.0114042 0)
(-0.0155326 -0.0313398 0)
(-0.0066018 -0.0352947 0)
(-0.0115582 -0.0437668 0)
(-0.017155 -0.0407055 0)
(-0.0330147 0.0869666 0)
(-0.0572489 0.0428712 0)
(-0.135903 -0.0356694 0)
(-0.136761 -0.0486997 0)
(0.172648 -0.0142657 0)
(0.320723 -0.0118936 0)
(0.389389 -0.0334722 0)
(0.416652 -0.0450954 0)
(0.435416 -0.0399061 0)
(0.454991 -0.0262226 0)
(0.481082 -0.0106292 0)
(0.511896 -0.0038996 0)
(0.548023 -0.00393682 0)
(0.576359 -0.00263295 0)
(0.614652 -0.0213441 0)
(0.634962 -0.0609555 0)
(0.628069 -0.110986 0)
(0.578424 -0.0941039 0)
(0.44819 -0.0759609 0)
(0.182642 -0.0344004 0)
(-0.052251 -0.0616109 0)
(-0.0125646 -0.0934997 0)
(-0.148431 0.258975 0)
(0.357852 0.0931377 0)
(0.507186 0.168657 0)
(0.568072 0.202623 0)
(0.594101 0.218434 0)
(0.591072 0.215422 0)
(0.581038 0.206279 0)
(0.585008 0.203689 0)
(0.594981 0.206549 0)
(0.600761 0.20793 0)
(0.607417 0.205313 0)
(0.62806 0.212704 0)
(0.631093 0.230588 0)
(0.602595 0.276077 0)
(0.512864 0.34843 0)
(0.415141 0.208141 0)
(0.227889 0.188673 0)
(0.0376045 0.187429 0)
(-0.0718999 0.152089 0)
(0.148219 -0.0226219 0)
(0.497847 -0.254013 0)
(0.581318 -0.1153 0)
(0.703014 -0.0382126 0)
(0.789486 -0.00393566 0)
(0.850808 0.00147226 0)
(0.860027 0.0352828 0)
(0.828925 0.0749907 0)
(0.761027 0.0836795 0)
(0.668829 0.0768873 0)
(0.565688 0.0606077 0)
(0.475318 0.0592056 0)
(0.313672 0.107588 0)
(0.1399 0.0619532 0)
(0.171759 0.145146 0)
(0.269015 0.221644 0)
(0.204406 0.191195 0)
(0.0565655 0.141744 0)
(-0.034905 -0.0240668 0)
(0.379039 -0.0398036 0)
(0.408678 -0.256019 0)
(0.469666 -0.224827 0)
(0.587162 -0.189204 0)
(0.649108 -0.160071 0)
(0.702614 -0.131857 0)
(0.716265 -0.122003 0)
(0.703291 -0.124738 0)
(0.671887 -0.103827 0)
(0.63526 -0.0754283 0)
(0.557545 -0.0600464 0)
(0.467503 -0.049456 0)
(0.293888 -0.078449 0)
(0.159627 -0.0413843 0)
(-0.392106 0.1824 0)
(0.0674489 0.210694 0)
(0.151551 0.22736 0)
(0.0961245 0.224099 0)
(0.0219775 0.125643 0)
(0.308354 -0.514446 0)
(0.335224 -0.432454 0)
(0.41925 -0.276067 0)
(0.468009 -0.131914 0)
(0.546313 -0.060286 0)
(0.60031 0.00142235 0)
(0.612665 0.0659904 0)
(0.56726 0.104777 0)
(0.505854 0.114929 0)
(0.476995 0.115931 0)
(0.44502 0.123937 0)
(0.398832 0.158761 0)
(0.268316 0.196547 0)
(0.0553601 0.192111 0)
(-0.476169 0.140716 0)
(-0.296839 0.044502 0)
(0.0694588 0.216851 0)
(0.0647456 0.245052 0)
(0.0837606 0.0616958 0)
(0.187651 -0.586312 0)
(0.149446 -0.421282 0)
(0.21545 -0.267963 0)
(0.297551 -0.235977 0)
(0.367986 -0.206911 0)
(0.445661 -0.139138 0)
(0.461702 -0.0779303 0)
(0.455699 -0.0405151 0)
(0.424639 -0.0207311 0)
(0.376814 -0.0108668 0)
(0.349619 0.0158397 0)
(0.34431 0.0911152 0)
(0.271557 0.196459 0)
(0.056986 0.333681 0)
(-0.403375 0.186623 0)
(-0.313595 -0.0403019 0)
(0.0360762 0.109916 0)
(0.0625938 0.22956 0)
(0.121956 0.161672 0)
(0.128328 -0.715126 0)
(-0.0841963 -0.527281 0)
(-0.0868559 -0.399332 0)
(0.0972904 -0.31754 0)
(0.26813 -0.216856 0)
(0.413992 -0.106106 0)
(0.448947 0.00388122 0)
(0.406957 0.0769315 0)
(0.350192 0.104017 0)
(0.288563 0.0797975 0)
(0.266929 0.0740374 0)
(0.276848 0.119561 0)
(0.279703 0.246094 0)
(0.127305 0.388742 0)
(-0.280361 0.225552 0)
(-0.324789 -0.0828165 0)
(-0.128483 0.0597535 0)
(0.0265937 0.226048 0)
(0.141428 0.211221 0)
(0.0294282 -0.691528 0)
(-0.3765 -0.405972 0)
(-0.216251 -0.392655 0)
(-0.0871803 -0.408788 0)
(0.0561902 -0.349333 0)
(0.269949 -0.247646 0)
(0.415226 -0.0986412 0)
(0.417107 0.00153327 0)
(0.347317 0.0761592 0)
(0.277922 0.081179 0)
(0.217081 0.0897205 0)
(0.218584 0.146457 0)
(0.239843 0.301144 0)
(0.220266 0.528822 0)
(-0.0847654 0.318581 0)
(-0.307622 -0.0758109 0)
(-0.285831 0.0399159 0)
(-0.116338 0.174035 0)
(0.155694 0.336936 0)
(-0.256138 -0.164442 0)
(0.049065 -0.144131 0)
(-0.454064 -0.0476957 0)
(-1.11254 0.492517 0)
(-1.31631 0.500056 0)
(-1.37817 0.345094 0)
(-1.51305 0.526627 0)
(-1.79689 1.03279 0)
(-0.173473 -0.560147 0)
(-0.036089 -0.600879 0)
(-0.00657643 -0.706134 0)
(0.160474 -0.765218 0)
(-0.0738207 0.0198667 0)
(-0.231615 0.183796 0)
(-0.46201 0.1076 0)
(-0.840178 -0.124871 0)
(-0.611185 0.109814 0)
(-0.583216 0.21004 0)
(-0.896619 0.109033 0)
(-0.915191 -0.392635 0)
(-1.16058 0.33836 0)
(-1.10684 -0.226373 0)
(-1.03512 -0.662524 0)
(-0.811158 -0.804324 0)
(-1.41614 -0.709689 0)
(-1.32674 -1.07807 0)
(-1.27547 -1.19699 0)
(-1.29927 -1.33412 0)
(-1.45952 -1.28002 0)
(-1.39429 -1.35334 0)
(-1.38673 -1.4378 0)
(-1.3459 -1.5534 0)
(-1.86118 -0.367934 0)
(-1.59945 -1.12089 0)
(-1.44853 -1.34241 0)
(-1.30435 -1.58174 0)
(-1.9248 1.54001 0)
(-1.944 0.414285 0)
(-1.6324 -0.0909989 0)
(-1.37094 -1.16657 0)
(-1.42318 1.60474 0)
(-1.06725 0.840086 0)
(-1.003 0.501127 0)
(-1.09716 -0.215703 0)
(-1.14633 1.09166 0)
(-0.856156 0.477964 0)
(-0.952636 0.102125 0)
(-0.8907 -0.415947 0)
(-0.814162 0.924454 0)
(-0.632589 0.606449 0)
(-0.785355 0.256755 0)
(-0.637782 -0.164517 0)
(-0.425813 0.789429 0)
(-0.452884 0.305556 0)
(-0.574458 -0.0523785 0)
(-0.481262 -0.352596 0)
(0.217811 1.4052 0)
(0.0754541 0.659736 0)
(0.000694689 0.176846 0)
(-0.110821 -0.197107 0)
(0.681641 1.49144 0)
(0.71964 0.973466 0)
(0.724396 0.418636 0)
(0.621 -0.0382749 0)
(0.878099 1.17343 0)
(0.991611 0.83585 0)
(1.06156 0.424486 0)
(1.03165 0.0640263 0)
(0.966851 0.845047 0)
(1.09105 0.633322 0)
(1.13436 0.359626 0)
(1.13024 0.119992 0)
(0.913269 0.62742 0)
(0.997899 0.494015 0)
(1.03673 0.338782 0)
(1.04097 0.175986 0)
(0.0402944 -0.589276 0)
(-0.438145 -0.382719 0)
(-0.226428 -0.477697 0)
(-0.133485 -0.515962 0)
(-0.0540632 -0.433125 0)
(0.0573406 -0.343439 0)
(0.21372 -0.165275 0)
(0.37587 0.0108376 0)
(0.331313 0.109601 0)
(0.211326 0.120899 0)
(0.14725 0.0867269 0)
(0.152938 0.125821 0)
(0.213729 0.263451 0)
(0.298989 0.563908 0)
(0.251923 0.517226 0)
(-0.0083693 0.153213 0)
(-0.27156 0.105388 0)
(-0.285106 0.182086 0)
(-0.0458002 0.0585314 0)
(-0.77706 -0.437943 0)
(-0.362875 -0.662832 0)
(-0.188393 -0.702601 0)
(-0.121109 -0.604149 0)
(-0.111926 -0.507751 0)
(-0.12922 -0.422936 0)
(-0.0693843 -0.331284 0)
(0.125543 -0.16778 0)
(0.288745 0.134823 0)
(0.198893 0.183807 0)
(0.0188156 0.129 0)
(0.0297357 0.113526 0)
(0.0790823 0.215018 0)
(0.239348 0.530297 0)
(0.247224 0.500548 0)
(0.137107 0.271951 0)
(-0.160795 -0.0841228 0)
(-0.204269 -0.244667 0)
(-1.4173e-05 -0.294301 0)
(-0.593588 -0.745039 0)
(-0.406663 -0.879629 0)
(-0.277916 -0.84506 0)
(-0.227983 -0.767476 0)
(-0.215129 -0.597352 0)
(-0.26909 -0.445632 0)
(-0.288426 -0.318675 0)
(-0.201035 -0.187359 0)
(0.135015 0.0279513 0)
(0.11833 0.237075 0)
(-0.0281999 0.169398 0)
(-0.0646292 0.0801833 0)
(-0.047476 0.132782 0)
(0.107332 0.419483 0)
(0.21974 0.506574 0)
(0.163804 0.382326 0)
(0.11931 0.167305 0)
(-0.117322 -0.120416 0)
(0.0412457 -0.332127 0)
(-0.789498 -1.07758 0)
(-0.856124 -1.32698 0)
(-0.866261 -1.55099 0)
(-0.525296 -1.25149 0)
(-0.447376 -0.870621 0)
(-0.42579 -0.619681 0)
(-0.44311 -0.500155 0)
(-0.437863 -0.385311 0)
(-0.112238 0.0238297 0)
(0.0489821 0.196557 0)
(-0.0714932 0.189435 0)
(-0.137462 0.079977 0)
(-0.115034 0.066628 0)
(-0.0352678 0.285679 0)
(0.151472 0.465251 0)
(0.112224 0.381193 0)
(0.125577 0.232044 0)
(-0.0961032 -0.0863805 0)
(0.0980187 -0.372456 0)
(-1.27799 -1.54158 0)
(-1.28313 -1.77189 0)
(-1.5558 -1.9047 0)
(-1.04315 -0.970599 0)
(-0.907128 -0.730532 0)
(-0.730138 -0.573591 0)
(-0.624665 -0.516252 0)
(-0.492962 -0.537682 0)
(-0.30437 -0.132155 0)
(-0.175378 0.122394 0)
(-0.14894 0.170905 0)
(-0.204349 0.0902201 0)
(-0.164225 0.0300336 0)
(-0.116984 0.181007 0)
(-0.00399071 0.422236 0)
(-0.0368078 0.379498 0)
(0.047508 0.267392 0)
(-0.0760076 -0.0541541 0)
(0.108778 -0.355515 0)
(-1.30724 -1.56961 0)
(-1.29711 -1.54899 0)
(-1.08422 -1.39128 0)
(-0.98838 -1.35619 0)
(-0.93209 -1.19957 0)
(-0.74915 -0.988447 0)
(-0.582239 -0.837698 0)
(-0.475978 -0.430582 0)
(-0.349548 -0.160875 0)
(-0.344726 -0.0173832 0)
(-0.305936 0.059018 0)
(-0.257731 0.0302709 0)
(-0.248484 -0.0327991 0)
(-0.275339 0.193969 0)
(-0.216831 0.411341 0)
(-0.256433 0.346188 0)
(-0.0462898 0.19545 0)
(-0.0333526 -0.112049 0)
(0.0958903 -0.333029 0)
(-1.23816 -1.50062 0)
(-1.25295 -1.4294 0)
(-1.112 -1.40868 0)
(-0.987829 -1.35373 0)
(-0.900743 -1.27796 0)
(-0.92047 -1.08584 0)
(-0.836394 -1.01616 0)
(-0.586228 -0.534686 0)
(-0.440015 -0.275597 0)
(-0.438958 -0.148563 0)
(-0.440257 -0.0512402 0)
(-0.393483 -0.025696 0)
(-0.400136 -0.0153586 0)
(-0.388072 0.224488 0)
(-0.364925 0.343478 0)
(-0.320949 0.199977 0)
(-0.0317615 0.0387101 0)
(0.00522216 -0.164174 0)
(0.0858295 -0.302978 0)
(-1.04927 -1.41812 0)
(-1.11938 -1.39005 0)
(-1.15452 -1.37713 0)
(-1.07476 -1.36983 0)
(-1.00858 -1.33625 0)
(-0.994547 -1.33502 0)
(-1.02071 -1.33191 0)
(-1.04037 -1.36379 0)
(-0.77741 -0.797855 0)
(-0.580984 -0.33055 0)
(-0.574963 -0.130914 0)
(-0.535994 -0.0152658 0)
(-0.476608 0.0410282 0)
(-0.382003 0.169046 0)
(-0.348883 0.204289 0)
(-0.185482 -0.0312772 0)
(0.00725893 -0.145377 0)
(0.00540895 -0.195885 0)
(0.0785015 -0.265861 0)
(-0.916862 -1.40878 0)
(-0.994227 -1.4126 0)
(-1.08198 -1.35589 0)
(-1.10791 -1.33986 0)
(-1.04613 -1.30846 0)
(-0.972504 -1.29541 0)
(-0.930343 -1.29589 0)
(-0.920651 -1.25257 0)
(-0.90086 -1.0439 0)
(-0.763793 -0.631195 0)
(-0.58428 -0.211041 0)
(-0.529967 -0.0374116 0)
(-0.472497 0.0185512 0)
(-0.394903 0.0460436 0)
(-0.193689 0.0152505 0)
(-0.0680705 -0.154066 0)
(0.0170458 -0.193622 0)
(-0.0246021 -0.222579 0)
(0.0405194 -0.235405 0)
(-0.922994 -0.999811 0)
(-0.865255 -1.35231 0)
(-0.94354 -1.35397 0)
(-1.03216 -1.3155 0)
(-1.04945 -1.28017 0)
(-0.966959 -1.22203 0)
(-0.863827 -1.16613 0)
(-0.839215 -1.11473 0)
(-0.870999 -1.01255 0)
(-0.872197 -0.803738 0)
(-0.715658 -0.447317 0)
(-0.503609 -0.141839 0)
(-0.414736 -0.0521912 0)
(-0.299187 -0.0832989 0)
(-0.181566 -0.166019 0)
(-0.198784 -0.234253 0)
(-0.142198 -0.211592 0)
(-0.17994 -0.209197 0)
(-0.0245995 -0.269017 0)
(-0.726728 -0.654296 0)
(-0.681477 -0.845059 0)
(-0.738672 -1.24335 0)
(-0.88066 -1.36587 0)
(-0.960636 -1.30973 0)
(-0.961317 -1.21502 0)
(-0.860496 -1.12885 0)
(-0.820661 -1.09203 0)
(-0.850409 -1.00661 0)
(-0.911488 -0.859695 0)
(-0.875709 -0.668425 0)
(-0.680281 -0.463291 0)
(-0.503909 -0.358835 0)
(-0.459228 -0.340105 0)
(-0.477933 -0.245126 0)
(-0.473343 -0.184117 0)
(-0.431694 -0.207518 0)
(-0.310798 -0.329444 0)
(-0.0714412 -0.431436 0)
(-0.480287 -0.574374 0)
(-0.435576 -0.734085 0)
(-0.654878 -1.07087 0)
(-0.840381 -1.41353 0)
(-0.82081 -1.43554 0)
(-0.862792 -1.36635 0)
(-0.908376 -1.25603 0)
(-0.824548 -1.17635 0)
(-0.815113 -1.09128 0)
(-0.8628 -0.929975 0)
(-0.90882 -0.740112 0)
(-0.802916 -0.575679 0)
(-0.595007 -0.466813 0)
(-0.510747 -0.438033 0)
(-0.528437 -0.368068 0)
(-0.557464 -0.354236 0)
(-0.526426 -0.411105 0)
(-0.330141 -0.575878 0)
(-0.110335 -0.659486 0)
(-0.0453882 -0.663711 0)
(-0.121509 -0.867713 0)
(-0.031204 -0.616192 0)
(-0.326556 -0.937135 0)
(-0.946521 -1.67622 0)
(-1.03103 -1.85498 0)
(-1.10236 -1.87298 0)
(-1.13121 -1.68936 0)
(-0.91775 -1.57776 0)
(-0.75728 -1.28904 0)
(-0.74343 -0.988635 0)
(-0.777915 -0.708045 0)
(-0.686437 -0.491726 0)
(-0.517198 -0.410133 0)
(-0.481372 -0.364363 0)
(-0.550096 -0.377929 0)
(-0.596996 -0.483201 0)
(-0.398816 -0.689968 0)
(-0.145131 -0.751582 0)
(0.604871 -0.521944 0)
(0.418588 -0.712187 0)
(0.237496 -0.664465 0)
(0.198711 -0.423649 0)
(0.0933186 -0.612801 0)
(-0.522076 -0.848487 0)
(-0.963167 -0.960588 0)
(-1.10854 -1.05191 0)
(-1.115 -0.978686 0)
(-0.978104 -1.41841 0)
(-0.776073 -1.22642 0)
(-0.689683 -1.0768 0)
(-0.672311 -0.755616 0)
(-0.609762 -0.546846 0)
(-0.585302 -0.396086 0)
(-0.711096 -0.337578 0)
(-0.773815 -0.411885 0)
(-0.53883 -0.789393 0)
(-0.242406 -0.921136 0)
(0.949272 -0.403637 0)
(0.697238 -0.592052 0)
(0.480999 -0.524864 0)
(0.357609 -0.389962 0)
(0.221488 -0.266657 0)
(0.00257298 -0.49542 0)
(-0.53184 -0.878284 0)
(-0.772518 -1.02737 0)
(-0.820113 -1.05518 0)
(-0.644064 -0.948645 0)
(-0.537411 -0.789399 0)
(-0.809084 -1.30921 0)
(-0.757189 -1.2706 0)
(-0.667586 -1.04786 0)
(-0.623783 -0.792528 0)
(-0.70204 -0.683825 0)
(-0.805452 -0.943478 0)
(-0.595525 -1.59517 0)
(-0.294739 -1.73771 0)
(1.05344 -0.212277 0)
(0.805888 -0.375105 0)
(0.577211 -0.362691 0)
(0.43767 -0.268564 0)
(0.390749 -0.231431 0)
(0.288247 -0.112854 0)
(0.136425 -0.214048 0)
(-0.352076 -0.557864 0)
(-0.699119 -0.792572 0)
(-0.816698 -0.884734 0)
(-0.892612 -0.884561 0)
(-1.09773 -0.685326 0)
(-1.39981 -0.0863276 0)
(-1.62371 0.0534735 0)
(-1.03012 -0.415497 0)
(-0.564614 -0.738382 0)
(-0.302053 -1.96324 0)
(-0.290814 -2.10541 0)
(-0.000690639 -2.04833 0)
(0.955138 -0.0599699 0)
(0.764769 -0.200437 0)
(0.589933 -0.226952 0)
(0.480525 -0.196666 0)
(0.408504 -0.14835 0)
(0.37072 -0.15869 0)
(0.315463 -0.120425 0)
(0.173029 -0.160104 0)
(-0.200546 -0.33468 0)
(-0.771424 -0.568984 0)
(-1.28274 -0.46449 0)
(-1.82534 0.215689 0)
(-2.02154 0.533533 0)
(-2.10943 0.29386 0)
(-1.34852 -1.07862 0)
(-0.392704 -1.76852 0)
(-0.124062 -2.16071 0)
(-0.0133581 -2.30451 0)
(0.11268 -2.16353 0)
)
;

boundaryField
{
    leftWall
    {
        type            fixedValue;
        value           nonuniform 0();
    }
    rightWall
    {
        type            fixedValue;
        value           uniform (0 0 0);
    }
    lowerWall
    {
        type            fixedValue;
        value           uniform (0 0 0);
    }
    atmosphere
    {
        type            fluxCorrectedVelocity;
        value           nonuniform 0();
    }
    defaultFaces
    {
        type            empty;
    }
    procBoundary1to0
    {
        type            processor;
        value           nonuniform List<vector> 
26
(
(-0.04929 0.00107927 0)
(-0.0343893 -0.0090846 0)
(-0.02407 -0.0151757 0)
(-0.0357806 -0.02947 0)
(-0.0618666 -0.0348863 0)
(-0.0769121 0.119927 0)
(-0.0892672 0.0861146 0)
(-0.116135 0.0434437 0)
(-0.160696 0.115933 0)
(0.0522439 -0.13669 0)
(-0.104803 0.0761747 0)
(-0.835967 0.357774 0)
(-1.25992 0.556305 0)
(-1.27072 0.551583 0)
(-1.18563 0.591514 0)
(-1.10208 0.582469 0)
(-1.3483 1.57545 0)
(-1.3483 1.57545 0)
(-1.14021 1.77564 0)
(-0.881039 1.73826 0)
(-0.486148 1.7827 0)
(0.235948 1.95918 0)
(0.55411 1.83076 0)
(0.683803 1.47519 0)
(0.786024 1.09777 0)
(0.774377 0.800095 0)
)
;
    }
    procBoundary1to3
    {
        type            processor;
        value           nonuniform List<vector> 
23
(
(0.754139 0.499492 0)
(0.812336 0.412406 0)
(0.833986 0.310052 0)
(0.844227 0.207807 0)
(0.797295 0.0569794 0)
(0.680505 -0.0622919 0)
(0.572058 -0.120414 0)
(0.480361 -0.123962 0)
(0.433415 -0.107767 0)
(0.37562 -0.0774068 0)
(0.335309 -0.104912 0)
(0.283084 -0.0940487 0)
(0.129591 -0.0174415 0)
(-0.12193 0.046032 0)
(-0.861971 0.106707 0)
(-1.15308 0.176184 0)
(-1.16449 0.339095 0)
(-1.05304 0.197543 0)
(-0.469269 -0.9829 0)
(-0.259477 -1.67591 0)
(-0.365521 -2.53069 0)
(-0.113138 -2.73835 0)
(0.164354 -2.40404 0)
)
;
    }
}


// ************************************************************************* //
