/*--------------------------------*- C++ -*----------------------------------*\
| =========                 |                                                 |
| \\      /  F ield         | OpenFOAM: The Open Source CFD Toolbox           |
|  \\    /   O peration     | Version:  2.4.0                                 |
|   \\  /    A nd           | Web:      www.OpenFOAM.org                      |
|    \\/     M anipulation  |                                                 |
\*---------------------------------------------------------------------------*/
FoamFile
{
    version     2.0;
    format      ascii;
    class       volScalarField;
    location    "0.2";
    object      alpha.water;
}
// * * * * * * * * * * * * * * * * * * * * * * * * * * * * * * * * * * * * * //

dimensions      [0 0 0 0 0 0 0];

internalField   nonuniform List<scalar> 
559
(
1.85468e-11
1.24767e-10
1.42314e-08
5.55599e-07
1.42892e-05
4.35483e-05
0.000128088
0.000266675
3.3535e-13
5.48464e-13
9.38892e-13
1.66127e-12
2.91614e-12
4.87191e-12
5.31387e-12
3.61497e-12
2.5685e-12
1.7689e-12
1.24121e-12
9.39974e-13
7.45477e-13
5.67327e-13
3.93927e-13
2.46189e-13
1.5048e-13
8.85827e-14
4.65507e-14
4.92955e-13
1.19171e-12
1.77192e-12
3.00857e-12
6.07639e-12
1.07523e-11
1.16677e-11
9.27493e-12
7.49975e-12
6.14455e-12
4.52175e-12
3.39682e-12
2.53789e-12
1.81133e-12
1.20939e-12
7.52743e-13
4.47605e-13
2.47744e-13
1.06894e-13
8.67321e-13
1.99985e-12
3.07578e-12
5.34462e-12
2.2971e-11
4.39537e-11
5.33628e-11
4.16259e-11
2.50682e-11
1.70633e-11
1.14789e-11
7.78863e-12
5.38306e-12
3.69134e-12
2.4298e-12
1.54372e-12
9.48989e-13
5.19632e-13
2.01456e-13
8.93431e-13
1.72732e-12
2.24418e-12
3.25227e-12
3.56356e-11
1.40609e-10
1.74909e-10
1.54425e-10
1.13087e-10
7.78722e-11
4.94373e-11
2.00122e-11
8.59108e-12
5.60236e-12
3.70419e-12
2.43862e-12
1.58145e-12
8.81796e-13
3.06095e-13
7.1247e-13
1.10745e-12
1.08531e-12
4.35466e-12
4.64872e-11
2.81994e-10
3.46468e-10
3.15618e-10
2.34334e-10
1.32047e-10
9.03151e-11
3.92455e-11
9.82237e-12
6.35575e-12
4.37595e-12
3.05304e-12
2.14238e-12
1.15859e-12
4.8353e-13
5.2988e-13
6.06381e-13
1.09544e-12
7.28846e-12
1.91619e-10
5.30383e-10
5.62764e-10
5.00686e-10
3.10125e-10
1.65556e-10
1.13585e-10
4.57733e-11
1.02319e-11
6.25146e-12
4.29881e-12
3.20267e-12
2.12302e-12
1.15627e-12
5.19405e-13
3.8209e-13
2.88804e-13
9.16843e-13
5.19702e-11
4.52379e-10
8.63228e-10
8.19828e-10
6.51057e-10
3.63322e-10
2.11041e-10
1.15928e-10
3.11047e-11
6.97809e-12
4.80568e-12
3.65351e-12
2.66237e-12
1.82002e-12
1.02889e-12
4.82826e-13
3.36551e-13
1.90002e-13
2.84507e-13
2.0637e-10
8.77371e-10
1.20457e-09
1.0643e-09
7.80685e-10
4.56523e-10
2.21097e-10
7.45706e-11
1.36351e-11
4.54376e-12
3.53533e-12
2.52718e-12
1.82894e-12
1.3315e-12
8.11967e-13
4.17053e-13
0.000282372
7.93507e-05
5.92364e-06
8.17884e-07
4.52241e-07
4.64222e-08
3.76099e-09
2.89902e-12
2.84791e-06
8.61627e-08
3.91244e-09
2.18636e-10
2.66474e-05
4.77604e-06
3.9672e-07
5.65428e-08
6.33264e-06
3.25818e-06
9.50531e-07
1.90263e-07
2.77201e-07
3.80314e-07
2.65916e-07
1.18249e-07
1.22714e-08
1.84082e-08
3.02547e-08
3.11855e-08
1.22798e-08
7.8317e-09
3.95652e-09
3.43452e-09
1.24564e-09
2.58143e-10
4.28931e-11
1.33709e-11
2.28443e-12
1.85232e-12
1.49548e-12
1.1895e-12
1.88199e-12
1.42621e-12
1.06373e-12
7.85673e-13
1.31372e-12
9.16237e-13
6.36528e-13
4.44707e-13
7.96747e-13
4.95829e-13
3.00045e-13
1.80565e-13
3.30273e-13
2.19725e-13
8.50435e-14
5.1989e-15
1.82852e-14
2.20135e-14
2.38588e-14
3.148e-15
3.41266e-15
1.22562e-15
2.29931e-15
9.07622e-16
5.0846e-16
2.45788e-16
2.83638e-16
2.65472e-16
8.239e-17
6.19316e-17
6.98779e-17
8.67722e-17
1.62061e-17
1.63597e-17
1.97709e-17
2.54818e-17
4.98435e-11
6.33557e-11
3.30088e-10
1.01434e-09
1.68376e-09
1.61662e-09
1.30297e-09
8.7916e-10
4.64576e-10
1.73829e-10
4.52497e-11
8.92613e-12
2.73434e-12
2.19546e-12
1.18503e-12
5.70888e-13
5.13341e-13
3.77605e-13
2.72696e-13
7.54408e-09
2.94612e-09
2.31358e-09
2.78586e-09
2.65469e-09
1.97315e-09
1.44863e-09
8.02245e-10
2.79319e-10
5.99604e-11
8.98761e-12
2.33661e-12
1.91981e-12
6.91495e-13
1.92502e-13
1.57201e-13
2.01233e-13
1.66422e-13
1.70884e-13
3.86756e-08
6.02461e-09
5.16105e-09
4.60482e-09
3.23417e-09
1.69793e-09
1.00778e-09
3.52237e-10
6.90509e-11
7.72983e-12
2.33839e-12
1.77893e-12
5.58739e-13
1.46309e-13
5.64842e-14
5.66769e-14
7.50084e-14
7.30494e-14
9.66895e-14
3.68258e-08
1.23231e-08
8.37421e-09
5.30398e-09
1.66325e-09
8.21098e-10
2.35e-10
4.71904e-11
4.85686e-12
2.59511e-12
1.57182e-12
5.34437e-13
1.73914e-13
4.28113e-14
2.06718e-14
2.16624e-14
2.70534e-14
2.98339e-14
4.51891e-14
2.38586e-08
1.38555e-08
6.704e-09
1.64367e-09
3.13455e-10
6.79181e-11
1.22156e-11
1.49061e-12
1.23425e-12
1.02652e-12
5.21567e-13
2.21576e-13
5.80284e-14
1.38386e-14
7.70086e-15
7.98503e-15
9.35273e-15
1.03936e-14
1.60001e-14
4.62153e-09
3.95587e-09
1.64077e-09
2.05414e-10
3.0912e-11
1.27915e-12
4.94479e-13
4.70039e-13
4.62449e-13
4.26843e-13
2.56224e-13
8.95567e-14
1.91111e-14
4.55481e-15
2.72756e-15
2.71755e-15
2.93392e-15
2.98391e-15
4.19364e-15
5.65008e-11
8.36e-11
3.52367e-11
2.99467e-12
5.0363e-13
1.63245e-13
1.20912e-13
2.0084e-13
2.72911e-13
2.29183e-13
1.15049e-13
3.28993e-14
5.94113e-15
1.43947e-15
8.81452e-16
8.26958e-16
8.10776e-16
7.13907e-16
8.42298e-16
6.84904e-13
3.89273e-13
2.16422e-13
1.17935e-13
7.07059e-14
4.92692e-14
1.33539e-13
1.68317e-13
1.64535e-13
1.12424e-13
4.6779e-14
1.08583e-14
1.70725e-15
4.18365e-16
2.54384e-16
2.21706e-16
1.95344e-16
1.45268e-16
1.35773e-16
4.15622e-13
2.20753e-13
1.13777e-13
5.96904e-14
4.17691e-14
7.43011e-14
1.01847e-13
1.06833e-13
8.65593e-14
4.92576e-14
1.70961e-14
3.22531e-15
4.46056e-16
1.09641e-16
6.51584e-17
5.21495e-17
4.09548e-17
2.55299e-17
1.82508e-17
2.05177e-13
9.66537e-14
4.3579e-14
2.21441e-14
3.72456e-14
5.33259e-14
6.33207e-14
5.79683e-14
4.01567e-14
1.91747e-14
5.5432e-15
8.58552e-16
1.05034e-16
2.58338e-17
1.47981e-17
1.07761e-17
7.49365e-18
3.92353e-18
2.10663e-18
8.32318e-14
6.94155e-15
1.28302e-14
1.76014e-14
2.59568e-14
3.25878e-14
3.37785e-14
2.73088e-14
1.63505e-14
6.57518e-15
1.6022e-15
2.04692e-16
2.22335e-17
5.4639e-18
2.98445e-18
1.96381e-18
1.20353e-18
5.32631e-19
2.13625e-19
4.19571e-15
4.05362e-15
7.12076e-15
1.13086e-14
1.48385e-14
1.68584e-14
1.55666e-14
1.1174e-14
5.80325e-15
2.00077e-15
4.13931e-16
4.3753e-17
4.23476e-18
1.0378e-18
5.35994e-19
3.17195e-19
1.70857e-19
6.43923e-20
1.93894e-20
1.14508e-15
2.35568e-15
4.04408e-15
5.90646e-15
7.22148e-15
7.46546e-15
6.22071e-15
3.96998e-15
1.81478e-15
5.41804e-16
9.57604e-17
8.403e-18
7.28121e-19
1.77445e-19
8.60374e-20
4.56535e-20
2.15879e-20
6.98375e-21
1.59917e-21
6.40041e-16
1.17603e-15
1.91264e-15
2.59598e-15
2.99307e-15
2.84473e-15
2.17412e-15
1.23857e-15
5.02916e-16
1.30849e-16
1.98796e-17
1.45554e-18
1.13724e-19
2.7431e-20
1.23964e-20
5.88727e-21
2.44345e-21
6.83905e-22
1.21327e-22
2.92265e-16
4.96804e-16
7.56686e-16
9.75773e-16
1.06398e-15
9.4916e-16
6.6782e-16
3.42236e-16
1.23771e-16
2.82662e-17
3.71475e-18
2.28818e-19
1.63136e-20
3.85909e-21
1.61143e-21
6.83972e-22
2.49344e-22
6.08291e-23
8.54356e-24
1.08177e-16
1.74301e-16
2.52053e-16
3.15996e-16
3.28714e-16
2.79379e-16
1.80961e-16
8.41254e-17
2.7128e-17
5.47984e-18
6.27545e-19
3.29884e-20
2.18844e-21
4.98954e-22
1.90178e-22
7.19972e-23
2.30816e-23
4.94007e-24
5.6195e-25
3.24307e-17
5.10406e-17
7.26556e-17
8.93406e-17
8.86548e-17
7.26265e-17
4.33823e-17
1.84259e-17
5.31399e-18
9.56782e-19
9.64114e-20
4.43287e-21
2.82074e-22
6.01505e-23
2.05439e-23
6.91012e-24
1.95041e-24
3.68293e-25
3.46555e-26
)
;

boundaryField
{
    leftWall
    {
        type            zeroGradient;
    }
    rightWall
    {
        type            zeroGradient;
    }
    lowerWall
    {
        type            zeroGradient;
    }
    atmosphere
    {
        type            inletOutlet;
        inletValue      nonuniform 0();
        value           nonuniform 0();
    }
    defaultFaces
    {
        type            empty;
    }
    procBoundary1to0
    {
        type            processor;
        value           nonuniform List<scalar> 
26
(
2.88176e-11
9.34113e-10
3.88575e-07
5.10809e-05
0.00248672
0.00647468
0.00999125
0.00630277
0.00138031
6.54236e-05
3.39732e-05
2.72836e-05
8.68709e-06
2.64044e-07
1.35549e-08
8.8151e-12
2.43181e-12
2.43181e-12
1.85361e-12
1.2685e-12
4.78619e-13
8.56263e-14
2.99126e-15
2.85196e-16
5.27469e-17
1.13996e-17
)
;
    }
    procBoundary1to3
    {
        type            processor;
        value           nonuniform List<scalar> 
23
(
3.42725e-18
3.97626e-18
4.90047e-18
6.23317e-18
7.88866e-18
1.25432e-17
1.82901e-17
2.20267e-17
2.09254e-17
1.67355e-17
9.21477e-18
3.60232e-18
9.33254e-19
1.51048e-19
1.35709e-20
5.67844e-22
3.60771e-23
6.89899e-24
2.05394e-24
6.09211e-25
1.51435e-25
2.53396e-26
2.00915e-27
)
;
    }
}


// ************************************************************************* //
