/*--------------------------------*- C++ -*----------------------------------*\
| =========                 |                                                 |
| \\      /  F ield         | OpenFOAM: The Open Source CFD Toolbox           |
|  \\    /   O peration     | Version:  2.4.0                                 |
|   \\  /    A nd           | Web:      www.OpenFOAM.org                      |
|    \\/     M anipulation  |                                                 |
\*---------------------------------------------------------------------------*/
FoamFile
{
    version     2.0;
    format      ascii;
    class       volScalarField;
    location    "0.2";
    object      alphas;
}
// * * * * * * * * * * * * * * * * * * * * * * * * * * * * * * * * * * * * * //

dimensions      [0 0 0 0 0 0 0];

internalField   nonuniform List<scalar> 
559
(
1.99847
1.99788
1.99745
1.99709
1.99599
1.99022
1.96829
1.92151
2.68409
1.62446
1.0292
1.00226
1.00226
1.00313
1.00418
1.00397
1.00692
1.025
1.03435
1.02155
1.01398
1.02736
1.24907
1.42816
1.36576
1.08708
1.02404
2.97419
2.92721
2.21527
1.13223
1.0029
1.00031
1.00022
1.00004
1.00001
1.00001
1.00002
1.00003
1.0002
1.00312
1.00095
1.0007
1.01273
1.02158
1.02262
2.99985
2.99984
2.98404
2.51586
1.19658
1.00084
1.00016
1.00002
1
1
1
1
1
1
1.00001
1.00007
1.00393
1.04376
1.02949
3.00001
3.00001
2.99954
2.93042
1.85043
1.00332
1.0002
1.00001
1
1
1
1
1
1
1.00014
1.00403
1.229
1.96524
1.05596
3.00001
3.00001
2.99987
2.95012
1.38749
1.00866
1.00007
1
1
1
1
1
1
1.00031
1.01504
1.47019
2.60091
2.9302
1.34093
3.00001
3.00002
2.99767
2.60816
1.13863
1.00177
1
1
1
1
1
1
1.00046
1.02698
1.65462
2.76459
2.99291
2.99959
2.41478
3.00001
3.00002
2.95585
1.80943
1.03447
1.00017
1
1
1
1
1
1.00026
1.03237
1.71679
2.80745
2.9962
3
3.00001
2.9512
3.00002
3.00002
2.67426
1.29669
1.00616
1.00002
1
1
1
1
1
1.0149
1.59498
2.74856
2.99292
2.99998
3
3.00001
2.99896
1.65348
1.30992
1.09326
1.01369
1.00061
1
1
1
1.43307
1.21251
1.34532
2.41048
1.37213
1.29172
1.18546
1.21961
1.18591
1.1961
1.16622
1.11687
1.0398
1.06265
1.076
1.06957
1.00247
1.00605
1.01232
1.01888
1.00002
1.0001
1.00042
1.0013
1
1
1
1.00001
1
1
1
1
1
1.00001
1.0001
1.0006
1.00209
1.00847
1.0363
1.12038
1.21804
1.45342
1.98533
2.65237
2.81077
2.9694
2.99852
2.99998
3
2.99998
3
3
3
3
3
3
3
3
3
3
3
3
3
3
3
3
3
3
2.93172
2.73655
1.72934
1.05307
1.00061
1
1
1
1.00002
1.00136
1.04014
1.58475
2.68242
2.98684
2.99994
3.00001
3.00001
3.00001
2.99996
1.43607
1.21672
1.02354
1.00062
1.00001
1
1
1.00005
1.00384
1.09651
1.84113
2.80803
2.99485
3
3.00001
3.00001
3.00001
3.00001
3.00001
1.0517
1.01126
1.00168
1.00017
1.00001
1
1.00008
1.00678
1.15576
2.03743
2.87
2.99738
3.00001
3.00001
3.00001
3.00001
3.00001
3.00001
3.00001
1.04191
1.01388
1.00293
1.00036
1.00004
1.00009
1.00781
1.19178
2.14395
2.89597
2.99822
3.00001
3.00001
3.00001
3.00001
3.00001
3.00001
3.00001
3.00001
1.01844
1.01104
1.00397
1.00079
1.00028
1.00862
1.19935
2.17344
2.90241
2.99826
3
3.00001
3.00001
3.00001
3.00001
3.00001
3.00001
3.00001
3.00001
1.00375
1.00474
1.00311
1.0013
1.01492
1.23564
2.24556
2.93355
2.99946
3
3.00001
3.00001
3.00001
3.00001
3.00001
3.00001
3.00001
3.00001
3.00001
1.00026
1.00116
1.00195
1.02507
1.34845
2.39998
2.95621
2.99967
3
3.00001
3.00001
3.00001
3.00001
3.00001
3.00001
3.00001
3.00001
3.00001
3.00001
1.00005
1.00364
1.06533
1.59357
2.66146
2.98946
2.99999
3
3.00001
3.00001
3.00001
3.00001
3.00001
3.00001
3.00001
3.00001
3.00001
3.00001
3.00001
1.01873
1.24749
2.10199
2.91049
2.99942
3
3
3
3.00001
3.00001
3.00001
3.00001
3.00001
3.00001
3.00001
3.00001
3.00001
3.00001
3.00001
1.67719
2.7464
2.99443
3
3
3
3
3
3.00001
3.00001
3.00001
3.00001
3.00001
3.00001
3.00001
3.00001
3.00001
3.00001
3
2.96983
2.99988
3
3
3
3
3
3
3.00001
3.00001
3.00001
3.00001
3.00001
3.00001
3.00001
3.00001
3.00001
3
3
2.99999
3
3
3
3
3
3
3
3.00001
3.00001
3.00001
3.00001
3.00001
3.00001
3
3
3
3
3
3
3
3
3
3
3
3
3
3
3
3.00001
3
3
3
3
3
3
3
3
3
3
3
3
3
3
3
3
3
3
3
3
3
3
3
3
3
3
3
3
3
3
3
3
3
3
3
3
3
3
3
3
3
3
3
3
3
3
3
3
2.99999
3
3
3
3
3
3
3
3
3
3
3
3
3
3
3
3
3
3
3
2.99999
2.99999
3
3
3
3
3
3
3
3
3
3
3
3
3
3
)
;

boundaryField
{
    leftWall
    {
        type            zeroGradient;
    }
    rightWall
    {
        type            zeroGradient;
    }
    lowerWall
    {
        type            zeroGradient;
    }
    atmosphere
    {
        type            zeroGradient;
    }
    defaultFaces
    {
        type            empty;
    }
    procBoundary1to0
    {
        type            processor;
        value           nonuniform List<scalar> 
26
(
1.99909
1.99894
1.99883
1.99674
1.94299
1.755
1.45399
1.1677
1.07251
1.02627
1.0076
1.00127
1.00005
1
1
1
1
1
1.00034
1.0693
2.19846
2.99881
3
3
3
3
)
;
    }
    procBoundary1to3
    {
        type            processor;
        value           nonuniform List<scalar> 
23
(
2.99999
3
3
3
3
3
2.99999
2.99999
2.99999
2.99999
2.99999
2.99999
3
3
3
3
3
3
3
3
3
3
3
)
;
    }
}


// ************************************************************************* //
