/*--------------------------------*- C++ -*----------------------------------*\
| =========                 |                                                 |
| \\      /  F ield         | OpenFOAM: The Open Source CFD Toolbox           |
|  \\    /   O peration     | Version:  2.4.0                                 |
|   \\  /    A nd           | Web:      www.OpenFOAM.org                      |
|    \\/     M anipulation  |                                                 |
\*---------------------------------------------------------------------------*/
FoamFile
{
    version     2.0;
    format      ascii;
    class       volScalarField;
    location    "0.2";
    object      alpha.air;
}
// * * * * * * * * * * * * * * * * * * * * * * * * * * * * * * * * * * * * * //

dimensions      [0 0 0 0 0 0 0];

internalField   nonuniform List<scalar> 
559
(
1.8857e-20
2.00864e-19
1.19259e-18
4.35669e-18
8.59242e-18
1.40389e-17
2.80307e-17
4.69033e-17
0.84204
0.312228
0.0145987
0.00112849
0.00112849
0.00156473
0.00208815
0.00198257
0.00345785
0.0124999
0.0171709
0.0107749
0.00698651
0.0136758
0.124531
0.214079
0.182878
0.0435365
0.0120167
0.987089
0.963601
0.607633
0.0661116
0.00145033
0.000151256
0.000108321
2.08814e-05
6.40876e-06
6.73103e-06
1.01098e-05
1.29787e-05
9.8421e-05
0.00155774
0.000474173
0.000348029
0.00636225
0.0107902
0.011306
0.999921
0.999912
0.992015
0.757925
0.0982874
0.000417351
8.06194e-05
7.81114e-06
9.33913e-07
7.62173e-07
6.61822e-07
6.33339e-07
6.80116e-07
8.52004e-07
2.20602e-06
3.36389e-05
0.0019663
0.0218782
0.0147427
1
1
0.999766
0.965203
0.425211
0.00165806
9.90115e-05
4.12627e-06
5.93133e-07
4.26929e-07
3.39464e-07
3.41371e-07
3.73754e-07
2.25673e-06
7.14385e-05
0.00201648
0.114499
0.482616
0.0279782
1
1
0.999929
0.975054
0.193744
0.00433027
3.30346e-05
6.08192e-07
3.16814e-07
2.16532e-07
2.16556e-07
3.34649e-07
2.29808e-06
0.000153299
0.00752015
0.235096
0.800454
0.965096
0.170462
1
1
0.998826
0.804077
0.0693124
0.000886653
2.12905e-06
3.38687e-07
2.16532e-07
2.16532e-07
2.54076e-07
2.33202e-06
0.000231313
0.0134903
0.32731
0.882291
0.996454
0.999794
0.707386
1
1
0.977919
0.404714
0.0172315
8.34049e-05
3.87091e-07
2.16532e-07
2.16532e-07
2.16532e-07
2.8582e-07
0.000127768
0.0161869
0.358392
0.903725
0.998095
0.999997
1
0.975596
1
1
0.837126
0.14834
0.00307836
7.96508e-06
2.44541e-07
2.16532e-07
2.16533e-07
2.63359e-07
4.40575e-07
0.00744983
0.297487
0.874281
0.996458
0.999989
1
1
0.999479
1.67663e-16
4.47804e-16
1.16685e-15
7.57801e-15
1.29038e-12
3.59893e-10
7.23674e-09
4.76556e-08
7.8934e-17
0.00138404
0.140041
0.701042
2.08006e-16
7.02545e-05
0.00846885
0.0703549
6.10232e-16
4.17277e-07
5.53487e-05
0.000516033
1.51645e-13
4.34297e-10
2.7733e-08
1.44136e-07
1.69679e-12
3.19049e-12
6.22291e-12
1.73529e-11
6.2137e-10
1.01951e-09
1.46065e-09
1.98306e-09
1.02123e-08
1.63531e-08
1.89098e-08
2.6083e-08
7.10437e-08
1.06364e-07
1.8393e-07
2.56661e-07
9.40603e-07
6.21426e-06
4.97035e-05
0.000297473
0.00104492
0.00423374
0.0181494
0.060189
0.10902
0.226709
0.492665
0.826185
0.905385
0.984698
0.999259
0.999989
1
0.999991
1
1
1
1
1
1
1
1
1
0.999999
1
1
0.999999
0.999999
0.999999
0.999999
0.999999
0.999999
0.965833
0.868261
0.364626
0.0265099
0.000299902
7.35116e-07
2.44758e-07
2.67508e-07
8.93105e-06
0.000680186
0.020071
0.292376
0.84121
0.993418
0.999969
1
1
1
0.999975
0.210655
0.106152
0.0113244
0.000248597
1.49074e-06
1.20872e-07
2.54097e-07
2.61988e-05
0.00192224
0.0482566
0.420566
0.904014
0.997423
0.999997
1
1
1
1
1
0.00140654
0.000242327
8.98468e-06
8.47512e-08
6.38112e-08
1.21225e-07
3.98929e-05
0.00338892
0.0778811
0.518713
0.934998
0.998689
1
1
1
1
1
1
1
1.12576e-07
1.46784e-08
5.82791e-09
5.8206e-09
9.73213e-08
3.87899e-05
0.00390217
0.0958896
0.571973
0.947985
0.999106
1
1
1
1
1
1
1
1
1.97715e-11
4.49753e-11
2.81785e-08
3.30441e-07
6.12283e-05
0.00429841
0.0996726
0.586718
0.951203
0.999131
1
1
1
1
1
1
1
1
1
7.71411e-09
1.08642e-07
1.07438e-06
0.000106598
0.00731013
0.117813
0.622782
0.966777
0.999728
1
1
1
1
1
1
1
1
1
1
1.09104e-06
6.13389e-05
0.000360707
0.0121656
0.17415
0.699989
0.978105
0.999832
1
1
1
1
1
1
1
1
1
1
1
2.30639e-05
0.00179863
0.0325964
0.29673
0.830724
0.99473
0.999995
1
1
1
1
1
1
1
1
1
1
1
1
0.00936529
0.123743
0.550994
0.955245
0.999713
1
1
1
1
1
1
1
1
1
1
1
1
1
1
0.338593
0.8732
0.997217
0.999998
1
1
1
1
1
1
1
1
1
1
1
1
1
1
1
0.984913
0.99994
0.999998
0.999999
1
1
1
1
1
1
1
1
1
1
1
1
1
1
1
0.999993
0.999999
0.999999
0.999999
1
1
1
1
1
1
1
1
1
1
1
1
1
1
1
0.999999
0.999999
0.999999
0.999999
0.999999
1
1
1
1
1
1
1
1
1
1
1
1
1
1
0.999999
0.999999
0.999999
0.999999
0.999999
0.999999
1
1
1
1
1
1
1
1
1
1
1
1
1
0.999999
0.999998
0.999998
0.999998
0.999999
0.999999
0.999999
1
1
1
1
1
1
1
1
1
1
1
1
0.999999
0.999999
0.999998
0.999998
0.999998
0.999999
0.999999
0.999999
0.999999
1
1
1
1
1
1
1
1
1
1
0.999999
0.999998
0.999998
0.999998
0.999998
0.999998
0.999999
0.999999
0.999999
0.999999
1
1
1
1
1
1
1
1
1
)
;

boundaryField
{
    leftWall
    {
        type            alphaContactAngle;
        thetaProperties 
6
(

(
water
mercury
)
 90 0 0 0

(
water
air
)
 90 0 0 0

(
water
oil
)
 90 0 0 0

(
mercury
air
)
 90 0 0 0

(
oil
mercury
)
 90 0 0 0

(
oil
air
)
 90 0 0 0
);
        value           nonuniform 0();
    }
    rightWall
    {
        type            alphaContactAngle;
        thetaProperties 
6
(

(
water
mercury
)
 90 0 0 0

(
water
air
)
 90 0 0 0

(
water
oil
)
 90 0 0 0

(
mercury
air
)
 90 0 0 0

(
oil
mercury
)
 90 0 0 0

(
oil
air
)
 90 0 0 0
);
        value           nonuniform List<scalar> 
25
(
0.0120167
0.011306
0.0147427
0.0279782
0.170462
0.707386
0.975596
0.999479
0.999975
1
1
1
1
1
1
1
1
1
1
1
1
1
1
1
1
)
;
    }
    lowerWall
    {
        type            alphaContactAngle;
        thetaProperties 
6
(

(
water
mercury
)
 90 0 0 0

(
water
air
)
 90 0 0 0

(
water
oil
)
 90 0 0 0

(
mercury
air
)
 90 0 0 0

(
oil
mercury
)
 90 0 0 0

(
oil
air
)
 90 0 0 0
);
        value           nonuniform List<scalar> 
40
(
1.8857e-20
1.8857e-20
2.00864e-19
1.19259e-18
4.35669e-18
8.59242e-18
1.40389e-17
2.80307e-17
4.69033e-17
7.8934e-17
0.00138404
0.140041
0.701042
0.84204
0.987089
0.999921
1
1
1
1
1
0.84204
0.312228
0.0145987
0.00112849
0.00112849
0.00156473
0.00208815
0.00198257
0.00345785
0.0124999
0.0171709
0.0107749
0.00698651
0.0136758
0.124531
0.214079
0.182878
0.0435365
0.0120167
)
;
    }
    atmosphere
    {
        type            inletOutlet;
        inletValue      nonuniform 0();
        value           nonuniform 0();
    }
    defaultFaces
    {
        type            empty;
    }
    procBoundary1to0
    {
        type            processor;
        value           nonuniform List<scalar> 
26
(
9.42662e-20
1.0935e-18
7.00523e-18
2.77506e-17
5.87372e-17
1.22437e-16
3.58898e-16
6.20975e-16
9.63066e-16
1.74701e-15
4.05889e-15
1.22593e-14
6.83017e-13
1.31159e-10
3.83932e-09
3.09692e-08
2.51623e-07
2.51623e-07
0.000167443
0.0346502
0.599228
0.999402
1
1
1
0.999999
)
;
    }
    procBoundary1to3
    {
        type            processor;
        value           nonuniform List<scalar> 
23
(
0.999998
0.999999
0.999999
0.999999
0.999999
0.999998
0.999998
0.999998
0.999998
0.999998
0.999998
0.999998
0.999998
0.999999
0.999999
1
1
1
1
1
1
1
1
)
;
    }
}


// ************************************************************************* //
