/*--------------------------------*- C++ -*----------------------------------*\
| =========                 |                                                 |
| \\      /  F ield         | OpenFOAM: The Open Source CFD Toolbox           |
|  \\    /   O peration     | Version:  2.4.0                                 |
|   \\  /    A nd           | Web:      www.OpenFOAM.org                      |
|    \\/     M anipulation  |                                                 |
\*---------------------------------------------------------------------------*/
FoamFile
{
    version     2.0;
    format      ascii;
    class       surfaceScalarField;
    location    "0.2";
    object      phi;
}
// * * * * * * * * * * * * * * * * * * * * * * * * * * * * * * * * * * * * * //

dimensions      [0 3 -1 0 0 0 0];

internalField   nonuniform List<scalar> 
1061
(
3.31099e-05
6.97364e-05
0.000109522
0.000151317
0.000190496
0.000219127
0.000241049
0.000262125
-0.000110315
0.000110315
-0.000125389
1.50749e-05
-0.000147303
2.19136e-05
-0.000157037
9.73366e-06
-0.000146176
-1.08611e-05
-7.62778e-05
-6.98978e-05
-9.69917e-06
-6.65786e-05
3.9132e-05
-4.88312e-05
7.68068e-05
-3.76748e-05
0.000104816
-2.80091e-05
0.000126813
-2.1997e-05
0.000148341
-2.15276e-05
0.00017203
-2.36889e-05
0.00019431
-2.22804e-05
0.000208874
-1.4564e-05
0.000208217
6.57343e-07
0.000188229
1.99879e-05
0.00012957
5.86583e-05
0.00012957
-5.04228e-05
0.000160737
-9.69615e-05
6.16136e-05
-9.07281e-05
1.56802e-05
-9.22715e-05
1.12771e-05
-8.12733e-05
-2.18593e-05
-3.48435e-05
-0.000116328
1.5354e-05
-0.000116776
5.85858e-05
-9.20631e-05
8.9168e-05
-6.8257e-05
0.000114547
-5.33878e-05
0.000138557
-4.60071e-05
0.000161861
-4.48323e-05
0.000181629
-4.34567e-05
0.000195908
-3.65596e-05
0.000204919
-2.35749e-05
0.000209714
-4.13724e-06
0.00019824
3.14614e-05
0.000135516
0.000121383
0.000265087
-7.71122e-05
0.00023785
-0.000119899
0.0001044
-0.000111179
6.96088e-06
-9.9098e-05
-8.04362e-07
-3.64757e-05
-8.44816e-05
7.71696e-06
-0.00016052
4.1503e-05
-0.000150562
7.37373e-05
-0.000124297
0.000103098
-9.76178e-05
0.000128221
-7.85103e-05
0.000150817
-6.86031e-05
0.000171476
-6.54912e-05
0.000187657
-5.96381e-05
0.00019859
-4.74929e-05
0.000203773
-2.87576e-05
0.000206341
-6.70555e-06
0.0002045
3.33026e-05
0.000138436
0.000187446
0.000403523
-9.19698e-05
0.000329819
-0.000200554
0.000212984
-0.000196474
2.88093e-06
-0.000106387
-9.08914e-05
-1.30826e-05
-0.000177786
3.94124e-05
-0.000213015
6.52395e-05
-0.000176389
9.21834e-05
-0.000151241
0.000117242
-0.000122676
0.00013925
-0.000100519
0.000159031
-8.83838e-05
0.000176557
-8.30176e-05
0.000189532
-7.26126e-05
0.000197556
-5.55171e-05
0.000202587
-3.37884e-05
0.00020423
-8.34914e-06
0.000204469
3.30639e-05
0.000100499
0.000291417
0.000504022
-4.73188e-05
0.000377138
-5.63099e-05
0.000221976
-6.97054e-05
1.62764e-05
-3.50608e-06
-0.000157091
4.14726e-05
-0.000222765
5.95988e-05
-0.000231142
8.37184e-05
-0.000200509
0.000104865
-0.000172388
0.000124664
-0.000142475
0.000143479
-0.000119333
0.000162059
-0.000106965
0.000177942
-9.89007e-05
0.000188798
-8.34682e-05
0.000194668
-6.13875e-05
0.000196789
-3.59091e-05
0.000220247
-3.18069e-05
0.000206214
4.70972e-05
0.000156459
0.000341172
0.000660481
-1.88761e-06
0.000379026
1.2904e-05
0.000207184
4.68575e-05
-1.76771e-05
5.34231e-05
-0.000163656
7.28537e-05
-0.000242195
8.18279e-05
-0.000240116
0.000101396
-0.000220077
0.000117813
-0.000188805
0.000133261
-0.000157923
0.000149947
-0.00013602
0.000165272
-0.00012229
0.000177999
-0.000111628
0.000186488
-9.19566e-05
0.000190439
-6.53386e-05
0.000228647
-7.41168e-05
0.000205731
-8.89138e-06
0.000158217
9.46113e-05
0.000187875
0.000311513
0.000848356
3.51529e-05
0.000343873
5.1952e-05
0.000190385
9.7514e-05
-6.32391e-05
8.88937e-05
-0.000155036
9.24116e-05
-0.000245713
9.7412e-05
-0.000245116
0.000110055
-0.00023272
0.000123277
-0.000202027
0.000135466
-0.000170112
0.000149725
-0.000150279
0.000162659
-0.000135224
0.000174173
-0.000123142
0.00018325
-0.000101034
0.000227588
-0.000109676
0.000207503
-5.4032e-05
0.000193816
4.79562e-06
0.000141702
0.000146725
0.00012221
0.000331006
0.000970566
7.59987e-05
0.000267874
9.11539e-05
0.00017523
9.82629e-05
-7.03481e-05
0.000109297
-0.00016607
0.000106318
-0.000242734
0.00011093
-0.000249729
0.000119439
-0.000241228
0.000129422
-0.000212011
0.000140219
-0.000180909
0.000152171
-0.00016223
0.000162448
-0.000145501
0.000172188
-0.000132882
0.000220901
-0.000149746
0.000216445
-0.00010522
0.000218519
-5.6106e-05
0.00018262
4.0695e-05
0.000134987
0.000194358
9.04636e-05
0.000375529
0.00106103
0.0002288
0.000156064
0.000212485
0.000185388
0.000157614
0.000232642
9.75436e-05
0.000232385
5.44478e-05
0.000209917
2.30443e-05
0.000192045
-2.82633e-06
0.000176099
0.000164183
6.05504e-05
9.55133e-05
-2.87718e-05
8.93222e-05
-9.7187e-05
6.84152e-05
4.46513e-05
-0.000141838
0.000181746
9.91556e-05
0.00018426
8.68079e-05
0.000180976
7.16992e-05
4.75948e-05
0.000178033
0.000258228
7.35698e-05
0.000277926
6.71104e-05
0.000295342
5.42827e-05
3.56416e-05
0.000307295
0.000263891
4.20644e-05
0.000290384
4.06166e-05
0.000311951
3.27165e-05
2.03081e-05
0.000327284
0.000230459
2.15228e-05
0.000252328
1.87475e-05
0.000273473
1.15715e-05
3.67011e-06
0.000290111
0.000207166
6.40129e-06
0.000223953
1.96101e-06
0.000238212
-2.68803e-06
-8.84444e-06
0.000250727
0.000189516
-7.01601e-06
0.000202165
-1.06883e-05
0.000213836
-1.43585e-05
-1.87995e-05
0.000223791
0.00017483
-1.76627e-05
0.000183564
-1.94222e-05
0.000193168
-2.39628e-05
-2.77194e-05
0.000202088
0.000158412
-2.6552e-05
0.000167485
-2.84953e-05
0.000177167
-3.36444e-05
-3.89675e-05
0.000188415
0.00014677
-3.60947e-05
0.000159083
-4.08078e-05
0.000167598
-4.21597e-05
-3.55452e-05
0.000164176
0.000129956
-3.41916e-05
0.000123452
-3.43037e-05
0.000116989
-3.56968e-05
-2.9892e-05
0.000111336
8.68884e-05
-1.11574e-05
3.12712e-05
2.13135e-05
-4.95135e-05
4.50879e-05
1.35801e-05
-9.29857e-05
-9.31337e-05
4.08792e-07
-7.59778e-05
4.1575e-06
-5.16786e-05
2.07887e-05
1.76595e-05
-5.57581e-05
-8.04795e-05
9.79121e-06
-8.96526e-05
1.33306e-05
-8.57818e-05
1.69179e-05
1.72337e-05
-8.5356e-05
-0.000100404
1.20926e-05
-0.000100739
1.3665e-05
-9.9348e-05
1.55273e-05
1.67581e-05
-9.88724e-05
-0.00010581
1.27927e-05
-0.000105515
1.33699e-05
-0.000104333
1.43453e-05
1.50383e-05
-0.000102613
-0.000104212
-0.000103712
-0.000102522
-0.000100946
2.33664e-05
0.000102669
0.000189491
9.10474e-06
0.00023445
-0.000115307
0.000268361
-0.000199981
0.000270446
-0.000244819
0.000271671
-0.000250954
0.000272838
-0.000242394
0.000280814
-0.000219987
0.000300152
-0.000200246
0.000322873
-0.000184952
0.000336239
-0.000158867
0.000388638
-0.000185281
0.000362427
-0.000123535
0.000292955
-3.57484e-05
0.000219235
1.76146e-05
0.000165508
9.44217e-05
0.00010314
0.000256726
4.84785e-05
0.000430191
0.00110951
0.000238514
4.21886e-05
0.000296158
-4.85398e-05
0.000323146
-0.000142295
0.000321008
-0.000197843
0.000305878
-0.00022969
0.000292434
-0.000237509
0.000284084
-0.000234045
0.000287009
-0.000222913
0.00029798
-0.000211217
0.000301476
-0.000188448
0.000360012
-0.000217404
0.000281246
-0.000106515
0.000151201
6.51085e-06
5.17047e-05
6.37477e-05
-1.0459e-05
7.97783e-05
-3.846e-05
0.000122423
-6.01683e-05
0.000278435
-8.42432e-05
0.000454266
0.00102527
0.000329734
1.97501e-05
0.000354032
-7.28383e-05
0.000350508
-0.000138771
0.000331926
-0.000179261
0.000310894
-0.000208657
0.000292146
-0.000218761
0.000281707
-0.000223606
0.000280083
-0.000221289
0.00027644
-0.000207575
0.000318877
-0.000230884
0.000211112
-0.000109639
7.41831e-05
3.04142e-05
-2.32867e-05
0.000103981
-7.22043e-05
0.000112665
-0.000119312
0.000126886
-0.000167709
0.000170819
-0.000169827
0.000280553
-0.000176997
0.000461436
0.000848269
0.000350354
-3.31953e-06
0.000344502
-6.69869e-05
0.000325648
-0.000119916
0.000305942
-0.000159555
0.000288458
-0.000191173
0.000275333
-0.000205636
0.000265808
-0.000214081
0.000257014
-0.000212496
0.00027431
-0.00022487
0.000167297
-0.000123871
2.20079e-05
3.56499e-05
-6.85052e-05
0.000120927
-0.000102366
0.000137842
-0.000133998
0.000144297
-0.000170947
0.000163836
-0.000207752
0.000207624
-0.000222656
0.000295457
-0.00020137
0.000440149
0.000646899
0.000309372
-2.2581e-05
0.000309748
-6.73631e-05
0.000303257
-0.000113424
0.00029519
-0.000151489
0.000284048
-0.000180031
0.00027123
-0.000192818
0.000252863
-0.000195713
0.000259345
-0.000218978
0.000158984
-0.00012451
9.07792e-06
2.60359e-05
-8.60342e-05
0.000130762
-0.000115892
0.000150785
-0.000133578
0.000155528
-0.000155488
0.000166207
-0.000180765
0.000189112
-0.000202174
0.000229032
-0.000202945
0.000296228
-0.000157639
0.000394844
0.00048926
0.00027114
-4.29938e-05
0.000279134
-7.53573e-05
0.00027915
-0.000113441
0.000272113
-0.000144452
0.00026017
-0.000168088
0.000240001
-0.000172648
0.000216709
-0.000172421
0.000103016
-0.000105285
-4.02186e-05
1.87245e-05
-0.000116549
0.000102366
-0.000126601
0.000140814
-0.000131178
0.000155362
-0.000138662
0.000163011
-0.000150817
0.000178362
-0.000161998
0.000200293
-0.000166636
0.00023367
-0.000152093
0.000281684
-0.000101906
0.000344658
0.000387353
0.000241806
-6.10093e-05
0.000254871
-8.84218e-05
0.000258693
-0.000117263
0.000253914
-0.000139673
0.000237835
-0.000152009
0.00020519
-0.000140003
9.84964e-05
-6.57276e-05
-4.28808e-05
3.60926e-05
-0.000113346
8.91898e-05
-0.000132939
0.000121959
-0.000134344
0.000142219
-0.000132117
0.000153136
-0.000133774
0.000164668
-0.000135557
0.000180145
-0.000135334
0.000200071
-0.000128946
0.000227282
-0.000108732
0.000261471
-6.58088e-05
0.000301734
0.000321545
0.000220812
-7.97331e-05
0.000237201
-0.000104811
0.000231131
-0.000111193
0.000224026
-0.000132568
0.000156031
-8.4014e-05
3.48344e-05
-1.88065e-05
-7.59593e-05
4.50662e-05
-0.000115378
7.55115e-05
-0.000130269
0.00010408
-0.000133168
0.000124858
-0.000130546
0.000139598
-0.000126826
0.000149416
-0.000123669
0.000161511
-0.000119196
0.000175672
-0.000113271
0.000194145
-0.000101838
0.000215849
-8.07482e-05
0.000240381
-4.53701e-05
0.000266356
0.000276174
0.000206291
-9.76086e-05
0.000198701
-9.72215e-05
0.000161737
-7.42285e-05
6.69918e-05
-3.78229e-05
-4.11777e-05
2.41555e-05
-8.64743e-05
2.64901e-05
-0.000111678
7.02694e-05
-0.000125532
8.9366e-05
-0.000129865
0.000108414
-0.00012717
0.000122162
-0.000121032
0.00013346
-0.000115903
0.000144286
-0.000110618
0.000156225
-0.000104367
0.000169422
-9.55499e-05
0.000185328
-8.22639e-05
0.000202563
-6.23002e-05
0.000220417
-3.35259e-05
0.000237582
0.000242648
0.000155325
-8.87583e-05
0.000110205
-5.21008e-05
-2.84813e-06
3.88243e-05
-6.23656e-05
2.16946e-05
-7.59672e-05
3.7757e-05
-0.000109917
6.04399e-05
-0.000119835
8.01874e-05
-0.000124041
9.35717e-05
-0.000122436
0.000106809
-0.000117005
0.000116731
-0.000111206
0.000127661
-0.000105476
0.000138556
-9.90697e-05
0.000149819
-9.15325e-05
0.000161885
-8.14771e-05
0.000175272
-6.79215e-05
0.000189008
-4.977e-05
0.000202265
-2.61634e-05
0.000213975
0.000216485
-1.87473e-06
2.44524e-05
-7.69441e-05
2.29685e-05
-5.8842e-05
2.07222e-05
-9.11943e-05
5.40468e-05
-0.000106138
5.27005e-05
-0.000115597
6.98989e-05
-0.000117539
8.21297e-05
-0.000116673
9.27058e-05
-0.000112057
0.000102192
-0.000107363
0.000112038
-0.00010192
0.000122217
-9.58541e-05
0.000132491
-8.88978e-05
0.000142863
-8.06573e-05
0.000153644
-7.02643e-05
0.000164879
-5.71788e-05
0.000175922
-4.09449e-05
0.000186031
-2.12097e-05
0.00019424
0.000195275
-6.13411e-05
-7.19221e-06
-7.14516e-05
3.3079e-05
-9.94095e-05
4.86801e-05
-0.00010138
5.60173e-05
-0.000110371
6.16918e-05
-0.000112236
7.1763e-05
-0.000110815
8.07095e-05
-0.000107234
8.91239e-05
-0.000103279
9.82377e-05
-9.87105e-05
0.000107469
-9.33387e-05
0.000116846
-8.71118e-05
0.000126264
-7.99199e-05
0.000135671
-7.1455e-05
0.000145179
-6.12384e-05
0.000154663
-4.89574e-05
0.000163641
-3.44734e-05
0.000171547
-1.77207e-05
0.000177487
0.000177555
-9.2776e-05
2.98257e-05
-9.83619e-05
3.86648e-05
-0.000103393
5.3711e-05
-0.000104543
5.71679e-05
-0.000106316
6.34644e-05
-0.000104647
7.00936e-05
-0.000102393
7.84556e-05
-9.90737e-05
8.58048e-05
-9.54177e-05
9.45816e-05
-9.08157e-05
0.000102867
-8.54601e-05
0.00011149
-7.92216e-05
0.000120025
-7.20267e-05
0.000128476
-6.3669e-05
0.000136822
-5.38711e-05
0.000144865
-4.24998e-05
0.00015227
-2.95168e-05
0.000158564
-1.50796e-05
0.00016305
0.000162475
-9.5815e-05
4.02846e-05
-0.000102705
4.55552e-05
-0.000101782
5.27877e-05
-0.00010133
5.67158e-05
-9.94459e-05
6.15803e-05
-9.78338e-05
6.84814e-05
-9.5103e-05
7.57248e-05
-9.20729e-05
8.27746e-05
-8.82027e-05
9.07114e-05
-8.36466e-05
9.83109e-05
-7.83215e-05
0.000106165
-7.21613e-05
0.000113865
-6.51197e-05
0.000121434
-5.70414e-05
0.000128743
-4.77977e-05
0.000135621
-3.73349e-05
0.000141807
-2.56961e-05
0.000146926
-1.30809e-05
0.000150435
0.000149394
-0.000100688
4.21002e-05
-0.000100876
4.57431e-05
-9.75774e-05
4.94892e-05
-9.57692e-05
5.49076e-05
-9.34365e-05
5.92475e-05
-9.16954e-05
6.67404e-05
-8.86807e-05
7.27101e-05
-8.56395e-05
7.97334e-05
-8.16552e-05
8.6727e-05
-7.71425e-05
9.37983e-05
-7.18833e-05
0.000100906
-6.58806e-05
0.000107862
-5.90657e-05
0.000114619
-5.13701e-05
0.000121048
-4.27222e-05
0.000126973
-3.31161e-05
0.000132201
-2.26309e-05
0.00013644
-1.14552e-05
0.000139259
0.000137939
-9.89296e-05
3.8417e-05
-9.51432e-05
4.19566e-05
-9.28036e-05
4.71497e-05
-9.10931e-05
5.3197e-05
-8.84112e-05
5.65657e-05
-8.61141e-05
6.44432e-05
-8.29421e-05
6.95382e-05
-7.96906e-05
7.64819e-05
-7.5713e-05
8.27495e-05
-7.12345e-05
8.93197e-05
-6.60888e-05
9.57602e-05
-6.02788e-05
0.000102052
-5.37555e-05
0.000108096
-4.64741e-05
0.000113766
-3.84261e-05
0.000118925
-2.962e-05
0.000123395
-2.01515e-05
0.000126972
-1.01826e-05
0.00012929
0.000127756
-9.5515e-05
-9.07148e-05
-8.88592e-05
-8.62211e-05
-8.33248e-05
-8.09528e-05
-7.76218e-05
-7.42531e-05
-7.02798e-05
-6.5858e-05
-6.0857e-05
-5.52741e-05
-4.90692e-05
-4.22253e-05
-3.47478e-05
-2.66683e-05
-1.80772e-05
-9.09816e-06
)
;

boundaryField
{
    leftWall
    {
        type            calculated;
        value           nonuniform 0();
    }
    rightWall
    {
        type            calculated;
        value           uniform 0;
    }
    lowerWall
    {
        type            calculated;
        value           nonuniform List<scalar> 
40
(
-8.60268e-23
0
0
0
0
0
0
0
0
5.29396e-23
2.06795e-23
0
1.32349e-23
0
0
0
0
0
0
0
0
-5.29396e-23
0
-1.05879e-22
0
-1.05879e-22
-5.29396e-23
-3.30872e-23
-2.64698e-23
1.32349e-22
5.29396e-23
-5.29396e-23
-5.29396e-23
5.29396e-23
-1.58819e-22
0
0
0
-5.29396e-23
5.29396e-23
)
;
    }
    atmosphere
    {
        type            calculated;
        value           nonuniform 0();
    }
    defaultFaces
    {
        type            empty;
        value           nonuniform 0();
    }
    procBoundary1to0
    {
        type            processor;
        value           nonuniform List<scalar> 
26
(
-3.31099e-05
-3.66265e-05
-3.97854e-05
-4.1795e-05
-3.91796e-05
-2.86308e-05
-2.19221e-05
-2.10754e-05
-0.000122739
-0.000169074
-0.000177771
-0.000172315
-0.000166821
-0.000160641
-0.000150228
-0.00014023
-2.67799e-05
-0.000149523
-0.000137228
-0.00013186
-0.000109923
8.15674e-05
7.10971e-05
9.81027e-05
0.00010511
0.00010505
)
;
    }
    procBoundary1to3
    {
        type            processor;
        value           nonuniform List<scalar> 
23
(
1.19553e-05
1.28694e-05
1.31558e-05
1.34622e-05
3.2986e-05
3.71564e-05
4.5294e-05
5.05589e-05
5.36692e-05
6.20712e-05
6.62071e-05
7.31132e-05
7.87762e-05
8.48979e-05
9.07591e-05
9.64693e-05
0.000101891
0.000106922
0.000111447
0.000115315
0.000118381
0.000120311
0.000118658
)
;
    }
}


// ************************************************************************* //
