/*--------------------------------*- C++ -*----------------------------------*\
| =========                 |                                                 |
| \\      /  F ield         | OpenFOAM: The Open Source CFD Toolbox           |
|  \\    /   O peration     | Version:  2.4.0                                 |
|   \\  /    A nd           | Web:      www.OpenFOAM.org                      |
|    \\/     M anipulation  |                                                 |
\*---------------------------------------------------------------------------*/
FoamFile
{
    version     2.0;
    format      ascii;
    class       surfaceScalarField;
    location    "0.2";
    object      phi.air;
}
// * * * * * * * * * * * * * * * * * * * * * * * * * * * * * * * * * * * * * //

dimensions      [0 3 -1 0 0 0 0];

internalField   nonuniform List<scalar> 
1061
(
3.31751e-05
6.98198e-05
0.00010963
0.000151466
0.000190694
0.000219087
0.000240311
0.000260091
-0.000104878
0.000138634
-0.000128299
7.52781e-05
-0.000171852
0.000118963
-0.000205029
9.58573e-05
-0.000240422
-1.03834e-06
-0.000145191
-3.23393e-05
-3.39613e-05
4.58358e-06
4.66681e-05
4.13849e-05
9.81325e-05
4.56364e-05
0.000131742
5.25284e-05
0.000153749
5.54971e-05
0.000173124
5.44914e-05
0.000190938
6.05687e-05
0.000208589
8.71199e-05
0.000201634
0.000122211
0.000168493
0.000135482
0.000109309
0.000132057
-2.81628e-06
0.000154463
0.000290898
-4.90689e-05
0.000163087
-0.000100267
6.44551e-05
-0.000106497
4.16514e-05
-0.000151166
0.000103106
-0.000152602
5.95611e-05
-5.12945e-05
-9.80619e-05
1.19855e-05
-9.5986e-05
5.86383e-05
-8.74517e-05
8.93905e-05
-6.7045e-05
0.000114945
-5.23168e-05
0.000139115
-4.46765e-05
0.000164197
-4.32018e-05
0.000193664
-3.35978e-05
0.000205074
2.9726e-05
0.000202846
1.50374e-05
0.000182212
3.0085e-05
0.000148818
0.000167484
1.54678e-05
0.000320961
0.000483801
-7.71101e-05
0.000237864
-0.000120266
0.000104409
-0.000123783
7.64015e-06
-0.000181379
2.24136e-05
-0.000112936
1.8335e-05
-1.88127e-05
-0.000116028
3.76075e-05
-0.000127715
7.36363e-05
-0.000119585
0.000103246
-9.65014e-05
0.000128408
-7.76743e-05
0.000151003
-6.79609e-05
0.000171614
-6.49007e-05
0.000187722
-5.92072e-05
0.00019866
-4.69911e-05
0.000203712
-1.93299e-05
0.000192181
7.53995e-05
0.000195576
0.000277389
3.79737e-05
0.000536735
0.000606408
-9.1969e-05
0.000329818
-0.000200579
0.000212984
-0.000200792
2.90274e-06
-0.00016571
-8.9139e-05
-0.000148367
-0.000133888
3.53745e-06
-0.000149092
6.07473e-05
-0.000159293
9.20539e-05
-0.000148914
0.000117325
-0.000121899
0.000139356
-9.99835e-05
0.000159146
-8.79393e-05
0.000176687
-8.2537e-05
0.00018972
-7.18357e-05
0.000198643
-3.72393e-05
0.00020429
3.79481e-05
0.000222485
0.000176357
0.0002003
0.000144649
-5.55183e-05
0.000404051
0.000928079
-4.73182e-05
0.000377136
-5.63129e-05
0.000221974
-7.1427e-05
1.63541e-05
-6.15588e-05
-0.000160212
-7.02699e-05
-0.000233902
1.61212e-05
-0.000175206
8.19602e-05
-0.000195767
0.000104828
-0.00017167
0.000124705
-0.000141953
0.000143541
-0.000118927
0.000162149
-0.000106549
0.000178113
-9.80161e-05
0.000192101
-5.89018e-05
0.000203407
1.04408e-05
0.00021885
0.00013832
0.000236744
3.35094e-05
0.000201245
7.04195e-05
0.000111364
0.00034936
0.000884575
-1.88721e-06
0.000379022
1.28852e-05
0.000207182
4.13231e-05
-1.665e-05
2.23105e-06
-0.000181073
-1.36893e-05
-0.00028674
4.36042e-05
-0.000206643
0.000101251
-0.000219569
0.000117777
-0.000188245
0.00013329
-0.000157482
0.000150011
-0.00013558
0.00016542
-0.000122006
0.00018269
-9.51521e-05
0.000200383
-2.21376e-05
0.000217458
9.99789e-05
0.000251224
-2.65941e-05
0.000205882
2.82652e-06
0.000157962
9.51256e-05
0.000172307
0.00031155
0.000887048
3.5153e-05
0.000343869
5.18775e-05
0.000190383
9.1563e-05
-5.96176e-05
2.98972e-05
-0.00018137
2.00116e-05
-0.00029351
9.10632e-05
-0.000241718
0.000109968
-0.000232437
0.000123244
-0.000201587
0.000135493
-0.000169735
0.000149769
-0.00015016
0.000165011
-0.00013509
0.000185999
-5.44101e-05
0.00021691
5.38729e-05
0.000254098
-6.7873e-05
0.000209014
-4.5878e-05
0.000193842
5.00003e-06
0.000141701
0.000146726
0.000119966
0.000331005
0.00097089
7.59983e-05
0.000268963
9.2301e-05
0.000179921
8.25483e-05
-6.33816e-05
5.62241e-05
-0.000199954
4.45358e-05
-0.000282896
0.000110153
-0.000249382
0.000119319
-0.000240929
0.00012939
-0.000211679
0.000140236
-0.00017919
0.000152184
-0.000113352
0.00016874
-6.43104e-05
0.000204187
2.96373e-05
0.000254415
-0.000103462
0.000219859
-9.33181e-05
0.000218638
-5.56725e-05
0.000182619
4.06967e-05
0.000134986
0.000194358
9.03561e-05
0.000375527
0.00106092
0.000241427
0.000126122
0.00023372
0.000157603
0.000195166
0.000195542
0.000132431
0.00021147
5.90499e-05
0.000206247
2.30532e-05
0.000191886
-2.79258e-06
0.000176104
0.000164224
-5.57025e-06
0.000110977
-0.000184493
9.2432e-05
-0.000148164
4.90355e-05
5.09891e-05
-0.000167714
0.000156062
0.000109308
0.000300527
0.000102148
0.000279983
3.84204e-05
-3.04354e-05
0.000157436
0.000210854
9.45251e-05
0.000223714
8.90915e-05
0.000246811
8.15812e-05
6.34859e-05
0.000265178
0.000227417
6.85067e-05
0.000244777
7.01828e-05
0.000265876
6.75631e-05
5.72672e-05
0.000278592
0.000223193
3.04517e-05
0.000239992
3.75969e-05
0.000257713
3.90757e-05
3.41987e-05
0.000273969
0.000206554
6.51855e-06
0.000222923
3.06079e-06
0.000237188
1.37327e-06
1.99762e-07
0.000250037
0.000189526
-6.99367e-06
0.000202178
-1.06595e-05
0.000213719
-1.43276e-05
-1.8745e-05
0.000222355
0.000174888
-1.75945e-05
0.000183633
-1.90404e-05
0.00019323
-2.15041e-05
-1.82629e-05
0.000203109
0.000158722
-2.42094e-06
0.000169897
-1.18857e-06
0.000190079
-5.65665e-06
-7.35995e-06
0.000223827
0.000186268
2.35422e-06
0.000198326
5.18406e-06
0.000211819
7.72111e-06
7.64524e-06
0.000195364
0.000156565
-2.0878e-06
0.000137441
-4.44535e-06
0.000121342
-1.48047e-05
-2.53682e-05
0.000112222
8.68287e-05
-8.81673e-06
3.08714e-05
2.20048e-05
-4.95454e-05
4.5127e-05
1.35804e-05
-9.29864e-05
-9.31341e-05
4.08809e-07
-7.5978e-05
4.15768e-06
-5.16786e-05
2.07887e-05
1.76595e-05
-5.57581e-05
-8.04795e-05
9.7912e-06
-8.96526e-05
1.33306e-05
-8.57818e-05
1.69179e-05
1.72337e-05
-8.53561e-05
-0.000100404
1.20926e-05
-0.000100739
1.3665e-05
-9.93481e-05
1.55273e-05
1.67581e-05
-9.88725e-05
-0.00010581
1.27927e-05
-0.000105515
1.33699e-05
-0.000104333
1.43453e-05
1.50383e-05
-0.000102613
-0.000104212
-0.000103712
-0.000102522
-0.000100946
1.98518e-05
0.00015122
0.00019704
1.62325e-05
0.000160732
-0.000204692
0.000168411
-0.000293329
0.000227688
-0.000268517
0.000271405
-0.000250977
0.000272641
-0.000242246
0.000280352
-0.000215587
0.000302473
-0.000115749
0.000347238
-9.31336e-05
0.000394563
-2.45563e-05
0.00043254
-0.00015675
0.000365975
-0.000111726
0.000292929
-3.52061e-05
0.000219233
1.76167e-05
0.000165507
9.44212e-05
0.00010314
0.000256725
4.84606e-05
0.000430188
0.0011095
0.00023081
-0.000114288
0.000251938
-0.000216603
0.000251743
-0.000255636
0.00029676
-0.000223219
0.000305404
-0.000229938
0.000292248
-0.000237536
0.000280998
-0.00023223
0.000265905
-0.000161847
0.00031614
-0.000138622
0.000329749
-9.88774e-05
0.000389714
-0.000204963
0.000281321
-9.90324e-05
0.000151139
6.72183e-06
5.17041e-05
6.37478e-05
-1.04589e-05
7.97778e-05
-3.84597e-05
0.000122422
-6.0168e-05
0.000278433
-8.42444e-05
0.000454262
0.00102526
0.000258445
4.72119e-05
0.000307209
2.05063e-05
0.000327455
-6.06202e-05
0.000327444
-0.000161909
0.000310836
-0.000207984
0.000287241
-0.000220556
0.00022398
-0.000229011
0.000277564
-0.000190857
0.000284516
-0.000154764
0.000333105
-0.000223992
0.000208808
-0.000104808
7.41167e-05
3.0517e-05
-2.32868e-05
0.00010398
-7.22039e-05
0.000112665
-0.000119312
0.000126886
-0.000167708
0.000170818
-0.000169826
0.000280551
-0.000176997
0.000461432
0.000848263
0.000310347
0.000104472
0.000327984
3.64983e-05
0.000321908
-4.78064e-05
0.000304838
-0.000131726
0.000285407
-0.000193601
0.000219054
-0.000240769
0.000217319
-0.000244978
0.000246472
-0.00018622
0.000276063
-0.00022252
0.000164601
-0.000121214
2.19529e-05
3.57112e-05
-6.8505e-05
0.000120927
-0.000102365
0.000137841
-0.000133997
0.000144296
-0.000170946
0.000163835
-0.000207751
0.000207622
-0.000222655
0.000295455
-0.000201369
0.000440147
0.000646895
0.0002968
6.23359e-05
0.000309437
2.27003e-05
0.000308155
-3.91748e-05
0.000296993
-0.000114995
0.000247417
-0.000226271
0.000220138
-0.000229574
0.0002421
-0.000167239
0.000261497
-0.000210538
0.00015758
-0.000121244
9.04202e-06
2.60726e-05
-8.60338e-05
0.000130761
-0.000115891
0.000150785
-0.000133577
0.000155527
-0.000155487
0.000166206
-0.000180764
0.000189111
-0.000202173
0.000229031
-0.000202944
0.000296226
-0.000157638
0.000394842
0.000489257
0.000275497
4.83977e-06
0.000288953
-1.52274e-05
0.000293251
-6.16593e-05
0.000262444
-0.00015832
0.000246041
-0.000172554
0.00023969
-0.00013692
0.00021889
-0.000163007
0.000102089
-0.000104023
-4.02293e-05
1.87457e-05
-0.000116549
0.000102366
-0.000126601
0.000140813
-0.000131177
0.000155362
-0.000138661
0.00016301
-0.000150816
0.000178361
-0.000161997
0.000200292
-0.000166635
0.000233669
-0.000152092
0.000281683
-0.000101906
0.000344656
0.000387352
0.000247888
-5.64803e-05
0.000274952
-5.34657e-05
0.000287496
-8.73167e-05
0.000285445
-9.36858e-05
0.000248569
-0.000112706
0.00020992
-0.000122621
9.84264e-05
-6.46936e-05
-4.28838e-05
3.60967e-05
-0.000113346
8.91896e-05
-0.000132938
0.000121959
-0.000134343
0.000142219
-0.000132117
0.000153135
-0.000133773
0.000164667
-0.000135556
0.000180144
-0.000135333
0.00020007
-0.000128945
0.000227281
-0.000108731
0.00026147
-6.58085e-05
0.000301733
0.000321543
0.00025708
-2.3673e-05
0.000280853
-3.85354e-05
0.000267993
-2.45082e-05
0.000244741
-8.74294e-05
0.000160099
-7.06625e-05
3.4885e-05
-1.84909e-05
-7.59593e-05
4.50664e-05
-0.000115378
7.55113e-05
-0.000130268
0.00010408
-0.000133167
0.000124857
-0.000130546
0.000139597
-0.000126826
0.000149415
-0.000123669
0.00016151
-0.000119196
0.000175672
-0.00011327
0.000194144
-0.000101838
0.000215849
-8.07479e-05
0.00024038
-4.537e-05
0.000266355
0.000276174
0.000249519
1.14625e-05
0.000226145
-2.06891e-05
0.000171843
-3.11856e-05
6.73878e-05
-3.57033e-05
-4.11823e-05
2.41791e-05
-8.64743e-05
2.64901e-05
-0.000111677
7.02694e-05
-0.000125532
8.93659e-05
-0.000129865
0.000108413
-0.000127169
0.000122162
-0.000121032
0.00013346
-0.000115903
0.000144286
-0.000110617
0.000156225
-0.000104367
0.000169422
-9.55496e-05
0.000185327
-8.22637e-05
0.000202563
-6.23001e-05
0.000220416
-3.35259e-05
0.000237581
0.000242648
0.000168592
-2.73943e-05
0.000111906
-4.04373e-05
-2.86494e-06
3.90525e-05
-6.23657e-05
2.16946e-05
-7.59672e-05
3.7757e-05
-0.000109917
6.04399e-05
-0.000119835
8.01873e-05
-0.00012404
9.35715e-05
-0.000122436
0.000106809
-0.000117005
0.000116731
-0.000111205
0.000127661
-0.000105476
0.000138556
-9.90694e-05
0.000149819
-9.15323e-05
0.000161884
-8.14769e-05
0.000175272
-6.79213e-05
0.000189007
-4.97699e-05
0.000202265
-2.61634e-05
0.000213975
0.000216485
-2.43955e-06
2.59291e-05
-7.69466e-05
2.29728e-05
-5.88421e-05
2.07222e-05
-9.11943e-05
5.40468e-05
-0.000106138
5.27005e-05
-0.000115597
6.98989e-05
-0.000117539
8.21296e-05
-0.000116673
9.27057e-05
-0.000112057
0.000102192
-0.000107363
0.000112037
-0.00010192
0.000122217
-9.58539e-05
0.00013249
-8.88976e-05
0.000142862
-8.06571e-05
0.000153644
-7.02642e-05
0.000164879
-5.71787e-05
0.000175922
-4.09448e-05
0.000186031
-2.12097e-05
0.00019424
0.000195275
-6.13413e-05
-7.19198e-06
-7.14516e-05
3.3079e-05
-9.94096e-05
4.86802e-05
-0.00010138
5.60174e-05
-0.000110371
6.16918e-05
-0.000112235
7.1763e-05
-0.000110815
8.07095e-05
-0.000107234
8.91238e-05
-0.000103279
9.82375e-05
-9.87103e-05
0.000107469
-9.33385e-05
0.000116845
-8.71116e-05
0.000126264
-7.99197e-05
0.000135671
-7.14549e-05
0.000145179
-6.12384e-05
0.000154662
-4.89573e-05
0.000163641
-3.44734e-05
0.000171547
-1.77207e-05
0.000177487
0.000177554
-9.27761e-05
2.98257e-05
-9.8362e-05
3.86649e-05
-0.000103393
5.37111e-05
-0.000104543
5.71679e-05
-0.000106316
6.34644e-05
-0.000104647
7.00937e-05
-0.000102393
7.84555e-05
-9.90736e-05
8.58047e-05
-9.54175e-05
9.45815e-05
-9.08155e-05
0.000102867
-8.546e-05
0.00011149
-7.92215e-05
0.000120025
-7.20266e-05
0.000128476
-6.3669e-05
0.000136822
-5.3871e-05
0.000144864
-4.24997e-05
0.00015227
-2.95168e-05
0.000158564
-1.50796e-05
0.00016305
0.000162475
-9.58151e-05
4.02847e-05
-0.000102706
4.55553e-05
-0.000101782
5.27878e-05
-0.00010133
5.67158e-05
-9.9446e-05
6.15803e-05
-9.78338e-05
6.84815e-05
-9.5103e-05
7.57249e-05
-9.20729e-05
8.27746e-05
-8.82026e-05
9.07113e-05
-8.36465e-05
9.83109e-05
-7.83214e-05
0.000106165
-7.21612e-05
0.000113865
-6.51196e-05
0.000121434
-5.70414e-05
0.000128743
-4.77976e-05
0.000135621
-3.73348e-05
0.000141807
-2.56961e-05
0.000146926
-1.30809e-05
0.000150435
0.000149394
-0.000100688
4.21003e-05
-0.000100876
4.57431e-05
-9.75776e-05
4.94893e-05
-9.57693e-05
5.49077e-05
-9.34366e-05
5.92476e-05
-9.16955e-05
6.67405e-05
-8.86808e-05
7.27102e-05
-8.56395e-05
7.97335e-05
-8.16552e-05
8.67271e-05
-7.71424e-05
9.37983e-05
-7.18833e-05
0.000100906
-6.58806e-05
0.000107862
-5.90657e-05
0.000114619
-5.137e-05
0.000121048
-4.27221e-05
0.000126973
-3.31161e-05
0.000132201
-2.26308e-05
0.00013644
-1.14552e-05
0.000139259
0.000137939
-9.89298e-05
3.84171e-05
-9.51434e-05
4.19567e-05
-9.28038e-05
4.71498e-05
-9.10932e-05
5.31971e-05
-8.84114e-05
5.65658e-05
-8.61142e-05
6.44433e-05
-8.29422e-05
6.95383e-05
-7.96907e-05
7.64819e-05
-7.5713e-05
8.27495e-05
-7.12345e-05
8.93197e-05
-6.60888e-05
9.57602e-05
-6.02788e-05
0.000102052
-5.37555e-05
0.000108096
-4.64741e-05
0.000113766
-3.84261e-05
0.000118925
-2.962e-05
0.000123395
-2.01515e-05
0.000126972
-1.01825e-05
0.00012929
0.000127756
-9.55151e-05
-9.07149e-05
-8.88594e-05
-8.62213e-05
-8.33249e-05
-8.09529e-05
-7.76219e-05
-7.42532e-05
-7.02799e-05
-6.5858e-05
-6.0857e-05
-5.52741e-05
-4.90692e-05
-4.22253e-05
-3.47478e-05
-2.66683e-05
-1.80772e-05
-9.09815e-06
)
;

boundaryField
{
    leftWall
    {
        type            fixedValue;
        value           nonuniform 0();
    }
    rightWall
    {
        type            fixedValue;
        value           uniform 0;
    }
    lowerWall
    {
        type            fixedValue;
        value           uniform 0;
    }
    atmosphere
    {
        type            calculated;
        value           nonuniform 0();
    }
    defaultFaces
    {
        type            empty;
        value           nonuniform 0();
    }
    procBoundary1to0
    {
        type            processor;
        value           nonuniform List<scalar> 
26
(
-3.30856e-05
-3.65935e-05
-3.97467e-05
-4.17492e-05
-3.9177e-05
-2.95539e-05
-2.45578e-05
-2.43299e-05
-0.000105911
-0.000153221
-0.000165788
-0.000168525
-0.00016559
-0.000160632
-0.000150229
-0.000140248
-2.67004e-05
-0.000149591
-0.000167444
-0.000163928
-0.000115855
8.15819e-05
7.1097e-05
9.81027e-05
0.00010511
0.00010505
)
;
    }
    procBoundary1to3
    {
        type            processor;
        value           nonuniform List<scalar> 
23
(
1.19553e-05
1.28694e-05
1.31558e-05
1.34622e-05
3.2986e-05
3.71565e-05
4.52941e-05
5.0559e-05
5.36693e-05
6.20713e-05
6.62072e-05
7.31133e-05
7.87763e-05
8.48979e-05
9.07592e-05
9.64693e-05
0.000101891
0.000106922
0.000111447
0.000115315
0.000118381
0.000120311
0.000118658
)
;
    }
}


// ************************************************************************* //
