/*--------------------------------*- C++ -*----------------------------------*\
| =========                 |                                                 |
| \\      /  F ield         | OpenFOAM: The Open Source CFD Toolbox           |
|  \\    /   O peration     | Version:  2.4.0                                 |
|   \\  /    A nd           | Web:      www.OpenFOAM.org                      |
|    \\/     M anipulation  |                                                 |
\*---------------------------------------------------------------------------*/
FoamFile
{
    version     2.0;
    format      ascii;
    class       surfaceScalarField;
    location    "0.2";
    object      phi.oil;
}
// * * * * * * * * * * * * * * * * * * * * * * * * * * * * * * * * * * * * * //

dimensions      [0 3 -1 0 0 0 0];

internalField   nonuniform List<scalar> 
1061
(
7.05001e-05
0.000107379
0.000154282
0.000206182
0.000253385
0.000274995
0.000278592
0.000282852
-0.000117733
-0.000192812
-0.00012482
-9.09875e-05
-0.000147108
-2.1916e-05
-0.000156982
6.73741e-06
-0.000146048
-1.08738e-05
-7.61515e-05
-6.99298e-05
-9.64966e-06
-6.66567e-05
3.91114e-05
-4.89216e-05
7.66351e-05
-3.78193e-05
0.00010441
-2.85159e-05
0.000126431
-2.26684e-05
0.000148118
-2.19399e-05
0.000171831
-2.39884e-05
0.000193249
-2.312e-05
0.000210348
-2.36827e-05
0.000218052
-1.55335e-05
0.000198302
8.27569e-06
0.000133352
5.5983e-05
0.000127666
-0.000103934
-0.000198321
-8.48428e-05
-9.12382e-05
-8.27168e-05
-8.80855e-05
-9.0212e-05
-5.30695e-05
-8.12159e-05
-2.61327e-05
-3.48412e-05
-0.000116333
1.53541e-05
-0.000116778
5.85858e-05
-9.20631e-05
8.91679e-05
-6.82569e-05
0.000114547
-5.33878e-05
0.000138557
-4.6007e-05
0.000161861
-4.48323e-05
0.000181619
-4.34571e-05
0.000195899
-3.66113e-05
0.00020492
-2.35841e-05
0.000209806
-4.14377e-06
0.000198667
3.08925e-05
0.000136857
0.000118068
0.000262199
-8.93754e-05
-8.74837e-05
-2.92357e-05
-7.22014e-05
-2.29755e-05
-0.000157188
-3.75041e-05
-0.000145293
-3.25062e-05
-0.000120935
7.72355e-06
-0.000160566
4.15031e-05
-0.000150564
7.37373e-05
-0.000124297
0.000103098
-9.76178e-05
0.000128221
-7.85102e-05
0.000150817
-6.86031e-05
0.000171476
-6.54912e-05
0.000187657
-5.9638e-05
0.00019859
-4.74929e-05
0.000203773
-2.8758e-05
0.000206355
-6.7898e-06
0.000204607
1.821e-05
0.00014031
6.96171e-05
0.000399093
-6.68567e-05
0.000102818
6.54672e-06
3.00749e-05
4.5673e-05
-0.000128931
2.89227e-05
-0.000147758
2.36266e-05
-0.000197459
3.94439e-05
-0.000213207
6.52396e-05
-0.00017639
9.21834e-05
-0.000151241
0.000117242
-0.000122676
0.00013925
-0.000100519
0.000159031
-8.83838e-05
0.000176557
-8.30176e-05
0.000189532
-7.26126e-05
0.000197556
-5.55185e-05
0.000202585
-3.40617e-05
0.000203101
-3.31925e-05
0.000206243
-6.10285e-05
0.000153983
-3.83031e-06
0.00045731
-4.62202e-05
0.000206791
2.00424e-05
9.07499e-05
6.61446e-05
-0.000106028
7.81238e-05
-0.000131938
5.37555e-05
-0.000221077
5.96938e-05
-0.000231287
8.37184e-05
-0.000200509
0.000104865
-0.000172388
0.000124664
-0.000142475
0.000143479
-0.000119333
0.000162059
-0.000106965
0.000177942
-9.89007e-05
0.000188798
-8.34711e-05
0.000194635
-6.18808e-05
0.000193743
-7.09427e-05
0.000202532
-0.000114497
0.000243618
-0.000159247
0.000215693
-0.000117028
0.000485171
-3.40186e-05
0.000284389
4.38295e-05
0.000163472
9.74719e-05
-0.000104874
9.3108e-05
-0.000137045
7.60017e-05
-0.00024018
8.18449e-05
-0.000240132
0.000101396
-0.000220077
0.000117813
-0.000188805
0.000133261
-0.000157923
0.000149947
-0.00013602
0.000165272
-0.00012229
0.000177999
-0.000111629
0.000186392
-9.25345e-05
0.000184889
-0.000103099
0.000194093
-0.000150195
0.000203378
-0.00019309
0.000293219
-0.000194188
0.000278634
-4.27555e-05
0.000642931
-1.41208e-05
0.000318349
5.85571e-05
0.00015168
0.000110839
-9.87689e-05
0.000104668
-0.00014497
9.30438e-05
-0.000245223
9.74122e-05
-0.000245116
0.000110055
-0.00023272
0.000123277
-0.000202027
0.000135466
-0.000170112
0.000149725
-0.000150279
0.000162659
-0.000135224
0.000174076
-0.000123404
0.000175493
-0.000129848
0.000182242
-0.000176829
0.000178228
-0.000209243
0.000166567
-0.000207541
0.000195414
-4.35243e-05
0.000303693
0.000157409
0.000944603
2.88588e-05
0.000169223
7.82051e-05
6.85485e-05
0.000113526
-8.55755e-05
0.000113644
-0.000161909
0.000106413
-0.000242646
0.00011093
-0.000249729
0.000119439
-0.000241228
0.000129422
-0.000212011
0.000140219
-0.000180909
0.000152171
-0.000162241
0.000162425
-0.000146026
0.000166432
-0.000150653
0.000173485
-0.000191016
0.000167027
-0.000229145
0.00015166
-0.000234468
0.000178666
-0.000116887
0.000151345
8.7722e-05
0.00049408
0.00026734
0.00134307
0.000210835
0.000193556
0.000203926
0.000207279
0.000153407
0.000243506
9.66888e-05
0.000233835
5.44291e-05
0.000209958
2.30443e-05
0.000192045
-2.82633e-06
0.000176099
0.000164183
4.35213e-05
8.2507e-05
-3.23501e-05
8.23585e-05
-6.86785e-05
6.51605e-05
3.57537e-05
-5.34312e-05
0.000198908
9.32857e-05
0.000192751
8.05818e-05
0.000179699
6.61153e-05
4.57796e-05
0.000181964
0.00027531
6.89994e-05
0.000294825
6.173e-05
0.000308817
4.88631e-05
3.03684e-05
0.000315897
0.000267654
4.06945e-05
0.000296464
3.83852e-05
0.000318185
2.95125e-05
1.70346e-05
0.000332718
0.000230586
2.14575e-05
0.000252676
1.85096e-05
0.000274118
1.09991e-05
2.76688e-06
0.000290867
0.000207168
6.40105e-06
0.000223957
1.95864e-06
0.00023822
-2.70122e-06
-8.89188e-06
0.000250735
0.000189516
-7.01601e-06
0.000202165
-1.06883e-05
0.000213836
-1.43585e-05
-1.87997e-05
0.000223794
0.00017483
-1.76627e-05
0.000183564
-1.94222e-05
0.000193168
-2.39628e-05
-2.77208e-05
0.000202088
0.000158412
-2.65646e-05
0.000167485
-2.85533e-05
0.000177165
-3.39014e-05
-3.99532e-05
0.000188308
0.000146666
-3.83339e-05
0.000158638
-4.68118e-05
0.000165795
-5.92695e-05
-6.99219e-05
0.00015896
0.000124589
-6.72337e-05
0.000115594
-8.01707e-05
0.000108561
-9.7044e-05
-7.74165e-05
0.000105218
8.79135e-05
-5.82933e-05
8.06963e-05
-6.82774e-05
3.50219e-05
-6.01202e-05
-2.49489e-05
-1.83817e-05
-1.2451e-05
-1.40553e-05
-1.3402e-05
-2.83552e-05
-4.08744e-05
8.96939e-06
1.73621e-05
-5.36422e-05
-7.83697e-05
8.41304e-06
-8.80746e-05
1.16393e-05
-8.45288e-05
1.53704e-05
1.66308e-05
-8.53522e-05
-0.000100058
1.15986e-05
-0.000100689
1.33634e-05
-9.94059e-05
1.53648e-05
1.65906e-05
-9.88874e-05
-0.000105783
1.26663e-05
-0.000105545
1.33313e-05
-0.000104339
1.43084e-05
1.50224e-05
-0.000102632
-0.000103297
-0.00010373
-0.00010249
-0.000100959
6.21953e-05
2.94385e-05
0.000177354
1.54758e-06
0.000252372
-9.47509e-05
0.00026972
-0.000198729
0.000270453
-0.000244816
0.000271671
-0.000250954
0.000272838
-0.000242394
0.000280814
-0.000219987
0.000300151
-0.000200328
0.000322618
-0.000187255
0.000325441
-0.00019682
0.000331198
-0.000227757
0.000323053
-0.000258079
0.000300579
-0.000199655
0.000237469
-8.80473e-05
0.000171341
8.47315e-05
0.00010857
0.000251947
0.00106508
0.000438137
0.0014088
0.000240713
5.50433e-05
0.00029918
-4.10618e-05
0.000323608
-0.000142044
0.000321017
-0.00019787
0.000305879
-0.00022969
0.000292434
-0.000237509
0.000284084
-0.000234045
0.00028703
-0.000223017
0.000297512
-0.000214234
0.000292819
-0.000223885
0.000301762
-0.000243572
0.000279786
-0.000252831
0.000198458
-0.000156474
9.41595e-05
-9.49773e-06
-1.36117e-05
8.9209e-05
-3.76905e-05
0.000167598
-4.27479e-05
0.000315198
0.000213272
0.000539538
0.00107686
0.000332531
1.11868e-05
0.000354676
-7.62119e-05
0.000350587
-0.000139492
0.000331934
-0.000179324
0.000310894
-0.00020866
0.000292146
-0.000218762
0.000281806
-0.000223595
0.000280189
-0.000222878
0.000273007
-0.000232993
0.000281013
-0.000249837
0.000278282
-0.000251415
0.000174346
-0.000125447
7.59219e-06
6.81427e-05
-7.16112e-05
0.000116228
-0.000123392
0.000148601
-0.00015339
0.000208213
-0.000141617
0.00032872
-3.95514e-05
0.000541931
0.000869155
0.000352629
-9.90283e-06
0.000344916
-7.04787e-05
0.000325682
-0.000120982
0.000305946
-0.000159715
0.000288458
-0.000191188
0.000275444
-0.00020556
0.000268354
-0.000212393
0.000262299
-0.00022611
0.000268759
-0.000232378
0.000266495
-0.000221672
0.000143911
-0.000100766
-3.62605e-05
9.55255e-05
-9.20977e-05
0.000137526
-0.000129933
0.00015047
-0.000165636
0.000176408
-0.000190373
0.00022753
-0.000187231
0.000322399
-0.000124217
0.000483429
0.000660703
0.00030987
-2.52937e-05
0.000309756
-6.96539e-05
0.0003032
-0.00011454
0.000295178
-0.000151772
0.000284129
-0.000179905
0.000274033
-0.000190429
0.000258486
-0.000211815
0.000252181
-0.000248339
0.000214141
-0.000254348
9.10425e-05
-5.81837e-05
-6.34594e-05
0.000116403
-0.000102361
0.000149596
-0.000125359
0.000156861
-0.000149104
0.000168213
-0.000173048
0.000192226
-0.000188727
0.000232641
-0.000179667
0.000299943
-0.000125421
0.000399157
0.000487437
0.000271066
-4.34885e-05
0.000278977
-7.62022e-05
0.000279028
-0.000114124
0.000272111
-0.000144632
0.000261113
-0.000167689
0.000240185
-0.000197365
0.000208259
-0.00021018
0.000157408
-0.000179593
3.777e-05
-0.000134899
-9.79146e-05
0.000105232
-0.00011484
0.000144472
-0.000122561
0.000156515
-0.000132455
0.00016198
-0.000145733
0.000175927
-0.000157823
0.000195459
-0.000162264
0.000225825
-0.000144446
0.000270882
-9.57735e-05
0.000328144
0.000367635
0.000241787
-6.10294e-05
0.000254788
-8.85775e-05
0.000258434
-0.000117942
0.000250644
-0.000148189
0.0002295
-0.000191723
0.000180534
-0.0002365
0.000104759
-0.000159116
-6.01166e-06
-1.34821e-05
-0.000105429
8.07907e-05
-0.000128289
0.000126539
-0.000128
0.000144997
-0.000126247
0.000152189
-0.000129594
0.000160969
-0.00013224
0.000174374
-0.000132787
0.000192316
-0.000127278
0.000217183
-0.000107449
0.000248382
-6.62101e-05
0.000284444
0.000300583
0.000220779
-7.99976e-05
0.000236434
-0.000109253
0.000223853
-0.000146922
0.000197249
-0.000208141
0.000113485
-0.000228155
1.57262e-05
-0.000138267
-5.87976e-05
-2.75247e-05
-0.000113293
7.44066e-05
-0.000129887
0.000104276
-0.000131494
0.000125861
-0.000126428
0.000138321
-0.000123115
0.000145131
-0.000121172
0.000155727
-0.000117337
0.000169283
-0.000112086
0.000187388
-0.000101412
0.000209193
-8.10665e-05
0.000234212
-4.60964e-05
0.000260587
0.000270583
0.000203208
-0.000120582
0.000184728
-0.000173287
0.000130906
-0.00022173
4.9808e-05
-0.000130422
-9.22299e-06
-0.000140395
-8.35181e-05
2.27471e-05
-0.000111794
6.57478e-05
-0.000126782
8.7875e-05
-0.000130409
0.000106747
-0.000126086
0.000119634
-0.000117939
0.000129036
-0.000113521
0.000138876
-0.000109332
0.000151318
-0.000103555
0.000165318
-9.52262e-05
0.000182318
-8.2353e-05
0.000200734
-6.26998e-05
0.000219567
-3.3918e-05
0.000237423
0.000242865
0.000134929
-0.000208812
8.56515e-05
-0.000224317
9.20474e-06
-0.000124872
-4.5666e-05
-2.28088e-05
-8.12541e-05
3.74931e-05
-0.000106855
5.88102e-05
-0.00011999
7.77053e-05
-0.000124993
9.0311e-05
-0.000122997
0.000103201
-0.00011583
0.000112365
-0.000108872
0.000122902
-0.000104227
0.000134893
-9.85957e-05
0.000147583
-9.13852e-05
0.000160643
-8.15359e-05
0.000174728
-6.80774e-05
0.000188892
-4.99615e-05
0.000202362
-2.62991e-05
0.00021415
0.000216651
7.21358e-05
-0.000169729
3.43255e-06
-0.000117974
-3.93594e-05
-2.56563e-06
-9.1502e-05
5.40654e-05
-0.000105608
5.24239e-05
-0.000113347
6.86107e-05
-0.000117553
7.97625e-05
-0.000117256
8.95007e-05
-0.000112236
9.86312e-05
-0.000106424
0.000108442
-0.000100805
0.000119554
-9.55225e-05
0.000131238
-8.88597e-05
0.000142384
-8.07084e-05
0.000153509
-7.03451e-05
0.000164895
-5.72549e-05
0.000175985
-4.10038e-05
0.000186092
-2.12436e-05
0.000194284
0.000195301
-2.22313e-05
-7.38455e-05
-6.19952e-05
2.73943e-05
-9.73073e-05
4.83442e-05
-0.000101477
5.59698e-05
-0.000110191
6.1576e-05
-0.000111129
7.14892e-05
-0.000110757
7.95225e-05
-0.000107488
8.74916e-05
-0.000103318
9.63299e-05
-9.83419e-05
0.000105956
-9.31039e-05
0.000116097
-8.7114e-05
0.00012607
-7.99645e-05
0.000135655
-7.14991e-05
0.000145209
-6.12735e-05
0.000154696
-4.8981e-05
0.000163665
-3.44872e-05
0.000171561
-1.77272e-05
0.000177493
0.000177556
-9.30878e-05
2.97282e-05
-9.45538e-05
3.71032e-05
-0.00010315
5.35075e-05
-0.000104581
5.71304e-05
-0.000106314
6.34515e-05
-0.000104397
7.00164e-05
-0.00010238
7.81928e-05
-9.91642e-05
8.53487e-05
-9.5462e-05
9.40661e-05
-9.07846e-05
0.000102547
-8.54772e-05
0.000111403
-7.92573e-05
0.000120035
-7.20526e-05
0.000128498
-6.36858e-05
0.000136839
-5.38812e-05
0.000144875
-4.25052e-05
0.000152274
-2.95192e-05
0.000158565
-1.50806e-05
0.000163049
0.000162473
-9.45619e-05
3.86914e-05
-0.000101824
4.49695e-05
-0.000101717
5.27449e-05
-0.000101348
5.67044e-05
-9.94602e-05
6.15814e-05
-9.77727e-05
6.84727e-05
-9.51136e-05
7.56995e-05
-9.2101e-05
8.27106e-05
-8.82357e-05
9.06505e-05
-8.36765e-05
9.82909e-05
-7.83484e-05
0.000106176
-7.21775e-05
0.000113878
-6.51283e-05
0.000121443
-5.70458e-05
0.000128747
-4.77997e-05
0.000135622
-3.73356e-05
0.000141806
-2.56963e-05
0.000146924
-1.30809e-05
0.000150433
0.000149392
-0.000100264
4.17799e-05
-0.000100819
4.56808e-05
-9.75762e-05
4.94917e-05
-9.57739e-05
5.49088e-05
-9.3442e-05
5.92492e-05
-9.16793e-05
6.67412e-05
-8.86859e-05
7.2714e-05
-8.56473e-05
7.97343e-05
-8.16699e-05
8.67325e-05
-7.71586e-05
9.38072e-05
-7.18935e-05
0.000100914
-6.58853e-05
0.000107867
-5.90676e-05
0.000114621
-5.13707e-05
0.000121048
-4.27222e-05
0.000126972
-3.3116e-05
0.000132199
-2.26307e-05
0.000136439
-1.14551e-05
0.000139257
0.000137937
-9.89375e-05
3.83998e-05
-9.5166e-05
4.19678e-05
-9.28034e-05
4.71508e-05
-9.10936e-05
5.31979e-05
-8.84124e-05
5.65667e-05
-8.61095e-05
6.44445e-05
-8.2943e-05
6.95407e-05
-7.9692e-05
7.64853e-05
-7.5718e-05
8.27541e-05
-7.12392e-05
8.93236e-05
-6.60912e-05
9.57624e-05
-6.02795e-05
0.000102053
-5.37556e-05
0.000108096
-4.64739e-05
0.000113766
-3.84258e-05
0.000118924
-2.96198e-05
0.000123393
-2.01513e-05
0.00012697
-1.01824e-05
0.000129288
0.000127755
-9.55546e-05
-9.07161e-05
-8.88593e-05
-8.62209e-05
-8.33247e-05
-8.09514e-05
-7.76216e-05
-7.42531e-05
-7.02809e-05
-6.58588e-05
-6.08571e-05
-5.52739e-05
-4.90689e-05
-4.2225e-05
-3.47475e-05
-2.66681e-05
-1.80771e-05
-9.09801e-06
)
;

boundaryField
{
    leftWall
    {
        type            fixedValue;
        value           nonuniform 0();
    }
    rightWall
    {
        type            fixedValue;
        value           uniform 0;
    }
    lowerWall
    {
        type            fixedValue;
        value           uniform 0;
    }
    atmosphere
    {
        type            calculated;
        value           nonuniform 0();
    }
    defaultFaces
    {
        type            empty;
        value           nonuniform 0();
    }
    procBoundary1to0
    {
        type            processor;
        value           nonuniform List<scalar> 
26
(
-1.26721e-05
-1.71427e-05
-2.02147e-05
-2.39127e-05
-2.14718e-05
-1.17973e-05
-9.38902e-06
-1.36383e-05
-0.000138786
-0.000174242
-0.000179015
-0.00017241
-0.000166827
-0.000160641
-0.000150228
-0.00014023
-2.67799e-05
-0.000149523
-0.000137204
-0.000128875
-8.50965e-05
6.22414e-06
7.23008e-05
9.46315e-05
9.68527e-05
0.000104392
)
;
    }
    procBoundary1to3
    {
        type            processor;
        value           nonuniform List<scalar> 
23
(
1.18625e-05
1.28103e-05
1.314e-05
1.34494e-05
3.29712e-05
3.71563e-05
4.52944e-05
5.05595e-05
5.367e-05
6.20718e-05
6.62083e-05
7.31145e-05
7.87778e-05
8.48989e-05
9.07595e-05
9.64691e-05
0.000101891
0.000106922
0.000111446
0.000115314
0.00011838
0.00012031
0.000118657
)
;
    }
}


// ************************************************************************* //
