/*--------------------------------*- C++ -*----------------------------------*\
| =========                 |                                                 |
| \\      /  F ield         | OpenFOAM: The Open Source CFD Toolbox           |
|  \\    /   O peration     | Version:  2.4.0                                 |
|   \\  /    A nd           | Web:      www.OpenFOAM.org                      |
|    \\/     M anipulation  |                                                 |
\*---------------------------------------------------------------------------*/
FoamFile
{
    version     2.0;
    format      ascii;
    class       surfaceScalarField;
    location    "0.2";
    object      phi.mercury;
}
// * * * * * * * * * * * * * * * * * * * * * * * * * * * * * * * * * * * * * //

dimensions      [0 3 -1 0 0 0 0];

internalField   nonuniform List<scalar> 
1061
(
3.30416e-05
6.96485e-05
0.000109399
0.000151127
0.000190063
0.000217953
0.000238874
0.000258064
-0.000117052
-0.000126859
-0.000124849
-7.65709e-05
-0.00014712
-1.85579e-05
-0.000156986
6.97342e-06
-0.00014605
-1.08458e-05
-7.61546e-05
-6.99422e-05
-9.65222e-06
-6.66878e-05
3.91145e-05
-4.89325e-05
7.6648e-05
-3.78118e-05
0.000104438
-2.84835e-05
0.000126457
-2.26254e-05
0.000148133
-2.19141e-05
0.000171844
-2.39698e-05
0.000193315
-2.30651e-05
0.000210254
-2.3121e-05
0.000217399
-1.44517e-05
0.000197553
9.17576e-06
0.000132991
5.62397e-05
0.000127847
-8.76011e-05
-3.88592e-05
-8.64237e-05
-4.52039e-05
-8.32849e-05
-7.15173e-05
-9.03709e-05
-4.70403e-05
-8.11633e-05
-2.59649e-05
-3.48237e-05
-0.000116601
1.53305e-05
-0.000116964
5.85711e-05
-9.2157e-05
8.91652e-05
-6.82856e-05
0.000114547
-5.34057e-05
0.000138557
-4.60192e-05
0.000161861
-4.48407e-05
0.000181619
-4.34611e-05
0.000195899
-3.66096e-05
0.00020492
-2.3588e-05
0.000209798
-4.14609e-06
0.000198624
3.09412e-05
0.000136725
0.000118406
0.000262484
-7.77458e-05
0.00022533
-7.50092e-05
9.97386e-05
-3.70136e-05
-6.79379e-05
-4.28909e-05
-0.000122356
-3.27399e-05
-0.000118238
7.7393e-06
-0.000160739
4.14575e-05
-0.000150642
7.36954e-05
-0.00012433
0.000103091
-9.76322e-05
0.000128218
-7.85178e-05
0.000150815
-6.8608e-05
0.000171473
-6.54942e-05
0.000187656
-5.9641e-05
0.00019859
-4.74958e-05
0.000203774
-2.87638e-05
0.000206354
-6.78442e-06
0.000204594
1.94484e-05
0.000140151
7.97433e-05
0.000399599
-9.1781e-05
0.000328183
-0.000178619
0.000211337
-2.86909e-05
-1.17473e-05
1.11186e-05
-0.000132687
2.05752e-05
-0.000196221
3.94777e-05
-0.000213387
6.5171e-05
-0.000176507
9.21415e-05
-0.00015127
0.00011723
-0.000122697
0.000139246
-0.000100524
0.000159027
-8.83887e-05
0.000176555
-8.30211e-05
0.000189531
-7.26153e-05
0.000197556
-5.55216e-05
0.000202585
-3.40456e-05
0.000203193
-3.13739e-05
0.0002061
-5.30901e-05
0.000149509
3.10728e-05
0.00046125
-4.73203e-05
0.000376099
-5.43093e-05
0.000221143
2.04677e-05
-4.92214e-06
6.661e-05
-0.000136386
5.29661e-05
-0.000221665
5.97272e-05
-0.000229643
8.3645e-05
-0.000200689
0.000104838
-0.000172415
0.000124649
-0.00014248
0.000143475
-0.000119336
0.000162055
-0.000106967
0.00017794
-9.89027e-05
0.000188797
-8.34734e-05
0.000194637
-6.18429e-05
0.000193967
-6.83749e-05
0.000204036
-0.000106951
0.00023732
-0.000125029
0.000208244
1.5686e-05
0.000497746
-2.05193e-06
0.000378573
1.83128e-05
0.00020701
8.86579e-05
-6.68818e-05
8.7377e-05
-0.000112899
7.68474e-05
-0.000192326
8.09179e-05
-0.000234075
0.000101289
-0.000220405
0.000117791
-0.000188807
0.000133256
-0.000157922
0.000149946
-0.000136019
0.00016527
-0.000122288
0.000177997
-0.000111628
0.000186399
-9.24877e-05
0.000185298
-0.000100269
0.000197288
-0.000142782
0.000203914
-0.000155896
0.000202306
-6.45972e-06
0.000267584
0.000271874
0.000674571
3.49436e-05
0.000343717
5.58563e-05
0.000190215
7.51938e-05
-9.21691e-05
0.000105249
-9.98517e-05
8.82664e-05
-0.000203852
8.94533e-05
-0.000244437
0.000109896
-0.000233023
0.000123269
-0.000202044
0.000135464
-0.000170117
0.000149724
-0.000150278
0.000162658
-0.000135222
0.000174083
-0.000123381
0.000176075
-0.000127711
0.000186666
-0.000170575
0.000184648
-0.000175019
0.000187485
-4.53529e-05
0.000142148
0.000145627
0.000251287
0.000328931
0.000955283
7.573e-05
8.10613e-05
7.85626e-05
4.49924e-05
5.9925e-05
7.65655e-06
0.000110812
-0.000105608
8.58631e-05
-0.000214186
9.49417e-05
-0.000250427
0.000119357
-0.000241292
0.000129417
-0.000212078
0.000140215
-0.000180925
0.00015217
-0.000162236
0.000162427
-0.000145982
0.000166859
-0.000149339
0.000177904
-0.000187881
0.000176818
-0.000208628
0.000197057
-0.000120168
0.000182635
3.95309e-05
0.000134995
0.00019374
0.000201287
0.000374326
0.00114256
0.000248111
0.000119171
0.000246373
0.000145133
0.000232063
0.000173948
0.000216231
0.00018768
0.000115119
0.000188323
3.72306e-05
0.000165892
-2.80735e-06
0.000176189
0.000164182
9.66104e-05
0.000114811
7.19241e-05
0.000110111
6.49267e-05
0.000103251
0.000104975
7.22568e-05
0.000147201
0.000114322
0.000153844
0.000106112
0.000158074
0.000100194
9.21577e-05
0.000162243
0.000185882
0.000109496
0.000201525
0.000103318
0.00021336
9.36249e-05
8.71591e-05
0.000226581
0.000194185
0.000105516
0.000208775
0.000103346
0.000232537
0.000102061
9.10552e-05
0.000244097
0.000200691
7.3972e-05
0.000214811
9.59122e-05
0.000232775
0.000100819
9.22782e-05
0.000250525
0.000181334
3.163e-05
0.000207024
4.96616e-05
0.000229362
5.96271e-05
6.3401e-05
0.000246931
0.000185934
-6.90616e-06
0.000173904
-8.74631e-06
0.000167874
-3.24609e-06
9.24387e-06
0.000183039
0.000174829
-1.7662e-05
0.000183564
-1.94213e-05
0.000193179
-2.39615e-05
-2.76957e-05
0.00011753
0.000158412
-2.65632e-05
0.000167486
-2.85486e-05
0.000177165
-3.38818e-05
-3.98825e-05
0.00018833
0.000146673
-3.81841e-05
0.000158671
-4.64295e-05
0.000165925
-5.80722e-05
-6.66902e-05
0.000159303
0.000124926
-6.37363e-05
0.000116121
-7.3672e-05
0.000109357
-8.90401e-05
-7.04149e-05
0.000106191
8.76761e-05
-4.89291e-05
5.78079e-05
-3.05933e-05
-3.53099e-05
2.73547e-05
1.34672e-05
-9.26262e-05
-9.28817e-05
4.03671e-07
-7.57944e-05
4.06889e-06
-5.16758e-05
2.07877e-05
1.76603e-05
-5.5758e-05
-8.04789e-05
9.79145e-06
-8.96521e-05
1.3331e-05
-8.57814e-05
1.69183e-05
1.72341e-05
-8.53559e-05
-0.000100403
1.20927e-05
-0.000100738
1.36651e-05
-9.93475e-05
1.55276e-05
1.67583e-05
-9.88722e-05
-0.000105809
1.27927e-05
-0.000105514
1.33699e-05
-0.000104332
1.43454e-05
1.50384e-05
-0.000102612
-0.000104211
-0.000103711
-0.000102521
-0.000100945
0.000109299
0.000244709
0.000197334
0.00018301
0.000235942
0.000131707
0.000233286
-4.77487e-05
0.000190728
-0.000204954
0.000248032
-0.000249867
0.000272485
-0.000233768
0.000280645
-0.000219705
0.000300131
-0.000200339
0.000322639
-0.000187094
0.000326215
-0.000194152
0.000336151
-0.000223793
0.000330375
-0.000232499
0.000296048
-0.000102513
0.000219467
1.63879e-05
0.000165507
9.42326e-05
0.000102967
0.000256483
9.73692e-05
0.000429986
0.00112488
0.000174911
0.000215272
0.000206289
0.000203834
0.000234539
0.000165825
0.000234678
1.04644e-05
0.000216029
-0.000184766
0.000292785
-0.000166851
0.000275649
-0.000208586
0.000285527
-0.00022341
0.000297553
-0.000214058
0.000293417
-0.000221541
0.000307541
-0.000240958
0.000280146
-0.000217876
0.000164146
-3.83144e-05
5.18201e-05
6.34974e-05
-1.04656e-05
7.96896e-05
-3.85077e-05
0.000122353
-6.02872e-05
0.000278344
-8.32725e-05
0.000454397
0.00102575
0.000240833
0.000199249
0.000252108
0.000196458
0.000264403
0.00017463
0.000249293
5.86856e-05
0.00030776
-0.000110076
0.000260167
-0.0001674
0.000224195
-0.000220415
0.000277617
-0.000222129
0.000273231
-0.000231406
0.000285225
-0.000247783
0.000258292
-0.000209131
9.34296e-05
4.68353e-07
-2.32358e-05
0.000103893
-7.22054e-05
0.000112615
-0.000119338
0.00012684
-0.000167752
0.000170784
-0.000169895
0.000280543
-0.000176798
0.00046156
0.00084844
0.000271068
0.000208269
0.000295718
0.000209691
0.000305018
0.000188038
0.000286511
0.000117606
0.000292551
-4.11157e-05
0.000220948
-0.000164131
0.00018536
-0.000189828
0.000260267
-0.000223596
0.000269427
-0.000231545
0.000231895
-0.000189304
4.11196e-05
1.42833e-05
-6.84561e-05
0.000120875
-0.000102356
0.000137811
-0.000134003
0.000144265
-0.000170967
0.000163806
-0.000207785
0.000207604
-0.000222693
0.000295459
-0.000201335
0.000440188
0.000646961
0.000276152
0.000219199
0.00030873
0.00022057
0.000327032
0.000200485
0.000321783
0.000148785
0.000279399
1.8645e-05
0.000190027
-0.000118325
0.000214076
-0.000190995
0.000252664
-0.000243967
0.000192246
-0.000201694
1.95991e-05
1.52407e-05
-8.60035e-05
0.000130737
-0.000115878
0.000150766
-0.000133574
0.000155506
-0.000155492
0.000166185
-0.000180777
0.000189093
-0.000202194
0.000229021
-0.000202968
0.00029623
-0.000157656
0.000394847
0.000489267
0.000288511
0.000203291
0.000319073
0.00021556
0.00033691
0.000196505
0.000327828
0.000144682
0.000261178
2.18764e-05
0.000159893
-0.000113294
0.000198767
-0.000197616
0.000135559
-0.000151827
-3.47185e-05
7.91596e-06
-0.000116528
0.00010236
-0.000126588
0.000140804
-0.00013117
0.000155349
-0.000138659
0.000162995
-0.00015082
0.000178347
-0.000162005
0.000200281
-0.000166646
0.000233663
-0.0001521
0.000281684
-0.000101913
0.000344658
0.000387351
0.000271408
9.11602e-05
0.000323904
0.000139536
0.000336386
0.000136631
0.000313808
8.27966e-05
0.000232459
-3.24331e-05
0.000128948
-0.000139994
0.000103924
-0.000120812
-4.18563e-05
3.47339e-05
-0.000113334
8.91845e-05
-0.000132929
0.000121954
-0.000134336
0.000142212
-0.000132112
0.000153125
-0.000133772
0.000164657
-0.000135558
0.000180134
-0.000135337
0.000200062
-0.00012895
0.000227276
-0.000108735
0.000261469
-6.58095e-05
0.000301734
0.000321543
0.000184214
-3.72771e-05
0.000274492
-2.08365e-06
0.000301591
-1.31525e-05
0.00026628
-3.99825e-05
0.000153509
-7.56876e-05
7.37001e-05
-7.00712e-05
-7.59168e-05
4.49649e-05
-0.000115371
7.55114e-05
-0.000130262
0.000104078
-0.000133161
0.000124854
-0.00013054
0.000139592
-0.000126822
0.000149408
-0.000123667
0.000161503
-0.000119196
0.000175664
-0.000113272
0.000194138
-0.00010184
0.000215845
-8.07493e-05
0.000240378
-4.53704e-05
0.000266354
0.000276173
0.000193011
-0.000119017
0.000169084
-0.000147177
0.000153108
-0.000155587
7.02388e-05
-8.75318e-05
-3.61985e-05
1.05158e-05
-8.64691e-05
2.64934e-05
-0.000111672
7.02711e-05
-0.000125527
8.93662e-05
-0.00012986
0.000108412
-0.000127165
0.000122159
-0.000121028
0.000133456
-0.0001159
0.000144281
-0.000110615
0.00015622
-0.000104366
0.000169416
-9.55498e-05
0.000185322
-8.22644e-05
0.000202559
-6.23007e-05
0.000220414
-3.35264e-05
0.000237579
0.000242646
0.000136921
-0.000191578
9.12194e-05
-0.000192922
1.01051e-06
-1.3561e-05
-6.23605e-05
2.16936e-05
-7.59635e-05
3.77609e-05
-0.000109913
6.04428e-05
-0.000119831
8.0189e-05
-0.000124037
9.3572e-05
-0.000122432
0.000106808
-0.000117001
0.000116729
-0.000111202
0.000127658
-0.000105473
0.000138553
-9.90676e-05
0.000149815
-9.15312e-05
0.000161881
-8.14764e-05
0.000175268
-6.79213e-05
0.000189004
-4.97701e-05
0.000202262
-2.61636e-05
0.000213972
0.000216482
4.03182e-05
-8.88399e-05
-7.53022e-05
2.00983e-05
-5.88401e-05
2.07251e-05
-9.11927e-05
5.40507e-05
-0.000106135
5.27037e-05
-0.000115594
6.99013e-05
-0.000117536
8.21311e-05
-0.00011667
9.27063e-05
-0.000112054
0.000102192
-0.00010736
0.000112036
-0.000101917
0.000122215
-9.58518e-05
0.000132488
-8.88959e-05
0.00014286
-8.06559e-05
0.000153641
-7.02634e-05
0.000164876
-5.71783e-05
0.000175919
-4.09447e-05
0.000186028
-2.12098e-05
0.000194237
0.000195273
-6.12897e-05
-7.27763e-06
-7.14516e-05
3.30818e-05
-9.9409e-05
4.86831e-05
-0.000101379
5.60202e-05
-0.00011037
6.16942e-05
-0.000112234
7.17649e-05
-0.000110813
8.07107e-05
-0.000107231
8.91244e-05
-0.000103277
9.82374e-05
-9.87082e-05
0.000107468
-9.33366e-05
0.000116844
-8.71099e-05
0.000126262
-7.99183e-05
0.000135668
-7.14538e-05
0.000145177
-6.12375e-05
0.00015466
-4.89568e-05
0.000163638
-3.44731e-05
0.000171545
-1.77206e-05
0.000177484
0.000177552
-9.27761e-05
2.98273e-05
-9.83619e-05
3.86668e-05
-0.000103393
5.37131e-05
-0.000104543
5.71699e-05
-0.000106315
6.34662e-05
-0.000104645
7.0095e-05
-0.000102391
7.84565e-05
-9.90719e-05
8.58052e-05
-9.54158e-05
9.45815e-05
-9.08139e-05
0.000102866
-8.54585e-05
0.000111489
-7.92201e-05
0.000120024
-7.20254e-05
0.000128474
-6.3668e-05
0.00013682
-5.38703e-05
0.000144862
-4.24992e-05
0.000152267
-2.95164e-05
0.000158562
-1.50795e-05
0.000163047
0.000162472
-9.5815e-05
4.02856e-05
-0.000102705
4.55566e-05
-0.000101782
5.27891e-05
-0.000101329
5.67172e-05
-9.94451e-05
6.15815e-05
-9.78327e-05
6.84825e-05
-9.51018e-05
7.57256e-05
-9.20716e-05
8.2775e-05
-8.82013e-05
9.07113e-05
-8.36452e-05
9.83105e-05
-7.83202e-05
0.000106164
-7.21601e-05
0.000113864
-6.51187e-05
0.000121433
-5.70405e-05
0.000128742
-4.7797e-05
0.000135619
-3.73344e-05
0.000141805
-2.56958e-05
0.000146923
-1.30808e-05
0.000150432
0.000149392
-0.000100688
4.21009e-05
-0.000100876
4.57439e-05
-9.75772e-05
4.94902e-05
-9.57689e-05
5.49085e-05
-9.34359e-05
5.92484e-05
-9.16947e-05
6.67412e-05
-8.86798e-05
7.27107e-05
-8.56385e-05
7.97337e-05
-8.16541e-05
8.6727e-05
-7.71414e-05
9.37979e-05
-7.18823e-05
0.000100905
-6.58797e-05
0.000107861
-5.90649e-05
0.000114618
-5.13694e-05
0.000121046
-4.27216e-05
0.000126971
-3.31157e-05
0.000132199
-2.26306e-05
0.000136438
-1.14551e-05
0.000139257
0.000137937
-9.89294e-05
3.84174e-05
-9.51429e-05
4.19572e-05
-9.28034e-05
4.71503e-05
-9.10927e-05
5.31978e-05
-8.84108e-05
5.65663e-05
-8.61135e-05
6.44438e-05
-8.29415e-05
6.95387e-05
-7.96899e-05
7.64821e-05
-7.57123e-05
8.27495e-05
-7.12337e-05
8.93195e-05
-6.60881e-05
9.57598e-05
-6.02781e-05
0.000102052
-5.37549e-05
0.000108095
-4.64736e-05
0.000113765
-3.84257e-05
0.000118924
-2.96198e-05
0.000123393
-2.01513e-05
0.00012697
-1.01824e-05
0.000129288
0.000127755
-9.55146e-05
-9.07145e-05
-8.88589e-05
-8.62209e-05
-8.33244e-05
-8.09524e-05
-7.76213e-05
-7.42526e-05
-7.02793e-05
-6.58574e-05
-6.08564e-05
-5.52736e-05
-4.90688e-05
-4.22249e-05
-3.47475e-05
-2.66681e-05
-1.80771e-05
-9.09801e-06
)
;

boundaryField
{
    leftWall
    {
        type            fixedValue;
        value           nonuniform 0();
    }
    rightWall
    {
        type            fixedValue;
        value           uniform 0;
    }
    lowerWall
    {
        type            fixedValue;
        value           uniform 0;
    }
    atmosphere
    {
        type            calculated;
        value           nonuniform 0();
    }
    defaultFaces
    {
        type            empty;
        value           nonuniform 0();
    }
    procBoundary1to0
    {
        type            processor;
        value           nonuniform List<scalar> 
26
(
-3.31349e-05
-3.66576e-05
-3.98218e-05
-4.18495e-05
-3.97171e-05
-3.10161e-05
-2.6859e-05
-2.71889e-05
-9.47829e-05
-0.000143517
-0.000154347
-0.000159751
-0.000150273
-0.000133424
-0.000150192
-0.000140228
-2.6779e-05
-0.000149523
-0.000137206
-0.000129073
-8.8308e-05
7.37401e-05
7.10961e-05
9.81012e-05
0.000105108
0.000105048
)
;
    }
    procBoundary1to3
    {
        type            processor;
        value           nonuniform List<scalar> 
23
(
1.19553e-05
1.28694e-05
1.31558e-05
1.34622e-05
3.29863e-05
3.71568e-05
4.52945e-05
5.05594e-05
5.36698e-05
6.20717e-05
6.62075e-05
7.31134e-05
7.87763e-05
8.48978e-05
9.07588e-05
9.64689e-05
0.000101891
0.000106922
0.000111446
0.000115314
0.00011838
0.00012031
0.000118657
)
;
    }
}


// ************************************************************************* //
