/*--------------------------------*- C++ -*----------------------------------*\
| =========                 |                                                 |
| \\      /  F ield         | OpenFOAM: The Open Source CFD Toolbox           |
|  \\    /   O peration     | Version:  2.4.0                                 |
|   \\  /    A nd           | Web:      www.OpenFOAM.org                      |
|    \\/     M anipulation  |                                                 |
\*---------------------------------------------------------------------------*/
FoamFile
{
    version     2.0;
    format      ascii;
    class       surfaceScalarField;
    location    "0.2";
    object      phi.water;
}
// * * * * * * * * * * * * * * * * * * * * * * * * * * * * * * * * * * * * * //

dimensions      [0 3 -1 0 0 0 0];

internalField   nonuniform List<scalar> 
1061
(
3.31411e-05
6.97846e-05
0.000109517
0.000151363
0.000197253
0.00022934
0.000250566
0.000274795
-0.000117052
-0.00012686
-0.000124849
-7.65729e-05
-0.00014712
-1.85602e-05
-0.000156986
6.96871e-06
-0.000146058
-1.08732e-05
-7.61583e-05
-6.99278e-05
-9.64906e-06
-6.66506e-05
3.91165e-05
-4.89159e-05
7.66491e-05
-3.78108e-05
0.000104439
-2.84845e-05
0.000126457
-2.26259e-05
0.000148133
-2.19142e-05
0.000171844
-2.39698e-05
0.000193315
-2.30651e-05
0.000210254
-2.31211e-05
0.000217399
-1.44517e-05
0.000197553
9.17569e-06
0.000132991
5.62396e-05
0.000127847
-8.76017e-05
-3.88875e-05
-8.64309e-05
-4.52082e-05
-8.32886e-05
-7.15024e-05
-9.03699e-05
-4.69273e-05
-8.12189e-05
-2.57469e-05
-3.48376e-05
-0.000116334
1.5358e-05
-0.000116776
5.85895e-05
-9.20621e-05
8.9171e-05
-6.82568e-05
0.000114549
-5.33882e-05
0.000138558
-4.60079e-05
0.000161862
-4.48339e-05
0.00018162
-4.34591e-05
0.000195899
-3.66094e-05
0.00020492
-2.35879e-05
0.000209798
-4.14603e-06
0.000198624
3.09413e-05
0.000136725
0.000118406
0.000262484
-7.77405e-05
0.000225324
-7.50411e-05
9.97327e-05
-3.70391e-05
-6.79263e-05
-4.28833e-05
-0.000122351
-3.28614e-05
-0.000118145
7.72745e-06
-0.000160563
4.15071e-05
-0.000150562
7.37408e-05
-0.000124296
0.000103101
-9.76172e-05
0.000128223
-7.85103e-05
0.000150818
-6.86037e-05
0.000171476
-6.54925e-05
0.000187657
-5.96403e-05
0.00019859
-4.74956e-05
0.000203774
-2.87638e-05
0.000206354
-6.78436e-06
0.000204594
1.94485e-05
0.00014015
7.97433e-05
0.000399599
-9.17592e-05
0.000328192
-0.000178651
0.000211369
-2.85102e-05
-1.17409e-05
1.12056e-05
-0.000132735
2.03604e-05
-0.000196
3.94451e-05
-0.000213185
6.52437e-05
-0.000176387
9.21868e-05
-0.000151239
0.000117245
-0.000122675
0.000139252
-0.000100519
0.000159032
-8.83844e-05
0.000176558
-8.30191e-05
0.000189532
-7.26148e-05
0.000197556
-5.55215e-05
0.000202585
-3.40455e-05
0.000203193
-3.13739e-05
0.0002061
-5.309e-05
0.000149509
3.10724e-05
0.00046125
-4.73115e-05
0.000376104
-5.43291e-05
0.000221149
2.05193e-05
-4.93882e-06
6.68072e-05
-0.000136591
5.27663e-05
-0.000221196
5.96895e-05
-0.000231268
8.3722e-05
-0.000200504
0.000104868
-0.000172385
0.000124666
-0.000142473
0.00014348
-0.000119332
0.00016206
-0.000106964
0.000177943
-9.89013e-05
0.000188798
-8.34729e-05
0.000194637
-6.18428e-05
0.000193967
-6.83748e-05
0.000204035
-0.000106951
0.00023732
-0.00012503
0.000208243
1.56712e-05
0.000497746
-2.04997e-06
0.000378573
1.831e-05
0.000207005
8.8989e-05
-6.687e-05
8.96285e-05
-0.000139429
7.57409e-05
-0.000240345
8.18486e-05
-0.000240125
0.0001014
-0.000220071
0.000117816
-0.000188801
0.000133263
-0.00015792
0.000149949
-0.000136018
0.000165273
-0.000122288
0.000177999
-0.000111629
0.000186399
-9.24887e-05
0.000185298
-0.000100269
0.000197287
-0.000142782
0.000203909
-0.000155894
0.000202308
-6.47567e-06
0.000267581
0.000271865
0.000674571
3.49472e-05
0.000343795
5.59148e-05
0.000190241
0.000109297
-9.19358e-05
0.000103581
-0.000145628
9.29917e-05
-0.000245257
9.74162e-05
-0.000245111
0.000110058
-0.000232713
0.00012328
-0.000202023
0.000135468
-0.000170109
0.000149727
-0.000150276
0.00016266
-0.000135222
0.000174084
-0.000123382
0.000176075
-0.000127711
0.000186666
-0.000170575
0.00018464
-0.000175017
0.000187475
-4.53541e-05
0.000142145
0.00014563
0.000251288
0.000328936
0.000955278
7.57771e-05
0.00019867
8.03814e-05
9.29513e-05
0.000112274
-8.30291e-05
0.000113356
-0.000161998
0.000106407
-0.000242637
0.000110934
-0.000249724
0.000119442
-0.000241221
0.000129425
-0.000212006
0.000140221
-0.000180905
0.000152172
-0.000162237
0.000162427
-0.000145983
0.000166859
-0.000149339
0.000177904
-0.000187881
0.000176813
-0.000208627
0.000197049
-0.000120169
0.000182635
3.95369e-05
0.000134994
0.000193744
0.000201291
0.000374331
0.00114256
0.000220403
9.28661e-05
0.000211301
0.000159207
0.00019007
0.000198699
0.000126505
0.000214052
5.73542e-05
0.000207612
2.31101e-05
0.000191956
-2.82015e-06
0.000176094
0.000164182
8.39196e-05
0.000104614
3.42025e-05
0.000102226
3.38372e-06
8.81738e-05
7.26389e-05
-1.16648e-07
0.000157565
0.000107768
0.000165547
9.87093e-05
0.000166639
8.84125e-05
7.34696e-05
0.000171561
0.000214587
9.26829e-05
0.000231834
8.74152e-05
0.000247564
7.64544e-05
6.38249e-05
0.0002632
0.000230432
6.53557e-05
0.000248034
6.73191e-05
0.000270075
6.43369e-05
5.31498e-05
0.000284911
0.000224489
2.8267e-05
0.000241764
3.39651e-05
0.000259506
3.49775e-05
3.03463e-05
0.000275552
0.000206838
6.46005e-06
0.000223239
2.57686e-06
0.000237427
-3.11759e-08
-2.23899e-06
0.000250173
0.000189513
-7.01418e-06
0.000202162
-1.06869e-05
0.000213777
-1.43565e-05
-1.87637e-05
0.000222819
0.000174829
-1.7662e-05
0.000183563
-1.94213e-05
0.000193168
-2.39616e-05
-2.77196e-05
0.000202085
0.000158412
-2.65632e-05
0.000167486
-2.85486e-05
0.000177165
-3.38818e-05
-3.98825e-05
0.000188316
0.000146673
-3.81841e-05
0.000158671
-4.64295e-05
0.000165925
-5.80722e-05
-6.66902e-05
0.000159303
0.000124926
-6.37363e-05
0.000116121
-7.3672e-05
0.000109357
-8.90401e-05
-7.04149e-05
0.000106191
8.76761e-05
-4.89291e-05
5.78079e-05
-3.05933e-05
-3.53099e-05
2.73547e-05
1.34672e-05
-9.26262e-05
-9.28817e-05
4.03671e-07
-7.57944e-05
4.06889e-06
-5.16758e-05
2.07877e-05
1.76603e-05
-5.5758e-05
-8.04789e-05
9.79145e-06
-8.96521e-05
1.3331e-05
-8.57814e-05
1.69183e-05
1.72341e-05
-8.53559e-05
-0.000100403
1.20927e-05
-0.000100738
1.36651e-05
-9.93475e-05
1.55276e-05
1.67583e-05
-9.88722e-05
-0.000105809
1.27927e-05
-0.000105514
1.33699e-05
-0.000104332
1.43454e-05
1.50384e-05
-0.000102612
-0.000104211
-0.000103711
-0.000102521
-0.000100945
5.62352e-05
0.000107452
0.000178745
4.03551e-05
0.000251101
-7.57298e-05
0.000269457
-0.000195961
0.000270432
-0.000244782
0.000271679
-0.000250947
0.000272845
-0.000242388
0.00028082
-0.000219982
0.000300155
-0.000200317
0.000322639
-0.000187095
0.000326215
-0.000194152
0.00033615
-0.000223793
0.00033037
-0.000232499
0.000296044
-0.000102514
0.000219467
1.63901e-05
0.000165505
9.42327e-05
0.000102968
0.000256483
9.73713e-05
0.000429987
0.00112487
0.000220814
0.000129484
0.000283001
2.88511e-05
0.000316685
-0.000104524
0.000319622
-0.000191923
0.000305862
-0.00022965
0.000292441
-0.000237499
0.00028409
-0.000234038
0.000287033
-0.000223006
0.000297546
-0.000214059
0.000293417
-0.000221541
0.000307541
-0.000240958
0.000280144
-0.000217876
0.000164146
-3.83148e-05
5.18197e-05
6.34981e-05
-1.04654e-05
7.96898e-05
-3.85083e-05
0.000122353
-6.02862e-05
0.000278344
-8.32772e-05
0.000454396
0.00102575
0.000292809
0.000105878
0.000328072
1.61224e-05
0.000340886
-8.8159e-05
0.000330086
-0.000168532
0.000310901
-0.000208264
0.000292151
-0.000218723
0.000281806
-0.000223589
0.000280184
-0.000222809
0.000273236
-0.000231428
0.000285225
-0.000247783
0.000258291
-0.000209131
9.343e-05
4.67927e-07
-2.32361e-05
0.000103894
-7.22055e-05
0.000112615
-0.000119338
0.00012684
-0.000167752
0.000170784
-0.000169894
0.000280543
-0.0001768
0.000461559
0.000848437
0.00031712
8.78469e-05
0.00033051
2.47411e-05
0.00032265
-5.94395e-05
0.000305125
-0.000138516
0.000288479
-0.000188107
0.000275412
-0.000205483
0.000268245
-0.000212464
0.000261978
-0.000225353
0.000269434
-0.000231553
0.000231895
-0.000189304
4.11202e-05
1.42829e-05
-6.84563e-05
0.000120875
-0.000102356
0.000137811
-0.000134003
0.000144265
-0.000170967
0.000163806
-0.000207785
0.000207604
-0.000222693
0.000295459
-0.000201335
0.000440187
0.00064696
0.000297923
5.21836e-05
0.00030947
1.27065e-05
0.000307289
-5.09586e-05
0.000297106
-0.000121375
0.000284036
-0.000172115
0.000273801
-0.000190336
0.000258172
-0.000210835
0.00025303
-0.000244285
0.000192246
-0.000201695
1.95996e-05
1.52406e-05
-8.60036e-05
0.000130737
-0.000115878
0.000150766
-0.000133574
0.000155506
-0.000155492
0.000166185
-0.000180777
0.000189093
-0.000202194
0.000229021
-0.000202968
0.00029623
-0.000157656
0.000394847
0.000489267
0.000274815
-4.21917e-06
0.000287403
-2.22936e-05
0.000288211
-6.4194e-05
0.000277081
-0.00011573
0.000261096
-0.000159849
0.000240033
-0.00019548
0.000209421
-0.00020466
0.000135555
-0.000151824
-3.47187e-05
7.9163e-06
-0.000116528
0.00010236
-0.000126588
0.000140804
-0.00013117
0.000155349
-0.000138659
0.000162995
-0.00015082
0.000178347
-0.000162005
0.000200281
-0.000166646
0.000233663
-0.0001521
0.000281684
-0.000101913
0.000344658
0.000387351
0.000244272
-5.62961e-05
0.000262506
-6.89306e-05
0.00026659
-9.38478e-05
0.000255232
-0.00013133
0.000229931
-0.000185405
0.000184236
-0.000218786
0.000102075
-0.000119929
-4.18571e-05
3.47347e-05
-0.000113334
8.91845e-05
-0.000132929
0.000121954
-0.000134336
0.000142212
-0.000132112
0.000153125
-0.000133772
0.000164657
-0.000135558
0.000180134
-0.000135337
0.000200062
-0.00012895
0.000227276
-0.000108735
0.000261469
-6.58095e-05
0.000301734
0.000321543
0.000220586
-7.99733e-05
0.000237253
-0.000108444
0.000226282
-0.0001427
0.000200416
-0.000197948
0.000122487
-0.000201009
2.73394e-05
-6.56969e-05
-7.59303e-05
4.49773e-05
-0.000115371
7.55114e-05
-0.000130262
0.000104078
-0.000133161
0.000124854
-0.00013054
0.000139592
-0.000126822
0.000149408
-0.000123667
0.000161503
-0.000119196
0.000175664
-0.000113272
0.000194138
-0.00010184
0.000215845
-8.07493e-05
0.000240378
-4.53704e-05
0.000266354
0.000276173
0.000203414
-0.000119066
0.000185679
-0.000165775
0.000134916
-0.000199518
5.49963e-05
-0.000104892
-3.89021e-05
1.24632e-05
-8.64692e-05
2.64935e-05
-0.000111672
7.02711e-05
-0.000125527
8.93662e-05
-0.00012986
0.000108412
-0.000127165
0.000122159
-0.000121028
0.000133456
-0.0001159
0.000144281
-0.000110615
0.00015622
-0.000104366
0.000169416
-9.55498e-05
0.000185322
-8.22644e-05
0.000202559
-6.23007e-05
0.000220414
-3.35264e-05
0.000237579
0.000242646
0.00013692
-0.000191579
9.12116e-05
-0.000192957
1.01276e-06
-1.35958e-05
-6.23612e-05
2.1694e-05
-7.59641e-05
3.77611e-05
-0.000109913
6.04428e-05
-0.000119831
8.0189e-05
-0.000124037
9.3572e-05
-0.000122432
0.000106808
-0.000117001
0.000116729
-0.000111202
0.000127658
-0.000105473
0.000138553
-9.90676e-05
0.000149815
-9.15312e-05
0.000161881
-8.14764e-05
0.000175268
-6.79213e-05
0.000189004
-4.97701e-05
0.000202262
-2.61636e-05
0.000213972
0.000216482
4.03182e-05
-8.88399e-05
-7.53023e-05
2.00983e-05
-5.88401e-05
2.07251e-05
-9.11927e-05
5.40507e-05
-0.000106135
5.27037e-05
-0.000115594
6.99013e-05
-0.000117536
8.21311e-05
-0.00011667
9.27063e-05
-0.000112054
0.000102192
-0.00010736
0.000112036
-0.000101917
0.000122215
-9.58518e-05
0.000132488
-8.88959e-05
0.00014286
-8.06559e-05
0.000153641
-7.02634e-05
0.000164876
-5.71783e-05
0.000175919
-4.09447e-05
0.000186028
-2.12098e-05
0.000194237
0.000195273
-6.12897e-05
-7.27763e-06
-7.14516e-05
3.30818e-05
-9.9409e-05
4.86831e-05
-0.000101379
5.60202e-05
-0.00011037
6.16942e-05
-0.000112234
7.17649e-05
-0.000110813
8.07107e-05
-0.000107231
8.91244e-05
-0.000103277
9.82374e-05
-9.87082e-05
0.000107468
-9.33366e-05
0.000116844
-8.71099e-05
0.000126262
-7.99183e-05
0.000135668
-7.14538e-05
0.000145177
-6.12375e-05
0.00015466
-4.89568e-05
0.000163638
-3.44731e-05
0.000171545
-1.77206e-05
0.000177484
0.000177552
-9.27761e-05
2.98273e-05
-9.83619e-05
3.86668e-05
-0.000103393
5.37131e-05
-0.000104543
5.71699e-05
-0.000106315
6.34662e-05
-0.000104645
7.0095e-05
-0.000102391
7.84565e-05
-9.90719e-05
8.58052e-05
-9.54158e-05
9.45815e-05
-9.08139e-05
0.000102866
-8.54585e-05
0.000111489
-7.92201e-05
0.000120024
-7.20254e-05
0.000128474
-6.3668e-05
0.00013682
-5.38703e-05
0.000144862
-4.24992e-05
0.000152267
-2.95164e-05
0.000158562
-1.50795e-05
0.000163047
0.000162472
-9.5815e-05
4.02856e-05
-0.000102705
4.55566e-05
-0.000101782
5.27891e-05
-0.000101329
5.67172e-05
-9.94451e-05
6.15815e-05
-9.78327e-05
6.84825e-05
-9.51018e-05
7.57256e-05
-9.20716e-05
8.2775e-05
-8.82013e-05
9.07113e-05
-8.36452e-05
9.83105e-05
-7.83202e-05
0.000106164
-7.21601e-05
0.000113864
-6.51187e-05
0.000121433
-5.70405e-05
0.000128742
-4.7797e-05
0.000135619
-3.73344e-05
0.000141805
-2.56958e-05
0.000146923
-1.30808e-05
0.000150432
0.000149392
-0.000100688
4.21009e-05
-0.000100876
4.57439e-05
-9.75772e-05
4.94902e-05
-9.57689e-05
5.49085e-05
-9.34359e-05
5.92484e-05
-9.16947e-05
6.67412e-05
-8.86798e-05
7.27107e-05
-8.56385e-05
7.97337e-05
-8.16541e-05
8.6727e-05
-7.71414e-05
9.37979e-05
-7.18823e-05
0.000100905
-6.58797e-05
0.000107861
-5.90649e-05
0.000114618
-5.13694e-05
0.000121046
-4.27216e-05
0.000126971
-3.31157e-05
0.000132199
-2.26306e-05
0.000136438
-1.14551e-05
0.000139257
0.000137937
-9.89294e-05
3.84174e-05
-9.51429e-05
4.19572e-05
-9.28034e-05
4.71503e-05
-9.10927e-05
5.31978e-05
-8.84108e-05
5.65663e-05
-8.61135e-05
6.44438e-05
-8.29415e-05
6.95387e-05
-7.96899e-05
7.64821e-05
-7.57123e-05
8.27495e-05
-7.12337e-05
8.93195e-05
-6.60881e-05
9.57598e-05
-6.02781e-05
0.000102052
-5.37549e-05
0.000108095
-4.64736e-05
0.000113765
-3.84257e-05
0.000118924
-2.96198e-05
0.000123393
-2.01513e-05
0.00012697
-1.01824e-05
0.000129288
0.000127755
-9.55146e-05
-9.07145e-05
-8.88589e-05
-8.62209e-05
-8.33244e-05
-8.09524e-05
-7.76213e-05
-7.42526e-05
-7.02793e-05
-6.58574e-05
-6.08564e-05
-5.52736e-05
-4.90688e-05
-4.22249e-05
-3.47475e-05
-2.66681e-05
-1.80771e-05
-9.09801e-06
)
;

boundaryField
{
    leftWall
    {
        type            fixedValue;
        value           nonuniform 0();
    }
    rightWall
    {
        type            fixedValue;
        value           uniform 0;
    }
    lowerWall
    {
        type            fixedValue;
        value           uniform 0;
    }
    atmosphere
    {
        type            calculated;
        value           nonuniform 0();
    }
    defaultFaces
    {
        type            empty;
        value           nonuniform 0();
    }
    procBoundary1to0
    {
        type            processor;
        value           nonuniform List<scalar> 
26
(
-3.30985e-05
-3.66101e-05
-3.97226e-05
-3.78397e-05
-1.85359e-05
-1.18884e-05
-1.35785e-05
-1.75447e-05
-9.32144e-05
-0.000164635
-0.000167502
-0.000157436
-0.000157265
-0.000160172
-0.000150211
-0.000140228
-2.6779e-05
-0.000149523
-0.000137206
-0.000129073
-8.8308e-05
7.37401e-05
7.10961e-05
9.81012e-05
0.000105108
0.000105048
)
;
    }
    procBoundary1to3
    {
        type            processor;
        value           nonuniform List<scalar> 
23
(
1.19553e-05
1.28694e-05
1.31558e-05
1.34622e-05
3.29863e-05
3.71568e-05
4.52945e-05
5.05594e-05
5.36698e-05
6.20717e-05
6.62075e-05
7.31134e-05
7.87763e-05
8.48978e-05
9.07588e-05
9.64689e-05
0.000101891
0.000106922
0.000111446
0.000115314
0.00011838
0.00012031
0.000118657
)
;
    }
}


// ************************************************************************* //
