/*--------------------------------*- C++ -*----------------------------------*\
| =========                 |                                                 |
| \\      /  F ield         | OpenFOAM: The Open Source CFD Toolbox           |
|  \\    /   O peration     | Version:  2.4.0                                 |
|   \\  /    A nd           | Web:      www.OpenFOAM.org                      |
|    \\/     M anipulation  |                                                 |
\*---------------------------------------------------------------------------*/
FoamFile
{
    version     2.0;
    format      ascii;
    class       volScalarField;
    location    "0.2";
    object      rho;
}
// * * * * * * * * * * * * * * * * * * * * * * * * * * * * * * * * * * * * * //

dimensions      [1 -3 0 0 0 0 0];

internalField   nonuniform List<scalar> 
559
(
13509.1
13501.4
13495.8
13491.1
13476.9
13402.2
13117.6
12510
79.8263
344.202
492.718
499.439
499.439
499.221
498.959
499.012
498.276
493.764
491.434
494.625
496.516
493.178
437.861
393.177
408.747
478.279
494.007
7.44807
19.1689
196.796
467.013
499.278
499.926
499.947
499.99
499.998
499.997
499.996
499.994
499.952
499.224
499.764
499.828
496.827
494.618
494.36
1.04532
1.05015
4.99073
121.8
450.957
499.793
499.961
499.997
500
500
500
500
500
500
499.999
499.984
499.02
489.085
492.645
1.00588
1.00631
1.12266
18.3678
287.822
499.174
499.951
499.998
500
500
500
500
500
499.999
499.965
498.994
442.866
259.177
486.04
1.00584
1.00671
1.04276
13.4525
403.324
497.84
499.984
500
500
500
500
500
499.999
499.924
496.248
382.688
100.575
18.4199
414.941
1.00566
1.00612
1.59252
98.7696
465.416
499.559
499.999
500
500
500
500
499.999
499.885
493.269
336.673
59.7385
2.77184
1.10603
147.017
1.00543
1.00546
12.0238
298.056
491.419
499.963
500
500
500
500
500
499.936
491.923
321.163
49.0425
1.95246
1.00374
1.0029
13.1796
1.00517
1.00579
82.2784
426.074
498.53
500.003
500
500
500
500
500
496.283
351.555
63.735
2.76928
1.00748
1.00249
1.00266
1.26197
9018.08
4539.05
1715.13
678.34
508.001
500.034
500
500
6142.47
3232.01
1280.13
259.48
5348.82
4298.99
2691.45
1492.92
2922.28
3054.99
2664.21
2008.99
1018.52
1316.28
1490.25
1406.4
532.144
578.791
660.566
746.015
500.243
501.295
505.494
516.928
500
500.001
500.018
500.174
500
500
500
500
500
499.997
499.975
499.852
499.479
497.888
490.944
469.966
445.6
386.873
254.161
87.7343
48.2134
8.63645
1.37102
1.00589
1.00102
1.00556
1.00069
1.00016
1.00015
1.00013
1.00014
1.00008
1.00007
1.00005
1.00004
1.00004
1.00002
1.00002
1.00001
1.00001
1.00003
1.00001
1.00001
1
18.5807
67.0159
319.118
487.446
499.977
500.005
500
500
499.996
499.661
489.985
354.105
80.237
4.28605
1.01781
1.00276
1.00256
1.00264
1.01472
587.222
504.568
506.025
501.492
500.093
500.004
500.003
499.987
499.041
475.92
290.138
48.8976
2.28754
1.00438
1.00265
1.00232
1.00247
1.00271
1.00283
1136.3
640.291
521.609
502.223
500.114
500.044
499.993
498.31
461.138
241.163
33.4369
1.65546
1.00282
1.00228
1.00191
1.00193
1.00218
1.00256
1.00284
1046.01
680.867
538.185
504.742
500.503
500.186
498.072
452.152
214.586
26.9559
1.44716
1.00261
1.00216
1.00164
1.00144
1.00146
1.00166
1.00205
1.0025
740.283
643.9
551.72
510.24
502.033
498.121
450.269
207.228
25.35
1.43435
1.00226
1.002
1.00151
1.00114
1.001
1.00097
1.00107
1.00132
1.0017
548.831
561.784
540.536
514.062
500.198
441.412
189.233
17.5787
1.13668
1.00184
1.00174
1.00139
1.00098
1.00075
1.00063
1.00057
1.00058
1.00067
1.00084
503.394
513.48
515.842
503.566
415.096
150.753
11.9259
1.08425
1.00141
1.00134
1.0012
1.00088
1.0006
1.00045
1.00036
1.0003
1.00027
1.00027
1.00031
500.024
499.655
485.562
353.37
85.6309
3.63075
1.00291
1.00091
1.00095
1.00091
1.00075
1.00051
1.00034
1.00024
1.00018
1.00014
1.00011
1.00009
1.00009
495.327
438.255
225.068
23.3356
1.14331
1.00015
1.00046
1.00056
1.00062
1.00056
1.00043
1.00027
1.00017
1.00012
1.00008
1.00006
1.00004
1.00003
1.00002
331.042
64.2733
2.38886
1.00046
1.00003
1.00012
1.00026
1.00034
1.00036
1.00031
1.00022
1.00013
1.00008
1.00005
1.00003
1.00002
1.00001
1.00001
1.00001
8.52877
1.02988
1.00041
1.00002
1.00002
1.00007
1.00014
1.00018
1.00019
1.00016
1.0001
1.00006
1.00003
1.00002
1.00001
1.00001
1
1
1
1.00342
1.00017
1.00004
1.00001
1.00001
1.00003
1.00006
1.00008
1.00009
1.00007
1.00004
1.00002
1.00001
1.00001
1
1
1
1
1
1.00007
1.00008
1.00002
1.00001
1.00001
1.00001
1.00003
1.00003
1.00004
1.00003
1.00002
1.00001
1
1
1
1
1
1
1
1.00007
1.00003
1.00001
1
1
1
1.00001
1.00001
1.00001
1.00001
1.00001
1
1
1
1
1
1
1
1
1.00003
1.00001
1
0.999999
0.999999
1
1
1
1
1
1
1
1
1
1
1
1
1
1
1.00001
1
0.999999
0.999999
0.999999
0.999999
1
1
1
1
1
1
1
1
1
1
1
1
1
1
0.999999
0.999998
0.999998
0.999998
0.999998
0.999999
0.999999
0.999999
1
1
1
1
1
1
1
1
1
1
)
;

boundaryField
{
    leftWall
    {
        type            calculated;
        value           nonuniform 0();
    }
    rightWall
    {
        type            calculated;
        value           nonuniform List<scalar> 
25
(
494.007
494.36
492.645
486.04
414.941
147.017
13.1796
1.26197
1.01472
1.00283
1.00284
1.0025
1.0017
1.00084
1.00031
1.00009
1.00002
1.00001
1
1
1
1
1
1
1
)
;
    }
    lowerWall
    {
        type            calculated;
        value           nonuniform List<scalar> 
40
(
13509.1
13509.1
13501.4
13495.8
13491.1
13476.9
13402.2
13117.6
12510
6142.47
3232.01
1280.13
259.48
79.8263
7.44807
1.04532
1.00588
1.00584
1.00566
1.00543
1.00517
79.8263
344.202
492.718
499.439
499.439
499.221
498.959
499.012
498.276
493.764
491.434
494.625
496.516
493.178
437.861
393.177
408.747
478.279
494.007
)
;
    }
    atmosphere
    {
        type            calculated;
        value           nonuniform 0();
    }
    defaultFaces
    {
        type            empty;
    }
    procBoundary1to0
    {
        type            processor;
        value           nonuniform List<scalar> 
26
(
13517.2
13515.2
13513.7
13487.3
12819.9
10424.5
6550.17
2770.26
1463.38
843.103
599.54
516.857
500.732
500.002
500
500
500
500
499.917
482.71
200.985
1.29861
1.00017
1.00014
1.00013
1.00006
)
;
    }
    procBoundary1to3
    {
        type            processor;
        value           nonuniform List<scalar> 
23
(
1.00001
1.00002
1.00001
1
1
0.999999
0.999998
0.999998
0.999998
0.999998
0.999998
0.999998
0.999999
0.999999
0.999999
1
1
1
1
1
1
1
1
)
;
    }
}


// ************************************************************************* //
