/*--------------------------------*- C++ -*----------------------------------*\
| =========                 |                                                 |
| \\      /  F ield         | OpenFOAM: The Open Source CFD Toolbox           |
|  \\    /   O peration     | Version:  2.4.0                                 |
|   \\  /    A nd           | Web:      www.OpenFOAM.org                      |
|    \\/     M anipulation  |                                                 |
\*---------------------------------------------------------------------------*/
FoamFile
{
    version     2.0;
    format      ascii;
    class       volVectorField;
    location    "0.2";
    object      U;
}
// * * * * * * * * * * * * * * * * * * * * * * * * * * * * * * * * * * * * * //

dimensions      [0 1 -1 0 0 0 0];

internalField   nonuniform List<vector> 
559
(
(0.255689 0.031472 0)
(0.304342 0.301129 0)
(0.339196 0.484607 0)
(0.371954 0.711539 0)
(0.398124 0.863891 0)
(0.358515 1.11235 0)
(0.376018 1.27702 0)
(0.367771 1.40759 0)
(-1.41951 -0.34253 0)
(-1.407 -0.480005 0)
(-1.59523 -0.149645 0)
(-1.82456 -0.0320857 0)
(-1.8775 -0.151874 0)
(-1.22149 -0.339461 0)
(-0.421787 -0.302746 0)
(0.163542 -0.221676 0)
(0.673154 -0.202001 0)
(1.04476 -0.174352 0)
(1.33832 -0.144972 0)
(1.58502 -0.136968 0)
(1.8238 -0.148372 0)
(2.09406 -0.150837 0)
(2.32298 -0.140558 0)
(2.41497 -0.0832957 0)
(2.28441 -0.0639553 0)
(1.85801 0.0487944 0)
(1.56248 0.098683 0)
(-0.57025 1.17479 0)
(-0.870285 0.972433 0)
(-1.09817 0.26755 0)
(-1.04371 0.11326 0)
(-1.08346 0.0782398 0)
(-0.6149 -0.346536 0)
(-0.125715 -0.392085 0)
(0.427894 -0.287752 0)
(0.84526 -0.190261 0)
(1.1549 -0.124734 0)
(1.43898 -0.0962949 0)
(1.70718 -0.0981259 0)
(1.94897 -0.111437 0)
(2.14485 -0.103149 0)
(2.28814 -0.0755421 0)
(2.36954 -0.00846511 0)
(2.36988 0.186984 0)
(1.92107 0.537265 0)
(1.60683 1.03815 0)
(-0.684799 0.888585 0)
(-1.20583 0.00761914 0)
(-2.05236 0.348556 0)
(-1.25316 0.00139089 0)
(-0.650631 -0.333799 0)
(-0.084888 -0.709029 0)
(0.255821 -0.705265 0)
(0.615218 -0.592685 0)
(1.0011 -0.46225 0)
(1.3136 -0.371698 0)
(1.58333 -0.322642 0)
(1.82367 -0.3091 0)
(2.05167 -0.281802 0)
(2.23152 -0.224033 0)
(2.33396 -0.145309 0)
(2.37221 -0.0263668 0)
(2.40913 0.130747 0)
(1.99827 0.484223 0)
(1.66182 1.53237 0)
(-0.726699 1.22394 0)
(-1.6711 0.724116 0)
(-2.71798 -0.13711 0)
(-2.87494 0.139636 0)
(-0.33617 -0.63335 0)
(0.403225 -0.944312 0)
(0.529861 -0.782886 0)
(0.857965 -0.647482 0)
(1.17757 -0.514461 0)
(1.45272 -0.418824 0)
(1.6824 -0.365539 0)
(1.89925 -0.347374 0)
(2.09611 -0.313882 0)
(2.23529 -0.24427 0)
(2.32148 -0.115037 0)
(2.34643 -0.0453626 0)
(2.40722 0.109509 0)
(1.6412 1.01977 0)
(1.80299 2.13411 0)
(-0.538104 1.73697 0)
(-0.796959 1.20102 0)
(-0.374643 0.102376 0)
(-1.75515 -0.678549 0)
(0.572099 -0.962015 0)
(0.653263 -1.08096 0)
(0.766873 -0.967158 0)
(1.03639 -0.829181 0)
(1.28086 -0.677754 0)
(1.50918 -0.56461 0)
(1.72676 -0.502595 0)
(1.93508 -0.455866 0)
(2.10271 -0.378555 0)
(2.21268 -0.258658 0)
(2.23685 -0.233185 0)
(2.32428 -0.115887 0)
(2.66301 0.314178 0)
(0.570351 2.5384 0)
(2.39393 2.70186 0)
(-0.331317 1.96759 0)
(0.227642 1.13907 0)
(0.140624 0.0842418 0)
(0.328366 -0.744477 0)
(0.928801 -1.16778 0)
(0.926041 -1.11368 0)
(1.01419 -1.01476 0)
(1.2146 -0.86418 0)
(1.39018 -0.718915 0)
(1.59546 -0.607291 0)
(1.79259 -0.547504 0)
(1.95596 -0.498476 0)
(2.09114 -0.398715 0)
(2.12698 -0.373256 0)
(2.24806 -0.227836 0)
(2.50053 0.115426 0)
(2.54953 0.653138 0)
(0.356945 1.6328 0)
(3.85397 3.75641 0)
(-0.215753 1.88293 0)
(0.808176 0.850524 0)
(0.500036 -0.190912 0)
(0.930367 -0.749319 0)
(1.16622 -1.1171 0)
(1.1115 -1.1878 0)
(1.18122 -1.12335 0)
(1.30861 -0.984291 0)
(1.42962 -0.822231 0)
(1.60891 -0.715237 0)
(1.78135 -0.636531 0)
(1.92244 -0.56704 0)
(1.9941 -0.532997 0)
(2.14715 -0.369847 0)
(2.56404 -0.0407572 0)
(2.37768 0.0653799 0)
(2.4469 0.509484 0)
(0.0606573 1.40103 0)
(3.8111 4.44717 0)
(0.292929 1.5612 0)
(1.1547 1.13743 0)
(0.89176 -0.305406 0)
(1.21791 -0.778351 0)
(1.30328 -1.21547 0)
(1.27028 -1.20492 0)
(1.3273 -1.14336 0)
(1.40542 -1.00288 0)
(1.48926 -0.852798 0)
(1.64057 -0.763369 0)
(1.80372 -0.67788 0)
(1.86985 -0.662816 0)
(2.01892 -0.544593 0)
(2.53668 -0.308402 0)
(2.72804 -0.255711 0)
(2.18703 -0.0101064 0)
(2.36708 0.778192 0)
(0.0509799 1.6109 0)
(2.67464 4.85626 0)
(0.63429 1.48929 0)
(0.977893 1.25355 0)
(1.20144 0.970531 0)
(1.10438 0.660288 0)
(1.03274 0.398231 0)
(0.963047 0.195194 0)
(0.878439 0.0552074 0)
(0.823501 -0.0842757 0)
(0.703408 1.27189 0)
(0.0830225 1.13849 0)
(-0.424663 0.688155 0)
(-0.849817 0.264966 0)
(0.958985 1.13246 0)
(0.97823 1.05601 0)
(0.947305 0.885849 0)
(1.02454 0.595974 0)
(1.29801 1.00364 0)
(1.39954 0.952288 0)
(1.51364 0.830623 0)
(1.65007 0.5881 0)
(1.30291 0.600998 0)
(1.47826 0.582667 0)
(1.61087 0.494137 0)
(1.71853 0.313834 0)
(1.17025 0.310776 0)
(1.29371 0.286891 0)
(1.40129 0.180863 0)
(1.50169 0.0972108 0)
(1.06301 0.153929 0)
(1.15206 0.107195 0)
(1.23114 0.0501816 0)
(1.30972 -0.0288918 0)
(0.977636 -0.00749001 0)
(1.05145 -0.0624478 0)
(1.10966 -0.115503 0)
(1.17394 -0.17867 0)
(0.914159 -0.159931 0)
(0.958595 -0.182877 0)
(1.00619 -0.219043 0)
(1.05385 -0.257829 0)
(0.822525 -0.248178 0)
(0.871888 -0.26287 0)
(0.925673 -0.321103 0)
(0.968841 -0.366746 0)
(0.760198 -0.339256 0)
(0.824396 -0.406975 0)
(0.858985 -0.487767 0)
(0.892761 -0.570151 0)
(0.710945 -0.553253 0)
(0.682548 -0.6425 0)
(0.631637 -0.704012 0)
(0.606571 -0.368781 0)
(0.525946 -0.0814626 0)
(0.396597 0.650097 0)
(-0.0355645 0.806085 0)
(-0.529611 0.0377695 0)
(-0.577138 -0.0303246 0)
(-0.468209 -0.00538858 0)
(-0.28126 0.310201 0)
(-0.289997 0.241187 0)
(-0.382122 0.0491082 0)
(-0.483262 0.116821 0)
(-0.465784 0.186185 0)
(-0.449262 0.187074 0)
(-0.541758 0.136048 0)
(-0.534486 0.151758 0)
(-0.541691 0.183087 0)
(-0.53819 0.197722 0)
(-0.567496 0.1521 0)
(-0.563046 0.158643 0)
(-0.56048 0.169482 0)
(-0.554417 0.182021 0)
(-0.556976 0.141678 0)
(-0.558421 0.152539 0)
(-0.555563 0.161907 0)
(-0.548346 0.16622 0)
(-0.886632 0.949204 0)
(0.885796 0.202323 0)
(1.16784 -0.488923 0)
(1.45241 -0.914682 0)
(1.49962 -1.19567 0)
(1.47754 -1.22649 0)
(1.4676 -1.17954 0)
(1.46604 -1.06018 0)
(1.53128 -0.948172 0)
(1.65658 -0.860421 0)
(1.74716 -0.849035 0)
(1.84276 -0.730218 0)
(2.03463 -0.553344 0)
(1.93848 -0.352284 0)
(1.3592 -0.132517 0)
(0.716919 0.514995 0)
(1.38262 1.26022 0)
(-0.675068 2.09282 0)
(1.50541 5.61597 0)
(1.07842 0.260864 0)
(1.48778 -0.0643483 0)
(1.75128 -0.55606 0)
(1.75359 -0.939793 0)
(1.68759 -1.13161 0)
(1.62093 -1.18808 0)
(1.55275 -1.16023 0)
(1.51285 -1.06717 0)
(1.56637 -1.0027 0)
(1.59625 -0.990907 0)
(1.65791 -0.825345 0)
(1.82975 -0.498931 0)
(1.33247 -0.21606 0)
(0.416899 0.131771 0)
(0.10985 0.29738 0)
(-0.292446 0.527065 0)
(0.0657119 1.431 0)
(-1.03528 2.38232 0)
(0.53767 5.63304 0)
(1.81508 0.22334 0)
(1.89434 -0.308542 0)
(1.93034 -0.726144 0)
(1.84578 -0.947468 0)
(1.73173 -1.08785 0)
(1.63445 -1.09508 0)
(1.54964 -1.08156 0)
(1.50594 -1.05891 0)
(1.49208 -1.05082 0)
(1.53864 -0.938017 0)
(1.60077 -0.626991 0)
(0.787802 -0.224076 0)
(0.0155186 0.336202 0)
(-0.274683 0.451046 0)
(-0.538424 0.514231 0)
(-0.830259 0.732911 0)
(-0.861642 1.39928 0)
(-1.23778 2.31083 0)
(-0.271619 4.72691 0)
(1.86599 0.0125763 0)
(1.935 -0.345126 0)
(1.83519 -0.629305 0)
(1.70581 -0.808638 0)
(1.60389 -0.959885 0)
(1.53542 -1.02013 0)
(1.46604 -1.05167 0)
(1.41643 -1.0827 0)
(1.44673 -1.02367 0)
(1.34236 -0.787582 0)
(0.453561 -0.212861 0)
(-0.229056 0.505778 0)
(-0.481545 0.620186 0)
(-0.643984 0.631069 0)
(-0.831285 0.711979 0)
(-1.0507 0.925484 0)
(-1.16713 1.40186 0)
(-1.24246 2.18386 0)
(-0.685138 3.54712 0)
(1.63929 -0.0717824 0)
(1.68724 -0.330406 0)
(1.66902 -0.557254 0)
(1.62704 -0.740104 0)
(1.56914 -0.876385 0)
(1.53413 -0.948593 0)
(1.428 -1.01242 0)
(1.42409 -1.03892 0)
(1.34549 -0.918632 0)
(0.482041 -0.289493 0)
(-0.383721 0.540034 0)
(-0.563611 0.704107 0)
(-0.68253 0.73159 0)
(-0.774882 0.762591 0)
(-0.908523 0.865628 0)
(-1.04643 1.06588 0)
(-1.1296 1.43481 0)
(-0.980158 1.99096 0)
(-0.608054 2.6453 0)
(1.41137 -0.177519 0)
(1.48311 -0.352344 0)
(1.50887 -0.542811 0)
(1.50591 -0.722409 0)
(1.46378 -0.85329 0)
(1.38198 -0.944077 0)
(1.29404 -1.00334 0)
(1.13078 -0.866365 0)
(0.0501666 -0.156619 0)
(-0.505096 0.508023 0)
(-0.67648 0.699306 0)
(-0.698741 0.75843 0)
(-0.726 0.782943 0)
(-0.776378 0.848139 0)
(-0.845146 0.951959 0)
(-0.892035 1.12561 0)
(-0.894137 1.40116 0)
(-0.666081 1.7663 0)
(-0.387471 2.06752 0)
(1.24586 -0.259595 0)
(1.33077 -0.406719 0)
(1.38934 -0.568345 0)
(1.39721 -0.692343 0)
(1.35938 -0.817428 0)
(1.24514 -0.86976 0)
(1.16246 -0.566949 0)
(0.00690822 -0.0694027 0)
(-0.507714 0.362906 0)
(-0.684792 0.568942 0)
(-0.720356 0.704069 0)
(-0.709259 0.757932 0)
(-0.716977 0.802038 0)
(-0.724462 0.880604 0)
(-0.72972 0.977203 0)
(-0.715106 1.12066 0)
(-0.658986 1.31233 0)
(-0.458751 1.55573 0)
(-0.231992 1.69336 0)
(1.13434 -0.344006 0)
(1.23002 -0.469639 0)
(1.26987 -0.612331 0)
(1.26484 -0.745428 0)
(1.10833 -0.697858 0)
(0.899446 -0.106934 0)
(-0.445421 0.0323129 0)
(-0.473122 0.369767 0)
(-0.693014 0.486919 0)
(-0.709058 0.607189 0)
(-0.70918 0.698689 0)
(-0.686984 0.744327 0)
(-0.678564 0.801634 0)
(-0.648659 0.867555 0)
(-0.626119 0.959947 0)
(-0.580764 1.07578 0)
(-0.502825 1.21481 0)
(-0.331506 1.37065 0)
(-0.149171 1.43736 0)
(1.06636 -0.459205 0)
(1.11395 -0.60295 0)
(1.05947 -0.657724 0)
(0.848462 -0.0676409 0)
(0.00325406 0.179824 0)
(-0.404953 -0.0251302 0)
(-0.573663 0.336739 0)
(-0.635688 0.412666 0)
(-0.695102 0.52573 0)
(-0.694462 0.606933 0)
(-0.662963 0.663585 0)
(-0.633286 0.715234 0)
(-0.609202 0.774066 0)
(-0.575903 0.839817 0)
(-0.538067 0.922358 0)
(-0.479201 1.01552 0)
(-0.395469 1.11642 0)
(-0.252373 1.21819 0)
(-0.104246 1.25261 0)
(0.931768 -0.6373 0)
(0.72775 -0.288636 0)
(0.611039 0.642818 0)
(-0.611249 -0.161996 0)
(-0.175882 0.110514 0)
(-0.573497 0.248959 0)
(-0.626102 0.385898 0)
(-0.653032 0.448084 0)
(-0.671461 0.528382 0)
(-0.639719 0.578244 0)
(-0.610053 0.633088 0)
(-0.58032 0.687885 0)
(-0.548608 0.744219 0)
(-0.511242 0.805547 0)
(-0.465224 0.875995 0)
(-0.402056 0.950379 0)
(-0.319902 1.02466 0)
(-0.201145 1.09314 0)
(-0.0773348 1.11079 0)
(0.523311 0.641594 0)
(-0.534457 0.105614 0)
(-0.277051 -0.128214 0)
(-0.426757 0.30652 0)
(-0.50813 0.228999 0)
(-0.617288 0.333813 0)
(-0.624832 0.398588 0)
(-0.634216 0.456066 0)
(-0.613042 0.505398 0)
(-0.586581 0.553802 0)
(-0.560721 0.606336 0)
(-0.529992 0.658567 0)
(-0.495316 0.711289 0)
(-0.454969 0.766672 0)
(-0.405504 0.82611 0)
(-0.342696 0.885674 0)
(-0.26524 0.941719 0)
(-0.166178 0.989216 0)
(-0.0593636 0.997763 0)
(-0.422971 -0.289244 0)
(-0.29968 0.122187 0)
(-0.483958 0.272506 0)
(-0.540833 0.274589 0)
(-0.569352 0.285085 0)
(-0.607325 0.352496 0)
(-0.600187 0.395963 0)
(-0.583457 0.441455 0)
(-0.564033 0.484673 0)
(-0.540737 0.532466 0)
(-0.514818 0.580076 0)
(-0.483613 0.628275 0)
(-0.447831 0.676422 0)
(-0.406149 0.725713 0)
(-0.356333 0.775831 0)
(-0.296126 0.824097 0)
(-0.224607 0.867451 0)
(-0.140459 0.90126 0)
(-0.047892 0.903682 0)
(-0.406037 0.186269 0)
(-0.529626 0.175658 0)
(-0.546037 0.245789 0)
(-0.566751 0.274434 0)
(-0.559853 0.310302 0)
(-0.574351 0.341727 0)
(-0.551092 0.386352 0)
(-0.540788 0.422728 0)
(-0.521211 0.467614 0)
(-0.499066 0.510152 0)
(-0.472627 0.554083 0)
(-0.441483 0.597851 0)
(-0.405619 0.641334 0)
(-0.364047 0.684691 0)
(-0.315532 0.727092 0)
(-0.258852 0.766714 0)
(-0.193604 0.800966 0)
(-0.119988 0.826056 0)
(-0.0404087 0.824999 0)
(-0.490889 0.151432 0)
(-0.548393 0.215748 0)
(-0.544232 0.257884 0)
(-0.557052 0.273243 0)
(-0.529001 0.301579 0)
(-0.539447 0.334383 0)
(-0.510105 0.373405 0)
(-0.505741 0.408005 0)
(-0.481878 0.449424 0)
(-0.461314 0.487926 0)
(-0.434195 0.528189 0)
(-0.403555 0.567673 0)
(-0.368222 0.606673 0)
(-0.32775 0.6447 0)
(-0.281388 0.68082 0)
(-0.228583 0.713743 0)
(-0.169308 0.741301 0)
(-0.104263 0.760553 0)
(-0.0350925 0.756346 0)
(-0.539132 0.210034 0)
(-0.54754 0.227862 0)
(-0.527352 0.249809 0)
(-0.527196 0.271909 0)
(-0.49771 0.290878 0)
(-0.508518 0.326755 0)
(-0.476086 0.359043 0)
(-0.472422 0.393759 0)
(-0.44667 0.430193 0)
(-0.426744 0.465994 0)
(-0.39946 0.502483 0)
(-0.369555 0.538125 0)
(-0.335147 0.572957 0)
(-0.296306 0.606339 0)
(-0.252502 0.637387 0)
(-0.203567 0.665048 0)
(-0.149705 0.687705 0)
(-0.0915498 0.703011 0)
(-0.030658 0.697507 0)
(-0.543605 0.197953 0)
(-0.525634 0.214359 0)
(-0.499241 0.23418 0)
(-0.505611 0.261145 0)
(-0.471259 0.280062 0)
(-0.479428 0.318023 0)
(-0.446696 0.344086 0)
(-0.440727 0.378737 0)
(-0.415128 0.410864 0)
(-0.394997 0.444229 0)
(-0.368118 0.477216 0)
(-0.339057 0.509454 0)
(-0.305892 0.540566 0)
(-0.268931 0.56994 0)
(-0.22783 0.596856 0)
(-0.182615 0.620349 0)
(-0.133615 0.639283 0)
(-0.0814987 0.651699 0)
(-0.0272049 0.644657 0)
(-0.527732 0.177202 0)
(-0.489614 0.19098 0)
(-0.485777 0.222393 0)
(-0.477929 0.251992 0)
(-0.445668 0.26839 0)
(-0.4514 0.305893 0)
(-0.419422 0.329364 0)
(-0.411387 0.362632 0)
(-0.386323 0.391762 0)
(-0.365988 0.422665 0)
(-0.339772 0.452602 0)
(-0.311654 0.481804 0)
(-0.279931 0.509673 0)
(-0.244957 0.535656 0)
(-0.206542 0.559168 0)
(-0.164814 0.579392 0)
(-0.120078 0.595496 0)
(-0.0730087 0.605801 0)
(-0.0243518 0.598085 0)
)
;

boundaryField
{
    leftWall
    {
        type            calculated;
        value           nonuniform 0();
    }
    rightWall
    {
        type            calculated;
        value           uniform (0 0 0);
    }
    lowerWall
    {
        type            calculated;
        value           uniform (0 0 0);
    }
    atmosphere
    {
        type            calculated;
        value           nonuniform 0();
    }
    defaultFaces
    {
        type            empty;
    }
    procBoundary1to0
    {
        type            processor;
        value           nonuniform List<vector> 
26
(
(0.570385 0.119755 0)
(0.6031 0.198496 0)
(0.64915 0.411209 0)
(0.668932 0.508663 0)
(0.587386 0.658007 0)
(0.374148 0.803798 0)
(0.1936 0.852321 0)
(0.183317 1.02641 0)
(0.836759 1.18746 0)
(0.912012 1.00565 0)
(0.824586 0.722364 0)
(0.823715 0.513121 0)
(0.801043 0.367759 0)
(0.785952 0.208911 0)
(0.746457 0.0757497 0)
(0.690482 -0.0386488 0)
(0.778909 -0.198584 0)
(0.778909 -0.198584 0)
(0.712241 -0.271602 0)
(0.644743 -0.42664 0)
(0.454111 -0.60601 0)
(-0.136061 0.37482 0)
(-0.438781 -0.397223 0)
(-0.446309 0.110358 0)
(-0.575476 0.112687 0)
(-0.572127 0.119629 0)
)
;
    }
    procBoundary1to3
    {
        type            processor;
        value           nonuniform List<vector> 
23
(
(-0.545407 0.127519 0)
(-0.536874 0.137604 0)
(-0.521055 0.13708 0)
(-0.510502 0.138163 0)
(-0.489576 0.150572 0)
(-0.473841 0.172563 0)
(-0.466574 0.215736 0)
(-0.446102 0.240101 0)
(-0.427124 0.252038 0)
(-0.420309 0.295624 0)
(-0.395759 0.31283 0)
(-0.383201 0.346446 0)
(-0.360097 0.372681 0)
(-0.339333 0.401468 0)
(-0.314069 0.428751 0)
(-0.286955 0.455282 0)
(-0.256775 0.480341 0)
(-0.223813 0.503478 0)
(-0.187977 0.524171 0)
(-0.149439 0.541778 0)
(-0.108509 0.555656 0)
(-0.0656767 0.564341 0)
(-0.0217639 0.556359 0)
)
;
    }
}


// ************************************************************************* //
