/*--------------------------------*- C++ -*----------------------------------*\
| =========                 |                                                 |
| \\      /  F ield         | OpenFOAM: The Open Source CFD Toolbox           |
|  \\    /   O peration     | Version:  2.4.0                                 |
|   \\  /    A nd           | Web:      www.OpenFOAM.org                      |
|    \\/     M anipulation  |                                                 |
\*---------------------------------------------------------------------------*/
FoamFile
{
    version     2.0;
    format      ascii;
    class       volVectorField;
    location    "0.2";
    object      U.air;
}
// * * * * * * * * * * * * * * * * * * * * * * * * * * * * * * * * * * * * * //

dimensions      [0 1 -1 0 0 0 0];

internalField   nonuniform List<vector> 
559
(
(0.255486 0.0317031 0)
(0.304071 0.301557 0)
(0.338898 0.485125 0)
(0.371655 0.712213 0)
(0.397795 0.864774 0)
(0.35823 1.1132 0)
(0.37654 1.27527 0)
(0.368935 1.39968 0)
(-1.40827 -0.255405 0)
(-1.48483 -0.355137 0)
(-1.84478 0.232147 0)
(-2.2503 0.266728 0)
(-2.68582 -0.0779888 0)
(-2.14829 -0.201801 0)
(-0.963835 -0.0558377 0)
(0.0604286 0.120708 0)
(0.838519 0.113967 0)
(1.31931 0.0984446 0)
(1.64488 0.1093 0)
(1.87971 0.126426 0)
(2.07279 0.148043 0)
(2.2986 0.184396 0)
(2.36296 0.206063 0)
(2.1378 0.234658 0)
(1.63238 0.195272 0)
(0.628971 0.296399 0)
(0.76533 0.53196 0)
(-0.557636 1.20211 0)
(-0.865091 1.01985 0)
(-1.18732 0.482575 0)
(-1.51405 0.62265 0)
(-1.84867 0.307767 0)
(-1.10738 -0.213734 0)
(-0.237924 -0.17425 0)
(0.410357 -0.0711554 0)
(0.846959 0.00128406 0)
(1.15841 0.0626409 0)
(1.44441 0.0859365 0)
(1.72366 0.0804726 0)
(2.04484 0.106299 0)
(2.29482 0.325717 0)
(2.33469 0.361579 0)
(2.21533 0.431432 0)
(1.93328 0.815955 0)
(0.936611 1.25737 0)
(0.905978 1.96306 0)
(-0.684717 0.888725 0)
(-1.20588 0.00767514 0)
(-2.06779 0.357829 0)
(-1.53507 0.176857 0)
(-1.70064 0.152777 0)
(-0.68956 -0.557046 0)
(0.0864424 -0.599724 0)
(0.594195 -0.570032 0)
(1.00179 -0.456643 0)
(1.31553 -0.367161 0)
(1.58547 -0.318029 0)
(1.82547 -0.303926 0)
(2.05274 -0.258397 0)
(2.2322 -0.0756835 0)
(2.33485 -0.0352291 0)
(2.31371 0.241842 0)
(2.29615 1.09095 0)
(1.35652 2.06129 0)
(1.07211 2.55773 0)
(-0.726684 1.22394 0)
(-1.67109 0.724116 0)
(-2.71873 -0.136951 0)
(-2.99549 0.174397 0)
(-1.15658 -0.344246 0)
(-0.74883 -0.682784 0)
(0.311656 -0.685856 0)
(0.834199 -0.630524 0)
(1.17755 -0.509875 0)
(1.45382 -0.415506 0)
(1.68367 -0.362908 0)
(1.90065 -0.344777 0)
(2.09806 -0.31096 0)
(2.24548 -0.20043 0)
(2.36296 0.0721975 0)
(2.49048 0.661871 0)
(2.48516 1.03296 0)
(0.979015 1.8559 0)
(0.645163 3.73031 0)
(-0.538094 1.73696 0)
(-0.796956 1.20101 0)
(-0.374721 0.102425 0)
(-1.8218 -0.680823 0)
(-0.244176 -0.864548 0)
(-0.293517 -0.789117 0)
(0.524199 -0.914805 0)
(1.02725 -0.821914 0)
(1.2809 -0.67461 0)
(1.50977 -0.562331 0)
(1.72763 -0.500508 0)
(1.93668 -0.452582 0)
(2.12704 -0.320097 0)
(2.30604 -0.0500985 0)
(2.46761 0.43471 0)
(2.50126 0.467655 0)
(2.70718 0.511509 0)
(0.485108 2.63972 0)
(1.88924 4.31406 0)
(-0.331308 1.96758 0)
(0.227643 1.13906 0)
(0.139448 0.084979 0)
(0.166491 -0.765978 0)
(0.0755472 -1.30356 0)
(0.195014 -0.898164 0)
(0.810671 -1.00219 0)
(1.21356 -0.861085 0)
(1.39014 -0.71658 0)
(1.59599 -0.605236 0)
(1.79395 -0.545795 0)
(1.99042 -0.458094 0)
(2.22039 -0.176826 0)
(2.42863 0.274069 0)
(2.44934 0.251678 0)
(2.52762 0.226363 0)
(2.54894 0.658733 0)
(0.356289 1.63327 0)
(3.77243 4.11426 0)
(-0.215746 1.88291 0)
(0.808171 0.850512 0)
(0.482859 -0.184402 0)
(0.645864 -0.851899 0)
(0.393065 -1.3411 0)
(0.676744 -1.10497 0)
(1.1467 -1.12145 0)
(1.3079 -0.981867 0)
(1.42958 -0.820245 0)
(1.60928 -0.713839 0)
(1.80075 -0.635527 0)
(2.02729 -0.372055 0)
(2.33373 0.0693942 0)
(2.38797 0.0881075 0)
(2.61621 0.0499296 0)
(2.37792 0.0674649 0)
(2.44689 0.50949 0)
(0.0606483 1.40103 0)
(3.72349 4.44724 0)
(0.292931 1.56119 0)
(1.15469 1.13742 0)
(0.826745 -0.274533 0)
(0.83045 -0.938659 0)
(0.653531 -1.43318 0)
(0.937123 -1.19628 0)
(1.32244 -1.14193 0)
(1.40455 -1.001 0)
(1.48912 -0.848016 0)
(1.64069 -0.655339 0)
(1.86579 -0.502298 0)
(2.16222 -0.0717955 0)
(2.31634 -0.0780141 0)
(2.6245 -0.211698 0)
(2.73052 -0.252713 0)
(2.18702 -0.0100925 0)
(2.36707 0.778192 0)
(0.0509758 1.61089 0)
(2.66977 4.85503 0)
(0.568156 1.47105 0)
(0.835753 1.31909 0)
(1.03045 1.1515 0)
(1.07132 0.88004 0)
(1.03513 0.468117 0)
(0.963045 0.195309 0)
(0.878455 0.0553141 0)
(0.823657 -0.0839692 0)
(0.369267 1.37494 0)
(-0.286259 1.25465 0)
(-0.935871 0.676421 0)
(-1.0356 0.311982 0)
(0.837462 1.25636 0)
(1.20494 1.14094 0)
(1.54567 0.606963 0)
(1.22726 0.266518 0)
(1.07424 1.15915 0)
(1.16043 1.10246 0)
(1.25313 0.776594 0)
(1.39528 0.364557 0)
(1.17345 0.918221 0)
(1.27072 0.91777 0)
(1.37532 0.835232 0)
(1.47177 0.650666 0)
(1.15736 0.485502 0)
(1.25478 0.551036 0)
(1.33859 0.531846 0)
(1.42371 0.479813 0)
(1.06324 0.158105 0)
(1.15252 0.13334 0)
(1.23252 0.12683 0)
(1.30901 0.116784 0)
(0.977676 -0.00734069 0)
(1.05152 -0.0622607 0)
(1.10977 -0.115274 0)
(1.17469 -0.176184 0)
(0.914422 -0.159418 0)
(0.958936 -0.180604 0)
(1.00654 -0.205447 0)
(1.05712 -0.20732 0)
(0.823544 -0.121659 0)
(0.879159 -0.117531 0)
(0.967183 -0.159383 0)
(1.11149 -0.135799 0)
(0.950881 0.0345313 0)
(1.03389 0.0382172 0)
(1.08313 0.0162234 0)
(1.11056 -0.0796268 0)
(0.874131 -0.141318 0)
(0.801767 -0.329891 0)
(0.676217 -0.463245 0)
(0.610702 -0.228637 0)
(0.531561 0.00755914 0)
(0.395589 0.676015 0)
(-0.0358921 0.807562 0)
(-0.529615 0.0377772 0)
(-0.577137 -0.0303239 0)
(-0.468214 -0.00538212 0)
(-0.28126 0.310201 0)
(-0.289997 0.241187 0)
(-0.382122 0.0491082 0)
(-0.483262 0.116821 0)
(-0.465784 0.186185 0)
(-0.449262 0.187074 0)
(-0.541758 0.136048 0)
(-0.534486 0.151758 0)
(-0.541691 0.183087 0)
(-0.53819 0.197723 0)
(-0.567496 0.1521 0)
(-0.563046 0.158643 0)
(-0.56048 0.169482 0)
(-0.554418 0.182022 0)
(-0.556976 0.141678 0)
(-0.558422 0.152539 0)
(-0.555563 0.161907 0)
(-0.548347 0.16622 0)
(-0.919278 0.985937 0)
(0.93008 0.228922 0)
(1.03393 -0.680109 0)
(1.01559 -1.24647 0)
(1.14037 -1.35865 0)
(1.36955 -1.22576 0)
(1.46628 -1.17844 0)
(1.46465 -1.04981 0)
(1.54325 -0.766907 0)
(1.73189 -0.519142 0)
(2.00154 -0.283426 0)
(2.06633 -0.312513 0)
(2.08987 -0.449506 0)
(1.93917 -0.346649 0)
(1.35918 -0.132481 0)
(0.716914 0.514994 0)
(1.38261 1.26021 0)
(-0.675067 2.09281 0)
(1.50509 5.61586 0)
(1.01555 -0.0415477 0)
(1.37391 -0.477502 0)
(1.46366 -1.10945 0)
(1.52496 -1.24012 0)
(1.62971 -1.193 0)
(1.61932 -1.1882 0)
(1.54571 -1.1575 0)
(1.47861 -0.953584 0)
(1.5784 -0.636115 0)
(1.75244 -0.548798 0)
(1.77019 -0.525059 0)
(1.85705 -0.429225 0)
(1.33205 -0.213327 0)
(0.416892 0.131777 0)
(0.109849 0.297378 0)
(-0.292445 0.527061 0)
(0.0657119 1.43099 0)
(-1.03527 2.38231 0)
(0.537652 5.63301 0)
(1.48857 0.101952 0)
(1.61477 -0.250714 0)
(1.76966 -0.536532 0)
(1.83406 -0.944637 0)
(1.73155 -1.08822 0)
(1.624 -1.10101 0)
(1.44183 -1.12028 0)
(1.37762 -0.893287 0)
(1.54282 -0.782084 0)
(1.59476 -0.765089 0)
(1.60836 -0.587356 0)
(0.78692 -0.222766 0)
(0.0155167 0.336202 0)
(-0.274681 0.451043 0)
(-0.53842 0.514228 0)
(-0.830254 0.732905 0)
(-0.861637 1.39927 0)
(-1.23777 2.31082 0)
(-0.271622 4.72688 0)
(1.6075 0.343359 0)
(1.79469 0.129039 0)
(1.81679 -0.307311 0)
(1.71534 -0.719941 0)
(1.59925 -0.970359 0)
(1.43189 -1.13021 0)
(1.26879 -1.20235 0)
(1.34495 -1.02277 0)
(1.46024 -0.936441 0)
(1.33898 -0.765124 0)
(0.45275 -0.211993 0)
(-0.229056 0.505777 0)
(-0.481543 0.620182 0)
(-0.643979 0.631065 0)
(-0.831279 0.711974 0)
(-1.05069 0.925478 0)
(-1.16713 1.40185 0)
(-1.24245 2.18384 0)
(-0.685135 3.5471 0)
(1.55818 0.36831 0)
(1.66648 0.136491 0)
(1.70846 -0.190892 0)
(1.6621 -0.58385 0)
(1.52344 -1.00835 0)
(1.38656 -1.18947 0)
(1.36513 -1.08891 0)
(1.4606 -1.01686 0)
(1.35044 -0.912406 0)
(0.481594 -0.288986 0)
(-0.38372 0.540032 0)
(-0.563608 0.704103 0)
(-0.682526 0.731586 0)
(-0.774877 0.762586 0)
(-0.908518 0.865622 0)
(-1.04642 1.06588 0)
(-1.1296 1.4348 0)
(-0.980153 1.99094 0)
(-0.608051 2.64529 0)
(1.42185 0.111731 0)
(1.53323 0.0133304 0)
(1.59206 -0.2109 0)
(1.60008 -0.570457 0)
(1.49141 -1.0245 0)
(1.43416 -1.01123 0)
(1.34673 -0.971089 0)
(1.1367 -0.852604 0)
(0.0499951 -0.156289 0)
(-0.505094 0.508021 0)
(-0.676477 0.699303 0)
(-0.698738 0.758426 0)
(-0.725996 0.782939 0)
(-0.776373 0.848134 0)
(-0.845141 0.951954 0)
(-0.89203 1.1256 0)
(-0.894133 1.40116 0)
(-0.666078 1.76629 0)
(-0.387469 2.06751 0)
(1.26382 -0.196574 0)
(1.41237 -0.194435 0)
(1.58011 -0.343392 0)
(1.62236 -0.632998 0)
(1.52155 -0.749562 0)
(1.30197 -0.816184 0)
(1.17147 -0.559094 0)
(0.00685579 -0.0693442 0)
(-0.507713 0.362905 0)
(-0.684789 0.56894 0)
(-0.720353 0.704066 0)
(-0.709255 0.757928 0)
(-0.716973 0.802034 0)
(-0.724458 0.8806 0)
(-0.729717 0.977198 0)
(-0.715102 1.12066 0)
(-0.658983 1.31232 0)
(-0.458749 1.55573 0)
(-0.231992 1.69335 0)
(1.24392 -0.219412 0)
(1.46761 -0.230155 0)
(1.51166 -0.292264 0)
(1.43351 -0.570359 0)
(1.15523 -0.633738 0)
(0.902528 -0.100992 0)
(-0.445421 0.032316 0)
(-0.473121 0.369766 0)
(-0.693012 0.486918 0)
(-0.709056 0.607186 0)
(-0.709177 0.698685 0)
(-0.68698 0.744324 0)
(-0.678561 0.801631 0)
(-0.648656 0.867552 0)
(-0.626117 0.959943 0)
(-0.580762 1.07578 0)
(-0.502823 1.2148 0)
(-0.331505 1.37064 0)
(-0.149171 1.43735 0)
(1.30133 -0.0208347 0)
(1.32835 -0.224893 0)
(1.14654 -0.471785 0)
(0.868835 -0.0178161 0)
(0.00321843 0.180202 0)
(-0.404953 -0.0251302 0)
(-0.573663 0.336739 0)
(-0.635687 0.412666 0)
(-0.6951 0.525728 0)
(-0.69446 0.606931 0)
(-0.66296 0.663582 0)
(-0.633284 0.715231 0)
(-0.6092 0.774063 0)
(-0.575901 0.839815 0)
(-0.538065 0.922355 0)
(-0.4792 1.01552 0)
(-0.395467 1.11642 0)
(-0.252372 1.21818 0)
(-0.104246 1.25261 0)
(1.04812 -0.351659 0)
(0.751577 -0.179804 0)
(0.611793 0.647936 0)
(-0.611249 -0.161996 0)
(-0.175882 0.110515 0)
(-0.573497 0.248959 0)
(-0.626102 0.385898 0)
(-0.653031 0.448084 0)
(-0.671459 0.52838 0)
(-0.639717 0.578242 0)
(-0.610052 0.633086 0)
(-0.580318 0.687883 0)
(-0.548606 0.744217 0)
(-0.51124 0.805545 0)
(-0.465223 0.875993 0)
(-0.402055 0.950377 0)
(-0.319901 1.02466 0)
(-0.201145 1.09314 0)
(-0.0773347 1.11078 0)
(0.523831 0.669177 0)
(-0.534502 0.105683 0)
(-0.277051 -0.128214 0)
(-0.426757 0.30652 0)
(-0.50813 0.228999 0)
(-0.617287 0.333813 0)
(-0.624831 0.398588 0)
(-0.634215 0.456065 0)
(-0.613041 0.505397 0)
(-0.58658 0.5538 0)
(-0.560719 0.606334 0)
(-0.52999 0.658565 0)
(-0.495315 0.711288 0)
(-0.454968 0.76667 0)
(-0.405503 0.826108 0)
(-0.342695 0.885673 0)
(-0.26524 0.941717 0)
(-0.166178 0.989215 0)
(-0.0593635 0.997762 0)
(-0.422974 -0.289242 0)
(-0.29968 0.122187 0)
(-0.483959 0.272506 0)
(-0.540833 0.274589 0)
(-0.569352 0.285085 0)
(-0.607325 0.352495 0)
(-0.600187 0.395963 0)
(-0.583456 0.441454 0)
(-0.564032 0.484672 0)
(-0.540736 0.532465 0)
(-0.514817 0.580075 0)
(-0.483612 0.628274 0)
(-0.44783 0.676421 0)
(-0.406148 0.725711 0)
(-0.356333 0.775829 0)
(-0.296126 0.824096 0)
(-0.224606 0.86745 0)
(-0.140459 0.901259 0)
(-0.0478919 0.903681 0)
(-0.406037 0.18627 0)
(-0.529627 0.175659 0)
(-0.546038 0.245789 0)
(-0.566752 0.274434 0)
(-0.559854 0.310302 0)
(-0.574351 0.341727 0)
(-0.551092 0.386351 0)
(-0.540787 0.422727 0)
(-0.52121 0.467614 0)
(-0.499066 0.510151 0)
(-0.472626 0.554082 0)
(-0.441482 0.59785 0)
(-0.405619 0.641333 0)
(-0.364046 0.68469 0)
(-0.315532 0.727091 0)
(-0.258851 0.766713 0)
(-0.193604 0.800965 0)
(-0.119988 0.826055 0)
(-0.0404087 0.824998 0)
(-0.49089 0.151433 0)
(-0.548394 0.215749 0)
(-0.544233 0.257884 0)
(-0.557053 0.273243 0)
(-0.529002 0.301579 0)
(-0.539447 0.334383 0)
(-0.510105 0.373405 0)
(-0.505741 0.408004 0)
(-0.481878 0.449424 0)
(-0.461313 0.487926 0)
(-0.434195 0.528188 0)
(-0.403555 0.567672 0)
(-0.368221 0.606672 0)
(-0.327749 0.644699 0)
(-0.281387 0.680819 0)
(-0.228583 0.713742 0)
(-0.169308 0.7413 0)
(-0.104263 0.760552 0)
(-0.0350924 0.756345 0)
(-0.539133 0.210034 0)
(-0.54754 0.227862 0)
(-0.527353 0.249809 0)
(-0.527197 0.271909 0)
(-0.497711 0.290878 0)
(-0.508519 0.326755 0)
(-0.476087 0.359044 0)
(-0.472422 0.393759 0)
(-0.44667 0.430193 0)
(-0.426744 0.465994 0)
(-0.39946 0.502483 0)
(-0.369555 0.538125 0)
(-0.335147 0.572957 0)
(-0.296306 0.606339 0)
(-0.252502 0.637386 0)
(-0.203567 0.665048 0)
(-0.149705 0.687704 0)
(-0.0915496 0.70301 0)
(-0.030658 0.697506 0)
(-0.543606 0.197953 0)
(-0.525634 0.21436 0)
(-0.499242 0.23418 0)
(-0.505612 0.261145 0)
(-0.471259 0.280062 0)
(-0.479429 0.318024 0)
(-0.446696 0.344087 0)
(-0.440727 0.378738 0)
(-0.415128 0.410865 0)
(-0.394997 0.444229 0)
(-0.368118 0.477216 0)
(-0.339057 0.509454 0)
(-0.305892 0.540566 0)
(-0.268931 0.56994 0)
(-0.22783 0.596856 0)
(-0.182615 0.620348 0)
(-0.133615 0.639282 0)
(-0.0814986 0.651698 0)
(-0.0272048 0.644657 0)
(-0.527733 0.177202 0)
(-0.489615 0.190981 0)
(-0.485778 0.222393 0)
(-0.47793 0.251993 0)
(-0.445669 0.26839 0)
(-0.4514 0.305894 0)
(-0.419423 0.329364 0)
(-0.411387 0.362632 0)
(-0.386324 0.391762 0)
(-0.365989 0.422665 0)
(-0.339772 0.452602 0)
(-0.311654 0.481804 0)
(-0.279931 0.509673 0)
(-0.244957 0.535656 0)
(-0.206542 0.559168 0)
(-0.164814 0.579391 0)
(-0.120078 0.595496 0)
(-0.0730086 0.6058 0)
(-0.0243518 0.598084 0)
)
;

boundaryField
{
    leftWall
    {
        type            fixedValue;
        value           nonuniform 0();
    }
    rightWall
    {
        type            fixedValue;
        value           uniform (0 0 0);
    }
    lowerWall
    {
        type            fixedValue;
        value           uniform (0 0 0);
    }
    atmosphere
    {
        type            fluxCorrectedVelocity;
        value           nonuniform 0();
    }
    defaultFaces
    {
        type            empty;
    }
    procBoundary1to0
    {
        type            processor;
        value           nonuniform List<vector> 
26
(
(0.570165 0.119881 0)
(0.602821 0.198733 0)
(0.64883 0.411568 0)
(0.668443 0.509395 0)
(0.590886 0.652955 0)
(0.403984 0.763083 0)
(0.258379 0.738797 0)
(0.246669 0.800397 0)
(0.623498 1.07209 0)
(0.833132 1.07156 0)
(0.812968 0.838456 0)
(0.81722 0.5762 0)
(0.800822 0.371855 0)
(0.785938 0.208916 0)
(0.746458 0.0758147 0)
(0.690546 -0.0383817 0)
(0.779187 -0.161694 0)
(0.779187 -0.161694 0)
(0.802157 -0.0582544 0)
(0.814559 0.0738945 0)
(0.505337 -0.405413 0)
(-0.136248 0.375828 0)
(-0.438781 -0.397223 0)
(-0.446309 0.110358 0)
(-0.575476 0.112687 0)
(-0.572127 0.119629 0)
)
;
    }
    procBoundary1to3
    {
        type            processor;
        value           nonuniform List<vector> 
23
(
(-0.545408 0.127519 0)
(-0.536874 0.137605 0)
(-0.521056 0.137081 0)
(-0.510502 0.138163 0)
(-0.489577 0.150572 0)
(-0.473842 0.172563 0)
(-0.466575 0.215737 0)
(-0.446103 0.240101 0)
(-0.427125 0.252039 0)
(-0.42031 0.295625 0)
(-0.39576 0.312831 0)
(-0.383201 0.346446 0)
(-0.360097 0.372682 0)
(-0.339334 0.401468 0)
(-0.31407 0.428751 0)
(-0.286955 0.455282 0)
(-0.256775 0.480341 0)
(-0.223813 0.503478 0)
(-0.187977 0.52417 0)
(-0.149439 0.541777 0)
(-0.108509 0.555656 0)
(-0.0656767 0.564341 0)
(-0.0217639 0.556358 0)
)
;
    }
}


// ************************************************************************* //
