/*--------------------------------*- C++ -*----------------------------------*\
| =========                 |                                                 |
| \\      /  F ield         | OpenFOAM: The Open Source CFD Toolbox           |
|  \\    /   O peration     | Version:  2.4.0                                 |
|   \\  /    A nd           | Web:      www.OpenFOAM.org                      |
|    \\/     M anipulation  |                                                 |
\*---------------------------------------------------------------------------*/
FoamFile
{
    version     2.0;
    format      ascii;
    class       volVectorField;
    location    "0.2";
    object      U.mercury;
}
// * * * * * * * * * * * * * * * * * * * * * * * * * * * * * * * * * * * * * //

dimensions      [0 1 -1 0 0 0 0];

internalField   nonuniform List<vector> 
559
(
(0.255915 0.0312169 0)
(0.304621 0.300694 0)
(0.33953 0.484033 0)
(0.372306 0.710751 0)
(0.398595 0.862635 0)
(0.359611 1.10916 0)
(0.378735 1.26794 0)
(0.370524 1.38882 0)
(-1.47185 -0.748906 0)
(-1.37368 -0.533403 0)
(-1.59176 -0.154902 0)
(-1.8241 -0.0324007 0)
(-1.87664 -0.151957 0)
(-1.22011 -0.339668 0)
(-0.420675 -0.303234 0)
(0.163781 -0.22232 0)
(0.672654 -0.203033 0)
(1.04154 -0.177588 0)
(1.33333 -0.149129 0)
(1.58203 -0.139656 0)
(1.82216 -0.150326 0)
(2.0914 -0.155185 0)
(2.31762 -0.186867 0)
(2.48562 -0.164372 0)
(2.4202 -0.11797 0)
(1.90887 0.0385375 0)
(1.57128 0.0939013 0)
(-1.17083 -0.127236 0)
(-0.973387 0.0280653 0)
(-0.970889 -0.0391371 0)
(-1.01278 0.0798024 0)
(-1.08231 0.0778601 0)
(-0.614543 -0.346676 0)
(-0.125528 -0.392212 0)
(0.427954 -0.287807 0)
(0.845295 -0.190279 0)
(1.15493 -0.124745 0)
(1.439 -0.0963039 0)
(1.70719 -0.0981357 0)
(1.94896 -0.111462 0)
(2.14463 -0.103776 0)
(2.28812 -0.0757433 0)
(2.36959 -0.0086086 0)
(2.37242 0.183284 0)
(1.93066 0.53018 0)
(1.6142 1.02867 0)
(-0.733396 0.790875 0)
(-1.18283 -0.0153701 0)
(-0.985365 -0.291633 0)
(-0.457591 -0.493671 0)
(-0.5447 -0.382927 0)
(-0.0839779 -0.709272 0)
(0.256126 -0.705446 0)
(0.615299 -0.592777 0)
(1.00112 -0.462284 0)
(1.31362 -0.371716 0)
(1.58334 -0.322655 0)
(1.82367 -0.309112 0)
(2.05167 -0.281815 0)
(2.23152 -0.22404 0)
(2.33397 -0.145333 0)
(2.37222 -0.0263973 0)
(2.40929 0.129039 0)
(2.01128 0.452538 0)
(1.67035 1.51841 0)
(-0.730636 1.21489 0)
(-1.65933 0.716103 0)
(-2.2612 -0.228433 0)
(-0.354938 -0.586816 0)
(0.227655 -0.831971 0)
(0.405911 -0.945077 0)
(0.530267 -0.783219 0)
(0.858041 -0.647622 0)
(1.17759 -0.51452 0)
(1.45273 -0.418855 0)
(1.68242 -0.36556 0)
(1.89925 -0.347388 0)
(2.09611 -0.313893 0)
(2.23529 -0.244287 0)
(2.32147 -0.115089 0)
(2.34616 -0.0466744 0)
(2.39783 -0.00136866 0)
(2.21589 0.295152 0)
(1.83298 2.09319 0)
(-0.540531 1.73096 0)
(-0.792926 1.19407 0)
(-0.334476 0.0781419 0)
(0.0935454 -0.615329 0)
(0.755204 -0.984244 0)
(0.658899 -1.08301 0)
(0.767379 -0.967635 0)
(1.03646 -0.829324 0)
(1.28088 -0.677819 0)
(1.50919 -0.564637 0)
(1.72676 -0.502614 0)
(1.93508 -0.455881 0)
(2.10271 -0.378571 0)
(2.21267 -0.2587 0)
(2.23524 -0.237844 0)
(2.27347 -0.283574 0)
(2.50484 -0.392443 0)
(2.37121 0.397702 0)
(2.4902 2.39504 0)
(-0.333955 1.96362 0)
(0.226329 1.13677 0)
(0.375685 -0.0636076 0)
(0.917845 -0.667133 0)
(1.00006 -1.16083 0)
(0.934241 -1.11871 0)
(1.01491 -1.01594 0)
(1.21469 -0.864315 0)
(1.39021 -0.718945 0)
(1.59548 -0.607305 0)
(1.7926 -0.547514 0)
(1.95596 -0.498484 0)
(2.09111 -0.398771 0)
(2.12319 -0.381386 0)
(2.15661 -0.445818 0)
(2.32617 -0.598787 0)
(2.61917 -0.0113466 0)
(0.827152 1.293 0)
(4.03485 2.96494 0)
(-0.217636 1.88186 0)
(0.805973 0.850868 0)
(1.00969 -0.384205 0)
(1.13492 -0.679216 0)
(1.22245 -1.12044 0)
(1.1322 -1.19568 0)
(1.18215 -1.12494 0)
(1.30871 -0.984372 0)
(1.42965 -0.822249 0)
(1.60892 -0.715244 0)
(1.78136 -0.636531 0)
(1.92242 -0.567061 0)
(1.98897 -0.542103 0)
(2.02167 -0.608552 0)
(2.15092 -0.759038 0)
(2.33746 -0.276086 0)
(2.44853 0.502702 0)
(0.0651174 1.39147 0)
(6.40212 4.44368 0)
(0.290334 1.55881 0)
(1.15274 1.13297 0)
(1.1932 -0.472332 0)
(1.33034 -0.687506 0)
(1.37965 -1.15917 0)
(1.29947 -1.21369 0)
(1.32827 -1.14481 0)
(1.40552 -1.00297 0)
(1.48932 -0.852828 0)
(1.64059 -0.763365 0)
(1.80373 -0.677872 0)
(1.86784 -0.666896 0)
(1.90132 -0.729089 0)
(2.01008 -0.888263 0)
(2.44615 -0.596774 0)
(2.18648 -0.0185382 0)
(2.3673 0.774479 0)
(0.0477447 1.6032 0)
(5.55726 5.57436 0)
(0.530393 1.46062 0)
(0.765025 1.35169 0)
(0.908065 1.28108 0)
(1.01242 1.27205 0)
(1.05988 1.18377 0)
(0.988925 0.386799 0)
(0.878437 0.0541876 0)
(0.823495 -0.0842733 0)
(0.616475 1.39404 0)
(0.490569 1.3457 0)
(0.296626 1.2496 0)
(0.424741 1.27711 0)
(0.768181 1.31009 0)
(0.814384 1.2532 0)
(0.843069 1.17952 0)
(0.888534 1.13984 0)
(0.951461 1.24435 0)
(1.02364 1.18765 0)
(1.11682 1.10783 0)
(1.21455 1.01325 0)
(1.0412 1.24232 0)
(1.09677 1.19873 0)
(1.1989 1.10266 0)
(1.29898 0.995917 0)
(1.10207 1.2365 0)
(1.15509 1.22789 0)
(1.22802 1.15099 0)
(1.31056 1.03492 0)
(1.09347 0.680207 0)
(1.16782 0.959259 0)
(1.24937 1.05646 0)
(1.30462 1.01173 0)
(0.978085 -0.00741972 0)
(1.05628 -0.0340029 0)
(1.13299 0.0517744 0)
(1.22114 0.261093 0)
(0.914154 -0.159934 0)
(0.958593 -0.183032 0)
(1.00619 -0.219817 0)
(1.05403 -0.258708 0)
(0.822525 -0.248171 0)
(0.871889 -0.262861 0)
(0.925673 -0.321099 0)
(0.968804 -0.366801 0)
(0.760012 -0.339617 0)
(0.823565 -0.408733 0)
(0.855149 -0.49639 0)
(0.879787 -0.59937 0)
(0.692273 -0.600381 0)
(0.649769 -0.728441 0)
(0.591444 -0.921098 0)
(0.589305 -0.954677 0)
(0.481021 -0.793756 0)
(0.437793 -0.409345 0)
(0.0614649 0.368204 0)
(-0.527256 0.0340388 0)
(-0.576878 -0.030548 0)
(-0.465557 -0.00848607 0)
(-0.281232 0.310136 0)
(-0.289997 0.241194 0)
(-0.382118 0.0491127 0)
(-0.48326 0.116826 0)
(-0.465782 0.186193 0)
(-0.449261 0.187081 0)
(-0.54175 0.13605 0)
(-0.534481 0.151761 0)
(-0.541687 0.183091 0)
(-0.538187 0.197726 0)
(-0.567489 0.1521 0)
(-0.56304 0.158644 0)
(-0.560476 0.169484 0)
(-0.554414 0.182023 0)
(-0.556968 0.141678 0)
(-0.558415 0.152539 0)
(-0.555558 0.161908 0)
(-0.548342 0.166221 0)
(0.324272 1.21639 0)
(0.897118 0.662744 0)
(1.25074 0.340714 0)
(1.46038 -0.452637 0)
(1.5457 -1.02206 0)
(1.49761 -1.2234 0)
(1.46931 -1.18074 0)
(1.46643 -1.06055 0)
(1.53134 -0.948241 0)
(1.65655 -0.860632 0)
(1.74236 -0.859713 0)
(1.75645 -0.891491 0)
(1.7784 -1.03495 0)
(1.88678 -0.772399 0)
(1.36694 -0.151751 0)
(0.717045 0.513485 0)
(1.38192 1.25844 0)
(-0.676507 2.08991 0)
(2.22411 5.80368 0)
(0.890002 1.14624 0)
(1.03572 1.08133 0)
(1.27311 0.845712 0)
(1.57711 -0.0126631 0)
(1.71076 -0.941958 0)
(1.63328 -1.1845 0)
(1.56029 -1.1633 0)
(1.51489 -1.06911 0)
(1.56646 -1.00347 0)
(1.58887 -1.01179 0)
(1.58196 -1.02848 0)
(1.61414 -1.04935 0)
(1.38898 -0.587291 0)
(0.419168 0.128304 0)
(0.109878 0.296836 0)
(-0.292605 0.526573 0)
(0.0651296 1.43022 0)
(-1.03531 2.38234 0)
(0.552294 5.63702 0)
(1.31712 0.968899 0)
(1.3597 0.941454 0)
(1.46791 0.805187 0)
(1.71119 0.114787 0)
(1.76088 -0.854048 0)
(1.66413 -1.0563 0)
(1.57301 -1.08705 0)
(1.51031 -1.06207 0)
(1.4881 -1.07222 0)
(1.48251 -1.11098 0)
(1.5135 -1.08304 0)
(0.960068 -0.480597 0)
(0.0162717 0.335317 0)
(-0.274641 0.450753 0)
(-0.538508 0.513949 0)
(-0.830458 0.732684 0)
(-0.861982 1.3991 0)
(-1.23761 2.31161 0)
(-0.269949 4.72802 0)
(1.41932 0.946243 0)
(1.58244 0.942826 0)
(1.75163 0.842118 0)
(1.83621 0.407188 0)
(1.73404 -0.490258 0)
(1.63202 -0.870185 0)
(1.5036 -1.03877 0)
(1.42581 -1.08962 0)
(1.43003 -1.13154 0)
(1.38987 -1.1029 0)
(0.647445 -0.42055 0)
(-0.228519 0.505197 0)
(-0.481455 0.62001 0)
(-0.64398 0.630884 0)
(-0.831354 0.7118 0)
(-1.05084 0.925357 0)
(-1.16734 1.40186 0)
(-1.24245 2.18426 0)
(-0.684983 3.54771 0)
(1.44013 1.00883 0)
(1.62757 1.0115 0)
(1.82953 0.934571 0)
(1.92832 0.673611 0)
(1.84917 -0.0194065 0)
(1.69337 -0.68065 0)
(1.46653 -0.991468 0)
(1.3764 -1.06807 0)
(1.27395 -1.00865 0)
(0.578947 -0.399333 0)
(-0.383449 0.539795 0)
(-0.563514 0.704 0)
(-0.682489 0.731473 0)
(-0.774886 0.762463 0)
(-0.90857 0.865514 0)
(-1.04651 1.06582 0)
(-1.12973 1.43484 0)
(-0.980242 1.99104 0)
(-0.60819 2.64549 0)
(1.45553 1.04182 0)
(1.67475 1.05074 0)
(1.85442 0.96054 0)
(1.93173 0.739673 0)
(1.89731 0.191913 0)
(1.61258 -0.59406 0)
(1.23807 -1.04246 0)
(1.00749 -1.15305 0)
(0.117429 -0.285834 0)
(-0.50497 0.507955 0)
(-0.676393 0.699249 0)
(-0.698689 0.758358 0)
(-0.725976 0.782857 0)
(-0.77638 0.84805 0)
(-0.845172 0.951885 0)
(-0.892082 1.12557 0)
(-0.89418 1.40118 0)
(-0.666109 1.76634 0)
(-0.387509 2.06756 0)
(1.38571 0.805719 0)
(1.67812 0.960889 0)
(1.85734 0.878895 0)
(1.90139 0.610423 0)
(1.80608 0.00533038 0)
(1.41006 -0.71581 0)
(0.906343 -0.802571 0)
(0.0223019 -0.0865113 0)
(-0.507632 0.36285 0)
(-0.684738 0.568925 0)
(-0.72031 0.704031 0)
(-0.709225 0.757876 0)
(-0.716959 0.801974 0)
(-0.72446 0.880542 0)
(-0.729733 0.977152 0)
(-0.715127 1.12063 0)
(-0.659007 1.31233 0)
(-0.458757 1.55574 0)
(-0.231986 1.69337 0)
(1.1645 -0.21298 0)
(1.42835 0.188202 0)
(1.67698 0.307831 0)
(1.6928 0.0817588 0)
(1.46615 -0.439093 0)
(0.815853 -0.635187 0)
(-0.444726 0.030808 0)
(-0.473084 0.369764 0)
(-0.692975 0.486911 0)
(-0.709022 0.60717 0)
(-0.709147 0.698658 0)
(-0.686958 0.744286 0)
(-0.678548 0.801589 0)
(-0.648653 0.867511 0)
(-0.626122 0.95991 0)
(-0.580773 1.07576 0)
(-0.502832 1.21479 0)
(-0.33151 1.37064 0)
(-0.149166 1.43735 0)
(1.06434 -0.464146 0)
(1.09316 -0.638014 0)
(1.04721 -0.758791 0)
(0.65193 -0.850244 0)
(0.0288162 0.0210826 0)
(-0.404927 -0.0263763 0)
(-0.573636 0.336746 0)
(-0.635659 0.412668 0)
(-0.695073 0.525723 0)
(-0.694435 0.606918 0)
(-0.662938 0.663561 0)
(-0.633266 0.715204 0)
(-0.609187 0.774033 0)
(-0.575894 0.839785 0)
(-0.538064 0.92233 0)
(-0.479202 1.0155 0)
(-0.395471 1.11641 0)
(-0.252375 1.21818 0)
(-0.104245 1.25261 0)
(0.876062 -0.774054 0)
(0.5868 -0.932848 0)
(0.50742 -0.061802 0)
(-0.611192 -0.16323 0)
(-0.175868 0.110454 0)
(-0.573479 0.248975 0)
(-0.626081 0.385907 0)
(-0.653011 0.448087 0)
(-0.671439 0.528377 0)
(-0.639698 0.578232 0)
(-0.610034 0.633071 0)
(-0.580303 0.687863 0)
(-0.548595 0.744195 0)
(-0.511233 0.805522 0)
(-0.465219 0.875973 0)
(-0.402054 0.95036 0)
(-0.319901 1.02465 0)
(-0.201146 1.09313 0)
(-0.0773347 1.11078 0)
(0.501718 -0.502938 0)
(-0.507584 0.0653473 0)
(-0.277046 -0.1282 0)
(-0.426751 0.306541 0)
(-0.508119 0.229017 0)
(-0.617274 0.333826 0)
(-0.624816 0.398596 0)
(-0.634199 0.456068 0)
(-0.613025 0.505395 0)
(-0.586565 0.553793 0)
(-0.560705 0.606323 0)
(-0.529978 0.658551 0)
(-0.495305 0.711272 0)
(-0.454961 0.766653 0)
(-0.405498 0.826091 0)
(-0.342692 0.885657 0)
(-0.265238 0.941703 0)
(-0.166178 0.989202 0)
(-0.0593636 0.997751 0)
(-0.422083 -0.290194 0)
(-0.299682 0.122203 0)
(-0.483957 0.272523 0)
(-0.540829 0.274605 0)
(-0.569345 0.285098 0)
(-0.607315 0.352506 0)
(-0.600176 0.395969 0)
(-0.583444 0.441457 0)
(-0.56402 0.484671 0)
(-0.540724 0.53246 0)
(-0.514806 0.580067 0)
(-0.483602 0.628264 0)
(-0.447821 0.676409 0)
(-0.406141 0.725698 0)
(-0.356327 0.775815 0)
(-0.296122 0.824082 0)
(-0.224604 0.867437 0)
(-0.140458 0.901246 0)
(-0.0478915 0.903669 0)
(-0.406036 0.186278 0)
(-0.529627 0.17567 0)
(-0.546036 0.245801 0)
(-0.566749 0.274446 0)
(-0.559848 0.310312 0)
(-0.574344 0.341735 0)
(-0.551084 0.386357 0)
(-0.540778 0.42273 0)
(-0.521201 0.467613 0)
(-0.499057 0.510148 0)
(-0.472618 0.554076 0)
(-0.441474 0.597842 0)
(-0.405612 0.641323 0)
(-0.36404 0.684679 0)
(-0.315527 0.727079 0)
(-0.258848 0.766701 0)
(-0.193601 0.800953 0)
(-0.119987 0.826043 0)
(-0.0404083 0.824986 0)
(-0.490889 0.151439 0)
(-0.548393 0.215756 0)
(-0.544232 0.257892 0)
(-0.55705 0.273251 0)
(-0.528998 0.301586 0)
(-0.539442 0.334389 0)
(-0.510099 0.373409 0)
(-0.505734 0.408006 0)
(-0.481871 0.449423 0)
(-0.461306 0.487923 0)
(-0.434188 0.528184 0)
(-0.403548 0.567666 0)
(-0.368216 0.606665 0)
(-0.327745 0.644691 0)
(-0.281384 0.680809 0)
(-0.22858 0.713732 0)
(-0.169306 0.741289 0)
(-0.104262 0.760541 0)
(-0.0350921 0.756334 0)
(-0.539131 0.210038 0)
(-0.547539 0.227867 0)
(-0.527351 0.249814 0)
(-0.527195 0.271914 0)
(-0.497708 0.290883 0)
(-0.508515 0.326759 0)
(-0.476082 0.359046 0)
(-0.472417 0.393761 0)
(-0.446664 0.430193 0)
(-0.426739 0.465992 0)
(-0.399455 0.502479 0)
(-0.36955 0.53812 0)
(-0.335142 0.572951 0)
(-0.296302 0.606332 0)
(-0.252499 0.637378 0)
(-0.203565 0.665039 0)
(-0.149703 0.687695 0)
(-0.0915486 0.703001 0)
(-0.0306576 0.697497 0)
(-0.543603 0.197956 0)
(-0.525632 0.214363 0)
(-0.49924 0.234184 0)
(-0.505609 0.261149 0)
(-0.471257 0.280066 0)
(-0.479426 0.318026 0)
(-0.446692 0.344089 0)
(-0.440723 0.378739 0)
(-0.415124 0.410864 0)
(-0.394993 0.444227 0)
(-0.368114 0.477213 0)
(-0.339054 0.50945 0)
(-0.305888 0.540562 0)
(-0.268928 0.569934 0)
(-0.227828 0.59685 0)
(-0.182613 0.620341 0)
(-0.133613 0.639275 0)
(-0.0814977 0.65169 0)
(-0.0272045 0.644649 0)
(-0.52773 0.177204 0)
(-0.489612 0.190983 0)
(-0.485776 0.222395 0)
(-0.477928 0.251995 0)
(-0.445666 0.268393 0)
(-0.451398 0.305896 0)
(-0.41942 0.329366 0)
(-0.411384 0.362633 0)
(-0.38632 0.391762 0)
(-0.365985 0.422664 0)
(-0.339769 0.4526 0)
(-0.311651 0.481801 0)
(-0.279929 0.509669 0)
(-0.244955 0.535652 0)
(-0.20654 0.559163 0)
(-0.164812 0.579386 0)
(-0.120077 0.595489 0)
(-0.0730079 0.605794 0)
(-0.0243514 0.598078 0)
)
;

boundaryField
{
    leftWall
    {
        type            fixedValue;
        value           nonuniform 0();
    }
    rightWall
    {
        type            fixedValue;
        value           uniform (0 0 0);
    }
    lowerWall
    {
        type            fixedValue;
        value           uniform (0 0 0);
    }
    atmosphere
    {
        type            fluxCorrectedVelocity;
        value           nonuniform 0();
    }
    defaultFaces
    {
        type            empty;
    }
    procBoundary1to0
    {
        type            processor;
        value           nonuniform List<vector> 
26
(
(0.570586 0.11964 0)
(0.603328 0.198305 0)
(0.649389 0.410944 0)
(0.669525 0.507781 0)
(0.598602 0.641754 0)
(0.42457 0.73503 0)
(0.289362 0.684185 0)
(0.281918 0.674402 0)
(0.453489 0.980133 0)
(0.71336 1.17174 0)
(0.781764 1.15132 0)
(0.769887 1.03783 0)
(0.786181 0.670857 0)
(0.787145 0.216233 0)
(0.746445 0.0754022 0)
(0.690476 -0.0386547 0)
(0.778907 -0.198579 0)
(0.778907 -0.198579 0)
(0.712227 -0.271633 0)
(0.639086 -0.443313 0)
(0.383639 -0.881973 0)
(-0.0786158 0.0648568 0)
(-0.438777 -0.397221 0)
(-0.446301 0.110358 0)
(-0.575467 0.112687 0)
(-0.572118 0.119629 0)
)
;
    }
    procBoundary1to3
    {
        type            processor;
        value           nonuniform List<vector> 
23
(
(-0.5454 0.127519 0)
(-0.536867 0.137604 0)
(-0.52105 0.13708 0)
(-0.510498 0.138163 0)
(-0.489573 0.150573 0)
(-0.473839 0.172564 0)
(-0.466572 0.215738 0)
(-0.4461 0.240103 0)
(-0.427123 0.25204 0)
(-0.420307 0.295626 0)
(-0.395758 0.312832 0)
(-0.383199 0.346447 0)
(-0.360095 0.372682 0)
(-0.339331 0.401468 0)
(-0.314067 0.42875 0)
(-0.286953 0.45528 0)
(-0.256773 0.480338 0)
(-0.223811 0.503475 0)
(-0.187976 0.524167 0)
(-0.149438 0.541773 0)
(-0.108509 0.555651 0)
(-0.0656762 0.564336 0)
(-0.0217637 0.556354 0)
)
;
    }
}


// ************************************************************************* //
