/*--------------------------------*- C++ -*----------------------------------*\
| =========                 |                                                 |
| \\      /  F ield         | OpenFOAM: The Open Source CFD Toolbox           |
|  \\    /   O peration     | Version:  2.4.0                                 |
|   \\  /    A nd           | Web:      www.OpenFOAM.org                      |
|    \\/     M anipulation  |                                                 |
\*---------------------------------------------------------------------------*/
FoamFile
{
    version     2.0;
    format      ascii;
    class       volVectorField;
    location    "0.2";
    object      U.oil;
}
// * * * * * * * * * * * * * * * * * * * * * * * * * * * * * * * * * * * * * //

dimensions      [0 1 -1 0 0 0 0];

internalField   nonuniform List<vector> 
559
(
(0.108978 0.19799 0)
(0.173411 0.505928 0)
(0.208304 0.709972 0)
(0.251252 0.9819 0)
(0.280708 1.17787 0)
(0.246745 1.43924 0)
(0.292572 1.55607 0)
(0.335263 1.62933 0)
(-1.47937 -0.806926 0)
(-1.37166 -0.536685 0)
(-1.59153 -0.1553 0)
(-1.82407 -0.0324232 0)
(-1.87658 -0.151956 0)
(-1.22004 -0.339675 0)
(-0.420651 -0.303261 0)
(0.163746 -0.222356 0)
(0.672578 -0.203097 0)
(1.04129 -0.177804 0)
(1.33296 -0.149413 0)
(1.58181 -0.139836 0)
(1.82204 -0.150456 0)
(2.09122 -0.155485 0)
(2.31728 -0.189862 0)
(2.49046 -0.169903 0)
(2.43032 -0.121972 0)
(1.91395 0.0375236 0)
(1.57216 0.0934125 0)
(-1.53338 -0.913088 0)
(-1.00746 -0.28282 0)
(-0.960088 -0.0654427 0)
(-1.01041 0.0771991 0)
(-1.08235 0.0779062 0)
(-0.614824 -0.346555 0)
(-0.125703 -0.392108 0)
(0.427894 -0.287756 0)
(0.845258 -0.190262 0)
(1.1549 -0.124735 0)
(1.43898 -0.0962967 0)
(1.70718 -0.0981281 0)
(1.94896 -0.111458 0)
(2.14461 -0.103818 0)
(2.28811 -0.0757493 0)
(2.36959 -0.00861824 0)
(2.37267 0.182956 0)
(1.9318 0.529408 0)
(1.61484 1.02757 0)
(-1.50622 -0.761901 0)
(-0.646953 -0.550673 0)
(-0.134655 -0.80225 0)
(-0.370494 -0.547962 0)
(-0.536176 -0.386834 0)
(-0.0846353 -0.709091 0)
(0.255834 -0.705273 0)
(0.615218 -0.592684 0)
(1.0011 -0.462249 0)
(1.3136 -0.371698 0)
(1.58333 -0.322642 0)
(1.82367 -0.3091 0)
(2.05167 -0.281802 0)
(2.23152 -0.224033 0)
(2.33396 -0.145309 0)
(2.37221 -0.0263758 0)
(2.40935 0.128855 0)
(2.01262 0.448946 0)
(1.67064 1.51702 0)
(-1.21569 0.0890961 0)
(-0.43875 -0.059208 0)
(0.473415 -0.775259 0)
(0.468893 -0.824365 0)
(0.270744 -0.847214 0)
(0.405138 -0.944745 0)
(0.529882 -0.782895 0)
(0.857965 -0.647482 0)
(1.17757 -0.51446 0)
(1.45272 -0.418824 0)
(1.6824 -0.365539 0)
(1.89925 -0.347374 0)
(2.09611 -0.313882 0)
(2.23529 -0.24427 0)
(2.32147 -0.115051 0)
(2.34614 -0.0467916 0)
(2.39713 -0.00989593 0)
(2.25887 0.239834 0)
(1.83631 2.08816 0)
(-0.910262 0.80454 0)
(-0.248287 0.306501 0)
(0.609463 -0.489478 0)
(0.849868 -0.589448 0)
(0.768247 -0.985431 0)
(0.65738 -1.08223 0)
(0.76688 -0.967159 0)
(1.03639 -0.82918 0)
(1.28086 -0.677754 0)
(1.50918 -0.56461 0)
(1.72676 -0.502595 0)
(1.93508 -0.455866 0)
(2.10271 -0.378555 0)
(2.21267 -0.25869 0)
(2.2351 -0.238246 0)
(2.26988 -0.295239 0)
(2.48581 -0.47738 0)
(2.92686 -0.26301 0)
(2.49763 2.37056 0)
(-0.80556 1.26612 0)
(-0.039098 0.649995 0)
(1.12772 -0.536804 0)
(0.992667 -0.65621 0)
(0.992343 -1.15767 0)
(0.926688 -1.11387 0)
(1.01419 -1.01476 0)
(1.21459 -0.864179 0)
(1.39018 -0.718915 0)
(1.59546 -0.607291 0)
(1.79259 -0.547504 0)
(1.95596 -0.498476 0)
(2.09111 -0.398766 0)
(2.12285 -0.382108 0)
(2.15012 -0.461151 0)
(2.29738 -0.716084 0)
(2.71191 -0.917876 0)
(3.43508 -0.594481 0)
(4.05102 2.89126 0)
(-0.65444 1.60552 0)
(0.284718 0.90414 0)
(1.2602 -0.479003 0)
(1.12378 -0.679572 0)
(1.17978 -1.11317 0)
(1.11153 -1.18781 0)
(1.18122 -1.12335 0)
(1.30861 -0.984291 0)
(1.42962 -0.822231 0)
(1.60891 -0.715237 0)
(1.78135 -0.636531 0)
(1.92242 -0.567064 0)
(1.98851 -0.542908 0)
(2.01263 -0.625651 0)
(2.07428 -0.892002 0)
(2.24708 -1.02503 0)
(2.48854 -0.588254 0)
(1.55059 0.439325 0)
(7.31258 4.44349 0)
(-0.250233 1.52456 0)
(0.835268 0.622028 0)
(1.22586 -0.464058 0)
(1.28539 -0.750427 0)
(1.30528 -1.2148 0)
(1.27028 -1.20492 0)
(1.3273 -1.14336 0)
(1.40542 -1.00289 0)
(1.48926 -0.852798 0)
(1.64057 -0.763369 0)
(1.80372 -0.67788 0)
(1.86766 -0.667251 0)
(1.89297 -0.742169 0)
(1.92587 -0.980885 0)
(2.03026 -1.09802 0)
(2.05166 -0.94107 0)
(2.32974 0.127702 0)
(0.76064 0.979053 0)
(11.9272 7.15381 0)
(0.830632 1.54347 0)
(1.07356 1.20945 0)
(1.23161 0.938588 0)
(1.10565 0.651798 0)
(1.03272 0.397749 0)
(0.963047 0.195194 0)
(0.878439 0.0552074 0)
(0.823501 -0.0842757 0)
(0.769817 1.17858 0)
(-0.0246851 1.0832 0)
(-0.393792 0.644131 0)
(-0.438373 0.122308 0)
(1.07209 1.02717 0)
(1.04566 0.974825 0)
(0.962492 0.828586 0)
(1.02039 0.572778 0)
(1.37716 0.948662 0)
(1.49123 0.894873 0)
(1.59271 0.775405 0)
(1.70732 0.532497 0)
(1.31376 0.574417 0)
(1.50376 0.541491 0)
(1.64476 0.444083 0)
(1.74991 0.262835 0)
(1.17042 0.308486 0)
(1.29455 0.281166 0)
(1.40345 0.168759 0)
(1.50537 0.0791642 0)
(1.06301 0.153919 0)
(1.15205 0.10711 0)
(1.23113 0.0497571 0)
(1.30973 -0.0302456 0)
(0.977636 -0.00749001 0)
(1.05145 -0.0624479 0)
(1.10966 -0.115503 0)
(1.17394 -0.178675 0)
(0.914159 -0.159931 0)
(0.958595 -0.182877 0)
(1.00619 -0.219043 0)
(1.05385 -0.257829 0)
(0.822525 -0.248178 0)
(0.871888 -0.262871 0)
(0.92567 -0.321111 0)
(0.968798 -0.366815 0)
(0.759999 -0.339647 0)
(0.823505 -0.408868 0)
(0.854841 -0.497083 0)
(0.878811 -0.601565 0)
(0.690977 -0.603657 0)
(0.647596 -0.734148 0)
(0.588345 -0.937815 0)
(0.586931 -1.03491 0)
(0.472211 -0.933314 0)
(0.461429 -1.01762 0)
(0.404788 -1.18149 0)
(-0.119019 -0.614909 0)
(-0.234466 -0.334769 0)
(0.0239876 -0.584526 0)
(-0.2219 0.0750309 0)
(-0.293909 0.237698 0)
(-0.385304 0.0455295 0)
(-0.471974 0.0960835 0)
(-0.463765 0.178648 0)
(-0.450879 0.184448 0)
(-0.541781 0.132896 0)
(-0.534601 0.149479 0)
(-0.541973 0.181129 0)
(-0.538541 0.196179 0)
(-0.5676 0.151077 0)
(-0.563269 0.15797 0)
(-0.560624 0.168827 0)
(-0.554533 0.181511 0)
(-0.557285 0.140777 0)
(-0.55851 0.152115 0)
(-0.555666 0.161548 0)
(-0.5484 0.166019 0)
(0.0358321 -0.0906621 0)
(0.593835 0.026909 0)
(1.24467 -0.379296 0)
(1.4643 -0.90567 0)
(1.49973 -1.19562 0)
(1.47754 -1.22649 0)
(1.4676 -1.17954 0)
(1.46604 -1.06018 0)
(1.53128 -0.948173 0)
(1.65653 -0.860653 0)
(1.74195 -0.86062 0)
(1.75038 -0.902805 0)
(1.74194 -1.10343 0)
(1.83362 -1.20216 0)
(1.75221 -1.10406 0)
(0.758611 0.183708 0)
(1.22095 1.02839 0)
(-0.241578 1.8396 0)
(12.0332 8.27224 0)
(1.0991 0.326233 0)
(1.50362 -0.0207276 0)
(1.75501 -0.550987 0)
(1.75367 -0.939834 0)
(1.68759 -1.13161 0)
(1.62093 -1.18808 0)
(1.55275 -1.16023 0)
(1.51285 -1.06717 0)
(1.56635 -1.00341 0)
(1.58833 -1.01332 0)
(1.57641 -1.0433 0)
(1.57256 -1.15542 0)
(1.49307 -1.27246 0)
(0.907397 -0.569708 0)
(0.113178 0.278332 0)
(-0.307546 0.725384 0)
(-0.0296577 1.53953 0)
(-0.565353 2.64514 0)
(3.12544 5.9628 0)
(1.8412 0.185137 0)
(1.90024 -0.322177 0)
(1.93112 -0.72869 0)
(1.8458 -0.94765 0)
(1.73173 -1.08786 0)
(1.63445 -1.09508 0)
(1.54965 -1.08156 0)
(1.50638 -1.05947 0)
(1.48779 -1.07351 0)
(1.47815 -1.12439 0)
(1.49164 -1.19708 0)
(1.45662 -1.22003 0)
(0.342563 0.00645263 0)
(-0.251134 0.470691 0)
(-0.575064 0.646732 0)
(-0.809559 0.960135 0)
(-0.785363 1.64585 0)
(-0.84027 2.73767 0)
(0.544366 4.79743 0)
(1.88553 -0.0282628 0)
(1.93996 -0.363258 0)
(1.83544 -0.63363 0)
(1.70576 -0.809081 0)
(1.60388 -0.959903 0)
(1.53542 -1.02013 0)
(1.46681 -1.05108 0)
(1.42401 -1.08905 0)
(1.42867 -1.14024 0)
(1.404 -1.19686 0)
(1.35639 -1.18002 0)
(0.0431058 0.236674 0)
(-0.405793 0.616488 0)
(-0.623839 0.692336 0)
(-0.817695 0.818184 0)
(-0.99449 1.08749 0)
(-1.04051 1.61117 0)
(-0.951518 2.54337 0)
(-0.306511 3.69189 0)
(1.64304 -0.0920859 0)
(1.6879 -0.345392 0)
(1.66838 -0.563199 0)
(1.62681 -0.741216 0)
(1.5691 -0.876513 0)
(1.53477 -0.947559 0)
(1.43496 -1.00396 0)
(1.37226 -1.07023 0)
(1.24902 -1.03998 0)
(0.994206 -0.870177 0)
(-0.199646 0.39162 0)
(-0.484737 0.70136 0)
(-0.639875 0.763874 0)
(-0.748478 0.808963 0)
(-0.876621 0.92998 0)
(-0.992208 1.1511 0)
(-1.03528 1.55457 0)
(-0.838972 2.1702 0)
(-0.472875 2.79748 0)
(1.4112 -0.182106 0)
(1.4822 -0.359029 0)
(1.5078 -0.547503 0)
(1.50544 -0.724012 0)
(1.46345 -0.85234 0)
(1.37501 -0.935115 0)
(1.20703 -1.05658 0)
(0.958506 -1.26676 0)
(0.67575 -1.35923 0)
(-0.399078 0.463373 0)
(-0.601471 0.710384 0)
(-0.654908 0.786698 0)
(-0.700171 0.81074 0)
(-0.753906 0.876241 0)
(-0.823543 0.982397 0)
(-0.872401 1.16222 0)
(-0.862134 1.45048 0)
(-0.631014 1.83322 0)
(-0.374794 2.16397 0)
(1.24582 -0.259873 0)
(1.33041 -0.408152 0)
(1.38869 -0.570209 0)
(1.39406 -0.694051 0)
(1.3251 -0.831894 0)
(1.11252 -0.994765 0)
(0.759998 -0.917862 0)
(0.317362 -0.415475 0)
(-0.435147 0.273738 0)
(-0.663363 0.6182 0)
(-0.696488 0.739064 0)
(-0.689806 0.783121 0)
(-0.701618 0.819484 0)
(-0.712048 0.895159 0)
(-0.718026 0.989887 0)
(-0.70494 1.13243 0)
(-0.65035 1.32657 0)
(-0.454794 1.57707 0)
(-0.23984 1.73406 0)
(1.13434 -0.344009 0)
(1.22958 -0.470098 0)
(1.26167 -0.623251 0)
(1.19359 -0.819436 0)
(0.878129 -1.01257 0)
(0.31779 -1.22846 0)
(-0.231561 -0.507522 0)
(-0.473832 0.357229 0)
(-0.687605 0.507449 0)
(-0.706729 0.637754 0)
(-0.700836 0.723562 0)
(-0.6795 0.760777 0)
(-0.672941 0.811389 0)
(-0.643168 0.874296 0)
(-0.621258 0.96453 0)
(-0.577271 1.0792 0)
(-0.501032 1.21841 0)
(-0.331855 1.37688 0)
(-0.151944 1.44909 0)
(1.06414 -0.463349 0)
(1.08367 -0.656338 0)
(0.952607 -0.885898 0)
(0.41363 -1.13109 0)
(0.127298 -1.13525 0)
(-0.405315 -0.0480858 0)
(-0.575788 0.310225 0)
(-0.643318 0.428535 0)
(-0.700404 0.540517 0)
(-0.696185 0.623242 0)
(-0.662784 0.67695 0)
(-0.631819 0.722588 0)
(-0.607628 0.778336 0)
(-0.573896 0.842142 0)
(-0.53655 0.923668 0)
(-0.478349 1.01634 0)
(-0.39526 1.11728 0)
(-0.252616 1.21969 0)
(-0.104702 1.25499 0)
(0.872203 -0.783528 0)
(0.563663 -1.0381 0)
(0.340833 -1.19105 0)
(-0.428864 -0.370515 0)
(-0.181803 0.10886 0)
(-0.578126 0.25095 0)
(-0.632696 0.388955 0)
(-0.658951 0.453703 0)
(-0.676506 0.535472 0)
(-0.642594 0.585138 0)
(-0.610543 0.63748 0)
(-0.579935 0.690171 0)
(-0.548032 0.74539 0)
(-0.510691 0.806084 0)
(-0.464875 0.876224 0)
(-0.401916 0.9505 0)
(-0.319913 1.02482 0)
(-0.201211 1.09342 0)
(-0.0773955 1.11115 0)
(0.489334 -1.15903 0)
(0.224896 -1.03311 0)
(-0.2578 -0.212731 0)
(-0.427822 0.304801 0)
(-0.50964 0.229489 0)
(-0.619278 0.333912 0)
(-0.628218 0.39943 0)
(-0.637807 0.45759 0)
(-0.616115 0.507683 0)
(-0.588078 0.555685 0)
(-0.561161 0.60744 0)
(-0.52998 0.659042 0)
(-0.495195 0.711459 0)
(-0.45486 0.766703 0)
(-0.405447 0.826097 0)
(-0.342684 0.885664 0)
(-0.265252 0.941731 0)
(-0.166192 0.98925 0)
(-0.0593713 0.997801 0)
(-0.0820168 -0.658106 0)
(-0.300163 0.0901726 0)
(-0.485531 0.270098 0)
(-0.54118 0.274423 0)
(-0.569819 0.285054 0)
(-0.608134 0.352285 0)
(-0.601691 0.395847 0)
(-0.585145 0.441615 0)
(-0.565293 0.484959 0)
(-0.541402 0.532683 0)
(-0.515052 0.580147 0)
(-0.483655 0.628262 0)
(-0.447821 0.676381 0)
(-0.406135 0.725669 0)
(-0.356327 0.775797 0)
(-0.296127 0.824076 0)
(-0.224609 0.867439 0)
(-0.14046 0.901253 0)
(-0.0478923 0.903675 0)
(-0.407821 0.18117 0)
(-0.53112 0.173092 0)
(-0.546471 0.245383 0)
(-0.566966 0.27431 0)
(-0.560025 0.310214 0)
(-0.574674 0.341585 0)
(-0.551651 0.386101 0)
(-0.541375 0.422522 0)
(-0.521691 0.467426 0)
(-0.499327 0.510006 0)
(-0.472727 0.553974 0)
(-0.441507 0.597781 0)
(-0.405622 0.641288 0)
(-0.364045 0.684659 0)
(-0.31553 0.72707 0)
(-0.25885 0.766698 0)
(-0.193603 0.800952 0)
(-0.119987 0.826043 0)
(-0.0404084 0.824987 0)
(-0.492429 0.150016 0)
(-0.549199 0.214588 0)
(-0.544406 0.25762 0)
(-0.557121 0.273166 0)
(-0.52906 0.301532 0)
(-0.539537 0.334294 0)
(-0.510276 0.373253 0)
(-0.505928 0.407825 0)
(-0.482041 0.449252 0)
(-0.461403 0.487798 0)
(-0.434229 0.528111 0)
(-0.403562 0.567632 0)
(-0.368221 0.606648 0)
(-0.327747 0.644683 0)
(-0.281385 0.680806 0)
(-0.228581 0.713731 0)
(-0.169306 0.741289 0)
(-0.104262 0.760541 0)
(-0.0350921 0.756334 0)
(-0.539548 0.208846 0)
(-0.547767 0.227385 0)
(-0.527409 0.249708 0)
(-0.527213 0.271882 0)
(-0.497724 0.290861 0)
(-0.50854 0.32672 0)
(-0.476131 0.358978 0)
(-0.472476 0.393672 0)
(-0.446717 0.430107 0)
(-0.42677 0.465932 0)
(-0.399468 0.502448 0)
(-0.369555 0.538107 0)
(-0.335144 0.572945 0)
(-0.296303 0.606329 0)
(-0.252499 0.637378 0)
(-0.203565 0.665039 0)
(-0.149703 0.687695 0)
(-0.0915486 0.703001 0)
(-0.0306576 0.697497 0)
(-0.54371 0.197561 0)
(-0.525699 0.214209 0)
(-0.49925 0.234152 0)
(-0.505613 0.261139 0)
(-0.47126 0.280059 0)
(-0.479432 0.318014 0)
(-0.446705 0.344065 0)
(-0.44074 0.378706 0)
(-0.415138 0.410832 0)
(-0.395001 0.444206 0)
(-0.368118 0.477203 0)
(-0.339055 0.509446 0)
(-0.305889 0.54056 0)
(-0.268928 0.569933 0)
(-0.227828 0.596849 0)
(-0.182613 0.620341 0)
(-0.133613 0.639275 0)
(-0.0814977 0.65169 0)
(-0.0272045 0.644649 0)
(-0.527795 0.177038 0)
(-0.489624 0.190939 0)
(-0.485777 0.222389 0)
(-0.477928 0.251993 0)
(-0.445667 0.268391 0)
(-0.451399 0.305892 0)
(-0.419423 0.329359 0)
(-0.411388 0.362623 0)
(-0.386324 0.391752 0)
(-0.365987 0.422658 0)
(-0.33977 0.452597 0)
(-0.311651 0.4818 0)
(-0.279929 0.509669 0)
(-0.244955 0.535652 0)
(-0.20654 0.559163 0)
(-0.164812 0.579386 0)
(-0.120077 0.595489 0)
(-0.0730079 0.605794 0)
(-0.0243514 0.598078 0)
)
;

boundaryField
{
    leftWall
    {
        type            fixedValue;
        value           nonuniform 0();
    }
    rightWall
    {
        type            fixedValue;
        value           uniform (0 0 0);
    }
    lowerWall
    {
        type            fixedValue;
        value           uniform (0 0 0);
    }
    atmosphere
    {
        type            fluxCorrectedVelocity;
        value           nonuniform 0();
    }
    defaultFaces
    {
        type            empty;
    }
    procBoundary1to0
    {
        type            processor;
        value           nonuniform List<vector> 
26
(
(0.349371 0.245803 0)
(0.387664 0.37954 0)
(0.445193 0.637707 0)
(0.48233 0.786255 0)
(0.391902 0.940884 0)
(0.212734 1.02416 0)
(0.108995 0.998781 0)
(0.161713 1.10167 0)
(0.867718 1.20431 0)
(0.91739 1.00116 0)
(0.824916 0.71906 0)
(0.823785 0.512441 0)
(0.801044 0.367743 0)
(0.785952 0.208911 0)
(0.746457 0.0757497 0)
(0.690482 -0.0386488 0)
(0.778909 -0.198584 0)
(0.778909 -0.198584 0)
(0.712226 -0.271638 0)
(0.638647 -0.444606 0)
(0.377517 -0.905938 0)
(0.175988 -1.30912 0)
(-0.449217 -0.39858 0)
(-0.446387 0.102811 0)
(-0.576388 0.108821 0)
(-0.572651 0.117167 0)
)
;
    }
    procBoundary1to3
    {
        type            processor;
        value           nonuniform List<vector> 
23
(
(-0.545489 0.126983 0)
(-0.537044 0.137197 0)
(-0.521141 0.136847 0)
(-0.510547 0.138021 0)
(-0.489614 0.150461 0)
(-0.473844 0.17255 0)
(-0.466573 0.215737 0)
(-0.446101 0.240102 0)
(-0.427123 0.25204 0)
(-0.420308 0.295625 0)
(-0.395758 0.31283 0)
(-0.3832 0.346444 0)
(-0.360095 0.372679 0)
(-0.339332 0.401466 0)
(-0.314067 0.428749 0)
(-0.286953 0.45528 0)
(-0.256773 0.480338 0)
(-0.223811 0.503475 0)
(-0.187976 0.524167 0)
(-0.149438 0.541773 0)
(-0.108509 0.555651 0)
(-0.0656762 0.564336 0)
(-0.0217637 0.556354 0)
)
;
    }
}


// ************************************************************************* //
