/*--------------------------------*- C++ -*----------------------------------*\
| =========                 |                                                 |
| \\      /  F ield         | OpenFOAM: The Open Source CFD Toolbox           |
|  \\    /   O peration     | Version:  2.4.0                                 |
|   \\  /    A nd           | Web:      www.OpenFOAM.org                      |
|    \\/     M anipulation  |                                                 |
\*---------------------------------------------------------------------------*/
FoamFile
{
    version     2.0;
    format      ascii;
    class       volVectorField;
    location    "0.2";
    object      U.water;
}
// * * * * * * * * * * * * * * * * * * * * * * * * * * * * * * * * * * * * * //

dimensions      [0 1 -1 0 0 0 0];

internalField   nonuniform List<vector> 
559
(
(0.255598 0.0315765 0)
(0.304207 0.301359 0)
(0.338746 0.485292 0)
(0.360426 0.718022 0)
(0.348069 0.889099 0)
(0.307531 1.16863 0)
(0.333047 1.35297 0)
(0.353069 1.48624 0)
(-1.47185 -0.748905 0)
(-1.37368 -0.533403 0)
(-1.59176 -0.154901 0)
(-1.8241 -0.0323985 0)
(-1.87665 -0.151953 0)
(-1.22014 -0.339658 0)
(-0.420692 -0.303222 0)
(0.163777 -0.222314 0)
(0.672653 -0.203031 0)
(1.04154 -0.177587 0)
(1.33333 -0.149129 0)
(1.58203 -0.139655 0)
(1.82216 -0.150325 0)
(2.0914 -0.155185 0)
(2.31762 -0.186867 0)
(2.48562 -0.164372 0)
(2.4202 -0.11797 0)
(1.90887 0.0385375 0)
(1.57128 0.0939013 0)
(-1.17083 -0.127236 0)
(-0.973387 0.0280653 0)
(-0.970894 -0.0391347 0)
(-1.0128 0.0798233 0)
(-1.08243 0.0779306 0)
(-0.614795 -0.34656 0)
(-0.125659 -0.392103 0)
(0.427937 -0.287753 0)
(0.845298 -0.190262 0)
(1.15493 -0.124737 0)
(1.439 -0.0962996 0)
(1.70719 -0.0981329 0)
(1.94896 -0.111461 0)
(2.14463 -0.103775 0)
(2.28812 -0.075743 0)
(2.36959 -0.00860839 0)
(2.37242 0.183284 0)
(1.93066 0.53018 0)
(1.6142 1.02867 0)
(-0.733385 0.790889 0)
(-1.18281 -0.0153537 0)
(-0.985396 -0.291586 0)
(-0.457638 -0.493631 0)
(-0.545034 -0.382711 0)
(-0.084617 -0.709096 0)
(0.255882 -0.705262 0)
(0.615261 -0.592677 0)
(1.00114 -0.462247 0)
(1.31363 -0.371698 0)
(1.58335 -0.322645 0)
(1.82368 -0.309107 0)
(2.05167 -0.281813 0)
(2.23152 -0.224039 0)
(2.33397 -0.145333 0)
(2.37222 -0.026397 0)
(2.40929 0.12904 0)
(2.01128 0.452538 0)
(1.67035 1.51841 0)
(-0.730606 1.21492 0)
(-1.65925 0.716246 0)
(-2.26135 -0.228392 0)
(-0.355011 -0.586727 0)
(0.227291 -0.831784 0)
(0.404967 -0.944694 0)
(0.529932 -0.782884 0)
(0.858009 -0.64747 0)
(1.17761 -0.514456 0)
(1.45275 -0.418824 0)
(1.68242 -0.365542 0)
(1.89926 -0.34738 0)
(2.09611 -0.31389 0)
(2.23529 -0.244286 0)
(2.32147 -0.115089 0)
(2.34616 -0.046674 0)
(2.39783 -0.00136841 0)
(2.21589 0.295152 0)
(1.83298 2.09319 0)
(-0.540511 1.73099 0)
(-0.792865 1.19414 0)
(-0.334549 0.0781379 0)
(0.0935248 -0.6153 0)
(0.75458 -0.983739 0)
(0.657023 -1.08208 0)
(0.766927 -0.967142 0)
(1.03643 -0.829167 0)
(1.28089 -0.677746 0)
(1.5092 -0.564606 0)
(1.72678 -0.502596 0)
(1.93509 -0.455871 0)
(2.10271 -0.378568 0)
(2.21267 -0.258699 0)
(2.23524 -0.237844 0)
(2.27347 -0.283574 0)
(2.50484 -0.392443 0)
(2.37121 0.397704 0)
(2.4902 2.39504 0)
(-0.33394 1.96363 0)
(0.226371 1.13677 0)
(0.375613 -0.0635759 0)
(0.917423 -0.666204 0)
(0.987429 -1.15844 0)
(0.92668 -1.11383 0)
(1.01424 -1.01473 0)
(1.21463 -0.864163 0)
(1.39021 -0.718905 0)
(1.59548 -0.607284 0)
(1.79261 -0.5475 0)
(1.95596 -0.498477 0)
(2.09111 -0.398769 0)
(2.12319 -0.381386 0)
(2.15661 -0.445818 0)
(2.32617 -0.598787 0)
(2.61917 -0.0113436 0)
(0.827142 1.293 0)
(4.03485 2.96494 0)
(-0.217624 1.88185 0)
(0.80599 0.850862 0)
(1.0098 -0.384071 0)
(1.11069 -0.684295 0)
(1.17862 -1.1135 0)
(1.11157 -1.18778 0)
(1.18126 -1.12332 0)
(1.30864 -0.984273 0)
(1.42965 -0.822217 0)
(1.60893 -0.715227 0)
(1.78136 -0.636522 0)
(1.92243 -0.567058 0)
(1.98897 -0.542103 0)
(2.02167 -0.608551 0)
(2.15092 -0.759038 0)
(2.33746 -0.276081 0)
(2.44853 0.502716 0)
(0.0650798 1.39149 0)
(6.40212 4.44368 0)
(0.290538 1.56123 0)
(1.15306 1.13507 0)
(1.18303 -0.4437 0)
(1.28109 -0.7522 0)
(1.30517 -1.21482 0)
(1.27032 -1.2049 0)
(1.32734 -1.14333 0)
(1.40546 -1.00286 0)
(1.48929 -0.85278 0)
(1.64059 -0.763355 0)
(1.80373 -0.677869 0)
(1.86784 -0.666895 0)
(1.90132 -0.729089 0)
(2.01008 -0.888262 0)
(2.44615 -0.596773 0)
(2.18648 -0.0185239 0)
(2.3673 0.774486 0)
(0.0477242 1.60321 0)
(5.5573 5.57439 0)
(0.637595 1.48563 0)
(0.851661 1.31245 0)
(1.04797 1.13367 0)
(1.07665 0.846203 0)
(1.03455 0.449745 0)
(0.963065 0.195263 0)
(0.878425 0.0552079 0)
(0.823495 -0.0842709 0)
(0.667033 1.34962 0)
(0.333262 1.26548 0)
(0.000306347 0.990104 0)
(-0.0568444 0.643278 0)
(0.847273 1.24571 0)
(0.880225 1.17804 0)
(0.886034 1.05474 0)
(0.945811 0.893843 0)
(1.09043 1.14768 0)
(1.17165 1.09539 0)
(1.27747 0.995872 0)
(1.40198 0.830487 0)
(1.18623 0.886928 0)
(1.28521 0.894408 0)
(1.39233 0.816972 0)
(1.49863 0.671376 0)
(1.15993 0.450811 0)
(1.26129 0.506881 0)
(1.34661 0.486938 0)
(1.43165 0.440878 0)
(1.06311 0.155945 0)
(1.15235 0.124306 0)
(1.23216 0.10691 0)
(1.30916 0.0853343 0)
(0.977625 -0.00747913 0)
(1.05144 -0.0624315 0)
(1.10966 -0.115468 0)
(1.17406 -0.177576 0)
(0.914154 -0.159921 0)
(0.958593 -0.182866 0)
(1.00619 -0.219028 0)
(1.05385 -0.257813 0)
(0.822525 -0.248171 0)
(0.871889 -0.262861 0)
(0.925673 -0.321099 0)
(0.968804 -0.366802 0)
(0.760012 -0.339617 0)
(0.823565 -0.408733 0)
(0.855149 -0.49639 0)
(0.879787 -0.59937 0)
(0.692273 -0.600381 0)
(0.649769 -0.728441 0)
(0.591444 -0.921098 0)
(0.589305 -0.954677 0)
(0.481021 -0.793756 0)
(0.437793 -0.409345 0)
(0.0614649 0.368204 0)
(-0.527256 0.0340388 0)
(-0.576878 -0.030548 0)
(-0.465557 -0.00848608 0)
(-0.281232 0.310136 0)
(-0.289997 0.241194 0)
(-0.382118 0.0491127 0)
(-0.48326 0.116826 0)
(-0.465782 0.186193 0)
(-0.449261 0.187081 0)
(-0.54175 0.13605 0)
(-0.534481 0.151761 0)
(-0.541687 0.183091 0)
(-0.538187 0.197726 0)
(-0.567489 0.1521 0)
(-0.56304 0.158644 0)
(-0.560476 0.169484 0)
(-0.554414 0.182023 0)
(-0.556968 0.141678 0)
(-0.558415 0.152539 0)
(-0.555558 0.161908 0)
(-0.548342 0.166221 0)
(-0.176766 0.229094 0)
(0.637615 0.0596871 0)
(1.24036 -0.368454 0)
(1.46354 -0.902303 0)
(1.49979 -1.19546 0)
(1.47758 -1.22646 0)
(1.46764 -1.17951 0)
(1.46608 -1.06015 0)
(1.5313 -0.94815 0)
(1.65655 -0.860626 0)
(1.74236 -0.859712 0)
(1.75645 -0.891491 0)
(1.7784 -1.03495 0)
(1.88678 -0.772398 0)
(1.36694 -0.151748 0)
(0.717044 0.513487 0)
(1.38192 1.25845 0)
(-0.676516 2.08991 0)
(2.22411 5.80369 0)
(1.02183 0.628172 0)
(1.39871 0.225607 0)
(1.70773 -0.414125 0)
(1.7494 -0.917183 0)
(1.68765 -1.13146 0)
(1.62097 -1.18805 0)
(1.55278 -1.1602 0)
(1.51288 -1.06715 0)
(1.56637 -1.00334 0)
(1.58887 -1.01179 0)
(1.58196 -1.02848 0)
(1.61414 -1.04935 0)
(1.38898 -0.587291 0)
(0.419167 0.128304 0)
(0.109879 0.296836 0)
(-0.292605 0.526573 0)
(0.0651299 1.43022 0)
(-1.03531 2.38233 0)
(0.552279 5.63702 0)
(1.5732 0.585983 0)
(1.72636 0.0843911 0)
(1.8665 -0.514606 0)
(1.84153 -0.913621 0)
(1.73179 -1.08762 0)
(1.63449 -1.09504 0)
(1.54968 -1.08152 0)
(1.50637 -1.05943 0)
(1.48805 -1.07218 0)
(1.48251 -1.11098 0)
(1.5135 -1.08304 0)
(0.960068 -0.480597 0)
(0.0162715 0.335316 0)
(-0.274641 0.450753 0)
(-0.538508 0.513949 0)
(-0.830458 0.732683 0)
(-0.861982 1.3991 0)
(-1.23761 2.3116 0)
(-0.269954 4.72802 0)
(1.65438 0.454944 0)
(1.81343 0.0990807 0)
(1.82007 -0.362694 0)
(1.71293 -0.742365 0)
(1.60479 -0.9567 0)
(1.53556 -1.01993 0)
(1.46679 -1.05109 0)
(1.42368 -1.08877 0)
(1.43002 -1.13153 0)
(1.38987 -1.1029 0)
(0.647445 -0.42055 0)
(-0.228519 0.505197 0)
(-0.481455 0.62001 0)
(-0.64398 0.630884 0)
(-0.831354 0.7118 0)
(-1.05084 0.925357 0)
(-1.16734 1.40186 0)
(-1.24245 2.18426 0)
(-0.684984 3.5477 0)
(1.56548 0.328711 0)
(1.66833 0.0947708 0)
(1.70266 -0.244669 0)
(1.65422 -0.612635 0)
(1.57704 -0.852262 0)
(1.53515 -0.946928 0)
(1.43465 -1.00433 0)
(1.37613 -1.06789 0)
(1.27395 -1.00865 0)
(0.578947 -0.399333 0)
(-0.383449 0.539795 0)
(-0.563514 0.704 0)
(-0.682489 0.731473 0)
(-0.774886 0.762463 0)
(-0.90857 0.865514 0)
(-1.04651 1.06581 0)
(-1.12973 1.43484 0)
(-0.980242 1.99104 0)
(-0.60819 2.64548 0)
(1.42001 0.0611239 0)
(1.52611 -0.0375014 0)
(1.5737 -0.260804 0)
(1.55228 -0.563214 0)
(1.48392 -0.803108 0)
(1.376 -0.934535 0)
(1.21399 -1.05232 0)
(1.00746 -1.15302 0)
(0.117431 -0.285837 0)
(-0.50497 0.507955 0)
(-0.676393 0.699249 0)
(-0.698689 0.758358 0)
(-0.725976 0.782857 0)
(-0.77638 0.84805 0)
(-0.845172 0.951885 0)
(-0.892082 1.12557 0)
(-0.89418 1.40118 0)
(-0.666109 1.76634 0)
(-0.387509 2.06756 0)
(1.25174 -0.214791 0)
(1.36691 -0.264444 0)
(1.44381 -0.399806 0)
(1.43847 -0.579926 0)
(1.34163 -0.804305 0)
(1.12489 -0.983104 0)
(0.89552 -0.799707 0)
(0.0222988 -0.0865085 0)
(-0.507632 0.36285 0)
(-0.684738 0.568925 0)
(-0.72031 0.704031 0)
(-0.709225 0.757876 0)
(-0.716959 0.801974 0)
(-0.72446 0.880542 0)
(-0.729733 0.977152 0)
(-0.715127 1.12063 0)
(-0.659007 1.31233 0)
(-0.458757 1.55574 0)
(-0.231986 1.69337 0)
(1.13435 -0.343973 0)
(1.23145 -0.463942 0)
(1.27356 -0.596819 0)
(1.21046 -0.790933 0)
(0.909888 -0.97081 0)
(0.628463 -0.629462 0)
(-0.444865 0.031013 0)
(-0.473084 0.369764 0)
(-0.692975 0.486911 0)
(-0.709022 0.60717 0)
(-0.709147 0.698658 0)
(-0.686958 0.744286 0)
(-0.678548 0.801589 0)
(-0.648653 0.867511 0)
(-0.626122 0.95991 0)
(-0.580773 1.07576 0)
(-0.502832 1.21479 0)
(-0.33151 1.37064 0)
(-0.149166 1.43735 0)
(1.0643 -0.463054 0)
(1.08562 -0.652902 0)
(0.960637 -0.868752 0)
(0.51437 -0.884722 0)
(0.0167871 0.0366031 0)
(-0.404928 -0.0251123 0)
(-0.573636 0.336747 0)
(-0.635659 0.412668 0)
(-0.695073 0.525723 0)
(-0.694435 0.606918 0)
(-0.662938 0.663561 0)
(-0.633266 0.715204 0)
(-0.609187 0.774033 0)
(-0.575894 0.839785 0)
(-0.538064 0.92233 0)
(-0.479202 1.0155 0)
(-0.395471 1.11641 0)
(-0.252375 1.21818 0)
(-0.104245 1.25261 0)
(0.876061 -0.774051 0)
(0.586771 -0.93257 0)
(0.507341 -0.0610395 0)
(-0.611195 -0.162019 0)
(-0.175868 0.110536 0)
(-0.573479 0.248975 0)
(-0.626081 0.385907 0)
(-0.653011 0.448087 0)
(-0.671439 0.528377 0)
(-0.639698 0.578232 0)
(-0.610034 0.633071 0)
(-0.580303 0.687863 0)
(-0.548595 0.744195 0)
(-0.511233 0.805522 0)
(-0.465219 0.875973 0)
(-0.402054 0.95036 0)
(-0.319901 1.02465 0)
(-0.201146 1.09313 0)
(-0.0773347 1.11078 0)
(0.501718 -0.502938 0)
(-0.507584 0.0653473 0)
(-0.277047 -0.1282 0)
(-0.426751 0.306541 0)
(-0.508119 0.229017 0)
(-0.617274 0.333826 0)
(-0.624816 0.398596 0)
(-0.634199 0.456068 0)
(-0.613025 0.505395 0)
(-0.586565 0.553793 0)
(-0.560705 0.606323 0)
(-0.529978 0.658551 0)
(-0.495305 0.711272 0)
(-0.454961 0.766653 0)
(-0.405498 0.826091 0)
(-0.342692 0.885657 0)
(-0.265238 0.941703 0)
(-0.166178 0.989202 0)
(-0.0593636 0.997751 0)
(-0.422083 -0.290194 0)
(-0.299682 0.122203 0)
(-0.483957 0.272523 0)
(-0.540829 0.274605 0)
(-0.569345 0.285098 0)
(-0.607315 0.352506 0)
(-0.600176 0.395969 0)
(-0.583444 0.441457 0)
(-0.56402 0.484671 0)
(-0.540724 0.53246 0)
(-0.514806 0.580067 0)
(-0.483602 0.628264 0)
(-0.447821 0.676409 0)
(-0.406141 0.725698 0)
(-0.356327 0.775815 0)
(-0.296122 0.824082 0)
(-0.224604 0.867437 0)
(-0.140458 0.901246 0)
(-0.0478915 0.903669 0)
(-0.406036 0.186278 0)
(-0.529627 0.17567 0)
(-0.546036 0.245801 0)
(-0.566749 0.274446 0)
(-0.559848 0.310312 0)
(-0.574344 0.341735 0)
(-0.551084 0.386357 0)
(-0.540778 0.42273 0)
(-0.521201 0.467613 0)
(-0.499057 0.510148 0)
(-0.472618 0.554076 0)
(-0.441474 0.597842 0)
(-0.405612 0.641323 0)
(-0.36404 0.684679 0)
(-0.315527 0.727079 0)
(-0.258848 0.766701 0)
(-0.193601 0.800953 0)
(-0.119987 0.826043 0)
(-0.0404083 0.824986 0)
(-0.490889 0.151439 0)
(-0.548393 0.215756 0)
(-0.544232 0.257892 0)
(-0.55705 0.273251 0)
(-0.528998 0.301586 0)
(-0.539442 0.334389 0)
(-0.510099 0.373409 0)
(-0.505734 0.408006 0)
(-0.481871 0.449423 0)
(-0.461306 0.487923 0)
(-0.434188 0.528184 0)
(-0.403548 0.567666 0)
(-0.368216 0.606665 0)
(-0.327745 0.644691 0)
(-0.281384 0.680809 0)
(-0.22858 0.713732 0)
(-0.169306 0.741289 0)
(-0.104262 0.760541 0)
(-0.0350921 0.756334 0)
(-0.539131 0.210038 0)
(-0.547539 0.227867 0)
(-0.527351 0.249814 0)
(-0.527195 0.271914 0)
(-0.497708 0.290883 0)
(-0.508515 0.326759 0)
(-0.476082 0.359046 0)
(-0.472417 0.393761 0)
(-0.446664 0.430193 0)
(-0.426739 0.465992 0)
(-0.399455 0.502479 0)
(-0.36955 0.53812 0)
(-0.335142 0.572951 0)
(-0.296302 0.606332 0)
(-0.252499 0.637378 0)
(-0.203565 0.665039 0)
(-0.149703 0.687695 0)
(-0.0915486 0.703001 0)
(-0.0306576 0.697497 0)
(-0.543603 0.197956 0)
(-0.525632 0.214363 0)
(-0.49924 0.234184 0)
(-0.505609 0.261149 0)
(-0.471257 0.280066 0)
(-0.479426 0.318026 0)
(-0.446692 0.344089 0)
(-0.440723 0.378739 0)
(-0.415124 0.410864 0)
(-0.394993 0.444227 0)
(-0.368114 0.477213 0)
(-0.339054 0.50945 0)
(-0.305888 0.540562 0)
(-0.268928 0.569934 0)
(-0.227828 0.59685 0)
(-0.182613 0.620341 0)
(-0.133613 0.639275 0)
(-0.0814977 0.65169 0)
(-0.0272045 0.644649 0)
(-0.52773 0.177204 0)
(-0.489612 0.190983 0)
(-0.485776 0.222395 0)
(-0.477928 0.251995 0)
(-0.445666 0.268393 0)
(-0.451398 0.305896 0)
(-0.41942 0.329366 0)
(-0.411384 0.362633 0)
(-0.38632 0.391762 0)
(-0.365985 0.422664 0)
(-0.339769 0.4526 0)
(-0.311651 0.481801 0)
(-0.279929 0.509669 0)
(-0.244955 0.535652 0)
(-0.20654 0.559163 0)
(-0.164812 0.579386 0)
(-0.120077 0.595489 0)
(-0.0730079 0.605794 0)
(-0.0243514 0.598078 0)
)
;

boundaryField
{
    leftWall
    {
        type            fixedValue;
        value           nonuniform 0();
    }
    rightWall
    {
        type            fixedValue;
        value           uniform (0 0 0);
    }
    lowerWall
    {
        type            fixedValue;
        value           uniform (0 0 0);
    }
    atmosphere
    {
        type            fluxCorrectedVelocity;
        value           nonuniform 0();
    }
    defaultFaces
    {
        type            empty;
    }
    procBoundary1to0
    {
        type            processor;
        value           nonuniform List<vector> 
26
(
(0.570277 0.119818 0)
(0.602948 0.198915 0)
(0.647675 0.423975 0)
(0.621843 0.598836 0)
(0.413213 0.919009 0)
(0.228962 0.993888 0)
(0.200952 0.949398 0)
(0.270742 0.956592 0)
(0.612384 0.998941 0)
(0.826707 1.03389 0)
(0.812531 0.800899 0)
(0.816648 0.54856 0)
(0.800297 0.370245 0)
(0.786165 0.209164 0)
(0.746442 0.0757401 0)
(0.690476 -0.0386476 0)
(0.778907 -0.198579 0)
(0.778907 -0.198579 0)
(0.712227 -0.271633 0)
(0.639086 -0.443313 0)
(0.383639 -0.881973 0)
(-0.0786158 0.0648567 0)
(-0.438777 -0.397221 0)
(-0.446301 0.110358 0)
(-0.575467 0.112687 0)
(-0.572118 0.119629 0)
)
;
    }
    procBoundary1to3
    {
        type            processor;
        value           nonuniform List<vector> 
23
(
(-0.5454 0.127519 0)
(-0.536867 0.137604 0)
(-0.52105 0.13708 0)
(-0.510498 0.138163 0)
(-0.489573 0.150573 0)
(-0.473839 0.172564 0)
(-0.466572 0.215738 0)
(-0.4461 0.240103 0)
(-0.427123 0.25204 0)
(-0.420307 0.295626 0)
(-0.395758 0.312832 0)
(-0.383199 0.346447 0)
(-0.360095 0.372682 0)
(-0.339331 0.401468 0)
(-0.314067 0.42875 0)
(-0.286953 0.45528 0)
(-0.256773 0.480338 0)
(-0.223811 0.503475 0)
(-0.187976 0.524167 0)
(-0.149438 0.541773 0)
(-0.108509 0.555651 0)
(-0.0656762 0.564336 0)
(-0.0217637 0.556354 0)
)
;
    }
}


// ************************************************************************* //
