/*--------------------------------*- C++ -*----------------------------------*\
| =========                 |                                                 |
| \\      /  F ield         | OpenFOAM: The Open Source CFD Toolbox           |
|  \\    /   O peration     | Version:  2.4.0                                 |
|   \\  /    A nd           | Web:      www.OpenFOAM.org                      |
|    \\/     M anipulation  |                                                 |
\*---------------------------------------------------------------------------*/
FoamFile
{
    version     2.0;
    format      ascii;
    class       volScalarField;
    location    "0.05";
    object      alpha.oil;
}
// * * * * * * * * * * * * * * * * * * * * * * * * * * * * * * * * * * * * * //

dimensions      [0 0 0 0 0 0 0];

internalField   nonuniform List<scalar> 
559
(
0.955793
0.946646
0.935216
0.922309
0.907541
0.885034
0.826729
1.27643e-36
8.87607e-33
2.29409e-29
3.07469e-26
2.35687e-23
1.07509e-20
2.95513e-18
4.87104e-16
4.74352e-14
2.72758e-12
3.23725e-09
0.000539493
0.504661
0.493282
0.473869
0.449448
0.423146
0.395486
0.367642
0.339715
0.315076
0.293862
0.247074
2.24821e-34
1.28501e-30
2.65795e-27
2.78681e-24
1.63634e-21
5.58402e-19
1.11475e-16
1.28894e-14
8.64578e-13
3.62435e-11
4.56815e-08
1.95961e-06
2.06145e-08
5.6119e-12
4.32367e-14
9.81788e-13
2.16919e-11
4.79446e-10
8.35511e-09
1.00191e-07
8.24814e-07
9.22797e-06
3.00002e-05
3.96989e-46
8.41846e-43
9.21504e-40
6.15112e-37
2.71965e-34
8.33343e-32
1.81482e-29
2.84528e-27
3.22307e-25
2.62337e-23
1.51259e-21
6.27211e-20
1.95792e-18
5.75052e-17
1.40426e-15
2.67919e-14
3.92837e-13
4.37985e-12
5.22829e-11
5.81868e-10
4.68536e-09
2.53433e-07
1.79968e-06
4.34364e-48
1.04981e-44
1.18012e-41
8.07458e-39
3.73678e-36
1.23345e-33
2.99315e-31
5.43682e-29
7.47086e-27
7.80919e-25
6.22861e-23
3.79338e-21
1.77422e-19
6.56941e-18
1.87578e-16
3.9315e-15
5.61356e-14
4.84117e-13
1.95586e-12
2.66723e-11
1.19133e-09
3.42892e-08
1.49937e-07
1.26829e-50
3.00884e-47
3.29605e-44
2.19136e-41
9.83869e-39
3.14973e-36
7.42016e-34
1.31229e-31
1.76593e-29
1.82674e-27
1.46643e-25
9.24111e-24
4.65448e-22
1.92018e-20
6.451e-19
1.73721e-17
3.64206e-16
5.67998e-15
6.17543e-14
4.31114e-13
2.02407e-12
3.6867e-10
1.42427e-08
2.08102e-53
5.41013e-50
6.51935e-47
4.82339e-44
2.44604e-41
9.00645e-39
2.4923e-36
5.30168e-34
8.81049e-32
1.15862e-29
1.21966e-27
1.04017e-25
7.28541e-24
4.24256e-22
2.05931e-20
8.31135e-19
2.76732e-17
7.4521e-16
1.54727e-14
2.23806e-13
1.87096e-12
5.90948e-11
5.28255e-10
1.63414e-56
4.5286e-53
5.82496e-50
4.61468e-47
2.51844e-44
1.00437e-41
3.03381e-39
7.109e-37
1.31491e-34
1.94641e-32
2.33356e-30
2.29164e-28
1.86306e-26
1.26413e-24
7.18668e-23
3.4257e-21
1.36733e-19
4.55846e-18
1.26514e-16
2.90767e-15
5.47486e-14
8.26349e-13
9.76761e-12
8.01133e-60
2.39758e-56
3.33586e-53
2.86693e-50
1.70452e-47
7.44529e-45
2.47901e-42
6.45071e-40
1.33587e-37
2.23325e-35
3.0502e-33
3.43947e-31
3.23104e-29
2.54619e-27
1.69077e-25
9.48312e-24
4.49674e-22
1.80302e-20
6.11293e-19
1.75269e-17
4.25107e-16
8.71861e-15
1.50657e-13
2.56403e-63
8.3864e-60
1.27733e-56
1.20484e-53
7.8898e-51
3.81274e-48
1.412e-45
4.11134e-43
9.59004e-41
1.81832e-38
2.83604e-36
3.67551e-34
3.9915e-32
3.65658e-30
2.83991e-28
1.8766e-26
1.05777e-24
5.09642e-23
2.1032e-21
7.45181e-20
2.27351e-18
5.99335e-17
1.36873e-15
5.50851e-67
1.99124e-63
3.35663e-60
3.51193e-57
2.55862e-54
1.3808e-51
5.73597e-49
1.88281e-46
4.97792e-44
1.07588e-41
1.92377e-39
2.87425e-37
3.61802e-35
3.86318e-33
3.51834e-31
2.74528e-29
1.84215e-27
1.0667e-25
5.3486e-24
2.33097e-22
8.8664e-21
2.95655e-19
8.67581e-18
8.07337e-71
3.25993e-67
6.14579e-64
7.20493e-61
5.89665e-58
3.5861e-55
1.68503e-52
6.28257e-50
1.89534e-47
4.69672e-45
9.67618e-43
1.67398e-40
2.45222e-38
3.0633e-36
3.28273e-34
3.0334e-32
2.42819e-30
1.69118e-28
1.02933e-26
5.50011e-25
2.59259e-23
1.08326e-21
4.02908e-20
8.1313e-75
3.7063e-71
7.89532e-68
1.04754e-64
9.72372e-62
6.72509e-59
3.60495e-56
1.53882e-53
5.3356e-51
1.52588e-48
3.64357e-46
7.33832e-44
1.25729e-41
1.84596e-39
2.33734e-37
2.56685e-35
2.45772e-33
2.06202e-31
1.52353e-29
9.96363e-28
5.79761e-26
3.01663e-24
1.40984e-22
5.62472e-79
2.92516e-75
7.11536e-72
1.07942e-68
1.1477e-65
9.11291e-63
5.62315e-60
2.77145e-57
1.11323e-54
3.70132e-52
1.03142e-49
2.4339e-47
4.9063e-45
8.51297e-43
1.27996e-40
1.6778e-38
1.9283e-36
1.95375e-34
1.75452e-32
1.40407e-30
1.0067e-28
6.49997e-27
3.79692e-25
2.64914e-83
1.58968e-79
4.46467e-76
7.82862e-73
9.6356e-70
8.87337e-67
6.36471e-64
3.65593e-61
1.71637e-58
6.69063e-56
2.19316e-53
6.10926e-51
1.45919e-48
3.01186e-46
5.40989e-44
8.51029e-42
1.1795e-39
1.4486e-37
1.5854e-35
1.55489e-33
1.37408e-31
1.09981e-29
8.01099e-28
8.34109e-88
5.84689e-84
1.91912e-80
3.93613e-77
5.67378e-74
6.12891e-71
5.16659e-68
3.49551e-65
1.93767e-62
8.94249e-60
3.4805e-57
1.15473e-54
3.29572e-52
8.15711e-50
1.76346e-47
3.35202e-45
5.63708e-43
8.43705e-41
1.13041e-38
1.36354e-36
1.48898e-34
1.47965e-32
1.34462e-30
1.70235e-92
1.4135e-88
5.49728e-85
1.33683e-81
2.28703e-78
2.93591e-75
2.94589e-72
2.37674e-69
1.57441e-66
8.70287e-64
4.0672e-61
1.62459e-58
5.5984e-56
1.67808e-53
4.4075e-51
1.02129e-48
2.1011e-46
3.86129e-44
6.37636e-42
9.51647e-40
1.29082e-37
1.59959e-35
1.82e-33
2.14455e-97
2.14409e-93
1.0042e-89
2.94223e-86
6.06919e-83
9.40397e-80
1.14041e-76
1.1137e-73
8.94546e-71
6.00746e-68
3.4181e-65
1.66603e-62
7.02269e-60
2.58149e-57
8.33773e-55
2.38253e-52
6.06267e-50
1.38234e-47
2.84114e-45
5.29461e-43
8.99653e-41
1.40116e-38
2.01042e-36
1.54438e-102
1.8969e-98
1.09147e-94
3.92986e-91
9.96715e-88
1.90035e-84
2.83862e-81
3.41879e-78
3.39143e-75
2.81733e-72
1.98635e-69
1.20198e-66
6.30285e-64
2.88837e-61
1.16563e-58
4.17172e-56
1.33283e-53
3.82537e-51
9.92305e-49
2.34014e-46
5.04564e-44
9.99882e-42
1.83064e-39
5.62131e-108
8.70438e-104
6.31332e-100
2.86552e-96
9.16458e-93
2.20455e-89
4.15777e-86
6.32845e-83
7.94251e-80
8.35808e-77
7.47518e-74
5.74669e-71
3.8346e-68
2.24003e-65
1.15446e-62
5.28679e-60
2.16568e-57
7.98644e-55
2.66766e-52
8.119e-50
2.26428e-47
5.81721e-45
1.38408e-42
8.40949e-114
1.70029e-109
1.61008e-105
9.53932e-102
3.98263e-98
1.25094e-94
3.08204e-91
6.13215e-88
1.00682e-84
1.38734e-81
1.62643e-78
1.64086e-75
1.43868e-72
1.10581e-69
7.50975e-67
4.53874e-64
2.45782e-61
1.20025e-58
5.31852e-56
2.15134e-53
7.98914e-51
2.73831e-48
8.70959e-46
3.53774e-120
9.8625e-116
1.28448e-111
1.04594e-107
6.00005e-104
2.58947e-100
8.76751e-97
2.39808e-93
5.41536e-90
1.02694e-86
1.65806e-83
2.30567e-80
2.78905e-77
2.96066e-74
2.77997e-71
2.32589e-68
1.74589e-65
1.18349e-62
7.29042e-60
4.10589e-57
2.12628e-54
1.01794e-51
4.5298e-49
1.90765e-127
7.98822e-123
1.56028e-118
1.90353e-114
1.635e-110
1.0562e-106
5.35215e-103
2.19102e-99
7.40649e-96
2.10307e-92
5.08621e-89
1.05996e-85
1.92266e-82
3.06255e-79
4.31845e-76
5.4307e-73
6.13329e-70
6.26214e-67
5.81713e-64
4.94654e-61
3.87267e-58
2.80654e-55
1.89307e-52
1.01406e-136
7.86717e-132
2.83271e-127
6.35673e-123
1.00332e-118
1.19029e-114
1.10721e-110
8.31698e-107
5.15671e-103
2.68451e-99
1.18973e-95
4.54092e-92
1.50754e-88
4.39165e-85
1.13149e-81
2.59712e-78
5.34679e-75
9.93684e-72
1.67732e-68
2.58656e-65
3.66361e-62
4.78963e-59
5.80847e-56
1.1017e-149
2.20653e-144
1.93364e-139
1.04533e-134
3.96351e-130
1.12944e-125
2.52784e-121
4.58407e-117
6.8957e-113
8.76705e-109
9.56786e-105
9.08328e-101
7.59005e-97
5.6421e-93
3.7679e-89
2.28155e-85
1.26375e-81
6.45774e-78
3.0692e-74
1.36725e-70
5.74886e-67
2.29462e-63
8.72264e-60
)
;

boundaryField
{
    leftWall
    {
        type            zeroGradient;
    }
    rightWall
    {
        type            zeroGradient;
    }
    lowerWall
    {
        type            zeroGradient;
    }
    atmosphere
    {
        type            inletOutlet;
        inletValue      uniform 0;
        value           nonuniform List<scalar> 
23
(
0
0
0
0
0
0
0
0
0
0
0
0
0
0
0
0
0
0
0
0
0
0
8.72264e-60
)
;
    }
    defaultFaces
    {
        type            empty;
    }
    procBoundary2to0
    {
        type            processor;
        value           nonuniform List<scalar> 
24
(
0.999737
0.999613
0.999419
0.999141
0.998731
0.997959
0.993469
6.16549e-39
5.06871e-35
1.60114e-31
2.69543e-28
2.65295e-25
1.58608e-22
5.84761e-20
1.33083e-17
1.85092e-15
1.54715e-13
8.05896e-11
0.000520654
0.971136
0.972553
0.968746
0.963032
0.963032
)
;
    }
    procBoundary2to3
    {
        type            processor;
        value           nonuniform List<scalar> 
25
(
0.00512396
0.000123577
3.72881e-05
3.45483e-06
3.99443e-07
5.26292e-08
3.22621e-09
9.20631e-11
1.62643e-12
1.90203e-14
1.56245e-16
9.37685e-19
4.23276e-21
1.47077e-23
4.01069e-26
8.72915e-29
1.53969e-31
2.23222e-34
2.69556e-37
2.74501e-40
2.38378e-43
1.78136e-46
1.15134e-49
6.41385e-53
3.00943e-56
)
;
    }
}


// ************************************************************************* //
