/*--------------------------------*- C++ -*----------------------------------*\
| =========                 |                                                 |
| \\      /  F ield         | OpenFOAM: The Open Source CFD Toolbox           |
|  \\    /   O peration     | Version:  2.4.0                                 |
|   \\  /    A nd           | Web:      www.OpenFOAM.org                      |
|    \\/     M anipulation  |                                                 |
\*---------------------------------------------------------------------------*/
FoamFile
{
    version     2.0;
    format      ascii;
    class       volScalarField;
    location    "0.05";
    object      alpha.mercury;
}
// * * * * * * * * * * * * * * * * * * * * * * * * * * * * * * * * * * * * * //

dimensions      [0 0 0 0 0 0 0];

internalField   nonuniform List<scalar> 
559
(
6.2935e-60
8.77988e-58
1.08032e-55
1.18593e-53
2.44599e-51
4.19524e-48
1.79599e-44
5.27854e-104
8.69651e-100
5.85088e-96
2.29649e-92
5.90914e-89
1.0556e-85
1.35287e-82
1.27073e-79
8.89403e-77
4.70818e-74
1.94038e-71
6.12497e-69
1.0477e-66
1.92348e-64
3.16121e-62
4.86902e-60
6.98273e-58
8.9804e-56
1.01944e-53
1.03122e-51
1.96198e-49
2.76713e-46
9.22335e-44
2.20303e-101
3.27909e-97
1.98729e-93
6.99963e-90
1.61136e-86
2.56853e-83
2.93097e-80
2.44821e-77
1.52417e-74
7.20221e-72
2.65034e-69
7.50602e-67
1.54381e-64
2.63635e-62
4.04261e-60
5.75633e-58
7.5283e-56
8.8837e-54
9.18777e-52
8.07029e-50
5.76733e-48
3.2704e-46
1.31102e-44
9.3843e-105
1.39486e-100
1.05611e-96
4.82041e-93
1.44502e-89
2.98657e-86
4.38107e-83
4.64181e-80
3.58463e-77
2.01972e-74
8.24926e-72
2.50256e-69
5.97941e-67
1.44202e-64
3.15123e-62
5.96519e-60
9.76712e-58
1.34317e-55
1.50713e-53
1.33502e-51
9.11868e-50
4.85075e-48
2.16747e-46
3.1451e-107
4.74653e-103
3.24609e-99
1.3197e-95
3.55455e-92
6.71063e-89
9.18666e-86
9.32764e-83
7.14028e-80
4.17507e-77
1.88978e-74
6.7204e-72
1.92702e-69
4.73194e-67
1.00857e-64
1.87344e-62
3.03238e-60
4.26442e-58
5.20511e-56
5.5161e-54
5.00927e-52
3.68474e-50
2.16995e-48
1.97846e-110
3.17201e-106
2.29906e-102
9.92381e-99
2.84613e-95
5.7441e-92
8.44869e-89
9.27515e-86
7.73597e-83
4.97504e-80
2.5029e-77
1.00222e-74
3.27616e-72
9.05033e-70
2.13032e-67
4.30067e-65
7.48355e-63
1.12732e-60
1.47423e-58
1.67086e-56
1.62508e-54
1.35248e-52
1.03301e-50
4.8198e-114
8.22578e-110
6.3165e-106
2.89374e-102
8.84229e-99
1.91252e-95
3.03758e-92
3.63296e-89
3.33469e-86
2.38715e-83
1.35287e-80
6.16828e-78
2.30492e-75
7.18975e-73
1.89152e-70
4.23231e-68
8.12619e-66
1.35316e-63
1.97815e-61
2.56882e-59
2.98578e-57
3.12619e-55
2.98647e-53
7.15359e-118
1.32841e-113
1.11081e-109
5.55228e-106
1.857e-102
4.41437e-99
7.74412e-96
1.02903e-92
1.0564e-89
8.51743e-87
5.47461e-84
2.84651e-81
1.21482e-78
4.31114e-76
1.28516e-73
3.2475e-71
7.02563e-69
1.31711e-66
2.17119e-64
3.19748e-62
4.27417e-60
5.27111e-58
6.14292e-56
6.12663e-122
1.25545e-117
1.16049e-113
6.4276e-110
2.38947e-106
6.33652e-103
1.24529e-99
1.86255e-96
2.16335e-93
1.98384e-90
1.45731e-87
8.69105e-85
4.2604e-82
1.73572e-79
5.93457e-77
1.71882e-74
4.26087e-72
9.15578e-70
1.73251e-67
2.94196e-65
4.57637e-63
6.66033e-61
9.26439e-59
3.26858e-126
7.49062e-122
7.75935e-118
4.82898e-114
2.02323e-110
6.06707e-107
1.35317e-103
2.30575e-100
3.06331e-97
3.22584e-94
2.73089e-91
1.88211e-88
1.06808e-85
5.04254e-83
1.99942e-80
6.7215e-78
1.93586e-75
4.83712e-73
1.06511e-70
2.10706e-68
3.82872e-66
6.5422e-64
1.07574e-61
1.1327e-130
2.93951e-126
3.45316e-122
2.4433e-118
1.16737e-114
4.00488e-111
1.02524e-107
2.01175e-104
3.08778e-101
3.76825e-98
3.70735e-95
2.97645e-92
1.97144e-89
1.08806e-86
5.05142e-84
1.99159e-81
6.73813e-79
1.98035e-76
5.13194e-74
1.19449e-71
2.55189e-69
5.12497e-67
9.91154e-65
2.60606e-135
7.75717e-131
1.04513e-126
8.49648e-123
4.67729e-119
1.85468e-115
5.50518e-112
1.25629e-108
2.24887e-105
3.20918e-102
3.70073e-99
3.48995e-96
2.72044e-93
1.77026e-90
9.70811e-88
4.52997e-85
1.81728e-82
6.34209e-80
1.95254e-77
5.39478e-75
1.36492e-72
3.23558e-70
7.36299e-68
4.01036e-140
1.38943e-135
2.17305e-131
2.05105e-127
1.31356e-123
6.07723e-120
2.11121e-116
5.65539e-113
1.19158e-109
2.00624e-106
2.73552e-103
3.0563e-100
2.82777e-97
2.18809e-94
1.42956e-91
7.9622e-89
3.81962e-86
1.59623e-83
5.88744e-81
1.94696e-78
5.87928e-76
1.65585e-73
4.45293e-71
4.10574e-145
1.68521e-140
3.10389e-136
3.44147e-132
2.59011e-128
1.41119e-124
5.78965e-121
1.83705e-117
4.59746e-114
9.2163e-111
1.49937e-107
2.00253e-104
2.21872e-101
2.05945e-98
1.61687e-95
1.08405e-92
6.27032e-90
3.16329e-87
1.409e-84
5.62202e-82
2.04275e-79
6.88994e-77
2.20519e-74
2.7483e-150
1.36467e-145
3.01333e-141
3.98232e-137
3.56421e-133
2.31033e-129
1.12999e-125
4.28627e-122
1.286e-118
3.09848e-115
6.07191e-112
9.78699e-109
1.31087e-105
1.47329e-102
1.40273e-99
1.14228e-96
8.03568e-94
4.93519e-91
2.6768e-88
1.29949e-85
5.73057e-83
2.33559e-80
8.9774e-78
1.16698e-155
7.18287e-151
1.94298e-146
3.11782e-142
3.3694e-138
2.63118e-134
1.55098e-130
7.10472e-127
2.58105e-123
7.54987e-120
1.80051e-116
3.53902e-113
5.79024e-110
7.96136e-107
9.28628e-104
9.27592e-101
8.01318e-98
6.04768e-95
4.0313e-92
2.40327e-89
1.29859e-86
6.46018e-84
3.01382e-81
3.00334e-161
2.35645e-156
8.01167e-152
1.59718e-147
2.12593e-143
2.03342e-139
1.46473e-135
8.20245e-132
3.64979e-128
1.31089e-124
3.84845e-121
9.33272e-118
1.88734e-114
3.21243e-111
4.6445e-108
5.75665e-105
6.17594e-102
5.79126e-99
4.79611e-96
3.54949e-93
2.37631e-90
1.45981e-87
8.36807e-85
4.39207e-167
4.52931e-162
1.99477e-157
5.08007e-153
8.54026e-149
1.0228e-144
9.17362e-141
6.38196e-137
3.52872e-133
1.5777e-129
5.77967e-126
1.75313e-122
4.44349e-119
9.49504e-116
1.72563e-112
2.69114e-109
3.63512e-106
4.2929e-103
4.47653e-100
4.16817e-97
3.50459e-94
2.69602e-91
1.92692e-88
3.33133e-173
4.6641e-168
2.75307e-163
9.26345e-159
2.02957e-154
3.13167e-150
3.58768e-146
3.17039e-142
2.2213e-138
1.25865e-134
5.85349e-131
2.25903e-127
7.30079e-124
1.99293e-120
4.63338e-117
9.25248e-114
1.60126e-110
2.42308e-107
3.23669e-104
3.85734e-101
4.14426e-98
4.06339e-95
3.68755e-92
1.13846e-179
2.25297e-174
1.85146e-169
8.56416e-165
2.54338e-160
5.24628e-156
7.9431e-152
9.19721e-148
8.39547e-144
6.18211e-140
3.7366e-136
1.87698e-132
7.91162e-129
2.82241e-125
8.58927e-122
2.2476e-118
5.10027e-115
1.01205e-111
1.77207e-108
2.76599e-105
3.88612e-102
4.97128e-99
5.86635e-96
1.38339e-186
4.11102e-181
4.94354e-176
3.29624e-171
1.39348e-166
4.03333e-162
8.45144e-158
1.33901e-153
1.65786e-149
1.6463e-145
1.33843e-141
9.04188e-138
5.13234e-134
2.47025e-130
1.01603e-126
3.59812e-123
1.10583e-119
2.97238e-116
7.04778e-113
1.48846e-109
2.82539e-106
4.87294e-103
7.72917e-100
3.91399e-194
1.91448e-188
3.64214e-183
3.74196e-178
2.40089e-173
1.04117e-168
3.2226e-164
7.43883e-160
1.3264e-155
1.88022e-151
2.16941e-147
2.07406e-143
1.66557e-139
1.13549e-135
6.62596e-132
3.33399e-128
1.45738e-124
5.57367e-121
1.88004e-117
5.64438e-114
1.52098e-110
3.71667e-107
8.329e-104
1.10262e-202
1.01914e-196
3.47681e-191
6.16346e-186
6.64464e-181
4.76677e-176
2.40987e-171
8.95808e-167
2.5363e-162
5.64273e-158
1.01275e-153
1.49692e-149
1.85287e-145
1.94602e-141
1.75093e-137
1.36023e-133
9.19072e-130
5.4362e-126
2.83607e-122
1.31616e-118
5.47515e-115
2.06161e-111
7.10012e-108
2.14036e-213
4.86465e-207
3.87654e-201
1.519e-195
3.48067e-190
5.16517e-185
5.31969e-180
3.97723e-175
2.23133e-170
9.6947e-166
3.35628e-161
9.47241e-157
2.22225e-152
4.4037e-148
7.45767e-144
1.089e-139
1.38143e-135
1.53119e-131
1.49304e-127
1.29048e-123
9.95023e-120
6.90439e-116
4.3512e-112
1.11161e-227
6.33875e-221
1.61498e-214
1.898e-208
1.23121e-202
4.96753e-197
1.35854e-191
2.66837e-186
3.90222e-181
4.39011e-176
3.91858e-171
2.84865e-166
1.72817e-161
8.93494e-157
4.00187e-152
1.57356e-147
5.49009e-143
1.71262e-138
4.81961e-134
1.23448e-129
2.89645e-125
6.28484e-121
1.26866e-116
)
;

boundaryField
{
    leftWall
    {
        type            zeroGradient;
    }
    rightWall
    {
        type            zeroGradient;
    }
    lowerWall
    {
        type            zeroGradient;
    }
    atmosphere
    {
        type            inletOutlet;
        inletValue      uniform 0;
        value           nonuniform List<scalar> 
23
(
0
0
0
0
0
0
0
0
0
0
0
0
0
0
0
0
0
0
0
0
0
0
1.26866e-116
)
;
    }
    defaultFaces
    {
        type            empty;
    }
    procBoundary2to0
    {
        type            processor;
        value           nonuniform List<scalar> 
24
(
5.51445e-62
8.44399e-60
1.12998e-57
1.33309e-55
2.91166e-53
5.89203e-50
3.61899e-46
1.15015e-106
2.09474e-102
1.56588e-98
6.85584e-95
1.97395e-91
3.95627e-88
5.70096e-85
6.03068e-82
4.75838e-79
2.83698e-76
1.31127e-73
4.64561e-71
6.56317e-69
1.30632e-66
2.37423e-64
4.0283e-62
4.0283e-62
)
;
    }
    procBoundary2to3
    {
        type            processor;
        value           nonuniform List<scalar> 
25
(
3.88495e-41
5.0846e-42
3.84513e-43
8.64357e-45
1.11174e-46
5.86416e-49
2.17492e-51
5.09042e-54
9.02424e-57
1.23406e-59
1.34176e-62
1.18218e-65
8.54791e-69
5.11614e-72
2.54984e-75
1.06289e-78
3.72013e-82
1.09756e-85
2.74124e-89
5.82182e-93
1.05579e-96
1.63958e-100
2.17887e-104
2.45517e-108
2.27589e-112
)
;
    }
}


// ************************************************************************* //
