/*--------------------------------*- C++ -*----------------------------------*\
| =========                 |                                                 |
| \\      /  F ield         | OpenFOAM: The Open Source CFD Toolbox           |
|  \\    /   O peration     | Version:  2.4.0                                 |
|   \\  /    A nd           | Web:      www.OpenFOAM.org                      |
|    \\/     M anipulation  |                                                 |
\*---------------------------------------------------------------------------*/
FoamFile
{
    version     2.0;
    format      ascii;
    class       surfaceScalarField;
    location    "0.05";
    object      phi.oil;
}
// * * * * * * * * * * * * * * * * * * * * * * * * * * * * * * * * * * * * * //

dimensions      [0 3 -1 0 0 0 0];

internalField   nonuniform List<scalar> 
1070
(
1.84137e-06
-7.12416e-05
1.5875e-06
-7.44718e-05
1.28656e-06
-7.77417e-05
1.07846e-06
-8.13521e-05
1.28138e-07
-8.40161e-05
-2.99255e-07
-8.61506e-05
-8.7298e-05
8.85741e-09
-6.98133e-05
2.0646e-08
-7.03683e-05
3.44822e-08
-7.04252e-05
4.65073e-08
-7.0503e-05
5.82465e-08
-7.05701e-05
6.9577e-08
-7.05892e-05
7.97883e-08
-7.0509e-05
8.69405e-08
-7.0252e-05
7.95971e-08
-6.97064e-05
3.5791e-08
-6.87528e-05
-2.64425e-09
-6.88501e-05
4.96438e-08
-6.40897e-05
1.34826e-07
-6.6108e-05
2.25967e-07
-6.24691e-05
1.92547e-07
-5.55761e-05
1.17183e-07
-5.1234e-05
2.37602e-08
-5.06014e-05
-8.27612e-08
-5.10139e-05
-6.67382e-07
-5.16284e-05
-1.15351e-06
-5.37229e-05
-1.54415e-06
-5.64756e-05
-2.4784e-06
-6.45778e-05
-6.04611e-05
-1.27413e-06
-4.84785e-05
-2.85579e-06
-4.84838e-05
-4.47468e-06
-4.89146e-05
-6.23455e-06
-4.94798e-05
-8.20894e-06
-5.01944e-05
-1.04659e-05
-5.10543e-05
-1.30674e-05
-5.20502e-05
-1.60537e-05
-5.31819e-05
-1.94097e-05
-5.44675e-05
-2.3009e-05
-5.58965e-05
-1.52282e-05
-5.6036e-05
-1.74237e-05
-4.34501e-05
-1.71157e-05
-4.43075e-05
-1.708e-05
-4.59297e-05
-1.77343e-05
-4.72684e-05
-1.93101e-05
-4.84509e-05
-2.19063e-05
-5.03408e-05
-2.55131e-05
-5.22337e-05
-3.0983e-05
-5.40698e-05
-3.98105e-05
-5.58904e-05
-4.42505e-05
-5.27126e-05
-6.5185e-05
-3.10414e-05
-1.39926e-05
-1.31289e-06
-4.71636e-05
-2.3456e-06
-4.74488e-05
-3.55582e-06
-4.77021e-05
-4.95535e-06
-4.80779e-05
-6.58452e-06
-4.85628e-05
-8.50581e-06
-4.91305e-05
-1.08088e-05
-4.97448e-05
-1.3632e-05
-5.03564e-05
-1.72142e-05
-5.08834e-05
-2.19386e-05
-5.1171e-05
-2.7385e-05
-5.10145e-05
-3.24113e-05
-4.98632e-05
-3.01506e-05
-4.68019e-05
-3.15657e-05
-4.58341e-05
-3.51257e-05
-4.54414e-05
-3.976e-05
-4.5437e-05
-4.66078e-05
-4.54817e-05
-5.60705e-05
-4.49091e-05
-6.91547e-05
-4.31479e-05
-8.63776e-05
-4.10078e-05
-0.000103942
-3.97413e-05
-9.22563e-05
-2.87676e-05
-5.20931e-06
-1.47733e-06
-4.56833e-05
-2.96348e-06
-4.59598e-05
-4.53625e-06
-4.61264e-05
-6.23663e-06
-4.63747e-05
-8.11311e-06
-4.66837e-05
-1.02142e-05
-4.70269e-05
-1.25906e-05
-4.73661e-05
-1.52945e-05
-4.76506e-05
-1.83746e-05
-4.78018e-05
-2.1839e-05
-4.77054e-05
-2.56643e-05
-4.71881e-05
-2.95268e-05
-4.59993e-05
-3.21997e-05
-4.41278e-05
-3.49258e-05
-4.31066e-05
-3.81493e-05
-4.22158e-05
-4.22065e-05
-4.13768e-05
-4.73497e-05
-4.0335e-05
-5.34665e-05
-3.8789e-05
-6.02033e-05
-3.64076e-05
-6.81048e-05
-3.31045e-05
-8.07406e-05
-2.71833e-05
-9.45758e-05
-1.19259e-05
6.96441e-06
-1.51373e-06
-4.41673e-05
-3.04569e-06
-4.44255e-05
-4.65548e-06
-4.45143e-05
-6.38327e-06
-4.46447e-05
-8.27145e-06
-4.47934e-05
-1.03607e-05
-4.49358e-05
-1.26878e-05
-4.50373e-05
-1.52868e-05
-4.50502e-05
-1.81784e-05
-4.49092e-05
-2.13461e-05
-4.45368e-05
-2.46956e-05
-4.38378e-05
-2.79476e-05
-4.27466e-05
-3.06916e-05
-4.13831e-05
-3.36795e-05
-4.01176e-05
-3.70708e-05
-3.88225e-05
-4.10823e-05
-3.73631e-05
-4.58738e-05
-3.55407e-05
-5.15623e-05
-3.30975e-05
-5.82465e-05
-2.97208e-05
-6.62241e-05
-2.51251e-05
-7.47548e-05
-1.86523e-05
-7.7568e-05
-9.26678e-06
3.38417e-06
-1.55791e-06
-4.26079e-05
-3.14987e-06
-4.2832e-05
-4.80348e-06
-4.28593e-05
-6.55525e-06
-4.28916e-05
-8.43589e-06
-4.29115e-05
-1.04751e-05
-4.28954e-05
-1.2699e-05
-4.28123e-05
-1.51257e-05
-4.26224e-05
-1.77568e-05
-4.22774e-05
-2.057e-05
-4.1723e-05
-2.34977e-05
-4.09095e-05
-2.64208e-05
-3.98229e-05
-2.9275e-05
-3.85282e-05
-3.22849e-05
-3.71068e-05
-3.55793e-05
-3.55271e-05
-3.92478e-05
-3.36925e-05
-4.33296e-05
-3.14567e-05
-4.77919e-05
-2.8633e-05
-5.25102e-05
-2.50008e-05
-5.73716e-05
-2.02626e-05
-6.19569e-05
-1.40669e-05
-6.53119e-05
-5.90998e-06
3.44115e-06
-1.57128e-06
-4.10358e-05
-3.17548e-06
-4.1227e-05
-4.83268e-06
-4.12013e-05
-6.57079e-06
-4.11528e-05
-8.41486e-06
-4.10667e-05
-1.03871e-05
-4.09225e-05
-1.2505e-05
-4.06937e-05
-1.47779e-05
-4.03489e-05
-1.72027e-05
-3.98521e-05
-1.9759e-05
-3.91662e-05
-2.24057e-05
-3.82624e-05
-2.50956e-05
-3.71325e-05
-2.78297e-05
-3.57935e-05
-3.0681e-05
-3.42549e-05
-3.37179e-05
-3.2489e-05
-3.69847e-05
-3.04246e-05
-4.0486e-05
-2.79538e-05
-4.41752e-05
-2.49423e-05
-4.79386e-05
-2.12363e-05
-5.1532e-05
-1.66687e-05
-5.45001e-05
-1.10984e-05
-5.58843e-05
-4.52638e-06
2.79063e-06
-1.56003e-06
-3.94754e-05
-3.14976e-06
-3.9637e-05
-4.78375e-06
-3.9567e-05
-6.48349e-06
-3.94527e-05
-8.26881e-06
-3.9281e-05
-1.01562e-05
-3.90348e-05
-1.21571e-05
-3.86924e-05
-1.42768e-05
-3.82289e-05
-1.65115e-05
-3.76171e-05
-1.8847e-05
-3.68305e-05
-2.12611e-05
-3.5848e-05
-2.37349e-05
-3.46583e-05
-2.62714e-05
-3.32566e-05
-2.8894e-05
-3.16316e-05
-3.16288e-05
-2.97536e-05
-3.44842e-05
-2.75682e-05
-3.74366e-05
-2.50003e-05
-4.04175e-05
-2.19604e-05
-4.32981e-05
-1.83551e-05
-4.58647e-05
-1.41019e-05
-4.77992e-05
-9.16408e-06
-4.87058e-05
-3.61957e-06
2.28636e-06
-1.52687e-06
-3.79484e-05
-3.07944e-06
-3.80843e-05
-4.66812e-06
-3.79781e-05
-6.30992e-06
-3.78108e-05
-8.01993e-06
-3.75709e-05
-9.81028e-06
-3.72443e-05
-1.16891e-05
-3.68135e-05
-1.36592e-05
-3.62586e-05
-1.57173e-05
-3.55587e-05
-1.78542e-05
-3.46934e-05
-2.0057e-05
-3.3645e-05
-2.23153e-05
-3.23997e-05
-2.46265e-05
-3.0945e-05
-2.69941e-05
-2.92636e-05
-2.94192e-05
-2.73278e-05
-3.1889e-05
-2.50977e-05
-3.4366e-05
-2.25225e-05
-3.67788e-05
-1.9547e-05
-3.90128e-05
-1.61207e-05
-4.09016e-05
-1.22129e-05
-4.22299e-05
-7.83575e-06
-4.27712e-05
-3.07884e-06
1.87745e-06
-1.47536e-06
-3.6473e-05
-2.97264e-06
-3.65869e-05
-4.49892e-06
-3.64518e-05
-6.06751e-06
-3.62421e-05
-7.68991e-06
-3.59484e-05
-9.37508e-06
-3.5559e-05
-1.11286e-05
-3.50598e-05
-1.29522e-05
-3.44349e-05
-1.4843e-05
-3.36677e-05
-1.67946e-05
-3.27417e-05
-1.87978e-05
-3.16415e-05
-2.0844e-05
-3.03533e-05
-2.29262e-05
-2.88625e-05
-2.50373e-05
-2.7152e-05
-2.71656e-05
-2.51992e-05
-2.92873e-05
-2.29754e-05
-3.13607e-05
-2.04486e-05
-3.33198e-05
-1.75875e-05
-3.50706e-05
-1.43698e-05
-3.64909e-05
-1.07927e-05
-3.74399e-05
-6.88701e-06
-3.77851e-05
-2.73343e-06
1.53482e-06
-1.40899e-06
-3.5064e-05
-2.83653e-06
-3.51594e-05
-4.287e-06
-3.50014e-05
-5.77075e-06
-3.47584e-05
-7.29647e-06
-3.44227e-05
-8.87072e-06
-3.39848e-05
-1.04973e-05
-3.34331e-05
-1.2177e-05
-3.27552e-05
-1.39073e-05
-3.19373e-05
-1.56827e-05
-3.09662e-05
-1.74956e-05
-2.98285e-05
-1.93371e-05
-2.85115e-05
-2.11973e-05
-2.7002e-05
-2.30639e-05
-2.52851e-05
-2.49188e-05
-2.33438e-05
-2.67348e-05
-2.1159e-05
-2.84712e-05
-1.87119e-05
-3.00712e-05
-1.59873e-05
-3.14609e-05
-1.298e-05
-3.25524e-05
-9.70121e-06
-3.32526e-05
-6.18687e-06
-3.34818e-05
-2.50456e-06
1.24742e-06
-1.3308e-06
-3.37333e-05
-2.6772e-06
-3.3813e-05
-4.04149e-06
-3.36371e-05
-5.43158e-06
-3.33683e-05
-6.85398e-06
-3.30003e-05
-8.3134e-06
-3.25253e-05
-9.81232e-06
-3.19342e-05
-1.13507e-05
-3.12167e-05
-1.2926e-05
-3.0362e-05
-1.45331e-05
-2.9359e-05
-1.61647e-05
-2.81967e-05
-1.78116e-05
-2.68644e-05
-1.94625e-05
-2.53509e-05
-2.11024e-05
-2.36449e-05
-2.27116e-05
-2.17343e-05
-2.42628e-05
-1.96075e-05
-2.57194e-05
-1.72549e-05
-2.70345e-05
-1.46721e-05
-2.81512e-05
-1.18633e-05
-2.90064e-05
-8.84613e-06
-2.95378e-05
-5.65561e-06
-2.96952e-05
-2.34704e-06
1.00512e-06
-1.24334e-06
-3.249e-05
-2.49976e-06
-3.25567e-05
-3.7699e-06
-3.2367e-05
-5.05975e-06
-3.20785e-05
-6.37408e-06
-3.1686e-05
-7.71614e-06
-3.11833e-05
-9.08736e-06
-3.0563e-05
-1.04871e-05
-2.98169e-05
-1.19125e-05
-2.89365e-05
-1.33587e-05
-2.79127e-05
-1.48184e-05
-2.67369e-05
-1.62824e-05
-2.54003e-05
-1.77386e-05
-2.38945e-05
-1.9172e-05
-2.22112e-05
-2.05629e-05
-2.0343e-05
-2.18864e-05
-1.82838e-05
-2.31107e-05
-1.60304e-05
-2.41979e-05
-1.35848e-05
-2.51048e-05
-1.09565e-05
-2.57857e-05
-8.16519e-06
-2.61984e-05
-5.24302e-06
-2.63104e-05
-2.2353e-06
8.01032e-07
-1.14876e-06
-3.13413e-05
-2.3084e-06
-3.13971e-05
-3.47839e-06
-3.1197e-05
-4.66317e-06
-3.08937e-05
-5.86614e-06
-3.04831e-05
-7.08941e-06
-2.996e-05
-8.33357e-06
-2.93188e-05
-9.59749e-06
-2.8553e-05
-1.08782e-05
-2.76558e-05
-1.21706e-05
-2.66202e-05
-1.34679e-05
-2.54395e-05
-1.47609e-05
-2.41072e-05
-1.60379e-05
-2.26172e-05
-1.72845e-05
-2.09644e-05
-1.84826e-05
-1.91447e-05
-1.961e-05
-1.71561e-05
-2.06403e-05
-1.49999e-05
-2.15432e-05
-1.26818e-05
-2.22859e-05
-1.02139e-05
-2.28352e-05
-7.61595e-06
-2.31617e-05
-4.91663e-06
-2.32437e-05
-2.15318e-06
6.29283e-07
-1.04875e-06
-3.02926e-05
-2.10652e-06
-3.03394e-05
-3.17194e-06
-3.01317e-05
-4.24821e-06
-2.98175e-05
-5.33766e-06
-2.93936e-05
-6.44154e-06
-2.88562e-05
-7.5598e-06
-2.82005e-05
-8.69094e-06
-2.74218e-05
-9.83183e-06
-2.65148e-05
-1.09777e-05
-2.54743e-05
-1.21218e-05
-2.42953e-05
-1.32555e-05
-2.29733e-05
-1.4368e-05
-2.15045e-05
-1.54461e-05
-1.98861e-05
-1.64735e-05
-1.81169e-05
-1.74317e-05
-1.61979e-05
-1.82986e-05
-1.41329e-05
-1.90503e-05
-1.193e-05
-1.96619e-05
-9.60232e-06
-2.01091e-05
-7.16881e-06
-2.0371e-05
-4.65472e-06
-2.04331e-05
-2.09125e-06
4.85621e-07
-9.44722e-07
-2.93479e-05
-1.89686e-06
-2.93873e-05
-2.85451e-06
-2.91741e-05
-3.81993e-06
-2.88521e-05
-4.7946e-06
-2.8419e-05
-5.77913e-06
-2.78716e-05
-6.77301e-06
-2.72067e-05
-7.77451e-06
-2.64203e-05
-8.78051e-06
-2.55088e-05
-9.78642e-06
-2.44683e-05
-1.0786e-05
-2.32956e-05
-1.17714e-05
-2.19878e-05
-1.27329e-05
-2.05429e-05
-1.36585e-05
-1.89602e-05
-1.45347e-05
-1.72406e-05
-1.53455e-05
-1.53869e-05
-1.60731e-05
-1.34051e-05
-1.66989e-05
-1.13042e-05
-1.72037e-05
-9.09753e-06
-1.75697e-05
-6.80291e-06
-1.77819e-05
-4.44258e-06
-1.78301e-05
-2.043e-06
3.66092e-07
-8.37761e-07
-2.85102e-05
-1.68156e-06
-2.85435e-05
-2.52923e-06
-2.83265e-05
-3.38227e-06
-2.79991e-05
-4.24157e-06
-2.75597e-05
-5.10724e-06
-2.7006e-05
-5.9785e-06
-2.63354e-05
-6.8535e-06
-2.55453e-05
-7.72926e-06
-2.4633e-05
-8.60151e-06
-2.35961e-05
-9.46463e-06
-2.24324e-05
-1.03116e-05
-2.11407e-05
-1.11338e-05
-1.97206e-05
-1.19211e-05
-1.81728e-05
-1.26619e-05
-1.64996e-05
-1.33432e-05
-1.47056e-05
-1.39507e-05
-1.27975e-05
-1.44697e-05
-1.07851e-05
-1.48857e-05
-8.68156e-06
-1.51854e-05
-6.50322e-06
-1.53581e-05
-4.26999e-06
-1.53965e-05
-2.00472e-06
2.67878e-07
-7.28743e-07
-2.77815e-05
-1.46231e-06
-2.781e-05
-2.1985e-06
-2.75903e-05
-2.93829e-06
-2.72594e-05
-3.68209e-06
-2.6816e-05
-4.4297e-06
-2.62584e-05
-5.18018e-06
-2.5585e-05
-5.93171e-06
-2.47938e-05
-6.68152e-06
-2.38832e-05
-7.42577e-06
-2.28518e-05
-8.15953e-06
-2.16986e-05
-8.87669e-06
-2.04235e-05
-9.56988e-06
-1.90273e-05
-1.02306e-05
-1.75119e-05
-1.08494e-05
-1.58808e-05
-1.14154e-05
-1.41394e-05
-1.19176e-05
-1.22953e-05
-1.23445e-05
-1.03583e-05
-1.2685e-05
-8.34106e-06
-1.29294e-05
-6.25895e-06
-1.30697e-05
-4.12978e-06
-1.31008e-05
-1.97353e-06
1.88342e-07
-6.18287e-07
-2.71633e-05
-1.24034e-06
-2.7188e-05
-1.86414e-06
-2.69666e-05
-2.49024e-06
-2.66334e-05
-3.11873e-06
-2.61875e-05
-3.74924e-06
-2.56279e-05
-4.38077e-06
-2.49535e-05
-5.01164e-06
-2.41629e-05
-5.63936e-06
-2.32555e-05
-6.26062e-06
-2.22305e-05
-6.87119e-06
-2.1088e-05
-7.46592e-06
-1.98287e-05
-8.03873e-06
-1.84544e-05
-8.58268e-06
-1.69678e-05
-9.08988e-06
-1.53734e-05
-9.55217e-06
-1.36771e-05
-9.96059e-06
-1.18868e-05
-1.03065e-05
-1.00124e-05
-1.05815e-05
-8.06616e-06
-1.07784e-05
-6.06219e-06
-1.08914e-05
-4.01683e-06
-1.0917e-05
-1.94804e-06
1.25733e-07
-5.06952e-07
-2.66564e-05
-1.01655e-06
-2.66785e-05
-1.52744e-06
-2.64557e-05
-2.03974e-06
-2.61211e-05
-2.55332e-06
-2.5674e-05
-3.06772e-06
-2.51136e-05
-3.58201e-06
-2.44392e-05
-4.0947e-06
-2.36503e-05
-4.60369e-06
-2.27465e-05
-5.10622e-06
-2.1728e-05
-5.59881e-06
-2.05954e-05
-6.07728e-06
-1.93502e-05
-6.53674e-06
-1.79948e-05
-6.97165e-06
-1.65328e-05
-7.37605e-06
-1.49691e-05
-7.74328e-06
-1.33098e-05
-8.06684e-06
-1.15634e-05
-8.34008e-06
-9.73938e-06
-8.55686e-06
-7.84955e-06
-8.71194e-06
-5.9073e-06
-8.80131e-06
-3.92766e-06
-8.82238e-06
-1.92686e-06
7.82683e-08
-3.93853e-07
-2.62627e-05
-7.9133e-07
-2.62811e-05
-1.18923e-06
-2.60579e-05
-1.58779e-06
-2.57227e-05
-1.9869e-06
-2.5275e-05
-2.38611e-06
-2.47144e-05
-2.78464e-06
-2.40407e-05
-3.18127e-06
-2.32537e-05
-3.57432e-06
-2.23535e-05
-3.96162e-06
-2.13407e-05
-4.34046e-06
-2.02166e-05
-4.70761e-06
-1.8983e-05
-5.05934e-06
-1.76431e-05
-5.39151e-06
-1.62007e-05
-5.69948e-06
-1.4661e-05
-5.9786e-06
-1.30309e-05
-6.2239e-06
-1.13183e-05
-6.43066e-06
-9.53287e-06
-6.59452e-06
-7.68595e-06
-6.71186e-06
-5.79022e-06
-6.77988e-06
-3.85972e-06
-6.79723e-06
-1.90967e-06
4.50253e-08
-2.80875e-07
-2.59819e-05
-5.64764e-07
-2.59973e-05
-8.4901e-07
-2.57738e-05
-1.13357e-06
-2.54382e-05
-1.41826e-06
-2.49904e-05
-1.70276e-06
-2.443e-05
-1.98648e-06
-2.37571e-05
-2.26854e-06
-2.29717e-05
-2.54772e-06
-2.20743e-05
-2.82246e-06
-2.1066e-05
-3.09084e-06
-1.99482e-05
-3.35056e-06
-1.87233e-05
-3.59899e-06
-1.73947e-05
-3.83319e-06
-1.59665e-05
-4.0501e-06
-1.44443e-05
-4.24629e-06
-1.28348e-05
-4.4185e-06
-1.11463e-05
-4.56352e-06
-9.38817e-06
-4.67846e-06
-7.57133e-06
-4.761e-06
-5.70796e-06
-4.80952e-06
-3.81141e-06
-4.82313e-06
-1.89614e-06
2.52227e-08
-1.60532e-07
-2.58214e-05
-3.24298e-07
-2.58336e-05
-4.88383e-07
-2.56097e-05
-6.52474e-07
-2.52741e-05
-8.16616e-07
-2.48262e-05
-9.80744e-07
-2.42659e-05
-1.14462e-06
-2.35932e-05
-1.30783e-06
-2.28085e-05
-1.46977e-06
-2.19124e-05
-1.62964e-06
-2.09061e-05
-1.78644e-06
-1.97914e-05
-1.93899e-06
-1.85708e-05
-2.08588e-06
-1.72478e-05
-2.22559e-06
-1.58269e-05
-2.35637e-06
-1.43136e-05
-2.47645e-06
-1.2715e-05
-2.58395e-06
-1.1039e-05
-2.67704e-06
-9.29533e-06
-2.7541e-06
-7.49453e-06
-2.81381e-06
-5.64848e-06
-2.85542e-06
-3.77006e-06
-2.87848e-06
-1.87322e-06
2.1164e-08
-7.36456e-08
-1.57338e-07
-2.38063e-07
-3.171e-07
-3.94593e-07
-4.70297e-07
-5.43798e-07
-6.14582e-07
-6.82055e-07
-7.4556e-07
-8.04396e-07
-8.5783e-07
-9.05132e-07
-9.45598e-07
-9.78589e-07
-1.00356e-06
-1.02009e-06
-1.02797e-06
-1.02725e-06
-1.01844e-06
-1.00281e-06
-9.83749e-07
)
;

boundaryField
{
    leftWall
    {
        type            fixedValue;
        value           uniform 0;
    }
    rightWall
    {
        type            fixedValue;
        value           nonuniform 0();
    }
    lowerWall
    {
        type            fixedValue;
        value           nonuniform 0();
    }
    atmosphere
    {
        type            calculated;
        value           nonuniform List<scalar> 
23
(
-2.57477e-05
-2.57499e-05
-2.5529e-05
-2.51951e-05
-2.47488e-05
-2.41902e-05
-2.35197e-05
-2.27377e-05
-2.18449e-05
-2.08426e-05
-1.97326e-05
-1.85174e-05
-1.72005e-05
-1.57864e-05
-1.42807e-05
-1.26901e-05
-1.10226e-05
-9.28754e-06
-7.49533e-06
-5.6574e-06
-3.78575e-06
-1.89239e-06
8.28718e-09
)
;
    }
    defaultFaces
    {
        type            empty;
        value           nonuniform 0();
    }
    procBoundary2to0
    {
        type            processor;
        value           nonuniform List<scalar> 
24
(
5.83413e-05
6.24169e-05
6.69198e-05
7.13058e-05
7.64818e-05
8.23104e-05
8.92112e-05
6.26735e-05
6.2924e-05
6.33796e-05
6.40538e-05
6.49339e-05
6.60029e-05
6.72403e-05
6.86227e-05
7.01215e-05
7.16854e-05
7.32255e-05
6.64572e-05
6.18642e-05
6.29955e-05
6.52756e-05
-1.99994e-06
6.81295e-05
)
;
    }
    procBoundary2to3
    {
        type            processor;
        value           nonuniform List<scalar> 
25
(
1.29898e-06
-5.78298e-06
-6.94884e-05
-9.33014e-05
-9.833e-05
-7.44128e-05
-6.53337e-05
-5.52332e-05
-4.82022e-05
-4.23622e-05
-3.7443e-05
-3.31943e-05
-2.94532e-05
-2.61062e-05
-2.30722e-05
-2.02893e-05
-1.77107e-05
-1.52981e-05
-1.30214e-05
-1.08543e-05
-8.7751e-06
-6.76386e-06
-4.80343e-06
-2.87463e-06
-9.70977e-07
)
;
    }
}


// ************************************************************************* //
