/*--------------------------------*- C++ -*----------------------------------*\
| =========                 |                                                 |
| \\      /  F ield         | OpenFOAM: The Open Source CFD Toolbox           |
|  \\    /   O peration     | Version:  2.4.0                                 |
|   \\  /    A nd           | Web:      www.OpenFOAM.org                      |
|    \\/     M anipulation  |                                                 |
\*---------------------------------------------------------------------------*/
FoamFile
{
    version     2.0;
    format      ascii;
    class       volVectorField;
    location    "0.05";
    object      U;
}
// * * * * * * * * * * * * * * * * * * * * * * * * * * * * * * * * * * * * * //

dimensions      [0 1 -1 0 0 0 0];

internalField   nonuniform List<vector> 
559
(
(0.0108039 -0.351059 0)
(0.00980688 -0.369484 0)
(0.00790022 -0.388778 0)
(0.00774009 -0.403564 0)
(0.00444098 -0.424011 0)
(-0.00043073 -0.44265 0)
(0.00399336 -0.467793 0)
(6.96541e-05 -0.292164 0)
(0.000215969 -0.293129 0)
(0.000552922 -0.295263 0)
(0.00081099 -0.298551 0)
(0.00106519 -0.302876 0)
(0.00132152 -0.308252 0)
(0.0015761 -0.314665 0)
(0.00182442 -0.322067 0)
(0.00196727 -0.330601 0)
(0.00146759 -0.339867 0)
(0.000317977 -0.347471 0)
(-0.00484038 -0.353203 0)
(-0.00333121 -0.287861 0)
(0.00227348 -0.292776 0)
(0.00290499 -0.306352 0)
(-0.0005432 -0.321375 0)
(-0.00384354 -0.336244 0)
(-0.0060606 -0.352822 0)
(-0.00842424 -0.371513 0)
(-0.0130823 -0.400558 0)
(-0.00497333 -0.419702 0)
(-0.0423405 -0.429014 0)
(-0.0876199 -0.378475 0)
(-0.00132641 0.0547391 0)
(-0.01178 0.0556927 0)
(-0.0195517 0.0501018 0)
(-0.0286252 0.0418103 0)
(-0.0386091 0.0306866 0)
(-0.04992 0.0165823 0)
(-0.062904 -0.000666674 0)
(-0.0778296 -0.0213749 0)
(-0.0947079 -0.0459073 0)
(-0.112749 -0.0732906 0)
(-0.133423 -0.0896832 0)
(-0.173563 -0.0820972 0)
(-0.204 0.021098 0)
(-0.222821 -0.0356272 0)
(-0.234658 -0.104497 0)
(-0.247322 -0.164687 0)
(-0.267146 -0.225607 0)
(-0.295467 -0.278056 0)
(-0.329731 -0.32813 0)
(-0.374201 -0.384325 0)
(-0.441206 -0.39132 0)
(-0.591641 -0.162809 0)
(-0.857614 0.268561 0)
(-0.00374182 -0.414866 0)
(-0.00976002 -0.416146 0)
(-0.0157547 -0.416173 0)
(-0.0227359 -0.415907 0)
(-0.0308333 -0.415356 0)
(-0.0403276 -0.414447 0)
(-0.0516172 -0.41308 0)
(-0.0652953 -0.411106 0)
(-0.0823784 -0.408444 0)
(-0.104564 -0.405285 0)
(-0.13326 -0.402536 0)
(-0.16252 -0.398443 0)
(-0.168573 -0.381759 0)
(-0.164164 -0.361591 0)
(-0.178707 -0.33959 0)
(-0.200147 -0.321907 0)
(-0.230437 -0.307373 0)
(-0.273079 -0.29458 0)
(-0.3281 -0.280701 0)
(-0.415398 -0.27186 0)
(-0.539793 -0.305187 0)
(-0.599183 -0.304588 0)
(-0.608094 -0.109429 0)
(-0.00386256 -0.197181 0)
(-0.0119198 -0.19892 0)
(-0.020075 -0.200864 0)
(-0.0288295 -0.203861 0)
(-0.0384078 -0.207773 0)
(-0.0490664 -0.212378 0)
(-0.061056 -0.217371 0)
(-0.0746606 -0.222386 0)
(-0.0902018 -0.22678 0)
(-0.107805 -0.22924 0)
(-0.127513 -0.227585 0)
(-0.148384 -0.219589 0)
(-0.165616 -0.205343 0)
(-0.179844 -0.207324 0)
(-0.195761 -0.212044 0)
(-0.215292 -0.216263 0)
(-0.240188 -0.218736 0)
(-0.270656 -0.215878 0)
(-0.304094 -0.205304 0)
(-0.340631 -0.186198 0)
(-0.397143 -0.138762 0)
(-0.48218 -0.0214431 0)
(-0.546235 0.090198 0)
(-0.00406225 -0.248609 0)
(-0.0122143 -0.250007 0)
(-0.0206345 -0.250515 0)
(-0.0295769 -0.251245 0)
(-0.0392689 -0.252122 0)
(-0.0499343 -0.253028 0)
(-0.0617789 -0.253782 0)
(-0.0749922 -0.254151 0)
(-0.0897571 -0.253801 0)
(-0.106051 -0.252275 0)
(-0.123529 -0.249045 0)
(-0.141226 -0.243359 0)
(-0.157351 -0.235058 0)
(-0.172618 -0.227332 0)
(-0.189759 -0.220311 0)
(-0.209462 -0.213323 0)
(-0.233184 -0.205337 0)
(-0.26109 -0.194725 0)
(-0.294164 -0.179702 0)
(-0.335422 -0.160229 0)
(-0.38107 -0.136302 0)
(-0.408867 -0.0895856 0)
(-0.408994 -0.00158863 0)
(-0.00416025 -0.233231 0)
(-0.0126308 -0.234522 0)
(-0.021332 -0.234823 0)
(-0.0304672 -0.235269 0)
(-0.0402125 -0.235698 0)
(-0.05073 -0.236006 0)
(-0.0621712 -0.236041 0)
(-0.0746573 -0.235544 0)
(-0.0882359 -0.234195 0)
(-0.102849 -0.231697 0)
(-0.118237 -0.227634 0)
(-0.133877 -0.221779 0)
(-0.149363 -0.214658 0)
(-0.165142 -0.207511 0)
(-0.18206 -0.199838 0)
(-0.200755 -0.191089 0)
(-0.221576 -0.180217 0)
(-0.244557 -0.165953 0)
(-0.269313 -0.146623 0)
(-0.294952 -0.119805 0)
(-0.320303 -0.080362 0)
(-0.342298 -0.0263263 0)
(-0.352403 0.0283016 0)
(-0.00420071 -0.225751 0)
(-0.0127367 -0.226871 0)
(-0.021482 -0.226875 0)
(-0.0305911 -0.226826 0)
(-0.040202 -0.226646 0)
(-0.0504425 -0.226213 0)
(-0.0614192 -0.225369 0)
(-0.0732036 -0.223926 0)
(-0.0858116 -0.221659 0)
(-0.099176 -0.21832 0)
(-0.113126 -0.213698 0)
(-0.127428 -0.207719 0)
(-0.14198 -0.200562 0)
(-0.156975 -0.192527 0)
(-0.172784 -0.183478 0)
(-0.189711 -0.172949 0)
(-0.207891 -0.16025 0)
(-0.227214 -0.144527 0)
(-0.247266 -0.124811 0)
(-0.267131 -0.100057 0)
(-0.28482 -0.0691447 0)
(-0.296131 -0.0311164 0)
(-0.298761 0.0139247 0)
(-0.00417096 -0.217158 0)
(-0.0126393 -0.218109 0)
(-0.0212837 -0.217851 0)
(-0.0302281 -0.217414 0)
(-0.0395789 -0.216719 0)
(-0.0494339 -0.215667 0)
(-0.0598681 -0.214129 0)
(-0.0709261 -0.211953 0)
(-0.0826106 -0.208966 0)
(-0.0948718 -0.205 0)
(-0.107611 -0.199916 0)
(-0.120722 -0.193654 0)
(-0.134166 -0.186248 0)
(-0.148014 -0.177711 0)
(-0.162397 -0.16788 0)
(-0.17741 -0.156416 0)
(-0.19301 -0.142823 0)
(-0.208953 -0.126493 0)
(-0.224713 -0.106751 0)
(-0.239381 -0.0829118 0)
(-0.251489 -0.0544671 0)
(-0.258887 -0.0216125 0)
(-0.26035 0.0133806 0)
(-0.00408278 -0.208857 0)
(-0.0123624 -0.20966 0)
(-0.0207861 -0.209185 0)
(-0.0294537 -0.208426 0)
(-0.0384472 -0.207317 0)
(-0.0478396 -0.205773 0)
(-0.0576852 -0.203689 0)
(-0.0680132 -0.200945 0)
(-0.078822 -0.197409 0)
(-0.0900774 -0.192955 0)
(-0.10172 -0.187478 0)
(-0.113689 -0.180907 0)
(-0.125952 -0.173197 0)
(-0.138511 -0.164274 0)
(-0.151378 -0.153985 0)
(-0.164521 -0.142075 0)
(-0.177807 -0.128204 0)
(-0.190943 -0.111983 0)
(-0.203432 -0.0930278 0)
(-0.214527 -0.071044 0)
(-0.223173 -0.0459754 0)
(-0.228002 -0.0182528 0)
(-0.228609 0.0109268 0)
(-0.00394529 -0.200759 0)
(-0.011938 -0.201433 0)
(-0.0200463 -0.200783 0)
(-0.0283503 -0.199766 0)
(-0.0369123 -0.198328 0)
(-0.0457873 -0.196397 0)
(-0.0550144 -0.19389 0)
(-0.0646129 -0.19071 0)
(-0.0745796 -0.186754 0)
(-0.0848894 -0.181923 0)
(-0.0955008 -0.176128 0)
(-0.106367 -0.169293 0)
(-0.117446 -0.161347 0)
(-0.128702 -0.152197 0)
(-0.140083 -0.141708 0)
(-0.151493 -0.129696 0)
(-0.162759 -0.115937 0)
(-0.173591 -0.100199 0)
(-0.183559 -0.0822875 0)
(-0.192089 -0.0621151 0)
(-0.198453 -0.0398014 0)
(-0.201777 -0.015802 0)
(-0.201954 0.00900185 0)
(-0.00376798 -0.192981 0)
(-0.0113949 -0.193546 0)
(-0.019113 -0.192755 0)
(-0.026986 -0.191535 0)
(-0.0350609 -0.189838 0)
(-0.0433789 -0.187607 0)
(-0.0519677 -0.184773 0)
(-0.0608395 -0.18126 0)
(-0.0699895 -0.176986 0)
(-0.0793963 -0.171869 0)
(-0.0890249 -0.165833 0)
(-0.0988316 -0.158806 0)
(-0.108766 -0.150713 0)
(-0.118769 -0.141469 0)
(-0.128759 -0.130966 0)
(-0.138615 -0.119077 0)
(-0.148154 -0.105664 0)
(-0.157115 -0.0906027 0)
(-0.165147 -0.0738197 0)
(-0.171819 -0.0553399 0)
(-0.176631 -0.0353441 0)
(-0.179007 -0.0142293 0)
(-0.178964 0.00736829 0)
(-0.00355899 -0.185592 0)
(-0.0107576 -0.186065 0)
(-0.018027 -0.185164 0)
(-0.0254175 -0.183784 0)
(-0.0329639 -0.181886 0)
(-0.0406965 -0.179425 0)
(-0.0486345 -0.176343 0)
(-0.0567846 -0.17258 0)
(-0.0651396 -0.168069 0)
(-0.073679 -0.162745 0)
(-0.0823699 -0.156541 0)
(-0.0911682 -0.149396 0)
(-0.100019 -0.141242 0)
(-0.108851 -0.13201 0)
(-0.117573 -0.121622 0)
(-0.126058 -0.109994 0)
(-0.134135 -0.0970508 0)
(-0.141579 -0.0827393 0)
(-0.148111 -0.0670572 0)
(-0.153412 -0.0500836 0)
(-0.157136 -0.0320099 0)
(-0.158892 -0.0131658 0)
(-0.158741 0.0059786 0)
(-0.0033252 -0.17865 0)
(-0.0100467 -0.179045 0)
(-0.0168223 -0.178059 0)
(-0.0236912 -0.176556 0)
(-0.0306788 -0.174505 0)
(-0.0378065 -0.171868 0)
(-0.0450869 -0.168601 0)
(-0.0525222 -0.164654 0)
(-0.0601032 -0.159974 0)
(-0.0678088 -0.154508 0)
(-0.0756067 -0.148202 0)
(-0.0834527 -0.141004 0)
(-0.0912901 -0.13286 0)
(-0.0990462 -0.123719 0)
(-0.106628 -0.113528 0)
(-0.113915 -0.102239 0)
(-0.120756 -0.0898173 0)
(-0.126964 -0.076257 0)
(-0.13232 -0.0615954 0)
(-0.136588 -0.0459338 0)
(-0.139525 -0.0294528 0)
(-0.140861 -0.0124232 0)
(-0.140663 0.00479941 0)
(-0.00307228 -0.172198 0)
(-0.00927923 -0.172528 0)
(-0.0155268 -0.171477 0)
(-0.021845 -0.169881 0)
(-0.0282518 -0.167715 0)
(-0.034762 -0.164949 0)
(-0.0413827 -0.161546 0)
(-0.0481126 -0.157469 0)
(-0.0549406 -0.152674 0)
(-0.0618454 -0.14712 0)
(-0.068795 -0.140764 0)
(-0.0757464 -0.133566 0)
(-0.082644 -0.125486 0)
(-0.0894178 -0.116489 0)
(-0.0959804 -0.106542 0)
(-0.102224 -0.0956255 0)
(-0.108017 -0.083733 0)
(-0.113209 -0.0708858 0)
(-0.117629 -0.0571422 0)
(-0.121101 -0.0426094 0)
(-0.123453 -0.0274505 0)
(-0.124493 -0.011888 0)
(-0.124284 0.00380198 0)
(-0.00280487 -0.166271 0)
(-0.00846895 -0.166548 0)
(-0.0141628 -0.165448 0)
(-0.0199093 -0.163783 0)
(-0.0257204 -0.161532 0)
(-0.0316055 -0.158672 0)
(-0.0375681 -0.155174 0)
(-0.0436039 -0.151008 0)
(-0.0497005 -0.146142 0)
(-0.0558367 -0.140543 0)
(-0.0619817 -0.134178 0)
(-0.0680947 -0.127019 0)
(-0.0741234 -0.119039 0)
(-0.0800033 -0.110216 0)
(-0.0856557 -0.100537 0)
(-0.0909867 -0.0899975 0)
(-0.0958869 -0.0786127 0)
(-0.100234 -0.0664194 0)
(-0.103895 -0.0534857 0)
(-0.10674 -0.0399164 0)
(-0.108645 -0.0258565 0)
(-0.109472 -0.0114903 0)
(-0.109271 0.00296229 0)
(-0.00252667 -0.160894 0)
(-0.00762694 -0.161126 0)
(-0.0127485 -0.159991 0)
(-0.0179084 -0.158276 0)
(-0.023114 -0.155964 0)
(-0.0283709 -0.153038 0)
(-0.0336794 -0.149476 0)
(-0.0390335 -0.145255 0)
(-0.0444203 -0.14035 0)
(-0.0498191 -0.134738 0)
(-0.055201 -0.128395 0)
(-0.0605282 -0.121302 0)
(-0.0657534 -0.113443 0)
(-0.0708189 -0.104809 0)
(-0.075656 -0.0953993 0)
(-0.080185 -0.0852237 0)
(-0.0843158 -0.0743087 0)
(-0.0879504 -0.0627008 0)
(-0.0909869 -0.0504711 0)
(-0.0933266 -0.037719 0)
(-0.09488 -0.0245722 0)
(-0.0955463 -0.0111863 0)
(-0.0953639 0.00226009 0)
(-0.00224064 -0.156086 0)
(-0.00676195 -0.156282 0)
(-0.011298 -0.155122 0)
(-0.0158612 -0.15337 0)
(-0.0204556 -0.151017 0)
(-0.025084 -0.148047 0)
(-0.0297445 -0.144445 0)
(-0.0344302 -0.140193 0)
(-0.039128 -0.135274 0)
(-0.0438186 -0.129671 0)
(-0.0484756 -0.123369 0)
(-0.0530649 -0.116358 0)
(-0.0575449 -0.10863 0)
(-0.0618653 -0.100186 0)
(-0.0659677 -0.0910354 0)
(-0.0697858 -0.0811968 0)
(-0.0732462 -0.0707047 0)
(-0.0762713 -0.0596103 0)
(-0.0787825 -0.0479846 0)
(-0.0807056 -0.03592 0)
(-0.0819751 -0.0235301 0)
(-0.0825174 -0.0109476 0)
(-0.0823592 0.00167844 0)
(-0.00194908 -0.151861 0)
(-0.00588076 -0.152027 0)
(-0.00982217 -0.150849 0)
(-0.0137824 -0.149074 0)
(-0.017763 -0.146693 0)
(-0.0217646 -0.143695 0)
(-0.0257842 -0.14007 0)
(-0.0298144 -0.135805 0)
(-0.033843 -0.130888 0)
(-0.0378521 -0.125309 0)
(-0.0418185 -0.11906 0)
(-0.0457123 -0.112137 0)
(-0.0494977 -0.104541 0)
(-0.0531322 -0.0962785 0)
(-0.056567 -0.0873661 0)
(-0.059748 -0.0778301 0)
(-0.0626164 -0.0677092 0)
(-0.0651113 -0.0570566 0)
(-0.0671724 -0.0459415 0)
(-0.068744 -0.0344496 0)
(-0.0697779 -0.0226827 0)
(-0.070221 -0.0107561 0)
(-0.0700898 0.00120329 0)
(-0.00165369 -0.148227 0)
(-0.00498846 -0.148371 0)
(-0.00832936 -0.147181 0)
(-0.0116829 -0.14539 0)
(-0.015049 -0.142991 0)
(-0.018427 -0.139978 0)
(-0.0218132 -0.136342 0)
(-0.0252004 -0.132076 0)
(-0.0285775 -0.127172 0)
(-0.031929 -0.121625 0)
(-0.0352347 -0.115433 0)
(-0.0384695 -0.108597 0)
(-0.0416032 -0.101124 0)
(-0.0446009 -0.0930272 0)
(-0.047423 -0.084327 0)
(-0.0500261 -0.0750545 0)
(-0.052364 -0.065251 0)
(-0.0543896 -0.0549704 0)
(-0.0560571 -0.0442792 0)
(-0.057325 -0.0332573 0)
(-0.0581581 -0.0219968 0)
(-0.0585188 -0.0105997 0)
(-0.0584154 0.000823102 0)
(-0.0013558 -0.145187 0)
(-0.00408884 -0.145321 0)
(-0.00682537 -0.144122 0)
(-0.00957054 -0.142321 0)
(-0.0123229 -0.139912 0)
(-0.015081 -0.136891 0)
(-0.017841 -0.133253 0)
(-0.0205965 -0.128992 0)
(-0.0233379 -0.124107 0)
(-0.0260521 -0.118595 0)
(-0.0287226 -0.112458 0)
(-0.0313287 -0.105702 0)
(-0.0338462 -0.0983392 0)
(-0.0362472 -0.0903858 0)
(-0.0385005 -0.0818668 0)
(-0.0405722 -0.0728156 0)
(-0.0424272 -0.0632753 0)
(-0.0440297 -0.0532991 0)
(-0.0453457 -0.0429512 0)
(-0.0463449 -0.0323063 0)
(-0.0470021 -0.0214488 0)
(-0.0472916 -0.0104709 0)
(-0.0472164 0.000528657 0)
(-0.00105177 -0.142749 0)
(-0.00318121 -0.142859 0)
(-0.00531352 -0.141656 0)
(-0.00745026 -0.13985 0)
(-0.00959027 -0.137437 0)
(-0.011732 -0.134414 0)
(-0.0138723 -0.130779 0)
(-0.0160057 -0.126529 0)
(-0.0181245 -0.121664 0)
(-0.0202184 -0.116186 0)
(-0.0222743 -0.1101 0)
(-0.0242764 -0.103415 0)
(-0.026206 -0.0961454 0)
(-0.0280419 -0.0883118 0)
(-0.0297607 -0.0799413 0)
(-0.0313371 -0.071069 0)
(-0.0327452 -0.0617386 0)
(-0.033959 -0.0520026 0)
(-0.0349544 -0.0419229 0)
(-0.03571 -0.03157 0)
(-0.0362087 -0.0210224 0)
(-0.0364342 -0.0103648 0)
(-0.0363866 0.000312999 0)
(-0.000753563 -0.140832 0)
(-0.00226841 -0.140902 0)
(-0.00379261 -0.139696 0)
(-0.00531846 -0.137889 0)
(-0.00684553 -0.135477 0)
(-0.00837246 -0.132459 0)
(-0.0098968 -0.128833 0)
(-0.0114146 -0.124599 0)
(-0.0129204 -0.119758 0)
(-0.0144066 -0.114315 0)
(-0.015864 -0.108276 0)
(-0.0172812 -0.101654 0)
(-0.0186452 -0.0944654 0)
(-0.019941 -0.0867315 0)
(-0.0211522 -0.0784815 0)
(-0.0222614 -0.0697513 0)
(-0.0232507 -0.0605846 0)
(-0.0241026 -0.0510333 0)
(-0.0248009 -0.0411566 0)
(-0.0253317 -0.0310218 0)
(-0.0256846 -0.0207025 0)
(-0.0258501 -0.0102781 0)
(-0.0258299 0.000166709 0)
(-0.00042854 -0.140001 0)
(-0.00130052 -0.14009 0)
(-0.00217988 -0.13888 0)
(-0.00305982 -0.137064 0)
(-0.00394006 -0.134639 0)
(-0.00482043 -0.131605 0)
(-0.00570012 -0.127962 0)
(-0.00657736 -0.123713 0)
(-0.00744943 -0.118859 0)
(-0.00831261 -0.113408 0)
(-0.00916212 -0.107368 0)
(-0.00999211 -0.100753 0)
(-0.0107957 -0.0935819 0)
(-0.011565 -0.0858781 0)
(-0.0122911 -0.0776721 0)
(-0.0129646 -0.0690012 0)
(-0.0135757 -0.0599096 0)
(-0.0141145 -0.0504488 0)
(-0.0145718 -0.0406776 0)
(-0.0149397 -0.0306607 0)
(-0.0152129 -0.0204692 0)
(-0.0153877 -0.0101797 0)
(-0.0154532 0.000121964 0)
(-0.000195788 -0.138934 0)
(-0.000618826 -0.13895 0)
(-0.00106103 -0.137757 0)
(-0.00148974 -0.135956 0)
(-0.00190979 -0.133547 0)
(-0.00232089 -0.130534 0)
(-0.0027213 -0.126917 0)
(-0.00310851 -0.122697 0)
(-0.00347957 -0.117881 0)
(-0.00383111 -0.112472 0)
(-0.0041595 -0.106483 0)
(-0.0044609 -0.0999256 0)
(-0.00473138 -0.0928195 0)
(-0.00496707 -0.0851885 0)
(-0.00516433 -0.0770628 0)
(-0.00531995 -0.0684789 0)
(-0.00543134 -0.0594803 0)
(-0.00549684 -0.0501172 0)
(-0.00551603 -0.040446 0)
(-0.00549038 -0.0305284 0)
(-0.00542476 -0.0204294 0)
(-0.00533095 -0.010214 0)
(-0.00522707 4.03121e-05 0)
)
;

boundaryField
{
    leftWall
    {
        type            calculated;
        value           uniform (0 0 0);
    }
    rightWall
    {
        type            calculated;
        value           nonuniform 0();
    }
    lowerWall
    {
        type            calculated;
        value           nonuniform 0();
    }
    atmosphere
    {
        type            calculated;
        value           nonuniform List<vector> 
23
(
(-0.000195788 -0.138923 0)
(-0.000618826 -0.138935 0)
(-0.00106103 -0.137743 0)
(-0.00148974 -0.135942 0)
(-0.00190979 -0.133534 0)
(-0.00232089 -0.130521 0)
(-0.0027213 -0.126904 0)
(-0.00310851 -0.122685 0)
(-0.00347957 -0.117869 0)
(-0.00383111 -0.112461 0)
(-0.0041595 -0.106473 0)
(-0.0044609 -0.0999167 0)
(-0.00473138 -0.0928119 0)
(-0.00496707 -0.0851823 0)
(-0.00516433 -0.077058 0)
(-0.00531995 -0.0684757 0)
(-0.00543134 -0.0594788 0)
(-0.00549684 -0.0501172 0)
(-0.00551603 -0.0404474 0)
(-0.00549038 -0.0305309 0)
(-0.00542476 -0.0204326 0)
(-0.00533095 -0.0102169 0)
(-0.00522707 3.85959e-05 0)
)
;
    }
    defaultFaces
    {
        type            empty;
    }
    procBoundary2to0
    {
        type            processor;
        value           nonuniform List<vector> 
24
(
(0.0337293 -0.303845 0)
(0.0354657 -0.32664 0)
(0.0364688 -0.351955 0)
(0.0362998 -0.380037 0)
(0.0339566 -0.409967 0)
(0.0321535 -0.442782 0)
(0.0182178 -0.484464 0)
(0.000472308 -0.30786 0)
(0.00139022 -0.309251 0)
(0.00229927 -0.311842 0)
(0.00312651 -0.315645 0)
(0.00385261 -0.320603 0)
(0.00445727 -0.326633 0)
(0.0049315 -0.33366 0)
(0.00525971 -0.341609 0)
(0.00536192 -0.350211 0)
(0.00497951 -0.359251 0)
(0.00410988 -0.368437 0)
(-0.00123034 -0.377319 0)
(-0.00151584 -0.298762 0)
(0.00767087 -0.304694 0)
(0.0104901 -0.318187 0)
(0.0111742 -0.333806 0)
(0.0111742 -0.333806 0)
)
;
    }
    procBoundary2to3
    {
        type            processor;
        value           nonuniform List<vector> 
25
(
(0.0613504 0.429154 0)
(-0.396886 0.696403 0)
(-0.728156 0.500963 0)
(-0.575183 0.243551 0)
(-0.520859 0.149506 0)
(-0.397927 0.083913 0)
(-0.345552 0.064465 0)
(-0.294843 0.0482866 0)
(-0.257401 0.0388138 0)
(-0.226468 0.0321389 0)
(-0.200288 0.02706 0)
(-0.177631 0.0230961 0)
(-0.157652 0.0199258 0)
(-0.139764 0.017352 0)
(-0.123538 0.0152427 0)
(-0.108649 0.0135059 0)
(-0.0948472 0.0120744 0)
(-0.0819327 0.0108985 0)
(-0.0697418 0.00994036 0)
(-0.0581377 0.00917148 0)
(-0.0470028 0.00857026 0)
(-0.0362334 0.008121 0)
(-0.0257354 0.00781285 0)
(-0.0154141 0.00765141 0)
(-0.00519913 0.00754869 0)
)
;
    }
}


// ************************************************************************* //
