/*--------------------------------*- C++ -*----------------------------------*\
| =========                 |                                                 |
| \\      /  F ield         | OpenFOAM: The Open Source CFD Toolbox           |
|  \\    /   O peration     | Version:  2.4.0                                 |
|   \\  /    A nd           | Web:      www.OpenFOAM.org                      |
|    \\/     M anipulation  |                                                 |
\*---------------------------------------------------------------------------*/
FoamFile
{
    version     2.0;
    format      ascii;
    class       volVectorField;
    location    "0.05";
    object      U.mercury;
}
// * * * * * * * * * * * * * * * * * * * * * * * * * * * * * * * * * * * * * //

dimensions      [0 1 -1 0 0 0 0];

internalField   nonuniform List<vector> 
559
(
(0.0103661 -0.360314 0)
(0.00926874 -0.379719 0)
(0.00731076 -0.399877 0)
(0.00701458 -0.415173 0)
(0.00352792 -0.435326 0)
(-0.0015733 -0.453285 0)
(-0.00107162 -0.472919 0)
(5.50401e-05 -0.373811 0)
(5.91269e-05 -0.374768 0)
(0.000151557 -0.376488 0)
(0.000218062 -0.379063 0)
(0.000281834 -0.382434 0)
(0.000343983 -0.386544 0)
(0.000402636 -0.391321 0)
(0.000450956 -0.396685 0)
(0.000467999 -0.402537 0)
(0.000329968 -0.408661 0)
(8.12002e-05 -0.41438 0)
(-0.000301577 -0.419438 0)
(7.71557e-05 -0.36679 0)
(0.00110238 -0.371872 0)
(0.00127673 -0.381945 0)
(0.000726787 -0.39358 0)
(0.000110239 -0.405941 0)
(-0.000595926 -0.418619 0)
(-0.0013495 -0.431517 0)
(-0.00683523 -0.456189 0)
(-0.00593814 -0.464573 0)
(-0.0148987 -0.464171 0)
(-0.0204154 -0.450278 0)
(-0.00133141 0.0534426 0)
(-0.0117885 0.0543761 0)
(-0.0195607 0.0487827 0)
(-0.0286377 0.0404942 0)
(-0.0386252 0.0293777 0)
(-0.049939 0.0152851 0)
(-0.0629243 -0.00194684 0)
(-0.0778494 -0.0226323 0)
(-0.094726 -0.0471368 0)
(-0.112766 -0.0744879 0)
(-0.133439 -0.0908377 0)
(-0.173542 -0.0832292 0)
(-0.203997 0.0201858 0)
(-0.222844 -0.0364522 0)
(-0.234689 -0.105308 0)
(-0.24735 -0.165465 0)
(-0.267166 -0.226325 0)
(-0.295482 -0.278698 0)
(-0.329742 -0.328691 0)
(-0.374181 -0.384778 0)
(-0.441094 -0.391599 0)
(-0.591047 -0.163071 0)
(-0.852389 0.264039 0)
(-0.00374434 -0.414914 0)
(-0.00976596 -0.416191 0)
(-0.0157627 -0.416217 0)
(-0.0227464 -0.415948 0)
(-0.0308461 -0.415395 0)
(-0.0403421 -0.414482 0)
(-0.0516324 -0.413109 0)
(-0.0653101 -0.41113 0)
(-0.0823924 -0.408464 0)
(-0.104577 -0.405301 0)
(-0.13327 -0.402548 0)
(-0.162525 -0.398453 0)
(-0.168583 -0.381786 0)
(-0.164181 -0.361616 0)
(-0.178727 -0.33961 0)
(-0.200168 -0.321922 0)
(-0.230454 -0.307383 0)
(-0.273088 -0.294587 0)
(-0.3281 -0.280695 0)
(-0.415379 -0.271836 0)
(-0.539752 -0.30519 0)
(-0.599169 -0.304625 0)
(-0.608101 -0.10945 0)
(-0.00386408 -0.197217 0)
(-0.0119238 -0.198955 0)
(-0.0200808 -0.200897 0)
(-0.0288369 -0.203892 0)
(-0.0384167 -0.207801 0)
(-0.0490762 -0.212402 0)
(-0.0610661 -0.217391 0)
(-0.0746705 -0.222402 0)
(-0.0902117 -0.226792 0)
(-0.107815 -0.229249 0)
(-0.127524 -0.227592 0)
(-0.148394 -0.219596 0)
(-0.165628 -0.205354 0)
(-0.17986 -0.207333 0)
(-0.195779 -0.212052 0)
(-0.215309 -0.216268 0)
(-0.2402 -0.218736 0)
(-0.270661 -0.215874 0)
(-0.304092 -0.205296 0)
(-0.340619 -0.186188 0)
(-0.397127 -0.138755 0)
(-0.482174 -0.0214428 0)
(-0.546243 0.0902045 0)
(-0.00406336 -0.248626 0)
(-0.0122174 -0.250022 0)
(-0.020639 -0.250529 0)
(-0.0295828 -0.251258 0)
(-0.0392758 -0.252132 0)
(-0.049942 -0.253036 0)
(-0.0617869 -0.253789 0)
(-0.0750003 -0.254155 0)
(-0.0897657 -0.253803 0)
(-0.106061 -0.252275 0)
(-0.12354 -0.249044 0)
(-0.141237 -0.243358 0)
(-0.157364 -0.235057 0)
(-0.172633 -0.22733 0)
(-0.189775 -0.220307 0)
(-0.209476 -0.213315 0)
(-0.233192 -0.205326 0)
(-0.261091 -0.194712 0)
(-0.294157 -0.179686 0)
(-0.335411 -0.16021 0)
(-0.381057 -0.136284 0)
(-0.408859 -0.0895685 0)
(-0.40899 -0.00156733 0)
(-0.00416106 -0.233236 0)
(-0.0126331 -0.234527 0)
(-0.0213358 -0.234827 0)
(-0.0304722 -0.235272 0)
(-0.0402184 -0.2357 0)
(-0.0507367 -0.236007 0)
(-0.0621783 -0.23604 0)
(-0.0746648 -0.235543 0)
(-0.0882441 -0.234192 0)
(-0.102858 -0.231693 0)
(-0.118247 -0.227629 0)
(-0.133888 -0.221774 0)
(-0.149375 -0.214652 0)
(-0.165156 -0.207503 0)
(-0.182073 -0.199826 0)
(-0.200765 -0.191074 0)
(-0.22158 -0.180199 0)
(-0.244555 -0.165933 0)
(-0.269305 -0.146601 0)
(-0.29494 -0.119782 0)
(-0.320291 -0.0803392 0)
(-0.342287 -0.0263034 0)
(-0.352394 0.0283282 0)
(-0.00420137 -0.225748 0)
(-0.0127386 -0.226868 0)
(-0.021485 -0.226871 0)
(-0.0305951 -0.226822 0)
(-0.0402069 -0.226641 0)
(-0.0504481 -0.226207 0)
(-0.0614253 -0.225362 0)
(-0.0732102 -0.223919 0)
(-0.0858187 -0.221652 0)
(-0.099184 -0.218311 0)
(-0.113135 -0.213689 0)
(-0.127438 -0.207709 0)
(-0.141991 -0.200551 0)
(-0.156986 -0.192514 0)
(-0.172793 -0.183462 0)
(-0.189717 -0.172929 0)
(-0.207893 -0.160228 0)
(-0.22721 -0.144503 0)
(-0.247257 -0.124785 0)
(-0.267118 -0.100031 0)
(-0.284807 -0.0691194 0)
(-0.296119 -0.0310906 0)
(-0.298749 0.0139523 0)
(-0.00417151 -0.217151 0)
(-0.0126409 -0.218101 0)
(-0.0212864 -0.217843 0)
(-0.0302317 -0.217405 0)
(-0.0395834 -0.21671 0)
(-0.049439 -0.215658 0)
(-0.0598738 -0.21412 0)
(-0.0709322 -0.211943 0)
(-0.0826173 -0.208956 0)
(-0.0948792 -0.204989 0)
(-0.107619 -0.199904 0)
(-0.12073 -0.193641 0)
(-0.134174 -0.186234 0)
(-0.148022 -0.177694 0)
(-0.162404 -0.167861 0)
(-0.177414 -0.156395 0)
(-0.19301 -0.142799 0)
(-0.208948 -0.126467 0)
(-0.224704 -0.106725 0)
(-0.239369 -0.0828857 0)
(-0.251476 -0.0544414 0)
(-0.258874 -0.0215869 0)
(-0.260337 0.0134073 0)
(-0.00408327 -0.208847 0)
(-0.0123639 -0.20965 0)
(-0.0207884 -0.209175 0)
(-0.029457 -0.208415 0)
(-0.0384512 -0.207306 0)
(-0.0478444 -0.205762 0)
(-0.0576906 -0.203678 0)
(-0.068019 -0.200933 0)
(-0.0788282 -0.197397 0)
(-0.0900841 -0.192942 0)
(-0.101727 -0.187464 0)
(-0.113697 -0.180892 0)
(-0.125959 -0.173181 0)
(-0.138517 -0.164256 0)
(-0.151382 -0.153965 0)
(-0.164523 -0.142053 0)
(-0.177804 -0.12818 0)
(-0.190936 -0.111957 0)
(-0.203423 -0.093002 0)
(-0.214515 -0.0710186 0)
(-0.22316 -0.0459505 0)
(-0.227989 -0.0182282 0)
(-0.228595 0.0109515 0)
(-0.00394573 -0.200748 0)
(-0.0119394 -0.201421 0)
(-0.0200485 -0.200771 0)
(-0.0283532 -0.199754 0)
(-0.036916 -0.198316 0)
(-0.0457917 -0.196385 0)
(-0.0550193 -0.193877 0)
(-0.0646182 -0.190696 0)
(-0.0745854 -0.18674 0)
(-0.0848955 -0.181909 0)
(-0.095507 -0.176113 0)
(-0.106373 -0.169277 0)
(-0.117452 -0.161329 0)
(-0.128706 -0.152178 0)
(-0.140085 -0.141687 0)
(-0.151493 -0.129674 0)
(-0.162755 -0.115913 0)
(-0.173584 -0.100174 0)
(-0.18355 -0.0822627 0)
(-0.192078 -0.0620908 0)
(-0.198441 -0.0397778 0)
(-0.201764 -0.0157791 0)
(-0.201941 0.00902455 0)
(-0.00376839 -0.192969 0)
(-0.0113961 -0.193533 0)
(-0.019115 -0.192743 0)
(-0.0269887 -0.191522 0)
(-0.0350643 -0.189825 0)
(-0.0433829 -0.187594 0)
(-0.0519722 -0.18476 0)
(-0.0608444 -0.181246 0)
(-0.0699947 -0.176971 0)
(-0.0794017 -0.171854 0)
(-0.0890303 -0.165817 0)
(-0.0988366 -0.158789 0)
(-0.108771 -0.150695 0)
(-0.118772 -0.141449 0)
(-0.12876 -0.130945 0)
(-0.138613 -0.119055 0)
(-0.14815 -0.105641 0)
(-0.157108 -0.0905791 0)
(-0.165138 -0.0737963 0)
(-0.171808 -0.055317 0)
(-0.176619 -0.035322 0)
(-0.178995 -0.0142079 0)
(-0.178951 0.00738911 0)
(-0.00355937 -0.185579 0)
(-0.0107587 -0.186052 0)
(-0.0180288 -0.185151 0)
(-0.02542 -0.183771 0)
(-0.032967 -0.181873 0)
(-0.0407002 -0.179411 0)
(-0.0486386 -0.176329 0)
(-0.056789 -0.172565 0)
(-0.0651442 -0.168053 0)
(-0.0736837 -0.162728 0)
(-0.0823744 -0.156525 0)
(-0.0911723 -0.149378 0)
(-0.100022 -0.141224 0)
(-0.108853 -0.131991 0)
(-0.117573 -0.121601 0)
(-0.126056 -0.109973 0)
(-0.13413 -0.0970286 0)
(-0.141572 -0.0827169 0)
(-0.148102 -0.0670351 0)
(-0.153402 -0.0500621 0)
(-0.157125 -0.0319891 0)
(-0.15888 -0.0131459 0)
(-0.158729 0.0059979 0)
(-0.00332554 -0.178636 0)
(-0.0100477 -0.179031 0)
(-0.016824 -0.178045 0)
(-0.0236935 -0.176542 0)
(-0.0306816 -0.174491 0)
(-0.0378098 -0.171854 0)
(-0.0450906 -0.168586 0)
(-0.0525261 -0.164639 0)
(-0.0601072 -0.159958 0)
(-0.0678128 -0.154492 0)
(-0.0756105 -0.148185 0)
(-0.0834559 -0.140986 0)
(-0.0912923 -0.132842 0)
(-0.099047 -0.1237 0)
(-0.106627 -0.113508 0)
(-0.113912 -0.102218 0)
(-0.120751 -0.089796 0)
(-0.126957 -0.0762358 0)
(-0.132312 -0.0615746 0)
(-0.136579 -0.0459135 0)
(-0.139515 -0.0294334 0)
(-0.14085 -0.0124046 0)
(-0.140651 0.00481723 0)
(-0.00307259 -0.172184 0)
(-0.00928015 -0.172514 0)
(-0.0155283 -0.171463 0)
(-0.0218471 -0.169867 0)
(-0.0282543 -0.167701 0)
(-0.0347649 -0.164934 0)
(-0.0413859 -0.161531 0)
(-0.0481161 -0.157453 0)
(-0.0549441 -0.152658 0)
(-0.0618488 -0.147104 0)
(-0.0687981 -0.140747 0)
(-0.0757489 -0.133548 0)
(-0.0826455 -0.125468 0)
(-0.0894179 -0.116469 0)
(-0.0959788 -0.106522 0)
(-0.10222 -0.0956052 0)
(-0.108012 -0.0837127 0)
(-0.113202 -0.0708656 0)
(-0.117621 -0.0571225 0)
(-0.121092 -0.0425903 0)
(-0.123444 -0.0274322 0)
(-0.124484 -0.0118705 0)
(-0.124274 0.00381855 0)
(-0.00280513 -0.166257 0)
(-0.00846976 -0.166533 0)
(-0.0141642 -0.165434 0)
(-0.0199111 -0.163768 0)
(-0.0257226 -0.161517 0)
(-0.0316081 -0.158656 0)
(-0.0375709 -0.155158 0)
(-0.0436068 -0.150992 0)
(-0.0497035 -0.146126 0)
(-0.0558395 -0.140526 0)
(-0.0619842 -0.134161 0)
(-0.0680965 -0.127001 0)
(-0.0741243 -0.11902 0)
(-0.0800029 -0.110197 0)
(-0.0856537 -0.100517 0)
(-0.090983 -0.0899779 0)
(-0.0958818 -0.0785931 0)
(-0.100227 -0.0664001 0)
(-0.103888 -0.0534669 0)
(-0.106733 -0.0398983 0)
(-0.108637 -0.0258391 0)
(-0.109463 -0.0114738 0)
(-0.109261 0.00297787 0)
(-0.00252692 -0.16088 0)
(-0.00762767 -0.161112 0)
(-0.0127497 -0.159977 0)
(-0.01791 -0.158261 0)
(-0.0231159 -0.155949 0)
(-0.0283731 -0.153023 0)
(-0.0336818 -0.149461 0)
(-0.0390361 -0.145239 0)
(-0.0444228 -0.140334 0)
(-0.0498214 -0.134721 0)
(-0.0552029 -0.128377 0)
(-0.0605295 -0.121284 0)
(-0.0657538 -0.113425 0)
(-0.070818 -0.104791 0)
(-0.0756538 -0.0953803 0)
(-0.0801814 -0.0852047 0)
(-0.0843108 -0.0742898 0)
(-0.0879445 -0.0626822 0)
(-0.0909803 -0.0504531 0)
(-0.0933196 -0.0377016 0)
(-0.0948727 -0.0245557 0)
(-0.0955383 -0.0111706 0)
(-0.0953553 0.00227488 0)
(-0.00224084 -0.156072 0)
(-0.00676257 -0.156267 0)
(-0.011299 -0.155107 0)
(-0.0158626 -0.153356 0)
(-0.0204573 -0.151002 0)
(-0.0250859 -0.148032 0)
(-0.0297466 -0.144429 0)
(-0.0344323 -0.140177 0)
(-0.0391301 -0.135257 0)
(-0.0438205 -0.129654 0)
(-0.0484771 -0.123352 0)
(-0.0530658 -0.11634 0)
(-0.0575449 -0.108612 0)
(-0.0618643 -0.100168 0)
(-0.0659654 -0.0910169 0)
(-0.0697821 -0.0811783 0)
(-0.0732415 -0.0706863 0)
(-0.0762658 -0.0595924 0)
(-0.0787766 -0.0479672 0)
(-0.0806993 -0.0359034 0)
(-0.0819684 -0.0235143 0)
(-0.0825103 -0.0109327 0)
(-0.0823514 0.00169242 0)
(-0.00194926 -0.151846 0)
(-0.00588131 -0.152013 0)
(-0.00982306 -0.150834 0)
(-0.0137835 -0.149059 0)
(-0.0177644 -0.146677 0)
(-0.0217662 -0.14368 0)
(-0.025786 -0.140054 0)
(-0.0298162 -0.135789 0)
(-0.0338447 -0.130872 0)
(-0.0378536 -0.125293 0)
(-0.0418196 -0.119043 0)
(-0.0457129 -0.11212 0)
(-0.0494975 -0.104523 0)
(-0.0531309 -0.0962604 0)
(-0.0565647 -0.087348 0)
(-0.0597445 -0.077812 0)
(-0.062612 -0.0676914 0)
(-0.0651064 -0.0570393 0)
(-0.0671672 -0.0459248 0)
(-0.0687385 -0.0344337 0)
(-0.0697722 -0.0226676 0)
(-0.0702148 -0.010742 0)
(-0.070083 0.00121641 0)
(-0.00165384 -0.148213 0)
(-0.00498891 -0.148356 0)
(-0.0083301 -0.147166 0)
(-0.0116839 -0.145375 0)
(-0.0150502 -0.142976 0)
(-0.0184284 -0.139962 0)
(-0.0218146 -0.136326 0)
(-0.0252019 -0.13206 0)
(-0.0285789 -0.127156 0)
(-0.0319302 -0.121609 0)
(-0.0352355 -0.115416 0)
(-0.0384697 -0.10858 0)
(-0.0416027 -0.101107 0)
(-0.0445996 -0.0930095 0)
(-0.0474206 -0.0843093 0)
(-0.0500228 -0.0750369 0)
(-0.0523601 -0.0652338 0)
(-0.0543852 -0.0549536 0)
(-0.0560526 -0.0442631 0)
(-0.0573204 -0.0332421 0)
(-0.0581533 -0.0219825 0)
(-0.0585136 -0.0105865 0)
(-0.0584095 0.000835413 0)
(-0.00135593 -0.145173 0)
(-0.00408922 -0.145306 0)
(-0.00682597 -0.144108 0)
(-0.00957135 -0.142306 0)
(-0.0123239 -0.139897 0)
(-0.0150821 -0.136876 0)
(-0.0178422 -0.133237 0)
(-0.0205977 -0.128977 0)
(-0.023339 -0.124091 0)
(-0.026053 -0.118578 0)
(-0.0287231 -0.112441 0)
(-0.0313287 -0.105685 0)
(-0.0338455 -0.0983221 0)
(-0.0362456 -0.0903686 0)
(-0.0384981 -0.0818496 0)
(-0.0405693 -0.0727987 0)
(-0.0424236 -0.0632587 0)
(-0.044026 -0.0532831 0)
(-0.0453421 -0.042936 0)
(-0.0463412 -0.0322919 0)
(-0.0469985 -0.0214354 0)
(-0.0472874 -0.0104585 0)
(-0.0472115 0.000540071 0)
(-0.00105185 -0.142735 0)
(-0.00318147 -0.142845 0)
(-0.00531398 -0.141642 0)
(-0.00745089 -0.139835 0)
(-0.00959103 -0.137422 0)
(-0.0117329 -0.134399 0)
(-0.0138732 -0.130763 0)
(-0.0160066 -0.126513 0)
(-0.0181253 -0.121648 0)
(-0.020219 -0.11617 0)
(-0.0222746 -0.110083 0)
(-0.0242762 -0.103398 0)
(-0.0262052 -0.0961288 0)
(-0.0280405 -0.0882952 0)
(-0.0297585 -0.0799249 0)
(-0.0313343 -0.0710529 0)
(-0.0327422 -0.061723 0)
(-0.0339561 -0.0519878 0)
(-0.0349516 -0.0419089 0)
(-0.0357073 -0.0315569 0)
(-0.0362059 -0.0210101 0)
(-0.0364309 -0.0103533 0)
(-0.0363825 0.000323394 0)
(-0.00075363 -0.140818 0)
(-0.00226861 -0.140888 0)
(-0.00379294 -0.139682 0)
(-0.00531891 -0.137875 0)
(-0.00684607 -0.135463 0)
(-0.00837306 -0.132444 0)
(-0.00989743 -0.128818 0)
(-0.0114153 -0.124584 0)
(-0.0129209 -0.119742 0)
(-0.014407 -0.114299 0)
(-0.0158641 -0.10826 0)
(-0.017281 -0.101638 0)
(-0.0186445 -0.0944494 0)
(-0.0199396 -0.0867157 0)
(-0.0211503 -0.0784659 0)
(-0.0222592 -0.0697364 0)
(-0.0232484 -0.0605705 0)
(-0.0241004 -0.0510199 0)
(-0.0247989 -0.041144 0)
(-0.0253299 -0.03101 0)
(-0.0256827 -0.0206914 0)
(-0.0258478 -0.0102679 0)
(-0.025827 0.000176161 0)
(-0.000428586 -0.139988 0)
(-0.00130064 -0.140076 0)
(-0.00218008 -0.138866 0)
(-0.00306007 -0.13705 0)
(-0.00394036 -0.134624 0)
(-0.00482078 -0.13159 0)
(-0.00570047 -0.127948 0)
(-0.0065777 -0.123698 0)
(-0.00744972 -0.118844 0)
(-0.0083128 -0.113392 0)
(-0.00916214 -0.107352 0)
(-0.00999188 -0.100738 0)
(-0.0107951 -0.0935664 0)
(-0.011564 -0.085863 0)
(-0.0122899 -0.0776576 0)
(-0.0129632 -0.0689874 0)
(-0.0135743 -0.0598967 0)
(-0.0141131 -0.0504368 0)
(-0.0145705 -0.0406664 0)
(-0.0149386 -0.0306503 0)
(-0.0152117 -0.0204595 0)
(-0.0153862 -0.0101707 0)
(-0.0154511 0.000129958 0)
(-0.000195799 -0.13892 0)
(-0.000618857 -0.138936 0)
(-0.00106108 -0.137743 0)
(-0.0014898 -0.135942 0)
(-0.00190986 -0.133533 0)
(-0.00232097 -0.13052 0)
(-0.00272137 -0.126902 0)
(-0.00310857 -0.122683 0)
(-0.0034796 -0.117865 0)
(-0.00383111 -0.112457 0)
(-0.00415944 -0.106467 0)
(-0.00446075 -0.0999102 0)
(-0.00473111 -0.0928044 0)
(-0.00496667 -0.0851739 0)
(-0.00516383 -0.0770489 0)
(-0.0053194 -0.0684659 0)
(-0.00543079 -0.0594683 0)
(-0.00549631 -0.0501062 0)
(-0.00551554 -0.0404358 0)
(-0.00548993 -0.0305189 0)
(-0.00542427 -0.0204207 0)
(-0.00533032 -0.0102061 0)
(-0.00522614 4.69148e-05 0)
)
;

boundaryField
{
    leftWall
    {
        type            fixedValue;
        value           uniform (0 0 0);
    }
    rightWall
    {
        type            fixedValue;
        value           nonuniform 0();
    }
    lowerWall
    {
        type            fixedValue;
        value           nonuniform 0();
    }
    atmosphere
    {
        type            fluxCorrectedVelocity;
        value           nonuniform List<vector> 
23
(
(-0.000195799 -0.138923 0)
(-0.000618857 -0.138935 0)
(-0.00106108 -0.137743 0)
(-0.0014898 -0.135942 0)
(-0.00190986 -0.133534 0)
(-0.00232097 -0.130521 0)
(-0.00272137 -0.126904 0)
(-0.00310857 -0.122685 0)
(-0.0034796 -0.117869 0)
(-0.00383111 -0.112461 0)
(-0.00415944 -0.106473 0)
(-0.00446075 -0.0999167 0)
(-0.00473111 -0.0928119 0)
(-0.00496667 -0.0851823 0)
(-0.00516383 -0.077058 0)
(-0.0053194 -0.0684757 0)
(-0.00543079 -0.0594788 0)
(-0.00549631 -0.0501172 0)
(-0.00551554 -0.0404474 0)
(-0.00548993 -0.0305309 0)
(-0.00542427 -0.0204326 0)
(-0.00533032 -0.0102169 0)
(-0.00522614 3.85959e-05 0)
)
;
    }
    defaultFaces
    {
        type            empty;
    }
    procBoundary2to0
    {
        type            processor;
        value           nonuniform List<vector> 
24
(
(0.0337211 -0.303897 0)
(0.0354532 -0.326706 0)
(0.0364453 -0.352045 0)
(0.0362554 -0.380161 0)
(0.0338793 -0.410123 0)
(0.0319976 -0.442958 0)
(0.0177302 -0.4845 0)
(0.000459472 -0.314481 0)
(0.00134848 -0.315948 0)
(0.00222595 -0.318675 0)
(0.0030231 -0.322682 0)
(0.00372049 -0.32791 0)
(0.00429616 -0.334273 0)
(0.00474145 -0.341692 0)
(0.00503789 -0.350071 0)
(0.00511038 -0.359134 0)
(0.00473329 -0.368657 0)
(0.00390055 -0.37836 0)
(-0.000967248 -0.38786 0)
(-0.00142687 -0.306008 0)
(0.0075061 -0.311332 0)
(0.0101813 -0.325529 0)
(0.0107974 -0.342086 0)
(0.0107974 -0.342086 0)
)
;
    }
    procBoundary2to3
    {
        type            processor;
        value           nonuniform List<vector> 
25
(
(0.0400689 0.0407199 0)
(-0.378341 0.641074 0)
(-0.722041 0.492105 0)
(-0.575156 0.243562 0)
(-0.520862 0.149535 0)
(-0.397922 0.0839451 0)
(-0.345544 0.0644961 0)
(-0.29483 0.0483171 0)
(-0.257388 0.0388416 0)
(-0.226453 0.0321643 0)
(-0.200275 0.0270825 0)
(-0.177616 0.0231166 0)
(-0.157639 0.0199446 0)
(-0.139752 0.0173693 0)
(-0.123527 0.0152586 0)
(-0.108638 0.0135208 0)
(-0.0948381 0.0120885 0)
(-0.0819241 0.0109118 0)
(-0.0697347 0.00995283 0)
(-0.058131 0.00918314 0)
(-0.0469975 0.00858106 0)
(-0.0362286 0.00813075 0)
(-0.0257322 0.00782145 0)
(-0.0154118 0.00765866 0)
(-0.00519829 0.00755401 0)
)
;
    }
}


// ************************************************************************* //
