/*--------------------------------*- C++ -*----------------------------------*\
| =========                 |                                                 |
| \\      /  F ield         | OpenFOAM: The Open Source CFD Toolbox           |
|  \\    /   O peration     | Version:  2.4.0                                 |
|   \\  /    A nd           | Web:      www.OpenFOAM.org                      |
|    \\/     M anipulation  |                                                 |
\*---------------------------------------------------------------------------*/
FoamFile
{
    version     2.0;
    format      ascii;
    class       volScalarField;
    location    "0.75";
    object      alpha.mercury;
}
// * * * * * * * * * * * * * * * * * * * * * * * * * * * * * * * * * * * * * //

dimensions      [0 0 0 0 0 0 0];

internalField   nonuniform List<scalar> 
2268
(
1
1
1
1
1
1
1
1
1
1
1
1
1
1
1
1
1
1
1
1
0.999999
0.999996
0.999991
0.999805
0.999776
0.999877
0.999886
0.999894
0.999966
0.999995
0.999999
1
1
1
1
1
1
1
1
1
1
1
1
0.999999
0.999996
0.999988
0.934155
0.933564
0.942795
0.948114
0.955834
0.976877
0.995725
0.999603
0.999962
0.999991
0.999998
0.999999
1
1
1
1
1
1
1
1
1
0.999998
0.999988
0.177932
0.178633
0.190041
0.198823
0.21824
0.265504
0.361888
0.52793
0.769261
0.980028
0.999628
0.999982
0.999998
0.999999
0.999999
1
1
1
1
0.999999
0.999999
0.999998
0.999988
8.77487e-06
8.72512e-06
8.79979e-06
8.73993e-06
8.80721e-06
8.99368e-06
0.00037896
0.0125844
0.10133
0.569455
0.968949
0.999076
0.999937
0.99998
0.999989
0.999996
0.999998
0.999999
0.999998
0.999998
0.999997
0.999995
0.999987
5.34501e-06
5.13326e-06
5.03853e-06
5.0378e-06
5.05018e-06
5.02535e-06
5.02673e-06
1.32743e-05
0.00217863
0.132547
0.742152
0.985037
0.999276
0.999894
0.999965
0.999981
0.999962
0.999953
0.999964
0.999964
0.999866
0.999786
0.999945
7.15456e-06
6.79883e-06
6.0458e-06
5.95399e-06
5.24002e-06
5.05451e-06
5.06107e-06
5.26432e-06
0.000388198
0.0440647
0.446969
0.924708
0.995883
0.999589
0.999409
0.996539
0.991606
0.98959
0.9904
0.990132
0.982087
0.977394
0.990205
5.8947e-06
5.14615e-06
4.48412e-06
4.9015e-06
4.89723e-06
4.43968e-06
5.10759e-06
5.60932e-06
7.60548e-05
0.0129122
0.207587
0.717522
0.96948
0.983993
0.94385
0.88241
0.823203
0.785828
0.764256
0.739106
0.690742
0.676292
0.792506
0.840007
0.840327
0.840408
0.840899
0.841455
0.842126
0.842675
0.843474
0.843776
0.843862
0.844118
0.844933
0.844939
0.845071
0.845148
0.845655
0.846027
0.846069
0.846014
0.829992
0.436496
0.510025
0.577186
0.640382
0.706715
0.736474
0.748073
0.740462
0.714675
0.713524
0.732142
0.745361
0.776258
0.831923
0.846073
0.846161
0.846041
0.846169
0.696644
0.338669
0.200975
0.100815
0.0491241
0.0441558
0.05206
0.0645919
0.0652008
0.0570387
0.0473371
0.0372654
0.0665173
0.0979933
0.378456
0.796596
0.84616
0.846335
0.846529
0.241632
0.162252
0.0709978
0.0142368
0.0013025
0.000134241
8.28531e-05
9.58269e-05
9.39173e-05
9.38619e-05
9.92379e-05
0.000141099
0.0006277
0.00119962
0.03914
0.56972
0.845958
0.846892
0.846911
0.105488
0.0913641
0.0401782
0.00617186
0.000449567
8.41815e-05
8.27679e-05
0.00010379
0.00011356
9.38237e-05
9.8024e-05
6.6759e-05
6.10505e-05
6.11455e-05
0.0245904
0.344474
0.823086
0.846201
0.841578
0.087877
0.0723026
0.0247533
0.00222278
0.00016869
7.51369e-05
5.86498e-05
6.40815e-05
0.0001516
0.000184647
0.000139634
8.0166e-05
6.2429e-05
6.60125e-05
0.0214675
0.335275
0.806246
0.838964
0.674456
0.0894269
0.0488534
0.00979868
0.000641267
8.49093e-05
6.81475e-05
4.57168e-05
3.2751e-05
4.34986e-05
5.91628e-05
5.43883e-05
6.02392e-05
6.28014e-05
8.08727e-05
0.0188465
0.371385
0.785653
0.816579
0.268631
0.0956402
0.0325269
0.00369631
0.000233253
4.86083e-05
5.161e-05
4.59139e-05
3.28174e-05
3.15836e-05
3.97349e-05
5.43146e-05
6.17334e-05
6.30389e-05
7.69108e-05
0.00928182
0.258069
0.59337
0.580833
0.0980098
2.17754e-06
1.99465e-06
1.70643e-06
1.78523e-06
1.93476e-06
1.52767e-06
2.10031e-06
3.24859e-06
1.62178e-05
0.00149065
0.0336375
0.164625
0.36998
0.460898
0.407762
0.318308
0.246948
0.185211
0.140143
0.109054
0.0917401
0.101038
0.186579
3.61766e-07
3.12029e-07
2.3358e-07
2.33723e-07
2.86095e-07
2.23165e-07
3.83576e-07
7.07328e-07
2.44236e-06
0.000101494
0.00100959
0.00679486
0.0126158
0.00751636
0.00451206
0.00255337
0.00153949
0.00152016
0.00132064
0.000874479
0.000495252
0.000254881
0.000182466
5.35337e-08
3.134e-08
1.34702e-08
1.07573e-08
1.68824e-08
1.58622e-08
3.17974e-08
7.79705e-08
1.61683e-07
1.20813e-06
9.3589e-05
0.000243626
0.000581046
0.000197998
7.67847e-05
2.5607e-05
1.52916e-05
1.3694e-05
1.2838e-05
1.16688e-05
9.38185e-06
6.04495e-06
4.67591e-06
3.83305e-09
9.58673e-10
2.36247e-10
2.63277e-10
5.44128e-10
6.00088e-10
1.42837e-09
4.05819e-09
7.97234e-09
1.17368e-08
5.44666e-07
1.99079e-06
1.27753e-06
8.87647e-07
2.34624e-06
2.16343e-06
2.07028e-06
2.04835e-06
1.88103e-06
1.83977e-06
2.45457e-06
3.07928e-06
2.72319e-06
3.08851e-10
2.00112e-11
2.3628e-11
4.92356e-11
4.12736e-11
4.12905e-11
5.53551e-11
9.52116e-11
1.3504e-10
1.29161e-10
2.90648e-10
1.49048e-09
9.29609e-10
1.1659e-09
1.6086e-08
2.98483e-08
4.80312e-08
3.81333e-08
1.77857e-08
2.58934e-08
4.33233e-07
1.48965e-06
1.8328e-06
2.76692e-11
9.0174e-12
8.37914e-12
1.41619e-11
1.42954e-11
1.18507e-11
1.23437e-11
1.77434e-11
2.0362e-11
1.89107e-11
2.04417e-11
3.28918e-11
2.57978e-12
1.75072e-12
1.36752e-12
1.36681e-12
1.72776e-12
2.18276e-12
2.19736e-11
5.33709e-09
1.64628e-07
6.87005e-07
1.03574e-06
8.09033e-12
5.62356e-12
3.21497e-12
4.23487e-12
3.46944e-12
1.1118e-12
3.59007e-13
9.61188e-13
1.73193e-12
2.78096e-12
3.02138e-12
2.72008e-12
2.21829e-12
1.64595e-12
1.35254e-12
1.3446e-12
1.61284e-12
2.78357e-12
6.57676e-12
9.42378e-10
2.47621e-08
1.0733e-07
1.7918e-07
3.76358e-12
4.16722e-12
1.73729e-12
1.48671e-12
4.73393e-13
1.25945e-13
6.57909e-14
2.24375e-13
7.11766e-13
1.31101e-12
1.23018e-12
1.12752e-12
6.07539e-13
6.14175e-13
6.96271e-13
8.67141e-13
1.54772e-12
3.68704e-12
7.52345e-12
1.04913e-10
8.82984e-10
2.73095e-09
4.73634e-09
2.10478e-12
3.83195e-12
1.79558e-12
1.09353e-12
5.8259e-13
1.88502e-13
5.46837e-14
1.05778e-13
4.67711e-13
7.30164e-13
3.58138e-13
1.22815e-13
1.04667e-14
1.41897e-14
6.47522e-14
3.2339e-13
1.30799e-12
4.13745e-12
9.53191e-12
1.81055e-11
2.63649e-11
3.18315e-11
6.58682e-11
1.31096e-12
2.71505e-12
1.51972e-12
6.58196e-13
1.11459e-13
2.28098e-14
2.45523e-15
3.26501e-14
3.02034e-13
4.48707e-13
2.08881e-13
2.80543e-14
5.89083e-15
5.95282e-16
1.24358e-15
3.04738e-14
3.99164e-13
2.50613e-12
8.18642e-12
1.7219e-11
2.97414e-11
4.08025e-11
6.30464e-11
8.16363e-13
1.4541e-12
9.15043e-13
3.6264e-13
1.00258e-13
1.27887e-14
4.48454e-15
2.53205e-14
2.03122e-13
2.94112e-13
1.48829e-13
6.18178e-14
1.72152e-14
9.71162e-16
5.00039e-15
5.03886e-14
3.46995e-13
1.70814e-12
5.79778e-12
1.36133e-11
2.95018e-11
4.72752e-11
6.45784e-11
4.82924e-13
5.81934e-13
3.44419e-13
8.99413e-14
9.86651e-15
4.88059e-16
1.97613e-15
1.2424e-14
1.1646e-13
1.48499e-13
6.75266e-14
1.9367e-14
3.37467e-15
1.02964e-16
7.53503e-16
1.21126e-14
1.18304e-13
7.35944e-13
2.97407e-12
7.87875e-12
2.07493e-11
4.05613e-11
5.72008e-11
2.60036e-13
1.93213e-13
9.55764e-14
2.12176e-14
2.37059e-15
1.20746e-16
9.49958e-16
7.3965e-15
5.06841e-14
6.04484e-14
2.57089e-14
6.017e-15
5.71698e-16
6.12441e-17
5.9277e-16
5.48826e-15
4.30019e-14
2.67194e-13
1.21595e-12
3.81424e-12
8.77684e-12
2.24939e-11
3.6055e-11
1.15094e-13
5.78696e-14
2.15274e-14
4.0325e-15
4.05996e-16
1.89588e-17
2.14241e-16
2.37094e-15
1.43774e-14
1.81592e-14
7.07403e-15
1.32397e-15
1.08816e-16
3.10674e-17
2.62557e-16
2.00741e-15
1.39683e-14
8.47625e-14
4.13288e-13
1.49201e-12
4.06859e-12
9.2647e-12
1.57668e-11
3.8873e-14
1.47284e-14
4.13688e-15
6.58796e-16
5.8932e-17
2.52865e-18
3.71497e-17
5.0398e-16
2.95394e-15
4.16816e-15
1.72021e-15
2.86984e-16
2.0323e-17
1.30495e-17
1.09231e-16
7.52682e-16
4.5712e-15
2.52439e-14
1.22457e-13
4.82385e-13
1.57947e-12
4.12676e-12
6.97968e-12
1.00717e-14
3.03008e-15
6.72015e-16
9.19725e-17
7.32851e-18
2.91439e-19
5.32366e-18
8.56142e-17
5.09772e-16
8.11694e-16
3.66557e-16
5.73369e-17
3.55394e-18
3.33684e-18
2.93842e-17
2.12909e-16
1.32056e-15
7.15429e-15
3.40538e-14
1.40455e-13
5.20871e-13
1.53444e-12
3.04465e-12
2.08701e-15
5.12835e-16
9.40447e-17
1.12517e-17
8.08155e-19
3.01942e-20
6.51208e-19
1.24249e-17
7.80684e-17
1.39042e-16
6.77588e-17
1.01693e-17
5.60153e-19
6.43735e-19
5.89098e-18
4.58084e-17
3.11477e-16
1.8136e-15
9.06138e-15
4.01476e-14
1.57719e-13
5.10197e-13
1.21005e-12
3.60646e-16
7.35279e-17
1.15509e-17
1.2323e-18
8.12306e-20
2.90169e-21
7.25223e-20
1.59093e-18
1.07054e-17
2.11068e-17
1.09133e-17
1.58399e-18
8.22648e-20
1.11469e-19
1.0227e-18
8.40174e-18
6.32489e-17
4.16972e-16
2.32969e-15
1.1109e-14
4.5692e-14
1.59699e-13
4.48194e-13
5.36367e-17
9.15386e-18
1.26335e-18
1.22083e-19
7.47575e-21
2.56368e-22
7.37472e-21
1.84994e-19
1.32399e-18
2.84523e-18
1.53299e-18
2.16958e-19
1.115e-20
1.9178e-20
1.71301e-19
1.45822e-18
1.18735e-17
8.64819e-17
5.41172e-16
2.83356e-15
1.23561e-14
4.62264e-14
1.48654e-13
7.01116e-18
1.00681e-18
1.24155e-19
1.09825e-20
6.29719e-22
2.08448e-23
6.90041e-22
1.96459e-20
1.48547e-19
3.43271e-19
1.90317e-19
2.64347e-20
1.44061e-21
3.25665e-21
2.74374e-20
2.36453e-19
2.02435e-18
1.58539e-17
1.09758e-16
6.34445e-16
2.94949e-15
1.17001e-14
4.17264e-14
8.16419e-19
9.92307e-20
1.10827e-20
9.06436e-22
4.91587e-23
1.59168e-24
5.95393e-23
1.90986e-21
1.51957e-20
3.74081e-20
2.11543e-20
2.91947e-21
1.86904e-22
5.37648e-22
4.1693e-21
3.53296e-20
3.10183e-19
2.56823e-18
1.93144e-17
1.21697e-16
6.00857e-16
2.50138e-15
9.64773e-15
8.56931e-20
8.86828e-21
9.07187e-22
6.92635e-23
3.58192e-24
1.14416e-25
4.73898e-24
1.70129e-22
1.42198e-21
3.71332e-21
2.1324e-21
2.97576e-22
2.50031e-23
8.46913e-23
5.97811e-22
4.85445e-21
4.29039e-20
3.69443e-19
2.94748e-18
1.9866e-17
1.03092e-16
4.45322e-16
1.82255e-15
8.1833e-21
7.24232e-22
6.83167e-23
4.9009e-24
2.42796e-25
7.66471e-27
3.48251e-25
1.38902e-23
1.21676e-22
3.36208e-22
1.9544e-22
2.77335e-23
3.27178e-24
1.26172e-23
8.17726e-23
6.24438e-22
5.40388e-21
4.72637e-20
3.91999e-19
2.7768e-18
1.49507e-17
6.64166e-17
2.85954e-16
7.15373e-22
5.43645e-23
4.75781e-24
3.22385e-25
1.53614e-26
4.79801e-28
2.3678e-26
1.04148e-24
9.53663e-24
2.77858e-23
1.63078e-23
2.35771e-24
4.10037e-25
1.7676e-24
1.07542e-23
7.67646e-23
6.3104e-22
5.42632e-21
4.57565e-20
3.34627e-19
1.84202e-18
8.36158e-18
3.77705e-17
5.75912e-23
3.77899e-24
3.08336e-25
1.9832e-26
9.1293e-28
2.83049e-29
1.49343e-27
7.1928e-26
6.86635e-25
2.10183e-24
1.24201e-24
1.84312e-25
4.92331e-26
2.32591e-25
1.36329e-24
9.08264e-24
6.89406e-23
5.66151e-22
4.73833e-21
3.50494e-20
1.95013e-19
9.01542e-19
4.24485e-18
4.28338e-24
2.43532e-25
1.85996e-26
1.14019e-27
5.08435e-29
1.56498e-30
8.75297e-29
4.58852e-27
4.55756e-26
1.45898e-25
8.63752e-26
1.32552e-26
5.62654e-27
2.88331e-26
1.66497e-25
1.04368e-24
7.20931e-24
5.46934e-23
4.3905e-22
3.21767e-21
1.79412e-20
8.40522e-20
4.0923e-19
2.95655e-25
1.46207e-26
1.04779e-27
6.14308e-29
2.66128e-30
8.14449e-32
4.77677e-30
2.70997e-28
2.7941e-27
9.31927e-27
5.51165e-27
8.87941e-28
6.11002e-28
3.36528e-27
1.94752e-26
1.16236e-25
7.281e-25
4.95211e-24
3.69494e-23
2.62795e-22
1.45078e-21
6.83045e-21
3.44109e-20
1.89961e-26
8.1982e-28
5.52181e-29
3.10261e-30
1.30669e-31
3.9708e-33
2.43197e-31
1.48489e-29
1.58526e-28
5.49311e-28
3.24095e-28
5.62687e-29
6.3042e-29
3.68316e-28
2.14992e-27
1.24176e-26
7.1437e-26
4.31239e-25
2.89277e-24
1.93351e-23
1.03748e-22
4.89639e-22
2.57032e-21
1.13944e-27
4.30725e-29
2.73002e-30
1.47383e-31
6.04496e-33
1.82615e-34
1.15759e-32
7.56799e-31
8.3471e-30
2.99367e-29
1.7575e-29
3.43194e-30
6.1607e-30
3.78062e-29
2.23506e-28
1.26087e-27
6.77195e-27
3.64155e-26
2.13892e-25
1.30559e-24
6.70773e-24
3.15323e-23
1.73772e-22
6.39561e-29
2.12245e-30
1.26651e-31
6.57731e-33
2.62728e-34
7.88967e-36
5.16188e-34
3.59583e-32
4.09028e-31
1.51529e-30
8.85161e-31
2.07483e-31
5.68609e-31
3.62278e-30
2.16361e-29
1.20057e-28
6.14547e-28
3.0055e-27
1.53914e-26
8.31952e-26
3.99798e-25
1.87389e-24
1.10353e-23
3.36859e-30
9.84894e-32
5.53334e-33
2.76883e-34
1.07826e-35
3.23171e-37
2.16172e-35
1.59656e-33
1.86958e-32
7.13588e-32
4.15177e-32
1.27051e-32
4.93885e-32
3.23797e-31
1.95076e-30
1.07131e-29
5.30367e-29
2.41649e-28
1.09319e-27
5.16345e-27
2.30342e-26
1.10531e-25
7.2969e-25
1.66792e-31
4.30465e-33
2.27651e-34
1.09848e-35
4.16984e-37
1.25559e-38
8.52934e-37
6.645e-35
7.9978e-34
3.13937e-33
1.82914e-33
7.99265e-34
4.03179e-33
2.69793e-32
1.63495e-31
8.90909e-31
4.31733e-30
1.88012e-29
7.76693e-29
3.2743e-28
1.42619e-27
8.15903e-27
7.12406e-26
7.78262e-33
1.77872e-34
8.84655e-36
4.12003e-37
1.52504e-38
4.6789e-40
3.18141e-38
2.59891e-36
3.21047e-35
1.29414e-34
7.63526e-35
5.13054e-35
3.08918e-34
2.09829e-33
1.27706e-32
6.92358e-32
3.31431e-31
1.40754e-30
5.54312e-30
2.27621e-29
1.21788e-28
1.1353e-27
1.47321e-26
3.42743e-34
6.9548e-36
3.2499e-37
1.46156e-38
5.27467e-40
1.68983e-41
1.1272e-39
9.58218e-38
1.21352e-36
5.0192e-36
3.06187e-36
3.30185e-36
2.22301e-35
1.52647e-34
9.32185e-34
5.03934e-33
2.40035e-32
1.01306e-31
4.04127e-31
1.9767e-30
1.81213e-29
2.74949e-28
4.5821e-27
1.42726e-35
2.58028e-37
1.13048e-38
4.90905e-40
1.72617e-41
6.01111e-43
3.81651e-41
3.33877e-39
4.33103e-38
1.83925e-37
1.20183e-37
2.08948e-37
1.50589e-36
1.04272e-35
6.38608e-35
3.44947e-34
1.64593e-33
7.06642e-33
3.1754e-32
2.46308e-31
3.92526e-30
7.77485e-29
1.50522e-27
5.62799e-37
9.10297e-39
3.72972e-40
1.56231e-41
5.34326e-43
2.14746e-44
1.24594e-42
1.10297e-40
1.46394e-39
6.39605e-39
4.72011e-39
1.28016e-38
9.625e-38
6.71755e-37
4.13086e-36
2.23589e-35
1.07722e-34
4.89751e-34
2.98067e-33
4.18183e-32
9.32598e-31
2.15363e-29
4.68155e-28
2.10476e-38
3.05526e-40
1.16799e-41
4.70798e-43
1.56019e-44
7.8502e-46
3.976e-44
3.47056e-42
4.7054e-41
2.12225e-40
1.89529e-40
7.52108e-40
5.8173e-39
4.09516e-38
2.53361e-37
1.37987e-36
6.81467e-36
3.56906e-35
3.58647e-34
7.97437e-33
2.13927e-31
5.53892e-30
1.33203e-28
7.48492e-40
9.75189e-42
3.47651e-43
1.34277e-44
4.28339e-46
2.97853e-47
1.26405e-45
1.04712e-43
1.44644e-42
6.77228e-42
7.88687e-42
4.21645e-41
3.32946e-40
2.36567e-39
1.47658e-38
8.14375e-38
4.24625e-37
2.95428e-36
5.15417e-35
1.50319e-33
4.54359e-32
1.29456e-30
3.41737e-29
2.54256e-41
2.95687e-43
9.89594e-45
3.66213e-46
1.12121e-47
1.21703e-48
4.29432e-47
3.08256e-45
4.29578e-44
2.10314e-43
3.40069e-43
2.2486e-42
1.80521e-41
1.29655e-40
8.19527e-40
4.62337e-39
2.69216e-38
2.907e-37
7.80573e-36
2.6632e-34
8.84336e-33
2.74824e-31
7.91707e-30
8.30757e-43
8.62556e-45
2.74339e-46
9.72385e-48
2.86045e-49
5.37307e-50
1.62443e-48
9.0977e-47
1.25649e-45
6.50305e-45
1.53831e-44
1.1666e-43
9.41857e-43
6.7957e-42
4.34284e-41
2.56088e-40
1.88935e-39
3.44488e-38
1.19452e-36
4.4668e-35
1.59951e-33
5.38526e-32
1.69021e-30
2.62828e-44
2.46845e-46
7.46669e-48
2.53424e-49
7.18243e-51
2.42596e-51
6.36864e-50
2.71352e-48
3.67817e-47
2.06022e-46
7.17581e-46
5.91413e-45
4.79711e-44
3.516e-43
2.43088e-42
2.03706e-41
3.31229e-40
9.18419e-39
2.92038e-37
9.37556e-36
3.15473e-34
1.07951e-32
3.5961e-31
8.08908e-46
6.95421e-48
2.00135e-49
6.50575e-51
1.78759e-52
1.10119e-52
2.56044e-51
8.34356e-50
1.10482e-48
6.90344e-48
3.40935e-47
2.98199e-46
2.56774e-45
2.43463e-44
3.59265e-43
8.84672e-42
2.63893e-40
8.03064e-39
2.42137e-37
7.25309e-36
2.18978e-34
6.79534e-33
2.20566e-31
0.310201
0.306323
0.291505
0.26397
0.00018733
0.000207935
0.000224869
0.000222034
3.98667e-06
3.65659e-06
3.59056e-06
5.60529e-06
2.00578e-06
2.00952e-06
2.03681e-06
2.14675e-06
2.06406e-06
2.4143e-06
2.42635e-06
2.38355e-06
1.38584e-06
1.67895e-06
1.22939e-06
5.86133e-07
2.05642e-07
1.95272e-07
9.4271e-08
1.09857e-10
5.16145e-09
3.83393e-09
1.18678e-09
1.11658e-10
1.02657e-10
1.2915e-10
1.76495e-10
1.11883e-10
1.00981e-10
1.18918e-10
1.25882e-10
1.02748e-10
8.59952e-11
9.104e-11
8.22556e-11
5.50935e-11
6.30859e-11
5.90434e-11
5.20653e-11
4.38531e-11
4.34745e-11
3.96802e-11
3.55019e-11
3.06815e-11
1.81788e-11
2.04706e-11
2.01077e-11
1.89041e-11
8.52e-12
1.00831e-11
1.12349e-11
1.27367e-11
3.92695e-12
5.22243e-12
7.17594e-12
1.02643e-11
1.80334e-12
2.8871e-12
4.81005e-12
7.56095e-12
7.90611e-13
1.47925e-12
2.75608e-12
4.68554e-12
3.0086e-13
6.22832e-13
1.23473e-12
2.2557e-12
9.30342e-14
2.05511e-13
4.25475e-13
8.24866e-13
2.31829e-14
5.38529e-14
1.15919e-13
2.36966e-13
4.66419e-15
1.13604e-14
2.54926e-14
5.50193e-14
7.74246e-16
1.97829e-15
4.64651e-15
1.06463e-14
1.07522e-16
2.88881e-16
7.16573e-16
1.76607e-15
1.26555e-17
3.60236e-17
9.61866e-17
2.60441e-16
1.28348e-18
3.92163e-18
1.15412e-17
3.50473e-17
1.1493e-19
3.83002e-19
1.26226e-18
4.32505e-18
9.26403e-21
3.42378e-20
1.27106e-19
4.88141e-19
6.89467e-22
2.84832e-21
1.18224e-20
5.00301e-20
4.90463e-23
2.26571e-22
1.03584e-21
4.74403e-21
3.80093e-24
1.98345e-23
1.00018e-22
4.96586e-22
4.95393e-25
3.07856e-24
1.80825e-23
1.02972e-22
1.40164e-25
1.03153e-24
7.09811e-24
4.69691e-23
5.38225e-26
4.48399e-25
3.49773e-24
2.62587e-23
2.08588e-26
1.93366e-25
1.68876e-24
1.42629e-23
7.52562e-27
7.70064e-26
7.47311e-25
7.03638e-24
2.45885e-27
2.76123e-26
2.95444e-25
3.0674e-24
7.19689e-28
8.83262e-27
1.03553e-25
1.17379e-24
1.89485e-28
2.54217e-27
3.26598e-26
4.03562e-25
4.59334e-29
6.75804e-28
9.58156e-27
1.30765e-25
1.12285e-29
1.82076e-28
2.8733e-27
4.40132e-26
7.56576e-30
1.254e-28
2.01222e-27
3.07587e-26
0.0982379
0.00776884
0.000422649
6.09638e-05
3.86923e-05
3.62456e-05
3.42819e-05
3.14149e-05
3.05888e-05
4.0241e-05
5.24755e-05
5.55841e-05
5.97707e-05
7.27391e-05
0.001174
0.0524955
0.153962
0.0977587
0.0506921
0.00015222
8.85553e-05
1.36426e-05
2.62258e-05
3.44411e-05
3.51887e-05
3.7926e-05
3.18387e-05
2.46267e-05
2.47622e-05
3.01702e-05
4.13887e-05
5.17521e-05
6.85496e-05
0.000152156
0.00318927
0.0116609
0.00728368
0.0196377
6.91839e-06
4.84176e-06
1.43501e-05
2.83944e-05
3.55661e-05
3.7434e-05
3.85604e-05
3.16867e-05
3.62268e-05
2.98333e-05
3.14042e-05
3.82754e-05
4.83081e-05
6.55307e-05
8.37735e-05
0.000195957
0.00548527
0.00169249
0.00966358
2.0005e-06
4.24428e-06
1.67229e-05
2.72158e-05
3.69595e-05
3.94415e-05
4.48909e-05
4.49068e-05
4.30137e-05
3.89491e-05
3.67195e-05
3.57981e-05
4.22573e-05
5.70097e-05
7.20465e-05
6.0448e-05
0.000759666
0.000253499
0.00742264
1.99118e-06
5.19404e-06
1.73401e-05
3.59928e-05
4.48295e-05
4.70214e-05
4.29426e-05
3.43037e-05
2.73439e-05
2.67367e-05
3.35701e-05
3.48483e-05
3.87529e-05
4.81955e-05
6.34755e-05
6.02956e-05
6.69591e-05
7.08911e-05
0.00707856
5.75723e-07
5.69324e-06
2.90857e-05
4.67201e-05
4.87921e-05
4.65874e-05
1.93355e-05
7.27523e-06
6.42607e-06
9.75939e-06
1.97627e-05
3.02045e-05
3.85669e-05
3.26165e-05
4.36698e-05
5.30921e-05
4.79243e-05
0.000206281
0.00883166
2.74121e-07
8.49986e-06
3.84264e-05
5.06861e-05
4.8482e-05
1.43232e-05
6.29285e-07
5.29825e-07
5.29294e-07
5.41576e-07
5.42267e-06
2.78008e-05
3.86174e-05
3.25123e-05
3.28143e-05
3.33347e-05
3.84456e-05
0.000701197
0.0136018
1.98507e-07
7.52168e-06
3.87895e-05
5.06199e-05
4.13379e-05
4.36696e-06
5.30727e-07
5.30229e-07
5.28176e-07
5.26041e-07
1.34539e-06
1.43766e-05
2.99966e-05
3.60217e-05
3.79792e-05
3.80157e-05
4.25199e-05
0.00133189
0.0185178
4.73177e-08
1.92448e-06
2.04735e-05
5.06863e-05
4.63649e-05
1.04886e-05
6.45481e-07
5.27584e-07
5.26051e-07
5.25503e-07
5.24258e-07
5.0953e-06
2.42207e-05
3.56289e-05
3.80106e-05
3.65805e-05
0.00011451
0.00277041
0.0224861
4.55661e-09
7.88205e-08
2.62126e-06
2.50435e-05
4.72823e-05
4.59785e-05
8.6571e-06
5.28229e-07
5.25645e-07
5.2425e-07
5.2362e-07
2.56745e-06
1.74887e-05
2.82486e-05
3.40199e-05
2.83838e-05
0.000361267
0.00452614
0.0228252
3.01779e-10
2.19483e-09
1.37265e-07
6.30368e-06
4.78232e-05
6.99816e-05
4.99436e-05
4.52121e-06
5.25755e-07
5.23688e-07
5.22391e-07
1.15761e-06
7.81348e-06
2.11887e-05
2.83993e-05
5.89235e-05
0.000657658
0.00485732
0.0191878
5.75219e-11
2.06991e-10
5.07722e-09
7.98151e-07
1.80324e-05
7.02992e-05
8.7501e-05
4.26659e-05
9.16228e-06
4.82793e-06
5.59093e-06
5.95038e-06
7.22637e-06
2.2958e-05
8.90481e-05
8.37253e-05
0.000356168
0.0030913
0.0108842
3.32406e-11
1.32991e-10
6.22466e-10
8.16616e-08
4.9311e-06
4.55041e-05
9.60204e-05
0.000103428
7.37066e-05
6.09575e-05
6.78592e-05
7.41409e-05
6.46505e-05
5.69266e-05
4.63736e-05
4.54787e-05
9.7722e-05
0.00158202
0.00836685
2.89942e-11
1.61791e-10
3.04886e-10
1.11414e-09
4.38169e-07
1.13574e-05
6.55786e-05
0.000113755
0.000124983
0.000147154
0.000175675
0.000214284
0.000241165
0.000274384
0.000289482
0.000307411
0.00062429
0.00209229
0.00846235
3.39391e-11
1.63176e-10
3.28174e-10
4.49025e-10
3.85463e-09
7.26416e-07
1.2309e-05
6.01272e-05
0.000118303
0.000156405
0.000201847
0.000245468
0.000285795
0.000377819
0.000666648
0.0013032
0.0030125
0.00712847
0.0113608
3.20897e-11
1.42722e-10
2.7812e-10
4.09993e-10
2.93997e-10
1.08914e-08
6.20561e-07
7.10304e-06
3.00289e-05
6.28154e-05
0.000102858
0.00012538
0.000131675
0.000231783
0.000689844
0.0021101
0.00530088
0.0103447
0.011345
2.95079e-11
8.82922e-11
1.84753e-10
2.67841e-10
2.71349e-10
2.48146e-10
1.09319e-08
2.209e-07
8.74541e-07
1.88322e-06
2.60612e-06
2.61712e-06
2.38945e-06
6.08488e-06
6.39983e-05
0.000453519
0.00113274
0.0014063
0.00204061
1.39657e-11
4.91689e-11
9.04745e-11
1.58879e-10
1.88173e-10
2.47871e-10
2.68982e-10
9.07935e-10
8.76922e-09
2.92945e-08
4.81579e-08
9.60627e-08
2.07753e-07
4.99407e-07
1.9645e-06
2.55601e-06
1.08418e-06
1.97671e-07
6.08079e-08
6.97461e-12
1.62235e-11
4.022e-11
7.87037e-11
1.19115e-10
1.82414e-10
2.46645e-10
2.91371e-10
2.94743e-10
1.12e-09
1.50757e-08
7.56719e-08
1.45742e-07
1.2034e-07
5.74899e-08
1.89424e-08
3.38145e-09
2.47075e-10
3.97877e-11
2.64121e-12
6.38201e-12
1.56476e-11
3.23829e-11
6.14973e-11
1.12705e-10
1.91846e-10
3.00676e-10
3.86699e-10
5.2154e-10
1.45039e-09
8.76018e-09
9.22451e-09
5.90436e-09
5.09813e-09
3.51223e-09
1.48119e-09
3.8977e-11
7.77282e-12
7.92979e-13
2.03321e-12
5.14785e-12
1.17096e-11
2.4425e-11
5.02808e-11
1.00232e-10
1.87733e-10
3.55757e-10
7.05209e-10
1.29208e-09
1.94801e-09
2.22706e-09
2.8662e-09
3.71043e-09
6.41756e-09
1.06123e-09
3.16991e-11
7.73072e-12
1.95337e-13
5.42295e-13
1.49185e-12
3.86225e-12
9.13224e-12
1.77214e-11
4.32282e-11
1.0251e-10
2.4993e-10
6.1668e-10
1.41888e-09
2.32418e-09
2.75012e-09
3.63713e-09
7.9537e-09
7.87479e-09
1.3446e-10
9.18261e-12
7.5348e-12
4.1147e-14
1.26789e-13
3.9371e-13
1.18875e-12
3.30658e-12
8.11376e-12
2.25026e-11
6.43077e-11
2.03186e-10
6.75116e-10
1.93642e-09
3.4061e-09
3.49361e-09
3.84336e-09
7.92407e-09
5.85132e-09
1.56779e-11
5.97671e-12
6.76829e-12
7.65518e-15
2.67006e-14
9.51005e-14
3.31476e-13
1.05459e-12
3.17491e-12
1.06745e-11
4.43791e-11
1.87796e-10
7.96276e-10
2.48009e-09
4.36934e-09
5.35495e-09
4.54188e-09
7.96288e-09
6.73084e-10
1.20465e-11
5.08575e-12
6.03431e-12
1.29076e-15
5.09869e-15
2.05659e-14
8.00313e-14
2.82927e-13
1.06367e-12
5.18306e-12
2.99987e-11
1.79092e-10
1.03143e-09
3.58251e-09
6.17228e-09
6.7938e-09
5.86891e-09
7.65452e-09
1.1359e-10
1.06437e-11
4.41843e-12
5.51173e-12
1.97808e-16
8.69554e-16
3.8584e-15
1.62486e-14
6.33525e-14
3.02503e-13
2.19234e-12
1.8697e-11
1.76838e-10
1.4095e-09
5.35055e-09
9.90635e-09
8.48209e-09
6.33638e-09
5.6107e-09
2.20977e-10
6.81878e-12
4.24361e-12
5.55461e-12
2.71838e-17
1.29861e-16
6.14786e-16
2.73457e-15
1.16414e-14
6.60861e-14
7.24384e-13
1.06467e-11
1.73814e-10
1.83463e-09
7.71321e-09
1.22091e-08
8.47389e-09
5.92799e-09
3.7988e-09
2.9352e-10
9.86294e-12
4.64187e-12
6.75104e-12
3.31293e-18
1.67452e-17
8.25108e-17
3.81259e-16
1.76202e-15
1.22088e-14
2.11663e-13
5.43137e-12
1.05238e-10
1.71089e-09
8.25112e-09
1.27767e-08
9.70191e-09
5.99202e-09
2.82358e-09
3.69055e-10
3.10918e-11
1.18631e-11
6.82519e-12
3.54748e-19
1.86646e-18
9.42587e-18
4.50274e-17
2.28905e-16
1.9609e-15
4.13046e-14
1.36491e-12
3.33693e-11
7.2718e-10
5.00439e-09
1.18882e-08
1.18936e-08
8.2135e-09
3.2154e-09
4.58184e-10
6.72215e-11
2.49653e-11
6.78111e-12
3.43446e-20
1.88702e-19
9.91707e-19
5.06589e-18
2.92264e-17
2.80661e-16
5.16985e-15
1.3927e-13
4.30158e-12
1.2138e-10
1.53303e-09
8.33301e-09
1.17801e-08
1.11772e-08
5.13e-09
9.06293e-10
1.17708e-10
4.23355e-11
8.65078e-12
3.6918e-21
2.38848e-20
1.5441e-19
1.00502e-18
6.82707e-18
5.51128e-17
6.89214e-16
1.62655e-14
5.84831e-13
2.08681e-11
4.27735e-10
3.82552e-09
8.34193e-09
8.83561e-09
5.03819e-09
1.19427e-09
1.55031e-10
5.86688e-11
1.22295e-11
8.52797e-22
7.98861e-21
7.32648e-20
6.3023e-19
4.98066e-18
3.5886e-17
2.49772e-16
2.50753e-15
6.7833e-14
2.86504e-12
8.35957e-11
1.105e-09
3.77638e-09
3.81394e-09
2.66662e-09
8.6357e-10
1.57505e-10
5.74955e-11
1.35839e-11
4.38833e-22
5.23531e-21
5.85022e-20
5.94873e-19
5.42455e-18
4.36091e-17
3.03571e-16
1.85296e-15
1.29968e-14
2.71618e-13
9.26291e-12
1.7252e-10
9.51595e-10
1.06663e-09
7.01705e-10
4.37777e-10
1.52905e-10
4.10098e-11
1.14203e-11
2.6878e-22
3.75822e-21
4.8938e-20
5.81415e-19
6.22588e-18
5.90475e-17
4.8576e-16
3.40291e-15
2.00794e-14
1.0612e-13
7.89907e-13
3.96293e-12
6.96942e-11
1.52083e-10
1.26263e-10
1.10667e-10
7.61261e-11
2.7898e-11
8.04397e-12
1.58393e-22
2.55699e-21
3.87425e-20
5.4577e-19
7.10875e-18
8.35055e-17
8.51872e-16
7.24369e-15
4.94579e-14
2.62992e-13
1.04346e-12
2.9708e-12
7.97577e-12
2.06755e-11
4.38965e-11
7.32893e-11
4.4987e-11
1.77591e-11
5.14913e-12
8.3293e-23
1.50417e-21
2.52392e-20
3.89525e-19
5.47035e-18
6.82425e-17
7.32692e-16
6.54518e-15
4.70151e-14
2.61679e-13
1.07293e-12
3.39297e-12
8.99891e-12
2.00184e-11
4.78035e-11
4.73149e-11
2.42005e-11
9.8313e-12
2.86216e-12
3.79006e-23
7.39272e-22
1.30626e-20
2.0625e-19
2.88523e-18
3.53235e-17
3.71302e-16
3.28129e-15
2.38153e-14
1.39112e-13
6.18921e-13
2.27278e-12
7.91683e-12
2.5805e-11
3.40925e-11
2.13176e-11
9.85476e-12
3.87087e-12
1.236e-12
1.49048e-23
3.06838e-22
5.5518e-21
8.67965e-20
1.17221e-18
1.36143e-17
1.34722e-16
1.1231e-15
7.76845e-15
4.42323e-14
1.99304e-13
8.13149e-13
3.71638e-12
1.19674e-11
1.03448e-11
5.84939e-12
2.72091e-12
1.00486e-12
4.68071e-13
5.25514e-24
1.14078e-22
2.11856e-21
3.30935e-20
4.36851e-19
4.85142e-18
4.4997e-17
3.47154e-16
2.21027e-15
1.16116e-14
4.96252e-14
1.97726e-13
8.64753e-13
1.65957e-12
1.22393e-12
6.4586e-13
3.00513e-13
1.38227e-13
2.19663e-13
1.79435e-24
4.23514e-23
8.33141e-22
1.34512e-20
1.79862e-19
1.98532e-18
1.79002e-17
1.3048e-16
7.62569e-16
3.5331e-15
1.31512e-14
4.00235e-14
1.18702e-13
1.30633e-13
1.05966e-13
6.08946e-14
4.31528e-14
3.66213e-14
1.20601e-13
6.66663e-25
1.89001e-23
4.56038e-22
9.08154e-21
1.41701e-19
1.67501e-18
1.50606e-17
1.0362e-16
5.4703e-16
2.19356e-15
6.79847e-15
1.47537e-14
2.8997e-14
2.40504e-14
2.35138e-14
1.37261e-14
1.21495e-14
1.21271e-14
5.23329e-14
4.38167e-25
1.22913e-23
2.86465e-22
5.34026e-21
7.82638e-20
9.03149e-19
8.14342e-18
5.61777e-17
2.88165e-16
1.06452e-15
2.98215e-15
5.14431e-15
8.24711e-15
4.86261e-15
4.28488e-15
2.36836e-15
2.23509e-15
2.36163e-15
1.30602e-14
)
;

boundaryField
{
    leftWall
    {
        type            zeroGradient;
    }
    rightWall
    {
        type            zeroGradient;
    }
    lowerWall
    {
        type            zeroGradient;
    }
    atmosphere
    {
        type            inletOutlet;
        inletValue      uniform 0;
        value           nonuniform List<scalar> 
46
(
8.08908e-46
6.95421e-48
2.00135e-49
6.50575e-51
1.78759e-52
1.10119e-52
2.56044e-51
8.34356e-50
1.10482e-48
6.90344e-48
3.40935e-47
2.98199e-46
2.56774e-45
2.43463e-44
3.59265e-43
8.84672e-42
2.63893e-40
8.03064e-39
2.42137e-37
7.25309e-36
2.18978e-34
6.79534e-33
2.20566e-31
7.56576e-30
1.254e-28
2.01222e-27
3.07587e-26
4.38167e-25
1.22913e-23
2.86465e-22
0
0
0
0
0
0
0
0
0
0
0
0
0
0
0
0
)
;
    }
    defaultFaces
    {
        type            empty;
    }
}


// ************************************************************************* //
