/*--------------------------------*- C++ -*----------------------------------*\
| =========                 |                                                 |
| \\      /  F ield         | OpenFOAM: The Open Source CFD Toolbox           |
|  \\    /   O peration     | Version:  2.4.0                                 |
|   \\  /    A nd           | Web:      www.OpenFOAM.org                      |
|    \\/     M anipulation  |                                                 |
\*---------------------------------------------------------------------------*/
FoamFile
{
    version     2.0;
    format      ascii;
    class       volScalarField;
    location    "0.75";
    object      alpha.oil;
}
// * * * * * * * * * * * * * * * * * * * * * * * * * * * * * * * * * * * * * //

dimensions      [0 0 0 0 0 0 0];

internalField   nonuniform List<scalar> 
2268
(
4.8693e-17
2.93918e-16
4.22672e-16
9.29233e-16
1.78123e-15
1.52415e-15
2.44583e-15
2.10711e-15
2.45825e-15
5.023e-15
1.32301e-13
1.92081e-12
1.24388e-11
4.70841e-11
1.70141e-10
4.96935e-10
1.44085e-09
3.37869e-09
8.88556e-09
2.63842e-08
5.50847e-07
4.27272e-06
8.83797e-06
5.45928e-16
3.10873e-15
7.79358e-15
1.11219e-14
2.1732e-14
3.10845e-14
6.59451e-14
5.76693e-14
5.7646e-14
5.19496e-14
2.53915e-13
2.74158e-12
1.45154e-11
4.59617e-11
1.05848e-10
3.77902e-10
2.54891e-09
6.74974e-09
1.45021e-08
2.94752e-08
3.62497e-07
4.33241e-06
1.19039e-05
3.08902e-15
1.78343e-14
6.64878e-14
6.92496e-14
1.778e-13
3.8213e-13
8.44175e-13
7.2537e-13
6.31026e-13
4.45576e-13
3.89161e-13
2.24389e-12
1.16579e-11
3.56051e-11
7.64149e-11
6.15413e-10
3.34487e-09
1.0204e-08
2.23421e-08
3.96198e-08
9.82435e-08
1.45212e-06
1.16971e-05
1.22352e-14
7.76739e-14
3.21027e-13
2.98022e-13
1.3348e-12
3.34138e-12
8.76887e-12
6.88455e-12
5.4432e-12
3.81404e-12
1.98169e-12
2.81977e-12
1.17101e-11
3.60803e-11
8.88514e-11
9.64888e-10
5.21506e-09
1.84705e-08
5.78674e-08
1.55736e-07
4.78868e-07
2.19512e-06
1.16041e-05
4.1225e-14
2.93179e-13
9.52108e-13
1.06458e-12
9.49928e-12
1.9147e-11
9.08307e-11
4.91834e-11
2.59434e-11
1.90476e-11
6.05947e-12
5.2965e-12
1.5058e-11
3.41409e-11
2.92741e-10
6.55425e-09
3.98658e-08
1.13518e-07
3.57657e-07
8.01627e-07
1.87917e-06
4.58084e-06
1.24736e-05
1.56023e-13
8.84531e-13
2.05957e-12
4.71434e-12
6.37812e-11
4.72043e-10
9.12472e-10
7.4312e-10
3.30827e-10
1.37234e-10
4.23686e-10
6.78802e-10
4.64488e-10
3.24504e-09
1.80635e-07
9.26572e-07
2.15824e-06
2.95263e-06
2.32304e-06
2.22109e-06
3.18071e-06
5.30738e-06
1.20224e-05
8.58701e-13
1.88152e-12
2.86531e-12
3.91138e-12
1.92646e-09
2.56118e-08
7.31236e-09
7.45894e-09
5.27208e-09
6.89355e-10
1.19621e-09
9.99916e-09
6.96455e-08
1.30927e-06
7.40167e-06
1.47662e-05
1.62108e-05
8.68602e-06
4.32886e-06
3.13136e-06
3.14317e-06
4.00912e-06
7.04734e-06
7.35359e-12
2.07771e-12
2.26721e-12
6.26668e-12
6.3287e-08
5.08323e-07
1.92698e-08
1.80274e-08
2.66851e-08
6.24657e-10
6.23614e-10
3.21428e-08
2.01879e-06
1.43392e-05
3.7659e-05
4.57963e-05
2.30486e-05
3.12337e-06
3.12337e-06
7.71238e-06
3.57876e-06
3.88536e-06
8.77407e-05
0.159559
0.158912
0.157979
0.157381
0.157058
0.156973
0.156834
0.156248
0.156037
0.156033
0.155847
0.155061
0.155059
0.154926
0.154806
0.154242
0.15388
0.153757
0.153724
0.169533
0.55101
0.45963
0.368382
0.292154
0.231697
0.212219
0.210989
0.22131
0.255792
0.274102
0.263515
0.254177
0.22354
0.167952
0.153832
0.153763
0.153723
0.153411
0.302333
0.551689
0.54464
0.493882
0.45105
0.411881
0.404563
0.412493
0.453317
0.546189
0.695573
0.850582
0.88829
0.888052
0.619109
0.20328
0.153764
0.153446
0.153011
0.627286
0.484584
0.344639
0.301264
0.25359
0.18975
0.174935
0.175536
0.175656
0.211119
0.322794
0.553269
0.789354
0.935541
0.946944
0.429676
0.15394
0.152876
0.152628
0.333326
0.267396
0.244493
0.25321
0.229202
0.196236
0.175153
0.173718
0.189875
0.243807
0.359807
0.515644
0.715322
0.90874
0.961937
0.654397
0.176688
0.153532
0.157896
0.207913
0.207644
0.235359
0.256362
0.23518
0.200707
0.176751
0.146474
0.141815
0.155132
0.224262
0.375733
0.60793
0.866004
0.961453
0.662787
0.193404
0.160722
0.323356
0.211985
0.244878
0.320579
0.367033
0.356004
0.291578
0.204628
0.157114
0.141616
0.14176
0.150485
0.255741
0.508651
0.817791
0.956771
0.626225
0.213741
0.182791
0.714548
0.208755
0.304668
0.469353
0.575863
0.605387
0.535491
0.396687
0.244726
0.154326
0.155385
0.193697
0.285229
0.490408
0.785578
0.957395
0.73815
0.403573
0.411476
0.869428
8.05318e-11
1.43828e-07
8.85591e-07
9.23245e-07
1.25951e-06
1.22559e-05
1.69112e-05
1.32854e-05
4.37085e-06
1.11979e-06
3.91975e-07
5.01837e-07
1.56013e-06
1.58245e-05
8.75857e-05
0.000263296
0.000649818
0.00177355
0.00516319
0.0104207
0.0120899
0.0122418
0.0167523
3.68862e-08
5.20884e-06
0.000472545
0.000368035
0.000253983
0.00114727
0.000852669
0.00043858
0.000200966
0.000116766
5.80756e-05
3.53113e-05
1.50438e-05
1.56781e-05
0.000542446
0.00249947
0.00542393
0.0133972
0.0282273
0.0471042
0.0567838
0.0578166
0.0666303
1.00754e-06
0.00182154
0.0454547
0.0415906
0.0246433
0.039065
0.0285602
0.0115233
0.00448182
0.00202192
0.00105686
0.000695387
0.00035955
0.000934773
0.00806436
0.0447532
0.0976983
0.151006
0.198445
0.236485
0.252931
0.286822
0.343292
0.000568532
0.0806251
0.413234
0.471813
0.389763
0.375411
0.255813
0.157248
0.105047
0.0691139
0.0518133
0.0397175
0.0384735
0.108211
0.215585
0.333203
0.362273
0.361919
0.356023
0.331375
0.457754
0.659588
0.783981
0.0350538
0.455989
0.860398
0.867551
0.865899
0.821855
0.747273
0.67595
0.617503
0.567228
0.566277
0.583004
0.612469
0.612282
0.552175
0.392244
0.253154
0.108224
0.0218948
0.0232794
0.300008
0.820587
0.89328
0.289991
0.709921
0.715786
0.580194
0.567274
0.643831
0.712665
0.730546
0.730566
0.730546
0.642711
0.476345
0.274355
0.104555
0.00837282
5.87024e-05
1.39686e-06
3.97004e-07
7.69227e-05
0.0137571
0.283967
0.822273
0.893102
0.0894474
0.153024
0.0624036
0.031222
0.0230344
0.0143245
0.0151418
0.0449014
0.0401628
0.0249741
0.0104966
0.0011927
5.78386e-05
1.00804e-06
1.16336e-06
7.09069e-08
7.74867e-08
7.89602e-08
8.86658e-06
0.0040284
0.111392
0.406443
0.48521
0.00229427
0.00281873
0.000387839
0.000102648
1.3059e-05
7.37382e-08
1.40541e-06
1.4544e-05
0.000118673
5.17854e-05
1.20345e-05
6.95777e-07
6.02517e-08
5.19419e-08
5.30556e-08
7.0835e-08
1.1853e-07
2.41715e-07
4.94174e-06
0.000841701
0.0111077
0.0302957
0.03683
5.91324e-06
6.50952e-06
4.68563e-07
2.72774e-07
1.01304e-07
4.38547e-08
1.25587e-08
2.38757e-08
4.10262e-08
1.79208e-08
1.65558e-08
1.65572e-08
5.70087e-08
1.77114e-07
2.83805e-07
2.50728e-07
1.64839e-07
3.4158e-07
5.072e-06
8.05086e-05
0.000228696
0.000376309
0.000421968
2.65819e-07
2.81196e-07
2.09476e-07
1.27721e-07
4.25017e-08
8.18426e-09
1.17572e-08
1.94405e-08
2.71798e-08
1.65594e-08
1.65584e-08
1.92488e-08
7.18599e-08
3.02899e-07
3.32274e-07
3.91302e-07
3.42074e-07
4.2792e-07
1.424e-06
2.39451e-06
1.96612e-06
2.30043e-06
2.788e-06
1.42716e-07
7.77678e-08
6.94805e-08
6.51324e-08
2.12444e-08
2.39589e-09
1.85109e-08
3.99306e-08
3.8312e-08
1.75545e-08
1.66386e-08
2.11511e-08
5.87157e-08
2.39986e-07
3.91321e-07
3.909e-07
1.85162e-07
1.42287e-07
3.11179e-07
7.83253e-07
1.28643e-06
1.51058e-06
1.64547e-06
4.41301e-08
3.19857e-08
2.86778e-08
1.69077e-08
2.1497e-09
3.41367e-10
1.0122e-08
3.92899e-08
4.01561e-08
3.02163e-08
5.97709e-08
6.3545e-08
6.37529e-08
1.20006e-07
1.95781e-07
8.35273e-08
5.63005e-08
7.75079e-08
9.76184e-08
2.7748e-07
6.64505e-07
7.39185e-07
8.59143e-07
1.96777e-08
1.20768e-08
9.42567e-09
4.26746e-09
1.88504e-10
4.83959e-11
3.37497e-09
1.73216e-08
2.56348e-08
6.61373e-08
7.02556e-08
5.90974e-08
4.16288e-08
4.02251e-08
4.6788e-08
2.97687e-08
2.97344e-08
2.95813e-08
4.81185e-08
1.18732e-07
2.51888e-07
3.5556e-07
4.35562e-07
1.14459e-08
4.90796e-09
2.73122e-09
2.203e-10
1.46447e-11
1.88645e-11
6.24697e-10
5.74067e-09
1.41255e-08
4.28627e-08
4.95917e-08
2.28509e-08
2.26753e-08
2.44102e-08
3.18473e-08
5.0367e-08
3.03327e-08
2.51867e-08
3.27993e-08
6.33842e-08
1.30646e-07
1.62287e-07
2.47348e-07
4.92804e-09
1.67519e-09
1.42246e-10
7.45624e-12
7.69781e-12
1.19121e-11
5.18326e-11
5.72793e-10
3.43691e-09
9.73951e-09
1.23154e-08
7.24233e-09
2.06871e-08
4.51466e-08
7.1545e-08
8.80515e-08
2.78763e-08
2.527e-08
2.28241e-08
3.2457e-08
4.02222e-08
8.6583e-08
1.13747e-07
1.15637e-09
1.2169e-10
4.85426e-12
3.17582e-12
4.45184e-12
7.92711e-12
2.43761e-11
5.92018e-11
2.23293e-10
6.76673e-10
8.7739e-10
4.07611e-09
1.58286e-08
5.89986e-08
1.19964e-07
1.20007e-07
6.02857e-08
2.17918e-08
1.76764e-08
1.94989e-08
1.29175e-08
3.54387e-08
4.6087e-08
4.78035e-11
4.76199e-12
1.56909e-12
1.29278e-12
2.49286e-12
4.79769e-12
1.37362e-11
4.15519e-11
9.02784e-11
1.96948e-10
3.30815e-10
2.17875e-09
1.13078e-08
4.93941e-08
1.20008e-07
1.13146e-07
6.85587e-08
3.26753e-08
1.51654e-08
1.04042e-08
9.03276e-09
9.40963e-09
1.46517e-08
4.18555e-12
1.26989e-12
3.85851e-13
5.33302e-13
1.23364e-12
2.56499e-12
7.73232e-12
2.65169e-11
6.94953e-11
1.45586e-10
2.0528e-10
7.80324e-10
8.01962e-09
4.31427e-08
7.63619e-08
1.08179e-07
6.13525e-08
3.56386e-08
1.64712e-08
7.68094e-09
5.49666e-09
4.66911e-09
3.9034e-09
9.85115e-13
2.45066e-13
8.86634e-14
2.07967e-13
5.2755e-13
1.22976e-12
4.19231e-12
1.56401e-11
4.47991e-11
1.05315e-10
1.47141e-10
4.59117e-10
6.61152e-09
2.23527e-08
5.22371e-08
4.47832e-08
6.11323e-08
3.375e-08
1.64157e-08
7.7877e-09
4.41713e-09
2.37839e-09
1.99644e-09
1.76762e-13
3.86494e-14
2.11812e-14
7.21997e-14
1.96587e-13
5.37979e-13
2.10668e-12
8.28266e-12
2.48276e-11
5.9967e-11
8.55871e-11
2.45924e-10
4.19085e-09
1.45625e-08
1.99004e-08
3.13757e-08
2.9929e-08
1.96656e-08
1.44715e-08
7.03779e-09
3.37869e-09
1.55146e-09
7.48537e-10
2.75058e-14
5.36423e-15
5.20279e-15
2.17396e-14
6.42616e-14
2.11656e-13
9.30852e-13
3.77476e-12
1.15667e-11
2.76918e-11
4.0483e-11
1.00742e-10
1.1036e-09
5.66982e-09
1.19394e-08
1.33757e-08
2.10888e-08
1.4379e-08
8.2617e-09
4.61239e-09
2.18685e-09
9.56429e-10
4.11795e-10
3.73724e-15
6.86964e-16
1.22055e-15
5.6329e-15
1.84439e-14
7.27379e-14
3.48324e-13
1.44141e-12
4.47317e-12
1.05538e-11
1.59287e-11
2.17341e-11
8.67446e-11
2.48919e-09
4.47297e-09
7.75823e-09
1.17871e-08
8.66725e-09
5.14336e-09
2.79853e-09
1.37584e-09
5.82621e-10
2.53953e-10
4.4717e-16
8.45734e-17
2.57967e-16
1.26177e-15
4.64831e-15
2.1419e-14
1.08928e-13
4.58002e-13
1.43801e-12
3.38142e-12
5.3306e-12
9.00207e-12
1.56318e-11
6.30639e-10
1.73582e-09
2.87458e-09
5.1964e-09
4.09869e-09
2.61427e-09
1.41765e-09
7.18824e-10
3.16561e-10
1.29195e-10
4.7797e-17
1.03325e-17
4.80142e-17
2.46163e-16
1.02773e-15
5.37673e-15
2.85707e-14
1.22039e-13
3.89509e-13
9.3059e-13
1.57652e-12
3.09266e-12
7.35449e-12
1.16197e-10
5.12989e-10
1.03186e-09
1.86228e-09
1.58329e-09
1.03489e-09
5.86971e-10
2.95771e-10
1.35423e-10
4.99933e-11
4.63505e-18
1.26083e-18
7.8346e-18
4.21753e-17
1.99719e-16
1.15723e-15
6.37116e-15
2.77332e-14
9.08426e-14
2.2611e-13
4.26581e-13
9.40317e-13
2.65052e-12
1.86272e-11
1.33012e-10
2.66197e-10
5.98244e-10
5.41251e-10
3.3874e-10
1.92014e-10
9.68183e-11
4.38749e-11
1.69482e-11
4.12507e-19
1.50389e-19
1.12616e-18
6.41018e-18
3.43177e-17
2.16199e-16
1.23008e-15
5.49477e-15
1.8738e-14
4.98976e-14
1.07732e-13
2.63129e-13
7.9593e-13
4.93894e-12
2.87793e-11
6.12959e-11
5.05008e-11
8.06797e-11
9.05382e-11
5.12705e-11
2.61196e-11
1.18735e-11
4.8094e-12
3.40895e-20
1.70596e-20
1.43661e-19
8.72539e-19
5.25741e-18
3.55807e-17
2.09529e-16
9.69518e-16
3.49676e-15
1.01876e-14
2.5363e-14
6.76275e-14
2.08117e-13
1.11754e-12
5.44791e-12
7.78518e-12
8.14428e-12
9.17719e-12
1.05902e-11
1.11021e-11
5.95963e-12
2.74904e-12
1.15372e-12
2.64193e-21
1.80167e-21
1.64127e-20
1.07419e-19
7.25364e-19
5.23926e-18
3.20697e-17
1.55249e-16
5.99929e-16
1.93238e-15
5.47405e-15
1.56486e-14
4.78749e-14
2.19744e-13
9.05578e-13
1.81426e-12
2.03039e-12
2.38637e-12
2.77746e-12
2.17707e-12
1.18037e-12
5.54203e-13
2.394e-13
1.93906e-22
1.75242e-22
1.69565e-21
1.20912e-20
9.11426e-20
6.99979e-19
4.47532e-18
2.28469e-17
9.51419e-17
3.36957e-16
1.05752e-15
3.18789e-15
9.66344e-15
3.81211e-14
1.36478e-13
3.07339e-13
3.78693e-13
4.65797e-13
5.26753e-13
3.73143e-13
2.05657e-13
9.8425e-14
4.3475e-14
1.35987e-23
1.56434e-23
1.59942e-22
1.25703e-21
1.05357e-20
8.58344e-20
5.75206e-19
3.10738e-18
1.39112e-17
5.34268e-17
1.81009e-16
5.67189e-16
1.70418e-15
5.91392e-15
1.87966e-14
4.34469e-14
5.96671e-14
7.59238e-14
8.09597e-14
5.6173e-14
3.16115e-14
1.54298e-14
6.95216e-15
9.18569e-25
1.28434e-24
1.39151e-23
1.21829e-22
1.12922e-21
9.73167e-21
6.83866e-20
3.90198e-19
1.86111e-18
7.61611e-18
2.72507e-17
8.78598e-17
2.62467e-16
8.27054e-16
2.38553e-15
5.43298e-15
8.12037e-15
1.05491e-14
1.06665e-14
7.46796e-15
4.30404e-15
2.14013e-15
9.82623e-16
6.00311e-26
9.73619e-26
1.12732e-24
1.1087e-23
1.1278e-22
1.02405e-21
7.52789e-21
4.51104e-20
2.26607e-19
9.72725e-19
3.61945e-18
1.19146e-17
3.54447e-17
1.04279e-16
2.78315e-16
6.12505e-16
9.64958e-16
1.2676e-15
1.24027e-15
8.83813e-16
5.20314e-16
2.63268e-16
1.2355e-16
3.80292e-27
6.85795e-27
8.58369e-26
9.51667e-25
1.05165e-23
1.00048e-22
7.6569e-22
4.78259e-21
2.50219e-20
1.11266e-19
4.25855e-19
1.42317e-18
4.22126e-18
1.18481e-17
2.97872e-17
6.30225e-17
1.01753e-16
1.33885e-16
1.28809e-16
9.35396e-17
5.61307e-17
2.89025e-17
1.39458e-17
2.33093e-28
4.5184e-28
6.18865e-27
7.71646e-26
9.1551e-25
9.06765e-24
7.18411e-23
4.64236e-22
2.50616e-21
1.14373e-20
4.46921e-20
1.51026e-19
4.46819e-19
1.21401e-18
2.91665e-18
5.94289e-18
9.63943e-18
1.26198e-17
1.2065e-17
8.91376e-18
5.43949e-18
2.85548e-18
1.43038e-18
1.37785e-29
2.80502e-29
4.2472e-28
5.90686e-27
7.4335e-26
7.61516e-25
6.20914e-24
4.12314e-23
2.28067e-22
1.06169e-21
4.21535e-21
1.43674e-20
4.24153e-20
1.12619e-19
2.61304e-19
5.1498e-19
8.29128e-19
1.07547e-18
1.02725e-18
7.70245e-19
4.77479e-19
2.56583e-19
1.35568e-19
7.82383e-31
1.65324e-30
2.78331e-29
4.26282e-28
5.62555e-27
5.92431e-26
4.94429e-25
3.35559e-24
1.89175e-23
8.9466e-23
3.59767e-22
1.23484e-21
3.64052e-21
9.51121e-21
2.14972e-20
4.11957e-20
6.54112e-20
8.37739e-20
8.00966e-20
6.08411e-20
3.83295e-20
2.12182e-20
1.22419e-20
4.25455e-32
9.31842e-32
1.74471e-30
2.89859e-29
3.97177e-28
4.27713e-27
3.63647e-26
2.51103e-25
1.43669e-24
6.88047e-24
2.7959e-23
9.65549e-23
2.84558e-22
7.35094e-22
1.62919e-21
3.05176e-21
4.77299e-21
6.03604e-21
5.77824e-21
4.4336e-21
2.84199e-21
1.63648e-21
1.12912e-21
2.21403e-33
5.06139e-33
1.04832e-31
1.8602e-30
2.62483e-29
2.87715e-28
2.4821e-27
1.73665e-26
1.00465e-25
4.85741e-25
1.99039e-24
6.91089e-24
2.03676e-23
5.21721e-23
1.13975e-22
2.09751e-22
3.23649e-22
4.04899e-22
3.88706e-22
3.01676e-22
1.97335e-22
1.19802e-22
1.21303e-22
1.10535e-34
2.6829e-34
6.13491e-33
1.14774e-31
1.65425e-30
1.83395e-29
1.5958e-28
1.12438e-27
6.53773e-27
3.17343e-26
1.30515e-25
4.54631e-25
1.33988e-24
3.41104e-24
7.37775e-24
1.33985e-23
2.04327e-23
2.53358e-23
2.44503e-23
1.92633e-23
1.29621e-23
8.57099e-24
1.69203e-23
5.32788e-36
1.41966e-35
3.5513e-34
6.91055e-33
1.00911e-31
1.12442e-30
9.81339e-30
6.92451e-29
4.02428e-28
1.95091e-27
8.00889e-27
2.7792e-26
8.14814e-26
2.05645e-25
4.40146e-25
7.90567e-25
1.196e-24
1.47727e-24
1.43829e-24
1.15484e-24
8.07759e-25
6.24778e-25
2.90657e-24
2.49663e-37
7.48082e-37
2.0145e-35
4.02721e-34
5.92149e-33
6.6028e-32
5.75668e-31
4.05186e-30
2.3452e-29
1.13159e-28
4.61958e-28
1.59126e-27
4.62503e-27
1.15412e-26
2.43908e-26
4.32544e-26
6.47828e-26
7.97341e-26
7.85104e-26
6.46805e-26
4.78203e-26
5.12652e-26
5.72469e-25
1.1436e-38
3.92312e-38
1.11798e-36
2.27321e-35
3.35001e-34
3.72629e-33
3.23616e-32
2.2656e-31
1.3024e-30
6.236e-30
2.52329e-29
8.60078e-29
2.47063e-28
6.08139e-28
1.26658e-27
2.21495e-27
3.27585e-27
4.01129e-27
3.98891e-27
3.3866e-27
2.95531e-27
1.26558e-26
3.42949e-25
0.0247468
0.0260826
0.0327211
0.0539809
0.0684128
0.0683125
0.0843645
0.167217
0.369461
0.380991
0.428306
0.551685
0.893571
0.893335
0.888443
0.817232
0.893503
0.893354
0.866976
0.699138
0.819408
0.459914
0.22837
0.141398
0.123643
0.028969
0.00756252
0.0030546
0.00377878
0.000219881
3.06346e-05
3.38386e-06
5.69753e-05
2.99732e-06
3.46365e-06
3.3688e-06
2.99678e-06
2.99271e-06
3.43262e-06
3.22847e-06
2.02134e-06
2.19046e-06
2.14922e-06
2.11002e-06
8.26079e-07
8.33959e-07
6.63646e-07
6.39087e-07
5.44041e-07
5.46756e-07
3.27433e-07
2.6949e-07
2.56164e-07
2.60349e-07
2.56152e-07
1.45263e-07
1.04767e-07
1.35108e-07
9.13292e-08
8.59164e-08
3.32128e-08
3.17555e-08
2.88307e-08
4.154e-08
1.24312e-08
1.08573e-08
1.59774e-08
1.71169e-08
4.36506e-09
4.93009e-09
5.67308e-09
7.95629e-09
1.56058e-09
1.52921e-09
1.4258e-09
1.78632e-09
5.18873e-10
5.15242e-10
3.66039e-10
3.59546e-10
2.13275e-10
1.66951e-10
1.2456e-10
7.7825e-11
1.09726e-10
8.06909e-11
5.42048e-11
4.04376e-11
5.20023e-11
3.76745e-11
2.59396e-11
1.86566e-11
2.2187e-11
1.57663e-11
1.03822e-11
7.20514e-12
9.44716e-12
5.65597e-12
3.50206e-12
2.34909e-12
2.7928e-12
1.63572e-12
9.95806e-13
6.56968e-13
6.805e-13
3.99655e-13
2.4337e-13
1.59701e-13
1.42471e-13
8.42735e-14
5.1746e-14
3.42373e-14
2.60532e-14
1.55576e-14
9.71464e-15
6.68031e-15
4.19181e-15
2.54071e-15
1.64109e-15
1.27639e-15
5.98062e-16
3.72108e-16
2.60256e-16
2.83519e-16
7.64379e-17
5.01178e-17
4.38115e-17
9.39416e-17
8.89618e-18
6.63132e-18
1.00367e-17
4.44561e-17
9.75613e-19
1.04145e-18
3.65584e-18
2.48185e-17
1.11637e-19
2.60198e-19
1.76909e-18
1.46399e-17
1.68518e-20
9.41963e-20
8.62039e-19
8.01016e-18
3.815e-21
3.54673e-20
3.72898e-19
3.8015e-18
1.03638e-21
1.20417e-20
1.39422e-19
1.54462e-18
2.75304e-22
3.61704e-21
4.57498e-20
5.50263e-19
6.80389e-23
9.86185e-22
1.37228e-20
1.82292e-19
1.68996e-23
2.70663e-22
4.21215e-21
6.36257e-20
1.16782e-23
1.9331e-22
3.10404e-21
4.76245e-20
0.179771
0.310176
0.625428
0.844921
0.868817
0.833088
0.740903
0.587478
0.358754
0.232404
0.2398
0.31645
0.49439
0.746683
0.942707
0.931493
0.836113
0.877169
0.911452
0.346693
0.42816
0.653403
0.980349
0.981698
0.953841
0.897513
0.861965
0.733578
0.512273
0.335873
0.367331
0.498922
0.70681
0.900977
0.971914
0.976469
0.970968
0.920097
0.559568
0.544715
0.935328
0.979225
0.982055
0.975072
0.927689
0.758459
0.727775
0.623773
0.541684
0.42579
0.469018
0.647904
0.865538
0.965318
0.976478
0.972737
0.879282
0.767126
0.921452
0.935302
0.936072
0.984167
0.987922
0.988723
0.988725
0.976569
0.853963
0.78796
0.548928
0.474103
0.597851
0.856986
0.948711
0.961778
0.937765
0.79511
0.631971
0.754135
0.788194
0.925476
0.981961
0.981247
0.924773
0.875845
0.877964
0.878325
0.879484
0.665315
0.494251
0.561136
0.870735
0.915751
0.895944
0.824693
0.684211
0.11975
0.267782
0.730448
0.950464
0.950309
0.734443
0.33673
0.204236
0.243446
0.49198
0.831943
0.802951
0.524797
0.445101
0.725867
0.725573
0.751507
0.627206
0.578902
0.0104075
0.209567
0.790876
0.946255
0.70884
0.14255
0.0153483
0.0153273
0.015359
0.0407503
0.444587
0.803279
0.606769
0.40921
0.447479
0.412875
0.432742
0.47218
0.530329
0.00505144
0.169772
0.691825
0.89484
0.529407
0.045853
0.0153266
0.015331
0.0153284
0.0151972
0.156331
0.75471
0.715025
0.426896
0.402297
0.397796
0.397604
0.458639
0.530322
0.000821784
0.0276358
0.256665
0.631921
0.619195
0.0959479
0.0153388
0.0152938
0.0151032
0.0153178
0.0584884
0.506113
0.746314
0.629058
0.526714
0.509015
0.490898
0.486454
0.550871
4.50317e-05
0.000644051
0.0247145
0.27933
0.626672
0.447845
0.109016
0.0153881
0.0153792
0.0150865
0.0804799
0.569831
0.746374
0.72642
0.6484
0.636631
0.562207
0.557324
0.611133
1.89483e-06
7.37389e-06
0.00121388
0.0622386
0.486531
0.75313
0.541087
0.0665338
0.0154011
0.0153806
0.0656203
0.484289
0.746314
0.746374
0.563524
0.368498
0.598224
0.615505
0.616796
6.64518e-07
9.81458e-07
4.77151e-05
0.012126
0.233321
0.754832
0.831131
0.421725
0.0969694
0.0581225
0.0825202
0.269425
0.59779
0.540115
0.202816
0.202609
0.342352
0.614246
0.619476
2.83717e-07
3.55092e-07
6.4153e-07
0.00114653
0.0659607
0.481315
0.832472
0.832754
0.607921
0.506188
0.515996
0.508154
0.508804
0.742133
0.734853
0.549193
0.449169
0.534749
0.62308
1.31932e-07
1.74564e-07
4.06893e-07
3.90882e-06
0.00494653
0.137196
0.6382
0.857244
0.856577
0.857246
0.856577
0.855743
0.852634
0.866597
0.866734
0.833202
0.733752
0.680817
0.675683
6.49967e-08
1.00644e-07
3.45889e-07
7.4035e-07
3.36673e-05
0.00848203
0.15682
0.595428
0.781084
0.782821
0.756627
0.728011
0.74307
0.811585
0.843928
0.829963
0.788902
0.750574
0.747721
2.43226e-08
6.14935e-08
2.45399e-07
5.7092e-07
3.9647e-07
0.000142921
0.00755106
0.0734798
0.204063
0.254472
0.204096
0.16994
0.179148
0.266915
0.417699
0.536294
0.583292
0.548696
0.460985
1.72579e-08
3.28541e-08
1.25807e-07
1.80218e-07
3.16312e-07
1.2214e-06
0.000139068
0.00116278
0.00230824
0.00260925
0.00173255
0.000651835
0.000535042
0.00123273
0.00507219
0.0133981
0.0181986
0.0103571
0.00161052
7.5707e-09
1.85379e-08
4.04536e-08
9.65269e-08
1.24516e-07
4.15964e-07
4.77634e-07
1.57957e-06
1.25928e-06
8.26434e-07
9.01644e-07
9.31072e-07
1.28981e-06
1.37727e-06
1.68707e-06
2.15819e-06
5.5934e-06
1.63929e-05
3.39532e-05
3.69183e-09
6.0841e-09
1.52082e-08
4.61742e-08
7.74213e-08
1.34583e-07
1.80597e-07
1.46009e-07
1.46121e-07
5.88176e-07
1.07338e-06
1.38465e-06
1.73284e-06
1.75493e-06
1.74483e-06
1.96861e-06
5.27964e-06
0.000737912
0.0089947
8.22813e-10
1.95753e-09
5.10469e-09
1.85979e-08
3.42258e-08
5.62364e-08
7.87749e-08
1.292e-07
1.88238e-07
3.34079e-07
8.16466e-07
1.30091e-06
2.0081e-06
2.03521e-06
2.08991e-06
8.78386e-06
0.000663355
0.0248088
0.191483
8.2153e-11
5.5398e-10
1.41401e-09
5.37243e-09
9.94695e-09
1.48795e-08
2.32888e-08
4.38431e-08
7.90534e-08
2.0308e-07
4.26478e-07
8.24937e-07
1.464e-06
2.26877e-06
3.94456e-05
0.00151963
0.0185627
0.239643
0.736421
2.38134e-11
7.6169e-11
3.26479e-10
1.00895e-09
1.86326e-09
2.75697e-09
5.85752e-09
1.34717e-08
3.1087e-08
7.05429e-08
1.66393e-07
4.25285e-07
1.02307e-06
2.18981e-06
0.000445409
0.0141932
0.123036
0.646974
0.974593
1.23784e-11
1.30791e-11
2.98266e-11
1.07505e-10
3.26659e-10
9.7157e-10
3.03804e-09
8.24121e-09
2.35726e-08
7.05405e-08
1.85967e-07
3.84929e-07
8.38429e-07
1.70091e-06
0.00121116
0.0304872
0.238397
0.777319
0.985827
4.95288e-12
5.91012e-12
1.38129e-11
3.07291e-11
1.21476e-10
4.35205e-10
1.51639e-09
5.59767e-09
2.11077e-08
8.3967e-08
2.58631e-07
4.77099e-07
8.57033e-07
1.82926e-06
0.0018699
0.0351368
0.207437
0.452766
0.985826
1.61109e-12
2.12297e-12
5.59177e-12
1.53545e-11
4.06741e-11
1.685e-10
7.59027e-10
3.8032e-09
1.99318e-08
1.09742e-07
3.87673e-07
6.46782e-07
9.83835e-07
3.2758e-06
0.00229423
0.016008
0.0208689
0.0964123
0.971074
4.42969e-13
6.19278e-13
1.78148e-12
5.62091e-12
1.81779e-11
7.10538e-11
3.95795e-10
2.52766e-09
1.972e-08
1.52719e-07
6.08945e-07
1.06537e-06
1.38432e-06
1.79492e-05
0.00180332
0.000431857
0.000413633
0.0535325
0.749782
1.06564e-13
1.61716e-13
5.38262e-13
2.07758e-12
8.36127e-12
3.70386e-11
2.07146e-10
1.63179e-09
1.93156e-08
2.01744e-07
9.30483e-07
1.59194e-06
1.95255e-06
5.80109e-05
0.00019716
8.78098e-06
0.0004334
0.0418863
0.184567
2.44339e-14
5.08795e-14
2.38223e-13
1.24458e-12
6.40381e-12
3.20798e-11
1.64293e-10
1.00799e-09
9.19488e-09
1.75865e-07
1.05195e-06
1.84189e-06
2.20728e-06
5.79835e-05
1.33187e-05
6.31864e-06
0.000695791
0.00698567
0.00163381
6.45302e-15
2.48214e-14
1.58674e-13
9.94978e-13
5.80301e-12
3.13174e-11
1.50761e-10
5.01901e-10
3.81671e-09
7.17204e-08
5.58144e-07
1.66966e-06
2.16628e-06
4.59987e-05
6.59188e-06
6.36222e-06
0.000126371
6.20445e-05
4.50172e-06
2.33705e-15
1.5036e-14
1.14005e-13
8.03108e-13
5.18445e-12
3.0327e-11
1.48517e-10
3.96588e-10
1.55063e-09
1.74335e-08
1.53933e-07
1.10568e-06
1.87492e-06
1.4191e-05
7.4718e-06
5.38518e-06
6.07467e-06
1.60967e-06
1.58533e-06
1.12522e-15
9.79051e-15
8.49954e-14
6.72438e-13
4.78425e-12
2.99321e-11
1.51404e-10
4.70909e-10
1.57653e-09
8.25688e-09
5.66278e-08
4.91909e-07
1.28076e-06
5.56084e-06
7.57768e-06
4.9659e-06
2.02628e-06
1.60302e-06
1.23246e-06
6.62217e-16
7.04982e-15
7.05505e-14
6.33627e-13
5.02841e-12
3.43464e-11
1.90131e-10
6.95956e-10
1.83284e-09
6.74646e-09
2.71586e-08
1.62606e-07
6.51049e-07
2.52437e-06
7.58653e-06
7.6963e-06
2.46815e-06
1.45089e-06
8.90729e-07
4.06609e-16
5.01331e-15
5.68777e-14
5.74284e-13
5.05948e-12
3.77124e-11
2.23222e-10
8.82559e-10
2.84112e-09
1.16612e-08
2.85462e-08
7.26702e-08
3.11948e-07
1.1352e-06
6.34054e-06
7.70468e-06
5.53384e-06
1.23197e-06
6.37889e-07
2.54119e-16
3.54279e-15
4.49547e-14
5.05801e-13
4.95304e-12
4.06429e-11
2.55441e-10
9.89989e-10
6.50295e-09
2.18376e-08
6.78984e-08
1.55001e-07
3.05922e-07
7.91553e-07
4.9717e-06
7.61011e-06
4.88276e-06
1.01356e-06
3.84862e-07
1.60539e-16
2.50284e-15
3.53523e-14
4.4513e-13
4.93351e-12
4.58921e-11
3.20292e-10
1.50251e-09
1.12814e-08
4.73875e-08
1.37519e-07
4.75911e-07
7.14552e-07
1.01352e-06
4.97755e-06
7.64129e-06
2.22007e-06
7.72668e-07
1.95198e-07
9.22028e-17
1.5775e-15
2.41979e-14
3.27329e-13
3.79985e-12
3.51384e-11
2.42523e-10
1.83022e-09
1.26071e-08
5.63009e-08
1.82529e-07
6.55746e-07
1.07808e-06
1.61177e-06
5.83746e-06
3.90201e-06
1.20248e-06
5.35733e-07
1.17368e-07
4.52903e-17
8.31692e-16
1.34085e-14
1.85952e-13
2.15911e-12
1.9886e-11
1.43952e-10
1.19868e-09
7.84619e-09
3.91351e-08
1.21148e-07
5.16312e-07
1.13189e-06
2.21246e-06
3.25423e-06
1.50037e-06
7.96921e-07
1.85372e-07
6.6023e-08
1.88555e-17
3.65926e-16
6.09011e-15
8.49098e-14
9.69116e-13
8.48385e-12
4.92578e-11
5.60243e-10
3.31421e-09
1.61773e-08
5.77477e-08
1.88845e-07
7.30199e-07
1.2794e-06
1.27155e-06
6.96808e-07
2.49566e-07
6.73967e-08
2.01539e-08
6.87974e-18
1.41234e-16
2.43745e-15
3.45501e-14
3.94284e-13
3.38809e-12
1.97045e-11
2.30509e-10
1.25022e-09
5.66402e-09
2.06925e-08
7.03078e-08
2.37433e-07
3.90345e-07
2.83696e-07
1.15699e-07
3.50699e-08
1.54877e-08
6.91788e-09
2.41606e-18
5.47649e-17
1.0298e-15
1.58018e-14
1.98541e-13
2.02939e-12
1.71576e-11
1.30918e-10
7.20298e-10
3.2697e-09
1.19223e-08
3.23558e-08
6.48367e-08
5.66652e-08
4.55847e-08
2.07054e-08
1.539e-08
1.39096e-08
4.01677e-09
9.55229e-19
2.72034e-17
6.6596e-16
1.35247e-14
2.14577e-13
2.56817e-12
2.33358e-11
1.64271e-10
9.19048e-10
3.7122e-09
1.13076e-08
1.94582e-08
2.21632e-08
2.38642e-08
1.44425e-08
6.68372e-09
1.06119e-08
9.69183e-09
3.41803e-09
6.8441e-19
1.95275e-17
4.64992e-16
8.87691e-15
1.32884e-13
1.55796e-12
1.41572e-11
9.43052e-11
4.13814e-10
1.2741e-09
2.32479e-09
1.0696e-09
3.99247e-10
4.34034e-10
2.28272e-09
1.80167e-09
3.12642e-09
2.80904e-09
1.20588e-09
)
;

boundaryField
{
    leftWall
    {
        type            zeroGradient;
    }
    rightWall
    {
        type            zeroGradient;
    }
    lowerWall
    {
        type            zeroGradient;
    }
    atmosphere
    {
        type            inletOutlet;
        inletValue      uniform 0;
        value           nonuniform List<scalar> 
46
(
1.1436e-38
3.92312e-38
1.11798e-36
2.27321e-35
3.35001e-34
3.72629e-33
3.23616e-32
2.2656e-31
1.3024e-30
6.236e-30
2.52329e-29
8.60078e-29
2.47063e-28
6.08139e-28
1.26658e-27
2.21495e-27
3.27585e-27
4.01129e-27
3.98891e-27
3.3866e-27
2.95531e-27
1.26558e-26
3.42949e-25
1.16782e-23
1.9331e-22
3.10404e-21
4.76245e-20
6.8441e-19
1.95275e-17
4.64992e-16
0
0
0
0
0
0
0
0
0
0
0
0
0
0
0
0
)
;
    }
    defaultFaces
    {
        type            empty;
    }
}


// ************************************************************************* //
