/*--------------------------------*- C++ -*----------------------------------*\
| =========                 |                                                 |
| \\      /  F ield         | OpenFOAM: The Open Source CFD Toolbox           |
|  \\    /   O peration     | Version:  2.4.0                                 |
|   \\  /    A nd           | Web:      www.OpenFOAM.org                      |
|    \\/     M anipulation  |                                                 |
\*---------------------------------------------------------------------------*/
FoamFile
{
    version     2.0;
    format      ascii;
    class       volScalarField;
    location    "0.75";
    object      alpha.water;
}
// * * * * * * * * * * * * * * * * * * * * * * * * * * * * * * * * * * * * * //

dimensions      [0 0 0 0 0 0 0];

internalField   nonuniform List<scalar> 
2268
(
4.1556e-08
5.19485e-08
2.2563e-08
2.69328e-08
3.15392e-08
2.24193e-08
1.71724e-08
1.544e-08
1.66159e-08
1.95716e-08
1.74009e-08
1.30949e-08
9.20807e-09
8.33069e-09
8.13614e-09
6.81569e-09
4.67837e-09
3.76325e-09
3.66431e-09
3.98694e-09
2.24992e-09
7.9562e-10
3.14512e-10
0.000194968
0.000223406
0.000122456
0.000114156
0.000105685
3.41746e-05
4.56488e-06
6.22355e-07
2.69896e-07
2.27663e-07
1.23153e-07
4.76916e-08
3.21556e-08
3.12221e-08
3.12553e-08
2.5316e-08
2.06228e-08
1.42427e-08
1.26406e-08
1.29979e-08
1.30916e-08
1.56856e-09
8.14676e-10
0.0658444
0.0664363
0.0572052
0.0518857
0.0441655
0.0231231
0.00427454
0.000397324
3.83256e-05
8.4427e-06
2.05369e-06
4.61318e-07
2.53833e-07
2.76203e-07
1.57397e-07
6.92212e-08
4.66268e-08
4.15442e-08
5.21263e-08
6.64339e-08
4.08208e-08
1.16156e-08
4.02202e-09
0.822068
0.821367
0.809959
0.801176
0.78176
0.734496
0.638112
0.47207
0.230739
0.0199718
0.000372288
1.75622e-05
1.67432e-06
5.81339e-07
4.33579e-07
3.22355e-07
1.93244e-07
1.8187e-07
2.58901e-07
3.04385e-07
1.45999e-07
4.77066e-08
1.07401e-08
0.999991
0.999991
0.999991
0.999991
0.999991
0.999991
0.999621
0.987415
0.898669
0.430544
0.0310507
0.000924428
6.32086e-05
1.95497e-05
1.08445e-05
4.28086e-06
1.45314e-06
9.37485e-07
1.07511e-06
1.11926e-06
5.14697e-07
3.3094e-07
4.14694e-08
0.999995
0.999995
0.999995
0.999995
0.999995
0.999995
0.999995
0.999987
0.997821
0.867453
0.257848
0.0149628
0.000723839
0.000106398
3.4962e-05
1.81026e-05
3.56785e-05
4.44526e-05
3.30921e-05
3.37432e-05
0.000130863
0.000208633
4.2301e-05
0.999993
0.999993
0.999994
0.999994
0.999995
0.999995
0.999995
0.999995
0.999612
0.955935
0.553031
0.0752921
0.00411726
0.000409669
0.000583236
0.00344575
0.00837761
0.0104013
0.00959606
0.00986432
0.0179095
0.0226017
0.0097874
0.999994
0.999995
0.999995
0.999995
0.999995
0.999995
0.999995
0.999994
0.999924
0.987088
0.792413
0.282478
0.0305184
0.0159931
0.0561123
0.117544
0.176774
0.214169
0.235741
0.260886
0.309254
0.323704
0.207406
0.000429237
0.000752009
0.00160378
0.00171728
0.00148441
0.000898946
0.000490364
0.000277464
0.000186773
0.000105448
3.4748e-05
5.96848e-06
2.57347e-06
2.56576e-06
2.70388e-06
6.56388e-06
5.28249e-05
0.000163325
0.000250427
0.000469306
0.0123771
0.0301618
0.054214
0.0670113
0.0610854
0.0508755
0.0407607
0.0381221
0.0294169
0.0121929
0.00416556
0.000370035
0.000136671
4.22111e-05
1.20027e-05
4.75886e-05
0.00022617
0.000395287
0.000997802
0.109349
0.253881
0.403072
0.495748
0.539885
0.539299
0.519534
0.480283
0.396109
0.254819
0.109858
0.043377
0.0135968
0.00238619
0.000106485
6.51119e-05
0.000209559
0.000437916
0.130865
0.352953
0.58422
0.684186
0.743699
0.806238
0.823134
0.82424
0.824157
0.788695
0.677014
0.446498
0.209927
0.0632399
0.0138999
0.000580714
8.98764e-05
0.000221382
0.000434343
0.56104
0.641165
0.715254
0.740514
0.770169
0.803509
0.823979
0.824237
0.793359
0.695829
0.613776
0.482903
0.284601
0.0911986
0.0134482
0.00100733
0.000162948
0.000254805
0.000479946
0.704135
0.719979
0.739812
0.74134
0.764576
0.799144
0.822211
0.810327
0.775421
0.762063
0.692987
0.605288
0.391554
0.13393
0.016994
0.00138448
0.000295592
0.000302317
0.00211807
0.698151
0.705777
0.669349
0.632203
0.643837
0.708279
0.79294
0.83419
0.845801
0.841546
0.813979
0.71158
0.488281
0.182109
0.0242687
0.00167012
0.000547156
0.000617815
0.0167471
0.685334
0.630717
0.510017
0.421325
0.394433
0.464365
0.602646
0.755056
0.845427
0.842384
0.800452
0.707628
0.507344
0.214307
0.0332464
0.00306049
0.00263005
0.00762763
0.0324056
0.999998
0.999998
0.999997
0.999997
0.999997
0.999986
0.999981
0.999983
0.999979
0.998508
0.966362
0.835374
0.630019
0.539086
0.592151
0.681429
0.752402
0.813015
0.854693
0.880523
0.896168
0.886717
0.796664
0.999999
0.999994
0.999527
0.999632
0.999746
0.998852
0.999147
0.999561
0.999797
0.999782
0.998932
0.99317
0.987369
0.992468
0.994945
0.994945
0.993035
0.98508
0.970446
0.95201
0.942716
0.941924
0.933158
0.999998
0.998178
0.954545
0.958409
0.975356
0.960935
0.97144
0.988477
0.995518
0.997977
0.99885
0.999061
0.999059
0.998867
0.991856
0.955115
0.901874
0.847194
0.796255
0.755714
0.744325
0.712425
0.656161
0.99943
0.919372
0.586764
0.528184
0.610237
0.624589
0.744187
0.842752
0.894953
0.930886
0.948186
0.960281
0.961516
0.891298
0.779071
0.632847
0.561841
0.469937
0.33997
0.248857
0.268387
0.330215
0.214399
0.964724
0.543671
0.139527
0.132394
0.134095
0.178144
0.252727
0.32405
0.382497
0.432772
0.433723
0.416871
0.35907
0.270597
0.172706
0.0879771
0.0547744
0.0165806
0.00216884
0.00236959
0.0331984
0.0946751
0.0924724
0.645595
0.198795
0.0297174
0.0302088
0.035446
0.0327368
0.0404993
0.0719834
0.0847601
0.0796833
0.0690043
0.0287582
0.00099706
0.000238145
3.67855e-05
3.89382e-06
3.67497e-07
5.28025e-08
3.51059e-07
0.000122558
0.00601978
0.0291889
0.0378474
0.0873338
0.018106
0.000526309
0.000511327
0.000588405
0.000160379
0.000121395
0.00048717
0.000500589
0.00043464
0.000219041
2.8262e-05
7.59696e-07
2.89612e-09
5.5261e-10
7.327e-10
1.04384e-09
4.08839e-10
4.116e-09
5.63744e-06
0.000424043
0.00317575
0.00562632
0.000897888
0.00014102
2.04778e-06
5.5489e-07
1.68176e-07
5.88859e-09
3.18111e-09
1.3306e-08
2.05123e-07
2.09388e-07
6.33252e-08
5.96775e-09
3.0748e-09
9.39165e-10
2.35415e-10
3.61662e-10
1.04782e-09
4.08573e-10
4.74651e-10
7.40208e-08
6.92023e-06
6.3508e-05
0.000121675
9.11768e-07
1.59795e-07
1.09548e-08
1.09265e-08
1.0433e-08
4.54251e-09
1.49758e-09
3.03041e-09
1.88685e-09
1.89557e-09
2.08443e-09
2.31307e-09
2.65804e-09
1.04476e-09
1.46705e-10
7.70049e-11
1.71527e-10
6.24362e-10
1.26963e-09
4.51137e-09
4.18374e-08
3.36591e-07
7.70556e-07
4.75562e-08
1.95165e-08
1.13123e-08
1.36917e-08
6.48397e-09
1.44125e-09
1.08708e-09
4.6074e-09
3.6089e-09
1.90337e-09
1.9724e-09
3.4876e-09
5.05957e-09
2.70431e-09
4.02683e-10
1.03676e-10
3.92026e-11
4.67426e-10
1.59306e-09
2.0072e-09
2.55944e-09
8.40745e-09
3.34346e-08
2.43697e-08
1.82526e-08
1.82737e-08
1.7195e-08
7.34306e-09
9.62056e-10
1.90397e-09
5.38131e-09
5.02798e-09
2.87413e-09
2.4314e-09
3.2432e-09
5.02984e-09
1.32338e-09
7.31784e-11
1.91489e-11
1.56527e-11
2.73466e-10
1.20959e-09
1.81545e-09
1.81415e-09
4.25207e-09
2.27961e-08
2.61219e-08
2.66373e-08
2.4231e-08
1.1868e-08
1.72152e-09
1.17845e-10
8.33685e-10
3.63295e-09
5.10078e-09
3.64583e-09
4.08542e-09
5.45203e-09
4.88526e-09
6.53272e-10
1.06767e-11
3.85052e-12
7.85273e-12
8.7884e-11
4.90745e-10
1.37095e-09
1.69313e-09
1.78374e-09
6.2504e-09
4.77852e-08
3.59671e-08
2.06756e-08
7.88994e-09
3.66567e-10
4.13243e-11
2.85739e-10
1.49574e-09
3.11205e-09
3.54456e-09
4.51091e-09
4.57601e-09
1.66405e-09
5.62903e-11
2.09013e-12
8.79679e-13
1.71219e-12
7.67623e-12
8.28577e-11
6.36418e-10
1.32771e-09
1.55292e-09
1.71398e-09
4.72211e-08
2.74072e-08
1.33859e-08
1.36984e-09
3.15549e-11
2.09205e-11
6.63094e-11
5.10267e-10
1.41798e-09
2.70492e-09
3.20232e-09
1.70246e-09
2.53253e-10
7.21739e-12
5.19685e-13
2.03655e-13
4.3379e-13
1.78977e-12
1.3676e-11
1.86745e-10
6.91627e-10
1.09701e-09
1.27488e-09
3.12823e-08
1.4929e-08
2.15257e-09
4.94086e-11
1.42119e-11
1.0634e-11
1.96671e-11
5.5302e-11
3.16701e-10
9.43433e-10
9.89016e-10
2.79441e-10
5.95604e-11
2.05797e-12
1.28889e-13
4.56097e-14
1.03358e-13
4.34133e-13
2.44076e-12
3.26013e-11
1.58939e-10
5.17758e-10
7.53953e-10
1.01563e-08
1.95759e-09
6.16064e-11
1.15085e-11
6.56859e-12
5.0312e-12
7.22645e-12
1.23053e-11
1.81327e-11
8.37096e-11
6.02859e-11
2.75169e-11
1.01259e-11
6.00279e-13
4.09985e-14
9.57938e-15
2.14323e-14
8.95901e-14
4.39165e-13
4.08706e-12
1.90795e-11
1.68959e-10
2.9494e-10
6.35195e-10
4.536e-11
8.79568e-12
4.98425e-12
2.71476e-12
2.14077e-12
2.75716e-12
4.56362e-12
5.82019e-12
8.56643e-12
7.47024e-12
9.30145e-12
2.55987e-12
2.07172e-13
1.8329e-14
2.22016e-15
3.96059e-15
1.67305e-14
7.78568e-14
4.76267e-13
2.22819e-12
2.61754e-11
7.7325e-11
9.5316e-12
6.39712e-12
3.53966e-12
1.80914e-12
9.88654e-13
7.98254e-13
9.84906e-13
1.51003e-12
1.90831e-12
3.10518e-12
2.55148e-12
2.58642e-12
6.16766e-13
7.93381e-14
8.84733e-15
6.85625e-16
7.04088e-16
2.98251e-15
1.41441e-14
6.68073e-14
2.8587e-13
3.95427e-12
1.11654e-11
3.2651e-12
2.14475e-12
1.12502e-12
5.61681e-13
3.11589e-13
2.56603e-13
3.14242e-13
4.6052e-13
5.65523e-13
8.56592e-13
6.93901e-13
6.08363e-13
1.50643e-13
2.77806e-14
3.6682e-15
2.62672e-16
1.29128e-16
5.14961e-16
2.46269e-15
1.10575e-14
4.44347e-14
4.81393e-13
1.54789e-12
1.00801e-12
5.9052e-13
3.01125e-13
1.48933e-13
8.43162e-14
7.08809e-14
8.78532e-14
1.25959e-13
1.50047e-13
2.05815e-13
1.67873e-13
1.28928e-13
3.65185e-14
8.38789e-15
1.23914e-15
9.51745e-17
2.49203e-17
8.59271e-17
4.00022e-16
1.81945e-15
7.26863e-15
5.23389e-14
1.84566e-13
2.56901e-13
1.38694e-13
6.85606e-14
3.39369e-14
1.95909e-14
1.68261e-14
2.13256e-14
3.03478e-14
3.54437e-14
4.4402e-14
3.63453e-14
2.53594e-14
8.33153e-15
2.16646e-15
3.46816e-16
2.96769e-17
5.03695e-18
1.38507e-17
6.07148e-17
2.73806e-16
1.10195e-15
5.62292e-15
2.08322e-14
5.58488e-14
2.77949e-14
1.34202e-14
6.68349e-15
3.91887e-15
3.43945e-15
4.48256e-15
6.38705e-15
7.3903e-15
8.60514e-15
7.0346e-15
4.6402e-15
1.72311e-15
4.82918e-16
8.26348e-17
7.88597e-18
1.03266e-18
2.13626e-18
8.64351e-18
3.71813e-17
1.4798e-16
6.17887e-16
2.33536e-15
1.05912e-14
4.7981e-15
2.27768e-15
1.14427e-15
6.7901e-16
6.09014e-16
8.17797e-16
1.17115e-15
1.34937e-15
1.48576e-15
1.21043e-15
7.75529e-16
3.13031e-16
9.19464e-17
1.65555e-17
1.72813e-18
1.9948e-19
3.0923e-19
1.15562e-18
4.60639e-18
1.75538e-17
6.66497e-17
2.55749e-16
1.76961e-15
7.22391e-16
3.38746e-16
1.71641e-16
1.0276e-16
9.42094e-17
1.30263e-16
1.87653e-16
2.1565e-16
2.2741e-16
1.84496e-16
1.16543e-16
4.94668e-17
1.49318e-17
2.77703e-18
3.08231e-19
3.40735e-20
4.1586e-20
1.44925e-19
5.27819e-19
1.85687e-18
6.6696e-18
2.60041e-17
2.62459e-16
9.59248e-17
4.45455e-17
2.27343e-17
1.37039e-17
1.28408e-17
1.82501e-17
2.64333e-17
3.03001e-17
3.08772e-17
2.49076e-17
1.56282e-17
6.83786e-18
2.09638e-18
3.98281e-19
4.61341e-20
5.03901e-21
5.1751e-21
1.70626e-20
5.6666e-20
1.78876e-19
6.05865e-19
2.36768e-18
3.47329e-17
1.13192e-17
5.21432e-18
2.6773e-18
1.62232e-18
1.55298e-18
2.26372e-18
3.29468e-18
3.76587e-18
3.72737e-18
2.97856e-18
1.86019e-18
8.28266e-19
2.55874e-19
4.91149e-20
5.82726e-21
6.39517e-22
5.98583e-22
1.88476e-21
5.76244e-21
1.61124e-20
5.00711e-20
1.90468e-19
4.12966e-18
1.19642e-18
5.46926e-19
2.82204e-19
1.71722e-19
1.67824e-19
2.50268e-19
3.65638e-19
4.16296e-19
4.01645e-19
3.17209e-19
1.97018e-19
8.83342e-20
2.73501e-20
5.26901e-21
6.34246e-22
7.07177e-23
6.434e-23
1.96256e-22
5.62361e-22
1.39737e-21
3.84432e-21
1.37209e-20
4.43628e-19
1.13996e-19
5.17092e-20
2.67737e-20
1.63449e-20
1.6302e-20
2.48121e-20
3.63389e-20
4.11453e-20
3.87952e-20
3.02529e-20
1.86564e-20
8.36321e-21
2.57772e-21
4.9399e-22
5.95874e-23
6.80945e-24
6.50413e-24
1.94477e-23
5.28926e-23
1.19037e-22
2.85283e-22
9.13917e-22
4.32917e-20
9.85005e-21
4.43247e-21
2.30073e-21
1.40805e-21
1.43184e-21
2.21911e-21
3.25394e-21
3.65899e-21
3.37336e-21
2.58937e-21
1.58147e-21
7.0583e-22
2.1565e-22
4.09257e-23
4.91019e-24
5.84008e-25
6.18473e-25
1.82498e-24
4.79941e-24
1.01627e-23
2.1463e-23
5.92776e-23
3.85561e-21
7.7539e-22
3.46002e-22
1.79881e-22
1.10307e-22
1.14278e-22
1.79968e-22
2.63881e-22
2.94385e-22
2.65698e-22
2.00485e-22
1.20965e-22
5.34978e-23
1.61306e-23
3.01353e-24
3.56808e-25
4.50581e-26
5.55401e-26
1.63192e-25
4.1996e-25
8.64382e-25
1.6866e-24
4.0719e-24
3.14918e-22
5.59124e-23
2.47223e-23
1.28623e-23
7.90008e-24
8.33105e-24
1.33032e-23
1.94807e-23
2.15371e-23
1.90293e-23
1.40811e-23
8.37265e-24
3.65634e-24
1.0839e-24
1.98434e-25
2.3077e-26
3.19434e-27
4.70935e-27
1.38134e-26
3.51895e-26
7.26086e-26
1.39768e-25
3.37562e-25
2.36764e-23
3.70588e-24
1.62264e-24
8.444e-25
5.19377e-25
5.57269e-25
9.00838e-25
1.31619e-24
1.44073e-24
1.24632e-24
9.03371e-25
5.28215e-25
2.27015e-25
6.59379e-26
1.17769e-26
1.33892e-27
2.11643e-28
3.7666e-28
1.10772e-27
2.81932e-27
5.96893e-27
1.25218e-26
4.29225e-26
1.64525e-24
2.26795e-25
9.82475e-26
5.11161e-26
3.14826e-26
3.43491e-26
5.61244e-26
8.17473e-26
8.85339e-26
7.49771e-26
5.3169e-26
3.05079e-26
1.28686e-26
3.65208e-27
6.33962e-28
7.03086e-29
1.33735e-29
2.84115e-29
8.39835e-29
2.15734e-28
4.87097e-28
1.38104e-27
9.65546e-27
1.05988e-25
1.28565e-26
5.50634e-27
2.86359e-27
1.76618e-27
1.95874e-27
3.23122e-27
4.68942e-27
5.02285e-27
4.16408e-27
2.88667e-27
1.6229e-27
6.70252e-28
1.8535e-28
3.11571e-29
3.37037e-30
8.17457e-31
2.02333e-30
6.03524e-30
1.59159e-29
4.25152e-29
2.29114e-28
2.99629e-27
6.34998e-27
6.77621e-28
2.86669e-28
1.49003e-28
9.20402e-29
1.03712e-28
1.72521e-28
2.49334e-28
2.64098e-28
2.14451e-28
1.45302e-28
7.99771e-29
3.22903e-29
8.68312e-30
1.40906e-30
1.49201e-31
4.87804e-32
1.36402e-31
4.1331e-31
1.16941e-30
4.72476e-30
5.4271e-29
9.86205e-28
3.54744e-28
3.33368e-29
1.39179e-29
7.22867e-30
4.47191e-30
5.11714e-30
8.57259e-30
1.23321e-29
1.29142e-29
1.02773e-29
6.80549e-30
3.66582e-30
1.44583e-30
3.77683e-31
5.9067e-32
6.18638e-33
2.85431e-33
8.74221e-33
2.73212e-32
9.34406e-32
7.53768e-31
1.43607e-29
3.08705e-28
1.85283e-29
1.53695e-30
6.33027e-31
3.2837e-31
2.03427e-31
2.36304e-31
3.98178e-31
5.69713e-31
5.89404e-31
4.59642e-31
2.97399e-31
1.56728e-31
6.03535e-32
1.52985e-32
2.30196e-33
2.431e-34
1.63666e-34
5.37773e-34
1.80332e-33
9.36082e-33
1.49622e-31
3.6701e-30
8.83623e-29
9.08013e-31
6.67454e-32
2.71418e-32
1.40478e-32
8.71224e-33
1.02692e-32
1.73829e-32
2.47018e-32
2.52096e-32
1.92421e-32
1.2154e-32
6.26262e-33
2.35172e-33
5.77163e-34
8.33443e-35
9.16207e-36
9.15966e-36
3.20665e-35
1.27022e-34
1.2374e-33
3.05461e-32
8.59648e-31
2.27719e-29
4.19787e-32
2.7481e-33
1.10682e-33
5.70655e-34
3.54142e-34
4.23233e-34
7.18141e-34
1.01116e-33
1.0156e-33
7.56902e-34
4.65471e-34
2.33853e-34
8.53974e-35
2.0216e-35
2.78791e-36
3.35967e-37
4.9817e-37
1.88272e-36
1.04608e-35
1.90247e-34
5.89575e-33
1.83084e-31
5.29274e-30
1.845e-33
1.08421e-34
4.33724e-35
2.22431e-35
1.38003e-35
1.66952e-35
2.83144e-35
3.93965e-35
3.88334e-35
2.81851e-35
1.68273e-35
8.21393e-36
2.90481e-36
6.60238e-37
8.63851e-38
1.22596e-38
2.62018e-38
1.1353e-37
1.08082e-36
3.04109e-35
1.06636e-33
3.59806e-32
1.13272e-30
7.76559e-35
4.14767e-36
1.64768e-36
8.39344e-37
5.19933e-37
6.35137e-37
1.07304e-36
1.47086e-36
1.41908e-36
1.0008e-36
5.78417e-37
2.7347e-37
9.33763e-38
2.03243e-38
2.52863e-39
4.71205e-40
1.46708e-39
1.07573e-38
2.09727e-37
6.29619e-36
2.10991e-34
7.23489e-33
2.41562e-31
3.14695e-36
1.545e-37
6.09185e-38
3.07978e-38
1.90328e-38
2.34315e-38
3.93338e-38
5.29964e-38
4.99445e-38
3.41504e-38
1.90558e-38
8.69914e-39
2.85913e-39
5.94614e-40
7.09363e-41
2.42162e-41
2.37801e-40
5.6281e-39
1.63631e-37
4.88407e-36
1.47513e-34
4.5817e-33
1.48862e-31
0.66504
0.667571
0.675763
0.682037
0.931376
0.931453
0.915396
0.832504
0.630332
0.61895
0.571587
0.422419
0.0922776
0.0708518
0.0506599
0.0386653
0.0170165
0.00184635
0.00101253
0.00068738
0.00541122
8.40863e-05
1.74595e-06
7.00073e-08
0.000959625
3.161e-06
1.16141e-08
1.16134e-08
5.26828e-05
2.51449e-06
1.1613e-08
1.16141e-08
1.13225e-06
1.32346e-06
1.16565e-08
1.34945e-08
1.86733e-07
4.11316e-07
1.14205e-08
1.14754e-08
8.79309e-08
1.18127e-07
1.7739e-08
5.34789e-09
2.0551e-08
2.39668e-08
1.58485e-08
4.93755e-09
3.11624e-09
4.84827e-09
5.19308e-09
2.85566e-09
1.24256e-09
1.32101e-09
1.67971e-09
1.15084e-09
7.29504e-10
7.34652e-10
6.00183e-10
5.00412e-10
2.73853e-10
2.54512e-10
2.16792e-10
1.96664e-10
8.24376e-11
7.62719e-11
7.03879e-11
6.10832e-11
1.33162e-11
1.66895e-11
1.58319e-11
1.65543e-11
2.29955e-12
3.19435e-12
3.77171e-12
4.19014e-12
3.46197e-13
5.48722e-13
7.65916e-13
9.62727e-13
4.73173e-14
8.61263e-14
1.37361e-13
1.95164e-13
5.96658e-15
1.22046e-14
2.15317e-14
3.37281e-14
6.9072e-16
1.53426e-15
2.9018e-15
4.88502e-15
7.15978e-17
1.67593e-16
3.32519e-16
5.94182e-16
6.51532e-18
1.57648e-17
3.2651e-17
6.26253e-17
5.18385e-19
1.28494e-18
2.81445e-18
6.05302e-18
3.66315e-20
9.31764e-20
2.22901e-19
5.75086e-19
2.35941e-21
6.26985e-21
1.73054e-20
5.65389e-20
1.46897e-22
4.21697e-22
1.41303e-21
5.77715e-21
1.00178e-23
3.329e-23
1.3813e-22
6.61418e-22
1.03804e-24
4.64615e-24
2.38958e-23
1.2702e-22
2.33568e-25
1.44011e-24
8.82877e-24
5.25888e-23
8.54766e-26
6.33752e-25
4.43564e-24
2.98189e-23
3.47527e-26
2.91448e-25
2.29221e-24
1.73431e-23
1.36987e-26
1.27709e-25
1.12176e-24
9.52485e-24
4.98639e-27
5.12579e-26
4.99599e-25
4.72194e-24
1.6384e-27
1.84654e-26
1.98226e-25
2.06364e-24
4.81329e-28
5.92395e-27
6.96251e-26
7.90771e-25
1.2705e-28
1.70831e-27
2.19887e-26
2.72109e-25
3.08572e-29
4.54802e-28
6.45785e-27
8.8238e-26
7.55736e-30
1.22724e-28
1.93909e-27
2.97339e-26
5.11116e-30
8.47808e-29
1.36138e-27
2.08231e-26
0.65853
0.303927
0.157455
0.144164
0.128089
0.158099
0.249792
0.41108
0.640997
0.767018
0.757323
0.679425
0.504507
0.253211
0.0561072
0.0157795
0.00829065
0.022324
0.0356564
0.467872
0.0427502
0.000881713
0.00248594
0.00551682
0.00963616
0.0303715
0.0754282
0.209193
0.476769
0.654968
0.626369
0.500301
0.293107
0.0988707
0.0248867
0.0115532
0.0189976
0.0530385
0.112979
0.00115657
0.000355515
0.000813628
0.00135927
0.00141056
0.00156477
0.00187673
0.0312326
0.135312
0.413624
0.571573
0.530787
0.352028
0.134378
0.0344861
0.0179468
0.0236964
0.10943
0.0103705
0.000723955
0.00109986
0.00272642
0.00310469
0.00261333
0.001806
0.000783721
0.00040645
0.0106241
0.155962
0.448603
0.525757
0.402083
0.142941
0.0512271
0.0374292
0.0616481
0.196668
0.000486298
0.000870102
0.0032167
0.0048021
0.00489637
0.00394696
0.00206347
0.000869722
0.000373784
0.000281296
0.0422165
0.328134
0.504176
0.434173
0.128604
0.0831119
0.103924
0.174935
0.307863
5.60573e-05
0.00129387
0.00510524
0.00644836
0.00616983
0.00350544
0.000814949
0.000144484
8.85702e-05
0.000169789
0.00852169
0.175273
0.448341
0.342526
0.114062
0.11209
0.236269
0.370623
0.411414
4.94169e-05
0.00150041
0.00653194
0.00880638
0.00666105
0.00107527
3.48905e-05
3.06451e-05
3.06788e-05
3.03993e-05
0.0023438
0.0855756
0.332469
0.201209
0.15414
0.188477
0.361419
0.508347
0.455012
3.14569e-05
0.00118557
0.00693163
0.0105237
0.00751867
0.000527333
3.10038e-05
3.06873e-05
3.04155e-05
3.06793e-05
0.00147389
0.0517491
0.225285
0.310393
0.309988
0.40436
0.493141
0.508563
0.449633
7.7114e-06
0.000361773
0.00427261
0.0113586
0.0114062
0.00295458
9.41715e-05
3.03757e-05
3.05869e-05
2.97418e-05
0.00032742
0.0213995
0.169936
0.328064
0.420173
0.466325
0.495165
0.50067
0.425365
6.59632e-07
2.03762e-05
0.00068805
0.00661235
0.0141017
0.013616
0.00212764
5.77539e-05
3.26335e-05
3.06955e-05
0.000204984
0.013732
0.132791
0.265429
0.34334
0.347699
0.434129
0.436866
0.364766
3.44625e-08
3.32439e-07
4.72015e-05
0.00196499
0.0143588
0.0224466
0.0141114
0.00165508
0.000182821
0.000112328
0.000318355
0.00876346
0.069246
0.156915
0.156159
0.180394
0.355006
0.378355
0.362704
4.38452e-09
8.33861e-09
1.52235e-06
0.000287284
0.00602801
0.0226038
0.0284922
0.0159933
0.00581615
0.00451277
0.00558766
0.00694816
0.0157435
0.038851
0.0692138
0.069943
0.229951
0.363337
0.362722
1.17961e-09
1.26181e-09
2.1486e-08
2.52629e-05
0.0017579
0.0158242
0.0330379
0.0362499
0.0319994
0.0317046
0.0369394
0.0386945
0.0380991
0.0527603
0.0978246
0.195245
0.265915
0.360785
0.362134
6.0747e-10
5.43971e-10
6.56592e-09
7.32339e-08
0.000131408
0.00399741
0.022604
0.0394227
0.0438838
0.0517237
0.0591117
0.0694803
0.0801817
0.101947
0.126086
0.159539
0.258733
0.298112
0.313856
3.37373e-10
3.348e-10
2.17966e-09
7.4209e-09
8.77387e-07
0.00021541
0.00429162
0.0198383
0.0355363
0.0420786
0.0473748
0.0540528
0.0658392
0.0865718
0.114222
0.147731
0.188152
0.210703
0.210701
1.38886e-10
1.85792e-10
9.17389e-10
4.26627e-09
6.0062e-09
3.66342e-06
0.000256963
0.00249728
0.00705106
0.00982879
0.0110979
0.0116499
0.0143982
0.0249072
0.042783
0.0564084
0.0599716
0.0558967
0.0455284
5.97379e-11
8.80046e-11
3.24359e-10
1.09313e-09
2.18286e-09
9.36454e-08
1.32313e-05
7.06818e-05
0.000116241
0.000126998
9.61379e-05
6.11045e-05
5.9323e-05
0.000142323
0.000366005
0.000686071
0.00084445
0.000529059
0.000152742
1.59189e-11
3.89895e-11
8.56447e-11
3.10208e-10
3.64662e-10
6.04347e-09
1.05571e-07
6.49224e-07
7.64646e-07
7.07367e-07
4.37426e-07
3.70639e-07
3.1357e-07
1.83675e-07
2.5933e-07
2.82427e-07
2.11268e-07
9.85823e-08
5.0854e-08
6.10394e-12
1.3035e-11
2.44795e-11
6.62762e-11
9.56784e-11
4.79772e-10
3.6982e-09
8.90459e-09
5.5518e-09
4.46411e-08
2.12767e-07
3.04595e-07
1.48832e-07
2.41219e-08
1.22915e-08
8.04132e-09
2.39973e-09
1.52404e-10
1.26458e-11
1.85275e-12
3.88428e-12
6.44029e-12
1.32541e-11
2.30049e-11
7.16486e-11
1.98472e-10
4.49587e-10
5.94412e-10
2.54992e-09
1.69315e-08
8.80758e-08
4.37035e-08
3.31125e-09
1.04958e-09
7.79895e-10
2.74609e-10
8.92417e-12
5.08778e-12
4.43115e-13
9.12728e-13
1.39212e-12
2.59663e-12
5.21579e-12
1.11262e-11
1.83348e-11
4.52591e-11
9.05941e-11
3.49193e-10
1.70225e-09
3.97733e-09
7.41821e-09
3.80531e-09
1.46605e-09
1.85735e-09
2.46372e-10
6.7101e-12
5.07418e-12
8.40124e-14
1.70642e-13
2.65804e-13
5.5255e-13
1.41782e-12
3.46072e-12
8.7312e-12
2.15655e-11
5.68551e-11
1.52533e-10
3.66987e-10
8.86495e-10
2.60436e-09
3.33923e-09
2.34772e-09
1.98761e-09
3.65408e-11
3.54414e-12
4.72755e-12
1.29768e-14
2.70662e-14
5.1663e-14
1.47773e-13
4.93447e-13
1.52758e-12
4.84251e-12
1.52809e-11
5.17002e-11
1.82748e-10
5.12308e-10
8.98046e-10
1.75359e-09
2.78868e-09
2.66866e-09
9.92585e-10
4.01194e-12
2.45615e-12
4.27414e-12
1.70729e-15
4.05358e-15
1.13133e-14
4.4315e-14
1.75009e-13
6.5399e-13
2.55015e-12
1.13135e-11
5.01983e-11
2.19489e-10
6.86571e-10
1.15754e-09
1.68696e-09
2.60628e-09
2.27204e-09
1.43618e-10
2.53951e-12
1.98938e-12
3.81772e-12
2.07471e-16
6.39933e-16
2.59355e-15
1.21964e-14
5.33981e-14
2.41149e-13
1.30098e-12
7.95637e-12
4.91495e-11
2.87002e-10
9.89351e-10
1.60904e-09
1.90414e-09
2.34638e-09
1.76565e-09
2.8716e-11
2.24955e-12
1.68601e-12
3.2727e-12
2.53689e-17
1.061e-16
5.41698e-16
2.78593e-15
1.3155e-14
7.20007e-14
5.6062e-13
5.02624e-12
4.92409e-11
3.92521e-10
1.46272e-09
2.59887e-09
2.25406e-09
2.01218e-09
1.33175e-09
4.60849e-11
2.7605e-12
1.59073e-12
2.66327e-12
3.19511e-18
1.6792e-17
9.55185e-17
5.12444e-16
2.5677e-15
1.62836e-14
1.90365e-13
2.93097e-12
4.90921e-11
5.10061e-10
2.07867e-09
3.14138e-09
2.27645e-09
1.70597e-09
1.02357e-09
8.38958e-11
4.21829e-12
1.65866e-12
2.05052e-12
3.95484e-19
2.35265e-18
1.39579e-17
7.64169e-17
4.06432e-16
3.10946e-15
5.74934e-14
1.54007e-12
3.19565e-11
4.82702e-10
2.20362e-09
3.29816e-09
2.31804e-09
1.67601e-09
8.89853e-10
1.29996e-10
7.76813e-12
1.88836e-12
1.62144e-12
4.58396e-20
2.89887e-19
1.74719e-18
9.75732e-18
5.64483e-17
5.28737e-16
1.17605e-14
4.42402e-13
1.32826e-11
2.11632e-10
1.39258e-09
3.07212e-09
2.79357e-09
1.96339e-09
9.60183e-10
1.73458e-10
1.09756e-11
2.56437e-12
1.39134e-12
5.42975e-21
3.65806e-20
2.32393e-19
1.40154e-18
9.04187e-18
8.69623e-17
1.59e-15
4.59798e-14
1.52458e-12
3.6388e-11
4.47179e-10
2.20657e-09
2.79005e-09
2.45881e-09
1.33017e-09
3.07768e-10
2.03751e-11
3.37191e-12
1.27095e-12
1.04295e-21
8.54545e-21
6.71225e-20
4.9915e-19
3.56831e-18
2.65889e-17
2.73416e-16
5.84419e-15
2.07163e-13
6.58832e-12
1.25243e-10
1.04344e-09
2.06605e-09
2.15871e-09
1.43431e-09
4.28573e-10
3.15071e-11
5.32174e-12
1.25784e-12
4.59066e-22
4.7403e-21
4.60709e-20
4.09236e-19
3.28573e-18
2.36022e-17
1.55029e-16
1.2327e-15
2.56825e-14
9.57793e-13
2.46879e-11
3.10974e-10
9.86604e-10
1.13549e-09
8.44888e-10
2.62323e-10
1.97775e-11
3.90731e-12
1.13799e-12
2.83342e-22
3.45286e-21
3.91338e-20
4.0181e-19
3.68191e-18
2.94688e-17
2.00384e-16
1.14503e-15
6.53712e-15
9.94774e-14
2.7995e-12
4.84145e-11
2.61626e-10
3.22783e-10
2.07918e-10
9.53831e-11
1.06232e-11
2.67074e-12
9.37487e-13
1.78972e-22
2.52264e-21
3.2991e-20
3.90832e-19
4.11685e-18
3.75231e-17
2.86631e-16
1.78168e-15
8.82524e-15
3.68588e-14
2.24037e-13
2.94544e-12
2.15037e-11
4.33877e-11
2.34767e-11
1.02066e-11
4.01544e-12
1.50489e-12
7.27551e-13
1.0628e-22
1.71892e-21
2.58688e-20
3.55762e-19
4.40045e-18
4.74499e-17
4.29328e-16
3.13223e-15
1.7713e-14
7.45525e-14
2.20044e-13
4.72027e-13
1.37337e-12
4.68961e-12
4.36969e-12
3.00738e-12
1.68048e-12
8.86847e-13
5.64681e-13
5.604e-23
1.01059e-21
1.67754e-20
2.51957e-19
3.36611e-18
3.89496e-17
3.78114e-16
2.97177e-15
1.81332e-14
8.13703e-14
2.50521e-13
5.3209e-13
8.83834e-13
1.64067e-12
1.84117e-12
1.54397e-12
1.0048e-12
5.88299e-13
4.38455e-13
2.55348e-23
4.97081e-22
8.70327e-21
1.34582e-19
1.81454e-18
2.10057e-17
2.0441e-16
1.63241e-15
1.03702e-14
5.0465e-14
1.74333e-13
4.39979e-13
8.15972e-13
1.16925e-12
1.27892e-12
1.00401e-12
6.33259e-13
3.63513e-13
3.27735e-13
1.0051e-23
2.0663e-22
3.71653e-21
5.7348e-20
7.56651e-19
8.46949e-18
7.94338e-17
6.15287e-16
3.85974e-15
1.92786e-14
7.27425e-14
2.2153e-13
5.52995e-13
8.01772e-13
7.74389e-13
5.26554e-13
3.10851e-13
1.73946e-13
2.33278e-13
3.54619e-24
7.69338e-23
1.4243e-21
2.20968e-20
2.88079e-19
3.13358e-18
2.81463e-17
2.07229e-16
1.23688e-15
5.95624e-15
2.26565e-14
7.40229e-14
2.13174e-13
2.96253e-13
2.54706e-13
1.58199e-13
9.49669e-14
6.46868e-14
1.5641e-13
1.2117e-24
2.85996e-23
5.61961e-22
9.0485e-21
1.20397e-19
1.31805e-18
1.17305e-17
8.38354e-17
4.76023e-16
2.12134e-15
7.48034e-15
2.09355e-14
5.26579e-14
6.01867e-14
5.48131e-14
3.40556e-14
2.68584e-14
2.51648e-14
8.9342e-14
4.50762e-25
1.27874e-23
3.08612e-22
6.1442e-21
9.57852e-20
1.13032e-18
1.01344e-17
6.94303e-17
3.64415e-16
1.45118e-15
4.46492e-15
9.66657e-15
1.88548e-14
1.61115e-14
1.60018e-14
9.38406e-15
8.38873e-15
8.63789e-15
3.8896e-14
2.96802e-25
8.33033e-24
1.94234e-22
3.62226e-21
5.31018e-20
6.12898e-19
5.52661e-18
3.81223e-17
1.95516e-16
7.22175e-16
2.02372e-15
3.4971e-15
5.62121e-15
3.32456e-15
2.93863e-15
1.62573e-15
1.54647e-15
1.68318e-15
9.71132e-15
)
;

boundaryField
{
    leftWall
    {
        type            zeroGradient;
    }
    rightWall
    {
        type            zeroGradient;
    }
    lowerWall
    {
        type            zeroGradient;
    }
    atmosphere
    {
        type            inletOutlet;
        inletValue      uniform 0;
        value           nonuniform List<scalar> 
46
(
3.14695e-36
1.545e-37
6.09185e-38
3.07978e-38
1.90328e-38
2.34315e-38
3.93338e-38
5.29964e-38
4.99445e-38
3.41504e-38
1.90558e-38
8.69914e-39
2.85913e-39
5.94614e-40
7.09363e-41
2.42162e-41
2.37801e-40
5.6281e-39
1.63631e-37
4.88407e-36
1.47513e-34
4.5817e-33
1.48862e-31
5.11116e-30
8.47808e-29
1.36138e-27
2.08231e-26
2.96802e-25
8.33033e-24
1.94234e-22
0
0
0
0
0
0
0
0
0
0
0
0
0
0
0
0
)
;
    }
    defaultFaces
    {
        type            empty;
    }
}


// ************************************************************************* //
