/*--------------------------------*- C++ -*----------------------------------*\
| =========                 |                                                 |
| \\      /  F ield         | OpenFOAM: The Open Source CFD Toolbox           |
|  \\    /   O peration     | Version:  2.4.0                                 |
|   \\  /    A nd           | Web:      www.OpenFOAM.org                      |
|    \\/     M anipulation  |                                                 |
\*---------------------------------------------------------------------------*/
FoamFile
{
    version     2.0;
    format      ascii;
    class       volScalarField;
    location    "0.75";
    object      p;
}
// * * * * * * * * * * * * * * * * * * * * * * * * * * * * * * * * * * * * * //

dimensions      [1 -1 -2 0 0 0 0];

internalField   nonuniform List<scalar> 
2268
(
3063.82
3072.05
3082.72
3114.73
3166.62
3258.29
3447.46
3737.01
4151
4733.86
5356.33
5880.85
6265.85
6511.11
6677.14
6757.93
6785.84
6783.18
6769.38
6767.12
6766.32
6770.12
6786.33
2380.65
2387.45
2399.73
2429.97
2474.78
2555.62
2662.53
2916.48
3306.29
3931.71
4613.4
5151.05
5507.46
5748.29
5893.95
5968.31
5993.31
5986.58
5970.52
5965.37
5965.01
5967.49
5986.8
1344.32
1348.54
1363.35
1385.94
1429.5
1524.1
1723.21
2051.12
2454.25
3093.09
3772.77
4340.33
4731.44
4991.02
5128.54
5191.98
5206.62
5190.7
5168.84
5158.41
5157.71
5163.43
5188.93
902.253
902.163
906.859
909.71
921.467
949.95
1011.44
1085.27
1326.23
2227.52
3045.93
3636.11
4015.9
4243.06
4375.77
4424.13
4423.24
4391.45
4360.96
4345.78
4342.81
4357.22
4394.43
921.932
924.399
925.407
932.986
943.486
950.545
941.85
953.666
956.854
1224.19
2225.86
2927.81
3326.06
3602.56
3642.36
3664.35
3641.49
3589.49
3546.22
3529.15
3524.39
3543.24
3602.12
816
815.136
818.229
819.877
827.938
847.405
873.045
904.901
946.589
942.276
1445.28
2231.78
2577.86
2761.22
2896.7
2905.69
2856.06
2782.01
2728.44
2708.91
2709.33
2726.32
2812.87
776.074
776.809
778.386
784.831
794.812
801.025
808.754
825.382
860.456
872.562
948.432
1599
1942.2
2087.03
2156.41
2135.35
2047.57
1952.79
1893.16
1871.35
1859.67
1875.22
2014.02
714.702
714.531
715.812
717.734
720.895
731.794
745.141
760.537
776.215
777.981
681.288
893.804
1145.05
1285.73
1373.44
1353.47
1250.63
1132.81
1087.76
1085.04
1068.21
1095.17
1239.32
3536.42
3241.5
3328.04
3009.05
2653.25
2469.99
2375.81
2337.16
2301.17
2275.57
2269.12
2316.59
2437.86
2663.48
3260.51
4339.16
5477.93
5681.05
5535.87
2359.16
2150.43
2196.64
1899.63
1594.03
1427.69
1332.42
1295.51
1266.63
1237.08
1215.19
1214.75
1262.43
1366.46
1765.67
2856.92
4158.37
4448.54
4472.84
2023.43
1725.99
1548.94
1281.62
1136.81
1071.16
1031.08
1007.81
996.716
1005.07
1024.25
1052.32
1103.15
1155.62
1318.81
2246.65
3640.96
4139.84
4000.68
1457.82
1451.28
1331.18
1252.86
1208.91
1154.78
1106.81
1067.53
1043.79
1030.47
1046.25
1066.55
1086.08
1137.21
1103.07
1544.08
2774.4
3290.64
3189.26
1279.96
1307.32
1224.7
1170.16
1094.25
1016.36
962.332
930.437
913.103
917.303
934.306
973.618
1026
1091.52
1113.98
1244.52
2061.89
2485.11
2600.32
1126.93
1185.86
1129.03
1100.88
1044.44
987.276
938.903
901.883
882.988
884.554
901.221
934.3
978.298
1036.02
1039.24
1112.24
1668.26
1880.39
1892.14
974.852
1071.84
1053.88
1048.8
990.624
924.357
872.782
837.832
822.59
824.522
836.923
868.379
914.484
969.973
958.156
976.973
1332.56
1398.97
1308.74
850.528
968.461
996.182
1010.35
946.342
870.839
808.732
765.803
743.279
747.138
766.909
799.296
845.442
896.733
877.688
806.265
1013.82
986.29
1013.16
617.425
614.966
612.115
612.055
618.754
627.006
635.265
643.016
639.697
609.84
485.76
355.003
290.923
297.567
358.191
376.423
355.547
347.03
352.204
366.942
405.494
477.698
543.607
498.082
495.433
490.665
486.68
489.075
494.713
500.853
500.949
485.492
451.243
373.834
282.87
236.013
231.604
244.942
273.021
298.104
325.895
366.065
415.393
457.225
475.752
484.377
362.508
353.664
334.296
329.041
328.623
334.874
343.13
346.04
339.492
322.853
289.437
250.196
222.573
191.769
181.38
175.271
166.354
145.875
116.449
122.257
214.367
264.808
259.244
243.218
220.845
176.598
172.417
184.726
193.796
201.133
206.252
206.068
197.827
179.859
148.436
117.357
95.0762
68.3031
50.9282
42.5007
31.7024
16.1321
9.14456
41.3309
160.437
215.528
171.819
156.829
124.377
98.5086
96.1208
103.697
107.208
108.705
106.905
100.187
87.8554
61.0319
35.8501
21.3087
9.00319
5.88978
5.36847
5.15203
5.163
5.62655
6.13597
20.0061
129.746
38.0187
33.796
21.2552
14.7937
12.1961
9.989
8.89927
13.6761
13.3193
10.3066
8.06619
6.79186
5.55496
4.87145
4.67689
4.79501
4.97252
5.20278
5.511
5.56602
5.77651
15.6013
55.7306
6.68719
5.92849
4.6889
4.3236
4.31766
4.35497
4.49962
4.6582
4.33688
4.2844
4.32689
4.34745
4.44396
4.62884
4.93112
4.93883
4.77217
4.83571
4.89742
4.91383
4.45042
4.50165
6.13349
4.38812
4.43159
4.5274
4.61147
4.724
4.84235
4.85301
4.69414
4.7434
4.72915
4.68582
4.56012
4.39534
4.40398
4.46507
4.56938
4.58657
4.58787
4.54423
4.32483
3.78087
3.33894
2.9007
4.6706
4.50021
4.32896
4.16504
4.12666
4.20106
4.22556
4.19226
4.27955
4.28152
4.29244
4.31712
4.33474
4.40967
4.49125
4.52664
4.50385
4.45684
4.36218
4.16709
3.92717
3.60048
3.11481
4.43561
4.38641
4.31118
4.32568
4.38296
4.42123
4.44472
4.39902
4.32977
4.29063
4.27325
4.22956
4.21928
4.24137
4.24903
4.27566
4.30212
4.30481
4.25293
4.11696
3.92138
3.6668
3.32514
4.23509
4.21312
4.16631
4.09743
4.0377
4.09182
4.048
4.10437
4.12428
4.11057
4.09964
4.08207
4.12357
4.1547
4.18015
4.19285
4.19639
4.19362
4.15856
4.08036
3.91235
3.64432
3.17605
4.0776
4.06044
4.05245
4.05079
4.0809
4.08439
4.08339
4.04303
4.014
4.00577
4.01257
4.02524
4.03813
4.04618
4.05817
4.07027
4.07968
4.07768
4.06056
4.01294
3.86786
3.53006
2.99889
3.93595
3.91886
3.91458
3.89747
3.87432
3.88196
3.86207
3.88791
3.88538
3.88184
3.87726
3.86743
3.8769
3.8826
3.89229
3.90285
3.9129
3.91412
3.90095
3.85282
3.72185
3.42327
2.99822
3.7988
3.78937
3.78176
3.77412
3.77382
3.77472
3.76914
3.75939
3.75432
3.74848
3.75009
3.75719
3.76225
3.76639
3.76835
3.76735
3.76115
3.75014
3.72682
3.67467
3.57055
3.35882
3.06919
3.65922
3.65443
3.64742
3.6417
3.63747
3.63482
3.62914
3.62369
3.61894
3.61468
3.613
3.61296
3.61366
3.61388
3.61357
3.61071
3.60402
3.59059
3.56244
3.50879
3.42676
3.28233
3.09141
3.51742
3.51492
3.50963
3.50475
3.4998
3.49569
3.49087
3.48682
3.48211
3.4776
3.47408
3.47074
3.46846
3.46609
3.46271
3.45708
3.44746
3.43026
3.40136
3.35343
3.28067
3.1738
3.03767
3.37606
3.37449
3.37054
3.36655
3.36226
3.35814
3.35369
3.34939
3.34479
3.34014
3.33524
3.3308
3.3267
3.32185
3.31548
3.30656
3.29339
3.27297
3.24286
3.19813
3.13575
3.05173
2.94941
3.23582
3.23463
3.23164
3.22832
3.22453
3.22056
3.21625
3.2118
3.207
3.20204
3.19669
3.19116
3.18515
3.17805
3.16918
3.15754
3.1418
3.11981
3.08945
3.0481
2.99448
2.92704
2.84766
3.09667
3.09565
3.0933
3.09044
3.08701
3.08322
3.07898
3.07442
3.06943
3.06405
3.05813
3.05163
3.04423
3.03556
3.02491
3.01154
2.99439
2.97197
2.9429
2.90547
2.85906
2.8035
2.73997
2.95847
2.95755
2.9556
2.95304
2.94989
2.94622
2.94204
2.93741
2.93224
2.92653
2.9201
2.91289
2.9046
2.8949
2.88319
2.86892
2.85126
2.82923
2.80193
2.76835
2.72813
2.68153
2.62958
2.82113
2.82031
2.8186
2.81622
2.81321
2.80966
2.80556
2.8009
2.79561
2.78967
2.78293
2.77527
2.76641
2.75608
2.74385
2.72928
2.71169
2.69054
2.66521
2.63511
2.60013
2.56056
2.51741
2.68459
2.68383
2.68228
2.68006
2.67718
2.67371
2.66964
2.66497
2.65962
2.65355
2.64661
2.63868
2.62955
2.61898
2.60664
2.59217
2.57511
2.55513
2.5318
2.50483
2.47423
2.44031
2.40394
2.54879
2.54807
2.54663
2.54454
2.54179
2.5384
2.53438
2.52972
2.52434
2.51819
2.51117
2.50315
2.49398
2.48342
2.47124
2.45717
2.44092
2.42224
2.40085
2.37672
2.34982
2.32052
2.28953
2.4137
2.41302
2.41166
2.40966
2.40701
2.40371
2.39977
2.39516
2.38984
2.38373
2.37676
2.36882
2.35974
2.34937
2.33756
2.32408
2.30877
2.29141
2.27194
2.2503
2.22657
2.20106
2.17432
2.27927
2.27863
2.27733
2.2754
2.27285
2.26967
2.26583
2.26132
2.2561
2.25012
2.24328
2.2355
2.22666
2.21666
2.20534
2.19259
2.17828
2.16228
2.14457
2.12511
2.10406
2.08166
2.05839
2.14548
2.14487
2.14363
2.14179
2.13934
2.13626
2.13255
2.12818
2.12312
2.1173
2.11066
2.10314
2.09466
2.08513
2.07443
2.06249
2.04918
2.03448
2.01835
2.00087
1.98214
1.96235
1.94184
2.01229
2.01171
2.01054
2.00879
2.00644
2.00349
1.99993
1.99572
1.99085
1.98527
1.97893
1.97177
1.96371
1.95469
1.94464
1.93349
1.92121
1.90777
1.89317
1.87745
1.86068
1.84308
1.82486
1.87968
1.87913
1.87802
1.87636
1.87413
1.87132
1.86793
1.86393
1.85929
1.85398
1.84796
1.84119
1.83361
1.82516
1.81581
1.80552
1.79426
1.78198
1.76874
1.75456
1.73956
1.72384
1.70757
1.74762
1.7471
1.74605
1.74448
1.74237
1.73972
1.73652
1.73274
1.72837
1.72337
1.71771
1.71136
1.70429
1.69646
1.68782
1.67836
1.66805
1.6569
1.64494
1.6322
1.61875
1.60468
1.5901
1.61607
1.61558
1.6146
1.61313
1.61116
1.60868
1.60568
1.60214
1.59805
1.59339
1.58812
1.58223
1.57568
1.56847
1.56054
1.5519
1.54254
1.53247
1.52169
1.51025
1.4982
1.48561
1.47255
1.48499
1.48454
1.48363
1.48227
1.48044
1.47814
1.47535
1.47208
1.46829
1.46398
1.45912
1.45371
1.44771
1.44112
1.43391
1.42607
1.41761
1.40854
1.39887
1.38864
1.37788
1.36665
1.35499
1.35437
1.35395
1.35312
1.35186
1.35018
1.34806
1.3455
1.3425
1.33903
1.33509
1.33066
1.32573
1.32028
1.3143
1.30779
1.30074
1.29316
1.28505
1.27643
1.26733
1.25777
1.2478
1.23744
1.22415
1.22377
1.22301
1.22187
1.22034
1.21842
1.2161
1.21338
1.21023
1.20667
1.20267
1.19822
1.19333
1.18797
1.18215
1.17586
1.16912
1.16193
1.15431
1.14627
1.13784
1.12904
1.11992
1.0943
1.09396
1.09328
1.09225
1.09088
1.08916
1.08708
1.08465
1.08184
1.07866
1.07509
1.07114
1.0668
1.06205
1.05691
1.05136
1.04543
1.03912
1.03243
1.0254
1.01804
1.01037
1.00241
0.964784
0.964484
0.96388
0.962975
0.961765
0.960246
0.958414
0.956265
0.953798
0.951002
0.947877
0.944415
0.940612
0.936468
0.931988
0.92717
0.92202
0.916547
0.910767
0.904693
0.898344
0.891739
0.884897
0.835555
0.835292
0.834768
0.833984
0.832939
0.831629
0.830052
0.828204
0.82608
0.823675
0.820986
0.818009
0.814745
0.811196
0.807359
0.803236
0.798837
0.794177
0.78926
0.7841
0.778715
0.773124
0.767342
0.706587
0.706359
0.705916
0.705256
0.704377
0.703278
0.701956
0.700408
0.698628
0.696615
0.694365
0.691876
0.689147
0.686177
0.682966
0.679522
0.675855
0.671968
0.66787
0.663582
0.659115
0.654486
0.649712
0.577842
0.577661
0.577303
0.576764
0.576049
0.575154
0.574079
0.572821
0.57138
0.569753
0.567936
0.565929
0.56373
0.561337
0.55875
0.555975
0.553012
0.549867
0.54656
0.543104
0.53951
0.535794
0.531974
0.449272
0.44914
0.448863
0.448436
0.447886
0.447192
0.44636
0.445389
0.444279
0.443026
0.441632
0.440096
0.438414
0.436584
0.434609
0.432487
0.43022
0.427817
0.425283
0.422627
0.419865
0.41702
0.414109
0.320849
0.320755
0.320563
0.320253
0.319857
0.319362
0.31877
0.318077
0.317288
0.316402
0.315419
0.314335
0.313151
0.311867
0.310481
0.308996
0.30741
0.305723
0.30394
0.302068
0.300122
0.298118
0.296067
0.192516
0.192431
0.192321
0.192126
0.191877
0.191564
0.191203
0.190791
0.190324
0.189801
0.189221
0.188586
0.187896
0.187151
0.186346
0.18548
0.184551
0.18356
0.182514
0.181415
0.180267
0.17908
0.177868
0.0642272
0.0641809
0.0641366
0.0640604
0.063969
0.0638501
0.0637147
0.0635738
0.063421
0.0632514
0.0630639
0.0628596
0.0626384
0.0623999
0.0621443
0.0618685
0.0615698
0.061251
0.0609122
0.0605543
0.0601792
0.0597916
0.0593992
743.433
789.309
828.414
841.772
513.155
559.669
614.301
685.775
319.805
400.001
482.938
562.434
203.343
198.173
206.735
242.75
160.821
155.454
126.115
110.667
32.9477
18.6835
14.5457
15.3882
3.40547
2.97942
2.88354
3.05219
2.65994
2.75332
2.84258
2.65061
2.99148
2.81399
2.54197
2.23386
2.82939
2.4809
2.19517
1.92549
2.64568
2.3333
2.06077
1.86761
2.5385
2.28554
2.08706
1.96133
2.6481
2.45371
2.31565
2.23011
2.83426
2.69696
2.58844
2.5064
2.93202
2.83256
2.74165
2.66647
2.92214
2.84757
2.77925
2.72171
2.86413
2.80939
2.75765
2.70948
2.78236
2.74026
2.69946
2.66039
2.68872
2.65568
2.62328
2.59191
2.58857
2.5621
2.53603
2.51071
2.48396
2.46243
2.44124
2.42063
2.37625
2.35851
2.34101
2.32396
2.26623
2.25133
2.23659
2.22217
2.15436
2.14161
2.12897
2.11655
2.04101
2.02988
2.01883
2.0079
1.9265
1.91666
1.90685
1.89711
1.81118
1.80237
1.79358
1.78478
1.6953
1.68737
1.67942
1.67143
1.57907
1.57192
1.56471
1.55745
1.46264
1.4562
1.44969
1.4431
1.34611
1.34034
1.33448
1.32856
1.22955
1.22441
1.21919
1.2139
1.11296
1.10843
1.10383
1.09917
0.996355
0.992408
0.988404
0.984349
0.879697
0.876312
0.872882
0.869413
0.762959
0.760111
0.757228
0.754318
0.646105
0.643765
0.641402
0.63902
0.529099
0.527239
0.525365
0.523478
0.411925
0.410514
0.409094
0.40767
0.294535
0.293549
0.29256
0.29157
0.176964
0.176381
0.175796
0.175211
0.0591033
0.058912
0.0587205
0.0585285
789.042
875.633
927.216
958.107
885.536
801.766
730.539
672.071
642.115
649.766
672.923
696.528
739.699
776.367
762.819
660.607
705.469
671.715
830.411
752.654
797.993
837.528
868.569
797.437
710.962
620.807
539.048
489.339
484.118
530.802
568.257
607.567
642.512
660.894
629.085
659.483
652.481
717.19
629.03
700.869
757.698
749.937
674.545
591.251
508.586
439.289
397.11
377.29
401.119
457.999
504.006
537.994
573.778
589.21
615.828
597.68
647.788
365.077
553.429
656.292
594.214
514.233
434.168
353.904
308.095
270.768
267.564
282.44
348.575
414.566
445.938
495.045
531.479
566.43
562.007
588.65
133.912
309.737
436.786
407.875
336.765
236.99
143.584
122.493
116.791
135.958
174.21
246.82
333.363
359.956
433.461
475.651
511.463
522.281
538.576
22.7905
69.7882
164.821
253.202
170.575
110.385
83.3855
74.0499
72.9905
76.9381
101.526
166.583
258.768
302.793
362.241
401.439
453.557
476.835
496.158
3.85693
6.95414
25.4881
105.369
88.3169
71.6871
69.5597
70.2481
70.3837
70.5122
72.7734
116.407
219.809
282.23
331.569
364.695
395.011
428.094
460.848
2.35944
1.60613
7.76941
39.6626
70.595
69.7063
70.3586
70.5577
70.7193
70.7828
70.9765
86.7769
187.543
260.126
308.193
338.683
363.762
387.705
423.259
1.78809
1.70339
3.04409
11.3157
59.0095
68.7008
69.8569
70.2146
70.4801
70.5127
70.7754
78.5529
158.667
236.071
286.608
309.963
331.965
350.873
386.126
1.56353
1.74901
2.17929
3.35466
22.8765
60.7179
69.4354
70.2665
70.5044
70.4306
71.2605
82.6728
163.88
224.722
255.124
258.717
296.743
319.899
350.995
1.68352
1.84279
2.19175
2.5646
4.10458
39.6022
67.3848
70.3137
70.65
70.8422
73.0265
87.2652
161.773
214.554
229.75
239.681
264.157
298.063
325.147
1.89515
2.01095
2.28526
2.59894
2.95421
8.96863
51.617
67.8403
70.4217
71.6272
75.5083
91.9777
153.911
209.749
228.128
236.77
250.994
283.766
305.317
2.18403
2.28999
2.45689
2.61701
2.81614
3.23565
18.7795
52.0743
61.5933
64.5974
70.6054
93.5566
139.877
195.276
220.438
227.666
233.429
237.597
249.33
2.42479
2.44549
2.52078
2.62026
2.67794
2.71392
4.06495
19.979
33.5946
43.4451
48.8718
66.2003
93.4401
115.289
141.203
162.394
173.334
174.041
183.845
2.57449
2.53392
2.54161
2.56203
2.57124
2.4888
2.54901
4.628
10.3294
10.861
12.3367
16.1239
20.701
26.7447
41.8819
64.2217
85.7921
104.303
112.84
2.63906
2.56816
2.53466
2.51122
2.47579
2.42032
2.2854
2.23628
3.0439
4.07267
4.32416
4.61564
5.07792
6.79556
12.0534
20.0757
31.0594
45.7788
62.7826
2.63594
2.56189
2.51468
2.47575
2.42996
2.36545
2.26932
2.32679
2.51228
2.68166
2.83136
2.94745
2.98662
2.84921
2.6663
2.69643
2.94875
3.30201
2.82667
2.59931
2.53249
2.48418
2.4478
2.41899
2.39762
2.42521
2.55102
2.85315
3.26743
3.44124
3.52868
3.71162
3.97048
4.30072
4.63776
5.17354
6.32019
7.44674
2.54216
2.48516
2.44237
2.41465
2.4016
2.41166
2.4575
2.5442
2.68156
2.80901
2.96379
3.15249
3.25599
3.30955
3.41784
3.68322
4.2989
5.54327
7.0104
2.47026
2.42284
2.38675
2.3647
2.35794
2.37058
2.40708
2.4711
2.56608
2.67941
2.8116
2.95144
3.05951
3.08071
3.05923
3.08979
3.51218
3.75391
1.76748
2.38756
2.34812
2.3176
2.29882
2.29284
2.30201
2.3271
2.3767
2.4415
2.52403
2.6177
2.7107
2.7756
2.78496
2.72778
2.66195
2.98153
0.107343
-3.07425
2.29651
2.26323
2.23671
2.21924
2.21172
2.21523
2.23199
2.25789
2.29801
2.3466
2.39813
2.44363
2.47591
2.46548
2.32074
2.42227
1.99647
-0.536164
-0.148534
2.19893
2.17014
2.14617
2.12885
2.11849
2.11555
2.12082
2.12945
2.14707
2.16462
2.17987
2.18445
2.16846
2.12025
1.93143
1.97186
1.80389
1.10098
5.31089
2.09634
2.07072
2.04838
2.03056
2.01696
2.00749
2.00204
1.99578
1.99374
1.98535
1.96541
1.93153
1.86982
1.78063
1.57906
1.33041
1.69501
1.19476
2.9639
1.99001
1.96669
1.94539
1.92686
1.91043
1.89578
1.88082
1.863
1.8425
1.81101
1.75825
1.68645
1.58745
1.46628
1.24231
0.669305
0.840014
0.175018
2.11182
1.88099
1.85942
1.83893
1.81978
1.8013
1.78263
1.76164
1.73568
1.70087
1.64789
1.5611
1.43976
1.33037
1.20071
0.970754
0.485032
0.968578
0.259701
7.47864
1.77011
1.75
1.73025
1.71084
1.69108
1.66995
1.64527
1.61495
1.57469
1.51251
1.41522
1.27978
1.15385
1.00771
0.78332
0.465905
0.747242
0.837471
7.64846
1.65802
1.63925
1.62035
1.60112
1.58092
1.55876
1.53289
1.50143
1.46031
1.40185
1.31846
1.21004
1.08614
0.912913
0.657423
0.327676
0.358949
0.272021
-0.879917
1.5452
1.52776
1.50989
1.49133
1.47153
1.44959
1.42445
1.39444
1.35697
1.30837
1.24455
1.16552
1.06909
0.905501
0.65788
0.352175
0.354178
0.43584
0.663001
1.43195
1.41591
1.39929
1.38185
1.36316
1.34263
1.31946
1.29269
1.26122
1.22405
1.18163
1.12944
1.0658
0.934835
0.759031
0.527426
0.476493
0.537972
0.629242
1.31849
1.30391
1.28874
1.27279
1.25578
1.23734
1.21705
1.19451
1.1696
1.1426
1.11595
1.08682
1.05112
0.965884
0.874434
0.759407
0.702047
0.772903
0.848107
1.20491
1.19185
1.17828
1.16406
1.14906
1.13313
1.11614
1.0981
1.07955
1.06126
1.04535
1.0289
1.01395
0.973541
0.939585
0.911353
0.907954
0.990689
1.04631
1.09124
1.07974
1.06782
1.05546
1.04263
1.02933
1.01569
1.00199
0.989006
0.977627
0.969617
0.964103
0.960438
0.952844
0.957261
0.981035
1.02575
1.09345
1.1426
0.977461
0.967495
0.957246
0.94673
0.936058
0.92531
0.914753
0.904837
0.896389
0.890088
0.887109
0.886172
0.885809
0.898033
0.927666
0.982811
1.04825
1.10273
1.14732
0.863529
0.855055
0.846407
0.837638
0.828992
0.820533
0.812611
0.805729
0.800642
0.797906
0.797773
0.797899
0.792869
0.808755
0.857069
0.9297
1.00253
1.04729
1.08786
0.749391
0.74234
0.735195
0.727953
0.721165
0.714622
0.708749
0.704018
0.701094
0.700396
0.701828
0.703503
0.698326
0.71269
0.771635
0.843843
0.911677
0.944029
0.978611
0.635
0.629291
0.623605
0.618129
0.612506
0.607408
0.603013
0.599634
0.59783
0.597638
0.5992
0.60229
0.604677
0.625297
0.675909
0.738053
0.78908
0.81376
0.837265
0.5203
0.515812
0.511358
0.507024
0.502771
0.498865
0.495505
0.492905
0.491489
0.491104
0.492858
0.496289
0.502347
0.526435
0.564194
0.613687
0.646194
0.662589
0.676669
0.405278
0.401914
0.398582
0.395298
0.392112
0.389123
0.386461
0.384223
0.382796
0.381669
0.382838
0.384727
0.39044
0.407868
0.435569
0.466075
0.485114
0.498651
0.51034
0.289905
0.287568
0.285245
0.282935
0.28064
0.278359
0.276129
0.273915
0.27216
0.269393
0.269149
0.268713
0.272754
0.283004
0.2974
0.316394
0.328171
0.337314
0.351148
0.17423
0.172854
0.171462
0.170017
0.168522
0.166778
0.164724
0.16217
0.159834
0.154517
0.152393
0.146669
0.145961
0.148897
0.157538
0.171066
0.182829
0.189848
0.20148
0.0582064
0.05775
0.0572711
0.0566789
0.0558897
0.0547329
0.0530118
0.0503961
0.0472525
0.0401291
0.0343784
0.02166
0.0146526
0.00912383
0.0119726
0.0223853
0.0370913
0.0472271
0.0602711
)
;

boundaryField
{
    leftWall
    {
        type            fixedFluxPressure;
        gradient        uniform 0;
        value           nonuniform List<scalar> 
50
(
3063.82
2380.65
1344.32
902.253
921.932
816
776.074
714.702
617.425
498.082
362.508
243.218
171.819
38.0187
6.68719
4.38812
4.6706
4.43561
4.23509
4.0776
3.93595
3.7988
3.65922
3.51742
3.37606
3.23582
3.09667
2.95847
2.82113
2.68459
2.54879
2.4137
2.27927
2.14548
2.01229
1.87968
1.74762
1.61607
1.48499
1.35437
1.22415
1.0943
0.964784
0.835555
0.706587
0.577842
0.449272
0.320849
0.192516
0.0642272
)
;
    }
    rightWall
    {
        type            fixedFluxPressure;
        gradient        uniform 0;
        value           nonuniform List<scalar> 
50
(
5535.87
4472.84
4000.68
3189.26
2600.32
1892.14
1308.74
1013.16
830.411
717.19
647.788
588.65
538.576
496.158
460.848
423.259
386.126
350.995
325.147
305.317
249.33
183.845
112.84
62.7826
2.82667
7.44674
7.0104
1.76748
-3.07425
-0.148534
5.31089
2.9639
2.11182
7.47864
7.64846
-0.879917
0.663001
0.629242
0.848107
1.04631
1.1426
1.14732
1.08786
0.978611
0.837265
0.676669
0.51034
0.351148
0.20148
0.0602711
)
;
    }
    lowerWall
    {
        type            fixedFluxPressure;
        gradient        nonuniform List<scalar> 
62
(
132719
132719
132719
132719
132719
132719
132719
132719
132719
132719
132719
132719
132719
132719
132719
132719
132719
132719
132719
132719
132719
132719
132718
0
0
0
0
0
0
0
0
13659.8
13542.5
13187.4
12419.3
0
0
0
0
0
0
0
0
40826
41816.6
41644.1
41366
41082.5
40918
40947.6
41111.3
41126.4
41283.7
41521.9
42359.8
42198
42289.4
43420.5
43965.2
42937.7
42496.3
41495
)
;
        value           nonuniform List<scalar> 
62
(
3461.97
3470.19
3480.87
3512.88
3564.77
3656.44
3845.61
4135.16
4549.15
5132.01
5754.48
6279
6664
6909.26
7075.29
7156.07
7183.99
7181.33
7167.53
7165.27
7164.47
7168.27
7184.48
6786.33
5986.8
5188.93
4394.43
3602.12
2812.87
2014.02
1239.32
830.595
875.724
912.562
921.02
3536.42
2359.16
2023.43
1457.82
1279.96
1126.93
974.852
850.528
3658.89
3366.95
3452.97
3133.14
2776.5
2592.74
2498.65
2460.49
2424.54
2399.42
2393.68
2443.67
2564.45
2790.35
3390.76
4471.05
5606.74
5808.53
5660.35
)
;
    }
    atmosphere
    {
        type            totalPressure;
        U               U.air;
        phi             phi.air;
        rho             rho;
        psi             none;
        gamma           1;
        p0              uniform 0;
        value           nonuniform List<scalar> 
46
(
0
0
0
0
0
0
0
0
0
0
0
0
0
0
0
0
0
0
0
0
0
0
0
0
0
0
0
0
0
0
-6.71621e-05
-0.000297153
-0.000971078
-0.00222062
-0.0042494
-0.00722309
-0.0125016
-0.0179895
-0.0318025
-0.040443
-0.0548722
-0.0582986
-0.0564324
-0.052768
-0.0476721
-0.0360539
)
;
    }
    defaultFaces
    {
        type            empty;
    }
}


// ************************************************************************* //
