/*--------------------------------*- C++ -*----------------------------------*\
| =========                 |                                                 |
| \\      /  F ield         | OpenFOAM: The Open Source CFD Toolbox           |
|  \\    /   O peration     | Version:  2.4.0                                 |
|   \\  /    A nd           | Web:      www.OpenFOAM.org                      |
|    \\/     M anipulation  |                                                 |
\*---------------------------------------------------------------------------*/
FoamFile
{
    version     2.0;
    format      ascii;
    class       surfaceScalarField;
    location    "0.75";
    object      phi.water;
}
// * * * * * * * * * * * * * * * * * * * * * * * * * * * * * * * * * * * * * //

dimensions      [0 3 -1 0 0 0 0];

internalField   nonuniform List<scalar> 
4432
(
1.70277e-06
6.32235e-06
3.70945e-06
6.80348e-06
4.84375e-06
4.74841e-06
6.02283e-06
4.46566e-06
7.51596e-06
3.94373e-06
7.79005e-06
2.10672e-06
6.89709e-06
1.33253e-06
4.28928e-06
2.67922e-06
1.30549e-07
4.20593e-06
-4.6691e-06
4.84647e-06
-9.13489e-06
4.49325e-06
-1.33006e-05
4.1791e-06
-1.60426e-05
2.75206e-06
-1.65051e-05
4.7208e-07
-1.53336e-05
-1.16171e-06
-1.35819e-05
-1.74374e-06
-1.19929e-05
-1.58276e-06
-1.04511e-05
-1.53738e-06
-8.88961e-06
-1.55748e-06
-6.35544e-06
-2.53005e-06
-4.24491e-06
-2.10686e-06
-3.47557e-06
-7.6877e-07
-3.47532e-06
1.72569e-06
2.73363e-05
3.33331e-06
2.73989e-05
4.92336e-06
2.7069e-05
6.29618e-06
2.7017e-05
7.33859e-06
2.66279e-05
8.35413e-06
2.60939e-05
8.00944e-06
2.4885e-05
5.8618e-06
1.71583e-05
1.46065e-06
1.12179e-05
-4.63692e-06
1.17152e-05
-1.03426e-05
1.04424e-05
-1.45028e-05
8.44224e-06
-1.66097e-05
4.92315e-06
-1.6695e-05
6.20624e-07
-1.53389e-05
-2.48421e-06
-1.34929e-05
-3.57555e-06
-1.17454e-05
-3.32042e-06
-1.01619e-05
-3.11186e-06
-8.26913e-06
-3.43856e-06
-5.91566e-06
-4.86884e-06
-3.66741e-06
-4.34566e-06
-2.07145e-06
-2.36196e-06
-5.54588e-06
1.74157e-06
2.40874e-05
2.98114e-06
2.44194e-05
5.00331e-06
2.47236e-05
6.30626e-06
2.60597e-05
6.38491e-06
2.77957e-05
5.57575e-06
3.1502e-05
3.6048e-06
3.75709e-05
3.01127e-06
4.16899e-05
2.95821e-07
3.83904e-05
-5.12329e-06
2.89394e-05
-1.02412e-05
2.27472e-05
-1.38775e-05
1.29718e-05
-1.60508e-05
7.27838e-06
-1.6552e-05
1.20576e-06
-1.56413e-05
-3.32358e-06
-1.40235e-05
-5.12891e-06
-1.20351e-05
-5.26671e-06
-1.00894e-05
-5.01632e-06
-7.7293e-06
-5.73914e-06
-5.32677e-06
-7.19939e-06
-2.8732e-06
-6.76769e-06
-7.45287e-07
-4.47834e-06
-6.28868e-06
1.7196e-06
-5.00253e-06
2.50521e-06
-3.9045e-06
4.80146e-06
-4.97756e-06
5.96883e-06
-3.04604e-06
5.69841e-06
-4.12236e-07
5.47419e-06
2.38738e-06
6.54682e-06
8.77963e-06
3.84539e-06
2.14325e-05
-6.64049e-06
4.26855e-05
-1.16635e-05
6.13669e-05
-1.17111e-05
4.41474e-05
-1.48544e-05
2.91047e-05
-1.65786e-05
1.15303e-05
-1.67759e-05
2.76106e-06
-1.58329e-05
-3.11056e-06
-1.39277e-05
-6.42592e-06
-1.14514e-05
-7.52128e-06
-9.19599e-06
-7.13756e-06
-7.28681e-06
-7.48614e-06
-6.13466e-06
-8.19031e-06
-3.9754e-06
-8.88601e-06
-1.20085e-06
-7.21788e-06
-7.48358e-06
6.42309e-07
-7.57969e-06
1.41932e-06
-6.69966e-06
1.11938e-06
-6.72697e-06
7.8059e-07
-4.96161e-06
3.81341e-07
-2.68277e-06
8.22048e-07
-1.67043e-06
1.59717e-06
2.70846e-07
-2.26799e-07
9.35512e-06
-7.67143e-06
2.7028e-05
-2.06446e-05
4.55307e-05
-2.44559e-05
5.41897e-05
-1.79753e-05
4.3892e-05
-1.96397e-05
2.49035e-05
-1.84876e-05
6.5567e-06
-1.64902e-05
-3.51357e-06
-1.38584e-05
-8.21784e-06
-1.05852e-05
-8.25893e-06
-7.87669e-06
-6.65919e-06
-6.64104e-06
-6.26861e-06
-6.46265e-06
-5.90159e-06
-5.25337e-06
-2.67498e-06
-2.25716e-06
-1.57717e-07
-6.54743e-06
1.29357e-07
-7.70907e-06
6.59408e-08
-6.63627e-06
-5.83478e-07
-6.07757e-06
-2.48261e-06
-3.06249e-06
-5.64699e-06
4.81583e-07
-9.09167e-06
1.77423e-06
-1.2578e-05
3.75396e-06
-1.30487e-05
9.61749e-06
-1.36176e-05
2.47049e-05
-2.26184e-05
4.29459e-05
-3.0744e-05
5.06963e-05
-2.74719e-05
4.23162e-05
-2.18661e-05
3.22259e-05
-2.30874e-05
1.22494e-05
-2.04263e-05
8.0599e-06
-1.58686e-05
1.12953e-05
-1.09727e-05
1.05822e-05
-7.54843e-06
1.34981e-05
-6.34476e-06
1.67318e-05
-6.2199e-06
1.81915e-05
-5.75589e-06
1.67418e-05
-3.84236e-06
1.53561e-05
1.30325e-05
1.65122e-07
-7.87419e-06
2.70391e-07
-6.74153e-06
-7.94289e-08
-5.72776e-06
-1.2364e-06
-1.90552e-06
-2.63137e-06
1.87655e-06
-4.6281e-06
3.77097e-06
-8.91601e-06
8.04188e-06
-1.5476e-05
1.6178e-05
-2.15288e-05
3.09331e-05
-2.91127e-05
4.93581e-05
-3.70063e-05
4.80664e-05
-3.56712e-05
4.31183e-05
-2.79931e-05
3.56571e-05
-2.76234e-05
2.47245e-05
-2.328e-05
1.71332e-05
-1.90354e-05
1.18849e-05
-1.32024e-05
9.74379e-06
-9.20311e-06
1.46762e-05
-6.89967e-06
2.01966e-05
-5.5842e-06
2.28994e-05
-4.98097e-06
2.14559e-05
-4.45192e-06
1.88226e-05
1.49601e-05
3.37191e-07
-8.21139e-06
4.49608e-07
-6.85396e-06
-1.9844e-07
-5.07972e-06
-1.54979e-06
-5.54176e-07
-4.00233e-06
4.32908e-06
-6.89298e-06
6.66161e-06
-9.94647e-06
1.10954e-05
-1.30708e-05
1.93025e-05
-1.82262e-05
3.616e-05
-2.64935e-05
5.79779e-05
-3.82735e-05
5.35592e-05
-3.95809e-05
3.6682e-05
-3.87483e-05
3.4893e-05
-3.42208e-05
2.61329e-05
-2.6618e-05
1.19913e-05
-1.99855e-05
3.05861e-06
-1.59078e-05
1.43996e-06
-1.31213e-05
6.03563e-06
-8.81343e-06
9.91265e-06
-3.64707e-06
1.18857e-05
-3.15357e-06
1.3494e-05
-3.94509e-06
1.10431e-05
7.17394e-06
-8.20232e-06
3.48019e-05
2.74995e-06
2.59572e-05
2.13499e-05
2.62027e-05
3.40745e-05
2.94468e-05
3.91339e-05
3.30529e-05
4.20339e-05
3.40687e-05
4.54473e-05
3.33156e-05
4.95441e-05
3.24815e-05
5.35926e-05
3.19991e-05
5.78165e-05
3.19677e-05
6.22234e-05
3.35035e-05
6.4785e-05
3.69425e-05
6.42447e-05
1.8296e-05
6.01588e-05
1.20333e-05
4.79293e-05
1.29884e-05
2.43822e-05
1.78457e-05
3.43663e-06
2.29727e-05
-3.63412e-06
2.3696e-05
1.34292e-05
4.88565e-06
2.08277e-05
2.71338e-05
-1.08466e-05
4.29798e-05
6.80923e-06
4.9362e-05
2.5259e-05
5.12117e-05
3.30908e-05
5.24231e-05
2.76673e-05
5.38185e-05
2.45746e-05
5.52548e-05
2.25518e-05
5.7588e-05
2.04354e-05
6.00673e-05
1.91935e-05
6.14296e-05
2.04723e-05
5.3119e-05
2.12961e-05
5.9674e-05
1.82632e-05
5.93883e-05
1.52333e-05
5.063e-05
2.25266e-05
3.28813e-05
3.52399e-05
1.29736e-05
3.93582e-05
-1.83502e-06
3.23068e-05
8.53712e-06
2.08761e-05
2.24327e-05
3.872e-05
-4.14053e-05
5.62151e-05
-3.73058e-05
6.52094e-05
-2.59748e-05
6.75363e-05
-1.16794e-05
6.89445e-05
-7.23828e-06
6.77204e-05
-3.93197e-06
6.5639e-05
-2.79416e-06
6.22008e-05
-2.82267e-06
5.80073e-05
-3.67013e-06
5.10264e-05
-2.16998e-06
4.40508e-05
-2.96097e-06
3.74611e-05
9.9127e-07
2.40964e-05
2.04506e-06
1.86624e-05
3.29572e-05
2.97098e-05
4.27456e-05
1.32427e-05
5.57832e-05
5.36235e-08
5.39819e-05
1.30836e-05
3.29375e-05
-2.79956e-05
4.12709e-05
-6.26673e-05
4.75955e-05
-5.68719e-05
5.12428e-05
-3.74378e-05
5.72504e-05
-2.14753e-05
6.09027e-05
-1.37026e-05
6.21741e-05
-8.18569e-06
6.16572e-05
-5.66698e-06
5.95471e-05
-4.98261e-06
5.48299e-05
-5.63327e-06
5.02017e-05
-3.58324e-06
4.43261e-05
-5.08108e-08
3.65278e-05
-6.59883e-07
2.61922e-05
1.01601e-06
6.04307e-06
1.51382e-05
1.19345e-05
2.75421e-05
1.26119e-05
5.96431e-05
3.15024e-06
6.55333e-05
1.3642e-05
2.81081e-05
-6.46147e-05
3.57786e-05
-7.41109e-05
3.7563e-05
-6.0327e-05
4.04755e-05
-3.99083e-05
4.51617e-05
-2.66068e-05
4.73879e-05
-1.64485e-05
4.88056e-05
-9.18987e-06
5.07069e-05
-7.62554e-06
5.2639e-05
-6.89574e-06
5.39133e-05
-4.52481e-06
5.08174e-05
2.28906e-06
4.498e-05
1.25462e-05
3.37415e-05
1.83216e-05
1.58072e-05
2.54445e-05
-7.06092e-06
2.98768e-05
-9.51299e-06
1.84635e-05
9.01321e-06
4.3691e-05
7.16314e-06
6.7112e-05
3.38055e-05
2.15782e-05
-8.81473e-05
2.86438e-05
-8.39965e-05
2.77061e-05
-6.18243e-05
3.0127e-05
-4.35318e-05
3.59319e-05
-3.32224e-05
3.96068e-05
-2.02816e-05
4.14453e-05
-1.14667e-05
4.18537e-05
-9.27083e-06
4.2039e-05
-8.13123e-06
4.35051e-05
-5.62733e-06
4.45108e-05
1.56787e-07
4.18538e-05
1.54888e-05
3.27993e-05
3.05503e-05
1.85132e-05
4.38551e-05
-7.03723e-06
5.42429e-05
-1.51876e-05
1.92431e-05
1.98988e-06
3.43908e-05
7.2469e-06
6.37402e-05
5.02445e-05
2.1587e-05
-0.000110497
2.32579e-05
-9.10355e-05
1.95457e-05
-6.29614e-05
2.13025e-05
-4.8954e-05
2.78409e-05
-4.32796e-05
3.34887e-05
-2.88378e-05
3.66876e-05
-1.62689e-05
3.77603e-05
-9.31074e-06
3.75009e-05
-4.5153e-06
3.76315e-05
-2.5559e-06
3.92141e-05
2.92631e-06
3.90542e-05
1.77706e-05
3.24041e-05
4.04531e-05
1.98298e-05
6.04816e-05
-7.00881e-06
7.3991e-05
-2.16431e-05
2.95217e-05
-1.14255e-05
3.17577e-05
5.71643e-06
4.99942e-05
3.96509e-05
1.99655e-05
-0.000128882
1.52739e-05
-0.000106538
8.2615e-06
-7.13857e-05
1.09878e-05
-5.63266e-05
2.07926e-05
-5.56874e-05
3.05549e-05
-4.16244e-05
3.53683e-05
-2.52396e-05
3.65488e-05
-1.32297e-05
3.49114e-05
-3.34362e-06
3.20549e-05
1.07949e-06
3.09315e-05
5.23755e-06
3.27862e-05
1.71793e-05
3.00893e-05
4.51084e-05
2.02026e-05
7.40972e-05
-4.20595e-06
9.26147e-05
-2.5823e-05
4.86175e-05
-2.11316e-05
3.33483e-05
-3.68623e-06
3.51093e-05
2.20107e-05
1.94164e-06
-1.0153e-05
4.48697e-06
-9.3993e-06
7.72585e-06
-8.32026e-06
7.10966e-06
6.15229e-08
2.75582e-06
8.68304e-06
-3.60437e-06
1.30216e-05
-1.3175e-05
2.06671e-05
-2.32038e-05
2.93328e-05
-2.56773e-05
3.86447e-05
-1.88451e-05
5.12899e-05
-2.70053e-05
5.63143e-05
-4.65884e-05
3.92539e-05
-5.50208e-05
1.72358e-05
-5.03374e-05
-5.70098e-07
-3.84182e-05
-1.8665e-05
-3.31048e-05
-2.11392e-05
-3.10953e-05
-2.09826e-05
-2.40626e-05
-2.30558e-05
-1.22732e-05
-2.48827e-05
-2.44056e-06
-2.17166e-05
-1.03902e-06
-1.14077e-05
-6.82269e-06
-5.69141e-06
-1.07916e-05
-1.18994e-05
3.54059e-06
-1.36936e-05
6.98354e-06
-1.28507e-05
8.67888e-06
-1.02651e-05
7.27524e-06
1.18205e-06
3.49035e-06
1.23375e-05
-1.07234e-06
1.72724e-05
-4.94773e-06
2.43187e-05
-6.85617e-06
3.1183e-05
-4.63174e-06
3.64161e-05
6.79826e-06
3.98407e-05
2.36021e-05
3.85256e-05
3.25574e-05
2.58327e-05
3.31468e-05
8.23824e-06
3.16103e-05
-1.02686e-05
2.65915e-05
-2.43082e-05
2.62202e-05
-3.00684e-05
3.00125e-05
-3.25526e-05
3.48423e-05
-3.45782e-05
3.73679e-05
-3.37918e-05
3.80068e-05
-2.86212e-05
4.4486e-05
-2.38008e-05
5.37494e-05
-2.09235e-05
-2.29964e-05
5.80302e-05
3.50388e-06
-1.72e-05
1.15009e-05
-2.13715e-05
1.78603e-05
-1.9725e-05
1.73363e-05
-2.54746e-06
9.33385e-06
1.71517e-05
-1.99821e-06
2.55628e-05
-9.47553e-06
2.99458e-05
-1.08001e-05
3.14647e-05
-6.95324e-06
3.19141e-05
1.68224e-06
3.07859e-05
1.40821e-05
2.58046e-05
2.34667e-05
1.6087e-05
3.09731e-05
2.55428e-07
3.43212e-05
-1.41426e-05
3.54437e-05
-2.67234e-05
3.99715e-05
-3.82201e-05
4.70165e-05
-4.52644e-05
5.51248e-05
-5.33992e-05
5.91951e-05
-6.00974e-05
4.91682e-05
-6.078e-05
3.77276e-05
-4.21808e-05
3.88741e-05
-2.96812e-05
-2.64356e-05
3.36062e-05
1.61798e-06
-1.90357e-05
1.12797e-05
-3.50732e-05
9.76476e-06
-2.76939e-05
4.89305e-07
-1.91316e-06
-8.39966e-06
1.79676e-05
-1.60346e-05
2.61636e-05
-1.87511e-05
2.70484e-05
-1.79253e-05
2.55728e-05
-1.38016e-05
2.33999e-05
-8.27859e-06
2.13251e-05
-1.04527e-08
1.38238e-05
8.50597e-06
3.89923e-06
1.64845e-05
-1.17026e-05
2.36771e-05
-2.87148e-05
2.84178e-05
-4.93181e-05
3.18548e-05
-7.6323e-05
3.43632e-05
-9.53674e-05
3.68881e-05
-0.000117292
4.23022e-05
-0.000138283
3.64234e-05
-8.03785e-05
4.5005e-06
-3.53707e-05
-5.58655e-05
-3.63344e-07
3.00256e-05
-9.95331e-05
-8.61825e-06
-1.42669e-05
-3.17824e-05
-2.75423e-05
-5.80233e-05
-2.65103e-05
-6.87682e-05
-1.12656e-05
-7.15241e-05
-8.15125e-06
-6.12795e-05
-6.0476e-06
-4.913e-05
-2.43209e-07
-4.09489e-05
3.95668e-06
-3.14444e-05
-2.75712e-07
-2.31187e-05
-3.28758e-07
-1.4859e-05
-1.30188e-05
-9.7944e-06
-3.04561e-05
-6.87684e-06
-8.4744e-05
-3.81615e-06
-9.94202e-05
-5.74217e-07
-0.000121556
6.17768e-06
-6.70229e-05
1.09131e-05
-9.30007e-05
1.68834e-05
-7.13328e-05
-2.64171e-05
-8.70637e-05
-9.36694e-05
-2.60238e-05
-0.000120814
5.11967e-06
-0.00013327
2.39513e-05
4.37016e-05
-0.000158029
-2.83998e-05
-4.31523e-05
-7.46985e-05
-7.53513e-05
-9.49376e-05
-8.25915e-05
-9.0969e-05
-4.30459e-05
-9.19759e-05
-4.54126e-05
-8.13768e-05
-4.23518e-05
-6.93244e-05
-3.56592e-05
-6.08514e-05
-3.8267e-05
-5.29621e-05
-4.48246e-05
-4.45657e-05
-4.30408e-05
-3.95841e-05
-5.05367e-05
-4.46774e-05
-3.42509e-05
-4.58844e-05
-6.99645e-05
-3.85993e-05
-6.12452e-05
-4.28986e-05
-6.34236e-05
-6.97391e-05
9.5007e-06
-0.000120707
-2.8978e-05
-0.000142444
-4.32555e-05
-8.60564e-05
-8.98768e-06
-0.000125939
1.20821e-05
-0.000135373
1.70064e-06
-0.00013513
6.33475e-06
1.82041e-05
-0.000147448
-1.93613e-05
-8.13386e-05
-5.25292e-05
-0.000106354
-9.09194e-05
-6.18228e-05
-9.59534e-05
-3.40032e-05
-9.05168e-05
-3.81651e-05
-7.51168e-05
-2.06962e-05
-6.24956e-05
-1.64528e-05
-6.44954e-05
-2.49123e-05
-6.13336e-05
-2.89448e-05
-5.55909e-05
-2.34587e-05
-5.96635e-05
-2.86569e-05
-8.45864e-05
2.30165e-07
-0.000122763
7.42892e-06
-0.000171775
-3.74197e-05
-0.000111197
-4.84893e-05
-5.35405e-05
-3.48624e-05
-4.90388e-05
-3.39197e-05
-6.49562e-05
-2.3616e-05
-6.90011e-05
3.19213e-05
-0.000111452
2.75533e-05
-0.000122259
1.04739e-05
-0.000118574
2.33495e-06
4.76042e-06
-0.00012712
-1.19742e-05
-5.3963e-05
-2.76894e-05
-2.84394e-05
-6.33538e-05
1.93882e-05
-7.46536e-05
1.48881e-05
-4.70049e-05
-3.09147e-05
-1.76473e-05
-3.05024e-05
5.3919e-06
-1.65535e-05
-1.31487e-05
8.1782e-06
-3.31556e-05
3.63899e-05
-3.82201e-05
3.35539e-05
-3.00216e-05
2.1635e-05
-9.87399e-06
1.49527e-05
1.77105e-06
-2.34794e-05
-4.46219e-06
-3.10894e-05
-2.92391e-05
-2.36845e-05
-4.77681e-05
-1.6301e-05
-6.74923e-05
-1.4148e-05
-8.22971e-05
-8.85398e-06
-9.33628e-05
3.31693e-05
-8.02318e-05
8.75181e-05
-0.000116743
3.259e-05
-0.000133187
3.99029e-05
8.51919e-05
-0.000148677
2.17807e-06
4.83657e-05
4.94262e-06
9.31061e-05
1.08794e-05
5.78702e-05
2.66776e-05
2.71994e-05
2.30303e-05
-1.02534e-05
1.91506e-05
-2.61221e-05
9.79222e-06
-6.89194e-06
-2.78637e-05
4.81619e-05
-2.84134e-05
5.42812e-05
-3.07302e-05
5.38002e-05
-4.939e-05
4.81882e-05
-4.94519e-05
1.53726e-05
-5.08259e-05
-2.22472e-05
-6.28356e-05
-1.91936e-05
-7.31533e-05
-1.33943e-05
-7.57621e-05
-1.37014e-05
-8.19976e-05
-7.94669e-06
-9.68443e-05
5.975e-06
-0.000104507
4.01255e-05
-0.000109178
0.000102695
-0.000149473
0.000138497
-0.000219468
0.000135637
0.000209065
-0.000295962
1.23314e-06
9.12923e-05
1.28013e-05
8.87245e-05
5.63851e-06
6.49222e-05
1.58801e-06
3.1102e-05
6.76515e-06
-1.61453e-05
-1.39804e-06
-1.83982e-05
4.60177e-06
-1.28133e-05
6.98431e-06
4.5743e-05
-8.91196e-06
7.01575e-05
-1.81126e-05
6.29854e-05
-1.19779e-05
4.20606e-05
-3.01377e-06
6.45774e-06
-1.351e-05
-1.15376e-05
-1.77291e-05
-1.50353e-05
-2.08168e-05
-1.03058e-05
-3.47542e-05
2.29446e-07
-5.73942e-05
1.46791e-05
-9.01833e-05
3.87237e-05
-0.000122922
7.28631e-05
-0.000145645
0.000126305
-0.00018846
0.0001873
-0.000245769
0.000233385
0.000311395
-0.000250082
-1.6487e-06
9.33415e-05
1.40518e-05
7.30207e-05
2.94916e-05
4.94347e-05
4.07033e-05
2.01545e-05
2.08028e-05
4.14558e-06
-1.90691e-07
2.51697e-06
-1.41632e-05
1.24184e-06
-7.38853e-06
3.90078e-05
2.01523e-08
6.27076e-05
8.66359e-06
5.43646e-05
2.01261e-05
3.05877e-05
1.14512e-05
1.50215e-05
-1.17438e-05
1.18089e-05
-3.03474e-05
3.60658e-06
-4.68586e-05
6.20496e-06
-6.01442e-05
1.35153e-05
-7.46204e-05
2.9149e-05
-9.26542e-05
5.67422e-05
-0.000118595
9.88137e-05
-0.000143608
0.000151315
-0.000172705
0.000216188
-0.000198352
0.000258829
0.000281225
-0.000167677
1.96611e-06
9.10319e-05
1.24754e-05
6.25101e-05
1.73036e-05
4.4562e-05
1.19037e-05
2.56705e-05
6.72202e-06
8.92728e-06
8.94322e-07
8.30462e-06
-2.07334e-06
4.14347e-06
1.18086e-06
3.57153e-05
8.39349e-06
5.55136e-05
1.12694e-05
5.15082e-05
6.69493e-06
3.51724e-05
1.16069e-06
2.05938e-05
-5.73391e-06
1.85906e-05
-1.7269e-05
1.50598e-05
-2.94396e-05
1.83631e-05
-4.32653e-05
2.73385e-05
-5.72909e-05
4.31702e-05
-7.04049e-05
6.98485e-05
-8.20512e-05
0.000110462
-9.18993e-05
0.000161173
-9.31859e-05
0.000217428
-8.18776e-05
0.000247278
0.000246811
-4.75159e-05
1.06239e-05
8.03994e-05
1.65826e-05
5.68223e-05
2.11367e-05
3.99966e-05
2.07459e-05
2.62557e-05
1.03987e-05
1.92841e-05
-5.24917e-07
1.92246e-05
-1.3763e-05
1.74097e-05
-6.89252e-06
2.88812e-05
6.59813e-06
4.20035e-05
1.36997e-05
4.44041e-05
1.08512e-05
3.8018e-05
-3.21594e-07
3.18738e-05
-1.18182e-05
3.02337e-05
-2.50137e-05
2.82668e-05
-3.70518e-05
3.03993e-05
-4.65985e-05
3.68835e-05
-5.28441e-05
4.94143e-05
-5.46679e-05
7.16718e-05
-4.92475e-05
0.000105046
-3.33698e-05
0.000145306
-4.45248e-06
0.000188513
2.89152e-05
0.000213883
0.000211528
6.40339e-05
1.37949e-05
6.66113e-05
1.80642e-05
5.27345e-05
1.91521e-05
3.89977e-05
1.50865e-05
3.03801e-05
7.78302e-06
2.65784e-05
7.93764e-07
2.62137e-05
-7.1903e-06
2.53907e-05
-8.86225e-06
3.05626e-05
-2.42613e-06
3.55632e-05
1.42661e-06
4.05504e-05
-2.28924e-06
4.1754e-05
-9.49803e-06
3.90745e-05
-1.61122e-05
3.68324e-05
-2.26827e-05
3.48344e-05
-2.91858e-05
3.69012e-05
-3.57889e-05
4.34854e-05
-4.1491e-05
5.5116e-05
-4.19129e-05
7.20943e-05
-3.25485e-05
9.56845e-05
-1.0405e-05
0.000123171
2.54787e-05
0.000152624
6.68446e-05
0.00017251
0.000174756
0.000103596
1.00738e-05
5.65103e-05
1.47275e-05
4.81799e-05
1.46596e-05
3.91905e-05
1.08506e-05
3.41927e-05
5.96399e-06
3.14653e-05
1.3493e-06
3.08287e-05
-3.78807e-06
3.05289e-05
-6.30075e-06
3.30787e-05
-5.98939e-06
3.52567e-05
-5.32046e-06
3.98874e-05
-6.28706e-06
4.2739e-05
-9.63116e-06
4.24343e-05
-1.41187e-05
4.13217e-05
-2.01269e-05
4.08415e-05
-2.57882e-05
4.25617e-05
-2.93923e-05
4.709e-05
-3.05609e-05
5.62855e-05
-2.82059e-05
6.97408e-05
-1.91971e-05
8.66789e-05
-1.29002e-06
0.000105266
2.7055e-05
0.000124278
6.24215e-05
0.000137126
0.000139788
9.73703e-05
6.14198e-06
5.04161e-05
9.5194e-06
4.48757e-05
9.30226e-06
3.94212e-05
7.20079e-06
3.62946e-05
4.36898e-06
3.42975e-05
1.55759e-06
3.36405e-05
-1.4241e-06
3.3511e-05
-3.45744e-06
3.51126e-05
-4.73357e-06
3.65345e-05
-4.76449e-06
3.99221e-05
-4.52088e-06
4.25e-05
-5.5393e-06
4.34548e-05
-7.77666e-06
4.35592e-05
-1.11415e-05
4.42059e-05
-1.47119e-05
4.61328e-05
-1.75197e-05
4.98976e-05
-1.79614e-05
5.67286e-05
-1.50048e-05
6.67861e-05
-7.43932e-06
7.91149e-05
6.34095e-06
9.14889e-05
2.71263e-05
0.000103495
5.30724e-05
0.000111174
0.000112402
8.04486e-05
3.64644e-06
4.67841e-05
5.92674e-06
4.25998e-05
5.99549e-06
3.93531e-05
4.96216e-06
3.73283e-05
3.40525e-06
3.58548e-05
1.79536e-06
3.52507e-05
1.42159e-07
3.51645e-05
-1.01967e-06
3.62748e-05
-1.97916e-06
3.74943e-05
-2.03605e-06
3.99796e-05
-1.65217e-06
4.21166e-05
-1.53752e-06
4.33404e-05
-2.06747e-06
4.40892e-05
-3.31212e-06
4.54509e-05
-4.70287e-06
4.75227e-05
-5.83066e-06
5.10266e-05
-5.70046e-06
5.65978e-05
-3.02986e-06
6.41153e-05
3.16882e-06
7.29175e-05
1.32141e-05
8.14441e-05
2.83846e-05
8.83266e-05
4.71801e-05
9.23804e-05
9.27737e-05
6.68059e-05
2.23422e-06
4.45505e-05
3.84836e-06
4.0986e-05
4.22061e-06
3.89811e-05
3.8873e-06
3.76619e-05
3.06848e-06
3.66739e-05
2.09804e-06
3.62214e-05
1.02852e-06
3.62343e-05
2.6801e-07
3.70356e-05
-2.87553e-07
3.80502e-05
-9.94764e-08
3.97919e-05
5.71917e-07
4.14455e-05
1.15541e-06
4.27572e-05
1.35496e-06
4.38898e-05
1.18616e-06
4.56194e-05
9.00006e-07
4.78101e-05
7.50155e-07
5.11748e-05
1.77538e-06
5.55732e-05
4.94141e-06
6.09501e-05
1.06048e-05
6.7254e-05
1.8651e-05
7.34001e-05
2.96574e-05
7.73231e-05
4.33495e-05
7.86902e-05
7.81426e-05
5.79839e-05
1.50674e-06
4.30442e-05
2.78149e-06
3.97117e-05
3.25712e-06
3.85059e-05
3.19629e-06
3.77231e-05
2.71111e-06
3.71595e-05
2.01083e-06
3.69221e-05
1.25104e-06
3.69945e-05
7.02636e-07
3.75845e-05
4.00653e-07
3.83527e-05
6.38767e-07
3.95542e-05
1.24576e-06
4.0839e-05
1.8785e-06
4.21248e-05
2.32627e-06
4.34424e-05
2.69526e-06
4.52512e-05
3.04538e-06
4.7459e-05
3.65365e-06
5.05675e-05
5.44148e-06
5.37857e-05
9.05786e-06
5.73342e-05
1.44207e-05
6.18919e-05
2.14535e-05
6.6368e-05
3.02813e-05
6.84967e-05
4.08068e-05
6.81665e-05
6.68816e-05
5.20679e-05
1.17043e-06
4.1874e-05
2.0774e-06
3.8805e-05
2.46436e-06
3.81192e-05
2.52864e-06
3.76591e-05
2.33955e-06
3.73488e-05
1.98286e-06
3.72791e-05
1.57349e-06
3.74042e-05
1.27029e-06
3.7888e-05
1.10839e-06
3.85148e-05
1.30891e-06
3.9354e-05
1.84435e-06
4.03038e-05
2.45406e-06
4.15154e-05
3.03178e-06
4.28649e-05
3.7906e-06
4.44925e-05
4.77368e-06
4.64769e-05
6.45606e-06
4.88854e-05
9.0261e-06
5.12165e-05
1.25454e-05
5.38159e-05
1.74337e-05
5.70046e-05
2.39054e-05
5.98976e-05
3.14994e-05
6.09041e-05
3.99664e-05
5.97006e-05
5.78703e-05
4.89785e-05
9.04791e-07
4.09694e-05
1.57854e-06
3.81315e-05
1.98704e-06
3.77109e-05
2.23113e-06
3.74152e-05
2.32574e-06
3.72544e-05
2.32414e-06
3.72809e-05
2.26434e-06
3.74642e-05
2.25109e-06
3.79015e-05
2.28938e-06
3.84768e-05
2.45559e-06
3.91881e-05
2.82872e-06
3.9931e-05
3.40269e-06
4.09417e-05
4.07801e-06
4.21899e-05
5.11861e-06
4.34525e-05
6.64892e-06
4.49467e-05
8.88638e-06
4.6649e-05
1.15218e-05
4.85821e-05
1.47321e-05
5.06069e-05
1.91758e-05
5.25623e-05
2.48427e-05
5.42321e-05
3.12809e-05
5.44674e-05
3.81468e-05
5.28364e-05
5.06468e-05
4.53706e-05
7.313e-07
4.02383e-05
1.36968e-06
3.74933e-05
1.86717e-06
3.72136e-05
2.20047e-06
3.70821e-05
2.4402e-06
3.70149e-05
2.65933e-06
3.7062e-05
2.87109e-06
3.72527e-05
3.15357e-06
3.76192e-05
3.52254e-06
3.81081e-05
3.94684e-06
3.8764e-05
4.45523e-06
3.94229e-05
5.20143e-06
4.01958e-05
6.17742e-06
4.12142e-05
7.38777e-06
4.22424e-05
8.9516e-06
4.33837e-05
1.10245e-05
4.45769e-05
1.36876e-05
4.59201e-05
1.70228e-05
4.7273e-05
2.1167e-05
4.84195e-05
2.6129e-05
4.92717e-05
3.16379e-05
4.89599e-05
3.72598e-05
4.72158e-05
4.51282e-05
4.27792e-05
6.74156e-07
3.95643e-05
1.23139e-06
3.69362e-05
1.69034e-06
3.67549e-05
2.08005e-06
3.66926e-05
2.42456e-06
3.66706e-05
2.75034e-06
3.67364e-05
3.10195e-06
3.69013e-05
3.53786e-06
3.71835e-05
4.0718e-06
3.75744e-05
4.70724e-06
3.81288e-05
5.3936e-06
3.87368e-05
6.26156e-06
3.93281e-05
7.44881e-06
4.00272e-05
8.87772e-06
4.0814e-05
1.05859e-05
4.16759e-05
1.24962e-05
4.26676e-05
1.48664e-05
4.35511e-05
1.79429e-05
4.41977e-05
2.16307e-05
4.47331e-05
2.59165e-05
4.49874e-05
3.06485e-05
4.42293e-05
3.53492e-05
4.25165e-05
4.0698e-05
3.97801e-05
6.01778e-07
3.89627e-05
1.11892e-06
3.64192e-05
1.58776e-06
3.62862e-05
2.02908e-06
3.62515e-05
2.43521e-06
3.62646e-05
2.82939e-06
3.63424e-05
3.24892e-06
3.64819e-05
3.74457e-06
3.66881e-05
4.33493e-06
3.69843e-05
5.03682e-06
3.74272e-05
5.84341e-06
3.79304e-05
6.78766e-06
3.83841e-05
7.94113e-06
3.8874e-05
9.37361e-06
3.93818e-05
1.10887e-05
3.99616e-05
1.32074e-05
4.05496e-05
1.57883e-05
4.09714e-05
1.8661e-05
4.13263e-05
2.19206e-05
4.14747e-05
2.57e-05
4.12094e-05
2.96823e-05
4.02483e-05
3.35043e-05
3.86957e-05
3.68887e-05
3.73142e-05
6.2693e-07
3.83359e-05
1.16078e-06
3.58855e-05
1.65431e-06
3.57928e-05
2.12554e-06
3.57804e-05
2.58811e-06
3.58022e-05
3.06636e-06
3.58643e-05
3.57827e-06
3.59702e-05
4.13863e-06
3.61279e-05
4.76317e-06
3.63599e-05
5.53286e-06
3.66577e-05
6.48681e-06
3.69767e-05
7.56248e-06
3.73086e-05
8.76025e-06
3.76765e-05
1.01402e-05
3.80022e-05
1.1802e-05
3.83002e-05
1.37922e-05
3.85604e-05
1.59963e-05
3.87683e-05
1.85011e-05
3.88226e-05
2.14881e-05
3.84889e-05
2.48119e-05
3.78869e-05
2.81637e-05
3.68977e-05
3.14434e-05
3.5417e-05
3.34603e-05
3.48723e-05
5.81265e-07
3.77548e-05
1.10437e-06
3.53625e-05
1.6231e-06
3.52742e-05
2.12676e-06
3.52769e-05
2.62809e-06
3.5301e-05
3.14843e-06
3.53441e-05
3.70391e-06
3.54149e-05
4.30821e-06
3.55238e-05
4.9879e-06
3.56804e-05
5.78044e-06
3.58653e-05
6.70132e-06
3.6056e-05
7.7568e-06
3.62533e-05
9.01349e-06
3.64201e-05
1.03782e-05
3.66378e-05
1.19079e-05
3.67711e-05
1.3734e-05
3.67348e-05
1.58728e-05
3.66305e-05
1.83885e-05
3.63079e-05
2.10624e-05
3.5816e-05
2.38601e-05
3.50903e-05
2.67316e-05
3.40271e-05
2.96876e-05
3.2462e-05
3.05276e-05
3.26206e-05
5.80908e-07
3.7174e-05
1.10942e-06
3.48341e-05
1.64112e-06
3.47427e-05
2.18161e-06
3.47365e-05
2.73204e-06
3.47507e-05
3.29541e-06
3.47809e-05
3.89281e-06
3.48176e-05
4.54387e-06
3.48729e-05
5.27665e-06
3.49478e-05
6.08867e-06
3.50534e-05
6.96143e-06
3.51834e-05
7.94719e-06
3.52677e-05
9.09866e-06
3.52688e-05
1.04835e-05
3.52533e-05
1.21327e-05
3.51223e-05
1.39028e-05
3.49654e-05
1.58396e-05
3.46945e-05
1.7878e-05
3.42705e-05
2.00712e-05
3.36238e-05
2.25487e-05
3.26137e-05
2.52318e-05
3.1345e-05
2.78564e-05
2.98381e-05
2.79871e-05
3.03972e-05
5.71901e-07
3.66022e-05
1.09661e-06
3.43095e-05
1.62513e-06
3.42142e-05
2.15633e-06
3.42054e-05
2.70329e-06
3.42038e-05
3.27695e-06
3.42073e-05
3.88107e-06
3.42136e-05
4.52905e-06
3.4225e-05
5.24585e-06
3.42311e-05
6.0752e-06
3.42242e-05
7.0431e-06
3.42156e-05
8.1212e-06
3.41898e-05
9.26456e-06
3.41256e-05
1.05119e-05
3.40062e-05
1.18347e-05
3.38e-05
1.33615e-05
3.3439e-05
1.51162e-05
3.29406e-05
1.70915e-05
3.22959e-05
1.92761e-05
3.144e-05
2.14807e-05
3.041e-05
2.36548e-05
2.91716e-05
2.59205e-05
2.75732e-05
2.56801e-05
2.82277e-05
5.74526e-07
3.60277e-05
1.11223e-06
3.37719e-05
1.65752e-06
3.3669e-05
2.20925e-06
3.36537e-05
2.77548e-06
3.36377e-05
3.36724e-06
3.36157e-05
3.9894e-06
3.35915e-05
4.65298e-06
3.35615e-05
5.36547e-06
3.35187e-05
6.1274e-06
3.34624e-05
6.95592e-06
3.33872e-05
7.88708e-06
3.32587e-05
8.94953e-06
3.30633e-05
1.01605e-05
3.27954e-05
1.15467e-05
3.24141e-05
1.3087e-05
3.18993e-05
1.47062e-05
3.1322e-05
1.64116e-05
3.05912e-05
1.81549e-05
2.96974e-05
2.00241e-05
2.85414e-05
2.20569e-05
2.71394e-05
2.40943e-05
2.55364e-05
2.36949e-05
2.60797e-05
5.50118e-07
3.54777e-05
1.06616e-06
3.32559e-05
1.59575e-06
3.31395e-05
2.13558e-06
3.3114e-05
2.68988e-06
3.30835e-05
3.26623e-06
3.30394e-05
3.87326e-06
3.29846e-05
4.52167e-06
3.29132e-05
5.22143e-06
3.2819e-05
5.99301e-06
3.26909e-05
6.86438e-06
3.25159e-05
7.81903e-06
3.23042e-05
8.85318e-06
3.20293e-05
9.97653e-06
3.16722e-05
1.11704e-05
3.12206e-05
1.24222e-05
3.06478e-05
1.38055e-05
2.99391e-05
1.53238e-05
2.90735e-05
1.69923e-05
2.80294e-05
1.87185e-05
2.68159e-05
2.04459e-05
2.54125e-05
2.22044e-05
2.37785e-05
2.19241e-05
2.39753e-05
5.54339e-07
3.49234e-05
1.0824e-06
3.2728e-05
1.6218e-06
3.26002e-05
2.16492e-06
3.25709e-05
2.71873e-06
3.25297e-05
3.28459e-06
3.24736e-05
3.86985e-06
3.23994e-05
4.48416e-06
3.2299e-05
5.13866e-06
3.21646e-05
5.84256e-06
3.19871e-05
6.59915e-06
3.17594e-05
7.42792e-06
3.14755e-05
8.34609e-06
3.11113e-05
9.36178e-06
3.06567e-05
1.04793e-05
3.01032e-05
1.17054e-05
2.94221e-05
1.30179e-05
2.86271e-05
1.43778e-05
2.77141e-05
1.57806e-05
2.6627e-05
1.72455e-05
2.53514e-05
1.87814e-05
2.3877e-05
2.03389e-05
2.22214e-05
2.0377e-05
2.18861e-05
5.27822e-07
3.43956e-05
1.03596e-06
3.22199e-05
1.55579e-06
3.20804e-05
2.07927e-06
3.20475e-05
2.61261e-06
3.19964e-05
3.15864e-06
3.19276e-05
3.72351e-06
3.18346e-05
4.31501e-06
3.17075e-05
4.94026e-06
3.15394e-05
5.61031e-06
3.13171e-05
6.33217e-06
3.10376e-05
7.11962e-06
3.06881e-05
7.97253e-06
3.02584e-05
8.88813e-06
2.97412e-05
9.8688e-06
2.91229e-05
1.09106e-05
2.83804e-05
1.20179e-05
2.75202e-05
1.32127e-05
2.65196e-05
1.44788e-05
2.53613e-05
1.57875e-05
2.40431e-05
1.71134e-05
2.25514e-05
1.8461e-05
2.08742e-05
1.9024e-05
1.98139e-05
5.27533e-07
3.38682e-05
1.03079e-06
3.17167e-05
1.54047e-06
3.15708e-05
2.0501e-06
3.15379e-05
2.56526e-06
3.14813e-05
3.08816e-06
3.14048e-05
3.62099e-06
3.13018e-05
4.16837e-06
3.11602e-05
4.73784e-06
3.097e-05
5.34377e-06
3.07112e-05
5.98686e-06
3.03945e-05
6.67745e-06
2.99976e-05
7.42791e-06
2.9508e-05
8.24009e-06
2.89292e-05
9.11297e-06
2.825e-05
1.00429e-05
2.74508e-05
1.10291e-05
2.65342e-05
1.20705e-05
2.54784e-05
1.31527e-05
2.42794e-05
1.4273e-05
2.2923e-05
1.54215e-05
2.14031e-05
1.65883e-05
1.97076e-05
1.78551e-05
1.77572e-05
5.10799e-07
3.33574e-05
9.91684e-07
3.12358e-05
1.47846e-06
3.1084e-05
1.96237e-06
3.1054e-05
2.45144e-06
3.09923e-05
2.95102e-06
3.09052e-05
3.46591e-06
3.07869e-05
3.99698e-06
3.06292e-05
4.53911e-06
3.04279e-05
5.09103e-06
3.01593e-05
5.65992e-06
2.98256e-05
6.2535e-06
2.9404e-05
6.88485e-06
2.88767e-05
7.56643e-06
2.82476e-05
8.30943e-06
2.75072e-05
9.10863e-06
2.66516e-05
9.96068e-06
2.56823e-05
1.08524e-05
2.45868e-05
1.178e-05
2.33519e-05
1.27407e-05
2.19625e-05
1.37214e-05
2.04225e-05
1.47104e-05
1.87188e-05
1.68579e-05
1.57074e-05
5.03406e-07
3.2854e-05
9.39467e-07
3.07998e-05
1.38178e-06
3.06417e-05
1.82648e-06
3.06094e-05
2.28057e-06
3.05382e-05
2.7501e-06
3.04357e-05
3.23995e-06
3.02971e-05
3.74261e-06
3.01265e-05
4.2583e-06
2.99122e-05
4.77582e-06
2.96418e-05
5.3036e-06
2.92979e-05
5.84258e-06
2.8865e-05
6.39286e-06
2.83264e-05
6.95846e-06
2.7682e-05
7.54715e-06
2.69184e-05
8.17018e-06
2.60287e-05
8.84969e-06
2.50028e-05
9.59526e-06
2.38413e-05
1.0383e-05
2.25642e-05
1.11884e-05
2.11571e-05
1.20075e-05
1.96035e-05
1.28328e-05
1.78935e-05
1.6027e-05
1.36637e-05
4.8759e-07
3.23664e-05
8.54922e-07
3.04325e-05
1.22415e-06
3.02725e-05
1.60455e-06
3.0229e-05
1.99743e-06
3.01454e-05
2.40676e-06
3.00264e-05
2.84093e-06
2.9863e-05
3.29614e-06
2.96713e-05
3.77419e-06
2.94341e-05
4.26737e-06
2.91486e-05
4.76956e-06
2.87957e-05
5.27362e-06
2.8361e-05
5.77342e-06
2.78266e-05
6.27449e-06
2.71809e-05
6.78164e-06
2.64114e-05
7.30144e-06
2.55087e-05
7.83124e-06
2.44731e-05
8.37229e-06
2.33002e-05
8.95749e-06
2.19789e-05
9.60707e-06
2.05075e-05
1.02831e-05
1.89274e-05
1.09543e-05
1.72222e-05
1.53584e-05
1.16228e-05
4.35865e-07
3.19306e-05
6.75082e-07
3.01933e-05
9.14971e-07
3.00327e-05
1.18181e-06
2.99622e-05
1.46835e-06
2.98588e-05
1.78062e-06
2.97141e-05
2.122e-06
2.95216e-05
2.50254e-06
2.92908e-05
2.9226e-06
2.90141e-05
3.37823e-06
2.86929e-05
3.85506e-06
2.83188e-05
4.33544e-06
2.78805e-05
4.82125e-06
2.73408e-05
5.31994e-06
2.66822e-05
5.81109e-06
2.592e-05
6.29239e-06
2.50275e-05
6.75748e-06
2.40078e-05
7.20876e-06
2.28488e-05
7.65338e-06
2.15342e-05
8.08807e-06
2.00727e-05
8.55237e-06
1.8463e-05
9.06815e-06
1.67064e-05
1.48426e-05
9.58359e-06
3.22945e-07
3.16076e-05
3.66792e-07
3.01494e-05
3.9642e-07
3.0003e-05
4.80195e-07
2.98784e-05
6.00927e-07
2.97381e-05
7.61793e-07
2.95533e-05
9.65702e-07
2.93177e-05
1.22686e-06
2.90297e-05
1.55035e-06
2.86906e-05
1.94349e-06
2.82998e-05
2.40206e-06
2.78602e-05
2.90906e-06
2.73735e-05
3.43173e-06
2.6818e-05
3.95174e-06
2.6162e-05
4.44441e-06
2.54274e-05
4.91237e-06
2.45592e-05
5.37424e-06
2.35458e-05
5.8296e-06
2.23933e-05