/*--------------------------------*- C++ -*----------------------------------*\
| =========                 |                                                 |
| \\      /  F ield         | OpenFOAM: The Open Source CFD Toolbox           |
|  \\    /   O peration     | Version:  2.4.0                                 |
|   \\  /    A nd           | Web:      www.OpenFOAM.org                      |
|    \\/     M anipulation  |                                                 |
\*---------------------------------------------------------------------------*/
FoamFile
{
    version     2.0;
    format      ascii;
    class       surfaceScalarField;
    location    "0.75";
    object      phi.mercury;
}
// * * * * * * * * * * * * * * * * * * * * * * * * * * * * * * * * * * * * * //

dimensions      [0 3 -1 0 0 0 0];

internalField   nonuniform List<scalar> 
4432
(
1.70271e-06
-1.70349e-06
3.70962e-06
-2.00789e-06
4.84379e-06
-1.13452e-06
6.02291e-06
-1.17945e-06
7.51617e-06
-1.49355e-06
7.79042e-06
-2.74283e-07
6.89782e-06
8.92599e-07
4.29034e-06
2.60748e-06
1.32168e-07
4.15817e-06
-4.66755e-06
4.79972e-06
-9.13392e-06
4.46637e-06
-1.33002e-05
4.16629e-06
-1.60425e-05
2.74225e-06
-1.65051e-05
4.62594e-07
-1.53336e-05
-1.17143e-06
-1.35819e-05
-1.75172e-06
-1.19929e-05
-1.589e-06
-1.04511e-05
-1.54183e-06
-8.88964e-06
-1.56144e-06
-6.35543e-06
-2.53421e-06
-4.24492e-06
-2.1105e-06
-3.47558e-06
-7.69348e-07
-3.4756e-06
1.73103e-06
-4.48445e-06
3.48472e-06
-4.83493e-06
4.98877e-06
-3.51488e-06
6.38506e-06
-3.36535e-06
7.61e-06
-3.38249e-06
8.47672e-06
-1.46002e-06
8.0353e-06
1.28352e-06
5.87041e-06
4.76991e-06
1.47563e-06
8.55289e-06
-4.62487e-06
1.09002e-05
-1.03388e-05
1.01803e-05
-1.45012e-05
8.32876e-06
-1.66087e-05
4.84975e-06
-1.66944e-05
5.48273e-07
-1.53386e-05
-2.5272e-06
-1.34928e-05
-3.59752e-06
-1.17454e-05
-3.33647e-06
-1.01619e-05
-3.12527e-06
-8.26917e-06
-3.45422e-06
-5.91569e-06
-4.88769e-06
-3.66728e-06
-4.3589e-06
-2.07146e-06
-2.36516e-06
-5.54707e-06
1.77779e-06
-2.86e-05
3.11612e-06
-2.8651e-05
5.19832e-06
-2.72552e-05
6.67357e-06
-2.64338e-05
7.17551e-06
-2.50235e-05
7.14789e-06
-2.10108e-05
6.18924e-06
-1.44229e-05
4.40975e-06
-4.32385e-06
5.25042e-07
9.05204e-06
-5.06466e-06
1.63643e-05
-1.0225e-05
1.53393e-05
-1.38649e-05
1.19686e-05
-1.60411e-05
7.02589e-06
-1.65476e-05
1.05486e-06
-1.56396e-05
-3.43521e-06
-1.40231e-05
-5.21404e-06
-1.20352e-05
-5.32443e-06
-1.00897e-05
-5.0707e-06
-7.7297e-06
-5.81424e-06
-5.32652e-06
-7.29087e-06
-2.87262e-06
-6.8128e-06
-7.45217e-07
-4.49257e-06
-6.29229e-06
1.76834e-06
-2.67501e-05
2.7917e-06
-2.64994e-05
5.13767e-06
-2.65445e-05
6.71103e-06
-2.57223e-05
6.92253e-06
-2.48781e-05
7.48597e-06
-2.4855e-05
8.25166e-06
-3.37443e-05
7.37044e-06
-2.93071e-05
5.51595e-07
-1.19129e-05
-7.34202e-06
1.25236e-05
-1.20309e-05
1.95998e-05
-1.49591e-05
1.48902e-05
-1.65775e-05
8.64423e-06
-1.67705e-05
1.24779e-06
-1.58313e-05
-4.3744e-06
-1.39281e-05
-7.11723e-06
-1.14521e-05
-7.80047e-06
-9.19796e-06
-7.3248e-06
-7.28798e-06
-7.72422e-06
-6.13434e-06
-8.44451e-06
-3.97277e-06
-8.97437e-06
-1.20032e-06
-7.26503e-06
-7.4926e-06
1.10323e-06
-1.29649e-05
1.4917e-06
-1.21397e-05
1.39027e-06
-1.21518e-05
1.17935e-06
-1.04344e-05
7.76992e-07
-8.04196e-06
3.65468e-06
-6.94734e-06
6.98877e-06
-1.6611e-05
7.18275e-06
-2.2157e-05
-6.13264e-07
-2.33934e-05
-1.16281e-05
6.7848e-06
-1.8305e-05
1.96973e-05
-1.98798e-05
1.61521e-05
-1.96303e-05
8.38929e-06
-1.84954e-05
1.12539e-07
-1.65191e-05
-6.35077e-06
-1.38367e-05
-9.79968e-06
-1.05823e-05
-1.10549e-05
-7.88072e-06
-1.00265e-05
-6.64242e-06
-8.96256e-06
-6.45751e-06
-8.62947e-06
-5.2513e-06
-1.01811e-05
-2.25532e-06
-1.02621e-05
-9.74799e-06
1.23813e-07
-1.09583e-05
8.96434e-08
-9.79109e-06
-5.60444e-07
-9.10444e-06
-2.3915e-06
-6.15247e-06
-5.43234e-06
-2.66883e-06
-8.77579e-06
-1.20771e-06
-9.51505e-06
6.7978e-07
-4.02502e-06
7.59238e-07
-8.49535e-06
-1.64032e-05
-1.79811e-05
1.07697e-06
-2.42197e-05
1.45398e-05
-2.5161e-05
1.52191e-05
-2.41346e-05
7.28999e-06
-2.32331e-05
-7.91033e-07
-2.03438e-05
-9.24537e-06
-1.59851e-05
-1.42025e-05
-1.10374e-05
-1.61148e-05
-7.55767e-06
-1.3648e-05
-6.3552e-06
-1.02951e-05
-6.37086e-06
-8.7471e-06
-5.78291e-06
-1.10189e-05
-3.47984e-06
-1.28861e-05
-1.33575e-05
1.72911e-07
-1.16483e-05
2.93912e-07
-1.02507e-05
-5.62149e-10
-8.95646e-06
-1.08753e-06
-5.35423e-06
-2.53912e-06
-1.5853e-06
-4.51222e-06
2.42128e-07
-9.01681e-06
4.80775e-06
-1.84798e-05
1.22734e-05
-3.14799e-05
-1.3761e-06
-3.37559e-05
-7.04171e-06
-3.35169e-05
3.74027e-06
-3.25426e-05
8.26002e-06
-2.95774e-05
3.70392e-06
-2.72626e-05
-3.32876e-06
-2.46125e-05
-1.27399e-05
-1.96861e-05
-2.10803e-05
-1.38363e-05
-2.50782e-05
-9.48332e-06
-2.19709e-05
-7.00833e-06
-1.72292e-05
-5.7213e-06
-1.50374e-05
-4.85281e-06
-1.81038e-05
-3.44561e-06
-2.08221e-05
-2.05458e-05
3.2613e-07
-1.11351e-05
4.58518e-07
-9.67698e-06
-1.77929e-07
-7.73003e-06
-1.50748e-06
-3.90662e-06
-3.85982e-06
8.06787e-07
-6.80361e-06
2.46846e-06
-9.90286e-06
5.6441e-06
-1.84764e-05
1.34144e-05
-3.01691e-05
7.09712e-06
-3.90266e-05
-1.27699e-05
-3.98335e-05
-4.87721e-06
-3.9733e-05
-3.02909e-06
-3.79736e-05
-6.70476e-06
-3.40988e-05
-1.44193e-05
-2.73096e-05
-2.78013e-05
-2.13185e-05
-3.72091e-05
-1.73448e-05
-4.13637e-05
-1.38382e-05
-3.98962e-05
-9.0202e-06
-3.83694e-05
-3.9069e-06
-3.82675e-05
-2.75026e-06
-3.88799e-05
-2.28143e-06
-4.01788e-05
-3.73186e-05
-9.92786e-06
5.15879e-08
2.44406e-06
-3.87862e-05
1.83964e-05
-3.85027e-05
3.06219e-05
-3.04833e-05
3.80765e-05
-2.22527e-05
4.25587e-05
-1.67561e-05
4.61269e-05
-1.48451e-05
4.98329e-05
-1.46749e-05
5.41558e-05
-1.55144e-05
5.87537e-05
-1.67432e-05
6.25655e-05
-1.61851e-05
6.48771e-05
-1.43699e-05
6.43262e-05
-1.15366e-05
6.04524e-05
-7.32135e-06
4.87263e-05
2.18375e-06
2.78135e-05
1.18025e-05
5.43224e-06
1.23219e-05
-4.24413e-06
7.1091e-08
-1.19927e-05
-7.0613e-07
2.3875e-06
2.61278e-05
-7.60431e-05
3.86555e-05
-8.76094e-05
4.50208e-05
-8.6525e-05
4.86543e-05
-8.02349e-05
5.08277e-05
-6.02507e-05
5.2958e-05
-5.0499e-05
5.45922e-05
-4.48171e-05
5.68631e-05
-4.54053e-05
5.96298e-05
-4.84541e-05
6.17834e-05
-4.68833e-05
6.25778e-05
-4.59593e-05
6.28193e-05
-3.48444e-05
6.1828e-05
-2.34025e-05
5.19166e-05
9.26395e-06
3.54512e-05
3.23114e-05
1.7014e-05
3.42897e-05
-1.31362e-06
2.3432e-05
-1.00835e-05
8.22617e-06
-4.10534e-05
3.31431e-05
-0.000119508
4.61994e-05
-0.000150254
5.44511e-05
-0.000168875
6.13489e-05
-0.000164929
6.58034e-05
-0.00010903
6.57888e-05
-7.36363e-05
6.41068e-05
-6.56772e-05
6.18239e-05
-6.54619e-05
5.86719e-05
-6.5961e-05
5.43867e-05
-6.4335e-05
4.78823e-05
-7.28856e-05
4.23716e-05
-9.65418e-05
4.25026e-05
-0.000106761
3.99673e-05
-5.12803e-05
3.27204e-05
2.53976e-05
1.70412e-05
4.65246e-05
6.25402e-08
3.63156e-05
-1.19541e-05
3.61138e-05
-0.000115902
3.63122e-05
-0.000148866
3.63805e-05
-0.000170996
3.67437e-05
-0.000183843
3.70201e-05
-0.000160887
4.8317e-05
-7.81313e-05
5.32996e-05
-4.03142e-05
5.61572e-05
-3.86147e-05
5.70421e-05
-4.1326e-05
5.51796e-05
-4.03473e-05
5.2355e-05
-3.53496e-05
4.54983e-05
-3.33227e-05
4.30696e-05
-6.33335e-05
2.91831e-05
-7.98403e-05
1.74797e-05
-7.40734e-05
2.08657e-05
7.03588e-06
1.52275e-05
4.92846e-05
3.39312e-06
4.78763e-05
-7.11755e-06
3.02759e-05
-0.000159603
3.15927e-05
-0.000166251
3.4214e-05
-0.000176545
3.35198e-05
-0.000184156
3.35459e-05
-0.000125436
4.15008e-05
-5.23219e-05
4.34022e-05
-3.33418e-05
4.58963e-05
-3.55798e-05
4.91404e-05
-4.74874e-05
5.14003e-05
-4.74277e-05
5.04158e-05
-3.75887e-05
4.67718e-05
-1.2464e-05
3.53457e-05
2.04959e-06
1.21379e-05
9.83692e-06
-3.67142e-06
-3.80447e-05
2.28309e-06
-1.16322e-06
1.09398e-05
3.51568e-05
7.85007e-06
5.12073e-05
-4.99259e-06
2.78833e-05
-0.000167338
2.99218e-05
-0.000175585
2.9872e-05
-0.000189121
2.57939e-05
-0.000178358
3.06299e-05
-9.52926e-05
3.72402e-05
-4.96225e-05
3.92742e-05
-3.11757e-05
3.87543e-05
-2.65387e-05
4.14705e-05
-3.69855e-05
4.25992e-05
-3.88718e-05
4.40648e-05
-3.10005e-05
4.40588e-05
-1.01338e-05
3.39735e-05
1.09707e-05
8.49457e-06
2.39323e-05
-8.76126e-06
-2.54968e-05
-4.12889e-06
-4.13829e-06
3.26529e-06
2.11439e-05
6.60405e-06
4.74085e-05
-2.38462e-05
2.90356e-05
-0.000169507
2.98811e-05
-0.000182243
2.50143e-05
-0.000201094
1.88188e-05
-0.000159482
2.42903e-05
-7.54001e-05
3.00065e-05
-5.0025e-05
3.47574e-05
-3.29283e-05
3.62543e-05
-2.28329e-05
3.68803e-05
-2.06391e-05
3.73724e-05
-2.12054e-05
3.97661e-05
-1.68102e-05
4.10973e-05
-5.19902e-06
3.15992e-05
1.91803e-05
4.58076e-06
3.68033e-05
-1.47598e-05
-2.61309e-05
-1.59179e-05
-8.43512e-06
-1.08879e-05
8.491e-06
1.89822e-06
2.781e-05
-7.09899e-05
2.76582e-05
-0.000170895
2.92923e-05
-0.000188273
2.19845e-05
-0.000204088
1.12389e-05
-0.000126014
1.65004e-05
-7.08768e-05
2.67397e-05
-5.6288e-05
3.26127e-05
-3.85914e-05
3.55131e-05
-2.53926e-05
3.42741e-05
-1.67223e-05
3.19221e-05
-1.55336e-05
3.15579e-05
-1.39772e-05
3.4365e-05
-4.34506e-06
3.09901e-05
2.35237e-05
7.28495e-06
5.09671e-05
-1.27004e-05
-3.11429e-05
-2.05071e-05
-1.34523e-05
-2.14468e-05
-6.30228e-06
-3.12695e-06
-3.98097e-06
-0.000104595
1.89235e-06
-9.59783e-06
4.39071e-06
-8.73945e-06
7.72594e-06
-7.65405e-06
7.16881e-06
-3.21171e-07
2.97114e-06
7.59558e-06
-3.7056e-06
1.20491e-05
-1.35454e-05
1.89506e-05
-2.53787e-05
2.60312e-05
-4.10962e-05
2.5219e-05
-6.26966e-05
1.12625e-06
-5.79382e-05
-1.17034e-05
-5.6341e-05
-1.81503e-05
-5.56034e-05
-2.78687e-05
-5.07444e-05
-4.82425e-05
-4.27372e-05
-7.01087e-05
-3.93409e-05
-7.84569e-05
-3.70595e-05
-8.07299e-05
-2.8921e-05
-8.43049e-05
-1.55877e-05
-9.25672e-05
-1.53338e-07
-0.000100399
8.32379e-06
-9.42822e-05
4.28379e-06
-8.20847e-05
-7.1304e-05
-2.7935e-07
3.51431e-06
-1.345e-05
6.92956e-06
-1.2658e-05
8.67098e-06
-1.00135e-05
7.26273e-06
1.14989e-06
3.53824e-06
1.18994e-05
-1.137e-06
1.71834e-05
-5.08115e-06
2.35418e-05
-7.18465e-06
2.89873e-05
-1.18016e-05
2.93019e-05
-2.34819e-05
1.30234e-05
-2.29989e-05
-5.24783e-06
-1.41118e-05
-2.53834e-05
-2.2112e-06
-3.97589e-05
1.11721e-05
-5.22554e-05
2.18915e-05
-5.66331e-05
3.13233e-05
-5.733e-05
3.66558e-05
-5.82607e-05
4.0813e-05
-6.19413e-05
4.49946e-05
-6.56743e-05
4.52176e-05
-6.78234e-05
4.56128e-05
-6.43868e-05
5.12255e-05
-5.50785e-05
-4.64124e-05
5.79413e-05
3.48425e-06
-1.7229e-05
1.15309e-05
-2.07309e-05
1.79205e-05
-1.64819e-05
1.73464e-05
1.8236e-06
9.33071e-06
2.05539e-05
-2.02494e-06
2.89131e-05
-9.54061e-06
3.22088e-05
-1.07654e-05
3.29745e-05
-6.43522e-06
3.30346e-05
-3.79735e-06
2.97085e-05
-3.00978e-06
5.79946e-06
2.17646e-06
-7.7363e-06
1.1916e-05
-1.647e-05
2.64851e-05
-2.12798e-05
3.27354e-05
-2.75686e-05
3.92842e-05
-3.38601e-05
4.65695e-05
-4.03136e-05
5.39513e-05
-4.73041e-05
5.88896e-05
-5.18058e-05
5.14221e-05
-4.78384e-05
3.85885e-05
-3.23351e-05
3.72435e-05
-2.25536e-05
-1.92601e-05
3.2154e-05
1.68754e-06
-1.8824e-05
1.18868e-05
-3.14095e-05
9.98476e-06
-1.74944e-05
4.88508e-07
8.38724e-06
-8.54495e-06
2.67892e-05
-1.60055e-05
3.39033e-05
-1.87649e-05
3.31242e-05
-1.79583e-05
3.07049e-05
-1.37783e-05
2.77257e-05
-7.65721e-06
2.52293e-05
2.70275e-07
1.73039e-05
7.82425e-06
5.72151e-06
1.6054e-05
-7.64434e-06
2.25538e-05
-2.22653e-05
2.79993e-05
-3.04441e-05
3.15814e-05
-4.6552e-05
3.3457e-05
-5.70874e-05
3.61469e-05
-6.55035e-05
4.17786e-05
-7.53754e-05
3.45752e-05
-5.93917e-05
-1.25191e-06
-2.29934e-05
-6.52768e-05
1.24397e-05
4.47083e-05
-0.000126404
-8.63154e-06
-1.24868e-05
-2.97601e-05
-1.79791e-05
-5.73538e-05
-4.84669e-06
-7.6063e-05
4.80727e-06
-7.91374e-05
4.61918e-06
-6.69044e-05
1.9095e-06
-5.23386e-05
4.06083e-06
-4.29021e-05
9.80009e-06
-3.23223e-05
5.91839e-06
-2.29574e-05
4.38882e-06
-1.38363e-05
-9.31809e-06
-8.67215e-06
-2.87239e-05
-6.63054e-06
-6.64178e-05
-4.01086e-06
-8.50286e-05
-1.1279e-06
-0.000112908
4.98724e-06
-0.000123466
9.08722e-06
-8.52291e-05
1.19402e-05
-6.14504e-05
-4.70728e-05
-3.15932e-05
-0.000101384
2.5309e-05
-0.000124341
2.17372e-05
-0.000148163
3.79229e-05
5.66981e-05
-0.000165933
-3.44554e-05
-3.87584e-05
-8.04473e-05
-4.06673e-05
-0.000101026
-3.57129e-05
-0.000106085
-3.59899e-05
-0.000105934
-4.09349e-05
-9.53656e-05
-4.97909e-05
-8.30926e-05
-4.81549e-05
-7.29981e-05
-4.29522e-05
-6.34402e-05
-4.79381e-05
-5.50011e-05
-4.96544e-05
-5.17373e-05
-5.92418e-05
-5.13754e-05
-7.20114e-05
-4.49395e-05
-7.58045e-05
-4.47457e-05
-5.68092e-05
-7.87329e-05
-3.63088e-05
-0.00014937
1.96364e-05
-0.000165662
-2.94075e-05
-0.000169474
-3.90796e-05
-0.000145342
4.70043e-06
-0.000129659
5.54631e-05
-0.000144031
1.768e-05
-0.00014663
1.88119e-05
3.20103e-05
-0.000159521
-4.33227e-05
-6.3509e-05
-8.13303e-05
-5.25553e-05
-0.000108465
-3.80478e-05
-0.000112405
-3.26184e-05
-9.91361e-05
-4.06008e-05
-8.32163e-05
-2.47845e-05
-7.41597e-05
-2.81415e-05
-6.98858e-05
-4.7493e-05
-7.37457e-05
-4.03956e-05
-8.33744e-05
-3.06684e-05
-0.000105141
-1.53433e-05
-0.00015747
1.94871e-05
-0.000183415
-1.22915e-05
-0.000171872
-3.73465e-05
-0.000111212
-4.84419e-05
-5.35431e-05
-3.48212e-05
-4.90436e-05
-3.39116e-05
-6.45658e-05
-2.36107e-05
-0.000115044
3.20428e-05
-0.000158211
7.88851e-05
-0.000149652
1.67325e-05
-0.00014856
5.61549e-06
1.62006e-05
-0.000174573
-3.93537e-05
4.2912e-05
-7.30129e-05
6.28359e-05
-8.43061e-05
5.66991e-05
-7.25107e-05
4.16398e-05
-4.64235e-05
-1.47984e-05
-1.73425e-05
-3.01768e-05
5.83769e-06
-1.62987e-05
-1.09564e-05
1.04222e-05
-3.17814e-05
5.20182e-05
-3.86035e-05
5.07904e-05
-2.97314e-05
2.9447e-05
-9.74829e-06
1.54265e-05
1.77922e-06
-2.3446e-05
-4.4757e-06
-3.1095e-05
-2.92371e-05
-2.36822e-05
-4.77565e-05
-1.63046e-05
-6.75061e-05
-1.41675e-05
-8.22944e-05
-8.84756e-06
-9.45795e-05
3.31897e-05
-0.000128828
8.99941e-05
-0.000140616
5.67609e-05
-0.000152746
3.91558e-05
7.54977e-05
-0.000220845
4.22251e-06
9.37047e-05
6.10031e-06
0.000100007
1.08921e-05
5.78709e-05
2.66739e-05
2.71909e-05
2.28282e-05
-1.08979e-05
1.91827e-05
-2.65303e-05
9.85081e-06
-6.96255e-06
-2.79085e-05
4.8273e-05
-2.84135e-05
5.43087e-05
-3.07294e-05
5.37961e-05
-4.93882e-05
4.81822e-05
-4.94589e-05
1.54985e-05
-5.08524e-05
-2.20531e-05
-6.2852e-05
-1.90967e-05
-7.31541e-05
-1.33821e-05
-7.57616e-05
-1.37002e-05
-8.19919e-05
-7.94287e-06
-9.68305e-05
5.98439e-06
-0.000104499
4.0129e-05
-0.00010912
0.000102766
-0.000148068
0.000141205
-0.000215057
0.000168401
0.000273366
-0.00030383
1.7066e-06
9.20633e-05
1.28924e-05
8.8878e-05
5.65447e-06
6.51095e-05
1.58416e-06
3.12612e-05
6.79059e-06
-1.61046e-05
-1.4082e-06
-1.83308e-05
4.48678e-06
-1.28567e-05
6.96529e-06
4.57952e-05
-8.90953e-06
7.01841e-05
-1.81114e-05
6.29983e-05
-1.20078e-05
4.20783e-05
-3.01115e-06
6.50161e-06
-1.35566e-05
-1.15084e-05
-1.77226e-05
-1.4932e-05
-2.08196e-05
-1.02866e-05
-3.47556e-05
2.33167e-07
-5.73823e-05
1.46799e-05
-9.0136e-05
3.87308e-05
-0.000122901
7.28882e-05
-0.000145581
0.000126315
-0.000187957
0.000187285
-0.000245489
0.000233197
0.000310746
-0.000260351
-1.47888e-06
9.35425e-05
1.4097e-05
7.3302e-05
2.9581e-05
4.96257e-05
4.07055e-05
2.01377e-05
2.06617e-05
3.93998e-06
-1.58453e-07
2.49015e-06
-1.42073e-05
1.19282e-06
-7.3935e-06
3.89822e-05
5.48783e-08
6.27364e-05
8.6652e-06
5.43885e-05
2.01138e-05
3.06298e-05
1.14913e-05
1.51241e-05
-1.18433e-05
1.18257e-05
-3.03678e-05
3.59156e-06
-4.68596e-05
6.20368e-06
-6.01443e-05
1.35152e-05
-7.46165e-05
2.91489e-05
-9.26326e-05
5.67423e-05
-0.000118573
9.88245e-05
-0.000143594
0.000151331
-0.000172507
0.000216181
-0.000198069
0.000258738
0.000281196
-0.000168513
2.00142e-06
9.15412e-05
1.24844e-05
6.28191e-05
1.74003e-05
4.47101e-05
1.17615e-05
2.57769e-05
6.71995e-06
8.98208e-06
9.02547e-07
8.30811e-06
-2.07599e-06
4.17204e-06
1.18008e-06
3.57267e-05
8.41148e-06
5.55057e-05
1.12694e-05
5.15309e-05
6.7009e-06
3.51986e-05
1.1542e-06
2.06707e-05
-5.7766e-06
1.87559e-05
-1.7278e-05
1.5092e-05
-2.94397e-05
1.83635e-05
-4.32652e-05
2.73386e-05
-5.72895e-05
4.31703e-05
-7.03994e-05
6.98494e-05
-8.20402e-05
0.000110463
-9.18866e-05
0.000161175
-9.31405e-05
0.000217434
-8.16617e-05
0.000247263
0.000246669
-4.71351e-05
1.08145e-05
8.0727e-05
1.66225e-05
5.70114e-05
2.12253e-05
4.01077e-05
2.06984e-05
2.63042e-05
1.03958e-05
1.92851e-05
-5.20322e-07
1.92247e-05
-1.3758e-05
1.74102e-05
-6.91679e-06
2.8886e-05
6.59161e-06
4.19978e-05
1.3701e-05
4.44219e-05
1.08538e-05
3.80461e-05
-3.62159e-07
3.18867e-05
-1.18388e-05
3.02321e-05
-2.50145e-05
2.82667e-05
-3.70518e-05
3.03993e-05
-4.65985e-05
3.68835e-05
-5.28441e-05
4.94143e-05
-5.46676e-05
7.16718e-05
-4.92506e-05
0.000105046
-3.33746e-05
0.0001453
-4.43574e-06
0.000188498
2.8955e-05
0.000213872
0.000211505
6.41225e-05
1.39556e-05
6.67716e-05
1.81173e-05
5.28501e-05
1.91619e-05
3.90633e-05
1.50762e-05
3.03903e-05
7.78294e-06
2.65787e-05
7.94225e-07
2.62139e-05
-7.18665e-06
2.53915e-05
-8.86634e-06
3.05661e-05
-2.43632e-06
3.55681e-05
1.42549e-06
4.05605e-05
-2.30325e-06
4.1775e-05
-9.51001e-06
3.90934e-05
-1.61141e-05
3.68356e-05
-2.26827e-05
3.48345e-05
-2.91859e-05
3.69012e-05
-3.57889e-05
4.34854e-05
-4.1491e-05
5.5116e-05
-4.19128e-05
7.20943e-05
-3.25501e-05
9.56844e-05
-1.04151e-05
0.000123168
2.54756e-05
0.000152609
6.6857e-05
0.000172488
0.000174736
0.000103614
1.01645e-05
5.66074e-05
1.47888e-05
4.82262e-05
1.46528e-05
3.91997e-05
1.08504e-05
3.4193e-05
5.96398e-06
3.14654e-05
1.34936e-06
3.08288e-05
-3.78789e-06
3.0529e-05
-6.30047e-06
3.30791e-05
-5.99022e-06
3.52582e-05
-5.3207e-06
3.98912e-05
-6.28907e-06
4.27436e-05
-9.6322e-06
4.24364e-05
-1.4119e-05
4.13222e-05
-2.01269e-05
4.08416e-05
-2.57882e-05
4.25617e-05
-2.93923e-05
4.709e-05
-3.05609e-05
5.62855e-05
-2.82059e-05
6.97408e-05
-1.91973e-05
8.66789e-05
-1.29201e-06
0.000105266
2.70464e-05
0.000124274
6.24192e-05
0.000137116
0.000139775
9.73785e-05
6.17554e-06
5.04322e-05
9.52361e-06
4.48784e-05
9.30214e-06
3.94215e-05
7.20078e-06
3.62947e-05
4.36898e-06
3.42976e-05
1.5576e-06
3.36405e-05
-1.42408e-06
3.3511e-05
-3.45742e-06
3.51127e-05
-4.7335e-06
3.65346e-05
-4.76445e-06
3.99225e-05
-4.52088e-06
4.25002e-05
-5.53932e-06
4.3455e-05
-7.77669e-06
4.35592e-05
-1.11415e-05
4.42059e-05
-1.47119e-05
4.61328e-05
-1.75197e-05
4.98976e-05
-1.79614e-05
5.67286e-05
-1.50047e-05
6.67861e-05
-7.43933e-06
7.91149e-05
6.34084e-06
9.14888e-05
2.71234e-05
0.000103495
5.30702e-05
0.000111171
0.000112398
8.04504e-05
3.64797e-06
4.67845e-05
5.92679e-06
4.25999e-05
5.99548e-06
3.93531e-05
4.96216e-06
3.73283e-05
3.40525e-06
3.58548e-05
1.79536e-06
3.52507e-05
1.42163e-07
3.51645e-05
-1.01966e-06
3.62749e-05
-1.97916e-06
3.74944e-05
-2.03605e-06
3.99796e-05
-1.65216e-06
4.21166e-05
-1.53752e-06
4.33404e-05
-2.06747e-06
4.40892e-05
-3.31212e-06
4.54509e-05
-4.70287e-06
4.75227e-05
-5.83066e-06
5.10266e-05
-5.70046e-06
5.65978e-05
-3.02986e-06
6.41153e-05
3.16882e-06
7.29175e-05
1.32141e-05
8.14441e-05
2.83843e-05
8.83266e-05
4.71794e-05
9.23801e-05
9.27727e-05
6.68061e-05
2.23422e-06
4.45505e-05
3.84836e-06
4.09861e-05
4.22061e-06
3.89811e-05
3.8873e-06
3.76619e-05
3.06848e-06
3.66739e-05
2.09804e-06
3.62214e-05
1.02852e-06
3.62343e-05
2.68011e-07
3.70356e-05
-2.87552e-07
3.80503e-05
-9.9475e-08
3.97919e-05
5.71918e-07
4.14455e-05
1.15541e-06
4.27572e-05
1.35496e-06
4.38898e-05
1.18616e-06
4.56194e-05
9.00006e-07
4.78101e-05
7.50155e-07
5.11748e-05
1.77538e-06
5.55732e-05
4.94141e-06
6.09501e-05
1.06048e-05
6.7254e-05
1.8651e-05
7.34001e-05
2.96573e-05
7.73231e-05
4.33495e-05
7.86902e-05
7.81425e-05
5.79839e-05
1.50674e-06
4.30442e-05
2.78149e-06
3.97117e-05
3.25712e-06
3.85059e-05
3.19629e-06
3.77231e-05
2.71111e-06
3.71595e-05
2.01083e-06
3.69221e-05
1.25104e-06
3.69945e-05
7.02637e-07
3.75845e-05
4.00653e-07
3.83527e-05
6.38767e-07
3.95542e-05
1.24576e-06
4.0839e-05
1.8785e-06
4.21248e-05
2.32627e-06
4.34424e-05
2.69526e-06
4.52512e-05
3.04538e-06
4.7459e-05
3.65365e-06
5.05675e-05
5.44148e-06
5.37857e-05
9.05786e-06
5.73342e-05
1.44207e-05
6.18919e-05
2.14535e-05
6.6368e-05
3.02813e-05
6.84967e-05
4.08068e-05
6.81665e-05
6.68816e-05
5.20679e-05
1.17043e-06
4.1874e-05
2.0774e-06
3.8805e-05
2.46436e-06
3.81192e-05
2.52864e-06
3.76591e-05
2.33955e-06
3.73488e-05
1.98286e-06
3.72791e-05
1.57349e-06
3.74042e-05
1.27029e-06
3.7888e-05
1.10839e-06
3.85148e-05
1.30891e-06
3.9354e-05
1.84435e-06
4.03038e-05
2.45406e-06
4.15154e-05
3.03178e-06
4.28649e-05
3.7906e-06
4.44925e-05
4.77368e-06
4.64769e-05
6.45606e-06
4.88854e-05
9.0261e-06
5.12165e-05
1.25454e-05
5.38159e-05
1.74337e-05
5.70046e-05
2.39054e-05
5.98976e-05
3.14994e-05
6.09041e-05
3.99664e-05
5.97006e-05
5.78703e-05
4.89785e-05
9.04791e-07
4.09694e-05
1.57854e-06
3.81315e-05
1.98704e-06
3.77109e-05
2.23113e-06
3.74152e-05
2.32574e-06
3.72544e-05
2.32414e-06
3.72809e-05
2.26434e-06
3.74642e-05
2.25109e-06
3.79015e-05
2.28938e-06
3.84768e-05
2.45559e-06
3.91881e-05
2.82872e-06
3.9931e-05
3.40269e-06
4.09417e-05
4.07801e-06
4.21899e-05
5.11861e-06
4.34525e-05
6.64892e-06
4.49467e-05
8.88638e-06
4.6649e-05
1.15218e-05
4.85821e-05
1.47321e-05
5.06069e-05
1.91758e-05
5.25623e-05
2.48427e-05
5.42321e-05
3.12809e-05
5.44674e-05
3.81468e-05
5.28364e-05
5.06468e-05
4.53706e-05
7.313e-07
4.02383e-05
1.36968e-06
3.74933e-05
1.86717e-06
3.72136e-05
2.20047e-06
3.70821e-05
2.4402e-06
3.70149e-05
2.65933e-06
3.7062e-05
2.87109e-06
3.72527e-05
3.15357e-06
3.76192e-05
3.52254e-06
3.81081e-05
3.94684e-06
3.8764e-05
4.45523e-06
3.94229e-05
5.20143e-06
4.01958e-05
6.17742e-06
4.12142e-05
7.38777e-06
4.22424e-05
8.9516e-06
4.33837e-05
1.10245e-05
4.45769e-05
1.36876e-05
4.59201e-05
1.70228e-05
4.7273e-05
2.1167e-05
4.84195e-05
2.6129e-05
4.92717e-05
3.16379e-05
4.89599e-05
3.72598e-05
4.72158e-05
4.51282e-05
4.27792e-05
6.74156e-07
3.95643e-05
1.23139e-06
3.69362e-05
1.69034e-06
3.67549e-05
2.08005e-06
3.66926e-05
2.42456e-06
3.66706e-05
2.75034e-06
3.67364e-05
3.10195e-06
3.69013e-05
3.53786e-06
3.71835e-05
4.0718e-06
3.75744e-05
4.70724e-06
3.81288e-05
5.3936e-06
3.87368e-05
6.26156e-06
3.93281e-05
7.44881e-06
4.00272e-05
8.87772e-06
4.0814e-05
1.05859e-05
4.16759e-05
1.24962e-05
4.26676e-05
1.48664e-05
4.35511e-05
1.79429e-05
4.41977e-05
2.16307e-05
4.47331e-05
2.59165e-05
4.49874e-05
3.06485e-05
4.42293e-05
3.53492e-05
4.25165e-05
4.0698e-05
3.97801e-05
6.01778e-07
3.89627e-05
1.11892e-06
3.64192e-05
1.58776e-06
3.62862e-05
2.02908e-06
3.62515e-05
2.43521e-06
3.62646e-05
2.82939e-06
3.63424e-05
3.24892e-06
3.64819e-05
3.74457e-06
3.66881e-05
4.33493e-06
3.69843e-05
5.03682e-06
3.74272e-05
5.84341e-06
3.79304e-05
6.78766e-06
3.83841e-05
7.94113e-06
3.8874e-05
9.37361e-06
3.93818e-05
1.10887e-05
3.99616e-05
1.32074e-05
4.05496e-05
1.57883e-05
4.09714e-05
1.8661e-05
4.13263e-05
2.19206e-05
4.14747e-05
2.57e-05
4.12094e-05
2.96823e-05
4.02483e-05
3.35043e-05
3.86957e-05
3.68887e-05
3.73142e-05
6.2693e-07
3.83359e-05
1.16078e-06
3.58855e-05
1.65431e-06
3.57928e-05
2.12554e-06
3.57804e-05
2.58811e-06
3.58022e-05
3.06636e-06
3.58643e-05
3.57827e-06
3.59702e-05
4.13863e-06
3.61279e-05
4.76317e-06
3.63599e-05
5.53286e-06
3.66577e-05
6.48681e-06
3.69767e-05
7.56248e-06
3.73086e-05
8.76025e-06
3.76765e-05
1.01402e-05
3.80022e-05
1.1802e-05
3.83002e-05
1.37922e-05
3.85604e-05
1.59963e-05
3.87683e-05
1.85011e-05
3.88226e-05
2.14881e-05
3.84889e-05
2.48119e-05
3.78869e-05
2.81637e-05
3.68977e-05
3.14434e-05
3.5417e-05
3.34603e-05
3.48723e-05
5.81265e-07
3.77548e-05
1.10437e-06
3.53625e-05
1.6231e-06
3.52742e-05
2.12676e-06
3.52769e-05
2.62809e-06
3.5301e-05
3.14843e-06
3.53441e-05
3.70391e-06
3.54149e-05
4.30821e-06
3.55238e-05
4.9879e-06
3.56804e-05
5.78044e-06
3.58653e-05
6.70132e-06
3.6056e-05
7.7568e-06
3.62533e-05
9.01349e-06
3.64201e-05
1.03782e-05
3.66378e-05
1.19079e-05
3.67711e-05
1.3734e-05
3.67348e-05
1.58728e-05
3.66305e-05
1.83885e-05
3.63079e-05
2.10624e-05
3.5816e-05
2.38601e-05
3.50903e-05
2.67316e-05
3.40271e-05
2.96876e-05
3.2462e-05
3.05276e-05
3.26206e-05
5.80908e-07
3.7174e-05
1.10942e-06
3.48341e-05
1.64112e-06
3.47427e-05
2.18161e-06
3.47365e-05
2.73204e-06
3.47507e-05
3.29541e-06
3.47809e-05
3.89281e-06
3.48176e-05
4.54387e-06
3.48729e-05
5.27665e-06
3.49478e-05
6.08867e-06
3.50534e-05
6.96143e-06
3.51834e-05
7.94719e-06
3.52677e-05
9.09866e-06
3.52688e-05
1.04835e-05
3.52533e-05
1.21327e-05
3.51223e-05
1.39028e-05
3.49654e-05
1.58396e-05
3.46945e-05
1.7878e-05
3.42705e-05
2.00712e-05
3.36238e-05
2.25487e-05
3.26137e-05
2.52318e-05
3.1345e-05
2.78564e-05
2.98381e-05
2.79871e-05
3.03972e-05
5.71901e-07
3.66022e-05
1.09661e-06
3.43095e-05
1.62513e-06
3.42142e-05
2.15633e-06
3.42054e-05
2.70329e-06
3.42038e-05
3.27695e-06
3.42073e-05
3.88107e-06
3.42136e-05
4.52905e-06
3.4225e-05
5.24585e-06
3.42311e-05
6.0752e-06
3.42242e-05
7.0431e-06
3.42156e-05
8.1212e-06
3.41898e-05
9.26456e-06
3.41256e-05
1.05119e-05
3.40062e-05
1.18347e-05
3.38e-05
1.33615e-05
3.3439e-05
1.51162e-05
3.29406e-05
1.70915e-05
3.22959e-05
1.92761e-05
3.144e-05
2.14807e-05
3.041e-05
2.36548e-05
2.91716e-05
2.59205e-05
2.75732e-05
2.56801e-05
2.82277e-05
5.74526e-07
3.60277e-05
1.11223e-06
3.37719e-05
1.65752e-06
3.3669e-05
2.20925e-06
3.36537e-05
2.77548e-06
3.36377e-05
3.36724e-06
3.36157e-05
3.9894e-06
3.35915e-05
4.65298e-06
3.35615e-05
5.36547e-06
3.35187e-05
6.1274e-06
3.34624e-05
6.95592e-06
3.33872e-05
7.88708e-06
3.32587e-05
8.94953e-06
3.30633e-05
1.01605e-05
3.27954e-05
1.15467e-05
3.24141e-05
1.3087e-05
3.18993e-05
1.47062e-05
3.1322e-05
1.64116e-05
3.05912e-05
1.81549e-05
2.96974e-05
2.00241e-05
2.85414e-05
2.20569e-05
2.71394e-05
2.40943e-05
2.55364e-05
2.36949e-05
2.60797e-05
5.50118e-07
3.54777e-05
1.06616e-06
3.32559e-05
1.59575e-06
3.31395e-05
2.13558e-06
3.3114e-05
2.68988e-06
3.30835e-05
3.26623e-06
3.30394e-05
3.87326e-06
3.29846e-05
4.52167e-06
3.29132e-05
5.22143e-06
3.2819e-05
5.99301e-06
3.26909e-05
6.86438e-06
3.25159e-05
7.81903e-06
3.23042e-05
8.85318e-06
3.20293e-05
9.97653e-06
3.16722e-05
1.11704e-05
3.12206e-05
1.24222e-05
3.06478e-05
1.38055e-05
2.99391e-05
1.53238e-05
2.90735e-05
1.69923e-05
2.80294e-05
1.87185e-05
2.68159e-05
2.04459e-05
2.54125e-05
2.22044e-05
2.37785e-05
2.19241e-05
2.39753e-05
5.54339e-07
3.49234e-05
1.0824e-06
3.2728e-05
1.6218e-06
3.26002e-05
2.16492e-06
3.25709e-05
2.71873e-06
3.25297e-05
3.28459e-06
3.24736e-05
3.86985e-06
3.23994e-05
4.48416e-06
3.2299e-05
5.13866e-06
3.21646e-05
5.84256e-06
3.19871e-05
6.59915e-06
3.17594e-05
7.42792e-06
3.14755e-05
8.34609e-06
3.11113e-05
9.36178e-06
3.06567e-05
1.04793e-05
3.01032e-05
1.17054e-05
2.94221e-05
1.30179e-05
2.86271e-05
1.43778e-05
2.77141e-05
1.57806e-05
2.6627e-05
1.72455e-05
2.53514e-05
1.87814e-05
2.3877e-05
2.03389e-05
2.22214e-05
2.0377e-05
2.18861e-05
5.27822e-07
3.43956e-05
1.03596e-06
3.22199e-05
1.55579e-06
3.20804e-05
2.07927e-06
3.20475e-05
2.61261e-06
3.19964e-05
3.15864e-06
3.19276e-05
3.72351e-06
3.18346e-05
4.31501e-06
3.17075e-05
4.94026e-06
3.15394e-05
5.61031e-06
3.13171e-05
6.33217e-06
3.10376e-05
7.11962e-06
3.06881e-05
7.97253e-06
3.02584e-05
8.88813e-06
2.97412e-05
9.8688e-06
2.91229e-05
1.09106e-05
2.83804e-05
1.20179e-05
2.75202e-05
1.32127e-05
2.65196e-05
1.44788e-05
2.53613e-05
1.57875e-05
2.40431e-05
1.71134e-05
2.25514e-05
1.8461e-05
2.08742e-05
1.9024e-05
1.98139e-05
5.27533e-07
3.38682e-05
1.03079e-06
3.17167e-05
1.54047e-06
3.15708e-05
2.0501e-06
3.15379e-05
2.56526e-06
3.14813e-05
3.08816e-06
3.14048e-05
3.62099e-06
3.13018e-05
4.16837e-06
3.11602e-05
4.73784e-06
3.097e-05
5.34377e-06
3.07112e-05
5.98686e-06
3.03945e-05
6.67745e-06
2.99976e-05
7.42791e-06
2.9508e-05
8.24009e-06
2.89292e-05
9.11297e-06
2.825e-05
1.00429e-05
2.74508e-05
1.10291e-05
2.65342e-05
1.20705e-05
2.54784e-05
1.31527e-05
2.42794e-05
1.4273e-05
2.2923e-05
1.54215e-05
2.14031e-05
1.65883e-05
1.97076e-05
1.78551e-05
1.77572e-05
5.10799e-07
3.33574e-05
9.91684e-07
3.12358e-05
1.47846e-06
3.1084e-05
1.96237e-06
3.1054e-05
2.45144e-06
3.09923e-05
2.95102e-06
3.09052e-05
3.46591e-06
3.07869e-05
3.99698e-06
3.06292e-05
4.53911e-06
3.04279e-05
5.09103e-06
3.01593e-05
5.65992e-06
2.98256e-05
6.2535e-06
2.9404e-05
6.88485e-06
2.88767e-05
7.56643e-06
2.82476e-05
8.30943e-06
2.75072e-05
9.10863e-06
2.66516e-05
9.96068e-06
2.56823e-05
1.08524e-05
2.45868e-05
1.178e-05
2.33519e-05
1.27407e-05
2.19625e-05
1.37214e-05
2.04225e-05
1.47104e-05
1.87188e-05
1.68579e-05
1.57074e-05
5.03406e-07
3.2854e-05
9.39467e-07
3.07998e-05
1.38178e-06
3.06417e-05
1.82648e-06
3.06094e-05
2.28057e-06
3.05382e-05
2.7501e-06
3.04357e-05
3.23995e-06
3.02971e-05
3.74261e-06
3.01265e-05
4.2583e-06
2.99122e-05
4.77582e-06
2.96418e-05
5.3036e-06
2.92979e-05
5.84258e-06
2.8865e-05
6.39286e-06
2.83264e-05
6.95846e-06
2.7682e-05
7.54715e-06
2.69184e-05
8.17018e-06
2.60287e-05
8.84969e-06
2.50028e-05
9.59526e-06
2.38413e-05
1.0383e-05
2.25642e-05
1.11884e-05
2.11571e-05
1.20075e-05
1.96035e-05
1.28328e-05
1.78935e-05
1.6027e-05
1.36637e-05
4.8759e-07
3.23664e-05
8.54922e-07
3.04325e-05
1.22415e-06
3.02725e-05
1.60455e-06
3.0229e-05
1.99743e-06
3.01454e-05
2.40676e-06
3.00264e-05
2.84093e-06
2.9863e-05
3.29614e-06
2.96713e-05
3.77419e-06
2.94341e-05
4.26737e-06
2.91486e-05
4.76956e-06
2.87957e-05
5.27362e-06
2.8361e-05
5.77342e-06
2.78266e-05
6.27449e-06
2.71809e-05
6.78164e-06
2.64114e-05
7.30144e-06
2.55087e-05
7.83124e-06
2.44731e-05
8.37229e-06
2.33002e-05
8.95749e-06
2.19789e-05
9.60707e-06
2.05075e-05
1.02831e-05
1.89274e-05
1.09543e-05
1.72222e-05
1.53584e-05
1.16228e-05
4.35865e-07
3.19306e-05
6.75082e-07
3.01933e-05
9.14971e-07
3.00327e-05
1.18181e-06
2.99622e-05
1.46835e-06
2.98588e-05
1.78062e-06
2.97141e-05
2.122e-06
2.95216e-05
2.50254e-06
2.92908e-05
2.9226e-06
2.90141e-05
3.37823e-06
2.86929e-05
3.85506e-06
2.83188e-05
4.33544e-06
2.78805e-05
4.82125e-06
2.73408e-05
5.31994e-06
2.66822e-05
5.81109e-06
2.592e-05
6.29239e-06
2.50275e-05
6.75748e-06
2.40078e-05
7.20876e-06
2.28488e-05
7.65338e-06
2.15342e-05
8.08807e-06
2.00727e-05
8.55237e-06
1.8463e-05
9.06815e-06
1.67064e-05
1.48426e-05
9.58359e-06
3.22945e-07
3.16076e-05
3.66792e-07
3.01494e-05
3.9642e-07
3.0003e-05
4.80195e-07
2.98784e-05
6.00927e-07
2.97381e-05
7.61793e-07
2.95533e-05
9.65702e-07
2.93177e-05
1.22686e-06
2.90297e-05
1.55035e-06
2.86906e-05
1.94349e-06
2.82998e-05
2.40206e-06
2.78602e-05
2.90906e-06
2.73735e-05
3.43173e-06
2.6818e-05