/*--------------------------------*- C++ -*----------------------------------*\
| =========                 |                                                 |
| \\      /  F ield         | OpenFOAM: The Open Source CFD Toolbox           |
|  \\    /   O peration     | Version:  2.4.0                                 |
|   \\  /    A nd           | Web:      www.OpenFOAM.org                      |
|    \\/     M anipulation  |                                                 |
\*---------------------------------------------------------------------------*/
FoamFile
{
    version     2.0;
    format      ascii;
    class       surfaceScalarField;
    location    "0.75";
    object      phi.oil;
}
// * * * * * * * * * * * * * * * * * * * * * * * * * * * * * * * * * * * * * //

dimensions      [0 3 -1 0 0 0 0];

internalField   nonuniform List<scalar> 
4432
(
1.70272e-06
-1.70225e-06
3.70963e-06
-2.00627e-06
4.84378e-06
-1.13401e-06
6.02289e-06
-1.17899e-06
7.51613e-06
-1.49313e-06
7.79035e-06
-2.74205e-07
6.89773e-06
8.92662e-07
4.29023e-06
2.6076e-06
1.32102e-07
4.15828e-06
-4.66756e-06
4.79977e-06
-9.1339e-06
4.46637e-06
-1.33001e-05
4.1663e-06
-1.60424e-05
2.74227e-06
-1.6505e-05
4.62641e-07
-1.53335e-05
-1.17133e-06
-1.35818e-05
-1.75148e-06
-1.19929e-05
-1.58797e-06
-1.0451e-05
-1.53922e-06
-8.88951e-06
-1.55542e-06
-6.34962e-06
-2.5197e-06
-4.22719e-06
-1.88089e-06
-3.47556e-06
3.84792e-07
-1.46403e-06
1.73103e-06
-3.09838e-06
3.48469e-06
-3.42038e-06
4.98876e-06
-2.31664e-06
6.38504e-06
-2.25813e-06
7.60994e-06
-2.41289e-06
8.47665e-06
-9.19217e-07
8.03523e-06
1.39953e-06
5.8703e-06
4.77532e-06
1.47555e-06
8.55319e-06
-4.62489e-06
1.09004e-05
-1.03387e-05
1.01804e-05
-1.45012e-05
8.32884e-06
-1.66086e-05
4.84985e-06
-1.66943e-05
5.48402e-07
-1.53386e-05
-2.52705e-06
-1.34928e-05
-3.5972e-06
-1.17453e-05
-3.33493e-06
-1.01619e-05
-3.12092e-06
-8.26902e-06
-3.44471e-06
-5.91313e-06
-4.86975e-06
-3.64085e-06
-4.23674e-06
-2.06751e-06
-1.49505e-06
-3.33743e-06
1.77562e-06
-1.25726e-05
3.10837e-06
-1.25357e-05
5.18801e-06
-1.16218e-05
6.6557e-06
-1.0786e-05
7.14488e-06
-9.61096e-06
7.11346e-06
-6.16494e-06
6.17553e-06
-7.85558e-07
4.40902e-06
4.82738e-06
5.24964e-07
1.23003e-05
-5.06469e-06
1.6586e-05
-1.0225e-05
1.5342e-05
-1.38649e-05
1.19687e-05
-1.6041e-05
7.02598e-06
-1.65475e-05
1.05499e-06
-1.56396e-05
-3.43504e-06
-1.40231e-05
-5.21356e-06
-1.20351e-05
-5.32223e-06
-1.00896e-05
-5.06333e-06
-7.72946e-06
-5.79356e-06
-5.32616e-06
-7.24005e-06
-2.86161e-06
-6.67372e-06
-7.38272e-07
-3.91453e-06
-4.13505e-06
1.74642e-06
-1.58287e-05
2.66412e-06
-1.51757e-05
4.99072e-06
-1.5915e-05
6.3951e-06
-1.47151e-05
6.43066e-06
-1.33657e-05
6.77519e-06
-1.28707e-05
7.77295e-06
-1.74086e-05
6.69485e-06
-9.44062e-06
-1.8269e-07
6.44003e-06
-7.41914e-06
2.06438e-05
-1.20308e-05
2.02047e-05
-1.4959e-05
1.49055e-05
-1.65774e-05
8.64446e-06
-1.67704e-05
1.24792e-06
-1.58312e-05
-4.37425e-06
-1.3928e-05
-7.11545e-06
-1.14519e-05
-7.78949e-06
-9.19753e-06
-7.29304e-06
-7.28713e-06
-7.62263e-06
-6.13306e-06
-8.2179e-06
-3.95946e-06
-8.50402e-06
-1.19627e-06
-6.2923e-06
-5.28797e-06
6.42412e-07
-7.581e-06
1.41941e-06
-6.701e-06
1.11945e-06
-6.72832e-06
7.80579e-07
-4.96295e-06
3.8118e-07
-2.68407e-06
8.44267e-07
-1.67154e-06
2.45455e-06
1.36621e-07
2.76121e-06
4.31388e-06
-3.13437e-06
5.51903e-06
-1.31109e-05
1.96253e-05
-1.84592e-05
2.34745e-05
-1.98776e-05
1.65412e-05
-1.96302e-05
8.40261e-06
-1.84953e-05
1.13902e-07
-1.6519e-05
-6.31343e-06
-1.38363e-05
-9.62655e-06
-1.05809e-05
-1.06641e-05
-7.87778e-06
-9.47743e-06
-6.63993e-06
-8.44469e-06
-6.45498e-06
-8.06113e-06
-5.24223e-06
-9.36437e-06
-2.25684e-06
-8.9733e-06
-7.46534e-06
1.29411e-07
-7.71051e-06
6.60195e-08
-6.6377e-06
-5.83426e-07
-6.07904e-06
-2.48264e-06
-3.06397e-06
-5.64715e-06
4.80205e-07
-9.09189e-06
1.77455e-06
-1.25779e-05
3.75396e-06
-1.27328e-05
9.61724e-06
-1.14217e-05
2.30615e-05
-1.94011e-05
2.46896e-05
-2.4956e-05
2.22661e-05
-2.51929e-05
1.65298e-05
-2.41327e-05
7.4236e-06
-2.32314e-05
-5.73059e-07
-2.03328e-05
-8.28674e-06
-1.59678e-05
-1.25026e-05
-1.10173e-05
-1.40456e-05
-7.54684e-06
-1.1996e-05
-6.35126e-06
-9.12825e-06
-6.37058e-06
-7.74704e-06
-5.78314e-06
-9.8124e-06
-3.49468e-06
-1.13626e-05
-1.15695e-05
1.65176e-07
-7.87584e-06
2.70457e-07
-6.74326e-06
-7.93784e-08
-5.72953e-06
-1.23645e-06
-1.90738e-06
-2.63177e-06
1.87554e-06
-4.62801e-06
3.76424e-06
-8.9163e-06
8.03971e-06
-1.55054e-05
1.61757e-05
-2.43073e-05
3.05644e-05
-3.18846e-05
3.35518e-05
-3.42072e-05
1.89998e-05
-3.26911e-05
1.24367e-05
-2.95533e-05
4.72362e-06
-2.72019e-05
-1.46898e-06
-2.4548e-05
-8.92454e-06
-1.96051e-05
-1.63164e-05
-1.37716e-05
-2.10463e-05
-9.46314e-06
-1.90857e-05
-7.00401e-06
-1.4482e-05
-5.71695e-06
-1.17461e-05
-4.85847e-06
-1.43321e-05
-3.49224e-06
-1.68004e-05
-1.39958e-05
3.37219e-07
-8.21304e-06
4.49653e-07
-6.85106e-06
-1.98409e-07
-5.04522e-06
-1.55064e-06
-5.0723e-07
-4.01171e-06
4.42742e-06
-6.88278e-06
7.60446e-06
-9.94665e-06
1.26937e-05
-1.30812e-05
2.05588e-05
-2.02878e-05
3.63308e-05
-3.23082e-05
4.51787e-05
-3.93737e-05
2.34937e-05
-3.97939e-05
7.30421e-06
-3.78654e-05
7.26638e-07
-3.3952e-05
-7.72263e-06
-2.72522e-05
-1.88242e-05
-2.12123e-05
-2.41681e-05
-1.72346e-05
-1.92166e-05
-1.37787e-05
-5.12203e-06
-8.9819e-06
1.2618e-05
-3.87842e-06
2.38964e-05
-2.79636e-06
2.9753e-05
-2.53776e-06
2.7087e-05
1.68524e-05
-7.70114e-06
5.78167e-05
2.30875e-06
3.54873e-05
2.1185e-05
2.96766e-05
3.39831e-05
3.22445e-05
3.99902e-05
3.61991e-05
4.35625e-05
3.89939e-05
4.64254e-05
4.01247e-05
5.01854e-05
3.97379e-05
5.45562e-05
3.89344e-05
5.88357e-05
3.89834e-05
6.19745e-05
4.04358e-05
6.38276e-05
4.30629e-05
6.24313e-05
4.8146e-05
5.53075e-05
5.44875e-05
3.95855e-05
6.51177e-05
1.79946e-05
7.15779e-05
2.86224e-06
7.04448e-05
-3.21418e-06
5.89141e-05
3.94415e-05
3.29365e-06
2.95152e-05
2.5123e-05
-1.21954e-05
4.19045e-05
-1.53902e-06
4.86803e-05
1.1324e-05
5.05059e-05
2.19459e-05
5.18728e-05
2.47735e-05
5.34555e-05
2.305e-05
5.49294e-05
2.08226e-05
5.71056e-05
1.89759e-05
5.99024e-05
1.82102e-05
6.19378e-05
1.91052e-05
6.20954e-05
2.44135e-05
6.15364e-05
2.50887e-05
5.82575e-05
2.85809e-05
4.37509e-05
4.37911e-05
2.5544e-05
6.24211e-05
1.39391e-05
6.26454e-05
-1.7173e-06
4.69031e-05
2.0033e-05
1.6983e-05
2.99453e-05
4.01487e-05
-4.37665e-05
6.16905e-05
-3.24529e-05
7.09838e-05
-1.07683e-05
7.15076e-05
4.49566e-08
7.16839e-05
2.71556e-06
6.9472e-05
4.33222e-06
6.63448e-05
4.76342e-06
6.12136e-05
5.0696e-06
5.52301e-05
5.621e-06
4.91322e-05
6.66881e-06
3.98769e-05
1.20722e-05
3.34024e-05
1.20306e-05
3.00616e-05
1.34492e-05
2.25881e-05
4.27731e-05
2.05914e-05
7.12908e-05
1.16737e-05
8.85347e-05
4.95111e-07
8.07568e-05
3.13017e-05
3.59727e-05
-1.93929e-05
4.49565e-05
-5.08289e-05
5.08569e-05
-3.39716e-05
5.46484e-05
-1.30223e-05
6.04492e-05
-6.01264e-06
6.38466e-05
6.69835e-07
6.46779e-05
9.1587e-06
6.3355e-05
1.38438e-05
6.03388e-05
1.52213e-05
5.40959e-05
1.39764e-05
4.85111e-05
1.85724e-05
4.13555e-05
2.49249e-05
3.21091e-05
2.22455e-05
1.61876e-05
2.48279e-05
-1.73867e-06
3.96817e-05
7.64984e-06
4.40023e-05
1.0579e-05
8.67559e-05
3.62943e-06
8.91964e-05
2.64013e-05
2.92236e-05
-4.23789e-05
3.86441e-05
-5.33927e-05
4.0301e-05
-3.65808e-05
4.41309e-05
-1.95801e-05
4.88498e-05
-8.30786e-06
5.0448e-05
2.84774e-06
5.11643e-05
7.68598e-06
5.26871e-05
9.02263e-06
5.35222e-05
9.61741e-06
5.37541e-05
1.16744e-05
4.88707e-05
1.7772e-05
4.08556e-05
2.93991e-05
2.72411e-05
3.67522e-05
5.5769e-06
4.77007e-05
-1.4629e-05
5.70712e-05
-1.58547e-05
3.06201e-05
6.4978e-06
6.13893e-05
6.52765e-06
8.66005e-05
3.93982e-05
2.03596e-05
-6.16651e-05
3.00975e-05
-5.91436e-05
2.91589e-05
-3.823e-05
3.26107e-05
-2.50858e-05
3.87271e-05
-1.61927e-05
4.21667e-05
-3.5891e-06
4.3631e-05
5.39015e-06
4.34256e-05
7.85435e-06
4.3138e-05
8.69804e-06
4.42357e-05
1.13342e-05
4.43353e-05
1.89397e-05
3.94703e-05
3.51664e-05
2.63561e-05
5.25891e-05
6.73702e-06
6.9682e-05
-1.46659e-05
7.82409e-05
-1.95521e-05
2.85771e-05
6.62109e-08
4.77719e-05
6.56317e-06
7.92007e-05
4.45243e-05
1.83403e-05
-8.93358e-05
2.24879e-05
-6.47798e-05
1.95092e-05
-3.94444e-05
2.31881e-05
-3.09041e-05
3.02083e-05
-2.56784e-05
3.53691e-05
-1.11738e-05
3.8148e-05
4.33003e-07
3.86284e-05
8.75308e-06
3.78202e-05
1.42721e-05
3.78509e-05
1.67827e-05
3.88127e-05
2.20396e-05
3.71735e-05
3.76158e-05
2.71315e-05
6.35109e-05
9.81896e-06
8.94166e-05
-1.3118e-05
0.000102444
-2.42132e-05
3.75433e-05
-1.16539e-05
3.98076e-05
6.02533e-06
6.19755e-05
3.55582e-05
1.49374e-05
-0.000119683
1.0408e-05
-8.16303e-05
5.14743e-06
-4.28101e-05
1.07908e-05
-3.94183e-05
2.24368e-05
-4.12215e-05
3.22565e-05
-2.53845e-05
3.65081e-05
-6.68255e-06
3.74606e-05
6.11769e-06
3.52721e-05
1.43143e-05
3.1664e-05
1.72304e-05
3.02502e-05
2.19946e-05
3.1588e-05
3.63078e-05
2.66695e-05
6.82061e-05
1.32953e-05
0.0001043
-7.74383e-06
0.000124621
-2.60642e-05
5.07994e-05
-2.11934e-05
3.41681e-05
-2.66386e-06
3.70568e-05
2.40418e-05
1.94389e-06
-1.01551e-05
4.5004e-06
-9.33812e-06
7.72728e-06
-1.34896e-06
7.10246e-06
2.61899e-06
2.38231e-06
7.75786e-06
-3.74308e-06
1.32613e-05
-1.30356e-05
1.81913e-05
-2.26496e-05
2.2513e-05
-2.66133e-05
2.77017e-05
-3.06338e-05
3.91486e-05
-4.1125e-05
4.30543e-05
-5.25669e-05
1.56768e-05
-5.53728e-05
-6.47297e-06
-4.97128e-05
-2.81567e-05
-3.98699e-05
-3.47491e-05
-3.39273e-05
-1.9015e-05
-2.74082e-05
-1.93361e-05
-1.76013e-05
-2.53776e-05
-8.81326e-06
-1.57375e-05
-1.88564e-06
-2.62121e-06
-3.49133e-06
6.13369e-06
-9.27856e-06
9.81235e-06
4.70018e-06
-1.73681e-05
3.6016e-06
-1.36873e-05
5.20041e-06
-3.101e-06
9.44706e-06
6.37861e-07
7.27335e-06
1.47149e-05
2.32543e-06
2.28687e-05
-1.5708e-06
3.27801e-05
-4.31271e-06
3.94044e-05
-5.21079e-06
4.06491e-05
-3.14122e-06
3.7936e-05
6.72853e-06
3.67441e-05
1.85927e-05
3.05925e-05
2.4374e-05
1.666e-05
2.70563e-05
3.47624e-06
1.86901e-05
-6.37769e-06
2.24631e-05
-1.89575e-05
2.65055e-05
-2.54828e-05
3.23104e-05
-2.56756e-05
3.60741e-05
-2.3343e-05
3.60771e-05
-1.94175e-05
3.49656e-05
-1.24924e-05
4.26399e-05
-7.26319e-06
5.26928e-05
-5.89549e-06
-8.10912e-06
5.49346e-05
2.97558e-06
-6.91649e-06
1.33455e-05
-9.52e-06
1.89051e-05
-5.12194e-06
1.75938e-05
1.5272e-05
9.15937e-06
3.32395e-05
-2.04554e-06
4.17252e-05
-9.7816e-06
4.45505e-05
-1.09428e-05
4.44342e-05
-6.0415e-06
4.38681e-05
4.13627e-06
4.24276e-05
1.6706e-05
3.70648e-05
2.34912e-05
2.54198e-05
3.02245e-05
8.63949e-06
3.08796e-05
-7.34878e-06
3.32795e-05
-1.65023e-05
3.845e-05
-2.49837e-05
4.60117e-05
-3.28703e-05
5.57526e-05
-4.19457e-05
5.86901e-05
-4.82784e-05
4.26804e-05
-4.44669e-05
3.14092e-05
-1.81173e-05
3.50794e-05
-1.01116e-05
-2.23821e-06
2.50085e-05
3.02259e-06
-9.89091e-06
1.39139e-05
-2.0415e-05
1.03986e-05
-6.96207e-06
4.87159e-07
1.82403e-05
-8.87089e-06
3.64214e-05
-1.59238e-05
4.31495e-05
-1.88176e-05
4.24791e-05
-1.81744e-05
4.04059e-05
-1.35884e-05
3.72229e-05
-6.90362e-06
3.48e-05
2.85274e-06
2.66423e-05
1.08914e-05
1.64064e-05
1.6005e-05
-1.61753e-06
2.19238e-05
-2.04167e-05
2.74851e-05
-3.99545e-05
3.03947e-05
-6.56517e-05
3.18113e-05
-8.46726e-05
3.51652e-05
-0.000102073
4.10838e-05
-0.000114135
3.04157e-05
-5.77505e-05
-1.0766e-05
-7.17282e-06
-7.47921e-05
3.00263e-05
5.59172e-05
-0.000140577
-8.67322e-06
-4.32188e-06
-2.77769e-05
-7.41145e-06
-5.70436e-05
2.38654e-06
-7.93827e-05
9.91636e-06
-8.30574e-05
8.45689e-06
-7.06722e-05
4.6127e-06
-5.51365e-05
5.8799e-06
-4.49834e-05
1.34771e-05
-3.34169e-05
1.05071e-05
-2.27415e-05
8.14088e-06
-1.25125e-05
-6.76393e-06
-7.35667e-06
-2.87911e-05
-6.43487e-06
-5.56696e-05
-4.38695e-06
-8.05239e-05
-1.7292e-06
-0.000119065
3.9255e-06
-0.00017249
8.00306e-06
-8.72163e-05
1.37359e-05
-6.4486e-05
-4.3337e-05
-5.53085e-05
-0.000116506
1.94361e-06
-0.000128248
2.56349e-05
-0.000154807
4.23259e-05
6.1834e-05
-0.000165664
-4.23771e-05
-3.59628e-05
-8.32472e-05
-2.28195e-05
-0.000102446
-3.32043e-05
-0.000109682
-4.51692e-05
-0.00010895
-5.02999e-05
-9.8258e-05
-5.9275e-05
-8.67809e-05
-5.67083e-05
-7.71647e-05
-4.94661e-05
-6.71462e-05
-5.43156e-05
-5.85178e-05
-5.79066e-05
-5.51337e-05
-6.94384e-05
-5.25196e-05
-8.8325e-05
-4.54698e-05
-8.49531e-05
-4.54629e-05
-6.50398e-05
-6.79101e-05
-9.09633e-05
-6.31544e-05
-9.89775e-05
-0.000100741
-3.35223e-05
-8.40513e-05
-4.4968e-05
-0.000147971
5.91263e-06
-0.000154629
1.56182e-05
-0.000145828
1.41817e-05
-0.000149699
1.98627e-05
3.36983e-05
-0.000156688
-6.66575e-05
-7.4352e-05
-9.2467e-05
-5.30616e-05
-0.000115413
-6.83952e-05
-0.000117654
-7.4721e-05
-0.000109607
-7.08684e-05
-9.43979e-05
-4.36426e-05
-7.91165e-05
-5.49902e-05
-7.74867e-05
-6.42663e-05
-7.46641e-05
-7.25634e-05
-7.03901e-05
-7.3177e-05
-6.63673e-05
-6.74767e-05
-6.46298e-05
-5.12494e-05
-6.85378e-05
-3.84616e-05
-0.000128128
-3.69168e-05
-8.50928e-05
-5.54795e-05
-5.393e-05
-3.5388e-05
-4.90037e-05
-3.29802e-05
-8.79746e-05
-2.12929e-05
-0.000161266
9.79494e-06
-0.000177704
1.08243e-06
-0.00015518
-1.08699e-06
-0.000150478
1.15512e-06
9.20983e-06
-0.000173177
-6.97154e-05
-5.4369e-05
-8.81357e-05
-2.66018e-05
-0.000101183
-2.89913e-05
-8.68726e-05
-3.56503e-05
-3.77836e-05
-5.90081e-05
-2.49905e-05
-3.13521e-05
-3.43142e-05
-4.21075e-05
-5.10583e-05
-4.06894e-05
-6.35322e-05
-3.48791e-05
-5.23482e-05
-3.33159e-05
-2.65368e-05
-3.19011e-05
-1.29215e-05
-4.48676e-06
1.63333e-06
-2.35678e-05
-4.72148e-06
-2.83082e-05
-2.95179e-05
-2.08011e-05
-4.80148e-05
-1.71611e-05
-6.81015e-05
-1.48341e-05
-0.000100527
-9.87689e-06
-0.000161914
2.13744e-05
-0.000196374
1.52438e-05
-0.000165527
7.23802e-06
-0.000151687
2.56242e-06
7.19738e-06
-0.000173517
-1.91915e-05
3.05249e-05
-8.80184e-06
4.09846e-05
1.00973e-05
5.58675e-05
2.42248e-05
2.85703e-05
2.35233e-05
-7.4884e-06
1.90127e-05
-2.43692e-05
9.64335e-06
-6.85133e-06
-2.81611e-05
4.84985e-05
-2.86712e-05
5.39777e-05
-3.07466e-05
5.36931e-05
-4.93844e-05
4.81426e-05
-4.91977e-05
1.53151e-05
-5.04628e-05
-2.27117e-05
-6.24099e-05
-2.15954e-05
-7.27533e-05
-1.52442e-05
-7.5451e-05
-1.53599e-05
-8.25689e-05
-8.10458e-06
-9.51658e-05
5.85459e-06
-0.000147714
3.53918e-05
-0.000186702
4.91163e-05
-0.000177369
5.8969e-05
-0.000163478
6.47606e-05
8.19107e-05
-0.000171962
1.16765e-06
8.96665e-05
1.22743e-05
8.67566e-05
5.97683e-06
6.42915e-05
1.57599e-06
3.03764e-05
6.69862e-06
-1.73037e-05
-1.44582e-06
-1.86499e-05
4.60682e-06
-1.27212e-05
6.81165e-06
4.59228e-05
-8.93987e-06
7.00875e-05
-1.81183e-05
6.29224e-05
-1.1994e-05
4.20013e-05
-3.03749e-06
6.47957e-06
-1.44104e-05
-1.22036e-05
-1.76366e-05
-1.66386e-05
-2.06645e-05
-1.0209e-05
-3.41953e-05
-7.94473e-07
-5.80274e-05
1.25438e-05
-9.11e-05
3.42235e-05
-0.000129065
5.71682e-05
-0.000157924
0.000106492
-0.000199332
0.000178669
-0.000240438
0.000218423
0.00026967
-0.000247624
-2.18277e-06
9.22854e-05
1.3972e-05
7.31959e-05
2.93922e-05
4.96045e-05
4.06516e-05
2.02537e-05
2.08657e-05
4.27832e-06
-4.17384e-07
2.52282e-06
-1.40707e-05
1.37789e-06
-7.38217e-06
3.89394e-05
-9.87627e-08
6.26214e-05
8.65876e-06
5.42666e-05
2.01431e-05
3.01548e-05
1.10445e-05
1.42652e-05
-1.31472e-05
1.16071e-05
-3.05391e-05
4.28957e-06
-4.67124e-05
6.60604e-06
-5.82814e-05
1.33408e-05
-7.43097e-05
2.86373e-05
-9.29828e-05
5.62341e-05
-0.000117197
9.54747e-05
-0.000145746
0.000139449
-0.000178394
0.000203142
-0.000203563
0.000243532
0.000264466
-0.000184286
1.82276e-06
9.14191e-05
1.24787e-05
6.27788e-05
1.7365e-05
4.46718e-05
1.18738e-05
2.5687e-05
6.72178e-06
8.94483e-06
8.47099e-07
8.30201e-06
-2.06275e-06
3.99964e-06
1.15276e-06
3.56395e-05
8.35305e-06
5.55092e-05
1.12256e-05
5.11814e-05
6.70888e-06
3.50122e-05
1.17308e-06
2.03329e-05
-5.95667e-06
1.81206e-05
-1.75308e-05
1.31277e-05
-2.86272e-05
1.50735e-05
-4.31199e-05
2.62349e-05
-5.74943e-05
4.2713e-05
-7.05724e-05
6.91822e-05
-8.15092e-05
0.000110048
-9.09405e-05
0.000159087
-9.55014e-05
0.000208151
-8.71225e-05
0.000241029
0.00024265
-5.55692e-05
1.07442e-05
8.07456e-05
1.66172e-05
5.70039e-05
2.12076e-05
4.00927e-05
2.07122e-05
2.62914e-05
1.03965e-05
1.92848e-05
-5.51104e-07
1.92246e-05
-1.37848e-05
1.74074e-05
-6.85718e-06
2.88538e-05
6.86612e-06
4.19955e-05
1.36922e-05
4.42605e-05
1.08783e-05
3.78166e-05
-2.49597e-07
3.17616e-05
-1.18244e-05
3.01807e-05
-2.50463e-05
2.82317e-05
-3.69457e-05
3.03181e-05
-4.65924e-05
3.6688e-05
-5.28453e-05
4.92917e-05
-5.4663e-05
7.15475e-05
-4.89639e-05
0.000104868
-3.31136e-05
0.000144981
-5.42898e-06
0.000187746
2.72711e-05
0.000212552
0.000211386
6.20418e-05
1.39282e-05
6.6785e-05
1.81137e-05
5.28483e-05
1.9162e-05
3.90593e-05
1.5077e-05
3.03895e-05
7.78292e-06
2.65786e-05
7.91222e-07
2.62138e-05
-7.20739e-06
2.53876e-05
-8.84755e-06
3.05455e-05
-2.32965e-06
3.55391e-05
1.43306e-06
4.04505e-05
-2.18933e-06
4.15648e-05
-9.50501e-06
3.89688e-05
-1.61173e-05
3.67392e-05
-2.27064e-05
3.48077e-05
-2.9226e-05
3.68527e-05
-3.57046e-05
4.32776e-05
-4.14854e-05
5.49871e-05
-4.19197e-05
7.19894e-05
-3.24282e-05
9.56107e-05
-9.98406e-06
0.000123183
2.49982e-05
0.000152509
6.61278e-05
0.000172611
0.000174783
0.000101663
1.01561e-05
5.66111e-05
1.47857e-05
4.82261e-05
1.4653e-05
3.91994e-05
1.08504e-05
3.4193e-05
5.96397e-06
3.14654e-05
1.34923e-06
3.08288e-05
-3.78917e-06
3.05288e-05
-6.30195e-06
3.30773e-05
-5.98604e-06
3.52498e-05
-5.31864e-06
3.98687e-05
-6.28157e-06
4.27094e-05
-9.65986e-06
4.24096e-05
-1.41738e-05
4.12396e-05
-2.01965e-05
4.06614e-05
-2.58269e-05
4.21979e-05
-2.92365e-05
4.66824e-05
-3.0572e-05
5.6053e-05
-2.82325e-05
6.96449e-05
-1.91902e-05
8.66162e-05
-1.31203e-06
0.000105277
2.74149e-05
0.000124503
6.228e-05
0.00013744
0.000140142
9.66823e-05
6.17354e-06
5.04325e-05
9.52349e-06
4.48784e-05
9.30215e-06
3.94215e-05
7.20078e-06
3.62947e-05
4.36898e-06
3.42976e-05
1.55757e-06
3.36405e-05
-1.42414e-06
3.3511e-05
-3.45762e-06
3.51125e-05
-4.73375e-06
3.65339e-05
-4.76446e-06
3.99208e-05
-4.5215e-06
4.24981e-05
-5.5481e-06
4.34433e-05
-7.82764e-06
4.35067e-05
-1.12138e-05
4.39905e-05
-1.47291e-05
4.56725e-05
-1.74344e-05
4.94347e-05
-1.79731e-05
5.64619e-05
-1.50316e-05
6.66485e-05
-7.45719e-06
7.90535e-05
6.24917e-06
9.14755e-05
2.73081e-05
0.000103523
5.31001e-05
0.000111357
0.00011264
8.02273e-05
3.64792e-06
4.67845e-05
5.92678e-06
4.25999e-05
5.99548e-06
3.93531e-05
4.96216e-06
3.73283e-05
3.40525e-06
3.58548e-05
1.79535e-06
3.52507e-05
1.42139e-07
3.51645e-05
-1.0197e-06
3.62747e-05
-1.97922e-06
3.74941e-05
-2.03604e-06
3.9979e-05
-1.65192e-06
4.21157e-05
-1.5385e-06
4.33354e-05
-2.08765e-06
4.40524e-05
-3.35906e-06
4.52699e-05
-4.72641e-06
4.70532e-05
-5.83256e-06
5.05932e-05
-5.73605e-06
5.63348e-05
-3.08235e-06
6.39724e-05
3.13394e-06
7.2849e-05
1.31893e-05
8.14184e-05
2.83667e-05
8.83218e-05
4.72069e-05
9.24014e-05
9.28437e-05
6.67713e-05
2.23422e-06
4.45505e-05
3.84836e-06
4.09861e-05
4.22061e-06
3.89811e-05
3.8873e-06
3.76619e-05
3.06848e-06
3.66739e-05
2.09803e-06
3.62214e-05
1.02851e-06
3.62343e-05
2.67989e-07
3.70356e-05
-2.8758e-07
3.805e-05
-9.9479e-08
3.97914e-05
5.72058e-07
4.14448e-05
1.15633e-06
4.2755e-05
1.34738e-06
4.38625e-05
1.16391e-06
4.54781e-05
8.66049e-07
4.75371e-05
7.16079e-07
5.06967e-05
1.72215e-06
5.53344e-05
4.8779e-06
6.08164e-05
1.05598e-05
6.71898e-05
1.86308e-05
7.33699e-05
2.96425e-05
7.73109e-05
4.33361e-05
7.86932e-05
7.81492e-05
5.79788e-05
1.50674e-06
4.30442e-05
2.78149e-06
3.97117e-05
3.25712e-06
3.85059e-05
3.19629e-06
3.77231e-05
2.71111e-06
3.71595e-05
2.01083e-06
3.69221e-05
1.25103e-06
3.69945e-05
7.02625e-07
3.75844e-05
4.00641e-07
3.83525e-05
6.38758e-07
3.95539e-05
1.24583e-06
4.08386e-05
1.87928e-06
4.21236e-05
2.32583e-06
4.34226e-05
2.68554e-06
4.5181e-05
3.02617e-06
4.728e-05
3.63488e-06
5.04197e-05
5.37521e-06
5.3594e-05
8.99709e-06
5.72471e-05
1.43809e-05
6.18387e-05
2.14316e-05
6.63434e-05
3.02658e-05
6.84875e-05
4.08008e-05
6.8164e-05
6.68843e-05
5.20633e-05
1.17043e-06
4.1874e-05
2.0774e-06
3.8805e-05
2.46436e-06
3.81192e-05
2.52864e-06
3.76591e-05
2.33955e-06
3.73488e-05
1.98286e-06
3.72791e-05
1.57348e-06
3.74042e-05
1.27029e-06
3.78879e-05
1.10839e-06
3.85148e-05
1.3089e-06
3.93538e-05
1.84438e-06
4.03036e-05
2.4545e-06
4.15149e-05
3.03286e-06
4.28558e-05
3.78704e-06
4.44554e-05
4.77018e-06
4.64202e-05
6.44013e-06
4.88056e-05
8.99487e-06
5.11288e-05
1.25218e-05
5.37601e-05
1.74017e-05
5.69753e-05
2.38855e-05
5.98842e-05
3.14885e-05
6.08989e-05
3.99609e-05
5.96989e-05
5.787e-05
4.89769e-05
9.04791e-07
4.09694e-05
1.57854e-06
3.81315e-05
1.98704e-06
3.77109e-05
2.23113e-06
3.74152e-05
2.32574e-06
3.72544e-05
2.32414e-06
3.72809e-05
2.26434e-06
3.74642e-05
2.25109e-06
3.79015e-05
2.28937e-06
3.84768e-05
2.45559e-06
3.9188e-05
2.82872e-06
3.99309e-05
3.40284e-06
4.09415e-05
4.07887e-06
4.21881e-05
5.11954e-06
4.34392e-05
6.64521e-06
4.49207e-05
8.88766e-06
4.66159e-05
1.15019e-05
4.85325e-05
1.47122e-05
5.05743e-05
1.91606e-05
5.25457e-05
2.48314e-05
5.42245e-05
3.12749e-05
5.4464e-05
3.81439e-05
5.28352e-05
5.06464e-05
4.53698e-05
7.313e-07
4.02383e-05
1.36968e-06
3.74933e-05
1.86717e-06
3.72136e-05
2.20047e-06
3.70821e-05
2.4402e-06
3.70149e-05
2.65933e-06
3.7062e-05
2.87109e-06
3.72527e-05
3.15357e-06
3.76192e-05
3.52254e-06
3.81081e-05
3.94684e-06
3.8764e-05
4.45523e-06
3.94228e-05
5.20145e-06
4.01957e-05
6.1783e-06
4.1214e-05
7.38788e-06
4.22378e-05
8.95197e-06
4.33744e-05
1.10246e-05
4.45611e-05
1.3677e-05
4.58957e-05
1.70116e-05
4.72569e-05
2.11584e-05
4.84107e-05
2.61233e-05
4.92678e-05
3.16346e-05
4.89582e-05
3.72584e-05
4.72151e-05
4.5128e-05
4.27788e-05
6.74156e-07
3.95643e-05
1.23139e-06
3.69362e-05
1.69034e-06
3.67549e-05
2.08005e-06
3.66926e-05
2.42456e-06
3.66706e-05
2.75034e-06
3.67364e-05
3.10195e-06
3.69013e-05
3.53786e-06
3.71835e-05
4.0718e-06
3.75744e-05
4.70724e-06
3.81288e-05
5.3936e-06
3.87368e-05
6.26156e-06
3.9328e-05
7.44912e-06
4.00272e-05
8.8782e-06
4.08131e-05
1.0586e-05
4.16731e-05
1.24967e-05
4.26626e-05
1.48624e-05
4.35429e-05
1.79383e-05
4.41919e-05
2.16269e-05
4.47298e-05
2.59141e-05
4.4986e-05
3.0647e-05
4.42287e-05
3.53486e-05
4.25162e-05
4.06979e-05
3.97799e-05
6.01778e-07
3.89627e-05
1.11892e-06
3.64192e-05
1.58776e-06
3.62862e-05
2.02908e-06
3.62515e-05
2.43521e-06
3.62646e-05
2.82939e-06
3.63424e-05
3.24892e-06
3.64819e-05
3.74457e-06
3.66881e-05
4.33493e-06
3.69843e-05
5.03682e-06
3.74272e-05
5.84341e-06
3.79304e-05
6.78766e-06
3.83841e-05
7.94118e-06
3.8874e-05
9.37383e-06
3.93816e-05
1.1089e-05
3.99608e-05
1.32078e-05
4.05482e-05
1.57871e-05
4.09688e-05
1.86594e-05
4.13241e-05
2.19194e-05
4.14735e-05
2.56991e-05
4.12089e-05
2.96818e-05
4.02481e-05
3.35041e-05
3.86956e-05
3.68886e-05
3.73141e-05
6.2693e-07
3.83359e-05
1.16078e-06
3.58855e-05
1.65431e-06
3.57928e-05
2.12554e-06
3.57804e-05
2.58811e-06
3.58022e-05
3.06636e-06
3.58643e-05
3.57827e-06
3.59702e-05
4.13863e-06
3.61279e-05
4.76317e-06
3.63599e-05
5.53286e-06
3.66577e-05
6.48681e-06
3.69767e-05
7.56248e-06
3.73086e-05
8.76025e-06
3.76765e-05
1.01403e-05
3.80022e-05
1.18021e-05
3.83e-05
1.37924e-05
3.856e-05
1.5996e-05
3.87678e-05
1.85007e-05
3.88222e-05
2.14877e-05
3.84886e-05
2.48117e-05
3.78867e-05
2.81636e-05
3.68976e-05
3.14434e-05
3.5417e-05
3.34603e-05
3.48723e-05
5.81265e-07
3.77548e-05
1.10437e-06
3.53625e-05
1.6231e-06
3.52742e-05
2.12676e-06
3.52769e-05
2.62809e-06
3.5301e-05
3.14843e-06
3.53441e-05
3.70391e-06
3.54149e-05
4.30821e-06
3.55238e-05
4.9879e-06
3.56804e-05
5.78044e-06
3.58653e-05
6.70132e-06
3.6056e-05
7.7568e-06
3.62533e-05
9.0135e-06
3.64201e-05
1.03782e-05
3.66378e-05
1.19079e-05
3.67711e-05
1.3734e-05
3.67347e-05
1.58728e-05
3.66304e-05
1.83885e-05
3.63079e-05
2.10623e-05
3.5816e-05
2.386e-05
3.50903e-05
2.67315e-05
3.40271e-05
2.96876e-05
3.2462e-05
3.05276e-05
3.26206e-05
5.80908e-07
3.7174e-05
1.10942e-06
3.48341e-05
1.64112e-06
3.47427e-05
2.18161e-06
3.47365e-05
2.73204e-06
3.47507e-05
3.29541e-06
3.47809e-05
3.89281e-06
3.48176e-05
4.54387e-06
3.48729e-05
5.27665e-06
3.49478e-05
6.08867e-06
3.50534e-05
6.96143e-06
3.51834e-05
7.94719e-06
3.52677e-05
9.09866e-06
3.52688e-05
1.04835e-05
3.52533e-05
1.21327e-05
3.51223e-05
1.39028e-05
3.49654e-05
1.58396e-05
3.46945e-05
1.7878e-05
3.42704e-05
2.00711e-05
3.36238e-05
2.25487e-05
3.26137e-05
2.52318e-05
3.1345e-05
2.78564e-05
2.98381e-05
2.79871e-05
3.03972e-05
5.71901e-07
3.66022e-05
1.09661e-06
3.43095e-05
1.62513e-06
3.42142e-05
2.15633e-06
3.42054e-05
2.70329e-06
3.42038e-05
3.27695e-06
3.42073e-05
3.88107e-06
3.42136e-05
4.52905e-06
3.4225e-05
5.24585e-06
3.42311e-05
6.0752e-06
3.42242e-05
7.0431e-06
3.42156e-05
8.1212e-06
3.41898e-05
9.26456e-06
3.41256e-05
1.05119e-05
3.40062e-05
1.18347e-05
3.38e-05
1.33615e-05
3.3439e-05
1.51162e-05
3.29406e-05
1.70915e-05
3.22959e-05
1.92761e-05
3.144e-05
2.14807e-05
3.041e-05
2.36548e-05
2.91716e-05
2.59205e-05
2.75732e-05
2.56801e-05
2.82277e-05
5.74526e-07
3.60277e-05
1.11223e-06
3.37719e-05
1.65752e-06
3.3669e-05
2.20925e-06
3.36537e-05
2.77548e-06
3.36377e-05
3.36724e-06
3.36157e-05
3.9894e-06
3.35915e-05
4.65298e-06
3.35615e-05
5.36547e-06
3.35187e-05
6.1274e-06
3.34624e-05
6.95592e-06
3.33872e-05
7.88708e-06
3.32587e-05
8.94953e-06
3.30633e-05
1.01605e-05
3.27954e-05
1.15467e-05
3.24141e-05
1.3087e-05
3.18993e-05
1.47062e-05
3.1322e-05
1.64116e-05
3.05912e-05
1.81549e-05
2.96974e-05
2.00241e-05
2.85414e-05
2.20569e-05
2.71394e-05
2.40943e-05
2.55364e-05
2.36949e-05
2.60797e-05
5.50118e-07
3.54777e-05
1.06616e-06
3.32559e-05
1.59575e-06
3.31395e-05
2.13558e-06
3.3114e-05
2.68988e-06
3.30835e-05
3.26623e-06
3.30394e-05
3.87326e-06
3.29846e-05
4.52167e-06
3.29132e-05
5.22143e-06
3.2819e-05
5.99301e-06
3.26909e-05
6.86438e-06
3.25159e-05
7.81903e-06
3.23042e-05
8.85318e-06
3.20293e-05
9.97653e-06
3.16722e-05
1.11704e-05
3.12206e-05
1.24222e-05
3.06478e-05
1.38055e-05
2.99391e-05
1.53238e-05
2.90735e-05
1.69923e-05
2.80294e-05
1.87185e-05
2.68159e-05
2.04459e-05
2.54125e-05
2.22044e-05
2.37785e-05
2.19241e-05
2.39753e-05
5.54339e-07
3.49234e-05
1.0824e-06
3.2728e-05
1.6218e-06
3.26002e-05
2.16492e-06
3.25709e-05
2.71873e-06
3.25297e-05
3.28459e-06
3.24736e-05
3.86985e-06
3.23994e-05
4.48416e-06
3.2299e-05
5.13866e-06
3.21646e-05
5.84256e-06
3.19871e-05
6.59915e-06
3.17594e-05
7.42792e-06
3.14755e-05
8.34609e-06
3.11113e-05
9.36178e-06
3.06567e-05
1.04793e-05
3.01032e-05
1.17054e-05
2.94221e-05
1.30179e-05
2.86271e-05
1.43778e-05
2.77141e-05
1.57806e-05
2.6627e-05
1.72455e-05
2.53514e-05
1.87814e-05
2.3877e-05
2.03389e-05
2.22214e-05
2.0377e-05
2.18861e-05
5.27822e-07
3.43956e-05
1.03596e-06
3.22199e-05
1.55579e-06
3.20804e-05
2.07927e-06
3.20475e-05
2.61261e-06
3.19964e-05
3.15864e-06
3.19276e-05
3.72351e-06
3.18346e-05
4.31501e-06
3.17075e-05
4.94026e-06
3.15394e-05
5.61031e-06
3.13171e-05
6.33217e-06
3.10376e-05
7.11962e-06
3.06881e-05
7.97253e-06
3.02584e-05
8.88813e-06
2.97412e-05
9.8688e-06
2.91229e-05
1.09106e-05
2.83804e-05
1.20179e-05
2.75202e-05
1.32127e-05
2.65196e-05
1.44788e-05
2.53613e-05
1.57875e-05
2.40431e-05
1.71134e-05
2.25514e-05
1.8461e-05
2.08742e-05
1.9024e-05
1.98139e-05
5.27533e-07
3.38682e-05
1.03079e-06
3.17167e-05
1.54047e-06
3.15708e-05
2.0501e-06
3.15379e-05
2.56526e-06
3.14813e-05
3.08816e-06
3.14048e-05
3.62099e-06
3.13018e-05
4.16837e-06
3.11602e-05
4.73784e-06
3.097e-05
5.34377e-06
3.07112e-05
5.98686e-06
3.03945e-05
6.67745e-06
2.99976e-05
7.42791e-06
2.9508e-05
8.24009e-06
2.89292e-05
9.11297e-06
2.825e-05
1.00429e-05
2.74508e-05
1.10291e-05
2.65342e-05
1.20705e-05
2.54784e-05
1.31527e-05
2.42794e-05
1.4273e-05
2.2923e-05
1.54215e-05
2.14031e-05
1.65883e-05
1.97076e-05
1.78551e-05
1.77572e-05
5.10799e-07
3.33574e-05
9.91684e-07
3.12358e-05
1.47846e-06
3.1084e-05
1.96237e-06
3.1054e-05
2.45144e-06
3.09923e-05
2.95102e-06
3.09052e-05
3.46591e-06
3.07869e-05
3.99698e-06
3.06292e-05
4.53911e-06
3.04279e-05
5.09103e-06
3.01593e-05
5.65992e-06
2.98256e-05
6.2535e-06
2.9404e-05
6.88485e-06
2.88767e-05
7.56643e-06
2.82476e-05
8.30943e-06
2.75072e-05
9.10863e-06
2.66516e-05
9.96068e-06
2.56823e-05
1.08524e-05
2.45868e-05
1.178e-05
2.33519e-05
1.27407e-05
2.19625e-05
1.37214e-05
2.04225e-05
1.47104e-05
1.87188e-05
1.68579e-05
1.57074e-05
5.03406e-07
3.2854e-05
9.39467e-07
3.07998e-05
1.38178e-06
3.06417e-05
1.82648e-06
3.06094e-05
2.28057e-06
3.05382e-05
2.7501e-06
3.04357e-05
3.23995e-06
3.02971e-05
3.74261e-06
3.01265e-05
4.2583e-06
2.99122e-05
4.77582e-06
2.96418e-05
5.3036e-06
2.92979e-05
5.84258e-06
2.8865e-05
6.39286e-06
2.83264e-05
6.95846e-06
2.7682e-05
7.54715e-06
2.69184e-05
8.17018e-06
2.60287e-05
8.84969e-06
2.50028e-05
9.59526e-06
2.38413e-05
1.0383e-05
2.25642e-05
1.11884e-05
2.11571e-05
1.20075e-05
1.96035e-05
1.28328e-05
1.78935e-05
1.6027e-05
1.36637e-05
4.8759e-07
3.23664e-05
8.54922e-07
3.04325e-05
1.22415e-06
3.02725e-05
1.60455e-06
3.0229e-05
1.99743e-06
3.01454e-05
2.40676e-06
3.00264e-05
2.84093e-06
2.9863e-05
3.29614e-06
2.96713e-05
3.77419e-06
2.94341e-05
4.26737e-06
2.91486e-05
4.76956e-06
2.87957e-05
5.27362e-06
2.8361e-05
5.77342e-06
2.78266e-05
6.27449e-06
2.71809e-05
6.78164e-06
2.64114e-05
7.30144e-06
2.55087e-05
7.83124e-06
2.44731e-05
8.37229e-06
2.33002e-05
8.95749e-06
2.19789e-05
9.60707e-06
2.05075e-05
1.02831e-05
1.89274e-05
1.09543e-05
1.72222e-05
1.53584e-05
1.16228e-05
4.35865e-07
3.19306e-05
6.75082e-07
3.01933e-05
9.14971e-07
3.00327e-05
1.18181e-06
2.99622e-05
1.46835e-06
2.98588e-05
1.78062e-06
2.97141e-05
2.122e-06
2.95216e-05
2.50254e-06
2.92908e-05
2.9226e-06
2.90141e-05
3.37823e-06
2.86929e-05
3.85506e-06
2.83188e-05
4.33544e-06
2.78805e-05
4.82125e-06
2.73408e-05
5.31994e-06
2.66822e-05
5.81109e-06
2.592e-05
6.29239e-06
2.50275e-05
6.75748e-06
2.40078e-05
7.20876e-06
2.28488e-05
7.65338e-06
2.15342e-05
8.08807e-06
2.00727e-05
8.55237e-06
1.8463e-05
9.06815e-06
1.67064e-05
1.48426e-05
9.58359e-06
3.22945e-07
3.16076e-05
3.66792e-07
3.01494e-05
3.9642e-07
3.0003e-05
4.80195e-07
2.98784e-05
6.00927e-07
2.97381e-05
7.61793e-07
2.95533e-05
9.65702e-07
2.93177e-05
1.22686e-06
2.90297e-05
1.55035e-06
2.86906e-05
1.94349e-06
2.82998e-05
2.40206e-06
2.78602e-05
2.90906e-06
2.73735e-05
3.43173e-06
2.6818e-05
3.95174e-06
2.6162e-05
4.44441e-06
2.54274e-05
4.91237e-06
2.45592e-05
5.37424e-06
2.35458e-05
5.8296e-06
2.23933e-05
6.25143e-06
2.11122e-05