/*--------------------------------*- C++ -*----------------------------------*\
| =========                 |                                                 |
| \\      /  F ield         | OpenFOAM: The Open Source CFD Toolbox           |
|  \\    /   O peration     | Version:  2.4.0                                 |
|   \\  /    A nd           | Web:      www.OpenFOAM.org                      |
|    \\/     M anipulation  |                                                 |
\*---------------------------------------------------------------------------*/
FoamFile
{
    version     2.0;
    format      ascii;
    class       volScalarField;
    location    "0.75";
    object      rho;
}
// * * * * * * * * * * * * * * * * * * * * * * * * * * * * * * * * * * * * * //

dimensions      [1 -3 0 0 0 0 0];

internalField   nonuniform List<scalar> 
2268
(
13529
13529
13529
13529
13529
13529
13529
13529
13529
13529
13529
13529
13529
13529
13529
13529
13529
13529
13529
13529
13529
13528.9
13528.9
13526.6
13526.2
13527.5
13527.6
13527.7
13528.6
13528.9
13529
13529
13529
13529
13529
13529
13529
13529
13529
13529
13529
13529
13529
13529
13528.9
13528.8
12704
12696.6
12812.3
12878.9
12975.6
13239.3
13475.4
13524
13528.5
13528.9
13529
13529
13529
13529
13529
13529
13529
13529
13529
13529
13529
13529
13528.8
3229.31
3238.09
3381.02
3491.06
3734.33
4326.5
5534.09
7614.44
10638.1
13278.8
13524.3
13528.8
13529
13529
13529
13529
13529
13529
13529
13529
13529
13529
13528.8
1000.11
1000.11
1000.11
1000.11
1000.11
1000.11
1004.75
1157.67
2269.57
8134.71
13140
13517.4
13528.2
13528.8
13528.9
13528.9
13529
13529
13529
13529
13529
13528.9
13528.8
1000.07
1000.06
1000.06
1000.06
1000.06
1000.06
1000.06
1000.17
1027.3
2660.68
10298.4
13341.5
13519.9
13527.7
13528.6
13528.8
13528.5
13528.4
13528.6
13528.5
13527.3
13526.3
13528.3
1000.09
1000.09
1000.08
1000.07
1000.07
1000.06
1000.06
1000.07
1004.86
1552.09
6600.08
12585.7
13477.4
13523.9
13521.6
13485.6
13423.8
13398.6
13408.7
13405.4
13304.6
13245.8
13406.3
1000.07
1000.06
1000.06
1000.06
1000.06
1000.06
1000.06
1000.07
1000.95
1161.78
3600.86
9989.83
13146.6
13328.4
12825.5
12055.7
11313.9
10845.6
10575.4
10260.3
9654.3
9473.26
10929.3
11444.7
11449
11450.5
11456.9
11464.1
11472.5
11479.5
11489.8
11493.7
11494.7
11498
11508.6
11508.7
11510.4
11511.4
11518
11522.9
11523.5
11522.8
11314.2
6193.24
7160.1
8047.15
8876.82
9738.08
10120.7
10266.9
10166.5
9826.15
9802.51
10041.1
10211.5
10613.9
11339.1
11523.4
11524.6
11523.2
11524.9
9577.06
4967.05
3245.2
2013.94
1385.88
1343.21
1445.9
1599.65
1589.05
1440.88
1243.03
1039.31
1387.44
1783.37
5432.07
10878.9
11524.7
11527
11529.6
3713.55
2790.35
1717.07
1027.43
888.117
902.933
911.724
913.305
913.255
895.524
839.754
725.041
613.096
547.24
1016.9
7923.16
11522
11534.3
11534.6
2154.85
2010.93
1381.07
950.618
890.852
902.766
912.676
912.502
889.849
819.062
795.032
741.63
643.088
546.396
827.1
4988.59
11224
11525.3
11465.1
1996.98
1801.98
1192.38
899.593
884.449
900.513
911.382
884.474
848.463
842.21
807.089
794.258
696.364
567.825
788.154
4868.72
11004.7
11431
9288.51
2014
1489.15
962.205
824.395
822.987
854.99
895.875
913.199
917.21
913.243
889.993
840.298
743.459
592.098
757.629
5339.26
10736.5
11139.5
4008.33
2083.64
1223.14
794.718
712.415
697.784
732.809
801.611
877.863
923.017
920.617
898.041
851.085
753.403
608.136
637.518
3863.56
8232.12
8071.45
1793.09
1000.03
1000.02
1000.02
1000.02
1000.02
1000.01
1000.02
1000.03
1000.2
1018.68
1421.44
3062.59
5635.48
6774.59
6108.8
4987.94
4093.69
3319.62
2753.27
2361.13
2143.36
2259.78
3329.26
1000
1000
999.766
999.819
999.876
999.429
999.578
999.79
999.93
1001.21
1012.62
1085.12
1158.06
1094.16
1056.26
1030.74
1016.57
1012.35
1002.43
987.393
977.808
974.28
968.942
999.999
999.089
977.272
979.204
987.678
980.467
985.72
994.239
997.761
999.004
1000.64
1002.7
1007.1
1002.01
996.927
977.838
950.93
922.884
895.657
874.122
870.92
855.918
827.871
999.715
959.685
793.381
764.091
805.118
812.294
872.093
921.376
947.477
965.443
974.1
980.166
980.77
945.416
886.901
799.512
743.082
651.093
518.311
414.988
497.571
660.061
606.428
982.251
771.666
569.727
566.169
567.045
589.072
626.363
662.025
691.248
716.386
716.861
708.374
665.333
576.855
449.069
284.619
182.044
71.5685
14.0924
14.984
183.875
505.073
539.152
790.655
553.846
387.865
320.696
319.48
354.976
397.079
437.454
450.228
445.146
390.648
267.426
138.899
53.411
5.21478
1.03318
1.00106
1.00025
1.03873
7.98728
148.715
440.483
484.482
132.881
95.447
32.6652
17.0906
13.082
8.30817
8.67705
23.8925
21.5413
13.8963
6.45664
1.62339
1.02962
1.0005
1.00058
1.00003
1.00004
1.00004
1.00443
3.01581
57.0086
206.989
248.743
3.04183
2.54743
1.19558
1.05178
1.00668
1.00004
1.0007
1.00727
1.05942
1.02605
1.00607
1.00035
1.00003
1.00003
1.00003
1.00003
1.00006
1.00012
1.00247
1.42008
6.54966
16.181
19.4998
1.00386
1.00341
1.00024
1.00015
1.00006
1.00003
1.00001
1.00001
1.00002
1.00001
1.00001
1.00001
1.00003
1.00009
1.00014
1.00012
1.00008
1.00017
1.00253
1.04018
1.11416
1.18812
1.21134
1.00018
1.00016
1.00012
1.00008
1.00003
1
1.00001
1.00001
1.00002
1.00001
1.00001
1.00001
1.00004
1.00015
1.00017
1.00019
1.00017
1.00021
1.00071
1.0012
1.00099
1.00116
1.00143
1.00009
1.00006
1.00005
1.00005
1.00002
1
1.00001
1.00003
1.00002
1.00001
1.00001
1.00001
1.00003
1.00012
1.00019
1.00019
1.00009
1.00007
1.00016
1.00039
1.00065
1.00076
1.00085
1.00005
1.00004
1.00004
1.00002
1
0.999999
1.00001
1.00002
1.00002
1.00002
1.00003
1.00004
1.00004
1.00006
1.0001
1.00004
1.00003
1.00004
1.00005
1.00014
1.00033
1.00037
1.00044
1.00006
1.00004
1.00002
1.00001
0.999999
0.999999
1
1.00001
1.00002
1.00004
1.00004
1.00003
1.00002
1.00002
1.00002
1.00001
1.00001
1.00001
1.00002
1.00006
1.00013
1.00018
1.00022
1.00005
1.00003
1.00001
1
0.999999
0.999999
1
1
1.00001
1.00002
1.00003
1.00001
1.00001
1.00001
1.00002
1.00002
1.00001
1.00001
1.00002
1.00003
1.00007
1.00008
1.00012
1.00003
1.00001
1
0.999999
0.999999
0.999999
1
1
1
1.00001
1.00001
1
1.00001
1.00002
1.00004
1.00004
1.00001
1.00001
1.00001
1.00002
1.00002
1.00004
1.00006
1.00001
1
0.999999
0.999999
0.999999
1
1
1
1
1
1
1
1.00001
1.00003
1.00006
1.00006
1.00003
1.00001
1.00001
1.00001
1.00001
1.00002
1.00002
1
0.999999
0.999999
0.999999
0.999999
1
1
1
1
1
1
1
1.00001
1.00002
1.00006
1.00006
1.00003
1.00002
1.00001
1
1
1
1.00001
0.999999
0.999999
0.999999
0.999999
1
1
1
1
1
1
1
1
1
1.00002
1.00004
1.00005
1.00003
1.00002
1.00001
1
1
1
1
0.999999
0.999999
0.999999
0.999999
1
1
1
1
1
1
1
1
1
1.00001
1.00003
1.00002
1.00003
1.00002
1.00001
1
1
1
1
0.999999
0.999999
0.999999
0.999999
1
1
1
1
1
1
1
1
1
1.00001
1.00001
1.00002
1.00001
1.00001
1.00001
1
1
1
0.999999
0.999999
0.999999
0.999999
0.999999
1
1
1
1
1
1
1
1
1
1
1.00001
1.00001
1.00001
1.00001
1
1
1
1
1
0.999999
0.999999
0.999999
1
1
1
1
1
1
1
1
1
1
1
1
1
1.00001
1
1
1
1
1
1
0.999999
0.999999
0.999999
1
1
1
1
1
1
1
1
1
1
1
1
1
1
1
1
1
1
0.999999
0.999999
0.999999
0.999999
0.999999
1
1
1
1
1
1
1
1
1
1
1
1
1
1
1
0.999999
0.999999
0.999999
0.999999
0.999999
0.999999
0.999999
0.999999
1
1
1
1
1
1
1
1
1
1
1
1
0.999999
0.999999
0.999999
0.999999
0.999999
0.999998
0.999998
0.999998
0.999999
0.999999
1
1
1
1
1
1
1
1
1
1
1
1
1
1
0.999999
0.999999
0.999999
0.999999
0.999998
0.999998
0.999998
0.999999
0.999999
1
1
1
1
1
1
1
1
1
1
1
1
1
1
1
0.999999
0.999999
0.999999
0.999998
0.999998
0.999997
0.999999
1
1
1
1
1
1
1
1
1
1
1
1
1
1
1
1
0.999999
0.999999
0.999999
0.999998
0.999998
0.999997
0.999999
1
1
1
1
1
1
1
1
1
1
1
1
1
1
1
1
1
0.999999
0.999999
0.999999
0.999998
0.999997
1
1
1
1
1
1
1
1
1
1
1
1
1
1
1
1
1
1
1
0.999999
0.999999
0.999998
0.999997
1
1
1
1
1
1
1
1
1
1
1
1
1
1
1
1
1
1
1
1
0.999999
0.999999
0.999998
1
1
1
1
1
1
1
1
1
1
1
1
1
1
1
1
1
1
1
1
0.999999
0.999999
0.999998
1
1
1
1
1
1
1
1
1
1
1
1
1
1
1
1
1
1
1
1
1
0.999999
0.999998
1
1
1
1
1
1
1
1
1
1
1
1
1
1
1
1
1
1
1
1
1
0.999999
0.999998
1
1
1
1
1
1
1
1
1
1
1
1
1
1
1
1
1
1
1
1
1
0.999999
0.999999
1
1
1
1
1
1
1
1
1
1
1
1
1
1
1
1
1
1
1
1
1
1
0.999999
1
1
1
1
1
1
1
1
1
1
1
1
1
1
1
1
1
1
1
1
1
1
0.999999
1
1
1
1
1
1
1
1
1
1
1
1
1
1
1
1
1
0.999999
1
1
1
1
0.999999
1
1
1
1
1
1
1
1
1
1
1
1
1
1
1
1
1
1
1
1
1
1
0.999999
1
1
1
1
1
1
1
1
1
1
1
1
1
1
1
1
1
1
1
1
1
1
0.999999
1
1
1
1
1
1
1
1
1
1
1
1
1
1
1
1
1
1
1
1
1
1
0.999999
1
1
1
1
1
1
1
1
1
1
1
1
1
1
1
1
1
1
1
1
1
1
0.999999
4874.13
4824.86
4635.89
4280.28
968.116
968.422
960.62
919.117
815.117
809.495
785.789
698.363
539.105
517.582
494.97
447.455
463.885
448.661
434.665
350.589
415.309
230.604
114.975
71.5654
63.6596
15.4613
4.77499
2.52426
2.93831
1.11229
1.01532
1.0017
1.02957
1.00282
1.00175
1.0017
1.00169
1.00191
1.00173
1.00163
1.0011
1.00121
1.00109
1.00106
1.00043
1.00044
1.00035
1.00032
1.00027
1.00028
1.00017
1.00014
1.00013
1.00013
1.00013
1.00007
1.00005
1.00007
1.00005
1.00004
1.00002
1.00001
1.00001
1.00002
1
1
1.00001
1.00001
1
1
1
1
1
0.999999
1
1
1
1
1
0.999999
1
1
1
0.999999
1
1
1
0.999999
1
1
1
0.999999
0.999999
0.999999
0.999999
0.999999
0.999999
0.999999
0.999999
0.999998
0.999998
0.999998
0.999998
0.999998
0.999998
0.999998
0.999997
0.999997
0.999997
0.999997
0.999997
0.999996
0.999997
0.999997
0.999996
0.999996
0.999997
0.999997
0.999996
0.999996
0.999997
0.999997
0.999996
0.999996
0.999997
0.999996
0.999996
0.999995
0.999997
0.999997
0.999996
0.999996
0.999997
0.999997
0.999996
0.999996
0.999998
0.999997
0.999996
0.999996
0.999998
0.999997
0.999997
0.999997
0.999998
0.999997
0.999997
0.999997
0.999998
0.999998
0.999997
0.999998
0.999998
0.999998
0.999998
0.999998
0.999998
0.999998
0.999998
0.999998
0.999998
0.999998
0.999998
0.999998
0.999998
0.999998
0.999998
0.999999
2077.54
564.498
476.104
567.461
563.024
575.142
620.717
705.246
820.788
883.765
877.936
838.406
752.512
627.536
543.344
1191.74
2509.31
1783.49
1177.2
643.464
258.557
328.113
493.033
496.845
487.069
479.713
506.904
576.373
733.251
823.322
810.6
750.463
647.439
551.418
553.992
657.548
603.025
778.773
393.184
274.034
468.278
490.83
492.885
489.476
466.002
381.774
395.851
447.843
684.936
784.988
765.95
676.866
568.28
519.796
580.396
532.965
679.812
394.183
461.585
469.041
471.192
495.701
497.117
496.784
495.764
489.296
438.268
550.495
723.554
763.38
701.779
572.409
526.4
528.596
533.961
694.645
316.866
378.253
397.757
468.097
496.497
495.221
465.104
439.379
439.847
439.927
482.491
661.269
751.828
715.397
564.831
541.804
552.802
588.241
745.735
60.8192
135.993
370.987
482.356
482.028
371.619
170.104
103.157
122.655
246.8
424.92
577.179
711.288
565.731
477.746
475.757
612.683
687.019
820.35
6.24642
107.188
402.693
482.664
362.021
73.4006
8.70218
8.68612
8.70193
21.3721
225.264
487.702
636.437
406.643
378.722
395.764
578.516
753.942
904.196
3.55478
87.0022
353.67
458.723
273.244
24.4665
8.68614
8.68799
8.68642
8.62118
80.4996
429.492
583.263
524.591
511.939
603.971
692.628
755.933
965.324
1.41842
15.1777
133.621
328.361
322
51.9715
8.75686
8.66907
8.57416
8.68043
30.5199
274.997
543.505
643.118
684.097
721.352
742.178
781.388
1005.02
1.02319
1.34281
14.0553
147.33
328.437
238.699
57.6414
8.74352
8.71396
8.5659
41.3713
299.099
506.336
629.029
668.008
666.414
720.123
776.763
979.135
1.00098
1.00404
1.65474
34.1054
258.77
400.183
285.776
35.915
8.87492
8.79424
34.0696
251.431
442.693
530.485
438.585
365.891
663.061
751.823
930.695
1.00034
1.0005
1.0254
7.34868
123.693
401.193
445.382
227.995
55.322
34.5767
47.8353
142.465
315.123
309.64
172.554
173.108
406.374
712.302
819.72
1.00014
1.00018
1.00035
1.59846
35.7372
257.6
450.707
454.157
337.317
286.085
296.303
294.227
293.829
424.802
466.046
470.713
492.107
649.665
786.875
1.00006
1.00009
1.00021
1.00204
3.60552
73.6078
342.931
469.687
473.962
482.428
489.861
500.326
509.828
538.989
563.377
580.306
634.062
666.846
766.186
1.00003
1.00005
1.00018
1.00038
1.01773
5.45755
83.7072
318.751
427.862
435.78
428.615
421.597
441.431
497.577
545.247
580.365
623.379
682.462
738.292
1.00001
1.00003
1.00013
1.00029
1.00021
1.07513
5.03308
40.2573
110.278
138.65
115.322
99.1345
106.56
162.209
261.504
353.508
423.684
470.584
429.99
1.00001
1.00002
1.00006
1.00009
1.00016
1.00071
1.08276
1.65383
2.27977
2.45436
1.99584
1.42172
1.35858
1.83963
4.76243
14.5062
26.2484
25.7212
29.5616
1
1.00001
1.00002
1.00005
1.00006
1.00022
1.00035
1.00145
1.00151
1.00152
1.00154
1.00214
1.00377
1.00763
1.02768
1.03594
1.01767
1.01096
1.01782
1
1
1.00001
1.00002
1.00004
1.00007
1.0001
1.00009
1.00008
1.00035
1.00095
1.00202
1.00299
1.00253
1.00166
1.00125
1.00269
1.36823
5.48836
0.999999
0.999999
1
1.00001
1.00002
1.00003
1.00004
1.00007
1.0001
1.00018
1.00044
1.00086
1.00117
1.0011
1.00111
1.00443
1.33104
13.3796
96.5499
0.999998
0.999998
0.999998
1
1
1.00001
1.00001
1.00002
1.00004
1.00011
1.00023
1.00044
1.00077
1.00118
1.01974
1.75838
10.2628
120.582
368.474
0.999998
0.999998
0.999997
0.999998
0.999999
1
1
1.00001
1.00002
1.00004
1.0001
1.00025
1.00055
1.00115
1.22237
8.08253
62.395
323.84
487.322
0.999998
0.999998
0.999997
0.999997
0.999998
0.999999
1
1
1.00001
1.00004
1.00012
1.00024
1.00047
1.00091
1.60448
16.2132
119.96
388.882
492.928
0.999998
0.999998
0.999997
0.999998
0.999998
0.999999
1
1
1.00001
1.00005
1.00016
1.0003
1.0005
1.00098
1.93319
18.5333
104.511
226.93
492.927
0.999998
0.999997
0.999997
0.999998
0.999998
0.999999
1
1
1.00001
1.00007
1.00024
1.00041
1.00059
1.00172
2.14493
8.98798
11.4136
49.1098
485.566
0.999997
0.999997
0.999997
0.999998
0.999998
0.999999
1
1
1.00001
1.0001
1.00038
1.00067
1.00081
1.00905
1.89993
1.2155
1.2064
27.7127
375.141
0.999997
0.999997
0.999997
0.999998
0.999998
0.999999
1
1
1.00001
1.00013
1.00057
1.00096
1.00109
1.02903
1.09844
1.00439
1.21627
21.9013
93.099
0.999996
0.999996
0.999997
0.999998
0.999998
0.999999
1
1
1.00001
1.00011
1.00064
1.0011
1.00124
1.02902
1.00669
1.00316
1.3472
4.48585
1.81527
0.999996
0.999996
0.999997
0.999998
0.999999
0.999999
1
1
1
1.00005
1.00035
1.001
1.00125
1.02307
1.00334
1.00318
1.06306
1.03096
1.00225
0.999996
0.999996
0.999997
0.999998
0.999999
0.999999
1
1
1
1.00001
1.0001
1.00067
1.0011
1.00724
1.0038
1.0027
1.00303
1.00081
1.00079
0.999996
0.999996
0.999997
0.999998
0.999999
0.999999
1
1
1
1
1.00003
1.0003
1.00076
1.0029
1.00385
1.0025
1.00101
1.0008
1.00062
0.999996
0.999996
0.999997
0.999998
0.999999
0.999999
1
1
1
1
1.00001
1.0001
1.00038
1.00131
1.00382
1.00385
1.00124
1.00073
1.00045
0.999996
0.999997
0.999997
0.999998
0.999999
0.999999
0.999999
1
1
1.00001
1.00001
1.00004
1.00017
1.00058
1.00317
1.00385
1.00276
1.00062
1.00032
0.999997
0.999997
0.999998
0.999998
0.999999
0.999999
0.999999
1
1
1.00001
1.00003
1.00008
1.00015
1.0004
1.00248
1.0038
1.00244
1.00051
1.00019
0.999997
0.999997
0.999998
0.999999
0.999999
0.999999
1
1
1.00001
1.00002
1.00007
1.00024
1.00036
1.00051
1.00249
1.00382
1.00111
1.00039
1.0001
0.999998
0.999998
0.999998
0.999999
0.999999
0.999999
1
1
1.00001
1.00003
1.00009
1.00033
1.00054
1.00081
1.00292
1.00195
1.0006
1.00027
1.00006
0.999998
0.999998
0.999999
0.999999
0.999999
0.999999
0.999999
1
1
1.00002
1.00006
1.00026
1.00057
1.00111
1.00163
1.00075
1.0004
1.00009
1.00003
0.999998
0.999999
0.999999
0.999999
0.999999
0.999999
0.999999
1
1
1.00001
1.00003
1.00009
1.00037
1.00064
1.00064
1.00035
1.00012
1.00003
1.00001
0.999999
0.999999
0.999999
0.999999
0.999999
0.999999
0.999999
0.999999
1
1
1.00001
1.00004
1.00012
1.0002
1.00014
1.00006
1.00002
1.00001
1
0.999999
0.999999
0.999999
0.999999
0.999999
0.999999
0.999999
0.999999
1
1
1.00001
1.00002
1.00003
1.00003
1.00002
1.00001
1.00001
1.00001
1
0.999999
0.999999
0.999999
0.999999
0.999999
0.999999
0.999999
0.999999
1
1
1.00001
1.00001
1.00001
1.00001
1.00001
1
1.00001
1
1
0.999999
0.999999
0.999999
0.999999
0.999999
0.999999
0.999999
0.999999
1
1
1
1
1
1
1
1
1
1
1
)
;

boundaryField
{
    leftWall
    {
        type            calculated;
        value           nonuniform List<scalar> 
50
(
13529
13526.6
12704
3229.31
1000.11
1000.07
1000.09
1000.07
1000.03
1000
999.999
999.715
982.251
790.655
132.881
3.04183
1.00386
1.00018
1.00009
1.00005
1.00006
1.00005
1.00003
1.00001
1
0.999999
0.999999
0.999999
0.999999
0.999999
0.999999
0.999999
0.999999
0.999999
0.999999
0.999999
0.999999
1
1
1
1
1
1
1
1
1
1
1
1
1
)
;
    }
    rightWall
    {
        type            calculated;
        value           nonuniform List<scalar> 
50
(
11522.8
11524.9
11529.6
11534.6
11465.1
9288.51
4008.33
1793.09
1177.2
778.773
679.812
694.645
745.735
820.35
904.196
965.324
1005.02
979.135
930.695
819.72
786.875
766.186
738.292
429.99
29.5616
1.01782
5.48836
96.5499
368.474
487.322
492.928
492.927
485.566
375.141
93.099
1.81527
1.00225
1.00079
1.00062
1.00045
1.00032
1.00019
1.0001
1.00006
1.00003
1.00001
1
1
1
1
)
;
    }
    lowerWall
    {
        type            calculated;
        value           nonuniform List<scalar> 
62
(
13529
13529
13529
13529
13529
13529
13529
13529
13529
13529
13529
13529
13529
13529
13529
13529
13529
13529
13529
13529
13529
13528.9
13528.9
13528.9
13528.8
13528.8
13528.8
13528.8
13528.3
13406.3
10929.3
4874.13
4824.86
4635.89
4280.28
11444.7
11314.2
9577.06
3713.55
2154.85
1996.98
2014
2083.64
11444.7
11449
11450.5
11456.9
11464.1
11472.5
11479.5
11489.8
11493.7
11494.7
11498
11508.6
11508.7
11510.4
11511.4
11518
11522.9
11523.5
11522.8
)
;
    }
    atmosphere
    {
        type            calculated;
        value           nonuniform List<scalar> 
46
(
1
1
1
1
1
1
1
1
1
1
1
1
1
1
1
1
1
1
1
1
1
1
0.999999
0.999998
0.999998
0.999998
0.999999
0.999999
0.999999
0.999999
1
1
1
1
1
1
1
1
1
1
1
1
1
1
1
1
)
;
    }
    defaultFaces
    {
        type            empty;
    }
}


// ************************************************************************* //
