/*--------------------------------*- C++ -*----------------------------------*\
| =========                 |                                                 |
| \\      /  F ield         | OpenFOAM: The Open Source CFD Toolbox           |
|  \\    /   O peration     | Version:  2.4.0                                 |
|   \\  /    A nd           | Web:      www.OpenFOAM.org                      |
|    \\/     M anipulation  |                                                 |
\*---------------------------------------------------------------------------*/
FoamFile
{
    version     2.0;
    format      ascii;
    class       volVectorField;
    location    "0.75";
    object      U.air;
}
// * * * * * * * * * * * * * * * * * * * * * * * * * * * * * * * * * * * * * //

dimensions      [0 1 -1 0 0 0 0];

internalField   nonuniform List<vector> 
2268
(
(0.0105948 -0.0210506 0)
(0.0292568 -0.0220448 0)
(0.0531071 -0.0192833 0)
(0.0592664 -0.0202846 0)
(0.0757112 -0.0212192 0)
(0.091584 -0.0179522 0)
(0.0854887 -0.0074705 0)
(0.0677756 0.0132172 0)
(0.0265596 0.0310726 0)
(-0.0236603 0.0445479 0)
(-0.0781128 0.0498834 0)
(-0.126513 0.0383358 0)
(-0.173724 0.0165826 0)
(-0.193529 0.00240213 0)
(-0.186465 -0.00759257 0)
(-0.167042 -0.0107384 0)
(-0.146712 -0.00815397 0)
(-0.13055 -0.00761641 0)
(-0.112419 -0.00435795 0)
(-0.0916314 -0.0101765 0)
(-0.0548633 -0.00366731 0)
(-0.0435133 0.000487832 0)
(-0.0346139 -0.0090262 0)
(0.0126131 0.00945968 0)
(0.0269692 0.00776108 0)
(0.0513215 0.0125678 0)
(0.0637175 0.0132404 0)
(0.0791818 0.0114219 0)
(0.093502 0.0176531 0)
(0.0965754 0.0198967 0)
(0.0818757 0.0168679 0)
(0.0475503 0.0106564 0)
(-0.0140842 0.00598735 0)
(-0.0860987 0.00420723 0)
(-0.144975 0.0127336 0)
(-0.185112 0.0162381 0)
(-0.196861 0.00356155 0)
(-0.187537 -0.00559335 0)
(-0.166411 -0.00896353 0)
(-0.144612 -0.0094398 0)
(-0.127161 -0.00939081 0)
(-0.109104 -0.0126231 0)
(-0.0812848 -0.0171698 0)
(-0.0545308 -0.0186926 0)
(-0.0309402 -0.00926861 0)
(-0.0146592 -0.0294435 0)
(0.0143228 -0.0623963 0)
(0.0254251 -0.0649791 0)
(0.046024 -0.0540764 0)
(0.0712515 -0.0533778 0)
(0.0778849 -0.0523739 0)
(0.0817003 -0.0357705 0)
(0.0773271 -0.0090817 0)
(0.0617906 0.0342271 0)
(0.0345438 0.0925327 0)
(-0.022222 0.118133 0)
(-0.0884436 0.0958345 0)
(-0.140113 0.0673704 0)
(-0.173246 0.0309191 0)
(-0.193451 0.00154937 0)
(-0.188789 -0.0206844 0)
(-0.172976 -0.0287555 0)
(-0.150957 -0.0258629 0)
(-0.127557 -0.0234488 0)
(-0.107152 -0.0238362 0)
(-0.0709729 -0.0348631 0)
(-0.0513232 -0.0275309 0)
(-0.0156677 -0.0159187 0)
(-2.53004e-05 -0.0310743 0)
(0.0152576 -0.108914 0)
(0.0233677 -0.106905 0)
(0.0398261 -0.112223 0)
(0.0717394 -0.109034 0)
(0.0742605 -0.105016 0)
(0.073273 -0.0999187 0)
(0.0846742 -0.0858158 0)
(0.0895246 -0.0440149 0)
(0.049062 0.0112215 0)
(-0.0402621 0.0555642 0)
(-0.119962 0.0838762 0)
(-0.15675 0.0710062 0)
(-0.182835 0.0495367 0)
(-0.19676 0.00758251 0)
(-0.191479 -0.0175535 0)
(-0.174184 -0.0284414 0)
(-0.147507 -0.0321187 0)
(-0.118628 -0.0319769 0)
(-0.09535 -0.0380496 0)
(-0.0732396 -0.0446836 0)
(-0.0680037 -0.0469324 0)
(-0.0228124 -0.031263 0)
(-0.00264385 -0.0362361 0)
(0.00191374 -0.0914451 0)
(0.0141451 -0.0869413 0)
(0.0152296 -0.0870747 0)
(0.0114837 -0.0773887 0)
(0.00829672 -0.0532211 0)
(0.00236601 -0.0309062 0)
(0.0136274 0.0372695 0)
(0.0457658 0.0922348 0)
(0.0138038 0.109438 0)
(-0.102186 0.119139 0)
(-0.179171 0.117917 0)
(-0.223862 0.0840399 0)
(-0.230718 0.0477261 0)
(-0.224447 0.0110232 0)
(-0.206408 -0.0275149 0)
(-0.177343 -0.0467456 0)
(-0.142299 -0.0506716 0)
(-0.104263 -0.0472228 0)
(-0.0796796 -0.0466945 0)
(-0.0727119 -0.0465101 0)
(-0.076303 -0.0515138 0)
(-0.0448525 -0.0486007 0)
(-0.00314224 -0.0451715 0)
(-0.000872899 -0.0235455 0)
(0.00312428 -0.017522 0)
(-0.00104228 -0.0169851 0)
(-0.0140643 -0.0047237 0)
(-0.045283 0.00290308 0)
(-0.0802138 -0.00162424 0)
(-0.131142 -0.0406265 0)
(-0.158164 -0.0576194 0)
(-0.114263 0.0247198 0)
(-0.208617 0.133042 0)
(-0.275028 0.131461 0)
(-0.288737 0.088989 0)
(-0.282955 0.0339643 0)
(-0.275817 -0.0124289 0)
(-0.258613 -0.0429575 0)
(-0.21347 -0.0585349 0)
(-0.156261 -0.0671218 0)
(-0.101376 -0.0594831 0)
(-0.0754541 -0.0488165 0)
(-0.0702512 -0.0447469 0)
(-0.0745363 -0.0539792 0)
(-0.0612894 -0.0581009 0)
(-0.0126042 -0.0581464 0)
(0.000434441 -0.0371389 0)
(0.00308878 -0.0322084 0)
(0.00230014 -0.0281408 0)
(-0.00413745 -0.0120128 0)
(-0.0215639 0.0110846 0)
(-0.0396935 0.0308129 0)
(-0.0670123 0.0844636 0)
(-0.142689 0.144263 0)
(-0.214304 0.184152 0)
(-0.325992 0.148363 0)
(-0.424939 0.123618 0)
(-0.401124 0.0960562 0)
(-0.363192 0.0578883 0)
(-0.326531 0.00674195 0)
(-0.306635 -0.0516573 0)
(-0.261038 -0.0886205 0)
(-0.189907 -0.0999673 0)
(-0.131414 -0.0807646 0)
(-0.0901512 -0.0577252 0)
(-0.0705543 -0.0490087 0)
(-0.0594703 -0.0647678 0)
(-0.0565244 -0.0813365 0)
(-0.01547 -0.0826683 0)
(0.00142526 -0.0534383 0)
(0.00566354 -0.0466003 0)
(0.00428411 -0.0367737 0)
(-0.00849388 -0.0147732 0)
(-0.0290786 0.00105623 0)
(-0.0617777 0.00231111 0)
(-0.0968387 0.00891975 0)
(-0.127112 0.0472938 0)
(-0.173657 0.156242 0)
(-0.276862 0.18723 0)
(-0.466094 0.0849638 0)
(-0.48638 0.0182331 0)
(-0.465564 -0.0204325 0)
(-0.426292 -0.0454048 0)
(-0.359025 -0.0858483 0)
(-0.271144 -0.13413 0)
(-0.216259 -0.163433 0)
(-0.184312 -0.148775 0)
(-0.134912 -0.116656 0)
(-0.0647874 -0.097018 0)
(-0.027888 -0.110147 0)
(-0.0407388 -0.122062 0)
(-0.00931926 -0.131708 0)
(-0.187015 -0.107303 0)
(-0.0581166 -0.199495 0)
(0.124651 -0.152434 0)
(0.281914 -0.13575 0)
(0.395524 -0.0867439 0)
(0.467727 -0.0778624 0)
(0.514358 -0.0938923 0)
(0.550876 -0.137179 0)
(0.594708 -0.144564 0)
(0.64656 -0.136151 0)
(0.695514 -0.131609 0)
(0.734545 -0.136277 0)
(0.735129 -0.165622 0)
(0.71016 -0.162367 0)
(0.625809 -0.100929 0)
(0.429054 -0.0469201 0)
(0.167533 -0.0431946 0)
(-0.0874822 -0.119325 0)
(-0.0209413 -0.157889 0)
(-0.241156 0.15419 0)
(0.2434 -0.012427 0)
(0.40232 0.0144119 0)
(0.486914 0.20202 0)
(0.5507 0.331683 0)
(0.582251 0.337844 0)
(0.602754 0.330097 0)
(0.620188 0.278801 0)
(0.637807 0.169525 0)
(0.663374 0.118139 0)
(0.695076 0.191666 0)
(0.714724 0.203841 0)
(0.701679 0.214371 0)
(0.700635 0.204302 0)
(0.638024 0.281173 0)
(0.487851 0.326396 0)
(0.294606 0.250313 0)
(0.038919 0.184383 0)
(-0.0775565 0.100038 0)
(-0.110958 -0.00539795 0)
(0.36752 -0.352329 0)
(0.624265 -0.353568 0)
(0.84361 -0.215024 0)
(1.00069 -0.155295 0)
(0.962999 -0.139661 0)
(0.903323 -0.154973 0)
(0.814546 -0.129719 0)
(0.735581 -0.14265 0)
(0.655385 -0.141523 0)
(0.563257 -0.0874935 0)
(0.432247 -0.0308632 0)
(0.355519 -0.0306656 0)
(0.336545 -0.110288 0)
(0.422844 -0.00216216 0)
(0.441949 0.181259 0)
(0.299534 0.227071 0)
(0.0612725 0.154867 0)
(-0.0634763 -0.0780359 0)
(0.395676 -0.167174 0)
(0.44447 -0.430032 0)
(0.466819 -0.455775 0)
(0.558753 -0.401062 0)
(0.794185 -0.183015 0)
(0.893487 -0.0750828 0)
(0.865707 -0.0276633 0)
(0.773292 0.013078 0)
(0.706396 0.202346 0)
(0.671761 0.252263 0)
(0.612636 0.228404 0)
(0.553187 0.1205 0)
(0.432494 0.00370807 0)
(0.387335 -0.0276039 0)
(0.0146259 -0.0815918 0)
(0.235496 0.149938 0)
(0.2351 0.274143 0)
(0.0870843 0.236965 0)
(-0.0225603 0.0439701 0)
(0.361701 -0.491008 0)
(0.343432 -0.554542 0)
(0.408955 -0.501964 0)
(0.459417 -0.222217 0)
(0.528346 0.189926 0)
(0.566531 0.359158 0)
(0.594555 0.421915 0)
(0.621781 0.379336 0)
(0.614867 0.414213 0)
(0.592867 0.45134 0)
(0.539156 0.527193 0)
(0.449237 0.499962 0)
(0.404153 0.187633 0)
(0.259274 0.136278 0)
(-0.0784946 -0.000866396 0)
(-0.174607 0.0918723 0)
(0.129992 0.287105 0)
(0.0588982 0.284771 0)
(0.101493 0.0197939 0)
(0.308791 -0.543359 0)
(0.293807 -0.547934 0)
(0.349672 -0.458311 0)
(0.350033 -0.27251 0)
(0.401118 -0.0658047 0)
(0.48642 -0.0232526 0)
(0.563401 0.215645 0)
(0.563423 0.29141 0)
(0.50782 0.307921 0)
(0.461018 0.32221 0)
(0.436207 0.377203 0)
(0.388693 0.478192 0)
(0.351549 0.441657 0)
(0.234399 0.262136 0)
(-0.0998326 0.149673 0)
(-0.242641 0.129667 0)
(-0.00281475 0.172009 0)
(-0.0013469 0.296701 0)
(0.155727 0.0806151 0)
(0.309619 -0.425756 0)
(0.279665 -0.425913 0)
(0.295563 -0.270008 0)
(0.23838 -0.0424934 0)
(0.294205 -0.131128 0)
(0.425289 -0.0762001 0)
(0.504666 0.272424 0)
(0.487468 0.323673 0)
(0.450549 0.350258 0)
(0.412363 0.365847 0)
(0.390199 0.399351 0)
(0.374597 0.509022 0)
(0.304585 0.682576 0)
(0.212653 0.350407 0)
(-0.0931599 0.24585 0)
(-0.277068 0.150536 0)
(-0.186593 0.152189 0)
(-0.121641 0.239837 0)
(0.179644 -0.0639351 0)
(0.189549 -0.209609 0)
(0.00463417 0.0949035 0)
(0.0659142 0.155003 0)
(0.160872 0.141289 0)
(0.285587 -0.058406 0)
(0.354027 0.0546385 0)
(0.450276 0.291111 0)
(0.450917 0.253697 0)
(0.420295 0.240996 0)
(0.356698 0.369363 0)
(0.28359 0.415903 0)
(0.266214 0.531063 0)
(0.267389 0.758139 0)
(0.236447 0.451097 0)
(0.0176142 0.358095 0)
(-0.235358 0.134692 0)
(-0.276265 0.154375 0)
(-0.273076 0.208204 0)
(0.193791 -0.113393 0)
(0.00556294 -0.0355172 0)
(0.0141483 -0.0274864 0)
(0.0323985 -0.018949 0)
(0.0461995 0.018767 0)
(0.0323043 0.0700105 0)
(-0.00102369 0.100495 0)
(-0.0373248 0.151549 0)
(-0.0991668 0.199578 0)
(-0.144059 0.24862 0)
(-0.132616 0.303406 0)
(-0.189839 0.219956 0)
(-0.270908 0.11692 0)
(-0.312945 0.0209608 0)
(-0.299587 -0.102086 0)
(-0.239114 -0.240992 0)
(-0.207657 -0.267401 0)
(-0.205421 -0.235703 0)
(-0.177819 -0.194007 0)
(-0.114354 -0.189671 0)
(-0.0417915 -0.179619 0)
(0.0257031 -0.107805 0)
(0.0176215 -0.1068 0)
(-0.0365978 -0.171363 0)
(0.0103486 -0.0608793 0)
(0.0265318 -0.0600941 0)
(0.046124 -0.0558638 0)
(0.0444694 -0.0157453 0)
(0.0322969 0.0357792 0)
(0.00512611 0.0543378 0)
(-0.0152894 0.0892873 0)
(-0.0344156 0.136126 0)
(-0.0359996 0.186239 0)
(-0.00897549 0.234203 0)
(0.0622674 0.238768 0)
(0.103733 0.127336 0)
(0.122662 0.00985969 0)
(0.154577 -0.072852 0)
(0.152209 -0.105735 0)
(0.136441 -0.098035 0)
(0.156979 -0.0969884 0)
(0.166346 -0.0269381 0)
(0.203093 0.00842345 0)
(0.210843 0.028162 0)
(0.214763 0.00468516 0)
(0.251557 -0.0126724 0)
(0.296857 0.045061 0)
(0.00924571 -0.0971983 0)
(0.0301278 -0.0887871 0)
(0.0850162 -0.0603607 0)
(0.103719 0.033436 0)
(0.0858546 0.0873531 0)
(0.0155562 0.12136 0)
(-0.0348194 0.159082 0)
(-0.0631547 0.184303 0)
(-0.0513185 0.193938 0)
(-0.0194897 0.195843 0)
(0.0359708 0.175972 0)
(0.104255 0.109906 0)
(0.142664 0.015864 0)
(0.178309 -0.0361566 0)
(0.191809 -0.0436374 0)
(0.196703 -0.0376354 0)
(0.265288 0.0211906 0)
(0.314479 0.158542 0)
(0.338015 0.318606 0)
(0.214362 0.516926 0)
(0.108984 0.478859 0)
(0.147977 0.177283 0)
(0.149115 -0.00492474 0)
(-0.00649194 -0.078113 0)
(0.0260895 -0.126598 0)
(0.0868828 -0.14115 0)
(0.0243624 -0.02373 0)
(-0.0172162 0.145099 0)
(-0.0722409 0.209693 0)
(-0.0990361 0.198991 0)
(-0.103544 0.166373 0)
(-0.0867474 0.150343 0)
(-0.0622507 0.128808 0)
(-0.0225273 0.0872827 0)
(0.0228037 0.052975 0)
(0.074351 0.140221 0)
(0.152686 0.163362 0)
(0.206737 0.263128 0)
(0.196002 0.278893 0)
(0.232234 0.252873 0)
(0.237837 0.173169 0)
(0.302514 0.0945318 0)
(0.120221 0.168224 0)
(-0.308444 0.377555 0)
(-0.544252 0.356379 0)
(-0.589035 0.338163 0)
(-0.0135853 0.131137 0)
(-0.0518238 0.114183 0)
(-0.246571 0.282074 0)
(-0.379682 0.467121 0)
(-0.42046 0.515553 0)
(-0.401114 0.525453 0)
(-0.301935 0.51085 0)
(-0.24886 0.476041 0)
(-0.203252 0.44682 0)
(-0.14181 0.440535 0)
(-0.0956421 0.416226 0)
(-0.0103782 0.368401 0)
(0.0580015 0.415931 0)
(0.0591509 0.226876 0)
(0.0569563 -0.00321105 0)
(0.0306986 -0.121607 0)
(0.044244 -0.134218 0)
(0.0118269 0.0301044 0)
(-0.0407804 0.558555 0)
(-0.605307 0.818427 0)
(-0.855846 0.472493 0)
(-1.09751 0.636288 0)
(-1.1659 0.728919 0)
(-0.0527207 0.41849 0)
(-0.290299 0.520153 0)
(-0.469487 0.43664 0)
(-0.529877 0.377866 0)
(-0.562594 0.326272 0)
(-0.541151 0.223225 0)
(-0.499601 0.190663 0)
(-0.448573 0.274768 0)
(-0.382541 0.266596 0)
(-0.312032 0.227551 0)
(-0.282825 0.12969 0)
(-0.270439 0.0289499 0)
(-0.236648 0.0211309 0)
(-0.187603 0.111248 0)
(-0.265652 0.743278 0)
(-0.606516 0.806926 0)
(-0.944517 0.0629224 0)
(-0.889815 -0.224437 0)
(-0.856789 -0.127214 0)
(-0.740991 0.349236 0)
(-1.01425 0.242146 0)
(-1.01237 0.304572 0)
(-0.84005 0.702912 0)
(-0.121144 0.440174 0)
(-0.282297 0.488966 0)
(-0.395889 0.619838 0)
(-0.479531 0.85824 0)
(-0.530198 0.854846 0)
(-0.349735 0.786591 0)
(-0.309043 0.780665 0)
(-0.275102 0.616572 0)
(-0.281088 0.603673 0)
(-0.479712 0.74111 0)
(-0.652101 0.83364 0)
(-0.870947 0.77252 0)
(-1.05131 0.250589 0)
(-1.01014 -0.166687 0)
(-0.73572 -0.507387 0)
(-0.413852 -0.461031 0)
(-0.242247 -0.409499 0)
(-0.269581 -0.282344 0)
(-0.396281 0.138288 0)
(-0.495951 0.565461 0)
(-0.83254 0.306922 0)
(-0.847138 0.20122 0)
(-0.771076 0.456853 0)
(-0.0535169 0.895803 0)
(-0.283434 0.756325 0)
(-0.42986 0.239898 0)
(-0.486097 0.0273517 0)
(-0.273988 -0.593361 0)
(-0.186008 -0.682927 0)
(0.0272747 -0.605239 0)
(0.0103483 -0.533176 0)
(-0.0888199 0.0131911 0)
(-0.229287 -0.0127783 0)
(-0.189058 -0.232768 0)
(-0.140687 -0.244532 0)
(0.00946589 -0.332473 0)
(0.0178966 -0.267763 0)
(-0.066327 -0.160897 0)
(-0.214571 -0.0212202 0)
(-0.303075 0.0021194 0)
(-0.395212 0.00471162 0)
(-0.462362 0.230895 0)
(-0.3918 0.655097 0)
(-0.395105 0.645414 0)
(-0.659205 0.489596 0)
(-1.08923 0.917245 0)
(0.0115699 0.434428 0)
(0.0199392 0.54426 0)
(0.0485874 0.353668 0)
(0.0469725 0.292998 0)
(0.218734 0.3362 0)
(0.0646593 0.210954 0)
(0.129824 0.325475 0)
(-0.0500795 0.579841 0)
(-0.205036 0.409528 0)
(-0.129797 0.41546 0)
(-0.213421 0.44488 0)
(-0.293932 0.353149 0)
(-0.24937 0.0632231 0)
(-0.299326 -0.00399516 0)
(-0.366046 -0.0126684 0)
(-0.397592 -0.0965499 0)
(-0.410541 -0.118816 0)
(-0.467503 -0.0746512 0)
(-0.544248 0.156455 0)
(-0.554435 0.54126 0)
(-0.579629 0.649733 0)
(-0.964865 0.773403 0)
(-1.56504 1.56669 0)
(-0.037688 0.468172 0)
(0.0538457 0.502928 0)
(0.0639001 0.347884 0)
(0.00298462 0.0989957 0)
(0.0207144 -0.379195 0)
(0.055369 -0.381242 0)
(-0.0658213 -0.338993 0)
(0.106994 0.08485 0)
(-0.0438413 0.294556 0)
(-0.0459856 0.272995 0)
(-0.131118 0.169681 0)
(-0.0136986 -0.149632 0)
(-0.0207203 -0.298859 0)
(-0.110441 -0.241736 0)
(-0.0937781 -0.177218 0)
(-0.131727 -0.0945586 0)
(-0.228683 0.00741545 0)
(-0.367618 0.129486 0)
(-0.574568 0.269131 0)
(-0.711723 0.603802 0)
(-0.847326 0.924301 0)
(-1.16493 1.12824 0)
(-1.40634 1.70403 0)
(-0.0816673 0.501158 0)
(0.0638271 0.418491 0)
(0.0914276 0.303789 0)
(0.21435 0.15927 0)
(0.183343 0.130099 0)
(0.0773532 0.107702 0)
(-0.0858515 0.130146 0)
(-0.0407189 0.301414 0)
(-0.039776 0.375904 0)
(0.0386678 0.334969 0)
(0.0526537 0.225008 0)
(0.141583 0.200668 0)
(-0.00107809 0.169017 0)
(-0.128331 0.0992015 0)
(-0.203984 0.0957241 0)
(-0.292141 0.104353 0)
(-0.359451 0.175004 0)
(-0.430565 0.312424 0)
(-0.542163 0.515558 0)
(-0.68946 0.751399 0)
(-0.810775 1.10205 0)
(-1.01828 1.34715 0)
(-1.10748 1.54506 0)
(-0.0566625 0.513136 0)
(0.0734848 0.363037 0)
(0.0679991 0.247551 0)
(0.105367 0.102331 0)
(0.0363281 -0.0574167 0)
(0.0344781 -0.0595248 0)
(-0.0219284 -0.0940592 0)
(-0.00709969 0.184762 0)
(0.018123 0.342991 0)
(0.0712738 0.290889 0)
(0.0545957 0.1436 0)
(0.0215658 -0.00432241 0)
(-0.00875927 -0.0209634 0)
(-0.0576788 -0.0528047 0)
(-0.125795 -0.0251275 0)
(-0.190866 0.0469586 0)
(-0.267164 0.15803 0)
(-0.34129 0.324803 0)
(-0.401048 0.574188 0)
(-0.443881 0.873324 0)
(-0.492017 1.19724 0)
(-0.502114 1.39193 0)
(-0.411756 1.46013 0)
(0.0137742 0.48668 0)
(0.0916115 0.328349 0)
(0.0982077 0.224303 0)
(0.124376 0.143158 0)
(0.0839449 0.120406 0)
(0.0412475 0.119919 0)
(-0.0507516 0.115131 0)
(-0.0792581 0.16549 0)
(-0.00322387 0.254388 0)
(0.0754513 0.250155 0)
(0.074222 0.209926 0)
(0.0328869 0.194001 0)
(-0.0353388 0.19444 0)
(-0.0972997 0.19195 0)
(-0.170354 0.199581 0)
(-0.226048 0.221312 0)
(-0.268575 0.277965 0)
(-0.29007 0.396783 0)
(-0.280726 0.583715 0)
(-0.221721 0.829633 0)
(-0.106741 1.11461 0)
(0.0530506 1.29613 0)
(0.227652 1.29442 0)
(0.0529988 0.391813 0)
(0.0907334 0.296282 0)
(0.102489 0.212926 0)
(0.100238 0.153239 0)
(0.060986 0.117258 0)
(0.0270358 0.115539 0)
(-0.0193612 0.104135 0)
(-0.0584926 0.154854 0)
(-0.034921 0.193227 0)
(0.00558851 0.223882 0)
(0.0096081 0.215982 0)
(-0.0316112 0.18038 0)
(-0.0693873 0.161289 0)
(-0.103629 0.142188 0)
(-0.140449 0.156487 0)
(-0.172005 0.203046 0)
(-0.209819 0.27629 0)
(-0.2312 0.389495 0)
(-0.208056 0.549444 0)
(-0.125879 0.728853 0)
(0.0293392 0.917442 0)
(0.238231 1.04372 0)
(0.454443 1.04402 0)
(0.0413666 0.323332 0)
(0.0672885 0.267403 0)
(0.0877396 0.208678 0)
(0.0702898 0.174229 0)
(0.044737 0.15801 0)
(0.0217623 0.155655 0)
(-0.00829983 0.15399 0)
(-0.0318436 0.171931 0)
(-0.0364961 0.187814 0)
(-0.0298833 0.214211 0)
(-0.0265847 0.22712 0)
(-0.0396093 0.220447 0)
(-0.0625984 0.21482 0)
(-0.0901847 0.21178 0)
(-0.124449 0.221106 0)
(-0.149892 0.247669 0)
(-0.161066 0.303929 0)
(-0.159872 0.381631 0)
(-0.133644 0.488004 0)
(-0.065888 0.615399 0)
(0.0577086 0.741476 0)
(0.231519 0.817504 0)
(0.429005 0.822185 0)
(0.0234343 0.283339 0)
(0.0439481 0.247753 0)
(0.0552848 0.210674 0)
(0.0451899 0.190282 0)
(0.0311212 0.178403 0)
(0.0167215 0.175564 0)
(-0.00068767 0.174503 0)
(-0.0139684 0.184683 0)
(-0.0237473 0.192551 0)
(-0.0275986 0.214358 0)
(-0.0236102 0.230361 0)
(-0.0253222 0.237174 0)
(-0.0332061 0.23699 0)
(-0.0489917 0.2372 0)
(-0.0690694 0.245891 0)
(-0.0865445 0.266892 0)
(-0.0975294 0.307568 0)
(-0.0906384 0.367915 0)
(-0.0643575 0.441429 0)
(-0.0112366 0.52071 0)
(0.081801 0.604339 0)
(0.208192 0.657736 0)
(0.356611 0.664285 0)
(0.0129337 0.25995 0)
(0.0271331 0.23471 0)
(0.0345359 0.21243 0)
(0.0300238 0.199163 0)
(0.0225736 0.189892 0)
(0.0143652 0.186377 0)
(0.00439639 0.185754 0)
(-0.00285468 0.192786 0)
(-0.00853759 0.199931 0)
(-0.0125212 0.215077 0)
(-0.00979677 0.228652 0)
(-0.00780269 0.235573 0)
(-0.00811089 0.237649 0)
(-0.0133172 0.242498 0)
(-0.0212629 0.253145 0)
(-0.0275692 0.272492 0)
(-0.0325227 0.305042 0)
(-0.0261861 0.351423 0)
(-0.0037981 0.408354 0)
(0.0389935 0.461447 0)
(0.105241 0.508807 0)
(0.198524 0.539661 0)
(0.304275 0.544127 0)
(0.00744697 0.245199 0)
(0.0171096 0.224824 0)
(0.0229883 0.211472 0)
(0.0223391 0.202778 0)
(0.0188913 0.196159 0)
(0.014197 0.193018 0)
(0.00794352 0.192699 0)
(0.00326138 0.197508 0)
(-0.000515434 0.203466 0)
(-0.00238068 0.214928 0)
(0.00114086 0.224929 0)
(0.00505323 0.231696 0)
(0.00754711 0.237264 0)
(0.00735441 0.246652 0)
(0.00569855 0.257776 0)
(0.00424429 0.276027 0)
(0.0042768 0.303745 0)
(0.0153888 0.339327 0)
(0.0388287 0.379441 0)
(0.0762044 0.41853 0)
(0.125512 0.444969 0)
(0.192538 0.457967 0)
(0.27045 0.456757 0)
(0.00455173 0.235918 0)
(0.011908 0.217506 0)
(0.0172073 0.208876 0)
(0.017705 0.203175 0)
(0.0162709 0.199066 0)
(0.0128627 0.197131 0)
(0.00848592 0.197508 0)
(0.00506348 0.201228 0)
(0.00231952 0.206153 0)
(0.00202292 0.213907 0)
(0.00472365 0.221453 0)
(0.0088516 0.228466 0)
(0.011478 0.235556 0)
(0.0139629 0.245137 0)
(0.0153598 0.257316 0)
(0.0179898 0.275822 0)
(0.0221415 0.296407 0)
(0.0371777 0.31976 0)
(0.0615808 0.348442 0)
(0.0941095 0.377379 0)
(0.136755 0.393448 0)
(0.188307 0.394235 0)
(0.248292 0.388176 0)
(0.00349938 0.228854 0)
(0.00916859 0.211443 0)
(0.0126943 0.206698 0)
(0.0136593 0.203613 0)
(0.0133232 0.201195 0)
(0.0117186 0.200441 0)
(0.00947376 0.200888 0)
(0.00755084 0.203678 0)
(0.00602145 0.207202 0)
(0.00600286 0.212442 0)
(0.00805083 0.218986 0)
(0.0120043 0.226026 0)
(0.0145665 0.233103 0)
(0.0185025 0.242579 0)
(0.0226565 0.254673 0)
(0.0293623 0.270005 0)
(0.0409143 0.283809 0)
(0.0570953 0.299561 0)
(0.078914 0.320749 0)
(0.109088 0.340598 0)
(0.147814 0.348622 0)
(0.190132 0.343635 0)
(0.23835 0.334683 0)
(0.00281881 0.223248 0)
(0.0069629 0.207573 0)
(0.00972206 0.204799 0)
(0.0114971 0.202824 0)
(0.012366 0.201503 0)
(0.0125749 0.201516 0)
(0.012356 0.202344 0)
(0.0121309 0.204786 0)
(0.0121421 0.208124 0)
(0.0126777 0.212048 0)
(0.0138377 0.216255 0)
(0.0168908 0.222117 0)
(0.0199361 0.229403 0)
(0.0243462 0.237668 0)
(0.0311934 0.247313 0)
(0.0410844 0.25812 0)
(0.0551058 0.270545 0)
(0.0696564 0.283032 0)
(0.0895994 0.296539 0)
(0.116986 0.308231 0)
(0.150086 0.310963 0)
(0.185373 0.303028 0)
(0.223748 0.291585 0)
(0.00222551 0.219087 0)
(0.00563124 0.204027 0)
(0.00891742 0.20214 0)
(0.0110727 0.200844 0)
(0.0124856 0.200587 0)
(0.0137416 0.200744 0)
(0.0148673 0.201806 0)
(0.0161382 0.20396 0)
(0.0178997 0.206711 0)
(0.0202116 0.210391 0)
(0.0224924 0.214008 0)
(0.0257195 0.218845 0)
(0.0305853 0.225477 0)
(0.0363007 0.231292 0)
(0.0437219 0.238041 0)
(0.0531696 0.245449 0)
(0.065971 0.25437 0)
(0.0819713 0.263912 0)
(0.101641 0.27192 0)
(0.126274 0.278579 0)
(0.154398 0.278361 0)
(0.185047 0.268604 0)
(0.214561 0.256498 0)
(0.00204231 0.215269 0)
(0.00519864 0.20084 0)
(0.0079407 0.199631 0)
(0.0101699 0.199135 0)
(0.0121502 0.198936 0)
(0.0139451 0.199223 0)
(0.0156977 0.200143 0)
(0.01777 0.201918 0)
(0.0203996 0.204474 0)
(0.0235749 0.207805 0)
(0.0272869 0.211378 0)
(0.0309895 0.215228 0)
(0.0367158 0.219518 0)
(0.0437492 0.224803 0)
(0.0522259 0.230204 0)
(0.0620805 0.236196 0)
(0.0728615 0.24217 0)
(0.0874424 0.24731 0)
(0.105786 0.251985 0)
(0.12715 0.254883 0)
(0.151111 0.25177 0)
(0.177669 0.242611 0)
(0.201479 0.232051 0)
(0.00175698 0.211924 0)
(0.0047025 0.197962 0)
(0.00727463 0.1971 0)
(0.00978607 0.196764 0)
(0.0120261 0.196781 0)
(0.014194 0.197247 0)
(0.0163158 0.19806 0)
(0.0187333 0.199294 0)
(0.021667 0.201096 0)
(0.0251171 0.204072 0)
(0.0292773 0.207031 0)
(0.0338693 0.209335 0)
(0.0393555 0.212639 0)
(0.0463694 0.216286 0)
(0.0548467 0.220233 0)
(0.0647448 0.224844 0)
(0.0777369 0.22815 0)
(0.0923012 0.230366 0)
(0.108676 0.232199 0)
(0.127072 0.2318 0)
(0.149018 0.227122 0)
(0.169353 0.217919 0)
(0.190048 0.208807 0)
(0.00183247 0.208491 0)
(0.00490328 0.1951 0)
(0.00756423 0.194501 0)
(0.0102044 0.194473 0)
(0.0126901 0.194597 0)
(0.0152011 0.194945 0)
(0.0178522 0.195637 0)
(0.0207311 0.196682 0)
(0.0239262 0.198084 0)
(0.0275016 0.19977 0)
(0.0321816 0.202022 0)
(0.0377941 0.204483 0)
(0.0438115 0.206829 0)
(0.050724 0.208811 0)
(0.0585664 0.211155 0)
(0.0687275 0.213449 0)
(0.0797976 0.214964 0)
(0.0924793 0.216748 0)
(0.106625 0.216086 0)
(0.124292 0.213864 0)
(0.142303 0.207697 0)
(0.159829 0.200175 0)
(0.177695 0.190101 0)
(0.00168711 0.20543 0)
(0.00457004 0.192361 0)
(0.00731852 0.191875 0)
(0.0101223 0.191888 0)
(0.0127976 0.191965 0)
(0.0155175 0.19215 0)
(0.0184134 0.192613 0)
(0.0215177 0.193323 0)
(0.0249607 0.194356 0)
(0.0288229 0.195778 0)
(0.0334946 0.19723 0)
(0.0387447 0.198662 0)
(0.0449322 0.200276 0)
(0.0521972 0.201896 0)
(0.0596669 0.203077 0)
(0.0686847 0.203177 0)
(0.0791463 0.203781 0)
(0.0916843 0.202542 0)
(0.106036 0.200063 0)
(0.120456 0.196287 0)
(0.135904 0.191957 0)
(0.150943 0.183355 0)
(0.167464 0.17192 0)
(0.00165433 0.202108 0)
(0.00459115 0.189345 0)
(0.0073643 0.188781 0)
(0.0103064 0.188762 0)
(0.0132062 0.188957 0)
(0.0162058 0.18931 0)
(0.0193143 0.18965 0)
(0.0226461 0.190112 0)
(0.0263327 0.190755 0)
(0.0305332 0.191556 0)
(0.0351307 0.192159 0)
(0.0399077 0.192911 0)
(0.0457375 0.193212 0)
(0.0522878 0.193906 0)
(0.0606459 0.193637 0)
(0.0699479 0.193566 0)
(0.0797841 0.192366 0)
(0.0904935 0.190257 0)
(0.101847 0.187816 0)
(0.113815 0.183099 0)
(0.128304 0.175676 0)
(0.14275 0.167426 0)
(0.15612 0.158219 0)
(0.00162132 0.199205 0)
(0.00452778 0.186702 0)
(0.00728844 0.186171 0)
(0.0101987 0.186103 0)
(0.0130382 0.186091 0)
(0.0160781 0.186161 0)
(0.0192359 0.186244 0)
(0.0225854 0.186413 0)
(0.0262059 0.186612 0)
(0.0303434 0.186862 0)
(0.0350955 0.18744 0)
(0.0408039 0.187464 0)
(0.0466699 0.187269 0)
(0.053142 0.186735 0)
(0.0599687 0.186215 0)
(0.0674772 0.184803 0)
(0.0763163 0.182571 0)
(0.086242 0.180008 0)
(0.0974931 0.175005 0)
(0.109661 0.169383 0)
(0.121211 0.163542 0)
(0.132787 0.155176 0)
(0.145457 0.1444 0)
(0.00161089 0.195919 0)
(0.00456954 0.183672 0)
(0.00741133 0.183188 0)
(0.01042 0.183155 0)
(0.0133854 0.183141 0)
(0.0165104 0.183097 0)
(0.0197639 0.183058 0)
(0.0232165 0.182994 0)
(0.0269079 0.182869 0)
(0.0308864 0.182668 0)
(0.0351287 0.182287 0)
(0.0397704 0.181953 0)
(0.0451439 0.18142 0)
(0.0512599 0.180352 0)
(0.058103 0.178531 0)
(0.0661285 0.175888 0)
(0.0746395 0.173062 0)
(0.0835541 0.169163 0)
(0.0928513 0.165255 0)
(0.102246 0.159508 0)
(0.112928 0.151595 0)
(0.124003 0.142914 0)
(0.134651 0.133233 0)
(0.00154014 0.193048 0)
(0.00437493 0.180954 0)
(0.00711666 0.180335 0)
(0.0100493 0.180203 0)
(0.0129602 0.180055 0)
(0.0160052 0.179849 0)
(0.0191737 0.179631 0)
(0.0225414 0.179398 0)
(0.0261582 0.179097 0)
(0.0300813 0.178694 0)
(0.0344573 0.178097 0)
(0.0394291 0.177184 0)
(0.0447607 0.175746 0)
(0.0505479 0.173988 0)
(0.0568308 0.171761 0)
(0.063326 0.169057 0)
(0.0703203 0.165652 0)
(0.0781082 0.161352 0)
(0.0866579 0.155488 0)
(0.0959642 0.148928 0)
(0.105207 0.141839 0)
(0.114417 0.133036 0)
(0.123991 0.12293 0)
(0.00151821 0.189934 0)
(0.00443654 0.178052 0)
(0.00723365 0.1774 0)
(0.0102029 0.177256 0)
(0.0131232 0.177047 0)
(0.0161439 0.176758 0)
(0.0192307 0.176374 0)
(0.0224462 0.175854 0)
(0.0258472 0.175167 0)
(0.0294897 0.174297 0)
(0.0334024 0.173208 0)
(0.037637 0.171914 0)
(0.0423239 0.170252 0)
(0.0475059 0.168026 0)
(0.0532259 0.165285 0)
(0.0595085 0.161746 0)
(0.0663797 0.157603 0)
(0.0735859 0.152976 0)
(0.0809602 0.147534 0)
(0.0886539 0.140864 0)
(0.0967093 0.132846 0)
(0.105063 0.12396 0)
(0.113334 0.114058 0)
(0.0014439 0.187138 0)
(0.004236 0.175345 0)
(0.00693043 0.174622 0)
(0.00979428 0.174457 0)
(0.0126036 0.174225 0)
(0.0155167 0.17391 0)
(0.0184955 0.173487 0)
(0.0215962 0.172896 0)
(0.0248575 0.172102 0)
(0.0283325 0.171037 0)
(0.0320626 0.169673 0)
(0.0360993 0.167874 0)
(0.0405186 0.165676 0)
(0.0452677 0.163075 0)
(0.0503655 0.159937 0)
(0.0557924 0.156145 0)
(0.0615412 0.151701 0)
(0.0677102 0.146414 0)
(0.0743222 0.140155 0)
(0.0813005 0.133095 0)
(0.0883691 0.125197 0)
(0.0955224 0.116193 0)
(0.102733 0.106226 0)
(0.00144111 0.184191 0)
(0.00423467 0.172453 0)
(0.00687425 0.171686 0)
(0.00968485 0.171502 0)
(0.012399 0.1712 0)
(0.0152076 0.170799 0)
(0.0180429 0.170249 0)
(0.0209418 0.1695 0)
(0.0239226 0.168505 0)
(0.0270834 0.1672 0)
(0.0304324 0.165584 0)
(0.0339966 0.163633 0)
(0.0378584 0.161227 0)
(0.0420624 0.158273 0)
(0.046584 0.154753 0)
(0.0514239 0.150575 0)
(0.0565839 0.145711 0)
(0.0620269 0.140167 0)
(0.0677268 0.133885 0)
(0.0736539 0.126685 0)
(0.0797621 0.118521 0)
(0.0859767 0.10943 0)
(0.0921928 0.0994413 0)
(0.00138767 0.181455 0)
(0.00409196 0.169979 0)
(0.00659988 0.169177 0)
(0.00928567 0.16902 0)
(0.0118523 0.168712 0)
(0.0145227 0.168275 0)
(0.0172419 0.167668 0)
(0.0200634 0.166851 0)
(0.0229519 0.16577 0)
(0.0258919 0.164384 0)
(0.0289129 0.162556 0)
(0.0320071 0.160229 0)
(0.0352735 0.15736 0)
(0.0387935 0.154074 0)
(0.0426125 0.150318 0)
(0.0467554 0.145973 0)
(0.0512151 0.140904 0)
(0.0558989 0.135087 0)
(0.0607711 0.128456 0)
(0.06586 0.121048 0)
(0.0710922 0.112795 0)
(0.0763737 0.103641 0)
(0.0816516 0.0936105 0)
(0.00144605 0.178618 0)
(0.00395236 0.167281 0)
(0.0061731 0.166418 0)
(0.00865997 0.166249 0)
(0.0110188 0.165905 0)
(0.0135075 0.165423 0)
(0.0160888 0.164823 0)
(0.0187706 0.164009 0)
(0.0215148 0.162894 0)
(0.0242951 0.161486 0)
(0.0271021 0.159659 0)
(0.0299572 0.157315 0)
(0.032889 0.15446 0)
(0.0358808 0.150988 0)
(0.0389815 0.146771 0)
(0.0421899 0.141894 0)
(0.0456618 0.136494 0)
(0.0495028 0.130551 0)
(0.0536672 0.123897 0)
(0.0579491 0.116359 0)
(0.062321 0.107959 0)
(0.0667399 0.0987345 0)
(0.0711322 0.0886908 0)
(0.0014921 0.176062 0)
(0.00372295 0.165263 0)
(0.00549296 0.164451 0)
(0.00763959 0.164262 0)
(0.00964545 0.163851 0)
(0.0118198 0.163267 0)
(0.0140835 0.162428 0)
(0.0164757 0.161419 0)
(0.0189899 0.160218 0)
(0.0216102 0.158746 0)
(0.0242902 0.156914 0)
(0.0270014 0.154612 0)
(0.0297227 0.151747 0)
(0.0323976 0.148233 0)
(0.0350802 0.144104 0)
(0.0378287 0.139283 0)
(0.0406926 0.133618 0)
(0.0435325 0.127041 0)
(0.0464674 0.119896 0)
(0.0498301 0.112303 0)
(0.0534631 0.103975 0)
(0.0570753 0.0947415 0)
(0.0606186 0.084665 0)
(0.00151004 0.173483 0)
(0.00313669 0.163557 0)
(0.00414261 0.162637 0)
(0.00566792 0.162353 0)
(0.00705823 0.161857 0)
(0.00871633 0.16113 0)
(0.0104441 0.160166 0)
(0.0123819 0.159008 0)
(0.0145329 0.157679 0)
(0.0169032 0.15608 0)
(0.0194334 0.154166 0)
(0.0220235 0.151817 0)
(0.0246017 0.148922 0)
(0.0272541 0.145471 0)
(0.0299288 0.141368 0)
(0.0325664 0.136547 0)
(0.0351107 0.131009 0)
(0.0375112 0.124792 0)
(0.039967 0.117604 0)
(0.0423246 0.109387 0)
(0.044596 0.100652 0)
(0.0473454 0.0914641 0)
(0.0501079 0.0814886 0)
(0.00135761 0.171288 0)
(0.00211831 0.162626 0)
(0.00184389 0.161814 0)
(0.00238879 0.161303 0)
(0.00280021 0.160644 0)
(0.00363565 0.159762 0)
(0.0045729 0.158629 0)
(0.00582339 0.157218 0)
(0.00738579 0.155525 0)
(0.0092987 0.15362 0)
(0.011598 0.151514 0)
(0.0142423 0.149104 0)
(0.0170509 0.146239 0)
(0.0198633 0.142798 0)
(0.0226135 0.138736 0)
(0.0251912 0.133949 0)
(0.0276167 0.128445 0)
(0.0301442 0.122222 0)
(0.0325339 0.115262 0)
(0.0346322 0.107636 0)
(0.0365738 0.0989466 0)
(0.0381251 0.0892223 0)
(0.0396661 0.0790802 0)
(0.000938749 0.170062 0)
(0.000465103 0.162701 0)
(-0.0011393 0.161926 0)
(-0.00187078 0.161122 0)
(-0.00272343 0.160232 0)
(-0.00306853 0.159128 0)
(-0.00318914 0.157759 0)
(-0.00297081 0.156126 0)
(-0.00246541 0.15424 0)
(-0.00149245 0.151962 0)
(-7.35984e-05 0.149364 0)
(0.0018505 0.146458 0)
(0.00434574 0.143271 0)
(0.00729517 0.139722 0)
(0.0106051 0.135698 0)
(0.0141004 0.131166 0)
(0.0175243 0.125967 0)
(0.0205446 0.119957 0)
(0.0230709 0.113119 0)
(0.0253621 0.105522 0)
(0.0273894 0.0972375 0)
(0.0289693 0.0883027 0)
(0.0297392 0.078205 0)
(0.000548799 0.169794 0)
(-0.0011303 0.164825 0)
(-0.00394086 0.164119 0)
(-0.00582079 0.163055 0)
(-0.00778715 0.161808 0)
(-0.00927577 0.160284 0)
(-0.0103828 0.158536 0)
(-0.0110749 0.156466 0)
(-0.0112443 0.154016 0)
(-0.0110428 0.151223 0)
(-0.0104111 0.148087 0)
(-0.00931099 0.1447 0)
(-0.00775071 0.140983 0)
(-0.0057329 0.136853 0)
(-0.00323131 0.132336 0)