/*--------------------------------*- C++ -*----------------------------------*\
| =========                 |                                                 |
| \\      /  F ield         | OpenFOAM: The Open Source CFD Toolbox           |
|  \\    /   O peration     | Version:  2.4.0                                 |
|   \\  /    A nd           | Web:      www.OpenFOAM.org                      |
|    \\/     M anipulation  |                                                 |
\*---------------------------------------------------------------------------*/
FoamFile
{
    version     2.0;
    format      ascii;
    class       volVectorField;
    location    "0.75";
    object      U.mercury;
}
// * * * * * * * * * * * * * * * * * * * * * * * * * * * * * * * * * * * * * //

dimensions      [0 1 -1 0 0 0 0];

internalField   nonuniform List<vector> 
2268
(
(0.0105947 -0.0210507 0)
(0.0292568 -0.0220449 0)
(0.0531071 -0.0192834 0)
(0.0592665 -0.0202847 0)
(0.0757115 -0.0212195 0)
(0.0915847 -0.0179525 0)
(0.0854896 -0.00747084 0)
(0.0677767 0.0132168 0)
(0.0265606 0.0310722 0)
(-0.0236598 0.0445477 0)
(-0.078113 0.0498833 0)
(-0.126514 0.0383358 0)
(-0.173725 0.0165826 0)
(-0.19353 0.00240206 0)
(-0.186466 -0.00759265 0)
(-0.167043 -0.0107384 0)
(-0.146713 -0.00815398 0)
(-0.13055 -0.0076164 0)
(-0.112419 -0.0043579 0)
(-0.0916316 -0.0101764 0)
(-0.0548636 -0.00366729 0)
(-0.0435136 0.000487842 0)
(-0.034614 -0.00902623 0)
(0.012613 0.00942392 0)
(0.0269693 0.00771638 0)
(0.0513216 0.0125504 0)
(0.0637177 0.0132246 0)
(0.0791824 0.0114077 0)
(0.0935026 0.0176496 0)
(0.0965762 0.0198956 0)
(0.0818768 0.0168665 0)
(0.0475515 0.0106552 0)
(-0.0140836 0.00598638 0)
(-0.0860987 0.00420678 0)
(-0.144976 0.0127333 0)
(-0.185113 0.0162378 0)
(-0.196863 0.00356118 0)
(-0.187538 -0.00559372 0)
(-0.166411 -0.00896379 0)
(-0.144612 -0.00943991 0)
(-0.127161 -0.00939079 0)
(-0.109104 -0.012623 0)
(-0.0812851 -0.0171696 0)
(-0.0545311 -0.0186924 0)
(-0.0309405 -0.00926852 0)
(-0.0146593 -0.0294435 0)
(0.0143338 -0.0734624 0)
(0.0254836 -0.076146 0)
(0.0461267 -0.0641923 0)
(0.0714168 -0.0629563 0)
(0.0781929 -0.0610971 0)
(0.0821186 -0.041596 0)
(0.0775638 -0.0110255 0)
(0.0618113 0.0340809 0)
(0.0345455 0.0925263 0)
(-0.0222213 0.118131 0)
(-0.0884435 0.0958333 0)
(-0.140113 0.0673699 0)
(-0.173247 0.0309186 0)
(-0.193452 0.0015487 0)
(-0.18879 -0.020685 0)
(-0.172976 -0.0287559 0)
(-0.150957 -0.0258631 0)
(-0.127557 -0.0234487 0)
(-0.107152 -0.0238359 0)
(-0.0709731 -0.0348628 0)
(-0.0513235 -0.0275306 0)
(-0.015668 -0.0159185 0)
(-2.54347e-05 -0.0310742 0)
(0.015554 -0.231565 0)
(0.0239487 -0.22974 0)
(0.041099 -0.229656 0)
(0.0742029 -0.223906 0)
(0.0784395 -0.213994 0)
(0.0795982 -0.196396 0)
(0.0903646 -0.163378 0)
(0.0956528 -0.0968732 0)
(0.0579963 -0.0163059 0)
(-0.0381974 0.0502675 0)
(-0.119925 0.0837862 0)
(-0.15675 0.0710045 0)
(-0.182836 0.049536 0)
(-0.196762 0.00758185 0)
(-0.19148 -0.017554 0)
(-0.174185 -0.0284417 0)
(-0.147508 -0.0321185 0)
(-0.118628 -0.0319765 0)
(-0.0953501 -0.038049 0)
(-0.0732398 -0.0446829 0)
(-0.068004 -0.0469319 0)
(-0.0228127 -0.0312626 0)
(-0.00264403 -0.0362359 0)
(0.0114863 -0.117512 0)
(0.0147826 -0.113674 0)
(0.0169501 -0.114094 0)
(0.0155623 -0.105256 0)
(0.0127907 -0.0837645 0)
(0.00638321 -0.0650699 0)
(0.0773571 -0.160198 0)
(0.0938589 -0.183791 0)
(0.0622533 -0.0837132 0)
(-0.0800784 0.0712023 0)
(-0.175926 0.111702 0)
(-0.223715 0.083634 0)
(-0.230717 0.0477214 0)
(-0.224448 0.0110223 0)
(-0.206409 -0.0275153 0)
(-0.177343 -0.0467454 0)
(-0.142299 -0.050671 0)
(-0.104263 -0.047222 0)
(-0.0796797 -0.0466936 0)
(-0.0727121 -0.0465092 0)
(-0.0763033 -0.0515129 0)
(-0.044853 -0.0486001 0)
(-0.00314248 -0.0451713 0)
(-0.000928312 -0.0447283 0)
(0.00325484 -0.038329 0)
(-0.000764845 -0.0373731 0)
(-0.0134573 -0.0252538 0)
(-0.0435162 -0.0174792 0)
(-0.0774691 -0.0219695 0)
(-0.126812 -0.0617883 0)
(-0.0991792 -0.111893 0)
(-0.0365282 -0.142808 0)
(-0.171185 0.0164443 0)
(-0.261935 0.104018 0)
(-0.287259 0.0855583 0)
(-0.282911 0.033708 0)
(-0.275817 -0.0124366 0)
(-0.258613 -0.042959 0)
(-0.21347 -0.0585351 0)
(-0.156261 -0.0671229 0)
(-0.101376 -0.059485 0)
(-0.0754541 -0.0488173 0)
(-0.0702514 -0.0447478 0)
(-0.0745367 -0.0539965 0)
(-0.0612893 -0.0581569 0)
(-0.0126045 -0.0581495 0)
(0.000486107 -0.0563096 0)
(0.00326058 -0.0504654 0)
(0.00281961 -0.0451128 0)
(-0.00296294 -0.0287398 0)
(-0.0204101 -0.00485169 0)
(-0.0386443 0.0144588 0)
(-0.0651493 0.0671302 0)
(-0.146957 0.122116 0)
(-0.393766 -0.00376344 0)
(-0.402671 -0.00176863 0)
(-0.402543 0.0685419 0)
(-0.397018 0.0855015 0)
(-0.362936 0.0563164 0)
(-0.326525 0.00663846 0)
(-0.306626 -0.0518425 0)
(-0.26108 -0.0901261 0)
(-0.190036 -0.102787 0)
(-0.131497 -0.0840765 0)
(-0.0901864 -0.0608768 0)
(-0.0705882 -0.0522187 0)
(-0.0594822 -0.0696637 0)
(-0.0563074 -0.0872108 0)
(-0.015348 -0.0857688 0)
(0.00139234 -0.0729996 0)
(0.00566182 -0.0647755 0)
(0.0044503 -0.0533339 0)
(-0.00804665 -0.0327674 0)
(-0.0282436 -0.0174213 0)
(-0.0605012 -0.0146518 0)
(-0.0951681 -0.00978615 0)
(-0.127652 0.025413 0)
(-0.352347 -0.00342917 0)
(-0.453143 -0.0664566 0)
(-0.467027 -0.021942 0)
(-0.479734 -0.0101578 0)
(-0.464629 -0.02664 0)
(-0.426102 -0.0496837 0)
(-0.358967 -0.0955549 0)
(-0.271862 -0.150355 0)
(-0.21788 -0.185489 0)
(-0.185848 -0.174306 0)
(-0.135574 -0.144097 0)
(-0.0650876 -0.127061 0)
(-0.0278129 -0.145714 0)
(-0.0385886 -0.159077 0)
(-0.0076621 -0.156258 0)
(-0.189027 -0.13337 0)
(-0.0591629 -0.264456 0)
(0.123921 -0.227108 0)
(0.279885 -0.193096 0)
(0.394551 -0.168751 0)
(0.467313 -0.1671 0)
(0.514181 -0.176486 0)
(0.550759 -0.184498 0)
(0.594509 -0.188805 0)
(0.646449 -0.188585 0)
(0.695597 -0.18911 0)
(0.734863 -0.196638 0)
(0.73577 -0.210368 0)
(0.717087 -0.210227 0)
(0.6547 -0.179855 0)
(0.477539 -0.143348 0)
(0.197034 -0.103172 0)
(-0.0857066 -0.15647 0)
(-0.0224406 -0.197496 0)
(-0.247769 0.123297 0)
(0.238325 -0.165513 0)
(0.394905 -0.197765 0)
(0.467717 -0.147898 0)
(0.533172 -0.0880555 0)
(0.570904 -0.0323129 0)
(0.597347 -0.00305433 0)
(0.618374 0.00671913 0)
(0.636472 0.00175282 0)
(0.661988 -0.012505 0)
(0.694427 -0.00682212 0)
(0.715903 0.0193488 0)
(0.705029 0.0636101 0)
(0.712128 0.110208 0)
(0.671313 0.184339 0)
(0.535032 0.22136 0)
(0.321778 0.18697 0)
(0.0429811 0.14588 0)
(-0.0772345 0.0500346 0)
(-0.129454 -0.0871871 0)
(0.319108 -0.517652 0)
(0.471691 -0.627949 0)
(0.542926 -0.701526 0)
(0.667282 -0.682246 0)
(0.745531 -0.525823 0)
(0.762791 -0.454934 0)
(0.740362 -0.409763 0)
(0.721546 -0.408135 0)
(0.690011 -0.418081 0)
(0.650986 -0.4054 0)
(0.59052 -0.418076 0)
(0.493771 -0.355743 0)
(0.446021 -0.298322 0)
(0.4835 -0.0721847 0)
(0.475783 0.133309 0)
(0.319656 0.192933 0)
(0.0649029 0.124589 0)
(-0.0653674 -0.124716 0)
(0.399643 -0.344667 0)
(0.426943 -0.635912 0)
(0.39795 -0.791436 0)
(0.40328 -0.88354 0)
(0.431691 -0.8622 0)
(0.529782 -0.521601 0)
(0.604177 -0.250164 0)
(0.625384 -0.203985 0)
(0.659194 -0.204572 0)
(0.652826 -0.210674 0)
(0.631834 -0.209251 0)
(0.599532 -0.270738 0)
(0.515071 -0.550177 0)
(0.480609 -0.70774 0)
(0.127372 -0.421068 0)
(0.265611 0.0867705 0)
(0.253801 0.224659 0)
(0.0904331 0.196147 0)
(-0.0238193 -0.0106286 0)
(0.368434 -0.74503 0)
(0.336634 -0.790078 0)
(0.367019 -0.844 0)
(0.399177 -0.900609 0)
(0.403641 -0.71795 0)
(0.457452 -0.268501 0)
(0.485121 -0.173678 0)
(0.512086 -0.197684 0)
(0.550947 -0.2239 0)
(0.58721 -0.20564 0)
(0.600019 -0.155998 0)
(0.588419 -0.0479056 0)
(0.508071 -0.0191356 0)
(0.315674 -0.0145557 0)
(0.0207451 -0.250841 0)
(-0.113465 -0.00629562 0)
(0.175208 0.233466 0)
(0.070194 0.247604 0)
(0.103507 -0.046508 0)
(0.332138 -0.800651 0)
(0.318254 -0.822959 0)
(0.342103 -0.86268 0)
(0.336272 -0.889007 0)
(0.33312 -0.50444 0)
(0.400078 -0.220488 0)
(0.442983 -0.132096 0)
(0.459421 -0.132582 0)
(0.465988 -0.229595 0)
(0.491107 -0.244675 0)
(0.509249 -0.192568 0)
(0.537636 -0.0575489 0)
(0.498859 0.0445906 0)
(0.3032 0.105134 0)
(-0.0619616 -0.137981 0)
(-0.152353 -0.00168573 0)
(0.0672901 0.132289 0)
(0.0031277 0.263696 0)
(0.156033 -0.00971203 0)
(0.343369 -0.827304 0)
(0.33337 -0.873834 0)
(0.328214 -0.959403 0)
(0.25813 -0.840848 0)
(0.232228 -0.435368 0)
(0.315272 -0.259281 0)
(0.383772 -0.174948 0)
(0.417443 -0.13478 0)
(0.427283 -0.141396 0)
(0.425113 -0.144109 0)
(0.439673 -0.114881 0)
(0.487989 -0.0455558 0)
(0.483801 0.0633747 0)
(0.274186 0.131461 0)
(-0.132318 -0.113719 0)
(-0.224001 -0.0361091 0)
(-0.138745 0.0825537 0)
(-0.123115 0.205537 0)
(0.174865 -0.21548 0)
(0.332101 -0.829643 0)
(0.318205 -0.895194 0)
(0.335771 -0.990637 0)
(0.184847 -0.716483 0)
(0.0989736 -0.302459 0)
(0.258344 -0.236435 0)
(0.360422 -0.154767 0)
(0.406657 -0.0978886 0)
(0.409443 -0.0656962 0)
(0.38412 -0.0684494 0)
(0.357694 -0.0547901 0)
(0.3797 -0.0105717 0)
(0.429232 0.114631 0)
(0.310721 0.220664 0)
(-0.0934242 -0.137621 0)
(-0.215152 -0.0546351 0)
(-0.240904 -0.00869725 0)
(-0.273699 0.0553862 0)
(0.210122 -0.442088 0)
(0.00546059 -0.0451723 0)
(0.0139384 -0.0363981 0)
(0.0322721 -0.0269465 0)
(0.0463932 0.0103955 0)
(0.0327916 0.0612718 0)
(-0.000656885 0.0928363 0)
(-0.0369679 0.141518 0)
(-0.10045 0.185128 0)
(-0.191096 0.172358 0)
(-0.370727 -0.0564764 0)
(-0.332528 -0.0351228 0)
(-0.306791 -0.013365 0)
(-0.313807 -0.0442647 0)
(-0.300022 -0.153491 0)
(-0.243385 -0.304199 0)
(-0.215709 -0.350668 0)
(-0.216493 -0.338652 0)
(-0.188077 -0.321084 0)
(-0.123088 -0.348006 0)
(-0.0453044 -0.372228 0)
(0.0430156 -0.318346 0)
(0.0468381 -0.305203 0)
(-0.00693302 -0.294149 0)
(0.0103162 -0.0650822 0)
(0.026454 -0.0637579 0)
(0.046045 -0.0587663 0)
(0.044455 -0.0185077 0)
(0.0323485 0.0329245 0)
(0.00518453 0.0518793 0)
(-0.0152859 0.0862645 0)
(-0.0350319 0.13176 0)
(-0.0422447 0.173034 0)
(-0.124351 0.0806331 0)
(-0.152483 -0.0829925 0)
(-0.106664 -0.167635 0)
(-0.0526542 -0.226452 0)
(0.0280061 -0.327984 0)
(0.0935667 -0.405649 0)
(0.145031 -0.443941 0)
(0.192898 -0.472655 0)
(0.199311 -0.523282 0)
(0.237613 -0.579116 0)
(0.248074 -0.63668 0)
(0.244649 -0.638062 0)
(0.255311 -0.542202 0)
(0.292136 -0.437691 0)
(0.0091649 -0.0996323 0)
(0.0299284 -0.0915725 0)
(0.0848152 -0.0631084 0)
(0.10367 0.0307969 0)
(0.085866 0.085585 0)
(0.0155913 0.11955 0)
(-0.0347966 0.157418 0)
(-0.0631118 0.18259 0)
(-0.0514019 0.191333 0)
(-0.023074 0.184024 0)
(-0.0391157 0.044748 0)
(0.00298779 -0.0768667 0)
(0.0225285 -0.182861 0)
(0.114307 -0.238329 0)
(0.185275 -0.256508 0)
(0.199328 -0.279286 0)
(0.243083 -0.291466 0)
(0.261118 -0.294512 0)
(0.309203 -0.281674 0)
(0.30627 -0.233341 0)
(0.248477 -0.160555 0)
(0.191879 -0.132517 0)
(0.182176 -0.210702 0)
(-0.00669818 -0.0972415 0)
(0.0258652 -0.150535 0)
(0.0865008 -0.1466 0)
(0.0244621 -0.0286911 0)
(-0.0171116 0.143422 0)
(-0.072192 0.208357 0)
(-0.099022 0.197563 0)
(-0.103503 0.164959 0)
(-0.0867443 0.148947 0)
(-0.0622897 0.12689 0)
(-0.0236679 0.0810582 0)
(0.0199685 0.0308249 0)
(0.0644956 -0.0303821 0)
(0.109077 -0.0911472 0)
(0.142776 -0.142615 0)
(0.153933 -0.205644 0)
(0.194012 -0.266156 0)
(0.16459 -0.349247 0)
(0.220266 -0.411311 0)
(0.212034 -0.419386 0)
(0.120145 -0.29093 0)
(-0.128583 -0.137704 0)
(-0.524362 0.0694331 0)
(-0.0202513 -0.0791002 0)
(-0.0692428 -0.152318 0)
(-0.26254 -0.00130293 0)
(-0.382189 0.141702 0)
(-0.419075 0.180099 0)
(-0.400742 0.200914 0)
(-0.3029 0.205955 0)
(-0.250245 0.20868 0)
(-0.204349 0.186247 0)
(-0.141926 0.175357 0)
(-0.0974139 0.122895 0)
(-0.0626172 0.0408677 0)
(-0.0364723 -0.0854033 0)
(-0.0312105 -0.222595 0)
(-0.0157949 -0.381603 0)
(0.00491042 -0.538002 0)
(0.0478939 -0.614959 0)
(0.0462016 -0.625286 0)
(0.0594465 -0.373647 0)
(-0.550041 0.0825473 0)
(-0.664918 0.119167 0)
(-0.710341 0.281379 0)
(-0.810202 0.375966 0)
(-0.069513 -0.0849619 0)
(-0.315699 -0.0704758 0)
(-0.522312 -0.055636 0)
(-0.548943 -0.100058 0)
(-0.566828 -0.140627 0)
(-0.541876 -0.195837 0)
(-0.469155 -0.191247 0)
(-0.413881 -0.129586 0)
(-0.373358 -0.140775 0)
(-0.31347 -0.149072 0)
(-0.281359 -0.245379 0)
(-0.272709 -0.367957 0)
(-0.263114 -0.441643 0)
(-0.215255 -0.479621 0)
(-0.262054 -0.0967174 0)
(-0.601636 0.720892 0)
(-0.944042 0.0622928 0)
(-0.889561 -0.22507 0)
(-0.857563 -0.124302 0)
(-0.851591 0.242715 0)
(-0.823807 0.152737 0)
(-0.766975 0.180638 0)
(-0.77413 0.262008 0)
(-0.15847 -0.256578 0)
(-0.306423 -0.252141 0)
(-0.557926 -0.123943 0)
(-0.584951 -0.0383063 0)
(-0.593097 -0.000325757 0)
(-0.475275 0.0510773 0)
(-0.393105 0.0592891 0)
(-0.389492 -0.125464 0)
(-0.370415 -0.147384 0)
(-0.417989 -0.0676262 0)
(-0.480543 0.100283 0)
(-0.741924 0.455997 0)
(-1.0348 0.23459 0)
(-1.00989 -0.166867 0)
(-0.735467 -0.507524 0)
(-0.41366 -0.461118 0)
(-0.242058 -0.409616 0)
(-0.269419 -0.28248 0)
(-0.398291 0.137774 0)
(-0.772597 0.331786 0)
(-0.897823 0.0523643 0)
(-0.816756 0.0318695 0)
(-0.804904 0.0928213 0)
(-0.121793 0.281993 0)
(-0.319308 0.319886 0)
(-0.44157 0.170134 0)
(-0.489802 0.0136523 0)
(-0.274243 -0.593308 0)
(-0.185922 -0.682953 0)
(0.027331 -0.605256 0)
(0.0096206 -0.533088 0)
(-0.0980556 -0.00232216 0)
(-0.23102 -0.0186379 0)
(-0.189045 -0.233232 0)
(-0.140507 -0.244608 0)
(0.009654 -0.332565 0)
(0.0180844 -0.26788 0)
(-0.0661481 -0.161025 0)
(-0.214387 -0.021355 0)
(-0.302889 0.0019697 0)
(-0.395048 0.00454312 0)
(-0.463074 0.230514 0)
(-0.572329 0.521156 0)
(-0.753571 0.252679 0)
(-0.800357 0.12804 0)
(-0.891869 0.246021 0)
(0.0113544 0.433774 0)
(0.0197074 0.54367 0)
(0.0486156 0.35367 0)
(0.0470245 0.29299 0)
(0.218803 0.336184 0)
(0.0647405 0.210928 0)
(0.129917 0.32544 0)
(-0.0499699 0.579804 0)
(-0.204913 0.409479 0)
(-0.12966 0.415396 0)
(-0.213272 0.444808 0)
(-0.29377 0.353067 0)
(-0.249201 0.0631173 0)
(-0.299155 -0.00412287 0)
(-0.365879 -0.0128055 0)
(-0.397422 -0.0967024 0)
(-0.410373 -0.118988 0)
(-0.467345 -0.0748373 0)
(-0.544525 0.156269 0)
(-0.570622 0.531229 0)
(-0.615089 0.610724 0)
(-0.959195 0.695409 0)
(-1.45993 1.33849 0)
(-0.0376826 0.468133 0)
(0.0538615 0.502907 0)
(0.0639285 0.34787 0)
(0.00303045 0.0989798 0)
(0.0207736 -0.37922 0)
(0.0554417 -0.381274 0)
(-0.0657375 -0.339034 0)
(0.107091 0.0847975 0)
(-0.043729 0.294497 0)
(-0.0458622 0.272922 0)
(-0.130985 0.169593 0)
(-0.013556 -0.149734 0)
(-0.0205695 -0.298978 0)
(-0.110287 -0.241872 0)
(-0.0936222 -0.17737 0)
(-0.131569 -0.0947253 0)
(-0.228526 0.00723032 0)
(-0.367468 0.129277 0)
(-0.574434 0.268901 0)
(-0.711598 0.603578 0)
(-0.847189 0.924024 0)
(-1.16473 1.12784 0)
(-1.406 1.70312 0)
(-0.0816672 0.501128 0)
(0.063838 0.418465 0)
(0.0914494 0.303763 0)
(0.214387 0.159241 0)
(0.183393 0.130064 0)
(0.0774167 0.107658 0)
(-0.0857757 0.130094 0)
(-0.0406302 0.301356 0)
(-0.0396766 0.375834 0)
(0.0387793 0.334888 0)
(0.0527749 0.224914 0)
(0.141711 0.20056 0)
(-0.000943044 0.168892 0)
(-0.128193 0.0990592 0)
(-0.203844 0.0955646 0)
(-0.292002 0.104174 0)
(-0.359314 0.174804 0)
(-0.430429 0.312203 0)
(-0.542043 0.515302 0)
(-0.689348 0.751128 0)
(-0.81064 1.10173 0)
(-1.01826 1.34656 0)
(-1.10751 1.54433 0)
(-0.0566608 0.513095 0)
(0.0734964 0.363 0)
(0.0680215 0.247514 0)
(0.105402 0.102293 0)
(0.0363741 -0.0574585 0)
(0.0345347 -0.0595735 0)
(-0.0218621 -0.0941151 0)
(-0.00702321 0.184695 0)
(0.0182109 0.342914 0)
(0.0713715 0.290799 0)
(0.0547017 0.143497 0)
(0.0216783 -0.00443932 0)
(-0.00864172 -0.0210967 0)
(-0.0575588 -0.0529556 0)
(-0.125675 -0.0252979 0)
(-0.190748 0.0467664 0)
(-0.267048 0.157815 0)
(-0.341174 0.324566 0)
(-0.400932 0.573931 0)
(-0.443773 0.873031 0)
(-0.49192 1.19691 0)
(-0.502087 1.39144 0)
(-0.411936 1.45951 0)
(0.013777 0.486634 0)
(0.0916228 0.328304 0)
(0.098228 0.224258 0)
(0.124405 0.143111 0)
(0.0839847 0.120354 0)
(0.0412971 0.119861 0)
(-0.0506923 0.115066 0)
(-0.0791898 0.165416 0)
(-0.00314728 0.254304 0)
(0.0755361 0.25006 0)
(0.0743139 0.209818 0)
(0.0329838 0.19388 0)
(-0.0352383 0.194302 0)
(-0.0971984 0.191794 0)
(-0.170255 0.199405 0)
(-0.225952 0.221114 0)
(-0.268482 0.277743 0)
(-0.289981 0.396536 0)
(-0.280632 0.583444 0)
(-0.221618 0.829343 0)
(-0.106638 1.11429 0)
(0.0531041 1.29574 0)
(0.22759 1.29394 0)
(0.0530025 0.391762 0)
(0.0907439 0.296231 0)
(0.102508 0.212874 0)
(0.100264 0.153185 0)
(0.0610212 0.117201 0)
(0.0270791 0.115475 0)
(-0.0193099 0.104065 0)
(-0.0584337 0.154775 0)
(-0.0348552 0.193138 0)
(0.00566054 0.223782 0)
(0.00968562 0.21587 0)
(-0.0315295 0.180254 0)
(-0.0693038 0.161146 0)
(-0.103547 0.142027 0)
(-0.14037 0.156307 0)
(-0.171931 0.202844 0)
(-0.20975 0.276066 0)
(-0.231137 0.389246 0)
(-0.207994 0.54917 0)
(-0.125811 0.728553 0)
(0.0294153 0.917115 0)
(0.238306 1.04335 0)
(0.454473 1.0436 0)
(0.0413699 0.323276 0)
(0.067298 0.267346 0)
(0.0877557 0.20862 0)
(0.0703131 0.174169 0)
(0.0447674 0.157946 0)
(0.0217996 0.155586 0)
(-0.0082558 0.153915 0)
(-0.0317934 0.171848 0)
(-0.0364404 0.187721 0)
(-0.0298227 0.214108 0)
(-0.0265203 0.227005 0)
(-0.0395423 0.220318 0)
(-0.062531 0.214676 0)
(-0.0901201 0.211619 0)
(-0.12439 0.220927 0)
(-0.149839 0.247473 0)
(-0.16102 0.303713 0)
(-0.159832 0.381393 0)
(-0.13361 0.487744 0)
(-0.0658591 0.615112 0)
(0.0577333 0.741158 0)
(0.231538 0.817155 0)
(0.429003 0.821806 0)
(0.0234369 0.283278 0)
(0.0439563 0.247692 0)
(0.0552989 0.210612 0)
(0.04521 0.190217 0)
(0.0311472 0.178334 0)
(0.0167531 0.17549 0)
(-0.000650678 0.174424 0)
(-0.0139266 0.184596 0)
(-0.0237012 0.192456 0)
(-0.027549 0.214252 0)
(-0.0235581 0.230244 0)
(-0.025269 0.237044 0)
(-0.033154 0.236846 0)
(-0.0489439 0.237041 0)
(-0.0690271 0.245718 0)
(-0.086509 0.266703 0)
(-0.0975015 0.307364 0)
(-0.0906174 0.367694 0)
(-0.0643452 0.441188 0)
(-0.0112341 0.520447 0)
(0.081793 0.604052 0)
(0.208169 0.657422 0)
(0.356566 0.66395 0)
(0.012936 0.259886 0)
(0.0271403 0.234645 0)
(0.0345479 0.212364 0)
(0.0300407 0.199095 0)
(0.0225954 0.18982 0)
(0.0143915 0.1863 0)
(0.00442675 0.185672 0)
(-0.00282069 0.192696 0)
(-0.00850061 0.199834 0)
(-0.0124818 0.214971 0)
(-0.00975594 0.228535 0)
(-0.00776212 0.235444 0)
(-0.00807263 0.237508 0)
(-0.0132827 0.242344 0)
(-0.0212348 0.252978 0)
(-0.0275477 0.272313 0)
(-0.0325087 0.304849 0)
(-0.026182 0.351215 0)
(-0.00380354 0.40813 0)
(0.0389768 0.461205 0)
(0.10521 0.508547 0)
(0.198479 0.539383 0)
(0.30421 0.543832 0)
(0.00744889 0.245133 0)
(0.0171155 0.224757 0)
(0.0229982 0.211403 0)
(0.0223531 0.202706 0)
(0.018909 0.196084 0)
(0.0142182 0.192939 0)
(0.00796775 0.192615 0)
(0.00328815 0.197418 0)
(-0.00048671 0.203368 0)
(-0.00235073 0.214822 0)
(0.00117105 0.224813 0)
(0.00508236 0.231569 0)
(0.00757351 0.237127 0)
(0.00737587 0.246503 0)
(0.00571522 0.257616 0)
(0.00425308 0.275855 0)
(0.00427587 0.303561 0)
(0.0153801 0.33913 0)
(0.0388088 0.379232 0)
(0.0761721 0.418309 0)
(0.125468 0.444735 0)
(0.192479 0.45772 0)
(0.270375 0.456499 0)
(0.00455334 0.23585 0)
(0.0119129 0.217437 0)
(0.0172153 0.208806 0)
(0.0177162 0.203102 0)
(0.0162849 0.19899 0)
(0.0128792 0.197051 0)
(0.00850453 0.197424 0)
(0.00508371 0.201138 0)
(0.00234076 0.206056 0)
(0.00204441 0.213802 0)
(0.0047445 0.221341 0)
(0.00887044 0.228344 0)
(0.0114934 0.235424 0)
(0.0139744 0.244995 0)
(0.0153644 0.257163 0)
(0.0179863 0.275657 0)
(0.0221305 0.296233 0)
(0.0371577 0.319576 0)
(0.0615505 0.348248 0)
(0.0940678 0.377176 0)
(0.136702 0.393237 0)
(0.188241 0.394015 0)
(0.248208 0.387949 0)
(0.00350062 0.228785 0)
(0.00917233 0.211373 0)
(0.0127005 0.206627 0)
(0.0136679 0.203539 0)
(0.0133338 0.201119 0)
(0.0117308 0.200361 0)
(0.00948731 0.200803 0)
(0.00756522 0.203589 0)
(0.00603603 0.207107 0)
(0.00601689 0.212341 0)
(0.00806337 0.218876 0)
(0.0120142 0.225909 0)
(0.0145725 0.232977 0)
(0.0185031 0.242445 0)
(0.022651 0.254528 0)
(0.0293496 0.269851 0)
(0.0408935 0.283647 0)
(0.0570663 0.29939 0)
(0.0788754 0.32057 0)
(0.109039 0.340412 0)
(0.147754 0.34843 0)
(0.190059 0.343437 0)
(0.23826 0.334479 0)
(0.00281974 0.223177 0)
(0.00696567 0.207502 0)
(0.00972661 0.204727 0)
(0.0115033 0.20275 0)
(0.0123735 0.201427 0)
(0.0125835 0.201436 0)
(0.0123651 0.202261 0)
(0.0121401 0.204698 0)
(0.0121509 0.208031 0)
(0.0126853 0.211949 0)
(0.0138431 0.21615 0)
(0.016893 0.222005 0)
(0.0199337 0.229283 0)
(0.0243386 0.237541 0)
(0.0311792 0.247178 0)
(0.041063 0.257977 0)
(0.0550775 0.270395 0)
(0.0696201 0.282875 0)
(0.0895542 0.296377 0)
(0.116932 0.308063 0)
(0.150021 0.310791 0)
(0.185294 0.302852 0)
(0.223652 0.291405 0)
(0.00222614 0.219016 0)
(0.00563311 0.203956 0)
(0.00892045 0.202068 0)
(0.0110766 0.20077 0)
(0.0124904 0.200511 0)
(0.0137469 0.200665 0)
(0.0148726 0.201723 0)
(0.016143 0.203873 0)
(0.0179034 0.206621 0)
(0.0202136 0.210296 0)
(0.0224918 0.213907 0)
(0.0257153 0.218739 0)
(0.0305764 0.225364 0)
(0.0362859 0.231174 0)
(0.0437009 0.237916 0)
(0.053142 0.245318 0)
(0.0659363 0.254234 0)
(0.0819294 0.26377 0)
(0.101591 0.271774 0)
(0.126215 0.278429 0)
(0.154329 0.278208 0)
(0.184965 0.268449 0)
(0.214463 0.25634 0)
(0.00204269 0.215198 0)
(0.00519974 0.200768 0)
(0.00794242 0.199559 0)
(0.010172 0.199061 0)
(0.0121526 0.19886 0)
(0.0139475 0.199145 0)
(0.0156997 0.200063 0)
(0.017771 0.201834 0)
(0.020399 0.204386 0)
(0.0235722 0.207713 0)
(0.0272812 0.211282 0)
(0.0309799 0.215127 0)
(0.0367013 0.219412 0)
(0.0437291 0.224693 0)
(0.0521994 0.230089 0)
(0.0620476 0.236076 0)
(0.0728224 0.242046 0)
(0.0873965 0.247183 0)
(0.105733 0.251854 0)
(0.127089 0.25475 0)
(0.151039 0.251636 0)
(0.177586 0.242475 0)
(0.201381 0.231915 0)
(0.00175713 0.211854 0)
(0.00470293 0.197891 0)
(0.00727525 0.197028 0)
(0.00978672 0.196691 0)
(0.0120266 0.196706 0)
(0.014194 0.19717 0)
(0.016315 0.197981 0)
(0.0187311 0.199213 0)
(0.0216629 0.201012 0)
(0.0251106 0.203984 0)
(0.0292676 0.20694 0)
(0.0338556 0.20924 0)
(0.0393369 0.212541 0)
(0.0463449 0.216184 0)
(0.0548163 0.220127 0)
(0.0647084 0.224735 0)
(0.0776945 0.228038 0)
(0.0922528 0.230253 0)
(0.108621 0.232084 0)
(0.127009 0.231684 0)
(0.148946 0.227005 0)
(0.16927 0.217803 0)
(0.189951 0.208692 0)
(0.00183244 0.208421 0)
(0.00490316 0.19503 0)
(0.00756393 0.19443 0)
(0.0102037 0.194401 0)
(0.0126889 0.194524 0)
(0.0151992 0.194871 0)
(0.017849 0.195561 0)
(0.0207264 0.196604 0)
(0.0239194 0.198003 0)
(0.027492 0.199686 0)
(0.0321687 0.201936 0)
(0.0377771 0.204394 0)
(0.0437897 0.206737 0)
(0.0506969 0.208717 0)
(0.0585333 0.211059 0)
(0.0686887 0.213351 0)
(0.0797534 0.214864 0)
(0.0924295 0.216647 0)
(0.106569 0.215984 0)
(0.124229 0.213762 0)
(0.142232 0.207596 0)
(0.159748 0.200076 0)
(0.177601 0.190004 0)
(0.00168692 0.205362 0)
(0.00456945 0.192292 0)
(0.00731746 0.191806 0)
(0.0101206 0.191818 0)
(0.0127951 0.191893 0)
(0.0155139 0.192077 0)
(0.0184084 0.192539 0)
(0.0215109 0.193247 0)
(0.0249517 0.194278 0)
(0.0288111 0.195698 0)
(0.0334794 0.197148 0)
(0.0387255 0.198579 0)
(0.0449083 0.200191 0)
(0.052168 0.201809 0)
(0.0596323 0.202989 0)
(0.0686448 0.203088 0)
(0.0791013 0.203691 0)
(0.0916341 0.202453 0)
(0.10598 0.199974 0)
(0.120393 0.196199 0)
(0.135834 0.19187 0)
(0.150865 0.18327 0)
(0.167375 0.171839 0)
(0.00165403 0.202041 0)
(0.00459021 0.189277 0)
(0.00736266 0.188712 0)
(0.010304 0.188693 0)
(0.0132027 0.188887 0)
(0.016201 0.18924 0)
(0.0193079 0.189578 0)
(0.0226379 0.190039 0)
(0.0263221 0.19068 0)
(0.0305198 0.191481 0)
(0.0351139 0.192082 0)
(0.0398869 0.192833 0)
(0.0457122 0.193133 0)
(0.0522577 0.193826 0)
(0.0606107 0.193556 0)
(0.0699077 0.193486 0)
(0.0797393 0.192286 0)
(0.090444 0.190177 0)
(0.101792 0.187737 0)
(0.113755 0.183022 0)
(0.128237 0.175602 0)
(0.142675 0.167355 0)
(0.156036 0.158153 0)
(0.00162091 0.199139 0)
(0.00452656 0.186636 0)
(0.00728634 0.186104 0)
(0.0101956 0.186036 0)
(0.0130339 0.186023 0)
(0.0160724 0.186093 0)
(0.0192286 0.186175 0)
(0.0225761 0.186343 0)
(0.0261942 0.186541 0)
(0.0303289 0.18679 0)
(0.0350777 0.187367 0)
(0.0407823 0.187391 0)
(0.0466441 0.187195 0)
(0.0531116 0.186661 0)
(0.0599337 0.186141 0)
(0.0674376 0.184731 0)
(0.0762724 0.182499 0)
(0.0861938 0.179938 0)
(0.0974402 0.174936 0)
(0.109603 0.169317 0)
(0.121147 0.163479 0)
(0.132716 0.155116 0)
(0.145378 0.144345 0)
(0.00161044 0.195854 0)
(0.00456814 0.183607 0)
(0.00740892 0.183122 0)
(0.0104165 0.18309 0)
(0.0133806 0.183075 0)
(0.0165041 0.183031 0)
(0.0197559 0.182991 0)
(0.0232065 0.182926 0)
(0.0268956 0.182801 0)
(0.0308714 0.1826 0)
(0.0351105 0.182218 0)
(0.0397487 0.181884 0)
(0.0451182 0.181351 0)
(0.0512301 0.180284 0)
(0.0580687 0.178464 0)
(0.06609 0.175823 0)
(0.0745973 0.172998 0)
(0.0835078 0.169101 0)
(0.0928008 0.165195 0)
(0.10219 0.159451 0)
(0.112868 0.151542 0)
(0.123937 0.142865 0)
(0.134577 0.133189 0)
(0.00153963 0.192984 0)
(0.00437339 0.180891 0)
(0.00711404 0.180271 0)
(0.0100455 0.180139 0)
(0.0129551 0.179991 0)
(0.0159986 0.179785 0)
(0.0191654 0.179567 0)
(0.0225311 0.179333 0)
(0.0261456 0.179032 0)
(0.0300662 0.178629 0)
(0.0344392 0.178032 0)
(0.0394077 0.17712 0)
(0.0447357 0.175682 0)
(0.0505189 0.173925 0)
(0.0567979 0.1717 0)
(0.0632894 0.168998 0)
(0.07028 0.165595 0)
(0.0780644 0.161297 0)
(0.0866103 0.155436 0)
(0.0959125 0.148879 0)
(0.105151 0.141794 0)
(0.114356 0.132995 0)
(0.123923 0.122895 0)
(0.00151769 0.189872 0)
(0.00443496 0.17799 0)
(0.00723094 0.177338 0)
(0.010199 0.177194 0)
(0.0131179 0.176985 0)
(0.0161372 0.176696 0)
(0.0192223 0.176312 0)
(0.0224359 0.175792 0)
(0.0258348 0.175105 0)
(0.0294749 0.174235 0)
(0.0333848 0.173147 0)
(0.0376163 0.171854 0)
(0.0422998 0.170193 0)
(0.0474784 0.167968 0)
(0.0531948 0.165229 0)
(0.059474 0.161692 0)
(0.066342 0.157552 0)
(0.0735449 0.152928 0)
(0.0809158 0.147489 0)
(0.0886058 0.140822 0)
(0.0966573 0.132808 0)
(0.105007 0.123927 0)
(0.113272 0.11403 0)
(0.00144337 0.187077 0)
(0.00423439 0.175285 0)
(0.00692771 0.174561 0)
(0.00979037 0.174396 0)
(0.0125984 0.174164 0)
(0.0155101 0.17385 0)
(0.0184873 0.173426 0)
(0.0215862 0.172836 0)
(0.0248456 0.172043 0)
(0.0283183 0.170978 0)
(0.0320458 0.169614 0)
(0.0360797 0.167817 0)
(0.040496 0.165621 0)
(0.0452419 0.163021 0)
(0.0503367 0.159885 0)
(0.0557605 0.156096 0)
(0.0615063 0.151655 0)
(0.0676724 0.14637 0)
(0.0742813 0.140115 0)
(0.0812564 0.133059 0)
(0.0883215 0.125165 0)
(0.0954711 0.116166 0)
(0.102677 0.106204 0)
(0.0014406 0.184132 0)
(0.00423312 0.172393 0)
(0.00687161 0.171626 0)
(0.00968106 0.171443 0)
(0.012394 0.171141 0)
(0.0152012 0.17074 0)
(0.0180351 0.17019 0)
(0.0209323 0.169442 0)
(0.0239112 0.168448 0)
(0.02707 0.167143 0)
(0.0304167 0.165529 0)
(0.0339784 0.163579 0)
(0.0378375 0.161175 0)
(0.0420389 0.158223 0)
(0.0465575 0.154705 0)
(0.0513947 0.15053 0)
(0.0565521 0.145669 0)
(0.0619924 0.140128 0)
(0.0676896 0.13385 0)
(0.0736138 0.126653 0)
(0.079719 0.118493 0)
(0.0859305 0.109408 0)
(0.0921427 0.0994241 0)
(0.00138717 0.181397 0)
(0.00409047 0.169921 0)
(0.00659737 0.169119 0)
(0.00928209 0.168962 0)
(0.0118476 0.168654 0)
(0.0145167 0.168218 0)
(0.0172346 0.167612 0)
(0.0200546 0.166795 0)
(0.0229414 0.165714 0)
(0.0258796 0.16433 0)
(0.0288985 0.162503 0)
(0.0319905 0.160178 0)
(0.0352547 0.157311 0)
(0.0387721 0.154027 0)
(0.0425888 0.150273 0)
(0.0467292 0.145931 0)
(0.0511865 0.140865 0)
(0.0558679 0.135052 0)
(0.0607377 0.128425 0)
(0.0658241 0.12102 0)
(0.0710537 0.112771 0)
(0.0763325 0.103622 0)
(0.0816071 0.0935971 0)
(0.00144561 0.17856 0)
(0.00395101 0.167224 0)
(0.00617079 0.166361 0)
(0.00865668 0.166192 0)
(0.0110145 0.165849 0)
(0.013502 0.165367 0)
(0.0160821 0.164768 0)
(0.0187626 0.163954 0)
(0.0215053 0.162841 0)
(0.024284 0.161434 0)
(0.0270893 0.159608 0)
(0.0299425 0.157266 0)
(0.0328722 0.154413 0)
(0.035862 0.150943 0)
(0.0389605 0.146729 0)
(0.0421667 0.141855 0)
(0.0456366 0.136458 0)
(0.0494755 0.130519 0)
(0.0536377 0.123868 0)
(0.0579175 0.116334 0)
(0.0622872 0.107939 0)
(0.0667037 0.0987188 0)
(0.0710934 0.0886803 0)
(0.00149169 0.176006 0)
(0.00372171 0.165207 0)
(0.00549088 0.164395 0)
(0.00763663 0.164206 0)
(0.00964157 0.163795 0)
(0.011815 0.163212 0)
(0.0140775 0.162374 0)
(0.0164686 0.161366 0)
(0.0189816 0.160166 0)
(0.0216005 0.158696 0)
(0.0242789 0.156865 0)
(0.0269885 0.154565 0)
(0.0297081 0.151702 0)
(0.0323812 0.14819 0)
(0.035062 0.144064 0)
(0.0378087 0.139246 0)
(0.0406707 0.133584 0)
(0.0435088 0.12701 0)
(0.0464418 0.119869 0)
(0.0498027 0.11228 0)
(0.0534339 0.103956 0)
(0.0570441 0.0947279 0)
(0.0605852 0.0846566 0)
(0.00150969 0.173427 0)
(0.00313562 0.163502 0)
(0.0041408 0.162582 0)
(0.00566535 0.162298 0)
(0.00705485 0.161803 0)
(0.0087121 0.161077 0)
(0.010439 0.160113 0)
(0.0123758 0.158956 0)
(0.0145257 0.157628 0)
(0.0168949 0.156031 0)
(0.0194238 0.154118 0)
(0.0220126 0.151771 0)
(0.0245893 0.148878 0)
(0.0272404 0.14543 0)
(0.0299133 0.141329 0)
(0.0325493 0.136511 0)
(0.0350922 0.130976 0)
(0.0374911 0.124762 0)
(0.0399454 0.117578 0)
(0.0423016 0.109366 0)
(0.0445715 0.100635 0)
(0.0473194 0.0914519 0)
(0.0500798 0.0814815 0)
(0.0013573 0.171234 0)
(0.00211738 0.162571 0)
(0.00184235 0.16176 0)
(0.00238663 0.161249 0)
(0.00279739 0.160591 0)
(0.00363213 0.15971 0)
(0.00456863 0.158577 0)
(0.00581832 0.157167 0)
(0.00737987 0.155476 0)
(0.00929185 0.153571 0)
(0.0115902 0.151468 0)
(0.0142334 0.149059 0)
(0.0170408 0.146196 0)
(0.0198518 0.142758 0)
(0.0226009 0.138698 0)
(0.0251771 0.133914 0)
(0.0276012 0.128413 0)
(0.0301277 0.122193 0)
(0.0325163 0.115237 0)
(0.0346136 0.107615 0)
(0.0365541 0.0989301 0)
(0.0381041 0.0892107 0)
(0.0396434 0.0790738 0)
(0.000938507 0.170008 0)
(0.000464376 0.162648 0)
(-0.00114052 0.161872 0)
(-0.0018725 0.161069 0)
(-0.00272567 0.160179 0)
(-0.00307132 0.159076 0)
(-0.00319251 0.157708 0)
(-0.00297479 0.156076 0)
(-0.00247004 0.154191 0)
(-0.0014978 0.151915 0)
(-7.97131e-05 0.149318 0)
(0.00184353 0.146414 0)
(0.0043378 0.143229 0)
(0.0072863 0.139682 0)
(0.0105949 0.13566 0)
(0.0140889 0.131131 0)
(0.0175121 0.125935 0)
(0.0205316 0.119928 0)
(0.0230572 0.113094 0)
(0.025348 0.105502 0)
(0.0273745 0.0972215 0)
(0.0289533 0.0882913 0)
(0.0297217 0.0781988 0)
(0.000548598 0.16974 0)
(-0.00113086 0.164772 0)
(-0.00394174 0.164066 0)
(-0.00582203 0.163002 0)
(-0.00778877 0.161755 0)
(-0.00927779 0.160233 0)
(-0.0103853 0.158485 0)
(-0.0110778 0.156416 0)
(-0.0112476 0.153967 0)
(-0.0110467 0.151176 0)