/*--------------------------------*- C++ -*----------------------------------*\
| =========                 |                                                 |
| \\      /  F ield         | OpenFOAM: The Open Source CFD Toolbox           |
|  \\    /   O peration     | Version:  2.4.0                                 |
|   \\  /    A nd           | Web:      www.OpenFOAM.org                      |
|    \\/     M anipulation  |                                                 |
\*---------------------------------------------------------------------------*/
FoamFile
{
    version     2.0;
    format      ascii;
    class       volVectorField;
    location    "0.75";
    object      U.oil;
}
// * * * * * * * * * * * * * * * * * * * * * * * * * * * * * * * * * * * * * //

dimensions      [0 1 -1 0 0 0 0];

internalField   nonuniform List<vector> 
2268
(
(0.0105948 -0.0210508 0)
(0.0292568 -0.022045 0)
(0.0531071 -0.0192835 0)
(0.0592664 -0.0202848 0)
(0.0757112 -0.0212195 0)
(0.091584 -0.0179524 0)
(0.0854887 -0.00747066 0)
(0.0677756 0.0132171 0)
(0.0265596 0.0310725 0)
(-0.0236603 0.0445479 0)
(-0.0781128 0.0498833 0)
(-0.126513 0.0383358 0)
(-0.173724 0.0165827 0)
(-0.193529 0.00240225 0)
(-0.186465 -0.00759214 0)
(-0.167043 -0.0107371 0)
(-0.146712 -0.00814919 0)
(-0.13055 -0.00760464 0)
(-0.112419 -0.0043292 0)
(-0.0916311 -0.0101005 0)
(-0.0548679 -0.00234138 0)
(-0.0435567 0.00659736 0)
(-0.0346526 0.00117004 0)
(0.0126131 0.00945136 0)
(0.0269692 0.00775061 0)
(0.0513215 0.0125637 0)
(0.0637175 0.0132366 0)
(0.0791819 0.0114184 0)
(0.0935021 0.017652 0)
(0.0965755 0.0198961 0)
(0.0818758 0.0168675 0)
(0.0475504 0.0106561 0)
(-0.0140841 0.00598711 0)
(-0.0860986 0.00420708 0)
(-0.144975 0.0127335 0)
(-0.185112 0.0162381 0)
(-0.196861 0.00356165 0)
(-0.187537 -0.00559305 0)
(-0.166411 -0.00896226 0)
(-0.144612 -0.00943297 0)
(-0.127161 -0.00937194 0)
(-0.109103 -0.0125809 0)
(-0.0812847 -0.0170817 0)
(-0.0545334 -0.017751 0)
(-0.0309995 -0.00380257 0)
(-0.0147171 -0.0179953 0)
(0.014323 -0.0626283 0)
(0.0254263 -0.0652097 0)
(0.0460266 -0.0543318 0)
(0.0712562 -0.0536477 0)
(0.0778951 -0.0526639 0)
(0.081724 -0.0361007 0)
(0.0773605 -0.00935631 0)
(0.0617955 0.0341914 0)
(0.034544 0.0925311 0)
(-0.0222218 0.118133 0)
(-0.0884435 0.095834 0)
(-0.140113 0.0673703 0)
(-0.173246 0.0309191 0)
(-0.193451 0.00154943 0)
(-0.188789 -0.0206842 0)
(-0.172976 -0.0287538 0)
(-0.150957 -0.025853 0)
(-0.127557 -0.0234169 0)
(-0.107151 -0.0237536 0)
(-0.0709726 -0.0346753 0)
(-0.051326 -0.0268244 0)
(-0.0157331 -0.0120499 0)
(-8.82409e-05 -0.0192987 0)
(0.0152144 -0.0910354 0)
(0.023283 -0.0889906 0)
(0.0396372 -0.0948105 0)
(0.0713703 -0.0918274 0)
(0.0736225 -0.0883799 0)
(0.0722572 -0.0844296 0)
(0.0838935 -0.0751796 0)
(0.0890285 -0.0397378 0)
(0.0489816 0.0114692 0)
(-0.0401403 0.0552523 0)
(-0.119953 0.0838549 0)
(-0.15675 0.0710057 0)
(-0.182835 0.0495365 0)
(-0.19676 0.00758251 0)
(-0.191479 -0.0175532 0)
(-0.174184 -0.0284354 0)
(-0.147507 -0.032082 0)
(-0.118626 -0.0318696 0)
(-0.0953477 -0.0377183 0)
(-0.0732376 -0.0439423 0)
(-0.0680145 -0.0453012 0)
(-0.0229195 -0.0270705 0)
(-0.00273862 -0.0244774 0)
(0.00191312 -0.0914436 0)
(0.014145 -0.0869398 0)
(0.0152295 -0.0870731 0)
(0.0114834 -0.0773871 0)
(0.00829642 -0.0532191 0)
(0.0023657 -0.0309037 0)
(0.0127422 0.040012 0)
(0.0425206 0.11086 0)
(0.00767165 0.133884 0)
(-0.103993 0.123055 0)
(-0.179029 0.117645 0)
(-0.223825 0.0839393 0)
(-0.230717 0.0477254 0)
(-0.224447 0.0110254 0)
(-0.206408 -0.0274137 0)
(-0.177343 -0.0462908 0)
(-0.142296 -0.0496334 0)
(-0.104252 -0.0457097 0)
(-0.0796653 -0.0450608 0)
(-0.0727014 -0.0443949 0)
(-0.0763275 -0.0480641 0)
(-0.0450521 -0.0424764 0)
(-0.00331369 -0.0330569 0)
(-0.000872898 -0.0235451 0)
(0.00312428 -0.0175217 0)
(-0.00104229 -0.0169848 0)
(-0.0140643 -0.00472338 0)
(-0.045283 0.0029034 0)
(-0.0802139 -0.00162337 0)
(-0.131142 -0.0406257 0)
(-0.158182 -0.0576025 0)
(-0.116925 0.0304542 0)
(-0.213836 0.149295 0)
(-0.275145 0.131706 0)
(-0.288619 0.0887182 0)
(-0.282944 0.0339365 0)
(-0.275826 -0.0118863 0)
(-0.258625 -0.0404542 0)
(-0.213445 -0.0538736 0)
(-0.156159 -0.0610132 0)
(-0.101234 -0.0540463 0)
(-0.0753657 -0.044768 0)
(-0.0702291 -0.0410134 0)
(-0.0745679 -0.0493581 0)
(-0.061578 -0.0514988 0)
(-0.0128654 -0.0474047 0)
(0.00043444 -0.0371383 0)
(0.00308878 -0.0322082 0)
(0.00230013 -0.0281418 0)
(-0.00413749 -0.0120125 0)
(-0.0215641 0.01109 0)
(-0.0396935 0.0308537 0)
(-0.0670126 0.0844652 0)
(-0.142689 0.144265 0)
(-0.211641 0.186945 0)
(-0.317964 0.164083 0)
(-0.427231 0.129252 0)
(-0.401061 0.0958873 0)
(-0.363188 0.0583669 0)
(-0.326711 0.0118345 0)
(-0.306686 -0.040847 0)
(-0.260616 -0.075643 0)
(-0.189242 -0.0898184 0)
(-0.130919 -0.0759751 0)
(-0.0899796 -0.0548722 0)
(-0.0705165 -0.0461122 0)
(-0.059477 -0.0625457 0)
(-0.0567173 -0.0786638 0)
(-0.0156183 -0.0689379 0)
(0.00142526 -0.0534856 0)
(0.00566355 -0.0466447 0)
(0.00428415 -0.036769 0)
(-0.00849404 -0.0147424 0)
(-0.0290843 0.00111459 0)
(-0.0617775 0.00286578 0)
(-0.0968448 0.009629 0)
(-0.127113 0.0479372 0)
(-0.172739 0.157354 0)
(-0.264731 0.204718 0)
(-0.465952 0.101282 0)
(-0.486531 0.01861 0)
(-0.465906 -0.0196849 0)
(-0.42707 -0.0376281 0)
(-0.359373 -0.0684373 0)
(-0.270822 -0.110373 0)
(-0.216178 -0.137856 0)
(-0.184676 -0.119269 0)
(-0.135172 -0.0800008 0)
(-0.0647574 -0.0582161 0)
(-0.02783 -0.0764339 0)
(-0.0408073 -0.09134 0)
(-0.0113595 -0.0752558 0)
(-0.172237 0.0525964 0)
(-0.0503239 -0.0638187 0)
(0.135225 -0.0300701 0)
(0.313801 -0.00445143 0)
(0.424951 0.0141525 0)
(0.484913 0.0134752 0)
(0.521301 0.0037112 0)
(0.553218 -0.00512362 0)
(0.599731 -0.00928247 0)
(0.650017 -0.00679568 0)
(0.692335 -0.00547502 0)
(0.723524 -0.0092095 0)
(0.720939 -0.0181182 0)
(0.676172 -0.0146217 0)
(0.572304 0.016937 0)
(0.367786 0.0450479 0)
(0.126102 0.0832284 0)
(-0.0889493 0.0342199 0)
(-0.0139447 -0.0201066 0)
(-0.23412 0.323086 0)
(0.250461 0.189219 0)
(0.408923 0.150705 0)
(0.510072 0.16243 0)
(0.56582 0.174951 0)
(0.587002 0.19701 0)
(0.606457 0.212542 0)
(0.624015 0.218276 0)
(0.639186 0.212275 0)
(0.664664 0.199991 0)
(0.697248 0.202526 0)
(0.715261 0.223956 0)
(0.693713 0.269087 0)
(0.68443 0.323563 0)
(0.606058 0.415844 0)
(0.430016 0.442188 0)
(0.248037 0.397815 0)
(0.0258362 0.341389 0)
(-0.0785126 0.24757 0)
(-0.112952 0.105765 0)
(0.393379 -0.212735 0)
(0.569838 -0.104006 0)
(0.723441 0.0407323 0)
(0.843538 0.187182 0)
(0.836817 0.194497 0)
(0.817628 0.158751 0)
(0.77363 0.122729 0)
(0.736003 0.105778 0)
(0.673756 0.113257 0)
(0.608802 0.123354 0)
(0.511071 0.17738 0)
(0.411626 0.146994 0)
(0.287196 0.134079 0)
(0.325637 0.165441 0)
(0.338394 0.307557 0)
(0.218392 0.363201 0)
(0.0427822 0.288468 0)
(-0.0571461 0.0507961 0)
(0.370206 0.0820288 0)
(0.457794 -0.165966 0)
(0.526767 -0.0885804 0)
(0.609596 -0.051063 0)
(0.678343 -0.0971676 0)
(0.727289 -0.0879383 0)
(0.742567 -0.0461159 0)
(0.734796 -0.0114612 0)
(0.715453 0.00279857 0)
(0.674668 -0.00841797 0)
(0.609049 -0.00873098 0)
(0.549209 0.00122763 0)
(0.415525 0.0232161 0)
(0.383628 0.0636255 0)
(-0.120371 0.327683 0)
(0.121572 0.293483 0)
(0.154311 0.412732 0)
(0.068427 0.399112 0)
(-0.0192755 0.175575 0)
(0.364097 -0.153836 0)
(0.363485 -0.24134 0)
(0.453099 -0.17556 0)
(0.48327 -0.0999966 0)
(0.542387 -0.00919088 0)
(0.568976 0.0471826 0)
(0.574838 0.0714571 0)
(0.596113 0.073491 0)
(0.620958 0.0733895 0)
(0.627678 0.0834719 0)
(0.611413 0.120743 0)
(0.548341 0.174053 0)
(0.429828 0.157232 0)
(0.241663 0.158492 0)
(-0.146132 0.175972 0)
(-0.285553 0.192956 0)
(0.0819403 0.390568 0)
(0.039678 0.432843 0)
(0.0938396 0.135313 0)
(0.269268 -0.232085 0)
(0.258604 -0.253097 0)
(0.360228 -0.166448 0)
(0.347952 -0.103677 0)
(0.403112 -0.0439847 0)
(0.461145 0.00588943 0)
(0.489287 0.0442657 0)
(0.499325 0.0547732 0)
(0.495481 0.0593062 0)
(0.502109 0.0680003 0)
(0.529122 0.0978291 0)
(0.514171 0.162649 0)
(0.434476 0.235188 0)
(0.229745 0.297102 0)
(-0.107815 0.30754 0)
(-0.31087 0.154484 0)
(-0.00163872 0.264527 0)
(-0.0114443 0.428811 0)
(0.154514 0.221657 0)
(0.291707 -0.395938 0)
(0.193071 -0.307496 0)
(0.260501 -0.185064 0)
(0.229263 -0.128705 0)
(0.287476 -0.114992 0)
(0.380767 -0.0542791 0)
(0.425657 -0.00754755 0)
(0.443217 0.0147867 0)
(0.440851 0.0263699 0)
(0.430826 0.0424807 0)
(0.444007 0.0695018 0)
(0.469582 0.157935 0)
(0.434135 0.271149 0)
(0.256401 0.383105 0)
(-0.0637623 0.433736 0)
(-0.312762 0.140112 0)
(-0.176635 0.218794 0)
(-0.116685 0.364715 0)
(0.189511 0.201493 0)
(0.2895 -0.524929 0)
(0.109614 -0.372782 0)
(0.0902902 -0.221631 0)
(0.0550496 -0.157577 0)
(0.161518 -0.144043 0)
(0.324233 -0.0672862 0)
(0.41631 0.00853167 0)
(0.439329 0.0548385 0)
(0.426037 0.0907415 0)
(0.385923 0.0964777 0)
(0.345477 0.126602 0)
(0.365934 0.192095 0)
(0.392862 0.330098 0)
(0.278817 0.475874 0)
(0.0373098 0.5589 0)
(-0.275489 0.175472 0)
(-0.264888 0.14946 0)
(-0.273346 0.229709 0)
(0.151689 0.210446 0)
(0.00556044 -0.0360309 0)
(0.0141511 -0.0276233 0)
(0.0324023 -0.0160101 0)
(0.0461948 0.0218453 0)
(0.0322351 0.0731267 0)
(-0.00110953 0.106017 0)
(-0.0374404 0.157688 0)
(-0.0991595 0.205315 0)
(-0.144 0.253 0)
(-0.12619 0.315932 0)
(-0.176584 0.244088 0)
(-0.265757 0.135584 0)
(-0.312839 0.0286805 0)
(-0.299843 -0.0950932 0)
(-0.238678 -0.223094 0)
(-0.205129 -0.233146 0)
(-0.191955 -0.18068 0)
(-0.146975 -0.0801691 0)
(-0.0762807 0.0581365 0)
(-0.0253415 0.160174 0)
(0.0011835 0.243621 0)
(-0.0310574 0.244671 0)
(-0.100711 0.104255 0)
(0.0103451 -0.062312 0)
(0.0268896 -0.0555706 0)
(0.0536558 -0.00987308 0)
(0.0450906 0.0251725 0)
(0.0315785 0.0682659 0)
(0.00166998 0.128904 0)
(-0.0166703 0.161289 0)
(-0.0298803 0.182539 0)
(-0.0279347 0.212671 0)
(0.000928868 0.249977 0)
(0.0731432 0.249349 0)
(0.117349 0.14201 0)
(0.134966 0.0241547 0)
(0.161004 -0.0595834 0)
(0.155283 -0.0902632 0)
(0.133407 -0.0744616 0)
(0.160594 -0.0853264 0)
(0.172092 -0.121284 0)
(0.201948 -0.127948 0)
(0.197724 -0.109371 0)
(0.198855 -0.103021 0)
(0.244483 -0.0696217 0)
(0.290432 0.00045605 0)
(0.0097083 -0.0956604 0)
(0.0366886 -0.030415 0)
(0.0934404 0.00953417 0)
(0.106644 0.113148 0)
(0.0859603 0.167138 0)
(0.0154658 0.198661 0)
(-0.0347882 0.238534 0)
(-0.0663241 0.266101 0)
(-0.049464 0.272197 0)
(-0.011107 0.266168 0)
(0.0524921 0.236453 0)
(0.117769 0.148829 0)
(0.155102 0.0448954 0)
(0.169854 -0.0502342 0)
(0.176086 -0.122548 0)
(0.183323 -0.170029 0)
(0.23966 -0.185251 0)
(0.263024 -0.183882 0)
(0.31371 -0.157726 0)
(0.282667 -0.096215 0)
(0.202717 -0.020932 0)
(0.166859 -0.0328911 0)
(0.159949 -0.135731 0)
(-0.00415773 -0.0599207 0)
(0.035258 -0.0937911 0)
(0.0922324 -0.0887764 0)
(0.0267223 0.0317002 0)
(-0.0192109 0.209423 0)
(-0.0738213 0.276361 0)
(-0.0989725 0.264345 0)
(-0.105342 0.229324 0)
(-0.0869471 0.211971 0)
(-0.0593034 0.190211 0)
(-0.0117884 0.145032 0)
(0.0395837 0.0986779 0)
(0.0715471 0.0282501 0)
(0.102166 -0.0509147 0)
(0.137607 -0.1039 0)
(0.152543 -0.164949 0)
(0.184989 -0.236693 0)
(0.157515 -0.325147 0)
(0.215154 -0.388558 0)
(0.204378 -0.37134 0)
(0.0834268 -0.212182 0)
(-0.175518 -0.0682258 0)
(-0.562489 0.131172 0)
(-0.0282816 -0.02866 0)
(-0.0623291 -0.092751 0)
(-0.244565 0.0373933 0)
(-0.397737 0.181194 0)
(-0.438102 0.214976 0)
(-0.42229 0.239173 0)
(-0.319338 0.250094 0)
(-0.262975 0.259131 0)
(-0.212756 0.238393 0)
(-0.143281 0.229162 0)
(-0.0926912 0.174172 0)
(-0.0541247 0.0866634 0)
(-0.0316852 -0.0520726 0)
(-0.0333979 -0.201545 0)
(-0.0183237 -0.356047 0)
(0.00166515 -0.506597 0)
(0.0407369 -0.590904 0)
(0.0463115 -0.652973 0)
(0.0972875 -0.703044 0)
(-0.562826 -0.152521 0)
(-0.681523 0.15835 0)
(-0.747886 0.326981 0)
(-0.839921 0.411013 0)
(-0.107157 -0.042955 0)
(-0.341419 -0.0191625 0)
(-0.52613 -0.0246961 0)
(-0.565535 -0.0965464 0)
(-0.583966 -0.143305 0)
(-0.554872 -0.204957 0)
(-0.488012 -0.203904 0)
(-0.435317 -0.135867 0)
(-0.395631 -0.141741 0)
(-0.332011 -0.154964 0)
(-0.300144 -0.258551 0)
(-0.291134 -0.393964 0)
(-0.264677 -0.471766 0)
(-0.219984 -0.576579 0)
(-0.259619 -0.815283 0)
(-0.506352 -1.18539 0)
(-0.557528 -0.176503 0)
(-0.662081 -0.321546 0)
(-0.914344 0.0608437 0)
(-0.933737 0.17343 0)
(-0.824437 0.154554 0)
(-0.779773 0.192528 0)
(-0.78517 0.281221 0)
(-0.344382 -0.260382 0)
(-0.380063 -0.168035 0)
(-0.599704 -0.285805 0)
(-0.623722 -0.355078 0)
(-0.623068 -0.365664 0)
(-0.549603 -0.379641 0)
(-0.440705 -0.345555 0)
(-0.422684 -0.335474 0)
(-0.398718 -0.377541 0)
(-0.394966 -0.401568 0)
(-0.360829 -0.427151 0)
(-0.351735 -0.512814 0)
(-0.422956 -0.361607 0)
(-0.768603 -0.270156 0)
(-0.55339 -0.570198 0)
(-0.416088 -0.463605 0)
(-0.242747 -0.411937 0)
(-0.269639 -0.286646 0)
(-0.990154 0.0299724 0)
(-1.14601 0.0183586 0)
(-0.91079 0.0139089 0)
(-0.823768 0.0292936 0)
(-0.816322 0.0863793 0)
(-0.360812 -0.493341 0)
(-0.405321 -0.378917 0)
(-0.540786 -0.415333 0)
(-0.604924 -0.405283 0)
(-0.413434 -0.566184 0)
(-0.208656 -0.657478 0)
(-0.131041 -0.548553 0)
(-0.227261 -0.498663 0)
(-0.340367 -0.402664 0)
(-0.348397 -0.381884 0)
(-0.249174 -0.397336 0)
(-0.13345 -0.256785 0)
(0.00861199 -0.336205 0)
(0.0171654 -0.26959 0)
(-0.0677954 -0.163913 0)
(-0.214078 -0.0240739 0)
(-0.302554 -0.000164967 0)
(-0.400447 -0.00158997 0)
(-0.946055 0.09541 0)
(-1.27452 0.00114243 0)
(-1.00838 -0.0259207 0)
(-0.855751 -0.0129951 0)
(-0.826921 0.0260645 0)
(-0.110041 0.108258 0)
(-0.105831 0.237001 0)
(0.0445433 0.340951 0)
(0.0457486 0.284348 0)
(0.218689 0.330556 0)
(0.0652185 0.210254 0)
(0.129868 0.322716 0)
(-0.0499813 0.575864 0)
(-0.205824 0.399535 0)
(-0.129972 0.409767 0)
(-0.213257 0.440539 0)
(-0.29374 0.351111 0)
(-0.248802 0.0622926 0)
(-0.296962 -0.00617048 0)
(-0.363157 -0.0164265 0)
(-0.396931 -0.101424 0)
(-0.4114 -0.122625 0)
(-0.478056 -0.0779247 0)
(-0.845708 0.161589 0)
(-1.10008 0.211783 0)
(-1.0608 0.125678 0)
(-0.91387 0.0500085 0)
(-0.874585 0.0689265 0)
(-0.0402858 0.45464 0)
(0.0503209 0.491935 0)
(0.0630671 0.345248 0)
(0.00366285 0.0980418 0)
(0.0210574 -0.379624 0)
(0.0554737 -0.381495 0)
(-0.0657582 -0.339186 0)
(0.107049 0.0842224 0)
(-0.0440356 0.29416 0)
(-0.0459291 0.272708 0)
(-0.131056 0.169356 0)
(-0.0135636 -0.150172 0)
(-0.020586 -0.299955 0)
(-0.109676 -0.2464 0)
(-0.0929411 -0.184212 0)
(-0.130098 -0.103101 0)
(-0.227052 0.000307143 0)
(-0.372454 0.124782 0)
(-0.610356 0.268348 0)
(-0.777098 0.567714 0)
(-0.92398 0.89153 0)
(-1.19682 1.05534 0)
(-1.3317 1.40026 0)
(-0.0817291 0.497482 0)
(0.0633725 0.416795 0)
(0.0908128 0.302286 0)
(0.213589 0.157883 0)
(0.183415 0.12963 0)
(0.0774396 0.10759 0)
(-0.0857538 0.129707 0)
(-0.0405162 0.300582 0)
(-0.0396576 0.37506 0)
(0.0387538 0.334486 0)
(0.0527385 0.224427 0)
(0.141744 0.200079 0)
(-0.000668427 0.168054 0)
(-0.127307 0.0960569 0)
(-0.202782 0.091176 0)
(-0.291467 0.0996016 0)
(-0.359305 0.172137 0)
(-0.431328 0.309962 0)
(-0.545181 0.514006 0)
(-0.700352 0.74984 0)
(-0.841582 1.09286 0)
(-1.04939 1.32981 0)
(-1.14317 1.47438 0)
(-0.056776 0.511871 0)
(0.0734255 0.362285 0)
(0.0680176 0.246958 0)
(0.105514 0.101961 0)
(0.0363922 -0.057538 0)
(0.0345349 -0.059586 0)
(-0.0218921 -0.0942493 0)
(-0.00721925 0.184178 0)
(0.0181085 0.342292 0)
(0.0713673 0.29024 0)
(0.0547871 0.142584 0)
(0.0217561 -0.00529679 0)
(-0.00854691 -0.0221367 0)
(-0.0574155 -0.0553224 0)
(-0.125365 -0.0291578 0)
(-0.190777 0.0444753 0)
(-0.267697 0.156718 0)
(-0.341528 0.323136 0)
(-0.401763 0.572777 0)
(-0.447467 0.869441 0)
(-0.505728 1.18391 0)
(-0.515627 1.38945 0)
(-0.456329 1.45564 0)
(0.0137158 0.486209 0)
(0.0915953 0.328041 0)
(0.0982031 0.224034 0)
(0.124388 0.142982 0)
(0.0839852 0.120342 0)
(0.041297 0.119859 0)
(-0.0506927 0.114974 0)
(-0.0791417 0.165026 0)
(-0.00315432 0.253856 0)
(0.0754962 0.24907 0)
(0.0742485 0.208638 0)
(0.0329863 0.192872 0)
(-0.0351956 0.193498 0)
(-0.0971705 0.190825 0)
(-0.170183 0.19802 0)
(-0.22592 0.220202 0)
(-0.268463 0.276948 0)
(-0.290043 0.395585 0)
(-0.280949 0.58208 0)
(-0.223894 0.826423 0)
(-0.115499 1.10913 0)
(0.0434604 1.2919 0)
(0.214497 1.29311 0)
(0.0529856 0.391553 0)
(0.0907366 0.296132 0)
(0.102505 0.212806 0)
(0.100264 0.153164 0)
(0.0610212 0.1172 0)
(0.0270791 0.115475 0)
(-0.0193122 0.104047 0)
(-0.0584418 0.154641 0)
(-0.0348597 0.192878 0)
(0.00564369 0.223009 0)
(0.00975054 0.215006 0)
(-0.0314892 0.17976 0)
(-0.0692855 0.160649 0)
(-0.10354 0.141388 0)
(-0.140364 0.155446 0)
(-0.171922 0.201702 0)
(-0.209773 0.275397 0)
(-0.231204 0.388667 0)
(-0.208231 0.548347 0)
(-0.126833 0.727303 0)
(0.026047 0.914781 0)
(0.231936 1.04025 0)
(0.4445 1.0437 0)
(0.0413699 0.323176 0)
(0.0672974 0.267309 0)
(0.0877559 0.208607 0)
(0.0703131 0.174167 0)
(0.0447674 0.157946 0)
(0.0217996 0.155585 0)
(-0.00825588 0.153911 0)
(-0.0317942 0.171816 0)
(-0.0364422 0.187623 0)
(-0.0298222 0.21382 0)
(-0.0265079 0.226651 0)
(-0.0395417 0.220121 0)
(-0.0625281 0.214251 0)
(-0.0901298 0.210695 0)
(-0.124442 0.219374 0)
(-0.149904 0.245571 0)
(-0.161078 0.302953 0)
(-0.159909 0.380828 0)
(-0.133768 0.487222 0)
(-0.0662597 0.614507 0)
(0.0570355 0.74064 0)
(0.229503 0.817017 0)
(0.42582 0.822599 0)
(0.0234375 0.283245 0)
(0.0439564 0.247684 0)
(0.0552989 0.210611 0)
(0.04521 0.190217 0)
(0.0311472 0.178334 0)
(0.0167531 0.17549 0)
(-0.000650696 0.174423 0)
(-0.0139266 0.184592 0)
(-0.0237016 0.192438 0)
(-0.0275495 0.214201 0)
(-0.0235586 0.230178 0)
(-0.0252698 0.236955 0)
(-0.0331607 0.236519 0)
(-0.0489738 0.235906 0)
(-0.0690992 0.24338 0)
(-0.0866372 0.264267 0)
(-0.0975908 0.306142 0)
(-0.0907011 0.367146 0)
(-0.0644468 0.440782 0)
(-0.0114175 0.520053 0)
(0.0816364 0.604093 0)
(0.207681 0.657195 0)
(0.355961 0.66398 0)
(0.0129361 0.25988 0)
(0.0271403 0.234645 0)
(0.0345479 0.212364 0)
(0.0300407 0.199095 0)
(0.0225954 0.18982 0)
(0.0143915 0.1863 0)
(0.00442674 0.185672 0)
(-0.00282072 0.192695 0)
(-0.00850067 0.199832 0)
(-0.0124819 0.214965 0)
(-0.00975611 0.228527 0)
(-0.0077633 0.235399 0)
(-0.00808092 0.237273 0)
(-0.0133272 0.241314 0)
(-0.0213602 0.250657 0)
(-0.0277266 0.26992 0)
(-0.0326584 0.303408 0)
(-0.0262879 0.350523 0)
(-0.00388239 0.407773 0)
(0.0388968 0.460956 0)
(0.105116 0.50838 0)
(0.198372 0.539227 0)
(0.304094 0.543732 0)
(0.00744889 0.245132 0)
(0.0171155 0.224757 0)
(0.0229982 0.211403 0)
(0.0223531 0.202706 0)
(0.018909 0.196084 0)
(0.0142182 0.192939 0)
(0.00796774 0.192614 0)
(0.00328814 0.197417 0)
(-0.00048676 0.203367 0)
(-0.00235084 0.214819 0)
(0.00117089 0.224809 0)
(0.00508163 0.231549 0)
(0.00756565 0.236956 0)
(0.00732683 0.245679 0)
(0.00558605 0.255973 0)
(0.00405766 0.273826 0)
(0.00410763 0.302226 0)
(0.0152499 0.338378 0)
(0.038726 0.378882 0)
(0.0761209 0.418132 0)
(0.125419 0.444619 0)
(0.192435 0.457642 0)
(0.270343 0.456432 0)
(0.00455334 0.23585 0)
(0.0119129 0.217437 0)
(0.0172153 0.208806 0)
(0.0177162 0.203102 0)
(0.0162849 0.19899 0)
(0.0128792 0.197051 0)
(0.00850453 0.197424 0)
(0.0050837 0.201137 0)
(0.00234072 0.206055 0)
(0.00204432 0.2138 0)
(0.00474437 0.221338 0)
(0.00886998 0.228335 0)
(0.0114859 0.235295 0)
(0.0139429 0.244487 0)
(0.0152754 0.256138 0)
(0.0178857 0.274549 0)
(0.0219704 0.295088 0)
(0.0370367 0.31892 0)
(0.0614723 0.347916 0)
(0.094021 0.377021 0)
(0.136669 0.393153 0)
(0.18822 0.393966 0)
(0.248191 0.387919 0)
(0.00350062 0.228785 0)
(0.00917233 0.211373 0)
(0.0127005 0.206627 0)
(0.0136679 0.203539 0)
(0.0133338 0.201119 0)
(0.0117308 0.200361 0)
(0.0094873 0.200803 0)
(0.00756522 0.203588 0)
(0.00603601 0.207107 0)
(0.00601684 0.212339 0)
(0.00806328 0.218875 0)
(0.0120139 0.225904 0)
(0.0145673 0.232897 0)
(0.018481 0.242158 0)
(0.0226129 0.254028 0)
(0.0292787 0.269238 0)
(0.0408068 0.282953 0)
(0.0569946 0.298959 0)
(0.078813 0.3203 0)
(0.109001 0.340282 0)
(0.147732 0.348367 0)
(0.190047 0.343408 0)
(0.238254 0.334464 0)
(0.00281974 0.223177 0)
(0.00696567 0.207502 0)
(0.00972661 0.204727 0)
(0.0115033 0.20275 0)
(0.0123735 0.201427 0)
(0.0125835 0.201436 0)
(0.0123651 0.202261 0)
(0.0121401 0.204698 0)
(0.0121509 0.208031 0)
(0.0126852 0.211948 0)
(0.0138431 0.216149 0)
(0.0168929 0.222002 0)
(0.0199323 0.229253 0)
(0.0243291 0.237405 0)
(0.0311562 0.246941 0)
(0.041031 0.257662 0)
(0.0550178 0.269983 0)
(0.069572 0.282597 0)
(0.0895214 0.296206 0)
(0.11691 0.307974 0)
(0.150008 0.310749 0)
(0.185288 0.302834 0)
(0.22365 0.291397 0)
(0.00222614 0.219016 0)
(0.00563311 0.203956 0)
(0.00892045 0.202068 0)
(0.0110766 0.20077 0)
(0.0124904 0.200511 0)
(0.0137469 0.200665 0)
(0.0148726 0.201723 0)
(0.016143 0.203873 0)
(0.0179034 0.206621 0)
(0.0202136 0.210296 0)
(0.0224918 0.213907 0)
(0.0257152 0.218738 0)
(0.0305762 0.225358 0)
(0.0362813 0.23112 0)
(0.0436914 0.237809 0)
(0.0531239 0.245165 0)
(0.0659039 0.253996 0)
(0.0819019 0.263601 0)
(0.101573 0.271675 0)
(0.126203 0.278376 0)
(0.154322 0.278184 0)
(0.184962 0.268438 0)
(0.214462 0.256336 0)
(0.00204269 0.215198 0)
(0.00519974 0.200768 0)
(0.00794242 0.199559 0)
(0.010172 0.199061 0)
(0.0121526 0.19886 0)
(0.0139475 0.199145 0)
(0.0156997 0.200063 0)
(0.017771 0.201834 0)
(0.020399 0.204386 0)
(0.0235722 0.207713 0)
(0.0272812 0.211282 0)
(0.0309799 0.215127 0)
(0.0367013 0.219411 0)
(0.0437279 0.224675 0)
(0.0521959 0.230049 0)
(0.062041 0.236008 0)
(0.072809 0.241934 0)
(0.0873846 0.247098 0)
(0.105724 0.251802 0)
(0.127084 0.254722 0)
(0.151036 0.251622 0)
(0.177584 0.24247 0)
(0.20138 0.231913 0)
(0.00175713 0.211854 0)
(0.00470293 0.197891 0)
(0.00727525 0.197028 0)
(0.00978672 0.196691 0)
(0.0120266 0.196706 0)
(0.014194 0.19717 0)
(0.016315 0.197981 0)
(0.0187311 0.199213 0)
(0.0216629 0.201012 0)
(0.0251106 0.203984 0)
(0.0292676 0.20694 0)
(0.0338556 0.20924 0)
(0.0393369 0.212541 0)
(0.0463447 0.21618 0)
(0.0548154 0.220114 0)
(0.0647063 0.224712 0)
(0.0776901 0.227995 0)
(0.0922486 0.230217 0)
(0.108618 0.232061 0)
(0.127007 0.231672 0)
(0.148945 0.226999 0)
(0.16927 0.2178 0)
(0.189951 0.208691 0)
(0.00183244 0.208421 0)
(0.00490316 0.19503 0)
(0.00756393 0.19443 0)
(0.0102037 0.194401 0)
(0.0126889 0.194524 0)
(0.0151992 0.194871 0)
(0.017849 0.195561 0)
(0.0207264 0.196604 0)
(0.0239194 0.198003 0)
(0.027492 0.199686 0)
(0.0321687 0.201936 0)
(0.0377771 0.204394 0)
(0.0437897 0.206737 0)
(0.0506968 0.208716 0)
(0.0585331 0.211055 0)
(0.0686882 0.213343 0)
(0.0797522 0.21485 0)
(0.0924283 0.216635 0)
(0.106568 0.215976 0)
(0.124228 0.213757 0)
(0.142232 0.207594 0)
(0.159748 0.200075 0)
(0.177601 0.190003 0)
(0.00168692 0.205362 0)
(0.00456945 0.192292 0)
(0.00731746 0.191806 0)
(0.0101206 0.191818 0)
(0.0127951 0.191893 0)
(0.0155139 0.192077 0)
(0.0184084 0.192539 0)
(0.0215109 0.193247 0)
(0.0249517 0.194278 0)
(0.0288111 0.195698 0)
(0.0334794 0.197148 0)
(0.0387255 0.198579 0)
(0.0449083 0.20019 0)
(0.0521679 0.201809 0)
(0.0596322 0.202988 0)
(0.0686447 0.203086 0)
(0.0791012 0.203688 0)
(0.091634 0.20245 0)
(0.10598 0.199971 0)
(0.120393 0.196197 0)
(0.135834 0.191869 0)
(0.150865 0.18327 0)
(0.167375 0.171839 0)
(0.00165403 0.202041 0)
(0.00459021 0.189277 0)
(0.00736266 0.188712 0)
(0.010304 0.188693 0)
(0.0132027 0.188887 0)
(0.016201 0.18924 0)
(0.0193079 0.189578 0)
(0.0226379 0.190039 0)
(0.0263221 0.19068 0)
(0.0305198 0.191481 0)
(0.0351139 0.192082 0)
(0.0398869 0.192833 0)
(0.0457122 0.193133 0)
(0.0522577 0.193826 0)
(0.0606107 0.193556 0)
(0.0699077 0.193485 0)
(0.0797393 0.192286 0)
(0.090444 0.190177 0)
(0.101792 0.187737 0)
(0.113755 0.183022 0)
(0.128237 0.175602 0)
(0.142675 0.167355 0)
(0.156036 0.158152 0)
(0.00162091 0.199139 0)
(0.00452656 0.186636 0)
(0.00728634 0.186104 0)
(0.0101956 0.186036 0)
(0.0130339 0.186023 0)
(0.0160724 0.186093 0)
(0.0192286 0.186175 0)
(0.0225761 0.186343 0)
(0.0261942 0.186541 0)
(0.0303289 0.18679 0)
(0.0350777 0.187367 0)
(0.0407823 0.187391 0)
(0.0466441 0.187195 0)
(0.0531116 0.186661 0)
(0.0599337 0.186141 0)
(0.0674376 0.184731 0)
(0.0762724 0.182499 0)
(0.0861938 0.179938 0)
(0.0974402 0.174936 0)
(0.109603 0.169317 0)
(0.121147 0.163478 0)
(0.132716 0.155116 0)
(0.145378 0.144345 0)
(0.00161044 0.195854 0)
(0.00456814 0.183607 0)
(0.00740892 0.183122 0)
(0.0104165 0.18309 0)
(0.0133806 0.183075 0)
(0.0165041 0.183031 0)
(0.0197559 0.182991 0)
(0.0232065 0.182926 0)
(0.0268956 0.182801 0)
(0.0308714 0.1826 0)
(0.0351105 0.182218 0)
(0.0397487 0.181884 0)
(0.0451182 0.181351 0)
(0.0512301 0.180284 0)
(0.0580687 0.178464 0)
(0.06609 0.175823 0)
(0.0745973 0.172998 0)
(0.0835078 0.169101 0)
(0.0928008 0.165195 0)
(0.10219 0.159451 0)
(0.112868 0.151542 0)
(0.123937 0.142865 0)
(0.134577 0.133189 0)
(0.00153963 0.192984 0)
(0.00437339 0.180891 0)
(0.00711404 0.180271 0)
(0.0100455 0.180139 0)
(0.0129551 0.179991 0)
(0.0159986 0.179785 0)
(0.0191654 0.179567 0)
(0.0225311 0.179333 0)
(0.0261456 0.179032 0)
(0.0300662 0.178629 0)
(0.0344392 0.178032 0)
(0.0394077 0.17712 0)
(0.0447357 0.175682 0)
(0.0505189 0.173925 0)
(0.0567979 0.1717 0)
(0.0632894 0.168998 0)
(0.07028 0.165595 0)
(0.0780644 0.161297 0)
(0.0866103 0.155436 0)
(0.0959125 0.148879 0)
(0.105151 0.141794 0)
(0.114356 0.132995 0)
(0.123923 0.122895 0)
(0.00151769 0.189872 0)
(0.00443496 0.17799 0)
(0.00723094 0.177338 0)
(0.010199 0.177194 0)
(0.0131179 0.176985 0)
(0.0161372 0.176696 0)
(0.0192223 0.176312 0)
(0.0224359 0.175792 0)
(0.0258348 0.175105 0)
(0.0294749 0.174235 0)
(0.0333848 0.173147 0)
(0.0376163 0.171854 0)
(0.0422998 0.170193 0)
(0.0474784 0.167968 0)
(0.0531948 0.165229 0)
(0.059474 0.161692 0)
(0.066342 0.157552 0)
(0.0735449 0.152928 0)
(0.0809158 0.147489 0)
(0.0886058 0.140822 0)
(0.0966573 0.132808 0)
(0.105007 0.123927 0)
(0.113272 0.11403 0)
(0.00144337 0.187077 0)
(0.00423439 0.175285 0)
(0.00692771 0.174561 0)
(0.00979037 0.174396 0)
(0.0125984 0.174164 0)
(0.0155101 0.17385 0)
(0.0184873 0.173426 0)
(0.0215862 0.172836 0)
(0.0248456 0.172043 0)
(0.0283183 0.170978 0)
(0.0320458 0.169614 0)
(0.0360797 0.167817 0)
(0.040496 0.165621 0)
(0.0452419 0.163021 0)
(0.0503367 0.159885 0)
(0.0557605 0.156096 0)
(0.0615063 0.151655 0)
(0.0676724 0.14637 0)
(0.0742813 0.140115 0)
(0.0812564 0.133059 0)
(0.0883215 0.125165 0)
(0.0954711 0.116166 0)
(0.102677 0.106204 0)
(0.0014406 0.184132 0)
(0.00423312 0.172393 0)
(0.00687161 0.171626 0)
(0.00968106 0.171443 0)
(0.012394 0.171141 0)
(0.0152012 0.17074 0)
(0.0180351 0.17019 0)
(0.0209323 0.169442 0)
(0.0239112 0.168448 0)
(0.02707 0.167143 0)
(0.0304167 0.165529 0)
(0.0339784 0.163579 0)
(0.0378375 0.161175 0)
(0.0420389 0.158223 0)
(0.0465575 0.154705 0)
(0.0513947 0.15053 0)
(0.0565521 0.145669 0)
(0.0619924 0.140128 0)
(0.0676896 0.13385 0)
(0.0736138 0.126653 0)
(0.079719 0.118493 0)
(0.0859305 0.109408 0)
(0.0921427 0.0994241 0)
(0.00138717 0.181397 0)
(0.00409047 0.169921 0)
(0.00659737 0.169119 0)
(0.00928209 0.168962 0)
(0.0118476 0.168654 0)
(0.0145167 0.168218 0)
(0.0172346 0.167612 0)
(0.0200546 0.166795 0)
(0.0229414 0.165714 0)
(0.0258796 0.16433 0)
(0.0288985 0.162503 0)
(0.0319905 0.160178 0)
(0.0352547 0.157311 0)
(0.0387721 0.154027 0)
(0.0425888 0.150273 0)
(0.0467292 0.145931 0)
(0.0511865 0.140865 0)
(0.0558679 0.135052 0)
(0.0607377 0.128425 0)
(0.0658241 0.12102 0)
(0.0710537 0.112771 0)
(0.0763325 0.103622 0)
(0.0816071 0.0935971 0)
(0.00144561 0.17856 0)
(0.00395101 0.167224 0)
(0.00617079 0.166361 0)
(0.00865668 0.166192 0)
(0.0110145 0.165849 0)
(0.013502 0.165367 0)
(0.0160821 0.164768 0)
(0.0187626 0.163954 0)
(0.0215053 0.162841 0)
(0.024284 0.161434 0)
(0.0270893 0.159608 0)
(0.0299425 0.157266 0)
(0.0328722 0.154413 0)
(0.035862 0.150943 0)
(0.0389605 0.146729 0)
(0.0421667 0.141855 0)
(0.0456366 0.136458 0)
(0.0494755 0.130519 0)
(0.0536377 0.123868 0)
(0.0579175 0.116334 0)
(0.0622872 0.107939 0)
(0.0667037 0.0987188 0)
(0.0710934 0.0886803 0)
(0.00149169 0.176006 0)
(0.00372171 0.165207 0)
(0.00549088 0.164395 0)
(0.00763663 0.164206 0)
(0.00964157 0.163795 0)
(0.011815 0.163212 0)
(0.0140775 0.162374 0)
(0.0164686 0.161366 0)
(0.0189816 0.160166 0)
(0.0216005 0.158696 0)
(0.0242789 0.156865 0)
(0.0269885 0.154565 0)
(0.0297081 0.151702 0)
(0.0323812 0.14819 0)
(0.035062 0.144064 0)
(0.0378087 0.139246 0)
(0.0406707 0.133584 0)
(0.0435088 0.12701 0)
(0.0464418 0.119869 0)
(0.0498027 0.11228 0)
(0.0534339 0.103956 0)
(0.0570441 0.0947279 0)
(0.0605852 0.0846566 0)
(0.00150969 0.173427 0)
(0.00313562 0.163502 0)
(0.0041408 0.162582 0)
(0.00566535 0.162298 0)
(0.00705485 0.161803 0)
(0.0087121 0.161077 0)
(0.010439 0.160113 0)
(0.0123758 0.158956 0)
(0.0145257 0.157628 0)
(0.0168949 0.156031 0)
(0.0194238 0.154118 0)
(0.0220126 0.151771 0)
(0.0245893 0.148878 0)
(0.0272404 0.14543 0)
(0.0299133 0.141329 0)
(0.0325493 0.136511 0)
(0.0350922 0.130976 0)
(0.0374911 0.124762 0)
(0.0399454 0.117578 0)
(0.0423016 0.109366 0)
(0.0445715 0.100635 0)
(0.0473194 0.0914519 0)
(0.0500798 0.0814815 0)
(0.0013573 0.171234 0)
(0.00211738 0.162571 0)
(0.00184235 0.16176 0)
(0.00238663 0.161249 0)
(0.00279739 0.160591 0)
(0.00363213 0.15971 0)
(0.00456863 0.158577 0)
(0.00581832 0.157167 0)
(0.00737987 0.155476 0)
(0.00929185 0.153571 0)
(0.0115902 0.151468 0)
(0.0142334 0.149059 0)
(0.0170408 0.146196 0)
(0.0198518 0.142758 0)
(0.0226009 0.138698 0)
(0.0251771 0.133914 0)
(0.0276012 0.128413 0)
(0.0301277 0.122193 0)
(0.0325163 0.115237 0)
(0.0346136 0.107615 0)
(0.0365541 0.0989301 0)
(0.0381041 0.0892107 0)
(0.0396434 0.0790738 0)
(0.000938507 0.170008 0)
(0.000464376 0.162648 0)
(-0.00114052 0.161872 0)
(-0.0018725 0.161069 0)
(-0.00272567 0.160179 0)
(-0.00307132 0.159076 0)
(-0.00319251 0.157708 0)
(-0.00297479 0.156076 0)
(-0.00247004 0.154191 0)
(-0.0014978 0.151915 0)
(-7.97131e-05 0.149318 0)
(0.00184353 0.146414 0)
(0.0043378 0.143229 0)
(0.0072863 0.139682 0)
(0.0105949 0.13566 0)
(0.0140889 0.131131 0)
(0.0175121 0.125935 0)
(0.0205316 0.119928 0)
(0.0230572 0.113094 0)
(0.025348 0.105502 0)
(0.0273745 0.0972215 0)
(0.0289533 0.0882913 0)
(0.0297217 0.0781988 0)
(0.000548598 0.16974 0)
(-0.00113086 0.164772 0)
(-0.00394174 0.164066 0)
(-0.00582203 0.163002 0)
(-0.00778877 0.161755 0)
(-0.00927779 0.160233 0)
(-0.0103853 0.158485 0)
(-0.0110778 0.156416 0)
(-0.0112476 0.153967 0)
(-0.0110467 0.151176 0)
(-0.0104155 0.148041 0)
(-0.009316 0.144656 0)