/*--------------------------------*- C++ -*----------------------------------*\
| =========                 |                                                 |
| \\      /  F ield         | OpenFOAM: The Open Source CFD Toolbox           |
|  \\    /   O peration     | Version:  2.4.0                                 |
|   \\  /    A nd           | Web:      www.OpenFOAM.org                      |
|    \\/     M anipulation  |                                                 |
\*---------------------------------------------------------------------------*/
FoamFile
{
    version     2.0;
    format      ascii;
    class       volScalarField;
    location    "0.05";
    object      alpha.oil;
}
// * * * * * * * * * * * * * * * * * * * * * * * * * * * * * * * * * * * * * //

dimensions      [0 0 0 0 0 0 0];

internalField   nonuniform List<scalar> 
575
(
5.94242e-111
1.59328e-106
3.82507e-102
1.18622e-95
2.51031e-88
2.80898e-81
2.72959e-74
1.63987e-67
9.96537e-61
2.866e-26
2.15815e-20
1.18165e-14
0.0277126
0.26664
0.753691
0.981999
0.99986
1
1
0.999999
0.999999
0.999999
3.20446e-107
7.66359e-103
1.37986e-98
1.44879e-92
2.73476e-85
2.52873e-78
1.95e-71
9.134e-65
4.20702e-58
5.08178e-24
1.15071e-18
2.48865e-13
0.0714907
0.504946
0.92457
0.998215
0.999995
0.999999
0.999999
0.999999
0.999998
0.999998
8.05368e-104
1.7211e-99
2.543e-95
8.45232e-90
1.40642e-82
1.07529e-75
6.593e-69
2.41549e-62
8.4679e-56
4.06636e-22
2.89071e-17
2.65841e-12
0.147513
0.662051
0.971541
0.999773
1
1
1
1
0.999999
0.999999
1.26366e-100
2.41688e-96
3.03277e-92
3.24335e-87
4.56313e-80
2.88747e-73
1.41158e-66
4.0639e-60
1.09048e-53
1.98234e-20
4.58632e-16
1.96043e-11
0.225841
0.770953
0.988887
0.999956
0.999999
0.999999
0.999999
0.999999
0.999999
0.999999
1.39872e-97
2.39758e-93
2.58732e-89
9.86163e-85
1.05288e-77
5.52165e-71
2.15998e-64
4.9147e-58
1.01632e-51
6.65571e-19
5.31338e-15
9.68375e-11
0.299529
0.846547
0.995639
0.999991
1
1
1
1
1
0.999999
1.17003e-94
1.79971e-90
1.67857e-86
2.80894e-82
1.8461e-75
8.03795e-69
2.52682e-62
4.57346e-56
7.34527e-50
1.64152e-17
4.7326e-14
3.56286e-10
0.368917
0.898792
0.998329
0.999998
1
1
0.999999
0.999999
1
1
7.73656e-92
1.06917e-87
8.64148e-84
8.28578e-80
2.56647e-73
9.29617e-67
2.35978e-60
3.42093e-54
4.30242e-48
3.06988e-16
2.87374e-13
1.52545e-09
0.434477
0.934906
0.999379
0.999999
0.999999
0.999999
0.999999
0.999999
0.999999
0.999999
4.17595e-89
5.1912e-85
3.64305e-81
2.46667e-77
2.91544e-71
8.80045e-65
1.81324e-58
2.12026e-52
2.10628e-46
4.33009e-15
6.08671e-13
1.31306e-08
0.499263
0.960033
0.999779
1
1
1
0.999999
0.999999
1
1
1.88598e-86
2.11125e-82
1.2886e-78
6.87572e-75
2.7713e-69
6.97093e-63
1.17223e-56
1.1137e-50
8.81596e-45
4.29994e-14
9.20999e-11
1.2567e-05
0.609248
0.983022
0.999955
1
1
1
1
1
1
1
1.41866e-83
1.43222e-79
7.61643e-76
3.35121e-72
4.37274e-67
9.1312e-61
1.26713e-54
9.88008e-49
6.32704e-43
4.62651e-13
9.48858e-08
0.00155468
0.774237
0.996965
0.999998
1
1
1
1
1
1
1
8.86746e-81
8.08384e-77
3.75332e-73
1.38883e-69
5.82519e-65
9.87211e-59
1.15077e-52
7.40215e-47
3.94771e-41
1.75609e-11
6.02421e-06
0.0187273
0.918095
0.99983
1
1
1
1
1
1
1
1
4.76455e-78
3.94036e-74
1.6069e-70
5.03548e-67
7.14847e-63
9.35282e-57
9.08369e-51
4.94546e-45
2.20702e-39
2.15858e-10
3.75308e-05
0.0418022
0.889434
0.999268
1
1
1
1
1
1
1
1
2.31394e-75
1.74638e-71
6.478e-68
1.6881e-64
8.53131e-61
8.17434e-55
5.98872e-49
3.04128e-43
1.0422e-37
2.40528e-32
1.01824e-08
0.000554664
0.758835
0.995021
0.999995
1
1
1
1
1
1
1
8.19646e-73
5.65693e-69
1.86858e-65
4.13657e-62
1.0818e-58
1.94803e-52
3.79659e-47
1.54642e-41
4.63525e-36
9.19262e-31
6.92939e-10
0.000403471
0.740638
0.993518
0.999992
1
1
1
1
1
1
1
2.26906e-70
1.43789e-66
4.27373e-63
8.32651e-60
2.02028e-53
3.86673e-49
4.57143e-45
6.85316e-40
1.83134e-34
3.24819e-29
4.77697e-09
0.000340573
0.737313
0.993205
0.999991
1
1
1
1
1
1
1
5.14257e-68
3.00247e-64
8.09082e-61
2.43775e-54
5.40314e-50
4.55279e-46
2.04678e-42
3.05142e-38
6.39407e-33
1.04249e-27
1.11394e-09
0.000307827
0.748203
0.994023
0.999993
1
1
1
1
1
1
1
9.83362e-66
5.3046e-62
2.27799e-55
6.32567e-51
6.3314e-47
3.17942e-43
9.32824e-40
2.58056e-36
1.97668e-31
2.99807e-26
2.71496e-09
0.000315535
0.763492
0.99509
0.999995
1
1
1
1
1
1
1
1
1.62156e-63
1.42609e-56
5.68459e-52
7.24487e-48
4.38539e-44
1.50437e-40
3.26552e-37
5.08717e-34
5.72411e-30
7.64045e-25
1.56944e-09
0.000257998
0.786727
0.99642
0.999997
1
1
1
1
1
1
1
1
4.12498e-58
3.40883e-53
6.31489e-49
4.93208e-45
2.06392e-41
5.30716e-38
9.18507e-35
1.1343e-31
2.1954e-28
1.73618e-23
1.77514e-09
0.000223024
0.811049
0.997523
0.999999
1
1
1
1
1
1
1
1
9.47198e-55
3.66793e-50
4.20299e-46
2.29324e-42
7.2651e-39
1.50279e-35
2.16592e-32
2.21979e-29
1.83482e-26
3.47911e-22
5.82032e-10
0.000260533
0.835819
0.998395
0.999999
1
1
1
1
1
1
1
1
9.86464e-52
2.38339e-47
1.92376e-43
8.01583e-40
2.05994e-36
3.57389e-33
4.31951e-30
3.62437e-27
2.11928e-24
6.51769e-21
1.00192e-09
0.000197879
0.861628
0.999043
1
1
1
1
1
1
1
1
1
6.24583e-49
1.07162e-44
6.65751e-41
2.2676e-37
4.92285e-34
7.20532e-31
7.16804e-28
4.80697e-25
2.15766e-22
1.44434e-19
2.42377e-10
0.000187135
0.887488
0.999488
1
1
1
1
1
1
1
1
1
2.75423e-46
3.66486e-42
1.87472e-38
5.43113e-35
1.00072e-31
1.21184e-28
9.67724e-26
5.07988e-23
1.74595e-20
4.83236e-18
4.86764e-10
0.000171085
0.914077
0.999772
1
1
1
1
1
1
1
1
1
9.29929e-44
1.02599e-39
4.49076e-36
1.11072e-32
1.70239e-29
1.66263e-26
1.04347e-23
4.2165e-21
1.09439e-18
1.8939e-16
1.96633e-10
0.000155991
0.942914
0.999917
1
1
1
1
1
0.999999
0.999999
0.999997
0.999977
2.58303e-41
2.45635e-37
9.23152e-34
1.90895e-30
2.37043e-27
1.82681e-24
8.85713e-22
2.71146e-19
5.21811e-17
6.28099e-15
9.42003e-11
0.000128918
0.97022
0.999885
0.999871
0.999818
0.999737
0.999613
0.999419
0.999141
0.998731
0.997959
0.993469
6.16549e-39
5.06871e-35
1.60114e-31
2.69543e-28
2.65295e-25
1.58608e-22
5.84761e-20
1.33083e-17
1.85092e-15
1.54715e-13
8.05896e-11
0.000520654
0.971136
0.972553
0.968746
0.963032
)
;

boundaryField
{
    leftWall
    {
        type            zeroGradient;
    }
    rightWall
    {
        type            zeroGradient;
    }
    lowerWall
    {
        type            zeroGradient;
    }
    atmosphere
    {
        type            inletOutlet;
        inletValue      nonuniform 0();
        value           nonuniform 0();
    }
    defaultFaces
    {
        type            empty;
    }
    procBoundary0to1
    {
        type            processor;
        value           nonuniform List<scalar> 
26
(
1
0.999998
0.999999
0.999998
1
1
0.999999
0.999999
0.999999
1
1
1
1
1
1
1
1
0.929386
0.857918
0.765873
0.661476
0.551208
0.440829
0.32886
0.204303
0.070341
)
;
    }
    procBoundary0to2
    {
        type            processor;
        value           nonuniform List<scalar> 
24
(
0.955793
0.946646
0.935216
0.922309
0.907541
0.885034
0.826729
1.27643e-36
8.87607e-33
2.29409e-29
3.07469e-26
2.35687e-23
1.07509e-20
2.95513e-18
4.87104e-16
4.74352e-14
2.72758e-12
3.23725e-09
0.000539493
0.504661
0.493282
0.473869
0.955793
0.449448
)
;
    }
}


// ************************************************************************* //
