/*--------------------------------*- C++ -*----------------------------------*\
| =========                 |                                                 |
| \\      /  F ield         | OpenFOAM: The Open Source CFD Toolbox           |
|  \\    /   O peration     | Version:  2.4.0                                 |
|   \\  /    A nd           | Web:      www.OpenFOAM.org                      |
|    \\/     M anipulation  |                                                 |
\*---------------------------------------------------------------------------*/
FoamFile
{
    version     2.0;
    format      ascii;
    class       volScalarField;
    location    "0.05";
    object      alphas;
}
// * * * * * * * * * * * * * * * * * * * * * * * * * * * * * * * * * * * * * //

dimensions      [0 0 0 0 0 0 0];

internalField   nonuniform List<scalar> 
575
(
2
2
2
2
2
2
2
2
2
2
2
2
1.97228
1.73336
1.24631
1.018
1.00014
1
1
0.999999
0.999999
0.999999
2
2
2
2
2
2
2
2
2
2
2
2
1.92851
1.49505
1.07543
1.00178
1
0.999999
0.999999
0.999999
0.999998
0.999998
2
2
2
2
2
2
2
2
2
2
2
2
1.85248
1.33795
1.02846
1.00023
1
1
1
1
0.999999
0.999999
2
2
2
2
2
2
2
2
2
2
2
2
1.77415
1.22905
1.01111
1.00004
0.999999
0.999999
0.999999
0.999999
0.999999
0.999999
2
2
2
2
2
2
2
2
2
2
2
2
1.70047
1.15345
1.00436
1.00001
1
1
1
1
1
0.999999
2
2
2
2
2
2
2
2
2
2
2
2
1.63108
1.10121
1.00167
1
1
1
0.999999
0.999999
1
1
2
2
2
2
2
2
2
2
2
2
2
2
1.56552
1.06509
1.00062
1
0.999999
0.999999
0.999999
0.999999
0.999999
0.999999
2
2
2
2
2
2
2
2
2
2
2
2
1.50074
1.03997
1.00022
1
1
1
0.999999
0.999999
1
1
2
2
2
2
2
2
2
2
2
2
2
1.99998
1.39075
1.01698
1.00004
1
1
1
1
1
1
1
2
2
2
2
1.99999
1.99998
1.99996
1.9999
1.99972
1.99929
1.99813
1.99219
1.22528
1.00303
1
1
1
1
1
1
1
1
1.99579
1.9954
1.99458
1.99295
1.98959
1.98537
1.97565
1.96433
1.9408
1.90971
1.85711
1.74436
1.05987
1.00015
1
1
1
1
1
1
1
1
1.60354
1.59261
1.57342
1.53653
1.46953
1.41703
1.30438
1.22903
1.08964
0.977841
0.836899
0.690039
0.916009
0.999302
1
1
1
1
1
1
1
1
3.90032e-22
4.03688e-22
1.62076e-08
1.84742e-05
0.000197675
0.000117427
0.000396545
0.000272309
0.000541923
0.000322614
0.000408344
0.000784013
0.758876
0.995021
0.999995
1
1
1
1
1
1
1
2.44558e-20
2.36992e-20
2.75706e-20
1.59596e-10
4.59065e-09
2.99892e-09
1.73911e-08
1.17952e-08
8.04318e-08
3.50217e-08
8.70095e-08
0.000403503
0.740638
0.993518
0.999992
1
1
1
1
1
1
1
1.1496e-18
1.03253e-18
1.14072e-18
1.2804e-18
1.83467e-18
2.95214e-18
5.42044e-18
8.14929e-18
9.37074e-18
1.21808e-17
4.77697e-09
0.000340573
0.737313
0.993205
0.999991
1
1
1
1
1
1
1
4.19043e-17
3.44084e-17
3.6313e-17
3.73212e-17
5.05737e-17
7.63712e-17
1.35475e-16
1.9174e-16
1.98808e-16
2.41306e-16
1.11394e-09
0.000307827
0.748203
0.994023
0.999993
1
1
1
1
1
1
1
1.19954e-15
8.85097e-16
8.96095e-16
8.45113e-16
1.0933e-15
1.56684e-15
2.7117e-15
3.69005e-15
3.49359e-15
3.9283e-15
2.71497e-09
0.000315535
0.763492
0.99509
0.999995
1
1
1
1
1
1
1
1
2.68759e-14
1.74582e-14
1.70008e-14
1.47085e-14
1.83025e-14
2.50907e-14
4.23422e-14
5.64412e-14
4.95179e-14
5.04166e-14
1.56951e-09
0.000257998
0.786727
0.99642
0.999997
1
1
1
1
1
1
1
1
4.61072e-13
2.57737e-13
2.41784e-13
1.91682e-13
2.30772e-13
3.04351e-13
4.91708e-13
6.53034e-13
5.44749e-13
4.82514e-13
1.77589e-09
0.000223024
0.811049
0.997523
0.999999
1
1
1
1
1
1
1
1
5.75504e-12
2.70861e-12
2.4499e-12
1.77857e-12
2.08145e-12
2.65114e-12
3.90525e-12
5.23151e-12
4.37837e-12
3.15871e-12
5.8761e-10
0.000260533
0.835819
0.998395
0.999999
1
1
1
1
1
1
1
1
4.5132e-11
1.82975e-11
1.59649e-11
1.06294e-11
1.21382e-11
1.49629e-11
1.80867e-11
2.43138e-11
2.30446e-11
1.19509e-11
1.02925e-09
0.000197879
0.861628
0.999043
1
1
1
1
1
1
1
1
1
1.97412e-10
6.12939e-11
5.15945e-11
3.17222e-11
3.54175e-11
4.21832e-11
1.10338e-10
1.2196e-10
6.09719e-11
1.10434e-10
3.09519e-10
0.000187135
0.887488
0.999488
1
1
1
1
1
1
1
1
1
1.14302e-09
4.36188e-10
3.7818e-10
4.78457e-10
5.51209e-10
5.88112e-10
5.26421e-10
5.43113e-10
3.66058e-10
4.15877e-09
1.25744e-09
0.000171103
0.914077
0.999772
1
1
1
1
1
1
1
1
1
1.68307e-07
1.71832e-07
1.80363e-07
1.9396e-07
2.13893e-07
2.40922e-07
2.78495e-07
3.29446e-07
4.11101e-07
5.04564e-07
6.90925e-07
0.000169392
0.942929
0.999932
1
1
1
1
1
1
1
1.00001
1.00005
0.000302837
0.000312549
0.000331398
0.000361154
0.000403699
0.000461881
0.000539499
0.000641854
0.000775175
0.000945911
0.00116295
0.00159804
0.975028
1.00019
1.00026
1.00036
1.00053
1.00077
1.00116
1.00172
1.00254
1.00408
1.01306
0.0825824
0.0838835
0.0863444
0.0900809
0.0951561
0.101658
0.109679
0.119343
0.130766
0.143893
0.158582
0.177023
1.04685
1.05489
1.06251
1.07394
)
;

boundaryField
{
    leftWall
    {
        type            zeroGradient;
    }
    rightWall
    {
        type            zeroGradient;
    }
    lowerWall
    {
        type            zeroGradient;
    }
    atmosphere
    {
        type            zeroGradient;
    }
    defaultFaces
    {
        type            empty;
    }
    procBoundary0to1
    {
        type            processor;
        value           nonuniform List<scalar> 
26
(
1
0.999998
0.999999
0.999998
1
1
0.999999
0.999999
0.999999
1
1
1
1
1
1
1
1
1.14122
1.28416
1.46825
1.67705
1.89758
2.11834
2.34228
2.59139
2.85931
)
;
    }
    procBoundary0to2
    {
        type            processor;
        value           nonuniform List<scalar> 
24
(
1.08842
1.10671
1.12957
1.15539
1.18492
1.22993
1.34654
1.5151
1.52149
1.53338
1.5509
1.57381
1.60171
1.63415
1.67059
1.7103
1.75215
1.79565
1.83825
1.98866
2.01344
2.05227
1.08842
2.10111
)
;
    }
}


// ************************************************************************* //
