/*--------------------------------*- C++ -*----------------------------------*\
| =========                 |                                                 |
| \\      /  F ield         | OpenFOAM: The Open Source CFD Toolbox           |
|  \\    /   O peration     | Version:  2.4.0                                 |
|   \\  /    A nd           | Web:      www.OpenFOAM.org                      |
|    \\/     M anipulation  |                                                 |
\*---------------------------------------------------------------------------*/
FoamFile
{
    version     2.0;
    format      ascii;
    class       volScalarField;
    location    "0.05";
    object      alpha.mercury;
}
// * * * * * * * * * * * * * * * * * * * * * * * * * * * * * * * * * * * * * //

dimensions      [0 0 0 0 0 0 0];

internalField   nonuniform List<scalar> 
575
(
1
1
1
1
1
1
1
1
1
1
1
1
0.972286
0.733358
0.246309
0.0180025
0.000140064
2.02912e-07
2.5665e-08
2.5135e-09
1.70966e-10
7.27772e-12
1
1
1
1
1
1
1
1
1
1
1
1
0.928507
0.495053
0.0754308
0.00178468
4.51357e-06
7.01382e-08
8.34602e-09
7.23801e-10
4.61174e-11
1.96529e-12
1
1
1
1
1
1
1
1
1
1
1
1
0.852485
0.337948
0.0284601
0.000227478
3.82832e-07
8.47051e-08
1.22599e-08
1.18056e-09
7.86997e-11
3.44592e-12
1
1
1
1
1
1
1
1
1
1
1
1
0.774157
0.229046
0.0111128
4.32457e-05
1.75589e-07
3.24288e-08
4.06934e-09
3.72129e-10
2.54987e-11
1.22456e-12
1
1
1
1
1
1
1
1
1
1
1
1
0.70047
0.153453
0.004361
9.06052e-06
2.25748e-07
4.90616e-08
6.47739e-09
6.24124e-10
4.46549e-11
2.22031e-12
1
1
1
1
1
1
1
1
1
1
1
1
0.631081
0.101208
0.0016709
1.95477e-06
8.2981e-08
1.39984e-08
1.67746e-09
1.66587e-10
4.55443e-12
4.41644e-13
1
1
1
1
1
1
1
1
1
1
1
1
0.565522
0.0650931
0.000620726
4.46963e-07
2.84205e-08
2.98613e-09
2.85153e-10
2.59458e-11
1.83954e-12
1.34173e-13
1
1
1
1
1
1
1
1
1
1
1
1
0.500736
0.0399673
0.000221096
8.68412e-08
7.3427e-09
9.57183e-10
1.277e-10
1.58391e-11
1.72209e-12
1.57461e-13
1
1
1
1
1
1
1
1
1
1
0.999999
0.999982
0.390751
0.0169778
4.48306e-05
9.39287e-09
1.34367e-09
2.11426e-10
2.93379e-11
3.69735e-12
4.38817e-13
5.24774e-14
0.999999
0.999999
0.999999
0.999998
0.999996
0.999992
0.999978
0.99995
0.99986
0.999646
0.999067
0.995316
0.225522
0.00303467
2.2204e-06
5.06214e-08
7.16012e-09
7.3889e-10
6.58635e-11
5.63381e-12
4.95952e-13
4.78118e-14
0.997894
0.997699
0.99729
0.996473
0.994797
0.992683
0.987823
0.982166
0.9704
0.954854
0.928552
0.862818
0.0708875
0.000158608
6.96079e-08
1.54791e-08
2.63711e-09
3.86472e-10
5.12923e-11
6.3759e-12
7.65874e-13
9.18225e-14
0.801771
0.796307
0.786711
0.768266
0.734765
0.708513
0.65219
0.614513
0.544822
0.488921
0.418431
0.324119
0.0132878
1.70856e-05
6.21456e-09
1.21099e-09
1.77389e-10
2.21292e-11
2.53519e-12
2.77098e-13
2.99146e-14
3.26076e-15
1.95096e-146
1.62131e-141
8.10382e-09
9.23711e-06
9.88373e-05
5.87135e-05
0.000198272
0.000136155
0.000270962
0.000161307
0.000204167
0.000114675
2.02848e-05
3.21895e-07
2.39613e-10
2.11413e-12
2.60549e-13
2.62631e-14
2.46898e-15
2.34266e-16
2.29277e-17
2.29332e-18
7.60173e-143
5.31841e-138
1.64733e-133
7.9798e-11
2.29532e-09
1.49946e-09
8.69556e-09
5.89761e-09
4.02159e-08
1.75109e-08
4.31583e-08
1.64159e-08
1.24656e-09
3.57317e-12
1.60866e-13
1.04566e-14
8.23607e-16
6.64949e-17
5.18669e-18
3.87913e-19
2.80178e-20
1.96942e-21
2.13112e-139
1.27431e-134
3.35044e-130
5.51077e-126
6.32738e-122
5.35125e-118
3.39039e-114
1.62951e-110
5.89578e-107
1.60034e-103
3.2624e-100
4.88049e-97
3.75482e-96
8.11198e-94
6.86479e-91
6.50681e-88
5.21496e-85
3.71944e-82
2.30274e-79
1.21186e-76
1.17992e-73
1.37516e-69
4.55272e-136
2.36642e-131
5.38872e-127
7.6358e-123
7.53025e-119
5.4295e-115
2.92186e-111
1.18401e-107
3.61531e-104
8.31129e-101
1.45332e-97
1.89155e-94
2.08524e-93
5.25109e-91
3.98437e-88
3.24151e-85
2.19666e-82
1.30551e-79
6.62702e-77
2.82021e-74
2.11731e-71
1.81813e-67
7.74396e-133
3.55381e-128
7.11364e-124
8.81333e-120
7.55458e-116
4.70165e-112
2.17129e-108
7.52092e-105
1.96228e-101
3.86764e-98
5.84446e-95
6.63069e-92
1.00668e-90
2.79849e-88
1.86588e-85
1.28367e-82
7.33319e-80
3.64681e-77
1.53294e-74
5.35529e-72
3.17122e-69
2.0825e-65
8.41428e-61
1.08572e-129
4.44818e-125
7.90713e-121
8.64494e-117
6.49195e-113
3.51476e-109
1.40427e-105
4.19453e-102
9.43207e-99
1.60593e-95
2.1065e-92
2.08361e-89
4.24713e-88
1.2466e-85
7.22413e-83
4.18021e-80
2.01423e-77
8.42082e-75
2.95765e-72
8.59656e-70
4.10818e-67
2.14067e-63
6.66867e-59
1.28676e-126
4.73981e-122
7.52974e-118
7.30326e-114
4.82887e-110
2.28678e-106
7.952e-103
2.06131e-99
4.01981e-96
5.94341e-93
6.78863e-90
5.86253e-87
1.57194e-85
4.70735e-83
2.35659e-80
1.14636e-77
4.67294e-75
1.651e-72
4.88701e-70
1.19641e-67
4.72487e-65
2.02641e-61
5.0325e-57
1.31562e-123
4.37542e-119
6.23019e-115
5.37489e-111
3.13867e-107
1.30484e-103
3.96629e-100
8.96451e-97
1.52304e-93
1.96308e-90
1.95777e-87
1.47975e-84
5.12629e-83
1.52608e-80
6.58003e-78
2.69633e-75
9.34114e-73
2.80554e-70
7.05931e-68
1.47328e-65
4.93241e-63
1.8028e-59
3.64984e-55
1.17626e-120
3.53773e-116
4.52086e-112
3.47479e-108
1.79582e-104
6.57251e-101
1.75245e-97
3.46625e-94
5.14865e-91
5.80257e-88
5.06262e-85
3.35236e-82
1.4879e-80
4.29812e-78
1.59433e-75
5.5229e-73
1.63559e-70
4.20411e-68
9.07753e-66
1.63624e-63
4.7752e-61
1.53398e-57
2.56381e-53
9.2712e-118
2.5219e-113
2.89389e-109
1.98386e-105
9.09087e-102
2.93703e-98
6.89107e-95
1.1967e-91
1.55881e-88
1.53998e-85
1.17795e-82
6.8498e-80
3.86417e-78
1.06292e-75
3.39274e-73
9.9862e-71
2.54593e-68
5.64624e-66
1.05788e-63
1.67202e-61
4.38252e-59
1.26428e-55
1.74024e-51
6.48498e-115
1.59689e-110
1.64572e-106
1.00707e-102
4.09818e-99
1.17141e-95
2.42493e-92
3.70729e-89
4.24556e-86
3.6844e-83
2.47596e-80
1.26679e-77
9.04601e-76
2.3312e-73
6.41166e-71
1.61473e-68
3.57483e-66
6.91089e-64
1.13891e-61
1.60584e-59
3.89486e-57
1.01466e-53
1.12022e-49
4.05435e-112
9.03017e-108
8.35558e-104
4.5682e-100
1.65403e-96
4.19253e-93
7.67642e-90
1.03563e-86
1.04502e-83
7.98274e-81
4.72072e-78
2.1297e-75
1.92129e-73
4.57763e-71
1.08802e-68
2.36609e-66
4.59797e-64
7.85039e-62
1.15631e-59
1.48016e-57
3.39463e-55
7.88788e-52
6.67194e-48
2.27418e-109
4.57788e-105
3.80552e-101
1.86078e-97
6.00366e-94
1.35199e-90
2.1938e-87
2.61784e-84
2.33378e-81
1.573e-78
8.20691e-76
3.27379e-73
3.72044e-71
8.11698e-69
1.67572e-66
3.18996e-64
5.51445e-62
8.44399e-60
1.12998e-57
1.33309e-55
2.91166e-53
5.89203e-50
3.61899e-46
1.15015e-106
2.09474e-102
1.56588e-98
6.85584e-95
1.97395e-91
3.95627e-88
5.70096e-85
6.03068e-82
4.75838e-79
2.83698e-76
1.31127e-73
4.64561e-71
6.56317e-69
1.30632e-66
2.37423e-64
4.0283e-62
)
;

boundaryField
{
    leftWall
    {
        type            zeroGradient;
    }
    rightWall
    {
        type            zeroGradient;
    }
    lowerWall
    {
        type            zeroGradient;
    }
    atmosphere
    {
        type            inletOutlet;
        inletValue      nonuniform 0();
        value           nonuniform 0();
    }
    defaultFaces
    {
        type            empty;
    }
    procBoundary0to1
    {
        type            processor;
        value           nonuniform List<scalar> 
26
(
1.46803e-13
4.16996e-14
7.612e-14
3.12361e-14
6.01964e-14
1.95593e-14
6.93002e-15
1.0677e-14
6.87635e-15
5.2867e-15
1.12877e-14
3.68017e-16
2.3314e-19
1.3554e-22
1.08146e-64
1.00382e-62
1.00382e-62
6.13309e-48
5.1939e-50
1.3755e-48
5.89174e-47
2.45649e-45
9.75252e-44
3.63022e-42
1.34562e-40
3.98215e-40
)
;
    }
    procBoundary0to2
    {
        type            processor;
        value           nonuniform List<scalar> 
24
(
6.2935e-60
8.77988e-58
1.08032e-55
1.18593e-53
2.44599e-51
4.19524e-48
1.79599e-44
5.27854e-104
8.69651e-100
5.85088e-96
2.29649e-92
5.90914e-89
1.0556e-85
1.35287e-82
1.27073e-79
8.89403e-77
4.70818e-74
1.94038e-71
6.12497e-69
1.0477e-66
1.92348e-64
3.16121e-62
6.2935e-60
4.86902e-60
)
;
    }
}


// ************************************************************************* //
