/*--------------------------------*- C++ -*----------------------------------*\
| =========                 |                                                 |
| \\      /  F ield         | OpenFOAM: The Open Source CFD Toolbox           |
|  \\    /   O peration     | Version:  2.4.0                                 |
|   \\  /    A nd           | Web:      www.OpenFOAM.org                      |
|    \\/     M anipulation  |                                                 |
\*---------------------------------------------------------------------------*/
FoamFile
{
    version     2.0;
    format      ascii;
    class       surfaceScalarField;
    location    "0.05";
    object      phi;
}
// * * * * * * * * * * * * * * * * * * * * * * * * * * * * * * * * * * * * * //

dimensions      [0 3 -1 0 0 0 0];

internalField   nonuniform List<scalar> 
1101
(
1.60818e-06
-1.60819e-06
3.27928e-06
-1.67109e-06
5.07961e-06
-1.80033e-06
7.08305e-06
-2.00345e-06
9.37627e-06
-2.29321e-06
1.20669e-05
-2.69068e-06
1.52941e-05
-3.22716e-06
1.92555e-05
-3.96142e-06
2.42049e-05
-4.9494e-06
3.04982e-05
-6.29323e-06
3.96122e-05
-9.11402e-06
5.37654e-05
-1.41532e-05
6.41856e-05
-1.04202e-05
7.36132e-05
-9.42754e-06
6.9669e-05
3.94422e-06
5.42967e-05
1.53723e-05
4.21161e-05
1.21805e-05
3.50933e-05
7.02289e-06
2.98766e-05
5.21665e-06
2.45913e-05
5.28536e-06
1.81558e-05
6.43548e-06
8.22394e-06
1.59438e-06
-3.20256e-06
3.2509e-06
-3.32762e-06
5.03499e-06
-3.58442e-06
7.01933e-06
-3.98779e-06
9.2888e-06
-4.56268e-06
1.19484e-05
-5.35027e-06
1.51328e-05
-6.41159e-06
1.90379e-05
-7.86654e-06
2.39049e-05
-9.81633e-06
3.01661e-05
-1.25545e-05
3.86446e-05
-1.75925e-05
5.07879e-05
-2.62965e-05
6.33794e-05
-2.30118e-05
7.1295e-05
-1.73429e-05
5.96638e-05
1.55753e-05
4.80059e-05
2.70301e-05
4.02146e-05
1.99719e-05
3.46654e-05
1.25721e-05
2.99236e-05
9.95847e-06
2.48904e-05
1.03186e-05
1.8587e-05
1.27389e-05
1.65081e-05
1.5664e-06
-4.76897e-06
3.19339e-06
-4.95461e-06
4.94463e-06
-5.33566e-06
6.8905e-06
-5.93366e-06
9.11233e-06
-6.78451e-06
1.17097e-05
-7.94768e-06
1.48097e-05
-9.51159e-06
1.85912e-05
-1.1648e-05
2.3275e-05
-1.45001e-05
2.92083e-05
-1.84877e-05
3.71782e-05
-2.55624e-05
4.71996e-05
-3.63178e-05
5.97605e-05
-3.55727e-05
6.09638e-05
-1.85462e-05
5.07027e-05
2.58363e-05
4.3042e-05
3.46908e-05
3.81074e-05
2.49065e-05
3.39906e-05
1.66889e-05
2.99776e-05
1.39714e-05
2.54342e-05
1.48621e-05
1.9429e-05
1.87441e-05
2.48606e-05
1.52488e-06
-6.29385e-06
3.10807e-06
-6.5378e-06
4.81072e-06
-7.03832e-06
6.69989e-06
-7.82283e-06
8.8518e-06
-8.93641e-06
1.13584e-05
-1.04543e-05
1.43354e-05
-1.24886e-05
1.7936e-05
-1.52486e-05
2.23532e-05
-1.89173e-05
2.7846e-05
-2.39805e-05
3.4978e-05
-3.26944e-05
4.33251e-05
-4.46649e-05
5.41081e-05
-4.63556e-05
5.04889e-05
-1.49269e-05
4.26492e-05
3.36759e-05
3.88844e-05
3.84557e-05
3.61895e-05
2.76015e-05
3.33428e-05
1.95357e-05
3.01587e-05
1.71556e-05
2.63099e-05
1.87109e-05
2.07944e-05
2.42596e-05
3.33029e-05
1.47032e-06
-7.76417e-06
2.99601e-06
-8.06349e-06
4.63508e-06
-8.67739e-06
6.45049e-06
-9.63824e-06
8.51191e-06
-1.09978e-05
1.09019e-05
-1.28443e-05
1.3722e-05
-1.53087e-05
1.70967e-05
-1.86233e-05
2.11846e-05
-2.30052e-05
2.61782e-05
-2.89742e-05
3.23362e-05
-3.88524e-05
3.92455e-05
-5.15742e-05
4.73183e-05
-5.44283e-05
4.1386e-05
-8.99466e-06
3.62269e-05
3.88349e-05
3.53493e-05
3.93332e-05
3.43953e-05
2.85555e-05
3.27555e-05
2.11755e-05
3.0511e-05
1.94001e-05
2.75626e-05
2.16592e-05
2.28364e-05
2.89858e-05
4.16e-05
1.40339e-06
-9.16756e-06
2.8586e-06
-9.5187e-06
4.42004e-06
-1.02388e-05
6.14611e-06
-1.13643e-05
8.09864e-06
-1.29504e-05
1.03496e-05
-1.50953e-05
1.29842e-05
-1.79434e-05
1.61008e-05
-2.17398e-05
1.98241e-05
-2.67285e-05
2.43001e-05
-3.34503e-05
2.94473e-05
-4.39995e-05
3.5099e-05
-5.72259e-05
4.03216e-05
-5.96509e-05
3.37412e-05
-2.41427e-06
3.15968e-05
4.09792e-05
3.24123e-05
3.85178e-05
3.27712e-05
2.81966e-05
3.21916e-05
2.17552e-05
3.10342e-05
2.05575e-05
2.92707e-05
2.34228e-05
2.56557e-05
3.26008e-05
4.96855e-05
1.32483e-06
-1.04924e-05
2.69734e-06
-1.08912e-05
4.16805e-06
-1.17095e-05
5.79098e-06
-1.29872e-05
7.61865e-06
-1.4778e-05
9.71158e-06
-1.71882e-05
1.21375e-05
-2.03692e-05
1.49726e-05
-2.45749e-05
1.83069e-05
-3.00628e-05
2.22671e-05
-3.74105e-05
2.64957e-05
-4.82282e-05
3.11534e-05
-6.18835e-05
3.38609e-05
-6.23583e-05
2.74281e-05
4.01849e-06
2.78679e-05
4.05395e-05
2.99946e-05
3.63911e-05
3.13883e-05
2.68029e-05
3.187e-05
2.12736e-05
3.18219e-05
2.06056e-05
3.13096e-05
2.39351e-05
2.91333e-05
3.47771e-05
5.61964e-05
1.23469e-06
-1.17271e-05
2.51204e-06
-1.21686e-05
3.87832e-06
-1.30758e-05
5.38433e-06
-1.44932e-05
7.07338e-06
-1.64671e-05
8.99267e-06
-1.91075e-05
1.11896e-05
-2.25662e-05
1.37207e-05
-2.7106e-05
1.66463e-05
-3.29884e-05
2.00348e-05
-4.0799e-05
2.3671e-05
-5.18644e-05
2.74599e-05
-6.56724e-05
2.80107e-05
-6.2909e-05
2.25678e-05
9.46142e-06
2.47412e-05
3.83661e-05
2.79557e-05
3.31767e-05
3.01933e-05
2.45652e-05
3.16133e-05
1.98535e-05
3.27259e-05
1.9493e-05
3.36495e-05
2.30115e-05
3.35368e-05
3.48897e-05
5.96443e-05
2.27046e-06
-1.39975e-05
4.60882e-06
-1.45069e-05
7.09502e-06
-1.5562e-05
9.85643e-06
-1.72546e-05
1.30207e-05
-1.96313e-05
1.6552e-05
-2.26388e-05
2.04355e-05
-2.64497e-05
2.48115e-05
-3.1482e-05
2.96134e-05
-3.77903e-05
3.51135e-05
-4.62991e-05
4.04375e-05
-5.71885e-05
4.68734e-05
-7.21083e-05
4.13274e-05
-5.73629e-05
3.5082e-05
1.57068e-05
4.41372e-05
2.93109e-05
5.38358e-05
2.34781e-05
6.08753e-05
1.75258e-05
6.64877e-05
1.42411e-05
7.22545e-05
1.37262e-05
7.94885e-05
1.57776e-05
9.13398e-05
2.30384e-05
2.86285e-05
1.77505e-06
-1.57726e-05
3.59901e-06
-1.63309e-05
5.52054e-06
-1.74835e-05
7.60967e-06
-1.93438e-05
1.00166e-05
-2.20383e-05
1.27141e-05
-2.53363e-05
1.53877e-05
-2.91234e-05
1.84846e-05
-3.45788e-05
2.11871e-05
-4.04928e-05
2.4211e-05
-4.9323e-05
2.66738e-05
-5.96512e-05
3.175e-05
-7.71846e-05
2.10109e-05
-4.66238e-05
2.23195e-05
1.43982e-05
3.64074e-05
1.5223e-05
4.84406e-05
1.14449e-05
5.76952e-05
8.27111e-06
6.59791e-05
5.95722e-06
7.48284e-05
4.8769e-06
8.57594e-05
4.84656e-06
0.000101888
6.90966e-06
5.58267e-06
1.41852e-06
-1.71911e-05
2.81349e-06
-1.77258e-05
4.20776e-06
-1.88778e-05
5.71041e-06
-2.08464e-05
7.19061e-06
-2.35185e-05
8.45696e-06
-2.66026e-05
1.0208e-05
-3.08744e-05
1.14469e-05
-3.58178e-05
1.29224e-05
-4.19683e-05
1.29207e-05
-4.93213e-05
1.23716e-05
-5.91021e-05
9.30801e-06
-7.41211e-05
4.28636e-06
-4.16021e-05
1.81878e-05
4.96776e-07
3.33042e-05
1.06578e-07
4.53377e-05
-5.88634e-07
5.54504e-05
-1.84157e-06
6.49334e-05
-3.52583e-06
7.51028e-05
-5.29252e-06
8.71152e-05
-7.16579e-06
0.000102522
-8.49751e-06
-1.38555e-05
6.28671e-07
-1.78198e-05
1.1703e-06
-1.82675e-05
1.08668e-06
-1.87942e-05
1.39071e-06
-2.11505e-05
3.6318e-06
-2.57596e-05
3.46692e-06
-2.64378e-05
6.59478e-06
-3.40022e-05
6.6788e-06
-3.59018e-05
1.06958e-05
-4.59852e-05
1.16598e-05
-5.02853e-05
1.3543e-05
-6.09853e-05
8.26721e-06
-6.88452e-05
5.43234e-06
-3.87672e-05
2.2168e-05
-1.62389e-05
3.44295e-05
-1.21549e-05
4.44564e-05
-1.06156e-05
5.38441e-05
-1.12292e-05
6.32638e-05
-1.29455e-05
7.3411e-05
-1.54397e-05
8.50041e-05
-1.87589e-05
9.89455e-05
-2.24389e-05
-3.12985e-05
5.111e-06
-2.29308e-05
1.03248e-05
-2.34813e-05
1.62208e-05
-2.46901e-05
2.22938e-05
-2.72235e-05
2.51425e-05
-2.86082e-05
3.11406e-05
-3.24359e-05
3.20779e-05
-3.49395e-05
3.65645e-05
-4.03884e-05
3.63682e-05
-4.57889e-05
3.8143e-05
-5.20602e-05
3.46745e-05
-5.75168e-05
2.7591e-05
-6.17617e-05
2.48532e-05
-3.60294e-05
2.9661e-05
-2.10467e-05
3.64103e-05
-1.89043e-05
4.41244e-05
-1.83297e-05
5.22628e-05
-1.93677e-05
6.087e-05
-2.15527e-05
7.02069e-05
-2.47766e-05
8.06091e-05
-2.91611e-05
9.25558e-05
-3.43856e-05
-4.5039e-05
4.56477e-06
-2.74956e-05
9.12766e-06
-2.80442e-05
1.36061e-05
-2.91686e-05
1.73914e-05
-3.10088e-05
2.17874e-05
-3.30042e-05
2.52044e-05
-3.58529e-05
2.91656e-05
-3.89007e-05
3.17167e-05
-4.29395e-05
3.31118e-05
-4.7184e-05
3.28421e-05
-5.17905e-05
3.09247e-05
-5.55994e-05
2.77711e-05
-5.86081e-05
2.78415e-05
-3.60998e-05
3.15513e-05
-2.47564e-05
3.66918e-05
-2.40448e-05
4.30665e-05
-2.47044e-05
5.00984e-05
-2.63996e-05
5.76885e-05
-2.91427e-05
6.58846e-05
-3.29728e-05
7.47684e-05
-3.80449e-05
8.45256e-05
-4.41428e-05
-5.5093e-05
3.97317e-06
-3.14687e-05
7.91504e-06
-3.1986e-05
1.1758e-05
-3.30115e-05
1.53005e-05
-3.45513e-05
1.87711e-05
-3.64748e-05
2.18432e-05
-3.8925e-05
2.46627e-05
-4.17203e-05
2.67663e-05
-4.50431e-05
2.81427e-05
-4.85603e-05
2.8499e-05
-5.21469e-05
2.8184e-05
-5.52843e-05
2.74421e-05
-5.78662e-05
2.85992e-05
-3.72569e-05
3.18404e-05
-2.79976e-05
3.60612e-05
-2.82656e-05
4.13585e-05
-3.00017e-05
4.73472e-05
-3.23883e-05
5.3864e-05
-3.56595e-05
6.08348e-05
-3.99436e-05
6.81828e-05
-4.53929e-05
7.59176e-05
-5.18776e-05
-6.24978e-05
3.47268e-06
-3.49414e-05
6.89922e-06
-3.54126e-05
1.02155e-05
-3.63278e-05
1.33467e-05
-3.76825e-05
1.63109e-05
-3.9439e-05
1.89826e-05
-4.15967e-05
2.13674e-05
-4.41051e-05
2.32496e-05
-4.69253e-05
2.46097e-05
-4.99204e-05
2.53807e-05
-5.29179e-05
2.57711e-05
-5.56747e-05
2.60898e-05
-5.81849e-05
2.76413e-05
-3.88084e-05
3.06586e-05
-3.10149e-05
3.44072e-05
-3.20142e-05
3.89458e-05
-3.45403e-05
4.40441e-05
-3.74866e-05
4.95596e-05
-4.1175e-05
5.53722e-05
-4.57562e-05
6.13318e-05
-5.13525e-05
6.73388e-05
-5.78846e-05
-6.77926e-05
3.00851e-06
-3.79499e-05
5.97293e-06
-3.8377e-05
8.84365e-06
-3.91986e-05
1.15736e-05
-4.04124e-05
1.413e-05
-4.19954e-05
1.64569e-05
-4.39236e-05
1.85074e-05
-4.61555e-05
2.02151e-05
-4.8633e-05
2.15567e-05
-5.1262e-05
2.25628e-05
-5.3924e-05
2.33811e-05
-5.6493e-05
2.42634e-05
-5.90672e-05
2.57583e-05
-4.03032e-05
2.86281e-05
-3.38848e-05
3.2047e-05
-3.54331e-05
3.59819e-05
-3.84752e-05
4.03175e-05
-4.18222e-05
4.4945e-05
-4.58025e-05
4.97385e-05
-5.05497e-05
5.45309e-05
-5.61449e-05
5.91664e-05
-6.25201e-05
6.2884e-05
-7.15101e-05
-7.61744e-05
2.59118e-06
-4.05411e-05
5.14386e-06
-4.09297e-05
7.61764e-06
-4.16723e-05
9.97506e-06
-4.27698e-05
1.21819e-05
-4.42022e-05
1.42011e-05
-4.59428e-05
1.59996e-05
-4.79541e-05
1.75511e-05
-5.01844e-05
1.88564e-05
-5.25673e-05
1.99579e-05
-5.50256e-05
2.0961e-05
-5.74961e-05
2.19842e-05
-6.00904e-05
2.34508e-05
-4.17698e-05
2.61126e-05
-3.65466e-05
2.9205e-05
-3.85254e-05
3.26199e-05
-4.18902e-05
3.62968e-05
-4.5499e-05
4.0157e-05
-4.96627e-05
4.40924e-05
-5.44851e-05
4.79588e-05
-6.00113e-05
5.16188e-05
-6.61801e-05
5.44429e-05
-7.43343e-05
-7.83657e-05
2.21307e-06
-4.27541e-05
4.39364e-06
-4.31102e-05
6.50871e-06
-4.37874e-05
8.52783e-06
-4.4789e-05
1.04228e-05
-4.60972e-05
1.21679e-05
-4.76879e-05
1.37428e-05
-4.95289e-05
1.51386e-05
-5.15802e-05
1.63662e-05
-5.37948e-05
1.74633e-05
-5.61227e-05
1.84951e-05
-5.8528e-05
1.94805e-05
-6.10758e-05
2.08783e-05
-4.31676e-05
2.33018e-05
-3.89702e-05
2.60545e-05
-4.1278e-05
2.89946e-05
-4.48303e-05
3.20918e-05
-4.85962e-05
3.52903e-05
-5.28612e-05
3.85089e-05
-5.77037e-05
4.16487e-05
-6.31511e-05
4.46406e-05
-6.91719e-05
4.70572e-05
-7.67509e-05
-8.12108e-05
1.86855e-06
-4.46227e-05
3.70968e-06
-4.49514e-05
5.49675e-06
-4.55745e-05
7.20573e-06
-4.64979e-05
8.81499e-06
-4.77065e-05
1.03063e-05
-4.91791e-05
1.16677e-05
-5.08903e-05
1.28978e-05
-5.28103e-05
1.40102e-05
-5.49072e-05
1.50378e-05
-5.71503e-05
1.60363e-05
-5.95264e-05
1.70813e-05
-6.21208e-05
1.81516e-05
-4.42378e-05
2.0305e-05
-4.11236e-05
2.2711e-05
-4.3684e-05
2.5208e-05
-4.73273e-05
2.77846e-05
-5.11729e-05
3.04016e-05
-5.54782e-05
3.30028e-05
-6.03049e-05
3.55293e-05
-6.56776e-05
3.79605e-05
-7.16031e-05
4.00437e-05
-7.88341e-05
-8.43062e-05
1.55299e-06
-4.61757e-05
3.08183e-06
-4.64802e-05
4.56451e-06
-4.70571e-05
5.98438e-06
-4.79178e-05
7.32624e-06
-4.90483e-05
8.57603e-06
-5.04289e-05
9.72581e-06
-5.20401e-05
1.07769e-05
-5.38614e-05
1.17414e-05
-5.58716e-05
1.26426e-05
-5.80515e-05
1.35138e-05
-6.03977e-05
1.43445e-05
-6.29515e-05
1.53079e-05
-4.52012e-05
1.71896e-05
-4.30052e-05
1.92561e-05
-4.57506e-05
2.13369e-05
-4.9408e-05
2.34363e-05
-5.32723e-05
2.55274e-05
-5.75693e-05
2.75721e-05
-6.23497e-05
2.95336e-05
-6.76391e-05
3.14044e-05
-7.34739e-05
3.296e-05
-8.03897e-05
-8.67993e-05
1.25277e-06
-4.74284e-05
2.49148e-06
-4.77189e-05
3.69131e-06
-4.8257e-05
4.84075e-06
-4.90672e-05
5.93028e-06
-5.01379e-05
6.94701e-06
-5.14457e-05
7.88414e-06
-5.29772e-05
8.74414e-06
-5.47214e-05
9.53667e-06
-5.66642e-05
1.0279e-05
-5.87938e-05
1.09952e-05
-6.11139e-05
1.16751e-05
-6.36314e-05
1.24214e-05
-4.59476e-05
1.4025e-05
-4.46087e-05
1.57577e-05
-4.74833e-05
1.74423e-05
-5.10926e-05
1.90955e-05
-5.49255e-05
2.06982e-05
-5.9172e-05
2.22232e-05
-6.38747e-05
2.36454e-05
-6.90613e-05
2.49692e-05
-7.47977e-05
2.59066e-05
-8.13271e-05
-8.83928e-05
9.39068e-07
-4.83675e-05
1.88149e-06
-4.86613e-05
2.82849e-06
-4.9204e-05
3.74589e-06
-4.99846e-05
4.6025e-06
-5.09945e-05
5.39355e-06
-5.22367e-05
6.11708e-06
-5.37007e-05
6.77768e-06
-5.5382e-05
7.38083e-06
-5.72673e-05
7.93793e-06
-5.93509e-05
8.47584e-06
-6.16518e-05
8.99746e-06
-6.4153e-05
9.52687e-06
-4.6477e-05
1.0855e-05
-4.59369e-05
1.22665e-05
-4.88947e-05
1.35732e-05
-5.23993e-05
1.48036e-05
-5.6156e-05
1.59467e-05
-6.03151e-05
1.69769e-05
-6.49049e-05
1.78695e-05
-6.99539e-05
1.86478e-05
-7.55761e-05
1.90691e-05
-8.17483e-05
-8.93912e-05
7.0336e-07
-4.90708e-05
1.38117e-06
-4.93391e-05
2.03195e-06
-4.98547e-05
2.65827e-06
-5.06109e-05
3.25925e-06
-5.15954e-05
3.83107e-06
-5.28085e-05
4.37208e-06
-5.42417e-05
4.86134e-06
-5.58713e-05
5.27219e-06
-5.76782e-05
5.61212e-06
-5.96908e-05
5.91337e-06
-6.1953e-05
6.20107e-06
-6.44407e-05
6.62361e-06
-4.68995e-05
7.72603e-06
-4.70393e-05
8.83883e-06
-5.00075e-05
9.77935e-06
-5.33398e-05
1.06035e-05
-5.69801e-05
1.13157e-05
-6.10273e-05
1.18913e-05
-6.54805e-05
1.22054e-05
-7.02679e-05
1.23851e-05
-7.57558e-05
1.23634e-05
-8.17266e-05
-8.98759e-05
4.8255e-07
-4.95534e-05
9.62119e-07
-4.98187e-05
1.41721e-06
-5.03098e-05
1.84282e-06
-5.10365e-05
2.23441e-06
-5.1987e-05
2.57999e-06
-5.31541e-05
2.86096e-06
-5.45227e-05
3.06239e-06
-5.60727e-05
3.21522e-06
-5.7831e-05
3.29204e-06
-5.97677e-05
3.22079e-06
-6.18818e-05
2.94794e-06
-6.41678e-05
3.59338e-06
-4.75449e-05
4.72674e-06
-4.81727e-05
5.54212e-06
-5.08229e-05
6.08235e-06
-5.38801e-05
6.46881e-06
6.72829e-06
6.88139e-06
6.56305e-06
5.93954e-06
5.40088e-06
1.73426e-07
3.46633e-07
5.0958e-07
6.55395e-07
7.8026e-07
8.81311e-07
9.57144e-07
1.00223e-06
9.90594e-07
8.58547e-07
4.10289e-07
-5.00822e-07
7.20202e-07
1.8042e-06
2.0777e-06
)
;

boundaryField
{
    leftWall
    {
        type            calculated;
        value           uniform 0;
    }
    rightWall
    {
        type            calculated;
        value           nonuniform 0();
    }
    lowerWall
    {
        type            calculated;
        value           nonuniform List<scalar> 
22
(
-4.23516e-22
4.23516e-22
-1.0989e-47
-4.23516e-22
-4.23516e-22
-2.6262e-45
-3.26036e-44
4.23516e-22
4.23516e-22
-4.23516e-22
4.23516e-22
-4.23516e-22
3.17637e-22
-2.11758e-22
-1.05879e-22
-3.97047e-22
-1.49358e-22
-4.32902e-22
6.59995e-22
-4.27142e-22
-1.89725e-23
5.44754e-22
)
;
    }
    atmosphere
    {
        type            calculated;
        value           nonuniform 0();
    }
    defaultFaces
    {
        type            empty;
        value           nonuniform 0();
    }
    procBoundary0to1
    {
        type            processor;
        value           nonuniform List<scalar> 
26
(
9.9319e-06
1.03028e-05
1.10766e-05
1.23522e-05
1.45393e-05
1.75702e-05
2.26224e-05
3.00889e-05
0.000122356
0.000124934
0.00012196
0.000116388
0.000106296
9.45795e-05
8.33225e-05
7.26335e-05
7.37516e-05
6.53068e-05
5.66343e-05
4.99022e-05
4.31391e-05
3.54531e-05
2.75002e-05
2.00675e-05
1.2848e-05
4.42378e-06
)
;
    }
    procBoundary0to2
    {
        type            processor;
        value           nonuniform List<scalar> 
24
(
-5.73665e-05
-6.12868e-05
-6.56336e-05
-6.99496e-05
-7.51323e-05
-8.1188e-05
-8.88988e-05
-4.97268e-05
-4.99919e-05
-5.04728e-05
-5.11823e-05
-5.21119e-05
-5.32551e-05
-5.45985e-05
-5.61178e-05
-5.78193e-05
-5.96356e-05
-6.14335e-05
-6.32567e-05
-4.87659e-05
-4.92566e-05
-5.10964e-05
2.07796e-06
-5.38803e-05
)
;
    }
}


// ************************************************************************* //
