/*--------------------------------*- C++ -*----------------------------------*\
| =========                 |                                                 |
| \\      /  F ield         | OpenFOAM: The Open Source CFD Toolbox           |
|  \\    /   O peration     | Version:  2.4.0                                 |
|   \\  /    A nd           | Web:      www.OpenFOAM.org                      |
|    \\/     M anipulation  |                                                 |
\*---------------------------------------------------------------------------*/
FoamFile
{
    version     2.0;
    format      ascii;
    class       surfaceScalarField;
    location    "0.05";
    object      phi.mercury;
}
// * * * * * * * * * * * * * * * * * * * * * * * * * * * * * * * * * * * * * //

dimensions      [0 3 -1 0 0 0 0];

internalField   nonuniform List<scalar> 
1101
(
1.60818e-06
-1.60819e-06
3.27928e-06
-1.6711e-06
5.07961e-06
-1.80033e-06
7.08305e-06
-2.00345e-06
9.37627e-06
-2.29321e-06
1.20669e-05
-2.69068e-06
1.52941e-05
-3.22716e-06
1.92555e-05
-3.96142e-06
2.42049e-05
-4.9494e-06
3.04982e-05
-6.29323e-06
3.96122e-05
-9.11402e-06
5.3714e-05
-1.41532e-05
6.09505e-05
-1.16087e-05
6.26394e-05
-2.27474e-05
6.74366e-05
-4.99442e-05
6.84898e-05
-7.73192e-05
4.01156e-05
-5.26349e-05
3.56705e-05
5.20299e-06
2.99092e-05
5.15042e-06
2.45906e-05
5.27529e-06
1.81526e-05
6.43061e-06
8.21928e-06
1.59438e-06
-3.20256e-06
3.2509e-06
-3.32762e-06
5.03499e-06
-3.58442e-06
7.01934e-06
-3.98779e-06
9.2888e-06
-4.56268e-06
1.19484e-05
-5.35027e-06
1.51328e-05
-6.41159e-06
1.90379e-05
-7.86654e-06
2.39049e-05
-9.81633e-06
3.01661e-05
-1.25545e-05
3.86446e-05
-1.75925e-05
5.06313e-05
-2.62965e-05
5.55553e-05
-2.61436e-05
5.81729e-05
-3.62435e-05
5.59427e-05
-5.67542e-05
4.09661e-05
-6.61849e-05
3.9781e-05
4.57297e-07
3.47392e-05
1.23146e-05
2.99294e-05
9.92836e-06
2.48867e-05
1.03069e-05
1.85834e-05
1.27287e-05
1.64973e-05
1.5664e-06
-4.76897e-06
3.19339e-06
-4.95461e-06
4.94463e-06
-5.33566e-06
6.8905e-06
-5.93366e-06
9.11233e-06
-6.78451e-06
1.17097e-05
-7.94769e-06
1.48097e-05
-9.51159e-06
1.85912e-05
-1.1648e-05
2.3275e-05
-1.45001e-05
2.92083e-05
-1.84877e-05
3.71782e-05
-2.55624e-05
4.67072e-05
-3.63178e-05
4.80734e-05
-4.12115e-05
4.86089e-05
-4.70193e-05
4.13008e-05
-6.78428e-05
2.62588e-05
-5.36486e-05
3.77791e-05
2.19165e-05
3.40292e-05
1.64981e-05
2.99836e-05
1.39326e-05
2.54309e-05
1.48466e-05
1.94254e-05
1.87306e-05
2.48462e-05
1.52488e-06
-6.29385e-06
3.10807e-06
-6.5378e-06
4.81072e-06
-7.03832e-06
6.69989e-06
-7.82283e-06
8.8518e-06
-8.93642e-06
1.13584e-05
-1.04543e-05
1.43354e-05
-1.24886e-05
1.7936e-05
-1.52486e-05
2.23532e-05
-1.89173e-05
2.7846e-05
-2.39805e-05
3.4978e-05
-3.26944e-05
4.21379e-05
-4.46649e-05
4.13234e-05
-5.30947e-05
4.09706e-05
-5.56846e-05
3.18282e-05
-7.0232e-05
2.32412e-05
-2.59323e-05
3.59793e-05
2.66271e-05
3.33567e-05
1.94534e-05
3.01569e-05
1.71269e-05
2.63053e-05
1.86928e-05
2.07904e-05
2.42419e-05
3.32841e-05
1.47032e-06
-7.76417e-06
2.99601e-06
-8.06349e-06
4.63508e-06
-8.67739e-06
6.45049e-06
-9.63824e-06
8.51191e-06
-1.09978e-05
1.09019e-05
-1.28443e-05
1.3722e-05
-1.53087e-05
1.70967e-05
-1.86233e-05
2.11846e-05
-2.30052e-05
2.61782e-05
-2.89742e-05
3.23362e-05
-3.88524e-05
3.71215e-05
-5.15742e-05
3.52093e-05
-6.09708e-05
3.39552e-05
-6.23772e-05
2.32514e-05
-7.29569e-05
2.6581e-05
2.52943e-06
3.40013e-05
2.77633e-05
3.2744e-05
2.10813e-05
3.0509e-05
1.93698e-05
2.7558e-05
2.16399e-05
2.28322e-05
2.89671e-05
4.15793e-05
1.40339e-06
-9.16756e-06
2.8586e-06
-9.51871e-06
4.42004e-06
-1.02388e-05
6.14611e-06
-1.13643e-05
8.09864e-06
-1.29504e-05
1.03496e-05
-1.50953e-05
1.29842e-05
-1.79434e-05
1.61008e-05
-2.17398e-05
1.98241e-05
-2.67285e-05
2.43001e-05
-3.34503e-05
2.94473e-05
-4.39995e-05
3.20005e-05
-5.72259e-05
2.99256e-05
-6.56311e-05
2.80116e-05
-6.68488e-05
1.5288e-05
-7.13091e-05
2.87846e-05
2.26959e-05
3.26918e-05
2.7951e-05
3.21874e-05
2.17205e-05
3.10293e-05
2.05354e-05
2.92651e-05
2.34031e-05
2.56508e-05
3.25811e-05
4.96638e-05
1.32483e-06
-1.04924e-05
2.69734e-06
-1.08912e-05
4.16805e-06
-1.17095e-05
5.79099e-06
-1.29872e-05
7.61865e-06
-1.4778e-05
9.71159e-06
-1.71882e-05
1.21375e-05
-2.03692e-05
1.49726e-05
-2.45749e-05
1.83069e-05
-3.00628e-05
2.22671e-05
-3.74105e-05
2.64957e-05
-4.82282e-05
2.71142e-05
-6.18835e-05
2.52232e-05
-6.8338e-05
2.29647e-05
-6.95209e-05
1.32349e-05
-6.42819e-05
2.89429e-05
3.1178e-05
3.13639e-05
2.67448e-05
3.18658e-05
2.12494e-05
3.18161e-05
2.05846e-05
3.13035e-05
2.39148e-05
2.9128e-05
3.47561e-05
5.61735e-05
1.23469e-06
-1.17271e-05
2.51205e-06
-1.21686e-05
3.87832e-06
-1.30758e-05
5.38433e-06
-1.44932e-05
7.07338e-06
-1.64671e-05
8.99267e-06
-1.91075e-05
1.11896e-05
-2.25662e-05
1.37207e-05
-2.7106e-05
1.66463e-05
-3.29884e-05
2.00348e-05
-4.0799e-05
2.3671e-05
-5.18644e-05
2.25326e-05
-6.56724e-05
2.08176e-05
-7.02719e-05
1.81743e-05
-7.17706e-05
1.19783e-05
-5.31273e-05
2.77849e-05
3.18496e-05
3.0185e-05
2.45407e-05
3.16085e-05
1.98317e-05
3.272e-05
1.94729e-05
3.3643e-05
2.29916e-05
3.35304e-05
3.48697e-05
5.9623e-05
2.27046e-06
-1.39975e-05
4.60882e-06
-1.45069e-05
7.09502e-06
-1.5562e-05
9.85643e-06
-1.72546e-05
1.30207e-05
-1.96313e-05
1.6552e-05
-2.26388e-05
2.04355e-05
-2.64497e-05
2.48115e-05
-3.14821e-05
2.96134e-05
-3.77909e-05
3.51135e-05
-4.6302e-05
4.04375e-05
-5.7202e-05
3.38441e-05
-7.21798e-05
3.02525e-05
-7.37339e-05
2.43102e-05
-7.62254e-05
2.15551e-05
-1.7964e-05
5.38186e-05
2.32159e-05
6.08668e-05
1.74875e-05
6.64785e-05
1.42214e-05
7.22431e-05
1.37086e-05
7.94754e-05
1.57606e-05
9.13249e-05
2.30217e-05
2.86149e-05
1.77505e-06
-1.57981e-05
3.59901e-06
-1.6359e-05
5.52054e-06
-1.7517e-05
7.60968e-06
-1.93874e-05
1.00166e-05
-2.21042e-05
1.27141e-05
-2.54319e-05
1.53877e-05
-2.9287e-05
1.84844e-05
-3.48212e-05
2.11863e-05
-4.09004e-05
2.42059e-05
-4.99509e-05
2.66277e-05
-6.05947e-05
1.70113e-05
-7.88251e-05
1.39878e-05
-7.91696e-05
1.15284e-05
-6.79486e-05
2.83024e-05
7.45992e-06
4.82853e-05
1.14343e-05
5.76701e-05
8.25546e-06
6.59689e-05
5.94218e-06
7.48177e-05
4.8626e-06
8.57467e-05
4.83305e-06
0.000101875
6.89731e-06
5.57136e-06
1.41752e-06
-2.09618e-05
2.81116e-06
-2.15633e-05
4.20312e-06
-2.28081e-05
5.70048e-06
-2.49109e-05
7.17371e-06
-2.80251e-05
8.42331e-06
-3.15277e-05
1.01387e-05
-3.66795e-05
1.13164e-05
-4.23124e-05
1.26438e-05
-4.99313e-05
1.2376e-05
-5.83457e-05
1.10089e-05
-6.89008e-05
4.63057e-06
-8.26278e-05
2.78463e-06
-8.35453e-05
3.2675e-06
-3.82577e-05
3.30766e-05
1.50884e-07
4.52927e-05
-5.7872e-07
5.54376e-05
-1.85012e-06
6.49243e-05
-3.53676e-06
7.50927e-05
-5.30329e-06
8.71043e-05
-7.17551e-06
0.00010251
-8.50623e-06
-1.38597e-05
5.37108e-07
-1.86e-05
9.68802e-07
-1.90056e-05
8.54897e-07
-1.95285e-05
1.03082e-06
-2.65921e-05
2.51297e-06
-4.1031e-05
2.37603e-06
-3.8182e-05
4.23065e-06
-5.52096e-05
3.97578e-06
-5.14381e-05
5.60205e-06
-6.80628e-05
5.44855e-06
-6.4022e-05
4.47585e-06
-7.56934e-05
2.15254e-06
-7.44943e-05
3.57909e-06
-5.55376e-05
9.08041e-06
-1.78772e-05
3.44112e-05
-1.21558e-05
4.44501e-05
-1.06224e-05
5.3838e-05
-1.12375e-05
6.32562e-05
-1.29539e-05
7.34022e-05
-1.54476e-05
8.49949e-05
-1.87657e-05
9.89368e-05
-2.24441e-05
-3.13006e-05
6.38132e-06
-2.3067e-05
9.49511e-06
-2.37026e-05
1.15231e-05
-2.48782e-05
1.18668e-05
-1.96793e-05
1.64226e-05
-2.09261e-05
1.61287e-05
-2.15825e-05
1.73933e-05
-2.69084e-05
1.67764e-05
-2.76541e-05
1.61477e-05
-3.39368e-05
1.6807e-05
-3.36427e-05
1.53125e-05
-3.8847e-05
1.80709e-05
-3.86097e-05
1.53554e-05
-2.77103e-05
2.82802e-05
-2.17652e-05
3.64082e-05
-1.891e-05
4.41208e-05
-1.83358e-05
5.22573e-05
-1.93741e-05
6.08629e-05
-2.15588e-05
7.01992e-05
-2.4782e-05
8.06011e-05
-2.91653e-05
9.25476e-05
-3.4388e-05
-4.50403e-05
4.56416e-06
-2.74973e-05
9.12649e-06
-2.80459e-05
1.36045e-05
-2.91701e-05
1.73898e-05
-3.10102e-05
2.17845e-05
-3.30044e-05
2.52032e-05
-3.58531e-05
2.91604e-05
-3.88973e-05
3.17136e-05
-4.29364e-05
3.30995e-05
-4.7154e-05
3.2827e-05
-5.17761e-05
3.09167e-05
-5.55562e-05
2.77851e-05
-5.85917e-05
2.75542e-05
-3.93349e-05
3.1215e-05
-2.56056e-05
3.66896e-05
-2.40492e-05
4.30627e-05
-2.47093e-05
5.00931e-05
-2.64044e-05
5.76822e-05
-2.91472e-05
6.58781e-05
-3.29764e-05
7.47617e-05
-3.80472e-05
8.4519e-05
-4.41433e-05
-5.50932e-05
3.97265e-06
-3.14699e-05
7.91402e-06
-3.19872e-05
1.17566e-05
-3.30125e-05
1.52988e-05
-3.45521e-05
1.87693e-05
-3.64754e-05
2.18415e-05
-3.89254e-05
2.46614e-05
-4.17205e-05
2.67654e-05
-4.50432e-05
2.81422e-05
-4.85605e-05
2.84988e-05
-5.21471e-05
2.81837e-05
-5.52849e-05
2.74439e-05
-5.78669e-05
2.81964e-05
-4.04629e-05
3.1493e-05
-2.87611e-05
3.60587e-05
-2.82691e-05
4.13546e-05
-3.00056e-05
4.73423e-05
-3.23921e-05
5.38586e-05
-3.56628e-05
6.08295e-05
-3.99461e-05
6.81778e-05
-4.53945e-05
7.59133e-05
-5.18782e-05
-6.2498e-05
3.47223e-06
-3.49423e-05
6.89837e-06
-3.54134e-05
1.02143e-05
-3.63285e-05
1.33453e-05
-3.7683e-05
1.63093e-05
-3.94393e-05
1.89811e-05
-4.15969e-05
2.13661e-05
-4.41051e-05
2.32486e-05
-4.69253e-05
2.4609e-05
-4.99205e-05
2.53802e-05
-5.29181e-05
2.57705e-05
-5.56753e-05
2.6089e-05
-5.81856e-05
2.72462e-05
-4.19402e-05
3.03656e-05
-3.16421e-05
3.44045e-05
-3.20172e-05
3.89421e-05
-3.45435e-05
4.40397e-05
-3.74897e-05
4.9555e-05
-4.11776e-05
5.53678e-05
-4.57581e-05
6.13276e-05
-5.13538e-05
6.7335e-05
-5.78857e-05
-6.77935e-05
3.00812e-06
-3.79507e-05
5.97219e-06
-3.83777e-05
8.84259e-06
-3.91992e-05
1.15723e-05
-4.04129e-05
1.41286e-05
-4.19958e-05
1.64556e-05
-4.39238e-05
1.85062e-05
-4.61557e-05
2.02141e-05
-4.86331e-05
2.15558e-05
-5.12622e-05
2.2562e-05
-5.39244e-05
2.33801e-05
-5.64937e-05
2.42588e-05
-5.9068e-05
2.53715e-05
-4.33669e-05
2.83966e-05
-3.43622e-05
3.20442e-05
-3.54358e-05
3.59784e-05
-3.8478e-05
4.03135e-05
-4.18248e-05
4.4941e-05
-4.58047e-05
4.97348e-05
-5.05514e-05
5.4527e-05
-5.61461e-05
5.91623e-05
-6.25213e-05
6.28797e-05
-7.15112e-05
-7.61758e-05
2.59087e-06
-4.05419e-05
5.14321e-06
-4.09304e-05
7.61671e-06
-4.16731e-05
9.9739e-06
-4.27705e-05
1.21806e-05
-4.42027e-05
1.41998e-05
-4.59432e-05
1.59984e-05
-4.79545e-05
1.755e-05
-5.01848e-05
1.88554e-05
-5.25678e-05
1.99569e-05
-5.50262e-05
2.09599e-05
-5.74969e-05
2.19818e-05
-6.00914e-05
2.30986e-05
-4.47764e-05
2.59536e-05
-3.68826e-05
2.92022e-05
-3.85279e-05
3.26166e-05
-4.18927e-05
3.62932e-05
-4.55013e-05
4.01535e-05
-4.96646e-05
4.40891e-05
-5.44866e-05
4.79555e-05
-6.00125e-05
5.16149e-05
-6.61812e-05
5.44384e-05
-7.4335e-05
-7.83662e-05
2.21279e-06
-4.27552e-05
4.39306e-06
-4.31112e-05
6.50786e-06
-4.37884e-05
8.52677e-06
-4.47899e-05
1.04217e-05
-4.6098e-05
1.21667e-05
-4.76886e-05
1.37416e-05
-4.95296e-05
1.51375e-05
-5.15809e-05
1.6365e-05
-5.37955e-05
1.74621e-05
-5.61234e-05
1.84938e-05
-5.85289e-05
1.94825e-05
-6.10768e-05
2.05669e-05
-4.60903e-05
2.32021e-05
-3.91846e-05
2.60518e-05
-4.12804e-05
2.89915e-05
-4.48326e-05
3.20886e-05
-4.85983e-05
3.52872e-05
-5.2863e-05
3.85059e-05
-5.77051e-05
4.16456e-05
-6.31523e-05
4.46371e-05
-6.9173e-05
4.70535e-05
-7.67516e-05
-8.12112e-05
1.86827e-06
-4.46242e-05
3.70914e-06
-4.49528e-05
5.49597e-06
-4.55759e-05
7.20476e-06
-4.64993e-05
8.81389e-06
-4.77077e-05
1.03051e-05
-4.91803e-05
1.16665e-05
-5.08914e-05
1.28966e-05
-5.28114e-05
1.4009e-05
-5.49083e-05
1.50366e-05
-5.71514e-05
1.60349e-05
-5.95276e-05
1.70687e-05
-6.2122e-05
1.78683e-05
-4.70621e-05
2.02492e-05
-4.12367e-05
2.27085e-05
-4.36864e-05
2.52052e-05
-4.73296e-05
2.77817e-05
-5.1175e-05
3.03988e-05
-5.548e-05
3.30001e-05
-6.03065e-05
3.55264e-05
-6.56789e-05
3.79572e-05
-7.16042e-05
4.00402e-05
-7.88347e-05
-8.43065e-05
1.55277e-06
-4.61777e-05
3.08134e-06
-4.64823e-05
4.56379e-06
-4.70592e-05
5.98349e-06
-4.79198e-05
7.32523e-06
-4.90503e-05
8.57494e-06
-5.04307e-05
9.72465e-06
-5.20418e-05
1.07757e-05
-5.38631e-05
1.17401e-05
-5.58733e-05
1.26413e-05
-5.80531e-05
1.35124e-05
-6.03992e-05
1.43436e-05
-6.2953e-05
1.50229e-05
-4.78773e-05
1.71621e-05
-4.30514e-05
1.92538e-05
-4.57533e-05
2.13343e-05
-4.94106e-05
2.34337e-05
-5.32747e-05
2.55249e-05
-5.75714e-05
2.75696e-05
-6.23515e-05
2.9531e-05
-6.76407e-05
3.14015e-05
-7.34752e-05
3.29569e-05
-8.03904e-05
-8.67996e-05
1.25254e-06
-4.74316e-05
2.49104e-06
-4.77219e-05
3.69069e-06
-4.82599e-05
4.83998e-06
-4.90701e-05
5.92939e-06
-5.01406e-05
6.94601e-06
-5.14483e-05
7.88303e-06
-5.29797e-05
8.74297e-06
-5.47239e-05
9.53545e-06
-5.66665e-05
1.02777e-05
-5.87961e-05
1.09938e-05
-6.11161e-05
1.16756e-05
-6.36334e-05
1.21497e-05
-4.8411e-05
1.40142e-05
-4.46238e-05
1.57555e-05
-4.74865e-05
1.74399e-05
-5.10957e-05
1.90931e-05
-5.49283e-05
2.0696e-05
-5.91745e-05
2.2221e-05
-6.38769e-05
2.36431e-05
-6.90631e-05
2.49667e-05
-7.47991e-05
2.59042e-05
-8.13279e-05
-8.83933e-05
9.38988e-07
-4.83718e-05
1.88124e-06
-4.86656e-05
2.82807e-06
-4.92082e-05
3.7453e-06
-4.99888e-05
4.60177e-06
-5.09985e-05
5.39268e-06
-5.22406e-05
6.11606e-06
-5.37044e-05
6.7766e-06
-5.53857e-05
7.37972e-06
-5.72708e-05
7.93677e-06
-5.93542e-05
8.47473e-06
-6.16548e-05
8.99241e-06
-6.41558e-05
9.28612e-06
-4.86108e-05
1.0851e-05
-4.59424e-05
1.22644e-05
-4.88989e-05
1.35711e-05
-5.2403e-05
1.48016e-05
-5.61593e-05
1.59448e-05
-6.0318e-05
1.69751e-05
-6.49073e-05
1.78676e-05
-6.99559e-05
1.8646e-05
-7.55776e-05
1.90672e-05
-8.17492e-05
-8.93916e-05
7.03325e-07
-4.9077e-05
1.38105e-06
-4.93452e-05
2.03169e-06
-4.98608e-05
2.65786e-06
-5.0617e-05
3.25871e-06
-5.16014e-05
3.83043e-06
-5.28144e-05
4.37135e-06
-5.42475e-05
4.86054e-06
-5.58771e-05
5.27133e-06
-5.7684e-05
5.61128e-06
-5.96967e-05
5.91256e-06
-6.19591e-05
6.19305e-06
-6.44474e-05
6.44596e-06
-4.85459e-05
7.72427e-06
-4.70446e-05
8.83728e-06
-5.0013e-05
9.77769e-06
-5.3345e-05
1.06019e-05
-5.69851e-05
1.13142e-05
-6.10327e-05
1.18898e-05
-6.54875e-05
1.2204e-05
-7.0278e-05
1.23838e-05
-7.57688e-05
1.23622e-05
-8.17429e-05
-8.98879e-05
4.82515e-07
-5.0152e-05
9.62e-07
-5.04258e-05
1.41699e-06
-5.09329e-05
1.84249e-06
-5.16837e-05
2.23398e-06
-5.26662e-05
2.57947e-06
-5.38731e-05
2.86035e-06
-5.52892e-05
3.06164e-06
-5.6892e-05
3.21433e-06
-5.8709e-05
3.29102e-06
-6.07086e-05
3.21957e-06
-6.288e-05
2.94457e-06
-6.52242e-05
3.51747e-06
-4.90886e-05
4.72586e-06
-4.87882e-05
5.54096e-06
-5.15109e-05
6.08101e-06
-5.46786e-05
6.46697e-06
6.72518e-06
6.87517e-06
6.55168e-06
5.91957e-06
5.33011e-06
1.68557e-07
3.35842e-07
4.92857e-07
6.33327e-07
7.52783e-07
8.48402e-07
9.18855e-07
9.57421e-07
9.41361e-07
8.16367e-07
3.75758e-07
-4.29573e-07
6.98668e-07
1.75419e-06
2.01034e-06
)
;

boundaryField
{
    leftWall
    {
        type            fixedValue;
        value           uniform 0;
    }
    rightWall
    {
        type            fixedValue;
        value           nonuniform 0();
    }
    lowerWall
    {
        type            fixedValue;
        value           uniform 0;
    }
    atmosphere
    {
        type            calculated;
        value           nonuniform 0();
    }
    defaultFaces
    {
        type            empty;
        value           nonuniform 0();
    }
    procBoundary0to1
    {
        type            processor;
        value           nonuniform List<scalar> 
26
(
9.92984e-06
1.03009e-05
1.10744e-05
1.23499e-05
1.45365e-05
1.75671e-05
2.26185e-05
3.00825e-05
0.000122335
0.00012492
0.000121946
0.00011638
0.000106291
9.45727e-05
8.33184e-05
7.26301e-05
7.37532e-05
6.18338e-05
4.88282e-05
3.63595e-05
2.52522e-05
1.72836e-05
1.18607e-05
7.89689e-06
4.72803e-06
2.46766e-06
)
;
    }
    procBoundary0to2
    {
        type            processor;
        value           nonuniform List<scalar> 
24
(
-5.82937e-05
-6.23621e-05
-6.68584e-05
-7.12434e-05
-7.64224e-05
-8.22636e-05
-8.9199e-05
-6.26735e-05
-6.2924e-05
-6.33796e-05
-6.40538e-05
-6.49339e-05
-6.60029e-05
-6.72403e-05
-6.86227e-05
-7.01215e-05
-7.16854e-05
-7.32242e-05
-7.46611e-05
-6.13076e-05
-6.22222e-05
-6.44799e-05
2.00387e-06
-6.73314e-05
)
;
    }
}


// ************************************************************************* //
