/*--------------------------------*- C++ -*----------------------------------*\
| =========                 |                                                 |
| \\      /  F ield         | OpenFOAM: The Open Source CFD Toolbox           |
|  \\    /   O peration     | Version:  2.4.0                                 |
|   \\  /    A nd           | Web:      www.OpenFOAM.org                      |
|    \\/     M anipulation  |                                                 |
\*---------------------------------------------------------------------------*/
FoamFile
{
    version     2.0;
    format      ascii;
    class       surfaceScalarField;
    location    "0.05";
    object      phi.oil;
}
// * * * * * * * * * * * * * * * * * * * * * * * * * * * * * * * * * * * * * //

dimensions      [0 3 -1 0 0 0 0];

internalField   nonuniform List<scalar> 
1101
(
1.60819e-06
-1.60831e-06
3.27924e-06
-1.67123e-06
5.07948e-06
-1.80044e-06
7.08277e-06
-2.00354e-06
9.37577e-06
-2.29328e-06
1.20662e-05
-2.69077e-06
1.52931e-05
-3.22723e-06
1.92543e-05
-3.96151e-06
2.42038e-05
-4.94947e-06
3.04971e-05
-6.29316e-06
3.96123e-05
-9.1135e-06
5.74213e-05
-1.41278e-05
8.29321e-05
1.23512e-05
8.41496e-05
1.17784e-05
7.00089e-05
1.42752e-05
5.41667e-05
1.62985e-05
4.21163e-05
1.21852e-05
3.50933e-05
7.0229e-06
2.98766e-05
5.21665e-06
2.45913e-05
5.28536e-06
1.81558e-05
6.43548e-06
8.22395e-06
1.59438e-06
-3.20285e-06
3.25087e-06
-3.32789e-06
5.03486e-06
-3.58466e-06
7.01906e-06
-3.98799e-06
9.2883e-06
-4.56286e-06
1.19476e-05
-5.35044e-06
1.51318e-05
-6.41174e-06
1.90367e-05
-7.86665e-06
2.39037e-05
-9.81634e-06
3.01652e-05
-1.25542e-05
3.86478e-05
-1.75917e-05
5.50139e-05
-2.62953e-05
8.27021e-05
2.4564e-06
7.65317e-05
-3.85176e-06
5.98132e-05
1.95384e-05
4.80122e-05
2.7124e-05
4.02146e-05
1.9972e-05
3.46654e-05
1.25721e-05
2.99236e-05
9.95847e-06
2.48904e-05
1.03186e-05
1.8587e-05
1.27389e-05
1.65082e-05
1.56641e-06
-4.76943e-06
3.19336e-06
-4.95505e-06
4.94451e-06
-5.33607e-06
6.89023e-06
-5.93402e-06
9.11183e-06
-6.78486e-06
1.1709e-05
-7.94802e-06
1.48087e-05
-9.5119e-06
1.85901e-05
-1.16483e-05
2.32739e-05
-1.45002e-05
2.92074e-05
-1.84874e-05
3.71838e-05
-2.55616e-05
5.33835e-05
-3.63193e-05
7.69461e-05
-1.10056e-05
6.37349e-05
-7.28028e-06
5.08395e-05
2.77273e-05
4.30439e-05
3.47028e-05
3.81074e-05
2.49065e-05
3.39906e-05
1.66889e-05
2.99776e-05
1.39715e-05
2.54342e-05
1.48621e-05
1.9429e-05
1.87441e-05
2.48606e-05
1.52489e-06
-6.29442e-06
3.10805e-06
-6.53836e-06
4.81061e-06
-7.03883e-06
6.69962e-06
-7.82332e-06
8.85131e-06
-8.93687e-06
1.13577e-05
-1.04547e-05
1.43344e-05
-1.2489e-05
1.79348e-05
-1.52488e-05
2.23521e-05
-1.89172e-05
2.78451e-05
-2.398e-05
3.49841e-05
-3.26934e-05
5.26521e-05
-4.46691e-05
6.69752e-05
-2.74403e-05
5.17878e-05
-5.28873e-06
4.27099e-05
3.44861e-05
3.88848e-05
3.84574e-05
3.61896e-05
2.76015e-05
3.33428e-05
1.95357e-05
3.01587e-05
1.71556e-05
2.63099e-05
1.87109e-05
2.07944e-05
2.42596e-05
3.33029e-05
1.47034e-06
-7.76502e-06
2.996e-06
-8.06431e-06
4.63498e-06
-8.67818e-06
6.45023e-06
-9.639e-06
8.51142e-06
-1.09986e-05
1.09012e-05
-1.2845e-05
1.37211e-05
-1.53093e-05
1.70956e-05
-1.86237e-05
2.11836e-05
-2.30052e-05
2.61775e-05
-2.89737e-05
3.23418e-05
-3.88519e-05
5.13042e-05
-5.15842e-05
5.63405e-05
-4.13959e-05
4.20225e-05
-1.20566e-06
3.62553e-05
3.91731e-05
3.53494e-05
3.93334e-05
3.43953e-05
2.85555e-05
3.27555e-05
2.11755e-05
3.0511e-05
1.94001e-05
2.75626e-05
2.16592e-05
2.28364e-05
2.89858e-05
4.16e-05
1.40341e-06
-9.16877e-06
2.8586e-06
-9.51989e-06
4.41994e-06
-1.024e-05
6.14585e-06
-1.13655e-05
8.09816e-06
-1.29516e-05
1.03489e-05
-1.50964e-05
1.29833e-05
-1.79444e-05
1.60998e-05
-2.17405e-05
1.98232e-05
-2.67287e-05
2.42995e-05
-3.34501e-05
2.94519e-05
-4.39993e-05
4.87984e-05
-5.72421e-05
4.63268e-05
-5.07439e-05
3.40519e-05
3.42939e-06
3.16105e-05
4.1108e-05
3.24123e-05
3.85178e-05
3.27712e-05
2.81966e-05
3.21916e-05
2.17552e-05
3.10342e-05
2.05575e-05
2.92707e-05
2.34228e-05
2.56557e-05
3.26008e-05
4.96855e-05
1.32486e-06
-1.0494e-05
2.69733e-06
-1.08929e-05
4.16796e-06
-1.17113e-05
5.79072e-06
-1.2989e-05
7.61819e-06
-1.47798e-05
9.71092e-06
-1.71899e-05
1.21366e-05
-2.03708e-05
1.49717e-05
-2.4576e-05
1.83061e-05
-3.00634e-05
2.22665e-05
-3.74106e-05
2.64996e-05
-4.82285e-05
4.57075e-05
-6.1903e-05
3.78387e-05
-5.55301e-05
2.75798e-05
8.09571e-06
2.78725e-05
4.05836e-05
2.99946e-05
3.63911e-05
3.13883e-05
2.68029e-05
3.187e-05
2.12736e-05
3.18219e-05
2.06056e-05
3.13096e-05
2.39351e-05
2.91333e-05
3.47771e-05
5.61964e-05
1.23471e-06
-1.17292e-05
2.51202e-06
-1.21707e-05
3.87821e-06
-1.3078e-05
5.38406e-06
-1.44955e-05
7.07293e-06
-1.64694e-05
8.99204e-06
-1.91097e-05
1.11888e-05
-2.25681e-05
1.37199e-05
-2.71074e-05
1.66456e-05
-3.29893e-05
2.00342e-05
-4.07995e-05
2.36738e-05
-5.1865e-05
4.2271e-05
-6.55941e-05
3.06759e-05
-5.64951e-05
2.26579e-05
1.22002e-05
2.47426e-05
3.83811e-05
2.79557e-05
3.31767e-05
3.01933e-05
2.45652e-05
3.16134e-05
1.98535e-05
3.27259e-05
1.9493e-05
3.36495e-05
2.30116e-05
3.35369e-05
3.48897e-05
5.96443e-05
2.27046e-06
-1.40002e-05
4.60873e-06
-1.45097e-05
7.09474e-06
-1.55648e-05
9.85586e-06
-1.72574e-05
1.30198e-05
-1.96341e-05
1.65509e-05
-2.26414e-05
2.04342e-05
-2.6452e-05
2.48102e-05
-3.14838e-05
2.96123e-05
-3.77915e-05
3.51123e-05
-4.62983e-05
4.06557e-05
-5.71872e-05
7.6615e-05
-5.03827e-05
4.41633e-05
-5.007e-05
3.51745e-05
1.6636e-05
4.41377e-05
2.9312e-05
5.38358e-05
2.34781e-05
6.08753e-05
1.75258e-05
6.64877e-05
1.42411e-05
7.22545e-05
1.37262e-05
7.94885e-05
1.57776e-05
9.13399e-05
2.30384e-05
2.86285e-05
1.77502e-06
-1.57412e-05
3.59889e-06
-1.62961e-05
5.52026e-06
-1.74418e-05
7.60919e-06
-1.92914e-05
1.00159e-05
-2.19658e-05
1.27132e-05
-2.52398e-05
1.53868e-05
-2.89857e-05
1.84838e-05
-3.44057e-05
2.11868e-05
-4.02773e-05
2.42098e-05
-4.90867e-05
3.63775e-05
-6.0063e-05
5.49566e-05
-5.39863e-05
2.19179e-05
-4.09564e-05
2.23359e-05
1.453e-05
3.64074e-05
1.5223e-05
4.84406e-05
1.14449e-05
5.76952e-05
8.27111e-06
6.59791e-05
5.95722e-06
7.48284e-05
4.8769e-06
8.57594e-05
4.84656e-06
0.000101888
6.90966e-06
5.58267e-06
1.41982e-06
-1.72875e-05
2.81645e-06
-1.78494e-05
4.21342e-06
-1.9048e-05
5.72109e-06
-2.11272e-05
7.20579e-06
-2.40212e-05
8.48013e-06
-2.73374e-05
1.02419e-05
-3.20423e-05
1.14853e-05
-3.73828e-05
1.29537e-05
-4.42375e-05
1.28075e-05
-5.22831e-05
1.90857e-05
-6.42063e-05
1.32504e-05
-6.62859e-05
4.3365e-06
-3.85762e-05
1.8189e-05
5.09336e-07
3.33042e-05
1.06578e-07
4.53377e-05
-5.88634e-07
5.54504e-05
-1.84157e-06
6.49334e-05
-3.52583e-06
7.51028e-05
-5.29252e-06
8.71151e-05
-7.16579e-06
0.000102522
-8.4975e-06
-1.38555e-05
5.94975e-07
-1.82993e-05
1.09466e-06
-1.87206e-05
9.96553e-07
-1.92437e-05
1.24434e-06
-2.44581e-05
3.15812e-06
-3.49807e-05
2.98395e-06
-3.34556e-05
5.50855e-06
-4.62996e-05
5.40452e-06
-4.48573e-05
8.24685e-06
-5.80393e-05
8.74586e-06
-5.76714e-05
8.57782e-06
-6.65957e-05
6.10433e-06
-6.72255e-05
5.07628e-06
-3.49915e-05
2.21721e-05
-1.61636e-05
3.44295e-05
-1.21549e-05
4.44564e-05
-1.06156e-05
5.38441e-05
-1.12292e-05
6.32638e-05
-1.29455e-05
7.3411e-05
-1.54397e-05
8.50041e-05
-1.87589e-05
9.89455e-05
-2.24389e-05
-3.12985e-05
5.11035e-06
-2.29334e-05
1.03236e-05
-2.34837e-05
1.62189e-05
-2.46924e-05
2.22759e-05
-2.72253e-05
2.51217e-05
-2.85991e-05
3.1065e-05
-3.24308e-05
3.19821e-05
-3.49066e-05
3.64017e-05
-4.03616e-05
3.61954e-05
-4.5717e-05
3.80179e-05
-5.20133e-05
2.14103e-05
-5.74575e-05
2.75274e-05
-5.55988e-05
2.48413e-05
-3.10396e-05
2.96988e-05
-2.09028e-05
3.64103e-05
-1.89043e-05
4.41244e-05
-1.83297e-05
5.22628e-05
-1.93677e-05
6.087e-05
-2.15527e-05
7.02069e-05
-2.47766e-05
8.06091e-05
-2.91611e-05
9.25558e-05
-3.43855e-05
-4.5039e-05
4.56416e-06
-2.74973e-05
9.12649e-06
-2.80459e-05
1.36045e-05
-2.91701e-05
1.73895e-05
-3.10102e-05
2.17853e-05
-3.30054e-05
2.52025e-05
-3.58538e-05
2.9164e-05
-3.89014e-05
3.17156e-05
-4.29399e-05
3.31113e-05
-4.71843e-05
3.28421e-05
-5.17909e-05
2.06276e-05
-5.56e-05
2.77044e-05
-5.33033e-05
2.80369e-05
-3.13542e-05
3.1603e-05
-2.46041e-05
3.66918e-05
-2.40448e-05
4.30665e-05
-2.47044e-05
5.00984e-05
-2.63996e-05
5.76885e-05
-2.91427e-05
6.58846e-05
-3.29728e-05
7.47684e-05
-3.80449e-05
8.45256e-05
-4.41428e-05
-5.5093e-05
3.97265e-06
-3.14699e-05
7.91402e-06
-3.19872e-05
1.17566e-05
-3.30125e-05
1.52988e-05
-3.45521e-05
1.87693e-05
-3.64754e-05
2.18415e-05
-3.89254e-05
2.46614e-05
-4.17205e-05
2.67654e-05
-4.50432e-05
2.81422e-05
-4.85605e-05
2.84989e-05
-5.21471e-05
1.9819e-05
-5.52848e-05
2.73737e-05
-5.34616e-05
2.88652e-05
-3.27874e-05
3.18948e-05
-2.78613e-05
3.60612e-05
-2.82656e-05
4.13585e-05
-3.00017e-05
4.73472e-05
-3.23883e-05
5.3864e-05
-3.56595e-05
6.08348e-05
-3.99436e-05
6.81828e-05
-4.53929e-05
7.59176e-05
-5.18776e-05
-6.24978e-05
3.47223e-06
-3.49423e-05
6.89837e-06
-3.54134e-05
1.02143e-05
-3.63285e-05
1.33453e-05
-3.7683e-05
1.63093e-05
-3.94393e-05
1.89811e-05
-4.15969e-05
2.13661e-05
-4.41051e-05
2.32486e-05
-4.69253e-05
2.4609e-05
-4.99205e-05
2.53803e-05
-5.29181e-05
1.85896e-05
-5.56753e-05
2.60937e-05
-5.3936e-05
2.78922e-05
-3.46908e-05
3.07046e-05
-3.09051e-05
3.44072e-05
-3.20142e-05
3.89458e-05
-3.45403e-05
4.40441e-05
-3.74866e-05
4.95596e-05
-4.1175e-05
5.53722e-05
-4.57562e-05
6.13318e-05
-5.13525e-05
6.73388e-05
-5.78846e-05
-6.77926e-05
3.00812e-06
-3.79507e-05
5.97219e-06
-3.83777e-05
8.84259e-06
-3.91992e-05
1.15723e-05
-4.04129e-05
1.41286e-05
-4.19958e-05
1.64556e-05
-4.39238e-05
1.85062e-05
-4.61557e-05
2.02141e-05
-4.86331e-05
2.15558e-05
-5.12622e-05
2.25621e-05
-5.39244e-05
1.70434e-05
-5.64937e-05
2.43635e-05
-5.51835e-05
2.59914e-05
-3.66157e-05
2.86644e-05
-3.38041e-05
3.2047e-05
-3.54331e-05
3.59819e-05
-3.84752e-05
4.03175e-05
-4.18222e-05
4.4945e-05
-4.58025e-05
4.97385e-05
-5.05497e-05
5.45309e-05
-5.61449e-05
5.91664e-05
-6.25201e-05
6.2884e-05
-7.15101e-05
-7.61744e-05
2.59087e-06
-4.05419e-05
5.14321e-06
-4.09304e-05
7.61671e-06
-4.16731e-05
9.9739e-06
-4.27705e-05
1.21806e-05
-4.42027e-05
1.41998e-05
-4.59432e-05
1.59984e-05
-4.79545e-05
1.755e-05
-5.01848e-05
1.88554e-05
-5.25678e-05
1.9957e-05
-5.50262e-05
1.55828e-05
-5.74969e-05
2.20097e-05
-5.70103e-05
2.36465e-05
-3.85366e-05
2.61372e-05
-3.64922e-05
2.9205e-05
-3.85254e-05
3.26199e-05
-4.18902e-05
3.62968e-05
-4.5499e-05
4.0157e-05
-4.96627e-05
4.40924e-05
-5.44851e-05
4.79588e-05
-6.00113e-05
5.16188e-05
-6.61801e-05
5.44429e-05
-7.43343e-05
-7.83657e-05
2.21279e-06
-4.27552e-05
4.39306e-06
-4.31112e-05
6.50786e-06
-4.37884e-05
8.52677e-06
-4.47899e-05
1.04217e-05
-4.6098e-05
1.21667e-05
-4.76886e-05
1.37416e-05
-4.95296e-05
1.51375e-05
-5.15809e-05
1.6365e-05
-5.37955e-05
1.74622e-05
-5.61234e-05
1.4028e-05
-5.85289e-05
1.94119e-05
-5.79156e-05
2.10369e-05
-4.03832e-05
2.3317e-05
-3.89363e-05
2.60545e-05
-4.1278e-05
2.89946e-05
-4.48303e-05
3.20918e-05
-4.85962e-05
3.52903e-05
-5.28612e-05
3.85089e-05
-5.77037e-05
4.16487e-05
-6.31511e-05
4.46406e-05
-6.91719e-05
4.70572e-05
-7.67509e-05
-8.12108e-05
1.86827e-06
-4.46242e-05
3.70914e-06
-4.49528e-05
5.49597e-06
-4.55759e-05
7.20476e-06
-4.64993e-05
8.81389e-06
-4.77077e-05
1.03051e-05
-4.91803e-05
1.16665e-05
-5.08914e-05
1.28966e-05
-5.28114e-05
1.4009e-05
-5.49083e-05
1.50367e-05
-5.71514e-05
1.20186e-05
-5.95276e-05
1.72652e-05
-5.88741e-05
1.82835e-05
-4.18807e-05
2.03135e-05
-4.11053e-05
2.2711e-05
-4.3684e-05
2.5208e-05
-4.73273e-05
2.77846e-05
-5.11729e-05
3.04016e-05
-5.54782e-05
3.30028e-05
-6.03049e-05
3.55293e-05
-6.56776e-05
3.79605e-05
-7.16031e-05
4.00437e-05
-7.88341e-05
-8.43062e-05
1.55277e-06
-4.61777e-05
3.08134e-06
-4.64823e-05
4.56379e-06
-4.70592e-05
5.98349e-06
-4.79198e-05
7.32523e-06
-4.90503e-05
8.57494e-06
-5.04307e-05
9.72465e-06
-5.20418e-05
1.07757e-05
-5.38631e-05
1.17401e-05
-5.58733e-05
1.26413e-05
-5.80531e-05
1.04491e-05
-6.03993e-05
1.43339e-05
-6.02916e-05
1.54301e-05
-4.32714e-05
1.7194e-05
-4.29973e-05
1.92561e-05
-4.57506e-05
2.13369e-05
-4.9408e-05
2.34363e-05
-5.32723e-05
2.55274e-05
-5.75693e-05
2.75721e-05
-6.23497e-05
2.95336e-05
-6.76391e-05
3.14044e-05
-7.34739e-05
3.296e-05
-8.03897e-05
-8.67993e-05
1.25254e-06
-4.74316e-05
2.49104e-06
-4.77219e-05
3.69069e-06
-4.82599e-05
4.83998e-06
-4.90701e-05
5.92939e-06
-5.01406e-05
6.94601e-06
-5.14483e-05
7.88303e-06
-5.29797e-05
8.74297e-06
-5.47239e-05
9.53545e-06
-5.66665e-05
1.02777e-05
-5.87961e-05
8.6327e-06
-6.11161e-05
1.16516e-05
-6.06453e-05
1.25274e-05
-4.44409e-05
1.40267e-05
-4.46063e-05
1.57577e-05
-4.74833e-05
1.74423e-05
-5.10926e-05
1.90955e-05
-5.49255e-05
2.06982e-05
-5.9172e-05
2.22232e-05
-6.38747e-05
2.36454e-05
-6.90613e-05
2.49692e-05
-7.47977e-05
2.59066e-05
-8.13271e-05
-8.83928e-05
9.38988e-07
-4.83718e-05
1.88124e-06
-4.86656e-05
2.82807e-06
-4.92082e-05
3.7453e-06
-4.99888e-05
4.60177e-06
-5.09985e-05
5.39268e-06
-5.22406e-05
6.11606e-06
-5.37044e-05
6.7766e-06
-5.53857e-05
7.37972e-06
-5.72708e-05
7.9368e-06
-5.93542e-05
6.82173e-06
-6.16548e-05
9.03371e-06
-6.0792e-05
9.61095e-06
-4.54108e-05
1.08556e-05
-4.59366e-05
1.22665e-05
-4.88947e-05
1.35732e-05
-5.23993e-05
1.48036e-05
-5.6156e-05
1.59467e-05
-6.03151e-05
1.69769e-05
-6.49049e-05
1.78695e-05
-6.99538e-05
1.86478e-05
-7.55761e-05
1.90691e-05
-8.17483e-05
-8.93912e-05
7.03325e-07
-4.9077e-05
1.38105e-06
-4.93452e-05
2.03169e-06
-4.98608e-05
2.65786e-06
-5.0617e-05
3.25871e-06
-5.16014e-05
3.83043e-06
-5.28144e-05
4.37135e-06
-5.42475e-05
4.86054e-06
-5.58771e-05
5.27133e-06
-5.7684e-05
5.6113e-06
-5.96967e-05
4.85632e-06
-6.19592e-05
6.25479e-06
-6.17903e-05
6.67728e-06
-4.63072e-05
7.72616e-06
-4.70398e-05
8.83884e-06
-5.00079e-05
9.77935e-06
-5.33405e-05
1.06035e-05
-5.69813e-05
1.13157e-05
-6.10297e-05
1.18913e-05
-6.54851e-05
1.22054e-05
-7.02761e-05
1.23851e-05
-7.57676e-05
1.23634e-05
-8.17426e-05
-8.98882e-05
4.82515e-07
-5.0152e-05
9.62e-07
-5.04258e-05
1.41699e-06
-5.09329e-05
1.84249e-06
-5.16837e-05
2.23398e-06
-5.26662e-05
2.57947e-06
-5.38731e-05
2.86035e-06
-5.52892e-05
3.06164e-06
-5.6892e-05
3.21433e-06
-5.8709e-05
3.29103e-06
-6.07086e-05
2.59568e-06
-6.28801e-05
2.94062e-06
-5.57798e-05
3.61238e-06
-4.79423e-05
4.72667e-06
-4.88181e-05
5.54196e-06
-5.15452e-05
6.08196e-06
-5.47194e-05
6.46787e-06
6.72598e-06
6.87588e-06
6.55195e-06
5.9192e-06
5.32757e-06
1.68557e-07
3.35842e-07
4.92857e-07
6.33327e-07
7.52783e-07
8.48402e-07
9.18855e-07
9.57421e-07
9.41361e-07
8.16378e-07
4.69478e-08
-3.38755e-07
7.07489e-07
1.75158e-06
2.00674e-06
)
;

boundaryField
{
    leftWall
    {
        type            fixedValue;
        value           uniform 0;
    }
    rightWall
    {
        type            fixedValue;
        value           nonuniform 0();
    }
    lowerWall
    {
        type            fixedValue;
        value           uniform 0;
    }
    atmosphere
    {
        type            calculated;
        value           nonuniform 0();
    }
    defaultFaces
    {
        type            empty;
        value           nonuniform 0();
    }
    procBoundary0to1
    {
        type            processor;
        value           nonuniform List<scalar> 
26
(
9.9319e-06
1.03028e-05
1.10766e-05
1.23522e-05
1.45393e-05
1.75702e-05
2.26224e-05
3.0089e-05
0.000122356
0.000124934
0.00012196
0.000116388
0.000106296
9.45795e-05
8.33225e-05
7.26335e-05
7.37516e-05
6.16086e-05
4.83385e-05
3.55154e-05
2.414e-05
1.61473e-05
1.08546e-05
7.06486e-06
4.09384e-06
2.23159e-06
)
;
    }
    procBoundary0to2
    {
        type            processor;
        value           nonuniform List<scalar> 
24
(
-5.83413e-05
-6.24169e-05
-6.69198e-05
-7.13058e-05
-7.64818e-05
-8.23104e-05
-8.92112e-05
-6.26735e-05
-6.2924e-05
-6.33796e-05
-6.40538e-05
-6.49339e-05
-6.60029e-05
-6.72403e-05
-6.86227e-05
-7.01215e-05
-7.16854e-05
-7.32255e-05
-6.64572e-05
-6.18642e-05
-6.29955e-05
-6.52756e-05
1.99994e-06
-6.81295e-05
)
;
    }
}


// ************************************************************************* //
