/*--------------------------------*- C++ -*----------------------------------*\
| =========                 |                                                 |
| \\      /  F ield         | OpenFOAM: The Open Source CFD Toolbox           |
|  \\    /   O peration     | Version:  2.4.0                                 |
|   \\  /    A nd           | Web:      www.OpenFOAM.org                      |
|    \\/     M anipulation  |                                                 |
\*---------------------------------------------------------------------------*/
FoamFile
{
    version     2.0;
    format      ascii;
    class       surfaceScalarField;
    location    "0.05";
    object      phi.water;
}
// * * * * * * * * * * * * * * * * * * * * * * * * * * * * * * * * * * * * * //

dimensions      [0 3 -1 0 0 0 0];

internalField   nonuniform List<scalar> 
1101
(
1.60819e-06
-1.60831e-06
3.27924e-06
-1.67123e-06
5.07948e-06
-1.80044e-06
7.08277e-06
-2.00354e-06
9.37577e-06
-2.29328e-06
1.20662e-05
-2.69077e-06
1.52931e-05
-3.22723e-06
1.92543e-05
-3.96151e-06
2.42038e-05
-4.94947e-06
3.04971e-05
-6.29316e-06
3.96111e-05
-9.1135e-06
5.37654e-05
-1.41545e-05
6.25813e-05
-1.08385e-05
6.67582e-05
-1.7891e-05
6.84527e-05
-2.67594e-05
5.84667e-05
-1.08422e-05
4.20774e-05
1.12176e-05
3.50855e-05
7.0188e-06
2.98703e-05
5.21187e-06
2.45863e-05
5.28106e-06
1.81522e-05
6.43104e-06
8.2193e-06
1.59438e-06
-3.20285e-06
3.25087e-06
-3.32789e-06
5.03486e-06
-3.58466e-06
7.01906e-06
-3.98799e-06
9.2883e-06
-4.56286e-06
1.19476e-05
-5.35044e-06
1.51318e-05
-6.41174e-06
1.90367e-05
-7.86665e-06
2.39037e-05
-9.81634e-06
3.01652e-05
-1.25542e-05
3.86436e-05
-1.75916e-05
5.07596e-05
-2.6298e-05
5.8939e-05
-2.45905e-05
6.32813e-05
-2.95407e-05
5.79584e-05
-1.79732e-05
4.73942e-05
1.91312e-05
4.02051e-05
1.99575e-05
3.46582e-05
1.25601e-05
2.99174e-05
9.94781e-06
2.48854e-05
1.03087e-05
1.85833e-05
1.27288e-05
1.64973e-05
1.56641e-06
-4.76943e-06
3.19336e-06
-4.95505e-06
4.94451e-06
-5.33607e-06
6.89023e-06
-5.93402e-06
9.11183e-06
-6.78486e-06
1.1709e-05
-7.94802e-06
1.48087e-05
-9.5119e-06
1.85901e-05
-1.16483e-05
2.32739e-05
-1.45002e-05
2.92074e-05
-1.84874e-05
3.71773e-05
-2.55616e-05
4.7047e-05
-3.63194e-05
5.27949e-05
-3.88441e-05
5.38663e-05
-3.6356e-05
4.74051e-05
-6.77847e-06
4.27344e-05
3.28939e-05
3.81005e-05
2.48915e-05
3.39842e-05
1.6674e-05
2.99717e-05
1.39581e-05
2.54291e-05
1.48492e-05
1.94252e-05
1.87308e-05
2.48462e-05
1.52489e-06
-6.29442e-06
3.10805e-06
-6.53836e-06
4.81061e-06
-7.03883e-06
6.69962e-06
-7.82332e-06
8.85131e-06
-8.93687e-06
1.13577e-05
-1.04547e-05
1.43344e-05
-1.2489e-05
1.79348e-05
-1.52488e-05
2.23521e-05
-1.89172e-05
2.78452e-05
-2.398e-05
3.49774e-05
-3.26933e-05
4.28831e-05
-4.46647e-05
4.64256e-05
-5.04924e-05
4.53229e-05
-3.93075e-05
3.99573e-05
8.44215e-06
3.88278e-05
3.82036e-05
3.61832e-05
2.75807e-05
3.33367e-05
1.95159e-05
3.01529e-05
1.71379e-05
2.63047e-05
1.86939e-05
2.07903e-05
2.4242e-05
3.32841e-05
1.47034e-06
-7.76502e-06
2.996e-06
-8.06431e-06
4.63498e-06
-8.67818e-06
6.45023e-06
-9.639e-06
8.51142e-06
-1.09986e-05
1.09012e-05
-1.2845e-05
1.37211e-05
-1.53093e-05
1.70956e-05
-1.86237e-05
2.11836e-05
-2.30052e-05
2.61776e-05
-2.89737e-05
3.23356e-05
-3.88518e-05
3.83839e-05
-5.15738e-05
4.00763e-05
-5.85547e-05
3.76171e-05
-3.89599e-05
3.41874e-05
2.12067e-05
3.5341e-05
3.92946e-05
3.43903e-05
2.8534e-05
3.27499e-05
2.11553e-05
3.05053e-05
1.93817e-05
2.75573e-05
2.16412e-05
2.28321e-05
2.89672e-05
4.15794e-05
1.40341e-06
-9.16877e-06
2.8586e-06
-9.51989e-06
4.41994e-06
-1.024e-05
6.14585e-06
-1.13655e-05
8.09816e-06
-1.29516e-05
1.03489e-05
-1.50964e-05
1.29833e-05
-1.79444e-05
1.60998e-05
-2.17405e-05
1.98233e-05
-2.67286e-05
2.42995e-05
-3.34499e-05
2.94467e-05
-4.39988e-05
3.37838e-05
-5.72259e-05
3.4183e-05
-6.34705e-05
3.10491e-05
-3.55833e-05
3.01623e-05
3.05975e-05
3.24088e-05
3.84943e-05
3.27672e-05
2.81738e-05
3.21864e-05
2.17341e-05
3.10284e-05
2.05378e-05
2.92649e-05
2.34034e-05
2.56508e-05
3.25811e-05
4.96638e-05
1.32486e-06
-1.0494e-05
2.69733e-06
-1.08929e-05
4.16796e-06
-1.17113e-05
5.79072e-06
-1.2989e-05
7.61819e-06
-1.47798e-05
9.71092e-06
-1.71899e-05
1.21366e-05
-2.03708e-05
1.49717e-05
-2.4576e-05
1.83063e-05
-3.00625e-05
2.22668e-05
-3.74081e-05
2.64956e-05
-4.82275e-05
2.94015e-05
-6.18833e-05
2.88446e-05
-6.61962e-05
2.55069e-05
-2.98075e-05
2.72383e-05
3.54917e-05
2.99927e-05
3.6368e-05
3.1385e-05
2.67793e-05
3.1865e-05
2.12518e-05
3.18159e-05
2.05849e-05
3.13034e-05
2.39148e-05
2.9128e-05
3.47561e-05
5.61735e-05
1.23471e-06
-1.1729e-05
2.51202e-06
-1.21707e-05
3.87821e-06
-1.3078e-05
5.38406e-06
-1.44955e-05
7.07294e-06
-1.64693e-05
8.99204e-06
-1.91096e-05
1.11889e-05
-2.25679e-05
1.37201e-05
-2.71068e-05
1.66466e-05
-3.29852e-05
2.00351e-05
-4.07837e-05
2.3671e-05
-5.17703e-05
2.53101e-05
-6.49323e-05
2.39134e-05
-6.76337e-05
2.0894e-05
-2.30859e-05
2.45161e-05
3.62119e-05
2.79546e-05
3.31545e-05
3.01903e-05
2.45428e-05
3.16086e-05
1.98326e-05
3.272e-05
1.9473e-05
3.3643e-05
2.29916e-05
3.35304e-05
3.48697e-05
5.9623e-05
2.27046e-06
-1.39331e-05
4.60874e-06
-1.44296e-05
7.09474e-06
-1.54526e-05
9.85587e-06
-1.70689e-05
1.30198e-05
-1.9247e-05
1.65509e-05
-2.1843e-05
2.04346e-05
-2.45542e-05
2.48114e-05
-2.76454e-05
2.96175e-05
-2.93132e-05
3.51441e-05
-2.96588e-05
4.06694e-05
-2.82347e-05
3.8539e-05
-3.75201e-05
3.52137e-05
-6.06469e-05
3.19891e-05
-8.50527e-06
4.40721e-05
2.91496e-05
5.38346e-05
2.346e-05
6.08696e-05
1.75074e-05
6.64788e-05
1.42232e-05
7.22432e-05
1.37087e-05
7.94754e-05
1.57607e-05
9.13249e-05
2.30217e-05
2.86149e-05
1.7767e-06
8.41843e-06
3.60269e-06
8.04761e-06
5.52964e-06
7.15968e-06
7.6348e-06
5.31778e-06
1.00835e-05
3.22863e-06
1.29129e-05
6.76859e-07
1.59139e-05
-2.46993e-06
1.98392e-05
-7.7152e-06
2.44353e-05
-1.34935e-05
3.21696e-05
-2.23529e-05
4.55542e-05
-3.45205e-05
2.8852e-05
-5.59839e-05
1.57618e-05
-4.16702e-05
2.10441e-05
4.0902e-06
3.64099e-05
1.52107e-05
4.84391e-05
1.14312e-05
5.769e-05
8.25666e-06
6.59707e-05
5.94276e-06
7.48178e-05
4.86271e-06
8.57467e-05
4.83307e-06
0.000101875
6.89731e-06
5.57136e-06
1.87045e-06
1.66818e-05
3.73923e-06
1.56947e-05
5.69205e-06
1.35833e-05
7.97577e-06
9.64192e-06
9.87242e-06
5.30313e-06
1.1876e-05
1.43736e-06
1.47517e-05
-4.42786e-06
1.6822e-05
-1.01065e-05
2.00961e-05
-1.70788e-05
2.17205e-05
-2.58972e-05
2.45635e-05
-3.88885e-05
1.4514e-05
-6.13341e-05
5.23981e-06
-5.95062e-05
1.56876e-05
-2.47083e-05
3.33052e-05
1.25763e-08
4.53355e-05
-6.00978e-07
5.5445e-05
-1.85277e-06
6.49254e-05
-3.5371e-06
7.50928e-05
-5.30334e-06
8.71043e-05
-7.17552e-06
0.00010251
-8.50623e-06
-1.38597e-05
9.92734e-07
-1.72977e-05
1.93526e-06
-1.77792e-05
1.89657e-06
-1.83181e-05
2.47914e-06
-1.77563e-05
6.53231e-06
-1.6889e-05
5.78882e-06
-1.9994e-05
1.06786e-05
-2.37356e-05
1.04065e-05
-2.90087e-05
1.61453e-05
-3.77137e-05
1.6818e-05
-4.58388e-05
1.92526e-05
-5.70914e-05
1.38422e-05
-6.77659e-05
1.25466e-05
-5.64973e-05
1.11308e-05
-4.25938e-05
3.43978e-05
-1.34131e-05
4.44521e-05
-1.06305e-05
5.38384e-05
-1.12384e-05
6.32563e-05
-1.2954e-05
7.34022e-05
-1.54476e-05
8.49949e-05
-1.87657e-05
9.89368e-05
-2.24441e-05
-3.13006e-05
5.111e-06
-2.29308e-05
1.03248e-05
-2.34813e-05
1.62208e-05
-2.46901e-05
2.22943e-05
-2.72235e-05
2.51431e-05
-2.86086e-05
3.11425e-05
-3.24362e-05
3.20803e-05
-3.49403e-05
3.65685e-05
-4.03893e-05
3.63726e-05
-4.57905e-05
3.8147e-05
-5.20617e-05
3.46813e-05
-5.75187e-05
2.7631e-05
-6.1766e-05
2.49388e-05
-5.09787e-05
1.44895e-05
-4.60072e-05
3.50058e-05
-2.13529e-05
4.41149e-05
-1.83343e-05
5.22566e-05
-1.93739e-05
6.08629e-05
-2.15588e-05
7.01992e-05
-2.4782e-05
8.06011e-05
-2.91653e-05
9.25476e-05
-3.4388e-05
-4.50403e-05
4.56477e-06
-2.74956e-05
9.12766e-06
-2.80442e-05
1.36061e-05
-2.91686e-05
1.73914e-05
-3.10088e-05
2.17874e-05
-3.30042e-05
2.52044e-05
-3.58529e-05
2.91656e-05
-3.89007e-05
3.17167e-05
-4.29395e-05
3.31118e-05
-4.7184e-05
3.28421e-05
-5.17905e-05
3.09267e-05
-5.55994e-05
2.78104e-05
-5.86101e-05
2.65669e-05
-4.95347e-05
1.56505e-05
-4.75452e-05
3.40319e-05
-2.69424e-05
4.30618e-05
-2.47094e-05
5.0093e-05
-2.64044e-05
5.76822e-05
-2.91472e-05
6.58781e-05
-3.29764e-05
7.47617e-05
-3.80472e-05
8.4519e-05
-4.41433e-05
-5.50932e-05
3.97317e-06
-3.14687e-05
7.91504e-06
-3.1986e-05
1.1758e-05
-3.30115e-05
1.53005e-05
-3.45513e-05
1.87711e-05
-3.64748e-05
2.18432e-05
-3.8925e-05
2.46627e-05
-4.17203e-05
2.67663e-05
-4.50431e-05
2.81427e-05
-4.85603e-05
2.8499e-05
-5.21469e-05
2.81854e-05
-5.52843e-05
2.74821e-05
-5.78677e-05
2.68911e-05
-5.01621e-05
1.59077e-05
-4.92055e-05
3.32064e-05
-3.08702e-05
4.13542e-05
-3.00055e-05
4.73422e-05
-3.2392e-05
5.38586e-05
-3.56628e-05
6.08295e-05
-3.99461e-05
6.81778e-05
-4.53945e-05
7.59133e-05
-5.18782e-05
-6.2498e-05
3.47268e-06
-3.49414e-05
6.89922e-06
-3.54126e-05
1.02155e-05
-3.63278e-05
1.33467e-05
-3.76825e-05
1.63109e-05
-3.9439e-05
1.89826e-05
-4.15967e-05
2.13674e-05
-4.41051e-05
2.32496e-05
-4.69253e-05
2.46097e-05
-4.99204e-05
2.53807e-05
-5.29179e-05
2.57722e-05
-5.56747e-05
2.60874e-05
-5.81862e-05
2.59454e-05
-5.15557e-05
1.53141e-05
-5.10792e-05
3.23366e-05
-3.39544e-05
3.89421e-05
-3.45435e-05
4.40397e-05
-3.74897e-05
4.9555e-05
-4.11776e-05
5.53678e-05
-4.57581e-05
6.13276e-05
-5.13538e-05
6.7335e-05
-5.78857e-05
-6.77935e-05
3.00851e-06
-3.79499e-05
5.97293e-06
-3.8377e-05
8.84365e-06
-3.91986e-05
1.15736e-05
-4.04124e-05
1.413e-05
-4.19954e-05
1.64569e-05
-4.39236e-05
1.85074e-05
-4.61555e-05
2.02151e-05
-4.8633e-05
2.15567e-05
-5.1262e-05
2.25628e-05
-5.3924e-05
2.33821e-05
-5.6493e-05
2.42016e-05
-5.90683e-05
2.40601e-05
-5.30126e-05
1.38922e-05
-5.28224e-05
3.08171e-05
-3.66158e-05
3.59783e-05
-3.8478e-05
4.03135e-05
-4.18248e-05
4.4941e-05
-4.58047e-05
4.97348e-05
-5.05514e-05
5.4527e-05
-5.61461e-05
5.91623e-05
-6.25213e-05
6.28797e-05
-7.15112e-05
-7.61758e-05
2.59118e-06
-4.05411e-05
5.14386e-06
-4.09297e-05
7.61764e-06
-4.16723e-05
9.97506e-06
-4.27698e-05
1.21819e-05
-4.42022e-05
1.42011e-05
-4.59428e-05
1.59996e-05
-4.79541e-05
1.75511e-05
-5.01844e-05
1.88564e-05
-5.25673e-05
1.99579e-05
-5.50256e-05
2.09617e-05
-5.74961e-05
2.19677e-05
-6.00911e-05
2.18417e-05
-5.4613e-05
1.24384e-05
-5.44738e-05
2.86894e-05
-3.91774e-05
3.26166e-05
-4.18927e-05
3.62932e-05
-4.55013e-05
4.01535e-05
-4.96646e-05
4.40891e-05
-5.44866e-05
4.79555e-05
-6.00125e-05
5.16149e-05
-6.61812e-05
5.44384e-05
-7.4335e-05
-7.83662e-05
2.21307e-06
-4.27541e-05
4.39364e-06
-4.31102e-05
6.50871e-06
-4.37874e-05
8.52783e-06
-4.4789e-05
1.04228e-05
-4.60972e-05
1.21679e-05
-4.76879e-05
1.37428e-05
-4.95289e-05
1.51386e-05
-5.15802e-05
1.63662e-05
-5.37948e-05
1.74633e-05
-5.61227e-05
1.84956e-05
-5.8528e-05
1.95273e-05
-6.10766e-05
1.93797e-05
-5.61527e-05
1.10713e-05
-5.55045e-05
2.58783e-05
-4.15959e-05
2.89915e-05
-4.48326e-05
3.20886e-05
-4.85983e-05
3.52872e-05
-5.2863e-05
3.85059e-05
-5.77051e-05
4.16456e-05
-6.31523e-05
4.46371e-05
-6.9173e-05
4.70535e-05
-7.67516e-05
-8.12112e-05
1.86855e-06
-4.46227e-05
3.70968e-06
-4.49514e-05
5.49675e-06
-4.55745e-05
7.20573e-06
-4.64979e-05
8.815e-06
-4.77065e-05
1.03063e-05
-4.91791e-05
1.16677e-05
-5.08903e-05
1.28978e-05
-5.28103e-05
1.40102e-05
-5.49072e-05
1.50378e-05
-5.71503e-05
1.60368e-05
-5.95264e-05
1.69493e-05
-6.21216e-05
1.66916e-05
-5.74622e-05
9.69276e-06
-5.53563e-05
2.26612e-05
-4.38201e-05
2.52052e-05
-4.73296e-05
2.77817e-05
-5.1175e-05
3.03988e-05
-5.548e-05
3.30001e-05
-6.03065e-05
3.55264e-05
-6.56789e-05
3.79572e-05
-7.16042e-05
4.00402e-05
-7.88347e-05
-8.43065e-05
1.55299e-06
-4.61757e-05
3.08183e-06
-4.64802e-05
4.56451e-06
-4.70571e-05
5.98438e-06
-4.79178e-05
7.32624e-06
-4.90483e-05
8.57603e-06
-5.04289e-05
9.72581e-06
-5.20401e-05
1.07769e-05
-5.38614e-05
1.17414e-05
-5.58716e-05
1.26426e-05
-5.80515e-05
1.35141e-05
-6.03977e-05
1.43525e-05
-6.2952e-05
1.36762e-05
-5.86557e-05
7.94406e-06
-5.37786e-05
1.92412e-05
-4.57922e-05
2.13343e-05
-4.94106e-05
2.34337e-05
-5.32747e-05
2.55249e-05
-5.75714e-05
2.75696e-05
-6.23515e-05
2.9531e-05
-6.76407e-05
3.14015e-05
-7.34752e-05
3.29569e-05
-8.03904e-05
-8.67996e-05
1.25277e-06
-4.74284e-05
2.49148e-06
-4.77189e-05
3.69131e-06
-4.8257e-05
4.84075e-06
-4.90672e-05
5.93028e-06
-5.01379e-05
6.94701e-06
-5.14457e-05
7.88414e-06
-5.29772e-05
8.74414e-06
-5.47215e-05
9.53667e-06
-5.66642e-05
1.0279e-05
-5.87938e-05
1.09954e-05
-6.11139e-05
1.16939e-05
-6.36319e-05
1.06519e-05
-5.96265e-05
7.10837e-06
-5.12349e-05
1.57529e-05
-4.74946e-05
1.74399e-05
-5.10957e-05
1.90931e-05
-5.49283e-05
2.0696e-05
-5.91745e-05
2.2221e-05
-6.38769e-05
2.36431e-05
-6.90631e-05
2.49667e-05
-7.47991e-05
2.59042e-05
-8.13279e-05
-8.83933e-05
9.39069e-07
-4.83675e-05
1.88149e-06
-4.86613e-05
2.82849e-06
-4.9204e-05
3.74589e-06
-4.99846e-05
4.6025e-06
-5.09945e-05
5.39355e-06
-5.22367e-05
6.11708e-06
-5.37007e-05
6.77768e-06
-5.5382e-05
7.38083e-06
-5.72673e-05
7.93793e-06
-5.93509e-05
8.47598e-06
-6.16518e-05
8.96693e-06
-6.41536e-05
7.65904e-06
-6.03217e-05
5.81244e-06
-4.77189e-05
1.22638e-05
-4.89018e-05
1.35711e-05
-5.24031e-05
1.48016e-05
-5.61593e-05
1.59448e-05
-6.0318e-05
1.69751e-05
-6.49073e-05
1.78676e-05
-6.99559e-05
1.8646e-05
-7.55776e-05
1.90672e-05
-8.17492e-05
-8.93916e-05
7.03361e-07
-4.90711e-05
1.38117e-06
-4.93393e-05
2.03195e-06
-4.9855e-05
2.65827e-06
-5.06112e-05
3.25925e-06
-5.15958e-05
3.83107e-06
-5.2809e-05
4.37208e-06
-5.42423e-05
4.86134e-06
-5.58721e-05
5.27219e-06
-5.76793e-05
5.61212e-06
-5.96924e-05
5.91345e-06
-6.19552e-05
6.15313e-06
-6.44442e-05
4.7994e-06
-6.08121e-05
4.36998e-06
-4.15679e-05
8.8365e-06
-5.00166e-05
9.77768e-06
-5.3345e-05
1.06019e-05
-5.69851e-05
1.13142e-05
-6.10327e-05
1.18898e-05
-6.54875e-05
1.2204e-05
-7.0278e-05
1.23838e-05
-7.57688e-05
1.23622e-05
-8.17429e-05
-8.98879e-05
4.82543e-07
-5.01631e-05
9.62104e-07
-5.04372e-05
1.41719e-06
-5.09447e-05
1.84278e-06
-5.16962e-05
2.23435e-06
-5.26797e-05
2.5799e-06
-5.38879e-05
2.8608e-06
-5.53055e-05
3.06213e-06
-5.69099e-05
3.21483e-06
-5.87286e-05
3.29145e-06
-6.073e-05
3.21988e-06
-6.29029e-05
2.94727e-06
-6.52521e-05
2.27848e-06
-6.26722e-05
4.11617e-06
-4.5842e-05
5.53839e-06
-5.14864e-05
6.08101e-06
-5.46786e-05
6.46697e-06
6.72518e-06
6.87517e-06
6.55168e-06
5.91957e-06
5.33011e-06
1.68426e-07
3.35592e-07
4.92475e-07
6.32816e-07
7.52142e-07
8.47637e-07
9.17968e-07
9.56394e-07
9.40227e-07
8.15381e-07
3.74952e-07
-4.70852e-07
-1.47831e-07
1.71617e-06
2.01034e-06
)
;

boundaryField
{
    leftWall
    {
        type            fixedValue;
        value           uniform 0;
    }
    rightWall
    {
        type            fixedValue;
        value           nonuniform 0();
    }
    lowerWall
    {
        type            fixedValue;
        value           uniform 0;
    }
    atmosphere
    {
        type            calculated;
        value           nonuniform 0();
    }
    defaultFaces
    {
        type            empty;
        value           nonuniform 0();
    }
    procBoundary0to1
    {
        type            processor;
        value           nonuniform List<scalar> 
26
(
9.92982e-06
1.03009e-05
1.10744e-05
1.23499e-05
1.45365e-05
1.75671e-05
2.26185e-05
3.00825e-05
0.000122335
0.00012492
0.000121946
0.00011638
0.000106291
9.45727e-05
8.33184e-05
7.26301e-05
7.37532e-05
6.18338e-05
4.88282e-05
3.63595e-05
2.52522e-05
1.72836e-05
1.18607e-05
7.89689e-06
4.72803e-06
2.46766e-06
)
;
    }
    procBoundary0to2
    {
        type            processor;
        value           nonuniform List<scalar> 
24
(
-5.82937e-05
-6.23621e-05
-6.68584e-05
-7.12434e-05
-7.64224e-05
-8.22636e-05
-8.9199e-05
-6.30696e-05
-6.33199e-05
-6.37748e-05
-6.44477e-05
-6.53261e-05
-6.63926e-05
-6.76265e-05
-6.90044e-05
-7.04964e-05
-7.20519e-05
-7.35836e-05
-7.50176e-05
-7.29777e-05
-6.08277e-05
-6.44799e-05
2.00387e-06
-6.73314e-05
)
;
    }
}


// ************************************************************************* //
