/*--------------------------------*- C++ -*----------------------------------*\
| =========                 |                                                 |
| \\      /  F ield         | OpenFOAM: The Open Source CFD Toolbox           |
|  \\    /   O peration     | Version:  2.4.0                                 |
|   \\  /    A nd           | Web:      www.OpenFOAM.org                      |
|    \\/     M anipulation  |                                                 |
\*---------------------------------------------------------------------------*/
FoamFile
{
    version     2.0;
    format      ascii;
    class       volScalarField;
    location    "0.05";
    object      rho;
}
// * * * * * * * * * * * * * * * * * * * * * * * * * * * * * * * * * * * * * //

dimensions      [1 -3 0 0 0 0 0];

internalField   nonuniform List<scalar> 
575
(
13529
13529
13529
13529
13529
13529
13529
13529
13529
13529
13529
13529
13167.9
10054.9
3709.16
734.555
501.825
500.003
500
500
500
500
13529
13529
13529
13529
13529
13529
13529
13529
13529
13529
13529
13529
12597.5
6950.04
1482.79
523.253
500.058
500
499.999
499.999
499.999
499.999
13529
13529
13529
13529
13529
13529
13529
13529
13529
13529
13529
13529
11607
4903.13
870.807
502.964
500.005
500.001
500
500
500
500
13529
13529
13529
13529
13529
13529
13529
13529
13529
13529
13529
13529
10586.5
3484.24
644.788
500.563
500.002
500
499.999
499.999
499.999
499.999
13529
13529
13529
13529
13529
13529
13529
13529
13529
13529
13529
13529
9626.42
2499.34
556.82
500.118
500.003
500.001
500
500
500
500
13529
13529
13529
13529
13529
13529
13529
13529
13529
13529
13529
13529
8722.36
1818.64
521.77
500.025
500.001
500
500
500
500
500
13529
13529
13529
13529
13529
13529
13529
13529
13529
13529
13529
13529
7868.19
1348.1
508.087
500.006
500
500
500
500
500
500
13529
13529
13529
13529
13529
13529
13529
13529
13529
13529
13529
13529
7024.09
1020.73
502.881
500.001
500
500
500
500
500
500
13529
13529
13529
13529
13529
13529
13529
13529
13529
13529
13529
13528.8
5591.1
721.203
500.584
500
500
500
500
500
500
500
13529
13529
13529
13529
13529
13528.9
13528.7
13528.4
13527.2
13524.6
13517.3
13469.5
3438.45
539.539
500.029
500.001
500
500
500
500
500
500
13502.6
13500.2
13495
13484.8
13463.8
13437.3
13376.4
13305.6
13158.1
12963.4
12633.8
11800.9
1429.1
502.072
500.001
500
500
500
500
500
500
500
11045.4
10976.9
10856.7
10625.6
10205.9
9876.96
9171.29
8699.23
7826.08
7125.69
6242.5
5039.98
721.765
500.58
500
500
500
500
500
500
500
500
1000
1000
1000
1000.12
1001.24
1000.74
1002.48
1001.71
1003.39
1002.02
1002.56
1001.16
620.837
502.494
500.002
500
500
500
500
500
500
500
1000
1000
1000
1000
1000
1000
1000
1000
1000
1000
1000
999.798
629.681
503.241
500.004
500
500
500
500
500
500
500
1000
1000
1000
1000
1000
1000
1000
1000
1000
1000
1000
999.829
631.344
503.397
500.005
500
500
500
500
500
500
500
1000
1000
1000
1000
1000
1000
1000
1000
1000
1000
1000
999.846
625.898
502.988
500.003
500
500
500
500
500
500
500
1000
1000
1000
1000
1000
1000
1000
1000
1000
1000
1000
999.842
618.254
502.455
500.002
500
500
500
500
500
500
500
500
1000
1000
1000
1000
1000
1000
1000
1000
1000
1000
1000
999.871
606.636
501.79
500.001
500
500
500
500
500
500
500
500
1000
1000
1000
1000
1000
1000
1000
1000
1000
1000
1000
999.888
594.476
501.238
500.001
500
500
500
500
500
500
500
500
1000
1000
1000
1000
1000
1000
1000
1000
1000
1000
1000
999.87
582.09
500.803
500
500
500
500
500
500
500
500
500
1000
1000
1000
1000
1000
1000
1000
1000
1000
1000
1000
999.901
569.186
500.479
500
500
500
500
500
500
500
500
500
1000
1000
1000
1000
1000
1000
1000
1000
1000
1000
1000
999.906
556.256
500.256
500
500
500
500
500
500
500
500
500
1000
1000
1000
1000
1000
1000
1000
1000
1000
1000
1000
999.914
542.961
500.114
500
500
500
500
500
500
500
500
500
1000
1000
1000
1000
1000
1000
1000
1000
1000
1000
1000
999.917
528.538
500.036
500
500
500
500
500
500
499.999
499.999
499.988
999.899
999.896
999.89
999.88
999.866
999.846
999.82
999.786
999.742
999.685
999.613
999.447
513.289
499.955
499.936
499.909
499.869
499.807
499.71
499.571
499.367
498.981
496.741
972.501
972.068
971.248
970.004
968.314
966.149
963.478
960.26
956.456
952.085
947.193
940.966
489.222
486.306
484.404
481.553
)
;

boundaryField
{
    leftWall
    {
        type            calculated;
        value           nonuniform List<scalar> 
26
(
13529
13529
13529
13529
13529
13529
13529
13529
13529
13529
13502.6
11045.4
1000
1000
1000
1000
1000
1000
1000
1000
1000
1000
1000
1000
999.899
972.501
)
;
    }
    rightWall
    {
        type            calculated;
        value           nonuniform 0();
    }
    lowerWall
    {
        type            calculated;
        value           nonuniform List<scalar> 
22
(
13529
13529
13529
13529
13529
13529
13529
13529
13529
13529
13529
13529
13167.9
10054.9
3709.16
734.555
501.825
500.003
500
500
500
500
)
;
    }
    atmosphere
    {
        type            calculated;
        value           nonuniform 0();
    }
    defaultFaces
    {
        type            empty;
    }
    procBoundary0to1
    {
        type            processor;
        value           nonuniform List<scalar> 
26
(
500
499.999
500
499.999
500
500
500
500
500
500
500
500
500
500
500
500
500
464.764
429.101
383.171
331.076
276.053
220.974
165.101
102.947
36.1001
)
;
    }
    procBoundary0to2
    {
        type            processor;
        value           nonuniform List<scalar> 
24
(
477.941
473.376
467.673
461.232
453.863
442.632
413.538
495.476
493.347
489.388
483.554
475.926
466.634
455.832
443.696
430.476
416.538
402.052
387.777
253.502
247.148
237.46
477.941
225.275
)
;
    }
}


// ************************************************************************* //
