/*--------------------------------*- C++ -*----------------------------------*\
| =========                 |                                                 |
| \\      /  F ield         | OpenFOAM: The Open Source CFD Toolbox           |
|  \\    /   O peration     | Version:  2.4.0                                 |
|   \\  /    A nd           | Web:      www.OpenFOAM.org                      |
|    \\/     M anipulation  |                                                 |
\*---------------------------------------------------------------------------*/
FoamFile
{
    version     2.0;
    format      ascii;
    class       volVectorField;
    location    "0.05";
    object      U.oil;
}
// * * * * * * * * * * * * * * * * * * * * * * * * * * * * * * * * * * * * * //

dimensions      [0 1 -1 0 0 0 0];

internalField   nonuniform List<vector> 
575
(
(0.00917721 -0.00433951 0)
(0.0278917 -0.00450896 0)
(0.0477052 -0.00485754 0)
(0.069421 -0.00540546 0)
(0.0939642 -0.00618711 0)
(0.122427 -0.00725941 0)
(0.156443 -0.00870676 0)
(0.196712 -0.010687 0)
(0.251314 -0.0133614 0)
(0.303529 -0.0167889 0)
(0.416203 -0.0258975 0)
(0.561087 -0.0300359 0)
(0.890204 0.071985 0)
(1.00022 -0.0361298 0)
(1.04187 -0.0707427 0)
(0.729693 0.0238101 0)
(0.519626 0.034468 0)
(0.435658 0.0204779 0)
(0.36926 0.0144558 0)
(0.310872 0.0142763 0)
(0.245895 0.0173718 0)
(0.163909 0.0222487 0)
(0.00909845 -0.0129822 0)
(0.0276516 -0.0134894 0)
(0.0472897 -0.0145308 0)
(0.0688044 -0.016167 0)
(0.0931038 -0.0184998 0)
(0.121256 -0.0216973 0)
(0.154848 -0.0260079 0)
(0.194553 -0.0319141 0)
(0.248336 -0.0398312 0)
(0.29849 -0.0508845 0)
(0.413217 -0.0709849 0)
(0.540253 -0.117775 0)
(0.868542 0.0421981 0)
(0.983085 0.0537845 0)
(0.91659 0.15632 0)
(0.584018 0.13031 0)
(0.486081 0.0879789 0)
(0.425353 0.0527932 0)
(0.367485 0.0408814 0)
(0.312991 0.0421225 0)
(0.250192 0.0518056 0)
(0.168873 0.0669799 0)
(0.00893916 -0.0215117 0)
(0.0271648 -0.0223499 0)
(0.0464478 -0.0240707 0)
(0.0675567 -0.0267721 0)
(0.0913659 -0.0306188 0)
(0.118897 -0.035882 0)
(0.151635 -0.042964 0)
(0.190251 -0.0526542 0)
(0.242084 -0.0655899 0)
(0.289307 -0.083805 0)
(0.401266 -0.116939 0)
(0.52242 -0.169259 0)
(0.811987 -0.0243035 0)
(0.918684 -0.0536764 0)
(0.744336 0.116148 0)
(0.499637 0.165067 0)
(0.455459 0.121642 0)
(0.410793 0.0796127 0)
(0.364416 0.0647645 0)
(0.316609 0.0679804 0)
(0.258308 0.0850592 0)
(0.178973 0.112108 0)
(0.00870273 -0.0298535 0)
(0.0264425 -0.0310124 0)
(0.0451994 -0.0333906 0)
(0.0657092 -0.0371204 0)
(0.0887974 -0.0424203 0)
(0.115419 -0.0496537 0)
(0.14691 -0.0593606 0)
(0.183953 -0.0725702 0)
(0.232871 -0.0901548 0)
(0.276916 -0.114568 0)
(0.381941 -0.157584 0)
(0.501522 -0.219066 0)
(0.748378 -0.105397 0)
(0.826109 -0.0318362 0)
(0.563182 0.169603 0)
(0.439766 0.198624 0)
(0.425919 0.142937 0)
(0.396277 0.0979674 0)
(0.362042 0.083976 0)
(0.322802 0.0906941 0)
(0.271419 0.116199 0)
(0.195682 0.157515 0)
(0.008392 -0.0379357 0)
(0.0254936 -0.0394013 0)
(0.0435609 -0.0424076 0)
(0.0632888 -0.0471161 0)
(0.0854417 -0.0537881 0)
(0.110889 -0.062864 0)
(0.140792 -0.0749997 0)
(0.175828 -0.0913854 0)
(0.221087 -0.113101 0)
(0.261922 -0.142756 0)
(0.357522 -0.193541 0)
(0.472418 -0.259763 0)
(0.690946 -0.184828 0)
(0.717147 -0.0165802 0)
(0.424939 0.203002 0)
(0.395121 0.211683 0)
(0.397172 0.152759 0)
(0.383075 0.110003 0)
(0.36124 0.0980421 0)
(0.332294 0.108837 0)
(0.29015 0.144208 0)
(0.223063 0.203065 0)
(0.00801082 -0.0456951 0)
(0.0243297 -0.0474502 0)
(0.0415531 -0.05105 0)
(0.0603302 -0.0566799 0)
(0.0813541 -0.0646275 0)
(0.105393 -0.0753965 0)
(0.133421 -0.0897345 0)
(0.166081 -0.108928 0)
(0.207216 -0.134234 0)
(0.244935 -0.168401 0)
(0.329743 -0.224199 0)
(0.434392 -0.293879 0)
(0.638034 -0.24693 0)
(0.58805 0.00991399 0)
(0.341049 0.219003 0)
(0.356632 0.211632 0)
(0.372071 0.153034 0)
(0.37124 0.11612 0)
(0.361092 0.108385 0)
(0.346043 0.121825 0)
(0.316576 0.16658 0)
(0.262037 0.247347 0)
(0.00756335 -0.0530707 0)
(0.0229634 -0.0550958 0)
(0.0391984 -0.0592499 0)
(0.056871 -0.0657392 0)
(0.0765959 -0.0748687 0)
(0.0990255 -0.0871859 0)
(0.124943 -0.103487 0)
(0.154915 -0.125125 0)
(0.191717 -0.15347 0)
(0.22608 -0.191561 0)
(0.300244 -0.249624 0)
(0.392123 -0.322156 0)
(0.586971 -0.287552 0)
(0.464971 0.034975 0)
(0.286093 0.221087 0)
(0.324186 0.202481 0)
(0.350724 0.148178 0)
(0.361821 0.116566 0)
(0.364885 0.112553 0)
(0.3617 0.128046 0)
(0.34953 0.181011 0)
(0.319308 0.280705 0)
(0.00705239 -0.0597557 0)
(0.0214024 -0.0620194 0)
(0.036507 -0.0666666 0)
(0.0529208 -0.0739197 0)
(0.0711999 -0.0841625 0)
(0.0918804 -0.0978477 0)
(0.115512 -0.115719 0)
(0.14256 -0.139244 0)
(0.174929 -0.169766 0)
(0.205434 -0.210446 0)
(0.269754 -0.269318 0)
(0.348025 -0.342975 0)
(0.53705 -0.302593 0)
(0.355969 0.0591468 0)
(0.247859 0.21468 0)
(0.297155 0.188905 0)
(0.333496 0.139291 0)
(0.352742 0.111348 0)
(0.368503 0.108671 0)
(0.381718 0.128305 0)
(0.384169 0.187988 0)
(0.408167 0.333935 0)
(0.00609763 -0.0706695 0)
(0.0184768 -0.0732943 0)
(0.0314378 -0.0786664 0)
(0.0454021 -0.087084 0)
(0.0614329 -0.0981599 0)
(0.0795822 -0.112986 0)
(0.0995211 -0.132485 0)
(0.121762 -0.158082 0)
(0.147242 -0.190747 0)
(0.170862 -0.23444 0)
(0.222426 -0.293625 0)
(0.274261 -0.345121 0)
(0.459306 -0.299763 0)
(0.190136 0.0873885 0)
(0.201442 0.186123 0)
(0.263899 0.153336 0)
(0.308983 0.114652 0)
(0.342673 0.0935063 0)
(0.373044 0.0908168 0)
(0.413767 0.104939 0)
(0.454041 0.164516 0)
(0.600742 0.228583 0)
(0.00476697 -0.0849087 0)
(0.0144338 -0.087185 0)
(0.0244895 -0.0919785 0)
(0.035358 -0.0997505 0)
(0.0472543 -0.111681 0)
(0.0611046 -0.12685 0)
(0.0757185 -0.147539 0)
(0.0910908 -0.174233 0)
(0.10741 -0.209752 0)
(0.120659 -0.255964 0)
(0.183174 -0.31422 0)
(0.221705 -0.328787 0)
(0.311521 -0.248339 0)
(0.0357331 0.0957799 0)
(0.166411 0.122926 0)
(0.232238 0.0946905 0)
(0.285183 0.0707528 0)
(0.332908 0.0561806 0)
(0.378553 0.0521188 0)
(0.435953 0.0584095 0)
(0.502208 0.08105 0)
(0.606795 0.0929047 0)
(0.00381703 -0.0652722 0)
(0.0114218 -0.0691843 0)
(0.0189847 -0.0772688 0)
(0.0265964 -0.0912434 0)
(0.0352142 -0.111925 0)
(0.0413441 -0.13472 0)
(0.0512373 -0.161127 0)
(0.0573335 -0.2003 0)
(0.067366 -0.237551 0)
(0.069586 -0.293554 0)
(0.0935271 -0.352631 0)
(0.103662 -0.376301 0)
(0.0746094 -0.174965 0)
(0.0052128 0.052835 0)
(0.148878 0.0410997 0)
(0.214349 0.0285818 0)
(0.270865 0.0175251 0)
(0.324081 0.00711684 0)
(0.375748 -0.000341435 0)
(0.440655 -0.00547573 0)
(0.501875 -0.00426756 0)
(0.620129 -0.0246757 0)
(0.00157969 -0.186583 0)
(0.00468857 -0.188975 0)
(0.00593972 -0.193907 0)
(0.00432509 -0.200407 0)
(0.0119714 -0.208319 0)
(0.0164879 -0.222228 0)
(0.0209206 -0.243999 0)
(0.0315855 -0.261851 0)
(0.0328944 -0.298892 0)
(0.0490137 -0.32745 0)
(0.0570682 -0.376625 0)
(0.0747633 -0.386012 0)
(0.00486881 -0.192518 0)
(0.068731 -0.0494024 0)
(0.152267 -0.0377331 0)
(0.211954 -0.0324171 0)
(0.264153 -0.0359279 0)
(0.315117 -0.0446541 0)
(0.366559 -0.055908 0)
(0.4299 -0.0698527 0)
(0.485968 -0.0838408 0)
(0.593831 -0.123694 0)
(0.0138039 -0.118575 0)
(0.0415848 -0.121878 0)
(0.0713034 -0.127725 0)
(0.103578 -0.120516 0)
(0.127693 -0.0916863 0)
(0.15083 -0.121224 0)
(0.170296 -0.112407 0)
(0.183786 -0.159733 0)
(0.195193 -0.188091 0)
(0.200804 -0.254462 0)
(0.199452 -0.312741 0)
(0.191048 -0.345021 0)
(0.174863 -0.187048 0)
(0.131203 -0.109927 0)
(0.173669 -0.0885134 0)
(0.216975 -0.0795048 0)
(0.258857 -0.0832028 0)
(0.304109 -0.0934324 0)
(0.351554 -0.108704 0)
(0.408399 -0.12949 0)
(0.457674 -0.153366 0)
(0.548434 -0.207837 0)
(0.0122561 -0.141487 0)
(0.0367856 -0.144011 0)
(0.0610818 -0.149461 0)
(0.0829199 -0.160973 0)
(0.105389 -0.178729 0)
(0.125794 -0.194456 0)
(0.146267 -0.218701 0)
(0.163147 -0.237498 0)
(0.175144 -0.263598 0)
(0.177055 -0.285898 0)
(0.172856 -0.305491 0)
(0.183811 -0.291277 0)
(0.199383 -0.165528 0)
(0.144008 -0.122074 0)
(0.179687 -0.115832 0)
(0.214925 -0.116435 0)
(0.250185 -0.123825 0)
(0.289575 -0.137056 0)
(0.331473 -0.156031 0)
(0.380076 -0.181514 0)
(0.421661 -0.212207 0)
(0.49491 -0.271148 0)
(0.0106631 -0.158189 0)
(0.0319071 -0.161186 0)
(0.0527805 -0.1672 0)
(0.0726199 -0.176307 0)
(0.0914195 -0.186662 0)
(0.109031 -0.200982 0)
(0.124769 -0.216097 0)
(0.137976 -0.236165 0)
(0.147138 -0.25683 0)
(0.152066 -0.278848 0)
(0.153808 -0.29915 0)
(0.178165 -0.288487 0)
(0.205202 -0.173345 0)
(0.147877 -0.141997 0)
(0.178598 -0.141284 0)
(0.208578 -0.147742 0)
(0.238224 -0.15879 0)
(0.271824 -0.175013 0)
(0.307675 -0.196891 0)
(0.348216 -0.225269 0)
(0.381658 -0.259301 0)
(0.442073 -0.31789 0)
(0.00931793 -0.179512 0)
(0.0278354 -0.182155 0)
(0.0459243 -0.187344 0)
(0.0632239 -0.195115 0)
(0.0795815 -0.205104 0)
(0.0946998 -0.217511 0)
(0.108255 -0.232049 0)
(0.119669 -0.248534 0)
(0.128332 -0.266232 0)
(0.134239 -0.283909 0)
(0.138657 -0.299646 0)
(0.167704 -0.291398 0)
(0.198739 -0.181613 0)
(0.142494 -0.158622 0)
(0.171247 -0.162562 0)
(0.197618 -0.174124 0)
(0.222887 -0.188578 0)
(0.251352 -0.207381 0)
(0.281489 -0.231309 0)
(0.314716 -0.261108 0)
(0.340867 -0.296296 0)
(0.390754 -0.351952 0)
(0.00807173 -0.196631 0)
(0.0241015 -0.199056 0)
(0.0397567 -0.203744 0)
(0.0547842 -0.210677 0)
(0.0689669 -0.21968 0)
(0.0820674 -0.230702 0)
(0.0938006 -0.243465 0)
(0.103868 -0.257778 0)
(0.112024 -0.272958 0)
(0.118505 -0.288261 0)
(0.124509 -0.302692 0)
(0.155966 -0.292578 0)
(0.186582 -0.192494 0)
(0.132075 -0.174663 0)
(0.160017 -0.181936 0)
(0.183252 -0.196958 0)
(0.204918 -0.213975 0)
(0.228931 -0.234688 0)
(0.254017 -0.259869 0)
(0.281004 -0.290069 0)
(0.301291 -0.324952 0)
(0.342762 -0.376189 0)
(0.333726 -0.404367 0)
(0.00695174 -0.211775 0)
(0.0207561 -0.213974 0)
(0.0342421 -0.218191 0)
(0.0472043 -0.224424 0)
(0.0594491 -0.232556 0)
(0.0707845 -0.242452 0)
(0.0810211 -0.253904 0)
(0.0900024 -0.266615 0)
(0.0976532 -0.280155 0)
(0.104287 -0.293988 0)
(0.110735 -0.307583 0)
(0.139853 -0.304366 0)
(0.171619 -0.202612 0)
(0.119182 -0.189652 0)
(0.146248 -0.199517 0)
(0.166524 -0.216784 0)
(0.185081 -0.235569 0)
(0.205266 -0.257556 0)
(0.226047 -0.283385 0)
(0.247957 -0.313399 0)
(0.263996 -0.347297 0)
(0.299929 -0.393809 0)
(0.274515 -0.416829 0)
(0.00593717 -0.224717 0)
(0.017728 -0.226725 0)
(0.0292532 -0.230554 0)
(0.040345 -0.236215 0)
(0.0508456 -0.243608 0)
(0.0606099 -0.252595 0)
(0.069514 -0.262989 0)
(0.0774823 -0.274547 0)
(0.0845143 -0.286959 0)
(0.0908959 -0.299879 0)
(0.0972207 -0.313034 0)
(0.123802 -0.312003 0)
(0.154369 -0.212834 0)
(0.105138 -0.203536 0)
(0.130855 -0.215301 0)
(0.148251 -0.233934 0)
(0.164042 -0.253837 0)
(0.180903 -0.276584 0)
(0.198031 -0.302667 0)
(0.215831 -0.332281 0)
(0.228876 -0.36521 0)
(0.261628 -0.407704 0)
(0.220682 -0.430542 0)
(0.00501289 -0.235732 0)
(0.0149682 -0.237577 0)
(0.0247026 -0.241079 0)
(0.0340822 -0.246269 0)
(0.0429844 -0.253058 0)
(0.0513022 -0.261323 0)
(0.0589546 -0.270908 0)
(0.0659078 -0.281626 0)
(0.0721903 -0.293262 0)
(0.0780426 -0.305597 0)
(0.0840967 -0.318495 0)
(0.109429 -0.313995 0)
(0.135467 -0.221855 0)
(0.0906516 -0.215975 0)
(0.114396 -0.22922 0)
(0.129022 -0.248604 0)
(0.142299 -0.26914 0)
(0.156212 -0.292264 0)
(0.170158 -0.318356 0)
(0.184454 -0.347553 0)
(0.195065 -0.379808 0)
(0.224556 -0.419829 0)
(0.173082 -0.446603 0)
(0.00416628 -0.244889 0)
(0.0124368 -0.246624 0)
(0.0205167 -0.249885 0)
(0.0283039 -0.254707 0)
(0.0357135 -0.261019 0)
(0.0426669 -0.268717 0)
(0.0491049 -0.27768 0)
(0.0550111 -0.287776 0)
(0.0604186 -0.298859 0)
(0.0655055 -0.310793 0)
(0.0706699 -0.32353 0)
(0.091499 -0.323796 0)
(0.115983 -0.229641 0)
(0.0756935 -0.226924 0)
(0.0972543 -0.241286 0)
(0.109271 -0.260954 0)
(0.120224 -0.281754 0)
(0.131453 -0.304964 0)
(0.14252 -0.330887 0)
(0.153637 -0.35966 0)
(0.161873 -0.391397 0)
(0.186862 -0.429715 0)
(0.132395 -0.461699 0)
(0.00335678 -0.25216 0)
(0.0100414 -0.253804 0)
(0.0165889 -0.257007 0)
(0.0228948 -0.261652 0)
(0.0289014 -0.267615 0)
(0.0345524 -0.274872 0)
(0.039795 -0.283356 0)
(0.0446184 -0.292982 0)
(0.0490536 -0.303653 0)
(0.0532238 -0.315284 0)
(0.0574899 -0.327875 0)
(0.0751036 -0.327063 0)
(0.0955391 -0.236603 0)
(0.0608065 -0.236395 0)
(0.0797657 -0.251571 0)
(0.089347 -0.271165 0)
(0.0981118 -0.291935 0)
(0.10684 -0.314988 0)
(0.115219 -0.340574 0)
(0.123361 -0.368837 0)
(0.129133 -0.400063 0)
(0.149087 -0.436328 0)
(0.0979444 -0.472614 0)
(0.00251962 -0.259157 0)
(0.00753327 -0.260626 0)
(0.0126151 -0.263208 0)
(0.0176612 -0.267251 0)
(0.0224115 -0.272828 0)
(0.0268214 -0.279721 0)
(0.0308863 -0.287832 0)
(0.0346051 -0.297118 0)
(0.0379994 -0.307456 0)
(0.0411408 -0.318811 0)
(0.0444229 -0.331272 0)
(0.0585575 -0.327712 0)
(0.0742492 -0.242486 0)
(0.0462044 -0.244406 0)
(0.0621699 -0.260138 0)
(0.0695228 -0.279304 0)
(0.0762031 -0.299754 0)
(0.0825673 -0.322394 0)
(0.0884068 -0.347413 0)
(0.0936933 -0.374936 0)
(0.0970303 -0.405577 0)
(0.111426 -0.439744 0)
(0.0684463 -0.479679 0)
(0.00189704 -0.261701 0)
(0.00565067 -0.263193 0)
(0.00919246 -0.265967 0)
(0.0125572 -0.27005 0)
(0.0158623 -0.275357 0)
(0.0190081 -0.281893 0)
(0.0219682 -0.289583 0)
(0.0248148 -0.298335 0)
(0.0272405 -0.308192 0)
(0.0292352 -0.319209 0)
(0.0313466 -0.331525 0)
(0.0407921 -0.326381 0)
(0.0518971 -0.245878 0)
(0.0321886 -0.249228 0)
(0.0447143 -0.265081 0)
(0.0500878 -0.283364 0)
(0.0547472 -0.303201 0)
(0.0588634 -0.325277 0)
(0.0623443 -0.349706 0)
(0.0648164 -0.376676 0)
(0.0655514 -0.40696 0)
(0.0732436 -0.439932 0)
(0.0422523 -0.484411 0)
(0.00129435 -0.259618 0)
(0.00388759 -0.261134 0)
(0.00639097 -0.263966 0)
(0.00876088 -0.268128 0)
(0.0109592 -0.273546 0)
(0.012957 -0.280222 0)
(0.0146673 -0.288092 0)
(0.0158594 -0.297059 0)
(0.016816 -0.30718 0)
(0.0174843 -0.318432 0)
(0.0180712 -0.330929 0)
(0.0195178 -0.336854 0)
(0.0257625 -0.245563 0)
(0.0193831 -0.249959 0)
(0.027797 -0.265709 0)
(0.0312697 -0.283667 0)
(0.033726 -0.303882 0)
(0.0354578 -0.326695 0)
(0.0364495 -0.352039 0)
(0.0362581 -0.380158 0)
(0.0338792 -0.410123 0)
(0.031993 -0.442961 0)
(0.0177123 -0.4845 0)
(0.000459472 -0.314481 0)
(0.00134848 -0.315948 0)
(0.00222595 -0.318675 0)
(0.0030231 -0.322682 0)
(0.00372049 -0.32791 0)
(0.00429616 -0.334273 0)
(0.00474145 -0.341692 0)
(0.00503789 -0.350071 0)
(0.00511038 -0.359134 0)
(0.00473329 -0.368657 0)
(0.00397671 -0.378359 0)
(-0.00120148 -0.345301 0)
(-0.00138479 -0.305019 0)
(0.00749803 -0.3117 0)
(0.010165 -0.325936 0)
(0.0107772 -0.342545 0)
)
;

boundaryField
{
    leftWall
    {
        type            fixedValue;
        value           uniform (0 0 0);
    }
    rightWall
    {
        type            fixedValue;
        value           nonuniform 0();
    }
    lowerWall
    {
        type            fixedValue;
        value           uniform (0 0 0);
    }
    atmosphere
    {
        type            fluxCorrectedVelocity;
        value           nonuniform 0();
    }
    defaultFaces
    {
        type            empty;
    }
    procBoundary0to1
    {
        type            processor;
        value           nonuniform List<vector> 
26
(
(0.0588095 0.0269212 0)
(0.061166 0.0819808 0)
(0.066168 0.139648 0)
(0.0743739 0.206011 0)
(0.0890926 0.272105 0)
(0.107965 0.376598 0)
(0.148613 0.443365 0)
(0.212008 0.655663 0)
(0.805062 0.562212 0)
(0.801962 0.172074 0)
(0.733615 -0.0373936 0)
(0.677618 -0.167862 0)
(0.611551 -0.261342 0)
(0.536032 -0.320912 0)
(0.467882 -0.359901 0)
(0.399413 -0.387021 0)
(0.399413 -0.387021 0)
(0.265764 -0.468305 0)
(0.203559 -0.486418 0)
(0.148876 -0.498726 0)
(0.104009 -0.506041 0)
(0.0717379 -0.508825 0)
(0.0488865 -0.508551 0)
(0.0317968 -0.503566 0)
(0.0179437 -0.489414 0)
(0.0122233 -0.472283 0)
)
;
    }
    procBoundary0to2
    {
        type            processor;
        value           nonuniform List<vector> 
24
(
(0.0103431 -0.360821 0)
(0.00924094 -0.380271 0)
(0.00728128 -0.400463 0)
(0.00697973 -0.415765 0)
(0.00348561 -0.43588 0)
(-0.00162367 -0.453781 0)
(-0.00128177 -0.473143 0)
(5.50401e-05 -0.373811 0)
(5.91269e-05 -0.374768 0)
(0.000151557 -0.376488 0)
(0.000218062 -0.379063 0)
(0.000281834 -0.382434 0)
(0.000343983 -0.386544 0)
(0.000402636 -0.391321 0)
(0.000450956 -0.396685 0)
(0.000467999 -0.402537 0)
(0.000329964 -0.408661 0)
(7.51153e-05 -0.41438 0)
(-0.000100349 -0.395402 0)
(0.00033305 -0.372333 0)
(0.00102419 -0.377758 0)
(0.00115801 -0.387693 0)
(0.0103431 -0.360821 0)
(0.000826295 -0.399229 0)
)
;
    }
}


// ************************************************************************* //
