/*--------------------------------*- C++ -*----------------------------------*\
| =========                 |                                                 |
| \\      /  F ield         | OpenFOAM: The Open Source CFD Toolbox           |
|  \\    /   O peration     | Version:  2.4.0                                 |
|   \\  /    A nd           | Web:      www.OpenFOAM.org                      |
|    \\/     M anipulation  |                                                 |
\*---------------------------------------------------------------------------*/
FoamFile
{
    version     2.0;
    format      ascii;
    class       volVectorField;
    location    "0.05";
    object      U.water;
}
// * * * * * * * * * * * * * * * * * * * * * * * * * * * * * * * * * * * * * //

dimensions      [0 1 -1 0 0 0 0];

internalField   nonuniform List<vector> 
575
(
(0.00917721 -0.00433951 0)
(0.0278917 -0.00450896 0)
(0.0477052 -0.00485754 0)
(0.069421 -0.00540546 0)
(0.0939642 -0.00618711 0)
(0.122427 -0.00725941 0)
(0.156443 -0.00870676 0)
(0.196712 -0.010687 0)
(0.251314 -0.0133614 0)
(0.303529 -0.0167889 0)
(0.416203 -0.0258975 0)
(0.50762 -0.030306 0)
(0.687167 -0.0439873 0)
(0.776474 -0.141419 0)
(0.856628 -0.210937 0)
(0.802391 -0.125857 0)
(0.531582 0.0236354 0)
(0.435559 0.02047 0)
(0.369183 0.0144423 0)
(0.310808 0.0142645 0)
(0.245846 0.0173598 0)
(0.163876 0.0222361 0)
(0.00909845 -0.0129822 0)
(0.0276516 -0.0134894 0)
(0.0472897 -0.0145308 0)
(0.0688044 -0.016167 0)
(0.0931038 -0.0184998 0)
(0.121256 -0.0216973 0)
(0.154848 -0.0260079 0)
(0.194553 -0.0319141 0)
(0.248336 -0.0398312 0)
(0.29849 -0.0508845 0)
(0.413217 -0.0709849 0)
(0.48644 -0.1178 0)
(0.648697 -0.0926701 0)
(0.742242 -0.10046 0)
(0.782334 -0.0476076 0)
(0.604646 0.0813583 0)
(0.485969 0.0878771 0)
(0.425271 0.0527481 0)
(0.367408 0.0408393 0)
(0.312927 0.0420842 0)
(0.250143 0.0517663 0)
(0.168841 0.0669382 0)
(0.00893916 -0.0215117 0)
(0.0271648 -0.0223499 0)
(0.0464478 -0.0240707 0)
(0.0675567 -0.0267721 0)
(0.0913659 -0.0306188 0)
(0.118897 -0.035882 0)
(0.151635 -0.042964 0)
(0.190251 -0.0526542 0)
(0.242084 -0.0655899 0)
(0.289307 -0.083805 0)
(0.401266 -0.116939 0)
(0.457651 -0.169269 0)
(0.593042 -0.173093 0)
(0.66841 -0.193908 0)
(0.668143 -0.068534 0)
(0.501912 0.150424 0)
(0.455358 0.121575 0)
(0.410725 0.0795409 0)
(0.364344 0.0646998 0)
(0.316546 0.0679192 0)
(0.258258 0.0849959 0)
(0.178939 0.112039 0)
(0.00870273 -0.0298535 0)
(0.0264425 -0.0310124 0)
(0.0451994 -0.0333906 0)
(0.0657092 -0.0371204 0)
(0.0887974 -0.0424203 0)
(0.115419 -0.0496537 0)
(0.14691 -0.0593606 0)
(0.183953 -0.0725702 0)
(0.232871 -0.0901548 0)
(0.276916 -0.114568 0)
(0.381941 -0.157584 0)
(0.419989 -0.219057 0)
(0.533101 -0.242336 0)
(0.596821 -0.206416 0)
(0.537424 0.0202726 0)
(0.440005 0.196045 0)
(0.425834 0.142841 0)
(0.396213 0.0978734 0)
(0.361974 0.0838923 0)
(0.322739 0.0906136 0)
(0.271366 0.116116 0)
(0.195646 0.157425 0)
(0.008392 -0.0379357 0)
(0.0254936 -0.0394013 0)
(0.0435609 -0.0424076 0)
(0.0632888 -0.0471161 0)
(0.0854417 -0.0537881 0)
(0.110889 -0.062864 0)
(0.140792 -0.0749997 0)
(0.175828 -0.0913854 0)
(0.221087 -0.113101 0)
(0.261922 -0.142756 0)
(0.357522 -0.193541 0)
(0.377227 -0.259724 0)
(0.477239 -0.293041 0)
(0.525024 -0.213712 0)
(0.420031 0.0920983 0)
(0.395079 0.21136 0)
(0.397117 0.152642 0)
(0.383017 0.109895 0)
(0.361176 0.0979452 0)
(0.332232 0.108744 0)
(0.290095 0.14411 0)
(0.223023 0.202959 0)
(0.00801082 -0.0456951 0)
(0.0243297 -0.0474502 0)
(0.0415531 -0.05105 0)
(0.0603302 -0.0566799 0)
(0.0813541 -0.0646275 0)
(0.105393 -0.0753965 0)
(0.133421 -0.0897345 0)
(0.166081 -0.108928 0)
(0.207216 -0.134233 0)
(0.244935 -0.1684 0)
(0.329744 -0.224197 0)
(0.332809 -0.293806 0)
(0.425466 -0.328525 0)
(0.449472 -0.20089 0)
(0.340474 0.150093 0)
(0.356593 0.211498 0)
(0.372034 0.152914 0)
(0.371189 0.116008 0)
(0.361029 0.108283 0)
(0.345976 0.121724 0)
(0.316517 0.166476 0)
(0.261992 0.247232 0)
(0.00756335 -0.0530707 0)
(0.0229634 -0.0550958 0)
(0.0391984 -0.0592499 0)
(0.056871 -0.0657392 0)
(0.0765959 -0.0748687 0)
(0.0990255 -0.0871859 0)
(0.124943 -0.103487 0)
(0.154915 -0.125125 0)
(0.191718 -0.153467 0)
(0.226082 -0.191553 0)
(0.300246 -0.24962 0)
(0.289472 -0.322054 0)
(0.376435 -0.350365 0)
(0.375314 -0.175412 0)
(0.286058 0.185018 0)
(0.324167 0.202359 0)
(0.350698 0.148054 0)
(0.361776 0.116451 0)
(0.364819 0.112443 0)
(0.361628 0.127938 0)
(0.349465 0.180901 0)
(0.319255 0.280585 0)
(0.0070524 -0.0597552 0)
(0.0214024 -0.0620194 0)
(0.036507 -0.0666665 0)
(0.0529208 -0.0739197 0)
(0.0711999 -0.0841624 0)
(0.0918804 -0.0978476 0)
(0.115512 -0.115719 0)
(0.142561 -0.139242 0)
(0.174935 -0.169755 0)
(0.205444 -0.21041 0)
(0.269763 -0.269213 0)
(0.248414 -0.342536 0)
(0.329774 -0.360045 0)
(0.304319 -0.138487 0)
(0.247666 0.199462 0)
(0.297151 0.188782 0)
(0.333475 0.139167 0)
(0.352701 0.111232 0)
(0.36844 0.10856 0)
(0.381647 0.128196 0)
(0.384096 0.187877 0)
(0.408095 0.333815 0)
(0.00609764 -0.0705403 0)
(0.0184768 -0.0731419 0)
(0.0314378 -0.0784549 0)
(0.0454022 -0.0867348 0)
(0.061433 -0.0974588 0)
(0.0795824 -0.111588 0)
(0.0995218 -0.129313 0)
(0.121768 -0.152098 0)
(0.14726 -0.1793 0)
(0.170951 -0.216725 0)
(0.222208 -0.268769 0)
(0.187768 -0.34685 0)
(0.261915 -0.367718 0)
(0.180764 -0.0748631 0)
(0.201364 0.183909 0)
(0.263904 0.153226 0)
(0.308965 0.114542 0)
(0.342633 0.0934015 0)
(0.37299 0.0907169 0)
(0.413702 0.104841 0)
(0.453965 0.164418 0)
(0.600656 0.228494 0)
(0.00477315 -0.0527018 0)
(0.014446 -0.0546792 0)
(0.0245204 -0.0589066 0)
(0.0354395 -0.0656744 0)
(0.0474835 -0.0758243 0)
(0.0617595 -0.0891766 0)
(0.0776034 -0.105416 0)
(0.0961875 -0.125751 0)
(0.120406 -0.14728 0)
(0.150422 -0.175683 0)
(0.227303 -0.214146 0)
(0.192383 -0.334559 0)
(0.187329 -0.360586 0)
(0.0405998 0.0189145 0)
(0.166443 0.122843 0)
(0.232241 0.0946056 0)
(0.285165 0.0706644 0)
(0.332871 0.0560935 0)
(0.378502 0.0520336 0)
(0.435892 0.0583277 0)
(0.502137 0.0809703 0)
(0.606717 0.0928306 0)
(0.00501337 0.100424 0)
(0.0151752 0.096123 0)
(0.0256131 0.0870215 0)
(0.0362904 0.0698279 0)
(0.0483874 0.0443251 0)
(0.0577473 0.0198371 0)
(0.0721342 -0.0127851 0)
(0.084106 -0.0569544 0)
(0.100144 -0.105304 0)
(0.112503 -0.173321 0)
(0.12949 -0.252841 0)
(0.0968455 -0.389577 0)
(0.0739747 -0.324001 0)
(0.00937829 0.0173631 0)
(0.149085 0.0410198 0)
(0.214346 0.0285161 0)
(0.270844 0.0174563 0)
(0.324045 0.00704755 0)
(0.375699 -0.000408834 0)
(0.4406 -0.00553805 0)
(0.501813 -0.00432369 0)
(0.620067 -0.0247135 0)
(0.00257077 -0.053845 0)
(0.00788514 -0.0568051 0)
(0.0104504 -0.062806 0)
(0.00953892 -0.0698991 0)
(0.0244185 -0.0773862 0)
(0.0325432 -0.0954503 0)
(0.0421599 -0.117146 0)
(0.0578783 -0.144044 0)
(0.0674793 -0.185914 0)
(0.0906945 -0.233005 0)
(0.0993605 -0.304159 0)
(0.0884066 -0.414283 0)
(0.0665558 -0.314758 0)
(0.0961069 -0.198871 0)
(0.153001 -0.0386856 0)
(0.211949 -0.0324745 0)
(0.26413 -0.0359811 0)
(0.315082 -0.0447071 0)
(0.366515 -0.0559585 0)
(0.429851 -0.0698972 0)
(0.485922 -0.083878 0)
(0.593771 -0.12371 0)
(0.0138057 -0.118547 0)
(0.0415897 -0.121851 0)
(0.071311 -0.127699 0)
(0.103589 -0.12049 0)
(0.127861 -0.0912773 0)
(0.150893 -0.121093 0)
(0.171086 -0.110785 0)
(0.184097 -0.159102 0)
(0.196657 -0.185785 0)
(0.201292 -0.253808 0)
(0.196188 -0.311874 0)
(0.169781 -0.371277 0)
(0.157654 -0.297314 0)
(0.144353 -0.252539 0)
(0.174132 -0.0993065 0)
(0.217102 -0.0795549 0)
(0.258833 -0.083244 0)
(0.304075 -0.0934717 0)
(0.351515 -0.10874 0)
(0.408357 -0.12952 0)
(0.457635 -0.153388 0)
(0.548386 -0.207848 0)
(0.0122578 -0.141477 0)
(0.0367904 -0.144001 0)
(0.0610891 -0.149452 0)
(0.0829293 -0.160964 0)
(0.1054 -0.17872 0)
(0.125804 -0.19445 0)
(0.146277 -0.218696 0)
(0.163154 -0.237494 0)
(0.175148 -0.263595 0)
(0.177056 -0.285896 0)
(0.169238 -0.305488 0)
(0.164229 -0.321429 0)
(0.166594 -0.267065 0)
(0.153882 -0.247053 0)
(0.179752 -0.130789 0)
(0.215152 -0.116472 0)
(0.25016 -0.123856 0)
(0.289544 -0.137085 0)
(0.331439 -0.156055 0)
(0.38004 -0.181531 0)
(0.421628 -0.212214 0)
(0.494879 -0.271153 0)
(0.0106645 -0.158181 0)
(0.0319112 -0.161179 0)
(0.0527869 -0.167193 0)
(0.0726281 -0.176301 0)
(0.0914288 -0.186657 0)
(0.10904 -0.200978 0)
(0.124777 -0.216094 0)
(0.137982 -0.236164 0)
(0.147141 -0.256828 0)
(0.152067 -0.278846 0)
(0.150776 -0.299147 0)
(0.159158 -0.314013 0)
(0.167771 -0.268473 0)
(0.15689 -0.259551 0)
(0.178743 -0.157068 0)
(0.208822 -0.147768 0)
(0.2382 -0.158814 0)
(0.271796 -0.175034 0)
(0.307646 -0.196908 0)
(0.348189 -0.22528 0)
(0.381631 -0.259303 0)
(0.442055 -0.317892 0)
(0.00931913 -0.179507 0)
(0.0278389 -0.18215 0)
(0.0459299 -0.187339 0)
(0.0632311 -0.195111 0)
(0.0795897 -0.205101 0)
(0.0947081 -0.217509 0)
(0.108263 -0.232049 0)
(0.119675 -0.248533 0)
(0.128336 -0.266231 0)
(0.134242 -0.283907 0)
(0.136087 -0.299643 0)
(0.149847 -0.312773 0)
(0.160467 -0.273442 0)
(0.151686 -0.270501 0)
(0.171407 -0.175577 0)
(0.197814 -0.174143 0)
(0.222866 -0.188596 0)
(0.251328 -0.207397 0)
(0.281465 -0.231321 0)
(0.314694 -0.261116 0)
(0.340846 -0.2963 0)
(0.390731 -0.351955 0)
(0.00807275 -0.196627 0)
(0.0241045 -0.199052 0)
(0.0397616 -0.203741 0)
(0.0547905 -0.210675 0)
(0.0689742 -0.219678 0)
(0.0820748 -0.230701 0)
(0.0938075 -0.243464 0)
(0.103874 -0.257778 0)
(0.112029 -0.272957 0)
(0.118509 -0.288259 0)
(0.122206 -0.302689 0)
(0.138285 -0.316498 0)
(0.149262 -0.281694 0)
(0.140457 -0.280727 0)
(0.160221 -0.191263 0)
(0.183387 -0.196974 0)
(0.204897 -0.21399 0)
(0.22891 -0.234701 0)
(0.253996 -0.259879 0)
(0.280984 -0.290076 0)
(0.301271 -0.324958 0)
(0.342735 -0.376194 0)
(0.333705 -0.404376 0)
(0.00695259 -0.211771 0)
(0.0207587 -0.21397 0)
(0.0342464 -0.218187 0)
(0.0472099 -0.224421 0)
(0.0594557 -0.232553 0)
(0.0707914 -0.24245 0)
(0.0810278 -0.253902 0)
(0.0900085 -0.266613 0)
(0.0976588 -0.280154 0)
(0.104293 -0.293985 0)
(0.108763 -0.307579 0)
(0.125394 -0.321487 0)
(0.135974 -0.290104 0)
(0.127409 -0.290945 0)
(0.146648 -0.205156 0)
(0.166592 -0.216798 0)
(0.185063 -0.235582 0)
(0.205248 -0.257567 0)
(0.226029 -0.283394 0)
(0.247938 -0.313406 0)
(0.263978 -0.347303 0)
(0.299905 -0.393813 0)
(0.274491 -0.416832 0)
(0.00593793 -0.224712 0)
(0.0177303 -0.22672 0)
(0.029257 -0.230549 0)
(0.0403501 -0.236211 0)
(0.0508517 -0.243604 0)
(0.0606164 -0.252592 0)
(0.0695205 -0.262986 0)
(0.0774886 -0.274544 0)
(0.0845204 -0.286956 0)
(0.0909019 -0.299876 0)
(0.0955419 -0.313029 0)
(0.111526 -0.326877 0)
(0.121231 -0.298517 0)
(0.112915 -0.299993 0)
(0.13139 -0.218305 0)
(0.148276 -0.233947 0)
(0.164026 -0.253848 0)
(0.180886 -0.276594 0)
(0.198015 -0.302674 0)
(0.215815 -0.332287 0)
(0.22886 -0.365216 0)
(0.26161 -0.407709 0)
(0.220663 -0.430545 0)
(0.00501363 -0.235726 0)
(0.0149704 -0.23757 0)
(0.0247061 -0.241073 0)
(0.0340869 -0.246263 0)
(0.04299 -0.253053 0)
(0.0513083 -0.261318 0)
(0.0589609 -0.270903 0)
(0.0659141 -0.281621 0)
(0.0721967 -0.293257 0)
(0.0780492 -0.305592 0)
(0.0825653 -0.318489 0)
(0.0970165 -0.332358 0)
(0.105479 -0.306256 0)
(0.0969738 -0.30587 0)
(0.114984 -0.230569 0)
(0.129023 -0.248616 0)
(0.142284 -0.269151 0)
(0.156197 -0.292274 0)
(0.170143 -0.318364 0)
(0.184438 -0.34756 0)
(0.195049 -0.379814 0)
(0.22454 -0.419832 0)
(0.173066 -0.446605 0)
(0.00416687 -0.24488 0)
(0.0124387 -0.246614 0)
(0.02052 -0.249875 0)
(0.0283082 -0.254698 0)
(0.0357186 -0.26101 0)
(0.0426725 -0.268709 0)
(0.0491109 -0.277673 0)
(0.0550174 -0.287769 0)
(0.0604251 -0.298852 0)
(0.0655123 -0.310786 0)
(0.0694688 -0.323523 0)
(0.0823025 -0.337406 0)
(0.0894843 -0.312998 0)
(0.0795199 -0.30453 0)
(0.0978861 -0.241722 0)
(0.109262 -0.260967 0)
(0.12021 -0.281766 0)
(0.13144 -0.304974 0)
(0.142506 -0.330896 0)
(0.153623 -0.359668 0)
(0.161858 -0.391404 0)
(0.186847 -0.429718 0)
(0.132384 -0.461701 0)
(0.00335737 -0.252146 0)
(0.0100432 -0.25379 0)
(0.0165917 -0.256993 0)
(0.0228986 -0.261639 0)
(0.0289058 -0.267602 0)
(0.0345574 -0.27486 0)
(0.0398007 -0.283344 0)
(0.0446245 -0.292971 0)
(0.04906 -0.303642 0)
(0.0532304 -0.315274 0)
(0.0565082 -0.327865 0)
(0.0672549 -0.341546 0)
(0.0729497 -0.318934 0)
(0.0637388 -0.29831 0)
(0.0803 -0.251684 0)
(0.0893361 -0.27118 0)
(0.0980991 -0.291949 0)
(0.106828 -0.315 0)
(0.115207 -0.340584 0)
(0.123349 -0.368846 0)
(0.12912 -0.40007 0)
(0.149074 -0.436332 0)
(0.0979364 -0.472616 0)
(0.00251985 -0.259137 0)
(0.00753415 -0.260607 0)
(0.0126169 -0.263189 0)
(0.0176639 -0.267232 0)
(0.022415 -0.27281 0)
(0.0268256 -0.279704 0)
(0.0308914 -0.287815 0)
(0.0346107 -0.297102 0)
(0.0380053 -0.30744 0)
(0.0411468 -0.318797 0)
(0.0436337 -0.331258 0)
(0.0518532 -0.344813 0)
(0.0560027 -0.323605 0)
(0.0481561 -0.288349 0)
(0.0625553 -0.260182 0)
(0.0695121 -0.279322 0)
(0.0761921 -0.299771 0)
(0.0825567 -0.322409 0)
(0.0883967 -0.347425 0)
(0.0936834 -0.374946 0)
(0.0970201 -0.405584 0)
(0.111416 -0.439748 0)
(0.0684405 -0.479682 0)
(0.00189714 -0.261674 0)
(0.00565109 -0.263166 0)
(0.00919344 -0.265939 0)
(0.012559 -0.270023 0)
(0.0158648 -0.275331 0)
(0.0190114 -0.281868 0)
(0.0219719 -0.289559 0)
(0.0248189 -0.298311 0)
(0.0272449 -0.308169 0)
(0.0292398 -0.319188 0)
(0.030765 -0.331505 0)
(0.0358023 -0.345073 0)
(0.0385689 -0.325415 0)
(0.0330334 -0.274969 0)
(0.0449237 -0.265131 0)
(0.0500796 -0.283387 0)
(0.0547385 -0.303221 0)
(0.0588554 -0.325294 0)
(0.0623366 -0.34972 0)
(0.0648089 -0.376688 0)
(0.0655447 -0.406969 0)
(0.073237 -0.439936 0)
(0.0422482 -0.484412 0)
(0.00129442 -0.259588 0)
(0.00388795 -0.261105 0)
(0.00639178 -0.263937 0)
(0.00876219 -0.268099 0)
(0.0109609 -0.273519 0)
(0.0129591 -0.280196 0)
(0.0146697 -0.288068 0)
(0.0158618 -0.297037 0)
(0.0168186 -0.307159 0)
(0.0174868 -0.318413 0)
(0.0177378 -0.330913 0)
(0.0175289 -0.344672 0)
(0.0192586 -0.323996 0)
(0.01935 -0.258263 0)
(0.0278329 -0.265731 0)
(0.0312655 -0.283687 0)
(0.0337211 -0.303897 0)
(0.0354532 -0.326706 0)
(0.0364453 -0.352045 0)
(0.0362554 -0.380161 0)
(0.0338793 -0.410123 0)
(0.0319976 -0.442958 0)
(0.0177302 -0.4845 0)
(0.000459122 -0.31465 0)
(0.00134747 -0.316119 0)
(0.00222429 -0.31885 0)
(0.00302072 -0.322862 0)
(0.00371741 -0.328097 0)
(0.0042924 -0.33447 0)
(0.00473703 -0.341899 0)
(0.0050328 -0.35029 0)
(0.00510461 -0.359365 0)
(0.00472762 -0.368899 0)
(0.00389558 -0.378615 0)
(-0.000960345 -0.388158 0)
(-0.00298786 -0.365463 0)
(0.00738437 -0.312691 0)
(0.0101876 -0.325546 0)
(0.0107974 -0.342086 0)
)
;

boundaryField
{
    leftWall
    {
        type            fixedValue;
        value           uniform (0 0 0);
    }
    rightWall
    {
        type            fixedValue;
        value           nonuniform 0();
    }
    lowerWall
    {
        type            fixedValue;
        value           uniform (0 0 0);
    }
    atmosphere
    {
        type            fluxCorrectedVelocity;
        value           nonuniform 0();
    }
    defaultFaces
    {
        type            empty;
    }
    procBoundary0to1
    {
        type            processor;
        value           nonuniform List<vector> 
26
(
(0.0587976 0.0269098 0)
(0.0611546 0.0819376 0)
(0.0661553 0.139577 0)
(0.0743613 0.205914 0)
(0.0890767 0.271988 0)
(0.10795 0.376468 0)
(0.148595 0.443233 0)
(0.211959 0.655489 0)
(0.804935 0.562049 0)
(0.801929 0.172067 0)
(0.733512 -0.0373602 0)
(0.677617 -0.167867 0)
(0.611542 -0.261324 0)
(0.535976 -0.320919 0)
(0.467845 -0.359907 0)
(0.399394 -0.38703 0)
(0.399394 -0.38703 0)
(0.267513 -0.468189 0)
(0.206662 -0.486247 0)
(0.153636 -0.498439 0)
(0.110145 -0.505589 0)
(0.0784213 -0.508143 0)
(0.055679 -0.507468 0)
(0.0387401 -0.501193 0)
(0.0238473 -0.481045 0)
(0.0154663 -0.409502 0)
)
;
    }
    procBoundary0to2
    {
        type            processor;
        value           nonuniform List<vector> 
24
(
(0.0103661 -0.360314 0)
(0.00926874 -0.379719 0)
(0.00731076 -0.399877 0)
(0.00701458 -0.415173 0)
(0.00352792 -0.435326 0)
(-0.0015733 -0.453285 0)
(-0.00107162 -0.472919 0)
(5.42539e-05 -0.377151 0)
(5.28563e-05 -0.378116 0)
(0.000136111 -0.379834 0)
(0.000195212 -0.382401 0)
(0.000251445 -0.385761 0)
(0.0003057 -0.389854 0)
(0.00035613 -0.394605 0)
(0.000395788 -0.399931 0)
(0.000407014 -0.405721 0)
(0.000283984 -0.411765 0)
(7.43165e-05 -0.417468 0)
(-8.41103e-05 -0.422597 0)
(0.000390485 -0.417957 0)
(0.001127 -0.372237 0)
(0.00127675 -0.381945 0)
(0.0103661 -0.360314 0)
(0.000726787 -0.39358 0)
)
;
    }
}


// ************************************************************************* //
