/*--------------------------------*- C++ -*----------------------------------*\
| =========                 |                                                 |
| \\      /  F ield         | OpenFOAM: The Open Source CFD Toolbox           |
|  \\    /   O peration     | Version:  2.4.0                                 |
|   \\  /    A nd           | Web:      www.OpenFOAM.org                      |
|    \\/     M anipulation  |                                                 |
\*---------------------------------------------------------------------------*/
FoamFile
{
    version     2.0;
    format      ascii;
    class       volScalarField;
    location    "0.8";
    object      alpha.oil;
}
// * * * * * * * * * * * * * * * * * * * * * * * * * * * * * * * * * * * * * //

dimensions      [0 0 0 0 0 0 0];

internalField   nonuniform List<scalar> 
559
(
6.32022e-08
3.03676e-08
2.93824e-08
6.17218e-08
1.07607e-07
1.5021e-07
1.6356e-07
8.2636e-12
4.2844e-12
1.50887e-12
8.54049e-13
1.30145e-12
2.56226e-12
7.87987e-12
2.52034e-11
6.33801e-11
1.25714e-10
1.76456e-10
9.74122e-10
7.50024e-09
3.62559e-08
8.68916e-08
1.16029e-07
7.10566e-08
3.60607e-08
2.36979e-08
1.99617e-08
3.84766e-08
5.77065e-08
7.19331e-08
2.78684e-12
1.31979e-12
4.08749e-13
3.21601e-13
6.18428e-13
1.33694e-12
4.3614e-12
1.54867e-11
4.26485e-11
9.34095e-11
1.3354e-10
4.65853e-10
6.18704e-09
2.09185e-08
4.68807e-08
5.03025e-08
6.41607e-08
3.6315e-08
2.02222e-08
9.25459e-09
1.14565e-08
1.52249e-08
1.64299e-08
8.66499e-13
3.22944e-13
1.02015e-13
1.17884e-13
2.65297e-13
6.3702e-13
2.26368e-12
8.56839e-12
2.49921e-11
5.78903e-11
8.40699e-11
2.74567e-10
3.21669e-09
1.48095e-08
1.88929e-08
2.72414e-08
3.12029e-08
2.24638e-08
1.81975e-08
8.2774e-09
4.82432e-09
3.62365e-09
1.86205e-09
2.26586e-13
6.97971e-14
2.40562e-14
4.05555e-14
1.01899e-13
2.75668e-13
1.07238e-12
4.22318e-12
1.27559e-11
3.05671e-11
4.46873e-11
9.63943e-11
8.70705e-10
5.94153e-09
1.25544e-08
1.48434e-08
2.28396e-08
1.77252e-08
1.11087e-08
5.61966e-09
3.16128e-09
1.83894e-09
1.01199e-09
5.08334e-14
1.34121e-14
5.45205e-15
1.27737e-14
3.50612e-14
1.07569e-13
4.53982e-13
1.83583e-12
5.66494e-12
1.37196e-11
2.08033e-11
2.20949e-11
7.90565e-11
2.68988e-09
5.00867e-09
9.11661e-09
1.31685e-08
1.17567e-08
7.75656e-09
3.81803e-09
2.24979e-09
1.32013e-09
7.50362e-10
1.00015e-14
2.30876e-15
1.20021e-15
3.63778e-15
1.08208e-14
3.75928e-14
1.69818e-13
6.99631e-13
2.18987e-12
5.31664e-12
8.34233e-12
1.09136e-11
1.3324e-11
4.72534e-10
2.157e-09
3.58302e-09
6.50018e-09
6.05762e-09
4.23265e-09
2.37446e-09
1.40617e-09
7.88065e-10
4.21013e-10
1.75099e-15
3.60934e-16
2.55639e-16
9.31615e-16
2.99953e-15
1.17082e-14
5.58423e-14
2.33236e-13
7.38149e-13
1.79734e-12
2.92843e-12
4.52543e-12
7.32762e-12
4.40042e-11
6.65714e-10
1.54987e-09
2.78961e-09
2.66008e-09
1.90878e-09
1.15785e-09
6.70842e-10
3.60968e-10
1.84746e-10
2.75178e-16
5.18052e-17
5.18858e-17
2.1463e-16
7.48783e-16
3.24628e-15
1.61646e-14
6.83022e-14
2.1856e-13
5.35948e-13
9.13649e-13
1.60143e-12
3.19253e-12
1.58535e-11
1.88026e-10
2.76175e-10
8.75491e-10
1.02717e-09
7.31673e-10
4.50179e-10
2.54118e-10
1.31932e-10
6.40165e-11
3.91371e-17
6.90613e-18
9.87301e-18
4.45893e-17
1.68749e-16
8.02244e-16
4.13527e-15
1.76708e-14
5.7281e-14
1.42497e-13
2.57162e-13
5.00475e-13
1.15881e-12
6.28231e-12
3.42567e-11
2.78964e-11
6.18074e-11
1.13691e-10
1.97427e-10
1.41847e-10
7.67549e-11
3.88882e-11
1.80801e-11
5.07275e-18
8.64245e-19
1.74028e-18
8.37979e-18
3.44232e-17
1.77399e-16
9.412e-16
4.07081e-15
1.34142e-14
3.42038e-14
6.6282e-14
1.41421e-13
3.63059e-13
1.98066e-12
7.48416e-12
9.3665e-12
8.60121e-12
9.5993e-12
1.43649e-11
1.49621e-11
1.68023e-11
9.28668e-12
4.25217e-12
6.02997e-19
1.02562e-19
2.82326e-19
1.43073e-18
6.37703e-18
3.52589e-17
1.91864e-16
8.4157e-16
2.83248e-15
7.47946e-15
1.57308e-14
3.64009e-14
9.9689e-14
5.24391e-13
1.98069e-12
2.85916e-12
2.99747e-12
3.5132e-12
4.04803e-12
4.2719e-12
3.57863e-12
1.92622e-12
8.56454e-13
6.60804e-20
1.16219e-20
4.20479e-20
2.22931e-19
1.07724e-18
6.33625e-18
3.53042e-17
1.57499e-16
5.44577e-16
1.50462e-15
3.45288e-15
8.55863e-15
2.42338e-14
1.18864e-13
4.67754e-13
7.25178e-13
7.84065e-13
9.30711e-13
1.00873e-12
9.78642e-13
6.82326e-13
3.48205e-13
1.49626e-13
6.71165e-21
1.26429e-21
5.75154e-21
3.18433e-20
1.66612e-19
1.03551e-18
5.90491e-18
2.68841e-17
9.60519e-17
2.79739e-16
6.98765e-16
1.83177e-15
5.25206e-15
2.35336e-14
9.18175e-14
1.52137e-13
1.70354e-13
1.97806e-13
2.079e-13
1.81739e-13
1.13538e-13
5.51093e-14
2.28694e-14
6.34563e-22
1.32114e-22
7.23866e-22
4.18911e-21
2.37045e-20
1.54913e-19
9.04661e-19
4.21865e-18
1.56497e-17
4.82119e-17
1.30061e-16
3.56052e-16
1.02011e-15
4.13702e-15
1.52907e-14
2.68976e-14
3.1271e-14
3.55179e-14
3.605e-14
2.85982e-14
1.65704e-14
7.69076e-15
3.08217e-15
5.61113e-23
1.3244e-23
8.40763e-23
5.09946e-22
3.11691e-21
2.1341e-20
1.27775e-19
6.12278e-19
2.36573e-18
7.70413e-18
2.2192e-17
6.27253e-17
1.78243e-16
6.54457e-16
2.23107e-15
4.10434e-15
4.93296e-15
5.51626e-15
5.36477e-15
3.91792e-15
2.14198e-15
9.5404e-16
3.69051e-16
4.65942e-24
1.26927e-24
9.04436e-24
5.77162e-23
3.80607e-22
2.72309e-21
1.67388e-20
8.2633e-20
3.32859e-19
1.14095e-18
3.46591e-18
1.00197e-17
2.81245e-17
9.40806e-17
2.92635e-16
5.51815e-16
6.80773e-16
7.51755e-16
6.97177e-16
4.75344e-16
2.47529e-16
1.06002e-16
3.95664e-17
3.64865e-25
1.1589e-25
9.04659e-25
6.10312e-24
4.33664e-23
3.23524e-22
2.04378e-21
1.04076e-20
4.36579e-20
1.56571e-19
4.95838e-19
1.45543e-18
4.02697e-18
1.23867e-17
3.51346e-17
6.65073e-17
8.35456e-17
9.1042e-17
8.03582e-17
5.17189e-17
2.57998e-17
1.06353e-17
3.8332e-18
2.70519e-26
1.00568e-26
8.45243e-26
6.05942e-25
4.63135e-24
3.59525e-23
2.33485e-22
1.22659e-21
5.34281e-21
1.99145e-20
6.51057e-20
1.92969e-19
5.25999e-19
1.50389e-18
3.91366e-18
7.30586e-18
9.26224e-18
9.9161e-18
8.32632e-18
5.10204e-18
2.44756e-18
9.72108e-19
3.39532e-19
1.90637e-27
8.28743e-28
7.41663e-27
5.67872e-26
4.65816e-25
3.75484e-24
2.50544e-23
1.35611e-22
6.10858e-22
2.35018e-21
7.86872e-21
2.34566e-20
6.30175e-20
1.69294e-19
4.07879e-19
7.41221e-19
9.40592e-19
9.85363e-19
7.87824e-19
4.61557e-19
2.13233e-19
8.17287e-20
2.79541e-20
1.28239e-28
6.49619e-29
6.1528e-28
5.0551e-27
4.43705e-26
3.70491e-25
2.53674e-24
1.41102e-23
6.53986e-23
2.57963e-22
8.78822e-22
2.62723e-21
6.95775e-21
1.77217e-20
3.99117e-20
7.00514e-20
8.83481e-20
9.03078e-20
6.8962e-20
3.88307e-20
1.72998e-20
6.40188e-21
2.20215e-21
8.27926e-30
4.86688e-30
4.87048e-29
4.30771e-28
4.02927e-27
3.4753e-26
2.43653e-25
1.3876e-24
6.58001e-24
2.64318e-23
9.10716e-23
2.7221e-22
7.10889e-22
1.73082e-21
3.67879e-21
6.21251e-21
7.73047e-21
7.68218e-21
5.62237e-21
3.05876e-21
1.32015e-21
4.75265e-22
1.77093e-22
5.17221e-31
3.5196e-31
3.74521e-30
3.59108e-29
3.56639e-28
3.15934e-27
2.2556e-26
1.30638e-25
6.28429e-25
2.54776e-24
8.81102e-24
2.62083e-23
6.73486e-23
1.57498e-22
3.17838e-22
5.15536e-22
6.29791e-22
6.08092e-22
4.28251e-22
2.25837e-22
9.48797e-23
3.37395e-23
1.64324e-23
3.15288e-32
2.49869e-32
2.84602e-31
2.97217e-30
3.11425e-29
2.8157e-28
2.03526e-27
1.19082e-26
5.76736e-26
2.34214e-25
8.06609e-25
2.36995e-24
5.96541e-24
1.34047e-23
2.57404e-23
3.9996e-23
4.7668e-23
4.45753e-23
3.02653e-23
1.55312e-23
6.39823e-24
2.30534e-24
2.02416e-24
1.88888e-33
1.75282e-33
2.1526e-32
2.45004e-31
2.68746e-30
2.46634e-29
1.79567e-28
1.0551e-27
5.11094e-27
2.06546e-26
7.04083e-26
2.03293e-25
4.99218e-25
1.07724e-24
1.96858e-24
2.91946e-24
3.36613e-24
3.03351e-24
1.98639e-24
9.92631e-25
4.03408e-25
1.75576e-25
9.30457e-25
)
;

boundaryField
{
    leftWall
    {
        type            zeroGradient;
    }
    rightWall
    {
        type            zeroGradient;
    }
    lowerWall
    {
        type            zeroGradient;
    }
    atmosphere
    {
        type            inletOutlet;
        inletValue      uniform 0;
        value           nonuniform List<scalar> 
23
(
1.88888e-33
1.75282e-33
2.1526e-32
2.45004e-31
2.68746e-30
2.46634e-29
1.79567e-28
1.0551e-27
5.11094e-27
2.06546e-26
7.04083e-26
2.03293e-25
4.99218e-25
1.07724e-24
1.96858e-24
2.91946e-24
3.36613e-24
3.03351e-24
1.98639e-24
9.92631e-25
4.03408e-25
1.75576e-25
9.30457e-25
)
;
    }
    defaultFaces
    {
        type            empty;
    }
    procBoundary2to0
    {
        type            processor;
        value           nonuniform List<scalar> 
24
(
4.41364e-08
3.20973e-08
6.16074e-08
1.34692e-07
2.88098e-07
5.57743e-07
4.87922e-07
3.28262e-10
3.84412e-11
4.49106e-12
2.27625e-12
2.52273e-12
4.49695e-12
1.35634e-11
3.70708e-11
8.01012e-11
1.39057e-10
1.96693e-10
2.14134e-09
1.21549e-08
5.54535e-08
1.18499e-07
1.18381e-07
1.18381e-07
)
;
    }
    procBoundary2to3
    {
        type            processor;
        value           nonuniform List<scalar> 
25
(
1.89887e-07
7.21507e-08
1.56803e-08
1.45132e-09
7.46393e-10
4.8501e-10
2.67289e-10
1.23737e-10
3.96345e-11
1.09294e-11
2.54422e-12
5.05143e-13
8.65648e-14
1.29377e-14
1.70106e-15
1.98383e-16
2.07153e-17
1.96518e-18
1.75204e-19
1.63302e-20
2.05969e-21
4.12811e-22
1.05319e-22
2.85703e-23
2.64509e-23
)
;
    }
}


// ************************************************************************* //
