/*--------------------------------*- C++ -*----------------------------------*\
| =========                 |                                                 |
| \\      /  F ield         | OpenFOAM: The Open Source CFD Toolbox           |
|  \\    /   O peration     | Version:  2.4.0                                 |
|   \\  /    A nd           | Web:      www.OpenFOAM.org                      |
|    \\/     M anipulation  |                                                 |
\*---------------------------------------------------------------------------*/
FoamFile
{
    version     2.0;
    format      ascii;
    class       volScalarField;
    location    "0.8";
    object      p;
}
// * * * * * * * * * * * * * * * * * * * * * * * * * * * * * * * * * * * * * //

dimensions      [1 -1 -2 0 0 0 0];

internalField   nonuniform List<scalar> 
559
(
2.9851
2.94138
2.89662
2.84889
2.80467
2.73791
2.63053
3.13738
3.13557
3.13036
3.12466
3.11746
3.1092
3.09912
3.08737
3.07334
3.05697
3.03786
3.01588
2.99111
2.96323
2.93252
2.89926
2.86416
2.82758
2.79029
2.75061
2.71086
2.65782
2.58281
2.9924
2.99066
2.9863
2.98093
2.97408
2.96591
2.95607
2.94459
2.93109
2.91552
2.89758
2.87723
2.85451
2.8294
2.80205
2.77287
2.74234
2.71063
2.67821
2.64358
2.60702
2.56241
2.5059
2.84905
2.84739
2.84362
2.83858
2.83207
2.82415
2.81477
2.80378
2.79097
2.77632
2.75962
2.74095
2.72021
2.69756
2.67314
2.64732
2.62027
2.59218
2.56318
2.53222
2.49895
2.46032
2.41521
2.70727
2.7057
2.70236
2.69767
2.69154
2.68403
2.67513
2.66472
2.65271
2.63905
2.62364
2.60651
2.58764
2.56721
2.54535
2.52226
2.49801
2.47277
2.44652
2.41854
2.38844
2.35464
2.31697
2.56696
2.5655
2.56249
2.55815
2.55245
2.54543
2.53703
2.52726
2.51604
2.50334
2.48914
2.47346
2.45636
2.4379
2.4182
2.39739
2.37557
2.35277
2.32887
2.30356
2.27644
2.2467
2.21444
2.42805
2.4267
2.42396
2.41995
2.41467
2.40812
2.40029
2.39119
2.38079
2.36907
2.35605
2.34175
2.3262
2.30947
2.29168
2.27287
2.25314
2.23246
2.21077
2.18792
2.16356
2.13731
2.10922
2.29042
2.28918
2.28667
2.28297
2.27808
2.27203
2.26479
2.25638
2.24679
2.23605
2.22415
2.2111
2.19696
2.18181
2.16569
2.14868
2.13085
2.11214
2.09253
2.07187
2.05
2.02672
2.00219
2.15397
2.15283
2.15054
2.14714
2.14265
2.13707
2.13041
2.12268
2.1139
2.10406
2.09318
2.0813
2.06849
2.05478
2.04023
2.02489
2.00874
1.99182
1.97406
1.95546
1.93594
1.91533
1.8938
2.01861
2.01757
2.01549
2.01238
2.00827
2.00315
1.99705
1.98998
1.98195
1.97298
1.96312
1.95236
1.94077
1.92837
1.91522
1.90133
1.88677
1.87153
1.85561
1.83895
1.82149
1.80326
1.78437
1.88424
1.8833
1.8814
1.87857
1.87482
1.87015
1.8646
1.85816
1.85087
1.84274
1.8338
1.82408
1.81361
1.80244
1.79059
1.77812
1.76505
1.75135
1.73705
1.72215
1.70666
1.69059
1.67403
1.75077
1.74991
1.74819
1.74562
1.74222
1.738
1.73296
1.72714
1.72054
1.71319
1.70513
1.69637
1.68695
1.67692
1.6663
1.65512
1.64339
1.63115
1.61842
1.60519
1.59149
1.57737
1.5629
1.61812
1.61735
1.61579
1.61348
1.61041
1.6066
1.60206
1.59681
1.59088
1.58427
1.57704
1.56918
1.56075
1.55178
1.54229
1.53231
1.52187
1.511
1.49971
1.48802
1.47598
1.46362
1.45103
1.4862
1.48551
1.48411
1.48204
1.47929
1.47588
1.47181
1.46711
1.4618
1.45591
1.44944
1.44244
1.43494
1.42696
1.41853
1.40968
1.40044
1.39083
1.38088
1.37063
1.3601
1.34936
1.33847
1.35494
1.35432
1.35308
1.35123
1.34879
1.34575
1.34213
1.33795
1.33324
1.32801
1.32228
1.31609
1.30945
1.30239
1.29495
1.28716
1.27903
1.27061
1.26192
1.25299
1.24386
1.23458
1.22523
1.22426
1.22372
1.22262
1.22099
1.21883
1.21615
1.21296
1.20929
1.20513
1.20053
1.19549
1.19005
1.18423
1.17805
1.17155
1.16474
1.15766
1.15034
1.1428
1.13508
1.12723
1.11929
1.11133
1.0941
1.09362
1.09267
1.09124
1.08936
1.08702
1.08424
1.08103
1.07741
1.0734
1.06902
1.0643
1.05925
1.05389
1.04826
1.04237
1.03626
1.02996
1.02349
1.01689
1.01021
1.00349
0.996786
0.964382
0.963972
0.963147
0.961921
0.960298
0.958285
0.955892
0.953134
0.950027
0.946584
0.942825
0.93877
0.934436
0.929849
0.925038
0.92002
0.91482
0.909465
0.903988
0.898421
0.892801
0.887177
0.881601
0.835047
0.834698
0.833998
0.832961
0.831591
0.829893
0.827878
0.825555
0.822936
0.820034
0.816864
0.813444
0.809794
0.805937
0.801888
0.797669
0.793306
0.788832
0.784269
0.779643
0.774995
0.770364
0.765794
0.706046
0.70575
0.705171
0.704316
0.70319
0.701795
0.70014
0.698234
0.696083
0.693699
0.691096
0.688287
0.685287
0.682111
0.67878
0.675313
0.671739
0.668071
0.664335
0.660569
0.656801
0.653062
0.649394
0.577323
0.577096
0.576637
0.575953
0.575057
0.573946
0.572627
0.571109
0.569399
0.567507
0.565443
0.563216
0.560839
0.558321
0.555679
0.552929
0.550082
0.547158
0.544191
0.541208
0.538235
0.535299
0.532428
0.448817
0.448646
0.448301
0.447778
0.447099
0.446256
0.445257
0.444108
0.442815
0.441388
0.439838
0.438164
0.436375
0.434482
0.432494
0.43042
0.428277
0.426081
0.423843
0.421583
0.419328
0.417115
0.414973
0.320489
0.320364
0.320143
0.319756
0.319298
0.318708
0.31801
0.317206
0.316304
0.315311
0.314246
0.313084
0.311846
0.310541
0.309168
0.307738
0.306261
0.304736
0.303176
0.301604
0.300037
0.298496
0.296993
0.19231
0.192204
0.192074
0.19181
0.191517
0.191168
0.190764
0.1903
0.189779
0.189204
0.188584
0.187915
0.187206
0.186461
0.185679
0.184857
0.184029
0.18315
0.182256
0.181351
0.180441
0.179543
0.17867
0.0641779
0.0641562
0.0640981
0.0639815
0.0638535
0.0637144
0.063576
0.0634268
0.0632622
0.0630815
0.0628855
0.0626759
0.0624539
0.0622202
0.0619769
0.0617233
0.0614599
0.0611852
0.0609023
0.0606133
0.0603218
0.060031
0.0597525
)
;

boundaryField
{
    leftWall
    {
        type            fixedFluxPressure;
        gradient        uniform 0;
        value           nonuniform List<scalar> 
24
(
3.13738
2.9924
2.84905
2.70727
2.56696
2.42805
2.29042
2.15397
2.01861
1.88424
1.75077
1.61812
1.4862
1.35494
1.22426
1.0941
0.964382
0.835047
0.706046
0.577323
0.448817
0.320489
0.19231
0.0641779
)
;
    }
    rightWall
    {
        type            fixedFluxPressure;
        gradient        nonuniform 0();
        value           nonuniform 0();
    }
    lowerWall
    {
        type            fixedFluxPressure;
        gradient        nonuniform 0();
        value           nonuniform 0();
    }
    atmosphere
    {
        type            totalPressure;
        U               U.air;
        phi             phi.air;
        rho             rho;
        psi             none;
        gamma           1;
        p0              uniform 0;
        value           uniform 0;
    }
    defaultFaces
    {
        type            empty;
    }
    procBoundary2to0
    {
        type            processor;
        value           nonuniform List<scalar> 
24
(
3.10315
3.0488
2.99224
2.92972
2.87385
2.77979
2.61416
3.28398
3.28194
3.27562
3.26961
3.26213
3.25412
3.24398
3.2323
3.21791
3.20066
3.18026
3.15696
3.13042
3.09952
3.06489
3.02649
3.02649
)
;
    }
    procBoundary2to3
    {
        type            processor;
        value           nonuniform List<scalar> 
25
(
2.5378
2.51891
2.45837
2.37819
2.28678
2.18905
2.0875
1.98338
1.87741
1.77004
1.66154
1.55204
1.44163
1.33038
1.21832
1.10549
0.991908
0.877573
0.762513
0.646772
0.53039
0.413453
0.295935
0.178048
0.0595445
)
;
    }
}


// ************************************************************************* //
