/*--------------------------------*- C++ -*----------------------------------*\
| =========                 |                                                 |
| \\      /  F ield         | OpenFOAM: The Open Source CFD Toolbox           |
|  \\    /   O peration     | Version:  2.4.0                                 |
|   \\  /    A nd           | Web:      www.OpenFOAM.org                      |
|    \\/     M anipulation  |                                                 |
\*---------------------------------------------------------------------------*/
FoamFile
{
    version     2.0;
    format      ascii;
    class       surfaceScalarField;
    location    "0.8";
    object      phi.mercury;
}
// * * * * * * * * * * * * * * * * * * * * * * * * * * * * * * * * * * * * * //

dimensions      [0 3 -1 0 0 0 0];

internalField   nonuniform List<scalar> 
1070
(
1.00728e-05
7.06307e-05
1.51658e-05
7.8621e-05
2.525e-05
8.86551e-05
4.18421e-05
9.86655e-05
6.8829e-05
0.000110261
0.000105269
0.000113313
0.000102402
3.19951e-06
5.62103e-05
5.73827e-06
5.30092e-05
6.6571e-06
5.04269e-05
6.69552e-06
4.89174e-05
6.18633e-06
4.78698e-05
5.62222e-06
4.74905e-05
5.03745e-06
4.75917e-05
4.9004e-06
4.851e-05
5.08297e-06
4.96336e-05
6.04545e-06
5.15159e-05
7.58875e-06
5.33567e-05
9.19628e-06
5.48526e-05
1.0631e-05
5.61909e-05
1.18277e-05
5.7985e-05
1.30466e-05
6.01174e-05
1.44857e-05
6.34268e-05
1.73396e-05
6.7777e-05
2.29423e-05
7.30186e-05
3.21867e-05
7.9411e-05
4.52407e-05
8.56118e-05
6.46684e-05
9.0831e-05
8.86618e-05
8.93147e-05
8.11655e-05
2.34874e-06
5.38616e-05
4.37349e-06
5.09845e-05
5.35838e-06
4.9442e-05
5.73724e-06
4.85386e-05
5.7275e-06
4.78795e-05
5.59365e-06
4.76244e-05
5.43838e-06
4.7747e-05
5.56196e-06
4.83865e-05
5.98326e-06
4.92124e-05
7.0571e-06
5.04421e-05
8.64744e-06
5.17665e-05
1.03674e-05
5.31327e-05
1.20912e-05
5.44672e-05
1.38896e-05
5.61866e-05
1.57761e-05
5.82313e-05
1.81319e-05
6.10711e-05
2.19101e-05
6.39991e-05
2.78051e-05
6.71239e-05
3.61775e-05
7.10389e-05
4.70168e-05
7.47727e-05
6.11612e-05
7.66865e-05
7.71332e-05
7.33414e-05
6.61438e-05
1.87063e-06
5.1991e-05
3.45613e-06
4.9399e-05
4.42594e-06
4.84723e-05
5.07769e-06
4.78869e-05
5.50348e-06
4.74538e-05
5.76882e-06
4.73591e-05
5.99924e-06
4.75167e-05
6.38968e-06
4.79961e-05
6.95922e-06
4.86429e-05
7.91139e-06
4.949e-05
9.2801e-06
5.03978e-05
1.0898e-05
5.1515e-05
1.26195e-05
5.27457e-05
1.46976e-05
5.41088e-05
1.72011e-05
5.57278e-05
2.05284e-05
5.77441e-05
2.47518e-05
5.9776e-05
3.01738e-05
6.17022e-05
3.74005e-05
6.38127e-05
4.65351e-05
6.56385e-05
5.74993e-05
6.57225e-05
6.89476e-05
6.18932e-05
5.51346e-05
1.53678e-06
5.04543e-05
2.92622e-06
4.80096e-05
3.99036e-06
4.74082e-05
4.82704e-06
4.70503e-05
5.46714e-06
4.68138e-05
6.05172e-06
4.67746e-05
6.68591e-06
4.68825e-05
7.41554e-06
4.72666e-05
8.2816e-06
4.77769e-05
9.32768e-06
4.8444e-05
1.06374e-05
4.90882e-05
1.22534e-05
4.98992e-05
1.4065e-05
5.09343e-05
1.62366e-05
5.19372e-05
1.8903e-05
5.30617e-05
2.24393e-05
5.4208e-05
2.67826e-05
5.54331e-05
3.18965e-05
5.65887e-05
3.82447e-05
5.74649e-05
4.59775e-05
5.79061e-05
5.47632e-05
5.69372e-05
6.35744e-05
5.30823e-05
4.6925e-05
1.37916e-06
4.90752e-05
2.63191e-06
4.6757e-05
3.68851e-06
4.63517e-05
4.6076e-06
4.61313e-05
5.43402e-06
4.59874e-05
6.25258e-06
4.59561e-05
7.10648e-06
4.60287e-05
8.08259e-06
4.62905e-05
9.20281e-06
4.66568e-05
1.04775e-05
4.71694e-05
1.18847e-05
4.76811e-05
1.35611e-05
4.82229e-05
1.56031e-05
4.88923e-05
1.79635e-05
4.9577e-05
2.07704e-05
5.0255e-05
2.40144e-05
5.09643e-05
2.78286e-05
5.16192e-05
3.24809e-05
5.19368e-05
3.80765e-05
5.18696e-05
4.45607e-05
5.14224e-05
5.17045e-05
4.97938e-05
5.88272e-05
4.59599e-05
4.06917e-05
1.23067e-06
4.78445e-05
2.37197e-06
4.56157e-05
3.40991e-06
4.53138e-05
4.38237e-06
4.51589e-05
5.31009e-06
4.50597e-05
6.23134e-06
4.50349e-05
7.18379e-06
4.50763e-05
8.26317e-06
4.52112e-05
9.49229e-06
4.54278e-05
1.08631e-05
4.57987e-05
1.23451e-05
4.61991e-05
1.40579e-05
4.65103e-05
1.61075e-05
4.68429e-05
1.85131e-05
4.71715e-05
2.12795e-05
4.74888e-05
2.44462e-05
4.77978e-05
2.82229e-05
4.78428e-05
3.25754e-05
4.75847e-05
3.74419e-05
4.70034e-05
4.28939e-05
4.59707e-05
4.88063e-05
4.38818e-05
5.45214e-05
4.02451e-05
3.58197e-05
1.20227e-06
4.66423e-05
2.3092e-06
4.45088e-05
3.34647e-06
4.42765e-05
4.34451e-06
4.41609e-05
5.32851e-06
4.40758e-05
6.33066e-06
4.40328e-05
7.37732e-06
4.40297e-05
8.51279e-06
4.40758e-05
9.75696e-06
4.41837e-05
1.1182e-05
4.43738e-05
1.28071e-05
4.45741e-05
1.46132e-05
4.47042e-05
1.66134e-05
4.48428e-05
1.89177e-05
4.48674e-05
2.1575e-05
4.48316e-05
2.46431e-05
4.47299e-05
2.80801e-05
4.44061e-05
3.18057e-05
4.38593e-05
3.60173e-05
4.27921e-05
4.07299e-05
4.12584e-05
4.56703e-05
3.89418e-05
5.02042e-05
3.57115e-05
3.17925e-05
1.13696e-06
4.55054e-05
2.20664e-06
4.34392e-05
3.24673e-06
4.32365e-05
4.25777e-06
4.31499e-05
5.26541e-06
4.30682e-05
6.30494e-06
4.29933e-05
7.39366e-06
4.29411e-05
8.55501e-06
4.29146e-05
9.81819e-06
4.29206e-05
1.12484e-05
4.29436e-05
1.2884e-05
4.29386e-05
1.4688e-05
4.29004e-05
1.67209e-05
4.281e-05
1.89049e-05
4.26835e-05
2.12856e-05
4.24511e-05
2.40583e-05
4.19574e-05
2.71632e-05
4.13014e-05
3.06985e-05
4.03243e-05
3.45241e-05
3.89668e-05
3.85725e-05
3.72103e-05
4.25659e-05
3.49487e-05
4.63483e-05
3.19293e-05
2.82664e-05
1.09509e-06
4.44103e-05
2.13835e-06
4.2396e-05
3.17687e-06
4.2198e-05
4.2192e-06
4.21076e-05
5.26961e-06
4.20178e-05
6.33845e-06
4.19246e-05
7.45693e-06
4.18227e-05
8.65042e-06
4.17211e-05
9.94702e-06
4.1624e-05
1.1354e-05
4.15367e-05
1.2864e-05
4.14286e-05
1.45169e-05
4.12476e-05
1.63955e-05
4.09315e-05
1.85133e-05
4.05658e-05
2.09585e-05
4.0006e-05
2.35942e-05
3.93218e-05
2.64482e-05
3.84477e-05
2.94828e-05
3.72899e-05
3.26238e-05
3.58261e-05
3.59725e-05
3.38618e-05
3.94752e-05
3.14463e-05
4.28464e-05
2.85584e-05
2.52536e-05
1.05241e-06
4.3358e-05
2.05983e-06
4.13886e-05
3.06918e-06
4.11887e-05
4.08481e-06
4.1092e-05
5.11854e-06
4.09842e-05
6.18097e-06
4.08622e-05
7.2881e-06
4.07156e-05
8.45824e-06
4.0551e-05
9.72142e-06
4.03609e-05
1.11245e-05
4.01337e-05
1.26795e-05
3.98737e-05
1.43813e-05
3.95458e-05
1.61951e-05
3.91178e-05
1.81667e-05
3.85942e-05
2.02527e-05
3.79202e-05
2.25227e-05
3.70519e-05
2.50399e-05
3.59307e-05
2.7757e-05
3.45731e-05
3.06945e-05
3.28888e-05
3.36925e-05
3.08639e-05
3.66146e-05
2.85245e-05
3.94358e-05
2.57373e-05
2.2549e-05
1.03039e-06
4.23276e-05
2.0269e-06
4.03921e-05
3.02566e-06
4.019e-05
4.03189e-06
4.00858e-05
5.05702e-06
3.99591e-05
6.116e-06
3.98032e-05
7.21509e-06
3.96165e-05
8.36893e-06
3.93972e-05
9.59489e-06
3.9135e-05
1.09023e-05
3.88264e-05
1.23045e-05
3.84716e-05
1.38299e-05
3.80205e-05
1.54883e-05
3.74594e-05
1.73076e-05
3.6775e-05
1.93048e-05
3.5923e-05
2.1509e-05
3.48478e-05
2.38246e-05
3.36153e-05
2.62466e-05
3.21513e-05
2.86988e-05
3.04369e-05
3.11871e-05
2.83758e-05
3.37457e-05
2.5966e-05
3.62547e-05
2.32284e-05
2.01897e-05
9.7666e-07
4.1351e-05
1.92247e-06
3.94464e-05
2.87935e-06
3.92331e-05
3.8491e-06
3.91161e-05
4.839e-06
3.89692e-05
5.86206e-06
3.87802e-05
6.92674e-06
3.85519e-05
8.04466e-06
3.82794e-05
9.22624e-06
3.79535e-05
1.0489e-05
3.75636e-05
1.18678e-05
3.70929e-05
1.3346e-05
3.65424e-05
1.49272e-05
3.58783e-05
1.66212e-05
3.50812e-05
1.84197e-05
3.41246e-05
2.02901e-05
3.29775e-05
2.22682e-05
3.16373e-05
2.4356e-05
3.00636e-05
2.6557e-05
2.8236e-05
2.88006e-05
2.61325e-05
3.10109e-05
2.3756e-05
3.31645e-05
2.10749e-05
1.81125e-05
9.48576e-07
4.04024e-05
1.87146e-06
3.85235e-05
2.80638e-06
3.82982e-05
3.74942e-06
3.81731e-05
4.70914e-06
3.80095e-05
5.69023e-06
3.77992e-05
6.70112e-06
3.7541e-05
7.75287e-06
3.72276e-05
8.8579e-06
3.68485e-05
1.0028e-05
3.63936e-05
1.127e-05
3.5851e-05
1.25962e-05
3.52162e-05
1.40196e-05
3.44549e-05
1.55484e-05
3.35524e-05
1.7176e-05
3.24971e-05
1.89023e-05
3.12514e-05
2.07186e-05
2.98211e-05
2.2577e-05
2.82054e-05
2.4467e-05
2.63462e-05
2.6372e-05
2.42276e-05
2.82862e-05
2.18419e-05
3.01655e-05
1.91958e-05
1.63055e-05
8.91916e-07
3.95105e-05
1.76961e-06
3.76458e-05
2.6595e-06
3.74084e-05
3.55694e-06
3.72757e-05
4.46886e-06
3.70976e-05
5.39909e-06
3.6869e-05
6.35553e-06
3.65846e-05
7.34838e-06
3.62348e-05
8.38442e-06
3.58125e-05
9.47526e-06
3.53028e-05
1.06259e-05
3.47004e-05
1.18523e-05
3.39898e-05
1.31524e-05
3.31549e-05
1.45235e-05
3.21813e-05
1.5965e-05
3.10557e-05
1.747e-05
2.97465e-05
1.90283e-05
2.82629e-05
2.06469e-05
2.65869e-05
2.23056e-05
2.46876e-05
2.39746e-05
2.25587e-05
2.56223e-05
2.01944e-05
2.72332e-05
1.75851e-05
1.47491e-05
8.53859e-07
3.86567e-05
1.69334e-06
3.68064e-05
2.54022e-06
3.65615e-05
3.39126e-06
3.64246e-05
4.25212e-06
3.62368e-05
5.12493e-06
3.59962e-05
6.01385e-06
3.56957e-05
6.9253e-06
3.53234e-05
7.86832e-06
3.48695e-05
8.85971e-06
3.43114e-05
9.90029e-06
3.36598e-05
1.09984e-05
3.28918e-05
1.21602e-05
3.1993e-05
1.33819e-05
3.09597e-05
1.46575e-05
2.97801e-05
1.59759e-05
2.84281e-05
1.73356e-05
2.69033e-05
1.87382e-05
2.51843e-05
2.01604e-05
2.32655e-05
2.15837e-05
2.11356e-05
2.29894e-05
1.87888e-05
2.43627e-05
1.62118e-05
1.34266e-05
8.0743e-07
3.78493e-05
1.60031e-06
3.60135e-05
2.39957e-06
3.57623e-05
3.19677e-06
3.56275e-05
4.00009e-06
3.54335e-05
4.81423e-06
3.51821e-05
5.64372e-06
3.48663e-05
6.4924e-06
3.44747e-05
7.36095e-06
3.4001e-05
8.24975e-06
3.34226e-05
9.16692e-06
3.27427e-05
1.01181e-05
3.19406e-05
1.11158e-05
3.09954e-05
1.21651e-05
2.99105e-05
1.32706e-05
2.86747e-05
1.44211e-05
2.72776e-05
1.56063e-05
2.57182e-05
1.68042e-05
2.39865e-05
1.8007e-05
2.20628e-05
1.92103e-05
1.99324e-05
2.03965e-05
1.76027e-05
2.15446e-05
1.50639e-05
1.23233e-05
7.64455e-07
3.70849e-05
1.49282e-06
3.52852e-05
2.22703e-06
3.50281e-05
2.96086e-06
3.48936e-05
3.70311e-06
3.46913e-05
4.45982e-06
3.44254e-05
5.23429e-06
3.40918e-05
6.02135e-06
3.36877e-05
6.82312e-06
3.31992e-05
7.62854e-06
3.26172e-05
8.44737e-06
3.19239e-05
9.28422e-06
3.11038e-05
1.01399e-05
3.01398e-05
1.10172e-05
2.90332e-05
1.1921e-05
2.77709e-05
1.28525e-05
2.63462e-05
1.38217e-05
2.47491e-05
1.48339e-05
2.29744e-05
1.58595e-05
2.10373e-05
1.68635e-05
1.89285e-05
1.78392e-05
1.66271e-05
1.87788e-05
1.41244e-05
1.1428e-05
7.25358e-07
3.63595e-05
1.37474e-06
3.46358e-05
2.02422e-06
3.43787e-05
2.6787e-06
3.42392e-05
3.3427e-06
3.40273e-05
4.02034e-06
3.37477e-05
4.72036e-06
3.33918e-05
5.43662e-06
3.29715e-05
6.16765e-06
3.24682e-05
6.90704e-06
3.18779e-05
7.6529e-06
3.1178e-05
8.40167e-06
3.0355e-05
9.14544e-06
2.9396e-05
9.88835e-06
2.82903e-05
1.0634e-05
2.70253e-05
1.13875e-05
2.55927e-05
1.21486e-05
2.39881e-05
1.29142e-05
2.22088e-05
1.36972e-05
2.02545e-05
1.45108e-05
1.81149e-05
1.53133e-05
1.58247e-05
1.60635e-05
1.33743e-05
1.07304e-05
6.69471e-07
3.569e-05
1.19566e-06
3.41096e-05
1.72292e-06
3.38514e-05
2.26289e-06
3.36992e-05
2.81514e-06
3.3475e-05
3.38538e-06
3.31775e-05
3.97847e-06
3.27988e-05
4.59968e-06
3.23503e-05
5.24601e-06
3.18219e-05
5.91168e-06
3.12122e-05
6.58227e-06
3.05075e-05
7.24418e-06
2.96931e-05
7.90538e-06
2.87348e-05
8.57557e-06
2.76201e-05
9.23794e-06
2.63629e-05
9.89065e-06
2.49401e-05
1.05205e-05
2.33582e-05
1.11192e-05
2.16102e-05
1.16986e-05
1.96751e-05
1.22557e-05
1.75579e-05
1.28116e-05
1.52689e-05
1.33786e-05
1.28074e-05
1.0208e-05
5.69816e-07
3.51202e-05
9.09505e-07
3.37699e-05
1.23575e-06
3.35252e-05
1.60014e-06
3.33348e-05
1.99368e-06
3.30815e-05
2.41293e-06
3.27583e-05
2.86435e-06
3.23474e-05
3.36189e-06
3.18527e-05
3.90744e-06
3.12764e-05
4.50063e-06
3.0619e-05
5.13139e-06
2.98767e-05
5.7807e-06
2.90438e-05
6.42046e-06
2.80951e-05
7.03814e-06
2.70024e-05
7.6149e-06
2.57862e-05
8.15864e-06
2.43963e-05
8.68967e-06
2.28272e-05
9.2117e-06
2.10882e-05
9.6994e-06
1.91875e-05
1.01248e-05
1.71326e-05
1.04871e-05
1.49066e-05
1.08047e-05
1.24899e-05
9.90536e-06
3.67435e-07
3.47528e-05
4.63646e-07
3.36737e-05
5.39514e-07
3.34493e-05
6.57779e-07
3.32166e-05
8.1382e-07
3.29255e-05
1.01623e-06
3.25559e-05
1.25637e-06
3.21072e-05
1.53783e-06
3.15713e-05
1.87759e-06
3.09366e-05
2.28888e-06
3.02078e-05
2.77017e-06
2.93955e-05
3.32762e-06
2.84864e-05
3.95021e-06
2.74725e-05
4.60612e-06
2.63465e-05
5.28425e-06
2.5108e-05
5.93993e-06
2.37407e-05
6.5361e-06
2.22311e-05
7.04507e-06
2.05793e-05
7.47819e-06
1.87545e-05
7.85556e-06
1.67553e-05
8.15527e-06
1.4607e-05
8.34238e-06
1.23028e-05
9.82798e-06
1.50286e-07
3.46025e-05
-5.34182e-08
3.38774e-05
-2.76672e-07
3.36726e-05
-4.48574e-07
3.33885e-05
-5.63491e-07
3.30404e-05
-6.10276e-07
3.26026e-05
-5.88247e-07
3.20852e-05
-4.93284e-07
3.14763e-05
-3.2676e-07
3.07701e-05
-9.02593e-08
2.99713e-05
2.24308e-07
2.90809e-05
6.15221e-07
2.80955e-05
1.0773e-06
2.70104e-05
1.60784e-06
2.5816e-05
2.20101e-06
2.45149e-05
2.8374e-06
2.31043e-05
3.49269e-06
2.15759e-05
4.13464e-06
1.99375e-05
4.71791e-06
1.81713e-05
5.19056e-06
1.62827e-05
5.52398e-06
1.42736e-05
5.71176e-06
1.21151e-05
9.76489e-06
-4.0122e-08
3.46427e-05
-4.28107e-07
3.42654e-05
-8.09501e-07
3.4054e-05
-1.14626e-06
3.37252e-05
-1.42814e-06
3.33223e-05
-1.65189e-06
3.28264e-05
-1.8117e-06
3.2245e-05
-1.90409e-06
3.15687e-05
-1.9299e-06
3.07959e-05
-1.88261e-06
2.9924e-05
-1.75606e-06
2.89543e-05
-1.54948e-06
2.78889e-05
-1.26594e-06
2.67269e-05
-9.16032e-07
2.54661e-05
-5.03422e-07
2.41023e-05
-3.90145e-08
2.264e-05
4.83649e-07
2.10533e-05
1.03975e-06
1.93815e-05
1.6052e-06
1.76059e-05
2.14865e-06
1.57393e-05
2.62529e-06
1.3797e-05
2.96617e-06
1.17742e-05
9.61735e-06
-2.22774e-07
-7.43512e-07
-1.25518e-06
-1.7453e-06
-2.21397e-06
-2.64909e-06
-3.0304e-06
-3.35022e-06
-3.60573e-06
-3.79677e-06
-3.9196e-06
-3.96902e-06
-3.94278e-06
-3.84296e-06
-3.66445e-06
-3.41169e-06
-3.10992e-06
-2.74961e-06
-2.35595e-06
-1.94483e-06
-1.5328e-06
-1.15662e-06
)
;

boundaryField
{
    leftWall
    {
        type            fixedValue;
        value           uniform 0;
    }
    rightWall
    {
        type            fixedValue;
        value           nonuniform 0();
    }
    lowerWall
    {
        type            fixedValue;
        value           nonuniform 0();
    }
    atmosphere
    {
        type            calculated;
        value           nonuniform List<scalar> 
23
(
3.48654e-05
3.47862e-05
3.45656e-05
3.42154e-05
3.3791e-05
3.32615e-05
3.26263e-05
3.18886e-05
3.10514e-05
3.0115e-05
2.90772e-05
2.79383e-05
2.67007e-05
2.53663e-05
2.39238e-05
2.23873e-05
2.07516e-05
1.90212e-05
1.72123e-05
1.53282e-05
1.3385e-05
1.13981e-05
9.34961e-06
)
;
    }
    defaultFaces
    {
        type            empty;
        value           nonuniform 0();
    }
    procBoundary2to0
    {
        type            processor;
        value           nonuniform List<scalar> 
24
(
-7.26972e-05
-8.37138e-05
-9.87381e-05
-0.000115257
-0.000137253
-0.000149772
-0.000134211
-5.94097e-05
-5.55479e-05
-5.13456e-05
-4.89558e-05
-4.73605e-05
-4.69263e-05
-4.70068e-05
-4.83729e-05
-4.98161e-05
-5.24782e-05
-5.48999e-05
-5.646e-05
-5.76256e-05
-5.91813e-05
-6.13364e-05
-8.00545e-06
-6.48655e-05
)
;
    }
    procBoundary2to3
    {
        type            processor;
        value           nonuniform List<scalar> 
25
(
0.000137057
0.000109892
9.21534e-05
7.99565e-05
7.17843e-05
6.50608e-05
5.93936e-05
5.42317e-05
4.98746e-05
4.58593e-05
4.21406e-05
3.86141e-05
3.52418e-05
3.19726e-05
2.87896e-05
2.56853e-05
2.26479e-05
1.96742e-05
1.6761e-05
1.3901e-05
1.11073e-05
8.41975e-06
5.77486e-06
3.11376e-06
-8.88864e-07
)
;
    }
}


// ************************************************************************* //
