/*--------------------------------*- C++ -*----------------------------------*\
| =========                 |                                                 |
| \\      /  F ield         | OpenFOAM: The Open Source CFD Toolbox           |
|  \\    /   O peration     | Version:  2.4.0                                 |
|   \\  /    A nd           | Web:      www.OpenFOAM.org                      |
|    \\/     M anipulation  |                                                 |
\*---------------------------------------------------------------------------*/
FoamFile
{
    version     2.0;
    format      ascii;
    class       surfaceScalarField;
    location    "0.8";
    object      phi.air;
}
// * * * * * * * * * * * * * * * * * * * * * * * * * * * * * * * * * * * * * //

dimensions      [0 3 -1 0 0 0 0];

internalField   nonuniform List<scalar> 
1070
(
1.00724e-05
7.06394e-05
1.5166e-05
7.86305e-05
2.52498e-05
8.8665e-05
4.18404e-05
9.86753e-05
6.88267e-05
0.000110268
0.000105269
0.000113318
0.000102406
3.19937e-06
5.62138e-05
5.738e-06
5.30128e-05
6.6567e-06
5.04305e-05
6.695e-06
4.89212e-05
6.1857e-06
4.78736e-05
5.6215e-06
4.74945e-05
5.03665e-06
4.75959e-05
4.89954e-06
4.85145e-05
5.08208e-06
4.96384e-05
6.04455e-06
5.15209e-05
7.58789e-06
5.33621e-05
9.19549e-06
5.48584e-05
1.06304e-05
5.61972e-05
1.18272e-05
5.79916e-05
1.30464e-05
6.01246e-05
1.44858e-05
6.34345e-05
1.734e-05
6.77852e-05
2.29431e-05
7.30274e-05
3.21879e-05
7.94202e-05
4.5242e-05
8.56213e-05
6.467e-05
9.08401e-05
8.86647e-05
8.9323e-05
8.11738e-05
2.34864e-06
5.38652e-05
4.37329e-06
5.09881e-05
5.35809e-06
4.94457e-05
5.73686e-06
4.85424e-05
5.72704e-06
4.78834e-05
5.59313e-06
4.76284e-05
5.43782e-06
4.77512e-05
5.56139e-06
4.83909e-05
5.98268e-06
4.92171e-05
7.05656e-06
5.04471e-05
8.64696e-06
5.17717e-05
1.0367e-05
5.31383e-05
1.2091e-05
5.44732e-05
1.38897e-05
5.6193e-05
1.57763e-05
5.8238e-05
1.81325e-05
6.10783e-05
2.1911e-05
6.40067e-05
2.78064e-05
6.71319e-05
3.61793e-05
7.10473e-05
4.70192e-05
7.47814e-05
6.11641e-05
7.66952e-05
7.7137e-05
7.33501e-05
6.61525e-05
1.87055e-06
5.19946e-05
3.45599e-06
4.94027e-05
4.42574e-06
4.8476e-05
5.07743e-06
4.78907e-05
5.50318e-06
4.74577e-05
5.76849e-06
4.73631e-05
5.99889e-06
4.75208e-05
6.38934e-06
4.80005e-05
6.95892e-06
4.86475e-05
7.91116e-06
4.94948e-05
9.27997e-06
5.04029e-05
1.0898e-05
5.15203e-05
1.26198e-05
5.27514e-05
1.4698e-05
5.41147e-05
1.72019e-05
5.57341e-05
2.05294e-05
5.77508e-05
2.47531e-05
5.9783e-05
3.01756e-05
6.17095e-05
3.74027e-05
6.38202e-05
4.65378e-05
6.56462e-05
5.75026e-05
6.57304e-05
6.89517e-05
6.19011e-05
5.51426e-05
1.53674e-06
5.04579e-05
2.92614e-06
4.80133e-05
3.99023e-06
4.74119e-05
4.82689e-06
4.7054e-05
5.46697e-06
4.68176e-05
6.05155e-06
4.67786e-05
6.68575e-06
4.68866e-05
7.41542e-06
4.72708e-05
8.28154e-06
4.77814e-05
9.32771e-06
4.84487e-05
1.06376e-05
4.9093e-05
1.22537e-05
4.99042e-05
1.40655e-05
5.09396e-05
1.62374e-05
5.19428e-05
1.8904e-05
5.30675e-05
2.24407e-05
5.42141e-05
2.67843e-05
5.54394e-05
3.18985e-05
5.65952e-05
3.82471e-05
5.74716e-05
4.59805e-05
5.79129e-05
5.47667e-05
5.69442e-05
6.35786e-05
5.30892e-05
4.69319e-05
1.37914e-06
4.90787e-05
2.63187e-06
4.67605e-05
3.68846e-06
4.63553e-05
4.60754e-06
4.61349e-05
5.43397e-06
4.59912e-05
6.25255e-06
4.596e-05
7.10648e-06
4.60327e-05
8.08265e-06
4.62947e-05
9.20295e-06
4.66611e-05
1.04777e-05
4.71739e-05
1.18851e-05
4.76857e-05
1.35616e-05
4.82277e-05
1.56039e-05
4.88973e-05
1.79645e-05
4.95822e-05
2.07717e-05
5.02604e-05
2.4016e-05
5.09698e-05
2.78305e-05
5.16249e-05
3.24831e-05
5.19427e-05
3.80791e-05
5.18756e-05
4.45637e-05
5.14284e-05
5.1708e-05
4.97998e-05
5.88313e-05
4.59659e-05
4.06976e-05
1.23067e-06
4.7848e-05
2.37197e-06
4.56192e-05
3.40992e-06
4.53173e-05
4.38239e-06
4.51625e-05
5.31014e-06
4.50634e-05
6.23143e-06
4.50387e-05
7.18393e-06
4.50802e-05
8.26338e-06
4.52152e-05
9.49259e-06
4.54319e-05
1.08635e-05
4.58029e-05
1.23457e-05
4.62035e-05
1.40587e-05
4.65147e-05
1.61085e-05
4.68475e-05
1.85143e-05
4.71763e-05
2.1281e-05
4.74937e-05
2.4448e-05
4.78028e-05
2.82249e-05
4.78479e-05
3.25777e-05
4.75899e-05
3.74446e-05
4.70087e-05
4.2897e-05
4.5976e-05
4.88098e-05
4.3887e-05
5.45254e-05
4.02503e-05
3.58247e-05
1.20229e-06
4.66458e-05
2.30923e-06
4.45123e-05
3.34652e-06
4.428e-05
4.3446e-06
4.41644e-05
5.32864e-06
4.40794e-05
6.33084e-06
4.40365e-05
7.37757e-06
4.40335e-05
8.51312e-06
4.40796e-05
9.75739e-06
4.41876e-05
1.11825e-05
4.43778e-05
1.28078e-05
4.45782e-05
1.46141e-05
4.47084e-05
1.66145e-05
4.48471e-05
1.8919e-05
4.48718e-05
2.15766e-05
4.48361e-05
2.46449e-05
4.47345e-05
2.80822e-05
4.44107e-05
3.18081e-05
4.3864e-05
3.602e-05
4.27968e-05
4.07329e-05
4.1263e-05
4.56737e-05
3.89463e-05
5.0208e-05
3.57159e-05
3.17967e-05
1.13699e-06
4.55088e-05
2.2067e-06
4.34426e-05
3.24683e-06
4.32399e-05
4.25791e-06
4.31533e-05
5.2656e-06
4.30717e-05
6.3052e-06
4.29969e-05
7.39399e-06
4.29447e-05
8.55543e-06
4.29182e-05
9.81873e-06
4.29243e-05
1.12491e-05
4.29474e-05
1.28849e-05
4.29425e-05
1.4689e-05
4.29043e-05
1.67221e-05
4.28139e-05
1.89063e-05
4.26876e-05
2.12872e-05
4.24552e-05
2.40602e-05
4.19615e-05
2.71653e-05
4.13056e-05
3.07008e-05
4.03285e-05
3.45267e-05
3.89709e-05
3.85755e-05
3.72143e-05
4.25691e-05
3.49526e-05
4.6352e-05
3.19331e-05
2.827e-05
1.09513e-06
4.44136e-05
2.13843e-06
4.23993e-05
3.17699e-06
4.22013e-05
4.21938e-06
4.21109e-05
5.26985e-06
4.20212e-05
6.33876e-06
4.19279e-05
7.45732e-06
4.18261e-05
8.65092e-06
4.17246e-05
9.94762e-06
4.16276e-05
1.13547e-05
4.15403e-05
1.28649e-05
4.14322e-05
1.4518e-05
4.12512e-05
1.63968e-05
4.09352e-05
1.85148e-05
4.05695e-05
2.09602e-05
4.00098e-05
2.35962e-05
3.93255e-05
2.64503e-05
3.84514e-05
2.94852e-05
3.72936e-05
3.26263e-05
3.58297e-05
3.59754e-05
3.38653e-05
3.94783e-05
3.14497e-05
4.28498e-05
2.85616e-05
2.52566e-05
1.05246e-06
4.33612e-05
2.05993e-06
4.13918e-05
3.06933e-06
4.11919e-05
4.08502e-06
4.10952e-05
5.11881e-06
4.09874e-05
6.18133e-06
4.08654e-05
7.28853e-06
4.07189e-05
8.45878e-06
4.05544e-05
9.72208e-06
4.03643e-05
1.11253e-05
4.01371e-05
1.26804e-05
3.98771e-05
1.43824e-05
3.95493e-05
1.61964e-05
3.91212e-05
1.81682e-05
3.85977e-05
2.02544e-05
3.79236e-05
2.25246e-05
3.70552e-05
2.5042e-05
3.5934e-05
2.77592e-05
3.45764e-05
3.06969e-05
3.2892e-05
3.36952e-05
3.0867e-05
3.66175e-05
2.85274e-05
3.94391e-05
2.574e-05
2.25515e-05
1.03045e-06
4.23307e-05
2.027e-06
4.03952e-05
3.02582e-06
4.01931e-05
4.03212e-06
4.00889e-05
5.05732e-06
3.99622e-05
6.11637e-06
3.98064e-05
7.21556e-06
3.96197e-05
8.3695e-06
3.94004e-05
9.59557e-06
3.91382e-05
1.09031e-05
3.88296e-05
1.23054e-05
3.84748e-05
1.3831e-05
3.80237e-05
1.54896e-05
3.74626e-05
1.73091e-05
3.67782e-05
1.93065e-05
3.59261e-05
2.15109e-05
3.48509e-05
2.38266e-05
3.36182e-05
2.62488e-05
3.21542e-05
2.87011e-05
3.04397e-05
3.11896e-05
2.83785e-05
3.37484e-05
2.59685e-05
3.62577e-05
2.32307e-05
2.01918e-05
9.76717e-07
4.1354e-05
1.92258e-06
3.94494e-05
2.87953e-06
3.92362e-05
3.84935e-06
3.91191e-05
4.83931e-06
3.89722e-05
5.86245e-06
3.87832e-05
6.92722e-06
3.85549e-05
8.04524e-06
3.82824e-05
9.22692e-06
3.79565e-05
1.04898e-05
3.75666e-05
1.18687e-05
3.70959e-05
1.33471e-05
3.65453e-05
1.49285e-05
3.58812e-05
1.66226e-05
3.50841e-05
1.84213e-05
3.41274e-05
2.02918e-05
3.29803e-05
2.22701e-05
3.16399e-05
2.43581e-05
3.00662e-05
2.65593e-05
2.82385e-05
2.8803e-05
2.61347e-05
3.10135e-05
2.37581e-05
3.31673e-05
2.10768e-05
1.81142e-05
9.48634e-07
4.04053e-05
1.87158e-06
3.85264e-05
2.80656e-06
3.83012e-05
3.74966e-06
3.8176e-05
4.70946e-06
3.80124e-05
5.69062e-06
3.78021e-05
6.7016e-06
3.75439e-05
7.75345e-06
3.72305e-05
8.85858e-06
3.68514e-05
1.00288e-05
3.63964e-05
1.12709e-05
3.58538e-05
1.25973e-05
3.5219e-05
1.40208e-05
3.44576e-05
1.55498e-05
3.35551e-05
1.71775e-05
3.24997e-05
1.89039e-05
3.12539e-05
2.07204e-05
2.98235e-05
2.25789e-05
2.82077e-05
2.44691e-05
2.63483e-05
2.63742e-05
2.42296e-05
2.82886e-05
2.18437e-05
3.0168e-05
1.91974e-05
1.63069e-05
8.91974e-07
3.95134e-05
1.76973e-06
3.76487e-05
2.65968e-06
3.74112e-05
3.55718e-06
3.72785e-05
4.46917e-06
3.71004e-05
5.39948e-06
3.68718e-05
6.356e-06
3.65874e-05
7.34893e-06
3.62376e-05
8.38508e-06
3.58152e-05
9.47602e-06
3.53055e-05
1.06268e-05
3.4703e-05
1.18533e-05
3.39924e-05
1.31535e-05
3.31574e-05
1.45248e-05
3.21838e-05
1.59664e-05
3.1058e-05
1.74715e-05
2.97487e-05
1.903e-05
2.82651e-05
2.06487e-05
2.65889e-05
2.23076e-05
2.46895e-05
2.39767e-05
2.25604e-05
2.56245e-05
2.01959e-05
2.72355e-05
1.75864e-05
1.47502e-05
8.53915e-07
3.86595e-05
1.69346e-06
3.68091e-05
2.54039e-06
3.65643e-05
3.39149e-06
3.64274e-05
4.25242e-06
3.62395e-05
5.1253e-06
3.59989e-05
6.0143e-06
3.56984e-05
6.92583e-06
3.53261e-05
7.86894e-06
3.48721e-05
8.86043e-06
3.4314e-05
9.90112e-06
3.36623e-05
1.09993e-05
3.28942e-05
1.21613e-05
3.19954e-05
1.33831e-05
3.0962e-05
1.46588e-05
2.97823e-05
1.59774e-05
2.84302e-05
1.73371e-05
2.69053e-05
1.87399e-05
2.51861e-05
2.01622e-05
2.32671e-05
2.15856e-05
2.11371e-05
2.29914e-05
1.87901e-05
2.43649e-05
1.62129e-05
1.34275e-05
8.07483e-07
3.7852e-05
1.60042e-06
3.60162e-05
2.39973e-06
3.5765e-05
3.19699e-06
3.56301e-05
4.00037e-06
3.54361e-05
4.81458e-06
3.51847e-05
5.64414e-06
3.48689e-05
6.4929e-06
3.44773e-05
7.36153e-06
3.40035e-05
8.25042e-06
3.34251e-05
9.16769e-06
3.27451e-05
1.0119e-05
3.19429e-05
1.11168e-05
3.09976e-05
1.21662e-05
2.99126e-05
1.32718e-05
2.86767e-05
1.44224e-05
2.72795e-05
1.56077e-05
2.572e-05
1.68057e-05
2.39881e-05
1.80086e-05
2.20643e-05
1.9212e-05
1.99337e-05
2.03983e-05
1.76038e-05
2.15465e-05
1.50648e-05
1.2324e-05
7.64504e-07
3.70875e-05
1.49292e-06
3.52878e-05
2.22718e-06
3.50307e-05
2.96106e-06
3.48962e-05
3.70337e-06
3.46938e-05
4.46014e-06
3.44279e-05
5.23467e-06
3.40943e-05
6.0218e-06
3.36902e-05
6.82365e-06
3.32016e-05
7.62915e-06
3.26196e-05
8.44806e-06
3.19262e-05
9.285e-06
3.1106e-05
1.01407e-05
3.01419e-05
1.10182e-05
2.90352e-05
1.19221e-05
2.77728e-05
1.28537e-05
2.6348e-05
1.3823e-05
2.47507e-05
1.48353e-05
2.29758e-05
1.58609e-05
2.10386e-05
1.6865e-05
1.89296e-05
1.78408e-05
1.6628e-05
1.87804e-05
1.41252e-05
1.14284e-05
7.25402e-07
3.6362e-05
1.37483e-06
3.46383e-05
2.02435e-06
3.43812e-05
2.67888e-06
3.42417e-05
3.34293e-06
3.40298e-05
4.02063e-06
3.37502e-05
4.7207e-06
3.33943e-05
5.43702e-06
3.29738e-05
6.16812e-06
3.24705e-05
6.90757e-06
3.18801e-05
7.65351e-06
3.11802e-05
8.40236e-06
3.03571e-05
9.14621e-06
2.9398e-05
9.88921e-06
2.82922e-05
1.06349e-05
2.7027e-05
1.13885e-05
2.55944e-05
1.21497e-05
2.39895e-05
1.29154e-05
2.22102e-05
1.36984e-05
2.02556e-05
1.45121e-05
1.81159e-05
1.53147e-05
1.58255e-05
1.60649e-05
1.33749e-05
1.07308e-05
6.6951e-07
3.56925e-05
1.19574e-06
3.41121e-05
1.72303e-06
3.38539e-05
2.26305e-06
3.37017e-05
2.81534e-06
3.34775e-05
3.38563e-06
3.31799e-05
3.97877e-06
3.28011e-05
4.60003e-06
3.23526e-05
5.24642e-06
3.18241e-05
5.91215e-06
3.12144e-05
6.5828e-06
3.05096e-05
7.24477e-06
2.96951e-05
7.90605e-06
2.87368e-05
8.57631e-06
2.76219e-05
9.23876e-06
2.63646e-05
9.89154e-06
2.49416e-05
1.05215e-05
2.33596e-05
1.11203e-05
2.16114e-05
1.16997e-05
1.96762e-05
1.22568e-05
1.75588e-05
1.28127e-05
1.52695e-05
1.33798e-05
1.28078e-05
1.02082e-05
5.69848e-07
3.51227e-05
9.0957e-07
3.37724e-05
1.23585e-06
3.35276e-05
1.60028e-06
3.33372e-05
1.99385e-06
3.30839e-05
2.41314e-06
3.27606e-05
2.8646e-06
3.23497e-05
3.36218e-06
3.1855e-05
3.90778e-06
3.12785e-05
4.50102e-06
3.06212e-05
5.13183e-06
2.98788e-05
5.78119e-06
2.90458e-05
6.421e-06
2.80969e-05
7.03876e-06
2.70042e-05
7.61557e-06
2.57878e-05
8.15939e-06
2.43978e-05
8.69045e-06
2.28285e-05
9.21253e-06
2.10894e-05
9.70026e-06
1.91885e-05
1.01257e-05
1.71333e-05
1.04881e-05
1.49072e-05
1.08057e-05
1.24902e-05
9.90549e-06
3.67461e-07
3.47552e-05
4.63698e-07
3.36761e-05
5.39592e-07
3.34517e-05
6.57885e-07
3.32189e-05
8.13955e-07
3.29278e-05
1.01639e-06
3.25582e-05
1.25657e-06
3.21095e-05
1.53806e-06
3.15735e-05
1.87785e-06
3.09387e-05
2.28919e-06
3.02098e-05
2.77051e-06
2.93974e-05
3.32801e-06
2.84883e-05
3.95064e-06
2.74743e-05
4.6066e-06
2.63482e-05
5.2848e-06
2.51096e-05
5.94051e-06
2.37421e-05
6.53672e-06
2.22323e-05
7.04572e-06
2.05804e-05
7.47886e-06
1.87554e-05
7.85626e-06
1.6756e-05
8.156e-06
1.46075e-05
8.34315e-06
1.23031e-05
9.82805e-06
1.50305e-07
3.46049e-05
-5.33803e-08
3.38798e-05
-2.76615e-07
3.36749e-05
-4.48497e-07
3.33908e-05
-5.63393e-07
3.30427e-05
-6.10156e-07
3.26049e-05
-5.88104e-07
3.20874e-05
-4.93117e-07
3.14785e-05
-3.26568e-07
3.07722e-05
-9.00398e-08
2.99733e-05
2.24556e-07
2.90828e-05
6.155e-07
2.80973e-05
1.07761e-06
2.70122e-05
1.60821e-06
2.58176e-05
2.20141e-06
2.45164e-05
2.83784e-06
2.31057e-05
3.49314e-06
2.15771e-05
4.1351e-06
1.99385e-05
4.71839e-06
1.81721e-05
5.19104e-06
1.62833e-05
5.5245e-06
1.4274e-05
5.7123e-06
1.21153e-05
9.76491e-06
-4.011e-08
3.4645e-05
-4.28083e-07
3.42678e-05
-8.09466e-07
3.40563e-05
-1.14621e-06
3.37276e-05
-1.42808e-06
3.33246e-05
-1.65182e-06
3.28287e-05
-1.81161e-06
3.22472e-05
-1.90399e-06
3.15709e-05
-1.92978e-06
3.0798e-05
-1.88248e-06
2.9926e-05
-1.7559e-06
2.89563e-05
-1.54931e-06
2.78907e-05
-1.26574e-06
2.67286e-05
-9.15811e-07
2.54677e-05
-5.0317e-07
2.41038e-05
-3.87478e-08
2.26413e-05
4.83924e-07
2.10544e-05
1.04003e-06
1.93824e-05
1.60548e-06
1.76067e-05
2.14894e-06
1.57399e-05
2.62559e-06
1.37974e-05
2.9665e-06
1.17744e-05
9.61731e-06
-2.22769e-07
-7.43504e-07
-1.25517e-06
-1.74529e-06
-2.21395e-06
-2.64907e-06
-3.03037e-06
-3.35018e-06
-3.60569e-06
-3.79673e-06
-3.91955e-06
-3.96896e-06
-3.94271e-06
-3.84289e-06
-3.66436e-06
-3.4116e-06
-3.10983e-06
-2.74951e-06
-2.35586e-06
-1.94473e-06
-1.5327e-06
-1.15651e-06
)
;

boundaryField
{
    leftWall
    {
        type            fixedValue;
        value           uniform 0;
    }
    rightWall
    {
        type            fixedValue;
        value           nonuniform 0();
    }
    lowerWall
    {
        type            fixedValue;
        value           nonuniform 0();
    }
    atmosphere
    {
        type            calculated;
        value           nonuniform List<scalar> 
23
(
3.48678e-05
3.47885e-05
3.4568e-05
3.42177e-05
3.37933e-05
3.32638e-05
3.26285e-05
3.18907e-05
3.10535e-05
3.0117e-05
2.90791e-05
2.79402e-05
2.67024e-05
2.53679e-05
2.39252e-05
2.23885e-05
2.07527e-05
1.90221e-05
1.7213e-05
1.53288e-05
1.33854e-05
1.13982e-05
9.34953e-06
)
;
    }
    defaultFaces
    {
        type            empty;
        value           nonuniform 0();
    }
    procBoundary2to0
    {
        type            processor;
        value           nonuniform List<scalar> 
24
(
-7.27068e-05
-8.3724e-05
-9.87488e-05
-0.000115266
-0.000137254
-0.00014976
-0.000134198
-5.94132e-05
-5.55514e-05
-5.13492e-05
-4.89595e-05
-4.73643e-05
-4.69303e-05
-4.70111e-05
-4.83774e-05
-4.98209e-05
-5.24834e-05
-5.49055e-05
-5.6466e-05
-5.76321e-05
-5.91884e-05
-6.13439e-05
-8.00509e-06
-6.48738e-05
)
;
    }
    procBoundary2to3
    {
        type            processor;
        value           nonuniform List<scalar> 
25
(
0.000137062
0.000109897
9.21583e-05
7.99615e-05
7.17892e-05
6.50656e-05
5.93982e-05
5.42361e-05
4.98787e-05
4.58632e-05
4.21442e-05
3.86174e-05
3.52449e-05
3.19754e-05
2.87922e-05
2.56876e-05
2.265e-05
1.9676e-05
1.67626e-05
1.39024e-05
1.11084e-05
8.42058e-06
5.77544e-06
3.11412e-06
-8.88733e-07
)
;
    }
}


// ************************************************************************* //
