/*--------------------------------*- C++ -*----------------------------------*\
| =========                 |                                                 |
| \\      /  F ield         | OpenFOAM: The Open Source CFD Toolbox           |
|  \\    /   O peration     | Version:  2.4.0                                 |
|   \\  /    A nd           | Web:      www.OpenFOAM.org                      |
|    \\/     M anipulation  |                                                 |
\*---------------------------------------------------------------------------*/
FoamFile
{
    version     2.0;
    format      ascii;
    class       volVectorField;
    location    "0.8";
    object      U;
}
// * * * * * * * * * * * * * * * * * * * * * * * * * * * * * * * * * * * * * //

dimensions      [0 1 -1 0 0 0 0];

internalField   nonuniform List<vector> 
559
(
(0.0458851 0.384907 0)
(0.0634564 0.435304 0)
(0.102238 0.501115 0)
(0.171368 0.567454 0)
(0.289147 0.648988 0)
(0.452277 0.678801 0)
(0.661071 0.605059 0)
(0.0102959 0.310423 0)
(0.0247676 0.292208 0)
(0.0354311 0.274568 0)
(0.0364646 0.264195 0)
(0.0349348 0.257078 0)
(0.0319957 0.254651 0)
(0.0281787 0.255287 0)
(0.0263816 0.261343 0)
(0.0262527 0.26847 0)
(0.0286744 0.280521 0)
(0.0363887 0.291315 0)
(0.0454173 0.29962 0)
(0.053849 0.30704 0)
(0.0608367 0.31656 0)
(0.0667793 0.328092 0)
(0.07409 0.346649 0)
(0.0828155 0.37451 0)
(0.105017 0.410263 0)
(0.14434 0.453204 0)
(0.203195 0.494472 0)
(0.289107 0.533614 0)
(0.40505 0.530194 0)
(0.538053 0.477425 0)
(0.00700054 0.296294 0)
(0.018623 0.279927 0)
(0.027447 0.269244 0)
(0.0302014 0.263002 0)
(0.0311564 0.258545 0)
(0.0305539 0.256881 0)
(0.0294214 0.25735 0)
(0.0293593 0.261402 0)
(0.0304506 0.266467 0)
(0.0341728 0.274641 0)
(0.0417671 0.283563 0)
(0.0514632 0.291594 0)
(0.0602921 0.298913 0)
(0.0701798 0.308501 0)
(0.0795324 0.320348 0)
(0.0907808 0.337819 0)
(0.105303 0.356533 0)
(0.131522 0.377904 0)
(0.169705 0.404654 0)
(0.220375 0.430686 0)
(0.287319 0.447632 0)
(0.368071 0.430597 0)
(0.455676 0.38746 0)
(0.00552464 0.285062 0)
(0.0148133 0.270465 0)
(0.0217399 0.264233 0)
(0.0257667 0.260499 0)
(0.0285467 0.257367 0)
(0.0306485 0.256485 0)
(0.031464 0.257373 0)
(0.0332153 0.26027 0)
(0.0356042 0.264262 0)
(0.0395132 0.269498 0)
(0.0456443 0.275421 0)
(0.054503 0.282184 0)
(0.0628913 0.289103 0)
(0.0732011 0.298146 0)
(0.0852271 0.308745 0)
(0.100538 0.322194 0)
(0.120963 0.335783 0)
(0.146237 0.348293 0)
(0.179777 0.363872 0)
(0.222998 0.378254 0)
(0.278007 0.381829 0)
(0.33749 0.360912 0)
(0.399883 0.322046 0)
(0.00449704 0.276158 0)
(0.0121267 0.262646 0)
(0.0189473 0.25869 0)
(0.0238928 0.25604 0)
(0.0277935 0.254741 0)
(0.030957 0.254569 0)
(0.0342174 0.255038 0)
(0.0378332 0.257297 0)
(0.0420337 0.260255 0)
(0.0472781 0.264197 0)
(0.0532341 0.268029 0)
(0.06145 0.273109 0)
(0.0705591 0.279873 0)
(0.0810851 0.286121 0)
(0.0939751 0.293386 0)
(0.109963 0.301567 0)
(0.131885 0.310385 0)
(0.156911 0.31882 0)
(0.18703 0.326376 0)
(0.224426 0.331693 0)
(0.269618 0.328708 0)
(0.316712 0.307291 0)
(0.363404 0.27113 0)
(0.00402923 0.268345 0)
(0.0108334 0.255593 0)
(0.0172152 0.252957 0)
(0.0223837 0.251421 0)
(0.0270583 0.250507 0)
(0.031396 0.250286 0)
(0.03586 0.250814 0)
(0.0407077 0.252614 0)
(0.0463209 0.255138 0)
(0.0528219 0.258257 0)
(0.0600307 0.261352 0)
(0.0679755 0.265332 0)
(0.0781675 0.269867 0)
(0.0899091 0.274514 0)
(0.103663 0.27921 0)
(0.120105 0.283907 0)
(0.138616 0.288822 0)
(0.161139 0.293077 0)
(0.188349 0.295044 0)
(0.221267 0.294733 0)
(0.257016 0.287103 0)
(0.296649 0.266299 0)
(0.332883 0.235121 0)
(0.00352033 0.261454 0)
(0.0097252 0.249171 0)
(0.0156211 0.247291 0)
(0.0210094 0.246254 0)
(0.0260815 0.245599 0)
(0.0310433 0.245463 0)
(0.0359895 0.245816 0)
(0.0413737 0.246828 0)
(0.0475836 0.248398 0)
(0.0546047 0.251122 0)
(0.0623849 0.253628 0)
(0.0706213 0.255443 0)
(0.0807158 0.258101 0)
(0.0926838 0.261167 0)
(0.10675 0.263921 0)
(0.122297 0.266848 0)
(0.140965 0.268796 0)
(0.162631 0.268172 0)
(0.187757 0.266143 0)
(0.21469 0.261498 0)
(0.245615 0.25167 0)
(0.277252 0.230905 0)
(0.306259 0.204531 0)
(0.00341359 0.254777 0)
(0.00951887 0.243075 0)
(0.015223 0.241639 0)
(0.0207114 0.240992 0)
(0.0260069 0.240552 0)
(0.0313307 0.240404 0)
(0.0367809 0.240546 0)
(0.0426135 0.241069 0)
(0.0490206 0.241904 0)
(0.0560661 0.243201 0)
(0.0642961 0.244821 0)
(0.0735685 0.246174 0)
(0.0837182 0.247431 0)
(0.0951711 0.248154 0)
(0.108375 0.248757 0)
(0.123835 0.249668 0)
(0.141283 0.248505 0)
(0.160686 0.246621 0)
(0.181315 0.24221 0)
(0.205378 0.235652 0)
(0.231777 0.222349 0)
(0.257521 0.20347 0)
(0.280396 0.18225 0)
(0.00322197 0.248691 0)
(0.00902234 0.237372 0)
(0.0146643 0.236226 0)
(0.0202057 0.235741 0)
(0.0255914 0.235241 0)
(0.0310562 0.234803 0)
(0.0367666 0.234635 0)
(0.0427903 0.234681 0)
(0.049303 0.23495 0)
(0.0563762 0.235538 0)
(0.0646435 0.236249 0)
(0.0739745 0.236576 0)
(0.0841213 0.23689 0)
(0.095774 0.236551 0)
(0.107618 0.235972 0)
(0.121471 0.233843 0)
(0.137134 0.231332 0)
(0.15493 0.22722 0)
(0.174781 0.220184 0)
(0.196032 0.210543 0)
(0.218018 0.199004 0)
(0.238181 0.182802 0)
(0.258406 0.16115 0)
(0.00307325 0.242477 0)
(0.00871018 0.231475 0)
(0.014267 0.230348 0)
(0.0198959 0.22988 0)
(0.0254894 0.229501 0)
(0.0311635 0.229172 0)
(0.0370271 0.228809 0)
(0.0432047 0.228478 0)
(0.049876 0.228254 0)
(0.0571186 0.228145 0)
(0.0650873 0.227519 0)
(0.0733105 0.226921 0)
(0.082874 0.225746 0)
(0.0934672 0.224675 0)
(0.105696 0.222224 0)
(0.119572 0.219168 0)
(0.134156 0.215085 0)
(0.149968 0.208823 0)
(0.166827 0.20169 0)
(0.183484 0.192019 0)
(0.202341 0.178639 0)
(0.221155 0.162081 0)
(0.238169 0.144232 0)
(0.00294216 0.236886 0)
(0.0083812 0.226129 0)
(0.0137546 0.225008 0)
(0.0192417 0.22447 0)
(0.0246962 0.223914 0)
(0.0303398 0.223351 0)
(0.0361524 0.222658 0)
(0.0422451 0.22194 0)
(0.0487283 0.221171 0)
(0.0558697 0.220312 0)
(0.0637709 0.219521 0)
(0.0726352 0.218039 0)
(0.0820335 0.215894 0)
(0.0921479 0.213335 0)
(0.103098 0.210251 0)
(0.11467 0.206257 0)
(0.127478 0.200653 0)
(0.14148 0.194276 0)
(0.15666 0.185038 0)
(0.172827 0.173756 0)
(0.188867 0.161442 0)
(0.203939 0.146517 0)
(0.219022 0.128576 0)
(0.00286245 0.231105 0)
(0.00822848 0.220599 0)
(0.013546 0.219564 0)
(0.0189796 0.219051 0)
(0.0243865 0.218439 0)
(0.029998 0.217692 0)
(0.0357814 0.216789 0)
(0.0418232 0.215726 0)
(0.0481849 0.214455 0)
(0.0550069 0.212955 0)
(0.0622469 0.2112 0)
(0.0700695 0.209127 0)
(0.078603 0.206635 0)
(0.0879775 0.20334 0)
(0.0980687 0.199127 0)
(0.109426 0.193561 0)
(0.121649 0.187203 0)
(0.134331 0.179379 0)
(0.147538 0.170716 0)
(0.160575 0.16006 0)
(0.174188 0.146749 0)
(0.187935 0.131619 0)
(0.201023 0.115092 0)
(0.00271431 0.225823 0)
(0.00779596 0.215451 0)
(0.0128651 0.214321 0)
(0.0180858 0.213715 0)
(0.0233112 0.212971 0)
(0.0287225 0.212023 0)
(0.0343154 0.210911 0)
(0.0401701 0.209629 0)
(0.0463359 0.20811 0)
(0.0528793 0.206308 0)
(0.0599215 0.204118 0)
(0.0676414 0.201438 0)
(0.0758481 0.198005 0)
(0.0846361 0.193942 0)
(0.0940264 0.189 0)
(0.103886 0.183126 0)
(0.114148 0.176286 0)
(0.125035 0.168093 0)
(0.136557 0.158112 0)
(0.148578 0.146594 0)
(0.16061 0.13395 0)
(0.172216 0.119358 0)
(0.183651 0.103118 0)
(0.00261045 0.220518 0)
(0.00758935 0.210332 0)
(0.0125321 0.20915 0)
(0.0176241 0.208494 0)
(0.0227036 0.207633 0)
(0.0279237 0.206528 0)
(0.0332637 0.205178 0)
(0.0387933 0.203551 0)
(0.0445745 0.201595 0)
(0.0506693 0.19929 0)
(0.0571269 0.196563 0)
(0.064025 0.193408 0)
(0.0713898 0.1896 0)
(0.0793035 0.184974 0)
(0.0877898 0.179524 0)
(0.096768 0.172979 0)
(0.106302 0.165404 0)
(0.116214 0.156906 0)
(0.126249 0.147138 0)
(0.136456 0.135837 0)
(0.1467 0.122846 0)
(0.156921 0.108418 0)
(0.166808 0.0926884 0)
(0.00244194 0.215655 0)
(0.00715972 0.205583 0)
(0.0118637 0.204338 0)
(0.0167112 0.203649 0)
(0.0215411 0.202743 0)
(0.0264965 0.201577 0)
(0.0315532 0.200131 0)
(0.0367777 0.198351 0)
(0.0422212 0.196194 0)
(0.0479245 0.193597 0)
(0.053932 0.190504 0)
(0.0602955 0.186787 0)
(0.067088 0.182419 0)
(0.0742552 0.177359 0)
(0.0818141 0.171497 0)
(0.0897211 0.164626 0)
(0.0979429 0.156781 0)
(0.106474 0.147836 0)
(0.115253 0.137557 0)
(0.124248 0.126015 0)
(0.133157 0.113239 0)
(0.14191 0.0990653 0)
(0.150379 0.083637 0)
(0.00233712 0.210861 0)
(0.00686077 0.200772 0)
(0.0113379 0.199467 0)
(0.0159541 0.198732 0)
(0.0205165 0.197737 0)
(0.0251872 0.196468 0)
(0.0299151 0.194884 0)
(0.0347414 0.192927 0)
(0.0396974 0.190548 0)
(0.0448918 0.187666 0)
(0.050339 0.184282 0)
(0.056066 0.180341 0)
(0.0621346 0.175745 0)
(0.0685412 0.17035 0)
(0.075248 0.164096 0)
(0.0822116 0.156873 0)
(0.0894052 0.148683 0)
(0.096819 0.139498 0)
(0.104407 0.129244 0)
(0.112074 0.117772 0)
(0.119678 0.105043 0)
(0.127155 0.091051 0)
(0.134345 0.0758962 0)
(0.00218142 0.206446 0)
(0.00649363 0.196558 0)
(0.0107131 0.195232 0)
(0.0150606 0.194506 0)
(0.0193166 0.193479 0)
(0.0236749 0.192149 0)
(0.0280785 0.190454 0)
(0.0325894 0.188361 0)
(0.0371952 0.185824 0)
(0.0419122 0.18278 0)
(0.0467715 0.179123 0)
(0.0517618 0.174805 0)
(0.0569709 0.169729 0)
(0.0624668 0.163982 0)
(0.0682473 0.157544 0)
(0.0743124 0.150263 0)
(0.080615 0.141967 0)
(0.087019 0.132622 0)
(0.0934427 0.122177 0)
(0.0999196 0.110675 0)
(0.106356 0.0980652 0)
(0.112637 0.084282 0)
(0.118625 0.0693741 0)
(0.00210694 0.202109 0)
(0.00610255 0.192267 0)
(0.00994409 0.190858 0)
(0.0139645 0.190128 0)
(0.0178797 0.189074 0)
(0.0219116 0.187701 0)
(0.0260224 0.186036 0)
(0.0302293 0.183955 0)
(0.0345018 0.181362 0)
(0.0388167 0.178265 0)
(0.043177 0.174541 0)
(0.0476051 0.170099 0)
(0.0521453 0.164929 0)
(0.0567973 0.158992 0)
(0.0615872 0.15213 0)
(0.0664842 0.144375 0)
(0.0715616 0.135844 0)
(0.0768936 0.126555 0)
(0.0824246 0.11628 0)
(0.0878802 0.104832 0)
(0.0931921 0.0922623 0)
(0.0983541 0.0786404 0)
(0.103224 0.0639918 0)
(0.00205706 0.198192 0)
(0.00571848 0.188653 0)
(0.00905689 0.187315 0)
(0.0126633 0.186584 0)
(0.0161443 0.18547 0)
(0.0197551 0.184017 0)
(0.0234587 0.182154 0)
(0.0272668 0.179909 0)
(0.0311608 0.177232 0)
(0.0351147 0.174085 0)
(0.0390999 0.170363 0)
(0.0431134 0.165961 0)
(0.0471527 0.160808 0)
(0.0511287 0.154797 0)
(0.0551021 0.147949 0)
(0.0591051 0.140224 0)
(0.0632051 0.131505 0)
(0.0673021 0.121671 0)
(0.0713824 0.111047 0)
(0.0756964 0.0997757 0)
(0.0801325 0.0875364 0)
(0.0843003 0.0741478 0)
(0.0881207 0.0597177 0)
(0.00203853 0.194422 0)
(0.00510984 0.185453 0)
(0.00774698 0.184009 0)
(0.0107348 0.183242 0)
(0.0135927 0.182074 0)
(0.0166345 0.180505 0)
(0.019745 0.17851 0)
(0.0230053 0.176151 0)
(0.0264099 0.17344 0)
(0.029953 0.170241 0)
(0.0335614 0.166482 0)
(0.0371469 0.162049 0)
(0.0406789 0.15686 0)
(0.0442515 0.150917 0)
(0.0478366 0.144145 0)
(0.0513895 0.136477 0)
(0.0548674 0.127878 0)
(0.0580953 0.118398 0)
(0.0612765 0.107838 0)
(0.0643613 0.0960725 0)
(0.0672151 0.0835862 0)
(0.070348 0.0705059 0)
(0.0732761 0.0564606 0)
(0.00192683 0.19092 0)
(0.00419486 0.183 0)
(0.00558546 0.181682 0)
(0.00764682 0.180785 0)
(0.00956788 0.179493 0)
(0.011813 0.177812 0)
(0.0141129 0.175694 0)
(0.0166562 0.173133 0)
(0.0194643 0.170114 0)
(0.0225128 0.166708 0)
(0.025818 0.162886 0)
(0.0293079 0.158521 0)
(0.0327931 0.153445 0)
(0.0361741 0.14756 0)
(0.0394037 0.140835 0)
(0.0424033 0.133176 0)
(0.0452077 0.124635 0)
(0.0480736 0.115246 0)
(0.0508468 0.104934 0)
(0.0532699 0.0937849 0)
(0.0554362 0.0815141 0)
(0.0571908 0.068051 0)
(0.0587582 0.0540229 0)
(0.001519 0.188312 0)
(0.00244754 0.181397 0)
(0.00252696 0.180035 0)
(0.00324429 0.178893 0)
(0.00383346 0.177448 0)
(0.0048899 0.175631 0)
(0.00603496 0.173361 0)
(0.00745641 0.170661 0)
(0.00907314 0.167545 0)
(0.0110929 0.163891 0)
(0.0134822 0.159751 0)
(0.0162722 0.155085 0)
(0.0194726 0.149892 0)
(0.0229326 0.144087 0)
(0.0265588 0.137562 0)
(0.0301858 0.130271 0)
(0.0336049 0.122095 0)
(0.0365952 0.112909 0)
(0.0390425 0.102734 0)
(0.0411946 0.0916841 0)
(0.043083 0.0797843 0)
(0.0445004 0.0671397 0)
(0.04507 0.0533562 0)
(0.00103956 0.18681 0)
(0.000579174 0.182067 0)
(-0.00112389 0.181023 0)
(-0.001916 0.179644 0)
(-0.00282825 0.177957 0)
(-0.00321767 0.175827 0)
(-0.00330457 0.173259 0)
(-0.00301254 0.170178 0)
(-0.00228039 0.166549 0)
(-0.00119897 0.162374 0)
(0.00026734 0.157684 0)
(0.00215829 0.152558 0)
(0.00445437 0.146919 0)
(0.00711994 0.140677 0)
(0.0101583 0.133826 0)
(0.013491 0.126363 0)
(0.0169881 0.118228 0)
(0.0205096 0.109419 0)
(0.0238735 0.0998512 0)
(0.0267693 0.0894774 0)
(0.0289418 0.078241 0)
(0.0303324 0.0660099 0)
(0.030924 0.0528563 0)
(0.000490215 0.186434 0)
(-0.000945241 0.183003 0)
(-0.00355869 0.181828 0)
(-0.0052323 0.180089 0)
(-0.00702261 0.17797 0)
(-0.00833916 0.175373 0)
(-0.00937524 0.172438 0)
(-0.0100672 0.169082 0)
(-0.0103801 0.165244 0)
(-0.0103335 0.160902 0)
(-0.00986896 0.156039 0)
(-0.00897616 0.150661 0)
(-0.00764905 0.14474 0)
(-0.00593439 0.138194 0)
(-0.00387571 0.131095 0)
(-0.00152251 0.123404 0)
(0.00113593 0.115165 0)
(0.00405708 0.106372 0)
(0.00711251 0.096993 0)
(0.0101233 0.0870134 0)
(0.0129256 0.0765308 0)
(0.015217 0.0654421 0)
(0.0166228 0.0532512 0)
(-9.82587e-06 0.18811 0)
(-0.00240701 0.187681 0)
(-0.00552098 0.186492 0)
(-0.00801258 0.184603 0)
(-0.0106892 0.182314 0)
(-0.0131199 0.179459 0)
(-0.0153207 0.176032 0)
(-0.0172005 0.172051 0)
(-0.0187483 0.167534 0)
(-0.0199548 0.162481 0)
(-0.0207993 0.156881 0)
(-0.0212689 0.150736 0)
(-0.0213313 0.144058 0)
(-0.0209809 0.136858 0)
(-0.0202214 0.129074 0)
(-0.0190582 0.120783 0)
(-0.0175672 0.111957 0)
(-0.0157686 0.10262 0)
(-0.0137198 0.0928593 0)
(-0.0115421 0.0826934 0)
(-0.00928956 0.0722083 0)
(-0.00713085 0.0614873 0)
(-0.00521009 0.0504342 0)
)
;

boundaryField
{
    leftWall
    {
        type            calculated;
        value           uniform (0 0 0);
    }
    rightWall
    {
        type            calculated;
        value           nonuniform 0();
    }
    lowerWall
    {
        type            calculated;
        value           nonuniform 0();
    }
    atmosphere
    {
        type            calculated;
        value           nonuniform List<vector> 
23
(
(-9.82587e-06 0.188112 0)
(-0.00240701 0.187684 0)
(-0.00552098 0.186495 0)
(-0.00801258 0.184605 0)
(-0.0106892 0.182315 0)
(-0.0131199 0.179458 0)
(-0.0153207 0.176031 0)
(-0.0172005 0.172051 0)
(-0.0187483 0.167534 0)
(-0.0199548 0.162482 0)
(-0.0207993 0.156882 0)
(-0.0212689 0.150737 0)
(-0.0213313 0.14406 0)
(-0.0209809 0.13686 0)
(-0.0202214 0.129077 0)
(-0.0190582 0.120786 0)
(-0.0175672 0.111961 0)
(-0.0157686 0.102624 0)
(-0.0137198 0.0928642 0)
(-0.0115421 0.0826988 0)
(-0.00928956 0.0722141 0)
(-0.00713085 0.0614934 0)
(-0.00521009 0.0504407 0)
)
;
    }
    defaultFaces
    {
        type            empty;
    }
    procBoundary2to0
    {
        type            processor;
        value           nonuniform List<vector> 
24
(
(-0.0150022 0.394326 0)
(0.000687676 0.461488 0)
(0.0459666 0.554563 0)
(0.128057 0.661944 0)
(0.277789 0.811175 0)
(0.478031 0.905278 0)
(0.774792 0.799804 0)
(0.0176717 0.330807 0)
(0.0364009 0.306512 0)
(0.0485076 0.278522 0)
(0.0451732 0.263015 0)
(0.0385283 0.252736 0)
(0.0320679 0.25052 0)
(0.0246655 0.250701 0)
(0.0202252 0.259566 0)
(0.0184054 0.267753 0)
(0.0177092 0.284412 0)
(0.0248434 0.300194 0)
(0.033022 0.308304 0)
(0.0386331 0.313273 0)
(0.040651 0.320497 0)
(0.0400305 0.33151 0)
(0.0409539 0.350664 0)
(0.0409539 0.350664 0)
)
;
    }
    procBoundary2to3
    {
        type            processor;
        value           nonuniform List<vector> 
25
(
(0.754224 0.499531 0)
(0.604444 0.408548 0)
(0.506481 0.338775 0)
(0.438501 0.283879 0)
(0.392554 0.23965 0)
(0.354807 0.208768 0)
(0.32333 0.183105 0)
(0.295092 0.162701 0)
(0.271323 0.144423 0)
(0.249357 0.128452 0)
(0.229159 0.114114 0)
(0.209917 0.101314 0)
(0.191517 0.0899929 0)
(0.173697 0.0800077 0)
(0.156346 0.0713305 0)
(0.139433 0.0638801 0)
(0.122883 0.0576025 0)
(0.106675 0.0524476 0)
(0.0908012 0.0483785 0)
(0.0752258 0.0453549 0)
(0.0600024 0.0432204 0)
(0.0452513 0.042397 0)
(0.0310141 0.0423762 0)
(0.0167634 0.0434208 0)
(-0.00454779 0.0416358 0)
)
;
    }
}


// ************************************************************************* //
