/*--------------------------------*- C++ -*----------------------------------*\
| =========                 |                                                 |
| \\      /  F ield         | OpenFOAM: The Open Source CFD Toolbox           |
|  \\    /   O peration     | Version:  2.4.0                                 |
|   \\  /    A nd           | Web:      www.OpenFOAM.org                      |
|    \\/     M anipulation  |                                                 |
\*---------------------------------------------------------------------------*/
FoamFile
{
    version     2.0;
    format      ascii;
    class       volVectorField;
    location    "0.8";
    object      U.mercury;
}
// * * * * * * * * * * * * * * * * * * * * * * * * * * * * * * * * * * * * * //

dimensions      [0 1 -1 0 0 0 0];

internalField   nonuniform List<vector> 
559
(
(0.045887 0.384858 0)
(0.0634565 0.435251 0)
(0.102235 0.501057 0)
(0.17136 0.567392 0)
(0.289134 0.648922 0)
(0.452258 0.678733 0)
(0.661046 0.604989 0)
(0.0102963 0.310404 0)
(0.0247687 0.292189 0)
(0.0354329 0.274548 0)
(0.0364671 0.264175 0)
(0.0349379 0.257057 0)
(0.0319993 0.254629 0)
(0.0281828 0.255264 0)
(0.0263861 0.261319 0)
(0.0262574 0.268444 0)
(0.0286792 0.280493 0)
(0.0363935 0.291285 0)
(0.0454218 0.299588 0)
(0.0538528 0.307006 0)
(0.06084 0.316523 0)
(0.0667812 0.328052 0)
(0.0740903 0.346606 0)
(0.0828144 0.374464 0)
(0.105013 0.410214 0)
(0.144334 0.453152 0)
(0.203185 0.494416 0)
(0.289093 0.533557 0)
(0.405031 0.530134 0)
(0.53803 0.477365 0)
(0.00700081 0.296275 0)
(0.0186238 0.279908 0)
(0.0274484 0.269224 0)
(0.0302032 0.262982 0)
(0.0311587 0.258524 0)
(0.0305565 0.25686 0)
(0.0294243 0.257327 0)
(0.0293623 0.261378 0)
(0.0304537 0.266442 0)
(0.0341758 0.274613 0)
(0.0417698 0.283534 0)
(0.0514654 0.291563 0)
(0.0602936 0.29888 0)
(0.0701802 0.308466 0)
(0.0795316 0.32031 0)
(0.0907785 0.337779 0)
(0.105299 0.35649 0)
(0.131516 0.377859 0)
(0.169697 0.404606 0)
(0.220363 0.430636 0)
(0.287304 0.447581 0)
(0.368052 0.430544 0)
(0.455653 0.387407 0)
(0.00552484 0.285042 0)
(0.0148139 0.270445 0)
(0.0217408 0.264214 0)
(0.0257679 0.260479 0)
(0.0285482 0.257346 0)
(0.0306502 0.256464 0)
(0.0314658 0.257351 0)
(0.0332171 0.260246 0)
(0.0356059 0.264237 0)
(0.0395147 0.269472 0)
(0.0456453 0.275393 0)
(0.0545034 0.282155 0)
(0.0628907 0.289071 0)
(0.0731994 0.298113 0)
(0.085224 0.30871 0)
(0.100533 0.322157 0)
(0.120957 0.335744 0)
(0.146229 0.348251 0)
(0.179767 0.363829 0)
(0.222985 0.378209 0)
(0.27799 0.381784 0)
(0.33747 0.360866 0)
(0.399859 0.322 0)
(0.00449716 0.276139 0)
(0.0121271 0.262626 0)
(0.0189478 0.25867 0)
(0.0238936 0.25602 0)
(0.0277944 0.25472 0)
(0.0309579 0.254548 0)
(0.0342183 0.255015 0)
(0.037834 0.257274 0)
(0.0420342 0.26023 0)
(0.0472782 0.264172 0)
(0.0532336 0.268002 0)
(0.0614487 0.273081 0)
(0.0705569 0.279844 0)
(0.0810816 0.28609 0)
(0.0939702 0.293354 0)
(0.109957 0.301533 0)
(0.131877 0.31035 0)
(0.156901 0.318783 0)
(0.187018 0.326338 0)
(0.224412 0.331654 0)
(0.269601 0.328668 0)
(0.316691 0.307251 0)
(0.36338 0.27109 0)
(0.00402929 0.268325 0)
(0.0108336 0.255574 0)
(0.0172155 0.252937 0)
(0.022384 0.251401 0)
(0.0270586 0.250487 0)
(0.0313963 0.250265 0)
(0.0358601 0.250792 0)
(0.0407075 0.252591 0)
(0.0463204 0.255115 0)
(0.0528209 0.258232 0)
(0.060029 0.261327 0)
(0.067973 0.265306 0)
(0.078164 0.26984 0)
(0.0899043 0.274486 0)
(0.103657 0.27918 0)
(0.120097 0.283876 0)
(0.138606 0.288789 0)
(0.161128 0.293043 0)
(0.188336 0.29501 0)
(0.221252 0.294699 0)
(0.256999 0.287069 0)
(0.296629 0.266264 0)
(0.33286 0.235086 0)
(0.00352033 0.261435 0)
(0.0097252 0.249152 0)
(0.0156211 0.247272 0)
(0.0210094 0.246234 0)
(0.0260813 0.245579 0)
(0.031043 0.245442 0)
(0.0359889 0.245795 0)
(0.0413728 0.246807 0)
(0.0475822 0.248376 0)
(0.0546028 0.251099 0)
(0.0623823 0.253604 0)
(0.0706178 0.255418 0)
(0.0807112 0.258075 0)
(0.0926779 0.26114 0)
(0.106742 0.263893 0)
(0.122288 0.26682 0)
(0.140955 0.268767 0)
(0.16262 0.268143 0)
(0.187744 0.266113 0)
(0.214675 0.261468 0)
(0.245597 0.25164 0)
(0.277233 0.230875 0)
(0.306236 0.204501 0)
(0.00341355 0.254759 0)
(0.00951875 0.243056 0)
(0.0152228 0.24162 0)
(0.020711 0.240973 0)
(0.0260063 0.240532 0)
(0.0313299 0.240384 0)
(0.0367797 0.240525 0)
(0.0426119 0.241048 0)
(0.0490185 0.241883 0)
(0.0560634 0.243179 0)
(0.0642927 0.244798 0)
(0.0735642 0.246151 0)
(0.0837128 0.247407 0)
(0.0951645 0.248129 0)
(0.108368 0.248732 0)
(0.123826 0.249642 0)
(0.141273 0.248479 0)
(0.160674 0.246594 0)
(0.181302 0.242184 0)
(0.205363 0.235625 0)
(0.23176 0.222323 0)
(0.257502 0.203444 0)
(0.280375 0.182225 0)
(0.00322188 0.248673 0)
(0.0090221 0.237354 0)
(0.0146639 0.236207 0)
(0.0202051 0.235723 0)
(0.0255905 0.235222 0)
(0.031055 0.234783 0)
(0.036765 0.234616 0)
(0.0427882 0.234661 0)
(0.0493005 0.23493 0)
(0.0563729 0.235517 0)
(0.0646396 0.236227 0)
(0.0739697 0.236554 0)
(0.0841154 0.236867 0)
(0.0957669 0.236528 0)
(0.10761 0.235949 0)
(0.121462 0.23382 0)
(0.137123 0.231309 0)
(0.154918 0.227197 0)
(0.174768 0.220161 0)
(0.196017 0.21052 0)
(0.218002 0.198982 0)
(0.238163 0.18278 0)
(0.258386 0.161129 0)
(0.00307314 0.242459 0)
(0.00870986 0.231458 0)
(0.0142665 0.23033 0)
(0.0198951 0.229862 0)
(0.0254882 0.229483 0)
(0.031162 0.229154 0)
(0.0370252 0.228791 0)
(0.0432023 0.228458 0)
(0.049873 0.228234 0)
(0.057115 0.228126 0)
(0.0650829 0.227499 0)
(0.0733053 0.226901 0)
(0.0828678 0.225726 0)
(0.0934598 0.224654 0)
(0.105687 0.222203 0)
(0.119562 0.219147 0)
(0.134145 0.215064 0)
(0.149956 0.208802 0)
(0.166814 0.20167 0)
(0.18347 0.191999 0)
(0.202325 0.17862 0)
(0.221138 0.162062 0)
(0.23815 0.144215 0)
(0.00294203 0.236869 0)
(0.00838081 0.226112 0)
(0.013754 0.224991 0)
(0.0192408 0.224453 0)
(0.0246949 0.223896 0)
(0.0303381 0.223333 0)
(0.0361502 0.22264 0)
(0.0422424 0.221921 0)
(0.0487251 0.221152 0)
(0.0558658 0.220294 0)
(0.0637663 0.219502 0)
(0.0726297 0.21802 0)
(0.0820271 0.215875 0)
(0.0921405 0.213316 0)
(0.103089 0.210232 0)
(0.11466 0.206238 0)
(0.127467 0.200635 0)
(0.141468 0.194257 0)
(0.156647 0.18502 0)
(0.172813 0.173739 0)
(0.188852 0.161425 0)
(0.203923 0.146501 0)
(0.219004 0.128562 0)
(0.00286231 0.231089 0)
(0.00822805 0.220582 0)
(0.0135453 0.219547 0)
(0.0189786 0.219034 0)
(0.0243851 0.218422 0)
(0.0299962 0.217674 0)
(0.0357791 0.216772 0)
(0.0418205 0.215708 0)
(0.0481815 0.214438 0)
(0.055003 0.212937 0)
(0.0622422 0.211182 0)
(0.070064 0.209109 0)
(0.0785966 0.206617 0)
(0.0879701 0.203323 0)
(0.0980602 0.19911 0)
(0.109417 0.193544 0)
(0.121638 0.187186 0)
(0.13432 0.179362 0)
(0.147526 0.1707 0)
(0.160562 0.160044 0)
(0.174174 0.146735 0)
(0.18792 0.131605 0)
(0.201007 0.11508 0)
(0.00271416 0.225806 0)
(0.0077955 0.215434 0)
(0.0128644 0.214304 0)
(0.0180847 0.213699 0)
(0.0233097 0.212954 0)
(0.0287207 0.212006 0)
(0.0343131 0.210894 0)
(0.0401673 0.209612 0)
(0.0463325 0.208093 0)
(0.0528753 0.206291 0)
(0.0599168 0.204102 0)
(0.0676359 0.201422 0)
(0.0758418 0.197989 0)
(0.0846288 0.193926 0)
(0.0940182 0.188984 0)
(0.103876 0.18311 0)
(0.114138 0.176271 0)
(0.125025 0.168078 0)
(0.136546 0.158098 0)
(0.148566 0.146581 0)
(0.160596 0.133937 0)
(0.172202 0.119347 0)
(0.183636 0.103108 0)
(0.0026103 0.220502 0)
(0.00758888 0.210316 0)
(0.0125313 0.209134 0)
(0.0176229 0.208478 0)
(0.022702 0.207617 0)
(0.0279218 0.206512 0)
(0.0332613 0.205162 0)
(0.0387905 0.203535 0)
(0.0445712 0.201579 0)
(0.0506654 0.199274 0)
(0.0571223 0.196547 0)
(0.0640197 0.193392 0)
(0.0713837 0.189585 0)
(0.0792966 0.184959 0)
(0.087782 0.17951 0)
(0.0967593 0.172964 0)
(0.106293 0.16539 0)
(0.116204 0.156893 0)
(0.126238 0.147126 0)
(0.136445 0.135825 0)
(0.146688 0.122835 0)
(0.156908 0.108408 0)
(0.166794 0.0926802 0)
(0.00244179 0.215639 0)
(0.00715925 0.205568 0)
(0.0118629 0.204323 0)
(0.01671 0.203633 0)
(0.0215396 0.202727 0)
(0.0264946 0.201561 0)
(0.0315509 0.200116 0)
(0.036775 0.198335 0)
(0.0422179 0.196179 0)
(0.0479207 0.193582 0)
(0.0539276 0.190489 0)
(0.0602904 0.186772 0)
(0.0670823 0.182405 0)
(0.0742486 0.177345 0)
(0.0818068 0.171484 0)
(0.0897129 0.164613 0)
(0.0979341 0.156769 0)
(0.106464 0.147824 0)
(0.115243 0.137546 0)
(0.124238 0.126005 0)
(0.133146 0.11323 0)
(0.141898 0.0990575 0)
(0.150366 0.0836304 0)
(0.00233697 0.210846 0)
(0.00686032 0.200757 0)
(0.0113371 0.199452 0)
(0.015953 0.198717 0)
(0.0205151 0.197722 0)
(0.0251854 0.196453 0)
(0.0299129 0.19487 0)
(0.0347388 0.192912 0)
(0.0396943 0.190534 0)
(0.0448882 0.187652 0)
(0.0503349 0.184268 0)
(0.0560613 0.180328 0)
(0.0621292 0.175732 0)
(0.0685351 0.170337 0)
(0.0752412 0.164084 0)
(0.0822041 0.156862 0)
(0.0893971 0.148672 0)
(0.0968103 0.139488 0)
(0.104398 0.129234 0)
(0.112064 0.117763 0)
(0.119668 0.105035 0)
(0.127144 0.0910445 0)
(0.134333 0.075891 0)
(0.00218128 0.206431 0)
(0.0064932 0.196543 0)
(0.0107124 0.195217 0)
(0.0150596 0.194491 0)
(0.0193153 0.193464 0)
(0.0236732 0.192135 0)
(0.0280765 0.190439 0)
(0.0325869 0.188347 0)
(0.0371923 0.185811 0)
(0.0419089 0.182767 0)
(0.0467676 0.179109 0)
(0.0517574 0.174792 0)
(0.056966 0.169717 0)
(0.0624613 0.16397 0)
(0.068241 0.157533 0)
(0.0743056 0.150253 0)
(0.0806076 0.141957 0)
(0.0870111 0.132612 0)
(0.0934343 0.122168 0)
(0.0999107 0.110668 0)
(0.106347 0.0980588 0)
(0.112627 0.0842767 0)
(0.118614 0.06937 0)
(0.00210681 0.202094 0)
(0.00610215 0.192253 0)
(0.00994342 0.190844 0)
(0.0139636 0.190114 0)
(0.0178785 0.18906 0)
(0.02191 0.187687 0)
(0.0260205 0.186022 0)
(0.0302271 0.183941 0)
(0.0344991 0.181349 0)
(0.0388137 0.178252 0)
(0.0431735 0.174528 0)
(0.0476011 0.170087 0)
(0.0521408 0.164917 0)
(0.0567923 0.15898 0)
(0.0615817 0.15212 0)
(0.0664781 0.144365 0)
(0.0715551 0.135835 0)
(0.0768866 0.126547 0)
(0.0824172 0.116273 0)
(0.0878724 0.104825 0)
(0.0931838 0.0922569 0)
(0.0983453 0.0786361 0)
(0.103214 0.0639887 0)
(0.00205695 0.198179 0)
(0.00571812 0.188639 0)
(0.00905629 0.187301 0)
(0.0126625 0.18657 0)
(0.0161432 0.185456 0)
(0.0197537 0.184004 0)
(0.023457 0.182141 0)
(0.0272648 0.179896 0)
(0.0311584 0.177219 0)
(0.0351119 0.174072 0)
(0.0390969 0.170351 0)
(0.0431099 0.16595 0)
(0.0471488 0.160797 0)
(0.0511243 0.154787 0)
(0.0550972 0.147939 0)
(0.0590998 0.140215 0)
(0.0631994 0.131496 0)
(0.067296 0.121664 0)
(0.0713759 0.11104 0)
(0.0756896 0.09977 0)
(0.0801253 0.0875318 0)
(0.0842927 0.0741443 0)
(0.0881127 0.0597155 0)
(0.00203842 0.194408 0)
(0.00510953 0.185439 0)
(0.00774645 0.183996 0)
(0.010734 0.183229 0)
(0.0135917 0.182061 0)
(0.0166333 0.180492 0)
(0.0197435 0.178497 0)
(0.0230036 0.176138 0)
(0.0264079 0.173427 0)
(0.0299507 0.170229 0)
(0.0335588 0.16647 0)
(0.0371439 0.162038 0)
(0.0406755 0.156849 0)
(0.0442477 0.150907 0)
(0.0478324 0.144135 0)
(0.0513849 0.136468 0)
(0.0548625 0.12787 0)
(0.0580901 0.118391 0)
(0.061271 0.107832 0)
(0.0643556 0.0960675 0)
(0.067209 0.0835823 0)
(0.0703416 0.0705032 0)
(0.0732694 0.0564591 0)
(0.00192674 0.190907 0)
(0.0041946 0.182987 0)
(0.00558502 0.181669 0)
(0.0076462 0.180772 0)
(0.00956707 0.17948 0)
(0.011812 0.177799 0)
(0.0141117 0.175682 0)
(0.0166548 0.173121 0)
(0.0194626 0.170102 0)
(0.0225109 0.166696 0)
(0.0258158 0.162875 0)
(0.0293054 0.158511 0)
(0.0327903 0.153434 0)
(0.036171 0.147551 0)
(0.0394002 0.140826 0)
(0.0423995 0.133168 0)
(0.0452036 0.124627 0)
(0.0480693 0.11524 0)
(0.0508423 0.104928 0)
(0.0532652 0.0937804 0)
(0.0554312 0.0815108 0)
(0.0571856 0.0680488 0)
(0.0587528 0.0540219 0)
(0.00151893 0.188299 0)
(0.00244733 0.181384 0)
(0.00252661 0.180022 0)
(0.00324379 0.17888 0)
(0.00383282 0.177435 0)
(0.0048891 0.175619 0)
(0.00603399 0.173348 0)
(0.00745526 0.170649 0)
(0.00907181 0.167534 0)
(0.0110914 0.16388 0)
(0.0134804 0.15974 0)
(0.0162702 0.155075 0)
(0.0194704 0.149882 0)
(0.0229301 0.144078 0)
(0.026556 0.137554 0)
(0.0301827 0.130263 0)
(0.0336016 0.122088 0)
(0.0365918 0.112903 0)
(0.039039 0.102729 0)
(0.0411909 0.0916801 0)
(0.0430792 0.0797814 0)
(0.0444964 0.067138 0)
(0.0450658 0.0533557 0)
(0.0010395 0.186797 0)
(0.000579021 0.182054 0)
(-0.00112414 0.18101 0)
(-0.00191636 0.179631 0)
(-0.00282872 0.177944 0)
(-0.00321826 0.175815 0)
(-0.00330527 0.173247 0)
(-0.00301337 0.170166 0)
(-0.00228135 0.166538 0)
(-0.00120008 0.162363 0)
(0.000266086 0.157673 0)
(0.00215688 0.152548 0)
(0.00445278 0.146909 0)
(0.00711811 0.140668 0)
(0.0101562 0.133817 0)
(0.0134888 0.126356 0)
(0.0169857 0.118222 0)
(0.0205071 0.109414 0)
(0.023871 0.0998466 0)
(0.0267667 0.0894739 0)
(0.0289391 0.0782385 0)
(0.0303295 0.0660085 0)
(0.030921 0.0528561 0)
(0.000490183 0.186421 0)
(-0.000945336 0.18299 0)
(-0.00355885 0.181815 0)
(-0.00523252 0.180077 0)
(-0.00702289 0.177958 0)
(-0.00833952 0.175361 0)
(-0.00937567 0.172426 0)
(-0.0100678 0.16907 0)
(-0.0103807 0.165233 0)
(-0.0103342 0.160891 0)
(-0.00986973 0.156029 0)
(-0.00897703 0.150651 0)
(-0.00765004 0.144731 0)
(-0.00593551 0.138185 0)
(-0.00387698 0.131087 0)
(-0.0015239 0.123397 0)
(0.00113448 0.115159 0)
(0.00405559 0.106367 0)
(0.007111 0.0969888 0)
(0.0101218 0.0870103 0)
(0.012924 0.0765287 0)
(0.0152153 0.0654411 0)
(0.016621 0.0532514 0)
(-9.83673e-06 0.188097 0)
(-0.00240704 0.187669 0)
(-0.00552104 0.18648 0)
(-0.00801265 0.184591 0)
(-0.0106893 0.182302 0)
(-0.01312 0.179447 0)
(-0.0153209 0.17602 0)
(-0.0172007 0.172039 0)
(-0.0187485 0.167523 0)
(-0.019955 0.16247 0)
(-0.0207996 0.156871 0)
(-0.0212692 0.150726 0)
(-0.0213317 0.144049 0)
(-0.0209813 0.136849 0)
(-0.0202218 0.129066 0)
(-0.0190587 0.120776 0)
(-0.0175677 0.111951 0)
(-0.0157691 0.102615 0)
(-0.0137203 0.0928553 0)
(-0.0115426 0.0826904 0)
(-0.0092901 0.0722064 0)
(-0.00713143 0.0614865 0)
(-0.00521075 0.0504346 0)
)
;

boundaryField
{
    leftWall
    {
        type            fixedValue;
        value           uniform (0 0 0);
    }
    rightWall
    {
        type            fixedValue;
        value           nonuniform 0();
    }
    lowerWall
    {
        type            fixedValue;
        value           nonuniform 0();
    }
    atmosphere
    {
        type            fluxCorrectedVelocity;
        value           nonuniform List<vector> 
23
(
(-9.83673e-06 0.188112 0)
(-0.00240704 0.187684 0)
(-0.00552104 0.186495 0)
(-0.00801265 0.184605 0)
(-0.0106893 0.182315 0)
(-0.01312 0.179458 0)
(-0.0153209 0.176031 0)
(-0.0172007 0.172051 0)
(-0.0187485 0.167534 0)
(-0.019955 0.162482 0)
(-0.0207996 0.156882 0)
(-0.0212692 0.150737 0)
(-0.0213317 0.14406 0)
(-0.0209813 0.13686 0)
(-0.0202218 0.129077 0)
(-0.0190587 0.120786 0)
(-0.0175677 0.111961 0)
(-0.0157691 0.102624 0)
(-0.0137203 0.0928643 0)
(-0.0115426 0.0826988 0)
(-0.0092901 0.0722141 0)
(-0.00713143 0.0614935 0)
(-0.00521075 0.0504408 0)
)
;
    }
    defaultFaces
    {
        type            empty;
    }
    procBoundary2to0
    {
        type            processor;
        value           nonuniform List<vector> 
24
(
(-0.0149956 0.394274 0)
(0.000692299 0.46143 0)
(0.0459681 0.554499 0)
(0.128053 0.661874 0)
(0.277776 0.811101 0)
(0.478004 0.905206 0)
(0.774749 0.799735 0)
(0.0176721 0.330789 0)
(0.0364022 0.306493 0)
(0.0485099 0.278503 0)
(0.0451764 0.262995 0)
(0.0385323 0.252716 0)
(0.0320726 0.250499 0)
(0.0246709 0.250678 0)
(0.0202312 0.259542 0)
(0.0184118 0.267727 0)
(0.0177161 0.284384 0)
(0.0248504 0.300164 0)
(0.033029 0.308271 0)
(0.0386398 0.313237 0)
(0.0406569 0.320459 0)
(0.0400358 0.331468 0)
(0.0409576 0.350618 0)
(0.0409576 0.350618 0)
)
;
    }
    procBoundary2to3
    {
        type            processor;
        value           nonuniform List<vector> 
25
(
(0.754199 0.499462 0)
(0.604418 0.408486 0)
(0.506456 0.338722 0)
(0.438474 0.283832 0)
(0.392528 0.23961 0)
(0.354782 0.208734 0)
(0.323305 0.183076 0)
(0.295069 0.162677 0)
(0.271302 0.144403 0)
(0.249336 0.128436 0)
(0.22914 0.1141 0)
(0.2099 0.101303 0)
(0.191501 0.0899839 0)
(0.173683 0.0800006 0)
(0.156333 0.0713249 0)
(0.139421 0.0638759 0)
(0.122873 0.0575994 0)
(0.106666 0.0524455 0)
(0.0907932 0.0483772 0)
(0.0752192 0.0453544 0)
(0.059997 0.0432205 0)
(0.0452472 0.0423975 0)
(0.0310111 0.042377 0)
(0.0167617 0.0434218 0)
(-0.00454838 0.0416372 0)
)
;
    }
}


// ************************************************************************* //
