/*--------------------------------*- C++ -*----------------------------------*\
| =========                 |                                                 |
| \\      /  F ield         | OpenFOAM: The Open Source CFD Toolbox           |
|  \\    /   O peration     | Version:  2.4.0                                 |
|   \\  /    A nd           | Web:      www.OpenFOAM.org                      |
|    \\/     M anipulation  |                                                 |
\*---------------------------------------------------------------------------*/
FoamFile
{
    version     2.0;
    format      ascii;
    class       volScalarField;
    location    "0.8";
    object      alpha.oil;
}
// * * * * * * * * * * * * * * * * * * * * * * * * * * * * * * * * * * * * * //

dimensions      [0 0 0 0 0 0 0];

internalField   nonuniform List<scalar> 
575
(
1.89887e-07
1.73617e-07
1.08552e-07
8.26074e-08
7.21507e-08
6.3953e-08
4.47909e-08
3.37788e-08
1.56803e-08
1.43425e-08
1.16249e-08
6.42241e-09
1.45132e-09
1.51288e-09
9.01994e-10
4.92284e-10
7.46393e-10
5.19301e-10
3.26306e-10
1.89019e-10
4.8501e-10
3.01328e-10
1.72599e-10
1.08213e-10
2.67289e-10
1.63092e-10
8.25298e-11
4.89837e-11
1.23737e-10
5.86795e-11
3.34771e-11
2.05632e-11
3.96345e-11
2.1834e-11
1.22928e-11
7.27301e-12
1.09294e-11
6.23632e-12
3.54384e-12
2.05513e-12
2.54422e-12
1.46072e-12
8.28195e-13
4.71955e-13
5.05143e-13
2.87947e-13
1.6152e-13
9.06e-14
8.65648e-14
4.86425e-14
2.68962e-14
1.49056e-14
1.29377e-14
7.14223e-15
3.89295e-15
2.1646e-15
1.70106e-15
9.21543e-16
4.98867e-16
2.98036e-16
1.98383e-16
1.0578e-16
5.89403e-17
5.00201e-17
2.07153e-17
1.10482e-17
7.48254e-18
1.57372e-17
1.96518e-18
1.13452e-18
1.56377e-18
8.4483e-18
1.75204e-19
1.50183e-19
6.16618e-19
5.01259e-18
1.63302e-20
3.57974e-20
2.86972e-19
2.70452e-18
2.05969e-21
1.20651e-20
1.23178e-19
1.26706e-18
4.12811e-22
4.11075e-21
4.6934e-20
5.2126e-19
1.05319e-22
1.29965e-21
1.6218e-20
1.96522e-19
2.85703e-23
3.98206e-22
5.50045e-21
7.48952e-20
2.64509e-23
4.02718e-22
6.05078e-21
8.8615e-20
4.2692e-08
2.29194e-08
2.13157e-08
4.11964e-08
7.16352e-08
1.39459e-07
1.9378e-07
1.48541e-07
1.64851e-07
9.30842e-07
1.62649e-06
2.06545e-06
2.39966e-06
0.000164653
0.00525952
0.0137576
0.00779979
0.0580311
0.411812
1.22553e-08
5.81934e-09
5.44186e-09
2.36093e-08
4.5041e-08
7.38079e-08
1.09813e-07
1.35174e-07
1.408e-07
1.90821e-07
8.95583e-07
1.56663e-06
1.90684e-06
0.00012584
0.00375224
0.00177379
0.000239258
0.00261054
0.0140286
1.96411e-09
1.12107e-09
1.4914e-09
6.27267e-09
2.22798e-08
3.65115e-08
4.9512e-08
6.67174e-08
1.06215e-07
1.48721e-07
4.64152e-07
1.08817e-06
1.60657e-06
7.55957e-05
0.000834414
4.40331e-05
8.85758e-05
5.73673e-06
1.77092e-06
2.65416e-10
3.08835e-10
6.37927e-10
2.56408e-09
7.77745e-09
1.15931e-08
1.49987e-08
2.24795e-08
3.9762e-08
9.10625e-08
2.05949e-07
6.89946e-07
1.19997e-06
6.74119e-05
6.74269e-05
2.87874e-05
7.71203e-05
1.9985e-06
1.14848e-06
9.36157e-11
1.15709e-10
3.15164e-10
9.53882e-10
1.90201e-09
2.52599e-09
3.61393e-09
6.46541e-09
1.36221e-08
3.79758e-08
1.15064e-07
3.34899e-07
7.43311e-07
4.31354e-05
2.50232e-05
1.69195e-05
1.44002e-05
3.13538e-06
1.14848e-06
5.38974e-11
4.76574e-11
8.50682e-11
2.26932e-10
3.47805e-10
5.158e-10
1.27829e-09
3.40584e-09
9.43987e-09
2.77085e-08
7.59721e-08
1.82772e-07
4.48729e-07
2.09019e-05
1.77563e-05
8.4052e-06
2.63871e-06
1.93317e-06
1.26503e-06
2.44298e-11
1.72932e-11
2.02388e-11
2.6931e-11
5.71371e-11
1.83818e-10
6.02721e-10
2.09736e-09
7.67871e-09
2.96661e-08
9.14506e-08
1.90366e-07
3.58105e-07
8.496e-06
1.41518e-05
6.51441e-06
1.81437e-06
1.81908e-06
1.32821e-06
9.59569e-12
5.8661e-12
6.1722e-12
1.04445e-11
2.31173e-11
7.27906e-11
2.84491e-10
1.29739e-09
6.64934e-09
3.58082e-08
1.38536e-07
2.99439e-07
4.51738e-07
2.1649e-06
6.76452e-06
7.16955e-06
3.17635e-06
1.86452e-06
1.37572e-06
3.13585e-12
1.7834e-12
1.98618e-12
4.01557e-12
1.00491e-11
3.19475e-11
1.43618e-10
8.46231e-10
5.54605e-09
2.44814e-08
1.25572e-07
4.7902e-07
8.07976e-07
1.1198e-06
1.56488e-06
7.25333e-06
3.4447e-06
1.89864e-06
1.39311e-06
8.39419e-13
4.66952e-13
5.7999e-13
1.40367e-12
4.38801e-12
1.70626e-11
8.49507e-11
5.31736e-10
2.10168e-09
1.20548e-08
1.27096e-07
7.18129e-07
1.28835e-06
1.96909e-06
3.99706e-06
7.49086e-06
2.52983e-06
1.89192e-06
1.35427e-06
1.86792e-13
1.099e-13
1.88289e-13
6.89027e-13
3.14878e-12
1.52154e-11
7.49134e-11
2.31259e-10
1.19491e-09
1.24308e-08
1.16493e-07
8.26245e-07
1.57193e-06
2.88566e-05
3.26583e-05
1.11742e-05
2.14384e-06
1.84168e-06
1.24086e-06
3.59823e-14
2.88234e-14
9.59564e-14
5.22269e-13
2.91831e-12
1.55711e-11
7.51614e-11
1.75268e-10
5.86125e-10
9.91678e-09
1.00863e-07
6.67713e-07
1.67784e-06
3.71687e-05
4.12647e-05
2.5776e-05
3.78547e-06
1.75877e-06
1.07296e-06
6.62381e-15
1.13681e-14
6.61223e-14
4.35276e-13
2.7347e-12
1.59438e-11
7.97799e-11
2.20619e-10
6.40852e-10
6.75415e-09
5.33501e-08
3.59225e-07
1.40132e-06
9.24163e-06
2.78755e-05
2.06554e-05
6.50497e-06
2.62695e-06
9.94781e-07
1.48914e-15
6.51422e-15
5.03198e-14
3.81029e-13
2.68244e-12
1.70679e-11
9.08901e-11
3.27315e-10
1.11849e-09
4.62752e-09
2.3457e-08
1.46975e-07
7.83581e-07
1.71914e-06
2.84477e-06
8.4263e-06
9.2581e-06
6.75848e-06
1.22674e-06
5.5774e-16
4.60082e-15
4.29532e-14
3.74101e-13
2.95132e-12
2.04872e-11
1.17792e-10
4.88809e-10
1.65514e-09
6.33616e-09
2.0393e-08
7.33038e-08
3.19935e-07
9.05128e-07
1.31133e-06
3.56309e-06
9.18444e-06
6.00302e-06
9.89876e-07
3.08377e-16
3.38091e-15
3.62625e-14
3.56162e-13
3.12238e-12
2.37076e-11
1.45628e-10
6.20103e-10
3.00973e-09
1.21728e-08
3.70428e-08
1.07645e-07
2.56662e-07
5.41786e-07
9.29772e-07
2.73348e-06
8.97458e-06
2.30091e-06
3.96499e-07
1.94023e-16
2.48785e-15
3.00767e-14
3.30352e-13
3.22874e-12
2.70453e-11
1.77203e-10
8.05236e-10
5.46089e-09
2.25914e-08
6.50832e-08
2.43075e-07
4.65476e-07
6.43336e-07
1.03024e-06
4.38465e-06
5.70953e-06
1.25393e-06
2.58486e-07
1.26403e-16
1.83368e-15
2.47653e-14
3.02342e-13
3.26829e-12
2.95618e-11
2.04194e-10
1.09987e-09
7.73392e-09
3.47836e-08
1.01931e-07
3.88014e-07
7.40356e-07
1.07847e-06
1.87001e-06
4.71744e-06
1.83051e-06
6.86395e-07
1.55653e-07
7.68241e-17
1.2205e-15
1.77991e-14
2.30691e-13
2.5697e-12
2.28224e-11
1.50044e-10
1.12778e-09
7.31937e-09
3.39444e-08
9.81549e-08
4.04341e-07
8.90366e-07
1.5697e-06
3.78987e-06
2.97489e-06
8.36838e-07
2.48861e-07
8.5798e-08
4.05227e-17
6.83557e-16
1.03803e-14
1.36874e-13
1.51534e-12
1.32487e-11
8.86576e-11
7.3051e-10
4.56937e-09
2.27386e-08
7.20318e-08
2.69925e-07
7.88193e-07
1.33868e-06
2.43597e-06
8.90857e-07
3.39106e-07
1.12764e-07
2.39301e-08
1.82103e-17
3.19861e-16
4.97095e-15
6.58129e-14
7.17442e-13
6.00363e-12
3.33038e-11
3.63877e-10
1.98713e-09
8.61472e-09
3.18697e-08
1.04153e-07
4.42789e-07
6.89202e-07
6.25631e-07
3.56328e-07
1.70246e-07
2.46511e-08
8.09783e-09
7.15584e-18
1.31112e-16
2.10637e-15
2.8621e-14
3.18522e-13
2.74553e-12
1.74361e-11
1.72494e-10
8.88301e-10
3.60718e-09
1.34688e-08
3.89843e-08
1.09943e-07
1.73274e-07
1.34587e-07
6.80578e-08
1.73641e-08
1.23615e-08
3.87524e-09
2.65846e-18
5.3527e-17
9.49608e-16
1.45263e-14
1.90185e-13
2.06418e-12
1.82186e-11
1.38443e-10
7.44876e-10
3.03467e-09
8.80669e-09
9.98477e-09
2.00082e-08
2.75445e-08
2.30533e-08
1.29013e-08
1.01649e-08
8.85158e-09
3.87431e-09
1.0724e-18
2.7403e-17
6.53857e-16
1.31866e-14
2.14301e-13
2.58994e-12
2.2402e-11
1.57574e-10
7.64765e-10
2.41807e-09
4.1476e-09
2.74002e-09
3.79359e-09
7.133e-09
6.2896e-09
3.85394e-09
4.49248e-09
4.4766e-09
2.23329e-09
1.25938e-18
3.54479e-17
7.8618e-16
1.31825e-14
1.67734e-13
1.63173e-12
1.17892e-11
4.3583e-11
1.22411e-10
1.96497e-10
1.50063e-10
4.82296e-11
3.96516e-11
1.11276e-10
5.65488e-10
6.33826e-10
1.04913e-09
1.09654e-09
6.3586e-10
)
;

boundaryField
{
    leftWall
    {
        type            zeroGradient;
    }
    rightWall
    {
        type            zeroGradient;
    }
    lowerWall
    {
        type            zeroGradient;
    }
    atmosphere
    {
        type            inletOutlet;
        inletValue      uniform 0;
        value           nonuniform List<scalar> 
23
(
2.64509e-23
4.02718e-22
6.05078e-21
8.8615e-20
1.25938e-18
0
0
0
0
0
0
0
0
0
0
0
0
0
0
0
0
0
0
)
;
    }
    defaultFaces
    {
        type            empty;
    }
    procBoundary3to1
    {
        type            processor;
        value           nonuniform List<scalar> 
23
(
4.4588e-07
3.57965e-07
2.83031e-07
2.12788e-07
1.15836e-07
4.9247e-08
5.12681e-08
8.31911e-08
1.40121e-07
2.37226e-07
1.74265e-07
1.50808e-07
6.2232e-07
1.17561e-06
1.78714e-06
2.29377e-06
2.56047e-06
2.35192e-05
0.000976908
0.0109497
0.0509553
0.396456
0.928656
)
;
    }
    procBoundary3to2
    {
        type            processor;
        value           nonuniform List<scalar> 
25
(
1.6356e-07
7.19331e-08
1.64299e-08
1.86205e-09
1.01199e-09
7.50362e-10
4.21013e-10
1.84746e-10
6.40165e-11
1.80801e-11
4.25217e-12
8.56454e-13
1.49626e-13
2.28694e-14
3.08217e-15
3.69051e-16
3.95664e-17
3.8332e-18
3.39532e-19
2.79541e-20
2.20215e-21
1.77093e-22
1.64324e-23
2.02416e-24
9.30457e-25
)
;
    }
}


// ************************************************************************* //
