/*--------------------------------*- C++ -*----------------------------------*\
| =========                 |                                                 |
| \\      /  F ield         | OpenFOAM: The Open Source CFD Toolbox           |
|  \\    /   O peration     | Version:  2.4.0                                 |
|   \\  /    A nd           | Web:      www.OpenFOAM.org                      |
|    \\/     M anipulation  |                                                 |
\*---------------------------------------------------------------------------*/
FoamFile
{
    version     2.0;
    format      ascii;
    class       volScalarField;
    location    "0.8";
    object      alpha.mercury;
}
// * * * * * * * * * * * * * * * * * * * * * * * * * * * * * * * * * * * * * //

dimensions      [0 0 0 0 0 0 0];

internalField   nonuniform List<scalar> 
575
(
1.27101e-11
1.19766e-11
1.03154e-11
8.30316e-12
4.48559e-12
4.15347e-12
3.59481e-12
3.04353e-12
1.27818e-12
1.20416e-12
1.10954e-12
1.07632e-12
3.0784e-13
3.08415e-13
3.22239e-13
3.7527e-13
6.56677e-14
7.28281e-14
8.87936e-14
1.21667e-13
1.28042e-14
1.59816e-14
2.24428e-14
3.44856e-14
2.28843e-15
3.18644e-15
4.98591e-15
8.24945e-15
3.68991e-16
5.59999e-16
9.44946e-16
1.64145e-15
5.23591e-17
8.45766e-17
1.50425e-16
2.722e-16
6.45431e-18
1.09178e-17
2.02036e-17
3.80188e-17
6.86552e-19
1.20324e-18
2.3073e-18
4.53901e-18
6.30378e-20
1.14004e-19
2.27108e-19
4.73425e-19
5.01869e-21
9.38612e-21
1.96225e-20
4.39906e-20
3.49814e-22
6.83016e-22
1.52297e-21
3.73385e-21
2.17367e-23
4.54292e-23
1.12278e-22
3.15015e-22
1.28081e-24
3.19821e-24
1.03868e-23
4.12734e-23
9.80694e-26
4.23406e-25
2.37925e-24
1.48611e-23
1.86815e-26
1.39703e-25
1.07341e-24
8.25293e-24
6.4749e-27
5.92836e-26
5.22183e-25
4.53207e-24
2.36503e-27
2.4061e-26
2.3421e-25
2.24425e-24
7.99722e-28
8.86603e-27
9.4274e-26
9.84291e-25
2.46009e-28
2.95628e-27
3.42386e-26
3.87942e-25
6.97999e-29
9.07677e-28
1.14806e-26
1.42356e-25
1.91328e-29
2.71729e-28
3.79998e-27
5.25333e-26
1.72833e-29
2.63497e-28
3.95254e-27
5.75296e-26
6.53615e-12
1.35942e-11
3.8133e-11
8.28345e-11
1.28646e-10
1.6757e-10
2.02709e-10
2.14889e-10
4.37425e-10
5.6135e-08
7.36077e-08
6.51427e-09
1.33821e-09
1.30321e-09
1.30125e-09
6.41875e-10
2.46677e-11
1.49612e-11
3.31958e-11
3.81691e-12
8.93629e-12
1.93204e-11
4.48612e-11
7.63477e-11
1.12055e-10
1.56684e-10
2.06238e-10
2.38024e-10
2.87445e-09
2.25428e-08
4.92814e-08
1.42996e-08
2.04378e-09
3.61185e-09
1.28506e-09
2.50744e-11
1.49579e-11
1.71026e-11
2.15655e-12
4.92389e-12
1.0352e-11
2.07804e-11
3.6967e-11
6.22314e-11
1.03638e-10
1.70108e-10
2.58966e-10
4.65628e-10
3.99054e-09
2.38152e-08
1.38658e-08
4.48783e-09
4.59966e-09
1.44166e-09
8.70835e-11
1.57664e-11
2.33487e-11
1.03274e-12
2.28448e-12
4.57442e-12
8.58215e-12
1.55738e-11
2.77365e-11
5.07767e-11
9.6246e-11
1.89606e-10
3.6718e-10
9.06665e-10
7.42843e-09
7.09372e-09
4.72207e-09
4.62845e-09
2.81234e-09
6.0688e-10
7.01117e-11
4.62168e-11
3.99608e-13
8.63666e-13
1.67572e-12
3.09933e-12
5.98216e-12
1.05233e-11
2.13056e-11
4.70547e-11
1.14442e-10
2.88743e-10
6.79072e-10
2.14549e-09
3.00791e-09
2.96164e-09
4.20524e-09
3.77051e-09
1.40067e-09
2.25667e-10
8.28386e-11
1.24865e-13
2.6693e-13
5.14361e-13
9.96437e-13
2.1273e-12
4.35232e-12
1.02084e-11
2.70679e-11
8.07689e-11
2.558e-10
7.01744e-10
1.44723e-09
2.08991e-09
2.22243e-09
3.80497e-09
3.93315e-09
1.7889e-09
4.23982e-10
1.45047e-10
3.16691e-14
6.78724e-14
1.34517e-13
2.86973e-13
6.75715e-13
1.62095e-12
4.43962e-12
1.61207e-11
6.57683e-11
2.74249e-10
8.64387e-10
1.76476e-09
2.51123e-09
2.63613e-09
3.90134e-09
3.98305e-09
1.83467e-09
7.14907e-10
1.84604e-10
6.62079e-15
1.45066e-14
3.05699e-14
7.26087e-14
1.82095e-13
5.10164e-13
1.92674e-12
9.94435e-12
5.81883e-11
3.42193e-10
1.30435e-09
2.7671e-09
3.85475e-09
3.83979e-09
4.4767e-09
4.16909e-09
1.95592e-09
8.36982e-10
2.45358e-10
1.16313e-15
2.66025e-15
6.05245e-15
1.5581e-14
4.03595e-14
1.35013e-13
7.57734e-13
5.90185e-12
5.20737e-11
3.3768e-10
1.62437e-09
4.58194e-09
6.40043e-09
6.40788e-09
5.9079e-09
4.7473e-09
1.89051e-09
8.97015e-10
2.98432e-10
1.74376e-16
4.22773e-16
1.02977e-15
2.72938e-15
7.30596e-15
2.8345e-14
2.44342e-13
3.28467e-12
3.18861e-11
2.61858e-10
1.98722e-09
6.8386e-09
9.40832e-09
9.25138e-09
7.84558e-09
4.62382e-09
1.57742e-09
1.00582e-09
3.25371e-10
2.27328e-17
5.82918e-17
1.4731e-16
3.82048e-16
1.07998e-15
5.12849e-15
7.10638e-14
1.60764e-12
1.86703e-11
2.36457e-10
1.88321e-09
7.67303e-09
1.02772e-08
1.04132e-08
7.88512e-09
3.5416e-09
1.73764e-09
1.07961e-09
2.96541e-10
2.59654e-18
6.9163e-18
1.74262e-17
4.37926e-17
1.35615e-16
8.26449e-16
1.43262e-14
4.11689e-13
5.72982e-12
1.30657e-10
1.17733e-09
5.74831e-09
1.01588e-08
1.04129e-08
7.61458e-09
4.80795e-09
2.56905e-09
1.02871e-09
1.98171e-10
2.61014e-19
7.04008e-19
1.71888e-18
4.48976e-18
1.66247e-17
1.22924e-16
1.9182e-15
4.56149e-14
1.28329e-12
3.48531e-11
4.81689e-10
3.21309e-09
8.58945e-09
1.02711e-08
1.02786e-08
8.98625e-09
4.14468e-09
7.53592e-10
5.80903e-11
2.34765e-20
6.51077e-20
1.77094e-19
6.89428e-19
3.83694e-18
2.81409e-17
3.00305e-16
5.83895e-15
1.84418e-13
6.22545e-12
1.18682e-10
1.22003e-09
5.00726e-09
8.58081e-09
9.77604e-09
8.01041e-09
3.86113e-09
5.82842e-10
3.34914e-11
2.20662e-21
8.72327e-21
5.00144e-20
3.80701e-19
2.96412e-18
2.19812e-17
1.575e-16
1.35248e-15
2.47027e-14
8.62359e-13
1.6013e-11
2.47078e-10
1.56566e-09
3.54359e-09
3.99033e-09
2.84344e-09
1.08609e-09
2.85619e-10
2.49953e-11
4.26808e-22
3.71813e-21
3.75019e-20
3.71222e-19
3.42623e-18
2.91446e-17
2.27042e-16
1.62249e-15
1.13127e-14
1.2087e-13
2.54491e-12
2.70841e-11
2.3383e-10
6.31496e-10
7.77169e-10
5.70021e-10
2.52753e-10
6.06122e-11
1.38635e-11
2.10237e-22
2.63963e-21
3.26421e-20
3.80418e-19
4.13142e-18
4.14626e-17
3.77455e-16
3.02138e-15
2.0411e-14
1.1361e-13
5.58788e-13
2.01047e-12
9.06133e-12
4.26593e-11
7.15776e-11
7.92726e-11
6.81308e-11
2.68317e-11
9.6378e-12
1.26687e-22
1.87892e-21
2.70541e-20
3.68566e-19
4.68014e-18
5.38687e-17
5.40683e-16
4.54381e-15
3.08349e-14
1.63701e-13
6.48467e-13
1.98855e-12
5.60704e-12
1.36203e-11
2.67661e-11
4.5168e-11
3.32934e-11
1.63195e-11
5.70753e-12
7.0731e-23
1.1702e-21
1.85273e-20
2.72536e-19
3.65126e-18
4.32992e-17
4.40466e-16
3.72661e-15
2.54183e-14
1.36667e-13
5.48327e-13
1.83808e-12
6.19765e-12
1.78754e-11
3.44044e-11
3.3758e-11
1.72168e-11
7.88543e-12
2.6011e-12
3.45113e-23
6.11128e-22
1.01001e-20
1.50828e-19
1.99966e-18
2.30731e-17
2.27455e-16
1.88047e-15
1.27447e-14
7.05097e-14
2.98076e-13
1.1396e-12
5.14535e-12
1.64091e-11
2.19632e-11
1.34125e-11
6.16427e-12
2.64778e-12
8.74256e-13
1.46016e-23
2.6959e-22
4.52907e-21
6.69556e-20
8.58817e-19
9.4302e-18
8.77403e-17
6.84677e-16
4.41222e-15
2.36371e-14
1.00478e-13
4.20956e-13
2.17517e-12
5.68997e-12
5.13057e-12
2.99003e-12
1.3879e-12
5.10796e-13
2.65418e-13
5.5183e-24
1.06265e-22
1.82869e-21
2.72099e-20
3.44923e-19
3.67736e-18
3.26206e-17
2.39035e-16
1.43029e-15
7.02692e-15
2.7857e-14
1.00142e-13
4.17167e-13
6.84637e-13
5.38693e-13
3.0973e-13
1.52034e-13
6.95455e-14
1.17212e-13
1.98991e-24
4.15566e-23
7.65613e-22
1.21132e-20
1.63044e-19
1.81491e-18
1.61991e-17
1.13947e-16
6.26424e-16
2.65845e-15
8.92929e-15
2.26811e-14
5.90637e-14
5.53301e-14
4.84325e-14
3.11152e-14
2.17793e-14
1.7192e-14
5.8294e-14
7.60034e-25
1.92038e-23
4.46739e-22
8.76987e-21
1.39459e-19
1.65754e-18
1.41028e-17
8.80829e-17
4.18706e-16
1.47824e-15
4.13836e-15
7.36569e-15
1.30036e-14
1.03061e-14
9.7224e-15
6.71542e-15
5.47554e-15
5.12769e-15
2.34636e-14
8.05709e-25
2.21192e-23
4.78524e-22
7.85118e-21
9.82244e-20
9.47564e-19
7.01891e-18
3.91978e-17
1.67373e-16
5.15216e-16
1.26783e-15
1.76911e-15
2.63866e-15
1.80574e-15
1.51282e-15
1.03342e-15
9.02922e-16
9.0781e-16
5.38483e-15
)
;

boundaryField
{
    leftWall
    {
        type            zeroGradient;
    }
    rightWall
    {
        type            zeroGradient;
    }
    lowerWall
    {
        type            zeroGradient;
    }
    atmosphere
    {
        type            inletOutlet;
        inletValue      uniform 0;
        value           nonuniform List<scalar> 
23
(
1.72833e-29
2.63497e-28
3.95254e-27
5.75296e-26
8.05709e-25
0
0
0
0
0
0
0
0
0
0
0
0
0
0
0
0
0
0
)
;
    }
    defaultFaces
    {
        type            empty;
    }
    procBoundary3to1
    {
        type            processor;
        value           nonuniform List<scalar> 
23
(
2.8775e-11
2.78444e-11
2.44424e-11
1.99038e-11
1.3077e-11
1.57097e-11
6.08779e-11
1.3262e-10
1.97364e-10
2.16692e-10
2.5432e-10
1.00862e-09
4.0445e-08
7.77386e-08
7.76812e-08
3.1737e-08
4.69173e-09
2.68061e-09
2.65226e-09
1.89658e-09
5.35748e-10
8.13472e-09
2.19733e-08
)
;
    }
    procBoundary3to2
    {
        type            processor;
        value           nonuniform List<scalar> 
25
(
1.22872e-11
4.48564e-12
1.27117e-12
2.97998e-13
6.06829e-14
1.11423e-14
1.87151e-15
2.85941e-16
3.90332e-17
4.6786e-18
4.89304e-19
4.4431e-20
3.51307e-21
2.4314e-22
1.48821e-23
8.24961e-25
4.57076e-26
3.81462e-27
7.37576e-28
2.0731e-28
5.82431e-29
1.51667e-29
3.66864e-30
8.43868e-31
5.74195e-31
)
;
    }
}


// ************************************************************************* //
