/*--------------------------------*- C++ -*----------------------------------*\
| =========                 |                                                 |
| \\      /  F ield         | OpenFOAM: The Open Source CFD Toolbox           |
|  \\    /   O peration     | Version:  2.4.0                                 |
|   \\  /    A nd           | Web:      www.OpenFOAM.org                      |
|    \\/     M anipulation  |                                                 |
\*---------------------------------------------------------------------------*/
FoamFile
{
    version     2.0;
    format      ascii;
    class       volScalarField;
    location    "0.8";
    object      p;
}
// * * * * * * * * * * * * * * * * * * * * * * * * * * * * * * * * * * * * * //

dimensions      [1 -1 -2 0 0 0 0];

internalField   nonuniform List<scalar> 
575
(
2.5378
2.48219
2.4351
2.397
2.51891
2.4793
2.44349
2.41273
2.45837
2.42833
2.4001
2.37463
2.37819
2.35444
2.33166
2.3104
2.28678
2.26737
2.24848
2.23038
2.18905
2.17271
2.15665
2.14095
2.0875
2.07355
2.05971
2.04601
1.98338
1.97123
1.95918
1.94717
1.87741
1.86682
1.85628
1.84575
1.77004
1.76079
1.75157
1.74235
1.66154
1.65347
1.64543
1.63738
1.55204
1.54503
1.53804
1.53106
1.44163
1.43558
1.42954
1.42353
1.33038
1.32518
1.32001
1.31487
1.21832
1.21389
1.20949
1.20513
1.10549
1.10176
1.09806
1.0944
0.991908
0.988811
0.985761
0.982777
0.877573
0.875025
0.872524
0.870085
0.762513
0.760444
0.758416
0.756442
0.646772
0.645123
0.643511
0.641943
0.53039
0.52911
0.527861
0.526646
0.413453
0.412499
0.411569
0.410666
0.295935
0.295273
0.294627
0.293997
0.178048
0.177654
0.177266
0.176885
0.0595445
0.0594103
0.0592748
0.0591335
2.34602
2.34575
2.36732
2.40328
2.4527
2.51324
2.57563
2.64932
2.73465
2.87158
2.69142
2.25563
1.39178
0.116063
-0.587426
1.06953
1.47121
0.789418
22.5602
2.37044
2.34617
2.34008
2.35189
2.37556
2.40383
2.43098
2.45295
2.46924
2.45319
2.27618
1.88567
1.30379
0.770713
0.217615
0.486272
0.698496
-0.873282
-2.00053
2.33685
2.30453
2.28905
2.2847
2.2895
2.29784
2.30505
2.30373
2.27885
2.20802
2.01371
1.66145
1.16192
0.560358
0.0150842
0.142386
0.701911
0.145225
3.15379
2.27758
2.24365
2.22077
2.20787
2.19953
2.19223
2.18197
2.16042
2.11357
2.02623
1.85146
1.57968
1.17638
0.745172
0.386271
0.279394
0.636747
0.489722
1.69185
2.20164
2.1685
2.14226
2.12207
2.10729
2.08946
2.06915
2.03693
1.98282
1.89898
1.76583
1.56821
1.31294
1.04935
0.81782
0.65398
0.785354
0.832601
1.36786
2.11562
2.08442
2.05725
2.03383
2.01424
1.99134
1.96718
1.93182
1.87845
1.80474
1.70079
1.55415
1.3888
1.20017
1.06899
1.04079
1.07115
1.18223
1.44189
2.02355
1.9947
1.968
1.9435
1.92076
1.89718
1.87081
1.8358
1.78944
1.72831
1.64541
1.53273
1.40819
1.30939
1.25642
1.28049
1.30466
1.40316
1.52193
1.92731
1.90103
1.8758
1.85217
1.82913
1.80568
1.77961
1.74747
1.70896
1.65923
1.59514
1.5067
1.41438
1.37409
1.3601
1.41169
1.46503
1.54338
1.64575
1.82822
1.80457
1.78153
1.75943
1.73759
1.71561
1.69162
1.6638
1.63291
1.59369
1.54105
1.4644
1.39005
1.36931
1.42346
1.52193
1.61961
1.70226
1.84414
1.72694
1.70589
1.68522
1.66508
1.64557
1.62588
1.60518
1.58201
1.55826
1.52759
1.48528
1.4235
1.34843
1.33052
1.46262
1.60066
1.7504
1.86905
2.03215
1.62392
1.60545
1.58734
1.56973
1.55263
1.53578
1.51858
1.50073
1.4826
1.46112
1.43183
1.38884
1.32697
1.33626
1.49401
1.64934
1.8276
1.97102
2.11577
1.5194
1.50338
1.48777
1.47269
1.45822
1.44433
1.43077
1.41764
1.40516
1.39218
1.37618
1.35613
1.3214
1.36241
1.51037
1.65676
1.82829
1.96327
2.07242
1.4135
1.39976
1.38646
1.37387
1.36199
1.35092
1.34072
1.33157
1.32392
1.31739
1.31293
1.31008
1.31401
1.37074
1.48552
1.61658
1.76065
1.88045
1.96335
1.30631
1.29466
1.2836
1.27324
1.26372
1.2552
1.24791
1.24208
1.23837
1.23685
1.23983
1.24965
1.27487
1.3314
1.42462
1.53933
1.65459
1.76473
1.83146
1.19789
1.18805
1.17906
1.17073
1.1633
1.157
1.15213
1.14899
1.14837
1.15044
1.15806
1.17359
1.20422
1.25613
1.32956
1.42664
1.52414
1.62234
1.67752
1.08832
1.07984
1.07291
1.06635
1.06069
1.05623
1.05331
1.05229
1.05382
1.05854
1.06807
1.08603
1.11441
1.15504
1.21419
1.29862
1.38507
1.46572
1.51074
0.977918
0.971896
0.965455
0.960145
0.955884
0.952866
0.95141
0.951869
0.954836
0.961066
0.971238
0.988034
1.00811
1.03547
1.08822
1.16265
1.24344
1.29907
1.33525
0.866114
0.860995
0.856143
0.852053
0.848919
0.846964
0.846489
0.847845
0.851548
0.858167
0.868235
0.881335
0.894909
0.900441
0.958127
1.01594
1.09356
1.12653
1.15844
0.753229
0.749084
0.745338
0.742214
0.739906
0.738634
0.738666
0.740269
0.744023
0.749988
0.759232
0.768317
0.781363
0.785197
0.832042
0.878767
0.943084
0.955452
0.985132
0.639398
0.636113
0.633203
0.630797
0.629046
0.628125
0.628276
0.62962
0.632894
0.637637
0.645092
0.654149
0.665369
0.681336
0.712685
0.744486
0.783184
0.797104
0.817169
0.524669
0.522137
0.519882
0.517988
0.516564
0.515732
0.515701
0.516405
0.518847
0.521916
0.527912
0.535867
0.544559
0.559315
0.581786
0.605914
0.627979
0.641949
0.655007
0.409201
0.407275
0.405528
0.403989
0.402721
0.401788
0.40138
0.401137
0.402635
0.403328
0.407628
0.411974
0.418557
0.428806
0.445435
0.464006
0.476052
0.484054
0.497813
0.29296
0.291607
0.290283
0.288986
0.287751
0.286566
0.285642
0.283972
0.283986
0.283161
0.285453
0.286935
0.290768
0.297398
0.309126
0.321403
0.330522
0.335302
0.346863
0.176259
0.175355
0.17438
0.173225
0.171794
0.169912
0.168425
0.165229
0.163844
0.160133
0.159397
0.157901
0.160663
0.163694
0.171548
0.181405
0.19054
0.19266
0.200882
0.0588754
0.0583864
0.0576939
0.0566595
0.0551773
0.0530576
0.0506343
0.0459846
0.0422266
0.0339544
0.0301626
0.0221754
0.0214325
0.0253697
0.0324939
0.0429285
0.0585323
0.0649446
0.0750384
)
;

boundaryField
{
    leftWall
    {
        type            fixedFluxPressure;
        gradient        nonuniform 0();
        value           nonuniform 0();
    }
    rightWall
    {
        type            fixedFluxPressure;
        gradient        uniform 0;
        value           nonuniform List<scalar> 
25
(
22.5602
-2.00053
3.15379
1.69185
1.36786
1.44189
1.52193
1.64575
1.84414
2.03215
2.11577
2.07242
1.96335
1.83146
1.67752
1.51074
1.33525
1.15844
0.985132
0.817169
0.655007
0.497813
0.346863
0.200882
0.0750384
)
;
    }
    lowerWall
    {
        type            fixedFluxPressure;
        gradient        nonuniform 0();
        value           nonuniform 0();
    }
    atmosphere
    {
        type            totalPressure;
        U               U.air;
        phi             phi.air;
        rho             rho;
        psi             none;
        gamma           1;
        p0              uniform 0;
        value           nonuniform List<scalar> 
23
(
0
0
0
0
0
-3.22547e-05
-0.000345881
-0.00110729
-0.00239429
-0.00428763
-0.00685074
-0.0104349
-0.0144139
-0.0212041
-0.0265901
-0.0364545
-0.0397624
-0.0416308
-0.0381929
-0.0315726
-0.0234695
-0.0184262
-0.011618
)
;
    }
    defaultFaces
    {
        type            empty;
    }
    procBoundary3to1
    {
        type            processor;
        value           nonuniform List<scalar> 
23
(
2.46666
2.37856
2.31409
2.28176
2.26728
2.29834
2.36452
2.43687
2.51251
2.61346
2.70789
2.75947
2.86672
2.79981
2.44118
1.69724
1.29094
1.24423
1.94756
3.3478
1.55489
17.4035
68.2015
)
;
    }
    procBoundary3to2
    {
        type            processor;
        value           nonuniform List<scalar> 
25
(
2.63053
2.58281
2.5059
2.41521
2.31697
2.21444
2.10922
2.00219
1.8938
1.78437
1.67403
1.5629
1.45103
1.33847
1.22523
1.11133
0.996786
0.881601
0.765794
0.649394
0.532428
0.414973
0.296993
0.17867
0.0597525
)
;
    }
}


// ************************************************************************* //
