/*--------------------------------*- C++ -*----------------------------------*\
| =========                 |                                                 |
| \\      /  F ield         | OpenFOAM: The Open Source CFD Toolbox           |
|  \\    /   O peration     | Version:  2.4.0                                 |
|   \\  /    A nd           | Web:      www.OpenFOAM.org                      |
|    \\/     M anipulation  |                                                 |
\*---------------------------------------------------------------------------*/
FoamFile
{
    version     2.0;
    format      ascii;
    class       surfaceScalarField;
    location    "0.8";
    object      phi;
}
// * * * * * * * * * * * * * * * * * * * * * * * * * * * * * * * * * * * * * //

dimensions      [0 3 -1 0 0 0 0];

internalField   nonuniform List<scalar> 
1102
(
0.000147318
4.10518e-05
0.000153957
3.45361e-05
0.000156526
2.70649e-05
1.93691e-05
0.00015491
0.000117496
3.34527e-05
0.000123016
2.9016e-05
0.000125873
2.42077e-05
1.91566e-05
0.000126085
9.80145e-05
2.75964e-05
0.000102481
2.45492e-05
0.000105384
2.13049e-05
1.78329e-05
0.000106708
8.44666e-05
2.30912e-05
8.80302e-05
2.09856e-05
9.07228e-05
1.86123e-05
1.61565e-05
9.23993e-05
7.51658e-05
1.97146e-05
7.79753e-05
1.8176e-05
8.0174e-05
1.64137e-05
1.45617e-05
8.17687e-05
6.76161e-05
1.71641e-05
6.98353e-05
1.59568e-05
7.16303e-05
1.46187e-05
1.31543e-05
7.30377e-05
6.13839e-05
1.51783e-05
6.3231e-05
1.41097e-05
6.48459e-05
1.30038e-05
1.17579e-05
6.62424e-05
5.59668e-05
1.34475e-05
5.76242e-05
1.24523e-05
5.91698e-05
1.14582e-05
1.04052e-05
6.05225e-05
5.1372e-05
1.19541e-05
5.27963e-05
1.1028e-05
5.41544e-05
1.01002e-05
9.14021e-06
5.54194e-05
4.72012e-05
1.06161e-05
4.84915e-05
9.7376e-06
4.9728e-05
8.86366e-06
7.94604e-06
5.09222e-05
4.33335e-05
9.42664e-06
4.44789e-05
8.59225e-06
4.55944e-05
7.7481e-06
6.88096e-06
4.66595e-05
3.96791e-05
8.36488e-06
4.07016e-05
7.56973e-06
4.16911e-05
6.75864e-06
5.91754e-06
4.26545e-05
3.61801e-05
7.42958e-06
3.70806e-05
6.66916e-06
3.79574e-05
5.88182e-06
5.06918e-06
3.88058e-05
3.27936e-05
6.61125e-06
3.35858e-05
5.87706e-06
3.4352e-05
5.11555e-06
4.32594e-06
3.50953e-05
2.9499e-05
5.90436e-06
3.01827e-05
5.19337e-06
3.0846e-05
4.45221e-06
3.68666e-06
3.14853e-05
2.62891e-05
5.30276e-06
2.68721e-05
4.61037e-06
2.74354e-05
3.88891e-06
3.14359e-06
2.79785e-05
2.31507e-05
4.80198e-06
2.36353e-05
4.12577e-06
2.4101e-05
3.42318e-06
2.697e-06
2.45476e-05
2.00796e-05
4.39834e-06
2.04697e-05
3.73569e-06
2.08422e-05
3.05068e-06
2.34249e-06
2.11967e-05
1.70733e-05
4.08759e-06
1.73695e-05
3.43952e-06
1.76522e-05
2.76795e-06
2.07737e-06
1.79173e-05
1.41263e-05
3.86366e-06
1.43351e-05
3.23068e-06
1.45277e-05
2.57538e-06
1.89979e-06
1.47053e-05
1.12423e-05
3.72972e-06
1.13672e-05
3.10578e-06
1.1478e-05
2.46456e-06
1.80422e-06
1.15736e-05
8.4447e-06
3.70559e-06
8.46491e-06
3.08558e-06
8.48054e-06
2.44892e-06
1.79529e-06
8.48947e-06
5.75278e-06
3.72824e-06
5.69979e-06
3.13856e-06
5.62413e-06
2.52458e-06
1.88916e-06
5.53026e-06
3.11441e-06
3.72794e-06
3.07046e-06
3.18251e-06
2.98587e-06
2.60917e-06
2.01209e-06
2.86295e-06
-8.08572e-07
-7.59277e-07
-7.41855e-07
-7.56361e-07
0.00013674
1.80585e-05
0.000115859
-5.16579e-06
9.74726e-05
-1.6962e-05
8.48034e-05
-1.99713e-05
7.59056e-05
-1.76131e-05
6.64094e-05
-1.41122e-05
5.76057e-05
-1.29206e-05
3.94298e-05
-8.82855e-06
-4.97926e-08
2.95392e-06
-9.19486e-05
3.26711e-05
-0.000189325
5.36957e-05
-0.000214509
5.72575e-05
-0.000202376
6.6072e-05
-0.000157525
4.17769e-05
-0.000131753
-0.000114544
-8.81054e-05
-0.00030228
-0.00010134
-0.000382275
-9.45763e-05
-0.00049936
-0.000524745
0.000118236
2.59081e-05
0.000106082
6.98777e-06
9.37552e-05
-4.63502e-06
8.35064e-05
-9.72248e-06
7.60801e-05
-1.01868e-05
7.11313e-05
-9.16342e-06
6.37665e-05
-5.55575e-06
5.4212e-05
7.25939e-07
4.50668e-05
1.20991e-05
3.93838e-05
3.83541e-05
2.4561e-05
6.85184e-05
-2.15865e-06
8.39772e-05
-1.32307e-05
7.71441e-05
-5.92884e-06
3.4475e-05
-3.0091e-05
-9.03818e-05
-7.97149e-05
-0.000252656
-9.93712e-05
-0.000362619
-5.82013e-05
-0.00054053
-0.000582947
0.000104261
2.83553e-05
9.76333e-05
1.36152e-05
8.94695e-05
3.52874e-06
8.26615e-05
-2.9144e-06
7.69848e-05
-4.51011e-06
7.21236e-05
-4.30226e-06
6.88591e-05
-2.29121e-06
6.55144e-05
4.07059e-06
6.21189e-05
1.54946e-05
6.86843e-05
3.17887e-05
8.30787e-05
5.4124e-05
8.46531e-05
8.24027e-05
7.82539e-05
8.35434e-05
7.30592e-05
3.96697e-05
2.80882e-05
-4.54109e-05
-2.25814e-05
-0.000201986
-2.52995e-05
-0.000359901
-1.67535e-06
-0.000564154
-0.000584622
9.23558e-05
2.83987e-05
8.9067e-05
1.69041e-05
8.4431e-05
8.16472e-06
8.05356e-05
9.81019e-07
7.65605e-05
-5.3503e-07
7.48793e-05
-2.62104e-06
7.28367e-05
-2.48627e-07
7.31531e-05
3.75422e-06
7.75521e-05
1.10955e-05
8.60626e-05
2.32783e-05
0.000104146
3.60411e-05
0.000139522
4.70267e-05
0.000159138
6.39267e-05
0.000155555
4.3253e-05
0.000114744
-4.60047e-06
5.54833e-05
-0.000142725
1.71738e-05
-0.000321591
-8.48357e-07
-0.000546131
-0.00058547
8.29518e-05
2.72156e-05
8.18884e-05
1.79675e-05
8.00178e-05
1.00353e-05
7.77615e-05
3.23736e-06
7.65798e-05
6.46653e-07
7.54301e-05
-1.4714e-06
7.66186e-05
-1.43706e-06
8.01689e-05
2.0384e-07
8.56099e-05
5.65456e-06
9.68371e-05
1.2051e-05
0.000115672
1.72058e-05
0.000144281
1.84183e-05
0.000174342
3.38659e-05
0.000183686
3.39086e-05
0.000172445
6.64012e-06
0.000111304
-8.15831e-05
5.50165e-05
-0.000265304
1.06313e-05
-0.000501746
-0.000574839
7.49772e-05
2.52762e-05
7.55551e-05
1.73896e-05
7.55412e-05
1.00492e-05
7.47391e-05
4.03939e-06
7.52113e-05
1.74507e-07
7.57044e-05
-1.96455e-06
7.84512e-05
-4.18381e-06
8.33566e-05
-4.70161e-06
9.06157e-05
-1.60454e-06
0.000103798
-1.13163e-06
0.000121815
-8.10866e-07
0.000142542
-2.30842e-06
0.000173913
2.49455e-06
0.000184043
2.37787e-05
0.00017453
1.61528e-05
0.000129179
-3.62324e-05
7.08866e-05
-0.000207011
1.92801e-05
-0.00045014
-0.000555559
6.86249e-05
2.28936e-05
7.00803e-05
1.59342e-05
7.10398e-05
9.0897e-06
7.14717e-05
3.60741e-06
7.27823e-05
-1.13603e-06
7.48296e-05
-4.01184e-06
7.85655e-05
-7.91978e-06
8.40045e-05
-1.01406e-05
9.23883e-05
-9.98837e-06
0.000106056
-1.47993e-05
0.000124855
-1.96102e-05
0.00014557
-2.30233e-05
0.000166862
-1.87974e-05
0.000171133
1.95077e-05
0.000161001
2.62849e-05
0.000131905
-7.13614e-06
7.84816e-05
-0.000153588
2.66967e-05
-0.000398355
-0.000528862
6.31069e-05
2.03093e-05
6.50048e-05
1.40362e-05
6.64807e-05
7.61385e-06
6.7738e-05
2.35006e-06
6.9581e-05
-2.97902e-06
7.25659e-05
-6.99674e-06
7.65345e-05
-1.18884e-05
8.25872e-05
-1.61933e-05
9.11285e-05
-1.85297e-05
0.000104863
-2.85342e-05
0.000124085
-3.88316e-05
0.00014449
-4.34288e-05
0.000159924
-3.42311e-05
0.000160952
1.84793e-05
0.000151204
3.60333e-05
0.000131318
1.275e-05
9.02855e-05
-0.000112556
4.15765e-05
-0.000349646
-0.000487285
5.80866e-05
1.7642e-05
6.02258e-05
1.1897e-05
6.19694e-05
5.87021e-06
6.37802e-05
5.39216e-07
6.58031e-05
-5.00193e-06
6.87912e-05
-9.9849e-06
7.25319e-05
-1.5629e-05
7.82341e-05
-2.18955e-05
8.67179e-05
-2.70135e-05
9.98667e-05
-4.1683e-05
0.000117888
-5.68524e-05
0.000134823
-6.03647e-05
0.000146377
-4.57845e-05
0.00014361
2.12456e-05
0.000135347
4.4297e-05
0.000124692
2.34051e-05
0.000102165
-9.00284e-05
5.82503e-05
-0.000305732
-0.000429035
5.34427e-05
1.51215e-05
5.56073e-05
9.73243e-06
5.74723e-05
4.0052e-06
5.94486e-05
-1.4371e-06
6.152e-05
-7.07326e-06
6.43068e-05
-1.27718e-05
6.76554e-05
-1.89776e-05
7.20277e-05
-2.62678e-05
7.88644e-05
-3.38502e-05
8.59461e-05
-4.87647e-05
9.59539e-05
-6.68602e-05
0.000106594
-7.10051e-05
0.000114394
-5.35844e-05
0.000112993
2.2647e-05
0.000112447
4.48431e-05
0.000111883
2.39692e-05
0.000104743
-8.28889e-05
6.59505e-05
-0.000266939
-0.000363084
4.90276e-05
1.27534e-05
5.11297e-05
7.63027e-06
5.2996e-05
2.13891e-06
5.48949e-05
-3.33604e-06
5.68843e-05
-9.06263e-06
5.91741e-05
-1.50616e-05
6.18749e-05
-2.16784e-05
6.47064e-05
-2.90993e-05
6.90022e-05
-3.81461e-05
7.05004e-05
-5.02629e-05
7.12997e-05
-6.76595e-05
7.39193e-05
-7.36247e-05
7.60017e-05
-5.56668e-05
8.02287e-05
1.842e-05
8.97193e-05
3.53526e-05
9.81109e-05
1.55776e-05
9.60772e-05
-8.08552e-05
5.9827e-05
-0.000230689
-0.000303258
4.4799e-05
1.06089e-05
4.67477e-05
5.68153e-06
4.85222e-05
3.64407e-07
5.02618e-05
-5.0757e-06
5.2007e-05
-1.08078e-05
5.38461e-05
-1.69007e-05
5.57093e-05
-2.35416e-05
5.73846e-05
-3.07747e-05
5.8711e-05
-3.94725e-05
5.78896e-05
-4.94415e-05
5.27168e-05
-6.24866e-05
4.80768e-05
-6.89847e-05
4.73645e-05
-5.49545e-05
5.85852e-05
7.19928e-06
7.39713e-05
1.99664e-05
8.89673e-05
5.81587e-07
8.46878e-05
-7.65756e-05
4.78942e-05
-0.000193895
-0.000255363
4.07193e-05
8.69538e-06
4.24794e-05
3.92138e-06
4.409e-05
-1.24617e-06
4.56223e-05
-6.60797e-06
4.71036e-05
-1.2289e-05
4.85422e-05
-1.83394e-05
4.98387e-05
-2.48381e-05
5.07982e-05
-3.17342e-05
5.08706e-05
-3.95449e-05
4.89554e-05
-4.75263e-05
4.30981e-05
-5.66294e-05
3.55245e-05
-6.14111e-05
3.32357e-05
-5.26657e-05
4.83419e-05
-7.90698e-06
6.6934e-05
1.37434e-06
8.28286e-05
-1.5313e-05
7.47937e-05
-6.85407e-05
3.9134e-05
-0.000158236
-0.000216229
3.6768e-05
7.02265e-06
3.83203e-05
2.36909e-06
3.97198e-05
-2.64576e-06
4.10371e-05
-7.92521e-06
4.22449e-05
-1.34969e-05
4.33432e-05
-1.94377e-05
4.42322e-05
-2.5727e-05
4.47745e-05
-3.22765e-05
4.46972e-05
-3.94676e-05
4.33212e-05
-4.61504e-05
3.97618e-05
-5.307e-05
3.3403e-05
-5.50523e-05
3.1851e-05
-5.11137e-05
4.63522e-05
-2.24082e-05
6.36736e-05
-1.59471e-05
7.44587e-05
-2.60981e-05
6.46963e-05
-5.87783e-05
3.64026e-05
-0.000129942
-0.000179827
3.29255e-05
5.58241e-06
3.42499e-05
1.04465e-06
3.54486e-05
-3.84446e-06
3.65374e-05
-9.01401e-06
3.7506e-05
-1.44655e-05
3.83211e-05
-2.02528e-05
3.89566e-05
-2.63625e-05
3.93962e-05
-3.27161e-05
3.94251e-05
-3.94965e-05
3.88719e-05
-4.55972e-05
3.81039e-05
-5.2302e-05
3.64958e-05
-5.34441e-05
3.81008e-05
-5.27188e-05
4.83112e-05
-3.26185e-05
5.83488e-05
-2.59848e-05
6.19272e-05
-2.96764e-05
5.21915e-05
-4.90427e-05
3.26738e-05
-0.000110424
-0.000147153
2.91876e-05
4.37329e-06
3.02836e-05
-5.13716e-08
3.12633e-05
-4.82415e-06
3.21287e-05
-9.87945e-06
3.28565e-05
-1.51933e-05
3.34416e-05
-2.08379e-05
3.38501e-05
-2.6771e-05
3.41446e-05
-3.30105e-05
3.4181e-05
-3.9533e-05
3.44925e-05
-4.59087e-05
3.56666e-05
-5.3476e-05
3.87975e-05
-5.6575e-05
4.31366e-05
-5.70579e-05
5.00482e-05
-3.95301e-05
5.31318e-05
-2.90684e-05
5.17528e-05
-2.82975e-05
4.35016e-05
-4.07915e-05
2.843e-05
-9.53525e-05
-0.000118723
2.55267e-05
3.39416e-06
2.64152e-05
-9.39907e-07
2.71759e-05
-5.5848e-06
2.78145e-05
-1.05181e-05
2.83198e-05
-1.56986e-05
2.86783e-05
-2.11963e-05
2.88851e-05
-2.69778e-05
2.90139e-05
-3.31394e-05
2.91368e-05
-3.96559e-05
2.97358e-05
-4.65077e-05
3.16795e-05
-5.54197e-05
3.82831e-05
-6.31786e-05
4.38097e-05
-6.25844e-05
4.66954e-05
-4.24158e-05
4.36511e-05
-2.6024e-05
3.78584e-05
-2.25048e-05
3.24564e-05
-3.53894e-05
2.25135e-05
-8.54097e-05
-9.62095e-05
2.19578e-05
2.63306e-06
2.26245e-05
-1.60658e-06
2.31809e-05
-6.14128e-06
2.35933e-05
-1.09304e-05
2.38636e-05
-1.5969e-05
2.39461e-05
-2.12787e-05
2.38333e-05
-2.68651e-05
2.34489e-05
-3.2755e-05
2.30119e-05
-3.92189e-05
2.24223e-05
-4.5918e-05
2.28313e-05
-5.58287e-05
2.38612e-05
-6.42086e-05
2.54526e-05
-6.41759e-05
2.55491e-05
-4.25123e-05
2.19911e-05
-2.2466e-05
2.02619e-05
-2.07756e-05
2.66398e-05
-4.17673e-05
1.90379e-05
-7.78078e-05
-7.71716e-05
1.84733e-05
2.07706e-06
1.89363e-05
-2.06959e-06
1.92806e-05
-6.48556e-06
1.94984e-05
-1.11481e-05
1.95464e-05
-1.6017e-05
1.93911e-05
-2.11233e-05
1.89753e-05
-2.64493e-05
1.81404e-05
-3.19201e-05
1.68117e-05
-3.78902e-05
1.43634e-05
-4.34697e-05
9.82763e-06
-5.1293e-05
3.39481e-06
-5.77757e-05
-1.91778e-06
-5.88633e-05
-5.28447e-07
-4.39016e-05
2.17832e-06
-2.51728e-05
1.01506e-05
-2.87479e-05
2.06198e-05
-5.22365e-05
1.27527e-05
-6.99407e-05
-6.44188e-05
1.50577e-05
1.72463e-06
1.53235e-05
-2.33537e-06
1.54818e-05
-6.64391e-06
1.55009e-05
-1.11672e-05
1.53667e-05
-1.58828e-05
1.50237e-05
-2.07804e-05
1.43827e-05
-2.58083e-05
1.33059e-05
-3.08432e-05
1.1569e-05
-3.61533e-05
8.717e-06
-4.06177e-05
3.811e-06
-4.6387e-05
-3.00492e-06
-5.09598e-05
-9.79562e-06
-5.20726e-05
-8.84167e-06
-4.48556e-05
-9.84194e-07
-3.30303e-05
9.28432e-06
-3.90164e-05
1.43896e-05
-5.73418e-05
7.04145e-06
-6.25925e-05
-5.73774e-05
1.17355e-05
1.56273e-06
1.18114e-05
-2.41124e-06
1.17942e-05
-6.62674e-06
1.1662e-05
-1.1035e-05
1.14013e-05
-1.56221e-05
1.09602e-05
-2.03392e-05
1.03e-05
-2.51482e-05
9.31999e-06
-2.98632e-05
7.88129e-06
-3.47146e-05
5.75435e-06
-3.84908e-05
2.06793e-06
-4.27006e-05
-2.94388e-06
-4.5948e-05
-9.01573e-06
-4.60007e-05
-6.06472e-06
-4.78066e-05
3.86636e-06
-4.29613e-05
1.03168e-05
-4.54669e-05
7.92132e-06
-5.49463e-05
3.65424e-06
-5.83255e-05
-5.37232e-05
8.46196e-06
1.59024e-06
8.36132e-06
-2.3106e-06
8.16684e-06
-6.43226e-06
7.87949e-06
-1.07477e-05
7.47785e-06
-1.52205e-05
6.935e-06
-1.97964e-05
6.22135e-06
-2.44345e-05
5.23496e-06
-2.88768e-05
3.89644e-06
-3.33761e-05
2.48995e-06
-3.70843e-05
7.39716e-07
-4.09503e-05
-6.62586e-08
-4.5142e-05
-1.5411e-06
-4.45259e-05
1.92957e-06
-5.12772e-05
7.5672e-06
-4.8599e-05
1.11273e-05
-4.90269e-05
8.5047e-06
-5.23238e-05
4.70066e-06
-5.45214e-05
-4.90225e-05
5.26986e-06
1.85065e-06
4.97031e-06
-2.01104e-06
4.64364e-06
-6.1056e-06
4.25459e-06
-1.03586e-05
3.76084e-06
-1.47267e-05
3.13417e-06
-1.91697e-05
2.411e-06
-2.37114e-05
1.72921e-06
-2.8195e-05
1.20765e-06
-3.28545e-05
1.44242e-06
-3.7319e-05
1.28641e-06
-4.07943e-05
3.23979e-06
-4.70954e-05
6.10785e-06
-4.73939e-05
9.34734e-06
-5.45167e-05
1.2548e-05
-5.17997e-05
1.49903e-05
-5.14692e-05
1.20652e-05
-4.93987e-05
7.23298e-06
-4.96892e-05
-4.17895e-05
2.4339e-06
2.2797e-06
1.88089e-06
-1.45803e-06
1.24038e-06
-5.46508e-06
5.96033e-07
-9.71425e-06
3.82597e-08
-1.41689e-05
-3.12006e-07
-1.88194e-05
-4.18293e-07
-2.36051e-05
4.7178e-08
-2.86605e-05
6.46867e-07
-3.34542e-05
2.77506e-06
-3.94472e-05
5.3084e-06
-4.33277e-05
9.54285e-06
-5.13298e-05
1.38517e-05
-5.17028e-05
1.53211e-05
-5.59862e-05
1.6098e-05
-5.25765e-05
1.54718e-05
-5.0843e-05
1.14342e-05
-4.5361e-05
5.97844e-06
-4.42335e-05
-3.58111e-05
-9.06214e-07
-1.13995e-06
-1.36606e-06
-1.52115e-06
-1.54099e-06
-1.36051e-06
-8.90103e-07
1.89117e-07
1.67672e-06
4.58875e-06
7.98951e-06
1.16242e-05
1.52464e-05
1.65677e-05
1.68469e-05
1.50672e-05
1.05497e-05
5.59593e-06
)
;

boundaryField
{
    leftWall
    {
        type            calculated;
        value           nonuniform 0();
    }
    rightWall
    {
        type            calculated;
        value           uniform 0;
    }
    lowerWall
    {
        type            calculated;
        value           nonuniform 0();
    }
    atmosphere
    {
        type            calculated;
        value           nonuniform List<scalar> 
23
(
3.6478e-06
3.13322e-06
2.59175e-06
2.0266e-06
2.42956e-06
-1.22429e-06
-5.23897e-06
-9.55915e-06
-1.41491e-05
-1.89999e-05
-2.40755e-05
-2.97397e-05
-3.49418e-05
-4.23592e-05
-4.67284e-05
-5.49645e-05
-5.53249e-05
-5.73075e-05
-5.28557e-05
-4.90633e-05
-4.08435e-05
-3.92797e-05
-3.02151e-05
)
;
    }
    defaultFaces
    {
        type            empty;
        value           nonuniform 0();
    }
    procBoundary3to1
    {
        type            processor;
        value           nonuniform List<scalar> 
23
(
-5.13081e-05
-4.11758e-05
-2.96335e-05
-1.77535e-05
1.1161e-07
2.60471e-05
3.53483e-05
3.26406e-05
2.65109e-05
2.36084e-05
2.17243e-05
2.70044e-05
3.65257e-05
5.92278e-05
4.36802e-05
-3.20732e-05
-7.8205e-05
-8.66274e-05
8.87709e-05
0.000258633
0.00039551
0.000492597
0.000430169
)
;
    }
    procBoundary3to2
    {
        type            processor;
        value           nonuniform List<scalar> 
25
(
-0.000137061
-0.000109896
-9.21582e-05
-7.99614e-05
-7.17892e-05
-6.50656e-05
-5.93982e-05
-5.4236e-05
-4.98786e-05
-4.58631e-05
-4.21441e-05
-3.86173e-05
-3.52448e-05
-3.19753e-05
-2.87921e-05
-2.56875e-05
-2.26499e-05
-1.96759e-05
-1.67626e-05
-1.39023e-05
-1.11084e-05
-8.42057e-06
-5.77544e-06
-3.11411e-06
8.88732e-07
)
;
    }
}


// ************************************************************************* //
