/*--------------------------------*- C++ -*----------------------------------*\
| =========                 |                                                 |
| \\      /  F ield         | OpenFOAM: The Open Source CFD Toolbox           |
|  \\    /   O peration     | Version:  2.4.0                                 |
|   \\  /    A nd           | Web:      www.OpenFOAM.org                      |
|    \\/     M anipulation  |                                                 |
\*---------------------------------------------------------------------------*/
FoamFile
{
    version     2.0;
    format      ascii;
    class       surfaceScalarField;
    location    "0.8";
    object      phi.oil;
}
// * * * * * * * * * * * * * * * * * * * * * * * * * * * * * * * * * * * * * //

dimensions      [0 3 -1 0 0 0 0];

internalField   nonuniform List<scalar> 
1102
(
0.000146618
4.0131e-05
0.000151658
3.37841e-05
0.000156045
2.67914e-05
1.91071e-05
0.00015411
0.000117329
3.32107e-05
0.0001226
2.88308e-05
0.00012571
2.41198e-05
1.90576e-05
0.00012575
9.79853e-05
2.7639e-05
0.000102452
2.45741e-05
0.000105325
2.13172e-05
1.78325e-05
0.000106678
8.44606e-05
2.30905e-05
8.80209e-05
2.09856e-05
9.07152e-05
1.86103e-05
1.61534e-05
9.23936e-05
7.51589e-05
1.97117e-05
7.79691e-05
1.81732e-05
8.01683e-05
1.64107e-05
1.45587e-05
8.17635e-05
6.76102e-05
1.71617e-05
6.983e-05
1.59543e-05
7.16253e-05
1.46162e-05
1.31518e-05
7.30329e-05
6.1379e-05
1.51762e-05
6.32262e-05
1.41076e-05
6.48414e-05
1.30017e-05
1.17558e-05
6.62379e-05
5.59623e-05
1.34457e-05
5.76199e-05
1.24505e-05
5.91657e-05
1.14564e-05
1.04035e-05
6.05185e-05
5.1368e-05
1.19526e-05
5.27923e-05
1.10264e-05
5.41505e-05
1.00987e-05
9.13882e-06
5.54156e-05
4.71974e-05
1.06148e-05
4.84879e-05
9.73636e-06
4.97245e-05
8.86247e-06
7.94492e-06
5.09188e-05
4.33301e-05
9.42556e-06
4.44755e-05
8.59124e-06
4.55912e-05
7.74715e-06
6.88008e-06
4.66564e-05
3.96759e-05
8.364e-06
4.06985e-05
7.56892e-06
4.16881e-05
6.75789e-06
5.91686e-06
4.26517e-05
3.61772e-05
7.42888e-06
3.70778e-05
6.66852e-06
3.79548e-05
5.88124e-06
5.06866e-06
3.88033e-05
3.2791e-05
6.61069e-06
3.35832e-05
5.87657e-06
3.43497e-05
5.11512e-06
4.32557e-06
3.50931e-05
2.94966e-05
5.90394e-06
3.01804e-05
5.19301e-06
3.08439e-05
4.4519e-06
3.68641e-06
3.14834e-05
2.6287e-05
5.30244e-06
2.68701e-05
4.61011e-06
2.74336e-05
3.88871e-06
3.14345e-06
2.79768e-05
2.31488e-05
4.80176e-06
2.36335e-05
4.12561e-06
2.40994e-05
3.42308e-06
2.69694e-06
2.45461e-05
2.00779e-05
4.3982e-06
2.04681e-05
3.73561e-06
2.08408e-05
3.05065e-06
2.3425e-06
2.11954e-05
1.70719e-05
4.08751e-06
1.73681e-05
3.43951e-06
1.7651e-05
2.76798e-06
2.07744e-06
1.79162e-05
1.41251e-05
3.86364e-06
1.4334e-05
3.23071e-06
1.45267e-05
2.57546e-06
1.89991e-06
1.47043e-05
1.12413e-05
3.72974e-06
1.13663e-05
3.10586e-06
1.14772e-05
2.46468e-06
1.80438e-06
1.15729e-05
8.44395e-06
3.70565e-06
8.46421e-06
3.08568e-06
8.47991e-06
2.44907e-06
1.79549e-06
8.48889e-06
5.75224e-06
3.72831e-06
5.6993e-06
3.13869e-06
5.6237e-06
2.52476e-06
1.88938e-06
5.52986e-06
3.11411e-06
3.72805e-06
3.0702e-06
3.18267e-06
2.98563e-06
2.60936e-06
2.01232e-06
2.86273e-06
-8.08658e-07
-7.59364e-07
-7.41927e-07
-7.56435e-07
0.000136941
1.7555e-05
0.000115916
-5.52326e-06
9.67465e-05
-1.7304e-05
8.40978e-05
-2.02478e-05
7.40235e-05
-1.79619e-05
6.59168e-05
-1.43847e-05
5.79621e-05
-1.42753e-05
3.94863e-05
-9.76269e-06
-5.26424e-06
1.66456e-06
-0.000105405
1.83853e-05
-0.000203238
4.09414e-05
-0.000223612
4.50547e-05
-0.000104842
3.53456e-05
-4.00049e-05
-0.000275255
-2.65866e-05
-0.000329875
-2.92745e-05
-0.000490433
-9.35223e-06
-0.000681923
2.18863e-05
-0.000835838
-0.000676943
0.000118298
2.58097e-05
0.000106084
6.90971e-06
9.31781e-05
-4.7126e-06
8.29356e-05
-9.9753e-06
7.55998e-05
-1.04307e-05
7.05998e-05
-9.65442e-06
6.35194e-05
-5.89253e-06
5.42237e-05
1.35532e-07
4.44764e-05
1.10984e-05
2.9397e-05
3.71521e-05
1.29027e-05
6.18173e-05
-1.66856e-05
7.44567e-05
-2.05947e-05
6.58958e-05
-1.39242e-05
-0.000196015
-1.85597e-05
-0.000297985
-4.53869e-06
-0.000442497
5.79065e-05
-0.000541423
8.0094e-05
-0.000921145
-0.000610245
0.000104259
2.8341e-05
9.76211e-05
1.35984e-05
8.93945e-05
3.50888e-06
8.22782e-05
-2.96065e-06
7.67961e-05
-4.67399e-06
7.19554e-05
-4.41185e-06
6.8693e-05
-2.59507e-06
6.48717e-05
3.70949e-06
6.15398e-05
1.51766e-05
6.22757e-05
3.11417e-05
7.28382e-05
5.06988e-05
6.98672e-05
8.01149e-05
2.77278e-05
8.16118e-05
-1.4266e-07
-0.000138644
-8.10921e-06
-0.000247496
2.90434e-05
-0.000248712
6.70129e-05
-0.000375774
5.12296e-05
-0.000744955
-0.000734272
9.23499e-05
2.83902e-05
8.90579e-05
1.68949e-05
8.44121e-05
8.15453e-06
8.04639e-05
9.61937e-07
7.65261e-05
-5.75846e-07
7.48574e-05
-2.67698e-06
7.27601e-05
-2.87786e-07
7.3018e-05
3.74057e-06
7.67429e-05
1.1051e-05
8.30715e-05
2.32058e-05
9.29683e-05
3.61881e-05
0.000129184
4.78184e-05
7.20403e-05
6.6261e-05
3.61144e-05
-9.15567e-05
2.17443e-05
-0.000154792
3.43569e-05
-0.000155387
3.0331e-05
-0.00037285
1.65491e-05
-0.000496926
-0.000598054
8.29464e-05
2.72085e-05
8.18819e-05
1.79607e-05
8.00109e-05
1.00284e-05
7.77495e-05
3.22852e-06
7.65729e-05
6.389e-07
7.54204e-05
-1.48078e-06
7.66131e-05
-1.43894e-06
8.01702e-05
2.07339e-07
8.53733e-05
5.65823e-06
9.51091e-05
1.2134e-05
0.000108355
1.76412e-05
0.000135715
1.97048e-05
8.81434e-05
3.73303e-05
9.75285e-05
-3.90579e-05
0.000102837
-5.15292e-05
7.13351e-05
-0.000108385
4.16542e-05
-0.000291728
1.91734e-05
-0.000482879
-0.000572415
7.49722e-05
2.52704e-05
7.555e-05
1.73842e-05
7.55362e-05
1.00443e-05
7.47337e-05
4.03487e-06
7.52065e-05
1.70878e-07
7.5699e-05
-1.96768e-06
7.84529e-05
-4.18511e-06
8.33739e-05
-4.70025e-06
9.05571e-05
-1.60603e-06
0.000103236
-1.23369e-06
0.000118521
-1.19651e-06
0.000135083
-2.53589e-06
9.56316e-05
3.89267e-06
0.000122672
-2.33684e-06
0.000134409
1.67528e-06
0.000116579
-5.44202e-05
7.66199e-05
-0.000200901
2.43882e-05
-0.000445061
-0.00055161
6.86203e-05
2.28889e-05
7.00757e-05
1.59299e-05
7.10353e-05
9.08597e-06
7.14673e-05
3.60424e-06
7.27784e-05
-1.13858e-06
7.48256e-05
-4.01363e-06
7.8569e-05
-7.92026e-06
8.40291e-05
-1.01385e-05
9.22988e-05
-9.9921e-06
0.000104911
-1.49822e-05
0.000122495
-2.04758e-05
0.000141869
-2.42163e-05
0.000105027
-1.89447e-05
0.000135456
1.60858e-05
0.000133095
2.5893e-05
0.000113
-9.63009e-06
8.23166e-05
-0.000129469
3.16284e-05
-0.00039147
-0.000524143
6.31026e-05
2.03055e-05
6.50007e-05
1.40329e-05
6.64767e-05
7.61101e-06
6.77341e-05
2.34776e-06
6.95773e-05
-2.9808e-06
7.2562e-05
-6.99797e-06
7.65382e-05
-1.18889e-05
8.26135e-05
-1.61918e-05
9.08797e-05
-1.85285e-05
0.00010161
-2.83539e-05
0.00012003
-3.8861e-05
0.000142707
-4.45756e-05
0.00013108
-3.48555e-05
0.000141982
1.97321e-05
0.000140837
3.48478e-05
0.000117363
1.55267e-05
9.3705e-05
-9.8044e-05
4.60718e-05
-0.000341518
-0.000480647
5.80828e-05
1.7639e-05
6.02221e-05
1.18945e-05
6.19658e-05
5.86811e-06
6.37767e-05
5.37606e-07
6.57995e-05
-5.0031e-06
6.87876e-05
-9.98567e-06
7.25326e-05
-1.56294e-05
7.82625e-05
-2.18947e-05
8.67077e-05
-2.69763e-05
9.64267e-05
-4.14617e-05
0.000104018
-5.71875e-05
0.000130479
-6.06309e-05
0.000143638
-4.62745e-05
0.000142509
2.16655e-05
0.000116239
4.52634e-05
0.00011442
2.61626e-05
0.000101992
-8.25814e-05
6.36669e-05
-0.000297949
-0.000422116
5.34393e-05
1.51191e-05
5.5604e-05
9.73048e-06
5.74692e-05
4.00371e-06
5.94455e-05
-1.43818e-06
6.15167e-05
-7.07398e-06
6.43034e-05
-1.27722e-05
6.76539e-05
-1.89779e-05
7.20354e-05
-2.62667e-05
7.88999e-05
-3.38443e-05
8.06251e-05
-4.87885e-05
7.66902e-05
-6.6997e-05
0.00010143
-7.17604e-05
0.000112334
-5.43419e-05
0.000114768
2.02311e-05
0.000115645
4.16036e-05
0.000104844
2.75215e-05
0.000108545
-7.58759e-05
7.17509e-05
-0.000261543
-0.000359862
4.90245e-05
1.27516e-05
5.11268e-05
7.62885e-06
5.29932e-05
2.13789e-06
5.48921e-05
-3.3367e-06
5.68812e-05
-9.06301e-06
5.91708e-05
-1.50617e-05
6.18718e-05
-2.16785e-05
6.47058e-05
-2.90991e-05
6.90126e-05
-3.81448e-05
6.592e-05
-5.02779e-05
5.35225e-05
-6.78576e-05
6.91276e-05
-7.40633e-05
5.53869e-05
-5.5934e-05
7.12601e-05
1.42773e-05
8.34548e-05
2.95762e-05
8.97175e-05
1.43845e-05
0.000101384
-7.35769e-05
6.53478e-05
-0.000230179
-0.000304167
4.47963e-05
1.06075e-05
4.67451e-05
5.68055e-06
4.85197e-05
3.6377e-07
5.02593e-05
-5.07605e-06
5.20041e-05
-1.08079e-05
5.3843e-05
-1.69006e-05
5.5706e-05
-2.35414e-05
5.73817e-05
-3.07745e-05
5.86751e-05
-3.94728e-05
5.45902e-05
-4.94631e-05
3.9511e-05
-6.23123e-05
4.25213e-05
-6.72632e-05
3.76545e-05
-5.49557e-05
5.49426e-05
4.00497e-06
7.2261e-05
1.39609e-05
8.30412e-05
-7.86777e-06
8.75912e-05
-7.77935e-05
5.25039e-05
-0.000197748
-0.000258527
4.07169e-05
8.69441e-06
4.24772e-05
3.92075e-06
4.40878e-05
-1.2465e-06
4.56198e-05
-6.60808e-06
4.71008e-05
-1.2289e-05
4.85393e-05
-1.83391e-05
4.98357e-05
-2.48377e-05
5.07953e-05
-3.17341e-05
5.08395e-05
-3.95455e-05
4.79365e-05
-4.75416e-05
3.40253e-05
-5.65467e-05
2.92483e-05
-5.87579e-05
3.12463e-05
-5.13404e-05
5.54742e-05
-6.58601e-06
7.93718e-05
-7.9108e-07
8.96934e-05
-2.67707e-05
7.88473e-05
-8.32659e-05
4.17186e-05
-0.000156265
-0.000217344
3.67659e-05
7.022e-06
3.83182e-05
2.36874e-06
3.97178e-05
-2.64586e-06
4.10348e-05
-7.92511e-06
4.22424e-05
-1.34966e-05
4.33405e-05
-1.94372e-05
4.42294e-05
-2.57265e-05
4.47719e-05
-3.22765e-05
4.46819e-05
-3.94696e-05
4.31381e-05
-4.61588e-05
3.62543e-05
-5.31264e-05
2.62585e-05
-5.4444e-05
3.17174e-05
-4.79326e-05
5.12324e-05
-2.25581e-05
6.87351e-05
-1.7109e-05
8.79317e-05
-3.50654e-05
7.64826e-05
-7.73322e-05
3.88487e-05
-0.000144051
-0.000183867
3.29237e-05
5.58203e-06
3.42481e-05
1.04454e-06
3.54467e-05
-3.84436e-06
3.65353e-05
-9.01373e-06
3.75037e-05
-1.44651e-05
3.83187e-05
-2.02521e-05
3.89543e-05
-2.63618e-05
3.93942e-05
-3.27162e-05
3.94061e-05
-3.95006e-05
3.88118e-05
-4.56047e-05
3.7285e-05
-5.22799e-05
3.23531e-05
-5.34255e-05
3.50368e-05
-5.3126e-05
5.05461e-05
-3.28445e-05
5.76823e-05
-2.85854e-05
6.74076e-05
-3.82456e-05
6.26194e-05
-6.79005e-05
3.40647e-05
-0.000112124
-0.0001404
2.9186e-05
4.37313e-06
3.0282e-05
-5.12922e-08
3.12615e-05
-4.82388e-06
3.21267e-05
-9.879e-06
3.28543e-05
-1.51926e-05
3.34394e-05
-2.0837e-05
3.38481e-05
-2.67702e-05
3.41423e-05
-3.30109e-05
3.41427e-05
-3.95416e-05
3.4386e-05
-4.59309e-05
3.48784e-05
-5.34471e-05
3.76578e-05
-5.54527e-05
4.12515e-05
-5.68203e-05
5.02963e-05
-4.14874e-05
5.10194e-05
-3.23195e-05
5.47793e-05
-3.78366e-05
4.66985e-05
-5.80652e-05
2.63868e-05
-9.57762e-05
-0.000119481
2.55253e-05
3.39419e-06
2.64137e-05
-9.39664e-07
2.71742e-05
-5.58436e-06
2.78127e-05
-1.05174e-05
2.83179e-05
-1.56978e-05
2.86764e-05
-2.11952e-05
2.88832e-05
-2.69768e-05
2.90084e-05
-3.31403e-05
2.90596e-05
-3.96727e-05
2.94779e-05
-4.65477e-05
2.95273e-05
-5.54243e-05
3.75897e-05
-6.33042e-05
4.37376e-05
-6.32303e-05
4.65361e-05
-4.42035e-05
4.13647e-05
-2.92258e-05
4.31962e-05
-3.57369e-05
3.18825e-05
-4.37378e-05
2.07053e-05
-8.58344e-05
-9.68324e-05
2.19565e-05
2.63325e-06
2.26231e-05
-1.60619e-06
2.31794e-05
-6.14068e-06
2.35916e-05
-1.09296e-05
2.38619e-05
-1.59679e-05
2.39444e-05
-2.12773e-05
2.38314e-05
-2.68638e-05
2.34336e-05
-3.27563e-05
2.28643e-05
-3.9241e-05
2.18725e-05
-4.60281e-05
2.05381e-05
-5.61572e-05
2.26739e-05
-6.5474e-05
2.53921e-05
-6.63156e-05
2.64184e-05
-4.56225e-05
2.33721e-05
-2.91438e-05
2.25414e-05
-3.1371e-05
2.5043e-05
-4.30227e-05
1.76509e-05
-7.33647e-05
-7.75163e-05
1.84722e-05
2.07738e-06
1.89351e-05
-2.06905e-06
1.92793e-05
-6.48481e-06
1.9497e-05
-1.11471e-05
1.9545e-05
-1.60157e-05
1.93897e-05
-2.11217e-05
1.89731e-05
-2.64477e-05
1.8124e-05
-3.19213e-05
1.6651e-05
-3.79116e-05
1.38659e-05
-4.35698e-05
7.84637e-06
-5.15937e-05
3.01132e-06
-5.84086e-05
-1.74314e-06
-6.15722e-05
2.38369e-06
-4.77728e-05
5.51266e-06
-3.30186e-05
1.0006e-05
-3.00827e-05
1.87414e-05
-4.97727e-05
1.27279e-05
-6.91491e-05
-6.39372e-05
1.50567e-05
1.72507e-06
1.53224e-05
-2.3347e-06
1.54807e-05
-6.643e-06
1.54997e-05
-1.1166e-05
1.53656e-05
-1.58813e-05
1.50227e-05
-2.07785e-05
1.43809e-05
-2.58064e-05
1.32974e-05
-3.08432e-05
1.1459e-05
-3.61664e-05
8.44137e-06
-4.06537e-05
2.71365e-06
-4.63356e-05
-3.41546e-06
-4.94451e-05
-9.64748e-06
-5.25993e-05
-6.46604e-06
-4.52279e-05
9.40292e-08
-3.18844e-05
7.81669e-06
-3.70235e-05
1.47989e-05
-5.63171e-05
6.95637e-06
-6.05059e-05
-5.74154e-05
1.17347e-05
1.56327e-06
1.18106e-05
-2.41047e-06
1.17933e-05
-6.6257e-06
1.16611e-05
-1.10337e-05
1.14005e-05
-1.56205e-05
1.09594e-05
-2.03373e-05
1.02989e-05
-2.5146e-05
9.3174e-06
-2.98619e-05
7.85032e-06
-3.47189e-05
5.6874e-06
-3.85145e-05
1.57881e-06
-4.27322e-05
-3.2342e-06
-4.53896e-05
-9.21724e-06
-4.16085e-05
-5.964e-06
-4.20213e-05
3.70805e-06
-3.63575e-05
9.35044e-06
-3.93857e-05
9.03811e-06
-5.02511e-05
3.541e-06
-5.8421e-05
-5.37589e-05
8.46135e-06
1.59086e-06
8.36068e-06
-2.30973e-06
8.16618e-06
-6.43114e-06
7.87885e-06
-1.07462e-05
7.47728e-06
-1.52188e-05
6.93451e-06
-1.97944e-05
6.22065e-06
-2.44324e-05
5.23394e-06
-2.8875e-05
3.88401e-06
-3.33766e-05
2.49247e-06
-3.70938e-05
5.96199e-07
-4.09867e-05
7.36538e-08
-4.49482e-05
-1.76574e-06
-4.28485e-05
1.67034e-06
-4.69299e-05
7.5417e-06
-4.56914e-05
1.0499e-05
-4.79402e-05
8.59564e-06
-5.23967e-05
4.62382e-06
-5.45791e-05
-4.90355e-05
5.26945e-06
1.85132e-06
4.96987e-06
-2.01017e-06
4.64322e-06
-6.10447e-06
4.25419e-06
-1.03573e-05
3.7605e-06
-1.47251e-05
3.13386e-06
-1.91679e-05
2.41053e-06
-2.37094e-05
1.7289e-06
-2.81934e-05
1.2024e-06
-3.28549e-05
1.46065e-06
-3.73245e-05
1.28122e-06
-4.07936e-05
3.33287e-06
-4.7027e-05
6.09756e-06
-4.7162e-05
9.30084e-06
-5.42909e-05
1.25571e-05
-5.16632e-05
1.49695e-05
-5.14631e-05
1.20888e-05
-4.94471e-05
7.20727e-06
-4.97568e-05
-4.18198e-05
2.43367e-06
2.28037e-06
1.88066e-06
-1.45716e-06
1.24014e-06
-5.46403e-06
5.95826e-07
-9.71299e-06
3.80737e-08
-1.41675e-05
-3.12159e-07
-1.88179e-05
-4.18493e-07
-2.36034e-05
4.82419e-08
-2.86588e-05
6.45942e-07
-3.34519e-05
2.78778e-06
-3.94342e-05
5.30817e-06
-4.32969e-05
9.55831e-06
-5.13088e-05
1.38421e-05
-5.1673e-05
1.53148e-05
-5.59591e-05
1.61109e-05
-5.25719e-05
1.54747e-05
-5.08533e-05
1.14346e-05
-4.53947e-05
5.97091e-06
-4.42679e-05
-3.58303e-05
-9.06289e-07
-1.14002e-06
-1.36613e-06
-1.52122e-06
-1.54104e-06
-1.36056e-06
-8.9014e-07
1.89308e-07
1.6767e-06
4.58821e-06
7.98939e-06
1.1624e-05
1.52461e-05
1.65713e-05
1.68465e-05
1.50683e-05
1.05489e-05
5.59336e-06
)
;

boundaryField
{
    leftWall
    {
        type            fixedValue;
        value           nonuniform 0();
    }
    rightWall
    {
        type            fixedValue;
        value           uniform 0;
    }
    lowerWall
    {
        type            fixedValue;
        value           nonuniform 0();
    }
    atmosphere
    {
        type            calculated;
        value           nonuniform List<scalar> 
23
(
3.64793e-06
3.13339e-06
2.59195e-06
2.02683e-06
2.43022e-06
-1.22345e-06
-5.23794e-06
-9.55794e-06
-1.41477e-05
-1.89984e-05
-2.40739e-05
-2.9738e-05
-3.49399e-05
-4.23572e-05
-4.67262e-05
-5.49621e-05
-5.53223e-05
-5.73046e-05
-5.28528e-05
-4.90604e-05
-4.0841e-05
-3.92771e-05
-3.0212e-05
)
;
    }
    defaultFaces
    {
        type            empty;
        value           nonuniform 0();
    }
    procBoundary3to1
    {
        type            processor;
        value           nonuniform List<scalar> 
23
(
-5.02593e-05
-4.07544e-05
-2.86934e-05
-1.70563e-05
8.35724e-07
2.67522e-05
3.60035e-05
3.31229e-05
2.67965e-05
2.47982e-05
2.24097e-05
2.75238e-05
4.36821e-05
6.0503e-05
3.90317e-05
-2.56489e-05
-3.45829e-05
0.000264206
0.000377158
0.000392582
0.000576869
0.000555744
0.000469642
)
;
    }
    procBoundary3to2
    {
        type            processor;
        value           nonuniform List<scalar> 
25
(
-0.00013665
-0.000109823
-9.21314e-05
-7.99503e-05
-7.17812e-05
-6.50587e-05
-5.93927e-05
-5.42313e-05
-4.98745e-05
-4.58593e-05
-4.21406e-05
-3.86141e-05
-3.52418e-05
-3.19726e-05
-2.87896e-05
-2.56853e-05
-2.26479e-05
-1.96742e-05
-1.6761e-05
-1.3901e-05
-1.11073e-05
-8.41975e-06
-5.77486e-06
-3.11376e-06
8.88864e-07
)
;
    }
}


// ************************************************************************* //
