/*--------------------------------*- C++ -*----------------------------------*\
| =========                 |                                                 |
| \\      /  F ield         | OpenFOAM: The Open Source CFD Toolbox           |
|  \\    /   O peration     | Version:  2.4.0                                 |
|   \\  /    A nd           | Web:      www.OpenFOAM.org                      |
|    \\/     M anipulation  |                                                 |
\*---------------------------------------------------------------------------*/
FoamFile
{
    version     2.0;
    format      ascii;
    class       surfaceScalarField;
    location    "0.8";
    object      phi.mercury;
}
// * * * * * * * * * * * * * * * * * * * * * * * * * * * * * * * * * * * * * //

dimensions      [0 3 -1 0 0 0 0];

internalField   nonuniform List<scalar> 
1102
(
0.000147313
4.1049e-05
0.000153952
3.45323e-05
0.000156521
2.70599e-05
1.93632e-05
0.000154906
0.000117491
3.34486e-05
0.000123011
2.90117e-05
0.000125868
2.4203e-05
1.91517e-05
0.00012608
9.80097e-05
2.75922e-05
0.000102476
2.4545e-05
0.000105379
2.13006e-05
1.78286e-05
0.000106703
8.44617e-05
2.30875e-05
8.80253e-05
2.09819e-05
9.07178e-05
1.86086e-05
1.61528e-05
9.23943e-05
7.5161e-05
1.97114e-05
7.79704e-05
1.81728e-05
8.01691e-05
1.64105e-05
1.45587e-05
8.17639e-05
6.76114e-05
1.71614e-05
6.98306e-05
1.59541e-05
7.16256e-05
1.46161e-05
1.31518e-05
7.30331e-05
6.13795e-05
1.5176e-05
6.32265e-05
1.41075e-05
6.48415e-05
1.30016e-05
1.17558e-05
6.6238e-05
5.59626e-05
1.34456e-05
5.762e-05
1.24505e-05
5.91657e-05
1.14564e-05
1.04035e-05
6.05185e-05
5.1368e-05
1.19526e-05
5.27923e-05
1.10264e-05
5.41505e-05
1.00987e-05
9.13881e-06
5.54157e-05
4.71975e-05
1.06148e-05
4.84879e-05
9.73636e-06
4.97245e-05
8.86247e-06
7.94492e-06
5.09188e-05
4.33301e-05
9.42556e-06
4.44755e-05
8.59124e-06
4.55912e-05
7.74715e-06
6.88008e-06
4.66564e-05
3.96759e-05
8.364e-06
4.06985e-05
7.56892e-06
4.16881e-05
6.75789e-06
5.91686e-06
4.26517e-05
3.61772e-05
7.42888e-06
3.70778e-05
6.66852e-06
3.79548e-05
5.88124e-06
5.06866e-06
3.88033e-05
3.2791e-05
6.61069e-06
3.35832e-05
5.87657e-06
3.43497e-05
5.11512e-06
4.32557e-06
3.50931e-05
2.94966e-05
5.90394e-06
3.01804e-05
5.19301e-06
3.08439e-05
4.4519e-06
3.68641e-06
3.14834e-05
2.6287e-05
5.30244e-06
2.68701e-05
4.61011e-06
2.74336e-05
3.88871e-06
3.14345e-06
2.79768e-05
2.31488e-05
4.80176e-06
2.36335e-05
4.12561e-06
2.40994e-05
3.42308e-06
2.69694e-06
2.45461e-05
2.00779e-05
4.3982e-06
2.04681e-05
3.73561e-06
2.08408e-05
3.05065e-06
2.3425e-06
2.11954e-05
1.70719e-05
4.08751e-06
1.73681e-05
3.43951e-06
1.7651e-05
2.76798e-06
2.07744e-06
1.79162e-05
1.41251e-05
3.86364e-06
1.4334e-05
3.23071e-06
1.45267e-05
2.57546e-06
1.89991e-06
1.47043e-05
1.12413e-05
3.72974e-06
1.13663e-05
3.10586e-06
1.14772e-05
2.46468e-06
1.80438e-06
1.15729e-05
8.44395e-06
3.70565e-06
8.46421e-06
3.08568e-06
8.47991e-06
2.44907e-06
1.79549e-06
8.48889e-06
5.75224e-06
3.72831e-06
5.6993e-06
3.13869e-06
5.6237e-06
2.52476e-06
1.88938e-06
5.52986e-06
3.11411e-06
3.72805e-06
3.0702e-06
3.18267e-06
2.98563e-06
2.60936e-06
2.01232e-06
2.86273e-06
-8.08658e-07
-7.59364e-07
-7.41927e-07
-7.56435e-07
0.000136727
1.80436e-05
0.00011583
-5.1825e-06
9.74306e-05
-1.69886e-05
8.47797e-05
-2.00041e-05
7.58827e-05
-1.76505e-05
6.63964e-05
-1.41399e-05
5.76009e-05
-1.29803e-05
3.91634e-05
-8.87676e-06
-1.13656e-05
2.78434e-06
-0.000100324
1.21273e-05
-0.000131626
3.25766e-05
-0.000200898
4.04927e-05
-0.000200135
5.11532e-05
-0.000117703
1.75018e-05
-7.55844e-05
-0.000211952
-5.52787e-05
-0.000395971
-3.49449e-05
-0.000508609
6.59976e-06
-0.000730679
-0.000651154
0.000118227
2.58959e-05
0.000106069
6.97439e-06
9.37352e-05
-4.65075e-06
8.34841e-05
-9.74432e-06
7.60655e-05
-1.02106e-05
7.11137e-05
-9.19743e-06
6.37422e-05
-5.58036e-06
5.41925e-05
6.90985e-07
4.26199e-05
1.20652e-05
2.69204e-05
3.73168e-05
1.42134e-05
5.3862e-05
-5.76897e-06
6.88556e-05
-1.482e-05
7.56298e-05
-8.65333e-06
2.25551e-05
-2.52787e-05
-0.000155633
-6.14216e-05
-0.000301772
-4.87162e-05
-0.000377514
1.57475e-05
-0.000666893
-0.000599412
0.000104254
2.83451e-05
9.76247e-05
1.36048e-05
8.94597e-05
3.51752e-06
8.26488e-05
-2.92631e-06
7.69733e-05
-4.52499e-06
7.21062e-05
-4.31465e-06
6.88434e-05
-2.31419e-06
6.54864e-05
4.04395e-06
6.20643e-05
1.54764e-05
6.59185e-05
3.1753e-05
6.56055e-05
5.2952e-05
7.81629e-05
7.56033e-05
6.82622e-05
8.00818e-05
6.46268e-05
3.46709e-05
2.36239e-05
-6.88763e-05
-1.89948e-05
-0.000198208
-2.35989e-05
-0.000359989
-1.34344e-06
-0.000565304
-0.000584809
9.23501e-05
2.83902e-05
8.90604e-05
1.68958e-05
8.44242e-05
8.15662e-06
8.05277e-05
9.73088e-07
7.65525e-05
-5.42807e-07
7.48713e-05
-2.62941e-06
7.28229e-05
-2.56372e-07
7.31492e-05
3.74833e-06
7.757e-05
1.10874e-05
8.5971e-05
2.32721e-05
9.62108e-05
3.61443e-05
0.000137279
4.83573e-05
0.000154623
6.43677e-05
0.000150782
4.07879e-05
0.000112287
-7.36371e-06
5.7589e-05
-0.000139864
1.82676e-05
-0.000319261
-8.31304e-07
-0.000545749
-0.000585415
8.29465e-05
2.72086e-05
8.18827e-05
1.79608e-05
8.00121e-05
1.00291e-05
7.77554e-05
3.2317e-06
7.6574e-05
6.41725e-07
7.54235e-05
-1.47593e-06
7.66139e-05
-1.44033e-06
8.01728e-05
2.02235e-07
8.56224e-05
5.65435e-06
9.69469e-05
1.20483e-05
0.000115273
1.71525e-05
0.00014431
1.89097e-05
0.000172962
3.4981e-05
0.000181291
3.33159e-05
0.000171631
6.79215e-06
0.000112938
-8.03073e-05
5.77223e-05
-0.000263791
1.06912e-05
-0.00050101
-0.000574732
7.49722e-05
2.52704e-05
7.555e-05
1.73842e-05
7.55361e-05
1.00444e-05
7.47341e-05
4.03519e-06
7.52064e-05
1.70982e-07
7.56991e-05
-1.96743e-06
7.84477e-05
-4.18572e-06
8.33622e-05
-4.70237e-06
9.06487e-05
-1.60543e-06
0.000103945
-1.15903e-06
0.000121783
-9.54621e-07
0.000142695
-2.54404e-06
0.00017341
2.21545e-06
0.000182002
2.37898e-05
0.000174285
1.66483e-05
0.000130549
-3.54731e-05
7.35926e-05
-0.000206158
1.96235e-05
-0.000449036
-0.000555491
6.86204e-05
2.28889e-05
7.00757e-05
1.59299e-05
7.10353e-05
9.08598e-06
7.14673e-05
3.60426e-06
7.27779e-05
-1.13855e-06
7.48249e-05
-4.01373e-06
7.85625e-05
-7.92096e-06
8.40114e-05
-1.01408e-05
9.24374e-05
-9.98992e-06
0.000106186
-1.48569e-05
0.000124829
-1.99545e-05
0.000145656
-2.36637e-05
0.000166688
-1.92928e-05
0.00016997
1.94706e-05
0.000160987
2.67438e-05
0.000132538
-6.60858e-06
8.04603e-05
-0.000152634
2.75778e-05
-0.000397805
-0.000528697
6.31027e-05
2.03055e-05
6.50007e-05
1.40328e-05
6.64767e-05
7.61102e-06
6.77341e-05
2.34777e-06
6.9577e-05
-2.98079e-06
7.25616e-05
-6.998e-06
7.65317e-05
-1.18891e-05
8.25945e-05
-1.61931e-05
9.11869e-05
-1.85307e-05
0.000104866
-2.85515e-05
0.000123733
-3.91305e-05
0.000144488
-4.4217e-05
0.000159826
-3.48278e-05
0.000160653
1.80167e-05
0.000151433
3.6404e-05
0.000131283
1.32831e-05
9.15623e-05
-0.000111958
4.26954e-05
-0.00034926
-0.000487046
5.80828e-05
1.7639e-05
6.02221e-05
1.18945e-05
6.19658e-05
5.86811e-06
6.37767e-05
5.37606e-07
6.57994e-05
-5.0031e-06
6.87873e-05
-9.98567e-06
7.25285e-05
-1.56294e-05
7.82419e-05
-2.18953e-05
8.67809e-05
-2.70088e-05
9.96149e-05
-4.16631e-05
0.000115756
-5.70869e-05
0.000134414
-6.05461e-05
0.000146295
-4.59096e-05
0.00014388
2.1151e-05
0.000135657
4.44845e-05
0.000122758
2.36166e-05
0.000102708
-8.97348e-05
5.94129e-05
-0.00030526
-0.000428846
5.34393e-05
1.51191e-05
5.5604e-05
9.73048e-06
5.74692e-05
4.00371e-06
5.94455e-05
-1.43818e-06
6.15166e-05
-7.07397e-06
6.43031e-05
-1.27722e-05
6.76518e-05
-1.89777e-05
7.20299e-05
-2.62674e-05
7.89038e-05
-3.38476e-05
8.48946e-05
-4.87755e-05
9.11745e-05
-6.69386e-05
0.000105874
-7.12583e-05
0.000114243
-5.37402e-05
0.000113531
2.26507e-05
0.000111464
4.49893e-05
0.000108269
2.41129e-05
0.000105
-8.26622e-05
6.72288e-05
-0.000266646
-0.000363102
4.90245e-05
1.27516e-05
5.11268e-05
7.62885e-06
5.29932e-05
2.13789e-06
5.48921e-05
-3.3367e-06
5.68812e-05
-9.06301e-06
5.91706e-05
-1.50617e-05
6.18712e-05
-2.16782e-05
6.47042e-05
-2.90987e-05
6.90276e-05
-3.81445e-05
6.92251e-05
-5.02651e-05
6.56366e-05
-6.76689e-05
7.32257e-05
-7.34878e-05
7.60453e-05
-5.56891e-05
8.01612e-05
1.85956e-05
8.71124e-05
3.54207e-05
9.62221e-05
1.51267e-05
9.64567e-05
-8.06368e-05
6.11665e-05
-0.000230647
-0.000303425
4.47963e-05
1.06075e-05
4.67451e-05
5.68055e-06
4.85197e-05
3.6377e-07
5.02593e-05
-5.07605e-06
5.20041e-05
-1.08079e-05
5.38428e-05
-1.69006e-05
5.57058e-05
-2.35412e-05
5.73813e-05
-3.07739e-05
5.87077e-05
-3.94714e-05
5.73172e-05
-4.94494e-05
4.82329e-05
-6.25253e-05
4.65711e-05
-6.84936e-05
4.76483e-05
-5.48793e-05
5.81542e-05
7.26168e-06
7.32734e-05
1.88822e-05
8.64697e-05
-4.02845e-07
8.55175e-05
-7.59561e-05
4.91223e-05
-0.000194143
-0.000255559
4.07169e-05
8.69441e-06
4.24772e-05
3.92075e-06
4.40878e-05
-1.2465e-06
4.56198e-05
-6.60808e-06
4.71008e-05
-1.2289e-05
4.85392e-05
-1.83391e-05
4.98354e-05
-2.48374e-05
5.07951e-05
-3.17332e-05
5.08658e-05
-3.95434e-05
4.88206e-05
-4.75273e-05
4.07223e-05
-5.66618e-05
3.29793e-05
-6.10226e-05
3.36578e-05
-5.18911e-05
4.90717e-05
-7.7201e-06
6.75517e-05
1.00957e-06
7.78557e-05
-1.56606e-05
7.55068e-05
-6.8898e-05
4.00268e-05
-0.000158405
-0.000216267
3.67659e-05
7.022e-06
3.83182e-05
2.36874e-06
3.97178e-05
-2.64586e-06
4.10348e-05
-7.92511e-06
4.22423e-05
-1.34966e-05
4.33404e-05
-1.94372e-05
4.42293e-05
-2.57262e-05
4.47717e-05
-3.22752e-05
4.46943e-05
-3.94658e-05
4.3307e-05
-4.61485e-05
3.92018e-05
-5.30763e-05
3.11886e-05
-5.49017e-05
3.1746e-05
-4.93487e-05
4.73155e-05
-2.05674e-05
6.39911e-05
-1.42647e-05
7.11614e-05
-2.44434e-05
6.5011e-05
-5.80088e-05
3.70106e-05
-0.000130148
-0.000179836
3.29237e-05
5.58203e-06
3.42481e-05
1.04454e-06
3.54467e-05
-3.84436e-06
3.65353e-05
-9.01373e-06
3.75037e-05
-1.44651e-05
3.83186e-05
-2.0252e-05
3.89541e-05
-2.63614e-05
3.93938e-05
-3.27145e-05
3.94229e-05
-3.94945e-05
3.88701e-05
-4.55947e-05
3.8065e-05
-5.22994e-05
3.61346e-05
-5.34334e-05
3.77889e-05
-5.21082e-05
4.86751e-05
-3.0907e-05
5.83004e-05
-2.47285e-05
6.09423e-05
-2.92249e-05
5.26529e-05
-4.92916e-05
3.29045e-05
-0.000110553
-0.000147166
2.9186e-05
4.37313e-06
3.0282e-05
-5.12922e-08
3.12615e-05
-4.82388e-06
3.21267e-05
-9.879e-06
3.28543e-05
-1.51926e-05
3.34393e-05
-2.08369e-05
3.3848e-05
-2.67697e-05
3.41426e-05
-3.30087e-05
3.41792e-05
-3.95307e-05
3.4491e-05
-4.5906e-05
3.56659e-05
-5.34729e-05
3.88354e-05
-5.65648e-05
4.31368e-05
-5.69733e-05
5.01365e-05
-3.92951e-05
5.31765e-05
-2.89549e-05
5.17499e-05
-2.83313e-05
4.362e-05
-4.08654e-05
2.84656e-05
-9.53678e-05
-0.000118725
2.55253e-05
3.39419e-06
2.64137e-05
-9.39664e-07
2.71742e-05
-5.58436e-06
2.78127e-05
-1.05174e-05
2.83179e-05
-1.56977e-05
2.86764e-05
-2.11951e-05
2.88833e-05
-2.69762e-05
2.90123e-05
-3.31373e-05
2.91354e-05
-3.96534e-05
2.97344e-05
-4.65049e-05
3.16782e-05
-5.54167e-05
3.82841e-05
-6.31754e-05
4.38128e-05
-6.25808e-05
4.67009e-05
-4.24135e-05
4.36504e-05
-2.60405e-05
3.78668e-05
-2.25279e-05
3.24716e-05
-3.5399e-05
2.25223e-05
-8.54108e-05
-9.62103e-05
2.19565e-05
2.63325e-06
2.26231e-05
-1.60619e-06
2.31794e-05
-6.14068e-06
2.35916e-05
-1.09296e-05
2.38619e-05
-1.59679e-05
2.39444e-05
-2.12773e-05
2.38319e-05
-2.68632e-05
2.34477e-05
-3.27528e-05
2.30107e-05
-3.92163e-05
2.2421e-05
-4.59152e-05
2.283e-05
-5.58257e-05
2.38596e-05
-6.42055e-05
2.54522e-05
-6.41728e-05
2.55501e-05
-4.25098e-05
2.19821e-05
-2.24669e-05
2.02584e-05
-2.0779e-05
2.66413e-05
-4.17563e-05
1.9042e-05
-7.78077e-05
-7.71701e-05
1.84722e-05
2.07738e-06
1.89351e-05
-2.06905e-06
1.92793e-05
-6.48481e-06
1.9497e-05
-1.11471e-05
1.9545e-05
-1.60157e-05
1.93898e-05
-2.11217e-05
1.89742e-05
-2.64473e-05
1.81394e-05
-3.19177e-05
1.68107e-05
-3.78876e-05
1.43622e-05
-4.34668e-05
9.82607e-06
-5.129e-05
3.39242e-06
-5.77728e-05
-1.9218e-06
-5.88607e-05
-5.2141e-07
-4.38997e-05
2.1796e-06
-2.51716e-05
1.01346e-05
-2.8736e-05
2.06216e-05
-5.22291e-05
1.27541e-05
-6.99399e-05
-6.44158e-05
1.50567e-05
1.72507e-06
1.53224e-05
-2.3347e-06
1.54807e-05
-6.643e-06
1.54997e-05
-1.1166e-05
1.53656e-05
-1.58813e-05
1.50227e-05
-2.07785e-05
1.43819e-05
-2.58062e-05
1.33052e-05
-3.08408e-05
1.15682e-05
-3.61506e-05
8.71607e-06
-4.06148e-05
3.80969e-06
-4.63839e-05
-3.00709e-06
-5.09568e-05
-9.80058e-06
-5.20702e-05
-8.83916e-06
-4.48505e-05
-9.85955e-07
-3.30177e-05
9.27786e-06
-3.90084e-05
1.43909e-05
-5.73382e-05
7.04129e-06
-6.25889e-05
-5.73734e-05
1.17347e-05
1.56327e-06
1.18106e-05
-2.41047e-06
1.17933e-05
-6.6257e-06
1.16611e-05
-1.10337e-05
1.14005e-05
-1.56205e-05
1.09595e-05
-2.03372e-05
1.02994e-05
-2.51459e-05
9.3194e-06
-2.98607e-05
7.88065e-06
-3.47119e-05
5.7536e-06
-3.84878e-05
2.06699e-06
-4.26975e-05
-2.94512e-06
-4.59447e-05
-9.01789e-06
-4.59975e-05
-6.06591e-06
-4.78023e-05
3.8651e-06
-4.29558e-05
1.03156e-05
-4.54623e-05
7.92115e-06
-5.49423e-05
3.65402e-06
-5.83212e-05
-5.37188e-05
8.46135e-06
1.59086e-06
8.36068e-06
-2.30973e-06
8.16618e-06
-6.43114e-06
7.87885e-06
-1.07462e-05
7.47728e-06
-1.52188e-05
6.93452e-06
-1.97944e-05
6.22092e-06
-2.44323e-05
5.23454e-06
-2.88744e-05
3.89595e-06
-3.33735e-05
2.48936e-06
-3.70815e-05
7.39024e-07
-4.09473e-05
-6.69491e-08
-4.51388e-05
-1.5419e-06
-4.45224e-05
1.92877e-06
-5.12734e-05
7.56654e-06
-4.85949e-05
1.11265e-05
-4.90227e-05
8.50422e-06
-5.23194e-05
4.70055e-06
-5.45169e-05
-4.9018e-05
5.26945e-06
1.85132e-06
4.96987e-06
-2.01017e-06
4.64322e-06
-6.10447e-06
4.25419e-06
-1.03573e-05
3.7605e-06
-1.47251e-05
3.13388e-06
-1.91679e-05
2.41074e-06
-2.37094e-05
1.72893e-06
-2.81929e-05
1.20731e-06
-3.28522e-05
1.44199e-06
-3.73166e-05
1.28592e-06
-4.07916e-05
3.23928e-06
-4.70925e-05
6.10732e-06
-4.73907e-05
9.34682e-06
-5.45133e-05
1.25475e-05
-5.17959e-05
1.49897e-05
-5.14653e-05
1.20648e-05
-4.93944e-05
7.23281e-06
-4.96849e-05
-4.17852e-05
2.43367e-06
2.28037e-06
1.88066e-06
-1.45716e-06
1.24014e-06
-5.46403e-06
5.95826e-07
-9.71299e-06
3.80757e-08
-1.41675e-05
-3.12155e-07
-1.88179e-05
-4.18438e-07
-2.36034e-05
4.70181e-08
-2.86587e-05
6.46663e-07
-3.34522e-05
2.77481e-06
-3.94451e-05
5.30812e-06
-4.33253e-05
9.54254e-06
-5.13273e-05
1.38514e-05
-5.16999e-05
1.53208e-05
-5.59831e-05
1.60977e-05
-5.25732e-05
1.54715e-05
-5.08394e-05
1.14339e-05
-4.53572e-05
5.9783e-06
-4.42294e-05
-3.58069e-05
-9.06289e-07
-1.14002e-06
-1.36613e-06
-1.52122e-06
-1.54104e-06
-1.36056e-06
-8.90154e-07
1.89058e-07
1.67665e-06
4.58866e-06
7.9894e-06
1.16241e-05
1.52463e-05
1.65676e-05
1.68468e-05
1.50671e-05
1.05496e-05
5.59588e-06
)
;

boundaryField
{
    leftWall
    {
        type            fixedValue;
        value           nonuniform 0();
    }
    rightWall
    {
        type            fixedValue;
        value           uniform 0;
    }
    lowerWall
    {
        type            fixedValue;
        value           nonuniform 0();
    }
    atmosphere
    {
        type            calculated;
        value           nonuniform List<scalar> 
23
(
3.64793e-06
3.13339e-06
2.59195e-06
2.02683e-06
2.43022e-06
-1.22345e-06
-5.23794e-06
-9.55794e-06
-1.41477e-05
-1.89984e-05
-2.40739e-05
-2.9738e-05
-3.49399e-05
-4.23572e-05
-4.67262e-05
-5.49621e-05
-5.53223e-05
-5.73046e-05
-5.28526e-05
-4.90599e-05
-4.08398e-05
-3.92757e-05
-3.0211e-05
)
;
    }
    defaultFaces
    {
        type            empty;
        value           nonuniform 0();
    }
    procBoundary3to1
    {
        type            processor;
        value           nonuniform List<scalar> 
23
(
-5.13103e-05
-4.11752e-05
-2.96291e-05
-1.77458e-05
1.34222e-07
2.60669e-05
3.53868e-05
3.26916e-05
2.65564e-05
2.36727e-05
2.17665e-05
2.74022e-05
4.34771e-05
6.31197e-05
4.78002e-05
-2.81276e-05
-7.79925e-05
-6.48218e-05
0.000205511
0.000336928
0.000522202
0.000543029
0.000463171
)
;
    }
    procBoundary3to2
    {
        type            processor;
        value           nonuniform List<scalar> 
25
(
-0.000137057
-0.000109892
-9.21534e-05
-7.99565e-05
-7.17843e-05
-6.50608e-05
-5.93936e-05
-5.42317e-05
-4.98746e-05
-4.58593e-05
-4.21406e-05
-3.86141e-05
-3.52418e-05
-3.19726e-05
-2.87896e-05
-2.56853e-05
-2.26479e-05
-1.96742e-05
-1.6761e-05
-1.3901e-05
-1.11073e-05
-8.41975e-06
-5.77486e-06
-3.11376e-06
8.88864e-07
)
;
    }
}


// ************************************************************************* //
