/*--------------------------------*- C++ -*----------------------------------*\
| =========                 |                                                 |
| \\      /  F ield         | OpenFOAM: The Open Source CFD Toolbox           |
|  \\    /   O peration     | Version:  2.4.0                                 |
|   \\  /    A nd           | Web:      www.OpenFOAM.org                      |
|    \\/     M anipulation  |                                                 |
\*---------------------------------------------------------------------------*/
FoamFile
{
    version     2.0;
    format      ascii;
    class       surfaceScalarField;
    location    "0.8";
    object      phi.water;
}
// * * * * * * * * * * * * * * * * * * * * * * * * * * * * * * * * * * * * * //

dimensions      [0 3 -1 0 0 0 0];

internalField   nonuniform List<scalar> 
1102
(
0.000147325
4.10901e-05
0.000153943
3.45682e-05
0.000156511
2.70731e-05
1.93592e-05
0.000154926
0.000117491
3.34612e-05
0.000123009
2.90215e-05
0.000125866
2.42071e-05
1.91525e-05
0.000126083
9.80095e-05
2.75942e-05
0.000102476
2.45463e-05
0.000105379
2.13014e-05
1.78289e-05
0.000106703
8.44617e-05
2.30876e-05
8.80252e-05
2.09819e-05
9.07178e-05
1.86086e-05
1.61528e-05
9.23943e-05
7.5161e-05
1.97114e-05
7.79704e-05
1.81728e-05
8.01691e-05
1.64105e-05
1.45587e-05
8.17639e-05
6.76114e-05
1.71614e-05
6.98306e-05
1.59541e-05
7.16256e-05
1.46161e-05
1.31518e-05
7.30331e-05
6.13795e-05
1.5176e-05
6.32265e-05
1.41075e-05
6.48415e-05
1.30016e-05
1.17558e-05
6.6238e-05
5.59626e-05
1.34456e-05
5.762e-05
1.24505e-05
5.91657e-05
1.14564e-05
1.04035e-05
6.05185e-05
5.1368e-05
1.19526e-05
5.27923e-05
1.10264e-05
5.41505e-05
1.00987e-05
9.13881e-06
5.54157e-05
4.71975e-05
1.06148e-05
4.84879e-05
9.73636e-06
4.97245e-05
8.86247e-06
7.94492e-06
5.09188e-05
4.33301e-05
9.42556e-06
4.44755e-05
8.59124e-06
4.55912e-05
7.74715e-06
6.88008e-06
4.66564e-05
3.96759e-05
8.364e-06
4.06985e-05
7.56892e-06
4.16881e-05
6.75789e-06
5.91686e-06
4.26517e-05
3.61772e-05
7.42888e-06
3.70778e-05
6.66852e-06
3.79548e-05
5.88124e-06
5.06866e-06
3.88033e-05
3.2791e-05
6.61069e-06
3.35832e-05
5.87657e-06
3.43497e-05
5.11512e-06
4.32557e-06
3.50931e-05
2.94966e-05
5.90394e-06
3.01804e-05
5.19301e-06
3.08439e-05
4.4519e-06
3.68641e-06
3.14834e-05
2.6287e-05
5.30244e-06
2.68701e-05
4.61011e-06
2.74336e-05
3.88871e-06
3.14345e-06
2.79768e-05
2.31488e-05
4.80176e-06
2.36335e-05
4.12561e-06
2.40994e-05
3.42308e-06
2.69694e-06
2.45461e-05
2.00779e-05
4.3982e-06
2.04681e-05
3.73561e-06
2.08408e-05
3.05065e-06
2.3425e-06
2.11954e-05
1.70719e-05
4.08751e-06
1.73681e-05
3.43951e-06
1.7651e-05
2.76798e-06
2.07744e-06
1.79162e-05
1.41251e-05
3.86364e-06
1.4334e-05
3.23071e-06
1.45267e-05
2.57546e-06
1.89991e-06
1.47043e-05
1.12413e-05
3.72974e-06
1.13663e-05
3.10586e-06
1.14772e-05
2.46468e-06
1.80438e-06
1.15729e-05
8.44395e-06
3.70565e-06
8.46421e-06
3.08568e-06
8.47991e-06
2.44907e-06
1.79549e-06
8.48889e-06
5.75224e-06
3.72831e-06
5.6993e-06
3.13869e-06
5.6237e-06
2.52476e-06
1.88938e-06
5.52986e-06
3.11411e-06
3.72805e-06
3.0702e-06
3.18267e-06
2.98563e-06
2.60936e-06
2.01232e-06
2.86273e-06
-8.08658e-07
-7.59364e-07
-7.41927e-07
-7.56435e-07
0.000136768
1.80283e-05
0.000115863
-5.18814e-06
9.74609e-05
-1.69781e-05
8.47916e-05
-1.99872e-05
7.58091e-05
-1.76313e-05
6.59332e-05
-1.41447e-05
5.71738e-05
-1.34659e-05
3.9327e-05
-9.91504e-06
-5.16788e-06
1.96241e-06
-6.47128e-05
1.70647e-05
-0.00017043
5.33993e-05
-0.000214722
5.4169e-05
-0.000197405
6.59289e-05
-0.00011277
1.69808e-05
-7.55418e-05
-0.00021019
-5.5366e-05
-0.000393905
-3.49329e-05
-0.000508493
6.59431e-06
-0.000730636
-0.000651112
0.000118233
2.58949e-05
0.000106076
6.97525e-06
9.37469e-05
-4.64677e-06
8.34974e-05
-9.73402e-06
7.60691e-05
-1.01979e-05
7.11093e-05
-9.17941e-06
6.37215e-05
-5.57251e-06
5.42001e-05
6.79705e-07
4.42564e-05
1.19973e-05
3.53546e-05
3.80953e-05
2.32847e-05
6.53879e-05
5.41027e-07
8.17859e-05
-1.3792e-05
7.69933e-05
-8.34714e-06
2.31591e-05
-2.60441e-05
-0.000156585
-6.25913e-05
-0.00029692
-4.867e-05
-0.00037704
1.57555e-05
-0.000666561
-0.000598489
0.000104255
2.83452e-05
9.76269e-05
1.36054e-05
8.94626e-05
3.51939e-06
8.26543e-05
-2.92306e-06
7.69773e-05
-4.51813e-06
7.21156e-05
-4.30918e-06
6.8851e-05
-2.2983e-06
6.55051e-05
4.06418e-06
6.20955e-05
1.54927e-05
6.80207e-05
3.18068e-05
8.04908e-05
5.38827e-05
8.24272e-05
8.22131e-05
7.66559e-05
8.35565e-05
6.33026e-05
3.45769e-05
2.32422e-05
-7.20849e-05
-2.13425e-05
-0.000202489
-2.3576e-05
-0.000360265
-1.4106e-06
-0.000565026
-0.000584709
9.23502e-05
2.83903e-05
8.9061e-05
1.6896e-05
8.44248e-05
8.15718e-06
8.05293e-05
9.74169e-07
7.65541e-05
-5.41072e-07
7.48727e-05
-2.62624e-06
7.28297e-05
-2.52965e-07
7.31463e-05
3.75066e-06
7.75489e-05
1.10925e-05
8.6072e-05
2.32792e-05
0.000103717
3.61886e-05
0.000138694
4.84542e-05
0.000157129
6.46452e-05
0.000151834
3.99853e-05
0.000112537
-8.18617e-06
5.53443e-05
-0.000142591
1.72745e-05
-0.000322041
-8.48683e-07
-0.000546091
-0.00058546
8.29465e-05
2.72086e-05
8.18829e-05
1.79609e-05
8.00122e-05
1.00292e-05
7.77559e-05
3.23199e-06
7.65741e-05
6.42025e-07
7.54242e-05
-1.47525e-06
7.66123e-05
-1.44017e-06
8.01627e-05
2.01425e-07
8.56043e-05
5.65271e-06
9.68555e-05
1.20496e-05
0.000115856
1.72291e-05
0.000144439
1.88264e-05
0.000173373
3.4721e-05
0.000182222
3.30737e-05
0.000172024
6.21276e-06
0.00011136
-8.15614e-05
5.50287e-05
-0.000265327
1.06303e-05
-0.000501713
-0.000574827
7.49722e-05
2.52704e-05
7.555e-05
1.73842e-05
7.55361e-05
1.00444e-05
7.47342e-05
4.03524e-06
7.52062e-05
1.71033e-07
7.5699e-05
-1.96735e-06
7.84455e-05
-4.18597e-06
8.33509e-05
-4.70316e-06
9.06109e-05
-1.60556e-06
0.0001038
-1.13279e-06
0.000121845
-8.13017e-07
0.000142658
-2.27294e-06
0.00017364
2.63722e-06
0.000183648
2.36993e-05
0.000174462
1.61056e-05
0.00012943
-3.62501e-05
7.09759e-05
-0.000206968
1.92853e-05
-0.000450103
-0.000555548
6.86204e-05
2.28889e-05
7.00757e-05
1.59299e-05
7.10353e-05
9.08598e-06
7.14673e-05
3.60427e-06
7.27778e-05
-1.13856e-06
7.48247e-05
-4.01379e-06
7.85603e-05
-7.92118e-06
8.39992e-05
-1.01414e-05
9.23845e-05
-9.98877e-06
0.000106059
-1.48005e-05
0.000124863
-1.96185e-05
0.0001456
-2.30409e-05
0.000166818
-1.87983e-05
0.000171029
1.95173e-05
0.000160967
2.62869e-05
0.000132045
-7.14108e-06
7.85528e-05
-0.000153538
2.67213e-05
-0.000398328
-0.000528849
6.31027e-05
2.03055e-05
6.50007e-05
1.40328e-05
6.64767e-05
7.61101e-06
6.77341e-05
2.34777e-06
6.9577e-05
-2.98079e-06
7.25615e-05
-6.99803e-06
7.65297e-05
-1.18892e-05
8.25824e-05
-1.61937e-05
9.11258e-05
-1.85296e-05
0.000104872
-2.85343e-05
0.0001241
-3.88403e-05
0.000144505
-4.34646e-05
0.000159922
-3.42613e-05
0.000160926
1.84786e-05
0.000151207
3.60459e-05
0.00013139
1.27688e-05
9.03413e-05
-0.000112524
4.16115e-05
-0.000349623
-0.000487269
5.80828e-05
1.7639e-05
6.02221e-05
1.18945e-05
6.19658e-05
5.86811e-06
6.37767e-05
5.37606e-07
6.57994e-05
-5.0031e-06
6.87872e-05
-9.98567e-06
7.25275e-05
-1.56294e-05
7.82297e-05
-2.18955e-05
8.67159e-05
-2.7013e-05
9.98791e-05
-4.1682e-05
0.000117917
-5.68589e-05
0.000134837
-6.03871e-05
0.000146374
-4.58022e-05
0.000143607
2.1257e-05
0.000135357
4.4312e-05
0.00012472
2.34186e-05
0.000102195
-9.00094e-05
5.82904e-05
-0.000305708
-0.000429021
5.34393e-05
1.51191e-05
5.5604e-05
9.73048e-06
5.74692e-05
4.00371e-06
5.94455e-05
-1.43818e-06
6.15166e-05
-7.07397e-06
6.43031e-05
-1.27722e-05
6.76513e-05
-1.89777e-05
7.20235e-05
-2.62675e-05
7.8862e-05
-3.38495e-05
8.59513e-05
-4.87638e-05
9.59732e-05
-6.68603e-05
0.000106598
-7.10107e-05
0.000114388
-5.35864e-05
0.000113005
2.26467e-05
0.000112469
4.48461e-05
0.000111862
2.39837e-05
0.000104759
-8.28735e-05
6.59977e-05
-0.000266923
-0.000363078
4.90245e-05
1.27516e-05
5.11268e-05
7.62885e-06
5.29932e-05
2.13789e-06
5.48921e-05
-3.3367e-06
5.68812e-05
-9.06301e-06
5.91706e-05
-1.50617e-05
6.1871e-05
-2.16782e-05
6.47024e-05
-2.90988e-05
6.89997e-05
-3.81451e-05
7.0491e-05
-5.02616e-05
7.12891e-05
-6.76619e-05
7.39113e-05
-7.36285e-05
7.59551e-05
-5.56636e-05
8.02019e-05
1.8412e-05
8.97142e-05
3.53452e-05
9.80717e-05
1.5576e-05
9.60987e-05
-8.08461e-05
5.98766e-05
-0.000230682
-0.000303257
4.47963e-05
1.06075e-05
4.67451e-05
5.68055e-06
4.85197e-05
3.6377e-07
5.02593e-05
-5.07605e-06
5.20041e-05
-1.08079e-05
5.38428e-05
-1.69006e-05
5.57057e-05
-2.35412e-05
5.7381e-05
-3.07739e-05
5.87077e-05
-3.94713e-05
5.7882e-05
-4.94401e-05
5.26773e-05
-6.24896e-05
4.8057e-05
-6.89972e-05
4.73448e-05
-5.49522e-05
5.8556e-05
7.19714e-06
7.39647e-05
1.99263e-05
8.89147e-05
5.27253e-07
8.47415e-05
-7.6569e-05
4.79381e-05
-0.0001939
-0.000255364
4.07169e-05
8.69441e-06
4.24772e-05
3.92075e-06
4.40878e-05
-1.2465e-06
4.56198e-05
-6.60808e-06
4.71008e-05
-1.2289e-05
4.85392e-05
-1.83391e-05
4.98354e-05
-2.48374e-05
5.07951e-05
-3.17332e-05
5.08675e-05
-3.95433e-05
4.89511e-05
-4.75244e-05
4.30702e-05
-5.66288e-05
3.54949e-05
-6.14235e-05
3.32437e-05
-5.26678e-05
4.83547e-05
-7.88236e-06
6.69796e-05
1.37851e-06
8.27847e-05
-1.53431e-05
7.49075e-05
-6.85622e-05
3.91655e-05
-0.000158238
-0.000216226
3.67659e-05
7.022e-06
3.83182e-05
2.36874e-06
3.97178e-05
-2.64586e-06
4.10348e-05
-7.92511e-06
4.22423e-05
-1.34966e-05
4.33404e-05
-1.94372e-05
4.42293e-05
-2.57262e-05
4.47717e-05
-3.22752e-05
4.46946e-05
-3.94658e-05
4.33186e-05
-4.61481e-05
3.97532e-05
-5.30674e-05
3.33817e-05
-5.50529e-05
3.18606e-05
-5.11111e-05
4.63722e-05
-2.23627e-05
6.36834e-05
-1.58938e-05
7.44424e-05
-2.60798e-05
6.48007e-05
-5.88262e-05
3.6422e-05
-0.000129959
-0.000179823
3.29237e-05
5.58203e-06
3.42481e-05
1.04454e-06
3.54467e-05
-3.84436e-06
3.65353e-05
-9.01373e-06
3.75037e-05
-1.44651e-05
3.83186e-05
-2.0252e-05
3.89541e-05
-2.63614e-05
3.93938e-05
-3.27145e-05
3.94229e-05
-3.94945e-05
3.88698e-05
-4.55947e-05
3.81014e-05
-5.22991e-05
3.64938e-05
-5.3441e-05
3.81041e-05
-5.27134e-05
4.83209e-05
-3.25993e-05
5.83507e-05
-2.5973e-05
6.19257e-05
-2.9681e-05
5.22207e-05
-4.90764e-05
3.2679e-05
-0.000110424
-0.000147148
2.9186e-05
4.37313e-06
3.0282e-05
-5.12922e-08
3.12615e-05
-4.82388e-06
3.21267e-05
-9.879e-06
3.28543e-05
-1.51926e-05
3.34393e-05
-2.08369e-05
3.3848e-05
-2.67697e-05
3.41426e-05
-3.30087e-05
3.41792e-05
-3.95307e-05
3.44908e-05
-4.5906e-05
3.56648e-05
-5.3473e-05
3.87967e-05
-5.65714e-05
4.31358e-05
-5.7053e-05
5.00488e-05
-3.95232e-05
5.31312e-05
-2.90641e-05
5.17548e-05
-2.8299e-05
4.35061e-05
-4.08071e-05
2.84297e-05
-9.53485e-05
-0.000118719
2.55253e-05
3.39419e-06
2.64137e-05
-9.39664e-07
2.71742e-05
-5.58436e-06
2.78127e-05
-1.05174e-05
2.83179e-05
-1.56977e-05
2.86764e-05
-2.11951e-05
2.88833e-05
-2.69762e-05
2.90123e-05
-3.31373e-05
2.91354e-05
-3.96534e-05
2.97343e-05
-4.65049e-05
3.1678e-05
-5.54166e-05
3.82816e-05
-6.31752e-05
4.38082e-05
-6.25808e-05
4.66941e-05
-4.24122e-05
4.36492e-05
-2.60209e-05
3.78609e-05
-2.25086e-05
3.24555e-05
-3.53892e-05
2.25133e-05
-8.54054e-05
-9.62054e-05
2.19565e-05
2.63325e-06
2.26231e-05
-1.60619e-06
2.31794e-05
-6.14068e-06
2.35916e-05
-1.09296e-05
2.38619e-05
-1.59679e-05
2.39444e-05
-2.12773e-05
2.38319e-05
-2.68632e-05
2.34477e-05
-3.27528e-05
2.30107e-05
-3.92163e-05
2.2421e-05
-4.59152e-05
2.28299e-05
-5.58256e-05
2.38598e-05
-6.42052e-05
2.54512e-05
-6.41724e-05
2.55478e-05
-4.25088e-05
2.19904e-05
-2.24641e-05
2.02617e-05
-2.07764e-05
2.6639e-05
-4.17632e-05
1.90376e-05
-7.78037e-05
-7.71674e-05
1.84722e-05
2.07738e-06
1.89351e-05
-2.06905e-06
1.92793e-05
-6.48481e-06
1.9497e-05
-1.11471e-05
1.9545e-05
-1.60157e-05
1.93898e-05
-2.11217e-05
1.89742e-05
-2.64473e-05
1.81394e-05
-3.19177e-05
1.68107e-05
-3.78876e-05
1.43623e-05
-4.34668e-05
9.82643e-06
-5.12899e-05
3.39354e-06
-5.77724e-05
-1.91902e-06
-5.88599e-05
-5.28868e-07
-4.38983e-05
2.17844e-06
-2.51713e-05
1.01497e-05
-2.87441e-05
2.06191e-05
-5.22323e-05
1.27526e-05
-6.99364e-05
-6.44148e-05
1.50567e-05
1.72507e-06
1.53224e-05
-2.3347e-06
1.54807e-05
-6.643e-06
1.54997e-05
-1.1166e-05
1.53656e-05
-1.58813e-05
1.50227e-05
-2.07785e-05
1.43819e-05
-2.58062e-05
1.33052e-05
-3.08408e-05
1.15682e-05
-3.61506e-05
8.71609e-06
-4.06148e-05
3.80997e-06
-4.63839e-05
-3.00603e-06
-5.09565e-05
-9.79671e-06
-5.2069e-05
-8.84234e-06
-4.48518e-05
-9.85009e-07
-3.30261e-05
9.28345e-06
-3.90122e-05
1.43891e-05
-5.73375e-05
7.04111e-06
-6.25885e-05
-5.73732e-05
1.17347e-05
1.56327e-06
1.18106e-05
-2.41047e-06
1.17933e-05
-6.6257e-06
1.16611e-05
-1.10337e-05
1.14005e-05
-1.56205e-05
1.09595e-05
-2.03372e-05
1.02994e-05
-2.51459e-05
9.3194e-06
-2.98607e-05
7.88065e-06
-3.47119e-05
5.7536e-06
-3.84878e-05
2.06707e-06
-4.26974e-05
-2.94481e-06
-4.59446e-05
-9.01667e-06
-4.5997e-05
-6.06561e-06
-4.78026e-05
3.86553e-06
-4.29571e-05
1.03161e-05
-4.54626e-05
7.92067e-06
-5.49421e-05
3.65407e-06
-5.83211e-05
-5.37187e-05
8.46135e-06
1.59086e-06
8.36068e-06
-2.30973e-06
8.16618e-06
-6.43114e-06
7.87885e-06
-1.07462e-05
7.47728e-06
-1.52188e-05
6.93452e-06
-1.97944e-05
6.22092e-06
-2.44323e-05
5.23454e-06
-2.88744e-05
3.89595e-06
-3.33735e-05
2.48936e-06
-3.70815e-05
7.39036e-07
-4.09473e-05
-6.69844e-08
-4.51388e-05
-1.54184e-06
-4.45223e-05
1.92885e-06
-5.12734e-05
7.56652e-06
-4.85949e-05
1.11266e-05
-4.90227e-05
8.50417e-06
-5.23194e-05
4.70054e-06
-5.45169e-05
-4.9018e-05
5.26945e-06
1.85132e-06
4.96987e-06
-2.01017e-06
4.64322e-06
-6.10447e-06
4.25419e-06
-1.03573e-05
3.7605e-06
-1.47251e-05
3.13388e-06
-1.91679e-05
2.41074e-06
-2.37094e-05
1.72893e-06
-2.81929e-05
1.20731e-06
-3.28522e-05
1.44199e-06
-3.73166e-05
1.28593e-06
-4.07916e-05
3.23927e-06
-4.70925e-05
6.10732e-06
-4.73907e-05
9.34682e-06
-5.45133e-05
1.25475e-05
-5.1796e-05
1.49897e-05
-5.14653e-05
1.20648e-05
-4.93944e-05
7.23281e-06
-4.96849e-05
-4.17852e-05
2.43367e-06
2.28037e-06
1.88066e-06
-1.45716e-06
1.24014e-06
-5.46403e-06
5.95826e-07
-9.71299e-06
3.80757e-08
-1.41675e-05
-3.12155e-07
-1.88179e-05
-4.18438e-07
-2.36034e-05
4.7018e-08
-2.86587e-05
6.46663e-07
-3.34522e-05
2.77481e-06
-3.94451e-05
5.30812e-06
-4.33253e-05
9.54254e-06
-5.13273e-05
1.38514e-05
-5.17e-05
1.53208e-05
-5.59831e-05
1.60977e-05
-5.25732e-05
1.54715e-05
-5.08394e-05
1.14339e-05
-4.53572e-05
5.97829e-06
-4.42294e-05
-3.58069e-05
-9.06289e-07
-1.14002e-06
-1.36613e-06
-1.52122e-06
-1.54104e-06
-1.36056e-06
-8.90154e-07
1.89058e-07
1.67665e-06
4.58866e-06
7.9894e-06
1.16241e-05
1.52463e-05
1.65676e-05
1.68468e-05
1.50671e-05
1.05496e-05
5.59588e-06
)
;

boundaryField
{
    leftWall
    {
        type            fixedValue;
        value           nonuniform 0();
    }
    rightWall
    {
        type            fixedValue;
        value           uniform 0;
    }
    lowerWall
    {
        type            fixedValue;
        value           nonuniform 0();
    }
    atmosphere
    {
        type            calculated;
        value           nonuniform List<scalar> 
23
(
3.64793e-06
3.13339e-06
2.59195e-06
2.02683e-06
2.43022e-06
-1.22345e-06
-5.23794e-06
-9.55794e-06
-1.41477e-05
-1.89984e-05
-2.40739e-05
-2.9738e-05
-3.49399e-05
-4.23572e-05
-4.67262e-05
-5.49621e-05
-5.53223e-05
-5.73046e-05
-5.28526e-05
-4.90599e-05
-4.08398e-05
-3.92757e-05
-3.0211e-05
)
;
    }
    defaultFaces
    {
        type            empty;
        value           nonuniform 0();
    }
    procBoundary3to1
    {
        type            processor;
        value           nonuniform List<scalar> 
23
(
-5.14476e-05
-4.12787e-05
-2.9658e-05
-1.77071e-05
2.63978e-07
2.61258e-05
3.53785e-05
3.26687e-05
2.65432e-05
2.44587e-05
2.00257e-05
2.76155e-05
4.4378e-05
5.99514e-05
4.64611e-05
-3.20817e-05
-7.78556e-05
-6.47251e-05
0.000204344
0.000336438
0.000521062
0.000535078
0.000445981
)
;
    }
    procBoundary3to2
    {
        type            processor;
        value           nonuniform List<scalar> 
25
(
-0.000137068
-0.000109896
-9.21539e-05
-7.99565e-05
-7.17843e-05
-6.50608e-05
-5.93936e-05
-5.42317e-05
-4.98746e-05
-4.58593e-05
-4.21406e-05
-3.86141e-05
-3.52418e-05
-3.19726e-05
-2.87896e-05
-2.56853e-05
-2.26479e-05
-1.96742e-05
-1.6761e-05
-1.3901e-05
-1.11073e-05
-8.41975e-06
-5.77486e-06
-3.11376e-06
8.88864e-07
)
;
    }
}


// ************************************************************************* //
