/*--------------------------------*- C++ -*----------------------------------*\
| =========                 |                                                 |
| \\      /  F ield         | OpenFOAM: The Open Source CFD Toolbox           |
|  \\    /   O peration     | Version:  2.4.0                                 |
|   \\  /    A nd           | Web:      www.OpenFOAM.org                      |
|    \\/     M anipulation  |                                                 |
\*---------------------------------------------------------------------------*/
FoamFile
{
    version     2.0;
    format      ascii;
    class       volScalarField;
    location    "0.8";
    object      rho;
}
// * * * * * * * * * * * * * * * * * * * * * * * * * * * * * * * * * * * * * //

dimensions      [1 -3 0 0 0 0 0];

internalField   nonuniform List<scalar> 
575
(
1.0001
1.00009
1.00006
1.00004
1.00004
1.00003
1.00002
1.00002
1.00001
1.00001
1
1
1
1
1
0.999999
1
0.999999
1
1
1
1
1
1
0.999999
0.999999
0.999999
0.999999
0.999999
0.999999
0.999999
0.999999
0.999998
0.999998
0.999998
0.999998
0.999998
0.999998
0.999998
0.999998
0.999998
0.999997
0.999997
0.999997
0.999998
0.999997
0.999997
0.999997
0.999998
0.999997
0.999997
0.999996
0.999998
0.999997
0.999997
0.999996
0.999998
0.999997
0.999996
0.999996
0.999998
0.999997
0.999996
0.999996
0.999998
0.999997
0.999996
0.999996
0.999998
0.999997
0.999996
0.999996
0.999998
0.999998
0.999997
0.999997
0.999998
0.999997
0.999997
0.999997
0.999999
0.999998
0.999997
0.999997
0.999998
0.999998
0.999998
0.999998
0.999999
0.999998
0.999998
0.999998
0.999998
0.999998
0.999997
0.999998
0.999998
0.999998
0.999998
0.999999
1.00002
1.00001
1.00001
1.00002
1.00004
1.00007
1.00011
1.0001
1.00012
1.00147
1.00187
1.00112
1.00122
1.08218
3.62452
7.86508
4.89209
29.9575
206.494
1
1
1
1.00001
1.00002
1.00004
1.00006
1.00007
1.00008
1.00015
1.00084
1.00154
1.00115
1.06282
2.87242
1.88514
1.11939
2.30266
8.00027
1
0.999999
0.999999
1
1.00001
1.00002
1.00002
1.00003
1.00006
1.00008
1.00031
1.00094
1.00102
1.03779
1.41644
1.02199
1.0442
1.00286
1.00089
0.999999
0.999999
0.999998
0.999999
1
1
1.00001
1.00001
1.00002
1.00005
1.00012
1.00048
1.00072
1.03371
1.03371
1.0144
1.03849
1.001
1.00057
0.999999
0.999998
0.999998
0.999998
0.999998
0.999999
1
1
1.00001
1.00002
1.00007
1.0002
1.00042
1.02157
1.01255
1.0085
1.00721
1.00157
1.00058
0.999999
0.999998
0.999998
0.999998
0.999998
0.999998
0.999999
1
1.00001
1.00002
1.00005
1.00011
1.00026
1.01046
1.00892
1.00425
1.00134
1.00097
1.00063
0.999999
0.999998
0.999998
0.999997
0.999998
0.999998
0.999999
1
1
1.00002
1.00006
1.00012
1.00021
1.00428
1.00712
1.00331
1.00093
1.00092
1.00067
0.999998
0.999998
0.999997
0.999997
0.999998
0.999998
0.999999
1
1
1.00002
1.00009
1.00019
1.00028
1.00113
1.00344
1.00364
1.00161
1.00094
1.00069
0.999998
0.999997
0.999997
0.999997
0.999998
0.999998
0.999999
1
1
1.00002
1.00009
1.0003
1.00049
1.00065
1.00086
1.00369
1.00175
1.00096
1.0007
0.999997
0.999997
0.999997
0.999997
0.999998
0.999998
0.999999
1
1
1.00001
1.00009
1.00045
1.00077
1.00111
1.0021
1.0038
1.00129
1.00096
1.00068
0.999997
0.999997
0.999997
0.999997
0.999998
0.999999
0.999999
1
1
1.00001
1.00008
1.00052
1.00093
1.01454
1.01641
1.00563
1.0011
1.00094
1.00062
0.999996
0.999996
0.999996
0.999997
0.999998
0.999999
0.999999
1
1
1.00001
1.00007
1.00041
1.00098
1.01869
1.0207
1.01293
1.00193
1.00089
1.00054
0.999996
0.999996
0.999996
0.999997
0.999998
0.999999
0.999999
0.999999
1
1
1.00003
1.00022
1.00082
1.00476
1.01405
1.01043
1.00331
1.00132
1.0005
0.999996
0.999996
0.999997
0.999997
0.999998
0.999999
0.999999
0.999999
1
1
1.00001
1.00009
1.00046
1.00098
1.00156
1.00432
1.00467
1.00338
1.00061
0.999996
0.999996
0.999997
0.999997
0.999998
0.999999
0.999999
0.999999
1
1
1.00001
1.00004
1.00018
1.0005
1.00071
1.00182
1.0046
1.003
1.00049
0.999996
0.999996
0.999997
0.999998
0.999998
0.999999
0.999999
0.999999
1
1.00001
1.00002
1.00005
1.00013
1.00028
1.00048
1.00137
1.00448
1.00115
1.0002
0.999996
0.999997
0.999997
0.999998
0.999999
0.999999
0.999999
0.999999
1
1.00001
1.00003
1.00012
1.00023
1.00032
1.00052
1.00219
1.00285
1.00063
1.00013
0.999997
0.999997
0.999998
0.999998
0.999999
0.999999
0.999999
1
1
1.00002
1.00005
1.00019
1.00037
1.00054
1.00093
1.00236
1.00092
1.00034
1.00008
0.999997
0.999998
0.999998
0.999999
0.999999
0.999999
0.999999
1
1
1.00002
1.00005
1.0002
1.00045
1.00079
1.00189
1.00149
1.00042
1.00012
1.00004
0.999998
0.999998
0.999999
0.999999
0.999999
0.999999
0.999999
1
1
1.00001
1.00004
1.00013
1.00039
1.00067
1.00122
1.00045
1.00017
1.00006
1.00001
0.999998
0.999999
0.999999
0.999999
0.999999
0.999999
0.999999
0.999999
1
1
1.00002
1.00005
1.00022
1.00034
1.00031
1.00018
1.00009
1.00001
1
0.999998
0.999999
0.999999
0.999999
0.999999
0.999999
0.999999
0.999999
1
1
1.00001
1.00002
1.00005
1.00009
1.00007
1.00003
1.00001
1.00001
1
0.999999
0.999999
0.999999
0.999999
0.999999
0.999999
0.999999
0.999999
1
1
1
1
1.00001
1.00001
1.00001
1.00001
1.00001
1
1
0.999999
0.999999
0.999999
0.999999
0.999999
0.999999
0.999999
0.999999
1
1
1
1
1
1
1
1
1
1
1
0.999999
0.999999
0.999999
0.999999
0.999999
1
1
1
1
1
1
1
1
1
1
1
1
1
1
)
;

boundaryField
{
    leftWall
    {
        type            calculated;
        value           nonuniform 0();
    }
    rightWall
    {
        type            calculated;
        value           nonuniform List<scalar> 
25
(
206.494
8.00027
1.00089
1.00057
1.00058
1.00063
1.00067
1.00069
1.0007
1.00068
1.00062
1.00054
1.0005
1.00061
1.00049
1.0002
1.00013
1.00008
1.00004
1.00001
1
1
1
1
1
)
;
    }
    lowerWall
    {
        type            calculated;
        value           nonuniform 0();
    }
    atmosphere
    {
        type            calculated;
        value           nonuniform List<scalar> 
23
(
0.999998
0.999998
0.999998
0.999999
0.999999
1
1
1
1
1
1
1
1
1
1
1
1
1
1
1
1
1
1
)
;
    }
    defaultFaces
    {
        type            empty;
    }
    procBoundary3to1
    {
        type            processor;
        value           nonuniform List<scalar> 
23
(
1.00023
1.00019
1.00015
1.00011
1.00006
1.00002
1.00002
1.00004
1.00007
1.00016
1.00019
1.00014
1.00112
1.0019
1.00203
1.00162
1.00138
1.01178
1.48753
6.46394
26.4267
198.832
464.401
)
;
    }
    procBoundary3to2
    {
        type            processor;
        value           nonuniform List<scalar> 
25
(
1.00008
1.00004
1.00001
1
1
1
0.999999
0.999999
0.999998
0.999998
0.999998
0.999998
0.999998
0.999998
0.999998
0.999999
0.999999
0.999999
0.999999
0.999999
0.999999
0.999999
1
0.999999
0.999999
)
;
    }
}


// ************************************************************************* //
