/*--------------------------------*- C++ -*----------------------------------*\
| =========                 |                                                 |
| \\      /  F ield         | OpenFOAM: The Open Source CFD Toolbox           |
|  \\    /   O peration     | Version:  2.4.0                                 |
|   \\  /    A nd           | Web:      www.OpenFOAM.org                      |
|    \\/     M anipulation  |                                                 |
\*---------------------------------------------------------------------------*/
FoamFile
{
    version     2.0;
    format      ascii;
    class       volVectorField;
    location    "0.8";
    object      U.air;
}
// * * * * * * * * * * * * * * * * * * * * * * * * * * * * * * * * * * * * * //

dimensions      [0 1 -1 0 0 0 0];

internalField   nonuniform List<vector> 
575
(
(0.754225 0.499531 0)
(0.812383 0.41244 0)
(0.834016 0.310089 0)
(0.844264 0.207856 0)
(0.604445 0.408548 0)
(0.647795 0.349955 0)
(0.668105 0.283678 0)
(0.680429 0.217581 0)
(0.506482 0.338776 0)
(0.539704 0.297586 0)
(0.557294 0.254376 0)
(0.572115 0.208395 0)
(0.438501 0.283879 0)
(0.464185 0.255433 0)
(0.478926 0.224274 0)
(0.493695 0.192335 0)
(0.392554 0.23965 0)
(0.411793 0.219438 0)
(0.42389 0.195878 0)
(0.435915 0.172274 0)
(0.354807 0.208768 0)
(0.369505 0.192822 0)
(0.379035 0.175486 0)
(0.389024 0.156998 0)
(0.32333 0.183105 0)
(0.334727 0.170458 0)
(0.343213 0.156806 0)
(0.352199 0.14158 0)
(0.295092 0.162701 0)
(0.305173 0.150391 0)
(0.312964 0.13855 0)
(0.321602 0.125332 0)
(0.271324 0.144424 0)
(0.279686 0.133425 0)
(0.286866 0.122294 0)
(0.294029 0.111265 0)
(0.249357 0.128453 0)
(0.257106 0.117943 0)
(0.263345 0.107719 0)
(0.270129 0.096713 0)
(0.229159 0.114114 0)
(0.235837 0.104228 0)
(0.241681 0.0943318 0)
(0.247565 0.0842323 0)
(0.209918 0.101314 0)
(0.215901 0.0918988 0)
(0.221085 0.0824409 0)
(0.226416 0.072594 0)
(0.191517 0.0899932 0)
(0.196734 0.0810301 0)
(0.201376 0.0718813 0)
(0.206073 0.0623966 0)
(0.173697 0.0800079 0)
(0.178254 0.0714097 0)
(0.182328 0.0625625 0)
(0.186452 0.0533572 0)
(0.156346 0.0713306 0)
(0.160271 0.0630216 0)
(0.163813 0.0544392 0)
(0.167394 0.0455133 0)
(0.139433 0.0638803 0)
(0.142744 0.0558234 0)
(0.145781 0.0474751 0)
(0.148827 0.0388148 0)
(0.122883 0.0576026 0)
(0.125609 0.0497495 0)
(0.128147 0.0416195 0)
(0.130666 0.0331883 0)
(0.106675 0.0524477 0)
(0.108852 0.0447767 0)
(0.110903 0.0368483 0)
(0.112913 0.0286331 0)
(0.0908013 0.0483786 0)
(0.0924527 0.0408694 0)
(0.0940163 0.0331225 0)
(0.0955343 0.0251049 0)
(0.075226 0.045355 0)
(0.0763995 0.0379937 0)
(0.0774834 0.0304174 0)
(0.0785116 0.0225892 0)
(0.0600025 0.0432205 0)
(0.0606926 0.036061 0)
(0.0613314 0.0286682 0)
(0.0619077 0.0210158 0)
(0.0452514 0.0423971 0)
(0.0453743 0.0352409 0)
(0.04549 0.0279456 0)
(0.0455623 0.0204722 0)
(0.0310142 0.0423763 0)
(0.030775 0.0353732 0)
(0.0304247 0.0281274 0)
(0.0299591 0.0206632 0)
(0.0167635 0.0434208 0)
(0.0166414 0.0368733 0)
(0.0163063 0.0300217 0)
(0.0157514 0.0229 0)
(-0.0045478 0.0416359 0)
(-0.00414109 0.0357617 0)
(-0.00397759 0.0295807 0)
(-0.00395717 0.0231295 0)
(0.797321 0.0570282 0)
(0.680535 -0.062219 0)
(0.572098 -0.120342 0)
(0.480405 -0.123889 0)
(0.433459 -0.107695 0)
(0.37563 -0.0770288 0)
(0.33515 -0.103956 0)
(0.282612 -0.0928979 0)
(0.128764 -0.015275 0)
(-0.125619 0.0564001 0)
(-0.857293 0.10876 0)
(-1.15136 0.17674 0)
(-1.16355 0.339502 0)
(-1.12648 0.361312 0)
(-0.745973 -0.261885 0)
(-0.461147 -1.28689 0)
(-0.558468 -1.79959 0)
(-0.923951 -1.82841 0)
(-0.0294894 -1.8765 0)
(0.664216 0.109944 0)
(0.604311 0.0102626 0)
(0.53542 -0.0473646 0)
(0.477174 -0.0705647 0)
(0.419628 -0.0653862 0)
(0.394822 -0.0655382 0)
(0.365321 -0.0304162 0)
(0.322061 -0.00539964 0)
(0.269369 0.0369623 0)
(0.242232 0.212958 0)
(0.202676 0.348047 0)
(0.0659849 0.303495 0)
(-0.0986607 0.309742 0)
(-0.054133 0.155789 0)
(-0.0362264 -0.61593 0)
(-0.230103 -1.39468 0)
(-0.499781 -1.73908 0)
(-0.748827 -2.19883 0)
(0.160676 -1.60344 0)
(0.570009 0.131612 0)
(0.546288 0.0526295 0)
(0.498582 0.000998327 0)
(0.465149 -0.0258359 0)
(0.422593 -0.035882 0)
(0.402734 -0.024572 0)
(0.374769 -0.021757 0)
(0.364774 0.0140791 0)
(0.346621 0.0891292 0)
(0.345721 0.173136 0)
(0.414293 0.293612 0)
(0.492824 0.476134 0)
(0.398892 0.393408 0)
(0.410327 0.108507 0)
(0.303016 -0.377229 0)
(0.0291786 -1.11026 0)
(-0.20852 -1.80502 0)
(-0.172471 -2.66602 0)
(0.218077 -2.77528 0)
(0.498021 0.137461 0)
(0.490045 0.0750929 0)
(0.46196 0.0309793 0)
(0.446347 -0.00294419 0)
(0.418519 -0.00830062 0)
(0.404574 -0.0182571 0)
(0.400549 -0.00156917 0)
(0.388379 0.0236161 0)
(0.405273 0.0621253 0)
(0.448272 0.138729 0)
(0.493727 0.232616 0)
(0.652999 0.328013 0)
(0.809606 0.397902 0)
(0.86902 0.280514 0)
(0.734479 -0.0241592 0)
(0.45994 -0.816887 0)
(0.203905 -1.65451 0)
(-0.0783644 -2.7017 0)
(0.094328 -3.02485 0)
(0.443664 0.133529 0)
(0.444007 0.0848855 0)
(0.431423 0.0453694 0)
(0.427876 0.0111945 0)
(0.409788 0.00290138 0)
(0.410368 -0.00787829 0)
(0.406482 -0.000950558 0)
(0.419784 0.0123479 0)
(0.449155 0.0449206 0)
(0.485062 0.0938369 0)
(0.572404 0.133385 0)
(0.683932 0.150316 0)
(0.8665 0.263697 0)
(0.977614 0.180938 0)
(0.968625 -0.0120321 0)
(0.801549 -0.502897 0)
(0.464412 -1.39269 0)
(0.0782091 -2.55585 0)
(0.0714057 -2.88653 0)
(0.398245 0.127152 0)
(0.404389 0.0860458 0)
(0.403419 0.0493321 0)
(0.407722 0.0187452 0)
(0.39771 0.00277114 0)
(0.408746 -0.00639669 0)
(0.412715 -0.0122869 0)
(0.43328 -0.00972896 0)
(0.468167 0.0123188 0)
(0.516558 0.0274646 0)
(0.6118 0.0390308 0)
(0.697829 0.0365584 0)
(0.85056 0.0703956 0)
(0.982063 0.129031 0)
(0.983338 0.0648922 0)
(0.85513 -0.241896 0)
(0.560737 -1.10797 0)
(0.188343 -2.29788 0)
(0.0476078 -2.76055 0)
(0.362724 0.115784 0)
(0.372703 0.0801294 0)
(0.377038 0.0460252 0)
(0.386867 0.0190189 0)
(0.382502 -0.00154193 0)
(0.400717 -0.0124625 0)
(0.410455 -0.0282385 0)
(0.436365 -0.0347594 0)
(0.473942 -0.0270587 0)
(0.528446 -0.0375287 0)
(0.619853 -0.0465337 0)
(0.717129 -0.0582853 0)
(0.846772 -0.0511089 0)
(0.92477 0.10658 0)
(0.911763 0.097978 0)
(0.810298 -0.102277 0)
(0.594237 -0.858524 0)
(0.26389 -2.0537 0)
(0.0410765 -2.68323 0)
(0.332407 0.104663 0)
(0.344217 0.0724462 0)
(0.351507 0.0404108 0)
(0.364307 0.014953 0)
(0.363927 -0.00948954 0)
(0.387612 -0.0263141 0)
(0.397271 -0.0485737 0)
(0.429654 -0.0629582 0)
(0.466786 -0.068908 0)
(0.521363 -0.105072 0)
(0.610694 -0.140536 0)
(0.708151 -0.161639 0)
(0.833015 -0.129176 0)
(0.878835 0.0911773 0)
(0.852114 0.147657 0)
(0.772055 0.0245614 0)
(0.617538 -0.622268 0)
(0.36664 -1.83366 0)
(0.101776 -2.52887 0)
(0.305419 0.0912276 0)
(0.317897 0.0623066 0)
(0.327199 0.0322964 0)
(0.339806 0.00707127 0)
(0.346344 -0.0192342 0)
(0.364683 -0.0410744 0)
(0.379063 -0.0667074 0)
(0.406389 -0.0934456 0)
(0.444107 -0.110867 0)
(0.498625 -0.173715 0)
(0.578276 -0.242836 0)
(0.665778 -0.26876 0)
(0.76006 -0.207991 0)
(0.80757 0.0757166 0)
(0.759478 0.19189 0)
(0.690775 0.0952799 0)
(0.626245 -0.477535 0)
(0.472246 -1.60067 0)
(0.190294 -2.2601 0)
(0.280651 0.0791116 0)
(0.29305 0.0520065 0)
(0.303066 0.0236443 0)
(0.315218 -0.0022803 0)
(0.324504 -0.0291819 0)
(0.339723 -0.0555726 0)
(0.355313 -0.0841573 0)
(0.376693 -0.117847 0)
(0.407225 -0.148166 0)
(0.449109 -0.22801 0)
(0.484038 -0.307678 0)
(0.530539 -0.324946 0)
(0.584154 -0.24751 0)
(0.641522 0.113339 0)
(0.613485 0.226903 0)
(0.577277 0.127884 0)
(0.60955 -0.401549 0)
(0.517146 -1.36104 0)
(0.234953 -1.90257 0)
(0.257135 0.0671218 0)
(0.269313 0.0416968 0)
(0.279174 0.0145672 0)
(0.29068 -0.0117025 0)
(0.300257 -0.0392968 0)
(0.313356 -0.067687 0)
(0.325428 -0.0991011 0)
(0.343987 -0.134715 0)
(0.358575 -0.177234 0)
(0.389897 -0.238965 0)
(0.375716 -0.332842 0)
(0.377975 -0.357441 0)
(0.387923 -0.268433 0)
(0.4275 0.117854 0)
(0.471832 0.212703 0)
(0.472447 0.112731 0)
(0.576392 -0.381904 0)
(0.471252 -1.17366 0)
(0.209081 -1.5758 0)
(0.234919 0.0563512 0)
(0.2462 0.0319006 0)
(0.255585 0.00575143 0)
(0.266025 -0.0206641 0)
(0.274963 -0.0483701 0)
(0.285487 -0.077699 0)
(0.295078 -0.109846 0)
(0.306741 -0.145203 0)
(0.314146 -0.18871 0)
(0.321486 -0.242015 0)
(0.300948 -0.314994 0)
(0.257187 -0.345819 0)
(0.236511 -0.263498 0)
(0.279276 0.0748803 0)
(0.376202 0.145107 0)
(0.401721 0.0450867 0)
(0.550423 -0.380492 0)
(0.382656 -1.01938 0)
(0.158144 -1.33496 0)
(0.213494 0.0465291 0)
(0.223842 0.0229862 0)
(0.232359 -0.00242719 0)
(0.241515 -0.0286105 0)
(0.249416 -0.0561876 0)
(0.25773 -0.0855235 0)
(0.265014 -0.117165 0)
(0.272001 -0.1512 0)
(0.275425 -0.190831 0)
(0.270922 -0.232923 0)
(0.253557 -0.284151 0)
(0.201855 -0.315696 0)
(0.167268 -0.258882 0)
(0.193904 0.0024477 0)
(0.340366 0.0553381 0)
(0.3691 -0.0401979 0)
(0.51466 -0.35202 0)
(0.31157 -0.845242 0)
(0.126431 -1.14606 0)
(0.192865 0.0379104 0)
(0.201985 0.0150417 0)
(0.209537 -0.00970732 0)
(0.21735 -0.0354913 0)
(0.223999 -0.0626596 0)
(0.230418 -0.0916306 0)
(0.235946 -0.122448 0)
(0.239261 -0.154685 0)
(0.241616 -0.190248 0)
(0.235043 -0.225328 0)
(0.226584 -0.262418 0)
(0.194843 -0.277645 0)
(0.160734 -0.2516 0)
(0.179045 -0.0799467 0)
(0.327644 -0.0408273 0)
(0.353242 -0.111773 0)
(0.437732 -0.312551 0)
(0.279185 -0.684607 0)
(0.125333 -0.954619 0)
(0.172847 0.0304048 0)
(0.180716 0.00808879 0)
(0.187188 -0.0159689 0)
(0.193636 -0.0412936 0)
(0.199018 -0.0679215 0)
(0.203966 -0.0962015 0)
(0.207745 -0.125981 0)
(0.209846 -0.156898 0)
(0.212865 -0.190601 0)
(0.206927 -0.220789 0)
(0.209142 -0.25283 0)
(0.196815 -0.261191 0)
(0.19617 -0.252404 0)
(0.209636 -0.143079 0)
(0.312464 -0.119282 0)
(0.317938 -0.151106 0)
(0.342891 -0.270429 0)
(0.23739 -0.575525 0)
(0.124235 -0.796619 0)
(0.153359 0.0240124 0)
(0.159938 0.00219893 0)
(0.165295 -0.0212382 0)
(0.170417 -0.0460012 0)
(0.17464 -0.0720535 0)
(0.178052 -0.0996272 0)
(0.180736 -0.128712 0)
(0.181881 -0.158994 0)
(0.184191 -0.190901 0)
(0.180547 -0.219861 0)
(0.189508 -0.254704 0)
(0.194283 -0.259749 0)
(0.223626 -0.263394 0)
(0.234896 -0.178274 0)
(0.298038 -0.13972 0)
(0.283312 -0.144567 0)
(0.280215 -0.215005 0)
(0.202435 -0.490617 0)
(0.111699 -0.635443 0)
(0.134333 0.0187222 0)
(0.139682 -0.00266241 0)
(0.143923 -0.0254996 0)
(0.147765 -0.0496898 0)
(0.150745 -0.0750914 0)
(0.152979 -0.102073 0)
(0.154516 -0.130298 0)
(0.154724 -0.160342 0)
(0.156376 -0.191555 0)
(0.156129 -0.224715 0)
(0.164227 -0.264916 0)
(0.180195 -0.29289 0)
(0.223089 -0.297586 0)
(0.23873 -0.210237 0)
(0.259869 -0.14865 0)
(0.220914 -0.133503 0)
(0.198551 -0.182554 0)
(0.155202 -0.43413 0)
(0.0949532 -0.523679 0)
(0.115754 0.0145105 0)
(0.119852 -0.00642319 0)
(0.12302 -0.0286873 0)
(0.12566 -0.0522744 0)
(0.127432 -0.0770136 0)
(0.128344 -0.103196 0)
(0.128264 -0.130814 0)
(0.126961 -0.16031 0)
(0.124814 -0.19241 0)
(0.123297 -0.226276 0)
(0.120025 -0.275627 0)
(0.129472 -0.326471 0)
(0.121875 -0.320227 0)
(0.136823 -0.214503 0)
(0.151242 -0.110904 0)
(0.087752 -0.0929448 0)
(0.143162 -0.168842 0)
(0.130744 -0.40125 0)
(0.0829029 -0.415404 0)
(0.0976242 0.0113081 0)
(0.100564 -0.00918248 0)
(0.102653 -0.0308946 0)
(0.104162 -0.0538462 0)
(0.104846 -0.0779002 0)
(0.104594 -0.103216 0)
(0.102996 -0.129805 0)
(0.0999167 -0.157646 0)
(0.0950734 -0.188435 0)
(0.0861016 -0.219551 0)
(0.0710193 -0.265618 0)
(0.0355943 -0.29843 0)
(0.00305812 -0.300096 0)
(-0.0267824 -0.205071 0)
(0.0221491 -0.10846 0)
(-0.000434109 -0.108592 0)
(0.11916 -0.235466 0)
(0.088562 -0.368082 0)
(0.0571823 -0.338818 0)
(0.0798682 0.00912717 0)
(0.0816689 -0.0109202 0)
(0.0827676 -0.0320814 0)
(0.0832246 -0.0543703 0)
(0.0829124 -0.0776613 0)
(0.0816189 -0.101974 0)
(0.0791433 -0.127173 0)
(0.0743201 -0.152846 0)
(0.0690452 -0.180424 0)
(0.0538631 -0.204134 0)
(0.0405841 -0.235218 0)
(-0.000154285 -0.261873 0)
(-0.0330149 -0.267403 0)
(-0.0762187 -0.206374 0)
(-0.0146211 -0.129572 0)
(0.00365843 -0.165758 0)
(0.102104 -0.2808 0)
(0.0449714 -0.309553 0)
(0.0354967 -0.291726 0)
(0.0625707 0.00780796 0)
(0.0633117 -0.0118252 0)
(0.0634452 -0.0324964 0)
(0.0630104 -0.0542685 0)
(0.0619645 -0.0768386 0)
(0.0600524 -0.100202 0)
(0.0572969 -0.124061 0)
(0.0522339 -0.14757 0)
(0.0484801 -0.172007 0)
(0.0344257 -0.191231 0)
(0.0275237 -0.213981 0)
(-0.00546477 -0.229997 0)
(-0.0275864 -0.236076 0)
(-0.0707611 -0.229957 0)
(0.00787426 -0.193271 0)
(0.0359204 -0.215287 0)
(0.0744684 -0.275871 0)
(0.00825932 -0.301151 0)
(0.0333258 -0.272792 0)
(0.0455657 0.00763183 0)
(0.0452399 -0.011594 0)
(0.044444 -0.0318395 0)
(0.0431388 -0.053055 0)
(0.04128 -0.0750269 0)
(0.0387058 -0.0976335 0)
(0.0357048 -0.120533 0)
(0.0300131 -0.14267 0)
(0.0272986 -0.165011 0)
(0.0130124 -0.182188 0)
(0.0146579 -0.200994 0)
(-0.0071172 -0.219168 0)
(0.00632957 -0.215939 0)
(-0.0232607 -0.242591 0)
(0.0452234 -0.23074 0)
(0.039495 -0.232397 0)
(0.0770276 -0.266005 0)
(0.0112917 -0.276953 0)
(0.0426197 -0.257034 0)
(0.0289608 0.00788783 0)
(0.0275851 -0.0109891 0)
(0.0258546 -0.0308575 0)
(0.0239679 -0.0516007 0)
(0.0216814 -0.0730725 0)
(0.0186422 -0.0949095 0)
(0.0153473 -0.116845 0)
(0.00970145 -0.138115 0)
(0.00959135 -0.159899 0)
(0.00258788 -0.178552 0)
(0.0136903 -0.195841 0)
(-0.000568803 -0.21689 0)
(0.0344628 -0.215362 0)
(0.0307299 -0.258134 0)
(0.0720192 -0.245387 0)
(0.065858 -0.248513 0)
(0.0933563 -0.24702 0)
(0.0320939 -0.257655 0)
(0.0497829 -0.223592 0)
(0.0144681 0.0104364 0)
(0.0117835 -0.00845806 0)
(0.00849312 -0.0283363 0)
(0.00492512 -0.04912 0)
(0.00154699 -0.0705263 0)
(-0.00119245 -0.0926153 0)
(-0.00187824 -0.115308 0)
(-0.00306134 -0.138458 0)
(0.00369101 -0.161276 0)
(0.00263537 -0.187024 0)
(0.0281456 -0.204563 0)
(0.0270206 -0.244403 0)
(0.0772145 -0.246844 0)
(0.0692177 -0.273704 0)
(0.0968108 -0.257856 0)
(0.0785864 -0.247715 0)
(0.0907141 -0.226839 0)
(0.0279058 -0.220715 0)
(0.0395623 -0.182808 0)
(-0.00428569 0.0117935 0)
(-0.00540473 -0.00594352 0)
(-0.00669595 -0.025433 0)
(-0.00777945 -0.0464064 0)
(-0.00830564 -0.0686897 0)
(-0.00803573 -0.0922368 0)
(-0.00600972 -0.116876 0)
(-0.00419039 -0.144341 0)
(0.00651006 -0.16958 0)
(0.0101858 -0.205515 0)
(0.0412154 -0.226733 0)
(0.0409888 -0.266696 0)
(0.0857858 -0.268464 0)
(0.0763659 -0.278229 0)
(0.102566 -0.256685 0)
(0.0799555 -0.23836 0)
(0.0872439 -0.198682 0)
(0.0218961 -0.191166 0)
(0.0414137 -0.147243 0)
)
;

boundaryField
{
    leftWall
    {
        type            fixedValue;
        value           nonuniform 0();
    }
    rightWall
    {
        type            fixedValue;
        value           uniform (0 0 0);
    }
    lowerWall
    {
        type            fixedValue;
        value           nonuniform 0();
    }
    atmosphere
    {
        type            fluxCorrectedVelocity;
        value           nonuniform List<vector> 
23
(
(-0.0045478 0.0416424 0)
(-0.00414109 0.0357681 0)
(-0.00397759 0.0295868 0)
(-0.00395717 0.0231352 0)
(-0.00428569 0.0117976 0)
(-0.00540473 -0.00594498 0)
(-0.00669595 -0.0254397 0)
(-0.00777945 -0.0464178 0)
(-0.00830564 -0.0687059 0)
(-0.00803573 -0.0922607 0)
(-0.00600972 -0.116907 0)
(-0.00419039 -0.144412 0)
(0.00651006 -0.169672 0)
(0.0101858 -0.20569 0)
(0.0412154 -0.226906 0)
(0.0409888 -0.266899 0)
(0.0857858 -0.26865 0)
(0.0763659 -0.278277 0)
(0.102566 -0.256659 0)
(0.0799555 -0.238244 0)
(0.0872439 -0.19833 0)
(0.0218961 -0.190736 0)
(0.0414137 -0.14672 0)
)
;
    }
    defaultFaces
    {
        type            empty;
    }
    procBoundary3to1
    {
        type            processor;
        value           nonuniform List<vector> 
23
(
(0.913774 0.626966 0)
(0.998298 0.493494 0)
(1.03682 0.338326 0)
(1.04102 0.175615 0)
(0.955086 -0.0601901 0)
(0.764747 -0.200389 0)
(0.58996 -0.226862 0)
(0.480567 -0.196578 0)
(0.40854 -0.148193 0)
(0.369743 -0.157843 0)
(0.313661 -0.119561 0)
(0.171549 -0.159259 0)
(-0.199188 -0.333657 0)
(-0.762444 -0.573931 0)
(-1.26681 -0.464566 0)
(-1.81715 0.213647 0)
(-2.02158 0.542952 0)
(-2.13838 0.325567 0)
(-1.71597 -0.853929 0)
(-0.714541 -1.62842 0)
(-0.757689 -1.38169 0)
(-0.41885 -1.82006 0)
(-0.064637 -1.67306 0)
)
;
    }
    procBoundary3to2
    {
        type            processor;
        value           nonuniform List<vector> 
25
(
(0.661071 0.605059 0)
(0.538053 0.477425 0)
(0.455677 0.38746 0)
(0.399883 0.322047 0)
(0.363404 0.271131 0)
(0.332884 0.235121 0)
(0.306259 0.204531 0)
(0.280397 0.18225 0)
(0.258407 0.16115 0)
(0.23817 0.144233 0)
(0.219022 0.128577 0)
(0.201024 0.115093 0)
(0.183652 0.103118 0)
(0.166809 0.0926886 0)
(0.150379 0.0836371 0)
(0.134345 0.0758963 0)
(0.118625 0.0693742 0)
(0.103224 0.0639919 0)
(0.0881208 0.0597178 0)
(0.0732762 0.0564607 0)
(0.0587583 0.0540229 0)
(0.04507 0.0533562 0)
(0.030924 0.0528564 0)
(0.0166228 0.0532513 0)
(-0.0052101 0.0504343 0)
)
;
    }
}


// ************************************************************************* //
