/*--------------------------------*- C++ -*----------------------------------*\
| =========                 |                                                 |
| \\      /  F ield         | OpenFOAM: The Open Source CFD Toolbox           |
|  \\    /   O peration     | Version:  2.4.0                                 |
|   \\  /    A nd           | Web:      www.OpenFOAM.org                      |
|    \\/     M anipulation  |                                                 |
\*---------------------------------------------------------------------------*/
FoamFile
{
    version     2.0;
    format      ascii;
    class       volVectorField;
    location    "0.8";
    object      U.mercury;
}
// * * * * * * * * * * * * * * * * * * * * * * * * * * * * * * * * * * * * * //

dimensions      [0 1 -1 0 0 0 0];

internalField   nonuniform List<vector> 
575
(
(0.754199 0.499462 0)
(0.812356 0.412371 0)
(0.833988 0.310019 0)
(0.844235 0.207784 0)
(0.604418 0.408486 0)
(0.647769 0.349893 0)
(0.668078 0.283615 0)
(0.680401 0.217519 0)
(0.506456 0.338722 0)
(0.539676 0.297532 0)
(0.557266 0.254322 0)
(0.572087 0.208341 0)
(0.438474 0.283832 0)
(0.464158 0.255386 0)
(0.478899 0.224228 0)
(0.493667 0.192289 0)
(0.392528 0.23961 0)
(0.411767 0.219398 0)
(0.423863 0.195838 0)
(0.435889 0.172235 0)
(0.354782 0.208734 0)
(0.369479 0.192789 0)
(0.37901 0.175453 0)
(0.388999 0.156965 0)
(0.323305 0.183076 0)
(0.334703 0.17043 0)
(0.343189 0.156778 0)
(0.352175 0.141554 0)
(0.295069 0.162677 0)
(0.30515 0.150367 0)
(0.312941 0.138527 0)
(0.32158 0.12531 0)
(0.271302 0.144403 0)
(0.279664 0.133405 0)
(0.286844 0.122275 0)
(0.294008 0.111247 0)
(0.249336 0.128436 0)
(0.257086 0.117927 0)
(0.263325 0.107704 0)
(0.27011 0.0966985 0)
(0.22914 0.1141 0)
(0.235818 0.104215 0)
(0.241663 0.0943193 0)
(0.247547 0.0842206 0)
(0.2099 0.101303 0)
(0.215883 0.0918881 0)
(0.221069 0.082431 0)
(0.226401 0.0725849 0)
(0.191501 0.0899839 0)
(0.196718 0.0810216 0)
(0.201361 0.0718735 0)
(0.206059 0.0623896 0)
(0.173683 0.0800006 0)
(0.17824 0.071403 0)
(0.182314 0.0625565 0)
(0.186439 0.0533519 0)
(0.156333 0.0713249 0)
(0.160258 0.0630165 0)
(0.1638 0.0544348 0)
(0.167383 0.0455096 0)
(0.139421 0.0638759 0)
(0.142733 0.0558197 0)
(0.14577 0.047472 0)
(0.148817 0.0388124 0)
(0.122873 0.0575994 0)
(0.125599 0.0497469 0)
(0.128137 0.0416176 0)
(0.130657 0.033187 0)
(0.106666 0.0524455 0)
(0.108843 0.0447752 0)
(0.110895 0.0368473 0)
(0.112905 0.0286327 0)
(0.0907932 0.0483772 0)
(0.092445 0.0408687 0)
(0.0940093 0.0331224 0)
(0.0955279 0.0251053 0)
(0.0752192 0.0453544 0)
(0.0763931 0.0379937 0)
(0.0774774 0.0304179 0)
(0.0785062 0.0225903 0)
(0.059997 0.0432205 0)
(0.0606875 0.0360615 0)
(0.0613266 0.0286693 0)
(0.0619034 0.0210174 0)
(0.0452472 0.0423975 0)
(0.0453703 0.0352418 0)
(0.0454864 0.0279471 0)
(0.045559 0.0204742 0)
(0.0310111 0.042377 0)
(0.0307722 0.0353745 0)
(0.0304222 0.0281293 0)
(0.0299569 0.0206655 0)
(0.0167617 0.0434218 0)
(0.0166398 0.0368748 0)
(0.0163049 0.0300237 0)
(0.0157501 0.0229026 0)
(-0.00454838 0.0416372 0)
(-0.00414154 0.0357635 0)
(-0.00397801 0.0295829 0)
(-0.00395755 0.0231321 0)
(0.79729 0.0569548 0)
(0.680498 -0.0622937 0)
(0.572059 -0.120418 0)
(0.480369 -0.123974 0)
(0.433435 -0.107795 0)
(0.375616 -0.0771553 0)
(0.335148 -0.10412 0)
(0.282628 -0.0931638 0)
(0.128883 -0.0166672 0)
(-0.139663 0.0289545 0)
(-0.880768 0.0726144 0)
(-1.17501 0.175844 0)
(-1.16835 0.337903 0)
(-1.05532 0.197828 0)
(-0.468441 -0.982977 0)
(-0.259322 -1.67623 0)
(-0.365511 -2.53067 0)
(-0.113131 -2.73831 0)
(0.164362 -2.404 0)
(0.664185 0.109881 0)
(0.604275 0.0102004 0)
(0.53538 -0.0474286 0)
(0.477134 -0.0706319 0)
(0.41959 -0.0654635 0)
(0.394788 -0.0656312 0)
(0.365288 -0.030538 0)
(0.322029 -0.00556998 0)
(0.269326 0.0366921 0)
(0.237371 0.207025 0)
(0.165472 0.32135 0)
(0.0226093 0.263034 0)
(-0.116389 0.305123 0)
(-0.0587302 0.0744265 0)
(-0.0482652 -0.971721 0)
(-0.201005 -1.82922 0)
(-0.436712 -1.92282 0)
(-0.245536 -3.33471 0)
(0.272768 -3.13323 0)
(0.569979 0.131559 0)
(0.546254 0.0525764 0)
(0.498545 0.000945854 0)
(0.465111 -0.0258889 0)
(0.422554 -0.0359386 0)
(0.402695 -0.0246358 0)
(0.374728 -0.0218396 0)
(0.364725 0.0139608 0)
(0.346538 0.0889388 0)
(0.345388 0.172561 0)
(0.408363 0.290687 0)
(0.458467 0.46232 0)
(0.376593 0.390188 0)
(0.39314 0.0801209 0)
(0.226358 -0.563198 0)
(0.0306685 -1.11698 0)
(-0.192564 -1.80611 0)
(-0.168086 -2.68375 0)
(0.218236 -2.77581 0)
(0.497992 0.137416 0)
(0.490013 0.0750488 0)
(0.461926 0.0309369 0)
(0.446312 -0.0029849 0)
(0.418484 -0.00834069 0)
(0.404537 -0.0182991 0)
(0.400509 -0.00161926 0)
(0.38833 0.023543 0)
(0.405192 0.062001 0)
(0.448071 0.138499 0)
(0.492716 0.231936 0)
(0.643686 0.328589 0)
(0.79815 0.399501 0)
(0.845506 0.257713 0)
(0.707522 -0.0593208 0)
(0.458016 -0.814145 0)
(0.204841 -1.65604 0)
(-0.0781874 -2.7015 0)
(0.0943997 -3.02495 0)
(0.443636 0.133491 0)
(0.443978 0.0848494 0)
(0.431392 0.0453356 0)
(0.427845 0.0111633 0)
(0.409756 0.00287269 0)
(0.410335 -0.00790559 0)
(0.406447 -0.000979611 0)
(0.419743 0.0123092 0)
(0.449095 0.044853 0)
(0.484923 0.0937031 0)
(0.572002 0.133167 0)
(0.682305 0.150345 0)
(0.863978 0.265104 0)
(0.965626 0.174489 0)
(0.961997 -0.0118394 0)
(0.799206 -0.498734 0)
(0.464186 -1.39314 0)
(0.0785157 -2.55519 0)
(0.0714506 -2.88654 0)
(0.398219 0.127121 0)
(0.404361 0.0860165 0)
(0.403391 0.0493054 0)
(0.407694 0.0187216 0)
(0.397682 0.00275039 0)
(0.408717 -0.00641489 0)
(0.412683 -0.0123043 0)
(0.433244 -0.00975034 0)
(0.468118 0.0122799 0)
(0.516453 0.02737 0)
(0.6115 0.0388486 0)
(0.697072 0.0363628 0)
(0.849371 0.0707413 0)
(0.978209 0.128549 0)
(0.981033 0.0671087 0)
(0.854765 -0.237765 0)
(0.561716 -1.1044 0)
(0.188735 -2.29696 0)
(0.0476751 -2.76046 0)
(0.3627 0.115758 0)
(0.372678 0.0801059 0)
(0.377013 0.0460044 0)
(0.386843 0.019001 0)
(0.382477 -0.00155686 0)
(0.400691 -0.0124748 0)
(0.410427 -0.0282492 0)
(0.436334 -0.0347717 0)
(0.473901 -0.0270845 0)
(0.528356 -0.0376168 0)
(0.619579 -0.0467555 0)
(0.71646 -0.0585488 0)
(0.845879 -0.0510745 0)
(0.923699 0.107359 0)
(0.911028 0.100038 0)
(0.81048 -0.0996852 0)
(0.595268 -0.854641 0)
(0.264421 -2.05209 0)
(0.0411653 -2.683 0)
(0.332384 0.104642 0)
(0.344194 0.0724275 0)
(0.351484 0.0403948 0)
(0.364285 0.0149397 0)
(0.363905 -0.00950007 0)
(0.387588 -0.0263222 0)
(0.397246 -0.0485799 0)
(0.429627 -0.0629649 0)
(0.466751 -0.0689269 0)
(0.52128 -0.105161 0)
(0.610397 -0.140836 0)
(0.707376 -0.16218 0)
(0.832224 -0.129405 0)
(0.878461 0.0915356 0)
(0.852376 0.149106 0)
(0.772795 0.0265001 0)
(0.618516 -0.618641 0)
(0.367068 -1.83235 0)
(0.10191 -2.52845 0)
(0.305398 0.0912108 0)
(0.317876 0.062292 0)
(0.327179 0.0322843 0)
(0.339786 0.00706176 0)
(0.346324 -0.0192414 0)
(0.364662 -0.0410794 0)
(0.37904 -0.0667107 0)
(0.406364 -0.0934487 0)
(0.444076 -0.11088 0)
(0.498559 -0.173802 0)
(0.578045 -0.243317 0)
(0.664514 -0.269609 0)
(0.75904 -0.208755 0)
(0.807976 0.0751801 0)
(0.761173 0.192944 0)
(0.692371 0.0967545 0)
(0.62694 -0.475173 0)
(0.472681 -1.59942 0)
(0.19047 -2.25957 0)
(0.280632 0.0790983 0)
(0.293031 0.0519954 0)
(0.303047 0.0236355 0)
(0.315201 -0.00228682 0)
(0.324486 -0.0291864 0)
(0.339703 -0.0555754 0)
(0.355292 -0.0841585 0)
(0.37667 -0.117847 0)
(0.4072 -0.148174 0)
(0.44906 -0.228089 0)
(0.483668 -0.308146 0)
(0.529058 -0.32594 0)
(0.583017 -0.248354 0)
(0.643359 0.112747 0)
(0.61713 0.227924 0)
(0.579665 0.128845 0)
(0.610213 -0.400129 0)
(0.517659 -1.36006 0)
(0.235163 -1.90216 0)
(0.257118 0.0671114 0)
(0.269296 0.0416885 0)
(0.279158 0.014561 0)
(0.290664 -0.0117067 0)
(0.300241 -0.0392993 0)
(0.313338 -0.0676882 0)
(0.325408 -0.0991009 0)
(0.343966 -0.134714 0)
(0.358552 -0.177236 0)
(0.389865 -0.239015 0)
(0.37548 -0.333278 0)
(0.376805 -0.358401 0)
(0.387321 -0.268803 0)
(0.430253 0.11845 0)
(0.475919 0.213127 0)
(0.474593 0.11293 0)
(0.577355 -0.38159 0)
(0.471851 -1.17295 0)
(0.209281 -1.57563 0)
(0.234903 0.0563433 0)
(0.246185 0.0318947 0)
(0.255571 0.00574739 0)
(0.26601 -0.0206664 0)
(0.274948 -0.0483712 0)
(0.28547 -0.0776989 0)
(0.29506 -0.109844 0)
(0.306721 -0.1452 0)
(0.314127 -0.188707 0)
(0.321465 -0.242047 0)
(0.300869 -0.315303 0)
(0.256622 -0.346755 0)
(0.236928 -0.263561 0)
(0.282696 0.0753217 0)
(0.379832 0.144495 0)
(0.404432 0.0446725 0)
(0.551654 -0.380873 0)
(0.383241 -1.01902 0)
(0.15827 -1.33494 0)
(0.21348 0.0465233 0)
(0.223829 0.0229822 0)
(0.232346 -0.00242954 0)
(0.241502 -0.0286115 0)
(0.249402 -0.0561875 0)
(0.257714 -0.0855224 0)
(0.264997 -0.117163 0)
(0.271984 -0.151196 0)
(0.275408 -0.190825 0)
(0.270906 -0.232933 0)
(0.253536 -0.284314 0)
(0.201784 -0.316425 0)
(0.168284 -0.25948 0)
(0.197147 0.00201157 0)
(0.344925 0.0536216 0)
(0.373795 -0.0424619 0)
(0.516072 -0.353368 0)
(0.31199 -0.845084 0)
(0.126455 -1.14606 0)
(0.192852 0.0379063 0)
(0.201973 0.0150393 0)
(0.209525 -0.00970833 0)
(0.217338 -0.0354912 0)
(0.223986 -0.0626586 0)
(0.230403 -0.0916285 0)
(0.23593 -0.122445 0)
(0.239246 -0.154679 0)
(0.241602 -0.19024 0)
(0.23503 -0.225322 0)
(0.226573 -0.262472 0)
(0.194892 -0.278039 0)
(0.161381 -0.252571 0)
(0.181399 -0.0813221 0)
(0.331351 -0.0434326 0)
(0.356547 -0.114452 0)
(0.438967 -0.313831 0)
(0.279538 -0.684626 0)
(0.125343 -0.954608 0)
(0.172836 0.0304022 0)
(0.180706 0.00808764 0)
(0.187177 -0.0159689 0)
(0.193625 -0.0412925 0)
(0.199006 -0.0679196 0)
(0.203953 -0.0961983 0)
(0.207731 -0.125976 0)
(0.209833 -0.156891 0)
(0.212852 -0.190591 0)
(0.206915 -0.220778 0)
(0.209132 -0.252832 0)
(0.196824 -0.261333 0)
(0.196368 -0.252985 0)
(0.210416 -0.144143 0)
(0.313692 -0.120912 0)
(0.318908 -0.152549 0)
(0.343311 -0.27117 0)
(0.237538 -0.575599 0)
(0.12424 -0.796611 0)
(0.153349 0.024011 0)
(0.159928 0.00219884 0)
(0.165285 -0.0212372 0)
(0.170406 -0.0459994 0)
(0.174628 -0.0720506 0)
(0.178039 -0.099623 0)
(0.180724 -0.128705 0)
(0.18187 -0.158986 0)
(0.18418 -0.19089 0)
(0.180537 -0.219848 0)
(0.189498 -0.254692 0)
(0.194276 -0.259766 0)
(0.223649 -0.263575 0)
(0.235001 -0.178676 0)
(0.298238 -0.140254 0)
(0.283488 -0.145004 0)
(0.280354 -0.21531 0)
(0.202455 -0.49064 0)
(0.1117 -0.635432 0)
(0.134324 0.0187218 0)
(0.139674 -0.00266162 0)
(0.143914 -0.0254978 0)
(0.147755 -0.0496871 0)
(0.150735 -0.0750876 0)
(0.152969 -0.102068 0)
(0.154505 -0.13029 0)
(0.154715 -0.160332 0)
(0.156368 -0.191543 0)
(0.156121 -0.224702 0)
(0.164219 -0.264902 0)
(0.180186 -0.292877 0)
(0.223082 -0.297599 0)
(0.23873 -0.210302 0)
(0.25988 -0.148742 0)
(0.220947 -0.133611 0)
(0.198584 -0.182648 0)
(0.155205 -0.434127 0)
(0.0949535 -0.523665 0)
(0.115747 0.0145109 0)
(0.119844 -0.00642163 0)
(0.123012 -0.0286848 0)
(0.125652 -0.0522707 0)
(0.127423 -0.0770087 0)
(0.128335 -0.10319 0)
(0.128255 -0.130805 0)
(0.126954 -0.160299 0)
(0.124807 -0.192398 0)
(0.12329 -0.226262 0)
(0.120018 -0.275612 0)
(0.129465 -0.326456 0)
(0.121868 -0.320214 0)
(0.136817 -0.214497 0)
(0.151242 -0.110909 0)
(0.0877741 -0.0929932 0)
(0.143166 -0.168849 0)
(0.130744 -0.40124 0)
(0.0829025 -0.415388 0)
(0.0976179 0.0113093 0)
(0.100557 -0.0091802 0)
(0.102646 -0.0308912 0)
(0.104154 -0.0538417 0)
(0.104838 -0.0778942 0)
(0.104587 -0.103208 0)
(0.10299 -0.129795 0)
(0.0999109 -0.157635 0)
(0.0950681 -0.188423 0)
(0.0860961 -0.219537 0)
(0.0710134 -0.265604 0)
(0.0355879 -0.298415 0)
(0.0030517 -0.300082 0)
(-0.0267867 -0.205062 0)
(0.022157 -0.108476 0)
(-0.000427629 -0.108602 0)
(0.119158 -0.235458 0)
(0.0885607 -0.368068 0)
(0.0571822 -0.3388 0)
(0.0798629 0.00912902 0)
(0.0816633 -0.0109172 0)
(0.0827616 -0.0320773 0)
(0.0832183 -0.0543649 0)
(0.0829062 -0.0776543 0)
(0.0816132 -0.101965 0)
(0.0791383 -0.127162 0)
(0.0743156 -0.152834 0)
(0.0690409 -0.180411 0)
(0.0538585 -0.20412 0)
(0.0405789 -0.235203 0)
(-0.00015989 -0.261858 0)
(-0.0330205 -0.267389 0)
(-0.0762227 -0.206364 0)
(-0.0146221 -0.129571 0)
(0.0036554 -0.165747 0)
(0.102101 -0.280784 0)
(0.0449695 -0.309535 0)
(0.0354958 -0.291707 0)
(0.0625664 0.00781035 0)
(0.0633072 -0.0118216 0)
(0.0634404 -0.0324917 0)
(0.0630055 -0.0542623 0)
(0.0619597 -0.0768309 0)
(0.0600482 -0.100193 0)
(0.0572932 -0.12405 0)
(0.0522306 -0.147558 0)
(0.0484767 -0.171994 0)
(0.0344219 -0.191217 0)
(0.0275194 -0.213965 0)
(-0.00546953 -0.229982 0)
(-0.0275913 -0.23606 0)
(-0.0707657 -0.229942 0)
(0.00787006 -0.193256 0)
(0.0359166 -0.21527 0)
(0.0744648 -0.275852 0)
(0.00825711 -0.301131 0)
(0.0333254 -0.272772 0)
(0.0455624 0.00763465 0)
(0.0452365 -0.01159 0)
(0.0444405 -0.0318343 0)
(0.0431353 -0.0530483 0)
(0.0412767 -0.0750187 0)
(0.0387029 -0.0976238 0)
(0.0357023 -0.120522 0)
(0.0300108 -0.142658 0)
(0.0272962 -0.164998 0)
(0.0130095 -0.182174 0)
(0.0146544 -0.200979 0)
(-0.00712097 -0.219152 0)
(0.00632566 -0.215923 0)
(-0.0232646 -0.242574 0)
(0.0452197 -0.230721 0)
(0.0394913 -0.232377 0)
(0.0770243 -0.265984 0)
(0.01129 -0.276931 0)
(0.0426194 -0.257013 0)
(0.0289586 0.00789095 0)
(0.0275829 -0.0109849 0)
(0.0258523 -0.030852 0)
(0.0239656 -0.051594 0)
(0.0216794 -0.0730644 0)
(0.0186405 -0.0949003 0)
(0.0153458 -0.116835 0)
(0.00969999 -0.138104 0)
(0.00958966 -0.159887 0)
(0.00258583 -0.178539 0)
(0.0136879 -0.195827 0)
(-0.00057148 -0.216875 0)
(0.03446 -0.215346 0)
(0.0307271 -0.258117 0)
(0.0720165 -0.245368 0)
(0.0658551 -0.248493 0)
(0.0933539 -0.247 0)
(0.0320925 -0.257634 0)
(0.0497825 -0.223571 0)
(0.0144669 0.0104396 0)
(0.0117823 -0.00845382 0)
(0.00849185 -0.028331 0)
(0.00492392 -0.0491137 0)
(0.00154594 -0.0705189 0)
(-0.00119334 -0.092607 0)
(-0.00187903 -0.115299 0)
(-0.00306216 -0.138448 0)
(0.00369003 -0.161266 0)
(0.00263416 -0.187013 0)
(0.0281442 -0.20455 0)
(0.027019 -0.24439 0)
(0.0772128 -0.246829 0)
(0.069216 -0.273688 0)
(0.0968091 -0.257838 0)
(0.0785847 -0.247696 0)
(0.0907126 -0.22682 0)
(0.0279046 -0.220695 0)
(0.0395619 -0.182787 0)
(-0.00428609 0.0117967 0)
(-0.00540514 -0.00593936 0)
(-0.00669636 -0.0254279 0)
(-0.00777983 -0.0464004 0)
(-0.00830598 -0.0686828 0)
(-0.00803603 -0.0922293 0)
(-0.00601 -0.116868 0)
(-0.00419069 -0.144332 0)
(0.0065097 -0.169571 0)
(0.0101853 -0.205505 0)
(0.0412149 -0.226722 0)
(0.0409882 -0.266684 0)
(0.0857853 -0.268451 0)
(0.0763654 -0.278215 0)
(0.102565 -0.25667 0)
(0.0799549 -0.238343 0)
(0.0872434 -0.198664 0)
(0.0218957 -0.191146 0)
(0.0414136 -0.147223 0)
)
;

boundaryField
{
    leftWall
    {
        type            fixedValue;
        value           nonuniform 0();
    }
    rightWall
    {
        type            fixedValue;
        value           uniform (0 0 0);
    }
    lowerWall
    {
        type            fixedValue;
        value           nonuniform 0();
    }
    atmosphere
    {
        type            fluxCorrectedVelocity;
        value           nonuniform List<vector> 
23
(
(-0.00454838 0.0416424 0)
(-0.00414154 0.0357681 0)
(-0.00397801 0.0295868 0)
(-0.00395755 0.0231352 0)
(-0.00428609 0.0117976 0)
(-0.00540514 -0.00594498 0)
(-0.00669636 -0.0254397 0)
(-0.00777983 -0.0464178 0)
(-0.00830598 -0.0687059 0)
(-0.00803603 -0.0922607 0)
(-0.00601 -0.116907 0)
(-0.00419069 -0.144412 0)
(0.0065097 -0.169672 0)
(0.0101853 -0.20569 0)
(0.0412149 -0.226906 0)
(0.0409882 -0.266899 0)
(0.0857853 -0.26865 0)
(0.0763654 -0.278277 0)
(0.102565 -0.256659 0)
(0.0799549 -0.238244 0)
(0.0872434 -0.19833 0)
(0.0218957 -0.190736 0)
(0.0414136 -0.14672 0)
)
;
    }
    defaultFaces
    {
        type            empty;
    }
    procBoundary3to1
    {
        type            processor;
        value           nonuniform List<vector> 
23
(
(0.91373 0.626903 0)
(0.998268 0.493434 0)
(1.03679 0.33826 0)
(1.041 0.175544 0)
(0.955059 -0.0602686 0)
(0.764711 -0.200475 0)
(0.589925 -0.226945 0)
(0.480548 -0.196673 0)
(0.408545 -0.148303 0)
(0.369763 -0.157966 0)
(0.313672 -0.120017 0)
(0.171249 -0.160476 0)
(-0.21837 -0.343438 0)
(-0.808833 -0.573143 0)
(-1.32738 -0.498414 0)
(-1.84398 0.181158 0)
(-2.0251 0.528734 0)
(-2.10897 0.290943 0)
(-1.34808 -1.08022 0)
(-0.392483 -1.76867 0)
(-0.124198 -2.16079 0)
(-0.0134044 -2.30562 0)
(0.11261 -2.16539 0)
)
;
    }
    procBoundary3to2
    {
        type            processor;
        value           nonuniform List<vector> 
25
(
(0.661046 0.604989 0)
(0.53803 0.477365 0)
(0.455653 0.387407 0)
(0.399859 0.322 0)
(0.36338 0.27109 0)
(0.33286 0.235086 0)
(0.306236 0.204501 0)
(0.280375 0.182225 0)
(0.258386 0.161129 0)
(0.23815 0.144215 0)
(0.219004 0.128562 0)
(0.201007 0.11508 0)
(0.183636 0.103108 0)
(0.166794 0.0926802 0)
(0.150366 0.0836304 0)
(0.134333 0.075891 0)
(0.118614 0.06937 0)
(0.103214 0.0639887 0)
(0.0881127 0.0597155 0)
(0.0732694 0.0564591 0)
(0.0587528 0.0540219 0)
(0.0450658 0.0533557 0)
(0.030921 0.0528561 0)
(0.016621 0.0532514 0)
(-0.00521075 0.0504346 0)
)
;
    }
}


// ************************************************************************* //
