/*--------------------------------*- C++ -*----------------------------------*\
| =========                 |                                                 |
| \\      /  F ield         | OpenFOAM: The Open Source CFD Toolbox           |
|  \\    /   O peration     | Version:  2.4.0                                 |
|   \\  /    A nd           | Web:      www.OpenFOAM.org                      |
|    \\/     M anipulation  |                                                 |
\*---------------------------------------------------------------------------*/
FoamFile
{
    version     2.0;
    format      ascii;
    class       volVectorField;
    location    "0.8";
    object      U.water;
}
// * * * * * * * * * * * * * * * * * * * * * * * * * * * * * * * * * * * * * //

dimensions      [0 1 -1 0 0 0 0];

internalField   nonuniform List<vector> 
575
(
(0.754139 0.499492 0)
(0.812336 0.412406 0)
(0.833986 0.310052 0)
(0.844227 0.207807 0)
(0.604415 0.408477 0)
(0.647773 0.34988 0)
(0.668078 0.283601 0)
(0.680401 0.217508 0)
(0.506456 0.338716 0)
(0.539677 0.297526 0)
(0.557266 0.254317 0)
(0.572087 0.208338 0)
(0.438474 0.283831 0)
(0.464158 0.255385 0)
(0.478899 0.224227 0)
(0.493667 0.192289 0)
(0.392528 0.23961 0)
(0.411767 0.219398 0)
(0.423863 0.195838 0)
(0.435889 0.172235 0)
(0.354782 0.208734 0)
(0.369479 0.192789 0)
(0.37901 0.175453 0)
(0.388999 0.156965 0)
(0.323305 0.183076 0)
(0.334703 0.17043 0)
(0.343189 0.156778 0)
(0.352175 0.141554 0)
(0.295069 0.162677 0)
(0.30515 0.150367 0)
(0.312941 0.138527 0)
(0.32158 0.12531 0)
(0.271302 0.144403 0)
(0.279664 0.133405 0)
(0.286844 0.122275 0)
(0.294008 0.111247 0)
(0.249336 0.128436 0)
(0.257086 0.117927 0)
(0.263325 0.107704 0)
(0.27011 0.0966985 0)
(0.22914 0.1141 0)
(0.235818 0.104215 0)
(0.241663 0.0943193 0)
(0.247547 0.0842206 0)
(0.2099 0.101303 0)
(0.215883 0.0918881 0)
(0.221069 0.082431 0)
(0.226401 0.0725849 0)
(0.191501 0.0899839 0)
(0.196718 0.0810216 0)
(0.201361 0.0718735 0)
(0.206059 0.0623896 0)
(0.173683 0.0800006 0)
(0.17824 0.071403 0)
(0.182314 0.0625565 0)
(0.186439 0.0533519 0)
(0.156333 0.0713249 0)
(0.160258 0.0630165 0)
(0.1638 0.0544348 0)
(0.167383 0.0455096 0)
(0.139421 0.0638759 0)
(0.142733 0.0558197 0)
(0.14577 0.047472 0)
(0.148817 0.0388124 0)
(0.122873 0.0575994 0)
(0.125599 0.0497469 0)
(0.128137 0.0416176 0)
(0.130657 0.033187 0)
(0.106666 0.0524455 0)
(0.108843 0.0447752 0)
(0.110895 0.0368473 0)
(0.112905 0.0286327 0)
(0.0907932 0.0483772 0)
(0.092445 0.0408687 0)
(0.0940093 0.0331224 0)
(0.0955279 0.0251053 0)
(0.0752192 0.0453544 0)
(0.0763931 0.0379937 0)
(0.0774774 0.0304179 0)
(0.0785062 0.0225903 0)
(0.059997 0.0432205 0)
(0.0606875 0.0360615 0)
(0.0613266 0.0286693 0)
(0.0619034 0.0210174 0)
(0.0452472 0.0423975 0)
(0.0453703 0.0352418 0)
(0.0454864 0.0279471 0)
(0.045559 0.0204742 0)
(0.0310111 0.042377 0)
(0.0307722 0.0353745 0)
(0.0304222 0.0281293 0)
(0.0299569 0.0206655 0)
(0.0167617 0.0434218 0)
(0.0166398 0.0368748 0)
(0.0163049 0.0300237 0)
(0.0157501 0.0229026 0)
(-0.00454838 0.0416372 0)
(-0.00414154 0.0357635 0)
(-0.00397801 0.0295829 0)
(-0.00395755 0.0231321 0)
(0.797295 0.0569794 0)
(0.680505 -0.0622919 0)
(0.572058 -0.120414 0)
(0.480361 -0.123962 0)
(0.433415 -0.107767 0)
(0.37562 -0.0774068 0)
(0.335309 -0.104912 0)
(0.283084 -0.0940487 0)
(0.129591 -0.0174415 0)
(-0.12193 0.046032 0)
(-0.861971 0.106707 0)
(-1.15308 0.176184 0)
(-1.16449 0.339095 0)
(-1.05304 0.197543 0)
(-0.469269 -0.9829 0)
(-0.259477 -1.67591 0)
(-0.365521 -2.53069 0)
(-0.113138 -2.73835 0)
(0.164354 -2.40404 0)
(0.664186 0.109881 0)
(0.604276 0.0102007 0)
(0.535381 -0.0474244 0)
(0.477132 -0.0706206 0)
(0.419585 -0.0654408 0)
(0.394779 -0.0656088 0)
(0.365281 -0.0305849 0)
(0.322026 -0.00569555 0)
(0.269321 0.0365975 0)
(0.240385 0.21008 0)
(0.197867 0.341037 0)
(0.0591985 0.297092 0)
(-0.0994527 0.309353 0)
(-0.0567391 0.0740894 0)
(-0.0484515 -0.971762 0)
(-0.201209 -1.82906 0)
(-0.436702 -1.92278 0)
(-0.245538 -3.33474 0)
(0.27277 -3.13322 0)
(0.569979 0.131558 0)
(0.546254 0.0525774 0)
(0.498546 0.000948679 0)
(0.465112 -0.0258819 0)
(0.422554 -0.0359245 0)
(0.402694 -0.0246114 0)
(0.374728 -0.0217996 0)
(0.364733 0.0140278 0)
(0.346577 0.0890725 0)
(0.345581 0.17291 0)
(0.412045 0.292186 0)
(0.485067 0.473412 0)
(0.395806 0.393111 0)
(0.399281 0.0789783 0)
(0.22796 -0.561412 0)
(0.0286899 -1.11789 0)
(-0.192742 -1.8061 0)
(-0.168137 -2.68374 0)
(0.218157 -2.77596 0)
(0.497992 0.137416 0)
(0.490013 0.0750495 0)
(0.461926 0.0309386 0)
(0.446312 -0.00298139 0)
(0.418484 -0.00833391 0)
(0.404538 -0.0182861 0)
(0.400512 -0.00159442 0)
(0.388341 0.0235938 0)
(0.405236 0.062104 0)
(0.448226 0.138693 0)
(0.493348 0.232339 0)
(0.65036 0.328054 0)
(0.806756 0.398449 0)
(0.84985 0.254411 0)
(0.711327 -0.0621496 0)
(0.457201 -0.817098 0)
(0.20453 -1.65664 0)
(-0.0783415 -2.70158 0)
(0.0943105 -3.02482 0)
(0.443636 0.133491 0)
(0.443978 0.0848497 0)
(0.431393 0.0453363 0)
(0.427846 0.0111648 0)
(0.409757 0.00287553 0)
(0.410336 -0.00790015 0)
(0.406449 -0.000968665 0)
(0.419749 0.012333 0)
(0.44912 0.044908 0)
(0.485027 0.0938241 0)
(0.572344 0.133352 0)
(0.683525 0.150306 0)
(0.865844 0.26405 0)
(0.967588 0.172708 0)
(0.964758 -0.0157341 0)
(0.799747 -0.503537 0)
(0.463531 -1.39533 0)
(0.0782301 -2.55569 0)
(0.0713806 -2.8865 0)
(0.398219 0.127121 0)
(0.404361 0.0860167 0)
(0.403391 0.0493057 0)
(0.407694 0.0187221 0)
(0.397682 0.00275146 0)
(0.408717 -0.00641282 0)
(0.412684 -0.0122997 0)
(0.433248 -0.00973878 0)
(0.468134 0.0123113 0)
(0.516525 0.0274584 0)
(0.611763 0.0390211 0)
(0.69776 0.0365148 0)
(0.850432 0.070425 0)
(0.979282 0.127703 0)
(0.982002 0.064491 0)
(0.85482 -0.241905 0)
(0.560742 -1.10787 0)
(0.188327 -2.29781 0)
(0.0476038 -2.76051 0)
(0.3627 0.115758 0)
(0.372678 0.0801059 0)
(0.377013 0.0460045 0)
(0.386843 0.0190011 0)
(0.382477 -0.0015565 0)
(0.400691 -0.012474 0)
(0.410428 -0.0282472 0)
(0.436336 -0.0347654 0)
(0.473912 -0.0270624 0)
(0.528415 -0.0375313 0)
(0.619819 -0.0465371 0)
(0.717087 -0.0582934 0)
(0.84672 -0.051115 0)
(0.924366 0.106536 0)
(0.911233 0.0980381 0)
(0.810178 -0.102192 0)
(0.594242 -0.858343 0)
(0.263891 -2.05361 0)
(0.0410811 -2.68318 0)
(0.332384 0.104642 0)
(0.344194 0.0724275 0)
(0.351484 0.0403948 0)
(0.364285 0.0149398 0)
(0.363905 -0.00949996 0)
(0.387588 -0.0263219 0)
(0.397246 -0.0485791 0)
(0.429628 -0.0629613 0)
(0.466758 -0.068909 0)
(0.521334 -0.105072 0)
(0.610661 -0.140538 0)
(0.708109 -0.161645 0)
(0.832972 -0.129174 0)
(0.878796 0.0912115 0)
(0.852044 0.147745 0)
(0.772004 0.0246638 0)
(0.617548 -0.62208 0)
(0.366644 -1.83358 0)
(0.101785 -2.52882 0)
(0.305398 0.0912108 0)
(0.317876 0.062292 0)
(0.327179 0.0322844 0)
(0.339786 0.00706177 0)
(0.346324 -0.0192413 0)
(0.364662 -0.0410793 0)
(0.37904 -0.0667104 0)
(0.406365 -0.0934465 0)
(0.444081 -0.110866 0)
(0.498599 -0.173713 0)
(0.578245 -0.242839 0)
(0.665732 -0.268769 0)
(0.760015 -0.207995 0)
(0.807554 0.0757262 0)
(0.759492 0.19194 0)
(0.690775 0.0953539 0)
(0.626246 -0.477432 0)
(0.472251 -1.6006 0)
(0.190302 -2.26004 0)
(0.280632 0.0790983 0)
(0.293031 0.0519954 0)
(0.303047 0.0236355 0)
(0.315201 -0.00228682 0)
(0.324486 -0.0291864 0)
(0.339703 -0.0555753 0)
(0.355292 -0.0841584 0)
(0.37667 -0.117846 0)
(0.407202 -0.148164 0)
(0.449085 -0.228006 0)
(0.484008 -0.30768 0)
(0.530486 -0.324953 0)
(0.584105 -0.24751 0)
(0.641537 0.113349 0)
(0.613558 0.226961 0)
(0.577338 0.127953 0)
(0.609562 -0.401461 0)
(0.517155 -1.36097 0)
(0.234957 -1.90253 0)
(0.257118 0.0671114 0)
(0.269296 0.0416885 0)
(0.279158 0.014561 0)
(0.290664 -0.0117067 0)
(0.300241 -0.0392993 0)
(0.313338 -0.0676882 0)
(0.325408 -0.0991008 0)
(0.343966 -0.134713 0)
(0.358553 -0.17723 0)
(0.389876 -0.23896 0)
(0.375692 -0.332842 0)
(0.37793 -0.357445 0)
(0.387888 -0.268421 0)
(0.427148 0.117864 0)
(0.471831 0.2127 0)
(0.472522 0.112777 0)
(0.576413 -0.381856 0)
(0.471266 -1.1736 0)
(0.209084 -1.57577 0)
(0.234903 0.0563433 0)
(0.246185 0.0318947 0)
(0.255571 0.00574739 0)
(0.26601 -0.0206664 0)
(0.274948 -0.0483712 0)
(0.28547 -0.0776989 0)
(0.29506 -0.109844 0)
(0.306721 -0.1452 0)
(0.314127 -0.188704 0)
(0.321468 -0.242008 0)
(0.300929 -0.31499 0)
(0.257157 -0.345823 0)
(0.236498 -0.26348 0)
(0.279185 0.0747376 0)
(0.376164 0.144918 0)
(0.401893 0.0450493 0)
(0.550453 -0.380459 0)
(0.38267 -1.01934 0)
(0.158145 -1.33494 0)
(0.21348 0.0465233 0)
(0.223829 0.0229822 0)
(0.232346 -0.00242954 0)
(0.241502 -0.0286115 0)
(0.249402 -0.0561875 0)
(0.257714 -0.0855224 0)
(0.264997 -0.117163 0)
(0.271984 -0.151196 0)
(0.275408 -0.190824 0)
(0.270906 -0.232914 0)
(0.253542 -0.284143 0)
(0.201839 -0.315698 0)
(0.16727 -0.258874 0)
(0.193961 0.00246778 0)
(0.340599 0.0552896 0)
(0.369563 -0.0404356 0)
(0.514735 -0.352103 0)
(0.311583 -0.845227 0)
(0.126431 -1.14604 0)
(0.192852 0.0379063 0)
(0.201973 0.0150393 0)
(0.209525 -0.00970833 0)
(0.217338 -0.0354912 0)
(0.223986 -0.0626586 0)
(0.230403 -0.0916285 0)
(0.23593 -0.122445 0)
(0.239246 -0.154679 0)
(0.241602 -0.19024 0)
(0.23503 -0.225317 0)
(0.226571 -0.262407 0)
(0.194832 -0.277639 0)
(0.160734 -0.251602 0)
(0.179074 -0.0799498 0)
(0.327701 -0.0408478 0)
(0.353388 -0.111861 0)
(0.437872 -0.312694 0)
(0.279235 -0.68466 0)
(0.125333 -0.954598 0)
(0.172836 0.0304022 0)
(0.180706 0.00808764 0)
(0.187177 -0.0159689 0)
(0.193625 -0.0412925 0)
(0.199006 -0.0679196 0)
(0.203953 -0.0961983 0)
(0.207731 -0.125976 0)
(0.209833 -0.156891 0)
(0.212852 -0.190591 0)
(0.206915 -0.220777 0)
(0.209131 -0.252816 0)
(0.196805 -0.261178 0)
(0.196163 -0.2524 0)
(0.209641 -0.143083 0)
(0.31248 -0.119296 0)
(0.317966 -0.151136 0)
(0.342983 -0.270547 0)
(0.237426 -0.575562 0)
(0.124235 -0.796599 0)
(0.153349 0.024011 0)
(0.159928 0.00219884 0)
(0.165285 -0.0212372 0)
(0.170406 -0.0459994 0)
(0.174628 -0.0720506 0)
(0.178039 -0.099623 0)
(0.180724 -0.128705 0)
(0.18187 -0.158986 0)
(0.18418 -0.19089 0)
(0.180537 -0.219848 0)
(0.189498 -0.25469 0)
(0.194274 -0.259734 0)
(0.223617 -0.263381 0)
(0.23489 -0.178266 0)
(0.298035 -0.139714 0)
(0.283316 -0.144569 0)
(0.280281 -0.215118 0)
(0.202435 -0.4906 0)
(0.111698 -0.635422 0)
(0.134324 0.0187218 0)
(0.139674 -0.00266162 0)
(0.143914 -0.0254978 0)
(0.147755 -0.0496871 0)
(0.150735 -0.0750876 0)
(0.152969 -0.102068 0)
(0.154505 -0.13029 0)
(0.154715 -0.160332 0)
(0.156368 -0.191543 0)
(0.156121 -0.224702 0)
(0.164219 -0.264901 0)
(0.180186 -0.292874 0)
(0.223081 -0.297569 0)
(0.238722 -0.210221 0)
(0.259863 -0.148634 0)
(0.220925 -0.133517 0)
(0.198567 -0.182592 0)
(0.1552 -0.434112 0)
(0.0949527 -0.523659 0)
(0.115747 0.0145109 0)
(0.119844 -0.00642163 0)
(0.123012 -0.0286848 0)
(0.125652 -0.0522707 0)
(0.127423 -0.0770087 0)
(0.128335 -0.103189 0)
(0.128255 -0.130805 0)
(0.126954 -0.160299 0)
(0.124807 -0.192398 0)
(0.12329 -0.226262 0)
(0.120018 -0.275612 0)
(0.129464 -0.326455 0)
(0.121868 -0.320211 0)
(0.136816 -0.214486 0)
(0.151237 -0.11089 0)
(0.0877635 -0.092966 0)
(0.14316 -0.168828 0)
(0.130742 -0.401231 0)
(0.082902 -0.415384 0)
(0.0976179 0.0113093 0)
(0.100557 -0.0091802 0)
(0.102646 -0.0308912 0)
(0.104154 -0.0538417 0)
(0.104838 -0.0778942 0)
(0.104587 -0.103208 0)
(0.10299 -0.129795 0)
(0.0999109 -0.157635 0)
(0.0950681 -0.188423 0)
(0.0860961 -0.219537 0)
(0.0710134 -0.265603 0)
(0.0355879 -0.298415 0)
(0.0030515 -0.30008 0)
(-0.0267883 -0.205055 0)
(0.0221512 -0.108462 0)
(-0.000434139 -0.108586 0)
(0.119156 -0.235447 0)
(0.0885599 -0.368062 0)
(0.0571819 -0.338798 0)
(0.0798629 0.00912902 0)
(0.0816633 -0.0109172 0)
(0.0827616 -0.0320773 0)
(0.0832183 -0.0543649 0)
(0.0829062 -0.0776543 0)
(0.0816132 -0.101965 0)
(0.0791383 -0.127162 0)
(0.0743156 -0.152834 0)
(0.0690409 -0.180411 0)
(0.0538585 -0.20412 0)
(0.0405789 -0.235202 0)
(-0.000159927 -0.261857 0)
(-0.0330207 -0.267386 0)
(-0.0762241 -0.206358 0)
(-0.0146244 -0.129561 0)
(0.00365393 -0.165739 0)
(0.1021 -0.280779 0)
(0.0449692 -0.309533 0)
(0.0354958 -0.291706 0)
(0.0625664 0.00781035 0)
(0.0633072 -0.0118216 0)
(0.0634404 -0.0324917 0)
(0.0630055 -0.0542623 0)
(0.0619597 -0.0768309 0)
(0.0600482 -0.100193 0)
(0.0572932 -0.12405 0)
(0.0522306 -0.147558 0)
(0.0484767 -0.171994 0)
(0.0344219 -0.191217 0)
(0.0275194 -0.213965 0)
(-0.00546955 -0.229981 0)
(-0.0275914 -0.236059 0)
(-0.0707659 -0.229939 0)
(0.00786971 -0.193252 0)
(0.0359164 -0.215267 0)
(0.0744648 -0.27585 0)
(0.00825708 -0.30113 0)
(0.0333254 -0.272771 0)
(0.0455624 0.00763465 0)
(0.0452365 -0.01159 0)
(0.0444405 -0.0318343 0)
(0.0431353 -0.0530483 0)
(0.0412767 -0.0750187 0)
(0.0387029 -0.0976238 0)
(0.0357023 -0.120522 0)
(0.0300108 -0.142658 0)
(0.0272962 -0.164998 0)
(0.0130095 -0.182174 0)
(0.0146544 -0.200979 0)
(-0.00712098 -0.219152 0)
(0.00632565 -0.215922 0)
(-0.0232646 -0.242573 0)
(0.0452197 -0.230721 0)
(0.0394913 -0.232377 0)
(0.0770243 -0.265984 0)
(0.01129 -0.276931 0)
(0.0426194 -0.257013 0)
(0.0289586 0.00789095 0)
(0.0275829 -0.0109849 0)
(0.0258523 -0.030852 0)
(0.0239656 -0.051594 0)
(0.0216794 -0.0730644 0)
(0.0186405 -0.0949003 0)
(0.0153458 -0.116835 0)
(0.00969999 -0.138104 0)
(0.00958966 -0.159887 0)
(0.00258583 -0.178539 0)
(0.0136879 -0.195827 0)
(-0.00057148 -0.216875 0)
(0.03446 -0.215346 0)
(0.0307271 -0.258117 0)
(0.0720165 -0.245368 0)
(0.0658551 -0.248493 0)
(0.0933539 -0.247 0)
(0.0320925 -0.257634 0)
(0.0497825 -0.223571 0)
(0.0144669 0.0104396 0)
(0.0117823 -0.00845382 0)
(0.00849185 -0.028331 0)
(0.00492392 -0.0491137 0)
(0.00154594 -0.0705189 0)
(-0.00119334 -0.092607 0)
(-0.00187903 -0.115299 0)
(-0.00306216 -0.138448 0)
(0.00369003 -0.161266 0)
(0.00263416 -0.187013 0)
(0.0281442 -0.20455 0)
(0.027019 -0.24439 0)
(0.0772128 -0.246829 0)
(0.069216 -0.273688 0)
(0.0968091 -0.257838 0)
(0.0785847 -0.247696 0)
(0.0907126 -0.22682 0)
(0.0279046 -0.220695 0)
(0.0395619 -0.182787 0)
(-0.00428609 0.0117967 0)
(-0.00540514 -0.00593936 0)
(-0.00669636 -0.0254279 0)
(-0.00777983 -0.0464004 0)
(-0.00830598 -0.0686828 0)
(-0.00803603 -0.0922293 0)
(-0.00601 -0.116868 0)
(-0.00419069 -0.144332 0)
(0.0065097 -0.169571 0)
(0.0101853 -0.205505 0)
(0.0412149 -0.226722 0)
(0.0409882 -0.266684 0)
(0.0857853 -0.268451 0)
(0.0763654 -0.278215 0)
(0.102565 -0.25667 0)
(0.0799549 -0.238343 0)
(0.0872434 -0.198664 0)
(0.0218957 -0.191146 0)
(0.0414136 -0.147223 0)
)
;

boundaryField
{
    leftWall
    {
        type            fixedValue;
        value           nonuniform 0();
    }
    rightWall
    {
        type            fixedValue;
        value           uniform (0 0 0);
    }
    lowerWall
    {
        type            fixedValue;
        value           nonuniform 0();
    }
    atmosphere
    {
        type            fluxCorrectedVelocity;
        value           nonuniform List<vector> 
23
(
(-0.00454838 0.0416424 0)
(-0.00414154 0.0357681 0)
(-0.00397801 0.0295868 0)
(-0.00395755 0.0231352 0)
(-0.00428609 0.0117976 0)
(-0.00540514 -0.00594498 0)
(-0.00669636 -0.0254397 0)
(-0.00777983 -0.0464178 0)
(-0.00830598 -0.0687059 0)
(-0.00803603 -0.0922607 0)
(-0.00601 -0.116907 0)
(-0.00419069 -0.144412 0)
(0.0065097 -0.169672 0)
(0.0101853 -0.20569 0)
(0.0412149 -0.226906 0)
(0.0409882 -0.266899 0)
(0.0857853 -0.26865 0)
(0.0763654 -0.278277 0)
(0.102565 -0.256659 0)
(0.0799549 -0.238244 0)
(0.0872434 -0.19833 0)
(0.0218957 -0.190736 0)
(0.0414136 -0.14672 0)
)
;
    }
    defaultFaces
    {
        type            empty;
    }
    procBoundary3to1
    {
        type            processor;
        value           nonuniform List<vector> 
23
(
(0.913269 0.62742 0)
(0.997899 0.494015 0)
(1.03673 0.338782 0)
(1.04097 0.175986 0)
(0.955138 -0.0599699 0)
(0.764769 -0.200437 0)
(0.589933 -0.226952 0)
(0.480525 -0.196666 0)
(0.408504 -0.14835 0)
(0.37072 -0.15869 0)
(0.315463 -0.120425 0)
(0.173029 -0.160104 0)
(-0.200546 -0.33468 0)
(-0.771424 -0.568984 0)
(-1.28274 -0.46449 0)
(-1.82534 0.215689 0)
(-2.02154 0.533533 0)
(-2.10943 0.29386 0)
(-1.34852 -1.07862 0)
(-0.392704 -1.76852 0)
(-0.124062 -2.16071 0)
(-0.0133581 -2.30451 0)
(0.11268 -2.16353 0)
)
;
    }
    procBoundary3to2
    {
        type            processor;
        value           nonuniform List<vector> 
25
(
(0.661004 0.605013 0)
(0.538027 0.477359 0)
(0.455653 0.387402 0)
(0.399859 0.321999 0)
(0.36338 0.27109 0)
(0.33286 0.235086 0)
(0.306236 0.204501 0)
(0.280375 0.182225 0)
(0.258386 0.161129 0)
(0.23815 0.144215 0)
(0.219004 0.128562 0)
(0.201007 0.11508 0)
(0.183636 0.103108 0)
(0.166794 0.0926802 0)
(0.150366 0.0836304 0)
(0.134333 0.075891 0)
(0.118614 0.06937 0)
(0.103214 0.0639887 0)
(0.0881127 0.0597155 0)
(0.0732694 0.0564591 0)
(0.0587528 0.0540219 0)
(0.0450658 0.0533557 0)
(0.030921 0.0528561 0)
(0.016621 0.0532514 0)
(-0.00521075 0.0504346 0)
)
;
    }
}


// ************************************************************************* //
