/*--------------------------------*- C++ -*----------------------------------*\
| =========                 |                                                 |
| \\      /  F ield         | OpenFOAM: The Open Source CFD Toolbox           |
|  \\    /   O peration     | Version:  2.4.0                                 |
|   \\  /    A nd           | Web:      www.OpenFOAM.org                      |
|    \\/     M anipulation  |                                                 |
\*---------------------------------------------------------------------------*/
FoamFile
{
    version     2.0;
    format      ascii;
    class       volScalarField;
    location    "0.95";
    object      alpha.air;
}
// * * * * * * * * * * * * * * * * * * * * * * * * * * * * * * * * * * * * * //

dimensions      [0 0 0 0 0 0 0];

internalField   nonuniform List<scalar> 
575
(
9.88804e-12
8.79507e-12
6.06936e-12
5.01435e-12
3.69656e-12
2.72921e-12
2.21567e-12
1.78641e-12
1.24687e-12
7.42993e-13
4.70348e-13
3.6404e-13
2.85166e-13
1.93305e-13
1.13124e-13
6.93747e-14
5.95105e-14
7.55816e-14
1.11589e-13
1.36661e-13
7.57314e-14
3.60785e-14
2.96114e-11
3.04353e-11
2.55093e-11
2.33867e-11
1.82475e-11
1.33017e-11
1.07678e-11
8.88572e-12
6.45472e-12
4.12003e-12
2.6768e-12
1.92282e-12
1.41621e-12
9.58161e-13
5.97838e-13
4.16539e-13
3.96494e-13
5.42016e-13
8.81127e-13
1.32717e-12
1.17015e-12
7.64999e-13
7.28779e-11
6.67574e-11
4.78226e-11
3.67073e-11
2.87429e-11
2.54884e-11
2.57438e-11
2.39189e-11
1.86766e-11
1.27502e-11
8.2868e-12
5.72376e-12
3.97611e-12
2.8733e-12
2.02822e-12
1.72848e-12
2.07487e-12
2.98958e-12
4.70542e-12
7.29548e-12
6.06819e-12
8.20178e-12
1.6012e-10
1.13921e-10
8.73066e-11
7.80854e-11
7.013e-11
6.44638e-11
6.07814e-11
5.44186e-11
4.2485e-11
3.15164e-11
2.02564e-11
1.89365e-11
9.27247e-12
8.45155e-12
7.51485e-12
1.18566e-11
1.46868e-11
1.24235e-11
1.56758e-11
3.49472e-10
6.31538e-09
2.12619e-08
2.02163e-10
1.89735e-10
1.5482e-10
1.27633e-10
1.13416e-10
1.064e-10
1.14793e-10
1.40625e-10
2.3304e-10
4.52125e-10
6.47518e-10
2.97767e-10
1.94284e-11
4.47954e-11
1.69921e-09
7.82738e-09
8.8118e-09
7.51997e-10
1.26677e-09
5.59437e-08
1.67979e-06
6.9359e-06
2.02066e-10
1.97944e-10
1.80647e-10
1.71235e-10
2.2496e-10
4.02762e-10
6.01006e-10
7.86219e-10
1.16391e-09
3.69976e-09
1.08201e-08
1.46514e-08
1.70377e-09
1.79735e-09
5.07229e-08
2.54361e-07
3.42233e-07
8.74754e-08
8.84069e-08
1.30419e-06
2.7281e-05
6.70421e-05
1.56686e-10
2.02204e-10
2.57181e-10
3.74133e-10
6.61963e-10
9.89657e-10
1.12642e-09
1.12599e-09
9.99966e-10
1.82482e-09
9.76973e-09
2.87954e-08
3.24646e-08
2.02212e-08
9.85231e-08
5.23183e-07
8.49292e-07
8.48225e-07
4.87646e-07
3.56642e-06
3.49811e-05
6.72262e-05
7.4124e-11
1.33226e-10
2.78082e-10
4.40806e-10
4.2009e-10
3.26659e-10
3.63997e-10
4.24399e-10
4.27877e-10
4.6471e-10
3.67164e-09
2.8195e-08
9.43235e-08
1.24948e-07
9.96574e-08
9.96868e-08
4.25252e-07
1.44698e-06
6.58946e-07
6.60807e-07
1.98367e-06
0.000127446
6.725e-11
7.80467e-11
1.15279e-10
1.25038e-10
1.40103e-10
1.40602e-10
2.29552e-10
4.08849e-10
3.75264e-09
5.65881e-09
9.3252e-09
2.11889e-08
9.5855e-08
3.03435e-07
5.33286e-07
7.62416e-07
1.1708e-06
2.06698e-06
1.64441e-06
7.92203e-07
7.9484e-06
0.00170501
6.66721e-09
5.51607e-09
2.71398e-09
7.86663e-10
5.11639e-10
6.45813e-10
1.19439e-09
1.96852e-09
1.32904e-07
4.57117e-08
9.31946e-08
3.5381e-07
3.99834e-07
5.06892e-07
1.01201e-06
1.87568e-06
1.99812e-06
2.65437e-06
4.39198e-06
6.73511e-06
0.000438014
0.00498836
1.02466e-07
7.01721e-08
4.06021e-08
3.6387e-08
2.63987e-08
1.88566e-08
6.82398e-09
1.01067e-08
6.26177e-07
2.6381e-06
4.38047e-05
0.000248044
6.95955e-05
1.6573e-05
2.19501e-06
3.50301e-06
2.00345e-06
2.1534e-06
3.72549e-06
5.08026e-05
0.000727914
0.00268821
3.39674e-07
3.02571e-07
2.73111e-07
3.33535e-07
2.50415e-07
5.49509e-08
6.82722e-09
8.67823e-08
8.94394e-06
0.00030908
0.0059906
0.0223283
0.0120482
0.00138051
0.000425661
0.000137059
0.000566352
0.000214703
8.7234e-05
0.000249813
0.00102688
0.00124253
1.1461e-06
1.15147e-06
8.33276e-07
3.12389e-07
1.06497e-07
2.99324e-08
4.11516e-08
4.29952e-06
0.000101373
0.00576386
0.0552814
0.0683947
0.0534023
0.00761671
0.00276837
0.00170521
0.00259276
0.000890586
0.000359112
0.000903546
0.00327571
0.00551206
1.8452e-06
1.03708e-06
2.89705e-07
1.67343e-07
9.64814e-08
9.13058e-08
1.1311e-06
6.06785e-05
0.00125136
0.0102989
0.0228055
0.0397687
0.17995
0.46691
0.470613
0.173833
0.0264711
0.0116117
0.0134164
0.0228284
0.13408
0.359831
0.00038429
1.3265e-06
3.03659e-07
3.81075e-06
2.08922e-05
1.26047e-05
1.24969e-05
0.00033611
0.00256723
0.00795802
0.0148247
0.137851
0.712461
0.969064
0.969126
0.890269
0.686614
0.418943
0.312652
0.441795
0.809304
0.970527
0.0964199
0.00532313
0.000271336
0.000453752
5.04041e-05
0.000253431
0.00543673
0.0272857
0.0362144
0.0403458
0.0501479
0.353912
0.945997
0.999801
0.999858
0.999234
0.995357
0.966681
0.935008
0.950097
0.992988
0.999834
0.146961
0.122259
0.00943872
0.000807314
0.000783486
0.0146577
0.0573571
0.161078
0.177548
0.161463
0.449779
0.908039
0.99755
1
1
1
0.999996
0.999872
0.999534
0.999548
0.999951
1
1
0.759152
0.69185
0.235844
0.063177
0.0630593
0.320813
0.782048
0.960043
0.980142
0.968993
0.984786
0.998488
0.999943
1
1
1
1
1
1
1
1
1
1
0.991499
0.973018
0.830794
0.702676
0.709605
0.913157
0.995787
0.99996
0.999991
0.999943
0.999821
0.999785
0.999973
1
1
1
1
1
1
1
1
1
1
0.999945
0.999188
0.993901
0.989229
0.990102
0.998358
0.999984
1
1
0.999994
0.999885
0.999645
0.999645
0.999738
1
1
1
1
1
1
1
0.999999
0.999999
0.999999
0.999995
0.999968
0.999957
0.99997
0.999994
1
1
1
0.999999
0.999995
0.999898
0.999664
0.999786
0.999991
1
1
1
1
1
1
1
1
0.999999
0.999999
0.999999
0.999999
0.999999
1
1
1
1
0.999999
1
0.999997
0.999964
0.999949
0.999939
0.999948
0.999997
1
1
1
1
1
1
0.999999
0.999999
0.999999
0.999999
0.999999
0.999999
1
1
1
1
1
1
0.999999
0.999995
0.999947
0.999977
0.999956
0.999957
0.999988
0.999999
1
1
0.999999
0.999999
0.999999
0.999999
0.999999
0.999999
0.999999
0.999999
1
1
1
1
1
1
0.999999
0.999995
0.999998
0.99996
0.999925
0.999925
0.999963
0.999994
0.999995
0.99998
0.999999
0.999999
0.999999
0.999999
0.999999
0.999999
0.999999
1
1
1
1
1
1
1
1
1
0.999992
0.999962
0.999964
0.99998
0.999991
0.999977
0.999976
0.999999
0.999999
0.999999
0.999999
0.999999
0.999999
0.999999
1
1
1
1
1
1
1
1
1
)
;

boundaryField
{
    leftWall
    {
        type            alphaContactAngle;
        thetaProperties 
6
(

(
water
mercury
)
 90 0 0 0

(
water
air
)
 90 0 0 0

(
water
oil
)
 90 0 0 0

(
mercury
air
)
 90 0 0 0

(
oil
mercury
)
 90 0 0 0

(
oil
air
)
 90 0 0 0
);
        value           nonuniform List<scalar> 
26
(
9.88804e-12
2.96114e-11
7.28779e-11
1.6012e-10
2.02163e-10
2.02066e-10
1.56686e-10
7.4124e-11
6.725e-11
6.66721e-09
1.02466e-07
3.39674e-07
1.1461e-06
1.8452e-06
0.00038429
0.0964199
0.146961
0.759152
0.991499
0.999945
0.999999
0.999999
0.999999
0.999999
0.999999
0.999999
)
;
    }
    rightWall
    {
        type            alphaContactAngle;
        thetaProperties 
6
(

(
water
mercury
)
 90 0 0 0

(
water
air
)
 90 0 0 0

(
water
oil
)
 90 0 0 0

(
mercury
air
)
 90 0 0 0

(
oil
mercury
)
 90 0 0 0

(
oil
air
)
 90 0 0 0
);
        value           nonuniform 0();
    }
    lowerWall
    {
        type            alphaContactAngle;
        thetaProperties 
6
(

(
water
mercury
)
 90 0 0 0

(
water
air
)
 90 0 0 0

(
water
oil
)
 90 0 0 0

(
mercury
air
)
 90 0 0 0

(
oil
mercury
)
 90 0 0 0

(
oil
air
)
 90 0 0 0
);
        value           nonuniform List<scalar> 
22
(
9.88804e-12
8.79507e-12
6.06936e-12
5.01435e-12
3.69656e-12
2.72921e-12
2.21567e-12
1.78641e-12
1.24687e-12
7.42993e-13
4.70348e-13
3.6404e-13
2.85166e-13
1.93305e-13
1.13124e-13
6.93747e-14
5.95105e-14
7.55816e-14
1.11589e-13
1.36661e-13
7.57314e-14
3.60785e-14
)
;
    }
    atmosphere
    {
        type            inletOutlet;
        inletValue      nonuniform 0();
        value           nonuniform 0();
    }
    defaultFaces
    {
        type            empty;
    }
    procBoundary0to1
    {
        type            processor;
        value           nonuniform List<scalar> 
26
(
1.50423e-13
1.12015e-12
6.3361e-12
7.78027e-09
3.60879e-06
5.52737e-05
8.13429e-05
0.00198468
0.00767973
0.00744114
0.00200768
0.000233089
0.00232375
0.37005
0.98815
0.999991
0.999991
1
1
1
0.999999
0.999999
1
0.999996
0.999976
0.999976
)
;
    }
    procBoundary0to2
    {
        type            processor;
        value           nonuniform List<scalar> 
24
(
0.999999
0.999997
0.999998
0.999998
0.999998
0.999997
0.999998
0.999999
0.999999
0.999999
0.999999
0.999999
0.999999
0.999999
1
1
1
1
1
1
1
1
0.999999
1
)
;
    }
}


// ************************************************************************* //
