/*--------------------------------*- C++ -*----------------------------------*\
| =========                 |                                                 |
| \\      /  F ield         | OpenFOAM: The Open Source CFD Toolbox           |
|  \\    /   O peration     | Version:  2.4.0                                 |
|   \\  /    A nd           | Web:      www.OpenFOAM.org                      |
|    \\/     M anipulation  |                                                 |
\*---------------------------------------------------------------------------*/
FoamFile
{
    version     2.0;
    format      ascii;
    class       volScalarField;
    location    "0.95";
    object      alphas;
}
// * * * * * * * * * * * * * * * * * * * * * * * * * * * * * * * * * * * * * //

dimensions      [0 0 0 0 0 0 0];

internalField   nonuniform List<scalar> 
575
(
2
2
2
2
2
2
2
2
2
2
2
2
2
2
2
2
2
2
2
2
2
1.99999
1.99999
1.99999
2
2
2
2
2
2
2
2
2
2
2
2
2
2
2
2
2
2
2
1.99999
1.99902
1.9998
1.99998
1.99999
2
2
2
2
2
2
2
2
2
2
2
2
2
2
2
2
2
2
1.94622
1.98942
1.99877
1.99977
1.99992
1.99996
1.99998
1.99999
1.99999
1.99999
1.99999
2
2
2
2
2
2
2
2
1.99999
1.99998
1.99999
1.58625
1.91422
1.98723
1.99795
1.99956
1.99966
1.99856
1.99521
1.99056
1.98883
1.991
1.99502
1.99712
1.998
1.9984
1.99861
1.99883
1.99871
1.99749
1.99439
1.99172
1.9957
0.916384
1.68631
1.95411
1.99041
1.98846
1.94039
1.84442
1.69588
1.52193
1.42706
1.44213
1.57236
1.68127
1.74705
1.77947
1.79263
1.80469
1.80032
1.74586
1.6415
1.57188
1.63438
0.345805
1.17064
1.76201
1.83974
1.50056
0.989964
0.598515
0.300659
0.116245
0.0500365
0.0399099
0.0577044
0.101683
0.167253
0.251896
0.311313
0.336871
0.33607
0.300802
0.220304
0.147634
0.0730059
0.0854172
0.432878
0.704225
0.576004
0.236592
0.0612721
0.0155599
0.00472809
0.0018997
0.00147037
0.00138703
0.00102433
0.000805291
0.000783741
0.000777512
0.00127332
0.0029501
0.00435104
0.00445554
0.00448161
0.00947513
0.0420351
0.0169148
0.0675931
0.0846963
0.0424415
0.0160599
0.00664853
0.00343642
0.00192541
0.00146868
0.00137354
0.000927964
0.00124
0.00204273
0.00290144
0.00338516
0.00465549
0.00929955
0.0129802
0.0141553
0.02021
0.0233241
0.0865785
0.000704991
0.0024331
0.00253219
0.00148091
0.00147468
0.00146997
0.00145168
0.00138602
0.00117333
0.00111789
0.00577522
0.0184691
0.0281984
0.0225956
0.0189311
0.0165057
0.0179697
0.025943
0.0472209
0.190657
0.255152
0.364828
0.00079188
0.00101029
0.00108276
0.00110103
0.00106935
0.00103295
0.000939521
0.000866099
0.00222329
0.0321739
0.126466
0.23047
0.288454
0.238234
0.166018
0.100864
0.062369
0.0738244
0.22126
0.587778
0.638091
0.775324
0.0994816
0.057459
0.0226478
0.0105523
0.00633408
0.00320216
0.00291212
0.0134982
0.0796576
0.346887
0.591891
0.720646
0.735055
0.6539
0.454956
0.294729
0.387252
0.580768
0.769112
0.878008
0.907642
0.934695
0.680043
0.413415
0.152834
0.0551551
0.0214933
0.0149521
0.0584937
0.252104
0.538058
0.839161
0.967347
0.92896
0.883079
0.78398
0.770258
0.790532
0.855242
0.913165
0.942506
0.95106
0.958197
0.964904
0.848178
0.731074
0.314667
0.145748
0.109444
0.188295
0.566031
0.858695
0.904938
0.918085
0.937697
0.978665
1.27956
1.87299
1.87803
1.28964
1.01178
0.983325
0.98874
1.01696
1.25438
1.7129
0.849352
0.842469
0.581973
0.451784
0.463799
0.668127
0.878835
0.924953
0.931652
0.947816
0.968409
1.23284
2.41499
2.93675
2.93681
2.77899
2.37109
1.83247
1.61763
1.87819
2.61776
2.94099
1.13748
0.864162
0.793378
0.724903
0.812134
0.904353
0.940261
1.0058
1.03258
1.04496
1.07436
1.70039
2.89171
2.9996
2.99972
2.99847
2.99071
2.93331
2.86986
2.90007
2.98597
2.99967
1.28911
1.18741
0.912107
0.898404
0.921109
0.967929
1.09604
1.3181
1.35341
1.32155
1.89839
2.81586
2.9951
3
3
3
2.99999
2.99975
2.99907
2.9991
2.9999
3
3
2.5181
2.3765
1.43673
1.07614
1.08291
1.62493
2.56296
2.92006
2.96028
2.93797
2.96957
2.99698
2.99989
3
3
3
3
3
3
3
3
3
3
2.983
2.94582
2.6593
2.40013
2.41388
2.82537
2.99156
2.99992
2.99998
2.99989
2.99964
2.99957
2.99995
3
3
3
3
3
3
3
3
3
3
2.99989
2.99837
2.98778
2.97841
2.98015
2.99671
2.99997
3
3
2.99999
2.99977
2.99929
2.99929
2.99948
3
3
3
3
3
3
3
3
3
3
2.99999
2.99994
2.99991
2.99994
2.99999
3
3
3
3
2.99999
2.9998
2.99933
2.99957
2.99998
3
3
3
3
3
3
3
3
3
3
3
3
3
3
3
3
3
3
3
2.99999
2.99993
2.9999
2.99988
2.9999
2.99999
3
3
3
3
3
3
3
3
3
3
3
3
3
3
3
3
3
3
3
2.99999
2.99989
2.99995
2.99991
2.99991
2.99997
3
3
3
3
3
3
3
3
3
3
3
3
3
3
3
3
3
3
2.99999
3
2.99992
2.99985
2.99985
2.99992
2.99999
2.99999
2.99996
3
3
3
3
3
3
3
3
3
3
3
3
3
3
3
3
2.99998
2.99992
2.99993
2.99996
2.99998
2.99995
2.99995
3
3
3
3
3
3
3
3
3
3
3
3
3
3
3
3
)
;

boundaryField
{
    leftWall
    {
        type            zeroGradient;
    }
    rightWall
    {
        type            zeroGradient;
    }
    lowerWall
    {
        type            zeroGradient;
    }
    atmosphere
    {
        type            zeroGradient;
    }
    defaultFaces
    {
        type            empty;
    }
    procBoundary0to1
    {
        type            processor;
        value           nonuniform List<scalar> 
26
(
1.99999
1.99999
1.99999
1.99999
1.99349
1.40562
0.0433974
0.138094
0.553936
0.819981
0.915305
0.935052
0.951801
1.72514
2.97622
2.99998
2.99998
3
3
3
3
3
3
2.99999
2.99995
2.99995
)
;
    }
    procBoundary0to2
    {
        type            processor;
        value           nonuniform List<scalar> 
24
(
3
2.99999
3
3
3
2.99999
3
3
3
3
3
3
3
3
3
3
3
3
3
3
3
3
3
3
)
;
    }
}


// ************************************************************************* //
