/*--------------------------------*- C++ -*----------------------------------*\
| =========                 |                                                 |
| \\      /  F ield         | OpenFOAM: The Open Source CFD Toolbox           |
|  \\    /   O peration     | Version:  2.4.0                                 |
|   \\  /    A nd           | Web:      www.OpenFOAM.org                      |
|    \\/     M anipulation  |                                                 |
\*---------------------------------------------------------------------------*/
FoamFile
{
    version     2.0;
    format      ascii;
    class       volScalarField;
    location    "0.95";
    object      alpha.water;
}
// * * * * * * * * * * * * * * * * * * * * * * * * * * * * * * * * * * * * * //

dimensions      [0 0 0 0 0 0 0];

internalField   nonuniform List<scalar> 
575
(
6.25286e-08
4.21242e-08
2.57036e-08
2.22836e-08
1.99445e-08
1.92908e-08
1.99e-08
2.02368e-08
1.92876e-08
1.76988e-08
1.74004e-08
1.84088e-08
1.84862e-08
1.37723e-08
8.70404e-09
6.4258e-09
5.80156e-09
5.79653e-09
6.81618e-09
6.34275e-09
1.74071e-09
6.50761e-10
3.18566e-06
2.45834e-06
1.19544e-06
8.16401e-07
3.83152e-07
1.45157e-07
1.12016e-07
1.04433e-07
7.99721e-08
6.63411e-08
6.54883e-08
6.76322e-08
6.0541e-08
4.2919e-08
3.29592e-08
2.67126e-08
2.45638e-08
2.90699e-08
3.26418e-08
2.8754e-08
1.18603e-08
1.75886e-09
0.000490336
9.91142e-05
1.12266e-05
2.5485e-06
1.3248e-06
1.30436e-06
1.36784e-06
1.0763e-06
5.99224e-07
3.89357e-07
3.3522e-07
2.9793e-07
2.02903e-07
1.04604e-07
7.16462e-08
6.46087e-08
7.65915e-08
1.12864e-07
1.29897e-07
1.04709e-07
3.06982e-08
1.20573e-08
0.0268901
0.00529045
0.000613627
0.000113906
3.95918e-05
2.0581e-05
1.01857e-05
5.97743e-06
6.6571e-06
6.12788e-06
4.09144e-06
2.0304e-06
1.1376e-06
7.10047e-07
4.51903e-07
3.62673e-07
3.24762e-07
4.32903e-07
9.16413e-07
2.96299e-06
5.90698e-06
1.47687e-06
0.206876
0.0428898
0.00638286
0.00102263
0.000222418
0.00016829
0.000717757
0.00239514
0.00471969
0.00558254
0.00449513
0.00248406
0.00143618
0.000995657
0.000795447
0.000693717
0.000582773
0.000643641
0.00125493
0.00280286
0.00413817
0.00214878
0.541808
0.156847
0.0229431
0.00479733
0.00577135
0.0298037
0.0777866
0.152057
0.239028
0.286442
0.278861
0.21369
0.159215
0.126326
0.110105
0.103529
0.0975326
0.0997239
0.126923
0.179057
0.213897
0.182734
0.827098
0.414682
0.118994
0.0801304
0.249717
0.505016
0.70074
0.849667
0.941872
0.974965
0.979971
0.970905
0.948733
0.915866
0.873437
0.843523
0.830461
0.830637
0.848199
0.88841
0.924181
0.959669
0.957291
0.783561
0.647888
0.711998
0.881703
0.969363
0.992219
0.997635
0.999049
0.999261
0.999262
0.99926
0.99926
0.999258
0.999258
0.998766
0.997102
0.995715
0.995617
0.995595
0.990622
0.9595
0.991543
0.966203
0.957652
0.978779
0.99197
0.996675
0.998281
0.999036
0.999259
0.999261
0.99926
0.998822
0.997978
0.997111
0.996627
0.995354
0.990709
0.987029
0.985856
0.979812
0.976723
0.917081
0.999645
0.998781
0.998731
0.999254
0.999256
0.999256
0.999257
0.999257
0.999259
0.999029
0.994271
0.98155
0.971813
0.977414
0.981078
0.983503
0.982038
0.974066
0.952798
0.809399
0.745785
0.645244
0.999258
0.999204
0.999252
0.999254
0.999254
0.999256
0.999256
0.999237
0.997825
0.967853
0.873634
0.770034
0.71169
0.761803
0.833991
0.899148
0.937644
0.92619
0.778785
0.412397
0.363459
0.230148
0.90052
0.942547
0.97737
0.989476
0.993692
0.996821
0.997103
0.986511
0.920364
0.653736
0.420096
0.324019
0.289048
0.348869
0.545907
0.705572
0.613925
0.419712
0.231117
0.12255
0.0944735
0.06784
0.319959
0.586587
0.847168
0.944846
0.978507
0.985048
0.941507
0.747905
0.462146
0.172382
0.14325
0.207873
0.22377
0.231296
0.235318
0.212923
0.149989
0.0886615
0.0582578
0.0507918
0.0483951
0.0461531
0.151826
0.268928
0.685333
0.854253
0.890556
0.811705
0.433972
0.141436
0.0975941
0.102554
0.107957
0.100915
0.0803774
0.0608473
0.0632201
0.0580648
0.0412055
0.0399451
0.0381405
0.0287392
0.0137995
0.00676726
0.151416
0.157534
0.418027
0.548224
0.536242
0.3319
0.121197
0.0757372
0.0735078
0.0681287
0.0612695
0.042885
0.00993789
0.00138424
0.00144142
0.00155233
0.00214857
0.00543208
0.00770122
0.00541515
0.000846378
6.82931e-05
0.0553589
0.146484
0.207164
0.276005
0.187967
0.0961587
0.0706237
0.0487812
0.0398663
0.035744
0.0259541
0.0074408
0.000288352
3.47065e-06
2.80712e-06
2.17801e-06
3.90693e-06
6.06263e-05
0.000159124
0.000124316
1.11473e-05
1.65296e-07
0.00481031
0.0571047
0.10677
0.103211
0.0804605
0.0613908
0.0186778
0.00405482
0.00169083
0.00137714
0.0011734
0.000221747
4.00565e-06
4.25372e-08
2.66428e-08
2.65129e-08
3.22009e-08
5.81181e-08
2.31904e-07
2.52914e-07
2.69365e-08
1.1926e-08
1.65845e-08
0.000201865
0.00719741
0.0349534
0.0502137
0.0432114
0.0166968
0.00114016
2.29316e-05
8.20494e-06
1.13982e-05
5.70101e-06
1.24435e-06
1.17468e-07
4.82751e-08
2.65815e-08
2.61753e-08
2.40602e-08
2.21878e-08
1.64432e-08
1.10016e-08
1.11106e-08
1.10755e-08
1.12925e-08
1.96433e-06
0.000210981
0.0022918
0.00522365
0.00532805
0.000943589
1.40856e-05
4.62415e-08
2.28801e-08
7.96736e-08
1.05045e-07
1.09667e-07
5.86019e-08
2.39244e-08
2.31347e-08
2.28455e-08
2.24932e-08
2.37644e-08
2.49584e-08
2.51868e-08
1.74933e-08
8.43466e-09
8.44743e-09
3.53389e-09
9.8376e-07
1.889e-05
5.04912e-05
5.67279e-05
8.44419e-06
1.65121e-07
3.42294e-09
1.16423e-09
1.24946e-09
1.18487e-08
7.46787e-08
1.59739e-07
6.60779e-08
2.27952e-08
2.71464e-08
2.62403e-08
2.10307e-08
2.01132e-08
1.97543e-08
1.45452e-08
8.56091e-09
1.02128e-08
1.06885e-09
1.17022e-09
1.42065e-08
3.989e-08
4.3928e-08
1.39687e-08
3.09253e-09
1.62731e-09
1.16412e-09
1.18467e-09
1.26741e-09
2.10684e-08
1.9313e-07
3.40535e-07
2.22203e-07
4.10344e-08
5.43082e-08
6.62571e-08
3.40452e-08
1.59835e-08
9.08722e-09
8.7285e-09
1.30146e-08
1.0902e-09
1.07051e-09
1.07028e-09
1.0694e-09
1.07095e-09
1.07753e-09
1.20735e-09
1.19574e-09
1.17555e-09
1.37231e-09
1.63555e-09
2.24135e-09
5.39011e-08
3.4755e-07
5.04272e-07
2.70689e-07
9.57563e-08
1.97398e-07
1.9582e-07
8.4436e-08
3.23794e-08
3.45842e-08
4.64918e-08
1.39718e-09
1.43891e-09
2.22806e-09
2.35689e-09
1.91941e-09
1.15183e-09
1.14547e-09
1.18633e-09
1.31611e-09
1.66093e-09
1.99078e-09
2.33199e-09
3.65775e-09
7.12926e-08
3.96605e-07
6.98596e-07
1.01244e-06
1.01616e-06
1.0077e-06
8.10184e-07
4.72666e-07
3.36988e-07
4.64318e-07
2.5329e-09
3.40419e-09
5.42218e-09
1.13463e-08
6.79489e-09
2.13351e-09
1.14546e-09
1.26787e-09
1.52172e-09
1.87342e-09
2.21159e-09
2.50407e-09
2.86295e-09
4.33625e-09
5.65354e-08
2.18561e-07
5.36021e-07
9.81327e-07
1.06261e-06
1.06378e-06
6.71488e-07
2.79187e-07
2.47115e-07
3.76876e-09
4.8864e-09
5.78432e-09
1.68608e-08
1.66511e-08
6.92043e-09
1.35415e-09
1.29783e-09
1.68865e-09
2.00736e-09
2.30809e-09
2.69928e-09
3.17564e-09
3.08423e-09
4.25877e-09
2.99418e-08
7.24366e-08
2.20076e-07
3.20134e-07
2.73094e-07
1.61371e-07
8.07583e-08
4.90372e-08
3.83138e-09
4.49738e-09
5.21432e-09
2.23598e-08
2.04312e-08
9.88004e-09
1.32066e-09
1.19879e-09
1.7147e-09
2.09391e-09
2.39134e-09
2.95856e-09
3.22302e-09
3.0149e-09
2.75225e-09
5.85097e-09
)
;

boundaryField
{
    leftWall
    {
        type            zeroGradient;
    }
    rightWall
    {
        type            zeroGradient;
    }
    lowerWall
    {
        type            zeroGradient;
    }
    atmosphere
    {
        type            inletOutlet;
        inletValue      nonuniform 0();
        value           nonuniform 0();
    }
    defaultFaces
    {
        type            empty;
    }
    procBoundary0to1
    {
        type            processor;
        value           nonuniform List<scalar> 
26
(
4.67661e-10
1.58451e-09
7.21904e-09
1.30881e-06
0.00325139
0.297122
0.972768
0.874543
0.471166
0.194992
0.0888014
0.0654598
0.0528786
0.0149682
7.99384e-05
2.68319e-08
2.68319e-08
8.70656e-09
8.27931e-09
8.44034e-09
1.70363e-08
2.77644e-08
1.05533e-07
4.70047e-07
3.59213e-07
3.27973e-08
)
;
    }
    procBoundary0to2
    {
        type            processor;
        value           nonuniform List<scalar> 
24
(
3.90311e-09
1.09896e-08
1.20489e-08
7.88016e-09
4.21826e-09
2.47474e-09
1.6109e-09
3.81825e-09
4.43182e-09
8.40507e-09
2.74583e-08
2.17992e-08
7.98961e-09
8.72583e-10
8.30611e-10
1.43248e-09
1.87469e-09
2.32043e-09
2.8806e-09
3.01489e-09
2.69549e-09
2.105e-09
3.90311e-09
1.66924e-09
)
;
    }
}


// ************************************************************************* //
