/*--------------------------------*- C++ -*----------------------------------*\
| =========                 |                                                 |
| \\      /  F ield         | OpenFOAM: The Open Source CFD Toolbox           |
|  \\    /   O peration     | Version:  2.4.0                                 |
|   \\  /    A nd           | Web:      www.OpenFOAM.org                      |
|    \\/     M anipulation  |                                                 |
\*---------------------------------------------------------------------------*/
FoamFile
{
    version     2.0;
    format      ascii;
    class       volScalarField;
    location    "0.95";
    object      alpha.mercury;
}
// * * * * * * * * * * * * * * * * * * * * * * * * * * * * * * * * * * * * * //

dimensions      [0 0 0 0 0 0 0];

internalField   nonuniform List<scalar> 
575
(
1
1
1
1
1
1
1
1
1
1
1
1
1
1
1
1
1
1
1
0.999999
0.999997
0.999994
0.999997
0.999997
0.999999
0.999999
0.999999
1
1
1
1
1
1
1
1
1
1
1
1
1
1
1
0.999998
0.999993
0.99951
0.999901
0.999989
0.999997
0.999999
0.999999
0.999999
0.999999
0.999999
1
1
1
1
1
1
1
1
1
1
0.999999
0.999999
0.999995
0.97311
0.994709
0.999386
0.999886
0.99996
0.999979
0.99999
0.999994
0.999993
0.999994
0.999996
0.999998
0.999998
0.999999
0.999999
0.999999
0.999999
0.999999
0.999998
0.999995
0.999991
0.999992
0.793124
0.95711
0.993617
0.998977
0.999777
0.999832
0.999281
0.997603
0.995276
0.994409
0.995493
0.997506
0.998556
0.998997
0.999198
0.999302
0.999415
0.999354
0.998741
0.997191
0.995853
0.997837
0.458192
0.843153
0.977057
0.995203
0.994228
0.970195
0.92221
0.847936
0.760956
0.713507
0.720989
0.786048
0.840488
0.873373
0.889579
0.896158
0.902219
0.900039
0.872778
0.820558
0.785722
0.816984
0.172902
0.585318
0.881006
0.919869
0.750282
0.494981
0.299255
0.150326
0.0581169
0.0250019
0.019881
0.0286095
0.0504162
0.0831182
0.125333
0.154835
0.16733
0.166705
0.148999
0.108707
0.0717446
0.0325405
0.0427086
0.216439
0.352112
0.288002
0.118296
0.0306356
0.00777932
0.00236339
0.000949194
0.000731062
0.000648698
0.000284475
6.49992e-05
4.18778e-05
3.53951e-05
3.89683e-05
5.11633e-05
6.33648e-05
7.11659e-05
7.58022e-05
9.33346e-05
0.0012804
0.00845739
0.0337966
0.0423481
0.0212207
0.00802988
0.00332399
0.00171761
0.000961059
0.000727639
0.000634103
0.000187639
6.17934e-05
2.06771e-05
1.2339e-05
1.09176e-05
8.38384e-06
6.05922e-06
5.52236e-06
8.58694e-06
2.05068e-05
3.1376e-05
0.000248752
0.000350245
0.00121434
0.00126313
0.000735157
0.000730387
0.000725946
0.000709168
0.000643479
0.000431911
0.000147124
4.63405e-05
1.81826e-05
1.04812e-05
8.33011e-06
6.82319e-06
5.43089e-06
4.04053e-06
3.99774e-06
1.02463e-05
4.17078e-05
6.09579e-05
9.48304e-05
4.9444e-05
0.000213758
0.000335101
0.000354997
0.000323477
0.000288611
0.000195307
0.000102721
4.6593e-05
2.19389e-05
1.19468e-05
8.13618e-06
5.27316e-06
4.02806e-06
4.0237e-06
5.48419e-06
9.0416e-06
1.015e-05
3.7658e-05
7.29856e-05
9.30792e-05
9.48675e-05
4.74249e-07
5.78491e-06
1.71394e-05
2.72848e-05
2.58778e-05
2.28927e-05
1.54466e-05
8.64395e-06
4.0063e-06
4.3495e-06
6.57476e-06
9.02565e-06
7.135e-06
8.06604e-06
1.22162e-05
2.73276e-05
4.38078e-05
5.01032e-05
5.3282e-05
5.75722e-05
6.04656e-05
4.91772e-05
1.51442e-10
1.11752e-08
1.03475e-07
2.85585e-07
5.05439e-07
6.32512e-07
3.33296e-07
5.29203e-07
1.92166e-06
1.48947e-05
3.36583e-05
4.34194e-05
4.33713e-05
4.25421e-05
3.97967e-05
4.5236e-05
4.52693e-05
4.45738e-05
4.40455e-05
4.38636e-05
3.99601e-05
3.2338e-05
2.25052e-11
3.4191e-11
1.11218e-10
6.79331e-10
1.91987e-09
5.67271e-09
6.03229e-07
9.27206e-06
2.8061e-05
3.9587e-05
4.20722e-05
4.21146e-05
3.52571e-05
2.17927e-05
2.32478e-05
3.76681e-05
4.47371e-05
4.59648e-05
4.59496e-05
3.59149e-05
1.60777e-05
6.89218e-06
1.78313e-11
2.9963e-11
3.68219e-11
1.82088e-10
1.38351e-08
7.36004e-07
6.46836e-06
1.68475e-05
2.39535e-05
2.72895e-05
2.83816e-05
2.49588e-05
7.97542e-06
1.33446e-06
1.48146e-06
4.07949e-06
1.17635e-05
2.19478e-05
2.4808e-05
1.33405e-05
1.83936e-06
1.12986e-07
1.45161e-11
5.74171e-11
9.40659e-10
3.06841e-08
6.1379e-07
4.33341e-06
9.90035e-06
1.25711e-05
1.27459e-05
1.26562e-05
1.20094e-05
6.70161e-06
7.2745e-07
1.75294e-08
1.15358e-08
2.79976e-08
1.24729e-07
9.62376e-07
1.82006e-06
8.42861e-07
6.84296e-08
7.60769e-10
2.37397e-11
1.58976e-09
8.73869e-08
3.99076e-07
2.00206e-06
4.02359e-06
4.74623e-06
2.03519e-06
1.06313e-06
9.55087e-07
9.5436e-07
3.49953e-07
3.01401e-08
8.05796e-10
5.69169e-10
6.33164e-10
1.04265e-09
3.93512e-09
1.11053e-08
7.17951e-09
1.21605e-09
7.33103e-10
7.19488e-10
2.46804e-11
5.59691e-09
1.63768e-07
7.67614e-07
1.54266e-06
1.76864e-06
4.98472e-07
3.30254e-08
1.14365e-08
1.63656e-08
1.01002e-08
2.05387e-09
6.87611e-10
6.63251e-10
5.68251e-10
7.50112e-10
9.86826e-10
1.09871e-09
1.10403e-09
1.10734e-09
1.13077e-09
1.19802e-09
9.86991e-10
1.91656e-11
4.39595e-09
8.51926e-08
2.6704e-07
3.21118e-07
1.16672e-07
5.39179e-09
2.12518e-11
7.45835e-12
1.4515e-11
4.52637e-11
7.76819e-11
1.73333e-10
4.80972e-10
5.64736e-10
6.53953e-10
9.33968e-10
1.29401e-09
1.4056e-09
1.4671e-09
1.47391e-09
1.37495e-09
7.61954e-10
1.28341e-11
1.53249e-09
9.50382e-09
1.18965e-08
6.92991e-09
1.08359e-09
2.62807e-11
3.88702e-12
5.67662e-12
1.08867e-11
6.08173e-11
1.26984e-10
1.71805e-10
3.35518e-10
5.33376e-10
5.60122e-10
5.62593e-10
7.68692e-10
1.10134e-09
1.21292e-09
1.17533e-09
7.83938e-10
3.27021e-10
6.44564e-12
1.32735e-10
3.3439e-10
1.39729e-10
3.0107e-11
4.6148e-12
2.85127e-12
2.57264e-12
2.69379e-12
2.47865e-12
5.07947e-12
4.04346e-11
1.37194e-10
2.29728e-10
4.00403e-10
5.05666e-10
4.69495e-10
3.25002e-10
6.08775e-10
8.09255e-10
7.18481e-10
3.53355e-10
1.54127e-10
5.36616e-12
5.70181e-12
7.04324e-12
3.17791e-12
2.69763e-12
2.61087e-12
2.32402e-12
2.18079e-12
2.12189e-12
1.7013e-12
2.07229e-12
4.47437e-12
4.37735e-11
1.46236e-10
2.72956e-10
3.94721e-10
4.18649e-10
2.74427e-10
2.12279e-10
2.97522e-10
4.38284e-10
3.05032e-10
1.67207e-10
5.03488e-12
3.74297e-12
3.18855e-12
1.91007e-12
1.61559e-12
1.48079e-12
1.60629e-12
1.63792e-12
1.6294e-12
1.41668e-12
1.296e-12
1.4363e-12
3.91342e-12
3.56645e-11
1.54691e-10
2.4912e-10
3.05712e-10
2.44119e-10
1.88688e-10
1.60809e-10
1.76791e-10
1.6764e-10
1.45238e-10
4.95346e-12
3.29803e-12
2.16433e-12
1.28406e-12
8.54625e-13
7.59991e-13
9.11271e-13
1.05485e-12
1.14856e-12
1.10152e-12
9.92987e-13
8.12222e-13
1.22368e-12
4.18592e-12
2.85165e-11
8.42323e-11
1.62873e-10
1.77313e-10
1.64255e-10
1.52387e-10
1.45708e-10
1.36496e-10
1.19607e-10
4.93334e-12
3.38065e-12
2.15364e-12
1.21048e-12
6.32717e-13
4.1557e-13
4.35868e-13
5.86522e-13
7.38565e-13
7.89727e-13
7.40515e-13
5.8094e-13
5.40861e-13
1.3634e-12
4.00647e-12
1.62149e-11
4.11115e-11
7.35679e-11
8.84798e-11
9.28715e-11
8.86876e-11
7.79529e-11
5.98309e-11
4.83862e-12
3.5119e-12
2.29706e-12
1.28733e-12
6.1707e-13
2.93745e-13
2.07575e-13
2.86551e-13
4.33872e-13
5.21842e-13
5.11649e-13
4.05086e-13
3.10847e-13
4.49748e-13
1.23564e-12
4.12042e-12
)
;

boundaryField
{
    leftWall
    {
        type            zeroGradient;
    }
    rightWall
    {
        type            zeroGradient;
    }
    lowerWall
    {
        type            zeroGradient;
    }
    atmosphere
    {
        type            inletOutlet;
        inletValue      nonuniform 0();
        value           nonuniform 0();
    }
    defaultFaces
    {
        type            empty;
    }
    procBoundary0to1
    {
        type            processor;
        value           nonuniform List<scalar> 
26
(
0.999992
0.999989
0.999988
0.999987
0.996737
0.702628
0.0160024
0.00866718
0.00974225
8.87349e-05
8.94688e-05
4.45385e-05
3.08087e-05
7.87368e-06
5.03977e-08
4.08856e-10
4.08856e-10
3.79599e-10
5.02717e-10
4.15708e-10
1.90215e-10
9.85019e-11
1.27099e-10
1.30442e-10
1.04065e-10
4.44466e-11
)
;
    }
    procBoundary0to2
    {
        type            processor;
        value           nonuniform List<scalar> 
24
(
5.56679e-12
1.08597e-11
1.46225e-11
1.63948e-11
1.62993e-11
1.36622e-11
1.15687e-11
4.51493e-12
3.38245e-12
2.2094e-12
1.21649e-12
5.6133e-13
2.29394e-13
1.10965e-13
1.3005e-13
2.30396e-13
3.12292e-13
3.19473e-13
2.56435e-13
1.85074e-13
1.78506e-13
3.35201e-13
5.56679e-12
9.80835e-13
)
;
    }
}


// ************************************************************************* //
