/*--------------------------------*- C++ -*----------------------------------*\
| =========                 |                                                 |
| \\      /  F ield         | OpenFOAM: The Open Source CFD Toolbox           |
|  \\    /   O peration     | Version:  2.4.0                                 |
|   \\  /    A nd           | Web:      www.OpenFOAM.org                      |
|    \\/     M anipulation  |                                                 |
\*---------------------------------------------------------------------------*/
FoamFile
{
    version     2.0;
    format      ascii;
    class       volScalarField;
    location    "0.95";
    object      p;
}
// * * * * * * * * * * * * * * * * * * * * * * * * * * * * * * * * * * * * * //

dimensions      [1 -1 -2 0 0 0 0];

internalField   nonuniform List<scalar> 
575
(
7687.55
7428.56
7024.4
6639.06
6322.37
6044.83
5818.66
5636.54
5497.07
5404.18
5348.53
5324.26
5318.34
5325.22
5339.89
5357.22
5374.41
5394.4
5409.22
5419.69
5425.36
5431.14
6675.96
6488.33
6170.12
5814.62
5500.03
5234.51
5012.44
4830.05
4690.87
4599.91
4539.46
4506.88
4496.83
4501.06
4518.86
4545.83
4575.35
4598.12
4611.08
4619.65
4626.06
4621.77
6097.55
5795.91
5390.43
5011.02
4690.84
4415.74
4187.55
4005.64
3869.2
3787.29
3749.48
3739.36
3745
3759.54
3775.88
3787.2
3794.04
3799.98
3807.71
3813.97
3824.46
3854.8
5063.23
4853.92
4507.77
4157.49
3848.7
3578.7
3354.56
3172.65
3034.13
2941.9
2885.64
2847.04
2829.49
2838.55
2867.6
2903.71
2937.85
2972.49
2999.4
3003.34
2998.12
2996.28
3779.27
3812.12
3553.89
3257.97
2994.02
2731.26
2522.9
2354.12
2229.29
2153.79
2128.03
2160.6
2201.56
2230
2248.3
2261.16
2271.57
2277.41
2269.86
2252.92
2245.37
2318.67
2477.48
2620.56
2543.54
2372.23
2089.99
1790.3
1546.9
1367.79
1280.96
1260.67
1229.5
1171.44
1129.62
1142.48
1185.68
1231.86
1264.55
1292.23
1306.5
1290.32
1284.24
1347.43
1603.75
1437.35
1380.62
1226.62
1108.16
991.996
931.647
905.505
893.547
873.082
846.514
819.092
799.27
786.38
774.471
771.326
787.415
813.732
844.411
875.737
906.131
967.468
1208.81
821.634
621.555
606.109
706.827
799.167
868.927
905.69
952.353
964.37
956.797
931.409
897.596
872.243
859.885
874.566
897.507
927.631
963.475
991.944
1015.73
1085.19
869.027
599.94
563.215
654.612
748.639
787.67
784.213
767.578
739.191
709.085
671.753
628.775
590.793
576.076
572.708
576.522
585.116
600.916
632.01
660.737
689.493
751.087
787.932
686.924
619.384
607.408
611.679
629.471
641.154
640.847
629.168
619.088
599.654
580.516
566.69
546.555
545.531
559.045
586.398
628.418
667.048
680.099
719.284
793.546
709.004
650.779
595.46
577.562
580.059
585.25
578.746
556.9
524.241
483.899
429.567
373.677
334.759
326.68
348.1
391.539
433.618
474.967
501.568
527.662
586.873
669.201
572.858
548.359
530.993
526.038
525.777
519.975
504.08
468.304
420.29
342.617
257.375
186.712
144.079
148.005
166.428
178.533
209.335
320.662
371.756
376.346
448.233
520.307
440.882
437.548
450.95
455.952
455.993
449.915
433.128
371.964
367.515
313.9
212.437
120.636
62.8986
42.7443
89.3352
153.387
133.938
182.563
235.529
264.633
310.214
336.961
361.115
351.618
368.011
372.068
371.607
371.139
373.455
331.641
273.586
223.645
164.117
95.9002
31.7756
10.0552
12.1577
32.125
62.3588
116.664
141.474
110.791
61.97
40.3147
273.458
283.742
296.286
302.85
295.007
286.337
272.488
247.53
203.265
152.659
92.4732
32.4953
9.59546
3.84783
4.05064
5.01272
5.00614
8.53099
13.7695
11.9218
6.81065
2.44098
198.046
221.269
244.42
239.442
229.433
215.753
190.68
150.062
121.372
94.1267
41.6588
14.9559
3.90428
4.30164
3.8778
3.2738
3.32068
3.27794
2.99886
3.03077
3.24063
3.56316
70.5818
76.8208
205.915
177.885
157.075
119.706
54.9199
19.1631
11.567
12.5195
8.67685
3.10875
3.31472
3.96149
3.82104
3.53036
3.44199
3.27217
2.99891
3.0091
3.06573
2.9192
2.78341
12.3214
12.9204
25.6262
32.6374
33.9612
16.9383
6.96417
3.2365
3.03392
2.99954
3.12094
3.3168
3.52466
3.6278
3.37756
3.12171
3.06846
3.04273
2.96142
2.91481
2.81785
2.6598
2.67194
6.63237
6.07775
3.32681
2.51873
4.30258
3.39053
3.12495
3.61804
3.92266
4.08528
4.07385
3.87574
3.77143
3.49156
3.04267
2.81384
2.82336
2.84603
2.77953
2.64955
2.47385
2.25171
2.09348
5.33041
4.52589
2.97964
2.54317
2.75911
2.87956
2.85357
2.84616
3.13672
3.26494
3.3957
3.5918
3.71897
3.44644
2.97627
2.56215
2.5349
2.66182
2.63185
2.46145
2.2088
1.88898
1.61898
4.50014
4.0476
3.21316
2.89629
2.99039
3.03703
3.05519
3.19568
3.39791
3.51629
3.60388
3.62951
3.62465
3.38889
2.9834
2.54865
2.4368
2.48803
2.48419
2.30665
2.00662
1.6224
1.27194
3.94697
3.76036
3.4024
3.15297
3.08415
3.06691
3.06275
3.09002
3.1724
3.2824
3.37027
3.4379
3.4538
3.34369
3.05436
2.7019
2.50252
2.41611
2.36528
2.17737
1.88322
1.58828
1.31939
3.64826
3.54928
3.39249
3.21035
3.12119
3.07318
3.05517
3.06905
3.12134
3.19262
3.23758
3.27404
3.27994
3.2216
3.07982
2.80658
2.61228
2.45063
2.31569
2.15696
1.94839
1.74934
1.6451
3.43321
3.35027
3.27108
3.16097
3.0853
3.03599
3.01665
3.01962
3.0436
3.07807
3.10114
3.11179
3.10993
3.06752
2.97353
2.82403
2.64555
2.49414
2.36417
2.24791
2.11752
1.99865
1.952
3.24901
3.16954
3.1277
3.0614
3.01199
2.97367
2.95286
2.94537
2.95168
2.96333
2.97077
2.96655
2.95774
2.92127
2.85244
2.75657
2.63643
2.52164
2.43067
2.35295
2.26989
2.2034
2.17987
3.11781
3.04379
3.00697
2.96156
2.92642
2.89562
2.87336
2.85932
2.85467
2.85372
2.85033
2.84118
2.82519
2.79225
2.74103
2.676
)
;

boundaryField
{
    leftWall
    {
        type            fixedFluxPressure;
        gradient        uniform 0;
        value           nonuniform List<scalar> 
26
(
7687.55
6675.96
6097.55
5063.23
3779.27
2477.48
1603.75
1208.81
869.027
787.932
709.004
572.858
440.882
361.115
273.458
198.046
70.5818
12.3214
6.63237
5.33041
4.50014
3.94697
3.64826
3.43321
3.24901
3.11781
)
;
    }
    rightWall
    {
        type            fixedFluxPressure;
        gradient        nonuniform 0();
        value           nonuniform 0();
    }
    lowerWall
    {
        type            fixedFluxPressure;
        gradient        nonuniform List<scalar> 
22
(
132719
132719
132719
132719
132719
132719
132719
132719
132719
132719
132719
132719
132719
132719
132719
132719
132719
132719
132719
132719
132719
132719
)
;
        value           nonuniform List<scalar> 
22
(
8085.7
7826.71
7422.55
7037.21
6720.52
6442.98
6216.8
6034.69
5895.22
5802.33
5746.68
5722.41
5716.49
5723.37
5738.04
5755.37
5772.56
5792.55
5807.37
5817.84
5823.5
5829.29
)
;
    }
    atmosphere
    {
        type            totalPressure;
        U               U.air;
        phi             phi.air;
        rho             rho;
        psi             none;
        gamma           1;
        p0              nonuniform 0();
        value           nonuniform 0();
    }
    defaultFaces
    {
        type            empty;
    }
    procBoundary0to1
    {
        type            processor;
        value           nonuniform List<scalar> 
26
(
5438.23
4630.91
3852.3
3044.39
2244.38
1547.87
928.403
1099.42
734.35
792.784
689.752
520.677
307.989
27.5276
2.05661
3.81531
3.81531
2.81122
2.59973
2.08488
1.607
1.27256
1.34245
1.6894
1.98927
2.20337
)
;
    }
    procBoundary0to2
    {
        type            processor;
        value           nonuniform List<scalar> 
24
(
2.60119
2.52186
2.46199
2.40545
2.34576
2.31422
2.31379
3.01997
2.96032
2.91435
2.87163
2.83909
2.81012
2.78612
2.76895
2.75667
2.74797
2.73866
2.7274
2.70703
2.67791
2.63922
2.60119
2.59378
)
;
    }
}


// ************************************************************************* //
