/*--------------------------------*- C++ -*----------------------------------*\
| =========                 |                                                 |
| \\      /  F ield         | OpenFOAM: The Open Source CFD Toolbox           |
|  \\    /   O peration     | Version:  2.4.0                                 |
|   \\  /    A nd           | Web:      www.OpenFOAM.org                      |
|    \\/     M anipulation  |                                                 |
\*---------------------------------------------------------------------------*/
FoamFile
{
    version     2.0;
    format      ascii;
    class       surfaceScalarField;
    location    "0.95";
    object      phi.mercury;
}
// * * * * * * * * * * * * * * * * * * * * * * * * * * * * * * * * * * * * * //

dimensions      [0 3 -1 0 0 0 0];

internalField   nonuniform List<scalar> 
1101
(
-1.07623e-05
1.07623e-05
-1.83137e-05
7.55142e-06
-2.29175e-05
4.60382e-06
-2.46582e-05
1.74067e-06
-2.43689e-05
-2.89302e-07
-2.31857e-05
-1.18326e-06
-2.12933e-05
-1.89239e-06
-1.92928e-05
-2.00046e-06
-1.78095e-05
-1.48335e-06
-1.691e-05
-8.9949e-07
-1.60093e-05
-9.00651e-07
-1.4638e-05
-1.37127e-06
-1.31681e-05
-1.46998e-06
-1.20564e-05
-1.11168e-06
-1.13524e-05
-7.0396e-07
-1.0786e-05
-5.66372e-07
-9.95359e-06
-8.32454e-07
-8.4559e-06
-1.49769e-06
-6.16973e-06
-2.28617e-06
-3.76901e-06
-2.40073e-06
-2.58558e-06
-1.18343e-06
-4.43214e-07
-1.06525e-05
2.14135e-05
-1.80756e-05
1.49744e-05
-2.25839e-05
9.11213e-06
-2.44855e-05
3.64231e-06
-2.46279e-05
-1.46895e-07
-2.36044e-05
-2.20679e-06
-2.15752e-05
-3.92154e-06
-1.94178e-05
-4.15788e-06
-1.78522e-05
-3.04895e-06
-1.66657e-05
-2.08596e-06
-1.5436e-05
-2.13042e-06
-1.42138e-05
-2.5934e-06
-1.30402e-05
-2.64366e-06
-1.21426e-05
-2.00927e-06
-1.14892e-05
-1.3573e-06
-1.06632e-05
-1.39242e-06
-9.55052e-06
-1.94513e-06
-7.9663e-06
-3.08191e-06
-5.7169e-06
-4.53556e-06
-3.37382e-06
-4.74381e-06
-1.25008e-06
-3.30717e-06
-1.4678e-06
-1.28604e-05
3.3861e-05
-2.00493e-05
2.21069e-05
-2.34367e-05
1.24949e-05
-2.47122e-05
4.91742e-06
-2.4757e-05
-1.0213e-07
-2.37187e-05
-3.24514e-06
-2.16472e-05
-5.993e-06
-1.93649e-05
-6.44022e-06
-1.75693e-05
-4.84456e-06
-1.62346e-05
-3.42066e-06
-1.51156e-05
-3.24945e-06
-1.42072e-05
-3.50171e-06
-1.33764e-05
-3.47455e-06
-1.24066e-05
-2.97906e-06
-1.13942e-05
-2.36964e-06
-1.02232e-05
-2.56345e-06
-8.92878e-06
-3.23954e-06
-7.5538e-06
-4.4569e-06
-5.86788e-06
-6.22148e-06
-3.95566e-06
-6.65603e-06
-1.60263e-06
-5.6602e-06
-3.13433e-06
-1.71987e-05
4.62187e-05
-2.58298e-05
2.99412e-05
-2.87742e-05
1.53464e-05
-2.89544e-05
5.08669e-06
-2.72846e-05
-1.77315e-06
-2.45337e-05
-5.99682e-06
-2.22857e-05
-8.24868e-06
-2.01587e-05
-8.59854e-06
-1.79784e-05
-7.08578e-06
-1.62472e-05
-5.22181e-06
-1.51132e-05
-4.43846e-06
-1.44275e-05
-4.21638e-06
-1.37668e-05
-4.15122e-06
-1.28126e-05
-3.94375e-06
-1.14772e-05
-3.71239e-06
-9.90101e-06
-4.14575e-06
-8.57146e-06
-4.57386e-06
-7.44053e-06
-5.59359e-06
-6.26509e-06
-7.41186e-06
-4.59946e-06
-8.35675e-06
-1.84101e-06
-8.47106e-06
-4.8485e-06
-2.46072e-05
5.29695e-05
-3.26834e-05
3.47843e-05
-3.42066e-05
1.64985e-05
-3.32619e-05
4.06722e-06
-3.07966e-05
-4.31359e-06
-2.79776e-05
-9.24635e-06
-2.56071e-05
-1.19713e-05
-2.33696e-05
-1.38104e-05
-2.1029e-05
-1.42964e-05
-1.8726e-05
-1.33972e-05
-1.7196e-05
-1.16736e-05
-1.60541e-05
-9.75538e-06
-1.49832e-05
-8.53241e-06
-1.35003e-05
-8.01351e-06
-1.14657e-05
-7.871e-06
-9.64477e-06
-7.8776e-06
-8.34574e-06
-7.60147e-06
-7.2648e-06
-8.44766e-06
-6.05183e-06
-1.10447e-05
-4.40757e-06
-1.35369e-05
-2.95193e-06
-1.42499e-05
-1.05688e-05
-3.65994e-05
5.41341e-05
-4.37413e-05
3.19311e-05
-4.31673e-05
1.35998e-05
-3.94077e-05
-1.32731e-06
-3.48192e-05
-1.41966e-05
-3.05822e-05
-2.52761e-05
-2.73728e-05
-3.30289e-05
-2.4907e-05
-4.11257e-05
-2.24072e-05
-5.1138e-05
-1.90542e-05
-5.89776e-05
-1.6359e-05
-5.71256e-05
-1.56722e-05
-4.82649e-05
-1.60351e-05
-4.04667e-05
-1.64277e-05
-3.67724e-05
-1.56882e-05
-3.4094e-05
-1.36683e-05
-3.25183e-05
-1.09225e-05
-3.19082e-05
-8.17855e-06
-3.27161e-05
-5.42589e-06
-3.6057e-05
-2.77947e-06
-4.08937e-05
-1.8568e-06
-4.55375e-05
-5.16766e-05
-3.90357e-05
4.69825e-05
-4.51312e-05
2.11358e-05
-4.63509e-05
-1.06881e-06
-4.34421e-05
-2.22766e-05
-3.72098e-05
-4.67605e-05
-3.23011e-05
-6.63788e-05
-3.08227e-05
-7.87332e-05
-3.07041e-05
-9.42979e-05
-2.75406e-05
-0.000107195
-1.88352e-05
-0.000113319
-9.429e-06
-0.000102776
-5.73538e-06
-7.91734e-05
-6.89075e-06
-4.62124e-05
-1.01315e-05
-3.73467e-05
-1.32585e-05
-3.51704e-05
-1.43803e-05
-3.73306e-05
-1.27181e-05
-4.1899e-05
-9.0436e-06
-4.70196e-05
-6.98668e-06
-5.07402e-05
-1.02267e-05
-5.29401e-05
-1.84551e-05
-6.80004e-05
-0.000135257
-3.39937e-05
3.7922e-05
-3.83441e-05
1.58856e-05
-3.81817e-05
-1.0856e-05
-3.33623e-05
-4.18488e-05
-2.94576e-05
-7.10589e-05
-2.68949e-05
-8.92985e-05
-1.9365e-05
-0.000100498
-9.13304e-06
-0.000116814
-3.6652e-06
-0.000123368
-6.31404e-07
-0.000118874
-8.82636e-07
-9.39785e-05
-4.53787e-07
-6.28748e-05
4.44108e-06
-2.93199e-05
6.13887e-06
-1.88597e-05
3.57943e-06
-1.33158e-05
-3.24115e-07
-1.47866e-05
-4.10217e-06
-2.07795e-05
-8.6159e-06
-2.60462e-05
-1.37565e-05
-2.86146e-05
-1.92784e-05
-2.86037e-05
-1.6962e-05
-4.20632e-05
-0.000153682
-3.5579e-05
3.11784e-05
-2.95087e-05
9.08971e-06
-1.58726e-05
-1.5691e-05
1.87415e-06
-4.06829e-05
1.04739e-05
-5.96834e-05
1.49292e-05
-7.40254e-05
1.96374e-05
-8.57407e-05
2.50809e-05
-9.60012e-05
3.01794e-05
-9.86865e-05
3.47189e-05
-8.44452e-05
3.30686e-05
-5.79241e-05
2.66942e-05
-3.06743e-05
2.35582e-05
-1.15245e-05
1.5494e-05
1.05172e-06
7.82897e-06
4.10076e-06
-7.30179e-07
3.68354e-06
-9.62963e-06
1.45085e-06
-1.53272e-05
-2.86839e-06
-8.78719e-06
-1.38182e-05
-6.32944e-06
-1.50603e-05
-1.1723e-05
-4.09351e-06
-4.66065e-05
-9.51686e-06
3.99051e-05
-3.16146e-06
1.22466e-05
8.37588e-06
-1.06522e-05
1.91854e-05
-3.08503e-05
2.45588e-05
-4.50834e-05
2.79527e-05
-5.78052e-05
3.12328e-05
-6.49415e-05
3.45152e-05
-6.67418e-05
3.59443e-05
-6.39205e-05
3.91724e-05
-5.34099e-05
4.59772e-05
-4.26392e-05
5.40012e-05
-3.06175e-05
5.80301e-05
-1.24855e-05
5.66421e-05
1.91577e-06
5.13034e-05
9.08423e-06
3.8078e-05
1.6504e-05
1.95753e-05
1.56875e-05
3.97011e-06
7.62987e-06
-3.88464e-06
-1.54819e-05
-1.39859e-05
-1.34191e-05
-4.17853e-05
1.01673e-05
4.55271e-06
1.1947e-05
2.67246e-05
2.23071e-05
1.96405e-05
3.10275e-05
8.10988e-06
3.75796e-05
-6.12574e-06
4.00512e-05
-1.68504e-05
4.09406e-05
-2.79657e-05
4.25115e-05
-3.37039e-05
4.29892e-05
-3.6856e-05
4.51268e-05
-3.97753e-05
5.20637e-05
-4.62127e-05
6.04398e-05
-4.54052e-05
6.30143e-05
-3.26856e-05
6.02539e-05
-7.75922e-06
4.76782e-05
1.57094e-05
3.42195e-05
2.12053e-05
2.55958e-05
1.53519e-05
1.77617e-05
1.44462e-05
3.98094e-06
1.4954e-05
-3.89092e-05
1.62369e-05
-9.98119e-05
3.05978e-05
-0.000151571
4.25845e-05
1.79864e-05
2.24056e-05
2.59109e-05
3.29375e-05
2.44048e-05
3.9841e-05
1.54023e-05
4.14772e-05
8.21561e-06
3.9339e-05
1.37277e-06
3.62169e-05
-6.83286e-06
3.4181e-05
-1.55296e-05
3.32045e-05
-2.51164e-05
3.66237e-05
-4.28337e-05
3.05556e-05
-4.16749e-05
2.25859e-05
-3.40023e-05
2.40235e-05
-2.52613e-05
2.24002e-05
-4.0908e-06
1.46208e-05
1.51047e-05
3.36919e-06
2.85637e-05
-1.35976e-05
3.45104e-05
-4.55284e-05
4.985e-05
-0.000117155
6.39802e-05
-0.000198068
8.1422e-05
-0.000232551
7.97193e-05
-0.000244618
5.86934e-05
8.354e-06
1.43842e-05
7.49756e-06
1.71232e-05
3.20227e-05
1.82534e-05
2.99805e-05
1.70597e-05
2.07929e-05
1.29659e-05
1.00348e-05
8.19615e-06
-2.65112e-06
4.57428e-06
-1.94749e-05
-1.45534e-05
-1.02595e-05
-6.03163e-05
-6.43295e-06
-0.000103
-2.18704e-05
-0.000133388
-2.97386e-05
-0.000138716
-2.69221e-05
-0.000129959
-1.92594e-05
-0.000119612
-1.19284e-05
-0.000140798
1.54515e-05
-0.000185044
4.37009e-05
-0.000218519
7.3443e-05
-0.000243579
9.52441e-05
-0.000258165
9.67702e-05
-0.000269184
9.02817e-05
-0.000276691
5.79752e-05
-2.7442e-05
-2.37256e-06
9.1838e-06
-9.42712e-06
3.82474e-05
-1.43979e-05
3.38138e-05
-1.60568e-05
2.20326e-05
-1.76542e-05
1.22881e-05
-3.22252e-05
1.18573e-05
-6.97755e-05
2.94727e-05
-0.000117269
1.66746e-05
-0.000156127
4.34709e-06
-0.000177525
-1.36858e-05
-0.000195251
-1.99923e-05
-0.000217513
-1.66366e-05
-0.000236192
-2.31973e-05
-0.000241896
-2.77928e-05
-0.000248347
-3.41703e-06
-0.000254939
5.57134e-06
-0.000252562
1.37274e-05
-0.00024466
4.97148e-05
-0.000245598
6.74203e-05
-0.00024039
6.48417e-05
-0.000246451
3.8677e-05
-5.20371e-05
-1.40974e-05
2.02138e-05
-1.99325e-05
4.36377e-05
-2.72204e-05
3.94796e-05
-3.64543e-05
2.95167e-05
-6.04281e-05
3.57759e-05
-9.50915e-05
6.23489e-05
-0.000141842
5.73246e-05
-0.000167596
2.5522e-05
-0.000172067
2.64998e-06
-0.000178682
-5.89722e-06
-0.000190171
-9.19112e-06
-0.000219916
-8.36593e-06
-0.00025532
1.59907e-06
-0.000310724
2.78372e-05
-0.000317441
1.96263e-05
-0.000280102
-2.42835e-06
-0.000258767
-1.39038e-05
-0.000236932
1.49318e-05
-0.000222132
3.67626e-05
-0.00020739
4.30095e-05
-0.000176859
4.07185e-05
-1.2524e-05
-1.26576e-05
2.57903e-05
-2.58763e-05
4.8181e-05
-4.54093e-05
5.62428e-05
-8.48823e-05
6.72966e-05
-0.000125708
8.6864e-05
-0.00017412
9.92408e-05
-0.000197959
6.57284e-05
-0.000188272
1.05867e-05
-0.000176184
-8.85779e-06
-0.000167192
-1.48135e-05
-0.000165238
-2.18361e-05
-0.000184503
-2.38744e-05
-0.000148808
2.40387e-05
-0.000242412
0.00013399
-0.000266029
0.000135917
-0.000266435
3.25777e-05
-0.00020661
1.25743e-05
-0.000219679
1.89073e-05
-0.00021103
3.593e-05
-0.000157699
4.83355e-05
-0.000174489
7.97794e-05
0.000109382
-2.32635e-05
1.83537e-06
-7.05084e-05
4.93096e-05
-0.000128049
8.76012e-05
-0.000162144
0.000102679
-0.000185446
0.000102905
-0.000199202
8.46314e-05
-0.000200342
1.95085e-05
-0.000190868
-2.62829e-05
-0.000182453
-5.09033e-05
-0.000176165
-5.00342e-05
-0.000171399
-3.97631e-05
-0.000185692
-5.08166e-05
-0.000193253
8.09588e-05
-0.000254595
0.000195916
-0.000262569
0.000167631
-0.000270072
6.92894e-05
-0.000276675
4.89831e-05
-0.000261528
5.90658e-05
-0.000260045
9.55931e-05
-0.000255289
0.000126683
-0.000253701
0.000145982
-0.000242013
9.91699e-05
2.02712e-05
-9.73158e-05
2.36351e-05
-0.0001771
0.000100602
-0.000207384
8.57144e-05
-0.000209609
7.60249e-05
-0.000215874
6.44808e-05
-0.0002003
4.09111e-05
-0.000181478
-1.24227e-05
-0.000194447
-6.00838e-05
-0.000186304
-5.12794e-05
-0.000191891
-5.94787e-05
-0.00022916
-3.90491e-05
-0.000240794
1.59741e-05
-0.000225466
0.000154897
-0.00024577
0.000216841
-0.000261239
0.000183064
-0.000275348
8.3409e-05
-0.000283727
5.73909e-05
-0.000282203
5.85608e-05
-0.000275031
9.97793e-05
-0.000263951
0.000127397
-0.000247957
0.000131002
-0.000252343
0.00010374
3.119e-05
-0.000211725
0.000164105
-0.000283611
0.000165257
-0.000245161
8.68889e-05
-0.000225495
5.18788e-05
-0.000210684
4.35399e-05
-0.000201098
4.01925e-05
-0.000239505
4.65067e-05
-0.000225458
-6.28345e-06
-0.000199618
-2.14281e-05
-0.000194801
-2.15365e-05
-0.000181367
-9.48195e-06
-0.000168565
2.40781e-05
-0.000167384
0.000148956
-0.000195037
0.00023426
-0.000227796
0.000216002
-0.00025738
0.000113118
-0.000264355
6.45412e-05
-0.000263942
5.82377e-05
-0.000254414
9.02719e-05
-0.00024322
0.000116227
-0.000231891
0.000119743
-0.000233544
0.000105644
4.52853e-05
-8.49634e-05
0.000289306
-0.000168198
0.000272934
-0.000202396
0.000160854
-0.000195497
8.66161e-05
-0.000172515
6.60218e-05
-0.000127841
7.80659e-05
-9.92696e-05
7.06628e-05
-0.000127261
2.19367e-05
-0.000150043
1.42611e-06
-0.000160693
-1.03921e-05
-0.000168857
-5.44294e-07
-0.000162254
1.60552e-05
-0.000111742
9.00431e-05
-8.38077e-05
0.000205248
-0.000118774
0.000253352
-0.000178673
0.000173244
-0.000206548
9.2358e-05
-0.000212037
6.33021e-05
-0.000204138
8.23123e-05
-0.000194563
0.00010675
-0.000188227
0.000113726
-0.000184046
0.000101984
4.31388e-05
1.3588e-05
0.000280016
5.24853e-05
0.000278468
5.17114e-05
0.000234373
3.32678e-05
0.000153995
3.01798e-05
0.000102138
2.89712e-05
9.13513e-05
1.62639e-05
8.35331e-05
-1.69768e-05
5.51759e-05
-4.56563e-05
3.01025e-05
-7.22734e-05
1.62228e-05
-9.47133e-05
2.177e-05
-0.000114897
3.55746e-05
-8.96228e-05
6.85837e-05
-1.96768e-05
0.00014731
1.35901e-05
0.000223234
-2.02984e-05
0.000206453
-7.26919e-05
0.000145034
-0.000108273
9.89012e-05
-0.000118108
9.20429e-05
-0.00011352
0.000101894
-0.000102913
0.000103046
-7.94573e-05
7.85315e-05
1.70359e-05
6.18407e-06
0.000273835
4.08152e-05
0.000243969
6.82979e-05
0.00020921
7.34039e-05
0.000150661
7.26224e-05
0.000103505
7.30567e-05
9.09593e-05
6.87574e-05
8.78336e-05
4.67953e-05
7.71394e-05
1.16545e-05
6.52454e-05
-2.47949e-05
5.26739e-05
-4.95001e-05
4.64887e-05
-6.28491e-05
4.92898e-05
-6.05343e-05
6.94997e-05
-1.45181e-05
0.000105946
4.56136e-05
0.000160622
6.76631e-05
0.00018621
5.24503e-05
0.000160975
2.82581e-05
0.000122669
1.51973e-05
0.000105159
1.99743e-05
9.72678e-05
4.30395e-05
8.0026e-05
7.22995e-05
4.94588e-05
-1.21799e-05
-2.02625e-06
0.000275864
1.60395e-05
0.000225904
4.49502e-05
0.000180299
6.23629e-05
0.000133251
6.79411e-05
9.79283e-05
7.20643e-05
8.68377e-05
7.48708e-05
8.50284e-05
6.88648e-05
8.31466e-05
5.21148e-05
8.19968e-05
2.66012e-05
7.81888e-05
1.2501e-06
7.18413e-05
-1.12472e-05
6.17963e-05
-1.36932e-05
7.22048e-05
1.01818e-06
9.12713e-05
4.23277e-05
0.000120295
8.17594e-05
0.000147982
9.91963e-05
0.000142918
0.000104461
0.000117707
0.000111747
9.80929e-05
0.000125415
8.35668e-05
0.000144981
6.03758e-05
0.000170432
2.39653e-05
-3.1376e-05
-7.4778e-08
0.00027594
1.12082e-05
0.000214624
3.08456e-05
0.000160662
4.70886e-05
0.00011701
5.48539e-05
9.01647e-05
6.09829e-05
8.07101e-05
6.96595e-05
7.63532e-05
7.24464e-05
8.03609e-05
6.79711e-05
8.64734e-05
5.70622e-05
8.9099e-05
4.12147e-05
8.769e-05
2.92534e-05
7.37588e-05
2.6908e-05
7.45514e-05
3.49135e-05
8.32644e-05
5.68213e-05
9.90384e-05
9.17834e-05
0.000112731
0.000116196
0.000117521
0.000134739
9.91926e-05
0.00015479
7.93792e-05
0.000178804
6.04392e-05
0.000197904
4.15165e-05
0.000213098
8.73587e-06
-3.80698e-05
1.09921e-05
0.000264949
2.03107e-05
0.000205308
3.38882e-05
0.000147086
4.52317e-05
0.000105669
5.18254e-05
8.35724e-05
5.62918e-05
7.62449e-05
6.16264e-05
7.10196e-05
6.80595e-05
7.39288e-05
7.03435e-05
8.41904e-05
6.79349e-05
9.15086e-05
6.41561e-05
9.14698e-05
5.76204e-05
8.02953e-05
5.66428e-05
7.55297e-05
6.22574e-05
7.76506e-05
7.70258e-05
8.42953e-05
0.000100458
8.92373e-05
0.000125709
0.000143036
0.000162267
0.000185106
0.00020571
0.000216283
2.32925e-05
3.46316e-05
4.42478e-05
5.09486e-05
5.44141e-05
5.62215e-05
5.70488e-05
6.02923e-05
6.63436e-05
6.98674e-05
7.18136e-05
7.12896e-05
7.25175e-05
7.64193e-05
8.56536e-05
)
;

boundaryField
{
    leftWall
    {
        type            fixedValue;
        value           uniform 0;
    }
    rightWall
    {
        type            fixedValue;
        value           nonuniform 0();
    }
    lowerWall
    {
        type            fixedValue;
        value           uniform 0;
    }
    atmosphere
    {
        type            calculated;
        value           nonuniform 0();
    }
    defaultFaces
    {
        type            empty;
        value           nonuniform 0();
    }
    procBoundary0to1
    {
        type            processor;
        value           nonuniform List<scalar> 
26
(
-2.14237e-06
-2.25494e-07
6.38994e-08
-1.51955e-07
-8.67436e-07
-3.88355e-06
-1.84871e-05
-1.58859e-05
-2.41712e-05
-9.01936e-05
-0.000186597
-0.000239297
-0.000279092
-0.000287323
-0.000315278
-0.0002663
2.35992e-06
-0.000264516
-0.000263422
-0.000247421
-0.000181647
-5.31601e-05
0.000101608
0.000189706
0.000219875
0.000215454
)
;
    }
    procBoundary0to2
    {
        type            processor;
        value           nonuniform List<scalar> 
24
(
9.21425e-05
8.20944e-05
6.07518e-05
3.7847e-05
2.08654e-05
-1.89882e-06
-3.73501e-05
0.000241658
0.000193972
0.000137472
9.89695e-05
8.0108e-05
7.44383e-05
7.0193e-05
7.06861e-05
7.81397e-05
8.79854e-05
8.95243e-05
8.082e-05
7.43023e-05
7.37494e-05
7.50615e-05
9.96811e-05
7.52072e-05
)
;
    }
}


// ************************************************************************* //
