/*--------------------------------*- C++ -*----------------------------------*\
| =========                 |                                                 |
| \\      /  F ield         | OpenFOAM: The Open Source CFD Toolbox           |
|  \\    /   O peration     | Version:  2.4.0                                 |
|   \\  /    A nd           | Web:      www.OpenFOAM.org                      |
|    \\/     M anipulation  |                                                 |
\*---------------------------------------------------------------------------*/
FoamFile
{
    version     2.0;
    format      ascii;
    class       surfaceScalarField;
    location    "0.95";
    object      phi.water;
}
// * * * * * * * * * * * * * * * * * * * * * * * * * * * * * * * * * * * * * //

dimensions      [0 3 -1 0 0 0 0];

internalField   nonuniform List<scalar> 
1101
(
-1.07592e-05
1.1367e-05
-1.83111e-05
8.0874e-06
-2.29164e-05
4.93718e-06
-2.46576e-05
1.96572e-06
-2.43686e-05
-1.91246e-07
-2.31854e-05
-1.14664e-06
-2.12931e-05
-1.86311e-06
-1.92927e-05
-1.97235e-06
-1.78094e-05
-1.46015e-06
-1.69099e-05
-8.79113e-07
-1.60093e-05
-8.7998e-07
-1.4638e-05
-1.34958e-06
-1.31681e-05
-1.45019e-06
-1.20564e-05
-1.09731e-06
-1.13524e-05
-6.93357e-07
-1.0786e-05
-5.58012e-07
-9.95354e-06
-8.24881e-07
-8.45584e-06
-1.48918e-06
-6.16969e-06
-2.27676e-06
-3.76902e-06
-2.39231e-06
-2.58554e-06
-1.18014e-06
-4.42542e-07
-1.06281e-05
2.63406e-05
-1.8019e-05
1.78827e-05
-2.25407e-05
9.99165e-06
-2.4451e-05
4.05068e-06
-2.46187e-05
1.30539e-07
-2.36012e-05
-1.92992e-06
-2.1573e-05
-3.60154e-06
-1.94166e-05
-3.88484e-06
-1.78516e-05
-2.8896e-06
-1.66653e-05
-1.97981e-06
-1.54357e-05
-2.03669e-06
-1.42138e-05
-2.50588e-06
-1.30403e-05
-2.58064e-06
-1.21427e-05
-1.97453e-06
-1.14893e-05
-1.33271e-06
-1.06633e-05
-1.37069e-06
-9.5505e-06
-1.92081e-06
-7.96624e-06
-3.04771e-06
-5.71695e-06
-4.4963e-06
-3.37406e-06
-4.7114e-06
-1.25019e-06
-3.29699e-06
-1.46424e-06
-9.32167e-06
6.40393e-05
-1.81839e-05
4.34369e-05
-2.31848e-05
2.77895e-05
-2.46644e-05
1.06066e-05
-2.47359e-05
2.86557e-06
-2.36995e-05
-1.34013e-06
-2.16252e-05
-4.95069e-06
-1.9355e-05
-5.78701e-06
-1.75656e-05
-4.13255e-06
-1.6233e-05
-2.75441e-06
-1.51151e-05
-2.77247e-06
-1.4208e-05
-3.2318e-06
-1.33773e-05
-3.30893e-06
-1.2407e-05
-2.8748e-06
-1.13943e-05
-2.30141e-06
-1.02231e-05
-2.50893e-06
-8.92846e-06
-3.19018e-06
-7.55367e-06
-4.39474e-06
-5.86825e-06
-6.10666e-06
-3.957e-06
-6.3092e-06
-1.60301e-06
-5.0287e-06
-2.96369e-06
-1.60075e-05
9.10069e-05
-2.22238e-05
6.57574e-05
-2.37593e-05
4.58056e-05
-2.7727e-05
2.79702e-05
-2.69394e-05
8.35835e-06
-2.45135e-05
2.82188e-06
-2.22581e-05
1.28095e-05
-2.0134e-05
1.75309e-05
-1.79668e-05
1.869e-05
-1.6243e-05
1.98166e-05
-1.51088e-05
2.00228e-05
-1.44261e-05
1.90725e-05
-1.37675e-05
1.80156e-05
-1.28138e-05
1.71958e-05
-1.14781e-05
1.47593e-05
-9.90155e-06
1.33704e-05
-8.57162e-06
1.18109e-05
-7.43953e-06
1.22691e-05
-6.2598e-06
1.63826e-05
-4.58798e-06
1.66535e-05
-1.86009e-06
1.68238e-05
1.85067e-05
-2.41514e-05
0.000114502
-3.12272e-05
7.6008e-05
-3.23641e-05
5.10527e-05
-2.81159e-05
3.54669e-05
-2.99481e-05
2.22258e-05
-2.4193e-05
1.94377e-05
-2.36307e-05
2.26367e-05
-2.23963e-05
2.51051e-05
-2.04901e-05
2.61684e-05
-1.8523e-05
2.73115e-05
-1.74213e-05
2.899e-05
-1.63525e-05
3.11758e-05
-1.52359e-05
3.28468e-05
-1.37139e-05
3.27504e-05
-1.16901e-05
3.05239e-05
-9.8282e-06
2.8866e-05
-8.43238e-06
2.76999e-05
-7.03703e-06
2.69668e-05
-5.92728e-06
2.69142e-05
-4.29401e-06
2.56994e-05
-3.41347e-06
2.58771e-05
2.89933e-05
-3.4612e-05
0.000138545
-4.29826e-05
8.35053e-05
-4.19957e-05
5.42283e-05
-3.73822e-05
3.94586e-05
-3.23171e-05
2.76077e-05
-2.82472e-05
2.0128e-05
-2.53873e-05
1.60482e-05
-2.3691e-05
1.44687e-05
-2.20596e-05
1.56238e-05
-1.85692e-05
1.73253e-05
-1.54766e-05
1.98238e-05
-1.49379e-05
2.31769e-05
-1.59362e-05
2.40225e-05
-1.67134e-05
2.42026e-05
-1.60547e-05
2.20185e-05
-1.39563e-05
1.9208e-05
-1.11994e-05
1.81922e-05
-8.3437e-06
1.72347e-05
-5.30188e-06
1.43801e-05
-2.88113e-06
1.20294e-05
-2.80209e-06
1.55846e-05
3.02145e-05
-3.16488e-05
0.000158366
-4.19507e-05
8.01666e-05
-4.52028e-05
4.98021e-05
-4.01863e-05
2.65786e-05
-3.33398e-05
7.59301e-06
-3.03202e-05
-4.50458e-07
-2.95469e-05
-3.67529e-06
-2.81432e-05
-8.12502e-06
-2.30371e-05
-1.41561e-05
-1.50915e-05
-1.76695e-05
-7.96235e-06
-1.4961e-05
-4.39204e-06
-8.45861e-06
-4.98612e-06
-2.94907e-06
-7.96979e-06
-3.4404e-07
-1.1597e-05
-6.66676e-07
-1.38908e-05
-3.20073e-06
-1.33648e-05
-6.35126e-06
-1.06732e-05
-9.10813e-06
-9.5645e-06
-9.51843e-06
-1.32318e-05
-6.30665e-06
-2.01682e-05
-1.09221e-06
-7.79939e-06
-1.48536e-05
0.000167817
-3.23694e-05
8.4001e-05
-3.82626e-05
3.39423e-05
-3.83456e-05
5.83456e-06
-3.77402e-05
-1.12563e-05
-3.84602e-05
-1.5036e-05
-3.64616e-05
-1.6571e-05
-3.15205e-05
-1.94089e-05
-2.28342e-05
-2.54834e-05
-1.34684e-05
-2.81961e-05
-5.71304e-06
-2.3581e-05
9.16382e-07
-1.61132e-05
5.51107e-06
-8.66095e-06
6.70401e-06
-3.11139e-06
3.75157e-06
8.46638e-08
-2.66665e-07
-1.87768e-06
-4.30816e-06
-5.37364e-06
-9.76268e-06
-6.92616e-06
-1.69584e-05
-5.52128e-06
-2.47592e-05
-1.22685e-06
-3.1944e-05
3.48848e-06
-1.48241e-05
3.9756e-05
0.000125945
2.928e-05
8.57004e-05
8.19392e-06
4.35098e-05
-8.33603e-06
1.23678e-05
-1.70801e-05
-7.25527e-06
-1.62607e-05
-1.72892e-05
-8.86861e-06
-2.43384e-05
2.5867e-06
-3.09798e-05
1.3446e-05
-3.63875e-05
2.13576e-05
-3.61522e-05
2.71466e-05
-2.94331e-05
2.96268e-05
-1.87784e-05
2.45783e-05
-3.80912e-06
1.56977e-05
5.6375e-06
7.64142e-06
8.03637e-06
-1.0526e-06
6.74337e-06
-1.00477e-05
3.57798e-06
-1.65046e-05
-5.1942e-07
-1.16408e-05
-1.0686e-05
-8.70492e-06
-5.3815e-06
-1.37626e-05
7.85236e-06
1.18091e-05
4.17524e-05
8.38351e-05
5.76091e-05
6.85857e-05
5.73025e-05
4.25454e-05
5.25295e-05
1.65609e-05
4.61677e-05
-1.10906e-06
4.17447e-05
-1.29658e-05
4.05328e-05
-2.31883e-05
4.16973e-05
-3.2189e-05
4.3133e-05
-3.78671e-05
4.73814e-05
-4.06297e-05
5.30764e-05
-3.61011e-05
5.71413e-05
-2.47772e-05
5.90877e-05
-8.62449e-06
5.67769e-05
5.51512e-06
5.08747e-05
1.2445e-05
3.71241e-05
1.97266e-05
1.88121e-05
2.14856e-05
3.99464e-06
1.38237e-05
-3.54377e-06
-4.5548e-06
-1.56564e-05
2.0245e-06
-3.98319e-05
2.78875e-05
2.97064e-05
3.20723e-05
5.1367e-05
5.08778e-05
4.95939e-05
5.74608e-05
3.5904e-05
5.49606e-05
1.90181e-05
4.99594e-05
3.85116e-06
4.60884e-05
-9.12752e-06
4.56349e-05
-2.27658e-05
4.71465e-05
-3.37825e-05
5.0639e-05
-4.18001e-05
5.81011e-05
-5.06892e-05
6.35671e-05
-4.75476e-05
6.47577e-05
-3.45588e-05
6.00147e-05
-1.21338e-05
4.71695e-05
1.13469e-05
3.37332e-05
2.14281e-05
2.61003e-05
2.45628e-05
1.71516e-05
2.65e-05
5.72952e-06
1.88967e-05
-2.92881e-05
1.77987e-05
-8.5757e-05
4.13873e-05
-0.000128131
6.19016e-05
4.32907e-05
2.63652e-05
2.02732e-05
3.93519e-05
3.43891e-05
4.39801e-05
3.05117e-05
4.3256e-05
1.94597e-05
3.99761e-05
7.01705e-06
3.7249e-05
-6.47508e-06
3.67465e-05
-2.25339e-05
3.63043e-05
-3.46626e-05
3.96679e-05
-4.86199e-05
3.91143e-05
-5.54238e-05
3.27845e-05
-5.06072e-05
2.67267e-05
-3.58211e-05
2.23415e-05
-8.61838e-06
1.66178e-05
1.65091e-05
3.79131e-06
2.93448e-05
-1.12334e-05
3.34708e-05
-4.03996e-05
4.75054e-05
-8.93543e-05
6.62947e-05
-0.000168246
8.46827e-05
-0.000217233
8.77861e-05
-0.000237607
6.82476e-05
6.97187e-06
1.46457e-05
-3.43516e-06
1.73083e-05
2.51046e-05
1.81394e-05
2.7497e-05
1.70083e-05
1.97882e-05
1.30687e-05
1.03839e-05
8.24095e-06
-2.57977e-06
5.51155e-06
-2.33825e-05
-1.01883e-05
-2.76495e-05
-5.69633e-05
-1.99352e-05
-0.000113903
-2.34531e-05
-0.000131796
-2.6488e-05
-0.000132787
-2.35709e-05
-0.000121667
-1.50527e-05
-0.000108795
-6.25435e-06
-0.000120247
1.44576e-05
-0.000147208
4.47496e-05
-0.000185226
7.07096e-05
-0.00022614
9.80299e-05
-0.000252604
9.81566e-05
-0.000268634
9.40859e-05
-0.000280722
4.66334e-05
-7.1798e-05
-3.08511e-06
-5.17884e-06
-9.17179e-06
2.76123e-05
-1.41804e-05
2.90257e-05
-1.59648e-05
1.92978e-05
-1.76382e-05
9.73333e-06
-3.04422e-05
6.34205e-06
-7.76125e-05
1.11748e-05
-0.000135689
7.60487e-06
-0.000160768
2.58192e-06
-0.000174708
-1.26797e-05
-0.000186482
-1.74674e-05
-0.000200522
-1.66714e-05
-0.000208118
-3.09797e-05
-0.000197377
-4.59026e-05
-0.000195662
-3.11556e-05
-0.000216945
-1.18683e-07
-0.000243045
2.25031e-05
-0.00024269
6.06008e-05
-0.000243465
7.58869e-05
-0.000254402
6.47258e-05
-0.000294546
6.05517e-06
-0.000139985
-1.34885e-05
2.6261e-06
-1.89373e-05
2.99825e-05
-2.66258e-05
3.08783e-05
-3.624e-05
2.28518e-05
-5.67321e-05
2.385e-05
-0.000103523
4.21698e-05
-0.000154236
4.86683e-05
-0.000175589
1.68448e-05
-0.000175213
-4.44114e-06
-0.00017858
-1.16636e-05
-0.000188457
-1.56619e-05
-0.00023307
-2.39557e-05
-0.000277314
-4.637e-05
-0.000263406
-6.8781e-06
-0.000247621
-1.21534e-05
-0.000270034
-5.6205e-06
-0.000258555
3.58116e-06
-0.000238353
2.34421e-05
-0.000226024
3.63759e-05
-0.000222057
2.95474e-05
-0.000267771
2.17204e-05
-5.33798e-05
-1.25586e-05
-4.8987e-06
-2.46881e-05
2.2764e-05
-4.49636e-05
3.65584e-05
-8.01879e-05
4.84653e-05
-0.000132045
6.75793e-05
-0.000183708
8.38893e-05
-0.000202351
4.82508e-05
-0.000191782
-1.14289e-05
-0.000179565
-3.13312e-05
-0.000172349
-3.79655e-05
-0.000183304
-4.63372e-05
-0.000250499
-6.33106e-05
-0.000237935
-2.43671e-05
-0.000252159
6.18714e-05
-0.00026743
4.78685e-05
-0.000305118
1.83828e-05
-0.000230996
1.27946e-05
-0.000239377
1.76327e-05
-0.000224319
3.28279e-05
-0.000187981
3.532e-05
-0.000146202
4.72194e-05
9.73456e-05
-2.56177e-05
-2.35857e-05
-6.3408e-05
1.35244e-05
-0.000117945
5.5484e-05
-0.000167089
7.98361e-05
-0.000193949
8.39802e-05
-0.000211177
7.07997e-05
-0.000230513
1.80175e-06
-0.000204266
-5.02414e-05
-0.000183351
-4.90585e-05
-0.000180817
-5.687e-05
-0.000192307
-5.15158e-05
-0.000182752
-4.25522e-05
-0.000145047
5.77105e-05
-0.000254541
0.000196235
-0.000263609
0.000166908
-0.000270687
6.88278e-05
-0.000279361
4.85087e-05
-0.000258663
5.90367e-05
-0.000261659
8.95241e-05
-0.000239711
0.000110457
-0.000253446
0.000145616
-0.000242058
9.93008e-05
2.06078e-05
-9.62389e-05
2.19253e-05
-0.000167786
4.1568e-05
-0.000199635
5.57039e-05
-0.000202241
5.99069e-05
-0.000210975
5.60291e-05
-0.000245472
3.74318e-05
-0.000206623
-9.46101e-06
-0.000188109
-3.30001e-05
-0.000183827
-3.36488e-05
-0.00018725
-4.18532e-05
-0.0001967
-2.96926e-05
-0.00018958
1.52009e-05
-0.000220011
0.000154447
-0.000243924
0.000215361
-0.000260792
0.000182361
-0.000274931
8.29774e-05
-0.000283742
5.7248e-05
-0.000282418
5.84529e-05
-0.000275357
9.97571e-05
-0.000264009
0.000127187
-0.000247803
0.000130971
-0.000252317
0.000103827
3.12592e-05
-0.000186197
0.000107568
-0.000277089
9.28425e-05
-0.000240422
6.29329e-05
-0.000211158
4.51839e-05
-0.000201838
3.83053e-05
-0.000200867
3.21609e-05
-0.000133161
2.34255e-05
-0.000224879
-1.23078e-05
-0.000195777
-2.46616e-05
-0.000194785
-2.87118e-05
-0.000182506
-1.37231e-05
-0.00016823
2.25774e-05
-0.00016549
0.000144106
-0.000195466
0.000231325
-0.000227981
0.000215926
-0.000257383
0.000113231
-0.000264254
6.41771e-05
-0.000263768
5.79635e-05
-0.000254211
9.02389e-05
-0.000243077
0.000116125
-0.000231748
0.000119774
-0.000233758
0.000105862
4.52767e-05
-0.000102491
0.00028919
-0.000182145
0.000180922
-0.000239151
7.05278e-05
-0.000226937
3.95454e-05
-0.000182808
2.9523e-05
-9.00676e-05
3.15258e-05
-9.16684e-05
6.66018e-05
-0.000127074
2.20236e-05
-0.000150038
1.43961e-06
-0.000160578
-1.03784e-05
-0.000165427
-3.65964e-07
-0.000158594
1.58935e-05
-0.000114687
8.78809e-05
-8.30407e-05
0.00018936
-0.000119489
0.000225548
-0.000178653
0.000174502
-0.000206187
9.45225e-05
-0.00021196
6.43053e-05
-0.000204305
8.19616e-05
-0.000194592
0.000106696
-0.000188194
0.000113732
-0.000184103
0.000101832
4.28987e-05
1.3553e-05
0.000279984
4.95339e-05
0.000278417
4.3431e-05
0.000233079
2.36045e-05
0.000150473
2.51107e-05
9.96111e-05
2.87857e-05
9.11165e-05
1.62607e-05
8.35004e-05
-1.69395e-05
5.51434e-05
-4.56495e-05
3.00907e-05
-7.22695e-05
1.62225e-05
-9.47579e-05
2.17741e-05
-0.000108237
3.5115e-05
-8.69427e-05
6.4895e-05
-2.15376e-05
0.00014348
1.25085e-05
0.000209876
-2.08603e-05
0.00018227
-7.27029e-05
0.000145955
-0.000106538
9.91947e-05
-0.000117975
8.87852e-05
-0.000113658
0.000100395
-0.000103008
0.000102624
-7.93702e-05
7.78585e-05
1.62305e-05
6.17236e-06
0.000273819
4.07928e-05
0.000243946
6.82819e-05
0.000209142
7.33995e-05
0.00015064
7.26224e-05
0.000103504
7.30564e-05
9.09597e-05
6.87578e-05
8.78348e-05
4.68006e-05
7.71378e-05
1.16515e-05
6.5246e-05
-2.48001e-05
5.26763e-05
-4.95056e-05
4.64867e-05
-6.27446e-05
4.9278e-05
-5.14929e-05
6.83066e-05
-1.69745e-05
9.5308e-05
3.83315e-05
0.000159741
6.22317e-05
0.000177482
4.99513e-05
0.00011704
2.91732e-05
0.000102566
1.5974e-05
8.60254e-05
1.86464e-05
7.32436e-05
4.29488e-05
5.99096e-05
7.20813e-05
3.96153e-05
-1.08773e-05
-2.03611e-06
0.000275841
1.60373e-05
0.000225838
4.49306e-05
0.000180169
6.23484e-05
0.000132966
6.79306e-05
9.7864e-05
7.20631e-05
8.68266e-05
7.48718e-05
8.50261e-05
6.8867e-05
8.31437e-05
5.21119e-05
8.19931e-05
2.65914e-05
7.81831e-05
1.2478e-06
7.18327e-05
-1.12727e-05
6.17785e-05
-1.3658e-05
7.21774e-05
1.07853e-06
8.98712e-05
3.79127e-05
0.000103895
7.53398e-05
0.000138058
9.36891e-05
0.000138467
0.000102153
0.000119385
0.000109377
9.96262e-05
0.000118098
8.51821e-05
0.000140298
6.18174e-05
0.000168842
2.70257e-05
-2.48771e-05
-6.72595e-08
0.000275901
1.11903e-05
0.000214567
3.10079e-05
0.000160614
4.70011e-05
0.000116833
5.47889e-05
8.99938e-05
6.09718e-05
8.06561e-05
6.96615e-05
7.63472e-05
7.24479e-05
8.03557e-05
6.79716e-05
8.64663e-05
5.70576e-05
8.90883e-05
4.12112e-05
8.76759e-05
2.92497e-05
7.37418e-05
2.68871e-05
7.45284e-05
3.46726e-05
8.32489e-05
5.52272e-05
9.84477e-05
8.55513e-05
0.000106291
0.000109521
9.95944e-05
0.000129691
8.64041e-05
0.000149592
7.33824e-05
0.000166874
5.7181e-05
0.0001836
4.15241e-05
0.000212925
1.06876e-05
-3.27612e-05
1.1009e-05
0.000264929
2.02965e-05
0.000205282
3.41122e-05
0.000147066
4.51848e-05
0.000105486
5.17068e-05
8.34568e-05
5.62439e-05
7.61957e-05
6.16255e-05
7.10147e-05
6.80637e-05
7.39238e-05
7.03444e-05
8.41818e-05
6.7934e-05
9.14967e-05
6.41542e-05
9.14548e-05
5.76153e-05
8.02773e-05
5.66358e-05
7.55071e-05
6.22487e-05
7.76302e-05
7.7165e-05
8.42991e-05
9.99789e-05
8.94146e-05
0.00012222
0.000141325
0.000160473
0.000180346
0.000202188
0.000215553
2.32994e-05
3.46211e-05
4.44341e-05
5.09053e-05
5.43206e-05
5.61737e-05
5.70479e-05
6.02965e-05
6.63465e-05
6.98675e-05
7.18137e-05
7.12865e-05
7.25113e-05
7.64085e-05
8.56831e-05
)
;

boundaryField
{
    leftWall
    {
        type            fixedValue;
        value           uniform 0;
    }
    rightWall
    {
        type            fixedValue;
        value           nonuniform 0();
    }
    lowerWall
    {
        type            fixedValue;
        value           uniform 0;
    }
    atmosphere
    {
        type            calculated;
        value           nonuniform 0();
    }
    defaultFaces
    {
        type            empty;
        value           nonuniform 0();
    }
    procBoundary0to1
    {
        type            processor;
        value           nonuniform List<scalar> 
26
(
-2.14235e-06
-2.25474e-07
6.39189e-08
-1.55396e-07
-6.51421e-07
-6.08046e-06
-1.45552e-05
-2.70789e-05
-3.9723e-05
-6.44898e-05
-0.000165084
-0.000238616
-0.000280328
-0.000308098
-0.000347798
-0.000254628
5.82965e-06
-0.000264308
-0.000263554
-0.000247487
-0.000181433
-5.27095e-05
0.000103514
0.000190599
0.000217908
0.000214657
)
;
    }
    procBoundary0to2
    {
        type            processor;
        value           nonuniform List<scalar> 
24
(
9.18973e-05
7.57243e-05
5.44568e-05
3.75266e-05
2.26066e-05
-1.00119e-06
-3.67987e-05
0.000241667
0.000193959
0.000137405
9.87933e-05
8.00081e-05
7.43978e-05
7.01885e-05
7.06815e-05
7.81343e-05
8.79764e-05
8.95106e-05
8.08022e-05
7.42832e-05
7.37334e-05
7.50544e-05
9.96336e-05
7.52525e-05
)
;
    }
}


// ************************************************************************* //
