/*--------------------------------*- C++ -*----------------------------------*\
| =========                 |                                                 |
| \\      /  F ield         | OpenFOAM: The Open Source CFD Toolbox           |
|  \\    /   O peration     | Version:  2.4.0                                 |
|   \\  /    A nd           | Web:      www.OpenFOAM.org                      |
|    \\/     M anipulation  |                                                 |
\*---------------------------------------------------------------------------*/
FoamFile
{
    version     2.0;
    format      ascii;
    class       volScalarField;
    location    "0.95";
    object      rho;
}
// * * * * * * * * * * * * * * * * * * * * * * * * * * * * * * * * * * * * * //

dimensions      [1 -3 0 0 0 0 0];

internalField   nonuniform List<scalar> 
575
(
13529
13529
13529
13529
13529
13529
13529
13529
13529
13529
13529
13529
13529
13529
13529
13529
13529
13529
13529
13529
13529
13528.9
13529
13529
13529
13529
13529
13529
13529
13529
13529
13529
13529
13529
13529
13529
13529
13529
13529
13529
13529
13529
13529
13528.9
13522.9
13527.8
13528.9
13529
13529
13529
13529
13529
13529
13529
13529
13529
13529
13529
13529
13529
13529
13529
13529
13529
13529
13528.9
13192.1
13462.7
13521.3
13527.6
13528.5
13528.7
13528.9
13528.9
13528.9
13528.9
13528.9
13529
13529
13529
13529
13529
13529
13529
13529
13528.9
13528.9
13528.9
10937
12991.6
13449
13516.2
13526.2
13526.9
13520
13499
13469.8
13459
13472.5
13497.8
13510.9
13516.4
13518.9
13520.3
13521.7
13520.9
13513.2
13493.8
13477
13501.9
6740.68
11563.9
13241.5
13468.9
13456.7
13155.6
12554.4
11623.8
10534
9939.5
10033.2
10848.3
11530.3
11942.3
12145.4
12227.8
12303.8
12276.5
11934.9
11280.6
10844.1
11235.8
3166.29
8333.44
12038.1
12525
10400.3
7201.61
4749.37
2883.43
1728.14
1313.23
1249.01
1358.21
1631.24
2040.88
2569.69
2939.11
3095.38
3087.32
2865.41
2360.55
1896.83
1403.77
1535.1
3711.76
5411.61
4608.38
2482.13
1383.83
1097.47
1029.61
1011.89
1009.16
1008.08
1003.34
1000.48
1000.17
1000.09
999.891
999.217
998.682
998.735
998.785
996.526
996.369
1105.96
1423.44
1530.58
1265.87
1100.61
1041.65
1021.52
1012.04
1009.11
1007.89
1002.07
1000.22
999.258
998.716
998.455
997.786
995.433
993.586
993.039
990.173
988.766
960.931
1004.39
1015.21
1015.82
1009.21
1009.14
1009.09
1008.87
1008.01
1005.26
1001.43
997.739
991.012
986.043
988.815
990.627
991.821
991.071
987.084
976.53
905.239
873.469
821.369
1000.27
1002.39
1003.99
1004.25
1003.84
1003.39
1002.17
1000.96
999.519
984.211
936.951
884.999
855.879
880.946
917.047
949.644
968.939
963.226
889.881
707.124
682.579
614.969
950.266
971.349
988.908
995.093
997.183
998.709
998.753
993.368
960.23
826.77
707.145
650.986
638.605
673.851
772.9
853.074
807.251
710.402
616.209
561.901
547.513
533.941
659.979
793.293
923.585
972.426
989.26
992.532
970.758
873.957
731.048
583.509
544.478
570.373
585.802
612.401
616.796
606.2
574.291
544.468
529.524
525.517
523.084
520.748
575.912
634.464
842.667
927.126
945.278
905.852
716.993
570.809
548.539
546.654
543.147
531.162
450.853
297.719
297.076
442.78
507.977
514.778
512.975
503.447
440.204
323.918
575.516
578.766
709.013
774.11
768.111
665.953
560.677
537.921
535.785
530.449
523.608
452.981
149.556
17.1474
17.1475
56.5861
158.608
293.95
348.16
282.426
96.6049
15.743
479.566
570.585
603.446
637.776
593.966
548.01
532.728
510.939
502.029
497.905
488.11
327.206
28.102
1.10175
1.07316
1.38498
3.32212
17.6708
33.5356
25.9757
4.50577
1.08363
429.071
467.544
548.676
551.208
539.866
523.434
480.78
421.676
412.263
420.132
276.16
47.0044
2.22539
1.00078
1.00045
1.00045
1.00257
1.06479
1.23383
1.22683
1.02533
1.00084
1.00051
121.284
158.366
399.793
493.592
490.16
348.286
110.335
20.9512
10.9141
16.4791
8.59533
1.75574
1.02917
1.00061
1.0005
1.0004
1.00032
1.00035
1.0005
1.00062
1.0006
1.00056
1.00042
5.24282
14.5695
86.581
151.98
148.576
44.8079
3.1095
1.02001
1.00454
1.02868
1.09004
1.10821
1.01433
1.00058
1.00052
1.00041
1.00032
1.00031
1.00039
1.0005
1.00054
1.00052
1.00067
1.02707
1.40545
4.05279
6.40031
5.96761
1.82394
1.00814
1.00017
1.00013
1.00328
1.05766
1.17762
1.17799
1.13158
1.00077
1.00045
1.00033
1.00029
1.00033
1.00043
1.00051
1.00089
1.00099
1.00005
1.00232
1.01549
1.0213
1.01478
1.00288
1.00017
1.00011
1.00005
1.00006
1.00248
1.05117
1.16792
1.10739
1.00534
1.00056
1.00045
1.00034
1.00027
1.00033
1.00041
1.00045
1.00077
1.00002
1.00001
1.00001
1.00003
1.00004
1.00004
1.00005
1.00005
1.00003
1.00002
1.00004
1.00157
1.01806
1.02594
1.03119
1.02645
1.00198
1.00051
1.00041
1.0003
1.0003
1.00033
1.00033
1.00001
1.00001
1.00001
1.00001
1.00001
1.00001
1.00002
1.00002
1.00001
1.00001
1.00001
1.00002
1.00019
1.00233
1.0271
1.01245
1.02287
1.02252
1.00711
1.00142
1.00068
1.00055
1.00113
1.00001
1.00001
1.00003
1.00003
1.00002
1.00001
1.00001
1.00001
1.00001
1.00001
1.00001
1.00001
1.00002
1.00011
1.00254
1.00151
1.02066
1.03823
1.03816
1.01953
1.00363
1.00277
1.01065
1.00001
1.00002
1.00007
1.00005
1.00003
1.00001
1
1.00001
1.00001
1.00001
1.00001
1.00002
1.00002
1.00003
1.00006
1.00022
1.00399
1.01943
1.01852
1.01023
1.00454
1.01189
1.01231
1.00003
1.0001
1.00009
1.00006
1.00003
1.00001
1
1
1.00001
1.00001
1.00001
1.00002
1.00003
1.00002
1.00003
1.00007
)
;

boundaryField
{
    leftWall
    {
        type            calculated;
        value           nonuniform List<scalar> 
26
(
13529
13529
13522.9
13192.1
10937
6740.68
3166.29
1535.1
1105.96
1004.39
1000.27
950.266
659.979
575.912
575.516
479.566
429.071
121.284
5.24282
1.02707
1.00005
1.00002
1.00001
1.00001
1.00001
1.00003
)
;
    }
    rightWall
    {
        type            calculated;
        value           nonuniform 0();
    }
    lowerWall
    {
        type            calculated;
        value           nonuniform List<scalar> 
22
(
13529
13529
13529
13529
13529
13529
13529
13529
13529
13529
13529
13529
13529
13529
13529
13529
13529
13529
13529
13529
13529
13528.9
)
;
    }
    atmosphere
    {
        type            calculated;
        value           nonuniform 0();
    }
    defaultFaces
    {
        type            empty;
    }
    procBoundary0to1
    {
        type            processor;
        value           nonuniform List<scalar> 
26
(
13528.9
13528.9
13528.8
13528.8
13488.1
9803.08
1194.84
1049.21
858.683
594.939
544.565
533.194
525.682
322.932
6.95465
1.00492
1.00492
1.00038
1.00038
1.00038
1.00099
1.00079
1.00039
1.00253
1.01273
1.01237
)
;
    }
    procBoundary0to2
    {
        type            processor;
        value           nonuniform List<scalar> 
24
(
1.00019
1.00132
1.0012
1.00085
1.00125
1.00167
1.00125
1.00011
1.00011
1.00006
1.00005
1.00003
1.00001
1
1
1
1.00001
1.00001
1.00002
1.00003
1.00002
1.00002
1.00019
1.00002
)
;
    }
}


// ************************************************************************* //
