/*--------------------------------*- C++ -*----------------------------------*\
| =========                 |                                                 |
| \\      /  F ield         | OpenFOAM: The Open Source CFD Toolbox           |
|  \\    /   O peration     | Version:  2.4.0                                 |
|   \\  /    A nd           | Web:      www.OpenFOAM.org                      |
|    \\/     M anipulation  |                                                 |
\*---------------------------------------------------------------------------*/
FoamFile
{
    version     2.0;
    format      ascii;
    class       volVectorField;
    location    "0.95";
    object      U;
}
// * * * * * * * * * * * * * * * * * * * * * * * * * * * * * * * * * * * * * //

dimensions      [0 1 -1 0 0 0 0];

internalField   nonuniform List<vector> 
575
(
(-0.0664916 -0.0337351 0)
(-0.173147 -0.0311506 0)
(-0.24367 -0.0168719 0)
(-0.277701 -0.00599204 0)
(-0.282429 0.00332941 0)
(-0.274537 0.00716042 0)
(-0.256445 0.00536142 0)
(-0.232713 0.00369474 0)
(-0.211644 0.00295769 0)
(-0.198441 0.000971784 0)
(-0.189953 -0.00289315 0)
(-0.177243 -0.00588401 0)
(-0.158395 -0.0043786 0)
(-0.14347 -0.00366008 0)
(-0.132596 -0.00254902 0)
(-0.126854 -0.00204797 0)
(-0.11939 -0.00376222 0)
(-0.107124 -0.00481802 0)
(-0.0853042 -0.00548853 0)
(-0.0541056 -0.00653895 0)
(-0.0328668 -0.00015606 0)
(-0.0274897 0.00337154 0)
(-0.0658763 0.131358 0)
(-0.171823 0.100391 0)
(-0.235729 0.0608896 0)
(-0.276355 0.0226413 0)
(-0.282891 -0.00720101 0)
(-0.279614 -0.0205836 0)
(-0.261364 -0.0249564 0)
(-0.235033 -0.0243597 0)
(-0.212696 -0.018242 0)
(-0.198056 -0.0102242 0)
(-0.184772 -0.00776099 0)
(-0.169858 -0.0109851 0)
(-0.155807 -0.0139876 0)
(-0.143511 -0.0107221 0)
(-0.134494 -0.00688723 0)
(-0.127025 -0.0053806 0)
(-0.115698 -0.00582207 0)
(-0.102018 -0.0109439 0)
(-0.0790602 -0.0187599 0)
(-0.050321 -0.0194706 0)
(-0.0259209 -0.0125745 0)
(-0.00392683 -0.00923117 0)
(-0.0834802 0.130147 0)
(-0.203889 0.0804675 0)
(-0.254018 0.0466889 0)
(-0.279843 0.020501 0)
(-0.2848 0.00617546 0)
(-0.281157 -0.00208181 0)
(-0.262623 -0.018079 0)
(-0.234902 -0.0218317 0)
(-0.211458 -0.0155163 0)
(-0.193301 -0.0117674 0)
(-0.178908 -0.0122156 0)
(-0.167178 -0.0124071 0)
(-0.158385 -0.00918821 0)
(-0.147923 -0.00597316 0)
(-0.135452 -0.00380073 0)
(-0.124714 -0.0062704 0)
(-0.108755 -0.0125082 0)
(-0.0945876 -0.0221161 0)
(-0.0767579 -0.0312909 0)
(-0.0563291 -0.0326954 0)
(-0.0347263 -0.0218046 0)
(-0.00124654 -0.00355016 0)
(-0.10877 0.219236 0)
(-0.264517 0.145165 0)
(-0.319551 0.0817148 0)
(-0.336678 0.0300751 0)
(-0.328762 -0.00758119 0)
(-0.297221 -0.0331714 0)
(-0.268505 -0.0454446 0)
(-0.245588 -0.0469032 0)
(-0.219403 -0.038134 0)
(-0.194279 -0.0289804 0)
(-0.178473 -0.0281928 0)
(-0.168521 -0.0328278 0)
(-0.162234 -0.0369488 0)
(-0.153345 -0.0345449 0)
(-0.138583 -0.0289386 0)
(-0.121849 -0.0280337 0)
(-0.103573 -0.0286885 0)
(-0.09081 -0.0313265 0)
(-0.0778405 -0.0391075 0)
(-0.0645772 -0.0418161 0)
(-0.0394924 -0.0439118 0)
(-0.00486754 -0.0366574 0)
(-0.18947 0.351701 0)
(-0.366163 0.192841 0)
(-0.401038 0.087526 0)
(-0.397231 0.0235677 0)
(-0.374343 -0.00987405 0)
(-0.338672 -0.0274272 0)
(-0.308324 -0.0371446 0)
(-0.282976 -0.0375563 0)
(-0.256724 -0.0295179 0)
(-0.22694 -0.0194428 0)
(-0.20318 -0.0113352 0)
(-0.188946 -0.00194805 0)
(-0.17815 0.00457595 0)
(-0.165453 0.00447473 0)
(-0.142696 0.000476901 0)
(-0.119611 -0.00538768 0)
(-0.100456 -0.00977267 0)
(-0.0886587 -0.0183527 0)
(-0.0767818 -0.0303978 0)
(-0.0610903 -0.0376963 0)
(-0.0427606 -0.0361267 0)
(-0.0191493 -0.00461929 0)
(-0.370939 0.527055 0)
(-0.514957 0.233123 0)
(-0.522706 0.102286 0)
(-0.48736 0.0288609 0)
(-0.431849 -0.0323033 0)
(-0.37554 -0.0743805 0)
(-0.329956 -0.0939742 0)
(-0.298934 -0.104129 0)
(-0.273952 -0.0997951 0)
(-0.237049 -0.08678 0)
(-0.194155 -0.0774805 0)
(-0.179021 -0.0832958 0)
(-0.179849 -0.0893313 0)
(-0.187549 -0.089598 0)
(-0.186005 -0.0857054 0)
(-0.169927 -0.0796484 0)
(-0.142193 -0.0722219 0)
(-0.106438 -0.072538 0)
(-0.0777725 -0.085099 0)
(-0.0456213 -0.0965615 0)
(-0.0195796 -0.0996417 0)
(-0.030735 -0.0966465 0)
(-0.35297 0.721404 0)
(-0.517184 0.260665 0)
(-0.556039 0.0548643 0)
(-0.535739 -0.0334839 0)
(-0.469608 -0.0909644 0)
(-0.390441 -0.0979639 0)
(-0.354165 -0.0692922 0)
(-0.345971 -0.0119264 0)
(-0.314455 0.0572433 0)
(-0.228595 0.102115 0)
(-0.128677 0.12577 0)
(-0.0596059 0.138316 0)
(-0.0459477 0.127935 0)
(-0.0705809 0.101397 0)
(-0.124145 0.0493285 0)
(-0.153912 -6.09785e-05 0)
(-0.163619 -0.0206758 0)
(-0.132831 -0.0290378 0)
(-0.10415 -0.0334072 0)
(-0.109629 -0.0185351 0)
(-0.196707 0.0403796 0)
(-0.219496 0.193624 0)
(-0.0904456 0.911393 0)
(-0.351132 0.396889 0)
(-0.454218 0.127805 0)
(-0.435527 -0.0157618 0)
(-0.418652 -0.0419424 0)
(-0.440655 -0.0137287 0)
(-0.443145 -0.022509 0)
(-0.402902 -0.0760322 0)
(-0.314851 -0.162436 0)
(-0.198196 -0.217955 0)
(-0.110066 -0.21351 0)
(-0.0278948 -0.180286 0)
(0.0470471 -0.139902 0)
(0.0756876 -0.0966949 0)
(0.07146 -0.0562859 0)
(0.0206228 -0.0353291 0)
(-0.0264617 -0.0399186 0)
(-0.0758912 -0.0487605 0)
(-0.14471 -0.0435293 0)
(-0.231519 -0.0293517 0)
(-0.361485 -0.0352611 0)
(-0.32979 -0.233682 0)
(0.151049 0.863924 0)
(0.186962 0.566757 0)
(0.094807 0.280849 0)
(0.000554002 0.0518744 0)
(-0.0788865 -0.095551 0)
(-0.0977705 -0.174251 0)
(-0.0815426 -0.205493 0)
(-0.0204571 -0.215194 0)
(0.0469644 -0.19673 0)
(0.10102 -0.14922 0)
(0.130787 -0.0793505 0)
(0.153065 -0.00434256 0)
(0.154913 0.0665023 0)
(0.106399 0.103999 0)
(0.0630889 0.0769888 0)
(0.0177852 -0.00421246 0)
(-0.0301392 -0.07273 0)
(-0.0778775 -0.0911456 0)
(-0.0890574 -0.0710851 0)
(-0.0354809 -0.010577 0)
(-0.0670917 0.0797784 0)
(-0.0683228 0.133342 0)
(0.134951 0.583745 0)
(0.27535 0.445996 0)
(0.318631 0.233112 0)
(0.301405 0.0769201 0)
(0.274523 -0.00910856 0)
(0.237969 -0.0503146 0)
(0.218527 -0.0901075 0)
(0.219254 -0.137393 0)
(0.226731 -0.176397 0)
(0.241993 -0.19045 0)
(0.267194 -0.179561 0)
(0.295201 -0.142449 0)
(0.310574 -0.0774538 0)
(0.312826 -0.010842 0)
(0.297633 0.0468961 0)
(0.248665 0.111353 0)
(0.155658 0.138137 0)
(0.052354 0.10663 0)
(-0.00710386 0.00731693 0)
(-0.0417212 0.000376746 0)
(-0.150166 0.0606588 0)
(-0.27393 0.0644678 0)
(0.101842 0.352357 0)
(0.221698 0.295402 0)
(0.304112 0.201154 0)
(0.30634 0.0935629 0)
(0.289259 0.00192452 0)
(0.258695 -0.0674534 0)
(0.24594 -0.134455 0)
(0.248524 -0.18687 0)
(0.260499 -0.216373 0)
(0.288956 -0.237717 0)
(0.327954 -0.208046 0)
(0.351077 -0.12765 0)
(0.344543 -0.00354596 0)
(0.30318 0.0812079 0)
(0.217323 0.0815024 0)
(0.156771 0.0915125 0)
(0.11644 0.0870259 0)
(0.0664975 0.0272688 0)
(-0.0150058 -0.0516057 0)
(-0.332461 0.0874869 0)
(-0.620721 0.31735 0)
(-0.796974 0.342211 0)
(0.0848114 0.185367 0)
(0.183377 0.21914 0)
(0.234121 0.168416 0)
(0.240606 0.106282 0)
(0.228341 0.0424685 0)
(0.209394 -0.0321483 0)
(0.200082 -0.115118 0)
(0.193452 -0.179797 0)
(0.208089 -0.252409 0)
(0.212726 -0.329933 0)
(0.197462 -0.28774 0)
(0.194279 -0.176702 0)
(0.167929 -0.0230478 0)
(0.152737 0.137061 0)
(0.0608281 0.19324 0)
(-0.00573696 0.166426 0)
(-0.134282 0.20228 0)
(-0.32115 0.274165 0)
(-0.868793 0.444628 0)
(-1.21797 0.596173 0)
(-1.31961 0.602064 0)
(-1.30569 0.396151 0)
(0.0517588 0.102509 0)
(0.0927555 0.182208 0)
(0.104559 0.162693 0)
(0.0907148 0.098769 0)
(0.09004 0.0289954 0)
(0.0558759 -0.0359287 0)
(0.0414155 -0.128295 0)
(-0.000533033 -0.204152 0)
(-0.0866835 -0.217323 0)
(-0.393777 -0.160511 0)
(-0.563163 -0.107163 0)
(-0.643647 -0.0399773 0)
(-0.619203 0.109549 0)
(-0.53878 0.200629 0)
(-0.600911 0.301219 0)
(-0.851398 0.42485 0)
(-1.09721 0.619668 0)
(-1.24937 0.730658 0)
(-1.38359 0.730863 0)
(-1.44209 0.677219 0)
(-1.47308 0.519482 0)
(-1.54876 0.148535 0)
(-0.0083449 0.0373425 0)
(-0.0211552 0.211406 0)
(-0.0671807 0.167439 0)
(-0.0906935 0.11201 0)
(-0.0825157 0.0811889 0)
(-0.106228 0.0185678 0)
(-0.218241 -0.065158 0)
(-0.57961 0.0350673 0)
(-0.714379 0.150421 0)
(-0.853732 0.0113934 0)
(-0.885001 -0.070375 0)
(-0.992117 -0.0707 0)
(-1.09467 -0.0719824 0)
(-1.25777 0.0477808 0)
(-1.38717 0.392236 0)
(-1.42926 0.414834 0)
(-1.39915 0.458694 0)
(-1.32016 0.641459 0)
(-1.33135 0.681021 0)
(-1.31315 0.64135 0)
(-1.33527 0.491819 0)
(-1.48487 0.142057 0)
(-0.0578311 0.0928225 0)
(-0.097529 0.260864 0)
(-0.119231 0.236366 0)
(-0.163481 0.153752 0)
(-0.231518 0.0683749 0)
(-0.417106 0.125208 0)
(-0.712918 0.309565 0)
(-0.876422 0.226044 0)
(-0.876721 0.075591 0)
(-0.869947 0.0374102 0)
(-0.909095 0.0249524 0)
(-0.950852 0.0688246 0)
(-0.950683 0.257769 0)
(-0.985609 0.900519 0)
(-1.81346 1.12703 0)
(-1.81261 0.607114 0)
(-1.56078 0.359352 0)
(-1.29355 0.452667 0)
(-1.23225 0.521636 0)
(-1.17034 0.580597 0)
(-1.06632 0.750261 0)
(-1.20006 1.35903 0)
(-0.0567603 0.240664 0)
(-0.0835089 0.278187 0)
(-0.178692 0.251279 0)
(-0.314859 0.207858 0)
(-0.572022 0.348507 0)
(-0.873108 0.547395 0)
(-1.06295 0.466168 0)
(-1.06236 0.24138 0)
(-0.961865 0.128681 0)
(-0.871334 0.056941 0)
(-0.839519 0.00931386 0)
(-0.784836 0.0292918 0)
(-0.529049 0.608672 0)
(-0.875647 0.798158 0)
(-1.42468 0.856135 0)
(-1.25974 0.572036 0)
(-1.20535 0.399712 0)
(-1.2147 0.631769 0)
(-1.2591 0.865641 0)
(-1.28223 0.998898 0)
(-1.36712 1.16791 0)
(-1.44895 0.362748 0)
(-0.108173 0.164871 0)
(-0.205216 0.31556 0)
(-0.513773 0.402738 0)
(-0.838186 0.554965 0)
(-0.967811 0.607378 0)
(-1.03378 0.564169 0)
(-1.10368 0.323198 0)
(-1.0902 0.00476314 0)
(-1.01166 -0.126579 0)
(-0.950369 -0.179466 0)
(-0.881927 -0.137722 0)
(-0.768361 0.157013 0)
(-0.846142 0.947183 0)
(-1.30827 0.971009 0)
(-1.4889 0.788678 0)
(-1.43028 0.268653 0)
(-1.46963 0.174764 0)
(-1.45851 0.291587 0)
(-1.4381 0.578153 0)
(-1.45371 0.772603 0)
(-1.40624 0.844287 0)
(-1.31417 0.617959 0)
(-1.30115 0.263654 0)
(-0.255599 0.404624 0)
(-0.849618 0.777579 0)
(-1.17808 0.653052 0)
(-1.21195 0.550701 0)
(-1.1788 0.505731 0)
(-1.14704 0.491858 0)
(-1.04027 0.477762 0)
(-0.759497 0.737293 0)
(-1.00253 0.689191 0)
(-1.01183 0.42899 0)
(-1.0563 0.423581 0)
(-1.11449 0.479806 0)
(-1.08778 0.893369 0)
(-1.2374 1.12378 0)
(-1.47186 0.916981 0)
(-1.44337 0.375113 0)
(-1.48518 0.26869 0)
(-1.5053 0.285879 0)
(-1.49388 0.522178 0)
(-1.45385 0.680222 0)
(-1.39619 0.705982 0)
(-1.32084 0.523062 0)
(-1.34728 0.0523004 0)
(-0.305064 1.67311 0)
(-0.844136 1.59808 0)
(-1.52214 0.803844 0)
(-1.37803 0.635487 0)
(-1.25437 0.62284 0)
(-1.15771 0.779033 0)
(-1.24643 0.765542 0)
(-1.27356 -0.350656 0)
(-1.12099 -0.498892 0)
(-1.03659 -0.441161 0)
(-1.06126 -0.233216 0)
(-0.910761 0.0746798 0)
(-0.835206 0.924849 0)
(-0.934483 1.27391 0)
(-1.2252 1.04257 0)
(-1.33018 0.501349 0)
(-1.36635 0.38 0)
(-1.3892 0.372217 0)
(-1.41132 0.537525 0)
(-1.34445 0.643644 0)
(-1.28496 0.650949 0)
(-1.25149 0.540793 0)
(-1.30696 0.219638 0)
(-0.144615 1.60286 0)
(0.00130136 1.92222 0)
(-0.423932 1.4075 0)
(-0.607695 0.725601 0)
(-0.730559 0.659382 0)
(-0.712434 0.60748 0)
(-0.672132 0.474687 0)
(-0.485741 0.224562 0)
(-0.746132 0.137413 0)
(-0.856144 0.0737299 0)
(-0.909833 0.0516584 0)
(-0.921229 0.125438 0)
(-0.695064 0.69135 0)
(-0.405017 1.3487 0)
(-0.511135 1.38837 0)
(-0.870408 0.764311 0)
(-1.01387 0.292624 0)
(-1.08275 0.250263 0)
(-1.14365 0.456052 0)
(-1.0741 0.634036 0)
(-1.03849 0.660235 0)
(-1.03664 0.579679 0)
(-1.03667 0.239552 0)
(-0.0552378 1.50394 0)
(0.198931 1.63493 0)
(0.308717 1.36521 0)
(0.285069 0.860943 0)
(0.198867 0.539829 0)
(0.167451 0.47223 0)
(0.121913 0.392472 0)
(0.0310034 0.115891 0)
(-0.190876 -0.0789011 0)
(-0.327478 -0.11692 0)
(-0.461286 -0.0192904 0)
(-0.55109 0.116071 0)
(-0.608646 0.420727 0)
(-0.252885 1.06061 0)
(0.0769906 1.38422 0)
(0.0283901 1.19205 0)
(-0.236773 0.742415 0)
(-0.478183 0.435905 0)
(-0.633539 0.414214 0)
(-0.649348 0.505497 0)
(-0.602569 0.536331 0)
(-0.553753 0.453417 0)
(-0.388096 0.165184 0)
(-0.0534787 1.51131 0)
(0.117172 1.41223 0)
(0.289888 1.22354 0)
(0.401503 0.824435 0)
(0.391555 0.54989 0)
(0.39369 0.490333 0)
(0.383493 0.463814 0)
(0.335873 0.389981 0)
(0.178271 0.323972 0)
(-0.0355568 0.235689 0)
(-0.230818 0.196181 0)
(-0.291203 0.224699 0)
(-0.352231 0.357791 0)
(-0.257448 0.609863 0)
(0.112574 1.06721 0)
(0.36542 1.11901 0)
(0.350557 0.918925 0)
(0.228353 0.667103 0)
(0.120311 0.545629 0)
(0.0482379 0.544867 0)
(0.139304 0.520141 0)
(0.321738 0.376554 0)
(0.371542 0.0202899 0)
(-0.072471 1.50656 0)
(0.0433374 1.26482 0)
(0.130263 1.02512 0)
(0.318716 0.75332 0)
(0.34519 0.536361 0)
(0.376821 0.475878 0)
(0.395068 0.475439 0)
(0.39837 0.437881 0)
(0.346928 0.420331 0)
(0.235651 0.370551 0)
(0.0515881 0.322883 0)
(-0.0335447 0.295294 0)
(-0.0786052 0.371199 0)
(-0.0634742 0.503121 0)
(0.0819133 0.677331 0)
(0.342025 0.889916 0)
(0.518584 0.805812 0)
(0.546176 0.678814 0)
(0.596943 0.594559 0)
(0.633038 0.534851 0)
(0.6662 0.391296 0)
(0.841337 0.203184 0)
(0.930947 -0.122258 0)
(-0.0638351 1.50152 0)
(0.060743 1.18776 0)
(0.0717398 0.907098 0)
(0.23646 0.662676 0)
(0.269362 0.500803 0)
(0.307345 0.443788 0)
(0.343556 0.427302 0)
(0.395825 0.447385 0)
(0.386688 0.457365 0)
(0.353695 0.463281 0)
(0.260374 0.448371 0)
(0.189711 0.362958 0)
(0.142141 0.391377 0)
(0.159212 0.459401 0)
(0.227476 0.573748 0)
(0.388793 0.663152 0)
(0.562467 0.701302 0)
(0.686884 0.597129 0)
(0.770691 0.518909 0)
(0.909978 0.425291 0)
(0.977278 0.31306 0)
(1.10577 0.0889036 0)
(1.15311 -0.199613 0)
(-0.0255367 1.48101 0)
(0.12297 1.14575 0)
(0.116074 0.832783 0)
(0.233365 0.597307 0)
(0.258468 0.466791 0)
(0.287547 0.41922 0)
(0.311093 0.386215 0)
(0.345284 0.408772 0)
(0.384031 0.465432 0)
(0.378699 0.492849 0)
(0.353339 0.494393 0)
(0.336008 0.42639 0)
(0.300085 0.41012 0)
(0.316529 0.432 0)
(0.358255 0.490874 0)
(0.475419 0.533225 0)
(0.58699 0.570346 0)
(0.744406 0.498911 0)
(0.808075 0.380088 0)
(0.923673 0.265651 0)
(1.04692 0.165472 0)
(1.13974 0.0176223 0)
(1.15397 -0.210924 0)
(0.0331455 1.40039 0)
(0.188767 1.09619 0)
(0.196267 0.775018 0)
(0.273209 0.554025 0)
(0.281668 0.438239 0)
(0.295437 0.402961 0)
(0.303662 0.376337 0)
(0.305712 0.382462 0)
(0.341821 0.437762 0)
(0.373289 0.490683 0)
(0.379937 0.491684 0)
(0.391554 0.442761 0)
(0.384043 0.409713 0)
(0.397599 0.411739 0)
(0.426631 0.429148 0)
(0.496776 0.439598 0)
)
;

boundaryField
{
    leftWall
    {
        type            calculated;
        value           uniform (0 0 0);
    }
    rightWall
    {
        type            calculated;
        value           nonuniform 0();
    }
    lowerWall
    {
        type            calculated;
        value           uniform (0 0 0);
    }
    atmosphere
    {
        type            calculated;
        value           nonuniform 0();
    }
    defaultFaces
    {
        type            empty;
    }
    procBoundary0to1
    {
        type            processor;
        value           nonuniform List<vector> 
26
(
(-0.0211047 -0.00583267 0)
(-0.000768036 -0.0194084 0)
(0.00241145 -0.00342659 0)
(0.00217301 -0.0237871 0)
(-0.00374356 -0.0051212 0)
(-0.0576033 -0.0243424 0)
(-0.150629 0.316852 0)
(-0.282639 -0.431498 0)
(-0.420394 -0.201452 0)
(-0.451766 0.1408 0)
(-0.904934 0.0331033 0)
(-1.16886 0.0339794 0)
(-1.53815 -0.148597 0)
(-1.58548 -0.161706 0)
(-1.65464 1.42341 0)
(-1.2899 -0.388491 0)
(-1.2899 -0.388491 0)
(-1.5119 -0.0230817 0)
(-1.4537 -0.162338 0)
(-1.35296 -0.0624321 0)
(-0.956347 -0.110292 0)
(-0.243266 -0.197415 0)
(0.593785 -0.29511 0)
(1.01193 -0.380425 0)
(1.15395 -0.393499 0)
(1.12933 -0.349687 0)
)
;
    }
    procBoundary0to2
    {
        type            processor;
        value           nonuniform List<vector> 
24
(
(0.565632 0.430738 0)
(0.70655 0.395663 0)
(0.762717 0.276747 0)
(0.816439 0.136019 0)
(0.944387 0.0487997 0)
(1.0032 -0.0393551 0)
(0.97501 -0.193325 0)
(0.093269 1.22596 0)
(0.223923 1.01874 0)
(0.263761 0.726828 0)
(0.306968 0.525717 0)
(0.299043 0.431316 0)
(0.297312 0.400789 0)
(0.296541 0.378911 0)
(0.289694 0.379015 0)
(0.295235 0.402712 0)
(0.335134 0.456353 0)
(0.378962 0.473379 0)
(0.399861 0.43284 0)
(0.40618 0.396758 0)
(0.419896 0.391792 0)
(0.442093 0.389831 0)
(0.565632 0.430738 0)
(0.486628 0.378771 0)
)
;
    }
}


// ************************************************************************* //
