/*--------------------------------*- C++ -*----------------------------------*\
| =========                 |                                                 |
| \\      /  F ield         | OpenFOAM: The Open Source CFD Toolbox           |
|  \\    /   O peration     | Version:  2.4.0                                 |
|   \\  /    A nd           | Web:      www.OpenFOAM.org                      |
|    \\/     M anipulation  |                                                 |
\*---------------------------------------------------------------------------*/
FoamFile
{
    version     2.0;
    format      ascii;
    class       volVectorField;
    location    "0.95";
    object      U.air;
}
// * * * * * * * * * * * * * * * * * * * * * * * * * * * * * * * * * * * * * //

dimensions      [0 1 -1 0 0 0 0];

internalField   nonuniform List<vector> 
575
(
(-0.0664916 -0.0337374 0)
(-0.173147 -0.0311522 0)
(-0.243672 -0.0168729 0)
(-0.277705 -0.00599283 0)
(-0.282434 0.0033288 0)
(-0.274542 0.00715997 0)
(-0.256449 0.00536113 0)
(-0.232717 0.00369461 0)
(-0.211647 0.00295769 0)
(-0.198443 0.000971872 0)
(-0.189954 -0.002893 0)
(-0.177243 -0.00588383 0)
(-0.158395 -0.00437841 0)
(-0.143469 -0.00365991 0)
(-0.132595 -0.00254885 0)
(-0.126853 -0.00204782 0)
(-0.119389 -0.00376208 0)
(-0.107123 -0.00481789 0)
(-0.0853035 -0.00548838 0)
(-0.054105 -0.00653879 0)
(-0.0328663 -0.000155876 0)
(-0.0274894 0.00337172 0)
(-0.065876 0.131351 0)
(-0.171823 0.100386 0)
(-0.23573 0.0608858 0)
(-0.276358 0.0226383 0)
(-0.282895 -0.00720339 0)
(-0.279619 -0.0205853 0)
(-0.261368 -0.0249574 0)
(-0.235036 -0.02436 0)
(-0.212698 -0.0182418 0)
(-0.198058 -0.0102237 0)
(-0.184773 -0.00776036 0)
(-0.169858 -0.0109844 0)
(-0.155807 -0.0139869 0)
(-0.143511 -0.0107214 0)
(-0.134493 -0.0068866 0)
(-0.127024 -0.00538004 0)
(-0.115697 -0.00582156 0)
(-0.102017 -0.0109434 0)
(-0.0790595 -0.0187594 0)
(-0.0503204 -0.0194701 0)
(-0.0259204 -0.0125739 0)
(-0.00392649 -0.00923052 0)
(-0.0834715 0.130224 0)
(-0.203887 0.0804638 0)
(-0.254019 0.0466832 0)
(-0.279846 0.0204963 0)
(-0.284803 0.00617174 0)
(-0.281161 -0.00208441 0)
(-0.262627 -0.0180803 0)
(-0.234905 -0.021832 0)
(-0.21146 -0.0155158 0)
(-0.193302 -0.0117665 0)
(-0.178909 -0.0122144 0)
(-0.167178 -0.0124058 0)
(-0.158385 -0.00918693 0)
(-0.147923 -0.00597195 0)
(-0.135451 -0.00379961 0)
(-0.124714 -0.00626934 0)
(-0.108754 -0.0125072 0)
(-0.0945869 -0.0221152 0)
(-0.0767571 -0.03129 0)
(-0.0563284 -0.0326929 0)
(-0.0347258 -0.0217787 0)
(-0.00124615 -0.00348456 0)
(-0.108681 0.220718 0)
(-0.264366 0.146389 0)
(-0.319523 0.0818713 0)
(-0.336678 0.030075 0)
(-0.328765 -0.00758526 0)
(-0.297224 -0.0331744 0)
(-0.268508 -0.0454459 0)
(-0.245591 -0.046903 0)
(-0.219404 -0.0381324 0)
(-0.19428 -0.0289774 0)
(-0.178473 -0.0281887 0)
(-0.168521 -0.0328248 0)
(-0.162234 -0.036947 0)
(-0.153345 -0.0345432 0)
(-0.138583 -0.0289312 0)
(-0.121848 -0.028004 0)
(-0.103572 -0.0286541 0)
(-0.0908093 -0.0313224 0)
(-0.0778398 -0.0391011 0)
(-0.0645765 -0.0416372 0)
(-0.0394916 -0.0418338 0)
(-0.00486881 -0.0317573 0)
(-0.189847 0.329242 0)
(-0.366141 0.193414 0)
(-0.400864 0.0888364 0)
(-0.397177 0.0239406 0)
(-0.374342 -0.0098571 0)
(-0.338673 -0.0274165 0)
(-0.308308 -0.0369444 0)
(-0.282919 -0.0367046 0)
(-0.256672 -0.0283349 0)
(-0.226912 -0.0181947 0)
(-0.203179 -0.0102031 0)
(-0.18896 -0.00109816 0)
(-0.17816 0.00513521 0)
(-0.165459 0.00485347 0)
(-0.1427 0.000845733 0)
(-0.119614 -0.00459014 0)
(-0.100457 -0.0088317 0)
(-0.0886586 -0.017997 0)
(-0.0767764 -0.0297429 0)
(-0.0610743 -0.0349625 0)
(-0.0429799 -0.0128631 0)
(-0.0191086 0.0369571 0)
(-0.371435 0.404812 0)
(-0.514245 0.220127 0)
(-0.522663 0.103894 0)
(-0.487233 0.0301212 0)
(-0.431677 -0.0309422 0)
(-0.37536 -0.0729107 0)
(-0.330145 -0.095727 0)
(-0.299605 -0.113239 0)
(-0.274537 -0.119556 0)
(-0.23759 -0.113205 0)
(-0.195147 -0.102752 0)
(-0.179775 -0.0997086 0)
(-0.180067 -0.0992241 0)
(-0.187502 -0.0959678 0)
(-0.185912 -0.0903651 0)
(-0.16986 -0.0832006 0)
(-0.142139 -0.0749129 0)
(-0.106388 -0.0758438 0)
(-0.0777377 -0.0911745 0)
(-0.0455312 -0.106123 0)
(-0.0200942 -0.0893207 0)
(-0.0343015 -0.0580761 0)
(-0.396003 0.461262 0)
(-0.519744 0.197572 0)
(-0.556239 0.0480901 0)
(-0.535881 -0.0356396 0)
(-0.471288 -0.112185 0)
(-0.394276 -0.162877 0)
(-0.35689 -0.180271 0)
(-0.35112 -0.171044 0)
(-0.329941 -0.135059 0)
(-0.246239 -0.0878092 0)
(-0.136011 -0.0526909 0)
(-0.0616642 -0.0347476 0)
(-0.0544458 -0.0383305 0)
(-0.0796662 -0.0606288 0)
(-0.133545 -0.0952772 0)
(-0.158717 -0.131405 0)
(-0.164168 -0.146948 0)
(-0.127606 -0.156213 0)
(-0.093867 -0.165939 0)
(-0.0941385 -0.16284 0)
(-0.183997 -0.125905 0)
(-0.230007 -0.0163557 0)
(-0.21532 0.622812 0)
(-0.395305 0.233867 0)
(-0.463883 0.0324824 0)
(-0.425715 -0.118626 0)
(-0.382322 -0.203371 0)
(-0.400271 -0.174643 0)
(-0.411945 -0.127573 0)
(-0.374427 -0.142406 0)
(-0.296683 -0.200283 0)
(-0.188579 -0.245557 0)
(-0.103843 -0.232587 0)
(-0.0280989 -0.187077 0)
(0.0470653 -0.139694 0)
(0.0757539 -0.0957515 0)
(0.0714609 -0.0550888 0)
(0.0205256 -0.0338436 0)
(-0.026849 -0.0371688 0)
(-0.076569 -0.0430067 0)
(-0.145283 -0.0399741 0)
(-0.231806 -0.0276826 0)
(-0.370896 -0.0357309 0)
(-0.340265 0.0105806 0)
(0.0664411 0.699443 0)
(0.0469457 0.378588 0)
(0.00321977 0.15292 0)
(-0.005407 -0.0195023 0)
(-0.0571309 -0.139461 0)
(-0.0778291 -0.205375 0)
(-0.0671552 -0.232049 0)
(-0.0117344 -0.238057 0)
(0.0524338 -0.218447 0)
(0.104819 -0.170117 0)
(0.132411 -0.0852404 0)
(0.153185 -0.0046725 0)
(0.155028 0.0675212 0)
(0.106498 0.105669 0)
(0.0631013 0.0790206 0)
(0.0176655 -0.00166502 0)
(-0.0305106 -0.068635 0)
(-0.0787229 -0.0843362 0)
(-0.0900877 -0.0663579 0)
(-0.0365721 -0.00576195 0)
(-0.137561 0.0738474 0)
(-0.109672 0.364647 0)
(0.128632 0.572147 0)
(0.250599 0.414072 0)
(0.294555 0.20698 0)
(0.290176 0.0614005 0)
(0.267025 -0.024158 0)
(0.233293 -0.0664927 0)
(0.215635 -0.106301 0)
(0.217338 -0.152252 0)
(0.225639 -0.185885 0)
(0.241655 -0.191651 0)
(0.267243 -0.17128 0)
(0.295041 -0.100294 0)
(0.310634 -0.0610905 0)
(0.31298 -0.00450173 0)
(0.297458 0.0496577 0)
(0.24781 0.114633 0)
(0.153804 0.139889 0)
(0.0497463 0.108596 0)
(-0.009043 0.0109292 0)
(-0.0620622 0.0123046 0)
(-0.322707 0.160232 0)
(-0.423034 0.237501 0)
(0.101791 0.352563 0)
(0.219547 0.292386 0)
(0.299968 0.195842 0)
(0.303123 0.0883849 0)
(0.287679 -0.00171906 0)
(0.257863 -0.0708462 0)
(0.2457 -0.13631 0)
(0.248618 -0.187301 0)
(0.260965 -0.212946 0)
(0.291594 -0.187551 0)
(0.339162 0.0684983 0)
(0.365335 0.235069 0)
(0.349288 0.30801 0)
(0.302225 0.245164 0)
(0.216767 0.153751 0)
(0.156778 0.135967 0)
(0.116754 0.19322 0)
(0.0668374 0.0672525 0)
(-0.0148372 -0.0334265 0)
(-0.386101 0.141941 0)
(-0.784639 0.603368 0)
(-0.956611 0.860487 0)
(0.085039 0.188156 0)
(0.183825 0.221588 0)
(0.234352 0.169814 0)
(0.240655 0.10709 0)
(0.228363 0.0430034 0)
(0.209432 -0.0319284 0)
(0.200148 -0.114944 0)
(0.194695 -0.177624 0)
(0.240283 -0.241799 0)
(0.398876 -0.234556 0)
(0.49831 0.0845681 0)
(0.416603 0.317986 0)
(0.245488 0.520598 0)
(0.116642 0.524148 0)
(0.0244118 0.368919 0)
(-0.0373037 0.241272 0)
(-0.226649 0.44143 0)
(-0.393927 0.428788 0)
(-0.833424 0.494155 0)
(-1.28449 0.767719 0)
(-1.5059 0.961019 0)
(-1.41893 0.827204 0)
(0.0518833 0.0856195 0)
(0.0930557 0.176553 0)
(0.104407 0.16412 0)
(0.0907285 0.100539 0)
(0.0901309 0.0301195 0)
(0.0560162 -0.0351331 0)
(0.0422802 -0.126829 0)
(0.00213122 -0.199065 0)
(0.0127875 -0.104281 0)
(-0.0506298 0.0949362 0)
(-0.136244 0.0868728 0)
(-0.281342 0.171642 0)
(-0.405098 0.413446 0)
(-0.574138 0.649413 0)
(-0.817153 0.792447 0)
(-0.888568 0.710625 0)
(-1.14587 0.876804 0)
(-1.40849 0.957447 0)
(-1.48328 0.934113 0)
(-1.54375 1.01951 0)
(-1.56842 1.06993 0)
(-1.54946 0.932468 0)
(-0.0123443 0.0464454 0)
(-0.0217741 0.194709 0)
(-0.0667894 0.165164 0)
(-0.0907663 0.11353 0)
(-0.0825177 0.0863238 0)
(-0.106232 0.021043 0)
(-0.210715 -0.0724776 0)
(-0.511154 0.069303 0)
(-0.525488 0.417675 0)
(-0.611562 0.362294 0)
(-0.593035 0.195862 0)
(-0.658815 0.148097 0)
(-0.849103 0.147086 0)
(-1.20511 0.238665 0)
(-1.45249 0.678573 0)
(-1.55964 0.83843 0)
(-1.54664 0.977774 0)
(-1.44027 1.14236 0)
(-1.32648 1.18633 0)
(-1.20339 1.20786 0)
(-1.24136 1.08959 0)
(-1.43992 0.685081 0)
(-0.0631051 0.30119 0)
(-0.101838 0.354817 0)
(-0.11585 0.244702 0)
(-0.161658 0.183691 0)
(-0.228969 0.0735759 0)
(-0.405801 0.138088 0)
(-0.70285 0.444922 0)
(-0.791758 0.431946 0)
(-0.683271 0.381675 0)
(-0.626236 0.319357 0)
(-0.626191 0.296331 0)
(-0.667581 0.271848 0)
(-0.838697 0.368613 0)
(-0.961101 0.937877 0)
(-1.81682 1.17051 0)
(-1.82058 0.697972 0)
(-1.57059 0.541737 0)
(-1.31706 0.738291 0)
(-1.24001 0.854408 0)
(-1.14178 0.860899 0)
(-1.02675 0.892393 0)
(-1.18302 1.41949 0)
(-0.104532 0.625315 0)
(-0.185164 0.660912 0)
(-0.217317 0.315339 0)
(-0.29748 0.323346 0)
(-0.548766 0.403471 0)
(-0.816002 0.71602 0)
(-0.937697 0.826399 0)
(-0.937139 0.683336 0)
(-0.856973 0.545697 0)
(-0.704522 0.390748 0)
(-0.621349 0.285474 0)
(-0.614868 0.172711 0)
(-0.495448 0.644202 0)
(-0.875335 0.79835 0)
(-1.42457 0.856338 0)
(-1.25885 0.572942 0)
(-1.20177 0.402336 0)
(-1.20659 0.650196 0)
(-1.25986 0.912312 0)
(-1.29002 1.04079 0)
(-1.36968 1.17591 0)
(-1.44901 0.36283 0)
(-0.116984 0.660557 0)
(-0.402231 0.836395 0)
(-0.686839 0.87663 0)
(-0.753236 0.873541 0)
(-0.873922 0.905766 0)
(-0.87819 1.03425 0)
(-0.948544 0.860013 0)
(-1.01593 0.377761 0)
(-0.998562 0.186153 0)
(-0.936803 0.107507 0)
(-0.826022 0.0236756 0)
(-0.742497 0.213208 0)
(-0.84403 0.950602 0)
(-1.30827 0.971008 0)
(-1.4889 0.788678 0)
(-1.43028 0.268653 0)
(-1.46963 0.174764 0)
(-1.45845 0.291608 0)
(-1.43812 0.578356 0)
(-1.45383 0.772878 0)
(-1.40625 0.844319 0)
(-1.31416 0.617958 0)
(-1.30115 0.263654 0)
(-0.258284 0.565127 0)
(-0.879137 0.964084 0)
(-1.24488 1.09095 0)
(-1.23456 1.03165 0)
(-1.13762 0.952905 0)
(-1.0649 0.804411 0)
(-0.993618 0.635043 0)
(-0.743003 0.788082 0)
(-1.00285 0.714953 0)
(-1.01287 0.460542 0)
(-1.05616 0.438918 0)
(-1.11371 0.481629 0)
(-1.08773 0.893432 0)
(-1.2374 1.12378 0)
(-1.47186 0.91698 0)
(-1.44337 0.375113 0)
(-1.48518 0.26869 0)
(-1.5053 0.285879 0)
(-1.49388 0.522177 0)
(-1.45385 0.680222 0)
(-1.39618 0.705982 0)
(-1.32084 0.523061 0)
(-1.34727 0.0523004 0)
(-0.299615 1.68733 0)
(-0.814659 1.62963 0)
(-1.48927 0.87884 0)
(-1.38278 0.752978 0)
(-1.25825 0.749319 0)
(-1.15424 0.834499 0)
(-1.24594 0.770545 0)
(-1.27356 -0.350647 0)
(-1.12099 -0.498891 0)
(-1.0366 -0.441163 0)
(-1.06126 -0.233209 0)
(-0.910723 0.0747153 0)
(-0.835195 0.924868 0)
(-0.934482 1.27391 0)
(-1.2252 1.04256 0)
(-1.33017 0.501349 0)
(-1.36635 0.379999 0)
(-1.3892 0.372217 0)
(-1.41132 0.537525 0)
(-1.34445 0.643643 0)
(-1.28496 0.650949 0)
(-1.25149 0.540792 0)
(-1.30696 0.219638 0)
(-0.144538 1.60292 0)
(0.00318752 1.92334 0)
(-0.414508 1.41374 0)
(-0.597942 0.730478 0)
(-0.725035 0.66375 0)
(-0.711806 0.608275 0)
(-0.672132 0.474694 0)
(-0.485741 0.224562 0)
(-0.746132 0.137413 0)
(-0.856144 0.0737306 0)
(-0.909843 0.0516717 0)
(-0.921233 0.125523 0)
(-0.694944 0.69162 0)
(-0.404858 1.34902 0)
(-0.511135 1.38836 0)
(-0.870407 0.76431 0)
(-1.01387 0.292624 0)
(-1.08275 0.250263 0)
(-1.14365 0.456052 0)
(-1.0741 0.634035 0)
(-1.03849 0.660234 0)
(-1.03664 0.579678 0)
(-1.03667 0.239552 0)
(-0.0552378 1.50394 0)
(0.198936 1.63494 0)
(0.308768 1.36523 0)
(0.28513 0.860963 0)
(0.1989 0.539837 0)
(0.167453 0.472231 0)
(0.121913 0.392472 0)
(0.0310034 0.115892 0)
(-0.190876 -0.0789012 0)
(-0.327478 -0.11692 0)
(-0.461286 -0.0192903 0)
(-0.551064 0.11609 0)
(-0.608562 0.420883 0)
(-0.252772 1.0608 0)
(0.0769958 1.38422 0)
(0.0283901 1.19205 0)
(-0.236772 0.742414 0)
(-0.478182 0.435905 0)
(-0.633539 0.414214 0)
(-0.649348 0.505497 0)
(-0.602569 0.536331 0)
(-0.553753 0.453416 0)
(-0.388095 0.165184 0)
(-0.0534787 1.51131 0)
(0.117172 1.41223 0)
(0.289888 1.22354 0)
(0.401503 0.824435 0)
(0.391555 0.549891 0)
(0.393691 0.490333 0)
(0.383493 0.463814 0)
(0.335873 0.389981 0)
(0.178271 0.323973 0)
(-0.0355568 0.235689 0)
(-0.230818 0.196181 0)
(-0.291203 0.224699 0)
(-0.352223 0.3578 0)
(-0.257438 0.609881 0)
(0.112612 1.06725 0)
(0.365454 1.11904 0)
(0.350557 0.918925 0)
(0.228353 0.667103 0)
(0.120311 0.545628 0)
(0.0482379 0.544866 0)
(0.139304 0.52014 0)
(0.321738 0.376553 0)
(0.371541 0.0202899 0)
(-0.072471 1.50656 0)
(0.0433374 1.26483 0)
(0.130263 1.02512 0)
(0.318716 0.753321 0)
(0.34519 0.536361 0)
(0.376821 0.475878 0)
(0.395069 0.475439 0)
(0.39837 0.437881 0)
(0.346928 0.420332 0)
(0.235652 0.370551 0)
(0.0515881 0.322883 0)
(-0.0335447 0.295294 0)
(-0.0786052 0.371199 0)
(-0.0634738 0.503122 0)
(0.0819373 0.677349 0)
(0.342034 0.889923 0)
(0.518605 0.805825 0)
(0.546194 0.678825 0)
(0.596945 0.59456 0)
(0.633037 0.53485 0)
(0.6662 0.391296 0)
(0.841336 0.203184 0)
(0.930946 -0.122258 0)
(-0.0638351 1.50152 0)
(0.060743 1.18776 0)
(0.0717399 0.907099 0)
(0.23646 0.662677 0)
(0.269363 0.500804 0)
(0.307346 0.443788 0)
(0.343556 0.427302 0)
(0.395825 0.447385 0)
(0.386688 0.457365 0)
(0.353696 0.463281 0)
(0.260374 0.448371 0)
(0.189711 0.362958 0)
(0.142141 0.391377 0)
(0.159212 0.459401 0)
(0.227477 0.573748 0)
(0.388793 0.663152 0)
(0.562484 0.701311 0)
(0.686924 0.597144 0)
(0.770721 0.51892 0)
(0.909985 0.425292 0)
(0.977278 0.31306 0)
(1.10577 0.0889031 0)
(1.15311 -0.199617 0)
(-0.0255367 1.48101 0)
(0.12297 1.14575 0)
(0.116074 0.832784 0)
(0.233366 0.597307 0)
(0.258469 0.466791 0)
(0.287548 0.419221 0)
(0.311093 0.386215 0)
(0.345284 0.408772 0)
(0.384031 0.465432 0)
(0.378699 0.492849 0)
(0.353339 0.494393 0)
(0.336008 0.426391 0)
(0.300085 0.41012 0)
(0.31653 0.432001 0)
(0.358255 0.490875 0)
(0.475419 0.533225 0)
(0.586991 0.570347 0)
(0.74442 0.498915 0)
(0.808086 0.380089 0)
(0.923675 0.265651 0)
(1.04692 0.165471 0)
(1.13974 0.0176192 0)
(1.15397 -0.210928 0)
(0.0331455 1.40039 0)
(0.188767 1.09619 0)
(0.196267 0.775019 0)
(0.273209 0.554025 0)
(0.281668 0.43824 0)
(0.295438 0.402962 0)
(0.303662 0.376337 0)
(0.305712 0.382462 0)
(0.341821 0.437762 0)
(0.373289 0.490683 0)
(0.379937 0.491684 0)
(0.391554 0.442762 0)
(0.384043 0.409713 0)
(0.397599 0.411739 0)
(0.426632 0.429149 0)
(0.496776 0.439598 0)
)
;

boundaryField
{
    leftWall
    {
        type            fixedValue;
        value           uniform (0 0 0);
    }
    rightWall
    {
        type            fixedValue;
        value           nonuniform 0();
    }
    lowerWall
    {
        type            fixedValue;
        value           uniform (0 0 0);
    }
    atmosphere
    {
        type            fluxCorrectedVelocity;
        value           nonuniform 0();
    }
    defaultFaces
    {
        type            empty;
    }
    procBoundary0to1
    {
        type            processor;
        value           nonuniform List<vector> 
26
(
(-0.0211045 -0.00583251 0)
(-0.000767904 -0.0194078 0)
(0.0024116 -0.00340143 0)
(0.00217141 -0.0199063 0)
(-0.00347335 0.0220295 0)
(-0.0589189 -0.0111022 0)
(-0.156867 -0.080714 0)
(-0.275209 -0.0665133 0)
(-0.493515 0.247451 0)
(-0.190984 0.28714 0)
(-0.878179 0.502852 0)
(-1.17059 0.3805 0)
(-1.52108 0.637755 0)
(-1.57501 0.352946 0)
(-1.65237 1.45121 0)
(-1.28989 -0.388488 0)
(-1.28989 -0.388488 0)
(-1.5119 -0.0230817 0)
(-1.4537 -0.162338 0)
(-1.35296 -0.062432 0)
(-0.956346 -0.110291 0)
(-0.243265 -0.197415 0)
(0.593785 -0.29511 0)
(1.01193 -0.380426 0)
(1.15395 -0.393505 0)
(1.12934 -0.34969 0)
)
;
    }
    procBoundary0to2
    {
        type            processor;
        value           nonuniform List<vector> 
24
(
(0.565632 0.430738 0)
(0.70655 0.395663 0)
(0.762717 0.276747 0)
(0.816439 0.136019 0)
(0.944387 0.0487996 0)
(1.0032 -0.0393551 0)
(0.97501 -0.193325 0)
(0.0932691 1.22596 0)
(0.223924 1.01874 0)
(0.263762 0.726829 0)
(0.306968 0.525718 0)
(0.299044 0.431316 0)
(0.297312 0.400789 0)
(0.296541 0.378912 0)
(0.289694 0.379015 0)
(0.295235 0.402712 0)
(0.335134 0.456353 0)
(0.378962 0.473379 0)
(0.399861 0.43284 0)
(0.40618 0.396758 0)
(0.419896 0.391792 0)
(0.442093 0.389831 0)
(0.565632 0.430738 0)
(0.486628 0.378771 0)
)
;
    }
}


// ************************************************************************* //
