/*--------------------------------*- C++ -*----------------------------------*\
| =========                 |                                                 |
| \\      /  F ield         | OpenFOAM: The Open Source CFD Toolbox           |
|  \\    /   O peration     | Version:  2.4.0                                 |
|   \\  /    A nd           | Web:      www.OpenFOAM.org                      |
|    \\/     M anipulation  |                                                 |
\*---------------------------------------------------------------------------*/
FoamFile
{
    version     2.0;
    format      ascii;
    class       volVectorField;
    location    "0.95";
    object      U.mercury;
}
// * * * * * * * * * * * * * * * * * * * * * * * * * * * * * * * * * * * * * //

dimensions      [0 1 -1 0 0 0 0];

internalField   nonuniform List<vector> 
575
(
(-0.0664916 -0.0337351 0)
(-0.173147 -0.0311506 0)
(-0.24367 -0.0168719 0)
(-0.277701 -0.00599204 0)
(-0.282429 0.00332941 0)
(-0.274537 0.00716042 0)
(-0.256445 0.00536142 0)
(-0.232714 0.00369474 0)
(-0.211644 0.00295769 0)
(-0.198441 0.000971784 0)
(-0.189953 -0.00289315 0)
(-0.177243 -0.00588402 0)
(-0.158395 -0.0043786 0)
(-0.14347 -0.00366008 0)
(-0.132596 -0.00254902 0)
(-0.126854 -0.00204797 0)
(-0.11939 -0.00376222 0)
(-0.107124 -0.00481802 0)
(-0.0853042 -0.00548853 0)
(-0.0541056 -0.00653895 0)
(-0.0328668 -0.000156072 0)
(-0.0274897 0.00337149 0)
(-0.0658763 0.131358 0)
(-0.171823 0.100391 0)
(-0.235729 0.0608896 0)
(-0.276355 0.0226413 0)
(-0.282891 -0.00720101 0)
(-0.279614 -0.0205836 0)
(-0.261364 -0.0249564 0)
(-0.235033 -0.0243597 0)
(-0.212696 -0.018242 0)
(-0.198056 -0.0102242 0)
(-0.184772 -0.00776099 0)
(-0.169858 -0.0109851 0)
(-0.155807 -0.0139876 0)
(-0.143511 -0.0107221 0)
(-0.134494 -0.00688723 0)
(-0.127025 -0.0053806 0)
(-0.115698 -0.00582207 0)
(-0.102018 -0.0109439 0)
(-0.0790602 -0.0187599 0)
(-0.050321 -0.0194706 0)
(-0.0259209 -0.0125745 0)
(-0.00392683 -0.00923122 0)
(-0.0834851 0.130091 0)
(-0.20389 0.0804618 0)
(-0.254019 0.0466886 0)
(-0.279843 0.020501 0)
(-0.2848 0.00617545 0)
(-0.281157 -0.00208182 0)
(-0.262623 -0.018079 0)
(-0.234902 -0.0218317 0)
(-0.211458 -0.0155163 0)
(-0.193301 -0.0117674 0)
(-0.178908 -0.0122156 0)
(-0.167178 -0.0124071 0)
(-0.158385 -0.00918821 0)
(-0.147923 -0.00597316 0)
(-0.135452 -0.00380073 0)
(-0.124714 -0.0062704 0)
(-0.108755 -0.0125082 0)
(-0.0945876 -0.0221161 0)
(-0.0767579 -0.0312909 0)
(-0.0563291 -0.0326955 0)
(-0.0347263 -0.0218046 0)
(-0.00124654 -0.00355019 0)
(-0.109087 0.213681 0)
(-0.264635 0.144191 0)
(-0.319565 0.0816296 0)
(-0.336679 0.0300683 0)
(-0.328762 -0.00758238 0)
(-0.297221 -0.0331718 0)
(-0.268505 -0.0454449 0)
(-0.245588 -0.0469034 0)
(-0.219403 -0.0381342 0)
(-0.194279 -0.0289805 0)
(-0.178473 -0.0281929 0)
(-0.168521 -0.0328278 0)
(-0.162234 -0.0369488 0)
(-0.153345 -0.034545 0)
(-0.138583 -0.0289386 0)
(-0.121849 -0.0280337 0)
(-0.103573 -0.0286885 0)
(-0.09081 -0.0313266 0)
(-0.0778405 -0.0391075 0)
(-0.0645772 -0.0418162 0)
(-0.0394924 -0.043912 0)
(-0.00486754 -0.0366575 0)
(-0.19039 0.296596 0)
(-0.366437 0.184097 0)
(-0.40119 0.0863604 0)
(-0.397256 0.0233954 0)
(-0.374345 -0.0098929 0)
(-0.338673 -0.0274404 0)
(-0.308333 -0.0372509 0)
(-0.283005 -0.037982 0)
(-0.256761 -0.0303556 0)
(-0.226962 -0.0204205 0)
(-0.20318 -0.0121165 0)
(-0.188939 -0.00237868 0)
(-0.178145 0.00432703 0)
(-0.16545 0.00430468 0)
(-0.142694 0.000354965 0)
(-0.119609 -0.00548711 0)
(-0.100455 -0.00984997 0)
(-0.0886585 -0.0184418 0)
(-0.0767831 -0.0306117 0)
(-0.0610945 -0.0381851 0)
(-0.0427525 -0.0368535 0)
(-0.0191474 -0.00498474 0)
(-0.371749 0.318912 0)
(-0.512874 0.195081 0)
(-0.522829 0.0976951 0)
(-0.487453 0.0279413 0)
(-0.431986 -0.0333733 0)
(-0.37623 -0.07993 0)
(-0.3315 -0.108585 0)
(-0.301073 -0.133317 0)
(-0.275372 -0.148018 0)
(-0.238265 -0.146595 0)
(-0.196412 -0.135177 0)
(-0.180947 -0.125345 0)
(-0.180514 -0.119547 0)
(-0.187372 -0.113197 0)
(-0.185573 -0.106246 0)
(-0.169554 -0.0989932 0)
(-0.141868 -0.090292 0)
(-0.106169 -0.0909284 0)
(-0.0776904 -0.108758 0)
(-0.0455945 -0.131011 0)
(-0.0183093 -0.141667 0)
(-0.0271731 -0.13181 0)
(-0.429399 0.259185 0)
(-0.521925 0.143551 0)
(-0.556776 0.0292885 0)
(-0.53675 -0.0493572 0)
(-0.473636 -0.142122 0)
(-0.397643 -0.220054 0)
(-0.35913 -0.271853 0)
(-0.35604 -0.323413 0)
(-0.351229 -0.399597 0)
(-0.282047 -0.473431 0)
(-0.15275 -0.460305 0)
(-0.0656227 -0.367861 0)
(-0.0670887 -0.285727 0)
(-0.0905461 -0.254599 0)
(-0.143259 -0.244673 0)
(-0.16337 -0.259318 0)
(-0.164652 -0.267704 0)
(-0.122569 -0.277667 0)
(-0.0836036 -0.296854 0)
(-0.0761229 -0.322848 0)
(-0.161771 -0.350955 0)
(-0.246361 -0.392394 0)
(-0.386262 0.227839 0)
(-0.430354 0.104499 0)
(-0.471596 -0.0437611 0)
(-0.417465 -0.204975 0)
(-0.34433 -0.372146 0)
(-0.323552 -0.480243 0)
(-0.288628 -0.542669 0)
(-0.156184 -0.65096 0)
(-0.0527734 -0.708247 0)
(-0.0299735 -0.700616 0)
(0.0154371 -0.598394 0)
(-0.0370645 -0.455843 0)
(0.0319342 -0.243332 0)
(0.0713025 -0.169935 0)
(0.0660891 -0.123731 0)
(0.0201913 -0.11552 0)
(-0.0266366 -0.152912 0)
(-0.0688326 -0.197482 0)
(-0.126549 -0.216456 0)
(-0.180438 -0.213004 0)
(-0.274704 -0.346054 0)
(-0.182224 -1.00756 0)
(-0.210387 0.161615 0)
(-0.182724 0.0699586 0)
(-0.144128 -0.0528991 0)
(-0.0210649 -0.207184 0)
(0.0420994 -0.339648 0)
(0.0710989 -0.437701 0)
(0.0886043 -0.519372 0)
(0.120356 -0.584015 0)
(0.149094 -0.602739 0)
(0.177628 -0.57068 0)
(0.212693 -0.381771 0)
(0.16203 -0.15219 0)
(0.147411 -0.00406888 0)
(0.103623 0.055268 0)
(0.0623728 0.0337144 0)
(0.0182689 -0.040221 0)
(-0.0286489 -0.102082 0)
(-0.0748563 -0.118189 0)
(-0.0818104 -0.106591 0)
(-0.0257594 -0.0788808 0)
(-0.0465144 -0.0129352 0)
(-0.0891093 -0.457988 0)
(-0.0531925 0.238646 0)
(-0.0414699 0.0373687 0)
(0.00569293 -0.1066 0)
(0.0853776 -0.221831 0)
(0.124986 -0.309545 0)
(0.144519 -0.374195 0)
(0.15985 -0.419575 0)
(0.177402 -0.462322 0)
(0.1946 -0.465304 0)
(0.214594 -0.361275 0)
(0.244541 -0.263919 0)
(0.287973 -0.187446 0)
(0.305784 -0.108 0)
(0.311264 -0.0362304 0)
(0.299164 0.0265288 0)
(0.252046 0.0966499 0)
(0.160187 0.127874 0)
(0.0570215 0.0975014 0)
(-0.00240578 -0.0186847 0)
(-0.0387775 -0.0676452 0)
(-0.113825 -0.0153588 0)
(-0.309638 -0.012301 0)
(0.0466057 0.280612 0)
(0.0985852 0.119418 0)
(0.149635 0.000913483 0)
(0.186937 -0.102536 0)
(0.219199 -0.164541 0)
(0.217919 -0.236728 0)
(0.228049 -0.275022 0)
(0.241055 -0.28195 0)
(0.246033 -0.289031 0)
(0.270817 -0.287581 0)
(0.313671 -0.252007 0)
(0.338905 -0.168248 0)
(0.340731 -0.0316624 0)
(0.304149 0.0605451 0)
(0.221644 0.0600741 0)
(0.159955 0.064594 0)
(0.119836 0.0498722 0)
(0.0741069 -0.00960708 0)
(-0.0156727 -0.139909 0)
(-0.379983 -0.0747903 0)
(-0.69553 0.122948 0)
(-0.908355 0.069928 0)
(0.0829276 0.187222 0)
(0.171829 0.194843 0)
(0.217728 0.126986 0)
(0.228113 0.0573518 0)
(0.224235 0.00627209 0)
(0.206319 -0.0642271 0)
(0.194791 -0.138145 0)
(0.186818 -0.197444 0)
(0.202351 -0.263001 0)
(0.195311 -0.346322 0)
(0.129149 -0.31491 0)
(0.113303 -0.223185 0)
(0.130131 -0.0704989 0)
(0.129048 0.0925461 0)
(0.0528059 0.14762 0)
(-0.0119081 0.0972437 0)
(-0.138586 0.0957956 0)
(-0.33746 0.151955 0)
(-0.927059 0.304531 0)
(-1.2064 0.405974 0)
(-1.29106 0.369513 0)
(-1.29723 0.150094 0)
(0.0518599 0.0845593 0)
(0.0931789 0.173625 0)
(0.105076 0.160195 0)
(0.0919053 0.0960815 0)
(0.0902082 0.0254611 0)
(0.0555396 -0.0395919 0)
(0.0407609 -0.130914 0)
(-0.00471702 -0.209851 0)
(-0.119564 -0.225299 0)
(-0.48684 -0.185874 0)
(-0.706227 -0.168363 0)
(-0.778346 -0.120427 0)
(-0.732692 0.00844137 0)
(-0.637625 0.108838 0)
(-0.646766 0.19866 0)
(-0.866074 0.313815 0)
(-1.12424 0.493637 0)
(-1.24139 0.569741 0)
(-1.35368 0.557538 0)
(-1.40898 0.48791 0)
(-1.4443 0.306115 0)
(-1.55881 -0.0725835 0)
(-0.00992133 0.0167387 0)
(-0.0217802 0.194448 0)
(-0.0665829 0.163844 0)
(-0.0906736 0.111524 0)
(-0.0825305 0.0810231 0)
(-0.10625 0.0167804 0)
(-0.224131 -0.0772189 0)
(-0.616703 0.00101555 0)
(-0.790253 0.058572 0)
(-0.936247 -0.0982663 0)
(-0.995912 -0.162119 0)
(-1.11367 -0.153211 0)
(-1.23419 -0.209863 0)
(-1.32729 -0.227869 0)
(-1.28837 -0.0313589 0)
(-1.3584 0.140751 0)
(-1.36859 0.28006 0)
(-1.29133 0.45968 0)
(-1.31733 0.491622 0)
(-1.32646 0.456142 0)
(-1.37203 0.276907 0)
(-1.54038 -0.287853 0)
(-0.0573319 0.0721499 0)
(-0.096315 0.242245 0)
(-0.117337 0.224389 0)
(-0.163045 0.146774 0)
(-0.230902 0.0611945 0)
(-0.417508 0.109864 0)
(-0.73245 0.266739 0)
(-0.911788 0.147205 0)
(-0.929699 -0.00298627 0)
(-0.938195 -0.0419061 0)
(-0.989488 -0.0499958 0)
(-1.0652 -0.0270205 0)
(-1.28861 -0.0364532 0)
(-1.61502 0.00474343 0)
(-1.69978 0.0389652 0)
(-1.74691 -0.0637629 0)
(-1.5511 -0.12798 0)
(-1.27255 0.0687476 0)
(-1.20755 0.219229 0)
(-1.17808 0.249446 0)
(-1.20353 0.201537 0)
(-1.60782 -0.0971463 0)
(-0.0530306 0.175718 0)
(-0.0819352 0.251932 0)
(-0.176882 0.23144 0)
(-0.313885 0.190958 0)
(-0.574336 0.32677 0)
(-0.886822 0.509873 0)
(-1.07921 0.39665 0)
(-1.0851 0.1527 0)
(-0.983024 0.0407968 0)
(-0.9086 -0.0126503 0)
(-0.887958 -0.0448428 0)
(-0.906314 -0.0667198 0)
(-1.03315 0.0762542 0)
(-1.03858 0.695662 0)
(-1.50156 0.704268 0)
(-1.55077 0.270493 0)
(-1.57893 0.0941675 0)
(-1.36412 0.141357 0)
(-1.23069 0.244977 0)
(-1.15891 0.331999 0)
(-1.17976 0.584836 0)
(-1.42594 0.333949 0)
(-0.108028 0.0765571 0)
(-0.177721 0.212867 0)
(-0.503137 0.363758 0)
(-0.833821 0.52801 0)
(-0.976453 0.577712 0)
(-1.0511 0.51779 0)
(-1.13521 0.256727 0)
(-1.11418 -0.0851265 0)
(-1.01483 -0.205451 0)
(-0.952854 -0.243842 0)
(-0.929215 -0.269011 0)
(-0.969754 -0.303553 0)
(-1.15305 0.474458 0)
(-1.30876 0.970626 0)
(-1.48916 0.787241 0)
(-1.43062 0.267012 0)
(-1.47218 0.171807 0)
(-1.48505 0.282684 0)
(-1.42787 0.506251 0)
(-1.41356 0.683952 0)
(-1.39973 0.826615 0)
(-1.31434 0.617082 0)
(-1.30121 0.262249 0)
(-0.248346 -0.0508655 0)
(-0.782223 0.36586 0)
(-1.13832 0.488277 0)
(-1.19541 0.492319 0)
(-1.17637 0.452419 0)
(-1.18297 0.331887 0)
(-1.1962 -0.0279271 0)
(-1.06031 -0.186795 0)
(-0.991825 -0.161009 0)
(-0.988453 -0.282436 0)
(-1.06112 -0.190409 0)
(-1.25362 0.157058 0)
(-1.123 0.854499 0)
(-1.23671 1.12337 0)
(-1.47192 0.916156 0)
(-1.44315 0.373948 0)
(-1.48486 0.267348 0)
(-1.50548 0.284474 0)
(-1.49421 0.520698 0)
(-1.45428 0.678742 0)
(-1.39672 0.704399 0)
(-1.32166 0.521642 0)
(-1.34663 0.051009 0)
(-0.66116 0.744325 0)
(-1.61646 0.770599 0)
(-1.66492 0.476421 0)
(-1.36691 0.377174 0)
(-1.24251 0.336612 0)
(-1.18886 0.29509 0)
(-1.29489 0.263979 0)
(-1.27423 -0.353487 0)
(-1.12064 -0.499261 0)
(-1.03502 -0.441115 0)
(-1.06054 -0.234186 0)
(-0.918094 0.0676186 0)
(-0.839594 0.915807 0)
(-0.93496 1.27397 0)
(-1.22581 1.04212 0)
(-1.33028 0.500569 0)
(-1.36612 0.378908 0)
(-1.38877 0.371104 0)
(-1.41156 0.536473 0)
(-1.34516 0.642181 0)
(-1.28601 0.64916 0)
(-1.25245 0.538965 0)
(-1.30717 0.217891 0)
(-0.197133 1.56644 0)
(-0.614902 1.55691 0)
(-1.21159 0.88541 0)
(-1.13081 0.463749 0)
(-1.03817 0.414142 0)
(-0.810723 0.481831 0)
(-0.671977 0.472174 0)
(-0.485729 0.22452 0)
(-0.746129 0.137379 0)
(-0.856127 0.0736089 0)
(-0.908159 0.0494493 0)
(-0.920119 0.109622 0)
(-0.729945 0.611537 0)
(-0.466768 1.2256 0)
(-0.51194 1.38828 0)
(-0.870746 0.763887 0)
(-1.01418 0.292167 0)
(-1.08212 0.249626 0)
(-1.14398 0.455313 0)
(-1.07518 0.633085 0)
(-1.03984 0.659036 0)
(-1.03754 0.578641 0)
(-1.03695 0.238839 0)
(-0.0552352 1.50391 0)
(0.195344 1.63409 0)
(0.26652 1.34872 0)
(0.243467 0.847466 0)
(0.180507 0.535454 0)
(0.166909 0.471915 0)
(0.121949 0.392442 0)
(0.03103 0.115874 0)
(-0.190856 -0.0789113 0)
(-0.32746 -0.116918 0)
(-0.461375 -0.0193102 0)
(-0.557718 0.111306 0)
(-0.6306 0.379552 0)
(-0.294298 0.989867 0)
(0.0741125 1.38335 0)
(0.0280156 1.19211 0)
(-0.236658 0.742317 0)
(-0.478362 0.435608 0)
(-0.633754 0.413832 0)
(-0.650066 0.504984 0)
(-0.603734 0.53579 0)
(-0.554365 0.453084 0)
(-0.388271 0.164938 0)
(-0.0535101 1.51122 0)
(0.117269 1.41234 0)
(0.290129 1.22368 0)
(0.401651 0.824409 0)
(0.39165 0.549849 0)
(0.393752 0.490303 0)
(0.383539 0.463789 0)
(0.335909 0.389965 0)
(0.178301 0.323964 0)
(-0.0355259 0.235688 0)
(-0.230781 0.196188 0)
(-0.291241 0.22466 0)
(-0.354435 0.355249 0)
(-0.260541 0.603937 0)
(0.095114 1.04705 0)
(0.349521 1.10681 0)
(0.350326 0.918927 0)
(0.228384 0.66701 0)
(0.120177 0.545396 0)
(0.0478749 0.54461 0)
(0.138677 0.519953 0)
(0.321379 0.37651 0)
(0.371454 0.0203092 0)
(-0.0725135 1.50651 0)
(0.0433427 1.26492 0)
(0.130333 1.0252 0)
(0.318807 0.753351 0)
(0.345265 0.536367 0)
(0.37688 0.475875 0)
(0.395115 0.475436 0)
(0.398409 0.43788 0)
(0.346963 0.420334 0)
(0.235688 0.370557 0)
(0.0516292 0.322893 0)
(-0.0334967 0.295304 0)
(-0.0785555 0.371199 0)
(-0.0635062 0.503031 0)
(0.0731374 0.670807 0)
(0.338407 0.88736 0)
(0.510568 0.800858 0)
(0.53978 0.674754 0)
(0.596376 0.59421 0)
(0.632957 0.534771 0)
(0.666049 0.391264 0)
(0.841229 0.203221 0)
(0.930928 -0.122161 0)
(-0.0638646 1.50153 0)
(0.0607333 1.18782 0)
(0.0717636 0.907162 0)
(0.236507 0.662721 0)
(0.269413 0.500825 0)
(0.307392 0.443801 0)
(0.343598 0.427312 0)
(0.395864 0.447395 0)
(0.386726 0.457375 0)
(0.353734 0.463292 0)
(0.260415 0.448382 0)
(0.189758 0.362968 0)
(0.142191 0.391383 0)
(0.159261 0.459395 0)
(0.22724 0.573607 0)
(0.38876 0.663132 0)
(0.55591 0.697693 0)
(0.672532 0.591402 0)
(0.761032 0.515317 0)
(0.908217 0.424791 0)
(0.977201 0.313094 0)
(1.10565 0.0890445 0)
(1.1526 -0.198473 0)
(-0.0255583 1.48103 0)
(0.122968 1.1458 0)
(0.116089 0.832835 0)
(0.233397 0.597347 0)
(0.258507 0.466821 0)
(0.287587 0.419244 0)
(0.311131 0.386234 0)
(0.345322 0.408789 0)
(0.384068 0.465449 0)
(0.378737 0.492864 0)
(0.353379 0.494407 0)
(0.336051 0.426402 0)
(0.30013 0.410127 0)
(0.316577 0.432002 0)
(0.3583 0.490866 0)
(0.475456 0.533204 0)
(0.58663 0.570186 0)
(0.739801 0.497443 0)
(0.805035 0.379745 0)
(0.923151 0.265703 0)
(1.0467 0.165609 0)
(1.13889 0.0182876 0)
(1.15353 -0.210001 0)
(0.0331384 1.40044 0)
(0.188772 1.09624 0)
(0.196284 0.775062 0)
(0.273236 0.554065 0)
(0.281701 0.438274 0)
(0.295472 0.40299 0)
(0.303696 0.376362 0)
(0.305746 0.382485 0)
(0.341855 0.437783 0)
(0.373325 0.490702 0)
(0.379974 0.4917 0)
(0.391593 0.442774 0)
(0.384084 0.409722 0)
(0.397641 0.411743 0)
(0.426673 0.429147 0)
(0.496816 0.43959 0)
)
;

boundaryField
{
    leftWall
    {
        type            fixedValue;
        value           uniform (0 0 0);
    }
    rightWall
    {
        type            fixedValue;
        value           nonuniform 0();
    }
    lowerWall
    {
        type            fixedValue;
        value           uniform (0 0 0);
    }
    atmosphere
    {
        type            fluxCorrectedVelocity;
        value           nonuniform 0();
    }
    defaultFaces
    {
        type            empty;
    }
    procBoundary0to1
    {
        type            processor;
        value           nonuniform List<vector> 
26
(
(-0.0211047 -0.00583274 0)
(-0.000768036 -0.0194086 0)
(0.00241145 -0.00342673 0)
(0.00217301 -0.0237873 0)
(-0.00374764 -0.00565337 0)
(-0.0529307 -0.0901662 0)
(-0.190434 -0.885439 0)
(-0.182736 -1.12349 0)
(-0.18699 -1.14379 0)
(-0.646311 -0.0641264 0)
(-1.03649 -0.305152 0)
(-1.2439 -0.2273 0)
(-1.54127 -0.408389 0)
(-1.59585 -0.606012 0)
(-1.76752 -0.00932941 0)
(-1.29067 -0.390823 0)
(-1.29067 -0.390823 0)
(-1.51141 -0.0238831 0)
(-1.45389 -0.163123 0)
(-1.35308 -0.0634703 0)
(-0.956364 -0.110776 0)
(-0.243257 -0.197633 0)
(0.593793 -0.295122 0)
(1.01195 -0.380257 0)
(1.15359 -0.391955 0)
(1.12909 -0.349135 0)
)
;
    }
    procBoundary0to2
    {
        type            processor;
        value           nonuniform List<vector> 
24
(
(0.565672 0.43072 0)
(0.706564 0.395633 0)
(0.762741 0.276717 0)
(0.816465 0.135984 0)
(0.944403 0.0487606 0)
(1.00321 -0.0393906 0)
(0.975012 -0.193355 0)
(0.0932717 1.22601 0)
(0.223934 1.01878 0)
(0.263779 0.726872 0)
(0.306993 0.525759 0)
(0.299072 0.431354 0)
(0.297342 0.400823 0)
(0.296571 0.378942 0)
(0.289725 0.379042 0)
(0.295267 0.402736 0)
(0.335166 0.456374 0)
(0.378995 0.473397 0)
(0.399896 0.432855 0)
(0.406217 0.396769 0)
(0.419933 0.391799 0)
(0.44213 0.389833 0)
(0.565672 0.43072 0)
(0.486664 0.378769 0)
)
;
    }
}


// ************************************************************************* //
