/*--------------------------------*- C++ -*----------------------------------*\
| =========                 |                                                 |
| \\      /  F ield         | OpenFOAM: The Open Source CFD Toolbox           |
|  \\    /   O peration     | Version:  2.4.0                                 |
|   \\  /    A nd           | Web:      www.OpenFOAM.org                      |
|    \\/     M anipulation  |                                                 |
\*---------------------------------------------------------------------------*/
FoamFile
{
    version     2.0;
    format      ascii;
    class       volVectorField;
    location    "0.95";
    object      U.water;
}
// * * * * * * * * * * * * * * * * * * * * * * * * * * * * * * * * * * * * * //

dimensions      [0 1 -1 0 0 0 0];

internalField   nonuniform List<vector> 
575
(
(-0.0664813 -0.032444 0)
(-0.173126 -0.0300271 0)
(-0.243654 -0.0161464 0)
(-0.277692 -0.0054309 0)
(-0.282424 0.00363327 0)
(-0.274534 0.00729781 0)
(-0.256443 0.00547718 0)
(-0.232712 0.00380625 0)
(-0.211643 0.00305083 0)
(-0.19844 0.00105246 0)
(-0.189953 -0.00281323 0)
(-0.177243 -0.00579993 0)
(-0.158395 -0.00429894 0)
(-0.143469 -0.00360208 0)
(-0.132596 -0.00250835 0)
(-0.126853 -0.00201656 0)
(-0.11939 -0.00373388 0)
(-0.107123 -0.00478676 0)
(-0.0853037 -0.00545275 0)
(-0.0541051 -0.00650666 0)
(-0.0328663 -0.000144395 0)
(-0.0274894 0.00337424 0)
(-0.0657298 0.148282 0)
(-0.171454 0.110666 0)
(-0.235293 0.0641101 0)
(-0.276011 0.0242609 0)
(-0.282702 -0.00621404 0)
(-0.279539 -0.0197916 0)
(-0.261329 -0.0240662 0)
(-0.23501 -0.0235735 0)
(-0.212682 -0.0177589 0)
(-0.198049 -0.00988355 0)
(-0.184768 -0.00745061 0)
(-0.169856 -0.0106903 0)
(-0.155807 -0.0137663 0)
(-0.143511 -0.0105904 0)
(-0.134494 -0.00679258 0)
(-0.127025 -0.00529922 0)
(-0.115698 -0.00573471 0)
(-0.102018 -0.0108248 0)
(-0.07906 -0.0186231 0)
(-0.0503207 -0.019356 0)
(-0.0259205 -0.0125374 0)
(-0.00392647 -0.00922002 0)
(-0.0734301 0.244132 0)
(-0.195087 0.138488 0)
(-0.250917 0.0754327 0)
(-0.279123 0.0338647 0)
(-0.284477 0.0139984 0)
(-0.280881 0.00340989 0)
(-0.262363 -0.0147328 0)
(-0.23471 -0.0195264 0)
(-0.211361 -0.0134576 0)
(-0.193266 -0.0099626 0)
(-0.178897 -0.0108401 0)
(-0.167177 -0.0114979 0)
(-0.158388 -0.00859677 0)
(-0.147926 -0.00561311 0)
(-0.135453 -0.00356171 0)
(-0.124715 -0.00607439 0)
(-0.108755 -0.012316 0)
(-0.0945882 -0.0218615 0)
(-0.0767585 -0.0309103 0)
(-0.0563295 -0.0318545 0)
(-0.0347268 -0.0203755 0)
(-0.00124664 -0.00312276 0)
(-0.0973029 0.420278 0)
(-0.242391 0.328317 0)
(-0.296474 0.220476 0)
(-0.326665 0.0896451 0)
(-0.324458 0.0223873 0)
(-0.295159 -0.0107098 0)
(-0.267644 -0.0155681 0)
(-0.245211 -0.015834 0)
(-0.219215 -0.00690598 0)
(-0.194177 0.0015657 0)
(-0.178423 0.000261219 0)
(-0.168501 -0.00832253 0)
(-0.162233 -0.0155057 0)
(-0.153352 -0.0143826 0)
(-0.138591 -0.00959092 0)
(-0.121854 -0.00860515 0)
(-0.103577 -0.00939201 0)
(-0.0908155 -0.0104783 0)
(-0.0778441 -0.013967 0)
(-0.0645688 -0.0142155 0)
(-0.0394963 -0.0149815 0)
(-0.00488327 -0.0127536 0)
(-0.185943 0.562964 0)
(-0.360046 0.387956 0)
(-0.377276 0.268983 0)
(-0.372734 0.191876 0)
(-0.362447 0.0748357 0)
(-0.330196 0.0511534 0)
(-0.295484 0.110811 0)
(-0.270747 0.139754 0)
(-0.248863 0.147123 0)
(-0.222921 0.154697 0)
(-0.203031 0.161644 0)
(-0.191811 0.170855 0)
(-0.181263 0.177473 0)
(-0.168114 0.174857 0)
(-0.145308 0.153372 0)
(-0.122119 0.137634 0)
(-0.101952 0.122682 0)
(-0.0890377 0.119963 0)
(-0.0757778 0.139742 0)
(-0.0595802 0.136112 0)
(-0.0447306 0.138711 0)
(-0.0200182 0.164865 0)
(-0.370254 0.703076 0)
(-0.526152 0.437622 0)
(-0.517496 0.297784 0)
(-0.468046 0.219632 0)
(-0.408321 0.152033 0)
(-0.35308 0.10627 0)
(-0.31166 0.0792453 0)
(-0.287002 0.0586358 0)
(-0.269431 0.0537272 0)
(-0.234019 0.0622182 0)
(-0.188321 0.0716888 0)
(-0.171939 0.0713287 0)
(-0.176342 0.0700675 0)
(-0.188773 0.0733947 0)
(-0.189492 0.0800306 0)
(-0.173149 0.0875557 0)
(-0.145193 0.0947401 0)
(-0.108854 0.093261 0)
(-0.0783371 0.0774021 0)
(-0.0457442 0.061135 0)
(-0.0242423 0.0546145 0)
(-0.0466542 0.0604822 0)
(-0.336993 0.818029 0)
(-0.510494 0.42597 0)
(-0.550582 0.244221 0)
(-0.524129 0.148737 0)
(-0.457508 0.0627416 0)
(-0.383382 0.0217002 0)
(-0.352044 0.0172133 0)
(-0.344189 0.043184 0)
(-0.312185 0.085434 0)
(-0.227224 0.116879 0)
(-0.128188 0.137682 0)
(-0.0594293 0.153299 0)
(-0.044824 0.150026 0)
(-0.0687666 0.133824 0)
(-0.121396 0.0916183 0)
(-0.152168 0.0475905 0)
(-0.163396 0.0290938 0)
(-0.134874 0.0207922 0)
(-0.107733 0.0128053 0)
(-0.113704 0.0186847 0)
(-0.199331 0.0706676 0)
(-0.218377 0.213201 0)
(-0.0772481 0.941888 0)
(-0.329249 0.477655 0)
(-0.444773 0.221047 0)
(-0.442833 0.0607749 0)
(-0.428624 0.00236035 0)
(-0.444356 0.00101511 0)
(-0.444357 -0.0184307 0)
(-0.403486 -0.0746701 0)
(-0.3151 -0.161918 0)
(-0.198319 -0.217602 0)
(-0.110149 -0.213261 0)
(-0.0278988 -0.180229 0)
(0.0470384 -0.139933 0)
(0.0756802 -0.0967306 0)
(0.0714573 -0.056322 0)
(0.0206279 -0.0353998 0)
(-0.0264342 -0.0400922 0)
(-0.0758217 -0.049035 0)
(-0.144619 -0.0437929 0)
(-0.231401 -0.0295891 0)
(-0.361165 -0.0355983 0)
(-0.328528 -0.232858 0)
(0.154132 0.869915 0)
(0.199893 0.584135 0)
(0.105373 0.295607 0)
(0.00102272 0.0574909 0)
(-0.0798659 -0.0935751 0)
(-0.0983337 -0.173372 0)
(-0.0818354 -0.204953 0)
(-0.0205926 -0.214839 0)
(0.0468899 -0.196434 0)
(0.10097 -0.148953 0)
(0.130763 -0.0793272 0)
(0.153048 -0.00444662 0)
(0.15489 0.0662973 0)
(0.106376 0.103709 0)
(0.0630767 0.076658 0)
(0.0177905 -0.00467332 0)
(-0.030084 -0.0736615 0)
(-0.0777004 -0.092414 0)
(-0.0887985 -0.0724511 0)
(-0.0351809 -0.0126408 0)
(-0.0664873 0.0775038 0)
(-0.0624015 0.129484 0)
(0.135017 0.583865 0)
(0.275735 0.446493 0)
(0.319027 0.233542 0)
(0.301564 0.07714 0)
(0.274632 -0.00888882 0)
(0.238037 -0.0500792 0)
(0.218568 -0.0898734 0)
(0.219281 -0.137184 0)
(0.226743 -0.176279 0)
(0.241986 -0.190463 0)
(0.267044 -0.179906 0)
(0.294795 -0.143851 0)
(0.310209 -0.0796612 0)
(0.312636 -0.0125571 0)
(0.297614 0.0455184 0)
(0.248807 0.11028 0)
(0.156021 0.137159 0)
(0.0529226 0.105357 0)
(-0.00641559 0.00472997 0)
(-0.0383542 -0.0120296 0)
(-0.139813 0.0459904 0)
(-0.251458 0.046774 0)
(0.101836 0.352323 0)
(0.221715 0.29542 0)
(0.30416 0.201213 0)
(0.306381 0.0936254 0)
(0.289282 0.00197075 0)
(0.258708 -0.0674147 0)
(0.245942 -0.134443 0)
(0.248519 -0.186886 0)
(0.260487 -0.216479 0)
(0.288843 -0.239547 0)
(0.326657 -0.217818 0)
(0.346481 -0.151275 0)
(0.33919 -0.0379041 0)
(0.301542 0.0547394 0)
(0.217623 0.0648719 0)
(0.157976 0.0819952 0)
(0.117554 0.0810932 0)
(0.0680571 0.0209777 0)
(-0.00551353 -0.0720624 0)
(-0.340388 0.0260123 0)
(-0.59238 0.260046 0)
(-0.745565 0.282427 0)
(0.0841428 0.177615 0)
(0.182629 0.21528 0)
(0.233896 0.167201 0)
(0.240562 0.10578 0)
(0.228327 0.0421801 0)
(0.209371 -0.0322976 0)
(0.200044 -0.115254 0)
(0.19368 -0.18048 0)
(0.209032 -0.256707 0)
(0.22044 -0.356875 0)
(0.188718 -0.350055 0)
(0.154504 -0.264627 0)
(0.118401 -0.113859 0)
(0.13774 0.0594173 0)
(0.0511572 0.147128 0)
(-0.00964664 0.142378 0)
(-0.128952 0.165364 0)
(-0.281192 0.205887 0)
(-0.727157 0.309781 0)
(-1.11251 0.452564 0)
(-1.20938 0.460803 0)
(-1.28211 0.21218 0)
(0.0521621 0.0321805 0)
(0.0946027 0.148103 0)
(0.105158 0.152987 0)
(0.0906235 0.0957012 0)
(0.0899278 0.0278793 0)
(0.0557363 -0.036683 0)
(0.0417409 -0.131208 0)
(0.0040794 -0.220108 0)
(-0.0972638 -0.256549 0)
(-0.547069 -0.199436 0)
(-0.713914 -0.153428 0)
(-0.747153 -0.0910454 0)
(-0.699091 0.0353381 0)
(-0.588815 0.129922 0)
(-0.582694 0.202497 0)
(-0.708163 0.298116 0)
(-0.924865 0.446635 0)
(-1.07823 0.580285 0)
(-1.3069 0.565387 0)
(-1.39465 0.524271 0)
(-1.44187 0.324347 0)
(-1.5572 -0.141586 0)
(-0.0157266 -0.0590142 0)
(-0.0237004 0.142543 0)
(-0.0637025 0.147118 0)
(-0.0896983 0.10391 0)
(-0.082271 0.0748137 0)
(-0.106146 0.00863361 0)
(-0.214015 -0.105842 0)
(-0.670346 -0.0454177 0)
(-0.808776 0.0538664 0)
(-0.926413 -0.0793213 0)
(-0.96068 -0.136171 0)
(-1.04566 -0.137581 0)
(-1.11585 -0.181547 0)
(-1.11177 -0.180951 0)
(-0.978518 -0.0490314 0)
(-1.08201 0.136432 0)
(-1.27732 0.272979 0)
(-1.25718 0.476598 0)
(-1.29778 0.507688 0)
(-1.3134 0.451814 0)
(-1.41892 0.098855 0)
(-1.68866 -0.694536 0)
(-0.0555145 -0.00366312 0)
(-0.0919216 0.174521 0)
(-0.11164 0.188337 0)
(-0.16157 0.123283 0)
(-0.228418 0.0389042 0)
(-0.394794 0.0689625 0)
(-0.729052 0.229573 0)
(-0.93596 0.11662 0)
(-0.943754 -0.0192072 0)
(-0.942525 -0.051807 0)
(-0.977963 -0.0631845 0)
(-1.05672 -0.0598774 0)
(-1.35047 -0.161923 0)
(-1.52407 -0.290517 0)
(-1.29897 -0.238758 0)
(-1.51515 -0.111181 0)
(-1.63862 -0.0228169 0)
(-1.38099 0.158731 0)
(-1.29899 0.25958 0)
(-1.21815 0.20145 0)
(-1.21712 -0.0195212 0)
(-1.85195 -0.62916 0)
(-0.0595732 0.0396038 0)
(-0.0781299 0.162875 0)
(-0.171 0.167019 0)
(-0.310326 0.140311 0)
(-0.554111 0.250527 0)
(-0.856621 0.429436 0)
(-1.08396 0.339348 0)
(-1.09934 0.0814888 0)
(-0.991021 -0.0243304 0)
(-0.932155 -0.0628468 0)
(-0.923408 -0.0981053 0)
(-1.03933 -0.188393 0)
(-1.55899 -0.329916 0)
(-1.30507 0.321211 0)
(-1.4578 0.243031 0)
(-1.579 0.134671 0)
(-1.75473 0.104621 0)
(-1.59947 0.141634 0)
(-1.37925 0.182978 0)
(-1.21927 0.167576 0)
(-1.16027 0.372726 0)
(-1.41896 0.365749 0)
(-0.134308 -0.112028 0)
(-0.17257 0.0484275 0)
(-0.462608 0.223307 0)
(-0.796118 0.417525 0)
(-0.973429 0.477415 0)
(-1.056 0.438709 0)
(-1.24186 0.127981 0)
(-1.17143 -0.225508 0)
(-1.00262 -0.335573 0)
(-0.971808 -0.371447 0)
(-0.974831 -0.400557 0)
(-1.07144 -0.468052 0)
(-1.25009 0.245074 0)
(-1.31265 0.9726 0)
(-1.493 0.783025 0)
(-1.43717 0.265503 0)
(-1.47273 0.169971 0)
(-1.4982 0.28172 0)
(-1.45275 0.479253 0)
(-1.4061 0.621636 0)
(-1.3994 0.821944 0)
(-1.31474 0.616123 0)
(-1.30175 0.261233 0)
(-0.428905 -0.118604 0)
(-0.715266 0.0802403 0)
(-1.00816 0.294458 0)
(-1.0992 0.366254 0)
(-1.12692 0.359157 0)
(-1.15674 0.258147 0)
(-1.39366 -0.0962734 0)
(-1.1678 -0.27721 0)
(-0.994411 -0.222818 0)
(-0.989246 -0.332514 0)
(-1.0552 -0.249373 0)
(-1.25027 0.145889 0)
(-1.12528 0.859942 0)
(-1.23549 1.12239 0)
(-1.46991 0.911164 0)
(-1.43943 0.371073 0)
(-1.48502 0.266442 0)
(-1.50596 0.284067 0)
(-1.49631 0.520918 0)
(-1.45555 0.67893 0)
(-1.39605 0.704509 0)
(-1.32065 0.521562 0)
(-1.34682 0.0510487 0)
(-0.957854 0.701214 0)
(-1.84589 0.453906 0)
(-1.61474 0.33055 0)
(-1.31387 0.272583 0)
(-1.17679 0.238299 0)
(-1.13103 0.163628 0)
(-1.30034 0.0410505 0)
(-1.27537 -0.363537 0)
(-1.11875 -0.501306 0)
(-1.03402 -0.441005 0)
(-1.06421 -0.231963 0)
(-0.920933 0.066254 0)
(-0.839432 0.917562 0)
(-0.938478 1.27218 0)
(-1.22737 1.04121 0)
(-1.33088 0.499468 0)
(-1.36605 0.378072 0)
(-1.38782 0.370471 0)
(-1.41064 0.535958 0)
(-1.34377 0.64128 0)
(-1.28564 0.649327 0)
(-1.25229 0.539826 0)
(-1.30765 0.218187 0)
(-0.199835 1.56437 0)
(-0.895214 1.35114 0)
(-1.51915 0.617423 0)
(-1.3535 0.328078 0)
(-1.16479 0.24961 0)
(-0.862462 0.278637 0)
(-0.642077 0.477334 0)
(-0.485529 0.224048 0)
(-0.746064 0.137119 0)
(-0.856102 0.0729457 0)
(-0.907676 0.0484552 0)
(-0.918021 0.107665 0)
(-0.73157 0.606115 0)
(-0.471838 1.23284 0)
(-0.514167 1.38713 0)
(-0.87169 0.763325 0)
(-1.0138 0.29106 0)
(-1.08101 0.248145 0)
(-1.14498 0.455199 0)
(-1.07556 0.632971 0)
(-1.0397 0.659117 0)
(-1.03748 0.578716 0)
(-1.03708 0.237877 0)
(-0.0553093 1.50368 0)
(0.195957 1.63253 0)
(0.235893 1.33689 0)
(0.187335 0.829918 0)
(0.13172 0.524042 0)
(0.164764 0.468637 0)
(0.12152 0.391532 0)
(0.0310954 0.115928 0)
(-0.190804 -0.0789058 0)
(-0.327421 -0.11692 0)
(-0.461368 -0.0193978 0)
(-0.557877 0.111727 0)
(-0.633399 0.373518 0)
(-0.309772 0.976201 0)
(0.0688093 1.38288 0)
(0.0265157 1.19418 0)
(-0.234983 0.743096 0)
(-0.47605 0.434079 0)
(-0.634409 0.411918 0)
(-0.650818 0.504322 0)
(-0.604138 0.535596 0)
(-0.555265 0.452808 0)
(-0.388886 0.164327 0)
(-0.0535391 1.51109 0)
(0.117203 1.4123 0)
(0.29001 1.2236 0)
(0.401597 0.824198 0)
(0.391638 0.549572 0)
(0.393759 0.490202 0)
(0.383534 0.46379 0)
(0.335922 0.389935 0)
(0.178333 0.323918 0)
(-0.0354893 0.235625 0)
(-0.230742 0.196104 0)
(-0.291275 0.224439 0)
(-0.355539 0.353306 0)
(-0.275843 0.595472 0)
(0.0626455 1.0358 0)
(0.339254 1.1246 0)
(0.348008 0.925296 0)
(0.229759 0.668378 0)
(0.122954 0.541755 0)
(0.0464577 0.541728 0)
(0.137502 0.518235 0)
(0.319931 0.375828 0)
(0.371036 0.0219864 0)
(-0.0725374 1.50642 0)
(0.0432822 1.26483 0)
(0.130195 1.02513 0)
(0.318708 0.75331 0)
(0.345228 0.53634 0)
(0.376868 0.475863 0)
(0.395115 0.475428 0)
(0.39842 0.437868 0)
(0.346988 0.420311 0)
(0.235717 0.37051 0)
(0.0516513 0.322817 0)
(-0.0334777 0.295197 0)
(-0.0787332 0.370695 0)
(-0.06772 0.500797 0)
(0.0542455 0.666611 0)
(0.297924 0.90053 0)
(0.47473 0.814142 0)
(0.5155 0.685565 0)
(0.585853 0.596916 0)
(0.622823 0.537331 0)
(0.656071 0.396183 0)
(0.835737 0.219584 0)
(0.927236 -0.0888806 0)
(-0.0638973 1.50139 0)
(0.0606448 1.18763 0)
(0.0715834 0.906947 0)
(0.236147 0.662473 0)
(0.269271 0.500699 0)
(0.307367 0.44374 0)
(0.343596 0.427294 0)
(0.39587 0.447374 0)
(0.38674 0.457341 0)
(0.35375 0.463231 0)
(0.260426 0.4483 0)
(0.189761 0.362856 0)
(0.142181 0.391241 0)
(0.158995 0.458799 0)
(0.222989 0.57199 0)
(0.375961 0.666601 0)
(0.530937 0.701123 0)
(0.64671 0.600397 0)
(0.72992 0.521462 0)
(0.881284 0.439849 0)
(0.968058 0.327418 0)
(1.10602 0.0990167 0)
(1.15307 -0.17951 0)
(-0.0255987 1.48085 0)
(0.122885 1.14559 0)
(0.115987 0.832651 0)
(0.233107 0.596827 0)
(0.258294 0.466486 0)
(0.287513 0.41912 0)
(0.311124 0.38621 0)
(0.345322 0.408761 0)
(0.384074 0.465407 0)
(0.378742 0.4928 0)
(0.35338 0.494325 0)
(0.336048 0.426296 0)
(0.300112 0.41 0)
(0.316523 0.431876 0)
(0.358157 0.490395 0)
(0.473345 0.532399 0)
(0.583322 0.569647 0)
(0.733519 0.499016 0)
(0.797775 0.387847 0)
(0.917869 0.274216 0)
(1.04483 0.169982 0)
(1.14051 0.0202014 0)
(1.15163 -0.208244 0)
(0.0330983 1.4004 0)
(0.1887 1.09612 0)
(0.196198 0.774923 0)
(0.273001 0.553394 0)
(0.281501 0.437782 0)
(0.295391 0.402803 0)
(0.30369 0.376339 0)
(0.305743 0.382457 0)
(0.341855 0.43774 0)
(0.373324 0.490641 0)
(0.37997 0.491622 0)
(0.391584 0.442674 0)
(0.384061 0.409608 0)
(0.397603 0.411639 0)
(0.426621 0.42906 0)
(0.49674 0.439441 0)
)
;

boundaryField
{
    leftWall
    {
        type            fixedValue;
        value           uniform (0 0 0);
    }
    rightWall
    {
        type            fixedValue;
        value           nonuniform 0();
    }
    lowerWall
    {
        type            fixedValue;
        value           uniform (0 0 0);
    }
    atmosphere
    {
        type            fluxCorrectedVelocity;
        value           nonuniform 0();
    }
    defaultFaces
    {
        type            empty;
    }
    procBoundary0to1
    {
        type            processor;
        value           nonuniform List<vector> 
26
(
(-0.0211045 -0.00583049 0)
(-0.000767916 -0.0194007 0)
(0.00241162 -0.00310531 0)
(0.00214326 0.00526 0)
(-0.00249427 0.15794 0)
(-0.0686526 0.131279 0)
(-0.149616 0.336706 0)
(-0.279466 -0.433884 0)
(-0.412647 -0.20731 0)
(-0.436856 0.0914394 0)
(-0.999692 -0.126391 0)
(-1.24963 -0.199618 0)
(-1.55308 -0.393607 0)
(-1.66575 -0.819402 0)
(-2.03714 -1.01368 0)
(-1.30467 -0.406562 0)
(-1.30467 -0.406562 0)
(-1.51053 -0.0246621 0)
(-1.45387 -0.163377 0)
(-1.35272 -0.0638761 0)
(-0.956059 -0.112176 0)
(-0.243282 -0.198669 0)
(0.603731 -0.290276 0)
(1.02141 -0.34501 0)
(1.14876 -0.362111 0)
(1.12472 -0.347409 0)
)
;
    }
    procBoundary0to2
    {
        type            processor;
        value           nonuniform List<vector> 
24
(
(0.565575 0.430223 0)
(0.70641 0.394609 0)
(0.762862 0.275747 0)
(0.816668 0.134992 0)
(0.944457 0.04793 0)
(1.00321 -0.039895 0)
(0.974929 -0.193662 0)
(0.0932537 1.22608 0)
(0.223881 1.01871 0)
(0.263666 0.726632 0)
(0.306688 0.524973 0)
(0.298884 0.430868 0)
(0.297284 0.400651 0)
(0.296568 0.378924 0)
(0.289722 0.379021 0)
(0.295263 0.402701 0)
(0.335162 0.456324 0)
(0.378989 0.47333 0)
(0.399883 0.432768 0)
(0.406195 0.396678 0)
(0.419906 0.39172 0)
(0.442105 0.389776 0)
(0.565575 0.430223 0)
(0.486644 0.378706 0)
)
;
    }
}


// ************************************************************************* //
