/*--------------------------------*- C++ -*----------------------------------*\
| =========                 |                                                 |
| \\      /  F ield         | OpenFOAM: The Open Source CFD Toolbox           |
|  \\    /   O peration     | Version:  2.4.0                                 |
|   \\  /    A nd           | Web:      www.OpenFOAM.org                      |
|    \\/     M anipulation  |                                                 |
\*---------------------------------------------------------------------------*/
FoamFile
{
    version     2.0;
    format      ascii;
    class       volScalarField;
    location    "0.85";
    object      alpha.oil;
}
// * * * * * * * * * * * * * * * * * * * * * * * * * * * * * * * * * * * * * //

dimensions      [0 0 0 0 0 0 0];

internalField   nonuniform List<scalar> 
2268
(
1.36776e-16
7.77545e-16
8.5915e-16
1.23914e-15
3.12578e-15
2.09223e-14
1.85186e-13
1.05094e-12
4.30823e-12
1.42153e-11
3.97177e-11
9.59728e-11
2.07827e-10
4.25953e-10
9.50919e-10
2.10463e-09
4.2771e-09
7.16445e-09
2.07582e-08
1.88857e-07
1.76434e-06
5.63141e-06
8.27058e-06
1.43697e-15
7.51577e-15
1.5061e-14
1.50744e-14
2.68387e-14
4.59625e-14
2.11458e-13
1.00747e-12
3.67757e-12
1.04963e-11
2.47618e-11
5.02817e-11
9.29582e-11
1.741e-10
9.84538e-10
3.6052e-09
7.04081e-09
1.07098e-08
2.4014e-08
9.60523e-08
1.13178e-06
5.9627e-06
1.12451e-05
9.22929e-15
3.88586e-14
1.18684e-13
1.02539e-13
1.97462e-13
3.02277e-13
4.98717e-13
1.08339e-12
3.10282e-12
8.28695e-12
2.00528e-11
5.25235e-11
2.21812e-10
1.6645e-09
4.65944e-09
7.50888e-09
9.76099e-09
2.23357e-08
4.86366e-08
1.37182e-07
4.78176e-07
3.52875e-06
1.17321e-05
4.13264e-14
1.76965e-13
4.76893e-13
5.43881e-13
1.27974e-12
1.88188e-12
2.33943e-12
2.58465e-12
4.6012e-12
1.05832e-11
1.09072e-10
2.61578e-09
3.27821e-08
1.39477e-07
2.05851e-07
1.97426e-07
1.48343e-07
1.24884e-07
2.89446e-07
7.92817e-07
2.09129e-06
5.47064e-06
1.18477e-05
1.54008e-13
4.99509e-13
1.34379e-12
2.72611e-12
8.83013e-12
1.73685e-11
1.46147e-11
7.59726e-12
1.24183e-11
1.96193e-09
6.997e-08
3.32214e-07
1.21261e-06
2.13283e-06
2.34249e-06
2.20701e-06
1.5718e-06
1.03807e-06
1.04699e-06
1.83498e-06
3.74955e-06
7.681e-06
1.19204e-05
7.46157e-13
4.63651e-12
2.5164e-11
5.31741e-11
1.13608e-10
2.04555e-10
1.37728e-10
1.60184e-10
9.11713e-09
2.90353e-07
1.57957e-06
4.10584e-06
6.68648e-06
7.40207e-06
7.56854e-06
7.02589e-06
5.16411e-06
3.21008e-06
2.57843e-06
2.59706e-06
4.1733e-06
1.58104e-05
8.04172e-05
1.61209e-12
3.17922e-12
2.59366e-11
3.42893e-10
7.62355e-10
5.12842e-10
5.33165e-10
3.59224e-08
7.33528e-07
3.79632e-06
8.52023e-06
1.17297e-05
1.41706e-05
2.90646e-05
8.48619e-05
0.000158401
0.000192708
0.000191688
0.000145463
7.66557e-05
7.17331e-05
0.000831268
0.00371309
2.05064e-12
2.20993e-12
3.41338e-10
4.98056e-09
4.48778e-09
3.43865e-10
3.4399e-10
1.46156e-07
2.22024e-06
6.74403e-06
1.22871e-05
1.75263e-05
4.15367e-05
0.000289922
0.000969778
0.00186854
0.00280797
0.00368154
0.00366741
0.00237969
0.00213599
0.0113498
0.03026
0.126927
0.113047
0.11315
0.113254
0.113358
0.113459
0.114432
0.0953733
0.0881727
0.0878721
0.0876772
0.0875217
0.0874031
0.0872445
0.0870392
0.0868615
0.0866718
0.0867747
0.0868135
0.0759972
0.161806
0.247601
0.333388
0.423821
0.44285
0.443109
0.443148
0.413412
0.3509
0.319257
0.322274
0.32527
0.281141
0.17109
0.0875653
0.0865782
0.0865732
0.086616
0.253058
0.310741
0.272137
0.251916
0.244615
0.243245
0.241553
0.236288
0.227799
0.22552
0.225407
0.225559
0.356545
0.496647
0.349176
0.110704
0.0863843
0.086379
0.0865772
0.427702
0.5901
0.512731
0.402622
0.314115
0.285495
0.295804
0.295648
0.28115
0.229612
0.225267
0.254969
0.432114
0.553847
0.397345
0.142332
0.0862075
0.0862015
0.0906929
0.376908
0.834556
0.850235
0.78276
0.659652
0.483999
0.309385
0.253952
0.244886
0.225056
0.225125
0.271763
0.48951
0.585853
0.350945
0.129518
0.0930685
0.0882262
0.090848
0.368753
0.910397
0.973091
0.968316
0.944728
0.838337
0.519939
0.283171
0.22415
0.218858
0.230526
0.279991
0.5084
0.689185
0.574112
0.219671
0.0941715
0.0965217
0.102463
0.45764
0.917663
0.986912
0.986911
0.986911
0.981189
0.842832
0.409893
0.216163
0.207328
0.230519
0.301947
0.505347
0.790476
0.842886
0.568643
0.120294
0.0994649
0.11173
0.743395
0.838025
0.986912
0.986912
0.986911
0.986911
0.967845
0.665939
0.245665
0.180873
0.180836
0.288883
0.482056
0.784893
0.874974
0.875541
0.473501
0.211202
0.38743
1.62489e-08
1.69012e-07
3.85664e-07
3.38909e-07
3.13626e-07
1.35451e-06
9.8704e-07
8.16187e-07
9.03171e-07
1.53055e-06
5.40332e-06
4.80649e-05
0.000764448
0.0040377
0.0065838
0.00809652
0.0109808
0.0147221
0.015722
0.0151356
0.0147518
0.0324913
0.0739383
5.16458e-06
5.41425e-05
0.000194878
8.54845e-05
3.48398e-05
5.63374e-05
4.75002e-05
3.30119e-05
2.10289e-05
1.83875e-05
0.000109371
0.000809042
0.00227865
0.0114471
0.0218825
0.0259986
0.0325821
0.0426981
0.0480621
0.0463856
0.0482557
0.105454
0.263749
0.00716584
0.00825632
0.0106077
0.00703328
0.00190604
0.00102726
0.00084
0.000548461
0.00038729
0.000535219
0.00166882
0.0107834
0.0535373
0.157663
0.224448
0.209233
0.19655
0.197489
0.191952
0.180509
0.255592
0.641052
0.807621
0.171572
0.241074
0.197745
0.103798
0.0251605
0.0144334
0.00990146
0.0070399
0.00748622
0.0222409
0.0864124
0.189865
0.376977
0.533875
0.608812
0.533889
0.461304
0.500283
0.463537
0.579511
0.771724
0.769833
0.575665
0.552245
0.801916
0.636137
0.325583
0.147221
0.115401
0.112583
0.134381
0.2517
0.414672
0.512416
0.643651
0.841702
0.844337
0.886054
0.855881
0.787318
0.767266
0.767459
0.798766
0.798727
0.551739
0.487299
0.784248
0.846522
0.830945
0.701329
0.582543
0.554307
0.601735
0.698942
0.699123
0.326612
0.0425963
0.213821
0.68308
0.906965
0.919141
0.91899
0.911669
0.90545
0.864079
0.548604
0.193755
0.186114
0.586118
0.846522
0.846522
0.785538
0.669998
0.58241
0.507568
0.372283
0.178292
0.016627
0.00029364
0.000360515
0.0114858
0.166968
0.662009
0.919044
0.91957
0.919569
0.893752
0.510646
0.0595513
0.00495002
0.0222298
0.271666
0.586022
0.252091
0.106702
0.0665625
0.041546
0.0235351
0.00804061
0.00251291
0.000116232
6.35432e-07
3.91387e-07
8.86642e-05
0.0115214
0.222426
0.757031
0.919569
0.91957
0.700244
0.123756
0.00104301
1.93609e-05
0.000102103
0.00039166
0.0466279
0.00582862
0.000876279
0.000353561
0.000168051
7.1147e-05
1.30707e-05
3.331e-06
1.492e-07
2.29609e-08
9.72104e-08
3.83312e-07
0.00018347
0.0262024
0.31657
0.801784
0.915458
0.584819
0.055015
2.70666e-05
1.05126e-06
6.75043e-07
5.73872e-07
0.000447531
1.21633e-05
6.15977e-07
1.24107e-07
4.26782e-08
1.73967e-08
9.47855e-09
9.51321e-09
9.54866e-09
9.58591e-09
3.32695e-08
1.40277e-07
5.3987e-07
0.000548277
0.0389436
0.256038
0.44338
0.334475
0.0330492
4.7427e-05
9.02056e-07
5.1377e-07
2.40464e-07
8.51652e-07
1.95515e-07
1.65189e-07
6.37045e-08
2.66494e-08
9.41106e-09
9.44589e-09
9.49057e-09
9.53641e-09
9.5884e-09
1.76957e-08
8.20226e-08
2.3542e-07
1.43641e-05
0.00221992
0.0190555
0.0409263
0.0455795
0.0124887
0.000213557
8.77178e-07
6.3383e-07
2.62909e-07
2.77553e-07
2.23069e-07
1.36323e-07
5.60933e-08
1.42478e-08
6.61034e-09
1.32028e-08
1.46015e-08
1.25147e-08
1.21641e-08
1.79416e-08
4.69776e-08
1.86949e-07
5.33408e-07
3.03162e-05
0.000285031
0.000777889
0.00128004
0.00151495
0.000541544
1.91025e-06
8.27931e-07
3.98802e-07
2.78695e-07
2.41821e-07
9.51311e-08
4.85468e-08
1.2708e-08
2.89235e-09
1.37212e-08
2.26524e-08
1.89494e-08
1.39591e-08
2.10625e-08
4.32836e-08
1.00651e-07
2.31762e-07
1.21955e-07
5.66292e-07
2.21303e-06
7.97057e-06
7.58445e-05
0.000213553
2.4659e-05
1.26396e-06
6.85826e-07
2.23862e-07
1.35114e-07
6.31625e-08
3.27796e-08
9.6246e-09
9.46594e-10
8.46493e-09
2.77627e-08
2.72231e-08
2.30674e-08
4.08468e-08
5.73167e-08
3.97822e-08
4.9349e-08
2.63654e-08
2.10538e-08
5.83946e-08
4.65637e-07
1.1076e-06
1.33106e-05
2.9503e-05
1.02951e-05
1.17257e-06
1.18e-07
6.15337e-08
4.05104e-08
2.10541e-08
4.20562e-09
2.40271e-10
4.11995e-09
2.23168e-08
2.47798e-08
4.85244e-08
5.76427e-08
5.7669e-08
2.43754e-08
2.10422e-08
2.1074e-08
2.10129e-08
6.4851e-08
3.24483e-07
7.37108e-07
1.58118e-06
8.36718e-06
1.00682e-05
3.82996e-06
5.50211e-08
3.57196e-08
2.31579e-08
9.06649e-09
6.01429e-10
2.46833e-11
1.79761e-09
5.75106e-09
1.3274e-08
3.46863e-08
5.76292e-08
3.88909e-08
2.15204e-08
2.10065e-08
2.26235e-08
2.10191e-08
4.37827e-08
1.90887e-07
5.09973e-07
1.11311e-06
1.88432e-06
3.2516e-06
2.12271e-06
3.62334e-08
2.09985e-08
1.2288e-08
1.65597e-09
2.70864e-11
1.37762e-11
4.50407e-10
4.4337e-10
3.3479e-09
8.86196e-09
2.33857e-08
1.16341e-08
1.65124e-08
4.33166e-08
6.76325e-08
5.87706e-08
4.37485e-08
7.29366e-08
2.92358e-07
7.24582e-07
1.35324e-06
1.95384e-06
1.89456e-06
1.82413e-08
8.87696e-09
1.96909e-09
6.73295e-11
7.81184e-12
8.44769e-12
2.86221e-11
4.12841e-11
3.57574e-10
7.05261e-10
2.17606e-09
2.63477e-09
1.28777e-08
4.54507e-08
9.9387e-08
9.89559e-08
5.98107e-08
5.36559e-08
1.07584e-07
3.25057e-07
9.72769e-07
1.58116e-06
1.7955e-06
5.40718e-09
2.15602e-09
7.87001e-11
5.00006e-12
3.95676e-12
5.16207e-12
1.42087e-11
3.25276e-11
6.39189e-11
1.16326e-10
1.69804e-10
1.09255e-09
6.32777e-09
4.1017e-08
9.76367e-08
1.1615e-07
9.48448e-08
4.92889e-08
5.31429e-08
1.39674e-07
3.04023e-07
9.06491e-07
1.12483e-06
4.62492e-10
7.9158e-11
4.26161e-12
2.40365e-12
1.98407e-12
3.04079e-12
8.64913e-12
2.38809e-11
5.33024e-11
8.95501e-11
1.3039e-10
5.40602e-10
5.47476e-09
1.95395e-08
8.11806e-08
1.16334e-07
1.10008e-07
4.93628e-08
4.12583e-08
6.27717e-08
1.2917e-07
2.49674e-07
3.18584e-07
1.60997e-11
3.84516e-12
1.84661e-12
9.52989e-13
9.61753e-13
1.69047e-12
5.04835e-12
1.57473e-11
3.94736e-11
7.46064e-11
1.09997e-10
2.80173e-10
3.01914e-09
1.72921e-08
3.487e-08
6.30661e-08
6.56019e-08
4.778e-08
2.41864e-08
2.22166e-08
4.11718e-08
8.80055e-08
1.28754e-07
4.6058e-12
1.5477e-12
6.3042e-13
3.48544e-13
4.41689e-13
8.73735e-13
2.75548e-12
9.35998e-12
2.54081e-11
5.17521e-11
7.9654e-11
1.58139e-10
1.7562e-09
9.11757e-09
2.25974e-08
2.41657e-08
2.87519e-08
2.92152e-08
1.99739e-08
1.1736e-08
1.22135e-08
2.37756e-08
3.75183e-08
1.25269e-12
4.93457e-13
1.87661e-13
1.20598e-13
1.89009e-13
4.15771e-13
1.3948e-12
5.0254e-12
1.43611e-11
3.18949e-11
3.96018e-11
6.6219e-11
4.63617e-10
5.90226e-09
9.12123e-09
1.44061e-08
1.94232e-08
1.95618e-08
1.47754e-08
7.53102e-09
4.92955e-09
6.32989e-09
6.72205e-09
3.48403e-13
1.36973e-13
5.00651e-14
3.9648e-14
7.44716e-14
1.81107e-13
6.4879e-13
2.43508e-12
7.19108e-12
1.67338e-11
2.32252e-11
2.34099e-11
5.47624e-11
1.62405e-09
5.44144e-09
7.81787e-09
1.28222e-08
1.39189e-08
1.06416e-08
6.04924e-09
3.58825e-09
2.74165e-09
1.89918e-09
9.29356e-14
3.36523e-14
1.21599e-14
1.23444e-14
2.68104e-14
7.18879e-14
2.74582e-13
1.05983e-12
3.19542e-12
7.61153e-12
1.14644e-11
1.32679e-11
1.38718e-11
2.17661e-10
1.49931e-09
4.04487e-09
7.41084e-09
7.91144e-09
6.1931e-09
3.95759e-09
2.45545e-09
1.55737e-09
9.52992e-10
2.26461e-14
7.38378e-15
2.72919e-15
3.60927e-15
8.79264e-15
2.59367e-14
1.05057e-13
4.13414e-13
1.26309e-12
3.03954e-12
4.8157e-12
6.20657e-12
7.83428e-12
1.75352e-11
3.77594e-10
1.07495e-09
2.62753e-09
3.68314e-09
3.02961e-09
2.02236e-09
1.26686e-09
7.60145e-10
4.35251e-10
4.98468e-15
1.46042e-15
5.7377e-16
9.82279e-16
2.6259e-15
8.48941e-15
3.61897e-14
1.4436e-13
4.449e-13
1.07425e-12
1.75851e-12
2.48323e-12
3.61444e-12
8.4999e-12
1.01973e-10
1.70026e-10
3.43177e-10
9.69041e-10
1.17456e-09
8.3126e-10
5.19129e-10
2.97815e-10
1.5872e-10
9.93272e-16
2.62432e-16
1.14124e-16
2.47092e-16
7.14794e-16
2.52093e-15
1.12224e-14
4.52074e-14
1.40172e-13
3.38967e-13
5.70029e-13
8.76216e-13
1.46168e-12
4.55363e-12
1.50056e-11
1.74913e-11
2.30533e-11
5.24679e-11
1.32311e-10
2.14098e-10
1.50361e-10
8.92131e-11
4.50601e-11
1.80061e-16
4.31576e-17
2.16162e-17
5.72249e-17
1.7761e-16
6.79326e-16
3.13526e-15
1.27238e-14
3.96462e-14
9.60506e-14
1.66119e-13
2.76554e-13
5.21235e-13
1.96217e-12
5.93664e-12
8.2256e-12
9.3912e-12
1.10678e-11
1.08438e-11
1.59253e-11
2.06854e-11
1.43993e-11
9.2767e-12
2.9828e-17
6.52984e-18
3.90396e-18
1.21877e-17
4.03865e-17
1.66434e-16
7.91597e-16
3.23227e-15
1.01207e-14
2.46314e-14
4.40338e-14
7.89495e-14
1.64352e-13
6.8374e-13
2.12097e-12
3.20363e-12
3.42187e-12
3.90694e-12
4.20569e-12
4.79327e-12
4.77736e-12
3.35081e-12
1.84477e-12
4.53644e-18
9.14523e-19
6.71272e-19
2.3881e-18
8.42419e-18
3.71493e-17
1.81188e-16
7.44003e-16
2.34352e-15
5.75418e-15
1.06972e-14
2.0535e-14
4.61027e-14
1.9882e-13
6.46044e-13
1.00429e-12
1.05952e-12
1.14103e-12
1.2407e-12
1.23875e-12
1.05715e-12
6.59578e-13
3.17755e-13
6.36008e-19
1.19155e-19
1.09464e-19
4.31227e-19
1.61658e-18
7.5797e-18
3.77696e-17
1.55997e-16
4.95225e-16
1.23297e-15
2.39834e-15
4.89671e-15
1.15906e-14
4.95639e-14
1.65962e-13
2.60313e-13
2.7581e-13
2.87131e-13
2.95777e-13
2.66385e-13
1.97345e-13
1.0919e-13
4.70582e-14
8.25545e-20
1.4523e-20
1.68619e-20
7.19305e-20
2.86251e-19
1.41875e-18
7.20365e-18
2.99485e-17
9.60622e-17
2.43828e-16
4.98624e-16
1.0744e-15
2.62905e-15
1.08204e-14
3.64165e-14
5.73509e-14
6.10337e-14
6.1821e-14
5.95072e-14
4.87482e-14
3.17434e-14
1.56486e-14
6.063e-15
9.96026e-21
1.66462e-21
2.44592e-21
1.11158e-20
4.69249e-20
2.44603e-19
1.2634e-18
5.29407e-18
1.72083e-17
4.47468e-17
9.64134e-17
2.17393e-16
5.41104e-16
2.10219e-15
6.94385e-15
1.09609e-14
1.16609e-14
1.14719e-14
1.03357e-14
7.71583e-15
4.4637e-15
1.96843e-15
6.85861e-16
1.12126e-21
1.80365e-22
3.33454e-22
1.59677e-21
7.14722e-21
3.90135e-20
2.04792e-19
8.66369e-19
2.86258e-18
7.65813e-18
1.73767e-17
4.06479e-17
1.01618e-16
3.68165e-16
1.16911e-15
1.8444e-15
1.95139e-15
1.8599e-15
1.57253e-15
1.06982e-15
5.54066e-16
2.19406e-16
6.8762e-17
1.18209e-22
1.85737e-23
4.27094e-23
2.13992e-22
1.0152e-21
5.78136e-21
3.083e-20
1.31932e-19
4.44401e-19
1.22706e-18
2.92371e-18
7.03625e-18
1.75063e-17
5.8784e-17
1.76565e-16
2.77227e-16
2.90365e-16
2.67241e-16
2.11961e-16
1.31509e-16
6.13532e-17
2.18948e-17
6.17753e-18
1.17104e-23
1.82708e-24
5.14523e-24
2.68643e-23
1.35036e-22
7.99855e-22
4.3326e-21
1.87912e-20
6.46907e-20
1.84637e-19
4.59812e-19
1.13007e-18
2.78192e-18
8.6457e-18
2.42836e-17
3.77454e-17
3.89931e-17
3.45874e-17
2.56942e-17
1.45328e-17
6.12876e-18
1.97702e-18
5.0326e-19
1.09371e-24
1.72547e-25
5.84588e-25
3.17513e-24
1.69077e-23
1.0391e-22
5.71835e-22
2.5177e-21
8.87294e-21
2.61689e-20
6.77233e-20
1.68917e-19
4.09699e-19
1.17958e-18
3.07605e-18
4.70522e-18
4.78118e-18
4.08604e-18
2.84106e-18
1.46886e-18
5.62206e-19
1.64025e-19
3.77592e-20
9.66619e-26
1.57214e-26
6.29812e-26
3.5561e-25
2.0054e-24
1.27627e-23
7.13767e-23
3.1933e-22
1.15249e-21
3.50499e-21
9.36404e-21
2.3573e-20
5.62052e-20
1.50499e-19
3.63414e-19
5.43581e-19
5.4125e-19
4.44729e-19
2.89095e-19
1.37189e-19
4.79585e-20
1.27258e-20
2.67794e-21
8.13342e-27
1.39136e-27
6.48155e-27
3.80684e-26
2.27264e-25
1.49525e-24
8.50176e-24
3.86805e-23
1.42841e-22
4.46137e-22
1.22102e-21
3.08279e-21
7.20195e-21
1.80016e-20
4.01988e-20
5.8395e-20
5.67682e-20
4.48108e-20
2.72212e-20
1.18815e-20
3.80985e-21
9.2655e-22
1.85213e-22
6.56473e-28
1.20897e-28
6.46602e-28
3.96334e-27
2.50866e-26
1.69999e-25
9.7983e-25
4.52081e-24
1.70139e-23
5.4218e-23
1.5065e-22
3.78987e-22
8.64546e-22
2.02211e-21
4.17395e-21
5.84282e-21
5.51471e-21
4.16578e-21
2.35912e-21
9.48919e-22
2.80491e-22
6.3114e-23
1.33139e-23
5.12636e-29
1.04609e-29
6.33666e-29
4.08432e-28
2.75425e-27
1.91691e-26
1.11609e-25
5.20272e-25
1.98521e-24
6.40647e-24
1.79038e-23
4.44977e-23
9.87252e-23
2.15766e-22
4.0988e-22
5.47313e-22
4.98177e-22
3.57805e-22
1.87905e-22
6.93936e-23
1.88224e-23
3.95481e-24
2.03403e-24
0.100591
0.279666
0.522166
0.663007
0.511716
0.896977
0.935939
0.934717
0.806376
0.803368
0.672174
0.400603
0.119904
0.0627006
0.024131
0.010153
0.498323
0.37209
0.0638179
0.0096665
0.655435
0.655329
0.433126
0.0978556
0.631783
0.655572
0.655879
0.430405
0.00306321
0.0196723
0.114625
0.377619
3.0185e-06
1.08504e-05
2.23054e-05
1.06276e-05
2.4121e-07
2.37453e-07
2.36182e-07
2.29055e-07
2.29258e-07
2.29608e-07
2.29258e-07
2.92e-07
4.16779e-07
4.09709e-07
4.55136e-07
4.0108e-07
9.66224e-07
1.16512e-06
1.26571e-06
1.22001e-06
1.14498e-06
1.20182e-06
1.59596e-06
2.13412e-06
1.37456e-06
1.41077e-06
1.40607e-06
1.62767e-06
1.81045e-06
1.85178e-06
2.81389e-06
2.9441e-06
1.9269e-06
2.82309e-06
2.99533e-06
2.99468e-06
1.91471e-06
2.3681e-06
2.99365e-06
2.99696e-06
1.14187e-06
1.09673e-06
1.66575e-06
1.47716e-06
3.18493e-07
3.44281e-07
4.01991e-07
3.45034e-07
1.30203e-07
1.30831e-07
1.02618e-07
8.50743e-08
3.4885e-08
3.19363e-08
2.67815e-08
1.46205e-08
6.11648e-09
5.21067e-09
2.91555e-09
2.01833e-09
1.51057e-09
1.22173e-09
7.76256e-10
4.87328e-10
7.10804e-10
5.19455e-10
3.88445e-10
2.01648e-10
3.324e-10
2.0182e-10
1.37297e-10
8.58857e-11
1.10022e-10
7.12566e-11
4.48387e-11
2.70239e-11
2.96835e-11
1.87298e-11
1.1312e-11
6.52821e-12
6.31244e-12
3.92898e-12
2.29079e-12
1.26657e-12
1.17876e-12
6.96282e-13
3.86062e-13
2.02925e-13
1.88836e-13
1.04858e-13
5.48752e-14
2.72618e-14
2.60144e-14
1.35222e-14
6.6468e-15
3.11235e-15
3.10882e-15
1.50692e-15
6.93782e-16
3.10226e-16
3.25054e-16
1.46552e-16
6.35826e-17
3.07205e-17
3.0042e-17
1.26229e-17
5.50637e-18
5.47851e-18
2.48629e-18
9.98867e-19
6.53547e-19
2.56741e-18
1.87839e-19
8.50996e-20
1.87927e-19
1.50897e-18
1.36129e-20
1.24803e-20
8.29545e-20
8.03492e-19
1.12884e-21
3.56945e-21
3.58149e-20
3.7777e-19
1.5371e-22
1.23179e-21
1.4182e-20
1.62412e-19
3.61511e-23
4.27537e-22
5.45588e-21
6.98409e-20
3.78226e-23
5.58031e-22
8.30603e-21
1.22861e-19
0.884199
0.894564
0.986913
0.986911
0.986911
0.98691
0.98691
0.90674
0.453063
0.193336
0.195139
0.207148
0.385073
0.664943
0.872041
0.943268
0.912223
0.853923
0.838888
0.865862
0.828921
0.957352
0.986715
0.98691
0.98691
0.986909
0.982069
0.749219
0.326726
0.218391
0.22918
0.317651
0.539722
0.808079
0.944433
0.950854
0.85992
0.750127
0.207985
0.153202
0.258157
0.685284
0.956291
0.981315
0.986173
0.98489
0.863846
0.49427
0.344575
0.341737
0.374124
0.539204
0.743632
0.919764
0.951217
0.8699
0.625118
0.00966538
0.00968351
0.00968667
0.0409625
0.381322
0.873214
0.965764
0.967407
0.873296
0.63204
0.492438
0.465684
0.478998
0.57796
0.757958
0.909625
0.951523
0.834079
0.544823
0.00967463
0.00967665
0.00968267
0.0115823
0.200652
0.759862
0.92775
0.93173
0.88535
0.721664
0.580752
0.529085
0.557718
0.670279
0.812859
0.917334
0.922621
0.650553
0.510071
0.0208516
0.00968182
0.010216
0.129864
0.625163
0.872836
0.885243
0.872221
0.83979
0.743909
0.668034
0.6536
0.730865
0.81868
0.874012
0.881336
0.734283
0.544868
0.504412
0.11191
0.0391127
0.1215
0.459135
0.855097
0.876939
0.875574
0.836901
0.772115
0.720407
0.72188
0.805807
0.828446
0.828265
0.804301
0.642982
0.551996
0.523958
0.511608
0.676985
0.751041
0.754212
0.793696
0.871356
0.876936
0.876422
0.826742
0.683731
0.506506
0.507781
0.683044
0.796385
0.729387
0.612628
0.545796
0.54284
0.54423
0.58169
0.0706209
0.304203
0.396748
0.392033
0.465018
0.782079
0.876477
0.864903
0.729362
0.499294
0.465917
0.466039
0.519645
0.581624
0.584442
0.593286
0.637526
0.714043
0.731866
4.63459e-05
0.00173328
0.00931241
0.0131383
0.0187691
0.210855
0.709655
0.865692
0.841165
0.725966
0.625663
0.600341
0.600054
0.612983
0.673827
0.762754
0.816931
0.84326
0.861211
3.50776e-07
3.77759e-07
5.76969e-07
1.01478e-06
3.25498e-05
0.00552749
0.133269
0.600265
0.815426
0.756854
0.642216
0.652033
0.688865
0.733519
0.784045
0.781416
0.660742
0.627692
0.838718
3.05396e-07
2.05435e-07
2.06688e-07
4.73868e-07
1.06536e-06
6.69389e-06
0.00137045
0.0482499
0.325029
0.61908
0.660542
0.717239
0.793162
0.806237
0.765721
0.258641
0.0397986
0.0449173
0.208952
1.03743e-06
5.33556e-07
2.05572e-07
2.31559e-07
5.70078e-07
9.48953e-07
1.24516e-06
0.000156206
0.0193761
0.288362
0.770677
0.838486
0.837967
0.769405
0.215979
0.000260075
2.51512e-06
2.80551e-05
0.000492773
2.41128e-06
1.42425e-06
3.24845e-07
1.42745e-07
2.70725e-07
5.78773e-07
8.55948e-07
1.20946e-06
8.23548e-05
0.0197055
0.284745
0.654626
0.664787
0.225985
0.0027085
1.45305e-06
1.41944e-06
1.41338e-06
1.38094e-06
2.90863e-06
1.88359e-06
6.06732e-07
1.56785e-07
2.03526e-07
2.18087e-07
3.82838e-07
7.91645e-07
1.79421e-06
0.000115938
0.00277485
0.0156942
0.0235482
0.00501769
3.81404e-06
1.42291e-06
1.41989e-06
1.42764e-06
1.37445e-06
2.95568e-06
1.6255e-06
4.89247e-07
1.82508e-07
7.33595e-08
1.55273e-07
1.52148e-07
5.04615e-07
1.60289e-06
2.0305e-06
6.75487e-06
4.27534e-05
5.52812e-05
1.28352e-05
3.67101e-06
4.36279e-06
5.93609e-06
2.17387e-06
1.46044e-06
2.84028e-06
1.22983e-06
3.05111e-07
1.16414e-07
5.77362e-08
6.60949e-08
1.3777e-07
2.96971e-07
1.79157e-06
1.9983e-06
2.02745e-06
2.01204e-06
2.08247e-06
5.40646e-06
7.36201e-06
2.025e-05
2.27859e-05
5.12581e-06
1.52528e-06
1.58615e-06
5.98401e-07
1.66882e-07
6.54756e-08
3.30874e-08
5.76383e-08
1.04372e-07
1.43506e-07
3.25394e-07
2.08487e-06
2.22297e-06
2.27119e-06
3.44267e-06
5.10585e-06
1.93109e-05
2.36359e-05
2.35348e-05
6.39608e-06
1.52655e-06
5.74185e-07
1.65296e-07
6.2434e-08
2.22071e-08
1.30293e-08
3.1864e-08
6.64523e-08
9.71027e-08
1.72099e-07
4.12356e-07
1.06531e-06
1.57852e-06
1.75692e-06
1.63356e-06
8.71064e-06
2.36032e-05
1.78735e-05
3.05448e-06
1.61369e-06
1.33092e-07
5.4471e-08
1.82426e-08
6.04498e-09
3.54374e-09
1.10124e-08
3.12756e-08
4.79475e-08
8.24002e-08
1.42048e-07
2.63754e-07
4.61335e-07
6.87903e-07
8.32574e-07
1.00328e-06
1.94103e-05
1.22013e-05
2.10086e-06
1.57005e-06
3.2896e-08
1.09805e-08
3.21124e-09
1.09989e-09
1.26742e-09
4.78404e-09
8.63026e-09
1.29228e-08
2.54973e-08
5.49479e-08
8.64236e-08
1.15878e-07
1.54345e-07
3.84819e-07
6.18651e-07
5.19933e-06
1.18121e-05
3.30848e-06
1.58139e-06
4.4515e-09
1.02386e-09
3.13692e-10
2.81348e-10
7.13618e-10
1.11113e-09
1.69698e-09
2.71203e-09
5.33132e-09
1.23402e-08
2.75181e-08
4.72644e-08
7.46763e-08
2.84033e-07
5.20772e-07
1.72272e-06
1.03684e-05
5.36083e-06
1.5598e-06
5.54914e-10
2.12904e-10
1.07166e-10
9.48509e-11
1.50872e-10
2.69942e-10
4.40157e-10
9.9372e-10
2.60838e-09
7.22894e-09
1.89075e-08
4.27461e-08
1.20638e-07
2.7607e-07
5.07676e-07
1.1488e-06
1.00698e-05
6.17881e-06
1.56606e-06
2.17332e-10
9.39949e-11
4.454e-11
2.87941e-11
3.03067e-11
5.68921e-11
1.63052e-10
5.27599e-10
1.92986e-09
7.21721e-09
2.01022e-08
4.58802e-08
2.06839e-07
3.85377e-07
6.02399e-07
9.32106e-07
6.90892e-06
4.54287e-06
1.48006e-06
8.78614e-11
3.68949e-11
1.61116e-11
9.89593e-12
1.15109e-11
2.43205e-11
7.44193e-11
3.03818e-10
1.44706e-09
6.15771e-09
1.75615e-08
4.04069e-08
2.9887e-07
5.94797e-07
8.05408e-07
1.07233e-06
3.48909e-06
2.21122e-06
1.43653e-06
3.36023e-11
1.26428e-11
5.05707e-12
3.2155e-12
4.5439e-12
1.14318e-11
3.96251e-11
1.89394e-10
9.52636e-10
4.42791e-09
1.89693e-08
4.7888e-08
4.25467e-07
8.67592e-07
1.13217e-06
1.36966e-06
2.56203e-06
1.9507e-06
1.29976e-06
9.7633e-12
3.36628e-12
1.28922e-12
9.45179e-13
1.90849e-12
6.7081e-12
3.01736e-11
1.28035e-10
5.20565e-10
3.22238e-09
2.58638e-08
6.80196e-08
5.80822e-07
2.18267e-06
6.63696e-06
7.6902e-06
6.4454e-06
1.99685e-06
1.23134e-06
2.20163e-12
7.0301e-13
2.84601e-13
3.56929e-13
1.33088e-12
6.37492e-12
3.10304e-11
9.637e-11
3.49559e-10
3.05887e-09
2.74142e-08
8.27526e-08
6.70982e-07
6.50861e-06
3.44607e-05
3.5951e-05
1.9206e-05
4.55713e-06
1.42111e-06
3.98745e-13
1.21114e-13
7.43566e-14
2.36712e-13
1.2739e-12
6.99078e-12
3.5374e-11
1.03314e-10
3.11068e-10
2.87857e-09
2.37632e-08
8.42303e-08
6.22615e-07
7.45728e-06
3.35244e-05
3.59553e-05
3.58985e-05
9.90491e-06
2.21057e-06
5.95071e-14
2.02797e-14
3.50597e-14
2.02898e-13
1.29284e-12
7.90863e-12
4.29561e-11
1.60972e-10
6.33817e-10
3.23464e-09
1.56173e-08
7.47307e-08
4.49565e-07
1.37725e-06
3.95094e-06
2.31842e-05
1.69721e-05
1.01526e-05
2.17714e-06
7.64805e-15
5.05733e-15
2.56773e-14
1.9229e-13
1.40358e-12
9.52708e-12
5.60039e-11
2.59236e-10
1.16131e-09
4.93299e-09
1.76297e-08
6.47869e-08
2.77696e-07
8.78989e-07
1.4267e-06
1.65732e-06
5.64717e-06
4.79666e-06
1.08737e-06
1.01544e-15
2.66955e-15
2.28626e-14
1.99858e-13
1.6322e-12
1.20727e-11
7.56724e-11
3.62281e-10
1.87185e-09
8.47603e-09
2.88566e-08
8.43047e-08
2.67944e-07
5.56017e-07
9.15348e-07
1.2475e-06
4.82899e-06
1.81736e-06
4.33843e-07
2.44836e-16
1.96012e-15
2.04729e-14
2.02239e-13
1.83426e-12
1.47842e-11
9.79826e-11
4.83523e-10
3.04882e-09
1.43281e-08
4.59073e-08
1.2423e-07
4.1864e-07
6.17948e-07
8.55148e-07
1.25502e-06
3.0225e-06
9.8798e-07
3.66718e-07
1.26898e-16
1.52052e-15
1.80695e-14
1.9925e-13
1.99372e-12
1.72603e-11
1.19122e-10
6.37131e-10
4.39902e-09
2.05827e-08
6.32571e-08
2.39408e-07
6.4297e-07
9.24405e-07
1.1334e-06
3.54945e-06
1.48706e-06
7.17957e-07
1.73505e-07
8.46262e-17
1.18252e-15
1.55763e-14
1.87162e-13
1.99697e-12
1.77095e-11
1.23076e-10
7.45791e-10
5.0694e-09
2.48286e-08
7.82371e-08
3.64108e-07
8.0754e-07
1.32596e-06
2.57905e-06
3.69485e-06
9.46496e-07
2.95535e-07
1.09041e-07
5.43796e-17
8.28726e-16
1.16637e-14
1.46282e-13
1.57663e-12
1.35781e-11
8.17081e-11
6.61047e-10
4.25826e-09
2.11482e-08
6.87448e-08
2.74916e-07
8.41285e-07
1.55166e-06
2.83989e-06
1.97913e-06
5.07796e-07
1.45451e-07
3.46239e-08
3.04344e-17
4.8959e-16
7.13314e-15
9.03822e-14
9.62069e-13
8.0819e-12
5.0771e-11
4.3024e-10
2.59965e-09
1.18467e-08
4.33025e-08
1.35533e-07
5.7911e-07
8.88122e-07
1.36849e-06
5.5082e-07
2.17389e-07
4.48308e-08
9.00861e-09
1.45157e-17
2.42554e-16
3.6157e-15
4.61058e-14
4.871e-13
4.00673e-12
2.30543e-11
2.33305e-10
1.04982e-09
3.96025e-09
1.45617e-08
4.858e-08
2.47831e-07
3.34623e-07
3.18959e-07
1.84038e-07
8.75398e-08
1.61416e-08
3.94768e-09
6.05996e-18
1.05923e-16
1.64771e-15
2.20165e-14
2.47796e-13
2.26354e-12
1.63761e-11
1.43483e-10
7.27535e-10
2.70889e-09
6.64048e-09
1.18791e-08
5.35985e-08
7.54937e-08
6.34825e-08
3.69943e-08
1.50142e-08
9.66813e-09
3.68458e-09
2.39095e-18
4.65446e-17
8.28292e-16
1.31541e-14
1.82208e-13
2.0632e-12
1.80558e-11
1.31123e-10
6.71684e-10
2.26146e-09
3.49451e-09
2.42943e-09
8.96406e-09
1.22519e-08
1.1523e-08
7.65429e-09
6.44233e-09
5.81123e-09
3.19003e-09
1.026e-18
2.71332e-17
6.60294e-16
1.29189e-14
1.95507e-13
2.17844e-12
1.71673e-11
1.04561e-10
3.90037e-10
7.69922e-10
7.60434e-10
6.5915e-10
1.02956e-09
1.99956e-09
2.56265e-09
2.01157e-09
2.34213e-09
2.50344e-09
1.56013e-09
1.78377e-18
4.57858e-17
8.82682e-16
1.26485e-14
1.36324e-13
1.13097e-12
7.0948e-12
1.5632e-11
1.76969e-11
1.55679e-11
8.89347e-12
7.89099e-12
7.55615e-12
2.22785e-11
1.4702e-10
2.28893e-10
4.63894e-10
5.50692e-10
4.01857e-10
)
;

boundaryField
{
    leftWall
    {
        type            zeroGradient;
    }
    rightWall
    {
        type            zeroGradient;
    }
    lowerWall
    {
        type            zeroGradient;
    }
    atmosphere
    {
        type            inletOutlet;
        inletValue      uniform 0;
        value           nonuniform List<scalar> 
46
(
5.12636e-29
1.04609e-29
6.33666e-29
4.08432e-28
2.75425e-27
1.91691e-26
1.11609e-25
5.20272e-25
1.98521e-24
6.40647e-24
1.79038e-23
4.44977e-23
9.87252e-23
2.15766e-22
4.0988e-22
5.47313e-22
4.98177e-22
3.57805e-22
1.87905e-22
6.93936e-23
1.88224e-23
3.95481e-24
2.03403e-24
3.78226e-23
5.58031e-22
8.30603e-21
1.22861e-19
0
0
0
0
0
0
0
0
0
0
0
0
0
0
0
0
0
0
0
)
;
    }
    defaultFaces
    {
        type            empty;
    }
}


// ************************************************************************* //
