/*--------------------------------*- C++ -*----------------------------------*\
| =========                 |                                                 |
| \\      /  F ield         | OpenFOAM: The Open Source CFD Toolbox           |
|  \\    /   O peration     | Version:  2.4.0                                 |
|   \\  /    A nd           | Web:      www.OpenFOAM.org                      |
|    \\/     M anipulation  |                                                 |
\*---------------------------------------------------------------------------*/
FoamFile
{
    version     2.0;
    format      ascii;
    class       volScalarField;
    location    "0.85";
    object      alpha.water;
}
// * * * * * * * * * * * * * * * * * * * * * * * * * * * * * * * * * * * * * //

dimensions      [0 0 0 0 0 0 0];

internalField   nonuniform List<scalar> 
2268
(
1.02184e-07
1.01403e-07
3.24579e-08
2.99432e-08
2.75084e-08
2.14334e-08
1.71222e-08
1.64131e-08
1.66126e-08
1.52023e-08
1.26146e-08
1.14368e-08
1.22235e-08
1.31398e-08
1.06041e-08
7.09974e-09
5.34611e-09
4.88075e-09
4.95266e-09
5.24677e-09
1.94182e-09
6.40556e-10
3.92077e-10
0.000465673
0.00030528
4.71512e-05
1.22758e-05
6.10838e-06
1.88973e-06
3.12446e-07
1.13448e-07
9.24912e-08
6.87232e-08
4.36232e-08
4.16471e-08
4.72079e-08
4.774e-08
3.49157e-08
2.81117e-08
2.09735e-08
1.78442e-08
1.97571e-08
2.06898e-08
1.3871e-08
1.75207e-09
1.40816e-09
0.21861
0.176546
0.101323
0.0155999
0.00064833
3.28273e-05
3.62689e-06
8.00179e-07
5.30393e-07
4.1816e-07
2.97378e-07
2.73478e-07
2.78055e-07
2.06389e-07
9.54883e-08
6.52865e-08
5.75929e-08
7.35687e-08
1.02957e-07
1.04722e-07
3.50172e-08
1.12551e-08
5.6417e-09
0.995344
0.992222
0.954436
0.758389
0.380046
0.0502011
0.00196801
0.000140738
2.688e-05
9.05043e-06
3.02034e-06
1.47879e-06
1.15286e-06
8.86044e-07
4.819e-07
2.77066e-07
2.42188e-07
2.87111e-07
3.48512e-07
3.18329e-07
1.25177e-07
7.14083e-08
4.16311e-07
0.999995
0.999994
0.999929
0.996346
0.90621
0.390629
0.0361318
0.00214205
0.000220337
5.32823e-05
1.91747e-05
1.09206e-05
3.26144e-05
9.04687e-05
0.000105019
5.71273e-05
1.3887e-05
1.8765e-06
9.63718e-07
1.01145e-06
3.79492e-06
6.01399e-05
0.000598877
0.999994
0.999995
0.999995
0.999847
0.97598
0.682316
0.161279
0.015834
0.00178658
0.000337375
0.000473609
0.00273039
0.00976565
0.0184427
0.0202399
0.014309
0.00659304
0.00222007
0.0011647
0.0010554
0.00239628
0.0127238
0.0660721
0.999993
0.999993
0.999994
0.999945
0.989585
0.817083
0.326963
0.0427034
0.00994478
0.0163905
0.0555936
0.141921
0.271022
0.376334
0.395804
0.350053
0.263292
0.180483
0.134904
0.118335
0.14649
0.309304
0.642049
0.999996
0.999996
0.999996
0.999989
0.997681
0.936209
0.650002
0.303625
0.231048
0.333289
0.518427
0.724389
0.880247
0.947561
0.956976
0.950012
0.928232
0.893504
0.859073
0.829653
0.832295
0.920155
0.923574
0.00555956
0.081411
0.0528016
0.0256107
0.0127134
0.00805358
0.00496951
0.0036335
0.00417772
0.0041442
0.00376005
0.00325844
0.001735
0.000713583
0.000195684
3.94496e-05
1.67874e-05
7.08454e-05
0.000119906
0.0969834
0.510693
0.527701
0.469558
0.36964
0.321082
0.259913
0.229346
0.241063
0.247593
0.240189
0.234171
0.190001
0.100649
0.0258584
0.0019652
3.91566e-05
0.000107009
0.000239915
0.607245
0.659293
0.725662
0.747924
0.755293
0.756672
0.758363
0.763625
0.771685
0.771669
0.773107
0.77282
0.584721
0.222613
0.0336548
0.00187851
4.33872e-05
9.82993e-05
0.000270545
0.512046
0.396245
0.486178
0.597296
0.685806
0.714425
0.704115
0.704182
0.717607
0.769091
0.774118
0.74274
0.504154
0.15736
0.0153261
0.00107538
4.46755e-05
0.000100281
0.000370321
0.285938
0.130897
0.148062
0.217098
0.340269
0.515922
0.690534
0.745888
0.754737
0.774772
0.774755
0.726048
0.443246
0.103594
0.00608575
0.000327909
4.73819e-05
0.000107581
0.000327022
0.261319
0.0485277
0.0254309
0.0314512
0.0551918
0.16159
0.479969
0.716733
0.775737
0.780979
0.769324
0.719166
0.456497
0.109108
0.00563864
0.000379254
5.32792e-05
0.000118895
0.000309179
0.174311
0.0211242
0.00959839
0.0128945
0.0130006
0.0187394
0.157089
0.590022
0.783659
0.789304
0.73106
0.697722
0.483308
0.125059
0.00797556
0.00400224
0.000611859
0.000119576
0.000294331
0.0558547
0.0115288
0.00584342
0.0118476
0.0119846
0.0127628
0.0320757
0.333972
0.753885
0.789396
0.768853
0.678765
0.515019
0.178902
0.0322246
0.0204369
0.0144919
0.00185132
0.00180309
0.999998
0.999998
0.999997
0.999996
0.999724
0.989843
0.948153
0.91407
0.913516
0.916465
0.938288
0.97228
0.990667
0.990497
0.990511
0.990333
0.987828
0.984185
0.983099
0.983054
0.982975
0.965833
0.918104
0.999994
0.999945
0.999805
0.999913
0.999941
0.999654
0.998321
0.997468
0.99777
0.998652
0.998751
0.99875
0.997602
0.988507
0.978091
0.973982
0.967405
0.957292
0.951927
0.953584
0.9513
0.893111
0.7166
0.992834
0.991743
0.989392
0.992966
0.998093
0.998955
0.998943
0.999072
0.999071
0.999072
0.998191
0.989178
0.946374
0.842031
0.773359
0.786546
0.80258
0.802395
0.80791
0.818676
0.736853
0.337377
0.0740699
0.828427
0.758925
0.802254
0.896201
0.974839
0.985566
0.990094
0.99295
0.992499
0.977736
0.913491
0.809487
0.614814
0.438561
0.330465
0.307837
0.390261
0.484321
0.536313
0.419034
0.189902
0.0249547
0.0074773
0.447751
0.198078
0.363863
0.674417
0.852779
0.884599
0.887417
0.865619
0.747494
0.554803
0.412183
0.288432
0.0959038
0.0405487
0.0519019
0.0992171
0.170008
0.226408
0.22945
0.152371
0.0372861
0.0119403
0.0217919
0.215441
0.153414
0.169051
0.29867
0.417456
0.445692
0.398239
0.290174
0.092575
0.00774921
0.0124014
0.0271989
0.0161443
0.0399973
0.0690469
0.0776472
0.0849465
0.0899185
0.08149
0.0288573
0.00291234
0.00341039
0.0180387
0.122214
0.0598142
0.0814531
0.129263
0.158116
0.155371
0.10376
0.0352635
0.000167113
1.00478e-06
2.60711e-05
0.000244872
0.00162667
0.0171565
0.0453452
0.0657659
0.0679056
0.0467471
0.0154009
0.0010842
2.61917e-05
0.000190811
0.0042458
0.0100579
0.00338332
0.00479044
0.00495442
0.00385842
0.00253924
0.00090175
0.000227907
5.84936e-06
1.77289e-09
5.57229e-09
3.2889e-07
6.87216e-05
0.00258833
0.0150479
0.0290988
0.0338699
0.0189385
0.00189837
9.22411e-06
1.04462e-07
5.64266e-07
1.34766e-06
8.99989e-05
1.88635e-05
1.70629e-05
1.09609e-05
6.02954e-06
3.03689e-06
6.30247e-07
1.38148e-07
2.20728e-08
1.16593e-09
1.26905e-09
2.35101e-09
6.6085e-07
0.000109643
0.00156476
0.0050016
0.00693753
0.00533453
0.000467853
1.74062e-06
2.38504e-08
1.06768e-08
8.70894e-09
1.46636e-07
1.89847e-08
8.12914e-09
5.35616e-09
3.09062e-09
1.40034e-09
1.40052e-09
1.40092e-09
1.40154e-09
1.47471e-09
1.60938e-09
1.5832e-09
2.22424e-09
6.01188e-07
2.79706e-05
0.000203166
0.000429509
0.000451441
9.31644e-05
3.31863e-06
8.68724e-08
1.34644e-08
7.68173e-09
6.39771e-09
6.39592e-09
6.40258e-09
8.12293e-09
7.77099e-09
2.14127e-09
1.40081e-09
1.40143e-09
1.45187e-09
1.66825e-09
2.30813e-09
2.35189e-09
1.38085e-09
9.74717e-10
7.06715e-08
1.15015e-06
4.33404e-06
7.01783e-06
6.52091e-06
4.41069e-06
3.18386e-07
4.04283e-08
9.58478e-09
6.41138e-09
8.0701e-09
7.09114e-09
1.32622e-08
5.36483e-09
1.51492e-09
1.721e-09
2.35946e-09
2.01945e-09
1.81808e-09
2.44298e-09
3.5609e-09
2.73559e-09
6.22443e-10
1.1289e-10
7.33834e-10
4.98332e-09
1.57006e-08
1.17863e-07
9.99267e-07
6.86552e-07
1.11887e-07
1.5431e-08
6.41791e-09
9.21994e-09
1.1308e-08
1.75596e-08
7.46203e-09
7.25822e-10
1.5431e-09
3.25296e-09
2.77846e-09
2.21164e-09
2.65281e-09
4.12297e-09
3.84624e-09
1.00569e-09
1.13247e-10
1.04918e-10
1.06927e-10
1.51343e-10
3.35318e-10
2.14234e-08
4.22185e-07
2.28065e-07
4.58842e-08
7.40148e-09
1.01893e-08
2.29794e-08
1.84956e-08
7.48414e-09
4.24333e-10
8.6183e-10
3.45324e-09
3.37654e-09
2.82041e-09
3.29719e-09
4.25757e-09
3.49526e-09
9.99746e-10
9.27952e-11
1.04643e-10
2.03485e-10
3.60051e-10
3.69855e-10
4.38767e-10
6.75823e-08
1.41372e-07
9.51202e-08
2.87919e-08
2.10317e-08
2.75155e-08
1.83907e-08
4.97203e-09
1.84352e-10
4.15509e-10
2.42002e-09
3.46525e-09
3.31735e-09
3.7267e-09
3.87427e-09
2.09216e-09
4.38704e-10
2.82467e-11
6.92717e-11
2.22986e-10
7.00987e-10
1.2888e-09
1.14976e-09
5.76102e-09
3.47999e-08
4.72694e-08
4.67788e-08
4.18373e-08
2.64091e-08
1.32719e-08
1.33057e-09
3.0957e-11
1.81067e-10
7.48865e-10
2.48503e-09
2.91125e-09
3.40043e-09
2.44774e-09
8.5834e-10
1.13026e-10
1.15251e-11
3.55207e-11
1.57899e-10
6.25534e-10
1.76945e-09
3.40959e-09
3.46497e-09
4.62924e-09
9.22304e-09
4.66919e-08
3.30916e-08
2.01841e-08
4.14657e-09
1.10364e-10
1.45227e-11
5.12646e-11
8.77216e-11
7.67027e-10
1.46839e-09
1.8961e-09
1.07852e-09
4.22179e-10
3.72422e-11
5.85744e-12
1.51108e-11
7.83857e-11
3.42046e-10
1.36139e-09
3.53038e-09
5.68363e-09
5.69813e-09
6.27814e-09
3.3885e-08
1.97695e-08
5.49037e-09
3.08238e-10
1.02091e-11
8.05383e-12
1.27784e-11
1.41645e-11
7.68323e-11
2.98128e-10
4.51101e-10
3.14563e-10
1.51617e-10
1.65321e-11
3.75267e-12
5.65925e-12
2.97566e-11
1.79357e-10
6.416e-10
2.22771e-09
5.45124e-09
7.23075e-09
7.25059e-09
1.39081e-08
6.18851e-09
3.87225e-10
9.76598e-12
5.98855e-12
4.26949e-12
6.45864e-12
8.43792e-12
1.0173e-11
2.10332e-11
3.2507e-11
6.85288e-11
5.18438e-11
9.969e-12
2.20258e-12
1.89752e-12
9.64745e-12
6.29524e-11
2.49831e-10
1.04222e-09
2.75764e-09
5.78433e-09
6.96696e-09
1.64091e-09
3.2848e-10
9.2473e-12
5.01041e-12
3.0457e-12
2.08447e-12
2.89618e-12
4.14385e-12
5.55821e-12
8.37798e-12
8.35391e-12
1.33735e-11
1.49714e-11
4.80631e-12
1.13542e-12
6.01267e-13
2.90141e-12
8.13183e-12
9.46049e-11
3.79105e-10
1.24129e-09
2.55255e-09
3.69398e-09
6.60994e-11
6.94866e-12
4.08574e-12
2.40873e-12
1.3731e-12
9.30306e-13
1.19838e-12
1.78469e-12
2.47285e-12
3.64934e-12
3.8774e-12
6.64929e-12
5.66144e-12
1.94977e-12
4.78199e-13
1.82478e-13
7.52587e-13
2.85401e-12
1.03865e-11
7.41012e-11
3.73354e-10
9.75316e-10
1.53625e-09
3.80615e-12
3.04327e-12
1.80236e-12
1.00885e-12
5.55384e-13
3.78169e-13
4.60014e-13
6.93909e-13
9.64735e-13
1.46215e-12
1.5352e-12
2.62342e-12
1.90701e-12
6.73974e-13
1.70757e-13
5.31117e-14
1.68523e-13
8.20798e-13
2.85901e-12
7.43182e-12
6.50332e-11
2.41979e-10
4.24664e-10
1.85681e-12
1.21815e-12
6.92032e-13
3.73669e-13
2.02515e-13
1.39642e-13
1.63352e-13
2.45701e-13
3.38937e-13
5.19424e-13
5.41167e-13
8.48926e-13
5.69867e-13
2.06131e-13
5.44823e-14
1.51314e-14
3.27759e-14
1.9014e-13
6.91955e-13
1.63801e-12
7.5006e-12
4.09392e-11
6.41114e-11
7.23378e-13
4.25407e-13
2.34348e-13
1.23679e-13
6.6664e-14
4.67211e-14
5.33996e-14
7.94293e-14
1.08034e-13
1.64495e-13
1.70101e-13
2.37606e-13
1.5267e-13
5.66481e-14
1.57005e-14
4.176e-15
5.71313e-15
3.60128e-14
1.4246e-13
3.22638e-13
1.15992e-12
5.48741e-12
6.58096e-12
2.42694e-13
1.32084e-13
7.09262e-14
3.68271e-14
1.9858e-14
1.4162e-14
1.60034e-14
2.34529e-14
3.13298e-14
4.68294e-14
4.8e-14
5.97032e-14
3.72095e-14
1.41669e-14
4.11784e-15
1.09596e-15
9.30034e-16
5.66667e-15
2.44793e-14
5.46939e-14
1.6326e-13
6.03847e-13
6.58093e-13
7.22224e-14
3.67806e-14
1.93119e-14
9.90895e-15
5.36376e-15
3.89149e-15
4.38386e-15
6.32753e-15
8.29e-15
1.20591e-14
1.22203e-14
1.3711e-14
8.33248e-15
3.24807e-15
9.85696e-16
2.67168e-16
1.48194e-16
7.58229e-16
3.52363e-15
7.98075e-15
2.12974e-14
5.87319e-14
5.81133e-14
1.93007e-14
9.23621e-15
4.7538e-15
2.4192e-15
1.31735e-15
9.71117e-16
1.0961e-15
1.56018e-15
2.00486e-15
2.82024e-15
2.81581e-15
2.89372e-15
1.71762e-15
6.82772e-16
2.14963e-16
5.96172e-17
2.40182e-17
8.77291e-17
4.2611e-16
9.96312e-16
2.50226e-15
5.32407e-15
4.92367e-15
4.66703e-15
2.10186e-15
1.06218e-15
5.37417e-16
2.94643e-16
2.2044e-16
2.50096e-16
3.51682e-16
4.43502e-16
6.01286e-16
5.90071e-16
5.63166e-16
3.26788e-16
1.31887e-16
4.26593e-17
1.20336e-17
3.93895e-18
8.98466e-18
4.38936e-17
1.06619e-16
2.55895e-16
4.48766e-16
3.97387e-16
1.02749e-15
4.35623e-16
2.16386e-16
1.09035e-16
6.0185e-17
4.56327e-17
5.21241e-17
7.25283e-17
8.98269e-17
1.17095e-16
1.12652e-16
1.00855e-16
5.72724e-17
2.33212e-17
7.67198e-18
2.18228e-18
6.31672e-19
8.40691e-19
3.8819e-18
9.75597e-18
2.24052e-17
3.43607e-17
2.90489e-17
2.06973e-16
8.25281e-17
4.03233e-17
2.02588e-17
1.12521e-17
8.63375e-18
9.93902e-18
1.37044e-17
1.66793e-17
2.08913e-17
1.96643e-17
1.66384e-17
9.25255e-18
3.77845e-18
1.25166e-18
3.55006e-19
9.51596e-20
7.45785e-20
2.99237e-19
7.71256e-19
1.68088e-18
2.32563e-18
1.85667e-18
3.83268e-17
1.43515e-17
6.90033e-18
3.45903e-18
1.93145e-18
1.4974e-18
1.73748e-18
2.3761e-18
2.84322e-18
3.42247e-18
3.14428e-18
2.52812e-18
1.37598e-18
5.59802e-19
1.8483e-19
5.17483e-20
1.31203e-20
6.52863e-21
2.04394e-20
5.30764e-20
1.08694e-19
1.37638e-19
1.02613e-19
6.5494e-18
2.29849e-18
1.08772e-18
5.44253e-19
3.05207e-19
2.38779e-19
2.79247e-19
3.78974e-19
4.45945e-19
5.16207e-19
4.62053e-19
3.54423e-19
1.88546e-19
7.5917e-20
2.47487e-20
6.77323e-21
1.63363e-21
5.7411e-22
1.26349e-21
3.22329e-21
6.12845e-21
7.13018e-21
4.91815e-21
1.03673e-18
3.40225e-19
1.58474e-19
7.91605e-20
4.45348e-20
3.51223e-20
4.13865e-20
5.57494e-20
6.45149e-20
7.18743e-20
6.25872e-20
4.59199e-20
2.38323e-20
9.43804e-21
3.01237e-21
7.98885e-22
1.83166e-22
5.02362e-23
7.24852e-23
1.75202e-22
3.05471e-22
3.26518e-22
2.0678e-22
1.52527e-19
4.66968e-20
2.14093e-20
1.06765e-20
6.01966e-21
4.78156e-21
5.6753e-21
7.58886e-21
8.63617e-21
9.26676e-21
7.83949e-21
5.51162e-21
2.78407e-21
1.07789e-21
3.34248e-22
8.52404e-23
1.85134e-23
4.26111e-24
3.97157e-24
8.6817e-24
1.37026e-23
1.34226e-23
7.76171e-24
2.09217e-20
5.96187e-21
2.69023e-21
1.33939e-21
7.5617e-22
6.04584e-22
7.22549e-22
9.5904e-22
1.07313e-21
1.11026e-21
9.11605e-22
6.15092e-22
3.01688e-22
1.13564e-22
3.39709e-23
8.26881e-24
1.69188e-24
3.41463e-25
2.13611e-25
4.01305e-25
5.6554e-25
5.05664e-25
2.67111e-25
2.68362e-21
7.10474e-22
3.1548e-22
1.56803e-22
8.85661e-23
7.12332e-23
8.56842e-23
1.1288e-22
1.2417e-22
1.24034e-22
9.87909e-23
6.40552e-23
3.04491e-23
1.10951e-23
3.18346e-24
7.35056e-25
1.40901e-25
2.54979e-26
1.14685e-26
1.7772e-26
2.20877e-26
1.79403e-26
9.01574e-27
3.22771e-22
7.93073e-23
3.46495e-23
1.71891e-23
9.7051e-24
7.84886e-24
9.49734e-24
1.24153e-23
1.34222e-23
1.29591e-23
1.00078e-23
6.24175e-24
2.87091e-24
1.00888e-24
2.76414e-25
6.02557e-26
1.07753e-26
1.77035e-27
6.20031e-28
7.76974e-28
8.4255e-28
6.25048e-28
4.18758e-28
3.64982e-23
8.32587e-24
3.57829e-24
1.77109e-24
9.98831e-25
8.12122e-25
9.88206e-25
1.28119e-24
1.36043e-24
1.27034e-24
9.50824e-25
5.70953e-25
2.5364e-25
8.56375e-26
2.23093e-26
4.56914e-27
7.58886e-28
1.14046e-28
3.36896e-29
3.46924e-29
3.28085e-29
2.40752e-29
5.50169e-29
3.89231e-24
8.25819e-25
3.49391e-25
1.72378e-25
9.70011e-26
7.93036e-26
9.70223e-26
1.24622e-25
1.29767e-25
1.17132e-25
8.48323e-26
4.90086e-26
2.09666e-26
6.77236e-27
1.67008e-27
3.19977e-28
4.91678e-29
6.79404e-30
1.82315e-30
1.6178e-30
1.37581e-30
1.5198e-30
1.36352e-29
3.93635e-25
7.78944e-26
3.2481e-26
1.59557e-26
8.94759e-27
7.35845e-27
9.05389e-27
1.15116e-26
1.17291e-26
1.02154e-26
7.13649e-27
3.95326e-27
1.61871e-27
4.96334e-28
1.14767e-28
2.03779e-29
2.87515e-30
3.67777e-31
9.73971e-32
7.96249e-32
6.82582e-32
2.17719e-31
3.60192e-30
3.80142e-26
7.05307e-27
2.90616e-27
1.41998e-27
7.9275e-28
6.55329e-28
8.09594e-28
1.01653e-27
1.0111e-27
8.48139e-28
5.69867e-28
3.01627e-28
1.17486e-28
3.39035e-29
7.27046e-30
1.18156e-30
1.5122e-31
1.80102e-32
5.11231e-33
4.13276e-33
4.90639e-33
4.59363e-32
9.13305e-31
3.53344e-27
6.18763e-28
2.52409e-28
1.22465e-28
6.79934e-29
5.64695e-29
6.9863e-29
8.63206e-29
8.35928e-29
6.73748e-29
4.34191e-29
2.19113e-29
8.09329e-30
2.18703e-30
4.31711e-31
6.35457e-32
7.28112e-33
8.15511e-34
2.68606e-34
2.6271e-34
1.27173e-33
2.52259e-32
6.07808e-31
0.79149
0.588992
0.357131
0.250288
0.371918
0.0273546
0.00921308
0.00691875
0.0335679
0.00763559
0.00532522
0.00234398
0.0082532
0.00750232
0.00765778
0.000912858
0.0242085
0.024215
0.0179007
0.00353726
0.0242064
0.024254
0.0242273
0.0134551
0.0174791
0.0242559
0.024269
0.0236431
5.43654e-06
2.37392e-05
0.000489478
0.00507018
7.61493e-09
7.61672e-09
1.3651e-08
7.5348e-09
7.65827e-09
7.65098e-09
7.7184e-09
7.5536e-09
8.37149e-09
9.89548e-09
1.07007e-08
2.05346e-08
1.89394e-08
2.87394e-08
2.82241e-08
2.20258e-08
3.27057e-08
4.71339e-08
4.70123e-08
4.32945e-08
7.77981e-08
4.03042e-08
2.77497e-08
2.94123e-08
4.22778e-08
3.64944e-08
1.61998e-08
7.72892e-09
1.01734e-08
1.00319e-08
6.34556e-09
5.25756e-09
5.25443e-09
5.25219e-09
5.28329e-09
5.61147e-09
7.14947e-09
7.16926e-09
7.33393e-09
7.35159e-09
7.40617e-09
7.45192e-09
7.30139e-09
6.32704e-09
4.04845e-09
4.0306e-09
3.65085e-09
2.9733e-09
1.58415e-09
1.51866e-09
1.2213e-09
1.00225e-09
4.07853e-10
3.60393e-10
3.04189e-10
1.96669e-10
5.99919e-11
5.19596e-11
2.86493e-11
2.11045e-11
6.55008e-12
5.43789e-12
3.33605e-12
2.22062e-12
5.86287e-13
4.73176e-13
3.20859e-13
2.08977e-13
4.89483e-14
3.87627e-14
2.76931e-14
1.85559e-14
4.03091e-15
3.12573e-15
2.25632e-15
1.53043e-15
3.15697e-16
2.3664e-16
1.67138e-16
1.11216e-16
2.21346e-17
1.58571e-17
1.07331e-17
6.87959e-18
1.3421e-18
9.10325e-19
5.84773e-19
3.58722e-19
6.96862e-20
4.4442e-20
2.6983e-20
1.59047e-20
3.11111e-21
1.8561e-21
1.06841e-21
6.18204e-22
1.20993e-22
6.75555e-23
3.78548e-23
2.61457e-23
4.1914e-24
2.26259e-24
1.69288e-24
4.19416e-24
1.37534e-25
1.07616e-25
3.53066e-25
2.3963e-24
6.47554e-27
2.33193e-26
1.80422e-25
1.49348e-24
1.18151e-27
1.00634e-26
9.21004e-26
8.43114e-25
4.16027e-28
4.24497e-27
4.24642e-26
4.22077e-25
1.46387e-28
1.63086e-27
1.76904e-26
1.90086e-25
4.82026e-29
5.78033e-28
6.79918e-27
7.95363e-26
1.52091e-29
1.97629e-28
2.55441e-27
3.31929e-26
1.67066e-29
2.47592e-28
3.67422e-27
5.38372e-26
0.0644045
0.00712067
0.00397113
0.00373031
0.00360656
0.00640956
0.0125843
0.0931581
0.541701
0.77673
0.779307
0.753285
0.60245
0.32682
0.117901
0.0432174
0.0467407
0.0814667
0.091983
0.0029883
0.00184514
0.0012626
0.000641637
0.000500364
0.000490578
0.00254371
0.0164134
0.246506
0.670738
0.779237
0.756897
0.666554
0.456313
0.190894
0.0550471
0.0475542
0.133945
0.235809
0.000526032
8.39369e-05
0.000103384
0.00015756
0.000194256
0.000410498
0.00230727
0.0123005
0.135364
0.505147
0.654322
0.655378
0.614249
0.449556
0.255902
0.0800599
0.0471946
0.125989
0.360692
0.000183593
1.42048e-05
1.46293e-05
4.88335e-05
0.0015704
0.0096965
0.0164687
0.0281648
0.126173
0.367698
0.507368
0.534053
0.518596
0.417844
0.241779
0.0902771
0.0477678
0.164097
0.435879
0.00081456
2.64824e-05
3.37503e-05
0.000788571
0.0151276
0.0520906
0.0657008
0.0669087
0.114274
0.278224
0.419194
0.47086
0.442145
0.329314
0.187007
0.0825974
0.0772358
0.347566
0.46687
0.00182068
2.62518e-05
0.000129941
0.00593451
0.0390635
0.0798923
0.110956
0.127141
0.159732
0.255615
0.33131
0.346253
0.269086
0.181266
0.125909
0.11843
0.264019
0.448306
0.470413
0.00948766
0.00390692
0.00884797
0.0250939
0.049843
0.0889275
0.119721
0.159532
0.206237
0.228558
0.211671
0.182726
0.171406
0.171612
0.195289
0.354796
0.439794
0.463813
0.463406
0.0243175
0.0392931
0.0391524
0.0356684
0.0341277
0.0689759
0.113111
0.161176
0.19708
0.181187
0.174356
0.174646
0.197031
0.269073
0.385588
0.449848
0.448555
0.445233
0.404426
0.00101368
0.00516138
0.00693564
0.00531587
0.00575934
0.0217402
0.0747943
0.121613
0.178884
0.207214
0.216113
0.21591
0.320789
0.412235
0.411906
0.403105
0.357515
0.279546
0.262417
9.55653e-07
1.62923e-05
5.69847e-05
6.05322e-05
4.86123e-05
0.00197105
0.0212888
0.0702585
0.127262
0.248179
0.352641
0.388989
0.388626
0.379911
0.322524
0.22775
0.15441
0.123277
0.118727
3.76507e-08
5.27451e-08
7.34342e-08
9.90387e-08
1.34042e-07
1.80423e-05
0.00123245
0.0159393
0.0592065
0.133248
0.201942
0.304635
0.305897
0.261253
0.193462
0.0802785
0.0253068
0.0179732
0.0206982
1.60821e-08
1.57625e-08
2.66348e-08
9.31391e-08
1.45416e-07
1.42812e-07
2.19207e-06
0.000259854
0.00698607
0.0442603
0.116293
0.176055
0.185305
0.16461
0.0603421
0.00352255
0.000212458
0.000194097
0.0005914
2.41801e-08
1.58963e-08
1.42639e-08
5.35262e-08
1.62585e-07
2.24618e-07
2.21309e-07
1.08486e-06
0.000249139
0.00743389
0.0380948
0.0674401
0.0745988
0.0537268
0.00627594
2.63501e-07
4.89232e-08
3.15702e-07
7.53166e-07
3.18125e-08
2.83338e-08
9.94931e-09
7.19385e-09
5.74167e-08
1.94609e-07
2.29606e-07
2.04988e-07
1.25922e-06
0.000293991
0.00512103
0.014084
0.0162377
0.0056836
6.69445e-05
2.76827e-08
2.96263e-09
1.4446e-08
2.56945e-08
1.3487e-08
1.31282e-08
1.18046e-08
4.65344e-09
4.85538e-09
4.06999e-08
1.93221e-07
2.0736e-07
1.83589e-07
4.15401e-07
6.30033e-06
3.89963e-05
5.52028e-05
1.22848e-05
9.37025e-07
3.25586e-08
4.04269e-10
5.75445e-10
3.85296e-10
5.25806e-09
8.84856e-09
7.94486e-09
4.66273e-09
1.36103e-09
1.54702e-08
4.49617e-08
1.47933e-07
1.81303e-07
1.00011e-07
3.78825e-08
2.92053e-08
4.02986e-08
5.54562e-09
1.32385e-09
7.72137e-10
4.33571e-10
4.84355e-10
3.29035e-10
6.47551e-09
6.10896e-09
4.11579e-09
2.24206e-09
8.99704e-10
3.31163e-09
2.83323e-08
4.66512e-08
1.05375e-07
1.38977e-08
7.84298e-09
1.25229e-09
5.99401e-10
6.73369e-10
7.56171e-10
1.09112e-09
1.94791e-09
1.16127e-09
4.63217e-10
6.57383e-09
4.51283e-09
2.39389e-09
1.09851e-09
3.90065e-10
4.63805e-10
3.51732e-09
1.22024e-08
2.93035e-08
6.84206e-08
6.32496e-09
7.842e-10
6.03794e-10
4.58625e-09
8.46862e-09
9.67488e-09
5.41204e-09
1.51407e-09
5.56174e-10
4.06694e-09
2.05831e-09
9.46507e-10
3.56804e-10
1.28533e-10
1.06443e-10
3.31992e-10
1.65478e-09
1.15975e-08
4.57281e-08
4.65485e-08
4.45067e-08
2.784e-08
3.00495e-08
3.608e-08
2.81982e-08
9.13862e-09
1.55553e-09
6.44436e-10
1.59052e-09
7.5208e-10
2.76928e-10
8.86058e-11
3.04349e-11
2.26054e-11
3.71446e-11
1.3717e-10
1.97349e-09
1.30542e-08
2.10665e-08
2.88358e-08
4.2563e-08
4.47757e-08
4.47755e-08
3.23441e-08
9.33833e-09
1.6813e-09
6.44507e-10
4.63513e-10
1.6082e-10
4.58192e-11
1.25377e-11
5.12615e-12
4.73266e-12
6.48096e-12
1.16842e-11
1.00367e-10
1.86044e-09
3.67132e-09
5.69264e-09
8.89089e-09
1.67854e-08
1.71005e-08
9.67639e-09
4.99659e-09
1.81283e-09
6.29038e-10
6.38913e-11
1.38639e-11
3.45502e-12
1.36396e-12
9.8935e-13
1.15035e-12
1.84068e-12
3.71519e-12
8.90318e-12
3.49504e-11
1.69619e-10
5.20904e-10
1.13809e-09
2.93409e-09
2.83142e-09
1.72677e-09
2.07319e-09
1.69571e-09
5.05968e-10
5.17226e-12
1.6139e-12
5.51584e-13
2.79061e-13
2.31767e-13
3.28052e-13
6.94333e-13
1.83314e-12
5.56762e-12
1.81032e-11
5.5086e-11
1.62216e-10
4.16203e-10
7.84787e-10
1.00876e-09
1.1008e-09
1.46072e-09
1.14238e-09
3.96347e-10
7.12697e-13
2.34356e-13
8.97213e-14
5.17613e-14
5.33768e-14
1.03968e-13
2.88629e-13
1.01784e-12
4.30882e-12
1.94463e-11
6.71018e-11
1.8944e-10
5.10299e-10
7.83157e-10
1.00224e-09
1.19106e-09
1.43696e-09
1.02115e-09
3.46467e-10
7.90116e-14
2.9568e-14
1.25448e-14
8.68646e-15
1.24803e-14
3.24825e-14
1.19123e-13
5.89476e-13
3.63664e-12
2.16276e-11
9.7399e-11
2.8452e-10
8.00149e-10
1.20107e-09
1.42353e-09
1.58623e-09
1.55721e-09
8.94785e-10
3.07919e-10
7.82676e-15
3.2178e-15
1.52391e-15
1.40182e-15
2.78056e-15
8.79564e-15
4.42939e-14
3.3666e-13
2.96635e-12
2.15511e-11
1.20788e-10
3.77175e-10
1.08954e-09
1.59553e-09
1.85184e-09
1.94017e-09
1.65345e-09
8.14573e-10
2.49616e-10
6.80873e-16
2.95681e-16
1.67407e-16
2.19319e-16
5.37058e-16
1.92753e-15
1.42247e-14
1.84665e-13
2.07103e-12
1.8641e-11
1.23706e-10
4.19199e-10
1.30991e-09
1.96869e-09
2.31493e-09
2.21631e-09
1.48967e-09
7.26823e-10
1.55067e-10
5.05878e-17
2.29672e-17
1.75311e-17
3.13492e-17
8.59231e-17
3.65081e-16
4.182e-15
8.67465e-14
1.314e-12
1.36752e-11
1.03657e-10
4.01116e-10
1.33903e-09
2.17678e-09
2.35098e-09
2.08887e-09
1.37535e-09
7.58749e-10
1.11252e-10
3.19633e-18
1.59974e-18
1.78244e-18
3.92735e-18
1.19979e-17
6.45601e-17
9.2044e-16
2.45566e-14
5.70854e-13
6.67786e-12
6.4372e-11
3.03495e-10
1.10094e-09
1.94632e-09
2.21075e-09
2.00564e-09
1.66431e-09
8.26142e-10
8.11156e-11
1.75161e-19
1.13023e-19
1.8194e-19
5.06885e-19
2.04911e-18
1.35385e-17
1.61964e-16
3.27014e-15
8.41973e-14
1.8281e-12
1.79455e-11
1.79672e-10
6.96969e-10
1.55894e-09
2.0628e-09
2.12001e-09
1.82018e-09
6.38019e-10
3.96901e-11
8.92055e-21
9.62719e-21
2.91663e-20
1.53808e-19
1.02388e-18
7.49902e-18
6.08671e-17
6.95509e-16
1.455e-14
3.79619e-13
5.45689e-12
3.87777e-11
3.07403e-10
9.08915e-10
1.40393e-09
1.48595e-09
1.08763e-09
2.52944e-10
2.00987e-11
5.87251e-22
2.1111e-21
1.56649e-20
1.33355e-19
1.13233e-18
9.24675e-18
7.09901e-17
5.16265e-16
4.33277e-15
6.93683e-14
1.32688e-12
8.74517e-12
8.41042e-11
2.95099e-10
5.2501e-10
5.68749e-10
2.9977e-10
4.33403e-11
6.05701e-12
1.41576e-22
1.35676e-21
1.41903e-20
1.45188e-19
1.41662e-18
1.29251e-17
1.06854e-16
7.7067e-16
4.69678e-15
2.65836e-14
2.07769e-13
1.96798e-12
7.70253e-12
4.12646e-11
9.92491e-11
8.9258e-11
4.75446e-11
1.07615e-11
2.32936e-12
8.61067e-23
1.07523e-21
1.31816e-20
1.54324e-19
1.69229e-18
1.69099e-17
1.48269e-16
1.09421e-15
6.512e-15
3.00745e-14
1.05821e-13
3.40156e-13
1.00907e-12
3.24118e-12
6.40987e-12
8.95694e-12
5.48659e-12
2.01426e-12
7.64739e-13
5.65137e-23
8.10365e-22
1.12673e-20
1.47109e-19
1.75639e-18
1.85181e-17
1.6625e-16
1.22721e-15
7.19175e-15
3.24518e-14
1.05874e-13
2.75093e-13
6.23568e-13
1.32637e-12
2.27633e-12
2.37141e-12
1.29365e-12
6.44691e-13
3.81294e-13
3.36526e-23
5.31465e-22
8.00373e-21
1.1052e-19
1.3617e-18
1.45226e-17
1.30319e-16
9.59125e-16
5.60279e-15
2.56455e-14
8.53247e-14
2.52842e-13
5.85805e-13
9.38135e-13
1.18352e-12
9.79054e-13
5.16295e-13
2.97926e-13
2.34554e-13
1.74553e-23
2.9331e-22
4.59442e-21
6.43477e-20
7.87992e-19
8.25044e-18
7.25196e-17
5.26639e-16
3.07432e-15
1.44776e-14
5.05153e-14
1.6998e-13
4.00939e-13
5.55063e-13
6.27574e-13
4.4567e-13
2.40323e-13
1.36308e-13
1.50697e-13
7.8459e-24
1.37359e-22
2.19552e-21
3.07389e-20
3.7051e-19
3.78303e-18
3.22749e-17
2.27504e-16
1.29801e-15
6.05465e-15
2.17002e-14
7.36218e-14
1.91826e-13
2.32602e-13
2.37763e-13
1.62206e-13
9.53229e-14
5.26542e-14
9.35355e-14
3.15226e-24
5.77694e-23
9.55353e-22
1.37205e-20
1.68745e-19
1.7461e-18
1.48475e-17
1.0207e-16
5.57425e-16
2.41088e-15
8.16244e-15
2.19233e-14
5.84246e-14
6.27387e-14
5.97375e-14
4.26481e-14
2.82545e-14
1.91016e-14
5.29724e-14
1.20809e-24
2.4286e-23
4.42265e-22
7.06455e-21
9.70001e-20
1.08541e-18
9.35756e-18
6.11989e-17
3.05514e-16
1.14108e-15
3.35925e-15
6.73848e-15
1.38411e-14
1.2881e-14
1.2688e-14
9.664e-15
7.73844e-15
6.6903e-15
2.60222e-14
4.91413e-25
1.27128e-23
2.99285e-22
5.68626e-21
8.42293e-20
9.24016e-19
7.21181e-18
4.09228e-17
1.76829e-16
5.50225e-16
1.38859e-15
2.12878e-15
3.53308e-15
3.07965e-15
2.94614e-15
2.3139e-15
2.0375e-15
1.96225e-15
1.0202e-14
7.66846e-25
1.92147e-23
3.62296e-22
5.0939e-21
5.41213e-20
4.46465e-19
2.88528e-18
1.41806e-17
5.4209e-17
1.4391e-16
3.22839e-16
4.09662e-16
5.97303e-16
4.78552e-16
4.17951e-16
3.25505e-16
3.12532e-16
3.26331e-16
2.23787e-15
)
;

boundaryField
{
    leftWall
    {
        type            zeroGradient;
    }
    rightWall
    {
        type            zeroGradient;
    }
    lowerWall
    {
        type            zeroGradient;
    }
    atmosphere
    {
        type            inletOutlet;
        inletValue      uniform 0;
        value           nonuniform List<scalar> 
46
(
3.53344e-27
6.18763e-28
2.52409e-28
1.22465e-28
6.79934e-29
5.64695e-29
6.9863e-29
8.63206e-29
8.35928e-29
6.73748e-29
4.34191e-29
2.19113e-29
8.09329e-30
2.18703e-30
4.31711e-31
6.35457e-32
7.28112e-33
8.15511e-34
2.68606e-34
2.6271e-34
1.27173e-33
2.52259e-32
6.07808e-31
1.67066e-29
2.47592e-28
3.67422e-27
5.38372e-26
0
0
0
0
0
0
0
0
0
0
0
0
0
0
0
0
0
0
0
)
;
    }
    defaultFaces
    {
        type            empty;
    }
}


// ************************************************************************* //
