/*--------------------------------*- C++ -*----------------------------------*\
| =========                 |                                                 |
| \\      /  F ield         | OpenFOAM: The Open Source CFD Toolbox           |
|  \\    /   O peration     | Version:  2.4.0                                 |
|   \\  /    A nd           | Web:      www.OpenFOAM.org                      |
|    \\/     M anipulation  |                                                 |
\*---------------------------------------------------------------------------*/
FoamFile
{
    version     2.0;
    format      ascii;
    class       volScalarField;
    location    "0.85";
    object      alpha.mercury;
}
// * * * * * * * * * * * * * * * * * * * * * * * * * * * * * * * * * * * * * //

dimensions      [0 0 0 0 0 0 0];

internalField   nonuniform List<scalar> 
2268
(
1
1
1
1
1
1
1
1
1
1
1
1
1
1
1
1
1
1
1
1
0.999998
0.999994
0.999992
0.999534
0.999695
0.999953
0.999988
0.999994
0.999998
1
1
1
1
1
1
1
1
1
1
1
1
1
1
0.999999
0.999994
0.999989
0.78139
0.823454
0.898677
0.9844
0.999352
0.999967
0.999996
0.999999
0.999999
0.999999
1
1
1
1
1
1
1
1
1
1
0.999999
0.999996
0.999988
0.00465639
0.00777815
0.0455641
0.241611
0.619954
0.949799
0.998032
0.999859
0.999973
0.999991
0.999997
0.999998
0.999999
0.999999
0.999999
0.999999
1
0.999999
0.999999
0.999999
0.999998
0.999994
0.999988
4.96145e-06
5.99954e-06
7.09805e-05
0.00365387
0.09379
0.609371
0.963868
0.997858
0.99978
0.999947
0.999981
0.999989
0.999966
0.999907
0.999893
0.999941
0.999984
0.999997
0.999998
0.999997
0.999992
0.999932
0.999389
5.62861e-06
5.20056e-06
5.20085e-06
0.000153318
0.0240196
0.317684
0.838721
0.984166
0.998213
0.999662
0.999525
0.997265
0.990228
0.98155
0.979753
0.985684
0.993402
0.997777
0.998833
0.998942
0.997599
0.98726
0.933847
6.88868e-06
6.59663e-06
6.38501e-06
5.48085e-05
0.0104149
0.182917
0.673037
0.957296
0.990054
0.983606
0.944398
0.858068
0.728964
0.623637
0.604111
0.649788
0.736516
0.819325
0.864951
0.881588
0.853438
0.689862
0.354233
3.49145e-06
3.58039e-06
4.1013e-06
1.13532e-05
0.00231886
0.0637913
0.349998
0.696375
0.768949
0.666704
0.481561
0.275594
0.119711
0.0521489
0.0420542
0.0481189
0.0689594
0.102813
0.137258
0.167967
0.165569
0.0684672
0.0458747
0.867508
0.805537
0.83403
0.861094
0.873887
0.878451
0.880571
0.900966
0.907566
0.907736
0.908305
0.909057
0.910845
0.912042
0.912765
0.913099
0.913246
0.913135
0.913056
0.827014
0.327468
0.224639
0.196995
0.206479
0.23594
0.296127
0.325134
0.342359
0.398334
0.43738
0.440382
0.481556
0.61673
0.802916
0.910454
0.913347
0.913289
0.913134
0.139391
0.029705
0.00212618
0.000118888
5.09222e-05
4.21506e-05
4.31733e-05
4.51891e-05
5.5702e-05
6.25231e-05
8.47335e-05
0.00139227
0.0582033
0.279291
0.616269
0.887298
0.913556
0.913512
0.913142
0.018016
0.00850266
0.000695407
4.0114e-05
3.78764e-05
3.78356e-05
3.90314e-05
3.90926e-05
3.91077e-05
5.18446e-05
7.40164e-05
0.00223418
0.0635428
0.288223
0.586834
0.856521
0.913737
0.913688
0.908919
0.0172655
0.00803974
0.00029978
3.75386e-05
3.79173e-05
3.77953e-05
3.96444e-05
4.41442e-05
5.07887e-05
5.74731e-05
7.71986e-05
0.00215974
0.0672154
0.310523
0.642943
0.870144
0.906874
0.911656
0.908806
0.0500391
0.00713563
9.20228e-05
3.50788e-05
3.33421e-05
3.1446e-05
3.63528e-05
3.91394e-05
4.11186e-05
4.29403e-05
5.87315e-05
0.000814447
0.0350755
0.20168
0.420181
0.779811
0.905765
0.903349
0.897204
0.0481614
0.00180229
5.94629e-05
4.71961e-05
3.94693e-05
3.12328e-05
3.42476e-05
3.92428e-05
3.76348e-05
3.76117e-05
4.45e-05
0.000179897
0.0112934
0.0844008
0.14867
0.426282
0.879062
0.900405
0.887952
0.00691086
0.000368197
4.04752e-05
6.69164e-05
6.68504e-05
4.47418e-05
3.41391e-05
3.92075e-05
3.87525e-05
3.80138e-05
5.2085e-05
7.09421e-05
0.00264493
0.036083
0.0917964
0.102703
0.51084
0.7869
0.610741
1.68271e-06
1.83606e-06
2.0435e-06
3.32146e-06
0.00027575
0.0101554
0.0518463
0.0859294
0.0864835
0.0835332
0.0617063
0.0276722
0.00856795
0.0054649
0.0029045
0.00156884
0.00118925
0.00109064
0.00117609
0.00180849
0.00227055
0.00165473
0.00613776
2.1185e-07
2.87561e-07
4.03664e-07
9.59217e-07
2.37836e-05
0.00028977
0.00163108
0.00249892
0.00220933
0.00132927
0.00113916
0.000441048
0.000119248
4.51853e-05
2.29657e-05
1.44526e-05
9.67901e-06
7.90136e-06
7.92405e-06
8.57026e-06
1.14408e-05
1.80598e-05
2.69449e-05
1.83534e-08
2.07534e-08
2.87395e-08
8.30352e-08
3.04233e-07
1.72953e-05
0.000217157
0.000379723
0.00054138
0.00039278
0.000140152
3.80889e-05
1.40294e-05
7.2938e-06
4.88764e-06
4.17829e-06
3.40904e-06
3.11034e-06
3.41298e-06
6.11894e-06
3.11939e-05
5.79733e-05
5.78754e-05
5.37613e-10
6.86813e-10
1.05445e-09
2.99194e-09
1.56003e-08
6.52508e-08
3.98909e-06
1.00492e-05
1.5037e-05
7.03579e-06
3.01824e-06
1.29511e-06
6.06638e-07
4.48467e-07
6.80828e-07
1.12712e-06
1.68597e-06
3.62502e-06
1.61758e-05
4.59385e-05
5.81111e-05
5.80038e-05
3.9474e-05
4.10789e-11
2.55307e-11
4.94878e-11
2.60215e-10
1.05152e-09
1.3941e-09
6.993e-09
3.61058e-08
4.90357e-08
1.47226e-08
6.41644e-09
1.2454e-08
2.2033e-07
8.13084e-07
1.41003e-06
2.66503e-06
6.79502e-06
2.58259e-05
4.84143e-05
5.82274e-05
5.81412e-05
5.27721e-05
6.52303e-05
1.87304e-11
2.43424e-11
3.37374e-11
3.55719e-11
5.98246e-11
7.79837e-11
6.58826e-11
1.84106e-10
2.39729e-10
6.75522e-12
3.9861e-11
2.50508e-09
1.56709e-07
1.52515e-06
4.83172e-06
7.10416e-06
1.27538e-05
2.42349e-05
3.0759e-05
2.51228e-05
9.33012e-06
9.89826e-06
4.67385e-05
1.2638e-11
1.69866e-11
2.14205e-11
2.19698e-11
2.35214e-11
2.57627e-11
2.28492e-11
2.00598e-11
3.1256e-12
2.36524e-12
2.39053e-12
1.55278e-10
2.07388e-08
4.91754e-07
3.24401e-06
8.04138e-06
1.11096e-05
1.32288e-05
9.81485e-06
1.56019e-06
1.97787e-07
7.02448e-07
1.37041e-05
8.99136e-12
1.02697e-11
1.04833e-11
8.60622e-12
7.11659e-12
6.25872e-12
5.03128e-12
3.43317e-12
2.02041e-12
1.92272e-12
2.30973e-12
4.51676e-12
2.28558e-09
1.77408e-07
1.89883e-06
4.81569e-06
5.84837e-06
4.07245e-06
8.63523e-07
2.23669e-08
1.39879e-09
7.18236e-09
7.91475e-08
6.58679e-12
5.78077e-12
4.52321e-12
3.03518e-12
2.27444e-12
2.07789e-12
2.19278e-12
2.33413e-12
1.63449e-12
1.34762e-12
1.63671e-12
2.32326e-12
1.17544e-10
2.40179e-08
4.01042e-07
1.30923e-06
1.6642e-06
1.04039e-06
8.45345e-08
4.6519e-10
1.55398e-10
1.4337e-10
6.27471e-11
5.71763e-12
4.11565e-12
2.42341e-12
9.07029e-13
3.54654e-13
5.065e-13
1.04962e-12
1.61648e-12
1.39268e-12
9.10131e-13
8.89556e-13
1.42062e-12
2.8715e-12
9.80779e-10
2.66751e-08
1.19136e-07
1.88373e-07
1.45892e-07
1.54934e-08
2.62241e-10
1.05686e-10
8.5601e-11
5.67421e-11
5.3951e-12
3.7715e-12
2.11579e-12
8.91768e-13
3.45715e-13
1.45744e-13
4.1789e-13
1.03797e-12
1.19325e-12
7.61041e-13
4.27376e-13
5.47926e-13
1.03333e-12
6.22252e-12
3.86518e-10
2.47094e-09
4.95565e-09
5.48964e-09
2.1926e-09
4.25476e-10
9.63984e-11
7.98159e-11
6.13983e-11
4.97822e-12
3.69479e-12
2.19435e-12
8.3303e-13
1.37546e-13
4.48518e-14
1.32457e-13
5.56817e-13
9.18598e-13
6.95005e-13
2.77248e-13
1.67884e-13
3.4372e-13
7.93836e-13
1.45669e-12
8.5171e-12
3.01883e-11
6.16926e-11
1.8972e-10
3.61649e-10
1.34323e-10
8.77386e-11
6.95732e-11
4.21166e-12
3.27355e-12
1.93514e-12
7.51018e-13
1.53262e-13
1.7312e-14
3.62288e-14
2.4933e-13
6.15521e-13
5.59368e-13
2.36213e-13
8.32684e-14
9.81417e-14
2.84596e-13
6.62208e-13
2.55357e-12
3.75342e-12
6.42762e-12
1.22519e-11
8.6343e-11
1.51254e-10
1.07869e-10
8.74055e-11
3.16504e-12
2.5572e-12
1.41803e-12
5.09547e-13
1.08724e-13
1.14198e-14
1.03252e-14
9.84491e-14
3.68349e-13
3.78561e-13
1.81916e-13
6.09178e-14
3.14319e-14
8.82282e-14
3.31781e-13
1.21778e-12
3.23129e-12
6.57484e-12
1.1312e-11
1.69931e-11
9.6471e-11
1.05336e-10
9.91029e-11
2.10069e-12
1.73084e-12
8.80433e-13
2.96654e-13
6.38444e-14
7.42639e-15
3.55311e-15
3.67727e-14
1.9675e-13
2.18167e-13
1.12621e-13
3.79404e-14
1.22974e-14
2.98247e-14
1.64186e-13
7.25451e-13
2.45723e-12
6.10441e-12
1.14016e-11
1.68234e-11
3.50415e-11
7.01863e-11
8.59464e-11
1.24096e-12
9.98389e-13
4.66176e-13
1.48304e-13
3.16337e-14
3.96674e-15
1.36122e-15
1.35276e-14
9.00142e-14
1.07702e-13
5.74767e-14
1.90583e-14
5.02567e-15
1.10599e-14
7.71183e-14
4.04845e-13
1.62297e-12
4.88271e-12
1.06383e-11
1.73675e-11
2.4151e-11
3.48209e-11
5.40903e-11
6.43713e-13
4.87126e-13
2.0933e-13
6.26924e-14
1.29618e-14
1.69268e-15
5.10693e-16
4.836e-15
3.47377e-14
4.57937e-14
2.5112e-14
8.17842e-15
1.98016e-15
4.08015e-15
3.20914e-14
1.89711e-13
8.73038e-13
3.12024e-12
8.2477e-12
1.56101e-11
2.31162e-11
3.16505e-11
4.36888e-11
2.87504e-13
2.00573e-13
7.93436e-14
2.23887e-14
4.46773e-15
5.97761e-16
1.75433e-16
1.62945e-15
1.16545e-14
1.69798e-14
9.67764e-15
3.1537e-15
7.52441e-16
1.37775e-15
1.13487e-14
7.26567e-14
3.72385e-13
1.53655e-12
4.91666e-12
1.10852e-11
1.92782e-11
2.87262e-11
3.69111e-11
1.10372e-13
7.02574e-14
2.57128e-14
6.88532e-15
1.33406e-15
1.81209e-16
5.39501e-17
5.05663e-16
3.51884e-15
5.59616e-15
3.34225e-15
1.11488e-15
2.71834e-16
4.12572e-16
3.42809e-15
2.32677e-14
1.30098e-13
6.05e-13
2.28131e-12
6.06183e-12
1.25364e-11
2.17253e-11
2.84594e-11
3.6941e-14
2.12893e-14
7.27585e-15
1.86115e-15
3.51086e-16
4.79428e-17
1.48025e-17
1.4324e-16
9.7186e-16
1.65805e-15
1.03586e-15
3.5733e-16
8.97297e-17
1.09057e-16
8.96815e-16
6.43817e-15
3.90413e-14
2.0074e-13
8.61447e-13
2.62674e-12
6.31545e-12
1.2312e-11
1.67429e-11
1.09456e-14
5.66339e-15
1.82268e-15
4.47194e-16
8.21688e-17
1.12031e-17
3.6485e-18
3.7001e-17
2.46631e-16
4.43739e-16
2.8811e-16
1.02611e-16
2.63464e-17
2.55713e-17
2.06245e-16
1.57453e-15
1.02793e-14
5.72462e-14
2.71104e-13
9.27988e-13
2.51171e-12
5.15562e-12
7.05269e-12
2.90314e-15
1.34086e-15
4.09031e-16
9.65709e-17
1.72967e-17
2.34412e-18
8.15252e-19
8.72736e-18
5.75777e-17
1.07853e-16
7.24322e-17
2.65635e-17
6.93966e-18
5.38326e-18
4.19745e-17
3.40849e-16
2.37859e-15
1.40938e-14
7.17101e-14
2.69388e-13
7.93057e-13
1.62615e-12
2.16623e-12
6.95354e-16
2.85861e-16
8.29825e-17
1.88919e-17
3.30153e-18
4.43626e-19
1.66059e-19
1.88242e-18
1.23691e-17
2.3943e-17
1.65861e-17
6.25637e-18
1.66432e-18
1.03788e-18
7.61069e-18
6.49872e-17
4.79317e-16
2.99147e-15
1.60549e-14
6.45205e-14
1.99514e-13
3.978e-13
5.06355e-13
1.51351e-16
5.53415e-17
1.53094e-17
3.36295e-18
5.73212e-19
7.61174e-20
3.09015e-20
3.72011e-19
2.44595e-18
4.86901e-18
3.46879e-18
1.34058e-18
3.62215e-19
1.8576e-19
1.24034e-18
1.0998e-17
8.4839e-17
5.51388e-16
3.06129e-15
1.28145e-14
4.04085e-14
7.73243e-14
9.34394e-14
3.01142e-17
9.80458e-18
2.58579e-18
5.48237e-19
9.10822e-20
1.19223e-20
5.27562e-21
6.74459e-20
4.44941e-19
9.08193e-19
6.63916e-19
2.61775e-19
7.16112e-20
3.11123e-20
1.83402e-19
1.6682e-18
1.32795e-17
8.85011e-17
4.99901e-16
2.13569e-15
6.70708e-15
1.22012e-14
1.40565e-14
5.50011e-18
1.59806e-18
4.01713e-19
8.22035e-20
1.32968e-20
1.7109e-21
8.28704e-22
1.12434e-20
7.45674e-20
1.55592e-19
1.16256e-19
4.65282e-20
1.28473e-20
4.8919e-21
2.48562e-20
2.2866e-19
1.85223e-18
1.25186e-17
7.08867e-17
3.03052e-16
9.25682e-16
1.60202e-15
1.78925e-15
9.2563e-19
2.40659e-19
5.76304e-20
1.13835e-20
1.79216e-21
2.26335e-22
1.20154e-22
1.72668e-21
1.15255e-20
2.45092e-20
1.86226e-20
7.52492e-21
2.08551e-21
7.1927e-22
3.1356e-21
2.86558e-20
2.32754e-19
1.57166e-18
8.79468e-18
3.69702e-17
1.08653e-16
1.80683e-16
1.99104e-16
1.44031e-19
3.35986e-20
7.65692e-21
1.45896e-21
2.23322e-22
2.76288e-23
1.61101e-23
2.44802e-22
1.64529e-21
3.55749e-21
2.73622e-21
1.11085e-21
3.07539e-22
9.86907e-23
3.70109e-22
3.30786e-21
2.65997e-20
1.77293e-19
9.71578e-19
3.96632e-18
1.11086e-17
1.78711e-17
1.98771e-17
2.0791e-20
4.36412e-21
9.45702e-22
1.73745e-22
2.58388e-23
3.12742e-24
2.00252e-24
3.21001e-23
2.17206e-22
4.76176e-22
3.68963e-22
1.4963e-22
4.1162e-23
1.25502e-23
4.13104e-23
3.56497e-22
2.79904e-21
1.82088e-20
9.65966e-20
3.79448e-19
1.01114e-18
1.59091e-18
1.80819e-18
2.79146e-21
5.28476e-22
1.08794e-22
1.92581e-23
2.7794e-24
3.28486e-25
2.31193e-25
3.90233e-24
2.65725e-23
5.89257e-23
4.57964e-23
1.84531e-23
5.02097e-24
1.47877e-24
4.38122e-24
3.60159e-23
2.7314e-22
1.71926e-21
8.77797e-21
3.3053e-20
8.3694e-20
1.29391e-19
1.5031e-19
3.49631e-22
5.98425e-23
1.16947e-23
1.99354e-24
2.78994e-25
3.21486e-26
2.48446e-26
4.40611e-25
3.01764e-24
6.75492e-24
5.2404e-24
2.08702e-24
5.58781e-25
1.61145e-25
4.42894e-25
3.43798e-24
2.49667e-23
1.50971e-22
7.37534e-22
2.65223e-21
6.38592e-21
9.69859e-21
1.13534e-20
4.09528e-23
6.34914e-24
1.17698e-24
1.93107e-25
2.61809e-26
2.93685e-27
2.49113e-27
4.63325e-26
3.1893e-25
7.1922e-25
5.54618e-25
2.1724e-25
5.69614e-26
1.62875e-26
4.2764e-26
3.11116e-25
2.14638e-24
1.24076e-23
5.78123e-23
1.98182e-22
4.53104e-22
6.70373e-22
7.72887e-22
4.49853e-24
6.32728e-25
1.11192e-25
1.75498e-26
2.30306e-27
2.51148e-28
2.33648e-28
4.54899e-27
3.145e-26
7.13192e-26
5.4456e-26
2.08761e-26
5.33719e-27
1.53397e-27
3.95335e-27
2.67834e-26
1.74376e-25
9.58852e-25
4.24861e-24
1.38487e-23
2.99697e-23
4.26303e-23
4.72045e-23
4.64596e-25
5.93598e-26
9.88443e-27
1.50021e-27
1.90407e-28
2.01592e-29
2.05562e-29
4.18284e-28
2.90261e-27
6.60689e-27
4.97689e-27
1.85893e-27
4.61521e-28
1.35487e-28
3.50917e-28
2.20203e-27
1.34398e-26
6.99089e-26
2.93601e-25
9.0699e-25
1.84816e-24
2.48938e-24
2.59146e-24
4.52252e-26
5.2542e-27
8.28617e-28
1.20898e-28
1.4829e-29
1.52238e-30
1.70123e-30
3.61272e-29
2.51481e-28
5.73818e-28
4.25105e-28
1.54127e-28
3.70508e-29
1.13317e-29
3.00182e-29
1.73556e-28
9.85794e-28
4.82498e-27
1.91384e-26
5.57721e-26
1.06277e-25
1.33742e-25
1.29968e-25
4.15962e-27
4.39957e-28
6.56758e-29
9.20767e-30
1.09044e-30
1.08388e-31
1.32792e-31
2.93946e-30
2.05145e-29
4.68859e-29
3.40709e-29
1.19526e-29
2.77835e-30
9.07584e-31
2.48837e-30
1.32017e-29
6.92291e-29
3.16381e-28
1.17886e-27
3.22679e-27
5.71645e-27
6.67524e-27
6.47855e-27
3.62305e-28
3.49445e-29
4.93427e-30
6.64244e-31
7.58468e-32
7.28414e-33
9.80494e-33
2.25997e-31
1.58068e-30
3.61561e-30
2.57021e-30
8.69486e-31
1.95366e-31
7.032e-32
2.01112e-31
9.77196e-31
4.69493e-30
1.98732e-29
6.91035e-29
1.76386e-28
2.89062e-28
3.21007e-28
4.71224e-28
2.9951e-29
2.64073e-30
3.52289e-31
4.54635e-32
4.99348e-33
4.61857e-34
6.87488e-34
1.64841e-32
1.15483e-31
2.64091e-31
1.83109e-31
5.95243e-32
1.29415e-32
5.31972e-33
1.58993e-32
7.08002e-32
3.09866e-31
1.20646e-30
3.89072e-30
9.21936e-30
1.40508e-29
1.75479e-29
7.99735e-29
2.35638e-30
1.90349e-31
2.39782e-32
2.95822e-33
3.11229e-34
2.75763e-35
4.59992e-35
1.14612e-33
8.03381e-33
1.83347e-32
1.23364e-32
3.82584e-33
8.05497e-34
3.95496e-34
1.23574e-33
5.0625e-33
2.00919e-32
7.1327e-32
2.1182e-31
4.66158e-31
6.97986e-31
1.68098e-30
2.04754e-29
1.77341e-31
1.315e-32
1.56236e-33
1.83467e-34
1.83661e-35
1.54581e-36
2.95845e-36
7.65558e-35
5.36182e-34
1.21775e-33
7.8917e-34
2.30803e-34
4.70942e-35
2.90077e-35
9.41804e-35
3.57074e-34
1.28491e-33
4.1384e-33
1.12637e-32
2.33134e-32
4.29487e-32
3.04614e-31
5.40329e-30
1.28518e-32
8.7728e-34
9.85067e-35
1.10011e-35
1.04522e-36
8.34073e-38
1.89527e-37
4.96724e-36
3.45258e-35
7.77575e-35
4.82482e-35
1.3171e-35
2.62736e-36
2.11119e-36
7.01893e-36
2.47546e-35
8.08369e-35
2.35092e-34
5.85877e-34
1.22136e-33
4.47468e-33
6.79783e-32
1.36625e-30
9.03769e-34
5.71198e-35
6.08786e-36
6.46043e-37
5.82173e-38
4.44332e-39
1.29617e-38
3.20448e-37
2.16458e-36
4.78435e-36
2.83128e-36
7.2077e-37
1.44899e-37
1.55866e-37
5.20332e-37
1.70989e-36
5.06837e-36
1.33469e-35
3.2886e-35
1.28223e-34
1.74951e-33
3.75184e-32
9.02517e-31
0.0889109
0.107559
0.096491
0.0620588
5.31418e-05
3.37326e-05
3.83246e-05
3.04135e-05
3.42071e-05
2.49148e-05
2.90133e-05
1.53069e-05
1.62472e-05
1.53923e-05
1.2827e-05
2.17082e-06
6.65717e-05
6.65647e-05
5.26072e-05
1.09939e-05
6.65424e-05
6.65745e-05
6.65847e-05
2.67018e-05
4.59336e-05
5.78588e-05
4.94612e-05
3.66845e-05
2.37741e-07
3.53508e-07
4.92107e-07
3.49401e-06
8.22557e-11
8.86133e-11
5.18246e-11
5.14356e-11
5.58374e-11
5.52132e-11
5.40632e-11
5.10629e-11
5.46167e-11
5.47991e-11
5.58918e-11
1.16286e-10
5.82249e-11
5.76701e-11
5.95261e-11
8.41268e-11
7.72e-11
7.2931e-11
7.36404e-11
7.74512e-11
9.54167e-11
9.38979e-11
9.79089e-11
1.02012e-10
9.53069e-11
9.65385e-11
9.81424e-11
9.93984e-11
7.34057e-11
8.22146e-11
8.48988e-11
8.73349e-11
4.83118e-11
5.4967e-11
6.90032e-11
7.24832e-11
3.98895e-11
4.2037e-11
4.61341e-11
4.95668e-11
3.03295e-11
3.17479e-11
3.23457e-11
3.17262e-11
1.76236e-11
1.78366e-11
1.70683e-11
1.54164e-11
7.28594e-12
7.10249e-12
6.43339e-12
5.43963e-12
2.18209e-12
2.04877e-12
1.77425e-12
1.42881e-12
4.94358e-13
4.46644e-13
3.73301e-13
2.91981e-13
8.82057e-14
7.70277e-14
6.30118e-14
4.94403e-14
1.29232e-14
1.10484e-14
9.06312e-15
7.44133e-15
1.61784e-15
1.38089e-15
1.16835e-15
1.0415e-15
1.79113e-16
1.55541e-16
1.38884e-16
1.36342e-16
1.79542e-17
1.60184e-17
1.52051e-17
1.61919e-17
1.64139e-18
1.50278e-18
1.49884e-18
1.68614e-18
1.36024e-19
1.26308e-19
1.29988e-19
1.50962e-19
1.00994e-20
9.36903e-21
9.78491e-21
1.16208e-20
6.65245e-22
6.08364e-22
6.40867e-22
7.87666e-22
3.87656e-23
3.48199e-23
3.79735e-23
5.40146e-23
2.01948e-24
1.86898e-24
2.70423e-24
7.84851e-24
1.01507e-25
1.44754e-25
5.73488e-25
3.70127e-24
7.80603e-27
3.58846e-26
2.73892e-25
2.23774e-24
1.76794e-27
1.51874e-26
1.37857e-25
1.25571e-24
6.26204e-28
6.35481e-27
6.32907e-26
6.27162e-25
2.19255e-28
2.43291e-27
2.63099e-26
2.82089e-25
7.19742e-29
8.60475e-28
1.00978e-26
1.17926e-25
2.26577e-29
2.93696e-28
3.78886e-27
4.91632e-26
2.47491e-29
3.66339e-28
5.43106e-27
7.95146e-26
0.00785213
0.000103553
3.10264e-05
3.86473e-05
3.87016e-05
4.35046e-05
4.08281e-05
3.40741e-05
3.77294e-05
3.46451e-05
3.96267e-05
5.56681e-05
0.000800849
0.00760982
0.00956001
0.0121935
0.0378932
0.0614622
0.0676554
1.43853e-05
1.21561e-05
1.64587e-05
1.56071e-05
1.87429e-05
2.55526e-05
2.73386e-05
3.09399e-05
3.45622e-05
3.46618e-05
3.46442e-05
4.0103e-05
0.000336003
0.000881081
0.000866087
0.000408683
0.000571511
0.00298195
0.0107132
5.56984e-06
2.09925e-06
2.88279e-06
5.7401e-06
8.36295e-06
1.14666e-05
1.65124e-05
2.36031e-05
3.09821e-05
3.55384e-05
3.67625e-05
3.88648e-05
5.99142e-05
0.000144072
0.000137127
7.62591e-05
0.000248425
0.00203436
0.0138968
7.13958e-07
3.61184e-07
3.62564e-07
4.08934e-07
3.63447e-06
1.33618e-05
1.86323e-05
2.29118e-05
3.1546e-05
3.78501e-05
3.86731e-05
3.8672e-05
4.15363e-05
4.9517e-05
4.93891e-05
5.47395e-05
0.000367505
0.00162561
0.0190994
2.28717e-06
3.73517e-07
4.4482e-07
5.0984e-06
4.29632e-05
7.88463e-05
5.89326e-05
3.23066e-05
3.17393e-05
3.50554e-05
3.50774e-05
3.58996e-05
3.62284e-05
4.2011e-05
5.02497e-05
6.03098e-05
0.000122246
0.00159482
0.0224536
3.81928e-06
3.82955e-07
2.55746e-06
4.93269e-05
0.000148582
0.000161795
0.000143034
6.87165e-05
3.21138e-05
3.09413e-05
3.04948e-05
3.24649e-05
3.68817e-05
4.76348e-05
7.24244e-05
0.000215674
0.00108245
0.0034222
0.023348
2.24095e-05
1.62273e-05
4.18231e-05
0.000121047
0.00017764
0.000178695
0.000176827
0.000131188
5.86863e-05
3.15672e-05
3.00746e-05
3.32438e-05
5.16608e-05
0.00011698
0.000362829
0.00116051
0.00295785
0.00639204
0.0228295
4.70196e-05
0.000120773
0.000120123
0.000112508
9.4734e-05
0.000148201
0.000168155
0.000160288
0.000119736
4.25816e-05
3.00574e-05
3.76118e-05
0.000162919
0.00055058
0.0010796
0.0018345
0.00357529
0.00713186
0.012659
1.67031e-06
8.92712e-06
1.65523e-05
1.15649e-05
1.28893e-05
4.31898e-05
0.000120997
0.000173024
0.000178318
0.000138261
8.21917e-05
0.00014773
0.000565604
0.000979612
0.00123061
0.0017573
0.00296704
0.0044241
0.00449221
8.40725e-09
1.13965e-07
3.27308e-07
2.9875e-07
2.54279e-07
3.9146e-06
3.52097e-05
0.000116831
0.000206452
0.00030475
0.000402188
0.000607349
0.000855721
0.000956449
0.00100577
0.00179869
0.00251851
0.00213601
0.00234779
7.95409e-10
1.9989e-09
4.0368e-09
5.92913e-09
7.5473e-09
3.54085e-08
1.96954e-06
2.74197e-05
0.000115314
0.000286354
0.000412478
0.000643037
0.00062845
0.000615167
0.00104628
0.000993442
0.000557243
0.00030982
0.000386773
2.13646e-10
3.99871e-10
1.47287e-09
5.2849e-09
8.20033e-09
8.17744e-09
1.52229e-08
5.8406e-07
1.2826e-05
7.39897e-05
0.00020234
0.000358067
0.000405757
0.000497872
0.000311414
6.32795e-05
9.55811e-06
4.46368e-06
1.13751e-05
7.90778e-11
1.43063e-10
5.70163e-10
2.95636e-09
9.45839e-09
1.50746e-08
1.49803e-08
1.5037e-08
3.9851e-07
9.42868e-06
4.26866e-05
7.20392e-05
7.77624e-05
6.72305e-05
1.48772e-05
5.79551e-08
6.3955e-09
1.03949e-08
2.79087e-08
8.88565e-11
5.60955e-11
4.78918e-11
2.44283e-10
2.84391e-09
1.51487e-08
2.61394e-08
2.67013e-08
3.85364e-08
3.79125e-07
4.57588e-06
1.06659e-05
1.16336e-05
4.14701e-06
1.12541e-07
1.65865e-09
6.39654e-10
9.89492e-10
1.25655e-09
9.52172e-11
6.65998e-11
3.89075e-11
4.61226e-11
1.48607e-10
9.66882e-10
1.45602e-08
4.41136e-08
4.97098e-08
2.24781e-08
7.37254e-08
3.91045e-07
4.69667e-07
9.6339e-08
3.70759e-09
6.71023e-10
6.89654e-10
9.51667e-10
6.72892e-10
8.23826e-11
6.06145e-11
3.4979e-11
3.8384e-11
9.65858e-11
1.71879e-10
6.42454e-10
2.1532e-08
5.00086e-08
1.37467e-08
2.51437e-09
2.95632e-09
2.61635e-09
6.72343e-10
6.76244e-10
1.09632e-09
1.9138e-09
1.54992e-09
8.86472e-10
6.59096e-11
4.39081e-11
2.58343e-11
2.75381e-11
7.10316e-11
1.21671e-10
1.83579e-10
6.83529e-09
3.35956e-08
4.13368e-09
8.3752e-10
7.80686e-10
7.80601e-10
8.44789e-10
1.46653e-09
3.39739e-09
3.99408e-09
2.5142e-09
1.09223e-09
4.14787e-11
2.58109e-11
1.68474e-11
1.90761e-11
4.13923e-11
9.21007e-11
1.38427e-10
1.80595e-10
6.5462e-09
2.98871e-08
3.23104e-09
7.80767e-10
1.06249e-09
5.48288e-09
7.37191e-09
8.31125e-09
5.56369e-09
2.75445e-09
1.25031e-09
2.1868e-11
1.25041e-11
8.99403e-12
1.24065e-11
2.39712e-11
5.37742e-11
9.54924e-11
1.43661e-10
2.147e-09
1.4399e-08
1.92947e-08
1.93257e-08
1.94814e-08
1.76959e-08
1.64948e-08
1.27518e-08
6.14938e-09
2.61867e-09
1.38124e-09
9.15694e-12
5.06937e-12
4.40912e-12
7.15753e-12
1.41468e-11
2.73245e-11
5.09706e-11
9.44213e-11
3.93798e-10
3.73124e-09
7.08322e-09
1.0395e-08
1.4371e-08
1.57075e-08
1.5326e-08
9.89621e-09
4.81548e-09
2.61552e-09
1.37937e-09
3.03038e-12
1.79749e-12
2.03035e-12
3.43487e-12
6.4101e-12
1.20228e-11
2.23083e-11
4.30614e-11
9.4698e-11
5.76246e-10
1.11069e-09
1.91426e-09
3.02263e-09
4.81136e-09
4.29695e-09
2.87211e-09
3.00845e-09
2.69415e-09
1.36854e-09
8.18753e-13
6.31854e-13
8.43064e-13
1.39709e-12
2.52295e-12
4.59558e-12
8.71604e-12
1.78191e-11
3.92708e-11
9.20068e-11
2.08002e-10
4.60507e-10
8.96622e-10
1.66294e-09
1.87316e-09
1.87496e-09
2.64268e-09
2.67241e-09
1.21341e-09
1.96986e-13
2.09647e-13
3.00066e-13
4.84887e-13
8.80166e-13
1.72022e-12
3.63174e-12
8.55418e-12
2.30169e-11
6.95713e-11
1.94733e-10
4.75293e-10
1.11308e-09
1.86412e-09
2.34501e-09
2.36657e-09
3.1786e-09
2.72861e-09
1.00327e-09
4.52453e-14
6.16311e-14
8.81248e-14
1.423e-13
2.69757e-13
5.80395e-13
1.40051e-12
4.26644e-12
1.65002e-11
7.01959e-11
2.35318e-10
6.6334e-10
1.92049e-09
3.00136e-09
3.73055e-09
4.1075e-09
4.23125e-09
2.67989e-09
8.59453e-10
9.81879e-15
1.51349e-14
2.10391e-14
3.5288e-14
7.09852e-14
1.68653e-13
5.20132e-13
2.29411e-12
1.31916e-11
7.39307e-11
3.09717e-10
9.07721e-10
2.96268e-09
4.5847e-09
5.43818e-09
5.92274e-09
5.08211e-09
2.18719e-09
7.63655e-10
1.89117e-15
3.02026e-15
4.13603e-15
7.34871e-15
1.55983e-14
4.16722e-14
1.80513e-13
1.2588e-12
1.01436e-11
6.8361e-11
3.74895e-10
1.17542e-09
4.09672e-09
6.17461e-09
7.50918e-09
7.51158e-09
5.16126e-09
2.02961e-09
6.29857e-10
3.08176e-16
4.84854e-16
6.78028e-16
1.26862e-15
2.82447e-15
8.49313e-15
5.5063e-14
6.64233e-13
6.27039e-12
5.61371e-11
3.87644e-10
1.31678e-09
5.07521e-09
8.13499e-09
9.85392e-09
8.65621e-09
4.04326e-09
1.7253e-09
3.99576e-10
4.16471e-17
6.28632e-17
9.30607e-17
1.80213e-16
4.20389e-16
1.50921e-15
1.5467e-14
2.97443e-13
3.24725e-12
4.08957e-11
3.35227e-10
1.28639e-09
5.31548e-09
9.49554e-09
9.8554e-09
7.64768e-09
3.82911e-09
2.12565e-09
2.9935e-10
4.66821e-18
6.68224e-18
1.06363e-17
2.11649e-17
5.32926e-17
2.43912e-16
3.21433e-15
7.61142e-14
1.02906e-12
2.02774e-11
2.18425e-10
1.00104e-09
4.32723e-09
7.80225e-09
9.06767e-09
8.19748e-09
6.55944e-09
2.61649e-09
2.2012e-10
4.37854e-19
6.14198e-19
1.03286e-18
2.2153e-18
6.77878e-18
3.9846e-17
4.90857e-16
9.70914e-15
2.37873e-13
5.94431e-12
6.02399e-11
6.10738e-10
2.69389e-09
6.24247e-09
9.01712e-09
9.42855e-09
8.18676e-09
2.34141e-09
1.18851e-10
3.49458e-20
5.13761e-20
1.04231e-19
3.49724e-19
1.87289e-18
1.33497e-17
1.20976e-16
1.67966e-15
3.98658e-14
1.1794e-12
1.14772e-11
1.25634e-10
1.17036e-09
3.74655e-09
6.18485e-09
6.72451e-09
3.81794e-09
7.02965e-10
5.06565e-11
2.58141e-21
5.76306e-21
2.76842e-20
2.07394e-19
1.70938e-18
1.41486e-17
1.16427e-16
9.86148e-16
1.04691e-14
2.04301e-13
3.28053e-12
1.84777e-11
3.15996e-10
1.13068e-09
2.02747e-09
2.07986e-09
9.07578e-10
1.39653e-10
2.44133e-11
3.18847e-22
2.19395e-21
2.13894e-20
2.15936e-19
2.12924e-18
2.03517e-17
1.85252e-16
1.54688e-15
1.13693e-14
7.91415e-14
7.28039e-13
4.49728e-12
1.93232e-11
1.43718e-10
3.50894e-10
3.07828e-10
1.84187e-10
4.06559e-11
1.47078e-11
1.35075e-22
1.6112e-21
1.95987e-20
2.31552e-19
2.62961e-18
2.82175e-17
2.75814e-16
2.34136e-15
1.64631e-14
9.2679e-14
4.08846e-13
1.42896e-12
5.1687e-12
1.50203e-11
3.17946e-11
5.01321e-11
4.32769e-11
2.09189e-11
8.34837e-12
8.46487e-23
1.20616e-21
1.68743e-20
2.25696e-19
2.83029e-18
3.22048e-17
3.19732e-16
2.66767e-15
1.8095e-14
9.78269e-14
3.98115e-13
1.45555e-12
5.7473e-12
1.52101e-11
2.70081e-11
3.78662e-11
2.36533e-11
1.13404e-11
4.4275e-12
5.00747e-23
7.9096e-22
1.20315e-20
1.7033e-19
2.1928e-18
2.49353e-17
2.4335e-16
1.98864e-15
1.32271e-14
7.16008e-14
2.94472e-13
1.40451e-12
6.40489e-12
1.6332e-11
2.63949e-11
2.30546e-11
9.8361e-12
4.65421e-12
1.67876e-12
2.59207e-23
4.36199e-22
6.89074e-21
9.83331e-20
1.24343e-18
1.36533e-17
1.28021e-16
1.01129e-15
6.58037e-15
3.58691e-14
1.51438e-13
8.95088e-13
4.18657e-12
9.50079e-12
1.22388e-11
7.38247e-12
3.1446e-12
1.37249e-12
5.18556e-13
1.16383e-23
2.03986e-22
3.27824e-21
4.64313e-20
5.70875e-19
6.00798e-18
5.3503e-17
3.99788e-16
2.46441e-15
1.27841e-14
5.27857e-14
2.73466e-13
1.30612e-12
2.46652e-12
2.39315e-12
1.42639e-12
6.93659e-13
2.60489e-13
1.67235e-13
4.67239e-24
8.56687e-23
1.42062e-21
2.05196e-20
2.54816e-19
2.67568e-18
2.32407e-17
1.64723e-16
9.38795e-16
4.31955e-15
1.59425e-14
5.05715e-14
1.97502e-13
2.77023e-13
2.34999e-13
1.50544e-13
8.31877e-14
4.0745e-14
7.45498e-14
1.78939e-24
3.59656e-23
6.5544e-22
1.04868e-20
1.4437e-19
1.62206e-18
1.40736e-17
9.29543e-17
4.70872e-16
1.79614e-15
5.45255e-15
1.1534e-14
2.67674e-14
2.45531e-14
2.28454e-14
1.66161e-14
1.25438e-14
9.99539e-15
3.52725e-14
7.27027e-25
1.87894e-23
4.42088e-22
8.39884e-21
1.24478e-19
1.36722e-18
1.06903e-17
6.08069e-17
2.63592e-16
8.23261e-16
2.08649e-15
3.20306e-15
5.34217e-15
4.61067e-15
4.35471e-15
3.39701e-15
2.9674e-15
2.78925e-15
1.37563e-14
1.13177e-24
2.83424e-23
5.34186e-22
7.50851e-21
7.97595e-20
6.57889e-19
4.25155e-18
2.08973e-17
7.98973e-17
2.12128e-16
4.75745e-16
6.02822e-16
8.7694e-16
7.01333e-16
6.10813e-16
4.74843e-16
4.53593e-16
4.62799e-16
3.01478e-15
)
;

boundaryField
{
    leftWall
    {
        type            zeroGradient;
    }
    rightWall
    {
        type            zeroGradient;
    }
    lowerWall
    {
        type            zeroGradient;
    }
    atmosphere
    {
        type            inletOutlet;
        inletValue      uniform 0;
        value           nonuniform List<scalar> 
46
(
9.03769e-34
5.71198e-35
6.08786e-36
6.46043e-37
5.82173e-38
4.44332e-39
1.29617e-38
3.20448e-37
2.16458e-36
4.78435e-36
2.83128e-36
7.2077e-37
1.44899e-37
1.55866e-37
5.20332e-37
1.70989e-36
5.06837e-36
1.33469e-35
3.2886e-35
1.28223e-34
1.74951e-33
3.75184e-32
9.02517e-31
2.47491e-29
3.66339e-28
5.43106e-27
7.95146e-26
0
0
0
0
0
0
0
0
0
0
0
0
0
0
0
0
0
0
0
)
;
    }
    defaultFaces
    {
        type            empty;
    }
}


// ************************************************************************* //
