/*--------------------------------*- C++ -*----------------------------------*\
| =========                 |                                                 |
| \\      /  F ield         | OpenFOAM: The Open Source CFD Toolbox           |
|  \\    /   O peration     | Version:  2.4.0                                 |
|   \\  /    A nd           | Web:      www.OpenFOAM.org                      |
|    \\/     M anipulation  |                                                 |
\*---------------------------------------------------------------------------*/
FoamFile
{
    version     2.0;
    format      ascii;
    class       volScalarField;
    location    "0.85";
    object      alpha.air;
}
// * * * * * * * * * * * * * * * * * * * * * * * * * * * * * * * * * * * * * //

dimensions      [0 0 0 0 0 0 0];

internalField   nonuniform List<scalar> 
2268
(
9.78047e-12
1.22045e-11
6.7915e-12
6.67653e-12
7.57406e-12
4.97823e-12
2.93174e-12
1.85094e-12
1.30119e-12
8.52008e-13
4.59795e-13
2.47945e-13
1.77437e-13
1.50871e-13
1.10725e-13
6.77568e-14
4.13727e-14
3.37122e-14
3.75532e-14
4.35213e-14
2.49218e-14
7.96891e-15
2.42295e-14
4.86116e-11
5.7536e-11
3.75389e-11
4.20393e-11
4.25065e-11
2.93216e-11
1.76667e-11
1.12661e-11
7.90289e-12
4.99103e-12
2.64343e-12
1.45765e-12
1.04691e-12
8.31038e-13
5.86017e-13
3.73474e-13
2.4613e-13
2.05823e-13
2.24571e-13
2.45116e-13
1.84898e-13
9.61245e-14
2.4465e-13
1.82457e-10
1.82545e-10
1.82632e-10
1.07898e-10
8.44982e-11
4.02057e-11
2.5713e-11
1.8645e-11
1.52708e-11
1.17281e-11
7.73821e-12
4.7987e-12
3.31852e-12
2.42021e-12
1.65715e-12
1.11452e-12
8.00565e-13
6.79336e-13
7.42297e-13
8.75991e-13
9.20633e-13
9.70988e-13
1.9161e-12
1.01365e-10
1.29738e-10
1.25454e-10
2.33356e-10
2.33828e-10
1.98789e-10
8.91581e-11
5.94123e-11
4.73582e-11
3.4208e-11
1.96552e-11
1.05638e-11
7.00318e-12
4.87568e-12
3.3638e-12
2.43657e-12
1.98201e-12
1.89659e-12
2.60256e-12
3.62081e-12
3.89404e-12
8.42278e-12
1.1163e-11
5.70039e-11
5.95426e-11
5.95018e-11
6.33084e-11
1.4809e-10
2.06221e-10
1.67507e-10
1.0304e-10
7.32861e-11
5.06817e-11
3.20937e-11
2.00823e-11
1.2176e-11
7.66961e-12
5.9722e-12
5.23292e-12
5.74248e-12
6.84423e-12
1.1837e-11
1.53659e-11
1.12103e-11
4.74659e-11
3.78836e-10
5.7135e-11
5.80373e-11
6.28073e-11
7.08312e-11
8.88188e-11
1.64427e-10
1.98281e-10
1.54765e-10
9.48421e-11
6.55766e-11
4.35973e-11
3.01154e-11
1.63392e-11
1.1858e-11
2.11632e-11
2.54707e-11
1.75116e-10
5.03498e-10
5.14084e-10
2.9012e-10
4.44011e-10
5.96224e-09
6.05269e-09
6.30418e-11
5.7758e-11
6.56981e-11
7.64552e-11
9.92344e-11
1.61512e-10
2.14005e-10
1.89016e-10
1.62371e-10
2.09032e-10
2.09571e-10
5.23301e-11
1.12954e-10
2.00378e-09
4.13807e-09
5.87581e-09
3.62318e-08
9.90385e-08
9.36926e-08
3.31592e-08
3.18044e-08
2.58804e-06
4.93018e-06
3.84354e-10
6.91628e-10
2.33989e-10
7.92537e-11
1.32139e-10
1.59475e-10
2.6784e-10
5.72141e-10
8.27663e-10
9.557e-10
7.75546e-10
2.51679e-10
5.19442e-09
6.56841e-08
9.17299e-08
1.43852e-07
4.98363e-07
1.1556e-06
1.18627e-06
4.48094e-07
2.33256e-07
2.76914e-05
0.000291647
6.03472e-06
5.94797e-06
1.87045e-05
4.16168e-05
4.2351e-05
3.72129e-05
2.78995e-05
2.78419e-05
8.39909e-05
0.000248662
0.000258652
0.000163468
1.77442e-05
1.35755e-06
1.35749e-06
1.37186e-06
6.69245e-05
2.0585e-05
1.19e-05
6.01777e-06
3.43053e-05
5.99483e-05
5.98348e-05
5.99929e-05
0.000128268
0.000850925
0.00237258
0.0031662
0.00317377
0.00317376
0.00317376
0.00317368
0.00148048
0.000136358
1.67709e-05
3.66633e-05
3.24056e-05
1.19e-05
0.000306064
0.000261668
7.52834e-05
4.1377e-05
4.13785e-05
4.13783e-05
4.13808e-05
4.13808e-05
0.000460296
0.0027478
0.00140104
0.000229935
0.000531378
0.00144947
0.000901516
0.00012028
1.7357e-05
1.23854e-05
1.19e-05
0.0422365
0.0051535
0.000395686
4.15146e-05
4.13783e-05
4.13809e-05
4.13808e-05
0.000130681
0.00120406
0.00124532
0.000541035
5.80093e-05
0.000189487
0.000570988
0.000495547
7.28819e-05
1.18382e-05
1.18351e-05
1.98547e-05
0.31989
0.026508
0.00140354
0.000104252
4.1381e-05
4.13808e-05
4.13819e-05
0.000116342
0.000326728
0.000114953
4.25134e-05
2.91567e-05
2.94073e-05
3.22299e-05
2.79371e-05
1.18392e-05
1.1835e-05
1.18322e-05
2.0563e-05
0.31989
0.0339404
0.00138746
0.00019895
4.75774e-05
4.13819e-05
5.5787e-05
5.60841e-05
7.19771e-05
0.00012002
9.20858e-05
2.91548e-05
2.91663e-05
2.91966e-05
7.0443e-05
0.000141468
1.18321e-05
1.18321e-05
2.54469e-05
0.31989
0.0594117
0.00343113
0.000148616
5.00311e-05
4.13819e-05
4.56136e-05
4.58383e-05
0.000140717
0.00333
0.0383762
0.000151714
5.27088e-05
6.61836e-05
0.000470913
0.00107498
3.40422e-05
1.18292e-05
2.50543e-05
0.193841
0.15008
0.00720544
0.00117466
0.0010389
0.000282651
4.58384e-05
5.03024e-05
0.000411103
0.0296934
0.0502586
0.0322813
0.000279923
0.000124247
0.00100634
0.00132118
0.00116953
4.93735e-05
2.87068e-05
9.9201e-08
6.37362e-08
2.18469e-08
6.32194e-09
5.09215e-10
3.34612e-10
2.66565e-10
4.01628e-10
8.44993e-10
9.72068e-10
9.32878e-10
4.12221e-09
8.63934e-08
4.23946e-07
7.74866e-07
1.1405e-06
1.56616e-06
2.16715e-06
2.49934e-06
2.35829e-06
3.06163e-06
2.10916e-05
0.00182002
3.8109e-07
2.61068e-07
8.8079e-08
2.23027e-08
4.32032e-09
1.5665e-09
4.90087e-10
4.01264e-10
5.1437e-10
6.32807e-10
2.25992e-09
2.32681e-08
2.40068e-07
5.97725e-07
3.53656e-06
4.49437e-06
2.91174e-06
2.26546e-06
2.60463e-06
2.14039e-05
0.000433244
0.0014163
0.0196246
3.70039e-07
3.62137e-07
4.45783e-07
1.70204e-07
8.10045e-08
1.82895e-08
8.77766e-09
3.99173e-09
2.15201e-09
7.96102e-08
3.51068e-08
4.88375e-07
7.49939e-05
0.000298353
0.00218793
0.00421651
0.00086644
0.000112794
0.000134474
0.000808588
0.00752385
0.0215147
0.118253
4.51347e-07
7.21184e-07
7.22172e-07
5.39201e-07
1.21331e-07
5.40262e-08
1.90831e-08
5.82466e-09
2.30311e-09
1.6426e-05
9.32232e-05
0.00064675
0.00820803
0.0275631
0.0607211
0.158272
0.148433
0.015392
0.000134842
0.00141014
0.0383166
0.205156
0.41682
4.15173e-06
5.4991e-06
5.4799e-07
3.75482e-07
9.10915e-08
5.37237e-08
1.55609e-08
5.83533e-09
0.000806369
0.0305256
0.0754009
0.0679172
0.0623938
0.115114
0.0620434
0.0449001
0.0426678
0.00630116
0.00304397
0.0488067
0.16393
0.43627
0.490844
0.000310577
6.43629e-05
4.40318e-06
6.96229e-07
6.76851e-07
1.4509e-06
2.59264e-05
0.0108831
0.208302
0.665638
0.945001
0.75898
0.300776
0.0530373
0.0118081
0.00335718
0.00337262
0.00460839
0.0544013
0.422515
0.803324
0.810467
0.395798
0.0312636
0.0936636
0.133009
0.200738
0.259474
0.337061
0.523956
0.786444
0.983205
0.999705
0.999613
0.988269
0.831406
0.320835
0.0356093
0.0146577
0.0125156
0.0594894
0.473945
0.939364
0.995025
0.97758
0.724075
0.40392
0.744525
0.888507
0.928483
0.954595
0.973925
0.991057
0.997258
0.999877
0.999998
0.999999
0.999911
0.98841
0.774986
0.22792
0.0513285
0.046556
0.280814
0.874346
0.998949
0.999982
0.999898
0.999607
0.953282
0.994152
0.999106
0.999635
0.999825
0.999925
0.999986
0.999996
0.999999
0.999999
0.999999
0.999999
0.999816
0.973688
0.681865
0.193215
0.0776049
0.409847
0.944519
0.999973
1
1
1
0.999552
0.999987
0.999999
0.999999
0.999999
0.999999
0.999999
0.999999
0.999999
0.999999
0.999999
0.999999
0.999999
0.999451
0.961029
0.74376
0.556192
0.665075
0.966859
0.999951
1
1
1
0.999999
0.999999
0.999999
0.999999
0.999999
0.999999
1
1
0.999999
0.999999
0.999999
0.999999
0.999999
0.999985
0.99778
0.980944
0.95907
0.954415
0.987507
0.999784
1
1
1
0.999999
0.999999
0.999999
0.999999
0.999999
0.999999
1
1
1
0.999999
0.999999
0.999999
0.999999
0.999999
0.999969
0.999715
0.999222
0.998721
0.998487
0.999459
0.999999
1
1
0.999999
0.999999
0.999999
0.999999
0.999999
0.999999
1
1
1
1
1
0.999999
0.999999
0.999999
0.999999
0.999999
0.999998
0.999993
0.999925
0.999788
0.999977
1
1
0.999999
0.999999
0.999999
0.999999
0.999999
0.999999
1
1
1
1
1
0.999999
0.999999
0.999999
1
1
1
1
1
0.999988
0.999972
0.999991
1
0.999999
0.999999
0.999999
0.999999
0.999999
0.999999
1
1
1
1
1
0.999999
0.999999
0.999999
1
1
1
1
1
1
0.999994
0.999992
0.999998
0.999999
0.999999
0.999999
0.999999
0.999999
0.999999
1
1
1
1
1
1
0.999999
0.999999
1
1
1
1
1
1
1
0.999999
1
0.999999
0.999999
0.999999
0.999999
0.999999
0.999999
1
1
1
1
1
1
0.999999
0.999999
0.999999
1
1
1
1
1
1
1
1
0.999999
0.999999
0.999999
0.999999
0.999999
0.999999
1
1
1
1
1
1
0.999999
0.999999
1
0.999999
0.999999
1
1
1
1
1
1
0.999999
0.999999
0.999999
0.999999
0.999999
1
1
1
1
1
1
1
0.999999
0.999999
0.999999
0.999999
1
1
1
1
1
1
1
0.999999
0.999999
0.999999
0.999999
1
1
1
1
1
1
1
1
0.999999
0.999999
0.999999
0.999999
1
1
1
1
1
1
1
0.999999
0.999999
0.999999
0.999999
1
1
1
1
1
1
1
1
0.999999
0.999999
0.999999
1
1
1
1
1
1
1
0.999999
0.999999
0.999999
0.999999
0.999999
1
1
1
1
1
1
1
1
0.999999
0.999999
0.999999
1
1
1
1
1
1
1
0.999999
0.999999
0.999999
0.999999
1
1
1
1
1
1
1
1
1
1
0.999999
0.999999
0.999999
1
1
1
1
1
1
0.999999
0.999999
0.999999
0.999999
1
1
1
1
1
1
1
1
1
1
0.999999
0.999999
0.999999
1
1
1
1
0.999999
0.999999
0.999999
0.999999
0.999999
0.999999
1
1
1
1
1
1
1
1
1
1
1
1
0.999999
1
0.999999
0.999999
0.999999
0.999999
0.999999
0.999999
0.999999
0.999999
1
1
1
1
1
1
1
1
1
1
1
1
1
1
1
0.999999
0.999999
0.999999
0.999999
0.999999
0.999999
0.999999
0.999999
1
1
1
1
1
1
1
1
1
1
1
1
1
1
1
1
0.999999
0.999999
0.999999
0.999999
0.999998
0.999999
0.999999
1
1
1
1
1
1
1
1
1
1
1
1
1
1
1
1
0.999999
0.999999
0.999999
0.999999
0.999998
0.999999
1
1
1
1
1
1
1
1
1
1
1
1
1
1
1
1
1
1
0.999999
0.999999
0.999999
0.999998
1
1
1
1
1
1
1
1
1
1
1
1
1
1
1
1
1
1
1
1
0.999999
0.999999
0.999998
1
1
1
1
1
1
1
1
1
1
1
1
1
1
1
1
1
1
1
1
1
0.999999
0.999999
1
1
1
1
1
1
1
1
1
1
1
1
1
1
1
1
1
1
1
1
1
0.999999
0.999999
1
1
1
1
1
1
1
1
1
1
1
1
1
1
1
1
1
1
1
1
1
0.999999
0.999999
1
1
1
1
1
1
1
1
1
1
1
1
1
1
1
1
1
1
1
1
1
1
0.999999
1
1
1
1
1
1
1
1
1
1
1
1
1
1
1
1
1
1
1
1
1
1
0.999999
1
1
1
1
1
1
1
1
1
1
1
1
1
1
1
1
1
1
1
1
1
1
0.999999
1
1
1
1
1
1
1
1
1
1
1
1
1
1
1
1
1
1
1
1
1
1
0.999999
1
1
1
1
1
1
1
1
1
1
1
1
1
1
1
1
1
1
1
1
1
1
0.999999
1
1
1
1
1
1
1
1
1
1
1
1
1
1
1
1
1
0.999999
0.999999
0.999999
1
1
1
1
1
1
1
1
1
1
1
1
1
1
1
1
1
1
1
1
0.999999
0.999999
0.999999
1
1
1
1
1
1
1
1
1
1
1
1
1
1
1
1
1
1
1
0.999999
0.999999
0.999999
0.999999
0.999999
1
0.999999
1
1
1
1
1
1
1
1
1
1
1
1
1
1
1
1
1
0.999999
0.999999
0.999999
0.999999
0.999999
0.999999
0.0190079
0.023783
0.0242132
0.0246475
0.116314
0.0756363
0.0548114
0.0583349
0.160024
0.188973
0.322472
0.597039
0.871826
0.929781
0.968199
0.988933
0.477403
0.60363
0.918231
0.986786
0.320293
0.320352
0.542582
0.888664
0.350694
0.320116
0.319804
0.545917
0.996932
0.980304
0.884886
0.617309
0.999998
0.99999
0.999978
0.999989
1
1
1
1
1
1
1
1
1
1
1
1
1
1
1
1
1
1
1
1
1
1
1
1
1
1
0.999999
0.999999
1
0.999999
0.999999
0.999999
1
1
0.999999
0.999999
1
1
0.999999
0.999999
1
1
1
1
0.999999
0.999999
0.999999
0.999999
0.999999
0.999999
0.999999
0.999999
0.999999
0.999999
0.999999
0.999999
0.999999
0.999999
0.999999
0.999999
0.999999
0.999999
0.999999
0.999999
0.999999
0.999999
0.999999
0.999999
0.999998
0.999998
0.999998
0.999998
0.999998
0.999998
0.999998
0.999998
0.999998
0.999998
0.999998
0.999998
0.999998
0.999998
0.999998
0.999997
0.999998
0.999998
0.999998
0.999997
0.999999
0.999998
0.999998
0.999997
0.999999
0.999998
0.999998
0.999997
0.999999
0.999999
0.999997
0.999997
0.999999
0.999998
0.999997
0.999997
0.999999
0.999998
0.999997
0.999997
0.999999
0.999998
0.999997
0.999997
0.999999
0.999998
0.999997
0.999997
0.999999
0.999998
0.999998
0.999998
0.999999
0.999999
0.999998
0.999998
0.999998
0.999998
0.999997
0.999998
0.999998
0.999998
0.999998
0.999998
0.0435456
0.0982137
0.00908663
0.00932124
0.00944463
0.00663819
0.000465967
6.80897e-05
0.00519867
0.0298997
0.0255145
0.0395124
0.011677
0.000628582
0.000500072
0.00132251
0.00314454
0.0031497
0.00147584
0.131137
0.169224
0.0413703
0.0126294
0.012572
0.0125749
0.0105213
0.00148724
0.00424073
0.00250118
0.00233757
0.0138837
0.0154602
0.0030853
0.000161707
0.000113
0.00102183
0.00315479
0.00335232
0.791484
0.846713
0.741738
0.314554
0.0435079
0.0182641
0.0115043
0.002787
0.000759669
0.000548033
0.00106603
0.00284628
0.0115682
0.0110967
0.000330436
0.000101529
0.00134194
0.00207843
0.000293845
0.990151
0.990303
0.990299
0.958989
0.617105
0.117078
0.0177501
0.00440667
0.000499928
0.000225062
0.000155894
0.00022447
0.00236584
0.00414724
0.00021483
4.42647e-05
0.000343464
0.000199208
0.000199249
0.98951
0.990298
0.990284
0.987625
0.784179
0.187969
0.00649118
0.00133014
0.000345635
7.77861e-05
1.9668e-05
1.97399e-05
0.000101994
0.000366803
8.48958e-05
9.39193e-06
2.2473e-05
0.000287211
0.000605892
0.977325
0.990293
0.989653
0.864153
0.335626
0.0471109
0.00365867
0.000570917
0.000446902
0.000446166
0.000625885
0.000114708
1.31906e-05
7.55415e-06
7.67558e-06
1.92341e-05
0.000616782
0.00340532
0.00182791
0.878582
0.956966
0.869611
0.515652
0.0948836
0.0339567
0.00452909
0.00343685
0.0215896
0.0510036
0.0664189
0.011434
9.75858e-05
7.44772e-06
4.84773e-05
0.0010628
0.00525253
0.00583792
0.00215806
0.298652
0.209546
0.206517
0.170525
0.0944234
0.0539411
0.0103004
0.011922
0.11907
0.312265
0.317834
0.142273
0.00642155
0.00098999
0.000704771
0.00252256
0.00503161
0.00340599
0.00122607
0.928364
0.690627
0.596301
0.602641
0.529212
0.196139
0.0486094
0.0133124
0.0915771
0.293355
0.317888
0.317903
0.159001
0.0051627
0.00242309
0.00185308
0.00199346
0.0019881
0.00122607
0.999953
0.998251
0.990631
0.986802
0.981184
0.787172
0.269023
0.0639342
0.031368
0.0255514
0.0212946
0.0100634
0.0104651
0.0061504
0.00264422
0.00769926
0.0261417
0.0313283
0.0177156
1
1
1
1
0.999969
0.994456
0.865498
0.38377
0.125254
0.109613
0.155431
0.04269
0.00461116
0.00461429
0.021448
0.137314
0.313395
0.354026
0.140198
1
1
1
1
1
0.999995
0.998629
0.951491
0.667974
0.336588
0.222964
0.10635
0.0211293
0.0286569
0.173627
0.737775
0.959981
0.954885
0.790447
1
1
0.999999
1
1
1
1
0.999844
0.980376
0.704196
0.191188
0.094004
0.0873583
0.176803
0.777731
0.999741
1
0.999974
0.999508
0.999999
0.999999
0.999999
0.999999
1
1
1
1
0.999918
0.980002
0.710131
0.331282
0.318966
0.768329
0.997225
1
1
1
1
0.999999
0.999999
0.999999
0.999999
0.999999
0.999999
1
1
1
0.999886
0.997221
0.984268
0.976398
0.994971
0.999996
1
1
1
1
0.999999
1
1
0.999999
0.999999
0.999999
0.999999
1
1
1
0.999995
0.999959
0.999946
0.999988
0.999997
0.999997
0.999995
0.999999
1
0.999999
1
1
0.999999
0.999999
0.999999
0.999999
1
1
1
1
1
1
0.999996
0.999994
0.999981
0.999978
0.999996
1
1
1
0.999999
0.999999
0.999998
0.999999
0.999999
0.999999
1
1
1
1
0.999999
0.999997
0.999982
0.999978
0.999978
0.999995
1
1
0.999999
0.999999
0.999998
0.999998
0.999998
0.999998
0.999999
0.999999
1
1
1
1
1
0.999993
0.999978
0.999983
0.999998
1
0.999999
0.999999
0.999999
0.999998
0.999998
0.999998
0.999998
0.999998
0.999999
0.999999
1
1
1
1
1
0.999982
0.999989
0.999999
1
0.999999
0.999999
0.999999
0.999998
0.999998
0.999998
0.999998
0.999998
0.999998
0.999999
0.999999
1
1
1
1
0.999996
0.999989
0.999998
1
0.999999
0.999999
0.999999
0.999998
0.999998
0.999998
0.999998
0.999998
0.999998
0.999999
0.999999
1
1
1
1
0.999999
0.999991
0.999996
1
0.999999
0.999999
0.999999
0.999998
0.999998
0.999998
0.999998
0.999998
0.999999
0.999999
1
1
1
1
1
1
0.999991
0.999995
1
0.999999
0.999999
0.999998
0.999998
0.999998
0.999998
0.999998
0.999998
0.999999
0.999999
1
1
1
1
1
1
0.999994
0.999997
1
0.999999
0.999999
0.999998
0.999998
0.999998
0.999998
0.999998
0.999999
0.999999
1
1
1
1
1
1
1
0.999998
1
1
0.999998
0.999998
0.999998
0.999997
0.999997
0.999998
0.999998
0.999999
0.999999
1
1
1
1
1
1
1
0.999999
1
1
0.999998
0.999997
0.999997
0.999997
0.999997
0.999998
0.999998
0.999999
0.999999
1
1
1
1
0.999999
0.999995
0.999994
0.999996
1
1
0.999997
0.999997
0.999997
0.999997
0.999997
0.999998
0.999998
0.999999
0.999999
0.999999
1
1
1
0.999995
0.999967
0.999966
0.999983
0.999997
1
0.999997
0.999997
0.999996
0.999997
0.999997
0.999998
0.999998
0.999999
0.999999
0.999999
0.999999
1
1
0.999994
0.999969
0.999966
0.999966
0.999992
0.999999
0.999997
0.999996
0.999996
0.999997
0.999997
0.999998
0.999999
0.999999
0.999999
0.999999
0.999999
1
1
1
0.999998
0.999979
0.999985
0.999991
0.999999
0.999996
0.999996
0.999996
0.999997
0.999997
0.999998
0.999999
0.999999
0.999999
0.999999
0.999999
1
1
1
1
1
0.999996
0.999996
1
0.999996
0.999996
0.999996
0.999997
0.999998
0.999998
0.999999
0.999999
0.999999
0.999999
0.999999
1
1
1
1
1
0.999996
0.999999
1
0.999996
0.999996
0.999997
0.999997
0.999998
0.999998
0.999999
0.999999
0.999999
0.999999
1
1
1
1
1
1
0.999998
1
1
0.999996
0.999997
0.999997
0.999998
0.999998
0.999999
0.999999
0.999999
0.999999
0.999999
1
1
1
1
1
0.999998
1
1
1
0.999997
0.999997
0.999997
0.999998
0.999999
0.999999
0.999999
0.999999
0.999999
0.999999
1
1
1
1
0.999999
0.999998
1
1
1
0.999997
0.999997
0.999998
0.999998
0.999999
0.999999
0.999999
0.999999
0.999999
0.999999
1
1
1
1
0.999999
0.999999
1
1
1
0.999997
0.999998
0.999998
0.999999
0.999999
0.999999
0.999999
0.999999
0.999999
0.999999
1
1
1
1
1
1
1
1
1
0.999998
0.999998
0.999999
0.999999
0.999999
0.999999
0.999999
0.999999
0.999999
0.999999
1
1
1
1
1
1
1
1
1
0.999998
0.999999
0.999999
0.999999
0.999999
0.999999
0.999999
0.999999
0.999999
0.999999
1
1
1
1
1
1
1
1
1
0.999998
0.999999
0.999999
0.999999
0.999999
0.999999
0.999999
0.999999
0.999999
1
1
1
1
1
1
1
1
1
1
0.999999
0.999999
0.999999
0.999999
0.999999
0.999999
0.999999
0.999999
1
1
1
1
1
1
1
1
1
1
1
0.999999
0.999999
0.999999
0.999999
1
1
1
1
1
1
1
1
1
1
1
1
1
1
1
)
;

boundaryField
{
    leftWall
    {
        type            alphaContactAngle;
        thetaProperties 6 ( ( water mercury ) 90 0 0 0 ( water air ) 90 0 0 0 ( water oil ) 90 0 0 0 ( mercury air ) 90 0 0 0 ( oil mercury ) 90 0 0 0 ( oil air ) 90 0 0 0 );
        value           nonuniform List<scalar> 
50
(
9.78047e-12
4.86116e-11
1.82457e-10
1.01365e-10
5.70039e-11
5.7135e-11
6.30418e-11
3.84354e-10
9.9201e-08
3.8109e-07
3.70039e-07
4.51347e-07
4.15173e-06
0.000310577
0.0312636
0.40392
0.953282
0.999552
0.999999
0.999999
0.999999
0.999999
0.999999
0.999999
0.999999
0.999999
0.999999
0.999999
0.999999
0.999999
0.999999
0.999999
0.999999
0.999999
0.999999
0.999999
0.999999
1
1
1
1
1
1
1
1
1
1
1
1
1
)
;
    }
    rightWall
    {
        type            alphaContactAngle;
        thetaProperties 6 ( ( water mercury ) 90 0 0 0 ( water air ) 90 0 0 0 ( water oil ) 90 0 0 0 ( mercury air ) 90 0 0 0 ( oil mercury ) 90 0 0 0 ( oil air ) 90 0 0 0 );
        value           nonuniform List<scalar> 
50
(
1.19e-05
1.19e-05
1.19e-05
1.98547e-05
2.0563e-05
2.54469e-05
2.50543e-05
2.87068e-05
0.00147584
0.00335232
0.000293845
0.000199249
0.000605892
0.00182791
0.00215806
0.00122607
0.00122607
0.0177156
0.140198
0.790447
0.999508
1
1
1
1
1
1
1
1
1
1
1
1
1
1
1
0.999999
0.999999
1
1
1
1
1
1
1
1
1
1
1
1
)
;
    }
    lowerWall
    {
        type            alphaContactAngle;
        thetaProperties 6 ( ( water mercury ) 90 0 0 0 ( water air ) 90 0 0 0 ( water oil ) 90 0 0 0 ( mercury air ) 90 0 0 0 ( oil mercury ) 90 0 0 0 ( oil air ) 90 0 0 0 );
        value           nonuniform List<scalar> 
62
(
9.78047e-12
1.22045e-11
6.7915e-12
6.67653e-12
7.57406e-12
4.97823e-12
2.93174e-12
1.85094e-12
1.30119e-12
8.52008e-13
4.59795e-13
2.47945e-13
1.77437e-13
1.50871e-13
1.10725e-13
6.77568e-14
4.13727e-14
3.37122e-14
3.75532e-14
4.35213e-14
2.49218e-14
7.96891e-15
2.42295e-14
2.42295e-14
2.4465e-13
1.9161e-12
1.1163e-11
3.78836e-10
6.05269e-09
4.93018e-06
0.000291647
0.0190079
0.023783
0.0242132
0.0246475
6.03472e-06
6.01777e-06
0.000306064
0.0422365
0.31989
0.31989
0.31989
0.193841
6.03472e-06
5.94797e-06
1.87045e-05
4.16168e-05
4.2351e-05
3.72129e-05
2.78995e-05
2.78419e-05
8.39909e-05
0.000248662
0.000258652
0.000163468
1.77442e-05
1.35755e-06
1.35749e-06
1.37186e-06
6.69245e-05
2.0585e-05
1.19e-05
)
;
    }
    atmosphere
    {
        type            inletOutlet;
        inletValue      uniform 1;
        value           nonuniform List<scalar> 
46
(
1
1
1
1
1
1
1
1
1
1
1
1
1
1
1
1
1
0.999999
0.999999
0.999999
0.999999
0.999999
0.999999
0.999998
0.999998
0.999998
0.999998
1
1
1
1
1
1
1
1
1
1
1
1
1
1
1
1
1
1
1
)
;
    }
    defaultFaces
    {
        type            empty;
    }
}


// ************************************************************************* //
