/*--------------------------------*- C++ -*----------------------------------*\
| =========                 |                                                 |
| \\      /  F ield         | OpenFOAM: The Open Source CFD Toolbox           |
|  \\    /   O peration     | Version:  2.4.0                                 |
|   \\  /    A nd           | Web:      www.OpenFOAM.org                      |
|    \\/     M anipulation  |                                                 |
\*---------------------------------------------------------------------------*/
FoamFile
{
    version     2.0;
    format      ascii;
    class       volScalarField;
    location    "0.85";
    object      alphas;
}
// * * * * * * * * * * * * * * * * * * * * * * * * * * * * * * * * * * * * * //

dimensions      [0 0 0 0 0 0 0];

internalField   nonuniform List<scalar> 
2268
(
2
2
2
2
2
2
2
2
2
2
2
2
2
2
2
2
2
2
2
2
2
1.99999
1.99999
1.99907
1.99939
1.99991
1.99998
1.99999
2
2
2
2
2
2
2
2
2
2
2
2
2
2
2
2
1.99999
1.99999
1.56278
1.64691
1.79735
1.9688
1.9987
1.99993
1.99999
2
2
2
2
2
2
2
2
2
2
2
2
2
2
2
1.99999
0.00931277
0.0155563
0.0911281
0.483221
1.23991
1.8996
1.99606
1.99972
1.99995
1.99998
1.99999
2
2
2
2
2
2
2
2
2
2
1.99999
1.99999
9.92308e-06
1.19993e-05
0.000141961
0.00730773
0.18758
1.21874
1.92774
1.99572
1.99956
1.99989
1.99996
1.99998
1.99993
1.99982
1.99979
1.99988
1.99997
2
2
2
1.99999
1.99987
1.99879
1.12574e-05
1.04013e-05
1.04019e-05
0.000306636
0.0480392
0.635368
1.67744
1.96833
1.99643
1.99932
1.99905
1.99454
1.98046
1.96311
1.95951
1.97137
1.98681
1.99556
1.99767
1.99789
1.9952
1.97454
1.86778
1.37776e-05
1.31934e-05
1.27703e-05
0.000109618
0.0208298
0.365833
1.34607
1.91459
1.98011
1.96722
1.8888
1.71615
1.45794
1.2473
1.20831
1.29974
1.47322
1.63884
1.73005
1.76325
1.70695
1.38056
0.712195
6.98405e-06
7.16285e-06
8.20364e-06
2.27117e-05
0.00463773
0.127583
0.699997
1.39275
1.5379
1.33342
0.963134
0.551205
0.239464
0.104588
0.0850785
0.0981067
0.140728
0.209311
0.278187
0.338314
0.333274
0.148367
0.122884
1.86196
1.72414
1.78127
1.83557
1.86126
1.87047
1.87566
1.89739
1.90356
1.90409
1.90506
1.90613
1.90915
1.91133
1.91257
1.91306
1.91336
1.91311
1.91296
1.73004
0.816844
0.697058
0.727556
0.836959
0.915115
1.03792
1.10053
1.10763
1.15709
1.20354
1.21256
1.2979
1.51904
1.77733
1.90852
1.91338
1.91325
1.91292
0.532759
0.370936
0.276615
0.252277
0.244841
0.243453
0.241763
0.236503
0.229291
0.233889
0.22978
0.229033
0.474546
1.05958
1.58442
1.88566
1.91355
1.91344
1.9129
0.590443
0.622566
0.515309
0.402827
0.314315
0.285695
0.296006
0.296118
0.28484
0.233452
0.227038
0.259611
0.559768
1.13201
1.5725
1.85559
1.91372
1.91361
1.90859
1.37111
0.93016
0.855045
0.783148
0.659852
0.484199
0.309588
0.254389
0.245967
0.225515
0.225407
0.27617
0.624029
1.20699
1.63691
1.86984
1.90685
1.91157
1.90852
1.4285
1.02649
0.977437
0.968983
0.944938
0.838524
0.520179
0.283418
0.224448
0.219304
0.230919
0.281707
0.578638
1.09263
1.41468
1.77972
1.90574
1.90326
1.89695
1.51363
1.0995
0.997325
0.987451
0.98714
0.981376
0.843037
0.410109
0.21666
0.217393
0.345737
0.302762
0.528091
0.959476
1.14164
1.42443
1.87852
1.90031
1.88771
1.33874
1.289
1.00861
0.99057
0.990161
0.987848
0.968051
0.666168
0.246976
0.270029
0.331716
0.385869
0.488186
0.857431
1.06159
1.08491
1.49869
1.78515
1.609
3.67927e-06
4.03235e-06
4.53821e-06
7.0008e-06
0.000551815
0.0203121
0.103694
0.17186
0.172968
0.167068
0.123418
0.0553925
0.0179006
0.0149688
0.0123951
0.0112376
0.013364
0.0169099
0.0180817
0.0187596
0.0193021
0.0358641
0.0916739
6.73155e-06
5.55008e-05
0.00019595
8.74699e-05
8.242e-05
0.000635881
0.00330967
0.00503086
0.00443969
0.00267692
0.0023877
0.00169121
0.00251786
0.0115393
0.0219391
0.026041
0.0326102
0.0427207
0.0480858
0.046467
0.0495783
0.109739
0.322677
0.00716699
0.00825745
0.010609
0.00703395
0.00190689
0.0010619
0.00127434
0.00130792
0.00147006
0.00132102
0.00194923
0.010861
0.0537903
0.158573
0.231022
0.221891
0.199156
0.197834
0.192362
0.182947
0.278226
0.705712
1.16249
0.171573
0.241076
0.197747
0.103799
0.0251609
0.0144337
0.00990949
0.00706002
0.0075163
0.0223042
0.0866981
0.191808
0.401602
0.616565
0.790977
1.00871
0.906606
0.546466
0.463974
0.583833
0.88679
1.38542
1.8262
0.552257
0.801933
0.636139
0.325584
0.147222
0.115401
0.112583
0.134381
0.254119
0.506248
0.738618
0.847403
1.02888
1.18968
1.07219
0.990586
0.915335
0.786221
0.776688
0.945302
1.29063
1.86065
1.95996
0.78518
0.846715
0.830958
0.701331
0.582545
0.554311
0.601812
0.731591
1.32403
2.32353
2.8776
2.49076
1.58541
1.06608
0.954575
0.929075
0.921813
0.919324
1.02734
1.8162
2.60375
2.61753
1.7736
0.940312
1.12751
1.18456
1.27221
1.36083
1.51875
1.94415
2.53762
2.96624
2.99941
2.9992
2.97629
2.66119
1.62451
1.02588
0.963559
0.957138
1.07225
1.9325
2.87765
2.99002
2.95497
2.44392
1.79778
2.48567
2.77222
2.85201
2.90533
2.94531
2.98121
2.99429
2.99975
3
3
2.99982
2.97675
2.54738
1.4408
1.07356
1.05925
1.5427
2.7468
2.99789
2.99996
2.9998
2.99921
2.90647
2.98828
2.99819
2.99926
2.99964
2.99985
2.99997
2.99999
3
3
3
3
2.99963
2.94727
2.36217
1.38143
1.14828
1.81436
2.88857
2.99994
3
3
3
2.9991
2.99997
3
3
3
3
3
3
3
3
3
3
3
2.9989
2.92203
2.48732
2.11196
2.3297
2.93363
2.9999
3
3
3
3
3
3
3
3
3
3
3
3
3
3
3
3
2.99997
2.99556
2.96189
2.91814
2.90882
2.97501
2.99956
3
3
3
3
3
3
3
3
3
3
3
3
3
3
3
3
3
2.99994
2.99943
2.99844
2.99744
2.99697
2.99892
3
3
3
3
3
3
3
3
3
3
3
3
3
3
3
3
3
3
3
3
2.99999
2.99985
2.99958
2.99996
3
3
3
3
3
3
3
3
3
3
3
3
3
3
3
3
3
3
3
3
3
2.99998
2.99995
2.99998
3
3
3
3
3
3
3
3
3
3
3
3
3
3
3
3
3
3
3
3
3
2.99999
2.99999
3
3
3
3
3
3
3
3
3
3
3
3
3
3
3
3
3
3
3
3
3
3
3
3
3
3
3
3
3
3
3
3
3
3
3
3
3
3
3
3
3
3
3
3
3
3
3
3
3
3
3
3
3
3
3
3
3
3
3
3
3
3
3
3
3
3
3
3
3
3
3
3
3
3
3
3
3
3
3
3
3
3
3
3
3
3
3
3
3
3
3
3
3
3
3
3
3
3
3
3
3
3
3
3
3
3
3
3
3
3
3
3
3
3
3
3
3
3
3
3
3
3
3
3
3
3
3
3
3
3
3
3
3
3
3
3
3
3
3
3
3
3
3
3
3
3
3
3
3
3
3
3
3
3
3
3
3
3
3
3
3
3
3
3
3
3
3
3
3
3
3
3
3
3
3
3
3
3
3
3
3
3
3
3
3
3
3
3
3
3
3
3
3
3
3
3
3
3
3
3
3
3
3
3
3
3
3
3
3
3
3
3
3
3
3
3
3
3
3
3
3
3
3
3
3
3
3
3
3
3
3
3
3
3
3
3
3
3
3
3
3
3
3
3
3
3
3
3
3
3
3
3
3
3
3
3
3
3
3
3
3
3
3
3
3
3
3
3
3
3
3
3
3
3
3
3
3
3
3
3
3
3
3
3
3
3
3
3
3
3
3
3
3
3
3
3
3
3
3
2.99999
3
3
3
3
3
3
3
3
3
3
3
3
3
3
3
3
3
3
3
3
3
3
2.99999
3
3
3
3
3
3
3
3
3
3
3
3
3
3
3
3
3
3
3
3
3
3
2.99999
3
3
3
3
3
3
3
3
3
3
3
3
3
3
3
3
3
3
3
3
3
3
3
3
3
3
3
3
3
3
3
3
3
3
3
3
3
3
3
3
3
3
3
3
3
3
3
3
3
3
3
3
3
3
3
3
3
3
3
3
3
3
3
3
3
3
3
3
3
3
3
3
3
3
3
3
3
3
3
3
3
3
3
3
3
3
3
3
3
3
3
3
3
3
3
3
3
3
3
3
3
3
3
3
3
3
3
3
3
3
3
3
3
3
3
3
3
3
3
3
3
3
3
3
3
3
3
3
3
3
3
3
3
3
3
3
3
3
3
3
3
3
3
3
3
3
3
3
3
3
3
3
3
3
3
3
3
3
3
3
3
3
3
3
3
3
3
3
3
3
3
3
3
3
3
3
3
3
3
3
3
3
3
3
3
3
3
3
3
3
3
3
3
3
3
3
3
3
3
3
3
3
3
3
3
3
3
3
3
3
3
3
3
3
3
3
3
3
3
3
3
3
3
3
3
3
3
3
3
3
3
3
3
3
3
3
3
3
3
3
3
3
3
3
3
3
3
3
3
3
3
3
3
3
3
3
3
3
3
3
3
3
3
3
3
3
3
3
3
3
3
3
3
3
3
3
0.335437
0.566134
0.787788
0.861067
0.860764
1.12395
1.10045
1.10978
1.28652
1.37034
1.63965
2.19175
2.73542
2.85207
2.92875
2.97696
1.93066
2.18311
2.81861
2.97005
1.61645
1.61652
2.061
2.7639
1.68396
1.61604
1.61539
2.06823
2.99386
2.96059
2.76928
2.22955
3
2.99998
2.99996
2.99998
3
3
3
3
3
3
3
3
3
3
3
3
3
3
3
3
3
3
3
3
3
3
3
3
3
3
3
3
3
3
3
3
3
3
3
3
3
3
3
3
3
3
3
3
3
3
3
3
3
3
3
3
3
3
3
3
3
3
3
3
3
3
3
3
3
3
3
3
2.99999
2.99999
2.99999
2.99999
2.99999
2.99999
2.99999
2.99999
2.99999
2.99999
2.99999
2.99999
2.99999
2.99999
2.99999
2.99999
2.99999
2.99999
2.99999
2.99999
3
3
2.99999
2.99999
3
2.99999
2.99999
2.99999
3
3
2.99999
2.99999
3
2.99999
2.99999
2.99999
3
3
2.99999
2.99999
3
2.99999
2.99999
2.99999
3
3
2.99999
2.99999
3
2.99999
2.99999
2.99999
3
3
2.99999
2.99999
3
2.99999
2.99999
2.99999
2.99999
2.99999
2.99999
3
1.03054
1.18941
1.01423
1.01495
1.01532
1.00691
0.98839
0.907013
0.468735
0.283105
0.271762
0.325796
0.421705
0.682048
0.892661
0.971623
0.997443
0.986297
0.978626
1.2593
1.33662
1.0815
1.02463
1.02466
1.02469
1.01853
0.986593
0.762011
0.334299
0.225473
0.270911
0.364703
0.55074
0.810297
0.945589
0.955063
0.875348
0.78161
2.58245
2.69335
2.48338
1.62896
1.08683
1.03613
1.02072
0.993298
0.866187
0.495985
0.347847
0.350354
0.408948
0.572782
0.744897
0.920221
0.955739
0.880204
0.653793
2.98012
2.98059
2.98058
2.91793
2.23265
1.22447
1.01905
0.980672
0.874859
0.632791
0.492983
0.466435
0.486178
0.590501
0.758702
0.909868
0.953288
0.837928
0.58362
2.97821
2.98057
2.98054
2.97447
2.55327
1.32393
0.947342
0.935785
0.88645
0.721968
0.580881
0.529216
0.558096
0.671463
0.813214
0.917483
0.922933
0.654604
0.556796
2.95283
2.98056
2.97918
2.72242
1.63234
1.01449
0.896505
0.874071
0.841195
0.74531
0.669973
0.654009
0.730978
0.818798
0.87418
0.881825
0.738298
0.561928
0.556592
2.7477
2.91004
2.73042
2.00633
1.1401
0.979166
0.889515
0.847474
0.837002
0.873481
0.921197
0.840175
0.828842
0.828521
0.805172
0.648491
0.57367
0.554256
0.563741
1.57303
1.37992
1.374
1.30549
1.15482
1.03906
0.907659
0.862829
1.04118
1.44339
1.46134
1.10994
0.815975
0.733458
0.616902
0.557033
0.565085
0.568712
0.610686
2.85572
2.3761
2.18568
2.19998
2.05268
1.37058
1.02255
0.905187
1.00445
1.37964
1.41975
1.42004
0.99778
0.599071
0.594172
0.60236
0.64944
0.728855
0.744529
2.9999
2.99649
2.98121
2.97355
2.96232
2.57238
1.51679
1.05773
0.935682
0.803229
0.690351
0.631746
0.633161
0.633348
0.683771
0.789449
0.900393
0.941517
0.919053
3
3
3
3
2.99994
2.9889
2.72977
1.75163
1.19142
1.08626
1.10933
0.781389
0.703955
0.748592
0.850482
1.19534
1.60204
1.69039
1.26009
3
3
3
3
3
2.99999
2.99726
2.90273
2.32898
1.62899
1.32984
1.037
0.857361
0.893203
1.28722
2.47209
2.91976
2.90958
2.58032
3
3
3
3
3
3
3
2.99969
2.96051
2.40097
1.34433
1.12064
1.1002
1.29995
2.5492
2.99948
3
2.99995
2.99902
3
3
3
3
3
3
3
3
2.99984
2.95971
2.41515
1.64849
1.62171
2.53098
2.99439
3
3
3
3
3
3
3
3
3
3
3
3
3
2.99977
2.99444
2.9685
2.95274
2.98993
2.99999
3
3
3
3
3
3
3
3
3
3
3
3
3
3
2.99999
2.99992
2.99989
2.99998
3
2.99999
2.99999
3
3
3
3
3
3
3
3
3
3
3
3
3
3
3
2.99999
2.99999
2.99996
2.99996
2.99999
3
3
3
3
3
3
3
3
3
3
3
3
3
3
3
2.99997
2.99996
2.99996
2.99999
3
3
3
3
3
2.99999
2.99999
3
3
3
3
3
3
3
3
2.99999
2.99996
2.99997
3
3
3
3
3
3
2.99999
2.99999
2.99999
2.99999
3
3
3
3
3
3
3
2.99996
2.99998
3
3
3
3
3
3
2.99999
2.99999
2.99999
2.99999
3
3
3
3
3
3
3
2.99999
2.99998
3
3
3
3
3
2.99999
2.99999
2.99999
2.99999
2.99999
3
3
3
3
3
3
3
3
2.99998
2.99999
3
3
3
3
2.99999
2.99999
2.99999
2.99999
2.99999
3
3
3
3
3
3
3
3
2.99998
2.99999
3
3
3
3
2.99999
2.99999
2.99999
2.99999
3
3
3
3
3
3
3
3
3
2.99999
3
3
3
3
2.99999
2.99999
2.99999
2.99999
2.99999
3
3
3
3
3
3
3
3
3
3
3
3
3
2.99999
2.99999
2.99999
2.99999
2.99999
2.99999
3
3
3
3
3
3
3
3
3
3
3
3
2.99999
2.99999
2.99999
2.99999
2.99999
2.99999
2.99999
3
3
3
3
3
3
3
2.99999
2.99999
2.99999
3
3
2.99999
2.99999
2.99999
2.99999
2.99999
2.99999
3
3
3
3
3
3
3
2.99999
2.99994
2.99993
2.99997
3
3
2.99999
2.99999
2.99999
2.99999
2.99999
2.99999
3
3
3
3
3
3
3
2.99999
2.99994
2.99993
2.99993
2.99999
3
2.99999
2.99999
2.99999
2.99999
2.99999
2.99999
3
3
3
3
3
3
3
3
3
2.99996
2.99997
2.99998
3
2.99999
2.99999
2.99999
2.99999
2.99999
2.99999
3
3
3
3
3
3
3
3
3
3
2.99999
2.99999
3
2.99999
2.99999
2.99999
2.99999
2.99999
2.99999
3
3
3
3
3
3
3
3
3
3
2.99999
3
3
2.99999
2.99999
2.99999
2.99999
2.99999
3
3
3
3
3
3
3
3
3
3
3
3
3
3
2.99999
2.99999
2.99999
2.99999
2.99999
3
3
3
3
3
3
3
3
3
3
3
3
3
3
2.99999
2.99999
2.99999
2.99999
3
3
3
3
3
3
3
3
3
3
3
3
3
3
3
2.99999
2.99999
2.99999
3
3
3
3
3
3
3
3
3
3
3
3
3
3
3
3
2.99999
2.99999
3
3
3
3
3
3
3
3
3
3
3
3
3
3
3
3
3
2.99999
3
3
3
3
3
3
3
3
3
3
3
3
3
3
3
3
3
3
2.99999
3
3
3
3
3
3
3
3
3
3
3
3
3
3
3
3
3
3
3
3
3
3
3
3
3
3
3
3
3
3
3
3
3
3
3
3
3
3
3
3
3
3
3
3
3
3
3
3
3
3
3
3
3
3
3
3
3
3
3
3
3
3
3
3
3
3
3
3
3
3
3
3
3
3
3
)
;

boundaryField
{
    leftWall
    {
        type            zeroGradient;
    }
    rightWall
    {
        type            zeroGradient;
    }
    lowerWall
    {
        type            zeroGradient;
    }
    atmosphere
    {
        type            zeroGradient;
    }
    defaultFaces
    {
        type            empty;
    }
}


// ************************************************************************* //
