/*--------------------------------*- C++ -*----------------------------------*\
| =========                 |                                                 |
| \\      /  F ield         | OpenFOAM: The Open Source CFD Toolbox           |
|  \\    /   O peration     | Version:  2.4.0                                 |
|   \\  /    A nd           | Web:      www.OpenFOAM.org                      |
|    \\/     M anipulation  |                                                 |
\*---------------------------------------------------------------------------*/
FoamFile
{
    version     2.0;
    format      ascii;
    class       volScalarField;
    location    "0.85";
    object      p;
}
// * * * * * * * * * * * * * * * * * * * * * * * * * * * * * * * * * * * * * //

dimensions      [1 -1 -2 0 0 0 0];

internalField   nonuniform List<scalar> 
2268
(
3093.95
3180.76
3294.2
3675.66
4197.19
4785.8
5304.41
5639.64
5834.12
5951.27
5983.34
5968.04
5926.88
5879.88
5844.53
5828.77
5829.57
5838.48
5847.07
5848.09
5826.17
5786.82
5756.56
2375.81
2463.65
2539.93
2859.65
3350.59
3940.52
4528.81
4885.44
5084.24
5174.42
5198.38
5175.35
5127.43
5075.84
5039.53
5026.41
5030.35
5041.49
5051.4
5050.94
5030.07
4986.7
4946.04
1361.49
1375.77
1431.55
1863.72
2545.85
3193.71
3772.87
4125.18
4303.49
4403.83
4417.31
4384.18
4325.61
4265.71
4229.58
4221.02
4230.05
4244.02
4256.2
4256.83
4235.9
4186.42
4126.97
1116.13
1129.42
1162.44
1252.45
1419.25
2320.89
3051.8
3412.41
3587.75
3654.36
3648.42
3596.29
3520.42
3447.98
3412.22
3408.83
3425.16
3451.53
3470.06
3470.8
3442.48
3382.35
3296.29
1183.32
1185.04
1188.33
1194.11
1199.33
1533.22
2354.54
2723.26
2893.92
2915.35
2886.11
2813
2714.02
2622.69
2585.74
2588.29
2609.03
2635.96
2656.1
2663.64
2643.04
2574.78
2467.77
1016.83
1031.73
1050.9
1094.04
1131.73
1128.77
1677.04
2033.74
2172.61
2183.6
2133.22
2019.63
1881.63
1764.56
1732.66
1753.62
1810.57
1874.71
1918.26
1928.77
1894.34
1753.81
1474.64
1018.07
1021.88
1026.11
1031.47
1035.93
924.91
1074.34
1393.61
1425.9
1369.96
1283.05
1188.33
1078.95
978.409
953.769
953.858
978.473
1016.37
1052.85
1072.59
1052.16
970.963
929.145
904.004
913.231
923.859
934.595
925.135
776.511
636.775
663.449
646.23
642.745
691.58
686.215
642.72
621.336
607.239
596.858
598.284
614.308
628.338
634.894
635.412
605.727
671.791
2059
1627.69
1327.71
1228.23
1232.2
1297.19
1418.91
1539.28
1630.26
1790.72
1970.28
2162.3
2472.86
3180.64
3991.49
4984.98
5782.35
6036.13
6078.05
1122.45
805.649
674.51
610.904
617.651
659.36
724.365
815.06
917.19
1019.97
1135.81
1299.12
1484.67
1993.12
2729.39
3777.27
4676.07
4915.14
5039.87
717.358
670.28
677.774
705.999
723.628
749.844
792.102
865.675
963.498
1070.86
1185.93
1307.88
1408.42
1692.51
2243.45
3235.63
4028.93
4424.17
4515.32
613.355
600.469
581.771
573.427
575.369
598.827
650.457
732.692
831.955
934.578
1054.47
1193.48
1287.95
1454.94
1852.6
2608.73
3245.95
3648.09
3731.45
551.75
539.602
531.279
547.498
564.125
594.28
649.839
732.05
832.764
924.388
1014.75
1113.07
1146.72
1197.5
1462.81
2080.18
2614.32
2973.61
3148.49
491.345
490.092
492.569
508.401
512.898
527.27
563.994
642.356
745.957
843.242
934.665
1023.9
1020.42
966.844
1078.99
1430.52
2062.18
2368.55
2536.17
429.811
445.57
454.16
473.57
485.579
505.324
534.646
598.656
700.892
789.036
865.687
937.427
934.336
846.568
901.225
1015.89
1474.83
1804.79
1977.57
391.931
409.768
416.586
437.689
452.46
468.811
495.658
546.766
648.467
737.522
809.784
863.587
874.802
790.468
834.454
869.694
1028.49
1221.93
1436.78
827.002
821.914
811.089
792.781
752.34
609.084
415.894
331.519
327
389.9
474.312
570.51
642.464
691.449
713.399
717.433
710.673
705.088
700.206
692.495
674.614
656.225
560.712
638.388
634.371
625.201
612.292
577.302
503.982
421.202
391.373
382.429
370.733
394.446
430.315
455.4
443.327
423.13
410.721
416.8
439.152
468.438
495.643
502.437
429.032
355.023
513.512
501.052
480.85
464.796
438.33
400.241
350.661
307.569
277.176
275.362
294.197
325.96
346.025
335.658
323.701
326.978
360.422
397.134
408.72
438.686
451.723
423.851
288.446
316.844
300.779
305.245
312.007
304.475
284.455
254.069
225.025
205.552
198.446
211.305
258.222
272.737
224.393
184.542
172.381
190.062
239.324
304.368
376.91
409.29
292.023
195.988
202.966
178.986
177.148
185.616
186.601
178.868
156.861
138.074
104.529
47.5903
18.4626
123.417
292.391
169.991
107.155
99.5782
119.251
142.196
179.427
199.982
153.66
106.68
106.5
148.005
125.377
124.388
120.073
108.384
88.1591
59.3791
25.8504
11.2452
7.13789
6.11255
15.2579
57.7032
77.2682
76.6245
82.1939
96.9749
95.6533
62.3182
31.5751
13.017
15.9569
35.1106
93.7757
42.5739
22.5004
18.0984
14.4783
10.8724
8.07358
6.46907
5.18696
5.02057
5.0924
5.10805
4.68438
3.42576
21.7104
61.9061
59.8898
34.2859
17.4123
3.86577
3.23138
3.55298
3.42081
18.2857
7.49668
5.60766
5.09507
4.89331
4.8448
4.78251
4.8531
5.24901
5.36507
5.30652
4.96966
4.34664
3.51937
3.28895
42.5464
32.2917
14.3081
5.42962
4.19181
4.49759
4.37573
4.14327
4.90415
4.6471
4.69657
4.76311
4.88114
5.03918
5.15872
5.14453
5.07508
5.05164
5.07652
4.86311
4.40659
4.19518
3.62942
4.51178
16.1684
10.2654
4.27401
4.22681
4.28021
3.98788
4.00736
4.69035
4.71021
4.64277
4.64106
4.70453
4.76512
4.82233
4.84831
4.8085
4.7828
4.76165
4.60891
4.33306
4.24545
4.01975
3.88518
3.81053
5.1531
3.86983
3.90381
3.59882
3.13246
3.08349
4.54395
4.46052
4.45956
4.50495
4.57034
4.62213
4.6454
4.62003
4.57541
4.53385
4.49191
4.39661
4.22468
4.06914
3.93294
3.79782
3.619
3.62046
3.67584
3.6169
3.21722
2.68399
2.59711
4.31417
4.25335
4.28873
4.32742
4.3748
4.4157
4.44303
4.42494
4.37561
4.31217
4.25997
4.1917
4.07523
3.94309
3.81856
3.69263
3.67294
3.76189
3.70842
3.47448
3.04873
2.46843
2.16358
4.15401
4.13973
4.15156
4.1795
4.21839
4.23859
4.24216
4.22674
4.18333
4.1206
4.06203
3.99985
3.91407
3.81361
3.71529
3.6273
3.58124
3.5726
3.49755
3.34749
2.95283
2.3716
1.8047
4.03284
4.02451
4.02101
4.03258
4.05076
4.05892
4.0547
4.03865
3.99926
3.94559
3.88629
3.82646
3.75487
3.67283
3.59219
3.5172
3.44817
3.37972
3.2774
3.11859
2.81156
2.2961
1.67155
3.90051
3.88772
3.88061
3.88112
3.8857
3.88489
3.87625
3.85903
3.82481
3.7786
3.72396
3.66595
3.60115
3.53022
3.45732
3.38428
3.30712
3.21788
3.10151
2.94149
2.70058
2.33401
1.9349
3.74954
3.74087
3.7327
3.72717
3.7239
3.71688
3.70406
3.68494
3.65467
3.61262
3.5633
3.51032
3.45099
3.38692
3.31919
3.24811
3.17085
3.08299
2.96967
2.83374
2.6506
2.41956
2.19629
3.59703
3.5914
3.58101
3.57247
3.5646
3.55372
3.53818
3.51706
3.48819
3.45066
3.40657
3.35738
3.30349
3.24559
3.18325
3.11665
3.04429
2.96316
2.86999
2.75773
2.61507
2.46847
2.35323
3.44154
3.43702
3.42709
3.41806
3.407
3.39386
3.37687
3.35518
3.32765
3.29375
3.25413
3.20973
3.16086
3.10793
3.05111
2.99024
2.92469
2.85299
2.7743
2.68447
2.58167
2.48713
2.43572
3.28474
3.28121
3.27234
3.26261
3.25065
3.23656
3.21932
3.1981
3.17232
3.1416
3.10603
3.06606
3.02205
2.97395
2.92252
2.86772
2.80952
2.74764
2.68237
2.61294
2.54283
2.48104
2.46691
3.12888
3.12566
3.11784
3.1084
3.09658
3.08245
3.06556
3.04526
3.0212
2.99319
2.96117
2.92523
2.88562
2.8426
2.79669
2.74808
2.69733
2.64469
2.59138
2.53839
2.49048
2.45171
2.44678
2.97486
2.97187
2.96505
2.95622
2.94496
2.93143
2.91518
2.89601
2.87367
2.84806
2.8191
2.78687
2.75156
2.71341
2.67284
2.63035
2.58669
2.54235
2.49893
2.45784
2.42265
2.39713
2.39013
2.82303
2.82028
2.81429
2.80613
2.7956
2.78283
2.76757
2.74973
2.72917
2.70585
2.67973
2.6509
2.6195
2.58583
2.55034
2.51358
2.47617
2.43887
2.40318
2.37035
2.34271
2.3232
2.31349
2.67337
2.67086
2.66555
2.6581
2.64837
2.6365
2.62237
2.60594
2.58714
2.56599
2.54248
2.51673
2.48892
2.45937
2.42844
2.39667
2.36469
2.33328
2.30358
2.27661
2.25401
2.23703
2.22601
2.52581
2.52352
2.51879
2.51202
2.50314
2.49223
2.47927
2.46426
2.44718
2.42807
2.40701
2.38411
2.35958
2.33366
2.30676
2.27935
2.25198
2.22535
2.20029
2.17768
2.15849
2.14323
2.13168
2.38018
2.37811
2.37388
2.36774
2.35968
2.34975
2.33797
2.32436
2.30896
2.29183
2.27305
2.25275
2.23112
2.20844
2.18505
2.16135
2.13788
2.11516
2.09386
2.07457
2.05787
2.0439
2.03242
2.23631
2.23445
2.23066
2.22513
2.21785
2.20888
2.19824
2.18599
2.17218
2.15688
2.14018
2.12222
2.10321
2.0834
2.06308
2.04264
2.02245
2.00296
1.98466
1.96792
1.95321
1.94047
1.92946
2.09405
2.09239
2.08901
2.08405
2.07751
2.06945
2.0599
2.04893
2.03659
2.02298
2.0082
1.99239
1.97574
1.95846
1.94082
1.92311
1.90566
1.88886
1.87303
1.85851
1.84547
1.83387
1.8236
1.95325
1.95176
1.94875
1.94433
1.93848
1.93128
1.92276
1.91298
1.90203
1.88998
1.87696
1.86308
1.84851
1.83344
1.81811
1.80277
1.78772
1.7732
1.75947
1.74675
1.73516
1.72472
1.7153
1.81373
1.81241
1.80974
1.8058
1.80061
1.79421
1.78665
1.778
1.76832
1.7577
1.74625
1.73409
1.72138
1.70828
1.69499
1.68173
1.66869
1.6561
1.64416
1.63303
1.6228
1.61345
1.60494
1.67538
1.67421
1.67185
1.66837
1.66378
1.65813
1.65146
1.64383
1.63531
1.626
1.61598
1.60537
1.59431
1.58294
1.57144
1.55996
1.54869
1.53779
1.52743
1.5177
1.50869
1.5004
1.49279
1.53805
1.53703
1.53495
1.53189
1.52786
1.5229
1.51704
1.51036
1.50291
1.49478
1.48606
1.47684
1.46726
1.45743
1.44749
1.43759
1.42786
1.41844
1.40945
1.40098
1.39309
1.38578
1.37905
1.40163
1.40073
1.39892
1.39625
1.39273
1.38839
1.38329
1.37747
1.371
1.36395
1.3564
1.34844
1.34017
1.33171
1.32315
1.31463
1.30627
1.29816
1.2904
1.28307
1.2762
1.26981
1.26391
1.26599
1.26522
1.26365
1.26134
1.25829
1.25454
1.25012
1.2451
1.23952
1.23345
1.22695
1.22012
1.21303
1.20578
1.19846
1.19118
1.18402
1.17708
1.17042
1.16411
1.15818
1.15264
1.14751
1.13105
1.13039
1.12904
1.12705
1.12444
1.12123
1.11745
1.11315
1.10838
1.1032
1.09766
1.09184
1.08582
1.07966
1.07345
1.06727
1.06119
1.05529
1.04962
1.04424
1.03916
1.03441
1.03
0.996702
0.996138
0.994996
0.993314
0.9911
0.988382
0.985186
0.981553
0.977527
0.973154
0.96849
0.963594
0.958525
0.953348
0.948133
0.942944
0.937842
0.93288
0.928108
0.923564
0.919272
0.915246
0.911489
0.86285
0.862381
0.861428
0.860027
0.858186
0.855925
0.853271
0.850256
0.846914
0.843286
0.839416
0.835354
0.831152
0.826866
0.82255
0.818253
0.814022
0.80991
0.805955
0.802179
0.798605
0.795245
0.792095
0.729419
0.729029
0.728252
0.727113
0.725619
0.723789
0.721641
0.719201
0.716494
0.713555
0.710419
0.707126
0.703719
0.700241
0.696735
0.693242
0.689809
0.686469
0.683246
0.680167
0.677252
0.674502
0.671915
0.596344
0.596041
0.595431
0.594537
0.593367
0.591931
0.590246
0.588332
0.58621
0.583907
0.581449
0.578868
0.576196
0.573464
0.570707
0.56796
0.56525
0.562604
0.56005
0.55761
0.555293
0.553104
0.551036
0.463546
0.46332
0.462862
0.462192
0.461317
0.460245
0.458989
0.457563
0.455983
0.454269
0.452442
0.450524
0.448536
0.446501
0.444445
0.442386
0.44035
0.438359
0.436433
0.434581
0.432815
0.43114
0.429554
0.330963
0.330801
0.330491
0.330039
0.329441
0.328705
0.327843
0.326864
0.325781
0.324607
0.323356
0.322042
0.320681
0.319288
0.317878
0.316468
0.315069
0.313696
0.312356
0.31106
0.309818
0.308637
0.307507
0.198538
0.198445
0.19824
0.19795
0.197614
0.197197
0.196705
0.196144
0.195523
0.19485
0.194132
0.19338
0.192604
0.191813
0.191013
0.190211
0.189412
0.188624
0.187852
0.187101
0.186373
0.185672
0.184994
0.0661598
0.0661882
0.0661091
0.065975
0.0658446
0.0657059
0.0655532
0.0653804
0.0651889
0.0649806
0.0647585
0.0645273
0.0642901
0.0640487
0.0638048
0.0635591
0.0633116
0.063066
0.062823
0.0625833
0.0623471
0.0621147
0.0618858
539.439
525.45
517.795
476.586
304.15
286.152
272.902
245.995
225.68
214.112
195.155
177.627
169.77
164.782
162.083
161.42
146.889
162.315
162.045
161.782
83.062
126.381
155.578
158.239
11.687
29.6464
77.1077
128.488
4.55645
5.06656
6.72876
19.7235
4.04774
3.84012
3.05276
1.76271
3.02613
3.01043
2.97335
2.83113
2.44209
2.35965
2.35521
2.3954
1.99612
1.92561
1.90813
1.91562
1.5267
1.37283
1.29018
1.31376
1.31858
1.15508
1.08671
1.11382
1.68897
1.56807
1.50526
1.49815
2.06736
1.99735
1.95327
1.94517
2.31052
2.28384
2.26969
2.26524
2.43332
2.43264
2.43497
2.43344
2.47309
2.47668
2.48104
2.48189
2.44879
2.45073
2.45147
2.45127
2.38781
2.38686
2.38512
2.38285
2.30856
2.30553
2.30213
2.29855
2.21952
2.21527
2.21095
2.20665
2.12434
2.11962
2.11496
2.11037
2.02489
2.02006
2.01534
2.01075
1.92211
1.91745
1.91291
1.90852
1.81666
1.81229
1.80805
1.80397
1.70891
1.70491
1.70103
1.69731
1.59916
1.59554
1.59205
1.5887
1.48761
1.48439
1.48128
1.4783
1.37446
1.37161
1.36887
1.36625
1.25988
1.25738
1.25498
1.25267
1.144
1.14183
1.13974
1.13773
1.02697
1.0251
1.02329
1.02155
0.908905
0.907302
0.905754
0.90426
0.78992
0.788567
0.787255
0.785983
0.670118
0.668995
0.667902
0.666834
0.549591
0.548684
0.547793
0.546916
0.428437
0.427731
0.427034
0.42634
0.3067
0.306184
0.305668
0.305146
0.1845
0.18418
0.183855
0.183521
0.061703
0.0615738
0.0614282
0.0612537
359.507
366.938
363.331
383.666
402.267
419.242
441.885
475.403
565.084
655.982
723.566
766.815
790.664
751.911
813.972
850.356
848.04
879.218
958.85
213.81
216.581
221.833
301.671
342.738
363.424
370.979
401.465
477.342
563.166
619.825
653.871
698.792
716.006
795.197
804.131
833.401
888.094
955.943
165.756
163.955
167.646
192.15
272.551
321.045
313.551
336.787
411.47
483.719
533.699
565.348
602.175
642.3
708.527
719.8
748.056
770.557
828.766
161.363
161.834
162.115
163.427
175.736
245.72
273.86
293.995
357.516
414.721
461.646
487.19
518.353
583.693
660.127
692.939
705.88
715.775
742.974
161.188
161.656
162.385
163.696
161.316
181.931
262.133
270.434
312.319
354.819
393.765
421.11
452.641
530.972
612.895
650.396
659.098
658.846
668.463
158.883
159.87
160.725
159.244
151.06
160.709
199.075
223.893
263.471
297.989
326.784
354.229
405.467
484.956
572.35
617.64
618.27
601.908
594.459
155.691
158.91
155.264
136.351
119.088
130.12
140.612
164.381
196.423
225.274
260.604
307.976
371.152
446.844
523.101
550.575
555.695
533.189
510.663
68.0276
107.59
93.7435
58.2373
53.915
78.5239
90.0203
117.575
151.932
190.886
223.054
263.606
337.704
395.771
435.35
453.846
467.915
450.534
418.437
2.08645
7.34475
11.402
12.1426
14.4839
23.6967
48.9359
81.9577
123.135
165.938
201.337
233.854
274.743
326.612
344.859
357.212
373.19
357.981
321.719
2.54108
2.48764
2.44883
2.41998
2.52465
3.30199
13.4767
41.7846
75.4051
117.258
162.976
202.577
219.058
237.699
236.884
239.353
241.883
225.01
199.913
2.53339
3.03173
3.43791
3.62782
3.54802
3.29293
3.57879
8.66017
29.249
60.8048
95.2127
133.004
145.657
139.254
117.915
77.5039
93.1973
97.797
58.5163
2.02863
2.45537
2.80714
2.98262
3.11265
3.24031
3.2259
3.21691
5.09365
21.369
44.4513
59.5976
76.8951
58.6731
26.564
20.8012
1.11785
3.89461
12.6393
1.52414
2.211
2.68995
2.94336
3.03886
3.10605
3.20035
3.28907
3.27357
3.34764
14.4885
27.284
28.9872
15.6831
8.759
-0.208043
3.6086
3.64922
3.09495
1.3056
2.07669
2.58999
2.86838
2.99473
3.02923
3.06591
3.15662
3.27427
3.04192
2.78275
5.82869
8.01577
4.2558
2.19872
2.56594
3.12976
3.53412
3.75656
1.57546
2.10535
2.57261
2.80575
2.89541
2.91447
2.90485
2.92606
2.85612
2.30554
1.79602
1.79415
1.28509
1.31527
1.48308
1.53481
2.10611
2.55448
2.81476
1.97574
2.27994
2.57862
2.74525
2.80521
2.81984
2.80374
2.78806
2.69882
2.27826
2.05049
2.03338
1.75909
1.43931
1.08554
1.28437
1.6146
1.94529
2.31945
2.27417
2.40818
2.57467
2.67699
2.71774
2.72641
2.71809
2.74487
2.58316
2.23595
2.00814
1.75253
1.28794
0.908697
0.909511
1.04997
1.30684
1.64628
2.0598
2.44512
2.48979
2.55892
2.60435
2.62263
2.62235
2.609
2.58093
2.49106
2.29235
2.00184
1.62949
1.09681
0.842823
0.955734
1.18786
1.47079
1.81402
2.10943
2.48974
2.49848
2.51017
2.52232
2.52415
2.51391
2.49044
2.44855
2.35154
2.16585
1.95796
1.70887
1.39489
1.19729
1.25438
1.49342
1.80499
2.11676
2.29553
2.44968
2.4437
2.43946
2.43391
2.42556
2.40902
2.38318
2.34267
2.27119
2.16544
2.02306
1.84785
1.67536
1.57249
1.62311
1.80053
2.06264
2.29454
2.42754
2.37814
2.36823
2.35613
2.34331
2.3288
2.31054
2.2863
2.25101
2.20233
2.13204
2.04287
1.94703
1.87217
1.8164
1.85212
1.98784
2.19602
2.38977
2.50615
2.29211
2.28019
2.2664
2.25103
2.23486
2.21698
2.19496
2.16717
2.13266
2.08739
2.03697
1.98357
1.94624
1.92997
1.97917
2.09197
2.2592
2.43059
2.52854
2.1992
2.18696
2.17326
2.15796
2.14244
2.12578
2.10749
2.08658
2.0625
2.03479
2.0077
1.98305
1.96173
1.96228
2.00791
2.11482
2.25952
2.39173
2.47243
2.10254
2.0907
2.07778
2.06377
2.04975
2.03535
2.02105
2.00572
1.98963
1.97374
1.95918
1.95164
1.93932
1.93913
1.98135
2.0818
2.20351
2.30904
2.37401
2.00303
1.99202
1.98028
1.96798
1.95597
1.94407
1.93327
1.92248
1.91218
1.90402
1.89722
1.89336
1.881
1.8752
1.91229
2.00653
2.1148
2.20657
2.2487
1.90122
1.89114
1.88079
1.87023
1.86023
1.85077
1.84274
1.83549
1.82943
1.82592
1.8245
1.81881
1.80056
1.78324
1.80627
1.89858
1.99212
2.07282
2.10708
1.79724
1.78816
1.77915
1.77026
1.76207
1.75465
1.74872
1.74398
1.74065
1.7398
1.74129
1.73576
1.71672
1.68896
1.7019
1.78195
1.8544
1.92534
1.95804
1.69121
1.6831
1.67536
1.66793
1.66122
1.65546
1.65097
1.64777
1.64611
1.64613
1.64806
1.64431
1.63001
1.60388
1.61789
1.67891
1.73051
1.78117
1.81353
1.58325
1.57612
1.56944
1.56322
1.55772
1.55311
1.54964
1.54724
1.54616
1.54627
1.54699
1.54504
1.53694
1.52197
1.54098
1.57868
1.61492
1.65343
1.68363
1.47348
1.46722
1.46147
1.45623
1.45166
1.44788
1.44503
1.443
1.44195
1.44145
1.44121
1.44028
1.43771
1.43183
1.44934
1.47386
1.50165
1.53313
1.55801
1.362
1.35654
1.35158
1.34712
1.34327
1.34006
1.33759
1.33572
1.33442
1.33344
1.33234
1.33133
1.33124
1.33141
1.34531
1.36325
1.38571
1.41117
1.42999
1.24896
1.24421
1.23991
1.23607
1.23275
1.22997
1.22774
1.22595
1.22445
1.22314
1.22137
1.22012
1.21911
1.22047
1.23011
1.24622
1.26577
1.28813
1.30042
1.1345
1.13036
1.12661
1.12327
1.12035
1.11787
1.11581
1.1141
1.1125
1.11105
1.10878
1.10597
1.10259
1.09934
1.10891
1.12575
1.14439
1.16334
1.17179
1.01875
1.01514
1.01186
1.0089
1.00628
1.00399
1.00203
1.00036
0.998831
0.997329
0.99538
0.990752
0.98448
0.973355
0.984655
1.0031
1.0223
1.03553
1.04199
0.901847
0.898704
0.895803
0.893138
0.890705
0.888507
0.886549
0.884792
0.883262
0.881713
0.880199
0.87538
0.868668
0.857544
0.867063
0.881744
0.89976
0.906659
0.912977
0.783917
0.781183
0.778602
0.776158
0.773837
0.771635
0.769579
0.767597
0.765847
0.764093
0.762273
0.7592
0.753791
0.751082
0.759988
0.767075
0.776406
0.781526
0.785563
0.665085
0.662716
0.660407
0.65813
0.655864
0.653592
0.651363
0.649087
0.64698
0.644804
0.643005
0.64191
0.638305
0.638721
0.64386
0.647815
0.653387
0.657797
0.66056
0.545464
0.543432
0.541364
0.53922
0.536973
0.534601
0.532166
0.529598
0.527183
0.524497
0.522426
0.521093
0.518874
0.519893
0.52414
0.527542
0.531298
0.533526
0.537109
0.425167
0.423453
0.421611
0.419587
0.417345
0.414862
0.412183
0.409078
0.406211
0.403426
0.400983
0.399078
0.397697
0.398725
0.40277
0.405762
0.408736
0.410907
0.414748
0.304262
0.302876
0.301264
0.299365
0.297104
0.294366
0.291279
0.287968
0.284895
0.281493
0.278554
0.276682
0.276583
0.277281
0.280331
0.283099
0.286132
0.288643
0.292313
0.182921
0.18186
0.180427
0.17854
0.176194
0.173344
0.170102
0.166183
0.16234
0.157987
0.155158
0.152862
0.152416
0.153972
0.157479
0.161528
0.16604
0.168332
0.171664
0.0609044
0.060201
0.0591314
0.0575611
0.0554523
0.0526191
0.0491936
0.0447167
0.0402591
0.034353
0.0304315
0.027542
0.0270502
0.0293519
0.033674
0.0393298
0.0469988
0.0508695
0.0549522
)
;

boundaryField
{
    leftWall
    {
        type            fixedFluxPressure;
        gradient        uniform 0;
        value           nonuniform List<scalar> 
50
(
3093.95
2375.81
1361.49
1116.13
1183.32
1016.83
1018.07
904.004
827.002
638.388
513.512
316.844
202.966
148.005
93.7757
18.2857
4.90415
4.69035
4.54395
4.31417
4.15401
4.03284
3.90051
3.74954
3.59703
3.44154
3.28474
3.12888
2.97486
2.82303
2.67337
2.52581
2.38018
2.23631
2.09405
1.95325
1.81373
1.67538
1.53805
1.40163
1.26599
1.13105
0.996702
0.86285
0.729419
0.596344
0.463546
0.330963
0.198538
0.0661598
)
;
    }
    rightWall
    {
        type            fixedFluxPressure;
        gradient        uniform 0;
        value           nonuniform List<scalar> 
50
(
6078.05
5039.87
4515.32
3731.45
3148.49
2536.17
1977.57
1436.78
958.85
955.943
828.766
742.974
668.463
594.459
510.663
418.437
321.719
199.913
58.5163
12.6393
3.09495
3.75656
2.81476
2.31945
2.0598
2.10943
2.29553
2.42754
2.50615
2.52854
2.47243
2.37401
2.2487
2.10708
1.95804
1.81353
1.68363
1.55801
1.42999
1.30042
1.17179
1.04199
0.912977
0.785563
0.66056
0.537109
0.414748
0.292313
0.171664
0.0549522
)
;
    }
    lowerWall
    {
        type            fixedFluxPressure;
        gradient        nonuniform List<scalar> 
62
(
132719
132719
132719
132719
132719
132719
132719
132719
132719
132719
132719
132719
132719
132719
132719
132719
132719
132719
132719
132719
132719
132719
132718
0
0
0
0
0
0
0
0
6183.06
4331.02
3378.55
3297.72
0
0
0
0
0
0
0
0
47068.6
39138.6
42352.6
46873.4
49560.6
50774.6
51473.5
58711
61473.9
61842.8
62301.7
62475
63700.2
65050
65144.7
64667.5
63388.3
63242
62777.6
)
;
        value           nonuniform List<scalar> 
62
(
3492.1
3578.91
3692.35
4073.81
4595.34
5183.95
5702.56
6037.79
6232.27
6349.42
6381.49
6366.19
6325.03
6278.02
6242.68
6226.92
6227.72
6236.63
6245.22
6246.24
6224.32
6184.96
6154.71
5756.56
4946.04
4126.97
3296.29
2467.77
1474.64
929.145
671.791
578.893
553.086
539.354
497.629
2059
1122.45
717.358
613.355
551.75
491.345
429.811
391.931
2200.2
1745.11
1454.76
1368.84
1380.88
1449.51
1573.33
1715.41
1814.68
1976.25
2157.18
2349.72
2663.96
3375.79
4186.92
5178.98
5972.51
6225.85
6266.38
)
;
    }
    atmosphere
    {
        type            totalPressure;
        U               U.air;
        phi             phi.air;
        rho             rho;
        psi             none;
        gamma           1;
        p0              uniform 0;
        value           nonuniform List<scalar> 
46
(
0
0
0
0
0
0
0
0
0
0
0
0
0
0
0
0
0
0
0
0
0
0
0
0
0
0
0
-1.72426e-05
-0.000319121
-0.00107081
-0.00234292
-0.00419312
-0.00670148
-0.00980222
-0.0139692
-0.0182786
-0.0245173
-0.0288803
-0.0343337
-0.035345
-0.0342694
-0.0302724
-0.0247096
-0.0169081
-0.0131479
-0.00791249
)
;
    }
    defaultFaces
    {
        type            empty;
    }
}


// ************************************************************************* //
