/*--------------------------------*- C++ -*----------------------------------*\
| =========                 |                                                 |
| \\      /  F ield         | OpenFOAM: The Open Source CFD Toolbox           |
|  \\    /   O peration     | Version:  2.4.0                                 |
|   \\  /    A nd           | Web:      www.OpenFOAM.org                      |
|    \\/     M anipulation  |                                                 |
\*---------------------------------------------------------------------------*/
FoamFile
{
    version     2.0;
    format      ascii;
    class       surfaceScalarField;
    location    "0.85";
    object      phi;
}
// * * * * * * * * * * * * * * * * * * * * * * * * * * * * * * * * * * * * * //

dimensions      [0 3 -1 0 0 0 0];

internalField   nonuniform List<scalar> 
4432
(
1.37253e-07
-1.37253e-07
-6.28073e-08
2.00061e-07
-1.99186e-06
1.92906e-06
-5.98404e-06
3.99217e-06
-1.06494e-05
4.66538e-06
-1.61556e-05
5.50623e-06
-2.06242e-05
4.46852e-06
-2.26652e-05
2.04099e-06
-2.27714e-05
1.06214e-07
-2.19515e-05
-8.199e-07
-2.09162e-05
-1.03529e-06
-1.9358e-05
-1.55818e-06
-1.70886e-05
-2.26939e-06
-1.45626e-05
-2.526e-06
-1.25807e-05
-1.98196e-06
-1.13599e-05
-1.22073e-06
-1.05527e-05
-8.07249e-07
-9.60519e-06
-9.47483e-07
-8.11017e-06
-1.49502e-06
-5.86867e-06
-2.24151e-06
-4.41233e-06
-1.45634e-06
-3.58628e-06
-8.26048e-07
-3.58628e-06
-1.07968e-07
-2.92856e-08
-1.47014e-07
2.39107e-07
-1.10079e-06
2.88284e-06
-3.94989e-06
6.84127e-06
-8.28074e-06
8.99624e-06
-1.47061e-05
1.19316e-05
-2.01797e-05
9.94204e-06
-2.30231e-05
4.88439e-06
-2.33229e-05
4.06076e-07
-2.24563e-05
-1.68654e-06
-2.10174e-05
-2.47417e-06
-1.91151e-05
-3.46052e-06
-1.6738e-05
-4.64649e-06
-1.4363e-05
-4.901e-06
-1.25289e-05
-3.816e-06
-1.12223e-05
-2.52734e-06
-1.02437e-05
-1.78589e-06
-9.21748e-06
-1.97368e-06
-7.51864e-06
-3.19385e-06
-5.46395e-06
-4.2962e-06
-3.46836e-06
-3.45194e-06
-1.80988e-06
-2.48452e-06
-5.39616e-06
1.11531e-06
-1.1446e-06
6.62192e-07
6.9223e-07
-1.72525e-06
5.27028e-06
-6.68144e-06
1.17975e-05
-1.23121e-05
1.46269e-05
-1.73771e-05
1.69967e-05
-2.15554e-05
1.41203e-05
-2.35388e-05
6.86779e-06
-2.36657e-05
5.3297e-07
-2.25974e-05
-2.75482e-06
-2.07493e-05
-4.32231e-06
-1.85552e-05
-5.65458e-06
-1.63862e-05
-6.81548e-06
-1.43548e-05
-6.93239e-06
-1.27307e-05
-5.44009e-06
-1.13395e-05
-3.9186e-06
-9.98503e-06
-3.14033e-06
-8.73024e-06
-3.22847e-06
-7.17187e-06
-4.75222e-06
-5.57384e-06
-5.89423e-06
-3.27498e-06
-5.7508e-06
-1.10795e-06
-4.65155e-06
-6.50411e-06
-2.69137e-06
1.54677e-06
-6.54788e-06
4.54874e-06
-8.79874e-06
7.52113e-06
-9.16694e-06
1.21657e-05
-1.62856e-05
2.17455e-05
-2.26002e-05
2.33113e-05
-2.45748e-05
1.60949e-05
-2.5218e-05
7.51099e-06
-2.44051e-05
-2.79845e-07
-2.24907e-05
-4.66927e-06
-2.02727e-05
-6.54035e-06
-1.82409e-05
-7.6863e-06
-1.62653e-05
-8.79111e-06
-1.42741e-05
-8.92359e-06
-1.23382e-05
-7.37603e-06
-1.04715e-05
-5.78529e-06
-8.95108e-06
-4.66074e-06
-7.93395e-06
-4.24559e-06
-7.38927e-06
-5.29691e-06
-6.88087e-06
-6.40262e-06
-4.76659e-06
-7.86508e-06
-1.81868e-06
-7.59945e-06
-8.32279e-06
-1.15201e-06
2.69879e-06
-2.0125e-06
5.40923e-06
-2.91247e-06
8.4211e-06
-8.04673e-06
1.72999e-05
-1.94923e-05
3.31911e-05
-2.78162e-05
3.16352e-05
-2.94547e-05
1.77334e-05
-2.95565e-05
7.6128e-06
-2.84031e-05
-1.43328e-06
-2.60297e-05
-7.0427e-06
-2.29412e-05
-9.62885e-06
-1.99289e-05
-1.06985e-05
-1.74817e-05
-1.12384e-05
-1.53753e-05
-1.10299e-05
-1.28439e-05
-9.90749e-06
-1.02487e-05
-8.38042e-06
-8.36869e-06
-6.54078e-06
-7.61113e-06
-5.00315e-06
-7.52512e-06
-5.38291e-06
-7.27318e-06
-6.65457e-06
-5.84021e-06
-9.29804e-06
-2.87493e-06
-1.05647e-05
-1.11977e-05
-4.61688e-06
7.31566e-06
-1.00833e-05
1.08757e-05
-1.71688e-05
1.55065e-05
-2.2908e-05
2.30391e-05
-3.03706e-05
4.06537e-05
-3.76721e-05
3.89367e-05
-3.68306e-05
1.68918e-05
-3.4332e-05
5.11424e-06
-3.27729e-05
-2.99242e-06
-3.02917e-05
-9.52389e-06
-2.66608e-05
-1.32598e-05
-2.30523e-05
-1.4307e-05
-2.00385e-05
-1.42522e-05
-1.7659e-05
-1.34095e-05
-1.5129e-05
-1.24375e-05
-1.25889e-05
-1.09205e-05
-1.01245e-05
-9.00523e-06
-8.40179e-06
-6.72583e-06
-7.55858e-06
-6.22612e-06
-6.85375e-06
-7.35939e-06
-5.34889e-06
-1.08029e-05
-3.24415e-06
-1.26695e-05
-1.44419e-05
-1.39434e-06
8.71001e-06
-3.57563e-06
1.30569e-05
-7.80255e-06
1.97335e-05
-1.55791e-05
3.08157e-05
-2.78712e-05
5.29459e-05
-4.21324e-05
5.31978e-05
-4.56638e-05
2.04233e-05
-4.3424e-05
2.87445e-06
-3.88118e-05
-7.60468e-06
-3.40321e-05
-1.43036e-05
-2.90137e-05
-1.82781e-05
-2.29389e-05
-2.03818e-05
-1.77699e-05
-1.94212e-05
-1.5778e-05
-1.54013e-05
-1.54308e-05
-1.27847e-05
-1.50771e-05
-1.12742e-05
-1.33793e-05
-1.0703e-05
-1.03023e-05
-9.80285e-06
-7.70445e-06
-8.82397e-06
-6.00832e-06
-9.05553e-06
-6.14504e-06
-1.06662e-05
-8.11595e-06
-1.06986e-05
-2.25578e-05
-3.16685e-06
1.18769e-05
-6.15331e-06
1.60434e-05
-9.48926e-06
2.30694e-05
-1.27042e-05
3.40306e-05
-1.79264e-05
5.8168e-05
-3.20896e-05
6.7361e-05
-4.15643e-05
2.9898e-05
-4.25499e-05
3.86007e-06
-4.004e-05
-1.01146e-05
-3.59111e-05
-1.84325e-05
-2.86857e-05
-2.55035e-05
-1.87922e-05
-3.02753e-05
-1.23378e-05
-2.58756e-05
-1.08122e-05
-1.6927e-05
-1.23191e-05
-1.12778e-05
-1.55303e-05
-8.06299e-06
-1.70804e-05
-9.15285e-06
-1.39778e-05
-1.29055e-05
-9.91418e-06
-1.28875e-05
-7.97177e-06
-1.09979e-05
-9.72404e-06
-8.91391e-06
-1.57638e-05
-4.65887e-06
-3.83216e-05
5.16244e-06
-5.16244e-06
2.34064e-05
-1.82439e-05
2.98344e-05
-6.42804e-06
3.18596e-05
-2.02523e-06
3.32754e-05
-1.41576e-06
3.46037e-05
-1.3283e-06
3.65693e-05
-1.96564e-06
3.80826e-05
-1.51331e-06
3.98207e-05
-1.73811e-06
4.24745e-05
-2.65373e-06
4.48441e-05
-2.36959e-06
4.65854e-05
-1.74138e-06
4.46036e-05
1.98183e-06
4.15621e-05
3.04155e-06
3.32463e-05
8.3158e-06
2.0892e-05
1.23543e-05
4.76276e-06
1.61292e-05
-3.11896e-06
7.88173e-06
-3.11896e-06
8.85507e-06
-1.40175e-05
3.15971e-05
-4.0986e-05
4.13674e-05
-1.61983e-05
4.41688e-05
-4.82665e-06
4.48616e-05
-2.10852e-06
4.50695e-05
-1.53626e-06
4.47953e-05
-1.69143e-06
4.45784e-05
-1.29637e-06
4.53001e-05
-2.45983e-06
4.58504e-05
-3.20402e-06
4.54803e-05
-1.99949e-06
4.65462e-05
-2.80733e-06
4.28919e-05
5.6362e-06
3.87084e-05
7.22502e-06
3.13459e-05
1.56783e-05
1.98639e-05
2.38363e-05
7.79006e-06
2.82031e-05
-3.12899e-06
1.88008e-05
-6.24795e-06
2.89035e-05
-4.2921e-05
3.36769e-05
-4.57594e-05
3.84737e-05
-2.0995e-05
4.51447e-05
-1.14976e-05
5.19661e-05
-8.92992e-06
5.52424e-05
-4.8126e-06
5.35461e-05
4.8295e-09
5.04276e-05
1.82216e-06
4.56471e-05
2.32063e-06
3.64736e-05
5.96953e-06
2.11815e-05
1.32926e-05
-1.84359e-07
1.85585e-05
-2.31664e-05
2.86182e-05
-1.80822e-05
2.1409e-06
5.43454e-06
-7.83851e-06
1.42213e-05
1.50495e-05
7.17152e-06
3.52529e-05
-3.25182e-07
2.62975e-05
-6.57314e-06
1.97762e-05
-6.26972e-05
2.1456e-05
-4.74392e-05
3.01205e-05
-2.96596e-05
4.0499e-05
-2.18761e-05
4.55774e-05
-1.40083e-05
4.66829e-05
-5.91813e-06
4.30849e-05
3.60287e-06
3.65842e-05
8.32279e-06
2.9828e-05
9.07688e-06
2.33097e-05
1.24878e-05
1.24518e-05
2.41506e-05
-1.08093e-05
4.18196e-05
-3.69396e-05
5.47485e-05
-3.8368e-05
3.56929e-06
-2.06698e-05
-2.55367e-05
2.65522e-06
-8.27552e-06
5.90328e-06
3.20048e-05
3.06656e-06
2.91342e-05
-3.50658e-06
1.04056e-05
-7.31028e-05
7.2475e-06
-4.42811e-05
1.12448e-05
-3.36569e-05
2.06845e-05
-3.13159e-05
2.76753e-05
-2.09991e-05
3.1222e-05
-9.46479e-06
3.16962e-05
3.1287e-06
2.78598e-05
1.21592e-05
2.19164e-05
1.50203e-05
1.6695e-05
1.77091e-05
8.42008e-06
3.24255e-05
-1.03973e-05
6.0637e-05
-3.32582e-05
7.76095e-05
-3.67998e-05
7.11087e-06
-3.07137e-05
-3.16229e-05
-1.09734e-05
-2.80158e-05
1.86004e-06
1.91714e-05
3.46445e-06
2.75298e-05
-4.21234e-08
4.52253e-06
-7.76253e-05
-3.39299e-06
-3.63655e-05
-6.2235e-08
-3.69877e-05
8.77446e-06
-4.01526e-05
1.83883e-05
-3.06129e-05
2.1378e-05
-1.24545e-05
1.84393e-05
6.06746e-06
1.37778e-05
1.68207e-05
9.30064e-06
1.94975e-05
7.36846e-06
1.96413e-05
5.14621e-06
3.46478e-05
-3.95912e-06
6.97423e-05
-2.086e-05
9.45104e-05
-3.02119e-05
1.64627e-05
-2.78744e-05
-3.39604e-05
-1.50813e-05
-4.08088e-05
1.81096e-07
3.90894e-06
4.60238e-06
2.31085e-05
4.56026e-06
1.53349e-06
-7.91588e-05
-5.25817e-06
-2.95739e-05
-2.05637e-06
-4.01895e-05
1.50353e-06
-4.37125e-05
8.89229e-06
-3.80017e-05
1.69596e-05
-2.05218e-05
1.51591e-05
7.86794e-06
8.37598e-06
2.36038e-05
2.10691e-06
2.57665e-05
-1.50301e-06
2.32512e-05
-6.71803e-07
3.38166e-05
9.50936e-07
6.81196e-05
-9.9741e-06
0.000105435
-2.86806e-05
3.51692e-05
-2.83216e-05
-3.43194e-05
-2.23888e-05
-4.67416e-05
-6.61284e-06
-1.1867e-05
4.18667e-06
1.2309e-05
8.74693e-06
2.17782e-06
-8.13366e-05
-3.08647e-06
-2.43096e-05
-8.43731e-07
-4.24322e-05
-1.32701e-06
-4.32292e-05
6.65677e-07
-3.99943e-05
8.46853e-06
-2.83247e-05
1.14246e-05
4.91188e-06
4.56064e-06
3.04677e-05
-1.88745e-06
3.22146e-05
-5.14579e-06
2.65096e-05
-3.91936e-06
3.25901e-05
4.0569e-06
6.01433e-05
1.73103e-06
0.000107761
-1.96935e-05
5.65938e-05
-2.7079e-05
-2.6934e-05
-2.74735e-05
-4.63471e-05
-1.5531e-05
-2.38095e-05
4.80069e-07
-3.70205e-06
9.227e-06
6.23463e-06
5.64222e-06
9.58e-06
1.2698e-05
9.62004e-06
2.30294e-05
8.277e-06
3.53737e-05
1.47226e-05
5.17224e-05
2.02627e-05
6.18209e-05
3.00887e-06
4.71518e-05
-1.85733e-05
2.54422e-05
-3.7984e-05
9.29615e-06
-4.58122e-05
-1.06043e-05
-4.25632e-05
-2.87524e-05
-3.95489e-05
-3.32897e-05
-3.62536e-05
-2.91708e-05
-2.91249e-05
-2.40557e-05
-2.36382e-05
-1.67645e-05
-2.22491e-05
-9.45202e-06
-2.38798e-05
-7.52219e-06
-2.71409e-05
-9.64441e-06
-2.90238e-05
-1.10047e-05
-2.89615e-05
-1.10602e-05
-2.39697e-05
-1.39058e-05
-8.87842e-06
-1.97501e-05
-3.28971e-05
-1.43029e-05
4.29464e-06
1.34758e-06
7.56745e-06
9.42523e-06
7.66113e-06
2.29357e-05
1.01483e-05
3.28865e-05
1.91419e-05
4.27288e-05
3.44391e-05
4.65238e-05
3.97245e-05
4.18664e-05
3.61091e-05
2.90577e-05
3.53165e-05
1.00887e-05
3.35156e-05
-8.8034e-06
2.59863e-05
-2.12231e-05
2.12817e-05
-2.85851e-05
2.4202e-05
-3.20912e-05
2.78707e-05
-2.77243e-05
2.86248e-05
-1.75187e-05
2.39979e-05
-4.82508e-06
1.49548e-05
1.5209e-06
4.19518e-06
1.11524e-06
-6.68986e-06
-1.19655e-07
-1.02927e-05
-7.4573e-06
1.4299e-07
-2.43415e-05
1.08352e-05
-3.04423e-05
-1.8439e-05
-3.62288e-06
1.74051e-05
-1.60576e-05
2.53709e-05
1.45948e-06
2.42909e-05
2.40157e-05
2.22542e-05
3.49232e-05
2.33091e-05
4.16738e-05
2.96286e-05
4.02044e-05
3.70788e-05
3.44162e-05
4.26913e-05
2.34451e-05
4.43753e-05
8.40474e-06
4.04105e-05
-4.83862e-06
3.4411e-05
-1.52236e-05
2.97945e-05
-2.39686e-05
3.04594e-05
-3.27561e-05
3.34126e-05
-3.06775e-05
3.46519e-05
-1.87579e-05
2.63521e-05
3.47463e-06
1.40924e-05
1.37807e-05
5.41672e-06
9.79087e-06
-9.53725e-06
1.48343e-05
-3.91943e-05
2.21997e-05
-7.68234e-05
1.32876e-05
-7.72505e-05
-3.00153e-05
-6.25093e-05
-3.31802e-05
1.98759e-05
-3.59335e-05
2.26942e-05
-1.35872e-06
1.66731e-05
3.00368e-05
1.48141e-05
3.67822e-05
1.60094e-05
4.04784e-05
1.82409e-05
3.7973e-05
2.30901e-05
2.9567e-05
2.82851e-05
1.82501e-05
3.03343e-05
6.35556e-06
3.13333e-05
-5.83763e-06
2.50337e-05
-8.92397e-06
1.86089e-05
-1.75438e-05
1.63267e-05
-3.04739e-05
3.38904e-06
-1.77399e-05
-1.14734e-05
-3.89545e-06
-2.67667e-05
1.87678e-05
-4.83887e-05
3.54028e-05
-8.19584e-05
4.33606e-05
-0.000116855
4.97308e-05
-0.0001542
5.95448e-05
-0.000171681
3.07687e-05
-0.000179922
-2.17741e-05
-0.000106995
-0.000135437
9.48058e-07
-3.68816e-05
-5.93433e-06
5.52367e-06
-1.13303e-05
3.54328e-05
-1.17385e-05
3.71904e-05
-8.17767e-06
3.69176e-05
-5.36289e-06
3.51582e-05
-1.49581e-06
2.56999e-05
7.53128e-06
9.22298e-06
2.29651e-05
-9.07821e-06
3.24681e-05
-1.53407e-05
-1.02116e-07
2.36463e-05
-0.00011004
9.23943e-05
-0.000171888
3.13741e-05
-0.000190287
6.59177e-07
-0.000189312
-4.8709e-06
-0.000195365
2.48212e-05
-0.000211889
5.19268e-05
-0.000233762
6.52332e-05
-0.000256729
7.26983e-05
-0.000286639
8.94548e-05
-0.000319068
6.31973e-05
-0.000337684
-3.15849e-06
-0.000103032
-0.000341646
-2.23937e-05
-1.44878e-05
-3.54524e-05
1.85823e-05
-3.49634e-05
3.49437e-05
-3.30241e-05
3.52511e-05
-2.7023e-05
3.09165e-05
-1.80057e-05
2.61409e-05
-1.53024e-05
2.29966e-05
-2.54991e-05
1.94197e-05
-3.68221e-05
2.24482e-06
-5.66287e-05
4.4659e-06
-0.000159269
0.000126286
-0.000228148
0.000161273
-0.000246902
5.01284e-05
-0.000242865
-3.37788e-06
-0.000240918
-6.81778e-06
-0.000244352
2.82558e-05
-0.000245357
5.29314e-05
-0.000243809
6.3685e-05
-0.000250154
7.90432e-05
-0.000283535
0.000122836
-0.000340529
0.000120192
-0.000367152
2.34636e-05
-0.000122971
-0.000347213
-2.81478e-05
1.36599e-05
-5.36536e-05
4.40882e-05
-6.09723e-05
4.22624e-05
-5.66833e-05
3.09621e-05
-4.84002e-05
2.26334e-05
-4.10911e-05
1.88318e-05
-3.43063e-05
1.62117e-05
-5.13688e-05
3.64822e-05
-0.000148458
9.93343e-05
-0.000217368
7.3376e-05
-0.000219046
0.000127964
-0.00027207
0.000214296
-0.000258838
3.68972e-05
-0.000231439
-3.07776e-05
-0.000236995
-1.26117e-06
-0.000240027
3.12874e-05
-0.000236174
4.90782e-05
-0.000230956
5.84675e-05
-0.000264425
0.000112512
-0.000284223
0.000142634
-0.000336909
0.000172879
-0.00034235
2.89038e-05
-0.000138168
-0.000327153
-3.70256e-05
5.06855e-05
-5.70784e-05
6.4141e-05
-5.81542e-05
4.33383e-05
-6.14145e-05
3.42224e-05
-7.68698e-05
3.80887e-05
-0.000106274
4.82364e-05
-0.000144739
5.46765e-05
-0.000174974
6.67169e-05
-0.000161443
8.58032e-05
-0.000172685
8.46179e-05
-0.000180432
0.000135712
-0.000166111
0.000199975
-0.000226015
9.68013e-05
-0.000232768
-2.40241e-05
-0.00022517
-8.85928e-06
-0.000218668
2.47847e-05
-0.000212789
4.31999e-05
-0.000212603
5.82814e-05
-0.000234993
0.000134902
-0.000246458
0.000154099
-0.000228554
0.000154975
-0.000200189
5.38996e-07
-5.54814e-05
-0.000282876
-6.61028e-05
0.000116788
-9.91262e-05
9.71643e-05
-0.000100213
4.44254e-05
-9.22097e-05
2.62187e-05
-7.92548e-05
2.51338e-05
-6.98535e-05
3.88352e-05
-7.84865e-05
6.33096e-05
-0.000106516
9.47461e-05
-0.000129223
0.00010851
-0.000137628
9.30231e-05
-0.000124051
0.000122135
-8.89549e-05
0.000164879
-0.000127442
0.000135288
-0.000207878
5.64119e-05
-0.000217815
1.07736e-06
-0.000198707
5.67681e-06
-0.000190482
3.49751e-05
-0.000192194
5.99936e-05
-0.000205472
0.00014818
-0.000228121
0.000176748
-0.000240623
0.000167476
-0.000263562
2.34786e-05
-3.0103e-05
-0.000288941
-5.03992e-05
0.000167188
-5.87923e-05
0.000105557
-6.02626e-05
4.58958e-05
-5.88185e-05
2.47746e-05
-5.82762e-05
2.45914e-05
-6.0389e-05
4.09479e-05
-6.97825e-05
7.27031e-05
-8.09483e-05
0.000105912
-9.06164e-05
0.000118178
-0.000103262
0.000105668
-8.73743e-05
0.000106248
-4.50277e-05
0.000122532
-3.48016e-05
0.000125062
-9.90339e-05
0.000120644
-0.000178262
8.03055e-05
-0.000204223
3.16382e-05
-0.000192571
2.3323e-05
-0.000192309
5.97316e-05
-0.000176311
0.000132181
-0.000193832
0.000194269
-0.000222454
0.000196098
-0.000279075
8.01001e-05
-8.88565e-06
-0.000300293
-1.88771e-05
0.000186065
-2.60939e-05
0.000112774
-3.43321e-05
5.4134e-05
-3.46645e-05
2.5107e-05
-3.17593e-05
2.16861e-05
-3.17947e-05
4.09834e-05
-3.20753e-05
7.29837e-05
-3.90479e-05
0.000112885
-4.26563e-05
0.000121787
-4.88109e-05
0.000111823
-3.9837e-05
9.72736e-05
-1.57778e-05
9.84729e-05
-4.23634e-07
0.000109708
4.58593e-06
0.000115635
-3.30019e-05
0.000117893
-0.000102759
0.000101395
-0.000151732
7.22966e-05
-0.000163594
7.15932e-05
-0.000133556
0.000102144
-0.000111092
0.000171805
-0.000129712
0.000214718
-0.000191004
0.000141392
3.20425e-05
-0.000231932
1.02908e-05
0.000175774
4.74844e-06
0.000118317
-5.54077e-06
6.44232e-05
-1.61303e-05
3.56965e-05
-2.3495e-05
2.90509e-05
-2.40823e-05
4.15707e-05
-1.30908e-05
6.19923e-05
-7.12746e-06
0.000106921
-8.05684e-06
0.000122716
-1.09e-05
0.000114666
-5.35134e-06
9.1725e-05
7.79955e-06
8.5322e-05
2.17057e-05
9.58018e-05
3.77344e-05
9.96059e-05
5.02681e-05
0.00010536
4.16296e-05
0.000110033
6.25435e-06
0.000107672
-3.42494e-05
0.000112097
-5.42064e-05
0.000122101
-3.71406e-05
0.00015474
-3.31848e-05
0.000210762
-9.0931e-05
0.000199139
0.00011139
-0.000170279
1.91561e-05
0.000156618
1.85421e-05
0.000118931
1.18436e-05
7.11218e-05
3.66304e-06
4.3877e-05
-4.99401e-06
3.77079e-05
-1.00987e-05
4.66753e-05
-5.22231e-06
5.71159e-05
6.18752e-06
9.55113e-05
1.2018e-05
0.000116886
1.5756e-05
0.000110928
1.9321e-05
8.816e-05
2.55951e-05
7.90479e-05
3.49071e-05
8.64899e-05
4.64194e-05
8.80935e-05
5.97214e-05
9.20576e-05
7.07971e-05
9.89577e-05
7.11327e-05
0.000107336
6.15768e-05
0.000121653
4.72204e-05
0.000136457
4.1825e-05
0.000160135
4.53515e-05
0.000207236
1.59673e-05
0.000228523
0.000180304
-5.2947e-05
1.7858e-05
0.00013876
2.25696e-05
0.000114219
1.82453e-05
7.5446e-05
1.09181e-05
5.12042e-05
4.12586e-06
4.45001e-05
-7.65764e-07
5.1567e-05
-5.04064e-08
5.64005e-05
1.09496e-05
8.45113e-05
2.26789e-05
0.000105156
3.14467e-05
0.00010216
3.38394e-05
8.57673e-05
3.54299e-05
7.74575e-05
4.04979e-05
8.14219e-05
4.71941e-05
8.13974e-05
5.61989e-05
8.30528e-05
6.87362e-05
8.64204e-05
8.13022e-05
9.47704e-05
9.18213e-05
0.000111134
9.85156e-05
0.000129763
0.000109235
0.000149415
0.000130836
0.000185635
0.000140492
0.000218867
0.000192371
0.000128425
1.36606e-05
0.000125099
2.23627e-05
0.000105517
2.24372e-05
7.53716e-05
1.68469e-05
5.67945e-05
9.9821e-06
5.13649e-05
4.79574e-06
5.67533e-05
2.25118e-06
5.89451e-05
1.06881e-05
7.60744e-05
2.5076e-05
9.07684e-05
3.5031e-05
9.22054e-05
3.66634e-05
8.41348e-05
3.62097e-05
7.79112e-05
3.90264e-05
7.86052e-05
4.39108e-05
7.6513e-05
5.12284e-05
7.57352e-05
6.13194e-05
7.63294e-05
7.55349e-05
8.05548e-05
9.40036e-05
9.26653e-05
0.000112052
0.000111714
0.000137204
0.000124263
0.000178808
0.000144031
0.000203283
0.000194392
0.000184235
0.000211419
1.34811e-05
0.000111618
2.26474e-05
9.63505e-05
2.41174e-05
7.39016e-05
1.99569e-05
6.0955e-05
1.37933e-05
5.75285e-05
9.59366e-06
6.09529e-05
5.95654e-06
6.25822e-05
1.07129e-05
7.1318e-05
2.23133e-05
7.9168e-05
3.15688e-05
8.29499e-05
3.44002e-05
8.13035e-05
3.41674e-05
7.8144e-05
3.61547e-05
7.66179e-05
3.97722e-05
7.28954e-05
4.53168e-05
7.01906e-05
5.30757e-05
6.85705e-05
6.39235e-05
6.97071e-05
8.15452e-05
7.50435e-05
0.000104075
8.91845e-05
0.000133014
9.5324e-05
0.000172578
0.000104468
0.000206894
0.000160076
0.000170419
0.000220711
1.33829e-05
9.82352e-05
2.16032e-05
8.81302e-05
2.28445e-05
7.26602e-05
1.94407e-05
6.43588e-05
1.50953e-05
6.1874e-05
1.25403e-05
6.35078e-05
1.05772e-05
6.45454e-05
1.30149e-05
6.88803e-05
1.97672e-05
7.24158e-05
2.67794e-05
7.59377e-05
3.07016e-05
7.73813e-05
3.24497e-05
7.63959e-05
3.47858e-05
7.42818e-05
3.75376e-05
7.01436e-05
4.12157e-05
6.65125e-05
4.62439e-05
6.35423e-05
5.34929e-05
6.2458e-05
6.48173e-05
6.37192e-05
8.30356e-05
7.09662e-05
0.000105912
7.24475e-05
0.000136966
7.34144e-05
0.000177741
0.0001193
0.000147579
0.000200581
1.09844e-05
8.72508e-05
1.79644e-05
8.11503e-05
1.92576e-05
7.1367e-05
1.73034e-05
6.6313e-05
1.51641e-05
6.40133e-05
1.43969e-05
6.42751e-05
1.41851e-05
6.47572e-05
1.61117e-05
6.69537e-05
1.98916e-05
6.86358e-05
2.46185e-05
7.12107e-05
2.89471e-05
7.30527e-05
3.26044e-05
7.27386e-05
3.62525e-05
7.06337e-05
3.91707e-05
6.72254e-05
4.1928e-05
6.37551e-05
4.51591e-05
6.03112e-05
4.94764e-05
5.81407e-05
5.57044e-05
5.74912e-05
6.60417e-05
6.06289e-05
7.84666e-05
6.00226e-05
9.21361e-05
5.97448e-05
0.000121198
9.02384e-05
0.000119913
0.000148864
7.81872e-06
7.94321e-05
1.33168e-05
7.56522e-05
1.52065e-05
6.94772e-05
1.52999e-05
6.62196e-05
1.49878e-05
6.43254e-05
1.53657e-05
6.38972e-05
1.61951e-05
6.39278e-05
1.81695e-05
6.49792e-05
2.09894e-05
6.58159e-05
2.47616e-05
6.74386e-05
2.91877e-05
6.86266e-05
3.3713e-05
6.82133e-05
3.7937e-05
6.64097e-05
4.12863e-05
6.38761e-05
4.41787e-05
6.08628e-05
4.6674e-05
5.78159e-05
4.91107e-05
5.5704e-05
5.21585e-05
5.44433e-05
5.71834e-05
5.56041e-05
6.26099e-05
5.45961e-05
6.68037e-05
5.5551e-05
8.35502e-05
7.34918e-05
9.28035e-05
0.00011066
5.58118e-06
7.38509e-05
1.02088e-05
7.10246e-05
1.25374e-05
6.71486e-05
1.37298e-05
6.50272e-05
1.45108e-05
6.35444e-05
1.54979e-05
6.29101e-05
1.68209e-05
6.26048e-05
1.88253e-05
6.29749e-05
2.13998e-05
6.32415e-05
2.48989e-05
6.39394e-05
2.91889e-05
6.43365e-05
3.36036e-05
6.37986e-05
3.7755e-05
6.22583e-05
4.13009e-05
6.03302e-05
4.42212e-05
5.79425e-05
4.62847e-05
5.57524e-05
4.81412e-05
5.38475e-05
5.04114e-05
5.21731e-05
5.3851e-05
5.21645e-05
5.689e-05
5.15571e-05
5.92785e-05
5.31625e-05
7.00762e-05
6.26941e-05
7.05247e-05
9.2355e-05
4.31432e-06
6.95366e-05
8.17919e-06
6.71597e-05
1.05871e-05
6.47407e-05
1.23172e-05
6.32972e-05
1.37647e-05
6.20969e-05
1.5201e-05
6.14738e-05
1.67682e-05
6.10375e-05
1.87695e-05
6.09735e-05
2.11589e-05
6.08521e-05
2.4248e-05
6.08503e-05
2.79646e-05
6.06199e-05
3.18414e-05
5.99218e-05
3.553e-05
5.85697e-05
3.89122e-05
5.69481e-05
4.18504e-05
5.50043e-05
4.42291e-05
5.33736e-05
4.63021e-05
5.17745e-05
4.85302e-05
4.9945e-05
5.15715e-05
4.91231e-05
5.44615e-05
4.86672e-05
5.76562e-05
4.99678e-05
6.65533e-05
5.3797e-05
5.49527e-05
8.21253e-05
3.51676e-06
6.60198e-05
6.81511e-06
6.38614e-05
9.26334e-06
6.22925e-05
1.13053e-05
6.12552e-05
1.30708e-05
6.03314e-05
1.48133e-05
5.97313e-05
1.66475e-05
5.92033e-05
1.8723e-05
5.88981e-05
2.10354e-05
5.85397e-05
2.37139e-05
5.81718e-05
2.68198e-05
5.7514e-05
3.01293e-05
5.66123e-05
3.32435e-05
5.54555e-05
3.62185e-05
5.39731e-05
3.89138e-05
5.23091e-05
4.16297e-05
5.06577e-05
4.43682e-05
4.9036e-05
4.69853e-05
4.73279e-05
4.99534e-05
4.6155e-05
5.32067e-05
4.54139e-05
5.73941e-05
4.57804e-05
6.49041e-05
4.62871e-05
4.43375e-05
7.55193e-05
3.05681e-06
6.2963e-05
5.96526e-06
6.09529e-05
8.38207e-06
5.98757e-05
1.05406e-05
5.90966e-05
1.25006e-05
5.83714e-05
1.44633e-05
5.77686e-05
1.64934e-05
5.71733e-05
1.86794e-05
5.67121e-05
2.10249e-05
5.61942e-05
2.35678e-05
5.56288e-05
2.62992e-05
5.47827e-05
2.91577e-05
5.37537e-05
3.2006e-05
5.26073e-05
3.47636e-05
5.12154e-05
3.74451e-05
4.96276e-05
4.015e-05
4.79527e-05
4.28295e-05
4.63565e-05
4.54477e-05
4.47098e-05
4.84211e-05
4.31816e-05
5.19346e-05
4.19003e-05
5.64271e-05
4.12879e-05
6.27735e-05
3.99407e-05
3.66312e-05
7.04798e-05
2.68472e-06
6.02783e-05
5.27479e-06
5.83629e-05
7.59294e-06
5.75575e-05
9.75238e-06
5.69372e-05
1.18032e-05
5.63206e-05
1.38437e-05
5.57281e-05
1.59125e-05
5.51045e-05
1.81131e-05
5.45115e-05
2.04577e-05
5.38495e-05
2.29052e-05
5.31814e-05
2.53664e-05
5.23215e-05
2.79088e-05
5.12113e-05
3.05633e-05
4.99527e-05
3.32246e-05
4.85542e-05
3.5868e-05
4.69842e-05
3.84468e-05
4.53739e-05
4.10946e-05
4.37087e-05
4.39054e-05
4.18989e-05
4.70085e-05
4.00786e-05
5.04833e-05
3.84254e-05
5.47231e-05
3.70481e-05
6.0139e-05
3.45247e-05
3.06935e-05
6.60768e-05
2.46304e-06
5.78153e-05
4.83495e-06
5.5991e-05
7.04382e-06
5.53486e-05
9.15357e-06
5.48274e-05
1.12055e-05
5.42687e-05
1.32489e-05
5.36847e-05
1.53092e-05
5.30441e-05
1.74527e-05
5.23679e-05
1.96821e-05
5.16202e-05
2.20143e-05
5.08492e-05
2.43783e-05
4.99575e-05
2.67862e-05
4.88034e-05
2.92048e-05
4.7534e-05
3.17053e-05
4.60537e-05
3.42775e-05
4.44119e-05
3.68607e-05
4.27906e-05
3.95443e-05
4.10251e-05
4.22286e-05
3.92146e-05
4.51009e-05
3.72063e-05
4.83184e-05
3.52079e-05
5.23179e-05
3.30486e-05
5.68353e-05
3.00074e-05
2.61739e-05
6.13549e-05
2.27378e-06
5.55415e-05
4.47144e-06
5.37933e-05
6.56982e-06
5.32503e-05
8.59006e-06
5.28072e-05
1.05703e-05
5.22884e-05
1.25576e-05
5.16975e-05
1.45584e-05
5.10433e-05
1.66018e-05
5.03246e-05
1.8697e-05
4.9525e-05
2.08926e-05
4.86536e-05
2.31967e-05
4.76534e-05
2.55322e-05
4.64679e-05
2.79016e-05
4.51646e-05
3.02489e-05
4.37064e-05
3.25071e-05
4.21537e-05
3.48884e-05
4.04094e-05
3.73669e-05
3.85466e-05
4.0019e-05
3.65625e-05
4.28633e-05
3.4362e-05
4.60492e-05
3.2022e-05
4.95686e-05
2.95292e-05
5.31537e-05
2.64223e-05
2.2559e-05
5.67686e-05
2.11105e-06
5.34305e-05
4.16429e-06
5.17401e-05
6.1652e-06
5.12493e-05
8.12848e-06
5.08439e-05
1.00631e-05
5.03538e-05
1.19854e-05
4.97751e-05
1.39195e-05
4.91092e-05
1.58874e-05
4.83567e-05
1.78963e-05
4.7516e-05
1.9943e-05
4.66069e-05
2.20224e-05
4.55741e-05
2.40999e-05
4.43904e-05
2.62567e-05
4.30077e-05
2.84352e-05
4.15279e-05
3.07346e-05
3.98543e-05
3.30984e-05
3.80455e-05
3.55092e-05
3.61358e-05
3.80169e-05
3.40549e-05
4.05489e-05
3.183e-05
4.32535e-05
2.93175e-05
4.62419e-05
2.65407e-05
4.93761e-05
2.32881e-05
1.95775e-05
5.23576e-05
1.95251e-06
5.14779e-05
3.85759e-06
4.9835e-05
5.7362e-06
4.93707e-05
7.59483e-06
4.89853e-05
9.43734e-06
4.85113e-05
1.12673e-05
4.79452e-05
1.31043e-05
4.72722e-05
1.49601e-05
4.6501e-05
1.68445e-05
4.56316e-05
1.87936e-05
4.46578e-05
2.07959e-05
4.35718e-05
2.28356e-05
4.23507e-05
2.48863e-05
4.09571e-05
2.69615e-05
3.94526e-05
2.90315e-05
3.77843e-05
3.10986e-05
3.59785e-05
3.32642e-05
3.397e-05
3.55167e-05
3.18024e-05
3.79174e-05
2.94292e-05
4.04438e-05
2.67911e-05
4.30438e-05
2.39407e-05
4.56158e-05
2.07161e-05
1.70761e-05
4.81172e-05
1.83465e-06
4.96433e-05
3.63439e-06
4.80352e-05
5.41078e-06
4.75944e-05
7.17051e-06
4.72256e-05
8.91832e-06
4.67635e-05
1.06626e-05
4.62009e-05
1.24061e-05
4.55287e-05
1.41561e-05
4.4751e-05
1.59254e-05
4.38622e-05
1.77229e-05
4.28602e-05
1.95358e-05
4.1759e-05
2.1378e-05
4.05084e-05
2.32301e-05
3.9105e-05
2.512e-05
3.75628e-05
2.70405e-05
3.58637e-05
2.90616e-05
3.39574e-05
3.11268e-05
3.19048e-05
3.32431e-05
2.96861e-05
3.53739e-05
2.72984e-05
3.75117e-05
2.46533e-05
3.97146e-05
2.17378e-05
4.1928e-05
1.85027e-05
1.49558e-05
4.40484e-05
1.696e-06
4.79473e-05
3.36235e-06
4.63689e-05
5.01596e-06
4.59407e-05
6.65964e-06
4.55819e-05
8.29609e-06
4.51271e-05
9.93581e-06
4.45612e-05
1.15786e-05
4.38859e-05
1.32277e-05
4.31019e-05
1.48866e-05
4.22033e-05
1.65605e-05
4.11863e-05
1.82751e-05
4.00444e-05
2.00058e-05
3.87777e-05
2.17482e-05
3.73626e-05
2.35102e-05
3.58008e-05
2.52958e-05
3.40781e-05
2.70855e-05
3.21676e-05
2.88902e-05
3.01001e-05
3.07289e-05
2.78474e-05
3.26214e-05
2.54059e-05
3.45485e-05
2.27263e-05
3.64689e-05
1.98174e-05
3.83429e-05
1.66287e-05
1.31617e-05
4.0137e-05
1.58438e-06
4.63629e-05
3.14062e-06
4.48127e-05
4.69091e-06
4.43905e-05
6.23068e-06
4.40421e-05
7.76407e-06
4.35937e-05
9.29311e-06
4.30322e-05
1.08185e-05
4.23605e-05
1.2343e-05
4.15773e-05
1.38722e-05
4.06741e-05
1.54104e-05
3.96482e-05
1.69624e-05
3.84924e-05
1.85262e-05
3.72139e-05
2.01064e-05
3.57824e-05
2.17111e-05
3.41961e-05
2.33339e-05
3.24553e-05
2.49705e-05
3.0531e-05
2.66323e-05
2.84383e-05
2.82892e-05
2.61905e-05
2.99501e-05
2.37449e-05
3.15991e-05
2.10773e-05
3.32363e-05
1.81802e-05
3.48321e-05
1.50329e-05
1.16472e-05
3.63466e-05
1.45655e-06
4.49064e-05
2.8983e-06
4.33709e-05
4.33693e-06
4.29518e-05
5.76662e-06
4.26124e-05
7.18929e-06
4.2171e-05
8.60432e-06
4.16171e-05
1.00135e-05
4.09513e-05
1.14221e-05
4.01688e-05
1.28296e-05
3.92666e-05
1.42407e-05
3.82371e-05
1.56538e-05
3.70793e-05
1.70813e-05
3.57865e-05
1.85171e-05
3.43466e-05
1.99608e-05
3.27524e-05
2.14114e-05
3.10047e-05
2.28668e-05
2.90756e-05
2.432e-05
2.69851e-05
2.57762e-05
2.47343e-05
2.723e-05
2.22911e-05
2.86669e-05
1.96404e-05
3.00669e-05
1.67802e-05
3.14084e-05
1.36914e-05
1.03861e-05
3.26696e-05
1.34358e-06
4.35628e-05
2.67732e-06
4.20372e-05
4.00563e-06
4.16235e-05
5.32521e-06
4.12928e-05
6.63628e-06
4.08599e-05
7.93549e-06
4.03179e-05
9.22304e-06
3.96638e-05
1.0501e-05
3.88908e-05
1.17718e-05
3.79958e-05
1.30488e-05
3.69601e-05
1.43282e-05
3.57998e-05
1.56152e-05
3.44996e-05
1.69088e-05
3.30529e-05
1.82035e-05
3.14577e-05
1.94942e-05
2.9714e-05
2.07698e-05
2.77999e-05
2.20327e-05
2.57222e-05
2.32977e-05
2.34693e-05
2.45513e-05
2.10374e-05
2.57748e-05
1.84169e-05
2.69517e-05
1.56033e-05
2.80677e-05
1.25754e-05
9.3505e-06
2.91033e-05
1.23541e-06
4.23274e-05
2.46422e-06
4.08084e-05
3.68818e-06
4.03996e-05
4.89729e-06
4.00837e-05
6.09419e-06
3.9663e-05
7.27797e-06
3.91342e-05
8.4488e-06
3.84929e-05
9.60806e-06
3.77316e-05
1.07562e-05
3.68476e-05
1.18927e-05
3.58236e-05
1.30223e-05
3.46702e-05
1.4145e-05
3.33768e-05
1.52703e-05
3.19276e-05
1.63978e-05
3.03302e-05
1.75297e-05
2.85821e-05
1.86559e-05
2.66737e-05
1.97707e-05
2.46075e-05
2.08552e-05
2.23848e-05
2.19058e-05
1.99869e-05
2.29248e-05
1.73979e-05
2.39002e-05
1.4628e-05
2.48086e-05
1.16669e-05
8.51959e-06
2.56395e-05
1.13077e-06
4.11966e-05
2.24655e-06
3.96926e-05
3.35828e-06
3.92878e-05
4.45511e-06
3.89869e-05
5.54226e-06
3.85759e-05
6.62128e-06
3.80552e-05
7.6895e-06
3.74247e-05
8.74152e-06
3.66796e-05
9.78027e-06
3.58089e-05
1.07921e-05
3.48118e-05
1.17842e-05
3.36782e-05
1.2761e-05
3.24e-05
1.37248e-05
3.09638e-05
1.46763e-05
2.93787e-05
1.56193e-05
2.76391e-05
1.65503e-05
2.57426e-05
1.7472e-05
2.36858e-05
1.83931e-05
2.14638e-05
1.9293e-05
1.9087e-05
2.01362e-05
1.65546e-05
2.09175e-05
1.38467e-05
2.16337e-05
1.09508e-05
7.87852e-06
2.22747e-05
1.0378e-06
4.01588e-05
2.03743e-06
3.8693e-05
3.02703e-06
3.82982e-05
4.00694e-06
3.8007e-05
4.97974e-06
3.76031e-05
5.94557e-06
3.70893e-05
6.90907e-06
3.64612e-05
7.8614e-06
3.57272e-05
8.79741e-06
3.48729e-05
9.70925e-06
3.38999e-05
1.05973e-05
3.27901e-05
1.14605e-05
3.15368e-05
1.22882e-05
3.01361e-05
1.30825e-05
2.85844e-05
1.38472e-05
2.68744e-05
1.45863e-05
2.50035e-05
1.53047e-05
2.29675e-05
1.60035e-05
2.07649e-05
1.66833e-05
1.84072e-05
1.73564e-05
1.58814e-05
1.79905e-05
1.32126e-05
1.85407e-05
1.04005e-05
7.41376e-06
1.90055e-05
9.48686e-07
3.92101e-05
1.80841e-06
3.78332e-05
2.66225e-06
3.74444e-05
3.50724e-06
3.7162e-05
4.34542e-06
3.67649e-05
5.18069e-06
3.6254e-05
6.01593e-06
3.5626e-05
6.84899e-06
3.48942e-05
7.6716e-06
3.40503e-05
8.47744e-06
3.30941e-05
9.25372e-06
3.20139e-05
9.99095e-06
3.07995e-05
1.06999e-05
2.94271e-05
1.13914e-05
2.78929e-05
1.20523e-05
2.62134e-05
1.26828e-05
2.43731e-05
1.32688e-05
2.23815e-05
1.37937e-05
2.024e-05
1.42721e-05
1.79289e-05
1.47082e-05
1.54453e-05
1.51131e-05
1.28077e-05
1.54985e-05
1.00151e-05
7.09697e-06
1.58153e-05
8.46523e-07
3.83636e-05
1.52078e-06
3.7159e-05
2.17427e-06
3.67909e-05
2.84315e-06
3.64931e-05
3.52043e-06
3.60876e-05
4.20008e-06
3.55744e-05
4.88845e-06
3.49376e-05
5.5949e-06
3.41877e-05
6.31552e-06
3.33297e-05
7.04184e-06
3.23678e-05
7.75958e-06
3.12961e-05
8.45073e-06
3.01084e-05
9.0952e-06
2.87826e-05
9.68785e-06
2.73003e-05
1.02159e-05
2.56853e-05
1.06921e-05
2.38969e-05