/*--------------------------------*- C++ -*----------------------------------*\
| =========                 |                                                 |
| \\      /  F ield         | OpenFOAM: The Open Source CFD Toolbox           |
|  \\    /   O peration     | Version:  2.4.0                                 |
|   \\  /    A nd           | Web:      www.OpenFOAM.org                      |
|    \\/     M anipulation  |                                                 |
\*---------------------------------------------------------------------------*/
FoamFile
{
    version     2.0;
    format      ascii;
    class       surfaceScalarField;
    location    "0.85";
    object      phi.oil;
}
// * * * * * * * * * * * * * * * * * * * * * * * * * * * * * * * * * * * * * //

dimensions      [0 3 -1 0 0 0 0];

internalField   nonuniform List<scalar> 
4432
(
1.37253e-07
-1.3278e-07
-6.28057e-08
2.02069e-07
-1.99186e-06
1.92906e-06
-5.984e-06
3.9921e-06
-1.06493e-05
4.66528e-06
-1.61556e-05
5.50608e-06
-2.06243e-05
4.46843e-06
-2.26653e-05
2.04095e-06
-2.27715e-05
1.06217e-07
-2.19515e-05
-8.19863e-07
-2.09162e-05
-1.0352e-06
-1.9358e-05
-1.55803e-06
-1.70886e-05
-2.26919e-06
-1.45626e-05
-2.52571e-06
-1.25807e-05
-1.98134e-06
-1.136e-05
-1.21915e-06
-1.05527e-05
-8.04236e-07
-9.60524e-06
-9.42817e-07
-8.10919e-06
-1.48345e-06
-5.8524e-06
-2.16724e-06
-4.39056e-06
-9.16317e-07
-3.56966e-06
5.68828e-07
-1.63619e-06
-1.08108e-07
-1.67698e-07
-1.47053e-07
2.96634e-07
-1.1008e-06
3.1055e-06
-3.94986e-06
6.94346e-06
-8.28067e-06
9.00107e-06
-1.47061e-05
1.19315e-05
-2.01798e-05
9.94196e-06
-2.30232e-05
4.88433e-06
-2.3323e-05
4.06063e-07
-2.24563e-05
-1.68653e-06
-2.10174e-05
-2.47415e-06
-1.91151e-05
-3.46048e-06
-1.67379e-05
-4.64638e-06
-1.4363e-05
-4.90051e-06
-1.25289e-05
-3.81453e-06
-1.12224e-05
-2.52445e-06
-1.02438e-05
-1.78155e-06
-9.21754e-06
-1.96522e-06
-7.51823e-06
-3.17531e-06
-5.45466e-06
-4.23644e-06
-3.43339e-06
-3.12779e-06
-1.78144e-06
-1.28843e-06
-3.19225e-06
1.12757e-06
-1.83183e-05
7.05588e-07
-1.42172e-05
-1.72471e-06
-4.47945e-06
-6.70884e-06
6.09524e-06
-1.23118e-05
1.33478e-05
-1.73771e-05
1.71893e-05
-2.15555e-05
1.41375e-05
-2.35389e-05
6.86781e-06
-2.36658e-05
5.32984e-07
-2.25975e-05
-2.75472e-06
-2.07493e-05
-4.32214e-06
-1.85552e-05
-5.65375e-06
-1.63862e-05
-6.8068e-06
-1.43548e-05
-6.89624e-06
-1.27307e-05
-5.38697e-06
-1.13395e-05
-3.86732e-06
-9.98509e-06
-3.09996e-06
-8.73029e-06
-3.19069e-06
-7.17147e-06
-4.66701e-06
-5.57117e-06
-5.68047e-06
-3.24673e-06
-5.29058e-06
-1.06871e-06
-3.53054e-06
-4.23137e-06
-2.3219e-06
-1.97174e-06
-5.09933e-06
-4.5521e-07
-6.46755e-06
-5.71527e-06
-7.97603e-06
-5.63391e-06
-1.58172e-05
1.05106e-05
-2.26683e-05
2.04931e-05
-2.45719e-05
1.63525e-05
-2.52181e-05
7.53914e-06
-2.44052e-05
-2.79365e-07
-2.24907e-05
-4.66877e-06
-2.02726e-05
-6.52294e-06
-1.82406e-05
-7.61042e-06
-1.62635e-05
-8.53172e-06
-1.42729e-05
-8.47621e-06
-1.23382e-05
-6.88609e-06
-1.04721e-05
-5.31235e-06
-8.95174e-06
-4.28865e-06
-7.93414e-06
-3.97163e-06
-7.38749e-06
-4.98285e-06
-6.87197e-06
-5.88463e-06
-4.72977e-06
-6.96226e-06
-1.76236e-06
-6.05878e-06
-6.30211e-06
-1.15203e-06
2.69782e-06
-2.01196e-06
5.40814e-06
-2.89117e-06
8.40726e-06
-8.08051e-06
1.57545e-05
-1.88785e-05
1.96626e-05
-2.74308e-05
2.0942e-05
-2.94883e-05
1.71875e-05
-2.95521e-05
7.80306e-06
-2.84031e-05
-1.40421e-06
-2.60289e-05
-6.9822e-06
-2.29343e-05
-9.32393e-06
-1.99097e-05
-9.97557e-06
-1.74627e-05
-1.01132e-05
-1.53674e-05
-9.81901e-06
-1.28445e-05
-8.83983e-06
-1.02536e-05
-7.49385e-06
-8.37267e-06
-5.89844e-06
-7.61374e-06
-4.58606e-06
-7.52497e-06
-5.01165e-06
-7.2626e-06
-6.16298e-06
-5.79807e-06
-8.48655e-06
-2.82358e-06
-9.14822e-06
-6.64595e-06
-4.61688e-06
7.31424e-06
-1.00832e-05
1.08744e-05
-1.71809e-05
1.55051e-05
-2.49058e-05
2.29172e-05
-3.34462e-05
3.01197e-05
-3.73199e-05
2.21397e-05
-3.6806e-05
1.35301e-05
-3.43379e-05
5.2743e-06
-3.27647e-05
-2.70686e-06
-3.02596e-05
-8.75336e-06
-2.66024e-05
-1.20309e-05
-2.29849e-05
-1.33493e-05
-1.99957e-05
-1.44061e-05
-1.76571e-05
-1.4577e-05
-1.51403e-05
-1.22048e-05
-1.26041e-05
-7.68561e-06
-1.01364e-05
-3.57987e-06
-8.40677e-06
-4.06146e-07
-7.56043e-06
-7.20583e-07
-6.84615e-06
-4.18928e-06
-5.28995e-06
-8.01629e-06
-2.97437e-06
4.1956e-06
1.69954e-05
-1.3943e-06
8.70846e-06
-3.57546e-06
1.30553e-05
-7.81309e-06
1.97318e-05
-1.78914e-05
3.0785e-05
-3.39415e-05
4.39569e-05
-4.34167e-05
2.99546e-05
-4.56839e-05
1.04704e-05
-4.34378e-05
9.81311e-07
-3.87304e-05
-8.07978e-06
-3.39481e-05
-1.54179e-05
-2.90051e-05
-2.1624e-05
-2.30639e-05
-2.76408e-05
-1.79519e-05
-3.25587e-05
-1.57494e-05
-2.76948e-05
-1.53586e-05
-1.27584e-05
-1.5111e-05
-2.98545e-06
-1.35019e-05
5.11557e-06
-1.04402e-05
1.2408e-05
-7.75231e-06
1.49379e-05
-6.00419e-06
7.16276e-06
-5.34933e-06
4.90284e-06
-7.0153e-06
3.58692e-05
2.06618e-05
-3.16682e-06
1.18721e-05
-6.15314e-06
1.60149e-05
-9.48935e-06
2.30288e-05
-1.32577e-05
3.40138e-05
-2.43594e-05
5.35642e-05
-3.56946e-05
4.24267e-05
-4.1959e-05
1.33663e-05
-4.26071e-05
-4.09014e-06
-4.01071e-05
-1.72593e-05
-3.60543e-05
-2.77496e-05
-2.92319e-05
-3.83053e-05
-1.9495e-05
-5.06999e-05
-1.13376e-05
-4.49723e-05
-9.188e-06
-2.38767e-05
-1.1819e-05
-2.99941e-05
-1.54078e-05
-2.31587e-05
-1.70335e-05
-1.58266e-05
-1.41436e-05
-8.12833e-06
-1.01239e-05
-5.37515e-06
-8.20385e-06
-8.48786e-06
-9.20705e-06
-5.8826e-06
-1.68906e-05
1.24016e-05
-1.03408e-05
8.8664e-06
3.53259e-05
2.61264e-05
2.03771e-05
3.08017e-05
3.54965e-05
3.18376e-05
4.2878e-05
3.26918e-05
4.39009e-05
3.35511e-05
4.36127e-05
3.54984e-05
4.22793e-05
3.72845e-05
4.41869e-05
3.84678e-05
4.27708e-05
4.10422e-05
4.12035e-05
4.3358e-05
4.212e-05
4.42755e-05
4.38164e-05
3.95435e-05
5.07217e-05
3.56772e-05
5.33486e-05
2.58648e-05
5.66134e-05
1.46353e-05
5.80596e-05
2.43271e-06
6.05694e-05
-3.5146e-06
5.42829e-05
4.04442e-05
1.43236e-05
2.00953e-05
3.32145e-05
-7.11183e-06
4.23455e-05
3.38945e-06
4.41453e-05
4.50645e-06
4.41927e-05
1.97472e-06
4.41843e-05
3.0315e-06
4.35761e-05
2.94463e-06
4.31747e-05
4.49225e-06
4.38365e-05
4.08389e-06
4.44775e-05
3.46752e-06
4.37081e-05
4.94022e-06
4.47954e-05
8.24251e-06
3.92041e-05
2.30686e-05
3.31137e-05
2.76396e-05
2.38918e-05
3.81114e-05
1.35293e-05
4.80444e-05
5.70589e-06
5.65611e-05
-4.1132e-06
4.34081e-05
2.02436e-05
3.04316e-05
-1.86136e-05
3.44469e-05
-2.78877e-05
3.85071e-05
-8.07747e-06
4.50073e-05
-6.43418e-07
5.14184e-05
1.7753e-06
5.40331e-05
8.15921e-06
5.10083e-05
1.38234e-05
4.68244e-05
1.707e-05
4.15562e-05
1.82176e-05
3.19213e-05
2.32852e-05
1.62488e-05
3.00694e-05
-4.98405e-06
3.41622e-05
-2.81932e-05
4.56491e-05
-2.48013e-05
1.91071e-05
-3.11107e-06
1.36519e-05
7.859e-06
4.4699e-05
3.71558e-06
6.99845e-05
-1.25774e-06
6.20117e-05
2.95605e-05
2.03991e-05
-7.1515e-05
2.23988e-05
-3.90725e-05
3.03687e-05
-2.19033e-05
4.08074e-05
-1.27669e-05
4.5654e-05
-1.97804e-06
4.58724e-05
6.19191e-06
4.11734e-05
1.26195e-05
3.38045e-05
1.72099e-05
2.65894e-05
1.77834e-05
1.94242e-05
2.20904e-05
7.35905e-06
3.57794e-05
-1.64794e-05
5.5538e-05
-4.16706e-05
7.12728e-05
-4.34579e-05
2.10008e-05
-2.90506e-05
-3.15743e-06
-2.5925e-06
1.80661e-05
2.63785e-06
6.18581e-05
2.1978e-06
6.05101e-05
2.49896e-05
9.58537e-06
-9.92706e-05
7.27088e-06
-4.18584e-05
1.1206e-05
-3.14892e-05
2.06344e-05
-2.82847e-05
2.71964e-05
-1.63139e-05
2.99888e-05
-2.86175e-06
2.98437e-05
1.5763e-05
2.49797e-05
2.73916e-05
1.89475e-05
2.94799e-05
1.36403e-05
3.20491e-05
4.44026e-06
4.73988e-05
-1.51244e-05
7.65781e-05
-3.59633e-05
9.3387e-05
-4.00289e-05
2.34081e-05
-3.63629e-05
-9.09188e-06
-1.5441e-05
1.19225e-06
-1.22761e-06
4.69936e-05
1.92636e-06
5.75088e-05
3.08976e-05
3.2243e-06
-0.000102779
-3.4603e-06
-3.76271e-05
-1.53857e-08
-3.66864e-05
8.86124e-06
-3.95753e-05
1.8393e-05
-2.97348e-05
2.06086e-05
-1.00565e-05
1.65752e-05
1.21002e-05
1.13016e-05
2.65907e-05
6.51163e-06
3.03423e-05
4.49806e-06
3.16348e-05
2.1976e-06
4.76538e-05
-6.9742e-06
8.62893e-05
-2.14109e-05
0.000107713
-3.20096e-05
2.71914e-05
-3.09834e-05
-1.86686e-05
-2.0852e-05
-1.54263e-05
-2.56444e-06
3.34172e-05
3.08175e-06
5.15359e-05
3.27446e-05
1.66903e-06
-8.9611e-05
-5.22234e-06
-3.7035e-05
-2.04128e-06
-4.0336e-05
1.51318e-06
-4.34146e-05
8.88895e-06
-3.77044e-05
1.67056e-05
-2.00937e-05
1.35158e-05
1.02378e-05
5.40001e-06
3.19107e-05
-1.03527e-06
3.69566e-05
-3.97825e-06
3.38947e-05
-2.75577e-06
4.3749e-05
-5.20068e-07
8.18256e-05
-1.0063e-05
0.000117369
-2.96362e-05
3.99419e-05
-3.01101e-05
-2.73229e-05
-2.75079e-05
-3.36463e-05
-9.43539e-06
1.50848e-05
2.70584e-06
4.32001e-05
3.98482e-05
3.4068e-06
-8.58573e-05
-2.84744e-06
-3.22398e-05
-8.09503e-07
-4.27748e-05
-1.32354e-06
-4.32306e-05
6.58886e-07
-3.99906e-05
8.42015e-06
-2.81827e-05
1.07393e-05
5.61794e-06
2.02566e-06
3.59093e-05
-5.14433e-06
4.30531e-05
-7.50464e-06
3.66874e-05
-5.39859e-06
4.31358e-05
3.40426e-06
7.1822e-05
1.03531e-06
0.000119858
-2.08888e-05
5.83915e-05
-2.82534e-05
-2.40022e-05
-2.98245e-05
-4.1691e-05
-1.86061e-05
-2.42158e-06
-1.22779e-06
2.45431e-05
3.63072e-05
6.23867e-06
6.50021e-06
9.58362e-06
1.6564e-05
9.62504e-06
2.2146e-05
7.99618e-06
3.02046e-05
4.23196e-06
4.72574e-05
7.85614e-07
5.70807e-05
-1.2826e-05
3.24945e-05
-2.41161e-05
9.91022e-06
-3.40305e-05
-7.9313e-06
-3.8032e-05
-2.93133e-05
-3.50172e-05
-4.60381e-05
-2.49917e-05
-2.38214e-05
-2.85304e-05
-2.27064e-05
-2.69251e-05
-1.20399e-05
-2.39657e-05
-4.77549e-06
-2.35626e-05
2.92563e-06
-2.52572e-05
5.27964e-06
-2.85624e-05
1.47204e-06
-2.95827e-05
-7.00097e-07
-2.85162e-05
-1.09404e-06
-2.31203e-05
-3.96966e-06
-5.56077e-06
-8.77339e-06
-1.8786e-05
-1.24236e-05
4.34962e-06
2.28036e-06
7.06387e-06
1.26051e-05
7.54688e-06
2.8068e-05
9.83597e-06
3.18897e-05
2.05008e-05
3.41791e-05
3.2704e-05
3.85864e-05
3.58805e-05
2.97744e-05
3.28579e-05
2.19187e-05
3.33586e-05
1.46048e-05
2.78204e-05
1.91627e-07
1.92014e-05
-8.85705e-06
1.96145e-05
-1.57799e-05
2.53159e-05
-1.83826e-05
2.96709e-05
-1.40132e-05
2.97536e-05
-1.99287e-06
2.35181e-05
8.68277e-06
1.27216e-05
1.22309e-05
1.07472e-06
1.10044e-05
-9.74362e-06
9.65838e-06
-1.12952e-05
2.9433e-06
-1.65158e-06
-1.62355e-05
5.96981e-06
-2.18652e-05
-1.5557e-05
-8.67145e-06
1.91164e-05
-3.8755e-06
2.80138e-05
1.90473e-05
2.71785e-05
3.91021e-05
2.58894e-05
4.85869e-05
2.73021e-05
5.44951e-05
3.36809e-05
5.2133e-05
3.91751e-05
4.41752e-05
4.40001e-05
2.80484e-05
4.38884e-05
1.36232e-05
3.55602e-05
3.00026e-06
3.06612e-05
-3.84434e-06
2.54011e-05
-1.31572e-05
2.82063e-05
-2.35418e-05
3.29027e-05
-2.2102e-05
3.43666e-05
-1.19366e-05
2.42406e-05
3.38899e-06
1.1134e-05
1.64839e-05
2.96422e-06
2.12142e-05
-1.23098e-05
2.41814e-05
-4.3942e-05
3.04818e-05
-7.788e-05
1.67565e-05
-8.06509e-05
-3.02697e-05
-8.41434e-05
-4.08444e-05
2.07829e-05
-2.64302e-05
2.29014e-05
7.57559e-06
1.68491e-05
4.11049e-05
1.58331e-05
4.84093e-05
1.85301e-05
5.21145e-05
2.1997e-05
4.94496e-05
2.68956e-05
4.01525e-05
3.10418e-05
2.81169e-05
3.18982e-05
1.61788e-05
3.11516e-05
-1.29624e-07
2.18248e-05
-5.10305e-06
1.26832e-05
-9.42945e-06
8.53641e-06
-2.06062e-05
-2.45556e-06
-1.37574e-05
-1.24858e-05
-5.10825e-06
-2.15186e-05
1.51573e-05
-4.25026e-05
3.47847e-05
-8.12144e-05
5.00871e-05
-0.000120941
5.77409e-05
-0.000155712
6.14381e-05
-0.000177535
2.08181e-05
-0.000204391
-6.7574e-05
-0.000158
-0.000240963
2.17775e-06
-3.1648e-05
-5.50122e-06
8.77493e-06
-1.18894e-05
4.0009e-05
-1.25499e-05
4.40644e-05
-8.18248e-06
4.43101e-05
-4.56226e-06
4.19953e-05
7.33015e-08
3.11054e-05
9.88692e-06
1.57944e-05
2.44842e-05
-1.42948e-05
3.19099e-05
-5.59807e-05
-2.12639e-06
-6.02009e-05
-0.000114839
-1.50315e-05
-0.000180633
3.63289e-06
-0.000194234
-4.01109e-06
-0.000188575
-5.74366e-06
-0.000192114
2.47292e-05
-0.000211291
5.249e-05
-0.000238398
6.71274e-05
-0.000263507
7.23522e-05
-0.000292456
4.8684e-05
-0.000330165
-6.19334e-05
-0.00033757
-0.000124393
-0.00014643
-0.000301085
-2.1668e-05
-1.19989e-05
-3.48469e-05
1.84176e-05
-3.44387e-05
3.26609e-05
-3.30265e-05
2.94689e-05
-2.6864e-05
2.04221e-05
-1.70332e-05
9.0427e-06
-1.46165e-05
-1.03296e-05
-2.71423e-05
-3.50747e-05
-4.14339e-05
-7.31344e-05
-4.28198e-05
-0.000101327
-7.79206e-05
-8.89078e-05
-0.000189605
-2.59637e-05
-0.000245617
-2.25539e-05
-0.000242995
-2.29566e-05
-0.000241298
-7.84174e-06
-0.000244704
2.87267e-05
-0.000246012
5.33799e-05
-0.000245428
6.23578e-05
-0.000260038
5.84646e-05
-0.000302293
9.77287e-06
-0.000325491
-0.000133831
-0.00032366
-0.000168672
-0.000165434
-0.000324486
-3.00884e-05
-7.02757e-06
-5.53616e-05
-6.04606e-06
-6.20052e-05
-1.1237e-05
-5.86932e-05
-2.51579e-05
-5.13105e-05
-4.10891e-05
-4.52093e-05
-5.252e-05
-4.06552e-05
-7.05874e-05
-4.96847e-05
-7.42947e-05
-7.87197e-05
-8.91819e-05
-0.00011877
-5.17304e-05
-0.000204821
-3.16561e-05
-0.000273407
-3.50982e-05
-0.000252209
-4.03991e-05
-0.000226758
-2.99158e-05
-0.000236188
-5.18904e-06
-0.000240553
3.11458e-05
-0.000237216
4.85304e-05
-0.000241372
5.29117e-05
-0.000292177
5.22549e-05
-0.000352759
2.64345e-05
-0.000323711
-0.000169699
-0.000298633
-0.000210293
-0.000202136
-0.000311556
-5.5053e-05
-3.14714e-05
-7.45376e-05
-3.52036e-05
-7.33223e-05
-5.08282e-05
-6.69212e-05
-6.18658e-05
-6.11902e-05
-6.8744e-05
-5.82194e-05
-6.89557e-05
-5.58774e-05
-7.01059e-05
-5.49948e-05
-5.00703e-05
-6.81861e-05
-3.3781e-05
-0.000173658
6.02959e-05
-0.000172771
0.00011877
-0.000290625
2.39008e-05
-0.00026893
-2.04997e-05
-0.000229211
-1.80447e-05
-0.000216344
-6.58513e-06
-0.000219411
1.78251e-05
-0.000218529
4.2057e-05
-0.000240066
5.43954e-05
-0.000348189
8.697e-05
-0.000342718
0.00019451
-0.000278632
-5.79185e-05
-0.00025434
-0.000114649
-0.000100641
-0.000248763
-7.21841e-05
-4.87903e-05
-8.17082e-05
-3.07526e-05
-7.76321e-05
-3.23707e-05
-6.76203e-05
-4.67713e-05
-5.92488e-05
-5.01744e-05
-4.84089e-05
-3.94764e-05
-5.63967e-05
-1.22132e-05
-6.54328e-05
3.46245e-05
-0.000126052
0.000104682
-0.000136897
9.30012e-05
-0.000130192
0.000122195
-0.000162827
0.000154016
-0.000284984
1.91823e-05
-0.000250216
-9.72548e-08
-0.000212713
-2.47096e-07
-0.00019627
5.67483e-06
-0.000195023
2.29665e-05
-0.000222047
4.566e-05
-0.000450388
0.000110599
-0.000379129
0.000358633
-0.000241173
0.000134917
-0.00026751
1.06811e-05
-3.70424e-05
-0.000241466
-5.30792e-05
1.56276e-05
-4.73827e-05
2.6483e-05
-5.75341e-05
3.89895e-05
-5.85377e-05
2.40498e-05
-5.81421e-05
2.42055e-05
-6.04036e-05
4.07967e-05
-6.97914e-05
7.26668e-05
-8.09649e-05
0.000105871
-9.06357e-05
0.000118123
-0.000103257
0.000105603
-8.6213e-05
0.000106124
-6.92001e-05
0.000122208
-0.000161565
0.000114681
-0.000269248
1.84859e-05
-0.00022341
1.19741e-05
-0.000195819
8.84032e-06
-0.000184751
1.31976e-05
-0.000204105
3.16026e-05
-0.000406961
9.03158e-05
-0.000342283
0.000302389
-0.00022048
0.000190949
-0.000270159
7.8836e-05
-1.17676e-05
-0.000300487
-1.97021e-05
0.000164571
-2.57133e-05
0.000111901
-3.3814e-05
5.32849e-05
-3.45862e-05
2.47411e-05
-3.17428e-05
2.14396e-05
-3.18037e-05
4.09217e-05
-3.20984e-05
7.2909e-05
-3.90768e-05
0.000112809
-4.26906e-05
0.000121732
-4.88711e-05
0.000111769
-3.92494e-05
9.71633e-05
-1.57356e-05
9.83666e-05
-8.55917e-05
0.000108998
-0.000191363
4.60518e-05
-0.000229378
3.14156e-05
-0.000208342
2.11453e-05
-0.000192558
1.91342e-05
-0.000192376
3.22203e-05
-0.00027464
7.76146e-05
-0.000191687
0.000197812
-0.000133837
0.000213696
-0.000184876
0.000141851
3.04979e-05
-0.000231432
9.76553e-06
0.000174687
5.40105e-06
0.000117616
-5.14108e-06
6.3826e-05
-1.57986e-05
3.54697e-05
-2.34905e-05
2.89942e-05
-2.40859e-05
4.1558e-05
-1.31047e-05
6.19265e-05
-7.15861e-06
0.000106799
-8.1025e-06
0.000122632
-1.09709e-05
0.000114607
-5.23664e-06
9.16244e-05
7.64274e-06
8.51031e-05
1.84699e-05
9.50027e-05
-5.39377e-05
9.67144e-05
-0.000141924
4.13312e-05
-0.000174094
3.25383e-05
-0.000181238
3.4171e-05
-0.000190405
5.17348e-05
-0.000218934
0.000100697
-0.000139613
0.00015005
-5.68302e-05
0.000162784
-8.52578e-05
0.000195008
0.000108872
-0.000172261
1.88441e-05
0.000156239
1.8819e-05
0.000117676
1.19201e-05
7.07461e-05
3.90699e-06
4.36744e-05
-4.97794e-06
3.76555e-05
-1.01497e-05
4.66692e-05
-5.17469e-06
5.70854e-05
6.13461e-06
9.53592e-05
1.19478e-05
0.00011674
1.56999e-05
0.000110815
1.92873e-05
8.79705e-05
2.53793e-05
7.87961e-05
3.46714e-05
8.6076e-05
4.50767e-05
8.60193e-05
4.78925e-05
9.14756e-05
3.1396e-05
8.63625e-05
4.0864e-06
6.70022e-05
-8.28188e-05
7.49468e-05
-0.00015933
9.42035e-05
-0.000151202
0.000128813
-5.88749e-05
0.00018544
4.33319e-06
0.000183138
0.000179388
-5.96949e-05
1.72875e-05
0.000138075
2.25861e-05
0.000113597
1.8266e-05
7.52186e-05
1.10446e-05
5.10637e-05
4.12572e-06
4.44552e-05
-8.12804e-07
5.15707e-05
-1.78553e-09
5.63759e-05
1.08947e-05
8.44325e-05
2.25951e-05
0.000105064
3.14149e-05
0.000101811
3.37152e-05
8.55202e-05
3.52615e-05
7.7229e-05
4.03522e-05
8.13202e-05
4.69203e-05
8.12992e-05
5.60061e-05
8.30278e-05
6.8712e-05
8.64035e-05
7.53094e-05
9.46002e-05
7.90729e-05
0.000109442
1.55702e-05
0.000129237
-3.07143e-05
0.000129134
8.05943e-06
0.00015584
6.01023e-05
0.000212536
0.000185081
0.000115415
1.31434e-05
0.000124675
2.23365e-05
0.000105393
2.24178e-05
7.52504e-05
1.69212e-05
5.67039e-05
9.97629e-06
5.13492e-05
4.76295e-06
5.67619e-05
2.2453e-06
5.89355e-05
1.06588e-05
7.60465e-05
2.51599e-05
9.07605e-05
3.49396e-05
9.20767e-05
3.65314e-05
8.39071e-05
3.60387e-05
7.7688e-05
3.89085e-05
7.85455e-05
4.37904e-05
7.64714e-05
5.10993e-05
7.57014e-05
6.12864e-05
7.63271e-05
7.36707e-05
8.05539e-05
9.07904e-05
9.20832e-05
0.000101177
0.000110341
8.21218e-05
0.000122626
0.000102163
0.000140899
0.000149643
0.000181571
0.000195992
0.000180208
1.33264e-05
0.000111535
2.26117e-05
9.63008e-05
2.40987e-05
7.38413e-05
1.99791e-05
6.09265e-05
1.37811e-05
5.75357e-05
9.57201e-06
6.09634e-05
5.93166e-06
6.25872e-05
1.07218e-05
7.13238e-05
2.23726e-05
7.91797e-05
3.15375e-05
8.29159e-05
3.42921e-05
8.11101e-05
3.40616e-05
7.80176e-05
3.60619e-05
7.6579e-05
3.96704e-05
7.27488e-05
4.52e-05
6.98512e-05
5.30189e-05
6.82884e-05
6.33964e-05
6.96567e-05
7.98148e-05
7.47339e-05
9.93412e-05
8.87256e-05
0.000123768
9.44254e-05
0.00015901
0.000105884
0.000191114
0.000170172
0.00018091
0.000213916
1.33016e-05
9.82236e-05
2.15685e-05
8.81159e-05
2.28427e-05
7.26396e-05
1.94354e-05
6.43635e-05
1.50828e-05
6.18844e-05
1.25242e-05
6.3519e-05
1.05585e-05
6.45565e-05
1.29997e-05
6.88934e-05
1.9757e-05
7.24303e-05
2.6771e-05
7.59549e-05
3.06301e-05
7.73598e-05
3.23889e-05
7.64011e-05
3.47038e-05
7.42617e-05
3.74072e-05
7.00255e-05
4.10272e-05
6.61751e-05
4.60422e-05
6.31933e-05
5.34017e-05
6.23187e-05
6.39437e-05
6.36951e-05
8.01091e-05
7.03455e-05
0.0001011
7.06936e-05
0.000135306
7.38075e-05
0.000175265
0.000126145
0.000151128
0.000199057
1.09499e-05
8.72597e-05
1.79373e-05
8.11548e-05
1.9253e-05
7.13742e-05
1.72944e-05
6.63234e-05
1.51524e-05
6.40245e-05
1.43827e-05
6.42868e-05
1.41682e-05
6.47702e-05
1.60921e-05
6.69681e-05
1.98686e-05
6.8652e-05
2.45939e-05
7.12296e-05
2.89144e-05
7.30762e-05
3.25741e-05
7.27633e-05
3.6194e-05
7.06448e-05
3.8982e-05
6.71213e-05
4.17359e-05
6.34774e-05
4.48675e-05
5.99851e-05
4.93223e-05
5.78833e-05
5.56284e-05
5.74426e-05
6.47675e-05
6.05809e-05
7.23558e-05
5.91329e-05
8.98722e-05
5.51877e-05
0.000119699
9.01817e-05
0.000118035
0.000148075
7.80818e-06
7.94447e-05
1.3308e-05
7.56625e-05
1.52003e-05
6.94869e-05
1.52915e-05
6.62297e-05
1.49771e-05
6.43363e-05
1.53528e-05
6.39083e-05
1.61797e-05
6.39405e-05
1.81516e-05
6.49933e-05
2.09687e-05
6.58319e-05
2.4738e-05
6.74569e-05
2.91626e-05
6.86482e-05
3.36903e-05
6.8238e-05
3.78966e-05
6.6423e-05
4.11281e-05
6.38183e-05
4.40013e-05
6.06132e-05
4.6451e-05
5.75103e-05
4.88501e-05
5.5449e-05
5.20797e-05
5.43806e-05
5.68999e-05
5.55926e-05
6.20924e-05
5.43621e-05
6.24388e-05
5.4836e-05
8.40447e-05
6.81237e-05
8.68137e-05
0.000111391
5.57835e-06
7.38606e-05
1.02048e-05
7.10344e-05
1.25316e-05
6.71588e-05
1.3722e-05
6.50378e-05
1.45011e-05
6.35556e-05
1.5486e-05
6.29219e-05
1.68069e-05
6.2618e-05
1.88092e-05
6.29895e-05
2.13816e-05
6.32579e-05
2.48787e-05
6.39583e-05
2.91675e-05
6.43584e-05
3.35873e-05
6.38239e-05
3.77374e-05
6.22788e-05
4.11636e-05
6.03081e-05
4.4083e-05
5.77425e-05
4.61283e-05
5.54431e-05
4.7837e-05
5.35848e-05
5.03429e-05
5.21153e-05
5.38165e-05
5.21665e-05
5.67219e-05
5.15155e-05
5.88728e-05
5.28355e-05
7.05399e-05
6.22443e-05
7.03866e-05
9.26695e-05
4.31263e-06
6.95471e-05
8.17568e-06
6.71702e-05
1.05818e-05
6.47514e-05
1.231e-05
6.33083e-05
1.37558e-05
6.21086e-05
1.51901e-05
6.14863e-05
1.67557e-05
6.10512e-05
1.87554e-05
6.09887e-05
2.11432e-05
6.08691e-05
2.4231e-05
6.08695e-05
2.79467e-05
6.06419e-05
3.18261e-05
5.99469e-05
3.55199e-05
5.85934e-05
3.88858e-05
5.69486e-05
4.17884e-05
5.49599e-05
4.41454e-05
5.3259e-05
4.62143e-05
5.16647e-05
4.84572e-05
4.99118e-05
5.15696e-05
4.91337e-05
5.44779e-05
4.87007e-05
5.76351e-05
4.99811e-05
6.67639e-05
5.38033e-05
5.50092e-05
8.21865e-05
3.51503e-06
6.60303e-05
6.8118e-06
6.38722e-05
9.25842e-06
6.23036e-05
1.12988e-05
6.12668e-05
1.30628e-05
6.03436e-05
1.48037e-05
5.97444e-05
1.66365e-05
5.92176e-05
1.87107e-05
5.89137e-05
2.10221e-05
5.8557e-05
2.36998e-05
5.81912e-05
2.68053e-05
5.7536e-05
3.01165e-05
5.66371e-05
3.32353e-05
5.5482e-05
3.62053e-05
5.39841e-05
3.88896e-05
5.23044e-05
4.16107e-05
5.06474e-05
4.43495e-05
4.90197e-05
4.69649e-05
4.73162e-05
4.99538e-05
4.61669e-05
5.32372e-05
4.54477e-05
5.74516e-05
4.58254e-05
6.50104e-05
4.63503e-05
4.44284e-05
7.55715e-05
3.05542e-06
6.29746e-05
5.96232e-06
6.09645e-05
8.37763e-06
5.98874e-05
1.05348e-05
5.91088e-05
1.24933e-05
5.83842e-05
1.44548e-05
5.77822e-05
1.64838e-05
5.7188e-05
1.86689e-05
5.67281e-05
2.10137e-05
5.62118e-05
2.35563e-05
5.56484e-05
2.62876e-05
5.48045e-05
2.9147e-05
5.37781e-05
3.20005e-05
5.26345e-05
3.4756e-05
5.12389e-05
3.74392e-05
4.96414e-05
4.01483e-05
4.79632e-05
4.28279e-05
4.63553e-05
4.54491e-05
4.47105e-05
4.84292e-05
4.31961e-05
5.19639e-05
4.19291e-05
5.64737e-05
4.13228e-05
6.28259e-05
3.99805e-05
3.66738e-05
7.05374e-05
2.68328e-06
6.02899e-05
5.27206e-06
5.83747e-05
7.58893e-06
5.75698e-05
9.74713e-06
5.69499e-05
1.17969e-05
5.63339e-05
1.38363e-05
5.57422e-05
1.59043e-05
5.51196e-05
1.81042e-05
5.45279e-05
2.04485e-05
5.38674e-05
2.28959e-05
5.3201e-05
2.53574e-05
5.2343e-05
2.79007e-05
5.12351e-05
3.05585e-05
4.99788e-05
3.32227e-05
4.85814e-05
3.58689e-05
4.70105e-05
3.84533e-05
4.53931e-05
4.11029e-05
4.37204e-05
4.39155e-05
4.19113e-05
4.70257e-05
4.00987e-05
5.05132e-05
3.84519e-05
5.47628e-05
3.70777e-05
6.01838e-05
3.4555e-05
3.07219e-05
6.61266e-05
2.46192e-06
5.78279e-05
4.83258e-06
5.60035e-05
7.04028e-06
5.53614e-05
9.14895e-06
5.48406e-05
1.11999e-05
5.42824e-05
1.32425e-05
5.36993e-05
1.53022e-05
5.30596e-05
1.74454e-05
5.23845e-05
1.96746e-05
5.16381e-05
2.2007e-05
5.08686e-05
2.43715e-05
4.99787e-05
2.67804e-05
4.88264e-05
2.92009e-05
4.7559e-05
3.17065e-05
4.60811e-05
3.42822e-05
4.44384e-05
3.68722e-05
4.28178e-05
3.95576e-05
4.10471e-05
4.22463e-05
3.92348e-05
4.5125e-05
3.72295e-05
4.835e-05
3.52341e-05
5.23556e-05
3.30753e-05
5.68782e-05
3.00327e-05
2.61967e-05
6.14003e-05
2.27261e-06
5.55541e-05
4.46927e-06
5.38062e-05
6.56669e-06
5.32635e-05
8.58603e-06
5.28208e-05
1.05655e-05
5.23026e-05
1.25522e-05
5.17124e-05
1.45526e-05
5.1059e-05
1.65957e-05
5.03414e-05
1.86911e-05
4.95429e-05
2.0887e-05
4.86728e-05
2.31918e-05
4.76741e-05
2.55285e-05
4.64901e-05
2.79e-05
4.51884e-05
3.02498e-05
4.37316e-05
3.25139e-05
4.2181e-05
3.49005e-05
4.04362e-05
3.73846e-05
3.85733e-05
4.00406e-05
3.65879e-05
4.28901e-05
3.43864e-05
4.60814e-05
3.20463e-05
4.96055e-05
2.95525e-05
5.31943e-05
2.64437e-05
2.25779e-05
5.6811e-05
2.1102e-06
5.3444e-05
4.16247e-06
5.17536e-05
6.1625e-06
5.12631e-05
8.12501e-06
5.0858e-05
1.0059e-05
5.03684e-05
1.19808e-05
4.97903e-05
1.39147e-05
4.91252e-05
1.58825e-05
4.83736e-05
1.78917e-05
4.75339e-05
1.99389e-05
4.66259e-05
2.20191e-05
4.55943e-05
2.40978e-05
4.44119e-05
2.62565e-05
4.30305e-05
2.84385e-05
4.15521e-05
3.07408e-05
3.98786e-05
3.31108e-05
3.80716e-05
3.55276e-05
3.61614e-05
3.80401e-05
3.40798e-05
4.05762e-05
3.18537e-05
4.32851e-05
2.93397e-05
4.62769e-05
2.65611e-05
4.94143e-05
2.33062e-05
1.95927e-05
5.23965e-05
1.9516e-06
5.14914e-05
3.85595e-06
4.98487e-05
5.73386e-06
4.93848e-05
7.59186e-06
4.89997e-05
9.43389e-06
4.85262e-05
1.12635e-05
4.79606e-05
1.31004e-05
4.72883e-05
1.49563e-05
4.65179e-05
1.6841e-05
4.56493e-05
1.87907e-05
4.46765e-05
2.07938e-05
4.35915e-05
2.28349e-05
4.23714e-05
2.48874e-05
4.09788e-05
2.69648e-05
3.94749e-05
2.90397e-05
3.78082e-05
3.11105e-05
3.60016e-05
3.32818e-05
3.39936e-05
3.5539e-05
3.18252e-05
3.7944e-05
2.94507e-05
4.04738e-05
2.68107e-05
4.30767e-05
2.39583e-05
4.5651e-05
2.07311e-05
1.70885e-05
4.81533e-05
1.83404e-06
4.96577e-05
3.63305e-06
4.80496e-05
5.40881e-06
4.76088e-05
7.16801e-06
4.72403e-05
8.91544e-06
4.67787e-05
1.06595e-05
4.62166e-05
1.24029e-05
4.55449e-05
1.41531e-05
4.47679e-05
1.59229e-05
4.38799e-05
1.7721e-05
4.28786e-05
1.95347e-05
4.17782e-05
2.13782e-05
4.05284e-05
2.32319e-05
3.91257e-05
2.51249e-05
3.75843e-05
2.70478e-05
3.58849e-05
2.90739e-05
3.39796e-05
3.11435e-05
3.19261e-05
3.32641e-05
2.97065e-05
3.53987e-05
2.73174e-05
3.75397e-05
2.46705e-05
3.9745e-05
2.17528e-05
4.19606e-05
1.85153e-05
1.49656e-05
4.40812e-05
1.69531e-06
4.79615e-05
3.36115e-06
4.63834e-05
5.01427e-06
4.59555e-05
6.65755e-06
4.55969e-05
8.29372e-06
4.51424e-05
9.93331e-06
4.4577e-05
1.15761e-05
4.39022e-05
1.32255e-05
4.31188e-05
1.48849e-05
4.22208e-05
1.65594e-05
4.12044e-05
1.82749e-05
4.00631e-05
2.00068e-05
3.8797e-05
2.17509e-05
3.73824e-05
2.35147e-05
3.58208e-05
2.53041e-05
3.40989e-05
2.7097e-05
3.21875e-05
2.89059e-05
3.01196e-05
3.07486e-05
2.78659e-05
3.26443e-05
2.54228e-05
3.45742e-05
2.27414e-05
3.64969e-05
1.98303e-05
3.83725e-05
1.66392e-05
1.31696e-05
4.01671e-05
1.58396e-06
4.6378e-05
3.13967e-06
4.48276e-05
4.68953e-06
4.44055e-05
6.22896e-06
4.40574e-05
7.76214e-06
4.36093e-05
9.29112e-06
4.30481e-05
1.08166e-05
4.23769e-05
1.23414e-05
4.15942e-05
1.38711e-05
4.06914e-05
1.54099e-05
3.96659e-05
1.69627e-05
3.85106e-05
1.85276e-05
3.72325e-05
2.01093e-05
3.58014e-05
2.17164e-05
3.42154e-05
2.33412e-05
3.24739e-05
2.49817e-05
3.055e-05
2.6647e-05
2.84562e-05
2.83073e-05
2.62073e-05
2.99711e-05
2.37602e-05
3.16226e-05
2.10907e-05
3.32617e-05
1.81914e-05
3.48591e-05
1.50418e-05
1.16535e-05
3.63738e-05
1.45605e-06
4.49212e-05
2.89745e-06
4.3386e-05
4.33576e-06
4.29671e-05
5.76521e-06
4.26279e-05
7.18774e-06
4.21868e-05
8.60276e-06
4.16332e-05
1.00121e-05
4.09678e-05
1.1421e-05
4.01856e-05
1.28289e-05
3.92838e-05
1.42406e-05
3.82546e-05
1.56546e-05
3.70971e-05
1.70831e-05
3.58046e-05
1.85203e-05
3.43648e-05
1.99655e-05
3.27705e-05
2.14191e-05
3.10231e-05
2.28769e-05
2.90928e-05
2.43335e-05
2.70018e-05
2.57927e-05
2.47497e-05
2.72492e-05
2.23049e-05
2.86882e-05
1.96524e-05
3.00899e-05
1.679e-05
3.14328e-05
1.36989e-05
1.03912e-05
3.26944e-05
1.34331e-06
4.35784e-05
2.67668e-06
4.20527e-05
4.0047e-06
4.16391e-05
5.32407e-06
4.13086e-05
6.63505e-06
4.08759e-05
7.93427e-06
4.03341e-05
9.22198e-06
3.96802e-05
1.05002e-05
3.89076e-05
1.17715e-05
3.80128e-05
1.3049e-05
3.69774e-05
1.43292e-05
3.58173e-05
1.56171e-05
3.45172e-05
1.69119e-05
3.30705e-05
1.82086e-05
3.14753e-05
1.95007e-05
2.97308e-05
2.07795e-05
2.78168e-05
2.20449e-05
2.57379e-05
2.33126e-05
2.34836e-05
2.45685e-05
2.10502e-05
2.5794e-05
1.84278e-05
2.69723e-05
1.56121e-05
2.80895e-05
1.25819e-05
9.35457e-06
2.91253e-05
1.23504e-06
4.23427e-05
2.46364e-06
4.08239e-05
3.68741e-06
4.04153e-05
4.89637e-06
4.00996e-05
6.09322e-06
3.96791e-05
7.27704e-06
3.91504e-05
8.44804e-06
3.85094e-05
9.60758e-06
3.77483e-05
1.07562e-05
3.68646e-05
1.18932e-05
3.58407e-05
1.30234e-05
3.46874e-05
1.41469e-05
3.3394e-05
1.52734e-05
3.19447e-05
1.6402e-05
3.0347e-05
1.75362e-05
2.85989e-05
1.86643e-05
2.66892e-05
1.97816e-05
2.46222e-05
2.08685e-05
2.23983e-05
2.19211e-05
1.99987e-05
2.29418e-05
1.74079e-05
2.39185e-05
1.4636e-05
2.48279e-05
1.16727e-05
8.523e-06
2.56592e-05
1.13061e-06
4.12126e-05
2.24614e-06
3.97085e-05
3.35768e-06
3.93038e-05
4.45439e-06
3.9003e-05
5.5415e-06
3.85921e-05
6.62058e-06
3.80715e-05
7.68896e-06
3.74413e-05
8.74123e-06
3.66963e-05
9.78035e-06
3.58257e-05
1.07927e-05
3.48287e-05
1.17853e-05
3.36952e-05
1.27629e-05
3.24169e-05
1.37276e-05
3.09805e-05
1.46805e-05
2.93952e-05
1.56247e-05
2.76547e-05
1.65579e-05
2.5758e-05
1.74817e-05
2.36999e-05
1.84048e-05
2.14766e-05
1.93065e-05
1.90982e-05
2.01512e-05
1.65641e-05
2.09336e-05
1.38541e-05
2.16506e-05
1.0956e-05
7.88146e-06
2.22919e-05
1.03754e-06
4.01745e-05
2.03704e-06
3.87089e-05
3.02654e-06
3.83143e-05
4.00637e-06
3.80232e-05
4.97915e-06
3.76194e-05
5.94505e-06
3.71058e-05
6.90869e-06
3.64778e-05
7.86125e-06
3.5744e-05
8.79758e-06
3.48897e-05
9.70983e-06
3.39168e-05
1.05984e-05
3.2807e-05
1.14622e-05
3.15534e-05
1.22908e-05
3.01525e-05
1.30859e-05
2.86004e-05
1.38523e-05
2.68902e-05
1.45927e-05
2.50181e-05
1.5313e-05
2.29812e-05
1.60137e-05
2.07773e-05
1.66949e-05
1.84181e-05
1.73694e-05
1.58905e-05
1.80044e-05
1.32197e-05
1.85553e-05
1.04055e-05
7.41645e-06
1.90203e-05
9.48617e-07
3.92265e-05
1.80816e-06
3.78495e-05
2.66188e-06
3.74607e-05
3.50681e-06
3.71784e-05
4.34498e-06
3.67813e-05
5.18031e-06
3.62706e-05
6.01568e-06
3.56427e-05
6.84893e-06
3.49109e-05
7.6718e-06
3.40671e-05
8.47799e-06
3.31109e-05
9.25468e-06
3.20306e-05
9.99242e-06
3.08161e-05
1.0702e-05
2.94434e-05
1.13945e-05
2.79089e-05
1.20561e-05
2.62285e-05
1.26883e-05
2.43877e-05
1.32758e-05
2.23949e-05
1.38023e-05
2.02522e-05
1.42819e-05
1.79396e-05
1.47191e-05
1.54542e-05
1.51249e-05
1.28146e-05
1.55108e-05
1.002e-05
7.09958e-06
1.58278e-05
8.46336e-07
3.83796e-05
1.52054e-06
3.71752e-05
2.17398e-06
3.68073e-05
2.84282e-06
3.65096e-05
3.52011e-06
3.61042e-05
4.1998e-06
3.5591e-05
4.88827e-06
3.49543e-05
5.59489e-06
3.42045e-05
6.31572e-06
3.33465e-05
7.04231e-06
3.23845e-05
7.76038e-06
3.13128e-05
8.45193e-06
3.01249e-05
9.09695e-06
2.87989e-05
9.69006e-06
2.7316e-05
1.02193e-05
2.57007e-05
1.06964e-05