/*--------------------------------*- C++ -*----------------------------------*\
| =========                 |                                                 |
| \\      /  F ield         | OpenFOAM: The Open Source CFD Toolbox           |
|  \\    /   O peration     | Version:  2.4.0                                 |
|   \\  /    A nd           | Web:      www.OpenFOAM.org                      |
|    \\/     M anipulation  |                                                 |
\*---------------------------------------------------------------------------*/
FoamFile
{
    version     2.0;
    format      ascii;
    class       surfaceScalarField;
    location    "0.85";
    object      phi.mercury;
}
// * * * * * * * * * * * * * * * * * * * * * * * * * * * * * * * * * * * * * //

dimensions      [0 3 -1 0 0 0 0];

internalField   nonuniform List<scalar> 
4432
(
1.37253e-07
-1.41363e-07
-6.28073e-08
1.97903e-07
-1.99186e-06
1.92896e-06
-5.98404e-06
3.99217e-06
-1.06494e-05
4.66538e-06
-1.61557e-05
5.50623e-06
-2.06242e-05
4.46852e-06
-2.26652e-05
2.04099e-06
-2.27714e-05
1.06214e-07
-2.19515e-05
-8.199e-07
-2.09162e-05
-1.03529e-06
-1.9358e-05
-1.55818e-06
-1.70886e-05
-2.26939e-06
-1.45626e-05
-2.526e-06
-1.25807e-05
-1.98196e-06
-1.13599e-05
-1.22073e-06
-1.05527e-05
-8.07249e-07
-9.60519e-06
-9.47484e-07
-8.11018e-06
-1.49502e-06
-5.86867e-06
-2.24151e-06
-4.41233e-06
-1.45634e-06
-3.58628e-06
-8.26056e-07
-3.5863e-06
-1.07836e-07
-4.1615e-06
-1.46976e-07
-2.94067e-06
-1.10079e-06
1.5632e-06
-3.94989e-06
6.71864e-06
-8.28074e-06
8.99275e-06
-1.47061e-05
1.19316e-05
-2.01797e-05
9.94204e-06
-2.30231e-05
4.88439e-06
-2.33229e-05
4.06076e-07
-2.24563e-05
-1.68654e-06
-2.10174e-05
-2.47418e-06
-1.91151e-05
-3.46052e-06
-1.6738e-05
-4.64649e-06
-1.4363e-05
-4.901e-06
-1.25289e-05
-3.816e-06
-1.12223e-05
-2.52734e-06
-1.02437e-05
-1.78589e-06
-9.21748e-06
-1.97368e-06
-7.51865e-06
-3.19385e-06
-5.46395e-06
-4.2962e-06
-3.46836e-06
-3.45194e-06
-1.80988e-06
-2.48453e-06
-5.39619e-06
1.14829e-06
-4.33838e-05
8.1107e-07
-4.08022e-05
-1.51882e-06
-3.09042e-05
-6.64839e-06
-1.3366e-05
-1.23122e-05
5.21611e-06
-1.73771e-05
1.65209e-05
-2.15554e-05
1.41071e-05
-2.35388e-05
6.86743e-06
-2.36657e-05
5.32944e-07
-2.25974e-05
-2.75483e-06
-2.07493e-05
-4.32231e-06
-1.85552e-05
-5.65458e-06
-1.63862e-05
-6.81548e-06
-1.43548e-05
-6.93239e-06
-1.27307e-05
-5.44009e-06
-1.13395e-05
-3.9186e-06
-9.98503e-06
-3.14033e-06
-8.73024e-06
-3.22847e-06
-7.17187e-06
-4.75222e-06
-5.57384e-06
-5.89423e-06
-3.27498e-06
-5.7508e-06
-1.10795e-06
-4.65156e-06
-6.50414e-06
-1.39287e-07
-3.42979e-05
-1.40873e-06
-3.23644e-05
-3.43148e-06
-3.42117e-05
-6.69055e-06
-2.4123e-05
-1.48187e-05
-1.5514e-06
-2.24302e-05
1.4687e-05
-2.45771e-05
1.55595e-05
-2.5218e-05
7.48765e-06
-2.44051e-05
-2.80946e-07
-2.24907e-05
-4.66939e-06
-2.02727e-05
-6.54037e-06
-1.82409e-05
-7.68631e-06
-1.62653e-05
-8.79115e-06
-1.42741e-05
-8.92385e-06
-1.23382e-05
-7.37636e-06
-1.04715e-05
-5.7854e-06
-8.95108e-06
-4.66075e-06
-7.93395e-06
-4.24559e-06
-7.38927e-06
-5.29691e-06
-6.88087e-06
-6.40262e-06
-4.76659e-06
-7.86509e-06
-1.81868e-06
-7.59959e-06
-8.32845e-06
-1.09663e-06
-2.12687e-06
-1.36189e-06
-1.11298e-06
-2.38712e-06
-1.22852e-05
-8.15029e-06
-2.00986e-05
-1.82234e-05
-7.50106e-06
-2.6493e-05
1.00601e-05
-2.93849e-05
1.4735e-05
-2.95603e-05
7.35179e-06
-2.84033e-05
-1.45609e-06
-2.60297e-05
-7.04501e-06
-2.29412e-05
-9.63261e-06
-1.99289e-05
-1.07335e-05
-1.74817e-05
-1.1372e-05
-1.53753e-05
-1.12891e-05
-1.28439e-05
-1.01896e-05
-1.02487e-05
-8.57326e-06
-8.36869e-06
-6.6257e-06
-7.61113e-06
-5.03045e-06
-7.52512e-06
-5.39676e-06
-7.27318e-06
-6.66719e-06
-5.84023e-06
-9.32844e-06
-2.87528e-06
-1.07382e-05
-1.2348e-05
-4.43875e-06
4.39998e-06
-1.01598e-05
7.86312e-06
-2.04672e-05
1.19277e-05
-3.2535e-05
-8.02985e-07
-3.73314e-05
-8.18798e-06
-3.6847e-05
3.82542e-06
-3.65716e-05
8.70415e-06
-3.43247e-05
4.31712e-06
-3.27762e-05
-3.16352e-06
-3.02918e-05
-9.7579e-06
-2.6665e-05
-1.41194e-05
-2.30591e-05
-1.68568e-05
-2.00537e-05
-1.96309e-05
-1.76661e-05
-2.15587e-05
-1.51264e-05
-2.11465e-05
-1.25832e-05
-1.83712e-05
-1.01217e-05
-1.4256e-05
-8.40107e-06
-1.01417e-05
-7.55846e-06
-8.70162e-06
-6.85428e-06
-9.48347e-06
-5.35672e-06
-1.34744e-05
-3.31199e-06
-1.89697e-05
-3.1261e-05
-1.29441e-06
1.43524e-06
-3.54191e-06
5.66237e-06
-1.6551e-05
1.3175e-05
-3.12844e-05
8.63259e-06
-4.34972e-05
-1.0139e-05
-4.491e-05
-2.41071e-06
-4.57269e-05
-2.95079e-07
-4.34334e-05
-3.69407e-06
-3.88168e-05
-1.20852e-05
-3.40616e-05
-2.08077e-05
-2.91457e-05
-2.93964e-05
-2.33455e-05
-3.98839e-05
-1.83543e-05
-5.29449e-05
-1.60183e-05
-5.93581e-05
-1.5487e-05
-5.96817e-05
-1.50071e-05
-5.56589e-05
-1.3278e-05
-4.86443e-05
-1.02305e-05
-4.05927e-05
-7.6717e-06
-3.5668e-05
-6.02823e-06
-3.36167e-05
-6.32899e-06
-3.60019e-05
-8.55832e-06
-5.18705e-05
-8.97566e-05
-3.09323e-06
1.11924e-05
-6.10156e-06
1.48146e-05
-1.22977e-05
2.06954e-05
-2.19611e-05
2.32646e-05
-3.81051e-05
-7.89545e-06
-4.03014e-05
-6.41562e-06
-4.24059e-05
-6.84277e-06
-4.26794e-05
-1.51369e-05
-4.02551e-05
-2.79288e-05
-3.62346e-05
-3.94287e-05
-2.98608e-05
-5.32857e-05
-2.07505e-05
-7.6619e-05
-1.29089e-05
-9.54739e-05
-1.00223e-05
-9.9753e-05
-1.23221e-05
-9.88186e-05
-1.63973e-05
-9.45238e-05
-1.72002e-05
-8.85179e-05
-1.32507e-05
-8.15904e-05
-8.70996e-06
-7.54892e-05
-6.90669e-06
-6.85077e-05
-1.00625e-05
-6.61575e-05
-1.46959e-05
-8.90646e-05
-0.000154344
4.43343e-06
-1.23725e-05
2.2778e-05
-4.45051e-05
2.96492e-05
-3.95218e-05
3.18588e-05
-3.77096e-05
3.33561e-05
-3.70016e-05
3.47473e-05
-3.47051e-05
3.66999e-05
-3.15069e-05
3.81664e-05
-2.91276e-05
3.99572e-05
-2.74183e-05
4.26186e-05
-2.51799e-05
4.49929e-05
-2.33232e-05
4.68141e-05
-2.29494e-05
4.50963e-05
-1.88317e-05
4.2127e-05
-1.21998e-05
3.39495e-05
3.90523e-07
2.14865e-05
7.94133e-06
4.98412e-06
1.19131e-05
-3.08136e-06
3.47655e-06
-7.25892e-06
4.72251e-06
-4.66781e-05
2.65092e-05
-0.000133358
3.7762e-05
-0.00012536
4.33225e-05
-6.85789e-05
4.59639e-05
-3.38267e-05
4.69176e-05
-2.7463e-05
4.68825e-05
-2.52668e-05
4.68065e-05
-2.438e-05
4.72425e-05
-2.57754e-05
4.76233e-05
-2.58704e-05
4.78047e-05
-2.63062e-05
4.88328e-05
-4.28729e-05
4.62904e-05
-3.70168e-05
4.11431e-05
-1.87646e-05
3.25965e-05
6.44578e-06
2.04776e-05
2.11118e-05
7.9877e-06
2.5518e-05
-3.03555e-06
1.64704e-05
-8.76343e-06
2.21647e-05
-0.000169254
2.0154e-05
-0.00021696
2.2549e-05
-0.000197332
3.95913e-05
-7.84309e-05
5.1468e-05
-3.66589e-05
5.55813e-05
-2.69269e-05
5.59066e-05
-2.08761e-05
5.44873e-05
-1.82696e-05
5.21952e-05
-1.84991e-05
4.60476e-05
-1.79381e-05
1.29633e-05
-1.74493e-05
-1.51023e-05
-5.8453e-05
-2.21745e-05
-5.53272e-05
-1.12492e-05
-4.05733e-05
8.20899e-06
-2.21211e-05
1.4926e-05
1.06965e-05
7.49838e-06
3.19721e-05
-2.36791e-07
2.29234e-05
-1.00946e-05
1.26867e-05
-0.000239307
9.76994e-06
-0.000227766
1.47989e-05
-0.000182491
3.72596e-05
-5.9074e-05
4.4952e-05
-3.74828e-05
4.77475e-05
-2.59437e-05
4.61253e-05
-1.52331e-05
4.10037e-05
-8.66146e-06
3.46637e-05
-6.86103e-06
2.91483e-05
-4.9243e-06
1.06158e-06
1.80773e-06
-2.7851e-05
-4.68751e-05
-3.4421e-05
-4.18961e-05
-3.29847e-05
-3.71393e-05
-1.74593e-05
-3.95464e-05
3.33577e-06
-1.24409e-05
6.21141e-06
2.90649e-05
3.15101e-06
2.61352e-05
-6.35808e-06
1.1581e-05
-0.00023893
8.74237e-06
-0.000226282
8.83805e-06
-0.000143979
1.91422e-05
-5.94386e-05
2.81452e-05
-4.52615e-05
3.32884e-05
-3.09519e-05
3.48481e-05
-1.81237e-05
3.25705e-05
-8.66951e-06
2.71358e-05
-5.83876e-06
2.18866e-05
-4.08667e-06
-2.9919e-06
5.84816e-06
-2.79222e-05
-3.77159e-05
-3.33499e-05
-4.07066e-05
-3.36957e-05
-4.07694e-05
-2.8925e-05
-5.14372e-05
-1.04132e-05
-3.42031e-05
2.1679e-06
1.62972e-05
3.61586e-06
2.44774e-05
-3.35881e-06
1.1499e-05
-0.000233989
6.00402e-06
-0.000229492
1.47164e-06
-0.000104401
7.72348e-06
-6.84694e-05
1.81429e-05
-5.57079e-05
2.37763e-05
-3.42529e-05
2.2415e-05
-1.4443e-05
1.81181e-05
2.5233e-07
1.36884e-05
4.52786e-06
1.18717e-05
2.80333e-06
-3.71856e-07
9.06367e-06
-1.74603e-05
-1.80631e-05
-2.31929e-05
-4.74731e-05
-2.65072e-05
-5.13381e-05
-2.58313e-05
-7.23977e-05
-1.40058e-05
-5.75152e-05
4.70529e-07
3.59439e-07
4.7705e-06
2.0019e-05
1.17442e-06
1.17566e-05
-0.000240998
5.53201e-06
-0.000224868
-4.82228e-07
-7.95667e-05
1.51509e-06
-7.56859e-05
9.41133e-06
-6.7955e-05
1.94005e-05
-4.65314e-05
2.01543e-05
-1.59745e-05
1.37071e-05
2.79821e-06
6.55264e-06
1.05291e-05
3.0611e-06
7.2322e-06
6.65024e-07
1.03501e-05
-7.61355e-06
1.25692e-05
-1.54084e-05
-4.84052e-05
-2.23254e-05
-5.98626e-05
-2.3896e-05
-8.71336e-05
-1.96699e-05
-8.3634e-05
-6.26296e-06
-2.36489e-05
4.36155e-06
6.60621e-06
-1.64313e-06
1.10331e-05
-0.000239096
4.90843e-06
-0.000192411
1.58372e-07
-7.19111e-05
-2.04803e-07
-7.52834e-05
2.03492e-06
-7.02221e-05
1.0458e-05
-5.52912e-05
1.58188e-05
-2.01925e-05
1.0377e-05
7.89504e-06
3.07242e-06
1.57332e-05
-1.65753e-07
9.25211e-06
5.6964e-07
9.88633e-06
-3.18005e-07
2.57151e-05
-5.79161e-06
-3.83419e-05
-1.36967e-05
-5.81666e-05
-1.74156e-05
-8.47883e-05
-2.21734e-05
-0.000104945
-1.38668e-05
-6.16937e-05
1.21885e-06
-2.62438e-05
-2.58339e-05
6.18439e-06
1.52558e-06
9.39632e-06
7.5682e-06
8.5503e-06
1.80148e-05
-2.32383e-05
3.00324e-05
-5.05737e-05
1.08036e-05
-4.48234e-05
-5.7587e-07
-3.94907e-05
-1.30477e-05
-3.29575e-05
-2.61828e-05
-2.74782e-05
-4.3479e-05
-2.42625e-05
-6.2199e-05
-1.87157e-05
-8.2908e-05
-1.93708e-05
-0.000104604
-2.50975e-05
-8.99915e-05
-2.74916e-05
-7.15527e-05
-2.8363e-05
-6.2355e-05
-2.86375e-05
-5.65293e-05
-2.69476e-05
-5.51192e-05
-2.41535e-05
-5.38214e-05
-2.19612e-05
-5.17522e-05
-2.05532e-05
-4.78069e-05
-2.03804e-05
-4.84765e-05
-1.9127e-05
-6.08773e-05
-9.49371e-05
-1.77371e-05
4.32131e-06
2.08124e-06
7.56592e-06
9.99182e-06
7.47914e-06
2.25249e-05
1.5713e-06
3.04019e-05
-8.71168e-06
2.07339e-05
-1.63906e-05
1.28207e-05
-1.46324e-05
-9.46788e-06
-5.81381e-06
-2.79672e-05
2.85808e-06
-4.79624e-05
9.69271e-06
-6.15081e-05
1.43972e-05
-6.44657e-05
2.40304e-05
-6.41418e-05
3.11698e-05
-4.94958e-05
2.94993e-05
-3.39518e-05
2.8407e-05
-2.32995e-05
2.42919e-05
-1.00051e-05
1.6209e-05
-2.49884e-06
5.72653e-06
-2.01879e-06
-5.12675e-06
-3.25118e-06
-1.02633e-05
-1.13534e-05
-5.79017e-06
-2.96265e-05
-2.23888e-06
-3.75279e-05
-4.29613e-05
-2.56121e-05
1.74166e-05
-1.58075e-05
2.53888e-05
1.9348e-06
2.42375e-05
2.44431e-05
2.19333e-05
3.53243e-05
1.11037e-05
4.13392e-05
8.08227e-06
1.88961e-05
8.07573e-06
7.03506e-06
1.12168e-05
-4.88938e-06
1.98372e-05
-2.19404e-05
2.85096e-05
-2.36703e-05
3.21609e-05
-2.08345e-05
3.0618e-05
-1.9315e-05
2.97301e-05
-2.36786e-05
3.28577e-05
-2.41082e-05
3.46905e-05
-1.90844e-05
2.73604e-05
-9.05755e-06
1.48935e-05
-2.42597e-07
5.32339e-06
6.2245e-06
-1.08627e-05
8.97969e-06
-4.65141e-05
1.27592e-05
-9.28832e-05
-8.31412e-06
-0.000118084
-8.12003e-05
-0.000132072
-7.79053e-05
1.98645e-05
-3.68625e-05
2.26905e-05
-3.58608e-06
1.66729e-05
2.85303e-05
1.48465e-05
3.65688e-05
1.60366e-05
4.06858e-05
1.33456e-05
3.81833e-05
1.97548e-05
1.99071e-05
2.58388e-05
9.28552e-06
2.79274e-05
-1.22307e-06
2.96145e-05
-8.74737e-06
2.50971e-05
-1.41118e-05
1.93535e-05
-2.08193e-05
1.65934e-05
-3.38101e-05
2.65698e-06
-2.36427e-05
-1.33273e-05
-8.50324e-06
-2.49306e-05
1.16204e-05
-4.70546e-05
3.18933e-05
-7.48602e-05
3.69864e-05
-0.000112771
3.0243e-05
-0.000164464
1.4105e-05
-0.000214003
-4.68968e-05
-0.000239801
-0.000147482
-0.000213123
-0.000249253
3.2335e-07
-3.94944e-05
-6.20938e-06
2.12892e-06
-1.12176e-05
3.23255e-05
-1.17141e-05
3.55288e-05
-8.17802e-06
3.61945e-05
-5.3472e-06
3.46202e-05
-1.44093e-06
2.5239e-05
7.53814e-06
8.02294e-06
2.22259e-05
-2.23018e-05
3.13261e-05
-6.46159e-05
6.67273e-06
-5.04675e-05
-9.61779e-05
-2.56088e-05
-0.000187341
-5.15036e-06
-0.000195297
-1.14242e-05
-0.000188042
-1.00516e-05
-0.000186666
2.10003e-05
-0.000191365
4.42486e-05
-0.000225871
5.03939e-05
-0.000256664
3.8712e-05
-0.000294214
-7.04093e-06
-0.000321722
-0.000127974
-0.000301373
-0.00018718
-0.000204748
-0.000258318
-2.311e-05
-1.85722e-05
-3.61376e-05
1.14039e-05
-3.53747e-05
2.3749e-05
-3.30237e-05
1.95825e-05
-2.70757e-05
1.17852e-05
-1.83401e-05
2.03242e-06
-1.58102e-05
-1.6449e-05
-2.77149e-05
-4.01756e-05
-4.16027e-05
-7.7402e-05
-3.85079e-05
-7.8e-05
-5.88042e-05
-2.97539e-05
-0.000171561
-1.43554e-05
-0.000226342
-2.06081e-05
-0.0002096
-2.27948e-05
-0.000230976
-9.95906e-06
-0.000240866
2.56878e-05
-0.000241107
4.50234e-05
-0.000247838
4.84281e-05
-0.000265405
3.98234e-05
-0.000307237
1.3504e-06
-0.000314009
-7.17409e-05
-0.000286363
-0.000161895
-0.000199502
-0.000288496
-3.14333e-05
-1.7703e-05
-5.60881e-05
-1.24827e-05
-6.13237e-05
-1.781e-05
-5.66189e-05
-3.07654e-05
-4.88663e-05
-4.24979e-05
-4.24282e-05
-5.01312e-05
-3.82086e-05
-6.3618e-05
-4.74376e-05
-5.63865e-05
-0.000109369
-7.64889e-06
-0.000204053
6.39274e-05
-0.000204272
0.000112528
-0.000268225
7.55956e-05
-0.000225982
-2.57705e-05
-0.000182592
-2.96742e-05
-0.000216861
-5.23308e-06
-0.000233628
2.68605e-05
-0.000240091
4.16692e-05
-0.000247601
4.50706e-05
-0.000270745
4.05128e-05
-0.000250333
3.91546e-05
-0.000293974
3.81304e-05
-0.000223708
-9.4968e-05
-0.000115172
-0.000289838
-5.37006e-05
-2.78884e-05
-7.17344e-05
-1.74755e-05
-7.00014e-05
-3.21693e-05
-6.49273e-05
-3.87459e-05
-6.44499e-05
-3.76314e-05
-7.36745e-05
-2.66757e-05
-0.000100043
-5.931e-06
-0.00014014
3.21288e-05
-0.000158598
8.2213e-05
-0.000172733
8.45784e-05
-0.000180271
0.000135706
-0.000229213
0.000194418
-0.000228241
3.65503e-05
-0.000182794
-1.94245e-05
-0.000196712
-6.06759e-06
-0.000217453
1.48535e-05
-0.000221057
3.63418e-05
-0.000229969
4.60314e-05
-0.000192717
6.47357e-05
-0.000238136
0.000142515
-0.000225862
0.000152622
-0.000168558
-2.52032e-06
-3.44351e-05
-0.000263172
-7.03171e-05
5.45468e-07
-9.21679e-05
4.56964e-05
-9.69159e-05
3.4991e-05
-9.04627e-05
2.23156e-05
-7.8562e-05
2.31826e-05
-6.95934e-05
3.79545e-05
-7.84588e-05
6.31726e-05
-0.000106515
9.47247e-05
-0.000129245
0.000108501
-0.000137677
9.30083e-05
-0.00012411
0.000122128
-9.361e-05
0.000164907
-0.000221849
0.000128036
-0.00019561
1.9856e-05
-0.000195803
-1.26546e-06
-0.000196287
4.61517e-06
-0.000193948
2.02604e-05
-0.000175677
4.01485e-05
-0.000310788
0.000113727
-0.000230042
0.000182709
-0.000240799
0.000167647
-0.00026385
2.35908e-05
-2.96951e-05
-0.000289749
-5.06416e-05
0.000153764
-5.87711e-05
0.000105394
-6.02695e-05
4.58991e-05
-5.88301e-05
2.47775e-05
-5.82935e-05
2.45944e-05
-6.04099e-05
4.09514e-05
-6.98031e-05
7.27072e-05
-8.09663e-05
0.000105916
-9.06406e-05
0.000118179
-0.000103301
0.000105666
-8.74283e-05
0.000106244
-4.50774e-05
0.000122541
-5.28134e-05
0.000125073
-0.000208068
0.000105663
-0.000207174
3.25105e-05
-0.000196987
1.09471e-05
-0.000185236
1.27381e-05
-0.000187252
3.18809e-05
-0.000299594
0.000103656
-0.000197092
0.000200908
-0.000222553
0.000196352
-0.000279099
8.03652e-05
-8.54668e-06
-0.000300365
-1.88796e-05
0.000186071
-2.60981e-05
0.000112776
-3.43395e-05
5.41378e-05
-3.46759e-05
2.51108e-05
-3.17757e-05
2.16902e-05
-3.18143e-05
4.0988e-05
-3.20965e-05
7.29896e-05
-3.90698e-05
0.000112892
-4.26831e-05
0.000121792
-4.88485e-05
0.000111826
-3.98901e-05
9.72748e-05
-1.584e-05
9.84779e-05
-8.39665e-07
0.000109714
-4.84104e-05
0.000115353
-0.000143511
9.44697e-05
-0.000176527
5.55658e-05
-0.000182106
3.88562e-05
-0.000182978
4.61574e-05
-0.00019318
9.07847e-05
-0.000115147
0.000175084
-0.000129747
0.000214984
-0.000190931
0.000141668
3.23327e-05
-0.000231875
1.02897e-05
0.000175781
4.74405e-06
0.000118321
-5.54825e-06
6.44278e-05
-1.6142e-05
3.57014e-05
-2.35114e-05
2.90565e-05
-2.4103e-05
4.15768e-05
-1.31138e-05
6.20001e-05
-7.15202e-06
0.00010693
-8.08521e-06
0.000122725
-1.09376e-05
0.000114673
-5.40319e-06
9.17311e-05
7.73388e-06
8.53293e-05
2.16244e-05
9.58107e-05
3.69615e-05
9.96173e-05
3.64608e-05
0.000104908
7.85594e-06
0.000104789
-3.51989e-05
9.77139e-05
-7.36301e-05
0.00010144
-8.83488e-05
0.000118215
-4.71357e-05
0.000154319
-3.31812e-05
0.000210692
-9.08367e-05
0.000199397
0.000111654
-0.00017018
1.91549e-05
0.000156625
1.85381e-05
0.000118936
1.18359e-05
7.11279e-05
3.6513e-06
4.38833e-05
-5.00997e-06
3.77149e-05
-1.01186e-05
4.6683e-05
-5.24485e-06
5.7125e-05
6.16232e-06
9.55211e-05
1.19885e-05
0.000116896
1.5718e-05
0.000110938
1.92706e-05
8.81703e-05
2.55304e-05
7.90598e-05
3.48255e-05
8.6505e-05
4.63183e-05
8.81149e-05
5.95959e-05
9.20883e-05
7.06372e-05
9.90074e-05
7.08687e-05
0.000107399
5.84889e-05
0.000121697
3.39767e-05
0.000135794
3.10375e-05
0.000158562
4.46656e-05
0.000207162
1.60538e-05
0.000228668
0.00018054
-5.28545e-05
1.78564e-05
0.000138766
2.25652e-05
0.000114226
1.82377e-05
7.54532e-05
1.09069e-05
5.12118e-05
4.1107e-06
4.45082e-05
-7.84547e-07
5.15759e-05
-7.23465e-08
5.64105e-05
1.09246e-05
8.45222e-05
2.26488e-05
0.000105168
3.14087e-05
0.000102173
3.37911e-05
8.57811e-05
3.53687e-05
7.74736e-05
4.04223e-05
8.14435e-05
4.7101e-05
8.14274e-05
5.609e-05
8.30957e-05
6.86176e-05
8.64809e-05
8.11848e-05
9.48545e-05
9.17245e-05
0.000111247
9.8208e-05
0.000129908
0.000107832
0.00014953
0.000129783
0.000185578
0.000140413
0.000219052
0.00019258
0.000128521
1.36584e-05
0.000125107
2.2358e-05
0.000105525
2.24297e-05
7.53796e-05
1.68362e-05
5.68029e-05
9.96791e-06
5.13739e-05
4.77814e-06
5.67632e-05
2.23034e-06
5.8956e-05
1.06636e-05
7.60863e-05
2.50465e-05
9.07814e-05
3.49947e-05
9.22202e-05
3.66188e-05
8.41511e-05
3.61543e-05
7.79315e-05
3.89585e-05
7.86329e-05
4.38299e-05
7.65507e-05
5.11363e-05
7.57869e-05
6.12233e-05
7.64009e-05
7.54495e-05
8.06512e-05
9.3935e-05
9.27789e-05
0.000112024
0.000111859
0.000137139
0.000124421
0.000178669
0.000144205
0.00020327
0.000194559
0.00018443
0.000211505
1.34785e-05
0.000111626
2.26425e-05
9.63588e-05
2.41101e-05
7.39101e-05
1.99467e-05
6.09641e-05
1.37799e-05
5.75383e-05
9.57713e-06
6.09635e-05
5.93688e-06
6.25939e-05
1.06897e-05
7.13308e-05
2.22854e-05
7.91823e-05
3.15353e-05
8.29662e-05
3.43592e-05
8.13224e-05
3.41174e-05
7.81683e-05
3.60954e-05
7.66498e-05
3.97043e-05
7.2938e-05
4.52443e-05
7.025e-05
5.30042e-05
6.86457e-05
6.38592e-05
6.98028e-05
8.15076e-05
7.51628e-05
0.00010406
8.93127e-05
0.000133045
9.54725e-05
0.000172643
0.000104611
0.000206993
0.000160227
0.000170559
0.000220817
1.33807e-05
9.82447e-05
2.15987e-05
8.81395e-05
2.28377e-05
7.26694e-05
1.94311e-05
6.43687e-05
1.50827e-05
6.18845e-05
1.2525e-05
6.35191e-05
1.05588e-05
6.45577e-05
1.29932e-05
6.8894e-05
1.97413e-05
7.24312e-05
2.67486e-05
7.59556e-05
3.06645e-05
7.74026e-05
3.24063e-05
7.64227e-05
3.47367e-05
7.43157e-05
3.7486e-05
7.01886e-05
4.11592e-05
6.65667e-05
4.61929e-05
6.36176e-05
5.34525e-05
6.25461e-05
6.47898e-05
6.38165e-05
8.3042e-05
7.10846e-05
0.000105942
7.25664e-05
0.000137037
7.35421e-05
0.000177834
0.000119419
0.000147696
0.000200687
1.09821e-05
8.72596e-05
1.796e-05
8.11595e-05
1.9251e-05
7.13767e-05
1.72943e-05
6.63235e-05
1.51524e-05
6.40245e-05
1.43827e-05
6.42868e-05
1.41682e-05
6.47702e-05
1.60918e-05
6.69682e-05
1.98683e-05
6.86524e-05
2.45912e-05
7.12299e-05
2.89156e-05
7.30756e-05
3.25687e-05
7.27665e-05
3.62142e-05
7.0668e-05
3.91285e-05
6.72668e-05
4.18928e-05
6.38119e-05
4.5121e-05
6.03714e-05
4.94455e-05
5.82165e-05
5.56975e-05
5.75825e-05
6.60481e-05
6.07287e-05
7.85078e-05
6.01337e-05
9.21975e-05
5.98523e-05
0.000121288
9.03438e-05
0.000120007
0.000148957
7.81694e-06
7.94418e-05
1.33129e-05
7.56617e-05
1.52003e-05
6.94869e-05
1.52915e-05
6.62298e-05
1.49771e-05
6.43363e-05
1.53528e-05
6.39083e-05
1.61797e-05
6.39405e-05
1.81515e-05
6.49934e-05
2.09687e-05
6.58321e-05
2.4738e-05
6.74572e-05
2.91611e-05
6.86487e-05
3.36838e-05
6.82398e-05
3.79056e-05
6.64421e-05
4.12597e-05
6.39158e-05
4.41468e-05
6.09059e-05
4.66517e-05
5.7873e-05
4.90958e-05
5.57697e-05
5.216e-05
5.45202e-05
5.72005e-05
5.56889e-05
6.26494e-05
5.46874e-05
6.68612e-05
5.56415e-05
8.36261e-05
7.35782e-05
9.2886e-05
0.00011074
5.5792e-06
7.38604e-05
1.02049e-05
7.10344e-05
1.25316e-05
6.71588e-05
1.3722e-05
6.50378e-05
1.45011e-05
6.35556e-05
1.5486e-05
6.29219e-05
1.68069e-05
6.2618e-05
1.88092e-05
6.29896e-05
2.13816e-05
6.32581e-05
2.48787e-05
6.39585e-05
2.91669e-05
6.43588e-05
3.35803e-05
6.38248e-05
3.77312e-05
6.22892e-05
4.12776e-05
6.03661e-05
4.42035e-05
5.7987e-05
4.6271e-05
5.58008e-05
4.81377e-05
5.39056e-05
5.04213e-05
5.22389e-05
5.38747e-05
5.22363e-05
5.69301e-05
5.16329e-05
5.93317e-05
5.32377e-05
7.01426e-05
6.27666e-05
7.05932e-05
9.24248e-05
4.31265e-06
6.95471e-05
8.17568e-06
6.71702e-05
1.05818e-05
6.47514e-05
1.231e-05
6.33083e-05
1.37558e-05
6.21086e-05
1.51901e-05
6.14863e-05
1.67557e-05
6.10513e-05
1.87554e-05
6.09887e-05
2.11432e-05
6.08692e-05
2.4231e-05
6.08697e-05
2.79465e-05
6.06422e-05
3.18227e-05
5.99474e-05
3.55111e-05
5.85995e-05
3.88975e-05
5.69833e-05
4.18368e-05
5.50421e-05
4.4225e-05
5.342e-05
4.63066e-05
5.18257e-05
4.8546e-05
5.00016e-05
5.15994e-05
4.91839e-05
5.45017e-05
4.87301e-05
5.77073e-05
5.00303e-05
6.66136e-05
5.38567e-05
5.50086e-05
8.21897e-05
3.51504e-06
6.60303e-05
6.8118e-06
6.38722e-05
9.25842e-06
6.23036e-05
1.12988e-05
6.12668e-05
1.30628e-05
6.03436e-05
1.48037e-05
5.97444e-05
1.66365e-05
5.92176e-05
1.87107e-05
5.89137e-05
2.10221e-05
5.85571e-05
2.36998e-05
5.81913e-05
2.68052e-05
5.75361e-05
3.01147e-05
5.66374e-05
3.32302e-05
5.5484e-05
3.62064e-05
5.4005e-05
3.89088e-05
5.23472e-05
4.16303e-05
5.06978e-05
4.43781e-05
4.90812e-05
4.70054e-05
4.73769e-05
4.99834e-05
4.62065e-05
5.32467e-05
4.54663e-05
5.74426e-05
4.58319e-05
6.496e-05
4.6336e-05
4.43828e-05
7.55785e-05
3.05542e-06
6.29746e-05
5.96232e-06
6.09645e-05
8.37763e-06
5.98874e-05
1.05348e-05
5.91088e-05
1.24933e-05
5.83842e-05
1.44548e-05
5.77822e-05
1.64838e-05
5.7188e-05
1.86689e-05
5.67281e-05
2.10137e-05
5.62119e-05
2.35563e-05
5.56485e-05
2.62876e-05
5.48046e-05
2.91466e-05
5.37782e-05
3.19961e-05
5.26347e-05
3.47577e-05
5.12465e-05
3.74422e-05
4.96603e-05
4.01557e-05
4.79907e-05
4.28433e-05
4.63966e-05
4.54703e-05
4.47523e-05
4.84521e-05
4.32254e-05
5.19737e-05
4.19441e-05
5.6473e-05
4.13304e-05
6.28257e-05
3.99807e-05
3.66676e-05
7.05342e-05
2.68328e-06
6.02899e-05
5.27206e-06
5.83747e-05
7.58893e-06
5.75698e-05
9.74713e-06
5.69499e-05
1.17969e-05
5.63339e-05
1.38363e-05
5.57422e-05
1.59043e-05
5.51196e-05
1.81042e-05
5.45279e-05
2.04485e-05
5.38674e-05
2.28959e-05
5.3201e-05
2.53574e-05
5.23431e-05
2.79006e-05
5.12351e-05
3.0557e-05
4.99789e-05
3.32203e-05
4.85826e-05
3.58706e-05
4.70168e-05
3.84546e-05
4.54069e-05
4.11108e-05
4.37447e-05
4.39293e-05
4.1936e-05
4.70397e-05
4.01161e-05
5.05211e-05
3.84623e-05
5.47664e-05
3.70834e-05
6.01873e-05
3.45573e-05
3.0723e-05
6.61271e-05
2.46192e-06
5.78279e-05
4.83258e-06
5.60035e-05
7.04028e-06
5.53614e-05
9.14895e-06
5.48406e-05
1.11999e-05
5.42824e-05
1.32425e-05
5.36993e-05
1.53022e-05
5.30596e-05
1.74454e-05
5.23845e-05
1.96746e-05
5.16381e-05
2.2007e-05
5.08686e-05
2.43715e-05
4.99787e-05
2.67804e-05
4.88265e-05
2.92007e-05
4.75591e-05
3.17053e-05
4.60812e-05
3.42805e-05
4.44401e-05
3.68714e-05
4.28222e-05
3.95617e-05
4.10572e-05
4.2253e-05
3.92471e-05
4.51315e-05
3.72386e-05
4.83546e-05
3.52391e-05
5.23585e-05
3.3078e-05
5.68802e-05
3.00343e-05
2.61975e-05
6.14008e-05
2.27261e-06
5.55541e-05
4.46927e-06
5.38062e-05
6.56669e-06
5.32635e-05
8.58603e-06
5.28208e-05
1.05655e-05
5.23026e-05
1.25522e-05
5.17124e-05
1.45526e-05
5.1059e-05
1.65957e-05
5.03414e-05
1.86911e-05
4.95429e-05
2.0887e-05
4.86728e-05
2.31918e-05
4.76742e-05
2.55285e-05
4.64902e-05
2.79e-05
4.51885e-05
3.02495e-05
4.37316e-05
3.25135e-05
4.21815e-05
3.48996e-05
4.0437e-05
3.73847e-05
3.85753e-05
4.00432e-05
3.65913e-05
4.28928e-05
3.439e-05
4.60835e-05
3.20487e-05
4.96068e-05
2.95538e-05
5.31952e-05
2.64443e-05
2.25782e-05
5.68112e-05
2.1102e-06
5.3444e-05
4.16247e-06
5.17536e-05
6.1625e-06
5.12631e-05
8.12501e-06
5.0858e-05
1.0059e-05
5.03684e-05
1.19808e-05
4.97903e-05
1.39147e-05
4.91252e-05
1.58825e-05
4.83736e-05
1.78917e-05
4.75339e-05
1.99389e-05
4.66259e-05
2.20191e-05
4.55943e-05
2.40978e-05
4.44119e-05
2.62565e-05
4.30305e-05
2.84384e-05
4.15521e-05
3.07408e-05
3.98787e-05
3.31107e-05
3.80717e-05
3.55271e-05
3.61616e-05
3.80402e-05
3.40803e-05
4.0577e-05
3.18544e-05
4.32858e-05
2.93403e-05
4.62774e-05
2.65615e-05
4.94146e-05
2.33064e-05
1.95928e-05
5.23965e-05
1.9516e-06
5.14914e-05
3.85595e-06
4.98487e-05
5.73386e-06
4.93848e-05
7.59186e-06
4.89997e-05
9.43389e-06
4.85262e-05
1.12635e-05
4.79606e-05
1.31004e-05
4.72883e-05
1.49563e-05
4.65179e-05
1.6841e-05
4.56493e-05
1.87907e-05
4.46765e-05
2.07938e-05
4.35915e-05
2.28349e-05
4.23714e-05
2.48874e-05
4.09788e-05
2.69648e-05
3.94749e-05
2.90397e-05
3.78082e-05
3.11105e-05
3.60016e-05
3.32817e-05
3.39936e-05
3.55389e-05
3.18252e-05
3.7944e-05
2.94507e-05
4.04739e-05
2.68109e-05
4.30768e-05
2.39584e-05
4.56511e-05
2.07311e-05
1.70885e-05
4.81533e-05
1.83404e-06
4.96577e-05
3.63305e-06
4.80496e-05
5.40881e-06
4.76088e-05
7.16801e-06
4.72403e-05
8.91544e-06
4.67787e-05
1.06595e-05
4.62166e-05
1.24029e-05
4.55449e-05
1.41531e-05
4.47679e-05
1.59229e-05
4.38799e-05
1.7721e-05
4.28786e-05
1.95347e-05
4.17782e-05
2.13782e-05
4.05284e-05
2.32319e-05
3.91257e-05
2.51249e-05
3.75843e-05
2.70478e-05
3.58849e-05
2.90739e-05
3.39796e-05
3.11435e-05
3.19261e-05
3.32641e-05
2.97065e-05
3.53987e-05
2.73174e-05
3.75397e-05
2.46705e-05
3.9745e-05
2.17528e-05
4.19606e-05
1.85153e-05
1.49656e-05
4.40812e-05
1.69531e-06
4.79615e-05
3.36115e-06
4.63834e-05
5.01427e-06
4.59555e-05
6.65755e-06
4.55969e-05
8.29372e-06
4.51424e-05
9.93331e-06
4.4577e-05
1.15761e-05
4.39022e-05
1.32255e-05
4.31188e-05
1.48849e-05
4.22208e-05
1.65594e-05
4.12044e-05
1.82749e-05
4.00631e-05
2.00068e-05
3.8797e-05
2.17509e-05
3.73824e-05
2.35147e-05
3.58208e-05
2.53041e-05
3.40989e-05
2.7097e-05
3.21875e-05
2.89059e-05
3.01196e-05
3.07486e-05
2.78659e-05
3.26443e-05
2.54228e-05
3.45742e-05
2.27414e-05
3.64969e-05
1.98303e-05
3.83725e-05
1.66392e-05
1.31696e-05
4.01671e-05
1.58396e-06
4.6378e-05
3.13967e-06
4.48276e-05
4.68953e-06
4.44055e-05
6.22896e-06
4.40574e-05
7.76214e-06
4.36093e-05
9.29112e-06
4.30481e-05
1.08166e-05
4.23769e-05
1.23414e-05
4.15942e-05
1.38711e-05
4.06914e-05
1.54099e-05
3.9666e-05
1.69627e-05
3.85106e-05
1.85276e-05
3.72325e-05
2.01093e-05
3.58014e-05
2.17164e-05
3.42154e-05
2.33412e-05
3.24739e-05
2.49817e-05
3.055e-05
2.6647e-05
2.84562e-05
2.83073e-05
2.62073e-05
2.99711e-05
2.37602e-05
3.16226e-05
2.10907e-05
3.32617e-05
1.81914e-05
3.48591e-05
1.50418e-05
1.16535e-05
3.63738e-05
1.45605e-06
4.49212e-05
2.89745e-06
4.3386e-05
4.33576e-06
4.29671e-05
5.76521e-06
4.26279e-05
7.18774e-06
4.21868e-05
8.60276e-06
4.16332e-05
1.00121e-05
4.09678e-05
1.1421e-05
4.01856e-05
1.28289e-05
3.92838e-05
1.42406e-05
3.82546e-05
1.56546e-05
3.70971e-05
1.70831e-05
3.58046e-05
1.85203e-05
3.43648e-05
1.99655e-05
3.27705e-05
2.14191e-05
3.10231e-05
2.28769e-05
2.90928e-05
2.43335e-05
2.70018e-05
2.57927e-05
2.47497e-05
2.72492e-05
2.23049e-05
2.86882e-05
1.96524e-05
3.00899e-05
1.679e-05
3.14328e-05
1.36989e-05
1.03912e-05
3.26944e-05
1.34331e-06
4.35784e-05
2.67668e-06
4.20527e-05
4.0047e-06
4.16391e-05
5.32407e-06
4.13086e-05
6.63505e-06
4.08759e-05
7.93427e-06
4.03341e-05
9.22198e-06
3.96802e-05
1.05002e-05
3.89076e-05
1.17715e-05
3.80128e-05
1.3049e-05
3.69774e-05
1.43292e-05
3.58173e-05
1.56171e-05
3.45172e-05
1.69119e-05
3.30705e-05
1.82086e-05
3.14753e-05
1.95007e-05
2.97308e-05
2.07795e-05
2.78168e-05
2.20449e-05
2.57379e-05
2.33126e-05
2.34836e-05
2.45685e-05
2.10502e-05
2.5794e-05
1.84278e-05
2.69723e-05
1.56121e-05
2.80895e-05
1.25819e-05
9.35457e-06
2.91253e-05
1.23504e-06
4.23427e-05
2.46364e-06
4.08239e-05
3.68741e-06
4.04153e-05
4.89637e-06
4.00996e-05
6.09322e-06
3.96791e-05
7.27704e-06
3.91504e-05
8.44804e-06
3.85094e-05
9.60758e-06
3.77483e-05
1.07562e-05
3.68646e-05
1.18932e-05
3.58407e-05
1.30234e-05
3.46874e-05
1.41469e-05
3.3394e-05
1.52734e-05
3.19447e-05
1.6402e-05
3.0347e-05
1.75362e-05
2.85989e-05
1.86643e-05
2.66892e-05
1.97816e-05
2.46222e-05
2.08685e-05
2.23983e-05
2.19211e-05
1.99987e-05
2.29418e-05
1.74079e-05
2.39185e-05
1.4636e-05
2.48279e-05
1.16727e-05
8.523e-06
2.56592e-05
1.13061e-06
4.12126e-05
2.24614e-06
3.97085e-05
3.35768e-06
3.93038e-05
4.45439e-06
3.9003e-05
5.5415e-06
3.85921e-05
6.62058e-06
3.80715e-05
7.68896e-06
3.74413e-05
8.74123e-06
3.66963e-05
9.78035e-06
3.58257e-05
1.07927e-05
3.48287e-05
1.17853e-05
3.36952e-05
1.27629e-05
3.24169e-05
1.37276e-05
3.09805e-05
1.46805e-05
2.93952e-05
1.56247e-05
2.76547e-05
1.65579e-05
2.5758e-05
1.74817e-05
2.36999e-05
1.84048e-05
2.14766e-05
1.93065e-05
1.90982e-05
2.01512e-05
1.65641e-05
2.09336e-05
1.38541e-05
2.16506e-05
1.0956e-05
7.88146e-06
2.22919e-05
1.03754e-06
4.01745e-05
2.03704e-06
3.87089e-05
3.02654e-06
3.83143e-05
4.00637e-06
3.80232e-05
4.97915e-06
3.76194e-05
5.94505e-06
3.71058e-05
6.90869e-06
3.64778e-05
7.86125e-06
3.5744e-05
8.79758e-06
3.48897e-05
9.70983e-06
3.39168e-05
1.05984e-05
3.2807e-05
1.14622e-05
3.15534e-05
1.22908e-05
3.01525e-05
1.30859e-05
2.86004e-05
1.38523e-05
2.68902e-05
1.45927e-05
2.50181e-05
1.5313e-05
2.29812e-05
1.60137e-05
2.07773e-05
1.66949e-05
1.84181e-05
1.73694e-05
1.58905e-05
1.80044e-05
1.32197e-05
1.85553e-05
1.04055e-05
7.41645e-06
1.90203e-05
9.48617e-07
3.92265e-05
1.80816e-06
3.78495e-05
2.66188e-06
3.74607e-05
3.50681e-06
3.71784e-05
4.34498e-06
3.67813e-05
5.18031e-06
3.62706e-05
6.01568e-06
3.56427e-05
6.84893e-06
3.49109e-05
7.6718e-06
3.40671e-05
8.47799e-06
3.31109e-05
9.25468e-06
3.20306e-05
9.99242e-06
3.08161e-05
1.0702e-05
2.94434e-05
1.13945e-05
2.79089e-05
1.20561e-05
2.62285e-05
1.26883e-05
2.43877e-05
1.32758e-05
2.23949e-05
1.38023e-05
2.02522e-05
1.42819e-05
1.79396e-05
1.47191e-05
1.54542e-05
1.51249e-05
1.28146e-05
1.55108e-05
1.002e-05
7.09958e-06
1.58278e-05
8.46336e-07
3.83796e-05
1.52054e-06
3.71752e-05
2.17398e-06
3.68073e-05
2.84282e-06
3.65096e-05
3.52011e-06
3.61042e-05
4.1998e-06
3.5591e-05
4.88827e-06
3.49543e-05
5.59489e-06
3.42045e-05
6.31572e-06
3.33465e-05
7.04231e-06
3.23845e-05
7.76038e-06
3.13128e-05
8.45193e-06
3.01249e-05