/*--------------------------------*- C++ -*----------------------------------*\
| =========                 |                                                 |
| \\      /  F ield         | OpenFOAM: The Open Source CFD Toolbox           |
|  \\    /   O peration     | Version:  2.4.0                                 |
|   \\  /    A nd           | Web:      www.OpenFOAM.org                      |
|    \\/     M anipulation  |                                                 |
\*---------------------------------------------------------------------------*/
FoamFile
{
    version     2.0;
    format      ascii;
    class       surfaceScalarField;
    location    "0.85";
    object      phi.water;
}
// * * * * * * * * * * * * * * * * * * * * * * * * * * * * * * * * * * * * * //

dimensions      [0 3 -1 0 0 0 0];

internalField   nonuniform List<scalar> 
4432
(
1.3704e-07
1.75043e-05
-6.31976e-08
1.43287e-05
-1.99302e-06
5.86528e-06
-5.98573e-06
5.38147e-06
-1.06511e-05
5.46878e-06
-1.61569e-05
5.91531e-06
-2.0625e-05
4.55254e-06
-2.26658e-05
2.06978e-06
-2.27717e-05
1.28914e-07
-2.19516e-05
-8.01644e-07
-2.09162e-05
-1.02231e-06
-1.93579e-05
-1.54528e-06
-1.70885e-05
-2.25478e-06
-1.45626e-05
-2.51092e-06
-1.25807e-05
-1.97048e-06
-1.136e-05
-1.21185e-06
-1.05528e-05
-8.00614e-07
-9.60528e-06
-9.41812e-07
-8.11026e-06
-1.489e-06
-5.86878e-06
-2.23523e-06
-4.41239e-06
-1.45259e-06
-3.58632e-06
-8.25482e-07
-3.58584e-06
-4.50588e-07
3.35626e-05
-3.63409e-07
3.30192e-05
-1.24057e-06
2.75992e-05
-4.04933e-06
2.24282e-05
-8.34931e-06
1.96597e-05
-1.4703e-05
1.37435e-05
-2.01828e-05
1.02694e-05
-2.30259e-05
4.99936e-06
-2.33241e-05
5.21071e-07
-2.24567e-05
-1.58335e-06
-2.10173e-05
-2.39407e-06
-1.91147e-05
-3.38641e-06
-1.67376e-05
-4.56958e-06
-1.43629e-05
-4.83968e-06
-1.2529e-05
-3.7841e-06
-1.12224e-05
-2.50435e-06
-1.02438e-05
-1.76665e-06
-9.21757e-06
-1.95153e-06
-7.51872e-06
-3.16444e-06
-5.46406e-06
-4.26634e-06
-3.46852e-06
-3.44014e-06
-1.80991e-06
-2.4815e-06
-5.39461e-06
9.81407e-07
2.62057e-05
-2.60493e-07
3.02032e-05
-5.04985e-06
3.76237e-05
-1.07161e-05
5.16567e-05
-1.19131e-05
5.46561e-05
-1.73571e-05
3.54616e-05
-2.15392e-05
2.75766e-05
-2.35467e-05
1.19798e-05
-2.36699e-05
2.41205e-06
-2.25973e-05
-1.77125e-06
-2.07481e-05
-3.8213e-06
-1.85529e-05
-5.31244e-06
-1.63851e-05
-6.56083e-06
-1.43555e-05
-6.77306e-06
-1.27309e-05
-5.35767e-06
-1.13397e-05
-3.86362e-06
-9.98511e-06
-3.07786e-06
-8.73023e-06
-3.13963e-06
-7.17195e-06
-4.64197e-06
-5.57429e-06
-5.79075e-06
-3.27534e-06
-5.71278e-06
-1.10797e-06
-4.6386e-06
-6.45508e-06
-2.70734e-06
1.63051e-06
-6.6887e-06
4.69297e-06
-9.69862e-06
8.49561e-06
-1.10411e-05
1.72378e-05
-2.16373e-05
3.46729e-05
-2.89468e-05
5.38149e-05
-2.23192e-05
4.36634e-05
-2.43432e-05
2.79284e-05
-2.42738e-05
8.62776e-06
-2.24212e-05
-7.66255e-07
-2.02518e-05
-4.77225e-06
-1.82472e-05
-6.67966e-06
-1.62723e-05
-6.22411e-06
-1.42755e-05
-3.29515e-06
-1.2338e-05
-1.22032e-06
-1.04727e-05
-1.88869e-06
-8.95329e-06
-3.42772e-06
-7.93459e-06
-4.03409e-06
-7.38946e-06
-5.17577e-06
-6.88068e-06
-6.28064e-06
-4.77039e-06
-7.46506e-06
-1.81662e-06
-3.56935e-06
1.04605e-05
-1.15201e-06
2.69881e-06
-2.01253e-06
5.40926e-06
-2.91345e-06
8.42189e-06
-8.04143e-06
1.73712e-05
-2.01803e-05
3.57381e-05
-3.26942e-05
5.02767e-05
-3.30325e-05
4.51116e-05
-2.63407e-05
3.63911e-05
-2.71119e-05
2.12739e-05
-2.58768e-05
4.77899e-06
-2.29781e-05
5.60154e-06
-1.97587e-05
1.48073e-05
-1.71069e-05
1.59108e-05
-1.53091e-05
1.66738e-05
-1.28665e-05
1.7544e-05
-1.02491e-05
1.82723e-05
-8.37521e-06
1.90776e-05
-7.61241e-06
1.95397e-05
-7.52554e-06
1.83694e-05
-7.26794e-06
1.72262e-05
-5.52872e-06
1.59967e-05
-1.82099e-06
1.63899e-05
2.21515e-05
-4.61688e-06
7.31568e-06
-1.00833e-05
1.08757e-05
-1.71685e-05
1.55066e-05
-2.27902e-05
2.30416e-05
-2.89363e-05
4.15094e-05
-3.88032e-05
5.06592e-05
-3.94957e-05
4.22436e-05
-3.51544e-05
3.15518e-05
-2.96673e-05
2.60064e-05
-3.00089e-05
1.82198e-05
-2.40363e-05
1.65454e-05
-2.19812e-05
1.83974e-05
-1.89739e-05
1.86804e-05
-1.72955e-05
1.97261e-05
-1.5276e-05
2.07172e-05
-1.31286e-05
2.25211e-05
-1.07512e-05
2.46471e-05
-8.82955e-06
2.72405e-05
-7.66735e-06
2.76758e-05
-6.55235e-06
2.6095e-05
-4.32138e-06
2.24092e-05
-1.59056e-06
2.00975e-05
1.5984e-05
-1.39434e-06
8.71004e-06
-3.57563e-06
1.3057e-05
-7.80229e-06
1.97335e-05
-1.54964e-05
3.08164e-05
-2.61991e-05
5.33501e-05
-4.00542e-05
6.10226e-05
-4.53857e-05
4.21187e-05
-4.30759e-05
3.42383e-05
-3.84311e-05
2.50983e-05
-3.32411e-05
1.63927e-05
-2.78092e-05
9.34162e-06
-2.13764e-05
5.13911e-06
-1.65488e-05
5.29195e-06
-1.53961e-05
7.03946e-06
-1.53364e-05
9.61595e-06
-1.52352e-05
1.25397e-05
-1.37345e-05
1.49056e-05
-1.06857e-05
1.65536e-05
-7.93025e-06
1.81513e-05
-5.87788e-06
1.80951e-05
-5.52377e-06
1.56755e-05
-7.6357e-06
1.42352e-05
-6.31846e-06
-3.16685e-06
1.18769e-05
-6.15331e-06
1.60434e-05
-9.48924e-06
2.30694e-05
-1.26934e-05
3.40307e-05
-1.72366e-05
5.82782e-05
-2.99474e-05
7.09702e-05
-4.06408e-05
4.24507e-05
-4.21949e-05
2.29454e-05
-3.94928e-05
1.17205e-05
-3.54749e-05
9.6524e-07
-2.79698e-05
-1.07205e-05
-1.83097e-05
-1.89543e-05
-1.22843e-05
-1.94716e-05
-1.08523e-05
-1.37093e-05
-1.23197e-05
-8.55257e-06
-1.54765e-05
-5.01846e-06
-1.70693e-05
-5.15286e-06
-1.40767e-05
-7.70993e-06
-1.01311e-05
-6.42088e-06
-8.18489e-06
-3.50093e-06
-9.68282e-06
-1.56596e-06
-1.58044e-05
-7.35451e-07
-3.54784e-05
8.96599e-06
3.386e-05
2.64979e-05
1.40802e-05
3.1044e-05
2.78727e-05
3.20253e-05
3.37253e-05
3.28396e-05
3.54706e-05
3.36257e-05
3.57213e-05
3.56345e-05
3.60084e-05
3.74466e-05
3.72137e-05
3.86776e-05
3.64393e-05
4.11958e-05
3.58047e-05
4.34147e-05
3.7089e-05
4.41704e-05
3.85448e-05
3.87174e-05
4.64741e-05
3.56569e-05
4.89693e-05
3.11911e-05
5.16216e-05
2.08414e-05
4.97281e-05
3.68911e-06
1.88682e-05
-3.08946e-06
1.69045e-05
1.10224e-05
1.45664e-05
1.48651e-05
3.36649e-05
-2.64565e-05
4.23221e-05
-4.56398e-06
4.45969e-05
1.01158e-06
4.49946e-05
1.29065e-06
4.4729e-05
1.23656e-06
4.43972e-05
2.0836e-06
4.40968e-05
2.4182e-06
4.47842e-05
1.45023e-06
4.48228e-05
2.16686e-06
4.37065e-05
4.96954e-06
4.43632e-05
8.88657e-06
3.79811e-05
2.01023e-05
3.15202e-05
2.98513e-05
2.36427e-05
3.92355e-05
1.18047e-05
4.91015e-05
6.80334e-06
3.0191e-05
-3.68408e-06
2.33257e-05
5.05183e-06
2.91247e-05
-4.43922e-05
3.36652e-05
-5.50473e-05
3.84862e-05
-2.89598e-05
4.51907e-05
-1.6772e-05
5.21428e-05
-1.30798e-05
5.56294e-05
-9.47481e-06
5.43429e-05
-5.07245e-06
5.15187e-05
-3.70531e-06
4.68832e-05
-3.22975e-06
3.78585e-05
5.25657e-07
2.26474e-05
8.27853e-06
2.53515e-06
1.37915e-05
-1.823e-05
2.5679e-05
-1.96675e-05
1.89171e-05
-1.01162e-06
1.46077e-05
6.52635e-06
4.42882e-05
6.21372e-06
3.78034e-05
-7.71129e-07
3.29446e-05
1.00827e-05
1.91377e-05
-9.91007e-05
2.03759e-05
-7.07682e-05
2.99213e-05
-4.62552e-05
4.0327e-05
-3.51313e-05
4.55446e-05
-2.54231e-05
4.70151e-05
-1.34906e-05
4.38878e-05
-3.08583e-07
3.77255e-05
4.95569e-06
3.0969e-05
5.96826e-06
2.44713e-05
9.65486e-06
1.40848e-05
2.0766e-05
-6.78413e-06
3.71655e-05
-3.12243e-05
5.20223e-05
-3.75854e-05
2.08542e-05
-2.72161e-05
-3.31926e-06
-2.10676e-06
1.36919e-05
5.19051e-06
3.42488e-05
2.55282e-06
3.51501e-05
1.06013e-05
9.31518e-06
-0.000125654
6.78045e-06
-8.14488e-05
1.14401e-05
-5.7312e-05
2.08148e-05
-5.26865e-05
2.83151e-05
-4.00037e-05
3.20329e-05
-2.2351e-05
3.24228e-05
-5.82237e-06
2.88194e-05
6.56449e-06
2.28303e-05
1.05817e-05
1.75824e-05
1.36165e-05
9.75481e-06
2.80087e-05
-6.2795e-06
5.47535e-05
-2.78752e-05
7.35652e-05
-3.62037e-05
2.47255e-05
-2.94749e-05
-1.25438e-05
-1.39225e-05
-1.57584e-05
1.38579e-06
2.11383e-05
2.9942e-06
3.34714e-05
1.36434e-05
6.46718e-06
-0.000130054
-2.31513e-06
-8.41257e-05
-1.54145e-06
-6.31715e-05
6.86137e-06
-6.56984e-05
1.83498e-05
-5.54651e-05
2.30068e-05
-3.66435e-05
1.96902e-05
-6.83533e-06
1.46195e-05
1.16397e-05
1.00944e-05
1.6435e-05
8.20047e-06
1.6266e-05
6.16086e-06
2.86039e-05
-1.52484e-06
6.30067e-05
-1.8717e-05
8.72787e-05
-3.04975e-05
3.15168e-05
-2.51496e-05
-1.92963e-05
-1.83246e-05
-1.81729e-05
-1.48783e-07
1.39651e-05
4.27938e-06
2.83844e-05
1.62141e-05
6.95155e-06
-0.000129473
-2.39715e-06
-8.38958e-05
-2.50418e-06
-6.99455e-05
7.73956e-07
-7.0032e-05
9.10016e-06
-6.33654e-05
1.95942e-05
-4.74167e-05
1.79142e-05
-1.48105e-05
9.73243e-06
1.39332e-05
2.9902e-06
2.23992e-05
-3.3007e-07
1.93408e-05
5.12203e-07
2.71534e-05
2.03982e-06
6.01352e-05
-8.92958e-06
9.57899e-05
-2.80926e-05
4.81298e-05
-2.98732e-05
-1.72297e-05
-2.56331e-05
-2.40772e-05
-9.75998e-06
9.66131e-06
4.16728e-06
2.52208e-05
3.12224e-05
7.69985e-06
-0.000126521
-1.94942e-06
-7.62787e-05
-1.21581e-06
-7.25029e-05
-1.10968e-06
-7.05032e-05
1.44317e-06
-6.61626e-05
1.05933e-05
-5.35499e-05
1.44825e-05
-2.18087e-05
6.68736e-06
1.47372e-05
-6.23618e-07
2.70992e-05
-3.80071e-06
2.17495e-05
-2.75735e-06
2.64172e-05
4.55931e-06
5.19724e-05
3.42021e-06
9.77368e-05
-1.39257e-05
6.43998e-05
-2.37883e-05
-6.00044e-06
-2.93652e-05
-3.97525e-05
-1.86516e-05
-4.98628e-06
-2.31044e-06
2.18749e-05
3.90091e-05
6.23464e-06
5.64222e-06
9.58001e-06
1.26979e-05
9.62004e-06
2.30295e-05
8.28139e-06
3.53739e-05
1.5065e-05
5.17286e-05
2.2345e-05
6.21487e-05
6.15319e-06
4.88061e-05
-1.72163e-05
2.78307e-05
-3.89601e-05
1.17454e-05
-4.74997e-05
-8.31784e-06
-4.36791e-05
-2.69944e-05
-3.99274e-05
-3.22767e-05
-3.63513e-05
-2.8915e-05
-2.91436e-05
-2.40174e-05
-2.36251e-05
-1.68701e-05
-2.22276e-05
-9.62891e-06
-2.38583e-05
-7.77823e-06
-2.71224e-05
-9.94819e-06
-2.90257e-05
-1.13194e-05
-2.89858e-05
-1.13423e-05
-2.39975e-05
-1.41954e-05
-9.0509e-06
-2.05822e-05
-3.68874e-05
-1.44197e-05
4.29464e-06
1.34422e-06
7.56751e-06
9.41196e-06
7.66115e-06
2.29078e-05
1.01485e-05
3.289e-05
1.91462e-05
4.27373e-05
3.4488e-05
4.65333e-05
3.98372e-05
4.19193e-05
3.62081e-05
2.9142e-05
3.53741e-05
1.01678e-05
3.35454e-05
-8.76046e-06
2.59986e-05
-2.12064e-05
2.12835e-05
-2.86512e-05
2.41938e-05
-3.24838e-05
2.78401e-05
-2.89928e-05
2.85972e-05
-1.97497e-05
2.40124e-05
-6.70664e-06
1.50422e-05
1.27721e-07
4.34351e-06
-2.34668e-07
-6.53851e-06
-1.45364e-06
-1.02427e-05
-8.79805e-06
2.62432e-07
-2.59756e-05
1.1442e-05
-3.58242e-05
-3.05243e-05
-7.61594e-06
1.73918e-05
-1.72531e-05
2.53457e-05
-1.04538e-06
2.42652e-05
2.22613e-05
2.22379e-05
3.41216e-05
2.33034e-05
4.14979e-05
2.96273e-05
4.01116e-05
3.7086e-05
3.43665e-05
4.27052e-05
2.34331e-05
4.4387e-05
8.39259e-06
4.0419e-05
-4.92513e-06
3.44347e-05
-1.57476e-05
2.99405e-05
-2.51807e-05
3.07252e-05
-3.56667e-05
3.35261e-05
-3.73076e-05
3.47369e-05
-3.03927e-05
2.69337e-05
-1.60493e-05
1.48229e-05
-4.28735e-06
6.00996e-06
2.4143e-06
-8.89525e-06
1.02745e-05
-3.78146e-05
1.70479e-05
-7.66752e-05
7.51049e-06
-9.85746e-05
-8.05856e-05
-0.000129092
-6.20494e-05
1.96402e-05
-4.13235e-05
2.26359e-05
-1.10958e-05
1.66418e-05
2.21221e-05
1.47438e-05
3.36035e-05
1.59585e-05
3.93809e-05
1.81946e-05
3.71762e-05
2.30576e-05
2.88764e-05
2.8265e-05
1.74994e-05
3.03107e-05
4.88096e-06
3.13438e-05
-9.12395e-06
2.55513e-05
-1.84595e-05
2.10473e-05
-2.79478e-05
2.14568e-05
-4.69651e-05
8.11112e-06
-4.22633e-05
-1.32512e-05
-2.07301e-05
-2.79553e-05
-7.03916e-07
-4.75172e-05
1.74993e-05
-8.20563e-05
2.92012e-05
-0.000112349
3.65541e-05
-0.000149073
4.63235e-05
-0.000208006
-4.55898e-07
-0.000265747
-0.000169388
-0.000233131
-0.000247551
-1.63032e-06
-4.74329e-05
-7.04269e-06
-9.72407e-06
-1.08124e-05
2.28347e-05
-1.14873e-05
2.99361e-05
-8.17694e-06
3.26705e-05
-5.46589e-06
3.17162e-05
-1.71687e-06
2.26966e-05
6.96429e-06
3.74702e-06
2.14273e-05
-2.97245e-05
3.09193e-05
-7.52176e-05
1.50246e-05
-5.03121e-05
-5.97945e-05
-4.76449e-05
-0.000171607
-3.50092e-05
-0.000207152
-2.76726e-05
-0.000203863
-1.11257e-05
-0.000208049
1.95826e-05
-0.000210942
4.29891e-05
-0.000217429
5.35662e-05
-0.000226323
5.79368e-05
-0.000254423
4.40389e-05
-0.000291975
-0.000125604
-0.000289216
-0.000221669
-0.000215409
-0.000257173
-2.56064e-05
-3.07664e-05
-3.8602e-05
-6.80398e-06
-3.66824e-05
3.5482e-06
-3.30197e-05
5.36923e-06
-2.72324e-05
2.48797e-06
-1.93378e-05
-5.17912e-06
-1.6958e-05
-2.43482e-05
-2.87327e-05
-5.12024e-05
-4.28604e-05
-0.000107575
-1.57651e-05
-6.22319e-05
8.17895e-06
-5.51604e-05
-8.02212e-05
-5.7022e-05
-0.000208578
-4.32713e-05
-0.000239039
-3.10459e-05
-0.000235318
-1.30395e-05
-0.000239554
1.87223e-05
-0.000238562
4.28771e-05
-0.000234632
5.14882e-05
-0.000242188
5.24801e-05
-0.000288386
2.49965e-05
-0.000291415
-0.00017063
-0.00029203
-0.000224493
-0.000221035
-0.000290774
-3.54282e-05
-5.57972e-05
-5.8572e-05
-5.19899e-05
-5.98462e-05
-4.84101e-05
-5.32736e-05
-5.12568e-05
-4.56313e-05
-5.55739e-05
-3.91194e-05
-6.01597e-05
-3.59813e-05
-7.41371e-05
-4.16756e-05
-7.92968e-05
-6.82767e-05
-6.6981e-05
-6.69223e-05
4.24749e-05
-2.11088e-05
-9.92082e-06
-0.000146293
-1.23733e-06
-0.000261257
-2.52728e-05
-0.00023622
-2.48151e-05
-0.000230168
-7.52831e-06
-0.000233188
1.85862e-05
-0.000235596
3.88611e-05
-0.000246554
4.72544e-05
-0.000282535
5.40845e-05
-0.000310067
5.58571e-05
-0.000308293
-3.61327e-05
-0.0002636
-0.000134485
-0.000120124
-0.000293615
-5.28294e-05
-6.93959e-05
-6.9959e-05
-4.4868e-05
-6.79062e-05
-6.22457e-05
-6.08044e-05
-5.83086e-05
-5.63355e-05
-5.5074e-05
-5.04096e-05
-4.99989e-05
-4.86872e-05
-5.3436e-05
-5.57954e-05
-4.01902e-05
-6.12245e-05
1.47804e-05
-0.000172573
8.45259e-05
-0.000163372
0.000135376
-0.000160531
0.00015279
-0.000254883
1.36227e-05
-0.000242145
-1.15914e-05
-0.000219462
-5.43651e-06
-0.000214049
9.61071e-06
-0.000217088
3.0836e-05
-0.000249711
4.31881e-05
-0.000288746
6.26048e-05
-0.000198123
0.000128116
-0.000215897
0.000145743
-0.000199098
-9.45019e-06
-3.98302e-05
-0.000256214
-5.402e-05
-3.7117e-06
-8.37155e-05
8.3657e-06
-8.24398e-05
-1.90892e-05
-7.26126e-05
-2.67097e-05
-6.19578e-05
-2.17385e-05
-4.98239e-05
-1.07503e-05
-6.27233e-05
2.5795e-05
-9.97521e-05
8.25891e-05
-0.000128482
0.000107434
-0.000137687
9.29896e-05
-0.000124138
0.000122094
-0.000102792
0.000164892
-0.000161099
8.22492e-05
-0.000229366
1.15223e-05
-0.00021833
1.82752e-06
-0.000199914
4.46085e-06
-0.000192434
1.60874e-05
-0.000208431
3.20451e-05
-0.000201722
6.40276e-05
-0.000170768
0.000180147
-0.000240909
0.000166913
-0.000263787
2.3377e-05
-3.01806e-05
-0.000289805
-4.77715e-05
0.000142609
-5.87635e-05
0.000104806
-6.02902e-05
4.57604e-05
-5.88107e-05
2.46216e-05
-5.82709e-05
2.43655e-05
-6.04054e-05
4.09108e-05
-6.98006e-05
7.26951e-05
-8.09666e-05
0.000105901
-9.06415e-05
0.000118163
-0.000103303
0.000105648
-8.74452e-05
0.000106215
-4.51486e-05
0.000122499
-6.49018e-05
0.000125066
-0.000149887
7.35274e-05
-0.000187048
1.11309e-05
-0.000194604
9.04234e-06
-0.000182856
1.08174e-05
-0.000182508
2.50359e-05
-0.00019581
6.8577e-05
-0.000141879
0.000189444
-0.000216939
0.000191234
-0.000278879
8.16944e-05
-8.78212e-06
-0.000300414
-1.889e-05
0.000185989
-2.60899e-05
0.000112732
-3.432e-05
5.40898e-05
-3.46414e-05
2.51155e-05
-3.17582e-05
2.15628e-05
-3.18081e-05
4.09556e-05
-3.20981e-05
7.29699e-05
-3.90724e-05
0.000112865
-4.26861e-05
0.000121773
-4.88539e-05
0.000111807
-3.98987e-05
9.72442e-05
-1.58741e-05
9.8415e-05
-8.67735e-07
0.000109669
-4.90062e-05
0.00011535
-0.000139392
9.19764e-05
-0.000162143
4.11335e-05
-0.000174186
2.16519e-05
-0.000178282
2.8757e-05
-0.000180318
5.92355e-05
-9.9742e-05
0.000145637
-0.000112265
0.000208438
-0.000189884
0.000143299
3.23697e-05
-0.000231729
1.02916e-05
0.000175725
4.77582e-06
0.00011827
-5.56843e-06
6.43909e-05
-1.60098e-05
3.56073e-05
-2.34941e-05
2.90109e-05
-2.40999e-05
4.15674e-05
-1.31035e-05
6.19835e-05
-7.15373e-06
0.000106894
-8.09126e-06
0.000122698
-1.09466e-05
0.000114653
-5.39434e-06
9.17038e-05
7.71024e-06
8.52862e-05
2.15706e-05
9.57711e-05
3.69536e-05
9.96057e-05
3.64503e-05
0.000104908
7.77151e-06
0.000104773
-3.53891e-05
9.75093e-05
-7.46397e-05
0.000100651
-7.79047e-05
0.000113607
-5.3902e-05
0.000117262
-3.12944e-05
0.000201823
-8.31649e-05
0.000198211
0.000112573
-0.000170533
1.91761e-05
0.000156556
1.85262e-05
0.000118877
1.18391e-05
7.10136e-05
3.80688e-06
4.37471e-05
-4.96607e-06
3.76488e-05
-1.01235e-05
4.6676e-05
-5.21669e-06
5.71176e-05
6.15427e-06
9.54847e-05
1.19773e-05
0.00011686
1.5712e-05
0.00011091
1.92708e-05
8.8141e-05
2.55123e-05
7.90207e-05
3.47733e-05
8.64761e-05
4.63041e-05
8.81071e-05
5.95951e-05
9.20878e-05
7.06373e-05
9.90066e-05
7.08697e-05
0.000107397
5.84815e-05
0.000121695
3.31785e-05
0.000135797
2.42096e-05
0.000157968
3.73816e-05
0.000179955
1.85162e-05
0.000225547
0.00018192
-5.30912e-05
1.78937e-05
0.00013808
2.2499e-05
0.000113994
1.8259e-05
7.52603e-05
1.10416e-05
5.10657e-05
4.13486e-06
4.44327e-05
-7.87978e-07
5.15713e-05
-5.22139e-08
5.64037e-05
1.09169e-05
8.45068e-05
2.26343e-05
0.000105135
3.1403e-05
0.00010214
3.378e-05
8.57491e-05
3.53534e-05
7.74393e-05
4.03923e-05
8.14261e-05
4.7092e-05
8.14258e-05
5.60897e-05
8.30959e-05
6.86183e-05
8.64808e-05
8.11863e-05
9.48527e-05
9.17239e-05
0.000111239
9.82084e-05
0.00012989
0.000105078
0.000149518
0.000126422
0.000186425
0.000137863
0.000214816
0.000192634
0.000126944
1.34887e-05
0.000124498
2.23469e-05
0.000104959
2.24203e-05
7.5171e-05
1.6966e-05
5.66442e-05
9.98723e-06
5.13159e-05
4.77626e-06
5.67612e-05
2.23394e-06
5.89519e-05
1.0673e-05
7.60805e-05
2.5036e-05
9.07687e-05
3.49871e-05
9.21967e-05
3.6607e-05
8.41212e-05
3.6143e-05
7.7902e-05
3.89457e-05
7.86237e-05
4.38268e-05
7.65497e-05
5.11365e-05
7.57869e-05
6.12244e-05
7.64008e-05
7.54558e-05
8.06507e-05
9.39417e-05
9.27762e-05
0.000112013
0.00011184
0.000137093
0.000124339
0.000179039
0.000144383
0.000202495
0.000194728
0.000184368
0.000210662
1.33947e-05
0.000111259
2.25608e-05
9.61123e-05
2.40812e-05
7.37261e-05
2.0031e-05
6.0842e-05
1.37852e-05
5.75265e-05
9.57624e-06
6.09632e-05
5.93547e-06
6.25925e-05
1.07057e-05
7.13292e-05
2.22848e-05
7.91822e-05
3.15311e-05
8.29583e-05
3.43524e-05
8.13048e-05
3.41121e-05
7.81544e-05
3.60916e-05
7.6646e-05
3.97035e-05
7.29374e-05
4.52444e-05
7.025e-05
5.30049e-05
6.86457e-05
6.38633e-05
6.98028e-05
8.15276e-05
7.5164e-05
0.000104079
8.93162e-05
0.000133007
9.54543e-05
0.000172636
0.000104491
0.000207003
0.000160186
0.000170718
0.000220772
1.32456e-05
9.80032e-05
2.15037e-05
8.79668e-05
2.2836e-05
7.25222e-05
1.9451e-05
6.43377e-05
1.5083e-05
6.18837e-05
1.25248e-05
6.3519e-05
1.05587e-05
6.45574e-05
1.29963e-05
6.88937e-05
1.9745e-05
7.24312e-05
2.67477e-05
7.59549e-05
3.06593e-05
7.73986e-05
3.24032e-05
7.64191e-05
3.47348e-05
7.43141e-05
3.74859e-05
7.01885e-05
4.11592e-05
6.65667e-05
4.61931e-05
6.36176e-05
5.34536e-05
6.25461e-05
6.48022e-05
6.38165e-05
8.30688e-05
7.10908e-05
0.000105952
7.25797e-05
0.000136987
7.35331e-05
0.000177818
0.000119359
0.000147696
0.000200661
1.08842e-05
8.71098e-05
1.78564e-05
8.10752e-05
1.92596e-05
7.1354e-05
1.72951e-05
6.63221e-05
1.51524e-05
6.40244e-05
1.43827e-05
6.42868e-05
1.41682e-05
6.47702e-05
1.60919e-05
6.69681e-05
1.98689e-05
6.86523e-05
2.45914e-05
7.12299e-05
2.89144e-05
7.30758e-05
3.25676e-05
7.27663e-05
3.62135e-05
7.06677e-05
3.91284e-05
6.72667e-05
4.18928e-05
6.38119e-05
4.5121e-05
6.03714e-05
4.94458e-05
5.82165e-05
5.56998e-05
5.75823e-05
6.60582e-05
6.07293e-05
7.85245e-05
6.01363e-05
9.21995e-05
5.98615e-05
0.000121256
9.03722e-05
0.00012002
0.00014894
7.77388e-06
7.941e-05
1.32841e-05
7.56549e-05
1.52003e-05
6.94864e-05
1.52915e-05
6.62297e-05
1.49771e-05
6.43362e-05
1.53528e-05
6.39083e-05
1.61797e-05
6.39405e-05
1.81515e-05
6.49934e-05
2.09687e-05
6.5832e-05
2.47381e-05
6.74572e-05
2.91612e-05
6.86486e-05
3.36836e-05
6.82397e-05
3.79054e-05
6.6442e-05
4.12597e-05
6.39158e-05
4.41468e-05
6.09059e-05
4.66517e-05
5.7873e-05
4.90958e-05
5.57697e-05
5.21603e-05
5.45201e-05
5.7202e-05
5.56888e-05
6.26557e-05
5.4687e-05
6.68625e-05
5.56413e-05
8.36516e-05
7.36106e-05
9.296e-05
0.000110746
5.57331e-06
7.38609e-05
1.02038e-05
7.10348e-05
1.25316e-05
6.71587e-05
1.3722e-05
6.50378e-05
1.45011e-05
6.35556e-05
1.5486e-05
6.29219e-05
1.68069e-05
6.2618e-05
1.88092e-05
6.29896e-05
2.13816e-05
6.32581e-05
2.48787e-05
6.39585e-05
2.91669e-05
6.43587e-05
3.35802e-05
6.38248e-05
3.77311e-05
6.22892e-05
4.12776e-05
6.03661e-05
4.42035e-05
5.7987e-05
4.6271e-05
5.58008e-05
4.81377e-05
5.39056e-05
5.04214e-05
5.22389e-05
5.3875e-05
5.22363e-05
5.6931e-05
5.16328e-05
5.93319e-05
5.32367e-05
7.01653e-05
6.2777e-05
7.06247e-05
9.24316e-05
4.31242e-06
6.95471e-05
8.17567e-06
6.71702e-05
1.05818e-05
6.47514e-05
1.231e-05
6.33083e-05
1.37558e-05
6.21086e-05
1.51901e-05
6.14863e-05
1.67557e-05
6.10512e-05
1.87554e-05
6.09887e-05
2.11432e-05
6.08692e-05
2.4231e-05
6.08697e-05
2.79465e-05
6.06422e-05
3.18226e-05
5.99474e-05
3.55111e-05
5.85995e-05
3.88975e-05
5.69833e-05
4.18368e-05
5.50421e-05
4.4225e-05
5.342e-05
4.63066e-05
5.18257e-05
4.8546e-05
5.00016e-05
5.15995e-05
4.91839e-05
5.45022e-05
4.87301e-05
5.77087e-05
5.00305e-05
6.6621e-05
5.38604e-05
5.50186e-05
8.21903e-05
3.51504e-06
6.60303e-05
6.8118e-06
6.38722e-05
9.25842e-06
6.23036e-05
1.12988e-05
6.12668e-05
1.30628e-05
6.03436e-05
1.48037e-05
5.97444e-05
1.66365e-05
5.92176e-05
1.87107e-05
5.89137e-05
2.10221e-05
5.85571e-05
2.36998e-05
5.81913e-05
2.68052e-05
5.75361e-05
3.01147e-05
5.66373e-05
3.32302e-05
5.5484e-05
3.62064e-05
5.4005e-05
3.89088e-05
5.23472e-05
4.16303e-05
5.06978e-05
4.43781e-05
4.90812e-05
4.70054e-05
4.73769e-05
4.99834e-05
4.62065e-05
5.32469e-05
4.54663e-05
5.74432e-05
4.5832e-05
6.49617e-05
4.63368e-05
4.43849e-05
7.55785e-05
3.05542e-06
6.29746e-05
5.96232e-06
6.09645e-05
8.37763e-06
5.98874e-05
1.05347e-05
5.91088e-05
1.24933e-05
5.83842e-05
1.44548e-05
5.77822e-05
1.64838e-05
5.7188e-05
1.86689e-05
5.67281e-05
2.10137e-05
5.62119e-05
2.35563e-05
5.56484e-05
2.62876e-05
5.48046e-05
2.91466e-05
5.37782e-05
3.19961e-05
5.26347e-05
3.47577e-05
5.12465e-05
3.74422e-05
4.96603e-05
4.01557e-05
4.79907e-05
4.28433e-05
4.63966e-05
4.54703e-05
4.47523e-05
4.84521e-05
4.32254e-05
5.19738e-05
4.19441e-05
5.64731e-05
4.13304e-05
6.28258e-05
3.99808e-05
3.66679e-05
7.05343e-05
2.68328e-06
6.02899e-05
5.27206e-06
5.83747e-05
7.58893e-06
5.75698e-05
9.74713e-06
5.69499e-05
1.17969e-05
5.63339e-05
1.38363e-05
5.57422e-05
1.59043e-05
5.51196e-05
1.81042e-05
5.45279e-05
2.04485e-05
5.38674e-05
2.28959e-05
5.3201e-05
2.53574e-05
5.23431e-05
2.79006e-05
5.12351e-05
3.0557e-05
4.99789e-05
3.32203e-05
4.85826e-05
3.58706e-05
4.70168e-05
3.84546e-05
4.54069e-05
4.11108e-05
4.37447e-05
4.39293e-05
4.1936e-05
4.70397e-05
4.01161e-05
5.05211e-05
3.84623e-05
5.47664e-05
3.70834e-05
6.01873e-05
3.45573e-05
3.0723e-05
6.61271e-05
2.46192e-06
5.78279e-05
4.83258e-06
5.60035e-05
7.04028e-06
5.53614e-05
9.14895e-06
5.48406e-05
1.11999e-05
5.42824e-05
1.32425e-05
5.36993e-05
1.53022e-05
5.30596e-05
1.74454e-05
5.23845e-05
1.96746e-05
5.16381e-05
2.2007e-05
5.08686e-05
2.43715e-05
4.99787e-05
2.67804e-05
4.88265e-05
2.92007e-05
4.75591e-05
3.17053e-05
4.60812e-05
3.42805e-05
4.44401e-05
3.68714e-05
4.28222e-05
3.95617e-05
4.10572e-05
4.2253e-05
3.92471e-05
4.51315e-05
3.72386e-05
4.83546e-05
3.52391e-05
5.23585e-05
3.3078e-05
5.68802e-05
3.00343e-05
2.61975e-05
6.14008e-05
2.27261e-06
5.55541e-05
4.46927e-06
5.38062e-05
6.56669e-06
5.32635e-05
8.58603e-06
5.28208e-05
1.05655e-05
5.23026e-05
1.25522e-05
5.17124e-05
1.45526e-05
5.1059e-05
1.65957e-05
5.03414e-05
1.86911e-05
4.95429e-05
2.0887e-05
4.86728e-05
2.31918e-05
4.76742e-05
2.55285e-05
4.64902e-05
2.79e-05
4.51885e-05
3.02495e-05
4.37316e-05
3.25135e-05
4.21815e-05
3.48996e-05
4.0437e-05
3.73847e-05
3.85753e-05
4.00432e-05
3.65913e-05
4.28928e-05
3.439e-05
4.60835e-05
3.20487e-05
4.96068e-05
2.95538e-05
5.31952e-05
2.64443e-05
2.25782e-05
5.68112e-05
2.1102e-06
5.3444e-05
4.16247e-06
5.17536e-05
6.1625e-06
5.12631e-05
8.12501e-06
5.0858e-05
1.0059e-05
5.03684e-05
1.19808e-05
4.97903e-05
1.39147e-05
4.91252e-05
1.58825e-05
4.83736e-05
1.78917e-05
4.75339e-05
1.99389e-05
4.66259e-05
2.20191e-05
4.55943e-05
2.40978e-05
4.44119e-05
2.62565e-05
4.30305e-05
2.84384e-05
4.15521e-05
3.07408e-05
3.98787e-05
3.31107e-05
3.80717e-05
3.55271e-05
3.61616e-05
3.80402e-05
3.40803e-05
4.0577e-05
3.18544e-05
4.32858e-05
2.93403e-05
4.62774e-05
2.65615e-05
4.94146e-05
2.33064e-05
1.95928e-05
5.23965e-05
1.9516e-06
5.14914e-05
3.85595e-06
4.98487e-05
5.73386e-06
4.93848e-05
7.59186e-06
4.89997e-05
9.43389e-06
4.85262e-05
1.12635e-05
4.79606e-05
1.31004e-05
4.72883e-05
1.49563e-05
4.65179e-05
1.6841e-05
4.56493e-05
1.87907e-05
4.46765e-05
2.07938e-05
4.35915e-05
2.28349e-05
4.23714e-05
2.48874e-05
4.09788e-05
2.69648e-05
3.94749e-05
2.90397e-05
3.78082e-05
3.11105e-05
3.60016e-05
3.32817e-05
3.39936e-05
3.55389e-05
3.18252e-05
3.7944e-05
2.94507e-05
4.04739e-05
2.68109e-05
4.30768e-05
2.39584e-05
4.56511e-05
2.07311e-05
1.70885e-05
4.81533e-05
1.83404e-06
4.96577e-05
3.63305e-06
4.80496e-05
5.40881e-06
4.76088e-05
7.16801e-06
4.72403e-05
8.91544e-06
4.67787e-05
1.06595e-05
4.62166e-05
1.24029e-05
4.55449e-05
1.41531e-05
4.47679e-05
1.59229e-05
4.38799e-05
1.7721e-05
4.28786e-05
1.95347e-05
4.17782e-05
2.13782e-05
4.05284e-05
2.32319e-05
3.91257e-05
2.51249e-05
3.75843e-05
2.70478e-05
3.58849e-05
2.90739e-05
3.39796e-05
3.11435e-05
3.19261e-05
3.32641e-05
2.97065e-05
3.53987e-05
2.73174e-05
3.75397e-05
2.46705e-05
3.9745e-05
2.17528e-05
4.19606e-05
1.85153e-05
1.49656e-05
4.40812e-05
1.69531e-06
4.79615e-05
3.36115e-06
4.63834e-05
5.01427e-06
4.59555e-05
6.65755e-06
4.55969e-05
8.29372e-06
4.51424e-05
9.93331e-06
4.4577e-05
1.15761e-05
4.39022e-05
1.32255e-05
4.31188e-05
1.48849e-05
4.22208e-05
1.65594e-05
4.12044e-05
1.82749e-05
4.00631e-05
2.00068e-05
3.8797e-05
2.17509e-05
3.73824e-05
2.35147e-05
3.58208e-05
2.53041e-05
3.40989e-05
2.7097e-05
3.21875e-05
2.89059e-05
3.01196e-05
3.07486e-05
2.78659e-05
3.26443e-05
2.54228e-05
3.45742e-05
2.27414e-05
3.64969e-05
1.98303e-05
3.83725e-05
1.66392e-05
1.31696e-05
4.01671e-05
1.58396e-06
4.6378e-05
3.13967e-06
4.48276e-05
4.68953e-06
4.44055e-05
6.22896e-06
4.40574e-05
7.76214e-06
4.36093e-05
9.29112e-06
4.30481e-05
1.08166e-05
4.23769e-05
1.23414e-05
4.15942e-05
1.38711e-05
4.06914e-05
1.54099e-05
3.9666e-05
1.69627e-05
3.85106e-05
1.85276e-05
3.72325e-05
2.01093e-05
3.58014e-05
2.17164e-05
3.42154e-05
2.33412e-05
3.24739e-05
2.49817e-05
3.055e-05
2.6647e-05
2.84562e-05
2.83073e-05
2.62073e-05
2.99711e-05
2.37602e-05
3.16226e-05
2.10907e-05
3.32617e-05
1.81914e-05
3.48591e-05
1.50418e-05
1.16535e-05
3.63738e-05
1.45605e-06
4.49212e-05
2.89745e-06
4.3386e-05
4.33576e-06
4.29671e-05
5.76521e-06
4.26279e-05
7.18774e-06
4.21868e-05
8.60276e-06
4.16332e-05
1.00121e-05
4.09678e-05
1.1421e-05
4.01856e-05
1.28289e-05
3.92838e-05
1.42406e-05
3.82546e-05
1.56546e-05
3.70971e-05
1.70831e-05
3.58046e-05
1.85203e-05
3.43648e-05
1.99655e-05
3.27705e-05
2.14191e-05
3.10231e-05
2.28769e-05
2.90928e-05
2.43335e-05
2.70018e-05
2.57927e-05
2.47497e-05
2.72492e-05
2.23049e-05
2.86882e-05
1.96524e-05
3.00899e-05
1.679e-05
3.14328e-05
1.36989e-05
1.03912e-05
3.26944e-05
1.34331e-06
4.35784e-05
2.67668e-06
4.20527e-05
4.0047e-06
4.16391e-05
5.32407e-06
4.13086e-05
6.63505e-06
4.08759e-05
7.93427e-06
4.03341e-05
9.22198e-06
3.96802e-05
1.05002e-05
3.89076e-05
1.17715e-05
3.80128e-05
1.3049e-05
3.69774e-05
1.43292e-05
3.58173e-05
1.56171e-05
3.45172e-05
1.69119e-05
3.30705e-05
1.82086e-05
3.14753e-05
1.95007e-05
2.97308e-05
2.07795e-05
2.78168e-05
2.20449e-05
2.57379e-05
2.33126e-05
2.34836e-05
2.45685e-05
2.10502e-05
2.5794e-05
1.84278e-05
2.69723e-05
1.56121e-05
2.80895e-05
1.25819e-05
9.35457e-06
2.91253e-05
1.23504e-06
4.23427e-05
2.46364e-06
4.08239e-05
3.68741e-06
4.04153e-05
4.89637e-06
4.00996e-05
6.09322e-06
3.96791e-05
7.27704e-06
3.91504e-05
8.44804e-06
3.85094e-05
9.60758e-06
3.77483e-05
1.07562e-05
3.68646e-05
1.18932e-05
3.58407e-05
1.30234e-05
3.46874e-05
1.41469e-05
3.3394e-05
1.52734e-05
3.19447e-05
1.6402e-05
3.0347e-05
1.75362e-05
2.85989e-05
1.86643e-05
2.66892e-05
1.97816e-05
2.46222e-05
2.08685e-05
2.23983e-05
2.19211e-05
1.99987e-05
2.29418e-05
1.74079e-05
2.39185e-05
1.4636e-05
2.48279e-05
1.16727e-05
8.523e-06
2.56592e-05
1.13061e-06
4.12126e-05
2.24614e-06
3.97085e-05
3.35768e-06
3.93038e-05
4.45439e-06
3.9003e-05
5.5415e-06
3.85921e-05
6.62058e-06
3.80715e-05
7.68896e-06
3.74413e-05
8.74123e-06
3.66963e-05
9.78035e-06
3.58257e-05
1.07927e-05
3.48287e-05
1.17853e-05
3.36952e-05
1.27629e-05
3.24169e-05
1.37276e-05
3.09805e-05
1.46805e-05
2.93952e-05
1.56247e-05
2.76547e-05
1.65579e-05
2.5758e-05
1.74817e-05
2.36999e-05
1.84048e-05
2.14766e-05
1.93065e-05
1.90982e-05
2.01512e-05
1.65641e-05
2.09336e-05
1.38541e-05
2.16506e-05
1.0956e-05
7.88146e-06
2.22919e-05
1.03754e-06
4.01745e-05
2.03704e-06
3.87089e-05
3.02654e-06
3.83143e-05
4.00637e-06
3.80232e-05
4.97915e-06
3.76194e-05
5.94505e-06
3.71058e-05
6.90869e-06
3.64778e-05
7.86125e-06
3.5744e-05
8.79758e-06
3.48897e-05
9.70983e-06
3.39168e-05
1.05984e-05
3.2807e-05
1.14622e-05
3.15534e-05
1.22908e-05
3.01525e-05
1.30859e-05
2.86004e-05
1.38523e-05
2.68902e-05
1.45927e-05
2.50181e-05
1.5313e-05
2.29812e-05
1.60137e-05
2.07773e-05
1.66949e-05
1.84181e-05
1.73694e-05
1.58905e-05
1.80044e-05
1.32197e-05
1.85553e-05
1.04055e-05
7.41645e-06
1.90203e-05
9.48617e-07
3.92265e-05
1.80816e-06
3.78495e-05
2.66188e-06
3.74607e-05
3.50681e-06
3.71784e-05
4.34498e-06
3.67813e-05
5.18031e-06
3.62706e-05
6.01568e-06
3.56427e-05
6.84893e-06
3.49109e-05
7.6718e-06
3.40671e-05
8.47799e-06
3.31109e-05
9.25468e-06
3.20306e-05
9.99242e-06
3.08161e-05
1.0702e-05
2.94434e-05
1.13945e-05
2.79089e-05
1.20561e-05
2.62285e-05
1.26883e-05
2.43877e-05
1.32758e-05
2.23949e-05
1.38023e-05
2.02522e-05
1.42819e-05
1.79396e-05
1.47191e-05
1.54542e-05
1.51249e-05
1.28146e-05
1.55108e-05
1.002e-05
7.09958e-06
1.58278e-05
8.46336e-07
3.83796e-05
1.52054e-06
3.71752e-05
2.17398e-06
3.68073e-05
2.84282e-06
3.65096e-05
3.52011e-06
3.61042e-05
4.1998e-06
3.5591e-05
4.88827e-06
3.49543e-05
5.59489e-06
3.42045e-05
6.31572e-06
3.33465e-05
7.04231e-06
3.23845e-05
7.76038e-06
3.13128e-05
8.45193e-06
3.01249e-05
9.09695e-06
2.87989e-05
9.69006e-06
2.7316e-05
1.02193e-05
2.57007e-05
1.06964e-05
2.39112e-05