/*--------------------------------*- C++ -*----------------------------------*\
| =========                 |                                                 |
| \\      /  F ield         | OpenFOAM: The Open Source CFD Toolbox           |
|  \\    /   O peration     | Version:  2.4.0                                 |
|   \\  /    A nd           | Web:      www.OpenFOAM.org                      |
|    \\/     M anipulation  |                                                 |
\*---------------------------------------------------------------------------*/
FoamFile
{
    version     2.0;
    format      ascii;
    class       surfaceScalarField;
    location    "0.85";
    object      phi.air;
}
// * * * * * * * * * * * * * * * * * * * * * * * * * * * * * * * * * * * * * //

dimensions      [0 3 -1 0 0 0 0];

internalField   nonuniform List<scalar> 
4432
(
1.37252e-07
-1.29979e-07
-6.28067e-08
2.03446e-07
-1.99186e-06
1.92917e-06
-5.98401e-06
3.99219e-06
-1.06493e-05
4.66537e-06
-1.61556e-05
5.50614e-06
-2.06243e-05
4.46846e-06
-2.26653e-05
2.04097e-06
-2.27715e-05
1.06229e-07
-2.19515e-05
-8.1986e-07
-2.09162e-05
-1.03521e-06
-1.9358e-05
-1.55807e-06
-1.70886e-05
-2.26926e-06
-1.45626e-05
-2.52587e-06
-1.25807e-05
-1.98184e-06
-1.136e-05
-1.22064e-06
-1.05527e-05
-8.07171e-07
-9.60528e-06
-9.47437e-07
-8.11026e-06
-1.49499e-06
-5.86875e-06
-2.2415e-06
-4.41239e-06
-1.45634e-06
-3.58632e-06
-8.26066e-07
-3.58628e-06
-1.08196e-07
2.02781e-08
-1.47078e-07
4.70866e-07
-1.10081e-06
3.22017e-06
-3.94988e-06
6.97981e-06
-8.28069e-06
9.00409e-06
-1.47061e-05
1.19317e-05
-2.01798e-05
9.94203e-06
-2.30232e-05
4.88438e-06
-2.3323e-05
4.06099e-07
-2.24563e-05
-1.68651e-06
-2.10174e-05
-2.47414e-06
-1.91151e-05
-3.46049e-06
-1.6738e-05
-4.64645e-06
-1.4363e-05
-4.90097e-06
-1.25289e-05
-3.81598e-06
-1.12224e-05
-2.52733e-06
-1.02437e-05
-1.7859e-06
-9.21756e-06
-1.97372e-06
-7.51873e-06
-3.19391e-06
-5.46403e-06
-4.29629e-06
-3.46842e-06
-3.45207e-06
-1.80991e-06
-2.48468e-06
-5.3964e-06
1.1277e-06
-1.77945e-05
7.05388e-07
-1.36452e-05
-1.73126e-06
-5.00021e-06
-6.7186e-06
4.5097e-06
-1.23117e-05
1.3308e-05
-1.73771e-05
1.72558e-05
-2.15555e-05
1.41475e-05
-2.35389e-05
6.86805e-06
-2.36658e-05
5.33078e-07
-2.25975e-05
-2.75465e-06
-2.07493e-05
-4.32213e-06
-1.85552e-05
-5.65439e-06
-1.63862e-05
-6.81531e-06
-1.43548e-05
-6.93225e-06
-1.27308e-05
-5.43998e-06
-1.13395e-05
-3.91851e-06
-9.98511e-06
-3.14027e-06
-8.73033e-06
-3.22846e-06
-7.17196e-06
-4.75226e-06
-5.57392e-06
-5.89432e-06
-3.27504e-06
-5.75094e-06
-1.10799e-06
-4.65175e-06
-6.50437e-06
-2.21765e-06
-3.54494e-06
-4.80977e-06
-2.39937e-06
-6.12069e-06
-8.88079e-06
-7.85749e-06
-8.26932e-06
-1.57913e-05
9.67752e-06
-2.26909e-05
2.034e-05
-2.45702e-05
1.64434e-05
-2.5218e-05
7.55542e-06
-2.44052e-05
-2.78781e-07
-2.24907e-05
-4.6691e-06
-2.02727e-05
-6.54021e-06
-1.82409e-05
-7.68622e-06
-1.62653e-05
-8.79108e-06
-1.42741e-05
-8.92344e-06
-1.23382e-05
-7.37584e-06
-1.04715e-05
-5.78527e-06
-8.95117e-06
-4.66077e-06
-7.93406e-06
-4.24565e-06
-7.38937e-06
-5.29699e-06
-6.88098e-06
-6.40275e-06
-4.76667e-06
-7.8653e-06
-1.81874e-06
-7.59967e-06
-8.31271e-06
-1.15203e-06
2.69778e-06
-2.01144e-06
5.40802e-06
-2.87298e-06
8.39086e-06
-8.08841e-06
1.45794e-05
-1.8833e-05
1.69404e-05
-2.7408e-05
1.99753e-05
-2.95e-05
1.72218e-05
-2.95495e-05
7.87537e-06
-2.8403e-05
-1.38953e-06
-2.60297e-05
-7.03975e-06
-2.29412e-05
-9.62317e-06
-1.99289e-05
-1.06277e-05
-1.74817e-05
-1.10537e-05
-1.53753e-05
-1.07581e-05
-1.28439e-05
-9.62606e-06
-1.02488e-05
-8.15452e-06
-8.36878e-06
-6.40812e-06
-7.61124e-06
-4.94675e-06
-7.52524e-06
-5.35261e-06
-7.27329e-06
-6.6277e-06
-5.84032e-06
-9.23591e-06
-2.87443e-06
-1.03934e-05
-1.07646e-05
-4.61688e-06
7.31413e-06
-1.00832e-05
1.08743e-05
-1.71978e-05
1.5505e-05
-2.55666e-05
2.27572e-05
-3.38668e-05
2.74217e-05
-3.72874e-05
1.98058e-05
-3.68117e-05
1.34714e-05
-3.43396e-05
5.32606e-06
-3.27666e-05
-2.76578e-06
-3.02915e-05
-9.26818e-06
-2.66527e-05
-1.28147e-05
-2.30437e-05
-1.39589e-05
-2.00283e-05
-1.49194e-05
-1.76556e-05
-1.53255e-05
-1.51304e-05
-1.46402e-05
-1.25938e-05
-1.24427e-05
-1.01286e-05
-9.52753e-06
-8.40341e-06
-6.51776e-06
-7.55898e-06
-5.79807e-06
-6.85284e-06
-6.90922e-06
-5.34166e-06
-1.04676e-05
-3.23825e-06
-1.35355e-05
-2.23968e-05
-1.3943e-06
8.70854e-06
-3.57546e-06
1.30556e-05
-7.83085e-06
1.97317e-05
-1.88351e-05
3.07362e-05
-3.49658e-05
4.12007e-05
-4.35171e-05
2.62421e-05
-4.56824e-05
9.74734e-06
-4.34209e-05
9.8529e-07
-3.88083e-05
-8.11877e-06
-3.40256e-05
-1.56548e-05
-2.90365e-05
-2.22507e-05
-2.30887e-05
-2.88298e-05
-1.80395e-05
-3.41877e-05
-1.58971e-05
-3.43857e-05
-1.54584e-05
-3.29853e-05
-1.50456e-05
-2.98619e-05
-1.33397e-05
-2.61675e-05
-1.02795e-05
-2.20155e-05
-7.69594e-06
-1.92798e-05
-6.01407e-06
-1.87151e-05
-6.20736e-06
-2.10789e-05
-8.36836e-06
-2.61405e-05
-4.35721e-05
-3.16683e-06
1.18934e-05
-6.15315e-06
1.6056e-05
-9.48971e-06
2.30738e-05
-1.35775e-05
3.40268e-05
-2.55988e-05
5.15691e-05
-3.61619e-05
3.78952e-05
-4.19877e-05
1.13013e-05
-4.26061e-05
-4.39588e-06
-4.01336e-05
-1.74138e-05
-3.60708e-05
-2.79064e-05
-2.93081e-05
-3.92459e-05
-1.98015e-05
-5.33262e-05
-1.25984e-05
-5.76809e-05
-1.04975e-05
-4.82671e-05
-1.23208e-05
-4.26761e-05
-1.58973e-05
-4.07964e-05
-1.7138e-05
-4.24337e-05
-1.36241e-05
-4.44222e-05
-9.30139e-06
-4.32508e-05
-7.42237e-06
-3.97167e-05
-9.83562e-06
-3.83851e-05
-1.65941e-05
-3.72208e-05
-5.14746e-05
5.08425e-06
-7.52871e-06
2.33729e-05
-2.5523e-05
2.99555e-05
-1.42457e-05
3.1846e-05
-1.11412e-05
3.31688e-05
-1.17321e-05
3.4596e-05
-5.14511e-06
3.66286e-05
3.68769e-05
3.80799e-05
9.21014e-05
3.95114e-05
0.000124591
4.18759e-05
0.000142271
4.43764e-05
0.000133618
4.63965e-05
0.000113454
4.49677e-05
0.000107366
4.20631e-05
7.91949e-05
3.36678e-05
2.2203e-05
1.90625e-05
1.52449e-05
4.15267e-06
3.18513e-05
-3.16164e-06
1.84175e-05
2.39956e-06
6.37857e-06
-1.90223e-05
2.88357e-05
-8.70106e-05
3.94716e-05
-7.91481e-05
4.36041e-05
-4.64606e-05
4.52301e-05
-2.66228e-05
4.37811e-05
-2.56333e-05
3.81535e-05
-4.18469e-05
3.40457e-05
-4.89996e-05
3.45721e-05
-4.99486e-05
3.63237e-05
-5.2131e-05
3.57074e-05
-4.74998e-05
3.89175e-05
-4.0754e-05
2.80567e-05
-1.34099e-05
2.81898e-05
3.95972e-05
2.8965e-05
4.40062e-05
1.86799e-05
3.20827e-05
7.37229e-06
3.33692e-05
-3.32647e-06
2.29484e-05
-3.85601e-06
2.48853e-05
7.42548e-05
2.73162e-05
-4.35337e-07
3.56784e-05
2.3787e-06
4.45944e-05
4.74612e-06
5.12606e-05
1.02143e-05
5.40122e-05
1.45864e-05
5.19174e-05
1.95882e-05
4.37343e-05
2.55797e-05
2.88299e-05
0.000108894
1.52365e-05
0.000133568
3.01508e-06
0.000117258
-1.18486e-05
3.90013e-05
-3.89005e-05
1.31876e-05
-3.08599e-05
2.36549e-05
-6.87668e-06
2.15179e-05
1.18325e-05
2.60947e-05
6.77791e-06
3.95538e-05
-3.96054e-07
3.02417e-05
-1.1956e-06
2.26009e-05
5.43214e-05
2.51939e-05
5.87183e-05
3.00927e-05
2.93618e-05
4.03519e-05
-2.18896e-05
4.50231e-05
-1.83435e-05
4.56772e-05
-9.25261e-06
4.04236e-05
1.43033e-06
2.18767e-05
6.63004e-06
1.24345e-05
8.05571e-06
8.86271e-06
1.9534e-05
3.90828e-06
3.79422e-05
-1.98278e-05
3.79335e-05
-3.9668e-05
1.21031e-05
-4.24533e-05
-1.81835e-06
-2.68698e-05
-1.22831e-05
1.20976e-06
-3.73219e-06
5.55337e-06
3.50863e-05
2.97701e-06
3.26053e-05
1.42541e-06
1.45005e-05
1.9792e-05
1.00568e-05
4.1798e-05
6.51391e-06
3.61548e-05
1.97331e-05
-1.18651e-05
2.70088e-05
-1.50665e-05
3.00941e-05
-2.18055e-06
2.8694e-05
1.297e-05
1.94643e-05
2.91989e-05
1.44995e-05
4.76432e-05
1.40003e-05
3.30953e-05
6.58786e-06
3.94822e-05
-1.80923e-05
5.69269e-05
-3.31217e-05
2.17463e-05
-3.47981e-05
-2.36333e-05
-3.00759e-05
-4.07472e-05
-1.11787e-05
-2.01539e-05
1.51171e-06
2.19542e-05
3.23897e-06
3.06186e-05
5.63452e-06
6.38554e-06
1.4565e-05
-3.98332e-06
4.24647e-05
-4.47968e-06
3.29695e-05
7.98334e-06
-2.15459e-05
1.75669e-05
-2.61083e-05
2.07526e-05
-1.22405e-05
1.66755e-05
6.19259e-06
1.14224e-05
2.04428e-05
6.78487e-06
2.69108e-05
5.34106e-06
7.47412e-05
3.78653e-06
0.000114569
-8.52363e-06
7.82446e-05
-2.175e-05
4.08102e-05
-2.79527e-05
-2.07755e-05
-2.78617e-05
-3.91891e-05
-1.67787e-05
-7.11682e-06
-9.62645e-08
4.75749e-06
4.36408e-06
2.59462e-05
1.0573e-05
-3.09627e-06
-1.48312e-05
-8.06212e-06
4.34465e-05
-7.60903e-06
3.05889e-05
7.81197e-07
6.93988e-06
8.20904e-06
8.13645e-06
1.61375e-05
-1.42663e-07
1.43057e-05
1.2827e-05
5.12176e-06
2.74641e-05
-1.48997e-05
4.51921e-05
-1.82846e-05
8.5108e-05
-1.57867e-05
0.000100502
-8.48271e-08
0.000157729
-1.15655e-05
7.58739e-05
-2.60543e-05
-9.97325e-06
-2.91604e-05
-3.82395e-05
-2.89032e-05
-2.59956e-05
-6.71293e-06
2.69918e-05
3.90583e-06
1.25762e-05
4.97608e-06
-4.74261e-06
-3.09217e-05
-6.0062e-06
3.08444e-05
-8.13265e-06
2.1229e-05
-6.82558e-06
2.43851e-05
-3.86789e-06
2.48371e-05
5.78434e-06
2.86008e-05
1.04042e-05
2.5868e-05
-2.17653e-06
3.41154e-05
-2.05441e-05
9.83848e-05
-2.0695e-05
8.89265e-05
-1.58878e-05
9.90088e-05
1.4543e-06
0.000137456
3.25822e-06
0.000180969
-2.0132e-05
1.47346e-05
-2.57016e-05
-5.20681e-05
-3.31149e-05
-7.51453e-05
-1.80033e-05
-8.17e-06
8.38313e-07
3.40291e-05
2.96011e-05
6.23704e-06
5.88554e-06
9.58292e-06
1.28647e-05
9.62196e-06
2.30841e-05
7.66147e-06
3.5386e-05
1.08823e-06
5.09056e-05
-2.95461e-06
4.86294e-05
-1.55485e-05
2.51184e-05
-2.50851e-05
5.09264e-06
-3.33106e-05
-1.10313e-05
-3.66186e-05
-3.06988e-05
-3.36966e-05
-4.83092e-05
-3.38342e-05
-5.42262e-05
-3.41617e-05
-3.96221e-05
-2.89014e-05
-2.92313e-05
-2.41447e-05
-1.87036e-05
-2.27493e-05
-1.02501e-05
-2.40872e-05
-8.33952e-06
-2.69056e-05
-1.04489e-05
-2.8385e-05
-1.17505e-05
-2.77646e-05
-9.93043e-06
-2.34668e-05
1.6163e-05
1.92073e-05
5.07692e-05
6.69079e-05
-4.05128e-06
4.30172e-06
1.58012e-06
7.57655e-06
9.64492e-06
7.66542e-06
2.31572e-05
1.01454e-05
3.29511e-05
1.86469e-05
4.27317e-05
3.08153e-05
4.59323e-05
3.42751e-05
3.81677e-05
3.17169e-05
2.40685e-05
3.24919e-05
5.54651e-06
3.18821e-05
-1.18357e-05
2.53747e-05
-2.3152e-05
2.13371e-05
-2.90522e-05
2.42372e-05
-2.81088e-05
2.78964e-05
-1.55069e-05
2.86441e-05
2.0417e-05
2.39813e-05
2.71966e-05
1.48683e-05
1.52599e-05
4.037e-06
2.86373e-06
-7.08767e-06
5.54768e-06
-1.12423e-05
1.22507e-05
3.02686e-05
1.28374e-05
4.98111e-05
-2.08441e-05
2.84861e-05
4.45626e-05
1.7442e-05
-1.53676e-05
2.54367e-05
2.50499e-06
2.43464e-05
2.49187e-05
2.22971e-05
3.55819e-05
2.33251e-05
4.19405e-05
2.9391e-05
4.0339e-05
3.63272e-05
3.41775e-05
4.15392e-05
2.28733e-05
4.34598e-05
7.97765e-06
4.01596e-05
-4.37069e-06
3.4399e-05
-1.26998e-05
2.92088e-05
-7.62124e-06
3.16743e-05
3.69027e-05
3.80394e-05
6.12045e-05
3.3251e-05
9.50381e-05
1.31108e-05
0.000135363
7.095e-06
0.000146226
4.64771e-06
0.000107873
-2.18271e-05
2.4532e-05
-4.82393e-05
5.93279e-05
-4.96273e-05
5.23867e-05
2.08037e-05
5.24308e-05
3.58062e-06
1.81745e-05
1.98922e-05
-3.72968e-05
2.26863e-05
-3.15705e-06
1.6667e-05
2.88337e-05
1.48563e-05
3.6917e-05
1.60668e-05
4.09323e-05
1.83002e-05
3.84098e-05
2.31312e-05
2.98972e-05
2.82762e-05
1.8051e-05
3.0361e-05
3.10005e-05
3.10242e-05
7.7409e-05
1.78064e-05
0.000128211
5.71979e-06
5.04114e-05
6.36231e-05
-3.47935e-05
3.79042e-05
2.61397e-05
-1.00937e-06
6.33065e-05
-4.10902e-05
8.24772e-05
-8.75908e-05
9.19308e-05
-0.000121719
0.00011423
-0.000144689
0.000122367
-0.000181314
0.000158115
-0.000102538
0.000143155
-0.000122505
8.1103e-05
-4.31822e-05
-9.54973e-05
1.95284e-07
-2.75371e-05
-6.22973e-06
4.82133e-06
-1.12321e-05
3.32338e-05
-1.17317e-05
3.61113e-05
-8.1766e-06
3.65106e-05
-5.34517e-06
3.49376e-05
-1.59421e-06
2.67186e-05
1.39288e-05
8.7598e-05
5.45716e-05
9.75862e-05
5.14927e-05
7.63182e-05
-5.77209e-05
0.000100026
-0.000203529
0.000257246
-8.90444e-05
0.000168328
-0.000142934
6.28716e-05
-0.000180754
2.67067e-05
-0.000217383
4.74066e-05
-0.000238547
8.06413e-05
-0.000269182
0.000113152
-0.000275887
0.000162475
-0.000271674
0.000223486
-0.000296319
0.000199451
-0.000339578
7.12911e-05
-4.54309e-05
-0.000387428
-1.83325e-05
3.10442e-05
-3.61199e-05
7.93115e-05
-3.54311e-05
0.000121815
-3.30322e-05
0.000138454
-2.71069e-05
0.000141093
-1.82949e-05
0.000135858
7.39867e-06
0.000130304
-9.37094e-06
0.000108201
-3.07161e-05
5.60738e-05
-6.03054e-05
2.55434e-05
-0.000175402
0.0001322
-0.000266818
0.000188846
-0.000258758
0.000106165
-0.000245633
8.30149e-05
-0.000249039
4.78877e-05
-0.000264653
5.60875e-05
-0.000244987
9.79694e-05
-0.000221902
0.000126949
-0.000222716
0.000137462
-0.000272048
0.000175478
-0.000344262
0.000148736
-0.000396333
4.63517e-05
-8.849e-05
-0.000392632
8.76028e-06
0.000102871
-3.8291e-05
0.000117043
-5.71789e-05
9.66466e-05
-5.33428e-05
7.73401e-05
-4.45377e-05
6.58167e-05
-3.74764e-05
5.72523e-05
-3.14611e-05
4.42431e-05
-5.17485e-05
5.00149e-05
-0.00014906
0.000100941
-0.000217403
7.33945e-05
-0.000219158
0.000127995
-0.000272068
0.000215775
-0.000263568
4.45364e-05
-0.00025136
-3.15804e-05
-0.000281626
2.51569e-05
-0.000238025
5.34913e-05
-0.000210843
8.37373e-05
-0.000201715
8.66556e-05
-0.000253016
0.000141614
-0.000281922
0.000146316
-0.000337094
0.000173735
-0.000350106
3.16209e-05
-0.000128116
-0.000345208
-2.36847e-05
8.98803e-05
-5.3178e-05
7.90914e-05
-5.66555e-05
4.89739e-05
-6.11013e-05
3.77955e-05
-7.74671e-05
4.05531e-05
-0.000107145
4.97645e-05
-0.000145266
5.52303e-05
-0.000175146
6.68763e-05
-0.000161449
8.58105e-05
-0.000172685
8.4618e-05
-0.000180433
0.000135712
-0.000165384
0.000199983
-0.000220278
9.74947e-05
-0.000236078
-2.48934e-05
-0.000279067
-1.16054e-05
-0.000207669
7.58897e-05
-0.000183696
6.41545e-05
-0.000192344
6.60419e-05
-0.000227397
0.000139707
-0.000246407
0.000154077
-0.000228551
0.000154976
-0.000200176
5.44918e-07
-5.54725e-05
-0.000282951
-6.59397e-05
0.000120785
-9.91851e-05
9.75399e-05
-0.000100228
4.44597e-05
-9.22163e-05
2.62319e-05
-7.92573e-05
2.51403e-05
-6.98545e-05
3.8838e-05
-7.84868e-05
6.33101e-05
-0.000106516
9.47463e-05
-0.000129223
0.00010851
-0.000137628
9.30232e-05
-0.000124051
0.000122135
-8.89481e-05
0.000164879
-0.000125334
0.000135299
-0.00019909
5.71805e-05
-0.00022433
1.36323e-06
-0.0002141
5.68579e-06
-0.000176453
6.09404e-05
-0.000178021
7.24023e-05
-0.00019854
0.000149936
-0.000228118
0.000176741
-0.000240622
0.000167476
-0.000263562
2.34786e-05
-3.0103e-05
-0.00028894
-5.03986e-05
0.000167222
-5.87924e-05
0.000105558
-6.02627e-05
4.58959e-05
-5.88186e-05
2.47746e-05
-5.82762e-05
2.45914e-05
-6.0389e-05
4.0948e-05
-6.97825e-05
7.27031e-05
-8.09484e-05
0.000105912
-9.06165e-05
0.000118178
-0.000103262
0.000105669
-8.73744e-05
0.000106248
-4.50278e-05
0.000122532
-3.47668e-05
0.000125062
-9.56044e-05
0.000120673
-0.000170449
8.17424e-05
-0.000208749
3.52772e-05
-0.000197559
2.65628e-05
-0.000189656
6.63425e-05
-0.000172428
0.00013316
-0.000193828
0.000194255
-0.000222453
0.000196098
-0.000279075
8.01e-05
-8.88564e-06
-0.000300292
-1.88771e-05
0.000186065
-2.6094e-05
0.000112774
-3.43322e-05
5.4134e-05
-3.46645e-05
2.5107e-05
-3.17593e-05
2.16862e-05
-3.17947e-05
4.09834e-05
-3.20753e-05
7.29837e-05
-3.90479e-05
0.000112885
-4.26563e-05
0.000121787
-4.8811e-05
0.000111823
-3.98371e-05
9.72737e-05
-1.57778e-05
9.8473e-05
-4.23013e-07
0.000109708
4.80508e-06
0.000115635
-3.08904e-05
0.000117991
-9.94939e-05
0.000102179
-0.000149886
7.34288e-05
-0.000162733
7.25379e-05
-0.000132654
0.000102317
-0.000111083
0.000171795
-0.000129711
0.000214717
-0.000191004
0.000141392
3.20425e-05
-0.000231932
1.02908e-05
0.000175774
4.74845e-06
0.000118317
-5.54078e-06
6.44233e-05
-1.61303e-05
3.56965e-05
-2.3495e-05
2.90509e-05
-2.40823e-05
4.15707e-05
-1.30908e-05
6.19923e-05
-7.12746e-06
0.000106921
-8.05684e-06
0.000122716
-1.09e-05
0.000114666
-5.35134e-06
9.1725e-05
7.79956e-06
8.53221e-05
2.17057e-05
9.58019e-05
3.77358e-05
9.9606e-05
5.02985e-05
0.000105361
4.17444e-05
0.000110044
6.44747e-06
0.000107701
-3.40309e-05
0.000112136
-5.40368e-05
0.000122118
-3.71127e-05
0.000154741
-3.31847e-05
0.000210762
-9.09309e-05
0.000199138
0.00011139
-0.000170279
1.91561e-05
0.000156618
1.85421e-05
0.000118931
1.18436e-05
7.11218e-05
3.66304e-06
4.38771e-05
-4.99401e-06
3.77079e-05
-1.00987e-05
4.66754e-05
-5.22231e-06
5.71159e-05
6.18752e-06
9.55113e-05
1.2018e-05
0.000116886
1.5756e-05
0.000110928
1.9321e-05
8.816e-05
2.55951e-05
7.9048e-05
3.49071e-05
8.649e-05
4.64195e-05
8.80936e-05
5.97214e-05
9.20576e-05
7.07971e-05
9.89577e-05
7.1133e-05
0.000107336
6.15828e-05
0.000121653
4.72502e-05
0.000136459
4.18479e-05
0.000160138
4.53528e-05
0.000207236
1.59673e-05
0.000228523
0.000180304
-5.29469e-05
1.7858e-05
0.00013876
2.25696e-05
0.000114219
1.82453e-05
7.54461e-05
1.09181e-05
5.12043e-05
4.12587e-06
4.45002e-05
-7.65764e-07
5.1567e-05
-5.04064e-08
5.64005e-05
1.09496e-05
8.45113e-05
2.26789e-05
0.000105156
3.14467e-05
0.00010216
3.38395e-05
8.57673e-05
3.54299e-05
7.74575e-05
4.04979e-05
8.14219e-05
4.71941e-05
8.13974e-05
5.61989e-05
8.30528e-05
6.87362e-05
8.64204e-05
8.13022e-05
9.47704e-05
9.18212e-05
0.000111134
9.85161e-05
0.000129763
0.000109238
0.000149415
0.000130838
0.000185635
0.000140492
0.000218867
0.000192371
0.000128425
1.36606e-05
0.000125099
2.23627e-05
0.000105517
2.24372e-05
7.53716e-05
1.68469e-05
5.67946e-05
9.98211e-06
5.1365e-05
4.79574e-06
5.67533e-05
2.25118e-06
5.89451e-05
1.06881e-05
7.60744e-05
2.5076e-05
9.07684e-05
3.5031e-05
9.22055e-05
3.66634e-05
8.41348e-05
3.62098e-05
7.79112e-05
3.90264e-05
7.86052e-05
4.39109e-05
7.6513e-05
5.12284e-05
7.57352e-05
6.13194e-05
7.63294e-05
7.55349e-05
8.05548e-05
9.40035e-05
9.26652e-05
0.000112052
0.000111714
0.000137204
0.000124263
0.000178808
0.000144031
0.000203283
0.000194392
0.000184235
0.000211418
1.34811e-05
0.000111618
2.26474e-05
9.63506e-05
2.41174e-05
7.39016e-05
1.99569e-05
6.0955e-05
1.37933e-05
5.75286e-05
9.59367e-06
6.0953e-05
5.95654e-06
6.25822e-05
1.0713e-05
7.1318e-05
2.23133e-05
7.91681e-05
3.15688e-05
8.29499e-05
3.44002e-05
8.13035e-05
3.41674e-05
7.8144e-05
3.61547e-05
7.66179e-05
3.97722e-05
7.28955e-05
4.53168e-05
7.01906e-05
5.30757e-05
6.85705e-05
6.39235e-05
6.97071e-05
8.15452e-05
7.50435e-05
0.000104075
8.91845e-05
0.000133014
9.53239e-05
0.000172577
0.000104468
0.000206894
0.000160076
0.000170419
0.00022071
1.33829e-05
9.82353e-05
2.16032e-05
8.81303e-05
2.28446e-05
7.26603e-05
1.94408e-05
6.43588e-05
1.50953e-05
6.18741e-05
1.25403e-05
6.35079e-05
1.05772e-05
6.45454e-05
1.30149e-05
6.88803e-05
1.97672e-05
7.24158e-05
2.67794e-05
7.59377e-05
3.07016e-05
7.73813e-05
3.24497e-05
7.63959e-05
3.47858e-05
7.42818e-05
3.75376e-05
7.01437e-05
4.12157e-05
6.65125e-05
4.62439e-05
6.35423e-05
5.34929e-05
6.24581e-05
6.48173e-05
6.37192e-05
8.30356e-05
7.09662e-05
0.000105912
7.24474e-05
0.000136965
7.34143e-05
0.000177741
0.0001193
0.000147579
0.000200581
1.09844e-05
8.72509e-05
1.79644e-05
8.11504e-05
1.92576e-05
7.13671e-05
1.73034e-05
6.6313e-05
1.51641e-05
6.40133e-05
1.43969e-05
6.42751e-05
1.41851e-05
6.47572e-05
1.61117e-05
6.69537e-05
1.98916e-05
6.86359e-05
2.46185e-05
7.12108e-05
2.89472e-05
7.30527e-05
3.26044e-05
7.27387e-05
3.62525e-05
7.06338e-05
3.91707e-05
6.72254e-05
4.1928e-05
6.37552e-05
4.51591e-05
6.03113e-05
4.94764e-05
5.81408e-05
5.57045e-05
5.74912e-05
6.60417e-05
6.0629e-05
7.84665e-05
6.00226e-05
9.21359e-05
5.97448e-05
0.000121198
9.02382e-05
0.000119913
0.000148864
7.81873e-06
7.94322e-05
1.33168e-05
7.56523e-05
1.52066e-05
6.94773e-05
1.53e-05
6.62196e-05
1.49878e-05
6.43255e-05
1.53657e-05
6.38972e-05
1.61951e-05
6.39278e-05
1.81695e-05
6.49792e-05
2.09894e-05
6.58159e-05
2.47616e-05
6.74386e-05
2.91877e-05
6.86266e-05
3.37131e-05
6.82133e-05
3.7937e-05
6.64098e-05
4.12864e-05
6.38761e-05
4.41787e-05
6.08629e-05
4.6674e-05
5.78159e-05
4.91107e-05
5.5704e-05
5.21585e-05
5.44434e-05
5.71834e-05
5.56041e-05
6.26099e-05
5.45961e-05
6.68037e-05
5.5551e-05
8.35501e-05
7.34918e-05
9.28034e-05
0.000110659
5.58118e-06
7.3851e-05
1.02088e-05
7.10247e-05
1.25374e-05
6.71487e-05
1.37298e-05
6.50273e-05
1.45108e-05
6.35444e-05
1.54979e-05
6.29102e-05
1.68209e-05
6.26048e-05
1.88253e-05
6.29749e-05
2.13998e-05
6.32415e-05
2.48989e-05
6.39394e-05
2.9189e-05
6.43365e-05
3.36036e-05
6.37986e-05
3.77551e-05
6.22584e-05
4.13009e-05
6.03303e-05
4.42212e-05
5.79426e-05
4.62847e-05
5.57524e-05
4.81412e-05
5.38475e-05
5.04114e-05
5.21731e-05
5.3851e-05
5.21645e-05
5.689e-05
5.15572e-05
5.92785e-05
5.31625e-05
7.00762e-05
6.26941e-05
7.05247e-05
9.2355e-05
4.31432e-06
6.95367e-05
8.1792e-06
6.71598e-05
1.05871e-05
6.47407e-05
1.23172e-05
6.32972e-05
1.37647e-05
6.20969e-05
1.5201e-05
6.14739e-05
1.67682e-05
6.10375e-05
1.87695e-05
6.09735e-05
2.11589e-05
6.08521e-05
2.4248e-05
6.08503e-05
2.79646e-05
6.06199e-05
3.18414e-05
5.99218e-05
3.553e-05
5.85697e-05
3.89122e-05
5.69481e-05
4.18504e-05
5.50043e-05
4.42291e-05
5.33737e-05
4.63021e-05
5.17745e-05
4.85302e-05
4.9945e-05
5.15715e-05
4.91231e-05
5.44615e-05
4.86672e-05
5.76562e-05
4.99678e-05
6.65533e-05
5.3797e-05
5.49527e-05
8.21253e-05
3.51676e-06
6.60199e-05
6.81511e-06
6.38614e-05
9.26334e-06
6.22925e-05
1.13054e-05
6.12552e-05
1.30708e-05
6.03314e-05
1.48133e-05
5.97314e-05
1.66475e-05
5.92033e-05
1.8723e-05
5.88981e-05
2.10354e-05
5.85397e-05
2.37139e-05
5.81718e-05
2.68198e-05
5.7514e-05
3.01293e-05
5.66123e-05
3.32436e-05
5.54555e-05
3.62186e-05
5.39731e-05
3.89138e-05
5.23091e-05
4.16297e-05
5.06577e-05
4.43682e-05
4.9036e-05
4.69853e-05
4.73279e-05
4.99534e-05
4.61551e-05
5.32067e-05
4.54139e-05
5.73942e-05
4.57804e-05
6.49041e-05
4.62871e-05
4.43375e-05
7.55193e-05
3.05681e-06
6.29631e-05
5.96527e-06
6.0953e-05
8.38207e-06
5.98757e-05
1.05406e-05
5.90966e-05
1.25006e-05
5.83715e-05
1.44633e-05
5.77686e-05
1.64934e-05
5.71733e-05
1.86794e-05
5.67121e-05
2.10249e-05
5.61942e-05
2.35678e-05
5.56288e-05
2.62992e-05
5.47827e-05
2.91577e-05
5.37537e-05
3.2006e-05
5.26073e-05
3.47636e-05
5.12154e-05
3.74451e-05
4.96277e-05
4.01501e-05
4.79527e-05
4.28296e-05
4.63565e-05
4.54477e-05
4.47098e-05
4.84211e-05
4.31816e-05
5.19347e-05
4.19003e-05
5.64272e-05
4.12879e-05
6.27736e-05
3.99407e-05
3.66312e-05
7.04799e-05
2.68472e-06
6.02784e-05
5.27479e-06
5.83629e-05
7.59295e-06
5.75576e-05
9.75238e-06
5.69372e-05
1.18033e-05
5.63206e-05
1.38437e-05
5.57281e-05
1.59125e-05
5.51045e-05
1.81131e-05
5.45115e-05
2.04577e-05
5.38495e-05
2.29052e-05
5.31814e-05
2.53664e-05
5.23215e-05
2.79088e-05
5.12113e-05
3.05633e-05
4.99527e-05
3.32246e-05
4.85542e-05
3.5868e-05
4.69842e-05
3.84469e-05
4.53739e-05
4.10946e-05
4.37088e-05
4.39054e-05
4.18989e-05
4.70085e-05
4.00786e-05
5.04834e-05
3.84255e-05
5.47231e-05
3.70481e-05
6.01391e-05
3.45247e-05
3.06935e-05
6.60768e-05
2.46304e-06
5.78153e-05
4.83495e-06
5.5991e-05
7.04382e-06
5.53487e-05
9.15357e-06
5.48275e-05
1.12055e-05
5.42687e-05
1.32489e-05
5.36847e-05
1.53092e-05
5.30442e-05
1.74528e-05
5.23679e-05
1.96821e-05
5.16202e-05
2.20143e-05
5.08492e-05
2.43783e-05
4.99575e-05
2.67862e-05
4.88034e-05
2.92048e-05
4.7534e-05
3.17053e-05
4.60537e-05
3.42776e-05
4.4412e-05
3.68608e-05
4.27906e-05
3.95444e-05
4.10251e-05
4.22287e-05
3.92146e-05
4.51009e-05
3.72063e-05
4.83184e-05
3.52079e-05
5.23179e-05
3.30486e-05
5.68353e-05
3.00074e-05
2.61739e-05
6.13549e-05
2.27378e-06
5.55415e-05
4.47144e-06
5.37933e-05
6.56982e-06
5.32503e-05
8.59006e-06
5.28072e-05
1.05703e-05
5.22884e-05
1.25576e-05
5.16975e-05
1.45584e-05
5.10433e-05
1.66018e-05
5.03246e-05
1.8697e-05
4.9525e-05
2.08926e-05
4.86536e-05
2.31967e-05
4.76534e-05
2.55322e-05
4.64679e-05
2.79016e-05
4.51646e-05
3.02489e-05
4.37064e-05
3.25072e-05
4.21537e-05
3.48884e-05
4.04094e-05
3.73669e-05
3.85466e-05
4.00191e-05
3.65625e-05
4.28634e-05
3.4362e-05
4.60492e-05
3.20221e-05
4.95687e-05
2.95292e-05
5.31538e-05
2.64223e-05
2.2559e-05
5.67687e-05
2.11105e-06
5.34305e-05
4.16429e-06
5.17401e-05
6.16521e-06
5.12494e-05
8.12848e-06
5.08439e-05
1.00631e-05
5.03538e-05
1.19854e-05
4.97751e-05
1.39195e-05
4.91092e-05
1.58874e-05
4.83567e-05
1.78963e-05
4.7516e-05
1.9943e-05
4.66069e-05
2.20224e-05
4.55741e-05
2.40999e-05
4.43904e-05
2.62567e-05
4.30077e-05
2.84353e-05
4.15279e-05
3.07346e-05
3.98543e-05
3.30985e-05
3.80455e-05
3.55092e-05
3.61358e-05
3.80169e-05
3.40549e-05
4.05489e-05
3.183e-05
4.32535e-05
2.93175e-05
4.6242e-05
2.65407e-05
4.93762e-05
2.32882e-05
1.95776e-05
5.23577e-05
1.95251e-06
5.1478e-05
3.85759e-06
4.9835e-05
5.7362e-06
4.93708e-05
7.59483e-06
4.89853e-05
9.43735e-06
4.85113e-05
1.12673e-05
4.79452e-05
1.31043e-05
4.72722e-05
1.49601e-05
4.6501e-05
1.68445e-05
4.56316e-05
1.87936e-05
4.46578e-05
2.07959e-05
4.35718e-05
2.28356e-05
4.23507e-05
2.48863e-05
4.09571e-05
2.69615e-05
3.94526e-05
2.90315e-05
3.77843e-05
3.10986e-05
3.59785e-05
3.32643e-05
3.397e-05
3.55167e-05
3.18024e-05
3.79174e-05
2.94292e-05
4.04438e-05
2.67911e-05
4.30438e-05
2.39408e-05
4.56159e-05
2.07161e-05
1.70762e-05
4.81173e-05
1.83465e-06
4.96433e-05
3.6344e-06
4.80353e-05
5.41079e-06
4.75944e-05
7.17051e-06
4.72256e-05
8.91832e-06
4.67635e-05
1.06626e-05
4.62009e-05
1.24061e-05
4.55287e-05
1.41561e-05
4.4751e-05
1.59254e-05
4.38622e-05
1.77229e-05
4.28602e-05
1.95358e-05
4.1759e-05
2.1378e-05
4.05084e-05
2.32301e-05
3.9105e-05
2.512e-05
3.75628e-05
2.70405e-05
3.58637e-05
2.90616e-05
3.39574e-05
3.11268e-05
3.19048e-05
3.32431e-05
2.96861e-05
3.5374e-05
2.72984e-05
3.75117e-05
2.46533e-05
3.97147e-05
2.17378e-05
4.19281e-05
1.85027e-05
1.49558e-05
4.40485e-05
1.696e-06
4.79473e-05
3.36235e-06
4.63689e-05
5.01596e-06
4.59408e-05
6.65964e-06
4.55819e-05
8.29609e-06
4.51271e-05
9.93581e-06
4.45612e-05
1.15786e-05
4.38859e-05
1.32277e-05
4.31019e-05
1.48866e-05
4.22033e-05
1.65605e-05
4.11863e-05
1.82751e-05
4.00444e-05
2.00058e-05
3.87777e-05
2.17482e-05
3.73626e-05
2.35102e-05
3.58008e-05
2.52958e-05
3.40781e-05
2.70855e-05
3.21676e-05
2.88902e-05
3.01001e-05
3.07289e-05
2.78474e-05
3.26215e-05
2.54059e-05
3.45485e-05
2.27263e-05
3.6469e-05
1.98174e-05
3.83429e-05
1.66288e-05
1.31617e-05
4.0137e-05
1.58438e-06
4.63629e-05
3.14062e-06
4.48127e-05
4.69091e-06
4.43905e-05
6.23068e-06
4.40421e-05
7.76407e-06
4.35937e-05
9.29311e-06
4.30322e-05
1.08185e-05
4.23605e-05
1.2343e-05
4.15773e-05
1.38722e-05
4.06741e-05
1.54104e-05
3.96482e-05
1.69624e-05
3.84924e-05
1.85262e-05
3.72139e-05
2.01064e-05
3.57824e-05
2.17111e-05
3.41961e-05
2.33339e-05
3.24553e-05
2.49705e-05
3.0531e-05
2.66323e-05
2.84383e-05
2.82892e-05
2.61905e-05
2.99501e-05
2.37449e-05
3.15991e-05
2.10773e-05
3.32363e-05
1.81802e-05
3.48321e-05
1.50329e-05
1.16473e-05
3.63466e-05
1.45655e-06
4.49064e-05
2.8983e-06
4.33709e-05
4.33693e-06
4.29518e-05
5.76662e-06
4.26124e-05
7.18929e-06
4.2171e-05
8.60432e-06
4.16171e-05
1.00135e-05
4.09513e-05
1.14221e-05
4.01688e-05
1.28296e-05
3.92666e-05
1.42407e-05
3.82371e-05
1.56538e-05
3.70793e-05
1.70813e-05
3.57865e-05
1.85171e-05
3.43466e-05
1.99608e-05
3.27524e-05
2.14114e-05
3.10047e-05
2.28667e-05
2.90756e-05
2.432e-05
2.69851e-05
2.57762e-05
2.47343e-05
2.723e-05
2.2291e-05
2.86669e-05
1.96404e-05
3.00669e-05
1.67802e-05
3.14085e-05
1.36914e-05
1.03861e-05
3.26697e-05
1.34358e-06
4.35628e-05
2.67732e-06
4.20372e-05
4.00563e-06
4.16235e-05
5.32521e-06
4.12929e-05
6.63628e-06
4.08599e-05
7.93549e-06
4.03179e-05
9.22304e-06
3.96638e-05
1.0501e-05
3.88908e-05
1.17718e-05
3.79958e-05
1.30488e-05
3.69601e-05
1.43282e-05
3.57998e-05
1.56152e-05
3.44996e-05
1.69088e-05
3.30529e-05
1.82035e-05
3.14577e-05
1.94942e-05
2.9714e-05
2.07698e-05
2.77999e-05
2.20327e-05
2.57222e-05
2.32977e-05
2.34693e-05
2.45513e-05
2.10374e-05
2.57748e-05
1.84169e-05
2.69517e-05
1.56033e-05
2.80677e-05
1.25754e-05
9.35051e-06
2.91033e-05
1.23541e-06
4.23274e-05
2.46423e-06
4.08084e-05
3.68818e-06
4.03996e-05
4.89729e-06
4.00837e-05
6.09419e-06
3.9663e-05
7.27797e-06
3.91342e-05
8.4488e-06
3.84929e-05
9.60806e-06
3.77316e-05
1.07562e-05
3.68476e-05
1.18927e-05
3.58236e-05
1.30223e-05
3.46702e-05
1.4145e-05
3.33768e-05
1.52703e-05
3.19276e-05
1.63978e-05
3.03302e-05
1.75297e-05
2.85821e-05
1.86559e-05
2.66736e-05
1.97707e-05
2.46075e-05
2.08552e-05
2.23848e-05
2.19057e-05
1.99869e-05
2.29248e-05
1.73979e-05
2.39002e-05
1.4628e-05
2.48086e-05
1.16669e-05
8.51959e-06
2.56396e-05
1.13077e-06
4.11966e-05
2.24655e-06
3.96926e-05
3.35828e-06
3.92878e-05
4.45511e-06
3.89869e-05
5.54226e-06
3.85759e-05
6.62128e-06
3.80552e-05
7.6895e-06
3.74247e-05
8.74152e-06
3.66796e-05
9.78027e-06
3.58089e-05
1.07921e-05
3.48118e-05
1.17842e-05
3.36782e-05
1.2761e-05
3.24e-05
1.37248e-05
3.09638e-05
1.46763e-05
2.93787e-05
1.56193e-05
2.76391e-05
1.65503e-05
2.57426e-05
1.7472e-05
2.36858e-05
1.83931e-05
2.14638e-05
1.9293e-05
1.9087e-05
2.01362e-05
1.65546e-05
2.09175e-05
1.38467e-05
2.16337e-05
1.09508e-05
7.87853e-06
2.22748e-05
1.0378e-06
4.01588e-05
2.03743e-06
3.8693e-05
3.02703e-06
3.82982e-05
4.00694e-06
3.8007e-05
4.97974e-06
3.76031e-05
5.94557e-06
3.70893e-05
6.90907e-06
3.64612e-05
7.8614e-06
3.57272e-05
8.79741e-06
3.48729e-05
9.70925e-06
3.38999e-05
1.05973e-05
3.27901e-05
1.14605e-05
3.15368e-05
1.22882e-05
3.01361e-05
1.30825e-05
2.85844e-05
1.38472e-05
2.68744e-05
1.45863e-05
2.50035e-05
1.53047e-05
2.29675e-05
1.60035e-05
2.07649e-05
1.66833e-05
1.84072e-05
1.73565e-05
1.58814e-05
1.79905e-05
1.32126e-05
1.85407e-05
1.04005e-05
7.41377e-06
1.90055e-05
9.48686e-07
3.92101e-05
1.80841e-06
3.78332e-05
2.66225e-06
3.74444e-05
3.50724e-06
3.7162e-05
4.34542e-06
3.67649e-05
5.1807e-06
3.6254e-05
6.01594e-06
3.5626e-05
6.84899e-06
3.48942e-05
7.6716e-06
3.40503e-05
8.47744e-06
3.30941e-05
9.25372e-06
3.20139e-05
9.99095e-06
3.07995e-05
1.06999e-05
2.94271e-05
1.13914e-05
2.78929e-05
1.20523e-05
2.62134e-05
1.26828e-05
2.43731e-05
1.32688e-05
2.23815e-05
1.37937e-05
2.024e-05
1.42721e-05
1.79289e-05
1.47082e-05
1.54453e-05
1.51131e-05
1.28077e-05
1.54985e-05
1.00151e-05
7.09697e-06
1.58153e-05
8.46523e-07
3.83636e-05
1.52078e-06
3.7159e-05
2.17427e-06
3.67909e-05
2.84315e-06
3.64931e-05
3.52043e-06
3.60876e-05
4.20008e-06
3.55744e-05
4.88845e-06
3.49376e-05
5.5949e-06
3.41877e-05
6.31552e-06
3.33297e-05
7.04184e-06
3.23678e-05
7.75958e-06
3.12961e-05
8.45073e-06
3.01084e-05
9.0952e-06
2.87826e-05
9.68785e-06
2.73003e-05
1.02159e-05
2.56853e-05
1.06921e-05
2.38969e-05
1.11356e-05
2.1938e-05
1.15537e-05
1.98219e-05