/*--------------------------------*- C++ -*----------------------------------*\
| =========                 |                                                 |
| \\      /  F ield         | OpenFOAM: The Open Source CFD Toolbox           |
|  \\    /   O peration     | Version:  2.4.0                                 |
|   \\  /    A nd           | Web:      www.OpenFOAM.org                      |
|    \\/     M anipulation  |                                                 |
\*---------------------------------------------------------------------------*/
FoamFile
{
    version     2.0;
    format      ascii;
    class       volScalarField;
    location    "0.85";
    object      rho;
}
// * * * * * * * * * * * * * * * * * * * * * * * * * * * * * * * * * * * * * //

dimensions      [1 -3 0 0 0 0 0];

internalField   nonuniform List<scalar> 
2268
(
13529
13529
13529
13529
13529
13529
13529
13529
13529
13529
13529
13529
13529
13529
13529
13529
13529
13529
13529
13529
13529
13528.9
13528.9
13523.2
13525.2
13528.4
13528.8
13528.9
13529
13529
13529
13529
13529
13529
13529
13529
13529
13529
13529
13529
13529
13529
13529
13529
13528.9
13528.9
10790
11317.1
12259.5
13333.5
13520.9
13528.6
13529
13529
13529
13529
13529
13529
13529
13529
13529
13529
13529
13529
13529
13529
13529
13529
13528.8
1058.34
1097.45
1570.87
4027.14
8767.41
12900
13504.3
13527.2
13528.7
13528.9
13529
13529
13529
13529
13529
13529
13529
13529
13529
13529
13529
13528.9
13528.8
1000.06
1000.08
1000.89
1045.78
2175.09
8634.81
13076.3
13502.2
13526.2
13528.3
13528.8
13528.9
13528.6
13527.8
13527.7
13528.3
13528.8
13529
13529
13529
13528.9
13528.1
13521.3
1000.07
1000.07
1000.07
1001.92
1300.94
4980.26
11508.3
13330.6
13506.6
13524.8
13523
13494.7
13406.6
13297.8
13275.3
13349.6
13446.3
13501.1
13514.4
13515.7
13498.9
13369.4
12700.1
1000.09
1000.08
1000.08
1000.69
1130.49
3291.76
9432.48
12994
13404.4
13323.6
12832.4
11750.7
10133.2
8813.53
8568.86
9141.12
10227.7
11265.2
11836.9
12045.4
11692.7
9642.86
5436.33
1000.04
1000.04
1000.05
1000.14
1029.05
1799.24
5385.13
9724.88
10634.2
9353.14
7033.47
4452.91
2499.84
1653.23
1526.41
1601.95
1862.59
2286.3
2717.87
3103.26
3073.34
1852.12
1559.34
11805.5
11036
11393
11732
11892.2
11949.3
11975.4
12240.5
12326.7
12328.8
12336.1
12345.7
12368.3
12383.3
12392.5
12396.8
12398.7
12397.3
12396.3
11323.7
5021.9
3690.64
3301.39
3375
3734.54
4487.77
4849.66
5079.54
5812.1
6317.14
6353.24
6867.61
8584.97
10974.1
12363.3
12400
12399.3
12397.3
2619.6
1216.54
890.496
875.491
878.289
878.864
879.723
882.381
886.339
885.278
886.959
904.435
1550.43
4249.47
8545.74
12061.5
12402.7
12402.2
12397.5
969.678
806.332
751.952
799.15
843.376
857.685
852.545
852.535
858.712
884.599
887.753
900.45
1579.88
4333.65
8153.28
11660.1
12405.1
12404.5
12342.5
708.296
656.971
577.237
608.987
670.608
758.433
845.763
873.461
877.867
888.077
888.362
891.149
1597.36
4597.58
8879.94
11837.3
12315.7
12378
12341
1122.99
600.298
513.223
516.084
528.007
581.184
740.43
858.849
888.368
890.989
885.381
870.18
1185.23
3182.23
5977.32
10660.3
12301.2
12269.8
12189.8
1055.03
504.398
503.863
506.989
506.99
509.756
578.968
795.5
892.249
893.48
846.96
851.129
888.77
1662.15
2440.77
6055.49
11953.6
12231.4
12069.3
521.243
435.673
499.854
506.21
506.346
506.824
516.46
667.472
877.242
880.376
860.026
824.199
791.831
1059.51
1711.63
1847.68
7162.4
10753.4
8458.23
1000.02
1000.02
1000.03
1000.04
1003.45
1127.24
1649.58
2076.61
2083.55
2046.59
1773.12
1346.68
1106.97
1066.45
1033.1
1015.61
1009.41
1006.3
1006.87
1015.09
1021.07
1004.47
1038.11
1000
999.976
999.907
999.969
1000.28
1003.6
1020.41
1031.29
1027.67
1016.65
1014.22
1005.12
1000.35
994.842
989.343
987.177
983.827
978.748
976.065
976.893
975.583
946.084
848.858
996.417
995.872
994.696
996.484
999.051
999.703
1002.3
1004.48
1006.59
1004.65
1000.92
995.085
973.332
920.962
885.651
891.223
900.902
901.182
903.932
909.014
865.079
658.708
478.782
914.213
879.462
901.127
948.1
987.42
992.784
995.099
996.606
996.445
988.951
956.738
904.437
803.319
705.532
634.942
574.955
621.084
734.527
768.3
709.412
576.589
410.861
296.261
723.873
599.036
681.931
837.208
926.389
942.3
943.708
932.81
873.345
762.169
668.467
610.325
516.82
462.843
495.01
527.238
563.801
610.397
613.837
552.59
437.6
288.96
266.815
607.565
576.675
584.523
649.335
708.728
722.845
699.107
639.656
442.345
171.721
34.6446
134.868
357.987
493.553
528.695
537.241
540.957
542.976
514
303.922
100.72
97.4117
312.126
545.507
483.169
474.355
464.463
449.58
409.492
290.426
125.196
9.46384
1.14753
1.20594
6.97604
85.9423
348.488
504.946
525.674
527.853
493.861
271.331
31.8203
3.4989
12.2928
140.988
303.473
130.174
59.0299
39.1641
25.586
15.2807
5.91311
2.48162
1.06384
1.00032
1.0002
1.04457
6.81786
114.579
393.817
489
493.781
369.397
64.6625
1.52998
1.00979
1.05161
1.19786
24.3572
3.92732
1.45431
1.18738
1.08988
1.03854
1.00715
1.0018
1.0001
1.00001
1.00005
1.00019
1.09221
14.1849
160.537
406.104
464.766
298.168
28.921
1.01525
1.00055
1.00035
1.0003
1.22346
1.00609
1.00031
1.00007
1.00002
1.00001
1.00001
1.00001
1.00001
1.00001
1.00002
1.00007
1.00027
1.2742
20.4611
128.967
222.678
168.356
17.5848
1.02699
1.00054
1.00027
1.00013
1.00043
1.0001
1.00009
1.00004
1.00002
1.00001
1.00001
1.00001
1.00001
1.00001
1.00001
1.00004
1.00012
1.00717
2.10782
10.5099
21.4266
23.7513
7.23839
1.11098
1.00076
1.00036
1.00014
1.00014
1.00012
1.00007
1.00004
1.00001
1
1.00001
1.00001
1.00001
1.00001
1.00001
1.00003
1.0001
1.00027
1.01513
1.14223
1.38817
1.63876
1.75608
1.27124
1.00164
1.00053
1.00022
1.00015
1.00013
1.00006
1.00004
1.00001
1
1.00001
1.00001
1.00001
1.00001
1.00001
1.00003
1.00005
1.00012
1.00006
1.00028
1.0011
1.00398
1.03785
1.10659
1.01273
1.00086
1.00039
1.00012
1.00008
1.00005
1.00003
1.00001
1
1
1.00002
1.00002
1.00001
1.00002
1.00003
1.00002
1.00002
1.00001
1.00001
1.00003
1.00023
1.00055
1.00664
1.01479
1.00528
1.00068
1.00009
1.00005
1.00005
1.00003
1.00001
1
1
1.00001
1.00002
1.00003
1.00003
1.00003
1.00001
1.00001
1.00001
1.00001
1.00003
1.00016
1.00037
1.00079
1.00418
1.00506
1.00196
1.00007
1.00006
1.00004
1.00002
1
0.999999
1
1
1.00001
1.00002
1.00003
1.00002
1.00001
1.00001
1.00001
1.00001
1.00002
1.0001
1.00026
1.00056
1.00095
1.00163
1.00107
1.00006
1.00004
1.00003
1
0.999999
0.999999
1
1
1
1.00001
1.00001
1.00001
1.00001
1.00002
1.00003
1.00003
1.00002
1.00004
1.00015
1.00037
1.00068
1.00098
1.00095
1.00004
1.00002
1.00001
0.999999
0.999999
1
1
1
1
1
1
1
1.00001
1.00002
1.00005
1.00005
1.00003
1.00003
1.00005
1.00016
1.00049
1.0008
1.00091
1.00002
1.00001
1
0.999999
0.999999
1
1
1
1
1
1
1
1
1.00002
1.00005
1.00006
1.00005
1.00002
1.00003
1.00007
1.00015
1.00046
1.00057
1
0.999999
0.999999
0.999999
1
1
1
1
1
1
1
1
1
1.00001
1.00004
1.00006
1.00005
1.00002
1.00002
1.00003
1.00007
1.00013
1.00016
0.999999
0.999999
0.999999
0.999999
1
1
1
1
1
1
1
1
1
1.00001
1.00002
1.00003
1.00003
1.00002
1.00001
1.00001
1.00002
1.00004
1.00007
0.999999
0.999999
0.999999
0.999999
1
1
1
1
1
1
1
1
1
1
1.00001
1.00001
1.00001
1.00001
1.00001
1.00001
1.00001
1.00001
1.00002
0.999999
0.999999
0.999999
1
1
1
1
1
1
1
1
1
1
1
1
1.00001
1.00001
1.00001
1.00001
1
1
1
1
0.999999
0.999999
0.999999
1
1
1
1
1
1
1
1
1
1
1
1
1
1.00001
1.00001
1
1
1
1
1
0.999999
0.999999
0.999999
1
1
1
1
1
1
1
1
1
1
1
1
1
1
1
1
1
1
1
0.999999
0.999999
0.999999
1
1
1
1
1
1
1
1
1
1
1
1
1
1
1
1
1
1
1
0.999999
0.999999
0.999999
0.999999
1
1
1
1
1
1
1
1
1
1
1
1
1
1
1
1
1
1
0.999999
0.999999
0.999998
0.999999
0.999999
1
1
1
1
1
1
1
1
1
1
1
1
1
1
1
1
1
0.999999
0.999999
0.999999
0.999998
0.999999
1
1
1
1
1
1
1
1
1
1
1
1
1
1
1
1
1
1
0.999999
0.999999
0.999999
0.999998
1
1
1
1
1
1
1
1
1
1
1
1
1
1
1
1
1
1
1
1
0.999999
0.999999
0.999998
1
1
1
1
1
1
1
1
1
1
1
1
1
1
1
1
1
1
1
1
1
0.999999
0.999999
1
1
1
1
1
1
1
1
1
1
1
1
1
1
1
1
1
1
1
1
1
0.999999
0.999999
1
1
1
1
1
1
1
1
1
1
1
1
1
1
1
1
1
1
1
1
1
0.999999
0.999999
1
1
1
1
1
1
1
1
1
1
1
1
1
1
1
1
1
1
1
1
1
1
0.999999
1
1
1
1
1
1
1
1
1
1
1
1
1
1
1
1
1
1
1
1
1
1
0.999999
1
1
1
1
1
1
1
1
1
1
1
1
1
1
1
1
1
1
1
1
1
1
0.999999
1
1
1
1
1
1
1
1
1
1
1
1
1
1
1
1
1
1
1
1
1
1
0.999999
1
1
1
1
1
1
1
1
1
1
1
1
1
1
1
1
1
1
1
1
1
1
0.999999
1
1
1
1
1
1
1
1
1
1
1
1
1
1
1
1
1
0.999999
0.999999
0.999999
1
1
1
1
1
1
1
1
1
1
1
1
1
1
1
1
1
1
1
1
0.999999
0.999999
0.999999
1
1
1
1
1
1
1
1
1
1
1
1
1
1
1
1
1
1
1
0.999999
0.999999
0.999999
0.999999
0.999999
1
0.999999
1
1
1
1
1
1
1
1
1
1
1
1
1
1
1
1
1
0.999999
0.999999
0.999999
0.999999
0.999999
0.999999
2044.68
2184.02
1923.67
1421.41
628.611
476.375
477.756
474.747
437.379
409.846
342.127
203.449
69.297
39.9907
20.865
7.00764
274.748
211.764
51.4396
9.50604
353.145
353.139
242.234
63.6329
334.343
353.145
353.198
239.888
2.53719
10.845
58.6937
194.544
1.00152
1.00542
1.01114
1.00531
1.00013
1.00013
1.00013
1.00012
1.00012
1.00013
1.00013
1.00017
1.00023
1.00023
1.00026
1.00022
1.00052
1.00063
1.00068
1.00065
1.00065
1.00064
1.00083
1.0011
1.00073
1.00074
1.00072
1.00082
1.00092
1.00094
1.00141
1.00148
1.00097
1.00142
1.0015
1.0015
1.00097
1.00119
1.0015
1.00151
1.00058
1.00056
1.00084
1.00074
1.00016
1.00018
1.0002
1.00018
1.00007
1.00007
1.00005
1.00004
1.00002
1.00002
1.00001
1.00001
1
1
1
1
1
1
1
1
0.999999
0.999999
0.999999
0.999999
0.999999
0.999999
0.999999
0.999999
0.999998
0.999998
0.999998
0.999998
0.999998
0.999998
0.999998
0.999998
0.999998
0.999998
0.999998
0.999998
0.999998
0.999998
0.999998
0.999997
0.999998
0.999998
0.999998
0.999997
0.999999
0.999998
0.999998
0.999997
0.999999
0.999998
0.999998
0.999997
0.999999
0.999999
0.999997
0.999997
0.999999
0.999998
0.999997
0.999997
0.999999
0.999998
0.999997
0.999997
0.999999
0.999998
0.999997
0.999997
0.999999
0.999998
0.999997
0.999997
0.999999
0.999998
0.999998
0.999998
0.999999
0.999999
0.999998
0.999998
0.999998
0.999998
0.999997
0.999998
0.999998
0.999998
0.999998
0.999998
612.779
455.902
497.856
497.718
497.595
500.46
506.592
546.989
768.748
873.896
877.438
857.651
805.833
762.245
683.259
679.819
1015.51
1339.95
1426.74
436.245
416.639
480.203
494.223
494.222
494.304
496.378
507.868
621.587
834.573
888.904
872.043
829.941
738.097
606.651
532.793
530.714
604.251
755.814
105.386
77.5601
129.963
343.192
478.496
491.241
495.629
505.067
567.707
752.763
827.108
826.776
802.133
721.119
629.574
540.974
526.165
588.464
861.261
6.01609
5.85115
5.85317
21.4946
192.898
446.601
499.62
512.182
563.249
684.23
754.11
767.419
758.659
707.498
621.426
545.83
528.501
603.13
966.687
6.67233
5.86016
5.87139
7.63634
116.819
433.276
530.38
533.212
557.378
639.53
710.045
735.888
721.494
665.022
594.117
542.08
540.2
694.419
1025.68
13.2755
5.86264
6.2622
72.3982
353.991
518.547
555.517
564.181
580.062
627.988
665.74
673.493
635.017
591.25
563.895
562.016
645.806
767.042
1038.5
66.6244
24.6398
71.0336
256.815
479.89
529.848
559.905
579.761
593.11
589.24
573.085
586.091
586.328
587.327
602.348
691.989
755.814
812.276
1028.07
363.745
416.657
418.09
434.209
471.182
509.503
553.607
576.728
540.684
435.328
428.971
516.819
597.434
641.216
706.509
747.567
768.35
813.839
866.536
37.2751
158.074
206.13
202.092
238.972
413.56
514.718
556.418
546.069
459.024
450.502
451.247
588.422
716.305
720.778
723.524
716.421
696.423
689.126
1.0242
1.88272
5.70825
7.62052
10.4178
108.238
376.862
504.749
550.669
615.311
670.935
697.387
700.241
699.348
673.047
633.469
596.975
573.836
581.113
1.00022
1.00027
1.00042
1.00069
1.01648
3.77672
68.7591
316.826
468.605
515.659
528.786
639.394
658.836
636.34
599.661
484.564
363.53
336.365
445.43
1.00017
1.00012
1.00015
1.0004
1.00079
1.0036
1.68625
25.3442
170.342
355.138
449.525
539.625
587.396
574.493
447.59
134.437
21.201
23.668
106.012
1.00054
1.00028
1.00012
1.00021
1.00058
1.0009
1.00105
1.07924
10.923
152.447
424.202
487.752
494.722
439.515
115.245
1.13083
1.00139
1.01446
1.24703
1.00124
1.00074
1.00017
1.00008
1.00023
1.00069
1.00101
1.00117
1.04288
11.1319
148.266
341.872
349.107
119.5
2.41994
1.00078
1.00072
1.00073
1.00073
1.00147
1.00096
1.00032
1.00008
1.00011
1.00016
1.00058
1.0012
1.00175
1.05857
2.39195
8.87566
12.8121
3.5174
1.00289
1.00075
1.00072
1.00073
1.0007
1.00148
1.00082
1.00025
1.0001
1.00004
1.00009
1.00013
1.00069
1.00166
1.0013
1.00344
1.02141
1.02766
1.00642
1.00184
1.00219
1.00299
1.00111
1.00074
1.00143
1.00062
1.00016
1.00006
1.00003
1.00004
1.0001
1.00029
1.00146
1.00107
1.00103
1.00102
1.00105
1.00271
1.0037
1.01015
1.01143
1.00259
1.00078
1.0008
1.0003
1.00009
1.00003
1.00002
1.00003
1.00006
1.00009
1.00028
1.00152
1.00116
1.00115
1.00173
1.00263
1.00975
1.01192
1.01183
1.00323
1.00078
1.00029
1.00008
1.00003
1.00001
1.00001
1.00001
1.00003
1.00005
1.00013
1.00045
1.00084
1.0011
1.00117
1.00109
1.00461
1.01198
1.00901
1.00156
1.00083
1.00007
1.00003
1.00001
1
1
1
1.00001
1.00002
1.00005
1.00013
1.00025
1.0004
1.00058
1.00067
1.00075
1.00985
1.00616
1.00109
1.0008
1.00002
1
1
0.999999
0.999999
1
1
1.00001
1.00001
1.00004
1.00006
1.00009
1.00013
1.00027
1.00038
1.00264
1.00594
1.00169
1.00081
1
1
0.999999
0.999998
0.999998
0.999998
0.999999
1
1
1.00001
1.00002
1.00003
1.00005
1.00017
1.00029
1.00089
1.00521
1.00271
1.0008
1
0.999999
0.999999
0.999998
0.999998
0.999998
0.999998
0.999999
1
1
1.00001
1.00003
1.00008
1.00016
1.00029
1.00061
1.00507
1.00312
1.0008
0.999999
0.999999
0.999998
0.999998
0.999998
0.999998
0.999998
0.999999
1
1
1.00001
1.00003
1.00013
1.00023
1.00035
1.00052
1.00351
1.00231
1.00075
0.999999
0.999999
0.999998
0.999998
0.999998
0.999998
0.999998
0.999999
1
1
1.00001
1.00003
1.00019
1.00036
1.00048
1.00062
1.00181
1.00114
1.00073
0.999998
0.999998
0.999998
0.999997
0.999997
0.999998
0.999998
0.999999
1
1
1.00001
1.00004
1.00027
1.00052
1.00067
1.00079
1.00135
1.001
1.00066
0.999998
0.999997
0.999997
0.999997
0.999997
0.999998
0.999998
0.999999
1
1
1.00002
1.00005
1.00036
1.0012
1.00345
1.00396
1.00327
1.00102
1.00062
0.999997
0.999997
0.999997
0.999997
0.999997
0.999998
0.999998
0.999999
0.999999
1
1.00002
1.00006
1.00041
1.00338
1.01733
1.01805
1.00964
1.00231
1.00071
0.999997
0.999997
0.999996
0.999997
0.999997
0.999998
0.999998
0.999999
0.999999
1
1.00001
1.00006
1.00037
1.00383
1.01686
1.01806
1.01801
1.00498
1.00111
0.999997
0.999996
0.999996
0.999997
0.999997
0.999998
0.999999
0.999999
0.999999
1
1.00001
1.00005
1.00026
1.00077
1.0021
1.0117
1.00858
1.0051
1.00109
0.999996
0.999996
0.999996
0.999997
0.999997
0.999998
0.999999
0.999999
1
1
1.00001
1.00003
1.00015
1.00049
1.0008
1.00092
1.00287
1.0024
1.00054
0.999996
0.999996
0.999996
0.999997
0.999998
0.999998
0.999999
0.999999
1
1
1.00001
1.00004
1.00014
1.00029
1.00049
1.00065
1.00242
1.00091
1.00022
0.999996
0.999996
0.999997
0.999997
0.999998
0.999998
0.999999
0.999999
1
1.00001
1.00002
1.00006
1.00021
1.00031
1.00043
1.00063
1.00151
1.00049
1.00018
0.999996
0.999997
0.999997
0.999998
0.999998
0.999999
0.999999
0.999999
1
1.00001
1.00003
1.00012
1.00032
1.00046
1.00057
1.00177
1.00074
1.00036
1.00009
0.999997
0.999997
0.999997
0.999998
0.999999
0.999999
0.999999
1
1
1.00001
1.00004
1.00018
1.0004
1.00066
1.00129
1.00185
1.00047
1.00015
1.00005
0.999997
0.999997
0.999998
0.999998
0.999999
0.999999
0.999999
1
1
1.00001
1.00003
1.00014
1.00042
1.00078
1.00142
1.00099
1.00025
1.00007
1.00002
0.999997
0.999998
0.999998
0.999999
0.999999
0.999999
0.999999
0.999999
1
1.00001
1.00002
1.00007
1.00029
1.00044
1.00068
1.00028
1.00011
1.00002
1
0.999998
0.999998
0.999999
0.999999
0.999999
0.999999
0.999999
0.999999
1
1
1.00001
1.00002
1.00012
1.00017
1.00016
1.00009
1.00004
1.00001
1
0.999998
0.999999
0.999999
0.999999
0.999999
0.999999
0.999999
0.999999
1
1
1
1.00001
1.00003
1.00004
1.00003
1.00002
1.00001
1.00001
1
0.999998
0.999999
0.999999
0.999999
0.999999
0.999999
0.999999
0.999999
1
1
1
1
1
1.00001
1.00001
1
1
1
1
0.999999
0.999999
0.999999
0.999999
0.999999
0.999999
0.999999
0.999999
1
1
1
1
1
1
1
1
1
1
1
0.999999
0.999999
0.999999
0.999999
1
1
1
1
1
1
1
1
1
1
1
1
1
1
1
)
;

boundaryField
{
    leftWall
    {
        type            calculated;
        value           nonuniform List<scalar> 
50
(
13529
13523.2
10790
1058.34
1000.06
1000.07
1000.09
1000.04
1000.02
1000
996.417
914.213
723.873
607.565
545.507
303.473
24.3572
1.22346
1.00043
1.00014
1.00015
1.00012
1.00009
1.00007
1.00006
1.00004
1.00002
1
0.999999
0.999999
0.999999
0.999999
0.999999
0.999999
0.999999
0.999999
0.999999
1
1
1
1
1
1
1
1
1
1
1
1
1
)
;
    }
    rightWall
    {
        type            calculated;
        value           nonuniform List<scalar> 
50
(
12396.3
12397.3
12397.5
12342.5
12341
12189.8
12069.3
8458.23
1426.74
755.814
861.261
966.687
1025.68
1038.5
1028.07
866.536
689.126
581.113
445.43
106.012
1.24703
1.00073
1.0007
1.00074
1.00078
1.00078
1.00083
1.0008
1.00081
1.0008
1.0008
1.00075
1.00073
1.00066
1.00062
1.00071
1.00111
1.00109
1.00054
1.00022
1.00018
1.00009
1.00005
1.00002
1
1
1
1
1
1
)
;
    }
    lowerWall
    {
        type            calculated;
        value           nonuniform List<scalar> 
62
(
13529
13529
13529
13529
13529
13529
13529
13529
13529
13529
13529
13529
13529
13529
13529
13529
13529
13529
13529
13529
13529
13528.9
13528.9
13528.9
13528.9
13528.8
13528.8
13521.3
12700.1
5436.33
1559.34
2044.68
2184.02
1923.67
1421.41
11805.5
11323.7
2619.6
969.678
708.296
1122.99
1055.03
521.243
11805.5
11036
11393
11732
11892.2
11949.3
11975.4
12240.5
12326.7
12328.8
12336.1
12345.7
12368.3
12383.3
12392.5
12396.8
12398.7
12397.3
12396.3
)
;
    }
    atmosphere
    {
        type            calculated;
        value           nonuniform List<scalar> 
46
(
1
1
1
1
1
1
1
1
1
1
1
1
1
1
1
1
1
0.999999
0.999999
0.999999
0.999999
0.999999
0.999999
0.999998
0.999998
0.999998
0.999998
1
1
1
1
1
1
1
1
1
1
1
1
1
1
1
1
1
1
1
)
;
    }
    defaultFaces
    {
        type            empty;
    }
}


// ************************************************************************* //
