/*--------------------------------*- C++ -*----------------------------------*\
| =========                 |                                                 |
| \\      /  F ield         | OpenFOAM: The Open Source CFD Toolbox           |
|  \\    /   O peration     | Version:  2.4.0                                 |
|   \\  /    A nd           | Web:      www.OpenFOAM.org                      |
|    \\/     M anipulation  |                                                 |
\*---------------------------------------------------------------------------*/
FoamFile
{
    version     2.0;
    format      ascii;
    class       volVectorField;
    location    "0.85";
    object      U.air;
}
// * * * * * * * * * * * * * * * * * * * * * * * * * * * * * * * * * * * * * //

dimensions      [0 1 -1 0 0 0 0];

internalField   nonuniform List<vector> 
2268
(
(0.00189939 -0.0733616 0)
(0.00113274 -0.0792712 0)
(-0.00318643 -0.084198 0)
(-0.0422563 -0.0745902 0)
(-0.0906004 -0.0522493 0)
(-0.147568 -0.0144493 0)
(-0.211716 0.0130045 0)
(-0.254439 0.0202243 0)
(-0.26364 0.0174508 0)
(-0.257706 0.013356 0)
(-0.246019 0.0071108 0)
(-0.234126 -0.00314098 0)
(-0.211525 -0.00792903 0)
(-0.182171 -0.00976383 0)
(-0.153876 -0.00972337 0)
(-0.135865 -0.00628162 0)
(-0.125096 -0.00427997 0)
(-0.116795 -0.00427999 0)
(-0.103326 -0.00391051 0)
(-0.0796008 -0.00744291 0)
(-0.0550318 -0.00131614 0)
(-0.0477332 0.000852617 0)
(-0.0333348 -0.0121354 0)
(0.00161997 0.0740375 0)
(-0.00351179 0.0839392 0)
(-0.00102753 0.111464 0)
(-0.024325 0.123835 0)
(-0.0629561 0.100972 0)
(-0.125042 0.0668297 0)
(-0.198515 0.0331227 0)
(-0.256835 0.00423553 0)
(-0.27079 -0.0154615 0)
(-0.264858 -0.021554 0)
(-0.251528 -0.0176866 0)
(-0.232586 -0.0132372 0)
(-0.207384 -0.0163078 0)
(-0.178713 -0.0177896 0)
(-0.152795 -0.012332 0)
(-0.135344 -0.00738232 0)
(-0.122123 -0.00473787 0)
(-0.112787 -0.00613818 0)
(-0.0980836 -0.0122911 0)
(-0.0722057 -0.017373 0)
(-0.0518332 -0.0146246 0)
(-0.0291531 -0.0101534 0)
(-0.0125961 -0.0276828 0)
(0.0118438 -0.111361 0)
(0.01259 -0.109968 0)
(-0.000658393 -0.0908248 0)
(-0.0360461 -0.0616989 0)
(-0.108231 0.0049522 0)
(-0.16845 0.0753169 0)
(-0.220673 0.0769073 0)
(-0.264322 0.0445644 0)
(-0.275984 0.0180196 0)
(-0.269011 0.00250202 0)
(-0.250881 -0.00996508 0)
(-0.226045 -0.0247497 0)
(-0.200904 -0.0341762 0)
(-0.177518 -0.0344988 0)
(-0.153956 -0.0281138 0)
(-0.138477 -0.0190841 0)
(-0.121489 -0.0138435 0)
(-0.10754 -0.0152281 0)
(-0.0920504 -0.0229779 0)
(-0.0706516 -0.0295079 0)
(-0.0555847 -0.022208 0)
(-0.0206394 -0.0161522 0)
(-0.00629271 -0.0301227 0)
(-0.00826603 0.166974 0)
(-0.0426299 0.170153 0)
(-0.0748163 0.0978769 0)
(-0.0723996 0.0664405 0)
(-0.135964 0.0788875 0)
(-0.220348 0.0955013 0)
(-0.270997 0.0749044 0)
(-0.289868 0.0326079 0)
(-0.292085 -0.0105102 0)
(-0.273468 -0.0313098 0)
(-0.246333 -0.0356136 0)
(-0.221277 -0.0358628 0)
(-0.199526 -0.0398938 0)
(-0.176792 -0.0408406 0)
(-0.15256 -0.0303791 0)
(-0.130805 -0.0232246 0)
(-0.109511 -0.0199414 0)
(-0.0948273 -0.0174142 0)
(-0.0857281 -0.0252083 0)
(-0.0819077 -0.031041 0)
(-0.0756539 -0.0382876 0)
(-0.0332104 -0.0331687 0)
(-0.0111915 -0.0393059 0)
(-0.00879921 -0.200421 0)
(-0.017013 -0.194929 0)
(-0.0268463 -0.163968 0)
(-0.0430099 -0.043749 0)
(-0.16421 0.0880016 0)
(-0.306976 0.119556 0)
(-0.329075 0.0945788 0)
(-0.341301 0.047625 0)
(-0.338796 0.00778166 0)
(-0.318048 -0.018895 0)
(-0.282987 -0.03458 0)
(-0.245932 -0.0452911 0)
(-0.214359 -0.0521181 0)
(-0.191249 -0.052336 0)
(-0.163068 -0.0467526 0)
(-0.131378 -0.0386615 0)
(-0.10282 -0.033258 0)
(-0.0887167 -0.0328006 0)
(-0.0848069 -0.0375763 0)
(-0.0852689 -0.0438861 0)
(-0.0799488 -0.0516414 0)
(-0.0533837 -0.0506765 0)
(-0.0166725 -0.0424226 0)
(-0.0243095 0.200066 0)
(-0.076718 0.215244 0)
(-0.159093 0.213014 0)
(-0.238553 0.181643 0)
(-0.320219 0.137227 0)
(-0.454091 0.12126 0)
(-0.444644 0.0885288 0)
(-0.415621 0.0336397 0)
(-0.389206 -0.0229991 0)
(-0.369282 -0.0530396 0)
(-0.32954 -0.0625272 0)
(-0.284989 -0.0643078 0)
(-0.247241 -0.0654584 0)
(-0.218029 -0.0659189 0)
(-0.188627 -0.0592689 0)
(-0.158318 -0.0477648 0)
(-0.128471 -0.0304168 0)
(-0.101349 -0.0135048 0)
(-0.0893212 -0.0119914 0)
(-0.0820331 -0.0189617 0)
(-0.0707129 -0.0390301 0)
(-0.050198 -0.0561635 0)
(-0.0332129 -0.0980474 0)
(-0.00732769 -0.0815505 0)
(-0.023305 -0.0534485 0)
(-0.0563243 0.000860692 0)
(-0.126826 0.098308 0)
(-0.273764 0.168313 0)
(-0.494711 0.112607 0)
(-0.550669 0.0608095 0)
(-0.53397 0.0309935 0)
(-0.481944 -0.004991 0)
(-0.420238 -0.0509387 0)
(-0.365974 -0.0944927 0)
(-0.301917 -0.116244 0)
(-0.2343 -0.132781 0)
(-0.187512 -0.142609 0)
(-0.176974 -0.142992 0)
(-0.175493 -0.130388 0)
(-0.169408 -0.112814 0)
(-0.136845 -0.09161 0)
(-0.097839 -0.0806765 0)
(-0.0756386 -0.0842173 0)
(-0.0587459 -0.107107 0)
(-0.0912105 -0.123015 0)
(-0.106084 -0.119745 0)
(-0.0169181 0.141423 0)
(-0.0518284 0.15647 0)
(-0.0876882 0.172803 0)
(-0.121073 0.203343 0)
(-0.177558 0.277018 0)
(-0.355381 0.176651 0)
(-0.495621 0.0390019 0)
(-0.513702 -0.0455969 0)
(-0.488677 -0.120416 0)
(-0.447591 -0.162652 0)
(-0.388837 -0.184113 0)
(-0.301222 -0.22272 0)
(-0.180103 -0.238966 0)
(-0.11935 -0.183459 0)
(-0.116775 -0.151992 0)
(-0.165802 -0.144702 0)
(-0.201202 -0.149508 0)
(-0.183409 -0.151332 0)
(-0.123263 -0.148408 0)
(-0.0862668 -0.145976 0)
(-0.0775771 -0.14306 0)
(-0.164331 -0.141856 0)
(-0.178194 -0.285376 0)
(-0.0972078 -0.165094 0)
(0.201024 -0.19101 0)
(0.317209 -0.21068 0)
(0.360247 -0.25132 0)
(0.376492 -0.277196 0)
(0.389745 -0.265658 0)
(0.408526 -0.15338 0)
(0.430584 -0.000332604 0)
(0.441163 0.105249 0)
(0.46649 0.18119 0)
(0.485088 0.169191 0)
(0.518232 0.104573 0)
(0.522589 0.0802165 0)
(0.504683 0.022772 0)
(0.448425 -0.0878877 0)
(0.336312 -0.0715392 0)
(0.13993 0.0155219 0)
(-0.0592969 -0.050739 0)
(-0.0219647 -0.113621 0)
(-0.093971 0.108248 0)
(0.243774 -0.13658 0)
(0.39788 -0.0332213 0)
(0.485985 0.0376117 0)
(0.517375 0.0585689 0)
(0.515929 0.0725862 0)
(0.472333 0.116872 0)
(0.414277 0.21484 0)
(0.391959 0.272903 0)
(0.40496 0.283763 0)
(0.409507 0.283405 0)
(0.421321 0.304718 0)
(0.386277 0.36545 0)
(0.320813 0.410789 0)
(0.36116 0.280965 0)
(0.292246 0.188225 0)
(0.151302 0.209231 0)
(-0.00239237 0.166582 0)
(-0.0748143 0.0891861 0)
(0.256551 -0.068389 0)
(0.308501 -0.329271 0)
(0.375005 -0.173809 0)
(0.463702 -0.129567 0)
(0.547708 -0.15836 0)
(0.611788 -0.16344 0)
(0.611047 -0.171321 0)
(0.557949 -0.168246 0)
(0.428717 0.043027 0)
(0.275159 0.117544 0)
(0.116799 0.120042 0)
(-0.00332588 0.00643505 0)
(-0.335423 -0.0236381 0)
(-0.47196 0.108615 0)
(-0.197914 0.139653 0)
(0.100808 0.153659 0)
(0.124436 0.171115 0)
(0.0143546 0.107226 0)
(-0.0271717 -0.0861104 0)
(0.261235 0.347467 0)
(0.238943 0.106828 0)
(0.307421 0.0731732 0)
(0.413775 0.027092 0)
(0.489876 0.0874586 0)
(0.527121 0.130732 0)
(0.503555 0.160373 0)
(0.378845 0.180936 0)
(0.193342 0.373409 0)
(0.12797 0.445545 0)
(0.0976524 0.428453 0)
(-0.0184913 0.202485 0)
(-0.380881 0.0571857 0)
(-0.496209 0.0562598 0)
(-0.479809 0.0262315 0)
(-0.0895853 0.0608706 0)
(0.0876018 0.189036 0)
(0.0339074 0.161757 0)
(0.0258992 0.0462309 0)
(0.188347 0.196901 0)
(0.101725 0.224675 0)
(0.0887276 0.168246 0)
(0.145834 -0.114833 0)
(0.274645 -0.138914 0)
(0.336297 -0.0936882 0)
(0.351891 -0.0345443 0)
(0.298642 0.0301711 0)
(0.200498 0.0873695 0)
(0.156557 0.101071 0)
(0.135709 0.189964 0)
(0.00304921 0.244119 0)
(-0.322208 0.0711643 0)
(-0.418492 -0.0692545 0)
(-0.411777 -0.136095 0)
(-0.276247 -0.0539652 0)
(0.016361 0.162028 0)
(0.0179796 0.160694 0)
(0.0566298 -0.0179526 0)
(0.14015 0.036073 0)
(-0.0438249 0.213832 0)
(-0.0617532 0.183514 0)
(0.00356876 -0.0707126 0)
(0.141626 -0.0742144 0)
(0.258266 -0.00154247 0)
(0.235327 0.0765747 0)
(0.173111 0.140772 0)
(0.107753 0.189534 0)
(0.0590396 0.254052 0)
(0.0583826 0.354891 0)
(0.0384811 0.327494 0)
(-0.180833 0.161369 0)
(-0.320858 -0.106362 0)
(-0.345111 -0.192679 0)
(-0.317631 -0.0920018 0)
(-0.0347917 0.0607211 0)
(0.0177339 0.141912 0)
(0.0841938 0.0669511 0)
(0.0969735 -0.0617047 0)
(-0.147861 0.194638 0)
(-0.0834673 0.149558 0)
(-0.041325 -0.0419939 0)
(0.0254623 -0.0495097 0)
(0.161623 -0.0286035 0)
(0.22052 0.0402122 0)
(0.12278 0.120851 0)
(-0.0499672 0.187489 0)
(-0.20764 0.406562 0)
(-0.201688 0.53734 0)
(-0.0711593 0.582657 0)
(-0.0283017 0.287186 0)
(-0.250885 -0.0801625 0)
(-0.32933 -0.185209 0)
(-0.376708 -0.073741 0)
(-0.208473 0.0984863 0)
(0.00140732 0.11905 0)
(0.0913155 0.0299578 0)
(0.123558 0.00516637 0)
(-0.145217 0.193966 0)
(-0.0540373 0.124866 0)
(-0.0930493 0.0751858 0)
(-0.0705344 0.0702368 0)
(-0.0155368 0.0494258 0)
(0.140086 0.0983916 0)
(0.0678219 0.137309 0)
(-0.131012 0.337917 0)
(-0.257243 0.416671 0)
(-0.210323 0.486975 0)
(-0.11547 0.738041 0)
(0.119459 0.614616 0)
(-0.123142 0.0147262 0)
(-0.269582 -0.256998 0)
(-0.349736 -0.228292 0)
(-0.364443 0.0284484 0)
(-0.0756332 0.112125 0)
(0.0815006 0.129699 0)
(0.0195207 -0.0499855 0)
(0.0453551 -0.0107123 0)
(0.056895 0.0690241 0)
(0.0526488 0.168847 0)
(0.0416164 0.288354 0)
(0.0196284 0.297824 0)
(-0.0562863 0.190506 0)
(-0.110473 0.101785 0)
(-0.157069 0.0422884 0)
(-0.197957 -0.0513616 0)
(-0.183196 -0.170753 0)
(-0.168129 -0.260592 0)
(-0.188796 -0.260759 0)
(-0.173741 -0.257805 0)
(-0.140453 -0.22958 0)
(-0.126066 -0.197566 0)
(-0.127261 -0.180411 0)
(-0.134141 -0.169222 0)
(-0.14705 -0.14828 0)
(-0.155142 -0.107614 0)
(-0.147489 -0.0465822 0)
(0.000675576 0.0349892 0)
(0.0573798 -0.031906 0)
(0.0146881 0.0959289 0)
(0.0348023 0.125991 0)
(0.043848 0.154931 0)
(0.0444927 0.193064 0)
(0.0703613 0.253861 0)
(0.129888 0.286031 0)
(0.181752 0.205659 0)
(0.182207 0.0832444 0)
(0.171118 -0.0458826 0)
(0.176761 -0.165237 0)
(0.159232 -0.229006 0)
(0.124857 -0.230901 0)
(0.116803 -0.185355 0)
(0.136838 -0.106083 0)
(0.155696 0.0373852 0)
(0.143081 0.0988249 0)
(0.107166 0.0623645 0)
(0.0549521 -0.000998422 0)
(-0.0115145 -0.0260048 0)
(-0.0598365 -0.0270527 0)
(0.035289 0.0499706 0)
(0.224675 0.0610566 0)
(0.320952 0.267478 0)
(0.0605421 -0.0703526 0)
(0.118382 -0.000664214 0)
(0.146462 0.120673 0)
(0.124756 0.18559 0)
(0.118149 0.228398 0)
(0.134836 0.226908 0)
(0.17305 0.200396 0)
(0.210255 0.150852 0)
(0.225981 0.0838823 0)
(0.231195 0.0255769 0)
(0.204031 -0.0320994 0)
(0.175382 -0.0580381 0)
(0.159335 0.0501224 0)
(0.184465 0.141542 0)
(0.191145 0.309868 0)
(0.132818 0.41234 0)
(0.0631402 0.412376 0)
(0.0280239 0.297124 0)
(-0.0343133 0.0960827 0)
(-0.156826 0.177055 0)
(-0.252197 0.092835 0)
(-0.154743 0.118153 0)
(-0.0144306 0.27333 0)
(0.0651183 -0.130582 0)
(0.133367 0.00969886 0)
(0.11852 0.118305 0)
(0.0716828 0.175542 0)
(0.0855391 0.20912 0)
(0.0870207 0.194789 0)
(0.104548 0.15197 0)
(0.136761 0.0865095 0)
(0.161888 0.0739868 0)
(0.1642 0.149413 0)
(0.137429 0.270748 0)
(0.0692661 0.0844687 0)
(0.190283 -0.0804507 0)
(0.286688 0.114823 0)
(0.0867773 0.323306 0)
(-0.120493 0.509968 0)
(-0.31598 0.555186 0)
(-0.569277 0.496815 0)
(-0.703842 0.301313 0)
(-0.858527 0.612042 0)
(-0.722728 0.73281 0)
(-0.629038 0.416906 0)
(-0.682681 -0.301477 0)
(0.0234767 -0.245295 0)
(-0.0255367 -0.0300333 0)
(-0.0321665 0.206871 0)
(-0.0877954 0.229052 0)
(-0.0431416 0.237479 0)
(-0.0419475 0.229514 0)
(-0.02124 0.184707 0)
(0.0258577 0.320004 0)
(0.1776 0.415774 0)
(0.289973 0.516744 0)
(0.03823 0.468133 0)
(-0.557944 0.727682 0)
(-0.917852 0.415844 0)
(-0.691982 0.356466 0)
(-0.898576 0.340482 0)
(-1.03343 0.421263 0)
(-1.18802 0.56014 0)
(-1.38843 0.73831 0)
(-1.42063 0.858409 0)
(-1.38417 1.02227 0)
(-1.56634 0.810721 0)
(-1.84206 0.292049 0)
(-1.97252 -0.259168 0)
(-0.0687357 0.0144062 0)
(-0.176367 0.247657 0)
(-0.184033 0.428952 0)
(-0.190245 0.491903 0)
(-0.164639 0.510029 0)
(-0.119865 0.493279 0)
(-0.0192772 0.434507 0)
(0.00509355 0.465036 0)
(-0.0987137 0.120569 0)
(-0.195588 -0.0351425 0)
(-0.669508 0.821052 0)
(-1.00475 0.999913 0)
(-1.55788 0.726571 0)
(-1.37843 0.338094 0)
(-1.32161 0.135463 0)
(-1.37705 0.262195 0)
(-1.36422 0.495326 0)
(-1.23399 0.654708 0)
(-1.17605 0.80688 0)
(-1.28791 0.865726 0)
(-1.71106 0.564722 0)
(-1.92839 0.207167 0)
(-2.03167 -0.302008 0)
(-0.0111315 0.375449 0)
(-0.0953195 0.506109 0)
(-0.25999 0.512568 0)
(-0.300978 0.477498 0)
(-0.263613 0.406592 0)
(-0.213002 0.323737 0)
(-0.181774 0.268558 0)
(-0.125743 0.312548 0)
(-0.389542 0.923654 0)
(-1.11795 0.712629 0)
(-1.12516 0.898946 0)
(-1.2099 1.65817 0)
(-1.50993 0.404519 0)
(-1.38453 0.161721 0)
(-1.45026 0.227357 0)
(-1.41133 0.319127 0)
(-1.20323 0.477851 0)
(-1.11951 0.545306 0)
(-1.07 0.631133 0)
(-1.14864 1.08622 0)
(-1.47148 1.72102 0)
(-1.80216 0.586139 0)
(-1.63203 -0.596381 0)
(-0.163277 0.39153 0)
(-0.192167 0.401517 0)
(-0.261341 0.509846 0)
(-0.308562 0.584466 0)
(-0.350287 0.682441 0)
(-0.449857 0.75915 0)
(-0.750693 0.716461 0)
(-0.883183 0.608298 0)
(-0.842294 0.444859 0)
(-0.954223 0.294332 0)
(-0.919707 0.642863 0)
(-0.936356 1.137 0)
(-0.946702 0.456195 0)
(-1.29843 -0.191611 0)
(-1.40416 0.0454014 0)
(-1.31665 0.357496 0)
(-1.07004 0.421509 0)
(-0.992854 0.424393 0)
(-0.981969 0.7527 0)
(-0.937042 0.901361 0)
(-1.34592 0.78725 0)
(-1.11905 0.108375 0)
(-1.20223 -0.0930105 0)
(-0.273633 0.832367 0)
(-0.427121 0.819879 0)
(-0.573445 0.296115 0)
(-0.515441 0.0596632 0)
(-0.449188 -0.0205022 0)
(-0.379065 -0.00129897 0)
(-0.339904 0.0971492 0)
(-0.525074 0.322679 0)
(-0.65897 0.497046 0)
(-0.745762 0.504659 0)
(-0.677412 0.737381 0)
(-0.594822 0.99229 0)
(-0.479962 0.732485 0)
(-0.811227 -0.0240356 0)
(-1.28133 -0.0748533 0)
(-1.18387 0.221853 0)
(-1.06983 0.353434 0)
(-0.91624 0.409633 0)
(-0.745717 0.815229 0)
(-0.839146 0.882335 0)
(-1.37892 0.709578 0)
(-1.36843 -0.143666 0)
(-1.51835 -0.389762 0)
(-0.234404 0.843044 0)
(-0.315729 0.479384 0)
(-0.335351 0.285058 0)
(-0.299896 0.229134 0)
(-0.301342 0.248618 0)
(-0.338336 0.332964 0)
(-0.298119 0.452875 0)
(-0.428135 0.566822 0)
(-0.458034 0.618396 0)
(-0.535539 0.516376 0)
(-0.536195 0.564469 0)
(-0.367754 0.739445 0)
(-0.166046 0.708809 0)
(-0.206532 0.558756 0)
(-0.808133 0.129435 0)
(-1.1302 0.0412421 0)
(-1.0617 0.25194 0)
(-0.9665 0.372605 0)
(-0.759824 0.837308 0)
(-0.765663 0.995338 0)
(-1.22137 0.93213 0)
(-1.37085 0.297248 0)
(-1.57073 -0.0562265 0)
(-0.152057 0.927215 0)
(-0.0805111 0.571391 0)
(-0.180618 0.217062 0)
(-0.185098 0.0613541 0)
(-0.1703 0.0493123 0)
(-0.16243 0.162464 0)
(-0.169818 0.399621 0)
(-0.190155 0.622267 0)
(-0.226845 0.672658 0)
(-0.244464 0.601973 0)
(-0.262127 0.562539 0)
(-0.140343 0.596219 0)
(-0.0423573 0.633089 0)
(0.0350671 0.692225 0)
(0.0228114 0.676002 0)
(-0.348641 0.430285 0)
(-0.730989 0.219539 0)
(-0.861198 0.476619 0)
(-0.761478 0.730351 0)
(-0.53607 1.10874 0)
(-0.632253 1.23055 0)
(-0.923729 0.644995 0)
(-1.02152 -0.00567761 0)
(0.00803588 1.00643 0)
(0.0772007 0.661255 0)
(-0.0121054 0.337626 0)
(-0.0478393 0.183626 0)
(-0.118808 0.156855 0)
(-0.129448 0.241712 0)
(-0.114772 0.350261 0)
(-0.0273353 0.585543 0)
(-0.0544463 0.665364 0)
(-0.040191 0.622535 0)
(-0.0683769 0.501084 0)
(0.0194815 0.469905 0)
(0.0585143 0.536518 0)
(0.1622 0.566393 0)
(0.251406 0.619854 0)
(0.266106 0.650187 0)
(0.157693 0.582527 0)
(-0.0605911 0.498129 0)
(-0.288348 0.520754 0)
(-0.273931 0.824102 0)
(-0.134035 1.18273 0)
(-0.293442 0.98351 0)
(-0.690965 0.365384 0)
(0.0700776 0.939214 0)
(0.121235 0.652263 0)
(0.0741539 0.379113 0)
(0.0589879 0.223445 0)
(-0.0123449 0.180689 0)
(-0.0405865 0.231805 0)
(-0.0712828 0.3315 0)
(0.019865 0.554299 0)
(0.0431463 0.654155 0)
(0.0774142 0.617852 0)
(0.0900744 0.486885 0)
(0.129143 0.441228 0)
(0.147586 0.487986 0)
(0.217819 0.498472 0)
(0.280752 0.525777 0)
(0.348828 0.576526 0)
(0.395869 0.599443 0)
(0.383833 0.656014 0)
(0.292649 0.705119 0)
(0.269741 0.807497 0)
(0.193029 1.08656 0)
(0.239512 1.14161 0)
(-0.105811 0.748165 0)
(0.0520004 0.779983 0)
(0.130059 0.628797 0)
(0.107119 0.399928 0)
(0.0941928 0.253826 0)
(0.030929 0.214722 0)
(0.0147331 0.258057 0)
(-0.0226458 0.295839 0)
(0.0231428 0.48648 0)
(0.0908791 0.612442 0)
(0.148834 0.580936 0)
(0.185114 0.474271 0)
(0.188055 0.423431 0)
(0.1948 0.452855 0)
(0.234726 0.457867 0)
(0.271039 0.472612 0)
(0.329421 0.493097 0)
(0.405163 0.548426 0)
(0.476884 0.632328 0)
(0.52143 0.72976 0)
(0.586506 0.844714 0)
(0.639258 1.07106 0)
(0.739576 1.24291 0)
(0.671466 1.11992 0)
(0.0182729 0.703638 0)
(0.119858 0.592865 0)
(0.119719 0.407274 0)
(0.121374 0.289836 0)
(0.0656181 0.257661 0)
(0.0444677 0.292203 0)
(0.00622997 0.305154 0)
(0.0199586 0.422849 0)
(0.0922507 0.523557 0)
(0.172915 0.521608 0)
(0.203456 0.455481 0)
(0.193574 0.415598 0)
(0.196541 0.429695 0)
(0.221135 0.423375 0)
(0.250103 0.425277 0)
(0.299339 0.434925 0)
(0.361729 0.467011 0)
(0.455736 0.560731 0)
(0.564565 0.667239 0)
(0.667095 0.765763 0)
(0.831092 0.908907 0)
(1.05689 1.15603 0)
(1.07379 1.0896 0)
(0.0289 0.639948 0)
(0.110627 0.542445 0)
(0.128685 0.400573 0)
(0.130962 0.318241 0)
(0.086786 0.299594 0)
(0.0644178 0.323592 0)
(0.0373899 0.334245 0)
(0.0292113 0.393514 0)
(0.0861631 0.449497 0)
(0.150346 0.467809 0)
(0.188766 0.447637 0)
(0.182719 0.424798 0)
(0.184781 0.4203 0)
(0.202892 0.403824 0)
(0.22475 0.393889 0)
(0.261781 0.391274 0)
(0.310376 0.405778 0)
(0.378178 0.449794 0)
(0.504421 0.557681 0)
(0.62822 0.611398 0)
(0.781223 0.691954 0)
(1.05912 0.998085 0)
(1.14869 0.960022 0)
(0.0460371 0.561018 0)
(0.097795 0.492932 0)
(0.128592 0.393349 0)
(0.119196 0.338134 0)
(0.0902398 0.324235 0)
(0.0743998 0.338109 0)
(0.0603078 0.345476 0)
(0.0554452 0.377377 0)
(0.0846649 0.404475 0)
(0.126853 0.426105 0)
(0.160099 0.430207 0)
(0.170706 0.420687 0)
(0.178693 0.410678 0)
(0.19424 0.387619 0)
(0.208918 0.368899 0)
(0.233149 0.355177 0)
(0.264264 0.354764 0)
(0.307436 0.370558 0)
(0.39408 0.423092 0)
(0.496524 0.440607 0)
(0.613009 0.459938 0)
(0.864542 0.752343 0)
(1.0365 0.862056 0)
(0.0420022 0.494227 0)
(0.0774887 0.452238 0)
(0.110627 0.38775 0)
(0.0989646 0.353341 0)
(0.0858068 0.34094 0)
(0.079287 0.345753 0)
(0.0756208 0.349673 0)
(0.0783543 0.366111 0)
(0.0953381 0.378142 0)
(0.118513 0.395387 0)
(0.145585 0.407931 0)
(0.165864 0.406734 0)
(0.185007 0.394058 0)
(0.203557 0.372262 0)
(0.216783 0.351858 0)
(0.232311 0.333186 0)
(0.251708 0.321794 0)
(0.276591 0.319806 0)
(0.322685 0.342989 0)
(0.378827 0.341771 0)
(0.443706 0.336063 0)
(0.554684 0.528409 0)
(0.746882 0.699379 0)
(0.0284598 0.44534 0)
(0.0571705 0.420566 0)
(0.0822391 0.379527 0)
(0.0826783 0.358697 0)
(0.0808727 0.347314 0)
(0.0814276 0.34627 0)
(0.0840474 0.347908 0)
(0.090937 0.35599 0)
(0.1047 0.362262 0)
(0.121313 0.373444 0)
(0.144834 0.381855 0)
(0.168948 0.379907 0)
(0.193059 0.369626 0)
(0.213559 0.354289 0)
(0.229159 0.336691 0)
(0.243822 0.318022 0)
(0.255853 0.305708 0)
(0.268706 0.299898 0)
(0.290298 0.309472 0)
(0.315802 0.302022 0)
(0.347916 0.300931 0)
(0.371706 0.421602 0)
(0.539461 0.555081 0)
(0.0183011 0.411213 0)
(0.0427771 0.394452 0)
(0.0644139 0.368516 0)
(0.0711339 0.354572 0)
(0.0758073 0.345715 0)
(0.0807358 0.343041 0)
(0.0862923 0.34174 0)
(0.0950079 0.34532 0)
(0.1075 0.348065 0)
(0.122929 0.354132 0)
(0.14473 0.358354 0)
(0.168683 0.355963 0)
(0.191899 0.34757 0)
(0.212885 0.335842 0)
(0.229623 0.321349 0)
(0.243634 0.307031 0)
(0.252126 0.295969 0)
(0.262154 0.287648 0)
(0.277927 0.289625 0)
(0.294886 0.283172 0)
(0.312563 0.288891 0)
(0.327365 0.357319 0)
(0.4398 0.417931 0)
(0.0130717 0.38556 0)
(0.0339973 0.371917 0)
(0.0522425 0.355763 0)
(0.0618703 0.346737 0)
(0.0700518 0.339429 0)
(0.0782323 0.336005 0)
(0.0854717 0.333955 0)
(0.0950922 0.334596 0)
(0.106785 0.334995 0)
(0.120913 0.336507 0)
(0.139526 0.336961 0)
(0.160836 0.333942 0)
(0.180726 0.325921 0)
(0.200142 0.316991 0)
(0.216573 0.305943 0)
(0.231662 0.296788 0)
(0.242076 0.287519 0)
(0.252974 0.276999 0)
(0.267457 0.273149 0)
(0.283378 0.269796 0)
(0.300436 0.277088 0)
(0.322951 0.30761 0)
(0.400831 0.322853 0)
(0.010252 0.36505 0)
(0.027979 0.352934 0)
(0.0441691 0.342728 0)
(0.0555231 0.336171 0)
(0.065572 0.330815 0)
(0.075098 0.327578 0)
(0.0842819 0.32492 0)
(0.0948412 0.323736 0)
(0.106458 0.322195 0)
(0.119776 0.32091 0)
(0.134956 0.318164 0)
(0.153066 0.313526 0)
(0.170019 0.307169 0)
(0.18641 0.299085 0)
(0.201699 0.289612 0)
(0.215402 0.281001 0)
(0.23046 0.272746 0)
(0.24449 0.262609 0)
(0.259815 0.256339 0)
(0.275109 0.252543 0)
(0.296541 0.256933 0)
(0.322455 0.26516 0)
(0.379112 0.259086 0)
(0.0088312 0.347534 0)
(0.0242575 0.336441 0)
(0.0391233 0.329591 0)
(0.0510065 0.324744 0)
(0.0620062 0.320573 0)
(0.0724281 0.317367 0)
(0.0830251 0.314341 0)
(0.094348 0.312283 0)
(0.106394 0.310003 0)
(0.11957 0.307211 0)
(0.133517 0.302773 0)
(0.148739 0.297857 0)
(0.164109 0.291974 0)
(0.179147 0.284185 0)
(0.193516 0.27529 0)
(0.207882 0.266078 0)
(0.222459 0.256868 0)
(0.236649 0.248243 0)
(0.250963 0.240807 0)
(0.268534 0.23553 0)
(0.289822 0.233993 0)
(0.317067 0.230238 0)
(0.359362 0.214407 0)
(0.00768089 0.332315 0)
(0.0213098 0.321736 0)
(0.0348856 0.316808 0)
(0.0467007 0.313072 0)
(0.0579683 0.309481 0)
(0.0688816 0.306225 0)
(0.0798319 0.302981 0)
(0.0912159 0.300121 0)
(0.103372 0.296968 0)
(0.116326 0.293894 0)
(0.129616 0.289322 0)
(0.142725 0.283216 0)
(0.156695 0.27667 0)
(0.171009 0.269446 0)
(0.185381 0.261172 0)
(0.199166 0.252057 0)
(0.213227 0.243456 0)
(0.227441 0.233811 0)
(0.243711 0.224546 0)
(0.261085 0.215396 0)
(0.281497 0.209908 0)
(0.306604 0.199311 0)
(0.339853 0.178727 0)
(0.00698476 0.318345 0)
(0.0195648 0.308299 0)
(0.0320614 0.304444 0)
(0.0435616 0.301457 0)
(0.05471 0.298368 0)
(0.0656871 0.295276 0)
(0.0766168 0.291929 0)
(0.0878391 0.288526 0)
(0.099599 0.284685 0)
(0.111822 0.280723 0)
(0.124516 0.27592 0)
(0.137143 0.269793 0)
(0.150211 0.262874 0)
(0.163156 0.255134 0)
(0.176898 0.246135 0)
(0.190718 0.237903 0)
(0.204795 0.228514 0)
(0.219391 0.218517 0)
(0.234077 0.207937 0)
(0.250007 0.198838 0)
(0.26928 0.188697 0)
(0.292406 0.171615 0)
(0.318278 0.151149 0)
(0.00642956 0.305844 0)
(0.0180751 0.296224 0)
(0.0297473 0.293079 0)
(0.040767 0.290559 0)
(0.05146 0.287623 0)
(0.0620819 0.28435 0)
(0.0727583 0.28083 0)
(0.0835871 0.277048 0)
(0.0947144 0.272807 0)
(0.106086 0.268271 0)
(0.11812 0.26346 0)
(0.13079 0.257261 0)
(0.143209 0.25051 0)
(0.156161 0.242301 0)
(0.168323 0.233823 0)
(0.180625 0.224551 0)
(0.193599 0.214515 0)
(0.207476 0.204635 0)
(0.222015 0.193101 0)
(0.238153 0.180466 0)
(0.256774 0.167476 0)
(0.275236 0.151776 0)
(0.295364 0.130489 0)
(0.00594086 0.293843 0)
(0.0167929 0.284582 0)
(0.0277932 0.281803 0)
(0.0384216 0.279554 0)
(0.0488508 0.2769 0)
(0.0591725 0.273817 0)
(0.0695191 0.270306 0)
(0.0799535 0.266337 0)
(0.0906432 0.261907 0)
(0.101437 0.257192 0)
(0.112685 0.25141 0)
(0.123661 0.244986 0)
(0.134986 0.237743 0)
(0.146727 0.230077 0)
(0.158465 0.221237 0)
(0.171228 0.211412 0)
(0.184003 0.201468 0)
(0.197069 0.189913 0)
(0.211079 0.178031 0)
(0.22441 0.165398 0)
(0.23989 0.150953 0)
(0.256535 0.132895 0)
(0.273561 0.112725 0)
(0.00547818 0.283054 0)
(0.01554 0.274051 0)
(0.0257781 0.271428 0)
(0.0358196 0.269268 0)
(0.0457205 0.26667 0)
(0.0555732 0.263629 0)
(0.0654039 0.260012 0)
(0.0752859 0.25591 0)
(0.0853034 0.251331 0)
(0.0955376 0.246268 0)
(0.106175 0.240649 0)
(0.117043 0.234116 0)
(0.128035 0.226425 0)
(0.139031 0.218278 0)
(0.15022 0.209314 0)
(0.161348 0.199831 0)
(0.172577 0.189072 0)
(0.184377 0.177956 0)
(0.196926 0.165182 0)
(0.210077 0.150584 0)
(0.224245 0.135368 0)
(0.237845 0.118274 0)
(0.25183 0.0983557 0)
(0.00512488 0.272726 0)
(0.0146274 0.263985 0)
(0.024293 0.261583 0)
(0.0338056 0.25957 0)
(0.0431763 0.257056 0)
(0.0525612 0.254018 0)
(0.0619102 0.250372 0)
(0.0712769 0.246156 0)
(0.080681 0.241355 0)
(0.0902681 0.235947 0)
(0.0999499 0.230005 0)
(0.109739 0.223313 0)
(0.119641 0.2159 0)
(0.129729 0.207632 0)
(0.139849 0.198562 0)
(0.150401 0.188321 0)
(0.161472 0.177269 0)
(0.172654 0.165245 0)
(0.184227 0.152586 0)
(0.195534 0.138737 0)
(0.207218 0.122958 0)
(0.219092 0.105239 0)
(0.231024 0.0859459 0)
(0.00473408 0.263306 0)
(0.0135248 0.254708 0)
(0.0224926 0.252376 0)
(0.0313643 0.250419 0)
(0.0401274 0.247953 0)
(0.0489291 0.244902 0)
(0.057727 0.241281 0)
(0.0665593 0.237107 0)
(0.0754226 0.232337 0)
(0.0843683 0.226947 0)
(0.0934079 0.220911 0)
(0.102693 0.214142 0)
(0.112016 0.206462 0)
(0.121435 0.19803 0)
(0.130916 0.188715 0)
(0.140558 0.178415 0)
(0.150201 0.1674 0)
(0.159915 0.155336 0)
(0.16998 0.142056 0)
(0.180229 0.127374 0)
(0.190694 0.111721 0)
(0.200782 0.0944292 0)
(0.210817 0.0755222 0)
(0.00440756 0.254367 0)
(0.0126405 0.245925 0)
(0.0210183 0.24363 0)
(0.0293381 0.241717 0)
(0.0375539 0.239257 0)
(0.0457822 0.236184 0)
(0.0539739 0.232519 0)
(0.0621555 0.228262 0)
(0.0703407 0.223368 0)
(0.0785618 0.217848 0)
(0.0868264 0.211655 0)
(0.0952222 0.204832 0)
(0.10364 0.19718 0)
(0.112176 0.188654 0)
(0.120856 0.179272 0)
(0.129596 0.168871 0)
(0.138447 0.157551 0)
(0.1474 0.145447 0)
(0.156309 0.132339 0)
(0.165212 0.117999 0)
(0.174053 0.102274 0)
(0.182724 0.0851019 0)
(0.191186 0.0666517 0)
(0.00403008 0.246247 0)
(0.0116509 0.237974 0)
(0.019413 0.235716 0)
(0.027139 0.233869 0)
(0.034768 0.231479 0)
(0.0423926 0.22848 0)
(0.0499647 0.224874 0)
(0.0575188 0.220643 0)
(0.0650798 0.215762 0)
(0.072639 0.210215 0)
(0.0802074 0.203965 0)
(0.0878235 0.196952 0)
(0.0955101 0.189134 0)
(0.103234 0.180528 0)
(0.111019 0.171137 0)
(0.118817 0.160762 0)
(0.126634 0.149484 0)
(0.134469 0.137328 0)
(0.142247 0.124044 0)
(0.150061 0.109606 0)
(0.157698 0.0940569 0)
(0.165065 0.0772306 0)
(0.172092 0.0592085 0)
(0.0037167 0.238619 0)
(0.0107614 0.230301 0)
(0.0179262 0.228044 0)
(0.0250687 0.22623 0)
(0.0321021 0.223869 0)
(0.0391209 0.220914 0)
(0.0460638 0.217364 0)
(0.0529411 0.213175 0)
(0.059763 0.208322 0)
(0.0666025 0.202754 0)
(0.0734551 0.1965 0)
(0.0803338 0.189529 0)
(0.0872714 0.181817 0)
(0.0942249 0.173246 0)
(0.101175 0.163789 0)
(0.108067 0.153347 0)
(0.114883 0.142015 0)
(0.121668 0.129823 0)
(0.128434 0.116695 0)
(0.135127 0.102488 0)
(0.141583 0.0871673 0)
(0.147758 0.0706559 0)
(0.153533 0.0530513 0)
(0.00337858 0.23173 0)
(0.00991162 0.223564 0)
(0.0165058 0.221372 0)
(0.0230758 0.21963 0)
(0.0295008 0.217322 0)
(0.0359068 0.214427 0)
(0.042218 0.210885 0)
(0.0484732 0.206698 0)
(0.0546542 0.20186 0)
(0.0607857 0.196314 0)
(0.066882 0.190021 0)
(0.0729093 0.182978 0)
(0.0789264 0.175101 0)
(0.0849794 0.166448 0)
(0.0910447 0.157089 0)
(0.0971171 0.146912 0)
(0.103166 0.135771 0)
(0.109087 0.123639 0)
(0.114793 0.110504 0)
(0.120367 0.0964259 0)
(0.125746 0.0813714 0)
(0.130832 0.0652328 0)
(0.135468 0.0480483 0)
(0.00310099 0.225263 0)
(0.00905502 0.217105 0)
(0.0150271 0.214864 0)
(0.0210063 0.213195 0)
(0.0268291 0.210965 0)
(0.0326536 0.208146 0)
(0.0384124 0.204782 0)
(0.044116 0.200771 0)
(0.0497309 0.196043 0)
(0.0552335 0.190613 0)
(0.0606177 0.184411 0)
(0.0658839 0.177392 0)
(0.0710796 0.169552 0)
(0.0762295 0.160948 0)
(0.0813312 0.151463 0)
(0.0863499 0.141088 0)
(0.0913064 0.129936 0)
(0.0962562 0.118113 0)
(0.101209 0.105394 0)
(0.105909 0.0915623 0)
(0.110255 0.0766843 0)
(0.114308 0.0608462 0)
(0.117907 0.0440856 0)
(0.00286184 0.219477 0)
(0.00828482 0.21146 0)
(0.0135514 0.209356 0)
(0.0189164 0.207761 0)
(0.0241093 0.205565 0)
(0.0293183 0.202795 0)
(0.0345047 0.199419 0)
(0.0396539 0.195418 0)
(0.0447323 0.19074 0)
(0.0496936 0.185423 0)
(0.0545176 0.179394 0)
(0.0592139 0.172587 0)
(0.063793 0.164971 0)
(0.0681369 0.156466 0)
(0.0723042 0.147098 0)
(0.0763171 0.136886 0)
(0.0802463 0.125785 0)
(0.0840791 0.113649 0)
(0.0877278 0.100739 0)
(0.0913601 0.0872701 0)
(0.0949781 0.0729387 0)
(0.0981732 0.0575197 0)
(0.100827 0.041139 0)
(0.0027079 0.214187 0)
(0.00743694 0.206422 0)
(0.0119579 0.204254 0)
(0.0165946 0.202716 0)
(0.0210582 0.20056 0)
(0.0255604 0.197792 0)
(0.0300464 0.194389 0)
(0.03453 0.190425 0)
(0.0389724 0.185924 0)
(0.0433647 0.18076 0)
(0.0476258 0.174871 0)
(0.0516865 0.168182 0)
(0.0555545 0.160673 0)
(0.0593041 0.152379 0)
(0.0629392 0.143267 0)
(0.0664235 0.133307 0)
(0.0697509 0.122442 0)
(0.0726728 0.110722 0)
(0.0753528 0.0980776 0)
(0.0778722 0.0843124 0)
(0.0800103 0.0698354 0)
(0.0822377 0.0548763 0)
(0.084136 0.0390679 0)
(0.00257425 0.209216 0)
(0.00652095 0.202301 0)
(0.00978789 0.200313 0)
(0.013504 0.198787 0)
(0.0170332 0.196625 0)
(0.0207112 0.193843 0)
(0.0243621 0.19043 0)
(0.0280952 0.186406 0)
(0.0319509 0.181766 0)
(0.0358297 0.176585 0)
(0.0397274 0.170831 0)
(0.0435589 0.164403 0)
(0.0471512 0.157158 0)
(0.05047 0.149052 0)
(0.0534969 0.14009 0)
(0.0561844 0.130204 0)
(0.0585783 0.119481 0)
(0.0609028 0.108014 0)
(0.0631152 0.0956923 0)
(0.0649183 0.0825896 0)
(0.0663452 0.0685416 0)
(0.0673209 0.0533663 0)
(0.0679633 0.0376533 0)
(0.00218777 0.205053 0)
(0.00487682 0.198729 0)
(0.0068498 0.196686 0)
(0.0092865 0.195006 0)
(0.0115358 0.192761 0)
(0.0140823 0.189992 0)
(0.0165603 0.186581 0)
(0.0191562 0.182593 0)
(0.0217756 0.178055 0)
(0.0246058 0.17289 0)
(0.0276115 0.167134 0)
(0.0307852 0.160726 0)
(0.0340968 0.153653 0)
(0.0374035 0.145867 0)
(0.0406331 0.137301 0)
(0.0436586 0.127916 0)
(0.0463406 0.117661 0)
(0.0485699 0.106445 0)
(0.0502283 0.0942952 0)
(0.0515223 0.0813694 0)
(0.0525455 0.0676603 0)
(0.0531134 0.0533047 0)
(0.0528209 0.0379999 0)
(0.00171754 0.201972 0)
(0.00276812 0.197621 0)
(0.00270362 0.196065 0)
(0.003319 0.194367 0)
(0.00377026 0.192098 0)
(0.00468591 0.189188 0)
(0.00571336 0.185616 0)
(0.00699695 0.181374 0)
(0.00853088 0.176465 0)
(0.0103025 0.170879 0)
(0.012326 0.164676 0)
(0.0146309 0.157935 0)
(0.0171768 0.150598 0)
(0.019907 0.142602 0)
(0.0228179 0.133921 0)
(0.02582 0.124579 0)
(0.0287674 0.114508 0)
(0.0315384 0.103734 0)
(0.0339904 0.0922151 0)
(0.035927 0.0799496 0)
(0.0371405 0.0669003 0)
(0.0375826 0.0529825 0)
(0.0372124 0.0382863 0)
(0.000898993 0.200423 0)
(0.000523065 0.197323 0)
(-0.000970803 0.195472 0)
(-0.00149605 0.193139 0)
(-0.00215953 0.19038 0)
(-0.00241751 0.18714 0)
(-0.00245711 0.183398 0)
(-0.00222315 0.179073 0)
(-0.00169141 0.174122 0)
(-0.000904634 0.168539 0)
(0.000189296 0.162347 0)
(0.00159342 0.15557 0)