/*--------------------------------*- C++ -*----------------------------------*\
| =========                 |                                                 |
| \\      /  F ield         | OpenFOAM: The Open Source CFD Toolbox           |
|  \\    /   O peration     | Version:  2.4.0                                 |
|   \\  /    A nd           | Web:      www.OpenFOAM.org                      |
|    \\/     M anipulation  |                                                 |
\*---------------------------------------------------------------------------*/
FoamFile
{
    version     2.0;
    format      ascii;
    class       volVectorField;
    location    "0.85";
    object      U.mercury;
}
// * * * * * * * * * * * * * * * * * * * * * * * * * * * * * * * * * * * * * //

dimensions      [0 1 -1 0 0 0 0];

internalField   nonuniform List<vector> 
2268
(
(0.0018994 -0.073362 0)
(0.00113274 -0.0792716 0)
(-0.00318645 -0.0841982 0)
(-0.0422565 -0.0745903 0)
(-0.090601 -0.0522494 0)
(-0.147569 -0.0144492 0)
(-0.211716 0.0130047 0)
(-0.254437 0.0202243 0)
(-0.263638 0.0174508 0)
(-0.257705 0.0133559 0)
(-0.246019 0.00711061 0)
(-0.234125 -0.00314128 0)
(-0.211525 -0.00792939 0)
(-0.182171 -0.00976419 0)
(-0.153876 -0.00972369 0)
(-0.135864 -0.00628188 0)
(-0.125095 -0.00428018 0)
(-0.116794 -0.00428011 0)
(-0.103325 -0.00391057 0)
(-0.0795999 -0.00744292 0)
(-0.055031 -0.00131614 0)
(-0.0477326 0.000852636 0)
(-0.0333346 -0.0121355 0)
(0.00162285 0.07387 0)
(-0.00350906 0.0838511 0)
(-0.00102722 0.111458 0)
(-0.024325 0.123834 0)
(-0.0629564 0.100971 0)
(-0.125042 0.0668297 0)
(-0.198514 0.0331229 0)
(-0.256834 0.00423556 0)
(-0.270789 -0.0154616 0)
(-0.264857 -0.0215542 0)
(-0.251528 -0.0176869 0)
(-0.232586 -0.0132376 0)
(-0.207384 -0.0163082 0)
(-0.178713 -0.01779 0)
(-0.152795 -0.0123324 0)
(-0.135343 -0.0073826 0)
(-0.122122 -0.00473805 0)
(-0.112787 -0.00613821 0)
(-0.0980826 -0.012291 0)
(-0.0722047 -0.0173728 0)
(-0.0518324 -0.0146242 0)
(-0.0291525 -0.010153 0)
(-0.0125959 -0.0276823 0)
(0.0119772 -0.136302 0)
(0.0130337 -0.131155 0)
(0.00133959 -0.10475 0)
(-0.034811 -0.0661112 0)
(-0.108142 0.00462185 0)
(-0.168449 0.0753147 0)
(-0.220672 0.0769071 0)
(-0.26432 0.0445644 0)
(-0.275982 0.0180192 0)
(-0.26901 0.00250146 0)
(-0.250881 -0.00996564 0)
(-0.226045 -0.0247503 0)
(-0.200904 -0.0341768 0)
(-0.177518 -0.0344993 0)
(-0.153956 -0.0281141 0)
(-0.138477 -0.0190843 0)
(-0.121488 -0.0138436 0)
(-0.107539 -0.015228 0)
(-0.0920493 -0.0229776 0)
(-0.0706505 -0.0295074 0)
(-0.0555838 -0.0222073 0)
(-0.0206387 -0.0161513 0)
(-0.00629246 -0.0301215 0)
(0.00490415 -0.292758 0)
(-0.00821522 -0.265288 0)
(-0.0258575 -0.181502 0)
(-0.0497459 -0.052301 0)
(-0.121257 0.0359371 0)
(-0.216331 0.0865807 0)
(-0.270667 0.0740144 0)
(-0.289864 0.0325937 0)
(-0.292084 -0.0105115 0)
(-0.273467 -0.0313108 0)
(-0.246333 -0.0356145 0)
(-0.221277 -0.0358635 0)
(-0.199526 -0.0398943 0)
(-0.176792 -0.0408409 0)
(-0.152559 -0.0303793 0)
(-0.130805 -0.0232247 0)
(-0.10951 -0.0199415 0)
(-0.0948262 -0.0174141 0)
(-0.0857269 -0.0252079 0)
(-0.0819065 -0.0310404 0)
(-0.0756529 -0.0382866 0)
(-0.0332096 -0.0331674 0)
(-0.0111912 -0.0393056 0)
(-0.00830573 -0.217302 0)
(-0.0161506 -0.21817 0)
(-0.0232696 -0.23764 0)
(-0.0398612 -0.168593 0)
(-0.151876 -0.040415 0)
(-0.288844 0.0788854 0)
(-0.326251 0.0882648 0)
(-0.341125 0.0466628 0)
(-0.338793 0.00774979 0)
(-0.318047 -0.0188984 0)
(-0.282986 -0.0345818 0)
(-0.245931 -0.0452925 0)
(-0.214359 -0.0521207 0)
(-0.191249 -0.0523457 0)
(-0.163068 -0.0467645 0)
(-0.131378 -0.0386662 0)
(-0.102819 -0.0332593 0)
(-0.0887155 -0.0328026 0)
(-0.0848056 -0.0375781 0)
(-0.0852675 -0.0438866 0)
(-0.0799475 -0.051642 0)
(-0.0533828 -0.0506967 0)
(-0.0166767 -0.0426682 0)
(-0.0233533 0.17766 0)
(-0.0749126 0.194878 0)
(-0.162654 0.188054 0)
(-0.41493 0.00129583 0)
(-0.446963 -0.0290145 0)
(-0.436126 0.0437789 0)
(-0.437825 0.0705438 0)
(-0.414976 0.0299704 0)
(-0.389173 -0.0238458 0)
(-0.369282 -0.0531173 0)
(-0.329542 -0.0626683 0)
(-0.285072 -0.0656355 0)
(-0.247472 -0.0686752 0)
(-0.218259 -0.0708546 0)
(-0.188665 -0.0645 0)
(-0.158225 -0.0519183 0)
(-0.128371 -0.0328965 0)
(-0.101308 -0.0147599 0)
(-0.0893088 -0.012766 0)
(-0.082035 -0.0195595 0)
(-0.0707729 -0.0402515 0)
(-0.0505195 -0.0618945 0)
(-0.0338879 -0.110896 0)
(-0.00683036 -0.10299 0)
(-0.0220256 -0.0753995 0)
(-0.0572203 -0.0214695 0)
(-0.335528 -0.00549528 0)
(-0.50045 -0.0499646 0)
(-0.51973 0.00351422 0)
(-0.543609 0.027645 0)
(-0.532843 0.0233737 0)
(-0.481971 -0.00815733 0)
(-0.420328 -0.0553153 0)
(-0.36637 -0.10413 0)
(-0.303151 -0.134575 0)
(-0.236807 -0.163892 0)
(-0.189956 -0.184859 0)
(-0.177865 -0.187373 0)
(-0.175292 -0.169744 0)
(-0.168679 -0.142741 0)
(-0.136219 -0.113563 0)
(-0.0974562 -0.0984156 0)
(-0.0755843 -0.10009 0)
(-0.0593714 -0.125444 0)
(-0.0924853 -0.164901 0)
(-0.107075 -0.23079 0)
(-0.0164676 0.124577 0)
(-0.0508004 0.138972 0)
(-0.0868618 0.152789 0)
(-0.190626 0.134978 0)
(-0.449278 -0.0505693 0)
(-0.457705 -0.0305562 0)
(-0.495944 -0.0318169 0)
(-0.512859 -0.0746987 0)
(-0.489374 -0.143524 0)
(-0.447343 -0.194704 0)
(-0.38849 -0.23567 0)
(-0.305226 -0.31683 0)
(-0.184974 -0.424516 0)
(-0.116012 -0.463098 0)
(-0.111995 -0.460027 0)
(-0.169316 -0.434746 0)
(-0.206981 -0.387702 0)
(-0.182632 -0.332817 0)
(-0.117436 -0.297874 0)
(-0.0799197 -0.27567 0)
(-0.0745323 -0.274408 0)
(-0.15904 -0.399581 0)
(-0.169708 -0.736377 0)
(-0.100621 -0.184698 0)
(0.193168 -0.228101 0)
(0.312288 -0.25705 0)
(0.358621 -0.306285 0)
(0.377648 -0.331166 0)
(0.391727 -0.331497 0)
(0.409785 -0.316385 0)
(0.431488 -0.292782 0)
(0.444203 -0.266524 0)
(0.473275 -0.243114 0)
(0.492847 -0.230038 0)
(0.524136 -0.236209 0)
(0.525703 -0.225154 0)
(0.505699 -0.197714 0)
(0.450533 -0.142528 0)
(0.352512 -0.0923697 0)
(0.158264 -0.0538559 0)
(-0.0540644 -0.0973608 0)
(-0.0215073 -0.146107 0)
(-0.0977235 0.0364849 0)
(0.217627 -0.257309 0)
(0.375985 -0.167975 0)
(0.47377 -0.0973182 0)
(0.520227 -0.0643325 0)
(0.538692 -0.0415109 0)
(0.539096 -0.0272077 0)
(0.536385 -0.0257299 0)
(0.537377 -0.0350589 0)
(0.541964 -0.0392834 0)
(0.54311 -0.0354309 0)
(0.547234 -0.0244215 0)
(0.547156 0.0068446 0)
(0.498494 0.0479396 0)
(0.455208 0.137318 0)
(0.323529 0.143953 0)
(0.16496 0.141843 0)
(0.00276635 0.114801 0)
(-0.0731212 0.0538322 0)
(0.250699 -0.465622 0)
(0.230021 -0.965737 0)
(0.220098 -0.976475 0)
(0.392125 -0.547429 0)
(0.540397 -0.302223 0)
(0.618946 -0.251256 0)
(0.64525 -0.223111 0)
(0.638226 -0.210343 0)
(0.616097 -0.206924 0)
(0.578707 -0.194357 0)
(0.479553 -0.191424 0)
(-0.103138 -0.342771 0)
(-0.242872 -0.320108 0)
(-0.260552 -0.195738 0)
(-0.00142869 -0.0582877 0)
(0.203962 0.089977 0)
(0.146423 0.133506 0)
(0.0193933 0.0735561 0)
(-0.0262683 -0.119667 0)
(0.154864 -1.12796 0)
(0.132403 -1.11354 0)
(0.104293 -0.955916 0)
(0.34701 -0.244368 0)
(0.478061 -0.08085 0)
(0.538769 -0.0264989 0)
(0.547297 0.0107077 0)
(0.517087 0.0257055 0)
(0.431525 0.0204255 0)
(0.37342 0.003765 0)
(0.306019 -1.88127e-05 0)
(-0.259793 -0.251747 0)
(-0.361325 -0.222818 0)
(-0.407995 -0.179974 0)
(-0.373205 -0.144683 0)
(-0.0240429 0.0022483 0)
(0.10362 0.156005 0)
(0.0386628 0.128286 0)
(0.0268783 0.00578272 0)
(0.145533 -1.18344 0)
(0.117435 -1.10077 0)
(0.0931002 -0.821547 0)
(0.147104 -0.277676 0)
(0.276422 -0.240882 0)
(0.3633 -0.19117 0)
(0.403226 -0.136975 0)
(0.406025 -0.0909092 0)
(0.351778 -0.0692697 0)
(0.275625 -0.0369164 0)
(0.219573 0.0260047 0)
(-0.267106 -0.198173 0)
(-0.358506 -0.193885 0)
(-0.40119 -0.1922 0)
(-0.399579 -0.227138 0)
(-0.26587 -0.110126 0)
(0.0245762 0.133453 0)
(0.0238827 0.130102 0)
(0.0587743 -0.0586476 0)
(0.139375 -1.13068 0)
(0.119076 -1.09627 0)
(0.0109011 -0.596814 0)
(0.0273987 -0.299241 0)
(0.142408 -0.217728 0)
(0.274696 -0.122498 0)
(0.286114 -0.0564245 0)
(0.242566 -0.00596618 0)
(0.185424 0.00137336 0)
(0.135761 -0.0123213 0)
(0.132243 0.0216448 0)
(-0.135638 -0.147511 0)
(-0.242522 -0.203962 0)
(-0.300505 -0.218463 0)
(-0.324431 -0.29629 0)
(-0.290954 -0.247229 0)
(-0.0154029 0.0351998 0)
(0.0233295 0.11257 0)
(0.0865017 0.0224841 0)
(0.140582 -1.14415 0)
(0.127266 -1.13181 0)
(-0.00855589 -0.418472 0)
(-0.000968009 -0.355903 0)
(0.0325467 -0.302921 0)
(0.185842 -0.189216 0)
(0.265969 -0.0675068 0)
(0.206815 0.0112676 0)
(0.119822 0.0518127 0)
(0.0360166 0.0432508 0)
(0.0357984 0.0610741 0)
(-0.0222043 0.000919848 0)
(-0.138514 -0.260173 0)
(-0.230698 -0.285302 0)
(-0.275026 -0.392356 0)
(-0.29454 -0.33256 0)
(-0.153989 -0.0338971 0)
(0.00688996 0.0887756 0)
(0.0939218 -0.00890846 0)
(0.143861 -1.18846 0)
(0.102327 -1.05991 0)
(0.0132304 -0.355793 0)
(-0.00814334 -0.378581 0)
(0.00332385 -0.357681 0)
(0.0462778 -0.267201 0)
(0.1992 -0.0879772 0)
(0.168564 0.0164882 0)
(0.0782865 0.054651 0)
(-0.00403414 0.0328173 0)
(0.0010734 0.0486683 0)
(0.0101445 0.136577 0)
(-0.0204817 -0.201474 0)
(-0.123572 -0.30092 0)
(-0.185845 -0.448976 0)
(-0.222661 -0.458676 0)
(-0.281711 -0.215377 0)
(-0.0504565 -0.0377691 0)
(0.0839102 -0.0105485 0)
(0.01931 -0.0585955 0)
(0.0446636 -0.0200169 0)
(0.0554317 0.058553 0)
(0.0436637 0.150259 0)
(-0.229929 0.0056962 0)
(-0.270118 -0.0432963 0)
(-0.236135 -0.0270332 0)
(-0.196837 -0.0568962 0)
(-0.156238 -0.114943 0)
(-0.139706 -0.197313 0)
(-0.114837 -0.343055 0)
(-0.0815671 -0.547709 0)
(-0.12289 -0.626202 0)
(-0.145001 -0.624108 0)
(-0.150732 -0.613078 0)
(-0.155426 -0.589672 0)
(-0.153811 -0.583141 0)
(-0.136065 -0.581203 0)
(-0.121698 -0.556427 0)
(-0.113594 -0.492711 0)
(-0.108107 -0.46137 0)
(-0.105943 -0.58068 0)
(-0.103867 -0.949373 0)
(0.0146584 0.0922227 0)
(0.034715 0.121951 0)
(0.0437021 0.15059 0)
(0.0437647 0.186606 0)
(-0.00846725 0.173776 0)
(-0.0581532 0.0431132 0)
(-0.0987808 -0.104924 0)
(-0.0539639 -0.204703 0)
(-0.00509715 -0.326233 0)
(0.0352285 -0.443138 0)
(0.0669882 -0.516104 0)
(0.0926167 -0.564674 0)
(0.183814 -0.407704 0)
(0.16604 -0.240419 0)
(0.160124 -0.13271 0)
(0.144043 -0.040754 0)
(0.111434 -0.0120022 0)
(0.0634312 -0.0371073 0)
(-0.000547914 -0.0668621 0)
(-0.0494839 -0.107185 0)
(-0.0517137 -0.166515 0)
(-0.0163581 -0.191256 0)
(-0.0110699 -0.175668 0)
(0.0604666 -0.0722636 0)
(0.118162 -0.00272986 0)
(0.146182 0.118484 0)
(0.124331 0.183309 0)
(0.116915 0.22338 0)
(0.0855934 0.168946 0)
(0.0408702 0.0200488 0)
(0.050008 -0.0822026 0)
(0.0718941 -0.189804 0)
(0.137347 -0.221321 0)
(0.186341 -0.185513 0)
(0.191581 -0.167919 0)
(0.164306 -0.177149 0)
(0.167578 -0.15151 0)
(0.18202 -0.106484 0)
(0.175684 -0.0499084 0)
(0.121056 -0.00356727 0)
(0.0507683 0.02863 0)
(0.00160224 0.0453204 0)
(-0.112585 0.0039199 0)
(-0.380154 -0.151818 0)
(-0.634104 -0.238045 0)
(-0.665681 -0.304183 0)
(0.065065 -0.133412 0)
(0.133301 0.00633963 0)
(0.118571 0.116036 0)
(0.0716343 0.173519 0)
(0.0853881 0.207748 0)
(0.0868762 0.19074 0)
(0.0966499 0.132231 0)
(0.123934 0.0573178 0)
(0.152975 -0.0248383 0)
(0.164838 -0.0919079 0)
(0.16066 -0.115471 0)
(0.12858 -0.132209 0)
(0.0943675 -0.234001 0)
(0.0635568 -0.257649 0)
(-0.0374176 -0.199771 0)
(-0.109612 -0.0886017 0)
(-0.156377 -0.0161793 0)
(-0.345686 0.0184164 0)
(-0.542219 0.0622742 0)
(-0.762519 0.149896 0)
(-0.992633 0.0530039 0)
(-1.26644 -0.604137 0)
(-1.33944 -1.11575 0)
(0.02419 -0.268183 0)
(-0.0249914 -0.0354225 0)
(-0.0321981 0.206217 0)
(-0.0876769 0.227674 0)
(-0.0431168 0.236052 0)
(-0.041989 0.228028 0)
(-0.0211924 0.179809 0)
(0.00931481 0.125119 0)
(0.0759602 0.0566309 0)
(0.146658 -0.037193 0)
(0.153894 -0.106528 0)
(-0.0928771 -0.132138 0)
(-0.83465 -0.0484413 0)
(-1.09771 0.026242 0)
(-1.07633 0.0482445 0)
(-1.01879 0.153581 0)
(-1.09576 0.28194 0)
(-1.23853 0.316851 0)
(-1.31773 0.230783 0)
(-1.4273 -0.022096 0)
(-1.71377 -0.594699 0)
(-1.77188 -1.00379 0)
(-1.49069 -1.17557 0)
(-0.0812314 -0.130365 0)
(-0.188934 0.0809633 0)
(-0.18422 0.192382 0)
(-0.190022 0.206645 0)
(-0.16484 0.197306 0)
(-0.11978 0.168537 0)
(-0.0779652 0.0856491 0)
(-0.106095 -0.0571289 0)
(-0.179713 -0.308439 0)
(-0.245961 -0.512411 0)
(-0.193967 -0.199231 0)
(-0.441379 -0.0676185 0)
(-1.29099 -0.032655 0)
(-1.34757 -0.135212 0)
(-1.2921 -0.107158 0)
(-1.30155 0.125206 0)
(-1.32554 0.253601 0)
(-1.32212 0.266371 0)
(-1.36763 0.21066 0)
(-1.49961 -0.0667496 0)
(-1.78992 -0.775684 0)
(-1.59313 -1.0164 0)
(-1.55214 -1.06083 0)
(-0.122983 -0.0663151 0)
(-0.254914 0.0215669 0)
(-0.31998 0.0273433 0)
(-0.321541 -0.0247408 0)
(-0.285031 -0.0862604 0)
(-0.239974 -0.148029 0)
(-0.211694 -0.234543 0)
(-0.19055 -0.280815 0)
(-0.331249 0.0410225 0)
(-1.05173 0.569611 0)
(-1.06215 0.705918 0)
(-1.34473 0.463249 0)
(-1.55791 -0.139569 0)
(-1.32908 -0.139033 0)
(-1.25795 -0.0115128 0)
(-1.28606 0.160122 0)
(-1.29336 0.226783 0)
(-1.2998 0.239273 0)
(-1.35695 0.20147 0)
(-1.58722 0.110402 0)
(-1.68751 0.403481 0)
(-1.56233 -0.693932 0)
(-1.50098 -1.05128 0)
(-0.239763 -0.0989078 0)
(-0.344234 -0.0894313 0)
(-0.379709 -0.0950827 0)
(-0.365987 -0.118707 0)
(-0.344505 -0.119547 0)
(-0.34696 -0.0661583 0)
(-0.498189 0.0308068 0)
(-0.658928 0.199391 0)
(-0.817525 0.398089 0)
(-0.954393 0.293992 0)
(-0.91997 0.642658 0)
(-0.994089 1.07305 0)
(-1.45388 0.0686776 0)
(-1.41512 -0.12985 0)
(-1.22946 -0.0342012 0)
(-1.17158 0.121773 0)
(-1.19298 0.245496 0)
(-1.21234 0.286807 0)
(-1.33078 0.3531 0)
(-1.26442 0.764217 0)
(-1.34969 0.76235 0)
(-1.14905 0.0367302 0)
(-1.26058 -0.246313 0)
(-0.302631 -0.0139616 0)
(-0.433231 0.294984 0)
(-0.552938 0.174753 0)
(-0.505092 0.0166906 0)
(-0.444423 -0.0397281 0)
(-0.377571 -0.00949786 0)
(-0.33981 0.0960938 0)
(-0.525115 0.322553 0)
(-0.659063 0.496977 0)
(-0.745951 0.504535 0)
(-0.677744 0.737304 0)
(-0.59506 0.992448 0)
(-0.623545 0.662281 0)
(-1.39973 -0.0454859 0)
(-1.30918 -0.0315315 0)
(-1.11929 0.0424976 0)
(-1.05812 0.169327 0)
(-1.07552 0.295397 0)
(-1.20134 0.648539 0)
(-0.910624 0.908794 0)
(-1.37959 0.710296 0)
(-1.36955 -0.144039 0)
(-1.52066 -0.391299 0)
(-0.24312 0.697 0)
(-0.316044 0.477629 0)
(-0.335377 0.285075 0)
(-0.299945 0.229147 0)
(-0.30142 0.248631 0)
(-0.33844 0.332981 0)
(-0.298228 0.452894 0)
(-0.428231 0.566828 0)
(-0.458147 0.618378 0)
(-0.535705 0.516341 0)
(-0.536464 0.564458 0)
(-0.368034 0.739537 0)
(-0.166336 0.708899 0)
(-0.523976 0.459808 0)
(-1.27741 0.0511886 0)
(-1.16009 0.0299247 0)
(-1.03838 0.0929828 0)
(-0.99241 0.209008 0)
(-1.07729 0.64747 0)
(-0.855133 1.03415 0)
(-1.22193 0.933407 0)
(-1.3711 0.298713 0)
(-1.57098 -0.0537019 0)
(-0.152068 0.927249 0)
(-0.0805282 0.571389 0)
(-0.18065 0.21708 0)
(-0.185146 0.0613704 0)
(-0.170376 0.0493298 0)
(-0.162529 0.162483 0)
(-0.169923 0.399646 0)
(-0.190271 0.622302 0)
(-0.226973 0.67268 0)
(-0.244638 0.601975 0)
(-0.262372 0.562529 0)
(-0.140657 0.596242 0)
(-0.0427181 0.633114 0)
(0.0268293 0.688958 0)
(-0.39172 0.485259 0)
(-0.854257 0.195302 0)
(-0.950232 0.107217 0)
(-0.948177 0.228236 0)
(-0.924432 0.544514 0)
(-0.645183 1.12275 0)
(-0.632654 1.23204 0)
(-0.92368 0.64649 0)
(-1.02115 -0.00391814 0)
(0.00803383 1.00646 0)
(0.0771867 0.661275 0)
(-0.0121396 0.337649 0)
(-0.0478903 0.18365 0)
(-0.118884 0.156881 0)
(-0.129546 0.241742 0)
(-0.11489 0.3503 0)
(-0.0274617 0.585588 0)
(-0.0545875 0.665405 0)
(-0.0403681 0.622564 0)
(-0.068617 0.501105 0)
(0.019163 0.469933 0)
(0.058117 0.536551 0)
(0.161705 0.56642 0)
(0.239971 0.615948 0)
(0.145109 0.601368 0)
(-0.0536105 0.500056 0)
(-0.283217 0.429213 0)
(-0.484505 0.50358 0)
(-0.420762 0.832888 0)
(-0.134405 1.18422 0)
(-0.293249 0.98494 0)
(-0.690535 0.366823 0)
(0.0700774 0.939252 0)
(0.121222 0.652289 0)
(0.074121 0.379141 0)
(0.0589356 0.223476 0)
(-0.0124199 0.180723 0)
(-0.0406818 0.231843 0)
(-0.0713978 0.331545 0)
(0.0197372 0.554348 0)
(0.0429997 0.654205 0)
(0.0772339 0.617898 0)
(0.089836 0.48693 0)
(0.128834 0.44128 0)
(0.147192 0.488049 0)
(0.217327 0.498555 0)
(0.280142 0.525901 0)
(0.348093 0.576749 0)
(0.39492 0.59975 0)
(0.381872 0.656344 0)
(0.258207 0.70824 0)
(0.167359 0.810464 0)
(0.182801 1.08748 0)
(0.23968 1.14293 0)
(-0.10539 0.74941 0)
(0.0520019 0.780016 0)
(0.130042 0.628829 0)
(0.107086 0.399963 0)
(0.0941419 0.253864 0)
(0.0308581 0.214762 0)
(0.0146422 0.258102 0)
(-0.0227553 0.29589 0)
(0.0230167 0.486535 0)
(0.0907317 0.6125 0)
(0.148652 0.580996 0)
(0.184882 0.474338 0)
(0.187761 0.423508 0)
(0.194433 0.452953 0)
(0.234273 0.458005 0)
(0.270496 0.472809 0)
(0.328805 0.493393 0)
(0.404537 0.548849 0)
(0.476305 0.632931 0)
(0.521002 0.730576 0)
(0.58234 0.845982 0)
(0.628143 1.07092 0)
(0.738293 1.24392 0)
(0.671888 1.1211 0)
(0.0182687 0.703674 0)
(0.11984 0.592904 0)
(0.119686 0.407314 0)
(0.121325 0.289879 0)
(0.0655513 0.257706 0)
(0.0443825 0.292253 0)
(0.00612682 0.305211 0)
(0.0198368 0.422911 0)
(0.0921058 0.523623 0)
(0.172737 0.521682 0)
(0.20324 0.455561 0)
(0.193306 0.415694 0)
(0.196209 0.429825 0)
(0.220736 0.423557 0)
(0.249638 0.425532 0)
(0.298832 0.43528 0)
(0.361242 0.467501 0)
(0.455315 0.56133 0)
(0.564306 0.668018 0)
(0.667036 0.766669 0)
(0.830184 0.910006 0)
(1.05634 1.15701 0)
(1.07419 1.09071 0)
(0.0288925 0.639988 0)
(0.110608 0.542487 0)
(0.128653 0.400618 0)
(0.130915 0.318289 0)
(0.0867226 0.299644 0)
(0.0643376 0.323647 0)
(0.0372929 0.334305 0)
(0.0290961 0.39358 0)
(0.0860257 0.449571 0)
(0.150181 0.467893 0)
(0.188567 0.447729 0)
(0.182475 0.424917 0)
(0.184487 0.420462 0)
(0.202551 0.40404 0)
(0.224373 0.394189 0)
(0.261394 0.391669 0)
(0.31001 0.406295 0)
(0.377901 0.450428 0)
(0.504268 0.55841 0)
(0.628249 0.612221 0)
(0.781464 0.692806 0)
(1.05952 0.998968 0)
(1.14924 0.960895 0)
(0.0460309 0.561064 0)
(0.0977771 0.492978 0)
(0.128562 0.393396 0)
(0.119152 0.338185 0)
(0.0901804 0.32429 0)
(0.0743249 0.338168 0)
(0.0602174 0.345541 0)
(0.0553378 0.377449 0)
(0.0845372 0.404555 0)
(0.126702 0.426197 0)
(0.159916 0.430317 0)
(0.17049 0.420826 0)
(0.178446 0.410856 0)
(0.19397 0.387855 0)
(0.208628 0.369205 0)
(0.23286 0.355583 0)
(0.264018 0.355259 0)
(0.30725 0.371141 0)
(0.394015 0.423758 0)
(0.496615 0.441324 0)
(0.61326 0.460665 0)
(0.864949 0.753055 0)
(1.03703 0.862726 0)
(0.0419961 0.494275 0)
(0.0774706 0.452287 0)
(0.110597 0.387799 0)
(0.0989221 0.353396 0)
(0.0857509 0.340998 0)
(0.0792176 0.345816 0)
(0.0755375 0.349742 0)
(0.0782558 0.366187 0)
(0.095222 0.378228 0)
(0.118377 0.395488 0)
(0.145427 0.408051 0)
(0.165684 0.406881 0)
(0.184808 0.394241 0)
(0.203341 0.372494 0)
(0.216575 0.352157 0)
(0.232114 0.333552 0)
(0.251522 0.322236 0)
(0.276487 0.320314 0)
(0.32268 0.343575 0)
(0.378953 0.342388 0)
(0.443968 0.336695 0)
(0.555071 0.529005 0)
(0.747364 0.69993 0)
(0.028455 0.445389 0)
(0.0571551 0.420616 0)
(0.0822118 0.37958 0)
(0.0826389 0.358753 0)
(0.0808212 0.347374 0)
(0.0813647 0.34633 0)
(0.0839716 0.347977 0)
(0.0908476 0.356067 0)
(0.104596 0.36235 0)
(0.121194 0.373546 0)
(0.1447 0.381976 0)
(0.168799 0.380054 0)
(0.192896 0.369806 0)
(0.213403 0.354508 0)
(0.229002 0.33696 0)
(0.243676 0.318339 0)
(0.255753 0.306089 0)
(0.268669 0.300351 0)
(0.290347 0.309969 0)
(0.315954 0.302566 0)
(0.348172 0.301463 0)
(0.372052 0.422111 0)
(0.539878 0.555539 0)
(0.0182957 0.411264 0)
(0.0427615 0.394504 0)
(0.0643879 0.368569 0)
(0.0710974 0.354628 0)
(0.0757602 0.345774 0)
(0.080678 0.343102 0)
(0.0862227 0.34181 0)
(0.0949272 0.345398 0)
(0.107409 0.348154 0)
(0.122826 0.354234 0)
(0.144617 0.358474 0)
(0.168561 0.356105 0)
(0.191772 0.347741 0)
(0.212758 0.336046 0)
(0.229514 0.321585 0)
(0.24355 0.307315 0)
(0.25208 0.296303 0)
(0.262171 0.288033 0)
(0.278017 0.290048 0)
(0.295058 0.283622 0)
(0.312812 0.289337 0)
(0.32768 0.357742 0)
(0.440162 0.418323 0)
(0.0130671 0.385614 0)
(0.0339834 0.371971 0)
(0.0522187 0.355819 0)
(0.0618368 0.346796 0)
(0.0700088 0.33949 0)
(0.0781792 0.336071 0)
(0.085409 0.334028 0)
(0.0950207 0.334677 0)
(0.106705 0.335086 0)
(0.120826 0.33661 0)
(0.139431 0.33708 0)
(0.160737 0.334082 0)
(0.180625 0.326084 0)
(0.200051 0.317182 0)
(0.216497 0.306165 0)
(0.231614 0.297043 0)
(0.242077 0.287813 0)
(0.253028 0.277329 0)
(0.267575 0.273507 0)
(0.283561 0.27017 0)
(0.300681 0.277459 0)
(0.323247 0.307963 0)
(0.401164 0.32318 0)
(0.0102473 0.365106 0)
(0.0279655 0.352991 0)
(0.044147 0.342787 0)
(0.0554924 0.336233 0)
(0.0655328 0.33088 0)
(0.0750504 0.327647 0)
(0.0842263 0.324995 0)
(0.0947786 0.323819 0)
(0.106389 0.322288 0)
(0.119702 0.321015 0)
(0.134879 0.318283 0)
(0.152987 0.313663 0)
(0.169944 0.307327 0)
(0.186341 0.299267 0)
(0.201653 0.289817 0)
(0.215391 0.281234 0)
(0.230488 0.273006 0)
(0.244571 0.262893 0)
(0.25995 0.256642 0)
(0.275296 0.252854 0)
(0.296778 0.25724 0)
(0.322734 0.265451 0)
(0.379421 0.259356 0)
(0.00882745 0.347593 0)
(0.0242458 0.336501 0)
(0.0391034 0.329652 0)
(0.0509788 0.324808 0)
(0.061971 0.32064 0)
(0.0723859 0.317439 0)
(0.0829766 0.314419 0)
(0.0942941 0.312368 0)
(0.106336 0.310097 0)
(0.119509 0.307317 0)
(0.133455 0.302892 0)
(0.148678 0.29799 0)
(0.164052 0.292125 0)
(0.179104 0.284355 0)
(0.193492 0.27548 0)
(0.20789 0.266289 0)
(0.222511 0.257098 0)
(0.236747 0.24849 0)
(0.251106 0.241064 0)
(0.268722 0.23579 0)
(0.290049 0.234247 0)
(0.31733 0.230478 0)
(0.359648 0.214627 0)
(0.00767701 0.332377 0)
(0.0212986 0.321799 0)
(0.0348675 0.316873 0)
(0.0466759 0.313139 0)
(0.0579371 0.309551 0)
(0.0688445 0.3063 0)
(0.0797899 0.303062 0)
(0.09117 0.300208 0)
(0.103324 0.297064 0)
(0.116276 0.294 0)
(0.129567 0.289439 0)
(0.142679 0.283346 0)
(0.156656 0.276815 0)
(0.17098 0.269606 0)
(0.185376 0.261348 0)
(0.199193 0.252249 0)
(0.213291 0.243661 0)
(0.227549 0.234026 0)
(0.243859 0.224765 0)
(0.26127 0.215614 0)
(0.281715 0.210118 0)
(0.306849 0.199507 0)
(0.340117 0.178904 0)
(0.00698176 0.31841 0)
(0.0195555 0.308365 0)
(0.0320455 0.304511 0)
(0.0435397 0.301526 0)
(0.0546826 0.298441 0)
(0.065655 0.295353 0)
(0.0765809 0.292011 0)
(0.0878006 0.288615 0)
(0.0995592 0.284781 0)
(0.111783 0.280829 0)
(0.124479 0.276035 0)
(0.137109 0.26992 0)
(0.150185 0.263012 0)
(0.163145 0.255285 0)
(0.176906 0.246299 0)
(0.190754 0.238077 0)
(0.204871 0.228697 0)
(0.219502 0.218705 0)
(0.234224 0.208125 0)
(0.250186 0.199022 0)
(0.269486 0.188871 0)
(0.292635 0.171775 0)
(0.318522 0.151292 0)
(0.00642642 0.305912 0)
(0.0180662 0.296293 0)
(0.0297331 0.293149 0)
(0.0407477 0.290632 0)
(0.0514362 0.287699 0)
(0.0620544 0.28443 0)
(0.072728 0.280915 0)
(0.0835553 0.277138 0)
(0.0946823 0.272904 0)
(0.106055 0.268375 0)
(0.118092 0.263573 0)
(0.130767 0.257383 0)
(0.143195 0.250642 0)
(0.156158 0.242444 0)
(0.168341 0.233973 0)
(0.180672 0.224711 0)
(0.193676 0.214679 0)
(0.207588 0.204801 0)
(0.222158 0.193264 0)
(0.238324 0.180622 0)
(0.256968 0.167621 0)
(0.275449 0.151908 0)
(0.295589 0.130604 0)
(0.00593858 0.293914 0)
(0.0167857 0.284653 0)
(0.027781 0.281875 0)
(0.038405 0.279629 0)
(0.0488305 0.276978 0)
(0.0591492 0.273898 0)
(0.0694939 0.270391 0)
(0.0799276 0.266428 0)
(0.0906179 0.262004 0)
(0.101414 0.257295 0)
(0.112666 0.25152 0)
(0.123646 0.245104 0)
(0.134979 0.237869 0)
(0.146735 0.230211 0)
(0.15849 0.221378 0)
(0.171278 0.211557 0)
(0.184084 0.201615 0)
(0.19718 0.19006 0)
(0.211217 0.178173 0)
(0.224572 0.165531 0)
(0.240071 0.151076 0)
(0.256733 0.133004 0)
(0.273769 0.112818 0)
(0.00547574 0.283127 0)
(0.0155332 0.274124 0)
(0.0257674 0.271503 0)
(0.0358053 0.269345 0)
(0.0457033 0.26675 0)
(0.0555538 0.263711 0)
(0.0653833 0.260099 0)
(0.0752652 0.256001 0)
(0.0852839 0.251427 0)
(0.0955205 0.24637 0)
(0.106162 0.240757 0)
(0.117035 0.234229 0)
(0.128037 0.226545 0)
(0.139043 0.218404 0)
(0.150251 0.209444 0)
(0.161402 0.199964 0)
(0.172656 0.189205 0)
(0.184484 0.178086 0)
(0.197057 0.165306 0)
(0.210229 0.150699 0)
(0.224414 0.135472 0)
(0.238028 0.118364 0)
(0.252021 0.0984301 0)
(0.00512323 0.272801 0)
(0.0146221 0.26406 0)
(0.0242841 0.26166 0)
(0.0337936 0.259648 0)
(0.0431619 0.257137 0)
(0.0525452 0.254102 0)
(0.0618935 0.250459 0)
(0.0712607 0.246247 0)
(0.0806663 0.24145 0)
(0.0902562 0.236048 0)
(0.0999421 0.23011 0)
(0.109736 0.223423 0)
(0.119647 0.216014 0)
(0.129747 0.20775 0)
(0.139881 0.198684 0)
(0.150454 0.188444 0)
(0.16155 0.17739 0)
(0.172755 0.165361 0)
(0.18435 0.152696 0)
(0.195675 0.138837 0)
(0.207374 0.123046 0)
(0.21926 0.105314 0)
(0.2312 0.0860056 0)
(0.00473224 0.263383 0)
(0.0135197 0.254785 0)
(0.0224849 0.252455 0)
(0.0313541 0.250499 0)
(0.0401155 0.248035 0)
(0.048916 0.244987 0)
(0.0577137 0.241369 0)
(0.0665468 0.237198 0)
(0.075412 0.232431 0)
(0.0843606 0.227045 0)
(0.0934044 0.221013 0)
(0.102695 0.214248 0)
(0.112026 0.206571 0)
(0.121455 0.198142 0)
(0.13095 0.188828 0)
(0.140611 0.178529 0)
(0.150274 0.167511 0)
(0.16001 0.155441 0)
(0.170094 0.142153 0)
(0.180359 0.127461 0)
(0.190838 0.111796 0)
(0.200936 0.0944913 0)
(0.210978 0.0755699 0)
(0.00440643 0.254446 0)
(0.0126368 0.246004 0)
(0.021012 0.243711 0)
(0.0293297 0.241799 0)
(0.0375441 0.23934 0)
(0.0457716 0.23627 0)
(0.0539635 0.232607 0)
(0.0621461 0.228353 0)
(0.0703333 0.223462 0)
(0.0785574 0.217945 0)
(0.0868261 0.211754 0)
(0.0952271 0.204934 0)
(0.103651 0.197285 0)
(0.112198 0.18876 0)
(0.12089 0.179378 0)
(0.129646 0.168976 0)
(0.138516 0.157652 0)
(0.147488 0.145542 0)
(0.156414 0.132426 0)
(0.165332 0.118076 0)
(0.174184 0.102339 0)
(0.182864 0.085154 0)
(0.191331 0.0666899 0)
(0.00402872 0.246328 0)
(0.0116473 0.238054 0)
(0.0194076 0.235798 0)
(0.027132 0.233952 0)
(0.03476 0.231564 0)
(0.0423842 0.228567 0)
(0.0499567 0.224963 0)
(0.0575119 0.220734 0)
(0.0650749 0.215855 0)
(0.0726371 0.210311 0)
(0.0802092 0.204062 0)
(0.0878303 0.197051 0)
(0.0955235 0.189235 0)
(0.103256 0.180628 0)
(0.111053 0.171238 0)
(0.118865 0.16086 0)
(0.126697 0.149578 0)
(0.13455 0.137415 0)
(0.142343 0.124122 0)
(0.15017 0.109674 0)
(0.157817 0.0941137 0)
(0.165192 0.0772747 0)
(0.172223 0.0592389 0)
(0.00371598 0.238701 0)
(0.0107589 0.230384 0)
(0.0179219 0.228127 0)
(0.0250631 0.226314 0)
(0.0320957 0.223955 0)
(0.0391143 0.221001 0)
(0.0460577 0.217453 0)
(0.0529363 0.213265 0)
(0.0597601 0.208415 0)
(0.0666024 0.202848 0)
(0.0734585 0.196595 0)
(0.0803417 0.189626 0)
(0.0872849 0.181913 0)
(0.0942468 0.173343 0)
(0.101206 0.163884 0)
(0.108111 0.153438 0)
(0.114942 0.142102 0)
(0.121741 0.129903 0)
(0.12852 0.116767 0)
(0.135224 0.102549 0)
(0.14169 0.0872175 0)
(0.147872 0.0706937 0)
(0.153651 0.0530759 0)
(0.00337759 0.231813 0)
(0.00990907 0.223648 0)
(0.0165022 0.221456 0)
(0.0230713 0.219715 0)
(0.0294957 0.217409 0)
(0.0359017 0.214515 0)
(0.0422135 0.210974 0)
(0.0484699 0.206788 0)
(0.0546527 0.201951 0)
(0.0607867 0.196407 0)
(0.0668862 0.190114 0)
(0.0729176 0.183071 0)
(0.07894 0.175195 0)
(0.0849992 0.16654 0)
(0.0910737 0.157179 0)
(0.0971573 0.146999 0)
(0.103218 0.135853 0)
(0.109152 0.123714 0)
(0.11487 0.110571 0)
(0.120454 0.0964823 0)
(0.125841 0.0814166 0)
(0.130933 0.0652659 0)
(0.135573 0.0480684 0)
(0.00310058 0.225348 0)
(0.0090535 0.21719 0)
(0.0150243 0.21495 0)
(0.0210027 0.213281 0)
(0.0268251 0.211052 0)
(0.0326497 0.208234 0)
(0.0384091 0.204872 0)
(0.0441138 0.200861 0)
(0.0497304 0.196134 0)
(0.0552352 0.190705 0)
(0.0606223 0.184503 0)
(0.0658919 0.177484 0)
(0.0710921 0.169644 0)
(0.0762483 0.161038 0)
(0.0813569 0.15155 0)
(0.0863847 0.141171 0)
(0.0913528 0.130014 0)
(0.0963135 0.118184 0)
(0.101276 0.105457 0)
(0.105986 0.0916148 0)
(0.110338 0.0767259 0)
(0.114397 0.0608759 0)
(0.117999 0.0441027 0)
(0.00286113 0.219563 0)
(0.00828307 0.211546 0)
(0.013549 0.209442 0)
(0.0189135 0.207848 0)
(0.0241062 0.205652 0)
(0.0293153 0.202884 0)
(0.0345023 0.199509 0)
(0.0396525 0.195509 0)
(0.0447324 0.190831 0)
(0.0496957 0.185514 0)
(0.0545221 0.179485 0)
(0.0592214 0.172678 0)
(0.0638044 0.165061 0)
(0.0681526 0.156553 0)
(0.0723268 0.147183 0)
(0.0763478 0.136967 0)
(0.0802858 0.12586 0)
(0.0841286 0.113717 0)
(0.0877863 0.100798 0)
(0.0914262 0.0873201 0)
(0.0950501 0.0729779 0)
(0.0982495 0.0575472 0)
(0.100905 0.0411541 0)
(0.00270771 0.214273 0)
(0.0074361 0.206509 0)
(0.0119563 0.204341 0)
(0.0165925 0.202803 0)
(0.0210559 0.200648 0)
(0.0255582 0.197881 0)
(0.0300447 0.194478 0)
(0.0345292 0.190515 0)
(0.0389728 0.186015 0)
(0.0433668 0.180851 0)
(0.0476299 0.174961 0)
(0.051693 0.168272 0)
(0.055564 0.160761 0)
(0.059318 0.152465 0)
(0.0629578 0.14335 0)
(0.0664486 0.133386 0)
(0.0697846 0.122515 0)
(0.0727146 0.110788 0)
(0.0754022 0.0981356 0)
(0.077928 0.0843608 0)
(0.0800712 0.0698732 0)
(0.082302 0.0549026 0)
(0.0842023 0.0390821 0)
(0.00257375 0.209304 0)
(0.00651981 0.202389 0)
(0.00978646 0.200401 0)
(0.0135024 0.198875 0)
(0.0170314 0.196714 0)
(0.0207096 0.193932 0)
(0.0243609 0.19052 0)
(0.0280947 0.186497 0)
(0.0319514 0.181857 0)
(0.0358315 0.176675 0)
(0.0397308 0.170921 0)
(0.0435642 0.164492 0)
(0.047159 0.157246 0)
(0.0504806 0.149138 0)
(0.0535119 0.140172 0)
(0.056205 0.130283 0)
(0.0586052 0.119553 0)
(0.0609369 0.10808 0)
(0.0631557 0.0957497 0)
(0.0649641 0.0826376 0)
(0.066395 0.068579 0)
(0.0673734 0.0533923 0)
(0.0680175 0.0376673 0)
(0.00218778 0.205141 0)
(0.00487652 0.198817 0)
(0.00684898 0.196774 0)
(0.00928537 0.195094 0)
(0.0115345 0.19285 0)
(0.0140811 0.190082 0)
(0.0165594 0.186671 0)
(0.0191559 0.182683 0)
(0.0217761 0.178145 0)
(0.0246073 0.17298 0)
(0.0276141 0.167223 0)
(0.0307892 0.160814 0)
(0.0341026 0.15374 0)
(0.0374119 0.145952 0)
(0.0406443 0.137383 0)
(0.0436739 0.127994 0)
(0.0463616 0.117734 0)
(0.0485964 0.10651 0)
(0.0502599 0.0943529 0)
(0.051558 0.0814177 0)
(0.0525843 0.0676981 0)
(0.0531543 0.0533311 0)
(0.0528629 0.0380143 0)
(0.00171743 0.20206 0)
(0.00276783 0.197709 0)
(0.00270313 0.196154 0)
(0.00331831 0.194456 0)
(0.00376947 0.192187 0)
(0.00468518 0.189277 0)
(0.00571285 0.185706 0)
(0.0069968 0.181464 0)
(0.00853126 0.176556 0)
(0.0103036 0.170969 0)
(0.0123279 0.164765 0)
(0.0146337 0.158024 0)
(0.017181 0.150686 0)
(0.0199125 0.142688 0)
(0.0228257 0.134003 0)
(0.025831 0.124658 0)
(0.0287822 0.114582 0)
(0.0315575 0.103801 0)
(0.0340132 0.0922737 0)
(0.0359527 0.0799987 0)
(0.0371682 0.0669388 0)
(0.0376117 0.0530095 0)
(0.0372421 0.0383014 0)
(0.000898934 0.200512 0)
(0.000522918 0.197412 0)
(-0.000971031 0.195562 0)
(-0.00149638 0.193229 0)
(-0.00215994 0.190471 0)
(-0.00241789 0.187231 0)