/*--------------------------------*- C++ -*----------------------------------*\
| =========                 |                                                 |
| \\      /  F ield         | OpenFOAM: The Open Source CFD Toolbox           |
|  \\    /   O peration     | Version:  2.4.0                                 |
|   \\  /    A nd           | Web:      www.OpenFOAM.org                      |
|    \\/     M anipulation  |                                                 |
\*---------------------------------------------------------------------------*/
FoamFile
{
    version     2.0;
    format      ascii;
    class       volVectorField;
    location    "0.85";
    object      U.oil;
}
// * * * * * * * * * * * * * * * * * * * * * * * * * * * * * * * * * * * * * //

dimensions      [0 1 -1 0 0 0 0];

internalField   nonuniform List<vector> 
2268
(
(0.0018994 -0.0733619 0)
(0.00113275 -0.0792716 0)
(-0.00318641 -0.0841983 0)
(-0.0422563 -0.0745905 0)
(-0.0906003 -0.0522496 0)
(-0.147568 -0.0144495 0)
(-0.211716 0.0130044 0)
(-0.254438 0.0202242 0)
(-0.26364 0.0174508 0)
(-0.257706 0.013356 0)
(-0.246019 0.00711088 0)
(-0.234126 -0.00314075 0)
(-0.211525 -0.00792854 0)
(-0.182171 -0.00976282 0)
(-0.153876 -0.00972068 0)
(-0.135865 -0.00627468 0)
(-0.125096 -0.00426609 0)
(-0.116795 -0.00425753 0)
(-0.103326 -0.00385038 0)
(-0.079586 -0.00698043 0)
(-0.0549514 0.00180491 0)
(-0.0475938 0.00821397 0)
(-0.0332614 -0.00232483 0)
(0.00162068 0.0739967 0)
(-0.00351113 0.0839179 0)
(-0.00102741 0.111462 0)
(-0.0243249 0.123834 0)
(-0.0629559 0.100971 0)
(-0.125042 0.0668293 0)
(-0.198515 0.0331224 0)
(-0.256835 0.00423534 0)
(-0.27079 -0.0154616 0)
(-0.264858 -0.0215541 0)
(-0.251528 -0.0176866 0)
(-0.232586 -0.0132371 0)
(-0.207384 -0.0163074 0)
(-0.178713 -0.0177878 0)
(-0.152795 -0.0123266 0)
(-0.135344 -0.00737048 0)
(-0.122123 -0.00471819 0)
(-0.112788 -0.00610264 0)
(-0.0980837 -0.0122093 0)
(-0.0721962 -0.0170121 0)
(-0.0517491 -0.0123073 0)
(-0.0289612 -0.00314565 0)
(-0.0124777 -0.0164335 0)
(0.0118427 -0.11115 0)
(0.0125881 -0.10988 0)
(-0.000640473 -0.0909494 0)
(-0.035957 -0.0620163 0)
(-0.108208 0.00486818 0)
(-0.168449 0.0753157 0)
(-0.220672 0.0769066 0)
(-0.264322 0.044564 0)
(-0.275984 0.0180192 0)
(-0.269011 0.00250178 0)
(-0.250881 -0.00996513 0)
(-0.226045 -0.0247479 0)
(-0.200903 -0.0341528 0)
(-0.177518 -0.0343998 0)
(-0.153956 -0.0279673 0)
(-0.138477 -0.0189379 0)
(-0.121489 -0.013722 0)
(-0.10754 -0.015103 0)
(-0.0920508 -0.0226974 0)
(-0.070647 -0.0287755 0)
(-0.0555291 -0.0200971 0)
(-0.0204344 -0.00993173 0)
(-0.00613777 -0.0180478 0)
(-0.00884739 0.187267 0)
(-0.0445194 0.194059 0)
(-0.0798069 0.126355 0)
(-0.0759186 0.0848848 0)
(-0.136822 0.0813919 0)
(-0.22024 0.0952606 0)
(-0.270919 0.0746931 0)
(-0.289867 0.0326043 0)
(-0.292085 -0.010511 0)
(-0.273468 -0.0313091 0)
(-0.246333 -0.0355671 0)
(-0.221276 -0.0356572 0)
(-0.19952 -0.0391856 0)
(-0.176783 -0.0395658 0)
(-0.152555 -0.0289282 0)
(-0.130807 -0.0218164 0)
(-0.109516 -0.0188288 0)
(-0.0948334 -0.0165657 0)
(-0.0857315 -0.0241277 0)
(-0.0818837 -0.0290678 0)
(-0.0755283 -0.0345942 0)
(-0.0328614 -0.0259617 0)
(-0.0109396 -0.0277021 0)
(-0.00879922 -0.200421 0)
(-0.017013 -0.194929 0)
(-0.0268519 -0.163853 0)
(-0.0431453 -0.0384176 0)
(-0.165809 0.104634 0)
(-0.308048 0.121958 0)
(-0.32896 0.0943228 0)
(-0.34126 0.0474015 0)
(-0.338796 0.00777978 0)
(-0.318047 -0.018727 0)
(-0.282975 -0.0337187 0)
(-0.245876 -0.0432255 0)
(-0.21424 -0.0485467 0)
(-0.191133 -0.0479877 0)
(-0.163032 -0.0425393 0)
(-0.131403 -0.0349363 0)
(-0.102864 -0.0305139 0)
(-0.0887531 -0.0309433 0)
(-0.0848281 -0.0357282 0)
(-0.0852455 -0.0411296 0)
(-0.0797593 -0.0469542 0)
(-0.0529284 -0.0424917 0)
(-0.0163815 -0.0238878 0)
(-0.0243095 0.200066 0)
(-0.076718 0.215244 0)
(-0.159092 0.213015 0)
(-0.237064 0.183167 0)
(-0.309208 0.151672 0)
(-0.456696 0.132494 0)
(-0.444663 0.0885787 0)
(-0.41557 0.0333583 0)
(-0.3892 -0.0228349 0)
(-0.369261 -0.0511608 0)
(-0.329372 -0.0585431 0)
(-0.284612 -0.0592462 0)
(-0.246804 -0.0597967 0)
(-0.2178 -0.0587518 0)
(-0.188615 -0.0468432 0)
(-0.158369 -0.0293397 0)
(-0.128532 -0.00943809 0)
(-0.101405 0.00732104 0)
(-0.0893484 0.00552516 0)
(-0.0820087 -0.00691505 0)
(-0.0704678 -0.0268893 0)
(-0.0486605 -0.0144252 0)
(-0.0323318 -0.0367359 0)
(-0.00732771 -0.0815504 0)
(-0.0233051 -0.0534489 0)
(-0.0563242 0.000861098 0)
(-0.125984 0.0987271 0)
(-0.259245 0.182295 0)
(-0.490965 0.12894 0)
(-0.550814 0.061481 0)
(-0.533936 0.0307597 0)
(-0.481896 -0.00445246 0)
(-0.420032 -0.048303 0)
(-0.365655 -0.0904143 0)
(-0.301561 -0.111639 0)
(-0.233825 -0.126854 0)
(-0.187123 -0.126705 0)
(-0.176479 -0.109392 0)
(-0.175686 -0.0807839 0)
(-0.17074 -0.0514886 0)
(-0.138496 -0.0237286 0)
(-0.0988223 -0.0164304 0)
(-0.0757637 -0.0346513 0)
(-0.0567362 -0.0618726 0)
(-0.0860279 0.00102315 0)
(-0.104722 0.0899349 0)
(-0.016918 0.141373 0)
(-0.0518283 0.156437 0)
(-0.0876882 0.172807 0)
(-0.121051 0.203384 0)
(-0.168083 0.288459 0)
(-0.343797 0.200127 0)
(-0.49558 0.0481756 0)
(-0.51371 -0.0451033 0)
(-0.488673 -0.119579 0)
(-0.447681 -0.160546 0)
(-0.388921 -0.178371 0)
(-0.300459 -0.206202 0)
(-0.179179 -0.213624 0)
(-0.120574 -0.150164 0)
(-0.117078 -0.0958805 0)
(-0.161392 -0.032659 0)
(-0.198564 0.00804251 0)
(-0.186046 0.0412527 0)
(-0.132954 0.0474238 0)
(-0.0955526 -0.000786963 0)
(-0.0825597 -0.00231247 0)
(-0.162808 0.20678 0)
(-0.173629 0.066875 0)
(-0.075107 -0.0177304 0)
(0.238539 -0.0461348 0)
(0.338123 -0.0879293 0)
(0.36502 -0.139122 0)
(0.373666 -0.16352 0)
(0.381004 -0.16223 0)
(0.396441 -0.142426 0)
(0.419966 -0.115736 0)
(0.430685 -0.0908401 0)
(0.45574 -0.0645608 0)
(0.474605 -0.048345 0)
(0.500111 -0.0525882 0)
(0.479607 -0.035065 0)
(0.437454 -0.0061229 0)
(0.36735 0.0383118 0)
(0.26715 0.0801588 0)
(0.105231 0.117276 0)
(-0.0695735 0.0797472 0)
(-0.0234583 0.0260519 0)
(-0.0743596 0.238708 0)
(0.303282 0.091142 0)
(0.441052 0.223013 0)
(0.510182 0.292079 0)
(0.51329 0.306253 0)
(0.509409 0.302926 0)
(0.504624 0.277505 0)
(0.497235 0.267282 0)
(0.49775 0.242802 0)
(0.506614 0.21134 0)
(0.502168 0.204544 0)
(0.498376 0.2242 0)
(0.475996 0.265459 0)
(0.413083 0.300514 0)
(0.362764 0.350889 0)
(0.234622 0.331124 0)
(0.11315 0.335125 0)
(-0.0146553 0.301884 0)
(-0.0794386 0.238829 0)
(0.247023 0.0693446 0)
(0.400544 -0.0516905 0)
(0.425338 -0.0524918 0)
(0.466946 -0.111467 0)
(0.549915 -0.161984 0)
(0.613429 -0.15339 0)
(0.608443 -0.126888 0)
(0.567797 -0.103367 0)
(0.517034 -0.0842635 0)
(0.441633 -0.0503949 0)
(0.290755 -0.022171 0)
(0.0813845 0.0150022 0)
(-0.221119 0.135066 0)
(-0.383338 0.111349 0)
(-0.120892 0.121841 0)
(0.102345 0.237665 0)
(0.0847029 0.301959 0)
(-0.00703214 0.234762 0)
(-0.0316496 0.0459388 0)
(0.247247 -0.169761 0)
(0.211976 -0.176396 0)
(0.28928 -0.0675678 0)
(0.415998 0.056308 0)
(0.498637 0.125475 0)
(0.533244 0.169202 0)
(0.509255 0.184425 0)
(0.446614 0.187547 0)
(0.341715 0.177655 0)
(0.268872 0.185585 0)
(0.178897 0.219393 0)
(0.00549859 0.243046 0)
(-0.385044 0.271985 0)
(-0.536911 0.103464 0)
(-0.487513 0.0309289 0)
(-0.104513 0.15999 0)
(0.0497709 0.32624 0)
(0.0134363 0.304537 0)
(0.0219433 0.17769 0)
(0.160349 -0.437894 0)
(0.0513272 -0.225867 0)
(0.100293 -0.12883 0)
(0.176998 -0.131465 0)
(0.284987 -0.113654 0)
(0.340022 -0.0638981 0)
(0.36221 -0.00197749 0)
(0.336123 0.0479146 0)
(0.253868 0.0646881 0)
(0.181582 0.102235 0)
(0.117085 0.202099 0)
(0.00228098 0.344173 0)
(-0.333555 0.379501 0)
(-0.487469 0.0782191 0)
(-0.482836 -0.0508873 0)
(-0.333041 0.0530114 0)
(-0.0236914 0.289995 0)
(-0.0051879 0.294648 0)
(0.0484547 0.101706 0)
(0.13128 -0.518525 0)
(-0.0474578 -0.181923 0)
(-0.0314947 -0.156198 0)
(0.0327156 -0.163979 0)
(0.155635 -0.0845087 0)
(0.261952 0.0140315 0)
(0.23327 0.0999755 0)
(0.173175 0.153488 0)
(0.104428 0.156545 0)
(0.0522088 0.150193 0)
(0.0448965 0.212358 0)
(0.0217762 0.394996 0)
(-0.16855 0.50081 0)
(-0.360686 0.108867 0)
(-0.400589 -0.079222 0)
(-0.361294 -0.0723049 0)
(-0.0677102 0.189358 0)
(-0.00376374 0.270112 0)
(0.0762208 0.181684 0)
(0.137885 -0.519352 0)
(-0.0884016 -0.195494 0)
(-0.0347206 -0.192068 0)
(-0.00616449 -0.204931 0)
(0.0336436 -0.169518 0)
(0.172607 -0.0819778 0)
(0.213037 0.051301 0)
(0.119315 0.1455 0)
(0.0246723 0.176535 0)
(-0.0470571 0.174986 0)
(-0.04399 0.233855 0)
(-0.0071181 0.415336 0)
(-0.00221366 0.554181 0)
(-0.267969 0.180117 0)
(-0.371696 -0.0723548 0)
(-0.390795 -0.130399 0)
(-0.206219 0.126583 0)
(-0.0210405 0.250862 0)
(0.0840137 0.15589 0)
(0.171231 -0.38826 0)
(-0.0799142 -0.156476 0)
(0.0046129 -0.202896 0)
(-0.0197027 -0.211813 0)
(-0.0130134 -0.199315 0)
(0.024764 -0.132824 0)
(0.16183 0.0377837 0)
(0.0826177 0.157952 0)
(-0.0212697 0.185802 0)
(-0.0925911 0.166306 0)
(-0.0751127 0.213603 0)
(-0.0491039 0.389067 0)
(0.14172 0.600865 0)
(-0.134734 0.245361 0)
(-0.294614 -0.162785 0)
(-0.396097 -0.149909 0)
(-0.331989 -0.0299449 0)
(-0.0832825 0.116367 0)
(0.0653538 0.187927 0)
(0.0195154 -0.0501722 0)
(0.0453479 -0.00817665 0)
(0.0569012 0.0739714 0)
(0.0526751 0.172386 0)
(0.0449275 0.293734 0)
(0.0375529 0.31942 0)
(-0.0371995 0.21304 0)
(-0.0998507 0.120653 0)
(-0.157172 0.0613845 0)
(-0.205055 -0.0335644 0)
(-0.191099 -0.151178 0)
(-0.178696 -0.232778 0)
(-0.186153 -0.209095 0)
(-0.158031 -0.14166 0)
(-0.134599 -0.124517 0)
(-0.133157 -0.118532 0)
(-0.1318 -0.105323 0)
(-0.142261 -0.093834 0)
(-0.154578 -0.0726285 0)
(-0.159949 -0.0281682 0)
(-0.154414 -0.00884265 0)
(-0.0601328 -0.0695072 0)
(-0.0254546 -0.214875 0)
(0.0148 0.0992313 0)
(0.0352823 0.137306 0)
(0.0448035 0.184489 0)
(0.0459019 0.209886 0)
(0.0741375 0.262687 0)
(0.137729 0.295346 0)
(0.192369 0.216758 0)
(0.190616 0.0952756 0)
(0.176593 -0.0340248 0)
(0.179322 -0.15556 0)
(0.15904 -0.193404 0)
(0.118853 -0.154194 0)
(0.1135 -0.114756 0)
(0.144745 -0.0517488 0)
(0.163956 0.0269723 0)
(0.144849 0.105989 0)
(0.100485 0.11287 0)
(0.0418031 0.0687737 0)
(-0.0278283 0.0307898 0)
(-0.0677387 -0.0128269 0)
(-0.0340261 -0.0670815 0)
(0.00649851 -0.08354 0)
(0.0545847 -0.0526962 0)
(0.0643652 0.0016575 0)
(0.130554 0.0814453 0)
(0.161056 0.201066 0)
(0.142094 0.263545 0)
(0.138345 0.30086 0)
(0.156283 0.29103 0)
(0.195403 0.252778 0)
(0.230128 0.194999 0)
(0.238652 0.122298 0)
(0.226791 0.0572885 0)
(0.186047 0.0100834 0)
(0.153712 -0.0484138 0)
(0.140894 -0.0952809 0)
(0.161253 -0.0731453 0)
(0.179796 -0.0285451 0)
(0.169404 0.0293126 0)
(0.101466 0.0704975 0)
(0.0341971 0.0975523 0)
(-0.0122894 0.107124 0)
(-0.110089 0.061083 0)
(-0.335754 -0.0866263 0)
(-0.488446 -0.0956955 0)
(-0.452378 -0.0838248 0)
(0.065137 -0.0674861 0)
(0.138165 0.0862404 0)
(0.118085 0.191179 0)
(0.0752948 0.244516 0)
(0.0948465 0.276406 0)
(0.103715 0.258548 0)
(0.125929 0.209041 0)
(0.153083 0.136084 0)
(0.174265 0.0593745 0)
(0.166137 -0.00993898 0)
(0.151722 -0.0311921 0)
(0.109285 -0.0638692 0)
(0.0519345 -0.184833 0)
(0.0201381 -0.197184 0)
(-0.0524138 -0.13275 0)
(-0.0906773 -0.0126246 0)
(-0.140608 0.059493 0)
(-0.327571 0.0864168 0)
(-0.52186 0.146333 0)
(-0.751229 0.309206 0)
(-0.857791 0.306591 0)
(-1.04962 -0.206274 0)
(-1.21864 -0.848416 0)
(0.0299601 -0.220913 0)
(-0.0135548 0.00291413 0)
(-0.0384391 0.260094 0)
(-0.0938696 0.286841 0)
(-0.0445254 0.299536 0)
(-0.0402687 0.292797 0)
(-0.0156525 0.243068 0)
(0.0190217 0.188193 0)
(0.0908025 0.109848 0)
(0.148106 -0.0091208 0)
(0.150822 -0.063699 0)
(-0.173966 -0.0709975 0)
(-0.907497 0.0174417 0)
(-1.08119 0.0619741 0)
(-1.06121 0.0613633 0)
(-0.988877 0.162735 0)
(-1.04248 0.305899 0)
(-1.23258 0.420689 0)
(-1.32983 0.432697 0)
(-1.42509 0.297328 0)
(-1.71304 -0.149359 0)
(-1.93519 -0.591542 0)
(-1.74036 -0.851747 0)
(-0.0763497 -0.096612 0)
(-0.179864 0.115472 0)
(-0.177256 0.229584 0)
(-0.187847 0.251744 0)
(-0.166654 0.244331 0)
(-0.115217 0.213137 0)
(-0.0701623 0.122215 0)
(-0.102431 -0.0262627 0)
(-0.176012 -0.271903 0)
(-0.253349 -0.516732 0)
(-0.204792 -0.455197 0)
(-0.620076 -0.0485216 0)
(-1.33478 -0.00972149 0)
(-1.34451 -0.118913 0)
(-1.30543 -0.103037 0)
(-1.30816 0.130282 0)
(-1.31578 0.301298 0)
(-1.3098 0.356248 0)
(-1.33536 0.362802 0)
(-1.49445 0.152351 0)
(-1.8095 -0.566285 0)
(-1.68946 -0.79966 0)
(-1.71337 -0.783828 0)
(-0.118308 -0.0294758 0)
(-0.248143 0.0540805 0)
(-0.318419 0.0706358 0)
(-0.327408 0.0201985 0)
(-0.295464 -0.0538841 0)
(-0.251007 -0.125022 0)
(-0.226957 -0.214245 0)
(-0.207034 -0.286706 0)
(-0.300198 -0.430084 0)
(-0.544181 -0.524021 0)
(-0.743814 -0.464794 0)
(-1.51969 -0.228981 0)
(-1.56089 -0.198191 0)
(-1.31302 -0.141795 0)
(-1.25056 -0.00486993 0)
(-1.29881 0.18441 0)
(-1.28578 0.261777 0)
(-1.2773 0.282179 0)
(-1.33461 0.254613 0)
(-1.80788 -0.0263553 0)
(-1.90774 -0.904839 0)
(-1.53989 -1.02177 0)
(-1.54649 -0.94394 0)
(-0.248235 -0.0647674 0)
(-0.359173 -0.10525 0)
(-0.400652 -0.159507 0)
(-0.382424 -0.239073 0)
(-0.349181 -0.324171 0)
(-0.313686 -0.37849 0)
(-0.31411 -0.494785 0)
(-0.28618 -0.493759 0)
(-0.35793 -0.47623 0)
(-0.92411 0.251446 0)
(-0.998203 0.5318 0)
(-1.9771 -0.0358673 0)
(-1.77782 -0.179282 0)
(-1.41636 -0.127007 0)
(-1.21873 -0.0364942 0)
(-1.17609 0.141104 0)
(-1.19216 0.264806 0)
(-1.20298 0.298157 0)
(-1.39405 0.325237 0)
(-2.30378 0.301362 0)
(-1.62768 -0.716887 0)
(-1.54533 -1.10141 0)
(-1.34137 -1.11131 0)
(-0.310878 -0.247134 0)
(-0.439782 -0.264746 0)
(-0.463743 -0.354752 0)
(-0.402794 -0.408729 0)
(-0.348416 -0.42575 0)
(-0.305491 -0.384127 0)
(-0.282597 -0.196596 0)
(-0.460028 0.14031 0)
(-0.655469 0.48898 0)
(-0.74578 0.503831 0)
(-0.682511 0.734582 0)
(-0.713863 0.896916 0)
(-1.94419 0.0188514 0)
(-1.62913 -0.0542161 0)
(-1.31006 -0.028701 0)
(-1.118 0.0455863 0)
(-1.05765 0.175619 0)
(-1.08058 0.303785 0)
(-1.3274 0.618175 0)
(-3.55024 1.85771 0)
(-1.35968 0.404369 0)
(-1.39064 -0.23432 0)
(-1.54361 -0.404414 0)
(-0.298909 -0.238989 0)
(-0.391044 0.0515038 0)
(-0.342745 0.230184 0)
(-0.300698 0.212834 0)
(-0.301331 0.238508 0)
(-0.338246 0.326055 0)
(-0.298171 0.448801 0)
(-0.428164 0.563603 0)
(-0.458128 0.61756 0)
(-0.535682 0.515936 0)
(-0.536755 0.563841 0)
(-0.376977 0.735658 0)
(-0.456524 0.609877 0)
(-1.83214 0.0582958 0)
(-1.42485 0.0280431 0)
(-1.16237 0.0311259 0)
(-1.03747 0.087986 0)
(-0.994631 0.201369 0)
(-1.20394 0.575901 0)
(-3.18653 2.01327 0)
(-1.22189 0.888609 0)
(-1.38559 0.277988 0)
(-1.57166 -0.0738525 0)
(-0.159658 0.824906 0)
(-0.0797874 0.559945 0)
(-0.179021 0.212764 0)
(-0.184561 0.059683 0)
(-0.170091 0.0485922 0)
(-0.16245 0.162212 0)
(-0.169901 0.399367 0)
(-0.190293 0.622003 0)
(-0.22701 0.672383 0)
(-0.244681 0.601655 0)
(-0.26251 0.56183 0)
(-0.1423 0.593855 0)
(-0.0517002 0.628649 0)
(-0.944412 0.290847 0)
(-1.17644 0.124998 0)
(-1.10698 0.0793571 0)
(-1.02361 0.070701 0)
(-0.975367 0.150896 0)
(-1.04825 0.402 0)
(-1.88542 1.26651 0)
(-0.66096 1.2186 0)
(-0.941448 0.631599 0)
(-1.02828 -0.0246464 0)
(0.00692229 0.997668 0)
(0.077104 0.65732 0)
(-0.0108304 0.335113 0)
(-0.047483 0.182379 0)
(-0.118801 0.15645 0)
(-0.129511 0.241571 0)
(-0.114874 0.349925 0)
(-0.0274955 0.585152 0)
(-0.0546658 0.665037 0)
(-0.0404463 0.622215 0)
(-0.0687652 0.500538 0)
(0.018575 0.468467 0)
(0.0548998 0.532461 0)
(0.123291 0.551123 0)
(-0.518309 0.339634 0)
(-0.863288 0.191353 0)
(-0.929436 0.155958 0)
(-0.961563 0.217073 0)
(-1.04519 0.452019 0)
(-1.28356 0.877563 0)
(-0.370284 1.26255 0)
(-0.319224 0.985669 0)
(-0.70319 0.347415 0)
(0.0689085 0.934752 0)
(0.121393 0.647939 0)
(0.0744084 0.377393 0)
(0.0591656 0.222499 0)
(-0.0123615 0.180437 0)
(-0.0406839 0.231766 0)
(-0.0714055 0.331187 0)
(0.019656 0.553719 0)
(0.0428838 0.653684 0)
(0.0771192 0.617504 0)
(0.0896663 0.486305 0)
(0.128391 0.440078 0)
(0.145949 0.485699 0)
(0.214271 0.493461 0)
(0.278303 0.520457 0)
(0.248172 0.538768 0)
(0.14818 0.5057 0)
(-0.0499407 0.559988 0)
(-0.680393 0.771404 0)
(-0.922924 0.830951 0)
(-0.637696 1.06184 0)
(0.159204 1.16044 0)
(-0.145786 0.723606 0)
(0.0518084 0.777499 0)
(0.129919 0.626222 0)
(0.107105 0.398739 0)
(0.094204 0.253171 0)
(0.0308801 0.214547 0)
(0.0146407 0.258072 0)
(-0.0227698 0.295668 0)
(0.022907 0.485833 0)
(0.0905661 0.611815 0)
(0.148492 0.580403 0)
(0.18459 0.473359 0)
(0.187247 0.422188 0)
(0.194032 0.451861 0)
(0.233665 0.456377 0)
(0.270208 0.471944 0)
(0.328524 0.491684 0)
(0.404207 0.545173 0)
(0.461282 0.619073 0)
(0.428712 0.736355 0)
(-0.10463 0.895351 0)
(-0.169336 0.983417 0)
(0.30048 1.20329 0)
(0.596647 1.1403 0)
(0.0181492 0.701338 0)
(0.119739 0.591552 0)
(0.119661 0.406497 0)
(0.121331 0.289443 0)
(0.0655585 0.257605 0)
(0.0443822 0.292245 0)
(0.00611726 0.305098 0)
(0.01976 0.4224 0)
(0.0919507 0.523029 0)
(0.172391 0.520583 0)
(0.202785 0.454308 0)
(0.19281 0.414481 0)
(0.19598 0.429222 0)
(0.220528 0.423011 0)
(0.249428 0.425083 0)
(0.298634 0.434893 0)
(0.360628 0.466476 0)
(0.451383 0.556335 0)
(0.551687 0.65758 0)
(0.598468 0.755266 0)
(0.432593 0.954729 0)
(0.736824 1.14403 0)
(0.999758 1.19289 0)
(0.028845 0.63856 0)
(0.110567 0.541736 0)
(0.128625 0.400121 0)
(0.130904 0.318078 0)
(0.0867229 0.299618 0)
(0.0643375 0.323645 0)
(0.0372872 0.334257 0)
(0.0290782 0.393402 0)
(0.0859561 0.449248 0)
(0.14995 0.467121 0)
(0.188144 0.446565 0)
(0.182185 0.4241 0)
(0.184323 0.420057 0)
(0.202364 0.403522 0)
(0.224162 0.393567 0)
(0.261187 0.39111 0)
(0.309571 0.405417 0)
(0.375817 0.44768 0)
(0.498289 0.554276 0)
(0.608626 0.60299 0)
(0.720589 0.69645 0)
(0.982543 1.05522 0)
(1.10285 1.03844 0)
(0.0460038 0.560344 0)
(0.0977572 0.492548 0)
(0.128545 0.39314 0)
(0.119151 0.338129 0)
(0.0901804 0.324287 0)
(0.0743249 0.338167 0)
(0.0602158 0.345526 0)
(0.055336 0.377418 0)
(0.0845231 0.40445 0)
(0.126658 0.425934 0)
(0.159788 0.429755 0)
(0.170414 0.420514 0)
(0.178303 0.410478 0)
(0.193608 0.387072 0)
(0.208036 0.368006 0)
(0.232266 0.354466 0)
(0.263544 0.354408 0)
(0.306424 0.369653 0)
(0.391198 0.421219 0)
(0.487994 0.437601 0)
(0.595086 0.464198 0)
(0.86319 0.807949 0)
(1.01641 0.898781 0)
(0.0419913 0.493897 0)
(0.0774663 0.45208 0)
(0.110597 0.387723 0)
(0.0989223 0.353388 0)
(0.0857509 0.340998 0)
(0.0792176 0.345816 0)
(0.0755375 0.349739 0)
(0.0782556 0.366184 0)
(0.0952205 0.378209 0)
(0.118375 0.39544 0)
(0.14542 0.407929 0)
(0.165667 0.406795 0)
(0.18472 0.393993 0)
(0.203019 0.371663 0)
(0.215736 0.350366 0)
(0.231284 0.331938 0)
(0.25093 0.321159 0)
(0.275909 0.319431 0)
(0.321657 0.34219 0)
(0.375071 0.339013 0)
(0.433935 0.334902 0)
(0.549758 0.543314 0)
(0.72854 0.706964 0)
(0.0284557 0.445247 0)
(0.0571557 0.420554 0)
(0.0822118 0.379571 0)
(0.0826389 0.358752 0)
(0.0808212 0.347374 0)
(0.0813647 0.34633 0)
(0.0839716 0.347977 0)
(0.0908475 0.356066 0)
(0.104596 0.362348 0)
(0.121193 0.373541 0)
(0.144699 0.381964 0)
(0.168792 0.380027 0)
(0.192852 0.369663 0)
(0.213124 0.353798 0)
(0.228329 0.3353 0)
(0.242663 0.316259 0)
(0.255016 0.304693 0)
(0.268203 0.299565 0)
(0.289875 0.309162 0)
(0.314698 0.30089 0)
(0.349101 0.301459 0)
(0.370459 0.424465 0)
(0.539018 0.555047 0)
(0.0182959 0.411235 0)
(0.0427616 0.394494 0)
(0.0643879 0.368568 0)
(0.0710974 0.354628 0)
(0.0757602 0.345774 0)
(0.080678 0.343102 0)
(0.0862227 0.34181 0)
(0.0949271 0.345398 0)
(0.107408 0.348153 0)
(0.122826 0.354232 0)
(0.144616 0.358471 0)
(0.168558 0.356093 0)
(0.191742 0.347641 0)
(0.212638 0.335616 0)
(0.228932 0.320204 0)
(0.242888 0.305734 0)
(0.251278 0.294742 0)
(0.261795 0.287295 0)
(0.277701 0.289527 0)
(0.294649 0.282832 0)
(0.312046 0.287986 0)
(0.327374 0.356306 0)
(0.441309 0.41719 0)
(0.0130671 0.385612 0)
(0.0339834 0.371971 0)
(0.0522187 0.355819 0)
(0.0618368 0.346796 0)
(0.0700088 0.33949 0)
(0.0781792 0.336071 0)
(0.085409 0.334028 0)
(0.0950206 0.334677 0)
(0.106705 0.335085 0)
(0.120825 0.336609 0)
(0.139431 0.337078 0)
(0.160736 0.334076 0)
(0.180609 0.326023 0)
(0.19996 0.31689 0)
(0.216305 0.305429 0)
(0.231196 0.295884 0)
(0.241619 0.286694 0)
(0.252821 0.276792 0)
(0.267424 0.273125 0)
(0.283435 0.269771 0)
(0.300441 0.276736 0)
(0.32294 0.306929 0)
(0.401216 0.322057 0)
(0.0102473 0.365106 0)
(0.0279655 0.352991 0)
(0.044147 0.342787 0)
(0.0554924 0.336233 0)
(0.0655328 0.33088 0)
(0.0750504 0.327647 0)
(0.0842263 0.324995 0)
(0.0947786 0.323819 0)
(0.106389 0.322287 0)
(0.119702 0.321014 0)
(0.134879 0.318282 0)
(0.152987 0.31366 0)
(0.169936 0.307294 0)
(0.1863 0.299083 0)
(0.201546 0.28943 0)
(0.215272 0.280717 0)
(0.230338 0.272437 0)
(0.244414 0.262412 0)
(0.259853 0.256369 0)
(0.275236 0.252668 0)
(0.296732 0.257003 0)
(0.322667 0.265048 0)
(0.379418 0.258811 0)
(0.00882745 0.347593 0)
(0.0242458 0.336501 0)
(0.0391034 0.329652 0)
(0.0509788 0.324808 0)
(0.061971 0.32064 0)
(0.0723859 0.317439 0)
(0.0829766 0.314419 0)
(0.0942941 0.312368 0)
(0.106336 0.310097 0)
(0.119509 0.307316 0)
(0.133455 0.302891 0)
(0.148678 0.297989 0)
(0.16405 0.292112 0)
(0.179081 0.284253 0)
(0.193455 0.275282 0)
(0.207829 0.266038 0)
(0.22243 0.256781 0)
(0.236662 0.248174 0)
(0.251047 0.240844 0)
(0.268694 0.235674 0)
(0.290034 0.234157 0)
(0.317318 0.230347 0)
(0.359648 0.214446 0)
(0.00767701 0.332377 0)
(0.0212986 0.321799 0)
(0.0348675 0.316873 0)
(0.0466759 0.313139 0)
(0.0579371 0.309551 0)
(0.0688445 0.3063 0)
(0.0797899 0.303062 0)
(0.09117 0.300208 0)
(0.103324 0.297063 0)
(0.116276 0.293999 0)
(0.129567 0.289439 0)
(0.142679 0.283346 0)
(0.156656 0.276813 0)
(0.170974 0.269565 0)
(0.185356 0.261255 0)
(0.199165 0.252107 0)
(0.213244 0.24345 0)
(0.227498 0.233811 0)
(0.243822 0.224607 0)
(0.26125 0.215529 0)
(0.281705 0.210067 0)
(0.306844 0.19946 0)
(0.340114 0.178863 0)
(0.00698176 0.31841 0)
(0.0195555 0.308365 0)
(0.0320455 0.304511 0)
(0.0435397 0.301526 0)
(0.0546826 0.298441 0)
(0.065655 0.295353 0)
(0.0765809 0.292011 0)
(0.0878006 0.288614 0)
(0.0995592 0.284781 0)
(0.111783 0.280828 0)
(0.124479 0.276035 0)
(0.137109 0.269919 0)
(0.150185 0.263012 0)
(0.163144 0.255275 0)
(0.176901 0.246261 0)
(0.190744 0.238008 0)
(0.204845 0.228572 0)
(0.219477 0.218572 0)
(0.234206 0.208025 0)
(0.250175 0.198962 0)
(0.26948 0.188836 0)
(0.292632 0.171752 0)
(0.31852 0.151277 0)
(0.00642642 0.305912 0)
(0.0180662 0.296293 0)
(0.0297331 0.293149 0)
(0.0407477 0.290632 0)
(0.0514362 0.287699 0)
(0.0620544 0.28443 0)
(0.072728 0.280915 0)
(0.0835553 0.277138 0)
(0.0946823 0.272904 0)
(0.106055 0.268375 0)
(0.118092 0.263573 0)
(0.130767 0.257383 0)
(0.143195 0.250641 0)
(0.156158 0.242442 0)
(0.16834 0.233963 0)
(0.180669 0.224684 0)
(0.193669 0.214625 0)
(0.207579 0.204735 0)
(0.222151 0.193211 0)
(0.238319 0.180588 0)
(0.256965 0.1676 0)
(0.275448 0.151896 0)
(0.295588 0.130597 0)
(0.00593858 0.293914 0)
(0.0167857 0.284653 0)
(0.027781 0.281875 0)
(0.038405 0.279629 0)
(0.0488305 0.276978 0)
(0.0591492 0.273898 0)
(0.0694939 0.270391 0)
(0.0799276 0.266428 0)
(0.0906179 0.262004 0)
(0.101414 0.257295 0)
(0.112666 0.25152 0)
(0.123646 0.245104 0)
(0.134979 0.237869 0)
(0.146735 0.23021 0)
(0.15849 0.221375 0)
(0.171277 0.211551 0)
(0.184083 0.201601 0)
(0.197178 0.190036 0)
(0.211214 0.178151 0)
(0.22457 0.165516 0)
(0.240071 0.151066 0)
(0.256733 0.132998 0)
(0.273769 0.112815 0)
(0.00547574 0.283127 0)
(0.0155332 0.274124 0)
(0.0257674 0.271503 0)
(0.0358053 0.269345 0)
(0.0457033 0.26675 0)
(0.0555538 0.263711 0)
(0.0653833 0.260099 0)
(0.0752652 0.256001 0)
(0.0852839 0.251427 0)
(0.0955205 0.24637 0)
(0.106162 0.240757 0)
(0.117035 0.234229 0)
(0.128037 0.226545 0)
(0.139043 0.218404 0)
(0.150251 0.209443 0)
(0.161402 0.199963 0)
(0.172656 0.189203 0)
(0.184484 0.178081 0)
(0.197057 0.1653 0)
(0.210229 0.150694 0)
(0.224414 0.135468 0)
(0.238028 0.118362 0)
(0.252021 0.0984291 0)
(0.00512323 0.272801 0)
(0.0146221 0.26406 0)
(0.0242841 0.26166 0)
(0.0337936 0.259648 0)
(0.0431619 0.257137 0)
(0.0525452 0.254102 0)
(0.0618935 0.250459 0)
(0.0712607 0.246247 0)
(0.0806663 0.24145 0)
(0.0902562 0.236048 0)
(0.0999421 0.23011 0)
(0.109736 0.223423 0)
(0.119647 0.216014 0)
(0.129747 0.20775 0)
(0.139881 0.198684 0)
(0.150454 0.188443 0)
(0.16155 0.17739 0)
(0.172755 0.165361 0)
(0.18435 0.152695 0)
(0.195675 0.138836 0)
(0.207374 0.123045 0)
(0.21926 0.105313 0)
(0.2312 0.0860053 0)
(0.00473224 0.263383 0)
(0.0135197 0.254785 0)
(0.0224849 0.252455 0)
(0.0313541 0.250499 0)
(0.0401155 0.248035 0)
(0.048916 0.244987 0)
(0.0577137 0.241369 0)
(0.0665468 0.237198 0)
(0.075412 0.232431 0)
(0.0843606 0.227045 0)
(0.0934044 0.221013 0)
(0.102695 0.214248 0)
(0.112026 0.206571 0)
(0.121455 0.198142 0)
(0.13095 0.188828 0)
(0.140611 0.178529 0)
(0.150274 0.167511 0)
(0.16001 0.155441 0)
(0.170094 0.142153 0)
(0.180359 0.127461 0)
(0.190838 0.111796 0)
(0.200936 0.0944912 0)
(0.210978 0.0755698 0)
(0.00440643 0.254446 0)
(0.0126368 0.246004 0)
(0.021012 0.243711 0)
(0.0293297 0.241799 0)
(0.0375441 0.23934 0)
(0.0457716 0.23627 0)
(0.0539635 0.232607 0)
(0.0621461 0.228353 0)
(0.0703333 0.223462 0)
(0.0785574 0.217945 0)
(0.0868261 0.211754 0)
(0.0952271 0.204934 0)
(0.103651 0.197285 0)
(0.112198 0.18876 0)
(0.12089 0.179378 0)
(0.129646 0.168976 0)
(0.138516 0.157652 0)
(0.147488 0.145542 0)
(0.156414 0.132426 0)
(0.165332 0.118076 0)
(0.174184 0.102339 0)
(0.182864 0.085154 0)
(0.191331 0.0666899 0)
(0.00402872 0.246328 0)
(0.0116473 0.238054 0)
(0.0194076 0.235798 0)
(0.027132 0.233952 0)
(0.03476 0.231564 0)
(0.0423842 0.228567 0)
(0.0499567 0.224963 0)
(0.0575119 0.220734 0)
(0.0650749 0.215855 0)
(0.0726371 0.210311 0)
(0.0802092 0.204062 0)
(0.0878303 0.197051 0)
(0.0955235 0.189235 0)
(0.103256 0.180628 0)
(0.111053 0.171238 0)
(0.118865 0.16086 0)
(0.126697 0.149578 0)
(0.13455 0.137415 0)
(0.142343 0.124122 0)
(0.15017 0.109674 0)
(0.157817 0.0941137 0)
(0.165192 0.0772747 0)
(0.172223 0.0592389 0)
(0.00371598 0.238701 0)
(0.0107589 0.230384 0)
(0.0179219 0.228127 0)
(0.0250631 0.226314 0)
(0.0320957 0.223955 0)
(0.0391143 0.221001 0)
(0.0460577 0.217453 0)
(0.0529363 0.213265 0)
(0.0597601 0.208415 0)
(0.0666024 0.202848 0)
(0.0734585 0.196595 0)
(0.0803417 0.189626 0)
(0.0872849 0.181913 0)
(0.0942468 0.173343 0)
(0.101206 0.163884 0)
(0.108111 0.153438 0)
(0.114942 0.142102 0)
(0.121741 0.129903 0)
(0.12852 0.116767 0)
(0.135224 0.102549 0)
(0.14169 0.0872175 0)
(0.147872 0.0706937 0)
(0.153651 0.0530759 0)
(0.00337759 0.231813 0)
(0.00990907 0.223648 0)
(0.0165022 0.221456 0)
(0.0230713 0.219715 0)
(0.0294957 0.217409 0)
(0.0359017 0.214515 0)
(0.0422135 0.210974 0)
(0.0484699 0.206788 0)
(0.0546527 0.201951 0)
(0.0607867 0.196407 0)
(0.0668862 0.190114 0)
(0.0729176 0.183071 0)
(0.07894 0.175195 0)
(0.0849992 0.16654 0)
(0.0910737 0.157179 0)
(0.0971573 0.146999 0)
(0.103218 0.135853 0)
(0.109152 0.123714 0)
(0.11487 0.110571 0)
(0.120454 0.0964823 0)
(0.125841 0.0814166 0)
(0.130933 0.0652659 0)
(0.135573 0.0480684 0)
(0.00310058 0.225348 0)
(0.0090535 0.21719 0)
(0.0150243 0.21495 0)
(0.0210027 0.213281 0)
(0.0268251 0.211052 0)
(0.0326497 0.208234 0)
(0.0384091 0.204872 0)
(0.0441138 0.200861 0)
(0.0497304 0.196134 0)
(0.0552352 0.190705 0)
(0.0606223 0.184503 0)
(0.0658919 0.177484 0)
(0.0710921 0.169644 0)
(0.0762483 0.161038 0)
(0.0813569 0.15155 0)
(0.0863847 0.141171 0)
(0.0913528 0.130014 0)
(0.0963135 0.118184 0)
(0.101276 0.105457 0)
(0.105986 0.0916148 0)
(0.110338 0.0767259 0)
(0.114397 0.0608759 0)
(0.117999 0.0441027 0)
(0.00286113 0.219563 0)
(0.00828307 0.211546 0)
(0.013549 0.209442 0)
(0.0189135 0.207848 0)
(0.0241062 0.205652 0)
(0.0293153 0.202884 0)
(0.0345023 0.199509 0)
(0.0396525 0.195509 0)
(0.0447324 0.190831 0)
(0.0496957 0.185514 0)
(0.0545221 0.179485 0)
(0.0592214 0.172678 0)
(0.0638044 0.165061 0)
(0.0681526 0.156553 0)
(0.0723268 0.147183 0)
(0.0763478 0.136967 0)
(0.0802858 0.12586 0)
(0.0841286 0.113717 0)
(0.0877863 0.100798 0)
(0.0914262 0.0873201 0)
(0.0950501 0.0729779 0)
(0.0982495 0.0575472 0)
(0.100905 0.0411541 0)
(0.00270771 0.214273 0)
(0.0074361 0.206509 0)
(0.0119563 0.204341 0)
(0.0165925 0.202803 0)
(0.0210559 0.200648 0)
(0.0255582 0.197881 0)
(0.0300447 0.194478 0)
(0.0345292 0.190515 0)
(0.0389728 0.186015 0)
(0.0433668 0.180851 0)
(0.0476299 0.174961 0)
(0.051693 0.168272 0)
(0.055564 0.160761 0)
(0.059318 0.152465 0)
(0.0629578 0.14335 0)
(0.0664486 0.133386 0)
(0.0697846 0.122515 0)
(0.0727146 0.110788 0)
(0.0754022 0.0981356 0)
(0.077928 0.0843608 0)
(0.0800712 0.0698732 0)
(0.082302 0.0549026 0)
(0.0842023 0.0390821 0)
(0.00257375 0.209304 0)
(0.00651981 0.202389 0)
(0.00978646 0.200401 0)
(0.0135024 0.198875 0)
(0.0170314 0.196714 0)
(0.0207096 0.193932 0)
(0.0243609 0.19052 0)
(0.0280947 0.186497 0)
(0.0319514 0.181857 0)
(0.0358315 0.176675 0)
(0.0397308 0.170921 0)
(0.0435642 0.164492 0)
(0.047159 0.157246 0)
(0.0504806 0.149138 0)
(0.0535119 0.140172 0)
(0.056205 0.130283 0)
(0.0586052 0.119553 0)
(0.0609369 0.10808 0)
(0.0631557 0.0957497 0)
(0.0649641 0.0826376 0)
(0.066395 0.068579 0)
(0.0673734 0.0533923 0)
(0.0680175 0.0376673 0)
(0.00218778 0.205141 0)
(0.00487652 0.198817 0)
(0.00684898 0.196774 0)
(0.00928537 0.195094 0)
(0.0115345 0.19285 0)
(0.0140811 0.190082 0)
(0.0165594 0.186671 0)
(0.0191559 0.182683 0)
(0.0217761 0.178145 0)
(0.0246073 0.17298 0)
(0.0276141 0.167223 0)
(0.0307892 0.160814 0)
(0.0341026 0.15374 0)
(0.0374119 0.145952 0)
(0.0406443 0.137383 0)
(0.0436739 0.127994 0)
(0.0463616 0.117734 0)
(0.0485964 0.10651 0)
(0.0502599 0.0943529 0)
(0.051558 0.0814177 0)
(0.0525843 0.0676981 0)
(0.0531543 0.0533311 0)
(0.0528629 0.0380143 0)
(0.00171743 0.20206 0)
(0.00276783 0.197709 0)
(0.00270313 0.196154 0)
(0.00331831 0.194456 0)
(0.00376947 0.192187 0)
(0.00468518 0.189277 0)
(0.00571285 0.185706 0)
(0.0069968 0.181464 0)
(0.00853126 0.176556 0)
(0.0103036 0.170969 0)
(0.0123279 0.164765 0)
(0.0146337 0.158024 0)
(0.017181 0.150686 0)
(0.0199125 0.142688 0)
(0.0228257 0.134003 0)
(0.025831 0.124658 0)
(0.0287822 0.114582 0)
(0.0315575 0.103801 0)
(0.0340132 0.0922737 0)
(0.0359527 0.0799987 0)
(0.0371682 0.0669388 0)
(0.0376117 0.0530095 0)
(0.0372421 0.0383014 0)
(0.000898934 0.200512 0)
(0.000522918 0.197412 0)
(-0.000971031 0.195562 0)
(-0.00149638 0.193229 0)
(-0.00215994 0.190471 0)
(-0.00241789 0.187231 0)
(-0.00245736 0.183489 0)
(-0.00222317 0.179164 0)
(-0.0016911 0.174213 0)