/*--------------------------------*- C++ -*----------------------------------*\
| =========                 |                                                 |
| \\      /  F ield         | OpenFOAM: The Open Source CFD Toolbox           |
|  \\    /   O peration     | Version:  2.4.0                                 |
|   \\  /    A nd           | Web:      www.OpenFOAM.org                      |
|    \\/     M anipulation  |                                                 |
\*---------------------------------------------------------------------------*/
FoamFile
{
    version     2.0;
    format      ascii;
    class       volVectorField;
    location    "0.85";
    object      U.water;
}
// * * * * * * * * * * * * * * * * * * * * * * * * * * * * * * * * * * * * * //

dimensions      [0 1 -1 0 0 0 0];

internalField   nonuniform List<vector> 
2268
(
(0.00190093 -0.0539063 0)
(0.0011281 -0.0630609 0)
(-0.00319468 -0.0786244 0)
(-0.0422717 -0.0723288 0)
(-0.0906206 -0.0506862 0)
(-0.147587 -0.0135203 0)
(-0.211729 0.0132358 0)
(-0.254446 0.0203283 0)
(-0.263644 0.0175416 0)
(-0.257708 0.0134312 0)
(-0.246019 0.00716482 0)
(-0.234125 -0.00309025 0)
(-0.211524 -0.00787266 0)
(-0.18217 -0.00970501 0)
(-0.153876 -0.0096783 0)
(-0.135865 -0.00624832 0)
(-0.125096 -0.00425509 0)
(-0.116795 -0.0042582 0)
(-0.103326 -0.00388732 0)
(-0.0796008 -0.00741847 0)
(-0.0550317 -0.00130294 0)
(-0.0477331 0.000855088 0)
(-0.0333348 -0.0121336 0)
(-0.000593647 0.204617 0)
(-0.00692004 0.197425 0)
(-0.00311939 0.174255 0)
(-0.0261325 0.16658 0)
(-0.0641803 0.126488 0)
(-0.125943 0.0726005 0)
(-0.198921 0.0341992 0)
(-0.256912 0.00461413 0)
(-0.270812 -0.0151067 0)
(-0.264865 -0.0212421 0)
(-0.251528 -0.0174414 0)
(-0.232583 -0.0129957 0)
(-0.20738 -0.0160489 0)
(-0.17871 -0.0175753 0)
(-0.152794 -0.0122123 0)
(-0.135344 -0.00729524 0)
(-0.122123 -0.00466725 0)
(-0.112788 -0.0060616 0)
(-0.0980837 -0.0121925 0)
(-0.0722054 -0.0172719 0)
(-0.0518326 -0.0145813 0)
(-0.0291527 -0.010143 0)
(-0.012596 -0.0276768 0)
(0.0109659 0.0526321 0)
(0.00915007 0.0541669 0)
(-0.0237511 0.0699846 0)
(-0.0855929 0.115203 0)
(-0.151007 0.162892 0)
(-0.180425 0.119438 0)
(-0.222349 0.105681 0)
(-0.26453 0.0570402 0)
(-0.276046 0.0231981 0)
(-0.269037 0.00543657 0)
(-0.250877 -0.0083918 0)
(-0.226026 -0.0236349 0)
(-0.20088 -0.0332943 0)
(-0.177502 -0.0339121 0)
(-0.153951 -0.027813 0)
(-0.138477 -0.0188767 0)
(-0.12149 -0.0136233 0)
(-0.107541 -0.0149267 0)
(-0.0920512 -0.0225979 0)
(-0.0706506 -0.0291449 0)
(-0.0555827 -0.0220685 0)
(-0.0206381 -0.0161088 0)
(-0.0062923 -0.0300078 0)
(-0.0108441 0.256971 0)
(-0.0519252 0.28776 0)
(-0.111797 0.308889 0)
(-0.117574 0.303118 0)
(-0.200461 0.266866 0)
(-0.296301 0.264125 0)
(-0.325895 0.22372 0)
(-0.301958 0.0900763 0)
(-0.294182 0.0128941 0)
(-0.273723 -0.0196913 0)
(-0.246267 -0.0300273 0)
(-0.221176 -0.0325846 0)
(-0.199454 -0.0339392 0)
(-0.176759 -0.0298747 0)
(-0.152552 -0.0186539 0)
(-0.130807 -0.0152983 0)
(-0.109518 -0.0170505 0)
(-0.0948366 -0.0166613 0)
(-0.085733 -0.0245857 0)
(-0.0819029 -0.0304356 0)
(-0.075646 -0.0372878 0)
(-0.0332021 -0.0251776 0)
(-0.0111879 -0.0129117 0)
(-0.00879913 -0.200416 0)
(-0.0170138 -0.194923 0)
(-0.0268606 -0.163756 0)
(-0.0433887 -0.0290567 0)
(-0.17695 0.220203 0)
(-0.384953 0.294228 0)
(-0.395427 0.242876 0)
(-0.368729 0.199136 0)
(-0.344304 0.0799257 0)
(-0.318109 0.0153643 0)
(-0.282616 -0.00541707 0)
(-0.24548 -0.0091152 0)
(-0.213626 -0.00667391 0)
(-0.190474 0.00835025 0)
(-0.163039 0.0163944 0)
(-0.131708 0.0123554 0)
(-0.103005 0.00371449 0)
(-0.0887618 -0.00231038 0)
(-0.0848147 -0.00921618 0)
(-0.0852616 -0.0157036 0)
(-0.0796362 -0.0206947 0)
(-0.0507737 0.00115369 0)
(-0.013877 0.0960299 0)
(-0.0243095 0.200073 0)
(-0.0767189 0.21525 0)
(-0.159096 0.213023 0)
(-0.235695 0.184584 0)
(-0.259546 0.216819 0)
(-0.49584 0.30112 0)
(-0.502486 0.240956 0)
(-0.441534 0.181453 0)
(-0.395046 0.132704 0)
(-0.368312 0.0450798 0)
(-0.327089 0.0559133 0)
(-0.27452 0.102222 0)
(-0.234937 0.105248 0)
(-0.209924 0.107307 0)
(-0.187348 0.113929 0)
(-0.162146 0.125127 0)
(-0.135373 0.140297 0)
(-0.107331 0.154397 0)
(-0.0922419 0.15256 0)
(-0.0809746 0.143736 0)
(-0.0621903 0.125826 0)
(-0.0328001 0.111291 0)
(-0.0222309 0.0721858 0)
(-0.00732791 -0.0815423 0)
(-0.0233063 -0.0534411 0)
(-0.0563274 0.000869422 0)
(-0.125462 0.0989989 0)
(-0.203146 0.236343 0)
(-0.454703 0.287103 0)
(-0.584769 0.220904 0)
(-0.557521 0.190489 0)
(-0.480455 0.163539 0)
(-0.416778 0.113512 0)
(-0.359215 0.0683781 0)
(-0.290807 0.0477102 0)
(-0.220523 0.0374318 0)
(-0.177222 0.0346061 0)
(-0.173348 0.0364936 0)
(-0.176382 0.0442566 0)
(-0.173508 0.0551291 0)
(-0.141577 0.0713598 0)
(-0.101398 0.080898 0)
(-0.0761576 0.0767779 0)
(-0.0542005 0.0534791 0)
(-0.0852322 0.038823 0)
(-0.102879 0.049189 0)
(-0.0169181 0.14138 0)
(-0.0518293 0.156439 0)
(-0.0876915 0.172796 0)
(-0.121039 0.203384 0)
(-0.142195 0.319669 0)
(-0.262426 0.364908 0)
(-0.494829 0.212628 0)
(-0.517928 0.101379 0)
(-0.484277 0.0240026 0)
(-0.448687 -0.0166557 0)
(-0.389867 -0.0270251 0)
(-0.293131 -0.0328525 0)
(-0.174023 -0.00716404 0)
(-0.121982 0.0371035 0)
(-0.120137 0.0649083 0)
(-0.163126 0.0757383 0)
(-0.195841 0.0699102 0)
(-0.18422 0.0541347 0)
(-0.130958 0.0497578 0)
(-0.0956951 0.0471336 0)
(-0.0828109 0.0507036 0)
(-0.155019 0.08735 0)
(-0.171403 -0.0746723 0)
(-0.0760939 -0.00489089 0)
(0.244099 -0.0472364 0)
(0.340461 -0.0895307 0)
(0.367672 -0.144353 0)
(0.375938 -0.169792 0)
(0.383035 -0.167919 0)
(0.399024 -0.147559 0)
(0.420736 -0.124444 0)
(0.433398 -0.0945153 0)
(0.457949 -0.0687507 0)
(0.475791 -0.0538433 0)
(0.500344 -0.0592799 0)
(0.48143 -0.041792 0)
(0.454668 -0.0388397 0)
(0.42091 -0.0447489 0)
(0.339403 -0.032352 0)
(0.152085 -0.0341414 0)
(-0.0567689 -0.057333 0)
(-0.0219737 -0.0922651 0)
(-0.0638331 0.220319 0)
(0.309871 0.0596031 0)
(0.432552 0.179694 0)
(0.507408 0.25368 0)
(0.522719 0.283711 0)
(0.521469 0.284984 0)
(0.515845 0.269961 0)
(0.506778 0.259928 0)
(0.507234 0.231384 0)
(0.511824 0.204899 0)
(0.50499 0.202108 0)
(0.495069 0.219477 0)
(0.481532 0.266397 0)
(0.418894 0.299707 0)
(0.363785 0.345717 0)
(0.240818 0.323719 0)
(0.14334 0.169174 0)
(-0.00225814 0.163184 0)
(-0.0757427 0.131067 0)
(0.239467 -0.00815287 0)
(0.384427 -0.176189 0)
(0.415663 -0.145061 0)
(0.473515 -0.168068 0)
(0.555916 -0.199756 0)
(0.625643 -0.203353 0)
(0.635238 -0.181347 0)
(0.614713 -0.169833 0)
(0.574002 -0.152331 0)
(0.506267 -0.114644 0)
(0.360465 -0.0814764 0)
(0.156721 -0.0504234 0)
(-0.125029 0.0473346 0)
(-0.331046 0.113614 0)
(-0.0928099 0.132969 0)
(0.110623 0.238888 0)
(0.123296 0.158951 0)
(0.0130377 0.114414 0)
(-0.0286306 -0.041811 0)
(0.24549 -0.31181 0)
(0.181717 -0.30956 0)
(0.273634 -0.185658 0)
(0.408991 -0.0550445 0)
(0.4923 0.014581 0)
(0.537601 0.0613896 0)
(0.530389 0.0968761 0)
(0.48606 0.10494 0)
(0.390501 0.0934609 0)
(0.323131 0.0961528 0)
(0.241781 0.121968 0)
(0.0859152 0.146589 0)
(-0.265367 0.181104 0)
(-0.517848 0.0972997 0)
(-0.483646 0.0317811 0)
(-0.0851073 0.15432 0)
(0.0842873 0.182365 0)
(0.0324063 0.17409 0)
(0.024339 0.0991668 0)
(0.152872 -0.579388 0)
(0.0471062 -0.40056 0)
(0.0978451 -0.259301 0)
(0.177332 -0.237973 0)
(0.286207 -0.210148 0)
(0.354174 -0.149111 0)
(0.383171 -0.0826052 0)
(0.372487 -0.0285062 0)
(0.302313 -0.00442106 0)
(0.223897 0.035034 0)
(0.167492 0.12403 0)
(0.0671589 0.247808 0)
(-0.23166 0.29628 0)
(-0.493477 0.084149 0)
(-0.491221 -0.0589599 0)
(-0.300967 -0.0226111 0)
(0.0112247 0.158141 0)
(0.0159324 0.173879 0)
(0.0540891 0.0232274 0)
(0.139505 -0.635109 0)
(-0.00625885 -0.391569 0)
(-0.0467139 -0.278978 0)
(0.0153819 -0.296302 0)
(0.13237 -0.22007 0)
(0.280433 -0.105786 0)
(0.265701 0.00200117 0)
(0.207316 0.0667516 0)
(0.144623 0.0753766 0)
(0.0943706 0.0659054 0)
(0.0871583 0.119149 0)
(0.0658505 0.283649 0)
(-0.105877 0.402578 0)
(-0.384776 0.125313 0)
(-0.41464 -0.0884193 0)
(-0.331574 -0.149553 0)
(-0.0297337 0.073015 0)
(0.0157964 0.155511 0)
(0.0820724 0.0999435 0)
(0.159784 -0.653221 0)
(-0.0151701 -0.435242 0)
(-0.041252 -0.335224 0)
(-0.0115271 -0.333664 0)
(0.0251941 -0.29041 0)
(0.183489 -0.216212 0)
(0.269631 -0.0495442 0)
(0.167899 0.0680714 0)
(0.0763076 0.107463 0)
(-0.00221655 0.102268 0)
(-0.00538865 0.147052 0)
(0.0227815 0.305902 0)
(0.0317023 0.447949 0)
(-0.269041 0.198591 0)
(-0.384481 -0.0722584 0)
(-0.38981 -0.134606 0)
(-0.202707 0.0716297 0)
(-0.00354234 0.146892 0)
(0.0901351 0.0757732 0)
(0.22521 -0.594226 0)
(-0.045967 -0.369301 0)
(-0.00398854 -0.345509 0)
(-0.0203529 -0.341941 0)
(-0.00697856 -0.324518 0)
(0.0374085 -0.259374 0)
(0.200312 -0.100704 0)
(0.143023 0.0655173 0)
(0.0328083 0.113947 0)
(-0.0458552 0.0944349 0)
(-0.0391203 0.132498 0)
(-0.0235938 0.287109 0)
(0.14485 0.490194 0)
(-0.0908287 0.293669 0)
(-0.213136 -0.094301 0)
(-0.36041 -0.153756 0)
(-0.332721 -0.026892 0)
(-0.109941 0.105802 0)
(0.0646644 0.185302 0)
(0.0195143 -0.0506856 0)
(0.0453408 -0.011195 0)
(0.0568819 0.0688644 0)
(0.0526422 0.168814 0)
(0.0499122 0.296994 0)
(0.11487 0.409958 0)
(0.090233 0.367725 0)
(-0.022779 0.262914 0)
(-0.157885 0.196664 0)
(-0.253602 0.0880625 0)
(-0.238391 -0.031637 0)
(-0.214633 -0.106329 0)
(-0.206624 -0.161806 0)
(-0.179657 -0.18272 0)
(-0.138963 -0.177416 0)
(-0.123199 -0.162923 0)
(-0.125114 -0.150729 0)
(-0.133966 -0.140742 0)
(-0.149159 -0.11833 0)
(-0.160045 -0.0741317 0)
(-0.157242 -0.0571051 0)
(-0.0760213 -0.128436 0)
(-0.0440217 -0.306125 0)
(0.014669 0.09466 0)
(0.0347586 0.125004 0)
(0.0438115 0.154284 0)
(0.0444741 0.192839 0)
(0.0704575 0.253882 0)
(0.135166 0.292843 0)
(0.209832 0.236741 0)
(0.212034 0.119608 0)
(0.19088 -0.0144441 0)
(0.187907 -0.143378 0)
(0.165769 -0.208689 0)
(0.126129 -0.218316 0)
(0.116227 -0.194785 0)
(0.136591 -0.140057 0)
(0.155421 -0.0665758 0)
(0.143032 0.00915332 0)
(0.107645 0.0224085 0)
(0.0564127 -0.0137165 0)
(-0.00905328 -0.048882 0)
(-0.0553522 -0.0885055 0)
(-0.0411874 -0.136555 0)
(0.0412577 -0.154543 0)
(0.0782279 -0.144374 0)
(0.0604254 -0.0727993 0)
(0.117998 -0.00354885 0)
(0.14596 0.117496 0)
(0.124349 0.183556 0)
(0.11797 0.227768 0)
(0.134778 0.226713 0)
(0.175581 0.203814 0)
(0.215467 0.158421 0)
(0.232668 0.0957527 0)
(0.234399 0.0323411 0)
(0.204263 -0.0379151 0)
(0.177202 -0.10164 0)
(0.158584 -0.148799 0)
(0.169661 -0.139376 0)
(0.182628 -0.108342 0)
(0.174019 -0.0538363 0)
(0.121392 -0.00873331 0)
(0.052267 0.0233513 0)
(0.00282107 0.0440923 0)
(-0.0935443 0.0141209 0)
(-0.295517 -0.115523 0)
(-0.549468 -0.175321 0)
(-0.553587 -0.144748 0)
(0.0650505 -0.146709 0)
(0.131928 -0.0161602 0)
(0.118682 0.0986439 0)
(0.0711555 0.164406 0)
(0.0850385 0.205533 0)
(0.0864621 0.192681 0)
(0.104047 0.150654 0)
(0.136504 0.085735 0)
(0.161752 0.0078564 0)
(0.164887 -0.0736302 0)
(0.158408 -0.107874 0)
(0.131171 -0.142038 0)
(0.11355 -0.252746 0)
(0.0979836 -0.296418 0)
(-0.0204824 -0.257034 0)
(-0.129213 -0.149187 0)
(-0.172289 -0.0573916 0)
(-0.348932 -0.00936732 0)
(-0.512135 0.0603957 0)
(-0.680534 0.206669 0)
(-0.865998 0.229714 0)
(-1.49988 -0.696852 0)
(-1.36466 -1.31984 0)
(0.0200411 -0.302169 0)
(-0.0434523 -0.0972953 0)
(-0.0265312 0.157322 0)
(-0.0853818 0.205772 0)
(-0.0428709 0.225064 0)
(-0.0422278 0.219034 0)
(-0.0220403 0.172961 0)
(0.00757043 0.117621 0)
(0.0715405 0.0445738 0)
(0.145777 -0.0486061 0)
(0.156473 -0.136544 0)
(-0.00390043 -0.198645 0)
(-0.64197 -0.215452 0)
(-1.1515 -0.125383 0)
(-1.12071 0.0241536 0)
(-1.07492 0.139039 0)
(-1.10402 0.256284 0)
(-1.14803 0.326725 0)
(-1.1837 0.342242 0)
(-1.20432 0.271361 0)
(-1.49492 -0.265254 0)
(-1.66173 -1.1538 0)
(-1.45413 -1.21657 0)
(-0.088624 -0.181489 0)
(-0.206996 0.0122363 0)
(-0.196995 0.124125 0)
(-0.192427 0.15662 0)
(-0.163424 0.160791 0)
(-0.123041 0.136594 0)
(-0.0843538 0.0556944 0)
(-0.110315 -0.09241 0)
(-0.190097 -0.403685 0)
(-0.234773 -0.72254 0)
(0.0716914 -0.307199 0)
(0.0168006 -0.273978 0)
(-0.956858 -0.218253 0)
(-1.33463 -0.181425 0)
(-1.24321 -0.122978 0)
(-1.26735 0.0886862 0)
(-1.28371 0.236593 0)
(-1.2635 0.280748 0)
(-1.25986 0.284249 0)
(-1.30999 0.143158 0)
(-1.62759 -1.02849 0)
(-1.49546 -1.15958 0)
(-1.53342 -1.12231 0)
(-0.133982 -0.152067 0)
(-0.281261 -0.101815 0)
(-0.325016 -0.0989691 0)
(-0.311062 -0.114151 0)
(-0.270424 -0.142012 0)
(-0.226611 -0.190481 0)
(-0.194494 -0.289319 0)
(-0.185237 -0.39227 0)
(-0.28542 -0.638725 0)
(-0.947316 0.42313 0)
(-0.237704 -0.140185 0)
(-0.0748409 -0.256518 0)
(-1.61914 -0.183192 0)
(-1.39745 -0.135433 0)
(-1.24345 -0.0335696 0)
(-1.23851 0.117613 0)
(-1.26218 0.216977 0)
(-1.26402 0.249434 0)
(-1.32296 0.249252 0)
(-1.64395 0.135296 0)
(-1.94965 -0.59771 0)
(-1.46881 -1.18293 0)
(-1.48831 -1.18651 0)
(-0.182272 -0.4612 0)
(-0.349575 -0.416986 0)
(-0.38746 -0.363056 0)
(-0.356655 -0.370216 0)
(-0.314043 -0.388853 0)
(-0.280275 -0.395717 0)
(-0.276149 -0.451571 0)
(-0.279156 -0.411214 0)
(-0.518028 0.0604312 0)
(-0.954419 0.291731 0)
(-0.918801 0.636364 0)
(-1.01018 0.8783 0)
(-1.72785 -0.0277046 0)
(-1.50544 -0.0947818 0)
(-1.26282 -0.0344016 0)
(-1.15356 0.0745005 0)
(-1.15645 0.20302 0)
(-1.191 0.264237 0)
(-1.38511 0.342535 0)
(-1.89782 0.613854 0)
(-1.35121 0.737056 0)
(-1.18262 -0.0490577 0)
(-1.24166 -0.316843 0)
(-0.233122 -0.199191 0)
(-0.417597 0.0475442 0)
(-0.472476 -0.219146 0)
(-0.421434 -0.268619 0)
(-0.364755 -0.252661 0)
(-0.319261 -0.188076 0)
(-0.315998 0.015956 0)
(-0.513894 0.288353 0)
(-0.657595 0.489598 0)
(-0.745965 0.504423 0)
(-0.677899 0.737164 0)
(-0.595387 0.990648 0)
(-0.910256 0.489652 0)
(-1.50209 -0.0180499 0)
(-1.33858 -0.0203679 0)
(-1.14169 0.0279214 0)
(-1.06094 0.114784 0)
(-1.05117 0.201076 0)
(-1.14732 0.343392 0)
(-1.41691 0.943218 0)
(-1.3801 0.707884 0)
(-1.36944 -0.147394 0)
(-1.52062 -0.392927 0)
(-0.241674 0.690957 0)
(-0.316277 0.471632 0)
(-0.335505 0.279902 0)
(-0.299882 0.224852 0)
(-0.30134 0.244601 0)
(-0.338418 0.329426 0)
(-0.298209 0.450609 0)
(-0.428222 0.565885 0)
(-0.458143 0.618116 0)
(-0.535711 0.516234 0)
(-0.536507 0.564315 0)
(-0.368146 0.739453 0)
(-0.167106 0.706928 0)
(-0.65481 0.392191 0)
(-1.26404 0.0551457 0)
(-1.18455 0.0320237 0)
(-1.05259 0.0707939 0)
(-0.995274 0.15874 0)
(-1.0173 0.386049 0)
(-1.17448 1.01944 0)
(-1.22701 0.934482 0)
(-1.37184 0.296902 0)
(-1.57112 -0.0551144 0)
(-0.152101 0.926164 0)
(-0.0804726 0.570905 0)
(-0.180624 0.216733 0)
(-0.18498 0.0609388 0)
(-0.170202 0.0489525 0)
(-0.162481 0.162364 0)
(-0.169923 0.399567 0)
(-0.190284 0.622211 0)
(-0.22698 0.672587 0)
(-0.244655 0.601864 0)
(-0.262406 0.562367 0)
(-0.140736 0.596093 0)
(-0.0427795 0.63304 0)
(0.0267325 0.687311 0)
(-0.396788 0.479117 0)
(-0.8597 0.189565 0)
(-0.952786 0.110262 0)
(-0.945993 0.220367 0)
(-0.902558 0.53082 0)
(-0.800573 1.08117 0)
(-0.645879 1.24571 0)
(-0.926386 0.646822 0)
(-1.02148 -0.00576193 0)
(0.00798462 1.00611 0)
(0.0771832 0.660931 0)
(-0.0120709 0.337302 0)
(-0.0477292 0.183037 0)
(-0.118818 0.156556 0)
(-0.129531 0.241657 0)
(-0.114886 0.350206 0)
(-0.0274704 0.585452 0)
(-0.0546112 0.665289 0)
(-0.0403959 0.622455 0)
(-0.0686567 0.500954 0)
(0.0190797 0.469728 0)
(0.0580267 0.536424 0)
(0.161689 0.566384 0)
(0.239974 0.615717 0)
(0.145082 0.600026 0)
(-0.0538713 0.49725 0)
(-0.283532 0.426 0)
(-0.483848 0.50596 0)
(-0.461761 0.847097 0)
(-0.180712 1.17229 0)
(-0.298695 0.988809 0)
(-0.691913 0.364995 0)
(0.070064 0.938974 0)
(0.121226 0.65199 0)
(0.0741799 0.378653 0)
(0.0590985 0.222752 0)
(-0.0123465 0.180396 0)
(-0.0406821 0.231802 0)
(-0.0713994 0.331465 0)
(0.0197133 0.554171 0)
(0.0429642 0.654056 0)
(0.0771991 0.617781 0)
(0.0897928 0.486784 0)
(0.128752 0.441067 0)
(0.147095 0.487885 0)
(0.217297 0.498517 0)
(0.280138 0.525897 0)
(0.348092 0.576743 0)
(0.394923 0.599724 0)
(0.381878 0.656269 0)
(0.258143 0.70774 0)
(0.162146 0.810327 0)
(0.14369 1.06468 0)
(0.221462 1.14183 0)
(-0.110945 0.7456 0)
(0.0520186 0.779701 0)
(0.130035 0.62843 0)
(0.107115 0.399105 0)
(0.09422 0.25309 0)
(0.0308924 0.214431 0)
(0.0146422 0.258079 0)
(-0.0227585 0.295844 0)
(0.0229895 0.486362 0)
(0.0906891 0.612328 0)
(0.148609 0.58086 0)
(0.18483 0.474179 0)
(0.187683 0.423308 0)
(0.194359 0.452805 0)
(0.234248 0.457969 0)
(0.270494 0.472806 0)
(0.328804 0.49339 0)
(0.404535 0.548843 0)
(0.476303 0.632916 0)
(0.521003 0.73056 0)
(0.582342 0.84584 0)
(0.612616 1.0852 0)
(0.722421 1.2438 0)
(0.665712 1.12782 0)
(0.0181346 0.702463 0)
(0.119782 0.592077 0)
(0.119664 0.406207 0)
(0.12134 0.289139 0)
(0.0655637 0.257491 0)
(0.0443825 0.292243 0)
(0.00612489 0.305188 0)
(0.0198203 0.422797 0)
(0.0920666 0.523462 0)
(0.17269 0.521528 0)
(0.203181 0.455395 0)
(0.193239 0.415528 0)
(0.196171 0.429733 0)
(0.220727 0.42354 0)
(0.249637 0.425531 0)
(0.298831 0.435278 0)
(0.361238 0.467494 0)
(0.455298 0.561306 0)
(0.564268 0.667971 0)
(0.666991 0.766619 0)
(0.82943 0.911736 0)
(1.05376 1.15939 0)
(1.069 1.09289 0)
(0.0288334 0.638154 0)
(0.110506 0.540922 0)
(0.128595 0.399566 0)
(0.130888 0.317757 0)
(0.086723 0.299564 0)
(0.0643375 0.323644 0)
(0.0372917 0.334296 0)
(0.0290914 0.393537 0)
(0.0860014 0.449462 0)
(0.150143 0.467765 0)
(0.188518 0.447585 0)
(0.182439 0.424809 0)
(0.184477 0.420427 0)
(0.202547 0.40403 0)
(0.224373 0.394188 0)
(0.261393 0.391667 0)
(0.310007 0.40629 0)
(0.377887 0.45041 0)
(0.504217 0.558367 0)
(0.628107 0.612132 0)
(0.781214 0.692668 0)
(1.05923 0.99888 0)
(1.14903 0.961658 0)
(0.0459921 0.55914 0)
(0.0977049 0.491646 0)
(0.128502 0.392611 0)
(0.119145 0.337973 0)
(0.0901805 0.324275 0)
(0.0743248 0.338167 0)
(0.060217 0.345538 0)
(0.0553371 0.37744 0)
(0.084531 0.404513 0)
(0.126687 0.42613 0)
(0.159894 0.430233 0)
(0.170475 0.420775 0)
(0.178438 0.410833 0)
(0.19397 0.387854 0)
(0.208628 0.369205 0)
(0.23286 0.355582 0)
(0.264017 0.355256 0)
(0.307243 0.37113 0)
(0.393985 0.42373 0)
(0.496506 0.441265 0)
(0.613011 0.46059 0)
(0.864737 0.753079 0)
(1.03698 0.862949 0)
(0.0419702 0.492884 0)
(0.0774407 0.45143 0)
(0.110589 0.387487 0)
(0.0989229 0.353353 0)
(0.0857509 0.340997 0)
(0.0792176 0.345816 0)
(0.0755375 0.349741 0)
(0.0782557 0.366186 0)
(0.0952214 0.37822 0)
(0.118375 0.395468 0)
(0.145423 0.408024 0)
(0.16568 0.406864 0)
(0.184806 0.394234 0)
(0.20334 0.372494 0)
(0.216575 0.352157 0)
(0.232114 0.333552 0)
(0.251522 0.322235 0)
(0.276484 0.320309 0)
(0.322668 0.343559 0)
(0.378906 0.342348 0)
(0.443818 0.336652 0)
(0.554915 0.529058 0)
(0.747268 0.70003 0)
(0.0284517 0.44474 0)
(0.0571532 0.420297 0)
(0.0822122 0.379525 0)
(0.0826389 0.35875 0)
(0.0808212 0.347373 0)
(0.0813647 0.34633 0)
(0.0839716 0.347977 0)
(0.0908476 0.356067 0)
(0.104596 0.362349 0)
(0.121194 0.373542 0)
(0.144699 0.381972 0)
(0.168798 0.380049 0)
(0.192895 0.369804 0)
(0.213403 0.354507 0)
(0.229002 0.33696 0)
(0.243676 0.318339 0)
(0.255753 0.306089 0)
(0.268668 0.300349 0)
(0.290343 0.309962 0)
(0.315937 0.302541 0)
(0.348158 0.301441 0)
(0.371988 0.422113 0)
(0.539863 0.555563 0)
(0.0182966 0.411108 0)
(0.0427623 0.394446 0)
(0.0643879 0.368565 0)
(0.0710974 0.354628 0)
(0.0757602 0.345774 0)
(0.080678 0.343102 0)
(0.0862227 0.34181 0)
(0.0949272 0.345398 0)
(0.107409 0.348153 0)
(0.122826 0.354234 0)
(0.144617 0.358473 0)
(0.168561 0.356104 0)
(0.191772 0.34774 0)
(0.212758 0.336046 0)
(0.229514 0.321585 0)
(0.24355 0.307315 0)
(0.25208 0.296303 0)
(0.262171 0.288033 0)
(0.278016 0.290045 0)
(0.295054 0.283611 0)
(0.312798 0.28931 0)
(0.327668 0.357711 0)
(0.440175 0.418299 0)
(0.0130672 0.385598 0)
(0.0339834 0.371968 0)
(0.0522186 0.355819 0)
(0.0618368 0.346795 0)
(0.0700088 0.33949 0)
(0.0781792 0.336071 0)
(0.085409 0.334028 0)
(0.0950207 0.334677 0)
(0.106705 0.335086 0)
(0.120825 0.33661 0)
(0.139431 0.33708 0)
(0.160737 0.334082 0)
(0.180625 0.326084 0)
(0.200051 0.317182 0)
(0.216497 0.306165 0)
(0.231614 0.297043 0)
(0.242077 0.287813 0)
(0.253028 0.277329 0)
(0.267574 0.273506 0)
(0.283561 0.270166 0)
(0.300677 0.277446 0)
(0.323241 0.307941 0)
(0.401166 0.323153 0)
(0.0102473 0.365105 0)
(0.0279655 0.352991 0)
(0.044147 0.342787 0)
(0.0554924 0.336233 0)
(0.0655328 0.33088 0)
(0.0750504 0.327647 0)
(0.0842263 0.324995 0)
(0.0947786 0.323819 0)
(0.106389 0.322288 0)
(0.119702 0.321015 0)
(0.134879 0.318283 0)
(0.152987 0.313663 0)
(0.169944 0.307326 0)
(0.186341 0.299266 0)
(0.201653 0.289817 0)
(0.215391 0.281234 0)
(0.230488 0.273006 0)
(0.244571 0.262893 0)
(0.25995 0.256642 0)
(0.275296 0.252853 0)
(0.296777 0.257237 0)
(0.322733 0.265443 0)
(0.379421 0.259343 0)
(0.00882745 0.347593 0)
(0.0242458 0.336501 0)
(0.0391034 0.329652 0)
(0.0509788 0.324808 0)
(0.061971 0.32064 0)
(0.0723859 0.317439 0)
(0.0829766 0.314419 0)
(0.0942941 0.312368 0)
(0.106336 0.310097 0)
(0.119509 0.307317 0)
(0.133455 0.302892 0)
(0.148678 0.29799 0)
(0.164052 0.292124 0)
(0.179104 0.284355 0)
(0.193492 0.27548 0)
(0.20789 0.266289 0)
(0.222511 0.257098 0)
(0.236747 0.24849 0)
(0.251106 0.241064 0)
(0.268722 0.23579 0)
(0.290049 0.234246 0)
(0.317329 0.230476 0)
(0.359648 0.214623 0)
(0.00767701 0.332377 0)
(0.0212986 0.321799 0)
(0.0348675 0.316873 0)
(0.0466759 0.313139 0)
(0.0579371 0.309551 0)
(0.0688445 0.3063 0)
(0.0797899 0.303062 0)
(0.09117 0.300208 0)
(0.103324 0.297064 0)
(0.116276 0.294 0)
(0.129567 0.289439 0)
(0.142679 0.283346 0)
(0.156656 0.276815 0)
(0.17098 0.269606 0)
(0.185376 0.261348 0)
(0.199193 0.252249 0)
(0.213291 0.243661 0)
(0.227549 0.234026 0)
(0.243859 0.224765 0)
(0.26127 0.215614 0)
(0.281715 0.210118 0)
(0.306849 0.199506 0)
(0.340117 0.178904 0)
(0.00698176 0.31841 0)
(0.0195555 0.308365 0)
(0.0320455 0.304511 0)
(0.0435397 0.301526 0)
(0.0546826 0.298441 0)
(0.065655 0.295353 0)
(0.0765809 0.292011 0)
(0.0878006 0.288615 0)
(0.0995592 0.284781 0)
(0.111783 0.280829 0)
(0.124479 0.276035 0)
(0.137109 0.26992 0)
(0.150185 0.263012 0)
(0.163145 0.255285 0)
(0.176906 0.246299 0)
(0.190754 0.238077 0)
(0.204871 0.228697 0)
(0.219502 0.218705 0)
(0.234224 0.208125 0)
(0.250186 0.199022 0)
(0.269486 0.188871 0)
(0.292635 0.171775 0)
(0.318522 0.151292 0)
(0.00642642 0.305912 0)
(0.0180662 0.296293 0)
(0.0297331 0.293149 0)
(0.0407477 0.290632 0)
(0.0514362 0.287699 0)
(0.0620544 0.28443 0)
(0.072728 0.280915 0)
(0.0835553 0.277138 0)
(0.0946823 0.272904 0)
(0.106055 0.268375 0)
(0.118092 0.263573 0)
(0.130767 0.257383 0)
(0.143195 0.250642 0)
(0.156158 0.242444 0)
(0.168341 0.233973 0)
(0.180672 0.224711 0)
(0.193676 0.214679 0)
(0.207588 0.204801 0)
(0.222158 0.193264 0)
(0.238324 0.180622 0)
(0.256968 0.167621 0)
(0.275449 0.151908 0)
(0.295589 0.130604 0)
(0.00593858 0.293914 0)
(0.0167857 0.284653 0)
(0.027781 0.281875 0)
(0.038405 0.279629 0)
(0.0488305 0.276978 0)
(0.0591492 0.273898 0)
(0.0694939 0.270391 0)
(0.0799276 0.266428 0)
(0.0906179 0.262004 0)
(0.101414 0.257295 0)
(0.112666 0.25152 0)
(0.123646 0.245104 0)
(0.134979 0.237869 0)
(0.146735 0.230211 0)
(0.15849 0.221378 0)
(0.171278 0.211557 0)
(0.184084 0.201615 0)
(0.19718 0.19006 0)
(0.211217 0.178173 0)
(0.224572 0.165531 0)
(0.240071 0.151076 0)
(0.256733 0.133004 0)
(0.273769 0.112818 0)
(0.00547574 0.283127 0)
(0.0155332 0.274124 0)
(0.0257674 0.271503 0)
(0.0358053 0.269345 0)
(0.0457033 0.26675 0)
(0.0555538 0.263711 0)
(0.0653833 0.260099 0)
(0.0752652 0.256001 0)
(0.0852839 0.251427 0)
(0.0955205 0.24637 0)
(0.106162 0.240757 0)
(0.117035 0.234229 0)
(0.128037 0.226545 0)
(0.139043 0.218404 0)
(0.150251 0.209444 0)
(0.161402 0.199964 0)
(0.172656 0.189205 0)
(0.184484 0.178086 0)
(0.197057 0.165306 0)
(0.210229 0.150699 0)
(0.224414 0.135472 0)
(0.238028 0.118364 0)
(0.252021 0.0984301 0)
(0.00512323 0.272801 0)
(0.0146221 0.26406 0)
(0.0242841 0.26166 0)
(0.0337936 0.259648 0)
(0.0431619 0.257137 0)
(0.0525452 0.254102 0)
(0.0618935 0.250459 0)
(0.0712607 0.246247 0)
(0.0806663 0.24145 0)
(0.0902562 0.236048 0)
(0.0999421 0.23011 0)
(0.109736 0.223423 0)
(0.119647 0.216014 0)
(0.129747 0.20775 0)
(0.139881 0.198684 0)
(0.150454 0.188444 0)
(0.16155 0.17739 0)
(0.172755 0.165361 0)
(0.18435 0.152696 0)
(0.195675 0.138837 0)
(0.207374 0.123046 0)
(0.21926 0.105314 0)
(0.2312 0.0860056 0)
(0.00473224 0.263383 0)
(0.0135197 0.254785 0)
(0.0224849 0.252455 0)
(0.0313541 0.250499 0)
(0.0401155 0.248035 0)
(0.048916 0.244987 0)
(0.0577137 0.241369 0)
(0.0665468 0.237198 0)
(0.075412 0.232431 0)
(0.0843606 0.227045 0)
(0.0934044 0.221013 0)
(0.102695 0.214248 0)
(0.112026 0.206571 0)
(0.121455 0.198142 0)
(0.13095 0.188828 0)
(0.140611 0.178529 0)
(0.150274 0.167511 0)
(0.16001 0.155441 0)
(0.170094 0.142153 0)
(0.180359 0.127461 0)
(0.190838 0.111796 0)
(0.200936 0.0944913 0)
(0.210978 0.0755699 0)
(0.00440643 0.254446 0)
(0.0126368 0.246004 0)
(0.021012 0.243711 0)
(0.0293297 0.241799 0)
(0.0375441 0.23934 0)
(0.0457716 0.23627 0)
(0.0539635 0.232607 0)
(0.0621461 0.228353 0)
(0.0703333 0.223462 0)
(0.0785574 0.217945 0)
(0.0868261 0.211754 0)
(0.0952271 0.204934 0)
(0.103651 0.197285 0)
(0.112198 0.18876 0)
(0.12089 0.179378 0)
(0.129646 0.168976 0)
(0.138516 0.157652 0)
(0.147488 0.145542 0)
(0.156414 0.132426 0)
(0.165332 0.118076 0)
(0.174184 0.102339 0)
(0.182864 0.085154 0)
(0.191331 0.0666899 0)
(0.00402872 0.246328 0)
(0.0116473 0.238054 0)
(0.0194076 0.235798 0)
(0.027132 0.233952 0)
(0.03476 0.231564 0)
(0.0423842 0.228567 0)
(0.0499567 0.224963 0)
(0.0575119 0.220734 0)
(0.0650749 0.215855 0)
(0.0726371 0.210311 0)
(0.0802092 0.204062 0)
(0.0878303 0.197051 0)
(0.0955235 0.189235 0)
(0.103256 0.180628 0)
(0.111053 0.171238 0)
(0.118865 0.16086 0)
(0.126697 0.149578 0)
(0.13455 0.137415 0)
(0.142343 0.124122 0)
(0.15017 0.109674 0)
(0.157817 0.0941137 0)
(0.165192 0.0772747 0)
(0.172223 0.0592389 0)
(0.00371598 0.238701 0)
(0.0107589 0.230384 0)
(0.0179219 0.228127 0)
(0.0250631 0.226314 0)
(0.0320957 0.223955 0)
(0.0391143 0.221001 0)
(0.0460577 0.217453 0)
(0.0529363 0.213265 0)
(0.0597601 0.208415 0)
(0.0666024 0.202848 0)
(0.0734585 0.196595 0)
(0.0803417 0.189626 0)
(0.0872849 0.181913 0)
(0.0942468 0.173343 0)
(0.101206 0.163884 0)
(0.108111 0.153438 0)
(0.114942 0.142102 0)
(0.121741 0.129903 0)
(0.12852 0.116767 0)
(0.135224 0.102549 0)
(0.14169 0.0872175 0)
(0.147872 0.0706937 0)
(0.153651 0.0530759 0)
(0.00337759 0.231813 0)
(0.00990907 0.223648 0)
(0.0165022 0.221456 0)
(0.0230713 0.219715 0)
(0.0294957 0.217409 0)
(0.0359017 0.214515 0)
(0.0422135 0.210974 0)
(0.0484699 0.206788 0)
(0.0546527 0.201951 0)
(0.0607867 0.196407 0)
(0.0668862 0.190114 0)
(0.0729176 0.183071 0)
(0.07894 0.175195 0)
(0.0849992 0.16654 0)
(0.0910737 0.157179 0)
(0.0971573 0.146999 0)
(0.103218 0.135853 0)
(0.109152 0.123714 0)
(0.11487 0.110571 0)
(0.120454 0.0964823 0)
(0.125841 0.0814166 0)
(0.130933 0.0652659 0)
(0.135573 0.0480684 0)
(0.00310058 0.225348 0)
(0.0090535 0.21719 0)
(0.0150243 0.21495 0)
(0.0210027 0.213281 0)
(0.0268251 0.211052 0)
(0.0326497 0.208234 0)
(0.0384091 0.204872 0)
(0.0441138 0.200861 0)
(0.0497304 0.196134 0)
(0.0552352 0.190705 0)
(0.0606223 0.184503 0)
(0.0658919 0.177484 0)
(0.0710921 0.169644 0)
(0.0762483 0.161038 0)
(0.0813569 0.15155 0)
(0.0863847 0.141171 0)
(0.0913528 0.130014 0)
(0.0963135 0.118184 0)
(0.101276 0.105457 0)
(0.105986 0.0916148 0)
(0.110338 0.0767259 0)
(0.114397 0.0608759 0)
(0.117999 0.0441027 0)
(0.00286113 0.219563 0)
(0.00828307 0.211546 0)
(0.013549 0.209442 0)
(0.0189135 0.207848 0)
(0.0241062 0.205652 0)
(0.0293153 0.202884 0)
(0.0345023 0.199509 0)
(0.0396525 0.195509 0)
(0.0447324 0.190831 0)
(0.0496957 0.185514 0)
(0.0545221 0.179485 0)
(0.0592214 0.172678 0)
(0.0638044 0.165061 0)
(0.0681526 0.156553 0)
(0.0723268 0.147183 0)
(0.0763478 0.136967 0)
(0.0802858 0.12586 0)
(0.0841286 0.113717 0)
(0.0877863 0.100798 0)
(0.0914262 0.0873201 0)
(0.0950501 0.0729779 0)
(0.0982495 0.0575472 0)
(0.100905 0.0411541 0)
(0.00270771 0.214273 0)
(0.0074361 0.206509 0)
(0.0119563 0.204341 0)
(0.0165925 0.202803 0)
(0.0210559 0.200648 0)
(0.0255582 0.197881 0)
(0.0300447 0.194478 0)
(0.0345292 0.190515 0)
(0.0389728 0.186015 0)
(0.0433668 0.180851 0)
(0.0476299 0.174961 0)
(0.051693 0.168272 0)
(0.055564 0.160761 0)
(0.059318 0.152465 0)
(0.0629578 0.14335 0)
(0.0664486 0.133386 0)
(0.0697846 0.122515 0)
(0.0727146 0.110788 0)
(0.0754022 0.0981356 0)
(0.077928 0.0843608 0)
(0.0800712 0.0698732 0)
(0.082302 0.0549026 0)
(0.0842023 0.0390821 0)
(0.00257375 0.209304 0)
(0.00651981 0.202389 0)
(0.00978646 0.200401 0)
(0.0135024 0.198875 0)
(0.0170314 0.196714 0)
(0.0207096 0.193932 0)
(0.0243609 0.19052 0)
(0.0280947 0.186497 0)
(0.0319514 0.181857 0)
(0.0358315 0.176675 0)
(0.0397308 0.170921 0)
(0.0435642 0.164492 0)
(0.047159 0.157246 0)
(0.0504806 0.149138 0)
(0.0535119 0.140172 0)
(0.056205 0.130283 0)
(0.0586052 0.119553 0)
(0.0609369 0.10808 0)
(0.0631557 0.0957497 0)
(0.0649641 0.0826376 0)
(0.066395 0.068579 0)
(0.0673734 0.0533923 0)
(0.0680175 0.0376673 0)
(0.00218778 0.205141 0)
(0.00487652 0.198817 0)
(0.00684898 0.196774 0)
(0.00928537 0.195094 0)
(0.0115345 0.19285 0)
(0.0140811 0.190082 0)
(0.0165594 0.186671 0)
(0.0191559 0.182683 0)
(0.0217761 0.178145 0)
(0.0246073 0.17298 0)
(0.0276141 0.167223 0)
(0.0307892 0.160814 0)
(0.0341026 0.15374 0)
(0.0374119 0.145952 0)
(0.0406443 0.137383 0)
(0.0436739 0.127994 0)
(0.0463616 0.117734 0)
(0.0485964 0.10651 0)
(0.0502599 0.0943529 0)
(0.051558 0.0814177 0)
(0.0525843 0.0676981 0)
(0.0531543 0.0533311 0)
(0.0528629 0.0380143 0)
(0.00171743 0.20206 0)
(0.00276783 0.197709 0)
(0.00270313 0.196154 0)
(0.00331831 0.194456 0)
(0.00376947 0.192187 0)
(0.00468518 0.189277 0)
(0.00571285 0.185706 0)
(0.0069968 0.181464 0)
(0.00853126 0.176556 0)
(0.0103036 0.170969 0)
(0.0123279 0.164765 0)
(0.0146337 0.158024 0)
(0.017181 0.150686 0)
(0.0199125 0.142688 0)
(0.0228257 0.134003 0)
(0.025831 0.124658 0)
(0.0287822 0.114582 0)
(0.0315575 0.103801 0)
(0.0340132 0.0922737 0)
(0.0359527 0.0799987 0)
(0.0371682 0.0669388 0)
(0.0376117 0.0530095 0)
(0.0372421 0.0383014 0)
(0.000898934 0.200512 0)
(0.000522918 0.197412 0)
(-0.000971031 0.195562 0)
(-0.00149638 0.193229 0)
(-0.00215994 0.190471 0)
(-0.00241789 0.187231 0)
(-0.00245736 0.183489 0)
(-0.00222317 0.179164 0)
(-0.0016911 0.174213 0)
(-0.000903916 0.16863 0)
(0.000190501 0.162437 0)