/*--------------------------------*- C++ -*----------------------------------*\
| =========                 |                                                 |
| \\      /  F ield         | OpenFOAM: The Open Source CFD Toolbox           |
|  \\    /   O peration     | Version:  2.4.0                                 |
|   \\  /    A nd           | Web:      www.OpenFOAM.org                      |
|    \\/     M anipulation  |                                                 |
\*---------------------------------------------------------------------------*/
FoamFile
{
    version     2.0;
    format      ascii;
    class       volScalarField;
    location    "0.6";
    object      alpha.oil;
}
// * * * * * * * * * * * * * * * * * * * * * * * * * * * * * * * * * * * * * //

dimensions      [0 0 0 0 0 0 0];

internalField   nonuniform List<scalar> 
559
(
5.78865e-08
4.02106e-08
1.94989e-08
1.06357e-08
3.61122e-09
1.026e-09
3.32303e-10
2.3271e-17
4.43561e-16
4.32409e-15
2.17219e-14
7.94046e-14
3.52659e-13
1.76582e-12
7.18994e-12
2.21932e-11
5.38513e-11
8.24742e-11
1.59354e-10
3.62319e-09
1.68124e-08
1.424e-08
3.49445e-08
3.60636e-08
2.52611e-08
1.39631e-08
7.37488e-09
2.82459e-09
8.13869e-10
1.6645e-10
3.32253e-18
5.55949e-17
5.41309e-16
3.18462e-15
1.80925e-14
1.1687e-13
6.43578e-13
2.67549e-12
8.16362e-12
1.76376e-11
2.56703e-11
4.30139e-11
5.49357e-10
2.73414e-09
1.37843e-08
1.38711e-08
1.9713e-08
1.40018e-08
7.8771e-09
3.97015e-09
1.65844e-09
4.97604e-10
1.15673e-10
5.89305e-21
4.39722e-19
1.43189e-17
2.52725e-16
2.91327e-15
2.34391e-14
1.37136e-13
5.90081e-13
1.82304e-12
3.8815e-12
5.97391e-12
1.34641e-11
6.41203e-11
1.05982e-09
2.17503e-09
6.83319e-09
8.06437e-09
5.85346e-09
3.17205e-09
1.64246e-09
6.40339e-10
2.17674e-10
5.64107e-11
8.73003e-22
4.46689e-20
1.27164e-18
2.28358e-17
2.77403e-16
2.38439e-15
1.48971e-14
6.80385e-14
2.30789e-13
6.0531e-13
1.3182e-12
3.114e-12
1.14959e-11
6.12777e-11
4.91987e-10
1.04699e-09
2.26243e-09
1.82077e-09
9.77859e-10
4.71897e-10
2.06702e-10
6.92545e-11
2.11233e-11
1.53055e-23
1.14091e-21
4.21879e-20
9.21615e-19
1.33659e-17
1.38083e-16
1.06227e-15
6.25245e-15
2.88583e-14
1.06657e-13
3.23948e-13
8.57027e-13
2.35754e-12
7.65969e-12
2.94602e-11
1.34589e-10
2.63962e-10
3.49651e-10
2.08636e-10
9.20202e-11
4.32589e-11
1.79438e-11
6.8699e-12
3.76323e-24
2.34532e-22
7.6635e-21
1.55785e-19
2.22947e-18
2.38256e-17
1.95932e-16
1.26466e-15
6.52685e-15
2.74473e-14
9.51854e-14
2.83105e-13
8.12481e-13
2.35034e-12
6.10918e-12
1.20209e-11
2.29619e-11
4.00666e-11
3.29997e-11
1.66769e-11
7.53455e-12
3.55321e-12
1.77678e-12
2.39746e-25
1.66648e-23
6.02616e-22
1.33605e-20
2.07267e-19
2.40453e-18
2.18362e-17
1.59371e-16
9.45089e-16
4.48501e-15
1.73189e-14
5.68609e-14
1.59953e-13
3.85577e-13
8.14494e-13
1.59545e-12
2.96458e-12
4.60239e-12
5.04615e-12
4.12315e-12
2.35066e-12
1.0447e-12
4.61331e-13
3.11264e-26
2.16322e-24
7.73162e-23
1.73549e-21
2.73963e-20
3.23128e-19
2.93677e-18
2.12324e-17
1.24683e-16
6.11228e-16
2.54333e-15
8.96873e-15
2.67944e-14
6.96305e-14
1.55356e-13
2.94166e-13
4.73741e-13
6.34713e-13
6.85936e-13
5.77943e-13
3.76609e-13
1.94167e-13
9.28357e-14
3.44982e-28
2.5793e-26
9.95504e-25
2.40459e-23
4.15869e-22
5.54685e-21
5.92443e-20
5.14958e-19
3.68247e-18
2.18958e-17
1.08346e-16
4.41694e-16
1.49208e-15
4.2032e-15
1.0073e-14
2.09421e-14
3.70018e-14
5.4237e-14
6.39779e-14
6.00383e-14
4.47929e-14
2.71764e-14
1.52941e-14
3.7642e-30
3.19304e-28
1.37415e-26
3.73039e-25
7.15263e-24
1.02801e-22
1.16249e-21
1.06132e-20
7.92594e-20
4.89154e-19
2.55479e-18
1.15852e-17
4.58023e-17
1.55679e-16
4.48353e-16
1.06296e-15
2.08721e-15
3.40423e-15
4.59185e-15
5.05508e-15
4.43474e-15
3.16503e-15
2.11351e-15
1.88074e-32
1.72504e-30
8.08722e-29
2.42449e-27
5.26407e-26
8.80973e-25
1.17379e-23
1.27352e-22
1.14789e-21
8.6996e-21
5.50608e-20
2.88562e-19
1.25509e-18
4.59552e-18
1.42756e-17
3.82334e-17
8.7934e-17
1.69926e-16
2.69326e-16
3.43016e-16
3.5235e-16
3.04033e-16
2.46822e-16
1.06918e-34
1.10882e-32
5.79554e-31
1.93212e-29
4.60782e-28
8.39807e-27
1.21461e-25
1.42629e-24
1.37922e-23
1.11017e-22
7.55684e-22
4.43703e-21
2.26051e-20
9.92874e-20
3.7407e-19
1.18893e-18
3.13898e-18
6.88834e-18
1.25236e-17
1.88228e-17
2.32832e-17
2.45084e-17
2.44909e-17
2.50499e-37
2.89479e-35
1.74035e-33
6.7826e-32
1.91837e-30
4.17932e-29
7.24564e-28
1.02115e-26
1.18934e-25
1.15914e-24
9.50628e-24
6.55275e-23
3.8109e-22
1.87977e-21
7.88244e-21
2.82113e-20
8.63441e-20
2.23749e-19
4.84464e-19
8.66302e-19
1.29229e-18
1.68558e-18
2.09729e-18
5.99344e-40
8.18566e-38
5.63044e-36
2.4978e-34
7.98002e-33
1.9564e-31
3.82108e-30
6.08863e-29
8.03643e-28
8.87797e-27
8.28201e-26
6.57544e-25
4.47685e-24
2.61886e-23
1.31255e-22
5.60701e-22
2.02587e-21
6.15808e-21
1.57255e-20
3.38134e-20
6.19815e-20
1.01028e-19
1.57194e-19
6.42481e-43
1.08542e-40
9.00674e-39
4.80036e-37
1.84376e-35
5.44761e-34
1.28634e-32
2.47729e-31
3.94746e-30
5.26132e-29
5.91009e-28
5.62267e-27
4.53693e-26
3.1155e-25
1.82682e-24
9.15241e-24
3.91482e-23
1.4254e-22
4.39984e-22
1.15335e-21
2.61505e-21
5.35111e-21
1.05211e-20
5.03267e-46
1.12572e-43
1.14589e-41
7.31872e-40
3.32572e-38
1.15279e-36
3.1867e-35
7.24102e-34
1.38047e-32
2.22936e-31
3.04957e-30
3.53374e-29
3.4776e-28
2.91105e-27
2.0749e-26
1.26027e-25
6.52007e-25
2.87074e-24
1.07762e-23
3.47575e-23
9.83182e-23
2.54616e-22
6.85023e-22
2.02966e-49
7.33235e-47
9.98597e-45
7.81896e-43
4.2402e-41
1.72987e-39
5.60653e-38
1.50966e-36
3.45026e-35
6.75429e-34
1.13817e-32
1.64864e-31
2.04239e-30
2.15281e-29
1.92001e-28
1.44773e-27
9.24273e-27
5.01542e-26
2.32648e-25
9.32798e-25
3.31426e-24
1.12398e-23
5.24224e-23
4.59962e-53
5.21153e-50
9.71392e-48
9.1363e-46
5.81066e-44
2.77589e-42
1.05152e-40
3.27532e-39
8.60837e-38
1.94286e-36
3.81189e-35
6.52906e-34
9.74534e-33
1.26244e-31
1.41006e-30
1.34884e-29
1.0968e-28
7.541e-28
4.39984e-27
2.21678e-26
1.00494e-25
4.91425e-25
4.95195e-24
2.39237e-56
1.12917e-52
2.26897e-50
2.26882e-48
1.52605e-46
7.71593e-45
3.10519e-43
1.03062e-41
2.8974e-40
7.04487e-39
1.50459e-37
2.8469e-36
4.78029e-35
7.10318e-34
9.33698e-33
1.07731e-31
1.08223e-30
9.39734e-30
7.02402e-29
4.56056e-28
2.78266e-27
2.42909e-26
5.3432e-25
1.25734e-57
1.24912e-54
2.19745e-52
2.0445e-50
1.28931e-48
6.12657e-47
2.32419e-45
7.30628e-44
1.95704e-42
4.56612e-41
9.46429e-40
1.77276e-38
3.03439e-37
4.75641e-36
6.79466e-35
8.76067e-34
1.00923e-32
1.03415e-31
9.44731e-31
7.86913e-30
7.13752e-29
1.30069e-27
4.87208e-26
6.58466e-59
3.68763e-56
5.4742e-54
4.55413e-52
2.61144e-50
1.13756e-48
3.99136e-47
1.16879e-45
2.92561e-44
6.38284e-43
1.23276e-41
2.13795e-40
3.37537e-39
4.91602e-38
6.67572e-37
8.52509e-36
1.02614e-34
1.15546e-33
1.21098e-32
1.2673e-31
1.98882e-30
7.50829e-29
4.07476e-27
1.78649e-60
7.47005e-58
1.00671e-55
7.91844e-54
4.34606e-52
1.82013e-50
6.14939e-49
1.74157e-47
4.25496e-46
9.15837e-45
1.76061e-43
3.05467e-42
4.82696e-41
7.00137e-40
9.38338e-39
1.16945e-37
1.36819e-36
1.52885e-35
1.71538e-34
2.40833e-33
7.13828e-32
4.15704e-30
2.85849e-28
1.13964e-62
4.29794e-60
5.99626e-58
5.05334e-56
3.01278e-54
1.37669e-52
5.06419e-51
1.55246e-49
4.06632e-48
9.2714e-47
1.87104e-45
3.38841e-44
5.57351e-43
8.41766e-42
1.1771e-40
1.53499e-39
1.89495e-38
2.3406e-37
3.62726e-36
1.08871e-34
5.93534e-33
4.03669e-31
2.95533e-29
6.05939e-65
2.15518e-62
3.11643e-60
2.74881e-58
1.71672e-56
8.21574e-55
3.16602e-53
1.01649e-51
2.78871e-50
6.66981e-49
1.41308e-47
2.68722e-46
4.63782e-45
7.33856e-44
1.0763e-42
1.48029e-41
1.93051e-40
2.44551e-39
3.35638e-38
7.61137e-37
4.25671e-35
4.00427e-33
4.68488e-31
)
;

boundaryField
{
    leftWall
    {
        type            zeroGradient;
    }
    rightWall
    {
        type            zeroGradient;
    }
    lowerWall
    {
        type            zeroGradient;
    }
    atmosphere
    {
        type            inletOutlet;
        inletValue      uniform 0;
        value           nonuniform List<scalar> 
23
(
0
0
0
0
0
0
0
0
0
0
0
0
0
0
0
0
0
0
0
0
0
0
4.68488e-31
)
;
    }
    defaultFaces
    {
        type            empty;
    }
    procBoundary2to0
    {
        type            processor;
        value           nonuniform List<scalar> 
24
(
7.63263e-08
4.91038e-08
2.92716e-08
1.11222e-08
3.95289e-09
1.28081e-09
6.11911e-10
6.5926e-17
1.80892e-15
2.08244e-14
1.07303e-13
3.16785e-13
9.40225e-13
3.80306e-12
1.43617e-11
4.1852e-11
1.11105e-10
1.53318e-10
5.46002e-10
9.33092e-09
2.74076e-08
5.52686e-08
4.08745e-08
4.08745e-08
)
;
    }
    procBoundary2to3
    {
        type            processor;
        value           nonuniform List<scalar> 
25
(
1.6513e-10
7.09728e-11
3.78118e-11
1.94244e-11
8.40459e-12
2.92304e-12
8.9757e-13
2.33217e-13
5.16621e-14
9.71942e-15
1.5568e-15
2.13672e-16
2.53426e-17
2.63508e-18
2.5069e-19
2.38392e-20
3.3557e-21
6.6018e-22
1.1391e-22
1.73084e-23
1.99069e-24
2.07381e-25
1.85231e-26
2.16096e-27
5.08421e-29
)
;
    }
}


// ************************************************************************* //
