/*--------------------------------*- C++ -*----------------------------------*\
| =========                 |                                                 |
| \\      /  F ield         | OpenFOAM: The Open Source CFD Toolbox           |
|  \\    /   O peration     | Version:  2.4.0                                 |
|   \\  /    A nd           | Web:      www.OpenFOAM.org                      |
|    \\/     M anipulation  |                                                 |
\*---------------------------------------------------------------------------*/
FoamFile
{
    version     2.0;
    format      ascii;
    class       volScalarField;
    location    "0.6";
    object      alpha.water;
}
// * * * * * * * * * * * * * * * * * * * * * * * * * * * * * * * * * * * * * //

dimensions      [0 0 0 0 0 0 0];

internalField   nonuniform List<scalar> 
559
(
1.01241e-18
2.265e-18
4.4487e-18
7.70512e-18
1.1364e-17
1.50384e-17
2.00659e-17
1.44041e-14
1.72342e-14
9.00536e-15
5.55737e-15
3.56147e-15
4.73171e-15
9.39657e-15
1.4552e-14
1.62293e-14
1.39671e-14
1.05161e-14
6.23078e-15
2.43344e-15
5.48317e-16
4.32487e-17
3.41821e-20
1.03118e-19
2.70973e-19
6.3733e-19
1.28895e-18
2.19792e-18
3.28853e-18
4.75228e-18
9.93575e-22
3.02223e-20
5.63504e-19
5.76422e-18
3.47595e-17
1.30845e-16
3.10577e-16
4.67551e-16
4.32435e-16
2.3877e-16
8.68093e-17
2.59755e-17
4.35546e-18
3.15328e-19
1.10899e-21
4.04238e-21
1.31851e-20
3.87096e-20
9.78234e-20
2.10812e-19
3.88371e-19
6.35381e-19
9.98066e-19
1.67517e-37
1.88159e-35
8.79034e-34
2.27415e-32
4.05408e-31
5.39542e-30
5.73768e-29
5.07594e-28
3.84457e-27
2.59653e-26
1.61897e-25
9.65191e-25
5.5556e-24
2.86949e-23
1.29786e-22
5.18324e-22
1.87934e-21
5.88813e-21
1.54968e-20
3.48792e-20
6.7768e-20
1.19168e-19
2.02337e-19
9.52233e-39
6.44302e-37
2.49554e-35
6.52022e-34
1.23173e-32
1.7932e-31
2.11973e-30
2.09758e-29
1.82557e-28
1.48675e-27
1.10403e-26
7.52739e-26
4.62485e-25
2.58153e-24
1.25781e-23
5.40385e-23
1.99149e-22
6.29838e-22
1.75065e-21
4.28196e-21
9.34651e-21
1.88064e-20
3.55657e-20
1.14087e-40
1.14143e-38
5.70979e-37
1.7083e-35
3.51846e-34
5.50582e-33
7.03107e-32
7.72089e-31
7.63774e-30
7.06023e-29
6.17827e-28
4.77488e-27
3.21344e-26
1.92558e-25
1.02875e-24
4.83423e-24
1.9229e-23
6.59061e-23
2.00267e-22
5.39985e-22
1.3092e-21
2.90924e-21
5.88659e-21
5.2142e-42
4.22416e-40
1.82249e-38
5.11169e-37
1.07768e-35
1.85262e-34
2.72975e-33
3.56349e-32
4.17964e-31
4.38913e-30
4.04968e-29
3.24719e-28
2.29803e-27
1.39664e-26
7.40916e-26
3.43048e-25
1.43498e-24
5.50458e-24
1.86942e-23
5.67966e-23
1.56338e-22
3.85065e-22
8.36188e-22
2.54557e-44
2.67294e-42
1.49203e-40
5.34537e-39
1.42424e-37
3.04177e-36
5.4905e-35
8.56185e-34
1.15345e-32
1.29998e-31
1.26349e-30
1.12664e-29
9.08512e-29
6.51944e-28
4.07801e-27
2.25186e-26
1.10031e-25
4.62507e-25
1.71423e-24
5.75426e-24
1.73509e-23
4.60503e-23
1.0932e-22
5.57985e-46
6.26475e-44
3.60764e-42
1.37401e-40
3.8981e-39
8.83525e-38
1.6562e-36
2.66499e-35
3.75491e-34
4.75912e-33
5.40621e-32
5.33549e-31
4.54622e-30
3.43791e-29
2.26802e-28
1.30403e-27
6.66311e-27
3.09958e-26
1.32172e-25
5.0044e-25
1.65989e-24
4.87013e-24
1.32823e-23
3.31069e-48
4.13534e-46
2.68198e-44
1.15198e-42
3.78451e-41
1.02643e-39
2.3695e-38
4.6744e-37
7.89121e-36
1.14887e-34
1.44958e-33
1.57398e-32
1.48482e-31
1.22142e-30
9.09463e-30
6.24017e-29
3.8421e-28
2.07916e-27
9.64531e-27
3.9082e-26
1.41501e-25
4.71509e-25
1.59354e-24
3.06252e-50
4.68634e-48
3.60278e-46
1.8275e-44
6.82639e-43
1.99418e-41
4.81158e-40
9.83426e-39
1.72348e-37
2.61552e-36
3.53153e-35
4.36765e-34
4.92987e-33
4.94055e-32
4.28146e-31
3.12702e-30
1.98562e-29
1.11917e-28
5.7214e-28
2.65468e-27
1.11238e-26
4.5292e-26
2.27007e-25
1.22065e-52
2.06704e-50
1.77638e-48
1.03105e-46
4.59785e-45
1.67093e-43
5.07424e-42
1.3102e-40
2.91899e-39
5.62484e-38
9.18439e-37
1.25681e-35
1.45707e-34
1.47298e-33
1.32897e-32
1.10176e-31
8.2996e-31
5.56405e-30
3.2652e-29
1.68939e-28
8.43708e-28
5.04934e-27
4.38286e-26
8.62213e-55
1.7339e-52
1.73159e-50
1.14678e-48
5.6381e-47
2.19794e-45
7.03168e-44
1.88422e-42
4.28753e-41
8.39788e-40
1.44814e-38
2.2535e-37
3.17468e-36
3.98892e-35
4.41806e-34
4.21741e-33
3.44551e-32
2.46556e-31
1.59727e-30
1.01704e-29
7.63049e-29
8.13531e-28
1.11047e-26
1.91259e-57
4.42967e-55
5.30524e-53
4.32099e-51
2.67219e-49
1.32563e-47
5.41635e-46
1.8515e-44
5.3569e-43
1.32181e-41
2.78318e-40
4.97917e-39
7.62627e-38
1.01212e-36
1.17525e-35
1.21238e-34
1.12681e-33
9.54494e-33
7.85283e-32
7.51278e-31
1.01814e-29
1.76083e-28
3.11388e-27
6.52104e-60
1.86973e-57
2.62748e-55
2.46534e-53
1.71925e-51
9.47742e-50
4.27695e-48
1.61391e-46
5.15754e-45
1.40886e-43
3.32177e-42
6.81697e-41
1.22649e-39
1.93839e-38
2.68679e-37
3.26893e-36
3.55052e-35
3.7279e-34
4.64318e-33
8.27854e-32
1.85157e-30
4.17324e-29
8.63842e-28
7.24736e-63
2.79463e-60
4.98613e-58
5.88638e-56
5.16143e-54
3.58304e-52
2.03928e-50
9.66041e-49
3.84675e-47
1.29614e-45
3.7096e-44
9.05096e-43
1.88739e-41
3.39033e-40
5.31902e-39
7.50609e-38
1.04201e-36
1.75359e-35
4.20383e-34
1.22893e-32
3.56542e-31
9.44164e-30
2.22907e-28
7.08091e-66
4.02963e-63
9.1983e-61
1.32451e-58
1.37707e-56
1.11209e-54
7.32164e-53
4.06377e-51
1.9381e-49
7.9647e-48
2.79571e-46
8.33621e-45
2.11638e-43
4.61406e-42
8.90125e-41
1.67684e-39
3.85147e-38
1.25093e-36
4.84161e-35
1.83252e-33
6.27823e-32
1.90734e-30
5.11799e-29
3.06381e-69
3.6691e-66
1.20991e-63
2.15726e-61
2.66562e-59
2.51632e-57
1.92983e-55
1.25975e-53
7.11971e-52
3.49766e-50
1.49498e-48
5.52853e-47
1.76134e-45
4.92428e-44
1.32712e-42
4.34776e-41
1.98788e-39
1.04957e-37
5.28894e-36
2.38039e-34
9.43098e-33
3.28496e-31
1.00631e-29
8.73681e-73
7.36611e-69
3.28668e-66
6.81488e-64
9.50359e-62
1.00162e-59
8.43989e-58
5.90105e-56
3.51873e-54
1.82382e-52
8.32879e-51
3.38056e-49
1.24688e-47
4.584e-46
2.10905e-44
1.3902e-42
1.06e-40
7.53435e-39
4.64092e-37
2.4607e-35
1.13277e-33
4.55541e-32
1.60383e-30
5.4816e-75
1.42169e-70
5.47044e-68
1.0321e-65
1.30929e-63
1.25327e-61
9.60664e-60
6.1238e-58
3.34478e-56
1.60672e-54
6.97189e-53
2.84867e-51
1.21647e-49
6.70409e-48
5.32598e-46
5.05074e-44
4.71568e-42
3.99788e-40
2.9774e-38
1.9093e-36
1.04677e-34
4.93898e-33
2.02441e-31
1.10759e-74
1.72312e-71
4.73535e-69
6.9349e-67
6.9455e-65
5.29637e-63
3.26324e-61
1.6903e-59
7.61492e-58
3.10402e-56
1.22813e-54
5.41503e-53
3.16459e-51
2.49946e-49
2.30299e-47
2.18425e-45
2.00689e-43
1.73885e-41
1.39974e-39
1.03014e-37
6.77339e-36
3.86669e-34
1.89506e-32
3.94883e-75
3.08993e-72
6.44619e-70
7.59532e-68
6.22526e-66
3.92487e-64
2.03394e-62
9.14962e-61
3.83186e-59
1.66952e-57
8.55932e-56
5.32646e-54
3.73711e-52
2.75228e-50
2.06736e-48
1.58026e-46
1.23163e-44
9.70252e-43
7.55919e-41
5.69604e-39
4.08442e-37
2.72456e-35
1.63669e-33
3.30071e-76
1.81296e-73
3.22773e-71
3.38947e-69
2.5289e-67
1.49251e-65
7.67981e-64
3.88104e-62
2.18264e-60
1.42663e-58
1.0198e-56
7.40856e-55
5.27321e-53
3.64389e-51
2.45195e-49
1.62e-47
1.06479e-45
7.08303e-44
4.8502e-42
3.4365e-40
2.48273e-38
1.79319e-36
1.26757e-34
3.30598e-78
1.61767e-75
3.01316e-73
3.62017e-71
3.51778e-69
3.26103e-67
3.12549e-65
3.03156e-63
2.82136e-61
2.44336e-59
1.95971e-57
1.4656e-55
1.03358e-53
6.96072e-52
4.52622e-50
2.86746e-48
1.78722e-46
1.10722e-44
6.89134e-43
4.36403e-41
2.85626e-39
1.95753e-37
1.39816e-35
9.94988e-81
4.49178e-78
8.64156e-76
1.11754e-73
1.22328e-71
1.31255e-69
1.42697e-67
1.50354e-65
1.47213e-63
1.31989e-61
1.08634e-59
8.28693e-58
5.92816e-56
4.0286e-54
2.64031e-52
1.69736e-50
1.08666e-48
7.03525e-47
4.69132e-45
3.30466e-43
2.55397e-41
2.28109e-39
2.42889e-37
)
;

boundaryField
{
    leftWall
    {
        type            zeroGradient;
    }
    rightWall
    {
        type            zeroGradient;
    }
    lowerWall
    {
        type            zeroGradient;
    }
    atmosphere
    {
        type            inletOutlet;
        inletValue      uniform 0;
        value           nonuniform List<scalar> 
23
(
0
0
0
0
0
0
0
0
0
0
0
0
0
0
0
0
0
0
0
0
0
0
2.42889e-37
)
;
    }
    defaultFaces
    {
        type            empty;
    }
    procBoundary2to0
    {
        type            processor;
        value           nonuniform List<scalar> 
24
(
1.9952e-17
3.251e-17
5.3503e-17
7.26702e-17
7.80387e-17
7.66613e-17
8.60459e-17
2.34141e-13
2.52648e-13
1.30672e-13
8.26833e-14
6.01631e-14
6.20107e-14
8.95379e-14
1.22377e-13
1.33458e-13
1.19515e-13
9.22074e-14
5.51078e-14
2.29681e-14
5.95653e-15
7.41284e-16
2.62303e-17
2.62303e-17
)
;
    }
    procBoundary2to3
    {
        type            processor;
        value           nonuniform List<scalar> 
25
(
3.22724e-17
8.07374e-18
1.83239e-18
4.01674e-19
7.00225e-20
1.16227e-20
1.72645e-21
2.56209e-22
3.95074e-23
7.08266e-24
1.67785e-24
4.83523e-25
1.55681e-25
5.08135e-26
1.6007e-26
4.66631e-27
1.21293e-27
2.71336e-28
4.9497e-29
7.23051e-30
8.03962e-31
8.51295e-32
8.22906e-33
9.94227e-34
2.47917e-35
)
;
    }
}


// ************************************************************************* //
