/*--------------------------------*- C++ -*----------------------------------*\
| =========                 |                                                 |
| \\      /  F ield         | OpenFOAM: The Open Source CFD Toolbox           |
|  \\    /   O peration     | Version:  2.4.0                                 |
|   \\  /    A nd           | Web:      www.OpenFOAM.org                      |
|    \\/     M anipulation  |                                                 |
\*---------------------------------------------------------------------------*/
FoamFile
{
    version     2.0;
    format      ascii;
    class       volScalarField;
    location    "0.6";
    object      p;
}
// * * * * * * * * * * * * * * * * * * * * * * * * * * * * * * * * * * * * * //

dimensions      [1 -1 -2 0 0 0 0];

internalField   nonuniform List<scalar> 
559
(
3.37262
3.37123
3.36956
3.36758
3.36517
3.36225
3.35865
3.24267
3.24229
3.2416
3.24074
3.23981
3.23892
3.23816
3.23757
3.23716
3.23689
3.23669
3.23645
3.23611
3.23557
3.2348
3.23381
3.23248
3.23078
3.22871
3.22621
3.22327
3.2198
3.21567
3.10344
3.10316
3.10265
3.102
3.10127
3.10055
3.09988
3.0993
3.09881
3.09838
3.09798
3.09752
3.09695
3.09618
3.0952
3.09392
3.09232
3.09041
3.08806
3.08524
3.08192
3.07804
3.07346
2.96444
2.96423
2.96384
2.96333
2.96274
2.96213
2.96152
2.96093
2.96038
2.95983
2.95925
2.95859
2.95787
2.95689
2.95572
2.95426
2.95249
2.95035
2.94775
2.94469
2.94107
2.93691
2.93201
2.82562
2.82546
2.82515
2.82472
2.82423
2.82368
2.82311
2.82252
2.82191
2.82127
2.82057
2.81975
2.81895
2.81778
2.81644
2.81481
2.81288
2.81052
2.80778
2.80456
2.80076
2.79636
2.79127
2.68696
2.68682
2.68656
2.6862
2.68575
2.68525
2.6847
2.6841
2.68346
2.68276
2.682
2.68112
2.68008
2.67883
2.67735
2.67561
2.67354
2.67105
2.6682
2.66484
2.66094
2.65643
2.65122
2.54843
2.54831
2.54808
2.54775
2.54735
2.54687
2.54633
2.54573
2.54505
2.54431
2.54345
2.54247
2.54135
2.54002
2.53845
2.53661
2.53444
2.53193
2.52895
2.52552
2.5216
2.51706
2.51183
2.41001
2.4099
2.40969
2.40939
2.40901
2.40855
2.40802
2.40741
2.40672
2.40593
2.40503
2.404
2.40281
2.40142
2.39981
2.39791
2.3957
2.39315
2.39017
2.38678
2.38285
2.37836
2.3732
2.27169
2.27159
2.27141
2.2711
2.27075
2.2703
2.26977
2.26916
2.26846
2.26766
2.26674
2.26569
2.26447
2.26305
2.26139
2.25946
2.25725
2.25471
2.25182
2.24847
2.24464
2.24025
2.23527
2.13347
2.13337
2.1332
2.13292
2.13257
2.13213
2.13161
2.131
2.1303
2.12949
2.12854
2.12747
2.12624
2.12482
2.12317
2.1213
2.11913
2.11663
2.11379
2.11053
2.10685
2.10267
2.09795
1.99534
1.99524
1.99507
1.99481
1.99447
1.99405
1.99354
1.99294
1.99224
1.99143
1.9905
1.98943
1.9882
1.9868
1.9852
1.98335
1.98123
1.97883
1.9761
1.97304
1.96955
1.9656
1.96119
1.85728
1.85719
1.85703
1.85678
1.85646
1.85605
1.85556
1.85497
1.85428
1.85349
1.85258
1.85153
1.85033
1.84896
1.84739
1.84561
1.84362
1.84135
1.83878
1.83587
1.8326
1.82896
1.8249
1.71931
1.71923
1.71907
1.71884
1.71853
1.71813
1.71765
1.71708
1.71642
1.71565
1.71477
1.71376
1.71261
1.7113
1.70983
1.70815
1.70624
1.70409
1.70168
1.699
1.69601
1.69268
1.689
1.58142
1.58134
1.5812
1.58097
1.58067
1.58029
1.57983
1.57929
1.57866
1.57793
1.57709
1.57612
1.57503
1.57379
1.57239
1.57081
1.56904
1.56707
1.56486
1.56241
1.55969
1.55669
1.55341
1.4436
1.44353
1.44339
1.44318
1.4429
1.44254
1.44211
1.44159
1.44099
1.4403
1.4395
1.4386
1.43758
1.43643
1.43514
1.43368
1.43206
1.43025
1.42825
1.42604
1.42361
1.42094
1.41805
1.30585
1.30578
1.30566
1.30546
1.30519
1.30486
1.30445
1.30397
1.30341
1.30276
1.30202
1.30119
1.30025
1.2992
1.29801
1.29669
1.29523
1.29361
1.29181
1.28985
1.2877
1.28537
1.28285
1.16817
1.16811
1.168
1.16781
1.16756
1.16725
1.16687
1.16642
1.16591
1.16531
1.16463
1.16388
1.16302
1.16207
1.16101
1.15983
1.15853
1.15709
1.15552
1.1538
1.15193
1.14992
1.14777
1.03055
1.03049
1.03039
1.03021
1.02999
1.0297
1.02935
1.02894
1.02847
1.02793
1.02733
1.02665
1.02588
1.02504
1.02411
1.02307
1.02193
1.02069
1.01933
1.01786
1.01627
1.01456
1.01275
0.893001
0.892947
0.892848
0.892686
0.892478
0.892216
0.8919
0.89153
0.891105
0.890623
0.890082
0.88948
0.888815
0.888083
0.887276
0.88639
0.885422
0.884371
0.883227
0.881994
0.880672
0.879261
0.877767
0.7555
0.75545
0.75536
0.755213
0.755024
0.754788
0.754505
0.754175
0.753799
0.753375
0.752903
0.752382
0.751812
0.751188
0.750509
0.749771
0.748974
0.748108
0.74718
0.746185
0.745118
0.743982
0.742788
0.618026
0.617979
0.6179
0.617771
0.617605
0.617398
0.617152
0.616868
0.616545
0.616183
0.615782
0.615344
0.614871
0.614361
0.61381
0.613215
0.612576
0.611896
0.611174
0.610402
0.609584
0.608715
0.607779
0.480552
0.480513
0.480447
0.480338
0.480198
0.480026
0.479824
0.479591
0.479329
0.479038
0.478721
0.478376
0.478003
0.477601
0.477171
0.476716
0.476238
0.475736
0.475209
0.474653
0.474064
0.473444
0.472779
0.343099
0.343054
0.342999
0.342913
0.342804
0.342671
0.342515
0.342337
0.342141
0.341927
0.341697
0.34145
0.341186
0.340904
0.340604
0.340291
0.339966
0.33963
0.33929
0.338953
0.338628
0.338272
0.337754
0.205763
0.205717
0.205671
0.205607
0.205528
0.205433
0.205323
0.205199
0.205062
0.204912
0.204754
0.204588
0.204415
0.204238
0.204058
0.203879
0.203707
0.203542
0.203388
0.20325
0.203154
0.203187
0.202691
0.0687126
0.0687263
0.0687044
0.0686558
0.0685868
0.0684994
0.0683971
0.0682835
0.068163
0.0680387
0.0679143
0.0677938
0.0676816
0.0675847
0.0675112
0.0674561
0.0674122
0.0673765
0.0673442
0.067306
0.0672337
0.0670435
0.0673634
)
;

boundaryField
{
    leftWall
    {
        type            fixedFluxPressure;
        gradient        uniform 0;
        value           nonuniform List<scalar> 
24
(
3.24267
3.10344
2.96444
2.82562
2.68696
2.54843
2.41001
2.27169
2.13347
1.99534
1.85728
1.71931
1.58142
1.4436
1.30585
1.16817
1.03055
0.893001
0.7555
0.618026
0.480552
0.343099
0.205763
0.0687126
)
;
    }
    rightWall
    {
        type            fixedFluxPressure;
        gradient        nonuniform 0();
        value           nonuniform 0();
    }
    lowerWall
    {
        type            fixedFluxPressure;
        gradient        nonuniform 0();
        value           nonuniform 0();
    }
    atmosphere
    {
        type            totalPressure;
        U               U.air;
        phi             phi.air;
        rho             rho;
        psi             none;
        gamma           1;
        p0              uniform 0;
        value           nonuniform List<scalar> 
23
(
-0.000211318
-0.000272703
-0.000295899
-0.000329817
-0.000374467
-0.000427018
-0.000485704
-0.000547587
-0.000609543
-0.000667943
-0.000719349
-0.000760565
-0.000787945
-0.000796509
-0.000781682
-0.000743644
-0.000684799
-0.000608009
-0.000517782
-0.000421936
-0.000331105
-0.00026211
0
)
;
    }
    defaultFaces
    {
        type            empty;
    }
    procBoundary2to0
    {
        type            processor;
        value           nonuniform List<scalar> 
24
(
3.51239
3.51135
3.51018
3.50887
3.50732
3.50529
3.50247
3.38224
3.38171
3.38072
3.37953
3.37829
3.37718
3.3763
3.3757
3.37537
3.37528
3.37529
3.37527
3.37513
3.37482
3.37433
3.37363
3.37363
)
;
    }
    procBoundary2to3
    {
        type            processor;
        value           nonuniform List<scalar> 
25
(
3.35525
3.21192
3.06945
2.9278
2.78685
2.64671
2.50737
2.36884
2.2311
2.09402
1.95756
1.8216
1.68604
1.55079
1.41576
1.28088
1.14609
1.01135
0.876617
0.741858
0.607076
0.472259
0.337392
0.202459
0.0673914
)
;
    }
}


// ************************************************************************* //
