/*--------------------------------*- C++ -*----------------------------------*\
| =========                 |                                                 |
| \\      /  F ield         | OpenFOAM: The Open Source CFD Toolbox           |
|  \\    /   O peration     | Version:  2.4.0                                 |
|   \\  /    A nd           | Web:      www.OpenFOAM.org                      |
|    \\/     M anipulation  |                                                 |
\*---------------------------------------------------------------------------*/
FoamFile
{
    version     2.0;
    format      ascii;
    class       surfaceScalarField;
    location    "0.6";
    object      phi.oil;
}
// * * * * * * * * * * * * * * * * * * * * * * * * * * * * * * * * * * * * * //

dimensions      [0 3 -1 0 0 0 0];

internalField   nonuniform List<scalar> 
1070
(
-3.3887e-06
-2.09323e-05
-6.10747e-06
-2.16112e-05
-8.58856e-06
-2.1205e-05
-1.06907e-05
-1.98837e-05
-1.2691e-05
-1.95401e-05
-1.41388e-05
-2.04183e-05
-2.02005e-05
7.10694e-07
-3.40537e-06
1.30043e-06
-7.10649e-06
1.67565e-06
-7.39092e-06
1.88983e-06
-7.76072e-06
1.97232e-06
-8.10352e-06
1.96524e-06
-8.49274e-06
1.98518e-06
-8.96295e-06
2.04742e-06
-9.46026e-06
2.16019e-06
-1.00843e-05
2.36932e-06
-1.0972e-05
2.53758e-06
-1.20102e-05
2.41172e-06
-1.31943e-05
1.88946e-06
-1.44349e-05
9.25305e-07
-1.5802e-05
-7.17862e-07
-1.6923e-05
-2.7254e-06
-1.77197e-05
-4.80927e-06
-1.87706e-05
-6.968e-06
-1.94051e-05
-9.10497e-06
-1.90523e-05
-1.06929e-05
-1.8287e-05
-1.18684e-05
-1.83636e-05
-1.30034e-05
-1.92843e-05
-1.90375e-05
5.65489e-07
-3.97209e-06
8.91669e-07
-7.43343e-06
1.12316e-06
-7.62305e-06
1.31609e-06
-7.95425e-06
1.47089e-06
-8.2589e-06
1.58215e-06
-8.60455e-06
1.65574e-06
-9.03704e-06
1.69571e-06
-9.50068e-06
1.68649e-06
-1.00754e-05
1.56843e-06
-1.08543e-05
1.35188e-06
-1.1794e-05
8.98019e-07
-1.27406e-05
1.05375e-07
-1.36364e-05
-9.00091e-07
-1.47675e-05
-2.06414e-06
-1.57331e-05
-3.1548e-06
-1.65769e-05
-4.65258e-06
-1.72163e-05
-6.6042e-06
-1.74145e-05
-8.30226e-06
-1.73352e-05
-9.60344e-06
-1.69756e-05
-1.07403e-05
-1.72245e-05
-1.19758e-05
-1.80512e-05
-1.78618e-05
3.79408e-07
-4.35158e-06
6.37688e-07
-7.69217e-06
8.9006e-07
-7.87596e-06
1.09286e-06
-8.1576e-06
1.26731e-06
-8.43389e-06
1.42372e-06
-8.76145e-06
1.51158e-06
-9.12534e-06
1.53944e-06
-9.52892e-06
1.47359e-06
-1.00099e-05
1.23583e-06
-1.06168e-05
8.55018e-07
-1.14134e-05
3.05756e-07
-1.21917e-05
-4.16311e-07
-1.29141e-05
-1.37166e-06
-1.38055e-05
-2.45858e-06
-1.46239e-05
-3.65589e-06
-1.53524e-05
-5.1759e-06
-1.56592e-05
-6.77995e-06
-1.57843e-05
-8.25314e-06
-1.58489e-05
-9.58e-06
-1.56427e-05
-1.08512e-05
-1.59527e-05
-1.23106e-05
-1.65924e-05
-1.63574e-05
2.81788e-07
-4.6344e-06
5.21304e-07
-7.93233e-06
7.36735e-07
-8.09193e-06
8.64952e-07
-8.28632e-06
9.58732e-07
-8.52814e-06
1.01772e-06
-8.82086e-06
1.05832e-06
-9.1663e-06
1.09404e-06
-9.56494e-06
1.09213e-06
-1.00082e-05
9.00833e-07
-1.04258e-05
4.96553e-07
-1.10094e-05
8.49821e-10
-1.16963e-05
-5.47561e-07
-1.23655e-05
-1.41498e-06
-1.29372e-05
-2.49739e-06
-1.35338e-05
-3.84788e-06
-1.39891e-05
-5.10851e-06
-1.43815e-05
-6.2205e-06
-1.46604e-05
-7.4231e-06
-1.46406e-05
-8.49425e-06
-1.45687e-05
-9.61345e-06
-1.48337e-05
-1.11055e-05
-1.51027e-05
-1.46424e-05
2.31133e-07
-4.8655e-06
3.31466e-07
-8.03301e-06
3.93331e-07
-8.15423e-06
4.37498e-07
-8.33091e-06
4.54608e-07
-8.54564e-06
4.33586e-07
-8.80019e-06
3.72137e-07
-9.10514e-06
2.66567e-07
-9.45961e-06
1.19275e-07
-9.86115e-06
-7.37908e-08
-1.02329e-05
-4.52357e-07
-1.0631e-05
-9.87985e-07
-1.11609e-05
-1.60774e-06
-1.17458e-05
-2.29476e-06
-1.22486e-05
-3.16373e-06
-1.26655e-05
-4.29683e-06
-1.28505e-05
-5.52187e-06
-1.31501e-05
-6.78845e-06
-1.33889e-05
-7.99944e-06
-1.34272e-05
-9.1355e-06
-1.34318e-05
-1.03311e-05
-1.36392e-05
-1.17262e-05
-1.37084e-05
-1.33326e-05
1.40822e-07
-5.00723e-06
2.10189e-07
-8.1029e-06
2.63999e-07
-8.20846e-06
2.84503e-07
-8.35179e-06
2.67337e-07
-8.52881e-06
2.06643e-07
-8.73977e-06
8.81995e-08
-8.98692e-06
-8.17992e-08
-9.28978e-06
-3.1816e-07
-9.62493e-06
-6.1932e-07
-9.93186e-06
-1.00644e-06
-1.02441e-05
-1.53048e-06
-1.06369e-05
-2.26583e-06
-1.10104e-05
-3.05374e-06
-1.14614e-05
-3.90931e-06
-1.1806e-05
-4.63011e-06
-1.21298e-05
-5.41123e-06
-1.23659e-05
-6.4706e-06
-1.23274e-05
-7.51498e-06
-1.23816e-05
-8.54516e-06
-1.24013e-05
-9.79246e-06
-1.23926e-05
-1.1203e-05
-1.22999e-05
-1.22211e-05
1.36017e-07
-5.14311e-06
1.83956e-07
-8.15108e-06
2.08338e-07
-8.23315e-06
2.00401e-07
-8.34416e-06
1.50704e-07
-8.47939e-06
6.71274e-08
-8.65642e-06
-5.0896e-08
-8.86907e-06
-2.33737e-07
-9.10707e-06
-5.22461e-07
-9.33631e-06
-8.50655e-07
-9.60378e-06
-1.17168e-06
-9.92318e-06
-1.5959e-06
-1.02128e-05
-2.13226e-06
-1.04741e-05
-2.9032e-06
-1.06885e-05
-3.75503e-06
-1.09556e-05
-4.70742e-06
-1.11735e-05
-5.86654e-06
-1.12051e-05
-6.87458e-06
-1.13177e-05
-7.83049e-06
-1.14248e-05
-8.83679e-06
-1.13945e-05
-9.99351e-06
-1.12367e-05
-1.11291e-05
-1.11649e-05
-1.10993e-05
3.88771e-08
-5.18279e-06
2.05163e-08
-8.13314e-06
-2.09902e-09
-8.21085e-06
-4.82945e-08
-8.29823e-06
-1.25461e-07
-8.40244e-06
-2.50977e-07
-8.53107e-06
-4.21213e-07
-8.69895e-06
-6.45867e-07
-8.8825e-06
-9.09274e-07
-9.07298e-06
-1.25858e-06
-9.25456e-06
-1.73569e-06
-9.44618e-06
-2.28126e-06
-9.66732e-06
-2.82388e-06
-9.93112e-06
-3.47795e-06
-1.00349e-05
-4.24137e-06
-1.01887e-05
-5.05019e-06
-1.03643e-05
-5.76554e-06
-1.04875e-05
-6.52404e-06
-1.05571e-05
-7.51713e-06
-1.04306e-05
-8.6099e-06
-1.03011e-05
-9.67018e-06
-1.01768e-05
-1.0766e-05
-1.00704e-05
-9.88093e-06
3.67631e-08
-5.21933e-06
9.91878e-09
-8.10644e-06
-3.01651e-08
-8.17099e-06
-8.9428e-08
-8.23917e-06
-1.72105e-07
-8.31993e-06
-2.90072e-07
-8.41323e-06
-4.59066e-07
-8.53004e-06
-6.81993e-07
-8.65962e-06
-9.52284e-07
-8.80273e-06
-1.27455e-06
-8.93237e-06
-1.70225e-06
-9.01859e-06
-2.23312e-06
-9.13652e-06
-2.87484e-06
-9.28923e-06
-3.45324e-06
-9.45509e-06
-4.03013e-06
-9.61254e-06
-4.74952e-06
-9.64162e-06
-5.64319e-06
-9.59181e-06
-6.74819e-06
-9.45023e-06
-7.73111e-06
-9.44651e-06
-8.62669e-06
-9.40468e-06
-9.52031e-06
-9.28358e-06
-1.05823e-05
-9.00877e-06
-8.8055e-06
3.10741e-11
-5.22007e-06
-5.71351e-08
-8.0496e-06
-1.26099e-07
-8.10224e-06
-2.27352e-07
-8.13809e-06
-3.59622e-07
-8.18779e-06
-5.18394e-07
-8.25455e-06
-7.24298e-07
-8.32418e-06
-9.85664e-07
-8.39828e-06
-1.30362e-06
-8.4848e-06
-1.63887e-06
-8.59718e-06
-1.96e-06
-8.69755e-06
-2.3389e-06
-8.75762e-06
-2.85156e-06
-8.77639e-06
-3.53136e-06
-8.77556e-06
-4.3878e-06
-8.75277e-06
-5.18154e-06
-8.8476e-06
-5.9333e-06
-8.83733e-06
-6.57606e-06
-8.80558e-06
-7.30751e-06
-8.71364e-06
-8.25987e-06
-8.45147e-06
-9.36222e-06
-8.18128e-06
-1.03717e-05
-8.00011e-06
-7.77454e-06
-1.02049e-08
-5.20957e-06
-6.56818e-08
-7.9942e-06
-1.2307e-07
-8.04499e-06
-1.99491e-07
-8.0618e-06
-3.05811e-07
-8.08156e-06
-4.49872e-07
-8.11054e-06
-6.32798e-07
-8.14127e-06
-8.59956e-07
-8.17112e-06
-1.15104e-06
-8.19372e-06
-1.55348e-06
-8.19478e-06
-2.05781e-06
-8.1933e-06
-2.61085e-06
-8.20463e-06
-3.145e-06
-8.2422e-06
-3.65367e-06
-8.26527e-06
-4.11319e-06
-8.29407e-06
-4.70279e-06
-8.25452e-06
-5.43209e-06
-8.10616e-06
-6.33744e-06
-7.89831e-06
-7.36208e-06
-7.68763e-06
-8.27569e-06
-7.53691e-06
-9.09003e-06
-7.36695e-06
-1.00394e-05
-7.05088e-06
-6.72165e-06
-3.42022e-08
-5.17599e-06
-1.14037e-07
-7.91461e-06
-2.0056e-07
-7.95862e-06
-3.11826e-07
-7.95064e-06
-4.50184e-07
-7.94327e-06
-6.25761e-07
-7.93499e-06
-8.41814e-07
-7.92522e-06
-1.09865e-06
-7.91427e-06
-1.38999e-06
-7.90237e-06
-1.6916e-06
-7.89321e-06
-1.99593e-06
-7.88903e-06
-2.35027e-06
-7.85036e-06
-2.81289e-06
-7.77928e-06
-3.38038e-06
-7.69803e-06
-4.09642e-06
-7.57516e-06
-4.90147e-06
-7.44893e-06
-5.66054e-06
-7.34491e-06
-6.37552e-06
-7.18123e-06
-7.05429e-06
-7.00749e-06
-7.8575e-06
-6.73266e-06
-8.82061e-06
-6.40365e-06
-9.77184e-06
-6.10003e-06
-5.75186e-06
-1.54291e-08
-5.16021e-06
-6.29625e-08
-7.86709e-06
-1.19405e-07
-7.90225e-06
-2.0013e-07
-7.86998e-06
-3.1229e-07
-7.83115e-06
-4.65667e-07
-7.78162e-06
-6.67552e-07
-7.72331e-06
-9.21207e-07
-7.66058e-06
-1.23014e-06
-7.59342e-06
-1.60352e-06
-7.51984e-06
-2.0517e-06
-7.44093e-06
-2.54336e-06
-7.35873e-06
-3.05185e-06
-7.27061e-06
-3.57855e-06
-7.17015e-06
-4.09766e-06
-7.05645e-06
-4.62879e-06
-6.91498e-06
-5.25676e-06
-6.71504e-06
-5.97737e-06
-6.45876e-06
-6.81935e-06
-6.16411e-06
-7.67131e-06
-5.87962e-06
-8.49676e-06
-5.57795e-06
-9.39182e-06
-5.20513e-06
-4.7883e-06
-2.49256e-08
-5.13586e-06
-9.07003e-08
-7.80152e-06
-1.62939e-07
-7.83011e-06
-2.60409e-07
-7.77256e-06
-3.83787e-07
-7.70779e-06
-5.37525e-07
-7.62786e-06
-7.26029e-07
-7.53477e-06
-9.54052e-07
-7.43251e-06
-1.22286e-06
-7.32458e-06
-1.52953e-06
-7.21319e-06
-1.87577e-06
-7.09474e-06
-2.26643e-06
-6.96804e-06
-2.70925e-06
-6.82761e-06
-3.21797e-06
-6.66157e-06
-3.79971e-06
-6.47206e-06
-4.45534e-06
-6.25897e-06
-5.14429e-06
-6.02375e-06
-5.83439e-06
-5.76683e-06
-6.5254e-06
-5.47161e-06
-7.28012e-06
-5.12383e-06
-8.11911e-06
-4.7387e-06
-8.99657e-06
-4.32768e-06
-3.86863e-06
9.84714e-09
-5.14532e-06
-2.85863e-08
-7.76305e-06
-7.7788e-08
-7.78094e-06
-1.50082e-07
-7.7003e-06
-2.48742e-07
-7.60913e-06
-3.78899e-07
-7.49768e-06
-5.49561e-07
-7.36406e-06
-7.66525e-07
-7.2155e-06
-1.03546e-06
-7.0556e-06
-1.36074e-06
-6.88791e-06
-1.73924e-06
-6.71627e-06
-2.16804e-06
-6.53925e-06
-2.63693e-06
-6.35865e-06
-3.13376e-06
-6.16346e-06
-3.65967e-06
-5.9467e-06
-4.2116e-06
-5.70424e-06
-4.80469e-06
-5.42901e-06
-5.4568e-06
-5.11297e-06
-6.16751e-06
-4.75952e-06
-6.91521e-06
-4.37506e-06
-7.69782e-06
-3.95564e-06
-8.53364e-06
-3.49191e-06
-2.97943e-06
1.9953e-08
-5.1658e-06
-2.76149e-08
-7.71564e-06
-8.36988e-08
-7.72492e-06
-1.57903e-07
-7.62611e-06
-2.50462e-07
-7.51656e-06
-3.60558e-07
-7.38755e-06
-4.90184e-07
-7.23438e-06
-6.48204e-07
-7.05742e-06
-8.49861e-07
-6.8539e-06
-1.11338e-06
-6.62438e-06
-1.44556e-06
-6.38411e-06
-1.83992e-06
-6.14489e-06
-2.29288e-06
-5.90541e-06
-2.79579e-06
-5.66068e-06
-3.33404e-06
-5.40617e-06
-3.90542e-06
-5.1324e-06
-4.50477e-06
-4.8278e-06
-5.1281e-06
-4.48783e-06
-5.77978e-06
-4.10648e-06
-6.47506e-06
-3.67871e-06
-7.22274e-06
-3.20756e-06
-8.02095e-06
-2.69344e-06
-2.12981e-06
5.52077e-08
-5.22057e-06
-1.85589e-08
-7.64179e-06
-9.83958e-08
-7.64507e-06
-1.84944e-07
-7.53956e-06
-2.83515e-07
-7.41796e-06
-3.92251e-07
-7.27876e-06
-5.08479e-07
-7.11809e-06
-6.43559e-07
-6.92227e-06
-8.06771e-07
-6.69064e-06
-1.00354e-06
-6.42759e-06
-1.24814e-06
-6.13951e-06
-1.55723e-06
-5.83577e-06
-1.93965e-06
-5.5228e-06
-2.3995e-06
-5.19988e-06
-2.92456e-06
-4.88143e-06
-3.49527e-06
-4.55943e-06
-4.09082e-06
-4.2307e-06
-4.70094e-06
-3.8761e-06
-5.33228e-06
-3.47384e-06
-5.9952e-06
-3.01472e-06
-6.69707e-06
-2.50514e-06
-7.44973e-06
-1.94091e-06
-1.32269e-06
5.43131e-08
-5.27537e-06
-8.98183e-08
-7.49778e-06
-2.40749e-07
-7.49417e-06
-3.80116e-07
-7.40017e-06
-5.1844e-07
-7.2796e-06
-6.60641e-07
-7.1365e-06
-8.05625e-07
-6.97304e-06
-9.51153e-07
-6.77668e-06
-1.09929e-06
-6.54245e-06
-1.25529e-06
-6.27156e-06
-1.43217e-06
-5.96261e-06
-1.64364e-06
-5.62422e-06
-1.89823e-06
-5.26802e-06
-2.20506e-06
-4.89313e-06
-2.57646e-06
-4.50798e-06
-3.02873e-06
-4.10682e-06
-3.57e-06
-3.68757e-06
-4.18058e-06
-3.26395e-06
-4.81566e-06
-2.83742e-06
-5.45452e-06
-2.37483e-06
-6.11512e-06
-1.84419e-06
-6.82092e-06
-1.23462e-06
-5.6375e-07
2.70895e-09
-5.27762e-06
-2.73708e-07
-7.22125e-06
-5.53402e-07
-7.21443e-06
-8.02348e-07
-7.15119e-06
-1.02962e-06
-7.05229e-06
-1.2401e-06
-6.92596e-06
-1.43469e-06
-6.77837e-06
-1.60866e-06
-6.60264e-06
-1.75872e-06
-6.39232e-06
-1.8869e-06
-6.14334e-06
-2.00453e-06
-5.84496e-06
-2.1292e-06
-5.49949e-06
-2.27692e-06
-5.12018e-06
-2.44792e-06
-4.72116e-06
-2.66439e-06
-4.29193e-06
-2.9305e-06
-3.8385e-06
-3.25644e-06
-3.36028e-06
-3.66637e-06
-2.85253e-06
-4.18723e-06
-2.31534e-06
-4.80281e-06
-1.75829e-06
-5.45775e-06
-1.18859e-06
-6.12694e-06
-5.65518e-07
1.45235e-07
-9.97313e-08
-5.17835e-06
-5.57687e-07
-6.76339e-06
-1.01099e-06
-6.76113e-06
-1.42347e-06
-6.73868e-06
-1.79538e-06
-6.68033e-06
-2.1298e-06
-6.59147e-06
-2.42693e-06
-6.48116e-06
-2.68157e-06
-6.34792e-06
-2.88801e-06
-6.18582e-06
-3.03491e-06
-5.99639e-06
-3.11532e-06
-5.7645e-06
-3.14113e-06
-5.47361e-06
-3.14373e-06
-5.11735e-06
-3.15365e-06
-4.71135e-06
-3.19341e-06
-4.25036e-06
-3.28067e-06
-3.75091e-06
-3.41366e-06
-3.22573e-06
-3.59155e-06
-2.67318e-06
-3.83501e-06
-2.07067e-06
-4.18778e-06
-1.4046e-06
-4.70224e-06
-6.73809e-07
-5.33071e-06
6.36914e-08
8.24119e-07
-2.3286e-07
-4.94522e-06
-8.4887e-07
-6.14742e-06
-1.45431e-06
-6.15577e-06
-2.02234e-06
-6.17073e-06
-2.54477e-06
-6.15796e-06
-3.01091e-06
-6.12539e-06
-3.42682e-06
-6.06531e-06
-3.79435e-06
-5.98044e-06
-4.10492e-06
-5.8753e-06
-4.35551e-06
-5.74586e-06
-4.53503e-06
-5.58503e-06
-4.62964e-06
-5.37902e-06
-4.62767e-06
-5.11927e-06
-4.53672e-06
-4.80161e-06
-4.37258e-06
-4.41491e-06
-4.17508e-06
-3.9467e-06
-4.01132e-06
-3.38821e-06
-3.93699e-06
-2.74604e-06
-3.9519e-06
-2.05459e-06
-4.03169e-06
-1.32388e-06
-4.2095e-06
-4.95247e-07
-4.56448e-06
4.18855e-07
1.38078e-06
-3.32318e-07
-4.61303e-06
-1.00231e-06
-5.47744e-06
-1.65641e-06
-5.50169e-06
-2.28515e-06
-5.54198e-06
-2.87679e-06
-5.56632e-06
-3.41789e-06
-5.58429e-06
-3.89786e-06
-5.58531e-06
-4.30761e-06
-5.57067e-06
-4.64735e-06
-5.53554e-06
-4.9283e-06
-5.46489e-06
-5.15244e-06
-5.36087e-06
-5.31542e-06
-5.21598e-06
-5.415e-06
-5.01954e-06
-5.45106e-06
-4.7657e-06
-5.41874e-06
-4.44581e-06
-5.30316e-06
-4.06156e-06
-5.09068e-06
-3.59901e-06
-4.79561e-06
-3.03966e-06
-4.48912e-06
-2.35975e-06
-4.26559e-06
-1.54658e-06
-4.15183e-06
-6.08351e-07
-4.15364e-06
4.21058e-07
1.54499e-06
-3.7675e-07
-4.23603e-06
-9.95337e-07
-4.85855e-06
-1.59694e-06
-4.89976e-06
-2.18344e-06
-4.95515e-06
-2.75018e-06
-4.99926e-06
-3.29139e-06
-5.04275e-06
-3.79626e-06
-5.08013e-06
-4.25944e-06
-5.10718e-06
-4.67697e-06
-5.11772e-06
-5.03336e-06
-5.10821e-06
-5.32257e-06
-5.0714e-06
-5.53738e-06
-5.00091e-06
-5.672e-06
-4.88465e-06
-5.73307e-06
-4.70391e-06
-5.73174e-06
-4.44676e-06
-5.66341e-06
-4.12862e-06
-5.52783e-06
-3.73342e-06
-5.32784e-06
-3.23847e-06
-5.06241e-06
-2.6245e-06
-4.73161e-06
-1.87671e-06
-4.3733e-06
-9.66621e-07
-4.05264e-06
1.00563e-07
1.36147e-06
-4.28143e-07
-1.01252e-06
-1.60139e-06
-2.18231e-06
-2.74523e-06
-3.28183e-06
-3.78569e-06
-4.24962e-06
-4.66548e-06
-5.02837e-06
-5.33326e-06
-5.57647e-06
-5.75053e-06
-5.84011e-06
-5.83333e-06
-5.74618e-06
-5.59012e-06
-5.37212e-06
-5.10044e-06
-4.78792e-06
-4.44048e-06
-4.09969e-06
)
;

boundaryField
{
    leftWall
    {
        type            fixedValue;
        value           uniform 0;
    }
    rightWall
    {
        type            fixedValue;
        value           nonuniform 0();
    }
    lowerWall
    {
        type            fixedValue;
        value           nonuniform 0();
    }
    atmosphere
    {
        type            calculated;
        value           nonuniform List<scalar> 
23
(
-3.80767e-06
-4.27394e-06
-4.31067e-06
-4.37401e-06
-4.43612e-06
-4.50593e-06
-4.57606e-06
-4.64306e-06
-4.70167e-06
-4.74514e-06
-4.76634e-06
-4.75753e-06
-4.71041e-06
-4.61418e-06
-4.45315e-06
-4.21538e-06
-3.88908e-06
-3.45619e-06
-2.89596e-06
-2.18921e-06
-1.31403e-06
-2.40387e-07
1.05272e-06
)
;
    }
    defaultFaces
    {
        type            empty;
        value           nonuniform 0();
    }
    procBoundary2to0
    {
        type            processor;
        value           nonuniform List<scalar> 
24
(
2.39893e-05
2.43798e-05
2.37053e-05
2.1993e-05
2.15388e-05
2.1863e-05
2.1109e-05
2.69502e-06
6.5163e-06
7.01498e-06
7.54572e-06
8.02013e-06
8.49892e-06
8.94212e-06
9.39717e-06
9.9707e-06
1.07622e-05
1.18411e-05
1.33196e-05
1.49709e-05
1.6812e-05
1.86351e-05
4.34218e-07
1.97896e-05
)
;
    }
    procBoundary2to3
    {
        type            processor;
        value           nonuniform List<scalar> 
25
(
-1.50507e-05
-1.41754e-05
-1.31583e-05
-1.38232e-05
-1.2826e-05
-1.30427e-05
-1.2319e-05
-1.22564e-05
-1.19882e-05
-1.16621e-05
-1.14058e-05
-1.10957e-05
-1.07443e-05
-1.03578e-05
-9.91836e-06
-9.4245e-06
-8.87224e-06
-8.25783e-06
-7.58115e-06
-6.83621e-06
-6.01048e-06
-5.1211e-06
-4.31806e-06
-3.86965e-06
-3.79105e-06
)
;
    }
}


// ************************************************************************* //
