/*--------------------------------*- C++ -*----------------------------------*\
| =========                 |                                                 |
| \\      /  F ield         | OpenFOAM: The Open Source CFD Toolbox           |
|  \\    /   O peration     | Version:  2.4.0                                 |
|   \\  /    A nd           | Web:      www.OpenFOAM.org                      |
|    \\/     M anipulation  |                                                 |
\*---------------------------------------------------------------------------*/
FoamFile
{
    version     2.0;
    format      ascii;
    class       surfaceScalarField;
    location    "0.6";
    object      phi.air;
}
// * * * * * * * * * * * * * * * * * * * * * * * * * * * * * * * * * * * * * //

dimensions      [0 3 -1 0 0 0 0];

internalField   nonuniform List<scalar> 
1070
(
-3.38401e-06
-2.07712e-05
-6.10831e-06
-2.15088e-05
-8.58124e-06
-2.11694e-05
-1.06862e-05
-1.98835e-05
-1.26878e-05
-1.95662e-05
-1.4137e-05
-2.04568e-05
-2.02458e-05
7.11137e-07
-3.41088e-06
1.30159e-06
-7.11175e-06
1.67757e-06
-7.39604e-06
1.89257e-06
-7.76579e-06
1.97595e-06
-8.10862e-06
1.96977e-06
-8.49798e-06
1.99063e-06
-8.96843e-06
2.05377e-06
-9.46611e-06
2.16741e-06
-1.00906e-05
2.37736e-06
-1.0979e-05
2.54642e-06
-1.20179e-05
2.42167e-06
-1.32029e-05
1.90178e-06
-1.4437e-05
9.3341e-07
-1.57732e-05
-6.95349e-07
-1.68826e-05
-2.71325e-06
-1.7639e-05
-4.80391e-06
-1.86804e-05
-6.96513e-06
-1.93474e-05
-9.10087e-06
-1.90336e-05
-1.06902e-05
-1.82941e-05
-1.18679e-05
-1.83884e-05
-1.30059e-05
-1.9319e-05
-1.90766e-05
5.66182e-07
-3.97709e-06
8.92961e-07
-7.43856e-06
1.12512e-06
-7.62824e-06
1.31879e-06
-7.95949e-06
1.47437e-06
-8.26424e-06
1.58644e-06
-8.61006e-06
1.66081e-06
-9.04282e-06
1.70153e-06
-9.50684e-06
1.69301e-06
-1.00821e-05
1.57561e-06
-1.08616e-05
1.35968e-06
-1.1802e-05
9.06361e-07
-1.27495e-05
1.14569e-07
-1.36451e-05
-8.87686e-07
-1.47708e-05
-2.05597e-06
-1.57142e-05
-3.14424e-06
-1.65507e-05
-4.648e-06
-1.71765e-05
-6.60236e-06
-1.7393e-05
-8.30039e-06
-1.73355e-05
-9.60394e-06
-1.69905e-05
-1.07433e-05
-1.72491e-05
-1.19808e-05
-1.80815e-05
-1.78959e-05
3.79963e-07
-4.3571e-06
6.38921e-07
-7.69756e-06
8.91971e-07
-7.88133e-06
1.09546e-06
-8.16301e-06
1.27063e-06
-8.43943e-06
1.42773e-06
-8.76719e-06
1.51626e-06
-9.13136e-06
1.54475e-06
-9.53533e-06
1.47947e-06
-1.00168e-05
1.24223e-06
-1.06243e-05
8.61885e-07
-1.14216e-05
3.1305e-07
-1.22006e-05
-4.08277e-07
-1.29237e-05
-1.36473e-06
-1.38143e-05
-2.44934e-06
-1.46295e-05
-3.65011e-06
-1.53498e-05
-5.17285e-06
-1.56537e-05
-6.77924e-06
-1.57866e-05
-8.25402e-06
-1.58607e-05
-9.58342e-06
-1.56611e-05
-1.08564e-05
-1.59762e-05
-1.23184e-05
-1.66195e-05
-1.63864e-05
2.8247e-07
-4.6396e-06
5.22553e-07
-7.93768e-06
7.38589e-07
-8.0974e-06
8.67425e-07
-8.29188e-06
9.61839e-07
-8.53387e-06
1.02144e-06
-8.82681e-06
1.06262e-06
-9.17254e-06
1.09886e-06
-9.57156e-06
1.09741e-06
-1.00153e-05
9.06545e-07
-1.04334e-05
5.0264e-07
-1.10176e-05
7.28945e-09
-1.17052e-05
-5.41198e-07
-1.23751e-05
-1.40812e-06
-1.29473e-05
-2.4926e-06
-1.3545e-05
-3.8436e-06
-1.39988e-05
-5.1071e-06
-1.43902e-05
-6.22174e-06
-1.46719e-05
-7.42633e-06
-1.46561e-05
-8.49989e-06
-1.45876e-05
-9.62101e-06
-1.48551e-05
-1.11146e-05
-1.51259e-05
-1.46675e-05
2.31644e-07
-4.87129e-06
3.3259e-07
-8.03866e-06
3.95064e-07
-8.1599e-06
4.39817e-07
-8.33666e-06
4.57501e-07
-8.55157e-06
4.3702e-07
-8.80634e-06
3.76061e-07
-9.11158e-06
2.70925e-07
-9.46641e-06
1.24021e-07
-9.86839e-06
-6.86975e-08
-1.02406e-05
-4.46943e-07
-1.06393e-05
-9.82308e-07
-1.11698e-05
-1.602e-06
-1.17554e-05
-2.29004e-06
-1.22592e-05
-3.15915e-06
-1.26758e-05
-4.295e-06
-1.28629e-05
-5.52234e-06
-1.31628e-05
-6.7915e-06
-1.34028e-05
-8.00471e-06
-1.3443e-05
-9.14311e-06
-1.34493e-05
-1.03401e-05
-1.36582e-05
-1.17372e-05
-1.3729e-05
-1.33538e-05
1.41445e-07
-5.01276e-06
2.11298e-07
-8.10854e-06
2.65634e-07
-8.21427e-06
2.86678e-07
-8.35772e-06
2.70018e-07
-8.53493e-06
2.0979e-07
-8.74612e-06
9.17618e-08
-8.99355e-06
-7.78759e-08
-9.29676e-06
-3.13921e-07
-9.63232e-06
-6.14782e-07
-9.93972e-06
-1.00162e-06
-1.02524e-05
-1.52553e-06
-1.06458e-05
-2.26103e-06
-1.10198e-05
-3.0489e-06
-1.14712e-05
-3.90704e-06
-1.18176e-05
-4.62896e-06
-1.21409e-05
-5.41321e-06
-1.23786e-05
-6.47512e-06
-1.23409e-05
-7.52185e-06
-1.23963e-05
-8.55422e-06
-1.2417e-05
-9.80314e-06
-1.24093e-05
-1.12148e-05
-1.23173e-05
-1.22396e-05
1.36461e-07
-5.14925e-06
1.84932e-07
-8.15704e-06
2.09841e-07
-8.2392e-06
2.02405e-07
-8.35031e-06
1.53161e-07
-8.4857e-06
6.99865e-08
-8.66295e-06
-4.76858e-08
-8.87587e-06
-2.30228e-07
-9.1142e-06
-5.18689e-07
-9.34382e-06
-8.46633e-07
-9.61173e-06
-1.16742e-06
-9.93159e-06
-1.59151e-06
-1.02217e-05
-2.12781e-06
-1.04834e-05
-2.90017e-06
-1.06988e-05
-3.75221e-06
-1.09655e-05
-4.7079e-06
-1.11852e-05
-5.86945e-06
-1.12171e-05
-6.88018e-06
-1.13302e-05
-7.83841e-06
-1.14381e-05
-8.84689e-06
-1.14086e-05
-1.00049e-05
-1.12514e-05
-1.11419e-05
-1.11803e-05
-1.11149e-05
3.94065e-08
-5.18868e-06
2.14788e-08
-8.13914e-06
-6.89308e-10
-8.21705e-06
-4.64484e-08
-8.30456e-06
-1.23218e-07
-8.40893e-06
-2.48388e-07
-8.53777e-06
-4.1833e-07
-8.70591e-06
-6.42735e-07
-8.88977e-06
-9.05926e-07
-9.0806e-06
-1.25503e-06
-9.26258e-06
-1.73194e-06
-9.45462e-06
-2.27736e-06
-9.67618e-06
-2.82031e-06
-9.94044e-06
-3.47453e-06
-1.00445e-05
-4.24039e-06
-1.01996e-05
-5.05086e-06
-1.03748e-05
-5.76911e-06
-1.04988e-05
-6.53043e-06
-1.0569e-05
-7.52573e-06
-1.04428e-05
-8.62063e-06
-1.03137e-05
-9.68229e-06
-1.01898e-05
-1.07791e-05
-1.00836e-05
-9.89441e-06
3.71089e-08
-5.22582e-06
1.07706e-08
-8.11282e-06
-2.88802e-08
-8.17742e-06
-8.77466e-08
-8.24571e-06
-1.70072e-07
-8.32661e-06
-2.87743e-07
-8.4201e-06
-4.5649e-07
-8.53715e-06
-6.79212e-07
-8.66702e-06
-9.49324e-07
-8.81045e-06
-1.27142e-06
-8.94045e-06
-1.69894e-06
-9.02705e-06
-2.2297e-06
-9.14537e-06
-2.87157e-06
-9.29852e-06
-3.45113e-06
-9.46494e-06
-4.02869e-06
-9.62206e-06
-4.75101e-06
-9.65243e-06
-5.64731e-06
-9.60255e-06
-6.75499e-06
-9.46132e-06
-7.74014e-06
-9.45777e-06
-8.63778e-06
-9.41615e-06
-9.53254e-06
-9.29513e-06
-1.05957e-05
-9.02047e-06
-8.81692e-06
4.87798e-10
-5.22632e-06
-5.62941e-08
-8.05605e-06
-1.24909e-07
-8.10882e-06
-2.25826e-07
-8.1448e-06
-3.57793e-07
-8.19464e-06
-5.16307e-07
-8.26157e-06
-7.22003e-07
-8.33144e-06
-9.83197e-07
-8.4058e-06
-1.301e-06
-8.49261e-06
-1.63609e-06
-8.60532e-06
-1.95706e-06
-8.70603e-06
-2.33593e-06
-8.76645e-06
-2.84886e-06
-8.78554e-06
-3.52891e-06
-8.78485e-06
-4.38773e-06
-8.76321e-06
-5.18291e-06
-8.85727e-06
-5.93776e-06
-8.84774e-06
-6.58307e-06
-8.81606e-06
-7.31674e-06
-8.72415e-06
-8.27103e-06
-8.46193e-06
-9.37458e-06
-8.19163e-06
-1.03849e-05
-8.0102e-06
-7.78448e-06
-9.90412e-09
-5.21643e-06
-6.49711e-08
-8.001e-06
-1.2201e-07
-8.05179e-06
-1.98128e-07
-8.06868e-06
-3.04182e-07
-8.08859e-06
-4.48016e-07
-8.11773e-06
-6.30759e-07
-8.14868e-06
-8.57768e-07
-8.17876e-06
-1.14872e-06
-8.20162e-06
-1.55102e-06
-8.20298e-06
-2.05521e-06
-8.20179e-06
-2.6082e-06
-8.21341e-06
-3.14244e-06
-8.25127e-06
-3.65239e-06
-8.27488e-06
-4.11239e-06
-8.30321e-06
-4.70491e-06
-8.26475e-06
-5.43659e-06
-8.1161e-06
-6.3445e-06
-7.90821e-06
-7.37125e-06
-7.69745e-06
-8.28672e-06
-7.54652e-06
-9.10212e-06
-7.37627e-06
-1.00524e-05
-7.05993e-06
-6.73017e-06
-3.37982e-08
-5.18264e-06
-1.1335e-07
-7.92146e-06
-1.99595e-07
-7.96555e-06
-3.106e-07
-7.95768e-06
-4.48727e-07
-7.95045e-06
-6.24106e-07
-7.94234e-06
-8.39997e-07
-7.93277e-06
-1.0967e-06
-7.92203e-06
-1.38793e-06
-7.91036e-06
-1.68942e-06
-7.90144e-06
-1.99364e-06
-7.89752e-06
-2.34791e-06
-7.8591e-06
-2.81087e-06
-7.78827e-06
-3.3786e-06
-7.70712e-06
-4.09674e-06
-7.58506e-06
-4.90331e-06
-7.45821e-06
-5.66497e-06
-7.35447e-06
-6.38249e-06
-7.19074e-06
-7.06326e-06
-7.01674e-06
-7.86826e-06
-6.74157e-06
-8.83242e-06
-6.41215e-06
-9.78435e-06
-6.10803e-06
-5.75932e-06
-1.51875e-08
-5.16747e-06
-6.24042e-08
-7.87425e-06
-1.1856e-07
-7.9094e-06
-1.99034e-07
-7.8772e-06
-3.10982e-07
-7.8385e-06
-4.64186e-07
-7.78912e-06
-6.65937e-07
-7.73099e-06
-9.19484e-07
-7.66845e-06
-1.22832e-06
-7.6015e-06
-1.60159e-06
-7.52812e-06
-2.04965e-06
-7.44942e-06
-2.54126e-06
-7.36746e-06
-3.04993e-06
-7.27958e-06
-3.5776e-06
-7.17943e-06
-4.09736e-06
-7.06531e-06
-4.63093e-06
-6.92465e-06
-5.26115e-06
-6.7243e-06
-5.98408e-06
-6.46786e-06
-6.82799e-06
-6.17287e-06
-7.68164e-06
-5.88797e-06
-8.50807e-06
-5.58577e-06
-9.40379e-06
-5.21232e-06
-4.79482e-06
-2.45773e-08
-5.1429e-06
-9.01529e-08
-7.80868e-06
-1.62168e-07
-7.83738e-06
-2.59422e-07
-7.77995e-06
-3.82612e-07
-7.7153e-06
-5.36199e-07
-7.63552e-06
-7.24592e-07
-7.54258e-06
-9.52525e-07
-7.44049e-06
-1.22125e-06
-7.33274e-06
-1.52781e-06
-7.22153e-06
-1.87393e-06
-7.10327e-06
-2.26458e-06
-6.97677e-06
-2.70763e-06
-6.83651e-06
-3.21659e-06
-6.67047e-06
-3.80022e-06
-6.48169e-06
-4.45707e-06
-6.26783e-06
-5.14852e-06
-6.03289e-06
-5.84076e-06
-5.77566e-06
-6.53363e-06
-5.48005e-06
-7.28992e-06
-5.13172e-06
-8.12978e-06
-4.74594e-06
-9.00788e-06
-4.33425e-06
-3.87438e-06
1.00345e-08
-5.15294e-06
-2.81575e-08
-7.77049e-06
-7.71151e-08
-7.78842e-06
-1.49204e-07
-7.70785e-06
-2.47697e-07
-7.6168e-06
-3.77725e-07
-7.50547e-06
-5.48288e-07
-7.37199e-06
-7.65171e-07
-7.22358e-06
-1.03403e-06
-7.06385e-06
-1.35921e-06
-6.89631e-06
-1.7376e-06
-6.72485e-06
-2.16636e-06
-6.54798e-06
-2.63532e-06
-6.36754e-06
-3.13312e-06
-6.17266e-06
-3.6594e-06
-5.95541e-06
-4.21362e-06
-5.71364e-06
-4.80861e-06
-5.43794e-06
-5.46276e-06
-5.12155e-06
-6.17519e-06
-4.76766e-06
-6.92435e-06
-4.38261e-06
-7.70782e-06
-3.9625e-06
-8.54413e-06
-3.49795e-06
-2.98468e-06
2.02237e-08
-5.17316e-06
-2.71874e-08
-7.72308e-06
-8.30832e-08
-7.73253e-06
-1.5712e-07
-7.63381e-06
-2.49539e-07
-7.52437e-06
-3.59526e-07
-7.39547e-06
-4.89064e-07
-7.24244e-06
-6.47007e-07
-7.06561e-06
-8.48582e-07
-6.86225e-06
-1.112e-06
-6.63287e-06
-1.44408e-06
-6.39274e-06
-1.83838e-06
-6.15366e-06
-2.29158e-06
-5.91433e-06
-2.79465e-06
-5.66959e-06
-3.33447e-06
-5.4156e-06
-3.90697e-06
-5.14118e-06
-4.50833e-06
-4.83661e-06
-5.13362e-06
-4.49631e-06
-5.78687e-06
-4.11444e-06
-6.4835e-06
-3.68602e-06
-7.23191e-06
-3.21411e-06
-8.03065e-06
-2.69923e-06
-2.13459e-06
5.53029e-08
-5.22846e-06
-1.82173e-08
-7.64956e-06
-9.78688e-08
-7.65287e-06
-1.84264e-07
-7.54741e-06
-2.82714e-07
-7.42591e-06
-3.91354e-07
-7.28682e-06
-5.07503e-07
-7.12627e-06
-6.42511e-07
-6.93058e-06
-8.05644e-07
-6.69909e-06
-1.00231e-06
-6.43617e-06
-1.2468e-06
-6.14822e-06
-1.55582e-06
-5.84462e-06
-1.93834e-06
-5.53181e-06
-2.39888e-06
-5.20906e-06
-2.92431e-06
-4.89017e-06
-3.49684e-06
-4.56867e-06
-4.09405e-06
-4.23944e-06
-4.70592e-06
-3.88448e-06
-5.33871e-06
-3.48167e-06
-6.00287e-06
-3.02189e-06
-6.70547e-06
-2.51153e-06
-7.45842e-06
-1.9463e-06
-1.32725e-06
5.45206e-08
-5.28299e-06
-8.94706e-08
-7.50557e-06
-2.40281e-07
-7.50206e-06
-3.79531e-07
-7.40815e-06
-5.17754e-07
-7.28768e-06
-6.59871e-07
-7.14469e-06
-8.04785e-07
-6.98134e-06
-9.50245e-07
-6.7851e-06
-1.0983e-06
-6.55101e-06
-1.25421e-06
-6.28025e-06
-1.43097e-06
-5.97144e-06
-1.6424e-06
-5.63318e-06
-1.89711e-06
-5.27709e-06
-2.204e-06
-4.90216e-06
-2.57671e-06
-4.51749e-06
-3.02978e-06
-4.11562e-06
-3.57285e-06
-3.69642e-06
-4.185e-06
-3.27236e-06
-4.82143e-06
-2.84527e-06
-5.46139e-06
-2.38196e-06
-6.12251e-06
-1.85042e-06
-6.82879e-06
-1.24003e-06
-5.67998e-07
2.78057e-09
-5.28576e-06
-2.73465e-07
-7.22932e-06
-5.53023e-07
-7.22249e-06
-8.01861e-07
-7.15931e-06
-1.02904e-06
-7.06049e-06
-1.23945e-06
-6.93426e-06
-1.43398e-06
-6.78679e-06
-1.60789e-06
-6.61118e-06
-1.75788e-06
-6.401e-06
-1.88596e-06
-6.15215e-06
-2.00348e-06
-5.8539e-06
-2.12807e-06
-5.50857e-06
-2.27577e-06
-5.12939e-06
-2.44736e-06
-4.73059e-06
-2.66393e-06
-4.30092e-06
-2.93162e-06
-3.84796e-06
-3.25885e-06
-3.36922e-06
-3.67021e-06
-2.86103e-06
-4.19226e-06
-2.32324e-06
-4.80877e-06
-1.76546e-06
-5.4643e-06
-1.19491e-06
-6.13364e-06
-5.70704e-07
1.40866e-07
-9.95454e-08
-5.18622e-06
-5.57439e-07
-6.77142e-06
-1.01067e-06
-6.76926e-06
-1.42307e-06
-6.7469e-06
-1.79491e-06
-6.68864e-06
-2.12927e-06
-6.59989e-06
-2.42635e-06
-6.4897e-06
-2.68093e-06
-6.35659e-06
-2.8873e-06
-6.19462e-06
-3.03411e-06
-6.00532e-06
-3.11441e-06
-5.77358e-06
-3.14014e-06
-5.48284e-06
-3.1428e-06
-5.12673e-06
-3.15265e-06
-4.72074e-06
-3.19342e-06
-4.26018e-06
-3.28127e-06
-3.76012e-06
-3.41563e-06
-3.23488e-06
-3.5948e-06
-2.68189e-06
-3.83929e-06
-2.07878e-06
-4.19286e-06
-1.41191e-06
-4.70764e-06
-6.80144e-07
-5.33658e-06
5.82239e-08
8.1987e-07
-2.32829e-07
-4.95339e-06
-8.4872e-07
-6.15553e-06
-1.45407e-06
-6.16391e-06
-2.02203e-06
-6.17893e-06
-2.54441e-06
-6.16626e-06
-3.0105e-06
-6.1338e-06
-3.42636e-06
-6.07383e-06
-3.79384e-06
-5.98909e-06
-4.10435e-06
-5.8841e-06
-4.35485e-06
-5.75481e-06
-4.53428e-06
-5.59415e-06
-4.62879e-06
-5.38832e-06
-4.62675e-06
-5.12876e-06
-4.53615e-06
-4.81136e-06
-4.37197e-06
-4.42436e-06
-4.17561e-06
-3.95651e-06
-4.01286e-06
-3.39766e-06
-3.93963e-06
-2.75514e-06
-3.95539e-06
-2.06304e-06
-4.03578e-06
-1.33154e-06
-4.21402e-06
-5.01916e-07
-4.56912e-06
4.13317e-07
1.37636e-06
-3.32237e-07
-4.62115e-06
-1.00219e-06
-5.48558e-06
-1.65623e-06
-5.50986e-06
-2.28493e-06
-5.55023e-06
-2.87653e-06
-5.57466e-06
-3.41759e-06
-5.59273e-06
-3.89753e-06
-5.59388e-06
-4.30724e-06
-5.57938e-06
-4.64693e-06
-5.5444e-06
-4.92782e-06
-5.47391e-06
-5.15187e-06
-5.37009e-06
-5.31477e-06
-5.22542e-06
-5.41433e-06
-5.0292e-06
-5.45018e-06
-4.7755e-06
-5.41849e-06
-4.45607e-06
-5.30332e-06
-4.0717e-06
-5.09184e-06
-3.60917e-06
-4.7976e-06
-3.0494e-06
-4.49181e-06
-2.36886e-06
-4.26868e-06
-1.55468e-06
-4.1552e-06
-6.15413e-07
-4.15716e-06
4.1527e-07
1.54042e-06
-3.76691e-07
-4.24446e-06
-9.95254e-07
-4.86701e-06
-1.59683e-06
-4.90828e-06
-2.18331e-06
-4.96374e-06
-2.75003e-06
-5.00794e-06
-3.29122e-06
-5.05153e-06
-3.79607e-06
-5.08903e-06
-4.25922e-06
-5.11621e-06
-4.67672e-06
-5.1269e-06
-5.03307e-06
-5.11755e-06
-5.32222e-06
-5.08094e-06
-5.53696e-06
-5.01068e-06
-5.67147e-06
-4.8947e-06
-5.73267e-06
-4.71431e-06
-5.73136e-06
-4.45738e-06
-5.66358e-06
-4.13951e-06
-5.52856e-06
-3.74421e-06
-5.32918e-06
-3.24881e-06
-5.06408e-06
-2.63397e-06
-4.73366e-06
-1.88512e-06
-4.37539e-06
-9.73681e-07
-4.05492e-06
9.47973e-08
1.35725e-06
-4.28128e-07
-1.0125e-06
-1.60135e-06
-2.18227e-06
-2.74518e-06
-3.28178e-06
-3.78563e-06
-4.24954e-06
-4.66539e-06
-5.02827e-06
-5.33314e-06
-5.57632e-06
-5.75036e-06
-5.83992e-06
-5.83323e-06
-5.74624e-06
-5.59039e-06
-5.37257e-06
-5.10104e-06
-4.78859e-06
-4.44122e-06
-4.10047e-06
)
;

boundaryField
{
    leftWall
    {
        type            fixedValue;
        value           uniform 0;
    }
    rightWall
    {
        type            fixedValue;
        value           nonuniform 0();
    }
    lowerWall
    {
        type            fixedValue;
        value           nonuniform 0();
    }
    atmosphere
    {
        type            calculated;
        value           nonuniform List<scalar> 
23
(
-3.81633e-06
-4.28264e-06
-4.31942e-06
-4.38283e-06
-4.44503e-06
-4.51493e-06
-4.58517e-06
-4.6523e-06
-4.71105e-06
-4.75468e-06
-4.77607e-06
-4.7675e-06
-4.72066e-06
-4.62476e-06
-4.46408e-06
-4.22651e-06
-3.90008e-06
-3.46663e-06
-2.90551e-06
-2.19757e-06
-1.32106e-06
-2.45948e-07
1.04869e-06
)
;
    }
    defaultFaces
    {
        type            empty;
        value           nonuniform 0();
    }
    procBoundary2to0
    {
        type            processor;
        value           nonuniform List<scalar> 
24
(
2.37511e-05
2.42335e-05
2.36424e-05
2.19889e-05
2.15675e-05
2.19064e-05
2.11576e-05
2.69968e-06
6.52124e-06
7.02001e-06
7.55075e-06
8.0252e-06
8.50411e-06
8.94755e-06
9.40296e-06
9.97698e-06
1.07691e-05
1.18489e-05
1.33277e-05
1.4957e-05
1.67417e-05
1.85116e-05
4.04143e-07
1.96571e-05
)
;
    }
    procBoundary2to3
    {
        type            processor;
        value           nonuniform List<scalar> 
25
(
-1.50494e-05
-1.4175e-05
-1.31615e-05
-1.38279e-05
-1.28335e-05
-1.30508e-05
-1.23291e-05
-1.22666e-05
-1.19995e-05
-1.16731e-05
-1.14173e-05
-1.11067e-05
-1.07552e-05
-1.03683e-05
-9.92829e-06
-9.43381e-06
-8.88071e-06
-8.26574e-06
-7.58801e-06
-6.84248e-06
-6.01556e-06
-5.12558e-06
-4.32121e-06
-3.87172e-06
-3.79189e-06
)
;
    }
}


// ************************************************************************* //
