/*--------------------------------*- C++ -*----------------------------------*\
| =========                 |                                                 |
| \\      /  F ield         | OpenFOAM: The Open Source CFD Toolbox           |
|  \\    /   O peration     | Version:  2.4.0                                 |
|   \\  /    A nd           | Web:      www.OpenFOAM.org                      |
|    \\/     M anipulation  |                                                 |
\*---------------------------------------------------------------------------*/
FoamFile
{
    version     2.0;
    format      ascii;
    class       volVectorField;
    location    "0.6";
    object      U;
}
// * * * * * * * * * * * * * * * * * * * * * * * * * * * * * * * * * * * * * //

dimensions      [0 1 -1 0 0 0 0];

internalField   nonuniform List<vector> 
559
(
(-0.0111755 -0.11826 0)
(-0.0260053 -0.120507 0)
(-0.0389762 -0.119324 0)
(-0.0525495 -0.111419 0)
(-0.0622185 -0.109115 0)
(-0.0730241 -0.112651 0)
(-0.0778154 -0.11089 0)
(0.00197703 -0.0162269 0)
(0.00551246 -0.0367285 0)
(0.00823201 -0.039063 0)
(0.00957965 -0.041591 0)
(0.0105671 -0.0439066 0)
(0.0105273 -0.0463091 0)
(0.0105281 -0.0486593 0)
(0.0108436 -0.0512058 0)
(0.0111785 -0.0544771 0)
(0.0123071 -0.0592971 0)
(0.0132907 -0.0651361 0)
(0.0141095 -0.072132 0)
(0.0117945 -0.0796045 0)
(0.00867266 -0.0888775 0)
(0.00122337 -0.0960379 0)
(-0.00880362 -0.0997671 0)
(-0.0203251 -0.106571 0)
(-0.0319022 -0.111668 0)
(-0.0432423 -0.109611 0)
(-0.0542605 -0.104193 0)
(-0.0605103 -0.102851 0)
(-0.0667601 -0.108718 0)
(-0.0717327 -0.1076 0)
(0.00183455 -0.0199485 0)
(0.00415862 -0.0392619 0)
(0.00530363 -0.0402087 0)
(0.00660058 -0.0419581 0)
(0.00746531 -0.0439134 0)
(0.0082408 -0.0459334 0)
(0.0087557 -0.0484831 0)
(0.00905624 -0.0510737 0)
(0.0092352 -0.0544573 0)
(0.0090449 -0.0589394 0)
(0.00790915 -0.0639368 0)
(0.00671026 -0.0694174 0)
(0.00311585 -0.0757627 0)
(-0.00190968 -0.0822956 0)
(-0.00777388 -0.0872739 0)
(-0.0142334 -0.0921744 0)
(-0.0201278 -0.0972858 0)
(-0.029882 -0.0992277 0)
(-0.0413403 -0.0974774 0)
(-0.0483779 -0.0945204 0)
(-0.0541873 -0.0960549 0)
(-0.0610138 -0.100341 0)
(-0.0670336 -0.0992321 0)
(0.00127504 -0.0224813 0)
(0.0027198 -0.0405141 0)
(0.00406937 -0.0416589 0)
(0.00540479 -0.0433857 0)
(0.00627875 -0.0449151 0)
(0.00728739 -0.0466477 0)
(0.00798936 -0.0487402 0)
(0.00826837 -0.0509562 0)
(0.00833213 -0.0536707 0)
(0.00767014 -0.0573432 0)
(0.00570041 -0.0627027 0)
(0.00343294 -0.0681612 0)
(6.94061e-05 -0.07172 0)
(-0.00471649 -0.0770544 0)
(-0.0100496 -0.0820495 0)
(-0.0165004 -0.0869231 0)
(-0.0231272 -0.0878737 0)
(-0.0323426 -0.0884512 0)
(-0.0409531 -0.0893386 0)
(-0.0480759 -0.0881274 0)
(-0.0551333 -0.0898272 0)
(-0.061473 -0.0940666 0)
(-0.0701509 -0.0927724 0)
(0.000903749 -0.0241179 0)
(0.00207521 -0.0421647 0)
(0.00350522 -0.0431454 0)
(0.00433198 -0.0445296 0)
(0.00495049 -0.0458735 0)
(0.00534013 -0.0475586 0)
(0.0055766 -0.0494132 0)
(0.00582251 -0.0516273 0)
(0.00600744 -0.0543057 0)
(0.0057609 -0.0569907 0)
(0.00403141 -0.0603326 0)
(0.00128163 -0.0639333 0)
(-0.00114679 -0.06771 0)
(-0.00496125 -0.0719999 0)
(-0.0102125 -0.0760566 0)
(-0.0169216 -0.0793984 0)
(-0.0243833 -0.0816704 0)
(-0.0305481 -0.0830086 0)
(-0.0366655 -0.0832553 0)
(-0.0428463 -0.0818255 0)
(-0.049013 -0.0834217 0)
(-0.0544432 -0.0861709 0)
(-0.0640622 -0.0843891 0)
(0.000793555 -0.0255981 0)
(0.00165948 -0.0429534 0)
(0.00189864 -0.0436813 0)
(0.00228386 -0.0445303 0)
(0.00243344 -0.0459434 0)
(0.00245179 -0.0476946 0)
(0.00223957 -0.049576 0)
(0.00180051 -0.0515607 0)
(0.00114786 -0.0533668 0)
(0.000169523 -0.0553181 0)
(-0.000857263 -0.0576602 0)
(-0.00379436 -0.0610195 0)
(-0.00697573 -0.0651358 0)
(-0.0103065 -0.0673135 0)
(-0.0144614 -0.0699283 0)
(-0.0196253 -0.0711809 0)
(-0.0264035 -0.0731816 0)
(-0.0335204 -0.0752067 0)
(-0.0396603 -0.074725 0)
(-0.0462075 -0.0751094 0)
(-0.0522837 -0.0761747 0)
(-0.0591735 -0.0764724 0)
(-0.0663663 -0.0739707 0)
(0.000480228 -0.0265595 0)
(0.00100837 -0.043453 0)
(0.00126271 -0.0440843 0)
(0.0015553 -0.0450639 0)
(0.001514 -0.0460942 0)
(0.00137007 -0.0471735 0)
(0.000893405 -0.0486449 0)
(9.79769e-05 -0.0505095 0)
(-0.000978403 -0.0527655 0)
(-0.00243338 -0.0544136 0)
(-0.00425784 -0.0567706 0)
(-0.00645286 -0.059837 0)
(-0.0101041 -0.0617168 0)
(-0.0141166 -0.0647226 0)
(-0.018859 -0.0669031 0)
(-0.0231563 -0.0680536 0)
(-0.0267361 -0.0696872 0)
(-0.0316587 -0.0701097 0)
(-0.0379668 -0.0705732 0)
(-0.0433311 -0.0711067 0)
(-0.0485055 -0.0715287 0)
(-0.0573871 -0.071559 0)
(-0.0629002 -0.0698104 0)
(0.00049853 -0.027455 0)
(0.000945116 -0.0438203 0)
(0.00105439 -0.0442786 0)
(0.00116356 -0.0448947 0)
(0.00101321 -0.0456706 0)
(0.00062651 -0.0467856 0)
(0.000117882 -0.048009 0)
(-0.00065499 -0.0493542 0)
(-0.00184586 -0.0507628 0)
(-0.003789 -0.0528946 0)
(-0.0054331 -0.0545308 0)
(-0.00718089 -0.0556465 0)
(-0.0097593 -0.0574866 0)
(-0.0133217 -0.059556 0)
(-0.017831 -0.0610026 0)
(-0.0223354 -0.0627696 0)
(-0.0286295 -0.063539 0)
(-0.0344957 -0.0630526 0)
(-0.0398254 -0.0638912 0)
(-0.0442977 -0.0633246 0)
(-0.0509243 -0.0631269 0)
(-0.0570154 -0.0620359 0)
(-0.0627876 -0.0628112 0)
(0.000203753 -0.0277208 0)
(0.000203216 -0.0438397 0)
(3.99752e-05 -0.0443187 0)
(-6.93898e-05 -0.0449181 0)
(-0.000410043 -0.0456322 0)
(-0.000953624 -0.0465084 0)
(-0.00172987 -0.0475591 0)
(-0.00279661 -0.0487427 0)
(-0.00415245 -0.0498651 0)
(-0.00569358 -0.0506147 0)
(-0.00778907 -0.0518939 0)
(-0.010857 -0.0537698 0)
(-0.0137406 -0.055065 0)
(-0.0166836 -0.0554327 0)
(-0.0204312 -0.0567835 0)
(-0.0252809 -0.0581902 0)
(-0.0292126 -0.0582012 0)
(-0.033089 -0.0599015 0)
(-0.0370637 -0.0594549 0)
(-0.0437483 -0.0590853 0)
(-0.0489713 -0.0574287 0)
(-0.0554264 -0.057792 0)
(-0.0607821 -0.0569771 0)
(0.000177717 -0.0281549 0)
(0.000202521 -0.0438986 0)
(-7.81277e-05 -0.0442714 0)
(-0.000270693 -0.044674 0)
(-0.000685514 -0.0451294 0)
(-0.00116703 -0.0456009 0)
(-0.00194008 -0.0463059 0)
(-0.00301074 -0.0471031 0)
(-0.00433984 -0.0480135 0)
(-0.00583746 -0.0490509 0)
(-0.00791608 -0.0500833 0)
(-0.0104579 -0.0508087 0)
(-0.0135067 -0.0521245 0)
(-0.0173136 -0.0530382 0)
(-0.0200841 -0.0540489 0)
(-0.0230738 -0.053725 0)
(-0.0279162 -0.0543041 0)
(-0.0331313 -0.0535938 0)
(-0.0391612 -0.0529093 0)
(-0.0443183 -0.0529331 0)
(-0.048683 -0.0535689 0)
(-0.0539131 -0.0517861 0)
(-0.0602892 -0.0500423 0)
(7.56175e-05 -0.0280377 0)
(-7.65061e-05 -0.0434355 0)
(-0.00049193 -0.0437547 0)
(-0.000895267 -0.0440664 0)
(-0.00155537 -0.0444845 0)
(-0.00230267 -0.0450292 0)
(-0.00327408 -0.0456114 0)
(-0.00452322 -0.0462076 0)
(-0.00607984 -0.0468783 0)
(-0.00792011 -0.0475117 0)
(-0.00975864 -0.0476113 0)
(-0.0113088 -0.0481841 0)
(-0.0138824 -0.0485625 0)
(-0.0167803 -0.0491976 0)
(-0.0211334 -0.0489867 0)
(-0.0259055 -0.049917 0)
(-0.0300312 -0.049769 0)
(-0.0338698 -0.0492067 0)
(-0.0372372 -0.0500533 0)
(-0.0410658 -0.048872 0)
(-0.04755 -0.0462033 0)
(-0.0536401 -0.0456655 0)
(-0.0582861 -0.0452466 0)
(1.96879e-05 -0.0282455 0)
(-0.000141341 -0.04341 0)
(-0.000526533 -0.0436702 0)
(-0.000823828 -0.0437698 0)
(-0.00130696 -0.0438666 0)
(-0.00198417 -0.0440428 0)
(-0.00286331 -0.0442573 0)
(-0.00395514 -0.0445273 0)
(-0.00531351 -0.0448205 0)
(-0.00707029 -0.0452021 0)
(-0.00950628 -0.0458113 0)
(-0.0126482 -0.0459195 0)
(-0.015438 -0.0460115 0)
(-0.0183579 -0.0459453 0)
(-0.0209814 -0.0464614 0)
(-0.0234572 -0.046607 0)
(-0.0269183 -0.0460785 0)
(-0.031493 -0.0456236 0)
(-0.0368088 -0.0432631 0)
(-0.0425306 -0.0425618 0)
(-0.0465668 -0.0428172 0)
(-0.0513288 -0.0410297 0)
(-0.0571141 -0.0389026 0)
(-4.9702e-05 -0.0279188 0)
(-0.000332921 -0.0427896 0)
(-0.000854851 -0.0430725 0)
(-0.00132957 -0.0431396 0)
(-0.00200874 -0.0432551 0)
(-0.00284347 -0.0433894 0)
(-0.00389391 -0.0434774 0)
(-0.00516055 -0.0435029 0)
(-0.0066416 -0.0434761 0)
(-0.00828939 -0.0433404 0)
(-0.00994013 -0.043106 0)
(-0.0114925 -0.0431289 0)
(-0.0137323 -0.0432507 0)
(-0.0164958 -0.0431433 0)
(-0.0198584 -0.0424676 0)
(-0.0241733 -0.0416644 0)
(-0.0285588 -0.0411234 0)
(-0.0324841 -0.0401847 0)
(-0.0361432 -0.0404667 0)
(-0.0397009 -0.0392202 0)
(-0.0448309 -0.0368581 0)
(-0.0502866 -0.0354345 0)
(-0.055179 -0.0338508 0)
(-3.3667e-05 -0.0279906 0)
(-0.000141124 -0.0426635 0)
(-0.000503433 -0.0428598 0)
(-0.000805358 -0.0427317 0)
(-0.0013391 -0.0425857 0)
(-0.0020327 -0.042418 0)
(-0.00297807 -0.0422543 0)
(-0.00419992 -0.0421182 0)
(-0.00570485 -0.0419986 0)
(-0.00750693 -0.0419001 0)
(-0.00968981 -0.041824 0)
(-0.0123336 -0.0414212 0)
(-0.0150097 -0.0408387 0)
(-0.0177981 -0.0403739 0)
(-0.02067 -0.0399484 0)
(-0.0234175 -0.039531 0)
(-0.0263958 -0.0387238 0)
(-0.0300539 -0.0373422 0)
(-0.0343627 -0.0352361 0)
(-0.0390767 -0.0337609 0)
(-0.0434277 -0.0326245 0)
(-0.0481176 -0.0306814 0)
(-0.053231 -0.0284461 0)
(-3.48083e-05 -0.0276757 0)
(-0.00024293 -0.0421788 0)
(-0.00069572 -0.0423618 0)
(-0.00108566 -0.0421227 0)
(-0.00169939 -0.0418371 0)
(-0.00243217 -0.0414641 0)
(-0.00334554 -0.0410125 0)
(-0.00445958 -0.0405129 0)
(-0.00578823 -0.0399737 0)
(-0.00733706 -0.0393949 0)
(-0.00910572 -0.038803 0)
(-0.0110414 -0.0383802 0)
(-0.0132737 -0.0378994 0)
(-0.0158288 -0.0371517 0)
(-0.018747 -0.0362589 0)
(-0.0221121 -0.035141 0)
(-0.0258125 -0.0339316 0)
(-0.0295509 -0.0328013 0)
(-0.0332144 -0.0316706 0)
(-0.0370107 -0.0299654 0)
(-0.0413492 -0.0278563 0)
(-0.046102 -0.0257802 0)
(-0.0509266 -0.0234277 0)
(6.45403e-05 -0.0278089 0)
(3.95993e-05 -0.0421309 0)
(-0.000316398 -0.0422491 0)
(-0.000549815 -0.0418914 0)
(-0.00103838 -0.0414853 0)
(-0.00163858 -0.0409922 0)
(-0.00243967 -0.0404383 0)
(-0.00346896 -0.0398346 0)
(-0.00476123 -0.0391991 0)
(-0.00635909 -0.0385473 0)
(-0.00824174 -0.0377753 0)
(-0.0104215 -0.0368042 0)
(-0.0128584 -0.0358506 0)
(-0.0154603 -0.0348904 0)
(-0.0182132 -0.0338072 0)
(-0.0211097 -0.0326289 0)
(-0.0241654 -0.0312631 0)
(-0.0275119 -0.0295691 0)
(-0.0312204 -0.0276243 0)
(-0.0351609 -0.0256398 0)
(-0.0392429 -0.0235621 0)
(-0.0436534 -0.0211828 0)
(-0.0483411 -0.0185164 0)
(0.000137692 -0.0277901 0)
(7.43516e-05 -0.0416705 0)
(-0.000342767 -0.0417532 0)
(-0.000587989 -0.0412452 0)
(-0.00107782 -0.0406836 0)
(-0.00162372 -0.0400109 0)
(-0.0022607 -0.0391894 0)
(-0.00300797 -0.0382431 0)
(-0.00395084 -0.0372003 0)
(-0.00517324 -0.0360924 0)
(-0.00677017 -0.0350584 0)
(-0.0087365 -0.0341332 0)
(-0.0110187 -0.0331494 0)
(-0.0136054 -0.0320092 0)
(-0.0164122 -0.0307164 0)
(-0.0194075 -0.0292611 0)
(-0.0225704 -0.027653 0)
(-0.0258705 -0.025935 0)
(-0.029293 -0.0240197 0)
(-0.0329031 -0.0218271 0)
(-0.0367771 -0.0193865 0)
(-0.040982 -0.0167478 0)
(-0.0454495 -0.0138248 0)
(0.000354164 -0.028125 0)
(0.000222625 -0.0416993 0)
(-0.000396361 -0.0417495 0)
(-0.000697058 -0.0411835 0)
(-0.00125671 -0.0405528 0)
(-0.00181279 -0.0398097 0)
(-0.00239995 -0.0388977 0)
(-0.00305892 -0.0378448 0)
(-0.00385724 -0.0366377 0)
(-0.00480885 -0.0352561 0)
(-0.00597122 -0.0337403 0)
(-0.00743553 -0.0321562 0)
(-0.00926933 -0.0305988 0)
(-0.0115491 -0.0291393 0)
(-0.0142205 -0.027765 0)
(-0.0172055 -0.0263531 0)
(-0.0203572 -0.0247281 0)
(-0.0236032 -0.0227642 0)
(-0.0269487 -0.0205417 0)
(-0.0304235 -0.0181218 0)
(-0.0340779 -0.0154719 0)
(-0.0380087 -0.012552 0)
(-0.0422376 -0.00934167 0)
(0.000463081 -0.0282162 0)
(0.000105813 -0.0407912 0)
(-0.00102995 -0.0407772 0)
(-0.00160832 -0.0402119 0)
(-0.00243548 -0.0395327 0)
(-0.0031541 -0.0387557 0)
(-0.00394189 -0.03792 0)
(-0.00472688 -0.0368869 0)
(-0.00550708 -0.0356189 0)
(-0.00631296 -0.0341521 0)
(-0.0071818 -0.032525 0)
(-0.00820141 -0.0307987 0)
(-0.00945242 -0.0289959 0)
(-0.0109451 -0.0270732 0)
(-0.0127493 -0.0250748 0)
(-0.0149233 -0.0230328 0)
(-0.0175901 -0.0210956 0)
(-0.0207822 -0.0192716 0)
(-0.0241991 -0.017235 0)
(-0.0275803 -0.0147025 0)
(-0.0310695 -0.011804 0)
(-0.0347404 -0.00861318 0)
(-0.0387079 -0.00511255 0)
(0.000479337 -0.0284757 0)
(-0.000452269 -0.0398605 0)
(-0.00242166 -0.0398255 0)
(-0.00359632 -0.0394009 0)
(-0.00497174 -0.0388102 0)
(-0.00611246 -0.0381084 0)
(-0.00721531 -0.0372654 0)
(-0.0082083 -0.036256 0)
(-0.00908444 -0.0350469 0)
(-0.00982192 -0.0336164 0)
(-0.010459 -0.0319253 0)
(-0.0110851 -0.0300251 0)
(-0.0118032 -0.02799 0)
(-0.012643 -0.0258234 0)
(-0.0136579 -0.0236229 0)
(-0.0149481 -0.0213202 0)
(-0.016564 -0.0188432 0)
(-0.0184715 -0.0161826 0)
(-0.0209195 -0.01359 0)
(-0.0240614 -0.0111097 0)
(-0.0276164 -0.00833392 0)
(-0.0310985 -0.00497594 0)
(-0.0348302 -0.00117505 0)
(0.000358974 -0.0285438 0)
(-0.0014613 -0.0381322 0)
(-0.00444015 -0.0380951 0)
(-0.00651026 -0.0378695 0)
(-0.00872781 -0.0374434 0)
(-0.0105747 -0.0368257 0)
(-0.0122921 -0.0361027 0)
(-0.0137701 -0.035254 0)
(-0.0150338 -0.0342578 0)
(-0.0159991 -0.033065 0)
(-0.0166161 -0.0315944 0)
(-0.0168658 -0.0297939 0)
(-0.0168611 -0.0276972 0)
(-0.0168697 -0.0254302 0)
(-0.016992 -0.0229233 0)
(-0.0173192 -0.0203124 0)
(-0.0179388 -0.0175942 0)
(-0.0187362 -0.0147503 0)
(-0.0198667 -0.0115977 0)
(-0.0213952 -0.00814625 0)
(-0.0236354 -0.00473432 0)
(-0.0268375 -0.0013034 0)
(-0.0305342 0.0025814 0)
(4.73729e-05 -0.0280658 0)
(-0.00260266 -0.035628 0)
(-0.00640203 -0.0356358 0)
(-0.00932408 -0.0356203 0)
(-0.0123432 -0.0354071 0)
(-0.0149798 -0.0350389 0)
(-0.0173463 -0.0345281 0)
(-0.0194371 -0.033865 0)
(-0.021285 -0.0330164 0)
(-0.0228023 -0.0320877 0)
(-0.0239731 -0.0309858 0)
(-0.024722 -0.0296103 0)
(-0.0249892 -0.0279091 0)
(-0.0247204 -0.0258672 0)
(-0.0240021 -0.0234436 0)
(-0.0229575 -0.0206345 0)
(-0.0218351 -0.0174977 0)
(-0.0211815 -0.0141514 0)
(-0.0210846 -0.0107194 0)
(-0.0214331 -0.00704679 0)
(-0.021974 -0.00280358 0)
(-0.0231662 0.00180903 0)
(-0.0258857 0.00633445 0)
(-0.000357302 -0.026171 0)
(-0.00331042 -0.0317841 0)
(-0.0073125 -0.0318748 0)
(-0.0105702 -0.0320314 0)
(-0.0139074 -0.0320745 0)
(-0.0169656 -0.0320532 0)
(-0.0197144 -0.0318721 0)
(-0.0221487 -0.0315839 0)
(-0.0241045 -0.0312244 0)
(-0.0257761 -0.0306289 0)
(-0.027137 -0.0298396 0)
(-0.0281783 -0.0288072 0)
(-0.0288941 -0.0274857 0)
(-0.0292639 -0.0259234 0)
(-0.029274 -0.0240589 0)
(-0.0288868 -0.0217901 0)
(-0.0280379 -0.0190339 0)
(-0.0266419 -0.0156842 0)
(-0.0248637 -0.011694 0)
(-0.0232754 -0.0071656 0)
(-0.0223605 -0.00227943 0)
(-0.0222881 0.00280219 0)
(-0.0224916 0.00835797 0)
(-0.000631702 -0.0230826 0)
(-0.00351724 -0.0268209 0)
(-0.0070676 -0.0270303 0)
(-0.0101263 -0.0273008 0)
(-0.0132846 -0.0274938 0)
(-0.0162583 -0.0276723 0)
(-0.0190849 -0.0278173 0)
(-0.0216796 -0.0278983 0)
(-0.0240716 -0.0278684 0)
(-0.0261567 -0.0277316 0)
(-0.0278941 -0.0274557 0)
(-0.0292635 -0.0270193 0)
(-0.0302044 -0.0263588 0)
(-0.0307185 -0.0253784 0)
(-0.0308649 -0.0240474 0)
(-0.0306737 -0.0223122 0)
(-0.0301246 -0.0201016 0)
(-0.0292125 -0.0173175 0)
(-0.0279458 -0.0138726 0)
(-0.0263512 -0.00968687 0)
(-0.0244541 -0.00455625 0)
(-0.022462 0.00167927 0)
(-0.0208676 0.00846151 0)
(-0.00080278 -0.0206442 0)
(-0.00370606 -0.0231743 0)
(-0.00713782 -0.0233746 0)
(-0.0101377 -0.0237157 0)
(-0.0132719 -0.0240486 0)
(-0.0162195 -0.0244216 0)
(-0.0190238 -0.0247951 0)
(-0.0216261 -0.0251509 0)
(-0.0239928 -0.025461 0)
(-0.0260863 -0.0256891 0)
(-0.0278825 -0.0257969 0)
(-0.0293649 -0.0257429 0)
(-0.0304964 -0.0254828 0)
(-0.0311973 -0.0249589 0)
(-0.0314026 -0.0240874 0)
(-0.0311461 -0.0228014 0)
(-0.0304865 -0.0210349 0)
(-0.0294695 -0.0186898 0)
(-0.0281357 -0.015654 0)
(-0.0265435 -0.011823 0)
(-0.0247415 -0.00707346 0)
(-0.0228632 -0.00122256 0)
(-0.0208907 0.00569865 0)
)
;

boundaryField
{
    leftWall
    {
        type            calculated;
        value           uniform (0 0 0);
    }
    rightWall
    {
        type            calculated;
        value           nonuniform 0();
    }
    lowerWall
    {
        type            calculated;
        value           nonuniform 0();
    }
    atmosphere
    {
        type            calculated;
        value           nonuniform List<vector> 
23
(
(-0.00080278 -0.0205891 0)
(-0.00370606 -0.0231049 0)
(-0.00713782 -0.0233033 0)
(-0.0101377 -0.0236454 0)
(-0.0132719 -0.023981 0)
(-0.0162195 -0.0243581 0)
(-0.0190238 -0.024737 0)
(-0.0216261 -0.0250992 0)
(-0.0239928 -0.0254162 0)
(-0.0260863 -0.0256515 0)
(-0.0278825 -0.0257669 0)
(-0.0293649 -0.0257207 0)
(-0.0304964 -0.025468 0)
(-0.0311973 -0.0249506 0)
(-0.0314026 -0.0240838 0)
(-0.0311461 -0.022802 0)
(-0.0304865 -0.0210409 0)
(-0.0294695 -0.0187025 0)
(-0.0281357 -0.0156752 0)
(-0.0265435 -0.0118559 0)
(-0.0247415 -0.00712711 0)
(-0.0228632 -0.00132689 0)
(-0.0208907 0.00565769 0)
)
;
    }
    defaultFaces
    {
        type            empty;
    }
    procBoundary2to0
    {
        type            processor;
        value           nonuniform List<vector> 
24
(
(0.00215403 -0.138109 0)
(-0.0170187 -0.141444 0)
(-0.0346583 -0.136124 0)
(-0.048097 -0.125597 0)
(-0.0651444 -0.122947 0)
(-0.0776396 -0.123223 0)
(-0.0838953 -0.117376 0)
(0.0025827 -0.012457 0)
(0.00663702 -0.033457 0)
(0.00995347 -0.0366117 0)
(0.0122661 -0.039894 0)
(0.0135406 -0.0430094 0)
(0.0142164 -0.0458792 0)
(0.0149189 -0.0483506 0)
(0.016202 -0.0506366 0)
(0.0178613 -0.0534917 0)
(0.0209159 -0.0563764 0)
(0.0266384 -0.0623782 0)
(0.0311277 -0.0719409 0)
(0.0308311 -0.0822089 0)
(0.0268685 -0.0919889 0)
(0.0185837 -0.104415 0)
(0.00681132 -0.112752 0)
(0.00681132 -0.112752 0)
)
;
    }
    procBoundary2to3
    {
        type            processor;
        value           nonuniform List<vector> 
25
(
(-0.0818084 -0.107058 0)
(-0.0778699 -0.103946 0)
(-0.0725202 -0.0929256 0)
(-0.0761476 -0.0857803 0)
(-0.0708384 -0.0799481 0)
(-0.071451 -0.0712249 0)
(-0.0672118 -0.0679622 0)
(-0.0669567 -0.0618969 0)
(-0.0657048 -0.0550392 0)
(-0.063636 -0.0507443 0)
(-0.062634 -0.043659 0)
(-0.0608108 -0.0384107 0)
(-0.05902 -0.0323887 0)
(-0.056897 -0.0269496 0)
(-0.0545197 -0.0215535 0)
(-0.0518225 -0.0164113 0)
(-0.0488053 -0.0114729 0)
(-0.0454476 -0.00676018 0)
(-0.0417485 -0.00229531 0)
(-0.037667 0.00189417 0)
(-0.0331766 0.00582716 0)
(-0.0283155 0.00955944 0)
(-0.0235084 0.0125446 0)
(-0.0207117 0.0135317 0)
(-0.0200279 0.0112947 0)
)
;
    }
}


// ************************************************************************* //
