/*--------------------------------*- C++ -*----------------------------------*\
| =========                 |                                                 |
| \\      /  F ield         | OpenFOAM: The Open Source CFD Toolbox           |
|  \\    /   O peration     | Version:  2.4.0                                 |
|   \\  /    A nd           | Web:      www.OpenFOAM.org                      |
|    \\/     M anipulation  |                                                 |
\*---------------------------------------------------------------------------*/
FoamFile
{
    version     2.0;
    format      ascii;
    class       volVectorField;
    location    "0.6";
    object      U.water;
}
// * * * * * * * * * * * * * * * * * * * * * * * * * * * * * * * * * * * * * //

dimensions      [0 1 -1 0 0 0 0];

internalField   nonuniform List<vector> 
559
(
(-0.0112564 -0.118136 0)
(-0.0260788 -0.120362 0)
(-0.0390429 -0.119151 0)
(-0.0526047 -0.111225 0)
(-0.0622514 -0.108895 0)
(-0.0730412 -0.112409 0)
(-0.0778234 -0.110628 0)
(0.00197584 -0.0161995 0)
(0.00550816 -0.036701 0)
(0.00822377 -0.0390357 0)
(0.00956716 -0.0415638 0)
(0.01055 -0.0438792 0)
(0.0105054 -0.046281 0)
(0.0105013 -0.0486298 0)
(0.0108119 -0.0511743 0)
(0.0111421 -0.0544426 0)
(0.0122662 -0.0592587 0)
(0.0132454 -0.0650925 0)
(0.0140602 -0.0720822 0)
(0.0117413 -0.0795468 0)
(0.00862137 -0.0888116 0)
(0.00116741 -0.0959605 0)
(-0.00886423 -0.0996793 0)
(-0.0203818 -0.106467 0)
(-0.0319531 -0.111539 0)
(-0.0432841 -0.109463 0)
(-0.0542898 -0.104018 0)
(-0.0605235 -0.102656 0)
(-0.0667562 -0.108504 0)
(-0.0717273 -0.107368 0)
(0.00183269 -0.0199202 0)
(0.0041533 -0.0392338 0)
(0.0052949 -0.0401809 0)
(0.00658808 -0.0419303 0)
(0.00744872 -0.0438852 0)
(0.00821996 -0.0459044 0)
(0.00873061 -0.0484527 0)
(0.00902702 -0.0510412 0)
(0.00920207 -0.054422 0)
(0.00900814 -0.0589005 0)
(0.00786898 -0.0638935 0)
(0.00666722 -0.0693688 0)
(0.00307062 -0.0757079 0)
(-0.00195717 -0.0822343 0)
(-0.00781926 -0.0872064 0)
(-0.0142769 -0.092095 0)
(-0.0201681 -0.0971917 0)
(-0.0299126 -0.0991155 0)
(-0.0413606 -0.0973467 0)
(-0.0483854 -0.094369 0)
(-0.0541802 -0.0958851 0)
(-0.0609931 -0.100155 0)
(-0.0670115 -0.0990323 0)
(0.00127355 -0.022453 0)
(0.002715 -0.0404857 0)
(0.00406093 -0.0416304 0)
(0.00539268 -0.0433569 0)
(0.00626289 -0.0448857 0)
(0.00726774 -0.0466174 0)
(0.00796603 -0.0487083 0)
(0.00824156 -0.0509223 0)
(0.00830209 -0.0536341 0)
(0.00763717 -0.0573033 0)
(0.00566481 -0.0626589 0)
(0.00339497 -0.0681128 0)
(2.89687e-05 -0.0716668 0)
(-0.00475507 -0.0769952 0)
(-0.0100877 -0.0819841 0)
(-0.0165345 -0.086849 0)
(-0.0231508 -0.0877873 0)
(-0.0323568 -0.088351 0)
(-0.0409558 -0.0892227 0)
(-0.0480661 -0.0879956 0)
(-0.0551111 -0.0896803 0)
(-0.0614382 -0.0939062 0)
(-0.0701169 -0.0926009 0)
(0.000901918 -0.0240891 0)
(0.00207003 -0.0421357 0)
(0.0034969 -0.0431162 0)
(0.00432037 -0.0445 0)
(0.00493552 -0.0458431 0)
(0.0053218 -0.0475271 0)
(0.00555509 -0.0493802 0)
(0.00579805 -0.0515921 0)
(0.00598032 -0.0542681 0)
(0.00573139 -0.05695 0)
(0.00399975 -0.0602884 0)
(0.00124804 -0.0638853 0)
(-0.00118109 -0.0676576 0)
(-0.00499639 -0.0719422 0)
(-0.0102428 -0.0759939 0)
(-0.0169439 -0.0793276 0)
(-0.0243973 -0.0815909 0)
(-0.030549 -0.0829176 0)
(-0.0366542 -0.0831522 0)
(-0.042823 -0.0817102 0)
(-0.0489779 -0.0832945 0)
(-0.0543983 -0.0860331 0)
(-0.0640173 -0.0842429 0)
(0.000792186 -0.0255684 0)
(0.00165509 -0.0429238 0)
(0.00189098 -0.0436513 0)
(0.00227299 -0.0444998 0)
(0.00241945 -0.045912 0)
(0.00243481 -0.047662 0)
(0.00221983 -0.0495419 0)
(0.00177828 -0.0515245 0)
(0.00112342 -0.0533282 0)
(0.000143123 -0.0552767 0)
(-0.000885455 -0.0576156 0)
(-0.00382412 -0.0609715 0)
(-0.00700638 -0.0650839 0)
(-0.0103346 -0.0672575 0)
(-0.0144862 -0.0698673 0)
(-0.0196422 -0.0711137 0)
(-0.026407 -0.0731076 0)
(-0.0335109 -0.0751234 0)
(-0.0396382 -0.0746327 0)
(-0.0461731 -0.0750076 0)
(-0.0522392 -0.0760639 0)
(-0.0591196 -0.0763538 0)
(-0.066315 -0.0738457 0)
(0.000478558 -0.0265291 0)
(0.00100372 -0.0434225 0)
(0.00125535 -0.0440533 0)
(0.00154508 -0.0450324 0)
(0.00150097 -0.0460616 0)
(0.00135443 -0.0471397 0)
(0.0008754 -0.0486096 0)
(7.78884e-05 -0.0504723 0)
(-0.00100031 -0.0527259 0)
(-0.00245693 -0.0543714 0)
(-0.00428297 -0.0567256 0)
(-0.0064791 -0.0597889 0)
(-0.0101303 -0.0616653 0)
(-0.0141425 -0.0646676 0)
(-0.0188781 -0.0668437 0)
(-0.0231655 -0.0679895 0)
(-0.0267338 -0.0696171 0)
(-0.0316414 -0.0700335 0)
(-0.0379362 -0.0704898 0)
(-0.0432885 -0.0710164 0)
(-0.0484526 -0.071432 0)
(-0.0573268 -0.0714564 0)
(-0.0628413 -0.0697034 0)
(0.000497341 -0.0274236 0)
(0.00094131 -0.043789 0)
(0.00104774 -0.0442467 0)
(0.00115414 -0.0448622 0)
(0.00100124 -0.0456371 0)
(0.000612245 -0.046751 0)
(0.000101595 -0.0479728 0)
(-0.000673023 -0.0493162 0)
(-0.00186541 -0.0507226 0)
(-0.00380991 -0.0528519 0)
(-0.0054553 -0.0544856 0)
(-0.00720412 -0.0555986 0)
(-0.00978305 -0.0574358 0)
(-0.0133417 -0.0595017 0)
(-0.0178467 -0.0609445 0)
(-0.0223417 -0.062708 0)
(-0.0286203 -0.0634725 0)
(-0.0344731 -0.0629822 0)
(-0.0397891 -0.0638156 0)
(-0.0442495 -0.0632443 0)
(-0.0508668 -0.0630421 0)
(-0.0569504 -0.0619473 0)
(-0.0627257 -0.0627196 0)
(0.000202337 -0.0276883 0)
(0.000199209 -0.0438075 0)
(3.36066e-05 -0.0442856 0)
(-7.81301e-05 -0.0448844 0)
(-0.000421015 -0.0455976 0)
(-0.000966591 -0.0464727 0)
(-0.00174456 -0.0475219 0)
(-0.00281275 -0.0487038 0)
(-0.00416984 -0.0498243 0)
(-0.00571209 -0.0505716 0)
(-0.00780864 -0.0518484 0)
(-0.0108775 -0.053722 0)
(-0.0137606 -0.0550146 0)
(-0.0167024 -0.0553789 0)
(-0.020443 -0.0567273 0)
(-0.0252818 -0.0581304 0)
(-0.0292013 -0.0581385 0)
(-0.0330622 -0.0598356 0)
(-0.0370236 -0.0593861 0)
(-0.0436964 -0.0590132 0)
(-0.0489101 -0.057354 0)
(-0.055359 -0.0577149 0)
(-0.0607169 -0.056899 0)
(0.000176791 -0.0281216 0)
(0.000199306 -0.0438653 0)
(-8.38642e-05 -0.0442374 0)
(-0.000278654 -0.0446393 0)
(-0.000695482 -0.0450939 0)
(-0.00117873 -0.0455643 0)
(-0.00195324 -0.0462679 0)
(-0.00302511 -0.0470635 0)
(-0.00435525 -0.0479721 0)
(-0.00585382 -0.0490075 0)
(-0.00793337 -0.0500377 0)
(-0.010476 -0.0507608 0)
(-0.0135247 -0.0520742 0)
(-0.017328 -0.0529857 0)
(-0.0200935 -0.0539938 0)
(-0.0230738 -0.0536678 0)
(-0.0279012 -0.0542447 0)
(-0.033102 -0.053532 0)
(-0.0391189 -0.052846 0)
(-0.0442644 -0.052868 0)
(-0.0486206 -0.0535027 0)
(-0.0538444 -0.0517192 0)
(-0.0602237 -0.0499753 0)
(7.4389e-05 -0.0280034 0)
(-7.99904e-05 -0.0434008 0)
(-0.000497383 -0.0437196 0)
(-0.000902557 -0.0440307 0)
(-0.00156437 -0.044448 0)
(-0.00231318 -0.0449917 0)
(-0.00328584 -0.0455727 0)
(-0.004536 -0.0461673 0)
(-0.00609349 -0.0468364 0)
(-0.0079346 -0.047468 0)
(-0.00977399 -0.0475656 0)
(-0.0113246 -0.0481364 0)
(-0.0138977 -0.0485128 0)
(-0.0167941 -0.0491459 0)
(-0.0211401 -0.0489328 0)
(-0.0259021 -0.0498617 0)
(-0.0300155 -0.049712 0)
(-0.033839 -0.0491485 0)
(-0.0371937 -0.0499946 0)
(-0.0410112 -0.0488129 0)
(-0.047487 -0.0461443 0)
(-0.0535717 -0.0456068 0)
(-0.05822 -0.0451891 0)
(1.88789e-05 -0.0282101 0)
(-0.000144056 -0.0433743 0)
(-0.000531284 -0.0436341 0)
(-0.000830331 -0.0437332 0)
(-0.00131498 -0.0438291 0)
(-0.00199351 -0.0440044 0)
(-0.00287376 -0.0442178 0)
(-0.00396649 -0.0444864 0)
(-0.00532562 -0.0447782 0)
(-0.00708311 -0.045158 0)
(-0.00951983 -0.0457655 0)
(-0.0126622 -0.0458721 0)
(-0.015452 -0.0459624 0)
(-0.0183682 -0.0458943 0)
(-0.020987 -0.0464086 0)
(-0.0234537 -0.0465533 0)
(-0.0269006 -0.0460236 0)
(-0.031462 -0.0455686 0)
(-0.0367653 -0.0432083 0)
(-0.0424765 -0.0425077 0)
(-0.0465048 -0.0427641 0)
(-0.0512614 -0.0409781 0)
(-0.0570496 -0.0388529 0)
(-5.07885e-05 -0.0278823 0)
(-0.000335849 -0.0427527 0)
(-0.000859287 -0.0430355 0)
(-0.00133545 -0.043102 0)
(-0.00201595 -0.0432168 0)
(-0.00285182 -0.0433502 0)
(-0.00390323 -0.0434371 0)
(-0.00517065 -0.0434614 0)
(-0.00665235 -0.0434332 0)
(-0.00830077 -0.043296 0)
(-0.00995212 -0.0430602 0)
(-0.011505 -0.0430816 0)
(-0.013744 -0.043202 0)
(-0.016506 -0.0430929 0)
(-0.0198622 -0.0424162 0)
(-0.0241675 -0.0416118 0)
(-0.028542 -0.0410708 0)
(-0.0324535 -0.0401324 0)
(-0.0361005 -0.0404153 0)
(-0.039648 -0.0391703 0)
(-0.0447704 -0.0368101 0)
(-0.0502213 -0.0353886 0)
(-0.0551161 -0.0338078 0)
(-3.43174e-05 -0.0279531 0)
(-0.000143269 -0.0426257 0)
(-0.000507197 -0.0428219 0)
(-0.000810566 -0.0426933 0)
(-0.00134555 -0.0425465 0)
(-0.00204019 -0.0423779 0)
(-0.00298637 -0.0422132 0)
(-0.00420888 -0.042076 0)
(-0.00571437 -0.0419552 0)
(-0.00751701 -0.0418555 0)
(-0.00970048 -0.0417781 0)
(-0.0123447 -0.0413741 0)
(-0.0150205 -0.0407902 0)
(-0.0178058 -0.0403243 0)
(-0.0206734 -0.0398978 0)
(-0.0234126 -0.0394799 0)
(-0.0263783 -0.038673 0)
(-0.0300241 -0.0372921 0)
(-0.0343216 -0.0351875 0)
(-0.0390258 -0.0337144 0)
(-0.0433697 -0.0325805 0)
(-0.0480551 -0.0306405 0)
(-0.0531709 -0.0284084 0)
(-3.57448e-05 -0.0276372 0)
(-0.000245333 -0.0421402 0)
(-0.000699255 -0.042323 0)
(-0.00109037 -0.0420833 0)
(-0.0017052 -0.041797 0)
(-0.00243888 -0.0414232 0)
(-0.00335295 -0.0409707 0)
(-0.00446753 -0.0404701 0)
(-0.00579665 -0.0399299 0)
(-0.00734599 -0.0393501 0)
(-0.00911526 -0.0387571 0)
(-0.0110513 -0.0383331 0)
(-0.013283 -0.0378512 0)
(-0.0158369 -0.0371027 0)
(-0.0187493 -0.036209 0)
(-0.0221061 -0.035091 0)
(-0.0257965 -0.033882 0)
(-0.0295224 -0.0327529 0)
(-0.0331753 -0.0316242 0)
(-0.0369623 -0.0299216 0)
(-0.0412943 -0.0278157 0)
(-0.046043 -0.0257431 0)
(-0.0508696 -0.0233946 0)
(6.4038e-05 -0.0277694 0)
(3.79483e-05 -0.0420914 0)
(-0.000319355 -0.0422093 0)
(-0.000553979 -0.0418511 0)
(-0.00104354 -0.0414444 0)
(-0.00164454 -0.0409505 0)
(-0.00244624 -0.0403959 0)
(-0.00347601 -0.0397913 0)
(-0.00476872 -0.0391548 0)
(-0.00636706 -0.0385021 0)
(-0.00825025 -0.0377291 0)
(-0.0104304 -0.0367571 0)
(-0.0128673 -0.0358026 0)
(-0.0154664 -0.0348415 0)
(-0.0182156 -0.0337577 0)
(-0.021105 -0.0325797 0)
(-0.0241495 -0.0312143 0)
(-0.0274854 -0.0295221 0)
(-0.0311838 -0.0275796 0)
(-0.0351157 -0.0255981 0)
(-0.0391916 -0.0235241 0)
(-0.0435984 -0.0211488 0)
(-0.048288 -0.0184867 0)
(0.000136969 -0.0277497 0)
(7.24761e-05 -0.0416305 0)
(-0.000345566 -0.0417126 0)
(-0.000591743 -0.0412041 0)
(-0.0010824 -0.0406419 0)
(-0.00162896 -0.0399685 0)
(-0.00226648 -0.0391463 0)
(-0.00301419 -0.0381992 0)
(-0.00395749 -0.0371555 0)
(-0.00518038 -0.0360468 0)
(-0.00677784 -0.035012 0)
(-0.0087446 -0.034086 0)
(-0.0110263 -0.0331014 0)
(-0.013612 -0.0319604 0)
(-0.0164142 -0.0306675 0)
(-0.0194023 -0.0292121 0)
(-0.0225567 -0.0276052 0)
(-0.0258462 -0.025889 0)
(-0.0292592 -0.0239763 0)
(-0.0328614 -0.0217871 0)
(-0.0367299 -0.0193503 0)
(-0.0409314 -0.0167159 0)
(-0.0454007 -0.0137978 0)
(0.000353909 -0.0280838 0)
(0.000221451 -0.0416583 0)
(-0.000398692 -0.0417079 0)
(-0.000700295 -0.0411415 0)
(-0.00126068 -0.0405103 0)
(-0.00181735 -0.0397666 0)
(-0.00240497 -0.0388538 0)
(-0.00306435 -0.0378002 0)
(-0.00386307 -0.0365924 0)
(-0.00481515 -0.03521 0)
(-0.0059781 -0.0336935 0)
(-0.00744288 -0.0321087 0)
(-0.0092766 -0.0305505 0)
(-0.0115543 -0.0290905 0)
(-0.0142228 -0.027716 0)
(-0.0172019 -0.0263045 0)
(-0.0203443 -0.0246807 0)
(-0.0235812 -0.0227188 0)
(-0.0269181 -0.0204991 0)
(-0.0303857 -0.0180827 0)
(-0.0340348 -0.015437 0)
(-0.0379628 -0.0125219 0)
(-0.0421931 -0.00931649 0)
(0.000462522 -0.0281744 0)
(0.000104322 -0.0407491 0)
(-0.00103214 -0.0407349 0)
(-0.00161114 -0.0401692 0)
(-0.00243889 -0.0394895 0)
(-0.00315801 -0.0387119 0)
(-0.00394621 -0.0378756 0)
(-0.00473157 -0.0368418 0)
(-0.00551216 -0.035573 0)
(-0.0063185 -0.0341055 0)
(-0.00718791 -0.0324777 0)
(-0.00820795 -0.0307506 0)
(-0.00945876 -0.0289471 0)
(-0.010951 -0.0270241 0)
(-0.0127515 -0.0250256 0)
(-0.0149198 -0.0229841 0)
(-0.0175796 -0.0210481 0)
(-0.0207628 -0.0192263 0)
(-0.0241718 -0.0171928 0)
(-0.0275464 -0.0146639 0)
(-0.0310313 -0.01177 0)
(-0.0346995 -0.00858407 0)
(-0.0386684 -0.00508879 0)
(0.000479142 -0.0284333 0)
(-0.000453113 -0.0398177 0)
(-0.00242333 -0.0397824 0)
(-0.00359864 -0.0393575 0)
(-0.00497459 -0.0387663 0)
(-0.00611574 -0.038064 0)
(-0.00721895 -0.0372203 0)
(-0.00821228 -0.0362102 0)
(-0.0090888 -0.0350005 0)
(-0.00982673 -0.0335692 0)
(-0.0104644 -0.0318774 0)
(-0.0110909 -0.0299764 0)
(-0.0118093 -0.0279406 0)
(-0.0126476 -0.0257736 0)
(-0.0136607 -0.023573 0)
(-0.0149463 -0.021271 0)
(-0.0165545 -0.0187952 0)
(-0.0184548 -0.016137 0)
(-0.0208957 -0.0135475 0)
(-0.024032 -0.0110711 0)
(-0.0275828 -0.00830006 0)
(-0.031063 -0.00494736 0)
(-0.0347954 -0.00115181 0)
(0.000358473 -0.0285006 0)
(-0.00146247 -0.0380888 0)
(-0.00444169 -0.0380514 0)
(-0.0065122 -0.0378255 0)
(-0.00873014 -0.0373989 0)
(-0.0105773 -0.0367806 0)
(-0.0122951 -0.036057 0)
(-0.0137734 -0.0352076 0)
(-0.0150374 -0.0342107 0)
(-0.0160032 -0.0330172 0)
(-0.0166207 -0.0315458 0)
(-0.0168709 -0.0297445 0)
(-0.0168663 -0.027647 0)
(-0.0168749 -0.0253794 0)
(-0.0169947 -0.0228725 0)
(-0.0173176 -0.020262 0)
(-0.0179319 -0.0175454 0)
(-0.0187222 -0.0147038 0)
(-0.0198465 -0.0115545 0)
(-0.0213701 -0.00810717 0)
(-0.0236073 -0.0047002 0)
(-0.0268072 -0.00127466 0)
(-0.0305048 0.00260464 0)
(4.72892e-05 -0.0280225 0)
(-0.00260314 -0.0355844 0)
(-0.00640307 -0.0355919 0)
(-0.00932555 -0.035576 0)
(-0.012345 -0.0353623 0)
(-0.0149819 -0.0349935 0)
(-0.0173487 -0.0344821 0)
(-0.0194397 -0.0338183 0)
(-0.0212879 -0.0329689 0)
(-0.0228056 -0.0320394 0)
(-0.0239768 -0.0309367 0)
(-0.0247263 -0.0295604 0)
(-0.0249939 -0.0278582 0)
(-0.0247244 -0.0258156 0)
(-0.0240052 -0.0233916 0)
(-0.0229577 -0.0205832 0)
(-0.0218296 -0.0174475 0)
(-0.0211703 -0.0141033 0)
(-0.0210681 -0.0106748 0)
(-0.0214128 -0.00700641 0)
(-0.0219509 -0.0027685 0)
(-0.0231416 0.00183873 0)
(-0.0258612 0.00635785 0)
(-0.00035752 -0.0261271 0)
(-0.00331097 -0.0317402 0)
(-0.00731331 -0.0318307 0)
(-0.0105713 -0.031987 0)
(-0.0139087 -0.0320296 0)
(-0.0169671 -0.0320077 0)
(-0.019716 -0.0318259 0)
(-0.0221506 -0.031537 0)
(-0.0241066 -0.0311767 0)
(-0.0257785 -0.0305803 0)
(-0.0271398 -0.0297901 0)
(-0.0281816 -0.0287566 0)
(-0.0288976 -0.027434 0)
(-0.029268 -0.0258707 0)
(-0.029277 -0.0240058 0)
(-0.0288871 -0.0217362 0)
(-0.0280344 -0.018981 0)
(-0.0266334 -0.0156334 0)
(-0.0248512 -0.0116467 0)
(-0.0232599 -0.00712309 0)
(-0.0223432 -0.00224239 0)
(-0.0222696 0.00283275 0)
(-0.0224737 0.00838223 0)
(-0.000631861 -0.023038 0)
(-0.00351762 -0.0267762 0)
(-0.00706811 -0.0269853 0)
(-0.010127 -0.0272554 0)
(-0.0132854 -0.0274479 0)
(-0.0162592 -0.0276258 0)
(-0.0190859 -0.0277703 0)
(-0.0216807 -0.0278506 0)
(-0.0240728 -0.0278198 0)
(-0.0261581 -0.0276821 0)
(-0.0278958 -0.0274052 0)
(-0.0292656 -0.0269676 0)
(-0.030207 -0.0263057 0)
(-0.030721 -0.0253239 0)
(-0.0308669 -0.0239911 0)
(-0.0306743 -0.0222555 0)
(-0.0301221 -0.0200451 0)
(-0.029207 -0.0172633 0)
(-0.0279377 -0.0138225 0)
(-0.0263412 -0.00964234 0)
(-0.024443 -0.00451818 0)
(-0.0224502 0.00171028 0)
(-0.0208559 0.00848522 0)
(-0.000802821 -0.0205981 0)
(-0.00370617 -0.023128 0)
(-0.00713799 -0.0233279 0)
(-0.0101379 -0.0236687 0)
(-0.0132721 -0.0240011 0)
(-0.0162198 -0.0243735 0)
(-0.0190241 -0.0247464 0)
(-0.0216265 -0.0251016 0)
(-0.0239932 -0.0254109 0)
(-0.0260868 -0.0256381 0)
(-0.0278831 -0.0257449 0)
(-0.0293656 -0.0256897 0)
(-0.0304973 -0.0254281 0)
(-0.0311982 -0.0249023 0)
(-0.0314034 -0.0240292 0)
(-0.0311462 -0.022742 0)
(-0.0304856 -0.0209762 0)
(-0.0294676 -0.0186338 0)
(-0.0281329 -0.0156027 0)
(-0.0265401 -0.0117778 0)
(-0.0247377 -0.00703548 0)
(-0.0228591 -0.00119212 0)
(-0.0208864 0.00572092 0)
)
;

boundaryField
{
    leftWall
    {
        type            fixedValue;
        value           uniform (0 0 0);
    }
    rightWall
    {
        type            fixedValue;
        value           nonuniform 0();
    }
    lowerWall
    {
        type            fixedValue;
        value           nonuniform 0();
    }
    atmosphere
    {
        type            fluxCorrectedVelocity;
        value           nonuniform List<vector> 
23
(
(-0.000802821 -0.0205891 0)
(-0.00370617 -0.0231049 0)
(-0.00713799 -0.0233033 0)
(-0.0101379 -0.0236454 0)
(-0.0132721 -0.023981 0)
(-0.0162198 -0.0243581 0)
(-0.0190241 -0.024737 0)
(-0.0216265 -0.0250992 0)
(-0.0239932 -0.0254162 0)
(-0.0260868 -0.0256515 0)
(-0.0278831 -0.0257669 0)
(-0.0293656 -0.0257207 0)
(-0.0304973 -0.025468 0)
(-0.0311982 -0.0249506 0)
(-0.0314034 -0.0240838 0)
(-0.0311462 -0.022802 0)
(-0.0304856 -0.0210409 0)
(-0.0294676 -0.0187025 0)
(-0.0281329 -0.0156752 0)
(-0.0265401 -0.0118559 0)
(-0.0247377 -0.00712711 0)
(-0.0228591 -0.00132689 0)
(-0.0208864 0.00565769 0)
)
;
    }
    defaultFaces
    {
        type            empty;
    }
    procBoundary2to0
    {
        type            processor;
        value           nonuniform List<vector> 
24
(
(0.00205697 -0.137966 0)
(-0.0171194 -0.141277 0)
(-0.0347496 -0.13593 0)
(-0.0481738 -0.12538 0)
(-0.0652059 -0.122707 0)
(-0.0776762 -0.122957 0)
(-0.0839317 -0.117088 0)
(0.00258073 -0.0124295 0)
(0.00663173 -0.0334297 0)
(0.00994498 -0.0365849 0)
(0.0122535 -0.0398676 0)
(0.013523 -0.0429831 0)
(0.0141934 -0.0458523 0)
(0.0148903 -0.0483224 0)
(0.0161678 -0.0506064 0)
(0.0178213 -0.0534584 0)
(0.0208701 -0.0563389 0)
(0.0265869 -0.0623348 0)
(0.0310708 -0.0718901 0)
(0.03077 -0.0821489 0)
(0.0268012 -0.0919175 0)
(0.0185165 -0.104326 0)
(0.00674084 -0.112647 0)
(0.00674084 -0.112647 0)
)
;
    }
    procBoundary2to3
    {
        type            processor;
        value           nonuniform List<vector> 
25
(
(-0.0818323 -0.106781 0)
(-0.0778802 -0.103706 0)
(-0.0725154 -0.0927169 0)
(-0.0761311 -0.0856013 0)
(-0.0708087 -0.0797955 0)
(-0.0714148 -0.0710954 0)
(-0.0671665 -0.0678517 0)
(-0.0669079 -0.0618033 0)
(-0.0656514 -0.0549596 0)
(-0.0635814 -0.050677 0)
(-0.0625782 -0.0436017 0)
(-0.0607553 -0.0383623 0)
(-0.0589656 -0.032347 0)
(-0.0568439 -0.026914 0)
(-0.0544697 -0.0215227 0)
(-0.0517746 -0.0163845 0)
(-0.0487619 -0.0114487 0)
(-0.0454067 -0.00673817 0)
(-0.041713 -0.00227475 0)
(-0.0376341 0.00191392 0)
(-0.0331496 0.00584691 0)
(-0.0282916 0.00957906 0)
(-0.0234915 0.0125641 0)
(-0.0206998 0.0135509 0)
(-0.0200238 0.0113113 0)
)
;
    }
}


// ************************************************************************* //
