/*--------------------------------*- C++ -*----------------------------------*\
| =========                 |                                                 |
| \\      /  F ield         | OpenFOAM: The Open Source CFD Toolbox           |
|  \\    /   O peration     | Version:  2.4.0                                 |
|   \\  /    A nd           | Web:      www.OpenFOAM.org                      |
|    \\/     M anipulation  |                                                 |
\*---------------------------------------------------------------------------*/
FoamFile
{
    version     2.0;
    format      ascii;
    class       volScalarField;
    location    "1";
    object      alpha.water;
}
// * * * * * * * * * * * * * * * * * * * * * * * * * * * * * * * * * * * * * //

dimensions      [0 0 0 0 0 0 0];

internalField   nonuniform List<scalar> 
559
(
5.03385e-10
1.65643e-09
7.94984e-09
8.09395e-06
0.0122643
0.502863
0.742126
0.311481
0.152721
0.255709
0.327966
0.361922
0.35378
0.269459
0.127139
0.033459
0.00845311
0.00383052
0.00109235
0.000933016
0.000932873
0.000973485
0.000477069
0.000306401
9.73873e-05
6.92462e-05
9.58904e-05
0.33644
0.29354
0.355597
0.483365
0.602999
0.755294
0.77184
0.658937
0.356892
0.153182
0.0515508
0.0187452
0.0104357
0.00670944
0.00369501
0.000765646
0.00018314
0.000111807
0.000164752
0.0757592
0.0561394
0.0481313
0.0492501
0.137881
0.614133
0.771873
0.771773
0.485336
0.145173
0.0362013
0.0152766
0.0104797
0.007367
0.00320969
0.000769281
0.00025877
0.000123378
0.000204199
0.0383546
0.0239358
0.00916247
0.00908998
0.0111401
0.123142
0.522671
0.738534
0.642944
0.331171
0.153425
0.064094
0.0313838
0.018387
0.00404352
0.00090882
0.000254265
0.000123327
0.000365051
0.0676997
0.0227746
0.0099808
0.0100616
0.0123401
0.141274
0.583848
0.739568
0.739437
0.566561
0.279996
0.140438
0.101956
0.0950359
0.0305021
0.00162962
0.000326814
0.00430649
0.0241855
0.0776538
0.0369792
0.00931495
0.00821765
0.0169908
0.139193
0.505214
0.736067
0.752543
0.666902
0.367739
0.165729
0.135549
0.143431
0.154656
0.0732399
0.0504186
0.16263
0.271996
0.0833459
0.0327389
0.0100722
0.00969723
0.0233931
0.22833
0.611765
0.741746
0.757016
0.732923
0.431171
0.162548
0.137937
0.143752
0.237947
0.367947
0.41493
0.46924
0.469241
0.0869357
0.0365029
0.026689
0.00965984
0.0297163
0.235762
0.580803
0.737694
0.76421
0.763008
0.58427
0.230607
0.137953
0.154226
0.232057
0.41495
0.46923
0.469241
0.469229
0.134141
0.114325
0.144602
0.181023
0.199979
0.179543
0.0491592
7.9142e-05
0.140404
0.147527
0.152165
0.14973
0.106141
0.103465
0.0916974
0.0797822
0.144961
0.135011
0.12133
0.110081
0.182564
0.18246
0.181944
0.181618
0.204883
0.207224
0.213522
0.22251
0.193328
0.201146
0.209123
0.214925
0.0756302
0.090199
0.101622
0.108298
0.000488249
0.00150485
0.00295208
0.00442288
1.50846e-07
2.42595e-07
5.94216e-07
8.36648e-07
6.67021e-08
4.76529e-08
4.67771e-08
3.89071e-08
1.4344e-07
1.53567e-07
1.38994e-07
7.56956e-08
2.27847e-07
2.39612e-07
3.64902e-07
3.64512e-07
1.84702e-07
1.8869e-07
2.46279e-07
3.27389e-07
3.33045e-07
3.54877e-07
1.28796e-07
3.17494e-08
7.45176e-07
5.29123e-07
2.12599e-07
3.279e-08
8.77343e-07
3.72839e-07
1.48331e-07
1.69569e-08
4.61767e-08
3.62157e-08
7.32215e-09
1.975e-09
0.0884665
0.0366599
0.0257057
0.0150812
0.0894407
0.364779
0.656649
0.752853
0.764241
0.764247
0.714498
0.440599
0.215973
0.161705
0.167308
0.285758
0.370158
0.441259
0.469122
0.0635632
0.0443697
0.0414276
0.0659311
0.240902
0.498861
0.670591
0.720889
0.742614
0.74652
0.746456
0.640411
0.391374
0.188533
0.156704
0.156769
0.235609
0.314962
0.354029
0.0984702
0.0885277
0.123167
0.240613
0.402588
0.523213
0.559602
0.572276
0.613818
0.704261
0.737017
0.710878
0.552834
0.294414
0.158675
0.161896
0.204584
0.23576
0.239367
0.1867
0.203125
0.266228
0.333946
0.361781
0.364268
0.354073
0.347697
0.369849
0.469782
0.617384
0.679428
0.565259
0.359148
0.203419
0.211804
0.210579
0.209681
0.204231
0.240625
0.262012
0.274748
0.276919
0.274865
0.270484
0.269308
0.272665
0.289977
0.339221
0.431269
0.533053
0.510272
0.325787
0.246104
0.213983
0.179765
0.102467
0.0587344
0.222181
0.226796
0.227079
0.225861
0.225463
0.228643
0.233272
0.23817
0.244845
0.263618
0.300682
0.347747
0.364964
0.278919
0.212243
0.112996
0.027703
0.00130524
0.000222516
0.118421
0.12929
0.130857
0.127776
0.110019
0.103246
0.101439
0.104085
0.107363
0.124799
0.155702
0.185116
0.187
0.138469
0.0516128
0.00249179
5.38103e-06
7.36458e-08
1.3917e-08
0.00649301
0.0082923
0.0086945
0.00839555
0.00550358
0.00375887
0.0030292
0.00322152
0.00345317
0.00510242
0.00971027
0.0145226
0.0100011
0.000779902
6.68766e-06
2.96649e-08
3.56488e-09
2.41732e-09
1.65028e-09
9.32402e-07
9.56846e-07
8.85561e-07
4.5738e-07
1.45975e-07
6.87139e-08
8.6631e-08
1.81015e-07
4.20798e-07
4.10303e-07
1.52841e-07
2.82802e-08
1.50352e-08
1.45066e-08
1.44213e-08
1.63842e-08
5.54693e-09
2.1949e-09
1.16886e-09
3.29825e-08
2.61477e-08
3.00865e-08
5.14379e-08
5.75748e-08
2.60129e-08
8.63292e-09
8.58115e-09
1.77755e-08
2.20923e-08
1.29358e-08
1.33702e-08
1.76674e-08
1.84091e-08
1.69336e-08
1.77604e-08
1.52104e-08
4.7548e-09
1.1806e-09
4.96338e-08
2.55724e-08
2.55617e-08
2.5495e-08
2.85415e-08
3.12588e-08
1.54812e-08
6.68199e-09
6.68138e-09
6.68156e-09
6.79623e-09
1.9713e-08
3.58712e-08
3.74604e-08
2.46304e-08
1.95141e-08
1.39849e-08
5.39559e-09
1.0791e-09
2.81697e-07
9.96131e-08
5.21554e-08
3.56495e-08
1.86972e-08
1.97868e-08
3.23097e-08
2.25731e-08
9.49525e-09
6.79631e-09
1.11569e-08
2.91968e-08
6.82237e-08
7.19759e-08
3.33005e-08
1.34481e-08
7.91073e-09
4.06957e-09
9.51334e-10
3.49758e-07
2.39892e-07
6.16843e-08
4.70064e-08
2.45966e-08
9.3401e-09
2.59095e-08
6.53958e-08
6.36974e-08
3.31126e-08
4.43771e-08
3.73051e-08
7.58232e-08
7.58383e-08
4.57562e-08
1.63265e-08
6.91387e-09
2.00617e-09
8.5831e-10
1.35528e-07
1.43105e-07
4.14637e-08
1.07491e-08
2.22296e-08
1.37867e-08
4.22495e-09
3.82141e-09
3.70135e-08
6.992e-08
7.10064e-08
5.12819e-08
4.43859e-08
6.77749e-08
3.51575e-08
1.60941e-08
6.14783e-09
1.52593e-09
7.4337e-10
9.2303e-09
8.03564e-09
7.85561e-09
4.41816e-09
8.02605e-09
8.05075e-09
4.18404e-09
2.67421e-09
3.92278e-09
1.52719e-08
2.25118e-08
1.81306e-08
9.82885e-09
1.18694e-08
1.79094e-08
9.14328e-09
4.12901e-09
1.46581e-09
7.1677e-10
1.23352e-09
1.10712e-09
2.90509e-09
3.62246e-09
3.75935e-09
4.16367e-09
3.74246e-09
2.29269e-09
3.12432e-09
9.54342e-09
1.28596e-08
1.0795e-08
5.97983e-09
5.78813e-09
4.53873e-09
4.84312e-09
3.01515e-09
1.21005e-09
7.23241e-10
7.53126e-10
1.34246e-09
2.96809e-09
3.74517e-09
4.14687e-09
3.95523e-09
2.98882e-09
1.81007e-09
1.7654e-09
3.64697e-09
7.23966e-09
7.45138e-09
5.46231e-09
3.82178e-09
2.8832e-09
1.84877e-09
9.02044e-10
9.78874e-10
7.22132e-10
)
;

boundaryField
{
    leftWall
    {
        type            zeroGradient;
    }
    rightWall
    {
        type            zeroGradient;
    }
    lowerWall
    {
        type            zeroGradient;
    }
    atmosphere
    {
        type            inletOutlet;
        inletValue      nonuniform 0();
        value           nonuniform 0();
    }
    defaultFaces
    {
        type            empty;
    }
    procBoundary1to0
    {
        type            processor;
        value           nonuniform List<scalar> 
26
(
6.60757e-10
1.75302e-09
1.3381e-08
2.84612e-05
0.0171463
0.445873
0.87892
0.638585
0.398433
0.285738
0.148489
0.167254
0.186802
0.152915
0.0195906
3.28582e-06
1.386e-07
1.386e-07
1.23981e-07
1.43774e-07
1.16643e-07
2.76585e-08
1.60415e-07
5.90576e-07
1.06508e-06
3.25705e-07
)
;
    }
    procBoundary1to3
    {
        type            processor;
        value           nonuniform List<scalar> 
23
(
1.64676e-09
4.27103e-10
3.43937e-10
3.72882e-10
9.14959e-10
2.11125e-09
3.50049e-09
4.21865e-09
4.21579e-09
3.311e-09
2.07889e-09
1.18054e-09
7.78508e-10
8.59359e-10
1.69467e-09
2.03889e-09
2.00919e-09
1.45585e-09
8.26147e-10
5.4485e-10
6.43857e-10
8.99382e-10
7.17098e-10
)
;
    }
}


// ************************************************************************* //
