/*--------------------------------*- C++ -*----------------------------------*\
| =========                 |                                                 |
| \\      /  F ield         | OpenFOAM: The Open Source CFD Toolbox           |
|  \\    /   O peration     | Version:  2.4.0                                 |
|   \\  /    A nd           | Web:      www.OpenFOAM.org                      |
|    \\/     M anipulation  |                                                 |
\*---------------------------------------------------------------------------*/
FoamFile
{
    version     2.0;
    format      ascii;
    class       volScalarField;
    location    "1";
    object      alpha.oil;
}
// * * * * * * * * * * * * * * * * * * * * * * * * * * * * * * * * * * * * * //

dimensions      [0 0 0 0 0 0 0];

internalField   nonuniform List<scalar> 
559
(
7.11807e-06
1.04396e-05
1.17386e-05
1.17904e-05
2.47365e-05
0.0173572
0.248092
0.682193
0.0893619
0.154058
0.107142
0.0727116
0.0512637
0.0331298
0.0317123
0.0316694
0.0315181
0.0314654
0.0313452
0.031319
0.0312123
0.0310874
0.0315031
0.0316582
0.0318202
0.0318675
0.031722
0.518514
0.6411
0.611448
0.511159
0.396603
0.241024
0.189599
0.188726
0.177583
0.15782
0.112462
0.0532485
0.0311467
0.0301329
0.0303385
0.0311967
0.0317306
0.0316875
0.0316231
0.650992
0.933535
0.950433
0.950667
0.862064
0.385811
0.226123
0.164188
0.138542
0.0982808
0.0596758
0.0352108
0.0312326
0.0372762
0.0306945
0.0311428
0.0315515
0.0316477
0.0315823
0.63218
0.763053
0.934558
0.986511
0.987617
0.876735
0.476967
0.243223
0.227858
0.379831
0.450074
0.40903
0.321857
0.201851
0.0570443
0.0341092
0.031817
0.0341416
0.0314007
0.872099
0.764363
0.989719
0.989731
0.987574
0.858649
0.416063
0.257956
0.243041
0.409487
0.715261
0.847689
0.863752
0.683529
0.228813
0.0374193
0.0318745
0.0429796
0.0893773
0.91909
0.941636
0.983368
0.988606
0.982189
0.860719
0.494726
0.263741
0.246224
0.329653
0.631238
0.834079
0.863571
0.847272
0.628315
0.191992
0.106547
0.198697
0.39334
0.913888
0.9586
0.975515
0.988616
0.976502
0.771597
0.388168
0.258188
0.242884
0.264908
0.566664
0.837116
0.861157
0.854552
0.749522
0.542663
0.449334
0.484062
0.52744
0.910266
0.957781
0.952778
0.986632
0.969976
0.764179
0.419123
0.262217
0.23572
0.236667
0.414116
0.769069
0.861111
0.844206
0.764389
0.583812
0.530581
0.53063
0.530641
0.858236
0.884455
0.85519
0.818758
0.799825
0.809745
0.624956
0.00517567
0.840082
0.828825
0.827294
0.833559
0.893729
0.896418
0.908195
0.920112
0.85483
0.86479
0.878483
0.889677
0.817207
0.817304
0.817775
0.817259
0.794909
0.79256
0.786218
0.777122
0.801146
0.794849
0.78846
0.783331
0.735271
0.780764
0.79499
0.795151
0.0326383
0.126472
0.254663
0.298391
7.19418e-07
3.13999e-06
3.46158e-05
0.000137334
3.8921e-07
4.17173e-07
3.65962e-07
3.65305e-07
3.84188e-07
3.84294e-07
3.9759e-07
5.21282e-07
3.84281e-07
3.84188e-07
4.10319e-07
1.61773e-06
5.39571e-07
4.06329e-07
5.36456e-07
1.01551e-06
5.09952e-07
4.375e-07
5.75777e-07
1.32302e-06
3.01997e-07
2.58724e-07
4.79508e-07
1.21251e-06
2.37525e-07
2.37755e-07
5.25473e-07
1.13767e-06
2.50821e-07
3.37446e-07
1.27987e-06
2.93921e-06
0.909058
0.9566
0.952854
0.983189
0.910373
0.635092
0.343019
0.245633
0.232881
0.234859
0.28497
0.55899
0.783009
0.836139
0.829265
0.713557
0.629674
0.558617
0.530743
0.933526
0.941556
0.937128
0.93333
0.758756
0.500429
0.321798
0.254659
0.23294
0.232833
0.250232
0.358884
0.607796
0.809783
0.841363
0.841514
0.764185
0.684914
0.645831
0.897234
0.895993
0.860829
0.757905
0.596246
0.473054
0.432882
0.422958
0.384462
0.290055
0.25021
0.286661
0.446066
0.705098
0.840629
0.837587
0.795265
0.764135
0.760498
0.807581
0.787178
0.728833
0.664221
0.637664
0.635308
0.645733
0.652132
0.629801
0.525861
0.365734
0.305794
0.432997
0.640543
0.79644
0.788085
0.78852
0.788374
0.788228
0.758948
0.737759
0.725035
0.722834
0.724992
0.729396
0.73058
0.727226
0.709725
0.65681
0.55226
0.450846
0.488671
0.673995
0.753777
0.782655
0.788374
0.788228
0.788082
0.776705
0.772551
0.772292
0.77336
0.772391
0.767643
0.761893
0.757163
0.749641
0.729667
0.691262
0.648273
0.633957
0.720305
0.776926
0.777201
0.547437
0.315976
0.230637
0.795038
0.795201
0.795055
0.795186
0.787351
0.767603
0.752318
0.749727
0.739655
0.744178
0.758504
0.761505
0.761579
0.730879
0.555042
0.135137
0.000626078
1.76782e-05
1.88314e-06
0.30192
0.331327
0.337397
0.317853
0.209837
0.147872
0.121017
0.121675
0.117999
0.135916
0.197613
0.28124
0.265814
0.051044
3.26861e-05
1.591e-06
6.55513e-07
8.43928e-07
1.02232e-06
0.000329189
0.000483721
0.000482536
0.000307506
2.2258e-05
1.69531e-06
1.48021e-06
7.13759e-07
9.92672e-07
9.91724e-07
9.78278e-07
9.21215e-07
9.95979e-07
7.31799e-07
4.87625e-07
7.43203e-07
6.50258e-07
6.84047e-07
1.06809e-06
3.27172e-07
3.18182e-07
3.39168e-07
6.35006e-07
8.31518e-07
4.80976e-07
3.72856e-07
4.11202e-07
9.88821e-07
9.59749e-07
7.88042e-07
7.9149e-07
8.48508e-07
6.84321e-07
4.9035e-07
3.78307e-07
4.32596e-07
8.70476e-07
2.2812e-06
4.27884e-07
4.14825e-07
2.71725e-07
2.67412e-07
2.67839e-07
3.10664e-07
4.09532e-07
5.22435e-07
8.12039e-07
1.34063e-06
1.52482e-06
1.32368e-06
1.17012e-06
8.13819e-07
5.82441e-07
3.72408e-07
3.51539e-07
1.03952e-06
6.56599e-06
4.77703e-06
4.53897e-06
9.49439e-07
6.18478e-07
5.18748e-07
3.29117e-07
4.56757e-07
1.17981e-06
1.66831e-06
1.93714e-06
2.09074e-06
2.08997e-06
2.09063e-06
1.93389e-06
1.30948e-06
6.12691e-07
2.82052e-07
9.8592e-07
6.56599e-06
1.48478e-05
1.85309e-05
5.31544e-06
3.0513e-06
2.37086e-06
6.84189e-07
2.76928e-07
3.63331e-07
6.81954e-07
9.28901e-07
1.02158e-06
1.72637e-06
2.08994e-06
2.09027e-06
2.08766e-06
9.51897e-07
2.83146e-07
1.30363e-06
6.56599e-06
1.86109e-05
1.8631e-05
1.12422e-05
6.88384e-06
6.7319e-06
2.47723e-06
4.1148e-07
1.50895e-07
1.27499e-07
2.49588e-07
6.08386e-07
8.03637e-07
1.90936e-06
2.08994e-06
1.93326e-06
6.64084e-07
2.75829e-07
2.86065e-06
6.56599e-06
1.80601e-05
1.35183e-05
2.94686e-06
7.14899e-06
7.20674e-06
4.95094e-06
7.81449e-07
2.79796e-07
1.10575e-07
1.24065e-07
2.5426e-07
4.58121e-07
7.09856e-07
1.71803e-06
1.26749e-06
2.84425e-07
2.40081e-07
3.48746e-06
2.82191e-06
1.11356e-05
3.45154e-06
7.77048e-07
2.71064e-06
7.20697e-06
2.75745e-06
8.87221e-07
2.59024e-07
1.11055e-07
1.01311e-07
1.74923e-07
2.42277e-07
2.73452e-07
6.31831e-07
2.98507e-07
1.1558e-07
1.68511e-07
3.35814e-06
1.22913e-06
2.03595e-06
5.21327e-07
5.09394e-07
9.92163e-07
1.69579e-06
1.19108e-06
4.31482e-07
1.54942e-07
9.50693e-08
8.44736e-08
1.32826e-07
1.72883e-07
1.37947e-07
8.12004e-08
6.71201e-08
4.52539e-08
1.219e-07
1.60656e-06
1.0783e-06
)
;

boundaryField
{
    leftWall
    {
        type            zeroGradient;
    }
    rightWall
    {
        type            zeroGradient;
    }
    lowerWall
    {
        type            zeroGradient;
    }
    atmosphere
    {
        type            inletOutlet;
        inletValue      nonuniform 0();
        value           nonuniform 0();
    }
    defaultFaces
    {
        type            empty;
    }
    procBoundary1to0
    {
        type            processor;
        value           nonuniform List<scalar> 
26
(
5.69605e-06
6.40784e-06
5.02366e-06
6.52522e-06
2.14251e-05
0.00728527
0.117158
0.360057
0.596481
0.712174
0.850415
0.832547
0.813026
0.831828
0.396327
0.000174652
7.04424e-07
7.04424e-07
3.90784e-07
4.19327e-07
6.94705e-07
1.08861e-06
8.02567e-07
8.31115e-07
3.21323e-06
1.097e-05
)
;
    }
    procBoundary1to3
    {
        type            processor;
        value           nonuniform List<scalar> 
23
(
1.42742e-07
1.46663e-07
2.73038e-07
2.6939e-07
1.65993e-07
1.67631e-07
3.85095e-07
4.28072e-07
5.75917e-07
4.8195e-07
2.55385e-07
1.16395e-07
6.96574e-08
5.07508e-08
5.25365e-08
3.70672e-08
2.50185e-08
1.72735e-08
1.86162e-08
3.82823e-08
1.35679e-07
4.93987e-07
1.17368e-06
)
;
    }
}


// ************************************************************************* //
