/*--------------------------------*- C++ -*----------------------------------*\
| =========                 |                                                 |
| \\      /  F ield         | OpenFOAM: The Open Source CFD Toolbox           |
|  \\    /   O peration     | Version:  2.4.0                                 |
|   \\  /    A nd           | Web:      www.OpenFOAM.org                      |
|    \\/     M anipulation  |                                                 |
\*---------------------------------------------------------------------------*/
FoamFile
{
    version     2.0;
    format      ascii;
    class       volScalarField;
    location    "1";
    object      alpha.mercury;
}
// * * * * * * * * * * * * * * * * * * * * * * * * * * * * * * * * * * * * * //

dimensions      [0 0 0 0 0 0 0];

internalField   nonuniform List<scalar> 
559
(
0.999993
0.999989
0.999988
0.99998
0.987708
0.479124
0.00693881
0.00389554
0.755855
0.586434
0.563775
0.564771
0.594546
0.697312
0.841115
0.934841
0.960004
0.964691
0.967551
0.967737
0.967844
0.9679
0.968006
0.968032
0.968032
0.968054
0.968173
0.0224022
0.0054192
0.00153941
0.000303384
0.000280169
0.00364894
0.0385284
0.152302
0.46517
0.688064
0.83566
0.927864
0.958296
0.962926
0.965883
0.968032
0.968055
0.968178
0.968204
0.00210322
0.000472525
5.82515e-05
2.23643e-05
2.23389e-05
2.28551e-05
0.0019708
0.0639999
0.375791
0.755167
0.903196
0.949441
0.958217
0.955337
0.966076
0.968077
0.968179
0.968206
0.968205
0.00217825
0.000408838
5.36409e-05
2.81431e-05
3.72939e-05
3.1769e-05
0.000324845
0.0179199
0.126984
0.285952
0.393456
0.524873
0.646473
0.77957
0.938842
0.964967
0.96792
0.965726
0.968221
0.00270667
0.000423186
6.77537e-05
6.62367e-05
5.50879e-05
4.5396e-05
5.81206e-05
0.00237386
0.0161947
0.0209061
0.00192785
0.0116825
0.0338764
0.219972
0.739214
0.960903
0.96779
0.952691
0.886214
0.00200206
0.000271251
4.32631e-05
4.28543e-05
4.40469e-05
3.39618e-05
3.39689e-05
0.000149739
0.000751192
0.000399485
3.98422e-05
7.70864e-05
0.000765259
0.00830274
0.213798
0.733168
0.842706
0.638242
0.334121
0.00193013
0.000189937
5.55697e-05
5.15926e-05
3.23973e-05
4.10561e-05
4.16903e-05
3.93507e-05
3.92296e-05
3.46163e-05
3.46171e-05
0.000126257
0.000764564
0.00095041
0.00930162
0.0861597
0.133201
0.0461155
0.00301099
0.00196661
0.000117
0.000101048
3.34168e-05
3.23793e-05
3.35278e-05
4.83315e-05
6.32762e-05
4.37021e-05
3.71474e-05
4.89544e-05
0.000163562
0.000778495
0.000643526
0.000485912
0.000333952
0.000137703
7.81514e-05
7.83603e-05
0.00412963
7.17826e-05
0.000147148
0.00015769
0.000134691
6.43773e-05
1.88018e-05
2.37756e-07
0.0194538
0.0235872
0.0204796
0.01665
6.94568e-05
5.65143e-05
4.70024e-05
4.52591e-05
0.00014803
0.000138022
0.000126082
0.000117058
0.000168444
0.000174201
0.000180922
0.00018807
0.000147119
0.00015519
0.000166477
0.000175913
7.36779e-05
7.82389e-05
8.18565e-05
8.4193e-05
2.61609e-05
2.9912e-05
3.214e-05
3.27295e-05
1.04816e-06
2.3102e-06
3.27058e-06
3.80372e-06
2.82137e-09
4.58762e-09
7.93288e-09
1.15257e-08
1.68218e-10
1.51341e-10
1.44177e-10
1.44353e-10
9.48667e-11
9.28033e-11
8.64297e-11
7.77484e-11
1.57175e-10
1.42217e-10
1.36358e-10
1.14855e-10
2.45177e-10
2.1162e-10
1.68322e-10
1.35144e-10
2.7268e-10
2.31079e-10
1.90702e-10
1.48969e-10
1.69261e-10
1.43943e-10
1.30323e-10
9.96053e-11
1.08683e-10
8.91001e-11
7.13136e-11
4.75933e-11
4.47366e-11
4.13953e-11
2.7697e-11
2.00808e-11
0.00166118
4.55451e-05
5.08736e-05
3.46121e-05
4.05869e-05
0.000103783
0.000237421
0.000322385
0.000226561
0.000133965
0.000240954
0.000293755
0.000779474
0.000479648
0.000353905
0.000261866
0.000117434
7.30361e-05
8.36573e-05
4.52617e-05
4.55982e-05
4.8927e-05
7.30684e-05
0.000190724
0.000370832
0.000497994
0.000558804
0.00056006
0.000355396
0.000496407
0.000585231
0.00070943
0.000301594
0.000244943
0.000265425
0.000154401
7.27668e-05
8.91548e-05
0.000109561
0.0001044
0.000156452
0.000250741
0.000359196
0.000424158
0.000421628
0.00040605
0.000501558
0.000505179
0.000496231
0.000585025
0.000459525
0.000189159
0.000148546
0.000200056
9.95218e-05
5.39147e-05
7.74156e-05
0.000202755
0.000225236
0.000253186
0.000253215
0.000250173
0.000199407
0.000156225
0.000138848
0.000159554
0.000367239
0.000548601
0.000544403
0.000223258
0.000120307
6.79199e-05
3.82682e-05
3.39718e-05
4.48855e-05
8.20195e-05
0.000185972
0.000188807
0.000175158
0.000153835
0.000110387
8.78292e-05
7.96316e-05
7.77445e-05
7.80398e-05
8.31136e-05
0.00012486
0.00017323
0.000109702
8.31614e-05
4.67201e-05
2.44938e-05
1.63066e-05
1.77897e-05
2.20758e-05
8.7471e-05
8.91329e-05
7.9901e-05
6.32461e-05
5.56511e-05
5.38217e-05
5.38798e-05
5.34155e-05
5.34071e-05
5.36799e-05
5.24924e-05
5.74141e-05
6.65121e-05
5.16627e-05
3.42202e-05
2.19988e-05
6.84955e-06
1.33552e-06
7.24967e-07
3.38676e-05
3.53543e-05
3.53295e-05
3.12316e-05
2.46622e-05
2.26691e-05
2.23236e-05
2.23779e-05
2.19035e-05
2.31483e-05
2.75037e-05
3.12986e-05
2.85247e-05
2.15608e-05
1.01569e-05
1.33865e-06
1.86252e-08
1.83353e-09
1.54234e-09
4.3336e-06
4.85062e-06
4.89392e-06
4.75388e-06
3.29014e-06
2.56467e-06
2.23233e-06
2.25073e-06
2.12397e-06
2.41768e-06
3.56058e-06
4.92082e-06
4.49543e-06
7.49623e-07
1.91822e-08
1.72256e-09
1.62762e-09
1.51406e-09
1.50525e-09
1.68477e-08
2.28996e-08
2.43664e-08
2.08171e-08
9.15019e-09
5.78664e-09
6.37281e-09
6.88902e-09
8.84808e-09
7.51167e-09
5.70574e-09
4.66014e-09
4.09432e-09
4.00106e-09
4.02485e-09
4.25618e-09
4.00436e-09
2.21632e-09
1.72162e-09
2.09709e-10
4.10141e-10
1.16355e-09
2.84694e-09
3.71198e-09
3.12362e-09
2.66554e-09
3.35296e-09
4.63764e-09
4.98127e-09
4.90976e-09
4.75709e-09
5.14278e-09
6.06468e-09
7.10367e-09
7.09712e-09
6.5901e-09
3.58669e-09
1.84293e-09
7.32119e-11
7.27959e-11
1.66768e-10
4.48277e-10
1.41294e-09
2.15441e-09
2.59022e-09
2.69403e-09
3.16741e-09
4.71709e-09
5.63898e-09
5.60178e-09
5.525e-09
5.58655e-09
5.70872e-09
6.03061e-09
5.93341e-09
4.15341e-09
1.92888e-09
9.15428e-11
7.17918e-11
6.31686e-11
7.21776e-11
2.80483e-10
8.71959e-10
2.83646e-09
3.59341e-09
3.95625e-09
4.1656e-09
4.04942e-09
4.05417e-09
4.13762e-09
3.74866e-09
3.33071e-09
3.37208e-09
4.03601e-09
3.77855e-09
1.93606e-09
9.69682e-11
6.57182e-11
5.37355e-11
5.66983e-11
5.44932e-11
9.36502e-11
8.03062e-10
2.71486e-09
3.69968e-09
3.61043e-09
4.19055e-09
4.97675e-09
6.18083e-09
5.08869e-09
3.32882e-09
3.16894e-09
3.31749e-09
2.71754e-09
1.90053e-09
9.71668e-11
4.45439e-11
3.47795e-11
4.38327e-11
5.03039e-11
4.91291e-11
4.7094e-11
1.5378e-10
2.53837e-09
5.30563e-09
7.33401e-09
7.34338e-09
6.96222e-09
5.85841e-09
3.66917e-09
3.16864e-09
3.02194e-09
2.47858e-09
1.81726e-09
6.25634e-11
2.74479e-11
2.72553e-11
3.32155e-11
4.05176e-11
4.24426e-11
3.98634e-11
6.50302e-11
6.12889e-10
3.95218e-09
6.56535e-09
6.80746e-09
5.31472e-09
3.83439e-09
3.52804e-09
2.98559e-09
2.69097e-09
2.48402e-09
1.81503e-09
2.63883e-11
1.90474e-11
2.11754e-11
2.67111e-11
3.2837e-11
3.53513e-11
3.34282e-11
3.59469e-11
3.65821e-10
2.18814e-09
4.39917e-09
4.09893e-09
2.75284e-09
2.75552e-09
2.67028e-09
2.51729e-09
2.37201e-09
2.46844e-09
1.91653e-09
1.26338e-11
1.40312e-11
1.83839e-11
2.39204e-11
2.82407e-11
2.88289e-11
2.62495e-11
2.65851e-11
1.32969e-10
7.6573e-10
1.80506e-09
2.04241e-09
1.9815e-09
1.83868e-09
1.76324e-09
1.69233e-09
2.01284e-09
2.56568e-09
2.01526e-09
)
;

boundaryField
{
    leftWall
    {
        type            zeroGradient;
    }
    rightWall
    {
        type            zeroGradient;
    }
    lowerWall
    {
        type            zeroGradient;
    }
    atmosphere
    {
        type            inletOutlet;
        inletValue      nonuniform 0();
        value           nonuniform 0();
    }
    defaultFaces
    {
        type            empty;
    }
    procBoundary1to0
    {
        type            processor;
        value           nonuniform List<scalar> 
26
(
0.999994
0.999993
0.999995
0.999965
0.982819
0.545946
0.00214833
0.000894096
0.000733619
8.66509e-05
0.00013834
0.00013702
0.000110572
4.8661e-05
9.78386e-06
1.36523e-08
1.46023e-09
1.46023e-09
2.09926e-10
1.01751e-10
1.50289e-10
2.41926e-10
3.43369e-10
2.62156e-10
1.51225e-10
6.46446e-11
)
;
    }
    procBoundary1to3
    {
        type            processor;
        value           nonuniform List<scalar> 
23
(
1.1229e-11
9.41507e-12
8.1503e-12
7.46006e-12
8.39694e-12
1.19002e-11
1.71285e-11
2.17683e-11
2.30953e-11
2.0911e-11
1.77112e-11
1.57164e-11
1.94007e-11
9.55767e-11
3.81477e-10
5.55943e-10
7.37644e-10
7.35608e-10
8.5832e-10
1.28999e-09
2.04592e-09
2.99823e-09
2.13637e-09
)
;
    }
}


// ************************************************************************* //
