/*--------------------------------*- C++ -*----------------------------------*\
| =========                 |                                                 |
| \\      /  F ield         | OpenFOAM: The Open Source CFD Toolbox           |
|  \\    /   O peration     | Version:  2.4.0                                 |
|   \\  /    A nd           | Web:      www.OpenFOAM.org                      |
|    \\/     M anipulation  |                                                 |
\*---------------------------------------------------------------------------*/
FoamFile
{
    version     2.0;
    format      ascii;
    class       volScalarField;
    location    "1";
    object      alphas;
}
// * * * * * * * * * * * * * * * * * * * * * * * * * * * * * * * * * * * * * //

dimensions      [0 0 0 0 0 0 0];

internalField   nonuniform List<scalar> 
559
(
1.99999
1.99999
1.99999
1.99997
1.97545
0.977571
0.270502
0.697278
1.60726
1.33832
1.23805
1.20404
1.24159
1.42805
1.71404
1.90144
1.9516
1.96089
1.96648
1.96683
1.96694
1.96701
1.96756
1.96774
1.96804
1.96801
1.9681
0.931254
0.831766
0.708776
0.527287
0.397518
0.248423
0.266757
0.493436
1.10899
1.53675
1.78476
1.9094
1.94811
1.95668
1.96236
1.96728
1.96794
1.96812
1.96806
1.46864
0.964044
0.954686
0.950896
0.862209
0.385958
0.230165
0.292306
0.891119
1.61275
1.86885
1.93431
1.94788
1.94801
1.96291
1.96733
1.96795
1.96813
1.96802
1.6184
1.40168
1.10335
0.999684
0.991312
0.877074
0.477728
0.280033
0.488469
0.960874
1.24612
1.46479
1.61567
1.76157
1.93494
1.96409
1.96769
1.96563
1.96789
1.05
1.40253
0.990556
0.990291
0.987779
0.858835
0.416273
0.263011
0.279412
0.460438
0.727567
0.871631
0.932758
1.12787
1.71166
1.95937
1.96748
1.94843
1.86248
0.926861
1.00552
1.00528
0.998097
0.984609
0.860951
0.494873
0.264168
0.249172
0.33959
0.634269
0.834582
0.86545
0.866864
1.06561
1.66313
1.79295
1.47648
1.06322
0.92026
0.984398
1.0187
0.993629
0.976788
0.771777
0.388329
0.258345
0.243143
0.271381
0.573127
0.838002
0.863116
0.858694
0.77782
0.724679
0.723344
0.578046
0.534391
0.916699
0.974817
1.01428
0.997726
0.970869
0.764324
0.419298
0.262422
0.235886
0.237604
0.418911
0.769881
0.863144
0.84827
0.774569
0.587196
0.531013
0.530943
0.530955
0.87698
0.888046
0.85567
0.819259
0.80028
0.84182
1.6026
2.98942
0.879174
0.876184
0.868439
0.867045
0.894052
0.896716
0.908474
0.920388
0.855311
0.865251
0.878921
0.890289
0.817729
0.817838
0.818439
0.820442
0.795389
0.793056
0.786835
0.778052
0.817655
0.80679
0.795632
0.788481
1.30255
1.16785
1.10513
1.08478
2.93326
2.74254
2.48182
2.38995
3
2.99999
2.99993
2.99972
3
3
3
3
3
3
3
3
3
3
3
3
3
3
3
3
3
3
3
3
3
3
3
3
3
3
3
3
3
3
3
3
0.914827
0.976778
1.01713
0.988347
0.910894
0.635378
0.343778
0.249851
0.241287
0.237408
0.286327
0.55993
0.78529
0.84213
0.839196
0.715352
0.630066
0.55892
0.531068
0.942216
0.983735
1.00142
0.935476
0.759592
0.50219
0.344133
0.327456
0.30572
0.294419
0.259674
0.360417
0.60958
0.814538
0.846921
0.846404
0.764651
0.685217
0.646166
0.910015
0.94233
0.908686
0.762102
0.599386
0.483831
0.455009
0.436852
0.389123
0.306604
0.288034
0.293461
0.44891
0.706376
0.842572
0.838943
0.795621
0.7644
0.76083
0.824537
0.816046
0.743401
0.66947
0.639081
0.636383
0.646159
0.652509
0.630695
0.538568
0.415833
0.349587
0.438008
0.641353
0.796797
0.788383
0.791194
0.794168
0.810772
0.760046
0.738262
0.725512
0.723424
0.725312
0.729671
0.730839
0.72748
0.710545
0.668636
0.601551
0.498979
0.491736
0.674569
0.754091
0.792719
0.883944
1.11613
1.24762
0.779965
0.774423
0.774102
0.775637
0.778776
0.778735
0.776347
0.771115
0.766134
0.749764
0.71538
0.660159
0.637129
0.722585
0.80939
1.10659
1.82202
2.36413
2.53806
1.05463
1.0217
1.01729
1.02627
1.09522
1.15504
1.19103
1.18827
1.19858
1.13723
1.01586
0.921614
0.915818
1.12282
1.73507
2.72225
2.99873
2.99997
3
2.37668
2.31247
2.29912
2.33911
2.56381
2.69298
2.74887
2.74699
2.75364
2.71286
2.57564
2.39395
2.43837
2.89557
2.99992
3
3
3
3
2.99934
2.99903
2.99903
2.99939
2.99996
3
3
3
3
3
3
3
3
3
3
3
3
3
3
3
3
3
3
3
3
3
3
3
3
3
3
3
3
3
3
3
3
3
3
3
3
3
3
3
3
3
3
3
3
3
3
3
3
3
3
3
2.99999
2.99999
2.99999
3
3
3
3
3
3
3
3
3
3
3
3
3
3
3
3
2.99999
2.99997
2.99996
2.99999
3
3
3
3
3
3
3
3
3
3
3
3
3
3
3
2.99999
2.99996
2.99996
2.99998
2.99999
2.99999
3
3
3
3
3
3
3
3
3
3
3
3
3
2.99999
2.99997
2.99998
3
2.99999
2.99999
2.99999
3
3
3
3
3
3
3
3
3
3
3
2.99999
3
2.99998
2.99999
3
3
2.99999
3
3
3
3
3
3
3
3
3
3
3
3
2.99999
3
3
3
3
3
3
3
3
3
3
3
3
3
3
3
3
3
3
3
3
)
;

boundaryField
{
    leftWall
    {
        type            zeroGradient;
    }
    rightWall
    {
        type            zeroGradient;
    }
    lowerWall
    {
        type            zeroGradient;
    }
    atmosphere
    {
        type            zeroGradient;
    }
    defaultFaces
    {
        type            empty;
    }
    procBoundary1to0
    {
        type            processor;
        value           nonuniform List<scalar> 
26
(
1.99999
1.99999
1.99999
1.99994
1.9657
1.10186
0.126775
0.363239
0.611008
0.718353
0.853566
0.833011
0.813433
0.877552
2.14857
2.99965
3
3
3
3
3
3
3
3
2.99999
2.99998
)
;
    }
    procBoundary1to3
    {
        type            processor;
        value           nonuniform List<scalar> 
23
(
3
3
3
3
3
3
3
3
3
3
3
3
3
3
3
3
3
3
3
3
3
3
3
)
;
    }
}


// ************************************************************************* //
