/*--------------------------------*- C++ -*----------------------------------*\
| =========                 |                                                 |
| \\      /  F ield         | OpenFOAM: The Open Source CFD Toolbox           |
|  \\    /   O peration     | Version:  2.4.0                                 |
|   \\  /    A nd           | Web:      www.OpenFOAM.org                      |
|    \\/     M anipulation  |                                                 |
\*---------------------------------------------------------------------------*/
FoamFile
{
    version     2.0;
    format      ascii;
    class       volScalarField;
    location    "1";
    object      alpha.air;
}
// * * * * * * * * * * * * * * * * * * * * * * * * * * * * * * * * * * * * * //

dimensions      [0 0 0 0 0 0 0];

internalField   nonuniform List<scalar> 
559
(
2.67545e-13
1.88101e-12
1.2488e-11
1.35641e-08
3.04638e-06
0.000655107
0.0028444
0.00243131
0.00206296
0.00379935
0.00111755
0.000595424
0.000410789
9.95442e-05
3.3693e-05
3.10279e-05
2.55354e-05
1.352e-05
1.18524e-05
1.18524e-05
1.18524e-05
3.95067e-05
1.42128e-05
4.71696e-06
5.20115e-05
1.01847e-05
1.01847e-05
0.122645
0.0599425
0.0314163
0.00517382
0.000118404
3.36986e-05
3.36979e-05
3.55134e-05
0.000355652
0.000933643
0.000327238
0.0001426
0.00012237
0.000232126
8.40411e-05
6.99908e-06
3.26151e-05
2.39309e-05
1.01847e-05
0.271148
0.00985485
0.00137904
6.14834e-05
3.37044e-05
3.3701e-05
3.37035e-05
3.92449e-05
0.000331543
0.00137975
0.000928342
7.29678e-05
7.22729e-05
2.11765e-05
2.09975e-05
1.15779e-05
1.21861e-05
2.40865e-05
1.01896e-05
0.327289
0.212604
0.0562276
0.00437247
0.00120696
9.18095e-05
3.70425e-05
0.000323301
0.00221436
0.00304614
0.00304619
0.00200527
0.000287701
0.000193847
7.21196e-05
1.57694e-05
1.01882e-05
1.01906e-05
1.45789e-05
0.0574955
0.212441
0.000233585
0.000142591
3.16416e-05
3.15145e-05
3.13886e-05
0.000102596
0.00132731
0.00304622
0.00281708
0.000192463
0.000418044
0.00146439
0.00147265
4.9143e-05
1.01855e-05
2.41163e-05
0.000224878
0.00125544
0.0211145
0.00727515
0.00313494
0.000777288
5.49437e-05
2.63534e-05
4.27393e-05
0.000482088
0.00304617
0.000983963
0.000116128
0.000116181
0.000995502
0.00323228
0.00160167
0.000330425
0.000433048
0.000544276
0.000837478
0.00847299
0.0143585
0.00163649
7.35972e-05
3.28939e-05
2.61183e-05
2.61182e-05
5.99662e-05
0.00213464
0.002131
0.000210874
0.000143422
0.000746968
0.0032316
0.00323228
0.00253602
0.000584307
0.000309768
0.000833179
0.00560078
0.020433
0.00367575
0.00027601
2.6111e-05
2.61109e-05
2.61183e-05
2.61181e-05
0.00028737
0.00156574
0.000161599
0.000158538
0.000925729
0.00306954
0.000905458
5.23683e-05
5.23722e-05
5.23817e-05
0.00349482
0.00114943
6.18256e-05
6.19241e-05
6.20178e-05
0.0106486
0.325868
0.994747
6.14889e-05
6.16126e-05
6.20181e-05
6.20435e-05
6.16109e-05
6.17323e-05
6.18478e-05
6.1947e-05
6.172e-05
6.18355e-05
6.19192e-05
0.000125712
6.18331e-05
6.1901e-05
0.000100501
0.000935935
6.19302e-05
6.19941e-05
9.48162e-05
0.000192484
0.0054537
0.00392799
0.00233594
0.00166046
0.189074
0.129009
0.103358
0.0965198
0.966873
0.872022
0.742383
0.697184
1
0.999997
0.999964
0.999861
0.999999
0.999999
0.999999
1
1
1
1
1
1
1
0.999999
0.999998
1
1
1
0.999999
1
1
1
0.999999
1
1
1
0.999999
1
1
1
0.999999
1
1
0.999999
0.999997
0.000815831
0.00669576
0.0213909
0.00169622
0.000146854
2.61034e-05
9.494e-05
0.00119089
0.00265089
0.000760414
0.000291685
0.000117258
0.000240662
0.00167708
0.00307428
0.000423732
5.23719e-05
5.23814e-05
5.23851e-05
0.00286648
0.0140293
0.0213967
0.00066682
0.000151727
0.000339795
0.00711297
0.0238929
0.0238868
0.0202916
0.00281654
0.000121001
0.000121602
0.00138374
0.00168951
0.0014532
5.23811e-05
5.23847e-05
5.23941e-05
0.00418726
0.0153762
0.0158479
0.00123186
0.000807301
0.00330956
0.00709434
0.00436056
0.00121917
0.00517944
0.0122773
0.00187665
0.000641595
0.000299927
0.000548676
0.000318656
5.24146e-05
5.23941e-05
5.91607e-05
0.00551682
0.00947227
0.00468708
0.00158084
0.000305241
0.00022542
3.77997e-05
3.31223e-05
0.000191467
0.00399096
0.0163339
0.014235
0.00152159
0.000189827
7.37165e-05
7.4054e-05
0.000868904
0.00190128
0.00745987
0.000242209
4.17934e-05
4.21787e-05
9.41129e-05
3.31974e-05
3.31269e-05
3.31251e-05
3.31575e-05
0.000221478
0.00388646
0.0163474
0.015929
0.000948304
0.000135836
7.37266e-05
0.00333812
0.0318456
0.109288
0.153163
0.00102858
0.000564555
0.00054998
0.000716632
0.00209104
0.00366152
0.00478222
0.00461479
0.00546194
0.00666314
0.00800433
0.00392348
0.00101281
0.00072549
0.0107987
0.109783
0.424855
0.682719
0.769141
0.0865087
0.0754749
0.074054
0.0770076
0.102606
0.129129
0.146222
0.146168
0.152962
0.131002
0.0857673
0.0533489
0.0513939
0.130632
0.393336
0.862371
0.999369
0.999983
0.999999
0.691585
0.660378
0.653905
0.673748
0.784657
0.848367
0.875951
0.875103
0.878547
0.858981
0.792674
0.704233
0.724181
0.948176
0.999961
0.999999
1
1
1
0.999669
0.999514
0.999516
0.999693
0.999979
0.999999
1
1
1
1
1
1
1
1
1
1
1
1
1
1
1
1
1
1
1
0.999999
1
1
1
1
1
1
1
1
1
1
1
0.999999
1
1
1
1
1
1
1
1
0.999999
0.999999
1
1
1
1
1
1
1
0.999999
0.999994
0.999995
0.999996
1
1
0.999999
0.999999
1
0.999999
0.999999
0.999999
0.999999
0.999999
0.999999
0.999999
0.999999
1
1
0.999999
0.999994
0.999985
0.999982
0.999995
0.999998
0.999998
0.999999
0.999999
1
1
1
1
0.999999
0.999999
0.999999
0.999999
0.999999
1
0.999999
0.999995
0.999982
0.999982
0.99999
0.999994
0.999994
0.999998
1
0.999999
1
1
1
1
0.999999
0.999999
0.999999
1
1
0.999998
0.999995
0.999983
0.999987
0.999998
0.999994
0.999994
0.999996
1
1
1
1
1
1
1
0.999999
0.999999
1
1
0.999997
0.999998
0.999989
0.999997
1
0.999998
0.999994
0.999998
1
1
1
0.999999
1
0.999999
1
0.999999
0.999999
0.999999
1
0.999997
1
0.999998
1
1
1
0.999999
0.999999
1
0.999999
0.999999
0.999999
0.999999
0.999999
0.999999
0.999999
0.999999
0.999999
1
0.999999
1
)
;

boundaryField
{
    leftWall
    {
        type            alphaContactAngle;
        thetaProperties 
6
(

(
water
mercury
)
 90 0 0 0

(
water
air
)
 90 0 0 0

(
water
oil
)
 90 0 0 0

(
mercury
air
)
 90 0 0 0

(
oil
mercury
)
 90 0 0 0

(
oil
air
)
 90 0 0 0
);
        value           nonuniform 0();
    }
    rightWall
    {
        type            alphaContactAngle;
        thetaProperties 
6
(

(
water
mercury
)
 90 0 0 0

(
water
air
)
 90 0 0 0

(
water
oil
)
 90 0 0 0

(
mercury
air
)
 90 0 0 0

(
oil
mercury
)
 90 0 0 0

(
oil
air
)
 90 0 0 0
);
        value           nonuniform List<scalar> 
25
(
1.01847e-05
1.01847e-05
1.01896e-05
1.45789e-05
0.000224878
0.000544276
0.000309768
5.23817e-05
5.23851e-05
5.23941e-05
5.91607e-05
0.00745987
0.153163
0.769141
0.999999
1
1
0.999999
0.999994
0.999994
0.999995
0.999995
0.999998
1
1
)
;
    }
    lowerWall
    {
        type            alphaContactAngle;
        thetaProperties 
6
(

(
water
mercury
)
 90 0 0 0

(
water
air
)
 90 0 0 0

(
water
oil
)
 90 0 0 0

(
mercury
air
)
 90 0 0 0

(
oil
mercury
)
 90 0 0 0

(
oil
air
)
 90 0 0 0
);
        value           nonuniform List<scalar> 
40
(
2.67545e-13
2.67545e-13
1.88101e-12
1.2488e-11
1.35641e-08
3.04638e-06
0.000655107
0.0028444
0.00243131
6.14889e-05
6.16126e-05
6.20181e-05
6.20435e-05
0.00206296
0.122645
0.271148
0.327289
0.0574955
0.00125544
0.000837478
0.000833179
0.00206296
0.00379935
0.00111755
0.000595424
0.000410789
9.95442e-05
3.3693e-05
3.10279e-05
2.55354e-05
1.352e-05
1.18524e-05
1.18524e-05
1.18524e-05
3.95067e-05
1.42128e-05
4.71696e-06
5.20115e-05
1.01847e-05
1.01847e-05
)
;
    }
    atmosphere
    {
        type            inletOutlet;
        inletValue      nonuniform 0();
        value           nonuniform 0();
    }
    defaultFaces
    {
        type            empty;
    }
    procBoundary1to0
    {
        type            processor;
        value           nonuniform List<scalar> 
26
(
8.92455e-14
3.65571e-12
8.35838e-11
6.54875e-08
1.31326e-05
0.000895307
0.00177352
0.000464441
0.0043531
0.00200174
0.000958238
6.3453e-05
6.21073e-05
0.0152089
0.584074
0.999825
1
1
1
1
1
1
1
0.999999
0.999996
0.999989
)
;
    }
    procBoundary1to3
    {
        type            processor;
        value           nonuniform List<scalar> 
23
(
1
1
1
1
1
1
1
1
1
0.999999
0.999999
0.999999
0.999999
0.999998
0.999998
0.999998
0.999999
0.999999
0.999999
0.999999
1
1
1
)
;
    }
}


// ************************************************************************* //
