/*--------------------------------*- C++ -*----------------------------------*\
| =========                 |                                                 |
| \\      /  F ield         | OpenFOAM: The Open Source CFD Toolbox           |
|  \\    /   O peration     | Version:  2.4.0                                 |
|   \\  /    A nd           | Web:      www.OpenFOAM.org                      |
|    \\/     M anipulation  |                                                 |
\*---------------------------------------------------------------------------*/
FoamFile
{
    version     2.0;
    format      ascii;
    class       volScalarField;
    location    "1";
    object      p;
}
// * * * * * * * * * * * * * * * * * * * * * * * * * * * * * * * * * * * * * //

dimensions      [1 -1 -2 0 0 0 0];

internalField   nonuniform List<scalar> 
559
(
5092.14
4287.75
3443.01
2776.25
1712.29
1121.04
843.085
938.113
1125.62
1114.53
1116.33
1109.5
1143.92
1275.99
1588.59
2366.28
2905.97
3023.79
3085.32
3346.76
3771.97
3994.67
4002.29
4543.63
4841.78
4757.48
4837.75
772.101
726.306
668.176
649.586
655.198
612.66
610.321
638.152
970.032
1232.93
1398.16
1858.78
2431.13
2697.29
2777.68
3356.84
3726.59
3720.66
3791.64
798.211
836.174
896.876
994.324
982.159
1113.1
1232.36
1284.62
1268.25
1387.41
1524.79
1827.21
2250.51
2305.96
2504.56
2882.1
3163.94
3109.73
3085.81
762.471
747.987
721.884
702.646
685.52
654.59
678.989
823.349
743.991
625.03
663.905
708.238
873
1153.7
1539
2031.89
2296.74
2262.94
2248.11
740.237
742.957
783.416
836.122
851.014
897.368
925.489
882.08
759.611
695.601
680.647
649.88
615.027
617.848
912.84
1519.47
1733.27
1533.51
1303.9
697.709
704.887
672.396
674.851
664.808
716.908
717.705
794.437
725.319
674.002
675.976
675.728
668.939
593.611
571.578
808.794
877.273
761.408
645.595
657.072
672.756
692.62
726.56
749.113
759.31
764.213
740.667
686.402
634.923
594.592
577.462
553.893
568.998
538.076
503.354
524.881
570.272
610.628
615.388
625.964
626.199
634.718
656.188
679.806
672.417
685.554
648.124
601.345
581.846
574.463
556.862
532.521
538.211
587.21
587.293
600.03
603.641
640.466
687.419
546.785
451.303
352.86
124.761
10.768
1.84912
666.068
662.444
645.838
622.181
618.968
579.986
543.141
504.763
524.62
506.919
487.162
467.527
419.466
402.558
386.191
370.757
335.524
320.489
301.509
286.232
152.876
165.552
167.783
166.499
17.8401
31.1072
49.7645
54.547
1.70808
1.57459
1.95271
3.42691
3.69029
3.58004
3.46944
3.39412
2.7814
3.11399
3.44676
3.77401
2.24477
2.44513
2.67891
2.9043
1.96407
2.19931
2.46593
2.74955
1.8068
2.0521
2.30115
2.55315
1.89113
2.08625
2.28856
2.48968
2.0639
2.20459
2.35283
2.50153
2.2227
2.31757
2.41768
2.51883
2.34302
2.40767
2.47498
2.54136
563.296
585.828
597.198
627.677
644.026
653.978
651.097
616.707
587.526
543.98
521.283
500.14
477.972
466.932
414.713
379.441
384.674
423.201
449.268
455.349
480.397
503.509
528.934
544.417
545.72
523.404
505.109
485.004
456.925
428.925
412.896
403.541
374.417
328.547
297.198
299.739
331.196
348.525
437.966
430.054
449.414
470.525
473.436
457.903
428.782
401.436
376.398
348.678
325.815
315.474
317.347
293.532
268.192
250.772
244.466
254.986
267.961
354.104
360.1
374.728
384.802
378.242
357.105
330.698
303.37
277.634
251.148
227.427
222.819
235.58
223.818
201.921
177.593
166.855
167.867
172.231
270.367
276.954
284.006
282.235
272.332
254.384
235.947
216.092
195.646
172.677
151.119
149.932
163.866
152.305
132.899
105.958
72.0869
54.8564
50.5611
169.554
179.655
178.083
171.625
160.752
150.313
145.059
132.742
120.555
116.011
119.692
125.635
125.167
97.7615
56.2931
26.81
4.01368
3.73703
5.29968
51.1583
47.7192
49.0433
43.8429
35.7092
31.0307
32.0562
27.5657
23.737
22.7338
25.4101
30.9608
29.9735
18.5918
7.47209
5.05349
4.99251
5.65636
5.5129
5.19016
6.5157
7.21367
6.88149
4.86966
-0.371579
-0.197974
0.395541
0.663156
1.35503
2.06606
3.55085
4.85274
4.49208
4.56191
4.74886
5.3722
5.6564
5.51625
3.35564
3.24512
3.18142
3.23476
3.60083
5.00195
4.5018
4.41902
4.51594
4.26435
3.94431
4.00489
4.30517
4.927
5.37758
5.07122
5.0581
5.05558
5.07151
4.32499
4.93999
5.31001
5.49419
5.51035
5.16927
4.43943
3.88156
3.47503
3.38327
3.60747
3.98118
4.38347
4.70386
4.87788
4.92041
4.98508
5.00515
4.98332
3.26746
3.58903
3.66268
3.61356
3.55073
3.58024
3.64061
3.62101
3.52235
3.32578
3.28311
3.52428
3.9978
4.31678
4.4779
4.57061
4.67342
4.70978
4.71965
3.18893
3.63526
3.90618
4.03675
4.12057
4.18991
4.12575
3.92275
3.64392
3.39046
3.23902
3.391
3.80742
4.05926
4.19509
4.32015
4.44788
4.48507
4.49168
2.94953
3.36612
3.63932
3.77146
3.80613
3.73719
3.60181
3.45574
3.32546
3.22389
3.2183
3.38006
3.67308
3.88977
4.00481
4.10241
4.22219
4.27012
4.27861
2.81115
3.16647
3.39458
3.50641
3.52896
3.51631
3.47607
3.43298
3.38579
3.34489
3.34216
3.42047
3.57884
3.72965
3.82963
3.92559
4.03118
4.07192
4.08162
2.73913
3.00602
3.1772
3.28238
3.33017
3.34148
3.33498
3.31807
3.30083
3.29693
3.31526
3.37312
3.47426
3.58051
3.67093
3.75964
3.84871
3.89019
3.89653
2.68213
2.86984
2.99248
3.07667
3.13866
3.17734
3.19489
3.20157
3.20515
3.21596
3.24104
3.29369
3.36542
3.44433
3.52415
3.59423
3.67176
3.71164
3.71876
2.65101
2.77476
2.86024
2.91888
2.97851
3.0312
3.06307
3.08433
3.10213
3.12374
3.15388
3.19843
3.25474
3.31677
3.37928
3.44209
3.50708
3.54014
3.5465
)
;

boundaryField
{
    leftWall
    {
        type            fixedFluxPressure;
        gradient        nonuniform 0();
        value           nonuniform 0();
    }
    rightWall
    {
        type            fixedFluxPressure;
        gradient        uniform 0;
        value           nonuniform List<scalar> 
25
(
4837.75
3791.64
3085.81
2248.11
1303.9
645.595
610.628
603.641
449.268
348.525
267.961
172.231
50.5611
5.29968
5.5129
5.51625
5.07151
4.98332
4.71965
4.49168
4.27861
4.08162
3.89653
3.71876
3.5465
)
;
    }
    lowerWall
    {
        type            fixedFluxPressure;
        gradient        nonuniform List<scalar> 
40
(
132718
0
0
0
0
0
0
0
0
5381.98
5425.75
5420.48
5391
0
0
0
0
0
0
0
0
30307
17938
18658.6
19790.3
21840.2
29500.8
50025.7
82064
93769.1
94779.2
95799.7
94701.1
94504.2
93837.4
93629.4
93138.3
92627.8
92454.3
92543.6
)
;
        value           nonuniform List<scalar> 
40
(
5490.28
5092.14
4287.75
3443.01
2776.25
1712.29
1121.04
843.085
938.113
700.41
697.066
680.426
656.581
1125.62
772.101
798.211
762.471
740.237
697.709
657.072
615.388
1216.54
1168.35
1172.3
1168.87
1209.44
1364.49
1738.67
2612.47
3187.27
3308.12
3372.71
3630.86
4055.47
4276.18
4283.17
4823.04
5119.66
5034.84
5115.37
)
;
    }
    atmosphere
    {
        type            totalPressure;
        U               U.air;
        phi             phi.air;
        rho             rho;
        psi             none;
        gamma           1;
        p0              nonuniform 0();
        value           nonuniform 0();
    }
    defaultFaces
    {
        type            empty;
    }
    procBoundary1to0
    {
        type            processor;
        value           nonuniform List<scalar> 
26
(
5117.01
4320.05
3528.5
2740.75
1778.53
1139.91
890.802
1096.95
640.26
820.372
573.395
508.038
383.805
96.1483
6.83598
1.93425
3.80696
3.80696
2.32979
2.00807
1.63548
1.48204
1.62602
1.87003
2.09627
2.25495
)
;
    }
    procBoundary1to3
    {
        type            processor;
        value           nonuniform List<scalar> 
23
(
2.40614
2.44792
2.4891
2.52935
2.5991
2.68469
2.7502
2.80601
2.8638
2.90986
2.94288
2.96782
2.9917
3.01864
3.04974
3.09001
3.13719
3.18856
3.24004
3.2936
3.34408
3.37312
3.38216
)
;
    }
}


// ************************************************************************* //
