/*--------------------------------*- C++ -*----------------------------------*\
| =========                 |                                                 |
| \\      /  F ield         | OpenFOAM: The Open Source CFD Toolbox           |
|  \\    /   O peration     | Version:  2.4.0                                 |
|   \\  /    A nd           | Web:      www.OpenFOAM.org                      |
|    \\/     M anipulation  |                                                 |
\*---------------------------------------------------------------------------*/
FoamFile
{
    version     2.0;
    format      ascii;
    class       surfaceScalarField;
    location    "1";
    object      phi;
}
// * * * * * * * * * * * * * * * * * * * * * * * * * * * * * * * * * * * * * //

dimensions      [0 3 -1 0 0 0 0];

internalField   nonuniform List<scalar> 
1061
(
-1.90131e-06
-1.97884e-06
-1.78475e-06
-2.32077e-06
-2.93895e-06
-9.8102e-06
-2.6899e-05
-4.2951e-05
5.70781e-06
-5.70782e-06
1.44337e-05
-8.72586e-06
1.85794e-05
-4.14568e-06
2.23594e-05
-3.78001e-06
2.53553e-05
-2.99594e-06
2.48296e-05
5.25665e-07
2.18461e-05
2.98356e-06
1.82324e-05
3.61367e-06
1.87271e-05
-4.94731e-07
1.91924e-05
-4.65313e-07
1.78806e-05
1.31185e-06
1.40108e-05
3.8698e-06
1.31653e-05
8.45543e-07
1.5575e-05
-2.40972e-06
1.2099e-05
3.47597e-06
1.91808e-06
1.01809e-05
-7.46422e-06
9.3823e-06
-8.65769e-06
1.19347e-06
-8.65769e-06
1.37098e-05
-1.94176e-05
2.02825e-05
-1.52985e-05
2.23486e-05
-6.21175e-06
2.15328e-05
-2.96424e-06
2.52197e-05
-6.68289e-06
2.14247e-05
4.32071e-06
1.75778e-05
6.83049e-06
-3.81673e-07
2.15731e-05
-1.2682e-05
1.18056e-05
-1.29884e-05
-1.58935e-07
-1.20137e-05
3.37235e-07
-1.53849e-05
7.24093e-06
-1.92786e-05
4.7393e-06
-1.05665e-05
-1.11218e-05
-2.9613e-06
-4.12925e-06
-6.21219e-06
1.34318e-05
-9.03257e-06
1.22027e-05
-7.85587e-06
1.67727e-08
-1.65136e-05
-6.22842e-06
-1.31892e-05
-4.50774e-06
-1.70192e-05
1.13714e-07
-1.08332e-05
3.32018e-06
-6.17069e-06
-2.01842e-06
-1.3443e-06
-6.09005e-06
8.39234e-06
-1.07001e-05
1.14405e-05
-2.63522e-05
3.72253e-05
-4.40312e-05
2.94845e-05
-4.70948e-05
2.90474e-06
-4.40545e-05
-2.70315e-06
-4.09395e-05
4.12595e-06
-3.60237e-05
-1.76462e-07
-2.78284e-05
-1.93172e-05
-1.41459e-05
-1.78117e-05
-8.74791e-06
8.03378e-06
-8.44624e-06
1.1901e-05
-3.74894e-06
-4.68053e-06
-2.02625e-05
1.25791e-05
-2.57683e-05
1.4392e-05
-1.88321e-05
1.3818e-05
-1.02591e-05
1.31644e-05
-5.51714e-06
1.33106e-05
-1.49047e-06
3.51045e-06
1.81925e-05
-9.1655e-06
2.41165e-05
-1.97649e-05
4.78247e-05
-3.31081e-05
4.28277e-05
-4.23306e-05
1.21272e-05
-4.38961e-05
-1.13766e-06
-4.42459e-05
4.47579e-06
-4.2292e-05
-2.13037e-06
-3.63758e-05
-2.52334e-05
-2.4837e-05
-2.93505e-05
-1.41682e-05
-2.635e-06
-8.39869e-06
6.13152e-06
-2.36272e-06
-1.07165e-05
-2.26252e-05
4.73693e-06
-3.05053e-05
-3.78444e-06
-1.03107e-05
-4.47691e-06
-9.56668e-06
-8.00337e-06
-1.99068e-06
-1.14328e-05
1.93901e-06
-9.72971e-06
1.64894e-05
-3.12198e-06
1.75087e-05
-1.29433e-06
4.5997e-05
-1.15787e-05
5.31121e-05
-1.97494e-05
2.02978e-05
-2.4293e-05
3.40603e-06
-3.35745e-05
1.37573e-05
-3.9745e-05
4.04012e-06
-3.5691e-05
-2.92875e-05
-3.03587e-05
-3.46828e-05
-1.71572e-05
-1.58365e-05
-6.85691e-06
-4.16878e-06
1.00276e-06
-1.85762e-05
-2.16224e-05
7.51476e-06
-3.802e-05
1.19083e-05
-1.47042e-05
1.09834e-05
-8.64183e-06
5.36747e-06
3.62528e-06
-9.91259e-06
1.72191e-05
-1.5477e-05
2.20538e-05
-1.36008e-05
1.56325e-05
1.55335e-06
3.08429e-05
3.12185e-06
5.15436e-05
-9.48062e-06
3.29003e-05
-1.70916e-05
1.1017e-05
-1.66098e-05
1.32755e-05
-1.1541e-05
-1.02874e-06
-2.02112e-05
-2.06172e-05
-2.61433e-05
-2.87508e-05
-1.98747e-05
-2.2105e-05
-7.32909e-06
-1.67144e-05
4.16735e-07
-2.6322e-05
-2.12057e-05
4.79902e-06
-4.2819e-05
1.40818e-06
-1.13134e-05
-5.68491e-06
-1.54874e-06
-1.23001e-05
1.02405e-05
-1.45426e-05
1.94615e-05
-1.60598e-05
2.3571e-05
-1.05617e-05
1.01344e-05
1.88332e-06
1.83979e-05
1.08039e-05
4.2623e-05
3.11156e-06
4.05927e-05
-1.05049e-05
2.46335e-05
-1.41024e-05
1.68729e-05
-1.384e-05
-1.29117e-06
-1.48716e-05
-1.95855e-05
-2.31195e-05
-2.0503e-05
-2.68481e-05
-1.83764e-05
-1.86133e-05
-2.49492e-05
-9.66039e-06
-3.52749e-05
-3.08661e-05
6.37327e-06
-4.91923e-05
3.67325e-06
-8.61335e-06
-6.17597e-07
2.74211e-06
-1.26078e-05
2.22307e-05
-2.10525e-05
2.79061e-05
-1.89254e-05
2.14439e-05
-1.62403e-05
7.44932e-06
-3.31638e-06
5.47396e-06
1.09962e-05
2.83105e-05
1.1474e-05
4.01149e-05
-1.61926e-07
3.62694e-05
-9.2514e-06
2.59624e-05
-1.14652e-05
9.22659e-07
-1.89258e-05
-1.2125e-05
-2.806e-05
-1.13688e-05
-2.92338e-05
-1.72026e-05
-2.67018e-05
-2.74812e-05
-1.59754e-05
-4.60013e-05
-4.68415e-05
-3.89671e-05
-5.70487e-05
-1.91952e-05
-4.63596e-05
-2.07804e-05
-0.000119624
-1.83645e-05
-0.000184442
-2.62782e-05
-0.00022654
-5.04e-05
-0.000270022
-6.49696e-05
-0.000274021
-0.000258018
-3.14712e-05
-2.55775e-05
-1.05852e-05
-2.0886e-05
8.61664e-06
-1.92018e-05
-1.88791e-05
2.74958e-05
-5.89052e-05
-1.30319e-05
-6.6428e-05
-1.33633e-05
-7.24528e-05
-1.3177e-05
-1.18465e-05
-7.94853e-05
-0.000121498
-1.11569e-05
-0.000123592
-1.127e-05
-0.000126552
-1.02167e-05
-8.23403e-06
-0.000130165
-0.000184705
-1.08935e-05
-0.000184723
-1.12518e-05
-0.000184069
-1.08708e-05
-9.48497e-06
-0.000182818
-0.000223138
-1.42953e-05
-0.000218285
-1.61044e-05
-0.000213708
-1.54482e-05
-1.47235e-05
-0.000208469
-0.000259758
-2.45591e-05
-0.000248619
-2.72435e-05
-0.000237057
-2.70105e-05
-2.56453e-05
-0.000226135
-0.000264878
-3.37023e-05
-0.000256853
-3.52682e-05
-0.000248015
-3.58493e-05
-3.76877e-05
-0.000235972
-0.000255669
-3.60512e-05
-0.0002502
-4.07375e-05
-0.000239113
-4.69365e-05
-4.58994e-05
-0.000230901
-0.00021462
-4.1901e-05
-0.000216225
-3.91327e-05
-0.000219617
-4.35439e-05
-4.12052e-05
-0.000224311
-0.000329301
-4.92112e-05
-0.000315771
-5.26622e-05
-0.000300856
-5.84588e-05
-5.83614e-05
-0.0002837
-0.000249932
-5.4629e-05
-0.0002408
-6.17942e-05
-0.000228968
-7.02911e-05
-7.39577e-05
-0.000213372
-0.000120268
-6.58011e-05
-0.000106588
-7.54743e-05
-9.1252e-05
-8.56272e-05
-9.05502e-05
-7.46594e-05
-1.09275e-05
-7.06537e-05
-5.62558e-06
-8.07761e-05
-2.44859e-06
-8.88041e-05
-9.28189e-05
-1.79809e-07
8.91583e-05
-7.03713e-05
8.70394e-05
-7.86572e-05
8.26324e-05
-8.4397e-05
-8.68505e-05
7.66641e-05
0.000138397
-6.57796e-05
0.000130894
-7.11547e-05
0.000122379
-7.5882e-05
-7.77862e-05
0.000113315
0.000158316
-5.90762e-05
0.000150449
-6.32873e-05
0.000141796
-6.72285e-05
-6.82187e-05
0.000132228
0.000158204
0.000148598
0.000137019
0.000125008
3.59902e-06
-2.52956e-05
-2.64058e-05
2.13915e-05
-4.5831e-05
2.21673e-05
-5.27809e-05
2.91806e-05
-5.30492e-05
2.81744e-05
-4.69608e-05
1.53555e-05
-3.51696e-05
-4.34186e-06
-1.86859e-05
-1.10098e-05
1.01203e-05
-4.95675e-07
2.86661e-05
2.15691e-05
2.66845e-05
3.8251e-05
8.86794e-06
4.3779e-05
-2.39494e-05
3.37399e-05
-4.74155e-05
1.13411e-05
-6.23044e-05
3.5201e-06
-5.9476e-05
-2.0031e-05
-3.99525e-05
-4.70047e-05
-1.82808e-05
-6.7673e-05
-6.51223e-05
-8.5378e-05
-1.94029e-05
-7.9213e-05
1.52265e-05
-8.44971e-05
2.74514e-05
-8.21342e-05
2.68177e-05
-7.0045e-05
1.60852e-05
-5.47168e-05
2.73058e-08
-4.27803e-05
-1.62783e-05
-2.90633e-05
-2.47267e-05
-8.93289e-06
-2.06261e-05
1.67555e-05
-4.11932e-06
2.94582e-05
2.55483e-05
2.66359e-05
4.66013e-05
1.43453e-05
4.60306e-05
-5.23586e-06
3.09223e-05
-1.32921e-05
1.15764e-05
-1.00568e-05
-2.32663e-05
-6.61096e-06
-5.04505e-05
-3.10826e-06
-7.11757e-05
-6.82306e-05
-0.000139398
-1.01696e-05
-0.000134887
1.07159e-05
-0.000124342
1.69063e-05
-0.000103715
6.19094e-06
-7.75651e-05
-1.00652e-05
-5.56069e-05
-2.19309e-05
-4.00726e-05
-3.18127e-05
-2.93298e-05
-3.54696e-05
-1.84963e-05
-3.14595e-05
-2.49035e-06
-2.01253e-05
1.72262e-05
5.83171e-06
2.3689e-05
4.01385e-05
2.51784e-05
4.45411e-05
1.81449e-05
3.79558e-05
1.69934e-05
1.27278e-05
2.63499e-05
-3.26228e-05
2.57731e-05
-4.98738e-05
1.36927e-05
-5.90953e-05
-5.45379e-05
-0.000177139
-1.58491e-05
-0.00016144
-4.98317e-06
-0.000137127
-7.40608e-06
-0.00011057
-2.03665e-05
-8.62017e-05
-3.44333e-05
-6.71505e-05
-4.09821e-05
-5.54868e-05
-4.34763e-05
-4.66114e-05
-4.43449e-05
-3.60204e-05
-4.20505e-05
-2.39806e-05
-3.21651e-05
-7.09941e-06
-1.10495e-05
9.47508e-06
2.3564e-05
1.83853e-05
3.56309e-05
2.09058e-05
3.54353e-05
2.81352e-05
5.49843e-06
3.72309e-05
-4.17184e-05
3.75798e-05
-5.02227e-05
2.10555e-05
-4.2571e-05
-3.34824e-05
-0.000192067
-3.22509e-05
-0.000171153
-2.58979e-05
-0.000149734
-2.88247e-05
-0.000130881
-3.92192e-05
-0.000113589
-5.17254e-05
-9.99582e-05
-5.46131e-05
-8.87468e-05
-5.46878e-05
-7.9504e-05
-5.35877e-05
-6.90451e-05
-5.25094e-05
-5.68275e-05
-4.43827e-05
-3.98029e-05
-2.8074e-05
-1.911e-05
2.87113e-06
-1.11962e-06
1.76405e-05
1.61999e-05
1.81159e-05
3.37506e-05
-1.20523e-05
4.67466e-05
-5.47143e-05
4.47544e-05
-4.82305e-05
2.35694e-05
-2.1386e-05
-9.91304e-06
-0.000204141
-5.42452e-05
-0.000181945
-4.80939e-05
-0.000160889
-4.98812e-05
-0.000144117
-5.5991e-05
-0.000125406
-7.04359e-05
-0.000110393
-6.9626e-05
-9.7559e-05
-6.75222e-05
-8.89349e-05
-6.22118e-05
-8.15581e-05
-5.98863e-05
-7.41256e-05
-5.18152e-05
-6.22657e-05
-3.99339e-05
-3.90385e-05
-2.0356e-05
-1.12821e-05
-1.0116e-05
2.25442e-05
-1.57104e-05
4.63545e-05
-3.58626e-05
4.70449e-05
-5.54048e-05
1.04744e-05
-1.166e-05
-1.18593e-05
9.47693e-07
-2.17723e-05
-0.000207101
-8.31161e-05
-0.000179909
-7.52859e-05
-0.000151903
-7.7888e-05
-0.000130541
-7.73531e-05
-0.000115474
-8.55021e-05
-0.000104215
-8.08857e-05
-9.21013e-05
-7.96359e-05
-8.31156e-05
-7.11975e-05
-7.36305e-05
-6.93714e-05
-6.38584e-05
-6.15874e-05
-5.22248e-05
-5.15676e-05
-3.36732e-05
-3.89077e-05
-7.37358e-06
-3.64156e-05
1.8068e-05
-4.11519e-05
1.35836e-05
-3.13784e-05
4.31699e-06
-4.61382e-05
-5.31394e-05
4.57965e-05
-4.57582e-05
-6.43351e-06
-6.75305e-05
-0.000210753
-0.000103265
-0.000184534
-0.000101505
-0.000153387
-0.000109035
-0.000124917
-0.000105824
-8.20581e-05
-0.000128361
-8.5692e-05
-7.72519e-05
-9.14014e-05
-7.39265e-05
-8.98017e-05
-7.27974e-05
-9.63886e-05
-6.27846e-05
-8.4778e-05
-7.31982e-05
-6.92175e-05
-6.71281e-05
-5.50874e-05
-5.3038e-05
-4.70596e-05
-4.44435e-05
-8.92612e-05
1.04966e-06
-0.000199605
7.89649e-05
-0.000199435
-4.63075e-05
-7.60733e-05
-7.75656e-05
-1.65787e-05
-6.59281e-05
-8.41091e-05
-0.000220621
-0.000106955
-0.000220466
-0.00010166
-0.000229519
-9.99824e-05
-0.000234009
-0.000101333
-0.000264927
-9.7443e-05
-0.000265557
-7.6621e-05
-0.000266202
-7.32824e-05
-0.000283298
-5.57018e-05
-0.000314058
-3.2024e-05
-0.000353158
-3.40982e-05
-0.000374056
-4.62308e-05
-0.00034624
-8.08541e-05
-0.000294459
-9.62242e-05
-0.000211092
-8.23173e-05
-0.000100385
-3.17423e-05
-7.53684e-05
-7.13239e-05
-4.76374e-05
-0.000105297
-2.32034e-05
-9.03621e-05
-0.000107313
-0.000248153
-0.000142502
-0.00022882
-0.000120994
-0.000231596
-9.72065e-05
-0.000249571
-8.33581e-05
-0.000262848
-8.41655e-05
-0.000258194
-8.12746e-05
-0.000259613
-7.18639e-05
-0.000259313
-5.6002e-05
-0.00025199
-3.93476e-05
-0.000255599
-3.04886e-05
-0.000258291
-4.35386e-05
-0.000247687
-9.14584e-05
-0.000227136
-0.000116775
-0.000198418
-0.000111036
-0.000132153
-9.8007e-05
-7.36109e-05
-0.000129866
-4.16836e-05
-0.000137224
-1.47277e-05
-0.000117318
-0.00012204
-0.000172184
-0.000183689
-0.000135779
-0.000157399
-0.00010989
-0.000123095
-9.58638e-05
-9.73845e-05
-9.97427e-05
-8.02867e-05
-0.000114693
-6.63247e-05
-0.000139355
-4.72013e-05
-0.00017894
-1.64168e-05
-0.000217233
-1.05505e-06
-0.000228994
-1.87279e-05
-0.00020774
-6.47925e-05
-0.000175773
-0.000123425
-0.000147801
-0.000144747
-0.000126715
-0.000132122
-9.00112e-05
-0.000134711
-5.71299e-05
-0.000162747
-3.06174e-05
-0.000163736
-9.09537e-06
-0.00013884
-0.000131136
-4.76855e-05
-0.000210663
-2.84518e-05
-0.000176633
-1.7986e-05
-0.000133561
-2.43663e-05
-9.10041e-05
-4.27382e-05
-6.19148e-05
-7.00855e-05
-3.89774e-05
-9.12994e-05
-2.59873e-05
-8.75926e-05
-2.01235e-05
-6.64064e-05
-2.22413e-05
-4.61893e-05
-3.8945e-05
-3.1648e-05
-7.93339e-05
-2.41056e-05
-0.000130968
-1.91633e-05
-0.000149689
-2.02316e-05
-0.000131054
-2.20118e-05
-0.00013293
-1.94756e-05
-0.000165283
-1.2448e-05
-0.000170764
-4.33327e-06
-0.000146955
-0.000135469
4.88043e-06
-0.000215723
1.81072e-05
-0.00018986
3.43936e-05
-0.000149847
3.41466e-05
-9.07571e-05
2.94764e-05
-5.72445e-05
3.35983e-05
-4.30992e-05
3.83163e-05
-3.07053e-05
4.34621e-05
-2.52692e-05
4.94053e-05
-2.81845e-05
5.49882e-05
-4.45279e-05
5.34371e-05
-7.77828e-05
4.19725e-05
-0.000119503
3.05091e-05
-0.000138226
2.3759e-05
-0.000124304
2.01338e-05
-0.000129305
1.30063e-05
-0.000158156
5.73231e-06
-0.00016349
1.99291e-06
-0.000143215
-0.000133476
6.49357e-05
-0.000203994
6.3232e-05
-0.000188156
6.7629e-05
-0.000154244
6.73535e-05
-9.04816e-05
6.03698e-05
-5.02607e-05
5.70983e-05
-3.98278e-05
6.35738e-05
-3.71807e-05
7.72172e-05
-3.89127e-05
8.81222e-05
-3.90894e-05
9.16382e-05
-4.80438e-05
8.46051e-05
-7.07496e-05
6.75734e-05
-0.000102471
5.03531e-05
-0.000121006
4.15251e-05
-0.000115476
3.46572e-05
-0.000122437
2.46593e-05
-0.000148158
1.5091e-05
-0.000153922
5.60684e-06
-0.000133731
-0.000127869
9.59367e-05
-0.000186616
8.38864e-05
-0.000176106
7.64052e-05
-0.000146763
7.45793e-05
-8.86557e-05
7.16104e-05
-4.72918e-05
6.7981e-05
-3.61983e-05
6.74043e-05
-3.66039e-05
7.09157e-05
-4.24241e-05
7.92109e-05
-4.73845e-05
8.53361e-05
-5.4169e-05
8.21015e-05
-6.75149e-05
7.03301e-05
-9.06999e-05
5.52291e-05
-0.000105905
4.74337e-05
-0.000107681
4.23564e-05
-0.00011736
3.37082e-05
-0.00013951
2.04005e-05
-0.000140614
5.05477e-06
-0.000118386
-0.000122814
0.000109569
-0.000163957
9.21823e-05
-0.000158719
7.83143e-05
-0.000132895
7.41055e-05
-8.44468e-05
7.1494e-05
-4.46803e-05
6.88888e-05
-3.35931e-05
6.78996e-05
-3.56146e-05
6.96842e-05
-4.42086e-05
7.2372e-05
-5.00722e-05
7.33883e-05
-5.51854e-05
7.04739e-05
-6.46005e-05
6.39646e-05
-8.41906e-05
5.63058e-05
-9.82462e-05
5.34468e-05
-0.000104822
5.2588e-05
-0.000116501
4.16503e-05
-0.000128572
2.53887e-05
-0.000124353
9.19195e-06
-0.000102189
-0.000113623
9.87505e-05
7.54787e-05
5.74682e-05
5.15344e-05
5.36988e-05
5.64963e-05
5.97102e-05
6.2889e-05
6.58335e-05
6.92313e-05
7.05168e-05
6.80652e-05
6.38082e-05
6.0055e-05
5.47349e-05
4.01013e-05
2.29593e-05
1.03619e-05
)
;

boundaryField
{
    leftWall
    {
        type            calculated;
        value           nonuniform 0();
    }
    rightWall
    {
        type            calculated;
        value           uniform 0;
    }
    lowerWall
    {
        type            calculated;
        value           nonuniform List<scalar> 
40
(
1.64447e-22
0
0
0
0
0
0
0
0
4.1973e-23
1.15062e-22
-1.19166e-23
1.63859e-22
0
0
0
0
0
0
0
0
1.65436e-23
2.0845e-22
-3.226e-22
-1.29867e-22
-1.45997e-22
-4.48745e-23
-6.44942e-23
1.04897e-22
-1.23793e-22
-1.38126e-22
1.38768e-22
-2.72672e-22
-1.20481e-22
1.09265e-22
1.06151e-22
-1.12616e-22
2.74107e-22
8.38554e-23
3.39596e-23
)
;
    }
    atmosphere
    {
        type            calculated;
        value           nonuniform 0();
    }
    defaultFaces
    {
        type            empty;
        value           nonuniform 0();
    }
    procBoundary1to0
    {
        type            processor;
        value           nonuniform List<scalar> 
26
(
1.90131e-06
7.75319e-08
-1.94086e-07
5.36011e-07
6.18187e-07
6.87124e-06
1.70888e-05
1.6052e-05
5.30647e-05
2.65877e-05
0.000121209
0.000182026
0.000234453
0.000294144
0.000288591
0.000242908
-4.9859e-05
0.00022047
0.000336611
0.00025535
0.000131441
1.57801e-05
-8.94407e-05
-0.000142988
-0.00016502
-0.000166765
)
;
    }
    procBoundary1to3
    {
        type            processor;
        value           nonuniform List<scalar> 
23
(
-5.05152e-05
-5.36812e-05
-5.56503e-05
-5.62071e-05
-0.0001377
-0.000135447
-0.000114885
-7.8513e-05
-4.68447e-05
-3.63905e-05
-3.88285e-05
-4.73874e-05
-5.30167e-05
-5.85831e-05
-6.5886e-05
-8.1739e-05
-9.39891e-05
-0.000101068
-0.000111181
-0.000113939
-0.000107211
-8.95913e-05
-0.000103261
)
;
    }
}


// ************************************************************************* //
