/*--------------------------------*- C++ -*----------------------------------*\
| =========                 |                                                 |
| \\      /  F ield         | OpenFOAM: The Open Source CFD Toolbox           |
|  \\    /   O peration     | Version:  2.4.0                                 |
|   \\  /    A nd           | Web:      www.OpenFOAM.org                      |
|    \\/     M anipulation  |                                                 |
\*---------------------------------------------------------------------------*/
FoamFile
{
    version     2.0;
    format      ascii;
    class       surfaceScalarField;
    location    "1";
    object      phi.air;
}
// * * * * * * * * * * * * * * * * * * * * * * * * * * * * * * * * * * * * * //

dimensions      [0 3 -1 0 0 0 0];

internalField   nonuniform List<scalar> 
1061
(
-1.90161e-06
-1.97975e-06
-1.77015e-06
-1.69669e-06
2.77812e-05
4.14081e-05
-0.000121256
0.000192113
5.51766e-06
0.000336964
1.43135e-05
0.000280693
1.87794e-05
0.000298747
2.23932e-05
9.04731e-05
2.47746e-05
-3.3863e-05
2.44406e-05
-4.90682e-05
2.08571e-05
-3.43767e-05
1.78987e-05
-2.67383e-05
1.87121e-05
3.57591e-05
1.91924e-05
8.33669e-05
1.78179e-05
5.15675e-05
1.38408e-05
3.12096e-05
1.29505e-05
2.48126e-05
1.5576e-05
3.18557e-05
1.17053e-05
2.3586e-05
1.22487e-06
1.46531e-05
-7.26088e-06
2.51675e-05
-8.74642e-06
1.01955e-05
-2.18154e-06
2.92133e-05
-7.70003e-05
4.91551e-05
-0.000285927
2.98358e-05
-0.000487965
2.02636e-05
-0.000349041
2.69613e-05
-3.85157e-05
2.47442e-05
-3.09363e-05
1.93044e-05
-3.57876e-05
-2.70497e-06
-2.67571e-05
-1.79804e-05
-3.08027e-05
-1.61582e-05
-2.41418e-05
-1.63772e-05
-1.06602e-05
-1.8792e-05
6.53913e-06
-2.11179e-05
7.91841e-06
-1.1107e-05
-4.67712e-07
-5.06995e-06
1.37328e-06
-6.81608e-06
1.60745e-05
-9.0158e-06
1.76731e-05
-7.97133e-06
7.1898e-06
-1.20298e-05
-3.45715e-05
7.81199e-05
-2.1161e-05
0.000138005
-1.01185e-05
0.000249107
3.6792e-06
0.00033224
-2.67681e-06
0.000229694
-7.36873e-06
6.3698e-05
-2.06949e-05
4.73626e-05
-3.77971e-05
7.45583e-05
-4.78525e-05
0.000139272
-4.93296e-05
0.000166995
-4.6077e-05
0.00015417
-4.14745e-05
0.000107023
-3.61163e-05
3.59516e-05
-2.80826e-05
-3.73638e-06
-1.4788e-05
-8.11599e-06
-9.11627e-06
1.528e-05
-8.34137e-06
1.80555e-05
-3.70367e-06
3.28628e-06
-1.64095e-05
1.72929e-05
2.77475e-05
2.22184e-05
-2.27969e-06
1.92885e-05
-9.78573e-05
1.91075e-05
-0.00016892
2.38389e-05
-0.000199881
2.79489e-06
-3.29235e-05
-2.26211e-05
-4.32083e-06
-2.02227e-05
1.77078e-06
-1.98644e-05
-2.0268e-05
-4.65349e-05
-0.000101182
-4.67785e-05
-7.20331e-05
-4.89987e-05
-3.96585e-05
-4.34375e-05
-2.21172e-05
-3.72821e-05
3.05152e-05
-2.56995e-05
1.60991e-05
-1.45766e-05
5.09048e-07
-8.35585e-06
8.22359e-06
-2.35097e-06
-7.64947e-06
-3.72615e-06
3.22656e-06
5.69744e-05
-2.37319e-05
8.17334e-05
-8.15866e-06
0.000151259
-8.39493e-06
0.000205693
-1.20862e-05
0.000158977
-1.03146e-05
4.5232e-05
-2.52172e-06
3.5366e-05
1.29439e-05
5.24779e-05
4.46312e-06
6.33437e-05
-1.40886e-05
5.4004e-05
-1.60571e-05
8.85438e-06
-3.17489e-05
-1.32789e-05
-3.82326e-05
-4.81346e-05
-4.50377e-05
-6.6353e-05
-3.81519e-05
3.81347e-05
-1.73412e-05
3.39488e-05
-6.73229e-06
1.48251e-05
1.75564e-06
1.12643e-05
9.13196e-06
5.56494e-06
2.90089e-06
2.16791e-05
4.29601e-05
1.04354e-05
-4.05491e-05
8.13364e-06
-7.76582e-05
-2.20108e-05
-9.01131e-05
-1.56547e-05
1.20315e-05
-1.51306e-05
7.89835e-06
7.97193e-06
3.43603e-05
1.87711e-05
6.86949e-05
-1.01267e-05
0.000106717
-1.67117e-05
0.000148667
-1.61585e-05
6.19843e-05
3.14217e-06
3.89298e-05
-1.50516e-05
-3.89233e-06
-3.71388e-05
-3.34352e-05
-2.06335e-05
3.26563e-05
-6.62674e-06
4.25515e-05
2.55319e-06
-3.15475e-05
-7.028e-05
-3.12388e-07
-6.18277e-06
-6.10536e-06
7.74179e-05
-1.99321e-05
0.000121465
-1.96887e-05
0.000160776
-1.50797e-05
7.08444e-05
-1.61419e-05
2.8418e-05
-1.01656e-05
1.70502e-05
2.82069e-06
2.0022e-05
2.22617e-05
4.43945e-05
1.56901e-05
8.18346e-05
-5.29611e-06
5.20697e-05
-1.15583e-05
1.5522e-05
-1.74127e-05
-1.88563e-05
-1.8073e-06
3.03572e-05
-9.30166e-06
-2.68133e-05
-3.35805e-05
-0.00018746
-2.82255e-05
-0.000131914
-1.25116e-05
-6.90658e-05
-3.69048e-05
2.66828e-06
-2.41559e-05
3.6083e-06
4.2895e-05
-3.20909e-06
3.98775e-05
-1.76746e-05
3.44115e-05
-2.34087e-05
3.32102e-05
-1.88714e-05
1.81423e-05
-1.64894e-05
6.69594e-06
-3.24567e-06
3.60248e-05
1.32546e-05
6.52709e-05
1.63875e-05
6.41426e-05
2.88506e-06
9.74509e-05
-6.99831e-06
4.69144e-05
-6.26054e-06
2.43373e-05
-2.13592e-05
5.20167e-05
-4.85472e-05
0.000138591
-2.95833e-05
0.000132796
-2.69342e-05
-1.57925e-05
-1.60077e-05
-2.52975e-05
-3.11566e-05
-6.32893e-05
-6.3137e-05
3.50121e-05
-1.43816e-05
-1.82484e-05
-0.000121675
-1.92653e-05
-0.000183259
8.64955e-05
-0.000226952
6.99631e-05
-0.000292546
-2.25757e-05
-0.000281743
-0.000258284
-2.87798e-05
-3.61901e-05
-1.11158e-05
-3.30637e-05
7.0866e-06
-3.00485e-05
-2.73969e-05
3.48789e-05
-5.57441e-05
-1.06842e-05
-6.09719e-05
-1.12057e-05
-6.75311e-05
-1.17744e-05
-1.104e-05
-3.88936e-05
-0.000122371
-8.11528e-06
-0.000123546
-7.87812e-06
-0.00012404
-5.52078e-06
1.37448e-05
-9.83553e-05
-0.000184012
-1.13694e-05
-0.000182504
-1.14576e-05
-0.000164777
-9.2166e-06
6.64383e-06
-0.000163228
-0.000223142
3.17188e-05
-0.000217129
2.53583e-05
-0.000210885
1.92769e-05
1.3982e-05
-0.000205358
-0.000277119
2.91976e-05
-0.000252018
1.85201e-05
-0.000234792
1.15626e-05
1.22027e-05
-0.000228461
-0.000285135
-9.70455e-06
-0.00028299
-5.19014e-06
-0.000254921
2.62193e-06
2.29835e-06
-0.00023336
-0.000256932
-3.5919e-05
-0.000254396
-4.00345e-05
-0.000244921
-4.16553e-05
-3.60482e-05
-0.000235205
-0.00021462
-4.19009e-05
-0.000216225
-3.91327e-05
-0.00021962
-4.35438e-05
-4.12038e-05
-0.000224312
-0.000329301
-4.92112e-05
-0.000315771
-5.26622e-05
-0.000300856
-5.84588e-05
-5.83614e-05
-0.0002837
-0.000249932
-5.4629e-05
-0.0002408
-6.17942e-05
-0.000228968
-7.02911e-05
-7.39577e-05
-0.000213372
-0.000120268
-6.58011e-05
-0.000106588
-7.54743e-05
-9.1252e-05
-8.56272e-05
-9.05501e-05
-7.46595e-05
-1.09274e-05
-7.06537e-05
-5.62558e-06
-8.07761e-05
-2.4486e-06
-8.88041e-05
-9.28188e-05
-1.79938e-07
8.91583e-05
-7.03713e-05
8.70394e-05
-7.86572e-05
8.26323e-05
-8.43969e-05
-8.68505e-05
7.6664e-05
0.000138396
-6.57796e-05
0.000130894
-7.11546e-05
0.000122379
-7.58819e-05
-7.77861e-05
0.000113315
0.000158316
-5.90762e-05
0.000150449
-6.32873e-05
0.000141796
-6.72285e-05
-6.82187e-05
0.000132228
0.000158204
0.000148598
0.000137019
0.000125008
-1.17334e-05
6.95968e-05
-3.50603e-05
0.000115202
-7.08656e-05
0.000110983
-6.34602e-05
0.000111359
-5.47589e-05
4.6307e-05
-4.70349e-05
3.12522e-05
-2.36373e-05
7.37384e-05
-1.92182e-06
6.30314e-05
3.29906e-05
6.7647e-05
3.4301e-05
7.92902e-05
2.9971e-05
8.73218e-05
1.42271e-05
5.04381e-05
-1.70722e-05
4.15412e-05
-1.73727e-05
8.65617e-05
-4.68191e-05
6.69924e-05
-5.90914e-05
1.98467e-05
-4.12401e-05
-4.61905e-05
-1.91314e-05
-6.5769e-05
-6.23796e-05
-0.000103655
4.05904e-06
-9.59432e-05
6.66117e-05
-0.000101855
8.20994e-05
-8.74822e-05
6.68808e-05
-7.03093e-05
4.45743e-05
-4.20609e-05
6.41584e-05
-3.28783e-05
5.56116e-05
-1.8395e-05
4.53782e-05
6.15022e-06
4.93443e-05
3.23405e-05
6.89169e-05
3.60252e-05
9.43565e-05
2.66746e-05
9.5785e-05
2.89634e-05
6.96535e-05
2.88369e-05
7.99179e-05
1.33443e-05
5.87322e-05
-1.04793e-05
1.50606e-05
-7.6984e-06
-5.03909e-05
-3.55729e-06
-7.02718e-05
-6.72094e-05
-0.000131644
8.01257e-05
-0.000152078
8.87175e-05
-0.000142027
0.000100499
-0.000105773
7.89761e-05
-6.57059e-05
3.32693e-05
-3.4579e-05
5.23226e-05
-2.08479e-05
4.05484e-05
-1.28627e-05
3.27464e-05
-3.70376e-06
1.42945e-05
9.63496e-06
5.42611e-05
2.25571e-05
7.74263e-05
2.18749e-05
0.000110249
3.21378e-05
9.96545e-05
2.68129e-05
5.42864e-05
2.41481e-05
3.76588e-05
2.75407e-05
-1.93337e-05
2.53612e-05
-1.53556e-05
1.32553e-05
-1.66064e-06
2.66608e-05
-0.000182142
5.73739e-05
-0.000174657
7.52454e-05
-0.000145479
7.06412e-05
-0.000106602
3.63378e-05
-8.31675e-05
-2.21158e-05
-6.61905e-05
-3.39689e-05
-5.65538e-05
-4.55935e-05
-4.59634e-05
-4.64975e-05
-1.84551e-05
-2.94929e-05
-8.47375e-06
4.97745e-05
-4.4479e-06
6.42879e-05
1.22466e-06
9.30234e-05
2.42797e-05
9.28302e-05
2.36084e-05
4.79863e-05
2.91694e-05
7.40143e-06
4.0335e-05
1.95401e-05
3.64777e-05
2.75712e-05
1.78015e-05
4.78031e-05
6.40761e-05
-0.000192151
1.11729e-05
-0.000171094
-6.47502e-06
-0.000150075
-8.26723e-06
-0.000131408
-8.0978e-06
-0.000114477
1.54042e-05
-0.000100849
2.28327e-05
-8.95095e-05
2.15669e-05
-7.83901e-05
1.87872e-05
-5.00188e-05
1.68435e-05
-3.43939e-05
2.11793e-05
-3.84347e-05
1.49354e-05
-3.27095e-05
3.44329e-05
3.02535e-06
4.38633e-05
1.72186e-05
3.84244e-05
5.2059e-05
5.58017e-05
7.09959e-05
2.35139e-05
5.58748e-05
6.23075e-05
2.60985e-05
7.21997e-05
7.07957e-05
-0.000208563
4.09136e-05
-0.000181517
5.79887e-05
-0.000158822
5.46872e-05
-0.000137303
5.04269e-05
-0.000117512
3.72396e-05
-0.000106144
3.56406e-05
-8.74019e-05
3.12614e-05
-7.84186e-05
3.47638e-05
-7.73424e-05
3.6238e-05
-7.75136e-05
4.30692e-05
-6.86022e-05
5.32592e-05
-3.88189e-05
7.15333e-05
2.33834e-06
7.97561e-05
5.35522e-05
7.22068e-05
6.99723e-05
5.56265e-05
7.24249e-05
1.41043e-05
1.08999e-05
4.19842e-05
-1.41305e-05
1.6456e-05
-1.38695e-05
-0.000205185
7.89011e-06
-0.000180824
9.7279e-06
-0.000148528
6.49739e-06
-0.00012493
2.59267e-06
-0.000111965
-8.45021e-06
-0.000104568
-3.55771e-06
-8.903e-05
-6.98005e-06
-8.03962e-05
-6.0912e-06
-7.29163e-05
-1.08591e-05
-6.59403e-05
-8.99345e-07
-5.64501e-05
1.89501e-05
-3.30325e-05
4.08498e-05
1.85818e-06
4.04967e-05
3.10028e-05
2.97648e-05
1.83451e-05
3.16347e-05
7.07584e-06
-4.28728e-05
-5.31447e-05
4.5844e-05
-4.57582e-05
-6.43309e-06
-6.75304e-05
-0.000213018
-7.33813e-05
-0.000185778
-6.64616e-05
-0.000153314
-7.29874e-05
-0.00012276
-7.08853e-05
-7.44655e-05
-9.07759e-05
-8.26123e-05
-6.44396e-05
-9.11444e-05
-6.96431e-05
-9.08375e-05
-6.99005e-05
-0.000100038
-6.01977e-05
-8.94139e-05
-7.13934e-05
-7.46063e-05
-6.51701e-05
-5.8832e-05
-4.88212e-05
-4.70043e-05
-4.01141e-05
-8.91807e-05
3.30647e-06
-0.000199606
7.89682e-05
-0.000199435
-4.63075e-05
-7.60732e-05
-7.75655e-05
-1.65787e-05
-6.5928e-05
-8.41091e-05
-0.000220591
-0.000106943
-0.000220412
-0.000101637
-0.00022947
-9.99593e-05
-0.000233972
-0.000101315
-0.000264924
-9.74395e-05
-0.000265557
-7.66208e-05
-0.000266201
-7.32824e-05
-0.000283297
-5.57017e-05
-0.000314058
-3.20239e-05
-0.000353158
-3.40981e-05
-0.000374055
-4.62307e-05
-0.000346239
-8.0854e-05
-0.000294459
-9.62241e-05
-0.000211092
-8.23173e-05
-0.000100385
-3.17423e-05
-7.53684e-05
-7.13239e-05
-4.76374e-05
-0.000105297
-2.32034e-05
-9.0362e-05
-0.000107312
-0.000248153
-0.000142501
-0.00022882
-0.000120994
-0.000231596
-9.72065e-05
-0.000249571
-8.3358e-05
-0.000262848
-8.41655e-05
-0.000258194
-8.12746e-05
-0.000259613
-7.18639e-05
-0.000259313
-5.6002e-05
-0.000251989
-3.93475e-05
-0.000255599
-3.04886e-05
-0.000258291
-4.35386e-05
-0.000247687
-9.14583e-05
-0.000227136
-0.000116775
-0.000198417
-0.000111036
-0.000132153
-9.8007e-05
-7.36108e-05
-0.000129866
-4.16836e-05
-0.000137224
-1.47277e-05
-0.000117318
-0.00012204
-0.000172184
-0.000183689
-0.000135779
-0.000157399
-0.00010989
-0.000123095
-9.58638e-05
-9.73844e-05
-9.97427e-05
-8.02867e-05
-0.000114693
-6.63248e-05
-0.000139355
-4.72013e-05
-0.00017894
-1.64168e-05
-0.000217233
-1.05505e-06
-0.000228993
-1.87279e-05
-0.00020774
-6.47925e-05
-0.000175773
-0.000123425
-0.000147801
-0.000144747
-0.000126715
-0.000132122
-9.00112e-05
-0.000134711
-5.71299e-05
-0.000162747
-3.06174e-05
-0.000163736
-9.09538e-06
-0.00013884
-0.000131135
-4.76856e-05
-0.000210663
-2.84518e-05
-0.000176633
-1.7986e-05
-0.000133561
-2.43663e-05
-9.1004e-05
-4.27382e-05
-6.19148e-05
-7.00855e-05
-3.89774e-05
-9.12994e-05
-2.59873e-05
-8.75926e-05
-2.01235e-05
-6.64063e-05
-2.22413e-05
-4.61892e-05
-3.8945e-05
-3.16479e-05
-7.93338e-05
-2.41056e-05
-0.000130968
-1.91633e-05
-0.000149689
-2.02316e-05
-0.000131054
-2.20118e-05
-0.00013293
-1.94756e-05
-0.000165283
-1.2448e-05
-0.000170764
-4.33327e-06
-0.000146955
-0.000135469
4.87954e-06
-0.000215723
1.81068e-05
-0.000189859
3.43935e-05
-0.000149847
3.41466e-05
-9.0757e-05
2.94764e-05
-5.72444e-05
3.35983e-05
-4.30992e-05
3.83163e-05
-3.07053e-05
4.34621e-05
-2.52692e-05
4.94053e-05
-2.81845e-05
5.49882e-05
-4.45278e-05
5.34371e-05
-7.77827e-05
4.19724e-05
-0.000119503
3.0509e-05
-0.000138226
2.3759e-05
-0.000124304
2.01338e-05
-0.000129305
1.30063e-05
-0.000158156
5.73231e-06
-0.00016349
1.9929e-06
-0.000143215
-0.000133476
6.49347e-05
-0.000203994
6.32315e-05
-0.000188156
6.76289e-05
-0.000154244
6.73534e-05
-9.04814e-05
6.03697e-05
-5.02605e-05
5.70983e-05
-3.98277e-05
6.35738e-05
-3.71807e-05
7.72173e-05
-3.89127e-05
8.81222e-05
-3.90894e-05
9.16382e-05
-4.80438e-05
8.4605e-05
-7.07496e-05
6.75733e-05
-0.000102471
5.03531e-05
-0.000121006
4.15251e-05
-0.000115476
3.46572e-05
-0.000122437
2.46593e-05
-0.000148158
1.5091e-05
-0.000153922
5.60684e-06
-0.000133731
-0.000127869
9.5936e-05
-0.000186616
8.38862e-05
-0.000176106
7.64051e-05
-0.000146763
7.45792e-05
-8.86555e-05
7.16103e-05
-4.72916e-05
6.7981e-05
-3.61983e-05
6.74043e-05
-3.66038e-05
7.09158e-05
-4.24241e-05
7.92109e-05
-4.73845e-05
8.53361e-05
-5.4169e-05
8.21014e-05
-6.75149e-05
7.03301e-05
-9.06999e-05
5.52291e-05
-0.000105905
4.74337e-05
-0.000107681
4.23564e-05
-0.00011736
3.37082e-05
-0.00013951
2.04005e-05
-0.000140614
5.05476e-06
-0.000118385
-0.000122814
0.000109569
-0.000163957
9.21823e-05
-0.000158719
7.83143e-05
-0.000132895
7.41054e-05
-8.44467e-05
7.1494e-05
-4.46802e-05
6.88888e-05
-3.35931e-05
6.78996e-05
-3.56146e-05
6.96842e-05
-4.42086e-05
7.2372e-05
-5.00723e-05
7.33884e-05
-5.51854e-05
7.04739e-05
-6.46005e-05
6.39646e-05
-8.41907e-05
5.63059e-05
-9.82462e-05
5.34469e-05
-0.000104822
5.2588e-05
-0.000116501
4.16503e-05
-0.000128572
2.53888e-05
-0.000124353
9.19194e-06
-0.000102189
-0.000113622
9.87504e-05
7.54787e-05
5.74681e-05
5.15344e-05
5.36988e-05
5.64963e-05
5.97102e-05
6.28891e-05
6.58335e-05
6.92314e-05
7.05169e-05
6.80653e-05
6.38082e-05
6.0055e-05
5.47349e-05
4.01013e-05
2.29593e-05
1.03619e-05
)
;

boundaryField
{
    leftWall
    {
        type            fixedValue;
        value           nonuniform 0();
    }
    rightWall
    {
        type            fixedValue;
        value           uniform 0;
    }
    lowerWall
    {
        type            fixedValue;
        value           uniform 0;
    }
    atmosphere
    {
        type            calculated;
        value           nonuniform 0();
    }
    defaultFaces
    {
        type            empty;
        value           nonuniform 0();
    }
    procBoundary1to0
    {
        type            processor;
        value           nonuniform List<scalar> 
26
(
1.90131e-06
7.75238e-08
-1.94082e-07
5.36701e-07
5.96737e-07
6.33212e-06
1.16674e-05
-2.75365e-05
5.241e-05
-8.31117e-05
0.000115449
0.000180456
0.000234684
0.000308929
0.000292797
0.000242864
-4.973e-05
0.000220469
0.000336611
0.00025535
0.00013144
1.57801e-05
-8.94406e-05
-0.000142988
-0.00016502
-0.000166765
)
;
    }
    procBoundary1to3
    {
        type            processor;
        value           nonuniform List<scalar> 
23
(
-5.05152e-05
-5.36812e-05
-5.56502e-05
-5.62071e-05
-0.0001377
-0.000135447
-0.000114884
-7.85129e-05
-4.68446e-05
-3.63905e-05
-3.88285e-05
-4.73874e-05
-5.30167e-05
-5.85832e-05
-6.58861e-05
-8.17391e-05
-9.39892e-05
-0.000101069
-0.000111181
-0.000113939
-0.000107211
-8.95913e-05
-0.00010326
)
;
    }
}


// ************************************************************************* //
