/*--------------------------------*- C++ -*----------------------------------*\
| =========                 |                                                 |
| \\      /  F ield         | OpenFOAM: The Open Source CFD Toolbox           |
|  \\    /   O peration     | Version:  2.4.0                                 |
|   \\  /    A nd           | Web:      www.OpenFOAM.org                      |
|    \\/     M anipulation  |                                                 |
\*---------------------------------------------------------------------------*/
FoamFile
{
    version     2.0;
    format      ascii;
    class       surfaceScalarField;
    location    "1";
    object      phi.oil;
}
// * * * * * * * * * * * * * * * * * * * * * * * * * * * * * * * * * * * * * //

dimensions      [0 3 -1 0 0 0 0];

internalField   nonuniform List<scalar> 
1061
(
-1.07519e-07
2.43901e-07
1.16084e-07
4.42244e-07
2.88416e-05
4.28644e-05
-2.04485e-05
-3.71875e-05
6.24406e-06
3.73195e-05
1.44527e-05
3.19807e-05
1.81922e-05
4.62762e-05
2.17022e-05
5.20654e-05
2.36892e-05
5.66892e-05
2.29774e-05
8.15763e-05
1.80914e-05
0.000104637
1.55457e-05
0.000113614
1.80043e-05
8.00206e-05
1.87097e-05
6.84429e-05
1.61587e-05
6.44888e-05
1.11134e-05
6.02142e-05
1.16151e-05
5.26895e-05
1.52061e-05
4.70854e-05
8.55356e-06
5.19848e-05
-1.07633e-07
5.67948e-05
-7.14596e-06
5.43903e-05
-9.15509e-06
4.43308e-05
3.35967e-05
1.21694e-05
4.7688e-06
1.85718e-05
-1.66762e-06
2.16058e-05
4.77312e-06
2.07602e-05
1.91704e-06
2.47343e-05
-2.12703e-06
2.00632e-05
1.12434e-05
1.56675e-05
1.49164e-05
-2.54583e-06
2.60065e-05
-1.47384e-05
2.36345e-05
-1.4183e-05
1.52785e-05
-1.54668e-05
1.54485e-05
-1.93859e-05
2.5345e-05
-2.12268e-05
2.5607e-05
-1.12004e-05
1.55107e-05
-6.96419e-06
1.7722e-05
-8.93654e-06
3.80378e-05
-9.14701e-06
3.92873e-05
-8.38198e-06
2.8429e-05
1.54786e-05
-1.92479e-06
-4.90275e-05
-4.57002e-06
-3.4951e-05
3.18114e-08
-1.75958e-05
3.07546e-06
-6.02674e-06
-3.453e-06
1.09064e-06
-7.68596e-06
2.47735e-05
-1.18246e-05
4.17977e-05
-2.52336e-05
6.50137e-05
-4.56051e-05
6.54317e-05
-4.73728e-05
4.43249e-05
-4.5714e-05
4.16182e-05
-4.35894e-05
5.57786e-05
-3.64832e-05
5.45747e-05
-2.93126e-05
2.4512e-05
-1.72206e-05
2.11038e-05
-1.09874e-05
4.61741e-05
-8.23998e-06
5.03636e-05
-3.61764e-06
3.26362e-05
1.54628e-05
1.08828e-05
-3.59093e-05
1.32388e-05
-2.21631e-05
1.367e-05
-7.37043e-06
1.31736e-05
-4.81974e-06
1.34916e-05
-1.07762e-06
3.35869e-06
2.1728e-05
-1.07669e-05
3.57468e-05
-1.88903e-05
6.10407e-05
-3.32919e-05
5.84618e-05
-4.34484e-05
2.42297e-05
-4.46735e-05
1.86729e-05
-4.55302e-05
3.06942e-05
-4.41962e-05
2.98531e-05
-3.89294e-05
6.56279e-06
-2.85506e-05
9.2775e-07
-1.62529e-05
2.34569e-05
-8.28333e-06
3.35914e-05
-2.2703e-06
2.16406e-05
1.56111e-05
4.87204e-06
-3.06446e-05
-1.49079e-06
-2.15079e-05
-4.5143e-06
-9.94899e-06
-8.03599e-06
-2.1325e-06
-1.15213e-05
2.06286e-06
-9.67122e-06
2.00691e-05
-2.88456e-06
3.57119e-05
-3.69946e-07
6.28891e-05
-1.03685e-05
6.46763e-05
-1.90178e-05
2.61462e-05
-2.42694e-05
8.28288e-06
-3.36825e-05
1.67712e-05
-4.04524e-05
7.80806e-06
-3.7202e-05
-1.72895e-05
-3.48587e-05
-9.57926e-06
-1.88398e-05
1.84236e-05
-5.61507e-06
3.46079e-05
2.54624e-06
1.87048e-05
1.4589e-05
7.58484e-06
-3.56737e-05
1.18353e-05
-1.45709e-05
1.10002e-05
-8.01114e-06
5.38191e-06
4.07615e-06
-9.80505e-06
1.76569e-05
-1.52669e-05
2.46602e-05
-1.40013e-05
2.18936e-05
3.16097e-06
4.43996e-05
4.36961e-06
6.2124e-05
-9.49846e-06
4.01716e-05
-1.71769e-05
1.84519e-05
-1.64772e-05
1.72087e-05
-1.12232e-05
1.84747e-06
-2.00392e-05
-1.71708e-05
-2.7055e-05
-1.72967e-05
-2.06635e-05
7.6051e-06
-6.02406e-06
1.4923e-05
1.57113e-06
2.46941e-06
2.82089e-07
4.87103e-06
-4.05273e-05
1.49432e-06
-1.10282e-05
-5.58582e-06
-3.31506e-06
-1.22951e-05
1.00599e-05
-1.43504e-05
2.0094e-05
-1.61482e-05
2.99096e-05
-1.02906e-05
2.34331e-05
3.74142e-06
3.18731e-05
1.26281e-05
5.32052e-05
2.84925e-06
4.9058e-05
-1.08049e-05
2.97595e-05
-1.39523e-05
1.9816e-05
-1.35948e-05
2.39942e-06
-1.41935e-05
-1.67464e-05
-2.20942e-05
-1.59172e-05
-2.69093e-05
-5.80467e-06
-1.91617e-05
-1.1209e-05
-9.81016e-06
-2.40194e-05
-2.05761e-05
6.56668e-06
-4.71454e-05
3.75955e-06
-8.00965e-06
-5.5758e-07
2.70933e-06
-1.25745e-05
2.24035e-05
-2.0924e-05
2.86985e-05
-1.87591e-05
2.58568e-05
-1.61202e-05
1.4939e-05
-1.77704e-06
1.6458e-05
1.30212e-05
3.91803e-05
1.16247e-05
4.94301e-05
-5.37998e-07
4.36758e-05
-9.20779e-06
3.13029e-05
-1.10256e-05
3.92587e-06
-1.82187e-05
-8.84904e-06
-2.75424e-05
-7.42539e-06
-2.93924e-05
-9.16704e-06
-2.75321e-05
-1.69888e-05
-1.65824e-05
-3.52921e-05
-3.67266e-05
-3.65229e-05
-5.65261e-05
-1.66649e-05
-4.36695e-05
-1.71105e-05
-0.000117056
-1.32087e-05
-0.000182215
-2.14903e-05
-0.000225235
-6.91607e-05
-0.000270593
-0.000143599
-0.000272336
-0.000247924
-3.05332e-05
-2.41346e-05
-9.18338e-06
-1.94017e-05
1.03173e-05
-1.77569e-05
-1.75627e-05
2.96207e-05
-5.64049e-05
-1.1894e-05
-6.41237e-05
-1.23131e-05
-7.05383e-05
-1.22571e-05
-1.10319e-05
-7.80906e-05
-0.000119005
-9.51452e-06
-0.000121283
-9.75004e-06
-0.0001246
-8.83684e-06
-6.97337e-06
-0.00012862
-0.000182657
-8.6554e-06
-0.000182923
-9.02578e-06
-0.000182629
-8.75862e-06
-7.52448e-06
-0.000181841
-0.000221732
-1.18667e-05
-0.000216925
-1.37788e-05
-0.000212686
-1.31578e-05
-1.24809e-05
-0.00020833
-0.000260261
-2.81012e-05
-0.00024915
-2.84532e-05
-0.000237447
-2.71395e-05
-2.55358e-05
-0.00022682
-0.000261934
-6.4343e-05
-0.000254517
-6.30382e-05
-0.000248032
-6.1622e-05
-6.14689e-05
-0.000236668
-0.000241713
-4.3791e-05
-0.000232949
-5.10539e-05
-0.000224405
-8.29569e-05
-0.000101685
-0.000221261
-0.000213824
-4.55089e-05
-0.000172058
-4.44064e-05
-0.000189845
-5.22142e-05
-6.2013e-05
-0.000220798
-0.000322705
-5.11817e-05
-0.00030964
-5.55309e-05
-0.000294516
-6.11753e-05
-6.07481e-05
-0.000277354
-0.000246398
-5.56806e-05
-0.000236459
-6.2865e-05
-0.00022091
-7.15225e-05
-7.20116e-05
-0.000203423
-0.000115598
-6.61227e-05
-0.000101174
-7.61393e-05
-6.80314e-05
-8.60936e-05
-9.04473e-05
-4.77243e-05
-4.97669e-06
-7.03525e-05
5.63584e-07
-8.01393e-05
6.50046e-06
-8.8842e-05
-8.97529e-05
2.4569e-05
9.35766e-05
-6.92032e-05
9.15909e-05
-7.70739e-05
8.61196e-05
-8.39068e-05
-8.63714e-05
7.95348e-05
0.000141361
-6.54927e-05
0.000131267
-7.10691e-05
0.000122028
-7.47047e-05
-7.89095e-05
0.000108762
0.000160381
-5.87138e-05
0.000146736
-6.26427e-05
0.000141437
-6.22874e-05
-6.29285e-05
0.000117121
0.000158082
0.000133336
0.000142591
0.000141498
4.52149e-06
-2.38608e-05
-2.60809e-05
2.14766e-05
-4.54698e-05
2.10954e-05
-5.2639e-05
3.00515e-05
-5.29014e-05
3.19422e-05
-4.66138e-05
2.44121e-05
-3.33331e-05
6.26705e-06
-1.59558e-05
-6.66175e-07
1.41067e-05
1.03731e-05
3.11042e-05
3.14599e-05
2.57374e-05
4.84542e-05
7.70847e-06
5.11569e-05
-2.38248e-05
3.86071e-05
-4.66616e-05
1.51235e-05
-6.20004e-05
7.29982e-06
-6.04768e-05
-1.49398e-05
-4.15757e-05
-4.07186e-05
-1.95555e-05
-6.00102e-05
-5.65949e-05
-8.46908e-05
-1.77685e-05
-7.87101e-05
1.59777e-05
-8.41641e-05
2.81891e-05
-8.19066e-05
3.0084e-05
-7.01043e-05
2.23998e-05
-5.35631e-05
9.13228e-06
-4.11547e-05
-6.21503e-06
-2.72372e-05
-1.50222e-05
-6.42503e-06
-1.04783e-05
1.95305e-05
6.31099e-06
3.08655e-05
3.66384e-05
2.69057e-05
5.71215e-05
1.43585e-05
5.36817e-05
-4.78066e-06
3.50491e-05
-1.32025e-05
1.46194e-05
-1.10563e-05
-1.98146e-05
-8.35741e-06
-4.63257e-05
-4.34111e-06
-6.56366e-05
-6.19061e-05
-0.000138712
-7.68864e-06
-0.000134467
1.29634e-05
-0.000124162
2.07096e-05
-0.000103763
1.28528e-05
-7.70169e-05
-1.8961e-06
-5.38357e-05
-1.35241e-05
-3.80769e-05
-2.35594e-05
-2.73424e-05
-2.6978e-05
-1.63315e-05
-2.25782e-05
-3.09631e-07
-1.09123e-05
1.92213e-05
1.60359e-05
2.44743e-05
5.03362e-05
2.6171e-05
5.31201e-05
1.86902e-05
4.32634e-05
1.73182e-05
1.62541e-05
2.63948e-05
-2.87963e-05
2.55916e-05
-4.55293e-05
1.34792e-05
-5.40507e-05
-4.94124e-05
-0.000177159
-1.12338e-05
-0.000161933
4.28594e-08
-0.000137513
-1.04692e-06
-0.000110037
-1.3194e-05
-8.47094e-05
-2.72164e-05
-6.50681e-05
-3.40473e-05
-5.32071e-05
-3.69138e-05
-4.42868e-05
-3.81746e-05
-3.36494e-05
-3.60205e-05
-2.19116e-05
-2.58969e-05
-5.99636e-06
-4.78184e-06
1.04153e-05
3.03369e-05
1.96687e-05
4.33878e-05
2.20604e-05
4.13138e-05
2.90102e-05
1.00264e-05
3.79396e-05
-3.73525e-05
3.80324e-05
-4.66555e-05
2.11689e-05
-4.33798e-05
-3.74111e-05
-0.000192684
-2.67844e-05
-0.00017147
-2.00128e-05
-0.000149253
-2.2584e-05
-0.000129806
-3.28569e-05
-0.00011214
-4.54783e-05
-9.84637e-05
-4.87542e-05
-8.73166e-05
-4.91544e-05
-7.80937e-05
-4.82562e-05
-6.75625e-05
-4.73548e-05
-5.5708e-05
-3.94026e-05
-3.98558e-05
-2.28636e-05
-1.8876e-05
8.66543e-06
-5.33833e-08
2.37315e-05
1.73854e-05
2.33777e-05
3.48398e-05
-7.2707e-06
4.76629e-05
-5.53815e-05
4.45042e-05
-7.60429e-05
2.31865e-05
-7.79187e-05
-7.63829e-05
-0.000204539
-5.35763e-05
-0.000181872
-4.70213e-05
-0.000160496
-4.87227e-05
-0.000143605
-5.50725e-05
-0.000124735
-7.08212e-05
-0.000109717
-7.13666e-05
-9.68736e-05
-7.00014e-05
-8.82492e-05
-6.48731e-05
-8.10445e-05
-6.31317e-05
-7.4002e-05
-5.39917e-05
-6.23804e-05
-3.97552e-05
-3.87796e-05
-1.808e-05
-1.022e-05
-7.59411e-06
2.38625e-05
-1.7203e-05
4.59538e-05
-5.40174e-05
3.82612e-05
-0.000116371
9.98356e-06
-0.00014866
-5.84557e-06
-8.12782e-05
-8.2311e-05
-0.000207503
-0.000134542
-0.000179924
-0.000117399
-0.00015207
-0.00011957
-0.000130804
-0.000118399
-0.000115605
-0.000139679
-0.000103851
-0.000147016
-9.23105e-05
-0.000148045
-8.33762e-05
-0.000132456
-7.36259e-05
-0.000125506
-6.36767e-05
-0.000115241
-5.21765e-05
-0.000101284
-3.38145e-05
-8.18096e-05
-8.28369e-06
-7.94997e-05
1.37408e-05
-0.000118329
5.74793e-06
-0.000186459
-3.33706e-05
-9.05224e-05
-3.69361e-05
-0.000105969
-3.6906e-05
-5.12749e-05
-8.22374e-05
-0.000205916
-0.000269324
-0.00018192
-0.000275255
-0.000153359
-0.000284113
-0.000130498
-0.000288416
-0.000115493
-0.000447278
-0.000104517
-0.000235177
-9.28541e-05
-0.000138141
-8.22332e-05
-0.00011583
-7.21004e-05
-0.000102543
-6.27864e-05
-9.66218e-05
-5.3232e-05
-8.38188e-05
-4.57437e-05
-7.70752e-05
-4.75056e-05
-7.15846e-05
-9.3089e-05
-8.37478e-05
-0.000116096
-0.000114288
-0.000154722
-5.35462e-05
-7.09343e-05
-8.4154e-05
-1.77616e-05
-7.60477e-05
-9.21977e-05
-0.000293466
-0.000178002
-0.000334201
-0.0001937
-0.00035277
-0.000196011
-0.000460004
-0.000218389
-0.000430915
-0.000387018
-0.000343123
-0.000187822
-0.000241748
-8.35863e-05
-0.000238421
-7.84974e-05
-0.00025802
-6.50832e-05
-0.000276832
-6.05811e-05
-0.00027171
-6.74526e-05
-0.000237534
-9.73471e-05
-0.000219994
-0.000109071
-0.000190911
-9.55794e-05
-0.000100436
-3.8433e-05
-7.63724e-05
-6.38185e-05
-4.75056e-05
-0.00010236
-2.16944e-05
-9.51066e-05
-0.000117433
-0.000243245
-0.000146559
-0.000225437
-0.000126297
-0.000224569
-0.000103875
-0.000245699
-9.35551e-05
-0.000253154
-9.43149e-05
-0.000253279
-8.79167e-05
-0.000264844
-7.55771e-05
-0.000252919
-5.37366e-05
-0.00025424
-4.12643e-05
-0.000251584
-2.6715e-05
-0.000252945
-4.44674e-05
-0.000241302
-9.81371e-05
-0.000221707
-0.000122441
-0.000195983
-0.000117731
-0.000132809
-0.000104632
-7.23075e-05
-0.000133888
-3.82492e-05
-0.000139906
-1.22823e-05
-0.000123904
-0.000131682
-0.000164545
-0.000134832
-0.000131418
-0.000125801
-0.000108998
-0.000117407
-9.55292e-05
-9.39353e-05
-9.91776e-05
-7.68532e-05
-0.000114814
-6.3677e-05
-0.000140227
-4.50994e-05
-0.000181096
-1.85248e-05
-0.000217512
-3.20505e-06
-0.000229341
-1.94305e-05
-0.000201761
-6.9267e-05
-0.000162366
-0.000131661
-0.000139134
-0.000148586
-0.000124261
-0.00013049
-8.98971e-05
-0.000132383
-5.62541e-05
-0.000164019
-2.55016e-05
-0.000165396
-5.59821e-06
-0.000144872
-0.000157445
-2.07053e-05
-0.000198553
-9.31805e-06
-0.000175587
-1.51104e-05
-0.000128357
-2.2877e-05
-8.68821e-05
-4.08398e-05
-6.3755e-05
-7.17244e-05
-4.31134e-05
-8.94678e-05
-3.01521e-05
-9.28419e-05
-2.62735e-05
-7.58568e-05
-2.73762e-05
-5.31768e-05
-4.20994e-05
-2.91971e-05
-7.87914e-05
-1.22051e-05
-0.000130918
-1.08496e-05
-0.000153708
-1.576e-05
-0.000136839
-1.90015e-05
-0.000135211
-1.77471e-05
-0.000166241
-1.03401e-05
-0.000172965
-2.49067e-06
-0.000152401
-0.000162026
5.79745e-05
-0.000214773
4.8792e-05
-0.000202836
4.54717e-05
-0.000159331
3.62822e-05
-0.000102632
2.53427e-05
-6.9632e-05
3.04896e-05
-4.48573e-05
3.73062e-05
-3.23579e-05
4.10651e-05
-2.40729e-05
4.71653e-05
-2.4523e-05
5.46636e-05
-3.90835e-05
5.58212e-05
-7.34058e-05
4.97892e-05
-0.000112421
3.83898e-05
-0.000141836
2.90615e-05
-0.000131111
2.17182e-05
-0.000136987
1.48049e-05
-0.000160865
4.56409e-06
-0.000164956
2.48814e-06
-0.000141318
-0.000157852
0.000115704
-0.00019445
9.48822e-05
-0.00019624
8.04273e-05
-0.000159742
7.20836e-05
-0.000110921
5.57675e-05
-7.3178e-05
4.497e-05
-4.98809e-05
6.00925e-05
-3.91131e-05
7.6862e-05
-3.99654e-05
8.70644e-05
-3.91745e-05
8.76678e-05
-4.66906e-05
8.51024e-05
-6.7698e-05
6.61978e-05
-0.000101544
5.57447e-05
-0.000117409
4.5869e-05
-0.000121592
3.45777e-05
-0.00012706
2.61118e-05
-0.000144658
9.90122e-06
-0.000155229
5.43355e-06
-0.00014301
-0.000140398
0.000135042
-0.000169952
0.000101457
-0.000157498
8.46256e-05
-0.000136604
8.19834e-05
-9.99346e-05
7.2514e-05
-7.08699e-05
5.45084e-05
-4.85588e-05
6.28897e-05
-3.9942e-05
6.87019e-05
-4.33294e-05
7.92383e-05
-4.76935e-05
8.43597e-05
-5.44294e-05
8.07776e-05
-6.77931e-05
7.02165e-05
-8.97138e-05
5.37338e-05
-0.00010185
5.00683e-05
-0.000104461
3.85069e-05
-0.000104565
3.44942e-05
-0.000137615
1.24403e-05
-0.000141617
5.53542e-06
-0.000131155
-0.000120661
0.000120829
-0.000130847
8.75606e-05
-0.000122859
7.01084e-05
-0.000133154
7.57028e-05
-8.47465e-05
6.8495e-05
-5.2723e-05
6.2191e-05
-3.94136e-05
6.18023e-05
-3.69506e-05
6.81881e-05
-4.43783e-05
7.23963e-05
-5.03494e-05
7.30888e-05
-5.54263e-05
7.03857e-05
-6.49454e-05
6.43004e-05
-8.46891e-05
5.35443e-05
-9.80714e-05
5.18663e-05
-9.20438e-05
5.19953e-05
-0.000111927
4.1544e-05
-0.000128655
1.4946e-05
-0.000125153
9.92982e-06
-0.000108725
-0.000118274
9.25274e-05
7.61439e-05
5.50774e-05
5.14358e-05
5.35984e-05
5.21377e-05
5.69562e-05
6.25964e-05
6.58695e-05
6.92342e-05
7.05747e-05
6.82602e-05
6.39456e-05
6.02055e-05
5.49163e-05
3.91969e-05
1.44372e-05
1.06653e-05
)
;

boundaryField
{
    leftWall
    {
        type            fixedValue;
        value           nonuniform 0();
    }
    rightWall
    {
        type            fixedValue;
        value           uniform 0;
    }
    lowerWall
    {
        type            fixedValue;
        value           uniform 0;
    }
    atmosphere
    {
        type            calculated;
        value           nonuniform 0();
    }
    defaultFaces
    {
        type            empty;
        value           nonuniform 0();
    }
    procBoundary1to0
    {
        type            processor;
        value           nonuniform List<scalar> 
26
(
1.88996e-06
6.05336e-08
-2.40446e-07
5.47949e-07
6.00141e-07
7.36269e-06
1.65737e-05
1.51415e-05
5.30406e-05
2.31221e-05
0.000118557
0.000179403
0.000233233
0.00029571
0.000285248
0.000259882
-9.87012e-05
0.000228453
0.000331026
0.000252411
0.000124606
9.69755e-06
-9.2593e-05
-0.000139958
-0.000112774
-9.49757e-05
)
;
    }
    procBoundary1to3
    {
        type            processor;
        value           nonuniform List<scalar> 
23
(
-5.01096e-05
-5.30121e-05
-4.90437e-05
-4.20725e-05
-0.0001003
-0.000130899
-0.000116402
-7.74273e-05
-4.44891e-05
-3.60188e-05
-3.91841e-05
-4.77081e-05
-5.31729e-05
-5.85661e-05
-6.53758e-05
-8.02557e-05
-9.27956e-05
-0.000100685
-0.000111304
-0.000114159
-0.000107689
-8.39402e-05
-0.000107959
)
;
    }
}


// ************************************************************************* //
