/*--------------------------------*- C++ -*----------------------------------*\
| =========                 |                                                 |
| \\      /  F ield         | OpenFOAM: The Open Source CFD Toolbox           |
|  \\    /   O peration     | Version:  2.4.0                                 |
|   \\  /    A nd           | Web:      www.OpenFOAM.org                      |
|    \\/     M anipulation  |                                                 |
\*---------------------------------------------------------------------------*/
FoamFile
{
    version     2.0;
    format      ascii;
    class       surfaceScalarField;
    location    "1";
    object      phi.mercury;
}
// * * * * * * * * * * * * * * * * * * * * * * * * * * * * * * * * * * * * * //

dimensions      [0 3 -1 0 0 0 0];

internalField   nonuniform List<scalar> 
1061
(
-1.90132e-06
-1.97887e-06
-1.78478e-06
-2.49152e-06
-1.41999e-05
-0.000114925
-0.000216186
-0.000212487
5.38106e-06
-0.000100468
1.43336e-05
-0.000103753
1.87427e-05
-0.000103239
2.27369e-05
-8.77929e-05
2.61025e-05
-8.32284e-05
2.57483e-05
-9.26067e-05
2.24973e-05
-8.75524e-05
1.83892e-05
-7.3054e-05
1.87556e-05
-2.9396e-05
1.92093e-05
-1.4124e-05
1.79381e-05
-5.41399e-06
1.4107e-05
8.13617e-07
1.32167e-05
-1.12122e-06
1.55876e-05
-4.16748e-06
1.22154e-05
1.83442e-06
1.98451e-06
8.64935e-06
-7.4747e-06
7.90214e-06
-8.64134e-06
-2.23603e-07
-1.00416e-05
8.1866e-06
-0.000177799
1.16731e-05
-0.000147748
1.63483e-05
-8.06375e-05
2.42269e-05
-4.89342e-05
2.92791e-05
-4.82591e-05
3.05458e-05
-6.10364e-05
2.08302e-05
-6.05348e-05
1.35326e-06
-4.2817e-05
-1.18094e-05
-1.06356e-05
-1.26495e-05
-7.09893e-06
-1.15593e-05
-2.13441e-06
-1.51451e-05
6.01268e-06
-1.91983e-05
3.80814e-06
-1.05416e-05
-1.22655e-05
-2.82563e-06
-4.90425e-06
-6.12328e-06
1.26221e-05
-9.02881e-06
1.13149e-05
-7.83865e-06
-9.13595e-07
-1.75601e-05
4.99693e-06
-0.000233186
4.54488e-06
-0.000175756
5.47634e-06
-5.76247e-05
6.66406e-06
-3.21495e-05
1.65263e-06
-2.74203e-05
-1.64638e-05
-1.36285e-05
-3.497e-05
-5.23621e-05
-4.04609e-05
-4.16283e-05
-4.60331e-05
-2.89251e-05
-4.72399e-05
-2.8749e-05
-4.39496e-05
-2.53183e-05
-4.08188e-05
-1.3789e-05
-3.60033e-05
-1.34402e-05
-2.77686e-05
-2.59504e-05
-1.40425e-05
-1.97431e-05
-8.67502e-06
6.71782e-06
-8.45298e-06
1.06375e-05
-3.75326e-06
-5.9513e-06
-2.14295e-05
5.52272e-06
-0.000223709
7.61947e-06
-0.000161701
1.0984e-05
-4.8925e-05
1.08958e-05
-3.70676e-05
1.16165e-05
-2.01426e-05
-7.62444e-06
5.04631e-06
-2.9006e-05
-3.03751e-05
-3.39052e-05
-4.526e-05
-3.73168e-05
-3.65761e-05
-4.19491e-05
-4.61427e-05
-4.35288e-05
-7.60967e-05
-4.34713e-05
-6.49885e-05
-4.15407e-05
-6.32377e-05
-3.59608e-05
-5.7023e-05
-2.46499e-05
-3.5146e-05
-1.40967e-05
-3.63687e-06
-8.40258e-06
5.22408e-06
-2.36603e-06
-1.20734e-05
-2.55497e-05
4.51818e-06
-0.00022188
3.15174e-06
-0.000146806
1.33388e-06
-4.77089e-05
-2.54722e-06
-3.77788e-05
-6.66737e-06
-2.15472e-05
-1.0682e-05
-1.27734e-05
-1.34732e-05
-1.23443e-05
-1.86505e-05
-3.75578e-05
-2.13006e-05
-5.23583e-05
-2.38848e-05
-6.58534e-05
-2.75856e-05
-7.26745e-05
-3.3782e-05
-7.63217e-05
-3.71622e-05
-0.00011508
-3.4277e-05
-0.000111386
-2.95787e-05
-6.2278e-05
-1.70959e-05
-2.1897e-05
-6.91062e-06
-7.98273e-06
8.69956e-07
-2.77528e-05
-4.35788e-05
5.31415e-06
-0.000223866
6.81813e-06
-0.000134352
1.01355e-05
-4.16244e-05
5.87789e-06
-2.52134e-05
-6.69484e-06
-2.31909e-06
-1.43575e-05
6.91278e-06
-1.23638e-05
2.21223e-06
-8.17313e-06
-2.08286e-06
-4.22397e-06
-1.25721e-05
-3.52061e-06
-2.04752e-05
-1.23111e-05
-5.70578e-06
-1.16565e-05
-3.77649e-05
-1.14695e-05
-0.000113634
-1.93035e-05
-0.000141438
-2.49783e-05
-0.000105578
-1.96366e-05
-6.11709e-05
-7.71508e-06
-4.70422e-05
-3.34031e-07
-7.21177e-05
-0.000106011
4.0461e-06
-0.00022476
2.05242e-06
-0.000125244
-2.65926e-06
-4.31638e-05
-9.6555e-06
-2.1241e-05
-1.3689e-05
-7.69978e-06
-1.57948e-05
-2.76985e-06
-1.19443e-05
-1.23054e-05
-1.72925e-06
-6.18733e-06
7.49728e-06
2.25042e-05
1.54282e-06
2.61463e-05
-9.61531e-06
1.07852e-05
-9.80365e-06
-3.87641e-05
-1.30835e-05
-0.000114947
-1.89309e-05
-0.000151183
-2.3714e-05
-0.000135247
-2.47005e-05
-0.000111687
-1.55596e-05
-8.78746e-05
-6.56876e-06
-8.82656e-05
-0.00011162
4.18045e-06
-0.000225998
2.24961e-06
-9.24073e-05
-3.18095e-07
-4.26889e-05
-1.04803e-05
2.4982e-06
-1.9861e-05
9.15512e-06
-1.96938e-05
-2.36175e-06
-1.76141e-05
-2.72515e-05
-6.9611e-06
-3.70218e-05
8.09678e-06
-5.96548e-06
1.01757e-05
1.7132e-05
9.52426e-07
8.14708e-06
-5.76943e-06
-2.93026e-05
-1.15182e-05
-0.000104367
-1.86565e-05
-0.000135632
-2.32644e-05
-0.000134089
-2.56032e-05
-0.000127335
-2.37354e-05
-9.75409e-05
-1.30167e-05
-9.24833e-05
-9.03984e-05
-0.000131069
-3.7456e-05
-6.37336e-05
-8.58704e-05
-7.6356e-05
-0.000162315
-8.20462e-05
-0.000211716
-8.46878e-05
-0.000237179
-9.89911e-05
-0.000259824
-0.000107066
-0.000260904
-0.000216511
-2.45483e-05
-6.17143e-05
-1.32741e-05
-5.67814e-05
2.15673e-06
-5.43204e-05
-5.51527e-05
1.63093e-05
-9.25987e-05
-3.21996e-05
-9.55754e-05
-3.06456e-05
-9.74487e-05
-2.81059e-05
-2.56546e-05
-9.95528e-05
-0.000162422
-3.69031e-05
-0.000161549
-3.59155e-05
-0.000159052
-3.38021e-05
-3.06123e-05
-0.000156691
-0.000210116
-3.99639e-05
-0.000207209
-4.04344e-05
-0.000202197
-3.97897e-05
-3.75798e-05
-0.000195888
-0.000233994
-4.12659e-05
-0.000227897
-4.15851e-05
-0.000220925
-4.05698e-05
-3.92823e-05
-0.000208459
-0.000251576
-4.61851e-05
-0.000242078
-4.5935e-05
-0.000233645
-4.42903e-05
-4.27177e-05
-0.000222458
-0.000251983
-6.38012e-05
-0.000243615
-6.94334e-05
-0.000242498
-6.17964e-05
-6.05935e-05
-0.000234923
-0.000222379
-3.22896e-05
-0.000234037
-3.33613e-05
-0.000223772
-4.89741e-05
-5.16911e-05
-0.00022093
-0.000214053
-4.09014e-05
-0.000213782
-3.44865e-05
-0.000218934
-2.98914e-05
-2.65678e-05
-0.000224266
-0.000329271
-4.92855e-05
-0.000315732
-5.27434e-05
-0.000300802
-5.85507e-05
-5.84601e-05
-0.000283592
-0.000249928
-5.46877e-05
-0.000240783
-6.18485e-05
-0.00022894
-7.03434e-05
-7.39979e-05
-0.000213335
-0.00012024
-6.58179e-05
-0.000106547
-7.54973e-05
-9.1205e-05
-8.56498e-05
-9.05734e-05
-7.46079e-05
-1.08702e-05
-7.06535e-05
-5.57623e-06
-8.07791e-05
-2.39311e-06
-8.88084e-05
-9.28221e-05
-9.89672e-08
8.92057e-05
-7.0362e-05
8.70824e-05
-7.86586e-05
8.26781e-05
-8.44015e-05
-8.68575e-05
7.67172e-05
0.000138412
-6.57784e-05
0.000130911
-7.11565e-05
0.000122409
-7.58881e-05
-7.77965e-05
0.000113341
0.000158316
-5.90784e-05
0.000150451
-6.32922e-05
0.000141802
-6.72342e-05
-6.8222e-05
0.000132229
0.000158194
0.000148589
0.00013702
0.000125016
-3.33387e-06
-0.000126564
-3.05293e-05
-1.14978e-05
-4.21794e-05
-1.28867e-05
-5.22974e-05
-5.49136e-06
-5.63695e-05
-2.1848e-05
-5.51799e-05
-5.26986e-05
-5.03401e-05
-8.1896e-05
-3.92873e-05
-9.32089e-05
-9.83075e-06
-8.37976e-05
1.42541e-05
-4.0604e-05
1.65952e-05
-3.17434e-05
3.59944e-06
-2.75972e-05
-1.96724e-05
-8.16975e-05
-3.18369e-05
-9.37496e-05
-3.32462e-05
-0.000101963
-2.78843e-05
-0.00011734
-2.24345e-05
-9.14152e-05
-1.02766e-05
-9.92235e-05
-0.000102494
-9.22289e-05
-4.73605e-05
-8.16024e-05
-2.27473e-05
-8.94334e-05
-1.89909e-05
-8.9657e-05
-3.66743e-05
-8.06814e-05
-6.85605e-05
-7.17609e-05
-9.36913e-05
-6.43528e-05
-0.000111614
-5.52234e-05
-0.000116878
-3.81155e-05
-0.00011211
-1.33112e-05
-9.16243e-05
2.77049e-06
-6.61321e-05
4.6142e-06
-5.05132e-05
-2.58621e-07
-6.30915e-05
-4.27572e-06
-4.87629e-05
-5.69743e-06
-6.89449e-05
4.58176e-07
-0.000119832
3.16385e-06
-9.92187e-05
1.71605e-06
-0.000101539
-0.000105967
-0.000152799
-6.24486e-05
-0.000140799
-5.0133e-05
-0.000128515
-5.81717e-05
-0.000112758
-7.99309e-05
-9.46014e-05
-0.000100816
-7.97224e-05
-0.000108745
-6.80264e-05
-0.000107935
-5.83952e-05
-0.000104309
-4.79604e-05
-0.000101487
-3.43386e-05
-0.000103777
-1.54778e-05
-8.59242e-05
-4.4053e-06
-6.0981e-05
3.55175e-06
-3.65731e-05
8.72573e-06
-1.43892e-05
9.95858e-06
-3.35399e-05
1.7761e-05
-8.47201e-05
2.33049e-05
-8.30978e-05
1.5137e-05
-8.78917e-05
-9.43628e-05
-0.000179196
-8.47353e-05
-0.000161298
-7.76501e-05
-0.000142287
-8.36936e-05
-0.000123173
-9.57625e-05
-0.000107566
-0.000103414
-9.45657e-05
-0.000101003
-8.29607e-05
-9.39158e-05
-7.17894e-05
-8.80452e-05
-6.02016e-05
-8.48286e-05
-4.99668e-05
-8.26342e-05
-3.30572e-05
-7.1833e-05
-1.25956e-05
-5.04087e-05
3.43933e-06
-1.25358e-05
1.11443e-05
-2.99661e-06
2.15925e-05
-2.36774e-05
3.41546e-05
-6.05754e-05
3.57382e-05
-6.84132e-05
2.02176e-05
-6.97338e-05
-7.39042e-05
-0.000189257
-9.04146e-05
-0.000170852
-8.49341e-05
-0.000154761
-8.65999e-05
-0.000140318
-9.01797e-05
-0.000126164
-9.66005e-05
-0.000111964
-9.37058e-05
-9.91862e-05
-8.98481e-05
-8.94019e-05
-8.5969e-05
-7.92554e-05
-8.23196e-05
-6.68065e-05
-7.13253e-05
-4.98273e-05
-5.52174e-05
-2.82607e-05
-3.33466e-05
-8.90959e-06
-1.19819e-05
8.68388e-06
-9.79943e-06
2.64105e-05
-3.5362e-05
3.92929e-05
-7.58522e-05
3.95404e-05
-9.01111e-05
2.16035e-05
-7.5884e-05
-6.62665e-05
-0.000202557
-9.60674e-05
-0.00018288
-9.19598e-05
-0.000163321
-9.23362e-05
-0.00014672
-9.49548e-05
-0.000129078
-0.00010773
-0.000114016
-0.000105402
-0.000101491
-0.000102097
-9.25381e-05
-9.52017e-05
-8.44226e-05
-9.13238e-05
-7.50562e-05
-8.11092e-05
-6.12797e-05
-6.68208e-05
-4.01642e-05
-4.53273e-05
-1.66415e-05
-3.45764e-05
1.40236e-05
-4.13842e-05
3.76099e-05
-6.79412e-05
3.25288e-05
-0.000106569
1.12789e-05
-3.94016e-05
-5.88017e-06
-4.9139e-05
-6.66247e-05
-0.000206798
-0.000134036
-0.000180299
-0.000119434
-0.000154388
-0.000123227
-0.000133756
-0.000122041
-0.000118044
-0.000142683
-0.000105219
-0.000150954
-9.37247e-05
-0.000157036
-8.44698e-05
-0.000140608
-7.40495e-05
-0.000130693
-6.27451e-05
-0.000117939
-5.03698e-05
-0.000103315
-3.32396e-05
-8.59854e-05
-9.18331e-06
-8.31247e-05
1.09811e-05
-9.12871e-05
6.12455e-06
-3.85261e-06
-5.08991e-06
-6.02687e-05
-3.99427e-05
3.72535e-05
-4.61217e-05
-5.50113e-06
-6.72962e-05
-0.000208169
-0.000129257
-0.000182833
-0.000126398
-0.000155523
-0.000129283
-0.000133787
-0.000125202
-0.000119174
-0.000130724
-0.000107082
-0.000105857
-9.5152e-05
-0.000106133
-8.42655e-05
-9.6429e-05
-7.43896e-05
-8.73745e-05
-6.37619e-05
-8.45039e-05
-5.31872e-05
-7.14976e-05
-4.60436e-05
-6.73613e-05
-4.44914e-05
-6.15082e-05
-5.57031e-05
-5.74074e-05
-0.000153186
9.33575e-05
-0.000198722
-4.5206e-05
-7.59356e-05
-7.49715e-05
-1.67108e-05
-6.56569e-05
-8.43792e-05
-0.00023259
-7.44161e-05
-0.000242065
-7.50434e-05
-0.000249476
-7.86685e-05
-0.000250136
-9.01341e-05
-0.000265281
-9.07035e-05
-0.000267411
-6.68228e-05
-0.000266791
-6.3367e-05
-0.000282888
-5.0855e-05
-0.000314867
-3.02891e-05
-0.000353442
-3.46729e-05
-0.000373061
-4.63759e-05
-0.000345649
-8.11822e-05
-0.000293005
-9.7708e-05
-0.00020971
-8.48189e-05
-0.000101086
-3.53764e-05
-7.55667e-05
-7.47637e-05
-4.81318e-05
-0.00010838
-2.33333e-05
-9.2322e-05
-0.000107596
-0.000247902
-0.000142894
-0.000228483
-0.000121865
-0.000230904
-9.94233e-05
-0.000249793
-8.85504e-05
-0.000263423
-9.12601e-05
-0.000259652
-8.65808e-05
-0.000260716
-7.33455e-05
-0.000259845
-5.80253e-05
-0.000252191
-4.25574e-05
-0.000254903
-3.12611e-05
-0.000257085
-4.3971e-05
-0.000246245
-9.27306e-05
-0.000225609
-0.000118124
-0.000197164
-0.000112546
-0.000131869
-9.87016e-05
-7.34979e-05
-0.000131002
-4.24975e-05
-0.000138493
-1.53078e-05
-0.000118174
-0.000122441
-0.000172146
-0.000183728
-0.00013569
-0.000157416
-0.000109744
-0.000123056
-9.5655e-05
-9.71849e-05
-9.97268e-05
-7.97034e-05
-0.000114787
-6.54534e-05
-0.000139465
-4.6496e-05
-0.000179497
-1.666e-05
-0.000217861
-1.57467e-06
-0.000228951
-1.79046e-05
-0.0002073
-6.30494e-05
-0.000174571
-0.000122359
-0.000146985
-0.000144587
-0.000126303
-0.00013288
-8.9611e-05
-0.000135704
-5.68529e-05
-0.000162572
-3.10133e-05
-0.000163771
-9.65031e-06
-0.000139428
-0.000131527
-4.76282e-05
-0.00021068
-2.84124e-05
-0.000176666
-1.79577e-05
-0.000133592
-2.43987e-05
-9.10412e-05
-4.29017e-05
-6.19136e-05
-7.11361e-05
-3.90869e-05
-9.17568e-05
-2.72702e-05
-8.82086e-05
-2.15043e-05
-6.70228e-05
-2.31528e-05
-4.65923e-05
-3.95854e-05
-3.12446e-05
-7.93548e-05
-2.29472e-05
-0.000130396
-1.84085e-05
-0.000149214
-1.9831e-05
-0.000131298
-2.16932e-05
-0.000133433
-1.91388e-05
-0.000165873
-1.23722e-05
-0.000171421
-4.6315e-06
-0.000147355
-0.000135833
5.15437e-06
-0.000215742
1.82225e-05
-0.000189958
3.44251e-05
-0.000149892
3.41713e-05
-9.08029e-05
2.94962e-05
-5.72955e-05
3.36371e-05
-4.31547e-05
3.81166e-05
-3.06177e-05
4.32023e-05
-2.4316e-05
4.91849e-05
-2.78707e-05
5.50957e-05
-4.42778e-05
5.39893e-05
-7.70669e-05
4.28222e-05
-0.000118957
3.14359e-05
-0.000138599
2.41787e-05
-0.000124929
2.03418e-05
-0.000129774
1.32258e-05
-0.000158606
5.88434e-06
-0.000164022
2.01324e-06
-0.000143669
-0.00013382
6.52207e-05
-0.00020396
6.3365e-05
-0.000188201
6.76705e-05
-0.00015427
6.73772e-05
-9.05285e-05
6.03858e-05
-5.03161e-05
5.7115e-05
-3.9868e-05
6.36151e-05
-3.72159e-05
7.73786e-05
-3.89332e-05
8.76403e-05
-3.8321e-05
9.14023e-05
-4.78685e-05
8.49557e-05
-7.08676e-05
6.83479e-05
-0.000102817
5.11836e-05
-0.000121665
4.18565e-05
-0.000115996
3.48769e-05
-0.000122908
2.48993e-05
-0.00014858
1.52526e-05
-0.000154367
5.69032e-06
-0.000134104
-0.000128162
9.61096e-05
-0.000186583
8.39327e-05
-0.000176085
7.64271e-05
-0.000146777
7.46047e-05
-8.86807e-05
7.16255e-05
-4.7343e-05
6.79948e-05
-3.62275e-05
6.74229e-05
-3.66324e-05
7.09833e-05
-4.24537e-05
7.87475e-05
-4.74552e-05
8.508e-05
-5.42488e-05
8.23521e-05
-6.7779e-05
7.08465e-05
-9.07918e-05
5.5846e-05
-0.00010589
4.76542e-05
-0.000107949
4.25533e-05
-0.000117642
3.39261e-05
-0.000139897
2.05361e-05
-0.000141053
5.16914e-06
-0.000118757
-0.000123085
0.000109596
-0.000163924
9.21909e-05
-0.000158715
7.83253e-05
-0.000132903
7.41185e-05
-8.44599e-05
7.15073e-05
-4.46985e-05
6.89019e-05
-3.36126e-05
6.7919e-05
-3.56299e-05
6.97137e-05
-4.42273e-05
7.21339e-05
-5.0093e-05
7.31417e-05
-5.51794e-05
7.06335e-05
-6.45848e-05
6.4155e-05
-8.43611e-05
5.64435e-05
-9.85238e-05
5.35823e-05
-0.000105065
5.27283e-05
-0.00011667
4.18082e-05
-0.000128964
2.54183e-05
-0.000124738
9.26544e-06
-0.00010252
-0.000113889
9.87535e-05
7.54844e-05
5.7476e-05
5.15473e-05
5.37101e-05
5.65121e-05
5.97262e-05
6.29154e-05
6.58502e-05
6.92594e-05
7.0584e-05
6.81555e-05
6.39107e-05
6.01452e-05
5.48325e-05
4.00945e-05
2.28055e-05
1.04109e-05
)
;

boundaryField
{
    leftWall
    {
        type            fixedValue;
        value           nonuniform 0();
    }
    rightWall
    {
        type            fixedValue;
        value           uniform 0;
    }
    lowerWall
    {
        type            fixedValue;
        value           uniform 0;
    }
    atmosphere
    {
        type            calculated;
        value           nonuniform 0();
    }
    defaultFaces
    {
        type            empty;
        value           nonuniform 0();
    }
    procBoundary1to0
    {
        type            processor;
        value           nonuniform List<scalar> 
26
(
1.90131e-06
7.75321e-08
-1.94086e-07
5.3601e-07
6.22225e-07
6.87462e-06
2.19524e-05
1.96564e-05
4.05262e-05
6.92941e-05
0.000161878
0.000214137
0.000245024
0.000273173
0.00027478
0.000178801
-4.7901e-05
0.000219408
0.000336553
0.000255355
0.000131416
1.57296e-05
-8.9467e-05
-0.000143003
-0.000165009
-0.00016671
)
;
    }
    procBoundary1to3
    {
        type            processor;
        value           nonuniform List<scalar> 
23
(
-5.05171e-05
-5.36847e-05
-5.56507e-05
-5.62041e-05
-0.000137692
-0.000135446
-0.000114886
-7.85146e-05
-4.6851e-05
-3.63944e-05
-3.88382e-05
-4.73965e-05
-5.30245e-05
-5.85066e-05
-6.5681e-05
-8.16375e-05
-9.40111e-05
-0.000101121
-0.00011144
-0.000114205
-0.000107476
-8.98965e-05
-0.000103518
)
;
    }
}


// ************************************************************************* //
