/*--------------------------------*- C++ -*----------------------------------*\
| =========                 |                                                 |
| \\      /  F ield         | OpenFOAM: The Open Source CFD Toolbox           |
|  \\    /   O peration     | Version:  2.4.0                                 |
|   \\  /    A nd           | Web:      www.OpenFOAM.org                      |
|    \\/     M anipulation  |                                                 |
\*---------------------------------------------------------------------------*/
FoamFile
{
    version     2.0;
    format      ascii;
    class       surfaceScalarField;
    location    "1";
    object      phi.water;
}
// * * * * * * * * * * * * * * * * * * * * * * * * * * * * * * * * * * * * * //

dimensions      [0 3 -1 0 0 0 0];

internalField   nonuniform List<scalar> 
1061
(
-1.90109e-06
-1.9772e-06
-1.06843e-06
2.53255e-05
2.80152e-05
1.98535e-05
-3.01756e-05
-5.95724e-05
6.46477e-06
4.22379e-06
1.46233e-05
1.15332e-06
1.84125e-05
1.0384e-05
2.18616e-05
1.31649e-05
2.40326e-05
1.89628e-05
2.15689e-05
4.25537e-05
1.61269e-05
6.65499e-05
1.51957e-05
8.89796e-05
1.79728e-05
6.61264e-05
1.8716e-05
5.97323e-05
1.62208e-05
5.87883e-05
1.13474e-05
5.59159e-05
1.16227e-05
4.94098e-05
1.46573e-05
4.37358e-05
1.01855e-05
4.48796e-05
1.94824e-06
4.30468e-05
-7.27651e-06
2.38415e-05
-8.68048e-06
1.15922e-05
2.69544e-06
1.22958e-05
-2.36128e-05
1.96121e-05
-2.04292e-05
2.3029e-05
-9.28033e-06
2.21831e-05
-1.29316e-05
2.54356e-05
-1.43992e-05
2.15566e-05
1.3289e-06
1.7649e-05
6.42214e-06
-6.54961e-07
3.02169e-05
-1.32891e-05
2.98079e-05
-1.39135e-05
2.03467e-05
-1.52444e-05
1.98288e-05
-1.92768e-05
2.79476e-05
-2.12793e-05
2.77958e-05
-1.14766e-05
1.70111e-05
-6.51789e-06
1.94842e-05
-6.90751e-06
3.54108e-05
-8.98729e-06
2.28255e-05
-7.87083e-06
7.28419e-06
-4.64245e-06
2.23535e-06
-8.07892e-05
-1.63426e-06
-6.60205e-05
1.85956e-06
-4.96099e-05
5.6897e-06
-3.66476e-05
3.61939e-07
-3.34803e-05
-5.37045e-06
-1.96674e-05
-9.37803e-06
-4.93589e-06
-2.16824e-05
3.39973e-05
-3.98387e-05
4.35912e-05
-4.54977e-05
2.89901e-05
-4.47289e-05
2.95056e-05
-4.30362e-05
4.51001e-05
-3.64428e-05
4.61453e-05
-2.91473e-05
2.0446e-05
-1.66181e-05
1.85894e-05
-9.42811e-06
4.0732e-05
-8.32655e-06
2.88357e-05
-3.48146e-06
4.55833e-06
-3.3397e-06
1.0011e-05
-6.69747e-05
1.00658e-05
-5.79835e-05
1.12452e-05
-4.20222e-05
1.06343e-05
-3.88023e-05
1.06964e-05
-2.56809e-05
3.83484e-06
-4.98352e-06
-7.96016e-06
1.47507e-05
-1.85791e-05
4.46348e-05
-3.12808e-05
4.58879e-05
-4.08982e-05
2.21728e-05
-4.23089e-05
1.49377e-05
-4.3802e-05
2.60828e-05
-4.37693e-05
2.53829e-05
-3.86776e-05
5.89722e-06
-2.83672e-05
-4.10626e-07
-1.48029e-05
2.21667e-05
-8.53898e-06
1.90729e-05
-1.62818e-06
1.35725e-05
9.99146e-06
6.8068e-06
-5.79467e-05
2.80021e-06
-4.88042e-05
-7.52599e-07
-3.28365e-05
-5.14976e-06
-2.36667e-05
-1.0373e-05
-1.063e-05
-9.83234e-06
-5.45612e-06
-3.22394e-06
2.28686e-06
-1.40332e-06
4.01672e-05
-1.1961e-05
5.05054e-05
-2.06489e-05
1.81148e-05
-2.43332e-05
-6.53274e-06
-3.27772e-05
6.88544e-07
-3.75308e-05
-5.87164e-06
-3.52936e-05
-2.73338e-05
-3.39689e-05
-1.07083e-05
-1.79441e-05
1.52207e-05
-4.65079e-06
2.60045e-05
2.3976e-06
1.48254e-05
9.74555e-06
6.80106e-06
-6.07254e-05
8.98545e-06
-4.20164e-05
9.42972e-06
-3.65935e-05
3.80732e-06
-2.43366e-05
-1.11185e-05
-1.71996e-06
-1.59191e-05
1.04831e-05
-1.33561e-05
1.06848e-05
1.00624e-06
2.6059e-05
2.58268e-06
4.81429e-05
-9.46405e-06
2.95552e-05
-1.6859e-05
-6.66232e-07
-1.73708e-05
-6.76504e-06
-1.355e-05
-1.85755e-05
-2.18124e-05
-3.72483e-05
-2.74689e-05
-2.52141e-05
-2.09927e-05
3.71679e-07
-6.51815e-06
8.73004e-06
5.19084e-07
-7.82386e-06
-9.2701e-06
4.06112e-06
-6.35644e-05
1.51972e-06
-3.67369e-05
-4.01806e-06
-2.51421e-05
-1.22224e-05
-1.25031e-05
-1.5877e-05
-4.02432e-06
-1.59376e-05
2.59882e-06
-1.06911e-05
1.13344e-06
1.26224e-06
1.36595e-05
1.01655e-05
3.92947e-05
3.25293e-06
3.76882e-05
-9.81649e-06
1.95837e-05
-1.49664e-05
4.89165e-06
-1.53269e-05
-2.3675e-05
-1.77487e-05
-3.53475e-05
-2.53597e-05
-3.27999e-05
-2.73226e-05
-2.52627e-05
-1.86198e-05
-3.03745e-05
-9.65806e-06
-4.48131e-05
-4.21994e-05
3.67639e-06
-6.6952e-05
1.0956e-06
-3.25952e-05
-2.10206e-06
-2.51282e-05
-1.37586e-05
4.09199e-06
-2.18893e-05
1.24589e-05
-1.91662e-05
9.93344e-06
-1.63023e-05
2.56882e-06
-3.82647e-06
1.66554e-06
1.03695e-05
2.49334e-05
1.13945e-05
3.72223e-05
3.77374e-07
3.17496e-05
-9.45505e-06
1.34013e-05
-1.40502e-05
-1.40152e-05
-2.18457e-05
-2.97403e-05
-2.90185e-05
-2.79392e-05
-2.90353e-05
-3.08606e-05
-2.57635e-05
-4.09447e-05
-1.52895e-05
-5.85497e-05
-5.82761e-05
-5.40977e-05
-6.22494e-05
-3.6411e-05
-6.84854e-05
-3.95951e-05
-0.000134733
-4.02182e-05
-0.000194417
-4.97354e-05
-0.000231642
-0.000109796
-0.000266745
-0.000195729
-0.00026479
-0.000204063
-3.79437e-05
-3.28575e-05
-1.79361e-05
-2.77016e-05
5.56435e-08
-2.65231e-05
-2.62945e-05
1.46763e-05
-8.024e-05
-2.09402e-05
-8.77219e-05
-2.11062e-05
-9.28541e-05
-2.08815e-05
-1.9601e-05
-9.71571e-05
-0.000136769
-1.95177e-05
-0.000139254
-1.93005e-05
-0.000141436
-1.79128e-05
-1.56675e-05
-0.000143457
-0.000193854
-2.01821e-05
-0.000192778
-2.04232e-05
-0.00019058
-1.94133e-05
-1.72392e-05
-0.000187398
-0.000228545
-2.46514e-05
-0.000223381
-2.55349e-05
-0.000217366
-2.41665e-05
-2.28306e-05
-0.000208943
-0.000257312
-4.31971e-05
-0.000246519
-4.15759e-05
-0.000235631
-3.94665e-05
-3.76705e-05
-0.000223654
-0.00025294
-8.90112e-05
-0.000244387
-8.88535e-05
-0.000241306
-8.82851e-05
-8.85234e-05
-0.000233196
-0.000204419
-5.13816e-05
-0.000205495
-4.82564e-05
-0.000208241
-5.61555e-05
-6.04616e-05
-0.000209683
-0.000214036
-4.15253e-05
-0.000201075
-3.10701e-05
-0.000218689
-2.24863e-05
-1.96074e-05
-0.000229818
-0.000326857
-4.86196e-05
-0.000313644
-5.06884e-05
-0.000298951
-5.72273e-05
-5.86285e-05
-0.000282201
-0.000246513
-5.62752e-05
-0.000236489
-6.36545e-05
-0.000222629
-7.05356e-05
-7.19525e-05
-0.000208408
-0.000116813
-6.6212e-05
-9.8427e-05
-7.58432e-05
-8.30824e-05
-8.53192e-05
-9.21222e-05
-6.80556e-05
-6.74292e-06
-6.87612e-05
-6.49201e-07
-7.895e-05
2.70761e-06
-8.73291e-05
-7.95053e-05
4.643e-06
9.43873e-05
-6.58371e-05
8.72934e-05
-7.69312e-05
8.26891e-05
-8.34426e-05
-8.68844e-05
7.42944e-05
0.000143753
-6.32225e-05
0.000128412
-6.98225e-05
0.000115952
-7.61947e-05
-7.79531e-05
0.000113935
0.000151861
-3.99135e-05
0.000144791
-5.29098e-05
0.000136134
-6.38145e-05
-6.83973e-05
0.000132711
0.000158583
0.000148299
0.000137131
0.000125063
-9.14019e-06
-4.38464e-05
-3.24478e-05
-4.56194e-06
-4.88083e-05
-4.20972e-06
-5.51629e-05
6.22581e-06
-5.35499e-05
9.15547e-06
-4.72903e-05
3.47849e-06
-3.59411e-05
-1.00369e-05
-1.9582e-05
-1.57322e-05
8.85404e-06
-5.01218e-06
2.78086e-05
1.77229e-05
2.73799e-05
3.44441e-05
1.12435e-05
3.7571e-05
-2.45324e-05
2.28724e-05
-5.17042e-05
-6.85702e-06
-6.34981e-05
-1.67067e-05
-5.74446e-05
-3.79748e-05
-3.7579e-05
-6.14489e-05
-1.67567e-05
-8.02677e-05
-7.73033e-05
-9.44471e-05
-3.88642e-05
-8.33136e-05
-6.48742e-06
-8.67242e-05
7.08526e-06
-8.33683e-05
8.6161e-06
-6.99357e-05
2.81822e-06
-5.55958e-05
-8.80089e-06
-4.3658e-05
-2.32108e-05
-3e-05
-3.12748e-05
-1.01468e-05
-2.64685e-05
1.56335e-05
-9.10897e-06
2.8847e-05
2.11683e-05
2.64108e-05
4.15868e-05
1.43005e-05
3.76068e-05
-7.71772e-06
1.78876e-05
-1.40528e-05
-4.88698e-06
-5.97628e-06
-4.15259e-05
-2.01812e-06
-6.5035e-05
-6.57003e-07
-8.57429e-05
-8.32087e-05
-0.000146767
-2.80167e-05
-0.00013583
-8.83151e-06
-0.000124311
-2.94956e-06
-0.000103599
-1.05789e-05
-7.82364e-05
-2.32433e-05
-5.72719e-05
-3.26647e-05
-4.17556e-05
-4.20725e-05
-3.07378e-05
-4.56779e-05
-1.96534e-05
-4.06357e-05
-3.43252e-06
-2.70468e-05
1.64587e-05
-2.50491e-07
2.32604e-05
3.50626e-05
2.38386e-05
3.77389e-05
1.62753e-05
2.70403e-05
1.52811e-05
-3.22991e-06
2.61551e-05
-4.92489e-05
2.64168e-05
-6.6513e-05
1.43775e-05
-7.69224e-05
-7.37943e-05
-0.000176862
-3.36923e-05
-0.000159448
-2.30372e-05
-0.00013614
-2.51181e-05
-0.000111569
-3.6758e-05
-8.88069e-05
-4.98475e-05
-7.08508e-05
-5.58672e-05
-5.96911e-05
-5.79459e-05
-5.07542e-05
-5.80489e-05
-3.93561e-05
-5.42846e-05
-2.59453e-05
-4.20983e-05
-7.71121e-06
-1.8845e-05
9.03508e-06
1.76532e-05
1.68895e-05
2.88671e-05
1.79585e-05
2.41586e-05
2.47976e-05
-1.01097e-05
3.45786e-05
-5.8312e-05
3.58887e-05
-7.11503e-05
2.06971e-05
-7.0672e-05
-6.95062e-05
-0.000190233
-5.04743e-05
-0.000170287
-4.40723e-05
-0.000150993
-4.74403e-05
-0.000133697
-5.81805e-05
-0.000117448
-7.06918e-05
-0.000103996
-7.27478e-05
-9.25903e-05
-7.18409e-05
-8.31032e-05
-6.97301e-05
-7.23865e-05
-6.73043e-05
-5.91706e-05
-5.69776e-05
-3.97906e-05
-3.83504e-05
-1.90982e-05
-5.06127e-06
-2.60595e-06
9.77484e-06
1.32414e-05
5.96058e-06
2.99785e-05
-2.96265e-05
4.0924e-05
-7.85917e-05
4.05913e-05
-0.00011248
2.31951e-05
-0.000134092
-0.000123938
-0.000202752
-8.17731e-05
-0.000182193
-7.54535e-05
-0.000162232
-7.67353e-05
-0.000145909
-8.34434e-05
-0.00012778
-0.000102239
-0.00011271
-0.000103683
-9.99687e-05
-0.000100864
-9.12924e-05
-9.32099e-05
-8.31518e-05
-8.93931e-05
-7.43483e-05
-7.71799e-05
-6.1912e-05
-5.9645e-05
-3.95055e-05
-3.62497e-05
-1.35517e-05
-2.50208e-05
1.77993e-05
-3.81849e-05
3.95138e-05
-8.43394e-05
3.3303e-05
-0.000158879
8.83841e-06
-5.91781e-05
-5.08629e-06
-8.55548e-05
-0.000105122
-0.000205776
-0.000198377
-0.000179291
-0.000185142
-0.00015284
-0.000179817
-0.000133022
-0.000182605
-0.000118337
-0.000209625
-0.000106438
-0.000221488
-9.49405e-05
-0.000218631
-8.5125e-05
-0.000193356
-7.45328e-05
-0.000179559
-6.32224e-05
-0.000160575
-5.07157e-05
-0.000138676
-3.32748e-05
-0.000117476
-8.36294e-06
-0.000114513
1.16868e-05
-0.00015719
3.03254e-06
-6.45988e-05
-3.56205e-06
-7.95244e-05
-1.72053e-05
2.85808e-05
-4.928e-05
9.63417e-06
-6.46095e-05
-0.000210765
-0.000157
-0.000191114
-0.00016382
-0.000160136
-0.000160297
-0.000139291
-0.00015033
-0.000129397
-0.000155046
-0.000122297
-0.000164688
-0.000106951
-0.000161088
-8.93859e-05
-0.00013355
-7.60883e-05
-0.000111422
-6.30247e-05
-0.00010676
-5.22233e-05
-8.89239e-05
-4.54099e-05
-8.2364e-05
-4.2513e-05
-6.9435e-05
-3.98583e-05
-8.63444e-05
-6.34886e-05
2.16968e-05
-0.000199653
-4.74414e-05
-7.61556e-05
-7.746e-05
-1.66256e-05
-6.60404e-05
-8.42014e-05
-0.00024635
-6.47595e-05
-0.000256786
-6.67749e-05
-0.000253646
-6.77153e-05
-0.000242012
-8.47041e-05
-0.000257585
-9.30517e-05
-0.000263389
-6.96247e-05
-0.000261242
-5.73227e-05
-0.000266602
-3.62849e-05
-0.000307038
-1.0495e-05
-0.000325885
-2.52045e-05
-0.000343912
-4.20309e-05
-0.000322779
-8.26852e-05
-0.000283042
-9.92182e-05
-0.000210333
-8.36377e-05
-0.000100498
-3.256e-05
-7.58733e-05
-7.16319e-05
-4.77508e-05
-0.000106573
-2.32368e-05
-9.07119e-05
-0.000107329
-0.000247271
-0.000143898
-0.000228218
-0.000122799
-0.000230923
-9.98163e-05
-0.000249682
-8.89111e-05
-0.000261557
-9.12496e-05
-0.000258013
-8.32343e-05
-0.000259805
-7.10302e-05
-0.000259252
-5.66489e-05
-0.000251976
-4.1837e-05
-0.000255211
-3.30769e-05
-0.000258046
-4.44812e-05
-0.000247191
-9.15992e-05
-0.000226702
-0.000116733
-0.000198282
-0.000112056
-0.000132003
-9.92679e-05
-7.36551e-05
-0.000130365
-4.20838e-05
-0.000137478
-1.48458e-05
-0.000117421
-0.000122078
-0.000170387
-0.000177055
-0.000135306
-0.00015752
-0.000109752
-0.000122932
-9.5831e-05
-9.69286e-05
-9.96968e-05
-7.94916e-05
-0.000113958
-6.54385e-05
-0.000138912
-4.7306e-05
-0.000178949
-1.77462e-05
-0.00021728
-1.36062e-06
-0.000228996
-1.87591e-05
-0.000206522
-6.533e-05
-0.000174289
-0.000124292
-0.000147362
-0.000145722
-0.000126756
-0.000131945
-9.01643e-05
-0.000134941
-5.71793e-05
-0.000162919
-3.09019e-05
-0.000163708
-9.20876e-06
-0.000138886
-0.000131197
-4.35285e-05
-0.000214025
-2.77232e-05
-0.000176745
-1.76874e-05
-0.000134865
-2.38145e-05
-9.19042e-05
-4.27074e-05
-6.24477e-05
-7.07154e-05
-3.92906e-05
-9.13703e-05
-2.69973e-05
-8.77896e-05
-1.95825e-05
-6.64823e-05
-2.09614e-05
-4.60507e-05
-3.80498e-05
-3.0823e-05
-7.72448e-05
-2.28829e-05
-0.000130519
-1.8672e-05
-0.000149963
-1.97383e-05
-0.000131714
-2.19485e-05
-0.00013324
-1.93945e-05
-0.000165456
-1.2462e-05
-0.000170899
-4.38637e-06
-0.000147017
-0.000135533
9.08027e-06
-0.00021059
1.69558e-05
-0.000190073
3.46243e-05
-0.000150456
3.43362e-05
-9.108e-05
2.9388e-05
-5.76947e-05
3.35504e-05
-4.32185e-05
3.7849e-05
-3.04717e-05
4.30137e-05
-2.35783e-05
4.87566e-05
-2.76953e-05
5.50606e-05
-4.43233e-05
5.38011e-05
-7.73317e-05
4.20034e-05
-0.000119295
3.1236e-05
-0.00013819
2.41799e-05
-0.000124957
2.0087e-05
-0.0001297
1.32267e-05
-0.000158338
5.79297e-06
-0.000163602
1.99498e-06
-0.00014327
-0.000133538
6.71058e-05
-0.000191379
6.1963e-05
-0.000174186
6.73841e-05
-0.000153238
6.72691e-05
-9.05753e-05
6.04039e-05
-5.04577e-05
5.70516e-05
-4.00091e-05
6.35814e-05
-3.7246e-05
7.73659e-05
-3.89461e-05
8.77673e-05
-3.79892e-05
9.16348e-05
-4.64182e-05
8.48716e-05
-6.98633e-05
6.80445e-05
-0.000102527
5.01799e-05
-0.0001211
4.17449e-05
-0.000114551
3.47534e-05
-0.000122677
2.49037e-05
-0.000148309
1.51736e-05
-0.000154018
5.61577e-06
-0.000133779
-0.000127912
9.63565e-05
-0.000186806
8.40432e-05
-0.000176288
7.64792e-05
-0.000146909
7.46008e-05
-8.87296e-05
7.16371e-05
-4.73797e-05
6.80057e-05
-3.62727e-05
6.74142e-05
-3.66604e-05
7.09489e-05
-4.24644e-05
7.92918e-05
-4.74332e-05
8.53617e-05
-5.42509e-05
8.22025e-05
-6.76391e-05
7.0508e-05
-9.08114e-05
5.52488e-05
-0.000106003
4.74782e-05
-0.000107761
4.24277e-05
-0.000117294
3.38256e-05
-0.000139613
2.04859e-05
-0.000140702
5.06841e-06
-0.000118436
-0.000122847
0.000109611
-0.000163933
9.21519e-05
-0.000158711
7.83272e-05
-0.000132918
7.41263e-05
-8.4488e-05
7.15105e-05
-4.47254e-05
6.89057e-05
-3.36438e-05
6.79144e-05
-3.5653e-05
6.97079e-05
-4.42351e-05
7.23838e-05
-5.0097e-05
7.34187e-05
-5.52262e-05
7.05305e-05
-6.46882e-05
6.40448e-05
-8.42944e-05
5.63444e-05
-9.83105e-05
5.34726e-05
-0.000104894
5.26128e-05
-0.000116553
4.17034e-05
-0.000128687
2.54642e-05
-0.000124443
9.19949e-06
-0.00010223
-0.000113653
9.87379e-05
7.54332e-05
5.74715e-05
5.15559e-05
5.37181e-05
5.65125e-05
5.97189e-05
6.2911e-05
6.58616e-05
6.92749e-05
7.05517e-05
6.8108e-05
6.3848e-05
6.00799e-05
5.47661e-05
4.01351e-05
2.29617e-05
1.03665e-05
)
;

boundaryField
{
    leftWall
    {
        type            fixedValue;
        value           nonuniform 0();
    }
    rightWall
    {
        type            fixedValue;
        value           uniform 0;
    }
    lowerWall
    {
        type            fixedValue;
        value           uniform 0;
    }
    atmosphere
    {
        type            calculated;
        value           nonuniform 0();
    }
    defaultFaces
    {
        type            empty;
        value           nonuniform 0();
    }
    procBoundary1to0
    {
        type            processor;
        value           nonuniform List<scalar> 
26
(
1.90131e-06
7.75164e-08
-1.94166e-07
5.75942e-07
3.47727e-07
6.8557e-06
1.71931e-05
1.71655e-05
5.32543e-05
4.12659e-05
0.000136617
0.000194434
0.000239534
0.000285269
0.000282574
0.000178474
-0.00010566
0.000221323
0.000331461
0.000253086
0.000126139
1.09308e-05
-9.22542e-05
-0.000149408
-0.000168147
-0.000148518
)
;
    }
    procBoundary1to3
    {
        type            processor;
        value           nonuniform List<scalar> 
23
(
-5.01794e-05
-5.35668e-05
-5.5699e-05
-5.62226e-05
-0.000137688
-0.000135429
-0.000114886
-7.85308e-05
-4.68774e-05
-3.64112e-05
-3.88459e-05
-4.74021e-05
-5.30301e-05
-5.85785e-05
-6.58704e-05
-8.17653e-05
-9.40358e-05
-0.000101113
-0.000111251
-0.000113994
-0.000107244
-8.96205e-05
-0.000103289
)
;
    }
}


// ************************************************************************* //
