/*--------------------------------*- C++ -*----------------------------------*\
| =========                 |                                                 |
| \\      /  F ield         | OpenFOAM: The Open Source CFD Toolbox           |
|  \\    /   O peration     | Version:  2.4.0                                 |
|   \\  /    A nd           | Web:      www.OpenFOAM.org                      |
|    \\/     M anipulation  |                                                 |
\*---------------------------------------------------------------------------*/
FoamFile
{
    version     2.0;
    format      ascii;
    class       volVectorField;
    location    "1";
    object      U;
}
// * * * * * * * * * * * * * * * * * * * * * * * * * * * * * * * * * * * * * //

dimensions      [0 1 -1 0 0 0 0];

internalField   nonuniform List<vector> 
559
(
(-0.018325 -0.00547223 0)
(0.00055382 -0.0155501 0)
(0.00500244 -0.0097061 0)
(-0.000214734 -0.00283076 0)
(0.00235383 -0.0316996 0)
(-0.0882957 0.0175187 0)
(-0.228787 0.189518 0)
(-0.261653 -0.347375 0)
(-0.00670907 -0.495185 0)
(0.132114 -0.53134 0)
(0.197392 -0.615378 0)
(0.235528 -0.650206 0)
(0.277729 -0.688693 0)
(0.294251 -0.768957 0)
(0.274119 -0.778549 0)
(0.234903 -0.706207 0)
(0.204797 -0.543983 0)
(0.212584 -0.402204 0)
(0.214538 -0.285982 0)
(0.185968 -0.195061 0)
(0.153044 -0.169041 0)
(0.149078 -0.11422 0)
(0.181517 -0.0633534 0)
(0.115996 -0.0312332 0)
(-0.0673923 -0.0225689 0)
(-0.1172 -0.054219 0)
(-0.0710135 -0.0732235 0)
(0.11626 0.515013 0)
(0.167691 0.479591 0)
(0.270244 0.590725 0)
(0.257068 0.618289 0)
(0.265264 0.660726 0)
(0.278489 0.803676 0)
(0.224374 0.82035 0)
(0.11353 0.667044 0)
(-0.128492 0.396687 0)
(-0.164495 0.307703 0)
(-0.152149 0.247461 0)
(-0.118649 0.212306 0)
(-0.215065 0.161218 0)
(-0.230274 0.0700365 0)
(-0.0300038 0.0819994 0)
(-0.0280054 0.104801 0)
(-0.105771 0.0916076 0)
(-0.115866 0.0595518 0)
(-0.054524 -0.0315848 0)
(-0.00682676 -0.377773 0)
(-0.0774832 -0.453157 0)
(-0.0312149 -0.472445 0)
(0.0407152 -0.488522 0)
(0.00533909 -0.582301 0)
(-0.0388085 -0.618385 0)
(-0.0992318 -0.600873 0)
(-0.130747 -0.246499 0)
(-0.488892 -0.137265 0)
(-0.564895 -0.231517 0)
(-0.548808 -0.205526 0)
(-0.473819 -0.108156 0)
(-0.442311 -0.0905606 0)
(-0.401956 -0.146379 0)
(-0.245469 -0.101083 0)
(-0.0690714 0.051714 0)
(-0.120314 0.0489204 0)
(-0.0846531 -0.0528134 0)
(-0.00343075 -0.109953 0)
(0.160009 0.00435647 0)
(0.114745 0.102748 0)
(0.192944 0.210331 0)
(0.139981 0.310497 0)
(0.16776 0.459015 0)
(0.115052 0.542074 0)
(-0.0404674 0.552498 0)
(-0.127299 0.433963 0)
(-0.338285 0.286207 0)
(-0.461249 0.162682 0)
(-0.499494 0.0977412 0)
(-0.512549 0.0711917 0)
(-0.505674 0.0242342 0)
(-0.478295 -0.0855176 0)
(-0.378645 -0.103453 0)
(-0.176582 0.010298 0)
(-0.135991 0.0487153 0)
(-0.068455 -0.00307468 0)
(0.0151915 -0.0924387 0)
(0.108572 -0.146438 0)
(-0.0422382 -0.099531 0)
(-0.0122119 -0.201489 0)
(-0.0787606 -0.281078 0)
(-0.124675 -0.384757 0)
(-0.124091 -0.220959 0)
(-0.0805273 -0.17019 0)
(0.0178917 0.165127 0)
(-0.0557363 0.262805 0)
(-0.21813 0.094254 0)
(-0.215216 0.103197 0)
(-0.334436 0.255099 0)
(-0.478078 0.220247 0)
(-0.473389 -0.127759 0)
(-0.439197 -0.194707 0)
(-0.256237 -0.0251902 0)
(-0.130485 0.0242069 0)
(-0.0375367 -0.090996 0)
(0.0567649 -0.147142 0)
(0.107193 -0.176828 0)
(0.0850515 -0.0746002 0)
(0.154007 0.0478494 0)
(0.119865 0.205081 0)
(-0.0183451 0.33671 0)
(-0.179189 0.274044 0)
(-0.211305 0.242184 0)
(-0.0562878 0.216915 0)
(0.0796279 0.260365 0)
(-0.0196098 0.113592 0)
(-0.175663 -0.0501328 0)
(-0.215904 -0.0747345 0)
(-0.131213 -0.12625 0)
(-0.175324 -0.0505167 0)
(-0.340417 -0.138619 0)
(-0.321037 -0.158258 0)
(-0.14604 -0.0845589 0)
(-0.0291093 -0.127204 0)
(0.0316045 -0.0914245 0)
(0.101038 -0.205161 0)
(0.0161871 -0.0518558 0)
(0.00951121 -0.0797159 0)
(-0.127864 -0.128343 0)
(-0.151652 -0.0807592 0)
(-0.189934 0.0171037 0)
(-0.185596 -0.0268642 0)
(-0.0677406 0.106424 0)
(0.104454 0.237332 0)
(0.127341 0.182827 0)
(-0.0614518 0.121343 0)
(-0.160489 0.146616 0)
(-0.168006 0.0829329 0)
(-0.122467 -0.122514 0)
(-0.244056 -0.0482329 0)
(-0.303175 0.000925365 0)
(-0.2917 -0.0352251 0)
(-0.150173 -0.0153848 0)
(-0.0709663 0.0215807 0)
(0.132144 -0.226193 0)
(0.0238017 -0.0800762 0)
(0.0484022 0.0308239 0)
(-0.0614315 0.177422 0)
(-0.221155 0.198934 0)
(-0.243378 0.153695 0)
(-0.223324 0.0906381 0)
(-0.144586 0.0612921 0)
(0.0651085 0.182753 0)
(0.168975 0.205211 0)
(0.0914221 0.162126 0)
(-0.0927478 0.0622646 0)
(-0.119866 -0.0708304 0)
(-0.155507 -0.0812408 0)
(-0.28568 -0.104757 0)
(-0.350556 -0.100349 0)
(-0.350016 -0.121682 0)
(-0.228311 -0.244582 0)
(-0.125826 -0.262269 0)
(-0.372676 -0.21819 0)
(-0.163217 -0.0943456 0)
(-0.640712 -0.157614 0)
(-1.00501 -0.0525301 0)
(-1.24483 -0.114537 0)
(-1.48348 -0.224774 0)
(-1.51355 -0.360528 0)
(-1.4473 0.415751 0)
(-0.245028 -0.479042 0)
(-0.0922168 -0.446401 0)
(-0.0290327 -0.411972 0)
(0.120827 -0.412461 0)
(-0.291636 -0.115665 0)
(-0.338979 -0.0810363 0)
(-0.374316 -0.085444 0)
(-0.424926 -0.0809348 0)
(-0.644614 -0.193051 0)
(-0.65984 -0.198838 0)
(-0.678457 -0.177929 0)
(-0.708875 -0.146273 0)
(-0.988787 -0.0752484 0)
(-0.990815 -0.0793346 0)
(-0.990218 -0.0779321 0)
(-0.995486 -0.0694823 0)
(-1.20107 -0.142924 0)
(-1.17786 -0.146781 0)
(-1.16513 -0.145372 0)
(-1.14743 -0.129742 0)
(-1.41311 -0.225398 0)
(-1.35837 -0.261983 0)
(-1.31147 -0.243263 0)
(-1.27711 -0.246103 0)
(-1.46379 -0.402271 0)
(-1.37957 -0.418479 0)
(-1.32663 -0.407925 0)
(-1.24035 -0.380024 0)
(-1.28865 0.100262 0)
(-1.2923 -0.273442 0)
(-1.2601 -0.467804 0)
(-1.2383 -0.528788 0)
(-1.13071 -0.523941 0)
(-1.15518 -0.243782 0)
(-1.18651 0.0506535 0)
(-1.19791 0.272081 0)
(-1.77748 -0.682577 0)
(-1.71586 -0.82709 0)
(-1.62916 -0.948964 0)
(-1.55984 -0.996983 0)
(-1.38523 -0.473185 0)
(-1.29612 -0.536419 0)
(-1.22174 -0.611282 0)
(-1.14763 -0.626083 0)
(-0.668292 -0.783963 0)
(-0.612793 -0.858304 0)
(-0.499426 -0.946768 0)
(-0.422266 -0.963358 0)
(-0.0578164 -0.763864 0)
(-0.0425798 -0.887092 0)
(-0.0138872 -1.00667 0)
(-0.00735811 -1.08005 0)
(0.50787 -0.761458 0)
(0.490774 -0.884396 0)
(0.477776 -0.952759 0)
(0.44051 -1.00103 0)
(0.772118 -0.75522 0)
(0.731009 -0.832978 0)
(0.697782 -0.897382 0)
(0.639193 -0.928955 0)
(0.871911 -0.69302 0)
(0.831413 -0.755761 0)
(0.79156 -0.803073 0)
(0.743117 -0.830135 0)
(0.866988 -0.621065 0)
(0.822145 -0.658958 0)
(0.768608 -0.691606 0)
(0.709366 -0.698633 0)
(0.151987 -0.217388 0)
(-0.097505 0.0729588 0)
(-0.204619 0.0116541 0)
(-0.257303 0.0499974 0)
(-0.300745 0.0926378 0)
(-0.283875 0.0636674 0)
(-0.242632 -0.0400238 0)
(-0.160462 -0.0355406 0)
(-0.0378029 0.0528906 0)
(0.136114 0.180516 0)
(0.172095 0.195703 0)
(0.124654 0.217157 0)
(-0.0229547 0.135649 0)
(-0.212589 -0.00796738 0)
(-0.333771 -0.00430175 0)
(-0.359678 -0.145594 0)
(-0.262413 -0.274642 0)
(-0.139264 -0.314913 0)
(-0.0433921 -0.27651 0)
(-0.458234 -0.0684697 0)
(-0.40333 0.101441 0)
(-0.447653 0.169236 0)
(-0.439698 0.193752 0)
(-0.424878 0.148851 0)
(-0.347913 0.0656633 0)
(-0.275486 -0.0207573 0)
(-0.20145 -0.0799839 0)
(-0.113918 -0.0607195 0)
(0.0126636 0.0385643 0)
(0.158804 0.177998 0)
(0.162344 0.229322 0)
(0.14459 0.217298 0)
(0.0159454 0.105537 0)
(-0.0823842 0.0416406 0)
(-0.0752369 -0.0364053 0)
(-0.0289476 -0.18307 0)
(-0.0295506 -0.32593 0)
(-0.000300752 -0.332116 0)
(-0.744871 -0.0792772 0)
(-0.738132 0.0711466 0)
(-0.689248 0.1263 0)
(-0.604756 0.0928688 0)
(-0.489638 0.022352 0)
(-0.362024 -0.0558771 0)
(-0.260587 -0.126847 0)
(-0.184695 -0.164347 0)
(-0.135007 -0.153602 0)
(-0.0732795 -0.089616 0)
(0.0428687 0.0585338 0)
(0.139327 0.209393 0)
(0.13401 0.219498 0)
(0.127387 0.203277 0)
(0.0682128 0.0861147 0)
(0.107684 -0.161147 0)
(0.17369 -0.267133 0)
(0.111783 -0.330288 0)
(0.044273 -0.300201 0)
(-0.987794 -0.0395063 0)
(-0.915352 0.0310963 0)
(-0.797681 0.0320309 0)
(-0.639782 -0.0390439 0)
(-0.52356 -0.120767 0)
(-0.403049 -0.15966 0)
(-0.331122 -0.188891 0)
(-0.278581 -0.193808 0)
(-0.227918 -0.167978 0)
(-0.169148 -0.117901 0)
(-0.104519 -0.00524757 0)
(0.0272854 0.165047 0)
(0.0867729 0.205987 0)
(0.105975 0.180511 0)
(0.113707 0.0375302 0)
(0.174103 -0.177141 0)
(0.228323 -0.231111 0)
(0.17222 -0.242138 0)
(0.0637725 -0.221544 0)
(-1.09921 -0.121466 0)
(-0.971123 -0.0794021 0)
(-0.847306 -0.102873 0)
(-0.74209 -0.163318 0)
(-0.643726 -0.222026 0)
(-0.572812 -0.241897 0)
(-0.50707 -0.237649 0)
(-0.454386 -0.236892 0)
(-0.400853 -0.234963 0)
(-0.353945 -0.197528 0)
(-0.282454 -0.111543 0)
(-0.137285 0.0563423 0)
(-0.0466814 0.13414 0)
(0.0341512 0.151163 0)
(0.133839 0.0143237 0)
(0.220461 -0.212007 0)
(0.266304 -0.274194 0)
(0.19907 -0.201308 0)
(0.0689047 -0.137318 0)
(-1.18136 -0.210616 0)
(-1.03084 -0.170921 0)
(-0.904481 -0.181704 0)
(-0.82683 -0.224693 0)
(-0.710891 -0.279996 0)
(-0.633314 -0.277553 0)
(-0.552319 -0.271388 0)
(-0.504749 -0.258092 0)
(-0.459277 -0.247169 0)
(-0.430991 -0.198746 0)
(-0.376441 -0.122311 0)
(-0.271733 -0.00580257 0)
(-0.125985 0.0658732 0)
(0.00929419 0.0459183 0)
(0.217097 -0.139832 0)
(0.259471 -0.35858 0)
(0.196198 -0.357199 0)
(-0.0469265 -0.190932 0)
(-0.0454216 -0.0820342 0)
(-1.16271 -0.355495 0)
(-1.02894 -0.34314 0)
(-0.866771 -0.341878 0)
(-0.756344 -0.361542 0)
(-0.654281 -0.45598 0)
(-0.592278 -0.447958 0)
(-0.516423 -0.428537 0)
(-0.476174 -0.394701 0)
(-0.42231 -0.38632 0)
(-0.380932 -0.357283 0)
(-0.310577 -0.314927 0)
(-0.230604 -0.22408 0)
(-0.115562 -0.183432 0)
(0.0295181 -0.227566 0)
(0.147123 -0.297545 0)
(0.0325199 -0.103634 0)
(0.0884849 1.22317 0)
(-0.515319 0.571133 0)
(-0.0727592 0.108626 0)
(-1.16427 -0.493558 0)
(-1.06669 -0.410053 0)
(-0.89488 -0.446232 0)
(-0.735214 -0.407129 0)
(-0.551831 -0.348732 0)
(-0.453783 -0.360353 0)
(-0.447884 -0.333169 0)
(-0.476195 -0.281688 0)
(-0.48856 -0.266802 0)
(-0.500551 -0.230876 0)
(-0.402745 -0.224681 0)
(-0.315954 -0.216677 0)
(-0.247337 -0.200335 0)
(-0.212618 0.307085 0)
(-0.632104 1.13524 0)
(-1.33973 -0.186072 0)
(-0.64282 -0.679096 0)
(-0.201184 -0.648774 0)
(-0.0272356 -0.653691 0)
(-1.18621 0.358907 0)
(-1.15718 0.382707 0)
(-1.21555 0.355108 0)
(-1.22667 0.329873 0)
(-1.35026 0.397162 0)
(-1.41912 0.277034 0)
(-1.37552 0.0862298 0)
(-1.46013 0.0313185 0)
(-1.55993 0.0756189 0)
(-1.83832 -0.0926342 0)
(-2.01304 -0.138957 0)
(-2.01548 -0.080709 0)
(-1.73167 -0.0822628 0)
(-1.32065 -0.182489 0)
(-0.73364 -0.103521 0)
(-0.507044 -0.149852 0)
(-0.308831 -0.214225 0)
(-0.182536 -0.139081 0)
(-0.0678205 -0.29787 0)
(-1.40621 -1.06443 0)
(-1.25115 -0.977732 0)
(-1.22551 -0.897757 0)
(-1.2981 -0.871251 0)
(-1.41156 -0.946923 0)
(-1.38396 -0.91111 0)
(-1.36794 -0.849049 0)
(-1.41238 -0.795646 0)
(-1.39707 -0.583528 0)
(-1.37209 -0.410175 0)
(-1.3897 -0.427383 0)
(-1.34766 -0.611793 0)
(-1.28223 -0.673974 0)
(-1.12342 -0.526425 0)
(-0.917323 -0.312508 0)
(-0.498816 -0.587382 0)
(-0.316812 -0.683929 0)
(-0.147063 -0.602139 0)
(-0.0231846 -0.629697 0)
(-0.962474 -0.658773 0)
(-0.81001 -0.557749 0)
(-0.648073 -0.408817 0)
(-0.542206 -0.290749 0)
(-0.525311 -0.224533 0)
(-0.567214 -0.170751 0)
(-0.677191 -0.05391 0)
(-0.819219 0.143158 0)
(-1.13127 0.213129 0)
(-1.26967 0.150527 0)
(-1.24607 -0.056392 0)
(-0.987984 -0.403165 0)
(-0.790434 -0.596329 0)
(-0.737625 -0.671093 0)
(-0.591609 -0.717645 0)
(-0.352911 -0.784388 0)
(-0.249717 -0.757639 0)
(-0.102441 -0.627753 0)
(0.00130842 -0.622878 0)
(-0.2787 -0.944957 0)
(-0.202247 -0.761253 0)
(-0.120209 -0.547864 0)
(-0.0986115 -0.40244 0)
(-0.184725 -0.30133 0)
(-0.274828 -0.240595 0)
(-0.470994 -0.237942 0)
(-0.498155 -0.229019 0)
(-0.426241 -0.210465 0)
(-0.327335 -0.29575 0)
(-0.238671 -0.505585 0)
(-0.124842 -0.72754 0)
(-0.0781422 -0.764999 0)
(-0.110535 -0.637838 0)
(-0.126253 -0.624525 0)
(-0.0956559 -0.815026 0)
(-0.0898593 -0.848758 0)
(-0.0589172 -0.722372 0)
(0.00640873 -0.656877 0)
(0.0156654 -1.10953 0)
(0.0439447 -0.979508 0)
(0.149448 -0.759759 0)
(0.196128 -0.504066 0)
(0.153609 -0.362816 0)
(0.159819 -0.24131 0)
(0.193564 -0.108611 0)
(0.217943 -0.0433306 0)
(0.23849 -0.0731738 0)
(0.263522 -0.155978 0)
(0.291958 -0.324462 0)
(0.280739 -0.548441 0)
(0.217331 -0.661806 0)
(0.1331 -0.593933 0)
(0.101698 -0.61845 0)
(0.112958 -0.778022 0)
(0.0454806 -0.813371 0)
(0.00938073 -0.719397 0)
(0.00761347 -0.662097 0)
(0.381573 -0.969775 0)
(0.341919 -0.890822 0)
(0.348346 -0.739633 0)
(0.354295 -0.428808 0)
(0.337733 -0.241207 0)
(0.301769 -0.202525 0)
(0.30588 -0.167175 0)
(0.363982 -0.149999 0)
(0.454787 -0.140524 0)
(0.478042 -0.20522 0)
(0.472577 -0.352853 0)
(0.41864 -0.545701 0)
(0.337593 -0.636653 0)
(0.229038 -0.588022 0)
(0.197697 -0.602902 0)
(0.185614 -0.716394 0)
(0.104681 -0.747529 0)
(0.044736 -0.662612 0)
(0.00837134 -0.62153 0)
(0.57571 -0.968511 0)
(0.481473 -0.911604 0)
(0.42278 -0.756323 0)
(0.399019 -0.439977 0)
(0.380251 -0.226895 0)
(0.372782 -0.173234 0)
(0.351624 -0.181421 0)
(0.361585 -0.215606 0)
(0.396825 -0.239417 0)
(0.442178 -0.276528 0)
(0.450043 -0.35386 0)
(0.414928 -0.465294 0)
(0.355139 -0.539082 0)
(0.253989 -0.531727 0)
(0.244343 -0.561676 0)
(0.227523 -0.680665 0)
(0.159616 -0.713253 0)
(0.0505167 -0.606135 0)
(-0.0032707 -0.600029 0)
(0.663818 -0.838927 0)
(0.542628 -0.807821 0)
(0.449653 -0.688543 0)
(0.401977 -0.440227 0)
(0.383781 -0.242857 0)
(0.372288 -0.176402 0)
(0.355076 -0.174985 0)
(0.364237 -0.20269 0)
(0.380439 -0.234531 0)
(0.385241 -0.269231 0)
(0.387283 -0.327381 0)
(0.363887 -0.436104 0)
(0.325758 -0.504298 0)
(0.280716 -0.522635 0)
(0.30038 -0.56654 0)
(0.2684 -0.654425 0)
(0.205014 -0.632866 0)
(0.0645504 -0.523295 0)
(0.025031 -0.57119 0)
(0.607671 -0.7176 0)
(0.471739 -0.709004 0)
(0.340139 -0.605214 0)
(0.284397 -0.395262 0)
(0.282677 -0.204311 0)
(0.289274 -0.153241 0)
(0.303118 -0.170336 0)
(0.32931 -0.222846 0)
(0.343354 -0.246108 0)
(0.35501 -0.267021 0)
(0.376408 -0.305658 0)
(0.375419 -0.39352 0)
(0.355504 -0.458585 0)
(0.328709 -0.492701 0)
(0.322356 -0.564419 0)
(0.271779 -0.576271 0)
(0.18261 -0.548793 0)
(0.0640516 -0.449883 0)
(0.0385488 -0.524032 0)
)
;

boundaryField
{
    leftWall
    {
        type            calculated;
        value           nonuniform 0();
    }
    rightWall
    {
        type            calculated;
        value           uniform (0 0 0);
    }
    lowerWall
    {
        type            calculated;
        value           uniform (0 0 0);
    }
    atmosphere
    {
        type            calculated;
        value           nonuniform 0();
    }
    defaultFaces
    {
        type            empty;
    }
    procBoundary1to0
    {
        type            processor;
        value           nonuniform List<vector> 
26
(
(-0.026127 0.00384754 0)
(-0.00279277 -0.0109711 0)
(-0.00163446 -0.00654532 0)
(-0.0115113 -0.0298896 0)
(-0.0182692 -0.0395947 0)
(-0.081443 -0.0518165 0)
(-0.166299 0.323749 0)
(-0.17755 -0.31745 0)
(-0.21604 0.284325 0)
(-0.168361 -0.0940619 0)
(-0.680778 -0.0108051 0)
(-0.979793 -0.0112133 0)
(-1.31846 -0.0130633 0)
(-1.61966 -0.168848 0)
(-1.51929 -0.159144 0)
(-1.19693 0.798545 0)
(-1.26159 -0.633272 0)
(-1.26159 -0.633272 0)
(-1.87685 -0.414186 0)
(-1.33273 -0.370961 0)
(-0.720978 -0.518814 0)
(-0.10613 -0.483178 0)
(0.453835 -0.552172 0)
(0.799047 -0.595169 0)
(0.91291 -0.548505 0)
(0.911791 -0.526254 0)
)
;
    }
    procBoundary1to3
    {
        type            processor;
        value           nonuniform List<vector> 
23
(
(0.709882 -0.544215 0)
(0.653541 -0.565396 0)
(0.595285 -0.586574 0)
(0.54684 -0.590228 0)
(0.470482 -0.626485 0)
(0.346545 -0.604613 0)
(0.219239 -0.497554 0)
(0.162638 -0.349445 0)
(0.167461 -0.233907 0)
(0.205989 -0.192337 0)
(0.249951 -0.201489 0)
(0.283996 -0.236789 0)
(0.308394 -0.267357 0)
(0.320431 -0.299163 0)
(0.349024 -0.330208 0)
(0.369615 -0.393313 0)
(0.352597 -0.445585 0)
(0.326678 -0.47863 0)
(0.301715 -0.50176 0)
(0.242229 -0.506658 0)
(0.180735 -0.474228 0)
(0.0814407 -0.411331 0)
(0.0621712 -0.46588 0)
)
;
    }
}


// ************************************************************************* //
