/*--------------------------------*- C++ -*----------------------------------*\
| =========                 |                                                 |
| \\      /  F ield         | OpenFOAM: The Open Source CFD Toolbox           |
|  \\    /   O peration     | Version:  2.4.0                                 |
|   \\  /    A nd           | Web:      www.OpenFOAM.org                      |
|    \\/     M anipulation  |                                                 |
\*---------------------------------------------------------------------------*/
FoamFile
{
    version     2.0;
    format      ascii;
    class       volVectorField;
    location    "1";
    object      U.air;
}
// * * * * * * * * * * * * * * * * * * * * * * * * * * * * * * * * * * * * * //

dimensions      [0 1 -1 0 0 0 0];

internalField   nonuniform List<vector> 
559
(
(-0.018325 -0.00547306 0)
(0.000553866 -0.0155534 0)
(0.00500241 -0.00966917 0)
(-0.000218671 -0.000762414 0)
(0.00247571 0.0803437 0)
(-0.0844972 0.259832 0)
(-0.195271 0.172356 0)
(0.0121701 0.014792 0)
(-0.00710741 0.352117 0)
(0.131137 0.236856 0)
(0.197773 0.175947 0)
(0.236802 -0.352437 0)
(0.274671 -0.637865 0)
(0.288814 -0.755518 0)
(0.265111 -0.76064 0)
(0.22585 -0.663665 0)
(0.202641 -0.398902 0)
(0.212489 -0.173626 0)
(0.21417 -0.1529 0)
(0.184651 -0.123575 0)
(0.15087 -0.107284 0)
(0.147829 -0.0209638 0)
(0.179333 -0.008866 0)
(0.10973 -0.0161687 0)
(-0.0701439 0.0376553 0)
(-0.116568 -0.0250788 0)
(-0.0715194 -0.0491118 0)
(0.196669 1.11908 0)
(0.42401 0.61838 0)
(0.480797 0.253758 0)
(0.294191 0.106809 0)
(0.269834 0.634022 0)
(0.303104 0.618369 0)
(0.256674 0.450858 0)
(0.107483 0.315739 0)
(-0.167445 0.342692 0)
(-0.212446 0.429126 0)
(-0.194696 0.334029 0)
(-0.16346 0.275167 0)
(-0.245318 0.227157 0)
(-0.243923 0.179384 0)
(-0.0450588 0.144251 0)
(-0.0435821 0.122062 0)
(-0.109109 0.143207 0)
(-0.116455 0.0987987 0)
(-0.0551758 -0.00497619 0)
(-0.151125 -0.271002 0)
(-0.345617 -0.739956 0)
(-0.18215 -1.0166 0)
(-0.014398 -0.503371 0)
(0.0060482 -0.116321 0)
(-0.0441377 -0.551132 0)
(-0.117537 -0.540407 0)
(-0.281753 -0.151308 0)
(-0.526053 0.0658911 0)
(-0.586607 0.157399 0)
(-0.571642 0.192305 0)
(-0.488381 0.175593 0)
(-0.445914 0.0300145 0)
(-0.403857 -0.0717275 0)
(-0.250638 -0.0623851 0)
(-0.0748411 0.0758447 0)
(-0.121831 0.0772214 0)
(-0.083807 -0.016058 0)
(-0.00317318 -0.0893787 0)
(0.187442 0.338372 0)
(0.188454 0.488226 0)
(0.274626 0.631522 0)
(0.201453 0.736788 0)
(0.265812 0.515206 0)
(0.166076 0.546202 0)
(-0.085789 0.560493 0)
(-0.216602 0.343768 0)
(-0.238068 0.383375 0)
(-0.3987 0.260993 0)
(-0.537433 0.340888 0)
(-0.553568 0.284683 0)
(-0.537767 0.125 0)
(-0.488362 0.126384 0)
(-0.389593 0.0371482 0)
(-0.18421 0.0359219 0)
(-0.138107 0.0690471 0)
(-0.0681676 0.0245071 0)
(0.0152519 -0.0332679 0)
(0.101248 0.212197 0)
(-0.150833 0.142635 0)
(-0.148967 -0.0506238 0)
(-0.101838 -0.199909 0)
(-0.130031 -0.503899 0)
(-0.130625 -0.262492 0)
(-0.0768572 -0.179209 0)
(0.104806 0.103692 0)
(0.104115 0.140467 0)
(-0.0900545 -0.0776867 0)
(-0.129906 0.0422374 0)
(-0.288007 0.0746017 0)
(-0.442082 -0.00304918 0)
(-0.491766 -0.106902 0)
(-0.529578 0.126165 0)
(-0.304638 0.113252 0)
(-0.130849 0.0811358 0)
(-0.0323353 0.00498679 0)
(0.0607152 0.00691765 0)
(0.0887803 0.0732312 0)
(0.12908 0.316006 0)
(0.206518 0.358168 0)
(0.132775 0.510888 0)
(-0.0744691 0.450295 0)
(-0.250053 0.319881 0)
(-0.219405 0.266165 0)
(-0.0293435 0.249707 0)
(0.200957 0.369983 0)
(0.0684111 0.393792 0)
(-0.182921 0.295333 0)
(-0.2131 0.00613153 0)
(-0.0475369 -0.0748409 0)
(-0.0551565 -0.0421152 0)
(-0.333654 0.00642901 0)
(-0.38684 0.148933 0)
(-0.14538 0.156509 0)
(-0.0105842 -0.0228575 0)
(0.0411282 -0.10265 0)
(0.0661715 -0.0201504 0)
(-0.0552689 0.302703 0)
(-0.113788 0.134225 0)
(-0.255203 0.0318142 0)
(-0.195203 -0.225564 0)
(-0.193128 0.00217112 0)
(-0.183266 -0.0239022 0)
(-0.0601215 0.122604 0)
(0.172893 0.285928 0)
(0.265055 0.464855 0)
(0.0397134 0.52574 0)
(-0.122179 0.266344 0)
(-0.170509 0.09502 0)
(-0.0755302 0.0558759 0)
(-0.0768904 -0.0252487 0)
(-0.260707 -0.220809 0)
(-0.390092 -0.1606 0)
(-0.201013 -0.167589 0)
(-0.0933053 -0.0446871 0)
(0.0967036 -0.0858932 0)
(0.00299389 0.25988 0)
(0.0338116 0.415723 0)
(-0.107227 0.569012 0)
(-0.265439 0.33781 0)
(-0.257185 0.15979 0)
(-0.223698 0.105247 0)
(-0.145964 0.1354 0)
(0.0774583 0.275855 0)
(0.209369 0.361758 0)
(0.136796 0.375955 0)
(-0.0636681 0.103544 0)
(-0.0762274 -0.0428413 0)
(-0.141791 0.196508 0)
(-0.415731 0.262937 0)
(-0.468181 -0.117534 0)
(-0.350773 -0.302255 0)
(-0.230594 -0.221613 0)
(-0.125235 -0.219626 0)
(-0.388789 0.358465 0)
(0.215205 -0.0084273 0)
(-0.631501 -0.00738262 0)
(-0.991863 -0.0570986 0)
(-1.24676 0.154934 0)
(-1.57981 0.445936 0)
(-1.54887 -0.020075 0)
(-1.44768 0.422728 0)
(-0.24567 -0.754396 0)
(-0.0881517 -0.718786 0)
(-0.0374846 -0.673886 0)
(0.139158 -0.671579 0)
(-0.201037 -0.103193 0)
(-0.324629 -0.0791174 0)
(-0.353757 -0.0840547 0)
(-0.311128 -0.0701609 0)
(-0.65504 -0.16255 0)
(-0.662645 -0.163621 0)
(-0.67565 -0.139132 0)
(-0.634937 -0.0192904 0)
(-0.986961 -0.0741627 0)
(-0.982439 -0.0679689 0)
(-0.941515 -0.0469787 0)
(-0.900624 0.152712 0)
(-1.20296 0.0903948 0)
(-1.1744 0.0664002 0)
(-1.15377 0.0475637 0)
(-1.13114 0.110812 0)
(-1.51856 0.370606 0)
(-1.41348 0.252454 0)
(-1.31342 0.181948 0)
(-1.27756 0.133666 0)
(-1.54127 0.0133538 0)
(-1.50624 0.0604681 0)
(-1.41622 0.103201 0)
(-1.25138 0.131791 0)
(-1.28759 0.133021 0)
(-1.29783 -0.192484 0)
(-1.28218 -0.330315 0)
(-1.26594 -0.371065 0)
(-1.13071 -0.523941 0)
(-1.15518 -0.243781 0)
(-1.18651 0.0506886 0)
(-1.19792 0.272291 0)
(-1.77748 -0.682577 0)
(-1.71587 -0.82709 0)
(-1.62916 -0.948964 0)
(-1.55984 -0.996983 0)
(-1.38523 -0.473185 0)
(-1.29612 -0.536419 0)
(-1.22174 -0.611282 0)
(-1.14763 -0.626083 0)
(-0.668291 -0.783962 0)
(-0.612793 -0.858304 0)
(-0.499426 -0.946767 0)
(-0.422266 -0.963357 0)
(-0.0578164 -0.763864 0)
(-0.0425798 -0.887091 0)
(-0.0138872 -1.00667 0)
(-0.00735818 -1.08005 0)
(0.50787 -0.761457 0)
(0.490773 -0.884396 0)
(0.477776 -0.952758 0)
(0.44051 -1.00103 0)
(0.772117 -0.755219 0)
(0.731009 -0.832977 0)
(0.697781 -0.897382 0)
(0.639193 -0.928954 0)
(0.87191 -0.693019 0)
(0.831412 -0.755761 0)
(0.79156 -0.803072 0)
(0.743117 -0.830134 0)
(0.866988 -0.621065 0)
(0.822145 -0.658958 0)
(0.768607 -0.691606 0)
(0.709366 -0.698632 0)
(0.124688 0.0278617 0)
(-0.162327 0.424473 0)
(-0.293658 0.31225 0)
(-0.357619 0.278013 0)
(-0.335355 0.147098 0)
(-0.287953 0.0871039 0)
(-0.213772 0.141453 0)
(-0.0855673 0.224209 0)
(0.0694092 0.315785 0)
(0.213083 0.382078 0)
(0.19406 0.455478 0)
(0.149786 0.289104 0)
(0.00764118 0.209694 0)
(-0.111956 0.336239 0)
(-0.210124 0.514856 0)
(-0.320166 0.311458 0)
(-0.264702 -0.270441 0)
(-0.145639 -0.277713 0)
(-0.0456818 -0.243562 0)
(-0.397734 0.227488 0)
(-0.497141 0.45169 0)
(-0.54216 0.514796 0)
(-0.504769 0.487973 0)
(-0.440179 0.261078 0)
(-0.31928 0.257591 0)
(-0.217294 0.345462 0)
(-0.146585 0.267712 0)
(-0.0448123 0.272995 0)
(0.0945603 0.355487 0)
(0.219955 0.468901 0)
(0.18066 0.358361 0)
(0.177405 0.282989 0)
(0.149068 0.410483 0)
(0.0809174 0.310532 0)
(-0.00476151 0.163279 0)
(-0.0307697 -0.177722 0)
(-0.0339043 -0.318873 0)
(-0.00169354 -0.323879 0)
(-0.645591 0.190651 0)
(-0.763738 0.385475 0)
(-0.785291 0.461529 0)
(-0.659092 0.365104 0)
(-0.466841 0.200623 0)
(-0.275527 0.291275 0)
(-0.152577 0.231067 0)
(-0.0887929 0.182082 0)
(-0.0525439 0.132382 0)
(-0.000864351 0.267115 0)
(0.0891862 0.397813 0)
(0.148183 0.503988 0)
(0.147516 0.412277 0)
(0.169016 0.357924 0)
(0.111557 0.260052 0)
(0.130013 -0.043757 0)
(0.176274 -0.189678 0)
(0.109344 -0.204255 0)
(0.0432231 -0.130347 0)
(-0.950256 0.364372 0)
(-0.964554 0.419239 0)
(-0.856274 0.427345 0)
(-0.65359 0.280864 0)
(-0.507083 0.0104928 0)
(-0.392085 0.0262643 0)
(-0.331394 -0.0300385 0)
(-0.280008 -0.0432877 0)
(-0.185006 -0.0331933 0)
(-0.0796572 0.262 0)
(-0.0550865 0.348033 0)
(0.0110707 0.499522 0)
(0.0810729 0.484432 0)
(0.129228 0.248887 0)
(0.123379 0.0941109 0)
(0.185334 -0.0157393 0)
(0.234102 0.0285362 0)
(0.160765 0.119032 0)
(0.0549273 0.228733 0)
(-1.0913 0.13372 0)
(-0.971953 0.130113 0)
(-0.848335 0.107669 0)
(-0.745088 0.0348925 0)
(-0.64777 -0.0466036 0)
(-0.577547 -0.0619286 0)
(-0.511304 -0.0837367 0)
(-0.454137 -0.0918515 0)
(-0.356487 -0.0574524 0)
(-0.24513 0.16181 0)
(-0.219005 0.176568 0)
(-0.171436 0.302017 0)
(-0.0700056 0.333866 0)
(0.0474814 0.226765 0)
(0.182827 0.162188 0)
(0.337834 0.137339 0)
(0.359259 0.233423 0)
(0.23391 0.304709 0)
(0.075434 0.343588 0)
(-1.19927 0.114569 0)
(-1.04244 0.115488 0)
(-0.897669 0.103764 0)
(-0.806007 0.0933078 0)
(-0.673644 0.146336 0)
(-0.60097 0.178168 0)
(-0.513662 0.168529 0)
(-0.449356 0.167756 0)
(-0.41983 0.169122 0)
(-0.428943 0.198727 0)
(-0.402507 0.213649 0)
(-0.287827 0.298116 0)
(-0.0881093 0.3321 0)
(0.124333 0.299603 0)
(0.366684 0.284437 0)
(0.400461 0.0296258 0)
(0.257424 -0.143582 0)
(-0.0534352 -0.0497 0)
(-0.0519993 0.0415157 0)
(-1.15083 0.155956 0)
(-1.02552 0.165887 0)
(-0.860438 0.162667 0)
(-0.732067 0.131242 0)
(-0.630109 0.0267181 0)
(-0.583797 0.0419839 0)
(-0.509041 0.050339 0)
(-0.460647 0.0524574 0)
(-0.413337 0.0313067 0)
(-0.384492 0.0567963 0)
(-0.327645 0.124778 0)
(-0.240388 0.234325 0)
(-0.0880635 0.264495 0)
(0.0920626 0.137626 0)
(0.193505 -0.0845602 0)
(0.0464995 -0.0147458 0)
(0.0887212 1.22446 0)
(-0.515324 0.571145 0)
(-0.0727589 0.108626 0)
(-1.18113 -0.332815 0)
(-1.07535 -0.246074 0)
(-0.898126 -0.277172 0)
(-0.728481 -0.249978 0)
(-0.525567 -0.22416 0)
(-0.427445 -0.274128 0)
(-0.436133 -0.259292 0)
(-0.477261 -0.215339 0)
(-0.499117 -0.208249 0)
(-0.522554 -0.16382 0)
(-0.427856 -0.132408 0)
(-0.339819 -0.0940961 0)
(-0.256137 -0.0791375 0)
(-0.20928 0.365644 0)
(-0.6321 1.13532 0)
(-1.33973 -0.186072 0)
(-0.64282 -0.679095 0)
(-0.201184 -0.648773 0)
(-0.0272355 -0.653691 0)
(-1.18613 0.359561 0)
(-1.1569 0.383777 0)
(-1.21524 0.356186 0)
(-1.22645 0.330579 0)
(-1.35022 0.397246 0)
(-1.41912 0.277036 0)
(-1.37552 0.0862301 0)
(-1.46013 0.0313186 0)
(-1.55993 0.0756189 0)
(-1.83832 -0.092634 0)
(-2.01304 -0.138957 0)
(-2.01548 -0.0807088 0)
(-1.73167 -0.0822626 0)
(-1.32065 -0.182488 0)
(-0.733639 -0.103521 0)
(-0.507043 -0.149852 0)
(-0.308831 -0.214225 0)
(-0.182536 -0.13908 0)
(-0.0678204 -0.29787 0)
(-1.40621 -1.06443 0)
(-1.25115 -0.977732 0)
(-1.22551 -0.897757 0)
(-1.2981 -0.87125 0)
(-1.41156 -0.946922 0)
(-1.38395 -0.91111 0)
(-1.36794 -0.849049 0)
(-1.41238 -0.795646 0)
(-1.39707 -0.583527 0)
(-1.37209 -0.410175 0)
(-1.3897 -0.427383 0)
(-1.34766 -0.611793 0)
(-1.28223 -0.673973 0)
(-1.12342 -0.526425 0)
(-0.917323 -0.312508 0)
(-0.498816 -0.587382 0)
(-0.316811 -0.683929 0)
(-0.147062 -0.602138 0)
(-0.0231846 -0.629697 0)
(-0.962474 -0.658772 0)
(-0.81001 -0.557749 0)
(-0.648073 -0.408816 0)
(-0.542206 -0.290749 0)
(-0.525312 -0.224533 0)
(-0.567214 -0.170751 0)
(-0.677191 -0.05391 0)
(-0.819219 0.143158 0)
(-1.13127 0.213128 0)
(-1.26967 0.150527 0)
(-1.24607 -0.0563919 0)
(-0.987983 -0.403165 0)
(-0.790433 -0.596328 0)
(-0.737624 -0.671093 0)
(-0.591609 -0.717644 0)
(-0.352911 -0.784388 0)
(-0.249717 -0.757639 0)
(-0.102441 -0.627752 0)
(0.00130839 -0.622877 0)
(-0.278701 -0.944956 0)
(-0.202247 -0.761252 0)
(-0.120209 -0.547864 0)
(-0.0986115 -0.40244 0)
(-0.184725 -0.30133 0)
(-0.274828 -0.240595 0)
(-0.470994 -0.237942 0)
(-0.498154 -0.229019 0)
(-0.426241 -0.210465 0)
(-0.327334 -0.29575 0)
(-0.238671 -0.505585 0)
(-0.124842 -0.727539 0)
(-0.0781422 -0.764998 0)
(-0.110535 -0.637837 0)
(-0.126253 -0.624524 0)
(-0.0956558 -0.815025 0)
(-0.0898593 -0.848758 0)
(-0.0589172 -0.722371 0)
(0.0064087 -0.656876 0)
(0.0156609 -1.10952 0)
(0.0439394 -0.979506 0)
(0.149448 -0.759758 0)
(0.196128 -0.504065 0)
(0.153609 -0.362816 0)
(0.159819 -0.24131 0)
(0.193564 -0.108611 0)
(0.217943 -0.0433306 0)
(0.23849 -0.0731737 0)
(0.263522 -0.155978 0)
(0.291958 -0.324461 0)
(0.280739 -0.54844 0)
(0.21733 -0.661805 0)
(0.1331 -0.593932 0)
(0.101698 -0.618449 0)
(0.112957 -0.778022 0)
(0.0454805 -0.813371 0)
(0.00938073 -0.719397 0)
(0.00761342 -0.662095 0)
(0.381568 -0.969774 0)
(0.341914 -0.89082 0)
(0.348344 -0.739631 0)
(0.354294 -0.428807 0)
(0.337732 -0.241206 0)
(0.301769 -0.202524 0)
(0.30588 -0.167175 0)
(0.363982 -0.149999 0)
(0.454787 -0.140524 0)
(0.478041 -0.20522 0)
(0.472576 -0.352853 0)
(0.41864 -0.545701 0)
(0.337592 -0.636652 0)
(0.229037 -0.588022 0)
(0.197697 -0.602902 0)
(0.185614 -0.716394 0)
(0.104681 -0.747528 0)
(0.044736 -0.662612 0)
(0.0083713 -0.621528 0)
(0.575706 -0.968512 0)
(0.48147 -0.911603 0)
(0.422779 -0.756322 0)
(0.399018 -0.439975 0)
(0.38025 -0.226894 0)
(0.372782 -0.173233 0)
(0.351624 -0.181421 0)
(0.361585 -0.215606 0)
(0.396826 -0.239417 0)
(0.442178 -0.276528 0)
(0.450043 -0.35386 0)
(0.414928 -0.465294 0)
(0.355139 -0.539082 0)
(0.253989 -0.531727 0)
(0.244343 -0.561676 0)
(0.227523 -0.680665 0)
(0.159616 -0.713254 0)
(0.0505166 -0.606135 0)
(-0.00327069 -0.600028 0)
(0.663816 -0.838928 0)
(0.542628 -0.807821 0)
(0.449653 -0.688543 0)
(0.401977 -0.440227 0)
(0.383781 -0.242856 0)
(0.372288 -0.176402 0)
(0.355076 -0.174985 0)
(0.364237 -0.20269 0)
(0.380439 -0.234531 0)
(0.385241 -0.269231 0)
(0.387283 -0.327381 0)
(0.363887 -0.436104 0)
(0.325759 -0.504298 0)
(0.280716 -0.522635 0)
(0.30038 -0.56654 0)
(0.2684 -0.654425 0)
(0.205014 -0.632866 0)
(0.0645503 -0.523294 0)
(0.025031 -0.571189 0)
(0.60767 -0.7176 0)
(0.471739 -0.709003 0)
(0.340139 -0.605214 0)
(0.284397 -0.395261 0)
(0.282677 -0.204311 0)
(0.289274 -0.153241 0)
(0.303118 -0.170336 0)
(0.32931 -0.222846 0)
(0.343354 -0.246108 0)
(0.355011 -0.267021 0)
(0.376409 -0.305658 0)
(0.375419 -0.393521 0)
(0.355504 -0.458585 0)
(0.328709 -0.492701 0)
(0.322356 -0.564419 0)
(0.271779 -0.576271 0)
(0.18261 -0.548793 0)
(0.0640515 -0.449882 0)
(0.0385487 -0.524032 0)
)
;

boundaryField
{
    leftWall
    {
        type            fixedValue;
        value           nonuniform 0();
    }
    rightWall
    {
        type            fixedValue;
        value           uniform (0 0 0);
    }
    lowerWall
    {
        type            fixedValue;
        value           uniform (0 0 0);
    }
    atmosphere
    {
        type            fluxCorrectedVelocity;
        value           nonuniform 0();
    }
    defaultFaces
    {
        type            empty;
    }
    procBoundary1to0
    {
        type            processor;
        value           nonuniform List<vector> 
26
(
(-0.0261269 0.00384657 0)
(-0.00279258 -0.010974 0)
(-0.00163443 -0.0063831 0)
(-0.0115176 -0.0241152 0)
(-0.0178741 0.0910678 0)
(-0.0847696 0.152446 0)
(-0.116831 0.204087 0)
(0.0444992 0.167294 0)
(-0.172403 0.705874 0)
(0.0912862 -0.0113206 0)
(-0.636543 0.487622 0)
(-0.96391 0.00815708 0)
(-1.32038 0.27699 0)
(-1.64018 0.618017 0)
(-1.52736 0.105705 0)
(-1.19687 0.798841 0)
(-1.26159 -0.633272 0)
(-1.26159 -0.633272 0)
(-1.87685 -0.414185 0)
(-1.33273 -0.370961 0)
(-0.720977 -0.518814 0)
(-0.10613 -0.483178 0)
(0.453834 -0.552172 0)
(0.799046 -0.595169 0)
(0.912909 -0.548505 0)
(0.911791 -0.526255 0)
)
;
    }
    procBoundary1to3
    {
        type            processor;
        value           nonuniform List<vector> 
23
(
(0.709882 -0.544215 0)
(0.653541 -0.565396 0)
(0.595285 -0.586574 0)
(0.54684 -0.590228 0)
(0.470482 -0.626485 0)
(0.346545 -0.604613 0)
(0.219239 -0.497554 0)
(0.162638 -0.349445 0)
(0.167461 -0.233907 0)
(0.205989 -0.192337 0)
(0.249951 -0.201489 0)
(0.283996 -0.23679 0)
(0.308394 -0.267357 0)
(0.320431 -0.299163 0)
(0.349025 -0.330209 0)
(0.369616 -0.393314 0)
(0.352598 -0.445585 0)
(0.326678 -0.478631 0)
(0.301716 -0.50176 0)
(0.24223 -0.506658 0)
(0.180735 -0.474228 0)
(0.0814407 -0.411331 0)
(0.0621711 -0.46588 0)
)
;
    }
}


// ************************************************************************* //
