/*--------------------------------*- C++ -*----------------------------------*\
| =========                 |                                                 |
| \\      /  F ield         | OpenFOAM: The Open Source CFD Toolbox           |
|  \\    /   O peration     | Version:  2.4.0                                 |
|   \\  /    A nd           | Web:      www.OpenFOAM.org                      |
|    \\/     M anipulation  |                                                 |
\*---------------------------------------------------------------------------*/
FoamFile
{
    version     2.0;
    format      ascii;
    class       volVectorField;
    location    "1";
    object      U.mercury;
}
// * * * * * * * * * * * * * * * * * * * * * * * * * * * * * * * * * * * * * //

dimensions      [0 1 -1 0 0 0 0];

internalField   nonuniform List<vector> 
559
(
(-0.018325 -0.00547229 0)
(0.000553819 -0.0155502 0)
(0.00500243 -0.00970623 0)
(-0.000214732 -0.00283122 0)
(0.00232898 -0.0338873 0)
(-0.0875667 -0.104992 0)
(-0.249185 -1.09153 0)
(-0.238248 -1.17648 0)
(-0.00785255 -0.532144 0)
(0.130514 -0.605565 0)
(0.197619 -0.693027 0)
(0.238591 -0.729416 0)
(0.284104 -0.761877 0)
(0.303765 -0.822718 0)
(0.282065 -0.80964 0)
(0.237773 -0.722941 0)
(0.205649 -0.554252 0)
(0.212833 -0.410452 0)
(0.21495 -0.29312 0)
(0.186861 -0.201557 0)
(0.153919 -0.175214 0)
(0.149403 -0.120273 0)
(0.182276 -0.0692557 0)
(0.117125 -0.037002 0)
(-0.0670538 -0.0282529 0)
(-0.117193 -0.0597609 0)
(-0.0709173 -0.0787321 0)
(0.0739193 -0.479829 0)
(0.105388 -0.480183 0)
(0.159506 -0.395663 0)
(0.242542 -0.104455 0)
(0.318168 -0.00639874 0)
(0.381897 -0.147369 0)
(0.300724 -0.0318713 0)
(0.136107 0.0564461 0)
(-0.109136 0.215977 0)
(-0.157383 0.233373 0)
(-0.147079 0.215705 0)
(-0.115197 0.199949 0)
(-0.213554 0.154252 0)
(-0.229756 0.0633772 0)
(-0.0290562 0.0763126 0)
(-0.0266823 0.0991611 0)
(-0.105255 0.0858869 0)
(-0.11578 0.0539147 0)
(-0.0544129 -0.0374394 0)
(0.0688428 -1.17951 0)
(0.0418089 -0.944102 0)
(0.062168 -0.452093 0)
(0.0769263 -0.431476 0)
(0.0578511 -0.545764 0)
(-0.015232 -0.60373 0)
(-0.351656 -0.45228 0)
(-0.425998 -0.367313 0)
(-0.518508 -0.276202 0)
(-0.563398 -0.271137 0)
(-0.547486 -0.220386 0)
(-0.472542 -0.116964 0)
(-0.44153 -0.0984447 0)
(-0.401415 -0.154265 0)
(-0.2446 -0.106219 0)
(-0.0680459 0.0467175 0)
(-0.119956 0.0437235 0)
(-0.0847279 -0.0581087 0)
(-0.00346073 -0.115347 0)
(0.0715291 -1.09423 0)
(0.0608551 -0.786977 0)
(0.145924 -0.0870825 0)
(0.119935 0.111906 0)
(0.132933 0.231998 0)
(0.12153 0.409595 0)
(-0.271342 0.0113092 0)
(-0.35327 -0.0919885 0)
(-0.402594 -0.0502378 0)
(-0.469495 -0.0511162 0)
(-0.492715 -0.0660908 0)
(-0.503294 -0.0511668 0)
(-0.495123 -0.0679906 0)
(-0.470098 -0.136082 0)
(-0.376091 -0.114619 0)
(-0.175382 0.00470989 0)
(-0.135634 0.043447 0)
(-0.0685301 -0.00903074 0)
(0.0151646 -0.0983522 0)
(0.0727722 -1.07328 0)
(0.0259655 -0.755466 0)
(0.0494257 -0.328052 0)
(-0.0154625 -0.381127 0)
(-0.047691 -0.355727 0)
(-0.104833 -0.324251 0)
(-0.128722 -0.283777 0)
(-0.212073 -0.304066 0)
(-0.21966 -0.276564 0)
(-0.272332 -0.358877 0)
(-0.263642 -0.626907 0)
(-0.36261 -0.529041 0)
(-0.403377 -0.493491 0)
(-0.421584 -0.417193 0)
(-0.421263 -0.240311 0)
(-0.254582 -0.031359 0)
(-0.130454 0.018789 0)
(-0.0383995 -0.0996167 0)
(0.0556733 -0.170417 0)
(0.0775601 -1.08378 0)
(0.0544512 -0.678276 0)
(0.124639 -0.143933 0)
(0.119113 0.0389208 0)
(0.0053157 0.175243 0)
(-0.148781 0.177237 0)
(-0.200482 0.146982 0)
(-0.107391 -0.0173926 0)
(-0.102394 -0.206262 0)
(-0.00176329 -0.251871 0)
(-0.100603 -0.0968937 0)
(-0.183538 -0.245842 0)
(-0.120802 -0.571793 0)
(-0.153642 -0.595883 0)
(-0.28511 -0.378286 0)
(-0.314246 -0.208437 0)
(-0.14593 -0.112889 0)
(-0.0329116 -0.199436 0)
(0.0237865 -0.282892 0)
(0.0775458 -1.09058 0)
(0.0185785 -0.623773 0)
(0.0297701 -0.226578 0)
(-0.0850317 -0.247978 0)
(-0.144316 -0.185139 0)
(-0.175255 -0.0900243 0)
(-0.187463 -0.112934 0)
(-0.0909899 0.00463145 0)
(0.0555659 0.128234 0)
(0.104458 0.0985008 0)
(-0.0636918 0.0321675 0)
(-0.145027 -0.152538 0)
(-0.107245 -0.549964 0)
(-0.193366 -0.774838 0)
(-0.246099 -0.599571 0)
(-0.277846 -0.392707 0)
(-0.278582 -0.344121 0)
(-0.0767881 -0.477107 0)
(-0.0739472 -0.706819 0)
(0.0808484 -1.09533 0)
(0.0196247 -0.608448 0)
(0.0267947 -0.222124 0)
(-0.0370752 0.046057 0)
(-0.199253 0.09152 0)
(-0.240461 0.0544343 0)
(-0.232691 -0.0226292 0)
(-0.17591 -0.0696404 0)
(0.0264287 0.0946907 0)
(0.14587 0.143812 0)
(0.0886646 0.089205 0)
(-0.0604894 -0.196507 0)
(-0.0854223 -0.550135 0)
(-0.18212 -0.700283 0)
(-0.248509 -0.71444 0)
(-0.290306 -0.658703 0)
(-0.329084 -0.497367 0)
(-0.204352 -0.456838 0)
(-0.0891019 -0.453325 0)
(-0.23132 -1.14058 0)
(-0.411004 -0.27492 0)
(-0.875262 -0.436224 0)
(-1.16268 -0.384028 0)
(-1.30782 -0.479986 0)
(-1.4394 -0.485555 0)
(-1.45941 -0.624148 0)
(-1.38741 -0.30339 0)
(-0.175436 -1.189 0)
(-0.0849516 -1.12533 0)
(-0.0610078 -1.09702 0)
(0.0835476 -1.13371 0)
(-0.487767 -0.299074 0)
(-0.510437 -0.256731 0)
(-0.51906 -0.235383 0)
(-0.540999 -0.214202 0)
(-0.871706 -0.444362 0)
(-0.873568 -0.426545 0)
(-0.869381 -0.384919 0)
(-0.865578 -0.341992 0)
(-1.13311 -0.404601 0)
(-1.12322 -0.409086 0)
(-1.09829 -0.406543 0)
(-1.06887 -0.39234 0)
(-1.26617 -0.49176 0)
(-1.23635 -0.490964 0)
(-1.20064 -0.484675 0)
(-1.1639 -0.472749 0)
(-1.37351 -0.487322 0)
(-1.31881 -0.504821 0)
(-1.28401 -0.481872 0)
(-1.25214 -0.482795 0)
(-1.39075 -0.62268 0)
(-1.3172 -0.620224 0)
(-1.2858 -0.595284 0)
(-1.23633 -0.569218 0)
(-1.26495 -0.722097 0)
(-1.23822 -0.837414 0)
(-1.19869 -0.879232 0)
(-1.17807 -0.899262 0)
(-1.13096 -0.519533 0)
(-1.15477 -0.230816 0)
(-1.18357 0.0525369 0)
(-1.19331 0.169038 0)
(-1.77728 -0.683571 0)
(-1.71572 -0.828065 0)
(-1.62891 -0.950094 0)
(-1.55953 -0.99803 0)
(-1.38526 -0.473544 0)
(-1.29603 -0.536796 0)
(-1.2216 -0.611662 0)
(-1.14744 -0.626416 0)
(-0.668139 -0.784249 0)
(-0.612591 -0.858599 0)
(-0.499158 -0.947029 0)
(-0.42199 -0.963602 0)
(-0.0575127 -0.764 0)
(-0.0422751 -0.887233 0)
(-0.0135919 -1.00682 0)
(-0.00707135 -1.08021 0)
(0.508103 -0.761369 0)
(0.491003 -0.884354 0)
(0.478003 -0.952777 0)
(0.440717 -1.00102 0)
(0.772179 -0.755137 0)
(0.731075 -0.832925 0)
(0.697886 -0.897368 0)
(0.639354 -0.929015 0)
(0.871879 -0.692961 0)
(0.831407 -0.755727 0)
(0.791567 -0.803046 0)
(0.743153 -0.830132 0)
(0.866916 -0.621045 0)
(0.822092 -0.658943 0)
(0.768579 -0.69159 0)
(0.709408 -0.698615 0)
(0.0810594 -1.09886 0)
(-0.128241 -0.0798693 0)
(-0.208757 -0.151327 0)
(-0.241808 -0.04602 0)
(-0.309788 -0.0262876 0)
(-0.324457 -0.137738 0)
(-0.303222 -0.310691 0)
(-0.264595 -0.363695 0)
(-0.154552 -0.262995 0)
(0.0549249 -0.00383802 0)
(0.0971661 -0.0390503 0)
(0.0898506 -0.0519485 0)
(-0.0449702 -0.422172 0)
(-0.164161 -0.551233 0)
(-0.196484 -0.535116 0)
(-0.175105 -0.57636 0)
(-0.137522 -0.462755 0)
(-0.0867638 -0.490505 0)
(-0.0171917 -0.476381 0)
(-0.52751 -0.175786 0)
(-0.42892 -0.045051 0)
(-0.454655 0.0145124 0)
(-0.489815 -0.0166056 0)
(-0.490155 -0.185101 0)
(-0.429795 -0.35985 0)
(-0.376192 -0.499674 0)
(-0.333352 -0.549378 0)
(-0.267991 -0.524009 0)
(-0.136353 -0.358626 0)
(-0.01593 -0.251963 0)
(0.0467314 -0.199621 0)
(0.00655381 -0.354645 0)
(-0.0110991 -0.354224 0)
(-0.0409177 -0.454567 0)
(-0.0260016 -0.571175 0)
(0.031176 -0.448879 0)
(0.00517953 -0.481474 0)
(0.014353 -0.516821 0)
(-0.846595 -0.258936 0)
(-0.789743 -0.158911 0)
(-0.728488 -0.175348 0)
(-0.648093 -0.299963 0)
(-0.569078 -0.443894 0)
(-0.478483 -0.525099 0)
(-0.400727 -0.570577 0)
(-0.342175 -0.584915 0)
(-0.292095 -0.570824 0)
(-0.229224 -0.521994 0)
(-0.140805 -0.391169 0)
(-0.0311525 -0.293322 0)
(-0.0107448 -0.258881 0)
(0.0505556 -0.103289 0)
(0.0434733 -0.200468 0)
(0.0609882 -0.577058 0)
(0.136958 -0.492721 0)
(0.118767 -0.478308 0)
(0.0517025 -0.488446 0)
(-1.02369 -0.374395 0)
(-0.919397 -0.327325 0)
(-0.814979 -0.370678 0)
(-0.700108 -0.461506 0)
(-0.615522 -0.524038 0)
(-0.544957 -0.53094 0)
(-0.480324 -0.492441 0)
(-0.419951 -0.452028 0)
(-0.357016 -0.440534 0)
(-0.311881 -0.494091 0)
(-0.239276 -0.440749 0)
(-0.118695 -0.304958 0)
(-0.00493795 -0.0856354 0)
(0.0427304 -0.0264976 0)
(0.0794308 -0.125855 0)
(0.153666 -0.29965 0)
(0.21578 -0.347737 0)
(0.167754 -0.375226 0)
(0.0649806 -0.425527 0)
(-1.09231 -0.461243 0)
(-0.968062 -0.423213 0)
(-0.866158 -0.439384 0)
(-0.786919 -0.471392 0)
(-0.710921 -0.495238 0)
(-0.643155 -0.470444 0)
(-0.563092 -0.437122 0)
(-0.507533 -0.416564 0)
(-0.454354 -0.398673 0)
(-0.405366 -0.346822 0)
(-0.334821 -0.282895 0)
(-0.202347 -0.182351 0)
(-0.087299 -0.0316351 0)
(-0.00627604 -0.00506174 0)
(0.106328 -0.107275 0)
(0.190664 -0.290324 0)
(0.237669 -0.359373 0)
(0.180944 -0.350008 0)
(0.0645164 -0.347922 0)
(-1.16486 -0.453501 0)
(-1.03461 -0.422353 0)
(-0.91911 -0.421674 0)
(-0.840002 -0.430586 0)
(-0.730535 -0.468736 0)
(-0.652754 -0.452472 0)
(-0.572425 -0.436227 0)
(-0.523666 -0.412942 0)
(-0.475715 -0.392458 0)
(-0.441109 -0.334562 0)
(-0.374459 -0.246283 0)
(-0.271568 -0.130989 0)
(-0.146726 -0.0731882 0)
(-0.0223324 -0.0823506 0)
(0.178028 -0.24618 0)
(0.21366 -0.477573 0)
(0.142921 -0.554222 0)
(-0.0318864 -0.505643 0)
(-0.0250634 -0.46797 0)
(-1.1647 -0.540002 0)
(-1.03256 -0.523328 0)
(-0.878669 -0.520938 0)
(-0.771599 -0.52747 0)
(-0.669692 -0.630709 0)
(-0.601838 -0.634389 0)
(-0.522892 -0.620743 0)
(-0.484718 -0.571767 0)
(-0.426679 -0.553542 0)
(-0.379688 -0.506171 0)
(-0.30309 -0.442981 0)
(-0.225088 -0.339556 0)
(-0.11801 -0.290382 0)
(0.0176081 -0.356507 0)
(0.106901 -0.481652 0)
(-0.0363288 -0.620237 0)
(0.0187905 0.803543 0)
(-0.511017 0.566831 0)
(-0.0732649 0.106913 0)
(-1.13952 -0.878614 0)
(-1.05693 -0.776269 0)
(-0.896343 -0.804023 0)
(-0.764458 -0.776321 0)
(-0.665057 -0.830181 0)
(-0.614422 -0.848493 0)
(-0.539307 -0.857484 0)
(-0.479976 -0.770193 0)
(-0.421517 -0.720154 0)
(-0.376718 -0.66784 0)
(-0.307683 -0.612487 0)
(-0.257676 -0.55488 0)
(-0.230813 -0.572138 0)
(-0.277931 -0.597186 0)
(-0.606424 1.07417 0)
(-1.33466 -0.188456 0)
(-0.640521 -0.681335 0)
(-0.200834 -0.650466 0)
(-0.0276414 -0.654815 0)
(-1.22157 0.0848764 0)
(-1.26691 -0.017204 0)
(-1.33543 -0.0490388 0)
(-1.32415 0.00838842 0)
(-1.39681 0.290877 0)
(-1.41797 0.309916 0)
(-1.37921 0.125028 0)
(-1.46184 0.0631018 0)
(-1.56111 0.109962 0)
(-1.84452 -0.0727456 0)
(-2.01394 -0.130931 0)
(-2.00895 -0.0844088 0)
(-1.72614 -0.0887858 0)
(-1.31285 -0.184302 0)
(-0.733364 -0.108985 0)
(-0.509361 -0.1489 0)
(-0.30908 -0.218555 0)
(-0.182485 -0.14237 0)
(-0.0677798 -0.299642 0)
(-1.40569 -1.0654 0)
(-1.25058 -0.978497 0)
(-1.22501 -0.897745 0)
(-1.29821 -0.870052 0)
(-1.41409 -0.94686 0)
(-1.38995 -0.918836 0)
(-1.37439 -0.853236 0)
(-1.41785 -0.800252 0)
(-1.40102 -0.591965 0)
(-1.37105 -0.418162 0)
(-1.38468 -0.432782 0)
(-1.34074 -0.616181 0)
(-1.27504 -0.676495 0)
(-1.11846 -0.532671 0)
(-0.914891 -0.323231 0)
(-0.497781 -0.593309 0)
(-0.315923 -0.688261 0)
(-0.147022 -0.604294 0)
(-0.0232655 -0.630967 0)
(-0.962276 -0.659138 0)
(-0.809834 -0.558147 0)
(-0.647883 -0.409466 0)
(-0.542036 -0.292132 0)
(-0.52541 -0.2282 0)
(-0.566957 -0.174813 0)
(-0.677133 -0.0557417 0)
(-0.81989 0.143029 0)
(-1.13316 0.213694 0)
(-1.27135 0.150242 0)
(-1.2452 -0.059421 0)
(-0.983442 -0.408125 0)
(-0.784993 -0.60157 0)
(-0.734476 -0.677666 0)
(-0.59009 -0.725201 0)
(-0.351636 -0.79087 0)
(-0.248532 -0.763323 0)
(-0.102114 -0.631628 0)
(0.00134523 -0.62488 0)
(-0.278374 -0.945203 0)
(-0.201909 -0.761576 0)
(-0.120048 -0.548046 0)
(-0.09846 -0.402626 0)
(-0.184561 -0.301457 0)
(-0.275103 -0.240596 0)
(-0.472622 -0.238181 0)
(-0.501124 -0.230107 0)
(-0.429896 -0.211942 0)
(-0.330436 -0.296678 0)
(-0.238719 -0.506296 0)
(-0.120319 -0.728609 0)
(-0.0729632 -0.76766 0)
(-0.107641 -0.641117 0)
(-0.12446 -0.627703 0)
(-0.094017 -0.818353 0)
(-0.0886617 -0.85249 0)
(-0.0587224 -0.725536 0)
(0.00643101 -0.658733 0)
(0.0170825 -1.10988 0)
(0.045534 -0.980102 0)
(0.149681 -0.76002 0)
(0.196263 -0.504279 0)
(0.153729 -0.363079 0)
(0.159917 -0.24171 0)
(0.193293 -0.109912 0)
(0.216566 -0.0457551 0)
(0.236944 -0.0751092 0)
(0.263124 -0.156695 0)
(0.29369 -0.324054 0)
(0.285193 -0.548285 0)
(0.222363 -0.664301 0)
(0.135995 -0.597061 0)
(0.103003 -0.620856 0)
(0.114164 -0.78049 0)
(0.0463993 -0.816113 0)
(0.00966457 -0.721692 0)
(0.00764487 -0.663784 0)
(0.383153 -0.969924 0)
(0.343308 -0.891378 0)
(0.348705 -0.739994 0)
(0.354451 -0.429065 0)
(0.337849 -0.241507 0)
(0.30187 -0.202734 0)
(0.305988 -0.167463 0)
(0.36408 -0.150496 0)
(0.45466 -0.140525 0)
(0.477667 -0.204316 0)
(0.473395 -0.35129 0)
(0.421531 -0.545564 0)
(0.341161 -0.639025 0)
(0.231548 -0.59128 0)
(0.198949 -0.605266 0)
(0.18672 -0.718479 0)
(0.105429 -0.749745 0)
(0.0449643 -0.664523 0)
(0.00840685 -0.623067 0)
(0.576767 -0.968215 0)
(0.482166 -0.911746 0)
(0.422901 -0.756441 0)
(0.399164 -0.440184 0)
(0.380377 -0.227165 0)
(0.372876 -0.173427 0)
(0.351722 -0.181577 0)
(0.361693 -0.215787 0)
(0.397034 -0.24002 0)
(0.442386 -0.277496 0)
(0.450963 -0.355089 0)
(0.416936 -0.466856 0)
(0.357122 -0.541087 0)
(0.25535 -0.533934 0)
(0.245412 -0.563691 0)
(0.228437 -0.682568 0)
(0.160227 -0.71521 0)
(0.0507362 -0.607944 0)
(-0.00324761 -0.601415 0)
(0.664174 -0.838772 0)
(0.542719 -0.807834 0)
(0.449717 -0.688596 0)
(0.402056 -0.440315 0)
(0.383898 -0.243062 0)
(0.372371 -0.176517 0)
(0.355167 -0.175091 0)
(0.364346 -0.202806 0)
(0.380572 -0.234772 0)
(0.38549 -0.270049 0)
(0.387924 -0.328821 0)
(0.364747 -0.437674 0)
(0.326514 -0.505705 0)
(0.281448 -0.524069 0)
(0.301097 -0.568083 0)
(0.269083 -0.656086 0)
(0.205526 -0.63452 0)
(0.064755 -0.525045 0)
(0.0250599 -0.57257 0)
(0.607693 -0.717587 0)
(0.471771 -0.709008 0)
(0.340184 -0.605234 0)
(0.284457 -0.395296 0)
(0.282743 -0.204361 0)
(0.289348 -0.153298 0)
(0.303205 -0.170399 0)
(0.32941 -0.222916 0)
(0.343478 -0.246244 0)
(0.355199 -0.267444 0)
(0.376758 -0.306465 0)
(0.375842 -0.394421 0)
(0.355986 -0.459486 0)
(0.329203 -0.493711 0)
(0.322813 -0.565523 0)
(0.272193 -0.577369 0)
(0.182961 -0.550164 0)
(0.0642254 -0.451632 0)
(0.0385785 -0.525399 0)
)
;

boundaryField
{
    leftWall
    {
        type            fixedValue;
        value           nonuniform 0();
    }
    rightWall
    {
        type            fixedValue;
        value           uniform (0 0 0);
    }
    lowerWall
    {
        type            fixedValue;
        value           uniform (0 0 0);
    }
    atmosphere
    {
        type            fluxCorrectedVelocity;
        value           nonuniform 0();
    }
    defaultFaces
    {
        type            empty;
    }
    procBoundary1to0
    {
        type            processor;
        value           nonuniform List<vector> 
26
(
(-0.026127 0.0038475 0)
(-0.00279277 -0.0109712 0)
(-0.00163446 -0.00654535 0)
(-0.0115113 -0.0298909 0)
(-0.0183277 -0.0425833 0)
(-0.0787277 -0.15092 0)
(-0.253629 -0.946271 0)
(-0.229686 -1.01308 0)
(-0.234119 -0.756572 0)
(-0.362647 -0.215925 0)
(-0.880132 -0.351632 0)
(-1.16619 -0.326039 0)
(-1.38948 -0.393526 0)
(-1.54568 -0.414189 0)
(-1.49367 -0.627904 0)
(-1.23376 0.61178 0)
(-1.26143 -0.633996 0)
(-1.26143 -0.633996 0)
(-1.87612 -0.415147 0)
(-1.3328 -0.371297 0)
(-0.720895 -0.519111 0)
(-0.105956 -0.483304 0)
(0.453989 -0.55193 0)
(0.79908 -0.594953 0)
(0.912872 -0.548387 0)
(0.911717 -0.52603 0)
)
;
    }
    procBoundary1to3
    {
        type            processor;
        value           nonuniform List<vector> 
23
(
(0.709787 -0.54418 0)
(0.653472 -0.565362 0)
(0.595238 -0.586535 0)
(0.546814 -0.590188 0)
(0.470485 -0.626443 0)
(0.346564 -0.604579 0)
(0.219277 -0.497531 0)
(0.162684 -0.349429 0)
(0.167518 -0.233908 0)
(0.206052 -0.192342 0)
(0.250026 -0.201508 0)
(0.284088 -0.236814 0)
(0.308498 -0.267411 0)
(0.320551 -0.299318 0)
(0.349193 -0.33054 0)
(0.369832 -0.393731 0)
(0.352841 -0.446071 0)
(0.326895 -0.479158 0)
(0.301924 -0.502391 0)
(0.242475 -0.507542 0)
(0.18103 -0.475577 0)
(0.0816306 -0.413283 0)
(0.0622112 -0.467275 0)
)
;
    }
}


// ************************************************************************* //
