/*--------------------------------*- C++ -*----------------------------------*\
| =========                 |                                                 |
| \\      /  F ield         | OpenFOAM: The Open Source CFD Toolbox           |
|  \\    /   O peration     | Version:  2.4.0                                 |
|   \\  /    A nd           | Web:      www.OpenFOAM.org                      |
|    \\/     M anipulation  |                                                 |
\*---------------------------------------------------------------------------*/
FoamFile
{
    version     2.0;
    format      ascii;
    class       volVectorField;
    location    "1";
    object      U.oil;
}
// * * * * * * * * * * * * * * * * * * * * * * * * * * * * * * * * * * * * * //

dimensions      [0 1 -1 0 0 0 0];

internalField   nonuniform List<vector> 
559
(
(-0.0182677 0.00345597 0)
(0.000647243 -0.00460731 0)
(0.00524682 0.00140333 0)
(-0.000319463 0.00938099 0)
(0.00228987 0.0202927 0)
(-0.101644 0.160658 0)
(-0.237371 0.211787 0)
(-0.254514 -0.310163 0)
(-0.00456985 -0.382563 0)
(0.13316 -0.420997 0)
(0.194832 -0.499078 0)
(0.23034 -0.528023 0)
(0.266396 -0.566563 0)
(0.272123 -0.621027 0)
(0.234995 -0.593126 0)
(0.195927 -0.452257 0)
(0.184764 -0.293209 0)
(0.20593 -0.175626 0)
(0.202264 -0.0728685 0)
(0.159115 0.000221493 0)
(0.126644 0.0171328 0)
(0.139342 0.068694 0)
(0.1584 0.116097 0)
(0.081626 0.144234 0)
(-0.0776749 0.150118 0)
(-0.117418 0.114051 0)
(-0.0739439 0.0947706 0)
(0.10585 0.50935 0)
(0.149206 0.509894 0)
(0.256943 0.638113 0)
(0.251944 0.672405 0)
(0.258488 0.726245 0)
(0.270663 0.87841 0)
(0.204721 0.938129 0)
(0.0822766 0.799162 0)
(-0.157472 0.551464 0)
(-0.18207 0.470935 0)
(-0.17843 0.408175 0)
(-0.163327 0.370844 0)
(-0.249552 0.320979 0)
(-0.243614 0.243469 0)
(-0.0568048 0.243404 0)
(-0.0682157 0.27634 0)
(-0.121452 0.265732 0)
(-0.118486 0.231603 0)
(-0.0579153 0.147352 0)
(0.0419563 -0.403874 0)
(-0.0773803 -0.446105 0)
(-0.0322856 -0.46704 0)
(0.039682 -0.482788 0)
(-0.000343999 -0.569893 0)
(-0.0607239 -0.546409 0)
(-0.117763 -0.519763 0)
(-0.132664 -0.213965 0)
(-0.497107 -0.0512772 0)
(-0.572807 -0.105794 0)
(-0.563192 -0.0666307 0)
(-0.499501 0.0599048 0)
(-0.460763 0.0922734 0)
(-0.414079 0.0226762 0)
(-0.270768 0.0451303 0)
(-0.100325 0.203809 0)
(-0.131261 0.207809 0)
(-0.0823657 0.108996 0)
(-0.0025138 0.0549837 0)
(0.147441 -0.144803 0)
(0.0951005 0.00596294 0)
(0.18851 0.187437 0)
(0.139863 0.310479 0)
(0.168142 0.461761 0)
(0.114931 0.568732 0)
(-0.0579523 0.636277 0)
(-0.134131 0.543205 0)
(-0.331295 0.413325 0)
(-0.45481 0.264232 0)
(-0.503856 0.207902 0)
(-0.522628 0.207783 0)
(-0.525024 0.194185 0)
(-0.507344 0.0943744 0)
(-0.417886 0.0685359 0)
(-0.209753 0.164586 0)
(-0.146781 0.208416 0)
(-0.066329 0.165176 0)
(0.0159872 0.0886002 0)
(0.109388 -0.156196 0)
(-0.0145535 -0.161026 0)
(-0.0126045 -0.200788 0)
(-0.0791203 -0.28027 0)
(-0.125169 -0.385249 0)
(-0.122954 -0.202413 0)
(-0.0798159 -0.0854855 0)
(0.025898 0.23693 0)
(-0.0404047 0.328397 0)
(-0.2006 0.125473 0)
(-0.210698 0.126311 0)
(-0.333289 0.277481 0)
(-0.484704 0.254034 0)
(-0.491998 -0.0455909 0)
(-0.490446 -0.0657078 0)
(-0.2968 0.127008 0)
(-0.131413 0.187733 0)
(-0.0200433 0.0838427 0)
(0.0655836 0.0364854 0)
(0.108153 -0.165645 0)
(0.0845898 -0.0778255 0)
(0.153985 0.0470769 0)
(0.119858 0.205357 0)
(-0.0178704 0.3392 0)
(-0.177998 0.281985 0)
(-0.213958 0.273312 0)
(-0.0500563 0.286073 0)
(0.100502 0.310996 0)
(-0.0132984 0.141954 0)
(-0.173698 -0.0226911 0)
(-0.215662 -0.0563956 0)
(-0.127706 -0.115596 0)
(-0.172792 -0.0312178 0)
(-0.356618 -0.0712768 0)
(-0.340859 -0.0197132 0)
(-0.14427 0.0707414 0)
(-0.0190227 0.00428842 0)
(0.0385148 0.00950001 0)
(0.102382 -0.19377 0)
(0.0170312 -0.0502548 0)
(0.0112154 -0.0818198 0)
(-0.127879 -0.127663 0)
(-0.151123 -0.0784303 0)
(-0.189655 0.0459887 0)
(-0.188401 0.0268503 0)
(-0.0528945 0.175466 0)
(0.127045 0.287132 0)
(0.143378 0.221754 0)
(-0.067495 0.149006 0)
(-0.158341 0.161062 0)
(-0.166632 0.103109 0)
(-0.117082 -0.109484 0)
(-0.235765 -0.0252351 0)
(-0.301732 0.0615406 0)
(-0.297791 0.0361952 0)
(-0.154433 0.0534003 0)
(-0.0708481 0.072164 0)
(0.135991 -0.21555 0)
(0.0249628 -0.0776333 0)
(0.0494118 0.0263964 0)
(-0.0611864 0.177081 0)
(-0.220633 0.201535 0)
(-0.242332 0.173801 0)
(-0.222732 0.133756 0)
(-0.134365 0.11905 0)
(0.0882333 0.236082 0)
(0.187152 0.249111 0)
(0.0881875 0.193387 0)
(-0.0945763 0.0824559 0)
(-0.117441 -0.0579646 0)
(-0.148524 -0.0668017 0)
(-0.278257 -0.0850412 0)
(-0.350593 -0.0554224 0)
(-0.357375 -0.0657929 0)
(-0.237283 -0.195804 0)
(-0.13009 -0.216921 0)
(-0.367527 -0.20132 0)
(-0.14724 -0.0837761 0)
(-0.626726 -0.140504 0)
(-0.99211 -0.0287471 0)
(-1.23787 -0.0834282 0)
(-1.48654 -0.203868 0)
(-1.50196 -0.507482 0)
(-1.37778 -0.901842 0)
(-0.241487 -0.455091 0)
(-0.0855182 -0.420786 0)
(-0.0209955 -0.386254 0)
(0.130728 -0.388936 0)
(-0.277824 -0.105412 0)
(-0.325721 -0.0704575 0)
(-0.362737 -0.0755907 0)
(-0.41656 -0.0723408 0)
(-0.630872 -0.177999 0)
(-0.646779 -0.185557 0)
(-0.667001 -0.166754 0)
(-0.699673 -0.136169 0)
(-0.97701 -0.0524497 0)
(-0.980313 -0.0569286 0)
(-0.981635 -0.0566664 0)
(-0.989597 -0.0495226 0)
(-1.19307 -0.114592 0)
(-1.17077 -0.119396 0)
(-1.15959 -0.118907 0)
(-1.14469 -0.103415 0)
(-1.41504 -0.198894 0)
(-1.36188 -0.236038 0)
(-1.31399 -0.217292 0)
(-1.28007 -0.219626 0)
(-1.45135 -0.484906 0)
(-1.36683 -0.474711 0)
(-1.32155 -0.449995 0)
(-1.24127 -0.416367 0)
(-1.32278 -0.850867 0)
(-1.25642 -0.820707 0)
(-1.19748 -0.859962 0)
(-1.17553 -0.886964 0)
(-1.19192 -0.55787 0)
(-1.21875 -0.566205 0)
(-1.11401 -0.961024 0)
(-1.1212 -1.25722 0)
(-1.74455 -0.710413 0)
(-1.68561 -0.852307 0)
(-1.59793 -0.964949 0)
(-1.52441 -1.00142 0)
(-1.36799 -0.491766 0)
(-1.27411 -0.556353 0)
(-1.19905 -0.635729 0)
(-1.08911 -0.660778 0)
(-0.642904 -0.795456 0)
(-0.587656 -0.86762 0)
(-0.468552 -0.957048 0)
(-0.34734 -0.983471 0)
(-0.0269688 -0.76665 0)
(-0.0124262 -0.891267 0)
(0.0199656 -1.00884 0)
(0.0528752 -1.08595 0)
(0.533392 -0.755678 0)
(0.511364 -0.870756 0)
(0.509008 -0.957478 0)
(0.511487 -0.996251 0)
(0.788154 -0.753694 0)
(0.746019 -0.827605 0)
(0.710586 -0.887888 0)
(0.743789 -0.960449 0)
(0.880005 -0.691105 0)
(0.84454 -0.759356 0)
(0.805668 -0.796554 0)
(0.809301 -0.834282 0)
(0.872802 -0.616038 0)
(0.82773 -0.655571 0)
(0.816241 -0.705206 0)
(0.820512 -0.693082 0)
(0.160603 -0.208816 0)
(-0.0952254 0.0747552 0)
(-0.202291 0.00815924 0)
(-0.256749 0.0510627 0)
(-0.300614 0.101894 0)
(-0.283489 0.0992715 0)
(-0.237359 0.00875759 0)
(-0.146492 0.0210136 0)
(-0.019062 0.10692 0)
(0.155389 0.22847 0)
(0.180618 0.241688 0)
(0.1167 0.247317 0)
(-0.0247192 0.154679 0)
(-0.208264 0.0101999 0)
(-0.330812 0.0171043 0)
(-0.36179 -0.109989 0)
(-0.267801 -0.23175 0)
(-0.147238 -0.264173 0)
(-0.0470528 -0.223063 0)
(-0.453077 -0.0623474 0)
(-0.400408 0.101922 0)
(-0.44494 0.166352 0)
(-0.43876 0.200887 0)
(-0.425042 0.173079 0)
(-0.344364 0.109603 0)
(-0.266852 0.0317917 0)
(-0.191672 -0.0306355 0)
(-0.102243 -0.00986424 0)
(0.0275148 0.0880227 0)
(0.171538 0.230186 0)
(0.167469 0.277141 0)
(0.14693 0.249042 0)
(0.0175116 0.123108 0)
(-0.0790743 0.0576988 0)
(-0.0778506 -0.0193888 0)
(-0.0367092 -0.1615 0)
(-0.037973 -0.295814 0)
(-0.00371394 -0.296455 0)
(-0.739227 -0.0710392 0)
(-0.735577 0.0757433 0)
(-0.687469 0.134781 0)
(-0.605142 0.119285 0)
(-0.48694 0.0628482 0)
(-0.353244 -0.010181 0)
(-0.249928 -0.0814627 0)
(-0.173973 -0.116717 0)
(-0.123438 -0.102908 0)
(-0.0609592 -0.0371868 0)
(0.0560522 0.111391 0)
(0.145829 0.261869 0)
(0.139811 0.261373 0)
(0.131741 0.227094 0)
(0.0704001 0.100941 0)
(0.10872 -0.145259 0)
(0.173208 -0.247761 0)
(0.110842 -0.305693 0)
(0.0435513 -0.273697 0)
(-0.985272 -0.0212052 0)
(-0.916494 0.0496114 0)
(-0.800068 0.0606065 0)
(-0.638134 -0.00326154 0)
(-0.517947 -0.0827533 0)
(-0.392966 -0.121145 0)
(-0.319603 -0.152564 0)
(-0.266174 -0.15968 0)
(-0.215181 -0.133736 0)
(-0.155898 -0.0802972 0)
(-0.0953438 0.0362256 0)
(0.0333651 0.209881 0)
(0.0918885 0.246955 0)
(0.11284 0.209495 0)
(0.118103 0.0567622 0)
(0.178396 -0.155975 0)
(0.231688 -0.208653 0)
(0.173928 -0.217993 0)
(0.063766 -0.198589 0)
(-1.10021 -0.0944558 0)
(-0.972827 -0.0499148 0)
(-0.846662 -0.0707747 0)
(-0.737166 -0.129751 0)
(-0.636838 -0.189043 0)
(-0.564856 -0.211184 0)
(-0.499491 -0.209017 0)
(-0.446705 -0.20964 0)
(-0.392988 -0.20833 0)
(-0.345793 -0.171326 0)
(-0.278178 -0.0863708 0)
(-0.137049 0.0858981 0)
(-0.0432344 0.168432 0)
(0.0406401 0.178002 0)
(0.138521 0.0392387 0)
(0.2267 -0.190739 0)
(0.26966 -0.268351 0)
(0.19545 -0.247315 0)
(0.0676292 -0.211806 0)
(-1.1837 -0.183669 0)
(-1.0309 -0.142204 0)
(-0.903121 -0.152857 0)
(-0.824397 -0.196062 0)
(-0.707598 -0.251557 0)
(-0.629665 -0.250351 0)
(-0.54875 -0.245401 0)
(-0.501057 -0.233066 0)
(-0.45567 -0.223552 0)
(-0.429336 -0.176304 0)
(-0.376654 -0.0993552 0)
(-0.270865 0.0220634 0)
(-0.12257 0.0969348 0)
(0.0149766 0.0740469 0)
(0.223001 -0.119766 0)
(0.245878 -0.392123 0)
(0.152154 -0.507013 0)
(-0.0329489 -0.493462 0)
(-0.0235018 -0.493358 0)
(-1.16541 -0.385014 0)
(-1.02913 -0.365552 0)
(-0.867109 -0.363876 0)
(-0.757341 -0.384309 0)
(-0.655511 -0.491849 0)
(-0.591787 -0.500206 0)
(-0.515855 -0.490929 0)
(-0.47739 -0.453068 0)
(-0.423142 -0.444265 0)
(-0.380208 -0.402165 0)
(-0.310173 -0.338064 0)
(-0.230931 -0.230488 0)
(-0.116817 -0.189131 0)
(0.0198355 -0.265785 0)
(0.119239 -0.423704 0)
(-0.0550324 -0.656413 0)
(-0.288283 -0.834898 0)
(-0.201097 -0.11561 0)
(-0.225419 -0.133082 0)
(-1.12649 -0.846053 0)
(-1.04811 -0.717374 0)
(-0.887829 -0.755721 0)
(-0.748073 -0.720327 0)
(-0.646055 -0.79095 0)
(-0.598981 -0.830849 0)
(-0.528451 -0.843996 0)
(-0.46735 -0.736879 0)
(-0.411412 -0.68101 0)
(-0.366062 -0.629764 0)
(-0.3072 -0.567655 0)
(-0.259065 -0.498318 0)
(-0.224198 -0.510994 0)
(-0.274455 -0.760853 0)
(-0.789379 -1.11178 0)
(-0.967969 -0.313483 0)
(-0.622737 -0.696963 0)
(-0.195869 -0.665139 0)
(-0.0359897 -0.675399 0)
(-1.41752 -1.6243 0)
(-1.73316 -1.82669 0)
(-1.85404 -1.87591 0)
(-1.93289 -1.96316 0)
(-3.10761 -3.38276 0)
(-2.22369 -0.924778 0)
(-1.37835 -0.169458 0)
(-1.25235 -0.154178 0)
(-1.30143 -0.0960765 0)
(-1.4838 -0.220293 0)
(-1.52673 -0.264241 0)
(-1.39985 -0.228308 0)
(-1.17222 -0.237513 0)
(-1.13447 -0.273817 0)
(-0.738474 -0.124116 0)
(-0.514694 -0.14127 0)
(-0.308658 -0.235466 0)
(-0.182055 -0.167373 0)
(-0.0679294 -0.327501 0)
(-1.37644 -1.04545 0)
(-1.22812 -0.961624 0)
(-1.21195 -0.874966 0)
(-1.28854 -0.831162 0)
(-1.39567 -0.883841 0)
(-1.32106 -0.875613 0)
(-1.39609 -0.864122 0)
(-1.44088 -0.817253 0)
(-1.42514 -0.629023 0)
(-1.37135 -0.445641 0)
(-1.3627 -0.447975 0)
(-1.32209 -0.627764 0)
(-1.24456 -0.675557 0)
(-1.10675 -0.548346 0)
(-0.90861 -0.338914 0)
(-0.494401 -0.605346 0)
(-0.315626 -0.697543 0)
(-0.146941 -0.623967 0)
(-0.0221068 -0.699232 0)
(-0.919657 -0.690469 0)
(-0.769772 -0.588039 0)
(-0.640196 -0.430558 0)
(-0.538809 -0.313383 0)
(-0.524082 -0.246927 0)
(-0.56379 -0.19031 0)
(-0.679273 -0.0633602 0)
(-0.824077 0.140469 0)
(-1.14304 0.216511 0)
(-1.28162 0.15089 0)
(-1.23304 -0.082018 0)
(-0.919624 -0.453151 0)
(-0.728496 -0.633908 0)
(-0.716788 -0.701904 0)
(-0.583615 -0.744401 0)
(-0.347119 -0.8005 0)
(-0.246922 -0.769446 0)
(-0.0986448 -0.661978 0)
(0.00631007 -0.755717 0)
(-0.154673 -0.992824 0)
(-0.0374567 -0.905175 0)
(-0.0956388 -0.570066 0)
(-0.0902856 -0.4053 0)
(-0.17958 -0.300571 0)
(-0.275033 -0.23973 0)
(-0.479722 -0.240247 0)
(-0.525709 -0.238047 0)
(-0.472598 -0.220982 0)
(-0.377538 -0.301821 0)
(-0.259731 -0.506375 0)
(-0.0792483 -0.737859 0)
(-0.0192924 -0.788619 0)
(-0.0822245 -0.675044 0)
(-0.106764 -0.656269 0)
(-0.0861602 -0.831769 0)
(-0.0871666 -0.86202 0)
(-0.0550476 -0.750039 0)
(0.0103412 -0.791134 0)
(0.314007 -1.15563 0)
(0.325917 -1.06233 0)
(0.258095 -0.851204 0)
(0.215496 -0.569512 0)
(0.156109 -0.422831 0)
(0.154109 -0.269157 0)
(0.188998 -0.121539 0)
(0.212379 -0.0557482 0)
(0.227119 -0.0856792 0)
(0.255318 -0.15951 0)
(0.300047 -0.314185 0)
(0.310295 -0.541783 0)
(0.263049 -0.682806 0)
(0.16988 -0.627198 0)
(0.125812 -0.658081 0)
(0.123442 -0.798847 0)
(0.0485333 -0.82104 0)
(0.0138643 -0.752278 0)
(0.0134807 -0.787424 0)
(0.664024 -0.984035 0)
(0.602399 -0.985147 0)
(0.463969 -0.85465 0)
(0.398722 -0.537027 0)
(0.351042 -0.360933 0)
(0.303399 -0.256918 0)
(0.304061 -0.176297 0)
(0.363101 -0.152838 0)
(0.45403 -0.141987 0)
(0.477669 -0.204584 0)
(0.475097 -0.348154 0)
(0.429651 -0.54486 0)
(0.365049 -0.654273 0)
(0.256236 -0.620916 0)
(0.219202 -0.637181 0)
(0.194536 -0.729378 0)
(0.107458 -0.75426 0)
(0.0519218 -0.720795 0)
(0.013291 -0.732664 0)
(0.796404 -0.891353 0)
(0.685168 -0.939411 0)
(0.5042 -0.833667 0)
(0.44804 -0.534939 0)
(0.41403 -0.34603 0)
(0.383062 -0.25207 0)
(0.351557 -0.197654 0)
(0.360897 -0.219604 0)
(0.396444 -0.240861 0)
(0.442365 -0.277996 0)
(0.451916 -0.356169 0)
(0.419216 -0.467221 0)
(0.36657 -0.547436 0)
(0.273026 -0.558267 0)
(0.257234 -0.582864 0)
(0.230917 -0.685004 0)
(0.161678 -0.71921 0)
(0.0580739 -0.66655 0)
(-0.00423779 -0.661356 0)
(0.80804 -0.764429 0)
(0.630542 -0.773611 0)
(0.456103 -0.692819 0)
(0.430804 -0.491363 0)
(0.420701 -0.345799 0)
(0.383484 -0.227466 0)
(0.35655 -0.190375 0)
(0.364375 -0.206775 0)
(0.38052 -0.236082 0)
(0.38556 -0.270516 0)
(0.388184 -0.329284 0)
(0.365854 -0.439318 0)
(0.328487 -0.509428 0)
(0.284584 -0.531762 0)
(0.303422 -0.572801 0)
(0.269677 -0.657492 0)
(0.206285 -0.636976 0)
(0.0704639 -0.584938 0)
(0.0268794 -0.593191 0)
(0.6618 -0.704541 0)
(0.475828 -0.712803 0)
(0.343678 -0.613503 0)
(0.289074 -0.410964 0)
(0.289961 -0.227296 0)
(0.29372 -0.172702 0)
(0.304553 -0.178366 0)
(0.329601 -0.225423 0)
(0.343558 -0.247482 0)
(0.355423 -0.26819 0)
(0.37713 -0.307239 0)
(0.376479 -0.395739 0)
(0.356635 -0.460862 0)
(0.329664 -0.4954 0)
(0.323065 -0.566568 0)
(0.272139 -0.577337 0)
(0.18335 -0.551759 0)
(0.0663533 -0.476991 0)
(0.03968 -0.548224 0)
)
;

boundaryField
{
    leftWall
    {
        type            fixedValue;
        value           nonuniform 0();
    }
    rightWall
    {
        type            fixedValue;
        value           uniform (0 0 0);
    }
    lowerWall
    {
        type            fixedValue;
        value           uniform (0 0 0);
    }
    atmosphere
    {
        type            fluxCorrectedVelocity;
        value           nonuniform 0();
    }
    defaultFaces
    {
        type            empty;
    }
    procBoundary1to0
    {
        type            processor;
        value           nonuniform List<vector> 
26
(
(-0.0260456 0.0112906 0)
(-0.00267982 -0.00348379 0)
(-0.00138738 0.00059246 0)
(-0.0116359 -0.0210534 0)
(-0.0180751 0.0102117 0)
(-0.0873947 0.0958965 0)
(-0.157107 0.370217 0)
(-0.174142 -0.287013 0)
(-0.22497 0.313289 0)
(-0.15355 -0.0739871 0)
(-0.666667 0.0100439 0)
(-0.964921 0.0114077 0)
(-1.31158 0.0208491 0)
(-1.62604 -0.151075 0)
(-1.51045 -0.517194 0)
(-1.49989 -0.88845 0)
(-1.27282 -0.623836 0)
(-1.27282 -0.623836 0)
(-1.85588 -0.452901 0)
(-1.32559 -0.390687 0)
(-0.691993 -0.53608 0)
(-0.0736888 -0.48221 0)
(0.47591 -0.537107 0)
(0.816025 -0.576155 0)
(0.940725 -0.510989 0)
(0.917164 -0.415104 0)
)
;
    }
    procBoundary1to3
    {
        type            processor;
        value           nonuniform List<vector> 
23
(
(0.708622 -0.543386 0)
(0.656531 -0.566515 0)
(0.598691 -0.5883 0)
(0.550602 -0.593607 0)
(0.472978 -0.629823 0)
(0.347377 -0.606739 0)
(0.221405 -0.502008 0)
(0.165601 -0.356275 0)
(0.171123 -0.243365 0)
(0.208087 -0.200598 0)
(0.250818 -0.205792 0)
(0.284377 -0.238697 0)
(0.308662 -0.268446 0)
(0.320704 -0.300009 0)
(0.349397 -0.331165 0)
(0.37002 -0.394315 0)
(0.352809 -0.446292 0)
(0.327021 -0.47953 0)
(0.301853 -0.502417 0)
(0.242429 -0.507649 0)
(0.181487 -0.47735 0)
(0.0827494 -0.422891 0)
(0.0629326 -0.489417 0)
)
;
    }
}


// ************************************************************************* //
