/*--------------------------------*- C++ -*----------------------------------*\
| =========                 |                                                 |
| \\      /  F ield         | OpenFOAM: The Open Source CFD Toolbox           |
|  \\    /   O peration     | Version:  2.4.0                                 |
|   \\  /    A nd           | Web:      www.OpenFOAM.org                      |
|    \\/     M anipulation  |                                                 |
\*---------------------------------------------------------------------------*/
FoamFile
{
    version     2.0;
    format      ascii;
    class       volVectorField;
    location    "1";
    object      U.water;
}
// * * * * * * * * * * * * * * * * * * * * * * * * * * * * * * * * * * * * * //

dimensions      [0 1 -1 0 0 0 0];

internalField   nonuniform List<vector> 
559
(
(-0.018325 -0.00547094 0)
(0.000553909 -0.0155453 0)
(0.00500289 -0.00843665 0)
(-0.000335009 0.0361287 0)
(0.00435469 0.144354 0)
(-0.0885344 0.128989 0)
(-0.225855 0.194116 0)
(-0.279718 -0.421331 0)
(-0.00229601 -0.389606 0)
(0.135167 -0.439005 0)
(0.197836 -0.522587 0)
(0.231787 -0.551637 0)
(0.268662 -0.583457 0)
(0.272353 -0.648028 0)
(0.231305 -0.619109 0)
(0.191614 -0.479055 0)
(0.182727 -0.313135 0)
(0.204487 -0.187043 0)
(0.201734 -0.0799471 0)
(0.160701 -0.0133003 0)
(0.128433 0.00537699 0)
(0.137336 0.0595689 0)
(0.167738 0.0613202 0)
(0.099571 0.064628 0)
(-0.0706724 0.0212233 0)
(-0.11715 -0.0212243 0)
(-0.0716348 -0.031639 0)
(0.10581 0.369773 0)
(0.156871 0.402783 0)
(0.274991 0.54328 0)
(0.262097 0.566988 0)
(0.269694 0.617947 0)
(0.280485 0.78443 0)
(0.225389 0.833975 0)
(0.117263 0.770351 0)
(-0.13926 0.555262 0)
(-0.178041 0.472664 0)
(-0.176723 0.411073 0)
(-0.162248 0.373085 0)
(-0.250518 0.323266 0)
(-0.24424 0.243076 0)
(-0.0572967 0.241867 0)
(-0.0623534 0.245764 0)
(-0.114108 0.152367 0)
(-0.116656 0.102435 0)
(-0.055548 0.0269719 0)
(0.0883392 -0.513363 0)
(-0.0331259 -0.515928 0)
(-0.00585837 -0.563615 0)
(0.0607115 -0.599193 0)
(0.0408624 -0.659997 0)
(-0.0250413 -0.663605 0)
(-0.0931576 -0.625017 0)
(-0.105847 -0.243407 0)
(-0.46359 -0.0543724 0)
(-0.567116 -0.114225 0)
(-0.557476 -0.0739263 0)
(-0.493925 0.050526 0)
(-0.458647 0.0846019 0)
(-0.410663 0.0206331 0)
(-0.264977 0.0463711 0)
(-0.0942596 0.181706 0)
(-0.126937 0.118225 0)
(-0.0836126 -0.0104695 0)
(-0.0031097 -0.0452129 0)
(0.138085 -0.324968 0)
(0.0872017 -0.220569 0)
(0.144191 -0.0375957 0)
(0.123231 0.107952 0)
(0.123387 0.210134 0)
(0.115876 0.352307 0)
(-0.0243646 0.476381 0)
(-0.119527 0.410788 0)
(-0.328407 0.307271 0)
(-0.462086 0.229911 0)
(-0.503326 0.189899 0)
(-0.52273 0.194831 0)
(-0.524249 0.180109 0)
(-0.50677 0.0812497 0)
(-0.417792 0.0603165 0)
(-0.205319 0.152501 0)
(-0.142292 0.118992 0)
(-0.0676284 0.056058 0)
(0.0180408 0.0175382 0)
(0.105704 -0.288254 0)
(0.040316 -0.282349 0)
(0.0295009 -0.27366 0)
(-0.0434583 -0.360946 0)
(-0.0855044 -0.345192 0)
(-0.131001 -0.333636 0)
(-0.0810297 -0.230541 0)
(0.0158253 0.141597 0)
(-0.0574723 0.253278 0)
(-0.229488 0.0893353 0)
(-0.227282 0.0497918 0)
(-0.339079 0.185478 0)
(-0.446904 0.172072 0)
(-0.459169 -0.0491282 0)
(-0.484995 -0.0726824 0)
(-0.299285 0.113377 0)
(-0.130499 0.11756 0)
(-0.0212738 0.070656 0)
(0.064132 0.0257053 0)
(0.0968949 -0.289849 0)
(0.071889 -0.211069 0)
(0.115338 -0.11208 0)
(0.115736 0.0560561 0)
(-0.0432803 0.187926 0)
(-0.186531 0.224939 0)
(-0.208707 0.211707 0)
(-0.0585117 0.19218 0)
(0.0729022 0.244194 0)
(-0.0231422 0.098511 0)
(-0.179024 -0.0981565 0)
(-0.217138 -0.167007 0)
(-0.153684 -0.191649 0)
(-0.192371 -0.133007 0)
(-0.351193 -0.0839201 0)
(-0.335608 -0.0258363 0)
(-0.151612 0.0591836 0)
(-0.0265595 -0.00466319 0)
(0.0311959 -0.00215166 0)
(0.0871909 -0.311419 0)
(0.00995219 -0.187175 0)
(0.0201152 -0.180112 0)
(-0.105034 -0.224007 0)
(-0.173633 -0.177372 0)
(-0.190878 -0.080486 0)
(-0.183816 -0.0609405 0)
(-0.0729073 0.0823966 0)
(0.0972027 0.221356 0)
(0.121145 0.16794 0)
(-0.0540093 0.0829937 0)
(-0.171612 0.0722967 0)
(-0.176919 -0.0395358 0)
(-0.154255 -0.196586 0)
(-0.272361 -0.0994343 0)
(-0.311605 0.00564972 0)
(-0.288714 -0.0126388 0)
(-0.152927 -0.0407764 0)
(-0.071065 -0.0305588 0)
(0.0933624 -0.319315 0)
(-0.00345835 -0.194637 0)
(0.0236122 -0.104839 0)
(-0.069118 0.0635976 0)
(-0.237817 0.112837 0)
(-0.246765 0.0885381 0)
(-0.22375 0.0595315 0)
(-0.148216 0.0407703 0)
(0.0579775 0.166306 0)
(0.163323 0.191538 0)
(0.0935932 0.139402 0)
(-0.0866925 -0.00491867 0)
(-0.135249 -0.148466 0)
(-0.193698 -0.159361 0)
(-0.308487 -0.173287 0)
(-0.350296 -0.16307 0)
(-0.3417 -0.184747 0)
(-0.218169 -0.299707 0)
(-0.121009 -0.313524 0)
(-0.40955 -0.312746 0)
(-0.290468 -0.176864 0)
(-0.723187 -0.258582 0)
(-1.06324 -0.159809 0)
(-1.27259 -0.238795 0)
(-1.46397 -0.358749 0)
(-1.42679 -0.749012 0)
(-1.15006 -1.11889 0)
(-0.275856 -0.523855 0)
(-0.131013 -0.481641 0)
(-0.0684226 -0.459491 0)
(0.0698453 -0.463112 0)
(-0.407857 -0.201878 0)
(-0.453763 -0.172594 0)
(-0.488932 -0.182956 0)
(-0.521417 -0.179979 0)
(-0.725408 -0.281569 0)
(-0.743274 -0.283685 0)
(-0.761202 -0.258641 0)
(-0.783158 -0.22787 0)
(-1.04137 -0.176998 0)
(-1.03773 -0.179387 0)
(-1.02871 -0.173203 0)
(-1.02239 -0.160109 0)
(-1.23205 -0.252666 0)
(-1.20495 -0.251325 0)
(-1.18551 -0.242642 0)
(-1.15699 -0.221627 0)
(-1.40212 -0.351938 0)
(-1.34342 -0.374458 0)
(-1.30195 -0.345834 0)
(-1.2663 -0.345441 0)
(-1.39103 -0.637867 0)
(-1.30875 -0.616678 0)
(-1.27526 -0.598603 0)
(-1.22378 -0.569272 0)
(-1.10477 -1.19042 0)
(-1.09772 -1.19195 0)
(-1.10954 -1.21289 0)
(-1.11648 -1.22598 0)
(-1.1378 -0.506743 0)
(-1.15973 -0.207607 0)
(-1.17462 0.0264269 0)
(-1.20792 0.103566 0)
(-1.76751 -0.695625 0)
(-1.70396 -0.835154 0)
(-1.61838 -0.953964 0)
(-1.55105 -0.999733 0)
(-1.37139 -0.487456 0)
(-1.27378 -0.553415 0)
(-1.19879 -0.637002 0)
(-1.11559 -0.642545 0)
(-0.65271 -0.791147 0)
(-0.591585 -0.872017 0)
(-0.455144 -0.950855 0)
(-0.381648 -0.982531 0)
(-0.0368609 -0.766947 0)
(-0.0208064 -0.889366 0)
(0.01473 -1.01227 0)
(0.0181283 -1.08801 0)
(0.532934 -0.749511 0)
(0.521599 -0.880749 0)
(0.497354 -0.955219 0)
(0.445238 -1.00139 0)
(0.81164 -0.736 0)
(0.760036 -0.824302 0)
(0.71728 -0.898481 0)
(0.643286 -0.93057 0)
(0.895975 -0.667986 0)
(0.840172 -0.737638 0)
(0.806845 -0.809051 0)
(0.746365 -0.831537 0)
(0.869666 -0.621542 0)
(0.823508 -0.659277 0)
(0.769075 -0.692004 0)
(0.709598 -0.698781 0)
(0.0650267 -0.291175 0)
(-0.145107 -0.0379298 0)
(-0.21681 -0.108618 0)
(-0.282108 -0.0448798 0)
(-0.302022 -0.00161274 0)
(-0.284535 0.00173501 0)
(-0.245369 -0.0654345 0)
(-0.165094 -0.0542628 0)
(-0.0438509 0.0356086 0)
(0.130129 0.165611 0)
(0.168712 0.177335 0)
(0.134761 0.179054 0)
(-0.0165119 0.0685846 0)
(-0.236136 -0.103864 0)
(-0.350998 -0.118818 0)
(-0.35463 -0.234784 0)
(-0.253286 -0.347546 0)
(-0.129178 -0.379123 0)
(-0.0392547 -0.336945 0)
(-0.536648 -0.171654 0)
(-0.435638 -0.0193605 0)
(-0.460202 0.0561849 0)
(-0.452254 0.0899986 0)
(-0.424298 0.0727364 0)
(-0.351432 0.0217711 0)
(-0.280171 -0.0495029 0)
(-0.20662 -0.108577 0)
(-0.119686 -0.0870564 0)
(0.0058765 0.0147133 0)
(0.154421 0.159692 0)
(0.159573 0.202892 0)
(0.141197 0.169017 0)
(0.00828436 0.0285626 0)
(-0.101981 -0.0467015 0)
(-0.0619428 -0.128693 0)
(-0.00381236 -0.25286 0)
(-0.0112424 -0.391383 0)
(0.0059222 -0.397123 0)
(-0.800406 -0.165617 0)
(-0.759474 -0.029701 0)
(-0.689273 0.0242712 0)
(-0.603214 0.00867457 0)
(-0.493608 -0.0375657 0)
(-0.370414 -0.0990078 0)
(-0.270096 -0.166157 0)
(-0.193238 -0.201891 0)
(-0.142288 -0.18558 0)
(-0.0787744 -0.113523 0)
(0.0377451 0.0352403 0)
(0.136822 0.187868 0)
(0.129434 0.185883 0)
(0.116968 0.146275 0)
(0.0564977 0.00723268 0)
(0.102335 -0.243061 0)
(0.175576 -0.342343 0)
(0.114832 -0.409996 0)
(0.0465638 -0.384387 0)
(-0.999767 -0.130239 0)
(-0.908626 -0.0583589 0)
(-0.790099 -0.0527754 0)
(-0.642947 -0.111409 0)
(-0.533401 -0.187599 0)
(-0.420561 -0.226744 0)
(-0.352063 -0.255023 0)
(-0.301795 -0.257728 0)
(-0.249573 -0.22624 0)
(-0.184629 -0.162926 0)
(-0.111143 -0.0387756 0)
(0.0250058 0.138237 0)
(0.0829057 0.173971 0)
(0.0937376 0.128849 0)
(0.0965015 -0.0377342 0)
(0.158128 -0.255926 0)
(0.215699 -0.316256 0)
(0.165901 -0.336165 0)
(0.0641198 -0.326502 0)
(-1.09609 -0.20665 0)
(-0.966322 -0.162216 0)
(-0.848992 -0.187395 0)
(-0.754913 -0.250832 0)
(-0.661863 -0.308932 0)
(-0.59424 -0.324665 0)
(-0.527612 -0.315282 0)
(-0.474856 -0.309541 0)
(-0.42012 -0.300238 0)
(-0.370964 -0.252339 0)
(-0.290319 -0.154649 0)
(-0.136442 0.0240807 0)
(-0.0499303 0.100964 0)
(0.0207315 0.0956447 0)
(0.11949 -0.0620082 0)
(0.195815 -0.295236 0)
(0.235117 -0.389732 0)
(0.18976 -0.387073 0)
(0.0689929 -0.391848 0)
(-1.17309 -0.306224 0)
(-1.03061 -0.269356 0)
(-0.909113 -0.280418 0)
(-0.835218 -0.323674 0)
(-0.722511 -0.381329 0)
(-0.646077 -0.376136 0)
(-0.564758 -0.365243 0)
(-0.517556 -0.345867 0)
(-0.471193 -0.328731 0)
(-0.435618 -0.270883 0)
(-0.375256 -0.184006 0)
(-0.27317 -0.0611589 0)
(-0.132018 0.0112044 0)
(-0.00567403 -0.0273596 0)
(0.187882 -0.234852 0)
(0.215989 -0.505005 0)
(0.127584 -0.672698 0)
(-0.0261373 -0.825959 0)
(-0.0290962 -0.802097 0)
(-1.15326 -0.530882 0)
(-1.02973 -0.502394 0)
(-0.868286 -0.493704 0)
(-0.764756 -0.516802 0)
(-0.668014 -0.64941 0)
(-0.606529 -0.672233 0)
(-0.531272 -0.656056 0)
(-0.489206 -0.602185 0)
(-0.429354 -0.582083 0)
(-0.381506 -0.524278 0)
(-0.303141 -0.444398 0)
(-0.226441 -0.329805 0)
(-0.118008 -0.283309 0)
(0.0216226 -0.370334 0)
(0.0935178 -0.563927 0)
(-0.0573714 -0.887321 0)
(0.0331594 0.361475 0)
(-0.502995 0.555166 0)
(-0.0748981 0.10459 0)
(-1.12436 -1.22361 0)
(-1.11951 -1.18939 0)
(-0.924218 -1.15085 0)
(-0.788627 -1.16077 0)
(-0.70364 -1.24834 0)
(-0.685964 -1.31166 0)
(-0.627296 -1.2879 0)
(-0.520394 -1.11206 0)
(-0.438912 -1.00937 0)
(-0.378767 -0.89414 0)
(-0.297279 -0.777154 0)
(-0.260379 -0.706578 0)
(-0.225096 -0.719224 0)
(-0.223649 -0.990472 0)
(-0.332371 0.199163 0)
(-1.31963 -0.204946 0)
(-0.642355 -0.681906 0)
(-0.201154 -0.649405 0)
(-0.0272681 -0.653925 0)
(-1.28036 -0.0136052 0)
(-1.34683 -0.126722 0)
(-1.41441 -0.15453 0)
(-1.3544 -0.0366094 0)
(-1.36971 0.242107 0)
(-1.39648 0.247548 0)
(-1.36412 0.0806038 0)
(-1.44511 0.0560275 0)
(-1.5248 0.132442 0)
(-1.78399 -0.0685291 0)
(-1.91767 -0.17478 0)
(-1.86846 -0.141602 0)
(-1.62392 -0.130795 0)
(-1.31499 -0.192257 0)
(-0.733057 -0.107413 0)
(-0.507873 -0.149521 0)
(-0.308851 -0.215081 0)
(-0.182554 -0.139417 0)
(-0.0678255 -0.297988 0)
(-1.39947 -1.06531 0)
(-1.24713 -0.977102 0)
(-1.22317 -0.896508 0)
(-1.29742 -0.86888 0)
(-1.41368 -0.945747 0)
(-1.38634 -0.915539 0)
(-1.36903 -0.850171 0)
(-1.41336 -0.79757 0)
(-1.39799 -0.587668 0)
(-1.37184 -0.414817 0)
(-1.38879 -0.429443 0)
(-1.34628 -0.613112 0)
(-1.27941 -0.674444 0)
(-1.12186 -0.528403 0)
(-0.916654 -0.31502 0)
(-0.498528 -0.588794 0)
(-0.31665 -0.684716 0)
(-0.147063 -0.602381 0)
(-0.0231961 -0.62982 0)
(-0.946897 -0.670468 0)
(-0.806051 -0.56157 0)
(-0.646554 -0.413815 0)
(-0.541874 -0.295973 0)
(-0.5252 -0.229852 0)
(-0.566862 -0.175306 0)
(-0.676787 -0.0552258 0)
(-0.819143 0.142714 0)
(-1.13143 0.212909 0)
(-1.2698 0.150173 0)
(-1.24587 -0.0571187 0)
(-0.986584 -0.404689 0)
(-0.787817 -0.59932 0)
(-0.735733 -0.674615 0)
(-0.59078 -0.720106 0)
(-0.352507 -0.786064 0)
(-0.24951 -0.758708 0)
(-0.102409 -0.628191 0)
(0.0013103 -0.623188 0)
(-0.250655 -0.952868 0)
(-0.193518 -0.77143 0)
(-0.117576 -0.548192 0)
(-0.0971548 -0.40199 0)
(-0.184135 -0.300991 0)
(-0.275093 -0.240365 0)
(-0.472173 -0.238175 0)
(-0.498846 -0.229755 0)
(-0.426138 -0.211221 0)
(-0.327487 -0.296283 0)
(-0.237923 -0.505653 0)
(-0.12287 -0.727912 0)
(-0.0742168 -0.76734 0)
(-0.108505 -0.641779 0)
(-0.125226 -0.626886 0)
(-0.095082 -0.816106 0)
(-0.0896544 -0.849446 0)
(-0.0589073 -0.722753 0)
(0.00641292 -0.657195 0)
(0.0444736 -1.12668 0)
(0.0634767 -0.986207 0)
(0.152824 -0.76507 0)
(0.196948 -0.507204 0)
(0.153652 -0.364934 0)
(0.15972 -0.24253 0)
(0.19265 -0.110983 0)
(0.215316 -0.0470624 0)
(0.236493 -0.0751521 0)
(0.263036 -0.15646 0)
(0.293204 -0.324004 0)
(0.283146 -0.548264 0)
(0.221843 -0.664021 0)
(0.136205 -0.597379 0)
(0.102825 -0.620585 0)
(0.113439 -0.779003 0)
(0.0456444 -0.813904 0)
(0.00940581 -0.719653 0)
(0.00762111 -0.6624 0)
(0.392926 -0.974062 0)
(0.353567 -0.896081 0)
(0.350359 -0.742122 0)
(0.354691 -0.429946 0)
(0.337732 -0.242676 0)
(0.301767 -0.203367 0)
(0.305952 -0.167691 0)
(0.364046 -0.150703 0)
(0.454656 -0.140497 0)
(0.477729 -0.20393 0)
(0.473284 -0.351367 0)
(0.420214 -0.54537 0)
(0.339582 -0.638175 0)
(0.23097 -0.590715 0)
(0.198672 -0.604833 0)
(0.186035 -0.717139 0)
(0.104822 -0.747963 0)
(0.0447611 -0.662847 0)
(0.00837913 -0.62181 0)
(0.578347 -0.969837 0)
(0.482986 -0.913285 0)
(0.423214 -0.757138 0)
(0.399247 -0.440526 0)
(0.38053 -0.227677 0)
(0.372868 -0.173793 0)
(0.351712 -0.181711 0)
(0.36168 -0.215837 0)
(0.396965 -0.239943 0)
(0.442335 -0.277291 0)
(0.450364 -0.354587 0)
(0.415436 -0.465904 0)
(0.355521 -0.539702 0)
(0.254399 -0.532692 0)
(0.244725 -0.562445 0)
(0.227766 -0.681193 0)
(0.159712 -0.713602 0)
(0.0505506 -0.606365 0)
(-0.00326588 -0.600211 0)
(0.66429 -0.838815 0)
(0.542753 -0.807922 0)
(0.449773 -0.688732 0)
(0.402115 -0.440489 0)
(0.383924 -0.243258 0)
(0.372393 -0.176707 0)
(0.355172 -0.175211 0)
(0.364344 -0.202856 0)
(0.380563 -0.234715 0)
(0.385403 -0.26956 0)
(0.387511 -0.327819 0)
(0.364145 -0.436526 0)
(0.325964 -0.504626 0)
(0.280906 -0.522994 0)
(0.300534 -0.566934 0)
(0.268542 -0.6548 0)
(0.205097 -0.633131 0)
(0.0645791 -0.523498 0)
(0.0250362 -0.571343 0)
(0.607731 -0.717605 0)
(0.471793 -0.70904 0)
(0.34022 -0.605319 0)
(0.284499 -0.395423 0)
(0.282792 -0.204503 0)
(0.289382 -0.153428 0)
(0.30322 -0.170489 0)
(0.329415 -0.22296 0)
(0.343475 -0.246232 0)
(0.355152 -0.26722 0)
(0.376593 -0.305928 0)
(0.375609 -0.393799 0)
(0.355676 -0.458828 0)
(0.328854 -0.492946 0)
(0.322466 -0.564643 0)
(0.271853 -0.576463 0)
(0.182651 -0.548955 0)
(0.0640732 -0.450039 0)
(0.0385563 -0.524173 0)
)
;

boundaryField
{
    leftWall
    {
        type            fixedValue;
        value           nonuniform 0();
    }
    rightWall
    {
        type            fixedValue;
        value           uniform (0 0 0);
    }
    lowerWall
    {
        type            fixedValue;
        value           uniform (0 0 0);
    }
    atmosphere
    {
        type            fluxCorrectedVelocity;
        value           nonuniform 0();
    }
    defaultFaces
    {
        type            empty;
    }
    procBoundary1to0
    {
        type            processor;
        value           nonuniform List<vector> 
26
(
(-0.0261268 0.00384906 0)
(-0.00279248 -0.0109651 0)
(-0.00163391 -0.00217267 0)
(-0.0116611 0.0136893 0)
(-0.0149206 0.131547 0)
(-0.0846637 0.0667059 0)
(-0.16741 0.320901 0)
(-0.179561 -0.333989 0)
(-0.203114 0.238276 0)
(-0.207036 -0.144639 0)
(-0.761687 -0.133108 0)
(-1.05367 -0.123564 0)
(-1.34836 -0.160533 0)
(-1.58291 -0.34371 0)
(-1.45732 -0.811561 0)
(-1.20953 -0.152359 0)
(-1.27381 -0.623504 0)
(-1.27381 -0.623504 0)
(-1.85016 -0.431893 0)
(-1.3262 -0.382318 0)
(-0.714978 -0.523862 0)
(-0.101001 -0.486101 0)
(0.471829 -0.542521 0)
(0.824779 -0.562348 0)
(0.936861 -0.505086 0)
(0.919891 -0.516303 0)
)
;
    }
    procBoundary1to3
    {
        type            processor;
        value           nonuniform List<vector> 
23
(
(0.709735 -0.544464 0)
(0.653489 -0.565656 0)
(0.595244 -0.586595 0)
(0.54682 -0.590203 0)
(0.4705 -0.626456 0)
(0.346599 -0.604621 0)
(0.219324 -0.497616 0)
(0.162739 -0.349535 0)
(0.167567 -0.234017 0)
(0.206079 -0.192437 0)
(0.250037 -0.20157 0)
(0.284093 -0.236846 0)
(0.308501 -0.267419 0)
(0.320548 -0.299253 0)
(0.349153 -0.330352 0)
(0.369749 -0.393478 0)
(0.352718 -0.445741 0)
(0.326775 -0.478774 0)
(0.301786 -0.501892 0)
(0.242279 -0.506782 0)
(0.18077 -0.474352 0)
(0.0814607 -0.411467 0)
(0.062176 -0.466009 0)
)
;
    }
}


// ************************************************************************* //
