/*--------------------------------*- C++ -*----------------------------------*\
| =========                 |                                                 |
| \\      /  F ield         | OpenFOAM: The Open Source CFD Toolbox           |
|  \\    /   O peration     | Version:  2.4.0                                 |
|   \\  /    A nd           | Web:      www.OpenFOAM.org                      |
|    \\/     M anipulation  |                                                 |
\*---------------------------------------------------------------------------*/
FoamFile
{
    version     2.0;
    format      ascii;
    class       volScalarField;
    location    "0.6";
    object      alpha.air;
}
// * * * * * * * * * * * * * * * * * * * * * * * * * * * * * * * * * * * * * //

dimensions      [0 0 0 0 0 0 0];

internalField   nonuniform List<scalar> 
575
(
7.0284e-13
8.55826e-13
4.84123e-13
1.11357e-12
9.44482e-13
6.21024e-13
6.99739e-13
7.35978e-13
7.92455e-13
5.27565e-13
2.72173e-13
1.4803e-13
1.01964e-13
8.23322e-14
6.75272e-14
5.12258e-14
3.45113e-14
2.0203e-14
1.0778e-14
6.0372e-15
3.92228e-15
1.99439e-15
8.14506e-12
9.25039e-12
6.47707e-12
1.08053e-11
9.77841e-12
7.66714e-12
8.32371e-12
8.24149e-12
7.79611e-12
5.19372e-12
2.84187e-12
1.56689e-12
9.84416e-13
6.94916e-13
5.02762e-13
3.52903e-13
2.27445e-13
1.34249e-13
7.37032e-14
4.56656e-14
2.90219e-14
1.21851e-14
4.32397e-11
4.45284e-11
3.92398e-11
4.70103e-11
4.5204e-11
4.2035e-11
4.24264e-11
4.01778e-11
3.4054e-11
2.41399e-11
1.55594e-11
9.01551e-12
5.20889e-12
3.24725e-12
2.07898e-12
1.32989e-12
8.03838e-13
4.5712e-13
2.61756e-13
1.75637e-13
1.19625e-13
5.26839e-14
1.47316e-10
1.56655e-10
1.47554e-10
1.65346e-10
1.66492e-10
1.53342e-10
1.47276e-10
1.34816e-10
1.20649e-10
8.79616e-11
5.68569e-11
3.49044e-11
1.51877e-11
8.02827e-12
5.25907e-12
3.23527e-12
1.94324e-12
1.14501e-12
7.07311e-13
5.14204e-13
3.38725e-13
1.37323e-13
2.44687e-10
2.62332e-10
2.6713e-10
2.72126e-10
2.70891e-10
2.2414e-10
1.95366e-10
1.78475e-10
1.62184e-10
1.631e-10
1.54218e-10
1.33938e-10
1.06062e-10
4.50304e-11
1.51673e-11
8.10697e-12
4.27706e-12
2.3619e-12
1.44959e-12
1.06711e-12
6.76596e-13
2.5062e-13
5.69239e-11
5.69531e-11
5.72283e-11
8.29946e-11
6.36909e-11
4.45917e-11
4.65047e-11
5.17513e-11
6.3341e-11
9.44344e-11
8.81418e-11
7.8268e-11
4.40845e-11
3.9645e-11
2.67479e-11
1.47778e-11
7.20378e-12
3.82634e-12
2.43473e-12
1.74724e-12
1.02952e-12
3.70714e-13
5.6904e-11
5.73323e-11
5.82275e-11
6.53143e-11
5.2733e-11
4.55358e-11
7.08651e-11
1.17404e-10
3.96691e-10
7.46844e-10
9.09665e-10
1.03081e-09
5.58981e-10
1.23516e-10
5.32451e-11
2.72035e-11
1.28201e-11
5.77303e-12
3.57735e-12
2.30579e-12
1.30964e-12
5.47501e-13
5.4817e-11
5.43933e-11
5.39646e-11
5.35502e-11
5.31514e-11
3.88181e-10
5.63278e-10
5.45296e-10
8.6757e-10
1.28134e-09
1.8243e-09
2.57616e-09
2.29355e-09
6.03765e-10
9.27618e-11
2.84919e-11
4.93559e-12
4.81059e-12
3.806e-12
2.3663e-12
1.52089e-12
1.25403e-12
2.15091e-08
2.21484e-08
1.16165e-08
4.87363e-09
3.43139e-09
9.64041e-09
2.41369e-09
1.19441e-09
1.10251e-09
1.38206e-09
2.13747e-09
3.34519e-09
4.48633e-09
5.22039e-09
3.99955e-09
1.18646e-09
3.58018e-10
7.45714e-11
9.83551e-12
8.71369e-12
6.36761e-12
4.32484e-12
2.97491e-07
2.77476e-07
2.05206e-07
1.57807e-07
5.78939e-08
3.16221e-08
1.16497e-08
4.63103e-09
2.58494e-09
1.80764e-09
1.83168e-09
1.89388e-09
2.62833e-09
6.62394e-09
1.06194e-08
1.02872e-08
5.17253e-09
1.45049e-09
1.02384e-09
5.23369e-10
2.29242e-10
8.88916e-10
7.70688e-07
6.86183e-07
6.87788e-07
8.68886e-07
2.03094e-06
2.85112e-06
7.1982e-07
3.71407e-07
2.13283e-07
1.24388e-07
5.15827e-08
9.55512e-09
4.23471e-09
4.8576e-09
5.49338e-09
7.19843e-09
6.85615e-09
5.23092e-09
3.51477e-09
2.66846e-09
4.13132e-08
2.12934e-07
8.03147e-07
1.71954e-05
0.000697679
0.0013908
0.00182657
0.000899163
0.000195672
0.000186963
0.000125944
0.000108137
5.85438e-05
1.61831e-05
7.39018e-07
3.72765e-08
7.71666e-09
6.80669e-09
6.84012e-09
1.34104e-08
8.45194e-09
8.29346e-08
9.35923e-07
8.18116e-06
0.249626
0.236564
0.194272
0.175376
0.203173
0.0960158
0.0467542
0.0583166
0.0577241
0.0511264
0.0358877
0.0178223
0.00441426
0.000589681
2.27961e-05
2.90272e-06
4.76315e-06
4.09393e-05
0.000117126
0.000486124
0.00165155
0.00634041
0.975675
0.978171
0.98378
0.982625
0.981247
0.93647
0.857983
0.790495
0.64666
0.47594
0.309285
0.191259
0.092304
0.0416559
0.0295202
0.0180198
0.0200317
0.028627
0.0431105
0.0816068
0.139606
0.206605
0.999997
0.999975
0.999974
0.999931
0.999932
0.999988
0.999998
0.999997
0.999996
0.999866
0.996837
0.973715
0.888285
0.747694
0.638852
0.564288
0.532095
0.521641
0.534422
0.693874
0.788416
0.914751
0.999999
0.999999
0.999999
0.999999
0.999999
0.999999
0.999999
1
1
0.999999
0.999999
0.999999
0.999999
0.999999
0.999995
0.999969
0.999822
0.99959
0.999613
0.999985
0.999999
1
0.999999
0.999999
0.999999
0.999999
0.999999
0.999999
1
1
1
0.999999
0.999999
0.999999
0.999999
0.999999
0.999999
0.999999
1
1
1
1
1
1
0.999999
0.999999
0.999998
0.999998
0.999999
0.999999
0.999999
0.999999
1
0.999999
0.999999
0.999999
0.999999
0.999999
0.999999
0.999999
0.999999
0.999999
1
1
1
1
1
0.999999
0.999998
0.999998
0.999998
0.999999
0.999999
0.999999
0.999999
0.999999
0.999999
0.999999
0.999999
0.999999
0.999999
0.999999
0.999999
0.999999
0.999999
1
1
1
1
1
0.999999
0.999998
0.999998
0.999998
0.999999
0.999999
0.999999
0.999999
0.999999
0.999999
0.999999
0.999999
0.999999
0.999999
0.999999
0.999999
1
1
1
1
1
1
1
0.999999
0.999998
0.999998
0.999999
0.999999
0.999999
0.999999
0.999999
0.999999
0.999999
0.999999
0.999999
0.999999
0.999999
0.999999
1
1
1
1
1
1
1
1
0.999999
0.999998
0.999999
0.999999
0.999999
0.999999
0.999999
0.999999
1
1
1
1
1
0.999999
0.999999
1
1
1
1
1
1
1
1
0.999999
0.999999
0.999999
0.999999
0.999999
0.999999
0.999999
1
1
1
1
1
1
0.999999
0.999999
1
1
1
1
1
1
1
1
0.999999
0.999999
0.999999
0.999999
0.999999
0.999999
0.999999
1
1
1
1
1
1
0.999999
0.999999
1
1
1
1
1
1
1
1
0.999998
0.999999
0.999999
0.999999
0.999999
0.999999
1
1
1
1
1
1
1
0.999999
0.999999
0.999999
0.999999
1
1
1
1
1
0.999999
0.999999
0.999999
0.999999
0.999999
0.999999
1
1
1
1
1
1
1
1
1
0.999999
0.999999
0.999999
)
;

boundaryField
{
    leftWall
    {
        type            alphaContactAngle;
        thetaProperties 
6
(

(
water
mercury
)
 90 0 0 0

(
water
air
)
 90 0 0 0

(
water
oil
)
 90 0 0 0

(
mercury
air
)
 90 0 0 0

(
oil
mercury
)
 90 0 0 0

(
oil
air
)
 90 0 0 0
);
        value           nonuniform List<scalar> 
26
(
7.0284e-13
8.14506e-12
4.32397e-11
1.47316e-10
2.44687e-10
5.69239e-11
5.6904e-11
5.4817e-11
2.15091e-08
2.97491e-07
7.70688e-07
8.03147e-07
0.249626
0.975675
0.999997
0.999999
0.999999
0.999999
0.999998
0.999998
0.999998
0.999998
0.999999
0.999999
0.999999
0.999999
)
;
    }
    rightWall
    {
        type            alphaContactAngle;
        thetaProperties 
6
(

(
water
mercury
)
 90 0 0 0

(
water
air
)
 90 0 0 0

(
water
oil
)
 90 0 0 0

(
mercury
air
)
 90 0 0 0

(
oil
mercury
)
 90 0 0 0

(
oil
air
)
 90 0 0 0
);
        value           nonuniform 0();
    }
    lowerWall
    {
        type            alphaContactAngle;
        thetaProperties 
6
(

(
water
mercury
)
 90 0 0 0

(
water
air
)
 90 0 0 0

(
water
oil
)
 90 0 0 0

(
mercury
air
)
 90 0 0 0

(
oil
mercury
)
 90 0 0 0

(
oil
air
)
 90 0 0 0
);
        value           nonuniform List<scalar> 
22
(
7.0284e-13
8.55826e-13
4.84123e-13
1.11357e-12
9.44482e-13
6.21024e-13
6.99739e-13
7.35978e-13
7.92455e-13
5.27565e-13
2.72173e-13
1.4803e-13
1.01964e-13
8.23322e-14
6.75272e-14
5.12258e-14
3.45113e-14
2.0203e-14
1.0778e-14
6.0372e-15
3.92228e-15
1.99439e-15
)
;
    }
    atmosphere
    {
        type            inletOutlet;
        inletValue      nonuniform 0();
        value           nonuniform 0();
    }
    defaultFaces
    {
        type            empty;
    }
    procBoundary0to1
    {
        type            processor;
        value           nonuniform List<scalar> 
26
(
5.77651e-16
4.28763e-15
2.19485e-14
4.51969e-14
7.4306e-14
8.32175e-14
1.1401e-13
3.41946e-13
4.68979e-12
8.92365e-09
2.08171e-06
0.000110618
0.0256877
0.346837
0.985009
1
1
1
1
1
1
1
0.999999
0.999999
0.999999
0.999998
)
;
    }
    procBoundary0to2
    {
        type            processor;
        value           nonuniform List<scalar> 
24
(
1
1
1
1
1
1
0.999999
0.999999
0.999999
0.999999
0.999999
1
1
1
1
1
1
1
1
0.999999
0.999999
0.999999
1
0.999999
)
;
    }
}


// ************************************************************************* //
