/*--------------------------------*- C++ -*----------------------------------*\
| =========                 |                                                 |
| \\      /  F ield         | OpenFOAM: The Open Source CFD Toolbox           |
|  \\    /   O peration     | Version:  2.4.0                                 |
|   \\  /    A nd           | Web:      www.OpenFOAM.org                      |
|    \\/     M anipulation  |                                                 |
\*---------------------------------------------------------------------------*/
FoamFile
{
    version     2.0;
    format      ascii;
    class       volScalarField;
    location    "0.6";
    object      alpha.mercury;
}
// * * * * * * * * * * * * * * * * * * * * * * * * * * * * * * * * * * * * * //

dimensions      [0 0 0 0 0 0 0];

internalField   nonuniform List<scalar> 
575
(
1
1
1
1
1
1
1
1
1
1
1
1
1
1
1
1
1
1
1
1
1
0.999999
1
1
1
1
1
1
1
1
0.999999
1
1
1
1
1
1
1
1
1
1
1
1
0.999999
0.999396
0.999322
0.999513
0.999198
0.999201
0.999332
0.99919
0.999186
0.999122
0.999506
0.999791
0.999941
0.999987
0.999997
0.999999
1
1
1
1
1
1
0.999999
0.908148
0.904552
0.911106
0.898257
0.89418
0.89451
0.886174
0.885803
0.884885
0.906999
0.930122
0.96641
0.993899
0.999593
0.999975
0.999997
0.999999
1
1
1
1
0.999999
0.18422
0.176648
0.18345
0.165468
0.159258
0.151134
0.134057
0.13094
0.123706
0.138005
0.161104
0.213577
0.355741
0.600008
0.916802
0.996282
0.999912
0.999998
0.999999
0.999999
0.999999
0.999999
3.1573e-05
2.91657e-05
2.98754e-05
2.58261e-05
2.44335e-05
2.16862e-05
1.80689e-05
1.63681e-05
1.46771e-05
1.44063e-05
1.40534e-05
1.40918e-05
0.00212152
0.0358986
0.284436
0.834693
0.995314
0.999861
0.999986
0.999995
0.999999
0.999998
6.08586e-06
6.05438e-06
6.05104e-06
6.06062e-06
6.00982e-06
5.82867e-06
5.97294e-06
6.04914e-06
6.08515e-06
6.17822e-06
6.37098e-06
6.48787e-06
6.51716e-06
0.000146764
0.0126749
0.300982
0.94057
0.99895
0.999824
0.999958
0.999993
0.999997
8.48739e-06
8.32273e-06
7.94139e-06
7.94043e-06
7.35464e-06
5.74956e-06
6.00462e-06
5.99196e-06
5.68162e-06
5.77217e-06
6.35751e-06
6.6777e-06
7.10961e-06
7.11255e-06
0.000263269
0.0594802
0.644006
0.99272
0.999607
0.999944
0.999996
0.999997
5.85112e-06
5.49943e-06
4.98537e-06
4.92362e-06
4.09122e-06
3.2496e-06
3.33031e-06
2.87647e-06
2.69909e-06
2.8923e-06
3.6944e-06
4.47621e-06
5.89219e-06
7.27115e-06
1.17948e-05
0.00398468
0.13872
0.675842
0.973386
0.98866
0.977163
0.969343
7.616e-07
7.11932e-07
6.64195e-07
6.38286e-07
5.30419e-07
3.36913e-07
2.89006e-07
2.6216e-07
2.66348e-07
2.83185e-07
3.25932e-07
3.54701e-07
4.97861e-07
1.4769e-06
3.33638e-06
2.89322e-05
0.00571733
0.0867714
0.284763
0.464574
0.532396
0.496835
9.2496e-08
8.11545e-08
6.65802e-08
5.06769e-08
3.60179e-08
1.56784e-08
1.11106e-08
8.85554e-09
1.03213e-08
1.22442e-08
1.5874e-08
2.02008e-08
3.46666e-08
8.03133e-08
2.72005e-07
2.17992e-06
9.32791e-05
0.00324852
0.012557
0.0106153
0.00952085
0.0092132
4.49972e-09
3.5848e-09
2.32584e-09
1.50947e-09
1.08673e-09
3.48749e-10
1.91821e-10
1.54917e-10
2.20905e-10
2.72879e-10
3.70143e-10
4.9723e-10
9.52392e-10
1.93024e-09
5.73789e-09
4.52456e-08
7.02512e-06
9.26132e-05
0.000166985
0.000137757
0.00011399
9.66881e-05
6.14535e-11
4.19379e-11
2.28957e-11
1.22267e-11
5.56643e-12
2.55834e-12
1.96403e-12
2.00057e-12
2.32678e-12
2.75015e-12
3.53649e-12
4.70209e-12
7.0781e-12
1.62962e-11
4.37103e-11
1.96262e-10
2.44837e-08
1.38298e-07
9.35871e-07
3.66534e-06
7.70247e-06
1.01777e-05
3.71845e-12
5.26904e-12
2.73618e-12
5.12766e-13
1.20015e-13
1.04231e-13
1.79307e-13
2.96723e-13
4.47168e-13
6.47959e-13
9.71344e-13
1.44158e-12
2.10914e-12
2.97082e-12
4.11655e-12
5.91958e-12
8.97543e-12
6.29651e-11
2.18675e-09
3.03059e-08
1.7395e-07
3.62243e-07
1.1522e-13
8.91223e-13
9.2658e-13
1.38863e-13
2.86073e-14
9.2597e-15
5.43425e-15
2.5893e-14
2.67768e-13
5.20292e-13
7.95037e-13
1.19633e-12
1.99847e-12
3.35488e-12
4.81991e-12
6.27483e-12
8.43198e-12
4.792e-11
3.03688e-10
8.44347e-10
1.23942e-09
1.38117e-09
3.00314e-14
1.29439e-13
1.63694e-13
1.03978e-14
4.5837e-16
1.06822e-16
2.34709e-15
2.85902e-14
1.21133e-13
2.83727e-14
7.52595e-15
1.41896e-14
8.70933e-14
5.31095e-13
1.50815e-12
2.27399e-12
3.82922e-12
9.6741e-12
2.76076e-11
5.7227e-12
1.85306e-12
7.47112e-13
5.78778e-15
8.18104e-15
5.62469e-16
5.3838e-17
9.68104e-18
8.38992e-17
1.96015e-15
2.41353e-14
4.26659e-14
1.49902e-14
4.09233e-15
1.19848e-14
4.07549e-14
1.14105e-13
1.6966e-14
7.35206e-15
3.45782e-15
2.64031e-15
5.16553e-15
9.70594e-15
1.65599e-14
2.3902e-14
3.53063e-14
8.15247e-16
1.90785e-16
2.67116e-18
2.65718e-19
7.525e-18
1.37886e-16
1.09625e-15
1.42101e-14
1.41347e-14
6.86708e-15
2.76178e-15
8.39493e-16
1.65912e-16
2.77243e-17
6.30626e-18
1.60561e-17
5.05618e-17
7.94164e-17
3.01977e-16
4.95567e-16
6.87813e-16
1.67898e-15
7.71909e-15
7.19979e-17
8.33935e-18
3.42922e-19
1.16559e-20
3.83326e-20
4.80671e-18
5.95461e-17
3.92217e-15
3.51398e-15
1.80597e-15
6.75496e-16
2.08562e-16
4.79735e-17
8.99113e-18
2.53924e-18
4.95494e-18
1.99661e-17
6.94669e-17
1.92998e-16
4.57541e-16
1.20754e-15
4.38933e-15
1.85499e-14
3.67697e-18
1.4866e-19
2.24839e-21
2.2561e-23
2.94632e-22
1.73071e-20
1.7619e-19
9.38855e-18
4.43693e-16
2.97379e-16
1.11967e-16
2.68792e-17
5.47938e-18
9.7018e-19
1.5354e-18
8.63629e-18
3.82072e-17
1.39822e-16
4.32001e-16
1.17707e-15
3.38219e-15
1.15035e-14
4.69007e-14
9.9349e-20
2.05987e-21
3.24016e-23
4.51872e-25
4.30434e-27
4.56021e-26
5.26908e-23
1.28158e-20
2.05892e-18
2.23094e-17
4.49638e-18
4.50509e-19
6.18557e-20
2.55145e-19
2.10248e-18
1.22881e-17
5.34427e-17
2.05857e-16
6.899e-16
2.15137e-15
7.13096e-15
2.63387e-14
1.06692e-13
1.26466e-21
7.9881e-24
6.64997e-26
5.4647e-28
2.51997e-29
1.4496e-27
2.28253e-26
1.63088e-25
8.82129e-25
1.47184e-21
9.97905e-23
1.79525e-21
2.64929e-20
2.87312e-19
2.21962e-18
1.35839e-17
6.02145e-17
2.1634e-16
6.98116e-16
2.12479e-15
6.5574e-15
2.13945e-14
7.53776e-14
5.53818e-24
1.63119e-26
6.66546e-29
6.65217e-31
2.65653e-29
9.07049e-28
1.34039e-26
1.20932e-25
9.64383e-25
8.56104e-24
1.21501e-22
1.82109e-21
2.13651e-20
1.90987e-19
1.26411e-18
6.42272e-18
2.51171e-17
8.68982e-17
2.84085e-16
8.87449e-16
2.72911e-15
8.55269e-15
2.86255e-14
3.00565e-27
2.20593e-30
7.49862e-33
5.287e-31
2.05375e-29
4.33162e-28
6.0417e-27
6.5784e-26
6.62225e-25
6.8097e-24
8.57653e-23
8.86151e-22
6.85672e-21
4.2566e-20
2.05815e-19
8.41431e-19
3.30262e-18
1.20383e-17
4.33233e-17
1.47463e-16
4.63579e-16
1.45999e-15
5.20093e-15
7.75223e-38
3.91412e-35
5.26392e-33
2.74907e-31
7.72652e-30
1.39812e-28
1.91813e-27
2.25952e-26
2.47612e-25
2.52209e-24
2.47164e-23
1.80826e-22
1.04226e-21
5.24342e-21
2.14605e-20
7.78703e-20
3.01545e-19
1.17666e-18
4.23298e-18
1.44039e-17
4.47987e-17
1.40572e-16
5.39606e-16
7.33736e-38
1.61177e-35
1.17839e-33
4.66567e-32
1.24914e-30
2.36361e-29
3.50789e-28
4.33995e-27
4.70836e-26
4.17397e-25
3.19399e-24
1.92102e-23
9.77854e-23
4.2399e-22
1.53831e-21
5.76958e-21
)
;

boundaryField
{
    leftWall
    {
        type            zeroGradient;
    }
    rightWall
    {
        type            zeroGradient;
    }
    lowerWall
    {
        type            zeroGradient;
    }
    atmosphere
    {
        type            inletOutlet;
        inletValue      nonuniform 0();
        value           nonuniform 0();
    }
    defaultFaces
    {
        type            empty;
    }
    procBoundary0to1
    {
        type            processor;
        value           nonuniform List<scalar> 
26
(
0.99999
0.999986
0.999988
0.999988
0.999988
0.999986
0.999983
0.999981
0.974002
0.497257
0.0115994
7.86475e-05
9.96322e-06
4.35574e-07
8.11953e-10
2.561e-13
2.561e-13
4.54845e-14
2.49699e-14
6.85256e-14
2.18435e-13
4.86075e-13
3.05461e-13
1.09706e-13
2.26506e-14
2.7823e-15
)
;
    }
    procBoundary0to2
    {
        type            processor;
        value           nonuniform List<scalar> 
24
(
2.32222e-20
8.32664e-20
2.78219e-19
8.55503e-19
2.42875e-18
7.88442e-18
4.31875e-17
1.26753e-38
1.30977e-36
8.43932e-35
3.63569e-33
1.12116e-31
2.48931e-30
4.05234e-29
5.01943e-28
4.79354e-27
3.55587e-26
2.2788e-25
1.33746e-24
7.51205e-24
3.77851e-23
1.99663e-22
2.32222e-20
1.0008e-21
)
;
    }
}


// ************************************************************************* //
