/*--------------------------------*- C++ -*----------------------------------*\
| =========                 |                                                 |
| \\      /  F ield         | OpenFOAM: The Open Source CFD Toolbox           |
|  \\    /   O peration     | Version:  2.4.0                                 |
|   \\  /    A nd           | Web:      www.OpenFOAM.org                      |
|    \\/     M anipulation  |                                                 |
\*---------------------------------------------------------------------------*/
FoamFile
{
    version     2.0;
    format      ascii;
    class       volScalarField;
    location    "0.6";
    object      alpha.oil;
}
// * * * * * * * * * * * * * * * * * * * * * * * * * * * * * * * * * * * * * //

dimensions      [0 0 0 0 0 0 0];

internalField   nonuniform List<scalar> 
575
(
1.79405e-18
1.04416e-17
1.53752e-17
8.46909e-17
9.11068e-17
8.42622e-17
2.33719e-16
3.92651e-16
8.40359e-16
1.37028e-15
5.29019e-14
6.18925e-13
3.72219e-12
1.3659e-11
3.69481e-11
1.04419e-10
2.77869e-10
7.82002e-10
1.87971e-09
3.80278e-09
1.10335e-08
8.96619e-07
2.82397e-17
1.56854e-16
3.27096e-16
1.00611e-15
1.21557e-15
1.49258e-15
5.06833e-15
6.2848e-15
1.10079e-14
1.28249e-14
1.08882e-13
1.10377e-12
7.05066e-12
2.25933e-11
5.25622e-11
1.26447e-10
4.65137e-10
1.89102e-09
4.95833e-09
8.495e-09
1.42789e-08
9.67142e-07
2.14145e-16
1.16438e-15
3.29256e-15
6.23657e-15
8.49579e-15
1.35216e-14
7.28626e-14
6.14733e-14
8.90347e-14
9.07801e-14
1.58519e-13
7.70814e-13
4.3218e-12
1.56719e-11
4.29463e-11
1.22944e-10
6.02856e-10
2.71228e-09
9.64459e-09
2.05147e-08
2.91089e-08
4.7541e-07
1.04288e-15
5.78529e-15
2.0081e-14
2.74449e-14
4.20693e-14
7.7646e-14
7.77305e-13
4.85528e-13
7.65688e-13
7.33346e-13
5.92601e-13
8.59487e-13
3.16373e-12
1.1052e-11
3.37308e-11
1.11065e-10
5.90728e-10
2.94833e-09
1.32337e-08
4.71236e-08
7.04201e-08
4.85612e-07
3.7002e-15
2.20338e-14
8.19763e-14
1.00562e-13
1.65272e-13
2.96688e-13
5.53193e-12
2.85718e-12
8.07516e-12
7.47589e-12
3.08688e-12
2.23285e-12
3.10371e-12
2.19564e-11
1.08705e-10
3.61676e-10
1.06986e-09
3.87326e-09
1.98101e-08
9.21411e-08
1.63044e-07
6.00188e-07
1.07746e-14
7.01374e-14
2.51361e-13
3.38962e-13
5.42588e-13
7.57222e-13
2.248e-11
1.31703e-11
8.53057e-11
7.33951e-11
1.10602e-11
5.23778e-12
8.44311e-12
1.84551e-11
1.00836e-09
2.36454e-08
3.2394e-08
4.76365e-08
1.39714e-07
3.39755e-07
4.4457e-07
1.14657e-06
2.911e-14
1.99652e-13
7.06389e-13
9.83886e-13
1.25504e-12
1.29369e-12
1.35985e-09
2.52098e-09
1.57056e-08
1.42769e-08
2.01152e-09
1.00215e-11
1.91179e-11
2.30198e-10
2.17346e-08
3.71963e-07
1.10613e-06
9.3519e-07
1.10733e-06
1.83112e-06
1.63987e-06
2.16019e-06
6.85074e-14
5.16277e-13
2.18603e-12
1.367e-12
1.65627e-12
1.68262e-12
1.37288e-07
1.04771e-07
4.40533e-07
3.75486e-07
1.65548e-07
1.05309e-10
1.923e-11
3.77952e-08
3.72687e-07
1.27119e-06
8.20855e-06
1.10344e-05
6.90026e-06
3.45425e-06
2.71257e-06
2.15115e-06
1.46893e-13
1.34443e-12
1.09373e-11
4.43248e-10
2.16276e-08
1.34569e-06
3.41222e-06
1.77165e-05
1.83801e-05
1.33907e-05
4.65842e-06
2.52764e-06
1.31236e-06
3.23485e-07
3.4064e-07
8.75024e-07
1.31566e-05
0.000108146
0.000162002
0.000167146
0.000386897
0.000216821
6.08949e-13
8.58354e-12
1.54335e-09
1.01059e-07
5.88697e-07
9.80964e-05
0.00140296
0.00442274
0.00419603
0.00328248
0.00163986
0.000680786
0.000149507
1.26679e-05
2.39421e-06
1.14395e-06
4.51526e-06
4.20612e-05
0.000259129
0.0012499
0.00141022
0.00151339
4.20435e-12
2.08833e-10
1.11643e-08
2.72993e-06
0.000490154
0.0163497
0.070433
0.119925
0.112586
0.0965781
0.0622053
0.0330133
0.00874292
0.00176633
0.000329628
6.07241e-05
2.87282e-05
2.99117e-05
6.54922e-05
0.000158416
0.000952411
0.00300342
1.4828e-11
2.16234e-10
2.30134e-06
0.000730391
0.0320582
0.23528
0.48533
0.60278
0.60669
0.606549
0.541204
0.434052
0.244811
0.100133
0.0286307
0.00685833
0.00168861
0.000474939
0.000414819
0.00258183
0.0112306
0.0341349
9.45231e-12
1.0081e-08
0.000122743
0.00967864
0.192586
0.648711
0.870395
0.893886
0.893424
0.893886
0.893425
0.893885
0.882666
0.740889
0.561388
0.335825
0.15075
0.139144
0.106939
0.174314
0.267077
0.365673
1.68965e-11
1.7844e-10
1.67716e-05
0.00188664
0.0134581
0.0628274
0.141543
0.209249
0.353055
0.523517
0.689643
0.806685
0.903172
0.94778
0.948207
0.936743
0.847872
0.802285
0.683082
0.680727
0.678336
0.664024
1.16835e-10
8.21372e-09
2.11737e-06
4.40862e-05
6.54594e-05
1.12245e-05
1.98413e-06
2.43206e-06
3.60994e-06
0.000132908
0.00316085
0.0262775
0.111696
0.252266
0.361056
0.435399
0.467133
0.477102
0.464246
0.305777
0.211313
0.0851252
2.73033e-08
9.16425e-08
2.1213e-07
1.13849e-07
5.25541e-08
3.00617e-08
7.2983e-08
1.80846e-07
8.09806e-08
3.51571e-08
3.51743e-08
3.10739e-08
4.60923e-08
3.57501e-07
4.71442e-06
3.15101e-05
0.000178284
0.000409391
0.000386921
1.52048e-05
9.71023e-07
3.91891e-07
7.86014e-09
1.17211e-08
1.21233e-08
3.1236e-08
1.49851e-08
8.19515e-09
3.0066e-08
1.63579e-07
7.58529e-08
3.99352e-08
3.112e-08
3.10291e-08
3.111e-08
4.10673e-08
9.51838e-08
1.15087e-07
1.18026e-07
1.14014e-07
9.1504e-08
6.98354e-08
7.03328e-08
6.13085e-08
6.26076e-08
6.07495e-10
2.01004e-09
1.35229e-08
6.37545e-09
3.46669e-09
8.18947e-09
2.07097e-08
6.94753e-08
4.88688e-08
3.85429e-08
3.80955e-08
5.25373e-08
4.5112e-08
9.32965e-08
2.45852e-07
3.59147e-07
3.33387e-07
3.08209e-07
1.96687e-07
7.25967e-08
6.28917e-08
6.3525e-08
4.33664e-08
8.89085e-11
5.59556e-10
1.28353e-09
5.33672e-10
2.16308e-10
2.73706e-09
9.15526e-09
2.68355e-08
2.70444e-08
4.80739e-08
9.40833e-08
9.29132e-08
8.11355e-08
2.90544e-07
4.52428e-07
5.7878e-07
5.7908e-07
4.84115e-07
2.64632e-07
1.08985e-07
7.52419e-08
6.99341e-08
6.97799e-08
1.45074e-11
5.95025e-11
8.70285e-11
4.60205e-11
3.99505e-11
4.54623e-10
2.81885e-09
1.33616e-08
3.70667e-08
1.02093e-07
1.29893e-07
4.76994e-08
5.79438e-08
3.08736e-07
4.45577e-07
1.86572e-07
4.88508e-08
4.11605e-08
5.12645e-08
8.9446e-08
9.55865e-08
8.96978e-08
5.63179e-08
1.8782e-12
4.42324e-12
9.39191e-12
1.23764e-11
1.55343e-11
2.38729e-11
6.29782e-11
2.45321e-10
1.40211e-09
4.0123e-08
1.68542e-08
8.18543e-09
5.83538e-08
7.41823e-08
4.63044e-08
4.41526e-08
3.60317e-08
2.77065e-08
2.24761e-08
2.92634e-08
5.4557e-08
3.88446e-08
1.27976e-08
1.11848e-13
2.26359e-13
1.719e-12
4.58244e-12
9.27775e-12
1.56019e-11
3.14106e-11
6.23248e-11
1.13744e-10
1.73304e-10
3.69735e-10
6.85864e-09
2.87184e-08
3.02878e-08
3.43762e-08
7.07142e-08
5.55395e-08
3.98546e-08
2.15696e-08
1.7686e-08
1.44031e-08
7.11771e-09
4.43401e-09
5.1575e-15
4.24209e-14
4.28654e-13
2.22745e-12
5.58726e-12
9.93175e-12
2.30885e-11
6.25253e-11
1.43869e-10
1.94145e-10
6.51169e-10
9.62022e-09
1.13089e-08
3.32441e-08
9.87892e-08
1.27068e-07
8.87319e-08
5.32168e-08
2.56707e-08
7.72352e-09
4.57999e-09
2.0678e-09
2.14888e-09
3.93382e-16
8.91467e-15
1.43802e-13
1.00765e-12
2.75162e-12
5.28911e-12
1.40017e-11
4.32228e-11
1.11832e-10
2.25855e-10
5.69381e-10
1.70404e-09
1.09383e-08
5.15015e-08
1.26838e-07
1.27122e-07
9.72301e-08
5.70304e-08
2.80578e-08
1.03231e-08
2.99594e-09
1.65405e-09
1.20905e-09
1.15189e-16
4.14759e-15
6.22023e-14
3.76348e-13
1.05103e-12
2.38656e-12
7.63718e-12
2.61807e-11
7.16885e-11
1.76122e-10
2.44328e-10
7.98153e-10
9.39629e-09
5.16138e-08
9.09464e-08
1.18086e-07
7.63263e-08
4.91038e-08
2.92716e-08
1.11222e-08
3.95289e-09
1.28081e-09
6.11911e-10
6.5926e-17
1.80892e-15
2.08244e-14
1.07303e-13
3.16785e-13
9.40225e-13
3.80306e-12
1.43617e-11
4.1852e-11
1.11105e-10
1.53318e-10
5.46002e-10
9.33092e-09
2.74076e-08
5.52686e-08
4.08745e-08
)
;

boundaryField
{
    leftWall
    {
        type            zeroGradient;
    }
    rightWall
    {
        type            zeroGradient;
    }
    lowerWall
    {
        type            zeroGradient;
    }
    atmosphere
    {
        type            inletOutlet;
        inletValue      nonuniform 0();
        value           nonuniform 0();
    }
    defaultFaces
    {
        type            empty;
    }
    procBoundary0to1
    {
        type            processor;
        value           nonuniform List<scalar> 
26
(
1.01365e-05
1.365e-05
1.16176e-05
1.14239e-05
1.17759e-05
1.35067e-05
1.62922e-05
1.83283e-05
6.09185e-05
0.00131669
0.00975342
0.0816994
0.456
0.570411
0.0149649
1.39995e-07
1.39995e-07
4.75891e-08
4.3607e-08
6.62913e-08
3.33912e-08
1.13361e-08
5.6286e-09
2.98418e-09
1.21889e-09
4.55602e-10
)
;
    }
    procBoundary0to2
    {
        type            processor;
        value           nonuniform List<scalar> 
24
(
5.78865e-08
4.02106e-08
1.94989e-08
1.06357e-08
3.61122e-09
1.026e-09
3.32303e-10
2.3271e-17
4.43561e-16
4.32409e-15
2.17219e-14
7.94046e-14
3.52659e-13
1.76582e-12
7.18994e-12
2.21932e-11
5.38513e-11
8.24742e-11
1.59354e-10
3.62319e-09
1.68124e-08
1.424e-08
5.78865e-08
3.49445e-08
)
;
    }
}


// ************************************************************************* //
