/*--------------------------------*- C++ -*----------------------------------*\
| =========                 |                                                 |
| \\      /  F ield         | OpenFOAM: The Open Source CFD Toolbox           |
|  \\    /   O peration     | Version:  2.4.0                                 |
|   \\  /    A nd           | Web:      www.OpenFOAM.org                      |
|    \\/     M anipulation  |                                                 |
\*---------------------------------------------------------------------------*/
FoamFile
{
    version     2.0;
    format      ascii;
    class       volScalarField;
    location    "0.6";
    object      alphas;
}
// * * * * * * * * * * * * * * * * * * * * * * * * * * * * * * * * * * * * * //

dimensions      [0 0 0 0 0 0 0];

internalField   nonuniform List<scalar> 
575
(
2
2
2
2
2
2
2
2
2
2
2
2
2
2
2
2
2
2
2
2
2
2
2
2
2
2
2
2
2
2
2
2
2
2
2
2
2
2
2
2
2
2
2
2
1.99879
1.99864
1.99903
1.9984
1.9984
1.99866
1.99838
1.99837
1.99824
1.99901
1.99958
1.99988
1.99997
1.99999
2
2
2
2
2
2
2
2
1.8163
1.8091
1.82221
1.79651
1.78836
1.78902
1.77235
1.77161
1.76977
1.814
1.86024
1.93282
1.9878
1.99919
1.99995
1.99999
2
2
2
2
2
2
0.36844
0.353297
0.3669
0.330936
0.318516
0.302269
0.268113
0.261881
0.247412
0.27601
0.322208
0.427155
0.711481
1.20002
1.8336
1.99256
1.99982
2
2
2
2
2
6.31462e-05
5.83316e-05
5.9751e-05
5.16525e-05
4.88672e-05
4.33726e-05
3.61379e-05
3.27364e-05
2.93544e-05
2.8813e-05
2.8107e-05
2.81839e-05
0.00424304
0.0717972
0.568872
1.66939
1.99063
1.99972
1.99997
1.99999
2
2
1.21719e-05
1.21089e-05
1.21022e-05
1.21214e-05
1.20198e-05
1.16575e-05
1.19475e-05
1.21012e-05
1.21872e-05
1.2373e-05
1.27467e-05
1.29788e-05
1.3036e-05
0.000293529
0.0253499
0.601964
1.88114
1.9979
1.99965
1.99992
1.99999
2
1.6975e-05
1.66456e-05
1.58829e-05
1.5881e-05
1.47094e-05
1.15003e-05
1.21482e-05
1.20903e-05
1.18064e-05
1.19237e-05
1.2886e-05
1.33632e-05
1.42261e-05
1.42647e-05
0.000526911
0.118962
1.28802
1.98545
1.99922
1.99989
2
2
1.17668e-05
1.10653e-05
1.00056e-05
9.8623e-06
8.21436e-06
7.87382e-06
1.00801e-05
2.3473e-05
2.37815e-05
1.91794e-05
1.20536e-05
1.14901e-05
1.31102e-05
1.48814e-05
2.39421e-05
0.00797024
0.277452
1.35179
1.94693
1.97749
1.95471
1.9389
2.41567e-06
2.2563e-06
1.94555e-06
1.85105e-06
1.82322e-06
9.88651e-05
0.00140357
0.00442327
0.00419657
0.00328305
0.00164052
0.000681501
0.000150511
1.56416e-05
9.09884e-06
5.90391e-05
0.0114392
0.173585
0.569785
0.930398
1.0662
0.995183
2.49706e-06
2.22107e-06
2.20769e-06
5.43794e-06
0.000496319
0.0163583
0.0704352
0.119926
0.112586
0.0965785
0.0622055
0.0330134
0.00874301
0.0017665
0.000330188
6.51055e-05
0.000215307
0.00652697
0.0251795
0.021389
0.0199942
0.0214305
2.41846e-06
5.15936e-05
0.00209534
0.0049028
0.0375379
0.237978
0.485918
0.603341
0.607068
0.606874
0.54138
0.434101
0.244813
0.100134
0.0286307
0.00685844
0.00170268
0.000660206
0.000748814
0.0028576
0.0114613
0.0343529
0.748877
0.709691
0.582938
0.535807
0.802106
0.936758
1.01066
1.06884
1.0666
1.04726
1.00109
0.947352
0.895909
0.742658
0.561457
0.335833
0.150765
0.139267
0.107293
0.17578
0.272047
0.384715
2.92703
2.93451
2.95136
2.94976
2.9572
2.87224
2.71549
2.58073
2.29304
1.95134
1.6175
1.38046
1.18008
1.07275
1.03677
0.990802
0.907967
0.888166
0.812414
0.925547
1.09715
1.28384
2.99999
2.99993
2.99992
2.99984
2.99986
2.99997
2.99999
2.99999
2.99999
2.99973
2.99367
2.94742
2.77655
2.49535
2.27761
2.12826
2.06342
2.04203
2.06751
2.3874
2.57656
2.82938
3
3
3
3
3
3
3
3
3
3
3
3
3
3
2.99999
2.99994
2.99964
2.99918
2.99922
2.99997
3
3
3
3
3
3
3
3
3
3
3
3
3
3
3
3
3
3
3
3
3
3
3
3
3
3
3
3
3
3
3
3
3
3
3
3
3
3
3
3
3
3
3
3
3
3
3
3
3
3
3
3
3
3
3
3
3
3
3
3
3
3
3
3
3
3
3
3
3
3
3
2.99999
2.99999
3
3
3
3
3
3
3
3
3
3
3
3
3
3
3
3
3
3
3
3
3
3
3
3
3
3
3
3
3
3
3
3
3
3
3
3
3
3
3
3
3
3
3
3
3
3
3
3
3
3
3
3
3
3
3
3
3
3
3
3
3
3
3
3
3
3
3
3
3
3
3
3
3
3
3
3
3
3
3
3
3
3
3
3
3
3
3
3
3
3
3
3
3
3
3
3
3
3
3
3
3
3
3
3
3
3
3
3
3
3
3
3
3
3
3
3
3
3
3
3
3
3
3
3
3
3
3
3
3
3
3
3
3
3
3
3
3
3
3
3
3
3
3
3
3
3
3
3
3
3
3
3
)
;

boundaryField
{
    leftWall
    {
        type            zeroGradient;
    }
    rightWall
    {
        type            zeroGradient;
    }
    lowerWall
    {
        type            zeroGradient;
    }
    atmosphere
    {
        type            zeroGradient;
    }
    defaultFaces
    {
        type            empty;
    }
    procBoundary0to1
    {
        type            processor;
        value           nonuniform List<scalar> 
26
(
1.99999
1.99999
1.99999
1.99999
1.99999
1.99999
1.99998
1.99998
1.94806
0.995832
0.0329586
0.0821885
0.533083
1.61092
2.96999
3
3
3
3
3
3
3
3
3
3
2.99999
)
;
    }
    procBoundary0to2
    {
        type            processor;
        value           nonuniform List<scalar> 
24
(
3
3
3
3
3
3
3
3
3
3
3
3
3
3
3
3
3
3
3
3
3
3
3
3
)
;
    }
}


// ************************************************************************* //
