/*--------------------------------*- C++ -*----------------------------------*\
| =========                 |                                                 |
| \\      /  F ield         | OpenFOAM: The Open Source CFD Toolbox           |
|  \\    /   O peration     | Version:  2.4.0                                 |
|   \\  /    A nd           | Web:      www.OpenFOAM.org                      |
|    \\/     M anipulation  |                                                 |
\*---------------------------------------------------------------------------*/
FoamFile
{
    version     2.0;
    format      ascii;
    class       volScalarField;
    location    "0.6";
    object      p;
}
// * * * * * * * * * * * * * * * * * * * * * * * * * * * * * * * * * * * * * //

dimensions      [1 -1 -2 0 0 0 0];

internalField   nonuniform List<scalar> 
575
(
3766.91
3764.61
3757.19
3756.7
3744.56
3737.89
3740.24
3748.99
3777.01
3843.74
3949.19
4096.93
4335.02
4714.24
5211.14
5805.41
6412.19
6963.38
7369.57
7669.68
7883.97
8019.18
2961.66
2957.57
2945.97
2947.53
2933.56
2915.92
2912.1
2913.58
2935.46
2970.07
3040.12
3204.42
3476.95
3873.87
4384.33
4995.95
5616.92
6167.57
6587.04
6887.31
7105.52
7239.23
2223.98
2219.3
2219.36
2207.62
2198.19
2195.1
2193.23
2200.89
2226.12
2301.39
2412.33
2543.64
2685.23
3028.2
3529.34
4184.26
4839.4
5420.21
5826.37
6129.86
6344.55
6460.52
1242.36
1234.67
1236.37
1221.04
1212.81
1202.81
1187.5
1187.38
1193.69
1223.43
1274.48
1384.59
1676.37
2125.73
2671.87
3348.77
4047.68
4655.45
5081.09
5382.95
5594.64
5721.38
808.719
808.264
808.764
805.858
805.968
806.198
802.611
804.502
810.59
821.594
840.815
877.554
957.426
1076.42
1572.89
2495.5
3282.87
3920.05
4354.22
4655.91
4863.03
4987.45
802.44
803.174
799.537
801.299
800.928
799.57
802.637
808.515
818.222
830.118
842.866
854.322
860.149
871.525
991.182
1479.02
2536.52
3210.23
3652.25
3956.23
4152.71
4269.1
726.261
725.359
724.608
722.099
721.08
720.686
719.068
721.673
727.819
738.827
753.191
774.142
801.009
834.431
860.576
955.238
1762.07
2528.09
2960.71
3250.99
3453.72
3564.42
664.203
663.694
662.389
660.805
659.262
658.297
656.932
659.271
665.839
676.952
691.101
709.515
731.607
762.311
802.868
821.358
1074.65
1867.32
2328.09
2635.19
2765.45
2870.97
575.865
574.825
572.968
570.243
566.926
563.815
560.881
562.158
568.627
581.192
598.003
616.457
638.282
661.203
682.294
699.714
610.225
758.754
1081.31
1362.5
1635
1745.58
445.699
444.163
441.425
436.94
431.086
424.949
416.453
413.825
417.008
425.712
436.69
459.109
480.909
502.688
512.892
507.361
450.818
372.82
290.212
268.72
392.591
438.33
308.037
307.868
308.264
307.161
300.475
289.885
269.142
262.655
269.918
285.395
308.098
329.527
349.68
367.205
373.954
366.884
333.954
259.324
184.692
165.594
161.601
172.261
219.693
215.823
213.373
209.075
190.084
180.646
155.155
141.001
145.638
153.888
165.643
180.543
197.392
217.767
236.222
245.397
243.056
226.431
200.555
172.5
158.222
145.282
29.9701
30.2166
29.7617
27.3848
20.7133
32.2554
29.8111
33.7284
46.6971
63.9294
82.9569
101.709
116.277
125.714
131.23
130.446
135.321
123.805
109.07
95.1081
83.6138
72.5349
5.05353
4.76067
4.63675
4.60632
4.60306
4.91062
5.17303
5.0885
5.0618
8.25612
13.9508
22.7595
28.5037
32.4811
36.3431
40.9196
47.2251
45.736
41.4431
30.6484
23.6361
19.5439
4.99561
5.02376
5.10104
5.11655
4.94964
4.65747
4.63928
4.7495
4.67828
4.45027
4.3676
4.54688
4.96523
5.24525
4.60659
7.45462
10.8831
12.5507
11.6672
5.62793
4.11504
4.41846
4.65342
4.67602
4.74538
4.80253
4.77082
4.60004
4.52702
4.70631
4.75112
4.89338
4.96618
4.83437
4.686
4.56431
4.52903
4.3228
4.14792
4.09318
4.13843
4.39976
4.5776
4.71958
4.71518
4.60918
4.67528
4.68911
4.63341
4.51406
4.45324
4.50997
4.45727
4.35373
4.40273
4.47669
4.54028
4.61847
4.71275
4.88716
4.97713
5.01644
5.01689
4.87584
4.63167
4.60006
4.66518
4.52576
4.47329
4.47939
4.47684
4.47407
4.39981
4.38788
4.41312
4.4195
4.43485
4.44694
4.41834
4.41884
4.39675
4.37415
4.35887
4.34292
4.32991
4.32219
4.33746
4.38538
4.45522
4.52786
4.37354
4.36453
4.3632
4.35685
4.34344
4.30886
4.30611
4.32697
4.3232
4.31817
4.31264
4.31733
4.32166
4.33025
4.35304
4.37692
4.38984
4.39677
4.40405
4.40562
4.39415
4.39466
4.40986
4.23533
4.22731
4.21511
4.20787
4.20039
4.18561
4.1851
4.19385
4.19008
4.19037
4.19914
4.20196
4.19802
4.19743
4.19894
4.20172
4.20324
4.20197
4.19696
4.19233
4.19692
4.21294
4.23449
4.09174
4.08991
4.08273
4.07512
4.06727
4.058
4.05754
4.0581
4.05848
4.05981
4.06724
4.07073
4.06842
4.0671
4.06844
4.07007
4.06984
4.06867
4.06805
4.07048
4.07565
4.08302
4.09208
3.94584
3.94097
3.93788
3.93437
3.92996
3.92543
3.92408
3.92363
3.92397
3.92531
3.92772
3.92945
3.92953
3.92913
3.92914
3.92972
3.93016
3.93002
3.93001
3.93147
3.93434
3.938
3.94182
3.80453
3.80332
3.79946
3.79593
3.79253
3.78958
3.78815
3.78758
3.78773
3.78859
3.78998
3.79104
3.79136
3.79143
3.79136
3.79128
3.79129
3.7912
3.79128
3.79169
3.79252
3.79348
3.79392
3.66296
3.66191
3.65965
3.65721
3.65479
3.65274
3.65146
3.65085
3.65079
3.65125
3.65194
3.65246
3.65265
3.65275
3.65266
3.65245
3.65213
3.65154
3.65105
3.65046
3.6498
3.649
3.64751
3.52229
3.52153
3.52005
3.51835
3.51663
3.51517
3.51411
3.5135
3.51328
3.51342
3.5137
3.51394
3.51395
3.51378
3.51348
3.51304
3.51239
3.51135
3.51018
3.50887
3.50732
3.50529
3.50247
3.38224
3.38171
3.38072
3.37953
3.37829
3.37718
3.3763
3.3757
3.37537
3.37528
3.37529
3.37527
3.37513
3.37482
3.37433
3.37363
)
;

boundaryField
{
    leftWall
    {
        type            fixedFluxPressure;
        gradient        uniform 0;
        value           nonuniform List<scalar> 
26
(
3766.91
2961.66
2223.98
1242.36
808.719
802.44
726.261
664.203
575.865
445.699
308.037
219.693
29.9701
5.05353
4.99561
4.65342
4.71518
4.52576
4.37354
4.23533
4.09174
3.94584
3.80453
3.66296
3.52229
3.38224
)
;
    }
    rightWall
    {
        type            fixedFluxPressure;
        gradient        nonuniform 0();
        value           nonuniform 0();
    }
    lowerWall
    {
        type            fixedFluxPressure;
        gradient        nonuniform List<scalar> 
22
(
132719
132719
132719
132719
132719
132719
132719
132719
132719
132719
132719
132719
132719
132719
132719
132719
132719
132719
132719
132719
132719
132719
)
;
        value           nonuniform List<scalar> 
22
(
4165.06
4162.76
4155.34
4154.85
4142.71
4136.04
4138.39
4147.14
4175.16
4241.89
4347.34
4495.08
4733.17
5112.39
5609.29
6203.56
6810.34
7361.53
7767.72
8067.83
8282.12
8417.33
)
;
    }
    atmosphere
    {
        type            totalPressure;
        U               U.air;
        phi             phi.air;
        rho             rho;
        psi             none;
        gamma           1;
        p0              nonuniform 0();
        value           nonuniform 0();
    }
    defaultFaces
    {
        type            empty;
    }
    procBoundary0to1
    {
        type            processor;
        value           nonuniform List<scalar> 
26
(
8085.07
7302.56
6536.02
5785.15
5048.29
4324.58
3615.45
2918.45
1803.22
463.656
164.051
129.515
56.5463
14.462
4.52621
4.93137
4.93137
4.70987
4.5719
4.42844
4.24968
4.09748
3.94313
3.79294
3.64535
3.4995
)
;
    }
    procBoundary0to2
    {
        type            processor;
        value           nonuniform List<scalar> 
24
(
3.37262
3.37123
3.36956
3.36758
3.36517
3.36225
3.35865
3.24267
3.24229
3.2416
3.24074
3.23981
3.23892
3.23816
3.23757
3.23716
3.23689
3.23669
3.23645
3.23611
3.23557
3.2348
3.37262
3.23381
)
;
    }
}


// ************************************************************************* //
