/*--------------------------------*- C++ -*----------------------------------*\
| =========                 |                                                 |
| \\      /  F ield         | OpenFOAM: The Open Source CFD Toolbox           |
|  \\    /   O peration     | Version:  2.4.0                                 |
|   \\  /    A nd           | Web:      www.OpenFOAM.org                      |
|    \\/     M anipulation  |                                                 |
\*---------------------------------------------------------------------------*/
FoamFile
{
    version     2.0;
    format      ascii;
    class       surfaceScalarField;
    location    "0.6";
    object      phi.air;
}
// * * * * * * * * * * * * * * * * * * * * * * * * * * * * * * * * * * * * * //

dimensions      [0 3 -1 0 0 0 0];

internalField   nonuniform List<scalar> 
1101
(
2.28521e-06
-2.28523e-06
4.82714e-06
-2.54194e-06
6.43086e-06
-1.60373e-06
9.24195e-06
-2.81112e-06
1.18094e-05
-2.56746e-06
1.349e-05
-1.68066e-06
1.54193e-05
-1.92923e-06
1.72626e-05
-1.84335e-06
1.97621e-05
-2.49953e-06
2.14964e-05
-1.73441e-06
2.19431e-05
-4.4665e-07
2.15401e-05
4.03185e-07
1.9843e-05
1.69752e-06
1.74016e-05
2.44146e-06
1.36749e-05
3.72621e-06
9.60244e-06
4.07183e-06
5.13363e-06
4.46828e-06
1.46781e-06
3.66555e-06
-1.33888e-06
2.8067e-06
-2.02181e-06
6.83061e-07
-1.33044e-06
-6.91063e-07
5.23199e-07
2.30597e-06
-4.58255e-06
4.76277e-06
-4.98787e-06
6.62884e-06
-3.46421e-06
9.25897e-06
-5.42608e-06
1.16756e-05
-4.9692e-06
1.35849e-05
-3.57974e-06
1.56837e-05
-4.01301e-06
1.76734e-05
-3.81799e-06
2.00655e-05
-4.87395e-06
2.1591e-05
-3.25427e-06
2.19914e-05
-8.45979e-07
2.15537e-05
8.41083e-07
2.02341e-05
3.01743e-06
1.78191e-05
4.8567e-06
1.39647e-05
7.58063e-06
9.65082e-06
8.38589e-06
5.40296e-06
8.71584e-06
1.60863e-06
7.45983e-06
-8.30868e-07
5.24623e-06
-1.72451e-06
1.57704e-06
-1.37827e-06
-1.03677e-06
6.3705e-07
2.31251e-06
-6.36712e-06
4.49846e-06
-6.64508e-06
6.9864e-06
-5.42736e-06
9.09122e-06
-7.00498e-06
1.12467e-05
-6.60471e-06
1.36621e-05
-5.47645e-06
1.58883e-05
-5.72633e-06
1.80454e-05
-5.4599e-06
1.94293e-05
-5.73737e-06
2.03054e-05
-3.57222e-06
2.17306e-05
-1.71694e-06
2.31503e-05
-1.50369e-07
2.24965e-05
3.80479e-06
1.98701e-05
7.48795e-06
1.48165e-05
1.26342e-05
9.21924e-06
1.39827e-05
4.08389e-06
1.38506e-05
3.03592e-07
1.12399e-05
-1.63894e-06
7.18888e-06
-1.38013e-06
1.31859e-06
-1.68629e-07
-2.24769e-06
-4.09673e-07
2.30126e-06
-1.8554e-05
4.1879e-06
-1.86302e-05
7.2494e-06
-1.82082e-05
8.76296e-06
-1.89254e-05
1.08343e-05
-1.91871e-05
1.37252e-05
-1.88643e-05
1.59076e-05
-1.89568e-05
1.79364e-05
-1.86442e-05
1.89956e-05
-1.82599e-05
2.05508e-05
-1.59633e-05
2.24991e-05
-1.38228e-05
2.25698e-05
-8.77831e-06
2.06452e-05
5.18003e-07
1.78075e-05
8.8739e-06
1.37797e-05
1.70626e-05
8.75055e-06
1.90753e-05
4.11497e-06
1.84862e-05
5.0184e-07
1.4853e-05
-1.53435e-06
9.22501e-06
-1.89465e-06
1.679e-06
-6.22096e-07
-3.52013e-06
-1.79537e-06
1.81115e-06
-2.65352e-05
3.35064e-06
-2.57751e-05
6.18654e-06
-2.68493e-05
7.47404e-06
-2.49491e-05
8.6547e-06
-2.48299e-05
1.15066e-05
-2.51193e-05
1.36253e-05
-2.31899e-05
1.49098e-05
-2.19964e-05
1.60435e-05
-2.06798e-05
1.82212e-05
-2.02681e-05
2.00413e-05
-1.97935e-05
2.10166e-05
-1.74872e-05
2.26056e-05
-1.9195e-05
1.84664e-05
-2.61961e-06
1.18258e-05
1.38236e-05
6.94752e-06
2.40494e-05
2.9282e-06
2.25978e-05
1.07617e-08
1.77704e-05
-1.43774e-06
1.06736e-05
-2.32678e-06
2.56852e-06
-1.73432e-06
-4.1118e-06
-3.95624e-06
-4.16268e-07
-1.05575e-05
-4.11709e-07
-1.05041e-05
-7.14221e-07
-1.16034e-05
-1.66946e-07
-1.07412e-05
3.30466e-07
-1.07983e-05
1.08401e-06
-1.2542e-05
2.15377e-06
-1.14023e-05
2.82452e-06
-9.86442e-06
3.71846e-06
-9.21256e-06
4.33269e-06
-8.39785e-06
4.83826e-06
-6.42582e-06
7.6868e-06
-4.13681e-06
1.33894e-05
-1.09829e-06
1.51031e-05
-6.9244e-07
8.90131e-06
6.3097e-06
1.32898e-06
2.09111e-05
-7.37013e-07
2.48945e-05
-2.00455e-06
1.90764e-05
-1.9568e-06
1.06264e-05
-2.96079e-06
3.57281e-06
-3.35972e-06
-3.71256e-06
-6.16997e-06
-8.69727e-07
-9.68163e-06
-1.4913e-06
-9.87756e-06
-1.85162e-06
-1.12381e-05
-1.81106e-06
-1.07786e-05
-1.09772e-06
-1.15089e-05
1.39001e-07
-1.37767e-05
8.62601e-07
-1.21245e-05
1.51893e-06
-1.05197e-05
1.61266e-06
-9.30557e-06
1.07139e-06
-7.85591e-06
-6.03241e-07
-4.75035e-06
-2.88863e-06
-1.84984e-06
-3.56621e-06
1.29489e-06
2.50247e-06
1.0284e-05
4.81572e-06
1.89215e-05
-5.80861e-06
1.95068e-05
-7.6522e-06
2.16143e-05
-5.3415e-06
1.69798e-05
-3.61965e-06
8.9113e-06
-3.67255e-06
3.62581e-06
-4.18124e-06
-3.20387e-06
-8.4271e-06
-1.12934e-06
-8.5476e-06
-1.86968e-06
-9.13235e-06
-2.32218e-06
-1.0783e-05
-2.23237e-06
-1.08672e-05
-1.6773e-06
-1.20632e-05
-2.11861e-07
-1.52399e-05
9.25683e-07
-1.32614e-05
1.77642e-06
-1.13703e-05
2.11206e-06
-9.64116e-06
2.19957e-06
-7.94341e-06
1.84061e-06
-4.39115e-06
1.39178e-06
-1.40037e-06
-3.7764e-06
6.46444e-06
-1.01563e-05
1.68648e-05
-1.00129e-05
2.78104e-05
-1.47338e-05
2.52299e-05
-1.80742e-05
1.70606e-05
-1.49815e-05
1.34861e-05
-9.68289e-06
3.87144e-06
-6.17015e-06
2.36474e-07
-4.78822e-06
-4.38671e-06
-1.11397e-05
-1.83752e-06
-6.60262e-06
-3.29247e-06
-7.5751e-06
-4.3862e-06
-9.6127e-06
-3.53482e-06
-1.16595e-05
-2.06525e-06
-1.35101e-05
3.58572e-07
-1.765e-05
3.28233e-06
-1.61687e-05
4.77258e-06
-1.28115e-05
2.93195e-06
-7.75403e-06
-1.3406e-06
-3.62942e-06
-5.48943e-06
-2.19356e-07
-7.53868e-06
6.56012e-07
-6.19393e-06
5.12139e-06
-4.58614e-06
1.52609e-05
-3.28873e-06
2.60882e-05
-1.31783e-05
4.04774e-05
-2.9587e-05
2.55783e-05
-3.93705e-05
1.14214e-05
-4.0645e-05
-1.40553e-06
-3.13707e-05
-1.21136e-05
-1.37532e-05
-2.4571e-05
-2.89135e-05
-3.1029e-06
-3.22153e-06
-5.39878e-06
-5.06585e-06
-6.1134e-06
-8.8587e-06
-4.95184e-06
-1.27721e-05
-2.64306e-06
-1.56306e-05
2.7265e-06
-2.27825e-05
8.06393e-06
-2.1402e-05
1.12086e-05
-1.59866e-05
1.25162e-05
-8.99454e-06
1.34891e-05
-4.5249e-06
1.25199e-05
8.94193e-07
1.04452e-05
2.89963e-06
5.49948e-06
1.0101e-05
2.86416e-06
1.78938e-05
5.66282e-06
2.32865e-05
1.65152e-05
3.13058e-05
1.24098e-05
3.68045e-05
-1.26722e-06
1.81795e-05
-6.48009e-06
-1.96514e-06
-4.76627e-06
-2.51787e-05
9.72147e-07
-4.5604e-05
-5.00697e-05
-3.44338e-06
-9.31057e-08
-7.57589e-06
-5.37308e-07
-1.01388e-05
1.47121e-05
-9.3458e-06
1.71587e-05
-6.44113e-06
1.32343e-05
2.34787e-06
-3.46542e-06
8.56285e-06
-1.8173e-05
8.9304e-06
-6.24788e-06
6.25042e-06
5.80658e-07
2.59321e-06
5.42138e-06
2.28543e-06
4.49005e-06
3.7011e-06
1.66203e-06
8.29242e-06
4.85275e-06
1.45594e-05
1.11556e-05
2.03539e-05
1.75851e-05
3.18375e-05
1.97843e-05
5.0501e-05
2.31407e-05
6.89493e-05
1.40483e-05
7.48288e-05
1.88909e-06
7.78263e-05
-1.31006e-05
7.82769e-05
-2.90051e-05
-4.03429e-05
-9.64651e-06
9.73115e-05
-1.65471e-05
9.06858e-05
-1.58177e-05
7.38939e-05
-6.35268e-06
6.25222e-05
-1.0828e-05
9.07012e-05
-4.0157e-06
6.87386e-05
-9.193e-06
4.89702e-05
-1.34069e-05
5.36813e-05
-1.36192e-05
5.84946e-05
-1.04842e-05
6.10251e-05
-6.84789e-06
6.40967e-05
-3.88143e-06
6.6452e-05
5.75278e-07
6.34721e-05
5.78258e-06
3.08899e-05
1.43526e-05
9.82498e-06
2.55291e-05
8.34857e-06
3.95691e-05
9.20344e-06
5.97556e-05
5.77892e-07
7.42662e-05
1.96804e-07
8.57835e-05
-3.8791e-06
9.30891e-05
2.85344e-06
7.25959e-06
-1.82521e-06
5.42917e-05
-4.85275e-06
5.70086e-05
-1.61105e-05
6.62305e-05
-3.62497e-05
7.43056e-05
-7.28206e-05
8.39366e-05
-9.26042e-05
8.85738e-05
-0.000111592
7.83369e-05
-0.000116581
6.34165e-05
-0.00010976
6.58767e-05
-9.5416e-05
5.90393e-05
-7.97446e-05
5.56677e-05
-5.7386e-05
4.46822e-05
-3.22471e-05
3.98577e-05
-1.01046e-05
5.00571e-05
4.84865e-06
5.59759e-05
1.50787e-05
6.2312e-05
2.81891e-05
6.8274e-05
4.10639e-05
5.93793e-05
5.62155e-05
5.338e-05
7.15329e-05
3.57293e-05
8.07461e-05
2.75905e-05
1.29701e-05
3.58691e-05
-2.33882e-05
2.54325e-05
2.06252e-05
-1.6462e-05
4.8568e-05
-7.7974e-05
6.80242e-05
-0.000138983
7.21354e-05
-0.000135078
-9.09494e-06
-0.000128427
-1.35786e-05
-0.000132096
-5.67257e-06
-0.000138898
-1.72004e-07
-0.000123118
-2.30919e-06
-0.000111669
1.53908e-05
-9.38107e-05
1.62251e-05
-8.08135e-05
3.35874e-05
-6.58317e-05
5.21175e-05
-4.9252e-05
5.54343e-05
-3.24734e-05
5.10862e-05
-6.29312e-06
4.56046e-05
1.46017e-05
3.05894e-05
3.94303e-05
2.17732e-05
4.13388e-05
2.52972e-05
4.19262e-05
8.77404e-06
-1.52146e-05
-2.57075e-05
1.82415e-06
-2.96421e-05
2.34242e-05
-1.61197e-05
3.39408e-05
1.31911e-05
3.73631e-05
9.78863e-05
-1.41279e-05
0.000138139
-5.1769e-05
0.000107228
1.29007e-05
3.3222e-05
6.08979e-05
-3.74447e-05
5.58146e-05
-8.65838e-05
1.09989e-05
-0.000109999
-8.73245e-06
-0.000102823
-4.34888e-05
-8.59205e-05
-4.59532e-05
-7.12392e-05
-2.55694e-05
-8.13953e-05
-3.52374e-06
-6.61391e-05
-7.39522e-06
-4.54158e-05
-7.96607e-06
-2.69124e-05
-1.20277e-05
3.9606e-06
-2.60935e-05
9.58745e-07
-2.02672e-05
-1.12728e-05
-2.91566e-05
-5.39247e-05
-6.12919e-05
6.3116e-05
-5.19987e-05
1.41301e-05
-1.30331e-05
-5.02576e-06
3.00673e-05
-5.74035e-06
5.34129e-05
-3.74747e-05
5.53556e-05
-5.37117e-05
3.91805e-05
2.90757e-05
6.74003e-06
9.33383e-05
-9.31839e-07
6.34864e-05
2.0217e-05
-1.01555e-05
4.56916e-05
-3.43105e-05
5.67811e-05
-5.48976e-05
6.95518e-05
-6.01738e-05
5.47096e-05
-2.07005e-05
4.87218e-05
-1.24489e-05
2.75746e-05
-1.46665e-05
1.80221e-05
-3.23748e-05
1.43418e-05
-4.29417e-05
-1.29793e-05
-3.1544e-05
-4.50762e-05
-7.99927e-06
-4.12024e-05
-3.91013e-05
-6.33413e-05
7.3491e-06
5.57669e-05
1.45426e-05
6.9366e-06
2.39848e-05
-1.44679e-05
3.68723e-05
-1.86278e-05
3.14885e-05
-3.2091e-05
2.30584e-05
-4.52816e-05
2.67881e-05
2.5346e-05
4.4657e-05
7.54694e-05
5.94403e-05
4.87031e-05
1.50933e-05
3.41915e-05
-1.57578e-05
-3.45936e-06
-2.13406e-05
-4.93148e-05
-2.99849e-05
-5.15294e-05
-1.13562e-05
-3.93292e-05
1.83379e-05
-4.2143e-05
4.91195e-05
-4.54487e-05
6.42297e-05
-4.74906e-05
6.4644e-05
-4.33681e-05
6.66483e-05
-3.35632e-05
9.05799e-05
-3.19313e-05
9.01264e-05
-3.86478e-05
7.59978e-05
-4.92127e-05
-5.95966e-05
1.54179e-05
4.0349e-05
6.84049e-06
1.5514e-05
1.66466e-06
-9.2921e-06
3.46354e-06
-2.04267e-05
-3.35855e-07
-2.82916e-05
-8.44164e-06
-3.71759e-05
1.57622e-05
1.14218e-06
5.3427e-05
3.78046e-05
6.47688e-05
3.73613e-05
7.63521e-05
2.26082e-05
6.91184e-05
3.77431e-06
4.55052e-05
-2.57016e-05
3.75327e-05
-4.35569e-05
4.04982e-05
-4.22947e-05
3.8346e-05
-3.99906e-05
3.61613e-05
-4.32638e-05
3.65119e-05
-4.78408e-05
4.13306e-05
-4.81864e-05
5.08595e-05
-4.30918e-05
5.09672e-05
-3.20388e-05
4.2803e-05
-3.04836e-05
3.09188e-05
-3.73289e-05
-4.67984e-05
1.33106e-05
2.70385e-05
2.17177e-05
7.10693e-06
2.07167e-05
-8.29117e-06
1.44318e-05
-1.41418e-05
4.46275e-06
-1.83225e-05
-1.03254e-05
-2.23877e-05
2.90987e-07
-9.47422e-06
3.60127e-05
2.08293e-06
5.6341e-05
1.70329e-05
6.16256e-05
1.73236e-05
5.51121e-05
1.02877e-05
4.14491e-05
-1.20386e-05
3.02374e-05
-3.23452e-05
2.73334e-05
-3.93906e-05
3.04287e-05
-4.30856e-05
3.23391e-05
-4.51739e-05
3.01802e-05
-4.56815e-05
2.5576e-05
-4.35819e-05
2.10517e-05
-3.85672e-05
2.3006e-05
-3.39929e-05
2.47494e-05
-3.22271e-05
2.09785e-05
-3.3558e-05
-3.54853e-05
1.03049e-05
1.67336e-05
1.15163e-05
5.89551e-06
8.86534e-06
-5.6402e-06
6.58565e-06
-1.18621e-05
3.07946e-06
-1.48163e-05
-3.09116e-06
-1.62171e-05
-2.51454e-06
-1.00509e-05
6.79194e-06
-7.22356e-06
2.22881e-05
1.53677e-06
3.06954e-05
8.91627e-06
3.60097e-05
4.97338e-06
3.51766e-05
-1.12056e-05
2.77314e-05
-2.48999e-05
2.08147e-05
-3.24738e-05
1.48444e-05
-3.71151e-05
9.55043e-06
-3.98796e-05
5.16996e-06
-4.13007e-05
2.32424e-06
-4.07358e-05
1.5631e-06
-3.78059e-05
1.8515e-06
-3.42813e-05
1.13349e-06
-3.15091e-05
-2.33409e-06
-3.00909e-05
-2.91092e-05
7.11809e-06
9.61547e-06
1.30176e-05
-4.03586e-09
1.26519e-05
-5.27451e-06
9.29671e-06
-8.50694e-06
5.14301e-06
-1.06626e-05
-8.19375e-08
-1.09922e-05
-1.88307e-06
-8.24974e-06
-2.34854e-06
-6.75812e-06
3.74268e-06
-4.55446e-06
1.23314e-05
3.27569e-07
1.92144e-05
-1.90962e-06
1.92755e-05
-1.12667e-05
1.48755e-05
-2.04998e-05
1.07738e-05
-2.8372e-05
7.0952e-06
-3.34363e-05
3.31703e-06
-3.61012e-05
-6.33775e-07
-3.73496e-05
-4.29652e-06
-3.70728e-05
-7.57173e-06
-3.45305e-05
-1.03136e-05
-3.15394e-05
-1.26123e-05
-2.92107e-05
-1.51823e-05
-2.75207e-05
-2.63184e-05
5.2032e-06
4.41226e-06
7.48017e-06
-2.28103e-06
8.04414e-06
-5.8385e-06
7.04403e-06
-7.50685e-06
4.98e-06
-8.59864e-06
2.66295e-06
-8.67515e-06
2.113e-06
-7.69981e-06
2.16562e-06
-6.81075e-06
4.07939e-06
-6.46826e-06
8.7378e-06
-4.33085e-06
1.27209e-05
-5.89273e-06
1.20763e-05
-1.0622e-05
9.29566e-06
-1.77191e-05
5.25005e-06
-2.43262e-05
1.26004e-06
-2.9446e-05
-2.28057e-06
-3.25603e-05
-5.91181e-06
-3.37181e-05
-9.29567e-06
-3.36888e-05
-1.18801e-05
-3.1946e-05
-1.33487e-05
-3.00709e-05
-1.4242e-05
-2.83176e-05
-1.53287e-05
-2.64342e-05
-2.48644e-05
3.13821e-06
1.27403e-06
4.89704e-06
-4.03988e-06
4.83733e-06
-5.77881e-06
4.30477e-06
-6.97431e-06
3.55969e-06
-7.85358e-06
2.84866e-06
-7.96415e-06
3.01122e-06
-7.86239e-06
3.81267e-06
-7.61222e-06
5.14399e-06
-7.7996e-06
7.61101e-06
-6.79787e-06
9.89215e-06
-8.17386e-06
1.03605e-05
-1.10904e-05
8.5983e-06
-1.59568e-05
5.04332e-06
-2.07711e-05
9.47131e-07
-2.53496e-05
-2.58134e-06
-2.90318e-05
-5.57333e-06
-3.07259e-05
-8.30546e-06
-3.09567e-05
-1.0821e-05
-2.94304e-05
-1.30529e-05
-2.78393e-05
-1.47272e-05
-2.66433e-05
-1.60324e-05
-2.51292e-05
-2.34253e-05
1.88999e-06
-6.15989e-07
2.89163e-06
-5.04154e-06
3.14749e-06
-6.0347e-06
3.14813e-06
-6.97499e-06
3.02039e-06
-7.72587e-06
3.14371e-06
-8.0875e-06
3.64879e-06
-8.36749e-06
4.44813e-06
-8.41158e-06
5.44667e-06
-8.79814e-06
7.21111e-06
-8.56231e-06
8.74418e-06
-9.7069e-06
9.59895e-06
-1.19451e-05
9.19534e-06
-1.5553e-05
7.42268e-06
-1.89983e-05
4.54208e-06
-2.2469e-05
9.00459e-07
-2.53899e-05
-2.5709e-06
-2.72546e-05
-5.73945e-06
-2.7788e-05
-8.63937e-06
-2.65307e-05
-1.16221e-05
-2.48564e-05
-1.3969e-05
-2.42968e-05
-1.53684e-05
-2.37297e-05
-2.23254e-05
1.20623e-06
-1.82225e-06
1.98192e-06
-5.81726e-06
2.45334e-06
-6.50615e-06
2.69378e-06
-7.21545e-06
2.83018e-06
-7.8623e-06
3.11728e-06
-8.37462e-06
3.53451e-06
-8.78473e-06
4.22729e-06
-9.10436e-06
5.02156e-06
-9.59241e-06
6.36043e-06
-9.90117e-06
7.58821e-06
-1.09347e-05
8.50876e-06
-1.28656e-05
8.367e-06
-1.54112e-05
7.18671e-06
-1.78179e-05
5.13099e-06
-2.04131e-05
2.184e-06
-2.2443e-05
-1.31921e-06
-4.87374e-06
-7.7618e-06
-1.06294e-05
-1.33585e-05
-1.51824e-05
8.774e-07
1.58135e-06
2.09517e-06
2.43043e-06
2.5933e-06
2.72277e-06
2.88557e-06
3.18415e-06
3.56871e-06
4.43661e-06
5.35093e-06
5.81315e-06
5.35906e-06
4.28295e-06
2.38145e-06
)
;

boundaryField
{
    leftWall
    {
        type            fixedValue;
        value           uniform 0;
    }
    rightWall
    {
        type            fixedValue;
        value           nonuniform 0();
    }
    lowerWall
    {
        type            fixedValue;
        value           uniform 0;
    }
    atmosphere
    {
        type            calculated;
        value           nonuniform 0();
    }
    defaultFaces
    {
        type            empty;
        value           nonuniform 0();
    }
    procBoundary0to1
    {
        type            processor;
        value           nonuniform List<scalar> 
26
(
-1.8533e-06
-1.49159e-06
8.78729e-07
7.6358e-07
4.27381e-07
-1.14562e-06
-1.92431e-06
-1.82319e-06
6.68143e-07
7.31367e-06
8.48748e-05
0.000101074
9.1273e-05
4.83513e-05
-1.12588e-05
-3.28429e-05
7.73403e-05
5.82535e-05
1.81204e-05
9.6648e-06
-8.71023e-06
-1.79736e-05
-1.67826e-05
-1.74716e-05
-1.6469e-05
-1.635e-05
)
;
    }
    procBoundary0to2
    {
        type            processor;
        value           nonuniform List<scalar> 
24
(
-2.37511e-05
-2.42335e-05
-2.36424e-05
-2.19889e-05
-2.15675e-05
-2.19064e-05
-2.11576e-05
-2.69968e-06
-6.52124e-06
-7.02001e-06
-7.55075e-06
-8.0252e-06
-8.50411e-06
-8.94755e-06
-9.40296e-06
-9.97698e-06
-1.07691e-05
-1.18489e-05
-1.33277e-05
-1.4957e-05
-1.67417e-05
-1.85116e-05
-4.04143e-07
-1.96571e-05
)
;
    }
}


// ************************************************************************* //
