/*--------------------------------*- C++ -*----------------------------------*\
| =========                 |                                                 |
| \\      /  F ield         | OpenFOAM: The Open Source CFD Toolbox           |
|  \\    /   O peration     | Version:  2.4.0                                 |
|   \\  /    A nd           | Web:      www.OpenFOAM.org                      |
|    \\/     M anipulation  |                                                 |
\*---------------------------------------------------------------------------*/
FoamFile
{
    version     2.0;
    format      ascii;
    class       surfaceScalarField;
    location    "0.6";
    object      phi.mercury;
}
// * * * * * * * * * * * * * * * * * * * * * * * * * * * * * * * * * * * * * //

dimensions      [0 3 -1 0 0 0 0];

internalField   nonuniform List<scalar> 
1101
(
2.2852e-06
-2.2852e-06
4.82711e-06
-2.54191e-06
6.43082e-06
-1.60371e-06
9.24192e-06
-2.8111e-06
1.18094e-05
-2.56745e-06
1.349e-05
-1.68064e-06
1.54192e-05
-1.92921e-06
1.72626e-05
-1.84333e-06
1.97621e-05
-2.49952e-06
2.14965e-05
-1.73441e-06
2.19432e-05
-4.4669e-07
2.15401e-05
4.03056e-07
1.98429e-05
1.69726e-06
1.74015e-05
2.44138e-06
1.36749e-05
3.72656e-06
9.60259e-06
4.07234e-06
5.13407e-06
4.46851e-06
1.4684e-06
3.66567e-06
-1.33827e-06
2.80667e-06
-2.0213e-06
6.83023e-07
-1.33014e-06
-6.91163e-07
5.23032e-07
2.30596e-06
-4.59601e-06
4.76275e-06
-5.00456e-06
6.6288e-06
-3.47313e-06
9.25893e-06
-5.44892e-06
1.16756e-05
-4.99167e-06
1.35849e-05
-3.59549e-06
1.56837e-05
-4.03555e-06
1.76734e-05
-3.8406e-06
2.00655e-05
-4.90018e-06
2.1591e-05
-3.2632e-06
2.19914e-05
-8.47832e-07
2.15538e-05
8.40645e-07
2.0234e-05
3.01698e-06
1.7819e-05
4.85638e-06
1.39647e-05
7.5809e-06
9.6509e-06
8.38613e-06
5.40337e-06
8.71605e-06
1.60919e-06
7.45985e-06
-8.30253e-07
5.24612e-06
-1.72401e-06
1.57678e-06
-1.37798e-06
-1.0372e-06
6.36525e-07
2.31241e-06
-8.57625e-06
4.49854e-06
-8.95186e-06
6.98621e-06
-7.54934e-06
9.09098e-06
-9.47824e-06
1.12467e-05
-9.15817e-06
1.3662e-05
-7.99803e-06
1.58883e-05
-8.48521e-06
1.80458e-05
-8.24385e-06
1.94308e-05
-8.59079e-06
2.03062e-05
-5.91963e-06
2.17308e-05
-3.54705e-06
2.31504e-05
-1.13183e-06
2.24965e-05
3.5935e-06
1.98701e-05
7.48034e-06
1.48164e-05
1.26346e-05
9.21925e-06
1.39833e-05
4.0842e-06
1.38511e-05
3.04096e-07
1.124e-05
-1.63837e-06
7.18859e-06
-1.37966e-06
1.31807e-06
-1.68359e-07
-2.24851e-06
-4.10678e-07
2.29638e-06
-3.33672e-05
4.19053e-06
-3.37584e-05
7.23921e-06
-3.29783e-05
8.7585e-06
-3.44919e-05
1.0829e-05
-3.49078e-05
1.37148e-05
-3.48472e-05
1.59096e-05
-3.5925e-05
1.79433e-05
-3.58418e-05
1.90203e-05
-3.61533e-05
2.05835e-05
-3.35016e-05
2.25484e-05
-3.10031e-05
2.26355e-05
-2.54794e-05
2.06824e-05
-1.37738e-05
1.78093e-05
6.49059e-08
1.37796e-05
1.55163e-05
8.75044e-06
1.89795e-05
4.11517e-06
1.84862e-05
5.02252e-07
1.48529e-05
-1.53385e-06
9.22469e-06
-1.89425e-06
1.67847e-06
-6.21869e-07
-3.52089e-06
-1.79622e-06
1.8558e-06
-4.00552e-05
3.50199e-06
-3.92817e-05
6.2978e-06
-3.98659e-05
7.73679e-06
-3.83541e-05
9.01297e-06
-3.82555e-05
1.18379e-05
-3.77347e-05
1.41906e-05
-3.59946e-05
1.55963e-05
-3.4881e-05
1.68732e-05
-3.33982e-05
1.90953e-05
-3.24652e-05
2.09649e-05
-3.23164e-05
2.19917e-05
-3.00259e-05
2.32599e-05
-3.77796e-05
1.94281e-05
-2.25822e-05
1.21845e-05
1.33346e-06
6.97572e-06
2.0645e-05
2.92845e-06
2.24793e-05
1.1111e-08
1.77698e-05
-1.43731e-06
1.06731e-05
-2.32643e-06
2.56758e-06
-1.73413e-06
-4.11319e-06
-3.95785e-06
-1.68287e-08
-1.80971e-05
-2.55666e-07
-1.77028e-05
-3.21144e-07
-1.86564e-05
2.16339e-07
-1.74523e-05
7.02001e-07
-1.73667e-05
1.51877e-06
-1.86388e-05
2.65681e-06
-1.75468e-05
3.38591e-06
-1.60595e-05
4.27091e-06
-1.54445e-05
4.98529e-06
-1.46425e-05
5.68472e-06
-1.25957e-05
1.01308e-05
-1.00476e-05
1.95465e-05
-2.13089e-05
1.93357e-05
-2.76086e-05
1.1041e-05
-1.22124e-05
2.0775e-06
1.12982e-05
-7.07963e-07
2.36599e-05
-2.00422e-06
1.90442e-05
-1.9565e-06
1.06247e-05
-2.96053e-06
3.57154e-06
-3.35957e-06
-3.71416e-06
-6.17184e-06
-9.00245e-07
-1.32255e-05
-1.52997e-06
-1.34009e-05
-1.92108e-06
-1.47985e-05
-1.86735e-06
-1.43183e-05
-1.14151e-06
-1.50583e-05
9.34203e-08
-1.7251e-05
8.66775e-07
-1.56393e-05
1.57519e-06
-1.40526e-05
1.73148e-06
-1.28175e-05
1.24775e-06
-1.14153e-05
-3.11722e-07
-8.4505e-06
-2.42981e-06
-5.77136e-06
4.04414e-06
-2.54533e-06
1.24155e-05
-1.25491e-05
1.01038e-05
-1.39966e-05
-2.54695e-06
4.73952e-06
-7.37444e-06
1.68849e-05
-5.33675e-06
1.67217e-05
-3.61933e-06
8.90275e-06
-3.67237e-06
3.62441e-06
-4.18114e-06
-3.2054e-06
-8.42873e-06
-1.1334e-06
-1.23793e-05
-1.88255e-06
-1.28136e-05
-2.34433e-06
-1.42362e-05
-2.25553e-06
-1.42873e-05
-1.70542e-06
-1.50886e-05
-2.21192e-07
-1.77941e-05
9.53672e-07
-1.59426e-05
1.85117e-06
-1.38672e-05
2.25211e-06
-1.21756e-05
2.38064e-06
-1.0628e-05
2.078e-06
-7.39554e-06
1.69915e-06
-4.71739e-06
-3.31532e-06
3.07008e-06
-5.37702e-06
1.2426e-05
-8.45525e-06
-3.52399e-07
-1.34658e-05
-2.31189e-06
-1.68255e-05
7.37643e-06
-1.49582e-05
9.40008e-06
-9.68229e-06
3.39369e-06
-6.17004e-06
3.1077e-08
-4.78813e-06
-4.75195e-06
-1.16237e-05
-1.85162e-06
-1.07893e-05
-3.31622e-06
-1.13404e-05
-4.44241e-06
-1.25149e-05
-3.62507e-06
-1.38423e-05
-2.14066e-06
-1.49317e-05
2.93407e-07
-1.79096e-05
3.24043e-06
-1.64141e-05
4.83736e-06
-1.36721e-05
3.08983e-06
-9.40928e-06
-1.12223e-06
-6.1533e-06
-5.13432e-06
-4.04547e-06
-7.00958e-06
-4.26646e-06
-5.40334e-06
-2.01606e-06
-4.91213e-06
6.87207e-06
-1.02889e-05
1.63275e-05
-2.07869e-05
-1.19565e-06
-2.9984e-05
-3.84234e-06
-3.86736e-05
-3.81728e-06
-4.05304e-05
-1.40735e-05
-3.12725e-05
-2.06096e-05
-1.37151e-05
-3.08934e-05
-3.59815e-05
-3.1055e-06
-3.5864e-06
-5.4092e-06
-5.27866e-06
-6.13324e-06
-8.76102e-06
-4.98486e-06
-1.25662e-05
-2.6835e-06
-1.55719e-05
2.67967e-06
-2.27396e-05
8.05077e-06
-2.1287e-05
1.12197e-05
-1.57832e-05
1.25423e-05
-8.86579e-06
1.3517e-05
-4.36237e-06
1.25802e-05
1.01941e-06
1.04511e-05
3.01751e-06
5.28777e-06
1.02212e-05
2.70773e-06
1.74036e-05
1.43822e-06
2.10397e-05
-2.68128e-06
1.38828e-05
-5.58049e-06
-6.9952e-06
-8.29442e-06
-1.73241e-05
-7.31775e-06
-2.26177e-05
-4.58831e-06
-4.33634e-05
1.05343e-07
-6.43242e-05
-6.93203e-05
-3.44014e-06
-3.8114e-07
-7.56951e-06
-1.46504e-06
-1.01374e-05
-6.59501e-06
-9.35882e-06
-1.38001e-05
-6.47709e-06
-1.87766e-05
2.25091e-06
-3.16141e-05
8.51251e-06
-2.81695e-05
8.86812e-06
-1.73563e-05
6.19029e-06
-7.37561e-06
2.5426e-06
-1.85869e-06
2.27188e-06
4.9873e-07
3.72027e-06
1.19534e-06
8.33245e-06
5.78988e-06
1.4548e-05
1.1874e-05
1.96144e-05
1.74494e-05
1.97897e-05
1.8106e-05
2.74459e-05
4.17196e-06
3.58395e-05
-2.85447e-05
4.50776e-05
-2.96591e-05
6.15978e-05
-4.21456e-05
7.54705e-05
-5.56746e-05
-6.45567e-05
-9.67074e-06
-2.58261e-06
-1.69394e-05
-4.95283e-06
-1.74074e-05
-1.42729e-05
-1.35057e-05
-2.50927e-05
-1.49457e-05
-2.92314e-05
-1.18839e-05
-4.10318e-05
-1.16101e-05
-3.29738e-05
-1.31328e-05
-2.04503e-05
-1.3066e-05
-1.20217e-05
-9.96946e-06
-9.36801e-06
-6.77147e-06
-7.11115e-06
-4.10973e-06
-5.27763e-06
3.45148e-07
-1.37825e-06
5.67283e-06
5.37755e-06
1.44149e-05
8.62237e-06
2.13973e-05
8.82426e-06
2.88578e-05
8.66114e-06
4.89242e-05
-9.05444e-06
6.36593e-05
-1.17876e-05
7.69123e-05
-2.30002e-05
8.66281e-05
-3.89062e-05
-5.33403e-05
-1.69492e-06
-5.18228e-05
-5.08938e-06
-5.87521e-05
-1.73476e-05
-7.28571e-05
-4.12159e-05
-8.12285e-05
-6.59095e-05
-9.00037e-05
-9.42202e-05
-0.000116815
-0.000110603
-9.20349e-05
-0.000108101
-7.39874e-05
-9.70385e-05
-6.18161e-05
-7.99529e-05
-5.14307e-05
-6.29392e-05
-3.78728e-05
-4.31369e-05
-3.23447e-05
-2.3112e-05
-2.53164e-05
-8.755e-06
-1.30969e-05
4.51808e-06
-8.61943e-06
1.49277e-05
-5.11738e-06
2.80667e-05
-5.95096e-06
4.0652e-05
-1.57001e-05
5.05425e-05
-1.96783e-05
6.41465e-05
-2.91068e-05
7.23123e-05
-3.28985e-05
-4.17111e-05
1.04514e-05
-5.33242e-05
6.46353e-06
-5.46333e-05
-1.21901e-05
-4.54737e-05
-5.15028e-05
-3.98539e-05
-0.000108157
-3.56791e-05
-0.000128167
-6.71972e-05
-0.000130081
-6.63591e-05
-0.000130181
-6.75963e-05
-0.000127293
-7.58997e-05
-0.000112458
-0.000127721
-0.000101482
-0.000108436
-8.93396e-05
-9.84798e-05
-7.8501e-05
-8.59384e-05
-6.33998e-05
-6.90096e-05
-4.55613e-05
-5.88402e-05
-2.63376e-05
-4.97041e-05
-6.84297e-06
-5.21263e-05
1.11338e-05
-5.71659e-05
2.86826e-05
-6.14922e-05
3.47034e-05
-7.54312e-05
3.89638e-05
-8.44405e-05
-0.000100103
-2.55684e-05
1.80999e-06
-2.93898e-05
2.29107e-05
-1.60404e-05
3.33276e-05
1.21311e-05
3.58164e-05
9.62035e-05
-1.46256e-05
0.000137845
-5.17862e-05
0.000107173
1.28961e-05
3.31433e-05
6.0893e-05
-3.88904e-05
5.57768e-05
-8.67476e-05
7.21378e-06
-9.79198e-05
-2.96492e-05
-8.96663e-05
-5.91759e-05
-8.13498e-05
-6.71514e-05
-7.60194e-05
-9.56734e-05
-6.96732e-05
-7.88172e-05
-5.60076e-05
-0.000126824
-4.12484e-05
-0.000138913
-2.98144e-05
-0.00014078
-2.01861e-05
-0.000150487
-1.27016e-05
-0.00013529
-5.02282e-06
-7.86222e-05
-7.30211e-05
-6.12894e-05
6.31124e-05
-5.19963e-05
1.41257e-05
-1.30364e-05
-5.03198e-06
3.00602e-05
-5.74391e-06
5.34152e-05
-3.74739e-05
5.53466e-05
-5.37169e-05
3.91739e-05
2.90726e-05
6.73152e-06
9.33501e-05
-9.44718e-07
6.34866e-05
2.02008e-05
-1.01585e-05
4.5671e-05
-3.43138e-05
5.67548e-05
-5.49011e-05
6.95087e-05
-6.01761e-05
5.46033e-05
-2.06952e-05
4.75939e-05
-1.24589e-05
2.31517e-05
-1.54334e-05
1.06837e-05
-3.61658e-05
6.21524e-06
-4.90872e-05
-1.5421e-05
-3.92103e-05
-4.50645e-05
-8.44081e-06
-4.1316e-05
-3.9067e-05
-6.32852e-05
7.35156e-06
5.57637e-05
1.45453e-05
6.93268e-06
2.39839e-05
-1.4472e-05
3.68684e-05
-1.86312e-05
3.14848e-05
-3.20932e-05
2.30491e-05
-4.5284e-05
2.67746e-05
2.53452e-05
4.46428e-05
7.54795e-05
5.94243e-05
4.87029e-05
1.50765e-05
3.41862e-05
-1.57768e-05
-3.46332e-06
-2.13671e-05
-4.9315e-05
-3.00194e-05
-5.15294e-05
-1.13943e-05
-3.93261e-05
1.82915e-05
-4.21391e-05
4.90612e-05
-4.54407e-05
6.41728e-05
-4.74763e-05
6.45864e-05
-4.33493e-05
6.6582e-05
-3.35383e-05
9.05005e-05
-3.18979e-05
9.00348e-05
-3.86084e-05
7.58941e-05
-4.91532e-05
-5.95201e-05
1.54196e-05
4.03465e-05
6.84168e-06
1.55118e-05
1.66378e-06
-9.29475e-06
3.46031e-06
-2.04294e-05
-3.4105e-07
-2.82939e-05
-8.44991e-06
-3.71769e-05
1.57517e-05
1.14181e-06
5.34205e-05
3.7809e-05
6.476e-05
3.73609e-05
7.63372e-05
2.26062e-05
6.90972e-05
3.77364e-06
4.54799e-05
-2.57006e-05
3.75007e-05
-4.35546e-05
4.04589e-05
-4.22898e-05
3.82982e-05
-3.99829e-05
3.61096e-05
-4.32521e-05
3.64594e-05
-4.78251e-05
4.12751e-05
-4.81647e-05
5.07995e-05
-4.30634e-05
5.09035e-05
-3.20035e-05
4.27286e-05
-3.04389e-05
3.08384e-05
-3.72671e-05
-4.67202e-05
1.3312e-05
2.70375e-05
2.17189e-05
7.10621e-06
2.07163e-05
-8.29201e-06
1.44291e-05
-1.4143e-05
4.45746e-06
-1.83236e-05
-1.03326e-05
-2.23881e-05
2.81557e-07
-9.47367e-06
3.60046e-05
2.08446e-06
5.633e-05
1.70335e-05
6.16101e-05
1.73237e-05
5.5092e-05
1.02894e-05
4.14248e-05
-1.20362e-05
3.02082e-05
-3.23414e-05
2.7298e-05
-3.93842e-05
3.03878e-05
-4.30752e-05
3.22934e-05
-4.516e-05
3.01313e-05
-4.56629e-05
2.55243e-05
-4.35582e-05
2.09977e-05
-3.8537e-05
2.29491e-05
-3.39552e-05
2.46872e-05
-3.21797e-05
2.09128e-05
-3.3498e-05
-3.54093e-05
1.03051e-05
1.67342e-05
1.15164e-05
5.89614e-06
8.86451e-06
-5.63984e-06
6.58309e-06
-1.1862e-05
3.07486e-06
-1.48161e-05
-3.09766e-06
-1.62165e-05
-2.52249e-06
-1.00497e-05
6.78273e-06
-7.222e-06
2.22762e-05
1.53839e-06
3.06797e-05
8.91824e-06
3.59907e-05
4.97632e-06
3.51541e-05
-1.12015e-05
2.77039e-05
-2.48941e-05
2.07818e-05
-3.24654e-05
1.48058e-05
-3.71032e-05
9.50769e-06
-3.98639e-05
5.12433e-06
-4.12806e-05
2.27752e-06
-4.07107e-05
1.51602e-06
-3.77746e-05
1.80497e-06
-3.42425e-05
1.08487e-06
-3.14614e-05
-2.38284e-06
-3.00313e-05
-2.90373e-05
7.11847e-06
9.61783e-06
1.30177e-05
-1.90824e-09
1.26509e-05
-5.27269e-06
9.29412e-06
-8.50545e-06
5.13868e-06
-1.06612e-05
-8.7992e-08
-1.09905e-05
-1.89066e-06
-8.24777e-06
-2.35791e-06
-6.75578e-06
3.7309e-06
-4.55174e-06
1.23166e-05
3.30916e-07
1.91966e-05
-1.90529e-06
1.92545e-05
-1.1261e-05
1.48503e-05
-2.04923e-05
1.07439e-05
-2.83619e-05
7.06038e-06
-3.34231e-05
3.27884e-06
-3.6084e-05
-6.73725e-07
-3.73282e-05
-4.3367e-06
-3.70464e-05
-7.6114e-06
-3.44979e-05
-1.03516e-05
-3.15001e-05
-1.26498e-05
-2.91628e-05
-1.52197e-05
-2.74639e-05
-2.62502e-05
5.20316e-06
4.41541e-06
7.47993e-06
-2.27802e-06
8.04301e-06
-5.8356e-06
7.04154e-06
-7.50419e-06
4.97591e-06
-8.59606e-06
2.65729e-06
-8.67245e-06
2.10572e-06
-7.69692e-06
2.15656e-06
-6.80746e-06
4.06821e-06
-6.46451e-06
8.72414e-06
-4.32636e-06
1.27047e-05
-5.88716e-06
1.2057e-05
-1.0615e-05
9.27304e-06
-1.77101e-05
5.22328e-06
-2.43148e-05
1.22943e-06
-2.94311e-05
-2.31429e-06
-3.25415e-05
-5.94672e-06
-3.36949e-05
-9.32979e-06
-3.36596e-05
-1.19133e-05
-3.19121e-05
-1.33783e-05
-3.00293e-05
-1.42707e-05
-2.82707e-05
-1.53546e-05
-2.63791e-05
-2.48012e-05
3.1382e-06
1.27841e-06
4.8965e-06
-4.03581e-06
4.83594e-06
-5.77499e-06
4.30218e-06
-6.97072e-06
3.55571e-06
-7.85008e-06
2.84324e-06
-7.96058e-06
3.00427e-06
-7.85864e-06
3.80407e-06
-7.60808e-06
5.13352e-06
-7.79493e-06
7.59848e-06
-6.79241e-06
9.87738e-06
-8.16725e-06
1.03433e-05
-1.10822e-05
8.57822e-06
-1.59466e-05
5.01993e-06
-2.07583e-05
9.20347e-07
-2.53333e-05
-2.61047e-06
-2.90103e-05
-5.60223e-06
-3.0699e-05
-8.33473e-06
-3.09258e-05
-1.08463e-05
-2.93921e-05
-1.30767e-05
-2.7798e-05
-1.47469e-05
-2.6595e-05
-1.60494e-05
-2.50761e-05
-2.33663e-05
1.88966e-06
-6.11466e-07
2.8908e-06
-5.03701e-06
3.14588e-06
-6.03029e-06
3.14546e-06
-6.97074e-06
3.01648e-06
-7.72168e-06
3.13848e-06
-8.08324e-06
3.64218e-06
-8.36303e-06
4.44006e-06
-8.40674e-06
5.437e-06
-8.79274e-06
7.19973e-06
-8.5561e-06
8.73098e-06
-9.69953e-06
9.58386e-06
-1.19361e-05
9.17803e-06
-1.55421e-05
7.40274e-06
-1.89846e-05
4.52025e-06
-2.24507e-05
8.76904e-07
-2.53679e-05
-2.59573e-06
-2.72271e-05
-5.76109e-06
-2.77541e-05
-8.66135e-06
-2.64945e-05
-1.16385e-05
-2.4813e-05
-1.39831e-05
-2.42511e-05
-1.53787e-05
-2.3679e-05
-2.22694e-05
1.2059e-06
-1.81668e-06
1.98097e-06
-5.81208e-06
2.45158e-06
-6.50125e-06
2.69104e-06
-7.21071e-06
2.82633e-06
-7.8576e-06
3.11226e-06
-8.36984e-06
3.52826e-06
-8.77974e-06
4.21977e-06
-9.09899e-06
5.01272e-06
-9.58647e-06
6.35022e-06
-9.8944e-06
7.5766e-06
-1.09268e-05
8.49576e-06
-1.28562e-05
8.35244e-06
-1.54e-05
7.17144e-06
-1.78039e-05
5.11288e-06
-2.03973e-05
2.16614e-06
-2.24208e-05
-1.33752e-06
-4.89296e-06
-7.77661e-06
-1.06432e-05
-1.33675e-05
-1.51871e-05
8.76665e-07
1.58011e-06
2.09325e-06
2.42764e-06
2.58954e-06
2.71797e-06
2.87972e-06
3.17723e-06
3.56072e-06
4.42754e-06
5.34083e-06
5.80204e-06
5.34738e-06
4.26954e-06
2.36981e-06
)
;

boundaryField
{
    leftWall
    {
        type            fixedValue;
        value           uniform 0;
    }
    rightWall
    {
        type            fixedValue;
        value           nonuniform 0();
    }
    lowerWall
    {
        type            fixedValue;
        value           uniform 0;
    }
    atmosphere
    {
        type            calculated;
        value           nonuniform 0();
    }
    defaultFaces
    {
        type            empty;
        value           nonuniform 0();
    }
    procBoundary0to1
    {
        type            processor;
        value           nonuniform List<scalar> 
26
(
-1.85317e-06
-1.49147e-06
8.78842e-07
7.63675e-07
4.27494e-07
-1.14557e-06
-1.92426e-06
-1.82319e-06
6.70911e-07
6.29157e-06
8.56154e-05
9.55227e-05
7.81813e-05
4.28553e-05
-1.87918e-06
-3.29555e-05
7.72677e-05
5.81285e-05
1.80189e-05
9.5867e-06
-8.77135e-06
-1.8019e-05
-1.68161e-05
-1.74943e-05
-1.64834e-05
-1.6359e-05
)
;
    }
    procBoundary0to2
    {
        type            processor;
        value           nonuniform List<scalar> 
24
(
-2.37257e-05
-2.42054e-05
-2.3607e-05
-2.19517e-05
-2.15242e-05
-2.18585e-05
-2.11071e-05
-2.69502e-06
-6.5163e-06
-7.01498e-06
-7.54572e-06
-8.02013e-06
-8.49892e-06
-8.94211e-06
-9.39713e-06
-9.97059e-06
-1.07619e-05
-1.18407e-05
-1.33183e-05
-1.4946e-05
-1.67292e-05
-1.84946e-05
-4.1877e-07
-1.96405e-05
)
;
    }
}


// ************************************************************************* //
