/*--------------------------------*- C++ -*----------------------------------*\
| =========                 |                                                 |
| \\      /  F ield         | OpenFOAM: The Open Source CFD Toolbox           |
|  \\    /   O peration     | Version:  2.4.0                                 |
|   \\  /    A nd           | Web:      www.OpenFOAM.org                      |
|    \\/     M anipulation  |                                                 |
\*---------------------------------------------------------------------------*/
FoamFile
{
    version     2.0;
    format      ascii;
    class       surfaceScalarField;
    location    "0.6";
    object      phi.water;
}
// * * * * * * * * * * * * * * * * * * * * * * * * * * * * * * * * * * * * * //

dimensions      [0 3 -1 0 0 0 0];

internalField   nonuniform List<scalar> 
1101
(
2.28521e-06
-2.26339e-06
4.82712e-06
-2.51468e-06
6.43087e-06
-1.58965e-06
9.24197e-06
-2.77377e-06
1.18094e-05
-2.53479e-06
1.349e-05
-1.66032e-06
1.54193e-05
-1.90028e-06
1.72625e-05
-1.81143e-06
1.97619e-05
-2.45613e-06
2.14962e-05
-1.70694e-06
2.19429e-05
-4.34163e-07
2.15398e-05
4.14671e-07
1.98426e-05
1.71116e-06
1.74011e-05
2.45589e-06
1.36743e-05
3.7393e-06
9.60189e-06
4.0834e-06
5.1333e-06
4.47702e-06
1.46763e-06
3.67167e-06
-1.339e-06
2.81054e-06
-2.02189e-06
6.86063e-07
-1.33048e-06
-6.88874e-07
5.23994e-07
2.30617e-06
1.14649e-05
4.76257e-06
1.22773e-05
6.62898e-06
1.03542e-05
9.25903e-06
1.37453e-05
1.16755e-05
1.40027e-05
1.3585e-05
1.2968e-05
1.56838e-05
1.45428e-05
1.76734e-05
1.46477e-05
2.00645e-05
1.45693e-05
2.15898e-05
1.00317e-05
2.19908e-05
6.37124e-06
2.15528e-05
3.70679e-06
2.02318e-05
3.92434e-06
1.7816e-05
5.14621e-06
1.39615e-05
7.75339e-06
9.64828e-06
8.45644e-06
5.40131e-06
8.74104e-06
1.60779e-06
7.47509e-06
-8.3131e-07
5.25652e-06
-1.72475e-06
1.58426e-06
-1.37836e-06
-1.0315e-06
6.38808e-07
2.35955e-06
2.76065e-05
4.42905e-06
2.78145e-05
7.07202e-06
2.80692e-05
9.17121e-06
2.82076e-05
1.12281e-05
2.87053e-05
1.36955e-05
2.9545e-05
1.58681e-05
3.04355e-05
1.7888e-05
3.09432e-05
1.86913e-05
3.13172e-05
1.94989e-05
3.22447e-05
2.11605e-05
3.28405e-05
2.29529e-05
3.17318e-05
2.2398e-05
2.88995e-05
1.98215e-05
1.93098e-05
1.47767e-05
1.41869e-05
9.20767e-06
1.42039e-05
4.07934e-06
1.39266e-05
3.01653e-07
1.13145e-05
-1.64004e-06
7.2358e-06
-1.38069e-06
1.36648e-06
-1.68861e-07
-2.2187e-06
-3.99395e-07
2.35876e-06
1.98733e-05
4.15414e-06
1.99828e-05
7.36755e-06
1.99383e-05
8.81023e-06
1.98372e-05
1.08882e-05
1.9387e-05
1.38317e-05
1.95342e-05
1.58815e-05
2.01941e-05
1.78585e-05
2.07544e-05
1.87122e-05
2.19908e-05
2.01101e-05
2.47381e-05
2.16143e-05
2.79249e-05
2.04729e-05
3.5027e-05
1.64531e-05
4.5789e-05
1.55115e-05
5.14021e-05
1.35923e-05
4.30929e-05
8.71393e-06
3.67072e-05
4.09798e-06
2.20853e-05
4.90359e-07
1.51187e-05
-1.54183e-06
9.35839e-06
-1.89896e-06
1.82646e-06
-6.24052e-07
-3.44107e-06
-1.76509e-06
1.74262e-06
-8.01735e-06
3.11922e-06
-7.7054e-06
6.01922e-06
-9.0769e-06
7.09589e-06
-7.64988e-06
8.1531e-06
-7.87842e-06
1.10648e-05
-9.66468e-06
1.2902e-05
-8.48672e-06
1.40505e-05
-7.39214e-06
1.49866e-05
-6.66336e-06
1.70122e-05
-5.95292e-06
1.85669e-05
-3.60656e-06
1.89756e-05
1.92253e-06
2.05636e-05
1.25895e-05
1.29569e-05
3.15375e-05
5.62794e-06
5.46546e-05
1.82024e-06
5.97063e-05
2.18841e-06
4.11244e-05
-2.26745e-08
2.25674e-05
-1.45453e-06
1.17586e-05
-2.33521e-06
3.13923e-06
-1.73849e-06
-3.90177e-06
-3.87925e-06
-4.17009e-07
-1.05517e-05
-4.12208e-07
-1.04995e-05
-7.15058e-07
-1.15985e-05
-1.677e-07
-1.07378e-05
3.29828e-07
-1.07951e-05
1.08337e-06
-1.25396e-05
2.15313e-06
-1.14005e-05
2.8239e-06
-9.86277e-06
3.71795e-06
-9.21117e-06
4.33221e-06
-8.39671e-06
4.83769e-06
-6.42481e-06
7.48135e-06
-4.13585e-06
1.0317e-05
5.91939e-07
9.26393e-06
1.4708e-05
1.8811e-06
3.32535e-05
-6.54675e-06
5.36669e-05
-5.22114e-06
5.25862e-05
-2.76278e-06
3.83033e-05
-2.07875e-06
1.74716e-05
-2.98236e-06
6.63771e-06
-3.36796e-06
-2.79908e-06
-5.91901e-06
-8.69861e-07
-9.68199e-06
-1.49157e-06
-9.87787e-06
-1.85196e-06
-1.12382e-05
-1.81141e-06
-1.07784e-05
-1.09805e-06
-1.15086e-05
1.38654e-07
-1.37764e-05
8.62208e-07
-1.21241e-05
1.51853e-06
-1.05191e-05
1.61234e-06
-9.30502e-06
1.07112e-06
-7.85553e-06
-6.0356e-07
-4.75018e-06
-2.88937e-06
-1.85007e-06
-3.61665e-06
1.29535e-06
-1.83384e-07
1.04336e-05
-3.13865e-06
2.77285e-05
-1.68356e-05
4.34975e-05
-1.37316e-05
5.20467e-05
-8.08775e-06
4.21296e-05
-4.39536e-06
2.15463e-05
-3.81083e-06
7.10748e-06
-4.20758e-06
-2.86063e-06
-8.3267e-06
-1.12946e-06
-8.55253e-06
-1.86992e-06
-9.1374e-06
-2.32247e-06
-1.07857e-05
-2.23268e-06
-1.08682e-05
-1.6776e-06
-1.20636e-05
-2.12172e-07
-1.52418e-05
9.25342e-07
-1.32616e-05
1.77607e-06
-1.13699e-05
2.11178e-06
-9.64073e-06
2.19935e-06
-7.94311e-06
1.84037e-06
-4.39121e-06
1.39123e-06
-1.40094e-06
-3.77761e-06
6.4642e-06
-1.02131e-05
1.68668e-05
-1.10626e-05
2.8236e-05
-1.74096e-05
4.346e-05
-2.54266e-05
4.44285e-05
-1.74359e-05
4.63062e-05
-1.0687e-05
2.94329e-05
-6.23954e-06
2.23965e-05
-4.79151e-06
1.80068e-05
1.19611e-05
-1.83785e-06
-6.71469e-06
-3.29298e-06
-7.68229e-06
-4.3868e-06
-9.69189e-06
-3.53535e-06
-1.17197e-05
-2.06582e-06
-1.35332e-05
3.58017e-07
-1.76659e-05
3.28182e-06
-1.61942e-05
4.77204e-06
-1.28888e-05
2.93153e-06
-7.82637e-06
-1.34091e-06
-3.69364e-06
-5.4898e-06
-2.55038e-07
-7.53945e-06
6.44037e-07
-6.19536e-06
5.11953e-06
-4.5876e-06
1.5259e-05
-2.42842e-06
2.60874e-05
-5.36366e-06
4.56638e-05
-2.87223e-05
5.34645e-05
-4.40593e-05
4.08063e-05
-4.46295e-05
3.63185e-05
-3.49476e-05
2.13068e-05
-1.47795e-05
4.67355e-06
2.16612e-06
-3.10535e-06
-3.60936e-06
-5.40267e-06
-5.38498e-06
-6.11814e-06
-8.97642e-06
-4.95552e-06
-1.28823e-05
-2.6448e-06
-1.58461e-05
2.72343e-06
-2.31409e-05
8.06179e-06
-2.19834e-05
1.12136e-05
-1.68951e-05
1.25261e-05
-9.98576e-06
1.34965e-05
-5.37857e-06
1.25266e-05
3.10424e-07
1.04468e-05
2.53585e-06
5.49886e-06
1.00458e-05
2.86361e-06
1.78958e-05
5.66734e-06
2.32845e-05
1.99833e-05
3.13193e-05
2.60992e-05
4.47603e-05
9.05253e-06
4.54192e-05
-4.46953e-06
2.27208e-05
-5.31961e-06
7.58139e-07
3.7962e-06
-1.58781e-05
-1.98099e-05
-3.44412e-06
-1.65239e-07
-7.5754e-06
-1.25371e-06
-1.01399e-05
-6.41928e-06
-9.35523e-06
-1.36922e-05
-6.46563e-06
-1.89484e-05
2.32059e-06
-3.34795e-05
8.60661e-06
-3.30285e-05
9.03129e-06
-2.35537e-05
6.37259e-06
-1.33687e-05
2.72165e-06
-7.76314e-06
2.39206e-06
-4.74193e-06
3.77428e-06
-3.07715e-06
8.31097e-06
3.28133e-06
1.45653e-05
1.08417e-05
2.0355e-05
1.73844e-05
3.18884e-05
1.97889e-05
5.33215e-05
2.32237e-05
7.74831e-05
1.87995e-05
8.4036e-05
9.79988e-06
8.23243e-05
-8.06746e-06
7.9018e-05
-2.57176e-05
-3.78272e-05
-9.67151e-06
-3.0159e-06
-1.69398e-05
-5.34511e-06
-1.74097e-05
-1.45691e-05
-1.3431e-05
-2.53739e-05
-1.39428e-05
-3.06875e-05
-1.04821e-05
-4.88185e-05
-1.00145e-05
-4.46292e-05
-1.16258e-05
-3.15578e-05
-1.18948e-05
-2.26504e-05
-8.77289e-06
-2.05502e-05
-5.6805e-06
-1.81593e-05
-3.39537e-06
-1.473e-05
7.35505e-07
-8.78576e-06
5.84232e-06
4.6609e-07
1.43971e-05
5.06747e-06
2.55285e-05
6.52852e-06
3.96104e-05
8.21646e-06
5.9822e-05
-2.12712e-06
7.43257e-05
-5.20477e-06
8.58275e-05
-2.007e-05
9.30806e-05
-3.4251e-05
-4.74549e-05
-1.69558e-06
-5.68698e-05
-5.09279e-06
-6.44282e-05
-1.72898e-05
-8.00304e-05
-3.99496e-05
-8.87969e-05
-6.18093e-05
-9.57922e-05
-9.37425e-05
-0.000158635
-0.000115953
-0.000140609
-0.000107481
-9.90305e-05
-9.28786e-05
-8.09295e-05
-7.52975e-05
-7.63851e-05
-5.81217e-05
-6.2988e-05
-3.92916e-05
-5.17966e-05
-2.03456e-05
-4.08425e-05
-7.20144e-06
-2.42794e-05
5.37216e-06
-1.66078e-05
1.52537e-05
-1.21236e-05
2.80613e-05
-1.14289e-05
4.04506e-05
-2.10759e-05
5.39777e-05
-2.37431e-05
6.57285e-05
-3.80753e-05
7.22933e-05
-4.80671e-05
-6.21374e-05
3.25504e-06
-6.40812e-05
4.03405e-07
-8.33837e-05
-8.73425e-06
-8.76511e-05
-1.94381e-05
-8.63276e-05
-3.49325e-05
-7.1723e-05
-8.38643e-05
-8.80592e-05
-0.000122068
-0.000108733
-0.000125461
-6.91278e-05
-0.00011544
-5.05268e-05
-0.000107046
-4.19894e-05
-0.000103882
-6.54139e-05
-9.54703e-05
-6.22412e-05
-8.43876e-05
-6.94975e-05
-6.36758e-05
-6.6945e-05
-4.19086e-05
-5.93379e-05
-2.21021e-05
-5.98029e-05
-4.95748e-06
-6.77878e-05
1.36451e-05
-7.21827e-05
3.07715e-05
-7.20495e-05
3.72586e-05
-8.09774e-05
4.40697e-05
-9.62868e-05
-0.000116466
-5.53946e-06
-3.60838e-05
-1.15567e-05
-5.49571e-05
-1.02734e-05
-4.66727e-05
-1.93889e-06
-5.22746e-05
3.67094e-05
-3.75436e-05
0.000137123
-5.3004e-05
9.82208e-05
1.20822e-05
3.37971e-05
5.57736e-05
-4.17975e-05
5.92757e-05
-8.33427e-05
2.58771e-05
-9.12397e-05
-1.76656e-05
-8.18876e-05
-5.09276e-05
-7.69165e-05
-5.91154e-05
-7.32526e-05
-8.21934e-05
-5.68091e-05
-6.16263e-05
-4.56139e-05
-5.88682e-05
-3.55132e-05
-5.60329e-05
-2.80535e-05
-6.42822e-05
-1.82783e-05
-6.50887e-05
-7.40389e-06
-5.60848e-05
1.87586e-06
-8.09179e-05
-7.55373e-05
-6.1304e-05
6.27251e-05
-5.19861e-05
1.44509e-05
-1.35804e-05
-4.72237e-06
2.99683e-05
-6.0201e-06
5.33974e-05
-3.74802e-05
5.54331e-05
-5.3716e-05
3.88456e-05
2.90141e-05
6.94464e-06
9.31076e-05
-9.8891e-07
6.31448e-05
2.02168e-05
-1.06819e-05
4.56319e-05
-3.45392e-05
5.67054e-05
-5.49441e-05
6.94464e-05
-6.01989e-05
5.44934e-05
-2.07224e-05
4.70306e-05
-1.22589e-05
2.13564e-05
-1.22585e-05
9.56505e-06
-2.44253e-05
5.2372e-06
-2.94561e-05
-1.29673e-05
-2.31048e-05
-4.37134e-05
1.77281e-06
-4.17181e-05
-3.41676e-05
-6.25241e-05
7.08386e-06
5.51679e-05
1.46517e-05
6.65505e-06
2.39154e-05
-1.49321e-05
3.68003e-05
-1.87896e-05
3.14858e-05
-3.21033e-05
2.30483e-05
-4.52879e-05
2.67225e-05
2.53374e-05
4.45236e-05
7.54723e-05
5.94092e-05
4.87304e-05
1.51426e-05
3.42245e-05
-1.57587e-05
-3.46659e-06
-2.13409e-05
-4.92733e-05
-3.00073e-05
-5.14692e-05
-1.13968e-05
-3.92977e-05
1.82896e-05
-4.21446e-05
4.90608e-05
-4.54457e-05
6.41727e-05
-4.74776e-05
6.45861e-05
-4.33493e-05
6.65816e-05
-3.35384e-05
9.05003e-05
-3.18981e-05
9.00348e-05
-3.86092e-05
7.58942e-05
-4.91549e-05
-5.95228e-05
1.52247e-05
3.99092e-05
6.95932e-06
1.53809e-05
1.66062e-06
-9.34116e-06
3.45454e-06
-2.04437e-05
-3.44069e-07
-2.82978e-05
-8.44901e-06
-3.71811e-05
1.58064e-05
1.14012e-06
5.34091e-05
3.78655e-05
6.4762e-05
3.73584e-05
7.63431e-05
2.25886e-05
6.90523e-05
3.76429e-06
4.54909e-05
-2.57335e-05
3.74967e-05
-4.35827e-05
4.04553e-05
-4.22843e-05
3.82984e-05
-3.99784e-05
3.61096e-05
-4.32534e-05
3.64594e-05
-4.78251e-05
4.12751e-05
-4.81646e-05
5.07995e-05
-4.30632e-05
5.09035e-05
-3.20033e-05
4.27286e-05
-3.04389e-05
3.08385e-05
-3.7267e-05
-4.67202e-05
1.31484e-05
2.67403e-05
2.16608e-05
6.81993e-06
2.0738e-05
-8.43293e-06
1.44349e-05
-1.41637e-05
4.45664e-06
-1.83271e-05
-1.03341e-05
-2.23908e-05
2.97161e-07
-9.47649e-06
3.60107e-05
2.08245e-06
5.63341e-05
1.70047e-05
6.16037e-05
1.72784e-05
5.50836e-05
1.02398e-05
4.14441e-05
-1.20877e-05
3.02255e-05
-3.24059e-05
2.72983e-05
-3.94069e-05
3.03879e-05
-4.30791e-05
3.22935e-05
-4.51617e-05
3.01314e-05
-4.56633e-05
2.55243e-05
-4.35583e-05
2.09977e-05
-3.8537e-05
2.29491e-05
-3.39552e-05
2.46872e-05
-3.21798e-05
2.09128e-05
-3.3498e-05
-3.54093e-05
1.02243e-05
1.67298e-05
1.15205e-05
5.92411e-06
8.86529e-06
-5.64198e-06
6.58319e-06
-1.18633e-05
3.07481e-06
-1.48171e-05
-3.09805e-06
-1.62175e-05
-2.52028e-06
-1.00516e-05
6.7958e-06
-7.22728e-06
2.23127e-05
1.54381e-06
3.06835e-05
8.91021e-06
3.59857e-05
4.98239e-06
3.51649e-05
-1.12008e-05
2.77099e-05
-2.48978e-05
2.07821e-05
-3.24656e-05
1.48059e-05
-3.71033e-05
9.50769e-06
-3.98639e-05
5.12433e-06
-4.12807e-05
2.27752e-06
-4.07107e-05
1.51602e-06
-3.77746e-05
1.80497e-06
-3.42426e-05
1.08487e-06
-3.14614e-05
-2.38284e-06
-3.00313e-05
-2.90373e-05
7.09732e-06
9.60222e-06
1.30141e-05
-1.05093e-08
1.26511e-05
-5.27358e-06
9.29412e-06
-8.50566e-06
5.13866e-06
-1.06614e-05
-8.79854e-08
-1.09907e-05
-1.89067e-06
-8.24793e-06
-2.3579e-06
-6.75596e-06
3.74492e-06
-4.552e-06
1.2313e-05
3.31607e-07
1.91955e-05
-1.90692e-06
1.92547e-05
-1.12619e-05
1.48503e-05
-2.04924e-05
1.0744e-05
-2.83619e-05
7.06039e-06
-3.34231e-05
3.27885e-06
-3.6084e-05
-6.73725e-07
-3.73282e-05
-4.3367e-06
-3.70464e-05
-7.6114e-06
-3.44979e-05
-1.03516e-05
-3.15001e-05
-1.26498e-05
-2.91628e-05
-1.52197e-05
-2.74639e-05
-2.62502e-05
5.20272e-06
4.41488e-06
7.47988e-06
-2.27825e-06
8.04301e-06
-5.83576e-06
7.04154e-06
-7.50428e-06
4.9759e-06
-8.59613e-06
2.65728e-06
-8.67252e-06
2.10572e-06
-7.69701e-06
2.15656e-06
-6.80755e-06
4.06821e-06
-6.46458e-06
8.72412e-06
-4.32643e-06
1.27047e-05
-5.88721e-06
1.2057e-05
-1.0615e-05
9.27305e-06
-1.77101e-05
5.22328e-06
-2.43148e-05
1.22943e-06
-2.94311e-05
-2.31429e-06
-3.25415e-05
-5.94672e-06
-3.36949e-05
-9.32979e-06
-3.36596e-05
-1.19133e-05
-3.19121e-05
-1.33783e-05
-3.00293e-05
-1.42707e-05
-2.82707e-05
-1.53546e-05
-2.63791e-05
-2.48012e-05
3.13819e-06
1.27832e-06
4.89649e-06
-4.0359e-06
4.83594e-06
-5.77505e-06
4.30218e-06
-6.97075e-06
3.55571e-06
-7.85011e-06
2.84323e-06
-7.9606e-06
3.00427e-06
-7.85867e-06
3.80407e-06
-7.60812e-06
5.13352e-06
-7.79497e-06
7.59848e-06
-6.79244e-06
9.87737e-06
-8.16727e-06
1.03433e-05
-1.10822e-05
8.57822e-06
-1.59466e-05
5.01993e-06
-2.07583e-05
9.20347e-07
-2.53333e-05
-2.61047e-06
-2.90103e-05
-5.60223e-06
-3.0699e-05
-8.33473e-06
-3.09258e-05
-1.08463e-05
-2.93921e-05
-1.30767e-05
-2.7798e-05
-1.47469e-05
-2.6595e-05
-1.60494e-05
-2.50761e-05
-2.33663e-05
1.88966e-06
-6.1149e-07
2.8908e-06
-5.03704e-06
3.14588e-06
-6.03031e-06
3.14546e-06
-6.97075e-06
3.01648e-06
-7.72169e-06
3.13848e-06
-8.08325e-06
3.64218e-06
-8.36304e-06
4.44006e-06
-8.40675e-06
5.437e-06
-8.79275e-06
7.19973e-06
-8.55611e-06
8.73098e-06
-9.69953e-06
9.58386e-06
-1.19361e-05
9.17803e-06
-1.55421e-05
7.40274e-06
-1.89846e-05
4.52025e-06
-2.24507e-05
8.76904e-07
-2.53679e-05
-2.59573e-06
-2.72271e-05
-5.76109e-06
-2.77541e-05
-8.66135e-06
-2.64945e-05
-1.16385e-05
-2.4813e-05
-1.39831e-05
-2.42511e-05
-1.53787e-05
-2.3679e-05
-2.22694e-05
1.2059e-06
-1.81668e-06
1.98097e-06
-5.81209e-06
2.45158e-06
-6.50125e-06
2.69104e-06
-7.21071e-06
2.82633e-06
-7.8576e-06
3.11226e-06
-8.36985e-06
3.52826e-06
-8.77974e-06
4.21977e-06
-9.09899e-06
5.01272e-06
-9.58647e-06
6.35022e-06
-9.8944e-06
7.5766e-06
-1.09268e-05
8.49576e-06
-1.28562e-05
8.35244e-06
-1.54e-05
7.17144e-06
-1.78039e-05
5.11288e-06
-2.03973e-05
2.16614e-06
-2.24208e-05
-1.33752e-06
-4.89296e-06
-7.77661e-06
-1.06432e-05
-1.33675e-05
-1.51871e-05
8.76665e-07
1.58011e-06
2.09325e-06
2.42764e-06
2.58954e-06
2.71797e-06
2.87972e-06
3.17723e-06
3.56072e-06
4.42754e-06
5.34083e-06
5.80204e-06
5.34738e-06
4.26954e-06
2.36981e-06
)
;

boundaryField
{
    leftWall
    {
        type            fixedValue;
        value           uniform 0;
    }
    rightWall
    {
        type            fixedValue;
        value           nonuniform 0();
    }
    lowerWall
    {
        type            fixedValue;
        value           uniform 0;
    }
    atmosphere
    {
        type            calculated;
        value           nonuniform 0();
    }
    defaultFaces
    {
        type            empty;
        value           nonuniform 0();
    }
    procBoundary0to1
    {
        type            processor;
        value           nonuniform List<scalar> 
26
(
-1.85331e-06
-1.4916e-06
8.78691e-07
7.63397e-07
4.26612e-07
-1.14881e-06
-1.93743e-06
-1.82413e-06
6.1075e-07
1.05712e-05
8.46522e-05
0.000100628
7.76143e-05
4.89807e-05
8.89203e-06
-3.30513e-05
7.73058e-05
5.8129e-05
1.80189e-05
9.58671e-06
-8.77135e-06
-1.8019e-05
-1.68161e-05
-1.74943e-05
-1.64834e-05
-1.6359e-05
)
;
    }
    procBoundary0to2
    {
        type            processor;
        value           nonuniform List<scalar> 
24
(
-2.37257e-05
-2.42054e-05
-2.3607e-05
-2.19517e-05
-2.15242e-05
-2.18585e-05
-2.11071e-05
-2.69502e-06
-6.5163e-06
-7.01498e-06
-7.54572e-06
-8.02013e-06
-8.49892e-06
-8.94211e-06
-9.39713e-06
-9.97059e-06
-1.07619e-05
-1.18407e-05
-1.33183e-05
-1.4946e-05
-1.67292e-05
-1.84946e-05
-4.1877e-07
-1.96405e-05
)
;
    }
}


// ************************************************************************* //
