/*--------------------------------*- C++ -*----------------------------------*\
| =========                 |                                                 |
| \\      /  F ield         | OpenFOAM: The Open Source CFD Toolbox           |
|  \\    /   O peration     | Version:  2.4.0                                 |
|   \\  /    A nd           | Web:      www.OpenFOAM.org                      |
|    \\/     M anipulation  |                                                 |
\*---------------------------------------------------------------------------*/
FoamFile
{
    version     2.0;
    format      ascii;
    class       volScalarField;
    location    "0.6";
    object      rho;
}
// * * * * * * * * * * * * * * * * * * * * * * * * * * * * * * * * * * * * * //

dimensions      [1 -3 0 0 0 0 0];

internalField   nonuniform List<scalar> 
575
(
13529
13529
13529
13529
13529
13529
13529
13529
13529
13529
13529
13529
13529
13529
13529
13529
13529
13529
13529
13529
13529
13529
13529
13529
13529
13529
13529
13529
13529
13529
13529
13529
13529
13529
13529
13529
13529
13529
13529
13529
13529
13529
13529
13529
13521.4
13520.5
13522.9
13519
13519
13520.6
13518.9
13518.8
13518
13522.8
13526.4
13528.3
13528.8
13529
13529
13529
13529
13529
13529
13529
13529
13529
12378.2
12333.1
12415.2
12254.3
12203.2
12207.3
12102.9
12098.2
12086.7
12363.8
12653.5
13108.2
13452.6
13523.9
13528.7
13529
13529
13529
13529
13529
13529
13529
3308.09
3213.23
3298.44
3073.15
2995.34
2893.56
2679.6
2640.55
2549.91
2729.06
3018.47
3675.91
5457.08
8517.5
12486.6
13482.4
13527.9
13529
13529
13529
13529
13529
1000.4
1000.37
1000.37
1000.32
1000.31
1000.27
1000.23
1000.21
1000.18
1000.18
1000.18
1000.18
1026.58
1449.77
4563.7
11457.9
13470.3
13527.3
13528.8
13528.9
13529
13529
1000.08
1000.08
1000.08
1000.08
1000.08
1000.07
1000.07
1000.08
1000.08
1000.08
1000.08
1000.08
1000.08
1001.84
1158.8
4771
12784.4
13515.8
13526.8
13528.5
13528.9
13529
1000.11
1000.1
1000.1
1000.1
1000.09
1000.07
1000.08
1000.07
1000.07
1000.07
1000.08
1000.08
1000.09
1000.09
1003.3
1745.23
9068.75
13437.8
13524.1
13528.3
13529
13529
1000.07
1000.07
1000.06
1000.06
1000.05
1000.04
1000.04
1000.03
1000.02
1000.03
1000.04
1000.05
1000.07
1000.09
1000.15
1049.92
2738.01
9467.57
13195.5
13386.8
13242.7
13144.8
1000.01
1000.01
1000.01
1000.01
1000.01
999.955
999.302
997.792
997.905
998.362
999.184
999.664
999.932
1000.01
1000.04
1000.36
1071.63
2087.14
4567.67
6820.02
7669.68
7224.08
1000
1000
1000
999.998
999.753
991.822
964.783
940.037
943.707
951.711
968.898
983.494
995.629
999.118
999.839
999.997
1001.15
1040.69
1157.29
1132.92
1118.81
1113.93
999.999
999.983
999.302
998.245
982.146
881.461
757.139
698.423
696.529
696.617
729.339
782.958
877.594
949.933
985.685
996.571
999.244
1000.92
1001.88
1000.43
995.812
984.136
750.624
763.673
805.861
819.959
700.737
579.725
518.095
494.799
495.622
501.982
517.436
535.253
554.257
628.967
719.283
832.085
924.621
930.389
946.425
912.403
864.908
810.957
25.2993
22.8055
17.1946
17.4135
13.0047
33.0528
72.1035
105.67
177.458
262.777
346.203
405.589
456.202
484.495
496.406
513.627
556.053
570.259
615.392
578.112
521.369
461.594
1.00161
1.0237
1.02407
1.04617
1.03496
1.00565
1.00105
1.00152
1.00205
1.06671
2.57913
14.1191
56.7548
126.92
181.258
218.576
234.87
240.329
233.989
153.931
106.716
43.6013
1.00005
1.0001
1.00015
1.00006
1.00003
1.00002
1.00004
1.00011
1.00005
1.00002
1.00002
1.00002
1.00002
1.00018
1.00235
1.01575
1.08912
1.2047
1.19352
1.00769
1.00053
1.00022
1.00005
1.00004
1.00003
1.00002
1.00001
1
1.00002
1.00009
1.00004
1.00002
1.00002
1.00002
1.00002
1.00002
1.00005
1.00006
1.00006
1.00006
1.00005
1.00003
1.00004
1.00003
1.00003
1.00006
1.00003
1.00002
1
1
1
1.00001
1.00004
1.00003
1.00002
1.00002
1.00003
1.00003
1.00005
1.00012
1.00018
1.00017
1.00015
1.0001
1.00004
1.00003
1.00003
1.00002
1.00005
1.00003
1.00001
1
0.999999
1
1
1.00001
1.00002
1.00003
1.00005
1.00005
1.00005
1.00015
1.00023
1.00029
1.00029
1.00024
1.00013
1.00005
1.00004
1.00003
1.00003
1.00004
1.00001
1
0.999999
0.999999
0.999999
1
1.00001
1.00002
1.00006
1.00007
1.00003
1.00003
1.00015
1.00022
1.00009
1.00002
1.00002
1.00003
1.00004
1.00005
1.00004
1.00003
1.00001
1
0.999999
0.999999
0.999999
0.999999
0.999999
1
1
1.00002
1.00001
1
1.00003
1.00004
1.00002
1.00002
1.00002
1.00001
1.00001
1.00001
1.00003
1.00002
1.00001
0.999999
0.999999
0.999999
0.999999
0.999999
0.999999
0.999999
1
1
1
1
1
1.00001
1.00001
1.00002
1.00004
1.00003
1.00002
1.00001
1.00001
1.00001
1
1
0.999999
0.999999
0.999999
0.999999
0.999999
0.999999
1
1
1
1
1
1
1.00001
1.00002
1.00005
1.00006
1.00004
1.00003
1.00001
1
1
1
1
0.999999
0.999999
0.999999
0.999999
0.999999
0.999999
1
1
1
1
1
1
1
1.00003
1.00006
1.00006
1.00005
1.00003
1.00001
1.00001
1
1
0.999999
0.999999
0.999999
0.999999
0.999999
0.999999
1
1
1
1
1
1
1
1
1.00003
1.00004
1.00006
1.00004
1.00002
1.00002
1.00001
1
1
0.999999
0.999999
0.999999
0.999999
0.999999
1
1
1
1
1
1
1
1
1
1.00001
1.00003
1.00002
)
;

boundaryField
{
    leftWall
    {
        type            calculated;
        value           nonuniform List<scalar> 
26
(
13529
13529
13521.4
12378.2
3308.09
1000.4
1000.08
1000.11
1000.07
1000.01
1000
999.999
750.624
25.2993
1.00161
1.00005
1.00005
1.00006
1.00005
1.00004
1.00001
0.999999
0.999999
0.999999
0.999999
0.999999
)
;
    }
    rightWall
    {
        type            calculated;
        value           nonuniform 0();
    }
    lowerWall
    {
        type            calculated;
        value           nonuniform List<scalar> 
22
(
13529
13529
13529
13529
13529
13529
13529
13529
13529
13529
13529
13529
13529
13529
13529
13529
13529
13529
13529
13529
13529
13529
)
;
    }
    atmosphere
    {
        type            calculated;
        value           nonuniform 0();
    }
    defaultFaces
    {
        type            empty;
    }
    procBoundary0to1
    {
        type            processor;
        value           nonuniform List<scalar> 
26
(
13528.9
13528.8
13528.8
13528.8
13528.8
13528.8
13528.8
13528.8
13203.2
7229.48
1140.45
960.025
746.463
368.309
8.49347
1.00008
1.00008
1.00002
1.00002
1.00003
1.00002
1.00001
1
1
0.999999
0.999998
)
;
    }
    procBoundary0to2
    {
        type            processor;
        value           nonuniform List<scalar> 
24
(
1.00003
1.00002
1.00001
1.00001
1
1
0.999999
0.999999
0.999999
0.999999
0.999999
1
1
1
1
1
1
1
1
1
1.00001
1.00001
1.00003
1.00002
)
;
    }
}


// ************************************************************************* //
