/*--------------------------------*- C++ -*----------------------------------*\
| =========                 |                                                 |
| \\      /  F ield         | OpenFOAM: The Open Source CFD Toolbox           |
|  \\    /   O peration     | Version:  2.4.0                                 |
|   \\  /    A nd           | Web:      www.OpenFOAM.org                      |
|    \\/     M anipulation  |                                                 |
\*---------------------------------------------------------------------------*/
FoamFile
{
    version     2.0;
    format      ascii;
    class       volVectorField;
    location    "0.6";
    object      U.mercury;
}
// * * * * * * * * * * * * * * * * * * * * * * * * * * * * * * * * * * * * * //

dimensions      [0 1 -1 0 0 0 0];

internalField   nonuniform List<vector> 
575
(
(0.0139825 -0.00604353 0)
(0.0391631 -0.0066314 0)
(0.0678698 -0.00418786 0)
(0.0834764 -0.00751914 0)
(0.123152 -0.00689769 0)
(0.147593 -0.00436092 0)
(0.162402 -0.00401235 0)
(0.184821 -0.00358533 0)
(0.20957 -0.00588587 0)
(0.238568 -0.0012592 0)
(0.24754 0.00830627 0)
(0.247865 0.0137265 0)
(0.236755 0.0127322 0)
(0.212633 0.00770058 0)
(0.182023 0.00337413 0)
(0.137408 -0.00757177 0)
(0.0913275 -0.00244354 0)
(0.0354171 -0.00680778 0)
(0.000318309 0.00641077 0)
(-0.0316834 -0.00495036 0)
(-0.015037 -0.000614361 0)
(-0.0151362 0.00314763 0)
(0.0146934 -0.021859 0)
(0.0378773 -0.0243134 0)
(0.0685119 -0.0168949 0)
(0.0865987 -0.026657 0)
(0.121409 -0.0248801 0)
(0.145946 -0.0184405 0)
(0.165072 -0.0221322 0)
(0.188375 -0.0220281 0)
(0.217037 -0.0279507 0)
(0.238086 -0.024944 0)
(0.247363 -0.0176933 0)
(0.247409 -0.0131137 0)
(0.239582 0.000867601 0)
(0.218757 0.0154974 0)
(0.184674 0.0376262 0)
(0.138727 0.0516706 0)
(0.08959 0.0489108 0)
(0.0423695 0.0418025 0)
(-0.00214222 0.0223068 0)
(-0.0176217 0.0111945 0)
(-0.0211282 -0.00650946 0)
(-0.0104689 0.00337028 0)
(0.0153404 -0.0152456 0)
(0.0361726 -0.0166081 0)
(0.0681728 -0.00907494 0)
(0.0913009 -0.0184651 0)
(0.114478 -0.0156438 0)
(0.144487 -0.00806116 0)
(0.165712 -0.00792549 0)
(0.193416 -0.0057369 0)
(0.216955 -0.0090464 0)
(0.225748 0.00490949 0)
(0.235903 0.0175818 0)
(0.256018 0.0300857 0)
(0.261692 0.0410063 0)
(0.245546 0.0417737 0)
(0.205067 0.0396431 0)
(0.143728 0.0382793 0)
(0.0746473 0.0490529 0)
(0.0276502 0.0463018 0)
(-0.0206999 0.0363881 0)
(-0.0176646 0.00763938 0)
(-0.0136688 -0.00482041 0)
(0.00953144 0.00147077 0)
(0.0164049 -0.105119 0)
(0.0337735 -0.10871 0)
(0.065669 -0.0988353 0)
(0.0950657 -0.113795 0)
(0.108452 -0.112821 0)
(0.140278 -0.10668 0)
(0.167962 -0.113942 0)
(0.196541 -0.113557 0)
(0.211693 -0.115168 0)
(0.221651 -0.0962551 0)
(0.242671 -0.0785501 0)
(0.259615 -0.0549541 0)
(0.249951 -0.0157302 0)
(0.224424 0.0427466 0)
(0.183635 0.114022 0)
(0.130787 0.117653 0)
(0.075031 0.0950049 0)
(0.0287504 0.0669482 0)
(-0.0163588 0.0388214 0)
(-0.0203307 0.00513148 0)
(-0.0230685 -0.0192211 0)
(0.00893076 -0.00508267 0)
(0.0137723 -0.271825 0)
(0.0273868 -0.270556 0)
(0.0548956 -0.272697 0)
(0.0853835 -0.270592 0)
(0.0935166 -0.274317 0)
(0.113136 -0.27596 0)
(0.152964 -0.274293 0)
(0.172579 -0.271268 0)
(0.182314 -0.267823 0)
(0.203999 -0.257004 0)
(0.229381 -0.248302 0)
(0.247318 -0.220316 0)
(0.255525 -0.156936 0)
(0.254175 -0.0534463 0)
(0.197952 0.0182675 0)
(0.111189 0.0921024 0)
(0.0562174 0.112997 0)
(0.0187111 0.0957236 0)
(-0.0185366 0.0595611 0)
(-0.0157058 0.0119862 0)
(-0.0373235 -0.0198127 0)
(-0.00271836 -0.0156972 0)
(0.00113309 -0.129489 0)
(-0.00114964 -0.126326 0)
(-0.00571705 -0.131902 0)
(-0.000614862 -0.1239 0)
(0.00520792 -0.123008 0)
(0.00996655 -0.132769 0)
(0.0248083 -0.129545 0)
(0.0353907 -0.1222 0)
(0.0432965 -0.124346 0)
(0.0527885 -0.120196 0)
(0.0597086 -0.10101 0)
(0.0749829 -0.0658271 0)
(0.22271 -0.202757 0)
(0.230826 -0.141884 0)
(0.168751 0.0028721 0)
(0.0627208 0.0927286 0)
(0.00367853 0.12068 0)
(-0.0209332 0.0972809 0)
(-0.0279912 0.0583425 0)
(-0.0185145 0.019108 0)
(-0.0485205 -0.0229787 0)
(-0.0301488 -0.0263656 0)
(-0.00687227 -0.120485 0)
(-0.0134556 -0.117783 0)
(-0.0217844 -0.124027 0)
(-0.0222705 -0.115262 0)
(-0.0191372 -0.114195 0)
(-0.00666354 -0.117894 0)
(0.00798405 -0.103934 0)
(0.012614 -0.0911661 0)
(0.021336 -0.0794419 0)
(0.0194973 -0.072728 0)
(0.00633447 -0.0657857 0)
(-0.0129461 -0.0683172 0)
(-0.0450714 -0.117165 0)
(0.102427 -0.184261 0)
(0.172481 -0.1053 0)
(0.0200808 0.0554915 0)
(-0.0754306 0.114553 0)
(-0.0758675 0.103861 0)
(-0.0557623 0.0541156 0)
(-0.0315164 0.0133832 0)
(-0.051071 -0.0179232 0)
(-0.0449293 -0.0395103 0)
(-0.00732725 -0.0403193 0)
(-0.0178243 -0.0434019 0)
(-0.025532 -0.0529291 0)
(-0.0275199 -0.0528599 0)
(-0.0241985 -0.0600636 0)
(-0.0127869 -0.0772184 0)
(0.00666239 -0.068297 0)
(0.014669 -0.0592005 0)
(0.0266195 -0.0530492 0)
(0.0265326 -0.0447753 0)
(0.0252128 -0.0223258 0)
(0.0218659 0.00214363 0)
(0.0136195 0.0754958 0)
(-0.0942785 0.129142 0)
(-0.0921487 -0.00668833 0)
(-0.135807 0.00753356 0)
(-0.198796 0.0704267 0)
(-0.185161 0.0685094 0)
(-0.14965 0.0559499 0)
(-0.0810059 0.0369789 0)
(-0.0639011 -0.0142187 0)
(-0.0434815 -0.0476423 0)
(-0.00581788 -0.106037 0)
(-0.0139936 -0.107853 0)
(-0.0226747 -0.110999 0)
(-0.0238668 -0.114172 0)
(-0.0147932 -0.11433 0)
(-0.00875849 -0.121327 0)
(0.0112886 -0.111688 0)
(0.0222278 -0.0996531 0)
(0.0272283 -0.0824787 0)
(0.00789714 -0.0716574 0)
(-0.0183972 -0.0666479 0)
(-0.0353259 -0.0792925 0)
(-0.0407201 -0.0963718 0)
(-0.0144428 -0.0412497 0)
(-0.041959 0.033566 0)
(-0.0991652 -0.0480994 0)
(-0.141862 0.0132119 0)
(-0.199782 -0.0119296 0)
(-0.224142 -0.0855042 0)
(-0.203431 -0.0858488 0)
(-0.12059 -0.0592693 0)
(-0.0274011 -0.101946 0)
(-0.00880338 0.00103203 0)
(-0.0238746 -0.00748874 0)
(-0.0324611 -0.0263402 0)
(-0.0325801 -0.0469752 0)
(-0.0197053 -0.0650706 0)
(-0.00706786 -0.100733 0)
(0.0327417 -0.0933394 0)
(0.050958 -0.0678495 0)
(0.0681254 -0.0295746 0)
(0.0707501 0.00502499 0)
(0.0676448 0.041315 0)
(0.0677739 0.0620288 0)
(0.0451806 0.112778 0)
(0.0218113 0.149974 0)
(0.0107168 0.161532 0)
(0.0123729 0.0981856 0)
(-0.024178 -0.0497467 0)
(-0.0463524 -0.0115824 0)
(-0.049967 -0.0416124 0)
(-0.0359833 -0.161187 0)
(-0.00455836 -0.32011 0)
(0.00524763 -0.337495 0)
(-0.00836182 -0.0585334 0)
(-0.0296237 -0.0701575 0)
(-0.0496191 -0.0911175 0)
(-0.0561044 -0.111728 0)
(-0.0444465 -0.122032 0)
(-0.0186049 -0.165095 0)
(0.0376931 -0.1619 0)
(0.0493227 -0.126192 0)
(0.0500964 -0.081405 0)
(0.0193788 -0.0513691 0)
(0.0121417 -0.0324171 0)
(0.0158972 -0.0269897 0)
(0.0264757 0.00873345 0)
(0.0685215 0.0531099 0)
(0.0892375 0.0912563 0)
(0.134769 0.117584 0)
(0.191304 0.00777707 0)
(0.183488 -0.170905 0)
(0.191833 -0.17645 0)
(0.283333 -0.263601 0)
(0.382298 -0.328089 0)
(0.437992 -0.362875 0)
(-0.0267121 0.0657586 0)
(-0.0805609 0.0668502 0)
(-0.0955505 0.0450203 0)
(-0.084304 -0.00382435 0)
(-0.0696271 -0.0506685 0)
(-0.0745681 -0.145988 0)
(-0.0690577 -0.129492 0)
(-0.0647217 -0.0614539 0)
(-0.0647602 -0.00379003 0)
(-0.0711324 0.01355 0)
(-0.0365948 0.0120584 0)
(-0.033768 0.0138766 0)
(-0.0127687 0.0316746 0)
(0.0190244 0.0481506 0)
(0.0470967 0.0770076 0)
(0.112036 0.083752 0)
(0.17528 0.0755767 0)
(0.231813 -0.0886496 0)
(0.313081 -0.115138 0)
(0.376966 -0.190873 0)
(0.442403 -0.310798 0)
(0.489674 -0.409199 0)
(-0.00220145 -0.12168 0)
(-0.0147989 -0.15574 0)
(-0.0359419 -0.254526 0)
(-0.161682 -0.338726 0)
(-0.281345 -0.344296 0)
(-0.450086 -0.373842 0)
(-0.604293 -0.270654 0)
(-0.611008 -0.180101 0)
(-0.550523 -0.128474 0)
(-0.46907 -0.0977217 0)
(-0.368652 -0.0602942 0)
(-0.293069 -0.0350093 0)
(-0.175768 -0.00603067 0)
(-0.0742912 0.0295543 0)
(-0.0170561 0.0290517 0)
(0.060829 -0.00591756 0)
(0.116403 -0.0251928 0)
(0.16822 -0.0852112 0)
(0.268062 -0.0905388 0)
(0.295592 -0.17294 0)
(0.389232 -0.222811 0)
(0.407703 -0.282061 0)
(0.0313486 -0.195406 0)
(0.0601111 -0.205859 0)
(0.0154272 -0.161551 0)
(-0.153194 -0.121479 0)
(-0.453473 -0.0179111 0)
(-0.644602 -0.285149 0)
(-0.704862 -0.459335 0)
(-0.704759 -0.515635 0)
(-0.697142 -0.511578 0)
(-0.646388 -0.485305 0)
(-0.571807 -0.370698 0)
(-0.517654 -0.337688 0)
(-0.459152 -0.291975 0)
(-0.37629 -0.177767 0)
(-0.29565 -0.120581 0)
(-0.189755 -0.0425653 0)
(-0.0744994 -0.047813 0)
(-0.00477227 -0.104256 0)
(0.137097 -0.152782 0)
(0.151007 -0.254783 0)
(0.207718 -0.322648 0)
(0.213098 -0.424291 0)
(-0.109736 -0.657156 0)
(-0.155025 -0.22713 0)
(-0.122317 -0.0122077 0)
(-0.0230377 0.0677246 0)
(0.147721 -0.131616 0)
(0.718226 -0.291411 0)
(0.810639 0.0770498 0)
(0.474203 0.333231 0)
(-0.142674 0.571151 0)
(-0.360933 0.789005 0)
(-0.537706 0.164104 0)
(-0.470149 -0.432849 0)
(-0.44446 -0.611753 0)
(-0.421125 -0.602934 0)
(-0.399534 -0.560789 0)
(-0.331012 -0.518292 0)
(-0.274222 -0.463337 0)
(-0.169839 -0.435345 0)
(-0.133701 -0.419926 0)
(-0.104144 -0.51764 0)
(-0.0310999 -0.528211 0)
(-0.0178601 -0.558454 0)
(-0.290929 0.631502 0)
(-0.367051 0.356656 0)
(-0.156 0.214878 0)
(0.0442006 0.166845 0)
(0.298709 -0.115607 0)
(0.189049 -0.239248 0)
(0.37948 0.10481 0)
(0.139384 0.405791 0)
(-0.102594 0.174675 0)
(0.103662 -0.635496 0)
(0.162885 -0.643157 0)
(0.249942 -0.486383 0)
(0.346665 -0.162654 0)
(0.411432 0.330115 0)
(0.250251 0.585389 0)
(0.184739 0.747089 0)
(0.0701262 0.591918 0)
(0.0598467 0.394262 0)
(-0.0185003 0.337304 0)
(-0.131906 0.64089 0)
(-0.295737 0.210508 0)
(-0.197679 -0.158381 0)
(-0.0556548 0.213361 0)
(0.0949497 -0.145086 0)
(0.110514 -0.228342 0)
(0.169674 -0.188353 0)
(0.237223 -0.233014 0)
(0.053144 -0.298182 0)
(0.194183 0.205131 0)
(0.153372 0.489262 0)
(0.283399 0.362516 0)
(0.289142 0.413024 0)
(-0.0916686 0.0616647 0)
(-0.0833185 -0.278568 0)
(-0.168663 -0.410044 0)
(-0.135101 -0.458146 0)
(0.0167607 -0.644851 0)
(0.18676 -0.763664 0)
(0.297549 -0.789304 0)
(0.368234 -0.729968 0)
(0.344568 -0.610112 0)
(0.400231 -0.609807 0)
(0.48273 -0.576253 0)
(0.455769 -0.54999 0)
(0.374472 -0.49536 0)
(0.0509158 0.291681 0)
(0.0826886 0.198481 0)
(0.00720402 0.02471 0)
(0.00931277 -0.0638446 0)
(0.0393798 -0.148441 0)
(-0.0520459 -0.228356 0)
(-0.0205596 0.068622 0)
(0.194417 0.380905 0)
(0.352835 0.25411 0)
(0.373033 0.0906475 0)
(0.427331 -0.0465893 0)
(0.307529 -0.167531 0)
(0.200938 -0.188403 0)
(0.202062 -0.074068 0)
(0.216137 0.0304816 0)
(0.202349 0.0452766 0)
(0.192704 0.0119359 0)
(0.205231 -0.00288868 0)
(0.23689 0.0172306 0)
(0.280361 0.0780346 0)
(0.264148 0.0395292 0)
(0.21021 -0.0523959 0)
(0.1339 -0.168911 0)
(0.0423416 0.166241 0)
(0.0999425 -0.00745325 0)
(0.126784 -0.096321 0)
(0.100688 -0.113938 0)
(0.0658973 -0.126524 0)
(-0.0296614 -0.143545 0)
(-0.0660493 -0.0506306 0)
(0.0728253 0.0597803 0)
(0.286836 0.128534 0)
(0.33513 0.103254 0)
(0.320061 0.0639938 0)
(0.262638 -0.0968703 0)
(0.18626 -0.242012 0)
(0.14552 -0.303602 0)
(0.153705 -0.349805 0)
(0.168946 -0.365874 0)
(0.167627 -0.358421 0)
(0.147033 -0.335981 0)
(0.123964 -0.304265 0)
(0.115154 -0.283105 0)
(0.133468 -0.269993 0)
(0.126017 -0.273283 0)
(0.0895133 -0.277801 0)
(0.0385876 0.126346 0)
(0.0653365 0.0736965 0)
(0.0557131 -0.0110431 0)
(0.0449778 -0.0604276 0)
(0.0305233 -0.0900947 0)
(-0.0038694 -0.117616 0)
(-0.0240269 -0.066937 0)
(-0.000246369 -0.0438439 0)
(0.0661138 0.0364164 0)
(0.170795 0.072636 0)
(0.175294 0.0506239 0)
(0.199951 -0.0416603 0)
(0.176334 -0.129908 0)
(0.127228 -0.164098 0)
(0.093002 -0.181766 0)
(0.0628481 -0.202006 0)
(0.0363747 -0.22051 0)
(0.0176789 -0.224336 0)
(0.00714926 -0.207483 0)
(0.0068689 -0.17725 0)
(0.0126671 -0.157819 0)
(-0.000465455 -0.154257 0)
(-0.0246501 -0.15482 0)
(0.022599 0.0595388 0)
(0.0579382 -0.00393096 0)
(0.0745382 -0.03777 0)
(0.0619255 -0.0526134 0)
(0.0395409 -0.0606094 0)
(0.00991085 -0.062512 0)
(-0.00981497 -0.0421082 0)
(-0.0121794 -0.0336783 0)
(-0.0136458 -0.0189879 0)
(0.0500714 0.0213886 0)
(0.092249 -0.00165308 0)
(0.10844 -0.0769301 0)
(0.0924035 -0.128371 0)
(0.0702526 -0.168769 0)
(0.0464165 -0.191573 0)
(0.0271121 -0.198983 0)
(0.00624166 -0.201268 0)
(-0.0138249 -0.195667 0)
(-0.0333235 -0.17657 0)
(-0.0492984 -0.15527 0)
(-0.0606047 -0.143049 0)
(-0.0740393 -0.138866 0)
(-0.0872189 -0.137395 0)
(0.0164346 0.0380714 0)
(0.03592 0.00162795 0)
(0.043908 -0.0286053 0)
(0.0420233 -0.0459466 0)
(0.0317608 -0.0536106 0)
(0.0194425 -0.0544787 0)
(0.0112483 -0.0447146 0)
(0.0102954 -0.0352415 0)
(0.0124703 -0.0320206 0)
(0.0320221 -0.018176 0)
(0.0653662 -0.0233653 0)
(0.0692533 -0.0558837 0)
(0.059001 -0.104991 0)
(0.0398336 -0.147989 0)
(0.015912 -0.177843 0)
(-0.00300315 -0.193905 0)
(-0.0221724 -0.200584 0)
(-0.0424625 -0.20101 0)
(-0.0584435 -0.192034 0)
(-0.0681221 -0.181714 0)
(-0.0743161 -0.170097 0)
(-0.0794111 -0.156914 0)
(-0.083778 -0.147125 0)
(0.00995728 0.0126893 0)
(0.0231099 -0.0202899 0)
(0.0269885 -0.0298001 0)
(0.0247465 -0.0363334 0)
(0.0206771 -0.0418101 0)
(0.0170092 -0.0430755 0)
(0.0142914 -0.0404053 0)
(0.0176831 -0.0395729 0)
(0.0226929 -0.0391776 0)
(0.0336336 -0.0310454 0)
(0.0493334 -0.0374355 0)
(0.0569563 -0.0565729 0)
(0.0536046 -0.0872804 0)
(0.0384182 -0.116272 0)
(0.0150553 -0.14252 0)
(-0.00538322 -0.161741 0)
(-0.0225152 -0.168252 0)
(-0.0384674 -0.167587 0)
(-0.0520383 -0.157728 0)
(-0.0640216 -0.148654 0)
(-0.0754238 -0.141458 0)
(-0.0824053 -0.133339 0)
(-0.0877627 -0.125472 0)
(0.00649341 0.00053852 0)
(0.0134965 -0.0256255 0)
(0.0163432 -0.0321463 0)
(0.0169577 -0.0378667 0)
(0.0162618 -0.0420557 0)
(0.0160015 -0.0431102 0)
(0.0176493 -0.0438941 0)
(0.0217647 -0.0429005 0)
(0.0255207 -0.0449274 0)
(0.0338934 -0.0422595 0)
(0.0440224 -0.0488695 0)
(0.0495374 -0.0616834 0)
(0.0526745 -0.0836161 0)
(0.0461835 -0.105299 0)
(0.0327082 -0.126834 0)
(0.0153437 -0.146229 0)
(-0.00600987 -0.15815 0)
(-0.0228985 -0.161147 0)
(-0.0382166 -0.154213 0)
(-0.0541536 -0.1462 0)
(-0.070288 -0.141001 0)
(-0.0791478 -0.133282 0)
(-0.0843268 -0.122919 0)
(0.00399731 -0.00698765 0)
(0.00864128 -0.0292444 0)
(0.0120054 -0.0338307 0)
(0.0138997 -0.0382576 0)
(0.0145841 -0.0422613 0)
(0.0157419 -0.0447239 0)
(0.0174459 -0.0466882 0)
(0.0207509 -0.0477348 0)
(0.0242955 -0.0498167 0)
(0.0302976 -0.0497401 0)
(0.0378931 -0.0547734 0)
(0.0438082 -0.0659764 0)
(0.0466154 -0.0834911 0)
(0.0432663 -0.0997638 0)
(0.0333138 -0.116348 0)
(0.0210222 -0.129802 0)
(0.00205697 -0.137966 0)
(-0.0171194 -0.141277 0)
(-0.0347496 -0.13593 0)
(-0.0481738 -0.12538 0)
(-0.0652059 -0.122707 0)
(-0.0776762 -0.122957 0)
(-0.0839317 -0.117088 0)
(0.00258073 -0.0124294 0)
(0.00663173 -0.0334297 0)
(0.00994498 -0.0365849 0)
(0.0122535 -0.0398676 0)
(0.013523 -0.0429831 0)
(0.0141934 -0.0458523 0)
(0.0148903 -0.0483224 0)
(0.0161678 -0.0506064 0)
(0.0178213 -0.0534584 0)
(0.0208701 -0.0563389 0)
(0.0265869 -0.0623348 0)
(0.0310708 -0.0718901 0)
(0.03077 -0.0821489 0)
(0.0268012 -0.0919175 0)
(0.0185165 -0.104326 0)
(0.00674084 -0.112647 0)
)
;

boundaryField
{
    leftWall
    {
        type            fixedValue;
        value           uniform (0 0 0);
    }
    rightWall
    {
        type            fixedValue;
        value           nonuniform 0();
    }
    lowerWall
    {
        type            fixedValue;
        value           uniform (0 0 0);
    }
    atmosphere
    {
        type            fluxCorrectedVelocity;
        value           nonuniform 0();
    }
    defaultFaces
    {
        type            empty;
    }
    procBoundary0to1
    {
        type            processor;
        value           nonuniform List<vector> 
26
(
(-0.0281706 -0.00237897 0)
(-0.0242621 -0.0183422 0)
(0.0121771 -0.0167867 0)
(0.00733519 -0.00968869 0)
(0.0121256 -0.0085936 0)
(0.00337447 -0.00561585 0)
(-0.000943591 -0.0196439 0)
(-0.000128612 -0.0246986 0)
(0.0365231 -0.0608294 0)
(0.0673765 -0.341092 0)
(0.480786 -0.448123 0)
(0.540285 -0.458711 0)
(0.442842 -0.352127 0)
(0.246179 -0.512278 0)
(-0.0209296 -0.412988 0)
(-0.127253 -0.502155 0)
(-0.127253 -0.502155 0)
(0.288487 -0.433442 0)
(0.0797834 -0.232492 0)
(0.0362194 -0.271477 0)
(-0.0558475 -0.156774 0)
(-0.0995196 -0.148676 0)
(-0.0927839 -0.148705 0)
(-0.0963729 -0.125503 0)
(-0.0897791 -0.11836 0)
(-0.0891097 -0.113397 0)
)
;
    }
    procBoundary0to2
    {
        type            processor;
        value           nonuniform List<vector> 
24
(
(-0.0112564 -0.118136 0)
(-0.0260788 -0.120362 0)
(-0.0390429 -0.119151 0)
(-0.0526047 -0.111225 0)
(-0.0622514 -0.108895 0)
(-0.0730412 -0.112409 0)
(-0.0778234 -0.110628 0)
(0.00197584 -0.0161995 0)
(0.00550816 -0.036701 0)
(0.00822377 -0.0390357 0)
(0.00956716 -0.0415638 0)
(0.01055 -0.0438792 0)
(0.0105054 -0.046281 0)
(0.0105013 -0.0486298 0)
(0.0108119 -0.0511743 0)
(0.0111421 -0.0544426 0)
(0.0122662 -0.0592587 0)
(0.0132454 -0.0650925 0)
(0.0140602 -0.0720822 0)
(0.0117413 -0.0795468 0)
(0.00862137 -0.0888116 0)
(0.00116741 -0.0959605 0)
(-0.0112564 -0.118136 0)
(-0.00886423 -0.0996793 0)
)
;
    }
}


// ************************************************************************* //
