/*--------------------------------*- C++ -*----------------------------------*\
| =========                 |                                                 |
| \\      /  F ield         | OpenFOAM: The Open Source CFD Toolbox           |
|  \\    /   O peration     | Version:  2.4.0                                 |
|   \\  /    A nd           | Web:      www.OpenFOAM.org                      |
|    \\/     M anipulation  |                                                 |
\*---------------------------------------------------------------------------*/
FoamFile
{
    version     2.0;
    format      ascii;
    class       volVectorField;
    location    "0.6";
    object      U.water;
}
// * * * * * * * * * * * * * * * * * * * * * * * * * * * * * * * * * * * * * //

dimensions      [0 1 -1 0 0 0 0];

internalField   nonuniform List<vector> 
575
(
(0.0139826 -0.00597827 0)
(0.0391633 -0.00655365 0)
(0.0678702 -0.00414467 0)
(0.0834769 -0.00741572 0)
(0.123153 -0.00680607 0)
(0.147593 -0.00429995 0)
(0.162402 -0.00392955 0)
(0.184821 -0.00349162 0)
(0.209569 -0.0057594 0)
(0.238566 -0.00117017 0)
(0.247537 0.00835369 0)
(0.247861 0.0137698 0)
(0.236752 0.0127809 0)
(0.212629 0.00775011 0)
(0.182017 0.00341772 0)
(0.1374 -0.00753411 0)
(0.0913188 -0.00241452 0)
(0.0354081 -0.00678781 0)
(0.000309717 0.00642471 0)
(-0.0316909 -0.0049387 0)
(-0.0150423 -0.000604847 0)
(-0.015139 0.00315195 0)
(0.014696 0.00809469 0)
(0.037878 0.0072343 0)
(0.0685127 0.00974767 0)
(0.086601 0.00729131 0)
(0.121411 0.00887476 0)
(0.145947 0.0120792 0)
(0.165073 0.010636 0)
(0.188374 0.0104182 0)
(0.217033 0.00520163 0)
(0.238081 -0.000816856 0)
(0.247356 -0.0039573 0)
(0.247398 -0.00731718 0)
(0.239562 0.00298157 0)
(0.218727 0.0162904 0)
(0.184638 0.0381355 0)
(0.138693 0.0518923 0)
(0.0895623 0.0489994 0)
(0.0423487 0.0418583 0)
(-0.00215695 0.0223446 0)
(-0.017632 0.0112227 0)
(-0.0211346 -0.00648793 0)
(-0.0104718 0.00337904 0)
(0.0156419 0.122333 0)
(0.0363348 0.127351 0)
(0.0685911 0.118075 0)
(0.0923914 0.135548 0)
(0.115007 0.138152 0)
(0.144768 0.135745 0)
(0.165818 0.147891 0)
(0.192414 0.150718 0)
(0.213092 0.15297 0)
(0.220393 0.136717 0)
(0.231965 0.118941 0)
(0.2541 0.105595 0)
(0.260823 0.0944574 0)
(0.244921 0.0675138 0)
(0.204615 0.0438224 0)
(0.143428 0.0390496 0)
(0.0745293 0.0493259 0)
(0.0276044 0.0465359 0)
(-0.0207246 0.0365419 0)
(-0.01768 0.00778997 0)
(-0.0136771 -0.00472291 0)
(0.00952804 0.00150756 0)
(0.0167601 0.0840706 0)
(0.0339386 0.0806504 0)
(0.0661356 0.0892258 0)
(0.0960938 0.0755966 0)
(0.109144 0.0762152 0)
(0.141134 0.0815414 0)
(0.168516 0.075612 0)
(0.195859 0.0764511 0)
(0.2095 0.0764527 0)
(0.217554 0.0964425 0)
(0.23537 0.117376 0)
(0.242701 0.14447 0)
(0.220802 0.186631 0)
(0.201286 0.191649 0)
(0.17556 0.182847 0)
(0.129511 0.161787 0)
(0.0747272 0.105096 0)
(0.0285795 0.0678911 0)
(-0.0164795 0.0393072 0)
(-0.0204031 0.00565789 0)
(-0.0231049 -0.0189237 0)
(0.00891989 -0.00496719 0)
(0.0125574 0.0311339 0)
(0.02507 0.0369073 0)
(0.0505368 0.0300318 0)
(0.0798384 0.0437366 0)
(0.0857669 0.0435958 0)
(0.102979 0.0459086 0)
(0.140207 0.0606017 0)
(0.156517 0.0654295 0)
(0.162381 0.077384 0)
(0.180993 0.0795759 0)
(0.203125 0.0824684 0)
(0.216227 0.0997008 0)
(0.226821 0.127085 0)
(0.206768 0.179046 0)
(0.130488 0.214452 0)
(0.0438281 0.268831 0)
(0.0299715 0.169954 0)
(0.0144133 0.109438 0)
(-0.018851 0.0629684 0)
(-0.0158615 0.0138931 0)
(-0.0374006 -0.0190346 0)
(-0.00273953 -0.0153985 0)
(-0.00521537 -0.0503473 0)
(-0.00274447 -0.0539908 0)
(-0.00888629 -0.0576496 0)
(-0.00515668 -0.0608236 0)
(0.00105779 -0.0627246 0)
(0.00490406 -0.0785633 0)
(0.0194391 -0.0835031 0)
(0.0288024 -0.0799614 0)
(0.037207 -0.0860239 0)
(0.0460477 -0.0827939 0)
(0.0513563 -0.0624519 0)
(0.0653126 -0.0216898 0)
(0.0970793 0.102078 0)
(0.104417 0.288396 0)
(0.056658 0.308875 0)
(-0.0239635 0.290117 0)
(-0.0780054 0.271515 0)
(-0.0471861 0.155973 0)
(-0.0329491 0.0784114 0)
(-0.019421 0.0285231 0)
(-0.0487814 -0.0200323 0)
(-0.0302029 -0.025464 0)
(-0.00665439 -0.0978654 0)
(-0.0130503 -0.0950377 0)
(-0.02117 -0.101507 0)
(-0.0215448 -0.0923117 0)
(-0.0185504 -0.0912249 0)
(-0.00616637 -0.0955143 0)
(0.00823925 -0.080935 0)
(0.0122852 -0.0676016 0)
(0.0203102 -0.0555735 0)
(0.0178934 -0.048508 0)
(0.00360558 -0.0411502 0)
(-0.0169072 -0.0445088 0)
(-0.0511615 -0.089405 0)
(-0.0278867 -0.0699366 0)
(0.0194115 0.164602 0)
(-0.146945 0.31531 0)
(-0.174845 0.281316 0)
(-0.130517 0.240869 0)
(-0.0746967 0.106643 0)
(-0.0371553 0.0312959 0)
(-0.0526332 -0.0144 0)
(-0.0451681 -0.0384853 0)
(-0.00729758 -0.015935 0)
(-0.01771 -0.0194572 0)
(-0.0253136 -0.0297323 0)
(-0.0272741 -0.0297354 0)
(-0.0240044 -0.038165 0)
(-0.0126254 -0.058568 0)
(0.00660209 -0.0489665 0)
(0.0140353 -0.0398973 0)
(0.0253628 -0.0344144 0)
(0.0246857 -0.0259997 0)
(0.0227805 -0.00228211 0)
(0.0189213 0.0235925 0)
(0.00916287 0.0979598 0)
(-0.0990486 0.158077 0)
(-0.115295 0.173211 0)
(-0.183402 0.258195 0)
(-0.300365 0.253379 0)
(-0.260767 0.232094 0)
(-0.17216 0.160331 0)
(-0.0863694 0.0976063 0)
(-0.0643772 0.0307514 0)
(-0.0434907 -0.00407242 0)
(-0.00574923 -0.087652 0)
(-0.0138269 -0.0901202 0)
(-0.0224219 -0.0942895 0)
(-0.0235277 -0.0974154 0)
(-0.014456 -0.0994199 0)
(-0.00845451 -0.108738 0)
(0.0115432 -0.0985649 0)
(0.0220597 -0.0874023 0)
(0.026585 -0.0706545 0)
(0.00672637 -0.0592837 0)
(-0.0202586 -0.0521065 0)
(-0.0377959 -0.0630275 0)
(-0.0438575 -0.0764502 0)
(-0.0183756 -0.0173796 0)
(-0.0352142 0.0856614 0)
(0.020166 0.208217 0)
(-0.110364 0.345226 0)
(-0.24691 0.164815 0)
(-0.263538 0.0739146 0)
(-0.222888 0.0796192 0)
(-0.134427 0.101567 0)
(-0.0317789 0.0621505 0)
(-0.00878217 0.00667324 0)
(-0.0238231 -0.00212678 0)
(-0.0323901 -0.0213444 0)
(-0.0324914 -0.0421459 0)
(-0.0196217 -0.060807 0)
(-0.00698571 -0.0973547 0)
(0.0328103 -0.0901408 0)
(0.050954 -0.0652536 0)
(0.0680728 -0.0270415 0)
(0.0706474 0.00781015 0)
(0.0674409 0.0447648 0)
(0.0674666 0.0659953 0)
(0.0450228 0.118247 0)
(0.0215209 0.160417 0)
(0.0109205 0.177132 0)
(0.0619269 0.234107 0)
(0.153775 0.315281 0)
(0.0993155 0.356172 0)
(-0.0193706 0.203416 0)
(-0.0400971 0.0272895 0)
(0.00734908 -0.125483 0)
(0.0273282 -0.127114 0)
(-0.00836188 -0.0574574 0)
(-0.0296263 -0.0691443 0)
(-0.0496238 -0.0901714 0)
(-0.0560999 -0.110839 0)
(-0.0444282 -0.121312 0)
(-0.0184144 -0.166436 0)
(0.0381013 -0.168377 0)
(0.049977 -0.137031 0)
(0.0509987 -0.0915074 0)
(0.0203881 -0.0602458 0)
(0.0130072 -0.0384654 0)
(0.0163908 -0.0303883 0)
(0.0265921 0.00825332 0)
(0.0685438 0.054455 0)
(0.0896137 0.0941781 0)
(0.140138 0.128398 0)
(0.223153 0.175659 0)
(0.343586 0.195907 0)
(0.4311 0.13816 0)
(0.460487 0.0321813 0)
(0.444681 -0.00174069 0)
(0.438065 -0.0305721 0)
(-0.0267119 0.0659102 0)
(-0.0805611 0.0669816 0)
(-0.095551 0.0451192 0)
(-0.0842795 -0.00375062 0)
(-0.0683085 -0.0517776 0)
(-0.0676023 -0.159931 0)
(-0.0586858 -0.1631 0)
(-0.0565498 -0.108142 0)
(-0.0586887 -0.0513074 0)
(-0.0651655 -0.0337167 0)
(-0.0302539 -0.0284294 0)
(-0.0288123 -0.0173536 0)
(-0.0100799 0.0136623 0)
(0.0203151 0.0396107 0)
(0.0474911 0.0742836 0)
(0.112046 0.0850246 0)
(0.171716 0.102269 0)
(0.25566 0.0542154 0)
(0.370614 0.0109716 0)
(0.421681 -0.0894726 0)
(0.480848 -0.206521 0)
(0.518885 -0.296693 0)
(-0.00220468 -0.125464 0)
(-0.0148126 -0.159268 0)
(-0.0359702 -0.257324 0)
(-0.160177 -0.341311 0)
(-0.266786 -0.355723 0)
(-0.428537 -0.455158 0)
(-0.631893 -0.389181 0)
(-0.626124 -0.274446 0)
(-0.529712 -0.217055 0)
(-0.447775 -0.193448 0)
(-0.343328 -0.14589 0)
(-0.268755 -0.114322 0)
(-0.158899 -0.0834616 0)
(-0.0652526 -0.0280917 0)
(-0.0122823 -0.00928854 0)
(0.062469 -0.0274555 0)
(0.116662 -0.0325021 0)
(0.16964 -0.0885729 0)
(0.269731 -0.0872492 0)
(0.299821 -0.165633 0)
(0.387745 -0.211328 0)
(0.405838 -0.266401 0)
(0.0125445 -0.416731 0)
(0.018515 -0.463503 0)
(-0.0135128 -0.528988 0)
(-0.0838434 -0.525481 0)
(-0.121974 -0.568183 0)
(-0.263218 -1.07294 0)
(-0.646513 -0.975613 0)
(-0.700595 -0.709177 0)
(-0.64843 -0.632666 0)
(-0.601396 -0.597772 0)
(-0.565565 -0.499002 0)
(-0.536736 -0.445836 0)
(-0.490618 -0.377045 0)
(-0.394131 -0.258669 0)
(-0.279312 -0.189486 0)
(-0.165814 -0.110809 0)
(-0.0610002 -0.0967023 0)
(0.0027908 -0.142546 0)
(0.152037 -0.174956 0)
(0.161605 -0.275473 0)
(0.227979 -0.341117 0)
(0.247549 -0.448138 0)
(-0.0305333 -0.61948 0)
(-0.0615501 -0.517364 0)
(-0.0570532 -0.417135 0)
(-0.0427662 -0.444579 0)
(0.0537034 -0.428582 0)
(0.709866 -0.312883 0)
(0.807647 0.0640617 0)
(0.464138 0.328401 0)
(-0.154377 0.556294 0)
(-0.372234 0.750646 0)
(-0.534452 0.0916782 0)
(-0.460019 -0.486512 0)
(-0.443036 -0.642834 0)
(-0.41889 -0.643759 0)
(-0.382664 -0.606849 0)
(-0.295896 -0.584169 0)
(-0.228911 -0.581488 0)
(-0.160331 -0.57203 0)
(-0.134546 -0.563268 0)
(-0.0747023 -0.636015 0)
(-0.00370256 -0.701381 0)
(0.0242154 -0.795634 0)
(-0.290805 0.625246 0)
(-0.366707 0.346204 0)
(-0.155376 0.205043 0)
(0.0442051 0.158228 0)
(0.298665 -0.120892 0)
(0.18898 -0.239675 0)
(0.37954 0.104464 0)
(0.139507 0.404518 0)
(-0.102115 0.172373 0)
(0.103935 -0.637452 0)
(0.162876 -0.646345 0)
(0.249776 -0.490905 0)
(0.346394 -0.168684 0)
(0.411082 0.322694 0)
(0.249613 0.577126 0)
(0.182593 0.736823 0)
(0.0648473 0.574072 0)
(0.053581 0.358005 0)
(-0.0165031 0.294168 0)
(-0.126359 0.630114 0)
(-0.295214 0.207584 0)
(-0.198021 -0.164584 0)
(-0.0554017 0.210886 0)
(0.0949604 -0.146404 0)
(0.110848 -0.229426 0)
(0.16964 -0.188745 0)
(0.237196 -0.233052 0)
(0.0531279 -0.298206 0)
(0.194184 0.205064 0)
(0.153123 0.488079 0)
(0.2834 0.362357 0)
(0.289116 0.412757 0)
(-0.0916146 0.0614912 0)
(-0.0831897 -0.278707 0)
(-0.168541 -0.410083 0)
(-0.13506 -0.45815 0)
(0.0167742 -0.644873 0)
(0.186763 -0.763843 0)
(0.297549 -0.790105 0)
(0.368234 -0.731537 0)
(0.344565 -0.611786 0)
(0.40023 -0.610517 0)
(0.48273 -0.576652 0)
(0.45577 -0.550158 0)
(0.374475 -0.495415 0)
(0.0505253 0.289089 0)
(0.0824606 0.197368 0)
(0.00721551 0.0239417 0)
(0.00931046 -0.0640346 0)
(0.0393733 -0.148467 0)
(-0.0520539 -0.228373 0)
(-0.0205599 0.0686027 0)
(0.194416 0.380912 0)
(0.352842 0.254051 0)
(0.373044 0.0906344 0)
(0.427331 -0.0466454 0)
(0.307483 -0.167666 0)
(0.200926 -0.188534 0)
(0.202052 -0.0741436 0)
(0.216135 0.0304658 0)
(0.202348 0.0452712 0)
(0.192704 0.0119344 0)
(0.205231 -0.00288953 0)
(0.23689 0.01723 0)
(0.280361 0.0780342 0)
(0.264148 0.039529 0)
(0.21021 -0.0523962 0)
(0.1339 -0.168911 0)
(0.0422711 0.164073 0)
(0.099875 -0.00833132 0)
(0.126774 -0.0967265 0)
(0.100684 -0.114015 0)
(0.0658944 -0.12654 0)
(-0.0296641 -0.143558 0)
(-0.0660473 -0.050653 0)
(0.0728308 0.05972 0)
(0.286834 0.128449 0)
(0.335126 0.103114 0)
(0.320056 0.0637697 0)
(0.262643 -0.0971068 0)
(0.186275 -0.242147 0)
(0.14553 -0.303643 0)
(0.153707 -0.349811 0)
(0.168947 -0.365876 0)
(0.167627 -0.358421 0)
(0.147033 -0.335981 0)
(0.123964 -0.304265 0)
(0.115154 -0.283105 0)
(0.133468 -0.269994 0)
(0.126017 -0.273283 0)
(0.0895133 -0.277801 0)
(0.0385454 0.124909 0)
(0.065294 0.0731281 0)
(0.0557093 -0.0111823 0)
(0.0449771 -0.0604547 0)
(0.0305227 -0.0901022 0)
(-0.0038697 -0.117623 0)
(-0.0240265 -0.066951 0)
(-0.000245333 -0.0438846 0)
(0.06611 0.0363302 0)
(0.170798 0.0724571 0)
(0.175306 0.050403 0)
(0.199953 -0.0418364 0)
(0.176336 -0.129971 0)
(0.127229 -0.164112 0)
(0.093002 -0.181768 0)
(0.0628481 -0.202007 0)
(0.0363747 -0.22051 0)
(0.0176789 -0.224336 0)
(0.00714926 -0.207483 0)
(0.0068689 -0.177251 0)
(0.0126671 -0.157819 0)
(-0.000465452 -0.154257 0)
(-0.0246501 -0.15482 0)
(0.022603 0.0590255 0)
(0.0579344 -0.00408533 0)
(0.0745378 -0.0377861 0)
(0.0619254 -0.0526167 0)
(0.0395408 -0.0606115 0)
(0.0099108 -0.0625138 0)
(-0.00981497 -0.0421118 0)
(-0.0121794 -0.0336893 0)
(-0.0136455 -0.0190188 0)
(0.0500787 0.0212847 0)
(0.0922526 -0.0017534 0)
(0.10844 -0.0769905 0)
(0.0924035 -0.128383 0)
(0.0702526 -0.16877 0)
(0.0464165 -0.191573 0)
(0.0271121 -0.198983 0)
(0.00624166 -0.201268 0)
(-0.0138249 -0.195667 0)
(-0.0333235 -0.17657 0)
(-0.0492984 -0.15527 0)
(-0.0606047 -0.143049 0)
(-0.0740393 -0.138866 0)
(-0.0872189 -0.137395 0)
(0.0164345 0.03799 0)
(0.0359199 0.00160769 0)
(0.0439079 -0.0286076 0)
(0.0420233 -0.0459474 0)
(0.0317608 -0.0536112 0)
(0.0194425 -0.0544793 0)
(0.0112483 -0.0447153 0)
(0.0102954 -0.0352422 0)
(0.0124703 -0.0320218 0)
(0.0320221 -0.0181966 0)
(0.0653662 -0.0233754 0)
(0.0692533 -0.0558855 0)
(0.059001 -0.104992 0)
(0.0398336 -0.147989 0)
(0.015912 -0.177843 0)
(-0.00300315 -0.193905 0)
(-0.0221724 -0.200584 0)
(-0.0424625 -0.20101 0)
(-0.0584435 -0.192034 0)
(-0.0681221 -0.181714 0)
(-0.0743161 -0.170097 0)
(-0.0794111 -0.156914 0)
(-0.083778 -0.147125 0)
(0.00995728 0.012686 0)
(0.0231099 -0.0202911 0)
(0.0269885 -0.0298007 0)
(0.0247465 -0.0363337 0)
(0.0206771 -0.0418103 0)
(0.0170092 -0.0430757 0)
(0.0142914 -0.0404056 0)
(0.0176831 -0.0395732 0)
(0.0226929 -0.0391779 0)
(0.0336336 -0.0310457 0)
(0.0493334 -0.0374358 0)
(0.0569563 -0.056573 0)
(0.0536046 -0.0872805 0)
(0.0384182 -0.116272 0)
(0.0150553 -0.14252 0)
(-0.00538322 -0.161741 0)
(-0.0225152 -0.168252 0)
(-0.0384674 -0.167587 0)
(-0.0520383 -0.157728 0)
(-0.0640216 -0.148654 0)
(-0.0754238 -0.141458 0)
(-0.0824053 -0.133339 0)
(-0.0877627 -0.125472 0)
(0.00649341 0.000538162 0)
(0.0134965 -0.0256259 0)
(0.0163432 -0.0321465 0)
(0.0169577 -0.0378668 0)
(0.0162618 -0.0420558 0)
(0.0160015 -0.0431103 0)
(0.0176493 -0.0438942 0)
(0.0217647 -0.0429006 0)
(0.0255207 -0.0449275 0)
(0.0338934 -0.0422596 0)
(0.0440224 -0.0488695 0)
(0.0495374 -0.0616834 0)
(0.0526745 -0.0836161 0)
(0.0461835 -0.105299 0)
(0.0327082 -0.126834 0)
(0.0153437 -0.146229 0)
(-0.00600987 -0.15815 0)
(-0.0228985 -0.161147 0)
(-0.0382166 -0.154213 0)
(-0.0541536 -0.1462 0)
(-0.070288 -0.141001 0)
(-0.0791478 -0.133282 0)
(-0.0843268 -0.122919 0)
(0.00399731 -0.00698773 0)
(0.00864128 -0.0292445 0)
(0.0120054 -0.0338308 0)
(0.0138997 -0.0382577 0)
(0.0145841 -0.0422614 0)
(0.0157419 -0.0447239 0)
(0.0174459 -0.0466882 0)
(0.0207509 -0.0477349 0)
(0.0242955 -0.0498167 0)
(0.0302976 -0.0497401 0)
(0.0378931 -0.0547735 0)
(0.0438082 -0.0659765 0)
(0.0466154 -0.0834911 0)
(0.0432663 -0.0997638 0)
(0.0333138 -0.116348 0)
(0.0210222 -0.129802 0)
(0.00205697 -0.137966 0)
(-0.0171194 -0.141277 0)
(-0.0347496 -0.13593 0)
(-0.0481738 -0.12538 0)
(-0.0652059 -0.122707 0)
(-0.0776762 -0.122957 0)
(-0.0839317 -0.117088 0)
(0.00258073 -0.0124295 0)
(0.00663173 -0.0334297 0)
(0.00994498 -0.0365849 0)
(0.0122535 -0.0398676 0)
(0.013523 -0.0429831 0)
(0.0141934 -0.0458523 0)
(0.0148903 -0.0483224 0)
(0.0161678 -0.0506064 0)
(0.0178213 -0.0534584 0)
(0.0208701 -0.0563389 0)
(0.0265869 -0.0623348 0)
(0.0310708 -0.0718901 0)
(0.03077 -0.0821489 0)
(0.0268012 -0.0919175 0)
(0.0185165 -0.104326 0)
(0.00674084 -0.112647 0)
)
;

boundaryField
{
    leftWall
    {
        type            fixedValue;
        value           uniform (0 0 0);
    }
    rightWall
    {
        type            fixedValue;
        value           nonuniform 0();
    }
    lowerWall
    {
        type            fixedValue;
        value           uniform (0 0 0);
    }
    atmosphere
    {
        type            fluxCorrectedVelocity;
        value           nonuniform 0();
    }
    defaultFaces
    {
        type            empty;
    }
    procBoundary0to1
    {
        type            processor;
        value           nonuniform List<vector> 
26
(
(-0.0281714 -0.00237762 0)
(-0.0242628 -0.0183384 0)
(0.0121762 -0.0167762 0)
(0.00733344 -0.00966436 0)
(0.0121221 -0.00854288 0)
(0.00336754 -0.00549771 0)
(-0.000965628 -0.0195176 0)
(-0.000108137 0.0181355 0)
(0.0432284 0.100925 0)
(0.0970622 -0.126166 0)
(0.47015 -0.0669504 0)
(0.562089 -0.347626 0)
(0.439304 -0.342498 0)
(0.277159 -0.563599 0)
(0.0658753 -0.835477 0)
(-0.127338 -0.507872 0)
(-0.127338 -0.507872 0)
(0.288489 -0.433608 0)
(0.0797834 -0.232492 0)
(0.0362194 -0.271477 0)
(-0.0558475 -0.156774 0)
(-0.0995196 -0.148675 0)
(-0.0927839 -0.148705 0)
(-0.0963729 -0.125502 0)
(-0.0897791 -0.11836 0)
(-0.0891097 -0.113397 0)
)
;
    }
    procBoundary0to2
    {
        type            processor;
        value           nonuniform List<vector> 
24
(
(-0.0112564 -0.118136 0)
(-0.0260788 -0.120362 0)
(-0.0390429 -0.119151 0)
(-0.0526047 -0.111225 0)
(-0.0622514 -0.108895 0)
(-0.0730412 -0.112409 0)
(-0.0778234 -0.110628 0)
(0.00197584 -0.0161995 0)
(0.00550816 -0.036701 0)
(0.00822377 -0.0390357 0)
(0.00956716 -0.0415638 0)
(0.01055 -0.0438792 0)
(0.0105054 -0.046281 0)
(0.0105013 -0.0486298 0)
(0.0108119 -0.0511743 0)
(0.0111421 -0.0544426 0)
(0.0122662 -0.0592587 0)
(0.0132454 -0.0650925 0)
(0.0140602 -0.0720822 0)
(0.0117413 -0.0795468 0)
(0.00862137 -0.0888116 0)
(0.00116741 -0.0959605 0)
(-0.0112564 -0.118136 0)
(-0.00886423 -0.0996793 0)
)
;
    }
}


// ************************************************************************* //
