/*--------------------------------*- C++ -*----------------------------------*\
| =========                 |                                                 |
| \\      /  F ield         | OpenFOAM: The Open Source CFD Toolbox           |
|  \\    /   O peration     | Version:  2.4.0                                 |
|   \\  /    A nd           | Web:      www.OpenFOAM.org                      |
|    \\/     M anipulation  |                                                 |
\*---------------------------------------------------------------------------*/
FoamFile
{
    version     2.0;
    format      ascii;
    class       volScalarField;
    location    "0.05";
    object      alpha.air;
}
// * * * * * * * * * * * * * * * * * * * * * * * * * * * * * * * * * * * * * //

dimensions      [0 0 0 0 0 0 0];

internalField   nonuniform List<scalar> 
559
(
1.0171e-58
1.21541e-56
6.96156e-55
2.80345e-53
9.42938e-52
2.79783e-50
7.8396e-49
1.97358e-47
1.00001
1.00001
1.00001
1.00001
1.00001
1.00001
1
1
1
1
1
1
1
1
1
1
1
1
1
1.00001
1.00001
1.00001
1.00001
1.00001
1.00001
1.00001
1.00001
1
1
1
1
1
1
1
1
1
1
1
1.00001
1.00001
1.00001
1.00001
1.00001
1
1
1
1
1
1
1
1
1
1
1
1
1
1
1.00001
1.00001
1.00001
1.00001
1.00001
1.00001
1.00001
1.00001
1.00001
1
1
1
1
1
1
1
1
1
1.00001
1
1
1
1
1
1
1
1
1
1
1
1
1
1
1
1
1
1
0.999999
1
0.999974
0.999852
0.999951
1.00001
1.00001
1.00001
1
1
1
1
1
1
1
1
1
1
1
1.00001
0.999781
0.996922
0.998146
0.999954
1
1.00001
1.00001
1
1
1
1
1
1
1
1
1
1
1
1
0.940415
0.970203
0.998764
0.999999
1
1
1
1
1
1
1
1
1
1
1
1
1
1
1
5.02406e-46
2.94939e-30
2.91192e-23
2.06726e-21
6.75598e-20
1.55532e-18
2.86315e-17
4.38507e-16
4.10648e-12
2.09972e-10
7.01997e-08
0.000400511
1.62101e-10
2.03374e-09
4.15316e-06
0.00770052
1.46473e-08
7.56493e-07
0.00307647
0.300201
3.66588e-07
0.00021287
0.166231
0.811771
9.34437e-06
0.02395
0.586739
0.975596
0.000218684
0.157193
0.83259
0.996496
0.0037433
0.361818
0.93369
0.99937
0.0241656
0.563779
0.974567
0.999881
0.0706123
0.7022
0.989091
0.999972
0.142081
0.80153
0.995337
0.999994
0.234126
0.874087
0.998233
0.999999
0.338524
0.920625
0.999356
1
0.448792
0.953303
0.999814
1
0.559171
0.97595
0.999967
1
0.67114
0.991602
0.999998
1
0.795696
0.999616
0.999998
1
0.929656
0.999997
1
1
0.437063
0.947795
0.999642
1
1
1
1
1
1
1
1
1
1
1
1
1
1
1
1
0.597814
0.982563
0.99996
1
1
1
1
1
1
1
1
1
1
1
1
1
1
1
1
0.920817
0.999536
0.999999
0.999999
0.999999
0.999999
1
1
1
1
1
1
1
1
1
1
1
1
1
0.99229
0.99999
0.999999
0.999999
0.999999
0.999999
0.999999
1
1
1
1
1
1
1
1
1
1
1
1
0.999486
0.999999
0.999999
0.999999
0.999999
0.999999
0.999999
1
1
1
1
1
1
1
1
1
1
1
1
0.999943
0.999999
0.999999
0.999999
0.999999
0.999999
1
1
1
1
1
1
1
1
1
1
1
1
1
0.99999
1
0.999999
0.999999
0.999999
0.999999
1
1
1
1
1
1
1
1
1
1
1
1
1
0.999998
1
1
0.999999
0.999999
1
1
1
1
1
1
1
1
1
1
1
1
1
1
1
1
1
1
1
1
1
1
1
1
1
1
1
1
1
1
1
1
1
1
1
1
1
1
1
1
1
1
1
1
1
1
1
1
1
1
1
1
1
1
1
1
1
1
1
1
1
1
1
1
1
1
1
1
1
1
1
1
1
1
1
1
1
1
1
1
1
1
1
1
1
1
1
1
1
1
1
1
1
1
1
1
1
1
1
0.999999
1
1
1
1
1
1
1
1
1
1
1
1
1
1
1
1
0.999999
0.999999
0.999999
0.999999
0.999999
1
1
1
1
1
1
1
1
1
1
1
1
0.999999
0.999999
0.999999
0.999998
0.999998
0.999998
0.999999
0.999999
0.999999
0.999999
0.999999
1
0.999999
1
1
1
1
1
1
1
0.999999
0.999999
0.999999
0.999998
0.999999
0.999999
0.999999
0.999999
0.999999
0.999999
0.999999
1
0.999999
1
1
1
1
1
1
1
1
0.999999
0.999999
0.999999
1
1
1
1
1
1
0.999998
1
)
;

boundaryField
{
    leftWall
    {
        type            alphaContactAngle;
        thetaProperties 
6
(

(
water
mercury
)
 90 0 0 0

(
water
air
)
 90 0 0 0

(
water
oil
)
 90 0 0 0

(
mercury
air
)
 90 0 0 0

(
oil
mercury
)
 90 0 0 0

(
oil
air
)
 90 0 0 0
);
        value           nonuniform 0();
    }
    rightWall
    {
        type            alphaContactAngle;
        thetaProperties 
6
(

(
water
mercury
)
 90 0 0 0

(
water
air
)
 90 0 0 0

(
water
oil
)
 90 0 0 0

(
mercury
air
)
 90 0 0 0

(
oil
mercury
)
 90 0 0 0

(
oil
air
)
 90 0 0 0
);
        value           nonuniform List<scalar> 
25
(
1
1
1
1.00001
0.999999
1.00001
1
1
1
1
1
1
1
1
1
1
1
1
1
1
1
1
1
0.999999
1
)
;
    }
    lowerWall
    {
        type            alphaContactAngle;
        thetaProperties 
6
(

(
water
mercury
)
 90 0 0 0

(
water
air
)
 90 0 0 0

(
water
oil
)
 90 0 0 0

(
mercury
air
)
 90 0 0 0

(
oil
mercury
)
 90 0 0 0

(
oil
air
)
 90 0 0 0
);
        value           nonuniform List<scalar> 
40
(
1.0171e-58
1.0171e-58
1.21541e-56
6.96156e-55
2.80345e-53
9.42938e-52
2.79783e-50
7.8396e-49
1.97358e-47
4.10648e-12
2.09972e-10
7.01997e-08
0.000400511
1.00001
1.00001
1.00001
1.00001
1
1
0.999781
0.940415
1.00001
1.00001
1.00001
1.00001
1.00001
1.00001
1
1
1
1
1
1
1
1
1
1
1
1
1
)
;
    }
    atmosphere
    {
        type            inletOutlet;
        inletValue      nonuniform 0();
        value           nonuniform 0();
    }
    defaultFaces
    {
        type            empty;
    }
    procBoundary1to0
    {
        type            processor;
        value           nonuniform List<scalar> 
26
(
3.85633e-56
4.13471e-54
2.05089e-52
6.96001e-51
1.87531e-49
4.32995e-48
8.87925e-47
1.59095e-45
1.89055e-44
2.71858e-31
2.28202e-24
2.41351e-22
1.15674e-20
3.84182e-19
1.03043e-17
2.41511e-16
5.68155e-15
5.68155e-15
6.37188e-14
6.39964e-13
6.06116e-12
5.66276e-11
5.33222e-10
5.71494e-09
2.30073e-05
0.00653064
)
;
    }
    procBoundary1to3
    {
        type            processor;
        value           nonuniform List<scalar> 
23
(
0.994882
1
1
1
1
1
1
1
1
1
1
1
1
0.999999
1
1
1
1
1
1
0.999999
1
0.999999
)
;
    }
}


// ************************************************************************* //
