/*--------------------------------*- C++ -*----------------------------------*\
| =========                 |                                                 |
| \\      /  F ield         | OpenFOAM: The Open Source CFD Toolbox           |
|  \\    /   O peration     | Version:  2.4.0                                 |
|   \\  /    A nd           | Web:      www.OpenFOAM.org                      |
|    \\/     M anipulation  |                                                 |
\*---------------------------------------------------------------------------*/
FoamFile
{
    version     2.0;
    format      ascii;
    class       volScalarField;
    location    "0.05";
    object      p;
}
// * * * * * * * * * * * * * * * * * * * * * * * * * * * * * * * * * * * * * //

dimensions      [1 -1 -2 0 0 0 0];

internalField   nonuniform List<scalar> 
559
(
1014.43
980.768
942.467
899.011
848.197
789.199
716.31
625.203
7.45031
7.65255
7.74415
7.79339
7.79461
7.76449
7.71882
7.66753
7.61596
7.56672
7.52158
7.48122
7.44597
7.41591
7.39103
7.37127
7.35654
7.34677
7.34191
7.37608
7.58964
7.69112
7.74219
7.74115
7.70849
7.66107
7.60871
7.55653
7.50703
7.46175
7.42133
7.38607
7.35602
7.33116
7.31141
7.29669
7.28694
7.28209
7.28177
7.52573
7.64558
7.69939
7.69317
7.65507
7.60429
7.54985
7.49651
7.44645
7.4009
7.36038
7.32509
7.29506
7.27023
7.25052
7.23584
7.22611
7.22127
7.16734
7.45964
7.61069
7.66644
7.65069
7.60413
7.54812
7.49072
7.43576
7.38491
7.33899
7.29833
7.26302
7.23302
7.20825
7.1886
7.17398
7.16428
7.15946
7.00104
7.39524
7.59173
7.64505
7.61339
7.5552
7.49212
7.43104
7.37414
7.32233
7.27597
7.23516
7.19984
7.1699
7.14522
7.12565
7.1111
7.10145
7.09666
6.75935
7.32166
7.59621
7.63453
7.57941
7.50659
7.43563
7.37044
7.31143
7.25859
7.21179
7.17084
7.13554
7.1057
7.08113
7.06167
7.04721
7.03763
7.03287
6.50579
7.23527
7.65348
7.63044
7.54372
7.45663
7.37785
7.30852
7.24742
7.19359
7.14639
7.10535
7.07011
7.0404
7.01598
6.99667
6.98232
6.97282
6.9681
6.00259
7.40931
7.74256
7.63073
7.50422
7.40388
7.31795
7.24484
7.18186
7.12719
7.07969
7.03864
7.00354
6.97401
6.94978
6.93064
6.91644
6.90704
6.90236
424.164
412.899
340.106
274.295
211.211
171.144
134.722
106.309
112.536
54.1228
58.6061
53.4824
297.472
210.833
137.947
56.1723
242.294
173.644
105.596
22.9225
202.931
159.719
22.5017
8.96593
125.323
36.6537
8.89962
6.81418
105.904
15.9735
6.87514
6.4974
60.3762
9.78535
6.19502
6.19338
24.5042
7.02013
5.91452
5.97384
15.1733
6.24567
5.705
5.75176
11.5435
5.79263
5.46051
5.49542
8.97131
5.3062
5.19761
5.22039
7.10057
4.93789
4.93937
4.948
5.71937
4.57104
4.66451
4.65733
4.79949
4.22582
4.38171
4.34847
4.18276
3.93858
4.07235
4.08188
3.66319
3.70947
3.7743
3.8221
3.28497
3.45935
3.50786
3.56896
5.50964
7.83913
7.85265
7.61292
7.44158
7.31638
7.22002
7.14194
7.07664
7.02102
6.97331
6.93241
6.89763
6.86849
6.84464
6.82584
6.81189
6.80267
6.79809
6.18874
7.86073
7.72567
7.46535
7.29091
7.1656
7.06823
6.98955
6.92423
6.86908
6.82212
6.78213
6.74827
6.72
6.69692
6.67875
6.66529
6.65639
6.65198
6.70332
7.30304
7.32539
7.20683
7.08783
6.98457
6.89732
6.82396
6.76198
6.70927
6.66432
6.62604
6.59367
6.56666
6.54463
6.5273
6.51446
6.50599
6.50178
6.85578
7.02387
7.02175
6.95183
6.86777
6.78589
6.71186
6.6469
6.59057
6.54195
6.50012
6.46434
6.434
6.40866
6.38797
6.37169
6.35963
6.35166
6.34771
6.74509
6.76915
6.74643
6.70147
6.64059
6.57693
6.5162
6.46077
6.41135
6.36789
6.33006
6.29742
6.26961
6.24629
6.22721
6.21217
6.20102
6.19365
6.18999
6.52722
6.50755
6.48882
6.45589
6.41111
6.36232
6.31375
6.26785
6.22583
6.18815
6.15486
6.12585
6.10094
6.07995
6.0627
6.04907
6.03895
6.03225
6.02892
6.25997
6.24809
6.23722
6.21354
6.18127
6.1447
6.10692
6.07008
6.03547
6.00378
5.97534
5.95025
5.92851
5.91006
5.89483
5.88274
5.87374
5.86777
5.8648
6.00192
5.99636
5.98956
5.97398
5.95184
5.92559
5.89739
5.86897
5.84152
5.81582
5.79233
5.77131
5.7529
5.73713
5.72402
5.71357
5.70575
5.70056
5.69798
5.75437
5.74864
5.74507
5.73651
5.72308
5.70588
5.68632
5.6657
5.64506
5.62519
5.60662
5.5897
5.57466
5.56164
5.55073
5.54197
5.53538
5.531
5.52881
5.49718
5.49881
5.50127
5.50015
5.49498
5.48614
5.47454
5.46119
5.447
5.43273
5.41895
5.40607
5.39439
5.38412
5.37541
5.36835
5.36302
5.35945
5.35766
5.23006
5.24525
5.25688
5.26445
5.26768
5.26686
5.26275
5.25623
5.24813
5.23919
5.22999
5.22102
5.21262
5.20505
5.19852
5.19315
5.18905
5.18629
5.18491
4.96284
4.99036
5.01273
5.0298
5.0416
5.04861
5.05162
5.05152
5.04913
5.04521
5.04038
5.03513
5.02987
5.02491
5.02048
5.01676
5.01387
5.0119
5.01091
4.69297
4.73582
4.77003
4.79705
4.81745
4.83204
4.8418
4.84771
4.85066
4.85143
4.85067
4.84892
4.84664
4.84415
4.84173
4.83958
4.83784
4.83663
4.83602
4.42821
4.48404
4.53028
4.56732
4.59612
4.61792
4.63395
4.64543
4.6533
4.65838
4.66137
4.66287
4.66336
4.66318
4.66264
4.66197
4.66132
4.66083
4.66057
4.16269
4.23591
4.29503
4.34184
4.37855
4.40708
4.42873
4.44526
4.45759
4.46659
4.47295
4.47741
4.48043
4.48238
4.48358
4.48427
4.48463
4.48481
4.48487
3.90628
3.99576
4.06648
4.12204
4.16573
4.20005
4.22686
4.24779
4.26403
4.27656
4.28577
4.29292
4.29822
4.30208
4.30485
4.30678
4.30807
4.30885
4.30923
3.66297
3.76628
3.8465
3.90919
3.95859
3.99772
4.02878
4.05343
4.07297
4.08838
4.10039
4.10979
4.11705
4.1226
4.12676
4.1298
4.13189
4.13322
4.13389
)
;

boundaryField
{
    leftWall
    {
        type            fixedFluxPressure;
        gradient        nonuniform 0();
        value           nonuniform 0();
    }
    rightWall
    {
        type            fixedFluxPressure;
        gradient        uniform 0;
        value           nonuniform List<scalar> 
25
(
7.34191
7.28209
7.22127
7.15946
7.09666
7.03287
6.9681
6.90236
6.79809
6.65198
6.50178
6.34771
6.18999
6.02892
5.8648
5.69798
5.52881
5.35766
5.18491
5.01091
4.83602
4.66057
4.48487
4.30923
4.13389
)
;
    }
    lowerWall
    {
        type            fixedFluxPressure;
        gradient        nonuniform List<scalar> 
40
(
4905
0
0
0
0
0
0
0
0
4905
4905
4905
4891.55
0
0
0
0
0
0
0
0
9.81
9.81
9.81
9.81
9.81
9.81
9.81
9.81
9.81
9.81
9.81
9.81
9.81
9.81
9.81
9.81
9.81
9.81
9.81
)
;
        value           nonuniform List<scalar> 
40
(
1029.15
1014.43
980.768
942.467
899.011
848.197
789.199
716.31
625.203
143.834
85.4214
89.9048
84.6952
7.45031
7.37608
7.28177
7.16734
7.00104
6.75935
6.50579
6.00259
7.47974
7.68198
7.77358
7.82282
7.82404
7.79392
7.74825
7.69695
7.64538
7.59615
7.55101
7.51065
7.4754
7.44534
7.42046
7.4007
7.38597
7.3762
7.37134
)
;
    }
    atmosphere
    {
        type            totalPressure;
        U               U.air;
        phi             phi.air;
        rho             rho;
        psi             none;
        gamma           1;
        p0              nonuniform 0();
        value           nonuniform 0();
    }
    defaultFaces
    {
        type            empty;
    }
    procBoundary1to0
    {
        type            processor;
        value           nonuniform List<scalar> 
26
(
1021.59
988.452
951.52
910.6
865.39
815.694
760.604
701.861
600.554
503.279
429.357
361.31
299.857
249.42
207.22
172.889
90.9582
90.9582
78.752
61.6315
39.4189
20.774
10.7606
6.31419
4.37083
3.79019
)
;
    }
    procBoundary1to3
    {
        type            processor;
        value           nonuniform List<scalar> 
23
(
3.02914
3.20344
3.25511
3.32747
3.43439
3.54931
3.63652
3.7043
3.75786
3.80062
3.83494
3.86256
3.88479
3.90263
3.91688
3.92822
3.93718
3.94418
3.94954
3.95353
3.95634
3.95814
3.95899
)
;
    }
}


// ************************************************************************* //
