/*--------------------------------*- C++ -*----------------------------------*\
| =========                 |                                                 |
| \\      /  F ield         | OpenFOAM: The Open Source CFD Toolbox           |
|  \\    /   O peration     | Version:  2.4.0                                 |
|   \\  /    A nd           | Web:      www.OpenFOAM.org                      |
|    \\/     M anipulation  |                                                 |
\*---------------------------------------------------------------------------*/
FoamFile
{
    version     2.0;
    format      ascii;
    class       surfaceScalarField;
    location    "0.05";
    object      phi;
}
// * * * * * * * * * * * * * * * * * * * * * * * * * * * * * * * * * * * * * //

dimensions      [0 3 -1 0 0 0 0];

internalField   nonuniform List<scalar> 
1061
(
9.93191e-06
2.02348e-05
3.13114e-05
4.36636e-05
5.82029e-05
7.57731e-05
9.83955e-05
0.000128484
-1.53057e-07
1.5288e-07
6.62992e-06
-6.78321e-06
1.32373e-05
-6.60763e-06
1.76863e-05
-4.44919e-06
1.97701e-05
-2.08396e-06
2.01431e-05
-3.73175e-07
1.94978e-05
6.45208e-07
1.82087e-05
1.28898e-06
1.6618e-05
1.59058e-06
1.4898e-05
1.71995e-06
1.31354e-05
1.7625e-06
1.13789e-05
1.7565e-06
9.65199e-06
1.72684e-06
7.96384e-06
1.68809e-06
6.31512e-06
1.64866e-06
4.70162e-06
1.61345e-06
3.11632e-06
1.58524e-06
1.55101e-06
1.56526e-06
1.55097e-06
-6.77431e-07
8.30008e-07
6.7972e-06
-1.42582e-05
1.3947e-05
-1.37578e-05
1.85365e-05
-9.03897e-06
2.05629e-05
-4.11065e-06
2.08121e-05
-6.22655e-07
2.00215e-05
1.43565e-06
1.86595e-05
2.65081e-06
1.70101e-05
3.2399e-06
1.52347e-05
3.49519e-06
1.34239e-05
3.57325e-06
1.1624e-05
3.55631e-06
9.85719e-06
3.49355e-06
8.13165e-06
3.41355e-06
6.44739e-06
3.33285e-06
4.79969e-06
3.26108e-06
3.18107e-06
3.20379e-06
1.58214e-06
3.16413e-06
3.13305e-06
-2.15135e-06
2.98113e-06
6.54179e-06
-2.29515e-05
1.46867e-05
-2.19029e-05
1.93985e-05
-1.3751e-05
2.12021e-05
-5.91436e-06
2.12132e-05
-6.33956e-07
2.02335e-05
2.41521e-06
1.87716e-05
4.11267e-06
1.70634e-05
4.94799e-06
1.52548e-05
5.30382e-06
1.34259e-05
5.40206e-06
1.16169e-05
5.36522e-06
9.84628e-06
5.26415e-06
8.11993e-06
5.13984e-06
6.43665e-06
5.01608e-06
4.79097e-06
4.90671e-06
3.17496e-06
4.81975e-06
1.57916e-06
4.75989e-06
4.71218e-06
-5.13573e-06
8.11645e-06
5.95498e-06
-3.40427e-05
1.59311e-05
-3.18795e-05
2.07731e-05
-1.85934e-05
2.21538e-05
-7.29546e-06
2.17757e-05
-2.56131e-07
2.05443e-05
3.64644e-06
1.89249e-05
5.73189e-06
1.71291e-05
6.74359e-06
1.52732e-05
7.15961e-06
1.34197e-05
7.25555e-06
1.15989e-05
7.18588e-06
9.82398e-06
7.03902e-06
8.09767e-06
6.86607e-06
6.41695e-06
6.69672e-06
4.7753e-06
6.5483e-06
3.16415e-06
6.43082e-06
1.57375e-06
6.35023e-06
6.28587e-06
-9.26193e-06
1.73783e-05
5.43989e-06
-4.87447e-05
1.81688e-05
-4.46085e-05
2.28126e-05
-2.32373e-05
2.3431e-05
-7.91396e-06
2.24976e-05
6.77111e-07
2.09268e-05
5.2172e-06
1.91105e-05
7.54817e-06
1.72058e-05
8.64829e-06
1.52913e-05
9.07403e-06
1.34074e-05
9.1394e-06
1.15725e-05
9.02073e-06
9.79278e-06
8.81875e-06
8.06707e-06
8.59174e-06
6.39011e-06
8.37365e-06
4.75405e-06
8.18433e-06
3.14954e-06
8.0353e-06
1.56638e-06
7.93336e-06
7.85224e-06
-1.2384e-05
2.9762e-05
7.30543e-06
-6.84345e-05
2.29502e-05
-6.02537e-05
2.59874e-05
-2.62748e-05
2.50615e-05
-6.98838e-06
2.33378e-05
2.40056e-06
2.13557e-05
7.19915e-06
1.93129e-05
9.59085e-06
1.72846e-05
1.06765e-05
1.53041e-05
1.10544e-05
1.33865e-05
1.10569e-05
1.15363e-05
1.08708e-05
9.75188e-06
1.06031e-05
8.02773e-06
1.03158e-05
6.35593e-06
1.00454e-05
4.72713e-06
9.81307e-06
3.13109e-06
9.63128e-06
1.55705e-06
9.50733e-06
9.40922e-06
-7.71389e-07
3.05328e-05
1.71517e-05
-8.63579e-05
3.01068e-05
-7.32091e-05
2.95663e-05
-2.57346e-05
2.68367e-05
-4.25899e-06
2.42301e-05
5.0069e-06
2.17979e-05
9.63121e-06
1.95137e-05
1.1875e-05
1.73552e-05
1.28348e-05
1.53057e-05
1.31038e-05
1.33535e-05
1.30091e-05
1.14882e-05
1.2736e-05
9.70011e-06
1.23911e-05
7.97891e-06
1.20369e-05
6.31397e-06
1.17103e-05
4.69428e-06
1.14327e-05
3.10864e-06
1.12168e-05
1.5457e-06
1.10702e-05
1.09549e-05
4.48344e-05
-1.43016e-05
5.25532e-05
-9.40769e-05
3.9865e-05
-6.05208e-05
3.29046e-05
-1.87745e-05
2.84967e-05
1.48839e-07
2.5089e-05
8.41448e-06
2.22141e-05
1.25061e-05
1.96925e-05
1.43965e-05
1.74065e-05
1.51207e-05
1.52901e-05
1.52201e-05
1.33049e-05
1.49943e-05
1.14264e-05
1.46145e-05
9.6364e-06
1.4181e-05
7.92006e-06
1.37532e-05
6.26392e-06
1.33664e-05
4.65535e-06
1.30412e-05
3.08214e-06
1.279e-05
1.53235e-06
1.262e-05
1.24872e-05
5.6895e-05
0.000193945
1.52703e-05
0.000166559
-1.90263e-05
0.000156257
-4.06402e-05
0.000138002
-5.4868e-05
0.000120524
-6.34304e-05
0.000103142
-6.96918e-05
8.95838e-05
7.66934e-05
0.00017668
1.72657e-05
0.00017073
5.94985e-06
0.000170445
2.84388e-07
-8.81666e-06
0.000179262
0.00018429
-4.65534e-07
0.000196984
-6.74442e-06
0.000207445
-1.01769e-05
-1.78622e-05
0.000216491
0.000169524
-1.37327e-05
0.000178275
-1.5495e-05
0.000188366
-2.02677e-05
-3.21934e-05
0.000202698
0.000146478
-2.22084e-05
0.000154914
-2.39306e-05
0.000175173
-4.05251e-05
-3.35132e-05
0.000176493
0.000127156
-2.88407e-05
0.00013787
-3.46438e-05
0.00015342
-5.60733e-05
-1.19956e-07
0.000120024
0.00010658
-3.22793e-05
0.00011332
-4.13824e-05
0.000102963
-4.57164e-05
1.90386e-05
8.38033e-05
9.39018e-05
-3.65972e-05
0.000100038
-4.75178e-05
7.84177e-05
-2.40967e-05
3.14333e-05
6.60228e-05
7.99255e-05
-3.98293e-05
7.95951e-05
-4.7187e-05
6.02727e-05
-4.7747e-06
3.88886e-05
5.28174e-05
6.71565e-05
-4.1679e-05
6.56422e-05
-4.56725e-05
4.99257e-05
1.09415e-05
4.42908e-05
4.45235e-05
5.78229e-05
-4.28675e-05
5.56183e-05
-4.34679e-05
4.06771e-05
2.58825e-05
4.83814e-05
3.65866e-05
5.06573e-05
-4.36225e-05
4.05441e-05
-3.33547e-05
2.9495e-05
3.69315e-05
5.04929e-05
2.73835e-05
4.33888e-05
-4.38721e-05
2.88906e-05
-1.88566e-05
2.09809e-05
4.48411e-05
5.21849e-05
1.92889e-05
3.53702e-05
-4.37892e-05
1.68587e-05
-3.45045e-07
1.19779e-05
4.97219e-05
5.34574e-05
1.07054e-05
2.68994e-05
-4.31884e-05
6.75221e-06
1.98021e-05
2.48902e-06
5.3985e-05
5.36213e-05
2.3251e-06
1.68961e-05
-4.00169e-05
-3.18698e-06
3.98852e-05
-6.29312e-06
5.70912e-05
5.39424e-05
-6.61428e-06
-1.02521e-06
-2.61437e-05
-1.6392e-05
5.52521e-05
-1.70722e-05
5.77713e-05
5.44327e-05
-1.75625e-05
-3.1628e-05
-3.25114e-05
-3.19136e-05
-3.05791e-05
0.000220839
-5.58789e-05
0.000174642
-4.78796e-05
0.000114509
-3.87176e-07
8.31225e-05
1.26119e-05
6.66029e-05
1.66684e-05
5.60923e-05
1.89251e-05
4.84761e-05
2.01223e-05
4.23572e-05
2.05153e-05
3.71005e-05
2.03775e-05
3.23953e-05
1.99253e-05
2.80764e-05
1.93131e-05
2.40464e-05
1.86445e-05
2.02414e-05
1.7986e-05
1.66146e-05
1.73799e-05
1.31287e-05
1.68522e-05
9.75142e-06
1.64185e-05
6.45361e-06
1.60878e-05
3.20785e-06
1.58657e-05
1.5695e-05
0.000245738
-8.51255e-05
0.000165451
3.24063e-05
0.000112548
5.25174e-05
8.48368e-05
4.03229e-05
6.82565e-05
3.32488e-05
5.70778e-05
3.01039e-05
4.88261e-05
2.8374e-05
4.22638e-05
2.70776e-05
3.67412e-05
2.59e-05
3.19e-05
2.47664e-05
2.75321e-05
2.3681e-05
2.35092e-05
2.26674e-05
1.97463e-05
2.17488e-05
1.61832e-05
2.0943e-05
1.27739e-05
2.02615e-05
9.48088e-06
1.97115e-05
6.27153e-06
1.92971e-05
3.11649e-06
1.90207e-05
1.88115e-05
0.000136328
-1.87567e-05
0.000104553
6.41817e-05
9.08018e-05
6.62688e-05
7.72202e-05
5.39047e-05
6.5266e-05
4.52032e-05
5.5568e-05
3.9802e-05
4.77511e-05
3.61909e-05
4.13031e-05
3.35257e-05
3.58185e-05
3.13845e-05
3.10158e-05
2.95692e-05
2.67054e-05
2.79913e-05
2.27592e-05
2.66135e-05
1.90878e-05
2.54202e-05
1.56261e-05
2.44046e-05
1.23242e-05
2.35633e-05
9.14194e-06
2.28938e-05
6.04509e-06
2.23939e-05
3.0033e-06
2.20624e-05
2.18148e-05
0.000106702
5.10318e-05
8.85369e-05
8.2347e-05
7.94514e-05
7.53546e-05
6.99629e-05
6.33933e-05
6.07221e-05
5.44441e-05
5.25527e-05
4.79715e-05
4.55485e-05
4.31952e-05
3.95454e-05
3.95289e-05
3.43329e-05
3.6597e-05
2.97259e-05
3.41762e-05
2.55792e-05
3.2138e-05
2.17837e-05
3.0409e-05
1.82575e-05
2.89464e-05
1.49381e-05
2.7724e-05
1.17766e-05
2.67248e-05
8.73302e-06
2.59373e-05
5.77349e-06
2.53534e-05
2.86802e-06
2.49679e-05
2.46828e-05
8.58863e-05
8.51696e-05
7.60033e-05
9.22303e-05
6.96884e-05
8.16697e-05
6.25801e-05
7.05018e-05
5.53557e-05
6.16688e-05
4.86007e-05
5.47265e-05
4.25268e-05
4.92693e-05
3.71371e-05
4.49186e-05
3.23487e-05
4.13853e-05
2.80572e-05
3.84676e-05
2.41644e-05
3.60308e-05
2.05871e-05
3.39864e-05
1.72574e-05
3.22761e-05
1.41206e-05
3.08607e-05
1.11323e-05
2.97131e-05
8.25524e-06
2.88144e-05
5.4576e-06
2.81511e-05
2.71105e-06
2.77144e-05
2.73939e-05
7.02891e-05
9.8684e-05
6.52388e-05
9.72807e-05
6.07528e-05
8.61559e-05
5.53254e-05
7.59294e-05
4.96367e-05
6.73577e-05
4.41058e-05
6.02576e-05
3.8949e-05
5.44261e-05
3.42364e-05
4.96312e-05
2.99565e-05
4.56652e-05
2.60611e-05
4.23631e-05
2.24906e-05
3.96012e-05
1.91872e-05
3.72898e-05
1.6099e-05
3.53643e-05
1.31815e-05
3.37781e-05
1.03968e-05
3.24978e-05
7.71238e-06
3.14988e-05
5.09981e-06
3.07636e-05
2.53362e-06
3.02806e-05
2.99275e-05
5.91098e-05
0.000105597
5.5978e-05
0.000100413
5.25136e-05
8.96205e-05
4.83037e-05
8.01396e-05
4.38061e-05
7.18554e-05
3.93152e-05
6.47486e-05
3.50121e-05
5.87293e-05
3.09829e-05
5.36605e-05
2.72496e-05
4.93984e-05
2.37983e-05
4.58144e-05
2.05977e-05
4.28018e-05
1.76107e-05
4.02768e-05
1.48005e-05
3.81744e-05
1.21334e-05
3.64452e-05
9.57907e-06
3.50522e-05
7.1106e-06
3.39673e-05
4.70405e-06
3.31702e-05
2.33757e-06
3.26471e-05
3.2265e-05
4.94841e-05
0.000108931
4.75215e-05
0.000102376
4.47956e-05
9.23465e-05
4.15198e-05
8.34155e-05
3.7979e-05
7.53963e-05
3.4378e-05
6.83496e-05
3.08551e-05
6.22523e-05
2.74887e-05
5.70269e-05
2.43125e-05
5.25747e-05
2.13304e-05
4.87964e-05
1.85296e-05
4.56026e-05
1.58891e-05
4.29173e-05
1.33848e-05
4.06786e-05
1.09929e-05
3.88371e-05
8.69092e-06
3.73542e-05
6.45808e-06
3.62001e-05
4.27542e-06
3.53528e-05
2.12544e-06
3.47971e-05
3.43905e-05
4.14838e-05
0.00011197
3.97573e-05
0.000104102
3.75164e-05
9.45875e-05
3.49574e-05
8.59747e-05
3.22071e-05
7.81467e-05
2.9382e-05
7.11748e-05
2.65732e-05
6.50611e-05
2.38407e-05
5.97593e-05
2.12172e-05
5.51982e-05
1.87143e-05
5.12993e-05
1.63304e-05
4.79865e-05
1.40559e-05
4.51919e-05
1.1877e-05
4.28575e-05
9.77877e-06
4.09354e-05
7.74607e-06
3.93869e-05
5.76439e-06
3.81818e-05
3.82005e-06
3.72971e-05
1.90013e-06
3.67169e-05
3.62906e-05
3.38344e-05
0.000114723
3.2289e-05
0.000105647
3.04925e-05
9.63841e-05
2.85554e-05
8.79117e-05
2.65007e-05
8.02015e-05
2.43761e-05
7.32994e-05
2.22311e-05
6.72061e-05
2.01051e-05
6.18854e-05
1.80238e-05
5.72795e-05
1.60012e-05
5.33219e-05
1.40419e-05
4.99458e-05
1.21443e-05
4.70895e-05
1.03031e-05
4.46987e-05
8.51091e-06
4.27276e-05
6.75939e-06
4.11384e-05
5.0401e-06
3.9901e-05
3.34466e-06
3.89925e-05
1.66499e-06
3.83966e-05
3.79555e-05
2.59135e-05
0.000116192
2.4823e-05
0.000106738
2.35716e-05
9.76355e-05
2.22508e-05
8.92326e-05
2.08539e-05
8.15983e-05
1.93892e-05
7.47641e-05
1.78754e-05
6.87198e-05
1.6334e-05
6.34268e-05
1.47833e-05
5.88302e-05
1.32368e-05
5.48684e-05
1.17031e-05
5.14795e-05
1.01867e-05
4.86058e-05
8.68917e-06
4.61963e-05
7.2097e-06
4.4207e-05
5.74631e-06
4.26017e-05
4.29626e-06
4.13511e-05
2.85641e-06
4.04324e-05
1.42346e-06
3.98295e-05
3.9379e-05
1.81425e-05
0.000117339
1.73969e-05
0.000107484
1.67046e-05
9.83278e-05
1.601e-05
8.99271e-05
1.5265e-05
8.23433e-05
1.44441e-05
7.5585e-05
1.35436e-05
6.96202e-05
1.25714e-05
6.4399e-05
1.15399e-05
5.98618e-05
1.04621e-05
5.59462e-05
9.3502e-06
5.25915e-05
8.21385e-06
4.97422e-05
7.06045e-06
4.73497e-05
5.89534e-06
4.53722e-05
4.72232e-06
4.37748e-05
3.54408e-06
4.25293e-05
2.36253e-06
4.16139e-05
1.17915e-06
4.10129e-05
4.05581e-05
1.01802e-05
0.000117864
9.92421e-06
0.00010774
9.84383e-06
9.84082e-05
9.81365e-06
8.99573e-05
9.74029e-06
8.24167e-05
9.56503e-06
7.57602e-05
9.27101e-06
6.99143e-05
8.85758e-06
6.48124e-05
8.33421e-06
6.03852e-05
7.71537e-06
5.6565e-05
7.01716e-06
5.32897e-05
6.25477e-06
5.05046e-05
5.44118e-06
4.81633e-05
4.58734e-06
4.6226e-05
3.70251e-06
4.46596e-05
2.79454e-06
4.34373e-05
1.87022e-06
4.25382e-05
9.35531e-07
4.19475e-05
4.14936e-05
2.03274e-06
0.000118156
2.32695e-06
0.000107445
2.9491e-06
9.7786e-05
3.65555e-06
8.92508e-05
4.29834e-06
8.17739e-05
4.78232e-06
7.52762e-05
5.09502e-06
6.96016e-05
5.23271e-06
6.46747e-05
5.20569e-06
6.04122e-05
5.03267e-06
5.67381e-05
4.73599e-06
5.35864e-05
4.33711e-06
5.09035e-05
3.85444e-06
4.8646e-05
3.30441e-06
4.6776e-05
2.70144e-06
4.52625e-05
2.05823e-06
4.40805e-05
1.38627e-06
4.32101e-05
6.96028e-07
4.26377e-05
4.21896e-05
-6.57586e-06
0.000118118
-5.49101e-06
0.00010636
-3.99631e-06
9.62913e-05
-2.45992e-06
8.77144e-05
-1.07839e-06
8.03923e-05
1.14302e-07
7.40835e-05
1.04923e-06
6.86667e-05
1.73457e-06
6.39894e-05
2.19201e-06
5.99548e-05
2.4487e-06
5.64815e-05
2.5368e-06
5.34984e-05
2.48683e-06
5.09535e-05
2.32197e-06
4.88109e-05
2.06418e-06
4.70338e-05
1.73287e-06
4.55939e-05
1.34511e-06
4.44683e-05
9.17284e-07
4.3638e-05
4.64168e-07
4.30908e-05
4.26538e-05
-1.61566e-05
0.000116712
-1.36887e-05
0.000103892
-1.09761e-05
9.35786e-05
-8.42086e-06
8.51591e-05
-6.17682e-06
7.81482e-05
-4.30896e-06
7.22156e-05
-2.79452e-06
6.71522e-05
-1.60611e-06
6.2801e-05
-6.98024e-07
5.90468e-05
-2.55625e-08
5.5809e-05
4.40339e-07
5.30325e-05
7.2494e-07
5.0669e-05
8.62377e-07
4.86735e-05
8.82213e-07
4.7014e-05
8.09325e-07
4.56668e-05
6.64048e-07
4.46136e-05
4.68655e-07
4.38334e-05
2.39754e-07
4.33197e-05
4.28936e-05
-2.65633e-05
-2.20467e-05
-1.78333e-05
-1.41455e-05
-1.10246e-05
-8.44289e-06
-6.33903e-06
-4.64887e-06
-3.3142e-06
-2.28195e-06
-1.50061e-06
-9.23562e-07
-5.13293e-07
-2.38699e-07
-7.10256e-08
1.83489e-08
4.37239e-08
2.68787e-08
)
;

boundaryField
{
    leftWall
    {
        type            calculated;
        value           nonuniform 0();
    }
    rightWall
    {
        type            calculated;
        value           uniform 0;
    }
    lowerWall
    {
        type            calculated;
        value           nonuniform List<scalar> 
40
(
4.93308e-26
0
0
0
0
0
0
0
0
-2.1724e-22
-1.44743e-22
2.18736e-23
8.23045e-23
0
0
0
0
0
0
0
0
-4.23081e-22
7.55145e-23
1.3675e-24
1.11369e-27
4.23516e-22
4.11448e-35
4.93243e-39
-4.23516e-22
3.9298e-47
2.32953e-51
9.95505e-56
2.96263e-60
5.92168e-65
4.23516e-22
5.96675e-75
2.62724e-80
-4.23516e-22
4.23516e-22
9.30243e-99
)
;
    }
    atmosphere
    {
        type            calculated;
        value           nonuniform 0();
    }
    defaultFaces
    {
        type            empty;
        value           nonuniform 0();
    }
    procBoundary1to0
    {
        type            processor;
        value           nonuniform List<scalar> 
26
(
-9.9319e-06
-1.03028e-05
-1.10766e-05
-1.23522e-05
-1.45393e-05
-1.75702e-05
-2.26224e-05
-3.00889e-05
-0.000122356
-0.000124934
-0.00012196
-0.000116388
-0.000106296
-9.45795e-05
-8.33225e-05
-7.26335e-05
-7.37516e-05
-6.53068e-05
-5.66343e-05
-4.99022e-05
-4.31391e-05
-3.54531e-05
-2.75002e-05
-2.00675e-05
-1.2848e-05
-4.42378e-06
)
;
    }
    procBoundary1to3
    {
        type            processor;
        value           nonuniform List<scalar> 
23
(
9.90817e-06
5.61356e-05
5.71734e-05
5.30982e-05
0.000112696
9.93757e-05
8.9365e-05
8.14713e-05
7.50273e-05
6.96338e-05
6.50483e-05
6.11109e-05
5.77121e-05
5.47768e-05
5.22512e-05
5.00919e-05
4.82632e-05
4.67394e-05
4.54991e-05
4.45242e-05
4.3808e-05
4.33367e-05
4.29204e-05
)
;
    }
}


// ************************************************************************* //
