/*--------------------------------*- C++ -*----------------------------------*\
| =========                 |                                                 |
| \\      /  F ield         | OpenFOAM: The Open Source CFD Toolbox           |
|  \\    /   O peration     | Version:  2.4.0                                 |
|   \\  /    A nd           | Web:      www.OpenFOAM.org                      |
|    \\/     M anipulation  |                                                 |
\*---------------------------------------------------------------------------*/
FoamFile
{
    version     2.0;
    format      ascii;
    class       surfaceScalarField;
    location    "0.05";
    object      phi.water;
}
// * * * * * * * * * * * * * * * * * * * * * * * * * * * * * * * * * * * * * //

dimensions      [0 3 -1 0 0 0 0];

internalField   nonuniform List<scalar> 
1061
(
9.92771e-06
2.02231e-05
3.12968e-05
4.36423e-05
5.81809e-05
7.57476e-05
9.83674e-05
0.00012845
-1.54164e-07
1.49994e-07
6.63101e-06
-6.79106e-06
1.32393e-05
-6.6151e-06
1.76883e-05
-4.45596e-06
1.97717e-05
-2.08823e-06
2.01436e-05
-3.7549e-07
1.94969e-05
6.43903e-07
1.82067e-05
1.28797e-06
1.66154e-05
1.58963e-06
1.4895e-05
1.71893e-06
1.31324e-05
1.76147e-06
1.13759e-05
1.75539e-06
9.6493e-06
1.72575e-06
7.96146e-06
1.68699e-06
6.31316e-06
1.6476e-06
4.70007e-06
1.61239e-06
3.11525e-06
1.58422e-06
1.55042e-06
1.56424e-06
1.54998e-06
-6.79205e-07
8.08271e-07
6.79843e-06
-1.42787e-05
1.39492e-05
-1.37821e-05
1.85389e-05
-9.05714e-06
2.05649e-05
-4.12062e-06
2.08129e-05
-6.28008e-07
2.00207e-05
1.43226e-06
1.86575e-05
2.64803e-06
1.70073e-05
3.23728e-06
1.52316e-05
3.49259e-06
1.34208e-05
3.57068e-06
1.1621e-05
3.55377e-06
9.85446e-06
3.49109e-06
8.12925e-06
3.41117e-06
6.4454e-06
3.33057e-06
4.79813e-06
3.25888e-06
3.17999e-06
3.20168e-06
1.58155e-06
3.16207e-06
3.13101e-06
-2.15275e-06
2.96424e-06
6.54256e-06
-2.29762e-05
1.469e-05
-2.19321e-05
1.94025e-05
-1.37729e-05
2.1205e-05
-5.92607e-06
2.12144e-05
-6.40007e-07
2.0233e-05
2.41132e-06
1.87697e-05
4.10938e-06
1.70607e-05
4.94479e-06
1.52517e-05
5.30048e-06
1.34228e-05
5.39867e-06
1.1614e-05
5.36177e-06
9.84359e-06
5.26075e-06
8.11757e-06
5.13648e-06
6.43469e-06
5.01283e-06
4.78943e-06
4.90354e-06
3.1739e-06
4.81667e-06
1.57858e-06
4.75687e-06
4.70922e-06
-5.13772e-06
8.09453e-06
5.95594e-06
-3.40753e-05
1.59365e-05
-3.19468e-05
2.07787e-05
-1.86267e-05
2.21577e-05
-7.30892e-06
2.17773e-05
-2.63606e-07
2.05437e-05
3.64076e-06
1.89229e-05
5.72673e-06
1.71264e-05
6.73852e-06
1.52701e-05
7.15452e-06
1.34165e-05
7.25051e-06
1.15959e-05
7.18091e-06
9.82127e-06
7.0342e-06
8.09531e-06
6.86141e-06
6.41499e-06
6.69226e-06
4.77376e-06
6.544e-06
3.16309e-06
6.42668e-06
1.57317e-06
6.34619e-06
6.28188e-06
-9.24931e-06
1.73253e-05
5.60058e-06
-4.87757e-05
1.83504e-05
-4.72328e-05
2.28328e-05
-2.49412e-05
2.34358e-05
-7.93329e-06
2.24996e-05
6.71252e-07
2.09265e-05
5.21246e-06
1.91086e-05
7.54338e-06
1.7203e-05
8.64319e-06
1.52883e-05
9.06867e-06
1.34043e-05
9.13388e-06
1.15696e-05
9.01517e-06
9.79013e-06
8.81323e-06
8.06477e-06
8.58633e-06
6.3882e-06
8.36839e-06
4.75256e-06
8.17921e-06
3.14851e-06
8.03032e-06
1.56582e-06
7.92849e-06
7.84748e-06
-1.14336e-05
2.69439e-05
1.77875e-05
-6.3423e-05
3.73684e-05
-7.14481e-05
2.9077e-05
-3.04478e-05
2.50776e-05
-7.03302e-06
2.33397e-05
2.39546e-06
2.13553e-05
7.19417e-06
1.93109e-05
9.58509e-06
1.72818e-05
1.06701e-05
1.5301e-05
1.10476e-05
1.33834e-05
1.105e-05
1.15334e-05
1.08639e-05
9.74923e-06
1.05963e-05
8.02543e-06
1.03092e-05
6.35403e-06
1.0039e-05
4.72565e-06
9.80687e-06
3.13007e-06
9.62527e-06
1.5565e-06
9.50148e-06
9.4034e-06
3.16072e-05
-1.08791e-05
6.92089e-05
-6.73944e-05
7.08732e-05
-8.30663e-05
3.21488e-05
-2.70595e-05
2.6857e-05
-4.26875e-06
2.42321e-05
5.00463e-06
2.17973e-05
9.62668e-06
1.95116e-05
1.18687e-05
1.73523e-05
1.28274e-05
1.53026e-05
1.30957e-05
1.33503e-05
1.30009e-05
1.14853e-05
1.27278e-05
9.69749e-06
1.23831e-05
7.97665e-06
1.20292e-05
6.3121e-06
1.17028e-05
4.69284e-06
1.14254e-05
3.10765e-06
1.12098e-05
1.54516e-06
1.10633e-05
1.09482e-05
9.10811e-05
-2.4372e-05
0.00010465
-7.67e-05
5.37304e-05
-6.66615e-05
3.29303e-05
-1.87943e-05
2.85031e-05
1.54675e-07
2.50909e-05
8.4157e-06
2.22132e-05
1.2503e-05
1.96902e-05
1.43905e-05
1.74035e-05
1.51129e-05
1.52869e-05
1.52114e-05
1.33018e-05
1.49852e-05
1.14235e-05
1.46054e-05
9.63382e-06
1.41721e-05
7.91785e-06
1.37446e-05
6.26211e-06
1.3358e-05
4.65395e-06
1.30331e-05
3.08118e-06
1.27822e-05
1.53184e-06
1.26124e-05
1.24796e-05
5.68819e-05
0.000193909
1.52738e-05
0.000166538
-1.9027e-05
0.000156253
-4.06351e-05
0.000137995
-5.48666e-05
0.000120526
-6.34329e-05
0.00010314
-6.96925e-05
8.94644e-05
7.56699e-05
0.000176648
1.72668e-05
0.000170719
5.93388e-06
0.000170446
2.74256e-07
-8.80729e-06
0.000163969
0.000184273
-4.61904e-07
0.00019698
-6.76863e-06
0.000207223
-1.02109e-05
-1.99412e-05
0.00018984
0.000169527
-1.37324e-05
0.000178184
-1.5497e-05
0.000164439
-2.19868e-05
-4.12061e-05
0.000164075
0.000146469
-2.22045e-05
0.000142239
-2.42079e-05
0.000129346
-4.37154e-05
-6.84696e-05
0.000132872
0.00012625
-2.88391e-05
9.78388e-05
-3.51689e-05
9.68548e-05
-5.95141e-05
-5.55997e-05
9.57938e-05
9.70651e-05
-3.22972e-05
7.39546e-05
-4.21211e-05
7.09443e-05
-6.26581e-05
-1.56365e-05
7.43331e-05
6.92657e-05
-3.67234e-05
5.69291e-05
-4.85245e-05
5.3892e-05
-5.55038e-05
1.81131e-05
6.21675e-05
5.0657e-05
-3.99661e-05
4.32171e-05
-4.79611e-05
4.25299e-05
-4.38452e-05
3.54072e-05
5.18482e-05
3.88611e-05
-4.18274e-05
3.4414e-05
-4.76201e-05
3.66616e-05
-2.75621e-05
4.355e-05
4.43023e-05
2.99288e-05
-4.31104e-05
2.79154e-05
-5.04446e-05
3.19698e-05
-6.98032e-06
4.82655e-05
3.65581e-05
2.29072e-05
-4.39973e-05
2.14155e-05
-4.69346e-05
2.57199e-05
1.43227e-05
5.04621e-05
2.73881e-05
1.75262e-05
-4.44367e-05
1.62934e-05
-4.34792e-05
1.9593e-05
3.24566e-05
5.21615e-05
1.92994e-05
1.35227e-05
-4.45499e-05
1.10122e-05
-3.66014e-05
1.17572e-05
4.53912e-05
5.34369e-05
1.07204e-05
1.02744e-05
-4.43293e-05
5.94744e-06
-2.34912e-05
2.51358e-06
5.34932e-05
5.36057e-05
2.34353e-06
7.09867e-06
-4.32453e-05
-1.30883e-06
1.2084e-06
-6.27321e-06
5.7079e-05
5.39314e-05
-6.59462e-06
2.61311e-06
-3.98149e-05
-1.51564e-05
4.8046e-05
-1.70543e-05
5.77659e-05
5.44257e-05
-1.75453e-05
-8.78471e-06
-3.24915e-05
-3.18979e-05
-3.05618e-05
0.000208371
-5.3022e-05
0.000250999
-9.34338e-05
0.000121063
-1.63918e-05
8.3155e-05
1.26657e-05
6.66147e-05
1.66926e-05
5.60938e-05
1.89346e-05
4.84726e-05
2.01229e-05
4.23513e-05
2.05108e-05
3.70936e-05
2.03699e-05
3.23883e-05
1.99161e-05
2.80698e-05
1.93033e-05
2.40404e-05
1.86343e-05
2.02361e-05
1.79759e-05
1.66101e-05
1.73701e-05
1.31251e-05
1.68426e-05
9.74862e-06
1.64092e-05
6.4517e-06
1.60787e-05
3.20678e-06
1.58568e-05
1.56863e-05
0.000233897
-8.86311e-05
0.000235741
-8.39396e-05
0.000113598
5.05767e-05
8.48484e-05
4.04089e-05
6.82559e-05
3.32808e-05
5.7072e-05
3.01156e-05
4.88183e-05
2.83751e-05
4.22555e-05
2.70728e-05
3.67331e-05
2.58918e-05
3.18925e-05
2.47564e-05
2.75253e-05
2.367e-05
2.35032e-05
2.26561e-05
1.97412e-05
2.17376e-05
1.6179e-05
2.09319e-05
1.27705e-05
2.02507e-05
9.47829e-06
1.9701e-05
6.26975e-06
1.92869e-05
3.11556e-06
1.90107e-05
1.88016e-05
0.000188141
-0.000117207
0.000107674
3.4446e-05
9.0744e-05
6.63618e-05
7.71967e-05
5.39468e-05
6.52494e-05
4.52218e-05
5.55538e-05
3.98074e-05
4.77385e-05
3.61883e-05
4.1292e-05
3.35183e-05
3.58089e-05
3.13744e-05
3.10075e-05
2.95575e-05
2.66983e-05
2.7979e-05
2.27533e-05
2.66009e-05
1.90829e-05
2.54077e-05
1.56221e-05
2.43924e-05
1.23211e-05
2.35515e-05
9.13956e-06
2.28823e-05
6.0435e-06
2.23827e-05
3.0024e-06
2.20513e-05
2.18039e-05
0.000113169
-6.51524e-05
8.83938e-05
8.19042e-05
7.93853e-05
7.53704e-05
6.99235e-05
6.33986e-05
6.06946e-05
5.44438e-05
5.25319e-05
4.79659e-05
4.5532e-05
4.31859e-05
3.9532e-05
3.95172e-05
3.4322e-05
3.65839e-05
2.9717e-05
3.41623e-05
2.5572e-05
3.21239e-05
2.17778e-05
3.03951e-05
1.82527e-05
2.89327e-05
1.49343e-05
2.77107e-05
1.17737e-05
2.67119e-05
8.73087e-06
2.59248e-05
5.77203e-06
2.53412e-05
2.86728e-06
2.4956e-05
2.4671e-05
8.26632e-05
5.0104e-05
7.58981e-05
9.21744e-05
6.96233e-05
8.16346e-05
6.25361e-05
7.04769e-05
5.53241e-05
6.16497e-05
4.85769e-05
5.47091e-05
4.25083e-05
4.92524e-05
3.71226e-05
4.49019e-05
3.23373e-05
4.13688e-05
2.80482e-05
3.84514e-05
2.41573e-05
3.60149e-05
2.05814e-05
3.3971e-05
1.72529e-05
3.22613e-05
1.41172e-05
3.08464e-05
1.11297e-05
2.96994e-05
8.25334e-06
2.88011e-05
5.45638e-06
2.81381e-05
2.71035e-06
2.77017e-05
2.73814e-05
6.96869e-05
9.4047e-05
6.51695e-05
9.72045e-05
6.07012e-05
8.60944e-05
5.5286e-05
7.58854e-05
4.96066e-05
6.73242e-05
4.40824e-05
6.023e-05
3.89307e-05
5.44022e-05
3.42221e-05
4.96096e-05
2.99453e-05
4.56453e-05
2.60523e-05
4.23445e-05
2.24838e-05
3.95836e-05
1.9182e-05
3.72731e-05
1.6095e-05
3.53484e-05
1.31785e-05
3.37631e-05
1.03945e-05
3.24833e-05
7.71077e-06
3.14848e-05
5.09875e-06
3.075e-05
2.53311e-06
3.02674e-05
2.99143e-05
5.90103e-05
0.000105158
5.59388e-05
0.000100331
5.24771e-05
8.95516e-05
4.82728e-05
8.00863e-05
4.37809e-05
7.18131e-05
3.92949e-05
6.47141e-05
3.49958e-05
5.87001e-05
3.09699e-05
5.36351e-05
2.72394e-05
4.93758e-05
2.37904e-05
4.57938e-05
2.05916e-05
4.27828e-05
1.76061e-05
4.02591e-05
1.47971e-05
3.81577e-05
1.21309e-05
3.64295e-05
9.57723e-06
3.50372e-05
7.10932e-06
3.39528e-05
4.70325e-06
3.31562e-05
2.33713e-06
3.26333e-05
3.22515e-05
4.94608e-05
0.000108834
4.74983e-05
0.000102295
4.47716e-05
9.22775e-05
4.1498e-05
8.3359e-05
3.79601e-05
7.53499e-05
3.43622e-05
6.83111e-05
3.08419e-05
6.22197e-05
2.7478e-05
5.69988e-05
2.4304e-05
5.255e-05
2.13238e-05
4.87744e-05
1.85247e-05
4.55825e-05
1.58854e-05
4.28989e-05
1.33821e-05
4.06614e-05
1.0991e-05
3.8821e-05
8.68956e-06
3.73388e-05
6.45715e-06
3.61854e-05
4.27481e-06
3.53385e-05
2.12518e-06
3.47831e-05
3.43766e-05
4.14737e-05
0.000111893
3.97443e-05
0.000104026
3.75023e-05
9.45219e-05
3.49438e-05
8.5919e-05
3.21948e-05
7.80997e-05
2.9371e-05
7.1135e-05
2.65637e-05
6.50272e-05
2.38327e-05
5.973e-05
2.12108e-05
5.51725e-05
1.87094e-05
5.12764e-05
1.63268e-05
4.79658e-05
1.40533e-05
4.5173e-05
1.18752e-05
4.284e-05
9.7775e-06
4.0919e-05
7.74522e-06
3.93713e-05
5.76383e-06
3.81669e-05
3.81973e-06
3.72827e-05
1.89995e-06
3.67028e-05
3.62767e-05
3.38317e-05
0.000114652
3.22838e-05
0.000105579
3.04862e-05
9.63239e-05
2.8549e-05
8.78594e-05
2.64943e-05
8.01562e-05
2.43699e-05
7.32603e-05
2.22254e-05
6.71722e-05
2.01001e-05
6.18558e-05
1.80198e-05
5.72535e-05
1.59982e-05
5.32988e-05
1.40397e-05
4.9925e-05
1.21429e-05
4.70706e-05
1.03022e-05
4.46812e-05
8.51033e-06
4.27112e-05
6.75907e-06
4.11229e-05
5.03993e-06
3.98862e-05
3.34455e-06
3.89781e-05
1.66499e-06
3.83825e-05
3.79416e-05
2.5917e-05
0.000116129
2.48239e-05
0.000106678
2.35715e-05
9.75818e-05
2.22501e-05
8.91849e-05
2.08526e-05
8.15563e-05
1.93873e-05
7.47272e-05
1.78732e-05
6.86873e-05
1.6332e-05
6.33981e-05
1.47816e-05
5.88048e-05
1.32356e-05
5.48458e-05
1.17024e-05
5.14591e-05
1.01864e-05
4.85872e-05
8.68914e-06
4.6179e-05
7.20984e-06
4.41909e-05
5.74652e-06
4.25864e-05
4.29647e-06
4.13364e-05
2.85658e-06
4.04181e-05
1.42353e-06
3.98155e-05
3.93652e-05
1.81507e-05
0.000117283
1.74027e-05
0.000107432
1.67095e-05
9.82813e-05
1.60139e-05
8.98851e-05
1.52678e-05
8.23055e-05
1.44458e-05
7.5551e-05
1.35446e-05
6.95899e-05
1.2572e-05
6.43719e-05
1.15404e-05
5.98376e-05
1.04628e-05
5.59245e-05
9.35096e-06
5.25718e-05
8.21469e-06
4.97242e-05
7.06131e-06
4.7333e-05
5.89615e-06
4.53564e-05
4.72304e-06
4.37598e-05
3.54465e-06
4.25149e-05
2.36291e-06
4.15999e-05
1.17939e-06
4.09992e-05
4.05446e-05
1.01917e-05
0.000117818
9.93368e-06
0.000107697
9.85231e-06
9.83689e-05
9.82101e-06
8.99212e-05
9.74631e-06
8.23835e-05
9.56972e-06
7.57301e-05
9.27464e-06
6.98868e-05
8.86052e-06
6.47877e-05
8.33674e-06
6.03628e-05
7.71766e-06
5.65448e-05
7.01926e-06
5.32712e-05
6.25669e-06
5.04875e-05
5.44287e-06
4.81473e-05
4.5888e-06
4.62109e-05
3.70371e-06
4.46452e-05
2.79544e-06
4.34234e-05
1.87087e-06
4.25247e-05
9.35846e-07
4.19342e-05
4.14805e-05
2.04658e-06
0.000118121
2.33887e-06
0.000107411
2.96018e-06
9.77542e-05
3.66528e-06
8.92205e-05
4.3068e-06
8.1746e-05
4.78923e-06
7.525e-05
5.10086e-06
6.95777e-05
5.23756e-06
6.46527e-05
5.20996e-06
6.03922e-05
5.03637e-06
5.67196e-05
4.7393e-06
5.35694e-05
4.33994e-06
5.08876e-05
3.85689e-06
4.86311e-05
3.30642e-06
4.67618e-05
2.70306e-06
4.52489e-05
2.05945e-06
4.40673e-05
1.38709e-06
4.31972e-05
6.9645e-07
4.26249e-05
4.2177e-05
-6.56107e-06
0.000118091
-5.4771e-06
0.000106335
-3.98406e-06
9.62658e-05
-2.44825e-06
8.76907e-05
-1.06857e-06
8.03691e-05
1.23101e-07
7.40621e-05
1.05652e-06
6.86461e-05
1.74108e-06
6.39706e-05
2.19753e-06
5.99371e-05
2.45365e-06
5.64651e-05
2.54099e-06
5.34829e-05
2.4905e-06
5.09391e-05
2.32498e-06
4.87971e-05
2.0667e-06
4.70207e-05
1.73482e-06
4.55811e-05
1.34658e-06
4.44559e-05
9.18242e-07
4.36258e-05
4.6469e-07
4.30788e-05
4.26418e-05
-1.61407e-05
0.000116694
-1.36749e-05
0.000103873
-1.09624e-05
9.35601e-05
-8.40883e-06
8.51399e-05
-6.16561e-06
7.81301e-05
-4.29941e-06
7.21976e-05
-2.78587e-06
6.71353e-05
-1.59871e-06
6.27847e-05
-6.91362e-07
5.90315e-05
-1.98598e-08
5.57944e-05
4.45367e-07
5.30188e-05
7.29135e-07
5.06558e-05
8.6593e-07
4.86609e-05
8.85049e-07
4.70018e-05
8.11572e-07
4.5655e-05
6.65678e-07
4.4602e-05
4.69761e-07
4.3822e-05
2.40348e-07
4.33084e-05
4.28824e-05
-2.65489e-05
-2.20323e-05
-1.78202e-05
-1.41327e-05
-1.10134e-05
-8.43241e-06
-6.32998e-06
-4.64056e-06
-3.30703e-06
-2.27551e-06
-1.49516e-06
-9.18842e-07
-5.09447e-07
-2.35538e-07
-6.8604e-08
2.01472e-08
4.48939e-08
2.75363e-08
)
;

boundaryField
{
    leftWall
    {
        type            fixedValue;
        value           nonuniform 0();
    }
    rightWall
    {
        type            fixedValue;
        value           uniform 0;
    }
    lowerWall
    {
        type            fixedValue;
        value           uniform 0;
    }
    atmosphere
    {
        type            calculated;
        value           nonuniform 0();
    }
    defaultFaces
    {
        type            empty;
        value           nonuniform 0();
    }
    procBoundary1to0
    {
        type            processor;
        value           nonuniform List<scalar> 
26
(
-9.92982e-06
-1.03009e-05
-1.10744e-05
-1.23499e-05
-1.45365e-05
-1.75671e-05
-2.26185e-05
-3.00825e-05
-0.000122335
-0.00012492
-0.000121946
-0.00011638
-0.000106291
-9.45727e-05
-8.33184e-05
-7.26301e-05
-7.37532e-05
-6.18338e-05
-4.88282e-05
-3.63595e-05
-2.52522e-05
-1.72836e-05
-1.18607e-05
-7.89689e-06
-4.72803e-06
-2.46766e-06
)
;
    }
    procBoundary1to3
    {
        type            processor;
        value           nonuniform List<scalar> 
23
(
-2.48167e-05
5.6116e-05
5.71699e-05
5.30953e-05
0.000112685
9.93636e-05
8.93509e-05
8.14575e-05
7.50125e-05
6.96197e-05
6.5034e-05
6.10973e-05
5.76988e-05
5.47642e-05
5.22388e-05
5.00802e-05
4.82517e-05
4.67283e-05
4.54882e-05
4.45135e-05
4.37974e-05
4.33262e-05
4.29101e-05
)
;
    }
}


// ************************************************************************* //
