/*--------------------------------*- C++ -*----------------------------------*\
| =========                 |                                                 |
| \\      /  F ield         | OpenFOAM: The Open Source CFD Toolbox           |
|  \\    /   O peration     | Version:  2.4.0                                 |
|   \\  /    A nd           | Web:      www.OpenFOAM.org                      |
|    \\/     M anipulation  |                                                 |
\*---------------------------------------------------------------------------*/
FoamFile
{
    version     2.0;
    format      ascii;
    class       volScalarField;
    location    "0.05";
    object      rho;
}
// * * * * * * * * * * * * * * * * * * * * * * * * * * * * * * * * * * * * * //

dimensions      [1 -3 0 0 0 0 0];

internalField   nonuniform List<scalar> 
559
(
500
499.999
500
499.999
500
500
500
500
1.00001
1.00001
1.00001
1.00001
1.00001
1.00001
1
1
1
1
1
1
1
1
1
1
1
1
1
1.00001
1.00001
1.00001
1.00001
1.00001
1.00001
1.00001
1.00001
1
1
1
1
1
1
1
1
1
1
1
1.00001
1.00002
1.00001
1.00001
1.00001
1
1
1
1
1
1
1
1
1
1
1
1
1
1
1.00003
1.00021
1.00018
1.00003
1.00001
1.00001
1.00001
1.00001
1.00001
1
1
1
1
1
1
1
1
1
1.00001
1.00043
1.00237
1.00276
1.00099
1.00003
1
1
1
1
1
1
1
1
1
1
1
1
1
0.999999
1.00514
1.01736
1.07831
1.02897
1.00096
1.00003
1.00001
1
1
1
1
1
1
1
1
1
1
1
1.00001
1.11279
2.53862
1.92877
1.02681
1.00146
1.00007
1.00001
1
1
1
1
1
1
1
1
1
1
1
1
30.7349
15.8698
1.61821
1.00217
1.00034
1.00003
1
1
1
1
1
1
1
1
1
1
1
1
1
500
500
500
500
500
500
500
500
500
499.999
499.998
499.797
500
499.999
499.995
496.153
500
499.997
498.459
350.198
499.999
499.89
417.047
94.9306
499.995
488.046
207.217
13.1818
499.89
421.558
84.539
2.75044
498.131
319.452
34.0907
1.31533
487.94
218.674
13.6925
1.06046
464.764
149.602
6.44538
1.01481
429.101
100.037
3.32778
1.00379
383.171
63.8316
1.8831
1.00112
331.076
40.6087
1.32236
1.00072
276.053
24.3028
1.09354
1.00061
220.974
13.0008
1.01691
1.0003
165.101
5.19094
1.00095
1.00007
102.947
1.19126
1.00022
1.00001
36.1001
1.00104
1.00006
1
281.906
27.0501
1.17839
1.00048
1.00008
1.00001
1
1
1
1
1
1
1
1
1
1
1
1
1
201.692
9.70148
1.01984
1.00011
1.00002
1
1
1
1
1
1
1
1
1
1
1
1
1
1
40.5175
1.23265
1.00033
1.00005
1.00001
1
1
1
1
1
1
1
1
1
1
1
1
1
1
4.85058
1.00534
1.00011
1.00002
1
0.999999
0.999999
1
1
1
1
1
1
1
1
1
1
1
1
1.25734
1.00035
1.00005
1.00001
0.999999
0.999999
0.999999
1
1
1
1
1
1
1
1
1
1
1
1
1.02877
1.00011
1.00002
1
0.999999
0.999999
1
1
1
1
1
1
1
1
1
1
1
1
1
1.00505
1.00007
1.00001
1
0.999999
0.999999
1
1
1
1
1
1
1
1
1
1
1
1
1
1.00108
1.00005
1.00001
1
0.999999
1
1
1
1
1
1
1
1
1
1
1
1
1
1
1.00043
1.00004
1
1
1
1
1
1
1
1
1
1
1
1
1
1
1
1
1
1.00026
1.00002
1
1
1
1
1
1
1
1
1
1
1
1
1
1
1
1
1
1.00013
1.00001
1
1
1
1
1
1
1
1
1
1
1
1
1
1
1
1
1
1.00008
1.00001
1
1
1
1
1
1
1
1
1
1
1
1
1
1
1
1
1
1.00004
1
1
1
1
1
1
1
1
0.999999
1
1
1
1
1
1
1
1
1
1.00001
1
1
1
1
1
1
0.999999
0.999999
0.999999
0.999999
0.999999
1
1
1
1
1
1
1
1
1
1
1
1
0.999999
0.999999
0.999999
0.999998
0.999998
0.999998
0.999999
0.999999
0.999999
0.999999
0.999999
1
0.999999
1
1
1
1
1
1
1
0.999999
0.999999
0.999999
0.999998
0.999999
0.999999
0.999999
0.999999
0.999999
0.999999
0.999999
1
0.999999
1
1
1
1
1
1
1
1
0.999999
0.999999
0.999999
1
1
1
1
1
1
0.999998
1
)
;

boundaryField
{
    leftWall
    {
        type            calculated;
        value           nonuniform 0();
    }
    rightWall
    {
        type            calculated;
        value           nonuniform List<scalar> 
25
(
1
1
1
1.00001
0.999999
1.00001
1
1
1
1
1
1
1
1
1
1
1
1
1
1
1
1
1
0.999999
1
)
;
    }
    lowerWall
    {
        type            calculated;
        value           nonuniform List<scalar> 
40
(
500
500
499.999
500
499.999
500
500
500
500
500
499.999
499.998
499.797
1.00001
1.00001
1.00001
1.00003
1.00043
1.00514
1.11279
30.7349
1.00001
1.00001
1.00001
1.00001
1.00001
1.00001
1
1
1
1
1
1
1
1
1
1
1
1
1
)
;
    }
    atmosphere
    {
        type            calculated;
        value           nonuniform 0();
    }
    defaultFaces
    {
        type            empty;
    }
    procBoundary1to0
    {
        type            processor;
        value           nonuniform List<scalar> 
26
(
500
499.999
500
499.999
500
500
500
500
500
500
500
500
500
500
500
500
500
500
500
500
500
500
500
500
499.988
496.741
)
;
    }
    procBoundary1to3
    {
        type            processor;
        value           nonuniform List<scalar> 
23
(
3.55686
1.00029
1.00002
1
1
1
1
1
1
1
1
1
1
0.999999
1
1
1
1
1
1
0.999999
1
0.999999
)
;
    }
}


// ************************************************************************* //
