/*--------------------------------*- C++ -*----------------------------------*\
| =========                 |                                                 |
| \\      /  F ield         | OpenFOAM: The Open Source CFD Toolbox           |
|  \\    /   O peration     | Version:  2.4.0                                 |
|   \\  /    A nd           | Web:      www.OpenFOAM.org                      |
|    \\/     M anipulation  |                                                 |
\*---------------------------------------------------------------------------*/
FoamFile
{
    version     2.0;
    format      ascii;
    class       volVectorField;
    location    "0.05";
    object      U.air;
}
// * * * * * * * * * * * * * * * * * * * * * * * * * * * * * * * * * * * * * //

dimensions      [0 1 -1 0 0 0 0];

internalField   nonuniform List<vector> 
559
(
(0.0587976 0.0269098 0)
(0.0611546 0.0819376 0)
(0.0661553 0.139577 0)
(0.0743613 0.205914 0)
(0.0890767 0.271988 0)
(0.10795 0.376468 0)
(0.148595 0.443233 0)
(0.211959 0.655489 0)
(-0.0136768 0.000459725 0)
(0.0245751 -0.0160862 0)
(0.114578 -0.0157732 0)
(0.17762 -0.0106681 0)
(0.215141 -0.00492936 0)
(0.228726 -0.000933875 0)
(0.227369 0.00142601 0)
(0.215183 0.00306026 0)
(0.198831 0.00380578 0)
(0.179952 0.00411622 0)
(0.160031 0.00421867 0)
(0.139926 0.00420474 0)
(0.120034 0.00413399 0)
(0.100538 0.00404137 0)
(0.081491 0.00394707 0)
(0.0628722 0.00386284 0)
(0.0446162 0.00379536 0)
(0.026639 0.00374737 0)
(0.00884024 0.00374044 0)
(-0.019979 0.00209164 0)
(0.0194992 -0.0506316 0)
(0.120178 -0.0492325 0)
(0.186942 -0.0327003 0)
(0.2244 -0.0151364 0)
(0.236868 -0.00256194 0)
(0.233847 0.00499301 0)
(0.220917 0.00956955 0)
(0.203706 0.0117424 0)
(0.184107 0.0126792 0)
(0.163598 0.0129733 0)
(0.142969 0.012918 0)
(0.122602 0.0126935 0)
(0.102665 0.0124048 0)
(0.083202 0.0121128 0)
(0.0641854 0.0118527 0)
(0.0455444 0.0116448 0)
(0.0271895 0.0114998 0)
(0.00900561 0.0113805 0)
(-0.0344147 0.00775208 0)
(0.00387993 -0.0892896 0)
(0.124568 -0.0860171 0)
(0.19659 -0.055203 0)
(0.232985 -0.0244538 0)
(0.242872 -0.0033387 0)
(0.237015 0.00935051 0)
(0.22286 0.0164098 0)
(0.204653 0.0198728 0)
(0.184517 0.0213601 0)
(0.16372 0.0217898 0)
(0.142938 0.02166 0)
(0.122498 0.0212625 0)
(0.102535 0.0207666 0)
(0.0830734 0.0202702 0)
(0.0640742 0.0198305 0)
(0.0454597 0.0194802 0)
(0.0271377 0.0192386 0)
(0.00898842 0.0190471 0)
(-0.0575052 0.0246135 0)
(-0.0222457 -0.136597 0)
(0.131814 -0.12932 0)
(0.212514 -0.0783064 0)
(0.246327 -0.0323102 0)
(0.251457 -0.00243171 0)
(0.241936 0.0146677 0)
(0.225474 0.0238805 0)
(0.205881 0.0283765 0)
(0.184985 0.0302558 0)
(0.163783 0.0307295 0)
(0.142796 0.0304718 0)
(0.122265 0.0298703 0)
(0.102279 0.0291487 0)
(0.0828331 0.0284372 0)
(0.0638718 0.0278113 0)
(0.0453082 0.0273149 0)
(0.0270449 0.0269739 0)
(0.00895758 0.0267019 0)
(-0.092279 0.0628578 0)
(-0.0567327 -0.196878 0)
(0.148952 -0.183415 0)
(0.238307 -0.101052 0)
(0.264996 -0.0373589 0)
(0.262756 0.000721495 0)
(0.248155 0.0214554 0)
(0.228666 0.0322166 0)
(0.20735 0.0373582 0)
(0.185511 0.0394082 0)
(0.163808 0.0398026 0)
(0.142571 0.0393465 0)
(0.121935 0.0385001 0)
(0.101925 0.0375292 0)
(0.0825047 0.0365887 0)
(0.063597 0.0357687 0)
(0.0451034 0.0351217 0)
(0.0269194 0.0346785 0)
(0.0089156 0.0343254 0)
(-0.124167 0.0834295 0)
(-0.070365 -0.28848 0)
(0.195129 -0.259052 0)
(0.287678 -0.121072 0)
(0.290799 -0.0372297 0)
(0.276386 0.00716581 0)
(0.255269 0.0300649 0)
(0.232203 0.0415821 0)
(0.20892 0.046907 0)
(0.186014 0.0488657 0)
(0.163751 0.0490337 0)
(0.142239 0.048295 0)
(0.121491 0.047155 0)
(0.101465 0.0459065 0)
(0.0820838 0.0447204 0)
(0.0632475 0.0436967 0)
(0.044844 0.0428934 0)
(0.0267606 0.0423449 0)
(0.00886246 0.0419098 0)
(-0.0297763 0.26912 0)
(0.0566877 -0.470815 0)
(0.28124 -0.338466 0)
(0.347766 -0.129904 0)
(0.320001 -0.0284662 0)
(0.291124 0.0177709 0)
(0.262713 0.040784 0)
(0.235789 0.0520675 0)
(0.210426 0.0570433 0)
(0.186404 0.0586181 0)
(0.16356 0.0583974 0)
(0.141769 0.0572847 0)
(0.120917 0.0557993 0)
(0.100889 0.0542438 0)
(0.0815645 0.0527956 0)
(0.0628199 0.0515589 0)
(0.044528 0.0505944 0)
(0.0265675 0.0499381 0)
(0.00879771 0.0494204 0)
(0.633021 -0.0698419 0)
(0.62588 -0.491339 0)
(0.440916 -0.334437 0)
(0.401667 -0.113685 0)
(0.348931 -0.0128938 0)
(0.305271 0.0320339 0)
(0.269764 0.0535916 0)
(0.239079 0.0637537 0)
(0.211682 0.0678894 0)
(0.186574 0.0688024 0)
(0.163172 0.0680314 0)
(0.141124 0.066448 0)
(0.12019 0.0645577 0)
(0.100182 0.0626577 0)
(0.0809376 0.0609236 0)
(0.0623083 0.0594588 0)
(0.044152 0.0583236 0)
(0.0263384 0.0575539 0)
(0.00872118 0.056951 0)
(0.804935 0.562049 0)
(0.801929 0.172067 0)
(0.733551 -0.0373602 0)
(0.677804 -0.167867 0)
(0.6141 -0.261324 0)
(0.562202 -0.320919 0)
(0.592575 -0.359907 0)
(0.574244 -0.387043 0)
(0.978682 0.459582 0)
(1.02287 0.301436 0)
(0.965793 0.170986 0)
(1.28075 0.0799918 0)
(0.904635 0.0572335 0)
(1.03598 -0.0917862 0)
(1.29064 -0.110964 0)
(1.73353 -0.113675 0)
(0.86136 -0.0920453 0)
(1.08198 -0.114299 0)
(1.54139 0.0244084 0)
(1.48751 -0.0376162 0)
(0.781377 -0.215828 0)
(1.2362 -0.0827187 0)
(1.36348 -0.148041 0)
(1.1825 -0.28097 0)
(0.878883 -0.291233 0)
(1.20557 -0.152777 0)
(1.01168 -0.436367 0)
(0.872176 -0.027622 0)
(0.908339 -0.295395 0)
(0.979761 -0.390545 0)
(0.758305 -0.477585 0)
(0.540668 0.142407 0)
(0.946629 -0.286242 0)
(0.810624 -0.469979 0)
(0.686642 -0.328704 0)
(0.366079 0.306409 0)
(0.798437 -0.365616 0)
(0.606194 -0.509396 0)
(0.540011 -0.115187 0)
(0.268845 0.414823 0)
(0.667994 -0.442507 0)
(0.491392 -0.524635 0)
(0.436405 0.0514382 0)
(0.22418 0.479013 0)
(0.574614 -0.470256 0)
(0.439675 -0.492881 0)
(0.340033 0.215796 0)
(0.185847 0.531747 0)
(0.494276 -0.482845 0)
(0.398592 -0.409388 0)
(0.196512 0.374178 0)
(0.139757 0.56777 0)
(0.403484 -0.488463 0)
(0.343409 -0.279604 0)
(0.0990995 0.477168 0)
(0.103786 0.587606 0)
(0.302735 -0.488333 0)
(0.264459 -0.0846306 0)
(0.0215796 0.546037 0)
(0.0663467 0.603691 0)
(0.21753 -0.4833 0)
(0.177119 0.13525 0)
(-0.0338101 0.595184 0)
(0.0290674 0.612185 0)
(0.152246 -0.463011 0)
(0.0880813 0.353785 0)
(-0.0784013 0.637579 0)
(-0.0206046 0.613642 0)
(0.0815957 -0.399299 0)
(-0.0675096 0.589427 0)
(-0.0977715 0.656286 0)
(-0.0904944 0.618369 0)
(0.0294888 -0.13821 0)
(-0.253495 0.652156 0)
(-0.157736 0.658016 0)
(-0.164519 0.612293 0)
(1.37 -0.111079 0)
(1.03104 -0.317957 0)
(0.670214 -0.147851 0)
(0.508767 -0.0217611 0)
(0.397111 0.0373529 0)
(0.327306 0.0655629 0)
(0.279844 0.0789129 0)
(0.243436 0.0846221 0)
(0.213071 0.0861111 0)
(0.186403 0.0852836 0)
(0.162216 0.0832626 0)
(0.139827 0.0807239 0)
(0.118812 0.0780766 0)
(0.098876 0.0755687 0)
(0.0797951 0.0733495 0)
(0.061383 0.0715078 0)
(0.043475 0.0700955 0)
(0.0259267 0.0691437 0)
(0.00858376 0.0684071 0)
(1.65141 -0.348038 0)
(0.990269 -0.064478 0)
(0.662566 0.139365 0)
(0.516739 0.13398 0)
(0.406992 0.122311 0)
(0.3344 0.119122 0)
(0.28332 0.117666 0)
(0.24403 0.115474 0)
(0.211798 0.112298 0)
(0.184077 0.108461 0)
(0.159409 0.104347 0)
(0.136917 0.100268 0)
(0.116038 0.0964431 0)
(0.0963885 0.0930179 0)
(0.0776853 0.090084 0)
(0.0597053 0.087697 0)
(0.0422609 0.0858889 0)
(0.0251933 0.0846791 0)
(0.00833925 0.0837571 0)
(1.22932 -0.14744 0)
(0.555539 0.309267 0)
(0.501335 0.304061 0)
(0.448529 0.232476 0)
(0.380884 0.191439 0)
(0.323117 0.169969 0)
(0.276572 0.1568 0)
(0.238583 0.147128 0)
(0.206725 0.139061 0)
(0.179209 0.131902 0)
(0.154804 0.12544 0)
(0.132676 0.119637 0)
(0.112253 0.114512 0)
(0.0931229 0.110091 0)
(0.0749814 0.106395 0)
(0.0575877 0.103434 0)
(0.040743 0.101215 0)
(0.0242813 0.0997392 0)
(0.00803608 0.09863 0)
(0.819331 0.107246 0)
(0.491915 0.364581 0)
(0.44516 0.345346 0)
(0.399699 0.285497 0)
(0.349749 0.242354 0)
(0.303231 0.213304 0)
(0.262737 0.192813 0)
(0.228011 0.177385 0)
(0.198033 0.165048 0)
(0.171758 0.154757 0)
(0.148315 0.145977 0)
(0.127032 0.138435 0)
(0.107403 0.131987 0)
(0.0890458 0.126555 0)
(0.0716639 0.122087 0)
(0.0550198 0.11855 0)
(0.0389162 0.115919 0)
(0.0231889 0.114178 0)
(0.00767381 0.112885 0)
(0.490171 0.355428 0)
(0.421902 0.428898 0)
(0.391645 0.383504 0)
(0.353889 0.325534 0)
(0.315902 0.282203 0)
(0.278476 0.249507 0)
(0.244158 0.224572 0)
(0.213501 0.20506 0)
(0.186271 0.18934 0)
(0.161964 0.176368 0)
(0.140042 0.1655 0)
(0.120023 0.156337 0)
(0.101507 0.148634 0)
(0.0841674 0.14223 0)
(0.0677405 0.137018 0)
(0.0520082 0.132924 0)
(0.0367862 0.129896 0)
(0.0219195 0.1279 0)
(0.0072535 0.12643 0)
(0.364777 0.454587 0)
(0.362042 0.462165 0)
(0.338709 0.407707 0)
(0.311037 0.355734 0)
(0.281324 0.313456 0)
(0.251222 0.279297 0)
(0.222593 0.251833 0)
(0.196172 0.229592 0)
(0.172096 0.211364 0)
(0.150201 0.196251 0)
(0.130199 0.183624 0)
(0.111777 0.173046 0)
(0.0946423 0.164218 0)
(0.0785388 0.15693 0)
(0.0632466 0.151035 0)
(0.0485777 0.146428 0)
(0.0343693 0.143032 0)
(0.0204829 0.1408 0)
(0.00677848 0.139163 0)
(0.303626 0.499817 0)
(0.309496 0.480967 0)
(0.291296 0.426524 0)
(0.270374 0.379044 0)
(0.246953 0.33812 0)
(0.222817 0.303596 0)
(0.199243 0.27479 0)
(0.17692 0.250816 0)
(0.156127 0.230822 0)
(0.136879 0.214093 0)
(0.119055 0.200067 0)
(0.102471 0.188321 0)
(0.0869296 0.17854 0)
(0.0722432 0.17049 0)
(0.0582405 0.163999 0)
(0.0447689 0.158939 0)
(0.0316926 0.155219 0)
(0.0188946 0.152776 0)
(0.00625366 0.150991 0)
(0.259278 0.523514 0)
(0.26139 0.492654 0)
(0.247851 0.441779 0)
(0.231561 0.397168 0)
(0.21318 0.357591 0)
(0.193993 0.323215 0)
(0.174886 0.293779 0)
(0.156421 0.268768 0)
(0.138889 0.247599 0)
(0.122388 0.229715 0)
(0.106891 0.214641 0)
(0.0923063 0.201987 0)
(0.0785137 0.191445 0)
(0.0653855 0.182775 0)
(0.0527978 0.175792 0)
(0.0406353 0.170355 0)
(0.0287918 0.166362 0)
(0.0171749 0.163743 0)
(0.00568584 0.161828 0)
(0.223143 0.537039 0)
(0.218916 0.5013 0)
(0.207419 0.453838 0)
(0.194445 0.411294 0)
(0.18012 0.372834 0)
(0.165134 0.338797 0)
(0.150018 0.309141 0)
(0.135163 0.283572 0)
(0.12081 0.26168 0)
(0.107073 0.243034 0)
(0.0939765 0.227231 0)
(0.0814902 0.213923 0)
(0.0695513 0.202818 0)
(0.0580832 0.193679 0)
(0.0470056 0.186318 0)
(0.0362393 0.180589 0)
(0.025709 0.176384 0)
(0.0153483 0.173626 0)
(0.00508278 0.171603 0)
(0.185538 0.550698 0)
(0.177918 0.509159 0)
(0.168481 0.463622 0)
(0.158413 0.422187 0)
(0.147642 0.38448 0)
(0.136406 0.350799 0)
(0.124951 0.32116 0)
(0.113501 0.295364 0)
(0.102227 0.273102 0)
(0.0912314 0.254022 0)
(0.080561 0.237778 0)
(0.0702238 0.224055 0)
(0.0602014 0.212581 0)
(0.0504597 0.203127 0)
(0.0409571 0.195508 0)
(0.031649 0.189577 0)
(0.0224904 0.185223 0)
(0.0134415 0.182367 0)
(0.00445346 0.18026 0)
(0.143263 0.561178 0)
(0.136401 0.515336 0)
(0.129892 0.471027 0)
(0.12291 0.430085 0)
(0.115572 0.392846 0)
(0.107878 0.359504 0)
(0.0998885 0.330037 0)
(0.0917019 0.304266 0)
(0.0834194 0.28192 0)
(0.0751232 0.262689 0)
(0.0668711 0.246261 0)
(0.058698 0.232346 0)
(0.0506198 0.22069 0)
(0.0426389 0.211073 0)
(0.0347482 0.203315 0)
(0.0269353 0.197274 0)
(0.0191848 0.192837 0)
(0.011483 0.189926 0)
(0.00380702 0.187761 0)
(0.101903 0.567193 0)
(0.0955258 0.520004 0)
(0.0915212 0.475742 0)
(0.0877155 0.434967 0)
(0.0838168 0.398037 0)
(0.079608 0.365047 0)
(0.0749966 0.335894 0)
(0.0699851 0.310367 0)
(0.0646236 0.28819 0)
(0.0589782 0.269062 0)
(0.0531152 0.252686 0)
(0.0470928 0.238789 0)
(0.0409572 0.227128 0)
(0.0347428 0.217496 0)
(0.0284745 0.209719 0)
(0.0221699 0.203657 0)
(0.0158416 0.199204 0)
(0.00950198 0.19628 0)
(0.00315317 0.194082 0)
(0.0575646 0.571096 0)
(0.0539661 0.522476 0)
(0.0529991 0.477609 0)
(0.0526396 0.43672 0)
(0.0523423 0.40002 0)
(0.0516812 0.367461 0)
(0.0504381 0.338792 0)
(0.0485572 0.313731 0)
(0.0460603 0.291966 0)
(0.0430101 0.273183 0)
(0.0394881 0.257083 0)
(0.0355786 0.243401 0)
(0.0313577 0.231906 0)
(0.0268898 0.2224 0)
(0.0222295 0.214717 0)
(0.0174231 0.208725 0)
(0.0125099 0.204319 0)
(0.00752704 0.201425 0)
(0.00250118 0.199218 0)
(0.0088386 0.572828 0)
(0.0114033 0.522319 0)
(0.0139781 0.476264 0)
(0.0175526 0.435069 0)
(0.0211859 0.398636 0)
(0.0242388 0.366714 0)
(0.026405 0.33875 0)
(0.0276345 0.314403 0)
(0.0279489 0.293303 0)
(0.0274261 0.275106 0)
(0.0261762 0.2595 0)
(0.0243179 0.246223 0)
(0.0219589 0.235056 0)
(0.0191931 0.22581 0)
(0.0161034 0.218332 0)
(0.012763 0.212493 0)
(0.00923679 0.208196 0)
(0.00558589 0.205372 0)
(0.00186031 0.203182 0)
(-0.039917 0.573281 0)
(-0.0331957 0.518911 0)
(-0.0258961 0.471108 0)
(-0.0175551 0.429621 0)
(-0.00946656 0.393721 0)
(-0.00247316 0.362648 0)
(0.00313 0.335725 0)
(0.00745364 0.312409 0)
(0.0105168 0.292263 0)
(0.0124345 0.274907 0)
(0.0133615 0.26001 0)
(0.0134661 0.247316 0)
(0.0128923 0.23663 0)
(0.0117607 0.227774 0)
(0.010182 0.220602 0)
(0.00825424 0.214998 0)
(0.00606718 0.210869 0)
(0.0037063 0.20815 0)
(0.00124043 0.205989 0)
(-0.0918661 0.569878 0)
(-0.0809533 0.510287 0)
(-0.0667182 0.460925 0)
(-0.0524027 0.41971 0)
(-0.0393649 0.384935 0)
(-0.0282061 0.355222 0)
(-0.0190292 0.329778 0)
(-0.0116729 0.307859 0)
(-0.00596967 0.28895 0)
(-0.00174693 0.272655 0)
(0.00121757 0.258668 0)
(0.0031677 0.246748 0)
(0.00428085 0.236699 0)
(0.00469349 0.228354 0)
(0.00454596 0.221585 0)
(0.00395767 0.216294 0)
(0.00304154 0.212383 0)
(0.00190294 0.209808 0)
(0.000640803 0.207739 0)
(-0.154921 0.556434 0)
(-0.131634 0.493517 0)
(-0.107734 0.444166 0)
(-0.0862377 0.404592 0)
(-0.0677663 0.371934 0)
(-0.052344 0.344433 0)
(-0.039699 0.321005 0)
(-0.0294713 0.300878 0)
(-0.0213262 0.283507 0)
(-0.0149587 0.268515 0)
(-0.0100741 0.255639 0)
(-0.00640747 0.244656 0)
(-0.00374778 0.23537 0)
(-0.00191162 0.227641 0)
(-0.000727763 0.221357 0)
(-7.04863e-05 0.216432 0)
(0.000199119 0.212798 0)
(0.000201521 0.210405 0)
(7.52597e-05 0.208025 0)
)
;

boundaryField
{
    leftWall
    {
        type            fixedValue;
        value           nonuniform 0();
    }
    rightWall
    {
        type            fixedValue;
        value           uniform (0 0 0);
    }
    lowerWall
    {
        type            fixedValue;
        value           uniform (0 0 0);
    }
    atmosphere
    {
        type            fluxCorrectedVelocity;
        value           nonuniform 0();
    }
    defaultFaces
    {
        type            empty;
    }
    procBoundary1to0
    {
        type            processor;
        value           nonuniform List<vector> 
26
(
(0.163876 0.0222361 0)
(0.168841 0.0669382 0)
(0.178939 0.112039 0)
(0.195646 0.157425 0)
(0.223023 0.202959 0)
(0.261992 0.247232 0)
(0.319255 0.280585 0)
(0.408095 0.333815 0)
(0.600656 0.228494 0)
(0.606717 0.0928306 0)
(0.620067 -0.0247135 0)
(0.593771 -0.12371 0)
(0.548386 -0.207848 0)
(0.494879 -0.271153 0)
(0.442055 -0.317892 0)
(0.390731 -0.351955 0)
(0.53563 -0.404425 0)
(0.53563 -0.404425 0)
(0.498558 -0.416926 0)
(0.454453 -0.430703 0)
(0.383261 -0.44685 0)
(0.288451 -0.462024 0)
(0.19947 -0.472967 0)
(0.127731 -0.479805 0)
(0.0743845 -0.481574 0)
(0.0951118 -0.478967 0)
)
;
    }
    procBoundary1to3
    {
        type            processor;
        value           nonuniform List<vector> 
23
(
(0.0615976 0.433665 0)
(-0.369831 0.661421 0)
(-0.216663 0.644247 0)
(-0.251681 0.592712 0)
(-0.221995 0.529544 0)
(-0.182421 0.465262 0)
(-0.147034 0.419734 0)
(-0.117679 0.383877 0)
(-0.0937471 0.354724 0)
(-0.0742535 0.330308 0)
(-0.058417 0.309507 0)
(-0.0455871 0.2916 0)
(-0.0352417 0.276102 0)
(-0.0269547 0.262685 0)
(-0.0203647 0.25111 0)
(-0.0151674 0.24119 0)
(-0.0111122 0.232772 0)
(-0.00798395 0.225744 0)
(-0.00559453 0.220015 0)
(-0.00378593 0.215509 0)
(-0.00240977 0.212191 0)
(-0.00131432 0.210011 0)
(-0.00047238 0.208191 0)
)
;
    }
}


// ************************************************************************* //
