/*--------------------------------*- C++ -*----------------------------------*\
| =========                 |                                                 |
| \\      /  F ield         | OpenFOAM: The Open Source CFD Toolbox           |
|  \\    /   O peration     | Version:  2.4.0                                 |
|   \\  /    A nd           | Web:      www.OpenFOAM.org                      |
|    \\/     M anipulation  |                                                 |
\*---------------------------------------------------------------------------*/
FoamFile
{
    version     2.0;
    format      ascii;
    class       volVectorField;
    location    "0.05";
    object      U.mercury;
}
// * * * * * * * * * * * * * * * * * * * * * * * * * * * * * * * * * * * * * //

dimensions      [0 1 -1 0 0 0 0];

internalField   nonuniform List<vector> 
559
(
(0.0587976 0.0269098 0)
(0.0611546 0.0819376 0)
(0.0661553 0.139577 0)
(0.0743613 0.205914 0)
(0.0890767 0.271988 0)
(0.10795 0.376468 0)
(0.148595 0.443233 0)
(0.211959 0.655489 0)
(-0.0136774 0.000452742 0)
(0.0245807 -0.0161053 0)
(0.114596 -0.0157915 0)
(0.177644 -0.0106847 0)
(0.215164 -0.00493984 0)
(0.22874 -0.000939532 0)
(0.227368 0.00142297 0)
(0.215167 0.00305786 0)
(0.198805 0.00380349 0)
(0.17992 0.00411377 0)
(0.159997 0.00421617 0)
(0.139892 0.00420208 0)
(0.120002 0.00413137 0)
(0.100509 0.00403871 0)
(0.0814664 0.00394451 0)
(0.0628523 0.00386029 0)
(0.0446013 0.00379289 0)
(0.0266296 0.00374492 0)
(0.0088369 0.00373805 0)
(-0.0199847 0.00203215 0)
(0.0195007 -0.0506999 0)
(0.120198 -0.0493096 0)
(0.18697 -0.032761 0)
(0.224427 -0.0151711 0)
(0.236886 -0.00258055 0)
(0.233849 0.00498163 0)
(0.220903 0.00956038 0)
(0.20368 0.0117338 0)
(0.184074 0.0126704 0)
(0.163563 0.0129646 0)
(0.142934 0.0129092 0)
(0.122569 0.0126849 0)
(0.102636 0.0123964 0)
(0.0831773 0.0121047 0)
(0.0641654 0.0118448 0)
(0.0455296 0.0116372 0)
(0.0271801 0.0114923 0)
(0.00900228 0.0113731 0)
(-0.0344187 0.00765976 0)
(0.00388119 -0.0893976 0)
(0.124592 -0.0861469 0)
(0.196634 -0.0553008 0)
(0.233025 -0.0245065 0)
(0.242896 -0.00336637 0)
(0.237019 0.00933292 0)
(0.222847 0.0163952 0)
(0.204627 0.0198587 0)
(0.184484 0.0213458 0)
(0.163685 0.0217754 0)
(0.142904 0.0216455 0)
(0.122466 0.0212483 0)
(0.102506 0.0207527 0)
(0.0830489 0.0202569 0)
(0.0640544 0.0198175 0)
(0.045445 0.0194677 0)
(0.0271283 0.0192263 0)
(0.00898511 0.019035 0)
(-0.0575143 0.0245213 0)
(-0.022254 -0.136732 0)
(0.131864 -0.129489 0)
(0.212572 -0.0784244 0)
(0.246384 -0.032372 0)
(0.25149 -0.00246444 0)
(0.241943 0.0146445 0)
(0.22546 0.0238601 0)
(0.205855 0.0283565 0)
(0.184952 0.0302354 0)
(0.163748 0.0307091 0)
(0.142761 0.0304515 0)
(0.122233 0.0298504 0)
(0.102251 0.0291293 0)
(0.0828087 0.0284185 0)
(0.0638521 0.0277932 0)
(0.0452936 0.0272975 0)
(0.0270357 0.0269569 0)
(0.00895433 0.0266851 0)
(-0.0922896 0.0627952 0)
(-0.0561631 -0.197113 0)
(0.152757 -0.184351 0)
(0.239013 -0.101335 0)
(0.265067 -0.0374207 0)
(0.262797 0.000689024 0)
(0.248165 0.0214303 0)
(0.228654 0.0321926 0)
(0.207324 0.0373337 0)
(0.185478 0.0393829 0)
(0.163773 0.039777 0)
(0.142537 0.039321 0)
(0.121903 0.0384751 0)
(0.101897 0.0375049 0)
(0.0824807 0.0365652 0)
(0.0635777 0.035746 0)
(0.0450891 0.0350997 0)
(0.0269103 0.034657 0)
(0.0089124 0.0343042 0)
(-0.122692 0.0828251 0)
(-0.0450411 -0.288995 0)
(0.417752 -0.292062 0)
(0.389521 -0.144392 0)
(0.291439 -0.0374278 0)
(0.27643 0.00713965 0)
(0.25528 0.0300415 0)
(0.23219 0.0415567 0)
(0.208894 0.0468793 0)
(0.185981 0.0488364 0)
(0.163716 0.0490037 0)
(0.142204 0.0482649 0)
(0.121459 0.0471253 0)
(0.101437 0.0458775 0)
(0.0820601 0.0446922 0)
(0.0632285 0.0436694 0)
(0.0448299 0.0428669 0)
(0.0267517 0.042319 0)
(0.00885936 0.0418842 0)
(0.047957 0.234532 0)
(0.625393 -0.411146 0)
(1.01517 -0.4112 0)
(0.43124 -0.147729 0)
(0.32086 -0.0286808 0)
(0.291172 0.0177536 0)
(0.262723 0.0407611 0)
(0.235775 0.0520384 0)
(0.210399 0.0570099 0)
(0.18637 0.0585824 0)
(0.163524 0.0583608 0)
(0.141735 0.0572482 0)
(0.120886 0.0557636 0)
(0.100862 0.0542091 0)
(0.0815413 0.052762 0)
(0.0628013 0.0515265 0)
(0.0445143 0.050563 0)
(0.0265588 0.0499074 0)
(0.00879464 0.0493902 0)
(0.929085 -0.12869 0)
(1.28914 -0.358756 0)
(0.885091 -0.363583 0)
(0.402659 -0.113893 0)
(0.349043 -0.0128749 0)
(0.305318 0.0320309 0)
(0.26977 0.0535731 0)
(0.239062 0.0637238 0)
(0.211653 0.0678525 0)
(0.186539 0.0687619 0)
(0.163136 0.0679896 0)
(0.141091 0.0664062 0)
(0.12016 0.0645167 0)
(0.100155 0.062618 0)
(0.0809149 0.0608852 0)
(0.0622901 0.0594217 0)
(0.0441386 0.0582877 0)
(0.02633 0.0575189 0)
(0.00871827 0.0569165 0)
(0.804935 0.562049 0)
(0.801929 0.172067 0)
(0.733512 -0.0373602 0)
(0.677617 -0.167867 0)
(0.611542 -0.261324 0)
(0.535976 -0.320919 0)
(0.467845 -0.359907 0)
(0.399394 -0.38703 0)
(0.978681 0.459583 0)
(1.02287 0.30144 0)
(0.959487 0.171622 0)
(0.900894 0.0337354 0)
(0.904629 0.0572219 0)
(1.03449 -0.0918579 0)
(1.11159 -0.140155 0)
(1.08281 -0.192063 0)
(0.861005 -0.0921286 0)
(0.945073 -0.116795 0)
(0.917541 -0.137124 0)
(0.933002 -0.215985 0)
(0.762862 -0.217196 0)
(0.773577 -0.227632 0)
(0.731943 -0.324622 0)
(0.804047 -0.544312 0)
(0.656457 -0.296576 0)
(0.602217 -0.333509 0)
(0.539819 -0.521208 0)
(0.632584 -0.573491 0)
(0.533119 -0.349892 0)
(0.464247 -0.44203 0)
(0.417098 -0.604879 0)
(0.481127 -0.273513 0)
(0.42522 -0.394576 0)
(0.34183 -0.502179 0)
(0.348306 -0.593995 0)
(0.352123 0.108758 0)
(0.338253 -0.43903 0)
(0.254471 -0.536307 0)
(0.299145 -0.503727 0)
(0.265712 0.354672 0)
(0.267513 -0.468189 0)
(0.200074 -0.552866 0)
(0.269935 -0.364114 0)
(0.223435 0.464314 0)
(0.206662 -0.486247 0)
(0.162763 -0.552654 0)
(0.238739 -0.168651 0)
(0.185746 0.529206 0)
(0.153636 -0.498439 0)
(0.13741 -0.536741 0)
(0.163536 0.0791073 0)
(0.139774 0.567316 0)
(0.110145 -0.505589 0)
(0.118563 -0.505166 0)
(0.0936324 0.29594 0)
(0.103832 0.587319 0)
(0.0784213 -0.508143 0)
(0.100258 -0.439808 0)
(0.0237023 0.469096 0)
(0.066422 0.603441 0)
(0.055679 -0.507468 0)
(0.0801011 -0.327962 0)
(-0.0327756 0.581095 0)
(0.0291689 0.611983 0)
(0.0387401 -0.501193 0)
(0.0542553 -0.113928 0)
(-0.078291 0.637365 0)
(-0.0204952 0.613487 0)
(0.0238473 -0.481045 0)
(-0.0571598 0.458832 0)
(-0.0976846 0.656199 0)
(-0.0904039 0.618261 0)
(0.0154663 -0.409502 0)
(-0.253304 0.651646 0)
(-0.157652 0.657966 0)
(-0.164439 0.61224 0)
(1.02242 -0.113925 0)
(1.357 -0.27781 0)
(0.925415 -0.196384 0)
(0.509043 -0.0216459 0)
(0.397225 0.0374273 0)
(0.32734 0.0655895 0)
(0.279839 0.0789073 0)
(0.243411 0.0845966 0)
(0.213037 0.0860741 0)
(0.186366 0.0852405 0)
(0.16218 0.0832168 0)
(0.139794 0.0806774 0)
(0.118782 0.0780307 0)
(0.0988499 0.0755239 0)
(0.0797733 0.0733061 0)
(0.0613657 0.0714657 0)
(0.0434624 0.0700546 0)
(0.0259188 0.0691037 0)
(0.00858091 0.0683676 0)
(1.19623 -0.326866 0)
(1.41499 -0.388595 0)
(0.70586 0.115689 0)
(0.516867 0.13436 0)
(0.40702 0.122449 0)
(0.334382 0.119173 0)
(0.283284 0.11767 0)
(0.243987 0.115452 0)
(0.211754 0.11226 0)
(0.184035 0.108414 0)
(0.159371 0.104297 0)
(0.136883 0.100216 0)
(0.116008 0.0963915 0)
(0.0963634 0.0929672 0)
(0.0776648 0.0900346 0)
(0.0596893 0.087649 0)
(0.0422492 0.0858421 0)
(0.025186 0.0846333 0)
(0.00833676 0.0837118 0)
(1.0647 -0.351465 0)
(0.727278 0.140243 0)
(0.500608 0.304866 0)
(0.448343 0.232774 0)
(0.380777 0.19156 0)
(0.323034 0.170011 0)
(0.2765 0.156796 0)
(0.23852 0.147099 0)
(0.20667 0.139016 0)
(0.179161 0.13185 0)
(0.154763 0.125383 0)
(0.132641 0.119579 0)
(0.112223 0.114454 0)
(0.0930989 0.110034 0)
(0.0749621 0.10634 0)
(0.0575728 0.103381 0)
(0.0407323 0.101163 0)
(0.0242746 0.0996881 0)
(0.00803367 0.0985794 0)
(0.845951 -0.411585 0)
(0.49284 0.359064 0)
(0.444599 0.345578 0)
(0.399432 0.285609 0)
(0.349568 0.242399 0)
(0.303102 0.213303 0)
(0.262637 0.192784 0)
(0.227931 0.177338 0)
(0.197969 0.164991 0)
(0.171706 0.154695 0)
(0.148272 0.145913 0)
(0.126996 0.13837 0)
(0.107374 0.131924 0)
(0.089023 0.126493 0)
(0.071646 0.122027 0)
(0.0550062 0.118492 0)
(0.0389066 0.115862 0)
(0.023183 0.114122 0)
(0.00767184 0.112829 0)
(0.505532 0.120229 0)
(0.421167 0.428704 0)
(0.391205 0.383455 0)
(0.353606 0.325484 0)
(0.315699 0.282155 0)
(0.278327 0.249451 0)
(0.244044 0.224509 0)
(0.213413 0.204991 0)
(0.186202 0.189268 0)
(0.161909 0.176296 0)
(0.139999 0.165427 0)
(0.119989 0.156266 0)
(0.10148 0.148565 0)
(0.0841463 0.142163 0)
(0.0677243 0.136953 0)
(0.0519961 0.132862 0)
(0.0367778 0.129835 0)
(0.0219144 0.127841 0)
(0.00725164 0.126371 0)
(0.365859 0.41405 0)
(0.361615 0.461845 0)
(0.338403 0.40746 0)
(0.310797 0.355566 0)
(0.281137 0.313327 0)
(0.251079 0.279187 0)
(0.222482 0.251734 0)
(0.196084 0.229499 0)
(0.172027 0.211275 0)
(0.150148 0.196167 0)
(0.130158 0.183543 0)
(0.111745 0.172968 0)
(0.0946177 0.164143 0)
(0.07852 0.156859 0)
(0.0632324 0.150967 0)
(0.0485674 0.146361 0)
(0.0343621 0.142968 0)
(0.0204787 0.140736 0)
(0.00677712 0.139101 0)
(0.303402 0.495324 0)
(0.309295 0.480574 0)
(0.291096 0.426205 0)
(0.270193 0.378807 0)
(0.246802 0.337935 0)
(0.222695 0.303444 0)
(0.199145 0.274661 0)
(0.176841 0.250702 0)
(0.156065 0.230719 0)
(0.136831 0.213998 0)
(0.119018 0.199979 0)
(0.102442 0.188238 0)
(0.0869083 0.178462 0)
(0.0722273 0.170416 0)
(0.0582288 0.163928 0)
(0.0447606 0.15887 0)
(0.0316871 0.155152 0)
(0.0188912 0.152711 0)
(0.00625246 0.150926 0)
(0.259135 0.522912 0)
(0.261283 0.492255 0)
(0.247723 0.441445 0)
(0.231438 0.396901 0)
(0.213071 0.357376 0)
(0.1939 0.323038 0)
(0.174808 0.293629 0)
(0.156357 0.268639 0)
(0.138838 0.247484 0)
(0.122348 0.229611 0)
(0.10686 0.214546 0)
(0.0922832 0.2019 0)
(0.0784967 0.191363 0)
(0.0653731 0.182698 0)
(0.052789 0.175718 0)
(0.0406292 0.170284 0)
(0.0287877 0.166294 0)
(0.0171726 0.163676 0)
(0.00568515 0.161761 0)
(0.223077 0.536649 0)
(0.218858 0.500919 0)
(0.207345 0.453511 0)
(0.194371 0.411021 0)
(0.18005 0.372607 0)
(0.165072 0.338607 0)
(0.149963 0.30898 0)
(0.135117 0.283433 0)
(0.120771 0.261558 0)
(0.107042 0.242925 0)
(0.0939536 0.227132 0)
(0.0814734 0.213833 0)
(0.0695393 0.202734 0)
(0.0580749 0.1936 0)
(0.0469999 0.186243 0)
(0.0362355 0.180517 0)
(0.0257066 0.176314 0)
(0.0153469 0.173558 0)
(0.00508229 0.171536 0)
(0.185528 0.550339 0)
(0.177899 0.508808 0)
(0.168449 0.463317 0)
(0.158379 0.421925 0)
(0.147607 0.384256 0)
(0.136373 0.350608 0)
(0.124919 0.320996 0)
(0.113473 0.295222 0)
(0.102203 0.272977 0)
(0.0912123 0.253911 0)
(0.0805468 0.237678 0)
(0.0702139 0.223964 0)
(0.0601948 0.212496 0)
(0.0504556 0.203047 0)
(0.0409547 0.195432 0)
(0.0316477 0.189505 0)
(0.0224896 0.185153 0)
(0.0134412 0.182299 0)
(0.00445345 0.180193 0)
(0.143299 0.560851 0)
(0.136412 0.515023 0)
(0.129895 0.470751 0)
(0.122909 0.429842 0)
(0.115566 0.392635 0)
(0.10787 0.35932 0)
(0.0998777 0.329876 0)
(0.0916905 0.304125 0)
(0.0834093 0.281795 0)
(0.0751154 0.262578 0)
(0.066866 0.246161 0)
(0.0586953 0.232255 0)
(0.0506189 0.220605 0)
(0.0426392 0.210994 0)
(0.0347491 0.203241 0)
(0.0269364 0.197202 0)
(0.0191858 0.192768 0)
(0.0114837 0.189858 0)
(0.00380721 0.187694 0)
(0.101963 0.566903 0)
(0.0955612 0.519734 0)
(0.09155 0.475499 0)
(0.0877391 0.43475 0)
(0.0838349 0.397844 0)
(0.0796203 0.364875 0)
(0.0750039 0.335742 0)
(0.0699894 0.310232 0)
(0.0646266 0.288069 0)
(0.0589813 0.268954 0)
(0.0531189 0.252589 0)
(0.0470971 0.2387 0)
(0.0409618 0.227046 0)
(0.0347474 0.217418 0)
(0.0284786 0.209645 0)
(0.0221734 0.203587 0)
(0.0158441 0.199135 0)
(0.00950366 0.196213 0)
(0.00315383 0.194016 0)
(0.0576375 0.570848 0)
(0.0540214 0.52225 0)
(0.0530473 0.477401 0)
(0.0526821 0.436531 0)
(0.0523783 0.399848 0)
(0.05171 0.367305 0)
(0.0504605 0.338652 0)
(0.0485749 0.313605 0)
(0.046075 0.291853 0)
(0.043023 0.273081 0)
(0.0394999 0.25699 0)
(0.0355894 0.243316 0)
(0.0313674 0.231827 0)
(0.0268983 0.222325 0)
(0.0222367 0.214646 0)
(0.0174287 0.208656 0)
(0.0125141 0.204252 0)
(0.00752963 0.201359 0)
(0.00250203 0.199153 0)
(0.00892272 0.572629 0)
(0.0114737 0.522133 0)
(0.0140397 0.476092 0)
(0.0176085 0.434908 0)
(0.0212347 0.398488 0)
(0.0242801 0.366577 0)
(0.0264392 0.338626 0)
(0.0276632 0.314289 0)
(0.0279734 0.2932 0)
(0.0274475 0.275011 0)
(0.026195 0.259414 0)
(0.0243343 0.246142 0)
(0.0219731 0.23498 0)
(0.0192051 0.225739 0)
(0.0161132 0.218264 0)
(0.0127706 0.212427 0)
(0.00924226 0.208132 0)
(0.00558922 0.205309 0)
(0.00186145 0.20312 0)
(-0.0398268 0.57313 0)
(-0.0331177 0.518766 0)
(-0.0258259 0.470969 0)
(-0.0174909 0.42949 0)
(-0.00940887 0.393597 0)
(-0.0024232 0.362532 0)
(0.00317316 0.335617 0)
(0.00749067 0.312309 0)
(0.0105491 0.292171 0)
(0.0124626 0.274822 0)
(0.013386 0.259931 0)
(0.0134872 0.247242 0)
(0.0129103 0.23656 0)
(0.0117755 0.227707 0)
(0.0101939 0.220538 0)
(0.00826341 0.214936 0)
(0.0060737 0.210807 0)
(0.00371028 0.20809 0)
(0.00124183 0.205929 0)
(-0.0917751 0.569771 0)
(-0.080874 0.510178 0)
(-0.0666443 0.460818 0)
(-0.0523338 0.419607 0)
(-0.0393025 0.384835 0)
(-0.0281504 0.355126 0)
(-0.0189804 0.329687 0)
(-0.0116298 0.307773 0)
(-0.00593192 0.28887 0)
(-0.00171376 0.27258 0)
(0.00124634 0.258597 0)
(0.00319244 0.246681 0)
(0.00430163 0.236635 0)
(0.00471063 0.228292 0)
(0.0045596 0.221526 0)
(0.00396806 0.216236 0)
(0.00304887 0.212326 0)
(0.00190751 0.209751 0)
(0.000642417 0.207683 0)
(-0.154833 0.556363 0)
(-0.131557 0.493441 0)
(-0.107661 0.444087 0)
(-0.0861681 0.404513 0)
(-0.0677017 0.371854 0)
(-0.0522858 0.344355 0)
(-0.0396466 0.320929 0)
(-0.0294247 0.300805 0)
(-0.0212847 0.283437 0)
(-0.0149222 0.268449 0)
(-0.0100422 0.255575 0)
(-0.00638018 0.244595 0)
(-0.00372479 0.235312 0)
(-0.00189282 0.227584 0)
(-0.000712782 0.221302 0)
(-5.91673e-05 0.216378 0)
(0.000207072 0.212744 0)
(0.000206433 0.210352 0)
(7.70349e-05 0.207973 0)
)
;

boundaryField
{
    leftWall
    {
        type            fixedValue;
        value           nonuniform 0();
    }
    rightWall
    {
        type            fixedValue;
        value           uniform (0 0 0);
    }
    lowerWall
    {
        type            fixedValue;
        value           uniform (0 0 0);
    }
    atmosphere
    {
        type            fluxCorrectedVelocity;
        value           nonuniform 0();
    }
    defaultFaces
    {
        type            empty;
    }
    procBoundary1to0
    {
        type            processor;
        value           nonuniform List<vector> 
26
(
(0.163876 0.0222361 0)
(0.168841 0.0669381 0)
(0.178939 0.112039 0)
(0.195646 0.157425 0)
(0.223023 0.202959 0)
(0.261992 0.247232 0)
(0.319255 0.280585 0)
(0.408095 0.333815 0)
(0.600656 0.228494 0)
(0.606717 0.0928306 0)
(0.620067 -0.0247135 0)
(0.593771 -0.12371 0)
(0.548386 -0.207848 0)
(0.494879 -0.271153 0)
(0.442055 -0.317892 0)
(0.390731 -0.351955 0)
(0.333705 -0.404376 0)
(0.333705 -0.404376 0)
(0.274491 -0.416832 0)
(0.220663 -0.430545 0)
(0.173066 -0.446605 0)
(0.132384 -0.461701 0)
(0.0979364 -0.472616 0)
(0.0684405 -0.479682 0)
(0.0422482 -0.484412 0)
(0.0177302 -0.4845 0)
)
;
    }
    procBoundary1to3
    {
        type            processor;
        value           nonuniform List<vector> 
23
(
(0.0400689 0.0407199 0)
(-0.369782 0.661398 0)
(-0.216589 0.644223 0)
(-0.251605 0.592701 0)
(-0.22192 0.529514 0)
(-0.18235 0.465223 0)
(-0.146964 0.419687 0)
(-0.117611 0.383825 0)
(-0.0936836 0.354667 0)
(-0.0741946 0.33025 0)
(-0.0583636 0.309448 0)
(-0.0455385 0.291542 0)
(-0.0351982 0.276045 0)
(-0.0269159 0.262629 0)
(-0.0203309 0.251056 0)
(-0.0151383 0.241137 0)
(-0.0110878 0.232719 0)
(-0.00796389 0.225693 0)
(-0.00557865 0.219965 0)
(-0.0037739 0.21546 0)
(-0.00240136 0.212142 0)
(-0.00130929 0.209962 0)
(-0.000470685 0.208143 0)
)
;
    }
}


// ************************************************************************* //
