/*--------------------------------*- C++ -*----------------------------------*\
| =========                 |                                                 |
| \\      /  F ield         | OpenFOAM: The Open Source CFD Toolbox           |
|  \\    /   O peration     | Version:  2.4.0                                 |
|   \\  /    A nd           | Web:      www.OpenFOAM.org                      |
|    \\/     M anipulation  |                                                 |
\*---------------------------------------------------------------------------*/
FoamFile
{
    version     2.0;
    format      ascii;
    class       volVectorField;
    location    "0.05";
    object      U.oil;
}
// * * * * * * * * * * * * * * * * * * * * * * * * * * * * * * * * * * * * * //

dimensions      [0 1 -1 0 0 0 0];

internalField   nonuniform List<vector> 
559
(
(0.0588095 0.0269212 0)
(0.061166 0.0819808 0)
(0.066168 0.139648 0)
(0.0743739 0.206011 0)
(0.0890926 0.272105 0)
(0.107965 0.376598 0)
(0.148613 0.443365 0)
(0.212008 0.655663 0)
(-0.0136774 0.000452585 0)
(0.0245807 -0.0161076 0)
(0.114596 -0.015792 0)
(0.177644 -0.0106847 0)
(0.215164 -0.00493984 0)
(0.22874 -0.000939532 0)
(0.227368 0.00142297 0)
(0.215167 0.00305786 0)
(0.198805 0.00380349 0)
(0.17992 0.00411377 0)
(0.159997 0.00421617 0)
(0.139892 0.00420208 0)
(0.120002 0.00413137 0)
(0.100509 0.00403871 0)
(0.0814664 0.00394451 0)
(0.0628523 0.00386029 0)
(0.0446013 0.00379289 0)
(0.0266296 0.00374492 0)
(0.0088369 0.00373805 0)
(-0.0199842 0.00202475 0)
(0.0195044 -0.0507999 0)
(0.120203 -0.0493523 0)
(0.18697 -0.0327632 0)
(0.224427 -0.0151711 0)
(0.236886 -0.00258055 0)
(0.233849 0.00498163 0)
(0.220903 0.00956038 0)
(0.20368 0.0117338 0)
(0.184074 0.0126704 0)
(0.163563 0.0129646 0)
(0.142934 0.0129092 0)
(0.122569 0.0126849 0)
(0.102636 0.0123964 0)
(0.0831773 0.0121047 0)
(0.0641654 0.0118448 0)
(0.0455296 0.0116372 0)
(0.0271801 0.0114923 0)
(0.00900228 0.0113731 0)
(-0.0343947 0.00743798 0)
(0.00422674 -0.0914211 0)
(0.125172 -0.0876771 0)
(0.196666 -0.0554704 0)
(0.233026 -0.0245104 0)
(0.242896 -0.00336642 0)
(0.237019 0.00933292 0)
(0.222847 0.0163952 0)
(0.204627 0.0198587 0)
(0.184484 0.0213458 0)
(0.163685 0.0217754 0)
(0.142904 0.0216455 0)
(0.122466 0.0212483 0)
(0.102506 0.0207527 0)
(0.0830489 0.0202569 0)
(0.0640544 0.0198175 0)
(0.045445 0.0194677 0)
(0.0271283 0.0192263 0)
(0.00898511 0.019035 0)
(-0.0566928 0.0208206 0)
(0.0118741 -0.15619 0)
(0.206847 -0.152208 0)
(0.228431 -0.0862779 0)
(0.246456 -0.0326254 0)
(0.251491 -0.00246892 0)
(0.241943 0.0146444 0)
(0.22546 0.0238601 0)
(0.205855 0.0283565 0)
(0.184952 0.0302354 0)
(0.163748 0.0307091 0)
(0.142761 0.0304515 0)
(0.122233 0.0298504 0)
(0.102251 0.0291293 0)
(0.0828087 0.0284185 0)
(0.0638521 0.0277932 0)
(0.0452936 0.0272975 0)
(0.0270357 0.0269569 0)
(0.00895433 0.0266851 0)
(-0.066524 0.0205341 0)
(0.350416 -0.26427 0)
(1.08484 -0.366293 0)
(1.01065 -0.299875 0)
(0.295708 -0.0494708 0)
(0.262901 0.000445148 0)
(0.248166 0.0214258 0)
(0.228654 0.0321925 0)
(0.207324 0.0373337 0)
(0.185478 0.0393829 0)
(0.163773 0.039777 0)
(0.142537 0.039321 0)
(0.121903 0.0384751 0)
(0.101897 0.0375049 0)
(0.0824807 0.0365652 0)
(0.0635777 0.035746 0)
(0.0450891 0.0350997 0)
(0.0269103 0.034657 0)
(0.0089124 0.0343042 0)
(0.276496 -0.0927047 0)
(1.12079 -0.308295 0)
(2.37496 -0.580848 0)
(2.35397 -0.595294 0)
(1.05867 -0.247157 0)
(0.298304 0.000138263 0)
(0.255378 0.0300051 0)
(0.232192 0.0415562 0)
(0.208894 0.0468793 0)
(0.185981 0.0488364 0)
(0.163716 0.0490037 0)
(0.142204 0.0482649 0)
(0.121459 0.0471253 0)
(0.101437 0.0458775 0)
(0.0820601 0.0446922 0)
(0.0632285 0.0436694 0)
(0.0448299 0.0428669 0)
(0.0267517 0.042319 0)
(0.00885936 0.0418842 0)
(0.940684 -0.16389 0)
(1.49138 -0.320035 0)
(2.34068 -0.542202 0)
(2.26062 -0.539208 0)
(1.00373 -0.213009 0)
(0.322416 0.00749983 0)
(0.262963 0.0406691 0)
(0.235781 0.0520373 0)
(0.210399 0.0570099 0)
(0.18637 0.0585824 0)
(0.163524 0.0583608 0)
(0.141735 0.0572482 0)
(0.120886 0.0557636 0)
(0.100862 0.0542091 0)
(0.0815413 0.052762 0)
(0.0628013 0.0515265 0)
(0.0445143 0.050563 0)
(0.0265588 0.0499074 0)
(0.00879464 0.0493902 0)
(1.00433 -0.143285 0)
(1.52441 -0.311472 0)
(1.98671 -0.435028 0)
(0.977974 -0.236174 0)
(0.383253 -0.0333099 0)
(0.306207 0.0302031 0)
(0.269836 0.0535083 0)
(0.239065 0.0637225 0)
(0.211653 0.0678524 0)
(0.186539 0.0687619 0)
(0.163136 0.0679896 0)
(0.141091 0.0664062 0)
(0.12016 0.0645167 0)
(0.100155 0.062618 0)
(0.0809149 0.0608852 0)
(0.0622901 0.0594217 0)
(0.0441386 0.0582877 0)
(0.02633 0.0575189 0)
(0.00871827 0.0569165 0)
(0.805062 0.562212 0)
(0.801962 0.172074 0)
(0.733615 -0.0373936 0)
(0.677618 -0.167862 0)
(0.611551 -0.261342 0)
(0.536032 -0.320912 0)
(0.467882 -0.359901 0)
(0.399413 -0.387021 0)
(0.978881 0.459765 0)
(1.02305 0.3016 0)
(0.959433 0.171483 0)
(0.900882 0.033589 0)
(0.904759 0.0570367 0)
(1.03463 -0.091584 0)
(1.11144 -0.13974 0)
(1.08235 -0.1922 0)
(0.860965 -0.0920974 0)
(0.945128 -0.116648 0)
(0.917432 -0.137117 0)
(0.922947 -0.219716 0)
(0.762903 -0.217216 0)
(0.77368 -0.22766 0)
(0.72513 -0.326745 0)
(0.769677 -0.569627 0)
(0.65646 -0.296613 0)
(0.601041 -0.33394 0)
(0.518901 -0.525316 0)
(0.542249 -0.780647 0)
(0.533104 -0.349889 0)
(0.459129 -0.442486 0)
(0.380287 -0.619108 0)
(0.4005 -0.833789 0)
(0.425078 -0.394623 0)
(0.33099 -0.502999 0)
(0.276157 -0.650605 0)
(0.28924 -0.777162 0)
(0.337481 -0.439154 0)
(0.239465 -0.53762 0)
(0.201624 -0.660959 0)
(0.213852 -0.658616 0)
(0.265764 -0.468305 0)
(0.180693 -0.554885 0)
(0.153581 -0.654364 0)
(0.175289 -0.477309 0)
(0.203559 -0.486418 0)
(0.135607 -0.558625 0)
(0.116032 -0.633746 0)
(0.152485 -0.162004 0)
(0.148876 -0.498726 0)
(0.100045 -0.55503 0)
(0.0870531 -0.602918 0)
(0.13077 0.251972 0)
(0.104009 -0.506041 0)
(0.0733479 -0.550558 0)
(0.0674072 -0.560844 0)
(0.101799 0.460669 0)
(0.0717379 -0.508825 0)
(0.0532521 -0.541479 0)
(0.0493064 -0.490189 0)
(0.0673 0.512051 0)
(0.0488865 -0.508551 0)
(0.0377717 -0.529891 0)
(0.0246879 -0.271994 0)
(0.030887 0.562886 0)
(0.0317968 -0.503566 0)
(0.0254051 -0.511764 0)
(-0.0457159 0.417918 0)
(-0.0186471 0.608184 0)
(0.0179437 -0.489414 0)
(0.0161629 -0.47205 0)
(-0.0885707 0.622967 0)
(-0.0897687 0.617214 0)
(0.0122233 -0.472283 0)
(-0.105093 0.0873703 0)
(-0.155017 0.653116 0)
(-0.164314 0.612068 0)
(1.01263 -0.113808 0)
(1.43824 -0.267137 0)
(2.2469 -0.44778 0)
(0.558434 -0.0444432 0)
(0.398042 0.0318399 0)
(0.327591 0.065044 0)
(0.279858 0.0788831 0)
(0.243412 0.0845959 0)
(0.213037 0.086074 0)
(0.186366 0.0852405 0)
(0.16218 0.0832168 0)
(0.139794 0.0806774 0)
(0.118782 0.0780307 0)
(0.0988499 0.0755239 0)
(0.0797733 0.0733061 0)
(0.0613657 0.0714657 0)
(0.0434624 0.0700546 0)
(0.0259188 0.0691037 0)
(0.00858091 0.0683676 0)
(1.17549 -0.326051 0)
(1.61487 -0.539426 0)
(2.16908 -0.696414 0)
(0.51112 0.127618 0)
(0.404907 0.120586 0)
(0.334403 0.119053 0)
(0.28329 0.117665 0)
(0.243988 0.115451 0)
(0.211754 0.11226 0)
(0.184035 0.108414 0)
(0.159371 0.104297 0)
(0.136883 0.100216 0)
(0.116008 0.0963915 0)
(0.0963634 0.0929672 0)
(0.0776648 0.0900346 0)
(0.0596893 0.087649 0)
(0.0422492 0.0858421 0)
(0.025186 0.0846333 0)
(0.00833676 0.0837118 0)
(1.03526 -0.389685 0)
(1.55443 -0.666268 0)
(0.672995 0.149637 0)
(0.449413 0.228497 0)
(0.380727 0.191122 0)
(0.323048 0.16998 0)
(0.276502 0.156795 0)
(0.23852 0.147099 0)
(0.20667 0.139016 0)
(0.179161 0.13185 0)
(0.154763 0.125383 0)
(0.132641 0.119579 0)
(0.112223 0.114454 0)
(0.0930989 0.110034 0)
(0.0749621 0.10634 0)
(0.0575728 0.103381 0)
(0.0407323 0.101163 0)
(0.0242746 0.0996881 0)
(0.00803367 0.0985794 0)
(0.87132 -0.820424 0)
(0.824095 -0.600804 0)
(0.455803 0.315132 0)
(0.399891 0.284687 0)
(0.34961 0.242307 0)
(0.303107 0.213298 0)
(0.262637 0.192783 0)
(0.227931 0.177338 0)
(0.197969 0.164991 0)
(0.171706 0.154695 0)
(0.148272 0.145913 0)
(0.126996 0.13837 0)
(0.107374 0.131924 0)
(0.089023 0.126493 0)
(0.071646 0.122027 0)
(0.0550062 0.118492 0)
(0.0389066 0.115862 0)
(0.023183 0.114122 0)
(0.00767184 0.112829 0)
(0.584339 -0.958681 0)
(0.460746 0.184971 0)
(0.392716 0.378605 0)
(0.353794 0.325295 0)
(0.315716 0.282133 0)
(0.278329 0.24945 0)
(0.244044 0.224509 0)
(0.213413 0.204991 0)
(0.186202 0.189268 0)
(0.161909 0.176296 0)
(0.139999 0.165427 0)
(0.119989 0.156266 0)
(0.10148 0.148565 0)
(0.0841463 0.142163 0)
(0.0677243 0.136953 0)
(0.0519961 0.132862 0)
(0.0367778 0.129835 0)
(0.0219144 0.127841 0)
(0.00725164 0.126371 0)
(0.416161 -0.771764 0)
(0.364706 0.423898 0)
(0.338581 0.40623 0)
(0.310831 0.355448 0)
(0.281143 0.313321 0)
(0.251079 0.279187 0)
(0.222482 0.251734 0)
(0.196084 0.229499 0)
(0.172027 0.211275 0)
(0.150148 0.196167 0)
(0.130158 0.183543 0)
(0.111745 0.172968 0)
(0.0946177 0.164143 0)
(0.07852 0.156859 0)
(0.0632324 0.150967 0)
(0.0485674 0.146361 0)
(0.0343621 0.142968 0)
(0.0204787 0.140736 0)
(0.00677712 0.139101 0)
(0.311314 -0.359064 0)
(0.309356 0.470581 0)
(0.291123 0.425719 0)
(0.270205 0.378763 0)
(0.246804 0.337933 0)
(0.222695 0.303444 0)
(0.199145 0.274661 0)
(0.176841 0.250702 0)
(0.156065 0.230719 0)
(0.136831 0.213998 0)
(0.119018 0.199979 0)
(0.102442 0.188238 0)
(0.0869083 0.178462 0)
(0.0722273 0.170416 0)
(0.0582288 0.163928 0)
(0.0447606 0.15887 0)
(0.0316871 0.155152 0)
(0.0188912 0.152711 0)
(0.00625246 0.150926 0)
(0.25627 0.137071 0)
(0.261176 0.486687 0)
(0.247746 0.441206 0)
(0.231443 0.396885 0)
(0.213072 0.357375 0)
(0.1939 0.323038 0)
(0.174808 0.293629 0)
(0.156357 0.268639 0)
(0.138838 0.247484 0)
(0.122348 0.229611 0)
(0.10686 0.214546 0)
(0.0922832 0.2019 0)
(0.0784967 0.191363 0)
(0.0653731 0.182698 0)
(0.052789 0.175718 0)
(0.0406292 0.170284 0)
(0.0287877 0.166294 0)
(0.0171726 0.163676 0)
(0.00568515 0.161761 0)
(0.223112 0.430793 0)
(0.219039 0.497747 0)
(0.207406 0.453485 0)
(0.194374 0.411016 0)
(0.180051 0.372607 0)
(0.165072 0.338607 0)
(0.149963 0.30898 0)
(0.135117 0.283433 0)
(0.120771 0.261558 0)
(0.107042 0.242925 0)
(0.0939536 0.227132 0)
(0.0814734 0.213833 0)
(0.0695393 0.202734 0)
(0.0580749 0.1936 0)
(0.0469999 0.186243 0)
(0.0362355 0.180517 0)
(0.0257066 0.176314 0)
(0.0153469 0.173558 0)
(0.00508229 0.171536 0)
(0.185941 0.492009 0)
(0.178232 0.507569 0)
(0.168442 0.463203 0)
(0.15838 0.421923 0)
(0.147607 0.384256 0)
(0.136373 0.350608 0)
(0.124919 0.320996 0)
(0.113473 0.295222 0)
(0.102203 0.272977 0)
(0.0912123 0.253911 0)
(0.0805468 0.237678 0)
(0.0702139 0.223964 0)
(0.0601948 0.212496 0)
(0.0504556 0.203047 0)
(0.0409547 0.195432 0)
(0.0316477 0.189505 0)
(0.0224896 0.185153 0)
(0.0134412 0.182299 0)
(0.00445345 0.180193 0)
(0.144202 0.546778 0)
(0.136553 0.514524 0)
(0.129903 0.470727 0)
(0.122909 0.429842 0)
(0.115566 0.392635 0)
(0.10787 0.35932 0)
(0.0998777 0.329876 0)
(0.0916905 0.304125 0)
(0.0834093 0.281795 0)
(0.0751154 0.262578 0)
(0.066866 0.246161 0)
(0.0586953 0.232255 0)
(0.0506189 0.220605 0)
(0.0426392 0.210994 0)
(0.0347491 0.203241 0)
(0.0269364 0.197202 0)
(0.0191858 0.192768 0)
(0.0114837 0.189858 0)
(0.00380721 0.187694 0)
(0.102576 0.560572 0)
(0.0956308 0.519519 0)
(0.0915531 0.475491 0)
(0.0877392 0.434749 0)
(0.0838349 0.397844 0)
(0.0796203 0.364875 0)
(0.0750039 0.335742 0)
(0.0699894 0.310232 0)
(0.0646266 0.288069 0)
(0.0589813 0.268954 0)
(0.0531189 0.252589 0)
(0.0470971 0.2387 0)
(0.0409618 0.227046 0)
(0.0347474 0.217418 0)
(0.0284786 0.209645 0)
(0.0221734 0.203587 0)
(0.0158441 0.199135 0)
(0.00950366 0.196213 0)
(0.00315383 0.194016 0)
(0.0582486 0.567813 0)
(0.0540496 0.522177 0)
(0.0530482 0.477399 0)
(0.0526821 0.436531 0)
(0.0523783 0.399848 0)
(0.05171 0.367305 0)
(0.0504605 0.338652 0)
(0.0485749 0.313605 0)
(0.046075 0.291853 0)
(0.043023 0.273081 0)
(0.0394999 0.25699 0)
(0.0355894 0.243316 0)
(0.0313674 0.231827 0)
(0.0268983 0.222325 0)
(0.0222367 0.214646 0)
(0.0174287 0.208656 0)
(0.0125141 0.204252 0)
(0.00752963 0.201359 0)
(0.00250203 0.199153 0)
(0.00924994 0.57183 0)
(0.0114809 0.522114 0)
(0.0140398 0.476092 0)
(0.0176085 0.434908 0)
(0.0212347 0.398488 0)
(0.0242801 0.366577 0)
(0.0264392 0.338626 0)
(0.0276632 0.314289 0)
(0.0279734 0.2932 0)
(0.0274475 0.275011 0)
(0.026195 0.259414 0)
(0.0243343 0.246142 0)
(0.0219731 0.23498 0)
(0.0192051 0.225739 0)
(0.0161132 0.218264 0)
(0.0127706 0.212427 0)
(0.00924226 0.208132 0)
(0.00558922 0.205309 0)
(0.00186145 0.20312 0)
(-0.039761 0.572983 0)
(-0.0331165 0.518763 0)
(-0.0258259 0.470969 0)
(-0.0174909 0.42949 0)
(-0.00940887 0.393597 0)
(-0.0024232 0.362532 0)
(0.00317316 0.335617 0)
(0.00749067 0.312309 0)
(0.0105491 0.292171 0)
(0.0124626 0.274822 0)
(0.013386 0.259931 0)
(0.0134872 0.247242 0)
(0.0129103 0.23656 0)
(0.0117755 0.227707 0)
(0.0101939 0.220538 0)
(0.00826341 0.214936 0)
(0.0060737 0.210807 0)
(0.00371028 0.20809 0)
(0.00124183 0.205929 0)
(-0.091765 0.569753 0)
(-0.0808739 0.510178 0)
(-0.0666443 0.460818 0)
(-0.0523338 0.419607 0)
(-0.0393025 0.384835 0)
(-0.0281504 0.355126 0)
(-0.0189804 0.329687 0)
(-0.0116298 0.307773 0)
(-0.00593192 0.28887 0)
(-0.00171376 0.27258 0)
(0.00124634 0.258597 0)
(0.00319244 0.246681 0)
(0.00430163 0.236635 0)
(0.00471063 0.228292 0)
(0.0045596 0.221526 0)
(0.00396806 0.216236 0)
(0.00304887 0.212326 0)
(0.00190751 0.209751 0)
(0.000642417 0.207683 0)
(-0.154832 0.556361 0)
(-0.131557 0.493441 0)
(-0.107661 0.444087 0)
(-0.0861681 0.404513 0)
(-0.0677017 0.371854 0)
(-0.0522858 0.344355 0)
(-0.0396466 0.320929 0)
(-0.0294247 0.300805 0)
(-0.0212847 0.283437 0)
(-0.0149222 0.268449 0)
(-0.0100422 0.255575 0)
(-0.00638018 0.244595 0)
(-0.00372479 0.235312 0)
(-0.00189282 0.227584 0)
(-0.000712782 0.221302 0)
(-5.91673e-05 0.216378 0)
(0.000207072 0.212744 0)
(0.000206433 0.210352 0)
(7.70349e-05 0.207973 0)
)
;

boundaryField
{
    leftWall
    {
        type            fixedValue;
        value           nonuniform 0();
    }
    rightWall
    {
        type            fixedValue;
        value           uniform (0 0 0);
    }
    lowerWall
    {
        type            fixedValue;
        value           uniform (0 0 0);
    }
    atmosphere
    {
        type            fluxCorrectedVelocity;
        value           nonuniform 0();
    }
    defaultFaces
    {
        type            empty;
    }
    procBoundary1to0
    {
        type            processor;
        value           nonuniform List<vector> 
26
(
(0.163909 0.0222487 0)
(0.168873 0.0669799 0)
(0.178973 0.112108 0)
(0.195682 0.157515 0)
(0.223063 0.203065 0)
(0.262037 0.247347 0)
(0.319308 0.280705 0)
(0.408167 0.333935 0)
(0.600742 0.228583 0)
(0.606795 0.0929047 0)
(0.620129 -0.0246757 0)
(0.593831 -0.123694 0)
(0.548434 -0.207837 0)
(0.49491 -0.271148 0)
(0.442073 -0.31789 0)
(0.390754 -0.351952 0)
(0.333726 -0.404367 0)
(0.333726 -0.404367 0)
(0.274515 -0.416829 0)
(0.220682 -0.430542 0)
(0.173082 -0.446603 0)
(0.132395 -0.461699 0)
(0.0979444 -0.472614 0)
(0.0684463 -0.479679 0)
(0.0422523 -0.484411 0)
(0.0177123 -0.4845 0)
)
;
    }
    procBoundary1to3
    {
        type            processor;
        value           nonuniform List<vector> 
23
(
(0.0132809 -0.447199 0)
(-0.318257 0.546061 0)
(-0.215915 0.643344 0)
(-0.251583 0.592678 0)
(-0.22192 0.529514 0)
(-0.18235 0.465223 0)
(-0.146964 0.419687 0)
(-0.117611 0.383825 0)
(-0.0936836 0.354667 0)
(-0.0741946 0.33025 0)
(-0.0583636 0.309448 0)
(-0.0455385 0.291542 0)
(-0.0351982 0.276045 0)
(-0.0269159 0.262629 0)
(-0.0203309 0.251056 0)
(-0.0151383 0.241137 0)
(-0.0110878 0.232719 0)
(-0.00796389 0.225693 0)
(-0.00557865 0.219965 0)
(-0.0037739 0.21546 0)
(-0.00240136 0.212142 0)
(-0.00130929 0.209962 0)
(-0.000470685 0.208143 0)
)
;
    }
}


// ************************************************************************* //
