/*--------------------------------*- C++ -*----------------------------------*\
| =========                 |                                                 |
| \\      /  F ield         | OpenFOAM: The Open Source CFD Toolbox           |
|  \\    /   O peration     | Version:  2.4.0                                 |
|   \\  /    A nd           | Web:      www.OpenFOAM.org                      |
|    \\/     M anipulation  |                                                 |
\*---------------------------------------------------------------------------*/
FoamFile
{
    version     2.0;
    format      ascii;
    class       volScalarField;
    location    "0.75";
    object      alpha.water;
}
// * * * * * * * * * * * * * * * * * * * * * * * * * * * * * * * * * * * * * //

dimensions      [0 0 0 0 0 0 0];

internalField   nonuniform List<scalar> 
575
(
4.1556e-08
5.19485e-08
2.2563e-08
2.69328e-08
3.15392e-08
2.24193e-08
1.71724e-08
1.544e-08
1.66159e-08
1.95716e-08
1.74009e-08
1.30949e-08
9.20807e-09
8.33069e-09
8.13614e-09
6.81569e-09
4.67837e-09
3.76325e-09
3.66431e-09
3.98694e-09
2.24992e-09
7.9562e-10
0.000194968
0.000223406
0.000122456
0.000114156
0.000105685
3.41746e-05
4.56488e-06
6.22355e-07
2.69896e-07
2.27663e-07
1.23153e-07
4.76916e-08
3.21556e-08
3.12221e-08
3.12553e-08
2.5316e-08
2.06228e-08
1.42427e-08
1.26406e-08
1.29979e-08
1.30916e-08
1.56856e-09
0.0658444
0.0664363
0.0572052
0.0518857
0.0441655
0.0231231
0.00427454
0.000397324
3.83256e-05
8.4427e-06
2.05369e-06
4.61318e-07
2.53833e-07
2.76203e-07
1.57397e-07
6.92212e-08
4.66268e-08
4.15442e-08
5.21263e-08
6.64339e-08
4.08208e-08
1.16156e-08
0.822068
0.821367
0.809959
0.801176
0.78176
0.734496
0.638112
0.47207
0.230739
0.0199718
0.000372288
1.75622e-05
1.67432e-06
5.81339e-07
4.33579e-07
3.22355e-07
1.93244e-07
1.8187e-07
2.58901e-07
3.04385e-07
1.45999e-07
4.77066e-08
0.999991
0.999991
0.999991
0.999991
0.999991
0.999991
0.999621
0.987415
0.898669
0.430544
0.0310507
0.000924428
6.32086e-05
1.95497e-05
1.08445e-05
4.28086e-06
1.45314e-06
9.37485e-07
1.07511e-06
1.11926e-06
5.14697e-07
3.3094e-07
0.999995
0.999995
0.999995
0.999995
0.999995
0.999995
0.999995
0.999987
0.997821
0.867453
0.257848
0.0149628
0.000723839
0.000106398
3.4962e-05
1.81026e-05
3.56785e-05
4.44526e-05
3.30921e-05
3.37432e-05
0.000130863
0.000208633
0.999993
0.999993
0.999994
0.999994
0.999995
0.999995
0.999995
0.999995
0.999612
0.955935
0.553031
0.0752921
0.00411726
0.000409669
0.000583236
0.00344575
0.00837761
0.0104013
0.00959606
0.00986432
0.0179095
0.0226017
0.999994
0.999995
0.999995
0.999995
0.999995
0.999995
0.999995
0.999994
0.999924
0.987088
0.792413
0.282478
0.0305184
0.0159931
0.0561123
0.117544
0.176774
0.214169
0.235741
0.260886
0.309254
0.323704
0.999998
0.999998
0.999997
0.999997
0.999997
0.999986
0.999981
0.999983
0.999979
0.998508
0.966362
0.835374
0.630019
0.539086
0.592151
0.681429
0.752402
0.813015
0.854693
0.880523
0.896168
0.886717
0.999999
0.999994
0.999527
0.999632
0.999746
0.998852
0.999147
0.999561
0.999797
0.999782
0.998932
0.99317
0.987369
0.992468
0.994945
0.994945
0.993035
0.98508
0.970446
0.95201
0.942716
0.941924
0.999998
0.998178
0.954545
0.958409
0.975356
0.960935
0.97144
0.988477
0.995518
0.997977
0.99885
0.999061
0.999059
0.998867
0.991856
0.955115
0.901874
0.847194
0.796255
0.755714
0.744325
0.712425
0.99943
0.919372
0.586764
0.528184
0.610237
0.624589
0.744187
0.842752
0.894953
0.930886
0.948186
0.960281
0.961516
0.891298
0.779071
0.632847
0.561841
0.469937
0.33997
0.248857
0.268387
0.330215
0.964724
0.543671
0.139527
0.132394
0.134095
0.178144
0.252727
0.32405
0.382497
0.432772
0.433723
0.416871
0.35907
0.270597
0.172706
0.0879771
0.0547744
0.0165806
0.00216884
0.00236959
0.0331984
0.0946751
0.645595
0.198795
0.0297174
0.0302088
0.035446
0.0327368
0.0404993
0.0719834
0.0847601
0.0796833
0.0690043
0.0287582
0.00099706
0.000238145
3.67855e-05
3.89382e-06
3.67497e-07
5.28025e-08
3.51059e-07
0.000122558
0.00601978
0.0291889
0.0873338
0.018106
0.000526309
0.000511327
0.000588405
0.000160379
0.000121395
0.00048717
0.000500589
0.00043464
0.000219041
2.8262e-05
7.59696e-07
2.89612e-09
5.5261e-10
7.327e-10
1.04384e-09
4.08839e-10
4.116e-09
5.63744e-06
0.000424043
0.00317575
0.000897888
0.00014102
2.04778e-06
5.5489e-07
1.68176e-07
5.88859e-09
3.18111e-09
1.3306e-08
2.05123e-07
2.09388e-07
6.33252e-08
5.96775e-09
3.0748e-09
9.39165e-10
2.35415e-10
3.61662e-10
1.04782e-09
4.08573e-10
4.74651e-10
7.40208e-08
6.92023e-06
6.3508e-05
9.11768e-07
1.59795e-07
1.09548e-08
1.09265e-08
1.0433e-08
4.54251e-09
1.49758e-09
3.03041e-09
1.88685e-09
1.89557e-09
2.08443e-09
2.31307e-09
2.65804e-09
1.04476e-09
1.46705e-10
7.70049e-11
1.71527e-10
6.24362e-10
1.26963e-09
4.51137e-09
4.18374e-08
3.36591e-07
7.70556e-07
4.75562e-08
1.95165e-08
1.13123e-08
1.36917e-08
6.48397e-09
1.44125e-09
1.08708e-09
4.6074e-09
3.6089e-09
1.90337e-09
1.9724e-09
3.4876e-09
5.05957e-09
2.70431e-09
4.02683e-10
1.03676e-10
3.92026e-11
4.67426e-10
1.59306e-09
2.0072e-09
2.55944e-09
8.40745e-09
3.34346e-08
2.43697e-08
1.82526e-08
1.82737e-08
1.7195e-08
7.34306e-09
9.62056e-10
1.90397e-09
5.38131e-09
5.02798e-09
2.87413e-09
2.4314e-09
3.2432e-09
5.02984e-09
1.32338e-09
7.31784e-11
1.91489e-11
1.56527e-11
2.73466e-10
1.20959e-09
1.81545e-09
1.81415e-09
4.25207e-09
2.27961e-08
2.61219e-08
2.66373e-08
2.4231e-08
1.1868e-08
1.72152e-09
1.17845e-10
8.33685e-10
3.63295e-09
5.10078e-09
3.64583e-09
4.08542e-09
5.45203e-09
4.88526e-09
6.53272e-10
1.06767e-11
3.85052e-12
7.85273e-12
8.7884e-11
4.90745e-10
1.37095e-09
1.69313e-09
1.78374e-09
6.2504e-09
4.77852e-08
3.59671e-08
2.06756e-08
7.88994e-09
3.66567e-10
4.13243e-11
2.85739e-10
1.49574e-09
3.11205e-09
3.54456e-09
4.51091e-09
4.57601e-09
1.66405e-09
5.62903e-11
2.09013e-12
8.79679e-13
1.71219e-12
7.67623e-12
8.28577e-11
6.36418e-10
1.32771e-09
1.55292e-09
1.71398e-09
4.72211e-08
2.74072e-08
1.33859e-08
1.36984e-09
3.15549e-11
2.09205e-11
6.63094e-11
5.10267e-10
1.41798e-09
2.70492e-09
3.20232e-09
1.70246e-09
2.53253e-10
7.21739e-12
5.19685e-13
2.03655e-13
4.3379e-13
1.78977e-12
1.3676e-11
1.86745e-10
6.91627e-10
1.09701e-09
1.27488e-09
3.12823e-08
1.4929e-08
2.15257e-09
4.94086e-11
1.42119e-11
1.0634e-11
1.96671e-11
5.5302e-11
3.16701e-10
9.43433e-10
9.89016e-10
2.79441e-10
5.95604e-11
2.05797e-12
1.28889e-13
4.56097e-14
1.03358e-13
4.34133e-13
2.44076e-12
3.26013e-11
1.58939e-10
5.17758e-10
7.53953e-10
1.01563e-08
1.95759e-09
6.16064e-11
1.15085e-11
6.56859e-12
5.0312e-12
7.22645e-12
1.23053e-11
1.81327e-11
8.37096e-11
6.02859e-11
2.75169e-11
1.01259e-11
6.00279e-13
4.09985e-14
9.57938e-15
2.14323e-14
8.95901e-14
4.39165e-13
4.08706e-12
1.90795e-11
1.68959e-10
2.9494e-10
6.35195e-10
4.536e-11
8.79568e-12
4.98425e-12
2.71476e-12
2.14077e-12
2.75716e-12
4.56362e-12
5.82019e-12
8.56643e-12
7.47024e-12
9.30145e-12
2.55987e-12
2.07172e-13
1.8329e-14
2.22016e-15
3.96059e-15
1.67305e-14
7.78568e-14
4.76267e-13
2.22819e-12
2.61754e-11
7.7325e-11
9.5316e-12
6.39712e-12
3.53966e-12
1.80914e-12
9.88654e-13
7.98254e-13
9.84906e-13
1.51003e-12
1.90831e-12
3.10518e-12
2.55148e-12
2.58642e-12
6.16766e-13
7.93381e-14
8.84733e-15
6.85625e-16
)
;

boundaryField
{
    leftWall
    {
        type            zeroGradient;
    }
    rightWall
    {
        type            zeroGradient;
    }
    lowerWall
    {
        type            zeroGradient;
    }
    atmosphere
    {
        type            inletOutlet;
        inletValue      nonuniform 0();
        value           nonuniform 0();
    }
    defaultFaces
    {
        type            empty;
    }
    procBoundary0to1
    {
        type            processor;
        value           nonuniform List<scalar> 
26
(
3.14512e-10
8.14676e-10
4.02202e-09
1.07401e-08
4.14694e-08
4.2301e-05
0.0097874
0.207406
0.796664
0.933158
0.656161
0.214399
0.0924724
0.0378474
0.00562632
0.000121675
0.000121675
1.13225e-06
1.86733e-07
8.79309e-08
2.0551e-08
3.11624e-09
1.24256e-09
7.29504e-10
2.73853e-10
8.24376e-11
)
;
    }
    procBoundary0to2
    {
        type            processor;
        value           nonuniform List<scalar> 
24
(
7.04088e-16
2.98251e-15
1.41441e-14
6.68073e-14
2.8587e-13
3.95427e-12
1.11654e-11
3.2651e-12
2.14475e-12
1.12502e-12
5.61681e-13
3.11589e-13
2.56603e-13
3.14242e-13
4.6052e-13
5.65523e-13
8.56592e-13
6.93901e-13
6.08363e-13
1.50643e-13
2.77806e-14
3.6682e-15
7.04088e-16
2.62672e-16
)
;
    }
}


// ************************************************************************* //
