/*--------------------------------*- C++ -*----------------------------------*\
| =========                 |                                                 |
| \\      /  F ield         | OpenFOAM: The Open Source CFD Toolbox           |
|  \\    /   O peration     | Version:  2.4.0                                 |
|   \\  /    A nd           | Web:      www.OpenFOAM.org                      |
|    \\/     M anipulation  |                                                 |
\*---------------------------------------------------------------------------*/
FoamFile
{
    version     2.0;
    format      ascii;
    class       volScalarField;
    location    "0.75";
    object      alphas;
}
// * * * * * * * * * * * * * * * * * * * * * * * * * * * * * * * * * * * * * //

dimensions      [0 0 0 0 0 0 0];

internalField   nonuniform List<scalar> 
575
(
2
2
2
2
2
2
2
2
2
2
2
2
2
2
2
2
2
2
2
2
2
2
1.99961
1.99955
1.99975
1.99977
1.99979
1.99993
1.99999
2
2
2
2
2
2
2
2
2
2
2
2
2
2
2
1.86831
1.86713
1.88559
1.89623
1.91167
1.95375
1.99145
1.99921
1.99992
1.99998
2
2
2
2
2
2
2
2
2
2
2
2
0.355865
0.357266
0.380082
0.397647
0.436481
0.531008
0.723776
1.05586
1.53852
1.96006
1.99926
1.99996
2
2
2
2
2
2
2
2
2
2
1.75499e-05
1.74504e-05
1.75997e-05
1.748e-05
1.76146e-05
1.79876e-05
0.00075792
0.0251688
0.202661
1.13891
1.9379
1.99815
1.99987
1.99996
1.99998
1.99999
2
2
2
2
2
1.99999
1.06902e-05
1.02667e-05
1.00772e-05
1.00758e-05
1.01006e-05
1.00515e-05
1.00547e-05
2.65497e-05
0.00435726
0.265093
1.4843
1.97007
1.99855
1.99979
1.99993
1.99996
1.99993
1.99991
1.99993
1.99993
1.99973
1.99958
1.43093e-05
1.35978e-05
1.20918e-05
1.19082e-05
1.04823e-05
1.01361e-05
1.01301e-05
1.0537e-05
0.000776402
0.0881293
0.893939
1.84942
1.99177
1.99918
1.99883
1.99309
1.98323
1.97919
1.9808
1.98027
1.96418
1.95479
1.17896e-05
1.02935e-05
8.97255e-06
9.8032e-06
9.85944e-06
9.39331e-06
1.02363e-05
1.12386e-05
0.000152138
0.0258245
0.415174
1.43504
1.93896
1.968
1.88774
1.76487
1.64643
1.57166
1.52851
1.47822
1.38149
1.35259
4.58336e-06
4.36771e-06
4.44219e-06
4.54804e-06
5.14961e-06
1.53243e-05
2.11153e-05
1.97847e-05
3.68102e-05
0.00298243
0.0672753
0.329251
0.739961
0.921812
0.815611
0.636878
0.494546
0.372196
0.285451
0.228535
0.195577
0.214326
2.17895e-06
6.67868e-06
0.000473514
0.000368757
0.000254635
0.00114775
0.000853447
0.000439999
0.000205855
0.000319759
0.00207727
0.013625
0.0252467
0.0150484
0.00956682
0.00761125
0.0085069
0.016444
0.030886
0.0488862
0.0577878
0.0583406
3.07645e-06
0.00182341
0.045456
0.0415919
0.0246442
0.0390659
0.0285605
0.0115235
0.00448215
0.00202435
0.00124404
0.00118264
0.00152165
0.00133099
0.00822596
0.0451243
0.0989659
0.156392
0.214331
0.259875
0.261152
0.289075
0.000571579
0.0806326
0.41324
0.471819
0.389764
0.375412
0.255814
0.157248
0.105047
0.0691139
0.0518144
0.0397215
0.038504
0.109684
0.231613
0.43505
0.589926
0.866345
1.26804
1.59068
1.27933
0.690176
0.0357217
0.457007
0.860622
0.867717
0.865917
0.821856
0.747274
0.67595
0.617503
0.567228
0.566277
0.583378
0.69785
0.963644
1.37753
1.95158
2.32937
2.7338
2.9497
2.94633
2.30038
1.0748
0.483232
0.983774
1.47927
1.74898
1.75911
1.61413
1.45317
1.32296
1.28459
1.29986
1.50756
1.96103
2.4483
2.79017
2.98314
2.99987
2.99999
2.99999
2.99984
2.97211
2.41401
1.26789
2.5591
2.63963
2.87361
2.93602
2.95216
2.97087
2.96935
2.90873
2.91817
2.94875
2.97835
2.99753
2.99988
2.99999
2.99999
3
3
3
2.99998
2.99193
2.77595
2.17759
2.99272
2.99394
2.99922
2.99979
2.99997
3
3
2.99997
2.99976
2.99989
2.99997
3
3
3
3
3
3
3
2.99999
2.99832
2.97777
2.93923
2.99998
2.99998
3
3
3
3
3
3
3
3
3
3
3
3
3
3
3
3
2.99999
2.99984
2.99955
2.99925
2.99916
3
3
3
3
3
3
3
3
3
3
3
3
3
3
3
3
3
3
3
3
3
3
3
3
3
3
3
3
3
3
3
3
3
3
3
3
3
3
3
3
3
3
3
3
3
3
3
3
3
3
3
3
3
3
3
3
3
3
3
3
3
3
3
3
3
3
3
3
3
3
3
3
3
3
3
3
3
3
3
3
3
3
3
3
3
3
3
3
3
3
3
3
3
3
3
3
3
3
3
3
3
3
3
3
3
3
3
3
3
3
3
3
3
3
3
3
3
3
3
3
3
3
3
3
3
3
3
3
3
3
3
3
3
3
3
3
3
3
3
3
3
3
3
3
3
3
3
3
3
3
3
3
3
3
3
3
3
3
3
3
3
3
3
3
3
3
3
3
3
3
3
3
3
3
3
3
3
3
3
3
3
3
3
3
3
3
3
3
3
3
3
3
3
3
3
3
3
3
3
3
)
;

boundaryField
{
    leftWall
    {
        type            zeroGradient;
    }
    rightWall
    {
        type            zeroGradient;
    }
    lowerWall
    {
        type            zeroGradient;
    }
    atmosphere
    {
        type            zeroGradient;
    }
    defaultFaces
    {
        type            empty;
    }
    procBoundary0to1
    {
        type            processor;
        value           nonuniform List<scalar> 
26
(
1.99999
1.99999
1.99999
1.99999
1.99999
1.9999
1.98042
1.5851
0.389926
0.0670826
0.344928
0.788842
0.936028
1.10026
2.01271
2.92598
2.92598
2.99989
3
3
3
3
3
3
3
2.99999
)
;
    }
    procBoundary0to2
    {
        type            processor;
        value           nonuniform List<scalar> 
24
(
3
3
3
3
3
3
2.99999
3
3
3
3
3
3
3
3
3
3
3
3
3
3
3
3
3
)
;
    }
}


// ************************************************************************* //
