/*--------------------------------*- C++ -*----------------------------------*\
| =========                 |                                                 |
| \\      /  F ield         | OpenFOAM: The Open Source CFD Toolbox           |
|  \\    /   O peration     | Version:  2.4.0                                 |
|   \\  /    A nd           | Web:      www.OpenFOAM.org                      |
|    \\/     M anipulation  |                                                 |
\*---------------------------------------------------------------------------*/
FoamFile
{
    version     2.0;
    format      ascii;
    class       volScalarField;
    location    "0.75";
    object      alpha.air;
}
// * * * * * * * * * * * * * * * * * * * * * * * * * * * * * * * * * * * * * //

dimensions      [0 0 0 0 0 0 0];

internalField   nonuniform List<scalar> 
575
(
5.90523e-12
7.46648e-12
4.37593e-12
5.77662e-12
7.20733e-12
5.04546e-12
3.30841e-12
2.24824e-12
1.85765e-12
1.58848e-12
1.03386e-12
4.88598e-13
1.9538e-13
9.39746e-14
6.4156e-14
4.77294e-14
3.04853e-14
1.96755e-14
1.5895e-14
1.95264e-14
1.46716e-14
3.47032e-15
3.94451e-11
4.61019e-11
3.43138e-11
3.98312e-11
4.45315e-11
3.54359e-11
2.65503e-11
1.96505e-11
1.58911e-11
1.23429e-11
7.23677e-12
3.05938e-12
1.14482e-12
5.60948e-13
3.8199e-13
2.74857e-13
1.76987e-13
1.21954e-13
1.0879e-13
1.25318e-13
9.61698e-14
2.85028e-14
1.14002e-10
1.29819e-10
1.11479e-10
1.20742e-10
1.27981e-10
9.77341e-11
7.16114e-11
4.40533e-11
2.97182e-11
2.58245e-11
1.81277e-11
9.56787e-12
4.51493e-12
2.32816e-12
1.36229e-12
8.62337e-13
5.56355e-13
4.1386e-13
3.92751e-13
4.08591e-13
3.09084e-13
1.20418e-13
1.93988e-10
2.0427e-10
2.02022e-10
2.2849e-10
2.45107e-10
2.50089e-10
2.49958e-10
2.50089e-10
2.40003e-10
1.68096e-10
7.39314e-11
2.1748e-11
8.73724e-12
4.50633e-12
2.75843e-12
1.88345e-12
1.32402e-12
1.02844e-12
9.22971e-13
8.16965e-13
6.01675e-13
3.17829e-13
5.67113e-11
5.67118e-11
5.68026e-11
5.71391e-11
5.87722e-11
5.94598e-11
6.37879e-11
6.54041e-11
1.06402e-10
1.82071e-10
1.41996e-10
4.84245e-11
2.35529e-11
1.13812e-11
6.15963e-12
3.66145e-12
2.57128e-12
1.99343e-12
1.61731e-12
1.25916e-12
1.10819e-12
1.09883e-12
5.67169e-11
5.69632e-11
5.78543e-11
6.50404e-11
6.48386e-11
9.04683e-11
1.07443e-10
1.14703e-10
9.84021e-11
1.48343e-10
1.79232e-10
8.98819e-11
3.65162e-11
1.71243e-11
8.28693e-12
5.18403e-12
3.76759e-12
3.00484e-12
2.26155e-12
1.85406e-12
2.84913e-12
9.74431e-12
5.67704e-11
5.71361e-11
5.87784e-11
6.08273e-11
1.03021e-10
4.87955e-10
2.32606e-10
3.00323e-10
2.9236e-10
1.88581e-10
1.79364e-10
9.35799e-11
3.42485e-11
1.76958e-11
9.67496e-12
5.12435e-12
3.82503e-12
3.23326e-12
2.5709e-12
4.36374e-12
8.4092e-10
7.88535e-09
5.70082e-11
3.85961e-10
1.43343e-09
6.64473e-11
5.67266e-10
1.87775e-09
6.04709e-10
6.48665e-10
7.44725e-10
5.54692e-10
3.94853e-10
2.26485e-10
7.80606e-11
6.0094e-11
3.57982e-12
3.39598e-12
3.21073e-12
3.01972e-12
2.8068e-12
3.05577e-12
1.38877e-07
4.14428e-07
7.60631e-08
7.81958e-08
4.79154e-08
1.81123e-08
6.86548e-09
4.38104e-09
1.18042e-09
6.89542e-10
1.26842e-09
1.53154e-09
1.30815e-09
1.14017e-09
1.23253e-09
1.27622e-09
1.2e-09
2.44023e-09
3.06678e-08
2.09303e-07
9.41678e-07
2.16531e-06
2.39027e-06
3.04452e-06
4.72845e-07
2.81927e-07
1.67367e-07
8.49852e-08
2.64852e-08
1.29764e-08
3.71611e-09
1.27708e-09
1.26711e-09
1.60044e-09
1.77319e-09
1.74298e-09
1.51529e-09
1.58702e-09
8.60549e-08
1.67769e-06
1.32841e-06
2.15352e-06
5.80409e-06
1.10127e-05
4.48704e-06
4.7407e-06
6.53948e-07
6.01146e-07
4.43208e-07
4.3299e-07
3.00813e-07
2.86468e-07
9.5585e-08
3.00848e-08
4.29305e-09
2.16447e-09
1.78166e-09
1.75648e-09
2.03604e-09
7.47594e-08
2.67745e-06
0.000106619
0.000412346
0.00178629
0.00528685
0.00778912
0.00273424
0.000746827
1.01297e-06
2.5288e-06
2.18265e-06
2.00359e-06
3.2663e-07
3.85537e-07
1.95181e-07
3.92864e-08
1.04005e-08
5.07207e-09
2.47761e-09
1.85203e-09
9.31351e-06
0.000490107
0.00534116
0.0339476
0.075883
0.168141
0.304004
0.419766
0.273857
0.0101941
0.000222627
0.000339274
7.45535e-05
5.53867e-05
6.16072e-06
4.8025e-07
1.24398e-07
2.19196e-08
6.26519e-09
5.11057e-09
5.00925e-08
0.000124412
0.0284603
0.117121
0.275118
0.519778
0.69207
0.875193
0.975935
0.974349
0.666792
0.0847381
0.0644136
0.0912843
0.254496
0.389597
0.39728
0.323433
0.246836
0.19747
0.184674
0.18977
0.288284
0.494896
0.724647
0.895205
0.991589
0.999936
0.999996
0.999998
0.999921
0.986119
0.710013
0.14854
0.823218
0.828869
0.937069
0.968266
0.976376
0.985514
0.984735
0.954611
0.959336
0.974591
0.989284
0.998778
0.99994
0.999998
0.999997
0.999999
0.999999
0.999999
0.99999
0.995966
0.888185
0.590383
0.996807
0.99704
0.99961
0.999896
0.999986
0.999999
0.999998
0.999985
0.999881
0.999948
0.999987
0.999998
0.999999
0.999999
0.999999
0.999999
0.999999
0.999999
0.999995
0.999159
0.988887
0.969644
0.999993
0.999993
0.999999
0.999999
0.999999
0.999999
0.999999
1
1
1
0.999999
0.999999
0.999999
0.999999
0.999999
0.999999
0.999999
0.999999
0.999995
0.999921
0.999773
0.999626
0.99958
0.999999
0.999999
0.999999
0.999999
0.999999
0.999999
1
1
1
1
1
0.999999
0.999999
0.999999
0.999999
0.999999
0.999999
0.999999
0.999999
0.999999
1
1
1
0.999999
0.999999
0.999999
0.999999
0.999999
0.999999
1
1
1
1
1
1
0.999999
0.999999
0.999999
0.999999
1
1
1
1
1
1
1
0.999999
0.999999
0.999999
0.999999
0.999999
0.999999
1
1
1
1
1
0.999999
0.999999
0.999999
0.999999
1
1
1
1
1
1
1
1
0.999999
0.999999
0.999999
0.999999
0.999999
0.999999
1
1
1
1
1
0.999999
0.999999
0.999999
1
1
1
1
1
1
0.999999
1
0.999999
0.999999
0.999999
0.999999
0.999999
0.999999
0.999999
1
1
1
1
1
1
0.999999
0.999999
1
1
1
1
1
0.999999
0.999999
0.999999
0.999999
0.999999
0.999999
0.999999
0.999999
0.999999
0.999999
1
1
1
1
1
1
0.999999
0.999999
0.999999
1
0.999999
0.999999
0.999999
0.999999
0.999999
0.999999
0.999999
0.999999
0.999999
0.999999
0.999999
0.999999
1
1
1
1
1
1
1
0.999999
0.999999
0.999999
1
1
0.999999
0.999999
0.999999
0.999999
0.999999
0.999998
0.999999
0.999999
0.999999
0.999999
0.999999
1
1
1
1
1
1
1
0.999999
0.999999
1
1
1
1
0.999999
0.999999
0.999999
0.999999
0.999999
0.999999
0.999999
0.999999
0.999999
1
1
1
1
1
1
1
1
0.999999
0.999999
0.999999
1
)
;

boundaryField
{
    leftWall
    {
        type            alphaContactAngle;
        thetaProperties 
6
(

(
water
mercury
)
 90 0 0 0

(
water
air
)
 90 0 0 0

(
water
oil
)
 90 0 0 0

(
mercury
air
)
 90 0 0 0

(
oil
mercury
)
 90 0 0 0

(
oil
air
)
 90 0 0 0
);
        value           nonuniform List<scalar> 
26
(
5.90523e-12
3.94451e-11
1.14002e-10
1.93988e-10
5.67113e-11
5.67169e-11
5.67704e-11
5.70082e-11
7.60631e-08
4.72845e-07
6.53948e-07
1.01297e-06
0.000222627
0.0644136
0.823218
0.996807
0.999993
0.999999
0.999999
0.999999
0.999999
0.999999
0.999999
0.999999
0.999999
0.999999
)
;
    }
    rightWall
    {
        type            alphaContactAngle;
        thetaProperties 
6
(

(
water
mercury
)
 90 0 0 0

(
water
air
)
 90 0 0 0

(
water
oil
)
 90 0 0 0

(
mercury
air
)
 90 0 0 0

(
oil
mercury
)
 90 0 0 0

(
oil
air
)
 90 0 0 0
);
        value           nonuniform 0();
    }
    lowerWall
    {
        type            alphaContactAngle;
        thetaProperties 
6
(

(
water
mercury
)
 90 0 0 0

(
water
air
)
 90 0 0 0

(
water
oil
)
 90 0 0 0

(
mercury
air
)
 90 0 0 0

(
oil
mercury
)
 90 0 0 0

(
oil
air
)
 90 0 0 0
);
        value           nonuniform List<scalar> 
22
(
5.90523e-12
7.46648e-12
4.37593e-12
5.77662e-12
7.20733e-12
5.04546e-12
3.30841e-12
2.24824e-12
1.85765e-12
1.58848e-12
1.03386e-12
4.88598e-13
1.9538e-13
9.39746e-14
6.4156e-14
4.77294e-14
3.04853e-14
1.96755e-14
1.5895e-14
1.95264e-14
1.46716e-14
3.47032e-15
)
;
    }
    atmosphere
    {
        type            inletOutlet;
        inletValue      nonuniform 0();
        value           nonuniform 0();
    }
    defaultFaces
    {
        type            empty;
    }
    procBoundary0to1
    {
        type            processor;
        value           nonuniform List<scalar> 
26
(
4.41609e-15
1.87737e-14
4.38568e-14
1.09672e-13
9.75882e-13
1.83438e-11
1.81829e-10
1.8315e-10
5.26892e-06
2.91365e-05
0.000542211
0.00161854
0.0142481
0.0690519
0.509166
0.963051
0.963051
0.999945
1
1
0.999999
0.999999
0.999999
0.999999
0.999999
0.999998
)
;
    }
    procBoundary0to2
    {
        type            processor;
        value           nonuniform List<scalar> 
24
(
1
1
1
1
0.999999
0.999999
0.999998
0.999999
0.999999
0.999999
0.999999
1
1
1
1
1
1
1
1
0.999999
0.999999
1
1
1
)
;
    }
}


// ************************************************************************* //
