/*--------------------------------*- C++ -*----------------------------------*\
| =========                 |                                                 |
| \\      /  F ield         | OpenFOAM: The Open Source CFD Toolbox           |
|  \\    /   O peration     | Version:  2.4.0                                 |
|   \\  /    A nd           | Web:      www.OpenFOAM.org                      |
|    \\/     M anipulation  |                                                 |
\*---------------------------------------------------------------------------*/
FoamFile
{
    version     2.0;
    format      ascii;
    class       surfaceScalarField;
    location    "0.75";
    object      phi.water;
}
// * * * * * * * * * * * * * * * * * * * * * * * * * * * * * * * * * * * * * //

dimensions      [0 3 -1 0 0 0 0];

internalField   nonuniform List<scalar> 
1101
(
1.70277e-06
6.32235e-06
3.70945e-06
6.80348e-06
4.84375e-06
4.74841e-06
6.02283e-06
4.46566e-06
7.51596e-06
3.94373e-06
7.79005e-06
2.10672e-06
6.89709e-06
1.33253e-06
4.28928e-06
2.67922e-06
1.30549e-07
4.20593e-06
-4.6691e-06
4.84647e-06
-9.13489e-06
4.49325e-06
-1.33006e-05
4.1791e-06
-1.60426e-05
2.75206e-06
-1.65051e-05
4.7208e-07
-1.53336e-05
-1.16171e-06
-1.35819e-05
-1.74374e-06
-1.19929e-05
-1.58276e-06
-1.04511e-05
-1.53738e-06
-8.88961e-06
-1.55748e-06
-6.35544e-06
-2.53005e-06
-4.24491e-06
-2.10686e-06
-7.6877e-07
1.72569e-06
2.73363e-05
3.33331e-06
2.73989e-05
4.92336e-06
2.7069e-05
6.29618e-06
2.7017e-05
7.33859e-06
2.66279e-05
8.35413e-06
2.60939e-05
8.00944e-06
2.4885e-05
5.8618e-06
1.71583e-05
1.46065e-06
1.12179e-05
-4.63692e-06
1.17152e-05
-1.03426e-05
1.04424e-05
-1.45028e-05
8.44224e-06
-1.66097e-05
4.92315e-06
-1.6695e-05
6.20624e-07
-1.53389e-05
-2.48421e-06
-1.34929e-05
-3.57555e-06
-1.17454e-05
-3.32042e-06
-1.01619e-05
-3.11186e-06
-8.26913e-06
-3.43856e-06
-5.91566e-06
-4.86884e-06
-3.66741e-06
-4.34566e-06
-2.36196e-06
1.74157e-06
2.40874e-05
2.98114e-06
2.44194e-05
5.00331e-06
2.47236e-05
6.30626e-06
2.60597e-05
6.38491e-06
2.77957e-05
5.57575e-06
3.1502e-05
3.6048e-06
3.75709e-05
3.01127e-06
4.16899e-05
2.95821e-07
3.83904e-05
-5.12329e-06
2.89394e-05
-1.02412e-05
2.27472e-05
-1.38775e-05
1.29718e-05
-1.60508e-05
7.27838e-06
-1.6552e-05
1.20576e-06
-1.56413e-05
-3.32358e-06
-1.40235e-05
-5.12891e-06
-1.20351e-05
-5.26671e-06
-1.00894e-05
-5.01632e-06
-7.7293e-06
-5.73914e-06
-5.32677e-06
-7.19939e-06
-2.8732e-06
-6.76769e-06
-4.47834e-06
1.7196e-06
-5.00253e-06
2.50521e-06
-3.9045e-06
4.80146e-06
-4.97756e-06
5.96883e-06
-3.04604e-06
5.69841e-06
-4.12236e-07
5.47419e-06
2.38738e-06
6.54682e-06
8.77963e-06
3.84539e-06
2.14325e-05
-6.64049e-06
4.26855e-05
-1.16635e-05
6.13669e-05
-1.17111e-05
4.41474e-05
-1.48544e-05
2.91047e-05
-1.65786e-05
1.15303e-05
-1.67759e-05
2.76106e-06
-1.58329e-05
-3.11056e-06
-1.39277e-05
-6.42592e-06
-1.14514e-05
-7.52128e-06
-9.19599e-06
-7.13756e-06
-7.28681e-06
-7.48614e-06
-6.13466e-06
-8.19031e-06
-3.9754e-06
-8.88601e-06
-7.21788e-06
6.42309e-07
-7.57969e-06
1.41932e-06
-6.69966e-06
1.11938e-06
-6.72697e-06
7.8059e-07
-4.96161e-06
3.81341e-07
-2.68277e-06
8.22048e-07
-1.67043e-06
1.59717e-06
2.70846e-07
-2.26799e-07
9.35512e-06
-7.67143e-06
2.7028e-05
-2.06446e-05
4.55307e-05
-2.44559e-05
5.41897e-05
-1.79753e-05
4.3892e-05
-1.96397e-05
2.49035e-05
-1.84876e-05
6.5567e-06
-1.64902e-05
-3.51357e-06
-1.38584e-05
-8.21784e-06
-1.05852e-05
-8.25893e-06
-7.87669e-06
-6.65919e-06
-6.64104e-06
-6.26861e-06
-6.46265e-06
-5.90159e-06
-5.25337e-06
-2.67498e-06
-1.57717e-07
1.29357e-07
-7.70907e-06
6.59408e-08
-6.63627e-06
-5.83478e-07
-6.07757e-06
-2.48261e-06
-3.06249e-06
-5.64699e-06
4.81583e-07
-9.09167e-06
1.77423e-06
-1.2578e-05
3.75396e-06
-1.30487e-05
9.61749e-06
-1.36176e-05
2.47049e-05
-2.26184e-05
4.29459e-05
-3.0744e-05
5.06963e-05
-2.74719e-05
4.23162e-05
-2.18661e-05
3.22259e-05
-2.30874e-05
1.22494e-05
-2.04263e-05
8.0599e-06
-1.58686e-05
1.12953e-05
-1.09727e-05
1.05822e-05
-7.54843e-06
1.34981e-05
-6.34476e-06
1.67318e-05
-6.2199e-06
1.81915e-05
-5.75589e-06
1.67418e-05
1.53561e-05
1.65122e-07
-7.87419e-06
2.70391e-07
-6.74153e-06
-7.94289e-08
-5.72776e-06
-1.2364e-06
-1.90552e-06
-2.63137e-06
1.87655e-06
-4.6281e-06
3.77097e-06
-8.91601e-06
8.04188e-06
-1.5476e-05
1.6178e-05
-2.15288e-05
3.09331e-05
-2.91127e-05
4.93581e-05
-3.70063e-05
4.80664e-05
-3.56712e-05
4.31183e-05
-2.79931e-05
3.56571e-05
-2.76234e-05
2.47245e-05
-2.328e-05
1.71332e-05
-1.90354e-05
1.18849e-05
-1.32024e-05
9.74379e-06
-9.20311e-06
1.46762e-05
-6.89967e-06
2.01966e-05
-5.5842e-06
2.28994e-05
-4.98097e-06
2.14559e-05
1.88226e-05
3.37191e-07
-8.21139e-06
4.49608e-07
-6.85396e-06
-1.9844e-07
-5.07972e-06
-1.54979e-06
-5.54176e-07
-4.00233e-06
4.32908e-06
-6.89298e-06
6.66161e-06
-9.94647e-06
1.10954e-05
-1.30708e-05
1.93025e-05
-1.82262e-05
3.616e-05
-2.64935e-05
5.79779e-05
-3.82735e-05
5.35592e-05
-3.95809e-05
3.6682e-05
-3.87483e-05
3.4893e-05
-3.42208e-05
2.61329e-05
-2.6618e-05
1.19913e-05
-1.99855e-05
3.05861e-06
-1.59078e-05
1.43996e-06
-1.31213e-05
6.03563e-06
-8.81343e-06
9.91265e-06
-3.64707e-06
1.18857e-05
-3.15357e-06
1.3494e-05
1.10431e-05
1.94164e-06
-1.0153e-05
4.48697e-06
-9.3993e-06
7.72585e-06
-8.32026e-06
7.10966e-06
6.15229e-08
2.75582e-06
8.68304e-06
-3.60437e-06
1.30216e-05
-1.3175e-05
2.06671e-05
-2.32038e-05
2.93328e-05
-2.56773e-05
3.86447e-05
-1.88451e-05
5.12899e-05
-2.70053e-05
5.63143e-05
-4.65884e-05
3.92539e-05
-5.50208e-05
1.72358e-05
-5.03374e-05
-5.70098e-07
-3.84182e-05
-1.8665e-05
-3.31048e-05
-2.11392e-05
-3.10953e-05
-2.09826e-05
-2.40626e-05
-2.30558e-05
-1.22732e-05
-2.48827e-05
-2.44056e-06
-2.17166e-05
-1.03902e-06
-1.14077e-05
-5.69141e-06
3.54059e-06
-1.36936e-05
6.98354e-06
-1.28507e-05
8.67888e-06
-1.02651e-05
7.27524e-06
1.18205e-06
3.49035e-06
1.23375e-05
-1.07234e-06
1.72724e-05
-4.94773e-06
2.43187e-05
-6.85617e-06
3.1183e-05
-4.63174e-06
3.64161e-05
6.79826e-06
3.98407e-05
2.36021e-05
3.85256e-05
3.25574e-05
2.58327e-05
3.31468e-05
8.23824e-06
3.16103e-05
-1.02686e-05
2.65915e-05
-2.43082e-05
2.62202e-05
-3.00684e-05
3.00125e-05
-3.25526e-05
3.48423e-05
-3.45782e-05
3.73679e-05
-3.37918e-05
3.80068e-05
-2.86212e-05
4.4486e-05
-2.38008e-05
-2.09235e-05
3.50388e-06
-1.72e-05
1.15009e-05
-2.13715e-05
1.78603e-05
-1.9725e-05
1.73363e-05
-2.54746e-06
9.33385e-06
1.71517e-05
-1.99821e-06
2.55628e-05
-9.47553e-06
2.99458e-05
-1.08001e-05
3.14647e-05
-6.95324e-06
3.19141e-05
1.68224e-06
3.07859e-05
1.40821e-05
2.58046e-05
2.34667e-05
1.6087e-05
3.09731e-05
2.55428e-07
3.43212e-05
-1.41426e-05
3.54437e-05
-2.67234e-05
3.99715e-05
-3.82201e-05
4.70165e-05
-4.52644e-05
5.51248e-05
-5.33992e-05
5.91951e-05
-6.00974e-05
4.91682e-05
-6.078e-05
3.77276e-05
-4.21808e-05
-2.96812e-05
1.61798e-06
-1.90357e-05
1.12797e-05
-3.50732e-05
9.76476e-06
-2.76939e-05
4.89305e-07
-1.91316e-06
-8.39966e-06
1.79676e-05
-1.60346e-05
2.61636e-05
-1.87511e-05
2.70484e-05
-1.79253e-05
2.55728e-05
-1.38016e-05
2.33999e-05
-8.27859e-06
2.13251e-05
-1.04527e-08
1.38238e-05
8.50597e-06
3.89923e-06
1.64845e-05
-1.17026e-05
2.36771e-05
-2.87148e-05
2.84178e-05
-4.93181e-05
3.18548e-05
-7.6323e-05
3.43632e-05
-9.53674e-05
3.68881e-05
-0.000117292
4.23022e-05
-0.000138283
3.64234e-05
-8.03785e-05
4.5005e-06
-3.53707e-05
-3.63344e-07
-8.61825e-06
-1.42669e-05
-3.17824e-05
-2.75423e-05
-5.80233e-05
-2.65103e-05
-6.87682e-05
-1.12656e-05
-7.15241e-05
-8.15125e-06
-6.12795e-05
-6.0476e-06
-4.913e-05
-2.43209e-07
-4.09489e-05
3.95668e-06
-3.14444e-05
-2.75712e-07
-2.31187e-05
-3.28758e-07
-1.4859e-05
-1.30188e-05
-9.7944e-06
-3.04561e-05
-6.87684e-06
-8.4744e-05
-3.81615e-06
-9.94202e-05
-5.74217e-07
-0.000121556
6.17768e-06
-6.70229e-05
1.09131e-05
-9.30007e-05
1.68834e-05
-7.13328e-05
-2.64171e-05
-8.70637e-05
-9.36694e-05
-2.60238e-05
-0.000120814
5.11967e-06
2.39513e-05
-2.83998e-05
-4.31523e-05
-7.46985e-05
-7.53513e-05
-9.49376e-05
-8.25915e-05
-9.0969e-05
-4.30459e-05
-9.19759e-05
-4.54126e-05
-8.13768e-05
-4.23518e-05
-6.93244e-05
-3.56592e-05
-6.08514e-05
-3.8267e-05
-5.29621e-05
-4.48246e-05
-4.45657e-05
-4.30408e-05
-3.95841e-05
-5.05367e-05
-4.46774e-05
-3.42509e-05
-4.58844e-05
-6.99645e-05
-3.85993e-05
-6.12452e-05
-4.28986e-05
-6.34236e-05
-6.97391e-05
9.5007e-06
-0.000120707
-2.8978e-05
-0.000142444
-4.32555e-05
-8.60564e-05
-8.98768e-06
-0.000125939
1.20821e-05
-0.000135373
1.70064e-06
6.33475e-06
-1.93613e-05
-8.13386e-05
-5.25292e-05
-0.000106354
-9.09194e-05
-6.18228e-05
-9.59534e-05
-3.40032e-05
-9.05168e-05
-3.81651e-05
-7.51168e-05
-2.06962e-05
-6.24956e-05
-1.64528e-05
-6.44954e-05
-2.49123e-05
-6.13336e-05
-2.89448e-05
-5.55909e-05
-2.34587e-05
-5.96635e-05
-2.86569e-05
-8.45864e-05
2.30165e-07
-0.000122763
7.42892e-06
-0.000171775
-3.74197e-05
-0.000111197
-4.84893e-05
-5.35405e-05
-3.48624e-05
-4.90388e-05
-3.39197e-05
-6.49562e-05
-2.3616e-05
-6.90011e-05
3.19213e-05
-0.000111452
2.75533e-05
-0.000122259
1.04739e-05
2.33495e-06
-1.19742e-05
-5.3963e-05
-2.76894e-05
-2.84394e-05
-6.33538e-05
1.93882e-05
-7.46536e-05
1.48881e-05
-4.70049e-05
-3.09147e-05
-1.76473e-05
-3.05024e-05
5.3919e-06
-1.65535e-05
-1.31487e-05
8.1782e-06
-3.31556e-05
3.63899e-05
-3.82201e-05
3.35539e-05
-3.00216e-05
2.1635e-05
-9.87399e-06
1.49527e-05
1.77105e-06
-2.34794e-05
-4.46219e-06
-3.10894e-05
-2.92391e-05
-2.36845e-05
-4.77681e-05
-1.6301e-05
-6.74923e-05
-1.4148e-05
-8.22971e-05
-8.85398e-06
-9.33628e-05
3.31693e-05
-8.02318e-05
8.75181e-05
-0.000116743
3.259e-05
3.99029e-05
2.17807e-06
4.83657e-05
4.94262e-06
9.31061e-05
1.08794e-05
5.78702e-05
2.66776e-05
2.71994e-05
2.30303e-05
-1.02534e-05
1.91506e-05
-2.61221e-05
9.79222e-06
-6.89194e-06
-2.78637e-05
4.81619e-05
-2.84134e-05
5.42812e-05
-3.07302e-05
5.38002e-05
-4.939e-05
4.81882e-05
-4.94519e-05
1.53726e-05
-5.08259e-05
-2.22472e-05
-6.28356e-05
-1.91936e-05
-7.31533e-05
-1.33943e-05
-7.57621e-05
-1.37014e-05
-8.19976e-05
-7.94669e-06
-9.68443e-05
5.975e-06
-0.000104507
4.01255e-05
-0.000109178
0.000102695
-0.000149473
0.000138497
-0.000219468
0.000135637
0.000209065
1.23314e-06
9.12923e-05
1.28013e-05
8.87245e-05
5.63851e-06
6.49222e-05
1.58801e-06
3.1102e-05
6.76515e-06
-1.61453e-05
-1.39804e-06
-1.83982e-05
4.60177e-06
-1.28133e-05
6.98431e-06
4.5743e-05
-8.91196e-06
7.01575e-05
-1.81126e-05
6.29854e-05
-1.19779e-05
4.20606e-05
-3.01377e-06
6.45774e-06
-1.351e-05
-1.15376e-05
-1.77291e-05
-1.50353e-05
-2.08168e-05
-1.03058e-05
-3.47542e-05
2.29446e-07
-5.73942e-05
1.46791e-05
-9.01833e-05
3.87237e-05
-0.000122922
7.28631e-05
-0.000145645
0.000126305
-0.00018846
0.0001873
-0.000245769
0.000233385
0.000311395
-1.6487e-06
9.33415e-05
1.40518e-05
7.30207e-05
2.94916e-05
4.94347e-05
4.07033e-05
2.01545e-05
2.08028e-05
4.14558e-06
-1.90691e-07
2.51697e-06
-1.41632e-05
1.24184e-06
-7.38853e-06
3.90078e-05
2.01523e-08
6.27076e-05
8.66359e-06
5.43646e-05
2.01261e-05
3.05877e-05
1.14512e-05
1.50215e-05
-1.17438e-05
1.18089e-05
-3.03474e-05
3.60658e-06
-4.68586e-05
6.20496e-06
-6.01442e-05
1.35153e-05
-7.46204e-05
2.9149e-05
-9.26542e-05
5.67422e-05
-0.000118595
9.88137e-05
-0.000143608
0.000151315
-0.000172705
0.000216188
-0.000198352
0.000258829
0.000281225
1.96611e-06
9.10319e-05
1.24754e-05
6.25101e-05
1.73036e-05
4.4562e-05
1.19037e-05
2.56705e-05
6.72202e-06
8.92728e-06
8.94322e-07
8.30462e-06
-2.07334e-06
4.14347e-06
1.18086e-06
3.57153e-05
8.39349e-06
5.55136e-05
1.12694e-05
5.15082e-05
6.69493e-06
3.51724e-05
1.16069e-06
2.05938e-05
-5.73391e-06
1.85906e-05
-1.7269e-05
1.50598e-05
-2.94396e-05
1.83631e-05
-4.32653e-05
2.73385e-05
-5.72909e-05
4.31702e-05
-7.04049e-05
6.98485e-05
-8.20512e-05
0.000110462
-9.18993e-05
0.000161173
-9.31859e-05
0.000217428
-8.18776e-05
0.000247278
0.000246811
1.06239e-05
8.03994e-05
1.65826e-05
5.68223e-05
2.11367e-05
3.99966e-05
2.07459e-05
2.62557e-05
1.03987e-05
1.92841e-05
-5.24917e-07
1.92246e-05
-1.3763e-05
1.74097e-05
-6.89252e-06
2.88812e-05
6.59813e-06
4.20035e-05
1.36997e-05
4.44041e-05
1.08512e-05
3.8018e-05
-3.21594e-07
3.18738e-05
-1.18182e-05
3.02337e-05
-2.50137e-05
2.82668e-05
-3.70518e-05
3.03993e-05
-4.65985e-05
3.68835e-05
-5.28441e-05
4.94143e-05
-5.46679e-05
7.16718e-05
-4.92475e-05
0.000105046
-3.33698e-05
0.000145306
-4.45248e-06
0.000188513
2.89152e-05
0.000213883
0.000211528
1.37949e-05
6.66113e-05
1.80642e-05
5.27345e-05
1.91521e-05
3.89977e-05
1.50865e-05
3.03801e-05
7.78302e-06
2.65784e-05
7.93764e-07
2.62137e-05
-7.1903e-06
2.53907e-05
-8.86225e-06
3.05626e-05
-2.42613e-06
3.55632e-05
1.42661e-06
4.05504e-05
-2.28924e-06
4.1754e-05
-9.49803e-06
3.90745e-05
-1.61122e-05
3.68324e-05
-2.26827e-05
3.48344e-05
-2.91858e-05
3.69012e-05
-3.57889e-05
4.34854e-05
-4.1491e-05
5.5116e-05
-4.19129e-05
7.20943e-05
-3.25485e-05
9.56845e-05
-1.0405e-05
0.000123171
2.54787e-05
0.000152624
6.68446e-05
0.00017251
0.000174756
1.00738e-05
5.65103e-05
1.47275e-05
4.81799e-05
1.46596e-05
3.91905e-05
1.08506e-05
3.41927e-05
5.96399e-06
3.14653e-05
1.3493e-06
3.08287e-05
-3.78807e-06
3.05289e-05
-6.30075e-06
3.30787e-05
-5.98939e-06
3.52567e-05
-5.32046e-06
3.98874e-05
-6.28706e-06
4.2739e-05
-9.63116e-06
4.24343e-05
-1.41187e-05
4.13217e-05
-2.01269e-05
4.08415e-05
-2.57882e-05
4.25617e-05
-2.93923e-05
4.709e-05
-3.05609e-05
5.62855e-05
-2.82059e-05
6.97408e-05
-1.91971e-05
8.66789e-05
-1.29002e-06
0.000105266
2.7055e-05
0.000124278
6.24215e-05
0.000137126
0.000139788
6.14198e-06
5.04161e-05
9.5194e-06
4.48757e-05
9.30226e-06
3.94212e-05
7.20079e-06
3.62946e-05
4.36898e-06
3.42975e-05
1.55759e-06
3.36405e-05
-1.4241e-06
3.3511e-05
-3.45744e-06
3.51126e-05
-4.73357e-06
3.65345e-05
-4.76449e-06
3.99221e-05
-4.52088e-06
4.25e-05
-5.5393e-06
4.34548e-05
-7.77666e-06
4.35592e-05
-1.11415e-05
4.42059e-05
-1.47119e-05
4.61328e-05
-1.75197e-05
4.98976e-05
-1.79614e-05
5.67286e-05
-1.50048e-05
6.67861e-05
-7.43932e-06
7.91149e-05
6.34095e-06
9.14889e-05
2.71263e-05
0.000103495
5.30724e-05
0.000111174
0.000112402
3.64644e-06
4.67841e-05
5.92674e-06
4.25998e-05
5.99549e-06
3.93531e-05
4.96216e-06
3.73283e-05
3.40525e-06
3.58548e-05
1.79536e-06
3.52507e-05
1.42159e-07
3.51645e-05
-1.01967e-06
3.62748e-05
-1.97916e-06
3.74943e-05
-2.03605e-06
3.99796e-05
-1.65217e-06
4.21166e-05
-1.53752e-06
4.33404e-05
-2.06747e-06
4.40892e-05
-3.31212e-06
4.54509e-05
-4.70287e-06
4.75227e-05
-5.83066e-06
5.10266e-05
-5.70046e-06
-3.02986e-06
3.16882e-06
1.32141e-05
2.83846e-05
4.71801e-05
2.23422e-06
3.84836e-06
4.22061e-06
3.8873e-06
3.06848e-06
2.09804e-06
1.02852e-06
2.6801e-07
-2.87553e-07
-9.94764e-08
5.71917e-07
1.15541e-06
1.35496e-06
1.18616e-06
9.00006e-07
)
;

boundaryField
{
    leftWall
    {
        type            fixedValue;
        value           uniform 0;
    }
    rightWall
    {
        type            fixedValue;
        value           nonuniform 0();
    }
    lowerWall
    {
        type            fixedValue;
        value           uniform 0;
    }
    atmosphere
    {
        type            calculated;
        value           nonuniform 0();
    }
    defaultFaces
    {
        type            empty;
        value           nonuniform 0();
    }
    procBoundary0to1
    {
        type            processor;
        value           nonuniform List<scalar> 
26
(
-3.47557e-06
-2.07145e-06
-7.45287e-07
-1.20085e-06
-2.25716e-06
-3.84236e-06
-4.45192e-06
-3.94509e-06
-6.82269e-06
5.37494e-05
3.88741e-05
-5.58655e-05
-0.00013327
-0.00013513
-0.000118574
-0.000133187
-8.51919e-05
-0.000295962
-0.000250082
-0.000167677
-4.75159e-05
6.40339e-05
0.000103596
9.73703e-05
8.04486e-05
6.68059e-05
)
;
    }
    procBoundary0to2
    {
        type            processor;
        value           nonuniform List<scalar> 
24
(
5.65978e-05
6.41153e-05
7.29175e-05
8.14441e-05
8.83266e-05
9.23804e-05
9.27737e-05
4.45505e-05
4.0986e-05
3.89811e-05
3.76619e-05
3.66739e-05
3.62214e-05
3.62343e-05
3.70356e-05
3.80502e-05
3.97919e-05
4.14455e-05
4.27572e-05
4.38898e-05
4.56194e-05
4.78101e-05
7.50155e-07
5.11748e-05
)
;
    }
}


// ************************************************************************* //
