/*--------------------------------*- C++ -*----------------------------------*\
| =========                 |                                                 |
| \\      /  F ield         | OpenFOAM: The Open Source CFD Toolbox           |
|  \\    /   O peration     | Version:  2.4.0                                 |
|   \\  /    A nd           | Web:      www.OpenFOAM.org                      |
|    \\/     M anipulation  |                                                 |
\*---------------------------------------------------------------------------*/
FoamFile
{
    version     2.0;
    format      ascii;
    class       surfaceScalarField;
    location    "0.75";
    object      phi.air;
}
// * * * * * * * * * * * * * * * * * * * * * * * * * * * * * * * * * * * * * //

dimensions      [0 3 -1 0 0 0 0];

internalField   nonuniform List<scalar> 
1101
(
1.70272e-06
-1.70182e-06
3.70963e-06
-2.00572e-06
4.84378e-06
-1.13382e-06
6.02289e-06
-1.1788e-06
7.51613e-06
-1.49294e-06
7.79035e-06
-2.74135e-07
6.89773e-06
8.92711e-07
4.29023e-06
2.60764e-06
1.32101e-07
4.15831e-06
-4.66756e-06
4.79979e-06
-9.1339e-06
4.46639e-06
-1.33001e-05
4.1663e-06
-1.60424e-05
2.74227e-06
-1.6505e-05
4.62619e-07
-1.53335e-05
-1.1714e-06
-1.35819e-05
-1.7517e-06
-1.19929e-05
-1.58899e-06
-1.04511e-05
-1.54183e-06
-8.88962e-06
-1.56146e-06
-6.3554e-06
-2.53423e-06
-4.2449e-06
-2.11051e-06
-7.69353e-07
1.73103e-06
-2.97085e-06
3.48468e-06
-3.29094e-06
4.98876e-06
-2.19884e-06
6.38503e-06
-2.14466e-06
7.60993e-06
-2.30657e-06
8.47665e-06
-8.42573e-07
8.03522e-06
1.42737e-06
5.87029e-06
4.77709e-06
1.47554e-06
8.55329e-06
-4.6249e-06
1.09005e-05
-1.03387e-05
1.01804e-05
-1.45012e-05
8.32886e-06
-1.66086e-05
4.84985e-06
-1.66943e-05
5.48386e-07
-1.53386e-05
-2.52709e-06
-1.34928e-05
-3.59744e-06
-1.17453e-05
-3.33643e-06
-1.01619e-05
-3.12527e-06
-8.26915e-06
-3.45425e-06
-5.91566e-06
-4.88774e-06
-3.66725e-06
-4.35895e-06
-2.36519e-06
1.77558e-06
-1.35573e-05
3.10819e-06
-1.3528e-05
5.18773e-06
-1.26221e-05
6.65513e-06
-1.18153e-05
7.14348e-06
-1.06764e-05
7.11011e-06
-7.32969e-06
6.17227e-06
-1.77127e-06
4.40881e-06
4.62473e-06
5.24946e-07
1.24411e-05
-5.0647e-06
1.66181e-05
-1.0225e-05
1.53429e-05
-1.38649e-05
1.19688e-05
-1.6041e-05
7.026e-06
-1.65475e-05
1.05499e-06
-1.56396e-05
-3.43507e-06
-1.40231e-05
-5.21395e-06
-1.20351e-05
-5.3244e-06
-1.00897e-05
-5.07072e-06
-7.72968e-06
-5.81429e-06
-5.32649e-06
-7.29095e-06
-2.87259e-06
-6.81286e-06
-4.49262e-06
1.74921e-06
-1.75648e-05
2.68047e-06
-1.69767e-05
5.00979e-06
-1.76353e-05
6.4366e-06
-1.65163e-05
6.49726e-06
-1.5292e-05
6.86675e-06
-1.49885e-05
7.81951e-06
-1.97888e-05
6.72462e-06
-1.05464e-05
-1.91734e-07
5.57019e-06
-7.43026e-06
2.03311e-05
-1.20307e-05
2.02793e-05
-1.4959e-05
1.49106e-05
-1.65774e-05
8.64452e-06
-1.67704e-05
1.24792e-06
-1.58312e-05
-4.37432e-06
-1.39281e-05
-7.11724e-06
-1.1452e-05
-7.80056e-06
-9.19795e-06
-7.32493e-06
-7.28797e-06
-7.72437e-06
-6.13432e-06
-8.44466e-06
-3.97274e-06
-8.97452e-06
-7.26513e-06
6.42441e-07
-7.58119e-06
1.41941e-06
-6.70118e-06
1.11947e-06
-6.7285e-06
7.80604e-07
-4.96313e-06
3.81208e-07
-2.68426e-06
8.70585e-07
-1.67177e-06
2.75106e-06
-1.98445e-08
3.20134e-06
2.36012e-06
-2.92607e-06
2.19589e-06
-1.30532e-05
1.8482e-05
-1.84782e-05
2.3509e-05
-1.98769e-05
1.66068e-05
-1.96302e-05
8.40671e-06
-1.84953e-05
1.132e-07
-1.65191e-05
-6.35067e-06
-1.38367e-05
-9.79972e-06
-1.05823e-05
-1.1055e-05
-7.88072e-06
-1.00265e-05
-6.64242e-06
-8.96269e-06
-6.45748e-06
-8.62962e-06
-5.25125e-06
-1.01804e-05
-1.02601e-05
1.29411e-07
-7.7106e-06
6.60198e-08
-6.63778e-06
-5.83425e-07
-6.0791e-06
-2.48264e-06
-3.06404e-06
-5.64713e-06
4.80098e-07
-9.09187e-06
1.77302e-06
-1.25773e-05
3.75275e-06
-1.2473e-05
9.61389e-06
-1.10643e-05
2.20003e-05
-1.93292e-05
2.20685e-05
-2.49686e-05
2.18597e-05
-2.51982e-05
1.6584e-05
-2.41321e-05
7.45085e-06
-2.3233e-05
-7.83588e-07
-2.03437e-05
-9.23211e-06
-1.59851e-05
-1.40761e-05
-1.10374e-05
-1.58412e-05
-7.55767e-06
-1.33173e-05
-6.3552e-06
-9.98605e-06
-6.3708e-06
-8.43244e-06
-5.78285e-06
-1.0508e-05
-1.22674e-05
1.65177e-07
-7.87593e-06
2.70458e-07
-6.74321e-06
-7.93769e-08
-5.72908e-06
-1.23642e-06
-1.90743e-06
-2.63149e-06
1.8749e-06
-4.6283e-06
3.77009e-06
-8.91628e-06
8.04046e-06
-1.55374e-05
1.61766e-05
-2.50084e-05
3.01849e-05
-3.20442e-05
3.0289e-05
-3.41723e-05
1.73325e-05
-3.27012e-05
1.24327e-05
-2.95678e-05
4.60338e-06
-2.7263e-05
-2.84618e-06
-2.4605e-05
-1.14608e-05
-1.96773e-05
-1.8718e-05
-1.38249e-05
-2.18968e-05
-9.4781e-06
-1.81924e-05
-7.00634e-06
-1.31049e-05
-5.71811e-06
-1.05599e-05
-4.85643e-06
-1.29043e-05
-1.54263e-05
3.37219e-07
-8.19537e-06
4.4965e-07
-6.83686e-06
-1.98412e-07
-5.06887e-06
-1.54981e-06
-5.51474e-07
-4.00246e-06
4.32913e-06
-6.89316e-06
6.66186e-06
-9.94667e-06
1.10942e-05
-1.30958e-05
1.93012e-05
-2.10132e-05
3.59754e-05
-3.30352e-05
4.16529e-05
-3.94046e-05
2.01611e-05
-3.97148e-05
6.89043e-06
-3.79983e-05
6.25533e-07
-3.41043e-05
-7.84662e-06
-2.72581e-05
-2.11955e-05
-2.11812e-05
-2.95879e-05
-1.71676e-05
-3.22635e-05
-1.37415e-05
-2.91375e-05
-8.99057e-06
-2.61183e-05
-3.86562e-06
-2.46263e-05
-2.81975e-06
-2.39098e-05
-2.55294e-05
1.94271e-06
-9.98109e-06
4.48798e-06
-9.28386e-06
7.72586e-06
-8.24659e-06
7.10915e-06
9.64043e-08
2.75541e-06
8.69321e-06
-3.60472e-06
1.30269e-05
-1.31753e-05
2.06647e-05
-2.32049e-05
2.93291e-05
-2.67818e-05
3.86375e-05
-3.29628e-05
4.76887e-05
-4.29114e-05
3.39698e-05
-5.29773e-05
1.06402e-05
-5.54458e-05
-8.56372e-06
-5.06379e-05
-2.92e-05
-4.14854e-05
-4.98595e-05
-3.73088e-05
-5.54961e-05
-3.48844e-05
-5.76448e-05
-2.69561e-05
-5.14954e-05
-1.41345e-05
-5.24185e-05
-1.23759e-06
-5.14425e-05
3.8623e-06
-4.19527e-05
-3.64199e-05
3.54579e-06
-1.33126e-05
6.98846e-06
-1.25247e-05
8.68231e-06
-9.59413e-06
7.27449e-06
1.92245e-06
3.48761e-06
1.275e-05
-1.07404e-06
1.80236e-05
-4.9468e-06
2.48496e-05
-6.85522e-06
3.13391e-05
-4.66859e-06
3.64271e-05
5.21354e-06
3.96955e-05
1.64222e-05
3.61989e-05
2.21507e-05
1.74243e-05
2.52334e-05
-1.89174e-06
2.81066e-05
-1.52746e-05
2.59196e-05
-2.61901e-05
2.68408e-05
-2.66799e-05
3.04772e-05
-1.01596e-05
3.50401e-05
2.29156e-05
3.74091e-05
4.74737e-05
3.79513e-05
5.68029e-05
4.44101e-05
4.73587e-05
2.79864e-05
3.52925e-06
-1.69067e-05
1.16163e-05
-2.04584e-05
1.79383e-05
-1.60318e-05
1.73517e-05
2.23325e-06
9.3175e-06
2.09598e-05
-2.00642e-06
2.93344e-05
-9.48895e-06
3.25228e-05
-1.08024e-05
3.30527e-05
-6.94504e-06
3.29981e-05
1.6713e-06
3.15288e-05
1.38294e-05
2.62975e-05
2.27959e-05
1.61161e-05
3.06528e-05
7.64233e-07
3.43055e-05
3.89616e-06
3.56242e-05
2.54303e-05
4.11676e-05
3.49971e-05
5.41109e-05
3.76938e-05
6.64702e-05
4.62002e-05
5.73133e-05
7.60428e-05
1.92807e-05
0.000134653
1.93252e-05
0.000130712
4.55871e-05
1.72839e-06
-1.18847e-05
1.19219e-05
-2.21878e-05
9.98813e-06
-1.32716e-05
4.63186e-07
1.25208e-05
-8.55452e-06
2.93661e-05
-1.60077e-05
3.5546e-05
-1.87663e-05
3.42224e-05
-1.79634e-05
3.13417e-05
-1.37768e-05
2.80752e-05
-8.15615e-06
2.53787e-05
1.43566e-07
1.77911e-05
8.69946e-06
1.26976e-05
1.96629e-05
5.73295e-05
3.61903e-05
5.59314e-05
3.83536e-05
6.0182e-05
3.70111e-05
4.90351e-05
4.22945e-05
3.49804e-05
5.45445e-05
8.61953e-06
5.33322e-05
6.27916e-06
-1.09819e-05
4.91082e-05
-0.000116029
7.88618e-05
0.000137502
-6.24945e-06
6.02937e-05
-2.54125e-05
8.55824e-05
-5.6113e-05
0.000109232
-7.62369e-05
0.000134032
-7.93306e-05
0.000138303
-6.68148e-05
0.00012974
-5.21101e-05
0.000123861
-4.26489e-05
0.00011794
-3.21775e-05
0.000112963
-2.30108e-05
0.000112834
-1.30572e-05
0.000109282
1.13283e-05
9.83999e-05
8.54791e-06
7.9542e-05
1.47588e-05
3.27936e-05
6.53159e-06
1.78278e-05
5.93147e-06
-6.00093e-06
5.98645e-06
-3.50625e-05
1.11841e-06
-4.21397e-05
-6.32259e-05
2.45744e-05
-0.000142251
9.02057e-05
-0.000170799
4.06603e-05
4.8973e-05
-3.21687e-05
0.000108326
-7.02561e-05
0.000112452
-9.36512e-05
7.90121e-05
-0.000105295
8.07117e-05
-0.000105439
7.02814e-05
-9.66262e-05
5.19421e-05
-9.25098e-05
5.0019e-05
-7.6408e-05
5.40616e-05
-6.31274e-05
5.20564e-05
-5.5035e-05
5.31176e-05
-5.23627e-05
4.61178e-05
-4.83413e-05
2.7406e-05
-4.02009e-05
-8.06101e-06
-4.26648e-05
-2.18431e-05
-8.77327e-05
1.26827e-05
-0.000151867
2.28769e-05
-0.000165732
-2.93831e-05
-0.000170272
-3.90541e-05
-0.000151428
4.70753e-06
-0.000161122
9.78102e-05
-0.000189165
4.62607e-05
5.27067e-05
-4.01143e-05
8.20619e-05
-6.96908e-05
7.51074e-05
-8.61972e-05
5.23084e-05
-0.00010045
5.57416e-05
-7.87951e-05
1.20373e-05
-6.40527e-05
-7.72989e-07
-6.14942e-05
7.43676e-06
-4.45731e-05
-4.10868e-06
-7.19369e-05
3.5158e-05
-0.000109319
4.54144e-05
-0.000142307
3.88393e-05
-0.000178467
3.54787e-05
-0.000185139
-1.19e-05
-0.000171919
-3.7323e-05
-0.000111253
-4.84188e-05
-5.35796e-05
-3.47996e-05
-4.90777e-05
-3.38848e-05
-6.45493e-05
-2.35824e-05
-9.18264e-05
3.21249e-05
-0.000110615
0.000119884
-0.000150455
8.20222e-05
4.62181e-05
-3.02696e-05
9.82834e-05
-6.87802e-05
0.000102103
-8.29601e-05
6.26626e-05
-7.22591e-05
4.29748e-05
-4.6449e-05
-1.47435e-05
-1.73581e-05
-3.01725e-05
5.89483e-06
-1.629e-05
-1.00871e-05
1.05199e-05
-3.09254e-05
5.38159e-05
-3.85027e-05
5.14927e-05
-2.97663e-05
2.95368e-05
-9.78314e-06
1.54433e-05
1.74293e-06
-2.34269e-05
-4.50881e-06
-3.10712e-05
-2.92705e-05
-2.36571e-05
-4.77916e-05
-1.62784e-05
-6.75385e-05
-1.4138e-05
-8.23064e-05
-8.81444e-06
-8.3388e-05
3.32395e-05
-6.58014e-05
0.000102795
-9.26878e-05
0.000105086
9.93361e-05
4.26562e-06
9.37742e-05
6.11176e-06
0.000100066
1.08845e-05
5.7872e-05
2.66627e-05
2.71926e-05
2.28141e-05
-1.08952e-05
1.91665e-05
-2.6525e-05
9.83194e-06
-6.95544e-06
-2.79299e-05
4.82814e-05
-2.8438e-05
5.43188e-05
-3.07563e-05
5.38088e-05
-4.94172e-05
4.81973e-05
-4.94899e-05
1.55159e-05
-5.08846e-05
-2.20322e-05
-6.28834e-05
-1.90724e-05
-7.31853e-05
-1.33552e-05
-7.57932e-05
-1.36705e-05
-8.20218e-05
-7.90935e-06
-9.68584e-05
6.02219e-06
-0.00010379
4.0173e-05
-0.000104712
0.000103689
-0.00014515
0.000144977
-0.000223065
0.000175753
0.000296086
1.70464e-06
9.20693e-05
1.28885e-05
8.88819e-05
5.6473e-06
6.51132e-05
1.57441e-06
3.12655e-05
6.77829e-06
-1.6099e-05
-1.42281e-06
-1.83239e-05
4.46993e-06
-1.28482e-05
6.94589e-06
4.58054e-05
-8.93153e-06
7.01962e-05
-1.81354e-05
6.30126e-05
-1.20334e-05
4.20953e-05
-3.03869e-06
6.52118e-06
-1.35851e-05
-1.14858e-05
-1.77514e-05
-1.49061e-05
-2.08489e-05
-1.02576e-05
-3.47849e-05
2.6548e-07
-5.74101e-05
1.47158e-05
-9.01593e-05
3.87715e-05
-0.000122923
7.29365e-05
-0.000145601
0.000126366
-0.000187977
0.000187342
-0.000245528
0.000233284
0.000310903
-1.47997e-06
9.35493e-05
1.40941e-05
7.33079e-05
2.95757e-05
4.96315e-05
4.06973e-05
2.01439e-05
2.06511e-05
3.94718e-06
-1.71487e-07
2.49869e-06
-1.42226e-05
1.20295e-06
-7.41105e-06
3.89939e-05
3.51432e-08
6.275e-05
8.64343e-06
5.44043e-05
2.00905e-05
3.06482e-05
1.14666e-05
1.51451e-05
-1.18689e-05
1.18497e-05
-3.03938e-05
3.61882e-06
-4.68857e-05
6.23432e-06
-6.017e-05
1.35498e-05
-7.46416e-05
2.91874e-05
-9.2655e-05
5.67848e-05
-0.000118591
9.88728e-05
-0.000143611
0.000151385
-0.000172511
0.000216243
-0.000198069
0.000258841
0.000281325
2.00018e-06
9.15491e-05
1.24814e-05
6.28267e-05
1.73951e-05
4.47178e-05
1.17541e-05
2.57849e-05
6.7104e-06
8.99083e-06
8.91056e-07
8.31803e-06
-2.08933e-06
4.18332e-06
1.16478e-06
3.57398e-05
8.39411e-06
5.55206e-05
1.12504e-05
5.15481e-05
6.68046e-06
3.52181e-05
1.13265e-06
2.06929e-05
-5.79882e-06
1.87811e-05
-1.73005e-05
1.51205e-05
-2.9462e-05
1.83958e-05
-4.32871e-05
2.73749e-05
-5.73108e-05
4.32111e-05
-7.04206e-05
6.98946e-05
-8.20601e-05
0.000110512
-9.19039e-05
0.000161229
-9.31537e-05
0.000217493
-8.16547e-05
0.000247342
0.000246764
1.08132e-05
8.07359e-05
1.66196e-05
5.70204e-05
2.12206e-05
4.01168e-05
2.06919e-05
2.63136e-05
1.03875e-05
1.92953e-05
-5.30482e-07
1.9236e-05
-1.37699e-05
1.74227e-05
-6.9303e-06
2.89002e-05
6.57649e-06
4.20138e-05
1.36845e-05
4.444e-05
1.08361e-05
3.80665e-05
-3.80676e-07
3.19097e-05
-1.18577e-05
3.02582e-05
-2.50333e-05
2.82961e-05
-3.70701e-05
3.04325e-05
-4.66159e-05
3.69208e-05
-5.28608e-05
4.9456e-05
-5.46845e-05
7.17183e-05
-4.92691e-05
0.000105097
-3.3395e-05
0.000145355
-4.45787e-06
0.000188556
2.89488e-05
0.000213936
0.000211575
1.39543e-05
6.67816e-05
1.81146e-05
5.28601e-05
1.91578e-05
3.90735e-05
1.50704e-05
3.04009e-05
7.77562e-06
2.659e-05
7.85395e-07
2.62262e-05
-7.19689e-06
2.5405e-05
-8.87801e-06
3.05813e-05
-2.4492e-06
3.5585e-05
1.41149e-06
4.05793e-05
-2.31815e-06
4.17962e-05
-9.52552e-06
3.91171e-05
-1.61296e-05
3.68623e-05
-2.26979e-05
3.48643e-05
-2.92e-05
3.69347e-05
-3.5802e-05
4.35227e-05
-4.15032e-05
5.51573e-05
-4.19246e-05
7.21397e-05
-3.25622e-05
9.57345e-05
-1.04299e-05
0.000123223
2.54585e-05
0.000152668
6.68429e-05
0.000172551
0.000174805
1.01634e-05
5.66182e-05
1.47864e-05
4.82371e-05
1.46491e-05
3.92108e-05
1.08454e-05
3.42046e-05
5.95765e-06
3.14778e-05
1.34177e-06
3.08421e-05
-3.79669e-06
3.05435e-05
-6.31039e-06
3.3095e-05
-6.0011e-06
3.52757e-05
-5.3324e-06
3.99106e-05
-6.3014e-06
4.27651e-05
-9.64483e-06
4.24605e-05
-1.41315e-05
4.1349e-05
-2.01385e-05
4.08713e-05
-2.57985e-05
4.25946e-05
-2.94015e-05
4.71257e-05
-3.05689e-05
5.63247e-05
-2.82127e-05
6.97835e-05
-1.92034e-05
8.67252e-05
-1.29731e-06
0.000105317
2.70409e-05
0.00012433
6.24159e-05
0.000137176
0.000139839
6.17454e-06
5.04437e-05
9.52154e-06
4.48901e-05
9.29896e-06
3.94334e-05
7.19649e-06
3.63071e-05
4.3636e-06
3.43106e-05
1.55119e-06
3.36545e-05
-1.43146e-06
3.35261e-05
-3.46564e-06
3.51291e-05
-4.74244e-06
3.65525e-05
-4.77397e-06
3.99422e-05
-4.53076e-06
4.25219e-05
-5.54929e-06
4.3479e-05
-7.78612e-06
4.35858e-05
-1.11498e-05
4.4235e-05
-1.47194e-05
4.61642e-05
-1.75256e-05
4.99319e-05
-1.7966e-05
5.67651e-05
-1.5008e-05
6.68255e-05
-7.44063e-06
7.91579e-05
6.34113e-06
9.15351e-05
2.71256e-05
0.000103545
5.30758e-05
0.000111226
0.000112455
3.64709e-06
4.67966e-05
5.925e-06
4.26122e-05
5.99278e-06
3.93656e-05
4.95854e-06
3.73413e-05
3.40077e-06
3.58684e-05
1.79006e-06
3.52652e-05
1.36142e-07
3.518e-05
-1.02631e-06
3.62916e-05
-1.98631e-06
3.75125e-05
-2.04357e-06
3.99994e-05
-1.65985e-06
4.21382e-05
-1.54497e-06
4.33641e-05
-2.07428e-06
4.41151e-05
-3.31817e-06
4.54789e-05
-4.7073e-06
4.75533e-05
-5.83421e-06
5.10588e-05
-5.70214e-06
-3.02967e-06
3.17068e-06
1.32184e-05
2.83912e-05
4.71888e-05
2.2335e-06
3.84688e-06
4.21837e-06
3.88433e-06
3.06484e-06
2.09379e-06
1.02374e-06
2.62813e-07
-2.93055e-07
-1.05132e-07
5.66321e-07
1.15015e-06
1.35038e-06
1.18275e-06
8.97214e-07
)
;

boundaryField
{
    leftWall
    {
        type            fixedValue;
        value           uniform 0;
    }
    rightWall
    {
        type            fixedValue;
        value           nonuniform 0();
    }
    lowerWall
    {
        type            fixedValue;
        value           uniform 0;
    }
    atmosphere
    {
        type            calculated;
        value           nonuniform 0();
    }
    defaultFaces
    {
        type            empty;
        value           nonuniform 0();
    }
    procBoundary0to1
    {
        type            processor;
        value           nonuniform List<scalar> 
26
(
-3.47556e-06
-2.07144e-06
-7.45193e-07
-1.20028e-06
-2.25528e-06
-3.47987e-06
-3.4714e-06
-2.53661e-06
-4.65391e-07
5.35988e-05
4.02739e-05
-0.000106796
-0.000240917
-0.000194294
-0.00016106
-0.000155883
-0.000206473
-0.000316352
-0.00026039
-0.000168491
-4.70936e-05
6.41378e-05
0.000103614
9.73812e-05
8.04603e-05
6.682e-05
)
;
    }
    procBoundary0to2
    {
        type            processor;
        value           nonuniform List<scalar> 
24
(
5.6633e-05
6.4153e-05
7.29575e-05
8.14873e-05
8.83725e-05
9.24284e-05
9.28239e-05
4.45631e-05
4.09988e-05
3.89941e-05
3.76753e-05
3.66879e-05
3.62362e-05
3.62501e-05
3.70525e-05
3.80684e-05
3.98115e-05
4.14667e-05
4.27803e-05
4.39148e-05
4.56465e-05
4.78388e-05
7.49662e-07
5.12063e-05
)
;
    }
}


// ************************************************************************* //
