/*--------------------------------*- C++ -*----------------------------------*\
| =========                 |                                                 |
| \\      /  F ield         | OpenFOAM: The Open Source CFD Toolbox           |
|  \\    /   O peration     | Version:  2.4.0                                 |
|   \\  /    A nd           | Web:      www.OpenFOAM.org                      |
|    \\/     M anipulation  |                                                 |
\*---------------------------------------------------------------------------*/
FoamFile
{
    version     2.0;
    format      ascii;
    class       volScalarField;
    location    "0.75";
    object      rho;
}
// * * * * * * * * * * * * * * * * * * * * * * * * * * * * * * * * * * * * * //

dimensions      [1 -3 0 0 0 0 0];

internalField   nonuniform List<scalar> 
575
(
13529
13529
13529
13529
13529
13529
13529
13529
13529
13529
13529
13529
13529
13529
13529
13529
13529
13529
13529
13529
13529
13528.9
13526.6
13526.2
13527.5
13527.6
13527.7
13528.6
13528.9
13529
13529
13529
13529
13529
13529
13529
13529
13529
13529
13529
13529
13529
13529
13528.9
12704
12696.6
12812.3
12878.9
12975.6
13239.3
13475.4
13524
13528.5
13528.9
13529
13529
13529
13529
13529
13529
13529
13529
13529
13529
13529
13529
3229.31
3238.09
3381.02
3491.06
3734.33
4326.5
5534.09
7614.44
10638.1
13278.8
13524.3
13528.8
13529
13529
13529
13529
13529
13529
13529
13529
13529
13529
1000.11
1000.11
1000.11
1000.11
1000.11
1000.11
1004.75
1157.67
2269.57
8134.71
13140
13517.4
13528.2
13528.8
13528.9
13528.9
13529
13529
13529
13529
13529
13528.9
1000.07
1000.06
1000.06
1000.06
1000.06
1000.06
1000.06
1000.17
1027.3
2660.68
10298.4
13341.5
13519.9
13527.7
13528.6
13528.8
13528.5
13528.4
13528.6
13528.5
13527.3
13526.3
1000.09
1000.09
1000.08
1000.07
1000.07
1000.06
1000.06
1000.07
1004.86
1552.09
6600.08
12585.7
13477.4
13523.9
13521.6
13485.6
13423.8
13398.6
13408.7
13405.4
13304.6
13245.8
1000.07
1000.06
1000.06
1000.06
1000.06
1000.06
1000.06
1000.07
1000.95
1161.78
3600.86
9989.83
13146.6
13328.4
12825.5
12055.7
11313.9
10845.6
10575.4
10260.3
9654.3
9473.26
1000.03
1000.02
1000.02
1000.02
1000.02
1000.01
1000.02
1000.03
1000.2
1018.68
1421.44
3062.59
5635.48
6774.59
6108.8
4987.94
4093.69
3319.62
2753.27
2361.13
2143.36
2259.78
1000
1000
999.766
999.819
999.876
999.429
999.578
999.79
999.93
1001.21
1012.62
1085.12
1158.06
1094.16
1056.26
1030.74
1016.57
1012.35
1002.43
987.393
977.808
974.28
999.999
999.089
977.272
979.204
987.678
980.467
985.72
994.239
997.761
999.004
1000.64
1002.7
1007.1
1002.01
996.927
977.838
950.93
922.884
895.657
874.122
870.92
855.918
999.715
959.685
793.381
764.091
805.118
812.294
872.093
921.376
947.477
965.443
974.1
980.166
980.77
945.416
886.901
799.512
743.082
651.093
518.311
414.988
497.571
660.061
982.251
771.666
569.727
566.169
567.045
589.072
626.363
662.025
691.248
716.386
716.861
708.374
665.333
576.855
449.069
284.619
182.044
71.5685
14.0924
14.984
183.875
505.073
790.655
553.846
387.865
320.696
319.48
354.976
397.079
437.454
450.228
445.146
390.648
267.426
138.899
53.411
5.21478
1.03318
1.00106
1.00025
1.03873
7.98728
148.715
440.483
132.881
95.447
32.6652
17.0906
13.082
8.30817
8.67705
23.8925
21.5413
13.8963
6.45664
1.62339
1.02962
1.0005
1.00058
1.00003
1.00004
1.00004
1.00443
3.01581
57.0086
206.989
3.04183
2.54743
1.19558
1.05178
1.00668
1.00004
1.0007
1.00727
1.05942
1.02605
1.00607
1.00035
1.00003
1.00003
1.00003
1.00003
1.00006
1.00012
1.00247
1.42008
6.54966
16.181
1.00386
1.00341
1.00024
1.00015
1.00006
1.00003
1.00001
1.00001
1.00002
1.00001
1.00001
1.00001
1.00003
1.00009
1.00014
1.00012
1.00008
1.00017
1.00253
1.04018
1.11416
1.18812
1.21134
1.00018
1.00016
1.00012
1.00008
1.00003
1
1.00001
1.00001
1.00002
1.00001
1.00001
1.00001
1.00004
1.00015
1.00017
1.00019
1.00017
1.00021
1.00071
1.0012
1.00099
1.00116
1.00143
1.00009
1.00006
1.00005
1.00005
1.00002
1
1.00001
1.00003
1.00002
1.00001
1.00001
1.00001
1.00003
1.00012
1.00019
1.00019
1.00009
1.00007
1.00016
1.00039
1.00065
1.00076
1.00085
1.00005
1.00004
1.00004
1.00002
1
0.999999
1.00001
1.00002
1.00002
1.00002
1.00003
1.00004
1.00004
1.00006
1.0001
1.00004
1.00003
1.00004
1.00005
1.00014
1.00033
1.00037
1.00044
1.00006
1.00004
1.00002
1.00001
0.999999
0.999999
1
1.00001
1.00002
1.00004
1.00004
1.00003
1.00002
1.00002
1.00002
1.00001
1.00001
1.00001
1.00002
1.00006
1.00013
1.00018
1.00022
1.00005
1.00003
1.00001
1
0.999999
0.999999
1
1
1.00001
1.00002
1.00003
1.00001
1.00001
1.00001
1.00002
1.00002
1.00001
1.00001
1.00002
1.00003
1.00007
1.00008
1.00012
1.00003
1.00001
1
0.999999
0.999999
0.999999
1
1
1
1.00001
1.00001
1
1.00001
1.00002
1.00004
1.00004
1.00001
1.00001
1.00001
1.00002
1.00002
1.00004
1.00006
1.00001
1
0.999999
0.999999
0.999999
1
1
1
1
1
1
1
1.00001
1.00003
1.00006
1.00006
1.00003
1.00001
1.00001
1.00001
1.00001
1.00002
1.00002
1
0.999999
0.999999
0.999999
0.999999
1
1
1
1
1
1
1
1.00001
1.00002
1.00006
1.00006
1.00003
1.00002
1.00001
1
1
1
1.00001
0.999999
0.999999
0.999999
0.999999
1
1
1
1
1
1
1
1
1
1.00002
1.00004
1.00005
)
;

boundaryField
{
    leftWall
    {
        type            calculated;
        value           nonuniform List<scalar> 
26
(
13529
13526.6
12704
3229.31
1000.11
1000.07
1000.09
1000.07
1000.03
1000
999.999
999.715
982.251
790.655
132.881
3.04183
1.00386
1.00018
1.00009
1.00005
1.00006
1.00005
1.00003
1.00001
1
0.999999
)
;
    }
    rightWall
    {
        type            calculated;
        value           nonuniform 0();
    }
    lowerWall
    {
        type            calculated;
        value           nonuniform List<scalar> 
22
(
13529
13529
13529
13529
13529
13529
13529
13529
13529
13529
13529
13529
13529
13529
13529
13529
13529
13529
13529
13529
13529
13528.9
)
;
    }
    atmosphere
    {
        type            calculated;
        value           nonuniform 0();
    }
    defaultFaces
    {
        type            empty;
    }
    procBoundary0to1
    {
        type            processor;
        value           nonuniform List<scalar> 
26
(
13528.9
13528.8
13528.8
13528.8
13528.8
13528.3
13406.3
10929.3
3329.26
968.942
827.871
606.428
539.152
484.482
248.743
19.4998
19.4998
1.02957
1.00169
1.0011
1.00043
1.00027
1.00013
1.00005
1.00002
1
)
;
    }
    procBoundary0to2
    {
        type            processor;
        value           nonuniform List<scalar> 
24
(
1.00003
1.00002
1.00001
1
1
1
1
0.999999
0.999999
0.999999
0.999999
1
1
1
1
1
1
1
1
1
1.00001
1.00003
1.00003
1.00002
)
;
    }
}


// ************************************************************************* //
