/*--------------------------------*- C++ -*----------------------------------*\
| =========                 |                                                 |
| \\      /  F ield         | OpenFOAM: The Open Source CFD Toolbox           |
|  \\    /   O peration     | Version:  2.4.0                                 |
|   \\  /    A nd           | Web:      www.OpenFOAM.org                      |
|    \\/     M anipulation  |                                                 |
\*---------------------------------------------------------------------------*/
FoamFile
{
    version     2.0;
    format      ascii;
    class       volVectorField;
    location    "0.75";
    object      U;
}
// * * * * * * * * * * * * * * * * * * * * * * * * * * * * * * * * * * * * * //

dimensions      [0 1 -1 0 0 0 0];

internalField   nonuniform List<vector> 
575
(
(0.0105947 -0.0210507 0)
(0.0292568 -0.0220449 0)
(0.0531071 -0.0192834 0)
(0.0592665 -0.0202847 0)
(0.0757115 -0.0212195 0)
(0.0915847 -0.0179525 0)
(0.0854896 -0.00747083 0)
(0.0677767 0.0132168 0)
(0.0265606 0.0310722 0)
(-0.0236598 0.0445477 0)
(-0.078113 0.0498833 0)
(-0.126513 0.0383357 0)
(-0.173725 0.0165826 0)
(-0.19353 0.00240206 0)
(-0.186466 -0.00759265 0)
(-0.167043 -0.0107384 0)
(-0.146712 -0.00815398 0)
(-0.13055 -0.0076164 0)
(-0.112419 -0.0043579 0)
(-0.0916316 -0.0101764 0)
(-0.0548636 -0.00366729 0)
(-0.0435136 0.000487868 0)
(0.0126131 0.00944081 0)
(0.0269692 0.00773679 0)
(0.0513215 0.0125594 0)
(0.0637176 0.0132328 0)
(0.0791822 0.011415 0)
(0.0935026 0.0176513 0)
(0.0965762 0.0198957 0)
(0.0818768 0.0168665 0)
(0.0475515 0.0106552 0)
(-0.0140836 0.00598638 0)
(-0.0860987 0.00420677 0)
(-0.144976 0.0127333 0)
(-0.185113 0.0162378 0)
(-0.196862 0.00356118 0)
(-0.187538 -0.00559372 0)
(-0.166411 -0.00896379 0)
(-0.144612 -0.00943991 0)
(-0.127161 -0.00939079 0)
(-0.109104 -0.012623 0)
(-0.0812851 -0.0171696 0)
(-0.0545311 -0.0186924 0)
(-0.0309404 -0.0092685 0)
(0.0143219 -0.0615659 0)
(0.0254203 -0.064098 0)
(0.0460216 -0.0538746 0)
(0.0712539 -0.0535302 0)
(0.0779071 -0.053008 0)
(0.0818129 -0.0373381 0)
(0.0774679 -0.0102362 0)
(0.0618042 0.034133 0)
(0.0345452 0.0925288 0)
(-0.0222213 0.118131 0)
(-0.0884435 0.0958333 0)
(-0.140113 0.0673698 0)
(-0.173247 0.0309186 0)
(-0.193452 0.0015487 0)
(-0.18879 -0.020685 0)
(-0.172976 -0.0287559 0)
(-0.150957 -0.0258631 0)
(-0.127557 -0.0234487 0)
(-0.107152 -0.0238359 0)
(-0.0709731 -0.0348628 0)
(-0.0513235 -0.0275306 0)
(-0.015668 -0.0159185 0)
(0.0149346 0.0246064 0)
(0.0227327 0.0271385 0)
(0.0384133 0.0179876 0)
(0.0689664 0.020223 0)
(0.0694324 0.0208883 0)
(0.0656302 0.0166537 0)
(0.0775623 0.0110877 0)
(0.0825556 0.0160478 0)
(0.042777 0.0305444 0)
(-0.0396539 0.0540021 0)
(-0.11994 0.0838222 0)
(-0.15675 0.0710051 0)
(-0.182836 0.049536 0)
(-0.196762 0.00758186 0)
(-0.19148 -0.017554 0)
(-0.174185 -0.0284417 0)
(-0.147508 -0.0321185 0)
(-0.118628 -0.0319765 0)
(-0.0953501 -0.038049 0)
(-0.0732398 -0.0446829 0)
(-0.068004 -0.0469319 0)
(-0.0228127 -0.0312625 0)
(0.001912 -0.0914372 0)
(0.0141441 -0.0869332 0)
(0.0152286 -0.0870664 0)
(0.0114831 -0.0773802 0)
(0.00829744 -0.0532121 0)
(0.0023679 -0.0308973 0)
(0.0117971 0.0429494 0)
(0.0305749 0.179441 0)
(-0.032749 0.295003 0)
(-0.127509 0.173944 0)
(-0.178632 0.116883 0)
(-0.223763 0.083767 0)
(-0.230718 0.047724 0)
(-0.224448 0.0110227 0)
(-0.206409 -0.0275152 0)
(-0.177343 -0.0467454 0)
(-0.142299 -0.050671 0)
(-0.104263 -0.047222 0)
(-0.0796796 -0.0466936 0)
(-0.0727121 -0.0465091 0)
(-0.0763033 -0.0515129 0)
(-0.044853 -0.0486 0)
(-0.000873204 -0.0235382 0)
(0.00312352 -0.0175147 0)
(-0.00104303 -0.0169777 0)
(-0.0140644 -0.00471625 0)
(-0.0452819 0.00291022 0)
(-0.0802118 -0.00161825 0)
(-0.131139 -0.0406202 0)
(-0.158193 -0.0575872 0)
(-0.12157 0.0404715 0)
(-0.245523 0.247917 0)
(-0.285221 0.152788 0)
(-0.288206 0.0877571 0)
(-0.282927 0.0338006 0)
(-0.275817 -0.0124316 0)
(-0.258613 -0.0429577 0)
(-0.21347 -0.0585344 0)
(-0.156261 -0.0671213 0)
(-0.101376 -0.0594828 0)
(-0.075454 -0.0488158 0)
(-0.0702514 -0.0447462 0)
(-0.0745367 -0.0539876 0)
(-0.0612897 -0.0581397 0)
(0.000434133 -0.03713 0)
(0.0030881 -0.0321998 0)
(0.00229948 -0.0281331 0)
(-0.00413763 -0.0120036 0)
(-0.0215631 0.0110927 0)
(-0.0396916 0.0308183 0)
(-0.0670098 0.0844704 0)
(-0.142686 0.14427 0)
(-0.20841 0.190333 0)
(-0.28043 0.237567 0)
(-0.452482 0.191291 0)
(-0.401785 0.0977451 0)
(-0.363042 0.0569653 0)
(-0.326528 0.00668175 0)
(-0.306629 -0.0517697 0)
(-0.261064 -0.0895633 0)
(-0.189971 -0.101372 0)
(-0.131452 -0.0822799 0)
(-0.0901677 -0.0592106 0)
(-0.0705702 -0.0505029 0)
(-0.0594745 -0.0664905 0)
(-0.0564681 -0.0831949 0)
(0.0014251 -0.0534766 0)
(0.00566314 -0.0466418 0)
(0.00428371 -0.0367993 0)
(-0.00849388 -0.0147753 0)
(-0.0290777 0.00106065 0)
(-0.0617758 0.00231269 0)
(-0.0968367 0.00892665 0)
(-0.12711 0.0473006 0)
(-0.172094 0.157643 0)
(-0.217611 0.272506 0)
(-0.465019 0.209447 0)
(-0.49183 0.0414776 0)
(-0.465398 -0.0215349 0)
(-0.426222 -0.046985 0)
(-0.359023 -0.0858293 0)
(-0.270909 -0.128919 0)
(-0.215396 -0.151755 0)
(-0.183331 -0.132643 0)
(-0.13445 -0.0980659 0)
(-0.0645604 -0.0753341 0)
(-0.0279423 -0.0814728 0)
(-0.0425701 -0.0919511 0)
(0.00556006 -0.0360249 0)
(0.0141426 -0.0278444 0)
(0.0323957 -0.0191682 0)
(0.0462008 0.0186676 0)
(0.0323068 0.069982 0)
(-0.00102164 0.10048 0)
(-0.0373231 0.15155 0)
(-0.0991655 0.199582 0)
(-0.144022 0.248678 0)
(-0.10969 0.33806 0)
(-0.107961 0.366325 0)
(-0.231404 0.260363 0)
(-0.311914 0.0991267 0)
(-0.299089 -0.0441276 0)
(-0.234052 -0.166188 0)
(-0.197845 -0.166177 0)
(-0.192277 -0.113665 0)
(-0.166355 -0.0525497 0)
(-0.105185 -0.0256208 0)
(-0.0382077 0.00606366 0)
(0.0104087 0.0821118 0)
(-0.0093249 0.0788881 0)
(0.0103345 -0.0623715 0)
(0.026502 -0.0612345 0)
(0.0460971 -0.056593 0)
(0.0444637 -0.0162866 0)
(0.0323009 0.0354343 0)
(0.00513576 0.0539112 0)
(-0.0152863 0.0890926 0)
(-0.0344175 0.136075 0)
(-0.0359996 0.186234 0)
(-0.00785608 0.23569 0)
(0.0775258 0.261627 0)
(0.152177 0.195253 0)
(0.177842 0.0842394 0)
(0.183136 -0.0152858 0)
(0.162222 -0.05523 0)
(0.135578 -0.0645786 0)
(0.150444 -0.0961658 0)
(0.165011 -0.158777 0)
(0.202476 -0.187691 0)
(0.210416 -0.179172 0)
(0.214258 -0.168487 0)
(0.251677 -0.131842 0)
(0.00917491 -0.0990131 0)
(0.0299427 -0.0911371 0)
(0.0846795 -0.0639903 0)
(0.103619 0.0296574 0)
(0.0858685 0.0848659 0)
(0.0155917 0.118568 0)
(-0.0348031 0.156761 0)
(-0.0631036 0.182921 0)
(-0.0513351 0.193298 0)
(-0.019518 0.195603 0)
(0.0365083 0.176859 0)
(0.106325 0.113718 0)
(0.147605 0.0226116 0)
(0.178631 -0.0819255 0)
(0.191124 -0.178146 0)
(0.192567 -0.233707 0)
(0.242521 -0.248228 0)
(0.264529 -0.244674 0)
(0.313098 -0.223628 0)
(0.295137 -0.168995 0)
(0.229905 -0.107806 0)
(0.186393 -0.106535 0)
(-0.00669613 -0.0971597 0)
(0.0257549 -0.151169 0)
(0.0872307 -0.139237 0)
(0.0248399 -0.018581 0)
(-0.0173467 0.150812 0)
(-0.0723598 0.215356 0)
(-0.0990209 0.200164 0)
(-0.103507 0.165157 0)
(-0.0867419 0.148495 0)
(-0.0623452 0.126847 0)
(-0.0228468 0.0855581 0)
(0.0224634 0.0401254 0)
(0.0656898 -0.0235086 0)
(0.109879 -0.0856429 0)
(0.144411 -0.130702 0)
(0.15533 -0.181232 0)
(0.19533 -0.220215 0)
(0.176885 -0.254789 0)
(0.245372 -0.251858 0)
(0.171842 -0.165033 0)
(-0.00739986 -0.0868676 0)
(-0.151586 -0.104302 0)
(-0.020171 -0.0795407 0)
(-0.0681692 -0.143027 0)
(-0.252411 0.0205203 0)
(-0.391138 0.164459 0)
(-0.429964 0.200065 0)
(-0.411758 0.220477 0)
(-0.309805 0.224498 0)
(-0.254627 0.226052 0)
(-0.206773 0.201293 0)
(-0.142255 0.188501 0)
(-0.0962733 0.135647 0)
(-0.060477 0.05338 0)
(-0.0324515 -0.0610929 0)
(-0.0215008 -0.163569 0)
(0.00315986 -0.269991 0)
(0.0173547 -0.315308 0)
(0.0441055 -0.280792 0)
(0.0163324 -0.057978 0)
(-0.0374064 0.527615 0)
(-0.603843 0.793083 0)
(-0.794973 0.36222 0)
(-0.765783 0.339128 0)
(-0.0708488 -0.0504543 0)
(-0.324182 0.00438442 0)
(-0.511125 0.0864838 0)
(-0.549025 0.0860973 0)
(-0.572388 0.0419609 0)
(-0.547771 -0.0659352 0)
(-0.486618 -0.104447 0)
(-0.431585 -0.0537136 0)
(-0.386138 -0.066792 0)
(-0.322415 -0.0812764 0)
(-0.289953 -0.144052 0)
(-0.27795 -0.181983 0)
(-0.244387 -0.114853 0)
(-0.190994 0.0391175 0)
(-0.265599 0.730173 0)
(-0.606508 0.806805 0)
(-0.944514 0.0629219 0)
(-0.889813 -0.224436 0)
(-0.856792 -0.127199 0)
(-0.743647 0.346784 0)
(-0.958557 0.216243 0)
(-0.811706 0.206789 0)
(-0.134285 0.311795 0)
(-0.294996 0.368801 0)
(-0.408637 0.562691 0)
(-0.484068 0.819793 0)
(-0.532341 0.826079 0)
(-0.352616 0.769727 0)
(-0.311045 0.763496 0)
(-0.281766 0.573411 0)
(-0.285838 0.563828 0)
(-0.477523 0.71214 0)
(-0.648965 0.820168 0)
(-0.870315 0.770965 0)
(-1.05128 0.250553 0)
(-1.01014 -0.166687 0)
(-0.735718 -0.507386 0)
(-0.413851 -0.46103 0)
(-0.242246 -0.409499 0)
(-0.269581 -0.282344 0)
(-0.396286 0.138287 0)
(-0.498571 0.563255 0)
(-0.841227 0.274134 0)
(-0.837075 0.130574 0)
(-0.0541914 0.891328 0)
(-0.283755 0.752952 0)
(-0.429903 0.239644 0)
(-0.486109 0.0273072 0)
(-0.27399 -0.59336 0)
(-0.186008 -0.682926 0)
(0.0272745 -0.605239 0)
(0.0103448 -0.533175 0)
(-0.0888498 0.0131417 0)
(-0.229293 -0.0127974 0)
(-0.189058 -0.23277 0)
(-0.140687 -0.244532 0)
(0.00946588 -0.332472 0)
(0.0178966 -0.267763 0)
(-0.066327 -0.160897 0)
(-0.214571 -0.0212202 0)
(-0.303074 0.00211939 0)
(-0.395212 0.00471162 0)
(-0.462365 0.230894 0)
(-0.392543 0.654547 0)
(-0.40192 0.637955 0)
(-0.66517 0.474345 0)
(0.0115692 0.434425 0)
(0.0199384 0.544258 0)
(0.0485873 0.353668 0)
(0.0469725 0.292998 0)
(0.218734 0.3362 0)
(0.0646592 0.210954 0)
(0.129824 0.325475 0)
(-0.0500794 0.579841 0)
(-0.205036 0.409528 0)
(-0.129797 0.41546 0)
(-0.213421 0.44488 0)
(-0.293932 0.353149 0)
(-0.24937 0.063223 0)
(-0.299325 -0.00399516 0)
(-0.366046 -0.0126684 0)
(-0.397592 -0.0965499 0)
(-0.410541 -0.118816 0)
(-0.467503 -0.0746512 0)
(-0.54425 0.156455 0)
(-0.554479 0.541234 0)
(-0.57974 0.649614 0)
(-0.964848 0.773133 0)
(-1.56475 1.56606 0)
(-0.037688 0.468172 0)
(0.0538457 0.502928 0)
(0.0639 0.347883 0)
(0.00298462 0.0989956 0)
(0.0207144 -0.379195 0)
(0.0553689 -0.381242 0)
(-0.0658213 -0.338993 0)
(0.106994 0.08485 0)
(-0.0438413 0.294556 0)
(-0.0459856 0.272995 0)
(-0.131118 0.169681 0)
(-0.0136986 -0.149632 0)
(-0.0207203 -0.298859 0)
(-0.110441 -0.241735 0)
(-0.093778 -0.177218 0)
(-0.131727 -0.0945586 0)
(-0.228683 0.00741544 0)
(-0.367618 0.129486 0)
(-0.574568 0.269131 0)
(-0.711724 0.603802 0)
(-0.847327 0.924302 0)
(-1.16493 1.12824 0)
(-1.40634 1.70404 0)
(-0.0816673 0.501158 0)
(0.0638271 0.418491 0)
(0.0914275 0.303789 0)
(0.214349 0.15927 0)
(0.183343 0.130099 0)
(0.0773531 0.107702 0)
(-0.0858515 0.130146 0)
(-0.0407189 0.301414 0)
(-0.039776 0.375904 0)
(0.0386677 0.334969 0)
(0.0526536 0.225008 0)
(0.141583 0.200668 0)
(-0.00107809 0.169017 0)
(-0.128331 0.0992014 0)
(-0.203984 0.095724 0)
(-0.292141 0.104353 0)
(-0.359451 0.175004 0)
(-0.430565 0.312423 0)
(-0.542163 0.515558 0)
(-0.68946 0.751399 0)
(-0.810776 1.10205 0)
(-1.01828 1.34715 0)
(-1.10748 1.54507 0)
(-0.0566624 0.513135 0)
(0.0734847 0.363037 0)
(0.0679991 0.24755 0)
(0.105367 0.102331 0)
(0.036328 -0.0574166 0)
(0.034478 -0.0595247 0)
(-0.0219284 -0.0940592 0)
(-0.00709968 0.184762 0)
(0.018123 0.342991 0)
(0.0712738 0.290889 0)
(0.0545957 0.1436 0)
(0.0215658 -0.0043224 0)
(-0.00875927 -0.0209634 0)
(-0.0576788 -0.0528047 0)
(-0.125795 -0.0251275 0)
(-0.190866 0.0469586 0)
(-0.267164 0.15803 0)
(-0.34129 0.324803 0)
(-0.401048 0.574188 0)
(-0.443881 0.873324 0)
(-0.492017 1.19724 0)
(-0.502114 1.39193 0)
(-0.411756 1.46013 0)
(0.0137742 0.486679 0)
(0.0916114 0.328349 0)
(0.0982075 0.224303 0)
(0.124376 0.143158 0)
(0.0839448 0.120406 0)
(0.0412475 0.119919 0)
(-0.0507515 0.115131 0)
(-0.0792581 0.16549 0)
(-0.00322387 0.254388 0)
(0.0754513 0.250155 0)
(0.074222 0.209926 0)
(0.0328869 0.194001 0)
(-0.0353388 0.19444 0)
(-0.0972997 0.19195 0)
(-0.170354 0.199581 0)
(-0.226048 0.221312 0)
(-0.268575 0.277965 0)
(-0.290069 0.396783 0)
(-0.280726 0.583714 0)
(-0.22172 0.829633 0)
(-0.106741 1.11461 0)
(0.0530506 1.29613 0)
(0.227652 1.29442 0)
(0.0529988 0.391812 0)
(0.0907333 0.296282 0)
(0.102489 0.212926 0)
(0.100237 0.153239 0)
(0.060986 0.117258 0)
(0.0270358 0.115539 0)
(-0.0193611 0.104135 0)
(-0.0584926 0.154854 0)
(-0.034921 0.193227 0)
(0.00558851 0.223882 0)
(0.0096081 0.215982 0)
(-0.0316112 0.18038 0)
(-0.0693872 0.161288 0)
(-0.103629 0.142188 0)
(-0.140449 0.156487 0)
(-0.172005 0.203046 0)
(-0.209819 0.27629 0)
(-0.2312 0.389495 0)
(-0.208055 0.549444 0)
(-0.125879 0.728852 0)
(0.0293392 0.917442 0)
(0.238231 1.04372 0)
(0.454443 1.04402 0)
(0.0413665 0.323332 0)
(0.0672885 0.267402 0)
(0.0877395 0.208678 0)
(0.0702898 0.174228 0)
(0.0447369 0.15801 0)
(0.0217623 0.155655 0)
(-0.00829983 0.15399 0)
(-0.0318436 0.171931 0)
(-0.0364961 0.187814 0)
(-0.0298833 0.214211 0)
(-0.0265847 0.22712 0)
(-0.0396093 0.220447 0)
(-0.0625984 0.21482 0)
(-0.0901847 0.21178 0)
(-0.124449 0.221106 0)
(-0.149892 0.247669 0)
(-0.161066 0.303929 0)
(-0.159872 0.381631 0)
(-0.133644 0.488004 0)
(-0.065888 0.615398 0)
(0.0577085 0.741475 0)
(0.231518 0.817503 0)
(0.429004 0.822185 0)
(0.0234342 0.283338 0)
(0.043948 0.247753 0)
(0.0552848 0.210674 0)
(0.0451899 0.190282 0)
(0.0311212 0.178403 0)
(0.0167214 0.175564 0)
(-0.00068767 0.174503 0)
(-0.0139684 0.184683 0)
(-0.0237473 0.192551 0)
(-0.0275985 0.214358 0)
(-0.0236102 0.230361 0)
(-0.0253222 0.237174 0)
(-0.0332061 0.236989 0)
(-0.0489916 0.2372 0)
(-0.0690693 0.245891 0)
(-0.0865445 0.266892 0)
(-0.0975294 0.307568 0)
(-0.0906383 0.367915 0)
(-0.0643574 0.441428 0)
(-0.0112366 0.520709 0)
(0.0818009 0.604339 0)
(0.208192 0.657735 0)
(0.356611 0.664284 0)
(0.0129337 0.259949 0)
(0.0271331 0.23471 0)
(0.0345358 0.212429 0)
(0.0300238 0.199163 0)
(0.0225736 0.189892 0)
(0.0143652 0.186377 0)
(0.00439639 0.185754 0)
(-0.00285468 0.192786 0)
(-0.00853759 0.199931 0)
(-0.0125212 0.215077 0)
(-0.00979677 0.228652 0)
(-0.00780268 0.235573 0)
(-0.00811088 0.237649 0)
(-0.0133172 0.242498 0)
(-0.0212629 0.253145 0)
(-0.0275692 0.272492 0)
(-0.0325227 0.305042 0)
(-0.0261861 0.351423 0)
(-0.0037981 0.408354 0)
(0.0389935 0.461446 0)
(0.10524 0.508806 0)
(0.198523 0.53966 0)
(0.304274 0.544126 0)
(0.00744696 0.245199 0)
(0.0171096 0.224824 0)
(0.0229883 0.211472 0)
(0.0223391 0.202777 0)
(0.0188913 0.196159 0)
(0.014197 0.193018 0)
(0.00794352 0.192699 0)
(0.00326138 0.197508 0)
(-0.000515434 0.203466 0)
(-0.00238068 0.214928 0)
(0.00114086 0.224929 0)
(0.00505323 0.231696 0)
(0.00754711 0.237264 0)
(0.00735441 0.246652 0)
(0.00569854 0.257776 0)
(0.00424429 0.276027 0)
)
;

boundaryField
{
    leftWall
    {
        type            calculated;
        value           uniform (0 0 0);
    }
    rightWall
    {
        type            calculated;
        value           nonuniform 0();
    }
    lowerWall
    {
        type            calculated;
        value           uniform (0 0 0);
    }
    atmosphere
    {
        type            calculated;
        value           nonuniform 0();
    }
    defaultFaces
    {
        type            empty;
    }
    procBoundary0to1
    {
        type            processor;
        value           nonuniform List<vector> 
26
(
(-0.034614 -0.00902614 0)
(-0.0146593 -0.0294433 0)
(-2.54354e-05 -0.0310741 0)
(-0.00264403 -0.0362358 0)
(-0.00314249 -0.0451711 0)
(-0.0126045 -0.0581474 0)
(-0.0154125 -0.084119 0)
(-0.0103677 -0.117941 0)
(-0.0659663 -0.0347149 0)
(0.299588 -0.072147 0)
(0.178462 -0.194765 0)
(-0.542988 0.102119 0)
(-0.835367 0.405038 0)
(-0.785604 0.306862 0)
(-0.792317 0.274519 0)
(-1.07953 0.884322 0)
(-1.07953 0.884322 0)
(-1.71312 2.09995 0)
(-1.40649 1.98168 0)
(-0.868685 1.61594 0)
(-0.208767 1.36287 0)
(0.362401 1.15581 0)
(0.577963 0.903844 0)
(0.552029 0.722369 0)
(0.457119 0.596591 0)
(0.377343 0.499984 0)
)
;
    }
    procBoundary0to2
    {
        type            processor;
        value           nonuniform List<vector> 
24
(
(0.0042768 0.303745 0)
(0.0153888 0.339327 0)
(0.0388287 0.379441 0)
(0.0762043 0.41853 0)
(0.125512 0.444969 0)
(0.192537 0.457966 0)
(0.270449 0.456756 0)
(0.00455173 0.235918 0)
(0.011908 0.217506 0)
(0.0172072 0.208876 0)
(0.017705 0.203175 0)
(0.0162709 0.199066 0)
(0.0128627 0.197131 0)
(0.00848592 0.197508 0)
(0.00506348 0.201228 0)
(0.00231952 0.206153 0)
(0.00202292 0.213907 0)
(0.00472365 0.221453 0)
(0.00885159 0.228466 0)
(0.011478 0.235556 0)
(0.0139629 0.245137 0)
(0.0153598 0.257316 0)
(0.0042768 0.303745 0)
(0.0179898 0.275822 0)
)
;
    }
}


// ************************************************************************* //
