/*--------------------------------*- C++ -*----------------------------------*\
| =========                 |                                                 |
| \\      /  F ield         | OpenFOAM: The Open Source CFD Toolbox           |
|  \\    /   O peration     | Version:  2.4.0                                 |
|   \\  /    A nd           | Web:      www.OpenFOAM.org                      |
|    \\/     M anipulation  |                                                 |
\*---------------------------------------------------------------------------*/
FoamFile
{
    version     2.0;
    format      ascii;
    class       volVectorField;
    location    "0.75";
    object      U.air;
}
// * * * * * * * * * * * * * * * * * * * * * * * * * * * * * * * * * * * * * //

dimensions      [0 1 -1 0 0 0 0];

internalField   nonuniform List<vector> 
575
(
(0.0105948 -0.0210506 0)
(0.0292568 -0.0220448 0)
(0.0531071 -0.0192833 0)
(0.0592664 -0.0202846 0)
(0.0757112 -0.0212192 0)
(0.091584 -0.0179522 0)
(0.0854887 -0.0074705 0)
(0.0677756 0.0132172 0)
(0.0265596 0.0310726 0)
(-0.0236603 0.0445479 0)
(-0.0781128 0.0498834 0)
(-0.126513 0.0383358 0)
(-0.173724 0.0165826 0)
(-0.193529 0.00240213 0)
(-0.186465 -0.00759257 0)
(-0.167042 -0.0107384 0)
(-0.146712 -0.00815397 0)
(-0.13055 -0.00761641 0)
(-0.112419 -0.00435795 0)
(-0.0916314 -0.0101765 0)
(-0.0548633 -0.00366731 0)
(-0.0435133 0.000487832 0)
(0.0126131 0.00945968 0)
(0.0269692 0.00776108 0)
(0.0513215 0.0125678 0)
(0.0637175 0.0132404 0)
(0.0791818 0.0114219 0)
(0.093502 0.0176531 0)
(0.0965754 0.0198967 0)
(0.0818757 0.0168679 0)
(0.0475503 0.0106564 0)
(-0.0140842 0.00598735 0)
(-0.0860987 0.00420723 0)
(-0.144975 0.0127336 0)
(-0.185112 0.0162381 0)
(-0.196861 0.00356155 0)
(-0.187537 -0.00559335 0)
(-0.166411 -0.00896353 0)
(-0.144612 -0.0094398 0)
(-0.127161 -0.00939081 0)
(-0.109104 -0.0126231 0)
(-0.0812848 -0.0171698 0)
(-0.0545308 -0.0186926 0)
(-0.0309402 -0.00926861 0)
(0.0143228 -0.0623963 0)
(0.0254251 -0.0649791 0)
(0.046024 -0.0540764 0)
(0.0712515 -0.0533778 0)
(0.0778849 -0.0523739 0)
(0.0817003 -0.0357705 0)
(0.0773271 -0.0090817 0)
(0.0617906 0.0342271 0)
(0.0345438 0.0925327 0)
(-0.022222 0.118133 0)
(-0.0884436 0.0958345 0)
(-0.140113 0.0673704 0)
(-0.173246 0.0309191 0)
(-0.193451 0.00154937 0)
(-0.188789 -0.0206844 0)
(-0.172976 -0.0287555 0)
(-0.150957 -0.0258629 0)
(-0.127557 -0.0234488 0)
(-0.107152 -0.0238362 0)
(-0.0709729 -0.0348631 0)
(-0.0513232 -0.0275309 0)
(-0.0156677 -0.0159187 0)
(0.0152576 -0.108914 0)
(0.0233677 -0.106905 0)
(0.0398261 -0.112223 0)
(0.0717394 -0.109034 0)
(0.0742605 -0.105016 0)
(0.073273 -0.0999187 0)
(0.0846742 -0.0858158 0)
(0.0895246 -0.0440149 0)
(0.049062 0.0112215 0)
(-0.0402621 0.0555642 0)
(-0.119962 0.0838762 0)
(-0.15675 0.0710062 0)
(-0.182835 0.0495367 0)
(-0.19676 0.00758251 0)
(-0.191479 -0.0175535 0)
(-0.174184 -0.0284414 0)
(-0.147507 -0.0321187 0)
(-0.118628 -0.0319769 0)
(-0.09535 -0.0380496 0)
(-0.0732396 -0.0446836 0)
(-0.0680037 -0.0469324 0)
(-0.0228124 -0.031263 0)
(0.00191374 -0.0914451 0)
(0.0141451 -0.0869413 0)
(0.0152296 -0.0870747 0)
(0.0114837 -0.0773887 0)
(0.00829672 -0.0532211 0)
(0.00236601 -0.0309062 0)
(0.0136274 0.0372695 0)
(0.0457658 0.0922348 0)
(0.0138038 0.109438 0)
(-0.102186 0.119139 0)
(-0.179171 0.117917 0)
(-0.223862 0.0840399 0)
(-0.230718 0.0477261 0)
(-0.224447 0.0110232 0)
(-0.206408 -0.0275149 0)
(-0.177343 -0.0467456 0)
(-0.142299 -0.0506716 0)
(-0.104263 -0.0472228 0)
(-0.0796796 -0.0466945 0)
(-0.0727119 -0.0465101 0)
(-0.076303 -0.0515138 0)
(-0.0448525 -0.0486007 0)
(-0.000872899 -0.0235455 0)
(0.00312428 -0.017522 0)
(-0.00104228 -0.0169851 0)
(-0.0140643 -0.0047237 0)
(-0.045283 0.00290308 0)
(-0.0802138 -0.00162424 0)
(-0.131142 -0.0406265 0)
(-0.158164 -0.0576194 0)
(-0.114263 0.0247198 0)
(-0.208617 0.133042 0)
(-0.275028 0.131461 0)
(-0.288737 0.088989 0)
(-0.282955 0.0339643 0)
(-0.275817 -0.0124289 0)
(-0.258613 -0.0429575 0)
(-0.21347 -0.0585349 0)
(-0.156261 -0.0671218 0)
(-0.101376 -0.0594831 0)
(-0.0754541 -0.0488165 0)
(-0.0702512 -0.0447469 0)
(-0.0745363 -0.0539792 0)
(-0.0612894 -0.0581009 0)
(0.000434441 -0.0371389 0)
(0.00308878 -0.0322084 0)
(0.00230014 -0.0281408 0)
(-0.00413745 -0.0120128 0)
(-0.0215639 0.0110846 0)
(-0.0396935 0.0308129 0)
(-0.0670123 0.0844636 0)
(-0.142689 0.144263 0)
(-0.214304 0.184152 0)
(-0.325992 0.148363 0)
(-0.424939 0.123618 0)
(-0.401124 0.0960562 0)
(-0.363192 0.0578883 0)
(-0.326531 0.00674195 0)
(-0.306635 -0.0516573 0)
(-0.261038 -0.0886205 0)
(-0.189907 -0.0999673 0)
(-0.131414 -0.0807646 0)
(-0.0901512 -0.0577252 0)
(-0.0705543 -0.0490087 0)
(-0.0594703 -0.0647678 0)
(-0.0565244 -0.0813365 0)
(0.00142526 -0.0534383 0)
(0.00566354 -0.0466003 0)
(0.00428411 -0.0367737 0)
(-0.00849388 -0.0147732 0)
(-0.0290786 0.00105623 0)
(-0.0617777 0.00231111 0)
(-0.0968387 0.00891975 0)
(-0.127112 0.0472938 0)
(-0.173657 0.156242 0)
(-0.276862 0.18723 0)
(-0.466094 0.0849638 0)
(-0.48638 0.0182331 0)
(-0.465564 -0.0204325 0)
(-0.426292 -0.0454048 0)
(-0.359025 -0.0858483 0)
(-0.271144 -0.13413 0)
(-0.216259 -0.163433 0)
(-0.184312 -0.148775 0)
(-0.134912 -0.116656 0)
(-0.0647874 -0.097018 0)
(-0.027888 -0.110147 0)
(-0.0407388 -0.122062 0)
(0.00556294 -0.0355172 0)
(0.0141483 -0.0274864 0)
(0.0323985 -0.018949 0)
(0.0461995 0.018767 0)
(0.0323043 0.0700105 0)
(-0.00102369 0.100495 0)
(-0.0373248 0.151549 0)
(-0.0991668 0.199578 0)
(-0.144059 0.24862 0)
(-0.132616 0.303406 0)
(-0.189839 0.219956 0)
(-0.270908 0.11692 0)
(-0.312945 0.0209608 0)
(-0.299587 -0.102086 0)
(-0.239114 -0.240992 0)
(-0.207657 -0.267401 0)
(-0.205421 -0.235703 0)
(-0.177819 -0.194007 0)
(-0.114354 -0.189671 0)
(-0.0417915 -0.179619 0)
(0.0257031 -0.107805 0)
(0.0176215 -0.1068 0)
(0.0103486 -0.0608793 0)
(0.0265318 -0.0600941 0)
(0.046124 -0.0558638 0)
(0.0444694 -0.0157453 0)
(0.0322969 0.0357792 0)
(0.00512611 0.0543378 0)
(-0.0152894 0.0892873 0)
(-0.0344156 0.136126 0)
(-0.0359996 0.186239 0)
(-0.00897549 0.234203 0)
(0.0622674 0.238768 0)
(0.103733 0.127336 0)
(0.122662 0.00985969 0)
(0.154577 -0.072852 0)
(0.152209 -0.105735 0)
(0.136441 -0.098035 0)
(0.156979 -0.0969884 0)
(0.166346 -0.0269381 0)
(0.203093 0.00842345 0)
(0.210843 0.028162 0)
(0.214763 0.00468516 0)
(0.251557 -0.0126724 0)
(0.00924571 -0.0971983 0)
(0.0301278 -0.0887871 0)
(0.0850162 -0.0603607 0)
(0.103719 0.033436 0)
(0.0858546 0.0873531 0)
(0.0155562 0.12136 0)
(-0.0348194 0.159082 0)
(-0.0631547 0.184303 0)
(-0.0513185 0.193938 0)
(-0.0194897 0.195843 0)
(0.0359708 0.175972 0)
(0.104255 0.109906 0)
(0.142664 0.015864 0)
(0.178309 -0.0361566 0)
(0.191809 -0.0436374 0)
(0.196703 -0.0376354 0)
(0.265288 0.0211906 0)
(0.314479 0.158542 0)
(0.338015 0.318606 0)
(0.214362 0.516926 0)
(0.108984 0.478859 0)
(0.147977 0.177283 0)
(-0.00649194 -0.078113 0)
(0.0260895 -0.126598 0)
(0.0868828 -0.14115 0)
(0.0243624 -0.02373 0)
(-0.0172162 0.145099 0)
(-0.0722409 0.209693 0)
(-0.0990361 0.198991 0)
(-0.103544 0.166373 0)
(-0.0867474 0.150343 0)
(-0.0622507 0.128808 0)
(-0.0225273 0.0872827 0)
(0.0228037 0.052975 0)
(0.074351 0.140221 0)
(0.152686 0.163362 0)
(0.206737 0.263128 0)
(0.196002 0.278893 0)
(0.232234 0.252873 0)
(0.237837 0.173169 0)
(0.302514 0.0945318 0)
(0.120221 0.168224 0)
(-0.308444 0.377555 0)
(-0.544252 0.356379 0)
(-0.0135853 0.131137 0)
(-0.0518238 0.114183 0)
(-0.246571 0.282074 0)
(-0.379682 0.467121 0)
(-0.42046 0.515553 0)
(-0.401114 0.525453 0)
(-0.301935 0.51085 0)
(-0.24886 0.476041 0)
(-0.203252 0.44682 0)
(-0.14181 0.440535 0)
(-0.0956421 0.416226 0)
(-0.0103782 0.368401 0)
(0.0580015 0.415931 0)
(0.0591509 0.226876 0)
(0.0569563 -0.00321105 0)
(0.0306986 -0.121607 0)
(0.044244 -0.134218 0)
(0.0118269 0.0301044 0)
(-0.0407804 0.558555 0)
(-0.605307 0.818427 0)
(-0.855846 0.472493 0)
(-1.09751 0.636288 0)
(-0.0527207 0.41849 0)
(-0.290299 0.520153 0)
(-0.469487 0.43664 0)
(-0.529877 0.377866 0)
(-0.562594 0.326272 0)
(-0.541151 0.223225 0)
(-0.499601 0.190663 0)
(-0.448573 0.274768 0)
(-0.382541 0.266596 0)
(-0.312032 0.227551 0)
(-0.282825 0.12969 0)
(-0.270439 0.0289499 0)
(-0.236648 0.0211309 0)
(-0.187603 0.111248 0)
(-0.265652 0.743278 0)
(-0.606516 0.806926 0)
(-0.944517 0.0629224 0)
(-0.889815 -0.224437 0)
(-0.856789 -0.127214 0)
(-0.740991 0.349236 0)
(-1.01425 0.242146 0)
(-1.01237 0.304572 0)
(-0.121144 0.440174 0)
(-0.282297 0.488966 0)
(-0.395889 0.619838 0)
(-0.479531 0.85824 0)
(-0.530198 0.854846 0)
(-0.349735 0.786591 0)
(-0.309043 0.780665 0)
(-0.275102 0.616572 0)
(-0.281088 0.603673 0)
(-0.479712 0.74111 0)
(-0.652101 0.83364 0)
(-0.870947 0.77252 0)
(-1.05131 0.250589 0)
(-1.01014 -0.166687 0)
(-0.73572 -0.507387 0)
(-0.413852 -0.461031 0)
(-0.242247 -0.409499 0)
(-0.269581 -0.282344 0)
(-0.396281 0.138288 0)
(-0.495951 0.565461 0)
(-0.83254 0.306922 0)
(-0.847138 0.20122 0)
(-0.0535169 0.895803 0)
(-0.283434 0.756325 0)
(-0.42986 0.239898 0)
(-0.486097 0.0273517 0)
(-0.273988 -0.593361 0)
(-0.186008 -0.682927 0)
(0.0272747 -0.605239 0)
(0.0103483 -0.533176 0)
(-0.0888199 0.0131911 0)
(-0.229287 -0.0127783 0)
(-0.189058 -0.232768 0)
(-0.140687 -0.244532 0)
(0.00946589 -0.332473 0)
(0.0178966 -0.267763 0)
(-0.066327 -0.160897 0)
(-0.214571 -0.0212202 0)
(-0.303075 0.0021194 0)
(-0.395212 0.00471162 0)
(-0.462362 0.230895 0)
(-0.3918 0.655097 0)
(-0.395105 0.645414 0)
(-0.659205 0.489596 0)
(0.0115699 0.434428 0)
(0.0199392 0.54426 0)
(0.0485874 0.353668 0)
(0.0469725 0.292998 0)
(0.218734 0.3362 0)
(0.0646593 0.210954 0)
(0.129824 0.325475 0)
(-0.0500795 0.579841 0)
(-0.205036 0.409528 0)
(-0.129797 0.41546 0)
(-0.213421 0.44488 0)
(-0.293932 0.353149 0)
(-0.24937 0.0632231 0)
(-0.299326 -0.00399516 0)
(-0.366046 -0.0126684 0)
(-0.397592 -0.0965499 0)
(-0.410541 -0.118816 0)
(-0.467503 -0.0746512 0)
(-0.544248 0.156455 0)
(-0.554435 0.54126 0)
(-0.579629 0.649733 0)
(-0.964865 0.773403 0)
(-1.56504 1.56669 0)
(-0.037688 0.468172 0)
(0.0538457 0.502928 0)
(0.0639001 0.347884 0)
(0.00298462 0.0989957 0)
(0.0207144 -0.379195 0)
(0.055369 -0.381242 0)
(-0.0658213 -0.338993 0)
(0.106994 0.08485 0)
(-0.0438413 0.294556 0)
(-0.0459856 0.272995 0)
(-0.131118 0.169681 0)
(-0.0136986 -0.149632 0)
(-0.0207203 -0.298859 0)
(-0.110441 -0.241736 0)
(-0.0937781 -0.177218 0)
(-0.131727 -0.0945586 0)
(-0.228683 0.00741545 0)
(-0.367618 0.129486 0)
(-0.574568 0.269131 0)
(-0.711723 0.603802 0)
(-0.847326 0.924301 0)
(-1.16493 1.12824 0)
(-1.40634 1.70403 0)
(-0.0816673 0.501158 0)
(0.0638271 0.418491 0)
(0.0914276 0.303789 0)
(0.21435 0.15927 0)
(0.183343 0.130099 0)
(0.0773532 0.107702 0)
(-0.0858515 0.130146 0)
(-0.0407189 0.301414 0)
(-0.039776 0.375904 0)
(0.0386678 0.334969 0)
(0.0526537 0.225008 0)
(0.141583 0.200668 0)
(-0.00107809 0.169017 0)
(-0.128331 0.0992015 0)
(-0.203984 0.0957241 0)
(-0.292141 0.104353 0)
(-0.359451 0.175004 0)
(-0.430565 0.312424 0)
(-0.542163 0.515558 0)
(-0.68946 0.751399 0)
(-0.810775 1.10205 0)
(-1.01828 1.34715 0)
(-1.10748 1.54506 0)
(-0.0566625 0.513136 0)
(0.0734848 0.363037 0)
(0.0679991 0.247551 0)
(0.105367 0.102331 0)
(0.0363281 -0.0574167 0)
(0.0344781 -0.0595248 0)
(-0.0219284 -0.0940592 0)
(-0.00709969 0.184762 0)
(0.018123 0.342991 0)
(0.0712738 0.290889 0)
(0.0545957 0.1436 0)
(0.0215658 -0.00432241 0)
(-0.00875927 -0.0209634 0)
(-0.0576788 -0.0528047 0)
(-0.125795 -0.0251275 0)
(-0.190866 0.0469586 0)
(-0.267164 0.15803 0)
(-0.34129 0.324803 0)
(-0.401048 0.574188 0)
(-0.443881 0.873324 0)
(-0.492017 1.19724 0)
(-0.502114 1.39193 0)
(-0.411756 1.46013 0)
(0.0137742 0.48668 0)
(0.0916115 0.328349 0)
(0.0982077 0.224303 0)
(0.124376 0.143158 0)
(0.0839449 0.120406 0)
(0.0412475 0.119919 0)
(-0.0507516 0.115131 0)
(-0.0792581 0.16549 0)
(-0.00322387 0.254388 0)
(0.0754513 0.250155 0)
(0.074222 0.209926 0)
(0.0328869 0.194001 0)
(-0.0353388 0.19444 0)
(-0.0972997 0.19195 0)
(-0.170354 0.199581 0)
(-0.226048 0.221312 0)
(-0.268575 0.277965 0)
(-0.29007 0.396783 0)
(-0.280726 0.583715 0)
(-0.221721 0.829633 0)
(-0.106741 1.11461 0)
(0.0530506 1.29613 0)
(0.227652 1.29442 0)
(0.0529988 0.391813 0)
(0.0907334 0.296282 0)
(0.102489 0.212926 0)
(0.100238 0.153239 0)
(0.060986 0.117258 0)
(0.0270358 0.115539 0)
(-0.0193612 0.104135 0)
(-0.0584926 0.154854 0)
(-0.034921 0.193227 0)
(0.00558851 0.223882 0)
(0.0096081 0.215982 0)
(-0.0316112 0.18038 0)
(-0.0693873 0.161289 0)
(-0.103629 0.142188 0)
(-0.140449 0.156487 0)
(-0.172005 0.203046 0)
(-0.209819 0.27629 0)
(-0.2312 0.389495 0)
(-0.208056 0.549444 0)
(-0.125879 0.728853 0)
(0.0293392 0.917442 0)
(0.238231 1.04372 0)
(0.454443 1.04402 0)
(0.0413666 0.323332 0)
(0.0672885 0.267403 0)
(0.0877396 0.208678 0)
(0.0702898 0.174229 0)
(0.044737 0.15801 0)
(0.0217623 0.155655 0)
(-0.00829983 0.15399 0)
(-0.0318436 0.171931 0)
(-0.0364961 0.187814 0)
(-0.0298833 0.214211 0)
(-0.0265847 0.22712 0)
(-0.0396093 0.220447 0)
(-0.0625984 0.21482 0)
(-0.0901847 0.21178 0)
(-0.124449 0.221106 0)
(-0.149892 0.247669 0)
(-0.161066 0.303929 0)
(-0.159872 0.381631 0)
(-0.133644 0.488004 0)
(-0.065888 0.615399 0)
(0.0577086 0.741476 0)
(0.231519 0.817504 0)
(0.429005 0.822185 0)
(0.0234343 0.283339 0)
(0.0439481 0.247753 0)
(0.0552848 0.210674 0)
(0.0451899 0.190282 0)
(0.0311212 0.178403 0)
(0.0167215 0.175564 0)
(-0.00068767 0.174503 0)
(-0.0139684 0.184683 0)
(-0.0237473 0.192551 0)
(-0.0275986 0.214358 0)
(-0.0236102 0.230361 0)
(-0.0253222 0.237174 0)
(-0.0332061 0.23699 0)
(-0.0489917 0.2372 0)
(-0.0690694 0.245891 0)
(-0.0865445 0.266892 0)
(-0.0975294 0.307568 0)
(-0.0906384 0.367915 0)
(-0.0643575 0.441429 0)
(-0.0112366 0.52071 0)
(0.081801 0.604339 0)
(0.208192 0.657736 0)
(0.356611 0.664285 0)
(0.0129337 0.25995 0)
(0.0271331 0.23471 0)
(0.0345359 0.21243 0)
(0.0300238 0.199163 0)
(0.0225736 0.189892 0)
(0.0143652 0.186377 0)
(0.00439639 0.185754 0)
(-0.00285468 0.192786 0)
(-0.00853759 0.199931 0)
(-0.0125212 0.215077 0)
(-0.00979677 0.228652 0)
(-0.00780269 0.235573 0)
(-0.00811089 0.237649 0)
(-0.0133172 0.242498 0)
(-0.0212629 0.253145 0)
(-0.0275692 0.272492 0)
(-0.0325227 0.305042 0)
(-0.0261861 0.351423 0)
(-0.0037981 0.408354 0)
(0.0389935 0.461447 0)
(0.105241 0.508807 0)
(0.198524 0.539661 0)
(0.304275 0.544127 0)
(0.00744697 0.245199 0)
(0.0171096 0.224824 0)
(0.0229883 0.211472 0)
(0.0223391 0.202778 0)
(0.0188913 0.196159 0)
(0.014197 0.193018 0)
(0.00794352 0.192699 0)
(0.00326138 0.197508 0)
(-0.000515434 0.203466 0)
(-0.00238068 0.214928 0)
(0.00114086 0.224929 0)
(0.00505323 0.231696 0)
(0.00754711 0.237264 0)
(0.00735441 0.246652 0)
(0.00569855 0.257776 0)
(0.00424429 0.276027 0)
)
;

boundaryField
{
    leftWall
    {
        type            fixedValue;
        value           uniform (0 0 0);
    }
    rightWall
    {
        type            fixedValue;
        value           nonuniform 0();
    }
    lowerWall
    {
        type            fixedValue;
        value           uniform (0 0 0);
    }
    atmosphere
    {
        type            fluxCorrectedVelocity;
        value           nonuniform 0();
    }
    defaultFaces
    {
        type            empty;
    }
    procBoundary0to1
    {
        type            processor;
        value           nonuniform List<vector> 
26
(
(-0.0346139 -0.0090262 0)
(-0.0146592 -0.0294435 0)
(-2.53004e-05 -0.0310743 0)
(-0.00264385 -0.0362361 0)
(-0.00314224 -0.0451715 0)
(-0.0126042 -0.0581464 0)
(-0.01547 -0.0826683 0)
(-0.00931926 -0.131708 0)
(-0.0365978 -0.171363 0)
(0.296857 0.045061 0)
(0.149115 -0.00492474 0)
(-0.589035 0.338163 0)
(-1.1659 0.728919 0)
(-0.84005 0.702912 0)
(-0.771076 0.456853 0)
(-1.08923 0.917245 0)
(-1.08923 0.917245 0)
(-1.71315 2.10003 0)
(-1.40648 1.98168 0)
(-0.868684 1.61593 0)
(-0.208767 1.36287 0)
(0.362401 1.15581 0)
(0.577963 0.903845 0)
(0.552029 0.72237 0)
(0.45712 0.596592 0)
(0.377344 0.499985 0)
)
;
    }
    procBoundary0to2
    {
        type            processor;
        value           nonuniform List<vector> 
24
(
(0.0042768 0.303745 0)
(0.0153888 0.339327 0)
(0.0388287 0.379441 0)
(0.0762044 0.41853 0)
(0.125512 0.444969 0)
(0.192538 0.457967 0)
(0.27045 0.456757 0)
(0.00455173 0.235918 0)
(0.011908 0.217506 0)
(0.0172073 0.208876 0)
(0.017705 0.203175 0)
(0.0162709 0.199066 0)
(0.0128627 0.197131 0)
(0.00848592 0.197508 0)
(0.00506348 0.201228 0)
(0.00231952 0.206153 0)
(0.00202292 0.213907 0)
(0.00472365 0.221453 0)
(0.0088516 0.228466 0)
(0.011478 0.235556 0)
(0.0139629 0.245137 0)
(0.0153598 0.257316 0)
(0.0042768 0.303745 0)
(0.0179898 0.275822 0)
)
;
    }
}


// ************************************************************************* //
