/*--------------------------------*- C++ -*----------------------------------*\
| =========                 |                                                 |
| \\      /  F ield         | OpenFOAM: The Open Source CFD Toolbox           |
|  \\    /   O peration     | Version:  2.4.0                                 |
|   \\  /    A nd           | Web:      www.OpenFOAM.org                      |
|    \\/     M anipulation  |                                                 |
\*---------------------------------------------------------------------------*/
FoamFile
{
    version     2.0;
    format      ascii;
    class       volVectorField;
    location    "0.75";
    object      U.oil;
}
// * * * * * * * * * * * * * * * * * * * * * * * * * * * * * * * * * * * * * //

dimensions      [0 1 -1 0 0 0 0];

internalField   nonuniform List<vector> 
575
(
(0.0105948 -0.0210508 0)
(0.0292568 -0.022045 0)
(0.0531071 -0.0192835 0)
(0.0592664 -0.0202848 0)
(0.0757112 -0.0212195 0)
(0.091584 -0.0179524 0)
(0.0854887 -0.00747066 0)
(0.0677756 0.0132171 0)
(0.0265596 0.0310725 0)
(-0.0236603 0.0445479 0)
(-0.0781128 0.0498833 0)
(-0.126513 0.0383358 0)
(-0.173724 0.0165827 0)
(-0.193529 0.00240225 0)
(-0.186465 -0.00759214 0)
(-0.167043 -0.0107371 0)
(-0.146712 -0.00814919 0)
(-0.13055 -0.00760464 0)
(-0.112419 -0.0043292 0)
(-0.0916311 -0.0101005 0)
(-0.0548679 -0.00234138 0)
(-0.0435567 0.00659736 0)
(0.0126131 0.00945136 0)
(0.0269692 0.00775061 0)
(0.0513215 0.0125637 0)
(0.0637175 0.0132366 0)
(0.0791819 0.0114184 0)
(0.0935021 0.017652 0)
(0.0965755 0.0198961 0)
(0.0818758 0.0168675 0)
(0.0475504 0.0106561 0)
(-0.0140841 0.00598711 0)
(-0.0860986 0.00420708 0)
(-0.144975 0.0127335 0)
(-0.185112 0.0162381 0)
(-0.196861 0.00356165 0)
(-0.187537 -0.00559305 0)
(-0.166411 -0.00896226 0)
(-0.144612 -0.00943297 0)
(-0.127161 -0.00937194 0)
(-0.109103 -0.0125809 0)
(-0.0812847 -0.0170817 0)
(-0.0545334 -0.017751 0)
(-0.0309995 -0.00380257 0)
(0.014323 -0.0626283 0)
(0.0254263 -0.0652097 0)
(0.0460266 -0.0543318 0)
(0.0712562 -0.0536477 0)
(0.0778951 -0.0526639 0)
(0.081724 -0.0361007 0)
(0.0773605 -0.00935631 0)
(0.0617955 0.0341914 0)
(0.034544 0.0925311 0)
(-0.0222218 0.118133 0)
(-0.0884435 0.095834 0)
(-0.140113 0.0673703 0)
(-0.173246 0.0309191 0)
(-0.193451 0.00154943 0)
(-0.188789 -0.0206842 0)
(-0.172976 -0.0287538 0)
(-0.150957 -0.025853 0)
(-0.127557 -0.0234169 0)
(-0.107151 -0.0237536 0)
(-0.0709726 -0.0346753 0)
(-0.051326 -0.0268244 0)
(-0.0157331 -0.0120499 0)
(0.0152144 -0.0910354 0)
(0.023283 -0.0889906 0)
(0.0396372 -0.0948105 0)
(0.0713703 -0.0918274 0)
(0.0736225 -0.0883799 0)
(0.0722572 -0.0844296 0)
(0.0838935 -0.0751796 0)
(0.0890285 -0.0397378 0)
(0.0489816 0.0114692 0)
(-0.0401403 0.0552523 0)
(-0.119953 0.0838549 0)
(-0.15675 0.0710057 0)
(-0.182835 0.0495365 0)
(-0.19676 0.00758251 0)
(-0.191479 -0.0175532 0)
(-0.174184 -0.0284354 0)
(-0.147507 -0.032082 0)
(-0.118626 -0.0318696 0)
(-0.0953477 -0.0377183 0)
(-0.0732376 -0.0439423 0)
(-0.0680145 -0.0453012 0)
(-0.0229195 -0.0270705 0)
(0.00191312 -0.0914436 0)
(0.014145 -0.0869398 0)
(0.0152295 -0.0870731 0)
(0.0114834 -0.0773871 0)
(0.00829642 -0.0532191 0)
(0.0023657 -0.0309037 0)
(0.0127422 0.040012 0)
(0.0425206 0.11086 0)
(0.00767165 0.133884 0)
(-0.103993 0.123055 0)
(-0.179029 0.117645 0)
(-0.223825 0.0839393 0)
(-0.230717 0.0477254 0)
(-0.224447 0.0110254 0)
(-0.206408 -0.0274137 0)
(-0.177343 -0.0462908 0)
(-0.142296 -0.0496334 0)
(-0.104252 -0.0457097 0)
(-0.0796653 -0.0450608 0)
(-0.0727014 -0.0443949 0)
(-0.0763275 -0.0480641 0)
(-0.0450521 -0.0424764 0)
(-0.000872898 -0.0235451 0)
(0.00312428 -0.0175217 0)
(-0.00104229 -0.0169848 0)
(-0.0140643 -0.00472338 0)
(-0.045283 0.0029034 0)
(-0.0802139 -0.00162337 0)
(-0.131142 -0.0406257 0)
(-0.158182 -0.0576025 0)
(-0.116925 0.0304542 0)
(-0.213836 0.149295 0)
(-0.275145 0.131706 0)
(-0.288619 0.0887182 0)
(-0.282944 0.0339365 0)
(-0.275826 -0.0118863 0)
(-0.258625 -0.0404542 0)
(-0.213445 -0.0538736 0)
(-0.156159 -0.0610132 0)
(-0.101234 -0.0540463 0)
(-0.0753657 -0.044768 0)
(-0.0702291 -0.0410134 0)
(-0.0745679 -0.0493581 0)
(-0.061578 -0.0514988 0)
(0.00043444 -0.0371383 0)
(0.00308878 -0.0322082 0)
(0.00230013 -0.0281418 0)
(-0.00413749 -0.0120125 0)
(-0.0215641 0.01109 0)
(-0.0396935 0.0308537 0)
(-0.0670126 0.0844652 0)
(-0.142689 0.144265 0)
(-0.211641 0.186945 0)
(-0.317964 0.164083 0)
(-0.427231 0.129252 0)
(-0.401061 0.0958873 0)
(-0.363188 0.0583669 0)
(-0.326711 0.0118345 0)
(-0.306686 -0.040847 0)
(-0.260616 -0.075643 0)
(-0.189242 -0.0898184 0)
(-0.130919 -0.0759751 0)
(-0.0899796 -0.0548722 0)
(-0.0705165 -0.0461122 0)
(-0.059477 -0.0625457 0)
(-0.0567173 -0.0786638 0)
(0.00142526 -0.0534856 0)
(0.00566355 -0.0466447 0)
(0.00428415 -0.036769 0)
(-0.00849404 -0.0147424 0)
(-0.0290843 0.00111459 0)
(-0.0617775 0.00286578 0)
(-0.0968448 0.009629 0)
(-0.127113 0.0479372 0)
(-0.172739 0.157354 0)
(-0.264731 0.204718 0)
(-0.465952 0.101282 0)
(-0.486531 0.01861 0)
(-0.465906 -0.0196849 0)
(-0.42707 -0.0376281 0)
(-0.359373 -0.0684373 0)
(-0.270822 -0.110373 0)
(-0.216178 -0.137856 0)
(-0.184676 -0.119269 0)
(-0.135172 -0.0800008 0)
(-0.0647574 -0.0582161 0)
(-0.02783 -0.0764339 0)
(-0.0408073 -0.09134 0)
(0.00556044 -0.0360309 0)
(0.0141511 -0.0276233 0)
(0.0324023 -0.0160101 0)
(0.0461948 0.0218453 0)
(0.0322351 0.0731267 0)
(-0.00110953 0.106017 0)
(-0.0374404 0.157688 0)
(-0.0991595 0.205315 0)
(-0.144 0.253 0)
(-0.12619 0.315932 0)
(-0.176584 0.244088 0)
(-0.265757 0.135584 0)
(-0.312839 0.0286805 0)
(-0.299843 -0.0950932 0)
(-0.238678 -0.223094 0)
(-0.205129 -0.233146 0)
(-0.191955 -0.18068 0)
(-0.146975 -0.0801691 0)
(-0.0762807 0.0581365 0)
(-0.0253415 0.160174 0)
(0.0011835 0.243621 0)
(-0.0310574 0.244671 0)
(0.0103451 -0.062312 0)
(0.0268896 -0.0555706 0)
(0.0536558 -0.00987308 0)
(0.0450906 0.0251725 0)
(0.0315785 0.0682659 0)
(0.00166998 0.128904 0)
(-0.0166703 0.161289 0)
(-0.0298803 0.182539 0)
(-0.0279347 0.212671 0)
(0.000928868 0.249977 0)
(0.0731432 0.249349 0)
(0.117349 0.14201 0)
(0.134966 0.0241547 0)
(0.161004 -0.0595834 0)
(0.155283 -0.0902632 0)
(0.133407 -0.0744616 0)
(0.160594 -0.0853264 0)
(0.172092 -0.121284 0)
(0.201948 -0.127948 0)
(0.197724 -0.109371 0)
(0.198855 -0.103021 0)
(0.244483 -0.0696217 0)
(0.0097083 -0.0956604 0)
(0.0366886 -0.030415 0)
(0.0934404 0.00953417 0)
(0.106644 0.113148 0)
(0.0859603 0.167138 0)
(0.0154658 0.198661 0)
(-0.0347882 0.238534 0)
(-0.0663241 0.266101 0)
(-0.049464 0.272197 0)
(-0.011107 0.266168 0)
(0.0524921 0.236453 0)
(0.117769 0.148829 0)
(0.155102 0.0448954 0)
(0.169854 -0.0502342 0)
(0.176086 -0.122548 0)
(0.183323 -0.170029 0)
(0.23966 -0.185251 0)
(0.263024 -0.183882 0)
(0.31371 -0.157726 0)
(0.282667 -0.096215 0)
(0.202717 -0.020932 0)
(0.166859 -0.0328911 0)
(-0.00415773 -0.0599207 0)
(0.035258 -0.0937911 0)
(0.0922324 -0.0887764 0)
(0.0267223 0.0317002 0)
(-0.0192109 0.209423 0)
(-0.0738213 0.276361 0)
(-0.0989725 0.264345 0)
(-0.105342 0.229324 0)
(-0.0869471 0.211971 0)
(-0.0593034 0.190211 0)
(-0.0117884 0.145032 0)
(0.0395837 0.0986779 0)
(0.0715471 0.0282501 0)
(0.102166 -0.0509147 0)
(0.137607 -0.1039 0)
(0.152543 -0.164949 0)
(0.184989 -0.236693 0)
(0.157515 -0.325147 0)
(0.215154 -0.388558 0)
(0.204378 -0.37134 0)
(0.0834268 -0.212182 0)
(-0.175518 -0.0682258 0)
(-0.0282816 -0.02866 0)
(-0.0623291 -0.092751 0)
(-0.244565 0.0373933 0)
(-0.397737 0.181194 0)
(-0.438102 0.214976 0)
(-0.42229 0.239173 0)
(-0.319338 0.250094 0)
(-0.262975 0.259131 0)
(-0.212756 0.238393 0)
(-0.143281 0.229162 0)
(-0.0926912 0.174172 0)
(-0.0541247 0.0866634 0)
(-0.0316852 -0.0520726 0)
(-0.0333979 -0.201545 0)
(-0.0183237 -0.356047 0)
(0.00166515 -0.506597 0)
(0.0407369 -0.590904 0)
(0.0463115 -0.652973 0)
(0.0972875 -0.703044 0)
(-0.562826 -0.152521 0)
(-0.681523 0.15835 0)
(-0.747886 0.326981 0)
(-0.107157 -0.042955 0)
(-0.341419 -0.0191625 0)
(-0.52613 -0.0246961 0)
(-0.565535 -0.0965464 0)
(-0.583966 -0.143305 0)
(-0.554872 -0.204957 0)
(-0.488012 -0.203904 0)
(-0.435317 -0.135867 0)
(-0.395631 -0.141741 0)
(-0.332011 -0.154964 0)
(-0.300144 -0.258551 0)
(-0.291134 -0.393964 0)
(-0.264677 -0.471766 0)
(-0.219984 -0.576579 0)
(-0.259619 -0.815283 0)
(-0.506352 -1.18539 0)
(-0.557528 -0.176503 0)
(-0.662081 -0.321546 0)
(-0.914344 0.0608437 0)
(-0.933737 0.17343 0)
(-0.824437 0.154554 0)
(-0.779773 0.192528 0)
(-0.344382 -0.260382 0)
(-0.380063 -0.168035 0)
(-0.599704 -0.285805 0)
(-0.623722 -0.355078 0)
(-0.623068 -0.365664 0)
(-0.549603 -0.379641 0)
(-0.440705 -0.345555 0)
(-0.422684 -0.335474 0)
(-0.398718 -0.377541 0)
(-0.394966 -0.401568 0)
(-0.360829 -0.427151 0)
(-0.351735 -0.512814 0)
(-0.422956 -0.361607 0)
(-0.768603 -0.270156 0)
(-0.55339 -0.570198 0)
(-0.416088 -0.463605 0)
(-0.242747 -0.411937 0)
(-0.269639 -0.286646 0)
(-0.990154 0.0299724 0)
(-1.14601 0.0183586 0)
(-0.91079 0.0139089 0)
(-0.823768 0.0292936 0)
(-0.360812 -0.493341 0)
(-0.405321 -0.378917 0)
(-0.540786 -0.415333 0)
(-0.604924 -0.405283 0)
(-0.413434 -0.566184 0)
(-0.208656 -0.657478 0)
(-0.131041 -0.548553 0)
(-0.227261 -0.498663 0)
(-0.340367 -0.402664 0)
(-0.348397 -0.381884 0)
(-0.249174 -0.397336 0)
(-0.13345 -0.256785 0)
(0.00861199 -0.336205 0)
(0.0171654 -0.26959 0)
(-0.0677954 -0.163913 0)
(-0.214078 -0.0240739 0)
(-0.302554 -0.000164967 0)
(-0.400447 -0.00158997 0)
(-0.946055 0.09541 0)
(-1.27452 0.00114243 0)
(-1.00838 -0.0259207 0)
(-0.855751 -0.0129951 0)
(-0.110041 0.108258 0)
(-0.105831 0.237001 0)
(0.0445433 0.340951 0)
(0.0457486 0.284348 0)
(0.218689 0.330556 0)
(0.0652185 0.210254 0)
(0.129868 0.322716 0)
(-0.0499813 0.575864 0)
(-0.205824 0.399535 0)
(-0.129972 0.409767 0)
(-0.213257 0.440539 0)
(-0.29374 0.351111 0)
(-0.248802 0.0622926 0)
(-0.296962 -0.00617048 0)
(-0.363157 -0.0164265 0)
(-0.396931 -0.101424 0)
(-0.4114 -0.122625 0)
(-0.478056 -0.0779247 0)
(-0.845708 0.161589 0)
(-1.10008 0.211783 0)
(-1.0608 0.125678 0)
(-0.91387 0.0500085 0)
(-0.874585 0.0689265 0)
(-0.0402858 0.45464 0)
(0.0503209 0.491935 0)
(0.0630671 0.345248 0)
(0.00366285 0.0980418 0)
(0.0210574 -0.379624 0)
(0.0554737 -0.381495 0)
(-0.0657582 -0.339186 0)
(0.107049 0.0842224 0)
(-0.0440356 0.29416 0)
(-0.0459291 0.272708 0)
(-0.131056 0.169356 0)
(-0.0135636 -0.150172 0)
(-0.020586 -0.299955 0)
(-0.109676 -0.2464 0)
(-0.0929411 -0.184212 0)
(-0.130098 -0.103101 0)
(-0.227052 0.000307143 0)
(-0.372454 0.124782 0)
(-0.610356 0.268348 0)
(-0.777098 0.567714 0)
(-0.92398 0.89153 0)
(-1.19682 1.05534 0)
(-1.3317 1.40026 0)
(-0.0817291 0.497482 0)
(0.0633725 0.416795 0)
(0.0908128 0.302286 0)
(0.213589 0.157883 0)
(0.183415 0.12963 0)
(0.0774396 0.10759 0)
(-0.0857538 0.129707 0)
(-0.0405162 0.300582 0)
(-0.0396576 0.37506 0)
(0.0387538 0.334486 0)
(0.0527385 0.224427 0)
(0.141744 0.200079 0)
(-0.000668427 0.168054 0)
(-0.127307 0.0960569 0)
(-0.202782 0.091176 0)
(-0.291467 0.0996016 0)
(-0.359305 0.172137 0)
(-0.431328 0.309962 0)
(-0.545181 0.514006 0)
(-0.700352 0.74984 0)
(-0.841582 1.09286 0)
(-1.04939 1.32981 0)
(-1.14317 1.47438 0)
(-0.056776 0.511871 0)
(0.0734255 0.362285 0)
(0.0680176 0.246958 0)
(0.105514 0.101961 0)
(0.0363922 -0.057538 0)
(0.0345349 -0.059586 0)
(-0.0218921 -0.0942493 0)
(-0.00721925 0.184178 0)
(0.0181085 0.342292 0)
(0.0713673 0.29024 0)
(0.0547871 0.142584 0)
(0.0217561 -0.00529679 0)
(-0.00854691 -0.0221367 0)
(-0.0574155 -0.0553224 0)
(-0.125365 -0.0291578 0)
(-0.190777 0.0444753 0)
(-0.267697 0.156718 0)
(-0.341528 0.323136 0)
(-0.401763 0.572777 0)
(-0.447467 0.869441 0)
(-0.505728 1.18391 0)
(-0.515627 1.38945 0)
(-0.456329 1.45564 0)
(0.0137158 0.486209 0)
(0.0915953 0.328041 0)
(0.0982031 0.224034 0)
(0.124388 0.142982 0)
(0.0839852 0.120342 0)
(0.041297 0.119859 0)
(-0.0506927 0.114974 0)
(-0.0791417 0.165026 0)
(-0.00315432 0.253856 0)
(0.0754962 0.24907 0)
(0.0742485 0.208638 0)
(0.0329863 0.192872 0)
(-0.0351956 0.193498 0)
(-0.0971705 0.190825 0)
(-0.170183 0.19802 0)
(-0.22592 0.220202 0)
(-0.268463 0.276948 0)
(-0.290043 0.395585 0)
(-0.280949 0.58208 0)
(-0.223894 0.826423 0)
(-0.115499 1.10913 0)
(0.0434604 1.2919 0)
(0.214497 1.29311 0)
(0.0529856 0.391553 0)
(0.0907366 0.296132 0)
(0.102505 0.212806 0)
(0.100264 0.153164 0)
(0.0610212 0.1172 0)
(0.0270791 0.115475 0)
(-0.0193122 0.104047 0)
(-0.0584418 0.154641 0)
(-0.0348597 0.192878 0)
(0.00564369 0.223009 0)
(0.00975054 0.215006 0)
(-0.0314892 0.17976 0)
(-0.0692855 0.160649 0)
(-0.10354 0.141388 0)
(-0.140364 0.155446 0)
(-0.171922 0.201702 0)
(-0.209773 0.275397 0)
(-0.231204 0.388667 0)
(-0.208231 0.548347 0)
(-0.126833 0.727303 0)
(0.026047 0.914781 0)
(0.231936 1.04025 0)
(0.4445 1.0437 0)
(0.0413699 0.323176 0)
(0.0672974 0.267309 0)
(0.0877559 0.208607 0)
(0.0703131 0.174167 0)
(0.0447674 0.157946 0)
(0.0217996 0.155585 0)
(-0.00825588 0.153911 0)
(-0.0317942 0.171816 0)
(-0.0364422 0.187623 0)
(-0.0298222 0.21382 0)
(-0.0265079 0.226651 0)
(-0.0395417 0.220121 0)
(-0.0625281 0.214251 0)
(-0.0901298 0.210695 0)
(-0.124442 0.219374 0)
(-0.149904 0.245571 0)
(-0.161078 0.302953 0)
(-0.159909 0.380828 0)
(-0.133768 0.487222 0)
(-0.0662597 0.614507 0)
(0.0570355 0.74064 0)
(0.229503 0.817017 0)
(0.42582 0.822599 0)
(0.0234375 0.283245 0)
(0.0439564 0.247684 0)
(0.0552989 0.210611 0)
(0.04521 0.190217 0)
(0.0311472 0.178334 0)
(0.0167531 0.17549 0)
(-0.000650696 0.174423 0)
(-0.0139266 0.184592 0)
(-0.0237016 0.192438 0)
(-0.0275495 0.214201 0)
(-0.0235586 0.230178 0)
(-0.0252698 0.236955 0)
(-0.0331607 0.236519 0)
(-0.0489738 0.235906 0)
(-0.0690992 0.24338 0)
(-0.0866372 0.264267 0)
(-0.0975908 0.306142 0)
(-0.0907011 0.367146 0)
(-0.0644468 0.440782 0)
(-0.0114175 0.520053 0)
(0.0816364 0.604093 0)
(0.207681 0.657195 0)
(0.355961 0.66398 0)
(0.0129361 0.25988 0)
(0.0271403 0.234645 0)
(0.0345479 0.212364 0)
(0.0300407 0.199095 0)
(0.0225954 0.18982 0)
(0.0143915 0.1863 0)
(0.00442674 0.185672 0)
(-0.00282072 0.192695 0)
(-0.00850067 0.199832 0)
(-0.0124819 0.214965 0)
(-0.00975611 0.228527 0)
(-0.0077633 0.235399 0)
(-0.00808092 0.237273 0)
(-0.0133272 0.241314 0)
(-0.0213602 0.250657 0)
(-0.0277266 0.26992 0)
(-0.0326584 0.303408 0)
(-0.0262879 0.350523 0)
(-0.00388239 0.407773 0)
(0.0388968 0.460956 0)
(0.105116 0.50838 0)
(0.198372 0.539227 0)
(0.304094 0.543732 0)
(0.00744889 0.245132 0)
(0.0171155 0.224757 0)
(0.0229982 0.211403 0)
(0.0223531 0.202706 0)
(0.018909 0.196084 0)
(0.0142182 0.192939 0)
(0.00796774 0.192614 0)
(0.00328814 0.197417 0)
(-0.00048676 0.203367 0)
(-0.00235084 0.214819 0)
(0.00117089 0.224809 0)
(0.00508163 0.231549 0)
(0.00756565 0.236956 0)
(0.00732683 0.245679 0)
(0.00558605 0.255973 0)
(0.00405766 0.273826 0)
)
;

boundaryField
{
    leftWall
    {
        type            fixedValue;
        value           uniform (0 0 0);
    }
    rightWall
    {
        type            fixedValue;
        value           nonuniform 0();
    }
    lowerWall
    {
        type            fixedValue;
        value           uniform (0 0 0);
    }
    atmosphere
    {
        type            fluxCorrectedVelocity;
        value           nonuniform 0();
    }
    defaultFaces
    {
        type            empty;
    }
    procBoundary0to1
    {
        type            processor;
        value           nonuniform List<vector> 
26
(
(-0.0346526 0.00117004 0)
(-0.0147171 -0.0179953 0)
(-8.82409e-05 -0.0192987 0)
(-0.00273862 -0.0244774 0)
(-0.00331369 -0.0330569 0)
(-0.0128654 -0.0474047 0)
(-0.0156183 -0.0689379 0)
(-0.0113595 -0.0752558 0)
(-0.100711 0.104255 0)
(0.290432 0.00045605 0)
(0.159949 -0.135731 0)
(-0.562489 0.131172 0)
(-0.839921 0.411013 0)
(-0.78517 0.281221 0)
(-0.816322 0.0863793 0)
(-0.826921 0.0260645 0)
(-0.826921 0.0260645 0)
(-1.09059 0.579195 0)
(-1.34462 1.7145 0)
(-0.972716 1.56394 0)
(-0.246081 1.3515 0)
(0.351474 1.15499 0)
(0.567848 0.906065 0)
(0.548764 0.722585 0)
(0.456479 0.596097 0)
(0.377161 0.499598 0)
)
;
    }
    procBoundary0to2
    {
        type            processor;
        value           nonuniform List<vector> 
24
(
(0.00410763 0.302226 0)
(0.0152499 0.338378 0)
(0.038726 0.378882 0)
(0.0761209 0.418132 0)
(0.125419 0.444619 0)
(0.192435 0.457642 0)
(0.270343 0.456432 0)
(0.00455334 0.23585 0)
(0.0119129 0.217437 0)
(0.0172153 0.208806 0)
(0.0177162 0.203102 0)
(0.0162849 0.19899 0)
(0.0128792 0.197051 0)
(0.00850453 0.197424 0)
(0.0050837 0.201137 0)
(0.00234072 0.206055 0)
(0.00204432 0.2138 0)
(0.00474437 0.221338 0)
(0.00886998 0.228335 0)
(0.0114859 0.235295 0)
(0.0139429 0.244487 0)
(0.0152754 0.256138 0)
(0.00410763 0.302226 0)
(0.0178857 0.274549 0)
)
;
    }
}


// ************************************************************************* //
