/*--------------------------------*- C++ -*----------------------------------*\
| =========                 |                                                 |
| \\      /  F ield         | OpenFOAM: The Open Source CFD Toolbox           |
|  \\    /   O peration     | Version:  2.4.0                                 |
|   \\  /    A nd           | Web:      www.OpenFOAM.org                      |
|    \\/     M anipulation  |                                                 |
\*---------------------------------------------------------------------------*/
FoamFile
{
    version     2.0;
    format      ascii;
    class       volVectorField;
    location    "0.75";
    object      U.water;
}
// * * * * * * * * * * * * * * * * * * * * * * * * * * * * * * * * * * * * * //

dimensions      [0 1 -1 0 0 0 0];

internalField   nonuniform List<vector> 
575
(
(0.0105956 -0.00804561 0)
(0.0292565 -0.00806343 0)
(0.0531066 -0.00927273 0)
(0.0592657 -0.0106737 0)
(0.0757097 -0.0119406 0)
(0.0915808 -0.0135785 0)
(0.0854828 -0.00651576 0)
(0.0677665 0.0134169 0)
(0.0265459 0.0312351 0)
(-0.0236777 0.0447222 0)
(-0.0781283 0.0499941 0)
(-0.126523 0.0383905 0)
(-0.173729 0.0166213 0)
(-0.193532 0.00243864 0)
(-0.186466 -0.00755571 0)
(-0.167043 -0.0107079 0)
(-0.146712 -0.00813082 0)
(-0.13055 -0.00759929 0)
(-0.112419 -0.00434207 0)
(-0.0916314 -0.0101597 0)
(-0.0548633 -0.00365395 0)
(-0.0435133 0.000490497 0)
(0.0126307 0.0960197 0)
(0.0266345 0.0990697 0)
(0.0507353 0.0858622 0)
(0.0629342 0.0848452 0)
(0.0780516 0.0808526 0)
(0.0926632 0.0687761 0)
(0.0961992 0.0565516 0)
(0.0817098 0.0379694 0)
(0.0474238 0.0160414 0)
(-0.0142446 0.00794844 0)
(-0.0862195 0.00493867 0)
(-0.145024 0.0130435 0)
(-0.185129 0.0164506 0)
(-0.196871 0.00378176 0)
(-0.187542 -0.00544628 0)
(-0.166413 -0.0088805 0)
(-0.144612 -0.00937842 0)
(-0.127161 -0.00934138 0)
(-0.109103 -0.0125685 0)
(-0.0812848 -0.0171044 0)
(-0.0545308 -0.0186456 0)
(-0.0309402 -0.00925809 0)
(0.0141524 0.107214 0)
(0.0245302 0.1052 0)
(0.0442905 0.116171 0)
(0.068278 0.118714 0)
(0.0717234 0.122057 0)
(0.068901 0.142545 0)
(0.0551257 0.173644 0)
(0.043944 0.165256 0)
(0.0276011 0.156085 0)
(-0.02466 0.153433 0)
(-0.0892798 0.115347 0)
(-0.140418 0.0706836 0)
(-0.173389 0.0317894 0)
(-0.193529 0.00215064 0)
(-0.188819 -0.0202678 0)
(-0.172982 -0.0284698 0)
(-0.150957 -0.0256606 0)
(-0.127555 -0.0232613 0)
(-0.10715 -0.0235813 0)
(-0.0709724 -0.034556 0)
(-0.0513234 -0.0273662 0)
(-0.015668 -0.0158695 0)
(0.0148006 0.0800534 0)
(0.0224682 0.0830052 0)
(0.0377832 0.0760922 0)
(0.0676669 0.0808071 0)
(0.066918 0.0864592 0)
(0.0605811 0.0936665 0)
(0.0703018 0.110031 0)
(0.0679086 0.142331 0)
(-0.0079625 0.186739 0)
(-0.111125 0.237259 0)
(-0.160472 0.18075 0)
(-0.165627 0.101082 0)
(-0.183727 0.0578071 0)
(-0.196898 0.0116202 0)
(-0.191525 -0.0141375 0)
(-0.174195 -0.0264198 0)
(-0.147502 -0.0312363 0)
(-0.118617 -0.0313382 0)
(-0.0953412 -0.0372185 0)
(-0.0732357 -0.0437726 0)
(-0.0680041 -0.0465721 0)
(-0.0228143 -0.0311031 0)
(0.00191191 -0.091437 0)
(0.0141441 -0.086933 0)
(0.0152286 -0.0870661 0)
(0.011483 -0.07738 0)
(0.0082974 -0.0532118 0)
(0.00236787 -0.030897 0)
(0.0117722 0.0430265 0)
(0.0297684 0.184071 0)
(-0.0434611 0.337705 0)
(-0.190242 0.309835 0)
(-0.263075 0.27856 0)
(-0.276081 0.227535 0)
(-0.241292 0.0887326 0)
(-0.226357 0.0305377 0)
(-0.20662 -0.0169931 0)
(-0.177375 -0.0410459 0)
(-0.142248 -0.0443471 0)
(-0.104221 -0.0401608 0)
(-0.0796555 -0.0406674 0)
(-0.0727031 -0.0403589 0)
(-0.0763037 -0.038371 0)
(-0.0448589 -0.031946 0)
(-0.000873204 -0.0235381 0)
(0.00312352 -0.0175146 0)
(-0.00104303 -0.0169776 0)
(-0.0140644 -0.00471614 0)
(-0.0452819 0.00291033 0)
(-0.0802118 -0.00161815 0)
(-0.131139 -0.0406201 0)
(-0.158194 -0.0575865 0)
(-0.121756 0.0408716 0)
(-0.256882 0.283286 0)
(-0.352245 0.29316 0)
(-0.350548 0.23251 0)
(-0.305339 0.161556 0)
(-0.281591 0.0342857 0)
(-0.259867 -0.00772836 0)
(-0.213459 -0.0204569 0)
(-0.156153 -0.0217418 0)
(-0.101136 -0.011416 0)
(-0.0752146 -0.00406552 0)
(-0.0701676 0.000224203 0)
(-0.0746303 0.0134802 0)
(-0.0628627 0.0236514 0)
(0.000434133 -0.0371299 0)
(0.00308809 -0.0321996 0)
(0.00229947 -0.028133 0)
(-0.00413764 -0.0120035 0)
(-0.0215631 0.0110928 0)
(-0.0396916 0.0308184 0)
(-0.0670098 0.0844705 0)
(-0.142686 0.14427 0)
(-0.208338 0.190408 0)
(-0.274796 0.2486 0)
(-0.492843 0.290499 0)
(-0.460331 0.248117 0)
(-0.388742 0.213919 0)
(-0.332907 0.112287 0)
(-0.313052 0.0727901 0)
(-0.256528 0.0731534 0)
(-0.182302 0.0660703 0)
(-0.127158 0.0886393 0)
(-0.0882385 0.112749 0)
(-0.0687622 0.121718 0)
(-0.0590499 0.107515 0)
(-0.0634183 0.0904687 0)
(0.0014251 -0.0534765 0)
(0.00566314 -0.0466417 0)
(0.00428371 -0.0367993 0)
(-0.00849388 -0.0147752 0)
(-0.0290777 0.00106074 0)
(-0.0617758 0.00231277 0)
(-0.0968367 0.00892675 0)
(-0.12711 0.0473007 0)
(-0.172081 0.157655 0)
(-0.21453 0.27694 0)
(-0.464493 0.270063 0)
(-0.522555 0.172637 0)
(-0.489847 0.14064 0)
(-0.433572 0.119049 0)
(-0.359972 0.0777514 0)
(-0.263758 0.0319964 0)
(-0.203828 0.00533619 0)
(-0.174096 0.0202276 0)
(-0.130805 0.0511622 0)
(-0.0630668 0.0712118 0)
(-0.0282312 0.062015 0)
(-0.0508885 0.0482912 0)
(0.00556006 -0.0360248 0)
(0.0141426 -0.0278444 0)
(0.0323957 -0.0191682 0)
(0.0462008 0.0186676 0)
(0.0323068 0.069982 0)
(-0.00102164 0.10048 0)
(-0.0373231 0.15155 0)
(-0.0991655 0.199582 0)
(-0.144021 0.248679 0)
(-0.109301 0.338649 0)
(-0.100144 0.380299 0)
(-0.216548 0.314306 0)
(-0.310802 0.183334 0)
(-0.298292 0.0493755 0)
(-0.227625 -0.0711433 0)
(-0.189497 -0.0799718 0)
(-0.18433 -0.0397635 0)
(-0.161449 0.00868469 0)
(-0.102424 0.0267344 0)
(-0.037481 0.0510922 0)
(0.00719516 0.120928 0)
(-0.0154245 0.120366 0)
(0.0103345 -0.0623716 0)
(0.026502 -0.0612346 0)
(0.0460936 -0.0566151 0)
(0.0444635 -0.0163019 0)
(0.0323011 0.035426 0)
(0.00513974 0.0538251 0)
(-0.0152851 0.089031 0)
(-0.0344195 0.136054 0)
(-0.0360012 0.186229 0)
(-0.00784528 0.235704 0)
(0.0777585 0.261976 0)
(0.153949 0.197737 0)
(0.180788 0.0882101 0)
(0.184311 -0.012917 0)
(0.162537 -0.0536217 0)
(0.135559 -0.0635801 0)
(0.150323 -0.0956413 0)
(0.164862 -0.158725 0)
(0.202444 -0.188897 0)
(0.21101 -0.182208 0)
(0.21517 -0.172184 0)
(0.252118 -0.135551 0)
(0.00917491 -0.0990131 0)
(0.0299304 -0.0912479 0)
(0.0842624 -0.0674915 0)
(0.103488 0.0260343 0)
(0.0858662 0.0827872 0)
(0.0155968 0.115312 0)
(-0.0348036 0.154357 0)
(-0.0630661 0.181951 0)
(-0.0513435 0.192943 0)
(-0.019535 0.19546 0)
(0.0364984 0.176809 0)
(0.106342 0.11374 0)
(0.147675 0.0227231 0)
(0.178652 -0.0819242 0)
(0.191246 -0.178592 0)
(0.193 -0.236711 0)
(0.242821 -0.255173 0)
(0.264692 -0.25636 0)
(0.312781 -0.243651 0)
(0.299872 -0.198839 0)
(0.239588 -0.139482 0)
(0.194298 -0.136482 0)
(-0.00669758 -0.0971809 0)
(0.0249215 -0.156201 0)
(0.0837083 -0.174774 0)
(0.0231583 -0.0634959 0)
(-0.016156 0.113377 0)
(-0.0714814 0.178688 0)
(-0.0990376 0.178102 0)
(-0.103164 0.153184 0)
(-0.0867178 0.141045 0)
(-0.0625711 0.122143 0)
(-0.0234511 0.0823081 0)
(0.0217553 0.0377037 0)
(0.0654554 -0.0255812 0)
(0.110792 -0.0899961 0)
(0.145867 -0.140818 0)
(0.154616 -0.214488 0)
(0.197013 -0.273486 0)
(0.169995 -0.353724 0)
(0.225921 -0.418447 0)
(0.21559 -0.452446 0)
(0.144867 -0.347021 0)
(-0.0916609 -0.190583 0)
(-0.0198779 -0.0814381 0)
(-0.0730776 -0.185356 0)
(-0.300798 -0.0836669 0)
(-0.347903 0.0546712 0)
(-0.377413 0.103765 0)
(-0.36317 0.134222 0)
(-0.281616 0.148815 0)
(-0.237213 0.15705 0)
(-0.197113 0.141399 0)
(-0.14091 0.135207 0)
(-0.10095 0.085347 0)
(-0.0693759 0.00673854 0)
(-0.0409282 -0.114288 0)
(-0.0294891 -0.246636 0)
(-0.0138498 -0.419829 0)
(0.00846903 -0.606859 0)
(0.0579254 -0.699492 0)
(0.0584738 -0.823704 0)
(0.121042 -0.970483 0)
(-0.40539 -0.337479 0)
(-0.597612 -0.0102818 0)
(-0.623982 0.17844 0)
(-0.0563485 -0.100611 0)
(-0.278186 -0.148362 0)
(-0.506289 -0.234289 0)
(-0.478877 -0.1689 0)
(-0.496853 -0.179642 0)
(-0.473525 -0.188642 0)
(-0.38296 -0.152965 0)
(-0.347106 -0.121069 0)
(-0.312154 -0.147174 0)
(-0.259164 -0.141188 0)
(-0.224815 -0.221237 0)
(-0.188827 -0.300699 0)
(-0.286137 -0.736184 0)
(-0.211397 -0.786902 0)
(-0.201559 -0.74879 0)
(-0.384493 0.175019 0)
(-0.696772 -0.116685 0)
(-0.777958 -0.291412 0)
(-0.741754 -0.196582 0)
(-0.789245 0.0822953 0)
(-0.716187 0.0711761 0)
(-0.690033 0.110913 0)
(-0.0429722 -0.312285 0)
(-0.157396 -0.59508 0)
(-0.453492 -0.579637 0)
(-0.548534 -0.244379 0)
(-0.536468 -0.254054 0)
(-0.468098 -0.194057 0)
(-0.383179 -0.155628 0)
(-0.351509 -0.229229 0)
(-0.332983 -0.266974 0)
(-0.312484 -0.253802 0)
(-0.29516 -0.247869 0)
(-0.429369 0.0231623 0)
(-0.954254 0.217487 0)
(-1.00774 -0.171809 0)
(-0.735353 -0.511163 0)
(-0.413678 -0.464047 0)
(-0.242076 -0.410812 0)
(-0.269416 -0.282807 0)
(-0.40158 0.135835 0)
(-0.779636 0.119581 0)
(-0.762004 -0.0455126 0)
(-0.668833 -0.0406659 0)
(-0.0196065 -0.538394 0)
(-0.123799 -0.471871 0)
(-0.319381 0.0758412 0)
(-0.502953 -0.0511062 0)
(-0.291085 -0.580094 0)
(-0.186376 -0.685903 0)
(0.0256686 -0.607726 0)
(0.00746201 -0.534102 0)
(-0.106254 -0.0219899 0)
(-0.233779 -0.0396296 0)
(-0.19075 -0.240774 0)
(-0.140761 -0.248583 0)
(0.00956182 -0.334779 0)
(0.0180933 -0.267926 0)
(-0.0661419 -0.161041 0)
(-0.214381 -0.021375 0)
(-0.302881 0.00194062 0)
(-0.395049 0.00452033 0)
(-0.463105 0.230449 0)
(-0.578446 0.511857 0)
(-0.785173 0.20561 0)
(-0.789072 0.0786791 0)
(0.0041146 0.243174 0)
(0.0164102 0.512566 0)
(0.0485845 0.350396 0)
(0.0471044 0.290784 0)
(0.218886 0.334845 0)
(0.0648398 0.210774 0)
(0.129911 0.325336 0)
(-0.0499456 0.579644 0)
(-0.204903 0.408261 0)
(-0.129642 0.414159 0)
(-0.213264 0.444287 0)
(-0.293763 0.352945 0)
(-0.249145 0.0629997 0)
(-0.299121 -0.00417341 0)
(-0.365875 -0.0128134 0)
(-0.397422 -0.0967085 0)
(-0.410376 -0.119 0)
(-0.467355 -0.074857 0)
(-0.544574 0.156193 0)
(-0.570933 0.530819 0)
(-0.621494 0.6116 0)
(-0.996539 0.720159 0)
(-1.49738 1.39849 0)
(-0.0381232 0.462667 0)
(0.0534661 0.501287 0)
(0.0638307 0.347563 0)
(0.00315476 0.098763 0)
(0.0208675 -0.379326 0)
(0.0554537 -0.381325 0)
(-0.0657414 -0.339065 0)
(0.107044 0.0846766 0)
(-0.0437614 0.294402 0)
(-0.0458683 0.272849 0)
(-0.130995 0.169507 0)
(-0.0135744 -0.149855 0)
(-0.0205567 -0.299114 0)
(-0.110275 -0.241953 0)
(-0.0936193 -0.177384 0)
(-0.131568 -0.0947293 0)
(-0.228526 0.00722874 0)
(-0.367482 0.129268 0)
(-0.574465 0.26886 0)
(-0.711687 0.603521 0)
(-0.847717 0.924082 0)
(-1.16646 1.12919 0)
(-1.40663 1.70839 0)
(-0.081681 0.499684 0)
(0.0636499 0.417605 0)
(0.0911521 0.303103 0)
(0.214074 0.158643 0)
(0.183402 0.129818 0)
(0.0774325 0.107619 0)
(-0.0857705 0.13002 0)
(-0.0405788 0.301115 0)
(-0.0396715 0.375631 0)
(0.0387774 0.334778 0)
(0.0527703 0.224814 0)
(0.141724 0.200442 0)
(-0.000890009 0.168765 0)
(-0.128181 0.0990157 0)
(-0.203844 0.0955602 0)
(-0.292002 0.104173 0)
(-0.359314 0.174804 0)
(-0.430436 0.312204 0)
(-0.542063 0.515276 0)
(-0.6894 0.751101 0)
(-0.810798 1.1018 0)
(-1.01934 1.34764 0)
(-1.11034 1.54553 0)
(-0.056774 0.511895 0)
(0.0733963 0.361864 0)
(0.067989 0.246725 0)
(0.105462 0.101974 0)
(0.0363935 -0.0575161 0)
(0.0345349 -0.0595834 0)
(-0.0218671 -0.0941404 0)
(-0.00706278 0.184598 0)
(0.018184 0.342757 0)
(0.0713706 0.290687 0)
(0.0547135 0.143371 0)
(0.0216919 -0.00459266 0)
(-0.00862593 -0.0212434 0)
(-0.0575565 -0.052982 0)
(-0.125675 -0.0252987 0)
(-0.190748 0.0467662 0)
(-0.267049 0.157815 0)
(-0.341177 0.324567 0)
(-0.400943 0.573924 0)
(-0.443813 0.872983 0)
(-0.492015 1.19688 0)
(-0.502483 1.39163 0)
(-0.414651 1.46005 0)
(0.0136825 0.484863 0)
(0.0915225 0.327027 0)
(0.0981598 0.22351 0)
(0.12435 0.14283 0)
(0.0839858 0.120329 0)
(0.041297 0.119859 0)
(-0.0506923 0.11505 0)
(-0.0791803 0.165347 0)
(-0.00314722 0.254198 0)
(0.075532 0.249936 0)
(0.0743048 0.209663 0)
(0.0329836 0.193716 0)
(-0.0352316 0.194204 0)
(-0.097198 0.191786 0)
(-0.170255 0.199405 0)
(-0.225952 0.221114 0)
(-0.268482 0.277743 0)
(-0.289981 0.396535 0)
(-0.280635 0.583441 0)
(-0.221647 0.829316 0)
(-0.106722 1.11423 0)
(0.0529965 1.29571 0)
(0.227315 1.29408 0)
(0.0529364 0.390066 0)
(0.0906767 0.29524 0)
(0.102475 0.21241 0)
(0.100265 0.153092 0)
(0.0610213 0.117197 0)
(0.0270791 0.115475 0)
(-0.0193103 0.104062 0)
(-0.0584352 0.154751 0)
(-0.0348556 0.193082 0)
(0.00566023 0.223687 0)
(0.00969276 0.215757 0)
(-0.0315202 0.180181 0)
(-0.0693021 0.161127 0)
(-0.103547 0.142027 0)
(-0.14037 0.156307 0)
(-0.171931 0.202844 0)
(-0.20975 0.276066 0)
(-0.231137 0.389246 0)
(-0.207994 0.54917 0)
(-0.125819 0.728549 0)
(0.0293771 0.917098 0)
(0.238227 1.04333 0)
(0.454384 1.04362 0)
(0.0413529 0.32212 0)
(0.0672779 0.266779 0)
(0.0877548 0.208462 0)
(0.0703132 0.174155 0)
(0.0447674 0.157945 0)
(0.0217996 0.155585 0)
(-0.00825585 0.153914 0)
(-0.0317936 0.171842 0)
(-0.0364407 0.187702 0)
(-0.0298223 0.214063 0)
(-0.0265185 0.226954 0)
(-0.039542 0.220296 0)
(-0.062531 0.214672 0)
(-0.0901201 0.211619 0)
(-0.12439 0.220927 0)
(-0.149839 0.247473 0)
(-0.16102 0.303713 0)
(-0.159832 0.381393 0)
(-0.13361 0.487744 0)
(-0.0658604 0.615112 0)
(0.0577282 0.741158 0)
(0.231517 0.817156 0)
(0.428967 0.821812 0)
(0.0234402 0.282794 0)
(0.0439568 0.247526 0)
(0.0552991 0.210592 0)
(0.04521 0.190217 0)
(0.0311472 0.178334 0)
(0.0167531 0.17549 0)
(-0.000650689 0.174424 0)
(-0.0139266 0.184595 0)
(-0.0237013 0.192452 0)
(-0.0275492 0.214242 0)
(-0.0235582 0.230234 0)
(-0.0252691 0.237041 0)
(-0.0331541 0.236845 0)
(-0.0489439 0.237041 0)
(-0.0690271 0.245718 0)
(-0.086509 0.266703 0)
(-0.0975015 0.307364 0)
(-0.0906174 0.367694 0)
(-0.0643452 0.441188 0)
(-0.0112343 0.520447 0)
(0.0817928 0.604054 0)
(0.208165 0.657421 0)
(0.35656 0.66395 0)
(0.0129368 0.259785 0)
(0.0271403 0.234627 0)
(0.0345479 0.212363 0)
(0.0300407 0.199095 0)
(0.0225954 0.18982 0)
(0.0143915 0.1863 0)
(0.00442675 0.185672 0)
(-0.0028207 0.192696 0)
(-0.00850063 0.199834 0)
(-0.0124818 0.21497 0)
(-0.00975595 0.228534 0)
(-0.00776214 0.235444 0)
(-0.00807264 0.237508 0)
(-0.0132827 0.242344 0)
(-0.0212348 0.252978 0)
(-0.0275477 0.272313 0)
(-0.0325087 0.304849 0)
(-0.026182 0.351215 0)
(-0.00380354 0.40813 0)
(0.0389768 0.461205 0)
(0.10521 0.508547 0)
(0.198479 0.539382 0)
(0.304209 0.543832 0)
(0.00744889 0.245127 0)
(0.0171155 0.224756 0)
(0.0229982 0.211403 0)
(0.0223531 0.202706 0)
(0.018909 0.196084 0)
(0.0142182 0.192939 0)
(0.00796774 0.192615 0)
(0.00328815 0.197418 0)
(-0.000486713 0.203368 0)
(-0.00235074 0.214822 0)
(0.00117104 0.224813 0)
(0.00508235 0.231569 0)
(0.00757351 0.237127 0)
(0.00737587 0.246503 0)
(0.00571522 0.257616 0)
(0.00425308 0.275855 0)
)
;

boundaryField
{
    leftWall
    {
        type            fixedValue;
        value           uniform (0 0 0);
    }
    rightWall
    {
        type            fixedValue;
        value           nonuniform 0();
    }
    lowerWall
    {
        type            fixedValue;
        value           uniform (0 0 0);
    }
    atmosphere
    {
        type            fluxCorrectedVelocity;
        value           nonuniform 0();
    }
    defaultFaces
    {
        type            empty;
    }
    procBoundary0to1
    {
        type            processor;
        value           nonuniform List<vector> 
26
(
(-0.0346139 -0.00902502 0)
(-0.0146592 -0.0294395 0)
(-2.54654e-05 -0.0310612 0)
(-0.00264476 -0.0362026 0)
(-0.00314593 -0.0389973 0)
(-0.0137328 -0.0120466 0)
(-0.0219417 0.08278 0)
(-0.0207056 0.0284523 0)
(-0.0790615 0.0231232 0)
(0.300244 -0.0772633 0)
(0.188172 -0.225806 0)
(-0.471328 -0.00590274 0)
(-0.740428 0.297403 0)
(-0.696444 0.189335 0)
(-0.64396 -0.00121942 0)
(-0.734153 0.0720402 0)
(-0.734153 0.0720402 0)
(-1.64302 1.90057 0)
(-1.39655 1.95021 0)
(-0.889755 1.62014 0)
(-0.214311 1.36347 0)
(0.36153 1.15569 0)
(0.577874 0.903462 0)
(0.551978 0.721982 0)
(0.457066 0.596237 0)
(0.377278 0.49968 0)
)
;
    }
    procBoundary0to2
    {
        type            processor;
        value           nonuniform List<vector> 
24
(
(0.00427587 0.303561 0)
(0.0153801 0.33913 0)
(0.0388088 0.379232 0)
(0.0761721 0.418309 0)
(0.125468 0.444735 0)
(0.192479 0.45772 0)
(0.270375 0.456499 0)
(0.00455334 0.23585 0)
(0.0119129 0.217437 0)
(0.0172153 0.208806 0)
(0.0177162 0.203102 0)
(0.0162849 0.19899 0)
(0.0128792 0.197051 0)
(0.00850453 0.197424 0)
(0.00508371 0.201138 0)
(0.00234076 0.206056 0)
(0.0020444 0.213802 0)
(0.0047445 0.221341 0)
(0.00887044 0.228344 0)
(0.0114934 0.235424 0)
(0.0139744 0.244995 0)
(0.0153644 0.257163 0)
(0.00427587 0.303561 0)
(0.0179863 0.275657 0)
)
;
    }
}


// ************************************************************************* //
