/*--------------------------------*- C++ -*----------------------------------*\
| =========                 |                                                 |
| \\      /  F ield         | OpenFOAM: The Open Source CFD Toolbox           |
|  \\    /   O peration     | Version:  2.4.0                                 |
|   \\  /    A nd           | Web:      www.OpenFOAM.org                      |
|    \\/     M anipulation  |                                                 |
\*---------------------------------------------------------------------------*/
FoamFile
{
    version     2.0;
    format      ascii;
    class       volScalarField;
    location    "0.3";
    object      alpha.mercury;
}
// * * * * * * * * * * * * * * * * * * * * * * * * * * * * * * * * * * * * * //

dimensions      [0 0 0 0 0 0 0];

internalField   nonuniform List<scalar> 
575
(
1
1
1
1
1
1
1
1
1
1
1
1
1
1
1
1
1
1
1
1
0.999998
0.999978
1
1
1
1
1
1
1
1
1
1
1
1
1
1
1
1
1
1
1
0.999999
0.999998
0.999977
1
1
1
1
1
1
1
1
1
1
1
1
1
1
1
1
0.999999
0.999998
0.999995
0.999991
0.999992
0.999973
1
1
1
1
1
1
1
1
1
1
1
1
0.999998
0.999992
0.999971
0.99995
0.999911
0.999889
0.999888
0.999902
0.999942
0.999956
1
1
1
1
1
1
1
1
0.999998
0.999996
0.99998
0.999892
0.999418
0.997742
0.993315
0.987288
0.974979
0.979031
0.984938
0.992601
0.998137
0.999756
0.999999
0.999998
0.999997
0.999994
0.999991
0.999962
0.999936
0.999771
0.999279
0.998341
0.995553
0.98743
0.959623
0.898319
0.792274
0.66016
0.519294
0.349414
0.416224
0.657812
0.937325
0.997106
0.99912
0.998982
0.998658
0.997912
0.997167
0.993537
0.990457
0.980828
0.960145
0.928484
0.871724
0.765737
0.561617
0.3235
0.137871
0.0347133
0.00418957
0.000858037
0.0144317
0.119015
0.701279
0.980281
0.953075
0.949302
0.941311
0.926511
0.911199
0.868138
0.829567
0.760225
0.653712
0.529181
0.381488
0.213204
0.0675444
0.0105546
0.000834379
0.00021472
6.67109e-05
3.05444e-05
4.4284e-05
0.00652328
0.335466
0.929402
0.509145
0.497017
0.473648
0.4379
0.398144
0.333336
0.275521
0.207911
0.139896
0.0835771
0.0412681
0.0153002
0.003716
0.000621502
9.586e-05
4.99125e-05
3.28212e-05
3.05383e-05
1.87545e-05
0.000296157
0.0760337
0.684565
0.0264772
0.0241735
0.0203782
0.0156444
0.0110844
0.00676938
0.00369677
0.00170483
0.000677739
0.00024127
8.71144e-05
3.55847e-05
1.039e-05
6.69102e-06
5.2992e-06
4.97224e-06
4.70344e-06
4.50543e-06
4.77278e-06
1.42381e-05
0.00472206
0.227457
8.8036e-05
7.85294e-05
6.49018e-05
4.92997e-05
3.58838e-05
2.46273e-05
1.61995e-05
9.52847e-06
5.63117e-06
3.45886e-06
1.98937e-06
1.44165e-06
1.21542e-06
9.66159e-07
7.87017e-07
6.35812e-07
5.97093e-07
5.81889e-07
7.39653e-07
2.72949e-06
0.000403889
0.040464
1.33559e-06
1.27477e-06
1.18086e-06
1.04817e-06
9.10202e-07
7.7129e-07
6.52557e-07
4.9779e-07
3.92135e-07
2.84231e-07
2.10946e-07
1.29122e-07
9.55988e-08
7.21049e-08
5.26363e-08
3.89758e-08
3.25691e-08
3.3711e-08
5.4326e-08
1.00262e-06
9.00871e-05
0.00678856
1.38453e-08
1.30228e-08
1.11637e-08
1.04827e-08
9.94499e-09
9.18994e-09
8.36225e-09
6.69523e-09
5.47832e-09
4.05513e-09
2.64032e-09
1.61147e-09
1.03068e-09
6.73536e-10
4.58495e-10
3.11692e-10
2.62031e-10
2.91593e-10
8.41902e-10
3.86396e-07
3.7361e-05
0.0028334
8.53507e-13
3.25623e-13
4.16216e-13
4.31838e-13
3.41816e-13
3.01581e-13
2.86988e-13
2.52279e-13
2.35283e-13
1.78626e-13
1.33846e-13
1.03553e-13
8.96294e-14
8.513e-14
8.77259e-14
1.09718e-13
3.46263e-13
1.14052e-12
1.59469e-10
8.68654e-08
1.03696e-05
0.000809118
6.60873e-37
1.46271e-35
1.72204e-34
1.46316e-33
9.97624e-33
5.91496e-32
3.19605e-31
1.34313e-30
6.18192e-30
1.47338e-28
2.05988e-24
1.34025e-22
2.59171e-21
4.0158e-20
1.21669e-18
6.29681e-17
2.37212e-15
4.3344e-13
3.25907e-10
5.27489e-09
1.1293e-06
0.0001115
5.57281e-36
1.21448e-34
1.41035e-33
1.16317e-32
7.53394e-32
4.14798e-31
2.01628e-30
7.52795e-30
3.46863e-29
8.55857e-28
2.55823e-23
1.12513e-21
1.76428e-20
2.97272e-19
1.25906e-17
5.43232e-16
1.55946e-14
2.64181e-13
5.6852e-11
2.03008e-10
2.91623e-08
4.87662e-06
4.28753e-35
9.19109e-34
1.03919e-32
8.17373e-32
4.95917e-31
2.51888e-30
1.11021e-29
3.89017e-29
1.76599e-28
4.77699e-27
2.97905e-22
1.00447e-20
1.239e-19
1.21392e-18
1.04901e-17
8.22458e-17
6.02484e-16
4.59545e-15
2.51737e-12
5.20762e-12
6.40805e-11
8.81284e-08
5.22224e-06
2.98554e-34
6.23113e-33
6.74152e-32
4.96831e-31
2.7961e-30
1.30867e-29
5.34361e-29
1.96621e-28
8.5916e-28
3.41473e-26
1.97755e-25
6.54386e-25
2.18395e-24
7.59514e-24
2.74556e-23
1.0687e-22
5.12528e-22
1.67482e-21
3.50856e-21
4.42371e-14
2.05235e-12
1.16992e-09
1.72727e-08
1.84732e-33
3.69506e-32
3.74915e-31
2.55248e-30
1.31743e-29
5.58959e-29
2.16808e-28
9.63641e-28
8.72456e-27
9.75348e-26
2.92646e-25
6.26847e-25
2.84675e-24
1.38202e-23
5.93814e-23
2.31628e-22
1.29099e-21
4.82229e-21
1.32549e-20
8.69619e-20
7.09723e-19
1.10082e-12
4.65099e-10
5.47949e-33
9.6377e-32
8.39053e-31
4.81307e-30
2.12592e-29
8.15713e-29
3.02913e-28
1.15513e-27
4.62892e-27
2.42954e-26
1.7929e-26
2.58596e-25
3.57427e-24
2.96585e-23
1.59336e-22
5.938e-22
2.40505e-21
8.9586e-21
2.92438e-20
3.76007e-19
7.41427e-18
1.37662e-16
1.35791e-15
2.70195e-34
3.38917e-33
2.11994e-32
9.20153e-32
3.6628e-31
1.94574e-30
1.35808e-29
8.2634e-29
3.4779e-28
1.48373e-27
2.95934e-26
6.87752e-25
9.01522e-24
8.50197e-23
5.17132e-22
2.23204e-21
8.13372e-21
2.33963e-20
6.85551e-20
1.02813e-18
3.44289e-17
9.12258e-16
1.5973e-14
1.24079e-36
1.74512e-35
2.17845e-34
4.16051e-33
8.85926e-32
1.58322e-30
2.01574e-29
1.70558e-28
9.62505e-28
6.74055e-27
1.09393e-25
1.66401e-24
1.7784e-23
1.44992e-22
9.08313e-22
4.31709e-21
1.70605e-20
5.41105e-20
1.78484e-19
1.19005e-18
6.31228e-18
4.94848e-17
1.1248e-15
1.43701e-39
6.61872e-38
3.49634e-36
2.12909e-34
1.77728e-32
9.24785e-31
2.36716e-29
3.48788e-28
3.53462e-27
3.17949e-26
4.40107e-25
5.32988e-24
4.43012e-23
2.68443e-22
1.41346e-21
6.67616e-21
2.86606e-20
1.11334e-19
6.18336e-19
7.94589e-18
7.88402e-17
4.63738e-16
1.87996e-15
5.39236e-42
1.55338e-39
3.43549e-37
7.14999e-35
1.78962e-32
1.30291e-30
4.20691e-29
7.85726e-28
1.04471e-26
1.19506e-25
1.37209e-24
1.29402e-23
1.00949e-22
6.51587e-22
3.78232e-21
2.02803e-20
9.81085e-20
3.97398e-19
1.31676e-18
3.82214e-18
1.12585e-17
3.6777e-17
1.51553e-16
7.95849e-42
5.13789e-39
1.55632e-36
3.08058e-34
4.04766e-32
2.19677e-30
6.30614e-29
1.16225e-27
1.58218e-26
1.81794e-25
1.95283e-24
1.81788e-23
1.42096e-22
8.80285e-22
4.38315e-21
1.84742e-20
6.74914e-20
2.11205e-19
5.83932e-19
1.49869e-18
3.72711e-18
9.71049e-18
2.68206e-17
4.07073e-41
2.55358e-38
7.9211e-36
9.94195e-34
5.9704e-32
2.06097e-30
4.68625e-29
7.86924e-28
1.07231e-26
1.27153e-25
1.3561e-24
1.21849e-23
8.54636e-23
4.61023e-22
2.01234e-21
7.29905e-21
)
;

boundaryField
{
    leftWall
    {
        type            zeroGradient;
    }
    rightWall
    {
        type            zeroGradient;
    }
    lowerWall
    {
        type            zeroGradient;
    }
    atmosphere
    {
        type            inletOutlet;
        inletValue      nonuniform 0();
        value           nonuniform 0();
    }
    defaultFaces
    {
        type            empty;
    }
    procBoundary0to1
    {
        type            processor;
        value           nonuniform List<scalar> 
26
(
0.999914
0.9999
0.99988
0.999873
0.999853
0.999813
0.999646
0.99903
0.97409
0.757095
0.377415
0.118331
0.0415656
0.0137502
0.00289147
0.000254092
0.000254092
2.1357e-05
6.20677e-08
2.98606e-09
5.86402e-15
1.19639e-13
2.64857e-14
5.9348e-15
5.74408e-16
7.51125e-17
)
;
    }
    procBoundary0to2
    {
        type            processor;
        value           nonuniform List<scalar> 
24
(
2.22097e-20
5.75934e-20
1.33946e-19
2.97388e-19
6.51707e-19
1.38939e-18
2.94978e-18
2.05708e-40
6.42905e-38
7.59201e-36
4.62868e-34
1.74252e-32
4.56562e-31
9.09809e-30
1.47305e-28
2.02514e-27
2.38165e-26
2.3292e-25
1.80649e-24
1.08111e-23
5.20238e-23
2.05686e-22
2.22097e-20
6.8701e-22
)
;
    }
}


// ************************************************************************* //
