/*--------------------------------*- C++ -*----------------------------------*\
| =========                 |                                                 |
| \\      /  F ield         | OpenFOAM: The Open Source CFD Toolbox           |
|  \\    /   O peration     | Version:  2.4.0                                 |
|   \\  /    A nd           | Web:      www.OpenFOAM.org                      |
|    \\/     M anipulation  |                                                 |
\*---------------------------------------------------------------------------*/
FoamFile
{
    version     2.0;
    format      ascii;
    class       volScalarField;
    location    "0.3";
    object      alphas;
}
// * * * * * * * * * * * * * * * * * * * * * * * * * * * * * * * * * * * * * //

dimensions      [0 0 0 0 0 0 0];

internalField   nonuniform List<scalar> 
575
(
2
2
2
2
2
2
2
2
2
2
2
2
2
2
2
2
2
2
2
2
2
1.99998
2
2
2
2
2
2
2
2
2
2
2
2
2
2
2
2
2
2
2
2
2
1.99998
2
2
2
2
2
2
2
2
2
2
2
2
2
2
2
2
2
2
1.99999
1.99999
1.99999
1.99997
2
2
2
2
2
2
2
2
2
2
2
2
2
1.99998
1.99994
1.9999
1.99983
1.99979
1.9998
1.99982
1.9999
1.99994
2
2
2
2
2
2
2
2
2
1.99999
1.99996
1.99978
1.99884
1.99549
1.98666
1.97465
1.95011
1.95823
1.9701
1.98539
1.99638
1.99957
2
2
1.99999
1.99999
1.99998
1.99992
1.99987
1.99954
1.99856
1.99668
1.99111
1.97486
1.91925
1.79665
1.58466
1.32087
1.04015
0.702072
0.840184
1.32195
1.8768
1.9945
1.99824
1.99796
1.99732
1.99582
1.99433
1.98707
1.98091
1.96166
1.92029
1.85697
1.74345
1.53147
1.12324
0.647016
0.275888
0.0702129
0.0114168
0.0126233
0.0543081
0.266448
1.41558
1.96197
1.90615
1.8986
1.88262
1.85302
1.8224
1.73628
1.65913
1.52045
1.30742
1.05836
0.762976
0.426409
0.135089
0.0211161
0.00171684
0.000850575
0.00222239
0.00805624
0.0258087
0.0719623
0.731245
1.8666
1.01829
0.994035
0.947296
0.875801
0.796288
0.666672
0.551042
0.415822
0.279792
0.167154
0.0825361
0.0306005
0.00743259
0.00124962
0.000233221
0.000319992
0.000985535
0.00373648
0.015393
0.0594799
0.234287
1.41417
0.0529544
0.0483471
0.0407565
0.0312887
0.0221689
0.0135388
0.00739353
0.00340966
0.00135548
0.000482542
0.000174233
7.12251e-05
2.15776e-05
2.03451e-05
3.90435e-05
0.000111332
0.000309186
0.000862565
0.00370847
0.0254146
0.0866067
0.543945
0.00017608
0.000157068
0.000129814
9.86101e-05
7.17789e-05
4.9267e-05
3.24125e-05
1.90728e-05
1.1279e-05
6.93828e-06
4.01442e-06
3.08745e-06
4.32316e-06
9.85672e-06
2.95355e-05
9.47661e-05
0.000297178
0.00092516
0.0029338
0.00906792
0.0398009
0.169714
2.71003e-06
2.59017e-06
2.40319e-06
2.13857e-06
1.86407e-06
1.58845e-06
1.35371e-06
1.05105e-06
8.45145e-07
6.44158e-07
6.15147e-07
7.99773e-07
6.5243e-06
5.84952e-05
0.000291943
0.000970472
0.00220336
0.0050084
0.00877757
0.0144838
0.0304438
0.0882336
8.58379e-08
8.53502e-08
8.02838e-08
7.86367e-08
7.87952e-08
8.11214e-08
8.76512e-08
9.98056e-08
1.2383e-07
1.41882e-07
1.25592e-06
9.08766e-05
0.00125194
0.00624269
0.0178272
0.0377896
0.0576678
0.0847962
0.0819209
0.0877097
0.0905058
0.108662
1.32617e-07
1.3345e-07
1.29086e-07
1.27161e-07
1.31847e-07
1.61644e-07
1.98645e-07
2.43834e-07
2.90831e-07
3.33531e-06
0.000325545
0.00727989
0.0452157
0.124115
0.223212
0.329169
0.417908
0.503983
0.511601
0.503941
0.460911
0.314514
2.42678e-06
2.79047e-06
3.42792e-06
4.65248e-06
6.85315e-06
1.08589e-05
1.80311e-05
2.77343e-05
3.24321e-05
0.000502577
0.0151942
0.115729
0.338061
0.559102
0.710662
0.815202
0.889934
0.948276
0.950332
0.933226
0.888546
0.720331
0.00278134
0.00307897
0.00358797
0.0044755
0.00588177
0.0080919
0.0113848
0.0146674
0.0137064
0.0202801
0.151885
0.48979
0.797911
0.922788
0.966694
0.986938
0.995241
0.998563
0.998681
0.99851
0.994261
0.964327
0.26091
0.275977
0.301174
0.341603
0.398662
0.476217
0.574963
0.660363
0.60721
0.412068
0.602677
1.02281
1.06626
1.02128
1.00869
1.00259
1.00069
1.00013
1.00002
1.00001
0.999944
0.999423
0.988422
2.19963
2.2383
2.29976
2.38714
2.49153
2.60491
2.71824
2.79868
2.76885
2.3449
2.25398
2.47422
2.21653
1.7727
1.50909
1.27199
1.13625
1.05454
1.02047
1.00698
1.00061
1.00016
0.999923
2.99893
2.99914
2.99941
2.99967
2.99985
2.99994
2.99997
2.99971
2.99848
2.99548
2.9996
2.9997
2.99686
2.97121
2.91035
2.72994
2.46828
2.09759
1.79373
1.51739
1.20185
1.09786
1.04373
3
3
3
3
3
3
2.99999
2.99999
3
3
3
3
3
3
3
2.99998
2.99974
2.99689
2.98536
2.95426
2.81902
2.61952
2.51215
3
3
3
3
3
3
3
3
3
3
3
3
3
3
3
3
3
3
3
3
3
3
3
3
3
3
3
3
3
3
3
3
3
3
3
3
3
3
3
3
3
3
3
3
3
3
2.99999
2.99999
2.99999
3
3
3
3
3
3
3
3
3
3
3
3
3
3
3
3
3
3
3
3
3
3
3
3
3
3
3
3
3
3
3
3
3
3
3
3
3
3
3
3
3
3
3
3
3
3
3
3
3
3
3
3
3
3
3
3
3
3
3
3
3
3
3
3
3
3
3
3
3
3
3
3
3
3
3
3
3
3
3
3
3
3
)
;

boundaryField
{
    leftWall
    {
        type            zeroGradient;
    }
    rightWall
    {
        type            zeroGradient;
    }
    lowerWall
    {
        type            zeroGradient;
    }
    atmosphere
    {
        type            zeroGradient;
    }
    defaultFaces
    {
        type            empty;
    }
    procBoundary0to1
    {
        type            processor;
        value           nonuniform List<scalar> 
26
(
1.99991
1.9999
1.99988
1.99987
1.99984
1.99978
1.99948
1.99836
1.95403
1.54968
0.830195
0.336555
0.21404
0.270643
0.519658
0.852708
0.852708
0.973027
0.999673
1.03071
2.52393
3
3
3
3
3
)
;
    }
    procBoundary0to2
    {
        type            processor;
        value           nonuniform List<scalar> 
24
(
3
3
3
3
3
3
3
3
3
3
3
3
3
3
3
3
3
3
3
3
3
3
3
3
)
;
    }
}


// ************************************************************************* //
