/*--------------------------------*- C++ -*----------------------------------*\
| =========                 |                                                 |
| \\      /  F ield         | OpenFOAM: The Open Source CFD Toolbox           |
|  \\    /   O peration     | Version:  2.4.0                                 |
|   \\  /    A nd           | Web:      www.OpenFOAM.org                      |
|    \\/     M anipulation  |                                                 |
\*---------------------------------------------------------------------------*/
FoamFile
{
    version     2.0;
    format      ascii;
    class       volScalarField;
    location    "0.3";
    object      alpha.air;
}
// * * * * * * * * * * * * * * * * * * * * * * * * * * * * * * * * * * * * * //

dimensions      [0 0 0 0 0 0 0];

internalField   nonuniform List<scalar> 
575
(
4.08694e-18
3.77491e-18
3.85185e-18
5.07281e-18
4.79739e-18
1.06037e-17
6.75459e-18
2.3353e-17
4.02071e-17
4.13862e-17
7.5393e-17
2.7614e-16
6.70172e-16
1.00915e-15
9.17668e-16
5.726e-16
2.83002e-16
1.5123e-16
9.11624e-17
6.09289e-17
4.04944e-17
2.25841e-17
1.22539e-16
1.14063e-16
1.16767e-16
1.48033e-16
1.41623e-16
2.7216e-16
1.97762e-16
5.38433e-16
8.68579e-16
9.47834e-16
1.61707e-15
4.61383e-15
9.85231e-15
1.38474e-14
1.28433e-14
8.41726e-15
4.47817e-15
2.54488e-15
1.56063e-15
9.72877e-16
5.7249e-16
2.70392e-16
1.74573e-15
1.6417e-15
1.69251e-15
2.06867e-15
2.00313e-15
3.40368e-15
2.79608e-15
6.09832e-15
9.15183e-15
1.07316e-14
1.76876e-14
3.95015e-14
7.01166e-14
9.26942e-14
8.88871e-14
6.33775e-14
3.83219e-14
2.33929e-14
1.442e-14
8.46551e-15
4.41986e-15
1.71471e-15
1.57158e-14
1.49734e-14
1.558e-14
1.84068e-14
1.80341e-14
2.75965e-14
2.49505e-14
4.50349e-14
6.32567e-14
7.83401e-14
1.25268e-13
2.22862e-13
3.327e-13
4.05132e-13
3.99863e-13
3.13592e-13
2.25194e-13
1.44862e-13
8.97299e-14
5.12504e-14
2.46726e-14
9.26006e-15
1.00332e-13
9.70458e-14
1.01787e-13
1.16628e-13
1.15494e-13
1.6158e-13
1.56471e-13
2.40716e-13
3.20357e-13
4.09994e-13
6.17615e-13
9.10266e-13
1.15162e-12
1.27621e-12
1.2659e-12
1.09467e-12
8.79617e-13
6.02663e-13
3.73143e-13
2.0493e-13
8.99295e-14
3.10788e-14
4.819e-13
4.72916e-13
4.97739e-13
5.54414e-13
5.55473e-13
7.15965e-13
7.26686e-13
9.79862e-13
1.25237e-12
1.62917e-12
2.22888e-12
2.71121e-12
2.87469e-12
2.86394e-12
2.78441e-12
2.49295e-12
2.00893e-12
1.41191e-12
8.46569e-13
4.4118e-13
1.77389e-13
5.97931e-14
1.78784e-12
1.77519e-12
1.87163e-12
2.03373e-12
2.0628e-12
2.45417e-12
2.58059e-12
3.16217e-12
3.92165e-12
5.18961e-12
5.87857e-12
5.26056e-12
4.5875e-12
4.16612e-12
3.95598e-12
3.65574e-12
2.98846e-12
2.09213e-12
1.14277e-12
5.66325e-13
2.38238e-13
8.10871e-14
5.17472e-12
5.21566e-12
5.61547e-12
5.99963e-12
6.12079e-12
6.78487e-12
7.29679e-12
8.73945e-12
1.05294e-11
1.42244e-11
8.69193e-12
3.46549e-12
3.38858e-12
3.32366e-12
3.24996e-12
3.1604e-12
3.06955e-12
3.69521e-12
2.94688e-12
1.31058e-12
4.32894e-13
1.09977e-13
1.24062e-11
1.29842e-11
1.49988e-11
1.58895e-11
1.60306e-11
1.69035e-11
1.84777e-11
2.35273e-11
2.72951e-11
3.59416e-11
6.31041e-11
1.1327e-10
1.86076e-10
3.23201e-10
3.49473e-10
2.91049e-10
1.69002e-10
6.3282e-11
1.29242e-11
5.11561e-12
2.0226e-12
5.54415e-13
2.15651e-10
2.4198e-10
2.92949e-10
3.07017e-10
3.08413e-10
3.28015e-10
3.59474e-10
4.70976e-10
4.97214e-10
6.30816e-10
1.30247e-09
2.55459e-09
3.40732e-09
3.85923e-09
3.29124e-09
2.36377e-09
1.44622e-09
7.35372e-10
2.66082e-10
5.1237e-11
5.47069e-12
2.41723e-12
2.79189e-09
3.04425e-09
3.35552e-09
3.57331e-09
3.80287e-09
4.16498e-09
4.4961e-09
5.29149e-09
5.56721e-09
6.69484e-09
9.9734e-09
1.41766e-08
1.36286e-08
1.05293e-08
6.795e-09
4.09774e-09
2.40639e-09
1.33162e-09
6.2021e-10
2.01332e-10
2.88837e-11
5.26013e-12
1.29478e-08
1.35462e-08
1.38198e-08
1.40755e-08
1.45566e-08
1.5291e-08
1.61997e-08
1.84893e-08
2.02613e-08
2.23842e-08
2.2099e-08
2.01208e-08
1.51055e-08
9.12353e-09
5.20265e-09
3.03007e-09
1.79628e-09
1.00924e-09
5.25477e-10
2.09173e-10
4.98952e-11
7.63458e-12
1.93824e-08
1.97682e-08
1.93188e-08
1.92237e-08
1.9635e-08
2.09137e-08
2.36419e-08
2.8804e-08
3.73373e-08
2.82303e-08
1.77166e-08
8.2025e-09
3.67152e-09
1.86709e-09
1.05574e-09
5.93099e-10
3.85179e-10
2.49022e-10
1.64416e-10
9.1953e-11
3.10021e-11
7.95003e-12
4.42052e-08
4.44831e-08
4.30285e-08
4.23865e-08
4.39483e-08
5.38806e-08
6.6214e-08
8.12729e-08
9.39352e-08
5.30303e-08
2.51061e-08
1.43663e-08
8.7515e-09
4.71419e-09
1.32782e-09
2.29863e-10
8.32589e-11
3.51025e-11
2.19351e-11
1.68526e-11
1.0955e-11
7.22048e-12
8.08926e-07
9.30157e-07
1.14264e-06
1.55083e-06
2.28438e-06
3.61962e-06
6.01033e-06
9.24398e-06
1.00613e-05
6.93861e-06
2.42435e-06
2.71387e-06
3.18678e-06
9.71526e-07
1.66456e-07
1.71282e-08
1.51081e-09
1.18004e-10
9.99401e-12
7.16952e-12
5.71891e-12
4.78137e-12
0.000927113
0.00102632
0.00119599
0.00149183
0.00196059
0.0026973
0.00379493
0.00488898
0.00449611
0.00232762
0.000946794
0.000840854
0.00127665
0.000293353
0.000102159
2.26788e-05
5.26895e-06
1.01153e-06
4.75192e-08
3.64118e-10
1.75036e-11
1.35017e-11
0.08697
0.0919923
0.100391
0.113868
0.132887
0.158739
0.191654
0.220117
0.201578
0.110651
0.0714185
0.0746724
0.0438727
0.0144803
0.00583667
0.00178124
0.000470672
8.801e-05
1.17579e-05
9.46695e-06
2.34419e-07
4.84736e-09
1.51781e-09
0.73321
0.746099
0.766587
0.795712
0.83051
0.868303
0.906079
0.932874
0.921396
0.736878
0.650533
0.737608
0.608467
0.38655
0.254617
0.136016
0.0681287
0.0272688
0.0102346
0.00349028
0.000305504
8.20734e-05
5.2745e-06
0.999642
0.999713
0.999803
0.999891
0.99995
0.999981
0.999988
0.999857
0.999242
0.997897
0.999804
0.999853
0.998433
0.985609
0.955179
0.864971
0.734142
0.548795
0.396863
0.258693
0.100927
0.0489316
0.0218628
0.999999
0.999999
0.999999
0.999999
0.999999
0.999999
0.999995
0.999994
0.999998
0.999998
0.999999
0.999999
0.999999
0.999999
0.999998
0.999991
0.99987
0.998444
0.992677
0.977131
0.909511
0.809761
0.756074
0.999999
0.999999
0.999999
0.999999
0.999999
0.999999
0.999999
0.999999
0.999999
0.999999
0.999999
0.999999
0.999999
1
1
1
1
1
1
1
1
1
1
0.999998
0.999998
0.999998
0.999998
0.999999
0.999999
0.999999
0.999999
0.999999
0.999999
0.999999
0.999999
0.999999
1
1
1
1
1
1
1
1
1
1
0.999998
0.999998
0.999998
0.999998
0.999999
0.999999
0.999999
0.999999
0.999999
0.999999
0.999999
1
0.999999
0.999999
0.999999
0.999999
0.999999
1
1
1
1
1
1
0.999998
0.999998
0.999998
0.999999
0.999999
0.999999
0.999999
0.999999
0.999999
1
1
1
0.999999
0.999999
0.999999
0.999999
0.999999
0.999999
1
1
1
0.999999
0.999999
0.999999
0.999999
0.999999
0.999999
0.999999
0.999999
0.999999
0.999999
1
1
1
1
0.999999
0.999999
0.999999
0.999999
0.999999
0.999999
0.999999
0.999999
0.999999
0.999999
0.999999
0.999999
0.999999
0.999999
0.999999
0.999999
0.999999
0.999999
1
1
1
1
1
1
0.999999
0.999999
0.999999
)
;

boundaryField
{
    leftWall
    {
        type            alphaContactAngle;
        thetaProperties 
6
(

(
water
mercury
)
 90 0 0 0

(
water
air
)
 90 0 0 0

(
water
oil
)
 90 0 0 0

(
mercury
air
)
 90 0 0 0

(
oil
mercury
)
 90 0 0 0

(
oil
air
)
 90 0 0 0
);
        value           nonuniform List<scalar> 
26
(
4.08694e-18
1.22539e-16
1.74573e-15
1.57158e-14
1.00332e-13
4.819e-13
1.78784e-12
5.17472e-12
1.24062e-11
2.15651e-10
2.79189e-09
1.29478e-08
1.93824e-08
4.42052e-08
8.08926e-07
0.000927113
0.08697
0.73321
0.999642
0.999999
0.999999
0.999998
0.999998
0.999998
0.999999
0.999999
)
;
    }
    rightWall
    {
        type            alphaContactAngle;
        thetaProperties 
6
(

(
water
mercury
)
 90 0 0 0

(
water
air
)
 90 0 0 0

(
water
oil
)
 90 0 0 0

(
mercury
air
)
 90 0 0 0

(
oil
mercury
)
 90 0 0 0

(
oil
air
)
 90 0 0 0
);
        value           nonuniform 0();
    }
    lowerWall
    {
        type            alphaContactAngle;
        thetaProperties 
6
(

(
water
mercury
)
 90 0 0 0

(
water
air
)
 90 0 0 0

(
water
oil
)
 90 0 0 0

(
mercury
air
)
 90 0 0 0

(
oil
mercury
)
 90 0 0 0

(
oil
air
)
 90 0 0 0
);
        value           nonuniform List<scalar> 
22
(
4.08694e-18
3.77491e-18
3.85185e-18
5.07281e-18
4.79739e-18
1.06037e-17
6.75459e-18
2.3353e-17
4.02071e-17
4.13862e-17
7.5393e-17
2.7614e-16
6.70172e-16
1.00915e-15
9.17668e-16
5.726e-16
2.83002e-16
1.5123e-16
9.11624e-17
6.09289e-17
4.04944e-17
2.25841e-17
)
;
    }
    atmosphere
    {
        type            inletOutlet;
        inletValue      nonuniform 0();
        value           nonuniform 0();
    }
    defaultFaces
    {
        type            empty;
    }
    procBoundary0to1
    {
        type            processor;
        value           nonuniform List<scalar> 
26
(
7.29604e-18
7.82724e-17
4.1994e-16
1.98082e-15
6.85975e-15
1.31707e-14
1.87629e-14
2.43302e-14
6.52996e-14
4.78715e-13
1.74931e-12
2.81812e-12
3.20747e-12
4.24903e-12
4.15966e-12
7.1519e-12
7.1519e-12
9.01657e-10
9.05833e-10
0.0153586
0.761965
0.999998
1
1
0.999999
0.999999
)
;
    }
    procBoundary0to2
    {
        type            processor;
        value           nonuniform List<scalar> 
24
(
1
1
0.999999
0.999999
0.999999
0.999999
0.999999
0.999999
0.999999
0.999999
0.999999
0.999999
0.999999
1
1
1
1
1
1
1
1
1
1
1
)
;
    }
}


// ************************************************************************* //
