/*--------------------------------*- C++ -*----------------------------------*\
| =========                 |                                                 |
| \\      /  F ield         | OpenFOAM: The Open Source CFD Toolbox           |
|  \\    /   O peration     | Version:  2.4.0                                 |
|   \\  /    A nd           | Web:      www.OpenFOAM.org                      |
|    \\/     M anipulation  |                                                 |
\*---------------------------------------------------------------------------*/
FoamFile
{
    version     2.0;
    format      ascii;
    class       volScalarField;
    location    "0.3";
    object      alpha.water;
}
// * * * * * * * * * * * * * * * * * * * * * * * * * * * * * * * * * * * * * //

dimensions      [0 0 0 0 0 0 0];

internalField   nonuniform List<scalar> 
575
(
1.67936e-11
1.15045e-11
9.7428e-12
1.02239e-11
1.06884e-11
1.6905e-11
1.63143e-11
5.56876e-11
1.15315e-10
1.79433e-10
4.15736e-10
9.80852e-10
1.59585e-09
1.83679e-09
1.73529e-09
1.36312e-09
8.25749e-10
3.57379e-10
1.56184e-10
1.25048e-10
1.09262e-10
8.80068e-11
1.64537e-10
1.07024e-10
8.84825e-11
9.28705e-11
1.00698e-10
1.90943e-10
2.0352e-10
7.06722e-10
1.38798e-09
2.00479e-09
3.82918e-09
7.12921e-09
9.60469e-09
9.56324e-09
8.63472e-09
6.46106e-09
3.98182e-09
3.96105e-09
8.57057e-09
2.07445e-08
2.07948e-08
1.16499e-08
8.24317e-10
5.29078e-10
4.7276e-10
5.65323e-10
6.9574e-10
1.55691e-09
1.80802e-09
5.18857e-09
8.83449e-09
1.21354e-08
1.91129e-08
2.80905e-08
2.9264e-08
2.7744e-08
3.27482e-08
4.20505e-08
7.88741e-08
2.83251e-07
1.21785e-06
2.57178e-06
2.16416e-06
1.15046e-06
3.82802e-09
2.78951e-09
3.01733e-09
4.04711e-09
5.14615e-09
1.03939e-08
1.26399e-08
2.62701e-08
3.63687e-08
4.82902e-08
6.4941e-08
1.84697e-07
1.30837e-06
7.06137e-06
2.59714e-05
4.4975e-05
8.05839e-05
9.46503e-05
9.11869e-05
7.70899e-05
4.13791e-05
1.27667e-05
2.3853e-08
1.72644e-08
1.94653e-08
2.44523e-08
2.86709e-08
5.49439e-08
7.25189e-08
3.35815e-07
1.54769e-06
4.33642e-06
1.96163e-05
0.000107875
0.000581302
0.00225287
0.00665799
0.0126371
0.0248693
0.020801
0.0148414
0.00721099
0.0017538
0.000187247
1.34444e-06
1.70732e-06
2.68883e-06
5.67151e-06
8.88672e-06
3.83431e-05
6.35704e-05
0.000228801
0.000720586
0.001659
0.00444675
0.0125704
0.0403761
0.101668
0.207616
0.339292
0.479148
0.647342
0.576039
0.335863
0.0605288
0.00260549
0.000880159
0.00101788
0.00134227
0.00208819
0.00283303
0.0064628
0.00954292
0.0191723
0.0398554
0.0715162
0.128276
0.234262
0.438382
0.676484
0.861982
0.9645
0.992773
0.988235
0.960123
0.852567
0.285697
0.0183135
0.0469251
0.0506981
0.0586885
0.0734893
0.0888005
0.131862
0.170433
0.239775
0.346288
0.470819
0.618512
0.786795
0.932455
0.989438
0.999117
0.999364
0.997844
0.991974
0.974235
0.934561
0.60422
0.0628
0.490855
0.502983
0.526352
0.5621
0.601856
0.666664
0.724479
0.792089
0.860104
0.916423
0.958732
0.9847
0.996283
0.999372
0.999863
0.99973
0.999047
0.996294
0.984626
0.940816
0.841746
0.270392
0.973523
0.975826
0.979622
0.984356
0.988915
0.993231
0.996303
0.998295
0.999322
0.999759
0.999913
0.999964
0.999989
0.999986
0.999966
0.999894
0.999695
0.999142
0.996296
0.974599
0.918115
0.683512
0.999912
0.999921
0.999935
0.999951
0.999964
0.999975
0.999984
0.99999
0.999994
0.999996
0.999998
0.999998
0.999997
0.999991
0.999971
0.999906
0.999703
0.999075
0.997067
0.990935
0.960603
0.87075
0.999999
0.999999
0.999999
0.999999
0.999999
0.999999
0.999999
0.999999
1
1
1
0.999999
0.999994
0.999942
0.999708
0.99903
0.997797
0.994992
0.991222
0.985517
0.969646
0.918555
1
1
1
1
1
1
1
1
1
1
0.999999
0.999909
0.998748
0.993757
0.982173
0.96221
0.942332
0.915204
0.918079
0.912291
0.909531
0.894171
1
1
1
1
1
1
1
1
1
0.999997
0.999675
0.99272
0.954785
0.875885
0.776788
0.670831
0.582092
0.496017
0.488399
0.496059
0.539099
0.686295
0.999999
0.999999
0.999999
0.999999
0.999998
0.999996
0.999994
0.999991
0.999988
0.999511
0.984811
0.884276
0.661946
0.4409
0.289339
0.184798
0.110066
0.0517236
0.0496681
0.0667736
0.111455
0.279781
0.999073
0.998974
0.998804
0.998508
0.998039
0.997303
0.996205
0.995111
0.995286
0.984375
0.850009
0.511892
0.204643
0.0777992
0.0335109
0.013107
0.00476967
0.00143873
0.00131874
0.00149023
0.00573846
0.0356773
0.91303
0.908008
0.899609
0.886132
0.867113
0.841261
0.808345
0.779872
0.795947
0.809234
0.540161
0.126538
0.0214843
0.00767672
0.00298292
0.000970487
0.000254229
4.37019e-05
6.69911e-06
8.7215e-06
5.61652e-05
0.000577241
0.0115828
0.26679
0.253901
0.233413
0.204288
0.169489
0.131696
0.0939182
0.0670691
0.0739453
0.12886
0.0470809
0.000997922
0.000404275
0.000395772
0.000147174
4.48245e-05
1.05014e-05
1.32816e-06
9.08448e-08
4.52512e-08
1.70598e-06
8.9457e-06
8.74429e-05
0.000357279
0.000286707
0.000196728
0.00010843
4.88822e-05
1.81653e-05
6.00032e-06
2.40203e-06
5.35695e-06
0.000318072
1.06383e-05
1.2249e-06
2.06108e-06
5.90933e-06
4.64984e-06
2.87937e-06
6.53399e-07
1.0858e-07
4.2592e-08
1.27654e-08
3.73624e-09
4.08066e-09
8.92169e-07
3.88504e-07
2.99517e-07
2.87842e-07
2.97685e-07
2.12189e-07
1.70352e-08
4.11481e-09
9.5027e-09
3.31786e-08
5.25307e-08
1.81501e-08
4.99281e-09
3.40959e-09
1.03305e-08
1.16404e-08
5.62651e-09
1.5842e-09
4.38974e-10
2.92536e-10
1.60188e-10
3.87669e-11
6.84239e-12
6.43704e-11
1.0928e-07
4.89029e-08
3.78491e-08
4.02665e-08
3.74977e-08
7.70919e-09
1.35431e-09
2.78351e-10
7.34201e-10
3.84974e-09
3.75933e-10
2.0067e-10
1.96218e-10
1.79564e-10
1.40295e-10
1.07829e-10
2.06377e-11
2.32032e-12
2.21935e-13
5.43121e-14
1.43483e-13
2.0517e-13
1.39948e-13
4.71542e-08
1.96256e-08
1.28542e-08
1.45335e-08
1.16357e-08
3.51389e-09
1.29666e-09
1.73529e-10
1.02404e-10
1.75567e-10
1.81422e-10
2.20328e-10
2.3346e-10
1.50769e-10
6.20988e-12
2.35049e-13
3.28145e-14
2.73362e-14
2.32807e-14
2.12739e-14
6.44752e-14
8.61893e-14
1.13676e-13
1.46833e-08
2.77722e-09
9.64078e-10
6.31941e-10
6.20358e-10
6.0378e-10
7.14433e-10
1.98316e-10
9.59505e-11
1.13158e-10
1.97078e-10
2.61723e-10
2.61161e-10
1.1571e-10
2.73179e-12
7.22605e-14
1.60545e-14
1.22298e-14
9.49272e-15
9.14547e-15
3.33893e-14
8.20299e-14
1.31429e-13
9.31822e-10
7.3695e-10
1.39531e-10
5.51019e-11
3.50572e-11
3.64445e-11
4.78797e-11
7.06436e-11
5.45667e-11
7.68743e-11
8.73543e-11
9.11458e-11
8.82054e-11
1.68674e-11
1.41203e-12
4.58404e-15
3.26005e-15
1.57253e-15
1.31221e-15
3.25977e-15
8.0397e-15
1.60083e-14
2.99567e-14
3.61429e-11
1.00559e-10
2.6785e-11
1.70609e-11
1.28624e-11
1.15866e-11
1.23295e-11
1.67932e-11
1.78633e-11
1.69375e-11
1.63227e-11
1.37617e-11
8.50392e-12
4.27662e-12
5.98412e-13
4.91371e-16
2.06028e-16
7.27851e-17
1.5567e-16
4.20219e-16
1.01816e-15
2.201e-15
4.04067e-15
7.07066e-12
1.12989e-11
5.88496e-12
3.99163e-12
3.11041e-12
2.7814e-12
3.39766e-12
4.7108e-12
5.43776e-12
5.20873e-12
4.90418e-12
3.85295e-12
2.23983e-12
1.06983e-12
1.85803e-13
2.20473e-18
)
;

boundaryField
{
    leftWall
    {
        type            zeroGradient;
    }
    rightWall
    {
        type            zeroGradient;
    }
    lowerWall
    {
        type            zeroGradient;
    }
    atmosphere
    {
        type            inletOutlet;
        inletValue      nonuniform 0();
        value           nonuniform 0();
    }
    defaultFaces
    {
        type            empty;
    }
    procBoundary0to1
    {
        type            processor;
        value           nonuniform List<scalar> 
26
(
5.55871e-11
1.67662e-09
1.61138e-07
8.78535e-07
1.42225e-05
3.44947e-05
0.000169667
0.000668395
0.0200637
0.207417
0.54722
0.781776
0.827526
0.743107
0.483233
0.147545
0.147545
0.0269947
0.00032666
8.78198e-06
2.52706e-09
2.38296e-13
3.46745e-13
1.45632e-13
3.9789e-14
5.50204e-15
)
;
    }
    procBoundary0to2
    {
        type            processor;
        value           nonuniform List<scalar> 
24
(
2.62516e-18
6.47883e-18
1.49958e-17
3.35086e-17
7.25106e-17
1.41814e-16
2.33309e-16
5.38286e-13
1.05095e-12
5.47192e-13
3.62105e-13
2.05907e-13
1.94609e-13
4.18781e-13
7.96802e-13
1.06682e-12
1.04616e-12
9.85608e-13
8.22856e-13
4.70968e-13
1.80406e-13
2.43687e-14
2.62516e-18
7.53341e-20
)
;
    }
}


// ************************************************************************* //
