/*--------------------------------*- C++ -*----------------------------------*\
| =========                 |                                                 |
| \\      /  F ield         | OpenFOAM: The Open Source CFD Toolbox           |
|  \\    /   O peration     | Version:  2.4.0                                 |
|   \\  /    A nd           | Web:      www.OpenFOAM.org                      |
|    \\/     M anipulation  |                                                 |
\*---------------------------------------------------------------------------*/
FoamFile
{
    version     2.0;
    format      ascii;
    class       volScalarField;
    location    "0.3";
    object      p;
}
// * * * * * * * * * * * * * * * * * * * * * * * * * * * * * * * * * * * * * //

dimensions      [1 -1 -2 0 0 0 0];

internalField   nonuniform List<scalar> 
575
(
8285.59
8261.66
8216.21
8145.9
8050.96
7955.56
7786.39
7664.38
7485.9
7268.94
7064.35
6870.2
6658.46
6478.02
6344.37
6278.24
6333.24
6601.09
7203.48
8096.8
9220.11
10318.1
7484.98
7460.95
7415.34
7344.53
7250.06
7150.44
6987.72
6859.08
6680.23
6464.62
6261.05
6058.51
5844.36
5655.61
5516.49
5434.9
5502.63
5761.44
6330.08
7233.13
8327.19
9556.49
6680.1
6655.85
6609.87
6538.18
6444.05
6338.89
6184.82
6046.05
5865.81
5654.23
5449.14
5233.01
5010.2
4810.82
4654.22
4558.3
4546.82
4781.57
5300.64
6213.22
7337.12
8623.84
5870.87
5846.32
5799.67
5726.92
5632.54
5522.73
5375.72
5225.75
5044.11
4837.49
4627.91
4393.58
4162.47
3945.22
3778.68
3654.98
3698.11
3872.58
4272.64
5108.49
6220.91
7616.88
5057.23
5032.25
4984.69
4910.69
4815.92
4702.27
4558.95
4399.65
4216.45
4014.54
3793.79
3541.22
3295.67
3077.77
2891.92
2713.36
2544.01
2522.22
2935.7
3763.52
4961.09
6486.88
4241.43
4215.85
4167.02
4091.61
3995.42
3877.15
3733.43
3566.5
3379.29
3176.65
2936.88
2664.49
2380.23
2079.76
1836.26
1663.89
1568.86
1566.63
1694.53
2027.51
3319.29
5230.36
3426.09
3398.87
3346.89
3266.78
3166.67
3036.49
2890.6
2710.3
2518.19
2274.13
2020.7
1757.63
1511.83
1386.63
1372.94
1400.65
1456.62
1474.73
1481.9
1457.5
2012.94
3855.54
2600.22
2573.72
2522.2
2445.09
2349.66
2212.19
2066.64
1884.43
1728.69
1531.76
1341.81
1242.86
1242.33
1350.75
1423.74
1469.89
1470.7
1457.02
1519.19
1532.34
1527.57
2681.55
1278.35
1260.82
1230.49
1195.31
1160.85
1133.87
1119.64
1116.64
1118.48
1145.77
1193.36
1237.46
1267.27
1252.79
1215.3
1200.17
1221.67
1267.38
1294.91
1379.93
1210.62
1343.99
1007.71
1013.79
1024.51
1039.81
1056.18
1073.22
1086.86
1098.63
1109.85
1116.76
1108.14
1096.36
1082.37
1092.76
1112.85
1158.09
1180
1191.06
1181.45
1209.61
1134.81
956.953
997.56
994.29
988.264
980.411
971.849
964.247
958.309
954.243
949.274
941.785
936.243
935.225
936.446
941.555
945.74
943.274
937.391
949.827
965.581
968.846
960.583
847.463
793.122
793.695
794.907
796.833
799.577
802.673
806.011
807.37
807.485
805.19
800.95
795.71
789.913
783.268
775.077
767.969
765.968
761.097
750.175
738.411
718.838
658.467
679.295
679.356
679.281
678.887
678.015
676.486
675.072
671.496
669.569
664.048
653.921
642.542
627.522
606.78
586.025
563.59
541.944
517.537
497.339
481.001
452.019
418.364
537.355
537.244
536.733
535.558
533.402
530.236
526.84
522.129
519.581
512.406
499.61
481.58
454.338
419.555
381.977
342.737
307.658
278.802
254.128
259.146
252.16
225.63
396.851
396.975
396.912
396.044
393.811
389.939
385.458
381.306
380.455
375.404
358.162
324.599
286.206
259.676
242.855
223.771
207.756
188.674
175.842
178.644
158.794
126.398
252.49
253.086
253.853
253.935
252.364
248.057
241.593
236.128
246.991
264.154
239.916
202.072
189.128
162.34
151.54
151.119
155.615
156.854
155.474
160.257
154.905
149.768
59.6306
59.9648
60.4891
61.4562
62.7049
64.0241
64.4094
57.2971
59.8887
79.8128
70.4359
44.7856
49.39
63.6943
85.6013
105.996
112.211
109.262
110.714
110.943
109.896
117.166
134.296
4.72958
4.49413
4.11973
3.61637
3.01916
2.3753
1.64965
1.18024
0.958927
1.88914
2.73299
3.53092
4.67896
8.28058
16.1412
28.9401
35.9272
43.4113
57.0521
72.0909
101.272
113.532
121.595
3.38021
3.42136
3.49816
3.60893
3.75111
3.9221
4.10658
4.15867
4.34336
3.83352
3.57604
3.37143
3.14095
2.99981
2.6088
2.48567
3.10287
3.90968
5.78704
9.75933
19.4194
27.8501
35.7377
4.43145
4.38401
4.30208
4.19988
4.09217
3.9958
3.91761
3.81023
3.6787
3.80358
3.87452
3.92585
4.02452
4.07476
3.95306
3.62726
3.2445
2.93299
2.59343
2.21864
1.90225
1.94687
2.2634
3.03565
3.0635
3.11492
3.18471
3.26601
3.34917
3.41732
3.43609
3.41983
3.41888
3.18546
3.26794
3.25217
3.26021
3.29005
3.38918
3.53342
3.70436
3.89929
4.02561
4.02213
3.79876
3.59939
3.78872
3.76412
3.72659
3.68402
3.64403
3.61358
3.59252
3.57773
3.5978
3.61543
3.49805
3.43244
3.36884
3.29256
3.19586
3.08294
2.92557
2.75482
2.66392
2.56459
2.60435
2.76659
2.95384
3.22761
3.23418
3.2428
3.25271
3.26311
3.26802
3.26507
3.25205
3.23258
3.23117
3.20839
3.21324
3.19035
3.15557
3.11868
3.1074
3.12279
3.16373
3.21071
3.21483
3.19839
3.06889
2.87215
3.16259
3.16229
3.16396
3.16795
3.17306
3.17838
3.18326
3.18461
3.18449
3.18132
3.14408
3.10967
3.07317
3.0308
2.98344
2.93342
2.88303
2.83558
2.79191
2.77035
2.79698
2.84727
2.88877
3.04946
3.04886
3.04886
3.04989
3.05094
3.052
3.05205
3.04966
3.04395
3.03511
3.01296
2.98797
2.95979
2.9264
2.88814
2.84687
2.81066
2.78782
2.77751
2.76965
2.75701
2.73226
2.70034
2.92491
2.9252
2.92561
2.92583
2.92549
2.925
2.92345
2.91968
2.9134
2.90392
2.88773
2.86758
2.84497
2.81849
2.79022
2.76243
)
;

boundaryField
{
    leftWall
    {
        type            fixedFluxPressure;
        gradient        uniform 0;
        value           nonuniform List<scalar> 
26
(
8285.59
7484.98
6680.1
5870.87
5057.23
4241.43
3426.09
2600.22
1278.35
1007.71
997.56
793.122
679.295
537.355
396.851
252.49
59.6306
4.72958
3.38021
4.43145
3.03565
3.78872
3.22761
3.16259
3.04946
2.92491
)
;
    }
    rightWall
    {
        type            fixedFluxPressure;
        gradient        nonuniform 0();
        value           nonuniform 0();
    }
    lowerWall
    {
        type            fixedFluxPressure;
        gradient        nonuniform List<scalar> 
22
(
132719
132719
132719
132719
132719
132719
132719
132719
132719
132719
132719
132719
132719
132719
132719
132719
132719
132719
132719
132719
132719
132707
)
;
        value           nonuniform List<scalar> 
22
(
8683.74
8659.81
8614.36
8544.05
8449.11
8353.71
8184.54
8062.53
7884.04
7667.09
7462.5
7268.35
7056.61
6876.17
6742.52
6676.39
6731.39
6999.24
7601.63
8494.95
9618.26
10716.2
)
;
    }
    atmosphere
    {
        type            totalPressure;
        U               U.air;
        phi             phi.air;
        rho             rho;
        psi             none;
        gamma           1;
        p0              nonuniform 0();
        value           nonuniform 0();
    }
    defaultFaces
    {
        type            empty;
    }
    procBoundary0to1
    {
        type            processor;
        value           nonuniform List<scalar> 
26
(
10889.8
10056.1
9179.6
8249.99
7176.7
5922.78
4412.22
2719.51
194.213
1087.29
782.746
557.912
340.217
189.709
123.834
151.651
151.651
140.622
125.993
37.3887
2.66361
3.40133
3.10623
2.9016
2.90346
2.70652
)
;
    }
    procBoundary0to2
    {
        type            processor;
        value           nonuniform List<scalar> 
24
(
2.73387
2.71316
2.70229
2.6946
2.68749
2.6818
2.67591
2.80308
2.80301
2.80274
2.80215
2.80105
2.79916
2.79617
2.79168
2.78543
2.77647
2.76345
2.7462
2.7268
2.70462
2.68006
2.73387
2.65461
)
;
    }
}


// ************************************************************************* //
