/*--------------------------------*- C++ -*----------------------------------*\
| =========                 |                                                 |
| \\      /  F ield         | OpenFOAM: The Open Source CFD Toolbox           |
|  \\    /   O peration     | Version:  2.4.0                                 |
|   \\  /    A nd           | Web:      www.OpenFOAM.org                      |
|    \\/     M anipulation  |                                                 |
\*---------------------------------------------------------------------------*/
FoamFile
{
    version     2.0;
    format      ascii;
    class       surfaceScalarField;
    location    "0.3";
    object      phi;
}
// * * * * * * * * * * * * * * * * * * * * * * * * * * * * * * * * * * * * * //

dimensions      [0 3 -1 0 0 0 0];

internalField   nonuniform List<scalar> 
1101
(
3.48176e-06
-3.48176e-06
6.9798e-06
-3.49805e-06
1.04597e-05
-3.47991e-06
1.41008e-05
-3.6411e-06
1.73541e-05
-3.25324e-06
2.16619e-05
-4.30785e-06
2.44958e-05
-2.83389e-06
2.84672e-05
-3.97141e-06
3.30927e-05
-4.62547e-06
3.68472e-05
-3.75453e-06
3.97459e-05
-2.89868e-06
4.30905e-05
-3.34459e-06
4.72307e-05
-4.14022e-06
5.19774e-05
-4.74674e-06
5.59262e-05
-3.94876e-06
5.79209e-05
-1.99471e-06
5.76564e-05
2.64514e-07
5.49936e-05
2.66279e-06
4.95578e-05
5.43581e-06
3.99071e-05
9.65067e-06
2.75474e-05
1.23597e-05
1.48133e-05
3.48255e-06
-6.96431e-06
6.98162e-06
-6.99712e-06
1.04593e-05
-6.95762e-06
1.40997e-05
-7.28142e-06
1.74087e-05
-6.56228e-06
2.1547e-05
-8.44613e-06
2.45588e-05
-5.84572e-06
2.8587e-05
-7.99962e-06
3.30994e-05
-9.13789e-06
3.6703e-05
-7.3581e-06
3.97139e-05
-5.90957e-06
4.32981e-05
-6.92881e-06
4.78816e-05
-8.72372e-06
5.2507e-05
-9.37208e-06
5.62742e-05
-7.71602e-06
5.80128e-05
-3.73329e-06
5.79061e-05
3.71264e-07
5.53452e-05
5.22365e-06
5.00549e-05
1.07261e-05
4.2021e-05
1.76846e-05
3.01614e-05
2.42193e-05
2.96133e-05
3.4797e-06
-1.0444e-05
6.97137e-06
-1.04888e-05
1.04514e-05
-1.04376e-05
1.40769e-05
-1.09069e-05
1.74486e-05
-9.93399e-06
2.1364e-05
-1.23615e-05
2.46974e-05
-9.17916e-06
2.87092e-05
-1.20114e-05
3.27997e-05
-1.32284e-05
3.63679e-05
-1.09263e-05
3.99642e-05
-9.50586e-06
4.42415e-05
-1.12061e-05
4.83897e-05
-1.2872e-05
5.24331e-05
-1.34154e-05
5.58837e-05
-1.11667e-05
5.77641e-05
-5.61367e-06
5.81967e-05
-6.13844e-08
5.74138e-05
6.00655e-06
5.28455e-05
1.52944e-05
4.5147e-05
2.53831e-05
2.94177e-05
3.99486e-05
4.34752e-05
3.47572e-06
-1.39197e-05
6.95506e-06
-1.39681e-05
1.04448e-05
-1.39274e-05
1.40398e-05
-1.45019e-05
1.74669e-05
-1.33611e-05
2.1206e-05
-1.61006e-05
2.4775e-05
-1.27481e-05
2.87253e-05
-1.59617e-05
3.24284e-05
-1.69315e-05
3.59633e-05
-1.44612e-05
4.06164e-05
-1.41589e-05
4.50855e-05
-1.56752e-05
4.88988e-05
-1.66853e-05
5.19865e-05
-1.65031e-05
5.49579e-05
-1.41381e-05
5.68282e-05
-7.48397e-06
5.94321e-05
-2.66527e-06
6.11097e-05
4.32893e-06
5.86516e-05
1.77525e-05
5.19887e-05
3.2046e-05
3.57512e-05
5.61861e-05
6.2998e-05
3.46928e-06
-1.7389e-05
6.93587e-06
-1.74347e-05
1.04265e-05
-1.7418e-05
1.40003e-05
-1.80757e-05
1.74239e-05
-1.67847e-05
2.10734e-05
-1.97501e-05
2.48096e-05
-1.64843e-05
2.86128e-05
-1.97649e-05
3.20836e-05
-2.04023e-05
3.59434e-05
-1.8321e-05
4.11915e-05
-1.94071e-05
4.54714e-05
-1.99551e-05
4.91079e-05
-2.03218e-05
5.17269e-05
-1.91221e-05
5.45041e-05
-1.69153e-05
5.86508e-05
-1.16307e-05
6.43135e-05
-8.32794e-06
6.62476e-05
2.39485e-06
6.36055e-05
2.03945e-05
5.53358e-05
4.03158e-05
4.00852e-05
7.14367e-05
8.19003e-05
3.46385e-06
-2.08529e-05
6.92182e-06
-2.08927e-05
1.04123e-05
-2.09085e-05
1.39537e-05
-2.16171e-05
1.73705e-05
-2.02015e-05
2.10314e-05
-2.3411e-05
2.4881e-05
-2.03339e-05
2.84253e-05
-2.33092e-05
3.19909e-05
-2.3968e-05
3.65094e-05
-2.28395e-05
4.13394e-05
-2.42371e-05
4.54513e-05
-2.40669e-05
4.98403e-05
-2.47108e-05
5.23657e-05
-2.16475e-05
5.52209e-05
-1.97705e-05
5.79053e-05
-1.43151e-05
5.76443e-05
-8.06698e-06
5.85296e-05
1.50959e-06
5.73613e-05
2.15628e-05
4.77634e-05
4.99137e-05
3.93946e-05
7.98055e-05
9.88289e-05
3.47477e-06
-2.43276e-05
6.94759e-06
-2.43655e-05
1.04474e-05
-2.44084e-05
1.39326e-05
-2.51022e-05
1.74799e-05
-2.37489e-05
2.09347e-05
-2.68657e-05
2.52168e-05
-2.46161e-05
2.82403e-05
-2.63326e-05
3.20939e-05
-2.78216e-05
3.68967e-05
-2.76423e-05
4.07846e-05
-2.8125e-05
4.39144e-05
-2.71968e-05
4.63835e-05
-2.71798e-05
4.62274e-05
-2.14914e-05
4.2194e-05
-1.57371e-05
3.30512e-05
-5.17229e-06
2.40215e-05
9.62722e-07
2.41441e-05
1.38697e-06
3.15225e-05
1.41844e-05
3.2787e-05
4.86493e-05
3.0887e-05
8.17055e-05
0.000108208
3.49536e-06
-2.7823e-05
6.99216e-06
-2.78623e-05
1.04967e-05
-2.79129e-05
1.38404e-05
-2.8446e-05
1.76587e-05
-2.75672e-05
2.0754e-05
-2.9961e-05
2.52453e-05
-2.91074e-05
2.81901e-05
-2.92774e-05
3.16777e-05
-3.13092e-05
3.53804e-05
-3.1345e-05
3.67142e-05
-2.94588e-05
3.5762e-05
-2.62445e-05
3.00327e-05
-2.14505e-05
2.3874e-05
-1.53327e-05
2.01789e-05
-1.2042e-05
2.52816e-05
-1.02751e-05
3.091e-05
-4.66568e-06
2.75382e-05
4.75883e-06
2.50087e-05
1.67138e-05
2.36509e-05
5.00071e-05
1.83871e-05
8.69693e-05
0.000108929
7.55495e-06
-3.53779e-05
1.50288e-05
-3.53361e-05
2.2143e-05
-3.50272e-05
2.83879e-05
-3.46908e-05
3.55765e-05
-3.47557e-05
4.02873e-05
-3.46717e-05
4.51391e-05
-3.39593e-05
4.98938e-05
-3.40321e-05
5.07099e-05
-3.21253e-05
4.8885e-05
-2.95202e-05
4.81125e-05
-2.86863e-05
4.98068e-05
-2.79388e-05
5.65292e-05
-2.8173e-05
6.63024e-05
-2.51059e-05
7.50536e-05
-2.07932e-05
7.64091e-05
-1.16305e-05
7.09161e-05
8.27269e-07
6.69233e-05
8.75167e-06
5.99114e-05
2.37257e-05
5.46667e-05
5.52518e-05
4.07598e-05
0.000100876
9.90181e-05
4.0746e-06
-3.94525e-05
8.24828e-06
-3.95098e-05
1.21204e-05
-3.88993e-05
1.59954e-05
-3.85659e-05
1.97751e-05
-3.85355e-05
2.37786e-05
-3.86752e-05
2.75556e-05
-3.77363e-05
3.37111e-05
-4.01876e-05
3.92332e-05
-3.76474e-05
4.70521e-05
-3.73391e-05
5.8112e-05
-3.97462e-05
6.94446e-05
-3.92715e-05
7.70982e-05
-3.58266e-05
8.32196e-05
-3.12272e-05
8.58465e-05
-2.34202e-05
9.34744e-05
-1.92583e-05
0.000103281
-8.97964e-06
0.000107276
4.75664e-06
0.000103169
2.78327e-05
0.000101912
5.65095e-05
9.33144e-05
0.000109474
0.000117724
4.67024e-06
-4.41228e-05
9.64839e-06
-4.44879e-05
1.50437e-05
-4.42945e-05
2.10686e-05
-4.45908e-05
2.71364e-05
-4.46032e-05
3.35882e-05
-4.5127e-05
4.00131e-05
-4.41612e-05
4.68651e-05
-4.70395e-05
5.36828e-05
-4.44652e-05
6.19646e-05
-4.56209e-05
6.96937e-05
-4.74753e-05
7.70134e-05
-4.65911e-05
8.39972e-05
-4.28104e-05
9.2336e-05
-3.95661e-05
0.000103298
-3.43824e-05
0.000114369
-3.03287e-05
0.000120473
-1.5084e-05
0.000127191
-1.96164e-06
0.00013016
2.48638e-05
0.000135785
5.08845e-05
0.000149169
9.60896e-05
0.000144238
6.12876e-06
-5.02515e-05
1.21392e-05
-5.04983e-05
1.8261e-05
-5.04164e-05
2.41098e-05
-5.04396e-05
2.99915e-05
-5.04849e-05
3.57512e-05
-5.08867e-05
4.17001e-05
-5.01102e-05
4.76138e-05
-5.29532e-05
5.35451e-05
-5.03965e-05
6.17759e-05
-5.38517e-05
6.9209e-05
-5.49084e-05
7.68927e-05
-5.42748e-05
8.69234e-05
-5.28411e-05
9.86008e-05
-5.12434e-05
0.000111243
-4.70242e-05
0.000122677
-4.17632e-05
0.000132633
-2.50403e-05
0.000143149
-1.24774e-05
0.000151833
1.61801e-05
0.000155792
4.6925e-05
0.000175488
7.63936e-05
0.00014215
5.89385e-06
-5.61454e-05
1.17596e-05
-5.63641e-05
1.76764e-05
-5.63332e-05
2.33974e-05
-5.61606e-05
2.9031e-05
-5.61185e-05
3.42869e-05
-5.61426e-05
4.00637e-05
-5.5887e-05
4.50344e-05
-5.79239e-05
5.12603e-05
-5.66224e-05
5.98224e-05
-6.24138e-05
6.74067e-05
-6.24926e-05
7.70478e-05
-6.39159e-05
9.08875e-05
-6.66808e-05
0.000104574
-6.49298e-05
0.00011728
-5.97301e-05
0.000127608
-5.20917e-05
0.000139044
-3.64758e-05
0.000148099
-2.15324e-05
0.000155327
8.95248e-06
0.000161809
4.04424e-05
0.00017551
6.26925e-05
0.000124229
5.82731e-06
-6.19727e-05
1.16846e-05
-6.22214e-05
1.7438e-05
-6.20866e-05
2.31783e-05
-6.19009e-05
2.87139e-05
-6.16541e-05
3.4029e-05
-6.14577e-05
3.97603e-05
-6.16183e-05
4.44403e-05
-6.26039e-05
5.11065e-05
-6.32886e-05
5.85693e-05
-6.98765e-05
6.7175e-05
-7.10983e-05
7.88932e-05
-7.56342e-05
9.03735e-05
-7.81611e-05
9.87638e-05
-7.33201e-05
0.000104858
-6.58241e-05
0.00010948
-5.6714e-05
0.000113443
-4.04386e-05
0.000115597
-2.36862e-05
0.000120683
3.86559e-06
0.000134576
2.65501e-05
0.000149563
4.77057e-05
9.46422e-05
6.02904e-06
-6.80017e-05
1.2065e-05
-6.82573e-05
1.79904e-05
-6.8012e-05
2.37616e-05
-6.7672e-05
2.92953e-05
-6.71878e-05
3.45459e-05
-6.67083e-05
3.91732e-05
-6.62456e-05
4.2408e-05
-6.58387e-05
4.6689e-05
-6.75696e-05
5.16408e-05
-7.48283e-05
5.98114e-05
-7.92689e-05
6.41151e-05
-7.99379e-05
6.21094e-05
-7.61554e-05
5.63241e-05
-6.75348e-05
4.75707e-05
-5.70707e-05
3.78571e-05
-4.70004e-05
3.26715e-05
-3.52529e-05
3.40632e-05
-2.5078e-05
4.44441e-05
-6.51528e-06
6.53205e-05
5.67365e-06
8.70796e-05
2.59467e-05
5.15345e-05
6.14824e-06
-7.415e-05
1.22158e-05
-7.43249e-05
1.82104e-05
-7.40067e-05
2.40083e-05
-7.34699e-05
2.94725e-05
-7.2652e-05
3.43229e-05
-7.15587e-05
3.77642e-05
-6.9687e-05
3.86579e-05
-6.67323e-05
3.79663e-05
-6.68781e-05
3.82563e-05
-7.51184e-05
3.4152e-05
-7.51646e-05
1.94255e-05
-6.52114e-05
4.29771e-06
-6.10276e-05
-7.50455e-06
-5.57325e-05
-1.09519e-05
-5.36233e-05
-1.01977e-05
-4.77546e-05
-7.43058e-06
-3.802e-05
-1.94083e-08
-3.24892e-05
1.13292e-05
-1.78639e-05
2.68228e-05
-9.81994e-06
4.00871e-05
1.26824e-05
2.25892e-05
6.60623e-06
-8.07562e-05
1.30404e-05
-8.0759e-05
1.92829e-05
-8.02491e-05
2.53278e-05
-7.95148e-05
3.09643e-05
-7.82886e-05
3.61188e-05
-7.67131e-05
4.08477e-05
-7.44159e-05
3.91991e-05
-6.50838e-05
2.6114e-05
-5.37929e-05
5.6986e-06
-5.4703e-05
-2.29003e-05
-4.65657e-05
-4.36234e-05
-4.44883e-05
-4.34671e-05
-6.11839e-05
-3.74067e-05
-6.17929e-05
-2.97756e-05
-6.12545e-05
-2.03751e-05
-5.71551e-05
-9.43673e-06
-4.89584e-05
5.26809e-07
-4.24527e-05
1.116e-05
-2.84971e-05
2.26166e-05
-2.12766e-05
3.45127e-05
7.86337e-07
5.07817e-05
6.32028e-06
3.092e-05
6.06054e-06
-8.68168e-05
1.16632e-05
-8.63617e-05
1.72343e-05
-8.58202e-05
2.24877e-05
-8.47682e-05
2.76252e-05
-8.34261e-05
3.40231e-05
-8.3111e-05
4.1061e-05
-8.14538e-05
4.02137e-05
-6.42364e-05
-9.87589e-07
-1.25917e-05
-6.73849e-05
1.16943e-05
-9.79692e-05
-1.59813e-05
-8.35643e-05
-5.88932e-05
-6.06391e-05
-8.41091e-05
-4.35998e-05
-7.88322e-05
-2.85247e-05
-7.63295e-05
-1.49577e-05
-7.07221e-05
-4.07093e-06
-5.98452e-05
4.94264e-06
-5.14663e-05
1.73608e-05
-4.09153e-05
3.02511e-05
-3.41669e-05
4.82292e-05
-1.71918e-05
6.20487e-05
-7.49918e-06
9.07998e-06
-1.35819e-05
-7.32349e-05
-2.69672e-05
-7.29764e-05
-3.96217e-05
-7.31657e-05
-5.05424e-05
-7.38475e-05
-5.7497e-05
-7.64715e-05
-5.69769e-05
-8.36311e-05
-4.71044e-05
-9.13263e-05
-2.1532e-05
-8.98088e-05
-3.96295e-06
-3.01607e-05
-4.96538e-05
5.73851e-05
-5.40322e-05
-1.16029e-05
-1.23696e-05
-0.000100556
2.14679e-06
-9.86255e-05
1.03628e-05
-8.70481e-05
9.70526e-06
-7.5672e-05
1.09991e-05
-7.20159e-05
1.73259e-05
-6.6172e-05
2.47055e-05
-5.88458e-05
3.67686e-05
-5.29784e-05
4.74682e-05
-4.48665e-05
5.9648e-05
-2.93716e-05
7.62704e-05
-2.41216e-05
-1.22236e-05
-1.35871e-05
-5.96478e-05
-2.46668e-05
-6.18967e-05
-3.28007e-05
-6.50318e-05
-3.68008e-05
-6.98474e-05
-3.76181e-05
-7.56542e-05
-3.87808e-05
-8.24684e-05
-4.53417e-05
-8.47654e-05
-5.76098e-05
-7.75406e-05
-5.08371e-05
-3.69334e-05
-3.3496e-06
9.89761e-06
5.39112e-05
-6.88636e-05
6.28968e-05
-0.000109541
7.75127e-05
-0.000113241
9.77211e-05
-0.000107257
0.000114536
-9.24871e-05
0.000112156
-6.96358e-05
9.845e-05
-5.24659e-05
8.11349e-05
-4.15308e-05
6.52832e-05
-3.71267e-05
5.77163e-05
-3.72996e-05
6.42043e-05
-3.58596e-05
7.12847e-05
-3.1202e-05
-1.84641e-05
-7.2689e-06
-5.23789e-05
-1.22936e-05
-5.6872e-05
-1.58297e-05
-6.14957e-05
-1.82992e-05
-6.73778e-05
-2.02277e-05
-7.37257e-05
-2.2466e-05
-8.02301e-05
-2.449e-05
-8.27414e-05
-2.641e-05
-7.56206e-05
-2.29161e-05
-4.04273e-05
6.84921e-06
-1.98677e-05
1.51205e-05
-7.71349e-05
9.46119e-06
-0.000103882
2.54376e-06
-0.000106324
-3.98175e-06
-0.000100731
-5.5502e-06
-9.09187e-05
1.29824e-06
-7.64842e-05
1.24751e-05
-6.36428e-05
2.22651e-05
-5.13208e-05
3.05593e-05
-4.54208e-05
3.61568e-05
-4.2897e-05
2.92886e-05
-2.89914e-05
1.56397e-05
-1.75531e-05
4.81724e-07
-2.28196e-06
-5.00969e-05
-4.25067e-06
-5.49033e-05
-6.37886e-06
-5.93675e-05
-9.12e-06
-6.46367e-05
-1.29388e-05
-6.99069e-05
-1.88035e-05
-7.43655e-05
-2.55504e-05
-7.59945e-05
-2.87534e-05
-7.24176e-05
-6.52904e-06
-6.26517e-05
3.06485e-05
-5.70452e-05
3.42669e-05
-8.07533e-05
2.08301e-05
-9.04455e-05
9.88554e-06
-9.53794e-05
2.82032e-06
-9.36658e-05
7.43859e-07
-8.88422e-05
1.05238e-06
-7.67927e-05
1.37673e-07
-6.2728e-05
1.43031e-07
-5.13262e-05
-8.73168e-07
-4.44046e-05
-9.77415e-06
-3.3996e-05
-1.99932e-05
-1.87724e-05
-1.74336e-05
-2.01127e-05
3.95717e-07
1.45893e-06
-5.15558e-05
2.5993e-06
-5.60437e-05
2.53482e-06
-5.9303e-05
1.15779e-06
-6.32596e-05
-1.51109e-06
-6.7238e-05
-5.45107e-06
-7.04255e-05
-9.78039e-06
-7.16651e-05
-1.21821e-05
-7.0016e-05
-9.07333e-06
-6.57604e-05
-1.95937e-06
-6.41591e-05
-4.8919e-06
-7.78208e-05
-9.9751e-06
-8.53622e-05
-1.33463e-05
-9.20082e-05
-1.36699e-05
-9.33422e-05
-1.26238e-05
-8.98883e-05
-9.93311e-06
-7.94834e-05
-8.05387e-06
-6.46073e-05
-9.23599e-06
-5.01441e-05
-1.68256e-05
-3.6815e-05
-3.09741e-05
-1.98475e-05
-5.11899e-05
1.44349e-06
-7.12169e-05
-8.56551e-08
3.69959e-06
8.73425e-07
-5.24293e-05
1.55963e-06
-5.67299e-05
1.44198e-06
-5.91853e-05
2.80237e-07
-6.20979e-05
-2.07792e-06
-6.48799e-05
-5.80897e-06
-6.66944e-05
-1.03221e-05
-6.7152e-05
-1.38212e-05
-6.65169e-05
-1.43595e-05
-6.52221e-05
-1.28145e-05
-6.57041e-05
-1.6777e-05
-7.38583e-05
-2.12367e-05
-8.09026e-05
-2.66585e-05
-8.65864e-05
-3.23679e-05
-8.76328e-05
-3.9283e-05
-8.29732e-05
-4.6467e-05
-7.22995e-05
-5.48476e-05
-5.62266e-05
-6.38286e-05
-4.11631e-05
-7.27264e-05
-2.79173e-05
-7.58773e-05
-1.66966e-05
-6.65087e-05
-7.92518e-06
-5.75558e-05
-9.03853e-06
-7.73124e-06
8.46835e-07
-5.32761e-05
1.21653e-06
-5.70996e-05
8.29133e-07
-5.87979e-05
-6.56178e-07
-6.06126e-05
-3.61906e-06
-6.1917e-05
-7.66069e-06
-6.26528e-05
-1.19276e-05
-6.28851e-05
-1.56424e-05
-6.28021e-05
-1.7785e-05
-6.30795e-05
-1.86355e-05
-6.48536e-05
-2.26889e-05
-6.98049e-05
-2.87243e-05
-7.48672e-05
-3.83628e-05
-7.69479e-05
-4.90725e-05
-7.69231e-05
-5.7453e-05
-7.45927e-05
-6.41596e-05
-6.55928e-05
-7.0435e-05
-7.46288e-05
-7.57231e-05
-7.49159e-05
-7.21035e-05
-7.32154e-05
1.18179e-08
-4.85495e-07
-1.90084e-06
-4.19142e-06
-7.09858e-06
-1.0332e-05
-1.35266e-05
-1.63596e-05
-1.8784e-05
-2.13079e-05
-2.63467e-05
-3.484e-05
-4.55614e-05
-5.60753e-05
-6.64868e-05
)
;

boundaryField
{
    leftWall
    {
        type            calculated;
        value           uniform 0;
    }
    rightWall
    {
        type            calculated;
        value           nonuniform 0();
    }
    lowerWall
    {
        type            calculated;
        value           nonuniform List<scalar> 
22
(
7.15672e-23
1.45967e-22
5.86945e-23
-5.19594e-23
4.90907e-23
-3.61785e-23
7.94552e-23
4.66708e-23
6.04135e-23
-1.64117e-23
2.58569e-23
-9.36562e-23
-1.92488e-24
-1.01512e-22
1.08696e-23
-1.11934e-22
8.48926e-23
6.38984e-23
3.27975e-23
6.26728e-24
3.18422e-23
-1.38727e-22
)
;
    }
    atmosphere
    {
        type            calculated;
        value           nonuniform 0();
    }
    defaultFaces
    {
        type            empty;
        value           nonuniform 0();
    }
    procBoundary0to1
    {
        type            processor;
        value           nonuniform List<scalar> 
26
(
1.27341e-05
1.53615e-05
1.55558e-05
1.62283e-05
2.11829e-05
2.2466e-05
2.15082e-05
1.76652e-05
5.06712e-05
7.46084e-05
0.000122655
0.000177577
0.000193431
0.00017915
0.000130187
6.90323e-05
-6.25027e-05
8.23644e-05
8.38887e-05
9.7574e-05
7.75252e-05
-3.30607e-06
-1.73476e-05
-7.45208e-05
-4.6125e-05
-7.42405e-05
)
;
    }
    procBoundary0to2
    {
        type            processor;
        value           nonuniform List<scalar> 
24
(
-4.99512e-05
-3.69693e-05
-2.6823e-05
-1.75038e-05
-1.07376e-05
-7.92655e-06
-6.70619e-06
-5.32879e-05
-5.66022e-05
-5.73826e-05
-5.8322e-05
-5.90098e-05
-5.94193e-05
-5.96905e-05
-5.9969e-05
-6.06552e-05
-6.23296e-05
-6.47662e-05
-6.63739e-05
-6.62265e-05
-6.64092e-05
-6.41811e-05
-7.53592e-05
-5.67204e-05
)
;
    }
}


// ************************************************************************* //
