/*--------------------------------*- C++ -*----------------------------------*\
| =========                 |                                                 |
| \\      /  F ield         | OpenFOAM: The Open Source CFD Toolbox           |
|  \\    /   O peration     | Version:  2.4.0                                 |
|   \\  /    A nd           | Web:      www.OpenFOAM.org                      |
|    \\/     M anipulation  |                                                 |
\*---------------------------------------------------------------------------*/
FoamFile
{
    version     2.0;
    format      ascii;
    class       surfaceScalarField;
    location    "0.3";
    object      phi.oil;
}
// * * * * * * * * * * * * * * * * * * * * * * * * * * * * * * * * * * * * * //

dimensions      [0 3 -1 0 0 0 0];

internalField   nonuniform List<scalar> 
1101
(
3.48176e-06
-3.48173e-06
6.97982e-06
-3.49802e-06
1.04598e-05
-3.47988e-06
1.41009e-05
-3.64107e-06
1.73541e-05
-3.25321e-06
2.1662e-05
-4.30781e-06
2.44959e-05
-2.83385e-06
2.84673e-05
-3.97137e-06
3.30928e-05
-4.62544e-06
3.68473e-05
-3.7545e-06
3.9746e-05
-2.89862e-06
4.30906e-05
-3.34398e-06
4.72309e-05
-4.13794e-06
5.19777e-05
-4.74205e-06
5.59264e-05
-3.94137e-06
5.79209e-05
-1.98348e-06
5.76555e-05
2.82942e-07
5.49864e-05
2.708e-06
4.95163e-05
5.55037e-06
3.96376e-05
9.86719e-06
2.546e-05
1.28828e-05
1.77428e-05
3.48256e-06
-6.96425e-06
6.98164e-06
-6.99707e-06
1.04594e-05
-6.95756e-06
1.40997e-05
-7.28135e-06
1.74088e-05
-6.5622e-06
2.15471e-05
-8.44604e-06
2.45589e-05
-5.84562e-06
2.85871e-05
-7.99952e-06
3.30995e-05
-9.1378e-06
3.67031e-05
-7.35802e-06
3.9714e-05
-5.90933e-06
4.32986e-05
-6.92669e-06
4.78824e-05
-8.71495e-06
5.25077e-05
-9.35026e-06
5.62749e-05
-7.67647e-06
5.80125e-05
-3.66397e-06
5.7902e-05
5.26015e-07
5.53087e-05
5.53171e-06
4.99881e-05
1.13903e-05
4.18104e-05
1.86384e-05
2.8099e-05
2.53046e-05
3.32686e-05
3.47971e-06
-1.04439e-05
6.97139e-06
-1.04887e-05
1.04514e-05
-1.04376e-05
1.4077e-05
-1.09069e-05
1.74487e-05
-9.93388e-06
2.13641e-05
-1.23614e-05
2.46975e-05
-9.17905e-06
2.87093e-05
-1.20113e-05
3.27998e-05
-1.32283e-05
3.6368e-05
-1.09262e-05
3.99645e-05
-9.50543e-06
4.4243e-05
-1.12011e-05
4.83924e-05
-1.28203e-05
5.24342e-05
-1.31473e-05
5.58832e-05
-1.05498e-05
5.77585e-05
-4.79668e-06
5.81349e-05
8.95707e-07
5.72158e-05
7.65297e-06
5.25074e-05
1.752e-05
4.47888e-05
2.79426e-05
2.7565e-05
4.22304e-05
4.76312e-05
3.47573e-06
-1.39196e-05
6.95508e-06
-1.3968e-05
1.04449e-05
-1.39273e-05
1.40399e-05
-1.45018e-05
1.7467e-05
-1.33609e-05
2.12061e-05
-1.61004e-05
2.47751e-05
-1.2748e-05
2.87254e-05
-1.59615e-05
3.24284e-05
-1.69313e-05
3.59634e-05
-1.44611e-05
4.06173e-05
-1.41584e-05
4.50939e-05
-1.56622e-05
4.88381e-05
-1.64796e-05
5.19054e-05
-1.54567e-05
5.4942e-05
-1.12906e-05
5.67933e-05
-2.06411e-06
5.92184e-05
6.21382e-06
6.08636e-05
1.42039e-05
5.81389e-05
2.74567e-05
5.13571e-05
3.99771e-05
3.41532e-05
6.13558e-05
6.85931e-05
3.46929e-06
-1.73889e-05
6.93589e-06
-1.74346e-05
1.04265e-05
-1.74179e-05
1.40003e-05
-1.80756e-05
1.7424e-05
-1.67845e-05
2.10735e-05
-1.97499e-05
2.48096e-05
-1.6484e-05
2.86129e-05
-1.97638e-05
3.20837e-05
-2.03928e-05
3.59435e-05
-1.82923e-05
4.1194e-05
-1.93382e-05
4.54678e-05
-1.97894e-05
4.86787e-05
-1.98242e-05
5.0854e-05
-1.76186e-05
5.38674e-05
-1.12914e-05
5.83616e-05
9.62429e-07
6.43446e-05
1.51444e-05
6.50966e-05
3.77388e-05
6.17645e-05
6.10847e-05
5.28471e-05
7.71283e-05
3.78823e-05
9.08149e-05
9.14056e-05
3.46386e-06
-2.08397e-05
6.92184e-06
-2.08757e-05
1.04124e-05
-2.0885e-05
1.39538e-05
-2.15802e-05
1.73706e-05
-2.01534e-05
2.10314e-05
-2.33205e-05
2.4881e-05
-2.022e-05
2.84247e-05
-2.3124e-05
3.19926e-05
-2.36652e-05
3.65174e-05
-2.24779e-05
4.13532e-05
-2.40607e-05
4.54264e-05
-2.46878e-05
4.93684e-05
-2.75859e-05
4.89635e-05
-2.79119e-05
4.90526e-05
-2.97768e-05
5.38007e-05
-1.71494e-05
5.53839e-05
1.12218e-05
5.99276e-05
2.18858e-05
5.60604e-05
4.66451e-05
3.81383e-05
8.47538e-05
2.72097e-05
0.000115673
0.000122054
3.47511e-06
-2.40057e-05
6.94835e-06
-2.40328e-05
1.04491e-05
-2.40639e-05
1.39354e-05
-2.47539e-05
1.74857e-05
-2.34234e-05
2.09425e-05
-2.67676e-05
2.52281e-05
-2.47737e-05
2.82497e-05
-2.71202e-05
3.20911e-05
-2.9762e-05
3.68553e-05
-3.129e-05
4.06609e-05
-3.44281e-05
4.3654e-05
-3.8045e-05
4.61755e-05
-4.5761e-05
4.26064e-05
-4.66334e-05
3.22594e-05
-4.20736e-05
2.68512e-05
-2.06665e-05
2.17021e-05
9.33147e-06
2.31794e-05
1.31101e-05
2.77707e-05
2.75289e-05
2.25898e-05
6.49073e-05
1.74858e-05
9.8954e-05
0.000141283
3.49549e-06
-2.93932e-05
6.99154e-06
-2.95729e-05
1.04929e-05
-2.99106e-05
1.38306e-05
-3.09442e-05
1.76287e-05
-3.05844e-05
2.06918e-05
-3.42859e-05
2.51059e-05
-3.45958e-05
2.79828e-05
-3.69414e-05
3.12259e-05
-4.22322e-05
3.46494e-05
-4.62127e-05
3.59586e-05
-4.84057e-05
3.54026e-05
-5.03342e-05
3.11174e-05
-4.78077e-05
2.27822e-05
-3.08794e-05
1.51075e-05
-1.29588e-05
2.24021e-05
-4.65624e-06
2.93661e-05
1.24844e-05
2.4197e-05
2.22576e-05
2.16995e-05
3.4131e-05
1.82476e-05
6.64719e-05
6.34302e-06
0.000107454
0.000128786
7.38762e-06
-5.46755e-05
1.47212e-05
-5.48948e-05
2.17563e-05
-5.51075e-05
2.79673e-05
-5.55639e-05
3.51615e-05
-5.64586e-05
4.00311e-05
-5.78967e-05
4.49101e-05
-5.8614e-05
4.97808e-05
-6.03963e-05
5.03616e-05
-6.04283e-05
4.93329e-05
-5.46035e-05
4.97136e-05
-4.27487e-05
5.13296e-05
-3.50173e-05
5.81978e-05
-3.11538e-05
5.89699e-05
-2.5964e-05
6.24469e-05
-1.94857e-05
6.42144e-05
-6.20878e-06
6.4304e-05
1.04694e-05
6.03401e-05
2.22542e-05
5.31304e-05
4.00474e-05
5.08754e-05
7.33939e-05
2.97116e-05
0.000121703
0.000116664
4.12595e-06
-5.16245e-05
8.35734e-06
-5.0625e-05
1.22971e-05
-4.83926e-05
1.62021e-05
-4.61075e-05
2.00756e-05
-4.4258e-05
2.39935e-05
-4.27341e-05
2.77296e-05
-4.0423e-05
3.37806e-05
-4.16361e-05
3.92268e-05
-3.83615e-05
4.70239e-05
-3.75288e-05
5.81161e-05
-3.97582e-05
6.95196e-05
-3.92673e-05
7.50254e-05
-3.57778e-05
7.52239e-05
-3.08671e-05
7.57969e-05
-2.2076e-05
8.41562e-05
-1.5622e-05
9.46109e-05
-1.85589e-06
0.00010186
2.39598e-05
9.53434e-05
4.84987e-05
9.91905e-05
7.77968e-05
9.66816e-05
0.000131247
0.00013757
4.66926e-06
-4.4133e-05
9.647e-06
-4.44928e-05
1.50433e-05
-4.42942e-05
2.10693e-05
-4.45878e-05
2.71376e-05
-4.46e-05
3.35894e-05
-4.51245e-05
4.00143e-05
-4.41594e-05
4.68662e-05
-4.70383e-05
5.3684e-05
-4.44643e-05
6.19668e-05
-4.56204e-05
6.97134e-05
-4.74819e-05
7.69625e-05
-4.65923e-05
8.19324e-05
-4.22234e-05
8.61197e-05
-3.18839e-05
9.31835e-05
-2.2728e-05
0.000102502
-1.58343e-05
0.000110469
-1.44624e-07
0.000125903
1.61776e-05
0.000127314
4.56351e-05
0.000133627
7.17945e-05
0.000148871
0.000119334
0.000167978
6.12914e-06
-5.02492e-05
1.21399e-05
-5.04961e-05
1.8262e-05
-5.04143e-05
2.41109e-05
-5.04377e-05
2.99927e-05
-5.04834e-05
3.57523e-05
-5.08854e-05
4.17012e-05
-5.01092e-05
4.76149e-05
-5.29524e-05
5.3547e-05
-5.0396e-05
6.17981e-05
-5.38607e-05
6.92123e-05
-5.49171e-05
7.52427e-05
-3.29314e-05
6.88003e-05
-2.86534e-05
8.33662e-05
-3.1518e-05
0.000102065
-3.09403e-05
0.000123794
-2.5354e-05
0.000133291
-6.5807e-06
0.000144607
7.5075e-06
0.000152814
3.77835e-05
0.000156463
6.83238e-05
0.00017883
9.71087e-05
0.000165668
5.89416e-06
-5.61428e-05
1.17602e-05
-5.63616e-05
1.76772e-05
-5.63309e-05
2.33983e-05
-5.61585e-05
2.90319e-05
-5.61167e-05
3.42878e-05
-5.61411e-05
4.00646e-05
-5.58858e-05
4.50354e-05
-5.7923e-05
5.12656e-05
-5.66225e-05
5.98371e-05
-6.18215e-05
4.32188e-05
-3.24129e-05
6.15028e-05
-4.29381e-05
9.09202e-05
-5.31265e-05
0.00010583
-4.90374e-05
0.0001173
-4.2734e-05
0.000127083
-3.51119e-05
0.000139233
-2.00078e-05
0.000149122
-5.89975e-06
0.000157088
2.68807e-05
0.000164447
5.48299e-05
0.000179432
7.69031e-05
0.000136295
5.82753e-06
-6.19698e-05
1.1685e-05
-6.22186e-05
1.74386e-05
-6.2084e-05
2.31789e-05
-6.18985e-05
2.87145e-05
-6.1652e-05
3.40296e-05
-6.14558e-05
3.9761e-05
-6.16167e-05
4.44421e-05
-6.26026e-05
5.066e-05
-6.29369e-05
3.42858e-05
-3.76679e-05
5.87091e-05
-5.36382e-05
7.81801e-05
-6.10267e-05
8.85618e-05
-6.23193e-05
9.61514e-05
-5.86738e-05
0.000102448
-5.31197e-05
0.000108054
-4.63362e-05
0.000112721
-3.21753e-05
0.000116479
-1.75153e-05
0.000121365
9.56086e-06
0.000135057
3.16495e-05
0.000149275
5.3518e-05
9.84113e-05
6.02917e-06
-6.80166e-05
1.20653e-05
-6.82752e-05
1.79907e-05
-6.80342e-05
2.37619e-05
-6.77019e-05
2.92957e-05
-6.723e-05
3.45463e-05
-6.67703e-05
3.91737e-05
-6.63378e-05
4.22732e-05
-6.59484e-05
2.54741e-05
-3.72943e-05
4.50737e-05
-5.81919e-05
5.7347e-05
-6.52937e-05
6.07126e-05
-6.51086e-05
6.00425e-05
-6.5724e-05
5.53818e-05
-6.09907e-05
4.75974e-05
-5.30086e-05
3.8654e-05
-4.46115e-05
3.33613e-05
-3.41092e-05
3.43259e-05
-2.46069e-05
4.42209e-05
-6.06502e-06
6.46473e-05
6.19405e-06
8.51035e-05
2.67702e-05
5.17003e-05
6.14852e-06
-7.71919e-05
1.22162e-05
-7.75548e-05
1.82106e-05
-7.7551e-05
2.40074e-05
-7.75145e-05
2.94688e-05
-7.7405e-05
3.43159e-05
-7.72971e-05
3.77676e-05
-7.69881e-05
1.8699e-05
-7.41681e-05
2.67952e-05
-7.10251e-05
3.29043e-05
-6.95758e-05
2.9611e-05
-6.59197e-05
1.8213e-05
-6.17258e-05
4.54529e-06
-6.01658e-05
-7.2694e-06
-5.51447e-05
-1.08887e-05
-5.33961e-05
-1.01916e-05
-4.76619e-05
-7.43371e-06
-3.80057e-05
-2.252e-08
-3.2488e-05
1.1324e-05
-1.78636e-05
2.67976e-05
-9.81789e-06
3.98046e-05
1.27101e-05
2.25604e-05
6.61742e-06
-0.000118924
1.30594e-05
-0.000120328
1.93219e-05
-0.000122108
2.53868e-05
-0.000124961
3.10414e-05
-0.000128664
3.6174e-05
-0.000134277
3.66732e-05
-0.000149396
1.47671e-05
-0.000118809
6.68846e-06
-0.000129527
-4.52516e-06
-9.98455e-05
-2.57004e-05
-9.14164e-05
-4.35372e-05
-9.46039e-05
-4.3232e-05
-9.58502e-05
-3.72747e-05
-7.99432e-05
-2.97212e-05
-7.18796e-05
-2.03708e-05
-6.17654e-05
-9.43703e-06
-5.09488e-05
5.26835e-07
-4.31225e-05
1.116e-05
-2.86991e-05
2.26167e-05
-2.13277e-05
3.45129e-05
7.85852e-07
5.06831e-05
6.31996e-06
3.08381e-05
5.52411e-06
-0.000206708
1.08077e-05
-0.000209469
1.59356e-05
-0.000212675
2.06325e-05
-0.000217891
2.49734e-05
-0.000220047
2.78482e-05
-0.000210543
9.05774e-06
-0.000148233
-3.36738e-05
-0.000138801
-6.08493e-05
-0.000176039
-7.93393e-05
-0.000146266
-9.51597e-05
-0.000164655
-7.9129e-05
-0.000190125
-5.54127e-05
-0.000189073
-3.9468e-05
-0.000156027
-2.57705e-05
-0.000143675
-1.43685e-05
-0.000126514
-3.80133e-06
-0.000102142
5.13427e-06
-7.86251e-05
1.74411e-05
-5.90459e-05
3.0291e-05
-4.49223e-05
4.82299e-05
-2.06885e-05
6.20492e-05
-8.96407e-06
8.51743e-06
-9.87496e-06
-8.82459e-05
-2.09204e-05
-8.60854e-05
-3.28763e-05
-8.37997e-05
-4.527e-05
-8.58681e-05
-5.17869e-05
-9.77626e-05
-3.63358e-05
-0.000101258
-5.93136e-05
-0.000121962
-8.78725e-05
-0.000144566
-9.58634e-05
-0.000115319
-0.000110509
-9.0197e-05
-0.000109407
-0.000126211
-7.09641e-05
-0.000131397
-4.02871e-05
-0.000125831
-1.40612e-05
-0.000118886
7.35554e-06
-0.000122563
1.46696e-05
-0.000176489
1.99469e-05
-0.000199946
2.71062e-05
-0.000160787
3.92824e-05
-0.000137326
4.97284e-05
-0.0001182
6.02009e-05
-8.79555e-05
7.64793e-05
-7.31761e-05
-6.24611e-05
-1.35872e-05
-5.96481e-05
-2.46771e-05
-6.18979e-05
-3.29144e-05
-6.50099e-05
-3.47345e-05
-7.20795e-05
-3.44736e-05
-8.52678e-05
-3.79299e-05
-9.33308e-05
-6.02866e-05
-8.61574e-05
-5.45498e-05
-8.29889e-05
-4.62236e-05
-7.01445e-05
-3.57954e-06
-1.53932e-05
4.58446e-05
-8.07258e-05
6.2879e-05
-0.000115478
6.86106e-05
-0.000118175
7.34129e-05
-0.000101393
6.59759e-05
-7.241e-05
4.34654e-05
-8.98855e-05
3.68321e-05
-0.000129131
4.2266e-05
-0.00011747
4.8026e-05
-0.000107725
5.60522e-05
-9.62293e-05
6.66737e-05
-7.55436e-05
7.39214e-05
-8.83129e-05
-8.66918e-05
-7.26884e-06
-5.23784e-05
-1.2298e-05
-5.68709e-05
-1.58477e-05
-6.14129e-05
-1.81758e-05
-6.65531e-05
-1.95207e-05
-6.95935e-05
-2.22581e-05
-6.50797e-05
-2.37733e-05
-6.50663e-05
-2.59877e-05
-6.65636e-05
-2.01725e-05
-3.75835e-05
1.06559e-06
-1.97205e-06
1.51971e-05
-7.64559e-05
9.41766e-06
-0.000103852
2.39113e-06
-0.000106389
-4.0976e-06
-0.000100004
-5.38893e-06
-8.49799e-05
2.55014e-06
-7.10821e-05
1.41639e-05
-6.70801e-05
2.39766e-05
-5.97253e-05
3.06682e-05
-5.62547e-05
3.53395e-05
-5.39494e-05
3.71255e-05
-4.30751e-05
3.49806e-05
-4.1568e-05
-2.6736e-05
-2.28184e-06
-5.00964e-05
-4.25123e-06
-5.4903e-05
-6.38526e-06
-5.93771e-05
-9.14407e-06
-6.47111e-05
-1.29432e-05
-7.01732e-05
-1.87831e-05
-7.46329e-05
-2.55552e-05
-7.61728e-05
-2.87381e-05
-7.2615e-05
-6.57273e-06
-6.29317e-05
3.05012e-05
-5.72457e-05
3.42587e-05
-8.07755e-05
2.05466e-05
-9.04162e-05
9.21059e-06
-9.41608e-05
1.97564e-06
-8.37861e-05
9.1041e-08
-7.9889e-05
2.10251e-07
-7.41018e-05
-7.91764e-07
-6.39952e-05
-5.5584e-07
-5.11686e-05
-1.34357e-06
-3.76549e-05
-9.59845e-06
-3.19603e-05
-1.8644e-05
-2.38671e-05
-1.58824e-05
-2.85821e-05
-4.88367e-06
1.45909e-06
-5.15552e-05
2.59967e-06
-5.6043e-05
2.53531e-06
-5.93023e-05
1.15813e-06
-6.32592e-05
-1.51023e-06
-6.72378e-05
-5.44831e-06
-7.04249e-05
-9.7784e-06
-7.16639e-05
-1.21803e-05
-7.00142e-05
-9.06949e-06
-6.57548e-05
-1.95589e-06
-6.41552e-05
-4.90703e-06
-7.78204e-05
-1.01179e-05
-8.53685e-05
-1.19807e-05
-9.14899e-05
-1.31093e-05
-9.02508e-05
-1.28997e-05
-9.20341e-05
-9.96426e-06
-8.23237e-05
-7.65797e-06
-6.69633e-05
-7.86881e-06
-5.23144e-05
-1.67218e-05
-3.77936e-05
-3.05933e-05
-1.97889e-05
-5.20939e-05
1.28595e-06
-7.18899e-05
6.61209e-08
7.10786e-06
8.73641e-07
-5.24282e-05
1.56005e-06
-5.67288e-05
1.44261e-06
-5.91843e-05
2.8108e-07
-6.20967e-05
-2.07674e-06
-6.48788e-05
-5.80739e-06
-6.66934e-05
-1.03203e-05
-6.71509e-05
-1.38192e-05
-6.65158e-05
-1.43564e-05
-6.52213e-05
-1.28121e-05
-6.57041e-05
-1.67889e-05
-7.3859e-05
-2.09711e-05
-8.09102e-05
-2.2085e-05
-8.6892e-05
-3.31915e-05
-8.92733e-05
-4.02824e-05
-8.47258e-05
-4.72716e-05
-7.40709e-05
-4.90875e-05
-5.6161e-05
-5.61396e-05
-4.17536e-05
-7.24764e-05
-2.82345e-05
-7.56172e-05
-1.67134e-05
-6.60938e-05
-8.53919e-06
-5.74136e-05
-1.11604e-05
-1.04011e-05
8.47022e-07
-5.3275e-05
1.21697e-06
-5.70984e-05
8.29829e-07
-5.87967e-05
-6.55231e-07
-6.06112e-05
-3.61783e-06
-6.19157e-05
-7.65913e-06
-6.26515e-05
-1.19258e-05
-6.28837e-05
-1.56405e-05
-6.28008e-05
-1.77826e-05
-6.30786e-05
-1.86332e-05
-6.48533e-05
-2.27067e-05
-6.98041e-05
-2.82673e-05
-7.48879e-05
-3.34544e-05
-7.6699e-05
-4.94501e-05
-7.24527e-05
-5.83006e-05
-7.63732e-05
-5.97672e-05
-6.65978e-05
-6.23857e-05
-7.43107e-05
-7.56962e-05
-7.49278e-05
-7.20994e-05
-7.31735e-05
1.21367e-08
-4.84966e-07
-1.90008e-06
-4.1904e-06
-7.0973e-06
-1.03305e-05
-1.35248e-05
-1.63578e-05
-1.87821e-05
-2.13064e-05
-2.63591e-05
-3.50208e-05
-4.33956e-05
-5.07159e-05
-6.6603e-05
)
;

boundaryField
{
    leftWall
    {
        type            fixedValue;
        value           uniform 0;
    }
    rightWall
    {
        type            fixedValue;
        value           nonuniform 0();
    }
    lowerWall
    {
        type            fixedValue;
        value           uniform 0;
    }
    atmosphere
    {
        type            calculated;
        value           nonuniform 0();
    }
    defaultFaces
    {
        type            empty;
        value           nonuniform 0();
    }
    procBoundary0to1
    {
        type            processor;
        value           nonuniform List<scalar> 
26
(
1.04666e-05
1.2596e-05
1.2962e-05
1.30182e-05
1.85317e-05
2.04746e-05
1.59424e-05
1.31466e-05
5.78796e-05
7.52976e-05
0.000129456
0.000184405
0.000200678
0.000181446
0.000125862
6.69987e-05
-6.07262e-05
8.17731e-05
8.38878e-05
9.76004e-05
8.06995e-05
1.97002e-05
-1.50971e-05
-7.43094e-05
-4.61229e-05
-7.42352e-05
)
;
    }
    procBoundary0to2
    {
        type            processor;
        value           nonuniform List<scalar> 
24
(
-4.73778e-05
-3.75398e-05
-2.81121e-05
-1.87127e-05
-1.10362e-05
-7.52335e-06
-6.1575e-06
-5.32862e-05
-5.66007e-05
-5.73811e-05
-5.83205e-05
-5.90083e-05
-5.94178e-05
-5.9689e-05
-5.99676e-05
-6.06541e-05
-6.23292e-05
-6.47656e-05
-6.63818e-05
-6.63724e-05
-6.55485e-05
-5.84725e-05
-6.4566e-05
-5.61395e-05
)
;
    }
}


// ************************************************************************* //
