/*--------------------------------*- C++ -*----------------------------------*\
| =========                 |                                                 |
| \\      /  F ield         | OpenFOAM: The Open Source CFD Toolbox           |
|  \\    /   O peration     | Version:  2.4.0                                 |
|   \\  /    A nd           | Web:      www.OpenFOAM.org                      |
|    \\/     M anipulation  |                                                 |
\*---------------------------------------------------------------------------*/
FoamFile
{
    version     2.0;
    format      ascii;
    class       volScalarField;
    location    "0.3";
    object      rho;
}
// * * * * * * * * * * * * * * * * * * * * * * * * * * * * * * * * * * * * * //

dimensions      [1 -3 0 0 0 0 0];

internalField   nonuniform List<scalar> 
575
(
13529
13529
13529
13529
13529
13529
13529
13529
13529
13529
13529
13529
13529
13529
13529
13529
13529
13529
13529
13529
13529
13528.7
13529
13529
13529
13529
13529
13529
13529
13529
13529
13529
13529
13529
13529
13529
13529
13529
13529
13529
13529
13529
13529
13528.7
13529
13529
13529
13529
13529
13529
13529
13529
13529
13529
13529
13529
13529
13529
13529
13529
13529
13529
13528.9
13528.9
13528.9
13528.7
13529
13529
13529
13529
13529
13529
13529
13529
13529
13529
13529
13529
13529
13528.9
13528.6
13528.4
13527.9
13527.6
13527.6
13527.8
13528.3
13528.4
13529
13529
13529
13529
13529
13529
13529
13529
13529
13528.9
13528.8
13527.6
13521.7
13500.7
13445.2
13369.7
13215.4
13266.2
13340.2
13436.2
13505.6
13525.9
13529
13529
13529
13528.9
13528.9
13528.5
13528.2
13526.1
13520
13508.2
13473.3
13371.5
13023.1
12255
10926.3
9270.87
7505.45
5376.19
6211
9238.57
12742.7
13492.6
13518
13516.2
13512.2
13502.8
13493.5
13448
13409.4
13288.8
13029.7
12633
11921.8
10593.9
8036.5
5053.12
2727.31
1434.53
1050.97
1005.3
1168.09
2476.93
9779.81
13281.2
12941.1
12893.8
12793.7
12608.3
12416.4
11876.9
11393.6
10524.9
9190.36
7630.11
5779.66
3671.24
1846.26
1132.24
1010.43
1002.48
999.791
996.385
987.695
1052.27
5172.89
12640.6
7379.08
7227.13
6934.33
6486.45
5988.35
5176.37
4452.01
3604.91
2752.76
2047.14
1517.05
1191.7
1046.56
1007.78
1001.18
1000.52
999.951
998.545
992.557
974.267
1911.52
9554.4
1331.73
1302.87
1255.32
1196.01
1138.88
1084.81
1046.32
1021.36
1008.49
1003.02
1001.09
1000.45
1000.13
1000.08
1000.05
1000.01
999.909
999.63
998.21
987.485
1020.58
3805.29
1001.1
1000.98
1000.81
1000.62
1000.45
1000.31
1000.2
1000.12
1000.07
1000.04
1000.02
1000.02
1000.01
1000.01
999.996
999.961
999.859
999.545
998.543
995.503
985.564
1462.58
1000.02
1000.02
1000.01
1000.01
1000.01
1000.01
1000.01
1000.01
1000
1000
1000
1000
999.998
999.972
999.855
999.515
998.899
997.496
995.612
992.772
985.997
1047.73
1000
1000
1000
1000
1000
1000
1000
1000
1000
1000
1000
999.955
999.374
996.879
991.087
981.105
971.166
957.602
959.04
956.15
955.252
984.002
1000
1000
1000
1000
1000
1000
1000
1000
1000
999.998
999.837
996.36
977.392
937.943
888.394
835.416
791.046
748.009
744.2
748.031
769.685
853.689
999.999
999.999
999.999
999.999
999.998
999.996
999.994
999.991
999.989
999.752
992.404
942.137
830.971
720.45
644.669
592.399
555.033
525.862
524.834
533.387
555.742
641.343
999.074
998.975
998.805
998.51
998.041
997.305
996.209
995.116
995.399
991.026
924.532
755.526
601.684
538.753
516.705
506.542
502.382
500.719
500.659
500.745
502.87
517.902
913.117
908.1
899.709
886.246
867.245
841.42
808.537
780.097
797.386
849.402
734.443
526.008
488.85
496.613
498.579
499.596
499.892
499.978
499.997
500
500.028
500.29
505.859
267.523
254.647
234.179
205.084
170.32
132.564
94.8253
68.0305
77.1961
196.728
198.925
132.432
196.577
307.31
373.02
432.15
466.009
486.394
494.893
498.259
499.849
499.964
500.041
1.35692
1.28642
1.19653
1.10832
1.04886
1.01827
1.00868
1.07238
1.38111
2.20825
1.10299
1.07372
1.78256
8.18387
23.3678
68.381
133.664
226.152
301.966
370.913
449.638
475.583
489.091
1.00039
1.0003
1.00029
1.00031
1.00029
1.00031
1.00225
1.00253
1.00066
1.00093
1.00019
1.00004
1.00004
1.00016
1.00065
1.00436
1.06497
1.77649
4.65439
12.412
46.1542
95.9297
122.72
1.00011
1.00005
1.00004
1.00004
1.00006
1.00008
1.00008
1.00004
1.00001
1.00009
1
1
1
1.00001
1.00003
1.00005
1.00011
1.00023
1.00029
1.00029
1.00037
1.00036
1.00041
1.00005
1.00002
1.00001
1.00001
1.00001
1.00001
1
1
1
1
1
1
1.00001
1.00003
1.00009
1.00011
1.00011
1.00013
1.00018
1.00015
1.00017
1.00022
1.0002
1.00001
1
0.999999
0.999999
0.999999
0.999999
1
0.999999
0.999999
1
1
1
1.00003
1.00016
1.00036
1.00039
1.00029
1.00017
1.00005
1.00005
1.00004
1.00005
1.00008
0.999999
0.999999
0.999999
0.999999
0.999999
0.999999
0.999999
0.999999
0.999999
1
1
1
1.00005
1.00032
1.00039
1.0004
1.0004
1.00014
1.00003
1.00002
1.00003
1.00004
1.00004
0.999999
0.999999
0.999999
0.999999
0.999999
0.999999
0.999999
0.999999
1
1
1
1
1.00005
1.00027
1.0004
1.0004
1.00017
1.00004
1.00003
1.00002
1.00002
1.00002
1.00001
0.999999
0.999999
0.999999
0.999999
0.999999
0.999999
0.999999
1
1
1
1
1
1.00002
1.0001
1.00034
1.00029
)
;

boundaryField
{
    leftWall
    {
        type            calculated;
        value           nonuniform List<scalar> 
26
(
13529
13529
13529
13529
13529
13529
13518
12941.1
7379.08
1331.73
1001.1
1000.02
1000
1000
999.999
999.074
913.117
267.523
1.35692
1.00039
1.00011
1.00005
1.00001
0.999999
0.999999
0.999999
)
;
    }
    rightWall
    {
        type            calculated;
        value           nonuniform 0();
    }
    lowerWall
    {
        type            calculated;
        value           nonuniform List<scalar> 
22
(
13529
13529
13529
13529
13529
13529
13529
13529
13529
13529
13529
13529
13529
13529
13529
13529
13529
13529
13529
13529
13529
13528.7
)
;
    }
    atmosphere
    {
        type            calculated;
        value           nonuniform 0();
    }
    defaultFaces
    {
        type            empty;
    }
    procBoundary0to1
    {
        type            processor;
        value           nonuniform List<scalar> 
26
(
13527.9
13527.7
13527.4
13527.3
13527.1
13526.6
13524.5
13516.7
13201.4
10467.9
5690.95
2432.62
1455.32
1050.7
779.289
577.083
577.083
513.776
500.164
492.341
119.78
1.00115
1.00035
1.00007
1.00004
1.00001
)
;
    }
    procBoundary0to2
    {
        type            processor;
        value           nonuniform List<scalar> 
24
(
1.00007
1.00006
1.00005
1.00004
1.00002
1.00001
1.00001
0.999999
0.999999
0.999999
0.999999
0.999999
0.999999
1
1
1
1
1
1
1.00001
1.00004
1.00009
1.00007
1.00014
)
;
    }
}


// ************************************************************************* //
