/*--------------------------------*- C++ -*----------------------------------*\
| =========                 |                                                 |
| \\      /  F ield         | OpenFOAM: The Open Source CFD Toolbox           |
|  \\    /   O peration     | Version:  2.4.0                                 |
|   \\  /    A nd           | Web:      www.OpenFOAM.org                      |
|    \\/     M anipulation  |                                                 |
\*---------------------------------------------------------------------------*/
FoamFile
{
    version     2.0;
    format      ascii;
    class       volVectorField;
    location    "0.3";
    object      U;
}
// * * * * * * * * * * * * * * * * * * * * * * * * * * * * * * * * * * * * * //

dimensions      [0 1 -1 0 0 0 0];

internalField   nonuniform List<vector> 
575
(
(0.0199971 -0.00940036 0)
(0.0593589 -0.00943875 0)
(0.100793 -0.00940773 0)
(0.137505 -0.00974637 0)
(0.184514 -0.00900536 0)
(0.216083 -0.0112501 0)
(0.270896 -0.00799408 0)
(0.296786 -0.0108987 0)
(0.347535 -0.0120069 0)
(0.405245 -0.0101371 0)
(0.441302 -0.00768614 0)
(0.463615 -0.0101836 0)
(0.513883 -0.00979621 0)
(0.563799 -0.0131158 0)
(0.614645 -0.0111606 0)
(0.651988 -0.00491654 0)
(0.659895 0.00261804 0)
(0.646462 0.00601084 0)
(0.60676 0.00982741 0)
(0.528573 0.0236155 0)
(0.402426 0.0279777 0)
(0.247403 0.0591616 0)
(0.0199951 -0.028214 0)
(0.0593803 -0.0283523 0)
(0.100826 -0.0281763 0)
(0.137371 -0.0296092 0)
(0.185008 -0.0260549 0)
(0.215991 -0.0356003 0)
(0.269405 -0.0222183 0)
(0.298943 -0.0324763 0)
(0.348522 -0.0377986 0)
(0.404887 -0.0307035 0)
(0.438522 -0.0233678 0)
(0.464557 -0.0262897 0)
(0.518619 -0.0348651 0)
(0.572494 -0.0388481 0)
(0.619235 -0.0313499 0)
(0.653614 -0.017474 0)
(0.659223 0.000928509 0)
(0.647469 0.0249454 0)
(0.607024 0.0519497 0)
(0.545226 0.0851778 0)
(0.423281 0.105332 0)
(0.2923 0.109494 0)
(0.0199659 -0.0469976 0)
(0.0593535 -0.0472138 0)
(0.100625 -0.0469544 0)
(0.137284 -0.0490649 0)
(0.185033 -0.0446925 0)
(0.2155 -0.0559717 0)
(0.267579 -0.0404476 0)
(0.302642 -0.0543939 0)
(0.348279 -0.0607512 0)
(0.400036 -0.0487966 0)
(0.43514 -0.0408102 0)
(0.472877 -0.0491058 0)
(0.533107 -0.060492 0)
(0.570011 -0.0621252 0)
(0.620215 -0.0538046 0)
(0.64629 -0.0226305 0)
(0.657494 0.00173351 0)
(0.660243 0.0266991 0)
(0.635633 0.0576594 0)
(0.579907 0.100174 0)
(0.453391 0.159247 0)
(0.245156 0.201814 0)
(0.0199253 -0.0658348 0)
(0.0593243 -0.0660979 0)
(0.100259 -0.0658198 0)
(0.137486 -0.0687514 0)
(0.184236 -0.0627426 0)
(0.215559 -0.0774442 0)
(0.266316 -0.058708 0)
(0.303944 -0.0756159 0)
(0.348604 -0.082436 0)
(0.393466 -0.0689513 0)
(0.431029 -0.0619216 0)
(0.491453 -0.072852 0)
(0.536736 -0.0786152 0)
(0.574402 -0.082033 0)
(0.608898 -0.0649791 0)
(0.632666 -0.0372602 0)
(0.665918 -0.00157681 0)
(0.679552 0.0463044 0)
(0.693295 0.11782 0)
(0.65077 0.184105 0)
(0.538311 0.279957 0)
(0.310621 0.275682 0)
(0.0198795 -0.0850322 0)
(0.0592447 -0.0853001 0)
(0.0998624 -0.0851562 0)
(0.137471 -0.0884926 0)
(0.183549 -0.0821023 0)
(0.214306 -0.0970865 0)
(0.267069 -0.0792842 0)
(0.302039 -0.0973122 0)
(0.350281 -0.100705 0)
(0.386071 -0.0859394 0)
(0.434364 -0.0902758 0)
(0.503029 -0.0942934 0)
(0.536687 -0.0985112 0)
(0.577323 -0.0898766 0)
(0.607663 -0.0810926 0)
(0.642085 -0.0443091 0)
(0.701513 -0.0319719 0)
(0.751563 -0.00690907 0)
(0.756682 0.0612779 0)
(0.689714 0.156542 0)
(0.588579 0.333086 0)
(0.361796 0.395245 0)
(0.0198538 -0.103329 0)
(0.0591666 -0.103531 0)
(0.0995455 -0.103457 0)
(0.137604 -0.107052 0)
(0.182374 -0.099507 0)
(0.214145 -0.115678 0)
(0.267363 -0.0986896 0)
(0.301776 -0.114472 0)
(0.34836 -0.118522 0)
(0.386958 -0.10865 0)
(0.444768 -0.117792 0)
(0.498494 -0.120673 0)
(0.541966 -0.127039 0)
(0.590069 -0.132786 0)
(0.6236 -0.124804 0)
(0.665967 -0.107828 0)
(0.683575 -0.0819154 0)
(0.663921 0.0403135 0)
(0.673233 0.162187 0)
(0.610896 0.247366 0)
(0.548247 0.402139 0)
(0.39747 0.475451 0)
(0.019942 -0.117901 0)
(0.0593373 -0.118237 0)
(0.0999014 -0.11873 0)
(0.138181 -0.123202 0)
(0.181552 -0.116378 0)
(0.217125 -0.136015 0)
(0.263555 -0.122035 0)
(0.310916 -0.140558 0)
(0.338521 -0.146599 0)
(0.398002 -0.150188 0)
(0.449937 -0.158845 0)
(0.493311 -0.157676 0)
(0.537086 -0.157923 0)
(0.560877 -0.102405 0)
(0.531434 -0.0428031 0)
(0.459726 0.0780689 0)
(0.31978 0.115119 0)
(0.221124 0.0464421 0)
(0.345174 0.166263 0)
(0.307929 0.403224 0)
(0.419276 0.476124 0)
(0.347378 0.559574 0)
(0.0201317 -0.143833 0)
(0.0597462 -0.1444 0)
(0.100719 -0.145335 0)
(0.138755 -0.150112 0)
(0.180145 -0.144367 0)
(0.222234 -0.162559 0)
(0.25778 -0.155158 0)
(0.316183 -0.158899 0)
(0.338249 -0.167671 0)
(0.398078 -0.158383 0)
(0.420429 -0.148667 0)
(0.43541 -0.119216 0)
(0.395759 -0.0630581 0)
(0.325047 -0.0498569 0)
(0.225749 -0.0743966 0)
(0.250472 -0.112918 0)
(0.311411 -0.0961304 0)
(0.365285 -0.023362 0)
(0.28902 0.0272241 0)
(0.283511 0.21608 0)
(0.155257 0.500597 0)
(0.285352 0.611705 0)
(0.020404 -0.185219 0)
(0.0602433 -0.184004 0)
(0.100456 -0.18122 0)
(0.135791 -0.176999 0)
(0.168896 -0.16892 0)
(0.211312 -0.160854 0)
(0.222354 -0.148295 0)
(0.262441 -0.125497 0)
(0.276408 -0.103645 0)
(0.269989 -0.0803487 0)
(0.262002 -0.0656272 0)
(0.264247 -0.0885305 0)
(0.282852 -0.153733 0)
(0.32208 -0.137022 0)
(0.374077 -0.0953302 0)
(0.413382 0.0108632 0)
(0.398857 0.0924865 0)
(0.38652 0.104121 0)
(0.311263 0.163677 0)
(0.381216 0.299811 0)
(0.139697 0.551621 0)
(0.323703 0.611305 0)
(0.010846 -0.0941119 0)
(0.0322292 -0.0946451 0)
(0.0544411 -0.0944313 0)
(0.0751855 -0.096476 0)
(0.0941387 -0.106327 0)
(0.118579 -0.118749 0)
(0.135536 -0.130357 0)
(0.162866 -0.162447 0)
(0.197856 -0.176181 0)
(0.228637 -0.192204 0)
(0.279731 -0.219184 0)
(0.343243 -0.216014 0)
(0.392218 -0.183081 0)
(0.430585 -0.14942 0)
(0.448378 -0.104717 0)
(0.492763 -0.107973 0)
(0.51883 -0.0759958 0)
(0.599063 0.0103001 0)
(0.529349 0.119627 0)
(0.626152 0.294771 0)
(0.476352 0.604483 0)
(0.481308 0.595086 0)
(0.0125302 -0.283328 0)
(0.0377499 -0.285375 0)
(0.0658252 -0.283084 0)
(0.0965671 -0.282976 0)
(0.128611 -0.279365 0)
(0.16306 -0.27645 0)
(0.197253 -0.264557 0)
(0.231779 -0.271246 0)
(0.273114 -0.249786 0)
(0.304415 -0.24002 0)
(0.355366 -0.236718 0)
(0.393184 -0.22516 0)
(0.432876 -0.203658 0)
(0.473026 -0.178681 0)
(0.523988 -0.151413 0)
(0.590228 -0.123117 0)
(0.629412 -0.0396809 0)
(0.680312 0.0295346 0)
(0.701458 0.162999 0)
(0.716974 0.289741 0)
(0.790823 0.576598 0)
(0.768423 0.759735 0)
(0.016665 -0.235136 0)
(0.0489239 -0.236033 0)
(0.0815652 -0.233887 0)
(0.113954 -0.233884 0)
(0.144529 -0.233154 0)
(0.176838 -0.236522 0)
(0.20794 -0.231862 0)
(0.238247 -0.250408 0)
(0.275933 -0.237545 0)
(0.302571 -0.249019 0)
(0.356114 -0.261238 0)
(0.390861 -0.262441 0)
(0.440068 -0.246424 0)
(0.491641 -0.238612 0)
(0.565964 -0.216068 0)
(0.631988 -0.193686 0)
(0.689567 -0.107744 0)
(0.743991 -0.0450094 0)
(0.810641 0.109911 0)
(0.833913 0.260352 0)
(0.874896 0.431186 0)
(1.03418 0.789129 0)
(0.0156796 -0.281196 0)
(0.047586 -0.283007 0)
(0.078901 -0.284681 0)
(0.110452 -0.285805 0)
(0.140903 -0.288712 0)
(0.170259 -0.291962 0)
(0.200722 -0.291206 0)
(0.226281 -0.306218 0)
(0.26347 -0.2943 0)
(0.28977 -0.32305 0)
(0.348172 -0.326523 0)
(0.383168 -0.321965 0)
(0.446919 -0.330212 0)
(0.520911 -0.325671 0)
(0.604469 -0.303294 0)
(0.655807 -0.270667 0)
(0.725049 -0.176939 0)
(0.778908 -0.101334 0)
(0.827784 0.0530316 0)
(0.864268 0.223131 0)
(0.877821 0.358869 0)
(1.03603 0.709955 0)
(0.0156057 -0.326832 0)
(0.0472453 -0.328091 0)
(0.0781706 -0.327481 0)
(0.108979 -0.326363 0)
(0.14017 -0.325132 0)
(0.168764 -0.324054 0)
(0.199014 -0.323981 0)
(0.225195 -0.331764 0)
(0.258804 -0.330817 0)
(0.288057 -0.366031 0)
(0.344319 -0.362268 0)
(0.386817 -0.379957 0)
(0.452947 -0.40588 0)
(0.510517 -0.399847 0)
(0.562675 -0.375509 0)
(0.576077 -0.330731 0)
(0.618178 -0.251581 0)
(0.621705 -0.155341 0)
(0.62307 0.0326202 0)
(0.707523 0.212134 0)
(0.720543 0.348385 0)
(0.909829 0.649552 0)
(0.0163605 -0.347554 0)
(0.0484044 -0.348758 0)
(0.0810964 -0.347175 0)
(0.112078 -0.345438 0)
(0.143172 -0.342931 0)
(0.171373 -0.34079 0)
(0.201269 -0.341031 0)
(0.216758 -0.343729 0)
(0.2455 -0.353431 0)
(0.257307 -0.394259 0)
(0.304932 -0.414816 0)
(0.338188 -0.456487 0)
(0.354319 -0.476389 0)
(0.33261 -0.435376 0)
(0.292121 -0.372661 0)
(0.232561 -0.307804 0)
(0.188897 -0.196481 0)
(0.154262 -0.0924709 0)
(0.213349 0.0201053 0)
(0.287212 0.0978485 0)
(0.39727 0.198232 0)
(0.547844 0.416137 0)
(0.0164788 -0.370562 0)
(0.0495033 -0.371633 0)
(0.0814632 -0.369878 0)
(0.113735 -0.366908 0)
(0.143744 -0.362723 0)
(0.17151 -0.358277 0)
(0.195518 -0.35179 0)
(0.20868 -0.343607 0)
(0.213119 -0.348483 0)
(0.206195 -0.383166 0)
(0.20581 -0.423663 0)
(0.160476 -0.43296 0)
(0.0693827 -0.376761 0)
(-0.0205196 -0.320819 0)
(-0.0574356 -0.268966 0)
(-0.0601295 -0.214886 0)
(-0.0448743 -0.165646 0)
(-0.0365032 -0.154539 0)
(0.0360728 -0.0789334 0)
(0.0916055 -0.0233978 0)
(0.185188 0.113777 0)
(0.252583 0.193215 0)
(0.0180163 -0.468561 0)
(0.0527405 -0.469918 0)
(0.0870282 -0.468952 0)
(0.119591 -0.466336 0)
(0.151682 -0.460787 0)
(0.179455 -0.450862 0)
(0.207939 -0.433449 0)
(0.221937 -0.414276 0)
(0.190124 -0.410184 0)
(0.113263 -0.458442 0)
(-0.0458279 -0.432279 0)
(-0.209504 -0.331577 0)
(-0.24127 -0.333225 0)
(-0.216881 -0.303119 0)
(-0.174601 -0.283681 0)
(-0.142317 -0.269612 0)
(-0.0811834 -0.223472 0)
(-0.0251772 -0.194499 0)
(0.0318551 -0.123595 0)
(0.0850602 -0.0925301 0)
(0.153652 0.00588974 0)
(0.223122 0.0284235 0)
(0.340646 0.194119 0)
(0.0167783 -0.500018 0)
(0.0471335 -0.495628 0)
(0.0774011 -0.483425 0)
(0.106577 -0.461281 0)
(0.13254 -0.42045 0)
(0.163246 -0.350667 0)
(0.190731 -0.225959 0)
(0.23535 -0.0169808 0)
(0.155867 0.0183946 0)
(-0.153179 -0.234496 0)
(-0.510503 -0.180761 0)
(-0.529542 -0.205533 0)
(-0.364468 -0.431284 0)
(-0.276093 -0.451418 0)
(-0.186329 -0.438846 0)
(-0.116364 -0.383433 0)
(-0.052056 -0.332919 0)
(0.00815296 -0.273724 0)
(0.0489193 -0.175464 0)
(0.129505 -0.121269 0)
(0.210898 0.00834029 0)
(0.294072 0.0543887 0)
(0.378247 0.166419 0)
(-0.0357069 0.24723 0)
(-0.108483 0.243425 0)
(-0.178478 0.225966 0)
(-0.243089 0.198008 0)
(-0.295056 0.139884 0)
(-0.314706 0.0238701 0)
(-0.271557 -0.158979 0)
(-0.260678 -0.295825 0)
(0.071395 0.12495 0)
(-0.13897 0.861161 0)
(-0.43254 0.681252 0)
(-0.100077 0.0710254 0)
(-0.0166447 0.127685 0)
(0.0446979 0.148755 0)
(0.057604 0.0211131 0)
(0.0620074 -0.328444 0)
(0.0683925 -0.413888 0)
(0.120617 -0.403045 0)
(0.147073 -0.365455 0)
(0.242949 -0.316277 0)
(0.281445 -0.223848 0)
(0.36151 -0.150137 0)
(0.471072 -0.0838828 0)
(-0.039146 -0.82256 0)
(-0.108788 -0.82586 0)
(-0.158503 -0.827545 0)
(-0.192776 -0.832285 0)
(-0.203558 -0.8358 0)
(-0.199249 -0.839808 0)
(-0.213893 -0.812901 0)
(-0.301159 -0.756921 0)
(-0.299024 -0.575307 0)
(-0.218793 -0.212052 0)
(0.187201 -0.77645 0)
(0.347466 -0.971579 0)
(0.36873 -0.970629 0)
(0.452584 -0.841679 0)
(0.573401 -0.571513 0)
(0.62656 -0.103482 0)
(0.577702 0.193541 0)
(0.476924 0.305781 0)
(0.391294 0.340033 0)
(0.304227 0.30419 0)
(0.331247 0.0404458 0)
(0.369151 -0.171271 0)
(0.40208 -0.180539 0)
(-0.0218022 -0.0175122 0)
(-0.0558019 -0.0362554 0)
(-0.0770526 -0.0619927 0)
(-0.0932313 -0.0994921 0)
(-0.103307 -0.144551 0)
(-0.111599 -0.196341 0)
(-0.123795 -0.223528 0)
(-0.146883 -0.17491 0)
(-0.139355 0.12528 0)
(-0.0821517 0.282919 0)
(0.135038 -0.114718 0)
(0.0552104 -0.394608 0)
(0.0353146 -0.4507 0)
(-0.00977877 -0.511692 0)
(-0.0383155 -0.589883 0)
(-0.0223283 -0.633806 0)
(0.0406332 -0.660315 0)
(0.101787 -0.620437 0)
(0.153996 -0.578613 0)
(0.165587 -0.515085 0)
(0.213869 -0.232825 0)
(0.0744313 0.0223008 0)
(0.104703 0.184556 0)
(-0.00760834 -0.389922 0)
(-0.0186865 -0.418187 0)
(-0.0282914 -0.445351 0)
(-0.0410781 -0.47708 0)
(-0.0577889 -0.509373 0)
(-0.0826108 -0.538669 0)
(-0.121987 -0.551506 0)
(-0.160387 -0.536742 0)
(-0.131988 -0.484508 0)
(0.0729373 -0.440312 0)
(0.22696 -0.585345 0)
(0.152049 -0.597075 0)
(0.0784461 -0.570167 0)
(0.0274328 -0.47697 0)
(0.00359516 -0.394967 0)
(0.00500725 -0.273094 0)
(0.00526041 -0.15454 0)
(-0.00628749 -0.0830854 0)
(0.00994104 -0.0758804 0)
(-0.0239607 -0.124201 0)
(-0.0769868 -0.224529 0)
(-0.121277 -0.307434 0)
(-0.0603899 -0.207433 0)
(0.00396961 -0.260786 0)
(0.0118145 -0.285379 0)
(0.0154728 -0.30401 0)
(0.0113976 -0.325012 0)
(0.000816157 -0.344243 0)
(-0.0170187 -0.357846 0)
(-0.040662 -0.356859 0)
(-0.0639285 -0.33061 0)
(-0.0701254 -0.279493 0)
(-0.0203297 -0.261817 0)
(-0.00382707 -0.381019 0)
(-0.0434765 -0.454118 0)
(-0.068154 -0.510251 0)
(-0.0770987 -0.526563 0)
(-0.0723397 -0.519833 0)
(-0.0611935 -0.478513 0)
(-0.0451449 -0.418822 0)
(-0.0377037 -0.350205 0)
(-0.0570633 -0.274177 0)
(-0.130477 -0.120647 0)
(-0.18156 0.109236 0)
(-0.362845 0.158045 0)
(-0.4583 0.21873 0)
(0.00250766 -0.252775 0)
(0.00709109 -0.279012 0)
(0.00934941 -0.297905 0)
(0.00605063 -0.320863 0)
(-0.00305949 -0.343353 0)
(-0.0197264 -0.360685 0)
(-0.0421316 -0.370112 0)
(-0.0677528 -0.372546 0)
(-0.0782759 -0.369869 0)
(-0.068637 -0.368909 0)
(-0.076132 -0.407951 0)
(-0.100954 -0.446116 0)
(-0.132399 -0.486683 0)
(-0.155558 -0.505257 0)
(-0.192683 -0.489079 0)
(-0.231055 -0.435281 0)
(-0.272124 -0.349699 0)
(-0.30903 -0.271671 0)
(-0.379694 -0.203699 0)
(-0.415843 -0.156566 0)
(-0.380825 -0.111316 0)
(-0.325401 -0.16687 0)
(-0.280399 -0.165726 0)
(0.00264347 -0.295638 0)
(0.00613238 -0.315747 0)
(0.00659948 -0.324477 0)
(0.00229014 -0.334814 0)
(-0.00955287 -0.344288 0)
(-0.0293144 -0.348758 0)
(-0.0519197 -0.349477 0)
(-0.074724 -0.348648 0)
(-0.0913163 -0.348375 0)
(-0.0945258 -0.356414 0)
(-0.107712 -0.39658 0)
(-0.13806 -0.428997 0)
(-0.174789 -0.447281 0)
(-0.233883 -0.434135 0)
(-0.289929 -0.402837 0)
(-0.329989 -0.342597 0)
(-0.366249 -0.245174 0)
(-0.392071 -0.147251 0)
(-0.405828 -0.0635088 0)
(-0.404783 0.00657268 0)
(-0.388193 0.0434326 0)
(-0.392221 0.0614996 0)
(-0.416724 0.0621529 0)
(0.000627338 -0.289531 0)
(-0.000484818 -0.308638 0)
(-0.00464625 -0.314853 0)
(-0.0159958 -0.320877 0)
(-0.0296241 -0.323936 0)
(-0.0461258 -0.326929 0)
(-0.0636905 -0.329497 0)
(-0.0803956 -0.330795 0)
(-0.0933331 -0.334439 0)
(-0.104581 -0.344676 0)
(-0.123765 -0.357745 0)
(-0.162305 -0.37672 0)
(-0.215209 -0.379794 0)
(-0.273404 -0.387545 0)
(-0.328241 -0.387702 0)
(-0.38453 -0.345207 0)
)
;

boundaryField
{
    leftWall
    {
        type            calculated;
        value           uniform (0 0 0);
    }
    rightWall
    {
        type            calculated;
        value           nonuniform 0();
    }
    lowerWall
    {
        type            calculated;
        value           uniform (0 0 0);
    }
    atmosphere
    {
        type            calculated;
        value           nonuniform 0();
    }
    defaultFaces
    {
        type            empty;
    }
    procBoundary0to1
    {
        type            processor;
        value           nonuniform List<vector> 
26
(
(0.0515043 0.0196254 0)
(0.0597353 0.116811 0)
(0.114257 0.191571 0)
(0.0671301 0.289611 0)
(0.132483 0.363384 0)
(0.119066 0.508168 0)
(0.147698 0.586956 0)
(0.11144 0.735784 0)
(0.235658 0.785063 0)
(0.390851 0.654387 0)
(0.585859 0.692587 0)
(0.877739 0.852212 0)
(1.03796 0.935541 0)
(1.02534 0.936539 0)
(0.880787 0.827644 0)
(0.519762 0.469374 0)
(0.519762 0.469374 0)
(0.495197 0.300295 0)
(0.492681 0.255385 0)
(0.544783 -0.0526492 0)
(0.419516 -0.152917 0)
(-0.0825106 0.162912 0)
(-0.0985354 0.212196 0)
(-0.335666 0.125244 0)
(-0.239629 0.035388 0)
(-0.378104 0.0361526 0)
)
;
    }
    procBoundary0to2
    {
        type            processor;
        value           nonuniform List<vector> 
24
(
(-0.430899 -0.275266 0)
(-0.439617 -0.236596 0)
(-0.430358 -0.213672 0)
(-0.395922 -0.185978 0)
(-0.353451 -0.149319 0)
(-0.325471 -0.133947 0)
(-0.295064 -0.11868 0)
(-0.00167951 -0.286463 0)
(-0.00708078 -0.302564 0)
(-0.015787 -0.304586 0)
(-0.0260687 -0.307723 0)
(-0.037673 -0.311869 0)
(-0.04947 -0.314964 0)
(-0.061499 -0.317541 0)
(-0.0726763 -0.319238 0)
(-0.0828152 -0.320802 0)
(-0.0989316 -0.324932 0)
(-0.123115 -0.333494 0)
(-0.161557 -0.334159 0)
(-0.199735 -0.334263 0)
(-0.24225 -0.331486 0)
(-0.294232 -0.315476 0)
(-0.430899 -0.275266 0)
(-0.33812 -0.284746 0)
)
;
    }
}


// ************************************************************************* //
