/*--------------------------------*- C++ -*----------------------------------*\
| =========                 |                                                 |
| \\      /  F ield         | OpenFOAM: The Open Source CFD Toolbox           |
|  \\    /   O peration     | Version:  2.4.0                                 |
|   \\  /    A nd           | Web:      www.OpenFOAM.org                      |
|    \\/     M anipulation  |                                                 |
\*---------------------------------------------------------------------------*/
FoamFile
{
    version     2.0;
    format      ascii;
    class       volVectorField;
    location    "0.3";
    object      U.air;
}
// * * * * * * * * * * * * * * * * * * * * * * * * * * * * * * * * * * * * * //

dimensions      [0 1 -1 0 0 0 0];

internalField   nonuniform List<vector> 
575
(
(0.0199972 -0.0094003 0)
(0.059359 -0.00943869 0)
(0.100793 -0.00940766 0)
(0.137505 -0.0097463 0)
(0.184514 -0.00900526 0)
(0.216084 -0.01125 0)
(0.270897 -0.00799399 0)
(0.296787 -0.0108986 0)
(0.347536 -0.0120068 0)
(0.405245 -0.010137 0)
(0.441303 -0.00768609 0)
(0.463616 -0.0101836 0)
(0.513884 -0.00979621 0)
(0.5638 -0.0131158 0)
(0.614646 -0.0111606 0)
(0.651989 -0.00491655 0)
(0.659896 0.00261808 0)
(0.646463 0.00601088 0)
(0.606761 0.00982746 0)
(0.528574 0.0236155 0)
(0.402427 0.0279777 0)
(0.247403 0.0591615 0)
(0.0199952 -0.0282138 0)
(0.0593805 -0.028352 0)
(0.100826 -0.0281761 0)
(0.137371 -0.0296089 0)
(0.185009 -0.0260546 0)
(0.215992 -0.0356 0)
(0.269406 -0.0222179 0)
(0.298944 -0.032476 0)
(0.348523 -0.0377982 0)
(0.404888 -0.0307032 0)
(0.438523 -0.0233675 0)
(0.464558 -0.0262895 0)
(0.51862 -0.034865 0)
(0.572495 -0.038848 0)
(0.619236 -0.0313498 0)
(0.653615 -0.0174739 0)
(0.659224 0.000928606 0)
(0.647469 0.0249455 0)
(0.607025 0.05195 0)
(0.545226 0.0851783 0)
(0.423281 0.105333 0)
(0.292301 0.109495 0)
(0.0199659 -0.0469972 0)
(0.0593536 -0.0472134 0)
(0.100625 -0.046954 0)
(0.137285 -0.0490645 0)
(0.185034 -0.044692 0)
(0.215501 -0.0559711 0)
(0.26758 -0.0404471 0)
(0.302643 -0.0543934 0)
(0.34828 -0.0607507 0)
(0.400037 -0.0487961 0)
(0.435141 -0.0408097 0)
(0.472878 -0.0491054 0)
(0.533108 -0.0604917 0)
(0.570012 -0.062125 0)
(0.620216 -0.0538045 0)
(0.646291 -0.0226304 0)
(0.657495 0.00173356 0)
(0.660244 0.0266992 0)
(0.635634 0.0576597 0)
(0.579907 0.100175 0)
(0.453392 0.159248 0)
(0.245156 0.201816 0)
(0.0199253 -0.0658343 0)
(0.0593245 -0.0660973 0)
(0.100259 -0.0658192 0)
(0.137487 -0.0687508 0)
(0.184237 -0.0627419 0)
(0.21556 -0.0774435 0)
(0.266316 -0.0587072 0)
(0.303945 -0.0756152 0)
(0.348605 -0.0824353 0)
(0.393466 -0.0689506 0)
(0.43103 -0.061921 0)
(0.491454 -0.0728514 0)
(0.536736 -0.0786147 0)
(0.574402 -0.0820326 0)
(0.608898 -0.0649787 0)
(0.632667 -0.0372594 0)
(0.665919 -0.0015739 0)
(0.679552 0.0463093 0)
(0.693295 0.117825 0)
(0.65077 0.184109 0)
(0.538312 0.27996 0)
(0.310622 0.275684 0)
(0.0198795 -0.0850315 0)
(0.0592449 -0.0852994 0)
(0.0998628 -0.0851554 0)
(0.137472 -0.0884917 0)
(0.18355 -0.0821014 0)
(0.214307 -0.0970855 0)
(0.26707 -0.0792833 0)
(0.30204 -0.0973114 0)
(0.350281 -0.100704 0)
(0.386071 -0.0859387 0)
(0.434364 -0.090275 0)
(0.503031 -0.0942888 0)
(0.536706 -0.0983743 0)
(0.577412 -0.0890584 0)
(0.607794 -0.0796862 0)
(0.642222 -0.0425961 0)
(0.701583 -0.0302794 0)
(0.751434 -0.0050179 0)
(0.756277 0.0633117 0)
(0.689203 0.158416 0)
(0.588202 0.333965 0)
(0.361788 0.395267 0)
(0.0198539 -0.103329 0)
(0.0591668 -0.10353 0)
(0.099546 -0.103456 0)
(0.137605 -0.107051 0)
(0.182375 -0.0995059 0)
(0.214146 -0.115676 0)
(0.267364 -0.0986874 0)
(0.301779 -0.114452 0)
(0.348381 -0.118329 0)
(0.387036 -0.108022 0)
(0.444923 -0.116667 0)
(0.498725 -0.119071 0)
(0.542094 -0.126172 0)
(0.589503 -0.136884 0)
(0.621928 -0.140978 0)
(0.663617 -0.14292 0)
(0.685144 -0.143932 0)
(0.67198 -0.0767964 0)
(0.690941 0.0490905 0)
(0.626132 0.197421 0)
(0.548702 0.401233 0)
(0.397005 0.476469 0)
(0.0199442 -0.117638 0)
(0.0593458 -0.117894 0)
(0.0999207 -0.11825 0)
(0.138221 -0.12247 0)
(0.18161 -0.11551 0)
(0.217228 -0.134735 0)
(0.263686 -0.120578 0)
(0.311079 -0.138973 0)
(0.338623 -0.145733 0)
(0.39783 -0.151468 0)
(0.448993 -0.165518 0)
(0.490327 -0.176854 0)
(0.529714 -0.210835 0)
(0.55802 -0.209598 0)
(0.540066 -0.211274 0)
(0.459578 -0.108598 0)
(0.336955 0.0318527 0)
(0.233111 0.0199705 0)
(0.421438 0.0538798 0)
(0.463769 0.210715 0)
(0.439669 0.444614 0)
(0.346475 0.561262 0)
(0.0201353 -0.143347 0)
(0.0597518 -0.14415 0)
(0.100709 -0.145627 0)
(0.138691 -0.151531 0)
(0.17998 -0.147081 0)
(0.221696 -0.169455 0)
(0.256732 -0.16614 0)
(0.314083 -0.178083 0)
(0.334096 -0.201676 0)
(0.390312 -0.214684 0)
(0.409373 -0.238035 0)
(0.423558 -0.259018 0)
(0.391212 -0.245532 0)
(0.333459 -0.168345 0)
(0.233919 -0.104313 0)
(0.252639 -0.119915 0)
(0.311478 -0.0962285 0)
(0.364932 -0.0223881 0)
(0.288336 0.0288446 0)
(0.342084 0.163975 0)
(0.241182 0.41244 0)
(0.286196 0.610021 0)
(0.0199663 -0.245545 0)
(0.0589807 -0.246758 0)
(0.0986028 -0.248822 0)
(0.133706 -0.252381 0)
(0.16665 -0.253087 0)
(0.209749 -0.261736 0)
(0.220901 -0.265491 0)
(0.261885 -0.261963 0)
(0.275835 -0.26695 0)
(0.2664 -0.263136 0)
(0.267376 -0.2222 0)
(0.273433 -0.199287 0)
(0.288331 -0.210564 0)
(0.323483 -0.160097 0)
(0.374029 -0.0975825 0)
(0.413418 0.0104012 0)
(0.398852 0.0925066 0)
(0.386327 0.104599 0)
(0.310305 0.165562 0)
(0.386576 0.2956 0)
(0.216276 0.387635 0)
(0.325639 0.583249 0)
(0.0110473 -0.242922 0)
(0.0328018 -0.238449 0)
(0.0556167 -0.229049 0)
(0.0763101 -0.21738 0)
(0.0960363 -0.210501 0)
(0.1205 -0.202374 0)
(0.136699 -0.192804 0)
(0.163826 -0.203199 0)
(0.198174 -0.199986 0)
(0.228674 -0.201328 0)
(0.279651 -0.220823 0)
(0.343248 -0.216106 0)
(0.392226 -0.183067 0)
(0.430593 -0.149402 0)
(0.448385 -0.104701 0)
(0.492772 -0.107961 0)
(0.51884 -0.0759773 0)
(0.599053 0.0104576 0)
(0.528888 0.120544 0)
(0.625738 0.29793 0)
(0.469946 0.533526 0)
(0.481258 0.484786 0)
(0.0125292 -0.285109 0)
(0.037727 -0.286732 0)
(0.0658062 -0.283879 0)
(0.0965626 -0.283276 0)
(0.128618 -0.279438 0)
(0.163069 -0.27645 0)
(0.197261 -0.26454 0)
(0.231787 -0.271218 0)
(0.273122 -0.249754 0)
(0.304423 -0.239982 0)
(0.355374 -0.236671 0)
(0.393191 -0.225103 0)
(0.432883 -0.203607 0)
(0.473033 -0.178641 0)
(0.523998 -0.151386 0)
(0.590239 -0.123097 0)
(0.629423 -0.0396542 0)
(0.680314 0.0297489 0)
(0.701363 0.163766 0)
(0.71675 0.291487 0)
(0.78731 0.571727 0)
(0.742956 0.605474 0)
(0.0166659 -0.235076 0)
(0.0489265 -0.23597 0)
(0.0815693 -0.233824 0)
(0.113958 -0.233822 0)
(0.144534 -0.233091 0)
(0.176843 -0.236459 0)
(0.207945 -0.231795 0)
(0.238253 -0.25033 0)
(0.27594 -0.237456 0)
(0.30258 -0.248935 0)
(0.356124 -0.261161 0)
(0.390871 -0.262373 0)
(0.440079 -0.24637 0)
(0.491651 -0.238575 0)
(0.565976 -0.216039 0)
(0.632006 -0.193532 0)
(0.689588 -0.107242 0)
(0.744019 -0.04392 0)
(0.810757 0.111737 0)
(0.83402 0.262876 0)
(0.874978 0.434379 0)
(1.00113 0.70607 0)
(0.0156804 -0.281089 0)
(0.0475884 -0.282898 0)
(0.0789049 -0.284575 0)
(0.110457 -0.2857 0)
(0.140909 -0.288604 0)
(0.170265 -0.291839 0)
(0.200729 -0.291067 0)
(0.226288 -0.306055 0)
(0.263479 -0.294107 0)
(0.289781 -0.32291 0)
(0.348184 -0.32643 0)
(0.383178 -0.321907 0)
(0.446942 -0.330056 0)
(0.520935 -0.324832 0)
(0.604477 -0.301372 0)
(0.655652 -0.26763 0)
(0.724984 -0.173165 0)
(0.779047 -0.097065 0)
(0.8281 0.0574756 0)
(0.86472 0.22763 0)
(0.878428 0.363076 0)
(1.01565 0.664076 0)
(0.0156064 -0.326509 0)
(0.0472474 -0.327743 0)
(0.0781743 -0.327087 0)
(0.108985 -0.325872 0)
(0.140177 -0.324464 0)
(0.168773 -0.323056 0)
(0.199025 -0.322422 0)
(0.225205 -0.329462 0)
(0.258817 -0.328282 0)
(0.288075 -0.364163 0)
(0.344336 -0.361477 0)
(0.386783 -0.378381 0)
(0.45275 -0.402703 0)
(0.510183 -0.397045 0)
(0.562678 -0.375409 0)
(0.576632 -0.335072 0)
(0.618685 -0.260681 0)
(0.621959 -0.169396 0)
(0.621124 0.0180923 0)
(0.707226 0.198205 0)
(0.719753 0.33657 0)
(0.906039 0.636917 0)
(0.0163604 -0.249375 0)
(0.0484053 -0.245442 0)
(0.0811006 -0.24123 0)
(0.112092 -0.235281 0)
(0.143207 -0.227909 0)
(0.171442 -0.220086 0)
(0.201376 -0.215176 0)
(0.216837 -0.216925 0)
(0.245602 -0.23539 0)
(0.257589 -0.294227 0)
(0.305505 -0.334939 0)
(0.339827 -0.381446 0)
(0.358339 -0.39143 0)
(0.33663 -0.426111 0)
(0.293756 -0.387884 0)
(0.229919 -0.332791 0)
(0.179575 -0.217626 0)
(0.14853 -0.107092 0)
(0.211293 0.00584875 0)
(0.295247 0.0836962 0)
(0.40273 0.181581 0)
(0.561822 0.410198 0)
(0.0158023 -0.0694768 0)
(0.0479317 -0.0630437 0)
(0.0804127 -0.0578882 0)
(0.115222 -0.0501037 0)
(0.149964 -0.0406734 0)
(0.182893 -0.0304233 0)
(0.207833 -0.0173677 0)
(0.203181 0.00498432 0)
(0.18369 -0.00926058 0)
(0.215408 -0.0844415 0)
(0.274318 -0.0889834 0)
(0.222809 -0.0909346 0)
(0.12692 -0.0341102 0)
(0.0196583 -0.128264 0)
(-0.0529854 -0.148115 0)
(-0.0608079 -0.141043 0)
(-0.0452414 -0.127792 0)
(-0.0364427 -0.143257 0)
(0.0362697 -0.0780664 0)
(0.091962 -0.0225807 0)
(0.18731 0.110718 0)
(0.263973 0.193594 0)
(0.017698 -0.0840413 0)
(0.051928 -0.0837659 0)
(0.0856226 -0.0804987 0)
(0.117517 -0.0754695 0)
(0.149267 -0.0688271 0)
(0.177814 -0.0609403 0)
(0.214207 -0.0500213 0)
(0.226067 -0.0480427 0)
(0.170332 -0.0288136 0)
(0.110132 0.00280942 0)
(0.0143688 0.118308 0)
(-0.176246 0.193607 0)
(-0.272854 0.12574 0)
(-0.281545 0.0904009 0)
(-0.257353 0.0525052 0)
(-0.198063 0.00107927 0)
(-0.0907359 -0.0290466 0)
(-0.0229964 -0.0661042 0)
(0.0315568 -0.0315455 0)
(0.0850815 -0.0253832 0)
(0.153683 0.0118589 0)
(0.223232 0.0293515 0)
(0.351232 0.207157 0)
(0.0173015 -0.386124 0)
(0.0484031 -0.383461 0)
(0.0791387 -0.374161 0)
(0.108706 -0.356166 0)
(0.134927 -0.320762 0)
(0.166115 -0.257758 0)
(0.19373 -0.142011 0)
(0.237906 0.0537913 0)
(0.155935 0.097079 0)
(-0.144845 -0.059676 0)
(-0.517553 0.0305485 0)
(-0.534702 -0.0610335 0)
(-0.380329 -0.265503 0)
(-0.312261 -0.241037 0)
(-0.23931 -0.171631 0)
(-0.161441 -0.0480922 0)
(-0.0802762 0.0263057 0)
(-0.033322 0.0735083 0)
(-0.00885695 0.155944 0)
(0.040956 0.172848 0)
(0.150081 0.191609 0)
(0.285437 0.204674 0)
(0.37696 0.297047 0)
(-0.035727 0.247868 0)
(-0.108526 0.243942 0)
(-0.178526 0.226321 0)
(-0.243125 0.198205 0)
(-0.295076 0.13997 0)
(-0.314713 0.0238982 0)
(-0.271559 -0.158972 0)
(-0.260654 -0.295751 0)
(0.0718378 0.125742 0)
(-0.138338 0.864698 0)
(-0.432496 0.681602 0)
(-0.100021 0.0712357 0)
(-0.0162434 0.129905 0)
(0.0476513 0.166479 0)
(0.0599751 0.0698606 0)
(0.0602337 -0.230881 0)
(0.0630436 -0.283039 0)
(0.110577 -0.241325 0)
(0.127553 -0.167439 0)
(0.204414 -0.0799326 0)
(0.236841 0.096187 0)
(0.329341 0.216503 0)
(0.452599 0.319708 0)
(-0.039146 -0.822561 0)
(-0.108788 -0.825861 0)
(-0.158503 -0.827546 0)
(-0.192776 -0.832285 0)
(-0.203558 -0.8358 0)
(-0.199249 -0.839809 0)
(-0.213893 -0.812901 0)
(-0.301159 -0.75692 0)
(-0.299024 -0.575307 0)
(-0.218793 -0.212052 0)
(0.187202 -0.776451 0)
(0.347466 -0.971579 0)
(0.36873 -0.97063 0)
(0.452585 -0.841679 0)
(0.573402 -0.571513 0)
(0.626562 -0.103475 0)
(0.57775 0.193738 0)
(0.477356 0.307963 0)
(0.392311 0.349549 0)
(0.305241 0.331204 0)
(0.330726 0.112538 0)
(0.365823 -0.062696 0)
(0.397368 -0.0442972 0)
(-0.0218022 -0.0175122 0)
(-0.0558019 -0.0362555 0)
(-0.0770527 -0.0619928 0)
(-0.0932314 -0.0994923 0)
(-0.103308 -0.144551 0)
(-0.111599 -0.196341 0)
(-0.123795 -0.223528 0)
(-0.146884 -0.17491 0)
(-0.139355 0.12528 0)
(-0.0821517 0.282919 0)
(0.135038 -0.114718 0)
(0.0552105 -0.394609 0)
(0.0353146 -0.4507 0)
(-0.00977877 -0.511693 0)
(-0.0383155 -0.589883 0)
(-0.0223283 -0.633806 0)
(0.0406331 -0.660315 0)
(0.101787 -0.620437 0)
(0.153996 -0.578612 0)
(0.165587 -0.515085 0)
(0.213869 -0.232825 0)
(0.0744311 0.022301 0)
(0.104703 0.184556 0)
(-0.00760836 -0.389922 0)
(-0.0186865 -0.418188 0)
(-0.0282915 -0.445352 0)
(-0.0410781 -0.47708 0)
(-0.057789 -0.509374 0)
(-0.0826109 -0.53867 0)
(-0.121987 -0.551507 0)
(-0.160388 -0.536743 0)
(-0.131988 -0.484508 0)
(0.0729374 -0.440312 0)
(0.22696 -0.585346 0)
(0.152049 -0.597076 0)
(0.0784461 -0.570168 0)
(0.0274328 -0.47697 0)
(0.00359516 -0.394967 0)
(0.00500725 -0.273094 0)
(0.00526041 -0.15454 0)
(-0.00628749 -0.0830854 0)
(0.00994104 -0.0758804 0)
(-0.0239607 -0.124201 0)
(-0.0769868 -0.224529 0)
(-0.121277 -0.307434 0)
(-0.0603898 -0.207433 0)
(0.00396962 -0.260786 0)
(0.0118145 -0.285379 0)
(0.0154728 -0.304011 0)
(0.0113976 -0.325013 0)
(0.000816158 -0.344244 0)
(-0.0170188 -0.357846 0)
(-0.0406621 -0.35686 0)
(-0.0639285 -0.330611 0)
(-0.0701254 -0.279493 0)
(-0.0203297 -0.261817 0)
(-0.00382707 -0.381019 0)
(-0.0434766 -0.454118 0)
(-0.068154 -0.510252 0)
(-0.0770987 -0.526563 0)
(-0.0723397 -0.519834 0)
(-0.0611935 -0.478513 0)
(-0.0451449 -0.418822 0)
(-0.0377037 -0.350206 0)
(-0.0570633 -0.274177 0)
(-0.130477 -0.120647 0)
(-0.18156 0.109236 0)
(-0.362845 0.158045 0)
(-0.4583 0.21873 0)
(0.00250766 -0.252776 0)
(0.0070911 -0.279012 0)
(0.00934943 -0.297906 0)
(0.00605064 -0.320863 0)
(-0.00305949 -0.343354 0)
(-0.0197264 -0.360686 0)
(-0.0421317 -0.370113 0)
(-0.0677528 -0.372546 0)
(-0.0782759 -0.369869 0)
(-0.0686371 -0.368909 0)
(-0.076132 -0.407951 0)
(-0.100954 -0.446116 0)
(-0.132399 -0.486683 0)
(-0.155558 -0.505257 0)
(-0.192683 -0.489079 0)
(-0.231055 -0.435281 0)
(-0.272125 -0.349699 0)
(-0.30903 -0.271671 0)
(-0.379694 -0.203699 0)
(-0.415843 -0.156567 0)
(-0.380825 -0.111316 0)
(-0.325401 -0.16687 0)
(-0.280399 -0.165726 0)
(0.00264347 -0.295639 0)
(0.00613239 -0.315747 0)
(0.00659949 -0.324478 0)
(0.00229015 -0.334815 0)
(-0.00955288 -0.344288 0)
(-0.0293144 -0.348758 0)
(-0.0519197 -0.349477 0)
(-0.074724 -0.348648 0)
(-0.0913163 -0.348375 0)
(-0.0945258 -0.356414 0)
(-0.107712 -0.39658 0)
(-0.13806 -0.428997 0)
(-0.174789 -0.447281 0)
(-0.233883 -0.434135 0)
(-0.289929 -0.402837 0)
(-0.329989 -0.342597 0)
(-0.366249 -0.245174 0)
(-0.392071 -0.147251 0)
(-0.405828 -0.0635088 0)
(-0.404783 0.00657269 0)
(-0.388193 0.0434326 0)
(-0.392222 0.0614997 0)
(-0.416725 0.0621529 0)
(0.000627339 -0.289531 0)
(-0.000484818 -0.308638 0)
(-0.00464625 -0.314853 0)
(-0.0159958 -0.320877 0)
(-0.0296241 -0.323936 0)
(-0.0461258 -0.326929 0)
(-0.0636905 -0.329497 0)
(-0.0803956 -0.330795 0)
(-0.0933331 -0.33444 0)
(-0.104581 -0.344676 0)
(-0.123765 -0.357745 0)
(-0.162305 -0.37672 0)
(-0.215209 -0.379794 0)
(-0.273404 -0.387545 0)
(-0.328241 -0.387702 0)
(-0.38453 -0.345207 0)
)
;

boundaryField
{
    leftWall
    {
        type            fixedValue;
        value           uniform (0 0 0);
    }
    rightWall
    {
        type            fixedValue;
        value           nonuniform 0();
    }
    lowerWall
    {
        type            fixedValue;
        value           uniform (0 0 0);
    }
    atmosphere
    {
        type            fluxCorrectedVelocity;
        value           nonuniform 0();
    }
    defaultFaces
    {
        type            empty;
    }
    procBoundary0to1
    {
        type            processor;
        value           nonuniform List<vector> 
26
(
(0.0515047 0.0196245 0)
(0.0597356 0.116811 0)
(0.114258 0.191572 0)
(0.0671307 0.289614 0)
(0.132484 0.363388 0)
(0.119067 0.508173 0)
(0.147697 0.586982 0)
(0.111432 0.736101 0)
(0.90598 0.781921 0)
(0.483287 0.648795 0)
(0.524811 0.636394 0)
(0.753408 0.751009 0)
(0.915213 0.826962 0)
(0.944075 0.853421 0)
(0.86101 0.790783 0)
(0.54599 0.487942 0)
(0.54599 0.487942 0)
(0.512231 0.322456 0)
(0.492665 0.384303 0)
(0.554852 0.365465 0)
(0.414941 -0.0102461 0)
(-0.082511 0.162913 0)
(-0.0985353 0.212196 0)
(-0.335666 0.125244 0)
(-0.239629 0.035388 0)
(-0.378105 0.0361527 0)
)
;
    }
    procBoundary0to2
    {
        type            processor;
        value           nonuniform List<vector> 
24
(
(-0.430899 -0.275266 0)
(-0.439617 -0.236596 0)
(-0.430358 -0.213672 0)
(-0.395923 -0.185978 0)
(-0.353452 -0.149319 0)
(-0.325472 -0.133947 0)
(-0.295064 -0.11868 0)
(-0.00167951 -0.286464 0)
(-0.00708078 -0.302565 0)
(-0.015787 -0.304586 0)
(-0.0260687 -0.307724 0)
(-0.037673 -0.31187 0)
(-0.04947 -0.314964 0)
(-0.061499 -0.317541 0)
(-0.0726763 -0.319238 0)
(-0.0828152 -0.320802 0)
(-0.0989316 -0.324932 0)
(-0.123115 -0.333494 0)
(-0.161557 -0.334159 0)
(-0.199735 -0.334263 0)
(-0.24225 -0.331486 0)
(-0.294232 -0.315476 0)
(-0.430899 -0.275266 0)
(-0.33812 -0.284746 0)
)
;
    }
}


// ************************************************************************* //
