/*--------------------------------*- C++ -*----------------------------------*\
| =========                 |                                                 |
| \\      /  F ield         | OpenFOAM: The Open Source CFD Toolbox           |
|  \\    /   O peration     | Version:  2.4.0                                 |
|   \\  /    A nd           | Web:      www.OpenFOAM.org                      |
|    \\/     M anipulation  |                                                 |
\*---------------------------------------------------------------------------*/
FoamFile
{
    version     2.0;
    format      ascii;
    class       volVectorField;
    location    "0.3";
    object      U.oil;
}
// * * * * * * * * * * * * * * * * * * * * * * * * * * * * * * * * * * * * * //

dimensions      [0 1 -1 0 0 0 0];

internalField   nonuniform List<vector> 
575
(
(0.0199972 -0.0094003 0)
(0.059359 -0.00943869 0)
(0.100793 -0.00940766 0)
(0.137505 -0.0097463 0)
(0.184514 -0.00900526 0)
(0.216084 -0.01125 0)
(0.270897 -0.00799399 0)
(0.296787 -0.0108986 0)
(0.347536 -0.0120068 0)
(0.405245 -0.010137 0)
(0.441303 -0.00768593 0)
(0.463616 -0.0101813 0)
(0.513884 -0.00978729 0)
(0.563801 -0.0130972 0)
(0.614647 -0.0111313 0)
(0.651989 -0.00487254 0)
(0.659891 0.00268723 0)
(0.646428 0.00616295 0)
(0.606588 0.0102421 0)
(0.52783 0.0245641 0)
(0.398271 0.0305601 0)
(0.238464 0.0753374 0)
(0.0199952 -0.0282138 0)
(0.0593805 -0.028352 0)
(0.100826 -0.0281761 0)
(0.137371 -0.0296089 0)
(0.185009 -0.0260546 0)
(0.215992 -0.0356 0)
(0.269406 -0.0222179 0)
(0.298944 -0.032476 0)
(0.348523 -0.0377982 0)
(0.404888 -0.0307032 0)
(0.438523 -0.0233669 0)
(0.464559 -0.0262818 0)
(0.518623 -0.0348326 0)
(0.572499 -0.0387699 0)
(0.61924 -0.0312154 0)
(0.653615 -0.0172568 0)
(0.659202 0.0013913 0)
(0.647355 0.0259108 0)
(0.606668 0.0541108 0)
(0.544322 0.0884839 0)
(0.418707 0.109531 0)
(0.283305 0.12716 0)
(0.0199659 -0.0469972 0)
(0.0593536 -0.0472134 0)
(0.100625 -0.046954 0)
(0.137285 -0.0490645 0)
(0.185034 -0.044692 0)
(0.215501 -0.0559711 0)
(0.26758 -0.0404471 0)
(0.302643 -0.0543934 0)
(0.34828 -0.0607507 0)
(0.400037 -0.0487961 0)
(0.435141 -0.0408083 0)
(0.472881 -0.0490854 0)
(0.533119 -0.0603161 0)
(0.570032 -0.0613773 0)
(0.620241 -0.0522447 0)
(0.646306 -0.0204252 0)
(0.657388 0.00442839 0)
(0.659641 0.0316658 0)
(0.63369 0.0652359 0)
(0.576338 0.109706 0)
(0.446671 0.168048 0)
(0.234613 0.222743 0)
(0.0199253 -0.0658343 0)
(0.0593245 -0.0660973 0)
(0.100259 -0.0658192 0)
(0.137487 -0.0687508 0)
(0.184237 -0.0627419 0)
(0.21556 -0.0774435 0)
(0.266316 -0.0587072 0)
(0.303945 -0.0756152 0)
(0.348605 -0.0824353 0)
(0.393466 -0.0689506 0)
(0.431031 -0.061919 0)
(0.491474 -0.0728011 0)
(0.536845 -0.0779147 0)
(0.574647 -0.0788424 0)
(0.609222 -0.057166 0)
(0.632762 -0.0240265 0)
(0.665438 0.0196755 0)
(0.677847 0.0744111 0)
(0.689081 0.149423 0)
(0.644149 0.214044 0)
(0.528872 0.303082 0)
(0.298067 0.301597 0)
(0.0198795 -0.0850315 0)
(0.0592449 -0.0852994 0)
(0.0998628 -0.0851554 0)
(0.137472 -0.0884917 0)
(0.18355 -0.0821014 0)
(0.214307 -0.0970856 0)
(0.26707 -0.0792833 0)
(0.30204 -0.0973114 0)
(0.350281 -0.100704 0)
(0.386071 -0.0859387 0)
(0.434368 -0.0902729 0)
(0.503096 -0.0942013 0)
(0.537066 -0.0971865 0)
(0.578335 -0.0821809 0)
(0.609556 -0.0546023 0)
(0.645105 0.010077 0)
(0.70368 0.0495979 0)
(0.74614 0.0867422 0)
(0.739397 0.179704 0)
(0.665641 0.27993 0)
(0.563079 0.420101 0)
(0.342319 0.44194 0)
(0.0198539 -0.103329 0)
(0.0591668 -0.10353 0)
(0.099546 -0.103456 0)
(0.137605 -0.107051 0)
(0.182375 -0.0995059 0)
(0.214146 -0.115676 0)
(0.267364 -0.0986881 0)
(0.301778 -0.11446 0)
(0.348373 -0.118401 0)
(0.387008 -0.10825 0)
(0.44489 -0.116939 0)
(0.49874 -0.119339 0)
(0.542581 -0.125719 0)
(0.591629 -0.130742 0)
(0.627239 -0.109017 0)
(0.671859 -0.0481391 0)
(0.688447 0.0280513 0)
(0.654014 0.194474 0)
(0.649101 0.341101 0)
(0.554313 0.452203 0)
(0.436016 0.62384 0)
(0.336453 0.58816 0)
(0.0199434 -0.117735 0)
(0.0593428 -0.11802 0)
(0.0999138 -0.118425 0)
(0.138207 -0.122724 0)
(0.181594 -0.115748 0)
(0.217204 -0.13503 0)
(0.263658 -0.120892 0)
(0.311046 -0.139302 0)
(0.338588 -0.146029 0)
(0.397801 -0.151684 0)
(0.448988 -0.165571 0)
(0.490396 -0.176565 0)
(0.530343 -0.207262 0)
(0.558536 -0.194319 0)
(0.537283 -0.180328 0)
(0.439472 -0.0582797 0)
(0.279239 0.157315 0)
(0.20181 0.119919 0)
(0.336733 0.277076 0)
(0.206355 0.581298 0)
(0.309572 0.647092 0)
(0.239275 0.753917 0)
(0.0201332 -0.143629 0)
(0.059746 -0.144423 0)
(0.100701 -0.145879 0)
(0.138682 -0.151742 0)
(0.17997 -0.147249 0)
(0.221693 -0.169499 0)
(0.256739 -0.16607 0)
(0.314113 -0.177808 0)
(0.334185 -0.200949 0)
(0.390825 -0.210963 0)
(0.410519 -0.228776 0)
(0.425084 -0.241023 0)
(0.391757 -0.219226 0)
(0.331079 -0.144188 0)
(0.22857 -0.0916756 0)
(0.232558 -0.083606 0)
(0.299212 -0.0196593 0)
(0.334976 0.0558295 0)
(0.251752 0.0991849 0)
(0.240147 0.281585 0)
(0.0512711 0.616839 0)
(0.196079 0.795035 0)
(0.0199974 -0.241275 0)
(0.0590739 -0.242129 0)
(0.0987506 -0.243437 0)
(0.133891 -0.2457 0)
(0.166871 -0.244835 0)
(0.209929 -0.250141 0)
(0.221093 -0.250078 0)
(0.261958 -0.244212 0)
(0.275911 -0.245502 0)
(0.266899 -0.237739 0)
(0.266511 -0.196973 0)
(0.271609 -0.177332 0)
(0.286952 -0.19576 0)
(0.323527 -0.151554 0)
(0.374786 -0.0868031 0)
(0.412543 0.0495109 0)
(0.37232 0.180027 0)
(0.35234 0.183503 0)
(0.264392 0.253776 0)
(0.367879 0.397647 0)
(0.0906689 0.687639 0)
(0.332804 0.749787 0)
(0.0110125 -0.217066 0)
(0.0327009 -0.212967 0)
(0.0554018 -0.204314 0)
(0.0760933 -0.19391 0)
(0.0956433 -0.188828 0)
(0.120064 -0.183285 0)
(0.136406 -0.17692 0)
(0.163548 -0.191308 0)
(0.198068 -0.191874 0)
(0.228661 -0.197408 0)
(0.279702 -0.219884 0)
(0.34326 -0.216042 0)
(0.392174 -0.182859 0)
(0.430313 -0.147673 0)
(0.446348 -0.0987345 0)
(0.489034 -0.0926053 0)
(0.507163 -0.038811 0)
(0.585028 0.0977148 0)
(0.474186 0.22482 0)
(0.6108 0.405714 0)
(0.469134 0.719899 0)
(0.492672 0.705368 0)
(0.0125303 -0.284107 0)
(0.0377422 -0.285935 0)
(0.0658211 -0.283388 0)
(0.0965694 -0.283092 0)
(0.128618 -0.279403 0)
(0.163068 -0.276459 0)
(0.19726 -0.264559 0)
(0.231786 -0.271244 0)
(0.273121 -0.249784 0)
(0.304421 -0.240017 0)
(0.355373 -0.236707 0)
(0.393189 -0.225105 0)
(0.432851 -0.202998 0)
(0.472913 -0.175522 0)
(0.52377 -0.14287 0)
(0.590371 -0.10211 0)
(0.626014 0.00794492 0)
(0.674856 0.129962 0)
(0.685728 0.272544 0)
(0.701573 0.400393 0)
(0.777539 0.706453 0)
(0.796795 0.878981 0)
(0.016666 -0.235125 0)
(0.0489269 -0.236022 0)
(0.0815699 -0.233877 0)
(0.113959 -0.233875 0)
(0.144535 -0.233146 0)
(0.176845 -0.236516 0)
(0.207946 -0.231857 0)
(0.238253 -0.250404 0)
(0.275939 -0.237542 0)
(0.302578 -0.249013 0)
(0.356122 -0.261145 0)
(0.390891 -0.260745 0)
(0.440356 -0.24271 0)
(0.493348 -0.225856 0)
(0.571367 -0.179824 0)
(0.636182 -0.113135 0)
(0.691619 -0.00712445 0)
(0.745405 0.061223 0)
(0.817135 0.226484 0)
(0.838116 0.378545 0)
(0.88145 0.548753 0)
(1.05526 0.931905 0)
(0.0156804 -0.281183 0)
(0.0475884 -0.282994 0)
(0.0789047 -0.284669 0)
(0.110456 -0.285795 0)
(0.140908 -0.288703 0)
(0.170264 -0.291954 0)
(0.200727 -0.2912 0)
(0.226286 -0.306214 0)
(0.263476 -0.294296 0)
(0.289785 -0.322816 0)
(0.348432 -0.32423 0)
(0.385005 -0.305869 0)
(0.454121 -0.265118 0)
(0.522367 -0.246729 0)
(0.604458 -0.215218 0)
(0.650677 -0.175717 0)
(0.722992 -0.0748957 0)
(0.782164 0.00826692 0)
(0.835477 0.166387 0)
(0.875412 0.338455 0)
(0.893278 0.469422 0)
(1.0638 0.82535 0)
(0.0156063 -0.326818 0)
(0.047247 -0.328076 0)
(0.0781732 -0.327468 0)
(0.108983 -0.326351 0)
(0.140173 -0.325122 0)
(0.168768 -0.324045 0)
(0.199017 -0.323974 0)
(0.225198 -0.331758 0)
(0.258827 -0.330665 0)
(0.288314 -0.363713 0)
(0.342922 -0.330471 0)
(0.381419 -0.309099 0)
(0.445329 -0.329042 0)
(0.498998 -0.318802 0)
(0.552899 -0.295024 0)
(0.566595 -0.2553 0)
(0.614292 -0.180305 0)
(0.620608 -0.0913805 0)
(0.631604 0.095789 0)
(0.70894 0.274993 0)
(0.725249 0.416998 0)
(0.910407 0.717627 0)
(0.0163608 -0.347538 0)
(0.0484054 -0.348743 0)
(0.0810979 -0.347161 0)
(0.11208 -0.345426 0)
(0.143174 -0.34292 0)
(0.171375 -0.34078 0)
(0.201271 -0.341022 0)
(0.216762 -0.343689 0)
(0.245432 -0.351683 0)
(0.248315 -0.356971 0)
(0.291074 -0.344563 0)
(0.327476 -0.379195 0)
(0.344581 -0.405248 0)
(0.326736 -0.380953 0)
(0.290261 -0.333052 0)
(0.234928 -0.28206 0)
(0.194454 -0.183369 0)
(0.156345 -0.0871117 0)
(0.21409 0.0251996 0)
(0.28378 0.103895 0)
(0.393905 0.208503 0)
(0.526456 0.424747 0)
(0.0164796 -0.370823 0)
(0.0495052 -0.371932 0)
(0.0814649 -0.370232 0)
(0.113733 -0.36736 0)
(0.143733 -0.363331 0)
(0.171481 -0.359131 0)
(0.195476 -0.352988 0)
(0.208478 -0.344489 0)
(0.188493 -0.356182 0)
(0.169108 -0.341685 0)
(0.18234 -0.360491 0)
(0.149169 -0.376752 0)
(0.0681272 -0.350172 0)
(-0.018413 -0.310034 0)
(-0.0568108 -0.264856 0)
(-0.0600025 -0.213574 0)
(-0.0448786 -0.165206 0)
(-0.0365187 -0.154413 0)
(0.0360546 -0.078825 0)
(0.0915685 -0.0232841 0)
(0.184894 0.114211 0)
(0.249192 0.193093 0)
(0.0180456 -0.503925 0)
(0.0528201 -0.507687 0)
(0.0871798 -0.510797 0)
(0.119848 -0.514812 0)
(0.152039 -0.51875 0)
(0.179752 -0.521852 0)
(0.206502 -0.521498 0)
(0.216034 -0.519515 0)
(0.0529449 -0.551442 0)
(0.0327013 -0.474115 0)
(-0.0746029 -0.421123 0)
(-0.212508 -0.357065 0)
(-0.239893 -0.351655 0)
(-0.216078 -0.308103 0)
(-0.174189 -0.285376 0)
(-0.142224 -0.270003 0)
(-0.0811799 -0.223552 0)
(-0.0251774 -0.194509 0)
(0.0318551 -0.123596 0)
(0.0850602 -0.0925307 0)
(0.153652 0.0058902 0)
(0.223101 0.0284022 0)
(0.338966 0.19207 0)
(0.0154288 -0.793777 0)
(0.0436389 -0.804339 0)
(0.0720745 -0.818338 0)
(0.0988777 -0.841147 0)
(0.121761 -0.869587 0)
(0.145757 -0.905936 0)
(0.155766 -0.936343 0)
(0.0316367 -0.894654 0)
(-0.310485 -0.890009 0)
(-0.337336 -0.649754 0)
(-0.499817 -0.545552 0)
(-0.514917 -0.610867 0)
(-0.339849 -0.688809 0)
(-0.253287 -0.583925 0)
(-0.168229 -0.530117 0)
(-0.109268 -0.436225 0)
(-0.0499929 -0.359182 0)
(0.00931563 -0.283458 0)
(0.0495167 -0.178891 0)
(0.129815 -0.122299 0)
(0.210917 0.00828429 0)
(0.294073 0.0543764 0)
(0.378245 0.166416 0)
(-0.0242288 -0.117267 0)
(-0.0815605 -0.0853433 0)
(-0.1429 -0.0412085 0)
(-0.209136 0.0103414 0)
(-0.270637 0.0321108 0)
(-0.298099 -0.0207344 0)
(-0.287532 -0.295642 0)
(-0.440297 -0.816806 0)
(-0.51579 -0.922294 0)
(-0.514422 -0.83065 0)
(-0.68188 -1.15024 0)
(-0.490487 -1.37524 0)
(-0.272646 -1.2889 0)
(-0.15761 -1.06525 0)
(0.00707097 -1.01778 0)
(0.0733697 -0.953419 0)
(0.0831628 -0.775215 0)
(0.132829 -0.599742 0)
(0.159917 -0.495749 0)
(0.256396 -0.398754 0)
(0.286452 -0.259774 0)
(0.363164 -0.169 0)
(0.471484 -0.0929036 0)
(-0.0391454 -0.822557 0)
(-0.108788 -0.825858 0)
(-0.158511 -0.827553 0)
(-0.193145 -0.833128 0)
(-0.206659 -0.842452 0)
(-0.211874 -0.865812 0)
(-0.291704 -0.941896 0)
(-0.377052 -0.960129 0)
(-0.277333 -0.644759 0)
(-0.204188 -0.322947 0)
(0.211519 -0.789477 0)
(0.34953 -0.976967 0)
(0.36489 -0.975792 0)
(0.41266 -0.847944 0)
(0.480091 -0.612179 0)
(0.351754 -0.89509 0)
(0.206713 -1.32641 0)
(0.199198 -1.09444 0)
(0.253529 -0.949913 0)
(0.260867 -0.850001 0)
(0.336484 -0.684152 0)
(0.383315 -0.633424 0)
(0.416687 -0.602834 0)
(-0.0218018 -0.0175102 0)
(-0.0558006 -0.0362538 0)
(-0.0770445 -0.0620154 0)
(-0.0931494 -0.0997149 0)
(-0.102865 -0.145542 0)
(-0.110425 -0.197844 0)
(-0.122935 -0.224959 0)
(-0.14683 -0.175871 0)
(-0.139243 0.124672 0)
(-0.0849526 0.281704 0)
(0.134816 -0.115158 0)
(0.0552471 -0.394937 0)
(0.0353475 -0.451457 0)
(-0.00969452 -0.513705 0)
(-0.0374909 -0.59318 0)
(-0.0227893 -0.634541 0)
(0.045345 -0.661575 0)
(0.10928 -0.61737 0)
(0.16012 -0.584731 0)
(0.160042 -0.532953 0)
(0.212423 -0.327488 0)
(0.164636 -0.198147 0)
(0.216818 -0.112338 0)
(-0.00760799 -0.389918 0)
(-0.0186855 -0.418184 0)
(-0.0282915 -0.44535 0)
(-0.0410905 -0.477107 0)
(-0.0578359 -0.509555 0)
(-0.0826461 -0.539174 0)
(-0.122004 -0.55204 0)
(-0.160395 -0.5371 0)
(-0.131977 -0.484675 0)
(0.0729373 -0.440865 0)
(0.226965 -0.585358 0)
(0.152047 -0.597076 0)
(0.0781881 -0.570321 0)
(0.0265811 -0.478029 0)
(0.000409336 -0.399146 0)
(0.000759462 -0.280168 0)
(0.000636431 -0.164808 0)
(-0.0105278 -0.0944837 0)
(0.00590814 -0.0916383 0)
(-0.0249422 -0.139451 0)
(-0.0727739 -0.24128 0)
(-0.111664 -0.324725 0)
(-0.0528434 -0.220284 0)
(0.00397002 -0.260784 0)
(0.0118159 -0.285377 0)
(0.0154754 -0.30401 0)
(0.0114015 -0.325021 0)
(0.000821698 -0.344275 0)
(-0.0170118 -0.357876 0)
(-0.0406535 -0.356873 0)
(-0.0639181 -0.330623 0)
(-0.0701127 -0.279518 0)
(-0.0203143 -0.261841 0)
(-0.00380896 -0.381029 0)
(-0.0434592 -0.454169 0)
(-0.0683518 -0.51141 0)
(-0.078115 -0.53192 0)
(-0.0749934 -0.528989 0)
(-0.0620989 -0.486142 0)
(-0.0440783 -0.42149 0)
(-0.0362629 -0.349148 0)
(-0.0564325 -0.273829 0)
(-0.13049 -0.119379 0)
(-0.182289 0.109607 0)
(-0.365149 0.157904 0)
(-0.45995 0.217218 0)
(0.00250824 -0.25277 0)
(0.00709279 -0.279007 0)
(0.00935227 -0.2979 0)
(0.00605481 -0.320858 0)
(-0.00305387 -0.343349 0)
(-0.0197191 -0.360681 0)
(-0.0421225 -0.370107 0)
(-0.0677417 -0.37254 0)
(-0.0782627 -0.369865 0)
(-0.0686225 -0.368907 0)
(-0.0761163 -0.407952 0)
(-0.10095 -0.44616 0)
(-0.132948 -0.488225 0)
(-0.158902 -0.514658 0)
(-0.197758 -0.500987 0)
(-0.236238 -0.448963 0)
(-0.275485 -0.365436 0)
(-0.310577 -0.278994 0)
(-0.380124 -0.205674 0)
(-0.415794 -0.158083 0)
(-0.380515 -0.113201 0)
(-0.324906 -0.168775 0)
(-0.280054 -0.166904 0)
(0.00264397 -0.295632 0)
(0.00613406 -0.315741 0)
(0.00660254 -0.324471 0)
(0.00229467 -0.334808 0)
(-0.00954687 -0.344282 0)
(-0.0293068 -0.348751 0)
(-0.0519104 -0.34947 0)
(-0.0747129 -0.348641 0)
(-0.0913033 -0.34837 0)
(-0.0945113 -0.356414 0)
(-0.107696 -0.396583 0)
(-0.138056 -0.429044 0)
(-0.17521 -0.448688 0)
(-0.23664 -0.441528 0)
(-0.294132 -0.413534 0)
(-0.334456 -0.352319 0)
(-0.367655 -0.248591 0)
(-0.39238 -0.148531 0)
(-0.405908 -0.064271 0)
(-0.404803 0.00617075 0)
(-0.388272 0.0429721 0)
(-0.392318 0.0609352 0)
(-0.41673 0.0615609 0)
(0.000628194 -0.289524 0)
(-0.000482542 -0.308631 0)
(-0.00464277 -0.314845 0)
(-0.015991 -0.320869 0)
(-0.0296178 -0.323928 0)
(-0.046118 -0.326921 0)
(-0.0636811 -0.329489 0)
(-0.0803846 -0.330787 0)
(-0.0933205 -0.334434 0)
(-0.104567 -0.344674 0)
(-0.12375 -0.357748 0)
(-0.162295 -0.376753 0)
(-0.21532 -0.380469 0)
(-0.274546 -0.390712 0)
(-0.330995 -0.397456 0)
(-0.386983 -0.353861 0)
)
;

boundaryField
{
    leftWall
    {
        type            fixedValue;
        value           uniform (0 0 0);
    }
    rightWall
    {
        type            fixedValue;
        value           nonuniform 0();
    }
    lowerWall
    {
        type            fixedValue;
        value           uniform (0 0 0);
    }
    atmosphere
    {
        type            fluxCorrectedVelocity;
        value           nonuniform 0();
    }
    defaultFaces
    {
        type            empty;
    }
    procBoundary0to1
    {
        type            processor;
        value           nonuniform List<vector> 
26
(
(0.0454481 0.0617671 0)
(0.0537909 0.164226 0)
(0.107185 0.245383 0)
(0.0588041 0.349302 0)
(0.123502 0.431414 0)
(0.106595 0.590341 0)
(0.132015 0.688897 0)
(0.104968 0.88226 0)
(0.361523 0.90441 0)
(0.487873 0.683606 0)
(0.640084 0.778368 0)
(0.950419 0.958548 0)
(1.0968 1.04605 0)
(1.05692 1.01303 0)
(0.867918 0.847411 0)
(0.499856 0.454947 0)
(0.499856 0.454947 0)
(0.491169 0.295041 0)
(0.492658 0.255354 0)
(0.544626 -0.0591712 0)
(0.434158 -0.609614 0)
(0.0709022 -0.0907731 0)
(-0.0864356 0.19216 0)
(-0.334168 0.123103 0)
(-0.239509 0.0342638 0)
(-0.377987 0.0355884 0)
)
;
    }
    procBoundary0to2
    {
        type            processor;
        value           nonuniform List<vector> 
24
(
(-0.431404 -0.277564 0)
(-0.439572 -0.238139 0)
(-0.430389 -0.215052 0)
(-0.396 -0.187017 0)
(-0.353491 -0.149999 0)
(-0.325462 -0.134328 0)
(-0.295029 -0.118917 0)
(-0.00167898 -0.286454 0)
(-0.00707891 -0.302555 0)
(-0.0157836 -0.304577 0)
(-0.0260638 -0.307714 0)
(-0.0376666 -0.31186 0)
(-0.0494621 -0.314954 0)
(-0.0614896 -0.317531 0)
(-0.0726654 -0.319229 0)
(-0.082803 -0.320794 0)
(-0.0989185 -0.324929 0)
(-0.123102 -0.333497 0)
(-0.161548 -0.33418 0)
(-0.199808 -0.334602 0)
(-0.242595 -0.332908 0)
(-0.294899 -0.318361 0)
(-0.431404 -0.277564 0)
(-0.339232 -0.289018 0)
)
;
    }
}


// ************************************************************************* //
