/*--------------------------------*- C++ -*----------------------------------*\
| =========                 |                                                 |
| \\      /  F ield         | OpenFOAM: The Open Source CFD Toolbox           |
|  \\    /   O peration     | Version:  2.4.0                                 |
|   \\  /    A nd           | Web:      www.OpenFOAM.org                      |
|    \\/     M anipulation  |                                                 |
\*---------------------------------------------------------------------------*/
FoamFile
{
    version     2.0;
    format      ascii;
    class       volVectorField;
    location    "0.3";
    object      U.water;
}
// * * * * * * * * * * * * * * * * * * * * * * * * * * * * * * * * * * * * * //

dimensions      [0 1 -1 0 0 0 0];

internalField   nonuniform List<vector> 
575
(
(0.0199972 -0.00940016 0)
(0.059359 -0.00943859 0)
(0.100793 -0.00940758 0)
(0.137505 -0.00974621 0)
(0.184514 -0.00900517 0)
(0.216084 -0.0112498 0)
(0.270897 -0.00799382 0)
(0.296787 -0.010898 0)
(0.347536 -0.0120056 0)
(0.405245 -0.0101353 0)
(0.441303 -0.00768266 0)
(0.463617 -0.0101767 0)
(0.513884 -0.0097864 0)
(0.563801 -0.0131055 0)
(0.614647 -0.011151 0)
(0.651989 -0.00490915 0)
(0.659896 0.00262256 0)
(0.646463 0.00601442 0)
(0.60676 0.00983413 0)
(0.528573 0.0236306 0)
(0.402426 0.0279936 0)
(0.247403 0.0591691 0)
(0.0199952 -0.028213 0)
(0.0593805 -0.0283515 0)
(0.100826 -0.0281756 0)
(0.137371 -0.0296084 0)
(0.185009 -0.026054 0)
(0.215992 -0.0355987 0)
(0.269406 -0.0222164 0)
(0.298944 -0.0324714 0)
(0.348523 -0.0377902 0)
(0.404888 -0.0306921 0)
(0.438525 -0.023349 0)
(0.464561 -0.0262595 0)
(0.518623 -0.0348301 0)
(0.572497 -0.0388162 0)
(0.619237 -0.0313207 0)
(0.653615 -0.0174448 0)
(0.659223 0.000973203 0)
(0.647466 0.0250878 0)
(0.607011 0.0525331 0)
(0.545199 0.0863226 0)
(0.423248 0.106379 0)
(0.292282 0.11016 0)
(0.0199659 -0.0469934 0)
(0.0593536 -0.0472107 0)
(0.100625 -0.0469512 0)
(0.137285 -0.0490609 0)
(0.185034 -0.0446875 0)
(0.215501 -0.0559617 0)
(0.26758 -0.0404359 0)
(0.302645 -0.0543677 0)
(0.348283 -0.0607126 0)
(0.400041 -0.0487463 0)
(0.435147 -0.0407493 0)
(0.472887 -0.0489944 0)
(0.533116 -0.0600286 0)
(0.570018 -0.0602498 0)
(0.62022 -0.0491762 0)
(0.646293 -0.01616 0)
(0.657481 0.00964532 0)
(0.660107 0.0357121 0)
(0.635013 0.0682839 0)
(0.578585 0.111586 0)
(0.451749 0.167934 0)
(0.244113 0.206225 0)
(0.0199254 -0.0658122 0)
(0.0593246 -0.0660814 0)
(0.10026 -0.0658015 0)
(0.137488 -0.0687292 0)
(0.184238 -0.0627174 0)
(0.215562 -0.0774042 0)
(0.26632 -0.0586603 0)
(0.303952 -0.075462 0)
(0.348616 -0.0819066 0)
(0.39348 -0.0677004 0)
(0.431049 -0.0581662 0)
(0.491516 -0.0634952 0)
(0.536995 -0.06251 0)
(0.575123 -0.0605355 0)
(0.610172 -0.034005 0)
(0.633092 0.00185905 0)
(0.663925 0.0533568 0)
(0.673526 0.110235 0)
(0.681601 0.180606 0)
(0.635338 0.242402 0)
(0.525281 0.322747 0)
(0.30428 0.296796 0)
(0.0198799 -0.0845914 0)
(0.059246 -0.0847658 0)
(0.0998647 -0.0843491 0)
(0.137475 -0.086982 0)
(0.183554 -0.0799686 0)
(0.214313 -0.0915617 0)
(0.267085 -0.0721095 0)
(0.302099 -0.0852646 0)
(0.350484 -0.0841894 0)
(0.386752 -0.066476 0)
(0.436867 -0.0623635 0)
(0.510108 -0.0379897 0)
(0.553836 0.0347172 0)
(0.596666 0.0882378 0)
(0.624642 0.102494 0)
(0.656971 0.143588 0)
(0.709497 0.16477 0)
(0.737268 0.200776 0)
(0.713067 0.279794 0)
(0.626174 0.389398 0)
(0.497786 0.543616 0)
(0.322383 0.480056 0)
(0.0198675 -0.0864387 0)
(0.0592116 -0.0860573 0)
(0.0996645 -0.0851833 0)
(0.137878 -0.0865757 0)
(0.183033 -0.0770657 0)
(0.215986 -0.0798366 0)
(0.270649 -0.0546681 0)
(0.310177 -0.0325596 0)
(0.363446 0.0241601 0)
(0.408058 0.0620831 0)
(0.468635 0.0561814 0)
(0.52386 0.055512 0)
(0.567905 0.0499498 0)
(0.613913 0.0395097 0)
(0.640132 0.035065 0)
(0.675637 0.0365515 0)
(0.680367 0.0438443 0)
(0.656272 0.151462 0)
(0.651127 0.303027 0)
(0.552731 0.437612 0)
(0.44183 0.617102 0)
(0.306175 0.67404 0)
(0.0212331 0.0344153 0)
(0.0632292 0.0437605 0)
(0.10643 0.0473048 0)
(0.146984 0.0437465 0)
(0.192604 0.0511534 0)
(0.230586 0.0333623 0)
(0.278792 0.0479356 0)
(0.328473 0.0310434 0)
(0.358521 0.0233003 0)
(0.420735 0.018793 0)
(0.47341 0.00703225 0)
(0.517169 -0.00436023 0)
(0.555289 -0.027286 0)
(0.563342 -0.0100171 0)
(0.528728 0.0100292 0)
(0.459759 0.0964224 0)
(0.319433 0.117279 0)
(0.221171 0.0460001 0)
(0.341127 0.16959 0)
(0.269384 0.449035 0)
(0.318465 0.631865 0)
(0.243154 0.75295 0)
(0.0213684 0.026741 0)
(0.0633464 0.0258888 0)
(0.106523 0.0242767 0)
(0.146393 0.0180908 0)
(0.190289 0.0218895 0)
(0.234921 -0.000347953 0)
(0.272693 0.000989912 0)
(0.332333 -0.0114685 0)
(0.35486 -0.0316757 0)
(0.414681 -0.0380407 0)
(0.43278 -0.0488396 0)
(0.441358 -0.0490651 0)
(0.396509 -0.0329846 0)
(0.324662 -0.0444225 0)
(0.225638 -0.0739891 0)
(0.250458 -0.112862 0)
(0.311435 -0.0962838 0)
(0.365528 -0.0239984 0)
(0.29 0.0253294 0)
(0.284051 0.213892 0)
(0.0828004 0.573896 0)
(0.198264 0.785055 0)
(0.0212601 -0.0673148 0)
(0.062583 -0.0677985 0)
(0.103554 -0.0683037 0)
(0.138775 -0.0692634 0)
(0.171602 -0.0676159 0)
(0.212729 -0.069598 0)
(0.223361 -0.0672084 0)
(0.262714 -0.0587365 0)
(0.276592 -0.0515428 0)
(0.270697 -0.0443074 0)
(0.261392 -0.0478347 0)
(0.263705 -0.0819974 0)
(0.282701 -0.15217 0)
(0.322063 -0.136735 0)
(0.374078 -0.0953089 0)
(0.413382 0.0108613 0)
(0.398881 0.0924089 0)
(0.386645 0.103831 0)
(0.311994 0.162273 0)
(0.381996 0.293783 0)
(0.129565 0.570208 0)
(0.310864 0.735854 0)
(0.0108294 -0.0818137 0)
(0.0321848 -0.0834519 0)
(0.0543594 -0.0850436 0)
(0.0751193 -0.0893187 0)
(0.0940473 -0.101292 0)
(0.118509 -0.115674 0)
(0.135505 -0.12867 0)
(0.162848 -0.161675 0)
(0.197852 -0.175874 0)
(0.228637 -0.192116 0)
(0.279732 -0.219167 0)
(0.343243 -0.216012 0)
(0.392218 -0.183081 0)
(0.430585 -0.14942 0)
(0.448378 -0.104717 0)
(0.492764 -0.107975 0)
(0.518834 -0.0760068 0)
(0.599075 0.0102255 0)
(0.529554 0.119237 0)
(0.626552 0.291882 0)
(0.477163 0.597025 0)
(0.479756 0.647453 0)
(0.0125302 -0.28331 0)
(0.0377502 -0.28536 0)
(0.0658255 -0.283074 0)
(0.0965673 -0.282971 0)
(0.128611 -0.279363 0)
(0.16306 -0.276449 0)
(0.197253 -0.264557 0)
(0.231779 -0.271246 0)
(0.273114 -0.249786 0)
(0.304415 -0.24002 0)
(0.355366 -0.236718 0)
(0.393184 -0.22516 0)
(0.432876 -0.203658 0)
(0.473026 -0.178681 0)
(0.523988 -0.151413 0)
(0.590228 -0.123119 0)
(0.629413 -0.039695 0)
(0.680317 0.0294417 0)
(0.701504 0.162677 0)
(0.717115 0.288729 0)
(0.791389 0.571453 0)
(0.768562 0.766028 0)
(0.016665 -0.235136 0)
(0.0489239 -0.236033 0)
(0.0815652 -0.233887 0)
(0.113954 -0.233884 0)
(0.144529 -0.233154 0)
(0.176839 -0.236522 0)
(0.20794 -0.231862 0)
(0.238247 -0.250408 0)
(0.275933 -0.237545 0)
(0.302571 -0.249019 0)
(0.356114 -0.261238 0)
(0.390861 -0.262441 0)
(0.440068 -0.246424 0)
(0.491641 -0.238612 0)
(0.565962 -0.216079 0)
(0.631984 -0.193765 0)
(0.689562 -0.107966 0)
(0.743984 -0.0455441 0)
(0.810583 0.108878 0)
(0.833851 0.258615 0)
(0.874695 0.42753 0)
(1.03372 0.780673 0)
(0.0156796 -0.281196 0)
(0.047586 -0.283007 0)
(0.078901 -0.284681 0)
(0.110452 -0.285805 0)
(0.140903 -0.288712 0)
(0.170259 -0.291962 0)
(0.200722 -0.291206 0)
(0.226281 -0.306218 0)
(0.26347 -0.2943 0)
(0.28977 -0.32305 0)
(0.348172 -0.326523 0)
(0.383168 -0.321966 0)
(0.44691 -0.330294 0)
(0.520902 -0.326167 0)
(0.604469 -0.304892 0)
(0.656008 -0.274396 0)
(0.725175 -0.183184 0)
(0.778607 -0.111489 0)
(0.827098 0.0429169 0)
(0.863197 0.212043 0)
(0.876285 0.34788 0)
(1.03335 0.697845 0)
(0.0156057 -0.326832 0)
(0.0472453 -0.328091 0)
(0.0781706 -0.327481 0)
(0.108979 -0.326363 0)
(0.14017 -0.325132 0)
(0.168764 -0.324054 0)
(0.199014 -0.323981 0)
(0.225195 -0.331764 0)
(0.258804 -0.330817 0)
(0.288057 -0.366031 0)
(0.34432 -0.362279 0)
(0.386856 -0.380476 0)
(0.453307 -0.409519 0)
(0.512149 -0.411331 0)
(0.565484 -0.398637 0)
(0.58073 -0.367743 0)
(0.620968 -0.302752 0)
(0.62282 -0.220328 0)
(0.61413 -0.0335494 0)
(0.706083 0.148277 0)
(0.71652 0.289727 0)
(0.909657 0.618875 0)
(0.0163604 -0.347554 0)
(0.0484044 -0.348758 0)
(0.0810964 -0.347175 0)
(0.112078 -0.345439 0)
(0.143172 -0.342932 0)
(0.171373 -0.34079 0)
(0.201269 -0.341032 0)
(0.216758 -0.343731 0)
(0.2455 -0.353432 0)
(0.257312 -0.394277 0)
(0.305145 -0.415899 0)
(0.339589 -0.466602 0)
(0.359293 -0.51272 0)
(0.340058 -0.504388 0)
(0.29669 -0.469947 0)
(0.222122 -0.421371 0)
(0.143962 -0.302493 0)
(0.116061 -0.190724 0)
(0.199183 -0.0773673 0)
(0.335184 0.0133404 0)
(0.424091 0.116351 0)
(0.602848 0.394026 0)
(0.0164794 -0.370841 0)
(0.0495049 -0.37195 0)
(0.0814644 -0.370252 0)
(0.113732 -0.367381 0)
(0.143732 -0.363356 0)
(0.17148 -0.359164 0)
(0.195471 -0.353064 0)
(0.208707 -0.34532 0)
(0.213257 -0.350013 0)
(0.206674 -0.384432 0)
(0.209849 -0.435113 0)
(0.171138 -0.487025 0)
(0.0738951 -0.482071 0)
(-0.045633 -0.449352 0)
(-0.0754683 -0.387847 0)
(-0.0696895 -0.313782 0)
(-0.0439782 -0.257659 0)
(-0.0257721 -0.24187 0)
(0.0498469 -0.161053 0)
(0.116408 -0.0995262 0)
(0.236108 0.0386544 0)
(0.344247 0.196516 0)
(0.0180466 -0.505188 0)
(0.0528229 -0.509039 0)
(0.0871851 -0.512301 0)
(0.119857 -0.516562 0)
(0.152052 -0.520856 0)
(0.179764 -0.524437 0)
(0.206453 -0.524358 0)
(0.220772 -0.517643 0)
(0.195563 -0.506328 0)
(0.121666 -0.519959 0)
(-0.0330953 -0.513098 0)
(-0.210168 -0.480599 0)
(-0.236671 -0.468709 0)
(-0.197178 -0.410566 0)
(-0.149537 -0.378452 0)
(-0.135212 -0.365033 0)
(-0.0769855 -0.267218 0)
(-0.0256389 -0.205524 0)
(0.0318671 -0.12635 0)
(0.0849192 -0.0955863 0)
(0.15755 -0.00232129 0)
(0.259875 0.065161 0)
(0.484064 0.368933 0)
(0.0153404 -0.81303 0)
(0.0434026 -0.825235 0)
(0.0716944 -0.842274 0)
(0.0982823 -0.870713 0)
(0.120843 -0.908929 0)
(0.144332 -0.963236 0)
(0.1618 -1.03583 0)
(0.19998 -1.00061 0)
(0.184398 -0.904819 0)
(-0.00895359 -0.801528 0)
(-0.481718 -0.757556 0)
(-0.546199 -0.838748 0)
(-0.308667 -0.793649 0)
(-0.278966 -0.675845 0)
(-0.177872 -0.564103 0)
(-0.110012 -0.442648 0)
(-0.0502047 -0.360233 0)
(0.00926479 -0.283614 0)
(0.0494717 -0.179165 0)
(0.129733 -0.122853 0)
(0.211015 0.00683639 0)
(0.293583 0.0507918 0)
(0.403968 0.20338 0)
(0.0204646 -1.53673 0)
(0.0390553 -1.55846 0)
(0.0619499 -1.57979 0)
(0.0850363 -1.61602 0)
(0.096319 -1.62256 0)
(0.0868175 -1.5247 0)
(0.0304305 -1.18559 0)
(-0.122372 -0.684897 0)
(0.0167355 -0.4663 0)
(-0.0180754 -0.741459 0)
(-0.250866 -0.407937 0)
(-0.208295 -0.0716537 0)
(-0.133273 -0.356555 0)
(-0.0760151 -0.716192 0)
(0.0169102 -0.810814 0)
(0.0683939 -0.869717 0)
(0.081329 -0.739957 0)
(0.131887 -0.585158 0)
(0.159079 -0.487258 0)
(0.255583 -0.393763 0)
(0.286144 -0.257677 0)
(0.363042 -0.16804 0)
(0.471208 -0.0910864 0)
(-0.0342395 -0.803855 0)
(-0.119515 -0.821033 0)
(-0.174116 -0.828454 0)
(-0.212237 -0.832621 0)
(-0.22016 -0.83439 0)
(-0.201386 -0.839322 0)
(-0.214391 -0.81445 0)
(-0.301724 -0.759856 0)
(-0.299143 -0.58146 0)
(-0.213344 -0.232694 0)
(0.187657 -0.780019 0)
(0.347799 -0.973268 0)
(0.369031 -0.972101 0)
(0.45341 -0.843065 0)
(0.573676 -0.571392 0)
(0.62508 -0.107319 0)
(0.552504 0.0901097 0)
(0.398925 -0.0876731 0)
(0.320466 -0.32342 0)
(0.274624 -0.484331 0)
(0.335609 -0.561579 0)
(0.381673 -0.579621 0)
(0.415202 -0.559838 0)
(-0.0214909 -0.0266291 0)
(-0.0553773 -0.0403821 0)
(-0.0765466 -0.0649328 0)
(-0.0925508 -0.102172 0)
(-0.102557 -0.146774 0)
(-0.111432 -0.196712 0)
(-0.12377 -0.223617 0)
(-0.146873 -0.174987 0)
(-0.139339 0.125084 0)
(-0.0823132 0.282598 0)
(0.13504 -0.114853 0)
(0.0552367 -0.394661 0)
(0.0353434 -0.450746 0)
(-0.00974334 -0.5118 0)
(-0.0382749 -0.590004 0)
(-0.0222831 -0.633874 0)
(0.0406802 -0.660337 0)
(0.101839 -0.620451 0)
(0.154054 -0.578629 0)
(0.16565 -0.515103 0)
(0.213941 -0.232855 0)
(0.0745339 0.0222354 0)
(0.10484 0.184449 0)
(-0.00778789 -0.388857 0)
(-0.0189002 -0.417907 0)
(-0.0284842 -0.445324 0)
(-0.0413224 -0.477194 0)
(-0.0579751 -0.509652 0)
(-0.0826504 -0.538773 0)
(-0.121988 -0.551535 0)
(-0.160377 -0.536744 0)
(-0.131975 -0.484512 0)
(0.0729514 -0.440345 0)
(0.226974 -0.585342 0)
(0.152066 -0.597073 0)
(0.0784681 -0.570168 0)
(0.0274605 -0.476974 0)
(0.0036304 -0.394972 0)
(0.00504571 -0.273102 0)
(0.0053025 -0.154548 0)
(-0.00624079 -0.0830982 0)
(0.00999377 -0.0758964 0)
(-0.0239011 -0.124221 0)
(-0.0769169 -0.224552 0)
(-0.121194 -0.307463 0)
(-0.0602895 -0.207471 0)
(0.00398752 -0.262215 0)
(0.0118232 -0.285736 0)
(0.0154784 -0.304178 0)
(0.0114035 -0.325167 0)
(0.000822766 -0.34437 0)
(-0.0170118 -0.357901 0)
(-0.0406551 -0.356896 0)
(-0.0639187 -0.330615 0)
(-0.0701125 -0.279493 0)
(-0.0203141 -0.261819 0)
(-0.0038081 -0.381023 0)
(-0.0434543 -0.454125 0)
(-0.0681299 -0.51026 0)
(-0.0770706 -0.526569 0)
(-0.0723074 -0.519839 0)
(-0.0611571 -0.478522 0)
(-0.0451048 -0.418834 0)
(-0.0376584 -0.350219 0)
(-0.0570127 -0.274194 0)
(-0.130421 -0.120666 0)
(-0.181495 0.109213 0)
(-0.362773 0.158016 0)
(-0.458212 0.218692 0)
(0.00250822 -0.252897 0)
(0.00709292 -0.279038 0)
(0.00935239 -0.29791 0)
(0.00605488 -0.320864 0)
(-0.00305386 -0.343354 0)
(-0.0197191 -0.360685 0)
(-0.0421225 -0.370113 0)
(-0.0677417 -0.372542 0)
(-0.0782627 -0.369864 0)
(-0.0686219 -0.368905 0)
(-0.0761147 -0.407948 0)
(-0.100934 -0.446117 0)
(-0.132377 -0.486685 0)
(-0.155533 -0.505261 0)
(-0.192654 -0.489086 0)
(-0.231024 -0.435291 0)
(-0.272087 -0.349713 0)
(-0.308988 -0.271688 0)
(-0.379646 -0.203719 0)
(-0.415789 -0.156589 0)
(-0.380765 -0.111343 0)
(-0.325335 -0.166902 0)
(-0.280321 -0.165766 0)
(0.00264398 -0.295642 0)
(0.00613407 -0.315749 0)
(0.00660255 -0.324473 0)
(0.00229468 -0.334809 0)
(-0.00954686 -0.344282 0)
(-0.0293068 -0.348751 0)
(-0.0519104 -0.34947 0)
(-0.0747128 -0.348641 0)
(-0.0913032 -0.348369 0)
(-0.0945106 -0.356409 0)
(-0.107695 -0.396576 0)
(-0.138041 -0.428994 0)
(-0.174769 -0.44728 0)
(-0.233861 -0.434136 0)
(-0.289905 -0.40284 0)
(-0.329961 -0.342604 0)
(-0.366216 -0.245184 0)
(-0.392032 -0.147265 0)
(-0.405784 -0.0635259 0)
(-0.404734 0.00655214 0)
(-0.388138 0.0434076 0)
(-0.392163 0.0614685 0)
(-0.416655 0.0621157 0)
(0.000628195 -0.289524 0)
(-0.000482539 -0.308632 0)
(-0.00464277 -0.314846 0)
(-0.015991 -0.32087 0)
(-0.0296178 -0.323928 0)
(-0.046118 -0.326921 0)
(-0.0636811 -0.329489 0)
(-0.0803846 -0.330787 0)
(-0.0933203 -0.334432 0)
(-0.104566 -0.344669 0)
(-0.123749 -0.357738 0)
(-0.162287 -0.376715 0)
(-0.215191 -0.37979 0)
(-0.273384 -0.387543 0)
(-0.32822 -0.387702 0)
(-0.384507 -0.345208 0)
)
;

boundaryField
{
    leftWall
    {
        type            fixedValue;
        value           uniform (0 0 0);
    }
    rightWall
    {
        type            fixedValue;
        value           nonuniform 0();
    }
    lowerWall
    {
        type            fixedValue;
        value           uniform (0 0 0);
    }
    atmosphere
    {
        type            fluxCorrectedVelocity;
        value           nonuniform 0();
    }
    defaultFaces
    {
        type            empty;
    }
    procBoundary0to1
    {
        type            processor;
        value           nonuniform List<vector> 
26
(
(0.0515047 0.0196253 0)
(0.0597331 0.116932 0)
(0.114053 0.192267 0)
(0.0660508 0.29481 0)
(0.127752 0.380039 0)
(0.109901 0.545592 0)
(0.138724 0.681517 0)
(0.10526 0.92466 0)
(0.3583 0.912743 0)
(0.490159 0.670898 0)
(0.646569 0.73641 0)
(0.905784 0.868736 0)
(1.04427 0.931688 0)
(1.02048 0.916971 0)
(0.895537 0.808174 0)
(0.634561 0.552757 0)
(0.634561 0.552757 0)
(0.640349 0.489644 0)
(0.560593 0.351563 0)
(0.546695 -0.0313908 0)
(0.432662 -0.562852 0)
(-0.0822744 0.162703 0)
(-0.0984116 0.212148 0)
(-0.335555 0.125197 0)
(-0.239534 0.035341 0)
(-0.378022 0.0361075 0)
)
;
    }
    procBoundary0to2
    {
        type            processor;
        value           nonuniform List<vector> 
24
(
(-0.430868 -0.27527 0)
(-0.439582 -0.236602 0)
(-0.430318 -0.213684 0)
(-0.395877 -0.185993 0)
(-0.353404 -0.149341 0)
(-0.325418 -0.133974 0)
(-0.295002 -0.118713 0)
(-0.00167898 -0.286455 0)
(-0.00707891 -0.302556 0)
(-0.0157836 -0.304577 0)
(-0.0260638 -0.307714 0)
(-0.0376666 -0.31186 0)
(-0.0494621 -0.314954 0)
(-0.0614896 -0.317531 0)
(-0.0726654 -0.319229 0)
(-0.0828028 -0.320793 0)
(-0.0989178 -0.324924 0)
(-0.1231 -0.333486 0)
(-0.161541 -0.334151 0)
(-0.199718 -0.334257 0)
(-0.242233 -0.33148 0)
(-0.294212 -0.315471 0)
(-0.430868 -0.27527 0)
(-0.338096 -0.284742 0)
)
;
    }
}


// ************************************************************************* //
