/*--------------------------------*- C++ -*----------------------------------*\
| =========                 |                                                 |
| \\      /  F ield         | OpenFOAM: The Open Source CFD Toolbox           |
|  \\    /   O peration     | Version:  2.4.0                                 |
|   \\  /    A nd           | Web:      www.OpenFOAM.org                      |
|    \\/     M anipulation  |                                                 |
\*---------------------------------------------------------------------------*/
FoamFile
{
    version     2.0;
    format      ascii;
    class       volScalarField;
    location    "0.2";
    object      alpha.water;
}
// * * * * * * * * * * * * * * * * * * * * * * * * * * * * * * * * * * * * * //

dimensions      [0 0 0 0 0 0 0];

internalField   nonuniform List<scalar> 
575
(
3.45449e-13
2.29693e-13
2.5458e-13
3.71852e-13
5.35049e-13
8.26807e-13
1.09649e-12
2.62469e-12
7.60309e-12
7.61869e-11
2.16364e-10
2.52691e-10
1.77922e-10
9.32346e-11
7.4114e-11
6.65983e-11
6.50005e-11
6.49866e-11
5.70707e-11
4.86399e-11
3.94566e-11
2.88176e-11
7.52958e-12
4.89467e-12
5.10138e-12
6.83242e-12
8.93331e-12
1.2139e-11
1.50239e-11
3.72758e-11
1.05174e-10
6.78282e-10
1.83954e-09
2.13063e-09
1.64714e-09
1.14018e-09
1.26996e-09
4.09206e-09
2.0267e-08
5.49262e-08
3.41955e-08
1.49783e-08
4.83077e-09
9.34113e-10
6.90373e-11
4.37616e-11
4.29288e-11
5.2682e-11
6.30601e-11
7.57643e-11
9.21205e-11
2.59383e-10
6.97733e-10
3.08108e-09
7.63163e-09
8.29107e-09
6.70149e-09
2.1601e-08
6.61993e-07
8.53119e-06
4.67527e-05
0.000111012
6.59761e-05
2.40933e-05
4.34573e-06
3.88575e-07
3.42588e-10
2.11246e-10
1.95117e-10
2.18649e-10
2.43162e-10
2.61254e-10
3.55536e-10
1.1848e-09
2.93002e-09
1.00178e-08
2.08339e-08
1.88795e-08
2.00112e-07
8.33025e-06
0.000226569
0.00216851
0.0087913
0.0175049
0.0137841
0.00671749
0.00104021
5.10809e-05
9.99552e-10
5.93674e-10
5.11882e-10
5.31375e-10
5.40159e-10
5.59869e-10
1.0923e-09
3.9428e-09
8.70215e-09
3.07338e-08
4.64427e-08
1.08284e-06
5.06715e-05
0.00094205
0.0131158
0.0771
0.194112
0.272316
0.23578
0.130937
0.0455437
0.00248672
1.99563e-09
1.04394e-09
7.76235e-10
7.28906e-10
6.96401e-10
9.77485e-10
3.06219e-09
9.83292e-09
2.12209e-08
1.45355e-07
1.65151e-05
0.000364692
0.00436175
0.0362906
0.197664
0.51242
0.691178
0.621143
0.454287
0.202692
0.0848111
0.00647468
4.92137e-09
1.53195e-09
6.4759e-10
5.40757e-10
4.9736e-10
2.25458e-09
7.04648e-09
1.75198e-08
1.07551e-07
0.00012274
0.00275585
0.0205398
0.100055
0.336488
0.736731
0.881805
0.821929
0.658376
0.395086
0.144788
0.0458801
0.00999125
1.38548e-08
1.6475e-09
4.98023e-10
4.97424e-10
4.97393e-10
4.88093e-09
1.08696e-08
1.95459e-08
0.000335114
0.0127659
0.0720743
0.218827
0.499369
0.83078
0.954302
0.931437
0.842722
0.632084
0.294406
0.0656416
0.0115833
0.00630277
0.006703
0.00765507
0.00989616
0.0139325
0.0203359
0.0344164
0.0576271
0.106013
0.183007
0.31369
0.526069
0.737919
0.908104
0.982889
0.980551
0.953002
0.848152
0.572475
0.202598
0.025009
0.00153208
0.00138031
0.200899
0.214765
0.243214
0.286795
0.342121
0.430446
0.538261
0.670171
0.798225
0.906096
0.972633
0.994963
0.99934
0.998622
0.992546
0.962819
0.84558
0.539264
0.168252
0.0162082
0.00031075
6.54236e-05
0.813442
0.827765
0.853096
0.88588
0.917058
0.95084
0.975834
0.990639
0.997123
0.999332
0.999873
0.999956
0.999855
0.999005
0.99223
0.955837
0.822384
0.513627
0.157453
0.0155773
0.000285678
3.39732e-05
0.997816
0.998118
0.998616
0.999144
0.999516
0.999769
0.999897
0.999954
0.999978
0.99999
0.999996
0.99998
0.999783
0.997556
0.981467
0.913038
0.725514
0.40268
0.111701
0.0106608
0.00019388
2.72836e-05
0.999999
0.999999
1
0.999999
1
1
1
1
1
1
0.999999
0.999964
0.999484
0.993767
0.957551
0.826346
0.548408
0.221668
0.0437533
0.0031123
4.40566e-05
8.68709e-06
1
1
1
1
1
1
1
1
1
1
0.999999
0.999939
0.998867
0.985632
0.91007
0.68364
0.332813
0.0795036
0.00781425
0.000244285
1.79287e-06
2.64044e-07
1
1
1
1
1
1
1
1
1
1
0.999999
0.999906
0.997154
0.963082
0.802648
0.460343
0.136818
0.0160407
0.000582937
4.8943e-06
3.15818e-08
1.35549e-08
1
1
1
1
1
1
1
1
1
1
0.999999
0.999835
0.990328
0.895077
0.5909
0.207743
0.0284487
0.00123761
1.41022e-05
3.77511e-08
1.60413e-10
8.8151e-12
1
1
1
1
1
1
1
1
1
1
0.999995
0.998407
0.949251
0.705888
0.302767
0.0535461
0.00301941
4.90731e-05
2.01477e-07
2.34263e-10
5.1059e-12
3.77786e-12
2.43181e-12
1
1
1
1
1
1
1
1
0.999999
0.999992
0.999606
0.964506
0.751495
0.36144
0.0779676
0.00526061
0.000127052
9.55912e-07
5.19688e-09
5.15523e-10
8.35195e-12
3.48937e-12
1.85361e-12
0.999997
0.999996
0.999995
0.99999
0.999979
0.999949
0.999861
0.9996
0.998824
0.996462
0.984997
0.778305
0.358533
0.090528
0.0085909
0.000310635
4.82229e-06
4.3739e-08
1.29466e-08
1.13036e-09
2.02618e-11
2.88218e-12
1.2685e-12
0.997843
0.997535
0.996815
0.995367
0.992467
0.986612
0.97519
0.95324
0.913298
0.84389
0.732023
0.402089
0.102817
0.0146379
0.000664564
1.78388e-05
1.30027e-06
5.81685e-08
2.55211e-09
4.51484e-11
2.20578e-12
1.19987e-12
4.78619e-13
0.873002
0.863667
0.843688
0.809878
0.756571
0.678228
0.572746
0.441591
0.301162
0.171609
0.0840051
0.0275972
0.0108105
0.00125742
4.47722e-05
1.58586e-06
1.41976e-07
6.6874e-09
8.42239e-11
6.36032e-13
4.23437e-13
2.44929e-13
8.56263e-14
0.215015
0.200001
0.171636
0.133375
0.0899264
0.0492904
0.0203371
0.0058912
0.00114153
0.000126925
1.47138e-05
5.2615e-05
0.000283197
8.84103e-05
3.65493e-06
1.60938e-07
4.24608e-09
4.2731e-11
2.99293e-13
2.24386e-13
8.62945e-14
1.4016e-14
2.99126e-15
0.000337964
0.000267277
0.00014988
6.27563e-05
1.7654e-05
3.63072e-06
9.82326e-07
2.84771e-07
5.49046e-08
1.42211e-08
7.09673e-09
1.12279e-07
5.37619e-07
9.40981e-07
1.26672e-07
7.06152e-10
2.91597e-12
8.88404e-14
1.20131e-13
1.7614e-14
2.2659e-15
2.89927e-16
2.85196e-16
1.84835e-07
9.36644e-08
3.71602e-08
2.32265e-08
1.76261e-08
3.47119e-08
9.93882e-08
2.46672e-08
9.19874e-10
2.88499e-10
6.08832e-10
1.58858e-09
6.38181e-09
1.38788e-08
9.38245e-10
1.02459e-13
8.21432e-14
4.41123e-14
7.67036e-15
1.08837e-15
9.93307e-17
2.55689e-17
5.27469e-17
1.5228e-08
5.25219e-09
3.77716e-09
3.52223e-09
4.55987e-09
8.21836e-09
1.23033e-08
7.47909e-09
3.01711e-10
1.42958e-10
4.08005e-10
7.1203e-10
2.10522e-09
4.691e-09
1.50735e-10
3.9545e-14
3.68789e-14
2.93243e-15
2.12979e-16
1.29959e-17
3.19845e-18
6.32523e-18
1.13996e-17
1.8853e-09
6.57009e-10
3.90814e-10
2.87047e-10
2.86263e-10
3.70942e-10
4.50162e-10
4.31014e-10
1.49685e-10
1.17789e-10
2.56442e-10
3.56754e-10
4.95032e-10
5.31454e-10
1.08303e-10
6.23691e-16
)
;

boundaryField
{
    leftWall
    {
        type            zeroGradient;
    }
    rightWall
    {
        type            zeroGradient;
    }
    lowerWall
    {
        type            zeroGradient;
    }
    atmosphere
    {
        type            inletOutlet;
        inletValue      nonuniform 0();
        value           nonuniform 0();
    }
    defaultFaces
    {
        type            empty;
    }
    procBoundary0to1
    {
        type            processor;
        value           nonuniform List<scalar> 
26
(
1.85468e-11
1.24767e-10
1.42314e-08
5.55599e-07
1.42892e-05
4.35483e-05
0.000128088
0.000266675
0.000282372
7.93507e-05
5.92364e-06
8.17884e-07
4.52241e-07
4.64222e-08
3.76099e-09
2.89902e-12
2.89902e-12
1.88199e-12
1.31372e-12
7.96747e-13
3.30273e-13
1.82852e-14
3.41266e-15
5.0846e-16
8.239e-17
1.62061e-17
)
;
    }
    procBoundary0to2
    {
        type            processor;
        value           nonuniform List<scalar> 
24
(
2.32601e-17
1.45448e-19
1.16406e-19
3.12458e-19
7.00535e-19
1.37096e-18
2.33631e-18
8.89935e-12
2.85205e-11
9.1255e-12
6.6974e-12
3.95622e-12
1.93152e-12
2.66632e-12
6.84489e-12
2.20155e-11
1.91981e-11
3.35153e-11
4.84869e-11
6.40087e-11
7.4321e-11
8.52983e-12
2.32601e-17
4.26963e-19
)
;
    }
}


// ************************************************************************* //
