/*--------------------------------*- C++ -*----------------------------------*\
| =========                 |                                                 |
| \\      /  F ield         | OpenFOAM: The Open Source CFD Toolbox           |
|  \\    /   O peration     | Version:  2.4.0                                 |
|   \\  /    A nd           | Web:      www.OpenFOAM.org                      |
|    \\/     M anipulation  |                                                 |
\*---------------------------------------------------------------------------*/
FoamFile
{
    version     2.0;
    format      ascii;
    class       volScalarField;
    location    "0.2";
    object      alpha.oil;
}
// * * * * * * * * * * * * * * * * * * * * * * * * * * * * * * * * * * * * * //

dimensions      [0 0 0 0 0 0 0];

internalField   nonuniform List<scalar> 
575
(
1.2202e-40
1.72237e-38
1.59664e-36
1.34252e-34
8.9868e-33
7.8396e-31
3.92111e-29
2.32979e-27
1.67873e-19
1.02003e-14
6.08776e-12
4.14634e-10
8.58616e-09
5.79401e-08
3.25072e-07
1.14313e-06
2.90738e-06
6.04463e-06
1.09434e-05
2.03252e-05
0.000159605
0.000907787
1.77167e-38
2.32351e-36
1.95664e-34
1.46365e-32
8.71383e-31
6.47404e-29
2.97685e-27
1.22704e-25
6.78345e-18
2.37592e-13
9.9481e-11
3.99769e-09
3.7314e-08
2.80442e-07
1.31145e-06
4.11817e-06
9.0446e-06
1.38553e-05
1.7022e-05
2.35143e-05
0.000161571
0.00105888
1.26434e-36
1.54343e-34
1.18226e-32
7.85665e-31
4.15468e-29
2.61475e-27
1.09058e-25
3.23009e-24
1.20647e-16
2.42769e-12
8.32016e-10
1.79367e-08
1.3424e-07
1.30547e-06
7.692e-06
4.23891e-05
0.000199923
0.000563845
0.000646237
0.000415454
0.000315074
0.00117046
5.9126e-35
6.73151e-33
4.69809e-31
2.77234e-29
1.29996e-27
6.89779e-26
2.57446e-24
5.67747e-23
1.23133e-15
1.39196e-11
4.7419e-09
6.02072e-08
1.90162e-06
2.58065e-05
0.000284671
0.00199351
0.00998785
0.0286803
0.0519066
0.0413792
0.0151213
0.00315246
2.03751e-33
2.16752e-31
1.38077e-29
7.24073e-28
3.00403e-26
1.33936e-24
4.41698e-23
7.45712e-22
7.9932e-15
4.81609e-11
2.02414e-08
1.3136e-06
2.46858e-05
0.000325507
0.00356607
0.0232333
0.0947333
0.236234
0.44117
0.598513
0.37291
0.0520309
5.51581e-32
5.49158e-30
3.19827e-28
1.49286e-26
5.4724e-25
2.04329e-23
5.88914e-22
7.77962e-21
3.39965e-14
1.03487e-10
1.82782e-07
1.02548e-05
0.000141271
0.00178792
0.0147791
0.0713862
0.192706
0.361949
0.544631
0.79282
0.810575
0.232048
1.22114e-30
1.13901e-28
6.07242e-27
2.52854e-25
8.18827e-24
2.55218e-22
6.36747e-21
6.65411e-20
9.20812e-14
5.99018e-10
5.63109e-07
3.40404e-05
0.00046447
0.00424482
0.0205229
0.0791733
0.17598
0.34156
0.604912
0.855205
0.94946
0.52603
2.27266e-29
1.98632e-27
9.70056e-26
3.61217e-24
1.0342e-22
2.6854e-21
5.73725e-20
4.77206e-19
2.06673e-13
1.77834e-09
8.28397e-07
5.6587e-05
0.000752634
0.00363124
0.0196443
0.065124
0.15713
0.367911
0.705593
0.934357
0.987507
0.819692
3.62705e-28
2.9675e-26
1.32735e-24
4.42964e-23
1.12271e-21
2.43045e-20
4.37858e-19
2.92125e-18
4.63929e-13
2.78768e-09
8.82202e-07
4.87144e-05
0.000406774
0.00271383
0.0150824
0.0464763
0.151814
0.427523
0.797402
0.97499
0.998029
0.924731
9.25622e-27
7.04955e-25
2.87373e-23
8.5729e-22
1.90984e-20
3.42719e-19
4.92907e-18
2.68758e-17
1.01041e-12
1.68879e-09
1.66178e-07
1.17409e-05
0.000125848
0.00117703
0.00740616
0.0371707
0.154416
0.460735
0.831748
0.983791
0.999617
0.973603
1.8992e-25
1.34366e-23
5.01521e-22
1.35032e-20
2.66462e-19
3.97603e-18
4.40366e-17
2.01781e-16
5.65377e-13
1.55163e-11
6.58855e-08
1.02141e-05
0.000121868
0.000982963
0.00776406
0.0441601
0.177613
0.486372
0.842547
0.984423
0.999683
0.992327
3.30298e-24
2.14619e-22
7.33881e-21
1.74262e-19
3.04413e-18
3.79068e-17
3.19581e-16
1.21242e-15
3.52491e-15
1.74083e-13
2.38497e-07
1.75284e-05
0.000214707
0.00244257
0.0185321
0.0869614
0.274486
0.597319
0.888298
0.989339
0.999795
0.99868
4.75188e-23
2.82563e-21
8.80437e-20
1.8305e-18
2.8509e-17
3.00801e-16
1.91884e-15
6.10664e-15
1.65326e-14
4.71166e-13
4.81729e-07
3.60619e-05
0.00051556
0.00623282
0.0424489
0.173654
0.451592
0.778332
0.956247
0.996888
0.999955
0.999935
5.6546e-22
3.07937e-20
8.69876e-19
1.60267e-17
2.22718e-16
2.03356e-15
9.80345e-15
2.64021e-14
6.93706e-14
3.88942e-12
6.54967e-07
6.08375e-05
0.00113262
0.0143677
0.0899298
0.31636
0.667187
0.920496
0.992186
0.999756
0.999998
1
5.76933e-21
2.85565e-19
7.25045e-18
1.18503e-16
1.48745e-15
1.18007e-14
4.30475e-14
9.78048e-14
2.68676e-13
3.21395e-11
7.15818e-07
9.36291e-05
0.0028464
0.0369183
0.197351
0.539656
0.863182
0.983959
0.999417
0.999995
1
1
5.14303e-20
2.29952e-18
5.20988e-17
7.50963e-16
8.63778e-15
5.86329e-14
1.63959e-13
3.14399e-13
1.05487e-12
4.23803e-10
7.32007e-07
0.000165312
0.00967174
0.104923
0.4091
0.792257
0.971551
0.998762
0.999986
1
1
1
4.07305e-19
1.63058e-17
3.26605e-16
4.10751e-15
4.40764e-14
2.47662e-13
5.49855e-13
9.0775e-13
5.06994e-12
3.44356e-09
5.22142e-06
0.00159313
0.0507493
0.294112
0.697232
0.946454
0.99698
0.999951
1
1
1
1
1
2.88602e-18
1.02734e-16
1.80167e-15
1.9626e-14
1.98784e-13
8.82051e-13
1.61468e-12
2.41462e-12
1.74736e-10
2.57622e-07
0.000354367
0.0354599
0.248501
0.63856
0.922032
0.994739
0.999873
0.999999
1
1
1
0.999995
0.999833
1.84422e-17
5.79311e-16
8.79724e-15
8.32373e-14
7.79805e-13
2.62666e-12
3.67345e-12
2.16831e-11
3.98214e-08
1.63787e-05
0.00604187
0.215669
0.640935
0.909446
0.991407
0.999661
0.999993
0.999999
0.999997
0.999972
0.999698
0.996027
0.96535
1.07036e-16
2.94428e-15
3.81908e-14
3.27425e-13
2.59873e-12
6.80785e-12
4.29317e-11
4.52642e-09
9.2896e-07
0.000212422
0.0286833
0.442056
0.876161
0.982259
0.998669
0.999539
0.999487
0.999008
0.997023
0.987743
0.949263
0.787004
0.400773
5.67534e-16
1.35877e-14
1.47805e-13
1.32992e-12
7.99577e-12
1.1837e-10
1.74298e-09
9.41704e-08
4.53243e-06
0.000580447
0.0406895
0.360827
0.799827
0.912085
0.932892
0.943107
0.935106
0.904283
0.82433
0.632374
0.317782
0.0458619
0.000598413
2.76409e-15
5.73941e-14
5.12713e-13
6.41031e-12
8.90923e-11
9.2295e-10
1.27696e-08
2.88587e-07
1.03251e-05
0.000334404
0.00186877
0.0199507
0.133506
0.283925
0.336295
0.364374
0.327984
0.230813
0.0987081
0.0131987
0.000229166
2.30166e-06
3.4621e-07
1.23299e-14
2.21416e-13
1.63296e-12
3.38442e-11
3.58245e-10
3.11449e-09
4.2812e-08
4.78879e-07
3.39881e-06
6.66933e-06
7.25568e-06
1.51701e-05
0.000104414
0.000757376
0.00155477
0.00178158
0.000914066
0.000159131
1.03306e-05
1.1619e-06
6.94895e-07
7.91749e-07
2.7339e-07
2.13408e-14
3.9706e-13
4.55373e-12
9.89029e-11
1.0275e-09
8.35414e-09
5.95611e-08
2.65993e-07
4.37509e-07
2.79156e-07
7.01057e-08
3.20165e-08
8.7667e-08
3.30191e-07
6.78788e-07
5.79763e-07
5.70025e-07
6.29739e-07
1.06468e-06
6.97816e-07
6.13585e-07
3.06854e-07
2.69853e-07
2.58949e-15
6.24575e-14
8.51397e-13
1.13726e-11
1.64665e-10
1.79884e-09
1.26769e-08
3.26109e-08
1.97015e-08
1.02461e-08
2.48494e-09
5.74545e-09
3.59341e-08
1.43405e-07
2.20708e-07
5.28573e-07
5.29689e-07
6.16614e-07
1.07035e-06
6.39518e-07
3.2462e-07
3.37441e-07
1.31866e-07
2.1328e-16
1.2264e-14
3.81589e-13
7.43615e-12
8.71763e-11
5.64508e-10
1.30606e-09
1.40396e-09
7.72422e-10
2.51952e-10
3.99146e-10
2.04063e-09
9.80647e-09
5.1281e-08
1.7711e-07
2.33883e-07
)
;

boundaryField
{
    leftWall
    {
        type            zeroGradient;
    }
    rightWall
    {
        type            zeroGradient;
    }
    lowerWall
    {
        type            zeroGradient;
    }
    atmosphere
    {
        type            inletOutlet;
        inletValue      nonuniform 0();
        value           nonuniform 0();
    }
    defaultFaces
    {
        type            empty;
    }
    procBoundary0to1
    {
        type            processor;
        value           nonuniform List<scalar> 
26
(
0.00152965
0.00211957
0.00254585
0.00290883
0.00398357
0.00968664
0.031454
0.0779532
0.345949
0.689918
0.90673
0.986311
0.999385
0.999997
1
1
1
0.999999
0.998956
0.890981
0.0946161
2.04713e-06
3.03935e-07
1.34023e-07
4.48829e-08
7.04076e-08
)
;
    }
    procBoundary0to2
    {
        type            processor;
        value           nonuniform List<scalar> 
24
(
5.98281e-07
7.52884e-07
9.80182e-07
3.41139e-07
1.95834e-07
1.21092e-07
1.19259e-07
4.84046e-17
3.60064e-15
1.12565e-13
1.70619e-12
1.03384e-11
4.04709e-11
6.52942e-11
4.11078e-11
4.08241e-11
4.58915e-11
2.26894e-10
7.41744e-10
6.59002e-09
4.5257e-08
9.94768e-08
5.98281e-07
3.60763e-07
)
;
    }
}


// ************************************************************************* //
