/*--------------------------------*- C++ -*----------------------------------*\
| =========                 |                                                 |
| \\      /  F ield         | OpenFOAM: The Open Source CFD Toolbox           |
|  \\    /   O peration     | Version:  2.4.0                                 |
|   \\  /    A nd           | Web:      www.OpenFOAM.org                      |
|    \\/     M anipulation  |                                                 |
\*---------------------------------------------------------------------------*/
FoamFile
{
    version     2.0;
    format      ascii;
    class       volScalarField;
    location    "0.2";
    object      alpha.mercury;
}
// * * * * * * * * * * * * * * * * * * * * * * * * * * * * * * * * * * * * * //

dimensions      [0 0 0 0 0 0 0];

internalField   nonuniform List<scalar> 
575
(
1
1
1
1
1
1
1
1
1
1
1
1
1
1
1
0.999999
0.999997
0.999994
0.999989
0.999979
0.99984
0.999091
1
1
1
1
1
1
1
1
1
1
1
1
1
1
0.999999
0.999996
0.999991
0.999986
0.999983
0.999976
0.999838
0.99894
1
1
1
1
1
1
1
1
1
1
1
1
1
0.999999
0.999992
0.999949
0.999753
0.999325
0.999288
0.99956
0.99968
0.998829
1
1
1
1
1
1
1
1
1
1
1
1
0.999998
0.999966
0.999489
0.995838
0.981221
0.953815
0.934309
0.951903
0.983838
0.996796
1
1
1
1
1
1
1
1
1
1
1
0.999998
0.999925
0.998732
0.983318
0.899667
0.711154
0.49145
0.32305
0.27055
0.581546
0.945482
1
1
1
1
1
1
1
1
1
1
0.999983
0.999625
0.995497
0.961921
0.787556
0.416194
0.116116
0.0169084
0.00108179
0.0044878
0.104613
0.761477
1
1
1
1
1
1
1
1
1
0.999877
0.997244
0.979426
0.89948
0.659267
0.242746
0.0390219
0.00209077
6.36922e-05
1.49485e-06
6.80252e-06
0.00465912
0.463979
1
1
1
1
1
1
1
1
0.999665
0.987234
0.927925
0.781117
0.499878
0.165588
0.0260539
0.00343921
0.000147471
4.53806e-06
5.66411e-07
9.84461e-07
0.000909572
0.174005
0.993297
0.992345
0.990104
0.986068
0.979664
0.965584
0.942373
0.893987
0.816993
0.68631
0.47393
0.262032
0.0914888
0.0143965
0.00436593
0.000521823
3.3846e-05
1.73529e-06
3.63732e-07
5.82432e-07
0.000438937
0.0738881
0.799101
0.785235
0.756786
0.713205
0.657879
0.569553
0.461739
0.329829
0.201775
0.0939035
0.0273669
0.00502506
0.000534092
0.000200471
4.76427e-05
1.06586e-05
4.45825e-06
1.54367e-06
2.96761e-07
2.78749e-07
7.24587e-05
0.0263313
0.186558
0.172235
0.146904
0.11412
0.0829417
0.0491601
0.0241662
0.00936099
0.0028766
0.000668357
0.00012699
3.34892e-05
2.34242e-05
1.22449e-05
5.77102e-06
2.74132e-06
2.0507e-06
1.51338e-06
4.81913e-07
1.67778e-07
3.15724e-05
0.00763859
0.0021839
0.00188174
0.00138433
0.000855683
0.000483684
0.000230769
0.000102408
4.62949e-05
2.18198e-05
1.01124e-05
3.50376e-06
2.53511e-06
1.78553e-06
1.24574e-06
7.58635e-07
3.8036e-07
3.83061e-07
4.85702e-07
3.62366e-07
1.22917e-07
1.11862e-05
0.00129279
4.95054e-07
3.98263e-07
2.68784e-07
3.2645e-07
3.16348e-07
2.59852e-07
2.23581e-07
1.9878e-07
1.73029e-07
1.24176e-07
9.27877e-08
8.65223e-08
7.33578e-08
5.79734e-08
3.30625e-08
1.60258e-08
2.52626e-08
7.59504e-08
1.22052e-07
5.66104e-08
6.95497e-07
5.58214e-05
3.19265e-11
3.07283e-11
2.39007e-11
3.55175e-11
4.0163e-11
4.18318e-11
4.66456e-11
4.99222e-11
5.08486e-11
4.21273e-11
3.97553e-11
3.97088e-11
3.6756e-11
2.77411e-11
2.85569e-11
5.15861e-11
2.85317e-10
1.73792e-09
8.9245e-09
7.51386e-09
4.11379e-09
1.5761e-07
2.18127e-52
2.08044e-50
1.04997e-48
3.67743e-47
1.02983e-45
2.59536e-44
6.44883e-43
1.71094e-41
4.35545e-40
1.07954e-38
4.36476e-37
1.10461e-35
6.50369e-35
1.75273e-34
4.37329e-34
8.11725e-34
7.69694e-34
2.05099e-12
4.68087e-11
8.22792e-11
2.26074e-11
2.49583e-09
4.46152e-51
3.9388e-49
1.82222e-47
5.84727e-46
1.52714e-44
3.72683e-43
9.1021e-42
2.27432e-40
5.02879e-39
1.15015e-37
4.288e-36
9.36117e-35
5.16576e-34
1.49761e-33
4.52317e-33
1.35852e-32
4.0227e-32
2.94916e-14
1.19195e-12
3.44933e-13
2.46679e-13
9.38357e-13
8.1673e-50
6.62266e-48
2.81157e-46
8.37387e-45
2.1067e-43
5.12629e-42
1.22573e-40
2.78126e-39
5.16587e-38
1.13951e-36
3.8028e-35
7.13949e-34
3.85886e-33
1.29938e-32
5.28013e-32
2.95616e-31
2.06148e-30
2.58812e-29
5.96852e-28
1.57175e-26
2.91342e-25
7.79109e-24
1.50101e-22
1.33796e-48
9.9557e-47
3.91429e-45
1.11358e-43
2.81003e-42
6.89388e-41
1.56294e-39
3.07715e-38
4.74738e-37
1.0534e-35
3.05712e-34
5.00645e-33
2.81738e-32
1.22717e-31
7.52713e-31
7.02427e-30
6.47113e-29
8.29562e-28
1.70856e-26
2.8606e-25
4.05166e-24
8.57013e-23
1.1454e-21
1.9652e-47
1.35006e-45
5.02503e-44
1.42573e-42
3.71659e-41
8.99707e-40
1.8476e-38
3.0389e-37
4.03318e-36
9.19437e-35
2.28827e-33
3.33336e-32
2.15738e-31
1.33826e-30
1.15339e-29
1.2619e-28
1.23075e-27
1.64819e-26
2.80682e-25
3.26571e-24
4.30222e-23
6.6776e-22
7.64556e-21
2.59155e-46
1.6735e-44
6.14626e-43
1.82265e-41
4.89006e-40
1.11198e-38
1.96986e-37
2.65277e-36
3.44246e-35
7.8136e-34
1.71838e-32
2.30206e-31
1.7925e-30
1.41711e-29
1.41539e-28
1.57117e-27
1.73714e-26
2.43998e-25
3.16977e-24
2.73936e-23
3.81701e-22
3.73356e-21
4.85363e-20
3.08216e-45
1.94564e-43
7.49459e-42
2.37383e-40
6.25392e-39
1.25651e-37
1.82904e-36
2.0937e-35
3.3333e-34
7.04619e-33
1.43792e-31
1.45963e-30
1.19418e-29
1.07916e-28
1.25288e-27
1.51475e-26
2.09948e-25
2.78961e-24
2.62196e-23
1.90357e-22
3.07789e-21
1.6617e-20
2.65902e-19
3.38764e-44
2.24032e-42
9.54565e-41
3.13198e-39
7.51077e-38
1.22086e-36
1.41813e-35
1.70763e-34
3.78758e-33
7.1136e-32
6.42973e-31
5.62476e-30
5.78116e-29
6.07354e-28
8.2684e-27
1.33414e-25
2.22341e-24
2.52572e-23
1.65885e-22
1.46847e-21
2.43512e-20
1.14741e-19
3.99014e-19
3.6662e-43
2.74464e-41
1.27278e-39
3.97431e-38
8.10401e-37
1.07518e-35
9.60081e-35
6.32429e-34
3.61963e-33
1.99734e-32
3.08971e-31
9.66533e-30
2.25578e-28
3.02494e-27
4.83685e-26
1.19473e-24
2.04594e-23
1.90728e-22
9.8073e-22
3.29522e-21
1.12875e-20
6.36693e-20
3.01984e-19
5.00229e-43
1.98277e-41
3.65526e-40
4.54385e-39
4.88481e-38
6.13455e-37
1.11489e-35
2.57756e-34
5.3788e-33
9.16287e-32
2.18973e-30
7.1082e-29
1.63681e-27
2.00227e-26
1.49648e-25
7.40217e-25
2.72641e-24
9.4171e-24
4.50076e-23
6.23221e-22
7.98817e-21
4.24561e-20
1.40217e-19
1.33363e-46
1.0778e-44
1.16394e-42
1.36928e-40
1.2311e-38
7.63467e-37
3.28785e-35
1.04985e-33
2.5333e-32
4.79259e-31
7.83553e-30
9.73814e-29
8.00991e-28
5.23662e-27
3.29376e-26
2.17662e-25
1.58355e-24
1.42597e-23
1.534e-22
1.17943e-21
5.07863e-21
1.64727e-20
4.76595e-20
8.97322e-47
2.86982e-44
4.62391e-42
4.62127e-40
3.12217e-38
1.51042e-36
5.44007e-35
1.5083e-33
3.29928e-32
5.89689e-31
8.91933e-30
1.10772e-28
1.0987e-27
9.65446e-27
7.96542e-26
6.2536e-25
)
;

boundaryField
{
    leftWall
    {
        type            zeroGradient;
    }
    rightWall
    {
        type            zeroGradient;
    }
    lowerWall
    {
        type            zeroGradient;
    }
    atmosphere
    {
        type            inletOutlet;
        inletValue      nonuniform 0();
        value           nonuniform 0();
    }
    defaultFaces
    {
        type            empty;
    }
    procBoundary0to1
    {
        type            processor;
        value           nonuniform List<scalar> 
26
(
0.998469
0.997879
0.997453
0.99709
0.996001
0.990269
0.968417
0.921779
0.653768
0.310002
0.0932634
0.0136879
0.000614078
2.58709e-06
8.39806e-10
2.72078e-14
2.72078e-14
3.52938e-22
2.70699e-21
1.65101e-20
1.03066e-19
1.40008e-18
1.44736e-18
9.14847e-19
3.93154e-19
1.24806e-19
)
;
    }
    procBoundary0to2
    {
        type            processor;
        value           nonuniform List<scalar> 
24
(
4.43802e-24
2.66851e-23
1.27079e-22
4.75379e-22
1.51989e-21
4.49462e-21
1.232e-20
2.94454e-47
1.10857e-44
2.07158e-42
2.42451e-40
1.91995e-38
1.06709e-36
4.2805e-35
1.27662e-33
2.89707e-32
5.11973e-31
7.23505e-30
8.13006e-29
7.4193e-28
5.7978e-27
4.05619e-26
4.43802e-24
2.54446e-25
)
;
    }
}


// ************************************************************************* //
