/*--------------------------------*- C++ -*----------------------------------*\
| =========                 |                                                 |
| \\      /  F ield         | OpenFOAM: The Open Source CFD Toolbox           |
|  \\    /   O peration     | Version:  2.4.0                                 |
|   \\  /    A nd           | Web:      www.OpenFOAM.org                      |
|    \\/     M anipulation  |                                                 |
\*---------------------------------------------------------------------------*/
FoamFile
{
    version     2.0;
    format      ascii;
    class       volScalarField;
    location    "0.2";
    object      alphas;
}
// * * * * * * * * * * * * * * * * * * * * * * * * * * * * * * * * * * * * * //

dimensions      [0 0 0 0 0 0 0];

internalField   nonuniform List<scalar> 
575
(
2
2
2
2
2
2
2
2
2
2
2
2
2
2
2
2
2
1.99999
1.99999
1.99998
1.99984
1.99909
2
2
2
2
2
2
2
2
2
2
2
2
2
2
2
2
1.99999
1.99999
1.99998
1.99998
1.99984
1.99894
2
2
2
2
2
2
2
2
2
2
2
2
2
2
1.99999
1.99994
1.99971
1.99921
1.99922
1.99954
1.99968
1.99883
2
2
2
2
2
2
2
2
2
2
2
2
2
1.99996
1.99926
1.99367
1.97243
1.93631
1.92052
1.94519
1.9828
1.99674
2
2
2
2
2
2
2
2
2
2
2
2
1.99987
1.99779
1.9702
1.82257
1.51704
1.21913
1.08727
1.13961
1.536
1.94299
2
2
2
2
2
2
2
2
2
2
1.99997
1.99926
1.99114
1.92563
1.58989
0.903774
0.424938
0.395765
0.546794
0.801795
1.0198
1.755
2
2
2
2
2
2
2
2
2
1.99975
1.99449
1.95889
1.79943
1.32278
0.506015
0.157217
0.180161
0.341688
0.604915
0.855219
0.958779
1.45399
2
2
2
2
2
2
2
2
1.99933
1.97447
1.85585
1.56229
1.00051
0.334808
0.071752
0.0720024
0.157425
0.36792
0.705594
0.934359
0.989326
1.1677
1.98659
1.98469
1.98021
1.97214
1.95933
1.93117
1.88475
1.78797
1.63399
1.37262
0.947861
0.524112
0.183384
0.0315069
0.0238143
0.0475199
0.151882
0.427526
0.797403
0.974991
0.998907
1.07251
1.5982
1.57047
1.51357
1.42641
1.31576
1.13911
0.923479
0.659658
0.403549
0.187807
0.054734
0.0100619
0.00119403
0.00157798
0.00750144
0.037192
0.154424
0.460738
0.831748
0.983792
0.999762
1.02627
0.373116
0.344471
0.293809
0.22824
0.165883
0.0983203
0.0483323
0.018722
0.00575319
0.00133671
0.000254046
7.71928e-05
0.000168716
0.00100745
0.0077756
0.0441656
0.177618
0.486375
0.842548
0.984423
0.999746
1.0076
0.0043678
0.00376348
0.00276865
0.00171137
0.000967367
0.000461539
0.000204816
9.25903e-05
4.36406e-05
2.02281e-05
7.2491e-06
2.26005e-05
0.000218279
0.00244506
0.0185336
0.0869622
0.274487
0.59732
0.888299
0.989339
0.999817
1.00127
9.91549e-07
7.98035e-07
5.39081e-07
6.54676e-07
6.3488e-07
5.22615e-07
4.51582e-07
4.04501e-07
3.56267e-07
2.65477e-07
6.83445e-07
3.62452e-05
0.000515713
0.00623294
0.042449
0.173654
0.451592
0.778332
0.956247
0.996888
0.999957
1.00005
5.95001e-09
7.025e-09
7.28104e-09
8.31666e-09
9.98727e-09
1.23308e-08
1.5814e-08
2.15483e-08
2.77092e-08
3.72566e-08
6.89155e-07
6.08647e-05
0.00113264
0.0143677
0.0899298
0.31636
0.667187
0.920496
0.992186
0.999756
0.999998
1
2.15824e-08
2.41136e-08
2.5937e-08
2.87359e-08
3.36255e-08
3.87633e-08
4.41565e-08
5.4472e-08
6.1033e-08
7.71213e-08
7.85788e-07
9.36655e-05
0.00284641
0.0369183
0.197351
0.539656
0.863182
0.983959
0.999417
0.999995
1
1
6.16902e-08
6.26591e-08
6.60819e-08
6.99743e-08
7.63657e-08
8.11134e-08
8.82574e-08
1.12838e-07
1.53016e-07
2.30292e-07
8.29714e-07
0.000165335
0.00967174
0.104923
0.4091
0.792257
0.971551
0.998762
0.999986
1
1
1
1.36805e-07
1.50227e-07
1.57108e-07
1.65616e-07
1.81812e-07
2.074e-07
2.7079e-07
3.44445e-07
4.31686e-07
5.02973e-07
5.46048e-06
0.00159325
0.0507493
0.294112
0.697232
0.946454
0.99698
0.999951
1
1
1
1
1
5.06465e-07
5.55639e-07
5.64912e-07
5.68162e-07
5.84057e-07
6.07883e-07
6.87907e-07
1.40331e-06
5.01718e-06
2.48598e-05
0.000472811
0.0355639
0.248513
0.63856
0.922032
0.994739
0.999873
0.999999
1
1
1
1.00001
1.00034
9.88094e-06
1.20187e-05
1.74726e-05
3.05447e-05
6.37732e-05
0.000155396
0.000418762
0.00120033
0.00352758
0.0105811
0.032926
0.233748
0.642533
0.909525
0.991413
0.999746
0.999999
1
1.00001
1.00006
1.00061
1.00795
1.0693
0.00647328
0.00739752
0.00955596
0.0138988
0.0226005
0.0401642
0.0744302
0.14028
0.260104
0.467905
0.746565
0.909621
0.939228
0.991569
1.00067
1.00087
1.00102
1.00199
1.00596
1.02452
1.10148
1.42599
2.19846
0.380993
0.409001
0.468936
0.570366
0.730288
0.965315
1.28176
1.67523
2.09651
2.48401
2.66661
2.19555
1.36791
1.17206
1.13408
1.11378
1.12979
1.19144
1.35134
1.73525
2.36444
2.90828
2.99881
2.35495
2.4
2.48509
2.59987
2.73022
2.85213
2.93899
2.98232
2.99655
2.99895
2.99622
2.95994
2.73214
2.43189
2.3274
2.27125
2.34403
2.53838
2.80259
2.97361
2.99955
3
3
2.99898
2.9992
2.99955
2.99981
2.99994
2.99999
2.99999
3
2.99999
2.99998
2.99998
2.99997
2.99979
2.99848
2.99689
2.99644
2.99817
2.99968
2.99998
3
3
3
3
2.99999
2.99999
2.99999
2.99999
3
3
3
3
3
3
3
3
3
3
3
3
3
3
3
3
3
3
3
2.99999
2.99999
2.99999
2.99999
2.99999
2.99999
3
3
3
3
3
3
3
3
3
3
3
3
3
3
3
3
3
2.99999
2.99999
2.99999
2.99999
2.99999
2.99999
3
3
3
3
3
3
3
3
3
3
)
;

boundaryField
{
    leftWall
    {
        type            zeroGradient;
    }
    rightWall
    {
        type            zeroGradient;
    }
    lowerWall
    {
        type            zeroGradient;
    }
    atmosphere
    {
        type            zeroGradient;
    }
    defaultFaces
    {
        type            empty;
    }
    procBoundary0to1
    {
        type            processor;
        value           nonuniform List<scalar> 
26
(
1.99847
1.99788
1.99745
1.99709
1.99599
1.99022
1.96829
1.92151
1.65348
1.30992
1.09326
1.01369
1.00061
1
1
1
1
1
1.00209
1.21804
2.81077
3
3
3
3
3
)
;
    }
    procBoundary0to2
    {
        type            processor;
        value           nonuniform List<scalar> 
24
(
3
3
3
3
3
3
3
2.99999
2.99999
2.99999
3
3
3
3
3
3
3
3
3
3
3
3
3
3
)
;
    }
}


// ************************************************************************* //
