/*--------------------------------*- C++ -*----------------------------------*\
| =========                 |                                                 |
| \\      /  F ield         | OpenFOAM: The Open Source CFD Toolbox           |
|  \\    /   O peration     | Version:  2.4.0                                 |
|   \\  /    A nd           | Web:      www.OpenFOAM.org                      |
|    \\/     M anipulation  |                                                 |
\*---------------------------------------------------------------------------*/
FoamFile
{
    version     2.0;
    format      ascii;
    class       surfaceScalarField;
    location    "0.2";
    object      phi;
}
// * * * * * * * * * * * * * * * * * * * * * * * * * * * * * * * * * * * * * //

dimensions      [0 3 -1 0 0 0 0];

internalField   nonuniform List<scalar> 
1101
(
3.12217e-06
-3.12218e-06
6.27807e-06
-3.15589e-06
9.49586e-06
-3.2178e-06
1.28188e-05
-3.32295e-06
1.62275e-05
-3.40871e-06
1.98932e-05
-3.66565e-06
2.34137e-05
-3.52052e-06
2.82015e-05
-4.78784e-06
3.15039e-05
-3.3024e-06
3.6499e-05
-4.99503e-06
4.28415e-05
-6.34259e-06
4.8457e-05
-5.61549e-06
5.31746e-05
-4.71757e-06
5.80605e-05
-4.88587e-06
6.37035e-05
-5.64302e-06
7.04535e-05
-6.75003e-06
7.68379e-05
-6.38441e-06
8.22879e-05
-5.44999e-06
8.2937e-05
-6.49101e-07
7.82367e-05
4.7003e-06
6.20084e-05
1.62284e-05
2.88985e-05
3.11664e-06
-6.23882e-06
6.26729e-06
-6.30655e-06
9.48027e-06
-6.43078e-06
1.28001e-05
-6.64279e-06
1.61984e-05
-6.80698e-06
1.98536e-05
-7.32085e-06
2.3478e-05
-7.14495e-06
2.79992e-05
-9.30899e-06
3.14691e-05
-6.77236e-06
3.65955e-05
-1.01214e-05
4.29326e-05
-1.26796e-05
4.82081e-05
-1.0891e-05
5.25527e-05
-9.06215e-06
5.76733e-05
-1.00065e-05
6.44251e-05
-1.23949e-05
7.19501e-05
-1.4275e-05
7.92564e-05
-1.36907e-05
8.47678e-05
-1.09614e-05
8.60294e-05
-1.91068e-06
8.12316e-05
9.49805e-06
6.40107e-05
3.34493e-05
5.62826e-05
3.10203e-06
-9.34085e-06
6.23811e-06
-9.44263e-06
9.4385e-06
-9.63117e-06
1.27441e-05
-9.94836e-06
1.61284e-05
-1.01913e-05
1.97585e-05
-1.0951e-05
2.34436e-05
-1.08301e-05
2.76537e-05
-1.35191e-05
3.14528e-05
-1.05714e-05
3.65869e-05
-1.52555e-05
4.2643e-05
-1.87358e-05
4.76967e-05
-1.59447e-05
5.22061e-05
-1.35716e-05
5.80032e-05
-1.58035e-05
6.53894e-05
-1.97811e-05
7.35576e-05
-2.24433e-05
8.08633e-05
-2.09963e-05
8.57462e-05
-1.58443e-05
8.81166e-05
-4.28107e-06
8.48893e-05
1.27254e-05
6.95807e-05
4.87578e-05
8.6078e-05
3.08019e-06
-1.2421e-05
6.19451e-06
-1.2557e-05
9.37708e-06
-1.28137e-05
1.26578e-05
-1.32291e-05
1.6029e-05
-1.35625e-05
1.96199e-05
-1.45419e-05
2.33099e-05
-1.452e-05
2.72969e-05
-1.75062e-05
3.13852e-05
-1.46598e-05
3.64037e-05
-2.0274e-05
4.18813e-05
-2.42133e-05
4.69019e-05
-2.09653e-05
5.25239e-05
-1.91936e-05
5.94151e-05
-2.26947e-05
6.67866e-05
-2.71526e-05
7.42157e-05
-2.98723e-05
8.08598e-05
-2.76404e-05
8.58089e-05
-2.07934e-05
8.93849e-05
-7.85707e-06
8.35821e-05
1.85282e-05
7.0586e-05
6.17538e-05
0.000114869
3.05049e-06
-1.54715e-05
6.13553e-06
-1.5642e-05
9.29364e-06
-1.59719e-05
1.25439e-05
-1.64793e-05
1.58888e-05
-1.69074e-05
1.94447e-05
-1.80978e-05
2.30914e-05
-1.81667e-05
2.68743e-05
-2.12891e-05
3.12752e-05
-1.90606e-05
3.60358e-05
-2.50346e-05
4.07436e-05
-2.89212e-05
4.62515e-05
-2.64732e-05
5.36281e-05
-2.65701e-05
6.14859e-05
-3.05525e-05
6.7521e-05
-3.31878e-05
7.13204e-05
-3.36716e-05
7.53841e-05
-3.17042e-05
7.73578e-05
-2.27671e-05
7.5655e-05
-6.15428e-06
7.13732e-05
2.281e-05
5.53057e-05
7.78214e-05
0.000130995
3.01164e-06
-1.84832e-05
6.05875e-06
-1.86891e-05
9.18426e-06
-1.90974e-05
1.23966e-05
-1.96916e-05
1.57014e-05
-2.02122e-05
1.92266e-05
-2.1623e-05
2.27933e-05
-2.17334e-05
2.65493e-05
-2.50451e-05
3.09026e-05
-2.34138e-05
3.54318e-05
-2.95638e-05
3.96521e-05
-3.31415e-05
4.62956e-05
-3.31167e-05
5.51757e-05
-3.54502e-05
6.13312e-05
-3.6708e-05
6.28875e-05
-3.47441e-05
6.74258e-05
-3.821e-05
7.52144e-05
-3.94927e-05
7.77172e-05
-2.527e-05
7.18092e-05
-2.46212e-07
6.18119e-05
3.28074e-05
4.15441e-05
9.80891e-05
0.000143908
2.9619e-06
-2.14451e-05
5.96159e-06
-2.16888e-05
9.04493e-06
-2.21807e-05
1.22113e-05
-2.2858e-05
1.54713e-05
-2.34723e-05
1.89714e-05
-2.51231e-05
2.24826e-05
-2.52446e-05
2.61786e-05
-2.87412e-05
3.05346e-05
-2.77699e-05
3.47974e-05
-3.38266e-05
3.91222e-05
-3.74663e-05
4.63894e-05
-4.03839e-05
5.39064e-05
-4.29671e-05
5.63352e-05
-3.91368e-05
6.26056e-05
-4.10146e-05
7.1604e-05
-4.72083e-05
8.01059e-05
-4.79946e-05
8.65764e-05
-3.17405e-05
8.27415e-05
3.58865e-06
6.58722e-05
4.96767e-05
4.50747e-05
0.000118887
0.000167061
2.90418e-06
-2.43492e-05
5.85172e-06
-2.46363e-05
8.88927e-06
-2.52182e-05
1.20089e-05
-2.59776e-05
1.52365e-05
-2.66999e-05
1.87242e-05
-2.86109e-05
2.2252e-05
-2.87723e-05
2.58477e-05
-3.23369e-05
3.04743e-05
-3.23965e-05
3.3874e-05
-3.72263e-05
3.8602e-05
-4.21943e-05
4.4877e-05
-4.6659e-05
5.07081e-05
-4.87982e-05
5.33865e-05
-4.18151e-05
6.09793e-05
-4.86074e-05
7.27807e-05
-5.90098e-05
8.056e-05
-5.57738e-05
8.30284e-05
-3.42089e-05
7.67509e-05
9.86611e-06
6.53099e-05
6.11178e-05
4.53202e-05
0.000138876
0.000191306
6.0565e-06
-3.04058e-05
1.22276e-05
-3.08075e-05
1.85859e-05
-3.15765e-05
2.50978e-05
-3.24895e-05
3.19471e-05
-3.35491e-05
3.93395e-05
-3.60033e-05
4.76418e-05
-3.70747e-05
5.54285e-05
-4.01236e-05
6.42021e-05
-4.117e-05
7.0177e-05
-4.32012e-05
7.96989e-05
-5.17162e-05
8.59062e-05
-5.28663e-05
8.98533e-05
-5.27453e-05
0.000107068
-5.90299e-05
0.000130335
-7.18744e-05
0.000147451
-7.61259e-05
0.000156897
-6.52192e-05
0.000152934
-3.02469e-05
0.000133761
2.90395e-05
0.000121896
7.2983e-05
0.000130359
0.000130413
0.000198926
6.19201e-06
-3.65978e-05
1.24198e-05
-3.70353e-05
1.85413e-05
-3.7698e-05
2.4419e-05
-3.83673e-05
3.02816e-05
-3.94117e-05
3.66093e-05
-4.23309e-05
4.32992e-05
-4.37646e-05
4.95505e-05
-4.63748e-05
5.64979e-05
-4.81174e-05
6.72734e-05
-5.39767e-05
7.44872e-05
-5.893e-05
8.49421e-05
-6.33212e-05
0.000105278
-7.30814e-05
0.000127403
-8.11546e-05
0.000141523
-8.59944e-05
0.000148289
-8.28918e-05
0.000148504
-6.54341e-05
0.000139631
-2.13736e-05
0.000122945
4.57249e-05
0.000119306
7.66221e-05
0.000131007
0.000118712
0.000160859
5.00614e-06
-4.16039e-05
1.03081e-05
-4.23372e-05
1.55025e-05
-4.28924e-05
2.17607e-05
-4.46255e-05
2.82521e-05
-4.59031e-05
3.47706e-05
-4.88494e-05
4.23106e-05
-5.13047e-05
5.21914e-05
-5.62556e-05
6.36755e-05
-5.96015e-05
7.88568e-05
-6.9158e-05
9.3079e-05
-7.31523e-05
0.000106974
-7.7216e-05
0.000119826
-8.59339e-05
0.000132405
-9.37337e-05
0.000140414
-9.40034e-05
0.000143275
-8.57525e-05
0.000139634
-6.1793e-05
0.000128197
-9.93656e-06
0.000120128
5.37941e-05
0.000119969
7.67807e-05
0.000131455
0.000107227
0.000114543
6.96782e-06
-4.85717e-05
1.41102e-05
-4.94796e-05
2.15621e-05
-5.03444e-05
2.97963e-05
-5.28596e-05
3.83364e-05
-5.44432e-05
4.77179e-05
-5.82309e-05
5.83877e-05
-6.19745e-05
6.9123e-05
-6.69909e-05
7.96598e-05
-7.01383e-05
8.88174e-05
-7.83156e-05
9.65786e-05
-8.09135e-05
0.000105878
-8.65156e-05
0.000116349
-9.64051e-05
0.000125047
-0.000102432
0.000131354
-0.00010031
0.000133202
-8.7601e-05
0.000123905
-5.24958e-05
0.000112226
1.7427e-06
0.000112505
5.3515e-05
0.00012023
6.90551e-05
0.000138973
8.84842e-05
8.12011e-05
8.23205e-06
-5.68038e-05
1.62871e-05
-5.75346e-05
2.45498e-05
-5.86071e-05
3.24098e-05
-6.07196e-05
4.09999e-05
-6.30334e-05
4.9083e-05
-6.6314e-05
5.71584e-05
-7.00499e-05
6.44715e-05
-7.4304e-05
7.18268e-05
-7.74937e-05
7.94083e-05
-8.5897e-05
8.60414e-05
-8.75466e-05
9.51979e-05
-9.56721e-05
0.000105586
-0.000106794
0.000114094
-0.000110939
0.000118887
-0.000105103
0.0001161
-8.48137e-05
0.000102167
-3.85635e-05
9.31166e-05
1.07934e-05
0.000100111
4.65211e-05
0.000114204
5.49617e-05
0.000138168
6.45201e-05
5.25477e-05
7.26956e-06
-6.40734e-05
1.45468e-05
-6.48119e-05
2.19558e-05
-6.60161e-05
2.89878e-05
-6.77517e-05
3.60203e-05
-7.00659e-05
4.26183e-05
-7.2912e-05
4.90486e-05
-7.64801e-05
5.57189e-05
-8.09743e-05
6.33884e-05
-8.51632e-05
7.09725e-05
-9.34812e-05
8.00185e-05
-9.65925e-05
9.21577e-05
-0.000107811
0.000102745
-0.00011738
0.000108731
-0.000116926
0.000108288
-0.00010466
9.63845e-05
-7.29099e-05
7.99887e-05
-2.21677e-05
7.68946e-05
1.38874e-05
8.91235e-05
3.42922e-05
0.000106791
3.7294e-05
0.000134204
3.71074e-05
2.61102e-05
6.72368e-06
-7.07971e-05
1.33719e-05
-7.14601e-05
1.99523e-05
-7.25965e-05
2.63952e-05
-7.41946e-05
3.28876e-05
-7.65583e-05
3.94697e-05
-7.94941e-05
4.63027e-05
-8.33131e-05
5.32581e-05
-8.79298e-05
6.10181e-05
-9.29231e-05
6.81554e-05
-0.000100618
7.58485e-05
-0.000104286
8.58832e-05
-0.000117846
9.29992e-05
-0.000124496
9.61264e-05
-0.000120053
8.95174e-05
-9.80511e-05
7.10446e-05
-5.44372e-05
5.98901e-05
-1.10131e-05
6.48802e-05
8.89727e-06
8.07772e-05
1.83953e-05
0.000101456
1.66156e-05
0.000127471
1.10918e-05
3.35343e-06
5.85478e-06
-7.66518e-05
1.17876e-05
-7.73928e-05
1.76833e-05
-7.84923e-05
2.3655e-05
-8.01663e-05
2.958e-05
-8.24833e-05
3.55305e-05
-8.54445e-05
4.12763e-05
-8.90589e-05
4.674e-05
-9.33936e-05
5.25876e-05
-9.87707e-05
5.80436e-05
-0.000106074
6.52504e-05
-0.000111492
7.51884e-05
-0.000127784
8.00904e-05
-0.000129398
7.68029e-05
-0.000116765
6.0774e-05
-8.20221e-05
4.45561e-05
-3.82194e-05
4.44551e-05
-1.09121e-05
5.66711e-05
-3.31873e-06
7.52906e-05
-2.24245e-07
9.69506e-05
-5.04451e-06
0.000119221
-1.1179e-05
-1.76548e-05
5.44353e-06
-8.20954e-05
1.08659e-05
-8.28152e-05
1.62582e-05
-8.38845e-05
2.15636e-05
-8.54717e-05
2.67126e-05
-8.76323e-05
3.16916e-05
-9.04236e-05
3.65221e-05
-9.38893e-05
4.13042e-05
-9.81756e-05
4.61566e-05
-0.000103623
5.07707e-05
-0.000110689
5.81723e-05
-0.000118894
6.59629e-05
-0.000135575
6.59891e-05
-0.000129425
5.35429e-05
-0.000104319
3.33736e-05
-6.18528e-05
2.71472e-05
-3.1993e-05
3.65906e-05
-2.03554e-05
5.2705e-05
-1.94332e-05
7.22528e-05
-1.9772e-05
9.22751e-05
-2.50669e-05
0.00011149
-3.03934e-05
0.000131192
-3.73577e-05
-4.51104e-05
4.80169e-06
-8.68971e-05
9.58999e-06
-8.76035e-05
1.43617e-05
-8.86562e-05
1.90989e-05
-9.02089e-05
2.3777e-05
-9.23105e-05
2.82579e-05
-9.49045e-05
3.2359e-05
-9.79904e-05
3.58924e-05
-0.000101709
3.8905e-05
-0.000106636
4.11805e-05
-0.000112964
4.56987e-05
-0.000123412
4.81678e-05
-0.000138044
3.82426e-05
-0.0001195
1.91471e-05
-8.52237e-05
9.508e-06
-5.22136e-05
1.7068e-05
-3.9553e-05
3.28218e-05
-3.61092e-05
5.07349e-05
-3.73463e-05
6.94097e-05
-3.84468e-05
8.70194e-05
-4.26766e-05
0.000104381
-4.77546e-05
0.000121599
-5.45758e-05
-6.07392e-05
4.30115e-06
-9.11982e-05
8.58875e-06
-9.18911e-05
1.28628e-05
-9.29302e-05
1.7167e-05
-9.45131e-05
2.13723e-05
-9.65158e-05
2.53982e-05
-9.89303e-05
2.89042e-05
-0.000101496
3.13748e-05
-0.00010418
3.19553e-05
-0.000107216
3.04546e-05
-0.000111463
2.64708e-05
-0.000119429
1.58823e-05
-0.000127455
2.0442e-06
-0.000105661
-7.54453e-06
-7.56349e-05
-1.68939e-07
-5.95892e-05
1.5035e-05
-5.4757e-05
3.27621e-05
-5.38363e-05
4.94168e-05
-5.4001e-05
6.69956e-05
-5.60256e-05
8.21573e-05
-5.78383e-05
9.79875e-05
-6.35849e-05
0.000116789
-7.33778e-05
-7.58093e-05
4.05173e-06
-9.52499e-05
8.03178e-06
-9.58712e-05
1.18873e-05
-9.67857e-05
1.56939e-05
-9.83197e-05
1.9582e-05
-0.000100404
2.35006e-05
-0.000102849
2.69898e-05
-0.000104986
2.85037e-05
-0.000105694
2.60153e-05
-0.000104728
1.65797e-05
-0.000102028
-4.81153e-06
-9.80373e-05
-2.31548e-05
-0.000109112
-2.38954e-05
-0.000104921
-1.62345e-05
-8.32959e-05
-2.46071e-08
-7.57991e-05
1.72732e-05
-7.20548e-05
3.31782e-05
-6.97413e-05
4.84308e-05
-6.92536e-05
6.53379e-05
-7.29327e-05
8.00776e-05
-7.25781e-05
8.69167e-05
-7.0424e-05
9.21774e-05
-7.86384e-05
-9.35545e-05
3.52332e-06
-9.87733e-05
6.80435e-06
-9.91522e-05
9.7154e-06
-9.96968e-05
1.21988e-05
-0.000100803
1.51793e-05
-0.000103384
2.12805e-05
-0.00010895
2.63613e-05
-0.000110066
2.63125e-05
-0.000105645
2.27462e-05
-0.000101162
-1.03261e-05
-6.89554e-05
-6.76244e-05
-4.0739e-05
-5.14307e-05
-0.000125305
-3.07904e-05
-0.000125561
-1.32603e-05
-0.000100826
5.3142e-06
-9.43736e-05
2.01816e-05
-8.69221e-05
3.31712e-05
-8.27309e-05
4.38626e-05
-7.9945e-05
5.62377e-05
-8.53078e-05
6.08195e-05
-7.71598e-05
5.35925e-05
-6.3197e-05
5.99303e-06
-3.1039e-05
-5.994e-06
2.8776e-06
-0.000101651
5.67057e-06
-0.000101945
8.79182e-06
-0.000102818
1.21947e-05
-0.000104206
1.35605e-05
-0.00010475
3.4094e-06
-9.8799e-05
-1.63148e-05
-9.03421e-05
-3.73186e-05
-8.46409e-05
-5.9693e-05
-7.87873e-05
-8.3854e-05
-4.47944e-05
-6.61144e-05
-5.84786e-05
-5.54151e-05
-0.000136005
-2.65823e-05
-0.000154394
-1.96619e-06
-0.000125442
8.64606e-06
-0.000104986
1.80375e-05
-9.63136e-05
2.52074e-05
-8.99008e-05
2.5356e-05
-8.00936e-05
4.85204e-06
-6.48039e-05
-4.34321e-05
-2.88757e-05
-9.68228e-05
-9.80635e-06
-8.62817e-05
-4.15801e-05
-2.11786e-05
-1.48369e-05
-8.68139e-05
-2.93751e-05
-8.7407e-05
-4.54254e-05
-8.67676e-05
-6.27246e-05
-8.69068e-05
-7.99525e-05
-8.75222e-05
-9.30972e-05
-8.56544e-05
-9.02609e-05
-9.31784e-05
-7.25546e-05
-0.000102347
-4.85285e-05
-0.000102813
6.73344e-07
-9.39962e-05
5.82591e-05
-0.000116064
6.73064e-05
-0.000145052
4.77994e-05
-0.000134887
1.48569e-05
-9.24997e-05
-1.98161e-05
-7.03128e-05
-5.08843e-05
-6.52454e-05
-8.05452e-05
-6.024e-05
-0.000106409
-5.423e-05
-0.000114697
-5.65154e-05
-7.42746e-05
-6.92984e-05
-3.39365e-05
-5.01445e-05
-5.88478e-05
-1.66689e-05
1.80764e-05
-7.19822e-06
-7.96156e-05
-1.3064e-05
-8.15412e-05
-1.62489e-05
-8.35826e-05
-1.71807e-05
-8.5975e-05
-1.63148e-05
-8.83881e-05
-1.13599e-05
-9.06092e-05
-9.73228e-06
-9.4806e-05
-1.19247e-05
-0.000100155
-1.42931e-05
-0.000100445
-1.0779e-05
-9.75103e-05
-1.70439e-05
-0.000109799
-3.7334e-05
-0.000124762
-6.29194e-05
-0.000109301
-7.05621e-05
-8.4857e-05
-6.73777e-05
-7.34973e-05
-5.83081e-05
-7.43151e-05
-3.94935e-05
-7.90546e-05
-1.29694e-05
-8.07542e-05
-1.21478e-06
-6.827e-05
-2.40037e-05
-4.65095e-05
-6.84479e-05
-5.7002e-06
-0.00010057
1.54528e-05
2.26167e-05
-2.01052e-06
-7.76051e-05
-3.59487e-06
-7.99568e-05
-5.90696e-06
-8.12705e-05
-8.86851e-06
-8.30134e-05
-1.21677e-05
-8.50889e-05
-1.50759e-05
-8.7701e-05
-1.87686e-05
-9.11133e-05
-2.43655e-05
-9.45578e-05
-2.88733e-05
-9.59371e-05
-3.00734e-05
-9.63102e-05
-3.70628e-05
-0.00010281
-5.46772e-05
-0.000107147
-6.69984e-05
-9.69803e-05
-6.64105e-05
-8.54449e-05
-5.83426e-05
-8.15652e-05
-4.69198e-05
-8.57378e-05
-3.87778e-05
-4.20084e-05
-6.3524e-05
-9.67934e-05
-0.000108923
-0.000107365
-2.09997e-06
-4.08535e-06
-6.25715e-06
-8.66719e-06
-1.1289e-05
-1.43424e-05
-1.85415e-05
-2.4116e-05
-2.99693e-05
-3.57395e-05
-4.43339e-05
-5.67741e-05
-6.47672e-05
-6.82227e-05
-6.98531e-05
)
;

boundaryField
{
    leftWall
    {
        type            calculated;
        value           uniform 0;
    }
    rightWall
    {
        type            calculated;
        value           nonuniform 0();
    }
    lowerWall
    {
        type            calculated;
        value           nonuniform List<scalar> 
22
(
1.0582e-22
1.05853e-22
-1.05911e-22
-1.05948e-22
-1.42305e-25
-3.39814e-25
2.11161e-22
-1.09304e-22
7.7144e-23
7.93073e-23
-2.07664e-22
-1.31781e-23
1.85485e-22
-1.68524e-22
-4.68436e-23
-4.30782e-23
2.12535e-23
2.26796e-23
5.77928e-23
-5.52078e-23
-1.94801e-22
-1.37312e-22
)
;
    }
    atmosphere
    {
        type            calculated;
        value           nonuniform 0();
    }
    defaultFaces
    {
        type            empty;
        value           nonuniform 0();
    }
    procBoundary0to1
    {
        type            processor;
        value           nonuniform List<scalar> 
26
(
3.31099e-05
3.66265e-05
3.97854e-05
4.1795e-05
3.91796e-05
2.86308e-05
2.19221e-05
2.10754e-05
0.000122739
0.000169074
0.000177771
0.000172315
0.000166821
0.000160641
0.000150228
0.00014023
2.67799e-05
0.000149523
0.000137228
0.00013186
0.000109923
-8.15674e-05
-7.10971e-05
-9.81027e-05
-0.00010511
-0.00010505
)
;
    }
    procBoundary0to2
    {
        type            processor;
        value           nonuniform List<scalar> 
24
(
-8.71967e-05
-7.75235e-05
-4.67545e-05
-1.32401e-05
6.42944e-06
1.38952e-05
2.0301e-05
-7.55051e-05
-7.79714e-05
-7.90987e-05
-8.06033e-05
-8.2467e-05
-8.46476e-05
-8.69142e-05
-8.89832e-05
-9.00838e-05
-9.054e-05
-9.42157e-05
-9.47071e-05
-8.89872e-05
-8.19894e-05
-7.99348e-05
-7.45173e-05
-8.10736e-05
)
;
    }
}


// ************************************************************************* //
