/*--------------------------------*- C++ -*----------------------------------*\
| =========                 |                                                 |
| \\      /  F ield         | OpenFOAM: The Open Source CFD Toolbox           |
|  \\    /   O peration     | Version:  2.4.0                                 |
|   \\  /    A nd           | Web:      www.OpenFOAM.org                      |
|    \\/     M anipulation  |                                                 |
\*---------------------------------------------------------------------------*/
FoamFile
{
    version     2.0;
    format      ascii;
    class       surfaceScalarField;
    location    "0.2";
    object      phi.air;
}
// * * * * * * * * * * * * * * * * * * * * * * * * * * * * * * * * * * * * * //

dimensions      [0 3 -1 0 0 0 0];

internalField   nonuniform List<scalar> 
1101
(
3.12219e-06
-3.12212e-06
6.2781e-06
-3.15584e-06
9.4959e-06
-3.21775e-06
1.28189e-05
-3.32291e-06
1.62276e-05
-3.40867e-06
1.98932e-05
-3.66561e-06
2.34137e-05
-3.52049e-06
2.82016e-05
-4.78782e-06
3.1504e-05
-3.30238e-06
3.6499e-05
-4.99501e-06
4.28416e-05
-6.34257e-06
4.84571e-05
-5.61547e-06
5.31746e-05
-4.71755e-06
5.80605e-05
-4.88584e-06
6.37035e-05
-5.64298e-06
7.04536e-05
-6.74999e-06
7.68379e-05
-6.38434e-06
8.22878e-05
-5.44987e-06
8.29369e-05
-6.48893e-07
7.82365e-05
4.70064e-06
6.19973e-05
1.62293e-05
2.89309e-05
3.11665e-06
-6.23868e-06
6.26732e-06
-6.30642e-06
9.48031e-06
-6.43065e-06
1.28002e-05
-6.64268e-06
1.61984e-05
-6.80688e-06
1.98536e-05
-7.32076e-06
2.34781e-05
-7.14487e-06
2.79992e-05
-9.30892e-06
3.14692e-05
-6.7723e-06
3.65956e-05
-1.01214e-05
4.29326e-05
-1.26796e-05
4.82082e-05
-1.0891e-05
5.25527e-05
-9.06209e-06
5.76733e-05
-1.00064e-05
6.44252e-05
-1.23947e-05
7.19501e-05
-1.42749e-05
7.92564e-05
-1.36904e-05
8.47677e-05
-1.09577e-05
8.60292e-05
-1.90577e-06
8.12313e-05
9.50081e-06
6.39956e-05
3.34523e-05
5.63379e-05
3.10204e-06
-9.34068e-06
6.23814e-06
-9.44247e-06
9.43854e-06
-9.63101e-06
1.27441e-05
-9.94822e-06
1.61284e-05
-1.01912e-05
1.97585e-05
-1.09508e-05
2.34436e-05
-1.083e-05
2.76538e-05
-1.35191e-05
3.14529e-05
-1.05714e-05
3.65869e-05
-1.52554e-05
4.2643e-05
-1.87357e-05
4.76967e-05
-1.59446e-05
5.22061e-05
-1.35715e-05
5.80032e-05
-1.58034e-05
6.53894e-05
-1.97788e-05
7.35576e-05
-2.23694e-05
8.08629e-05
-2.08171e-05
8.57456e-05
-1.56352e-05
8.81148e-05
-4.2166e-06
8.48877e-05
1.2857e-05
6.95645e-05
4.88908e-05
8.61841e-05
3.0802e-06
-1.24208e-05
6.19454e-06
-1.25567e-05
9.37711e-06
-1.28135e-05
1.26578e-05
-1.32289e-05
1.6029e-05
-1.35623e-05
1.962e-05
-1.45418e-05
2.33099e-05
-1.45199e-05
2.7297e-05
-1.75061e-05
3.13853e-05
-1.46597e-05
3.64038e-05
-2.02739e-05
4.18813e-05
-2.42133e-05
4.69019e-05
-2.09652e-05
5.25239e-05
-1.91934e-05
5.94135e-05
-2.26677e-05
6.67689e-05
-2.69303e-05
7.4244e-05
-2.96299e-05
8.08591e-05
-2.94446e-05
8.57865e-05
-2.72168e-05
8.9424e-05
-1.98945e-05
8.36233e-05
1.94953e-06
7.05292e-05
5.36498e-05
0.000114853
3.0505e-06
-1.54713e-05
6.13555e-06
-1.56418e-05
9.29367e-06
-1.59717e-05
1.25439e-05
-1.64791e-05
1.58888e-05
-1.69072e-05
1.94447e-05
-1.80977e-05
2.30914e-05
-1.81666e-05
2.68744e-05
-2.1289e-05
3.12752e-05
-1.90605e-05
3.60358e-05
-2.50345e-05
4.07436e-05
-2.89211e-05
4.62516e-05
-2.64684e-05
5.36151e-05
-2.6469e-05
6.15286e-05
-3.01178e-05
6.75144e-05
-3.38061e-05
7.11328e-05
-4.07748e-05
7.48578e-05
-5.1256e-05
7.68945e-05
-5.24653e-05
7.67731e-05
-5.02311e-05
7.5973e-05
-2.55388e-05
5.81832e-05
4.6184e-05
0.000127324
3.01165e-06
-1.8483e-05
6.05877e-06
-1.86889e-05
9.18428e-06
-1.90972e-05
1.23966e-05
-1.96915e-05
1.57015e-05
-2.02121e-05
1.92266e-05
-2.16229e-05
2.27933e-05
-2.17334e-05
2.65494e-05
-2.50451e-05
3.09026e-05
-2.34138e-05
3.54318e-05
-2.95632e-05
3.965e-05
-3.30612e-05
4.6289e-05
-3.28219e-05
5.52374e-05
-3.51017e-05
6.12455e-05
-3.88342e-05
6.251e-05
-4.68127e-05
6.41273e-05
-6.64399e-05
6.89831e-05
-7.82161e-05
7.31979e-05
-4.30371e-05
7.05749e-05
-4.55856e-06
7.04771e-05
1.85269e-05
5.16268e-05
5.21846e-05
0.000132451
2.96191e-06
-2.14449e-05
5.96161e-06
-2.16887e-05
9.04495e-06
-2.21806e-05
1.22113e-05
-2.28579e-05
1.54714e-05
-2.34722e-05
1.89715e-05
-2.5123e-05
2.24826e-05
-2.52445e-05
2.61786e-05
-2.87412e-05
3.05344e-05
-2.77663e-05
3.47814e-05
-3.36128e-05
3.91661e-05
-3.70192e-05
4.63965e-05
-4.10259e-05
5.35811e-05
-4.81574e-05
5.52621e-05
-5.53915e-05
5.79663e-05
-7.19947e-05
6.46948e-05
-7.57676e-05
7.79285e-05
-5.33581e-05
8.61605e-05
-3.27058e-05
8.27367e-05
-1.54059e-06
6.52999e-05
4.19755e-05
5.34743e-05
0.000104029
0.000141767
2.90419e-06
-2.42502e-05
5.85174e-06
-2.45257e-05
8.88929e-06
-2.50818e-05
1.20089e-05
-2.57993e-05
1.52365e-05
-2.6466e-05
1.87243e-05
-2.82742e-05
2.2252e-05
-2.83198e-05
2.58464e-05
-3.16913e-05
3.04538e-05
-3.17637e-05
3.38984e-05
-3.7191e-05
3.84563e-05
-4.4824e-05
4.41957e-05
-5.4466e-05
4.79922e-05
-6.61598e-05
4.90996e-05
-7.18088e-05
5.63289e-05
-7.39556e-05
7.01125e-05
-6.85149e-05
8.04285e-05
-5.56575e-05
8.24259e-05
-3.55806e-05
7.66397e-05
3.93242e-06
6.50258e-05
5.45774e-05
3.85647e-05
0.000133514
0.000161041
6.06165e-06
-3.05562e-05
1.22389e-05
-3.10644e-05
1.86049e-05
-3.20685e-05
2.51245e-05
-3.33773e-05
3.19788e-05
-3.50025e-05
3.93562e-05
-3.86623e-05
4.75743e-05
-4.14584e-05
5.51385e-05
-4.73314e-05
6.35426e-05
-5.19803e-05
6.85545e-05
-5.89296e-05
7.66429e-05
-7.3664e-05
8.01418e-05
-8.22586e-05
8.28443e-05
-8.36273e-05
0.000100718
-7.25058e-05
0.000124667
-7.65826e-05
0.000146344
-7.62811e-05
0.00015676
-6.48756e-05
0.000152157
-3.22702e-05
0.00013483
2.14884e-05
0.000122454
6.83697e-05
0.000107596
0.000130201
0.000197484
6.12186e-06
-4.74029e-05
1.22672e-05
-4.83829e-05
1.82863e-05
-5.01165e-05
2.40472e-05
-5.2354e-05
2.96721e-05
-5.518e-05
3.52635e-05
-6.06443e-05
4.12441e-05
-6.49804e-05
4.6168e-05
-7.13745e-05
5.16999e-05
-7.70996e-05
6.12883e-05
-8.45697e-05
6.95919e-05
-7.5649e-05
8.19102e-05
-6.82101e-05
0.000104121
-7.40172e-05
0.000127
-8.1348e-05
0.000141657
-8.58001e-05
0.000148472
-8.24317e-05
0.000148404
-6.51438e-05
0.000139338
-2.37272e-05
0.000124816
3.75125e-05
0.000118822
7.27975e-05
0.000124957
0.00011856
0.000176898
4.54581e-06
-6.87929e-05
9.31381e-06
-6.99365e-05
1.38765e-05
-7.12475e-05
1.92564e-05
-7.35989e-05
2.4858e-05
-7.41905e-05
3.11534e-05
-7.28741e-05
3.91384e-05
-6.61436e-05
4.9623e-05
-6.35407e-05
6.19638e-05
-6.27858e-05
7.79441e-05
-7.00857e-05
9.29417e-05
-7.32035e-05
0.00010697
-7.72095e-05
0.000119805
-8.59274e-05
0.000132448
-9.36844e-05
0.000140569
-9.37407e-05
0.000143448
-8.5223e-05
0.000139529
-6.18131e-05
0.000128207
-1.3177e-05
0.000121538
4.57922e-05
0.000119297
7.36075e-05
0.000129389
0.000107083
0.000132198
6.79431e-06
-4.90315e-05
1.37865e-05
-4.98252e-05
2.11538e-05
-5.05556e-05
2.93864e-05
-5.30341e-05
3.80244e-05
-5.45327e-05
4.75618e-05
-5.8205e-05
5.83566e-05
-6.19168e-05
6.91196e-05
-6.69613e-05
7.96582e-05
-7.01281e-05
8.88168e-05
-7.83104e-05
9.65791e-05
-8.09109e-05
0.000105877
-8.65143e-05
0.000116317
-9.6399e-05
0.000125142
-0.000102323
0.000131545
-9.98978e-05
0.000133294
-8.71517e-05
0.00012376
-5.35818e-05
0.000112408
-3.23102e-06
0.00011341
4.66411e-05
0.000119425
6.70091e-05
0.000136452
8.84304e-05
8.74498e-05
8.23211e-06
-5.68028e-05
1.62872e-05
-5.75335e-05
2.455e-05
-5.8606e-05
3.241e-05
-6.07184e-05
4.10002e-05
-6.30319e-05
4.90833e-05
-6.63122e-05
5.71587e-05
-7.00475e-05
6.44719e-05
-7.43007e-05
7.18275e-05
-7.74892e-05
7.94093e-05
-8.58903e-05
8.60424e-05
-8.75404e-05
9.51903e-05
-9.56675e-05
0.000105565
-0.000106768
0.000114261
-0.000110722
0.000119065
-0.000104576
0.000115992
-8.49435e-05
0.000102113
-4.17711e-05
9.36179e-05
4.65879e-06
0.000100563
4.2183e-05
0.000113666
5.43743e-05
0.000137796
6.45153e-05
5.2572e-05
7.26962e-06
-6.40699e-05
1.45469e-05
-6.4808e-05
2.19559e-05
-6.60119e-05
2.89881e-05
-6.77471e-05
3.60207e-05
-7.00604e-05
4.26187e-05
-7.29055e-05
4.90491e-05
-7.64725e-05
5.57197e-05
-8.09645e-05
6.33898e-05
-8.51517e-05
7.09744e-05
-9.34662e-05
8.00205e-05
-9.6579e-05
9.21379e-05
-0.000107803
0.000102815
-0.000117327
0.00010892
-0.000116556
0.000108333
-0.00010424
9.62201e-05
-7.45422e-05
8.03967e-05
-2.75157e-05
7.74576e-05
8.9848e-06
8.87665e-05
3.29993e-05
0.000106724
3.72703e-05
0.000134201
3.71076e-05
2.61125e-05
6.72377e-06
-7.07867e-05
1.33721e-05
-7.14492e-05
1.99526e-05
-7.2585e-05
2.63957e-05
-7.41822e-05
3.28883e-05
-7.65443e-05
3.94707e-05
-7.94788e-05
4.6304e-05
-8.32962e-05
5.32599e-05
-8.79084e-05
6.10209e-05
-9.28956e-05
6.81589e-05
-0.000100579
7.58519e-05
-0.000104264
8.58423e-05
-0.000117838
9.31398e-05
-0.000124361
9.62805e-05
-0.000119511
8.94324e-05
-9.85884e-05
7.12884e-05
-5.84493e-05
6.05997e-05
-1.6462e-05
6.48084e-05
6.9236e-06
8.06503e-05
1.83391e-05
0.000101454
1.66192e-05
0.00012747
1.11022e-05
3.3749e-06
5.85501e-06
-7.66274e-05
1.17881e-05
-7.73666e-05
1.76841e-05
-7.84646e-05
2.36561e-05
-8.01368e-05
2.95816e-05
-8.24507e-05
3.55324e-05
-8.54078e-05
4.1279e-05
-8.90126e-05
4.67442e-05
-9.33344e-05
5.25955e-05
-9.86954e-05
5.80516e-05
-0.000105987
6.52537e-05
-0.000111461
7.51072e-05
-0.000127761
8.02843e-05
-0.000129032
7.67973e-05
-0.000116556
6.07706e-05
-8.48084e-05
4.49927e-05
-4.32962e-05
4.46805e-05
-1.3635e-05
5.65223e-05
-3.42185e-06
7.52888e-05
-2.16405e-07
9.69507e-05
-5.01969e-06
0.000119227
-1.11254e-05
-1.7578e-05
5.44413e-06
-8.20168e-05
1.08672e-05
-8.27296e-05
1.62603e-05
-8.37988e-05
2.15668e-05
-8.53883e-05
2.6717e-05
-8.75523e-05
3.16978e-05
-9.03511e-05
3.65306e-05
-9.38243e-05
4.13159e-05
-9.80926e-05
4.61731e-05
-0.000103441
5.07833e-05
-0.000109936
5.81786e-05
-0.00011578
6.5997e-05
-0.000132827
6.601e-05
-0.000130338
5.36959e-05
-0.00010642
3.41631e-05
-6.66749e-05
2.76807e-05
-3.59058e-05
3.64711e-05
-2.0599e-05
5.27004e-05
-1.93542e-05
7.22529e-05
-1.97097e-05
9.22834e-05
-2.49765e-05
0.000111515
-3.03125e-05
0.000131227
-3.66417e-05
-3.08453e-05
4.80393e-06
-8.65825e-05
9.59482e-06
-8.72274e-05
1.43691e-05
-8.81274e-05
1.91083e-05
-8.93231e-05
2.37869e-05
-9.05519e-05
2.82661e-05
-9.09041e-05
3.2367e-05
-8.84118e-05
3.59065e-05
-7.93423e-05
3.89687e-05
-6.17671e-05
4.15329e-05
-5.98277e-05
4.69242e-05
-6.83802e-05
4.92685e-05
-8.06509e-05
3.8773e-05
-9.66426e-05
1.98072e-05
-8.70855e-05
1.00054e-05
-5.40196e-05
1.70311e-05
-3.61331e-05
3.2804e-05
-3.58224e-05
5.07289e-05
-3.71625e-05
6.94195e-05
-3.80215e-05
8.70372e-05
-3.95489e-05
0.000104525
-2.54235e-05
0.000125508
7.43225e-06
6.73035e-06
4.30696e-06
-4.27777e-05
8.60675e-06
-4.25223e-05
1.29141e-05
-4.18889e-05
1.73248e-05
-4.11677e-05
2.18705e-05
-4.01403e-05
2.67801e-05
-3.88243e-05
3.17887e-05
-3.74508e-05
3.54184e-05
-3.70174e-05
3.73869e-05
-3.9769e-05
3.68671e-05
-4.65703e-05
3.98375e-05
-5.3358e-05
3.07276e-05
-2.85468e-05
4.56569e-06
-2.82971e-05
-7.58367e-06
-2.75451e-05
-1.02865e-06
-3.19026e-05
1.4543e-05
-3.09709e-05
3.2743e-05
-2.66074e-05
4.94369e-05
-8.01597e-06
6.73784e-05
6.98319e-07
8.6446e-05
6.01371e-06
0.000120141
4.98614e-06
0.000147448
1.14893e-05
1.78084e-05
4.7956e-06
-2.99492e-05
9.895e-06
-3.10719e-05
1.56458e-05
-3.30447e-05
2.26806e-05
-3.6542e-05
3.11941e-05
-4.15038e-05
3.84248e-05
-4.63935e-05
3.89843e-05
-4.63843e-05
3.33856e-05
-4.59205e-05
2.5771e-05
-4.68846e-05
1.55994e-05
-4.76394e-05
-1.72125e-06
-4.25964e-05
-3.03171e-05
-3.64766e-05
-4.29439e-05
-4.69049e-05
-3.32978e-05
-2.23944e-05
-8.05555e-06
-1.14322e-05
1.35287e-05
-5.43303e-06
3.32241e-05
-1.57023e-06
5.9432e-05
-2.67319e-07
8.74122e-05
-1.88652e-06
9.96229e-05
1.13922e-05
0.000106945
9.75103e-06
0.000110414
-2.26471e-05
-6.32263e-05
3.34921e-06
-5.07732e-05
6.51341e-06
-5.15227e-05
9.30904e-06
-5.29978e-05
1.22783e-05
-5.55967e-05
1.79966e-05
-6.04118e-05
3.0511e-05
-6.82529e-05
3.60183e-05
-7.39343e-05
3.21321e-05
-7.4268e-05
2.62692e-05
-7.65631e-05
-1.00518e-05
-4.93071e-05
-7.55681e-05
-2.64144e-05
-6.60371e-05
-0.000108115
-3.66018e-05
-9.33028e-05
-1.85882e-05
-5.29106e-05
1.50756e-06
-3.90159e-05
1.88372e-05
-2.72435e-05
3.3514e-05
-2.11542e-05
4.83107e-05
-1.84344e-05
7.34188e-05
-3.03415e-05
7.00571e-05
-3.24726e-05
5.5702e-05
-3.46373e-05
5.30113e-06
-2.88415e-05
-5.95989e-06
3.17309e-06
-8.48975e-05
6.26824e-06
-8.61661e-05
9.62957e-06
-8.84776e-05
1.31684e-05
-9.23303e-05
1.43112e-05
-9.63371e-05
3.4312e-06
-9.5091e-05
-1.65687e-05
-8.9518e-05
-3.7456e-05
-8.44129e-05
-5.9734e-05
-7.87464e-05
-8.38931e-05
-4.47688e-05
-6.60468e-05
-5.83317e-05
-5.54719e-05
-0.000134713
-2.82929e-05
-0.000144936
-3.12733e-06
-0.0001064
8.0286e-06
-8.13499e-05
1.86435e-05
-7.12057e-05
2.63785e-05
-6.58064e-05
2.62065e-05
-6.07357e-05
4.15718e-06
-5.79876e-05
-4.38182e-05
-2.82186e-05
-9.68314e-05
-9.79104e-06
-8.62816e-05
-4.15801e-05
-2.11786e-05
-1.48415e-05
-8.68002e-05
-2.9381e-05
-8.73977e-05
-4.54301e-05
-8.67629e-05
-6.27269e-05
-8.69047e-05
-7.99532e-05
-8.75217e-05
-9.30973e-05
-8.56544e-05
-9.0261e-05
-9.31785e-05
-7.25547e-05
-0.000102347
-4.85285e-05
-0.000102813
6.73593e-07
-9.39963e-05
5.826e-05
-0.000116064
6.73119e-05
-0.000145052
4.78203e-05
-0.000134885
1.48624e-05
-9.24744e-05
-1.98607e-05
-7.02458e-05
-5.0963e-05
-6.51744e-05
-8.05906e-05
-6.02e-05
-0.000106416
-5.42218e-05
-0.000114698
-5.6515e-05
-7.42746e-05
-6.92983e-05
-3.39365e-05
-5.01445e-05
-5.88478e-05
-1.66688e-05
1.80764e-05
-7.19823e-06
-7.96158e-05
-1.3064e-05
-8.15413e-05
-1.6249e-05
-8.35828e-05
-1.71808e-05
-8.59751e-05
-1.63148e-05
-8.83883e-05
-1.13599e-05
-9.06094e-05
-9.73229e-06
-9.48061e-05
-1.19247e-05
-0.000100155
-1.42932e-05
-0.000100445
-1.0779e-05
-9.75104e-05
-1.70439e-05
-0.0001098
-3.73341e-05
-0.000124762
-6.29195e-05
-0.000109302
-7.05622e-05
-8.4857e-05
-6.73777e-05
-7.34973e-05
-5.83081e-05
-7.43151e-05
-3.94935e-05
-7.90546e-05
-1.29694e-05
-8.07542e-05
-1.21477e-06
-6.827e-05
-2.40037e-05
-4.65095e-05
-6.84479e-05
-5.7002e-06
-0.00010057
1.54528e-05
2.26167e-05
-2.01053e-06
-7.76053e-05
-3.59487e-06
-7.9957e-05
-5.90697e-06
-8.12707e-05
-8.86853e-06
-8.30135e-05
-1.21677e-05
-8.50891e-05
-1.50759e-05
-8.77011e-05
-1.87686e-05
-9.11135e-05
-2.43655e-05
-9.4558e-05
-2.88733e-05
-9.59372e-05
-3.00734e-05
-9.63103e-05
-3.70628e-05
-0.00010281
-5.46772e-05
-0.000107147
-6.69984e-05
-9.69803e-05
-6.64105e-05
-8.54449e-05
-5.83427e-05
-8.15653e-05
-4.69199e-05
-8.57378e-05
-3.87778e-05
-4.20084e-05
-6.3524e-05
-9.67934e-05
-0.000108923
-0.000107365
-2.09997e-06
-4.08536e-06
-6.25717e-06
-8.6672e-06
-1.12891e-05
-1.43424e-05
-1.85415e-05
-2.41161e-05
-2.99693e-05
-3.57395e-05
-4.43339e-05
-5.67742e-05
-6.47672e-05
-6.82227e-05
-6.98531e-05
)
;

boundaryField
{
    leftWall
    {
        type            fixedValue;
        value           uniform 0;
    }
    rightWall
    {
        type            fixedValue;
        value           nonuniform 0();
    }
    lowerWall
    {
        type            fixedValue;
        value           uniform 0;
    }
    atmosphere
    {
        type            calculated;
        value           nonuniform 0();
    }
    defaultFaces
    {
        type            empty;
        value           nonuniform 0();
    }
    procBoundary0to1
    {
        type            processor;
        value           nonuniform List<scalar> 
26
(
3.30856e-05
3.65935e-05
3.97467e-05
4.17492e-05
3.9177e-05
2.95539e-05
2.45578e-05
2.43299e-05
0.000105911
0.000153221
0.000165788
0.000168525
0.00016559
0.000160632
0.000150229
0.000140248
2.67004e-05
0.000149591
0.000167444
0.000163928
0.000115855
-8.15819e-05
-7.1097e-05
-9.81027e-05
-0.00010511
-0.00010505
)
;
    }
    procBoundary0to2
    {
        type            processor;
        value           nonuniform List<scalar> 
24
(
-8.71968e-05
-7.75236e-05
-4.67545e-05
-1.32401e-05
6.42944e-06
1.38952e-05
2.0301e-05
-7.55053e-05
-7.79716e-05
-7.90989e-05
-8.06035e-05
-8.24672e-05
-8.46477e-05
-8.69143e-05
-8.89833e-05
-9.00839e-05
-9.05401e-05
-9.42157e-05
-9.47072e-05
-8.89873e-05
-8.19895e-05
-7.99348e-05
-7.45174e-05
-8.10737e-05
)
;
    }
}


// ************************************************************************* //
