/*--------------------------------*- C++ -*----------------------------------*\
| =========                 |                                                 |
| \\      /  F ield         | OpenFOAM: The Open Source CFD Toolbox           |
|  \\    /   O peration     | Version:  2.4.0                                 |
|   \\  /    A nd           | Web:      www.OpenFOAM.org                      |
|    \\/     M anipulation  |                                                 |
\*---------------------------------------------------------------------------*/
FoamFile
{
    version     2.0;
    format      ascii;
    class       surfaceScalarField;
    location    "0.2";
    object      phi.oil;
}
// * * * * * * * * * * * * * * * * * * * * * * * * * * * * * * * * * * * * * //

dimensions      [0 3 -1 0 0 0 0];

internalField   nonuniform List<scalar> 
1101
(
3.12219e-06
-3.12212e-06
6.2781e-06
-3.15584e-06
9.4959e-06
-3.21775e-06
1.28189e-05
-3.32291e-06
1.62276e-05
-3.40867e-06
1.98932e-05
-3.66561e-06
2.34137e-05
-3.52049e-06
2.82016e-05
-4.78782e-06
3.1504e-05
-3.30238e-06
3.6499e-05
-4.99501e-06
4.28416e-05
-6.34255e-06
4.84577e-05
-5.61446e-06
5.31779e-05
-4.70636e-06
5.80716e-05
-4.80321e-06
6.36954e-05
-5.31851e-06
7.04601e-05
-6.02994e-06
7.67487e-05
-5.219e-06
8.20201e-05
-3.74779e-06
8.20066e-05
1.64513e-06
6.90981e-05
7.81834e-06
4.06986e-05
2.87474e-05
5.69735e-05
3.11665e-06
-6.23868e-06
6.26732e-06
-6.30642e-06
9.48031e-06
-6.43065e-06
1.28002e-05
-6.64268e-06
1.61984e-05
-6.80688e-06
1.98536e-05
-7.32076e-06
2.34781e-05
-7.14487e-06
2.79992e-05
-9.30892e-06
3.14692e-05
-6.7723e-06
3.65956e-05
-1.01214e-05
4.2933e-05
-1.26794e-05
4.82106e-05
-1.08856e-05
5.2566e-05
-9.01884e-06
5.76442e-05
-9.71505e-06
6.4385e-05
-1.14591e-05
7.1948e-05
-1.09192e-05
7.92481e-05
-3.0346e-06
8.46493e-05
9.23798e-06
8.53997e-05
1.69873e-05
7.34207e-05
2.5014e-05
4.16918e-05
5.06463e-05
9.44639e-05
3.10204e-06
-9.34068e-06
6.23814e-06
-9.44247e-06
9.43854e-06
-9.63101e-06
1.27441e-05
-9.94822e-06
1.61284e-05
-1.01912e-05
1.97585e-05
-1.09508e-05
2.34436e-05
-1.083e-05
2.76538e-05
-1.35191e-05
3.14529e-05
-1.05714e-05
3.6587e-05
-1.52554e-05
4.26445e-05
-1.87344e-05
4.7704e-05
-1.5925e-05
5.2131e-05
-1.31908e-05
5.78322e-05
-1.33244e-05
6.49475e-05
-5.79732e-06
7.16283e-05
4.91623e-06
7.86309e-05
1.05392e-05
8.43445e-05
2.32168e-05
8.36601e-05
4.35831e-05
7.89153e-05
6.07756e-05
5.13546e-05
8.4213e-05
0.000131467
3.0802e-06
-1.24208e-05
6.19454e-06
-1.25567e-05
9.37711e-06
-1.28135e-05
1.26578e-05
-1.32289e-05
1.6029e-05
-1.35623e-05
1.962e-05
-1.45418e-05
2.33099e-05
-1.45199e-05
2.7297e-05
-1.75061e-05
3.13853e-05
-1.46597e-05
3.64041e-05
-2.02739e-05
4.18858e-05
-2.42069e-05
4.6774e-05
-2.06563e-05
5.16833e-05
-1.66118e-05
5.49457e-05
-7.73506e-06
6.36828e-05
1.64394e-06
7.86798e-05
6.07229e-06
8.43169e-05
1.15586e-05
8.73243e-05
1.97693e-05
8.70192e-05
3.45846e-05
7.25841e-05
7.28029e-05
5.71972e-05
0.000126114
0.000171922
3.0505e-06
-1.54713e-05
6.13555e-06
-1.56418e-05
9.29367e-06
-1.59717e-05
1.25439e-05
-1.64791e-05
1.58888e-05
-1.69072e-05
1.94447e-05
-1.80977e-05
2.30914e-05
-1.81666e-05
2.68744e-05
-2.1289e-05
3.12752e-05
-1.90605e-05
3.60371e-05
-2.50345e-05
4.06898e-05
-2.88693e-05
4.53398e-05
-2.49552e-05
4.88322e-05
-1.79495e-05
5.93511e-05
-2.41925e-06
7.1354e-05
1.8034e-06
7.28692e-05
6.10797e-07
7.53745e-05
2.46341e-06
7.56327e-05
5.42392e-06
7.39866e-05
1.27453e-05
6.72561e-05
3.83777e-05
3.7528e-05
0.000107439
0.000174259
3.01165e-06
-1.8483e-05
6.05877e-06
-1.86889e-05
9.18428e-06
-1.90972e-05
1.23966e-05
-1.96915e-05
1.57015e-05
-2.02121e-05
1.92266e-05
-2.16229e-05
2.27933e-05
-2.17334e-05
2.65494e-05
-2.50451e-05
3.09026e-05
-2.34138e-05
3.54419e-05
-2.95633e-05
3.90354e-05
-3.29269e-05
4.38081e-05
-2.97019e-05
4.97942e-05
-1.76215e-05
6.43057e-05
-3.7783e-06
6.21966e-05
-6.807e-06
6.70739e-05
-9.71627e-06
7.50379e-05
-2.07515e-05
7.70967e-05
-9.65507e-06
7.01004e-05
1.16335e-05
5.94207e-05
3.89016e-05
2.73525e-05
0.000105824
0.000172269
2.96191e-06
-2.14449e-05
5.96161e-06
-2.16887e-05
9.04495e-06
-2.21806e-05
1.22113e-05
-2.28579e-05
1.54714e-05
-2.34722e-05
1.89715e-05
-2.5123e-05
2.24826e-05
-2.52445e-05
2.61786e-05
-2.87412e-05
3.05346e-05
-2.77677e-05
3.47858e-05
-3.36705e-05
3.7629e-05
-3.71539e-05
4.19173e-05
-3.77145e-05
5.15842e-05
-2.84839e-05
5.52906e-05
-2.17852e-05
6.40815e-05
-1.79438e-05
7.35594e-05
-2.86277e-05
8.17232e-05
-3.41701e-05
8.88122e-05
-1.96075e-05
8.27479e-05
1.43583e-05
6.53352e-05
5.40513e-05
4.0629e-05
0.000120656
0.000185188
2.90419e-06
-2.42816e-05
5.85174e-06
-2.45604e-05
8.88929e-06
-2.51238e-05
1.20089e-05
-2.58529e-05
1.52365e-05
-2.65347e-05
1.87243e-05
-2.83705e-05
2.2252e-05
-2.84472e-05
2.5847e-05
-3.18755e-05
3.04593e-05
-3.19587e-05
3.38683e-05
-3.73063e-05
3.71981e-05
-4.47018e-05
3.77336e-05
-5.23884e-05
4.76939e-05
-5.48902e-05
5.43226e-05
-3.08452e-05
6.2326e-05
-3.08631e-05
7.59421e-05
-4.39078e-05
8.32047e-05
-4.19294e-05
8.55673e-05
-2.0963e-05
7.68537e-05
1.82525e-05
6.51035e-05
6.33689e-05
4.63229e-05
0.000139432
0.000199555
6.0605e-06
-3.06399e-05
1.22364e-05
-3.11433e-05
1.86009e-05
-3.21375e-05
2.5119e-05
-3.34318e-05
3.19716e-05
-3.50389e-05
3.93478e-05
-3.85374e-05
4.75674e-05
-4.10983e-05
5.51378e-05
-4.66235e-05
6.35519e-05
-5.10374e-05
6.86467e-05
-5.79672e-05
7.67623e-05
-7.17834e-05
6.5863e-05
-7.72934e-05
7.04398e-05
-7.6743e-05
0.000113106
-4.67427e-05
0.000134645
-5.60243e-05
0.000152877
-6.06823e-05
0.000162491
-5.06664e-05
0.000155054
-1.73663e-05
0.000133103
3.61797e-05
0.000121675
7.39014e-05
0.000132012
0.000130462
0.000199122
6.12272e-06
-4.64955e-05
1.22694e-05
-4.74659e-05
1.82904e-05
-4.91856e-05
2.40538e-05
-5.14164e-05
2.96942e-05
-5.42619e-05
3.53529e-05
-5.94327e-05
4.14431e-05
-6.32351e-05
4.65789e-05
-6.84965e-05
5.23425e-05
-7.30581e-05
6.21894e-05
-7.98194e-05
7.25822e-05
-7.22074e-05
6.78176e-05
-7.1375e-05
9.19013e-05
-6.87319e-05
0.000132887
-6.61056e-05
0.000147692
-7.10107e-05
0.0001529
-6.80899e-05
0.000151846
-5.08997e-05
0.000140349
-8.84951e-06
0.000122052
5.25067e-05
0.000119349
7.73068e-05
0.000131229
0.000118722
0.000160037
4.60719e-06
-6.48955e-05
9.44691e-06
-6.5945e-05
1.40969e-05
-6.70644e-05
1.96052e-05
-6.91554e-05
2.53572e-05
-6.95881e-05
3.17428e-05
-6.84897e-05
3.97429e-05
-6.28628e-05
5.02193e-05
-6.14624e-05
6.24674e-05
-6.16605e-05
7.83649e-05
-6.96758e-05
8.95573e-05
-7.31922e-05
7.95778e-05
-7.56966e-05
0.000101528
-7.96991e-05
0.000138107
-7.90421e-05
0.000145952
-7.92634e-05
0.000147665
-7.08918e-05
0.000141989
-4.73225e-05
0.000128173
1.93275e-06
0.000119496
5.93367e-05
0.000120041
7.73032e-05
0.000131492
0.000107234
0.000114178
6.84544e-06
-4.88546e-05
1.38855e-05
-4.96894e-05
2.12871e-05
-5.04691e-05
2.95335e-05
-5.29578e-05
3.81524e-05
-5.44905e-05
4.76384e-05
-5.82188e-05
5.83749e-05
-6.19507e-05
6.91219e-05
-6.69804e-05
7.96592e-05
-7.01345e-05
8.88482e-05
-7.83143e-05
8.60761e-05
-8.09086e-05
7.79508e-05
-8.34267e-05
0.000102198
-8.33295e-05
0.000131141
-8.83226e-05
0.000136512
-8.57018e-05
0.000137182
-7.29857e-05
0.000125028
-3.90233e-05
0.000111959
1.07512e-05
0.000112188
5.65689e-05
0.000120311
6.93056e-05
0.000138993
8.84876e-05
8.11587e-05
8.23211e-06
-5.68037e-05
1.62872e-05
-5.75345e-05
2.45499e-05
-5.86071e-05
3.241e-05
-6.07196e-05
4.10002e-05
-6.30333e-05
4.90833e-05
-6.6314e-05
5.71586e-05
-7.005e-05
6.44717e-05
-7.43041e-05
7.18271e-05
-7.7494e-05
7.94531e-05
-8.58974e-05
6.66851e-05
-8.75414e-05
7.20195e-05
-9.24776e-05
0.000101903
-9.04517e-05
0.000120234
-9.65236e-05
0.000123475
-9.0351e-05
0.00011903
-7.08574e-05
0.000102312
-2.75679e-05
9.27693e-05
1.55433e-05
0.000100022
4.74729e-05
0.000114246
5.50089e-05
0.00013817
6.45207e-05
5.25476e-05
7.26961e-06
-6.40732e-05
1.45469e-05
-6.48117e-05
2.19559e-05
-6.60159e-05
2.8988e-05
-6.77516e-05
3.60205e-05
-7.00658e-05
4.26185e-05
-7.2912e-05
4.90487e-05
-7.64802e-05
5.57191e-05
-8.09745e-05
6.33886e-05
-8.51634e-05
7.10296e-05
-9.34815e-05
5.60599e-05
-9.65682e-05
7.16264e-05
-0.000104226
0.000108637
-0.000103507
0.000113752
-0.000102617
0.000111073
-8.99114e-05
9.72687e-05
-6.07428e-05
7.9547e-05
-1.54843e-05
7.67294e-05
1.54551e-05
8.91575e-05
3.44165e-05
0.000106798
3.72963e-05
0.000134204
3.71074e-05
2.61102e-05
6.72371e-06
-7.07969e-05
1.33719e-05
-7.14599e-05
1.99524e-05
-7.25964e-05
2.63953e-05
-7.41945e-05
3.28877e-05
-7.65581e-05
3.94698e-05
-7.9494e-05
4.63028e-05
-8.33131e-05
5.32582e-05
-8.79299e-05
6.10181e-05
-9.29233e-05
6.82125e-05
-0.000100619
4.89612e-05
-0.000104255
6.93157e-05
-0.000111824
9.88756e-05
-0.00011094
9.99589e-05
-0.000105242
9.06749e-05
-8.42721e-05
7.06104e-05
-4.62506e-05
5.95851e-05
-8.48352e-06
6.48889e-05
9.15101e-06
8.07867e-05
1.83995e-05
0.000101456
1.66156e-05
0.000127471
1.10918e-05
3.35343e-06
5.8548e-06
-7.66517e-05
1.17876e-05
-7.73927e-05
1.76834e-05
-7.84921e-05
2.3655e-05
-8.01661e-05
2.95801e-05
-8.24832e-05
3.55305e-05
-8.54445e-05
4.12763e-05
-8.90589e-05
4.674e-05
-9.33937e-05
5.25876e-05
-9.8771e-05
5.80795e-05
-0.000106075
3.9491e-05
-0.000110219
6.42894e-05
-9.86808e-05
8.48216e-05
-0.000115355
7.86875e-05
-0.000101421
6.07837e-05
-7.18771e-05
4.42857e-05
-3.47313e-05
4.4419e-05
-1.04408e-05
5.66821e-05
-3.3109e-06
7.52908e-05
-2.24259e-07
9.69507e-05
-5.04451e-06
0.000119221
-1.1179e-05
-1.76548e-05
5.44356e-06
-8.20955e-05
1.0866e-05
-8.28153e-05
1.62582e-05
-8.38846e-05
2.15636e-05
-8.54718e-05
2.67126e-05
-8.76325e-05
3.16916e-05
-9.04238e-05
3.6522e-05
-9.38896e-05
4.13041e-05
-9.8176e-05
4.61568e-05
-0.000103624
5.0095e-05
-0.000110691
3.06191e-05
-6.76325e-05
6.80458e-05
-0.000124303
6.67111e-05
-0.000113029
5.27188e-05
-9.23947e-05
3.26501e-05
-5.71911e-05
2.70269e-05
-3.11903e-05
3.66005e-05
-2.03346e-05
5.27057e-05
-1.94334e-05
7.22528e-05
-1.9772e-05
9.22751e-05
-2.50669e-05
0.00011149
-3.03934e-05
0.000131192
-3.73577e-05
-4.51116e-05
4.80172e-06
-8.68975e-05
9.59002e-06
-8.7604e-05
1.43617e-05
-8.86567e-05
1.90988e-05
-9.02095e-05
2.37769e-05
-9.23111e-05
2.82578e-05
-9.49052e-05
3.23588e-05
-9.79916e-05
3.58922e-05
-0.000101714
3.89126e-05
-0.000106662
2.06756e-05
-0.000102078
3.79555e-05
-0.00010343
4.68019e-05
-0.000123659
3.70044e-05
-0.000107175
1.84236e-05
-8.00881e-05
9.38256e-06
-5.12127e-05
1.70699e-05
-3.95163e-05
3.28227e-05
-3.61099e-05
5.07349e-05
-3.73463e-05
6.94097e-05
-3.84468e-05
8.70194e-05
-4.26767e-05
0.000104381
-4.7758e-05
0.000121598
-5.46994e-05
-6.19345e-05
4.30117e-06
-9.12498e-05
8.58876e-06
-9.19511e-05
1.28628e-05
-9.30101e-05
1.71669e-05
-9.46343e-05
2.13722e-05
-9.6724e-05
2.53979e-05
-9.93255e-05
2.89032e-05
-0.000102281
3.13729e-05
-0.000105753
2.82699e-05
-0.000110523
1.78159e-05
-8.86267e-05
2.13198e-05
-0.000119697
1.2449e-05
-0.000123082
1.07553e-06
-0.000101516
-7.74611e-06
-7.46198e-05
-1.81735e-07
-5.95119e-05
1.50357e-05
-5.47642e-05
3.27621e-05
-5.38433e-05
4.94168e-05
-5.40238e-05
6.69956e-05
-5.61103e-05
8.21565e-05
-5.8233e-05
9.794e-05
-6.53806e-05
0.000116186
-8.37049e-05
-0.000119248
4.05005e-06
-9.96124e-05
8.02664e-06
-0.000100547
1.1873e-05
-0.000102129
1.56524e-05
-0.000104764
1.94628e-05
-0.000108571
2.32188e-05
-0.000113824
2.65588e-05
-0.000121499
2.81561e-05
-0.000130821
1.15098e-05
-0.000143814
6.09466e-06
-0.000137201
-1.22539e-05
-0.000143356
-2.36102e-05
-0.00013916
-2.38929e-05
-0.00011042
-1.62349e-05
-8.59935e-05
-2.0424e-08
-7.80556e-05
1.7275e-05
-7.40212e-05
3.31781e-05
-7.2046e-05
4.84089e-05
-7.27589e-05
6.51684e-05
-7.99012e-05
7.94419e-05
-9.22673e-05
8.38743e-05
-0.000116803
7.97067e-05
-0.000157102
-0.000214349
3.54887e-06
-0.000137156
6.8526e-06
-0.000139104
9.79777e-06
-0.000142742
1.21779e-05
-0.000148723
1.41102e-05
-0.000158363
1.59639e-05
-0.00017491
1.73781e-05
-0.000188222
1.57506e-05
-0.000207634
-4.9494e-07
-0.000197784
-2.08674e-05
-0.000189915
-4.31688e-05
-0.000198426
-4.136e-05
-0.000189477
-2.98771e-05
-0.000161483
-1.28173e-05
-0.00013295
5.5658e-06
-0.000126247
2.02687e-05
-0.000118531
3.31413e-05
-0.000118656
4.31643e-05
-0.000126814
4.98298e-05
-0.00014944
5.06126e-05
-0.000170915
4.41001e-05
-0.000214251
3.50854e-05
-0.000124666
-0.000119886
1.82999e-06
-0.000222718
3.25261e-06
-0.000225367
4.53805e-06
-0.000235077
5.24911e-06
-0.000246955
4.88166e-06
-0.000255418
2.91226e-06
-0.000217299
-3.4505e-06
-0.000155281
-1.75034e-05
-0.000152941
-2.44877e-05
-0.000127154
-5.11342e-05
-0.000151714
-7.22244e-05
-0.000214195
-5.47448e-05
-0.000264094
-2.01032e-05
-0.000286556
6.16971e-07
-0.000240182
9.79108e-06
-0.000221268
1.6893e-05
-0.000208349
2.2187e-05
-0.000212322
2.10441e-05
-0.000228357
1.65756e-05
-0.000196082
1.36908e-05
-0.00012778
-2.19053e-05
-0.000142943
-6.3468e-05
-5.78931e-05
-2.46476e-05
-1.20443e-05
-9.87347e-05
-2.50779e-05
-9.62914e-05
-4.10175e-05
-9.25003e-05
-5.97207e-05
-9.0182e-05
-7.897e-05
-8.88304e-05
-9.26057e-05
-8.63552e-05
-7.21773e-05
-9.47511e-05
-5.964e-05
-0.000108088
-5.55526e-05
-9.48567e-05
-3.50709e-05
-8.76266e-05
-2.16326e-05
-0.000123285
-2.37561e-05
-0.000152618
-8.0278e-07
-0.000169137
1.00474e-05
-0.000159273
6.83507e-06
-0.000156495
7.42351e-06
-0.000144925
4.07924e-06
-0.000147593
-1.59723e-05
-0.000156858
-5.46303e-05
-0.000122164
-7.26765e-05
-7.90849e-05
-3.80783e-05
-5.42889e-05
-4.88768e-05
-2.4472e-05
1.74078e-05
-7.19903e-06
-7.9621e-05
-1.30653e-05
-8.15465e-05
-1.62507e-05
-8.35882e-05
-1.71828e-05
-8.59905e-05
-1.63009e-05
-8.84858e-05
-1.12124e-05
-9.11512e-05
-9.32929e-06
-9.60017e-05
-1.22903e-05
-9.39412e-05
-1.41061e-05
-7.882e-05
-1.06613e-05
-7.98296e-05
-1.60433e-05
-0.000106874
-3.79911e-05
-0.000125287
-6.09774e-05
-0.000109992
-6.74063e-05
-8.82827e-05
-6.85418e-05
-7.76139e-05
-6.12401e-05
-7.93641e-05
-4.34284e-05
-8.34544e-05
-1.51191e-05
-8.35787e-05
-4.08915e-06
-6.87262e-05
-2.40035e-05
-4.73804e-05
-6.15097e-05
-7.91665e-06
-0.000100226
1.46167e-05
2.12961e-05
-2.01112e-06
-7.76089e-05
-3.59574e-06
-7.99605e-05
-5.90772e-06
-8.1274e-05
-8.86914e-06
-8.30164e-05
-1.21722e-05
-8.50889e-05
-1.51066e-05
-8.76643e-05
-1.88243e-05
-9.08009e-05
-2.42508e-05
-9.37083e-05
-2.88467e-05
-9.56723e-05
-3.0064e-05
-9.6292e-05
-3.71513e-05
-0.000102834
-5.50211e-05
-0.000107195
-6.54375e-05
-9.66726e-05
-6.60449e-05
-8.2657e-05
-5.38216e-05
-8.05747e-05
-4.68075e-05
-7.99217e-05
-3.8437e-05
-4.14233e-05
-6.00777e-05
-8.91054e-05
-0.000109342
-0.000102725
-2.10054e-06
-4.08616e-06
-6.25793e-06
-8.66788e-06
-1.1291e-05
-1.43464e-05
-1.85433e-05
-2.41123e-05
-2.99671e-05
-3.57419e-05
-4.43593e-05
-5.68579e-05
-6.44663e-05
-6.5924e-05
-6.97944e-05
)
;

boundaryField
{
    leftWall
    {
        type            fixedValue;
        value           uniform 0;
    }
    rightWall
    {
        type            fixedValue;
        value           nonuniform 0();
    }
    lowerWall
    {
        type            fixedValue;
        value           uniform 0;
    }
    atmosphere
    {
        type            calculated;
        value           nonuniform 0();
    }
    defaultFaces
    {
        type            empty;
        value           nonuniform 0();
    }
    procBoundary0to1
    {
        type            processor;
        value           nonuniform List<scalar> 
26
(
1.26721e-05
1.71427e-05
2.02147e-05
2.39127e-05
2.14718e-05
1.17973e-05
9.38902e-06
1.36383e-05
0.000138786
0.000174242
0.000179015
0.00017241
0.000166827
0.000160641
0.000150228
0.00014023
2.67799e-05
0.000149523
0.000137204
0.000128875
8.50965e-05
-6.22414e-06
-7.23008e-05
-9.46315e-05
-9.68527e-05
-0.000104392
)
;
    }
    procBoundary0to2
    {
        type            processor;
        value           nonuniform List<scalar> 
24
(
-8.70367e-05
-7.76454e-05
-4.73365e-05
-1.35858e-05
5.47877e-06
1.23933e-05
1.99508e-05
-7.55077e-05
-7.79739e-05
-7.91009e-05
-8.06054e-05
-8.24697e-05
-8.4655e-05
-8.693e-05
-8.90019e-05
-9.00952e-05
-9.05443e-05
-9.422e-05
-9.47211e-05
-8.90148e-05
-8.21319e-05
-7.94087e-05
-7.00304e-05
-8.1058e-05
)
;
    }
}


// ************************************************************************* //
