/*--------------------------------*- C++ -*----------------------------------*\
| =========                 |                                                 |
| \\      /  F ield         | OpenFOAM: The Open Source CFD Toolbox           |
|  \\    /   O peration     | Version:  2.4.0                                 |
|   \\  /    A nd           | Web:      www.OpenFOAM.org                      |
|    \\/     M anipulation  |                                                 |
\*---------------------------------------------------------------------------*/
FoamFile
{
    version     2.0;
    format      ascii;
    class       surfaceScalarField;
    location    "0.2";
    object      phi.water;
}
// * * * * * * * * * * * * * * * * * * * * * * * * * * * * * * * * * * * * * //

dimensions      [0 3 -1 0 0 0 0];

internalField   nonuniform List<scalar> 
1101
(
3.12219e-06
-3.12212e-06
6.2781e-06
-3.15584e-06
9.4959e-06
-3.21775e-06
1.28189e-05
-3.32291e-06
1.62276e-05
-3.40867e-06
1.98932e-05
-3.66561e-06
2.34137e-05
-3.52049e-06
2.82016e-05
-4.78781e-06
3.1504e-05
-3.30236e-06
3.6499e-05
-4.99486e-06
4.28416e-05
-6.34219e-06
4.84571e-05
-5.61502e-06
5.31746e-05
-4.71718e-06
5.80605e-05
-4.88559e-06
6.37035e-05
-5.64273e-06
7.04536e-05
-6.74922e-06
7.68379e-05
-6.38097e-06
8.22878e-05
-5.44035e-06
8.29369e-05
-6.41996e-07
7.82366e-05
4.70468e-06
6.20032e-05
1.6231e-05
2.89155e-05
3.11665e-06
-6.23867e-06
6.26732e-06
-6.30641e-06
9.48031e-06
-6.43064e-06
1.28002e-05
-6.64266e-06
1.61984e-05
-6.80686e-06
1.98536e-05
-7.32074e-06
2.34781e-05
-7.14485e-06
2.79992e-05
-9.30886e-06
3.14692e-05
-6.77213e-06
3.65957e-05
-1.01206e-05
4.29328e-05
-1.26777e-05
4.82082e-05
-1.08887e-05
5.25528e-05
-9.06021e-06
5.76734e-05
-1.00017e-05
6.44251e-05
-1.22876e-05
7.19482e-05
-1.31234e-05
7.92547e-05
-9.14823e-06
8.47659e-05
-2.64912e-06
8.60257e-05
3.26333e-06
8.1228e-05
1.17727e-05
6.4004e-05
3.38527e-05
5.63527e-05
3.10204e-06
-9.34059e-06
6.23814e-06
-9.44241e-06
9.43854e-06
-9.63096e-06
1.27441e-05
-9.94816e-06
1.61284e-05
-1.01911e-05
1.97585e-05
-1.09508e-05
2.34437e-05
-1.08299e-05
2.76538e-05
-1.35187e-05
3.14531e-05
-1.05706e-05
3.65875e-05
-1.52525e-05
4.26436e-05
-1.87294e-05
4.76971e-05
-1.59383e-05
5.22058e-05
-1.35298e-05
5.79029e-05
-1.46217e-05
6.50314e-05
-6.19842e-06
7.19433e-05
4.29916e-06
7.95752e-05
6.73484e-06
8.44015e-05
1.66406e-05
8.63107e-05
3.23285e-05
8.36875e-05
4.4888e-05
6.91691e-05
5.91127e-05
8.61152e-05
3.0802e-06
-1.24205e-05
6.19454e-06
-1.25566e-05
9.37712e-06
-1.28134e-05
1.26578e-05
-1.32287e-05
1.6029e-05
-1.35622e-05
1.962e-05
-1.45416e-05
2.331e-05
-1.45195e-05
2.72972e-05
-1.75049e-05
3.13859e-05
-1.46571e-05
3.64054e-05
-2.0265e-05
4.18824e-05
-2.41984e-05
4.68762e-05
-2.07469e-05
5.18008e-05
-1.3866e-05
4.8152e-05
1.73883e-06
5.98445e-05
4.98217e-08
7.86826e-05
4.43482e-06
8.40991e-05
7.7231e-06
8.68167e-05
1.44535e-05
8.63293e-05
2.89877e-05
7.09326e-05
6.21445e-05
4.71893e-05
0.000119012
0.000120923
3.05049e-06
-1.54706e-05
6.13555e-06
-1.56414e-05
9.29368e-06
-1.59714e-05
1.25439e-05
-1.64788e-05
1.58888e-05
-1.69069e-05
1.94447e-05
-1.80973e-05
2.30916e-05
-1.81657e-05
2.68749e-05
-2.12858e-05
3.12773e-05
-1.90538e-05
3.60377e-05
-2.50025e-05
4.06576e-05
-2.60022e-05
4.33165e-05
-7.88987e-06
4.17545e-05
-1.2678e-06
6.65899e-05
1.51599e-06
7.10558e-05
-5.02956e-07
7.35498e-05
-3.48594e-06
7.81909e-05
-4.71844e-06
8.14044e-05
-8.15942e-06
7.78379e-05
2.60587e-06
5.85417e-05
2.47119e-05
3.73163e-05
8.41188e-05
0.000170259
3.01162e-06
-1.84814e-05
6.05877e-06
-1.86883e-05
9.18429e-06
-1.90968e-05
1.23966e-05
-1.96912e-05
1.57015e-05
-2.02118e-05
1.92268e-05
-2.16221e-05
2.27938e-05
-2.1731e-05
2.65509e-05
-2.50385e-05
3.08941e-05
-2.33944e-05
3.46829e-05
-1.70231e-05
3.1294e-05
-4.38019e-06
4.47055e-05
-4.96631e-06
6.02171e-05
-3.68934e-06
6.39775e-05
-4.943e-06
6.43295e-05
-7.83707e-06
7.02452e-05
-2.26708e-05
7.66574e-05
-3.7741e-05
7.85306e-05
-3.29985e-05
7.53526e-05
-1.626e-05
6.89547e-05
4.99671e-06
2.54853e-05
6.45482e-05
0.00016884
2.96179e-06
-2.14386e-05
5.96159e-06
-2.16834e-05
9.04495e-06
-2.21739e-05
1.22113e-05
-2.28486e-05
1.54715e-05
-2.34592e-05
1.89719e-05
-2.51018e-05
2.24834e-05
-2.52132e-05
2.61759e-05
-2.86876e-05
2.54174e-05
-9.28895e-06
2.91551e-05
-7.09537e-06
4.31696e-05
-6.31793e-06
5.0309e-05
-8.71654e-06
5.71227e-05
-1.35365e-05
5.81273e-05
-1.60216e-05
6.41644e-05
-3.135e-05
7.17997e-05
-4.6707e-05
7.95819e-05
-5.06712e-05
8.45699e-05
-3.84097e-05
8.27246e-05
-1.68809e-05
7.11392e-05
1.2475e-05
4.55402e-05
6.60026e-05
0.000173707
2.90429e-06
1.8702e-06
5.85189e-06
1.77804e-06
8.8896e-06
1.55989e-06
1.20094e-05
1.25751e-06
1.52376e-05
8.70499e-07
1.87264e-05
-1.68084e-07
2.22566e-05
-2.37462e-07
1.92589e-05
-1.73233e-06
2.79304e-05
-7.29343e-06
3.69694e-05
-5.489e-06
4.17137e-05
-1.08399e-05
4.74577e-05
-1.84107e-05
5.33007e-05
-2.88849e-05
5.43749e-05
-3.37136e-05
6.11775e-05
-4.72988e-05
7.24368e-05
-5.97591e-05
7.9621e-05
-5.83164e-05
8.00868e-05
-4.25705e-05
7.62831e-05
-1.33887e-05
7.07789e-05
2.06103e-05
5.39914e-05
7.55284e-05
0.000164758
6.7128e-06
-7.66172e-07
1.35635e-05
-1.23911e-06
2.06817e-05
-2.17684e-06
2.7937e-05
-3.31143e-06
3.57046e-05
-4.60996e-06
4.4163e-05
-7.24458e-06
5.3365e-05
-9.0984e-06
6.12318e-05
-1.31741e-05
6.90561e-05
-1.60329e-05
7.46561e-05
-2.06892e-05
8.29701e-05
-3.59375e-05
8.83213e-05
-4.35612e-05
9.08479e-05
-4.93587e-05
0.000107289
-5.86214e-05
0.000130316
-7.19736e-05
0.000146869
-7.67952e-05
0.000154616
-6.78503e-05
0.000149584
-4.05382e-05
0.000138888
-2.3275e-06
0.000139204
2.93364e-05
0.000121176
7.39296e-05
0.00013576
6.88766e-06
-1.31249e-05
1.36945e-05
-1.37954e-05
2.01902e-05
-1.49371e-05
2.61986e-05
-1.63767e-05
3.22608e-05
-1.85637e-05
3.93423e-05
-2.40334e-05
4.57742e-05
-2.89211e-05
5.18142e-05
-3.55847e-05
5.81511e-05
-4.11339e-05
6.81972e-05
-5.04755e-05
7.47764e-05
-5.81814e-05
8.50087e-05
-6.32345e-05
0.000105299
-7.3074e-05
0.000127383
-8.11692e-05
0.000141383
-8.6109e-05
0.0001478
-8.35193e-05
0.000147019
-6.83273e-05
0.000138318
-3.26393e-05
0.000131736
1.08632e-05
0.00011439
3.42227e-05
0.000108483
8.42908e-05
0.000166584
5.19861e-06
-3.56431e-05
1.0675e-05
-3.67573e-05
1.59924e-05
-3.79925e-05
2.23395e-05
-4.06791e-05
2.88085e-05
-4.30002e-05
3.51468e-05
-4.72291e-05
4.25058e-05
-5.06908e-05
5.22796e-05
-5.60797e-05
6.37072e-05
-5.95563e-05
7.8866e-05
-6.91499e-05
9.30803e-05
-7.31519e-05
0.000106976
-7.72161e-05
0.000119836
-8.59351e-05
0.00013238
-9.3759e-05
0.000140267
-9.41999e-05
0.000142728
-8.67952e-05
0.000138463
-6.60194e-05
0.000128244
-2.39741e-05
0.000126801
1.81514e-05
0.000111042
3.74717e-05
0.000100043
7.88143e-05
0.000126101
6.97151e-06
-4.85656e-05
1.41164e-05
-4.94752e-05
2.15688e-05
-5.0342e-05
2.98018e-05
-5.28579e-05
3.83398e-05
-5.44425e-05
4.77194e-05
-5.82311e-05
5.8388e-05
-6.1975e-05
6.91231e-05
-6.69914e-05
7.96599e-05
-7.01386e-05
8.88175e-05
-7.83157e-05
9.65787e-05
-8.09136e-05
0.000105882
-8.65157e-05
0.000116368
-9.64099e-05
0.000124983
-0.000102493
0.000131067
-0.000100769
0.000132324
-8.97909e-05
0.000123037
-6.01745e-05
0.000112995
-1.81061e-05
0.000117369
1.72793e-05
0.000105536
3.29324e-05
0.000106999
6.13349e-05
8.2443e-05
8.23205e-06
-5.68038e-05
1.62871e-05
-5.75346e-05
2.45498e-05
-5.86072e-05
3.24098e-05
-6.07196e-05
4.1e-05
-6.30334e-05
4.9083e-05
-6.6314e-05
5.71584e-05
-7.00499e-05
6.44715e-05
-7.4304e-05
7.18268e-05
-7.74937e-05
7.94083e-05
-8.5897e-05
8.60418e-05
-8.75466e-05
9.52043e-05
-9.56723e-05
0.000105599
-0.000106807
0.000113941
-0.000111089
0.000118331
-0.000106148
0.000114767
-8.93428e-05
0.000101936
-5.25233e-05
9.53864e-05
-1.59998e-05
0.000103814
1.05578e-05
8.75311e-05
2.69094e-05
0.000115463
4.27067e-05
4.76378e-05
7.26956e-06
-6.40734e-05
1.45468e-05
-6.48119e-05
2.19558e-05
-6.60161e-05
2.89878e-05
-6.77517e-05
3.60203e-05
-7.00659e-05
4.26183e-05
-7.2912e-05
4.90486e-05
-7.64801e-05
5.57189e-05
-8.09743e-05
6.33884e-05
-8.51632e-05
7.09725e-05
-9.34812e-05
8.00192e-05
-9.65925e-05
9.217e-05
-0.000107812
0.000102699
-0.000117408
0.000108455
-0.000117302
0.000107578
-0.000107134
9.5529e-05
-8.20143e-05
8.16894e-05
-4.39465e-05
8.05137e-05
-1.73604e-05
8.07223e-05
4.81299e-06
5.53357e-05
1.92856e-05
0.000129972
3.83218e-05
2.64537e-05
6.72368e-06
-7.07971e-05
1.33719e-05
-7.14601e-05
1.99523e-05
-7.25965e-05
2.63952e-05
-7.41946e-05
3.28876e-05
-7.65583e-05
3.94697e-05
-7.94941e-05
4.63027e-05
-8.33131e-05
5.32581e-05
-8.79298e-05
6.10181e-05
-9.29231e-05
6.81554e-05
-0.000100618
7.58498e-05
-0.000104286
8.59076e-05
-0.000117847
9.288e-05
-0.000124582
9.56179e-05
-0.000121183
8.88419e-05
-0.000104047
7.20647e-05
-7.07583e-05
6.35754e-05
-3.90959e-05
6.38504e-05
-2.02193e-05
4.82538e-05
4.03102e-06
8.45616e-05
1.74819e-05
0.000127444
1.11341e-05
3.36978e-06
5.85478e-06
-7.66518e-05
1.17876e-05
-7.73928e-05
1.76833e-05
-7.84923e-05
2.3655e-05
-8.01663e-05
2.958e-05
-8.24833e-05
3.55305e-05
-8.54445e-05
4.12763e-05
-8.90589e-05
4.674e-05
-9.33935e-05
5.25876e-05
-9.87707e-05
5.80436e-05
-0.000106074
6.52526e-05
-0.000111492
7.52422e-05
-0.00012781
7.98028e-05
-0.000129836
7.61511e-05
-0.00012059
6.07593e-05
-9.45813e-05
4.65757e-05
-6.14304e-05
4.68476e-05
-4.03931e-05
3.90617e-05
-1.5474e-05
4.87765e-05
1.74756e-06
9.68937e-05
-5.00092e-06
0.00011922
-1.11788e-05
-1.76544e-05
5.44353e-06
-8.20954e-05
1.08659e-05
-8.28152e-05
1.62582e-05
-8.38845e-05
2.15636e-05
-8.54717e-05
2.67126e-05
-8.76323e-05
3.16916e-05
-9.04236e-05
3.65221e-05
-9.38893e-05
4.13042e-05
-9.81756e-05
4.61566e-05
-0.000103623
5.07707e-05
-0.000110689
5.81943e-05
-0.000118903
6.59069e-05
-0.000135787
6.58387e-05
-0.00013231
5.43529e-05
-0.000114739
3.67113e-05
-8.16787e-05
3.12808e-05
-5.84894e-05
3.01437e-05
-3.35506e-05
2.64601e-05
-1.17717e-05
7.19773e-05
-1.95599e-05
9.22742e-05
-2.50674e-05
0.000111489
-3.03933e-05
0.000131192
-3.73573e-05
-4.51107e-05
4.80169e-06
-8.6897e-05
9.58999e-06
-8.76035e-05
1.43616e-05
-8.86562e-05
1.90989e-05
-9.02089e-05
2.3777e-05
-9.23104e-05
2.82579e-05
-9.49045e-05
3.2359e-05
-9.7991e-05
3.58924e-05
-0.000101714
3.8905e-05
-0.000106662
4.11841e-05
-0.000113058
4.58399e-05
-0.000123726
4.83937e-05
-0.000140316
3.92295e-05
-0.000129386
2.17168e-05
-0.000102813
1.23968e-05
-7.43402e-05
1.63673e-05
-5.27032e-05
1.88347e-05
-2.54026e-05
4.93426e-05
-3.62251e-05
6.94036e-05
-3.84562e-05
8.70185e-05
-4.26775e-05
0.00010438
-4.77578e-05
0.000121598
-5.4691e-05
-6.18486e-05
4.30115e-06
-9.12506e-05
8.58875e-06
-9.19521e-05
1.28628e-05
-9.30118e-05
1.71669e-05
-9.46372e-05
2.13723e-05
-9.67295e-05
2.5398e-05
-9.93369e-05
2.89034e-05
-0.000102305
3.13716e-05
-0.000105802
3.19425e-05
-0.000110316
3.04528e-05
-0.000117087
2.70049e-05
-0.000128976
1.83836e-05
-0.000143456
5.38539e-06
-0.000122907
-3.67872e-06
-9.53256e-05
2.69623e-06
-7.82032e-05
1.04366e-05
-4.50972e-05
2.57023e-05
-4.94269e-05
4.93875e-05
-5.404e-05
6.69813e-05
-5.6096e-05
8.21556e-05
-5.82057e-05
9.79429e-05
-6.52576e-05
0.000116229
-8.30386e-05
-0.000116031
4.05e-06
-9.9758e-05
8.02649e-06
-0.000100704
1.18725e-05
-0.000102309
1.56512e-05
-0.000104984
1.94592e-05
-0.000108855
2.32101e-05
-0.000114214
2.65447e-05
-0.0001221
2.81546e-05
-0.000131627
2.60508e-05
-0.000142142
1.70178e-05
-0.000154686
-2.79913e-06
-0.00016991
-1.94566e-05
-0.000182695
-2.00226e-05
-0.000131231
-1.19753e-05
-0.000105711
7.85953e-07
-7.70426e-05
1.05197e-05
-5.28156e-05
3.15923e-05
-6.90882e-05
4.836e-05
-7.2434e-05
6.51766e-05
-7.94511e-05
7.94854e-05
-9.09977e-05
8.40711e-05
-0.000113237
8.05939e-05
-0.0001475
-0.000198169
3.54972e-06
-0.000139007
6.85422e-06
-0.00014108
9.80053e-06
-0.000144986
1.21768e-05
-0.000151449
1.40695e-05
-0.000161942
1.57537e-05
-0.000180132
1.69773e-05
-0.000195779
1.64618e-05
-0.000214505
1.13987e-05
-0.000239298
-1.04515e-05
-0.000277378
-4.9775e-05
-0.000280266
-5.11624e-05
-0.000231079
-2.74403e-05
-0.00017281
-1.19433e-05
-0.000129123
2.11683e-06
-8.54055e-05
1.88031e-05
-0.000108023
3.30481e-05
-0.000115209
4.32053e-05
-0.000122947
5.02366e-05
-0.000142842
5.13969e-05
-0.000157591
4.54599e-05
-0.000192669
2.58846e-05
-9.90396e-05
-2.13312e-05
1.7491e-06
-0.000240487
3.05185e-06
-0.000243746
4.13634e-06
-0.000255434
4.44699e-06
-0.000270327
3.52701e-06
-0.000283412
2.80523e-06
-0.000245539
2.78768e-06
-0.000170565
1.57553e-06
-0.00016182
-4.60335e-06
-0.000149892
-4.09378e-05
-0.00016057
-7.1275e-05
-0.000155959
-4.96491e-05
-0.000141741
-2.13931e-05
-0.00012185
-3.24712e-06
-0.000104656
7.31164e-06
-0.000164562
1.68795e-05
-0.000187308
2.2478e-05
-0.000192626
2.16119e-05
-0.000204547
1.38073e-05
-0.00016973
-1.41622e-05
-8.32472e-05
-9.11322e-05
-1.98974e-05
-8.62746e-05
-4.15849e-05
-2.11782e-05
2.37386e-07
-0.000168128
-9.36786e-07
-0.000157551
-2.04381e-06
-0.000152108
-5.71236e-06
-0.000156457
-2.03508e-05
-0.000160078
-5.11372e-05
-0.000133177
-7.18733e-05
-0.000101112
-6.39594e-05
-9.85531e-05
-5.0746e-05
-0.000106957
-3.61717e-07
-9.59825e-05
6.01813e-05
-0.000117114
5.18555e-05
-0.000130358
3.87774e-05
-8.30636e-05
1.80313e-05
-6.30238e-05
-1.02301e-05
-7.75067e-05
-3.5264e-05
-8.42499e-05
-6.6065e-05
-7.5129e-05
-0.000101441
-5.9783e-05
-0.000114504
-5.67254e-05
-7.42735e-05
-6.93004e-05
-3.39352e-05
-5.01451e-05
-5.88457e-05
-1.66693e-05
1.80764e-05
-6.17546e-06
-8.78616e-05
-1.28663e-05
-8.91806e-05
-1.6497e-05
-8.80548e-05
-1.73754e-05
-8.87954e-05
-1.62352e-05
-9.01405e-05
-1.11075e-05
-9.27401e-05
-9.50835e-06
-9.41958e-05
-1.16317e-05
-0.000100165
-1.42951e-05
-0.000100435
-1.07734e-05
-9.75055e-05
-1.71087e-05
-0.000109798
-3.75649e-05
-0.000124846
-6.30267e-05
-0.000109923
-7.01937e-05
-8.61413e-05
-6.73891e-05
-7.36425e-05
-5.8309e-05
-7.43163e-05
-3.94932e-05
-7.90554e-05
-1.29677e-05
-8.07549e-05
-1.21274e-06
-6.82705e-05
-2.40017e-05
-4.65102e-05
-6.84457e-05
-5.70059e-06
-0.000100568
1.54527e-05
2.26168e-05
-1.96094e-06
-7.62254e-05
-3.57889e-06
-7.94987e-05
-5.89344e-06
-8.0947e-05
-8.86115e-06
-8.27242e-05
-1.21731e-05
-8.47237e-05
-1.50962e-05
-8.70958e-05
-1.87059e-05
-9.03358e-05
-2.42349e-05
-9.42685e-05
-2.88734e-05
-9.594e-05
-3.0076e-05
-9.63144e-05
-3.70817e-05
-0.000102817
-5.47375e-05
-0.000107161
-6.70394e-05
-9.69729e-05
-6.64533e-05
-8.52648e-05
-5.83471e-05
-8.15612e-05
-4.69199e-05
-8.57379e-05
-3.87767e-05
-4.20062e-05
-6.35216e-05
-9.67909e-05
-0.000108921
-0.000107363
-2.0953e-06
-4.08535e-06
-6.25763e-06
-8.66798e-06
-1.12903e-05
-1.43439e-05
-1.85419e-05
-2.41124e-05
-2.99694e-05
-3.5743e-05
-4.43382e-05
-5.67794e-05
-6.47685e-05
-6.82213e-05
-6.98531e-05
)
;

boundaryField
{
    leftWall
    {
        type            fixedValue;
        value           uniform 0;
    }
    rightWall
    {
        type            fixedValue;
        value           nonuniform 0();
    }
    lowerWall
    {
        type            fixedValue;
        value           uniform 0;
    }
    atmosphere
    {
        type            calculated;
        value           nonuniform 0();
    }
    defaultFaces
    {
        type            empty;
        value           nonuniform 0();
    }
    procBoundary0to1
    {
        type            processor;
        value           nonuniform List<scalar> 
26
(
3.30985e-05
3.66101e-05
3.97226e-05
3.78397e-05
1.85359e-05
1.18884e-05
1.35785e-05
1.75447e-05
9.32144e-05
0.000164635
0.000167502
0.000157436
0.000157265
0.000160172
0.000150211
0.000140228
2.6779e-05
0.000149523
0.000137206
0.000129073
8.8308e-05
-7.37401e-05
-7.10961e-05
-9.81012e-05
-0.000105108
-0.000105048
)
;
    }
    procBoundary0to2
    {
        type            processor;
        value           nonuniform List<scalar> 
24
(
-8.71969e-05
-7.75233e-05
-4.67545e-05
-1.32401e-05
6.42938e-06
1.38952e-05
2.03009e-05
-7.55144e-05
-7.79787e-05
-7.91052e-05
-8.06095e-05
-8.24743e-05
-8.46573e-05
-8.69263e-05
-8.89955e-05
-9.00889e-05
-9.0544e-05
-9.42232e-05
-9.47141e-05
-8.89907e-05
-8.1989e-05
-7.99348e-05
-7.45174e-05
-8.10727e-05
)
;
    }
}


// ************************************************************************* //
