/*--------------------------------*- C++ -*----------------------------------*\
| =========                 |                                                 |
| \\      /  F ield         | OpenFOAM: The Open Source CFD Toolbox           |
|  \\    /   O peration     | Version:  2.4.0                                 |
|   \\  /    A nd           | Web:      www.OpenFOAM.org                      |
|    \\/     M anipulation  |                                                 |
\*---------------------------------------------------------------------------*/
FoamFile
{
    version     2.0;
    format      ascii;
    class       surfaceScalarField;
    location    "0.2";
    object      phi.mercury;
}
// * * * * * * * * * * * * * * * * * * * * * * * * * * * * * * * * * * * * * //

dimensions      [0 3 -1 0 0 0 0];

internalField   nonuniform List<scalar> 
1101
(
3.12218e-06
-3.12218e-06
6.27807e-06
-3.15589e-06
9.49586e-06
-3.2178e-06
1.28188e-05
-3.32295e-06
1.62275e-05
-3.40871e-06
1.98932e-05
-3.66565e-06
2.34137e-05
-3.52052e-06
2.82015e-05
-4.78784e-06
3.15039e-05
-3.3024e-06
3.6499e-05
-4.99503e-06
4.28415e-05
-6.34259e-06
4.8457e-05
-5.61549e-06
5.31746e-05
-4.71757e-06
5.80605e-05
-4.88587e-06
6.37035e-05
-5.64302e-06
7.04535e-05
-6.75004e-06
7.6838e-05
-6.38442e-06
8.2288e-05
-5.45001e-06
8.29371e-05
-6.49133e-07
7.82376e-05
4.70023e-06
6.20198e-05
1.62264e-05
2.88709e-05
3.11664e-06
-6.23882e-06
6.26729e-06
-6.30655e-06
9.48027e-06
-6.43078e-06
1.28001e-05
-6.64279e-06
1.61984e-05
-6.80699e-06
1.98536e-05
-7.32085e-06
2.3478e-05
-7.14495e-06
2.79992e-05
-9.30899e-06
3.14691e-05
-6.77236e-06
3.65955e-05
-1.01214e-05
4.29326e-05
-1.26796e-05
4.82081e-05
-1.0891e-05
5.25527e-05
-9.06215e-06
5.76733e-05
-1.00065e-05
6.44251e-05
-1.23949e-05
7.19501e-05
-1.42751e-05
7.92564e-05
-1.36919e-05
8.47678e-05
-1.09677e-05
8.60294e-05
-1.91712e-06
8.12324e-05
9.49462e-06
6.40243e-05
3.34452e-05
5.624e-05
3.10203e-06
-9.34085e-06
6.23811e-06
-9.44263e-06
9.4385e-06
-9.63117e-06
1.27441e-05
-9.94837e-06
1.61284e-05
-1.01913e-05
1.97585e-05
-1.0951e-05
2.34436e-05
-1.08301e-05
2.76538e-05
-1.35191e-05
3.14528e-05
-1.05714e-05
3.65869e-05
-1.52555e-05
4.2643e-05
-1.87358e-05
4.76967e-05
-1.59447e-05
5.22061e-05
-1.35716e-05
5.80032e-05
-1.58036e-05
6.53894e-05
-1.97847e-05
7.35579e-05
-2.25004e-05
8.08643e-05
-2.12822e-05
8.57472e-05
-1.67222e-05
8.81191e-05
-5.8442e-06
8.48915e-05
1.15852e-05
6.95943e-05
4.84765e-05
8.59797e-05
3.08019e-06
-1.2421e-05
6.19451e-06
-1.2557e-05
9.37708e-06
-1.28137e-05
1.26578e-05
-1.32291e-05
1.6029e-05
-1.35625e-05
1.96199e-05
-1.45419e-05
2.33099e-05
-1.452e-05
2.72969e-05
-1.75062e-05
3.13852e-05
-1.46598e-05
3.64037e-05
-2.0274e-05
4.18813e-05
-2.42133e-05
4.69019e-05
-2.09653e-05
5.25239e-05
-1.91937e-05
5.94171e-05
-2.2709e-05
6.67985e-05
-2.73916e-05
7.41639e-05
-3.17854e-05
8.07467e-05
-3.43058e-05
8.57275e-05
-3.52966e-05
8.95351e-05
-3.18137e-05
8.39538e-05
-1.47932e-05
7.07225e-05
4.40961e-05
0.00011324
3.05049e-06
-1.54715e-05
6.13553e-06
-1.5642e-05
9.29365e-06
-1.59719e-05
1.25439e-05
-1.64793e-05
1.58888e-05
-1.69074e-05
1.94447e-05
-1.80978e-05
2.30914e-05
-1.81667e-05
2.68743e-05
-2.12891e-05
3.12752e-05
-1.90606e-05
3.60358e-05
-2.50346e-05
4.07436e-05
-2.89212e-05
4.62516e-05
-2.64766e-05
5.36349e-05
-2.66268e-05
6.14539e-05
-3.11918e-05
6.72971e-05
-3.74406e-05
7.08316e-05
-4.96603e-05
7.42981e-05
-7.24542e-05
7.62683e-05
-8.16131e-05
7.72288e-05
-8.22849e-05
7.87245e-05
-5.82492e-05
6.08187e-05
2.55412e-05
0.000123589
3.01164e-06
-1.84832e-05
6.05875e-06
-1.86891e-05
9.18426e-06
-1.90974e-05
1.23966e-05
-1.96916e-05
1.57014e-05
-2.02122e-05
1.92266e-05
-2.1623e-05
2.27933e-05
-2.17334e-05
2.65493e-05
-2.50451e-05
3.09026e-05
-2.34138e-05
3.54318e-05
-2.95646e-05
3.96537e-05
-3.31814e-05
4.62996e-05
-3.34141e-05
5.50763e-05
-3.7206e-05
6.09491e-05
-4.41346e-05
6.20863e-05
-6.01037e-05
6.12258e-05
-9.52274e-05
6.17145e-05
-0.000120369
6.03693e-05
-8.98798e-05
6.4184e-05
-5.06483e-05
7.8131e-05
-5.16747e-05
6.0321e-05
1.36147e-05
0.00012603
2.9619e-06
-2.14451e-05
5.96159e-06
-2.16888e-05
9.04493e-06
-2.21807e-05
1.22113e-05
-2.2858e-05
1.54713e-05
-2.34723e-05
1.89714e-05
-2.51231e-05
2.24826e-05
-2.52446e-05
2.61786e-05
-2.87412e-05
3.0535e-05
-2.7773e-05
3.48055e-05
-3.39999e-05
3.90745e-05
-3.86771e-05
4.61391e-05
-4.46896e-05
5.30126e-05
-5.55865e-05
5.42316e-05
-7.20132e-05
5.31298e-05
-0.000105263
5.13594e-05
-0.000131759
5.15897e-05
-0.000114747
5.10601e-05
-5.73901e-05
6.79926e-05
-4.56941e-06
5.83427e-05
1.9691e-05
5.90164e-05
4.90234e-05
0.000128656
2.90418e-06
-2.44056e-05
5.85172e-06
-2.47012e-05
8.88927e-06
-2.53033e-05
1.20089e-05
-2.60995e-05
1.52365e-05
-2.68803e-05
1.87242e-05
-2.89274e-05
2.2252e-05
-2.93081e-05
2.58488e-05
-3.34108e-05
3.0491e-05
-3.39634e-05
3.37369e-05
-4.11088e-05
3.80724e-05
-5.08971e-05
4.34347e-05
-6.43311e-05
4.5546e-05
-8.27645e-05
4.40659e-05
-0.000102899
4.44373e-05
-0.000131382
4.7036e-05
-0.000134945
5.57867e-05
-9.84083e-05
6.39806e-05
-3.73744e-05
7.54123e-05
3.97217e-06
3.71173e-05
5.41199e-05
3.4074e-05
0.000111249
0.000142614
6.05176e-06
-3.38387e-05
1.22158e-05
-3.45072e-05
1.85606e-05
-3.58363e-05
2.50483e-05
-3.76533e-05
3.18413e-05
-3.99546e-05
3.91068e-05
-4.47118e-05
4.71318e-05
-4.89475e-05
5.44482e-05
-5.72158e-05
6.25983e-05
-6.53809e-05
6.69351e-05
-7.83966e-05
7.40809e-05
-9.8889e-05
7.46874e-05
-0.00011324
7.26626e-05
-0.000122802
7.82542e-05
-0.00011776
8.37559e-05
-0.000108317
9.78829e-05
-9.38852e-05
0.000104432
-6.92566e-05
0.000141959
-3.35084e-05
0.000133842
2.1083e-05
6.70449e-05
6.74179e-05
8.79439e-05
0.000145605
0.000196125
6.00949e-06
-6.07537e-05
1.20412e-05
-6.23397e-05
1.79467e-05
-6.53102e-05
2.36028e-05
-6.95373e-05
2.90358e-05
-7.48471e-05
3.40421e-05
-8.31804e-05
3.95209e-05
-9.00175e-05
4.32975e-05
-9.92078e-05
4.69687e-05
-0.000109382
5.2961e-05
-0.000124519
5.69179e-05
-0.000112638
6.14674e-05
-9.74858e-05
7.25724e-05
-0.00010172
9.70256e-05
-9.6853e-05
0.000119545
-8.34481e-05
0.000141399
-7.80328e-05
0.000132405
-6.4051e-05
0.00013182
-2.48534e-05
0.000126544
3.75946e-05
7.0285e-05
7.24365e-05
0.000114764
0.000124253
0.000208395
4.12572e-06
-9.88064e-05
8.37529e-06
-0.000100851
1.22388e-05
-0.000104079
1.64652e-05
-0.000109326
2.0384e-05
-0.000112592
2.4886e-05
-0.000112841
3.08668e-05
-0.000101286
3.7861e-05
-9.34828e-05
4.57944e-05
-9.07084e-05
5.56742e-05
-9.31842e-05
7.74851e-05
-7.94295e-05
0.000103743
-6.95043e-05
0.000112741
-7.07146e-05
0.000123216
-7.37295e-05
0.000132647
-7.51623e-05
0.000141453
-6.98352e-05
0.000139582
-5.65757e-05
0.000123845
-1.42466e-05
0.000120054
4.55883e-05
7.13358e-05
7.37008e-05
0.000123205
8.71753e-05
0.000195862
5.1601e-06
-5.42056e-05
1.03011e-05
-5.41307e-05
1.55959e-05
-5.38056e-05
2.15955e-05
-5.68281e-05
2.88415e-05
-5.75744e-05
3.90064e-05
-5.65012e-05
5.39829e-05
-5.21275e-05
6.70939e-05
-4.77381e-05
7.52582e-05
-4.58504e-05
7.97395e-05
-4.89316e-05
9.52368e-05
-5.41612e-05
0.000104162
-5.95194e-05
0.000114244
-7.0366e-05
0.000122368
-8.10041e-05
0.000128952
-8.98174e-05
0.000133902
-8.65322e-05
0.000123644
-5.42009e-05
0.000112389
-3.98119e-06
0.000111841
4.61192e-05
7.19351e-05
6.69419e-05
0.000114567
5.73372e-05
0.000143984
8.09276e-06
-5.23727e-05
1.59904e-05
-5.41876e-05
2.46363e-05
-5.66575e-05
3.23914e-05
-5.78874e-05
4.08444e-05
-6.00708e-05
4.89871e-05
-6.38662e-05
5.7096e-05
-6.7862e-05
6.44225e-05
-7.22577e-05
7.16297e-05
-7.57009e-05
7.92719e-05
-8.46861e-05
8.60148e-05
-8.67575e-05
9.5117e-05
-9.48883e-05
0.00010547
-0.000106172
0.000114319
-0.000110698
0.000119193
-0.000104945
0.000115903
-8.5269e-05
0.000101957
-4.19441e-05
9.42198e-05
4.77701e-06
0.000100442
4.20467e-05
0.00010002
5.4303e-05
9.17091e-05
5.28984e-05
5.57108e-05
7.26961e-06
-6.40731e-05
1.45469e-05
-6.48116e-05
2.19559e-05
-6.60158e-05
2.8988e-05
-6.77514e-05
3.60205e-05
-7.00656e-05
4.26185e-05
-7.29118e-05
4.90487e-05
-7.648e-05
5.57191e-05
-8.09743e-05
6.33885e-05
-8.51632e-05
7.09727e-05
-9.34813e-05
8.00188e-05
-9.65928e-05
9.21489e-05
-0.000107812
0.000102777
-0.00011736
0.000108832
-0.000116732
0.000108272
-0.000104532
9.62041e-05
-7.47456e-05
8.03912e-05
-2.74091e-05
7.76281e-05
9.44296e-06
8.89536e-05
3.33409e-05
0.000106683
3.7376e-05
0.000130391
3.71988e-05
2.76498e-05
6.72371e-06
-7.07969e-05
1.33719e-05
-7.14599e-05
1.99524e-05
-7.25964e-05
2.63953e-05
-7.41945e-05
3.28877e-05
-7.65581e-05
3.94698e-05
-7.9494e-05
4.63028e-05
-8.33131e-05
5.32582e-05
-8.79299e-05
6.10181e-05
-9.29233e-05
6.81555e-05
-0.000100619
7.58488e-05
-0.000104286
8.58654e-05
-0.000117846
9.30669e-05
-0.000124438
9.61964e-05
-0.000119777
8.94085e-05
-9.88611e-05
7.12884e-05
-5.8463e-05
6.05445e-05
-1.60742e-05
6.48278e-05
7.35323e-06
8.07042e-05
1.83627e-05
0.000101453
1.66162e-05
0.000127511
1.10918e-05
3.39255e-06
5.8548e-06
-7.66517e-05
1.17876e-05
-7.73927e-05
1.76834e-05
-7.84921e-05
2.3655e-05
-8.01661e-05
2.95801e-05
-8.24832e-05
3.55305e-05
-8.54445e-05
4.12763e-05
-8.90589e-05
4.674e-05
-9.33937e-05
5.25876e-05
-9.8771e-05
5.80436e-05
-0.000106075
6.52504e-05
-0.000111493
7.51522e-05
-0.000127777
8.01897e-05
-0.000129205
7.67531e-05
-0.000116887
6.07705e-05
-8.49358e-05
4.4967e-05
-4.30338e-05
4.4637e-05
-1.31633e-05
5.65793e-05
-3.38304e-06
7.52893e-05
-2.24803e-07
9.69496e-05
-5.04488e-06
0.00011922
-1.1179e-05
-1.76544e-05
5.44356e-06
-8.20955e-05
1.0866e-05
-8.28153e-05
1.62582e-05
-8.38846e-05
2.15636e-05
-8.54718e-05
2.67126e-05
-8.76325e-05
3.16916e-05
-9.04238e-05
3.6522e-05
-9.38896e-05
4.13041e-05
-9.8176e-05
4.61565e-05
-0.000103624
5.07706e-05
-0.000110689
5.81656e-05
-0.000118896
6.59878e-05
-0.000135486
6.59945e-05
-0.000129269
5.3711e-05
-0.000106474
3.41328e-05
-6.64804e-05
2.76018e-05
-3.49296e-05
3.65121e-05
-2.05181e-05
5.27026e-05
-1.94332e-05
7.22521e-05
-1.97724e-05
9.22744e-05
-2.50671e-05
0.000111489
-3.03933e-05
0.000131192
-3.73573e-05
-4.51107e-05
4.80172e-06
-8.68975e-05
9.59002e-06
-8.7604e-05
1.43617e-05
-8.86567e-05
1.90988e-05
-9.02095e-05
2.37769e-05
-9.23111e-05
2.82578e-05
-9.49052e-05
3.23588e-05
-9.79916e-05
3.58922e-05
-0.000101714
3.89049e-05
-0.000106662
4.11809e-05
-0.000113056
4.56393e-05
-0.000123636
4.81482e-05
-0.000138047
3.84303e-05
-0.000121414
1.97581e-05
-8.94452e-05
9.88573e-06
-5.51229e-05
1.7055e-05
-3.98022e-05
3.28181e-05
-3.61071e-05
5.07345e-05
-3.73468e-05
6.94092e-05
-3.84472e-05
8.7019e-05
-4.26768e-05
0.00010438
-4.77577e-05
0.000121598
-5.4691e-05
-6.18486e-05
4.30117e-06
-9.12498e-05
8.58876e-06
-9.19511e-05
1.28628e-05
-9.30101e-05
1.71669e-05
-9.46343e-05
2.13722e-05
-9.6724e-05
2.53979e-05
-9.93255e-05
2.89032e-05
-0.000102281
3.13715e-05
-0.000105751
3.19428e-05
-0.000110215
3.04039e-05
-0.000116894
2.62879e-05
-0.000128406
1.62821e-05
-0.000137131
2.83656e-06
-0.00011045
-7.00504e-06
-7.85059e-05
-9.10943e-08
-6.01249e-05
1.50313e-05
-5.47551e-05
3.27619e-05
-5.38435e-05
4.94165e-05
-5.4023e-05
6.69953e-05
-5.61054e-05
8.21564e-05
-5.8207e-05
9.7943e-05
-6.52576e-05
0.000116229
-8.30386e-05
-0.000116031
4.05005e-06
-9.96124e-05
8.02664e-06
-0.000100547
1.1873e-05
-0.000102129
1.56524e-05
-0.000104764
1.94628e-05
-0.000108571
2.32188e-05
-0.000113824
2.65587e-05
-0.000121497
2.81663e-05
-0.00013066
2.6048e-05
-0.000140563
1.67447e-05
-0.000152025
-5.32456e-06
-0.000163717
-2.17181e-05
-0.000159053
-2.31253e-05
-0.000114783
-1.60364e-05
-8.68335e-05
-1.85821e-08
-7.79155e-05
1.72747e-05
-7.38977e-05
3.31781e-05
-7.18995e-05
4.84101e-05
-7.25339e-05
6.51794e-05
-7.94564e-05
7.94854e-05
-9.09978e-05
8.40711e-05
-0.000113237
8.05939e-05
-0.0001475
-0.000198169
3.54887e-06
-0.000137156
6.8526e-06
-0.000139104
9.79777e-06
-0.000142742
1.21779e-05
-0.000148723
1.41102e-05
-0.000158362
1.59639e-05
-0.000174901
1.73744e-05
-0.000188023
1.69635e-05
-0.000202599
1.21568e-05
-0.00022228
-1.13674e-05
-0.000247526
-4.73532e-05
-0.000228639
-4.36211e-05
-0.00019307
-2.98349e-05
-0.000158682
-1.28411e-05
-0.00013049
5.54981e-06
-0.000123949
2.02632e-05
-0.000116283
3.31433e-05
-0.000116012
4.32085e-05
-0.000122993
5.02367e-05
-0.000142843
5.13969e-05
-0.000157591
4.54599e-05
-0.000192669
2.58846e-05
-9.90396e-05
-2.13312e-05
1.82999e-06
-0.000222718
3.25261e-06
-0.000225367
4.53805e-06
-0.000235077
5.24915e-06
-0.000246955
4.88222e-06
-0.000255411
2.92323e-06
-0.000216967
-3.01204e-06
-0.000147614
-1.74526e-05
-0.000126027
-4.43416e-05
-9.96666e-05
-7.4998e-05
-5.98143e-05
-6.94739e-05
-9.66336e-05
-5.48626e-05
-0.000210247
-2.08581e-05
-0.000258931
3.80419e-07
-0.000220542
9.69324e-06
-0.000201858
1.69915e-05
-0.000190257
2.24799e-05
-0.000192718
2.16118e-05
-0.000204548
1.38073e-05
-0.00016973
-1.41622e-05
-8.32472e-05
-9.11322e-05
-1.98975e-05
-8.62746e-05
-4.15849e-05
-2.11782e-05
-1.20443e-05
-9.87347e-05
-2.50779e-05
-9.62914e-05
-4.10171e-05
-9.24994e-05
-5.97132e-05
-9.01651e-05
-7.88884e-05
-8.86993e-05
-9.2973e-05
-8.57887e-05
-9.02544e-05
-9.31885e-05
-7.25507e-05
-0.000102355
-4.85357e-05
-0.000102819
5.96704e-07
-9.40007e-05
5.77569e-05
-0.000116083
6.39762e-05
-0.000145093
4.06621e-05
-0.000136062
1.36615e-05
-0.000102282
-1.19775e-05
-8.96483e-05
-3.52799e-05
-8.43243e-05
-6.60651e-05
-7.51294e-05
-0.000101441
-5.9783e-05
-0.000114504
-5.67255e-05
-7.42734e-05
-6.93004e-05
-3.39352e-05
-5.01451e-05
-5.88457e-05
-1.66693e-05
1.80764e-05
-7.19903e-06
-7.9621e-05
-1.30653e-05
-8.15464e-05
-1.62503e-05
-8.35877e-05
-1.71815e-05
-8.59797e-05
-1.63145e-05
-8.83929e-05
-1.13595e-05
-9.06144e-05
-9.7322e-06
-9.48114e-05
-1.1925e-05
-0.00010016
-1.42939e-05
-0.00010045
-1.07806e-05
-9.75154e-05
-1.70462e-05
-0.000109804
-3.73361e-05
-0.000124765
-6.29212e-05
-0.000109304
-7.05638e-05
-8.48589e-05
-6.73791e-05
-7.34988e-05
-5.8309e-05
-7.43162e-05
-3.94932e-05
-7.90553e-05
-1.29677e-05
-8.07549e-05
-1.21274e-06
-6.82705e-05
-2.40017e-05
-4.65102e-05
-6.84457e-05
-5.70059e-06
-0.000100568
1.54527e-05
2.26168e-05
-2.01112e-06
-7.76089e-05
-3.59574e-06
-7.99605e-05
-5.90769e-06
-8.1274e-05
-8.86876e-06
-8.30166e-05
-1.21675e-05
-8.5092e-05
-1.50756e-05
-8.77042e-05
-1.87684e-05
-9.11165e-05
-2.43656e-05
-9.45611e-05
-2.88738e-05
-9.59403e-05
-3.00744e-05
-9.63132e-05
-3.70643e-05
-0.000102813
-5.46788e-05
-0.000107149
-6.7e-05
-9.69815e-05
-6.64119e-05
-8.54456e-05
-5.83433e-05
-8.15654e-05
-4.69199e-05
-8.57379e-05
-3.87767e-05
-4.20062e-05
-6.35216e-05
-9.67909e-05
-0.000108921
-0.000107363
-2.10054e-06
-4.08616e-06
-6.25791e-06
-8.66762e-06
-1.12891e-05
-1.43423e-05
-1.85414e-05
-2.41161e-05
-2.99696e-05
-3.574e-05
-4.43346e-05
-5.67751e-05
-6.47681e-05
-6.82234e-05
-6.98538e-05
)
;

boundaryField
{
    leftWall
    {
        type            fixedValue;
        value           uniform 0;
    }
    rightWall
    {
        type            fixedValue;
        value           nonuniform 0();
    }
    lowerWall
    {
        type            fixedValue;
        value           uniform 0;
    }
    atmosphere
    {
        type            calculated;
        value           nonuniform 0();
    }
    defaultFaces
    {
        type            empty;
        value           nonuniform 0();
    }
    procBoundary0to1
    {
        type            processor;
        value           nonuniform List<scalar> 
26
(
3.31349e-05
3.66576e-05
3.98218e-05
4.18495e-05
3.97171e-05
3.10161e-05
2.6859e-05
2.71889e-05
9.47829e-05
0.000143517
0.000154347
0.000159751
0.000150273
0.000133424
0.000150192
0.000140228
2.6779e-05
0.000149523
0.000137206
0.000129073
8.8308e-05
-7.37401e-05
-7.10961e-05
-9.81012e-05
-0.000105108
-0.000105048
)
;
    }
    procBoundary0to2
    {
        type            processor;
        value           nonuniform List<scalar> 
24
(
-8.71969e-05
-7.75233e-05
-4.67545e-05
-1.32401e-05
6.42938e-06
1.38952e-05
2.03009e-05
-7.55077e-05
-7.79739e-05
-7.91009e-05
-8.06053e-05
-8.24689e-05
-8.46495e-05
-8.69161e-05
-8.89851e-05
-9.00856e-05
-9.05416e-05
-9.42169e-05
-9.4708e-05
-8.89875e-05
-8.19893e-05
-7.99345e-05
-7.45174e-05
-8.10727e-05
)
;
    }
}


// ************************************************************************* //
