/*--------------------------------*- C++ -*----------------------------------*\
| =========                 |                                                 |
| \\      /  F ield         | OpenFOAM: The Open Source CFD Toolbox           |
|  \\    /   O peration     | Version:  2.4.0                                 |
|   \\  /    A nd           | Web:      www.OpenFOAM.org                      |
|    \\/     M anipulation  |                                                 |
\*---------------------------------------------------------------------------*/
FoamFile
{
    version     2.0;
    format      ascii;
    class       volScalarField;
    location    "0.2";
    object      rho;
}
// * * * * * * * * * * * * * * * * * * * * * * * * * * * * * * * * * * * * * //

dimensions      [1 -3 0 0 0 0 0];

internalField   nonuniform List<scalar> 
575
(
13529
13529
13529
13529
13529
13529
13529
13529
13529
13529
13529
13529
13529
13529
13529
13529
13529
13528.9
13528.9
13528.7
13526.9
13517.2
13529
13529
13529
13529
13529
13529
13529
13529
13529
13529
13529
13529
13529
13529
13529
13528.9
13528.9
13528.8
13528.8
13528.7
13526.9
13515.2
13529
13529
13529
13529
13529
13529
13529
13529
13529
13529
13529
13529
13529
13529
13528.9
13528.3
13525.8
13520.3
13519.8
13523.3
13524.8
13513.7
13529
13529
13529
13529
13529
13529
13529
13529
13529
13529
13529
13529
13529
13528.6
13522.5
13475.9
13288.7
12936
12680
12905.7
13318.9
13487.3
13529
13529
13529
13529
13529
13529
13529
13529
13529
13529
13529
13529
13528
13513
13318.2
12260.3
9862.68
7039.25
4826.9
4090.47
8099.74
12819.9
13529
13529
13529
13529
13529
13529
13529
13529
13529
13529
13528.8
13524.3
13472.5
13051
10859.9
6178.8
2358.46
1030.87
741.238
659.817
1905.41
10424.5
13529
13529
13529
13529
13529
13529
13529
13529
13529
13527.5
13494.5
13271.2
12269.4
9257.83
4031.1
1449.32
938.205
830.018
697.562
572.482
583.644
6550.17
13529
13529
13529
13529
13529
13529
13529
13529
13524.8
13369.1
12626
10786.6
7262.6
3072.84
1316.61
1010.53
923.282
816.101
647.21
532.833
517.642
2770.26
13445
13433.1
13405
13354.4
13274.2
13097.8
12807
12200.8
11236.1
9598.78
6937.87
4282.97
2146.06
1179.02
1047.16
983.3
924.517
786.26
601.303
512.512
506.485
1463.38
11011.9
10838.2
10481.8
9935.75
9242.57
8135.94
6785.13
5132.42
3528.03
2176.52
1342.88
1062.95
1006.63
1001.92
996.894
981.548
922.848
769.652
584.13
508.108
501.099
843.103
3337.38
3157.94
2840.56
2429.81
2039.18
1615.93
1302.78
1117.28
1036.04
1008.37
1001.59
1000.41
1000.23
999.662
996.19
977.954
911.219
756.833
578.733
507.791
500.554
599.54
1027.36
1023.58
1017.34
1010.72
1006.06
1002.89
1001.28
1000.58
1000.27
1000.13
1000.04
1000.02
999.915
998.794
990.743
956.524
862.762
701.346
555.855
505.332
500.243
516.857
1000.01
1000
1000
1000
1000
1000
1000
1000
1000
1000
1000
999.983
999.743
996.884
978.776
913.173
774.204
610.835
521.878
501.557
500.031
500.732
1000
1000
1000
1000
1000
1000
1000
1000
1000
1000
1000
999.97
999.434
992.816
955.035
841.82
666.406
539.752
503.907
500.122
500.001
500.002
1000
1000
1000
1000
1000
1000
1000
1000
1000
1000
1000
999.953
998.577
981.541
901.324
730.172
568.409
508.02
500.291
500.002
500
500
1000
1000
1000
1000
1000
1000
1000
1000
1000
1000
1000
999.917
995.164
947.539
795.45
603.871
514.224
500.619
500.007
500
500
500
1000
1000
1000
1000
1000
1000
1000
1000
1000
1000
999.998
999.204
974.626
852.944
651.384
526.773
501.51
500.024
500
500
500
500
500
1000
1000
1000
1000
1000
1000
1000
1000
999.999
999.992
999.784
982.236
875.746
680.72
538.984
502.63
500.064
500
500
500
500
499.997
499.917
999.997
999.996
999.995
999.99
999.979
999.949
999.861
999.601
998.826
996.474
988.027
886.146
679.001
545.251
504.295
500.141
500.002
499.999
499.998
499.986
499.849
498.017
482.71
997.845
997.537
996.818
995.372
992.474
986.626
975.215
953.287
913.385
844.152
746.604
623.273
540.918
505.771
500
499.788
499.745
499.505
498.514
493.884
474.682
393.715
200.985
873.129
863.803
843.845
810.068
756.814
678.55
573.173
442.149
301.863
172.727
105.225
208.622
410.913
457.386
466.558
471.612
467.618
452.237
412.341
316.555
159.573
23.8851
1.29861
215.8
200.801
172.465
134.242
90.8364
50.2411
21.3168
6.88545
2.14554
1.29367
1.94722
11.0079
67.9026
142.767
168.815
182.823
164.664
116.176
50.2553
7.58617
1.11436
1.00115
1.00017
1.33763
1.26701
1.14973
1.06269
1.01764
1.00363
1.001
1.00052
1.00175
1.00334
1.00363
1.00768
1.05264
1.37887
1.77596
1.88901
1.45612
1.07941
1.00516
1.00058
1.00035
1.0004
1.00014
1.00018
1.00009
1.00004
1.00002
1.00002
1.00004
1.00013
1.00016
1.00022
1.00014
1.00003
1.00002
1.00005
1.00018
1.00034
1.00029
1.00028
1.00031
1.00053
1.00035
1.00031
1.00015
1.00013
1.00001
1
1
1
1
1.00001
1.00002
1.00002
1.00001
1
1
1
1.00002
1.00008
1.00011
1.00026
1.00026
1.00031
1.00053
1.00032
1.00016
1.00017
1.00006
1
0.999999
0.999998
0.999998
0.999998
0.999999
1
1
0.999999
0.999999
1
1
1
1.00003
1.00009
1.00012
)
;

boundaryField
{
    leftWall
    {
        type            calculated;
        value           nonuniform List<scalar> 
26
(
13529
13529
13529
13529
13529
13529
13529
13529
13445
11011.9
3337.38
1027.36
1000.01
1000
1000
1000
1000
1000
999.997
997.845
873.129
215.8
1.33763
1.00018
1.00001
1
)
;
    }
    rightWall
    {
        type            calculated;
        value           nonuniform 0();
    }
    lowerWall
    {
        type            calculated;
        value           nonuniform List<scalar> 
22
(
13529
13529
13529
13529
13529
13529
13529
13529
13529
13529
13529
13529
13529
13529
13529
13529
13529
13528.9
13528.9
13528.7
13526.9
13517.2
)
;
    }
    atmosphere
    {
        type            calculated;
        value           nonuniform 0();
    }
    defaultFaces
    {
        type            empty;
    }
    procBoundary0to1
    {
        type            processor;
        value           nonuniform List<scalar> 
26
(
13509.1
13501.4
13495.8
13491.1
13476.9
13402.2
13117.6
12510
9018.08
4539.05
1715.13
678.34
508.001
500.034
500
500
500
500
499.479
445.6
48.2134
1.00102
1.00015
1.00007
1.00002
1.00003
)
;
    }
    procBoundary0to2
    {
        type            processor;
        value           nonuniform List<scalar> 
24
(
1.0003
1.00037
1.00049
1.00017
1.0001
1.00006
1.00006
0.999998
0.999998
0.999998
0.999998
0.999998
0.999999
0.999999
0.999999
0.999999
0.999999
1
1
1
1.00002
1.00005
1.0003
1.00018
)
;
    }
}


// ************************************************************************* //
