/*--------------------------------*- C++ -*----------------------------------*\
| =========                 |                                                 |
| \\      /  F ield         | OpenFOAM: The Open Source CFD Toolbox           |
|  \\    /   O peration     | Version:  2.4.0                                 |
|   \\  /    A nd           | Web:      www.OpenFOAM.org                      |
|    \\/     M anipulation  |                                                 |
\*---------------------------------------------------------------------------*/
FoamFile
{
    version     2.0;
    format      ascii;
    class       volVectorField;
    location    "0.2";
    object      U;
}
// * * * * * * * * * * * * * * * * * * * * * * * * * * * * * * * * * * * * * //

dimensions      [0 1 -1 0 0 0 0];

internalField   nonuniform List<vector> 
575
(
(0.0178451 -0.00843094 0)
(0.0536617 -0.00851956 0)
(0.0903344 -0.00868676 0)
(0.126779 -0.00896546 0)
(0.167865 -0.00923586 0)
(0.202284 -0.00974941 0)
(0.254145 -0.0099188 0)
(0.286005 -0.0123428 0)
(0.348863 -0.00916644 0)
(0.383496 -0.0143504 0)
(0.44286 -0.0165423 0)
(0.527875 -0.0143967 0)
(0.588766 -0.0128649 0)
(0.627159 -0.013222 0)
(0.688095 -0.0147812 0)
(0.753037 -0.0196765 0)
(0.848564 -0.015541 0)
(0.899376 -0.018637 0)
(0.95267 -0.00229839 0)
(0.929938 0.0166492 0)
(0.845944 0.0511859 0)
(0.570385 0.119755 0)
(0.017812 -0.0252861 0)
(0.0535717 -0.025561 0)
(0.0901783 -0.0260628 0)
(0.126592 -0.0269232 0)
(0.167628 -0.0275719 0)
(0.201769 -0.0298643 0)
(0.254041 -0.0280874 0)
(0.286481 -0.0396941 0)
(0.346342 -0.0258471 0)
(0.383943 -0.040616 0)
(0.445643 -0.051718 0)
(0.528913 -0.0463143 0)
(0.582012 -0.0384203 0)
(0.619762 -0.0395591 0)
(0.686958 -0.0452023 0)
(0.770591 -0.0533325 0)
(0.868003 -0.0535113 0)
(0.935914 -0.0422353 0)
(0.983642 -0.00457527 0)
(0.960774 0.0289433 0)
(0.875833 0.113269 0)
(0.6031 0.198496 0)
(0.0177281 -0.0420805 0)
(0.0533279 -0.0425383 0)
(0.089754 -0.0433803 0)
(0.126095 -0.0448125 0)
(0.166836 -0.0459256 0)
(0.20084 -0.0492683 0)
(0.253203 -0.0488432 0)
(0.284812 -0.0612936 0)
(0.344049 -0.0466316 0)
(0.384289 -0.0696505 0)
(0.446668 -0.0853763 0)
(0.525136 -0.0718936 0)
(0.573887 -0.0599746 0)
(0.618957 -0.0684212 0)
(0.696172 -0.0887674 0)
(0.788511 -0.100978 0)
(0.889736 -0.0956986 0)
(0.954656 -0.0688625 0)
(1.00236 -0.00974053 0)
(0.982893 0.0887928 0)
(0.929276 0.267681 0)
(0.64915 0.411209 0)
(0.0176027 -0.0587821 0)
(0.052963 -0.059424 0)
(0.0891194 -0.0606218 0)
(0.125385 -0.0626065 0)
(0.165519 -0.0641347 0)
(0.199947 -0.0689355 0)
(0.251095 -0.0681995 0)
(0.282695 -0.0842515 0)
(0.341268 -0.0679187 0)
(0.38395 -0.0951746 0)
(0.444347 -0.118451 0)
(0.514924 -0.101771 0)
(0.565446 -0.087295 0)
(0.630314 -0.103355 0)
(0.715977 -0.126299 0)
(0.808801 -0.143243 0)
(0.897459 -0.139572 0)
(0.954396 -0.119391 0)
(1.01668 -0.0533773 0)
(0.977913 0.0248725 0)
(0.93627 0.238209 0)
(0.668932 0.508663 0)
(0.0174331 -0.0753712 0)
(0.0524642 -0.0761975 0)
(0.0882691 -0.0777755 0)
(0.124399 -0.0802711 0)
(0.163828 -0.0823435 0)
(0.198559 -0.0881457 0)
(0.24862 -0.0884952 0)
(0.278949 -0.104879 0)
(0.337746 -0.0903874 0)
(0.383377 -0.124477 0)
(0.437818 -0.145084 0)
(0.500323 -0.126203 0)
(0.563153 -0.120932 0)
(0.653702 -0.146339 0)
(0.74196 -0.173043 0)
(0.814901 -0.198431 0)
(0.865926 -0.187436 0)
(0.909277 -0.135613 0)
(0.892924 -0.0269231 0)
(0.779908 0.213385 0)
(0.789924 0.373856 0)
(0.587386 0.658007 0)
(0.0172127 -0.0916941 0)
(0.0518072 -0.0927113 0)
(0.0871738 -0.0947055 0)
(0.123074 -0.0977042 0)
(0.161684 -0.100331 0)
(0.196705 -0.10741 0)
(0.245455 -0.107894 0)
(0.27444 -0.125064 0)
(0.336395 -0.115408 0)
(0.374736 -0.145358 0)
(0.433632 -0.168017 0)
(0.484141 -0.157034 0)
(0.571262 -0.170253 0)
(0.681593 -0.191947 0)
(0.75221 -0.211716 0)
(0.79764 -0.179691 0)
(0.829413 -0.0851286 0)
(0.918545 0.00228908 0)
(0.906722 0.066043 0)
(0.798062 0.188489 0)
(0.441853 0.667045 0)
(0.374148 0.803798 0)
(0.0169314 -0.107538 0)
(0.0509598 -0.108746 0)
(0.0858052 -0.111159 0)
(0.121327 -0.114567 0)
(0.159098 -0.117625 0)
(0.194409 -0.125617 0)
(0.241759 -0.125824 0)
(0.270456 -0.143003 0)
(0.333107 -0.134006 0)
(0.367648 -0.16831 0)
(0.429894 -0.185231 0)
(0.476793 -0.203874 0)
(0.58671 -0.230888 0)
(0.687867 -0.2323 0)
(0.720622 -0.156747 0)
(0.779773 -0.128856 0)
(0.896409 -0.253779 0)
(0.98359 -0.223582 0)
(1.03647 -0.0531377 0)
(0.913149 0.174104 0)
(0.580288 0.564401 0)
(0.1936 0.852321 0)
(0.0166225 -0.123192 0)
(0.0500279 -0.124549 0)
(0.0843834 -0.127319 0)
(0.119466 -0.131064 0)
(0.156672 -0.134549 0)
(0.192434 -0.144146 0)
(0.238698 -0.144587 0)
(0.268098 -0.164079 0)
(0.330467 -0.159015 0)
(0.364285 -0.196323 0)
(0.419239 -0.226446 0)
(0.48323 -0.254676 0)
(0.594531 -0.257611 0)
(0.634513 -0.177547 0)
(0.656836 -0.198875 0)
(0.771282 -0.319918 0)
(0.921879 -0.302259 0)
(0.979669 -0.170142 0)
(1.00908 0.0612424 0)
(0.78515 0.319931 0)
(0.784012 0.706502 0)
(0.183317 1.02641 0)
(0.0163013 -0.149181 0)
(0.049023 -0.150951 0)
(0.082963 -0.15479 0)
(0.11731 -0.160234 0)
(0.154167 -0.167077 0)
(0.1911 -0.184607 0)
(0.235074 -0.195012 0)
(0.27682 -0.225046 0)
(0.322858 -0.238374 0)
(0.373339 -0.251252 0)
(0.400525 -0.270876 0)
(0.482526 -0.256946 0)
(0.48046 -0.163301 0)
(0.520175 -0.202094 0)
(0.639012 -0.343123 0)
(0.771523 -0.381249 0)
(0.861417 -0.326073 0)
(0.903365 -0.159046 0)
(0.82789 0.0856902 0)
(0.606068 0.396002 0)
(0.749926 0.724593 0)
(0.836759 1.18746 0)
(0.0166832 -0.202492 0)
(0.0497432 -0.205693 0)
(0.0836015 -0.211067 0)
(0.115024 -0.216208 0)
(0.148349 -0.221024 0)
(0.180852 -0.229803 0)
(0.212246 -0.228313 0)
(0.259085 -0.225462 0)
(0.277319 -0.204488 0)
(0.335655 -0.173183 0)
(0.380011 -0.177398 0)
(0.440364 -0.215402 0)
(0.49576 -0.336209 0)
(0.627669 -0.418419 0)
(0.730647 -0.450222 0)
(0.803736 -0.437785 0)
(0.835689 -0.361003 0)
(0.839299 -0.155854 0)
(0.730877 0.207373 0)
(0.632076 0.403546 0)
(0.624027 0.69246 0)
(0.912012 1.00565 0)
(0.0132947 -0.182686 0)
(0.039926 -0.180839 0)
(0.0684892 -0.175467 0)
(0.0962773 -0.165173 0)
(0.1322 -0.154628 0)
(0.164738 -0.144028 0)
(0.202551 -0.14533 0)
(0.250995 -0.177761 0)
(0.31214 -0.225697 0)
(0.381543 -0.33078 0)
(0.471028 -0.401071 0)
(0.532433 -0.429957 0)
(0.605249 -0.455852 0)
(0.679227 -0.476737 0)
(0.746024 -0.489292 0)
(0.780061 -0.461184 0)
(0.799128 -0.35699 0)
(0.770836 -0.0847373 0)
(0.676029 0.27737 0)
(0.641926 0.424534 0)
(0.652584 0.633372 0)
(0.824586 0.722364 0)
(0.0188216 -0.190753 0)
(0.0556712 -0.201028 0)
(0.095123 -0.21414 0)
(0.136291 -0.244688 0)
(0.181681 -0.271766 0)
(0.232144 -0.317514 0)
(0.284743 -0.352014 0)
(0.343516 -0.384344 0)
(0.398917 -0.392336 0)
(0.451055 -0.420693 0)
(0.502752 -0.424085 0)
(0.541682 -0.432294 0)
(0.595764 -0.482107 0)
(0.648934 -0.529444 0)
(0.698917 -0.528179 0)
(0.732718 -0.476615 0)
(0.736257 -0.326507 0)
(0.658469 -0.0285375 0)
(0.604929 0.294429 0)
(0.620954 0.403685 0)
(0.693145 0.52079 0)
(0.823715 0.513121 0)
(0.0222055 -0.322756 0)
(0.0657137 -0.324699 0)
(0.110163 -0.326415 0)
(0.152353 -0.333117 0)
(0.196572 -0.338362 0)
(0.242281 -0.347006 0)
(0.284628 -0.357654 0)
(0.331047 -0.374658 0)
(0.364302 -0.390389 0)
(0.406455 -0.437043 0)
(0.449901 -0.448803 0)
(0.480317 -0.492118 0)
(0.535395 -0.552894 0)
(0.594449 -0.582247 0)
(0.642349 -0.56227 0)
(0.661796 -0.480228 0)
(0.628189 -0.252101 0)
(0.523882 0.0453589 0)
(0.515113 0.284856 0)
(0.567661 0.339604 0)
(0.683206 0.424797 0)
(0.801043 0.367759 0)
(0.0194696 -0.30658 0)
(0.0587535 -0.311303 0)
(0.0976471 -0.31883 0)
(0.137662 -0.330574 0)
(0.174703 -0.344969 0)
(0.212764 -0.363167 0)
(0.245486 -0.384896 0)
(0.282418 -0.411706 0)
(0.316568 -0.433665 0)
(0.361227 -0.484961 0)
(0.404626 -0.499161 0)
(0.455142 -0.549395 0)
(0.525121 -0.606368 0)
(0.578699 -0.61734 0)
(0.604104 -0.575492 0)
(0.590334 -0.448893 0)
(0.493726 -0.161206 0)
(0.405142 0.0808195 0)
(0.446002 0.226073 0)
(0.514232 0.257904 0)
(0.655368 0.279373 0)
(0.785952 0.208911 0)
(0.0181686 -0.373915 0)
(0.0542073 -0.377817 0)
(0.0894965 -0.384247 0)
(0.124683 -0.393328 0)
(0.159857 -0.406417 0)
(0.193946 -0.422163 0)
(0.229592 -0.442433 0)
(0.268366 -0.467377 0)
(0.303636 -0.492842 0)
(0.348314 -0.531628 0)
(0.389994 -0.546552 0)
(0.425099 -0.611864 0)
(0.484933 -0.660489 0)
(0.519437 -0.648593 0)
(0.533041 -0.571854 0)
(0.463707 -0.364501 0)
(0.343527 -0.077731 0)
(0.321 0.0733677 0)
(0.391551 0.147646 0)
(0.480821 0.150058 0)
(0.625495 0.124921 0)
(0.746457 0.0757497 0)
(0.0157352 -0.39606 0)
(0.0472427 -0.399311 0)
(0.0794683 -0.405277 0)
(0.110902 -0.413626 0)
(0.143126 -0.426285 0)
(0.175187 -0.442039 0)
(0.2064 -0.462041 0)
(0.237705 -0.48606 0)
(0.264374 -0.51387 0)
(0.300014 -0.557172 0)
(0.329633 -0.583525 0)
(0.369644 -0.664864 0)
(0.427665 -0.684528 0)
(0.439344 -0.652941 0)
(0.41101 -0.514932 0)
(0.276991 -0.234382 0)
(0.227788 -0.0374179 0)
(0.262301 0.0246792 0)
(0.354881 0.0532227 0)
(0.459768 0.0312877 0)
(0.592859 -0.00428695 0)
(0.690482 -0.0386488 0)
(0.0146012 -0.429835 0)
(0.0439888 -0.434329 0)
(0.0727359 -0.440166 0)
(0.102067 -0.449805 0)
(0.129773 -0.461207 0)
(0.157275 -0.477323 0)
(0.18332 -0.496394 0)
(0.209247 -0.519674 0)
(0.235253 -0.550504 0)
(0.261811 -0.588689 0)
(0.289351 -0.624226 0)
(0.332908 -0.716062 0)
(0.365906 -0.713004 0)
(0.356654 -0.634167 0)
(0.244783 -0.40378 0)
(0.139471 -0.171412 0)
(0.164043 -0.0749467 0)
(0.236542 -0.0576397 0)
(0.335426 -0.0539868 0)
(0.444747 -0.0840342 0)
(0.555168 -0.114859 0)
(0.64351 -0.152105 0)
(0.778909 -0.198584 0)
(0.0129495 -0.457409 0)
(0.0386007 -0.460889 0)
(0.0644829 -0.46667 0)
(0.0897685 -0.474484 0)
(0.115516 -0.486781 0)
(0.139806 -0.500746 0)
(0.16359 -0.518572 0)
(0.183744 -0.539959 0)
(0.202763 -0.56618 0)
(0.216714 -0.60126 0)
(0.235206 -0.653175 0)
(0.251271 -0.747983 0)
(0.255521 -0.712164 0)
(0.174405 -0.542119 0)
(0.0486323 -0.281917 0)
(0.0631623 -0.173919 0)
(0.1269 -0.144757 0)
(0.229059 -0.153104 0)
(0.320901 -0.159049 0)
(0.427459 -0.185558 0)
(0.514539 -0.211176 0)
(0.610704 -0.246624 0)
(0.712241 -0.271602 0)
(0.0115544 -0.476263 0)
(0.0346535 -0.479968 0)
(0.0574774 -0.484999 0)
(0.0808403 -0.492819 0)
(0.103667 -0.502006 0)
(0.125997 -0.514587 0)
(0.146503 -0.528505 0)
(0.16216 -0.545197 0)
(0.175962 -0.568844 0)
(0.165659 -0.601037 0)
(0.172159 -0.662818 0)
(0.103169 -0.745901 0)
(0.0692396 -0.635665 0)
(-0.0425096 -0.414102 0)
(-0.0330307 -0.276253 0)
(0.0319686 -0.246113 0)
(0.130079 -0.241815 0)
(0.225813 -0.246209 0)
(0.308619 -0.252493 0)
(0.413662 -0.267035 0)
(0.47723 -0.287872 0)
(0.592001 -0.338497 0)
(0.644743 -0.42664 0)
(0.0109512 -0.497857 0)
(0.032477 -0.501764 0)
(0.0537581 -0.508279 0)
(0.0740988 -0.518666 0)
(0.0949588 -0.533781 0)
(0.115933 -0.553379 0)
(0.136238 -0.578185 0)
(0.149939 -0.605861 0)
(0.152569 -0.627976 0)
(0.122718 -0.640806 0)
(0.0639983 -0.656486 0)
(-0.113121 -0.700929 0)
(-0.130706 -0.557891 0)
(-0.121168 -0.399848 0)
(-0.0459652 -0.347582 0)
(0.0458505 -0.332042 0)
(0.137347 -0.3252 0)
(0.224197 -0.320698 0)
(0.302529 -0.341066 0)
(0.402522 -0.371602 0)
(0.439032 -0.439018 0)
(0.501928 -0.525656 0)
(0.454111 -0.60601 0)
(0.00967915 -0.571316 0)
(0.0278878 -0.573993 0)
(0.0447826 -0.576488 0)
(0.059303 -0.579306 0)
(0.0734008 -0.57947 0)
(0.0968126 -0.580534 0)
(0.126892 -0.602992 0)
(0.143181 -0.626796 0)
(0.139725 -0.61651 0)
(0.0991489 -0.520793 0)
(-0.258398 -0.278414 0)
(-0.372176 -0.503854 0)
(-0.20305 -0.609193 0)
(-0.128701 -0.528268 0)
(-0.00943546 -0.507408 0)
(0.0688919 -0.4811 0)
(0.144275 -0.466925 0)
(0.209688 -0.468776 0)
(0.269626 -0.489273 0)
(0.317501 -0.52122 0)
(0.316981 -0.495288 0)
(0.23223 0.145049 0)
(-0.136061 0.37482 0)
(0.00831748 -0.545426 0)
(0.0226971 -0.536461 0)
(0.0383675 -0.511515 0)
(0.055378 -0.459177 0)
(0.0688813 -0.353563 0)
(0.0535627 -0.158269 0)
(-0.0219558 0.121998 0)
(-0.131971 0.3187 0)
(-0.256801 0.339339 0)
(-0.337403 0.451367 0)
(-0.574233 0.321384 0)
(-0.281402 -0.262885 0)
(-0.204966 -0.599614 0)
(-0.0449832 -0.630338 0)
(0.0263985 -0.606549 0)
(0.0707441 -0.55981 0)
(0.118952 -0.531142 0)
(0.145841 -0.472706 0)
(0.101738 -0.267739 0)
(-0.0424642 0.394229 0)
(-0.377012 0.511533 0)
(-0.576675 -0.294501 0)
(-0.438781 -0.397223 0)
(-0.039431 0.135991 0)
(-0.118091 0.11588 0)
(-0.199325 0.0815679 0)
(-0.289613 0.00230488 0)
(-0.38237 -0.14446 0)
(-0.466849 -0.378086 0)
(-0.49735 -0.651329 0)
(-0.441907 -0.859541 0)
(-0.348953 -0.910407 0)
(-0.153735 -0.814932 0)
(0.161492 -0.910156 0)
(0.441017 -0.895152 0)
(0.291501 -0.522265 0)
(0.183567 -0.0925083 0)
(-0.0211641 0.105696 0)
(-0.184883 0.158499 0)
(-0.343921 0.199188 0)
(-0.501469 0.188408 0)
(-0.620353 -0.0829869 0)
(-0.524394 -0.543951 0)
(-0.264078 -0.58102 0)
(-0.153162 -0.271793 0)
(-0.446309 0.110358 0)
(-0.0203335 -0.833382 0)
(-0.0569965 -0.834088 0)
(-0.0815683 -0.82701 0)
(-0.0914593 -0.80736 0)
(-0.0912133 -0.771491 0)
(-0.0748055 -0.712081 0)
(-0.055237 -0.621979 0)
(-0.0547995 -0.524656 0)
(-0.0777242 -0.44854 0)
(-0.0742898 -0.39229 0)
(-0.0324688 -0.503708 0)
(-0.153312 -0.795836 0)
(-0.26926 -0.806607 0)
(-0.363034 -0.708381 0)
(-0.378358 -0.661548 0)
(-0.347455 -0.662817 0)
(-0.275406 -0.683671 0)
(-0.145551 -0.676011 0)
(-0.00427116 -0.586055 0)
(-0.0133567 -0.36456 0)
(-0.220538 -0.0590034 0)
(-0.490445 0.11044 0)
(-0.575476 0.112687 0)
(-0.00578605 -0.233231 0)
(-0.014979 -0.24716 0)
(-0.0239903 -0.261623 0)
(-0.0392269 -0.283429 0)
(-0.0552884 -0.311752 0)
(-0.0718868 -0.349227 0)
(-0.0895493 -0.400494 0)
(-0.114598 -0.453663 0)
(-0.146279 -0.494872 0)
(-0.153789 -0.524866 0)
(-0.159154 -0.57342 0)
(-0.258036 -0.599076 0)
(-0.340757 -0.484974 0)
(-0.366087 -0.364978 0)
(-0.337287 -0.303248 0)
(-0.28272 -0.316896 0)
(-0.224571 -0.336428 0)
(-0.202794 -0.328156 0)
(-0.254011 -0.217551 0)
(-0.42328 -0.077658 0)
(-0.579561 0.0215932 0)
(-0.593448 0.0691007 0)
(-0.572127 0.119629 0)
(-0.00569314 -0.445012 0)
(-0.0166974 -0.459348 0)
(-0.0267124 -0.467955 0)
(-0.0395155 -0.478364 0)
(-0.0524752 -0.489659 0)
(-0.0676595 -0.50041 0)
(-0.0867099 -0.510834 0)
(-0.113527 -0.520135 0)
(-0.14557 -0.52205 0)
(-0.168582 -0.518816 0)
(-0.211537 -0.533976 0)
(-0.278146 -0.523766 0)
(-0.336948 -0.48562 0)
(-0.356714 -0.445044 0)
(-0.365863 -0.445504 0)
(-0.379926 -0.468296 0)
)
;

boundaryField
{
    leftWall
    {
        type            calculated;
        value           uniform (0 0 0);
    }
    rightWall
    {
        type            calculated;
        value           nonuniform 0();
    }
    lowerWall
    {
        type            calculated;
        value           uniform (0 0 0);
    }
    atmosphere
    {
        type            calculated;
        value           nonuniform 0();
    }
    defaultFaces
    {
        type            empty;
    }
    procBoundary0to1
    {
        type            processor;
        value           nonuniform List<vector> 
26
(
(0.255689 0.031472 0)
(0.304342 0.301129 0)
(0.339196 0.484607 0)
(0.371954 0.711539 0)
(0.398124 0.863891 0)
(0.358515 1.11235 0)
(0.376018 1.27702 0)
(0.367771 1.40759 0)
(0.63429 1.48929 0)
(0.977893 1.25355 0)
(1.20144 0.970531 0)
(1.10438 0.660288 0)
(1.03274 0.398231 0)
(0.963047 0.195194 0)
(0.878439 0.0552074 0)
(0.823501 -0.0842757 0)
(0.823501 -0.0842757 0)
(0.822525 -0.248178 0)
(0.760198 -0.339256 0)
(0.710945 -0.553253 0)
(0.525946 -0.0814626 0)
(-0.577138 -0.0303246 0)
(-0.382122 0.0491082 0)
(-0.541758 0.136048 0)
(-0.567496 0.1521 0)
(-0.556976 0.141678 0)
)
;
    }
    procBoundary0to2
    {
        type            processor;
        value           nonuniform List<vector> 
24
(
(-0.413548 -0.472428 0)
(-0.490556 -0.402871 0)
(-0.574865 -0.226902 0)
(-0.621859 -0.0492242 0)
(-0.626877 0.0361586 0)
(-0.605194 0.0705524 0)
(-0.565732 0.0970125 0)
(-0.00340556 -0.437621 0)
(-0.0111249 -0.448649 0)
(-0.0201013 -0.450394 0)
(-0.0321613 -0.45298 0)
(-0.0470365 -0.457238 0)
(-0.0661825 -0.463173 0)
(-0.0903659 -0.469409 0)
(-0.120892 -0.474317 0)
(-0.154875 -0.475058 0)
(-0.190039 -0.473229 0)
(-0.239011 -0.477088 0)
(-0.291328 -0.483559 0)
(-0.338636 -0.473842 0)
(-0.364126 -0.451968 0)
(-0.391575 -0.444118 0)
(-0.413548 -0.472428 0)
(-0.430765 -0.439087 0)
)
;
    }
}


// ************************************************************************* //
