/*--------------------------------*- C++ -*----------------------------------*\
| =========                 |                                                 |
| \\      /  F ield         | OpenFOAM: The Open Source CFD Toolbox           |
|  \\    /   O peration     | Version:  2.4.0                                 |
|   \\  /    A nd           | Web:      www.OpenFOAM.org                      |
|    \\/     M anipulation  |                                                 |
\*---------------------------------------------------------------------------*/
FoamFile
{
    version     2.0;
    format      ascii;
    class       volVectorField;
    location    "0.2";
    object      U.air;
}
// * * * * * * * * * * * * * * * * * * * * * * * * * * * * * * * * * * * * * //

dimensions      [0 1 -1 0 0 0 0];

internalField   nonuniform List<vector> 
575
(
(0.0178452 -0.00843079 0)
(0.053662 -0.00851942 0)
(0.0903348 -0.00868662 0)
(0.126779 -0.00896534 0)
(0.167866 -0.00923574 0)
(0.202285 -0.00974932 0)
(0.254146 -0.00991872 0)
(0.286006 -0.0123428 0)
(0.348863 -0.00916639 0)
(0.383497 -0.0143503 0)
(0.44286 -0.0165422 0)
(0.527875 -0.0143967 0)
(0.588766 -0.0128649 0)
(0.627159 -0.013222 0)
(0.688095 -0.0147811 0)
(0.753037 -0.0196764 0)
(0.848565 -0.0155408 0)
(0.899376 -0.0186366 0)
(0.952669 -0.00229786 0)
(0.929937 0.01665 0)
(0.845939 0.0511889 0)
(0.570165 0.119881 0)
(0.0178121 -0.0252856 0)
(0.053572 -0.0255605 0)
(0.0901787 -0.0260623 0)
(0.126593 -0.0269228 0)
(0.167628 -0.0275715 0)
(0.20177 -0.029864 0)
(0.254041 -0.0280871 0)
(0.286481 -0.0396938 0)
(0.346342 -0.0258469 0)
(0.383943 -0.0406158 0)
(0.445643 -0.0517178 0)
(0.528914 -0.0463141 0)
(0.582013 -0.0384201 0)
(0.619762 -0.0395588 0)
(0.686959 -0.0452019 0)
(0.770592 -0.0533321 0)
(0.868004 -0.0535108 0)
(0.935914 -0.0422345 0)
(0.983641 -0.0045738 0)
(0.960772 0.0289459 0)
(0.875828 0.113277 0)
(0.602821 0.198733 0)
(0.0177282 -0.0420797 0)
(0.0533282 -0.0425375 0)
(0.0897544 -0.0433796 0)
(0.126095 -0.0448118 0)
(0.166836 -0.045925 0)
(0.200841 -0.0492677 0)
(0.253204 -0.0488427 0)
(0.284813 -0.0612932 0)
(0.344049 -0.0466312 0)
(0.384289 -0.0696501 0)
(0.446668 -0.085376 0)
(0.525137 -0.0718933 0)
(0.573887 -0.0599742 0)
(0.618958 -0.0684206 0)
(0.696173 -0.0887667 0)
(0.788512 -0.100978 0)
(0.889736 -0.0956947 0)
(0.954656 -0.0688052 0)
(1.00235 -0.00964778 0)
(0.982876 0.0888433 0)
(0.929254 0.267714 0)
(0.64883 0.411568 0)
(0.0176028 -0.058781 0)
(0.0529633 -0.059423 0)
(0.0891197 -0.0606209 0)
(0.125385 -0.0626056 0)
(0.165519 -0.0641339 0)
(0.199948 -0.0689348 0)
(0.251096 -0.0681989 0)
(0.282695 -0.084251 0)
(0.341269 -0.0679182 0)
(0.383951 -0.0951742 0)
(0.444347 -0.118451 0)
(0.514925 -0.10177 0)
(0.565446 -0.0872946 0)
(0.630314 -0.103354 0)
(0.715986 -0.12627 0)
(0.809004 -0.142406 0)
(0.897629 -0.138732 0)
(0.954232 -0.121007 0)
(1.01683 -0.058565 0)
(0.978783 0.0213846 0)
(0.936108 0.238603 0)
(0.668443 0.509395 0)
(0.0174332 -0.0753701 0)
(0.0524644 -0.0761964 0)
(0.0882694 -0.0777745 0)
(0.124399 -0.0802702 0)
(0.163828 -0.0823426 0)
(0.19856 -0.0881449 0)
(0.24862 -0.0884946 0)
(0.27895 -0.104878 0)
(0.337746 -0.090387 0)
(0.383378 -0.124477 0)
(0.437818 -0.145084 0)
(0.500323 -0.126202 0)
(0.563153 -0.120931 0)
(0.653813 -0.145966 0)
(0.74236 -0.171651 0)
(0.813381 -0.203928 0)
(0.857358 -0.221356 0)
(0.893953 -0.220711 0)
(0.885781 -0.179803 0)
(0.831478 -0.0251522 0)
(0.838444 0.264514 0)
(0.590886 0.652955 0)
(0.0172127 -0.0916931 0)
(0.0518074 -0.0927103 0)
(0.0871741 -0.0947045 0)
(0.123074 -0.0977034 0)
(0.161684 -0.10033 0)
(0.196706 -0.107409 0)
(0.245456 -0.107894 0)
(0.27444 -0.125063 0)
(0.336395 -0.115408 0)
(0.374737 -0.145358 0)
(0.433632 -0.168016 0)
(0.484156 -0.156981 0)
(0.571591 -0.169143 0)
(0.681883 -0.191061 0)
(0.746279 -0.229702 0)
(0.768291 -0.276162 0)
(0.73883 -0.319189 0)
(0.842606 -0.188262 0)
(0.888019 0.0066894 0)
(0.79897 0.0538708 0)
(0.704726 0.332939 0)
(0.403984 0.763083 0)
(0.0169315 -0.107537 0)
(0.0509599 -0.108745 0)
(0.0858054 -0.111158 0)
(0.121327 -0.114566 0)
(0.159098 -0.117624 0)
(0.194409 -0.125617 0)
(0.24176 -0.125823 0)
(0.270456 -0.143002 0)
(0.333108 -0.134006 0)
(0.36765 -0.168304 0)
(0.430115 -0.184382 0)
(0.477244 -0.202297 0)
(0.585363 -0.234712 0)
(0.675695 -0.268938 0)
(0.672349 -0.29914 0)
(0.688461 -0.32915 0)
(0.85913 -0.30758 0)
(0.981523 -0.228535 0)
(1.03113 -0.0765267 0)
(0.923392 0.135594 0)
(0.662253 0.443503 0)
(0.258379 0.738797 0)
(0.0166225 -0.123191 0)
(0.050028 -0.124549 0)
(0.0843836 -0.127319 0)
(0.119466 -0.131063 0)
(0.156673 -0.134548 0)
(0.192434 -0.144145 0)
(0.238698 -0.144587 0)
(0.268098 -0.164079 0)
(0.330476 -0.158978 0)
(0.364655 -0.194751 0)
(0.418908 -0.227747 0)
(0.478138 -0.271628 0)
(0.574894 -0.322686 0)
(0.570783 -0.337266 0)
(0.596415 -0.358652 0)
(0.735523 -0.380456 0)
(0.920953 -0.303056 0)
(0.977029 -0.176469 0)
(0.997977 0.0297499 0)
(0.800626 0.283194 0)
(0.763693 0.674444 0)
(0.246669 0.800397 0)
(0.0163149 -0.147882 0)
(0.0490661 -0.149588 0)
(0.0830431 -0.153317 0)
(0.117432 -0.158667 0)
(0.154331 -0.165538 0)
(0.191255 -0.183511 0)
(0.235035 -0.195235 0)
(0.275966 -0.229225 0)
(0.320374 -0.250664 0)
(0.366967 -0.280155 0)
(0.386078 -0.339931 0)
(0.460459 -0.385238 0)
(0.429355 -0.345084 0)
(0.48646 -0.316225 0)
(0.608693 -0.405035 0)
(0.75934 -0.3972 0)
(0.862245 -0.32435 0)
(0.898497 -0.168625 0)
(0.82755 0.0512619 0)
(0.622898 0.366768 0)
(0.741085 0.727379 0)
(0.623498 1.07209 0)
(0.0165127 -0.216275 0)
(0.0491983 -0.221074 0)
(0.0825906 -0.229854 0)
(0.113433 -0.240495 0)
(0.145932 -0.252727 0)
(0.17597 -0.276302 0)
(0.203589 -0.295169 0)
(0.245172 -0.322301 0)
(0.254086 -0.338172 0)
(0.306968 -0.347572 0)
(0.347674 -0.329332 0)
(0.420875 -0.290179 0)
(0.489581 -0.353736 0)
(0.624263 -0.424443 0)
(0.730877 -0.449502 0)
(0.804819 -0.435348 0)
(0.836439 -0.359203 0)
(0.835389 -0.16757 0)
(0.737089 0.163631 0)
(0.64157 0.382362 0)
(0.624746 0.692503 0)
(0.833132 1.07156 0)
(0.0121833 -0.315721 0)
(0.036373 -0.318729 0)
(0.0620924 -0.322391 0)
(0.0857837 -0.3242 0)
(0.117414 -0.324285 0)
(0.145647 -0.315802 0)
(0.184603 -0.287785 0)
(0.236071 -0.274778 0)
(0.301331 -0.279865 0)
(0.375949 -0.352247 0)
(0.469809 -0.404699 0)
(0.53242 -0.430118 0)
(0.605246 -0.45591 0)
(0.679275 -0.476601 0)
(0.746447 -0.488296 0)
(0.781108 -0.458616 0)
(0.799659 -0.355689 0)
(0.76825 -0.0990164 0)
(0.682696 0.233275 0)
(0.647957 0.405519 0)
(0.652895 0.632322 0)
(0.812968 0.838456 0)
(0.0183672 -0.230223 0)
(0.0543272 -0.237469 0)
(0.0931337 -0.24497 0)
(0.134075 -0.267724 0)
(0.179843 -0.286912 0)
(0.231026 -0.324898 0)
(0.284442 -0.354351 0)
(0.34354 -0.38468 0)
(0.398922 -0.392379 0)
(0.451058 -0.420695 0)
(0.502754 -0.42408 0)
(0.541685 -0.432292 0)
(0.595768 -0.482105 0)
(0.649065 -0.529099 0)
(0.699646 -0.526507 0)
(0.733936 -0.473906 0)
(0.735499 -0.328481 0)
(0.658038 -0.0496616 0)
(0.61019 0.253325 0)
(0.624233 0.389134 0)
(0.693162 0.520417 0)
(0.81722 0.5762 0)
(0.0222056 -0.322753 0)
(0.0657142 -0.324696 0)
(0.110164 -0.326412 0)
(0.152354 -0.333113 0)
(0.196573 -0.338358 0)
(0.242282 -0.347 0)
(0.28463 -0.357646 0)
(0.331049 -0.374647 0)
(0.364305 -0.390374 0)
(0.406459 -0.437018 0)
(0.449906 -0.448781 0)
(0.480321 -0.492103 0)
(0.535414 -0.552847 0)
(0.594807 -0.581438 0)
(0.643519 -0.559844 0)
(0.662384 -0.478952 0)
(0.625505 -0.262678 0)
(0.52689 0.0140496 0)
(0.518988 0.255547 0)
(0.56882 0.334057 0)
(0.683191 0.424771 0)
(0.800822 0.371855 0)
(0.0194697 -0.306568 0)
(0.058754 -0.31129 0)
(0.0976478 -0.318815 0)
(0.137663 -0.330558 0)
(0.174704 -0.34495 0)
(0.212766 -0.363145 0)
(0.245489 -0.384869 0)
(0.282422 -0.41167 0)
(0.316574 -0.433622 0)
(0.361236 -0.484902 0)
(0.404636 -0.499108 0)
(0.455152 -0.549361 0)
(0.52519 -0.606196 0)
(0.579318 -0.615955 0)
(0.605275 -0.572881 0)
(0.589145 -0.452404 0)
(0.492844 -0.184735 0)
(0.410118 0.0503906 0)
(0.447294 0.214785 0)
(0.514274 0.257694 0)
(0.655356 0.27937 0)
(0.785938 0.208916 0)
(0.0181688 -0.373878 0)
(0.054208 -0.377777 0)
(0.0894979 -0.384204 0)
(0.124685 -0.393282 0)
(0.15986 -0.406365 0)
(0.193951 -0.422104 0)
(0.229598 -0.442366 0)
(0.268375 -0.467293 0)
(0.303648 -0.492737 0)
(0.348331 -0.531481 0)
(0.390013 -0.546457 0)
(0.425114 -0.611821 0)
(0.485117 -0.660102 0)
(0.520449 -0.64638 0)
(0.533312 -0.571197 0)
(0.461989 -0.37904 0)
(0.347347 -0.108837 0)
(0.32327 0.0579686 0)
(0.391616 0.146716 0)
(0.480814 0.150065 0)
(0.625489 0.12495 0)
(0.746458 0.0758147 0)
(0.0157359 -0.395966 0)
(0.0472446 -0.399211 0)
(0.0794717 -0.405171 0)
(0.110907 -0.413512 0)
(0.143134 -0.426159 0)
(0.175197 -0.441898 0)
(0.206413 -0.461871 0)
(0.237724 -0.485843 0)
(0.264406 -0.513593 0)
(0.300056 -0.556831 0)
(0.329666 -0.583382 0)
(0.369659 -0.664804 0)
(0.42814 -0.683597 0)
(0.440355 -0.65057 0)
(0.409087 -0.522249 0)
(0.278425 -0.260516 0)
(0.229671 -0.0562586 0)
(0.262481 0.0224796 0)
(0.354876 0.0532425 0)
(0.459765 0.0313655 0)
(0.592875 -0.00411254 0)
(0.690546 -0.0383817 0)
(0.0146028 -0.429556 0)
(0.0439939 -0.434027 0)
(0.0727451 -0.439861 0)
(0.102081 -0.449501 0)
(0.129793 -0.460904 0)
(0.157303 -0.47703 0)
(0.183359 -0.496094 0)
(0.209301 -0.519289 0)
(0.235329 -0.549822 0)
(0.261889 -0.586532 0)
(0.289406 -0.616256 0)
(0.332941 -0.70889 0)
(0.366489 -0.709734 0)
(0.356215 -0.636669 0)
(0.246634 -0.426006 0)
(0.143401 -0.193957 0)
(0.164563 -0.0795556 0)
(0.236537 -0.0574309 0)
(0.335422 -0.0537955 0)
(0.444768 -0.0837223 0)
(0.555259 -0.114496 0)
(0.643671 -0.150019 0)
(0.779187 -0.161694 0)
(0.0129554 -0.456377 0)
(0.0386197 -0.45968 0)
(0.0645158 -0.465071 0)
(0.0898139 -0.471982 0)
(0.115568 -0.482063 0)
(0.139854 -0.490319 0)
(0.163634 -0.493926 0)
(0.183805 -0.482969 0)
(0.202974 -0.454275 0)
(0.217821 -0.469422 0)
(0.239202 -0.510424 0)
(0.25732 -0.601853 0)
(0.257346 -0.662166 0)
(0.176204 -0.557238 0)
(0.0516983 -0.302728 0)
(0.0639839 -0.173831 0)
(0.12684 -0.144026 0)
(0.229008 -0.152399 0)
(0.320913 -0.157765 0)
(0.42753 -0.1772 0)
(0.515002 -0.154128 0)
(0.621521 -0.0908929 0)
(0.802157 -0.0582544 0)
(0.0115689 -0.355097 0)
(0.0347166 -0.356448 0)
(0.0576611 -0.357158 0)
(0.0813955 -0.358475 0)
(0.105412 -0.357654 0)
(0.131008 -0.353978 0)
(0.157903 -0.339777 0)
(0.180886 -0.307333 0)
(0.201734 -0.257887 0)
(0.19719 -0.273631 0)
(0.223381 -0.323976 0)
(0.176753 -0.331937 0)
(0.112303 -0.403563 0)
(-0.0381938 -0.319176 0)
(-0.0363386 -0.211515 0)
(0.0282917 -0.176592 0)
(0.128842 -0.173228 0)
(0.225814 -0.133756 0)
(0.30964 -0.112167 0)
(0.426033 -0.0995327 0)
(0.550939 -0.0455974 0)
(0.739393 0.08193 0)
(0.814559 0.0738945 0)
(0.0129365 -0.183019 0)
(0.0394844 -0.185494 0)
(0.0688562 -0.189751 0)
(0.102961 -0.198152 0)
(0.144926 -0.21118 0)
(0.187283 -0.225308 0)
(0.208597 -0.231127 0)
(0.195148 -0.241405 0)
(0.164804 -0.253916 0)
(0.119085 -0.266447 0)
(0.0687549 -0.287445 0)
(-0.123688 -0.240309 0)
(-0.206499 -0.190688 0)
(-0.219202 -0.104881 0)
(-0.112166 -0.0959028 0)
(0.0149201 -0.0892582 0)
(0.126794 -0.0663492 0)
(0.253219 0.00410842 0)
(0.391087 0.0212254 0)
(0.514095 0.0615572 0)
(0.550011 0.0200033 0)
(0.615993 -0.187586 0)
(0.505337 -0.405413 0)
(0.00920756 -0.229066 0)
(0.0266332 -0.232095 0)
(0.0429024 -0.236676 0)
(0.0584623 -0.245915 0)
(0.0814725 -0.262809 0)
(0.130132 -0.301623 0)
(0.177617 -0.388925 0)
(0.18374 -0.471384 0)
(0.164142 -0.497541 0)
(0.112393 -0.425532 0)
(-0.272449 -0.17479 0)
(-0.431491 -0.317115 0)
(-0.266934 -0.36198 0)
(-0.159038 -0.229741 0)
(-0.0337836 -0.169688 0)
(0.05511 -0.116576 0)
(0.141722 -0.0833213 0)
(0.223057 -0.0768782 0)
(0.331841 -0.133082 0)
(0.388472 -0.273304 0)
(0.342927 -0.334996 0)
(0.233687 0.203184 0)
(-0.136248 0.375828 0)
(0.00910833 -0.450819 0)
(0.025101 -0.444125 0)
(0.0422084 -0.423851 0)
(0.0601568 -0.378482 0)
(0.0734035 -0.282933 0)
(0.0556097 -0.102996 0)
(-0.0227265 0.152124 0)
(-0.132841 0.329216 0)
(-0.257098 0.341615 0)
(-0.337494 0.452142 0)
(-0.574601 0.324197 0)
(-0.279132 -0.24444 0)
(-0.208398 -0.527907 0)
(-0.051337 -0.52444 0)
(0.021651 -0.480842 0)
(0.0707703 -0.421528 0)
(0.123681 -0.394085 0)
(0.151617 -0.349598 0)
(0.102477 -0.180454 0)
(-0.0441152 0.414755 0)
(-0.377113 0.511969 0)
(-0.576675 -0.2945 0)
(-0.438781 -0.397223 0)
(-0.0394463 0.136597 0)
(-0.118122 0.11636 0)
(-0.199354 0.0818455 0)
(-0.289631 0.00242289 0)
(-0.382377 -0.144428 0)
(-0.466851 -0.378083 0)
(-0.49735 -0.65133 0)
(-0.441908 -0.859542 0)
(-0.348954 -0.910408 0)
(-0.153734 -0.814932 0)
(0.161494 -0.910153 0)
(0.441026 -0.895138 0)
(0.291541 -0.522114 0)
(0.183645 -0.0913317 0)
(-0.0212398 0.108184 0)
(-0.185295 0.16129 0)
(-0.344266 0.200678 0)
(-0.501549 0.188679 0)
(-0.620356 -0.0829775 0)
(-0.524394 -0.54395 0)
(-0.264078 -0.58102 0)
(-0.153162 -0.271793 0)
(-0.446309 0.110358 0)
(-0.0203335 -0.833383 0)
(-0.0569966 -0.834089 0)
(-0.0815685 -0.827011 0)
(-0.0914595 -0.807361 0)
(-0.0912134 -0.771492 0)
(-0.0748056 -0.712082 0)
(-0.0552371 -0.62198 0)
(-0.0547996 -0.524657 0)
(-0.0777243 -0.448541 0)
(-0.0742898 -0.392291 0)
(-0.0324689 -0.503709 0)
(-0.153312 -0.795837 0)
(-0.26926 -0.806608 0)
(-0.363034 -0.708381 0)
(-0.378358 -0.661548 0)
(-0.347455 -0.662817 0)
(-0.275406 -0.683671 0)
(-0.145551 -0.67601 0)
(-0.00427114 -0.586055 0)
(-0.0133567 -0.36456 0)
(-0.220538 -0.0590034 0)
(-0.490445 0.11044 0)
(-0.575476 0.112687 0)
(-0.00578606 -0.233232 0)
(-0.014979 -0.24716 0)
(-0.0239903 -0.261624 0)
(-0.039227 -0.28343 0)
(-0.0552885 -0.311752 0)
(-0.0718869 -0.349228 0)
(-0.0895494 -0.400495 0)
(-0.114598 -0.453664 0)
(-0.14628 -0.494872 0)
(-0.153789 -0.524866 0)
(-0.159154 -0.57342 0)
(-0.258036 -0.599077 0)
(-0.340757 -0.484975 0)
(-0.366087 -0.364978 0)
(-0.337288 -0.303248 0)
(-0.28272 -0.316896 0)
(-0.224571 -0.336429 0)
(-0.202794 -0.328156 0)
(-0.254011 -0.217551 0)
(-0.42328 -0.077658 0)
(-0.579561 0.0215932 0)
(-0.593449 0.0691007 0)
(-0.572127 0.119629 0)
(-0.00569315 -0.445013 0)
(-0.0166975 -0.459349 0)
(-0.0267125 -0.467956 0)
(-0.0395156 -0.478365 0)
(-0.0524752 -0.48966 0)
(-0.0676596 -0.50041 0)
(-0.08671 -0.510834 0)
(-0.113527 -0.520136 0)
(-0.14557 -0.52205 0)
(-0.168582 -0.518816 0)
(-0.211538 -0.533976 0)
(-0.278147 -0.523766 0)
(-0.336948 -0.485621 0)
(-0.356715 -0.445044 0)
(-0.365864 -0.445505 0)
(-0.379927 -0.468297 0)
)
;

boundaryField
{
    leftWall
    {
        type            fixedValue;
        value           uniform (0 0 0);
    }
    rightWall
    {
        type            fixedValue;
        value           nonuniform 0();
    }
    lowerWall
    {
        type            fixedValue;
        value           uniform (0 0 0);
    }
    atmosphere
    {
        type            fluxCorrectedVelocity;
        value           nonuniform 0();
    }
    defaultFaces
    {
        type            empty;
    }
    procBoundary0to1
    {
        type            processor;
        value           nonuniform List<vector> 
26
(
(0.255486 0.0317031 0)
(0.304071 0.301557 0)
(0.338898 0.485125 0)
(0.371655 0.712213 0)
(0.397795 0.864774 0)
(0.35823 1.1132 0)
(0.37654 1.27527 0)
(0.368935 1.39968 0)
(0.568156 1.47105 0)
(0.835753 1.31909 0)
(1.03045 1.1515 0)
(1.07132 0.88004 0)
(1.03513 0.468117 0)
(0.963045 0.195309 0)
(0.878455 0.0553141 0)
(0.823657 -0.0839692 0)
(0.823657 -0.0839692 0)
(0.823544 -0.121659 0)
(0.950881 0.0345313 0)
(0.874131 -0.141318 0)
(0.531561 0.00755914 0)
(-0.577137 -0.0303239 0)
(-0.382122 0.0491082 0)
(-0.541758 0.136048 0)
(-0.567496 0.1521 0)
(-0.556976 0.141678 0)
)
;
    }
    procBoundary0to2
    {
        type            processor;
        value           nonuniform List<vector> 
24
(
(-0.413548 -0.472428 0)
(-0.490556 -0.402871 0)
(-0.574865 -0.226902 0)
(-0.621859 -0.0492242 0)
(-0.626877 0.0361586 0)
(-0.605195 0.0705524 0)
(-0.565733 0.0970126 0)
(-0.00340557 -0.437621 0)
(-0.0111249 -0.44865 0)
(-0.0201013 -0.450395 0)
(-0.0321613 -0.452981 0)
(-0.0470366 -0.457239 0)
(-0.0661826 -0.463174 0)
(-0.090366 -0.46941 0)
(-0.120892 -0.474318 0)
(-0.154875 -0.475059 0)
(-0.19004 -0.473229 0)
(-0.239011 -0.477088 0)
(-0.291328 -0.483559 0)
(-0.338636 -0.473842 0)
(-0.364126 -0.451968 0)
(-0.391576 -0.444118 0)
(-0.413548 -0.472428 0)
(-0.430765 -0.439087 0)
)
;
    }
}


// ************************************************************************* //
