/*--------------------------------*- C++ -*----------------------------------*\
| =========                 |                                                 |
| \\      /  F ield         | OpenFOAM: The Open Source CFD Toolbox           |
|  \\    /   O peration     | Version:  2.4.0                                 |
|   \\  /    A nd           | Web:      www.OpenFOAM.org                      |
|    \\/     M anipulation  |                                                 |
\*---------------------------------------------------------------------------*/
FoamFile
{
    version     2.0;
    format      ascii;
    class       volVectorField;
    location    "0.2";
    object      U.mercury;
}
// * * * * * * * * * * * * * * * * * * * * * * * * * * * * * * * * * * * * * //

dimensions      [0 1 -1 0 0 0 0];

internalField   nonuniform List<vector> 
575
(
(0.0178451 -0.00843094 0)
(0.0536617 -0.00851956 0)
(0.0903345 -0.00868676 0)
(0.126779 -0.00896546 0)
(0.167865 -0.00923586 0)
(0.202284 -0.00974941 0)
(0.254145 -0.0099188 0)
(0.286005 -0.0123428 0)
(0.348863 -0.00916645 0)
(0.383496 -0.0143504 0)
(0.44286 -0.0165423 0)
(0.527875 -0.0143967 0)
(0.588766 -0.0128649 0)
(0.627159 -0.0132221 0)
(0.688095 -0.0147812 0)
(0.753037 -0.0196765 0)
(0.848565 -0.015541 0)
(0.899377 -0.018637 0)
(0.95267 -0.00229851 0)
(0.929939 0.0166489 0)
(0.845958 0.0511771 0)
(0.570586 0.11964 0)
(0.017812 -0.0252861 0)
(0.0535718 -0.025561 0)
(0.0901783 -0.0260628 0)
(0.126592 -0.0269232 0)
(0.167628 -0.0275719 0)
(0.201769 -0.0298644 0)
(0.254041 -0.0280874 0)
(0.286481 -0.0396941 0)
(0.346342 -0.0258471 0)
(0.383943 -0.040616 0)
(0.445643 -0.051718 0)
(0.528913 -0.0463143 0)
(0.582012 -0.0384203 0)
(0.619762 -0.0395591 0)
(0.686958 -0.0452023 0)
(0.770592 -0.0533326 0)
(0.868004 -0.0535116 0)
(0.935914 -0.0422358 0)
(0.983643 -0.00457591 0)
(0.960774 0.0289424 0)
(0.875848 0.113257 0)
(0.603328 0.198305 0)
(0.0177281 -0.0420805 0)
(0.053328 -0.0425383 0)
(0.089754 -0.0433803 0)
(0.126095 -0.0448125 0)
(0.166836 -0.0459257 0)
(0.20084 -0.0492683 0)
(0.253203 -0.0488432 0)
(0.284812 -0.0612936 0)
(0.344049 -0.0466316 0)
(0.384289 -0.0696505 0)
(0.446668 -0.0853763 0)
(0.525136 -0.0718936 0)
(0.573887 -0.0599746 0)
(0.618957 -0.0684212 0)
(0.696172 -0.0887676 0)
(0.788511 -0.100981 0)
(0.889734 -0.0957192 0)
(0.954658 -0.0689602 0)
(1.00238 -0.0098651 0)
(0.982916 0.0887215 0)
(0.929306 0.267635 0)
(0.649389 0.410944 0)
(0.0176027 -0.0587821 0)
(0.0529631 -0.059424 0)
(0.0891194 -0.0606218 0)
(0.125385 -0.0626065 0)
(0.165519 -0.0641347 0)
(0.199948 -0.0689355 0)
(0.251095 -0.0681995 0)
(0.282695 -0.0842515 0)
(0.341268 -0.0679187 0)
(0.38395 -0.0951746 0)
(0.444347 -0.118451 0)
(0.514924 -0.101771 0)
(0.565446 -0.0872951 0)
(0.630313 -0.103356 0)
(0.715964 -0.126346 0)
(0.808614 -0.14402 0)
(0.896714 -0.14342 0)
(0.95324 -0.129817 0)
(1.01716 -0.0700057 0)
(0.981331 0.0112015 0)
(0.938352 0.233117 0)
(0.669525 0.507781 0)
(0.0174331 -0.0753712 0)
(0.0524642 -0.0761975 0)
(0.0882691 -0.0777755 0)
(0.124399 -0.0802712 0)
(0.163828 -0.0823435 0)
(0.198559 -0.0881457 0)
(0.24862 -0.0884953 0)
(0.278949 -0.104879 0)
(0.337746 -0.0903874 0)
(0.383377 -0.124477 0)
(0.437818 -0.145084 0)
(0.500323 -0.126203 0)
(0.563152 -0.120935 0)
(0.653644 -0.146533 0)
(0.741055 -0.176231 0)
(0.809143 -0.21921 0)
(0.848733 -0.255487 0)
(0.883431 -0.277918 0)
(0.880469 -0.26849 0)
(0.857536 -0.151576 0)
(0.864714 0.20602 0)
(0.598602 0.641754 0)
(0.0172127 -0.0916941 0)
(0.0518073 -0.0927114 0)
(0.0871738 -0.0947055 0)
(0.123074 -0.0977043 0)
(0.161684 -0.100331 0)
(0.196705 -0.10741 0)
(0.245455 -0.107894 0)
(0.27444 -0.125064 0)
(0.336395 -0.115408 0)
(0.374736 -0.145358 0)
(0.433632 -0.168017 0)
(0.484131 -0.157072 0)
(0.571034 -0.171024 0)
(0.679241 -0.199152 0)
(0.737575 -0.256161 0)
(0.746588 -0.347877 0)
(0.658007 -0.523522 0)
(0.683548 -0.568715 0)
(0.704185 -0.585758 0)
(0.793547 -0.437811 0)
(0.885981 0.102427 0)
(0.42457 0.73503 0)
(0.0169314 -0.107538 0)
(0.0509598 -0.108746 0)
(0.0858052 -0.111159 0)
(0.121327 -0.114567 0)
(0.159098 -0.117625 0)
(0.194409 -0.125617 0)
(0.241759 -0.125824 0)
(0.270456 -0.143003 0)
(0.333107 -0.134006 0)
(0.367647 -0.168317 0)
(0.429774 -0.185691 0)
(0.475761 -0.207484 0)
(0.580201 -0.249382 0)
(0.662603 -0.308378 0)
(0.634015 -0.412081 0)
(0.549767 -0.63269 0)
(0.578407 -0.707228 0)
(0.812844 -0.491991 0)
(1.02964 -0.0878286 0)
(0.888298 0.0204622 0)
(0.936135 0.0449504 0)
(0.289362 0.684185 0)
(0.0166225 -0.123192 0)
(0.0500279 -0.124549 0)
(0.0843834 -0.127319 0)
(0.119466 -0.131064 0)
(0.156672 -0.134549 0)
(0.192434 -0.144146 0)
(0.238698 -0.144587 0)
(0.268098 -0.164079 0)
(0.33046 -0.159046 0)
(0.363762 -0.198542 0)
(0.415944 -0.239397 0)
(0.470355 -0.29753 0)
(0.558108 -0.378324 0)
(0.514104 -0.47932 0)
(0.476859 -0.674491 0)
(0.516879 -0.747356 0)
(0.701031 -0.612491 0)
(0.962979 -0.215047 0)
(0.99915 0.0269456 0)
(0.794047 0.283623 0)
(0.469038 0.517061 0)
(0.281918 0.674402 0)
(0.0162894 -0.15033 0)
(0.0489815 -0.152266 0)
(0.0828704 -0.156496 0)
(0.117122 -0.162639 0)
(0.153796 -0.170574 0)
(0.190265 -0.190514 0)
(0.233324 -0.205008 0)
(0.272949 -0.243975 0)
(0.315923 -0.272675 0)
(0.359394 -0.314504 0)
(0.373854 -0.398354 0)
(0.442543 -0.489378 0)
(0.3726 -0.546929 0)
(0.390851 -0.639826 0)
(0.438454 -0.751544 0)
(0.509587 -0.742133 0)
(0.76463 -0.464373 0)
(0.896355 -0.177217 0)
(0.827507 0.0505 0)
(0.620961 0.370325 0)
(0.561588 0.868416 0)
(0.453489 0.980133 0)
(0.0162317 -0.238997 0)
(0.0483495 -0.245029 0)
(0.0811628 -0.256383 0)
(0.11143 -0.271082 0)
(0.143184 -0.288741 0)
(0.171269 -0.321054 0)
(0.196183 -0.352366 0)
(0.233809 -0.401384 0)
(0.233768 -0.455068 0)
(0.274977 -0.542015 0)
(0.283309 -0.631712 0)
(0.320181 -0.676439 0)
(0.355883 -0.732669 0)
(0.465746 -0.706031 0)
(0.678276 -0.56465 0)
(0.789644 -0.482037 0)
(0.834118 -0.381784 0)
(0.834486 -0.173161 0)
(0.737017 0.162965 0)
(0.639572 0.382292 0)
(0.656624 0.812902 0)
(0.71336 1.17174 0)
(0.0111798 -0.43583 0)
(0.0330963 -0.445881 0)
(0.0559128 -0.46431 0)
(0.0747581 -0.49127 0)
(0.0998811 -0.525434 0)
(0.117196 -0.571762 0)
(0.146075 -0.593545 0)
(0.18171 -0.628126 0)
(0.222413 -0.675227 0)
(0.272255 -0.749952 0)
(0.383102 -0.662138 0)
(0.523158 -0.521664 0)
(0.598229 -0.52088 0)
(0.669753 -0.51826 0)
(0.739683 -0.513268 0)
(0.777213 -0.475746 0)
(0.798685 -0.36583 0)
(0.767889 -0.104532 0)
(0.682715 0.231999 0)
(0.646972 0.406381 0)
(0.699277 0.565388 0)
(0.781764 1.15132 0)
(0.0142702 -0.585965 0)
(0.0410496 -0.597366 0)
(0.0693646 -0.613191 0)
(0.0980488 -0.642 0)
(0.135727 -0.650215 0)
(0.183507 -0.638472 0)
(0.256024 -0.573846 0)
(0.350812 -0.497622 0)
(0.402659 -0.453452 0)
(0.450363 -0.456672 0)
(0.501286 -0.440562 0)
(0.540962 -0.444425 0)
(0.594827 -0.490943 0)
(0.647596 -0.536322 0)
(0.697905 -0.532541 0)
(0.733087 -0.477549 0)
(0.735052 -0.33153 0)
(0.657984 -0.051529 0)
(0.610157 0.25352 0)
(0.623784 0.389991 0)
(0.70483 0.452978 0)
(0.769887 1.03783 0)
(0.0224654 -0.326678 0)
(0.0657416 -0.328251 0)
(0.110183 -0.329447 0)
(0.152382 -0.336425 0)
(0.196553 -0.34163 0)
(0.242255 -0.349975 0)
(0.28463 -0.360433 0)
(0.331083 -0.377242 0)
(0.364347 -0.392737 0)
(0.406397 -0.438965 0)
(0.449824 -0.450353 0)
(0.480223 -0.493548 0)
(0.53525 -0.554162 0)
(0.594472 -0.582965 0)
(0.64297 -0.561565 0)
(0.661762 -0.480618 0)
(0.625291 -0.26379 0)
(0.526809 0.0144349 0)
(0.518842 0.257273 0)
(0.568549 0.33457 0)
(0.685054 0.412305 0)
(0.786181 0.670857 0)
(0.0194698 -0.307063 0)
(0.0587539 -0.311717 0)
(0.0976476 -0.319136 0)
(0.137662 -0.330931 0)
(0.174704 -0.345317 0)
(0.212765 -0.363465 0)
(0.245487 -0.38516 0)
(0.282419 -0.411947 0)
(0.316568 -0.43388 0)
(0.361228 -0.485123 0)
(0.404627 -0.499287 0)
(0.455142 -0.549514 0)
(0.525147 -0.606405 0)
(0.579014 -0.616713 0)
(0.604679 -0.574247 0)
(0.588735 -0.453628 0)
(0.492844 -0.18474 0)
(0.4098 0.052282 0)
(0.447093 0.216704 0)
(0.514285 0.257537 0)
(0.655407 0.278566 0)
(0.787145 0.216233 0)
(0.0181687 -0.373914 0)
(0.0542075 -0.377816 0)
(0.0894969 -0.384246 0)
(0.124683 -0.393328 0)
(0.159857 -0.406417 0)
(0.193947 -0.422163 0)
(0.229593 -0.442433 0)
(0.268367 -0.467378 0)
(0.303636 -0.492843 0)
(0.348314 -0.53163 0)
(0.389995 -0.546554 0)
(0.425099 -0.611866 0)
(0.485006 -0.660336 0)
(0.519974 -0.647419 0)
(0.532742 -0.572588 0)
(0.461922 -0.379612 0)
(0.34718 -0.107476 0)
(0.322941 0.0601944 0)
(0.391587 0.147086 0)
(0.480815 0.150031 0)
(0.625487 0.124905 0)
(0.746445 0.0754022 0)
(0.0157353 -0.396059 0)
(0.0472429 -0.39931 0)
(0.0794685 -0.405277 0)
(0.110902 -0.413625 0)
(0.143127 -0.426285 0)
(0.175187 -0.442039 0)
(0.2064 -0.462042 0)
(0.237705 -0.486061 0)
(0.264374 -0.513872 0)
(0.300014 -0.557174 0)
(0.329633 -0.583527 0)
(0.369644 -0.664866 0)
(0.427887 -0.684096 0)
(0.439785 -0.651909 0)
(0.40883 -0.523227 0)
(0.278384 -0.25977 0)
(0.229451 -0.0540595 0)
(0.262418 0.0232318 0)
(0.354877 0.0532179 0)
(0.459763 0.0312845 0)
(0.592854 -0.00428808 0)
(0.690476 -0.0386547 0)
(0.0146013 -0.429835 0)
(0.043989 -0.434329 0)
(0.0727361 -0.440166 0)
(0.102067 -0.449805 0)
(0.129773 -0.461207 0)
(0.157275 -0.477324 0)
(0.183319 -0.496395 0)
(0.209246 -0.519675 0)
(0.235252 -0.550505 0)
(0.261811 -0.588691 0)
(0.289351 -0.624229 0)
(0.332906 -0.716043 0)
(0.366238 -0.71191 0)
(0.355993 -0.637954 0)
(0.246621 -0.425846 0)
(0.143055 -0.192007 0)
(0.164421 -0.0783081 0)
(0.23654 -0.0576468 0)
(0.335423 -0.0539895 0)
(0.444744 -0.0840357 0)
(0.555165 -0.114859 0)
(0.643507 -0.152102 0)
(0.778907 -0.198579 0)
(0.0129496 -0.457411 0)
(0.0386009 -0.460891 0)
(0.064483 -0.466671 0)
(0.0897685 -0.474486 0)
(0.115516 -0.486783 0)
(0.139805 -0.500748 0)
(0.16359 -0.518575 0)
(0.183743 -0.539962 0)
(0.202762 -0.566183 0)
(0.216714 -0.601264 0)
(0.235205 -0.653184 0)
(0.251034 -0.747267 0)
(0.255385 -0.714362 0)
(0.175865 -0.560295 0)
(0.0514593 -0.301418 0)
(0.0635595 -0.178144 0)
(0.126902 -0.144778 0)
(0.229057 -0.153107 0)
(0.320899 -0.159051 0)
(0.427457 -0.185559 0)
(0.514537 -0.211176 0)
(0.610703 -0.246623 0)
(0.712227 -0.271633 0)
(0.0115544 -0.476266 0)
(0.0346536 -0.479972 0)
(0.0574774 -0.485003 0)
(0.0808401 -0.492823 0)
(0.103667 -0.502012 0)
(0.125996 -0.514598 0)
(0.146501 -0.528533 0)
(0.162152 -0.545292 0)
(0.175932 -0.569202 0)
(0.165551 -0.602162 0)
(0.171638 -0.665751 0)
(0.103175 -0.749607 0)
(0.0733028 -0.652719 0)
(-0.0396097 -0.432897 0)
(-0.0320663 -0.281582 0)
(0.0319906 -0.24621 0)
(0.130078 -0.241819 0)
(0.225812 -0.246212 0)
(0.308617 -0.252495 0)
(0.41366 -0.26704 0)
(0.477208 -0.287942 0)
(0.591451 -0.340064 0)
(0.639086 -0.443313 0)
(0.010947 -0.498521 0)
(0.0324602 -0.502525 0)
(0.0537112 -0.50927 0)
(0.0739682 -0.520117 0)
(0.0945904 -0.53616 0)
(0.114993 -0.557699 0)
(0.134453 -0.586743 0)
(0.147793 -0.623162 0)
(0.151448 -0.662275 0)
(0.123367 -0.707529 0)
(0.061936 -0.768444 0)
(-0.108141 -0.797516 0)
(-0.126579 -0.583117 0)
(-0.11944 -0.406671 0)
(-0.0458463 -0.348147 0)
(0.0458635 -0.332147 0)
(0.137352 -0.325327 0)
(0.224169 -0.321004 0)
(0.30228 -0.342083 0)
(0.401229 -0.376619 0)
(0.433505 -0.461875 0)
(0.472996 -0.611397 0)
(0.383639 -0.881973 0)
(0.00974552 -0.619423 0)
(0.0280794 -0.626135 0)
(0.0451196 -0.637295 0)
(0.0594947 -0.654858 0)
(0.070898 -0.677738 0)
(0.0815886 -0.707963 0)
(0.0905529 -0.75633 0)
(0.0942274 -0.81437 0)
(0.0863138 -0.876747 0)
(0.0406409 -0.942102 0)
(-0.16488 -0.963624 0)
(-0.301502 -0.843087 0)
(-0.187908 -0.667086 0)
(-0.125982 -0.5553 0)
(-0.00779395 -0.530176 0)
(0.0696706 -0.501691 0)
(0.144441 -0.491839 0)
(0.208363 -0.507613 0)
(0.257198 -0.560422 0)
(0.278935 -0.655929 0)
(0.266276 -0.808543 0)
(0.208908 -0.78519 0)
(-0.0786158 0.0648568 0)
(0.00563266 -0.866578 0)
(0.0137856 -0.878722 0)
(0.0213174 -0.900646 0)
(0.0272073 -0.934829 0)
(0.0283951 -0.985866 0)
(0.0203202 -1.05598 0)
(0.00615888 -0.976896 0)
(-0.0449537 -0.73345 0)
(-0.165187 -0.361743 0)
(-0.295126 0.0905456 0)
(-0.513648 -0.148358 0)
(-0.35455 -0.858432 0)
(-0.185899 -0.998036 0)
(-0.0305001 -0.87179 0)
(0.0349503 -0.83298 0)
(0.070702 -0.780848 0)
(0.110116 -0.787136 0)
(0.12863 -0.839476 0)
(0.0960806 -0.93557 0)
(0.0326389 -0.539477 0)
(-0.328451 0.301408 0)
(-0.576589 -0.294567 0)
(-0.438777 -0.397221 0)
(-0.0305616 -0.216297 0)
(-0.0981989 -0.194341 0)
(-0.175249 -0.150533 0)
(-0.269958 -0.132983 0)
(-0.37332 -0.193958 0)
(-0.465533 -0.383755 0)
(-0.497291 -0.651479 0)
(-0.441905 -0.859581 0)
(-0.348984 -0.910393 0)
(-0.153859 -0.81504 0)
(0.160649 -0.911732 0)
(0.435768 -0.903545 0)
(0.270485 -0.60294 0)
(0.163027 -0.401167 0)
(-0.00729129 -0.350961 0)
(-0.115104 -0.314111 0)
(-0.258823 -0.167688 0)
(-0.459674 0.047564 0)
(-0.618039 -0.0884263 0)
(-0.524379 -0.54396 0)
(-0.264073 -0.581022 0)
(-0.153156 -0.271798 0)
(-0.446301 0.110358 0)
(-0.0203356 -0.833413 0)
(-0.0570023 -0.834119 0)
(-0.0815756 -0.827043 0)
(-0.0914648 -0.807394 0)
(-0.0912143 -0.771526 0)
(-0.0748038 -0.712119 0)
(-0.0552359 -0.62202 0)
(-0.0548 -0.524698 0)
(-0.0777271 -0.448581 0)
(-0.0742959 -0.392327 0)
(-0.0324798 -0.50374 0)
(-0.153323 -0.795859 0)
(-0.269271 -0.806626 0)
(-0.363042 -0.708395 0)
(-0.378367 -0.661557 0)
(-0.347461 -0.662824 0)
(-0.275407 -0.683677 0)
(-0.145546 -0.676016 0)
(-0.00426224 -0.586061 0)
(-0.0133458 -0.364568 0)
(-0.220527 -0.0590068 0)
(-0.490435 0.110439 0)
(-0.575467 0.112687 0)
(-0.00578768 -0.233257 0)
(-0.0149829 -0.247184 0)
(-0.0239945 -0.261647 0)
(-0.0392295 -0.283451 0)
(-0.0552882 -0.311772 0)
(-0.0718852 -0.349249 0)
(-0.0895478 -0.400516 0)
(-0.114598 -0.453686 0)
(-0.146281 -0.494894 0)
(-0.153793 -0.524887 0)
(-0.159161 -0.573438 0)
(-0.258044 -0.599091 0)
(-0.340766 -0.484985 0)
(-0.366094 -0.364986 0)
(-0.337294 -0.303254 0)
(-0.282723 -0.316901 0)
(-0.224568 -0.336432 0)
(-0.202785 -0.328158 0)
(-0.254 -0.217553 0)
(-0.423267 -0.0776593 0)
(-0.579549 0.0215926 0)
(-0.593438 0.0691005 0)
(-0.572118 0.119629 0)
(-0.00569462 -0.445027 0)
(-0.0167012 -0.459362 0)
(-0.0267166 -0.467969 0)
(-0.0395187 -0.478377 0)
(-0.0524766 -0.489671 0)
(-0.0676596 -0.500423 0)
(-0.0867096 -0.510847 0)
(-0.113527 -0.520149 0)
(-0.145571 -0.522063 0)
(-0.168584 -0.518828 0)
(-0.211541 -0.533986 0)
(-0.27815 -0.523773 0)
(-0.336953 -0.485624 0)
(-0.356719 -0.445044 0)
(-0.365867 -0.445503 0)
(-0.379929 -0.468293 0)
)
;

boundaryField
{
    leftWall
    {
        type            fixedValue;
        value           uniform (0 0 0);
    }
    rightWall
    {
        type            fixedValue;
        value           nonuniform 0();
    }
    lowerWall
    {
        type            fixedValue;
        value           uniform (0 0 0);
    }
    atmosphere
    {
        type            fluxCorrectedVelocity;
        value           nonuniform 0();
    }
    defaultFaces
    {
        type            empty;
    }
    procBoundary0to1
    {
        type            processor;
        value           nonuniform List<vector> 
26
(
(0.255915 0.0312169 0)
(0.304621 0.300694 0)
(0.33953 0.484033 0)
(0.372306 0.710751 0)
(0.398595 0.862635 0)
(0.359611 1.10916 0)
(0.378735 1.26794 0)
(0.370524 1.38882 0)
(0.530393 1.46062 0)
(0.765025 1.35169 0)
(0.908065 1.28108 0)
(1.01242 1.27205 0)
(1.05988 1.18377 0)
(0.988925 0.386799 0)
(0.878437 0.0541876 0)
(0.823495 -0.0842733 0)
(0.823495 -0.0842733 0)
(0.822525 -0.248171 0)
(0.760012 -0.339617 0)
(0.692273 -0.600381 0)
(0.481021 -0.793756 0)
(-0.576878 -0.030548 0)
(-0.382118 0.0491127 0)
(-0.54175 0.13605 0)
(-0.567489 0.1521 0)
(-0.556968 0.141678 0)
)
;
    }
    procBoundary0to2
    {
        type            processor;
        value           nonuniform List<vector> 
24
(
(-0.413545 -0.472423 0)
(-0.490549 -0.402867 0)
(-0.574855 -0.226899 0)
(-0.621848 -0.0492219 0)
(-0.626866 0.0361596 0)
(-0.605184 0.070553 0)
(-0.565723 0.0970127 0)
(-0.00340646 -0.437631 0)
(-0.0111275 -0.448659 0)
(-0.0201046 -0.450402 0)
(-0.032164 -0.452987 0)
(-0.0470381 -0.457244 0)
(-0.0661829 -0.463179 0)
(-0.0903657 -0.469415 0)
(-0.120892 -0.474323 0)
(-0.154875 -0.475064 0)
(-0.190041 -0.473233 0)
(-0.239013 -0.477091 0)
(-0.29133 -0.483561 0)
(-0.338638 -0.473841 0)
(-0.364129 -0.451964 0)
(-0.391577 -0.444113 0)
(-0.413545 -0.472423 0)
(-0.430764 -0.439081 0)
)
;
    }
}


// ************************************************************************* //
