/*--------------------------------*- C++ -*----------------------------------*\
| =========                 |                                                 |
| \\      /  F ield         | OpenFOAM: The Open Source CFD Toolbox           |
|  \\    /   O peration     | Version:  2.4.0                                 |
|   \\  /    A nd           | Web:      www.OpenFOAM.org                      |
|    \\/     M anipulation  |                                                 |
\*---------------------------------------------------------------------------*/
FoamFile
{
    version     2.0;
    format      ascii;
    class       volVectorField;
    location    "0.2";
    object      U.oil;
}
// * * * * * * * * * * * * * * * * * * * * * * * * * * * * * * * * * * * * * //

dimensions      [0 1 -1 0 0 0 0];

internalField   nonuniform List<vector> 
575
(
(0.0178452 -0.00843079 0)
(0.053662 -0.00851942 0)
(0.0903348 -0.00868662 0)
(0.126779 -0.00896534 0)
(0.167866 -0.00923574 0)
(0.202285 -0.00974932 0)
(0.254146 -0.00991872 0)
(0.286006 -0.0123428 0)
(0.348863 -0.00916639 0)
(0.383497 -0.0143503 0)
(0.442861 -0.0165421 0)
(0.527877 -0.014393 0)
(0.58878 -0.0128202 0)
(0.627239 -0.0129003 0)
(0.688368 -0.0134641 0)
(0.753551 -0.0166527 0)
(0.848909 -0.0103042 0)
(0.898596 -0.0106238 0)
(0.947412 0.00875834 0)
(0.905465 0.0311398 0)
(0.757351 0.106736 0)
(0.349371 0.245803 0)
(0.0178121 -0.0252856 0)
(0.053572 -0.0255605 0)
(0.0901787 -0.0260623 0)
(0.126593 -0.0269228 0)
(0.167628 -0.0275715 0)
(0.20177 -0.029864 0)
(0.254041 -0.0280871 0)
(0.286481 -0.0396938 0)
(0.346342 -0.0258469 0)
(0.383943 -0.0406158 0)
(0.445644 -0.0517171 0)
(0.528923 -0.0462952 0)
(0.58208 -0.0382647 0)
(0.620055 -0.038548 0)
(0.687693 -0.0419212 0)
(0.771648 -0.0438089 0)
(0.868741 -0.0307431 0)
(0.93541 -0.00631201 0)
(0.97976 0.0326821 0)
(0.940532 0.0677484 0)
(0.789883 0.190094 0)
(0.387664 0.37954 0)
(0.0177282 -0.0420797 0)
(0.0533282 -0.0425375 0)
(0.0897544 -0.0433796 0)
(0.126095 -0.0448118 0)
(0.166836 -0.045925 0)
(0.200841 -0.0492677 0)
(0.253204 -0.0488427 0)
(0.284813 -0.0612932 0)
(0.344049 -0.0466312 0)
(0.384289 -0.0696501 0)
(0.446672 -0.0853713 0)
(0.52517 -0.0718203 0)
(0.574101 -0.0589078 0)
(0.619714 -0.0621921 0)
(0.698513 -0.0641611 0)
(0.794744 -0.0504718 0)
(0.899446 -0.00360113 0)
(0.951542 0.0893264 0)
(0.970565 0.175547 0)
(0.928178 0.256693 0)
(0.832918 0.410545 0)
(0.445193 0.637707 0)
(0.0176028 -0.058781 0)
(0.0529633 -0.059423 0)
(0.0891197 -0.0606209 0)
(0.125385 -0.0626056 0)
(0.165519 -0.0641339 0)
(0.199948 -0.0689348 0)
(0.251096 -0.0681989 0)
(0.282695 -0.084251 0)
(0.341269 -0.0679182 0)
(0.383952 -0.0951741 0)
(0.444361 -0.118428 0)
(0.515188 -0.100983 0)
(0.567223 -0.0806452 0)
(0.638732 -0.0718418 0)
(0.742805 -0.0263628 0)
(0.853277 0.0445139 0)
(0.936351 0.0653426 0)
(0.977979 0.100478 0)
(1.0097 0.186126 0)
(0.909615 0.298389 0)
(0.808924 0.549921 0)
(0.48233 0.786255 0)
(0.0174332 -0.0753701 0)
(0.0524644 -0.0761964 0)
(0.0882694 -0.0777745 0)
(0.124399 -0.0802702 0)
(0.163828 -0.0823426 0)
(0.19856 -0.0881449 0)
(0.24862 -0.0884946 0)
(0.27895 -0.104878 0)
(0.337746 -0.090387 0)
(0.383381 -0.124476 0)
(0.438008 -0.144917 0)
(0.502132 -0.121989 0)
(0.572685 -0.0967392 0)
(0.685308 -0.0418963 0)
(0.795214 0.0188471 0)
(0.868183 -0.0055018 0)
(0.910272 -0.011893 0)
(0.933598 0.0103756 0)
(0.892675 0.0977081 0)
(0.743042 0.357213 0)
(0.687159 0.608545 0)
(0.391902 0.940884 0)
(0.0172127 -0.0916931 0)
(0.0518074 -0.0927103 0)
(0.0871741 -0.0947045 0)
(0.123074 -0.0977034 0)
(0.161684 -0.10033 0)
(0.196706 -0.107409 0)
(0.245456 -0.107894 0)
(0.27444 -0.125063 0)
(0.336395 -0.115408 0)
(0.37477 -0.145357 0)
(0.434605 -0.167421 0)
(0.490106 -0.144845 0)
(0.593458 -0.106484 0)
(0.741894 -0.00593654 0)
(0.811299 -0.0393984 0)
(0.845739 -0.0362663 0)
(0.857281 0.0530574 0)
(0.926069 0.103334 0)
(0.89642 0.132542 0)
(0.780258 0.225765 0)
(0.37441 0.758314 0)
(0.212734 1.02416 0)
(0.0169315 -0.107537 0)
(0.0509599 -0.108745 0)
(0.0858054 -0.111158 0)
(0.121327 -0.114566 0)
(0.159098 -0.117624 0)
(0.194409 -0.125617 0)
(0.24176 -0.125823 0)
(0.270456 -0.143002 0)
(0.333108 -0.134006 0)
(0.36774 -0.168305 0)
(0.432163 -0.183995 0)
(0.489143 -0.182967 0)
(0.627361 -0.12877 0)
(0.745285 -0.0771278 0)
(0.76186 -0.0183416 0)
(0.831678 0.00162134 0)
(0.919557 -0.185018 0)
(1.00596 -0.162238 0)
(1.05068 0.00898862 0)
(0.905538 0.202689 0)
(0.572365 0.578244 0)
(0.108995 0.998781 0)
(0.0166225 -0.123191 0)
(0.050028 -0.124549 0)
(0.0843836 -0.127319 0)
(0.119466 -0.131063 0)
(0.156673 -0.134548 0)
(0.192434 -0.144145 0)
(0.238698 -0.144587 0)
(0.268098 -0.164079 0)
(0.330473 -0.158993 0)
(0.364652 -0.195075 0)
(0.421336 -0.227689 0)
(0.490103 -0.255374 0)
(0.618995 -0.223776 0)
(0.676552 -0.0888845 0)
(0.68768 -0.0969726 0)
(0.791901 -0.24446 0)
(0.966287 -0.227186 0)
(1.00941 -0.0990908 0)
(1.02726 0.112738 0)
(0.778977 0.334573 0)
(0.783394 0.71019 0)
(0.161713 1.10167 0)
(0.0163118 -0.148177 0)
(0.0490565 -0.14989 0)
(0.0830261 -0.153631 0)
(0.117407 -0.15899 0)
(0.154297 -0.165861 0)
(0.191212 -0.183812 0)
(0.234992 -0.195481 0)
(0.275942 -0.229339 0)
(0.320395 -0.250558 0)
(0.3671 -0.279657 0)
(0.387821 -0.333977 0)
(0.464413 -0.362814 0)
(0.431952 -0.293196 0)
(0.529825 -0.171182 0)
(0.650092 -0.25854 0)
(0.800187 -0.296035 0)
(0.899567 -0.249197 0)
(0.938085 -0.0908578 0)
(0.828243 0.121285 0)
(0.602338 0.402474 0)
(0.749844 0.724969 0)
(0.867718 1.20431 0)
(0.0165147 -0.216116 0)
(0.0492053 -0.220875 0)
(0.0826058 -0.229571 0)
(0.113461 -0.24008 0)
(0.145976 -0.252138 0)
(0.176217 -0.273944 0)
(0.204285 -0.289795 0)
(0.246754 -0.31129 0)
(0.257133 -0.320641 0)
(0.310918 -0.323563 0)
(0.353167 -0.303283 0)
(0.425235 -0.271697 0)
(0.492309 -0.330604 0)
(0.648946 -0.339958 0)
(0.760477 -0.367305 0)
(0.839559 -0.356626 0)
(0.86804 -0.28253 0)
(0.861732 -0.0887256 0)
(0.725582 0.244631 0)
(0.630366 0.407354 0)
(0.624003 0.692512 0)
(0.91739 1.00116 0)
(0.0123314 -0.297998 0)
(0.0368472 -0.30033 0)
(0.0629515 -0.302661 0)
(0.0872205 -0.302428 0)
(0.119512 -0.30021 0)
(0.148582 -0.289394 0)
(0.187786 -0.262522 0)
(0.239268 -0.253999 0)
(0.304198 -0.265501 0)
(0.377888 -0.344812 0)
(0.470603 -0.402844 0)
(0.533633 -0.427841 0)
(0.610225 -0.438021 0)
(0.704314 -0.395774 0)
(0.779633 -0.409177 0)
(0.812806 -0.380484 0)
(0.831333 -0.277337 0)
(0.783618 -0.0142185 0)
(0.670689 0.312652 0)
(0.640845 0.42793 0)
(0.652571 0.633424 0)
(0.824916 0.71906 0)
(0.0184995 -0.218737 0)
(0.0547284 -0.226595 0)
(0.0937586 -0.23529 0)
(0.134831 -0.259866 0)
(0.180542 -0.281152 0)
(0.231527 -0.321594 0)
(0.284606 -0.353084 0)
(0.343526 -0.384471 0)
(0.39892 -0.392358 0)
(0.451062 -0.420699 0)
(0.502969 -0.424021 0)
(0.542717 -0.428164 0)
(0.60335 -0.454884 0)
(0.677337 -0.452566 0)
(0.732835 -0.450043 0)
(0.767539 -0.398845 0)
(0.764673 -0.252887 0)
(0.659654 0.0297783 0)
(0.601796 0.318868 0)
(0.620454 0.405894 0)
(0.693143 0.520814 0)
(0.823785 0.512441 0)
(0.0222056 -0.322755 0)
(0.0657142 -0.324699 0)
(0.110164 -0.326415 0)
(0.152354 -0.333117 0)
(0.196573 -0.338362 0)
(0.242282 -0.347006 0)
(0.284629 -0.357654 0)
(0.331048 -0.374659 0)
(0.364303 -0.390391 0)
(0.406466 -0.437045 0)
(0.450322 -0.448689 0)
(0.482535 -0.485607 0)
(0.556038 -0.496107 0)
(0.628137 -0.505361 0)
(0.679528 -0.485008 0)
(0.695545 -0.406552 0)
(0.644586 -0.18751 0)
(0.520414 0.0814015 0)
(0.513901 0.294009 0)
(0.567545 0.340149 0)
(0.683206 0.424799 0)
(0.801044 0.367743 0)
(0.0194697 -0.306579 0)
(0.0587539 -0.311303 0)
(0.0976476 -0.318829 0)
(0.137662 -0.330574 0)
(0.174704 -0.344969 0)
(0.212765 -0.363167 0)
(0.245487 -0.384896 0)
(0.282419 -0.411707 0)
(0.316569 -0.433666 0)
(0.361244 -0.484963 0)
(0.405281 -0.499006 0)
(0.458787 -0.539825 0)
(0.554881 -0.530352 0)
(0.612387 -0.541688 0)
(0.637971 -0.499801 0)
(0.613073 -0.381799 0)
(0.495473 -0.114561 0)
(0.402825 0.094972 0)
(0.445826 0.227602 0)
(0.514228 0.257924 0)
(0.655368 0.279373 0)
(0.785952 0.208911 0)
(0.0181687 -0.373914 0)
(0.0542075 -0.377816 0)
(0.0894969 -0.384246 0)
(0.124683 -0.393328 0)
(0.159857 -0.406417 0)
(0.193947 -0.422163 0)
(0.229593 -0.442433 0)
(0.268367 -0.467378 0)
(0.303636 -0.492843 0)
(0.348331 -0.53163 0)
(0.390777 -0.546379 0)
(0.431272 -0.598244 0)
(0.519007 -0.587825 0)
(0.5536 -0.573658 0)
(0.562665 -0.499547 0)
(0.470076 -0.310598 0)
(0.34079 -0.0554582 0)
(0.320574 0.0762523 0)
(0.391546 0.147716 0)
(0.480821 0.150058 0)
(0.625495 0.124921 0)
(0.746457 0.0757497 0)
(0.0157353 -0.396059 0)
(0.0472429 -0.39931 0)
(0.0794685 -0.405277 0)
(0.110902 -0.413625 0)
(0.143127 -0.426285 0)
(0.175187 -0.442039 0)
(0.2064 -0.462042 0)
(0.237705 -0.486061 0)
(0.264374 -0.513872 0)
(0.300032 -0.557174 0)
(0.330593 -0.583098 0)
(0.380249 -0.642968 0)
(0.462133 -0.617158 0)
(0.470126 -0.580693 0)
(0.426685 -0.455336 0)
(0.275441 -0.206129 0)
(0.227314 -0.0326832 0)
(0.262286 0.0248579 0)
(0.354881 0.0532229 0)
(0.459768 0.0312877 0)
(0.59286 -0.00428695 0)
(0.690482 -0.0386488 0)
(0.0146013 -0.429835 0)
(0.043989 -0.434329 0)
(0.0727361 -0.440166 0)
(0.102067 -0.449805 0)
(0.129773 -0.461207 0)
(0.157275 -0.477324 0)
(0.183319 -0.496395 0)
(0.209246 -0.519675 0)
(0.235252 -0.550505 0)
(0.261916 -0.588673 0)
(0.290935 -0.622395 0)
(0.329607 -0.672193 0)
(0.386897 -0.643592 0)
(0.36824 -0.567881 0)
(0.241576 -0.365273 0)
(0.138044 -0.163213 0)
(0.16399 -0.0744778 0)
(0.236542 -0.0576385 0)
(0.335426 -0.0539868 0)
(0.444747 -0.0840342 0)
(0.555168 -0.114859 0)
(0.64351 -0.152105 0)
(0.778909 -0.198584 0)
(0.0129496 -0.457411 0)
(0.0386009 -0.460891 0)
(0.064483 -0.466671 0)
(0.0897685 -0.474486 0)
(0.115516 -0.486783 0)
(0.139805 -0.500748 0)
(0.16359 -0.518575 0)
(0.183743 -0.539962 0)
(0.202766 -0.56618 0)
(0.217314 -0.600412 0)
(0.230316 -0.637167 0)
(0.231829 -0.688702 0)
(0.259579 -0.64689 0)
(0.171078 -0.500669 0)
(0.04719 -0.271968 0)
(0.0630959 -0.173214 0)
(0.126899 -0.144752 0)
(0.229059 -0.153104 0)
(0.320901 -0.159049 0)
(0.427459 -0.185558 0)
(0.514539 -0.211176 0)
(0.610704 -0.246624 0)
(0.712226 -0.271638 0)
(0.0115544 -0.476266 0)
(0.0346536 -0.479972 0)
(0.0574774 -0.485003 0)
(0.0808401 -0.492823 0)
(0.103667 -0.502012 0)
(0.125996 -0.514598 0)
(0.146501 -0.528533 0)
(0.162152 -0.545292 0)
(0.176072 -0.5691 0)
(0.164728 -0.602584 0)
(0.133098 -0.644011 0)
(0.0835858 -0.694511 0)
(0.0599823 -0.597509 0)
(-0.0441578 -0.403424 0)
(-0.0332192 -0.275211 0)
(0.0319644 -0.246097 0)
(0.130079 -0.241815 0)
(0.225813 -0.246209 0)
(0.308619 -0.252493 0)
(0.413661 -0.26704 0)
(0.477207 -0.287946 0)
(0.591412 -0.340174 0)
(0.638647 -0.444606 0)
(0.010947 -0.498521 0)
(0.0324602 -0.502525 0)
(0.0537112 -0.50927 0)
(0.0739682 -0.520117 0)
(0.0945904 -0.53616 0)
(0.114993 -0.557699 0)
(0.134453 -0.586743 0)
(0.147803 -0.623169 0)
(0.151251 -0.662744 0)
(0.0996429 -0.731324 0)
(-0.00448429 -0.747045 0)
(-0.122728 -0.735842 0)
(-0.130688 -0.554656 0)
(-0.121211 -0.399324 0)
(-0.0459327 -0.347688 0)
(0.0458642 -0.33215 0)
(0.137353 -0.325332 0)
(0.224168 -0.321021 0)
(0.302265 -0.342148 0)
(0.401137 -0.376977 0)
(0.4331 -0.463552 0)
(0.471056 -0.617151 0)
(0.377517 -0.905938 0)
(0.00974552 -0.619423 0)
(0.0280794 -0.626135 0)
(0.0451196 -0.637295 0)
(0.0594947 -0.654858 0)
(0.070898 -0.677738 0)
(0.0815886 -0.707963 0)
(0.0905539 -0.756332 0)
(0.0942245 -0.814344 0)
(0.0792256 -0.868695 0)
(-0.0292541 -0.93892 0)
(-0.181833 -0.867393 0)
(-0.270705 -0.773019 0)
(-0.188378 -0.666116 0)
(-0.125827 -0.556502 0)
(-0.00768524 -0.531684 0)
(0.0697233 -0.503089 0)
(0.144452 -0.493546 0)
(0.208273 -0.510257 0)
(0.256367 -0.56518 0)
(0.276242 -0.665343 0)
(0.261279 -0.839404 0)
(0.201906 -1.06443 0)
(0.175988 -1.30912 0)
(0.00563266 -0.866578 0)
(0.0137856 -0.878722 0)
(0.0213174 -0.900646 0)
(0.0272073 -0.934829 0)
(0.0283946 -0.985865 0)
(0.0203151 -1.05598 0)
(0.00606311 -0.976925 0)
(-0.0458619 -0.737345 0)
(-0.149168 -0.573339 0)
(-0.172689 -0.946714 0)
(-0.378594 -1.1637 0)
(-0.392698 -1.16597 0)
(-0.182741 -1.06387 0)
(-0.0289601 -0.89731 0)
(0.0357679 -0.854637 0)
(0.0706982 -0.801033 0)
(0.109261 -0.811961 0)
(0.126592 -0.882962 0)
(0.0949867 -1.06473 0)
(0.0809749 -1.14048 0)
(0.0632287 -1.39377 0)
(-0.426112 -0.424158 0)
(-0.449217 -0.39858 0)
(-0.0305616 -0.216297 0)
(-0.0981989 -0.194341 0)
(-0.175249 -0.150533 0)
(-0.269957 -0.132985 0)
(-0.373298 -0.193966 0)
(-0.465262 -0.38352 0)
(-0.495632 -0.64904 0)
(-0.451456 -0.830799 0)
(-0.395527 -0.805882 0)
(-0.25932 -0.872221 0)
(-0.108498 -1.41212 0)
(-0.132133 -1.81209 0)
(-0.0854901 -1.97051 0)
(0.0803594 -1.64442 0)
(0.0274135 -1.49225 0)
(0.046027 -1.40535 0)
(0.0338394 -1.42945 0)
(0.00459307 -1.51731 0)
(-0.238995 -0.981305 0)
(-0.472096 -0.567544 0)
(-0.287992 -0.578931 0)
(-0.169687 -0.302773 0)
(-0.446387 0.102811 0)
(-0.0203356 -0.833413 0)
(-0.0570023 -0.834119 0)
(-0.0815757 -0.827043 0)
(-0.0914664 -0.807399 0)
(-0.0912294 -0.771591 0)
(-0.074984 -0.712777 0)
(-0.056421 -0.627555 0)
(-0.0573582 -0.545892 0)
(-0.0791683 -0.477575 0)
(-0.0723356 -0.405225 0)
(-0.0314831 -0.507087 0)
(-0.152746 -0.796008 0)
(-0.270532 -0.798498 0)
(-0.362846 -0.703347 0)
(-0.381471 -0.652276 0)
(-0.357651 -0.642996 0)
(-0.295375 -0.666875 0)
(-0.165218 -0.666402 0)
(-0.0267856 -0.577392 0)
(-0.0223637 -0.395334 0)
(-0.219728 -0.0782318 0)
(-0.490688 0.105973 0)
(-0.576388 0.108821 0)
(-0.00578768 -0.233257 0)
(-0.0149829 -0.247184 0)
(-0.0239945 -0.261647 0)
(-0.0392294 -0.283451 0)
(-0.055287 -0.31178 0)
(-0.0718784 -0.349308 0)
(-0.0895262 -0.40071 0)
(-0.114509 -0.4542 0)
(-0.146267 -0.495705 0)
(-0.153859 -0.525613 0)
(-0.159209 -0.573728 0)
(-0.258218 -0.599131 0)
(-0.34137 -0.485426 0)
(-0.368072 -0.369615 0)
(-0.338479 -0.3122 0)
(-0.282593 -0.336596 0)
(-0.224146 -0.35547 0)
(-0.20124 -0.344932 0)
(-0.257093 -0.228887 0)
(-0.422488 -0.0813528 0)
(-0.580214 0.0180706 0)
(-0.595289 0.0641792 0)
(-0.572651 0.117167 0)
(-0.00569462 -0.445027 0)
(-0.0167012 -0.459362 0)
(-0.0267166 -0.467969 0)
(-0.0395187 -0.478377 0)
(-0.0524769 -0.489672 0)
(-0.0676624 -0.500434 0)
(-0.0867162 -0.510915 0)
(-0.113532 -0.520304 0)
(-0.145574 -0.522161 0)
(-0.168585 -0.518877 0)
(-0.211546 -0.534001 0)
(-0.278169 -0.5238 0)
(-0.336973 -0.4858 0)
(-0.3567 -0.44536 0)
(-0.366109 -0.445059 0)
(-0.381213 -0.468282 0)
)
;

boundaryField
{
    leftWall
    {
        type            fixedValue;
        value           uniform (0 0 0);
    }
    rightWall
    {
        type            fixedValue;
        value           nonuniform 0();
    }
    lowerWall
    {
        type            fixedValue;
        value           uniform (0 0 0);
    }
    atmosphere
    {
        type            fluxCorrectedVelocity;
        value           nonuniform 0();
    }
    defaultFaces
    {
        type            empty;
    }
    procBoundary0to1
    {
        type            processor;
        value           nonuniform List<vector> 
26
(
(0.108978 0.19799 0)
(0.173411 0.505928 0)
(0.208304 0.709972 0)
(0.251252 0.9819 0)
(0.280708 1.17787 0)
(0.246745 1.43924 0)
(0.292572 1.55607 0)
(0.335263 1.62933 0)
(0.830632 1.54347 0)
(1.07356 1.20945 0)
(1.23161 0.938588 0)
(1.10565 0.651798 0)
(1.03272 0.397749 0)
(0.963047 0.195194 0)
(0.878439 0.0552074 0)
(0.823501 -0.0842757 0)
(0.823501 -0.0842757 0)
(0.822525 -0.248178 0)
(0.759999 -0.339647 0)
(0.690977 -0.603657 0)
(0.472211 -0.933314 0)
(-0.234466 -0.334769 0)
(-0.385304 0.0455295 0)
(-0.541781 0.132896 0)
(-0.5676 0.151077 0)
(-0.557285 0.140777 0)
)
;
    }
    procBoundary0to2
    {
        type            processor;
        value           nonuniform List<vector> 
24
(
(-0.417327 -0.473345 0)
(-0.496054 -0.405405 0)
(-0.581502 -0.236144 0)
(-0.620811 -0.0506656 0)
(-0.627789 0.033372 0)
(-0.605437 0.0683607 0)
(-0.566184 0.0952631 0)
(-0.00340646 -0.437631 0)
(-0.0111275 -0.448659 0)
(-0.0201046 -0.450402 0)
(-0.032164 -0.452987 0)
(-0.0470381 -0.457245 0)
(-0.0661829 -0.463182 0)
(-0.0903659 -0.469422 0)
(-0.120892 -0.47433 0)
(-0.154875 -0.475068 0)
(-0.190041 -0.473235 0)
(-0.239014 -0.477095 0)
(-0.291334 -0.483578 0)
(-0.338655 -0.473954 0)
(-0.364235 -0.452729 0)
(-0.391899 -0.446216 0)
(-0.417327 -0.473345 0)
(-0.432023 -0.445335 0)
)
;
    }
}


// ************************************************************************* //
