/*--------------------------------*- C++ -*----------------------------------*\
| =========                 |                                                 |
| \\      /  F ield         | OpenFOAM: The Open Source CFD Toolbox           |
|  \\    /   O peration     | Version:  2.4.0                                 |
|   \\  /    A nd           | Web:      www.OpenFOAM.org                      |
|    \\/     M anipulation  |                                                 |
\*---------------------------------------------------------------------------*/
FoamFile
{
    version     2.0;
    format      ascii;
    class       volVectorField;
    location    "0.2";
    object      U.water;
}
// * * * * * * * * * * * * * * * * * * * * * * * * * * * * * * * * * * * * * //

dimensions      [0 1 -1 0 0 0 0];

internalField   nonuniform List<vector> 
575
(
(0.0178452 -0.00843079 0)
(0.053662 -0.00851942 0)
(0.0903348 -0.00868662 0)
(0.126779 -0.00896534 0)
(0.167866 -0.00923574 0)
(0.202285 -0.00974931 0)
(0.254146 -0.00991871 0)
(0.286006 -0.0123427 0)
(0.348863 -0.0091663 0)
(0.383497 -0.0143497 0)
(0.442861 -0.0165405 0)
(0.527875 -0.0143947 0)
(0.588766 -0.0128634 0)
(0.627159 -0.013221 0)
(0.688095 -0.01478 0)
(0.753037 -0.0196737 0)
(0.848565 -0.0155311 0)
(0.899376 -0.0186129 0)
(0.952669 -0.00228092 0)
(0.929937 0.0166609 0)
(0.845943 0.0511918 0)
(0.570277 0.119818 0)
(0.0178121 -0.0252855 0)
(0.053572 -0.0255605 0)
(0.0901787 -0.0260623 0)
(0.126593 -0.0269228 0)
(0.167628 -0.0275715 0)
(0.20177 -0.0298639 0)
(0.254041 -0.028087 0)
(0.286481 -0.0396936 0)
(0.346342 -0.0258463 0)
(0.383943 -0.0406127 0)
(0.445644 -0.0517099 0)
(0.528915 -0.0463053 0)
(0.582014 -0.038413 0)
(0.619763 -0.0395435 0)
(0.68696 -0.044964 0)
(0.770595 -0.0512115 0)
(0.868007 -0.0463861 0)
(0.935912 -0.0305213 0)
(0.983627 0.00389004 0)
(0.96075 0.0338533 0)
(0.875814 0.114803 0)
(0.602948 0.198915 0)
(0.0177282 -0.0420794 0)
(0.0533282 -0.0425373 0)
(0.0897544 -0.0433794 0)
(0.126095 -0.0448115 0)
(0.166836 -0.0459247 0)
(0.200841 -0.0492674 0)
(0.253204 -0.0488423 0)
(0.284813 -0.061292 0)
(0.34405 -0.0466282 0)
(0.384291 -0.0696385 0)
(0.446673 -0.0853494 0)
(0.525142 -0.071867 0)
(0.573895 -0.0598745 0)
(0.619026 -0.066342 0)
(0.696701 -0.0739515 0)
(0.790686 -0.0731912 0)
(0.893717 -0.0481704 0)
(0.954535 0.00736198 0)
(0.995684 0.0621244 0)
(0.976182 0.152641 0)
(0.92501 0.314108 0)
(0.647675 0.423975 0)
(0.0176028 -0.0587799 0)
(0.0529633 -0.0594223 0)
(0.0891198 -0.0606202 0)
(0.125385 -0.0626049 0)
(0.165519 -0.0641331 0)
(0.199948 -0.068934 0)
(0.251096 -0.0681976 0)
(0.282696 -0.0842465 0)
(0.341271 -0.0679078 0)
(0.383957 -0.0951369 0)
(0.444359 -0.118393 0)
(0.51496 -0.101393 0)
(0.566005 -0.0803117 0)
(0.635424 -0.0784667 0)
(0.739838 -0.0404583 0)
(0.853598 0.0409106 0)
(0.936439 0.0571129 0)
(0.978791 0.0884327 0)
(1.01013 0.17183 0)
(0.914205 0.277275 0)
(0.818163 0.52256 0)
(0.621843 0.598836 0)
(0.0174332 -0.0753672 0)
(0.0524645 -0.0761947 0)
(0.0882695 -0.0777731 0)
(0.124399 -0.0802688 0)
(0.163829 -0.0823413 0)
(0.19856 -0.0881433 0)
(0.248621 -0.0884908 0)
(0.278952 -0.104865 0)
(0.337753 -0.0903587 0)
(0.383393 -0.12438 0)
(0.437918 -0.141691 0)
(0.502254 -0.109954 0)
(0.574922 -0.0796236 0)
(0.703909 0.022886 0)
(0.795357 0.0137544 0)
(0.866036 -0.0141009 0)
(0.907271 -0.0237961 0)
(0.934822 -0.00543938 0)
(0.910457 0.0708576 0)
(0.788023 0.310052 0)
(0.676374 0.595322 0)
(0.413213 0.919009 0)
(0.0172128 -0.0916864 0)
(0.0518075 -0.0927075 0)
(0.0871742 -0.0947027 0)
(0.123074 -0.0977017 0)
(0.161684 -0.100328 0)
(0.196706 -0.107406 0)
(0.245458 -0.107884 0)
(0.274445 -0.125035 0)
(0.336413 -0.115347 0)
(0.375509 -0.134966 0)
(0.439762 -0.13865 0)
(0.512574 -0.0527283 0)
(0.62268 0.00365222 0)
(0.740958 -0.0101268 0)
(0.806106 -0.0475164 0)
(0.832404 -0.0630684 0)
(0.850439 -0.050007 0)
(0.920558 -0.0410479 0)
(0.919557 -0.0121283 0)
(0.867801 0.0565528 0)
(0.538602 0.4912 0)
(0.228962 0.993888 0)
(0.0169316 -0.107527 0)
(0.0509601 -0.108742 0)
(0.0858055 -0.111157 0)
(0.121327 -0.114565 0)
(0.159099 -0.117623 0)
(0.194411 -0.125612 0)
(0.241763 -0.125811 0)
(0.270466 -0.142973 0)
(0.335353 -0.117583 0)
(0.382965 -0.107065 0)
(0.473274 -0.0187258 0)
(0.525982 -0.0317392 0)
(0.64503 -0.0651 0)
(0.736643 -0.0852001 0)
(0.74801 -0.0764724 0)
(0.785292 -0.118276 0)
(0.892262 -0.267348 0)
(0.972001 -0.255382 0)
(1.01472 -0.148259 0)
(0.958108 0.00526844 0)
(0.708125 0.330687 0)
(0.200952 0.949398 0)
(0.0166264 -0.104141 0)
(0.0500287 -0.105457 0)
(0.0843851 -0.108128 0)
(0.119469 -0.111672 0)
(0.156676 -0.114958 0)
(0.192446 -0.124002 0)
(0.238713 -0.123238 0)
(0.270845 -0.140846 0)
(0.351974 -0.0642535 0)
(0.404728 -0.024711 0)
(0.461662 -0.0597044 0)
(0.529186 -0.101704 0)
(0.630954 -0.136827 0)
(0.658329 -0.117787 0)
(0.661114 -0.187988 0)
(0.77078 -0.323615 0)
(0.913638 -0.316203 0)
(0.96236 -0.211498 0)
(0.965527 -0.0621753 0)
(0.873018 0.111517 0)
(0.861402 0.407045 0)
(0.270742 0.956592 0)
(0.0180747 0.021142 0)
(0.0544056 0.0195375 0)
(0.0922296 0.0158166 0)
(0.130615 0.00998894 0)
(0.172066 0.00139578 0)
(0.214533 -0.0188817 0)
(0.263683 -0.0315422 0)
(0.309469 -0.0654194 0)
(0.353821 -0.0852439 0)
(0.40385 -0.112866 0)
(0.424553 -0.156033 0)
(0.496726 -0.174403 0)
(0.491348 -0.124593 0)
(0.522042 -0.195768 0)
(0.639735 -0.342606 0)
(0.770269 -0.385208 0)
(0.854592 -0.339828 0)
(0.877437 -0.209968 0)
(0.826503 -0.0544078 0)
(0.751486 0.143681 0)
(0.857449 0.438779 0)
(0.612384 0.998941 0)
(0.018479 -0.0572905 0)
(0.0548389 -0.0618717 0)
(0.0911897 -0.0700608 0)
(0.123963 -0.0797447 0)
(0.158282 -0.0908066 0)
(0.193533 -0.109063 0)
(0.226026 -0.121895 0)
(0.271524 -0.13888 0)
(0.288328 -0.141147 0)
(0.341943 -0.134959 0)
(0.382732 -0.164615 0)
(0.440972 -0.213073 0)
(0.495835 -0.335998 0)
(0.627676 -0.418454 0)
(0.730427 -0.450835 0)
(0.802353 -0.440918 0)
(0.829782 -0.375334 0)
(0.820133 -0.213206 0)
(0.757055 0.0231923 0)
(0.735881 0.172414 0)
(0.695506 0.498195 0)
(0.826707 1.03389 0)
(0.0137797 -0.12463 0)
(0.0413471 -0.125691 0)
(0.0706548 -0.125728 0)
(0.0990495 -0.123164 0)
(0.135123 -0.121091 0)
(0.167196 -0.121913 0)
(0.20395 -0.13423 0)
(0.25165 -0.173505 0)
(0.312399 -0.2244 0)
(0.381616 -0.3305 0)
(0.471039 -0.401038 0)
(0.532433 -0.429954 0)
(0.605249 -0.455853 0)
(0.679203 -0.476817 0)
(0.745761 -0.489919 0)
(0.778548 -0.464912 0)
(0.792172 -0.374193 0)
(0.758733 -0.151514 0)
(0.704607 0.0885698 0)
(0.710201 0.209928 0)
(0.694298 0.459368 0)
(0.812531 0.800899 0)
(0.0188316 -0.189888 0)
(0.0556988 -0.200281 0)
(0.0951588 -0.213587 0)
(0.136324 -0.244348 0)
(0.181703 -0.271583 0)
(0.232155 -0.31744 0)
(0.284746 -0.351991 0)
(0.343516 -0.384339 0)
(0.398917 -0.392334 0)
(0.451055 -0.420693 0)
(0.502752 -0.424085 0)
(0.541683 -0.432294 0)
(0.595763 -0.482113 0)
(0.648865 -0.529633 0)
(0.698276 -0.529654 0)
(0.729402 -0.484022 0)
(0.725506 -0.35436 0)
(0.656711 -0.115041 0)
(0.62984 0.10008 0)
(0.667378 0.198656 0)
(0.703283 0.401056 0)
(0.816648 0.54856 0)
(0.0222055 -0.322756 0)
(0.0657137 -0.324699 0)
(0.110163 -0.326415 0)
(0.152353 -0.333117 0)
(0.196572 -0.338362 0)
(0.242281 -0.347006 0)
(0.284628 -0.357654 0)
(0.331047 -0.374658 0)
(0.364302 -0.390389 0)
(0.406455 -0.437043 0)
(0.449901 -0.448803 0)
(0.480317 -0.492118 0)
(0.535384 -0.552924 0)
(0.594238 -0.58273 0)
(0.6407 -0.565695 0)
(0.654704 -0.495711 0)
(0.614687 -0.30529 0)
(0.536058 -0.0811958 0)
(0.541613 0.084801 0)
(0.604562 0.165058 0)
(0.681924 0.376839 0)
(0.800297 0.370245 0)
(0.0194696 -0.30658 0)
(0.0587535 -0.311303 0)
(0.0976471 -0.31883 0)
(0.137662 -0.330574 0)
(0.174703 -0.344969 0)
(0.212764 -0.363167 0)
(0.245486 -0.384896 0)
(0.282418 -0.411706 0)
(0.316568 -0.433665 0)
(0.361227 -0.484961 0)
(0.404626 -0.499161 0)
(0.455141 -0.549396 0)
(0.525087 -0.606455 0)
(0.578208 -0.618443 0)
(0.600757 -0.582972 0)
(0.579811 -0.479942 0)
(0.490225 -0.254716 0)
(0.431962 -0.0830391 0)
(0.468342 0.031945 0)
(0.53405 0.177333 0)
(0.655833 0.27806 0)
(0.786165 0.209164 0)
(0.0181686 -0.373915 0)
(0.0542073 -0.377817 0)
(0.0894965 -0.384247 0)
(0.124683 -0.393329 0)
(0.159857 -0.406417 0)
(0.193946 -0.422163 0)
(0.229592 -0.442433 0)
(0.268366 -0.467377 0)
(0.303636 -0.492842 0)
(0.348314 -0.531628 0)
(0.389994 -0.546552 0)
(0.425098 -0.611865 0)
(0.484835 -0.660697 0)
(0.518128 -0.651466 0)
(0.525757 -0.589633 0)
(0.45624 -0.42769 0)
(0.360793 -0.21825 0)
(0.347128 -0.10358 0)
(0.400609 0.0273529 0)
(0.481386 0.14419 0)
(0.625491 0.124879 0)
(0.746442 0.0757401 0)
(0.0157352 -0.39606 0)
(0.0472427 -0.399311 0)
(0.0794683 -0.405277 0)
(0.110902 -0.413626 0)
(0.143126 -0.426285 0)
(0.175187 -0.442039 0)
(0.2064 -0.462041 0)
(0.237705 -0.48606 0)
(0.264374 -0.51387 0)
(0.300014 -0.557172 0)
(0.329633 -0.583525 0)
(0.369642 -0.664868 0)
(0.427329 -0.685186 0)
(0.435735 -0.66141 0)
(0.400158 -0.556192 0)
(0.282905 -0.342128 0)
(0.243966 -0.199112 0)
(0.274326 -0.1195 0)
(0.354805 0.0403804 0)
(0.459697 0.0311616 0)
(0.592854 -0.00428865 0)
(0.690476 -0.0386476 0)
(0.0146012 -0.429835 0)
(0.0439888 -0.434329 0)
(0.0727359 -0.440166 0)
(0.102067 -0.449805 0)
(0.129773 -0.461207 0)
(0.157275 -0.477323 0)
(0.18332 -0.496394 0)
(0.209247 -0.519674 0)
(0.235253 -0.550504 0)
(0.261811 -0.588689 0)
(0.289351 -0.624226 0)
(0.332913 -0.716132 0)
(0.364784 -0.716714 0)
(0.351826 -0.661785 0)
(0.252167 -0.492458 0)
(0.164695 -0.316335 0)
(0.181532 -0.229798 0)
(0.238555 -0.0818807 0)
(0.335252 -0.0544084 0)
(0.444744 -0.0840374 0)
(0.555165 -0.114859 0)
(0.643507 -0.152102 0)
(0.778907 -0.198579 0)
(0.0129495 -0.457409 0)
(0.0386007 -0.460889 0)
(0.0644829 -0.46667 0)
(0.0897685 -0.474484 0)
(0.115516 -0.486781 0)
(0.139806 -0.500746 0)
(0.16359 -0.518572 0)
(0.183744 -0.539959 0)
(0.202762 -0.56618 0)
(0.216714 -0.601261 0)
(0.235207 -0.653187 0)
(0.251986 -0.750167 0)
(0.254179 -0.733748 0)
(0.180282 -0.61535 0)
(0.0656884 -0.39957 0)
(0.0757067 -0.307161 0)
(0.134046 -0.181153 0)
(0.228885 -0.154104 0)
(0.320892 -0.159067 0)
(0.427456 -0.185559 0)
(0.514537 -0.211176 0)
(0.610703 -0.246623 0)
(0.712227 -0.271633 0)
(0.0115543 -0.476263 0)
(0.0346535 -0.479968 0)
(0.0574774 -0.485 0)
(0.0808403 -0.49282 0)
(0.103667 -0.502009 0)
(0.125997 -0.514595 0)
(0.146501 -0.528531 0)
(0.162152 -0.545292 0)
(0.175931 -0.56921 0)
(0.165548 -0.602194 0)
(0.171932 -0.666016 0)
(0.108026 -0.763347 0)
(0.0857245 -0.704219 0)
(-0.0259531 -0.521404 0)
(-0.0112734 -0.396445 0)
(0.0459283 -0.304097 0)
(0.130283 -0.244643 0)
(0.225777 -0.246304 0)
(0.308615 -0.252502 0)
(0.41366 -0.267041 0)
(0.477208 -0.287942 0)
(0.591451 -0.340064 0)
(0.639086 -0.443313 0)
(0.0109469 -0.498538 0)
(0.0324597 -0.502546 0)
(0.0537098 -0.509297 0)
(0.0739644 -0.520158 0)
(0.0945795 -0.536229 0)
(0.114965 -0.557831 0)
(0.134397 -0.587015 0)
(0.147721 -0.623739 0)
(0.151408 -0.663485 0)
(0.123395 -0.709941 0)
(0.0651268 -0.773574 0)
(-0.0984638 -0.841089 0)
(-0.115357 -0.660536 0)
(-0.0974974 -0.497519 0)
(-0.0284329 -0.439517 0)
(0.0465861 -0.337945 0)
(0.137306 -0.326116 0)
(0.224164 -0.321029 0)
(0.302282 -0.342084 0)
(0.401229 -0.376619 0)
(0.433505 -0.461875 0)
(0.472996 -0.611397 0)
(0.383639 -0.881973 0)
(0.00974775 -0.621104 0)
(0.0280858 -0.627963 0)
(0.0451309 -0.639446 0)
(0.0595004 -0.65757 0)
(0.0708038 -0.681356 0)
(0.0810049 -0.712858 0)
(0.0890522 -0.762681 0)
(0.0918918 -0.82332 0)
(0.0830664 -0.892569 0)
(0.0356976 -0.978899 0)
(-0.14908 -1.07285 0)
(-0.384433 -1.12285 0)
(-0.169484 -0.727935 0)
(-0.123118 -0.62167 0)
(-0.00668507 -0.53296 0)
(0.0697288 -0.502444 0)
(0.14445 -0.491922 0)
(0.208363 -0.507617 0)
(0.257198 -0.560422 0)
(0.278935 -0.655929 0)
(0.266276 -0.808543 0)
(0.208908 -0.78519 0)
(-0.0786158 0.0648567 0)
(0.00543024 -0.890821 0)
(0.0130813 -0.905801 0)
(0.0198308 -0.93461 0)
(0.0243273 -0.983503 0)
(0.0231158 -1.06836 0)
(0.0140821 -1.22437 0)
(0.0151672 -1.32918 0)
(0.0147811 -1.45581 0)
(0.00240848 -1.64422 0)
(-0.0543257 -1.96847 0)
(-0.432214 -1.88854 0)
(-0.366586 -1.37997 0)
(-0.183728 -1.06512 0)
(-0.046697 -0.876042 0)
(0.0341439 -0.829627 0)
(0.0707017 -0.780924 0)
(0.110118 -0.787154 0)
(0.12863 -0.839477 0)
(0.0960806 -0.93557 0)
(0.0326389 -0.539477 0)
(-0.328451 0.301408 0)
(-0.576589 -0.294567 0)
(-0.438777 -0.397221 0)
(0.00570604 -1.65657 0)
(-0.00319833 -1.67565 0)
(-0.00723296 -1.76999 0)
(-0.0164214 -1.87798 0)
(-0.0545938 -1.93726 0)
(-0.211266 -1.47671 0)
(-0.398766 -0.860442 0)
(-0.427866 -0.877692 0)
(-0.355642 -0.912007 0)
(-0.155474 -0.814005 0)
(0.161267 -0.912871 0)
(0.440683 -0.906527 0)
(0.255011 -0.628748 0)
(0.159031 -0.456829 0)
(-0.0059249 -0.357086 0)
(-0.115097 -0.314201 0)
(-0.258823 -0.16769 0)
(-0.459674 0.047564 0)
(-0.618039 -0.0884263 0)
(-0.524379 -0.54396 0)
(-0.264073 -0.581022 0)
(-0.153156 -0.271798 0)
(-0.446301 0.110358 0)
(-0.0140672 -0.836753 0)
(-0.0598811 -0.830845 0)
(-0.0836722 -0.821326 0)
(-0.0928928 -0.803406 0)
(-0.0920192 -0.769168 0)
(-0.0751946 -0.711035 0)
(-0.0572788 -0.639985 0)
(-0.0552649 -0.529548 0)
(-0.077734 -0.449067 0)
(-0.0742929 -0.392467 0)
(-0.0324759 -0.503837 0)
(-0.153442 -0.796528 0)
(-0.269135 -0.808033 0)
(-0.362498 -0.709834 0)
(-0.378354 -0.661958 0)
(-0.347461 -0.662826 0)
(-0.275407 -0.683677 0)
(-0.145546 -0.676016 0)
(-0.00426224 -0.586061 0)
(-0.0133458 -0.364568 0)
(-0.220527 -0.0590068 0)
(-0.490435 0.110439 0)
(-0.575467 0.112687 0)
(-0.00572877 -0.235011 0)
(-0.014926 -0.248026 0)
(-0.0239328 -0.262069 0)
(-0.0391612 -0.283729 0)
(-0.0552086 -0.31201 0)
(-0.0718161 -0.349616 0)
(-0.0895053 -0.401008 0)
(-0.114556 -0.45379 0)
(-0.146282 -0.494901 0)
(-0.153795 -0.52489 0)
(-0.159171 -0.573448 0)
(-0.258077 -0.599099 0)
(-0.340839 -0.485062 0)
(-0.366243 -0.365301 0)
(-0.337296 -0.303271 0)
(-0.282723 -0.316901 0)
(-0.224568 -0.336432 0)
(-0.202785 -0.328158 0)
(-0.254 -0.217553 0)
(-0.423267 -0.0776593 0)
(-0.579549 0.0215926 0)
(-0.593438 0.0691005 0)
(-0.572118 0.119629 0)
(-0.00569792 -0.445094 0)
(-0.0167035 -0.459391 0)
(-0.0267183 -0.467995 0)
(-0.0395203 -0.478406 0)
(-0.0524788 -0.489713 0)
(-0.0676635 -0.5005 0)
(-0.0867143 -0.510961 0)
(-0.11353 -0.520224 0)
(-0.145572 -0.52207 0)
(-0.168585 -0.518833 0)
(-0.211544 -0.533996 0)
(-0.278154 -0.523783 0)
(-0.336955 -0.485642 0)
(-0.356719 -0.445078 0)
(-0.365867 -0.445502 0)
(-0.379929 -0.468293 0)
)
;

boundaryField
{
    leftWall
    {
        type            fixedValue;
        value           uniform (0 0 0);
    }
    rightWall
    {
        type            fixedValue;
        value           nonuniform 0();
    }
    lowerWall
    {
        type            fixedValue;
        value           uniform (0 0 0);
    }
    atmosphere
    {
        type            fluxCorrectedVelocity;
        value           nonuniform 0();
    }
    defaultFaces
    {
        type            empty;
    }
    procBoundary0to1
    {
        type            processor;
        value           nonuniform List<vector> 
26
(
(0.255598 0.0315765 0)
(0.304207 0.301359 0)
(0.338746 0.485292 0)
(0.360426 0.718022 0)
(0.348069 0.889099 0)
(0.307531 1.16863 0)
(0.333047 1.35297 0)
(0.353069 1.48624 0)
(0.637595 1.48563 0)
(0.851661 1.31245 0)
(1.04797 1.13367 0)
(1.07665 0.846203 0)
(1.03455 0.449745 0)
(0.963065 0.195263 0)
(0.878425 0.0552079 0)
(0.823495 -0.0842709 0)
(0.823495 -0.0842709 0)
(0.822525 -0.248171 0)
(0.760012 -0.339617 0)
(0.692273 -0.600381 0)
(0.481021 -0.793756 0)
(-0.576878 -0.030548 0)
(-0.382118 0.0491127 0)
(-0.54175 0.13605 0)
(-0.567489 0.1521 0)
(-0.556968 0.141678 0)
)
;
    }
    procBoundary0to2
    {
        type            processor;
        value           nonuniform List<vector> 
24
(
(-0.413545 -0.472423 0)
(-0.490549 -0.402867 0)
(-0.574855 -0.226899 0)
(-0.621848 -0.0492219 0)
(-0.626866 0.0361596 0)
(-0.605184 0.070553 0)
(-0.565723 0.0970127 0)
(-0.00340645 -0.437648 0)
(-0.0111275 -0.448666 0)
(-0.0201046 -0.450406 0)
(-0.032164 -0.45299 0)
(-0.0470381 -0.457247 0)
(-0.0661829 -0.463182 0)
(-0.0903658 -0.469419 0)
(-0.120892 -0.474327 0)
(-0.154875 -0.475066 0)
(-0.190041 -0.473235 0)
(-0.239013 -0.477094 0)
(-0.291331 -0.483565 0)
(-0.338639 -0.473847 0)
(-0.364129 -0.451971 0)
(-0.391577 -0.444115 0)
(-0.413545 -0.472423 0)
(-0.430764 -0.439081 0)
)
;
    }
}


// ************************************************************************* //
