/*--------------------------------*- C++ -*----------------------------------*\
| =========                 |                                                 |
| \\      /  F ield         | OpenFOAM: The Open Source CFD Toolbox           |
|  \\    /   O peration     | Version:  2.4.0                                 |
|   \\  /    A nd           | Web:      www.OpenFOAM.org                      |
|    \\/     M anipulation  |                                                 |
\*---------------------------------------------------------------------------*/
FoamFile
{
    version     2.0;
    format      ascii;
    class       volScalarField;
    location    "0.9";
    object      alpha.oil;
}
// * * * * * * * * * * * * * * * * * * * * * * * * * * * * * * * * * * * * * //

dimensions      [0 0 0 0 0 0 0];

internalField   nonuniform List<scalar> 
575
(
3.04765e-06
7.31548e-06
4.25272e-06
1.62749e-06
1.07762e-06
1.28683e-06
1.31403e-06
1.35847e-06
5.88524e-07
7.47808e-07
8.83507e-07
9.44373e-07
1.9304e-07
2.36511e-07
2.60277e-07
3.088e-07
6.61692e-08
9.1109e-08
1.50463e-07
1.49046e-07
2.96005e-08
4.10236e-08
4.09694e-08
4.03426e-08
9.29424e-09
9.29218e-09
8.72562e-09
7.91342e-09
2.85624e-09
2.46867e-09
2.03927e-09
1.60702e-09
1.19083e-09
9.20272e-10
6.81802e-10
4.76054e-10
4.72904e-10
3.40278e-10
2.36824e-10
1.57603e-10
1.52123e-10
1.03149e-10
6.72859e-11
4.20878e-11
3.35286e-11
2.22264e-11
1.39581e-11
8.36927e-12
6.21355e-12
4.01831e-12
2.41488e-12
1.37518e-12
1.08127e-12
6.52515e-13
3.64344e-13
1.92382e-13
1.68636e-13
9.26039e-14
4.70741e-14
2.26889e-14
2.28812e-14
1.12614e-14
5.15819e-15
2.25354e-15
2.68047e-15
1.1714e-15
4.80678e-16
1.90814e-16
2.72413e-16
1.05049e-16
3.85379e-17
1.49629e-17
2.42318e-17
8.20992e-18
2.78016e-18
1.92664e-18
1.9032e-18
5.71271e-19
2.44376e-19
8.06062e-19
1.33745e-19
3.92099e-20
5.6464e-20
4.65986e-19
8.713e-21
4.19739e-21
2.44249e-20
2.49231e-19
5.83394e-22
1.07235e-21
1.09068e-20
1.22147e-19
5.86064e-23
3.97034e-22
4.77649e-21
6.01221e-20
4.21676e-23
6.11267e-22
9.24492e-21
1.39043e-19
1.66454e-06
2.30775e-06
2.2531e-06
1.00126e-06
2.59789e-07
1.0878e-07
5.35365e-08
7.02609e-08
1.22291e-07
5.11191e-07
1.5919e-06
2.03341e-06
1.85325e-06
9.34495e-07
5.97491e-07
4.89e-07
6.47089e-07
1.74052e-06
4.23526e-06
1.95461e-06
2.20199e-06
1.58942e-06
4.98161e-07
1.41791e-07
5.93829e-08
2.49543e-08
3.04297e-08
8.95758e-08
1.45463e-07
2.16331e-07
3.63797e-07
4.03508e-07
2.38269e-07
1.11613e-07
2.67699e-07
6.4997e-07
5.5453e-06
6.53553e-06
9.51679e-07
7.48579e-07
3.73488e-07
1.7162e-07
6.81829e-08
2.36834e-08
9.57095e-09
1.27424e-08
3.30623e-08
5.00582e-08
7.0979e-08
8.12399e-08
6.96183e-08
4.44018e-08
4.50227e-08
2.06744e-07
1.99813e-06
5.7718e-06
5.50238e-06
2.71305e-07
1.75347e-07
8.25411e-08
3.44431e-08
1.25705e-08
4.52462e-09
2.85461e-09
2.80894e-09
4.16223e-09
6.26962e-09
9.94376e-09
1.36086e-08
1.94819e-08
2.84692e-08
6.50707e-08
3.03714e-07
2.54942e-06
5.87999e-06
1.41565e-06
9.86352e-08
4.528e-08
1.77947e-08
6.15749e-09
1.98488e-09
8.04275e-10
6.08207e-10
7.35954e-10
8.99612e-10
1.77205e-09
4.0116e-09
8.41468e-09
2.19275e-08
5.563e-08
1.48071e-07
4.41269e-07
9.73297e-07
4.65477e-06
1.41643e-06
2.46471e-08
7.02632e-09
2.34865e-09
8.48238e-10
2.96189e-10
1.46392e-10
1.56472e-10
2.28121e-10
5.59021e-10
1.70177e-09
4.91417e-09
1.27567e-08
3.9701e-08
8.33848e-08
3.52293e-07
6.1596e-07
8.89467e-07
1.39578e-06
1.37009e-06
3.44202e-09
1.20083e-09
4.23297e-10
1.53006e-10
6.16945e-11
3.61137e-11
4.44055e-11
1.08678e-10
4.09474e-10
1.70877e-09
5.87039e-09
1.50066e-08
5.58319e-08
2.11443e-07
5.73935e-07
8.24001e-07
1.09758e-06
1.54479e-06
1.32325e-06
6.97407e-10
2.73428e-10
1.06616e-10
4.22936e-11
1.869e-11
1.30918e-11
2.21183e-11
6.70668e-11
2.80227e-10
1.28269e-09
6.59715e-09
2.0738e-08
6.80947e-08
5.95198e-07
1.05789e-06
1.08086e-06
1.32129e-06
1.80066e-06
1.23742e-06
2.1033e-10
8.68672e-11
3.39737e-11
1.30092e-11
5.79164e-12
5.34373e-12
1.40795e-11
5.11139e-11
1.97904e-10
1.13718e-09
8.54147e-09
3.50156e-08
8.79621e-08
1.4283e-06
1.02809e-05
5.76767e-06
3.06449e-06
2.35843e-06
1.85065e-06
6.49618e-11
2.47315e-11
8.89957e-12
3.20732e-12
1.66832e-12
3.04386e-12
1.28879e-11
4.87674e-11
1.81879e-10
1.13999e-09
9.7452e-09
4.15958e-08
1.33172e-07
1.84586e-06
2.66238e-05
2.69609e-05
1.89823e-05
1.3046e-05
3.37865e-06
1.59065e-11
5.54148e-12
1.83079e-12
6.75969e-13
7.23607e-13
2.95254e-12
1.53218e-11
5.85874e-11
2.31135e-10
1.42937e-09
1.00826e-08
4.31076e-08
1.52834e-07
1.60774e-06
2.44248e-05
3.60049e-05
3.60269e-05
2.40855e-05
3.21475e-06
2.93589e-12
9.45852e-13
3.00431e-13
1.79285e-13
6.03898e-13
3.5059e-12
1.99208e-11
8.55648e-11
3.93609e-10
2.25032e-09
1.12104e-08
4.51252e-08
1.44627e-07
8.97325e-07
2.30287e-06
2.8539e-05
3.5834e-05
8.78116e-06
1.46508e-06
4.42789e-13
1.32249e-13
4.99435e-14
1.04545e-13
6.55393e-13
4.41959e-12
2.72842e-11
1.33688e-10
7.08337e-10
3.65902e-09
1.46339e-08
5.15782e-08
1.24903e-07
6.88995e-07
1.36595e-06
1.98498e-06
4.20685e-06
2.0927e-06
7.46229e-07
5.59461e-14
1.64585e-14
1.62361e-14
1.00069e-13
7.78336e-13
5.8156e-12
3.83012e-11
2.01532e-10
1.17532e-09
5.97888e-09
2.25753e-08
6.8368e-08
1.50461e-07
5.92955e-07
9.68423e-07
1.35262e-06
2.48889e-06
1.22819e-06
5.40195e-07
6.00399e-15
2.71283e-15
1.23293e-14
1.09129e-13
9.50554e-13
7.65809e-12
5.26211e-11
2.85553e-10
1.83681e-09
9.43387e-09
3.40603e-08
9.75596e-08
3.31397e-07
6.54629e-07
8.51384e-07
1.14159e-06
1.72786e-06
9.19276e-07
4.09479e-07
6.15835e-16
1.19202e-15
1.14736e-14
1.16781e-13
1.11728e-12
9.57458e-12
6.73496e-11
3.82302e-10
2.62627e-09
1.35364e-08
4.68693e-08
1.57942e-07
5.72061e-07
8.92798e-07
1.05152e-06
1.81842e-06
1.16552e-06
7.38755e-07
1.96772e-07
1.0998e-16
9.05316e-16
1.07184e-14
1.20407e-13
1.23771e-12
1.0942e-11
7.64191e-11
4.67702e-10
3.26274e-09
1.70541e-08
5.78046e-08
2.60659e-07
8.01664e-07
1.19437e-06
2.01287e-06
3.25457e-06
1.00744e-06
3.80474e-07
1.04532e-07
5.51169e-17
7.35616e-16
9.58344e-15
1.14554e-13
1.21416e-12
1.06198e-11
7.04918e-11
4.94475e-10
3.44538e-09
1.8776e-08
6.41728e-08
2.81924e-07
8.73053e-07
1.60506e-06
2.95878e-06
2.70774e-06
6.26013e-07
1.88033e-07
4.49559e-08
3.62399e-17
5.39955e-16
7.41684e-15
9.09315e-14
9.5757e-13
8.07425e-12
4.8846e-11
3.97387e-10
2.44715e-09
1.11402e-08
4.34554e-08
1.85281e-07
6.71263e-07
9.43631e-07
1.73925e-06
7.6122e-07
3.03209e-07
5.88568e-08
1.21428e-08
2.14919e-17
3.35496e-16
4.73538e-15
5.8275e-14
6.04313e-13
4.9736e-12
3.03905e-11
2.59303e-10
1.30655e-09
4.68412e-09
1.63628e-08
7.05964e-08
3.68471e-07
4.9307e-07
5.44006e-07
3.07015e-07
1.30352e-07
1.93717e-08
4.11302e-09
1.09088e-17
1.75994e-16
2.54184e-15
3.16753e-14
3.32038e-13
2.78937e-12
1.75703e-11
1.55832e-10
7.19751e-10
2.46804e-09
5.33764e-09
2.06595e-08
1.25164e-07
1.53321e-07
1.50555e-07
9.47251e-08
4.84081e-08
1.15883e-08
3.65359e-09
4.86064e-18
8.22473e-17
1.25854e-15
1.6972e-14
1.99329e-13
1.95601e-12
1.53434e-11
1.21949e-10
6.12338e-10
1.96219e-09
2.72998e-09
4.15534e-09
2.0641e-08
3.11526e-08
2.9649e-08
1.98786e-08
1.09206e-08
7.21066e-09
3.50081e-09
2.05339e-18
3.96174e-17
7.26059e-16
1.20221e-14
1.70147e-13
1.89641e-12
1.56484e-11
1.00885e-10
4.41268e-10
1.02075e-09
1.01212e-09
5.06603e-10
2.15509e-09
4.81031e-09
5.42332e-09
4.17993e-09
3.87928e-09
3.71552e-09
2.42561e-09
1.00325e-18
2.78886e-17
6.63921e-16
1.2059e-14
1.64611e-13
1.64354e-12
1.16316e-11
5.69044e-11
1.19101e-10
1.57909e-10
1.30532e-10
9.0983e-11
1.76098e-10
4.05182e-10
6.65565e-10
8.87916e-10
1.1455e-09
1.40333e-09
1.04301e-09
1.89759e-18
4.28944e-17
7.30599e-16
9.34212e-15
9.08434e-14
6.78696e-13
3.82443e-12
7.59813e-12
6.10216e-12
3.45658e-12
3.31354e-12
2.95399e-12
2.53422e-12
2.65792e-12
1.98388e-11
7.22482e-11
2.08066e-10
2.79377e-10
2.43884e-10
)
;

boundaryField
{
    leftWall
    {
        type            zeroGradient;
    }
    rightWall
    {
        type            zeroGradient;
    }
    lowerWall
    {
        type            zeroGradient;
    }
    atmosphere
    {
        type            inletOutlet;
        inletValue      uniform 0;
        value           nonuniform List<scalar> 
23
(
4.21676e-23
6.11267e-22
9.24492e-21
0
0
0
0
0
0
0
0
0
0
0
0
0
0
0
0
0
0
0
0
)
;
    }
    defaultFaces
    {
        type            empty;
    }
    procBoundary3to1
    {
        type            processor;
        value           nonuniform List<scalar> 
23
(
9.35326e-06
9.44284e-06
9.49471e-06
6.58257e-06
1.94477e-06
2.16575e-06
1.99714e-06
1.35412e-06
3.79186e-07
1.34094e-07
6.73612e-08
1.78951e-07
8.38641e-07
1.6983e-06
2.0038e-06
2.03757e-06
1.97776e-06
1.35252e-06
9.62317e-07
7.4025e-07
7.52065e-07
1.03409e-06
1.36543e-06
)
;
    }
    procBoundary3to2
    {
        type            processor;
        value           nonuniform List<scalar> 
25
(
1.23965e-06
7.86609e-07
4.5224e-07
1.47663e-07
5.00984e-08
2.06571e-08
7.69085e-09
3.23754e-09
1.5145e-09
6.41101e-10
2.1698e-10
4.81166e-11
8.79223e-12
1.64809e-12
2.81343e-13
4.23877e-14
5.56983e-15
6.39677e-16
6.4713e-17
5.81276e-18
4.69574e-19
3.48081e-20
2.36993e-21
1.47823e-22
8.69358e-24
)
;
    }
}


// ************************************************************************* //
