/*--------------------------------*- C++ -*----------------------------------*\
| =========                 |                                                 |
| \\      /  F ield         | OpenFOAM: The Open Source CFD Toolbox           |
|  \\    /   O peration     | Version:  2.4.0                                 |
|   \\  /    A nd           | Web:      www.OpenFOAM.org                      |
|    \\/     M anipulation  |                                                 |
\*---------------------------------------------------------------------------*/
FoamFile
{
    version     2.0;
    format      ascii;
    class       volScalarField;
    location    "0.9";
    object      alpha.mercury;
}
// * * * * * * * * * * * * * * * * * * * * * * * * * * * * * * * * * * * * * //

dimensions      [0 0 0 0 0 0 0];

internalField   nonuniform List<scalar> 
575
(
2.14856e-11
2.43085e-11
2.75564e-11
3.10834e-11
1.99359e-11
2.30688e-11
2.64122e-11
2.99106e-11
1.69475e-11
2.01971e-11
2.33678e-11
2.62085e-11
1.09709e-11
1.32105e-11
1.51834e-11
1.66877e-11
5.24847e-12
6.18118e-12
6.86355e-12
7.20435e-12
1.87469e-12
2.09921e-12
2.1899e-12
2.13235e-12
5.05046e-13
5.28686e-13
5.09278e-13
4.52207e-13
1.04115e-13
1.00973e-13
8.91715e-14
7.18575e-14
1.68305e-14
1.50565e-14
1.21888e-14
8.96805e-15
2.1986e-15
1.81038e-15
1.34752e-15
9.19753e-16
2.37292e-16
1.80124e-16
1.24083e-16
8.06047e-17
2.16729e-17
1.5235e-17
9.81331e-18
6.23456e-18
1.71356e-18
1.12207e-18
6.87349e-19
4.34583e-19
1.19872e-19
7.35199e-20
4.33332e-20
2.73779e-20
7.54684e-21
4.33525e-21
2.4612e-21
1.54806e-21
4.32405e-22
2.31195e-22
1.25802e-22
8.04067e-23
2.26748e-23
1.11877e-23
6.02034e-24
5.43374e-24
1.0957e-24
5.15315e-25
4.32195e-25
1.56019e-24
5.06419e-26
3.49942e-26
1.32063e-25
1.001e-24
2.97047e-27
8.8092e-27
7.15965e-26
6.36153e-25
4.89172e-28
3.91031e-27
3.73392e-26
3.61986e-25
1.66753e-28
1.70416e-27
1.7716e-26
1.85916e-25
6.18313e-29
6.9313e-28
7.76577e-27
8.86385e-26
2.23145e-29
2.71246e-28
3.32157e-27
4.22863e-26
2.71127e-29
4.01867e-28
6.04375e-27
8.97657e-26
3.98032e-11
4.4991e-11
4.07301e-11
2.89273e-11
2.13659e-11
2.41879e-11
4.92874e-11
9.384e-11
1.64153e-09
1.04862e-08
8.88785e-09
3.53252e-09
3.67216e-09
7.76598e-09
8.9698e-09
8.3702e-09
5.91398e-09
2.84985e-09
1.70851e-09
3.66335e-11
3.67763e-11
2.88514e-11
1.90662e-11
1.36204e-11
1.55025e-11
2.36821e-11
5.01686e-11
5.14934e-10
2.44794e-09
4.96038e-09
7.54536e-09
8.29743e-09
7.85815e-09
6.26358e-09
4.8348e-09
2.74678e-09
2.54529e-09
1.6355e-09
2.86388e-11
2.39302e-11
1.56991e-11
9.41099e-12
6.88842e-12
8.72425e-12
1.44368e-11
2.53683e-11
9.23954e-11
4.98591e-10
1.22068e-09
1.77394e-09
2.21169e-09
1.63816e-09
1.26455e-09
2.08379e-09
2.29382e-09
2.62597e-09
1.48021e-09
1.5978e-11
1.10778e-11
6.27797e-12
3.59292e-12
2.89017e-12
3.89397e-12
6.76631e-12
1.20155e-11
2.09511e-11
5.322e-11
1.15348e-10
2.02073e-10
3.62362e-10
6.48168e-10
1.15032e-09
2.19602e-09
2.5891e-09
3.11471e-09
1.34081e-09
5.9623e-12
3.45521e-12
1.829e-12
1.12187e-12
1.06797e-12
1.53219e-12
2.65958e-12
4.96415e-12
9.88994e-12
2.18594e-11
5.96193e-11
1.58524e-10
4.34671e-10
9.59359e-10
1.95789e-09
3.1794e-09
3.88457e-09
3.39436e-09
1.24993e-09
1.49707e-12
7.83918e-13
4.22407e-13
3.10033e-13
3.54375e-13
5.51568e-13
1.02955e-12
2.17124e-12
5.68816e-12
1.90688e-11
6.96382e-11
2.26484e-10
6.80462e-10
1.42921e-09
3.23157e-09
4.36922e-09
5.25011e-09
3.7583e-09
1.07734e-09
2.68377e-13
1.39871e-13
8.62439e-14
7.89923e-14
1.04104e-13
1.76318e-13
3.68836e-13
9.82087e-13
3.80661e-12
1.85967e-11
8.71795e-11
3.13577e-10
9.71781e-10
2.32516e-09
4.46888e-09
5.65277e-09
5.95733e-09
3.59824e-09
8.68265e-10
3.80847e-14
2.14968e-14
1.64121e-14
1.80464e-14
2.64626e-14
4.89948e-14
1.24277e-13
4.83911e-13
2.82056e-12
1.80927e-11
1.05903e-10
4.22039e-10
1.20539e-09
3.46841e-09
5.95885e-09
7.04178e-09
6.28559e-09
2.64349e-09
5.62875e-10
4.60424e-15
3.05268e-15
2.85833e-15
3.56452e-15
5.68927e-15
1.16806e-14
3.93622e-14
2.5174e-13
1.99287e-12
1.61186e-11
1.11076e-10
4.70062e-10
1.42771e-09
5.38192e-09
9.27131e-09
8.97549e-09
5.83507e-09
2.19418e-09
4.78113e-10
4.9877e-16
4.01124e-16
4.35156e-16
5.95196e-16
1.02274e-15
2.36147e-15
1.1513e-14
1.2698e-13
1.19888e-12
1.25066e-11
1.01761e-10
4.77611e-10
1.70365e-09
6.50472e-09
9.42702e-09
9.12099e-09
4.84187e-09
2.56841e-09
4.6793e-10
4.94585e-17
4.71305e-17
5.66073e-17
8.3426e-17
1.53404e-16
4.18238e-16
3.14718e-15
5.3002e-14
5.7581e-13
7.92947e-12
7.8707e-11
4.10756e-10
1.52159e-09
4.65094e-09
9.42318e-09
8.24e-09
5.96712e-09
3.57771e-09
4.83466e-10
4.461e-18
4.83504e-18
6.26758e-18
9.84011e-18
1.98029e-17
6.88665e-17
6.87008e-16
1.37116e-14
1.87802e-13
3.6052e-12
2.8676e-11
2.18867e-10
1.0995e-09
3.20821e-09
6.90282e-09
8.40382e-09
8.02135e-09
3.78336e-09
2.80809e-10
3.5995e-19
4.32084e-19
6.0124e-19
1.04875e-18
2.71112e-18
1.36036e-17
1.35786e-16
2.18323e-15
4.63079e-14
1.09101e-12
7.83177e-12
5.56963e-11
3.85012e-10
2.43032e-09
5.39876e-09
7.13164e-09
6.76387e-09
1.7927e-09
1.42357e-10
2.5934e-20
3.49049e-20
5.94198e-20
1.76554e-19
9.81054e-19
7.64894e-18
6.98693e-17
7.53293e-16
1.12682e-14
2.50034e-13
2.56466e-12
1.20857e-11
8.86594e-11
1.10277e-09
2.7759e-09
4.10462e-09
2.19597e-09
4.20984e-10
5.98958e-11
1.77525e-21
3.55759e-21
1.51619e-20
1.16167e-19
1.05624e-18
1.0048e-17
9.55147e-17
8.64526e-16
7.39717e-15
7.47508e-14
8.1331e-13
4.19297e-12
2.02918e-11
2.08154e-10
8.26021e-10
1.17436e-09
5.41682e-10
1.02209e-10
2.47336e-11
1.94961e-22
1.24806e-21
1.21156e-20
1.28159e-19
1.37069e-18
1.44582e-17
1.4386e-16
1.27382e-15
9.51498e-15
5.94311e-14
3.41329e-13
1.62828e-12
6.56432e-12
2.10115e-11
8.53449e-11
1.22587e-10
9.88521e-11
3.21154e-11
1.21014e-11
7.96531e-23
9.48509e-22
1.15953e-20
1.40767e-19
1.6643e-18
1.85498e-17
1.85943e-16
1.5982e-15
1.1307e-14
6.4477e-14
2.82042e-13
1.26664e-12
5.71747e-12
1.47579e-11
2.74648e-11
4.23283e-11
3.05976e-11
1.40055e-11
6.06749e-12
5.26692e-23
7.43544e-22
1.02604e-20
1.36204e-19
1.69552e-18
1.9081e-17
1.86941e-16
1.54547e-15
1.04527e-14
5.79339e-14
2.45428e-13
1.48634e-12
6.98796e-12
1.58943e-11
2.50362e-11
2.78469e-11
1.4527e-11
6.61909e-12
2.80277e-12
3.31328e-23
5.11373e-22
7.55828e-21
1.04024e-19
1.29899e-18
1.42999e-17
1.35205e-16
1.07905e-15
7.06939e-15
3.89282e-14
1.65753e-13
1.3447e-12
5.64818e-12
1.16903e-11
1.66219e-11
1.32465e-11
5.21992e-12
2.44873e-12
9.54806e-13
1.82514e-23
2.97253e-22
4.53084e-21
6.2404e-20
7.6103e-19
8.05522e-18
7.28285e-17
5.57578e-16
3.53213e-15
1.91079e-14
8.06939e-14
6.26479e-13
2.66691e-12
4.8148e-12
5.96644e-12
3.67361e-12
1.60431e-12
6.87765e-13
3.03942e-13
8.73201e-24
1.47496e-22
2.28833e-21
3.14118e-20
3.75875e-19
3.86129e-18
3.34961e-17
2.4306e-16
1.44427e-15
7.16938e-15
2.83622e-14
1.36344e-13
6.32455e-13
1.01763e-12
1.02844e-12
6.68575e-13
3.55143e-13
1.39952e-13
1.08221e-13
3.74317e-24
6.62683e-23
1.07216e-21
1.53118e-20
1.90402e-19
2.00353e-18
1.71273e-17
1.16439e-16
6.21699e-16
2.60983e-15
8.85864e-15
2.38444e-14
8.27181e-14
1.07866e-13
1.01013e-13
7.24923e-14
4.56587e-14
2.47099e-14
4.84506e-14
1.53393e-24
3.03051e-23
5.58086e-22
9.10024e-21
1.25875e-19
1.37908e-18
1.12741e-17
6.83346e-17
3.149e-16
1.06656e-15
2.93296e-15
5.30922e-15
1.11459e-14
1.09862e-14
1.06173e-14
8.5182e-15
7.06554e-15
5.90558e-15
2.22589e-14
7.04251e-25
1.89211e-23
4.34779e-22
7.68444e-21
1.03001e-19
1.01661e-18
7.19184e-18
3.68735e-17
1.44753e-16
3.99716e-16
9.36319e-16
1.331e-15
2.1282e-15
2.01642e-15
1.94757e-15
1.65018e-15
1.58466e-15
1.54638e-15
8.3678e-15
1.20069e-24
2.65129e-23
4.41906e-22
5.54533e-21
5.31509e-20
3.94805e-19
2.29136e-18
9.99875e-18
3.44933e-17
8.13371e-17
1.71469e-16
2.12379e-16
3.02329e-16
2.72271e-16
2.5007e-16
2.11837e-16
2.24543e-16
2.39173e-16
1.71706e-15
)
;

boundaryField
{
    leftWall
    {
        type            zeroGradient;
    }
    rightWall
    {
        type            zeroGradient;
    }
    lowerWall
    {
        type            zeroGradient;
    }
    atmosphere
    {
        type            inletOutlet;
        inletValue      uniform 0;
        value           nonuniform List<scalar> 
23
(
2.71127e-29
4.01867e-28
6.04375e-27
0
0
0
0
0
0
0
0
0
0
0
0
0
0
0
0
0
0
0
0
)
;
    }
    defaultFaces
    {
        type            empty;
    }
    procBoundary3to1
    {
        type            processor;
        value           nonuniform List<scalar> 
23
(
3.45443e-11
3.96624e-11
4.39025e-11
4.75552e-11
5.55282e-11
5.98857e-11
5.44749e-11
4.07878e-11
2.93525e-11
3.35745e-11
6.11528e-11
2.22299e-09
1.49267e-08
7.48832e-09
1.70465e-09
1.06748e-09
1.00653e-09
3.19376e-09
8.93134e-09
1.15011e-08
8.07173e-09
3.46536e-09
1.71484e-09
)
;
    }
    procBoundary3to2
    {
        type            processor;
        value           nonuniform List<scalar> 
25
(
1.90958e-11
1.70553e-11
1.38978e-11
8.83141e-12
4.28221e-12
1.58939e-12
4.51315e-13
9.90851e-14
1.71981e-14
2.42763e-15
2.83381e-16
2.80073e-17
2.39122e-18
1.80021e-19
1.21681e-20
7.49706e-22
4.25572e-23
2.2433e-24
1.10934e-25
5.31783e-27
2.9392e-28
3.12629e-29
6.81654e-30
1.80882e-30
1.074e-30
)
;
    }
}


// ************************************************************************* //
