/*--------------------------------*- C++ -*----------------------------------*\
| =========                 |                                                 |
| \\      /  F ield         | OpenFOAM: The Open Source CFD Toolbox           |
|  \\    /   O peration     | Version:  2.4.0                                 |
|   \\  /    A nd           | Web:      www.OpenFOAM.org                      |
|    \\/     M anipulation  |                                                 |
\*---------------------------------------------------------------------------*/
FoamFile
{
    version     2.0;
    format      ascii;
    class       volScalarField;
    location    "0.9";
    object      alpha.water;
}
// * * * * * * * * * * * * * * * * * * * * * * * * * * * * * * * * * * * * * //

dimensions      [0 0 0 0 0 0 0];

internalField   nonuniform List<scalar> 
575
(
3.85315e-09
3.90779e-09
3.68646e-09
3.68326e-09
4.13692e-09
4.48124e-09
5.20798e-09
5.62935e-09
3.89175e-09
4.64597e-09
5.304e-09
5.80183e-09
2.06761e-09
2.60021e-09
3.07096e-09
3.73783e-09
9.50458e-10
1.24003e-09
1.53316e-09
1.60287e-09
3.37696e-10
4.32911e-10
4.51448e-10
4.38163e-10
8.56645e-11
8.93112e-11
8.45375e-11
7.26013e-11
1.2793e-11
1.27648e-11
1.11291e-11
8.49606e-12
1.56008e-12
1.40611e-12
1.0978e-12
7.39067e-13
1.52725e-13
1.22578e-13
8.46703e-14
5.05153e-14
1.22945e-14
8.74788e-15
5.33861e-15
2.88306e-15
8.42788e-16
5.33021e-16
2.89592e-16
1.44903e-16
5.07848e-17
2.86849e-17
1.4097e-17
6.57566e-18
2.74551e-18
1.38591e-18
6.19002e-19
2.6633e-19
1.33704e-19
5.98055e-20
2.40717e-20
9.39289e-21
5.84031e-21
2.28354e-21
8.17817e-22
2.86759e-22
2.28041e-22
7.68917e-23
2.43787e-23
8.72738e-24
7.99079e-24
2.31918e-24
7.58971e-25
1.10908e-24
2.55144e-25
7.23819e-26
9.64649e-26
6.68683e-25
8.05637e-27
6.91897e-27
4.79459e-26
4.26968e-25
4.76287e-28
2.63055e-27
2.50443e-26
2.4357e-25
1.14676e-28
1.14207e-27
1.19095e-26
1.25269e-25
4.14471e-29
4.65447e-28
5.22826e-27
5.97804e-26
1.497e-29
1.82466e-28
2.23912e-27
2.85499e-26
1.82963e-29
2.71579e-28
4.08884e-27
6.07831e-26
4.67229e-09
6.39869e-09
5.94801e-09
4.24987e-09
2.0654e-09
1.00176e-09
8.26092e-10
2.75469e-09
1.12313e-08
3.00555e-08
2.33413e-08
9.23793e-09
9.09703e-09
1.79283e-08
2.281e-08
2.26196e-08
1.47386e-08
2.82579e-09
7.0458e-10
6.07154e-09
6.20146e-09
5.29311e-09
2.84925e-09
1.23839e-09
5.64132e-10
2.50573e-10
2.91089e-10
2.73017e-09
9.15381e-09
1.749e-08
2.35737e-08
2.38147e-08
2.37006e-08
1.74583e-08
1.10521e-08
3.25043e-09
1.41042e-09
6.76638e-10
5.91215e-09
4.60237e-09
2.77772e-09
1.45019e-09
6.36236e-10
2.40292e-10
8.69893e-11
4.67823e-11
2.87276e-10
1.71837e-09
3.86224e-09
5.25989e-09
6.37279e-09
3.40823e-09
9.39614e-10
1.71538e-09
1.39967e-09
1.26453e-09
6.34027e-10
3.17747e-09
2.0199e-09
1.01537e-09
4.40464e-10
1.64191e-10
5.4401e-11
1.77207e-11
7.72891e-12
1.09896e-11
7.29039e-11
1.83974e-10
2.53269e-10
2.56269e-10
2.89525e-10
4.07473e-10
6.523e-10
9.30144e-10
1.20509e-09
5.45387e-10
1.1952e-09
5.88743e-10
2.41411e-10
8.52821e-11
2.63627e-11
7.50054e-12
2.41226e-12
1.50597e-12
2.38268e-12
5.78277e-12
1.7841e-11
5.10752e-11
1.32508e-10
2.83877e-10
5.40338e-10
8.35236e-10
1.01338e-09
1.14438e-09
4.92848e-10
2.88165e-10
9.39379e-11
3.09591e-11
1.02291e-11
2.9561e-12
8.4471e-13
3.79134e-13
4.96441e-13
1.36706e-12
5.11635e-12
2.03061e-11
6.91957e-11
2.0348e-10
4.19399e-10
8.48818e-10
1.12438e-09
1.33164e-09
1.17504e-09
4.30685e-10
3.63214e-11
1.28995e-11
4.02889e-12
1.12672e-12
3.03681e-13
1.01453e-13
8.93215e-14
2.2939e-13
1.0069e-12
5.40235e-12
2.68036e-11
9.89747e-11
2.92259e-10
6.63683e-10
1.15612e-09
1.42782e-09
1.55224e-09
1.1868e-09
3.50958e-10
3.46658e-12
1.14818e-12
3.29219e-13
8.84628e-14
2.59656e-14
1.42257e-14
2.80562e-14
1.22232e-13
8.10693e-13
5.59148e-12
3.33132e-11
1.33637e-10
3.66448e-10
9.33035e-10
1.48168e-09
1.74338e-09
1.70678e-09
1.02414e-09
2.2786e-10
2.60178e-13
7.81058e-14
2.14385e-14
5.95652e-15
2.32063e-15
2.62252e-15
9.35848e-15
6.74433e-14
6.29485e-13
5.24593e-12
3.48376e-11
1.45997e-10
4.29678e-10
1.24811e-09
2.04439e-09
2.14351e-09
1.7862e-09
8.9822e-10
1.82925e-10
1.58842e-14
4.46241e-15
1.22089e-15
3.88839e-16
2.54638e-16
5.18369e-16
2.92137e-15
3.57322e-14
4.33913e-13
4.19887e-12
3.09298e-11
1.47038e-10
4.87563e-10
1.41037e-09
2.20762e-09
2.23066e-09
1.64032e-09
9.28532e-10
1.61653e-10
8.34494e-16
2.26503e-16
6.4593e-17
2.74698e-17
3.24142e-17
9.72544e-17
8.47839e-16
1.57386e-14
2.47095e-13
2.67867e-12
2.21356e-11
1.22751e-10
4.1401e-10
1.26237e-09
2.16634e-09
2.10215e-09
1.67049e-09
1.02478e-09
1.48468e-10
3.93273e-17
1.04724e-17
3.32332e-18
2.25193e-18
4.34264e-18
1.82562e-17
2.01157e-16
4.44327e-15
9.34519e-14
1.19473e-12
1.12814e-11
6.5581e-11
3.04119e-10
8.71212e-10
1.69485e-09
2.03317e-09
1.8253e-09
9.99352e-10
9.22418e-11
1.66894e-18
4.41474e-19
1.82699e-19
2.45568e-19
8.59892e-19
5.33018e-18
5.17566e-17
7.82782e-16
1.65569e-14
3.41027e-13
3.60983e-12
1.84963e-11
1.13753e-10
6.09952e-10
1.26393e-09
1.5272e-09
1.55046e-09
5.17426e-10
4.80408e-11
6.26139e-20
1.81534e-20
1.77914e-20
7.89897e-20
5.67092e-19
4.6122e-18
3.89305e-17
3.52642e-16
4.33533e-15
8.17743e-14
1.12646e-12
6.25485e-12
2.74069e-11
2.75111e-10
6.58598e-10
9.32004e-10
6.61121e-10
1.58733e-10
2.35409e-11
2.13072e-21
1.50796e-21
8.47103e-21
7.50464e-20
6.9685e-19
6.39092e-18
5.53065e-17
4.31936e-16
3.06086e-15
2.5422e-14
2.95475e-13
1.91748e-12
8.88084e-12
5.6572e-11
2.16364e-10
3.20676e-10
1.74961e-10
3.25176e-11
6.48136e-12
1.26211e-22
7.6661e-22
8.02862e-21
8.57648e-20
8.96464e-19
8.87822e-18
7.95197e-17
6.12748e-16
3.88075e-15
2.00486e-14
9.49079e-14
5.08051e-13
1.85743e-12
6.63809e-12
2.40595e-11
3.54234e-11
2.39606e-11
7.88343e-12
2.03407e-12
5.13613e-23
6.32394e-22
7.78414e-21
9.32314e-20
1.05821e-18
1.09616e-17
9.91864e-17
7.51747e-16
4.58835e-15
2.1899e-14
7.7606e-14
2.42864e-13
6.59741e-13
1.73633e-12
4.04462e-12
6.26041e-12
3.55411e-12
1.20688e-12
5.58087e-13
3.5166e-23
4.99467e-22
6.84823e-21
8.87723e-20
1.05499e-18
1.10723e-17
9.90868e-17
7.33903e-16
4.35156e-15
2.04421e-14
7.06386e-14
2.37225e-13
6.03163e-13
1.08232e-12
1.64953e-12
1.60956e-12
8.00626e-13
3.99114e-13
2.81313e-13
2.22666e-23
3.43631e-22
5.03105e-21
6.76593e-20
8.11789e-19
8.43543e-18
7.39757e-17
5.37376e-16
3.13257e-15
1.47998e-14
5.18896e-14
1.98159e-13
4.51148e-13
6.47828e-13
7.86113e-13
6.24315e-13
3.12993e-13
1.80026e-13
1.70923e-13
1.22907e-23
1.99907e-22
3.02308e-21
4.09291e-20
4.84939e-19
4.92064e-18
4.20236e-17
2.98645e-16
1.7181e-15
8.14276e-15
2.89543e-14
1.09988e-13
2.55108e-13
3.15774e-13
3.55723e-13
2.54896e-13
1.41021e-13
7.97241e-14
1.07185e-13
5.88668e-24
9.93312e-23
1.53336e-21
2.08305e-20
2.44989e-19
2.45339e-18
2.05413e-17
1.41968e-16
7.89893e-16
3.56784e-15
1.24237e-14
3.93753e-14
1.02226e-13
1.11779e-13
1.17233e-13
8.60433e-14
5.47963e-14
3.16277e-14
6.36358e-14
2.52537e-24
4.46914e-23
7.21319e-22
1.02521e-20
1.26531e-19
1.31716e-18
1.10864e-17
7.36502e-17
3.80347e-16
1.51692e-15
4.78093e-15
1.10937e-14
2.70473e-14
2.81991e-14
2.81955e-14
2.22317e-14
1.6353e-14
1.17004e-14
3.43441e-14
1.03564e-24
2.04671e-23
3.76773e-22
6.13766e-21
8.47488e-20
9.25803e-19
7.53284e-18
4.53192e-17
2.06519e-16
6.88055e-16
1.84673e-15
3.2085e-15
6.09456e-15
6.02235e-15
6.04942e-15
5.04255e-15
4.38749e-15
3.93505e-15
1.64014e-14
4.76109e-25
1.28064e-23
2.9445e-22
5.20486e-21
6.97357e-20
6.87593e-19
4.85704e-18
2.48539e-17
9.73107e-17
2.67886e-16
6.25315e-16
8.87843e-16
1.41411e-15
1.34809e-15
1.31589e-15
1.12288e-15
1.08675e-15
1.0849e-15
6.20277e-15
8.13592e-25
1.79749e-23
2.99712e-22
3.76205e-21
3.60659e-20
2.67927e-19
1.55501e-18
6.78503e-18
2.34032e-17
5.518e-17
1.16356e-16
1.44296e-16
2.05853e-16
1.85696e-16
1.70996e-16
1.45145e-16
1.54588e-16
1.6825e-16
1.27403e-15
)
;

boundaryField
{
    leftWall
    {
        type            zeroGradient;
    }
    rightWall
    {
        type            zeroGradient;
    }
    lowerWall
    {
        type            zeroGradient;
    }
    atmosphere
    {
        type            inletOutlet;
        inletValue      uniform 0;
        value           nonuniform List<scalar> 
23
(
1.82963e-29
2.71579e-28
4.08884e-27
0
0
0
0
0
0
0
0
0
0
0
0
0
0
0
0
0
0
0
0
)
;
    }
    defaultFaces
    {
        type            empty;
    }
    procBoundary3to1
    {
        type            processor;
        value           nonuniform List<scalar> 
23
(
1.16507e-08
1.66921e-08
1.72793e-08
1.1597e-08
1.22907e-08
1.44927e-08
9.89144e-09
5.70714e-09
2.55527e-09
1.25214e-09
2.56602e-09
1.99872e-08
4.89421e-08
2.13499e-08
5.65978e-09
1.03184e-08
3.46364e-09
4.31264e-09
2.05801e-08
3.11812e-08
2.2189e-08
6.90458e-09
8.74235e-10
)
;
    }
    procBoundary3to2
    {
        type            processor;
        value           nonuniform List<scalar> 
25
(
2.80511e-09
3.55711e-09
3.147e-09
1.59038e-09
6.48756e-10
2.29403e-10
5.82805e-11
1.09688e-11
1.51531e-12
1.66183e-13
1.49748e-14
1.15052e-15
7.76232e-17
4.69808e-18
2.57222e-19
1.27441e-20
5.70596e-22
2.31411e-23
8.57171e-25
2.94239e-26
9.84224e-28
4.3438e-29
5.15741e-30
1.22324e-30
7.22645e-31
)
;
    }
}


// ************************************************************************* //
