/*--------------------------------*- C++ -*----------------------------------*\
| =========                 |                                                 |
| \\      /  F ield         | OpenFOAM: The Open Source CFD Toolbox           |
|  \\    /   O peration     | Version:  2.4.0                                 |
|   \\  /    A nd           | Web:      www.OpenFOAM.org                      |
|    \\/     M anipulation  |                                                 |
\*---------------------------------------------------------------------------*/
FoamFile
{
    version     2.0;
    format      ascii;
    class       volScalarField;
    location    "0.9";
    object      p;
}
// * * * * * * * * * * * * * * * * * * * * * * * * * * * * * * * * * * * * * //

dimensions      [1 -1 -2 0 0 0 0];

internalField   nonuniform List<scalar> 
575
(
2.21129
2.19825
2.20752
2.2375
2.23399
2.22623
2.23019
2.24947
2.22148
2.21831
2.22361
2.23904
2.19874
2.19796
2.20296
2.21449
2.15246
2.15386
2.15885
2.16762
2.09109
2.0932
2.09785
2.10502
2.01923
2.02162
2.02564
2.03148
1.93842
1.94081
1.94435
1.94923
1.85108
1.85337
1.85654
1.86072
1.75819
1.76033
1.76318
1.76683
1.66067
1.66264
1.66516
1.66842
1.55933
1.56118
1.5635
1.56634
1.45472
1.45644
1.45854
1.46106
1.3473
1.34888
1.35077
1.353
1.23746
1.23889
1.24058
1.24254
1.12551
1.12678
1.12829
1.13002
1.0118
1.01293
1.01425
1.01573
0.896552
0.897544
0.898658
0.899903
0.779974
0.780866
0.781741
0.782746
0.6621
0.662731
0.663538
0.664386
0.543366
0.543884
0.544479
0.545112
0.423831
0.424223
0.424628
0.425058
0.303477
0.303713
0.303988
0.304243
0.182694
0.182836
0.18297
0.183065
0.0610503
0.0609787
0.060882
0.0607856
2.31187
2.45539
2.60121
2.72345
2.79688
2.84193
2.86273
2.87549
2.86607
2.81831
2.79249
2.75707
2.63278
2.56068
2.66244
2.89675
3.12157
3.2648
3.34261
2.30379
2.42291
2.54355
2.62234
2.67889
2.71842
2.74263
2.75879
2.7686
2.749
2.72685
2.72025
2.70357
2.70391
2.77377
2.93008
3.08429
3.19333
3.23839
2.27909
2.37303
2.46178
2.52113
2.56788
2.6035
2.62971
2.65056
2.66506
2.67125
2.68266
2.69193
2.7177
2.75222
2.80736
2.89836
3.00499
3.08237
3.11306
2.24356
2.31122
2.37314
2.4214
2.4615
2.49433
2.52082
2.54466
2.56485
2.58319
2.60244
2.62739
2.66026
2.69196
2.74825
2.82442
2.90739
2.95945
2.98045
2.18885
2.23628
2.28282
2.32299
2.35808
2.38879
2.41551
2.44011
2.46425
2.48777
2.51245
2.54365
2.57406
2.60466
2.64116
2.70365
2.78759
2.83439
2.85106
2.12117
2.15537
2.19174
2.22534
2.25649
2.2847
2.31097
2.33656
2.36118
2.38651
2.41345
2.44289
2.47242
2.49495
2.52193
2.56788
2.64312
2.6961
2.7138
2.04422
2.07001
2.0988
2.12717
2.15467
2.18063
2.20573
2.23089
2.25534
2.28026
2.30667
2.33423
2.3593
2.36892
2.38671
2.42655
2.48653
2.5351
2.55522
1.9597
1.98011
2.00353
2.02757
2.05192
2.07556
2.09909
2.12301
2.14639
2.16962
2.19477
2.22006
2.23707
2.24092
2.24436
2.27531
2.32929
2.36672
2.38124
1.8694
1.88597
1.90544
1.92603
1.94742
1.96883
1.99049
2.01247
2.03455
2.05569
2.0791
2.10263
2.1161
2.11355
2.10783
2.12955
2.16798
2.19919
2.2141
1.77418
1.78801
1.80441
1.82217
1.84093
1.86011
1.87969
1.89954
1.91961
1.93897
1.96011
1.9803
1.99213
1.98979
1.98593
2.00768
2.03007
2.04546
2.06023
1.67481
1.68656
1.70053
1.71591
1.73229
1.74931
1.76677
1.78435
1.80215
1.81951
1.83722
1.85411
1.86502
1.86742
1.87062
1.88432
1.89678
1.90638
1.92109
1.57189
1.58197
1.59396
1.60727
1.62157
1.63649
1.65183
1.66724
1.68265
1.69761
1.71227
1.72561
1.73631
1.74201
1.7482
1.75762
1.76481
1.77534
1.78788
1.46591
1.4746
1.48492
1.49643
1.50883
1.5218
1.53514
1.54843
1.56159
1.57412
1.58579
1.59627
1.60502
1.61263
1.62064
1.62778
1.63429
1.64344
1.65336
1.35725
1.36476
1.37363
1.38354
1.39422
1.40541
1.41686
1.42826
1.43923
1.44964
1.45862
1.46633
1.4724
1.47857
1.48563
1.49355
1.5012
1.511
1.51723
1.24626
1.25274
1.26032
1.26879
1.27791
1.28746
1.29718
1.30686
1.31601
1.32454
1.33148
1.33635
1.33899
1.33979
1.34619
1.3576
1.36702
1.37674
1.38057
1.13324
1.13878
1.14521
1.15236
1.16005
1.16807
1.17624
1.18435
1.19203
1.19904
1.20496
1.20726
1.20718
1.20011
1.20764
1.22218
1.2334
1.24138
1.2442
1.01848
1.02315
1.02852
1.03445
1.04079
1.04739
1.0541
1.06072
1.0671
1.07272
1.0782
1.07904
1.07874
1.06949
1.07549
1.08626
1.10115
1.10562
1.10829
0.902203
0.906056
0.910435
0.915228
0.920307
0.925545
0.93084
0.936
0.941017
0.945464
0.949744
0.950774
0.949275
0.94585
0.954279
0.959673
0.969156
0.970781
0.973549
0.784613
0.787701
0.791155
0.794875
0.798759
0.802694
0.806634
0.810355
0.814005
0.817221
0.819833
0.823297
0.821994
0.822832
0.828878
0.830838
0.835368
0.837701
0.840112
0.66589
0.668269
0.670853
0.673562
0.676314
0.67901
0.681662
0.684038
0.686414
0.688341
0.690078
0.692864
0.692277
0.694023
0.698664
0.700138
0.704324
0.70524
0.707952
0.546231
0.547932
0.549695
0.551444
0.553126
0.554654
0.556095
0.55712
0.558196
0.559064
0.559823
0.560732
0.561008
0.563531
0.567815
0.569152
0.57268
0.573776
0.576598
0.4258
0.426855
0.42784
0.428682
0.429359
0.429758
0.429857
0.429652
0.429857
0.429649
0.429558
0.430037
0.431131
0.43248
0.435588
0.437711
0.440708
0.442023
0.445002
0.304657
0.305135
0.305416
0.30539
0.304958
0.304194
0.30342
0.302261
0.301264
0.299938
0.299473
0.29932
0.300175
0.301348
0.303732
0.305758
0.308584
0.310131
0.313201
0.183163
0.182999
0.182419
0.181453
0.180143
0.178396
0.176422
0.173833
0.171886
0.169451
0.168245
0.167459
0.168031
0.1699
0.172883
0.175562
0.179291
0.180465
0.183303
0.0605559
0.0599481
0.0589059
0.0573393
0.0552151
0.0524262
0.0492088
0.0450737
0.0417073
0.0375075
0.0353444
0.0348247
0.0353782
0.0376679
0.0416991
0.0458507
0.0522896
0.0541462
0.0576956
)
;

boundaryField
{
    leftWall
    {
        type            fixedFluxPressure;
        gradient        nonuniform 0();
        value           nonuniform 0();
    }
    rightWall
    {
        type            fixedFluxPressure;
        gradient        uniform 0;
        value           nonuniform List<scalar> 
25
(
3.34261
3.23839
3.11306
2.98045
2.85106
2.7138
2.55522
2.38124
2.2141
2.06023
1.92109
1.78788
1.65336
1.51723
1.38057
1.2442
1.10829
0.973549
0.840112
0.707952
0.576598
0.445002
0.313201
0.183303
0.0576956
)
;
    }
    lowerWall
    {
        type            fixedFluxPressure;
        gradient        nonuniform 0();
        value           nonuniform 0();
    }
    atmosphere
    {
        type            totalPressure;
        U               U.air;
        phi             phi.air;
        rho             rho;
        psi             none;
        gamma           1;
        p0              uniform 0;
        value           nonuniform List<scalar> 
23
(
0
0
0
-1.59566e-05
-0.000192014
-0.000822142
-0.00195177
-0.00363369
-0.00589283
-0.00878503
-0.0122001
-0.0164894
-0.0205999
-0.0257504
-0.029139
-0.0318138
-0.0322351
-0.0306993
-0.027291
-0.0229832
-0.016395
-0.0135864
-0.00894079
)
;
    }
    defaultFaces
    {
        type            empty;
    }
    procBoundary3to1
    {
        type            processor;
        value           nonuniform List<scalar> 
23
(
2.11545
2.10097
2.11523
2.15417
2.24181
2.42808
2.62732
2.79764
2.9083
2.96458
2.991
3.0052
2.98652
2.90954
2.82568
2.77431
2.61624
2.42445
2.53204
2.8233
3.13704
3.31739
3.41057
)
;
    }
    procBoundary3to2
    {
        type            processor;
        value           nonuniform List<scalar> 
25
(
2.2437
2.25544
2.24091
2.20645
2.15525
2.09118
2.01799
1.93659
1.84898
1.75599
1.65848
1.55718
1.45264
1.34533
1.23562
1.12384
1.0103
0.895214
0.778796
0.661191
0.542637
0.423271
0.303139
0.182494
0.06109
)
;
    }
}


// ************************************************************************* //
