/*--------------------------------*- C++ -*----------------------------------*\
| =========                 |                                                 |
| \\      /  F ield         | OpenFOAM: The Open Source CFD Toolbox           |
|  \\    /   O peration     | Version:  2.4.0                                 |
|   \\  /    A nd           | Web:      www.OpenFOAM.org                      |
|    \\/     M anipulation  |                                                 |
\*---------------------------------------------------------------------------*/
FoamFile
{
    version     2.0;
    format      ascii;
    class       surfaceScalarField;
    location    "0.9";
    object      phi;
}
// * * * * * * * * * * * * * * * * * * * * * * * * * * * * * * * * * * * * * //

dimensions      [0 3 -1 0 0 0 0];

internalField   nonuniform List<scalar> 
1102
(
0.000206081
6.56054e-07
0.000210972
1.19786e-06
0.000213314
2.95125e-06
5.30722e-06
0.000211207
0.000145305
-5.24274e-07
0.000146057
4.46203e-07
0.00014621
2.79833e-06
6.72922e-06
0.000144788
0.000103532
1.33646e-06
0.000101835
2.14289e-06
0.000101144
3.48956e-06
5.8073e-06
0.000102066
8.33508e-05
3.07162e-06
8.22714e-05
3.2223e-06
8.23851e-05
3.37577e-06
3.98314e-06
8.42093e-05
7.57876e-05
3.87628e-06
7.55497e-05
3.46021e-06
7.60643e-05
2.86119e-06
2.3712e-06
7.76762e-05
7.20674e-05
3.91254e-06
7.23894e-05
3.1382e-06
7.31098e-05
2.14076e-06
1.19015e-06
7.42908e-05
6.88476e-05
3.50352e-06
6.9429e-05
2.55686e-06
7.01207e-05
1.449e-06
3.39635e-07
7.09712e-05
6.50188e-05
2.99661e-06
6.55777e-05
1.99799e-06
6.61363e-05
8.90394e-07
-2.18676e-07
6.66946e-05
6.0729e-05
2.542e-06
6.11926e-05
1.53448e-06
6.16249e-05
4.58023e-07
-6.26022e-07
6.20322e-05
5.62762e-05
2.13712e-06
5.66672e-05
1.14345e-06
5.70207e-05
1.04563e-07
-9.34543e-07
5.73292e-05
5.18105e-05
1.78556e-06
5.21348e-05
8.19115e-07
5.24285e-05
-1.89181e-07
-1.18532e-06
5.26793e-05
4.74369e-05
1.48329e-06
4.77114e-05
5.44625e-07
4.7947e-05
-4.24734e-07
-1.38715e-06
4.81488e-05
4.32015e-05
1.23265e-06
4.34219e-05
3.2422e-07
4.36033e-05
-6.06097e-07
-1.53607e-06
4.37522e-05
3.90881e-05
1.0327e-06
3.92596e-05
1.52725e-07
3.9395e-05
-7.41524e-07
-1.63713e-06
3.9496e-05
3.51043e-05
8.82723e-07
3.52265e-05
3.06059e-08
3.53145e-05
-8.29557e-07
-1.69578e-06
3.53731e-05
3.12524e-05
7.79516e-07
3.13307e-05
-4.77215e-08
3.13762e-05
-8.75079e-07
-1.7134e-06
3.13938e-05
2.75262e-05
7.20693e-07
2.7558e-05
-7.95553e-08
2.75643e-05
-8.81362e-07
-1.69182e-06
2.75427e-05
2.39201e-05
7.04989e-07
2.39114e-05
-7.08446e-08
2.38771e-05
-8.47129e-07
-1.6343e-06
2.38196e-05
2.0427e-05
7.31564e-07
2.03779e-05
-2.17234e-08
2.03063e-05
-7.7555e-07
-1.5407e-06
2.02127e-05
1.70274e-05
7.9294e-07
1.6941e-05
6.47506e-08
1.68354e-05
-6.70038e-07
-1.41296e-06
1.67077e-05
1.37296e-05
9.03014e-07
1.36036e-05
1.90717e-07
1.34615e-05
-5.27935e-07
-1.25445e-06
1.3303e-05
1.05623e-05
1.09461e-06
1.03658e-05
3.87216e-07
1.01715e-05
-3.33664e-07
-1.05143e-06
9.96851e-06
7.49465e-06
1.28903e-06
7.27035e-06
6.11515e-07
7.00507e-06
-6.83925e-08
-7.90202e-07
6.74384e-06
4.53743e-06
1.49864e-06
4.29e-06
8.58943e-07
4.04132e-06
1.80288e-07
-5.08539e-07
3.75965e-06
3.41281e-09
-1.32969e-08
-4.15723e-08
-5.58736e-08
0.000196565
1.71384e-05
0.000173078
1.03732e-05
0.000145709
-2.56798e-05
0.000120676
-5.25455e-05
9.85461e-05
-5.90796e-05
8.70021e-05
-5.64204e-05
8.04062e-05
-4.9963e-05
8.33474e-05
-4.03479e-05
8.98601e-05
-2.32053e-05
7.84177e-05
-2.26051e-05
7.95775e-05
-3.33253e-05
0.000110792
-3.59951e-05
0.000146853
-6.34217e-05
0.000161148
-0.000139042
0.000144653
-0.000211932
0.000112795
-0.000247288
7.76591e-05
-0.000240562
4.38768e-05
-0.000221569
-0.000251774
0.000140012
2.19145e-05
0.000136658
1.37269e-05
0.000125978
-1.50003e-05
0.000111047
-3.76138e-05
9.8484e-05
-4.65168e-05
9.11784e-05
-4.91148e-05
8.77519e-05
-4.65365e-05
9.13065e-05
-4.39026e-05
0.00010959
-4.14887e-05
0.000127939
-4.09544e-05
0.000137926
-4.33123e-05
0.000156578
-5.46468e-05
0.000172921
-7.97645e-05
0.000171812
-0.000137933
0.000144832
-0.000184952
0.000107504
-0.000209959
6.70296e-05
-0.000200088
2.8679e-05
-0.000183219
-0.000223096
0.000106948
1.70322e-05
0.000113459
7.21564e-06
0.000112084
-1.36251e-05
0.000103705
-2.92348e-05
9.66919e-05
-3.95036e-05
9.19592e-05
-4.43821e-05
9.04981e-05
-4.50754e-05
9.31245e-05
-4.6529e-05
9.89076e-05
-4.72717e-05
0.000112137
-5.41842e-05
0.000128983
-6.0158e-05
0.000145185
-7.08486e-05
0.000157055
-9.16342e-05
0.000147176
-0.000128055
0.000121046
-0.000158822
8.75775e-05
-0.000176491
5.19816e-05
-0.000164492
2.1288e-05
-0.000152525
-0.000201807
9.16093e-05
9.63217e-06
9.95672e-05
-7.42297e-07
9.95213e-05
-1.35791e-05
9.59542e-05
-2.56677e-05
9.19392e-05
-3.54886e-05
8.94164e-05
-4.18593e-05
8.91933e-05
-4.48523e-05
9.19577e-05
-4.92934e-05
9.70098e-05
-5.23238e-05
0.000103723
-6.08979e-05
0.000114552
-7.09871e-05
0.000122499
-7.8795e-05
0.00012679
-9.59249e-05
0.000119549
-0.000120814
0.000102079
-0.000141352
7.3224e-05
-0.000147636
4.28691e-05
-0.000134138
1.88996e-05
-0.000128556
-0.000182908
8.41872e-05
3.12119e-06
8.89302e-05
-5.48529e-06
9.03629e-05
-1.50117e-05
8.89324e-05
-2.42372e-05
8.65724e-05
-3.31286e-05
8.56844e-05
-4.09713e-05
8.55731e-05
-4.47409e-05
8.76283e-05
-5.13486e-05
9.2687e-05
-5.73825e-05
9.56365e-05
-6.38473e-05
0.000100556
-7.59065e-05
0.000106294
-8.45335e-05
0.000112572
-0.000102202
0.000113764
-0.000122007
0.000102653
-0.00013024
7.97572e-05
-0.000124741
4.91438e-05
-0.000103524
2.32366e-05
-0.000102648
-0.000159671
7.85777e-05
-1.16567e-06
8.12756e-05
-8.18316e-06
8.24039e-05
-1.614e-05
8.20133e-05
-2.38466e-05
8.11657e-05
-3.2281e-05
8.06123e-05
-4.04178e-05
8.0554e-05
-4.46826e-05
8.14381e-05
-5.22326e-05
8.56161e-05
-6.15605e-05
8.86877e-05
-6.69189e-05
8.89871e-05
-7.62059e-05
9.21342e-05
-8.76806e-05
9.90613e-05
-0.000109129
9.96751e-05
-0.000122621
9.18176e-05
-0.000122383
7.57139e-05
-0.000108637
4.71377e-05
-7.49479e-05
1.88573e-05
-7.43681e-05
-0.000140814
7.34266e-05
-3.62106e-06
7.49125e-05
-9.66906e-06
7.57281e-05
-1.69556e-05
7.59557e-05
-2.40741e-05
7.55551e-05
-3.18804e-05
7.5151e-05
-4.00136e-05
7.51606e-05
-4.46923e-05
7.63578e-05
-5.34299e-05
7.71768e-05
-6.23795e-05
7.96299e-05
-6.9372e-05
7.98019e-05
-7.63779e-05
8.26677e-05
-9.05463e-05
8.89421e-05
-0.000115403
8.73675e-05
-0.000121046
7.8911e-05
-0.000113926
5.57651e-05
-8.54913e-05
2.68842e-05
-4.60671e-05
1.02465e-05
-5.77304e-05
-0.000130567
6.811e-05
-5.03652e-06
6.91056e-05
-1.06646e-05
6.96921e-05
-1.75421e-05
7.01129e-05
-2.44949e-05
6.96892e-05
-3.14567e-05
6.93116e-05
-3.9636e-05
6.95042e-05
-4.48849e-05
6.93863e-05
-5.33119e-05
6.99276e-05
-6.29209e-05
6.97791e-05
-6.92234e-05
6.99522e-05
-7.65511e-05
7.39526e-05
-9.45467e-05
7.45761e-05
-0.000116027
7.05923e-05
-0.000117062
5.84092e-05
-0.000101743
3.09336e-05
-5.80156e-05
8.87583e-06
-2.40093e-05
4.97112e-06
-5.38257e-05
-0.000125596
6.28708e-05
-5.87513e-06
6.36952e-05
-1.1489e-05
6.40794e-05
-1.79263e-05
6.43054e-05
-2.47208e-05
6.41738e-05
-3.13252e-05
6.33982e-05
-3.88604e-05
6.36671e-05
-4.51537e-05
6.2718e-05
-5.23628e-05
6.17767e-05
-6.19796e-05
6.09351e-05
-6.83819e-05
6.126e-05
-7.68759e-05
5.97668e-05
-9.30536e-05
5.32272e-05
-0.000109487
4.53287e-05
-0.000109164
2.69047e-05
-8.33194e-05
7.25829e-06
-3.83692e-05
1.42628e-06
-1.81773e-05
4.63545e-06
-5.70349e-05
-0.000120961
5.79144e-05
-6.46038e-06
5.85152e-05
-1.20898e-05
5.87874e-05
-1.81985e-05
5.87426e-05
-2.4676e-05
5.86236e-05
-3.12061e-05
5.76577e-05
-3.78945e-05
5.75373e-05
-4.50333e-05
5.64776e-05
-5.13031e-05
5.44311e-05
-5.9933e-05
5.34899e-05
-6.74407e-05
5.14452e-05
-7.48312e-05
4.43813e-05
-8.59897e-05
3.3804e-05
-9.89101e-05
2.17111e-05
-9.70708e-05
6.18833e-06
-6.77966e-05
-1.15517e-06
-3.10257e-05
4.03074e-06
-2.33632e-05
7.34897e-06
-6.03531e-05
-0.000113612
5.31155e-05
-6.89664e-06
5.34937e-05
-1.24679e-05
5.36419e-05
-1.83467e-05
5.34493e-05
-2.44834e-05
5.31255e-05
-3.08823e-05
5.23604e-05
-3.71294e-05
5.14242e-05
-4.40971e-05
5.04898e-05
-5.03687e-05
4.82215e-05
-5.76647e-05
4.5715e-05
-6.49341e-05
4.26038e-05
-7.17201e-05
3.61922e-05
-7.9578e-05
2.49205e-05
-8.76384e-05
1.27495e-05
-8.48998e-05
2.57601e-06
-5.76231e-05
2.94533e-06
-3.1395e-05
1.14656e-05
-3.18835e-05
1.19382e-05
-6.08258e-05
-0.000101674
4.84689e-05
-7.21679e-06
4.86686e-05
-1.26676e-05
4.86485e-05
-1.83266e-05
4.83972e-05
-2.42321e-05
4.7821e-05
-3.03062e-05
4.71394e-05
-3.64478e-05
4.58883e-05
-4.2846e-05
4.46829e-05
-4.91632e-05
4.28963e-05
-5.58781e-05
3.97631e-05
-6.1801e-05
3.69419e-05
-6.88988e-05
3.23324e-05
-7.49686e-05
2.29168e-05
-7.82228e-05
1.26289e-05
-7.46119e-05
6.72591e-06
-5.17201e-05
1.05247e-05
-3.51937e-05
1.59986e-05
-3.73574e-05
1.21046e-05
-5.69317e-05
-8.95691e-05
4.39553e-05
-7.4199e-06
4.40074e-05
-1.27197e-05
4.38649e-05
-1.81841e-05
4.3486e-05
-2.38531e-05
4.2853e-05
-2.96732e-05
4.19719e-05
-3.55666e-05
4.08488e-05
-4.17229e-05
3.93297e-05
-4.76441e-05
3.76933e-05
-5.42418e-05
3.55154e-05
-5.9623e-05
3.31166e-05
-6.65e-05
3.0007e-05
-7.1859e-05
2.45785e-05
-7.27943e-05
1.79738e-05
-6.80072e-05
1.5235e-05
-4.89812e-05
1.63524e-05
-3.63111e-05
1.61689e-05
-3.7174e-05
1.20618e-05
-5.28246e-05
-7.75074e-05
3.95912e-05
-7.51516e-06
3.95247e-05
-1.26532e-05
3.92593e-05
-1.79187e-05
3.87836e-05
-2.33774e-05
3.805e-05
-2.89397e-05
3.7112e-05
-3.46286e-05
3.58679e-05
-4.04787e-05
3.44629e-05
-4.62392e-05
3.28575e-05
-5.26363e-05
3.09919e-05
-5.77574e-05
2.9486e-05
-6.49941e-05
2.87498e-05
-7.11229e-05
2.69398e-05
-7.09843e-05
2.34492e-05
-6.45166e-05
1.99897e-05
-4.55218e-05
1.75221e-05
-3.38435e-05
1.39818e-05
-3.36337e-05
1.00708e-05
-4.89136e-05
-6.74365e-05
3.53699e-05
-7.51199e-06
3.51986e-05
-1.24818e-05
3.48464e-05
-1.75666e-05
3.42728e-05
-2.28037e-05
3.34683e-05
-2.81352e-05
3.24282e-05
-3.35884e-05
3.11117e-05
-3.91622e-05
2.96665e-05
-4.4794e-05
2.80252e-05
-5.0995e-05
2.64633e-05
-5.61955e-05
2.53177e-05
-6.38485e-05
2.61475e-05
-7.19526e-05
2.65306e-05
-7.13674e-05
2.39619e-05
-6.19479e-05
1.99119e-05
-4.14718e-05
1.51017e-05
-2.90334e-05
1.02096e-05
-2.87415e-05
8.66008e-06
-4.73641e-05
-5.87765e-05
3.13022e-05
-7.42035e-06
3.10418e-05
-1.22214e-05
3.05987e-05
-1.71235e-05
2.99524e-05
-2.21574e-05
2.9068e-05
-2.72508e-05
2.79356e-05
-3.2456e-05
2.65256e-05
-3.77522e-05
2.48566e-05
-4.3125e-05
2.29092e-05
-4.90476e-05
2.10295e-05
-5.43158e-05
1.95303e-05
-6.23493e-05
1.93282e-05
-7.17505e-05
1.98039e-05
-7.18431e-05
1.66867e-05
-5.88308e-05
1.25734e-05
-3.73585e-05
7.3067e-06
-2.37667e-05
5.79074e-06
-2.72256e-05
7.42781e-06
-4.90012e-05
-5.13487e-05
2.7367e-05
-7.24465e-06
2.7037e-05
-1.18914e-05
2.65268e-05
-1.66132e-05
2.58101e-05
-2.14407e-05
2.48651e-05
-2.63058e-05
2.36432e-05
-3.12341e-05
2.21294e-05
-3.62384e-05
2.01695e-05
-4.11651e-05
1.78297e-05
-4.67078e-05
1.50301e-05
-5.15163e-05
1.11846e-05
-5.85038e-05
5.28803e-06
-6.5854e-05
-6.79438e-07
-6.58756e-05
-4.10875e-06
-5.54014e-05
-6.35528e-06
-3.5112e-05
-5.01972e-06
-2.51022e-05
1.85621e-06
-3.41015e-05
4.05971e-06
-5.12047e-05
-4.72889e-05
2.35694e-05
-6.99448e-06
2.31674e-05
-1.14894e-05
2.26093e-05
-1.60551e-05
2.18474e-05
-2.06788e-05
2.08689e-05
-2.53273e-05
1.95944e-05
-2.99596e-05
1.79965e-05
-3.46405e-05
1.58582e-05
-3.90268e-05
1.30156e-05
-4.38653e-05
9.08703e-06
-4.75877e-05
2.92717e-06
-5.23439e-05
-5.42357e-06
-5.75032e-05
-1.24393e-05
-5.88599e-05
-1.58515e-05
-5.19892e-05
-1.48778e-05
-3.60857e-05
-7.38835e-06
-3.25916e-05
1.86807e-06
-4.33579e-05
2.16315e-06
-5.14998e-05
-4.51258e-05
1.98941e-05
-6.6759e-06
1.94425e-05
-1.10378e-05
1.88398e-05
-1.54524e-05
1.8068e-05
-1.9907e-05
1.70841e-05
-2.43434e-05
1.58502e-05
-2.87257e-05
1.42752e-05
-3.30655e-05
1.22615e-05
-3.70131e-05
9.44108e-06
-4.10449e-05
5.51271e-06
-4.36593e-05
1.81387e-08
-4.68494e-05
-6.98291e-06
-5.05022e-05
-1.38907e-05
-5.19521e-05
-1.58977e-05
-4.99822e-05
-1.19325e-05
-4.0051e-05
-3.08847e-06
-4.14356e-05
1.87186e-06
-4.83182e-05
4.90123e-07
-5.01181e-05
-4.46357e-05
1.63244e-05
-6.29257e-06
1.58279e-05
-1.05414e-05
1.52078e-05
-1.48323e-05
1.44373e-05
-1.91366e-05
1.3494e-05
-2.34001e-05
1.23363e-05
-2.7568e-05
1.08882e-05
-3.16173e-05
9.02117e-06
-3.51461e-05
6.54094e-06
-3.85647e-05
3.89583e-06
-4.10142e-05
8.30887e-07
-4.37844e-05
-3.58223e-06
-4.60891e-05
-8.69791e-06
-4.68365e-05
-7.95843e-06
-5.07217e-05
-1.73738e-06
-4.6272e-05
3.1978e-06
-4.63708e-05
2.83737e-06
-4.79578e-05
1.03244e-06
-4.83131e-05
-4.36032e-05
1.28583e-05
-5.84787e-06
1.23245e-05
-1.00076e-05
1.16989e-05
-1.42067e-05
1.09581e-05
-1.83957e-05
1.00861e-05
-2.25281e-05
9.02496e-06
-2.65069e-05
7.66589e-06
-3.02583e-05
6.08284e-06
-3.3563e-05
4.57347e-06
-3.70553e-05
3.64346e-06
-4.00842e-05
2.20582e-06
-4.23468e-05
2.20658e-06
-4.60898e-05
1.9019e-06
-4.65318e-05
2.98788e-06
-5.18077e-05
6.2202e-06
-4.95044e-05
7.29122e-06
-4.74418e-05
5.15527e-06
-4.58219e-05
2.63844e-06
-4.57963e-05
-4.09648e-05
9.45748e-06
-5.33684e-06
8.88845e-06
-9.43862e-06
8.25426e-06
-1.35725e-05
7.53869e-06
-1.76802e-05
6.70173e-06
-2.16911e-05
5.72523e-06
-2.55304e-05
4.82379e-06
-2.93568e-05
4.39468e-06
-3.31339e-05
4.12129e-06
-3.67819e-05
4.39684e-06
-4.03598e-05
4.67734e-06
-4.26273e-05
7.03148e-06
-4.8444e-05
9.53193e-06
-4.90322e-05
9.48911e-06
-5.17649e-05
9.67866e-06
-4.96939e-05
9.78209e-06
-4.75453e-05
7.94848e-06
-4.39883e-05
4.73085e-06
-4.25787e-05
-3.62339e-05
6.1251e-06
-4.7181e-06
5.51095e-06
-8.82446e-06
4.85141e-06
-1.29129e-05
4.16384e-06
-1.69926e-05
3.63278e-06
-2.11601e-05
3.48769e-06
-2.53853e-05
3.72629e-06
-2.95954e-05
4.36208e-06
-3.37697e-05
5.06239e-06
-3.74822e-05
6.94375e-06
-4.22411e-05
9.03733e-06
-4.47209e-05
1.04768e-05
-4.98835e-05
1.15928e-05
-5.01482e-05
1.10229e-05
-5.11949e-05
1.0545e-05
-4.9216e-05
1.01153e-05
-4.71156e-05
7.93601e-06
-4.1809e-05
4.45284e-06
-3.90955e-05
-3.17811e-05
3.00201e-06
-3.96045e-06
2.29883e-06
-8.12128e-06
1.8462e-06
-1.24603e-05
1.79518e-06
-1.69416e-05
2.12219e-06
-2.14871e-05
2.81593e-06
-2.6079e-05
3.78224e-06
-3.05617e-05
5.37594e-06
-3.53634e-05
7.08111e-06
-3.91874e-05
9.19258e-06
-4.43526e-05
1.09996e-05
-4.65279e-05
1.14134e-05
-5.02973e-05
1.17004e-05
-5.04351e-05
1.10296e-05
-5.05242e-05
9.86309e-06
-4.80494e-05
8.21833e-06
-4.54708e-05
5.14419e-06
-3.87349e-05
2.28867e-06
-3.624e-05
-2.94924e-05
1.92968e-08
2.48615e-07
6.47506e-07
1.23509e-06
2.0353e-06
3.122e-06
4.43885e-06
6.10174e-06
7.84263e-06
9.466e-06
1.0985e-05
1.13834e-05
1.13892e-05
1.05726e-05
9.07536e-06
7.09924e-06
4.61901e-06
2.31254e-06
)
;

boundaryField
{
    leftWall
    {
        type            calculated;
        value           nonuniform 0();
    }
    rightWall
    {
        type            calculated;
        value           uniform 0;
    }
    lowerWall
    {
        type            calculated;
        value           nonuniform 0();
    }
    atmosphere
    {
        type            calculated;
        value           nonuniform List<scalar> 
23
(
1.51175e-06
8.75651e-07
2.08561e-07
-4.94237e-07
-4.03562e-06
-8.3506e-06
-1.28592e-05
-1.75291e-05
-2.22873e-05
-2.71657e-05
-3.18786e-05
-3.70263e-05
-4.09283e-05
-4.59759e-05
-4.8047e-05
-5.06956e-05
-5.0441e-05
-4.97076e-05
-4.65521e-05
-4.34947e-05
-3.62546e-05
-3.39335e-05
-2.71799e-05
)
;
    }
    defaultFaces
    {
        type            empty;
        value           nonuniform 0();
    }
    procBoundary3to1
    {
        type            processor;
        value           nonuniform List<scalar> 
23
(
-8.08134e-06
-6.08912e-06
-5.29326e-06
-3.20012e-06
-2.49683e-06
1.31146e-05
5.30481e-05
7.75787e-05
8.12096e-05
6.79644e-05
5.65589e-05
3.74067e-05
1.66926e-05
3.40475e-05
3.21655e-05
4.78079e-06
2.73605e-05
0.000124747
0.000228427
0.000279146
0.000275698
0.000255352
0.000295651
)
;
    }
    procBoundary3to2
    {
        type            processor;
        value           nonuniform List<scalar> 
25
(
-0.000198656
-0.000144125
-0.000105392
-8.50859e-05
-7.65923e-05
-7.21036e-05
-6.84386e-05
-6.45119e-05
-6.02744e-05
-5.58713e-05
-5.14589e-05
-4.71347e-05
-4.29509e-05
-3.88881e-05
-3.49544e-05
-3.11492e-05
-2.74674e-05
-2.39044e-05
-2.04536e-05
-1.70888e-05
-1.38397e-05
-1.07539e-05
-7.68908e-06
-4.74704e-06
-1.65417e-08
)
;
    }
}


// ************************************************************************* //
