/*--------------------------------*- C++ -*----------------------------------*\
| =========                 |                                                 |
| \\      /  F ield         | OpenFOAM: The Open Source CFD Toolbox           |
|  \\    /   O peration     | Version:  2.4.0                                 |
|   \\  /    A nd           | Web:      www.OpenFOAM.org                      |
|    \\/     M anipulation  |                                                 |
\*---------------------------------------------------------------------------*/
FoamFile
{
    version     2.0;
    format      ascii;
    class       surfaceScalarField;
    location    "0.9";
    object      phi.mercury;
}
// * * * * * * * * * * * * * * * * * * * * * * * * * * * * * * * * * * * * * //

dimensions      [0 3 -1 0 0 0 0];

internalField   nonuniform List<scalar> 
1102
(
0.000206073
6.56847e-07
0.000210963
1.19815e-06
0.00021331
2.95185e-06
5.30803e-06
0.000211205
0.000145302
-5.24536e-07
0.000146053
4.45897e-07
0.000146206
2.79806e-06
6.72919e-06
0.000144785
0.000103528
1.33583e-06
0.000101831
2.14231e-06
0.000101141
3.48933e-06
5.80771e-06
0.000102063
8.33476e-05
3.07117e-06
8.22685e-05
3.22198e-06
8.23822e-05
3.37566e-06
3.98353e-06
8.42064e-05
7.57849e-05
3.87607e-06
7.55469e-05
3.46006e-06
7.60615e-05
2.86121e-06
2.37137e-06
7.76734e-05
7.20649e-05
3.91252e-06
7.23869e-05
3.13824e-06
7.31073e-05
2.14084e-06
1.19031e-06
7.42883e-05
6.88454e-05
3.50354e-06
6.94266e-05
2.55691e-06
7.01184e-05
1.44912e-06
3.39808e-07
7.0969e-05
6.50168e-05
2.99669e-06
6.55757e-05
1.99811e-06
6.61342e-05
8.90544e-07
-2.18477e-07
6.66926e-05
6.07272e-05
2.54207e-06
6.11907e-05
1.53459e-06
6.16231e-05
4.58192e-07
-6.25814e-07
6.20304e-05
5.62746e-05
2.13725e-06
5.66657e-05
1.14362e-06
5.70191e-05
1.04751e-07
-9.34316e-07
5.73276e-05
5.18091e-05
1.78568e-06
5.21334e-05
8.19264e-07
5.24271e-05
-1.88982e-07
-1.18509e-06
5.26779e-05
4.74357e-05
1.48344e-06
4.77102e-05
5.4481e-07
4.79457e-05
-4.24531e-07
-1.38692e-06
4.81475e-05
4.32005e-05
1.23278e-06
4.34208e-05
3.24376e-07
4.36021e-05
-6.05902e-07
-1.53586e-06
4.3751e-05
3.90871e-05
1.03285e-06
3.92586e-05
1.52895e-07
3.93939e-05
-7.41335e-07
-1.63691e-06
3.94949e-05
3.51035e-05
8.82846e-07
3.52256e-05
3.0756e-08
3.53135e-05
-8.29381e-07
-1.69558e-06
3.53721e-05
3.12517e-05
7.7964e-07
3.13299e-05
-4.75782e-08
3.13754e-05
-8.74914e-07
-1.71322e-06
3.13929e-05
2.75256e-05
7.20804e-07
2.75574e-05
-7.94223e-08
2.75635e-05
-8.81212e-07
-1.69165e-06
2.75419e-05
2.39196e-05
7.05093e-07
2.39108e-05
-7.07233e-08
2.38764e-05
-8.46984e-07
-1.63414e-06
2.38189e-05
2.04266e-05
7.31669e-07
2.03774e-05
-2.1598e-08
2.03057e-05
-7.75414e-07
-1.54054e-06
2.0212e-05
1.70271e-05
7.93032e-07
1.69405e-05
6.48607e-08
1.6835e-05
-6.69899e-07
-1.4128e-06
1.67071e-05
1.37293e-05
9.03118e-07
1.36033e-05
1.90841e-07
1.34611e-05
-5.27805e-07
-1.25429e-06
1.33025e-05
1.05621e-05
1.0947e-06
1.03655e-05
3.87318e-07
1.01712e-05
-3.33537e-07
-1.05129e-06
9.96812e-06
7.4945e-06
1.28914e-06
7.2702e-06
6.11637e-07
7.00481e-06
-6.82755e-08
-7.90069e-07
6.74355e-06
4.53733e-06
1.49868e-06
4.28983e-06
8.58992e-07
4.04113e-06
1.80359e-07
-5.08446e-07
3.75943e-06
3.32362e-09
-1.33689e-08
-4.16716e-08
-5.59671e-08
0.000196564
1.71391e-05
0.000173083
1.03707e-05
0.000145719
-2.56869e-05
0.000120681
-5.25509e-05
9.85444e-05
-5.90838e-05
8.70006e-05
-5.64229e-05
8.04031e-05
-4.99691e-05
8.30581e-05
-4.03499e-05
8.22681e-05
-2.23961e-05
7.83341e-05
-2.04249e-05
7.55083e-05
-3.4506e-05
0.000110711
-3.54115e-05
0.00014687
-6.21621e-05
0.000161693
-0.000138335
0.000146138
-0.000210853
0.000114287
-0.00024561
7.95306e-05
-0.000239236
4.44062e-05
-0.000221875
-0.000251957
0.000140012
2.19145e-05
0.00013666
1.37269e-05
0.00012598
-1.50013e-05
0.000111049
-3.76171e-05
9.84837e-05
-4.65183e-05
9.11787e-05
-4.91154e-05
8.77534e-05
-4.65373e-05
9.13445e-05
-4.39023e-05
0.000109709
-4.13941e-05
0.000127668
-3.95602e-05
0.000137306
-3.96718e-05
0.000156629
-4.87822e-05
0.000172885
-7.29197e-05
0.00017199
-0.000130172
0.00014613
-0.000180862
0.000108548
-0.000209652
6.7423e-05
-0.000200502
2.92893e-05
-0.000183383
-0.000223322
0.000106946
1.70349e-05
0.000113457
7.21895e-06
0.000112084
-1.36254e-05
0.000103706
-2.9235e-05
9.66921e-05
-3.95034e-05
9.19598e-05
-4.43818e-05
9.04996e-05
-4.50748e-05
9.31319e-05
-4.65282e-05
9.89501e-05
-4.72664e-05
0.000112306
-5.40997e-05
0.000129115
-5.98436e-05
0.000145384
-7.02765e-05
0.000156993
-9.08668e-05
0.000147318
-0.000128047
0.000120365
-0.000158882
8.7554e-05
-0.000176544
5.18304e-05
-0.000164494
2.19356e-05
-0.000152544
-0.000201965
9.16059e-05
9.63417e-06
9.9565e-05
-7.4094e-07
9.95203e-05
-1.35784e-05
9.59542e-05
-2.5667e-05
9.19397e-05
-3.54877e-05
8.94175e-05
-4.18582e-05
8.91947e-05
-4.48515e-05
9.19597e-05
-4.92924e-05
9.70158e-05
-5.23228e-05
0.000103732
-6.08967e-05
0.00011459
-7.09738e-05
0.000122504
-7.87949e-05
0.000126783
-9.59669e-05
0.000119373
-0.000120801
0.000101387
-0.000140874
7.30811e-05
-0.000146924
4.26349e-05
-0.00013313
1.96253e-05
-0.000128715
-0.000183056
8.41844e-05
3.12206e-06
8.89284e-05
-5.48446e-06
9.03619e-05
-1.50108e-05
8.89324e-05
-2.42362e-05
8.65731e-05
-3.31274e-05
8.56855e-05
-4.09701e-05
8.55741e-05
-4.47399e-05
8.76298e-05
-5.13478e-05
9.26888e-05
-5.73815e-05
9.56388e-05
-6.3848e-05
0.000100575
-7.59112e-05
0.000106295
-8.45519e-05
0.000112614
-0.000102264
0.000113432
-0.000122129
0.00010215
-0.000129971
7.94902e-05
-0.00012458
4.95354e-05
-0.000103323
2.39247e-05
-0.000102859
-0.000159858
7.85754e-05
-1.16508e-06
8.12739e-05
-8.18238e-06
8.24031e-05
-1.6139e-05
8.20133e-05
-2.38455e-05
8.11664e-05
-3.22798e-05
8.06132e-05
-4.04167e-05
8.05548e-05
-4.46817e-05
8.1439e-05
-5.22319e-05
8.56184e-05
-6.15602e-05
8.86887e-05
-6.69198e-05
8.8982e-05
-7.62126e-05
9.21508e-05
-8.77108e-05
9.90727e-05
-0.000109261
9.88876e-05
-0.000122554
9.16185e-05
-0.000122288
7.55385e-05
-0.000108506
4.8114e-05
-7.51725e-05
1.98781e-05
-7.49149e-05
-0.000140968
7.34246e-05
-3.62046e-06
7.49111e-05
-9.66823e-06
7.57275e-05
-1.69546e-05
7.59558e-05
-2.4073e-05
7.55557e-05
-3.18793e-05
7.51518e-05
-4.00126e-05
7.51613e-05
-4.46914e-05
7.63585e-05
-5.34292e-05
7.71768e-05
-6.23791e-05
7.96396e-05
-6.93731e-05
7.97701e-05
-7.63863e-05
8.27133e-05
-9.05895e-05
8.86543e-05
-0.000115538
8.66241e-05
-0.000121032
7.87244e-05
-0.000114012
5.58213e-05
-8.55814e-05
2.78122e-05
-4.66783e-05
1.07782e-05
-5.81812e-05
-0.000130662
6.81082e-05
-5.03588e-06
6.91043e-05
-1.06637e-05
6.96916e-05
-1.75411e-05
7.01131e-05
-2.44938e-05
6.96898e-05
-3.14556e-05
6.93123e-05
-3.9635e-05
6.95048e-05
-4.48841e-05
6.93866e-05
-5.33113e-05
6.99286e-05
-6.29205e-05
6.97743e-05
-6.92246e-05
6.9961e-05
-7.65611e-05
7.38891e-05
-9.45978e-05
7.37348e-05
-0.000116123
6.97804e-05
-0.000116748
5.82373e-05
-0.000100868
3.15728e-05
-5.79403e-05
9.2051e-06
-2.48662e-05
5.09855e-06
-5.41079e-05
-0.000125672
6.28693e-05
-5.87447e-06
6.36941e-05
-1.14881e-05
6.4079e-05
-1.79253e-05
6.43055e-05
-2.47198e-05
6.41743e-05
-3.13242e-05
6.33988e-05
-3.88595e-05
6.36676e-05
-4.5153e-05
6.27181e-05
-5.23623e-05
6.1777e-05
-6.19792e-05
6.0932e-05
-6.83828e-05
6.1256e-05
-7.6886e-05
5.94788e-05
-9.31017e-05
5.12868e-05
-0.000109574
4.42883e-05
-0.000109382
2.71451e-05
-8.42133e-05
8.07896e-06
-3.92913e-05
1.2727e-06
-1.8751e-05
4.54596e-06
-5.73552e-05
-0.000121015
5.7913e-05
-6.45971e-06
5.85143e-05
-1.2089e-05
5.87871e-05
-1.81976e-05
5.87428e-05
-2.46751e-05
5.8624e-05
-3.12052e-05
5.76582e-05
-3.78937e-05
5.75376e-05
-4.50327e-05
5.64777e-05
-5.13026e-05
5.44306e-05
-5.99326e-05
5.34915e-05
-6.74414e-05
5.13755e-05
-7.48422e-05
4.39284e-05
-8.60472e-05
3.15529e-05
-9.91233e-05
2.11327e-05
-9.76544e-05
6.42179e-06
-6.87947e-05
-1.05463e-06
-3.21843e-05
3.69572e-06
-2.43372e-05
7.36275e-06
-6.072e-05
-0.000113656
5.31143e-05
-6.89598e-06
5.34928e-05
-1.24671e-05
5.36415e-05
-1.83458e-05
5.34494e-05
-2.44826e-05
5.31259e-05
-3.08815e-05
5.23608e-05
-3.71287e-05
5.14244e-05
-4.40966e-05
5.04898e-05
-5.03682e-05
4.82208e-05
-5.76643e-05
4.57135e-05
-6.49346e-05
4.25437e-05
-7.17281e-05
3.58612e-05
-7.96301e-05
2.35216e-05
-8.78538e-05
1.19769e-05
-8.53269e-05
2.88442e-06
-5.8378e-05
2.7459e-06
-3.25796e-05
1.12579e-05
-3.31858e-05
1.19134e-05
-6.12777e-05
-0.000101752
4.84678e-05
-7.21616e-06
4.86678e-05
-1.26668e-05
4.86482e-05
-1.83258e-05
4.83972e-05
-2.42313e-05
4.78213e-05
-3.03055e-05
4.71397e-05
-3.64471e-05
4.58885e-05
-4.28455e-05
4.46829e-05
-4.91628e-05
4.28959e-05
-5.58776e-05
3.97613e-05
-6.18009e-05
3.69224e-05
-6.8902e-05
3.21266e-05
-7.49947e-05
2.21032e-05
-7.83344e-05
1.20789e-05
-7.49579e-05
6.66841e-06
-5.22807e-05
1.05401e-05
-3.59227e-05
1.57303e-05
-3.81377e-05
1.23886e-05
-5.70108e-05
-8.96273e-05
4.39543e-05
-7.4193e-06
4.40067e-05
-1.2719e-05
4.38646e-05
-1.81834e-05
4.3486e-05
-2.38524e-05
4.28532e-05
-2.96726e-05
4.1972e-05
-3.5566e-05
4.08489e-05
-4.17224e-05
3.93297e-05
-4.76436e-05
3.76932e-05
-5.42412e-05
3.55149e-05
-5.96226e-05
3.3112e-05
-6.65001e-05
2.99745e-05
-7.18633e-05
2.39311e-05
-7.2822e-05
1.75723e-05
-6.8069e-05
1.51517e-05
-4.9014e-05
1.63583e-05
-3.65728e-05
1.59193e-05
-3.67092e-05
1.21746e-05
-5.27982e-05
-7.75346e-05
3.95903e-05
-7.51459e-06
3.95241e-05
-1.26525e-05
3.9259e-05
-1.79181e-05
3.87835e-05
-2.33767e-05
3.80501e-05
-2.89391e-05
3.71121e-05
-3.4628e-05
3.58679e-05
-4.04782e-05
3.44629e-05
-4.62386e-05
3.28574e-05
-5.26357e-05
3.09917e-05
-5.77568e-05
2.94855e-05
-6.49937e-05
2.87494e-05
-7.11229e-05
2.67753e-05
-7.09895e-05
2.32323e-05
-6.44995e-05
1.98331e-05
-4.55372e-05
1.7449e-05
-3.38319e-05
1.41336e-05
-3.37816e-05
1.00906e-05
-4.89568e-05
-6.74483e-05
3.53691e-05
-7.51147e-06
3.51979e-05
-1.24812e-05
3.48461e-05
-1.7566e-05
3.42727e-05
-2.28031e-05
3.34683e-05
-2.81346e-05
3.24282e-05
-3.35878e-05
3.11117e-05
-3.91616e-05
2.96665e-05
-4.47934e-05
2.80252e-05
-5.09944e-05
2.64632e-05
-5.61948e-05
2.53175e-05
-6.38478e-05
2.61483e-05
-7.1952e-05
2.65176e-05
-7.13673e-05
2.39131e-05
-6.19647e-05
1.98685e-05
-4.15377e-05
1.51716e-05
-2.91916e-05
1.02528e-05
-2.88162e-05
8.65965e-06
-4.73694e-05
-5.87808e-05
3.13014e-05
-7.41986e-06
3.10412e-05
-1.22209e-05
3.05983e-05
-1.71229e-05
2.99522e-05
-2.21568e-05
2.90679e-05
-2.72502e-05
2.79356e-05
-3.24554e-05
2.65257e-05
-3.77515e-05
2.48567e-05
-4.31243e-05
2.29093e-05
-4.90469e-05
2.10295e-05
-5.4315e-05
1.95302e-05
-6.23486e-05
1.93282e-05
-7.17498e-05
1.98026e-05
-7.18429e-05
1.66855e-05
-5.88325e-05
1.25671e-05
-3.73703e-05
7.31005e-06
-2.3783e-05
5.7894e-06
-2.72287e-05
7.42687e-06
-4.90007e-05
-5.13495e-05
2.73663e-05
-7.24418e-06
2.70364e-05
-1.18909e-05
2.65264e-05
-1.66126e-05
2.58099e-05
-2.14401e-05
2.48651e-05
-2.63051e-05
2.36432e-05
-3.12334e-05
2.21295e-05
-3.62377e-05
2.01695e-05
-4.11643e-05
1.78297e-05
-4.67071e-05
1.50301e-05
-5.15155e-05
1.11843e-05
-5.8503e-05
5.28731e-06
-6.58532e-05
-6.81657e-07
-6.58752e-05
-4.10802e-06
-5.54022e-05
-6.35794e-06
-3.51151e-05
-5.02279e-06
-2.5106e-05
1.85513e-06
-3.40979e-05
4.05919e-06
-5.12048e-05
-4.7289e-05
2.35687e-05
-6.99402e-06
2.31669e-05
-1.14889e-05
2.26089e-05
-1.60545e-05
2.18472e-05
-2.06782e-05
2.08689e-05
-2.53266e-05
1.95945e-05
-2.99588e-05
1.79966e-05
-3.46397e-05
1.58583e-05
-3.9026e-05
1.30157e-05
-4.38645e-05
9.08699e-06
-4.75869e-05
2.92677e-06
-5.23432e-05
-5.42484e-06
-5.75026e-05
-1.24413e-05
-5.88601e-05
-1.58505e-05
-5.199e-05
-1.4878e-05
-3.60869e-05
-7.39546e-06
-3.25881e-05
1.86834e-06
-4.33561e-05
2.16281e-06
-5.14996e-05
-4.51251e-05
1.98934e-05
-6.67546e-06
1.9442e-05
-1.10373e-05
1.88395e-05
-1.54518e-05
1.80678e-05
-1.99063e-05
1.70841e-05
-2.43427e-05
1.58503e-05
-2.87249e-05
1.42753e-05
-3.30647e-05
1.22616e-05
-3.70122e-05
9.44112e-06
-4.10441e-05
5.51266e-06
-4.36585e-05
1.77907e-08
-4.68486e-05
-6.98394e-06
-5.05016e-05
-1.3892e-05
-5.19522e-05
-1.58972e-05
-4.99822e-05
-1.19328e-05
-4.00495e-05
-3.09221e-06
-4.14336e-05
1.87226e-06
-4.83176e-05
4.89935e-07
-5.01174e-05
-4.4635e-05
1.63238e-05
-6.29212e-06
1.58275e-05
-1.05408e-05
1.52075e-05
-1.48316e-05
1.44372e-05
-1.91359e-05
1.3494e-05
-2.33993e-05
1.23364e-05
-2.75672e-05
1.08883e-05
-3.16165e-05
9.02126e-06
-3.51453e-05
6.54096e-06
-3.85639e-05
3.89577e-06
-4.10134e-05
8.30696e-07
-4.37837e-05
-3.58269e-06
-4.60884e-05
-8.69842e-06
-4.68359e-05
-7.95841e-06
-5.07208e-05
-1.73786e-06
-4.62705e-05
3.19729e-06
-4.637e-05
2.83748e-06
-4.79571e-05
1.03231e-06
-4.83124e-05
-4.36024e-05
1.28578e-05
-5.84744e-06
1.23242e-05
-1.00071e-05
1.16987e-05
-1.4206e-05
1.0958e-05
-1.8395e-05
1.00861e-05
-2.25274e-05
9.02506e-06
-2.65061e-05
7.666e-06
-3.02575e-05
6.0829e-06
-3.35623e-05
4.57347e-06
-3.70546e-05
3.64338e-06
-4.00835e-05
2.20569e-06
-4.23461e-05
2.20646e-06
-4.60891e-05
1.90167e-06
-4.6531e-05
2.98769e-06
-5.18069e-05
6.22003e-06
-4.95035e-05
7.29106e-06
-4.74409e-05
5.15516e-06
-4.5821e-05
2.6384e-06
-4.57954e-05
-4.09639e-05
9.45709e-06
-5.33642e-06
8.88814e-06
-9.4381e-06
8.25407e-06
-1.35718e-05
7.53862e-06
-1.76795e-05
6.70176e-06
-2.16904e-05
5.72531e-06
-2.55297e-05
4.82387e-06
-2.93561e-05
4.39471e-06
-3.31332e-05
4.12127e-06
-3.67813e-05
4.39677e-06
-4.03591e-05
4.67723e-06
-4.26266e-05
7.03135e-06
-4.84433e-05
9.53177e-06
-4.90315e-05
9.48897e-06
-5.1764e-05
9.67854e-06
-4.9693e-05
9.78196e-06
-4.75443e-05
7.94839e-06
-4.39873e-05
4.73084e-06
-4.25777e-05
-3.6233e-05
6.1248e-06
-4.71773e-06
5.51072e-06
-8.82396e-06
4.85126e-06
-1.29123e-05
4.1638e-06
-1.69919e-05
3.63281e-06
-2.11594e-05
3.48775e-06
-2.53846e-05
3.72634e-06
-2.95947e-05
4.3621e-06
-3.3769e-05
5.06237e-06
-3.74816e-05
6.94369e-06
-4.22405e-05
9.03725e-06
-4.47202e-05
1.04767e-05
-4.98828e-05
1.15927e-05
-5.01474e-05
1.10228e-05
-5.11941e-05
1.05449e-05
-4.92151e-05
1.01152e-05
-4.71147e-05
7.93598e-06
-4.1808e-05
4.45282e-06
-3.90945e-05
-3.17801e-05
3.00181e-06
-3.96011e-06
2.29867e-06
-8.12078e-06
1.84611e-06
-1.24597e-05
1.79515e-06
-1.69409e-05
2.1222e-06
-2.14864e-05
2.81596e-06
-2.60783e-05
3.78227e-06
-3.0561e-05
5.37595e-06
-3.53627e-05
7.08109e-06
-3.91868e-05
9.19254e-06
-4.43519e-05
1.09996e-05
-4.65273e-05
1.14134e-05
-5.02966e-05
1.17003e-05
-5.04344e-05
1.10296e-05
-5.05234e-05
9.86305e-06
-4.80486e-05
8.21831e-06
-4.547e-05
5.14415e-06
-3.8734e-05
2.28865e-06
-3.62391e-05
-2.94915e-05
1.92227e-08
2.48559e-07
6.47469e-07
1.23507e-06
2.0353e-06
3.122e-06
4.43885e-06
6.10173e-06
7.84261e-06
9.46598e-06
1.0985e-05
1.13833e-05
1.13892e-05
1.05726e-05
9.07537e-06
7.09924e-06
4.619e-06
2.31254e-06
)
;

boundaryField
{
    leftWall
    {
        type            fixedValue;
        value           nonuniform 0();
    }
    rightWall
    {
        type            fixedValue;
        value           uniform 0;
    }
    lowerWall
    {
        type            fixedValue;
        value           nonuniform 0();
    }
    atmosphere
    {
        type            calculated;
        value           nonuniform List<scalar> 
23
(
1.51171e-06
8.75649e-07
2.08589e-07
-4.94167e-07
-4.0353e-06
-8.3501e-06
-1.28586e-05
-1.75285e-05
-2.22866e-05
-2.7165e-05
-3.18779e-05
-3.70256e-05
-4.09276e-05
-4.59753e-05
-4.80463e-05
-5.06949e-05
-5.04403e-05
-4.97068e-05
-4.65513e-05
-4.34939e-05
-3.62538e-05
-3.39326e-05
-2.7179e-05
)
;
    }
    defaultFaces
    {
        type            empty;
        value           nonuniform 0();
    }
    procBoundary3to1
    {
        type            processor;
        value           nonuniform List<scalar> 
23
(
-8.09206e-06
-6.10072e-06
-5.30136e-06
-3.20398e-06
-2.49624e-06
1.31259e-05
5.30582e-05
7.75882e-05
8.12159e-05
6.79701e-05
5.65665e-05
3.70531e-05
1.86875e-05
3.31062e-05
3.40272e-05
7.88651e-06
2.99566e-05
0.000122622
0.000227679
0.000278216
0.00027568
0.000255724
0.000295746
)
;
    }
    procBoundary3to2
    {
        type            processor;
        value           nonuniform List<scalar> 
25
(
-0.000198648
-0.000144121
-0.000105389
-8.50825e-05
-7.65893e-05
-7.21008e-05
-6.84361e-05
-6.45096e-05
-6.02724e-05
-5.58695e-05
-5.14573e-05
-4.71332e-05
-4.29497e-05
-3.8887e-05
-3.49534e-05
-3.11484e-05
-2.74667e-05
-2.39038e-05
-2.04531e-05
-1.70884e-05
-1.38393e-05
-1.07537e-05
-7.68887e-06
-4.74694e-06
-1.65531e-08
)
;
    }
}


// ************************************************************************* //
