/*--------------------------------*- C++ -*----------------------------------*\
| =========                 |                                                 |
| \\      /  F ield         | OpenFOAM: The Open Source CFD Toolbox           |
|  \\    /   O peration     | Version:  2.4.0                                 |
|   \\  /    A nd           | Web:      www.OpenFOAM.org                      |
|    \\/     M anipulation  |                                                 |
\*---------------------------------------------------------------------------*/
FoamFile
{
    version     2.0;
    format      ascii;
    class       surfaceScalarField;
    location    "0.9";
    object      phi.oil;
}
// * * * * * * * * * * * * * * * * * * * * * * * * * * * * * * * * * * * * * //

dimensions      [0 3 -1 0 0 0 0];

internalField   nonuniform List<scalar> 
1102
(
0.000196419
2.51917e-06
0.000200378
3.31874e-06
0.00020598
4.33462e-06
5.83133e-06
0.000213822
0.000144165
-5.71202e-07
0.000146654
2.90202e-07
0.000147489
2.69226e-06
6.45664e-06
0.00014426
0.000102611
8.36916e-07
0.000101861
1.58319e-06
0.000101934
2.86864e-06
5.23806e-06
0.000103241
8.31342e-05
2.82197e-06
8.2328e-05
3.00253e-06
8.24164e-05
3.23957e-06
3.89199e-06
8.42773e-05
7.56563e-05
3.81018e-06
7.51392e-05
3.38566e-06
7.61261e-05
2.76243e-06
2.33225e-06
7.73126e-05
7.20435e-05
3.89627e-06
7.23978e-05
3.12201e-06
7.31242e-05
2.13252e-06
1.19411e-06
7.4222e-05
6.88468e-05
3.49989e-06
6.94284e-05
2.55437e-06
7.01204e-05
1.4473e-06
3.3855e-07
7.09614e-05
6.50169e-05
2.99522e-06
6.55759e-05
1.997e-06
6.61344e-05
8.89697e-07
-2.19086e-07
6.66923e-05
6.07272e-05
2.54141e-06
6.11907e-05
1.5341e-06
6.16231e-05
4.5783e-07
-6.26069e-07
6.20304e-05
5.62746e-05
2.13699e-06
5.66657e-05
1.14343e-06
5.70191e-05
1.0462e-07
-9.34404e-07
5.73276e-05
5.18091e-05
1.7856e-06
5.21334e-05
8.1921e-07
5.24271e-05
-1.89019e-07
-1.18512e-06
5.26779e-05
4.74357e-05
1.48342e-06
4.77102e-05
5.44797e-07
4.79457e-05
-4.24539e-07
-1.38692e-06
4.81475e-05
4.32005e-05
1.23278e-06
4.34208e-05
3.24373e-07
4.36021e-05
-6.05904e-07
-1.53586e-06
4.3751e-05
3.90871e-05
1.03285e-06
3.92586e-05
1.52895e-07
3.93939e-05
-7.41335e-07
-1.63691e-06
3.94949e-05
3.51035e-05
8.82846e-07
3.52256e-05
3.07559e-08
3.53135e-05
-8.29381e-07
-1.69558e-06
3.53721e-05
3.12517e-05
7.7964e-07
3.13299e-05
-4.75782e-08
3.13754e-05
-8.74914e-07
-1.71322e-06
3.13929e-05
2.75256e-05
7.20804e-07
2.75574e-05
-7.94223e-08
2.75635e-05
-8.81212e-07
-1.69165e-06
2.75419e-05
2.39196e-05
7.05093e-07
2.39108e-05
-7.07233e-08
2.38764e-05
-8.46984e-07
-1.63414e-06
2.38189e-05
2.04266e-05
7.31669e-07
2.03774e-05
-2.1598e-08
2.03057e-05
-7.75414e-07
-1.54054e-06
2.0212e-05
1.70271e-05
7.93032e-07
1.69405e-05
6.48607e-08
1.6835e-05
-6.69899e-07
-1.4128e-06
1.67071e-05
1.37293e-05
9.03118e-07
1.36033e-05
1.90841e-07
1.34611e-05
-5.27805e-07
-1.25429e-06
1.33025e-05
1.05621e-05
1.0947e-06
1.03655e-05
3.87318e-07
1.01712e-05
-3.33537e-07
-1.05129e-06
9.96812e-06
7.4945e-06
1.28914e-06
7.2702e-06
6.11637e-07
7.00481e-06
-6.82755e-08
-7.90069e-07
6.74355e-06
4.53733e-06
1.49868e-06
4.28983e-06
8.58992e-07
4.04113e-06
1.80359e-07
-5.08446e-07
3.75943e-06
3.32362e-09
-1.33689e-08
-4.16716e-08
-5.59671e-08
0.000199175
1.78797e-05
0.000179253
9.57928e-06
0.000141477
-2.81502e-05
0.000108155
-5.28344e-05
9.77495e-05
-5.97883e-05
8.66583e-05
-5.67996e-05
8.03052e-05
-5.01401e-05
8.30336e-05
-4.02635e-05
7.94419e-05
-2.28228e-05
6.74491e-05
-1.99974e-05
7.63439e-05
-3.16364e-05
0.000104953
-2.99326e-05
0.000131385
-4.96543e-05
0.000158352
-0.000116135
0.000147623
-0.000182701
0.000113653
-0.000242029
6.86209e-05
-0.000240803
4.13067e-05
-0.000197312
-0.00024596
0.000144655
1.95921e-05
0.000138685
1.08492e-05
0.0001131
-1.43962e-05
0.000103697
-3.72081e-05
9.7887e-05
-4.68097e-05
9.10481e-05
-4.92462e-05
8.77567e-05
-4.66011e-05
9.08224e-05
-4.38802e-05
0.000109759
-4.09312e-05
0.000127816
-3.87168e-05
0.000135746
-3.88457e-05
0.000156554
-4.52347e-05
0.000168214
-6.56284e-05
0.000169247
-0.00012821
0.000138412
-0.000184147
9.99381e-05
-0.000210518
5.22249e-05
-0.000173463
3.39152e-05
-0.000192281
-0.000234881
0.000107417
1.52715e-05
0.000108714
7.16976e-06
0.000108892
-1.30491e-05
0.000102468
-2.88112e-05
9.64588e-05
-3.94926e-05
9.19583e-05
-4.44493e-05
9.05057e-05
-4.50863e-05
9.30779e-05
-4.65073e-05
9.89486e-05
-4.70761e-05
0.000112314
-5.36685e-05
0.000129095
-5.92676e-05
0.000145025
-6.97152e-05
0.00015674
-9.09632e-05
0.00014714
-0.000128145
0.000112181
-0.000158556
6.28111e-05
-0.000174655
5.03972e-05
-0.000166235
2.64577e-05
-0.000167162
-0.000184596
9.05867e-05
9.6627e-06
9.80377e-05
-6.20036e-07
9.90653e-05
-1.34809e-05
9.59164e-05
-2.57141e-05
9.19611e-05
-3.55307e-05
8.94211e-05
-4.1867e-05
8.91963e-05
-4.48571e-05
9.19654e-05
-4.92908e-05
9.70241e-05
-5.23151e-05
0.00010374
-6.08877e-05
0.000114607
-7.0926e-05
0.000122496
-7.8766e-05
0.000126762
-9.59986e-05
0.000118818
-0.000120528
9.18417e-05
-0.000138454
5.4015e-05
-0.000145798
4.2644e-05
-0.000130474
2.1361e-05
-0.000143535
-0.000185877
8.338e-05
3.24341e-06
8.87185e-05
-5.39169e-06
9.0321e-05
-1.50013e-05
8.89409e-05
-2.42467e-05
8.65767e-05
-3.31317e-05
8.56859e-05
-4.09717e-05
8.55745e-05
-4.47409e-05
8.76303e-05
-5.13487e-05
9.26911e-05
-5.73816e-05
9.56408e-05
-6.38518e-05
0.000100583
-7.59196e-05
0.000106265
-8.45695e-05
0.00011246
-0.000102273
0.000111459
-0.000122137
9.48691e-05
-0.000125623
7.37449e-05
-0.000124749
4.1367e-05
-0.0001065
2.39475e-05
-0.000101234
-0.000164476
7.84247e-05
-1.13205e-06
8.1269e-05
-8.17971e-06
8.24021e-05
-1.61404e-05
8.2014e-05
-2.38466e-05
8.11668e-05
-3.22803e-05
8.06133e-05
-4.0417e-05
8.05549e-05
-4.46819e-05
8.14398e-05
-5.22321e-05
8.56226e-05
-6.15612e-05
8.86886e-05
-6.69238e-05
8.89704e-05
-7.62236e-05
9.20588e-05
-8.77329e-05
9.88389e-05
-0.00010936
9.08163e-05
-0.000119683
8.93034e-05
-0.000120963
7.46732e-05
-0.000109392
4.49113e-05
-7.72189e-05
1.93299e-05
-7.9494e-05
-0.000146282
7.34174e-05
-3.62041e-06
7.49119e-05
-9.66893e-06
7.57271e-05
-1.6955e-05
7.59559e-05
-2.40732e-05
7.55558e-05
-3.18794e-05
7.51518e-05
-4.00127e-05
7.51614e-05
-4.46915e-05
7.63591e-05
-5.34294e-05
7.71762e-05
-6.23799e-05
7.96491e-05
-6.93758e-05
7.97498e-05
-7.63987e-05
8.25378e-05
-9.06192e-05
8.53059e-05
-0.000115656
8.08722e-05
-0.000113673
7.7944e-05
-0.000112891
5.51121e-05
-8.77257e-05
2.6581e-05
-4.98133e-05
1.1035e-05
-6.4121e-05
-0.000136088
6.81074e-05
-5.03648e-06
6.91045e-05
-1.0664e-05
6.96915e-05
-1.75413e-05
7.01131e-05
-2.44939e-05
6.96899e-05
-3.14557e-05
6.93124e-05
-3.96351e-05
6.95048e-05
-4.48841e-05
6.93865e-05
-5.33115e-05
6.99299e-05
-6.29211e-05
6.97646e-05
-6.92274e-05
6.99484e-05
-7.6577e-05
7.35577e-05
-9.46474e-05
5.98334e-05
-0.000116127
6.72626e-05
-0.000110123
5.82057e-05
-8.98507e-05
3.10561e-05
-5.82823e-05
9.71826e-06
-2.96523e-05
5.65713e-06
-6.22138e-05
-0.000129737
6.28692e-05
-5.87474e-06
6.36942e-05
-1.14882e-05
6.4079e-05
-1.79254e-05
6.43055e-05
-2.47198e-05
6.41744e-05
-3.13242e-05
6.33988e-05
-3.88595e-05
6.36676e-05
-4.51531e-05
6.27179e-05
-5.23624e-05
6.17775e-05
-6.19797e-05
6.0918e-05
-6.83854e-05
6.11632e-05
-7.69085e-05
5.90418e-05
-9.3145e-05
3.47858e-05
-0.000109171
3.57932e-05
-0.000112573
3.08979e-05
-0.000106141
1.2081e-05
-6.43033e-05
3.14538e-06
-3.92245e-05
5.34041e-06
-6.87218e-05
-0.000123747
5.7913e-05
-6.4598e-06
5.85143e-05
-1.2089e-05
5.87871e-05
-1.81976e-05
5.87428e-05
-2.46751e-05
5.8624e-05
-3.12052e-05
5.76581e-05
-3.78937e-05
5.75377e-05
-4.50328e-05
5.64774e-05
-5.13028e-05
5.44298e-05
-5.99332e-05
5.3485e-05
-6.74445e-05
5.11306e-05
-7.48668e-05
4.28801e-05
-8.61439e-05
2.12043e-05
-9.92314e-05
1.89279e-05
-0.000102488
1.58245e-05
-0.000105777
8.83252e-06
-7.93715e-05
9.85286e-06
-7.04945e-05
9.38617e-06
-9.24851e-05
-0.000123247
5.31143e-05
-6.896e-06
5.34928e-05
-1.24671e-05
5.36415e-05
-1.83458e-05
5.34494e-05
-2.44826e-05
5.31259e-05
-3.08815e-05
5.23608e-05
-3.71287e-05
5.14244e-05
-4.40966e-05
5.04897e-05
-5.03685e-05
4.82172e-05
-5.7665e-05
4.56986e-05
-6.49373e-05
4.22933e-05
-7.17567e-05
3.46434e-05
-7.97383e-05
1.57648e-05
-8.82383e-05
1.1922e-05
-8.58941e-05
1.20636e-05
-7.05721e-05
1.46524e-05
-8.26357e-05
1.83057e-05
-8.68626e-05
1.33113e-05
-8.92259e-05
-0.000103163
4.84678e-05
-7.21616e-06
4.86678e-05
-1.26668e-05
4.86482e-05
-1.83258e-05
4.83972e-05
-2.42313e-05
4.78213e-05
-3.03055e-05
4.71397e-05
-3.64472e-05
4.58883e-05
-4.28456e-05
4.46829e-05
-4.91631e-05
4.28897e-05
-5.58792e-05
3.97303e-05
-6.18075e-05
3.67138e-05
-6.89335e-05
3.11963e-05
-7.51246e-05
1.65426e-05
-7.87813e-05
1.10011e-05
-7.7002e-05
8.4797e-06
-5.54902e-05
1.71343e-05
-5.36392e-05
1.99676e-05
-6.28527e-05
1.27172e-05
-6.47522e-05
-8.8959e-05
4.39543e-05
-7.4193e-06
4.40067e-05
-1.2719e-05
4.38646e-05
-1.81834e-05
4.3486e-05
-2.38524e-05
4.28532e-05
-2.96726e-05
4.1972e-05
-3.5566e-05
4.08487e-05
-4.17225e-05
3.9329e-05
-4.76441e-05
3.76859e-05
-5.42438e-05
3.54806e-05
-5.96343e-05
3.28751e-05
-6.65475e-05
2.94975e-05
-7.20167e-05
1.93362e-05
-7.32467e-05
1.69065e-05
-7.0177e-05
1.49781e-05
-5.21917e-05
1.60582e-05
-4.09917e-05
1.61257e-05
-4.54519e-05
1.1628e-05
-5.59419e-05
-7.93554e-05
3.95903e-05
-7.51459e-06
3.95241e-05
-1.26525e-05
3.9259e-05
-1.79181e-05
3.87835e-05
-2.33767e-05
3.80501e-05
-2.89391e-05
3.71121e-05
-3.4628e-05
3.58676e-05
-4.04783e-05
3.4462e-05
-4.62394e-05
3.28432e-05
-5.26402e-05
3.09411e-05
-5.77775e-05
2.92553e-05
-6.50565e-05
2.83821e-05
-7.13111e-05
2.33705e-05
-6.96524e-05
2.27656e-05
-6.67156e-05
1.96795e-05
-4.87675e-05
1.68816e-05
-3.8075e-05
1.39874e-05
-4.00756e-05
9.7639e-06
-5.2218e-05
-6.90743e-05
3.53691e-05
-7.51147e-06
3.51979e-05
-1.24812e-05
3.48461e-05
-1.7566e-05
3.42727e-05
-2.28031e-05
3.34683e-05
-2.81346e-05
3.24282e-05
-3.35879e-05
3.11114e-05
-3.91618e-05
2.96645e-05
-4.47945e-05
2.80047e-05
-5.10011e-05
2.63813e-05
-5.62274e-05
2.50207e-05
-6.3961e-05
2.47811e-05
-7.20313e-05
2.51691e-05
-7.12317e-05
2.37622e-05
-6.39665e-05
1.96889e-05
-4.45286e-05
1.45867e-05
-3.28223e-05
1.02827e-05
-3.32169e-05
8.15108e-06
-4.99999e-05
-5.87442e-05
3.13014e-05
-7.41986e-06
3.10412e-05
-1.22209e-05
3.05983e-05
-1.71229e-05
2.99522e-05
-2.21568e-05
2.90679e-05
-2.72502e-05
2.79356e-05
-3.24554e-05
2.65252e-05
-3.77518e-05
2.48523e-05
-4.31258e-05
2.28809e-05
-4.90564e-05
2.09009e-05
-5.43634e-05
1.89432e-05
-6.24997e-05
1.74765e-05
-7.1543e-05
1.90421e-05
-7.3137e-05
1.667e-05
-6.15121e-05
1.20347e-05
-4.02141e-05
7.66203e-06
-3.05091e-05
5.78898e-06
-3.08209e-05
6.31104e-06
-4.86581e-05
-5.15036e-05
2.73663e-05
-7.24418e-06
2.70364e-05
-1.18909e-05
2.65264e-05
-1.66126e-05
2.58099e-05
-2.14401e-05
2.4865e-05
-2.63051e-05
2.36432e-05
-3.12335e-05
2.21289e-05
-3.6238e-05
2.01634e-05
-4.1166e-05
1.77849e-05
-4.67192e-05
1.48724e-05
-5.15771e-05
9.79527e-06
-5.87061e-05
4.36444e-06
-6.67308e-05
-1.13516e-06
-6.85719e-05
-3.72648e-06
-5.86346e-05
-6.18112e-06
-4.10759e-05
-5.06165e-06
-3.37129e-05
1.52387e-06
-3.51867e-05
3.48679e-06
-5.06792e-05
-4.73715e-05
2.35687e-05
-6.99402e-06
2.31669e-05
-1.14889e-05
2.26089e-05
-1.60545e-05
2.18472e-05
-2.06782e-05
2.08689e-05
-2.53266e-05
1.95944e-05
-2.99589e-05
1.79958e-05
-3.464e-05
1.58515e-05
-3.90278e-05
1.29538e-05
-4.38783e-05
8.88767e-06
-4.7662e-05
1.87159e-06
-5.26074e-05
-6.02473e-06
-5.82257e-05
-1.26229e-05
-6.1355e-05
-1.4417e-05
-5.41723e-05
-1.4584e-05
-4.13168e-05
-8.76074e-06
-3.19027e-05
1.95077e-06
-4.24211e-05
1.85276e-06
-5.0579e-05
-4.5093e-05
1.98934e-05
-6.67546e-06
1.9442e-05
-1.10373e-05
1.88395e-05
-1.54518e-05
1.80678e-05
-1.99063e-05
1.70841e-05
-2.43427e-05
1.58503e-05
-2.8725e-05
1.42746e-05
-3.30648e-05
1.22579e-05
-3.70137e-05
9.40515e-06
-4.1054e-05
5.38438e-06
-4.37058e-05
-4.69809e-07
-4.69581e-05
-7.40265e-06
-5.02581e-05
-1.40623e-05
-5.25295e-05
-1.46566e-05
-5.02317e-05
-1.13388e-05
-3.82795e-05
-4.35219e-06
-3.96044e-05
2.58224e-06
-4.74462e-05
3.26415e-07
-5.00803e-05
-4.4663e-05
1.63238e-05
-6.29212e-06
1.58275e-05
-1.05408e-05
1.52075e-05
-1.48316e-05
1.44372e-05
-1.91359e-05
1.3494e-05
-2.33993e-05
1.23364e-05
-2.75672e-05
1.08879e-05
-3.16166e-05
9.01971e-06
-3.51462e-05
6.52814e-06
-3.8569e-05
3.87748e-06
-4.10299e-05
6.41155e-07
-4.38282e-05
-4.01606e-06
-4.6008e-05
-8.8799e-06
-4.53792e-05
-7.87462e-06
-4.75001e-05
-2.04143e-06
-4.21525e-05
2.66227e-06
-4.4438e-05
3.36965e-06
-4.76974e-05
9.69312e-07
-4.83733e-05
-4.3618e-05
1.28578e-05
-5.84744e-06
1.23242e-05
-1.00071e-05
1.16987e-05
-1.4206e-05
1.0958e-05
-1.8395e-05
1.00861e-05
-2.25274e-05
9.02505e-06
-2.65061e-05
7.66574e-06
-3.02576e-05
6.08234e-06
-3.35628e-05
4.56961e-06
-3.70572e-05
3.64448e-06
-4.00921e-05
2.15833e-06
-4.23625e-05
2.36796e-06
-4.60742e-05
1.83101e-06
-4.54642e-05
2.97246e-06
-5.05799e-05
6.17774e-06
-4.82566e-05
7.15553e-06
-4.69126e-05
5.39055e-06
-4.57935e-05
2.61189e-06
-4.58441e-05
-4.09785e-05
9.45709e-06
-5.33642e-06
8.88814e-06
-9.4381e-06
8.25407e-06
-1.35718e-05
7.53862e-06
-1.76795e-05
6.70176e-06
-2.16904e-05
5.7253e-06
-2.55297e-05
4.82375e-06
-2.93562e-05
4.39498e-06
-3.31336e-05
4.11945e-06
-3.67833e-05
4.39821e-06
-4.03641e-05
4.67524e-06
-4.26315e-05
7.11744e-06
-4.84401e-05
9.51797e-06
-4.89659e-05
9.48764e-06
-5.17062e-05
9.69162e-06
-4.96628e-05
9.75937e-06
-4.75517e-05
7.97256e-06
-4.40181e-05
4.72692e-06
-4.26048e-05
-3.62495e-05
6.1248e-06
-4.71773e-06
5.51072e-06
-8.82396e-06
4.85126e-06
-1.29123e-05
4.1638e-06
-1.69919e-05
3.63281e-06
-2.11594e-05
3.48775e-06
-2.53846e-05
3.72634e-06
-2.95948e-05
4.36258e-06
-3.37693e-05
5.06212e-06
-3.74819e-05
6.94364e-06
-4.22393e-05
9.03735e-06
-4.47192e-05
1.04822e-05
-4.98835e-05
1.15884e-05
-5.01504e-05
1.10237e-05
-5.12048e-05
1.0548e-05
-4.92298e-05
1.0115e-05
-4.71292e-05
7.93735e-06
-4.18288e-05
4.45222e-06
-3.91157e-05
-3.17924e-05
3.00181e-06
-3.96011e-06
2.29867e-06
-8.12078e-06
1.84611e-06
-1.24597e-05
1.79515e-06
-1.69409e-05
2.1222e-06
-2.14864e-05
2.81597e-06
-2.60783e-05
3.78229e-06
-3.05611e-05
5.37612e-06
-3.53628e-05
7.08109e-06
-3.91868e-05
9.19242e-06
-4.4352e-05
1.09996e-05
-4.65273e-05
1.14136e-05
-5.02967e-05
1.16999e-05
-5.04348e-05
1.10299e-05
-5.05246e-05
9.86236e-06
-4.80509e-05
8.2186e-06
-4.54736e-05
5.14224e-06
-3.87391e-05
2.28782e-06
-3.6245e-05
-2.94961e-05
1.92227e-08
2.48559e-07
6.47469e-07
1.23507e-06
2.0353e-06
3.122e-06
4.43885e-06
6.10173e-06
7.84261e-06
9.46598e-06
1.0985e-05
1.13833e-05
1.13892e-05
1.05727e-05
9.07515e-06
7.0994e-06
4.61851e-06
2.31245e-06
)
;

boundaryField
{
    leftWall
    {
        type            fixedValue;
        value           nonuniform 0();
    }
    rightWall
    {
        type            fixedValue;
        value           uniform 0;
    }
    lowerWall
    {
        type            fixedValue;
        value           nonuniform 0();
    }
    atmosphere
    {
        type            calculated;
        value           nonuniform List<scalar> 
23
(
1.51171e-06
8.75649e-07
2.08589e-07
-4.94167e-07
-4.0353e-06
-8.3501e-06
-1.28586e-05
-1.75285e-05
-2.22866e-05
-2.7165e-05
-3.18779e-05
-3.70256e-05
-4.09276e-05
-4.59753e-05
-4.80463e-05
-5.06949e-05
-5.04403e-05
-4.97068e-05
-4.65513e-05
-4.34939e-05
-3.62538e-05
-3.39327e-05
-2.7179e-05
)
;
    }
    defaultFaces
    {
        type            empty;
        value           nonuniform 0();
    }
    procBoundary3to1
    {
        type            processor;
        value           nonuniform List<scalar> 
23
(
-1.4312e-05
-1.29308e-05
-1.09997e-05
-7.03857e-06
-5.9652e-06
1.38163e-05
5.39008e-05
7.93525e-05
8.2525e-05
6.85439e-05
5.68877e-05
3.70078e-05
1.90213e-05
3.73733e-05
3.34009e-05
5.53735e-06
2.7096e-05
0.000117319
0.000220774
0.00027507
0.000275271
0.000247017
0.000270856
)
;
    }
    procBoundary3to2
    {
        type            processor;
        value           nonuniform List<scalar> 
25
(
-0.00018007
-0.000142072
-0.000104132
-8.47569e-05
-7.65188e-05
-7.20795e-05
-6.84363e-05
-6.45098e-05
-6.02724e-05
-5.58695e-05
-5.14573e-05
-4.71332e-05
-4.29497e-05
-3.8887e-05
-3.49534e-05
-3.11484e-05
-2.74667e-05
-2.39038e-05
-2.04531e-05
-1.70884e-05
-1.38393e-05
-1.07537e-05
-7.68887e-06
-4.74694e-06
-1.65531e-08
)
;
    }
}


// ************************************************************************* //
