/*--------------------------------*- C++ -*----------------------------------*\
| =========                 |                                                 |
| \\      /  F ield         | OpenFOAM: The Open Source CFD Toolbox           |
|  \\    /   O peration     | Version:  2.4.0                                 |
|   \\  /    A nd           | Web:      www.OpenFOAM.org                      |
|    \\/     M anipulation  |                                                 |
\*---------------------------------------------------------------------------*/
FoamFile
{
    version     2.0;
    format      ascii;
    class       surfaceScalarField;
    location    "0.9";
    object      phi.water;
}
// * * * * * * * * * * * * * * * * * * * * * * * * * * * * * * * * * * * * * //

dimensions      [0 3 -1 0 0 0 0];

internalField   nonuniform List<scalar> 
1102
(
0.000206075
6.57252e-07
0.000210972
1.19638e-06
0.000213325
2.94848e-06
5.31733e-06
0.000211218
0.000145299
-5.26062e-07
0.000146055
4.45791e-07
0.000146215
2.79758e-06
6.72832e-06
0.000144801
0.000103523
1.32699e-06
0.000101833
2.13516e-06
0.000101149
3.48765e-06
5.81279e-06
0.000102079
8.33456e-05
3.06734e-06
8.22698e-05
3.21894e-06
8.2387e-05
3.37431e-06
3.98802e-06
8.42067e-05
7.57847e-05
3.87459e-06
7.55477e-05
3.45884e-06
7.60631e-05
2.861e-06
2.37257e-06
7.7672e-05
7.2065e-05
3.91232e-06
7.23872e-05
3.13818e-06
7.31076e-05
2.14091e-06
1.1906e-06
7.4288e-05
6.88454e-05
3.50352e-06
6.94267e-05
2.5569e-06
7.01184e-05
1.44912e-06
3.39805e-07
7.09689e-05
6.50168e-05
2.99668e-06
6.55757e-05
1.99811e-06
6.61342e-05
8.90541e-07
-2.1848e-07
6.66926e-05
6.07272e-05
2.54207e-06
6.11907e-05
1.53459e-06
6.16231e-05
4.58191e-07
-6.25814e-07
6.20304e-05
5.62746e-05
2.13725e-06
5.66657e-05
1.14362e-06
5.70191e-05
1.04751e-07
-9.34317e-07
5.73276e-05
5.18091e-05
1.78568e-06
5.21334e-05
8.19264e-07
5.24271e-05
-1.88982e-07
-1.18509e-06
5.26779e-05
4.74357e-05
1.48344e-06
4.77102e-05
5.4481e-07
4.79457e-05
-4.24531e-07
-1.38692e-06
4.81475e-05
4.32005e-05
1.23278e-06
4.34208e-05
3.24376e-07
4.36021e-05
-6.05902e-07
-1.53586e-06
4.3751e-05
3.90871e-05
1.03285e-06
3.92586e-05
1.52895e-07
3.93939e-05
-7.41335e-07
-1.63691e-06
3.94949e-05
3.51035e-05
8.82846e-07
3.52256e-05
3.0756e-08
3.53135e-05
-8.29381e-07
-1.69558e-06
3.53721e-05
3.12517e-05
7.7964e-07
3.13299e-05
-4.75782e-08
3.13754e-05
-8.74914e-07
-1.71322e-06
3.13929e-05
2.75256e-05
7.20804e-07
2.75574e-05
-7.94223e-08
2.75635e-05
-8.81212e-07
-1.69165e-06
2.75419e-05
2.39196e-05
7.05093e-07
2.39108e-05
-7.07233e-08
2.38764e-05
-8.46984e-07
-1.63414e-06
2.38189e-05
2.04266e-05
7.31669e-07
2.03774e-05
-2.1598e-08
2.03057e-05
-7.75414e-07
-1.54054e-06
2.0212e-05
1.70271e-05
7.93032e-07
1.69405e-05
6.48607e-08
1.6835e-05
-6.69899e-07
-1.4128e-06
1.67071e-05
1.37293e-05
9.03118e-07
1.36033e-05
1.90841e-07
1.34611e-05
-5.27805e-07
-1.25429e-06
1.33025e-05
1.05621e-05
1.0947e-06
1.03655e-05
3.87318e-07
1.01712e-05
-3.33537e-07
-1.05129e-06
9.96812e-06
7.4945e-06
1.28914e-06
7.2702e-06
6.11637e-07
7.00481e-06
-6.82755e-08
-7.90069e-07
6.74355e-06
4.53733e-06
1.49868e-06
4.28983e-06
8.58992e-07
4.04113e-06
1.80359e-07
-5.08446e-07
3.75943e-06
3.32362e-09
-1.33689e-08
-4.16716e-08
-5.59671e-08
0.000196529
1.71662e-05
0.000173141
1.03579e-05
0.000145833
-2.57199e-05
0.000120786
-5.26108e-05
9.85894e-05
-5.91165e-05
8.70063e-05
-5.64334e-05
8.03899e-05
-4.99721e-05
8.33497e-05
-4.03405e-05
8.95216e-05
-2.27393e-05
7.85293e-05
-2.22114e-05
7.89025e-05
-3.36052e-05
0.000110763
-3.59128e-05
0.000147383
-6.33523e-05
0.000161241
-0.000138856
0.000144921
-0.000211953
0.000113347
-0.00024735
7.85897e-05
-0.000240842
4.39749e-05
-0.000221656
-0.000251775
0.000140042
2.19067e-05
0.000136702
1.37192e-05
0.000126044
-1.50231e-05
0.000111099
-3.76566e-05
9.84998e-05
-4.65325e-05
9.11829e-05
-4.91194e-05
8.77532e-05
-4.6537e-05
9.13356e-05
-4.39007e-05
0.000109796
-4.145e-05
0.000128114
-4.05882e-05
0.00013795
-4.23217e-05
0.000156577
-5.32965e-05
0.000172935
-7.84705e-05
0.00017189
-0.000137017
0.000145357
-0.000185251
0.000107996
-0.000210443
6.72171e-05
-0.000200222
2.87276e-05
-0.000183243
-0.000223111
0.000106952
1.70656e-05
0.000113456
7.25597e-06
0.0001121
-1.36363e-05
0.000103721
-2.92469e-05
9.66981e-05
-3.9509e-05
9.19614e-05
-4.43831e-05
9.04991e-05
-4.50742e-05
9.31273e-05
-4.65276e-05
9.89282e-05
-4.72691e-05
0.000112203
-5.41652e-05
0.000129025
-6.01112e-05
0.000145237
-7.07814e-05
0.000157033
-9.15642e-05
0.000147244
-0.0001281
0.000120998
-0.000158829
8.76054e-05
-0.000176531
5.19967e-05
-0.000164522
2.13258e-05
-0.000152547
-0.000201806
9.15936e-05
9.6545e-06
9.95612e-05
-7.30929e-07
9.95236e-05
-1.35792e-05
9.59569e-05
-2.56696e-05
9.19409e-05
-3.54889e-05
8.94176e-05
-4.18582e-05
8.91944e-05
-4.48511e-05
9.19585e-05
-4.92922e-05
9.7011e-05
-5.23228e-05
0.000103725
-6.08967e-05
0.000114555
-7.09826e-05
0.000122499
-7.87908e-05
0.000126789
-9.59237e-05
0.000119547
-0.000120815
0.000102069
-0.000141348
7.3206e-05
-0.000147628
4.2855e-05
-0.000134137
1.89291e-05
-0.000128577
-0.000182913
8.41777e-05
3.12789e-06
8.89281e-05
-5.48242e-06
9.03619e-05
-1.50108e-05
8.89327e-05
-2.42365e-05
8.65732e-05
-3.31275e-05
8.56854e-05
-4.097e-05
8.55741e-05
-4.47398e-05
8.7629e-05
-5.13476e-05
9.26874e-05
-5.73817e-05
9.56365e-05
-6.38466e-05
0.000100556
-7.59058e-05
0.000106294
-8.45332e-05
0.000112574
-0.000102203
0.000113762
-0.00012201
0.000102647
-0.000130241
7.97495e-05
-0.00012474
4.91342e-05
-0.00010352
2.32615e-05
-0.000102655
-0.000159677
7.85739e-05
-1.16424e-06
8.1274e-05
-8.18231e-06
8.24031e-05
-1.6139e-05
8.20134e-05
-2.38455e-05
8.11664e-05
-3.22798e-05
8.06132e-05
-4.04167e-05
8.05548e-05
-4.46816e-05
8.14386e-05
-5.22318e-05
8.56164e-05
-6.15598e-05
8.86876e-05
-6.69182e-05
8.89868e-05
-7.62054e-05
9.21352e-05
-8.76807e-05
9.9064e-05
-0.000109132
9.96702e-05
-0.000122623
9.18155e-05
-0.000122384
7.57084e-05
-0.000108634
4.71516e-05
-7.49442e-05
1.88904e-05
-7.4378e-05
-0.000140819
7.34245e-05
-3.62044e-06
7.49111e-05
-9.66823e-06
7.57275e-05
-1.69546e-05
7.59558e-05
-2.4073e-05
7.55557e-05
-3.18792e-05
7.51518e-05
-4.00126e-05
7.51613e-05
-4.46914e-05
7.63583e-05
-5.34291e-05
7.71769e-05
-6.23789e-05
7.963e-05
-6.93715e-05
7.98011e-05
-7.63775e-05
8.26704e-05
-9.05468e-05
8.89428e-05
-0.000115406
8.73636e-05
-0.00012105
7.89078e-05
-0.000113931
5.57602e-05
-8.54897e-05
2.69043e-05
-4.60738e-05
1.02654e-05
-5.77433e-05
-0.000130571
6.81082e-05
-5.03588e-06
6.91043e-05
-1.06637e-05
6.96916e-05
-1.75411e-05
7.01131e-05
-2.44938e-05
6.96898e-05
-3.14556e-05
6.93123e-05
-3.9635e-05
6.95048e-05
-4.4884e-05
6.93866e-05
-5.33112e-05
6.99277e-05
-6.29203e-05
6.97788e-05
-6.9223e-05
6.99525e-05
-7.65508e-05
7.39532e-05
-9.45473e-05
7.4572e-05
-0.000116029
7.05846e-05
-0.000117066
5.84039e-05
-0.000101729
3.09403e-05
-5.80061e-05
8.886e-06
-2.40236e-05
4.9767e-06
-5.38353e-05
-0.000125598
6.28693e-05
-5.87447e-06
6.36941e-05
-1.14881e-05
6.4079e-05
-1.79253e-05
6.43055e-05
-2.47198e-05
6.41743e-05
-3.13242e-05
6.33988e-05
-3.88595e-05
6.36676e-05
-4.5153e-05
6.27182e-05
-5.23622e-05
6.17767e-05
-6.1979e-05
6.09349e-05
-6.83814e-05
6.12601e-05
-7.68756e-05
5.97626e-05
-9.30541e-05
5.3212e-05
-0.000109489
4.53066e-05
-0.000109169
2.69068e-05
-8.34081e-05
7.27588e-06
-3.84755e-05
1.42206e-06
-1.82363e-05
4.63326e-06
-5.70578e-05
-0.000120962
5.7913e-05
-6.45971e-06
5.85143e-05
-1.2089e-05
5.87871e-05
-1.81976e-05
5.87428e-05
-2.46751e-05
5.8624e-05
-3.12052e-05
5.76582e-05
-3.78937e-05
5.75376e-05
-4.50327e-05
5.64777e-05
-5.13026e-05
5.4431e-05
-5.99325e-05
5.34897e-05
-6.74402e-05
5.14437e-05
-7.4831e-05
4.43741e-05
-8.59905e-05
3.37783e-05
-9.89146e-05
2.16846e-05
-9.70842e-05
6.24757e-06
-6.80203e-05
-1.10269e-06
-3.14154e-05
4.03803e-06
-2.36951e-05
7.35424e-06
-6.04814e-05
-0.000113616
5.31143e-05
-6.89598e-06
5.34928e-05
-1.24671e-05
5.36415e-05
-1.83458e-05
5.34494e-05
-2.44826e-05
5.31259e-05
-3.08815e-05
5.23608e-05
-3.71287e-05
5.14244e-05
-4.40966e-05
5.04899e-05
-5.03682e-05
4.82214e-05
-5.76643e-05
4.57148e-05
-6.49336e-05
4.26025e-05
-7.17198e-05
3.61871e-05
-7.95788e-05
2.48926e-05
-8.76428e-05
1.27332e-05
-8.49153e-05
2.64844e-06
-5.76781e-05
3.04563e-06
-3.18191e-05
1.15094e-05
-3.24018e-05
1.19472e-05
-6.0926e-05
-0.000101675
4.84678e-05
-7.21616e-06
4.86678e-05
-1.26668e-05
4.86482e-05
-1.83258e-05
4.83972e-05
-2.42313e-05
4.78213e-05
-3.03055e-05
4.71397e-05
-3.64471e-05
4.58885e-05
-4.28455e-05
4.46829e-05
-4.91627e-05
4.28962e-05
-5.58776e-05
3.97629e-05
-6.18005e-05
3.69413e-05
-6.88984e-05
3.23291e-05
-7.49686e-05
2.2901e-05
-7.82264e-05
1.26191e-05
-7.46211e-05
6.72935e-06
-5.17334e-05
1.0572e-05
-3.52673e-05
1.60187e-05
-3.74888e-05
1.21185e-05
-5.69467e-05
-8.95696e-05
4.39543e-05
-7.4193e-06
4.40067e-05
-1.2719e-05
4.38646e-05
-1.81834e-05
4.3486e-05
-2.38524e-05
4.28532e-05
-2.96726e-05
4.1972e-05
-3.5566e-05
4.08489e-05
-4.17224e-05
3.93297e-05
-4.76436e-05
3.76933e-05
-5.42412e-05
3.55152e-05
-5.96224e-05
3.31163e-05
-6.64994e-05
3.00063e-05
-7.18584e-05
2.45694e-05
-7.27945e-05
1.79692e-05
-6.80125e-05
1.52339e-05
-4.89897e-05
1.63527e-05
-3.63213e-05
1.61756e-05
-3.71863e-05
1.20661e-05
-5.28284e-05
-7.75072e-05
3.95903e-05
-7.51459e-06
3.95241e-05
-1.26525e-05
3.9259e-05
-1.79181e-05
3.87835e-05
-2.33767e-05
3.80501e-05
-2.89391e-05
3.71121e-05
-3.4628e-05
3.58679e-05
-4.04782e-05
3.44629e-05
-4.62386e-05
3.28574e-05
-5.26357e-05
3.09918e-05
-5.77568e-05
2.94858e-05
-6.49934e-05
2.87496e-05
-7.11221e-05
2.69377e-05
-7.09836e-05
2.34471e-05
-6.45179e-05
1.99872e-05
-4.55281e-05
1.75224e-05
-3.38524e-05
1.39877e-05
-3.36422e-05
1.00714e-05
-4.89146e-05
-6.74361e-05
3.53691e-05
-7.51147e-06
3.51979e-05
-1.24812e-05
3.48461e-05
-1.7566e-05
3.42727e-05
-2.28031e-05
3.34683e-05
-2.81346e-05
3.24282e-05
-3.35878e-05
3.11117e-05
-3.91616e-05
2.96665e-05
-4.47934e-05
2.80252e-05
-5.09944e-05
2.64632e-05
-5.61948e-05
2.53176e-05
-6.38478e-05
2.61473e-05
-7.19518e-05
2.65302e-05
-7.13665e-05
2.39612e-05
-6.19475e-05
1.99107e-05
-4.14736e-05
1.51031e-05
-2.90379e-05
1.02107e-05
-2.87433e-05
8.66001e-06
-4.73635e-05
-5.87757e-05
3.13014e-05
-7.41986e-06
3.10412e-05
-1.22209e-05
3.05983e-05
-1.71229e-05
2.99522e-05
-2.21568e-05
2.90679e-05
-2.72502e-05
2.79356e-05
-3.24554e-05
2.65257e-05
-3.77515e-05
2.48567e-05
-4.31243e-05
2.29093e-05
-4.90469e-05
2.10295e-05
-5.4315e-05
1.95302e-05
-6.23485e-05
1.93281e-05
-7.17497e-05
1.98037e-05
-7.18422e-05
1.66866e-05
-5.88301e-05
1.25731e-05
-3.73582e-05
7.30672e-06
-2.37677e-05
5.79063e-06
-2.7225e-05
7.4277e-06
-4.90003e-05
-5.13478e-05
2.73663e-05
-7.24418e-06
2.70364e-05
-1.18909e-05
2.65264e-05
-1.66126e-05
2.58099e-05
-2.14401e-05
2.48651e-05
-2.63051e-05
2.36432e-05
-3.12334e-05
2.21295e-05
-3.62377e-05
2.01695e-05
-4.11643e-05
1.78297e-05
-4.67071e-05
1.50301e-05
-5.15155e-05
1.11845e-05
-5.8503e-05
5.28788e-06
-6.58531e-05
-6.79607e-07
-6.58749e-05
-4.10882e-06
-5.54009e-05
-6.35539e-06
-3.51125e-05
-5.01992e-06
-2.51039e-05
1.85608e-06
-3.41006e-05
4.05968e-06
-5.12039e-05
-4.72882e-05
2.35687e-05
-6.99402e-06
2.31669e-05
-1.14889e-05
2.26089e-05
-1.60545e-05
2.18472e-05
-2.06782e-05
2.08689e-05
-2.53266e-05
1.95945e-05
-2.99588e-05
1.79966e-05
-3.46397e-05
1.58583e-05
-3.9026e-05
1.30157e-05
-4.38644e-05
9.08701e-06
-4.75869e-05
2.92707e-06
-5.23431e-05
-5.42373e-06
-5.75024e-05
-1.24394e-05
-5.88592e-05
-1.58514e-05
-5.19885e-05
-1.48778e-05
-3.6086e-05
-7.38872e-06
-3.25906e-05
1.86797e-06
-4.3357e-05
2.16309e-06
-5.1499e-05
-4.51249e-05
1.98934e-05
-6.67546e-06
1.9442e-05
-1.10373e-05
1.88395e-05
-1.54518e-05
1.80678e-05
-1.99063e-05
1.70841e-05
-2.43427e-05
1.58503e-05
-2.87249e-05
1.42753e-05
-3.30647e-05
1.22616e-05
-3.70122e-05
9.44113e-06
-4.10441e-05
5.51267e-06
-4.36585e-05
1.80185e-08
-4.68486e-05
-6.98308e-06
-5.05014e-05
-1.38909e-05
-5.19513e-05
-1.58978e-05
-4.99813e-05
-1.19326e-05
-4.00499e-05
-3.08868e-06
-4.14347e-05
1.87174e-06
-4.83174e-05
4.9011e-07
-5.01172e-05
-4.46349e-05
1.63238e-05
-6.29212e-06
1.58275e-05
-1.05408e-05
1.52075e-05
-1.48316e-05
1.44372e-05
-1.91359e-05
1.3494e-05
-2.33993e-05
1.23364e-05
-2.75672e-05
1.08883e-05
-3.16165e-05
9.02126e-06
-3.51453e-05
6.54096e-06
-3.85639e-05
3.89577e-06
-4.10134e-05
8.30759e-07
-4.37837e-05
-3.58241e-06
-4.60883e-05
-8.69812e-06
-4.68356e-05
-7.95862e-06
-5.07208e-05
-1.73759e-06
-4.62711e-05
3.19763e-06
-4.63699e-05
2.83729e-06
-4.79569e-05
1.03236e-06
-4.83123e-05
-4.36024e-05
1.28578e-05
-5.84744e-06
1.23242e-05
-1.00071e-05
1.16987e-05
-1.4206e-05
1.0958e-05
-1.8395e-05
1.00861e-05
-2.25274e-05
9.02506e-06
-2.65061e-05
7.666e-06
-3.02575e-05
6.0829e-06
-3.35623e-05
4.57347e-06
-3.70546e-05
3.64338e-06
-4.00835e-05
2.20569e-06
-4.23461e-05
2.20642e-06
-4.60891e-05
1.90171e-06
-4.6531e-05
2.98769e-06
-5.18068e-05
6.22004e-06
-4.95034e-05
7.29109e-06
-4.74409e-05
5.15511e-06
-4.5821e-05
2.63841e-06
-4.57954e-05
-4.09638e-05
9.45709e-06
-5.33642e-06
8.88814e-06
-9.4381e-06
8.25407e-06
-1.35718e-05
7.53862e-06
-1.76795e-05
6.70176e-06
-2.16904e-05
5.72531e-06
-2.55297e-05
4.82387e-06
-2.93561e-05
4.39471e-06
-3.31332e-05
4.12127e-06
-3.67813e-05
4.39677e-06
-4.03591e-05
4.67723e-06
-4.26266e-05
7.03134e-06
-4.84433e-05
9.53177e-06
-4.90315e-05
9.48897e-06
-5.1764e-05
9.67854e-06
-4.9693e-05
9.78196e-06
-4.75443e-05
7.94839e-06
-4.39873e-05
4.73084e-06
-4.25777e-05
-3.62329e-05
6.1248e-06
-4.71773e-06
5.51072e-06
-8.82396e-06
4.85126e-06
-1.29123e-05
4.1638e-06
-1.69919e-05
3.63281e-06
-2.11594e-05
3.48775e-06
-2.53846e-05
3.72634e-06
-2.95947e-05
4.3621e-06
-3.3769e-05
5.06237e-06
-3.74816e-05
6.94369e-06
-4.22405e-05
9.03725e-06
-4.47202e-05
1.04767e-05
-4.98828e-05
1.15927e-05
-5.01474e-05
1.10228e-05
-5.11941e-05
1.05449e-05
-4.92151e-05
1.01152e-05
-4.71147e-05
7.93598e-06
-4.1808e-05
4.45282e-06
-3.90945e-05
-3.17801e-05
3.00181e-06
-3.96011e-06
2.29867e-06
-8.12078e-06
1.84611e-06
-1.24597e-05
1.79515e-06
-1.69409e-05
2.1222e-06
-2.14864e-05
2.81596e-06
-2.60783e-05
3.78227e-06
-3.0561e-05
5.37595e-06
-3.53627e-05
7.08109e-06
-3.91868e-05
9.19254e-06
-4.43519e-05
1.09996e-05
-4.65273e-05
1.14134e-05
-5.02966e-05
1.17003e-05
-5.04344e-05
1.10296e-05
-5.05234e-05
9.86305e-06
-4.80486e-05
8.21831e-06
-4.547e-05
5.14415e-06
-3.8734e-05
2.28865e-06
-3.62391e-05
-2.94915e-05
1.92227e-08
2.48559e-07
6.47469e-07
1.23507e-06
2.0353e-06
3.122e-06
4.43885e-06
6.10173e-06
7.84261e-06
9.46598e-06
1.0985e-05
1.13833e-05
1.13892e-05
1.05726e-05
9.07537e-06
7.09924e-06
4.619e-06
2.31254e-06
)
;

boundaryField
{
    leftWall
    {
        type            fixedValue;
        value           nonuniform 0();
    }
    rightWall
    {
        type            fixedValue;
        value           uniform 0;
    }
    lowerWall
    {
        type            fixedValue;
        value           nonuniform 0();
    }
    atmosphere
    {
        type            calculated;
        value           nonuniform List<scalar> 
23
(
1.51171e-06
8.75649e-07
2.08589e-07
-4.94167e-07
-4.0353e-06
-8.3501e-06
-1.28586e-05
-1.75285e-05
-2.22866e-05
-2.7165e-05
-3.18779e-05
-3.70256e-05
-4.09276e-05
-4.59753e-05
-4.80463e-05
-5.06949e-05
-5.04403e-05
-4.97068e-05
-4.65513e-05
-4.34939e-05
-3.62538e-05
-3.39326e-05
-2.7179e-05
)
;
    }
    defaultFaces
    {
        type            empty;
        value           nonuniform 0();
    }
    procBoundary3to1
    {
        type            processor;
        value           nonuniform List<scalar> 
23
(
-8.25512e-06
-6.2469e-06
-5.3796e-06
-3.20211e-06
-2.32892e-06
1.3577e-05
5.32431e-05
7.76628e-05
8.12469e-05
6.79791e-05
5.66005e-05
3.73003e-05
1.77741e-05
3.36776e-05
3.29859e-05
4.6162e-06
2.7894e-05
0.000124834
0.000228241
0.000279211
0.00027592
0.000255565
0.000295663
)
;
    }
    procBoundary3to2
    {
        type            processor;
        value           nonuniform List<scalar> 
25
(
-0.000198659
-0.000144117
-0.00010538
-8.5079e-05
-7.65882e-05
-7.21007e-05
-6.84361e-05
-6.45096e-05
-6.02724e-05
-5.58695e-05
-5.14573e-05
-4.71332e-05
-4.29497e-05
-3.8887e-05
-3.49534e-05
-3.11484e-05
-2.74667e-05
-2.39038e-05
-2.04531e-05
-1.70884e-05
-1.38393e-05
-1.07537e-05
-7.68887e-06
-4.74694e-06
-1.65531e-08
)
;
    }
}


// ************************************************************************* //
