/*--------------------------------*- C++ -*----------------------------------*\
| =========                 |                                                 |
| \\      /  F ield         | OpenFOAM: The Open Source CFD Toolbox           |
|  \\    /   O peration     | Version:  2.4.0                                 |
|   \\  /    A nd           | Web:      www.OpenFOAM.org                      |
|    \\/     M anipulation  |                                                 |
\*---------------------------------------------------------------------------*/
FoamFile
{
    version     2.0;
    format      ascii;
    class       surfaceScalarField;
    location    "0.9";
    object      phi.air;
}
// * * * * * * * * * * * * * * * * * * * * * * * * * * * * * * * * * * * * * //

dimensions      [0 3 -1 0 0 0 0];

internalField   nonuniform List<scalar> 
1102
(
0.000206081
6.56049e-07
0.000210972
1.19785e-06
0.000213314
2.95125e-06
5.30722e-06
0.000211207
0.000145305
-5.24274e-07
0.000146057
4.46203e-07
0.00014621
2.79833e-06
6.72921e-06
0.000144787
0.000103532
1.33646e-06
0.000101835
2.14289e-06
0.000101144
3.48955e-06
5.8073e-06
0.000102066
8.33507e-05
3.07162e-06
8.22713e-05
3.2223e-06
8.23851e-05
3.37577e-06
3.98314e-06
8.42093e-05
7.57877e-05
3.87628e-06
7.55498e-05
3.46022e-06
7.60643e-05
2.86119e-06
2.3712e-06
7.76763e-05
7.20674e-05
3.91254e-06
7.23894e-05
3.13821e-06
7.31098e-05
2.14076e-06
1.19015e-06
7.42909e-05
6.88477e-05
3.50352e-06
6.9429e-05
2.55686e-06
7.01208e-05
1.449e-06
3.39636e-07
7.09713e-05
6.50189e-05
2.99662e-06
6.55778e-05
1.99799e-06
6.61364e-05
8.90395e-07
-2.18676e-07
6.66947e-05
6.07291e-05
2.542e-06
6.11926e-05
1.53448e-06
6.1625e-05
4.58024e-07
-6.26023e-07
6.20323e-05
5.62763e-05
2.13713e-06
5.66673e-05
1.14345e-06
5.70208e-05
1.04563e-07
-9.34545e-07
5.73293e-05
5.18106e-05
1.78557e-06
5.21349e-05
8.19117e-07
5.24286e-05
-1.89181e-07
-1.18532e-06
5.26794e-05
4.7437e-05
1.48329e-06
4.77115e-05
5.44626e-07
4.79471e-05
-4.24735e-07
-1.38715e-06
4.81489e-05
4.32016e-05
1.23266e-06
4.3422e-05
3.2422e-07
4.36034e-05
-6.06098e-07
-1.53608e-06
4.37523e-05
3.90881e-05
1.03271e-06
3.92596e-05
1.52725e-07
3.93951e-05
-7.41525e-07
-1.63713e-06
3.94961e-05
3.51044e-05
8.82724e-07
3.52265e-05
3.06059e-08
3.53145e-05
-8.29558e-07
-1.69578e-06
3.53732e-05
3.12524e-05
7.79516e-07
3.13308e-05
-4.77216e-08
3.13763e-05
-8.75081e-07
-1.71341e-06
3.13939e-05
2.75263e-05
7.20694e-07
2.75581e-05
-7.95554e-08
2.75644e-05
-8.81364e-07
-1.69183e-06
2.75428e-05
2.39201e-05
7.0499e-07
2.39114e-05
-7.08447e-08
2.38772e-05
-8.47131e-07
-1.63431e-06
2.38196e-05
2.0427e-05
7.31565e-07
2.03779e-05
-2.17235e-08
2.03063e-05
-7.75551e-07
-1.5407e-06
2.02127e-05
1.70275e-05
7.92941e-07
1.6941e-05
6.47507e-08
1.68355e-05
-6.70039e-07
-1.41296e-06
1.67077e-05
1.37296e-05
9.03015e-07
1.36036e-05
1.90718e-07
1.34615e-05
-5.27936e-07
-1.25445e-06
1.3303e-05
1.05623e-05
1.09461e-06
1.03658e-05
3.87216e-07
1.01716e-05
-3.33665e-07
-1.05143e-06
9.96853e-06
7.49466e-06
1.28903e-06
7.27036e-06
6.11516e-07
7.00509e-06
-6.83927e-08
-7.90204e-07
6.74386e-06
4.53744e-06
1.49864e-06
4.29001e-06
8.58945e-07
4.04133e-06
1.80288e-07
-5.0854e-07
3.75966e-06
3.41282e-09
-1.3297e-08
-4.15724e-08
-5.58737e-08
0.000196565
1.71384e-05
0.000173077
1.03732e-05
0.000145709
-2.56798e-05
0.000120676
-5.25455e-05
9.85462e-05
-5.90796e-05
8.70022e-05
-5.64204e-05
8.04063e-05
-4.99631e-05
8.33475e-05
-4.0348e-05
8.98601e-05
-2.32053e-05
7.84177e-05
-2.26051e-05
7.95774e-05
-3.33253e-05
0.000110792
-3.5995e-05
0.000146853
-6.34216e-05
0.000161148
-0.000139042
0.000144653
-0.000211932
0.000112794
-0.000247288
7.7659e-05
-0.000240562
4.38768e-05
-0.000221569
-0.000251774
0.000140011
2.19145e-05
0.000136658
1.37269e-05
0.000125978
-1.50003e-05
0.000111047
-3.76138e-05
9.84841e-05
-4.65169e-05
9.11785e-05
-4.91149e-05
8.7752e-05
-4.65366e-05
9.13067e-05
-4.39027e-05
0.00010959
-4.14888e-05
0.000127939
-4.09545e-05
0.000137926
-4.33123e-05
0.000156578
-5.46468e-05
0.000172921
-7.97646e-05
0.000171812
-0.000137933
0.000144832
-0.000184952
0.000107504
-0.000209959
6.70296e-05
-0.000200088
2.86789e-05
-0.000183219
-0.000223095
0.000106948
1.70322e-05
0.000113459
7.21564e-06
0.000112084
-1.36251e-05
0.000103705
-2.92348e-05
9.66921e-05
-3.95037e-05
9.19594e-05
-4.43821e-05
9.04983e-05
-4.50755e-05
9.31247e-05
-4.65291e-05
9.89078e-05
-4.72718e-05
0.000112138
-5.41843e-05
0.000128983
-6.01581e-05
0.000145185
-7.08487e-05
0.000157055
-9.16342e-05
0.000147176
-0.000128055
0.000121046
-0.000158822
8.75775e-05
-0.000176491
5.19816e-05
-0.000164492
2.1288e-05
-0.000152525
-0.000201807
9.16093e-05
9.63218e-06
9.95673e-05
-7.42298e-07
9.95214e-05
-1.35791e-05
9.59543e-05
-2.56677e-05
9.19394e-05
-3.54887e-05
8.94166e-05
-4.18593e-05
8.91935e-05
-4.48523e-05
9.19579e-05
-4.92935e-05
9.701e-05
-5.23239e-05
0.000103724
-6.0898e-05
0.000114553
-7.09871e-05
0.000122499
-7.8795e-05
0.00012679
-9.5925e-05
0.000119549
-0.000120814
0.000102079
-0.000141352
7.3224e-05
-0.000147636
4.28691e-05
-0.000134137
1.88996e-05
-0.000128556
-0.000182908
8.41873e-05
3.12119e-06
8.89303e-05
-5.48529e-06
9.03629e-05
-1.50117e-05
8.89325e-05
-2.42373e-05
8.65726e-05
-3.31286e-05
8.56846e-05
-4.09713e-05
8.55733e-05
-4.4741e-05
8.76285e-05
-5.13487e-05
9.26872e-05
-5.73826e-05
9.56366e-05
-6.38474e-05
0.000100556
-7.59065e-05
0.000106294
-8.45336e-05
0.000112572
-0.000102202
0.000113764
-0.000122007
0.000102653
-0.00013024
7.97571e-05
-0.000124741
4.91438e-05
-0.000103524
2.32365e-05
-0.000102648
-0.000159671
7.85777e-05
-1.16567e-06
8.12756e-05
-8.18316e-06
8.2404e-05
-1.614e-05
8.20134e-05
-2.38466e-05
8.11659e-05
-3.2281e-05
8.06124e-05
-4.04179e-05
8.05541e-05
-4.46827e-05
8.14382e-05
-5.22328e-05
8.56162e-05
-6.15606e-05
8.86878e-05
-6.6919e-05
8.89872e-05
-7.6206e-05
9.21342e-05
-8.76806e-05
9.90613e-05
-0.000109129
9.96751e-05
-0.000122621
9.18175e-05
-0.000122383
7.57138e-05
-0.000108637
4.71376e-05
-7.49479e-05
1.88573e-05
-7.4368e-05
-0.000140814
7.34267e-05
-3.62107e-06
7.49126e-05
-9.66907e-06
7.57283e-05
-1.69556e-05
7.59558e-05
-2.40741e-05
7.55553e-05
-3.18805e-05
7.51511e-05
-4.00137e-05
7.51608e-05
-4.46924e-05
7.6358e-05
-5.343e-05
7.71769e-05
-6.23796e-05
7.963e-05
-6.93721e-05
7.9802e-05
-7.6378e-05
8.26677e-05
-9.05464e-05
8.8942e-05
-0.000115403
8.73675e-05
-0.000121046
7.89109e-05
-0.000113926
5.5765e-05
-8.54912e-05
2.68842e-05
-4.6067e-05
1.02465e-05
-5.77303e-05
-0.000130567
6.81101e-05
-5.03653e-06
6.91057e-05
-1.06646e-05
6.96922e-05
-1.75422e-05
7.01131e-05
-2.44949e-05
6.96894e-05
-3.14568e-05
6.93118e-05
-3.96361e-05
6.95043e-05
-4.4885e-05
6.93864e-05
-5.3312e-05
6.99277e-05
-6.2921e-05
6.97791e-05
-6.92235e-05
6.99522e-05
-7.65511e-05
7.39526e-05
-9.45467e-05
7.45761e-05
-0.000116027
7.05922e-05
-0.000117062
5.84092e-05
-0.000101743
3.09335e-05
-5.80155e-05
8.87582e-06
-2.40093e-05
4.97111e-06
-5.38256e-05
-0.000125596
6.28709e-05
-5.87514e-06
6.36954e-05
-1.1489e-05
6.40796e-05
-1.79264e-05
6.43055e-05
-2.47209e-05
6.4174e-05
-3.13252e-05
6.33984e-05
-3.88605e-05
6.36672e-05
-4.51538e-05
6.27181e-05
-5.23629e-05
6.17768e-05
-6.19796e-05
6.09352e-05
-6.8382e-05
6.126e-05
-7.6876e-05
5.97669e-05
-9.30536e-05
5.32272e-05
-0.000109487
4.53287e-05
-0.000109164
2.69047e-05
-8.33188e-05
7.25825e-06
-3.83687e-05
1.42628e-06
-1.81771e-05
4.63544e-06
-5.70347e-05
-0.000120961
5.79146e-05
-6.46039e-06
5.85154e-05
-1.20898e-05
5.87876e-05
-1.81986e-05
5.87428e-05
-2.46761e-05
5.86237e-05
-3.12062e-05
5.76578e-05
-3.78946e-05
5.75374e-05
-4.50334e-05
5.64777e-05
-5.13032e-05
5.44311e-05
-5.99331e-05
5.34899e-05
-6.74408e-05
5.14452e-05
-7.48313e-05
4.43813e-05
-8.59897e-05
3.3804e-05
-9.89101e-05
2.17111e-05
-9.70707e-05
6.18806e-06
-6.77955e-05
-1.1554e-06
-3.10241e-05
4.03064e-06
-2.33619e-05
7.34894e-06
-6.03524e-05
-0.000113612
5.31157e-05
-6.89666e-06
5.34938e-05
-1.24679e-05
5.3642e-05
-1.83467e-05
5.34495e-05
-2.44835e-05
5.31257e-05
-3.08824e-05
5.23606e-05
-3.71295e-05
5.14243e-05
-4.40972e-05
5.04899e-05
-5.03688e-05
4.82216e-05
-5.76648e-05
4.5715e-05
-6.49342e-05
4.26039e-05
-7.17202e-05
3.61922e-05
-7.95781e-05
2.49205e-05
-8.76383e-05
1.27495e-05
-8.48997e-05
2.57572e-06
-5.76229e-05
2.94491e-06
-3.13933e-05
1.14654e-05
-3.18815e-05
1.19382e-05
-6.08252e-05
-0.000101674
4.84691e-05
-7.21681e-06
4.86687e-05
-1.26676e-05
4.86486e-05
-1.83266e-05
4.83973e-05
-2.42322e-05
4.78212e-05
-3.03063e-05
4.71395e-05
-3.64478e-05
4.58884e-05
-4.28461e-05
4.46829e-05
-4.91633e-05
4.28963e-05
-5.58782e-05
3.97632e-05
-6.18011e-05
3.69419e-05
-6.88989e-05
3.23324e-05
-7.49686e-05
2.29168e-05
-7.82228e-05
1.26289e-05
-7.46118e-05
6.72587e-06
-5.172e-05
1.05244e-05
-3.51934e-05
1.59985e-05
-3.73569e-05
1.21045e-05
-5.69316e-05
-8.95691e-05
4.39554e-05
-7.41992e-06
4.40075e-05
-1.27197e-05
4.38651e-05
-1.81842e-05
4.34861e-05
-2.38532e-05
4.28532e-05
-2.96733e-05
4.1972e-05
-3.55667e-05
4.08489e-05
-4.1723e-05
3.93297e-05
-4.76442e-05
3.76934e-05
-5.42418e-05
3.55154e-05
-5.96231e-05
3.31166e-05
-6.65001e-05
3.0007e-05
-7.18591e-05
2.45785e-05
-7.27943e-05
1.79738e-05
-6.80072e-05
1.52349e-05
-4.89812e-05
1.63523e-05
-3.63111e-05
1.61689e-05
-3.71739e-05
1.20618e-05
-5.28245e-05
-7.75073e-05
3.95914e-05
-7.51518e-06
3.95249e-05
-1.26532e-05
3.92595e-05
-1.79188e-05
3.87837e-05
-2.33775e-05
3.80501e-05
-2.89397e-05
3.71121e-05
-3.46287e-05
3.58679e-05
-4.04788e-05
3.4463e-05
-4.62392e-05
3.28575e-05
-5.26364e-05
3.09919e-05
-5.77575e-05
2.9486e-05
-6.49942e-05
2.87498e-05
-7.11229e-05
2.69398e-05
-7.09843e-05
2.34491e-05
-6.45165e-05
1.99897e-05
-4.55218e-05
1.75221e-05
-3.38435e-05
1.39818e-05
-3.36336e-05
1.00708e-05
-4.89136e-05
-6.74365e-05
3.53701e-05
-7.51201e-06
3.51987e-05
-1.24818e-05
3.48466e-05
-1.75666e-05
3.42729e-05
-2.28038e-05
3.34684e-05
-2.81352e-05
3.24282e-05
-3.35885e-05
3.11117e-05
-3.91623e-05
2.96665e-05
-4.47941e-05
2.80252e-05
-5.09951e-05
2.64633e-05
-5.61955e-05
2.53177e-05
-6.38486e-05
2.61474e-05
-7.19527e-05
2.65306e-05
-7.13674e-05
2.39618e-05
-6.19478e-05
1.99118e-05
-4.14718e-05
1.51017e-05
-2.90334e-05
1.02096e-05
-2.87415e-05
8.66007e-06
-4.73641e-05
-5.87764e-05
3.13023e-05
-7.42038e-06
3.10419e-05
-1.22215e-05
3.05988e-05
-1.71235e-05
2.99524e-05
-2.21575e-05
2.9068e-05
-2.72508e-05
2.79356e-05
-3.24561e-05
2.65256e-05
-3.77522e-05
2.48567e-05
-4.31251e-05
2.29092e-05
-4.90477e-05
2.10295e-05
-5.43159e-05
1.95303e-05
-6.23494e-05
1.93282e-05
-7.17505e-05
1.98039e-05
-7.1843e-05
1.66867e-05
-5.88307e-05
1.25734e-05
-3.73585e-05
7.30669e-06
-2.37666e-05
5.79074e-06
-2.72255e-05
7.4278e-06
-4.90012e-05
-5.13486e-05
2.73671e-05
-7.24467e-06
2.70371e-05
-1.18914e-05
2.65268e-05
-1.66133e-05
2.58102e-05
-2.14408e-05
2.48652e-05
-2.63058e-05
2.36432e-05
-3.12342e-05
2.21295e-05
-3.62385e-05
2.01695e-05
-4.11651e-05
1.78297e-05
-4.67079e-05
1.50301e-05
-5.15163e-05
1.11846e-05
-5.85038e-05
5.28803e-06
-6.5854e-05
-6.79437e-07
-6.58756e-05
-4.10874e-06
-5.54014e-05
-6.35527e-06
-3.51119e-05
-5.01971e-06
-2.51022e-05
1.85621e-06
-3.41015e-05
4.05971e-06
-5.12047e-05
-4.72889e-05
2.35695e-05
-6.9945e-06
2.31675e-05
-1.14895e-05
2.26093e-05
-1.60551e-05
2.18474e-05
-2.06789e-05
2.0869e-05
-2.53274e-05
1.95944e-05
-2.99596e-05
1.79965e-05
-3.46406e-05
1.58582e-05
-3.90268e-05
1.30156e-05
-4.38653e-05
9.08704e-06
-4.75877e-05
2.92717e-06
-5.2344e-05
-5.42356e-06
-5.75032e-05
-1.24392e-05
-5.88599e-05
-1.58515e-05
-5.19892e-05
-1.48777e-05
-3.60857e-05
-7.38834e-06
-3.25916e-05
1.86807e-06
-4.33579e-05
2.16315e-06
-5.14998e-05
-4.51258e-05
1.98941e-05
-6.67592e-06
1.94425e-05
-1.10378e-05
1.88398e-05
-1.54524e-05
1.8068e-05
-1.99071e-05
1.70841e-05
-2.43434e-05
1.58502e-05
-2.87257e-05
1.42752e-05
-3.30655e-05
1.22615e-05
-3.70131e-05
9.44109e-06
-4.10449e-05
5.51272e-06
-4.36594e-05
1.81387e-08
-4.68494e-05
-6.98291e-06
-5.05022e-05
-1.38907e-05
-5.19521e-05
-1.58977e-05
-4.99822e-05
-1.19325e-05
-4.0051e-05
-3.08847e-06
-4.14356e-05
1.87185e-06
-4.83182e-05
4.90123e-07
-5.01181e-05
-4.46357e-05
1.63244e-05
-6.29259e-06
1.5828e-05
-1.05414e-05
1.52078e-05
-1.48323e-05
1.44374e-05
-1.91366e-05
1.3494e-05
-2.34001e-05
1.23363e-05
-2.7568e-05
1.08882e-05
-3.16174e-05
9.02117e-06
-3.51461e-05
6.54094e-06
-3.85647e-05
3.89583e-06
-4.10143e-05
8.30887e-07
-4.37844e-05
-3.58223e-06
-4.60891e-05
-8.69791e-06
-4.68365e-05
-7.95842e-06
-5.07217e-05
-1.73738e-06
-4.6272e-05
3.1978e-06
-4.63708e-05
2.83737e-06
-4.79578e-05
1.03244e-06
-4.83131e-05
-4.36032e-05
1.28583e-05
-5.84788e-06
1.23246e-05
-1.00077e-05
1.1699e-05
-1.42067e-05
1.09581e-05
-1.83957e-05
1.00861e-05
-2.25281e-05
9.02497e-06
-2.65069e-05
7.6659e-06
-3.02583e-05
6.08284e-06
-3.3563e-05
4.57347e-06
-3.70553e-05
3.64346e-06
-4.00842e-05
2.20582e-06
-4.23468e-05
2.20658e-06
-4.60899e-05
1.9019e-06
-4.65318e-05
2.98788e-06
-5.18077e-05
6.2202e-06
-4.95043e-05
7.29122e-06
-4.74418e-05
5.15527e-06
-4.58219e-05
2.63844e-06
-4.57963e-05
-4.09648e-05
9.4575e-06
-5.33685e-06
8.88846e-06
-9.43863e-06
8.25427e-06
-1.35725e-05
7.53869e-06
-1.76802e-05
6.70173e-06
-2.16912e-05
5.72523e-06
-2.55304e-05
4.82379e-06
-2.93568e-05
4.39468e-06
-3.31339e-05
4.12129e-06
-3.67819e-05
4.39684e-06
-4.03598e-05
4.67734e-06
-4.26273e-05
7.03148e-06
-4.8444e-05
9.53192e-06
-4.90322e-05
9.48911e-06
-5.17648e-05
9.67866e-06
-4.96939e-05
9.78209e-06
-4.75453e-05
7.94848e-06
-4.39883e-05
4.73085e-06
-4.25787e-05
-3.62339e-05
6.12511e-06
-4.71811e-06
5.51096e-06
-8.82447e-06
4.85141e-06
-1.29129e-05
4.16384e-06
-1.69926e-05
3.63279e-06
-2.11601e-05
3.48769e-06
-2.53853e-05
3.72629e-06
-2.95954e-05
4.36208e-06
-3.37697e-05
5.06239e-06
-3.74822e-05
6.94375e-06
-4.22411e-05
9.03733e-06
-4.47209e-05
1.04768e-05
-4.98835e-05
1.15928e-05
-5.01482e-05
1.10229e-05
-5.11949e-05
1.05449e-05
-4.9216e-05
1.01153e-05
-4.71156e-05
7.93601e-06
-4.1809e-05
4.45284e-06
-3.90955e-05
-3.17811e-05
3.00201e-06
-3.96046e-06
2.29883e-06
-8.12129e-06
1.8462e-06
-1.24603e-05
1.79518e-06
-1.69416e-05
2.12219e-06
-2.14871e-05
2.81593e-06
-2.6079e-05
3.78224e-06
-3.05617e-05
5.37594e-06
-3.53634e-05
7.08111e-06
-3.91874e-05
9.19258e-06
-4.43526e-05
1.09996e-05
-4.65279e-05
1.14134e-05
-5.02973e-05
1.17004e-05
-5.04351e-05
1.10296e-05
-5.05242e-05
9.86309e-06
-4.80494e-05
8.21833e-06
-4.54708e-05
5.14419e-06
-3.87349e-05
2.28867e-06
-3.624e-05
-2.94924e-05
1.92968e-08
2.48615e-07
6.47506e-07
1.23509e-06
2.0353e-06
3.122e-06
4.43885e-06
6.10174e-06
7.84263e-06
9.466e-06
1.0985e-05
1.13834e-05
1.13892e-05
1.05726e-05
9.07536e-06
7.09924e-06
4.61901e-06
2.31254e-06
)
;

boundaryField
{
    leftWall
    {
        type            fixedValue;
        value           nonuniform 0();
    }
    rightWall
    {
        type            fixedValue;
        value           uniform 0;
    }
    lowerWall
    {
        type            fixedValue;
        value           nonuniform 0();
    }
    atmosphere
    {
        type            calculated;
        value           nonuniform List<scalar> 
23
(
1.51176e-06
8.75653e-07
2.08562e-07
-4.94237e-07
-4.03562e-06
-8.3506e-06
-1.28592e-05
-1.75291e-05
-2.22873e-05
-2.71657e-05
-3.18786e-05
-3.70263e-05
-4.09283e-05
-4.59759e-05
-4.8047e-05
-5.06956e-05
-5.0441e-05
-4.97076e-05
-4.65521e-05
-4.34947e-05
-3.62546e-05
-3.39335e-05
-2.71799e-05
)
;
    }
    defaultFaces
    {
        type            empty;
        value           nonuniform 0();
    }
    procBoundary3to1
    {
        type            processor;
        value           nonuniform List<scalar> 
23
(
-8.08129e-06
-6.08906e-06
-5.29322e-06
-3.2001e-06
-2.49682e-06
1.31145e-05
5.3048e-05
7.75787e-05
8.12097e-05
6.79644e-05
5.6559e-05
3.74068e-05
1.66926e-05
3.40475e-05
3.21654e-05
4.78078e-06
2.73604e-05
0.000124747
0.000228427
0.000279146
0.000275698
0.000255351
0.000295651
)
;
    }
    procBoundary3to2
    {
        type            processor;
        value           nonuniform List<scalar> 
25
(
-0.000198655
-0.000144125
-0.000105392
-8.50859e-05
-7.65923e-05
-7.21036e-05
-6.84386e-05
-6.45119e-05
-6.02745e-05
-5.58714e-05
-5.1459e-05
-4.71347e-05
-4.29509e-05
-3.88882e-05
-3.49544e-05
-3.11492e-05
-2.74674e-05
-2.39044e-05
-2.04536e-05
-1.70888e-05
-1.38397e-05
-1.07539e-05
-7.68908e-06
-4.74705e-06
-1.65417e-08
)
;
    }
}


// ************************************************************************* //
