/*--------------------------------*- C++ -*----------------------------------*\
| =========                 |                                                 |
| \\      /  F ield         | OpenFOAM: The Open Source CFD Toolbox           |
|  \\    /   O peration     | Version:  2.4.0                                 |
|   \\  /    A nd           | Web:      www.OpenFOAM.org                      |
|    \\/     M anipulation  |                                                 |
\*---------------------------------------------------------------------------*/
FoamFile
{
    version     2.0;
    format      ascii;
    class       volScalarField;
    location    "0.9";
    object      rho;
}
// * * * * * * * * * * * * * * * * * * * * * * * * * * * * * * * * * * * * * //

dimensions      [1 -3 0 0 0 0 0];

internalField   nonuniform List<scalar> 
575
(
1.00153
1.00366
1.00213
1.00082
1.00054
1.00065
1.00066
1.00069
1.0003
1.00038
1.00045
1.00048
1.0001
1.00012
1.00013
1.00016
1.00003
1.00005
1.00008
1.00008
1.00001
1.00002
1.00002
1.00002
1
1
1
1
1
1
1
1
1
0.999999
0.999999
0.999999
0.999999
0.999999
0.999998
0.999998
0.999999
0.999998
0.999998
0.999998
0.999998
0.999998
0.999998
0.999998
0.999999
0.999998
0.999998
0.999998
0.999999
0.999998
0.999998
0.999998
0.999999
0.999999
0.999998
0.999998
0.999999
0.999999
0.999998
0.999998
0.999999
0.999999
0.999998
0.999998
0.999999
0.999999
0.999998
0.999997
0.999999
0.999999
0.999998
0.999997
0.999999
0.999998
0.999998
0.999997
0.999999
0.999999
0.999998
0.999998
0.999999
0.999998
0.999998
0.999998
0.999999
0.999999
0.999998
0.999998
0.999999
0.999998
0.999997
0.999998
0.999998
0.999998
0.999998
0.999999
1.00084
1.00116
1.00113
1.0005
1.00013
1.00005
1.00003
1.00004
1.00009
1.00043
1.00094
1.00107
1.00098
1.00059
1.00044
1.00038
1.00042
1.00091
1.00214
1.00098
1.00111
1.0008
1.00025
1.00007
1.00003
1.00001
1.00001
1.00005
1.00011
1.00019
1.00031
1.00034
1.00025
1.00016
1.00021
1.00037
1.0028
1.00329
1.00048
1.00038
1.00019
1.00009
1.00003
1.00001
1
1
1.00002
1.00003
1.00005
1.00007
1.00007
1.00005
1.00004
1.00013
1.00103
1.00292
1.00277
1.00014
1.00009
1.00004
1.00002
1.00001
1
1
0.999999
1
1
1.00001
1.00001
1.00001
1.00002
1.00005
1.00018
1.00131
1.00298
1.00073
1.00005
1.00002
1.00001
1
1
0.999999
0.999998
0.999998
0.999999
1
1
1.00001
1.00002
1.00004
1.0001
1.00026
1.00054
1.00237
1.00073
1.00001
1
1
0.999999
0.999998
0.999998
0.999998
0.999998
0.999999
1
1
1.00001
1.00003
1.00006
1.00022
1.00037
1.00052
1.00075
1.0007
1
1
0.999999
0.999999
0.999998
0.999998
0.999998
0.999998
0.999999
1
1
1.00001
1.00004
1.00014
1.00035
1.00049
1.00063
1.00082
1.00067
0.999999
0.999999
0.999999
0.999998
0.999998
0.999998
0.999998
0.999998
0.999999
1
1
1.00002
1.00005
1.00035
1.00061
1.00064
1.00075
1.00094
1.00063
0.999999
0.999998
0.999998
0.999998
0.999997
0.999997
0.999998
0.999998
0.999999
1
1.00001
1.00002
1.00006
1.00079
1.00526
1.003
1.00161
1.00121
1.00093
0.999998
0.999998
0.999997
0.999997
0.999997
0.999997
0.999998
0.999998
0.999999
1
1.00001
1.00003
1.00009
1.00101
1.01342
1.01358
1.00954
1.00655
1.00169
0.999998
0.999997
0.999997
0.999997
0.999997
0.999997
0.999998
0.999998
0.999999
1
1.00001
1.00003
1.0001
1.00087
1.01232
1.01808
1.01806
1.01207
1.00161
0.999997
0.999997
0.999997
0.999997
0.999997
0.999997
0.999998
0.999999
0.999999
1
1.00001
1.00003
1.00009
1.00049
1.00125
1.01436
1.01799
1.00444
1.00074
0.999997
0.999997
0.999996
0.999996
0.999997
0.999997
0.999998
0.999999
0.999999
1
1.00001
1.00003
1.00007
1.00038
1.00076
1.00109
1.00219
1.00107
1.00038
0.999997
0.999996
0.999996
0.999997
0.999997
0.999998
0.999998
0.999999
1
1
1.00001
1.00003
1.00008
1.00031
1.00052
1.00073
1.00127
1.00062
1.00027
0.999997
0.999996
0.999996
0.999997
0.999997
0.999998
0.999998
0.999999
1
1
1.00002
1.00005
1.00017
1.00033
1.00044
1.00059
1.00087
1.00046
1.00021
0.999997
0.999996
0.999997
0.999997
0.999998
0.999998
0.999999
0.999999
1
1.00001
1.00002
1.00008
1.00029
1.00045
1.00053
1.00091
1.00058
1.00037
1.0001
0.999997
0.999997
0.999997
0.999998
0.999998
0.999999
0.999999
0.999999
1
1.00001
1.00003
1.00013
1.0004
1.0006
1.00101
1.00163
1.0005
1.00019
1.00005
0.999997
0.999997
0.999997
0.999998
0.999998
0.999999
0.999999
0.999999
1
1.00001
1.00003
1.00014
1.00044
1.0008
1.00148
1.00135
1.00031
1.00009
1.00002
0.999997
0.999997
0.999998
0.999998
0.999999
0.999999
0.999999
0.999999
1
1.00001
1.00002
1.00009
1.00034
1.00047
1.00087
1.00038
1.00015
1.00003
1.00001
0.999997
0.999998
0.999998
0.999999
0.999999
0.999999
0.999999
0.999999
1
1
1.00001
1.00004
1.00018
1.00025
1.00027
1.00015
1.00007
1.00001
1
0.999998
0.999998
0.999999
0.999999
0.999999
0.999999
0.999999
0.999999
1
1
1
1.00001
1.00006
1.00008
1.00008
1.00005
1.00002
1.00001
1
0.999998
0.999999
0.999999
0.999999
0.999999
0.999999
0.999999
0.999999
1
1
1
1
1.00001
1.00002
1.00001
1.00001
1.00001
1
1
0.999998
0.999999
0.999999
0.999999
0.999999
0.999999
0.999999
0.999999
1
1
1
1
1
1
1
1
1
1
1
0.999999
0.999999
0.999999
0.999999
0.999999
0.999999
1
1
1
1
1
1
1
1
1
1
1
1
1
0.999999
0.999999
1
1
1
1
1
1
1
1
1
1
1
1
1
1
1
1
1
)
;

boundaryField
{
    leftWall
    {
        type            calculated;
        value           nonuniform 0();
    }
    rightWall
    {
        type            calculated;
        value           nonuniform List<scalar> 
25
(
1.00214
1.00329
1.00277
1.00073
1.00073
1.0007
1.00067
1.00063
1.00093
1.00169
1.00161
1.00074
1.00038
1.00027
1.00021
1.0001
1.00005
1.00002
1.00001
1
1
1
1
1
1
)
;
    }
    lowerWall
    {
        type            calculated;
        value           nonuniform 0();
    }
    atmosphere
    {
        type            calculated;
        value           nonuniform List<scalar> 
23
(
0.999998
0.999998
0.999998
1
1
1
1
1
1
1
1
1
1
1
1
1
1
1
1
1
1
1
1
)
;
    }
    defaultFaces
    {
        type            empty;
    }
    procBoundary3to1
    {
        type            processor;
        value           nonuniform List<scalar> 
23
(
1.00468
1.00473
1.00476
1.0033
1.00099
1.0011
1.00101
1.00068
1.00019
1.00007
1.00004
1.00014
1.00067
1.00097
1.00103
1.00104
1.00101
1.00072
1.00062
1.00056
1.00051
1.00057
1.00071
)
;
    }
    procBoundary3to2
    {
        type            processor;
        value           nonuniform List<scalar> 
25
(
1.00062
1.0004
1.00023
1.00008
1.00003
1.00001
1
1
1
0.999999
0.999999
0.999999
0.999999
0.999999
0.999999
0.999999
0.999999
0.999999
0.999999
0.999999
0.999999
1
1
0.999999
0.999999
)
;
    }
}


// ************************************************************************* //
