/*--------------------------------*- C++ -*----------------------------------*\
| =========                 |                                                 |
| \\      /  F ield         | OpenFOAM: The Open Source CFD Toolbox           |
|  \\    /   O peration     | Version:  2.4.0                                 |
|   \\  /    A nd           | Web:      www.OpenFOAM.org                      |
|    \\/     M anipulation  |                                                 |
\*---------------------------------------------------------------------------*/
FoamFile
{
    version     2.0;
    format      ascii;
    class       volVectorField;
    location    "0.9";
    object      U.air;
}
// * * * * * * * * * * * * * * * * * * * * * * * * * * * * * * * * * * * * * //

dimensions      [0 1 -1 0 0 0 0];

internalField   nonuniform List<vector> 
575
(
(1.07388 0.0236314 0)
(1.12478 0.0299795 0)
(1.1483 0.0395503 0)
(1.14531 0.0409544 0)
(0.772199 -0.0146436 0)
(0.779991 -0.00929121 0)
(0.787297 0.0188514 0)
(0.786709 0.0701851 0)
(0.558136 0.00219377 0)
(0.549249 0.0154036 0)
(0.544994 0.0389102 0)
(0.541726 0.077956 0)
(0.44975 0.0265817 0)
(0.441545 0.0321729 0)
(0.44114 0.0383027 0)
(0.444298 0.0539602 0)
(0.407063 0.0392531 0)
(0.404539 0.0374678 0)
(0.40573 0.0342856 0)
(0.411379 0.0326996 0)
(0.384832 0.0450265 0)
(0.386324 0.0379186 0)
(0.38997 0.0276172 0)
(0.395116 0.0187792 0)
(0.366924 0.0412928 0)
(0.370403 0.0313791 0)
(0.374131 0.0190635 0)
(0.379026 0.00680782 0)
(0.346492 0.0358417 0)
(0.350094 0.0248257 0)
(0.353221 0.012302 0)
(0.357158 2.72957e-05 0)
(0.323986 0.0306527 0)
(0.326879 0.0193753 0)
(0.329562 0.00697295 0)
(0.332311 -0.00525919 0)
(0.300463 0.0259194 0)
(0.30284 0.0145608 0)
(0.305196 0.00272427 0)
(0.307165 -0.00915251 0)
(0.276736 0.0218057 0)
(0.278841 0.010736 0)
(0.280687 -0.000769535 0)
(0.282343 -0.0123756 0)
(0.25348 0.0181947 0)
(0.255311 0.0073452 0)
(0.256777 -0.00369599 0)
(0.258128 -0.0149707 0)
(0.230917 0.0151518 0)
(0.232489 0.00462834 0)
(0.23356 -0.00606735 0)
(0.234665 -0.0169218 0)
(0.209028 0.0126381 0)
(0.210321 0.00243142 0)
(0.211087 -0.00788934 0)
(0.211924 -0.0183625 0)
(0.187826 0.0106835 0)
(0.188841 0.000810243 0)
(0.189316 -0.00916599 0)
(0.189905 -0.0192813 0)
(0.167332 0.00926856 0)
(0.168054 -0.000271139 0)
(0.168278 -0.00993794 0)
(0.168638 -0.0196952 0)
(0.147498 0.00837366 0)
(0.147919 -0.000866473 0)
(0.147921 -0.0102175 0)
(0.148057 -0.0196646 0)
(0.128295 0.00795496 0)
(0.128437 -0.00100065 0)
(0.128242 -0.0100473 0)
(0.128145 -0.0191979 0)
(0.10969 0.00804076 0)
(0.109567 -0.000660407 0)
(0.109184 -0.00944589 0)
(0.108856 -0.0183277 0)
(0.0915619 0.00859641 0)
(0.0912111 0.00015093 0)
(0.0906598 -0.00839024 0)
(0.0901112 -0.0170382 0)
(0.0740059 0.00937438 0)
(0.0734014 0.00120949 0)
(0.072654 -0.00705594 0)
(0.0718986 -0.0154403 0)
(0.0572202 0.0113712 0)
(0.0561762 0.00322861 0)
(0.0551378 -0.00495883 0)
(0.0540855 -0.0132336 0)
(0.0408143 0.0132365 0)
(0.0396834 0.00528715 0)
(0.0383554 -0.00284171 0)
(0.0369483 -0.0111111 0)
(0.0249729 0.0167076 0)
(0.0237345 0.0091185 0)
(0.0224207 0.00135178 0)
(0.0210246 -0.00652253 0)
(2.53083e-05 0.0172496 0)
(7.88668e-06 0.00999443 0)
(-0.000146445 0.00238676 0)
(-0.000297885 -0.00562985 0)
(1.11355 0.0495464 0)
(1.01473 0.0224394 0)
(0.873835 -0.176288 0)
(0.708973 -0.307693 0)
(0.575794 -0.332663 0)
(0.472189 -0.303964 0)
(0.448618 -0.259047 0)
(0.432859 -0.191097 0)
(0.464433 -0.0376082 0)
(0.478704 -0.0860962 0)
(0.386359 -0.22906 0)
(0.48623 -0.17574 0)
(0.653143 -0.272737 0)
(0.878545 -0.651698 0)
(0.889895 -1.04857 0)
(0.718997 -1.23795 0)
(0.538952 -1.22573 0)
(0.296833 -1.13642 0)
(0.186623 -1.28254 0)
(0.769025 0.102471 0)
(0.757522 0.0700629 0)
(0.713772 -0.0812689 0)
(0.642862 -0.216362 0)
(0.557055 -0.250482 0)
(0.500831 -0.252524 0)
(0.476578 -0.230901 0)
(0.47849 -0.203573 0)
(0.517793 -0.1791 0)
(0.634585 -0.134368 0)
(0.735347 -0.11197 0)
(0.772188 -0.171901 0)
(0.873089 -0.30701 0)
(0.943981 -0.650931 0)
(0.914173 -0.959658 0)
(0.691389 -1.10891 0)
(0.500915 -1.06302 0)
(0.235647 -0.972431 0)
(0.0763234 -1.12801 0)
(0.572079 0.102587 0)
(0.599888 0.0583492 0)
(0.615082 -0.0721835 0)
(0.58551 -0.154168 0)
(0.536528 -0.203874 0)
(0.502926 -0.225368 0)
(0.485879 -0.217517 0)
(0.491366 -0.217407 0)
(0.51224 -0.221023 0)
(0.55409 -0.25338 0)
(0.641606 -0.286654 0)
(0.719843 -0.339175 0)
(0.819894 -0.452199 0)
(0.833414 -0.666022 0)
(0.747103 -0.80415 0)
(0.580042 -0.908836 0)
(0.392393 -0.870406 0)
(0.184782 -0.791513 0)
(0.0442488 -1.01274 0)
(0.478232 0.062677 0)
(0.522346 0.00960337 0)
(0.540081 -0.064515 0)
(0.528925 -0.131918 0)
(0.506076 -0.180489 0)
(0.482946 -0.203611 0)
(0.478866 -0.218153 0)
(0.484319 -0.230924 0)
(0.506088 -0.241322 0)
(0.538106 -0.283914 0)
(0.565459 -0.315115 0)
(0.650031 -0.363261 0)
(0.659738 -0.46235 0)
(0.670054 -0.615803 0)
(0.614728 -0.758825 0)
(0.494665 -0.812911 0)
(0.315798 -0.740201 0)
(0.157332 -0.690328 0)
(0.0442003 -0.945955 0)
(0.436837 0.0264639 0)
(0.474027 -0.0174023 0)
(0.481394 -0.0697043 0)
(0.48626 -0.119455 0)
(0.472339 -0.162085 0)
(0.459825 -0.199094 0)
(0.462593 -0.214749 0)
(0.460017 -0.245427 0)
(0.486168 -0.261179 0)
(0.506367 -0.30208 0)
(0.517486 -0.373704 0)
(0.557601 -0.412236 0)
(0.571123 -0.492012 0)
(0.615381 -0.582549 0)
(0.589972 -0.648882 0)
(0.523615 -0.644893 0)
(0.360848 -0.556232 0)
(0.173621 -0.554495 0)
(0.073194 -0.835304 0)
(0.411539 0.00193334 0)
(0.435966 -0.0352331 0)
(0.437878 -0.0763469 0)
(0.444014 -0.114968 0)
(0.440649 -0.156735 0)
(0.43127 -0.195746 0)
(0.438261 -0.215381 0)
(0.431042 -0.248183 0)
(0.446028 -0.294485 0)
(0.473955 -0.316898 0)
(0.477916 -0.370792 0)
(0.476338 -0.421088 0)
(0.503398 -0.511449 0)
(0.540906 -0.611087 0)
(0.511964 -0.623969 0)
(0.479939 -0.581409 0)
(0.359188 -0.459359 0)
(0.157429 -0.438559 0)
(0.0400599 -0.719235 0)
(0.387363 -0.013548 0)
(0.404029 -0.044408 0)
(0.400696 -0.080718 0)
(0.411607 -0.115554 0)
(0.406972 -0.155109 0)
(0.404745 -0.194019 0)
(0.406156 -0.215406 0)
(0.404264 -0.255625 0)
(0.417035 -0.300096 0)
(0.413479 -0.332319 0)
(0.442337 -0.372907 0)
(0.421631 -0.435872 0)
(0.462729 -0.556398 0)
(0.47219 -0.597582 0)
(0.452996 -0.576725 0)
(0.404365 -0.478173 0)
(0.214208 -0.281296 0)
(0.0831682 -0.296825 0)
(0.025077 -0.656915 0)
(0.360786 -0.0220046 0)
(0.373105 -0.0497669 0)
(0.368497 -0.0837323 0)
(0.380176 -0.117465 0)
(0.374823 -0.152675 0)
(0.374177 -0.192305 0)
(0.37374 -0.215989 0)
(0.375495 -0.260315 0)
(0.371236 -0.30323 0)
(0.381877 -0.340414 0)
(0.372788 -0.372708 0)
(0.388414 -0.451947 0)
(0.399806 -0.580636 0)
(0.386501 -0.587225 0)
(0.354672 -0.540417 0)
(0.283369 -0.366235 0)
(0.0650157 -0.163528 0)
(0.0335848 -0.263885 0)
(0.01666 -0.633415 0)
(0.334979 -0.0271884 0)
(0.341816 -0.054207 0)
(0.342011 -0.0863967 0)
(0.346151 -0.119753 0)
(0.346079 -0.151642 0)
(0.344007 -0.190747 0)
(0.339874 -0.217997 0)
(0.346264 -0.255322 0)
(0.330298 -0.305315 0)
(0.33409 -0.332151 0)
(0.329056 -0.37395 0)
(0.336861 -0.473344 0)
(0.300047 -0.553857 0)
(0.2577 -0.561271 0)
(0.212569 -0.464083 0)
(0.0857722 -0.213041 0)
(-0.00158548 -0.081699 0)
(0.0187829 -0.271025 0)
(0.0291201 -0.604213 0)
(0.309277 -0.0302966 0)
(0.313728 -0.0577494 0)
(0.314525 -0.0878326 0)
(0.316815 -0.120029 0)
(0.315335 -0.15172 0)
(0.315103 -0.185653 0)
(0.306675 -0.219217 0)
(0.313075 -0.251778 0)
(0.296536 -0.295395 0)
(0.289213 -0.330159 0)
(0.294077 -0.373423 0)
(0.265329 -0.434887 0)
(0.210793 -0.509366 0)
(0.141148 -0.501409 0)
(0.0809138 -0.348181 0)
(-0.00893628 -0.152365 0)
(-0.00263133 -0.0888585 0)
(0.0453403 -0.291572 0)
(0.0377401 -0.586124 0)
(0.283922 -0.0328025 0)
(0.287114 -0.0600501 0)
(0.287325 -0.0891686 0)
(0.288856 -0.119466 0)
(0.285974 -0.151093 0)
(0.28576 -0.181524 0)
(0.278398 -0.217497 0)
(0.275496 -0.245652 0)
(0.269752 -0.285769 0)
(0.250392 -0.324241 0)
(0.24696 -0.355079 0)
(0.216835 -0.39962 0)
(0.17204 -0.450473 0)
(0.0871477 -0.435057 0)
(0.0450318 -0.296505 0)
(-0.0148691 -0.142515 0)
(0.046577 -0.133483 0)
(0.0752489 -0.295976 0)
(0.0596727 -0.514575 0)
(0.259376 -0.0346238 0)
(0.261446 -0.0614692 0)
(0.261354 -0.0894331 0)
(0.26116 -0.118613 0)
(0.25935 -0.14869 0)
(0.255121 -0.179003 0)
(0.252661 -0.210404 0)
(0.2415 -0.243182 0)
(0.240789 -0.274507 0)
(0.222526 -0.306639 0)
(0.208591 -0.342591 0)
(0.191297 -0.373146 0)
(0.156356 -0.396019 0)
(0.0834297 -0.381269 0)
(0.0520977 -0.25986 0)
(0.0230848 -0.160714 0)
(0.0867587 -0.174014 0)
(0.0880438 -0.284321 0)
(0.0480203 -0.462769 0)
(0.235443 -0.0358723 0)
(0.236708 -0.0620516 0)
(0.236127 -0.0890626 0)
(0.235076 -0.117121 0)
(0.23255 -0.145857 0)
(0.228363 -0.17498 0)
(0.22365 -0.205616 0)
(0.21574 -0.234438 0)
(0.208633 -0.268137 0)
(0.196567 -0.294765 0)
(0.185999 -0.326137 0)
(0.168177 -0.353259 0)
(0.153386 -0.360555 0)
(0.106476 -0.339637 0)
(0.0886479 -0.242711 0)
(0.077061 -0.17966 0)
(0.0970345 -0.184197 0)
(0.0796185 -0.262644 0)
(0.0551906 -0.401185 0)
(0.212321 -0.0365803 0)
(0.212833 -0.0619651 0)
(0.211765 -0.0880377 0)
(0.209991 -0.115025 0)
(0.207011 -0.142533 0)
(0.202057 -0.170562 0)
(0.197452 -0.199585 0)
(0.187871 -0.228123 0)
(0.18281 -0.259046 0)
(0.169216 -0.284425 0)
(0.161354 -0.32063 0)
(0.153158 -0.345915 0)
(0.153109 -0.347764 0)
(0.133504 -0.319958 0)
(0.120424 -0.234698 0)
(0.0952172 -0.175544 0)
(0.0928326 -0.178117 0)
(0.0614459 -0.248182 0)
(0.049646 -0.353229 0)
(0.189947 -0.0367762 0)
(0.189832 -0.0613809 0)
(0.188309 -0.0864991 0)
(0.185966 -0.112424 0)
(0.182317 -0.138785 0)
(0.177279 -0.165732 0)
(0.171346 -0.193375 0)
(0.1625 -0.220665 0)
(0.155852 -0.25168 0)
(0.14477 -0.276486 0)
(0.137438 -0.31249 0)
(0.13333 -0.347795 0)
(0.145428 -0.345189 0)
(0.13415 -0.310487 0)
(0.124412 -0.214494 0)
(0.094451 -0.157248 0)
(0.0675533 -0.152286 0)
(0.0458836 -0.229278 0)
(0.0474213 -0.308048 0)
(0.16834 -0.0365386 0)
(0.167653 -0.0603058 0)
(0.165728 -0.0845385 0)
(0.162815 -0.109426 0)
(0.158839 -0.134682 0)
(0.153207 -0.160459 0)
(0.146562 -0.186657 0)
(0.138154 -0.2136 0)
(0.128088 -0.242702 0)
(0.118236 -0.267934 0)
(0.107813 -0.3086 0)
(0.1017 -0.353645 0)
(0.108629 -0.35246 0)
(0.0945306 -0.299902 0)
(0.0901342 -0.195007 0)
(0.0501536 -0.126591 0)
(0.0295728 -0.128884 0)
(0.0345328 -0.229264 0)
(0.0436858 -0.262071 0)
(0.147445 -0.035878 0)
(0.146295 -0.0588649 0)
(0.143991 -0.0822222 0)
(0.14072 -0.10614 0)
(0.136253 -0.130232 0)
(0.130387 -0.154812 0)
(0.123213 -0.17966 0)
(0.11391 -0.204623 0)
(0.102582 -0.232254 0)
(0.0889344 -0.25813 0)
(0.0759419 -0.29468 0)
(0.0429073 -0.343926 0)
(0.0177152 -0.343421 0)
(-0.0262522 -0.279513 0)
(-0.0150888 -0.17399 0)
(-0.0535551 -0.110757 0)
(0.0028541 -0.136028 0)
(0.0153736 -0.249398 0)
(0.0283678 -0.24098 0)
(0.127258 -0.0348191 0)
(0.125656 -0.0570574 0)
(0.123053 -0.0796073 0)
(0.119509 -0.102543 0)
(0.114838 -0.125617 0)
(0.108815 -0.148735 0)
(0.101256 -0.172316 0)
(0.0913244 -0.194876 0)
(0.0794394 -0.220836 0)
(0.0603919 -0.241366 0)
(0.0398213 -0.272881 0)
(-0.00909954 -0.299395 0)
(-0.0492558 -0.301439 0)
(-0.0901368 -0.252764 0)
(-0.073701 -0.161023 0)
(-0.0891016 -0.128046 0)
(0.0136381 -0.193733 0)
(0.00464897 -0.253248 0)
(0.0198358 -0.22074 0)
(0.107715 -0.0334374 0)
(0.105767 -0.0549782 0)
(0.102923 -0.0767816 0)
(0.0991967 -0.0988227 0)
(0.0945131 -0.120875 0)
(0.0884839 -0.142786 0)
(0.081459 -0.164726 0)
(0.0709367 -0.185117 0)
(0.0614641 -0.206534 0)
(0.0400903 -0.222344 0)
(0.0196536 -0.23872 0)
(-0.0192748 -0.257357 0)
(-0.0586585 -0.264785 0)
(-0.0935406 -0.244251 0)
(-0.0719761 -0.183763 0)
(-0.059774 -0.184832 0)
(0.0282347 -0.231711 0)
(-0.00892881 -0.245842 0)
(0.0146662 -0.218989 0)
(0.0887423 -0.0316914 0)
(0.0864606 -0.0526372 0)
(0.0834602 -0.0737763 0)
(0.0796666 -0.0950353 0)
(0.0751371 -0.116173 0)
(0.0692763 -0.13696 0)
(0.0630911 -0.15735 0)
(0.052872 -0.175628 0)
(0.0448445 -0.193605 0)
(0.0245804 -0.203663 0)
(0.0165917 -0.217903 0)
(-0.00685335 -0.230179 0)
(-0.0336483 -0.235667 0)
(-0.06079 -0.242389 0)
(-0.0214561 -0.210361 0)
(0.00133365 -0.221431 0)
(0.0347853 -0.236082 0)
(-0.00590349 -0.23892 0)
(0.0178909 -0.214851 0)
(0.0703165 -0.0297306 0)
(0.0677511 -0.05018 0)
(0.0646213 -0.0707735 0)
(0.0608892 -0.0914546 0)
(0.0566214 -0.111838 0)
(0.0512193 -0.13163 0)
(0.0458416 -0.15052 0)
(0.0356371 -0.166351 0)
(0.0302035 -0.182072 0)
(0.018402 -0.195658 0)
(0.0205583 -0.207644 0)
(0.0037022 -0.221677 0)
(0.0190339 -0.223561 0)
(0.00143878 -0.255769 0)
(0.0320007 -0.242164 0)
(0.0326208 -0.229999 0)
(0.0479201 -0.227897 0)
(0.00550316 -0.231672 0)
(0.0242797 -0.208964 0)
(0.0522713 -0.0272181 0)
(0.0493841 -0.0473311 0)
(0.0461286 -0.0675932 0)
(0.0424762 -0.0877459 0)
(0.0384104 -0.107416 0)
(0.0332695 -0.126095 0)
(0.0285099 -0.143912 0)
(0.0224512 -0.160816 0)
(0.0253971 -0.178483 0)
(0.0183031 -0.19375 0)
(0.0286952 -0.20372 0)
(0.0214826 -0.227294 0)
(0.0533463 -0.229783 0)
(0.0477672 -0.250212 0)
(0.0560473 -0.242059 0)
(0.0466985 -0.232825 0)
(0.0598421 -0.21939 0)
(0.023349 -0.214186 0)
(0.0294748 -0.189597 0)
(0.0345939 -0.0250847 0)
(0.0313736 -0.0448742 0)
(0.0280177 -0.064636 0)
(0.0242311 -0.0841472 0)
(0.0206138 -0.103507 0)
(0.0179825 -0.122708 0)
(0.0196871 -0.142047 0)
(0.0198032 -0.160475 0)
(0.0276155 -0.177761 0)
(0.025716 -0.196749 0)
(0.0486292 -0.208852 0)
(0.0475844 -0.240256 0)
(0.0657576 -0.243456 0)
(0.0574241 -0.251284 0)
(0.0625343 -0.241899 0)
(0.0500004 -0.232187 0)
(0.0601269 -0.212568 0)
(0.0230478 -0.203285 0)
(0.0267631 -0.166368 0)
(0.0183966 -0.0200756 0)
(0.0141249 -0.0401527 0)
(0.0106805 -0.0607914 0)
(0.00917474 -0.0819655 0)
(0.0101992 -0.103476 0)
(0.0123994 -0.12525 0)
(0.0181747 -0.1469 0)
(0.0215968 -0.169737 0)
(0.0369553 -0.188558 0)
(0.0376817 -0.215174 0)
(0.0619975 -0.225768 0)
(0.054902 -0.245197 0)
(0.0677171 -0.245568 0)
(0.0578643 -0.246505 0)
(0.0619712 -0.234554 0)
(0.0434442 -0.222425 0)
(0.0470336 -0.190607 0)
(0.00619528 -0.177744 0)
(0.0197575 -0.146025 0)
(-0.000269096 -0.0195763 0)
(0.000490483 -0.0405219 0)
(0.00221068 -0.0624096 0)
(0.00476848 -0.0850796 0)
(0.00860526 -0.108175 0)
(0.0130396 -0.131848 0)
(0.0209524 -0.154718 0)
(0.025576 -0.179692 0)
(0.0412656 -0.198641 0)
(0.0407514 -0.223154 0)
(0.0620197 -0.233238 0)
(0.055042 -0.246182 0)
(0.0669275 -0.244981 0)
(0.0560329 -0.241454 0)
(0.0590344 -0.226173 0)
(0.0368925 -0.211348 0)
(0.0424131 -0.176234 0)
(0.00480747 -0.164941 0)
(0.0215333 -0.13212 0)
)
;

boundaryField
{
    leftWall
    {
        type            fixedValue;
        value           nonuniform 0();
    }
    rightWall
    {
        type            fixedValue;
        value           uniform (0 0 0);
    }
    lowerWall
    {
        type            fixedValue;
        value           nonuniform 0();
    }
    atmosphere
    {
        type            fluxCorrectedVelocity;
        value           nonuniform List<vector> 
23
(
(2.53083e-05 0.0172578 0)
(7.88668e-06 0.00999623 0)
(-0.000146445 0.00238089 0)
(-0.000297885 -0.0056421 0)
(-0.000269096 -0.0195964 0)
(0.000490483 -0.0405492 0)
(0.00221068 -0.0624422 0)
(0.00476848 -0.0851189 0)
(0.00860526 -0.108224 0)
(0.0130396 -0.131913 0)
(0.0209524 -0.154797 0)
(0.025576 -0.179794 0)
(0.0412656 -0.198741 0)
(0.0407514 -0.223252 0)
(0.0620197 -0.233309 0)
(0.055042 -0.24617 0)
(0.0669275 -0.244934 0)
(0.0560329 -0.241373 0)
(0.0590344 -0.22605 0)
(0.0368925 -0.211204 0)
(0.0424131 -0.176047 0)
(0.00480747 -0.164776 0)
(0.0215333 -0.131981 0)
)
;
    }
    defaultFaces
    {
        type            empty;
    }
    procBoundary3to1
    {
        type            processor;
        value           nonuniform List<vector> 
23
(
(1.31201 0.142747 0)
(1.35588 0.0948265 0)
(1.35337 0.0693477 0)
(1.33202 0.0239974 0)
(1.28026 -0.0248345 0)
(1.12238 -0.143334 0)
(0.905094 -0.321658 0)
(0.671525 -0.428804 0)
(0.506021 -0.454757 0)
(0.438029 -0.358451 0)
(0.349877 -0.301399 0)
(0.340397 -0.186149 0)
(0.189367 -0.127483 0)
(0.0517622 -0.238955 0)
(-0.00090821 -0.0885488 0)
(0.30448 0.125641 0)
(0.402994 -0.0183107 0)
(0.679115 -0.560695 0)
(0.75542 -1.12665 0)
(0.65438 -1.40177 0)
(0.51508 -1.39296 0)
(0.262737 -1.29568 0)
(0.131168 -1.52563 0)
)
;
    }
    procBoundary3to2
    {
        type            processor;
        value           nonuniform List<vector> 
25
(
(1.00288 0.0347739 0)
(0.756358 -0.00239066 0)
(0.572079 0.00514861 0)
(0.466143 0.031687 0)
(0.417037 0.0517434 0)
(0.389458 0.0598277 0)
(0.36659 0.058737 0)
(0.345013 0.0524989 0)
(0.321707 0.0486479 0)
(0.298075 0.0429691 0)
(0.274513 0.0386787 0)
(0.251522 0.0345454 0)
(0.229264 0.0311153 0)
(0.20767 0.0281678 0)
(0.186787 0.0257599 0)
(0.166584 0.0239122 0)
(0.147032 0.022579 0)
(0.128135 0.0217317 0)
(0.109843 0.0214405 0)
(0.0920029 0.0215547 0)
(0.0748371 0.0219723 0)
(0.0588236 0.0239159 0)
(0.0422511 0.0253372 0)
(0.026586 0.028352 0)
(0.000240826 0.0281431 0)
)
;
    }
}


// ************************************************************************* //
