/*--------------------------------*- C++ -*----------------------------------*\
| =========                 |                                                 |
| \\      /  F ield         | OpenFOAM: The Open Source CFD Toolbox           |
|  \\    /   O peration     | Version:  2.4.0                                 |
|   \\  /    A nd           | Web:      www.OpenFOAM.org                      |
|    \\/     M anipulation  |                                                 |
\*---------------------------------------------------------------------------*/
FoamFile
{
    version     2.0;
    format      ascii;
    class       volVectorField;
    location    "0.9";
    object      U.oil;
}
// * * * * * * * * * * * * * * * * * * * * * * * * * * * * * * * * * * * * * //

dimensions      [0 1 -1 0 0 0 0];

internalField   nonuniform List<vector> 
575
(
(1.04603 0.0624038 0)
(1.11466 0.0784518 0)
(1.17171 0.0733691 0)
(1.15854 0.0558982 0)
(0.767484 -0.0132962 0)
(0.780705 -0.00789066 0)
(0.793692 0.0206462 0)
(0.793708 0.0701693 0)
(0.556779 0.00120054 0)
(0.549435 0.0148173 0)
(0.547948 0.0382242 0)
(0.54733 0.0764247 0)
(0.449587 0.0252935 0)
(0.441744 0.0307053 0)
(0.442037 0.0365383 0)
(0.445672 0.0520556 0)
(0.407058 0.0385164 0)
(0.404636 0.036593 0)
(0.405951 0.0332484 0)
(0.411857 0.0315255 0)
(0.384826 0.0446989 0)
(0.386351 0.0374834 0)
(0.390032 0.0270046 0)
(0.39521 0.0181678 0)
(0.366917 0.0411344 0)
(0.370401 0.0311785 0)
(0.374133 0.0188664 0)
(0.37903 0.00661662 0)
(0.346482 0.0357871 0)
(0.350085 0.024774 0)
(0.353213 0.0122557 0)
(0.357149 -1.28055e-05 0)
(0.323976 0.030634 0)
(0.32687 0.0193605 0)
(0.329552 0.00696194 0)
(0.332301 -0.00526662 0)
(0.300454 0.0259123 0)
(0.302832 0.0145562 0)
(0.305187 0.00272185 0)
(0.307156 -0.00915305 0)
(0.276728 0.021804 0)
(0.278833 0.0107357 0)
(0.280679 -0.000768803 0)
(0.282335 -0.0123739 0)
(0.253472 0.0181953 0)
(0.255304 0.00734647 0)
(0.25677 -0.00369408 0)
(0.258121 -0.0149683 0)
(0.230911 0.0151531 0)
(0.232482 0.00463015 0)
(0.233553 -0.00606515 0)
(0.234658 -0.0169192 0)
(0.209023 0.0126396 0)
(0.210316 0.00243326 0)
(0.211081 -0.00788715 0)
(0.211918 -0.01836 0)
(0.187821 0.010685 0)
(0.188836 0.000812062 0)
(0.189311 -0.0091639 0)
(0.189899 -0.0192789 0)
(0.167328 0.00926996 0)
(0.16805 -0.000269467 0)
(0.168273 -0.00993598 0)
(0.168633 -0.019693 0)
(0.147494 0.00837499 0)
(0.147916 -0.000864895 0)
(0.147917 -0.0102157 0)
(0.148052 -0.0196625 0)
(0.128292 0.00795617 0)
(0.128434 -0.000999201 0)
(0.128238 -0.0100456 0)
(0.128141 -0.019196 0)
(0.109687 0.00804194 0)
(0.109564 -0.000659005 0)
(0.109181 -0.00944427 0)
(0.108853 -0.0183258 0)
(0.0915598 0.00859752 0)
(0.0912089 0.000152267 0)
(0.0906571 -0.00838865 0)
(0.0901082 -0.0170363 0)
(0.0740042 0.00937549 0)
(0.0733998 0.00121082 0)
(0.0726519 -0.00705439 0)
(0.071896 -0.0154385 0)
(0.057219 0.0113724 0)
(0.056175 0.00322989 0)
(0.0551361 -0.00495735 0)
(0.0540835 -0.0132319 0)
(0.0408133 0.0132376 0)
(0.0396825 0.00528842 0)
(0.0383542 -0.00284031 0)
(0.0369467 -0.0111095 0)
(0.0249723 0.0167084 0)
(0.0237337 0.00911946 0)
(0.0224196 0.00135285 0)
(0.0210235 -0.00652123 0)
(2.50995e-05 0.0172495 0)
(7.45426e-06 0.00999467 0)
(-0.000146904 0.00238732 0)
(-0.000298402 -0.00562891 0)
(1.14264 0.0597034 0)
(1.04672 0.0265724 0)
(0.903888 -0.182631 0)
(0.723752 -0.313358 0)
(0.579557 -0.336486 0)
(0.472926 -0.305891 0)
(0.448775 -0.260042 0)
(0.432725 -0.192507 0)
(0.464079 -0.0402258 0)
(0.478152 -0.0918861 0)
(0.369428 -0.245553 0)
(0.461483 -0.183675 0)
(0.629865 -0.269238 0)
(0.872956 -0.629599 0)
(0.900245 -1.03509 0)
(0.732505 -1.23145 0)
(0.552915 -1.22849 0)
(0.311119 -1.14508 0)
(0.18628 -1.33243 0)
(0.788591 0.101452 0)
(0.785179 0.0626301 0)
(0.729876 -0.0919157 0)
(0.647479 -0.220822 0)
(0.558493 -0.252692 0)
(0.501244 -0.253573 0)
(0.476678 -0.231397 0)
(0.478536 -0.204142 0)
(0.517797 -0.180197 0)
(0.634652 -0.13593 0)
(0.735437 -0.114096 0)
(0.772277 -0.173661 0)
(0.872968 -0.304877 0)
(0.945095 -0.646829 0)
(0.918098 -0.958747 0)
(0.696171 -1.10988 0)
(0.510328 -1.06401 0)
(0.270735 -1.02668 0)
(0.105885 -1.20637 0)
(0.579876 0.0990266 0)
(0.6083 0.0532978 0)
(0.618119 -0.0750405 0)
(0.5869 -0.156098 0)
(0.5371 -0.204781 0)
(0.503084 -0.225775 0)
(0.485924 -0.217703 0)
(0.491404 -0.217624 0)
(0.512306 -0.221575 0)
(0.554182 -0.254118 0)
(0.64181 -0.28756 0)
(0.720145 -0.340301 0)
(0.820232 -0.453456 0)
(0.833337 -0.666435 0)
(0.746935 -0.804095 0)
(0.582025 -0.910482 0)
(0.408033 -0.892811 0)
(0.220214 -0.857758 0)
(0.0677668 -1.08396 0)
(0.480101 0.0605695 0)
(0.523641 0.00768412 0)
(0.54059 -0.0657572 0)
(0.529144 -0.132611 0)
(0.506159 -0.18081 0)
(0.482975 -0.203734 0)
(0.478882 -0.218209 0)
(0.484332 -0.230995 0)
(0.506104 -0.241484 0)
(0.538127 -0.284156 0)
(0.565481 -0.315448 0)
(0.650074 -0.363653 0)
(0.659713 -0.462782 0)
(0.670033 -0.616254 0)
(0.615233 -0.75966 0)
(0.498014 -0.816379 0)
(0.329581 -0.775806 0)
(0.179149 -0.763841 0)
(0.0475232 -0.954006 0)
(0.437278 0.0254549 0)
(0.47423 -0.0180855 0)
(0.481483 -0.0700637 0)
(0.486287 -0.119613 0)
(0.472351 -0.162141 0)
(0.459833 -0.199112 0)
(0.4626 -0.214759 0)
(0.460023 -0.24544 0)
(0.486172 -0.2612 0)
(0.506372 -0.302122 0)
(0.517498 -0.373792 0)
(0.557616 -0.412399 0)
(0.571164 -0.492424 0)
(0.615585 -0.583469 0)
(0.591079 -0.65188 0)
(0.527295 -0.652604 0)
(0.370331 -0.569586 0)
(0.188895 -0.626124 0)
(0.0777875 -0.855228 0)
(0.41161 0.00150972 0)
(0.435977 -0.0354306 0)
(0.437883 -0.0764272 0)
(0.444015 -0.114994 0)
(0.440652 -0.156739 0)
(0.431274 -0.195745 0)
(0.438266 -0.215379 0)
(0.431046 -0.248183 0)
(0.446031 -0.294491 0)
(0.473961 -0.316921 0)
(0.477932 -0.370867 0)
(0.476381 -0.421281 0)
(0.503526 -0.512149 0)
(0.541151 -0.612801 0)
(0.513353 -0.630111 0)
(0.484157 -0.592164 0)
(0.364614 -0.474785 0)
(0.161101 -0.462421 0)
(0.0412968 -0.744788 0)
(0.387359 -0.0136603 0)
(0.404023 -0.0444392 0)
(0.400691 -0.0807252 0)
(0.411605 -0.115553 0)
(0.406974 -0.155104 0)
(0.404748 -0.194014 0)
(0.40616 -0.215402 0)
(0.404267 -0.255623 0)
(0.417037 -0.300099 0)
(0.413484 -0.332341 0)
(0.442358 -0.373 0)
(0.421672 -0.436142 0)
(0.462868 -0.557483 0)
(0.47262 -0.601857 0)
(0.454501 -0.587307 0)
(0.409067 -0.493416 0)
(0.219976 -0.301441 0)
(0.0880324 -0.326729 0)
(0.0266508 -0.683392 0)
(0.360777 -0.0220198 0)
(0.373097 -0.0497694 0)
(0.368492 -0.0837297 0)
(0.380175 -0.117461 0)
(0.374824 -0.15267 0)
(0.37418 -0.1923 0)
(0.373743 -0.215985 0)
(0.375496 -0.260313 0)
(0.371238 -0.303232 0)
(0.381881 -0.340434 0)
(0.372805 -0.372822 0)
(0.388472 -0.452357 0)
(0.399876 -0.581954 0)
(0.385496 -0.597256 0)
(0.351891 -0.560959 0)
(0.287406 -0.388227 0)
(0.0718227 -0.189843 0)
(0.0392106 -0.299264 0)
(0.0178556 -0.659417 0)
(0.33497 -0.0271894 0)
(0.341808 -0.0542045 0)
(0.342006 -0.0863924 0)
(0.34615 -0.119748 0)
(0.34608 -0.151637 0)
(0.34401 -0.190742 0)
(0.339876 -0.217993 0)
(0.346266 -0.25532 0)
(0.330298 -0.305316 0)
(0.334093 -0.332168 0)
(0.32908 -0.374094 0)
(0.336965 -0.473968 0)
(0.300047 -0.555397 0)
(0.257196 -0.583593 0)
(0.218202 -0.559504 0)
(0.114649 -0.31004 0)
(0.010747 -0.135222 0)
(0.0259989 -0.319938 0)
(0.0304436 -0.639312 0)
(0.309269 -0.0302946 0)
(0.313721 -0.0577457 0)
(0.314521 -0.087828 0)
(0.316814 -0.120024 0)
(0.315336 -0.151715 0)
(0.315105 -0.185649 0)
(0.306676 -0.219213 0)
(0.313075 -0.251776 0)
(0.296536 -0.295396 0)
(0.289214 -0.330178 0)
(0.294104 -0.373593 0)
(0.265412 -0.435649 0)
(0.210982 -0.511673 0)
(0.139483 -0.528568 0)
(0.117584 -0.538899 0)
(0.0553417 -0.371508 0)
(0.0407119 -0.279326 0)
(0.0694567 -0.440305 0)
(0.0408079 -0.636858 0)
(0.283914 -0.0327996 0)
(0.287107 -0.0600462 0)
(0.287321 -0.0891641 0)
(0.288854 -0.119461 0)
(0.285975 -0.151089 0)
(0.285761 -0.181521 0)
(0.278399 -0.217493 0)
(0.275496 -0.245651 0)
(0.269752 -0.285771 0)
(0.250393 -0.324266 0)
(0.246981 -0.355264 0)
(0.216897 -0.400428 0)
(0.172282 -0.453102 0)
(0.0862689 -0.459855 0)
(0.0768896 -0.493657 0)
(0.0558718 -0.404292 0)
(0.10242 -0.412323 0)
(0.0988993 -0.486468 0)
(0.063875 -0.560151 0)
(0.259369 -0.0346206 0)
(0.26144 -0.0614653 0)
(0.26135 -0.0894288 0)
(0.261159 -0.118609 0)
(0.25935 -0.148686 0)
(0.255122 -0.179 0)
(0.252662 -0.210401 0)
(0.2415 -0.243181 0)
(0.240789 -0.274512 0)
(0.222528 -0.306679 0)
(0.208607 -0.342803 0)
(0.191355 -0.374004 0)
(0.15658 -0.398683 0)
(0.0836417 -0.396332 0)
(0.0519841 -0.296167 0)
(0.058461 -0.395582 0)
(0.123884 -0.428886 0)
(0.10536 -0.402524 0)
(0.0494671 -0.486795 0)
(0.235437 -0.0358692 0)
(0.236702 -0.0620479 0)
(0.236124 -0.0890586 0)
(0.235075 -0.117117 0)
(0.23255 -0.145854 0)
(0.228363 -0.174977 0)
(0.22365 -0.205613 0)
(0.21574 -0.234438 0)
(0.208634 -0.268147 0)
(0.196571 -0.294832 0)
(0.186013 -0.326422 0)
(0.168226 -0.354259 0)
(0.153539 -0.363011 0)
(0.10675 -0.351363 0)
(0.0894807 -0.264266 0)
(0.0782827 -0.213152 0)
(0.100425 -0.242585 0)
(0.0815299 -0.295093 0)
(0.0558319 -0.414005 0)
(0.212315 -0.0365774 0)
(0.212828 -0.0619617 0)
(0.211761 -0.088034 0)
(0.209989 -0.115022 0)
(0.20701 -0.14253 0)
(0.202057 -0.170559 0)
(0.197452 -0.199583 0)
(0.187871 -0.228123 0)
(0.182811 -0.259065 0)
(0.169221 -0.284535 0)
(0.161369 -0.321055 0)
(0.153199 -0.347228 0)
(0.153332 -0.351202 0)
(0.133826 -0.330484 0)
(0.121308 -0.251404 0)
(0.0965685 -0.197837 0)
(0.0945328 -0.2149 0)
(0.0627205 -0.268223 0)
(0.0498654 -0.362734 0)
(0.189942 -0.0367734 0)
(0.189827 -0.0613777 0)
(0.188306 -0.0864957 0)
(0.185964 -0.112421 0)
(0.182317 -0.138781 0)
(0.177278 -0.165729 0)
(0.171346 -0.193373 0)
(0.1625 -0.220667 0)
(0.155854 -0.25171 0)
(0.144776 -0.276655 0)
(0.137453 -0.313115 0)
(0.133338 -0.349689 0)
(0.145423 -0.351164 0)
(0.134166 -0.322271 0)
(0.125189 -0.229661 0)
(0.0956719 -0.17688 0)
(0.0688103 -0.180392 0)
(0.0466713 -0.244975 0)
(0.0475348 -0.315374 0)
(0.168335 -0.036536 0)
(0.167648 -0.0603028 0)
(0.165725 -0.0845353 0)
(0.162813 -0.109422 0)
(0.158838 -0.134678 0)
(0.153207 -0.160456 0)
(0.146562 -0.186655 0)
(0.138155 -0.213603 0)
(0.12809 -0.242745 0)
(0.118245 -0.268173 0)
(0.107827 -0.309444 0)
(0.101612 -0.356559 0)
(0.10817 -0.362126 0)
(0.0938057 -0.315061 0)
(0.0911125 -0.213218 0)
(0.0517161 -0.155844 0)
(0.0309212 -0.148397 0)
(0.0350665 -0.241647 0)
(0.0437205 -0.265838 0)
(0.14744 -0.0358755 0)
(0.146291 -0.058862 0)
(0.143988 -0.0822191 0)
(0.140718 -0.106137 0)
(0.136252 -0.130229 0)
(0.130387 -0.154809 0)
(0.123213 -0.179658 0)
(0.113911 -0.204628 0)
(0.102585 -0.232307 0)
(0.0889445 -0.25843 0)
(0.0759575 -0.295719 0)
(0.0429248 -0.348348 0)
(0.017298 -0.356588 0)
(-0.0270071 -0.298601 0)
(-0.0138384 -0.203881 0)
(-0.0493581 -0.157579 0)
(0.00394883 -0.152475 0)
(0.0155183 -0.256401 0)
(0.0283759 -0.243034 0)
(0.127254 -0.0348167 0)
(0.125652 -0.0570546 0)
(0.123051 -0.0796042 0)
(0.119507 -0.10254 0)
(0.114838 -0.125613 0)
(0.108815 -0.148731 0)
(0.101256 -0.172314 0)
(0.0913252 -0.194881 0)
(0.0794418 -0.22089 0)
(0.0604018 -0.241669 0)
(0.0398404 -0.27397 0)
(-0.00911508 -0.304195 0)
(-0.0496207 -0.31563 0)
(-0.0896499 -0.275705 0)
(-0.0714907 -0.201844 0)
(-0.0878725 -0.166555 0)
(0.0139236 -0.204264 0)
(0.0047358 -0.256791 0)
(0.0198452 -0.221678 0)
(0.107712 -0.0334351 0)
(0.105763 -0.0549754 0)
(0.102921 -0.0767784 0)
(0.0991952 -0.0988192 0)
(0.0945125 -0.120871 0)
(0.088484 -0.142782 0)
(0.0814595 -0.164723 0)
(0.0709374 -0.18512 0)
(0.0614654 -0.206574 0)
(0.0400929 -0.22255 0)
(0.0196622 -0.239485 0)
(-0.0193225 -0.260634 0)
(-0.0589441 -0.275993 0)
(-0.09328 -0.259443 0)
(-0.0718121 -0.209852 0)
(-0.0599966 -0.197592 0)
(0.0283437 -0.237259 0)
(-0.00890953 -0.247183 0)
(0.0146675 -0.219315 0)
(0.088739 -0.0316891 0)
(0.0864577 -0.0526344 0)
(0.0834581 -0.0737731 0)
(0.0796653 -0.0950317 0)
(0.0751367 -0.116169 0)
(0.0692765 -0.136956 0)
(0.0630916 -0.157346 0)
(0.0528726 -0.175629 0)
(0.0448451 -0.193628 0)
(0.0245807 -0.203763 0)
(0.0165948 -0.218262 0)
(-0.0068555 -0.231641 0)
(-0.0338476 -0.242127 0)
(-0.0609658 -0.250708 0)
(-0.0216877 -0.219672 0)
(0.00132981 -0.22699 0)
(0.0348035 -0.238625 0)
(-0.00589075 -0.2394 0)
(0.0178913 -0.214958 0)
(0.0703139 -0.0297284 0)
(0.0677487 -0.0501772 0)
(0.0646195 -0.0707703 0)
(0.0608882 -0.091451 0)
(0.0566212 -0.111834 0)
(0.0512196 -0.131626 0)
(0.0458421 -0.150517 0)
(0.0356376 -0.16635 0)
(0.0302037 -0.182084 0)
(0.018402 -0.195707 0)
(0.0205586 -0.207775 0)
(0.00370076 -0.222177 0)
(0.018991 -0.226018 0)
(0.00134027 -0.258836 0)
(0.0319863 -0.245254 0)
(0.032622 -0.231991 0)
(0.0479211 -0.22893 0)
(0.00551009 -0.231901 0)
(0.0242801 -0.20903 0)
(0.0522692 -0.027216 0)
(0.0493821 -0.0473285 0)
(0.0461272 -0.06759 0)
(0.0424755 -0.0877424 0)
(0.0384103 -0.107412 0)
(0.0332698 -0.126092 0)
(0.0285104 -0.143909 0)
(0.0224515 -0.160814 0)
(0.0253971 -0.17849 0)
(0.0183028 -0.193781 0)
(0.0286948 -0.203772 0)
(0.0214813 -0.227423 0)
(0.0533445 -0.230438 0)
(0.0477657 -0.251079 0)
(0.0560511 -0.242907 0)
(0.0467033 -0.233401 0)
(0.0598438 -0.219713 0)
(0.0233515 -0.214322 0)
(0.0294755 -0.189655 0)
(0.0345922 -0.0250828 0)
(0.0313721 -0.0448716 0)
(0.0280166 -0.064633 0)
(0.0242306 -0.0841439 0)
(0.0206138 -0.103503 0)
(0.0179827 -0.122705 0)
(0.0196873 -0.142043 0)
(0.0198033 -0.160473 0)
(0.0276154 -0.177766 0)
(0.0257156 -0.196765 0)
(0.0486289 -0.208871 0)
(0.0475841 -0.240276 0)
(0.0657574 -0.243564 0)
(0.0574246 -0.251462 0)
(0.0625356 -0.242078 0)
(0.0500017 -0.232314 0)
(0.0601282 -0.212656 0)
(0.0230495 -0.203356 0)
(0.0267637 -0.166408 0)
(0.0183955 -0.0200739 0)
(0.014124 -0.0401502 0)
(0.0106798 -0.0607884 0)
(0.0091744 -0.0819621 0)
(0.0101992 -0.103473 0)
(0.0123995 -0.125246 0)
(0.0181748 -0.146897 0)
(0.0215969 -0.169735 0)
(0.0369553 -0.188558 0)
(0.0376815 -0.215177 0)
(0.0619973 -0.225771 0)
(0.0549017 -0.245196 0)
(0.0677169 -0.245576 0)
(0.0578642 -0.246527 0)
(0.0619713 -0.234581 0)
(0.0434446 -0.222449 0)
(0.0470339 -0.190632 0)
(0.00619546 -0.177771 0)
(0.0197576 -0.146042 0)
(-0.000269545 -0.0195746 0)
(0.000490133 -0.0405195 0)
(0.00221043 -0.0624066 0)
(0.00476834 -0.0850762 0)
(0.0086052 -0.108171 0)
(0.0130396 -0.131845 0)
(0.0209524 -0.154715 0)
(0.0255759 -0.179689 0)
(0.0412655 -0.198638 0)
(0.0407513 -0.223152 0)
(0.0620196 -0.233236 0)
(0.0550419 -0.246179 0)
(0.0669274 -0.244978 0)
(0.0560329 -0.241452 0)
(0.0590344 -0.226172 0)
(0.0368926 -0.211348 0)
(0.0424131 -0.176237 0)
(0.00480752 -0.164945 0)
(0.0215334 -0.132121 0)
)
;

boundaryField
{
    leftWall
    {
        type            fixedValue;
        value           nonuniform 0();
    }
    rightWall
    {
        type            fixedValue;
        value           uniform (0 0 0);
    }
    lowerWall
    {
        type            fixedValue;
        value           nonuniform 0();
    }
    atmosphere
    {
        type            fluxCorrectedVelocity;
        value           nonuniform List<vector> 
23
(
(2.50995e-05 0.0172578 0)
(7.45426e-06 0.00999623 0)
(-0.000146904 0.00238089 0)
(-0.000298402 -0.0056421 0)
(-0.000269545 -0.0195964 0)
(0.000490133 -0.0405492 0)
(0.00221043 -0.0624422 0)
(0.00476834 -0.0851189 0)
(0.0086052 -0.108224 0)
(0.0130396 -0.131913 0)
(0.0209524 -0.154797 0)
(0.0255759 -0.179794 0)
(0.0412655 -0.198741 0)
(0.0407513 -0.223252 0)
(0.0620196 -0.233309 0)
(0.0550419 -0.24617 0)
(0.0669274 -0.244934 0)
(0.0560329 -0.241373 0)
(0.0590344 -0.22605 0)
(0.0368926 -0.211204 0)
(0.0424131 -0.176047 0)
(0.00480752 -0.164776 0)
(0.0215334 -0.131981 0)
)
;
    }
    defaultFaces
    {
        type            empty;
    }
    procBoundary3to1
    {
        type            processor;
        value           nonuniform List<vector> 
23
(
(1.26268 0.252503 0)
(1.27654 0.215945 0)
(1.31339 0.184588 0)
(1.33909 0.107566 0)
(1.31283 -0.00277998 0)
(1.14779 -0.155282 0)
(0.916338 -0.328083 0)
(0.69148 -0.438801 0)
(0.511461 -0.460057 0)
(0.438921 -0.360989 0)
(0.350189 -0.3029 0)
(0.340171 -0.188577 0)
(0.180395 -0.13887 0)
(0.0337934 -0.257316 0)
(-0.0160899 -0.0960152 0)
(0.278145 0.128776 0)
(0.3673 -0.0109421 0)
(0.679619 -0.544454 0)
(0.775275 -1.11065 0)
(0.678798 -1.39533 0)
(0.53542 -1.38853 0)
(0.281065 -1.29481 0)
(0.139285 -1.5449 0)
)
;
    }
    procBoundary3to2
    {
        type            processor;
        value           nonuniform List<vector> 
25
(
(1.00239 0.0511755 0)
(0.751929 -0.00250631 0)
(0.569895 0.00363322 0)
(0.465696 0.0304423 0)
(0.41697 0.0511298 0)
(0.389433 0.0595684 0)
(0.366575 0.0586157 0)
(0.345001 0.0524478 0)
(0.321696 0.0486249 0)
(0.298065 0.0429588 0)
(0.274504 0.0386751 0)
(0.251514 0.0345449 0)
(0.229257 0.0311158 0)
(0.207664 0.0281686 0)
(0.186781 0.0257608 0)
(0.16658 0.0239131 0)
(0.147028 0.0225799 0)
(0.128132 0.0217325 0)
(0.10984 0.0214412 0)
(0.0920005 0.0215555 0)
(0.074835 0.0219731 0)
(0.0588219 0.0239168 0)
(0.0422497 0.0253381 0)
(0.0265853 0.0283524 0)
(0.000240702 0.028143 0)
)
;
    }
}


// ************************************************************************* //
