/*--------------------------------*- C++ -*----------------------------------*\
| =========                 |                                                 |
| \\      /  F ield         | OpenFOAM: The Open Source CFD Toolbox           |
|  \\    /   O peration     | Version:  2.4.0                                 |
|   \\  /    A nd           | Web:      www.OpenFOAM.org                      |
|    \\/     M anipulation  |                                                 |
\*---------------------------------------------------------------------------*/
FoamFile
{
    version     2.0;
    format      ascii;
    class       volVectorField;
    location    "0.9";
    object      U.water;
}
// * * * * * * * * * * * * * * * * * * * * * * * * * * * * * * * * * * * * * //

dimensions      [0 1 -1 0 0 0 0];

internalField   nonuniform List<vector> 
575
(
(1.07383 0.023657 0)
(1.12481 0.0299715 0)
(1.14834 0.0395032 0)
(1.14541 0.0409502 0)
(0.772156 -0.0146328 0)
(0.779971 -0.00927723 0)
(0.787298 0.0188734 0)
(0.786771 0.0702023 0)
(0.558099 0.00218762 0)
(0.549231 0.0154071 0)
(0.545008 0.0389114 0)
(0.541775 0.0779503 0)
(0.44973 0.0265533 0)
(0.441533 0.0321413 0)
(0.44114 0.0382676 0)
(0.444316 0.0539261 0)
(0.407048 0.0392322 0)
(0.404526 0.0374436 0)
(0.40572 0.0342589 0)
(0.411374 0.0326673 0)
(0.384818 0.0450163 0)
(0.386311 0.0379061 0)
(0.389958 0.0276026 0)
(0.395104 0.0187647 0)
(0.366912 0.0412893 0)
(0.370391 0.0313753 0)
(0.374119 0.0190601 0)
(0.379013 0.00680528 0)
(0.34648 0.0358413 0)
(0.350083 0.0248258 0)
(0.35321 0.0123027 0)
(0.357147 2.86986e-05 0)
(0.323975 0.0306533 0)
(0.326869 0.0193765 0)
(0.329552 0.00697465 0)
(0.3323 -0.00525694 0)
(0.300453 0.0259205 0)
(0.302831 0.0145623 0)
(0.305187 0.00272628 0)
(0.307156 -0.00915001 0)
(0.276728 0.021807 0)
(0.278833 0.0107378 0)
(0.280678 -0.000767333 0)
(0.282335 -0.0123729 0)
(0.253472 0.0181962 0)
(0.255304 0.00734708 0)
(0.25677 -0.00369369 0)
(0.258121 -0.0149681 0)
(0.230911 0.0151533 0)
(0.232482 0.00463027 0)
(0.233553 -0.00606507 0)
(0.234658 -0.0169191 0)
(0.209023 0.0126397 0)
(0.210316 0.00243328 0)
(0.211081 -0.00788713 0)
(0.211918 -0.01836 0)
(0.187821 0.010685 0)
(0.188836 0.000812066 0)
(0.189311 -0.0091639 0)
(0.189899 -0.0192789 0)
(0.167328 0.00926996 0)
(0.16805 -0.000269466 0)
(0.168273 -0.00993598 0)
(0.168633 -0.019693 0)
(0.147494 0.00837499 0)
(0.147916 -0.000864895 0)
(0.147917 -0.0102157 0)
(0.148052 -0.0196625 0)
(0.128292 0.00795617 0)
(0.128434 -0.000999201 0)
(0.128238 -0.0100456 0)
(0.128141 -0.019196 0)
(0.109687 0.00804194 0)
(0.109564 -0.000659005 0)
(0.109181 -0.00944427 0)
(0.108853 -0.0183258 0)
(0.0915598 0.00859752 0)
(0.0912089 0.000152267 0)
(0.0906571 -0.00838865 0)
(0.0901082 -0.0170363 0)
(0.0740042 0.00937549 0)
(0.0733998 0.00121082 0)
(0.0726519 -0.00705439 0)
(0.071896 -0.0154385 0)
(0.057219 0.0113724 0)
(0.056175 0.00322989 0)
(0.0551361 -0.00495735 0)
(0.0540835 -0.0132319 0)
(0.0408133 0.0132376 0)
(0.0396825 0.00528842 0)
(0.0383542 -0.00284031 0)
(0.0369467 -0.0111095 0)
(0.0249723 0.0167084 0)
(0.0237337 0.00911946 0)
(0.0224196 0.00135285 0)
(0.0210235 -0.00652123 0)
(2.50995e-05 0.0172495 0)
(7.45426e-06 0.00999467 0)
(-0.000146904 0.00238732 0)
(-0.000298402 -0.00562891 0)
(1.11368 0.0495339 0)
(1.01493 0.0223666 0)
(0.874029 -0.176365 0)
(0.709086 -0.30778 0)
(0.575838 -0.332722 0)
(0.472203 -0.303996 0)
(0.448627 -0.259082 0)
(0.432844 -0.191306 0)
(0.464374 -0.038049 0)
(0.47837 -0.0866287 0)
(0.386131 -0.229141 0)
(0.486157 -0.175971 0)
(0.653155 -0.272668 0)
(0.878795 -0.651189 0)
(0.890865 -1.04799 0)
(0.720248 -1.2374 0)
(0.539603 -1.22573 0)
(0.297001 -1.1365 0)
(0.186629 -1.28258 0)
(0.769152 0.102463 0)
(0.757702 0.0700035 0)
(0.713895 -0.0813476 0)
(0.642911 -0.216421 0)
(0.557075 -0.250518 0)
(0.500841 -0.252535 0)
(0.476585 -0.230906 0)
(0.478496 -0.203594 0)
(0.517802 -0.179215 0)
(0.63464 -0.134589 0)
(0.735407 -0.11207 0)
(0.77218 -0.171754 0)
(0.873102 -0.306287 0)
(0.944334 -0.650182 0)
(0.914934 -0.959615 0)
(0.691862 -1.10905 0)
(0.501041 -1.06309 0)
(0.235691 -0.972509 0)
(0.0763491 -1.1281 0)
(0.572175 0.102561 0)
(0.599978 0.0582926 0)
(0.615121 -0.0722338 0)
(0.585527 -0.1542 0)
(0.536537 -0.203887 0)
(0.502931 -0.225368 0)
(0.485883 -0.217513 0)
(0.49137 -0.217403 0)
(0.512244 -0.221044 0)
(0.554101 -0.253468 0)
(0.64164 -0.286809 0)
(0.719892 -0.339359 0)
(0.820017 -0.452337 0)
(0.833449 -0.666146 0)
(0.747112 -0.804249 0)
(0.580058 -0.908898 0)
(0.392422 -0.870439 0)
(0.184824 -0.7916 0)
(0.0442693 -1.01281 0)
(0.478261 0.0626318 0)
(0.522363 0.00956198 0)
(0.540085 -0.0645411 0)
(0.528927 -0.131929 0)
(0.506079 -0.18049 0)
(0.48295 -0.203607 0)
(0.478871 -0.218147 0)
(0.484323 -0.230918 0)
(0.506091 -0.241319 0)
(0.538107 -0.283925 0)
(0.565459 -0.315146 0)
(0.650031 -0.363304 0)
(0.659736 -0.462404 0)
(0.670054 -0.615833 0)
(0.614731 -0.758836 0)
(0.494676 -0.812933 0)
(0.315814 -0.740238 0)
(0.157358 -0.690424 0)
(0.0442047 -0.945969 0)
(0.436834 0.026436 0)
(0.474021 -0.0174192 0)
(0.481388 -0.0697103 0)
(0.486257 -0.119454 0)
(0.47234 -0.16208 0)
(0.459829 -0.199088 0)
(0.462598 -0.214742 0)
(0.460021 -0.245422 0)
(0.486169 -0.261174 0)
(0.506367 -0.302076 0)
(0.517484 -0.373702 0)
(0.557599 -0.412235 0)
(0.571121 -0.492014 0)
(0.615381 -0.582556 0)
(0.589975 -0.648898 0)
(0.523626 -0.644919 0)
(0.360863 -0.556268 0)
(0.173638 -0.554577 0)
(0.0731974 -0.835317 0)
(0.411528 0.00192398 0)
(0.435956 -0.0352352 0)
(0.437872 -0.0763445 0)
(0.444012 -0.114964 0)
(0.44065 -0.156729 0)
(0.431273 -0.19574 0)
(0.438265 -0.215375 0)
(0.431045 -0.248178 0)
(0.446029 -0.294481 0)
(0.473954 -0.316895 0)
(0.477915 -0.370789 0)
(0.476336 -0.421087 0)
(0.503397 -0.511453 0)
(0.540906 -0.6111 0)
(0.511967 -0.623995 0)
(0.479952 -0.581447 0)
(0.359205 -0.45941 0)
(0.15744 -0.438607 0)
(0.0400623 -0.719249 0)
(0.387351 -0.013548 0)
(0.40402 -0.044405 0)
(0.40069 -0.0807133 0)
(0.411605 -0.115549 0)
(0.406973 -0.155103 0)
(0.404748 -0.194013 0)
(0.406159 -0.215401 0)
(0.404267 -0.255621 0)
(0.417036 -0.300092 0)
(0.413478 -0.332316 0)
(0.442335 -0.372905 0)
(0.421629 -0.435872 0)
(0.462728 -0.556406 0)
(0.472189 -0.597603 0)
(0.453 -0.576766 0)
(0.404379 -0.478226 0)
(0.214227 -0.281361 0)
(0.0831794 -0.296879 0)
(0.0250781 -0.656927 0)
(0.360775 -0.0220019 0)
(0.373096 -0.0497629 0)
(0.368491 -0.0837273 0)
(0.380174 -0.11746 0)
(0.374824 -0.152669 0)
(0.37418 -0.1923 0)
(0.373742 -0.215985 0)
(0.375496 -0.260311 0)
(0.371237 -0.303227 0)
(0.381876 -0.340411 0)
(0.372786 -0.372706 0)
(0.388413 -0.451949 0)
(0.399804 -0.580647 0)
(0.386497 -0.587256 0)
(0.354672 -0.540472 0)
(0.283384 -0.366305 0)
(0.0650349 -0.163603 0)
(0.0335918 -0.263934 0)
(0.0166602 -0.633424 0)
(0.334969 -0.0271853 0)
(0.341808 -0.0542028 0)
(0.342006 -0.0863917 0)
(0.34615 -0.119747 0)
(0.34608 -0.151637 0)
(0.34401 -0.190742 0)
(0.339876 -0.217993 0)
(0.346266 -0.255319 0)
(0.330298 -0.305312 0)
(0.334089 -0.332149 0)
(0.329055 -0.373948 0)
(0.33686 -0.473346 0)
(0.300045 -0.553869 0)
(0.257695 -0.561313 0)
(0.212579 -0.464291 0)
(0.0858126 -0.213199 0)
(-0.00156672 -0.0817867 0)
(0.0187891 -0.271074 0)
(0.0291205 -0.604222 0)
(0.309269 -0.0302933 0)
(0.313721 -0.0577452 0)
(0.314521 -0.0878278 0)
(0.316814 -0.120024 0)
(0.315336 -0.151715 0)
(0.315105 -0.185649 0)
(0.306676 -0.219213 0)
(0.313075 -0.251775 0)
(0.296536 -0.295392 0)
(0.289212 -0.330156 0)
(0.294076 -0.373422 0)
(0.265327 -0.43489 0)
(0.210792 -0.50938 0)
(0.141144 -0.501457 0)
(0.0811263 -0.349338 0)
(-0.00851874 -0.153822 0)
(-0.00244668 -0.0897003 0)
(0.0454019 -0.291969 0)
(0.0377413 -0.586144 0)
(0.283914 -0.0327992 0)
(0.287107 -0.0600461 0)
(0.287321 -0.089164 0)
(0.288854 -0.119461 0)
(0.285975 -0.151089 0)
(0.285761 -0.18152 0)
(0.278399 -0.217493 0)
(0.275496 -0.24565 0)
(0.269751 -0.285767 0)
(0.250391 -0.324239 0)
(0.246959 -0.355077 0)
(0.216834 -0.399621 0)
(0.172039 -0.450485 0)
(0.0871454 -0.4351 0)
(0.045205 -0.297624 0)
(-0.0142118 -0.144996 0)
(0.0471092 -0.136181 0)
(0.0753731 -0.29699 0)
(0.0596743 -0.51459 0)
(0.259369 -0.0346206 0)
(0.26144 -0.0614653 0)
(0.26135 -0.0894288 0)
(0.261159 -0.118609 0)
(0.25935 -0.148686 0)
(0.255122 -0.179 0)
(0.252662 -0.210401 0)
(0.2415 -0.243179 0)
(0.240788 -0.274504 0)
(0.222525 -0.306636 0)
(0.208589 -0.342588 0)
(0.191296 -0.373145 0)
(0.156355 -0.396026 0)
(0.0834286 -0.381299 0)
(0.052099 -0.259924 0)
(0.02333 -0.162389 0)
(0.0870928 -0.176345 0)
(0.0880715 -0.284522 0)
(0.0480206 -0.46277 0)
(0.235437 -0.0358692 0)
(0.236702 -0.0620479 0)
(0.236124 -0.0890586 0)
(0.235075 -0.117117 0)
(0.23255 -0.145854 0)
(0.228363 -0.174977 0)
(0.22365 -0.205613 0)
(0.21574 -0.234435 0)
(0.208633 -0.268134 0)
(0.196567 -0.294762 0)
(0.185998 -0.326134 0)
(0.168176 -0.353257 0)
(0.153385 -0.360556 0)
(0.106475 -0.339656 0)
(0.088648 -0.242754 0)
(0.0770626 -0.179718 0)
(0.0970386 -0.184273 0)
(0.0796204 -0.262665 0)
(0.0551907 -0.401183 0)
(0.212315 -0.0365774 0)
(0.212828 -0.0619617 0)
(0.211761 -0.088034 0)
(0.209989 -0.115022 0)
(0.20701 -0.14253 0)
(0.202057 -0.170559 0)
(0.197452 -0.199582 0)
(0.187871 -0.22812 0)
(0.18281 -0.259043 0)
(0.169216 -0.284422 0)
(0.161353 -0.320627 0)
(0.153157 -0.345911 0)
(0.153108 -0.347761 0)
(0.133503 -0.319965 0)
(0.120424 -0.234721 0)
(0.0952182 -0.175577 0)
(0.0928341 -0.17815 0)
(0.0614463 -0.248186 0)
(0.049646 -0.353226 0)
(0.189942 -0.0367734 0)
(0.189827 -0.0613777 0)
(0.188306 -0.0864957 0)
(0.185964 -0.112421 0)
(0.182317 -0.138781 0)
(0.177278 -0.165729 0)
(0.171346 -0.193372 0)
(0.1625 -0.220662 0)
(0.155852 -0.251677 0)
(0.14477 -0.276482 0)
(0.137438 -0.312486 0)
(0.133329 -0.347791 0)
(0.145428 -0.345185 0)
(0.134149 -0.310487 0)
(0.124412 -0.214502 0)
(0.0944514 -0.15726 0)
(0.0675534 -0.152295 0)
(0.0458834 -0.229277 0)
(0.0474212 -0.308044 0)
(0.168335 -0.036536 0)
(0.167648 -0.0603028 0)
(0.165725 -0.0845353 0)
(0.162813 -0.109422 0)
(0.158838 -0.134678 0)
(0.153207 -0.160455 0)
(0.146562 -0.186654 0)
(0.138155 -0.213596 0)
(0.128088 -0.242698 0)
(0.118236 -0.26793 0)
(0.107813 -0.308596 0)
(0.101699 -0.353641 0)
(0.108628 -0.352456 0)
(0.0945298 -0.299899 0)
(0.0901336 -0.195007 0)
(0.0501534 -0.126595 0)
(0.0295725 -0.128884 0)
(0.0345325 -0.22926 0)
(0.0436857 -0.262067 0)
(0.14744 -0.0358755 0)
(0.146291 -0.058862 0)
(0.143988 -0.0822191 0)
(0.140718 -0.106137 0)
(0.136252 -0.130229 0)
(0.130387 -0.154809 0)
(0.123213 -0.179657 0)
(0.113911 -0.20462 0)
(0.102583 -0.23225 0)
(0.0889345 -0.258126 0)
(0.0759416 -0.294675 0)
(0.0429068 -0.343922 0)
(0.0177145 -0.343417 0)
(-0.0262529 -0.279511 0)
(-0.0150893 -0.173991 0)
(-0.0535545 -0.110769 0)
(0.0028535 -0.136025 0)
(0.0153732 -0.249394 0)
(0.0283678 -0.240976 0)
(0.127254 -0.0348167 0)
(0.125652 -0.0570546 0)
(0.123051 -0.0796042 0)
(0.119507 -0.10254 0)
(0.114838 -0.125613 0)
(0.108815 -0.148731 0)
(0.101256 -0.172313 0)
(0.0913249 -0.194872 0)
(0.0794398 -0.220832 0)
(0.060392 -0.241362 0)
(0.039821 -0.272877 0)
(-0.00910015 -0.299391 0)
(-0.0492566 -0.301436 0)
(-0.0901377 -0.252763 0)
(-0.0737014 -0.161031 0)
(-0.0891022 -0.128052 0)
(0.0136374 -0.193729 0)
(0.00464858 -0.253244 0)
(0.0198357 -0.220736 0)
(0.107712 -0.0334351 0)
(0.105763 -0.0549754 0)
(0.102921 -0.0767784 0)
(0.0991952 -0.0988192 0)
(0.0945125 -0.120871 0)
(0.0884839 -0.142782 0)
(0.0814594 -0.164722 0)
(0.0709372 -0.185113 0)
(0.0614644 -0.20653 0)
(0.0400903 -0.22234 0)
(0.0196532 -0.238716 0)
(-0.0192755 -0.257353 0)
(-0.0586594 -0.264781 0)
(-0.0935417 -0.244248 0)
(-0.0719771 -0.183763 0)
(-0.059775 -0.184829 0)
(0.028234 -0.231707 0)
(-0.00892917 -0.245838 0)
(0.0146662 -0.218985 0)
(0.088739 -0.0316891 0)
(0.0864577 -0.0526344 0)
(0.0834581 -0.0737731 0)
(0.0796653 -0.0950317 0)
(0.0751367 -0.116169 0)
(0.0692765 -0.136956 0)
(0.0630916 -0.157345 0)
(0.0528725 -0.175624 0)
(0.0448448 -0.193601 0)
(0.0245802 -0.203659 0)
(0.0165912 -0.217899 0)
(-0.00685415 -0.230175 0)
(-0.0336493 -0.235663 0)
(-0.0607911 -0.242385 0)
(-0.0214572 -0.210357 0)
(0.00133269 -0.221427 0)
(0.0347847 -0.236078 0)
(-0.00590395 -0.238916 0)
(0.0178907 -0.214847 0)
(0.0703139 -0.0297284 0)
(0.0677487 -0.0501772 0)
(0.0646195 -0.0707703 0)
(0.0608882 -0.091451 0)
(0.0566212 -0.111834 0)
(0.0512196 -0.131626 0)
(0.0458421 -0.150516 0)
(0.0356376 -0.166347 0)
(0.0302036 -0.182068 0)
(0.0184018 -0.195654 0)
(0.0205578 -0.20764 0)
(0.00370143 -0.221673 0)
(0.0190329 -0.223557 0)
(0.00143769 -0.255765 0)
(0.0319998 -0.24216 0)
(0.03262 -0.229995 0)
(0.0479193 -0.227893 0)
(0.00550264 -0.231668 0)
(0.0242796 -0.208959 0)
(0.0522692 -0.027216 0)
(0.0493821 -0.0473285 0)
(0.0461272 -0.06759 0)
(0.0424755 -0.0877424 0)
(0.0384103 -0.107412 0)
(0.0332698 -0.126092 0)
(0.0285104 -0.143908 0)
(0.0224515 -0.160812 0)
(0.0253971 -0.178479 0)
(0.0183029 -0.193747 0)
(0.0286947 -0.203717 0)
(0.0214819 -0.227291 0)
(0.0533456 -0.229779 0)
(0.0477664 -0.250208 0)
(0.0560466 -0.242055 0)
(0.0466978 -0.232821 0)
(0.0598415 -0.219385 0)
(0.0233487 -0.214181 0)
(0.0294748 -0.189592 0)
(0.0345922 -0.0250828 0)
(0.0313721 -0.0448716 0)
(0.0280166 -0.064633 0)
(0.0242306 -0.0841439 0)
(0.0206138 -0.103503 0)
(0.0179827 -0.122705 0)
(0.0196873 -0.142043 0)
(0.0198033 -0.160471 0)
(0.0276155 -0.177758 0)
(0.0257158 -0.196745 0)
(0.0486289 -0.208849 0)
(0.0475839 -0.240252 0)
(0.0657571 -0.243453 0)
(0.0574236 -0.25128 0)
(0.0625339 -0.241895 0)
(0.0499999 -0.232182 0)
(0.0601266 -0.212564 0)
(0.0230477 -0.20328 0)
(0.0267631 -0.166363 0)
(0.0183955 -0.0200739 0)
(0.014124 -0.0401502 0)
(0.0106798 -0.0607884 0)
(0.0091744 -0.0819621 0)
(0.0101992 -0.103473 0)
(0.0123995 -0.125246 0)
(0.0181748 -0.146896 0)
(0.0215969 -0.169734 0)
(0.0369553 -0.188555 0)
(0.0376815 -0.215171 0)
(0.0619973 -0.225765 0)
(0.0549017 -0.245193 0)
(0.0677168 -0.245565 0)
(0.057864 -0.246501 0)
(0.061971 -0.23455 0)
(0.0434441 -0.222421 0)
(0.0470334 -0.190603 0)
(0.00619511 -0.17774 0)
(0.0197574 -0.14602 0)
(-0.000269545 -0.0195746 0)
(0.000490133 -0.0405195 0)
(0.00221043 -0.0624066 0)
(0.00476834 -0.0850762 0)
(0.0086052 -0.108171 0)
(0.0130396 -0.131845 0)
(0.0209524 -0.154715 0)
(0.0255759 -0.179689 0)
(0.0412655 -0.198638 0)
(0.0407513 -0.223151 0)
(0.0620196 -0.233235 0)
(0.0550419 -0.246179 0)
(0.0669274 -0.244978 0)
(0.0560329 -0.241451 0)
(0.0590344 -0.226169 0)
(0.0368925 -0.211344 0)
(0.042413 -0.17623 0)
(0.00480744 -0.164937 0)
(0.0215333 -0.132116 0)
)
;

boundaryField
{
    leftWall
    {
        type            fixedValue;
        value           nonuniform 0();
    }
    rightWall
    {
        type            fixedValue;
        value           uniform (0 0 0);
    }
    lowerWall
    {
        type            fixedValue;
        value           nonuniform 0();
    }
    atmosphere
    {
        type            fluxCorrectedVelocity;
        value           nonuniform List<vector> 
23
(
(2.50995e-05 0.0172578 0)
(7.45426e-06 0.00999623 0)
(-0.000146904 0.00238089 0)
(-0.000298402 -0.0056421 0)
(-0.000269545 -0.0195964 0)
(0.000490133 -0.0405492 0)
(0.00221043 -0.0624422 0)
(0.00476834 -0.0851189 0)
(0.0086052 -0.108224 0)
(0.0130396 -0.131913 0)
(0.0209524 -0.154797 0)
(0.0255759 -0.179794 0)
(0.0412655 -0.198741 0)
(0.0407513 -0.223252 0)
(0.0620196 -0.233309 0)
(0.0550419 -0.24617 0)
(0.0669274 -0.244934 0)
(0.0560329 -0.241373 0)
(0.0590344 -0.22605 0)
(0.0368925 -0.211204 0)
(0.042413 -0.176047 0)
(0.00480744 -0.164776 0)
(0.0215333 -0.131981 0)
)
;
    }
    defaultFaces
    {
        type            empty;
    }
    procBoundary3to1
    {
        type            processor;
        value           nonuniform List<vector> 
23
(
(1.31205 0.142964 0)
(1.35566 0.095324 0)
(1.35342 0.0698531 0)
(1.33231 0.0242404 0)
(1.2809 -0.0247016 0)
(1.12316 -0.143278 0)
(0.905443 -0.321581 0)
(0.671805 -0.428896 0)
(0.506088 -0.45483 0)
(0.438049 -0.358498 0)
(0.349886 -0.301556 0)
(0.340342 -0.186632 0)
(0.188301 -0.129099 0)
(0.0515369 -0.239609 0)
(-0.000858365 -0.0890916 0)
(0.304322 0.125828 0)
(0.402762 -0.0183001 0)
(0.679263 -0.560622 0)
(0.756604 -1.12624 0)
(0.656689 -1.40127 0)
(0.516332 -1.39287 0)
(0.263032 -1.29584 0)
(0.131197 -1.52564 0)
)
;
    }
    procBoundary3to2
    {
        type            processor;
        value           nonuniform List<vector> 
25
(
(1.0028 0.0347538 0)
(0.756286 -0.00238383 0)
(0.572029 0.00513247 0)
(0.466116 0.0316595 0)
(0.417019 0.0517262 0)
(0.389443 0.0598197 0)
(0.366577 0.0587339 0)
(0.345001 0.0524979 0)
(0.321695 0.0486478 0)
(0.298065 0.0429693 0)
(0.274504 0.0386792 0)
(0.251514 0.0345462 0)
(0.229257 0.0311161 0)
(0.207664 0.0281687 0)
(0.186781 0.0257608 0)
(0.16658 0.0239131 0)
(0.147028 0.0225799 0)
(0.128132 0.0217325 0)
(0.10984 0.0214412 0)
(0.0920005 0.0215555 0)
(0.074835 0.0219731 0)
(0.0588219 0.0239168 0)
(0.0422497 0.0253381 0)
(0.0265853 0.0283524 0)
(0.000240702 0.028143 0)
)
;
    }
}


// ************************************************************************* //
