/*--------------------------------*- C++ -*----------------------------------*\
| =========                 |                                                 |
| \\      /  F ield         | OpenFOAM: The Open Source CFD Toolbox           |
|  \\    /   O peration     | Version:  2.4.0                                 |
|   \\  /    A nd           | Web:      www.OpenFOAM.org                      |
|    \\/     M anipulation  |                                                 |
\*---------------------------------------------------------------------------*/
FoamFile
{
    version     2.0;
    format      ascii;
    class       volScalarField;
    location    "0.2";
    object      alpha.oil;
}
// * * * * * * * * * * * * * * * * * * * * * * * * * * * * * * * * * * * * * //

dimensions      [0 0 0 0 0 0 0];

internalField   nonuniform List<scalar> 
575
(
2.8724e-08
3.29206e-08
1.65364e-08
9.80796e-09
2.71244e-08
2.04377e-08
7.60149e-09
7.71736e-09
1.04528e-08
7.39645e-09
4.94145e-09
3.5539e-09
3.1985e-09
2.29217e-09
1.75439e-09
1.28491e-09
9.59964e-10
6.71055e-10
5.37196e-10
4.02742e-10
2.46617e-10
1.63096e-10
1.33838e-10
1.05113e-10
4.21619e-11
3.19479e-11
2.69838e-11
2.23965e-11
9.26362e-12
5.09697e-12
4.26852e-12
3.78779e-12
2.08012e-12
7.33954e-13
5.43398e-13
5.21528e-13
3.93422e-13
1.05634e-13
5.70076e-14
5.91501e-14
5.39873e-14
1.44234e-14
5.00771e-15
5.6034e-15
5.25273e-15
1.63042e-15
3.75837e-16
4.47768e-16
3.7345e-16
1.43394e-16
2.45773e-17
3.04805e-17
2.02311e-17
9.80484e-18
1.42548e-18
1.78447e-18
8.67471e-19
5.32643e-19
7.4191e-20
9.07127e-20
3.04125e-20
2.36066e-20
3.48227e-21
4.0421e-21
8.95516e-22
8.75574e-22
1.47528e-22
1.59343e-22
2.26555e-23
2.78235e-23
5.64433e-24
5.60653e-24
5.01833e-25
7.73681e-25
1.95547e-25
1.77555e-25
9.88784e-27
1.91909e-26
6.17022e-27
5.1004e-27
1.75496e-28
4.32124e-28
1.78871e-28
1.33811e-28
2.83005e-30
8.97633e-30
4.81784e-30
3.22432e-30
4.16969e-32
1.74742e-31
1.22224e-31
7.16216e-32
5.50924e-34
3.21856e-33
2.96143e-33
1.46854e-33
6.55922e-36
5.84938e-35
7.11954e-35
2.73289e-35
7.25112e-09
7.70896e-10
4.67855e-11
1.45428e-11
1.87458e-11
4.3608e-11
9.08311e-11
1.41587e-10
1.50957e-10
8.54725e-11
3.54987e-11
1.27138e-11
4.62278e-12
1.49024e-12
4.25291e-13
1.05622e-13
2.13726e-14
3.17615e-15
2.39595e-16
4.96509e-09
4.58199e-10
2.27451e-11
5.08719e-12
4.07223e-12
8.65742e-12
1.8245e-11
2.92757e-11
3.09943e-11
1.66847e-11
6.84583e-12
2.368e-12
7.85578e-13
2.33863e-13
6.0725e-14
1.3605e-14
2.46282e-15
3.22829e-16
2.03331e-17
2.36873e-09
2.61765e-10
1.36293e-11
2.5058e-12
1.03198e-12
1.55258e-12
3.25299e-12
5.17567e-12
5.5932e-12
3.0449e-12
1.19468e-12
3.9543e-13
1.21582e-13
3.34095e-14
7.91994e-15
1.60641e-15
2.61364e-16
3.04501e-17
1.63033e-18
8.88376e-10
1.18796e-10
7.22046e-12
1.18742e-12
3.14679e-13
2.61051e-13
5.21943e-13
8.54184e-13
9.14698e-13
4.94267e-13
1.87339e-13
5.94512e-14
1.71276e-14
4.35461e-15
9.46199e-16
1.74428e-16
2.56219e-17
2.66999e-18
1.23306e-19
2.80897e-10
4.29747e-11
3.11466e-12
4.85629e-13
1.01852e-13
4.38222e-14
7.51942e-14
1.25554e-13
1.34993e-13
7.18429e-14
2.65494e-14
8.09338e-15
2.19834e-15
5.18906e-16
1.03811e-16
1.74654e-17
2.32611e-18
2.1805e-19
8.78408e-21
7.55069e-11
1.26145e-11
1.09013e-12
1.67108e-13
3.07105e-14
7.79418e-15
9.8441e-15
1.64478e-14
1.79549e-14
9.40793e-15
3.40534e-15
1.00079e-15
2.57385e-16
5.66399e-17
1.04829e-17
1.61672e-18
1.96057e-19
1.66163e-20
5.88734e-22
1.67015e-11
3.05772e-12
3.13344e-13
4.78419e-14
8.16648e-15
1.47856e-15
1.19912e-15
1.93923e-15
2.15514e-15
1.11341e-15
3.95831e-16
1.12576e-16
2.75205e-17
5.67341e-18
9.76277e-19
1.38662e-19
1.53762e-20
1.18352e-21
3.71143e-23
3.01912e-12
6.23875e-13
7.4224e-14
1.14393e-14
1.88655e-15
2.8403e-16
1.40413e-16
2.07316e-16
2.34031e-16
1.19354e-16
4.17667e-17
1.15348e-17
2.69089e-18
5.2242e-19
8.40027e-20
1.10402e-20
1.1243e-21
7.89227e-23
2.20191e-24
4.44705e-13
1.07391e-13
1.45984e-14
2.3071e-15
3.77331e-16
5.19127e-17
1.63587e-17
2.02639e-17
2.3062e-17
1.16185e-17
4.00931e-18
1.07845e-18
2.41021e-19
4.43012e-20
6.68902e-21
8.17391e-22
7.67813e-23
4.93566e-24
1.23063e-25
5.42534e-14
1.55718e-14
2.41038e-15
3.96578e-16
6.54232e-17
8.67282e-18
1.93458e-18
1.83155e-18
2.06953e-18
1.03014e-18
3.51049e-19
9.22138e-20
1.98174e-20
3.46599e-21
4.93732e-22
5.6365e-23
4.90557e-24
2.89948e-25
6.4876e-27
5.55259e-15
1.90964e-15
3.37764e-16
5.8637e-17
9.87506e-18
1.30041e-18
2.30562e-19
1.5541e-19
1.69827e-19
8.34743e-20
2.81197e-20
7.22978e-21
1.49938e-21
2.50669e-22
3.38383e-23
3.62571e-24
2.9367e-25
1.60258e-26
3.23074e-28
4.82364e-16
1.99626e-16
4.05697e-17
7.51787e-18
1.30516e-18
1.73989e-19
2.69399e-20
1.26068e-20
1.28089e-20
6.20466e-21
2.06726e-21
5.21234e-22
1.04659e-22
1.67938e-23
2.15721e-24
2.17906e-25
1.64981e-26
8.34688e-28
1.52216e-29
3.59438e-17
1.79583e-17
4.21584e-18
8.42142e-19
1.52008e-19
2.07771e-20
2.99576e-21
9.95558e-22
8.93554e-22
4.24763e-22
1.39966e-22
3.46627e-23
6.75852e-24
1.04465e-24
1.28171e-25
1.22566e-26
8.71141e-28
4.10313e-29
6.79597e-31
2.32057e-18
1.40391e-18
3.82401e-19
8.30358e-20
1.57023e-20
2.22114e-21
3.10474e-22
7.74978e-23
5.81112e-23
2.69034e-23
8.7601e-24
2.13331e-24
4.04976e-25
6.04853e-26
7.11273e-27
6.46402e-28
4.33057e-29
1.90673e-30
2.88e-32
1.31071e-19
9.62939e-20
3.05389e-20
7.25995e-21
1.44807e-21
2.13494e-22
2.9657e-23
5.96051e-24
3.55732e-24
1.58472e-24
5.08867e-25
1.21942e-25
2.25881e-26
3.26869e-27
3.69542e-28
3.20297e-29
2.03043e-30
8.39032e-32
1.16042e-33
6.53866e-21
5.84883e-21
2.16553e-21
5.67e-22
1.2e-22
1.85445e-23
2.60043e-24
4.4959e-25
2.07314e-25
8.73413e-26
2.75571e-26
6.49856e-27
1.17671e-27
1.65361e-28
1.80225e-29
1.49458e-30
8.99684e-32
3.50252e-33
4.45338e-35
2.90801e-22
3.17444e-22
1.37494e-22
3.98487e-23
8.99479e-24
1.46365e-24
2.09345e-25
3.28544e-26
1.1643e-26
4.53632e-27
1.39808e-27
3.24219e-28
5.74608e-29
7.85649e-30
8.27459e-31
6.58425e-32
3.77594e-33
1.38986e-34
1.63094e-36
1.16361e-23
1.55324e-23
7.88194e-24
2.53892e-24
6.13921e-25
1.05576e-25
1.55139e-26
2.29941e-27
6.37337e-28
2.23882e-28
6.68191e-29
1.52109e-29
2.64041e-30
3.51787e-31
3.58779e-32
2.74626e-33
1.5048e-34
5.25437e-36
5.71166e-38
4.22684e-25
6.91178e-25
4.11361e-25
1.47755e-25
3.84132e-26
7.00171e-27
1.0626e-27
1.52908e-28
3.42929e-29
1.0599e-29
3.02725e-30
6.74346e-31
1.14652e-31
1.49012e-32
1.47416e-33
1.08785e-34
5.71033e-36
1.89721e-37
1.9171e-39
1.40612e-26
2.82179e-26
1.97104e-26
7.91389e-27
2.21862e-27
4.29595e-28
6.75963e-29
9.62325e-30
1.82095e-30
4.86242e-31
1.30929e-31
2.84011e-32
4.72568e-33
5.99521e-34
5.76103e-35
4.1063e-36
2.06965e-37
6.56073e-39
6.18266e-41
4.32038e-28
1.06629e-27
8.74428e-28
3.93143e-28
1.19117e-28
2.45421e-29
4.01545e-30
5.72808e-31
9.53834e-32
2.18336e-32
5.44873e-33
1.14304e-33
1.85792e-34
2.30097e-35
2.14988e-36
1.4824e-37
7.18828e-39
2.17942e-40
1.92108e-42
1.23618e-29
3.76289e-29
3.62266e-29
1.82561e-29
5.9872e-30
1.31393e-30
2.24004e-31
3.22977e-32
4.9121e-33
9.67856e-34
2.20053e-34
4.42414e-35
7.00359e-36
8.46304e-37
7.69315e-38
5.13806e-39
2.40112e-40
6.97793e-42
5.76877e-44
3.31962e-31
1.25163e-30
1.41415e-30
7.9903e-31
2.83898e-31
6.63952e-32
1.18113e-32
1.73148e-33
2.47823e-34
4.26339e-35
8.70463e-36
1.65872e-36
2.54596e-37
2.9978e-38
2.65152e-39
1.71673e-40
7.74205e-42
2.16048e-43
1.67918e-45
8.42902e-33
3.9569e-32
5.24005e-32
3.31713e-32
1.27687e-32
3.18205e-33
5.91201e-34
8.84858e-35
1.2195e-35
1.87048e-36
3.40023e-37
6.06744e-38
8.97758e-39
1.02797e-39
8.84473e-41
5.55536e-42
2.42068e-43
6.49713e-45
4.75816e-47
2.02964e-34
1.20566e-33
1.87073e-33
1.3248e-33
5.51884e-34
1.46345e-34
2.83797e-35
4.3449e-36
5.85756e-37
8.18946e-38
1.3228e-38
2.18314e-39
3.09061e-40
3.43033e-41
2.86791e-42
1.74714e-43
7.35919e-45
1.90163e-46
1.31458e-48
)
;

boundaryField
{
    leftWall
    {
        type            zeroGradient;
    }
    rightWall
    {
        type            zeroGradient;
    }
    lowerWall
    {
        type            zeroGradient;
    }
    atmosphere
    {
        type            inletOutlet;
        inletValue      uniform 0;
        value           nonuniform List<scalar> 
23
(
6.55922e-36
5.84938e-35
7.11954e-35
2.73289e-35
2.02964e-34
1.20566e-33
1.87073e-33
1.3248e-33
5.51884e-34
1.46345e-34
2.83797e-35
4.3449e-36
5.85756e-37
8.18946e-38
1.3228e-38
2.18314e-39
3.09061e-40
3.43033e-41
2.86791e-42
1.74714e-43
7.35919e-45
1.90163e-46
1.31458e-48
)
;
    }
    defaultFaces
    {
        type            empty;
    }
    procBoundary3to1
    {
        type            processor;
        value           nonuniform List<scalar> 
23
(
7.04076e-08
2.13072e-08
2.1442e-08
9.84099e-09
9.15622e-09
1.53778e-09
2.01918e-10
7.30071e-11
8.89417e-11
1.96431e-10
4.02959e-10
6.11721e-10
6.52407e-10
3.88502e-10
1.71207e-10
6.51042e-11
2.48012e-11
8.62348e-12
2.71212e-12
7.48895e-13
1.70213e-13
2.89318e-14
2.67125e-15
)
;
    }
    procBoundary3to2
    {
        type            processor;
        value           nonuniform List<scalar> 
25
(
1.19259e-07
6.24411e-08
4.71866e-08
4.52574e-08
2.437e-08
5.4705e-09
2.52999e-10
1.2383e-10
1.5481e-11
1.62425e-12
1.33048e-13
8.32487e-15
4.02898e-16
1.54352e-17
4.79693e-19
1.23797e-20
2.70719e-22
5.1028e-24
8.40007e-26
1.21822e-27
1.56045e-29
1.7511e-31
1.68114e-33
1.23003e-35
5.71219e-38
)
;
    }
}


// ************************************************************************* //
