/*--------------------------------*- C++ -*----------------------------------*\
| =========                 |                                                 |
| \\      /  F ield         | OpenFOAM: The Open Source CFD Toolbox           |
|  \\    /   O peration     | Version:  2.4.0                                 |
|   \\  /    A nd           | Web:      www.OpenFOAM.org                      |
|    \\/     M anipulation  |                                                 |
\*---------------------------------------------------------------------------*/
FoamFile
{
    version     2.0;
    format      ascii;
    class       volScalarField;
    location    "0.2";
    object      p;
}
// * * * * * * * * * * * * * * * * * * * * * * * * * * * * * * * * * * * * * //

dimensions      [1 -1 -2 0 0 0 0];

internalField   nonuniform List<scalar> 
575
(
2.9233
2.90988
2.89487
2.87895
2.8179
2.80333
2.78808
2.77247
2.71004
2.69627
2.68161
2.66611
2.59966
2.58781
2.57484
2.5604
2.48859
2.47723
2.46355
2.44992
2.37537
2.36453
2.35275
2.34021
2.2606
2.25033
2.23982
2.22833
2.14367
2.13438
2.12486
2.11469
2.02609
2.01749
2.00881
1.99968
1.90751
1.89961
1.89169
1.88348
1.78805
1.78084
1.77364
1.76625
1.66781
1.66127
1.65474
1.6481
1.54688
1.54098
1.53509
1.52912
1.42536
1.42006
1.41477
1.40943
1.3033
1.29858
1.29386
1.2891
1.18078
1.17661
1.17242
1.16822
1.05784
1.05419
1.05052
1.04683
0.934525
0.931374
0.928198
0.925
0.810875
0.808197
0.805493
0.802766
0.686914
0.684691
0.682439
0.680166
0.562659
0.560874
0.559062
0.557225
0.438128
0.436763
0.435374
0.433964
0.313247
0.31233
0.311376
0.310388
0.188385
0.187789
0.187175
0.186558
0.0626207
0.0625195
0.0624003
0.0622546
2.85243
2.81104
2.76706
2.72322
2.68081
2.64066
2.60556
2.57577
2.55154
2.53399
2.52256
2.51727
2.51726
2.52154
2.52874
2.5373
2.54556
2.55197
2.55544
2.74723
2.71004
2.67082
2.63218
2.59412
2.55929
2.528
2.50128
2.47916
2.46248
2.45087
2.44427
2.44201
2.4433
2.44708
2.45214
2.45726
2.4613
2.46351
2.64207
2.60853
2.57278
2.53808
2.50441
2.47342
2.44529
2.42103
2.40068
2.38477
2.3731
2.36556
2.36163
2.36069
2.36192
2.36439
2.36721
2.36951
2.37075
2.53671
2.50544
2.47314
2.44143
2.41149
2.3835
2.35807
2.33587
2.31701
2.30182
2.2902
2.28202
2.27689
2.27431
2.27366
2.27423
2.27536
2.27642
2.277
2.43013
2.401
2.37128
2.34245
2.31546
2.29
2.26687
2.24646
2.22888
2.2144
2.20292
2.19435
2.18839
2.18464
2.18263
2.18183
2.18173
2.18189
2.18203
2.32059
2.2945
2.26735
2.2411
2.21656
2.19334
2.17219
2.15335
2.13692
2.12313
2.11189
2.10313
2.09663
2.09207
2.08911
2.08733
2.08636
2.08586
2.08564
2.20974
2.18597
2.16139
2.13749
2.11509
2.09386
2.07444
2.057
2.04164
2.02853
2.01762
2.00884
2.00202
1.99694
1.99332
1.99087
1.98928
1.98832
1.98785
2.09778
2.07565
2.05345
2.03172
2.01126
1.99185
1.97398
1.95782
1.94348
1.93105
1.92052
1.91185
1.90491
1.89953
1.8955
1.89259
1.8906
1.88933
1.88869
1.98433
1.96399
1.94375
1.924
1.90532
1.88756
1.87114
1.85617
1.84278
1.83105
1.82097
1.81252
1.80559
1.80008
1.79581
1.79263
1.79038
1.78892
1.78818
1.86961
1.85098
1.83255
1.81458
1.79751
1.78127
1.76618
1.75235
1.73988
1.72885
1.71926
1.71111
1.70432
1.6988
1.69444
1.69113
1.68873
1.68715
1.68635
1.75373
1.73674
1.71999
1.70365
1.68806
1.67323
1.65938
1.64662
1.63504
1.62472
1.61566
1.60787
1.6013
1.59588
1.59154
1.58819
1.58574
1.58411
1.58328
1.63682
1.62139
1.6062
1.59137
1.57717
1.56364
1.55095
1.53922
1.52851
1.51889
1.5104
1.50302
1.49673
1.4915
1.48726
1.48395
1.4815
1.47987
1.47904
1.519
1.50505
1.49132
1.4779
1.465
1.45269
1.44111
1.43035
1.42049
1.41159
1.40367
1.39674
1.39079
1.3858
1.38172
1.37851
1.37613
1.37453
1.37372
1.40038
1.38783
1.37547
1.36336
1.3517
1.34054
1.33002
1.3202
1.31117
1.30298
1.29565
1.28921
1.28364
1.27893
1.27506
1.272
1.26971
1.26818
1.2674
1.28105
1.26983
1.25875
1.2479
1.2374
1.22735
1.21783
1.20893
1.20071
1.19323
1.1865
1.18056
1.17539
1.17101
1.16738
1.1645
1.16235
1.1609
1.16016
1.1611
1.15113
1.14128
1.13161
1.12223
1.11322
1.10468
1.09667
1.08925
1.08247
1.07636
1.07093
1.0662
1.06216
1.05881
1.05614
1.05414
1.05279
1.0521
1.0406
1.03183
1.02314
1.01459
1.00628
0.998291
0.990694
0.983553
0.976921
0.97084
0.96534
0.960442
0.956157
0.952489
0.949438
0.946999
0.945164
0.943926
0.943296
0.919598
0.911971
0.904394
0.896926
0.889653
0.882646
0.875969
0.86968
0.863825
0.858443
0.853563
0.849205
0.845382
0.842101
0.839364
0.837171
0.835519
0.834405
0.833836
0.798158
0.791628
0.785122
0.778698
0.772429
0.766378
0.760602
0.755152
0.750068
0.745385
0.741128
0.737318
0.733969
0.731089
0.728681
0.726749
0.725291
0.724305
0.723803
0.676318
0.670848
0.665379
0.65997
0.65468
0.649567
0.644678
0.640057
0.63574
0.631756
0.628128
0.624875
0.622009
0.619541
0.617475
0.615813
0.614558
0.61371
0.613276
0.554113
0.549669
0.545213
0.540796
0.536469
0.53228
0.52827
0.524475
0.520923
0.517641
0.514648
0.511961
0.50959
0.507545
0.505831
0.504451
0.503407
0.502699
0.502338
0.431567
0.428128
0.424667
0.421229
0.417854
0.414583
0.411449
0.408478
0.405696
0.403121
0.400771
0.398657
0.396791
0.39518
0.393828
0.392738
0.39191
0.391349
0.391062
0.308693
0.306241
0.303764
0.301297
0.29887
0.296516
0.294259
0.29212
0.290115
0.288258
0.286561
0.285033
0.283684
0.282517
0.281538
0.280747
0.280144
0.279736
0.279525
0.185526
0.18405
0.182556
0.181063
0.179587
0.17815
0.176776
0.175475
0.174254
0.173123
0.172088
0.171157
0.170335
0.169626
0.169034
0.168558
0.168195
0.167942
0.16781
0.0619641
0.0614944
0.0610023
0.0605053
0.0600197
0.0595457
0.0590767
0.0586216
0.0581902
0.0577887
0.0574216
0.057092
0.0568019
0.0565529
0.0563475
0.0561911
0.0560895
0.0560166
0.055972
)
;

boundaryField
{
    leftWall
    {
        type            fixedFluxPressure;
        gradient        nonuniform 0();
        value           nonuniform 0();
    }
    rightWall
    {
        type            fixedFluxPressure;
        gradient        uniform 0;
        value           nonuniform List<scalar> 
25
(
2.55544
2.46351
2.37075
2.277
2.18203
2.08564
1.98785
1.88869
1.78818
1.68635
1.58328
1.47904
1.37372
1.2674
1.16016
1.0521
0.943296
0.833836
0.723803
0.613276
0.502338
0.391062
0.279525
0.16781
0.055972
)
;
    }
    lowerWall
    {
        type            fixedFluxPressure;
        gradient        nonuniform 0();
        value           nonuniform 0();
    }
    atmosphere
    {
        type            totalPressure;
        U               U.air;
        phi             phi.air;
        rho             rho;
        psi             none;
        gamma           1;
        p0              uniform 0;
        value           uniform 0;
    }
    defaultFaces
    {
        type            empty;
    }
    procBoundary3to1
    {
        type            processor;
        value           nonuniform List<scalar> 
23
(
3.03184
3.01779
3.00199
2.98557
2.95725
2.91352
2.8625
2.81161
2.76369
2.71692
2.67709
2.64354
2.61671
2.59812
2.58701
2.58347
2.58642
2.59465
2.60641
2.61967
2.6322
2.64188
2.64711
)
;
    }
    procBoundary3to2
    {
        type            processor;
        value           nonuniform List<scalar> 
25
(
2.9411
2.83905
2.7316
2.61898
2.50658
2.39169
2.27692
2.15812
2.03959
1.91989
1.79931
1.67799
1.55605
1.43356
1.31059
1.18721
1.06346
0.939377
0.814991
0.690323
0.565391
0.440216
0.314615
0.189274
0.0627494
)
;
    }
}


// ************************************************************************* //
