/*--------------------------------*- C++ -*----------------------------------*\
| =========                 |                                                 |
| \\      /  F ield         | OpenFOAM: The Open Source CFD Toolbox           |
|  \\    /   O peration     | Version:  2.4.0                                 |
|   \\  /    A nd           | Web:      www.OpenFOAM.org                      |
|    \\/     M anipulation  |                                                 |
\*---------------------------------------------------------------------------*/
FoamFile
{
    version     2.0;
    format      ascii;
    class       surfaceScalarField;
    location    "0.2";
    object      phi;
}
// * * * * * * * * * * * * * * * * * * * * * * * * * * * * * * * * * * * * * //

dimensions      [0 3 -1 0 0 0 0];

internalField   nonuniform List<scalar> 
1102
(
-0.000100953
9.54498e-06
-9.80703e-05
9.98652e-06
-9.5142e-05
1.02276e-05
1.12931e-05
-9.29731e-05
-9.41352e-05
6.14267e-06
-9.07337e-05
6.58505e-06
-8.84998e-05
7.99355e-06
9.64453e-06
-8.68513e-05
-8.58418e-05
3.98455e-06
-8.45737e-05
5.31695e-06
-8.41673e-05
7.58713e-06
8.86227e-06
-8.33851e-05
-8.03489e-05
3.6312e-06
-8.08048e-05
5.77281e-06
-8.0736e-05
7.51829e-06
8.32398e-06
-8.01977e-05
-7.61757e-05
3.256e-06
-7.58144e-05
5.41142e-06
-7.46325e-05
6.33645e-06
7.16252e-06
-7.34711e-05
-7.11501e-05
2.59998e-06
-7.01575e-05
4.41886e-06
-6.91419e-05
5.32086e-06
6.19242e-06
-6.81719e-05
-6.5581e-05
2.02299e-06
-6.45774e-05
3.41521e-06
-6.36028e-05
4.34625e-06
5.17826e-06
-6.25887e-05
-5.99315e-05
1.62328e-06
-5.92757e-05
2.75943e-06
-5.86069e-05
3.67733e-06
4.57508e-06
-5.80037e-05
-5.48207e-05
1.28478e-06
-5.4369e-05
2.30764e-06
-5.39338e-05
3.2421e-06
4.11486e-06
-5.34736e-05
-5.01611e-05
1.04418e-06
-4.98571e-05
2.00363e-06
-4.95257e-05
2.91067e-06
3.7728e-06
-4.91837e-05
-4.5834e-05
8.69192e-07
-4.56084e-05
1.77797e-06
-4.53557e-05
2.65796e-06
3.49316e-06
-4.50761e-05
-4.17715e-05
7.4713e-07
-4.16024e-05
1.60885e-06
-4.13983e-05
2.45376e-06
3.26119e-06
-4.11663e-05
-3.7934e-05
6.64613e-07
-3.78067e-05
1.48151e-06
-3.76423e-05
2.28924e-06
3.06679e-06
-3.74479e-05
-3.42979e-05
6.12051e-07
-3.42037e-05
1.3873e-06
-3.40722e-05
2.15771e-06
2.90501e-06
-3.39104e-05
-3.08415e-05
5.82544e-07
-3.07743e-05
1.32008e-06
-3.06715e-05
2.05492e-06
2.77259e-06
-3.05392e-05
-2.75457e-05
5.71244e-07
-2.7501e-05
1.27535e-06
-2.74237e-05
1.9776e-06
2.66715e-06
-2.73183e-05
-2.43915e-05
5.75063e-07
-2.43663e-05
1.2501e-06
-2.4312e-05
1.92331e-06
2.58694e-06
-2.42318e-05
-2.13608e-05
5.92065e-07
-2.1353e-05
1.24231e-06
-2.13201e-05
1.89041e-06
2.53091e-06
-2.12641e-05
-1.84354e-05
6.21374e-07
-1.84442e-05
1.25104e-06
-1.84319e-05
1.87811e-06
2.49856e-06
-1.83996e-05
-1.55974e-05
6.63046e-07
-1.56227e-05
1.27635e-06
-1.56311e-05
1.88653e-06
2.49038e-06
-1.5623e-05
-1.28283e-05
7.17792e-07
-1.28714e-05
1.31934e-06
-1.29018e-05
1.91693e-06
2.5078e-06
-1.29192e-05
-1.01075e-05
7.91253e-07
-1.01725e-05
1.3844e-06
-1.02281e-05
1.97247e-06
2.55406e-06
-1.02743e-05
-7.4335e-06
8.72461e-07
-7.51272e-06
1.46359e-06
-7.59197e-06
2.05174e-06
2.62965e-06
-7.66754e-06
-4.67542e-06
1.02269e-06
-4.8419e-06
1.63012e-06
-5.00522e-06
2.2151e-06
2.78385e-06
-5.1594e-06
-1.97143e-06
-1.97642e-06
-2.00807e-06
-2.06229e-06
-8.97761e-05
2.9789e-05
-8.7021e-05
3.44013e-05
-8.47998e-05
4.30728e-05
-8.11854e-05
4.69444e-05
-7.8788e-05
5.12718e-05
-7.5906e-05
5.91891e-05
-7.27009e-05
6.30021e-05
-6.92221e-05
6.96343e-05
-6.53068e-05
7.48609e-05
-6.09661e-05
8.05571e-05
-5.61315e-05
8.59246e-05
-5.07882e-05
9.11259e-05
-4.49109e-05
9.60139e-05
-3.84962e-05
0.000100508
-3.15554e-05
0.000104507
-2.41303e-05
0.00010789
-1.62897e-05
0.00011054
-8.17627e-06
0.000112198
0.000110482
-8.46619e-05
2.75995e-05
-8.30978e-05
3.28372e-05
-8.01196e-05
4.00945e-05
-7.64215e-05
4.32463e-05
-7.47136e-05
4.95638e-05
-7.10143e-05
5.54898e-05
-6.81208e-05
6.01086e-05
-6.45307e-05
6.60442e-05
-6.07207e-05
7.10508e-05
-5.64895e-05
7.6326e-05
-5.18422e-05
8.12773e-05
-4.67509e-05
8.60345e-05
-4.12033e-05
9.04663e-05
-3.52032e-05
9.45075e-05
-2.87682e-05
9.80716e-05
-2.19449e-05
0.000101067
-1.47968e-05
0.000103392
-7.42113e-06
0.000104822
0.000103061
-8.09751e-05
2.51895e-05
-7.84687e-05
3.03308e-05
-7.48461e-05
3.64719e-05
-7.22666e-05
4.06668e-05
-7.01601e-05
4.74572e-05
-6.65318e-05
5.18615e-05
-6.37414e-05
5.73182e-05
-6.01517e-05
6.24545e-05
-5.64646e-05
6.73637e-05
-5.23707e-05
7.2232e-05
-4.79268e-05
7.68334e-05
-4.30951e-05
8.12028e-05
-3.78739e-05
8.52451e-05
-3.22701e-05
8.89037e-05
-2.63041e-05
9.21056e-05
-2.00172e-05
9.47799e-05
-1.34689e-05
9.68437e-05
-6.72105e-06
9.8074e-05
9.63396e-05
-7.71816e-05
2.21733e-05
-7.32974e-05
2.64466e-05
-7.03082e-05
3.34826e-05
-6.85131e-05
3.88718e-05
-6.5323e-05
4.4267e-05
-6.24809e-05
4.90194e-05
-5.94725e-05
5.43098e-05
-5.60654e-05
5.90475e-05
-5.24868e-05
6.37851e-05
-4.85625e-05
6.83078e-05
-4.43318e-05
7.26027e-05
-3.97638e-05
7.66348e-05
-3.48618e-05
8.0343e-05
-2.9634e-05
8.36758e-05
-2.41014e-05
8.65731e-05
-1.82978e-05
8.89762e-05
-1.22758e-05
9.08217e-05
-6.11664e-06
9.19148e-05
9.02229e-05
-7.12009e-05
1.99031e-05
-6.84298e-05
2.36755e-05
-6.6307e-05
3.13597e-05
-6.42162e-05
3.6781e-05
-6.09718e-05
4.10226e-05
-5.85e-05
4.65477e-05
-5.54063e-05
5.12161e-05
-5.22127e-05
5.58538e-05
-4.8756e-05
6.03284e-05
-4.50239e-05
6.45757e-05
-4.10134e-05
6.85922e-05
-3.67105e-05
7.23319e-05
-3.21193e-05
7.57519e-05
-2.725e-05
7.88065e-05
-2.2124e-05
8.14472e-05
-1.67738e-05
8.3626e-05
-1.12442e-05
8.52921e-05
-5.60966e-06
8.62802e-05
8.46133e-05
-6.58945e-05
1.76257e-05
-6.40419e-05
2.18229e-05
-6.21586e-05
2.94764e-05
-5.96289e-05
3.42512e-05
-5.70766e-05
3.84703e-05
-5.4511e-05
4.39821e-05
-5.15854e-05
4.82906e-05
-4.85486e-05
5.28171e-05
-4.52513e-05
5.70311e-05
-4.17197e-05
6.10441e-05
-3.79356e-05
6.48081e-05
-3.38966e-05
6.8293e-05
-2.96073e-05
7.14625e-05
-2.50793e-05
7.42785e-05
-2.03339e-05
7.67018e-05
-1.54015e-05
7.86935e-05
-1.03198e-05
8.02104e-05
-5.14422e-06
8.11047e-05
7.9469e-05
-6.10017e-05
1.60387e-05
-5.98201e-05
2.06414e-05
-5.77132e-05
2.73695e-05
-5.53339e-05
3.18719e-05
-5.32254e-05
3.63619e-05
-5.06454e-05
4.14021e-05
-4.79539e-05
4.55991e-05
-4.50615e-05
4.99247e-05
-4.19497e-05
5.39193e-05
-3.86224e-05
5.77167e-05
-3.50686e-05
6.12543e-05
-3.12898e-05
6.45142e-05
-2.7292e-05
6.74646e-05
-2.30876e-05
7.00741e-05
-1.86963e-05
7.23104e-05
-1.41449e-05
7.41421e-05
-9.46701e-06
7.55325e-05
-4.70941e-06
7.6347e-05
7.47596e-05
-5.65245e-05
1.45595e-05
-5.54601e-05
1.95769e-05
-5.3432e-05
2.53414e-05
-5.13529e-05
2.97928e-05
-4.93841e-05
3.43931e-05
-4.69621e-05
3.89802e-05
-4.44704e-05
4.31075e-05
-4.17458e-05
4.72e-05
-3.88296e-05
5.10031e-05
-3.57103e-05
5.45975e-05
-3.23873e-05
5.79313e-05
-2.88637e-05
6.09906e-05
-2.51468e-05
6.37477e-05
-2.12494e-05
6.61767e-05
-1.71898e-05
6.82508e-05
-1.29919e-05
6.99442e-05
-8.68615e-06
7.12267e-05
-4.31484e-06
7.19757e-05
7.04448e-05
-5.23073e-05
1.33931e-05
-5.11555e-05
1.84251e-05
-4.93871e-05
2.3573e-05
-4.7571e-05
2.79767e-05
-4.56682e-05
3.24903e-05
-4.34564e-05
3.67684e-05
-4.11341e-05
4.07852e-05
-3.85939e-05
4.46597e-05
-3.58747e-05
4.82839e-05
-3.29656e-05
5.16884e-05
-2.98714e-05
5.48372e-05
-2.65968e-05
5.77159e-05
-2.31503e-05
6.03013e-05
-1.95449e-05
6.25713e-05
-1.57978e-05
6.45037e-05
-1.19307e-05
6.60771e-05
-7.97048e-06
6.72665e-05
-3.95544e-06
6.79607e-05
6.64894e-05
-4.81973e-05
1.24066e-05
-4.70578e-05
1.72856e-05
-4.55357e-05
2.20508e-05
-4.39215e-05
2.63625e-05
-4.21255e-05
3.06943e-05
-4.0112e-05
3.4755e-05
-3.79517e-05
3.86249e-05
-3.55981e-05
4.23062e-05
-3.30738e-05
4.57596e-05
-3.03737e-05
4.89883e-05
-2.75043e-05
5.19677e-05
-2.44715e-05
5.46831e-05
-2.1285e-05
5.71147e-05
-1.79574e-05
5.92437e-05
-1.4505e-05
6.10513e-05
-1.09476e-05
6.25198e-05
-7.30899e-06
6.36278e-05
-3.62383e-06
6.42755e-05
6.28655e-05
-4.42403e-05
1.15707e-05
-4.31847e-05
1.623e-05
-4.18599e-05
2.0726e-05
-4.04058e-05
2.49084e-05
-3.87503e-05
2.90388e-05
-3.69161e-05
3.29209e-05
-3.49201e-05
3.66289e-05
-3.27499e-05
4.0136e-05
-3.04172e-05
4.34269e-05
-2.79222e-05
4.64933e-05
-2.52718e-05
4.93173e-05
-2.24731e-05
5.18843e-05
-1.95359e-05
5.41775e-05
-1.64726e-05
5.61805e-05
-1.32987e-05
5.78774e-05
-1.00321e-05
5.92532e-05
-6.69419e-06
6.02899e-05
-3.31643e-06
6.08977e-05
5.95491e-05
-4.04522e-05
1.08565e-05
-3.95108e-05
1.52886e-05
-3.83486e-05
1.95639e-05
-3.70364e-05
2.35962e-05
-3.55308e-05
2.75333e-05
-3.3862e-05
3.12521e-05
-3.20312e-05
3.47981e-05
-3.00398e-05
3.81446e-05
-2.78948e-05
4.12819e-05
-2.55999e-05
4.41984e-05
-2.3162e-05
4.68794e-05
-2.0589e-05
4.93112e-05
-1.78907e-05
5.14792e-05
-1.50792e-05
5.3369e-05
-1.21688e-05
5.4967e-05
-9.17618e-06
5.62605e-05
-6.12047e-06
5.72342e-05
-3.03029e-06
5.78076e-05
5.65188e-05
-3.68393e-05
1.02479e-05
-3.60144e-05
1.44637e-05
-3.49929e-05
1.85424e-05
-3.38146e-05
2.2418e-05
-3.2457e-05
2.61758e-05
-3.09444e-05
2.97395e-05
-2.92764e-05
3.31301e-05
-2.74587e-05
3.63268e-05
-2.54969e-05
3.93201e-05
-2.33964e-05
4.20978e-05
-2.11641e-05
4.46472e-05
-1.88084e-05
4.69554e-05
-1.63389e-05
4.90097e-05
-1.37672e-05
5.07973e-05
-1.11068e-05
5.23066e-05
-8.37291e-06
5.35266e-05
-5.58288e-06
5.44442e-05
-2.76269e-06
5.49873e-05
5.37561e-05
-3.33943e-05
9.73168e-06
-3.26798e-05
1.37492e-05
-3.17845e-05
1.76471e-05
-3.07346e-05
2.13681e-05
-2.95195e-05
2.49607e-05
-2.81566e-05
2.83766e-05
-2.66474e-05
3.16209e-05
-2.49981e-05
3.46775e-05
-2.32144e-05
3.75363e-05
-2.13021e-05
4.01856e-05
-1.92686e-05
4.26136e-05
-1.71218e-05
4.48087e-05
-1.48714e-05
4.67593e-05
-1.25285e-05
4.84544e-05
-1.01055e-05
4.98837e-05
-7.61651e-06
5.10375e-05
-5.07729e-06
5.19049e-05
-2.51137e-06
5.24215e-05
5.12447e-05
-3.0106e-05
9.29852e-06
-2.94939e-05
1.3137e-05
-2.87149e-05
1.68682e-05
-2.77881e-05
2.04414e-05
-2.67095e-05
2.38821e-05
-2.5491e-05
2.71581e-05
-2.41358e-05
3.02657e-05
-2.26498e-05
3.31916e-05
-2.10387e-05
3.59252e-05
-1.93087e-05
3.84555e-05
-1.74667e-05
4.07716e-05
-1.55209e-05
4.28629e-05
-1.34804e-05
4.47189e-05
-1.13559e-05
4.63298e-05
-9.15877e-06
4.76866e-05
-6.90206e-06
4.87808e-05
-4.60019e-06
4.96031e-05
-2.27457e-06
5.00958e-05
4.89702e-05
-2.69612e-05
8.94143e-06
-2.64442e-05
1.262e-05
-2.57744e-05
1.61984e-05
-2.4966e-05
1.9633e-05
-2.40182e-05
2.29344e-05
-2.29394e-05
2.60793e-05
-2.17335e-05
2.90597e-05
-2.04058e-05
3.18639e-05
-1.8962e-05
3.44813e-05
-1.7408e-05
3.69015e-05
-1.57508e-05
3.91144e-05
-1.39982e-05
4.11103e-05
-1.2159e-05
4.28797e-05
-1.0243e-05
4.44139e-05
-8.26117e-06
4.57048e-05
-6.22533e-06
4.6745e-05
-4.14867e-06
4.75264e-05
-2.0507e-06
4.79979e-05
4.69195e-05
-2.39461e-05
8.65567e-06
-2.35186e-05
1.21925e-05
-2.29528e-05
1.56326e-05
-2.22588e-05
1.89391e-05
-2.14372e-05
2.21128e-05
-2.04939e-05
2.51359e-05
-1.94327e-05
2.79985e-05
-1.82585e-05
3.06897e-05
-1.69766e-05
3.31993e-05
-1.55928e-05
3.55176e-05
-1.41138e-05
3.76354e-05
-1.2547e-05
3.95435e-05
-1.09009e-05
4.12336e-05
-9.18453e-06
4.26976e-05
-7.40816e-06
4.39284e-05
-5.58269e-06
4.49196e-05
-3.72019e-06
4.56639e-05
-1.83849e-06
4.61161e-05
4.5081e-05
-2.10468e-05
8.43839e-06
-2.07053e-05
1.1851e-05
-2.02398e-05
1.51672e-05
-1.96571e-05
1.83564e-05
-1.89579e-05
2.14136e-05
-1.81463e-05
2.43243e-05
-1.72258e-05
2.70779e-05
-1.62006e-05
2.96645e-05
-1.50756e-05
3.20743e-05
-1.38564e-05
3.42985e-05
-1.25493e-05
3.63283e-05
-1.11615e-05
3.81556e-05
-9.70067e-06
3.97728e-05
-8.17561e-06
4.11725e-05
-6.59567e-06
4.23485e-05
-4.97098e-06
4.32949e-05
-3.31259e-06
4.40055e-05
-1.63677e-06
4.44403e-05
4.34442e-05
-1.82499e-05
8.28869e-06
-1.79926e-05
1.15937e-05
-1.76253e-05
1.47999e-05
-1.71518e-05
1.78829e-05
-1.65722e-05
2.0834e-05
-1.58892e-05
2.36412e-05
-1.51056e-05
2.62943e-05
-1.42252e-05
2.8784e-05
-1.32524e-05
3.11015e-05
-1.21925e-05
3.32386e-05
-1.10514e-05
3.51872e-05
-9.83582e-06
3.69401e-05
-8.55319e-06
3.84902e-05
-7.2116e-06
3.9831e-05
-5.8198e-06
4.09567e-05
-4.38711e-06
4.18622e-05
-2.9237e-06
4.25421e-05
-1.44444e-06
4.2961e-05
4.19997e-05
-1.5542e-05
8.20775e-06
-1.53691e-05
1.14208e-05
-1.50996e-05
1.45304e-05
-1.47343e-05
1.75175e-05
-1.42725e-05
2.03722e-05
-1.37158e-05
2.30844e-05
-1.30663e-05
2.56448e-05
-1.23272e-05
2.80449e-05
-1.15026e-05
3.02769e-05
-1.05973e-05
3.23333e-05
-9.61693e-06
3.42069e-05
-8.56773e-06
3.58909e-05
-7.45664e-06
3.73791e-05
-6.29123e-06
3.86655e-05
-5.07965e-06
3.97451e-05
-3.83054e-06
4.0613e-05
-2.55321e-06
4.12647e-05
-1.26142e-06
4.16692e-05
4.07383e-05
-1.29104e-05
8.19898e-06
-1.28239e-05
1.13344e-05
-1.26527e-05
1.43592e-05
-1.23949e-05
1.72596e-05
-1.20488e-05
2.00262e-05
-1.16151e-05
2.26507e-05
-1.10953e-05
2.5125e-05
-1.04924e-05
2.74421e-05
-9.81025e-06
2.95947e-05
-9.05342e-06
3.15765e-05
-8.22738e-06
3.33808e-05
-7.33816e-06
3.50017e-05
-6.39236e-06
3.64333e-05
-5.3971e-06
3.76703e-05
-4.35997e-06
3.87079e-05
-3.28902e-06
3.95421e-05
-2.19261e-06
4.01683e-05
-1.08309e-06
4.05596e-05
3.96551e-05
-1.03451e-05
8.2698e-06
-1.03516e-05
1.13408e-05
-1.02848e-05
1.42925e-05
-1.01405e-05
1.71154e-05
-9.91635e-06
1.9802e-05
-9.61163e-06
2.23459e-05
-9.22724e-06
2.47407e-05
-8.76509e-06
2.69799e-05
-8.22819e-06
2.90579e-05
-7.62055e-06
3.09689e-05
-6.94699e-06
3.27073e-05
-6.21306e-06
3.42678e-05
-5.4249e-06
3.56451e-05
-4.58914e-06
3.68345e-05
-3.71297e-06
3.78318e-05
-2.80413e-06
3.86332e-05
-1.87086e-06
3.9235e-05
-9.24393e-07
3.96131e-05
3.87307e-05
-7.81689e-06
8.41919e-06
-7.90671e-06
1.14307e-05
-7.92621e-06
1.4312e-05
-7.87076e-06
1.706e-05
-7.73909e-06
1.96704e-05
-7.53261e-06
2.21395e-05
-7.25413e-06
2.44623e-05
-6.90696e-06
2.66328e-05
-6.49508e-06
2.86461e-05
-6.02287e-06
3.04967e-05
-5.49512e-06
3.21796e-05
-4.91691e-06
3.36896e-05
-4.29363e-06
3.50219e-05
-3.63106e-06
3.6172e-05
-2.93585e-06
3.71366e-05
-2.21648e-06
3.79139e-05
-1.47887e-06
3.84974e-05
-7.29722e-07
3.8864e-05
3.8001e-05
-5.48039e-06
8.74023e-06
-5.75129e-06
1.17016e-05
-5.95904e-06
1.45198e-05
-6.09233e-06
1.71933e-05
-6.14288e-06
1.9721e-05
-6.10483e-06
2.21015e-05
-5.97817e-06
2.43357e-05
-5.76856e-06
2.64233e-05
-5.48336e-06
2.83609e-05
-5.13041e-06
3.01438e-05
-4.71743e-06
3.17667e-05
-4.25182e-06
3.32241e-05
-3.74062e-06
3.45108e-05
-3.18999e-06
3.56214e-05
-2.60359e-06
3.65503e-05
-1.98068e-06
3.7291e-05
-1.32853e-06
3.78453e-05
-6.56719e-07
3.81922e-05
3.73443e-05
-2.2518e-06
-2.45136e-06
-2.63254e-06
-2.78129e-06
-2.89061e-06
-2.9575e-06
-2.9788e-06
-2.95089e-06
-2.87194e-06
-2.74214e-06
-2.56353e-06
-2.33954e-06
-2.07462e-06
-1.774e-06
-1.44397e-06
-1.09226e-06
-7.30698e-07
-3.61664e-07
)
;

boundaryField
{
    leftWall
    {
        type            calculated;
        value           nonuniform 0();
    }
    rightWall
    {
        type            calculated;
        value           uniform 0;
    }
    lowerWall
    {
        type            calculated;
        value           nonuniform 0();
    }
    atmosphere
    {
        type            calculated;
        value           nonuniform List<scalar> 
23
(
9.98449e-07
1.63514e-06
2.24679e-06
2.83809e-06
8.92975e-06
1.19012e-05
1.4701e-05
1.73421e-05
1.98303e-05
2.21684e-05
2.4357e-05
2.63954e-05
2.8282e-05
3.00141e-05
3.15881e-05
3.30001e-05
3.42458e-05
3.53208e-05
3.62202e-05
3.69393e-05
3.74838e-05
3.78231e-05
3.69826e-05
)
;
    }
    defaultFaces
    {
        type            empty;
        value           nonuniform 0();
    }
    procBoundary3to1
    {
        type            processor;
        value           nonuniform List<scalar> 
23
(
-1.19553e-05
-1.28694e-05
-1.31558e-05
-1.34622e-05
-3.2986e-05
-3.71564e-05
-4.5294e-05
-5.05589e-05
-5.36692e-05
-6.20712e-05
-6.62071e-05
-7.31132e-05
-7.87762e-05
-8.48979e-05
-9.07591e-05
-9.64693e-05
-0.000101891
-0.000106922
-0.000111447
-0.000115315
-0.000118381
-0.000120311
-0.000118658
)
;
    }
    procBoundary3to2
    {
        type            processor;
        value           nonuniform List<scalar> 
25
(
0.000103363
9.75376e-05
8.79999e-05
8.07023e-05
7.6551e-05
7.18061e-05
6.61581e-05
6.03313e-05
5.51593e-05
5.04018e-05
4.60091e-05
4.18936e-05
3.80166e-05
3.43505e-05
3.0871e-05
2.7557e-05
2.43876e-05
2.13438e-05
1.84061e-05
1.55557e-05
1.27736e-05
1.0034e-05
7.35227e-06
4.5252e-06
1.99572e-06
)
;
    }
}


// ************************************************************************* //
