/*--------------------------------*- C++ -*----------------------------------*\
| =========                 |                                                 |
| \\      /  F ield         | OpenFOAM: The Open Source CFD Toolbox           |
|  \\    /   O peration     | Version:  2.4.0                                 |
|   \\  /    A nd           | Web:      www.OpenFOAM.org                      |
|    \\/     M anipulation  |                                                 |
\*---------------------------------------------------------------------------*/
FoamFile
{
    version     2.0;
    format      ascii;
    class       surfaceScalarField;
    location    "0.2";
    object      phi.water;
}
// * * * * * * * * * * * * * * * * * * * * * * * * * * * * * * * * * * * * * //

dimensions      [0 3 -1 0 0 0 0];

internalField   nonuniform List<scalar> 
1102
(
-0.000100952
9.54496e-06
-9.80692e-05
9.98648e-06
-9.51412e-05
1.02275e-05
1.12931e-05
-9.29724e-05
-9.41338e-05
6.14274e-06
-9.07325e-05
6.58508e-06
-8.84988e-05
7.99358e-06
9.64455e-06
-8.68504e-05
-8.58404e-05
3.98468e-06
-8.45725e-05
5.31705e-06
-8.41662e-05
7.58721e-06
8.86233e-06
-8.33841e-05
-8.03476e-05
3.63139e-06
-8.08036e-05
5.77296e-06
-8.07349e-05
7.51841e-06
8.32408e-06
-8.01968e-05
-7.61747e-05
3.25622e-06
-7.58133e-05
5.41161e-06
-7.46316e-05
6.3366e-06
7.16265e-06
-7.34702e-05
-7.11491e-05
2.60021e-06
-7.01566e-05
4.41907e-06
-6.91412e-05
5.32103e-06
6.19257e-06
-6.81711e-05
-6.55804e-05
2.02322e-06
-6.45768e-05
3.41541e-06
-6.36022e-05
4.34643e-06
5.17842e-06
-6.25881e-05
-5.9931e-05
1.6235e-06
-5.92753e-05
2.75963e-06
-5.86064e-05
3.6775e-06
4.57524e-06
-5.80033e-05
-5.48205e-05
1.28498e-06
-5.43687e-05
2.30783e-06
-5.39335e-05
3.24227e-06
4.11501e-06
-5.34733e-05
-5.01609e-05
1.04436e-06
-4.98569e-05
2.0038e-06
-4.95255e-05
2.91083e-06
3.77295e-06
-4.91835e-05
-4.58339e-05
8.69357e-07
-4.56083e-05
1.77813e-06
-4.53556e-05
2.6581e-06
3.4933e-06
-4.50759e-05
-4.17713e-05
7.47275e-07
-4.16023e-05
1.60899e-06
-4.13981e-05
2.4539e-06
3.26132e-06
-4.11662e-05
-3.79339e-05
6.64746e-07
-3.78066e-05
1.48164e-06
-3.76421e-05
2.28937e-06
3.06691e-06
-3.74478e-05
-3.42978e-05
6.12165e-07
-3.42036e-05
1.38741e-06
-3.40721e-05
2.15782e-06
2.90512e-06
-3.39103e-05
-3.08414e-05
5.82649e-07
-3.07742e-05
1.32019e-06
-3.06714e-05
2.05502e-06
2.77268e-06
-3.0539e-05
-2.75456e-05
5.71335e-07
-2.75009e-05
1.27544e-06
-2.74236e-05
1.97769e-06
2.66724e-06
-2.73182e-05
-2.43914e-05
5.75151e-07
-2.43662e-05
1.25019e-06
-2.43119e-05
1.92339e-06
2.58702e-06
-2.42317e-05
-2.13607e-05
5.92139e-07
-2.13529e-05
1.24238e-06
-2.132e-05
1.89049e-06
2.53098e-06
-2.1264e-05
-1.84353e-05
6.21447e-07
-1.84441e-05
1.25112e-06
-1.84318e-05
1.87818e-06
2.49863e-06
-1.83995e-05
-1.55973e-05
6.63107e-07
-1.56226e-05
1.27641e-06
-1.56311e-05
1.88659e-06
2.49044e-06
-1.56229e-05
-1.28283e-05
7.17857e-07
-1.28713e-05
1.3194e-06
-1.29017e-05
1.91698e-06
2.50786e-06
-1.29191e-05
-1.01074e-05
7.91306e-07
-1.01724e-05
1.38445e-06
-1.0228e-05
1.97252e-06
2.55411e-06
-1.02743e-05
-7.43343e-06
8.72519e-07
-7.51265e-06
1.46365e-06
-7.59192e-06
2.05179e-06
2.62969e-06
-7.6675e-06
-4.67537e-06
1.02272e-06
-4.84187e-06
1.63015e-06
-5.0052e-06
2.21512e-06
2.78387e-06
-5.15938e-06
-1.97142e-06
-1.97641e-06
-2.00807e-06
-2.06229e-06
-8.97756e-05
2.97891e-05
-8.70206e-05
3.44014e-05
-8.47996e-05
4.3073e-05
-8.11852e-05
4.69447e-05
-7.87877e-05
5.12721e-05
-7.59057e-05
5.91895e-05
-7.27006e-05
6.30024e-05
-6.92217e-05
6.96345e-05
-6.53064e-05
7.4861e-05
-6.09657e-05
8.05571e-05
-5.61311e-05
8.59245e-05
-5.07878e-05
9.11256e-05
-4.49105e-05
9.60135e-05
-3.84959e-05
0.000100507
-3.15552e-05
0.000104506
-2.41302e-05
0.000107889
-1.62896e-05
0.000110539
-8.1762e-06
0.000112197
0.000110481
-8.46612e-05
2.75996e-05
-8.30973e-05
3.28373e-05
-8.01192e-05
4.00947e-05
-7.64212e-05
4.32466e-05
-7.47133e-05
4.95641e-05
-7.1014e-05
5.54901e-05
-6.81205e-05
6.01089e-05
-6.45305e-05
6.60444e-05
-6.07204e-05
7.10509e-05
-5.64893e-05
7.6326e-05
-5.1842e-05
8.12772e-05
-4.67506e-05
8.60343e-05
-4.12031e-05
9.0466e-05
-3.5203e-05
9.45071e-05
-2.87681e-05
9.80711e-05
-2.19448e-05
0.000101066
-1.47967e-05
0.000103391
-7.42106e-06
0.000104821
0.00010306
-8.09743e-05
2.51896e-05
-7.84681e-05
3.03309e-05
-7.48456e-05
3.6472e-05
-7.22663e-05
4.0667e-05
-7.01598e-05
4.74574e-05
-6.65316e-05
5.18618e-05
-6.37412e-05
5.73184e-05
-6.01515e-05
6.24547e-05
-5.64644e-05
6.73638e-05
-5.23705e-05
7.22321e-05
-4.79266e-05
7.68334e-05
-4.30949e-05
8.12027e-05
-3.78738e-05
8.52449e-05
-3.227e-05
8.89034e-05
-2.63041e-05
9.21053e-05
-2.00172e-05
9.47795e-05
-1.34689e-05
9.68433e-05
-6.72099e-06
9.80736e-05
9.63392e-05
-7.71808e-05
2.21735e-05
-7.32968e-05
2.64468e-05
-7.03077e-05
3.34827e-05
-6.85127e-05
3.88719e-05
-6.53226e-05
4.42672e-05
-6.24806e-05
4.90196e-05
-5.94722e-05
5.431e-05
-5.60652e-05
5.90476e-05
-5.24866e-05
6.37852e-05
-4.85624e-05
6.83078e-05
-4.43317e-05
7.26027e-05
-3.97637e-05
7.66347e-05
-3.48617e-05
8.03429e-05
-2.96339e-05
8.36757e-05
-2.41013e-05
8.65728e-05
-1.82977e-05
8.8976e-05
-1.22758e-05
9.08214e-05
-6.1166e-06
9.19146e-05
9.02226e-05
-7.12002e-05
1.99034e-05
-6.84292e-05
2.36757e-05
-6.63065e-05
3.13599e-05
-6.42158e-05
3.67811e-05
-6.09714e-05
4.10228e-05
-5.84997e-05
4.65478e-05
-5.54061e-05
5.12163e-05
-5.22125e-05
5.58539e-05
-4.87558e-05
6.03285e-05
-4.50238e-05
6.45757e-05
-4.10132e-05
6.85922e-05
-3.67104e-05
7.23319e-05
-3.21192e-05
7.57517e-05
-2.72499e-05
7.88063e-05
-2.2124e-05
8.1447e-05
-1.67738e-05
8.36258e-05
-1.12442e-05
8.52919e-05
-5.60962e-06
8.628e-05
8.46131e-05
-6.58938e-05
1.7626e-05
-6.40413e-05
2.18231e-05
-6.21581e-05
2.94766e-05
-5.96284e-05
3.42514e-05
-5.70762e-05
3.84705e-05
-5.45107e-05
4.39822e-05
-5.15852e-05
4.82907e-05
-4.85484e-05
5.28171e-05
-4.52511e-05
5.70311e-05
-4.17196e-05
6.10441e-05
-3.79355e-05
6.48081e-05
-3.38966e-05
6.82929e-05
-2.96072e-05
7.14624e-05
-2.50793e-05
7.42784e-05
-2.03339e-05
7.67016e-05
-1.54014e-05
7.86934e-05
-1.03198e-05
8.02103e-05
-5.1442e-06
8.11045e-05
7.94689e-05
-6.10011e-05
1.6039e-05
-5.98196e-05
2.06416e-05
-5.77128e-05
2.73697e-05
-5.53335e-05
3.1872e-05
-5.32251e-05
3.6362e-05
-5.06451e-05
4.14022e-05
-4.79537e-05
4.55992e-05
-4.50613e-05
4.99247e-05
-4.19496e-05
5.39194e-05
-3.86223e-05
5.77167e-05
-3.50685e-05
6.12543e-05
-3.12898e-05
6.45142e-05
-2.7292e-05
6.74646e-05
-2.30876e-05
7.00741e-05
-1.86963e-05
7.23103e-05
-1.41449e-05
7.4142e-05
-9.46701e-06
7.55324e-05
-4.70939e-06
7.6347e-05
7.47595e-05
-5.65241e-05
1.45598e-05
-5.54597e-05
1.95772e-05
-5.34316e-05
2.53416e-05
-5.13525e-05
2.97929e-05
-4.93838e-05
3.43932e-05
-4.69618e-05
3.89803e-05
-4.44702e-05
4.31075e-05
-4.17456e-05
4.72001e-05
-3.88294e-05
5.10032e-05
-3.57102e-05
5.45975e-05
-3.23872e-05
5.79313e-05
-2.88636e-05
6.09905e-05
-2.51467e-05
6.37477e-05
-2.12494e-05
6.61767e-05
-1.71898e-05
6.82508e-05
-1.29919e-05
6.99442e-05
-8.68614e-06
7.12266e-05
-4.31483e-06
7.19757e-05
7.04447e-05
-5.23069e-05
1.33934e-05
-5.11551e-05
1.84254e-05
-4.93868e-05
2.35732e-05
-4.75707e-05
2.79768e-05
-4.56679e-05
3.24905e-05
-4.34562e-05
3.67685e-05
-4.1134e-05
4.07853e-05
-3.85937e-05
4.46598e-05
-3.58746e-05
4.8284e-05
-3.29655e-05
5.16884e-05
-2.98714e-05
5.48372e-05
-2.65967e-05
5.77159e-05
-2.31503e-05
6.03012e-05
-1.95449e-05
6.25713e-05
-1.57978e-05
6.45036e-05
-1.19307e-05
6.60771e-05
-7.97049e-06
6.72664e-05
-3.95542e-06
6.79606e-05
6.64893e-05
-4.8197e-05
1.24069e-05
-4.70575e-05
1.72859e-05
-4.55354e-05
2.20511e-05
-4.39213e-05
2.63627e-05
-4.21252e-05
3.06944e-05
-4.01118e-05
3.47551e-05
-3.79515e-05
3.8625e-05
-3.5598e-05
4.23063e-05
-3.30737e-05
4.57596e-05
-3.03736e-05
4.89883e-05
-2.75042e-05
5.19677e-05
-2.44715e-05
5.46831e-05
-2.12849e-05
5.71147e-05
-1.79574e-05
5.92437e-05
-1.4505e-05
6.10513e-05
-1.09476e-05
6.25197e-05
-7.30899e-06
6.36278e-05
-3.62383e-06
6.42755e-05
6.28655e-05
-4.424e-05
1.1571e-05
-4.31844e-05
1.62302e-05
-4.18596e-05
2.07263e-05
-4.04055e-05
2.49086e-05
-3.87501e-05
2.90389e-05
-3.6916e-05
3.2921e-05
-3.492e-05
3.66289e-05
-3.27498e-05
4.01361e-05
-3.04171e-05
4.34269e-05
-2.79222e-05
4.64933e-05
-2.52718e-05
4.93173e-05
-2.2473e-05
5.18843e-05
-1.95358e-05
5.41775e-05
-1.64726e-05
5.61805e-05
-1.32987e-05
5.78774e-05
-1.00321e-05
5.92531e-05
-6.6942e-06
6.02899e-05
-3.31642e-06
6.08977e-05
5.95491e-05
-4.0452e-05
1.08568e-05
-3.95106e-05
1.52888e-05
-3.83484e-05
1.95641e-05
-3.70362e-05
2.35964e-05
-3.55307e-05
2.75334e-05
-3.38619e-05
3.12522e-05
-3.20311e-05
3.47981e-05
-3.00397e-05
3.81446e-05
-2.78947e-05
4.12819e-05
-2.55998e-05
4.41984e-05
-2.3162e-05
4.68794e-05
-2.05889e-05
4.93112e-05
-1.78906e-05
5.14792e-05
-1.50792e-05
5.3369e-05
-1.21688e-05
5.4967e-05
-9.17617e-06
5.62605e-05
-6.12047e-06
5.72342e-05
-3.03029e-06
5.78075e-05
5.65188e-05
-3.68391e-05
1.02481e-05
-3.60142e-05
1.44639e-05
-3.49927e-05
1.85426e-05
-3.38144e-05
2.24181e-05
-3.24569e-05
2.61759e-05
-3.09443e-05
2.97396e-05
-2.92763e-05
3.31302e-05
-2.74586e-05
3.63269e-05
-2.54968e-05
3.93201e-05
-2.33963e-05
4.20978e-05
-2.11641e-05
4.46472e-05
-1.88083e-05
4.69554e-05
-1.63388e-05
4.90097e-05
-1.37672e-05
5.07973e-05
-1.11068e-05
5.23066e-05
-8.37291e-06
5.35265e-05
-5.58289e-06
5.44441e-05
-2.76269e-06
5.49873e-05
5.37561e-05
-3.33941e-05
9.73192e-06
-3.26797e-05
1.37494e-05
-3.17844e-05
1.76473e-05
-3.07345e-05
2.13682e-05
-2.95194e-05
2.49609e-05
-2.81565e-05
2.83766e-05
-2.66473e-05
3.1621e-05
-2.4998e-05
3.46776e-05
-2.32143e-05
3.75363e-05
-2.13021e-05
4.01856e-05
-1.92685e-05
4.26136e-05
-1.71217e-05
4.48087e-05
-1.48714e-05
4.67593e-05
-1.25285e-05
4.84544e-05
-1.01055e-05
4.98836e-05
-7.61652e-06
5.10375e-05
-5.07729e-06
5.19049e-05
-2.51138e-06
5.24214e-05
5.12447e-05
-3.01059e-05
9.29874e-06
-2.94937e-05
1.31372e-05
-2.87148e-05
1.68683e-05
-2.7788e-05
2.04415e-05
-2.67094e-05
2.38822e-05
-2.54909e-05
2.71581e-05
-2.41357e-05
3.02657e-05
-2.26498e-05
3.31916e-05
-2.10387e-05
3.59252e-05
-1.93086e-05
3.84555e-05
-1.74666e-05
4.07716e-05
-1.55208e-05
4.28628e-05
-1.34804e-05
4.47189e-05
-1.13558e-05
4.63298e-05
-9.15876e-06
4.76866e-05
-6.90207e-06
4.87808e-05
-4.6002e-06
4.9603e-05
-2.27457e-06
5.00958e-05
4.89701e-05
-2.69611e-05
8.94163e-06
-2.6444e-05
1.26201e-05
-2.57743e-05
1.61986e-05
-2.49659e-05
1.96331e-05
-2.40182e-05
2.29344e-05
-2.29394e-05
2.60793e-05
-2.17334e-05
2.90598e-05
-2.04058e-05
3.18639e-05
-1.89619e-05
3.44813e-05
-1.74079e-05
3.69015e-05
-1.57507e-05
3.91144e-05
-1.39981e-05
4.11102e-05
-1.21589e-05
4.28797e-05
-1.0243e-05
4.44139e-05
-8.26118e-06
4.57047e-05
-6.22534e-06
4.6745e-05
-4.14867e-06
4.75264e-05
-2.05071e-06
4.79978e-05
4.69194e-05
-2.39459e-05
8.65585e-06
-2.35185e-05
1.21927e-05
-2.29527e-05
1.56328e-05
-2.22587e-05
1.89392e-05
-2.14371e-05
2.21128e-05
-2.04938e-05
2.5136e-05
-1.94326e-05
2.79985e-05
-1.82584e-05
3.06897e-05
-1.69765e-05
3.31993e-05
-1.55927e-05
3.55177e-05
-1.41137e-05
3.76354e-05
-1.2547e-05
3.95435e-05
-1.09008e-05
4.12335e-05
-9.18453e-06
4.26976e-05
-7.40816e-06
4.39284e-05
-5.5827e-06
4.49195e-05
-3.72021e-06
4.56639e-05
-1.83849e-06
4.61161e-05
4.50809e-05
-2.10467e-05
8.43855e-06
-2.07052e-05
1.18512e-05
-2.02397e-05
1.51673e-05
-1.96571e-05
1.83565e-05
-1.89579e-05
2.14136e-05
-1.81462e-05
2.43243e-05
-1.72257e-05
2.7078e-05
-1.62005e-05
2.96645e-05
-1.50755e-05
3.20743e-05
-1.38563e-05
3.42985e-05
-1.25493e-05
3.63283e-05
-1.11614e-05
3.81556e-05
-9.70066e-06
3.97727e-05
-8.17561e-06
4.11725e-05
-6.59569e-06
4.23484e-05
-4.971e-06
4.32948e-05
-3.3126e-06
4.40055e-05
-1.63679e-06
4.44403e-05
4.34441e-05
-1.82498e-05
8.28883e-06
-1.79925e-05
1.15939e-05
-1.76252e-05
1.48e-05
-1.71517e-05
1.78829e-05
-1.65721e-05
2.0834e-05
-1.58891e-05
2.36413e-05
-1.51055e-05
2.62944e-05
-1.42251e-05
2.87841e-05
-1.32523e-05
3.11015e-05
-1.21924e-05
3.32386e-05
-1.10514e-05
3.51872e-05
-9.8358e-06
3.69401e-05
-8.55319e-06
3.84901e-05
-7.21161e-06
3.98309e-05
-5.81981e-06
4.09566e-05
-4.38713e-06
4.18621e-05
-2.92373e-06
4.2542e-05
-1.44444e-06
4.2961e-05
4.19997e-05
-1.55419e-05
8.20787e-06
-1.5369e-05
1.1421e-05
-1.50996e-05
1.45305e-05
-1.47342e-05
1.75176e-05
-1.42725e-05
2.03723e-05
-1.37157e-05
2.30845e-05
-1.30662e-05
2.56448e-05
-1.23271e-05
2.8045e-05
-1.15025e-05
3.0277e-05
-1.05973e-05
3.23333e-05
-9.61691e-06
3.42068e-05
-8.56772e-06
3.58909e-05
-7.45664e-06
3.7379e-05
-6.29124e-06
3.86655e-05
-5.07967e-06
3.9745e-05
-3.83056e-06
4.0613e-05
-2.55322e-06
4.12647e-05
-1.26144e-06
4.16692e-05
4.07382e-05
-1.29104e-05
8.1991e-06
-1.28239e-05
1.13345e-05
-1.26527e-05
1.43593e-05
-1.23948e-05
1.72597e-05
-1.20488e-05
2.00262e-05
-1.1615e-05
2.26507e-05
-1.10953e-05
2.51251e-05
-1.04924e-05
2.74421e-05
-9.81021e-06
2.95948e-05
-9.05339e-06
3.15765e-05
-8.22736e-06
3.33808e-05
-7.33815e-06
3.50017e-05
-6.39237e-06
3.64332e-05
-5.39711e-06
3.76702e-05
-4.35999e-06
3.87079e-05
-3.28904e-06
3.9542e-05
-2.19265e-06
4.01683e-05
-1.08309e-06
4.05596e-05
3.96551e-05
-1.03451e-05
8.26991e-06
-1.03515e-05
1.13409e-05
-1.02847e-05
1.42926e-05
-1.01405e-05
1.71155e-05
-9.91631e-06
1.9802e-05
-9.61158e-06
2.2346e-05
-9.22719e-06
2.47407e-05
-8.76505e-06
2.69799e-05
-8.22816e-06
2.90579e-05
-7.62053e-06
3.09688e-05
-6.94698e-06
3.27073e-05
-6.21306e-06
3.42677e-05
-5.42491e-06
3.56451e-05
-4.58915e-06
3.68345e-05
-3.71299e-06
3.78317e-05
-2.80416e-06
3.86332e-05
-1.87089e-06
3.9235e-05
-9.24399e-07
3.96131e-05
3.87307e-05
-7.81685e-06
8.41927e-06
-7.90667e-06
1.14307e-05
-7.92617e-06
1.43121e-05
-7.87073e-06
1.706e-05
-7.73905e-06
1.96704e-05
-7.53257e-06
2.21395e-05
-7.2541e-06
2.44622e-05
-6.90694e-06
2.66328e-05
-6.49506e-06
2.8646e-05
-6.02286e-06
3.04966e-05
-5.49512e-06
3.21795e-05
-4.91691e-06
3.36895e-05
-4.29363e-06
3.50218e-05
-3.63107e-06
3.61719e-05
-2.93586e-06
3.71365e-05
-2.2165e-06
3.79138e-05
-1.47889e-06
3.84973e-05
-7.29733e-07
3.88639e-05
3.80009e-05
-5.48037e-06
8.74025e-06
-5.75126e-06
1.17016e-05
-5.95902e-06
1.45198e-05
-6.09231e-06
1.71933e-05
-6.14286e-06
1.97209e-05
-6.1048e-06
2.21015e-05
-5.97815e-06
2.43356e-05
-5.76855e-06
2.64232e-05
-5.48335e-06
2.83608e-05
-5.13041e-06
3.01437e-05
-4.71742e-06
3.17665e-05
-4.25182e-06
3.32239e-05
-3.74063e-06
3.45106e-05
-3.19e-06
3.56213e-05
-2.60361e-06
3.65501e-05
-1.98069e-06
3.72909e-05
-1.32855e-06
3.78452e-05
-6.5673e-07
3.81921e-05
3.73442e-05
-2.25179e-06
-2.45135e-06
-2.63253e-06
-2.78128e-06
-2.89061e-06
-2.95749e-06
-2.97879e-06
-2.95089e-06
-2.87194e-06
-2.74214e-06
-2.56353e-06
-2.33954e-06
-2.07462e-06
-1.774e-06
-1.44397e-06
-1.09226e-06
-7.30705e-07
-3.61668e-07
)
;

boundaryField
{
    leftWall
    {
        type            fixedValue;
        value           nonuniform 0();
    }
    rightWall
    {
        type            fixedValue;
        value           uniform 0;
    }
    lowerWall
    {
        type            fixedValue;
        value           nonuniform 0();
    }
    atmosphere
    {
        type            calculated;
        value           nonuniform List<scalar> 
23
(
9.98456e-07
1.63514e-06
2.24679e-06
2.83809e-06
8.92975e-06
1.19012e-05
1.4701e-05
1.73421e-05
1.98303e-05
2.21684e-05
2.43569e-05
2.63953e-05
2.82819e-05
3.00139e-05
3.15879e-05
3.3e-05
3.42457e-05
3.53207e-05
3.62201e-05
3.69392e-05
3.74837e-05
3.7823e-05
3.69825e-05
)
;
    }
    defaultFaces
    {
        type            empty;
        value           nonuniform 0();
    }
    procBoundary3to1
    {
        type            processor;
        value           nonuniform List<scalar> 
23
(
-1.19553e-05
-1.28694e-05
-1.31558e-05
-1.34622e-05
-3.29863e-05
-3.71568e-05
-4.52945e-05
-5.05594e-05
-5.36698e-05
-6.20717e-05
-6.62075e-05
-7.31134e-05
-7.87763e-05
-8.48978e-05
-9.07588e-05
-9.64689e-05
-0.000101891
-0.000106922
-0.000111446
-0.000115314
-0.00011838
-0.00012031
-0.000118657
)
;
    }
    procBoundary3to2
    {
        type            processor;
        value           nonuniform List<scalar> 
25
(
0.000103362
9.7536e-05
8.79984e-05
8.0701e-05
7.65499e-05
7.18052e-05
6.61574e-05
6.03308e-05
5.51589e-05
5.04015e-05
4.60088e-05
4.18934e-05
3.80164e-05
3.43503e-05
3.08708e-05
2.75568e-05
2.43875e-05
2.13436e-05
1.8406e-05
1.55556e-05
1.27735e-05
1.00339e-05
7.3522e-06
4.52516e-06
1.99569e-06
)
;
    }
}


// ************************************************************************* //
