/*--------------------------------*- C++ -*----------------------------------*\
| =========                 |                                                 |
| \\      /  F ield         | OpenFOAM: The Open Source CFD Toolbox           |
|  \\    /   O peration     | Version:  2.4.0                                 |
|   \\  /    A nd           | Web:      www.OpenFOAM.org                      |
|    \\/     M anipulation  |                                                 |
\*---------------------------------------------------------------------------*/
FoamFile
{
    version     2.0;
    format      ascii;
    class       volVectorField;
    location    "0.2";
    object      U;
}
// * * * * * * * * * * * * * * * * * * * * * * * * * * * * * * * * * * * * * //

dimensions      [0 1 -1 0 0 0 0];

internalField   nonuniform List<vector> 
575
(
(-0.545407 0.127519 0)
(-0.536874 0.137604 0)
(-0.521055 0.13708 0)
(-0.510502 0.138163 0)
(-0.51626 0.0954537 0)
(-0.495085 0.0947474 0)
(-0.481921 0.0972854 0)
(-0.4765 0.114162 0)
(-0.470258 0.0461797 0)
(-0.452462 0.0580523 0)
(-0.456551 0.0876451 0)
(-0.456068 0.109897 0)
(-0.433341 0.0430216 0)
(-0.428934 0.0646031 0)
(-0.432171 0.0892148 0)
(-0.432336 0.0982281 0)
(-0.412016 0.0397905 0)
(-0.402575 0.0658358 0)
(-0.407511 0.0785572 0)
(-0.402788 0.0859847 0)
(-0.385144 0.0338768 0)
(-0.376333 0.0567023 0)
(-0.371035 0.0664358 0)
(-0.371559 0.0770641 0)
(-0.355387 0.0249724 0)
(-0.347656 0.0427808 0)
(-0.340686 0.053342 0)
(-0.34098 0.0615517 0)
(-0.323294 0.0206047 0)
(-0.319592 0.0342247 0)
(-0.31331 0.0443434 0)
(-0.313746 0.054467 0)
(-0.29565 0.0160132 0)
(-0.292778 0.0279451 0)
(-0.288543 0.0386798 0)
(-0.288362 0.048311 0)
(-0.270098 0.0129528 0)
(-0.268486 0.0240651 0)
(-0.265166 0.0344501 0)
(-0.264605 0.0441874 0)
(-0.246655 0.010605 0)
(-0.245561 0.0211305 0)
(-0.243064 0.0312937 0)
(-0.242162 0.0407714 0)
(-0.224658 0.00898539 0)
(-0.223947 0.0189758 0)
(-0.222065 0.0287639 0)
(-0.220955 0.0379869 0)
(-0.203928 0.00785986 0)
(-0.203449 0.0173394 0)
(-0.202076 0.026723 0)
(-0.200892 0.035648 0)
(-0.184316 0.00712474 0)
(-0.183983 0.01612 0)
(-0.183022 0.0250821 0)
(-0.181868 0.0336933 0)
(-0.165693 0.00668185 0)
(-0.165461 0.0152353 0)
(-0.164823 0.0237865 0)
(-0.163772 0.03208 0)
(-0.14795 0.0064675 0)
(-0.147791 0.0146262 0)
(-0.147403 0.0227946 0)
(-0.1465 0.030778 0)
(-0.130975 0.00643829 0)
(-0.130882 0.0142516 0)
(-0.130685 0.0220747 0)
(-0.129954 0.0297656 0)
(-0.114669 0.00656706 0)
(-0.11464 0.0140841 0)
(-0.114587 0.0216041 0)
(-0.114041 0.0290283 0)
(-0.0989281 0.00683906 0)
(-0.0989703 0.0141078 0)
(-0.0990331 0.0213704 0)
(-0.0986733 0.0285586 0)
(-0.0836549 0.00725041 0)
(-0.0837771 0.014319 0)
(-0.0839373 0.0213703 0)
(-0.0837646 0.028358 0)
(-0.0687476 0.00780699 0)
(-0.0689625 0.0147251 0)
(-0.0692177 0.0216124 0)
(-0.0692306 0.028437 0)
(-0.0540838 0.00856109 0)
(-0.0544228 0.0153625 0)
(-0.0547864 0.0221266 0)
(-0.0549927 0.0288268 0)
(-0.0397038 0.00928557 0)
(-0.0401124 0.0161247 0)
(-0.0405657 0.022872 0)
(-0.0409491 0.0295074 0)
(-0.0246698 0.0111567 0)
(-0.0255544 0.0177845 0)
(-0.026441 0.0243575 0)
(-0.0272837 0.0308586 0)
(-0.0106411 0.0114063 0)
(-0.0105804 0.01867 0)
(-0.0106865 0.0256484 0)
(-0.0109173 0.0323957 0)
(-0.489576 0.150572 0)
(-0.473841 0.172563 0)
(-0.466574 0.215736 0)
(-0.446102 0.240101 0)
(-0.427124 0.252038 0)
(-0.420309 0.295624 0)
(-0.395759 0.31283 0)
(-0.383201 0.346446 0)
(-0.360097 0.372681 0)
(-0.339333 0.401468 0)
(-0.314069 0.428751 0)
(-0.286955 0.455282 0)
(-0.256775 0.480341 0)
(-0.223813 0.503478 0)
(-0.187977 0.524171 0)
(-0.149439 0.541778 0)
(-0.108509 0.555656 0)
(-0.0656767 0.564341 0)
(-0.0217639 0.556359 0)
(-0.460501 0.136102 0)
(-0.454486 0.164288 0)
(-0.444808 0.205301 0)
(-0.413498 0.217616 0)
(-0.410957 0.244974 0)
(-0.390201 0.278956 0)
(-0.37339 0.298394 0)
(-0.356835 0.329364 0)
(-0.335781 0.354009 0)
(-0.314806 0.380713 0)
(-0.290632 0.405764 0)
(-0.264603 0.429963 0)
(-0.236007 0.452604 0)
(-0.205033 0.473336 0)
(-0.171664 0.491695 0)
(-0.136076 0.507171 0)
(-0.098586 0.519232 0)
(-0.059717 0.526689 0)
(-0.0198108 0.518172 0)
(-0.442768 0.132473 0)
(-0.429606 0.15366 0)
(-0.416562 0.185711 0)
(-0.388602 0.2023 0)
(-0.389336 0.237412 0)
(-0.363414 0.259847 0)
(-0.351322 0.285262 0)
(-0.332259 0.311807 0)
(-0.313039 0.335898 0)
(-0.292147 0.360529 0)
(-0.269135 0.383721 0)
(-0.244272 0.405889 0)
(-0.217271 0.426468 0)
(-0.188227 0.445168 0)
(-0.157182 0.461598 0)
(-0.124304 0.475361 0)
(-0.0898253 0.486015 0)
(-0.0542697 0.492536 0)
(-0.0179676 0.484121 0)
(-0.418959 0.115504 0)
(-0.402988 0.139139 0)
(-0.38044 0.168845 0)
(-0.377767 0.192735 0)
(-0.357807 0.223813 0)
(-0.343216 0.244021 0)
(-0.327786 0.271341 0)
(-0.309933 0.29473 0)
(-0.29143 0.318313 0)
(-0.271184 0.341064 0)
(-0.249292 0.362674 0)
(-0.225676 0.383076 0)
(-0.200254 0.401898 0)
(-0.173071 0.418877 0)
(-0.144196 0.43369 0)
(-0.113795 0.446029 0)
(-0.0820617 0.455533 0)
(-0.0493431 0.461188 0)
(-0.0162105 0.452888 0)
(-0.385072 0.102648 0)
(-0.376109 0.120499 0)
(-0.356315 0.156939 0)
(-0.357027 0.185131 0)
(-0.331043 0.206199 0)
(-0.323157 0.232094 0)
(-0.304887 0.256109 0)
(-0.289099 0.278781 0)
(-0.270929 0.301211 0)
(-0.251687 0.322474 0)
(-0.230885 0.342665 0)
(-0.208574 0.361537 0)
(-0.184702 0.378849 0)
(-0.159315 0.394361 0)
(-0.132491 0.407807 0)
(-0.104384 0.418931 0)
(-0.0752138 0.427452 0)
(-0.0452335 0.432448 0)
(-0.0148319 0.424158 0)
(-0.357182 0.0873589 0)
(-0.345634 0.108484 0)
(-0.340832 0.148038 0)
(-0.327455 0.172663 0)
(-0.311124 0.192295 0)
(-0.301049 0.219975 0)
(-0.283887 0.241308 0)
(-0.269075 0.2637 0)
(-0.251616 0.284776 0)
(-0.233427 0.304836 0)
(-0.21375 0.323735 0)
(-0.192763 0.341281 0)
(-0.17041 0.357285 0)
(-0.146749 0.371542 0)
(-0.121862 0.383837 0)
(-0.0958853 0.393958 0)
(-0.0690271 0.401678 0)
(-0.0415611 0.406242 0)
(-0.0136373 0.398179 0)
(-0.331104 0.0812802 0)
(-0.320399 0.101368 0)
(-0.320247 0.13733 0)
(-0.300698 0.159791 0)
(-0.291876 0.181311 0)
(-0.279011 0.207147 0)
(-0.26422 0.227681 0)
(-0.249818 0.249275 0)
(-0.233414 0.269192 0)
(-0.216249 0.288175 0)
(-0.197743 0.305912 0)
(-0.178075 0.322296 0)
(-0.157202 0.337162 0)
(-0.135192 0.35034 0)
(-0.112125 0.361657 0)
(-0.0881226 0.370942 0)
(-0.0633576 0.378005 0)
(-0.0381123 0.382178 0)
(-0.0124853 0.374385 0)
(-0.308567 0.0727446 0)
(-0.297066 0.0970819 0)
(-0.296293 0.126799 0)
(-0.278552 0.148748 0)
(-0.27148 0.171383 0)
(-0.258325 0.194746 0)
(-0.2453 0.215094 0)
(-0.231446 0.235584 0)
(-0.216186 0.25454 0)
(-0.20005 0.27251 0)
(-0.182738 0.289208 0)
(-0.164371 0.304562 0)
(-0.144937 0.318428 0)
(-0.124504 0.330668 0)
(-0.103151 0.341139 0)
(-0.080991 0.349704 0)
(-0.05817 0.356199 0)
(-0.0349449 0.360002 0)
(-0.011421 0.35244 0)
(-0.285692 0.0669041 0)
(-0.275181 0.0916537 0)
(-0.272365 0.117814 0)
(-0.258583 0.139464 0)
(-0.251046 0.161914 0)
(-0.238949 0.183434 0)
(-0.227053 0.203375 0)
(-0.213988 0.222764 0)
(-0.199834 0.240842 0)
(-0.184752 0.257862 0)
(-0.168629 0.273621 0)
(-0.15154 0.288052 0)
(-0.133501 0.301033 0)
(-0.114576 0.31245 0)
(-0.0948444 0.322183 0)
(-0.07441 0.33012 0)
(-0.0534045 0.336124 0)
(-0.0320536 0.339625 0)
(-0.0104567 0.332332 0)
(-0.26323 0.0617617 0)
(-0.253935 0.0860484 0)
(-0.250001 0.109994 0)
(-0.239261 0.131309 0)
(-0.231397 0.152933 0)
(-0.220579 0.173215 0)
(-0.209561 0.19248 0)
(-0.197404 0.210872 0)
(-0.184303 0.228103 0)
(-0.170285 0.244237 0)
(-0.155331 0.259138 0)
(-0.13949 0.272735 0)
(-0.122797 0.284927 0)
(-0.105314 0.295616 0)
(-0.087118 0.304703 0)
(-0.0683048 0.312093 0)
(-0.0489932 0.317673 0)
(-0.0293862 0.320932 0)
(-0.00957159 0.313938 0)
(-0.241409 0.0575156 0)
(-0.233497 0.0807432 0)
(-0.229152 0.103204 0)
(-0.220415 0.123947 0)
(-0.212703 0.144579 0)
(-0.203038 0.163923 0)
(-0.192851 0.182399 0)
(-0.181636 0.199896 0)
(-0.169546 0.216311 0)
(-0.156585 0.231623 0)
(-0.14277 0.245735 0)
(-0.128143 0.258577 0)
(-0.112746 0.27006 0)
(-0.0966403 0.280101 0)
(-0.0799001 0.288616 0)
(-0.0626135 0.295526 0)
(-0.0448884 0.300737 0)
(-0.0269096 0.303788 0)
(-0.00875231 0.297095 0)
(-0.220492 0.0538661 0)
(-0.213885 0.0759729 0)
(-0.209539 0.0972746 0)
(-0.202183 0.117297 0)
(-0.194924 0.136944 0)
(-0.18626 0.155459 0)
(-0.176904 0.173126 0)
(-0.166624 0.189806 0)
(-0.155516 0.205448 0)
(-0.143593 0.219999 0)
(-0.130885 0.233385 0)
(-0.117432 0.245537 0)
(-0.10328 0.256379 0)
(-0.0884904 0.265839 0)
(-0.0731321 0.273846 0)
(-0.0572873 0.280331 0)
(-0.0410534 0.285216 0)
(-0.0246003 0.288087 0)
(-0.00799109 0.281688 0)
(-0.200544 0.0507555 0)
(-0.195099 0.0717659 0)
(-0.190959 0.0920637 0)
(-0.184653 0.111314 0)
(-0.177986 0.13004 0)
(-0.170214 0.147771 0)
(-0.161686 0.164654 0)
(-0.152316 0.180575 0)
(-0.142164 0.195488 0)
(-0.131253 0.209336 0)
(-0.119617 0.222052 0)
(-0.107298 0.233574 0)
(-0.0943432 0.243836 0)
(-0.08081 0.252773 0)
(-0.0667652 0.260324 0)
(-0.0522845 0.266431 0)
(-0.037457 0.271026 0)
(-0.0224379 0.273739 0)
(-0.00728024 0.267626 0)
(-0.181553 0.0481076 0)
(-0.177107 0.068103 0)
(-0.173284 0.087484 0)
(-0.167842 0.105963 0)
(-0.161819 0.123841 0)
(-0.154868 0.140825 0)
(-0.147155 0.156966 0)
(-0.138667 0.172177 0)
(-0.129443 0.186408 0)
(-0.119515 0.199603 0)
(-0.108917 0.211703 0)
(-0.097691 0.222649 0)
(-0.0858843 0.232382 0)
(-0.073552 0.240846 0)
(-0.0607573 0.247986 0)
(-0.0475704 0.253754 0)
(-0.0340721 0.258091 0)
(-0.0204049 0.260666 0)
(-0.00661375 0.254825 0)
(-0.163463 0.0458723 0)
(-0.159868 0.0649467 0)
(-0.156425 0.0834808 0)
(-0.151731 0.101215 0)
(-0.146364 0.118316 0)
(-0.140183 0.134591 0)
(-0.133267 0.150037 0)
(-0.125631 0.164584 0)
(-0.117309 0.178181 0)
(-0.108333 0.190772 0)
(-0.0987377 0.202303 0)
(-0.0885645 0.21272 0)
(-0.0778598 0.221971 0)
(-0.0666761 0.230005 0)
(-0.0550728 0.236774 0)
(-0.0431149 0.242236 0)
(-0.0308762 0.246342 0)
(-0.0184874 0.248794 0)
(-0.00598645 0.24321 0)
(-0.146199 0.0440117 0)
(-0.143332 0.0622602 0)
(-0.140305 0.0800157 0)
(-0.136282 0.0970473 0)
(-0.131566 0.113434 0)
(-0.126118 0.129044 0)
(-0.119976 0.143844 0)
(-0.113167 0.157772 0)
(-0.105719 0.170779 0)
(-0.097664 0.182811 0)
(-0.0890369 0.193817 0)
(-0.0798778 0.203749 0)
(-0.070231 0.212559 0)
(-0.0601467 0.220201 0)
(-0.0496804 0.226634 0)
(-0.0388924 0.231819 0)
(-0.02785 0.235715 0)
(-0.016673 0.238059 0)
(-0.00539443 0.232713 0)
(-0.129683 0.0424994 0)
(-0.127444 0.0600137 0)
(-0.124855 0.0770602 0)
(-0.121452 0.0934388 0)
(-0.117374 0.109172 0)
(-0.112632 0.124162 0)
(-0.107242 0.138362 0)
(-0.101234 0.151717 0)
(-0.0946322 0.164176 0)
(-0.0874686 0.175691 0)
(-0.0797766 0.186214 0)
(-0.0715941 0.1957 0)
(-0.0629638 0.204106 0)
(-0.0539329 0.21139 0)
(-0.0445532 0.217517 0)
(-0.0348807 0.222452 0)
(-0.024977 0.226159 0)
(-0.0149515 0.228404 0)
(-0.00483411 0.223277 0)
(-0.11383 0.0413188 0)
(-0.112145 0.0581864 0)
(-0.110007 0.0745938 0)
(-0.10719 0.0903727 0)
(-0.103739 0.105509 0)
(-0.0996791 0.119926 0)
(-0.0950211 0.133571 0)
(-0.0897906 0.146394 0)
(-0.0840107 0.158346 0)
(-0.0777103 0.169382 0)
(-0.0709215 0.179459 0)
(-0.0636805 0.188534 0)
(-0.0560275 0.196568 0)
(-0.048007 0.203525 0)
(-0.0396673 0.209371 0)
(-0.0310605 0.214078 0)
(-0.0222429 0.217612 0)
(-0.0133139 0.219768 0)
(-0.00430246 0.214841 0)
(-0.0985573 0.0404626 0)
(-0.097374 0.0567662 0)
(-0.0957011 0.0726037 0)
(-0.0934487 0.0878366 0)
(-0.0906123 0.10243 0)
(-0.0872193 0.116318 0)
(-0.0832749 0.129452 0)
(-0.0788009 0.141784 0)
(-0.0738185 0.153268 0)
(-0.0683543 0.163863 0)
(-0.0624385 0.173529 0)
(-0.0561054 0.182227 0)
(-0.0493928 0.189922 0)
(-0.0423426 0.19658 0)
(-0.0349999 0.202172 0)
(-0.0274129 0.206671 0)
(-0.0196337 0.210049 0)
(-0.0117515 0.212124 0)
(-0.00379597 0.207376 0)
(-0.0837837 0.0399327 0)
(-0.0830719 0.0557508 0)
(-0.0818767 0.071085 0)
(-0.0801797 0.0858243 0)
(-0.0779521 0.0999229 0)
(-0.0752144 0.113327 0)
(-0.0719696 0.125988 0)
(-0.0682353 0.137864 0)
(-0.0640304 0.148912 0)
(-0.0593792 0.159096 0)
(-0.0543099 0.168378 0)
(-0.0488546 0.176724 0)
(-0.0430489 0.184102 0)
(-0.0369317 0.190482 0)
(-0.0305453 0.195836 0)
(-0.0239345 0.200142 0)
(-0.0171469 0.203376 0)
(-0.0102637 0.205375 0)
(-0.00331468 0.200786 0)
(-0.0694294 0.0397391 0)
(-0.0691786 0.055143 0)
(-0.0684766 0.0700345 0)
(-0.067332 0.0843281 0)
(-0.0657054 0.097977 0)
(-0.0636084 0.110936 0)
(-0.0610426 0.123164 0)
(-0.0580223 0.134622 0)
(-0.0545652 0.145273 0)
(-0.0506947 0.155084 0)
(-0.0464382 0.16402 0)
(-0.0418264 0.172051 0)
(-0.0368936 0.179146 0)
(-0.0316766 0.185279 0)
(-0.0262149 0.190424 0)
(-0.0205499 0.194561 0)
(-0.014727 0.197666 0)
(-0.00881425 0.199602 0)
(-0.00284488 0.195149 0)
(-0.055425 0.0399159 0)
(-0.0556536 0.0549763 0)
(-0.055483 0.0694843 0)
(-0.0549221 0.0833779 0)
(-0.0539295 0.0966155 0)
(-0.0525067 0.109162 0)
(-0.0506519 0.12098 0)
(-0.0483737 0.132039 0)
(-0.0456855 0.142307 0)
(-0.0426063 0.151754 0)
(-0.0391599 0.160351 0)
(-0.0353745 0.168071 0)
(-0.0312816 0.174888 0)
(-0.0269156 0.180775 0)
(-0.0223137 0.185713 0)
(-0.017516 0.189682 0)
(-0.0125629 0.192663 0)
(-0.00752471 0.194527 0)
(-0.00242714 0.190193 0)
(-0.0416399 0.0404407 0)
(-0.0423091 0.0552011 0)
(-0.0425963 0.0693614 0)
(-0.0425014 0.0828859 0)
(-0.041994 0.0957458 0)
(-0.0410803 0.107917 0)
(-0.0397714 0.11937 0)
(-0.0380846 0.130078 0)
(-0.0360398 0.140014 0)
(-0.0336595 0.14915 0)
(-0.0309685 0.15746 0)
(-0.027993 0.164918 0)
(-0.0247612 0.171498 0)
(-0.0213029 0.177176 0)
(-0.0176513 0.181933 0)
(-0.0138465 0.185753 0)
(-0.0099315 0.18862 0)
(-0.00594316 0.190437 0)
(-0.00191761 0.186203 0)
(-0.0286178 0.0416057 0)
(-0.0302395 0.0560893 0)
(-0.0315304 0.0699181 0)
(-0.0324539 0.0830792 0)
(-0.0329534 0.0955582 0)
(-0.0329925 0.107342 0)
(-0.0325402 0.118418 0)
(-0.0316266 0.128767 0)
(-0.0302866 0.138369 0)
(-0.0285625 0.147198 0)
(-0.0264963 0.155231 0)
(-0.0241284 0.162442 0)
(-0.0214977 0.16881 0)
(-0.0186399 0.174313 0)
(-0.0155855 0.178936 0)
(-0.012354 0.182661 0)
(-0.00889662 0.185448 0)
(-0.00536211 0.187181 0)
(-0.00171486 0.183022 0)
(-0.0115885 0.0433557 0)
(-0.0126558 0.0577835 0)
(-0.0136901 0.0713788 0)
(-0.0145855 0.0842034 0)
(-0.0152803 0.0962854 0)
(-0.0157512 0.107639 0)
(-0.0159955 0.118266 0)
(-0.0159816 0.128166 0)
(-0.0156958 0.137328 0)
(-0.0151334 0.14574 0)
(-0.0143014 0.153384 0)
(-0.0132153 0.160241 0)
(-0.0118969 0.166291 0)
(-0.0103722 0.171512 0)
(-0.00866972 0.17588 0)
(-0.00682227 0.179371 0)
(-0.00488751 0.182014 0)
(-0.00295825 0.183661 0)
(-0.000938907 0.17958 0)
)
;

boundaryField
{
    leftWall
    {
        type            calculated;
        value           nonuniform 0();
    }
    rightWall
    {
        type            calculated;
        value           uniform (0 0 0);
    }
    lowerWall
    {
        type            calculated;
        value           nonuniform 0();
    }
    atmosphere
    {
        type            calculated;
        value           nonuniform List<vector> 
23
(
(-0.0106411 0.0113981 0)
(-0.0105804 0.0186663 0)
(-0.0106865 0.0256488 0)
(-0.0109173 0.032399 0)
(-0.0115885 0.0433615 0)
(-0.0126558 0.0577903 0)
(-0.0136901 0.071386 0)
(-0.0145855 0.0842106 0)
(-0.0152803 0.096293 0)
(-0.0157512 0.107647 0)
(-0.0159955 0.118274 0)
(-0.0159816 0.128172 0)
(-0.0156958 0.137333 0)
(-0.0151334 0.145744 0)
(-0.0143014 0.153387 0)
(-0.0132153 0.160243 0)
(-0.0118969 0.166293 0)
(-0.0103722 0.171512 0)
(-0.00866972 0.17588 0)
(-0.00682227 0.179372 0)
(-0.00488751 0.182015 0)
(-0.00295825 0.183663 0)
(-0.000938907 0.179582 0)
)
;
    }
    defaultFaces
    {
        type            empty;
    }
    procBoundary3to1
    {
        type            processor;
        value           nonuniform List<vector> 
23
(
(-0.556976 0.141678 0)
(-0.558421 0.152539 0)
(-0.555563 0.161907 0)
(-0.548346 0.16622 0)
(-0.527732 0.177202 0)
(-0.489614 0.19098 0)
(-0.485777 0.222393 0)
(-0.477929 0.251992 0)
(-0.445668 0.26839 0)
(-0.4514 0.305893 0)
(-0.419422 0.329364 0)
(-0.411387 0.362632 0)
(-0.386323 0.391762 0)
(-0.365988 0.422665 0)
(-0.339772 0.452602 0)
(-0.311654 0.481804 0)
(-0.279931 0.509673 0)
(-0.244957 0.535656 0)
(-0.206542 0.559168 0)
(-0.164814 0.579392 0)
(-0.120078 0.595496 0)
(-0.0730087 0.605801 0)
(-0.0243518 0.598085 0)
)
;
    }
    procBoundary3to2
    {
        type            processor;
        value           nonuniform List<vector> 
25
(
(-0.565732 0.0970125 0)
(-0.53392 0.0681644 0)
(-0.481091 0.033245 0)
(-0.438979 0.0109848 0)
(-0.414072 0.00516882 0)
(-0.388415 -0.00213695 0)
(-0.357183 0.00261599 0)
(-0.326682 -0.00268003 0)
(-0.298243 -0.00343379 0)
(-0.272491 -0.00558679 0)
(-0.248327 -0.00651729 0)
(-0.225838 -0.00707849 0)
(-0.204697 -0.00722712 0)
(-0.184774 -0.00710924 0)
(-0.165907 -0.00680574 0)
(-0.147972 -0.00636984 0)
(-0.130843 -0.00583986 0)
(-0.114409 -0.00523487 0)
(-0.0985616 -0.0045682 0)
(-0.0831932 -0.00384109 0)
(-0.0681971 -0.00305984 0)
(-0.0534494 -0.00210323 0)
(-0.0388569 -0.00158086 0)
(-0.023983 0.000805477 0)
(-0.0106002 2.88423e-05 0)
)
;
    }
}


// ************************************************************************* //
