/*--------------------------------*- C++ -*----------------------------------*\
| =========                 |                                                 |
| \\      /  F ield         | OpenFOAM: The Open Source CFD Toolbox           |
|  \\    /   O peration     | Version:  2.4.0                                 |
|   \\  /    A nd           | Web:      www.OpenFOAM.org                      |
|    \\/     M anipulation  |                                                 |
\*---------------------------------------------------------------------------*/
FoamFile
{
    version     2.0;
    format      ascii;
    class       volVectorField;
    location    "0.2";
    object      U.air;
}
// * * * * * * * * * * * * * * * * * * * * * * * * * * * * * * * * * * * * * //

dimensions      [0 1 -1 0 0 0 0];

internalField   nonuniform List<vector> 
575
(
(-0.545408 0.127519 0)
(-0.536874 0.137605 0)
(-0.521056 0.137081 0)
(-0.510502 0.138163 0)
(-0.516259 0.0954537 0)
(-0.495085 0.0947474 0)
(-0.481922 0.0972855 0)
(-0.4765 0.114162 0)
(-0.470258 0.0461797 0)
(-0.452461 0.0580522 0)
(-0.456551 0.087645 0)
(-0.456067 0.109897 0)
(-0.43334 0.0430215 0)
(-0.428933 0.0646029 0)
(-0.43217 0.0892147 0)
(-0.432335 0.0982279 0)
(-0.412016 0.0397905 0)
(-0.402575 0.0658357 0)
(-0.40751 0.0785571 0)
(-0.402787 0.0859846 0)
(-0.385143 0.0338768 0)
(-0.376333 0.0567022 0)
(-0.371034 0.0664357 0)
(-0.371559 0.0770641 0)
(-0.355387 0.0249725 0)
(-0.347657 0.0427809 0)
(-0.340686 0.053342 0)
(-0.340981 0.0615517 0)
(-0.323294 0.0206047 0)
(-0.319592 0.0342247 0)
(-0.31331 0.0443435 0)
(-0.313747 0.0544671 0)
(-0.295651 0.0160133 0)
(-0.292779 0.0279452 0)
(-0.288543 0.0386799 0)
(-0.288363 0.0483112 0)
(-0.270099 0.0129528 0)
(-0.268487 0.0240651 0)
(-0.265167 0.0344503 0)
(-0.264606 0.0441875 0)
(-0.246656 0.010605 0)
(-0.245562 0.0211305 0)
(-0.243064 0.0312938 0)
(-0.242163 0.0407716 0)
(-0.224658 0.00898541 0)
(-0.223947 0.0189758 0)
(-0.222066 0.028764 0)
(-0.220955 0.037987 0)
(-0.203929 0.00785989 0)
(-0.203449 0.0173394 0)
(-0.202077 0.0267231 0)
(-0.200892 0.0356481 0)
(-0.184316 0.00712475 0)
(-0.183983 0.01612 0)
(-0.183023 0.0250821 0)
(-0.181869 0.0336934 0)
(-0.165693 0.00668186 0)
(-0.165461 0.0152354 0)
(-0.164824 0.0237865 0)
(-0.163772 0.03208 0)
(-0.14795 0.0064675 0)
(-0.147791 0.0146262 0)
(-0.147403 0.0227946 0)
(-0.146501 0.030778 0)
(-0.130975 0.00643829 0)
(-0.130882 0.0142516 0)
(-0.130685 0.0220747 0)
(-0.129954 0.0297656 0)
(-0.114669 0.00656706 0)
(-0.11464 0.0140841 0)
(-0.114587 0.0216042 0)
(-0.114042 0.0290283 0)
(-0.0989281 0.00683905 0)
(-0.0989704 0.0141078 0)
(-0.0990332 0.0213704 0)
(-0.0986734 0.0285587 0)
(-0.0836549 0.00725041 0)
(-0.0837771 0.014319 0)
(-0.0839373 0.0213703 0)
(-0.0837647 0.028358 0)
(-0.0687475 0.00780698 0)
(-0.0689625 0.0147252 0)
(-0.0692178 0.0216124 0)
(-0.0692306 0.028437 0)
(-0.0540838 0.00856109 0)
(-0.0544228 0.0153625 0)
(-0.0547865 0.0221266 0)
(-0.0549928 0.0288268 0)
(-0.0397038 0.00928556 0)
(-0.0401124 0.0161247 0)
(-0.0405657 0.022872 0)
(-0.0409491 0.0295074 0)
(-0.0246698 0.0111567 0)
(-0.0255544 0.0177845 0)
(-0.026441 0.0243575 0)
(-0.0272837 0.0308586 0)
(-0.0106412 0.0114063 0)
(-0.0105804 0.01867 0)
(-0.0106865 0.0256484 0)
(-0.0109173 0.0323958 0)
(-0.489577 0.150572 0)
(-0.473842 0.172563 0)
(-0.466575 0.215737 0)
(-0.446103 0.240101 0)
(-0.427125 0.252039 0)
(-0.42031 0.295625 0)
(-0.39576 0.312831 0)
(-0.383201 0.346446 0)
(-0.360097 0.372682 0)
(-0.339334 0.401468 0)
(-0.31407 0.428751 0)
(-0.286955 0.455282 0)
(-0.256775 0.480341 0)
(-0.223813 0.503478 0)
(-0.187977 0.52417 0)
(-0.149439 0.541777 0)
(-0.108509 0.555656 0)
(-0.0656767 0.564341 0)
(-0.0217639 0.556358 0)
(-0.460501 0.136102 0)
(-0.454486 0.164288 0)
(-0.444809 0.205301 0)
(-0.413499 0.217616 0)
(-0.410958 0.244975 0)
(-0.390201 0.278956 0)
(-0.373391 0.298394 0)
(-0.356835 0.329365 0)
(-0.335781 0.35401 0)
(-0.314806 0.380714 0)
(-0.290632 0.405765 0)
(-0.264603 0.429964 0)
(-0.236007 0.452604 0)
(-0.205033 0.473337 0)
(-0.171664 0.491695 0)
(-0.136076 0.507171 0)
(-0.098586 0.519232 0)
(-0.059717 0.526688 0)
(-0.0198108 0.518171 0)
(-0.442768 0.132473 0)
(-0.429606 0.15366 0)
(-0.416563 0.185711 0)
(-0.388603 0.2023 0)
(-0.389337 0.237413 0)
(-0.363414 0.259847 0)
(-0.351323 0.285262 0)
(-0.33226 0.311808 0)
(-0.313039 0.335899 0)
(-0.292148 0.360529 0)
(-0.269135 0.383722 0)
(-0.244272 0.405889 0)
(-0.217271 0.426468 0)
(-0.188227 0.445168 0)
(-0.157182 0.461598 0)
(-0.124304 0.475362 0)
(-0.0898253 0.486015 0)
(-0.0542697 0.492536 0)
(-0.0179676 0.484121 0)
(-0.418958 0.115504 0)
(-0.402988 0.139139 0)
(-0.38044 0.168845 0)
(-0.377767 0.192735 0)
(-0.357808 0.223813 0)
(-0.343217 0.244022 0)
(-0.327787 0.271342 0)
(-0.309933 0.29473 0)
(-0.291431 0.318313 0)
(-0.271184 0.341064 0)
(-0.249292 0.362675 0)
(-0.225676 0.383076 0)
(-0.200254 0.401898 0)
(-0.173071 0.418877 0)
(-0.144196 0.433691 0)
(-0.113795 0.446029 0)
(-0.0820618 0.455533 0)
(-0.0493431 0.461188 0)
(-0.0162105 0.452888 0)
(-0.385071 0.102648 0)
(-0.376108 0.120499 0)
(-0.356315 0.156939 0)
(-0.357027 0.185131 0)
(-0.331043 0.206199 0)
(-0.323158 0.232095 0)
(-0.304887 0.256109 0)
(-0.289099 0.278781 0)
(-0.270929 0.301211 0)
(-0.251687 0.322474 0)
(-0.230886 0.342666 0)
(-0.208574 0.361538 0)
(-0.184702 0.378849 0)
(-0.159315 0.394361 0)
(-0.132491 0.407808 0)
(-0.104384 0.418932 0)
(-0.0752139 0.427452 0)
(-0.0452335 0.432448 0)
(-0.0148319 0.424158 0)
(-0.357181 0.0873588 0)
(-0.345634 0.108484 0)
(-0.340832 0.148038 0)
(-0.327455 0.172663 0)
(-0.311124 0.192295 0)
(-0.301049 0.219975 0)
(-0.283887 0.241308 0)
(-0.269076 0.2637 0)
(-0.251616 0.284776 0)
(-0.233428 0.304836 0)
(-0.21375 0.323735 0)
(-0.192763 0.341281 0)
(-0.17041 0.357285 0)
(-0.146749 0.371542 0)
(-0.121862 0.383837 0)
(-0.0958853 0.393958 0)
(-0.0690271 0.401678 0)
(-0.0415611 0.406242 0)
(-0.0136373 0.39818 0)
(-0.331105 0.0812803 0)
(-0.320399 0.101368 0)
(-0.320247 0.13733 0)
(-0.300698 0.159791 0)
(-0.291876 0.181311 0)
(-0.279012 0.207148 0)
(-0.26422 0.227682 0)
(-0.249818 0.249275 0)
(-0.233414 0.269192 0)
(-0.216249 0.288175 0)
(-0.197743 0.305912 0)
(-0.178075 0.322296 0)
(-0.157202 0.337162 0)
(-0.135192 0.35034 0)
(-0.112125 0.361657 0)
(-0.0881226 0.370943 0)
(-0.0633576 0.378006 0)
(-0.0381123 0.382178 0)
(-0.0124853 0.374385 0)
(-0.308567 0.0727447 0)
(-0.297066 0.0970821 0)
(-0.296293 0.126799 0)
(-0.278553 0.148748 0)
(-0.27148 0.171384 0)
(-0.258325 0.194746 0)
(-0.2453 0.215094 0)
(-0.231447 0.235584 0)
(-0.216186 0.25454 0)
(-0.20005 0.272511 0)
(-0.182738 0.289208 0)
(-0.164371 0.304562 0)
(-0.144938 0.318428 0)
(-0.124504 0.330668 0)
(-0.103151 0.341139 0)
(-0.080991 0.349704 0)
(-0.05817 0.356199 0)
(-0.0349449 0.360002 0)
(-0.011421 0.35244 0)
(-0.285693 0.0669043 0)
(-0.275181 0.0916539 0)
(-0.272365 0.117815 0)
(-0.258584 0.139465 0)
(-0.251046 0.161914 0)
(-0.238949 0.183434 0)
(-0.227053 0.203376 0)
(-0.213988 0.222764 0)
(-0.199834 0.240842 0)
(-0.184753 0.257862 0)
(-0.168629 0.273621 0)
(-0.15154 0.288052 0)
(-0.133501 0.301034 0)
(-0.114576 0.31245 0)
(-0.0948444 0.322184 0)
(-0.07441 0.33012 0)
(-0.0534045 0.336124 0)
(-0.0320536 0.339625 0)
(-0.0104567 0.332332 0)
(-0.26323 0.0617619 0)
(-0.253936 0.0860486 0)
(-0.250001 0.109994 0)
(-0.239262 0.131309 0)
(-0.231398 0.152933 0)
(-0.220579 0.173215 0)
(-0.209561 0.192481 0)
(-0.197405 0.210872 0)
(-0.184303 0.228103 0)
(-0.170285 0.244237 0)
(-0.155331 0.259138 0)
(-0.13949 0.272735 0)
(-0.122797 0.284928 0)
(-0.105314 0.295616 0)
(-0.087118 0.304703 0)
(-0.0683048 0.312093 0)
(-0.0489932 0.317673 0)
(-0.0293862 0.320932 0)
(-0.00957159 0.313938 0)
(-0.24141 0.0575158 0)
(-0.233498 0.0807434 0)
(-0.229152 0.103205 0)
(-0.220416 0.123948 0)
(-0.212704 0.14458 0)
(-0.203038 0.163924 0)
(-0.192851 0.182399 0)
(-0.181636 0.199896 0)
(-0.169546 0.216312 0)
(-0.156586 0.231624 0)
(-0.14277 0.245736 0)
(-0.128143 0.258577 0)
(-0.112746 0.27006 0)
(-0.0966403 0.280101 0)
(-0.0799001 0.288616 0)
(-0.0626135 0.295526 0)
(-0.0448884 0.300737 0)
(-0.0269096 0.303788 0)
(-0.00875231 0.297095 0)
(-0.220492 0.0538662 0)
(-0.213886 0.0759732 0)
(-0.20954 0.0972749 0)
(-0.202184 0.117298 0)
(-0.194924 0.136944 0)
(-0.186261 0.155459 0)
(-0.176905 0.173126 0)
(-0.166624 0.189807 0)
(-0.155516 0.205448 0)
(-0.143593 0.219999 0)
(-0.130885 0.233385 0)
(-0.117432 0.245537 0)
(-0.10328 0.256379 0)
(-0.0884905 0.265839 0)
(-0.0731321 0.273846 0)
(-0.0572873 0.280331 0)
(-0.0410534 0.285216 0)
(-0.0246003 0.288087 0)
(-0.00799109 0.281688 0)
(-0.200545 0.0507557 0)
(-0.195099 0.0717661 0)
(-0.190959 0.092064 0)
(-0.184654 0.111315 0)
(-0.177986 0.13004 0)
(-0.170214 0.147771 0)
(-0.161687 0.164655 0)
(-0.152316 0.180575 0)
(-0.142164 0.195488 0)
(-0.131253 0.209336 0)
(-0.119617 0.222052 0)
(-0.107298 0.233575 0)
(-0.0943432 0.243836 0)
(-0.08081 0.252773 0)
(-0.0667652 0.260324 0)
(-0.0522845 0.266431 0)
(-0.037457 0.271026 0)
(-0.0224379 0.273739 0)
(-0.00728024 0.267626 0)
(-0.181553 0.0481078 0)
(-0.177107 0.0681032 0)
(-0.173285 0.0874843 0)
(-0.167842 0.105963 0)
(-0.16182 0.123841 0)
(-0.154868 0.140825 0)
(-0.147155 0.156966 0)
(-0.138667 0.172177 0)
(-0.129444 0.186408 0)
(-0.119515 0.199603 0)
(-0.108917 0.211703 0)
(-0.0976911 0.222649 0)
(-0.0858843 0.232382 0)
(-0.073552 0.240846 0)
(-0.0607573 0.247986 0)
(-0.0475704 0.253754 0)
(-0.0340721 0.258091 0)
(-0.0204049 0.260666 0)
(-0.00661375 0.254825 0)
(-0.163463 0.0458724 0)
(-0.159868 0.0649469 0)
(-0.156425 0.0834811 0)
(-0.151731 0.101215 0)
(-0.146365 0.118316 0)
(-0.140183 0.134591 0)
(-0.133267 0.150038 0)
(-0.125632 0.164584 0)
(-0.117309 0.178181 0)
(-0.108333 0.190772 0)
(-0.0987378 0.202303 0)
(-0.0885646 0.21272 0)
(-0.0778598 0.221971 0)
(-0.0666761 0.230005 0)
(-0.0550728 0.236774 0)
(-0.0431149 0.242236 0)
(-0.0308762 0.246342 0)
(-0.0184874 0.248794 0)
(-0.00598645 0.24321 0)
(-0.1462 0.0440118 0)
(-0.143332 0.0622604 0)
(-0.140306 0.0800159 0)
(-0.136283 0.0970475 0)
(-0.131567 0.113435 0)
(-0.126119 0.129044 0)
(-0.119977 0.143844 0)
(-0.113168 0.157773 0)
(-0.105719 0.170779 0)
(-0.0976641 0.182811 0)
(-0.089037 0.193817 0)
(-0.0798778 0.203749 0)
(-0.0702311 0.212559 0)
(-0.0601468 0.220201 0)
(-0.0496804 0.226634 0)
(-0.0388924 0.231819 0)
(-0.02785 0.235716 0)
(-0.016673 0.238059 0)
(-0.00539443 0.232713 0)
(-0.129683 0.0424995 0)
(-0.127444 0.0600139 0)
(-0.124855 0.0770603 0)
(-0.121452 0.093439 0)
(-0.117375 0.109172 0)
(-0.112632 0.124162 0)
(-0.107242 0.138362 0)
(-0.101234 0.151717 0)
(-0.0946323 0.164176 0)
(-0.0874687 0.175691 0)
(-0.0797766 0.186214 0)
(-0.0715942 0.1957 0)
(-0.0629639 0.204106 0)
(-0.0539329 0.21139 0)
(-0.0445532 0.217517 0)
(-0.0348807 0.222452 0)
(-0.024977 0.226159 0)
(-0.0149515 0.228404 0)
(-0.00483411 0.223277 0)
(-0.11383 0.0413189 0)
(-0.112145 0.0581865 0)
(-0.110008 0.0745939 0)
(-0.10719 0.0903728 0)
(-0.103739 0.105509 0)
(-0.0996793 0.119926 0)
(-0.0950212 0.133571 0)
(-0.0897907 0.146394 0)
(-0.0840107 0.158346 0)
(-0.0777103 0.169382 0)
(-0.0709215 0.179459 0)
(-0.0636805 0.188534 0)
(-0.0560276 0.196568 0)
(-0.048007 0.203525 0)
(-0.0396674 0.209371 0)
(-0.0310605 0.214078 0)
(-0.0222429 0.217612 0)
(-0.0133139 0.219768 0)
(-0.00430246 0.214841 0)
(-0.0985574 0.0404626 0)
(-0.0973741 0.0567663 0)
(-0.0957012 0.0726038 0)
(-0.0934488 0.0878367 0)
(-0.0906124 0.10243 0)
(-0.0872193 0.116319 0)
(-0.0832749 0.129452 0)
(-0.078801 0.141784 0)
(-0.0738186 0.153268 0)
(-0.0683543 0.163863 0)
(-0.0624385 0.173529 0)
(-0.0561054 0.182227 0)
(-0.0493929 0.189922 0)
(-0.0423426 0.19658 0)
(-0.0349999 0.202172 0)
(-0.0274129 0.206671 0)
(-0.0196337 0.210049 0)
(-0.0117515 0.212125 0)
(-0.00379597 0.207376 0)
(-0.0837838 0.0399328 0)
(-0.083072 0.0557508 0)
(-0.0818768 0.0710851 0)
(-0.0801798 0.0858244 0)
(-0.0779521 0.099923 0)
(-0.0752144 0.113327 0)
(-0.0719697 0.125988 0)
(-0.0682354 0.137864 0)
(-0.0640304 0.148912 0)
(-0.0593792 0.159096 0)
(-0.0543099 0.168378 0)
(-0.0488546 0.176725 0)
(-0.0430489 0.184102 0)
(-0.0369318 0.190482 0)
(-0.0305453 0.195836 0)
(-0.0239345 0.200142 0)
(-0.0171469 0.203376 0)
(-0.0102637 0.205375 0)
(-0.00331468 0.200786 0)
(-0.0694295 0.0397391 0)
(-0.0691786 0.055143 0)
(-0.0684767 0.0700346 0)
(-0.067332 0.0843282 0)
(-0.0657055 0.097977 0)
(-0.0636085 0.110937 0)
(-0.0610426 0.123164 0)
(-0.0580223 0.134622 0)
(-0.0545653 0.145273 0)
(-0.0506948 0.155084 0)
(-0.0464382 0.16402 0)
(-0.0418265 0.172051 0)
(-0.0368936 0.179146 0)
(-0.0316766 0.185279 0)
(-0.0262149 0.190424 0)
(-0.02055 0.194561 0)
(-0.014727 0.197666 0)
(-0.00881426 0.199602 0)
(-0.00284488 0.19515 0)
(-0.055425 0.039916 0)
(-0.0556536 0.0549763 0)
(-0.055483 0.0694843 0)
(-0.0549221 0.0833779 0)
(-0.0539296 0.0966155 0)
(-0.0525067 0.109162 0)
(-0.0506519 0.12098 0)
(-0.0483738 0.132039 0)
(-0.0456855 0.142307 0)
(-0.0426063 0.151754 0)
(-0.0391599 0.160352 0)
(-0.0353745 0.168071 0)
(-0.0312816 0.174888 0)
(-0.0269156 0.180775 0)
(-0.0223137 0.185713 0)
(-0.017516 0.189682 0)
(-0.0125629 0.192663 0)
(-0.00752471 0.194527 0)
(-0.00242714 0.190193 0)
(-0.04164 0.0404408 0)
(-0.0423091 0.0552012 0)
(-0.0425963 0.0693614 0)
(-0.0425015 0.0828859 0)
(-0.041994 0.0957458 0)
(-0.0410803 0.107917 0)
(-0.0397714 0.11937 0)
(-0.0380846 0.130078 0)
(-0.0360398 0.140014 0)
(-0.0336596 0.14915 0)
(-0.0309685 0.15746 0)
(-0.027993 0.164918 0)
(-0.0247612 0.171498 0)
(-0.0213029 0.177176 0)
(-0.0176513 0.181932 0)
(-0.0138465 0.185752 0)
(-0.0099315 0.18862 0)
(-0.00594316 0.190437 0)
(-0.00191761 0.186203 0)
(-0.0286178 0.0416057 0)
(-0.0302395 0.0560893 0)
(-0.0315305 0.0699181 0)
(-0.0324539 0.0830792 0)
(-0.0329534 0.0955582 0)
(-0.0329925 0.107342 0)
(-0.0325402 0.118418 0)
(-0.0316266 0.128767 0)
(-0.0302866 0.138369 0)
(-0.0285625 0.147199 0)
(-0.0264963 0.155231 0)
(-0.0241284 0.162442 0)
(-0.0214977 0.16881 0)
(-0.0186399 0.174313 0)
(-0.0155855 0.178936 0)
(-0.012354 0.182661 0)
(-0.00889662 0.185448 0)
(-0.0053621 0.187181 0)
(-0.00171486 0.183022 0)
(-0.0115885 0.0433557 0)
(-0.0126558 0.0577835 0)
(-0.0136901 0.0713788 0)
(-0.0145855 0.0842034 0)
(-0.0152803 0.0962855 0)
(-0.0157512 0.107639 0)
(-0.0159955 0.118267 0)
(-0.0159816 0.128166 0)
(-0.0156958 0.137328 0)
(-0.0151334 0.14574 0)
(-0.0143014 0.153384 0)
(-0.0132153 0.160241 0)
(-0.0118969 0.166291 0)
(-0.0103723 0.171512 0)
(-0.00866972 0.17588 0)
(-0.00682227 0.179371 0)
(-0.00488751 0.182014 0)
(-0.00295825 0.183661 0)
(-0.000938907 0.17958 0)
)
;

boundaryField
{
    leftWall
    {
        type            fixedValue;
        value           nonuniform 0();
    }
    rightWall
    {
        type            fixedValue;
        value           uniform (0 0 0);
    }
    lowerWall
    {
        type            fixedValue;
        value           nonuniform 0();
    }
    atmosphere
    {
        type            fluxCorrectedVelocity;
        value           nonuniform List<vector> 
23
(
(-0.0106412 0.0113981 0)
(-0.0105804 0.0186663 0)
(-0.0106865 0.0256488 0)
(-0.0109173 0.032399 0)
(-0.0115885 0.0433615 0)
(-0.0126558 0.0577903 0)
(-0.0136901 0.071386 0)
(-0.0145855 0.0842106 0)
(-0.0152803 0.096293 0)
(-0.0157512 0.107647 0)
(-0.0159955 0.118274 0)
(-0.0159816 0.128172 0)
(-0.0156958 0.137333 0)
(-0.0151334 0.145744 0)
(-0.0143014 0.153387 0)
(-0.0132153 0.160243 0)
(-0.0118969 0.166293 0)
(-0.0103723 0.171513 0)
(-0.00866972 0.17588 0)
(-0.00682227 0.179372 0)
(-0.00488751 0.182015 0)
(-0.00295825 0.183663 0)
(-0.000938907 0.179582 0)
)
;
    }
    defaultFaces
    {
        type            empty;
    }
    procBoundary3to1
    {
        type            processor;
        value           nonuniform List<vector> 
23
(
(-0.556976 0.141678 0)
(-0.558422 0.152539 0)
(-0.555563 0.161907 0)
(-0.548347 0.16622 0)
(-0.527733 0.177202 0)
(-0.489615 0.190981 0)
(-0.485778 0.222393 0)
(-0.47793 0.251993 0)
(-0.445669 0.26839 0)
(-0.4514 0.305894 0)
(-0.419423 0.329364 0)
(-0.411387 0.362632 0)
(-0.386324 0.391762 0)
(-0.365989 0.422665 0)
(-0.339772 0.452602 0)
(-0.311654 0.481804 0)
(-0.279931 0.509673 0)
(-0.244957 0.535656 0)
(-0.206542 0.559168 0)
(-0.164814 0.579391 0)
(-0.120078 0.595496 0)
(-0.0730086 0.6058 0)
(-0.0243518 0.598084 0)
)
;
    }
    procBoundary3to2
    {
        type            processor;
        value           nonuniform List<vector> 
25
(
(-0.565733 0.0970126 0)
(-0.53392 0.0681644 0)
(-0.48109 0.0332449 0)
(-0.438978 0.0109848 0)
(-0.414071 0.00516882 0)
(-0.388415 -0.00213695 0)
(-0.357183 0.00261599 0)
(-0.326682 -0.00268004 0)
(-0.298243 -0.0034338 0)
(-0.272492 -0.0055868 0)
(-0.248327 -0.0065173 0)
(-0.225839 -0.0070785 0)
(-0.204697 -0.00722713 0)
(-0.184774 -0.00710925 0)
(-0.165907 -0.00680574 0)
(-0.147972 -0.00636985 0)
(-0.130843 -0.00583986 0)
(-0.114409 -0.00523487 0)
(-0.0985616 -0.00456819 0)
(-0.0831932 -0.00384109 0)
(-0.0681971 -0.00305984 0)
(-0.0534494 -0.00210323 0)
(-0.0388569 -0.00158086 0)
(-0.023983 0.000805477 0)
(-0.0106002 2.88423e-05 0)
)
;
    }
}


// ************************************************************************* //
