/*--------------------------------*- C++ -*----------------------------------*\
| =========                 |                                                 |
| \\      /  F ield         | OpenFOAM: The Open Source CFD Toolbox           |
|  \\    /   O peration     | Version:  2.4.0                                 |
|   \\  /    A nd           | Web:      www.OpenFOAM.org                      |
|    \\/     M anipulation  |                                                 |
\*---------------------------------------------------------------------------*/
FoamFile
{
    version     2.0;
    format      ascii;
    class       volVectorField;
    location    "0.2";
    object      U.mercury;
}
// * * * * * * * * * * * * * * * * * * * * * * * * * * * * * * * * * * * * * //

dimensions      [0 1 -1 0 0 0 0];

internalField   nonuniform List<vector> 
575
(
(-0.5454 0.127519 0)
(-0.536867 0.137604 0)
(-0.52105 0.13708 0)
(-0.510498 0.138163 0)
(-0.516252 0.0954539 0)
(-0.495078 0.0947474 0)
(-0.481916 0.0972854 0)
(-0.476495 0.114162 0)
(-0.47025 0.0461808 0)
(-0.452455 0.0580531 0)
(-0.456545 0.0876457 0)
(-0.456062 0.109898 0)
(-0.433334 0.0430234 0)
(-0.428927 0.0646045 0)
(-0.432165 0.089216 0)
(-0.43233 0.098229 0)
(-0.412011 0.0397929 0)
(-0.40257 0.0658377 0)
(-0.407505 0.0785587 0)
(-0.402783 0.085986 0)
(-0.385139 0.0338794 0)
(-0.376328 0.0567044 0)
(-0.37103 0.0664376 0)
(-0.371555 0.0770657 0)
(-0.355383 0.0249751 0)
(-0.347653 0.0427832 0)
(-0.340683 0.053344 0)
(-0.340977 0.0615535 0)
(-0.323291 0.0206073 0)
(-0.319589 0.034227 0)
(-0.313308 0.0443455 0)
(-0.313744 0.0544688 0)
(-0.295649 0.0160157 0)
(-0.292776 0.0279473 0)
(-0.288541 0.0386818 0)
(-0.28836 0.0483129 0)
(-0.270097 0.012955 0)
(-0.268485 0.0240671 0)
(-0.265165 0.034452 0)
(-0.264604 0.0441891 0)
(-0.246654 0.010607 0)
(-0.24556 0.0211323 0)
(-0.243063 0.0312954 0)
(-0.242161 0.0407731 0)
(-0.224656 0.00898716 0)
(-0.223946 0.0189774 0)
(-0.222064 0.0287655 0)
(-0.220954 0.0379884 0)
(-0.203928 0.00786146 0)
(-0.203448 0.0173409 0)
(-0.202076 0.0267244 0)
(-0.200891 0.0356494 0)
(-0.184315 0.00712615 0)
(-0.183982 0.0161213 0)
(-0.183022 0.0250834 0)
(-0.181868 0.0336946 0)
(-0.165693 0.00668311 0)
(-0.165461 0.0152366 0)
(-0.164823 0.0237877 0)
(-0.163771 0.0320811 0)
(-0.147949 0.00646862 0)
(-0.14779 0.0146273 0)
(-0.147403 0.0227957 0)
(-0.1465 0.030779 0)
(-0.130975 0.00643931 0)
(-0.130882 0.0142526 0)
(-0.130684 0.0220757 0)
(-0.129953 0.0297666 0)
(-0.114669 0.00656798 0)
(-0.114639 0.014085 0)
(-0.114587 0.021605 0)
(-0.114041 0.0290291 0)
(-0.0989275 0.00683989 0)
(-0.0989698 0.0141086 0)
(-0.0990326 0.0213712 0)
(-0.0986728 0.0285594 0)
(-0.0836544 0.00725118 0)
(-0.0837766 0.0143197 0)
(-0.0839369 0.021371 0)
(-0.0837642 0.0283587 0)
(-0.068747 0.0078077 0)
(-0.068962 0.0147259 0)
(-0.0692173 0.0216131 0)
(-0.0692302 0.0284377 0)
(-0.0540834 0.00856176 0)
(-0.0544224 0.0153631 0)
(-0.0547861 0.0221272 0)
(-0.0549924 0.0288274 0)
(-0.0397034 0.0092862 0)
(-0.040112 0.0161253 0)
(-0.0405654 0.0228726 0)
(-0.0409488 0.0295079 0)
(-0.0246695 0.0111572 0)
(-0.0255542 0.017785 0)
(-0.0264408 0.0243579 0)
(-0.0272836 0.0308589 0)
(-0.010641 0.0114066 0)
(-0.0105804 0.0186702 0)
(-0.0106864 0.0256485 0)
(-0.0109173 0.0323958 0)
(-0.489573 0.150573 0)
(-0.473839 0.172564 0)
(-0.466572 0.215738 0)
(-0.4461 0.240103 0)
(-0.427123 0.25204 0)
(-0.420307 0.295626 0)
(-0.395758 0.312832 0)
(-0.383199 0.346447 0)
(-0.360095 0.372682 0)
(-0.339331 0.401468 0)
(-0.314067 0.42875 0)
(-0.286953 0.45528 0)
(-0.256773 0.480338 0)
(-0.223811 0.503475 0)
(-0.187976 0.524167 0)
(-0.149438 0.541773 0)
(-0.108509 0.555651 0)
(-0.0656762 0.564336 0)
(-0.0217637 0.556354 0)
(-0.460497 0.136102 0)
(-0.454483 0.164289 0)
(-0.444806 0.205302 0)
(-0.413496 0.217618 0)
(-0.410955 0.244976 0)
(-0.390199 0.278957 0)
(-0.373388 0.298395 0)
(-0.356833 0.329365 0)
(-0.335779 0.35401 0)
(-0.314805 0.380714 0)
(-0.29063 0.405764 0)
(-0.264602 0.429962 0)
(-0.236006 0.452602 0)
(-0.205032 0.473334 0)
(-0.171663 0.491693 0)
(-0.136075 0.507168 0)
(-0.0985856 0.519229 0)
(-0.0597166 0.526685 0)
(-0.0198106 0.518168 0)
(-0.442764 0.132473 0)
(-0.429602 0.153661 0)
(-0.416559 0.185711 0)
(-0.3886 0.202301 0)
(-0.389335 0.237413 0)
(-0.363412 0.259848 0)
(-0.351321 0.285263 0)
(-0.332258 0.311808 0)
(-0.313038 0.335899 0)
(-0.292146 0.360529 0)
(-0.269134 0.383721 0)
(-0.244271 0.405888 0)
(-0.21727 0.426467 0)
(-0.188227 0.445166 0)
(-0.157181 0.461596 0)
(-0.124304 0.475359 0)
(-0.0898251 0.486012 0)
(-0.0542694 0.492534 0)
(-0.0179674 0.484119 0)
(-0.418954 0.115505 0)
(-0.402985 0.139139 0)
(-0.380437 0.168846 0)
(-0.377765 0.192736 0)
(-0.357805 0.223814 0)
(-0.343215 0.244023 0)
(-0.327785 0.271342 0)
(-0.309931 0.29473 0)
(-0.291429 0.318313 0)
(-0.271183 0.341064 0)
(-0.249291 0.362674 0)
(-0.225675 0.383075 0)
(-0.200253 0.401897 0)
(-0.173071 0.418876 0)
(-0.144196 0.433689 0)
(-0.113795 0.446028 0)
(-0.0820616 0.455532 0)
(-0.0493429 0.461186 0)
(-0.0162104 0.452886 0)
(-0.385067 0.102649 0)
(-0.376105 0.120499 0)
(-0.356312 0.15694 0)
(-0.357025 0.185132 0)
(-0.331041 0.2062 0)
(-0.323156 0.232095 0)
(-0.304886 0.25611 0)
(-0.289098 0.278782 0)
(-0.270928 0.301211 0)
(-0.251686 0.322474 0)
(-0.230885 0.342665 0)
(-0.208573 0.361537 0)
(-0.184702 0.378848 0)
(-0.159315 0.39436 0)
(-0.132491 0.407806 0)
(-0.104384 0.41893 0)
(-0.0752138 0.427451 0)
(-0.0452333 0.432447 0)
(-0.0148318 0.424157 0)
(-0.357178 0.0873602 0)
(-0.345631 0.108485 0)
(-0.340829 0.148039 0)
(-0.327453 0.172664 0)
(-0.311122 0.192296 0)
(-0.301047 0.219976 0)
(-0.283885 0.241308 0)
(-0.269074 0.2637 0)
(-0.251615 0.284776 0)
(-0.233427 0.304836 0)
(-0.21375 0.323735 0)
(-0.192763 0.34128 0)
(-0.170409 0.357284 0)
(-0.146749 0.371541 0)
(-0.121862 0.383836 0)
(-0.0958852 0.393957 0)
(-0.069027 0.401678 0)
(-0.041561 0.406241 0)
(-0.0136372 0.398179 0)
(-0.331101 0.0812817 0)
(-0.320396 0.101369 0)
(-0.320244 0.137331 0)
(-0.300696 0.159791 0)
(-0.291874 0.181312 0)
(-0.27901 0.207148 0)
(-0.264219 0.227682 0)
(-0.249817 0.249275 0)
(-0.233413 0.269192 0)
(-0.216248 0.288175 0)
(-0.197743 0.305912 0)
(-0.178074 0.322296 0)
(-0.157202 0.337161 0)
(-0.135191 0.350339 0)
(-0.112124 0.361656 0)
(-0.0881225 0.370942 0)
(-0.0633576 0.378005 0)
(-0.0381123 0.382178 0)
(-0.0124852 0.374384 0)
(-0.308564 0.0727462 0)
(-0.297064 0.0970831 0)
(-0.296291 0.1268 0)
(-0.27855 0.148749 0)
(-0.271478 0.171384 0)
(-0.258324 0.194746 0)
(-0.245298 0.215095 0)
(-0.231446 0.235584 0)
(-0.216185 0.25454 0)
(-0.20005 0.27251 0)
(-0.182738 0.289208 0)
(-0.16437 0.304562 0)
(-0.144937 0.318428 0)
(-0.124504 0.330668 0)
(-0.103151 0.341139 0)
(-0.0809909 0.349704 0)
(-0.05817 0.356199 0)
(-0.0349448 0.360001 0)
(-0.011421 0.35244 0)
(-0.28569 0.0669057 0)
(-0.275179 0.0916549 0)
(-0.272363 0.117815 0)
(-0.258581 0.139465 0)
(-0.251045 0.161914 0)
(-0.238948 0.183435 0)
(-0.227052 0.203376 0)
(-0.213987 0.222764 0)
(-0.199833 0.240842 0)
(-0.184752 0.257862 0)
(-0.168629 0.273621 0)
(-0.15154 0.288052 0)
(-0.133501 0.301033 0)
(-0.114576 0.31245 0)
(-0.0948443 0.322183 0)
(-0.07441 0.330119 0)
(-0.0534045 0.336123 0)
(-0.0320536 0.339625 0)
(-0.0104567 0.332331 0)
(-0.263228 0.0617633 0)
(-0.253934 0.0860497 0)
(-0.249999 0.109995 0)
(-0.23926 0.13131 0)
(-0.231396 0.152933 0)
(-0.220578 0.173216 0)
(-0.20956 0.192481 0)
(-0.197404 0.210872 0)
(-0.184302 0.228103 0)
(-0.170285 0.244237 0)
(-0.15533 0.259138 0)
(-0.13949 0.272735 0)
(-0.122797 0.284927 0)
(-0.105314 0.295616 0)
(-0.0871179 0.304703 0)
(-0.0683048 0.312092 0)
(-0.0489932 0.317673 0)
(-0.0293862 0.320932 0)
(-0.00957159 0.313937 0)
(-0.241408 0.0575171 0)
(-0.233496 0.0807444 0)
(-0.22915 0.103206 0)
(-0.220414 0.123948 0)
(-0.212702 0.14458 0)
(-0.203037 0.163924 0)
(-0.19285 0.182399 0)
(-0.181636 0.199896 0)
(-0.169545 0.216312 0)
(-0.156585 0.231623 0)
(-0.14277 0.245735 0)
(-0.128142 0.258576 0)
(-0.112746 0.27006 0)
(-0.0966401 0.280101 0)
(-0.0799 0.288616 0)
(-0.0626135 0.295526 0)
(-0.0448884 0.300737 0)
(-0.0269096 0.303788 0)
(-0.00875228 0.297095 0)
(-0.220491 0.0538675 0)
(-0.213884 0.0759742 0)
(-0.209538 0.0972758 0)
(-0.202182 0.117298 0)
(-0.194923 0.136945 0)
(-0.186259 0.155459 0)
(-0.176904 0.173126 0)
(-0.166623 0.189806 0)
(-0.155515 0.205448 0)
(-0.143593 0.219999 0)
(-0.130884 0.233385 0)
(-0.117431 0.245537 0)
(-0.10328 0.256379 0)
(-0.0884903 0.265839 0)
(-0.0731321 0.273846 0)
(-0.0572872 0.280331 0)
(-0.0410534 0.285216 0)
(-0.0246003 0.288087 0)
(-0.00799111 0.281688 0)
(-0.200544 0.0507568 0)
(-0.195098 0.0717671 0)
(-0.190958 0.0920648 0)
(-0.184652 0.111315 0)
(-0.177985 0.130041 0)
(-0.170213 0.147771 0)
(-0.161686 0.164655 0)
(-0.152316 0.180575 0)
(-0.142163 0.195488 0)
(-0.131253 0.209336 0)
(-0.119617 0.222052 0)
(-0.107298 0.233574 0)
(-0.094343 0.243836 0)
(-0.0808098 0.252773 0)
(-0.0667651 0.260324 0)
(-0.0522845 0.26643 0)
(-0.037457 0.271026 0)
(-0.0224379 0.273739 0)
(-0.00728023 0.267626 0)
(-0.181552 0.0481089 0)
(-0.177106 0.0681041 0)
(-0.173283 0.087485 0)
(-0.167841 0.105963 0)
(-0.161819 0.123842 0)
(-0.154867 0.140825 0)
(-0.147155 0.156966 0)
(-0.138666 0.172177 0)
(-0.129443 0.186408 0)
(-0.119515 0.199603 0)
(-0.108917 0.211703 0)
(-0.0976908 0.222649 0)
(-0.0858841 0.232382 0)
(-0.0735519 0.240846 0)
(-0.0607573 0.247986 0)
(-0.0475704 0.253753 0)
(-0.0340721 0.25809 0)
(-0.0204049 0.260666 0)
(-0.00661378 0.254824 0)
(-0.163462 0.0458734 0)
(-0.159867 0.0649477 0)
(-0.156424 0.0834817 0)
(-0.15173 0.101216 0)
(-0.146364 0.118316 0)
(-0.140182 0.134591 0)
(-0.133266 0.150037 0)
(-0.125631 0.164584 0)
(-0.117309 0.178181 0)
(-0.108333 0.190772 0)
(-0.0987374 0.202303 0)
(-0.0885643 0.21272 0)
(-0.0778596 0.221971 0)
(-0.066676 0.230005 0)
(-0.0550727 0.236774 0)
(-0.0431149 0.242236 0)
(-0.0308763 0.246341 0)
(-0.0184874 0.248794 0)
(-0.00598645 0.243209 0)
(-0.146199 0.0440127 0)
(-0.143331 0.0622611 0)
(-0.140305 0.0800165 0)
(-0.136282 0.0970479 0)
(-0.131566 0.113435 0)
(-0.126118 0.129044 0)
(-0.119976 0.143844 0)
(-0.113167 0.157773 0)
(-0.105719 0.170779 0)
(-0.0976636 0.182811 0)
(-0.0890366 0.193817 0)
(-0.0798775 0.203749 0)
(-0.0702309 0.212559 0)
(-0.0601467 0.220201 0)
(-0.0496804 0.226633 0)
(-0.0388924 0.231819 0)
(-0.02785 0.235715 0)
(-0.016673 0.238059 0)
(-0.00539447 0.232713 0)
(-0.129682 0.0425003 0)
(-0.127443 0.0600145 0)
(-0.124854 0.0770608 0)
(-0.121451 0.0934393 0)
(-0.117374 0.109173 0)
(-0.112631 0.124162 0)
(-0.107241 0.138362 0)
(-0.101233 0.151717 0)
(-0.0946318 0.164176 0)
(-0.0874682 0.175691 0)
(-0.0797762 0.186214 0)
(-0.0715939 0.1957 0)
(-0.0629637 0.204105 0)
(-0.0539328 0.21139 0)
(-0.0445532 0.217516 0)
(-0.0348807 0.222452 0)
(-0.024977 0.226158 0)
(-0.0149515 0.228403 0)
(-0.00483411 0.223277 0)
(-0.113829 0.0413197 0)
(-0.112144 0.0581871 0)
(-0.110007 0.0745943 0)
(-0.10719 0.0903731 0)
(-0.103738 0.105509 0)
(-0.0996788 0.119926 0)
(-0.0950208 0.133571 0)
(-0.0897902 0.146394 0)
(-0.0840103 0.158346 0)
(-0.0777099 0.169382 0)
(-0.0709212 0.179459 0)
(-0.0636803 0.188533 0)
(-0.0560274 0.196568 0)
(-0.048007 0.203525 0)
(-0.0396674 0.209371 0)
(-0.0310606 0.214077 0)
(-0.022243 0.217612 0)
(-0.0133139 0.219767 0)
(-0.0043025 0.21484 0)
(-0.0985568 0.0404633 0)
(-0.0973735 0.0567668 0)
(-0.0957006 0.0726042 0)
(-0.0934483 0.087837 0)
(-0.090612 0.10243 0)
(-0.0872189 0.116319 0)
(-0.0832745 0.129452 0)
(-0.0788006 0.141784 0)
(-0.0738182 0.153268 0)
(-0.068354 0.163863 0)
(-0.0624383 0.173529 0)
(-0.0561052 0.182227 0)
(-0.0493928 0.189921 0)
(-0.0423426 0.19658 0)
(-0.0349999 0.202172 0)
(-0.027413 0.206671 0)
(-0.0196338 0.210049 0)
(-0.0117516 0.212124 0)
(-0.00379597 0.207376 0)
(-0.0837833 0.0399334 0)
(-0.0830715 0.0557513 0)
(-0.0818763 0.0710855 0)
(-0.0801794 0.0858247 0)
(-0.0779518 0.0999232 0)
(-0.0752141 0.113327 0)
(-0.0719693 0.125988 0)
(-0.068235 0.137864 0)
(-0.0640301 0.148912 0)
(-0.0593789 0.159096 0)
(-0.0543097 0.168378 0)
(-0.0488545 0.176724 0)
(-0.0430489 0.184102 0)
(-0.0369318 0.190481 0)
(-0.0305453 0.195836 0)
(-0.0239346 0.200142 0)
(-0.017147 0.203376 0)
(-0.0102637 0.205374 0)
(-0.00331473 0.200785 0)
(-0.069429 0.0397397 0)
(-0.0691783 0.0551435 0)
(-0.0684763 0.0700349 0)
(-0.0673317 0.0843285 0)
(-0.0657052 0.0979773 0)
(-0.0636081 0.110937 0)
(-0.0610423 0.123164 0)
(-0.058022 0.134622 0)
(-0.054565 0.145273 0)
(-0.0506946 0.155084 0)
(-0.046438 0.16402 0)
(-0.0418264 0.172051 0)
(-0.0368936 0.179146 0)
(-0.0316766 0.185279 0)
(-0.0262149 0.190424 0)
(-0.02055 0.19456 0)
(-0.0147272 0.197665 0)
(-0.00881437 0.199602 0)
(-0.0028449 0.195149 0)
(-0.0554247 0.0399165 0)
(-0.0556533 0.0549767 0)
(-0.0554827 0.0694846 0)
(-0.0549219 0.0833782 0)
(-0.0539293 0.0966158 0)
(-0.0525064 0.109162 0)
(-0.0506516 0.120981 0)
(-0.0483735 0.132039 0)
(-0.0456853 0.142307 0)
(-0.0426061 0.151754 0)
(-0.0391598 0.160351 0)
(-0.0353745 0.168071 0)
(-0.0312816 0.174887 0)
(-0.0269157 0.180775 0)
(-0.0223138 0.185713 0)
(-0.0175162 0.189682 0)
(-0.012563 0.192663 0)
(-0.0075248 0.194527 0)
(-0.00242716 0.190193 0)
(-0.0416397 0.0404412 0)
(-0.0423089 0.0552015 0)
(-0.0425961 0.0693616 0)
(-0.0425013 0.0828861 0)
(-0.0419938 0.0957459 0)
(-0.0410801 0.107917 0)
(-0.0397712 0.11937 0)
(-0.0380844 0.130078 0)
(-0.0360397 0.140014 0)
(-0.0336595 0.14915 0)
(-0.0309684 0.15746 0)
(-0.027993 0.164917 0)
(-0.0247613 0.171497 0)
(-0.0213029 0.177176 0)
(-0.0176513 0.181932 0)
(-0.0138466 0.185752 0)
(-0.00993163 0.18862 0)
(-0.00594324 0.190437 0)
(-0.00191765 0.186202 0)
(-0.0286177 0.0416059 0)
(-0.0302394 0.0560894 0)
(-0.0315303 0.0699182 0)
(-0.0324537 0.0830792 0)
(-0.0329532 0.0955581 0)
(-0.0329923 0.107342 0)
(-0.0325401 0.118417 0)
(-0.0316265 0.128767 0)
(-0.0302865 0.138369 0)
(-0.0285625 0.147198 0)
(-0.0264962 0.15523 0)
(-0.0241284 0.162441 0)
(-0.0214977 0.168809 0)
(-0.01864 0.174313 0)
(-0.0155856 0.178935 0)
(-0.012354 0.182661 0)
(-0.0088967 0.185448 0)
(-0.00536218 0.187181 0)
(-0.00171489 0.183022 0)
(-0.0115885 0.0433558 0)
(-0.0126557 0.0577835 0)
(-0.01369 0.0713787 0)
(-0.0145854 0.0842032 0)
(-0.0152802 0.0962852 0)
(-0.0157511 0.107638 0)
(-0.0159954 0.118266 0)
(-0.0159816 0.128165 0)
(-0.0156957 0.137327 0)
(-0.0151334 0.145739 0)
(-0.0143014 0.153383 0)
(-0.0132153 0.160241 0)
(-0.0118969 0.166291 0)
(-0.0103723 0.171511 0)
(-0.00866973 0.175879 0)
(-0.0068223 0.179371 0)
(-0.00488754 0.182013 0)
(-0.00295828 0.183661 0)
(-0.000938917 0.17958 0)
)
;

boundaryField
{
    leftWall
    {
        type            fixedValue;
        value           nonuniform 0();
    }
    rightWall
    {
        type            fixedValue;
        value           uniform (0 0 0);
    }
    lowerWall
    {
        type            fixedValue;
        value           nonuniform 0();
    }
    atmosphere
    {
        type            fluxCorrectedVelocity;
        value           nonuniform List<vector> 
23
(
(-0.010641 0.0113981 0)
(-0.0105804 0.0186663 0)
(-0.0106864 0.0256488 0)
(-0.0109173 0.032399 0)
(-0.0115885 0.0433615 0)
(-0.0126557 0.0577903 0)
(-0.01369 0.071386 0)
(-0.0145854 0.0842106 0)
(-0.0152802 0.096293 0)
(-0.0157511 0.107647 0)
(-0.0159954 0.118274 0)
(-0.0159816 0.128172 0)
(-0.0156957 0.137333 0)
(-0.0151334 0.145744 0)
(-0.0143014 0.153387 0)
(-0.0132153 0.160243 0)
(-0.0118969 0.166293 0)
(-0.0103723 0.171513 0)
(-0.00866973 0.17588 0)
(-0.0068223 0.179372 0)
(-0.00488754 0.182015 0)
(-0.00295828 0.183663 0)
(-0.000938917 0.179582 0)
)
;
    }
    defaultFaces
    {
        type            empty;
    }
    procBoundary3to1
    {
        type            processor;
        value           nonuniform List<vector> 
23
(
(-0.556968 0.141678 0)
(-0.558415 0.152539 0)
(-0.555558 0.161908 0)
(-0.548342 0.166221 0)
(-0.52773 0.177204 0)
(-0.489612 0.190983 0)
(-0.485776 0.222395 0)
(-0.477928 0.251995 0)
(-0.445666 0.268393 0)
(-0.451398 0.305896 0)
(-0.41942 0.329366 0)
(-0.411384 0.362633 0)
(-0.38632 0.391762 0)
(-0.365985 0.422664 0)
(-0.339769 0.4526 0)
(-0.311651 0.481801 0)
(-0.279929 0.509669 0)
(-0.244955 0.535652 0)
(-0.20654 0.559163 0)
(-0.164812 0.579386 0)
(-0.120077 0.595489 0)
(-0.0730079 0.605794 0)
(-0.0243514 0.598078 0)
)
;
    }
    procBoundary3to2
    {
        type            processor;
        value           nonuniform List<vector> 
25
(
(-0.565723 0.0970127 0)
(-0.533912 0.0681653 0)
(-0.481082 0.0332467 0)
(-0.438972 0.0109873 0)
(-0.414065 0.0051718 0)
(-0.38841 -0.00213378 0)
(-0.357179 0.00261912 0)
(-0.326679 -0.00267706 0)
(-0.29824 -0.00343106 0)
(-0.27249 -0.00558433 0)
(-0.248325 -0.0065151 0)
(-0.225837 -0.00707654 0)
(-0.204696 -0.0072254 0)
(-0.184773 -0.00710773 0)
(-0.165906 -0.0068044 0)
(-0.147971 -0.00636865 0)
(-0.130842 -0.00583878 0)
(-0.114408 -0.00523389 0)
(-0.0985609 -0.00456731 0)
(-0.0831926 -0.00384026 0)
(-0.0681966 -0.00305906 0)
(-0.0534489 -0.0021025 0)
(-0.0388565 -0.00158014 0)
(-0.0239827 0.000806062 0)
(-0.0106 2.92277e-05 0)
)
;
    }
}


// ************************************************************************* //
