/*--------------------------------*- C++ -*----------------------------------*\
| =========                 |                                                 |
| \\      /  F ield         | OpenFOAM: The Open Source CFD Toolbox           |
|  \\    /   O peration     | Version:  2.4.0                                 |
|   \\  /    A nd           | Web:      www.OpenFOAM.org                      |
|    \\/     M anipulation  |                                                 |
\*---------------------------------------------------------------------------*/
FoamFile
{
    version     2.0;
    format      ascii;
    class       volScalarField;
    location    "0.4";
    object      alpha.water;
}
// * * * * * * * * * * * * * * * * * * * * * * * * * * * * * * * * * * * * * //

dimensions      [0 0 0 0 0 0 0];

internalField   nonuniform List<scalar> 
575
(
3.97753e-10
3.39214e-10
3.07106e-10
4.46316e-10
3.13762e-10
6.60668e-10
7.20559e-10
6.56139e-10
9.82404e-10
1.68253e-09
2.27642e-09
2.324e-09
2.27404e-09
2.3518e-09
2.558e-09
2.81172e-09
2.84936e-09
2.73453e-09
2.35784e-09
1.64775e-09
6.99e-10
1.7642e-10
4.46607e-09
3.95296e-09
3.74066e-09
5.16107e-09
4.07593e-09
6.84923e-09
7.74001e-09
7.39423e-09
9.80581e-09
1.39264e-08
1.70826e-08
1.7217e-08
1.71964e-08
1.72857e-08
1.74386e-08
1.68871e-08
1.554e-08
1.31498e-08
9.56715e-09
5.03345e-09
1.95747e-09
1.02532e-09
2.37943e-08
2.2e-08
2.17279e-08
2.73777e-08
2.45598e-08
3.32965e-08
3.70342e-08
3.71824e-08
4.3839e-08
5.25026e-08
5.88268e-08
6.01509e-08
6.42538e-08
6.53594e-08
7.10831e-08
7.10494e-08
6.82475e-08
5.71346e-08
3.90572e-08
1.8034e-08
1.43443e-08
1.64266e-08
1.64026e-07
1.75381e-07
1.69443e-07
3.8711e-07
2.27868e-07
6.21515e-07
9.7402e-07
1.00666e-06
2.35915e-06
5.68108e-06
1.36791e-05
2.06359e-05
3.98066e-05
5.97649e-05
0.000102741
6.39303e-05
2.96181e-05
1.25421e-05
4.60458e-06
1.08225e-06
2.20478e-07
1.60493e-07
0.000168546
0.000184087
0.000184835
0.000335101
0.000248103
0.000499551
0.000762858
0.000910175
0.00168178
0.00304399
0.0056632
0.00824031
0.0132021
0.0188609
0.027641
0.0201385
0.00745201
0.00144892
0.000163174
1.68753e-05
1.87208e-06
1.22598e-06
0.0230926
0.0243672
0.0251172
0.0337857
0.0318313
0.0453588
0.0606288
0.0732707
0.103987
0.146797
0.209541
0.266899
0.343085
0.43021
0.520849
0.582119
0.518429
0.311154
0.0703274
0.00524494
0.000157794
5.38807e-06
0.369008
0.378504
0.389084
0.434028
0.444285
0.507288
0.576215
0.634573
0.717085
0.800251
0.878259
0.930132
0.966718
0.987625
0.996712
0.999551
0.993005
0.924915
0.564714
0.0953841
0.00412026
7.20272e-05
0.917107
0.921551
0.928015
0.942108
0.950536
0.966416
0.979571
0.988512
0.994886
0.998036
0.99936
0.999786
0.999916
0.999962
0.99998
0.999959
0.999859
0.99896
0.948726
0.470196
0.0454007
0.000853886
0.995501
0.995765
0.996204
0.996842
0.997473
0.998259
0.998894
0.999367
0.99968
0.999844
0.999924
0.999961
0.999975
0.999983
0.999982
0.999973
0.999881
0.999247
0.993312
0.899343
0.351049
0.0435823
0.999985
0.999985
0.999987
0.999988
0.99999
0.999992
0.999994
0.999995
0.999997
0.999998
0.999998
0.999998
0.999998
0.999997
0.999996
0.999991
0.999952
0.999578
0.997434
0.990466
0.84741
0.355252
0.999999
0.999999
0.999999
0.999999
0.999999
0.999999
0.999999
0.999999
0.999999
0.999999
0.999999
0.999998
0.999991
0.999963
0.999956
0.99996
0.99996
0.999919
0.99949
0.996804
0.978069
0.827896
1
1
1
1
1
1
1
1
0.999997
0.999927
0.999661
0.999083
0.997676
0.993981
0.991974
0.991297
0.993973
0.996923
0.998839
0.998649
0.994179
0.975208
0.999807
0.99981
0.99983
0.99986
0.999899
0.999938
0.999977
0.99997
0.999079
0.990733
0.975379
0.95429
0.918035
0.86003
0.817983
0.789362
0.818977
0.872665
0.925878
0.961823
0.983718
0.983269
0.959007
0.959584
0.96208
0.966161
0.972185
0.979891
0.989686
0.995238
0.969507
0.86174
0.743072
0.626263
0.4883
0.344921
0.254359
0.197257
0.199316
0.254256
0.367178
0.503016
0.6796
0.822564
0.371338
0.373023
0.382764
0.401072
0.432802
0.491144
0.630318
0.81368
0.782759
0.518245
0.31734
0.180223
0.0680492
0.0207079
0.00910826
0.00547218
0.00443555
0.00406362
0.00873042
0.0241652
0.144898
0.314306
0.000400926
0.0003985
0.000431767
0.000513774
0.000706849
0.00117129
0.0046515
0.0579953
0.142486
0.0507258
0.0114723
0.00284152
0.000775185
0.000378834
0.000222728
0.000134891
8.70696e-05
6.93757e-05
9.81417e-05
9.97602e-05
0.00406375
0.0116353
4.16847e-07
3.19274e-07
2.70763e-07
2.05153e-07
2.74644e-08
1.19418e-07
5.38923e-06
1.76805e-05
2.78192e-05
5.18348e-06
5.6235e-06
6.96194e-06
9.39306e-06
1.213e-05
1.08566e-05
8.17187e-06
4.65872e-06
2.01366e-06
1.24291e-06
9.61244e-07
1.10084e-05
4.08647e-05
0.000263065
1.95582e-07
7.75461e-08
5.17796e-08
2.68344e-08
2.43844e-09
1.08695e-09
6.90442e-09
1.98499e-08
1.40028e-08
1.38882e-08
1.36614e-08
9.55064e-09
3.96337e-09
3.17811e-09
3.12798e-09
4.40595e-09
3.74127e-09
1.79981e-09
1.70646e-09
1.14739e-09
2.87643e-08
5.65298e-07
4.89286e-06
5.30249e-08
3.60397e-08
3.20648e-08
2.10523e-08
3.27301e-09
6.42236e-10
6.11563e-10
2.1189e-09
1.67437e-08
1.78776e-08
4.52427e-09
6.43442e-10
1.42621e-10
1.11521e-10
8.23761e-11
1.29831e-10
1.47344e-10
7.59787e-11
2.07778e-11
6.10304e-12
3.15785e-12
3.31309e-12
1.69914e-10
5.44137e-08
2.68996e-08
2.00505e-08
1.40406e-08
3.78125e-09
7.44355e-10
5.09427e-10
1.52684e-09
8.41446e-09
1.62995e-08
4.97019e-09
1.10547e-09
1.88775e-10
8.93464e-11
3.77457e-11
1.15866e-11
5.48948e-12
2.87738e-12
3.21807e-12
3.34178e-12
1.90383e-12
1.00508e-12
6.44177e-13
2.67507e-08
9.21917e-09
3.6313e-09
2.0237e-09
1.04444e-09
5.08438e-10
2.33919e-10
1.43272e-10
2.80238e-10
2.39772e-09
9.72782e-10
1.57528e-10
9.38858e-11
5.0974e-11
2.01111e-11
7.84572e-12
3.06855e-12
1.31561e-12
5.62594e-13
2.08628e-13
9.55481e-14
1.08306e-13
1.34332e-13
3.64048e-09
1.62173e-09
2.32934e-10
8.16138e-11
6.76469e-11
8.89888e-11
1.14046e-10
5.12949e-11
3.66509e-11
3.99753e-11
3.46298e-11
3.18353e-11
2.28565e-11
8.03467e-12
2.36777e-12
5.06092e-13
1.15242e-13
3.23327e-14
1.94626e-14
2.61483e-14
5.32449e-14
9.05072e-14
1.05506e-13
1.6544e-10
2.24351e-10
3.81375e-11
1.8929e-11
1.5295e-11
1.766e-11
2.20906e-11
2.98303e-11
2.80033e-11
2.66721e-11
2.19682e-11
1.52064e-11
7.92185e-12
1.95648e-12
1.5329e-13
3.23026e-15
3.31381e-15
6.84831e-15
1.52473e-14
2.87179e-14
4.14896e-14
4.40956e-14
3.33121e-14
1.93664e-11
3.13955e-11
1.57082e-11
9.02111e-12
6.57164e-12
6.38062e-12
7.55361e-12
1.02203e-11
1.08136e-11
1.07909e-11
7.55606e-12
4.78622e-12
2.10765e-12
5.35043e-13
4.29029e-14
4.85447e-16
9.39632e-16
1.97807e-15
3.81116e-15
6.16328e-15
8.09314e-15
8.39013e-15
6.10735e-15
5.51051e-12
8.52263e-12
4.57228e-12
2.93622e-12
2.18831e-12
2.07898e-12
2.54348e-12
3.26503e-12
3.37594e-12
3.04575e-12
2.37782e-12
1.40966e-12
5.6686e-13
1.43718e-13
1.36348e-14
5.43832e-17
1.13592e-16
2.37453e-16
4.49801e-16
7.4248e-16
9.94288e-16
1.03695e-15
8.1294e-16
1.1327e-12
1.61185e-12
8.22117e-13
5.3937e-13
4.05073e-13
4.04777e-13
5.64187e-13
7.72979e-13
8.51052e-13
7.74691e-13
6.24179e-13
3.83746e-13
1.58871e-13
4.11502e-14
4.12474e-15
2.37875e-18
)
;

boundaryField
{
    leftWall
    {
        type            zeroGradient;
    }
    rightWall
    {
        type            zeroGradient;
    }
    lowerWall
    {
        type            zeroGradient;
    }
    atmosphere
    {
        type            inletOutlet;
        inletValue      nonuniform 0();
        value           nonuniform 0();
    }
    defaultFaces
    {
        type            empty;
    }
    procBoundary0to1
    {
        type            processor;
        value           nonuniform List<scalar> 
26
(
9.16745e-11
6.81562e-10
1.28753e-08
7.47711e-08
3.0608e-07
1.33304e-06
1.6387e-05
1.64598e-05
0.00197148
0.0707352
0.433477
0.867175
0.97472
0.894108
0.466244
0.0188695
0.0188695
0.000424431
8.96261e-06
7.86443e-10
5.03519e-13
1.35538e-13
1.07364e-13
1.32148e-14
2.183e-15
4.81817e-16
)
;
    }
    procBoundary0to2
    {
        type            processor;
        value           nonuniform List<scalar> 
24
(
5.40177e-18
1.13871e-17
2.20976e-17
3.9226e-17
6.03312e-17
7.87143e-17
9.15722e-17
7.80979e-14
1.27737e-13
6.55965e-14
4.16044e-14
2.55514e-14
3.1922e-14
6.60404e-14
1.09099e-13
1.29861e-13
1.19897e-13
9.92586e-14
6.55583e-14
2.84622e-14
7.45314e-15
7.24621e-16
5.40177e-18
1.05665e-19
)
;
    }
}


// ************************************************************************* //
