/*--------------------------------*- C++ -*----------------------------------*\
| =========                 |                                                 |
| \\      /  F ield         | OpenFOAM: The Open Source CFD Toolbox           |
|  \\    /   O peration     | Version:  2.4.0                                 |
|   \\  /    A nd           | Web:      www.OpenFOAM.org                      |
|    \\/     M anipulation  |                                                 |
\*---------------------------------------------------------------------------*/
FoamFile
{
    version     2.0;
    format      ascii;
    class       volScalarField;
    location    "0.4";
    object      alpha.air;
}
// * * * * * * * * * * * * * * * * * * * * * * * * * * * * * * * * * * * * * //

dimensions      [0 0 0 0 0 0 0];

internalField   nonuniform List<scalar> 
575
(
2.28168e-15
2.31641e-15
2.13066e-15
3.17137e-15
1.9108e-15
3.86696e-15
3.72969e-15
2.79761e-15
3.66803e-15
6.2184e-15
8.10489e-15
7.07427e-15
5.61229e-15
4.8919e-15
5.09221e-15
5.86647e-15
5.40085e-15
4.2345e-15
2.89557e-15
1.71501e-15
8.39679e-16
3.01847e-16
3.51906e-14
3.55907e-14
3.3337e-14
4.53684e-14
3.10775e-14
5.18375e-14
5.09615e-14
4.23001e-14
5.31442e-14
7.71711e-14
9.3914e-14
8.49871e-14
7.41345e-14
6.81474e-14
6.96805e-14
7.09723e-14
6.17188e-14
4.70427e-14
3.11672e-14
1.7507e-14
7.72477e-15
2.55177e-15
2.49521e-13
2.50515e-13
2.38734e-13
2.97116e-13
2.29487e-13
3.22417e-13
3.2144e-13
2.91581e-13
3.49193e-13
4.41579e-13
4.99205e-13
4.76435e-13
4.58898e-13
4.38315e-13
4.30132e-13
4.00277e-13
3.35958e-13
2.49781e-13
1.62816e-13
8.73613e-14
3.78481e-14
1.24202e-14
1.06627e-12
1.06221e-12
1.02669e-12
1.18069e-12
1.00145e-12
1.22275e-12
1.22235e-12
1.16744e-12
1.32277e-12
1.51028e-12
1.63463e-12
1.63099e-12
1.6263e-12
1.56944e-12
1.50149e-12
1.35081e-12
1.11777e-12
8.3421e-13
5.39558e-13
2.87224e-13
1.22478e-13
3.82935e-14
3.17655e-12
3.15383e-12
3.09869e-12
3.38286e-12
3.00828e-12
3.25248e-12
3.15253e-12
3.01863e-12
3.13586e-12
3.43406e-12
3.60907e-12
3.61344e-12
3.55359e-12
3.43067e-12
3.23085e-12
2.92162e-12
2.49591e-12
1.94678e-12
1.30639e-12
7.36857e-13
3.41842e-13
1.19472e-13
8.91331e-12
8.73637e-12
8.87095e-12
9.60376e-12
8.51522e-12
8.08982e-12
7.00281e-12
5.88587e-12
5.09877e-12
5.71018e-12
5.61469e-12
5.39385e-12
5.23022e-12
5.43608e-12
4.82027e-12
4.29227e-12
3.78659e-12
3.14914e-12
2.25888e-12
1.35802e-12
6.84451e-13
2.75839e-13
3.55098e-11
3.39741e-11
3.66802e-11
4.02676e-11
3.58111e-11
2.93429e-11
2.22834e-11
1.41295e-11
6.76402e-12
8.84585e-12
6.86079e-12
6.04697e-12
7.49817e-12
1.1369e-11
8.79094e-12
6.56654e-12
4.27796e-12
3.47164e-12
2.66983e-12
1.73444e-12
9.65541e-13
4.45886e-13
1.59382e-10
1.79965e-10
2.13554e-10
2.21976e-10
2.06612e-10
1.67856e-10
9.96976e-11
5.16615e-11
6.93247e-12
6.64894e-12
6.47996e-12
6.26307e-12
3.39905e-11
1.23113e-10
5.86753e-11
4.09624e-11
7.98571e-12
3.38649e-12
2.76878e-12
1.95964e-12
1.12335e-12
5.71359e-13
6.20074e-10
6.65703e-10
7.30244e-10
7.64033e-10
7.78944e-10
7.84396e-10
7.22249e-10
6.40976e-10
6.22115e-10
7.4902e-10
1.10449e-09
1.6904e-09
3.0237e-09
4.37055e-09
3.72799e-09
2.37053e-09
1.06633e-09
2.54494e-10
3.27444e-11
1.14588e-11
3.65126e-12
1.37669e-12
1.54074e-09
1.64133e-09
1.76621e-09
1.85342e-09
1.94969e-09
2.08103e-09
2.14436e-09
2.40092e-09
3.45522e-09
5.02989e-09
7.40405e-09
9.39633e-09
1.12608e-08
1.26869e-08
1.27129e-08
1.00606e-08
5.17559e-09
2.16011e-09
6.93904e-10
1.92166e-10
5.71113e-11
9.26029e-12
9.89458e-09
9.84132e-09
9.11566e-09
8.25448e-09
7.45641e-09
7.08062e-09
9.69716e-09
1.47248e-08
1.53277e-08
1.21566e-08
1.23356e-08
1.23443e-08
1.17726e-08
1.14719e-08
1.29823e-08
1.34839e-08
1.2227e-08
6.53213e-09
2.88618e-09
1.07766e-09
2.94406e-10
1.60955e-10
1.36471e-07
1.32755e-07
1.2075e-07
1.0558e-07
8.86568e-08
7.24931e-08
8.95655e-08
5.89485e-08
2.87245e-08
1.66821e-08
1.28172e-08
9.68633e-09
6.37861e-09
3.77783e-09
2.71182e-09
2.71205e-09
3.09439e-09
3.02544e-09
2.50993e-09
2.12717e-09
1.33194e-09
6.54351e-10
0.000193262
0.000190146
0.000169662
0.000139588
0.000100854
6.1545e-05
2.27875e-05
5.35369e-06
1.58806e-06
1.18777e-06
7.12457e-07
2.61858e-07
9.83891e-08
4.57431e-08
2.17387e-08
9.98676e-09
3.26978e-09
1.25862e-09
1.25274e-09
1.12692e-09
8.94599e-10
7.58697e-10
0.0409928
0.0404156
0.0379197
0.0338388
0.0278147
0.0201092
0.010298
0.00299679
0.0009086
0.000922196
0.000568211
0.000192522
5.65342e-05
1.71202e-05
6.97594e-06
3.95813e-06
2.20917e-06
1.37136e-06
2.46897e-07
9.95462e-09
7.88748e-10
5.05783e-10
0.628662
0.626977
0.617236
0.598928
0.567198
0.508855
0.369593
0.173828
0.0740027
0.0765039
0.0520525
0.0221522
0.00794106
0.00246844
0.00105115
0.000594117
0.000931303
0.00129222
0.000202336
0.000236166
3.29818e-05
6.77618e-07
0.999599
0.999601
0.999568
0.999486
0.999292
0.998826
0.995271
0.926027
0.686258
0.573381
0.426218
0.288482
0.193218
0.113967
0.0697372
0.0389774
0.0221747
0.0139481
0.00561063
0.00497641
0.000970159
0.000934289
0.999999
0.999999
0.999999
0.999999
0.999999
0.999993
0.999882
0.999526
0.998946
0.99777
0.993455
0.98329
0.958843
0.906948
0.840797
0.748216
0.63295
0.498726
0.323823
0.255377
0.0755347
0.055076
0.0479405
0.999999
0.999999
0.999999
0.999999
0.999997
0.999992
0.999995
0.999997
0.999997
0.999997
0.999999
1
0.999999
0.999999
0.999999
0.999998
0.999986
0.999655
0.990897
0.974218
0.831729
0.747892
0.700883
0.999999
0.999999
0.999999
0.999999
0.999999
0.999999
0.999999
0.999999
1
1
1
1
1
1
0.999999
0.999999
1
1
1
1
0.999999
0.999993
0.999976
0.999999
0.999998
0.999998
0.999999
0.999999
0.999999
0.999999
0.999999
0.999999
1
1
1
1
0.999999
0.999999
0.999999
0.999999
1
1
1
1
1
1
0.999998
0.999998
0.999998
0.999999
0.999999
0.999999
0.999999
0.999999
0.999999
0.999999
1
1
0.999999
0.999999
0.999999
0.999999
0.999999
0.999999
1
1
1
1
1
0.999998
0.999998
0.999998
0.999999
0.999999
0.999999
0.999999
0.999999
0.999999
1
1
1
0.999999
0.999999
0.999999
0.999999
0.999999
1
1
1
1
1
1
0.999998
0.999999
0.999999
0.999999
0.999999
0.999999
0.999999
1
1
1
1
1
0.999999
0.999999
0.999999
1
1
1
1
1
1
0.999999
0.999999
0.999999
0.999999
0.999999
0.999999
0.999999
0.999999
0.999999
1
1
1
1
1
1
1
1
1
1
1
1
0.999999
0.999999
0.999999
0.999999
0.999999
0.999999
0.999999
0.999999
0.999999
0.999999
1
1
1
1
1
1
1
1
1
1
1
1
1
1
0.999999
0.999999
0.999999
0.999999
0.999999
0.999999
0.999999
0.999999
1
1
1
1
1
1
1
1
1
1
1
)
;

boundaryField
{
    leftWall
    {
        type            alphaContactAngle;
        thetaProperties 
6
(

(
water
mercury
)
 90 0 0 0

(
water
air
)
 90 0 0 0

(
water
oil
)
 90 0 0 0

(
mercury
air
)
 90 0 0 0

(
oil
mercury
)
 90 0 0 0

(
oil
air
)
 90 0 0 0
);
        value           nonuniform List<scalar> 
26
(
2.28168e-15
3.51906e-14
2.49521e-13
1.06627e-12
3.17655e-12
8.91331e-12
3.55098e-11
1.59382e-10
6.20074e-10
1.54074e-09
9.89458e-09
1.36471e-07
0.000193262
0.0409928
0.628662
0.999599
0.999999
0.999999
0.999999
0.999999
0.999998
0.999998
0.999998
0.999999
0.999999
0.999999
)
;
    }
    rightWall
    {
        type            alphaContactAngle;
        thetaProperties 
6
(

(
water
mercury
)
 90 0 0 0

(
water
air
)
 90 0 0 0

(
water
oil
)
 90 0 0 0

(
mercury
air
)
 90 0 0 0

(
oil
mercury
)
 90 0 0 0

(
oil
air
)
 90 0 0 0
);
        value           nonuniform 0();
    }
    lowerWall
    {
        type            alphaContactAngle;
        thetaProperties 
6
(

(
water
mercury
)
 90 0 0 0

(
water
air
)
 90 0 0 0

(
water
oil
)
 90 0 0 0

(
mercury
air
)
 90 0 0 0

(
oil
mercury
)
 90 0 0 0

(
oil
air
)
 90 0 0 0
);
        value           nonuniform List<scalar> 
22
(
2.28168e-15
2.31641e-15
2.13066e-15
3.17137e-15
1.9108e-15
3.86696e-15
3.72969e-15
2.79761e-15
3.66803e-15
6.2184e-15
8.10489e-15
7.07427e-15
5.61229e-15
4.8919e-15
5.09221e-15
5.86647e-15
5.40085e-15
4.2345e-15
2.89557e-15
1.71501e-15
8.39679e-16
3.01847e-16
)
;
    }
    atmosphere
    {
        type            inletOutlet;
        inletValue      nonuniform 0();
        value           nonuniform 0();
    }
    defaultFaces
    {
        type            empty;
    }
    procBoundary0to1
    {
        type            processor;
        value           nonuniform List<scalar> 
26
(
6.02142e-17
5.70369e-16
2.90027e-15
7.39342e-15
2.67763e-14
6.53619e-14
1.33622e-13
1.95595e-13
2.86159e-13
2.00638e-12
5.57834e-11
2.16226e-10
3.50691e-10
3.62066e-10
1.86508e-07
0.00141779
0.00141779
0.0624328
0.727834
0.999955
1
1
1
0.999999
0.999999
0.999999
)
;
    }
    procBoundary0to2
    {
        type            processor;
        value           nonuniform List<scalar> 
24
(
1
1
1
1
1
1
0.999999
0.999999
0.999999
0.999999
0.999999
1
1
1
1
1
1
1
1
1
1
1
1
1
)
;
    }
}


// ************************************************************************* //
