/*--------------------------------*- C++ -*----------------------------------*\
| =========                 |                                                 |
| \\      /  F ield         | OpenFOAM: The Open Source CFD Toolbox           |
|  \\    /   O peration     | Version:  2.4.0                                 |
|   \\  /    A nd           | Web:      www.OpenFOAM.org                      |
|    \\/     M anipulation  |                                                 |
\*---------------------------------------------------------------------------*/
FoamFile
{
    version     2.0;
    format      ascii;
    class       volScalarField;
    location    "0.4";
    object      alphas;
}
// * * * * * * * * * * * * * * * * * * * * * * * * * * * * * * * * * * * * * //

dimensions      [0 0 0 0 0 0 0];

internalField   nonuniform List<scalar> 
575
(
2
2
2
2
2
2
2
2
2
2
2
2
2
2
2
2
2
2
2
2
2
2
2
2
2
2
2
2
2
2
2
2
2
2
2
2
2
2
2
2
2
2
2
2
2
2
2
2
2
2
2
2
2
2
2
2
2
2
2
2
2
2
2
2
2
2
2
2
2
2
2
2
2
2
2
1.99999
1.99997
1.99996
1.99992
1.99988
1.99979
1.99987
1.99994
1.99997
1.99999
2
2
2
1.99966
1.99963
1.99963
1.99933
1.9995
1.999
1.99847
1.99818
1.99664
1.99391
1.98867
1.98352
1.9736
1.96228
1.94472
1.95972
1.98509
1.9971
1.99967
1.99996
1.99999
1.99999
1.95381
1.95127
1.94977
1.93243
1.93634
1.90928
1.87874
1.85346
1.79203
1.70641
1.58092
1.4662
1.31383
1.13958
0.958301
0.835752
0.963081
1.37749
1.85923
1.98948
1.99968
1.99998
1.26198
1.24299
1.22183
1.13194
1.11143
0.985423
0.84757
0.730854
0.56583
0.399499
0.243482
0.139736
0.0665644
0.0247505
0.00657618
0.000888751
0.0139353
0.149871
0.86991
1.80901
1.99173
1.99985
0.165785
0.156899
0.143971
0.115783
0.0989279
0.0671683
0.0408578
0.0229754
0.0102286
0.00392694
0.00127937
0.000427178
0.000167283
7.62295e-05
3.74669e-05
5.65852e-05
0.000156853
0.00179199
0.101616
1.05842
1.90891
1.99827
0.00899741
0.00847073
0.00759093
0.00631487
0.00505331
0.00348168
0.00221218
0.00126653
0.000640187
0.000311896
0.000151852
7.86098e-05
4.93645e-05
3.4105e-05
3.5202e-05
4.35647e-05
0.000135189
0.000786767
0.00942341
0.194557
1.29468
1.91224
3.04301e-05
2.89699e-05
2.67253e-05
2.37373e-05
2.01461e-05
1.59146e-05
1.26877e-05
9.08341e-06
6.34841e-06
4.81273e-06
4.02635e-06
3.88588e-06
4.13047e-06
4.45965e-06
5.83345e-06
1.10689e-05
5.27942e-05
0.000428637
0.00258569
0.0119562
0.292772
1.27684
1.58266e-06
1.53603e-06
1.48481e-06
1.41475e-06
1.32748e-06
1.19099e-06
1.16551e-06
1.02136e-06
1.04571e-06
1.14721e-06
1.51887e-06
2.87637e-06
8.87766e-06
3.72137e-05
4.45006e-05
4.03185e-05
4.0526e-05
8.18568e-05
0.000510783
0.00324987
0.0314498
0.328112
5.36665e-07
5.21481e-07
4.82501e-07
4.32263e-07
3.75193e-07
3.14255e-07
3.57431e-07
3.05808e-07
2.6486e-06
7.30265e-05
0.000339171
0.000917218
0.00232372
0.0060188
0.00802605
0.00870359
0.006027
0.0030775
0.00116066
0.00135251
0.00610031
0.0385647
0.000579786
0.000570439
0.000508986
0.000418765
0.000302564
0.000184635
6.85645e-05
4.03819e-05
0.000924353
0.00926895
0.0246223
0.045711
0.0819656
0.13997
0.182017
0.210638
0.181023
0.127336
0.0741223
0.0381771
0.0162974
0.0182036
0.122978
0.121247
0.113759
0.101516
0.0834441
0.0603276
0.0309095
0.0107552
0.0323105
0.140104
0.258064
0.374122
0.511813
0.655113
0.745655
0.802751
0.800689
0.745747
0.632823
0.496984
0.320401
0.177515
1.88598
1.88093
1.85171
1.79678
1.70159
1.52657
1.10887
0.533975
0.365246
0.634763
0.786765
0.864082
0.947833
0.984229
0.992994
0.995716
0.997427
0.998521
0.991674
0.976307
0.855168
0.6857
2.9988
2.9988
2.9987
2.99846
2.99788
2.99648
2.98589
2.79406
2.23003
2.09604
1.84096
1.57412
1.38566
1.22755
1.13925
1.07782
1.04426
1.02783
1.01112
1.00985
0.997877
0.990234
3
3
3
3
3
2.99999
2.99976
2.99903
2.99786
2.99553
2.9869
2.96657
2.91768
2.81388
2.68158
2.49642
2.2659
1.99745
1.64764
1.51075
1.15106
1.11011
1.09562
3
3
3
3
2.99999
2.99998
2.99999
2.99999
2.99999
2.99999
3
3
3
3
3
2.99999
2.99997
2.99931
2.98179
2.94844
2.66346
2.49578
2.40176
3
3
3
3
3
3
3
3
3
3
3
3
3
3
3
3
3
3
3
3
3
2.99999
2.99995
3
3
3
3
3
3
3
3
3
3
3
3
3
3
3
3
3
3
3
3
3
3
3
3
3
3
3
3
3
3
3
3
3
3
3
3
3
3
3
3
3
3
3
3
3
3
3
3
3
3
3
3
3
3
3
3
3
3
3
3
3
3
3
3
3
3
3
3
3
3
3
3
3
3
3
3
3
3
3
3
3
3
3
3
3
3
3
3
3
3
3
3
3
3
3
3
3
3
3
3
3
3
3
3
3
3
3
3
3
3
3
3
3
3
3
3
3
3
3
3
3
3
3
3
3
3
3
3
3
3
3
3
3
3
3
3
3
3
3
3
3
3
3
3
3
3
3
3
3
3
3
3
3
3
)
;

boundaryField
{
    leftWall
    {
        type            zeroGradient;
    }
    rightWall
    {
        type            zeroGradient;
    }
    lowerWall
    {
        type            zeroGradient;
    }
    atmosphere
    {
        type            zeroGradient;
    }
    defaultFaces
    {
        type            empty;
    }
    procBoundary0to1
    {
        type            processor;
        value           nonuniform List<scalar> 
26
(
1.99997
1.99997
1.99997
1.99996
1.99996
1.99995
1.99993
1.99993
1.99588
1.85406
1.11699
0.250261
0.034557
0.107789
0.533827
0.98397
0.98397
1.12444
2.45566
2.99991
3
3
3
3
3
3
)
;
    }
    procBoundary0to2
    {
        type            processor;
        value           nonuniform List<scalar> 
24
(
3
3
3
3
3
3
3
3
3
3
3
3
3
3
3
3
3
3
3
3
3
3
3
3
)
;
    }
}


// ************************************************************************* //
