/*--------------------------------*- C++ -*----------------------------------*\
| =========                 |                                                 |
| \\      /  F ield         | OpenFOAM: The Open Source CFD Toolbox           |
|  \\    /   O peration     | Version:  2.4.0                                 |
|   \\  /    A nd           | Web:      www.OpenFOAM.org                      |
|    \\/     M anipulation  |                                                 |
\*---------------------------------------------------------------------------*/
FoamFile
{
    version     2.0;
    format      ascii;
    class       surfaceScalarField;
    location    "0.4";
    object      phi;
}
// * * * * * * * * * * * * * * * * * * * * * * * * * * * * * * * * * * * * * //

dimensions      [0 3 -1 0 0 0 0];

internalField   nonuniform List<scalar> 
1101
(
3.24659e-06
-3.24659e-06
6.54521e-06
-3.29862e-06
9.59742e-06
-3.05221e-06
1.34214e-05
-3.82396e-06
1.5863e-05
-2.44163e-06
1.96735e-05
-3.8105e-06
2.3341e-05
-3.66745e-06
2.59886e-05
-2.64765e-06
2.86678e-05
-2.67918e-06
3.20897e-05
-3.42186e-06
3.61349e-05
-4.04526e-06
3.93584e-05
-3.22349e-06
4.15809e-05
-2.22243e-06
4.28987e-05
-1.31786e-06
4.3309e-05
-4.10235e-07
4.33194e-05
-1.04633e-08
4.21117e-05
1.2077e-06
3.93307e-05
2.78102e-06
3.45528e-05
4.77794e-06
2.74838e-05
7.069e-06
1.77958e-05
9.68795e-06
1.07362e-05
3.24888e-06
-6.49547e-06
6.55247e-06
-6.60221e-06
9.61988e-06
-6.11962e-06
1.33553e-05
-7.55938e-06
1.59774e-05
-5.06371e-06
1.97104e-05
-7.54355e-06
2.32472e-05
-7.20423e-06
2.59877e-05
-5.38815e-06
2.89326e-05
-5.62406e-06
3.24041e-05
-6.89337e-06
3.62895e-05
-7.93064e-06
3.91632e-05
-6.0972e-06
4.13868e-05
-4.4461e-06
4.29356e-05
-2.86663e-06
4.40521e-05
-1.5267e-06
4.42183e-05
-1.76735e-07
4.34892e-05
1.93688e-06
4.03933e-05
5.87687e-06
3.54455e-05
9.7258e-06
2.70548e-05
1.54597e-05
1.82954e-05
1.84473e-05
2.00129e-05
3.25298e-06
-9.74845e-06
6.54039e-06
-9.88962e-06
9.66272e-06
-9.24195e-06
1.32583e-05
-1.11549e-05
1.61657e-05
-7.97114e-06
1.97035e-05
-1.10814e-05
2.30043e-05
-1.0505e-05
2.59877e-05
-8.3715e-06
2.94361e-05
-9.07248e-06
3.296e-05
-1.04173e-05
3.59933e-05
-1.0964e-05
3.8388e-05
-8.49185e-06
4.12541e-05
-7.31222e-06
4.36091e-05
-5.2216e-06
4.56045e-05
-3.5221e-06
4.59872e-05
-5.59465e-07
4.48369e-05
3.08721e-06
4.20051e-05
8.7086e-06
3.57762e-05
1.59547e-05
2.77185e-05
2.35174e-05
1.92135e-05
2.69523e-05
2.79456e-05
3.25966e-06
-1.30081e-05
6.52308e-06
-1.3153e-05
9.72848e-06
-1.24473e-05
1.31551e-05
-1.45816e-05
1.62956e-05
-1.11116e-05
1.97029e-05
-1.44887e-05
2.29167e-05
-1.37188e-05
2.59502e-05
-1.1405e-05
2.99325e-05
-1.30548e-05
3.30296e-05
-1.35144e-05
3.54464e-05
-1.33808e-05
3.81474e-05
-1.11929e-05
4.15901e-05
-1.07549e-05
4.44828e-05
-8.11433e-06
4.69583e-05
-5.99761e-06
4.81617e-05
-1.76286e-06
4.6613e-05
4.63594e-06
4.29192e-05
1.24024e-05
3.52265e-05
2.36474e-05
2.54982e-05
3.32458e-05
1.54974e-05
3.6953e-05
3.59855e-05
3.2664e-06
-1.62745e-05
6.52451e-06
-1.64111e-05
9.81411e-06
-1.5737e-05
1.30196e-05
-1.77871e-05
1.64851e-05
-1.45771e-05
1.96113e-05
-1.76149e-05
2.28149e-05
-1.69224e-05
2.64221e-05
-1.50122e-05
3.00128e-05
-1.66455e-05
3.28259e-05
-1.63275e-05
3.54348e-05
-1.59897e-05
3.85615e-05
-1.43196e-05
4.19996e-05
-1.41929e-05
4.53841e-05
-1.14989e-05
4.86898e-05
-9.30329e-06
4.92632e-05
-2.33629e-06
4.78931e-05
6.00606e-06
4.38242e-05
1.64713e-05
3.74758e-05
2.99957e-05
2.80432e-05
4.26784e-05
1.65221e-05
4.84741e-05
4.39394e-05
3.27403e-06
-1.95485e-05
6.51966e-06
-1.96568e-05
9.99625e-06
-1.92136e-05
1.27516e-05
-2.05424e-05
1.67589e-05
-1.85844e-05
1.9613e-05
-2.0469e-05
2.27125e-05
-2.0022e-05
2.6744e-05
-1.90437e-05
2.97389e-05
-1.96404e-05
3.24398e-05
-1.90284e-05
3.51197e-05
-1.86696e-05
3.79226e-05
-1.71225e-05
4.015e-05
-1.64203e-05
4.26122e-05
-1.3961e-05
4.44745e-05
-1.11656e-05
4.67203e-05
-4.58215e-06
4.70928e-05
5.63356e-06
4.14072e-05
2.21569e-05
3.62439e-05
3.51591e-05
2.96557e-05
4.92666e-05
1.92701e-05
5.88596e-05
5.4668e-05
3.19538e-06
-2.27439e-05
6.31909e-06
-2.27805e-05
9.83459e-06
-2.27291e-05
1.20154e-05
-2.27232e-05
1.60733e-05
-2.26424e-05
1.88391e-05
-2.32348e-05
2.09665e-05
-2.21494e-05
2.35146e-05
-2.15917e-05
2.56399e-05
-2.17657e-05
2.68807e-05
-2.02692e-05
2.71957e-05
-1.89845e-05
2.68303e-05
-1.67571e-05
2.51142e-05
-1.47042e-05
2.33786e-05
-1.22254e-05
2.16142e-05
-9.4012e-06
2.27816e-05
-5.74958e-06
2.84204e-05
-5.25371e-09
3.17898e-05
1.87876e-05
2.76267e-05
3.93222e-05
2.73269e-05
4.95664e-05
2.1851e-05
6.43355e-05
6.34136e-05
2.46673e-06
-2.52106e-05
4.87487e-06
-2.51886e-05
7.3276e-06
-2.51818e-05
8.73557e-06
-2.41312e-05
1.04769e-05
-2.43836e-05
1.15624e-05
-2.43203e-05
1.15958e-05
-2.21828e-05
1.18725e-05
-2.18685e-05
1.24247e-05
-2.23179e-05
1.31299e-05
-2.09744e-05
1.28266e-05
-1.86813e-05
1.36221e-05
-1.75526e-05
1.51935e-05
-1.62756e-05
1.69265e-05
-1.39584e-05
1.62431e-05
-8.71783e-06
1.5224e-05
-4.73044e-06
1.70828e-05
-1.86408e-06
2.28702e-05
1.30002e-05
2.18601e-05
4.03322e-05
1.91329e-05
5.22936e-05
2.08928e-05
6.25755e-05
6.97403e-05
2.3888e-06
-2.75994e-05
4.92189e-06
-2.77217e-05
7.26346e-06
-2.75233e-05
1.00769e-05
-2.69446e-05
1.27528e-05
-2.70596e-05
1.62555e-05
-2.7823e-05
2.00664e-05
-2.59936e-05
2.60778e-05
-2.78799e-05
3.18357e-05
-2.80758e-05
3.7105e-05
-2.62437e-05
4.31117e-05
-2.46881e-05
5.03022e-05
-2.47431e-05
5.5104e-05
-2.10774e-05
5.77591e-05
-1.66135e-05
5.68978e-05
-7.85645e-06
5.24697e-05
-3.02347e-07
3.73754e-05
1.32302e-05
2.57168e-05
2.46588e-05
3.14117e-05
3.46373e-05
2.64001e-05
5.73052e-05
3.42393e-05
5.47363e-05
5.75279e-05
3.44357e-06
-3.1043e-05
7.00517e-06
-3.12833e-05
1.05667e-05
-3.10849e-05
1.44027e-05
-3.07805e-05
1.8107e-05
-3.07639e-05
2.2252e-05
-3.1968e-05
2.58867e-05
-2.96283e-05
3.0618e-05
-3.26112e-05
3.46675e-05
-3.21253e-05
3.93047e-05
-3.08809e-05
4.39537e-05
-2.9337e-05
4.60493e-05
-2.68387e-05
4.57422e-05
-2.07703e-05
4.59948e-05
-1.68662e-05
4.64205e-05
-8.28206e-06
4.86728e-05
-2.55471e-06
5.12506e-05
1.06524e-05
5.2803e-05
2.31064e-05
4.91494e-05
3.82909e-05
4.85851e-05
5.78696e-05
3.38555e-05
6.94659e-05
4.93418e-05
4.0354e-06
-3.50784e-05
8.06032e-06
-3.53082e-05
1.20033e-05
-3.50278e-05
1.59163e-05
-3.46935e-05
1.94264e-05
-3.42741e-05
2.27025e-05
-3.52441e-05
2.67578e-05
-3.36836e-05
3.14423e-05
-3.72957e-05
3.62921e-05
-3.69751e-05
4.35744e-05
-3.81632e-05
5.12827e-05
-3.70453e-05
5.75884e-05
-3.31444e-05
6.38699e-05
-2.70519e-05
6.99347e-05
-2.29309e-05
7.20174e-05
-1.03648e-05
6.97516e-05
-2.88922e-07
6.83595e-05
1.20445e-05
6.88763e-05
2.25896e-05
7.0814e-05
3.63531e-05
7.76191e-05
5.10644e-05
7.38133e-05
7.32717e-05
6.57972e-05
4.44839e-06
-3.95268e-05
8.81849e-06
-3.96783e-05
1.29413e-05
-3.91506e-05
1.67296e-05
-3.84819e-05
2.01251e-05
-3.76696e-05
2.268e-05
-3.7799e-05
2.64459e-05
-3.74494e-05
3.02011e-05
-4.10509e-05
3.60911e-05
-4.28651e-05
4.56614e-05
-4.77335e-05
5.45878e-05
-4.59717e-05
6.08621e-05
-3.94187e-05
6.49011e-05
-3.10909e-05
6.68003e-05
-2.48301e-05
7.01506e-05
-1.37151e-05
7.53135e-05
-5.4518e-06
8.23005e-05
5.05749e-06
8.53239e-05
1.95662e-05
9.16363e-05
3.00407e-05
0.000100361
4.234e-05
0.000118515
5.51178e-05
6.63609e-05
4.63314e-06
-4.41599e-05
9.10521e-06
-4.41504e-05
1.31701e-05
-4.32155e-05
1.67059e-05
-4.20176e-05
1.9431e-05
-4.03947e-05
2.10414e-05
-3.94094e-05
2.34825e-05
-3.98906e-05
2.73002e-05
-4.48686e-05
3.56552e-05
-5.12201e-05
4.69347e-05
-5.9013e-05
5.44505e-05
-5.34875e-05
6.01416e-05
-4.51097e-05
6.63229e-05
-3.72722e-05
7.11609e-05
-2.96681e-05
7.6486e-05
-1.90402e-05
8.03612e-05
-9.32701e-06
8.31501e-05
2.26859e-06
8.99654e-05
1.27509e-05
9.80326e-05
2.19735e-05
0.000111467
2.89058e-05
0.000127838
3.87466e-05
4.35442e-05
5.17255e-06
-4.93325e-05
9.84389e-06
-4.88217e-05
1.39978e-05
-4.73695e-05
1.71552e-05
-4.5175e-05
1.85591e-05
-4.17986e-05
1.73764e-05
-3.82267e-05
1.67824e-05
-3.92966e-05
2.09866e-05
-4.90728e-05
2.92318e-05
-5.94653e-05
3.74496e-05
-6.72308e-05
3.97936e-05
-5.58315e-05
3.95818e-05
-4.4898e-05
3.52583e-05
-3.29486e-05
3.1304e-05
-2.57139e-05
3.17944e-05
-1.95305e-05
3.6784e-05
-1.43166e-05
4.61232e-05
-7.07062e-06
6.04581e-05
-1.58404e-06
7.67419e-05
5.6897e-06
9.95167e-05
6.13101e-06
0.000114513
2.37508e-05
2.15346e-05
6.03629e-06
-5.53688e-05
1.12907e-05
-5.40761e-05
1.65464e-05
-5.26252e-05
2.13625e-05
-4.9991e-05
2.54018e-05
-4.58379e-05
2.47433e-05
-3.75682e-05
1.18159e-05
-2.63692e-05
1.55194e-06
-3.88088e-05
-7.37822e-06
-5.05351e-05
-1.40358e-05
-6.05732e-05
-2.44004e-05
-4.54669e-05
-3.3794e-05
-3.55043e-05
-3.76261e-05
-2.91165e-05
-3.77051e-05
-2.56349e-05
-3.40552e-05
-2.31805e-05
-2.83338e-05
-2.0038e-05
-1.85072e-05
-1.68973e-05
-1.74465e-06
-1.83465e-05
1.90836e-05
-1.51386e-05
4.5486e-05
-2.02714e-05
6.98043e-05
-5.6747e-07
7.94539e-07
1.91876e-06
-5.72875e-05
4.69762e-06
-5.6855e-05
8.63977e-06
-5.65673e-05
1.38141e-05
-5.51654e-05
1.94372e-05
-5.1461e-05
2.0386e-05
-3.85169e-05
1.0818e-05
-1.68012e-05
-1.08873e-05
-1.71035e-05
-6.2414e-05
9.91639e-07
-8.32054e-05
-3.97818e-05
-7.92019e-05
-4.94705e-05
-7.2364e-05
-4.23423e-05
-6.18448e-05
-3.96357e-05
-5.43876e-05
-3.30921e-05
-4.88472e-05
-2.87208e-05
-4.43493e-05
-2.45359e-05
-3.81012e-05
-2.31454e-05
-2.8703e-05
-2.77447e-05
-1.453e-05
-2.93116e-05
2.07182e-07
-3.50085e-05
2.22151e-05
-2.25754e-05
-2.25127e-05
-6.24954e-06
-5.1038e-05
-1.00227e-05
-5.30818e-05
-1.1098e-05
-5.5492e-05
-7.08946e-06
-5.9174e-05
5.32187e-06
-6.38724e-05
3.75168e-05
-7.07118e-05
9.06963e-05
-6.99808e-05
6.94603e-05
4.13255e-06
-1.26323e-05
8.30842e-05
-5.53242e-05
2.91004e-06
-6.38673e-05
-4.09273e-05
-6.35567e-05
-4.26529e-05
-5.52663e-05
-4.7926e-05
-4.19464e-05
-4.64119e-05
-3.02704e-05
-4.03968e-05
-2.13569e-05
-3.34494e-05
-2.23524e-05
-2.21499e-05
-1.88178e-05
-3.12793e-05
-1.01733e-05
-3.79562e-05
-3.98962e-06
-4.11922e-05
9.43542e-06
-3.60004e-05
2.50232e-05
-3.81004e-05
-3.89674e-05
-1.32579e-05
-3.778e-05
-2.32196e-05
-4.31201e-05
-3.06654e-05
-4.80462e-05
-3.54268e-05
-5.44126e-05
-3.90123e-05
-6.02869e-05
-4.38241e-05
-6.59e-05
-4.95096e-05
-6.42952e-05
-2.26689e-05
-2.27082e-05
3.73626e-05
2.30527e-05
4.10984e-05
-8.25691e-07
3.78424e-05
-3.76714e-05
5.25188e-05
-5.73293e-05
6.60256e-05
-6.14328e-05
7.6332e-05
-5.67184e-05
8.9766e-05
-5.38309e-05
9.72054e-05
-4.08888e-05
7.82628e-05
-3.20727e-06
3.89681e-05
8.01541e-06
2.39832e-05
-2.29712e-05
1.739e-05
-3.4599e-05
3.33134e-05
-5.19238e-05
3.03038e-05
-3.50909e-05
-4.68498e-05
-3.3153e-06
-3.44647e-05
-5.98523e-06
-4.04502e-05
-7.63927e-06
-4.63921e-05
-8.78893e-06
-5.32629e-05
-9.88395e-06
-5.91919e-05
-1.33565e-05
-6.24274e-05
-1.57249e-05
-6.19269e-05
-1.58934e-06
-3.68437e-05
1.30872e-05
8.37616e-06
-1.07167e-05
2.29782e-05
-1.16277e-05
-3.67604e-05
1.52909e-06
-7.04861e-05
1.26268e-05
-7.25305e-05
2.25656e-05
-6.66571e-05
2.78012e-05
-5.90666e-05
3.6447e-05
-4.95345e-05
7.19036e-05
-3.86639e-05
0.00012615
-4.62312e-05
0.000155377
-5.21979e-05
0.00017973
-5.8952e-05
0.000180212
-5.2406e-05
0.000169833
-2.4712e-05
-2.36386e-05
-1.33135e-06
-3.31334e-05
-2.23493e-06
-3.95466e-05
-3.79972e-06
-4.48273e-05
-6.76693e-06
-5.02957e-05
-1.12724e-05
-5.46865e-05
-1.71061e-05
-5.65936e-05
-2.42639e-05
-5.47691e-05
-1.85582e-05
-4.25494e-05
8.64104e-06
-1.88231e-05
3.8814e-05
-7.19471e-06
4.37504e-05
-4.16968e-05
3.84353e-05
-6.5171e-05
3.8297e-05
-7.23922e-05
4.4628e-05
-7.29882e-05
5.3146e-05
-6.75845e-05
5.94805e-05
-5.58691e-05
6.01683e-05
-3.93517e-05
5.02153e-05
-3.62782e-05
3.9088e-05
-4.10706e-05
2.71603e-05
-4.70243e-05
2.63985e-05
-5.16442e-05
5.55505e-05
-5.3864e-05
-5.64992e-05
2.13808e-08
-3.31548e-05
1.04146e-07
-3.96293e-05
-7.3558e-07
-4.39876e-05
-2.74649e-06
-4.82848e-05
-6.06858e-06
-5.13644e-05
-1.05631e-05
-5.20991e-05
-1.53627e-05
-4.99696e-05
-1.51268e-05
-4.27853e-05
-1.56377e-06
-3.23861e-05
1.69277e-05
-2.56862e-05
2.5433e-05
-5.02021e-05
2.45748e-05
-6.43127e-05
2.28424e-05
-7.06598e-05
2.22455e-05
-7.23913e-05
2.45791e-05
-6.99182e-05
3.19172e-05
-6.32072e-05
4.64278e-05
-5.38622e-05
5.85139e-05
-4.83643e-05
5.8382e-05
-4.09387e-05
4.78358e-05
-3.64781e-05
3.17536e-05
-3.5562e-05
1.81644e-05
-4.02748e-05
-4.07925e-05
2.40824e-06
-3.5563e-05
3.7079e-06
-4.0929e-05
3.54653e-06
-4.38262e-05
1.78066e-06
-4.65189e-05
-1.25087e-06
-4.83328e-05
-4.85937e-06
-4.84906e-05
-7.75668e-06
-4.70723e-05
-7.3308e-06
-4.32112e-05
-3.65105e-08
-3.96804e-05
1.06801e-05
-3.64028e-05
1.11564e-05
-5.06784e-05
7.42136e-06
-6.05777e-05
2.94037e-06
-6.61788e-05
-1.03734e-06
-6.84136e-05
-4.154e-06
-6.68015e-05
-7.23209e-06
-6.01291e-05
-8.27749e-06
-5.28168e-05
-8.29115e-06
-4.83506e-05
-6.19389e-06
-4.30359e-05
-3.79554e-06
-3.88765e-05
-3.89864e-06
-3.54589e-05
-5.90349e-06
-3.82699e-05
-3.8859e-05
1.94858e-06
-3.75116e-05
3.26094e-06
-4.22414e-05
3.25586e-06
-4.38212e-05
1.82278e-06
-4.50858e-05
-8.74502e-07
-4.56355e-05
-3.90322e-06
-4.54619e-05
-6.30289e-06
-4.46726e-05
-6.23241e-06
-4.32816e-05
-3.12205e-06
-4.27908e-05
2.4518e-06
-4.19767e-05
1.42235e-06
-4.96489e-05
-4.37462e-06
-5.47807e-05
-1.10252e-05
-5.95283e-05
-1.69094e-05
-6.25293e-05
-2.16943e-05
-6.20166e-05
-2.50193e-05
-5.68041e-05
-2.68363e-05
-5.09998e-05
-2.83822e-05
-4.68047e-05
-2.98536e-05
-4.15645e-05
-3.04284e-05
-3.83017e-05
-2.90882e-05
-3.67992e-05
-2.83227e-05
-3.90354e-05
-3.8742e-05
1.10294e-06
-3.86145e-05
1.61984e-06
-4.27583e-05
1.14692e-06
-4.33482e-05
-1.51847e-07
-4.37871e-05
-1.84971e-06
-4.39377e-05
-3.49972e-06
-4.38118e-05
-4.79458e-06
-4.33777e-05
-5.08844e-06
-4.29878e-05
-4.60743e-06
-4.32718e-05
-3.44012e-06
-4.3144e-05
-6.18402e-06
-4.6905e-05
-1.12439e-05
-4.97208e-05
-1.72845e-05
-5.34877e-05
-2.28206e-05
-5.69932e-05
-2.77613e-05
-5.70759e-05
-3.10054e-05
-5.35601e-05
-3.28804e-05
-4.91248e-05
-3.35216e-05
-4.61635e-05
-3.30716e-05
-4.20145e-05
-3.20624e-05
-3.9311e-05
-3.01647e-05
-3.86968e-05
-3.03661e-05
-3.8834e-05
-3.60898e-05
1.99473e-07
-3.8814e-05
-1.69178e-07
-4.23896e-05
-9.9749e-07
-4.25199e-05
-1.988e-06
-4.27965e-05
-2.91879e-06
-4.30069e-05
-3.77025e-06
-4.29604e-05
-4.30057e-06
-4.28474e-05
-4.4173e-06
-4.2871e-05
-4.51013e-06
-4.31789e-05
-4.60073e-06
-4.30534e-05
-7.22679e-06
-4.4279e-05
-1.11463e-05
-4.58013e-05
-1.61883e-05
-4.84457e-05
-2.22224e-05
-5.0959e-05
-2.77904e-05
-5.15079e-05
-3.11669e-05
-5.01836e-05
-3.27531e-05
-3.30123e-05
-3.21056e-05
-3.18782e-05
-3.22371e-05
-3.30312e-05
-2.22164e-07
-8.37312e-07
-1.50672e-06
-2.1364e-06
-2.72182e-06
-3.13423e-06
-3.36191e-06
-3.49502e-06
-3.93421e-06
-4.2896e-06
-5.46285e-06
-7.21936e-06
-1.00433e-05
-1.4459e-05
-1.88981e-05
)
;

boundaryField
{
    leftWall
    {
        type            calculated;
        value           uniform 0;
    }
    rightWall
    {
        type            calculated;
        value           nonuniform 0();
    }
    lowerWall
    {
        type            calculated;
        value           nonuniform List<scalar> 
22
(
1.32047e-22
-2.2463e-23
-8.34071e-23
8.55349e-23
-1.98808e-23
8.70729e-23
4.90847e-23
-1.24875e-22
-1.00169e-22
2.0537e-22
-1.58461e-22
2.04304e-22
-3.51352e-23
6.53764e-23
-5.5981e-23
7.32895e-23
2.83439e-23
1.41123e-22
1.23419e-22
-2.40756e-22
3.39356e-23
1.11101e-22
)
;
    }
    atmosphere
    {
        type            calculated;
        value           nonuniform 0();
    }
    defaultFaces
    {
        type            empty;
        value           nonuniform 0();
    }
    procBoundary0to1
    {
        type            processor;
        value           nonuniform List<scalar> 
26
(
7.05961e-06
9.01871e-06
1.12809e-05
7.45747e-06
8.56825e-06
8.5415e-06
1.31055e-05
1.45661e-05
4.64517e-05
4.20416e-05
5.73579e-05
0.000117951
0.000150655
0.000136522
9.05444e-05
4.55223e-05
2.29264e-05
4.10641e-05
3.81863e-05
0.000146622
8.84111e-05
2.45775e-06
-7.83699e-06
-2.84397e-05
-3.30182e-05
-3.33637e-05
)
;
    }
    procBoundary0to2
    {
        type            processor;
        value           nonuniform List<scalar> 
24
(
-4.75385e-05
-4.59044e-05
-4.29212e-05
-3.95384e-05
-3.83379e-05
-3.80399e-05
-3.57573e-05
-3.85918e-05
-4.17744e-05
-4.18505e-05
-4.21669e-05
-4.24215e-05
-4.2548e-05
-4.26197e-05
-4.27379e-05
-4.27397e-05
-4.2698e-05
-4.31057e-05
-4.40448e-05
-4.56218e-05
-4.65433e-05
-4.70689e-05
-2.1727e-05
-4.73547e-05
)
;
    }
}


// ************************************************************************* //
