/*--------------------------------*- C++ -*----------------------------------*\
| =========                 |                                                 |
| \\      /  F ield         | OpenFOAM: The Open Source CFD Toolbox           |
|  \\    /   O peration     | Version:  2.4.0                                 |
|   \\  /    A nd           | Web:      www.OpenFOAM.org                      |
|    \\/     M anipulation  |                                                 |
\*---------------------------------------------------------------------------*/
FoamFile
{
    version     2.0;
    format      ascii;
    class       surfaceScalarField;
    location    "0.4";
    object      phi.mercury;
}
// * * * * * * * * * * * * * * * * * * * * * * * * * * * * * * * * * * * * * //

dimensions      [0 3 -1 0 0 0 0];

internalField   nonuniform List<scalar> 
1101
(
3.24659e-06
-3.24659e-06
6.54521e-06
-3.29862e-06
9.59742e-06
-3.05221e-06
1.34214e-05
-3.82396e-06
1.5863e-05
-2.44163e-06
1.96735e-05
-3.8105e-06
2.3341e-05
-3.66746e-06
2.59886e-05
-2.64765e-06
2.86678e-05
-2.67918e-06
3.20897e-05
-3.42187e-06
3.61349e-05
-4.04526e-06
3.93584e-05
-3.22349e-06
4.15809e-05
-2.22243e-06
4.28987e-05
-1.31786e-06
4.3309e-05
-4.10235e-07
4.33194e-05
-1.04633e-08
4.21117e-05
1.2077e-06
3.93307e-05
2.78102e-06
3.45528e-05
4.77794e-06
2.74838e-05
7.069e-06
1.77958e-05
9.68795e-06
1.07362e-05
3.24888e-06
-6.49547e-06
6.55247e-06
-6.60221e-06
9.61988e-06
-6.11962e-06
1.33553e-05
-7.55939e-06
1.59774e-05
-5.06371e-06
1.97104e-05
-7.54355e-06
2.32472e-05
-7.20423e-06
2.59877e-05
-5.38815e-06
2.89326e-05
-5.62406e-06
3.24041e-05
-6.89337e-06
3.62895e-05
-7.93064e-06
3.91632e-05
-6.0972e-06
4.13868e-05
-4.4461e-06
4.29356e-05
-2.86663e-06
4.40521e-05
-1.5267e-06
4.42183e-05
-1.76735e-07
4.34892e-05
1.93688e-06
4.03933e-05
5.87687e-06
3.54455e-05
9.7258e-06
2.70548e-05
1.54597e-05
1.82954e-05
1.84473e-05
2.00129e-05
3.25298e-06
-9.74845e-06
6.54039e-06
-9.88962e-06
9.66272e-06
-9.24195e-06
1.32583e-05
-1.11549e-05
1.61657e-05
-7.97114e-06
1.97035e-05
-1.10814e-05
2.30043e-05
-1.0505e-05
2.59877e-05
-8.3715e-06
2.94361e-05
-9.07248e-06
3.296e-05
-1.04173e-05
3.59933e-05
-1.0964e-05
3.8388e-05
-8.49187e-06
4.12541e-05
-7.31228e-06
4.36091e-05
-5.22172e-06
4.56045e-05
-3.52241e-06
4.59872e-05
-5.59592e-07
4.48369e-05
3.08718e-06
4.20051e-05
8.70859e-06
3.57762e-05
1.59547e-05
2.77185e-05
2.35174e-05
1.92135e-05
2.69523e-05
2.79456e-05
3.25966e-06
-1.30089e-05
6.52308e-06
-1.3154e-05
9.72848e-06
-1.24483e-05
1.31551e-05
-1.4584e-05
1.62956e-05
-1.1113e-05
1.97029e-05
-1.44931e-05
2.29167e-05
-1.37271e-05
2.59502e-05
-1.14157e-05
2.99325e-05
-1.30765e-05
3.30296e-05
-1.35551e-05
3.54464e-05
-1.34572e-05
3.81474e-05
-1.13032e-05
4.15901e-05
-1.09319e-05
4.44828e-05
-8.36831e-06
4.69584e-05
-6.39101e-06
4.81618e-05
-2.05166e-06
4.6613e-05
4.54728e-06
4.29192e-05
1.23888e-05
3.52265e-05
2.36469e-05
2.54982e-05
3.32458e-05
1.54974e-05
3.6953e-05
3.59855e-05
3.26639e-06
-1.6599e-05
6.52449e-06
-1.67549e-05
9.81408e-06
-1.60907e-05
1.30196e-05
-1.82854e-05
1.64851e-05
-1.50339e-05
1.9611e-05
-1.83178e-05
2.28144e-05
-1.79233e-05
2.64214e-05
-1.62728e-05
3.00111e-05
-1.85363e-05
3.28229e-05
-1.91009e-05
3.54302e-05
-2.01033e-05
3.85536e-05
-1.96728e-05
4.19888e-05
-2.14106e-05
4.53696e-05
-2.11062e-05
4.86938e-05
-2.17667e-05
4.92869e-05
-1.73317e-05
4.7907e-05
-7.68235e-06
4.3832e-05
8.98189e-06
3.74762e-05
2.91886e-05
2.80432e-05
4.26643e-05
1.65221e-05
4.8474e-05
4.39394e-05
3.27197e-06
-2.72868e-05
6.51652e-06
-2.76341e-05
9.98611e-06
-2.74451e-05
1.27433e-05
-3.00145e-05
1.67369e-05
-2.8225e-05
1.9579e-05
-3.19101e-05
2.26713e-05
-3.36712e-05
2.66814e-05
-3.45327e-05
2.96553e-05
-3.83734e-05
3.23479e-05
-4.21589e-05
3.50636e-05
-4.8292e-05
3.78128e-05
-5.36634e-05
4.00206e-05
-5.71393e-05
4.27589e-05
-5.93331e-05
4.48891e-05
-6.15011e-05
4.75976e-05
-5.67392e-05
4.87471e-05
-3.97398e-05
4.29919e-05
-1.4636e-05
3.65132e-05
2.0512e-05
2.96827e-05
4.75026e-05
1.92703e-05
5.88345e-05
5.4668e-05
3.16673e-06
-6.03733e-05
6.2885e-06
-6.11836e-05
9.71377e-06
-6.20529e-05
1.19795e-05
-6.53578e-05
1.58202e-05
-6.63438e-05
1.85964e-05
-7.17826e-05
2.08628e-05
-7.6761e-05
2.34787e-05
-8.11125e-05
2.59211e-05
-8.66886e-05
2.78117e-05
-8.9713e-05
2.82448e-05
-9.32682e-05
2.86454e-05
-8.45579e-05
2.96749e-05
-6.50419e-05
3.0298e-05
-5.33799e-05
2.96465e-05
-4.81758e-05
3.45067e-05
-4.4761e-05
4.31478e-05
-3.52123e-05
4.11442e-05
-3.86179e-05
3.20082e-05
7.20988e-06
2.7711e-05
4.00851e-05
2.18692e-05
6.35983e-05
6.34103e-05
2.55934e-06
-9.52286e-05
5.02682e-06
-9.60588e-05
7.60194e-06
-9.72687e-05
9.27663e-06
-9.97162e-05
1.11107e-05
-0.000101973
1.30056e-05
-0.000106535
1.33106e-05
-0.000110402
1.39456e-05
-0.000114096
1.60223e-05
-0.000113962
1.75331e-05
-0.000104163
1.73936e-05
-8.97337e-05
1.66877e-05
-6.90429e-05
1.63268e-05
-4.3837e-05
1.65001e-05
-2.86104e-05
1.66251e-05
-1.76661e-05
1.56918e-05
-1.2703e-05
2.11176e-05
-9.31875e-06
3.72018e-05
-3.09148e-05
3.3136e-05
-8.38535e-06
2.228e-05
2.89733e-05
2.10253e-05
5.92763e-05
6.93616e-05
3.99671e-06
-6.33731e-05
7.9378e-06
-6.3343e-05
1.20564e-05
-6.30663e-05
1.54067e-05
-6.25558e-05
1.89409e-05
-6.2333e-05
2.29968e-05
-6.24647e-05
2.57004e-05
-6.14728e-05
2.91362e-05
-6.16966e-05
3.25926e-05
-5.7946e-05
3.61826e-05
-4.59972e-05
4.14944e-05
-2.91674e-05
4.81243e-05
-2.26782e-05
5.41867e-05
-1.86142e-05
5.84381e-05
-1.37448e-05
5.78495e-05
-6.8709e-06
5.35536e-05
-2.18673e-06
4.26999e-05
1.23493e-05
4.83929e-05
1.21295e-05
6.71946e-05
-3.97116e-06
4.3425e-05
4.73959e-06
3.72103e-05
3.55768e-05
5.38523e-05
3.4293e-06
-2.46736e-05
6.91838e-06
-2.47075e-05
1.04953e-05
-2.44006e-05
1.43323e-05
-2.39173e-05
1.80123e-05
-2.36877e-05
2.22064e-05
-2.42758e-05
2.57647e-05
-2.2617e-05
3.02888e-05
-2.50895e-05
3.45361e-05
-2.6049e-05
3.91849e-05
-2.59649e-05
4.40397e-05
-2.51864e-05
4.62567e-05
-2.36665e-05
4.59243e-05
-1.94138e-05
4.61158e-05
-1.66168e-05
4.65207e-05
-1.05781e-05
4.6114e-05
-7.19084e-06
5.15204e-05
2.80448e-06
5.10427e-05
1.22079e-05
4.54323e-05
1.77552e-05
5.18449e-05
9.90053e-06
3.81425e-05
1.56355e-05
3.15368e-05
4.03095e-06
-3.23433e-05
8.06004e-06
-3.26619e-05
1.20066e-05
-3.25282e-05
1.59262e-05
-3.23941e-05
1.94365e-05
-3.22126e-05
2.27531e-05
-3.35114e-05
2.67607e-05
-3.20059e-05
3.14407e-05
-3.58155e-05
3.62873e-05
-3.56879e-05
4.3505e-05
-3.68546e-05
5.12145e-05
-3.60496e-05
5.75593e-05
-3.2489e-05
6.38098e-05
-2.65857e-05
6.99329e-05
-2.25213e-05
7.20468e-05
-9.83586e-06
6.90658e-05
3.51865e-07
6.81894e-05
1.26235e-05
6.88021e-05
2.18409e-05
4.54068e-05
3.3938e-05
5.35498e-05
2.44745e-05
6.06806e-05
1.2629e-05
1.88299e-05
4.44692e-06
-3.95052e-05
8.8183e-06
-3.96597e-05
1.29412e-05
-3.9138e-05
1.67301e-05
-3.84755e-05
2.01259e-05
-3.76706e-05
2.26822e-05
-3.78095e-05
2.64449e-05
-3.74436e-05
3.01943e-05
-4.10388e-05
3.60824e-05
-4.28211e-05
4.5649e-05
-4.76364e-05
5.45821e-05
-4.58487e-05
6.08586e-05
-3.92758e-05
6.49e-05
-3.08633e-05
6.67985e-05
-2.45222e-05
7.01504e-05
-1.34042e-05
7.53254e-05
-5.06485e-06
8.23076e-05
5.49583e-06
8.53146e-05
1.99762e-05
8.31257e-05
3.04624e-05
5.85044e-05
3.91594e-05
8.52504e-05
2.16183e-05
8.13947e-06
4.63315e-06
-4.53629e-05
9.10524e-06
-4.53314e-05
1.31702e-05
-4.4314e-05
1.67059e-05
-4.29809e-05
1.9431e-05
-4.11615e-05
2.10415e-05
-3.99337e-05
2.34827e-05
-4.0141e-05
2.72988e-05
-4.49236e-05
3.56431e-05
-5.11806e-05
4.69218e-05
-5.8845e-05
5.44195e-05
-5.32826e-05
6.00948e-05
-4.51006e-05
6.6283e-05
-3.76964e-05
7.11564e-05
-3.07753e-05
7.65046e-05
-2.0634e-05
8.0375e-05
-1.12493e-05
8.31435e-05
3.49012e-07
8.99464e-05
1.15735e-05
9.83667e-05
2.1373e-05
6.49051e-05
2.90676e-05
8.96065e-05
2.34398e-05
5.16224e-06
5.18698e-06
-8.15252e-05
9.87537e-06
-8.11441e-05
1.40541e-05
-7.92815e-05
1.72455e-05
-7.62959e-05
1.86891e-05
-7.15567e-05
1.7541e-05
-6.50669e-05
1.69068e-05
-5.67874e-05
2.0956e-05
-5.47268e-05
2.91449e-05
-6.14936e-05
3.74901e-05
-7.10579e-05
4.01029e-05
-6.002e-05
4.02883e-05
-4.8566e-05
3.6455e-05
-3.72814e-05
3.26288e-05
-3.01855e-05
3.28131e-05
-2.39132e-05
3.7471e-05
-1.85722e-05
4.71011e-05
-1.14396e-05
6.15138e-05
-6.0321e-06
7.74361e-05
2.30635e-06
9.83826e-05
3.23299e-06
7.35083e-05
2.31769e-05
8.68965e-06
6.18994e-06
-0.000167655
1.17986e-05
-0.000166941
1.73672e-05
-0.000164541
2.25211e-05
-0.00016012
2.67781e-05
-0.000153139
2.70131e-05
-0.000142823
1.6395e-05
-0.000121899
2.44001e-06
-0.000104072
-7.58487e-06
-0.000104923
-1.35639e-05
-0.000104882
-2.25178e-05
-7.22723e-05
-3.3006e-05
-5.23447e-05
-3.76314e-05
-3.86839e-05
-3.77443e-05
-3.02222e-05
-3.41031e-05
-2.57174e-05
-2.83487e-05
-2.13809e-05
-1.84872e-05
-1.77011e-05
-1.57559e-06
-1.88694e-05
1.97372e-05
-1.54124e-05
4.79986e-05
-2.06152e-05
5.5004e-05
-1.74212e-06
2.92501e-07
3.23956e-06
-7.16587e-05
6.79159e-06
-7.07135e-05
1.15301e-05
-7.0619e-05
1.74138e-05
-7.00569e-05
2.37732e-05
-6.42509e-05
2.98968e-05
-6.0261e-05
2.37089e-05
-6.59282e-05
-1.27289e-05
-0.000119811
-6.06598e-05
-0.000122078
-8.26687e-05
-0.000119929
-7.74774e-05
-9.90901e-05
-7.06184e-05
-9.43302e-05
-6.08497e-05
-9.31018e-05
-5.4018e-05
-8.49137e-05
-4.86383e-05
-7.85249e-05
-4.42163e-05
-6.95658e-05
-3.79699e-05
-6.06821e-05
-2.85968e-05
-5.46762e-05
-1.44948e-05
-4.40294e-05
7.09159e-07
-4.54234e-05
2.2621e-05
-2.44982e-05
-1.83838e-05
-6.2501e-06
-5.10395e-05
-1.00234e-05
-5.30829e-05
-1.10985e-05
-5.5493e-05
-7.0892e-06
-5.91746e-05
5.31886e-06
-6.38728e-05
3.62026e-05
-7.07594e-05
7.46137e-05
-7.06349e-05
3.78371e-05
-4.38801e-06
-3.66637e-05
5.21849e-05
-7.27662e-05
-2.15543e-05
-7.48777e-05
-5.69774e-05
-6.52915e-05
-5.90587e-05
-5.24857e-05
-6.29913e-05
-4.05283e-05
-6.19694e-05
-3.22717e-05
-6.91615e-05
-2.49713e-05
-7.84772e-05
-1.86645e-05
-9.30947e-05
-1.51572e-05
-0.000129364
-8.50131e-06
-0.000106712
-2.0278e-06
-0.000101974
1.00672e-05
-7.83071e-05
2.52998e-05
-7.46537e-05
-6.03925e-05
-1.32584e-05
-3.77808e-05
-2.32203e-05
-4.31209e-05
-3.0666e-05
-4.80469e-05
-3.54259e-05
-5.44133e-05
-3.90073e-05
-6.02852e-05
-4.38301e-05
-6.58803e-05
-4.95043e-05
-6.42838e-05
-2.2655e-05
-2.27086e-05
3.73681e-05
2.30443e-05
4.10998e-05
-8.30272e-07
3.78448e-05
-3.76724e-05
5.25209e-05
-5.73298e-05
6.60262e-05
-6.14335e-05
7.63294e-05
-5.67195e-05
8.97427e-05
-5.38321e-05
9.69231e-05
-4.089e-05
7.25596e-05
-3.36612e-06
2.69199e-05
-1.72641e-06
1.74229e-05
-4.94607e-05
1.76938e-05
-6.2321e-05
2.47604e-05
-8.16774e-05
3.09736e-05
-9.53457e-05
-0.0001366
-3.31583e-06
-3.44659e-05
-5.98599e-06
-4.04512e-05
-7.63991e-06
-4.63931e-05
-8.78925e-06
-5.32639e-05
-9.88384e-06
-5.91929e-05
-1.33562e-05
-6.24285e-05
-1.57244e-05
-6.19281e-05
-1.5887e-06
-3.68445e-05
1.30883e-05
8.37526e-06
-1.07153e-05
2.29771e-05
-1.16259e-05
-3.67616e-05
1.53137e-06
-7.04874e-05
1.26291e-05
-7.25318e-05
2.25671e-05
-6.66584e-05
2.78015e-05
-5.90683e-05
3.64437e-05
-4.95363e-05
7.1897e-05
-3.8665e-05
0.000126142
-4.62317e-05
0.000155366
-5.21994e-05
0.000179702
-5.89545e-05
0.000180063
-5.24098e-05
0.000169141
-2.47559e-05
-2.42532e-05
-1.3317e-06
-3.31347e-05
-2.23543e-06
-3.95478e-05
-3.80017e-06
-4.48285e-05
-6.76709e-06
-5.02968e-05
-1.12722e-05
-5.46876e-05
-1.71057e-05
-5.65948e-05
-2.42632e-05
-5.47704e-05
-1.8557e-05
-4.25505e-05
8.64274e-06
-1.88244e-05
3.88158e-05
-7.19589e-06
4.37524e-05
-4.16983e-05
3.84373e-05
-6.51726e-05
3.82991e-05
-7.2394e-05
4.46295e-05
-7.29899e-05
5.31456e-05
-6.75866e-05
5.94771e-05
-5.58712e-05
6.0162e-05
-3.93537e-05
5.02073e-05
-3.62798e-05
3.90791e-05
-4.10721e-05
2.7152e-05
-4.70257e-05
2.639e-05
-5.16452e-05
5.55449e-05
-5.38624e-05
-5.6495e-05
2.10403e-08
-3.31563e-05
1.03683e-07
-3.96308e-05
-7.35978e-07
-4.3989e-05
-2.74665e-06
-4.8286e-05
-6.06848e-06
-5.13656e-05
-1.05627e-05
-5.21003e-05
-1.5362e-05
-4.99709e-05
-1.51257e-05
-4.27866e-05
-1.56233e-06
-3.23876e-05
1.69296e-05
-2.56877e-05
2.54351e-05
-5.02037e-05
2.45769e-05
-6.43146e-05
2.28443e-05
-7.06618e-05
2.22467e-05
-7.23935e-05
2.45788e-05
-6.99206e-05
3.19144e-05
-6.32096e-05
4.64218e-05
-5.38646e-05
5.85057e-05
-4.8366e-05
5.83727e-05
-4.094e-05
4.78273e-05
-3.64786e-05
3.1747e-05
-3.55611e-05
1.81596e-05
-4.02727e-05
-4.07879e-05
2.40802e-06
-3.55646e-05
3.70757e-06
-4.09306e-05
3.54626e-06
-4.38277e-05
1.78055e-06
-4.65203e-05
-1.2507e-06
-4.83342e-05
-4.85891e-06
-4.8492e-05
-7.75587e-06
-4.70736e-05
-7.32967e-06
-4.32126e-05
-3.50826e-08
-3.96819e-05
1.06818e-05
-3.64044e-05
1.11583e-05
-5.06802e-05
7.42332e-06
-6.05796e-05
2.94204e-06
-6.6181e-05
-1.03641e-06
-6.8416e-05
-4.15462e-06
-6.68041e-05
-7.2352e-06
-6.01317e-05
-8.28301e-06
-5.28191e-05
-8.29903e-06
-4.8353e-05
-6.20202e-06
-4.30367e-05
-3.80261e-06
-3.88766e-05
-3.90391e-06
-3.54574e-05
-5.90552e-06
-3.82672e-05
-3.88547e-05
1.94841e-06
-3.75134e-05
3.2607e-06
-4.22431e-05
3.25567e-06
-4.38228e-05
1.82275e-06
-4.50874e-05
-8.74304e-07
-4.5637e-05
-3.90276e-06
-4.54633e-05
-6.30214e-06
-4.46741e-05
-6.23138e-06
-4.32831e-05
-3.12074e-06
-4.27923e-05
2.45338e-06
-4.19784e-05
1.42408e-06
-4.96508e-05
-4.37287e-06
-5.47827e-05
-1.10237e-05
-5.95305e-05
-1.69088e-05
-6.25318e-05
-2.16952e-05
-6.20195e-05
-2.50219e-05
-5.68069e-05
-2.68419e-05
-5.10029e-05
-2.83887e-05
-4.68062e-05
-2.98611e-05
-4.15657e-05
-3.0434e-05
-3.83007e-05
-2.90925e-05
-3.6798e-05
-2.83235e-05
-3.90322e-05
-3.87391e-05
1.10283e-06
-3.86163e-05
1.61969e-06
-4.276e-05
1.14681e-06
-4.33499e-05
-1.51818e-07
-4.37887e-05
-1.84949e-06
-4.39393e-05
-3.49927e-06
-4.38134e-05
-4.79389e-06
-4.33792e-05
-5.08749e-06
-4.29893e-05
-4.60624e-06
-4.32734e-05
-3.43872e-06
-4.31457e-05
-6.1825e-06
-4.69069e-05
-1.12424e-05
-4.97229e-05
-1.72834e-05
-5.349e-05
-2.28204e-05
-5.69958e-05
-2.77622e-05
-5.70787e-05
-3.10084e-05
-5.35631e-05
-3.28844e-05
-4.91268e-05
-3.35278e-05
-4.61655e-05
-3.30771e-05
-4.20143e-05
-3.20679e-05
-3.93106e-05
-3.01671e-05
-3.86943e-05
-3.03671e-05
-3.88322e-05
-3.60845e-05
1.99401e-07
-3.88159e-05
-1.69267e-07
-4.23914e-05
-9.97528e-07
-4.25217e-05
-1.98793e-06
-4.27982e-05
-2.91855e-06
-4.30085e-05
-3.76981e-06
-4.2962e-05
-4.29991e-06
-4.2849e-05
-4.41643e-06
-4.28726e-05
-4.50905e-06
-4.31806e-05
-4.59949e-06
-4.30552e-05
-7.22546e-06
-4.42809e-05
-1.11451e-05
-4.58034e-05
-1.61875e-05
-4.8448e-05
-2.22225e-05
-5.09615e-05
-2.77916e-05
-5.15104e-05
-3.11689e-05
-5.01859e-05
-3.27572e-05
-3.30163e-05
-3.21109e-05
-3.18814e-05
-3.224e-05
-3.30286e-05
-2.2218e-07
-8.37331e-07
-1.5067e-06
-2.13627e-06
-2.72155e-06
-3.13378e-06
-3.36128e-06
-3.4942e-06
-3.93322e-06
-4.28848e-06
-5.46168e-06
-7.21831e-06
-1.00427e-05
-1.44591e-05
-1.88991e-05
)
;

boundaryField
{
    leftWall
    {
        type            fixedValue;
        value           uniform 0;
    }
    rightWall
    {
        type            fixedValue;
        value           nonuniform 0();
    }
    lowerWall
    {
        type            fixedValue;
        value           uniform 0;
    }
    atmosphere
    {
        type            calculated;
        value           nonuniform 0();
    }
    defaultFaces
    {
        type            empty;
        value           nonuniform 0();
    }
    procBoundary0to1
    {
        type            processor;
        value           nonuniform List<scalar> 
26
(
7.05962e-06
9.01872e-06
1.12809e-05
7.45748e-06
8.56827e-06
8.54152e-06
1.31055e-05
1.45675e-05
4.63374e-05
4.36731e-05
5.6354e-05
9.08638e-05
0.000113617
0.000113917
7.54439e-05
4.15771e-05
1.89704e-05
4.06321e-05
3.86991e-05
0.000145498
8.84072e-05
2.45621e-06
-7.83868e-06
-2.84396e-05
-3.3016e-05
-3.33624e-05
)
;
    }
    procBoundary0to2
    {
        type            processor;
        value           nonuniform List<scalar> 
24
(
-4.75408e-05
-4.5905e-05
-4.29221e-05
-3.95374e-05
-3.83375e-05
-3.80366e-05
-3.57557e-05
-3.85937e-05
-4.17763e-05
-4.18523e-05
-4.21686e-05
-4.24232e-05
-4.25496e-05
-4.26214e-05
-4.27396e-05
-4.27415e-05
-4.26998e-05
-4.31076e-05
-4.40468e-05
-4.5624e-05
-4.65454e-05
-4.70712e-05
-2.17291e-05
-4.73568e-05
)
;
    }
}


// ************************************************************************* //
