/*--------------------------------*- C++ -*----------------------------------*\
| =========                 |                                                 |
| \\      /  F ield         | OpenFOAM: The Open Source CFD Toolbox           |
|  \\    /   O peration     | Version:  2.4.0                                 |
|   \\  /    A nd           | Web:      www.OpenFOAM.org                      |
|    \\/     M anipulation  |                                                 |
\*---------------------------------------------------------------------------*/
FoamFile
{
    version     2.0;
    format      ascii;
    class       surfaceScalarField;
    location    "0.4";
    object      phi.air;
}
// * * * * * * * * * * * * * * * * * * * * * * * * * * * * * * * * * * * * * //

dimensions      [0 3 -1 0 0 0 0];

internalField   nonuniform List<scalar> 
1101
(
3.24659e-06
-3.24659e-06
6.54521e-06
-3.29862e-06
9.59742e-06
-3.05221e-06
1.34214e-05
-3.82396e-06
1.5863e-05
-2.44163e-06
1.96735e-05
-3.8105e-06
2.3341e-05
-3.66746e-06
2.59886e-05
-2.64765e-06
2.86678e-05
-2.67918e-06
3.20897e-05
-3.42186e-06
3.61349e-05
-4.04526e-06
3.93584e-05
-3.2235e-06
4.15809e-05
-2.22243e-06
4.28987e-05
-1.31786e-06
4.3309e-05
-4.10228e-07
4.33194e-05
-1.0458e-08
4.21117e-05
1.2077e-06
3.93307e-05
2.78101e-06
3.45528e-05
4.77793e-06
2.74838e-05
7.06899e-06
1.77958e-05
9.68793e-06
1.07362e-05
3.24888e-06
-6.49546e-06
6.55248e-06
-6.60221e-06
9.61988e-06
-6.11962e-06
1.33553e-05
-7.55938e-06
1.59774e-05
-5.06371e-06
1.97104e-05
-7.54355e-06
2.32472e-05
-7.20423e-06
2.59877e-05
-5.38815e-06
2.89326e-05
-5.62406e-06
3.24041e-05
-6.89336e-06
3.62895e-05
-7.93065e-06
3.91632e-05
-6.09721e-06
4.13869e-05
-4.44611e-06
4.29356e-05
-2.86663e-06
4.40521e-05
-1.52669e-06
4.42184e-05
-1.76722e-07
4.34892e-05
1.93687e-06
4.03933e-05
5.87686e-06
3.54455e-05
9.72579e-06
2.70548e-05
1.54597e-05
1.82955e-05
1.84473e-05
2.00129e-05
3.25299e-06
-9.74845e-06
6.54039e-06
-9.88961e-06
9.66272e-06
-9.24195e-06
1.32583e-05
-1.11549e-05
1.61657e-05
-7.97114e-06
1.97035e-05
-1.10814e-05
2.30043e-05
-1.0505e-05
2.59877e-05
-8.3715e-06
2.94361e-05
-9.07248e-06
3.296e-05
-1.04173e-05
3.59933e-05
-1.0964e-05
3.8388e-05
-8.49185e-06
4.12541e-05
-7.31219e-06
4.36091e-05
-5.22152e-06
4.56045e-05
-3.52185e-06
4.59872e-05
-5.59375e-07
4.48369e-05
3.08722e-06
4.20052e-05
8.70859e-06
3.57763e-05
1.59547e-05
2.77186e-05
2.35174e-05
1.92136e-05
2.69523e-05
2.79456e-05
3.25966e-06
-1.30074e-05
6.52308e-06
-1.31521e-05
9.72848e-06
-1.24465e-05
1.31551e-05
-1.45784e-05
1.62956e-05
-1.111e-05
1.97029e-05
-1.44818e-05
2.29167e-05
-1.37031e-05
2.59502e-05
-1.1383e-05
2.99325e-05
-1.30066e-05
3.30296e-05
-1.34335e-05
3.54464e-05
-1.32534e-05
3.81474e-05
-1.10314e-05
4.15901e-05
-1.0539e-05
4.44828e-05
-7.85008e-06
4.69583e-05
-5.66088e-06
4.81617e-05
-1.46397e-06
4.6613e-05
4.77812e-06
4.29192e-05
1.24368e-05
3.52266e-05
2.36479e-05
2.54982e-05
3.32457e-05
1.54975e-05
3.6953e-05
3.59856e-05
3.26641e-06
-1.59734e-05
6.52452e-06
-1.61013e-05
9.81415e-06
-1.54236e-05
1.30196e-05
-1.74169e-05
1.64851e-05
-1.42259e-05
1.96116e-05
-1.71895e-05
2.28157e-05
-1.64432e-05
2.64236e-05
-1.45101e-05
3.00162e-05
-1.61519e-05
3.28304e-05
-1.60347e-05
3.544e-05
-1.61449e-05
3.85682e-05
-1.49465e-05
4.20058e-05
-1.55945e-05
4.53896e-05
-1.40594e-05
4.86884e-05
-1.32967e-05
4.92468e-05
-7.03338e-06
4.7871e-05
2.5354e-06
4.38053e-05
1.59249e-05
3.74755e-05
3.03489e-05
2.80433e-05
4.27031e-05
1.65222e-05
4.84741e-05
4.39394e-05
3.27479e-06
-2.14597e-05
6.52075e-06
-2.17022e-05
9.99895e-06
-2.13758e-05
1.27534e-05
-2.34133e-05
1.67621e-05
-2.14876e-05
1.96135e-05
-2.44085e-05
2.27096e-05
-2.51464e-05
2.6734e-05
-2.51106e-05
2.97171e-05
-2.73901e-05
3.24079e-05
-2.88636e-05
3.50969e-05
-3.12585e-05
3.78734e-05
-3.22184e-05
4.00867e-05
-3.31655e-05
4.26893e-05
-3.40252e-05
4.47004e-05
-3.61665e-05
4.72022e-05
-3.43135e-05
4.79327e-05
-1.68717e-05
4.19282e-05
5.95435e-06
3.61618e-05
2.9308e-05
2.96088e-05
4.96094e-05
1.927e-05
5.89047e-05
5.4668e-05
3.1815e-06
-3.98059e-05
6.30413e-06
-4.02124e-05
9.77399e-06
-4.05223e-05
1.1997e-05
-4.21814e-05
1.5941e-05
-4.23569e-05
1.87085e-05
-4.52507e-05
2.09099e-05
-4.69778e-05
2.3495e-05
-4.87105e-05
2.57913e-05
-5.17983e-05
2.73572e-05
-5.26582e-05
2.76864e-05
-5.24459e-05
2.75616e-05
-4.4933e-05
2.65305e-05
-3.17715e-05
2.47765e-05
-2.14878e-05
2.24348e-05
-1.37731e-05
2.45517e-05
-6.92216e-06
3.42495e-05
-5.9898e-06
3.65476e-05
-6.27062e-06
2.94707e-05
2.2807e-05
2.72403e-05
4.56656e-05
2.18182e-05
6.46903e-05
6.34201e-05
2.50881e-06
-5.50015e-05
4.9428e-06
-5.4957e-05
7.44586e-06
-5.48383e-05
8.95771e-06
-5.35378e-05
1.07184e-05
-5.32938e-05
1.2042e-05
-5.15137e-05
1.20674e-05
-4.66927e-05
1.23082e-05
-4.2191e-05
1.29307e-05
-3.61711e-05
1.34908e-05
-2.85146e-05
1.30154e-05
-2.19651e-05
1.36754e-05
-1.85154e-05
1.5199e-05
-1.64299e-05
1.69262e-05
-1.39741e-05
1.62434e-05
-8.71934e-06
1.52243e-05
-4.73193e-06
1.72143e-05
-1.86594e-06
2.80291e-05
1.12781e-05
2.73805e-05
2.26445e-05
2.02248e-05
4.03434e-05
2.08141e-05
6.18373e-05
7.00768e-05
2.62146e-06
-3.2124e-05
5.34015e-06
-3.20765e-05
7.88103e-06
-3.16065e-05
1.0695e-05
-3.06241e-05
1.33683e-05
-3.025e-05
1.67918e-05
-3.03146e-05
2.04047e-05
-2.79133e-05
2.6205e-05
-2.91345e-05
3.18551e-05
-2.87294e-05
3.70932e-05
-2.64507e-05
4.31055e-05
-2.46989e-05
5.02994e-05
-2.47383e-05
5.51034e-05
-2.10738e-05
5.77594e-05
-1.66109e-05
5.68982e-05
-7.85479e-06
5.24702e-05
-3.01598e-07
3.73768e-05
1.32309e-05
2.79118e-05
2.46502e-05
4.62957e-05
3.09203e-05
3.41233e-05
3.48158e-05
3.51158e-05
4.54375e-05
5.63365e-05
3.44356e-06
-3.10377e-05
7.00512e-06
-3.1278e-05
1.05667e-05
-3.108e-05
1.44027e-05
-3.07761e-05
1.81069e-05
-3.076e-05
2.22519e-05
-3.19645e-05
2.58866e-05
-2.96244e-05
3.06178e-05
-3.26058e-05
3.46672e-05
-3.21192e-05
3.93044e-05
-3.08752e-05
4.3953e-05
-2.933e-05
4.6048e-05
-2.68302e-05
4.57408e-05
-2.07597e-05
4.59937e-05
-1.68534e-05
4.64199e-05
-8.26699e-06
4.86728e-05
-2.54067e-06
5.12483e-05
1.06618e-05
5.27827e-05
2.31098e-05
4.88442e-05
3.83071e-05
5.00332e-05
5.39501e-05
3.58614e-05
4.70017e-05
4.08109e-05
4.03533e-06
-3.50525e-05
8.06017e-06
-3.52829e-05
1.2003e-05
-3.50039e-05
1.59159e-05
-3.46711e-05
1.9426e-05
-3.42532e-05
2.27019e-05
-3.52242e-05
2.6757e-05
-3.3653e-05
3.14416e-05
-3.72688e-05
3.62917e-05
-3.69588e-05
4.35742e-05
-3.81523e-05
5.12825e-05
-3.70338e-05
5.75885e-05
-3.3125e-05
6.38702e-05
-2.70119e-05
6.99349e-05
-2.28465e-05
7.20169e-05
-1.02915e-05
6.97503e-05
-2.43685e-07
6.83588e-05
1.20592e-05
6.88714e-05
2.25958e-05
7.0748e-05
3.6367e-05
7.2932e-05
5.10741e-05
6.83415e-05
6.18819e-05
4.60756e-05
4.44814e-06
-2.75426e-05
8.81798e-06
-2.78379e-05
1.29404e-05
-2.8344e-05
1.67283e-05
-2.92415e-05
2.01233e-05
-3.05859e-05
2.26766e-05
-3.31355e-05
2.64415e-05
-3.55562e-05
3.01987e-05
-4.0551e-05
3.60906e-05
-4.26953e-05
4.56609e-05
-4.76452e-05
5.45844e-05
-4.60014e-05
6.08565e-05
-3.94091e-05
6.48971e-05
-3.08538e-05
6.67917e-05
-2.42936e-05
7.01404e-05
-1.31106e-05
7.53064e-05
-4.67213e-06
8.22976e-05
5.90746e-06
8.53272e-05
2.02768e-05
9.16382e-05
3.05375e-05
9.97606e-05
4.26377e-05
0.0001112
5.48291e-05
5.43943e-05
4.5151e-06
1.50372e-05
8.87077e-06
1.48103e-05
1.28212e-05
1.53193e-05
1.6224e-05
1.56397e-05
1.88866e-05
1.56336e-05
2.05005e-05
1.37914e-05
2.32695e-05
9.90764e-06
2.72652e-05
-2.41805e-06
3.56765e-05
-1.91994e-05
4.69661e-05
-2.42017e-05
5.45029e-05
-2.73873e-05
6.01906e-05
-3.33286e-05
6.63278e-05
-3.38857e-05
7.11485e-05
-3.05169e-05
7.64838e-05
-2.16314e-05
8.03541e-05
-1.21954e-05
8.31162e-05
-1.59421e-06
8.99213e-05
1.07019e-05
9.80275e-05
2.09708e-05
0.000111496
2.82046e-05
0.000125716
3.88801e-05
4.15849e-05
4.8211e-06
1.72581e-05
9.04577e-06
1.83772e-05
1.24354e-05
2.08169e-05
1.42234e-05
2.47845e-05
1.30898e-05
3.12477e-05
6.37173e-06
3.92636e-05
-3.07151e-06
3.79408e-05
1.15716e-05
1.09953e-05
3.95106e-05
-3.08544e-06
4.71448e-05
1.74616e-05
4.30571e-05
4.12388e-05
4.13788e-05
3.47921e-05
3.76683e-05
2.70413e-05
3.39622e-05
1.58426e-05
3.37553e-05
9.71475e-06
3.81435e-05
3.40138e-06
4.81035e-05
1.9395e-05
6.22674e-05
3.20706e-05
7.79369e-05
1.4204e-05
9.99506e-05
1.72588e-05
0.000114486
2.52219e-05
2.07913e-05
5.94036e-06
-2.69165e-05
1.09659e-05
-2.53257e-05
1.59901e-05
-2.32133e-05
2.04928e-05
-1.93375e-05
2.41647e-05
-1.29701e-05
2.17237e-05
4.54761e-07
-1.08355e-06
2.27974e-05
-5.79925e-06
1.78115e-05
-1.74031e-06
4.09029e-05
-8.13534e-06
2.65656e-05
-3.4801e-05
2.6642e-05
-4.84322e-05
3.52138e-05
-5.56506e-05
3.82321e-05
-5.34796e-05
3.86601e-05
-4.34115e-05
4.03536e-05
-3.53224e-05
4.04736e-05
-2.22988e-05
4.31892e-05
-5.23258e-06
3.94164e-05
1.92087e-05
3.49385e-05
4.68083e-05
2.68085e-05
7.23996e-05
2.17724e-05
2.27024e-05
1.91633e-06
-5.72702e-05
4.6937e-06
-5.68383e-05
8.63398e-06
-5.65499e-05
1.38059e-05
-5.51455e-05
1.94246e-05
-5.14412e-05
2.03288e-05
-3.84733e-05
1.02515e-05
-1.65588e-05
-8.91434e-06
-1.2267e-05
-6.22717e-05
2.61888e-05
-8.57517e-05
-1.62625e-05
-8.33712e-05
-2.54223e-05
-7.82558e-05
-7.31768e-06
-6.77151e-05
5.25586e-06
-5.82961e-05
2.23323e-05
-5.27411e-05
3.68178e-05
-4.88614e-05
5.09476e-05
-4.57366e-05
5.98699e-05
-4.014e-05
5.58914e-05
-2.14793e-05
5.02034e-05
-2.26104e-05
3.91167e-05
1.42891e-05
4.07578e-05
3.84298e-05
-6.24954e-06
-5.1038e-05
-1.00227e-05
-5.30818e-05
-1.1098e-05
-5.54921e-05
-7.08947e-06
-5.9174e-05
5.32189e-06
-6.38724e-05
3.75206e-05
-7.07117e-05
9.07401e-05
-6.99789e-05
6.95758e-05
4.15249e-06
-1.24949e-05
8.31685e-05
-5.51413e-05
3.01756e-06
-6.36439e-05
-4.07986e-05
-6.34835e-05
-4.24105e-05
-5.55169e-05
-4.74748e-05
-4.21863e-05
-4.5453e-05
-2.96865e-05
-3.74316e-05
-1.95763e-05
-2.60155e-05
-2.5415e-05
-4.2828e-06
-2.44313e-05
6.2351e-06
-1.45459e-05
3.68926e-06
-1.45354e-05
2.51861e-06
5.80009e-06
1.98711e-05
2.33467e-05
2.56722e-05
2.72288e-05
-1.3258e-05
-3.77801e-05
-2.32196e-05
-4.31202e-05
-3.06655e-05
-4.80462e-05
-3.54269e-05
-5.44126e-05
-3.90123e-05
-6.0287e-05
-4.38241e-05
-6.59001e-05
-4.95097e-05
-6.42953e-05
-2.2669e-05
-2.27082e-05
3.73626e-05
2.30527e-05
4.10984e-05
-8.2565e-07
3.78424e-05
-3.76714e-05
5.25188e-05
-5.73293e-05
6.60256e-05
-6.14328e-05
7.6332e-05
-5.67184e-05
8.97661e-05
-5.38309e-05
9.7206e-05
-4.08888e-05
7.82733e-05
-3.207e-06
3.90967e-05
8.03259e-06
2.41658e-05
-2.27197e-05
1.73495e-05
-3.40336e-05
3.58786e-05
-4.86721e-05
3.00276e-05
-2.50848e-05
-2.85316e-05
-3.3153e-06
-3.44648e-05
-5.98524e-06
-4.04502e-05
-7.63928e-06
-4.63922e-05
-8.78894e-06
-5.3263e-05
-9.88396e-06
-5.9192e-05
-1.33565e-05
-6.24275e-05
-1.57249e-05
-6.19269e-05
-1.58934e-06
-3.68438e-05
1.30872e-05
8.37616e-06
-1.07167e-05
2.29782e-05
-1.16278e-05
-3.67604e-05
1.52909e-06
-7.04862e-05
1.26268e-05
-7.25305e-05
2.25656e-05
-6.66571e-05
2.78013e-05
-5.90666e-05
3.6447e-05
-4.95346e-05
7.19036e-05
-3.86639e-05
0.00012615
-4.62312e-05
0.000155377
-5.21979e-05
0.00017973
-5.8952e-05
0.000180212
-5.2406e-05
0.000169834
-2.47119e-05
-2.36378e-05
-1.33135e-06
-3.31334e-05
-2.23493e-06
-3.95466e-05
-3.79972e-06
-4.48274e-05
-6.76693e-06
-5.02958e-05
-1.12724e-05
-5.46865e-05
-1.71062e-05
-5.65937e-05
-2.42639e-05
-5.47692e-05
-1.85582e-05
-4.25494e-05
8.64104e-06
-1.88231e-05
3.8814e-05
-7.19471e-06
4.37505e-05
-4.16968e-05
3.84353e-05
-6.5171e-05
3.8297e-05
-7.23922e-05
4.46281e-05
-7.29882e-05
5.3146e-05
-6.75846e-05
5.94805e-05
-5.58691e-05
6.01684e-05
-3.93517e-05
5.02153e-05
-3.62782e-05
3.9088e-05
-4.10706e-05
2.71603e-05
-4.70243e-05
2.63985e-05
-5.16442e-05
5.55505e-05
-5.3864e-05
-5.64992e-05
2.13808e-08
-3.31548e-05
1.04146e-07
-3.96294e-05
-7.35581e-07
-4.39877e-05
-2.7465e-06
-4.82848e-05
-6.06859e-06
-5.13644e-05
-1.05631e-05
-5.20991e-05
-1.53627e-05
-4.99696e-05
-1.51268e-05
-4.27853e-05
-1.56377e-06
-3.23861e-05
1.69277e-05
-2.56862e-05
2.5433e-05
-5.02021e-05
2.45748e-05
-6.43128e-05
2.28424e-05
-7.06598e-05
2.22455e-05
-7.23913e-05
2.45791e-05
-6.99182e-05
3.19172e-05
-6.32072e-05
4.64278e-05
-5.38623e-05
5.85139e-05
-4.83643e-05
5.8382e-05
-4.09387e-05
4.78358e-05
-3.64781e-05
3.17536e-05
-3.5562e-05
1.81644e-05
-4.02748e-05
-4.07925e-05
2.40825e-06
-3.55631e-05
3.70791e-06
-4.09291e-05
3.54654e-06
-4.38263e-05
1.78066e-06
-4.6519e-05
-1.25088e-06
-4.83329e-05
-4.85938e-06
-4.84906e-05
-7.75668e-06
-4.70723e-05
-7.33081e-06
-4.32112e-05
-3.65105e-08
-3.96804e-05
1.06801e-05
-3.64029e-05
1.11564e-05
-5.06784e-05
7.42136e-06
-6.05777e-05
2.94037e-06
-6.61788e-05
-1.03734e-06
-6.84136e-05
-4.154e-06
-6.68015e-05
-7.23209e-06
-6.01291e-05
-8.27749e-06
-5.28169e-05
-8.29115e-06
-4.83506e-05
-6.19389e-06
-4.30359e-05
-3.79554e-06
-3.88765e-05
-3.89864e-06
-3.5459e-05
-5.90349e-06
-3.82699e-05
-3.8859e-05
1.94858e-06
-3.75116e-05
3.26094e-06
-4.22414e-05
3.25587e-06
-4.38212e-05
1.82278e-06
-4.50859e-05
-8.74502e-07
-4.56356e-05
-3.90322e-06
-4.54619e-05
-6.30289e-06
-4.46726e-05
-6.23241e-06
-4.32816e-05
-3.12205e-06
-4.27908e-05
2.4518e-06
-4.19767e-05
1.42235e-06
-4.96489e-05
-4.37462e-06
-5.47807e-05
-1.10252e-05
-5.95283e-05
-1.69094e-05
-6.25293e-05
-2.16943e-05
-6.20166e-05
-2.50193e-05
-5.68041e-05
-2.68363e-05
-5.09998e-05
-2.83822e-05
-4.68047e-05
-2.98536e-05
-4.15645e-05
-3.04284e-05
-3.83017e-05
-2.90882e-05
-3.67992e-05
-2.83227e-05
-3.90354e-05
-3.8742e-05
1.10294e-06
-3.86146e-05
1.61984e-06
-4.27583e-05
1.14692e-06
-4.33483e-05
-1.51847e-07
-4.37871e-05
-1.84971e-06
-4.39377e-05
-3.49972e-06
-4.38119e-05
-4.79458e-06
-4.33777e-05
-5.08844e-06
-4.29878e-05
-4.60743e-06
-4.32718e-05
-3.44012e-06
-4.3144e-05
-6.18403e-06
-4.6905e-05
-1.12439e-05
-4.97208e-05
-1.72845e-05
-5.34877e-05
-2.28206e-05
-5.69932e-05
-2.77613e-05
-5.70759e-05
-3.10054e-05
-5.356e-05
-3.28804e-05
-4.91248e-05
-3.35216e-05
-4.61635e-05
-3.30716e-05
-4.20145e-05
-3.20624e-05
-3.9311e-05
-3.01648e-05
-3.86968e-05
-3.03661e-05
-3.8834e-05
-3.60899e-05
1.99474e-07
-3.8814e-05
-1.69178e-07
-4.23896e-05
-9.97491e-07
-4.25199e-05
-1.988e-06
-4.27966e-05
-2.91879e-06
-4.30069e-05
-3.77025e-06
-4.29604e-05
-4.30057e-06
-4.28474e-05
-4.4173e-06
-4.2871e-05
-4.51013e-06
-4.31789e-05
-4.60073e-06
-4.30534e-05
-7.22679e-06
-4.4279e-05
-1.11463e-05
-4.58013e-05
-1.61883e-05
-4.84457e-05
-2.22224e-05
-5.09591e-05
-2.77904e-05
-5.15079e-05
-3.11668e-05
-5.01835e-05
-3.27531e-05
-3.30123e-05
-3.21056e-05
-3.18782e-05
-3.22371e-05
-3.30312e-05
-2.22164e-07
-8.37313e-07
-1.50672e-06
-2.1364e-06
-2.72182e-06
-3.13423e-06
-3.36191e-06
-3.49502e-06
-3.93421e-06
-4.2896e-06
-5.46285e-06
-7.21936e-06
-1.00433e-05
-1.4459e-05
-1.88981e-05
)
;

boundaryField
{
    leftWall
    {
        type            fixedValue;
        value           uniform 0;
    }
    rightWall
    {
        type            fixedValue;
        value           nonuniform 0();
    }
    lowerWall
    {
        type            fixedValue;
        value           uniform 0;
    }
    atmosphere
    {
        type            calculated;
        value           nonuniform 0();
    }
    defaultFaces
    {
        type            empty;
        value           nonuniform 0();
    }
    procBoundary0to1
    {
        type            processor;
        value           nonuniform List<scalar> 
26
(
7.05964e-06
9.01874e-06
1.12809e-05
7.45752e-06
8.56831e-06
8.54155e-06
1.31055e-05
1.45634e-05
4.63666e-05
4.2578e-05
5.68622e-05
0.00010701
0.000144622
0.000135452
9.23193e-05
4.60372e-05
-3.68992e-05
4.44441e-05
3.79817e-05
0.000146624
8.84111e-05
2.45775e-06
-7.83699e-06
-2.84397e-05
-3.30183e-05
-3.33637e-05
)
;
    }
    procBoundary0to2
    {
        type            processor;
        value           nonuniform List<scalar> 
24
(
-4.75385e-05
-4.59044e-05
-4.29211e-05
-3.95384e-05
-3.83379e-05
-3.804e-05
-3.57573e-05
-3.85919e-05
-4.17745e-05
-4.18505e-05
-4.21669e-05
-4.24215e-05
-4.2548e-05
-4.26197e-05
-4.27379e-05
-4.27397e-05
-4.2698e-05
-4.31057e-05
-4.40448e-05
-4.56218e-05
-4.65433e-05
-4.70689e-05
-2.1727e-05
-4.73547e-05
)
;
    }
}


// ************************************************************************* //
