/*--------------------------------*- C++ -*----------------------------------*\
| =========                 |                                                 |
| \\      /  F ield         | OpenFOAM: The Open Source CFD Toolbox           |
|  \\    /   O peration     | Version:  2.4.0                                 |
|   \\  /    A nd           | Web:      www.OpenFOAM.org                      |
|    \\/     M anipulation  |                                                 |
\*---------------------------------------------------------------------------*/
FoamFile
{
    version     2.0;
    format      ascii;
    class       volScalarField;
    location    "0.4";
    object      rho;
}
// * * * * * * * * * * * * * * * * * * * * * * * * * * * * * * * * * * * * * //

dimensions      [1 -3 0 0 0 0 0];

internalField   nonuniform List<scalar> 
575
(
13529
13529
13529
13529
13529
13529
13529
13529
13529
13529
13529
13529
13529
13529
13529
13529
13529
13529
13529
13529
13529
13529
13529
13529
13529
13529
13529
13529
13529
13529
13529
13529
13529
13529
13529
13529
13529
13529
13529
13529
13529
13529
13529
13529
13529
13529
13529
13529
13529
13529
13529
13529
13529
13529
13529
13529
13529
13529
13529
13529
13529
13529
13529
13529
13529
13529
13529
13529
13529
13529
13529
13529
13529
13529
13529
13528.9
13528.8
13528.7
13528.5
13528.3
13527.7
13528.2
13528.6
13528.8
13528.9
13529
13529
13529
13526.9
13526.7
13526.7
13524.8
13525.9
13522.7
13519.4
13517.6
13507.9
13490.9
13458
13425.8
13363.6
13292.7
13182.7
13276.7
13435.5
13510.8
13526.9
13528.8
13529
13528.9
13239.7
13223.7
13214.3
13105.7
13130.2
12960.7
12769.4
12611
12226.1
11689.8
10903.7
10185
9230.49
8138.9
7003.27
6235.5
7032.82
9627.87
12646.4
13462.9
13527
13528.9
8905.7
8786.73
8654.17
8091.06
7962.55
7173.18
6309.6
5578.44
4544.64
3502.66
2525.3
1875.38
1416.99
1155.05
1041.19
1005.51
1086.93
1936.84
6445.07
12331
13477
13528
2038.56
1982.89
1901.9
1725.33
1619.73
1420.78
1255.95
1143.93
1064.08
1024.6
1008.01
1002.68
1001.05
1000.48
1000.22
1000.19
1000.14
1009.28
1630.27
7622.45
12956.5
13518
1056.36
1053.06
1047.55
1039.56
1031.66
1021.81
1013.86
1007.93
1004.01
1001.95
1000.95
1000.49
1000.31
1000.21
1000.21
1000.2
1000.15
1000.07
1032.3
2173.1
9088.77
12975.2
1000.19
1000.18
1000.17
1000.15
1000.13
1000.1
1000.08
1000.06
1000.04
1000.03
1000.02
1000.02
1000.02
1000.02
1000.02
1000.02
1000.04
999.87
998.972
1026.79
2750.14
8913.22
1000.01
1000.01
1000.01
1000.01
1000.01
1000.01
1000.01
1000.01
1000.01
1000
1000
1000
999.999
999.985
999.981
999.984
999.987
999.97
999.758
999.102
1113.06
2946.58
1000
1000
1000
1000
1000
1000
1000
1000
999.999
999.964
999.831
999.542
998.838
996.991
995.987
995.649
996.987
998.462
999.421
999.34
1000.73
1167.04
999.807
999.81
999.83
999.861
999.899
999.938
999.977
999.983
999.539
995.366
987.689
977.145
959.017
930.015
908.991
894.681
909.488
936.332
962.939
980.912
992.058
1010.83
959.048
959.625
962.118
966.195
972.213
979.911
989.704
996.124
984.3
930.41
871.253
813.036
744.122
672.452
627.176
598.627
599.657
627.127
683.589
751.508
839.812
912.309
371.967
373.65
383.381
401.671
433.369
491.653
630.732
820.1
854.452
720.947
632.696
579.058
530.062
509.122
504.03
502.44
501.753
501.387
504.264
511.965
572.434
657.205
1.40052
1.3981
1.43134
1.51327
1.70619
2.17136
5.68543
66.91
228.8
239.246
293.053
357.468
403.972
443.32
465.313
480.618
488.978
493.075
497.249
497.567
501.548
505.362
1.00042
1.00032
1.00027
1.00024
1.00028
1.00295
1.0615
1.24499
1.53975
2.11552
4.26859
9.34173
21.5421
47.4387
80.4475
126.644
184.16
251.137
338.413
372.568
462.314
472.538
476.214
1.00019
1.00008
1.00006
1.00007
1.00083
1.0035
1.0023
1.00135
1.00136
1.00131
1.00026
1.00007
1.00007
1.00013
1.00028
1.00112
1.00703
1.17226
5.54247
13.8656
84.9676
126.802
150.262
1.00005
1.00003
1.00004
1.00005
1.00009
1.00005
1.00001
1.00001
1.00014
1.00012
1.00003
1.00001
1.00001
1.00002
1.00005
1.00008
1.00004
1.00004
1.00006
1.00015
1.00078
1.00366
1.01223
1.00005
1.00003
1.00002
1.00002
1.00001
1
1
1.00001
1.00006
1.00014
1.00005
1.00001
1.00001
1.00009
1.00022
1.00024
1.00018
1.00008
1.00005
1.00012
1.00015
1.00017
1.00016
1.00003
1.00001
1
1
1
0.999999
0.999999
1
1
1.00004
1.00001
1.00001
1.00006
1.00034
1.00039
1.0004
1.0004
1.00018
1.00004
1.00006
1.00012
1.00013
1.00013
1
1
0.999999
0.999999
0.999999
0.999999
0.999999
0.999999
1
1
1
1.00001
1.00016
1.00038
1.00039
1.00032
1.00016
1.00005
1.00003
1.00003
1.00007
1.00006
1.00006
0.999999
0.999999
0.999999
0.999999
0.999999
0.999999
0.999999
1
1
1
1
1.00001
1.00017
1.00038
1.00031
1.00005
1.00003
1.00002
1.00002
1.00003
1.00006
1.00004
1.00003
0.999999
0.999999
0.999999
0.999999
0.999999
0.999999
1
1
1
1
1
1.00001
1.00005
1.00013
1.00007
1.00005
1.00003
1.00003
1.00002
1.00002
1.00002
1.00002
1.00001
0.999999
0.999999
0.999999
0.999999
0.999999
0.999999
1
1
1
1
1
1.00001
1.00002
1.00003
1.00007
1.00007
1.00006
1.00005
1.00003
1.00001
1.00001
1
1
0.999999
0.999999
0.999999
0.999999
0.999999
1
1
1
1
1
1
1
1.00001
1.00002
1.00006
1.00009
)
;

boundaryField
{
    leftWall
    {
        type            calculated;
        value           nonuniform List<scalar> 
26
(
13529
13529
13529
13529
13526.9
13239.7
8905.7
2038.56
1056.36
1000.19
1000.01
1000
999.807
959.048
371.967
1.40052
1.00042
1.00019
1.00005
1.00005
1.00003
1
0.999999
0.999999
0.999999
0.999999
)
;
    }
    rightWall
    {
        type            calculated;
        value           nonuniform 0();
    }
    lowerWall
    {
        type            calculated;
        value           nonuniform List<scalar> 
22
(
13529
13529
13529
13529
13529
13529
13529
13529
13529
13529
13529
13529
13529
13529
13529
13529
13529
13529
13529
13529
13529
13529
)
;
    }
    atmosphere
    {
        type            calculated;
        value           nonuniform 0();
    }
    defaultFaces
    {
        type            empty;
    }
    procBoundary0to1
    {
        type            processor;
        value           nonuniform List<scalar> 
26
(
13528.6
13528.6
13528.6
13528.5
13528.5
13528.4
13528.3
13528.3
13502
12584.5
7888.84
2463.66
1108.23
971.765
734.038
508.781
508.781
469.066
136.816
1.0225
1.00014
1.00007
1.00002
1.00001
1
1
)
;
    }
    procBoundary0to2
    {
        type            processor;
        value           nonuniform List<scalar> 
24
(
1.00008
1.00006
1.00004
1.00002
1.00001
1
1
0.999999
0.999999
0.999999
0.999999
1
1
1
1
1
1
1
1
1.00001
1.00003
1.00006
1.00008
1.00007
)
;
    }
}


// ************************************************************************* //
