/*--------------------------------*- C++ -*----------------------------------*\
| =========                 |                                                 |
| \\      /  F ield         | OpenFOAM: The Open Source CFD Toolbox           |
|  \\    /   O peration     | Version:  2.4.0                                 |
|   \\  /    A nd           | Web:      www.OpenFOAM.org                      |
|    \\/     M anipulation  |                                                 |
\*---------------------------------------------------------------------------*/
FoamFile
{
    version     2.0;
    format      ascii;
    class       volVectorField;
    location    "0.4";
    object      U;
}
// * * * * * * * * * * * * * * * * * * * * * * * * * * * * * * * * * * * * * //

dimensions      [0 1 -1 0 0 0 0];

internalField   nonuniform List<vector> 
575
(
(0.0189573 -0.00876366 0)
(0.054817 -0.00888024 0)
(0.0946796 -0.00831123 0)
(0.127214 -0.0101226 0)
(0.173346 -0.00685999 0)
(0.19597 -0.010185 0)
(0.247345 -0.00969039 0)
(0.286462 -0.00755561 0)
(0.310532 -0.00673913 0)
(0.339824 -0.0100455 0)
(0.390972 -0.0102734 0)
(0.434759 -0.00826594 0)
(0.458085 -0.00623383 0)
(0.484464 -0.00449832 0)
(0.488361 -0.000218795 0)
(0.494293 0.000707518 0)
(0.488279 0.00329465 0)
(0.470538 0.00508762 0)
(0.434805 0.0150969 0)
(0.368435 0.015356 0)
(0.275609 0.0283505 0)
(0.137767 0.0288154 0)
(0.0189729 -0.0262899 0)
(0.0548024 -0.0267569 0)
(0.0951218 -0.0246005 0)
(0.126634 -0.0313247 0)
(0.173216 -0.0191594 0)
(0.197996 -0.0314759 0)
(0.246543 -0.0298791 0)
(0.285247 -0.0211027 0)
(0.31151 -0.0219977 0)
(0.344511 -0.0271662 0)
(0.394761 -0.0334087 0)
(0.432639 -0.0268998 0)
(0.456678 -0.0173663 0)
(0.480742 -0.00972755 0)
(0.493024 -0.00408216 0)
(0.502366 -0.000381754 0)
(0.501228 0.0112047 0)
(0.48498 0.026662 0)
(0.441932 0.0378807 0)
(0.38289 0.0624622 0)
(0.250775 0.0758724 0)
(0.17472 0.0879 0)
(0.0189471 -0.0439465 0)
(0.0548546 -0.0446582 0)
(0.0951524 -0.0415499 0)
(0.126345 -0.0506495 0)
(0.172725 -0.03531 0)
(0.201485 -0.0506382 0)
(0.243793 -0.0477958 0)
(0.282612 -0.0372074 0)
(0.313286 -0.0390734 0)
(0.35403 -0.0483347 0)
(0.399207 -0.053454 0)
(0.420778 -0.0390835 0)
(0.451543 -0.0314216 0)
(0.483366 -0.0206385 0)
(0.505978 -0.0119441 0)
(0.52473 -0.00299832 0)
(0.518269 0.00693739 0)
(0.501953 0.0347488 0)
(0.45322 0.0661036 0)
(0.380898 0.103176 0)
(0.268029 0.120485 0)
(0.179034 0.126432 0)
(0.0189161 -0.0616016 0)
(0.0549907 -0.062403 0)
(0.0949236 -0.0585276 0)
(0.126678 -0.0699692 0)
(0.172188 -0.0509075 0)
(0.203117 -0.0693047 0)
(0.243575 -0.0651516 0)
(0.280763 -0.0531093 0)
(0.312903 -0.058383 0)
(0.36625 -0.0645252 0)
(0.390083 -0.0639112 0)
(0.415525 -0.0543814 0)
(0.45548 -0.0471583 0)
(0.485677 -0.0360344 0)
(0.520344 -0.0225541 0)
(0.546127 0.000301618 0)
(0.540846 0.0312236 0)
(0.51704 0.062635 0)
(0.456699 0.105701 0)
(0.36517 0.146918 0)
(0.233626 0.171359 0)
(0.12785 0.172674 0)
(0.0189552 -0.0760446 0)
(0.0550663 -0.0767555 0)
(0.0951844 -0.0730345 0)
(0.127207 -0.0840976 0)
(0.171615 -0.0661277 0)
(0.205225 -0.0832964 0)
(0.242165 -0.0781665 0)
(0.279943 -0.0645193 0)
(0.322 -0.0762047 0)
(0.363183 -0.0732932 0)
(0.385495 -0.0726358 0)
(0.422238 -0.0599869 0)
(0.45999 -0.0656646 0)
(0.494395 -0.0541771 0)
(0.533621 -0.0503435 0)
(0.56326 -0.0258047 0)
(0.558253 0.0123853 0)
(0.528562 0.0782305 0)
(0.468253 0.162639 0)
(0.402278 0.218127 0)
(0.257939 0.233194 0)
(0.127691 0.212617 0)
(0.019057 -0.102119 0)
(0.05507 -0.103383 0)
(0.0956673 -0.100575 0)
(0.129373 -0.113985 0)
(0.166196 -0.0983077 0)
(0.213364 -0.117389 0)
(0.236402 -0.118775 0)
(0.284174 -0.114347 0)
(0.325604 -0.12492 0)
(0.355936 -0.128144 0)
(0.383966 -0.128223 0)
(0.424638 -0.122821 0)
(0.448991 -0.117999 0)
(0.47642 -0.102669 0)
(0.508419 -0.0800193 0)
(0.517619 -0.0224095 0)
(0.546966 0.0274798 0)
(0.524418 0.0704824 0)
(0.467543 0.142677 0)
(0.390419 0.24265 0)
(0.304331 0.286803 0)
(0.148009 0.270877 0)
(0.018613 -0.133629 0)
(0.0536052 -0.133415 0)
(0.0928701 -0.131093 0)
(0.127196 -0.130713 0)
(0.153459 -0.124485 0)
(0.207724 -0.12318 0)
(0.225322 -0.112917 0)
(0.256053 -0.101256 0)
(0.281645 -0.085902 0)
(0.30711 -0.059433 0)
(0.31417 -0.0289254 0)
(0.313879 0.00814509 0)
(0.302004 0.0388047 0)
(0.282579 0.054847 0)
(0.260084 0.0553958 0)
(0.239233 0.0686226 0)
(0.284693 0.143341 0)
(0.32162 0.307902 0)
(0.351843 0.259287 0)
(0.348825 0.261218 0)
(0.303676 0.329506 0)
(0.2111 0.307115 0)
(0.0140108 -0.0584473 0)
(0.0418024 -0.0572105 0)
(0.0681053 -0.0554101 0)
(0.0958155 -0.0472929 0)
(0.104362 -0.0459681 0)
(0.128452 -0.0438112 0)
(0.134266 -0.0364616 0)
(0.12967 -0.0382894 0)
(0.140217 -0.056522 0)
(0.147996 -0.0777489 0)
(0.150928 -0.10439 0)
(0.150431 -0.125644 0)
(0.16547 -0.140358 0)
(0.18415 -0.138345 0)
(0.19171 -0.118108 0)
(0.179617 -0.101682 0)
(0.17095 -0.129089 0)
(0.235997 -0.0425277 0)
(0.224059 0.257921 0)
(0.214882 0.30972 0)
(0.264285 0.35482 0)
(0.230239 0.371485 0)
(0.0062149 -0.179347 0)
(0.0197915 -0.181728 0)
(0.0315934 -0.184827 0)
(0.0486153 -0.187816 0)
(0.0577959 -0.195623 0)
(0.0797309 -0.206721 0)
(0.0977287 -0.203864 0)
(0.119784 -0.212113 0)
(0.158171 -0.207873 0)
(0.184435 -0.184689 0)
(0.214552 -0.153796 0)
(0.248019 -0.111596 0)
(0.282381 -0.0639573 0)
(0.303568 -0.0199702 0)
(0.311346 0.0459903 0)
(0.302132 0.0956423 0)
(0.266563 0.219 0)
(0.130318 0.253742 0)
(0.169769 0.235965 0)
(0.112874 0.411049 0)
(0.159224 0.352796 0)
(0.241113 0.3616 0)
(0.00924936 -0.165997 0)
(0.0278554 -0.165428 0)
(0.046881 -0.160941 0)
(0.0671704 -0.152825 0)
(0.0869868 -0.147168 0)
(0.108069 -0.144064 0)
(0.130075 -0.122663 0)
(0.148217 -0.130479 0)
(0.178348 -0.127532 0)
(0.195865 -0.117856 0)
(0.221018 -0.112042 0)
(0.245645 -0.119651 0)
(0.245471 -0.11984 0)
(0.252186 -0.116602 0)
(0.24674 -0.100209 0)
(0.256419 -0.0882617 0)
(0.261577 -0.0409675 0)
(0.293769 0.0506847 0)
(0.27256 0.149661 0)
(0.278918 0.288455 0)
(0.190159 0.37141 0)
(0.216088 0.302541 0)
(0.0108868 -0.161604 0)
(0.0323852 -0.163454 0)
(0.0538079 -0.163142 0)
(0.0748537 -0.163351 0)
(0.095738 -0.163751 0)
(0.111415 -0.174497 0)
(0.135841 -0.167886 0)
(0.151531 -0.191752 0)
(0.185495 -0.193278 0)
(0.208601 -0.195041 0)
(0.254057 -0.190959 0)
(0.294383 -0.171915 0)
(0.326466 -0.129618 0)
(0.363301 -0.0961632 0)
(0.37332 -0.014522 0)
(0.394655 0.0461815 0)
(0.366166 0.130242 0)
(0.382618 0.169611 0)
(0.362824 0.238777 0)
(0.422216 0.305362 0)
(0.416413 0.445632 0)
(0.349963 0.334497 0)
(0.0118405 -0.206787 0)
(0.0357567 -0.207699 0)
(0.0586594 -0.205708 0)
(0.0792789 -0.203061 0)
(0.10069 -0.200141 0)
(0.11311 -0.203297 0)
(0.134462 -0.199798 0)
(0.149487 -0.220151 0)
(0.178943 -0.217284 0)
(0.212051 -0.22843 0)
(0.270948 -0.218136 0)
(0.307822 -0.192566 0)
(0.344107 -0.150519 0)
(0.351899 -0.126846 0)
(0.366378 -0.0754096 0)
(0.394359 -0.04414 0)
(0.421988 0.0205148 0)
(0.457329 0.0939845 0)
(0.467389 0.168804 0)
(0.534657 0.250488 0)
(0.573854 0.346026 0)
(0.666591 0.418849 0)
(0.0124591 -0.215674 0)
(0.037032 -0.216117 0)
(0.0601598 -0.212422 0)
(0.0798264 -0.208116 0)
(0.0990125 -0.203084 0)
(0.107386 -0.20289 0)
(0.12326 -0.207937 0)
(0.131281 -0.234134 0)
(0.168648 -0.257551 0)
(0.2151 -0.295236 0)
(0.275746 -0.285521 0)
(0.308989 -0.238856 0)
(0.344293 -0.197642 0)
(0.367349 -0.163118 0)
(0.393757 -0.0924332 0)
(0.431972 -0.0312616 0)
(0.432179 0.0244294 0)
(0.478304 0.0998507 0)
(0.496108 0.139064 0)
(0.572684 0.193623 0)
(0.634433 0.230066 0)
(0.754386 0.296279 0)
(0.0145011 -0.291837 0)
(0.0402392 -0.29093 0)
(0.0643082 -0.28351 0)
(0.0837718 -0.272589 0)
(0.0976928 -0.255712 0)
(0.0962311 -0.235053 0)
(0.0956474 -0.214681 0)
(0.0998563 -0.223926 0)
(0.129393 -0.268553 0)
(0.171962 -0.347463 0)
(0.216188 -0.320572 0)
(0.223714 -0.285339 0)
(0.214646 -0.241077 0)
(0.178593 -0.186299 0)
(0.16904 -0.129283 0)
(0.179271 -0.0721693 0)
(0.205378 -0.00419452 0)
(0.304012 0.047076 0)
(0.358953 0.108902 0)
(0.491684 0.125488 0)
(0.595183 0.187984 0)
(0.66932 0.174623 0)
(0.0173141 -0.356922 0)
(0.0462994 -0.354169 0)
(0.0747378 -0.347207 0)
(0.101763 -0.336339 0)
(0.126415 -0.319588 0)
(0.138246 -0.302713 0)
(0.109909 -0.303042 0)
(0.0408205 -0.33615 0)
(-0.0155015 -0.403507 0)
(-0.0732426 -0.425392 0)
(-0.0906765 -0.330685 0)
(-0.154742 -0.226168 0)
(-0.200548 -0.114904 0)
(-0.202876 -0.0639532 0)
(-0.196796 -0.0491743 0)
(-0.174111 -0.0512359 0)
(-0.127415 -0.0498489 0)
(-0.0692946 -0.051246 0)
(0.0527036 -0.0263252 0)
(0.147691 -0.0368605 0)
(0.351224 0.0832138 0)
(0.432444 0.0784273 0)
(0.00508087 0.649376 0)
(0.0159091 0.664393 0)
(0.0345492 0.679561 0)
(0.0563675 0.706616 0)
(0.0877713 0.749584 0)
(0.122487 0.854745 0)
(0.0444164 0.926515 0)
(0.0550217 0.099426 0)
(-0.197577 -0.327037 0)
(-0.459677 -0.307811 0)
(-0.445623 -0.226107 0)
(-0.403681 -0.215522 0)
(-0.36307 -0.24079 0)
(-0.302483 -0.246917 0)
(-0.280807 -0.235563 0)
(-0.249274 -0.197944 0)
(-0.224511 -0.162857 0)
(-0.183011 -0.172916 0)
(-0.110262 -0.139243 0)
(-0.0582859 -0.168633 0)
(0.0642523 -0.080862 0)
(0.173099 -0.0560594 0)
(-0.0183695 -0.908404 0)
(-0.0480078 -0.919428 0)
(-0.0589335 -0.930024 0)
(-0.0581531 -0.942502 0)
(-0.0170863 -0.952903 0)
(0.0925729 -0.96009 0)
(0.297465 -0.870813 0)
(0.611424 0.0484344 0)
(0.145472 0.936568 0)
(-0.289951 0.475239 0)
(-0.316383 0.239756 0)
(-0.333861 0.308328 0)
(-0.306493 0.210081 0)
(-0.234945 0.00446125 0)
(-0.18408 -0.139546 0)
(-0.135508 -0.237661 0)
(-0.1196 -0.294354 0)
(-0.104715 -0.289162 0)
(-0.0840009 -0.273367 0)
(-0.0381093 -0.280791 0)
(0.00477783 -0.198896 0)
(0.0937811 -0.220452 0)
(0.181263 -0.229663 0)
(-0.0385001 0.0851075 0)
(-0.102648 0.069706 0)
(-0.148667 0.0491344 0)
(-0.181458 0.0137794 0)
(-0.198043 -0.0364384 0)
(-0.212749 -0.118115 0)
(-0.296472 -0.185414 0)
(-0.231704 -0.0864217 0)
(0.0435472 0.00161881 0)
(0.29907 -0.415245 0)
(0.174523 -0.503807 0)
(0.235236 -0.555019 0)
(0.306329 -0.49638 0)
(0.38135 -0.305541 0)
(0.444755 -0.111571 0)
(0.539015 0.0938867 0)
(0.508975 0.531099 0)
(0.253937 0.855739 0)
(0.163445 0.561565 0)
(0.110261 0.360841 0)
(0.126012 -0.221295 0)
(0.171737 -0.325722 0)
(0.181832 -0.335558 0)
(-0.0111805 -0.311851 0)
(-0.0278943 -0.344984 0)
(-0.0382189 -0.37189 0)
(-0.0447597 -0.399841 0)
(-0.0474291 -0.411788 0)
(-0.052028 -0.392635 0)
(-0.106143 -0.326191 0)
(-0.0816896 -0.0685236 0)
(0.0811672 0.238686 0)
(0.0133404 0.379102 0)
(-0.0999251 -0.0380322 0)
(-0.0158134 -0.238775 0)
(0.0368181 -0.322436 0)
(0.0948308 -0.394648 0)
(0.12994 -0.444543 0)
(0.149449 -0.50182 0)
(0.283275 -0.564938 0)
(0.518586 -0.700133 0)
(0.781658 -0.646209 0)
(0.890792 -0.535149 0)
(0.980889 -0.128478 0)
(0.982866 0.244368 0)
(0.841956 0.394909 0)
(-0.00426044 -0.178857 0)
(-0.00918585 -0.215213 0)
(-0.0150717 -0.253518 0)
(-0.0263296 -0.297058 0)
(-0.0465748 -0.339138 0)
(-0.0752481 -0.370017 0)
(-0.118017 -0.383505 0)
(-0.140663 -0.315352 0)
(-0.0366711 -0.141665 0)
(0.125434 -0.0568445 0)
(0.264245 -0.260648 0)
(0.218999 -0.397105 0)
(0.200337 -0.375908 0)
(0.213171 -0.328085 0)
(0.25949 -0.238322 0)
(0.302443 -0.103089 0)
(0.33191 0.0498562 0)
(0.300841 0.0524163 0)
(0.243345 -0.0913803 0)
(0.166707 -0.260843 0)
(0.107223 -0.456063 0)
(0.202168 -0.539728 0)
(0.406254 -0.603142 0)
(-0.000924736 -0.128298 0)
(0.000930276 -0.167406 0)
(0.000110411 -0.196955 0)
(-0.0073476 -0.226353 0)
(-0.0214988 -0.247788 0)
(-0.0426094 -0.253347 0)
(-0.0751531 -0.236849 0)
(-0.083105 -0.183796 0)
(-0.0843113 -0.0919539 0)
(0.0661221 -0.0510551 0)
(0.124747 -0.252659 0)
(0.139298 -0.365424 0)
(0.125608 -0.418084 0)
(0.116182 -0.440532 0)
(0.122319 -0.449747 0)
(0.143222 -0.438782 0)
(0.213802 -0.395679 0)
(0.285258 -0.350576 0)
(0.325656 -0.24915 0)
(0.297705 -0.161147 0)
(0.21556 -0.107142 0)
(0.132115 -0.111143 0)
(0.061079 -0.115938 0)
(0.00683884 -0.213489 0)
(0.0180314 -0.24211 0)
(0.0214787 -0.258473 0)
(0.0160848 -0.27511 0)
(0.00270922 -0.286421 0)
(-0.0162064 -0.287025 0)
(-0.0378785 -0.276854 0)
(-0.0417242 -0.247156 0)
(-0.0354815 -0.219638 0)
(0.0354124 -0.18935 0)
(0.0721033 -0.260638 0)
(0.0502409 -0.317184 0)
(0.0308131 -0.345419 0)
(0.00206314 -0.353108 0)
(-0.0138902 -0.335006 0)
(-0.0330356 -0.291664 0)
(-0.0430952 -0.248959 0)
(-0.0461953 -0.23988 0)
(-0.0413974 -0.249099 0)
(-0.0287139 -0.250589 0)
(-0.0110821 -0.249612 0)
(-0.0274798 -0.266223 0)
(-0.0331427 -0.248494 0)
(0.00569181 -0.189336 0)
(0.0152376 -0.21883 0)
(0.0192928 -0.233205 0)
(0.0153681 -0.245159 0)
(0.00390666 -0.252559 0)
(-0.0131333 -0.252676 0)
(-0.0291717 -0.248258 0)
(-0.0358011 -0.238928 0)
(-0.0335452 -0.233331 0)
(0.00237388 -0.227142 0)
(0.0228769 -0.289349 0)
(-0.00738154 -0.329496 0)
(-0.0410041 -0.357324 0)
(-0.0759013 -0.369352 0)
(-0.106229 -0.36114 0)
(-0.13009 -0.323871 0)
(-0.139816 -0.282379 0)
(-0.148609 -0.247498 0)
(-0.160546 -0.208582 0)
(-0.161527 -0.184181 0)
(-0.158449 -0.166048 0)
(-0.157224 -0.193001 0)
(-0.14731 -0.222651 0)
(0.00346705 -0.205802 0)
(0.00821862 -0.229235 0)
(0.00893871 -0.234383 0)
(0.00336236 -0.23832 0)
(-0.00502116 -0.238798 0)
(-0.0144201 -0.237895 0)
(-0.022639 -0.234668 0)
(-0.0274737 -0.229183 0)
(-0.029047 -0.228291 0)
(-0.0176908 -0.227142 0)
(-0.0208703 -0.256356 0)
(-0.0450253 -0.275431 0)
(-0.0760513 -0.298221 0)
(-0.107731 -0.316464 0)
(-0.139769 -0.315815 0)
(-0.161815 -0.293142 0)
(-0.173168 -0.266753 0)
(-0.179255 -0.248993 0)
(-0.182063 -0.224394 0)
(-0.172848 -0.21018 0)
(-0.165611 -0.205117 0)
(-0.161654 -0.197949 0)
(-0.167296 -0.169852 0)
(0.00148828 -0.209551 0)
(0.000723256 -0.23068 0)
(-0.00258293 -0.232526 0)
(-0.00805421 -0.233656 0)
(-0.0130095 -0.234225 0)
(-0.0179993 -0.233756 0)
(-0.0220585 -0.232252 0)
(-0.0234394 -0.231472 0)
(-0.0249655 -0.234014 0)
(-0.0215884 -0.234058 0)
(-0.0289849 -0.243453 0)
(-0.0483682 -0.254461 0)
(-0.0709928 -0.273124 0)
(-0.102557 -0.294317 0)
(-0.139229 -0.298156 0)
(-0.162229 -0.28555 0)
(-0.174283 -0.264927 0)
(-0.178262 -0.253395 0)
(-0.174752 -0.23568 0)
(-0.168808 -0.221168 0)
(-0.171148 -0.218203 0)
(-0.17711 -0.221167 0)
(-0.178358 -0.213858 0)
(0.000369226 -0.209828 0)
(-0.00280194 -0.228021 0)
(-0.00632239 -0.227913 0)
(-0.0095966 -0.229376 0)
(-0.0131809 -0.230881 0)
(-0.0157758 -0.230701 0)
(-0.0173543 -0.230722 0)
(-0.0183824 -0.23111 0)
(-0.0193278 -0.232111 0)
(-0.0215217 -0.230072 0)
(-0.0251114 -0.233569 0)
(-0.0340188 -0.238579 0)
(-0.0441591 -0.249548 0)
(-0.0641464 -0.255668 0)
(-0.0926238 -0.258804 0)
(-0.113012 -0.258721 0)
)
;

boundaryField
{
    leftWall
    {
        type            calculated;
        value           uniform (0 0 0);
    }
    rightWall
    {
        type            calculated;
        value           nonuniform 0();
    }
    lowerWall
    {
        type            calculated;
        value           uniform (0 0 0);
    }
    atmosphere
    {
        type            calculated;
        value           nonuniform 0();
    }
    defaultFaces
    {
        type            empty;
    }
    procBoundary0to1
    {
        type            processor;
        value           nonuniform List<vector> 
26
(
(0.0178019 0.0119865 0)
(0.0246501 0.0611441 0)
(0.0730413 0.119419 0)
(0.036837 0.169413 0)
(0.0605056 0.207433 0)
(0.0368375 0.26751 0)
(0.0732307 0.298208 0)
(0.0862567 0.406882 0)
(0.267899 0.414005 0)
(0.264265 0.330884 0)
(0.32176 0.232027 0)
(0.62189 0.357798 0)
(0.844323 0.302004 0)
(0.787877 0.182233 0)
(0.563286 0.048266 0)
(0.326277 -0.051341 0)
(0.326277 -0.051341 0)
(0.231275 -0.309392 0)
(0.207942 -0.341753 0)
(0.769969 0.330234 0)
(0.497385 -0.631632 0)
(-0.0082819 -0.180971 0)
(-0.0481889 -0.270875 0)
(-0.153329 -0.246885 0)
(-0.181695 -0.167132 0)
(-0.178416 -0.206291 0)
)
;
    }
    procBoundary0to2
    {
        type            processor;
        value           nonuniform List<vector> 
24
(
(-0.121894 -0.250741 0)
(-0.12886 -0.24434 0)
(-0.134141 -0.230688 0)
(-0.136153 -0.209127 0)
(-0.141238 -0.19976 0)
(-0.153391 -0.195403 0)
(-0.166665 -0.179683 0)
(-0.00106569 -0.206979 0)
(-0.00334886 -0.223594 0)
(-0.00570353 -0.22429 0)
(-0.00744086 -0.225928 0)
(-0.0103571 -0.227521 0)
(-0.0133863 -0.229172 0)
(-0.0160759 -0.230132 0)
(-0.0185324 -0.231078 0)
(-0.0206888 -0.230417 0)
(-0.022771 -0.229746 0)
(-0.0270322 -0.231385 0)
(-0.0305629 -0.23666 0)
(-0.0375667 -0.241849 0)
(-0.0507239 -0.24316 0)
(-0.0665495 -0.24569 0)
(-0.121894 -0.250741 0)
(-0.0794 -0.247407 0)
)
;
    }
}


// ************************************************************************* //
