/*--------------------------------*- C++ -*----------------------------------*\
| =========                 |                                                 |
| \\      /  F ield         | OpenFOAM: The Open Source CFD Toolbox           |
|  \\    /   O peration     | Version:  2.4.0                                 |
|   \\  /    A nd           | Web:      www.OpenFOAM.org                      |
|    \\/     M anipulation  |                                                 |
\*---------------------------------------------------------------------------*/
FoamFile
{
    version     2.0;
    format      ascii;
    class       volVectorField;
    location    "0.4";
    object      U.mercury;
}
// * * * * * * * * * * * * * * * * * * * * * * * * * * * * * * * * * * * * * //

dimensions      [0 1 -1 0 0 0 0];

internalField   nonuniform List<vector> 
575
(
(0.0189573 -0.00876366 0)
(0.054817 -0.00888024 0)
(0.0946796 -0.00831123 0)
(0.127214 -0.0101226 0)
(0.173346 -0.00686 0)
(0.19597 -0.010185 0)
(0.247345 -0.00969039 0)
(0.286462 -0.00755561 0)
(0.310532 -0.00673913 0)
(0.339824 -0.0100455 0)
(0.390972 -0.0102734 0)
(0.434759 -0.00826594 0)
(0.458085 -0.00623383 0)
(0.484464 -0.00449832 0)
(0.488361 -0.000218795 0)
(0.494293 0.000707518 0)
(0.488279 0.00329465 0)
(0.470538 0.00508763 0)
(0.434805 0.0150969 0)
(0.368435 0.015356 0)
(0.275609 0.0283505 0)
(0.137767 0.0288154 0)
(0.0189729 -0.0262899 0)
(0.0548024 -0.0267569 0)
(0.0951218 -0.0246005 0)
(0.126634 -0.0313247 0)
(0.173216 -0.0191594 0)
(0.197996 -0.0314759 0)
(0.246543 -0.0298791 0)
(0.285247 -0.0211027 0)
(0.31151 -0.0219977 0)
(0.344511 -0.0271662 0)
(0.394761 -0.0334088 0)
(0.432639 -0.0268998 0)
(0.456678 -0.0173663 0)
(0.480742 -0.00972756 0)
(0.493024 -0.00408216 0)
(0.502366 -0.000381754 0)
(0.501228 0.0112047 0)
(0.48498 0.026662 0)
(0.441932 0.0378807 0)
(0.38289 0.0624623 0)
(0.250775 0.0758724 0)
(0.17472 0.0879 0)
(0.0189471 -0.0439465 0)
(0.0548546 -0.0446582 0)
(0.0951525 -0.0415499 0)
(0.126345 -0.0506495 0)
(0.172725 -0.03531 0)
(0.201485 -0.0506382 0)
(0.243793 -0.0477958 0)
(0.282612 -0.0372074 0)
(0.313286 -0.0390734 0)
(0.35403 -0.0483347 0)
(0.399207 -0.053454 0)
(0.420778 -0.0390835 0)
(0.451543 -0.0314216 0)
(0.483366 -0.0206385 0)
(0.505978 -0.0119441 0)
(0.52473 -0.00299832 0)
(0.518269 0.00693739 0)
(0.501953 0.0347488 0)
(0.45322 0.0661036 0)
(0.380898 0.103176 0)
(0.268029 0.120485 0)
(0.179034 0.126432 0)
(0.0189161 -0.0616016 0)
(0.0549907 -0.062403 0)
(0.0949236 -0.0585276 0)
(0.126678 -0.0699692 0)
(0.172188 -0.0509075 0)
(0.203117 -0.0693047 0)
(0.243575 -0.0651516 0)
(0.280763 -0.0531093 0)
(0.312903 -0.0583831 0)
(0.36625 -0.0645254 0)
(0.390083 -0.0639116 0)
(0.415525 -0.0543822 0)
(0.45548 -0.0471601 0)
(0.485677 -0.0360374 0)
(0.520344 -0.0225607 0)
(0.546127 0.00029802 0)
(0.540846 0.0312223 0)
(0.51704 0.0626346 0)
(0.456699 0.105701 0)
(0.36517 0.146918 0)
(0.233626 0.171359 0)
(0.12785 0.172674 0)
(0.0189552 -0.0760571 0)
(0.0550662 -0.0767696 0)
(0.0951842 -0.0730487 0)
(0.127206 -0.0841317 0)
(0.171614 -0.0661495 0)
(0.205223 -0.0833578 0)
(0.242161 -0.078279 0)
(0.279937 -0.064665 0)
(0.321987 -0.0764945 0)
(0.363159 -0.0738252 0)
(0.38545 -0.0736322 0)
(0.422169 -0.06143 0)
(0.459887 -0.0680113 0)
(0.494271 -0.0576008 0)
(0.533537 -0.0555437 0)
(0.563445 -0.0297466 0)
(0.558445 0.0108971 0)
(0.528621 0.0779393 0)
(0.468257 0.162625 0)
(0.402278 0.218126 0)
(0.257939 0.233194 0)
(0.127691 0.212617 0)
(0.0190458 -0.1062 0)
(0.0550404 -0.10769 0)
(0.0956006 -0.105009 0)
(0.129254 -0.119995 0)
(0.166052 -0.103917 0)
(0.213043 -0.12547 0)
(0.235956 -0.129677 0)
(0.283609 -0.127493 0)
(0.324726 -0.143821 0)
(0.354721 -0.155314 0)
(0.382753 -0.168273 0)
(0.423396 -0.175454 0)
(0.446728 -0.188731 0)
(0.475426 -0.196593 0)
(0.511529 -0.203764 0)
(0.524562 -0.175747 0)
(0.559864 -0.109084 0)
(0.541522 -0.000822478 0)
(0.472263 0.128465 0)
(0.390812 0.241712 0)
(0.304336 0.286792 0)
(0.148009 0.270877 0)
(0.0184843 -0.211861 0)
(0.0533067 -0.214233 0)
(0.0921906 -0.214707 0)
(0.126325 -0.227908 0)
(0.152231 -0.223482 0)
(0.205176 -0.24193 0)
(0.222782 -0.25589 0)
(0.255735 -0.265351 0)
(0.282683 -0.287556 0)
(0.313232 -0.311473 0)
(0.326504 -0.356302 0)
(0.322153 -0.398185 0)
(0.332888 -0.409837 0)
(0.343545 -0.413162 0)
(0.347514 -0.426114 0)
(0.341236 -0.397206 0)
(0.463173 -0.288142 0)
(0.479862 -0.131789 0)
(0.421387 0.106735 0)
(0.357497 0.243205 0)
(0.303967 0.328819 0)
(0.211101 0.307111 0)
(0.0146199 -0.447236 0)
(0.0435093 -0.452726 0)
(0.0709119 -0.460575 0)
(0.101202 -0.478706 0)
(0.111389 -0.492501 0)
(0.13968 -0.523922 0)
(0.156893 -0.554073 0)
(0.146153 -0.583409 0)
(0.171162 -0.611244 0)
(0.194815 -0.613831 0)
(0.206346 -0.60543 0)
(0.202546 -0.48465 0)
(0.194292 -0.31086 0)
(0.192429 -0.21193 0)
(0.195622 -0.154311 0)
(0.184705 -0.13499 0)
(0.176298 -0.160772 0)
(0.396185 -0.248694 0)
(0.445978 -0.0160933 0)
(0.274867 0.211507 0)
(0.268145 0.347278 0)
(0.23027 0.371352 0)
(0.0107024 -0.582792 0)
(0.0322356 -0.585869 0)
(0.0526469 -0.590536 0)
(0.0771012 -0.596747 0)
(0.087796 -0.607432 0)
(0.115464 -0.624351 0)
(0.131823 -0.63579 0)
(0.145129 -0.650379 0)
(0.172649 -0.619946 0)
(0.189814 -0.494108 0)
(0.213775 -0.291819 0)
(0.247674 -0.195012 0)
(0.283424 -0.132908 0)
(0.306323 -0.0703995 0)
(0.315921 -0.000283066 0)
(0.308484 0.0513206 0)
(0.272092 0.175619 0)
(0.187564 0.122686 0)
(0.416111 -0.0908244 0)
(0.274061 0.0882967 0)
(0.1875 0.292382 0)
(0.242025 0.35486 0)
(0.00957057 -0.208906 0)
(0.027607 -0.20741 0)
(0.0467464 -0.20142 0)
(0.0673193 -0.191387 0)
(0.08755 -0.182359 0)
(0.10903 -0.174922 0)
(0.131425 -0.148426 0)
(0.149751 -0.149801 0)
(0.179606 -0.141712 0)
(0.196744 -0.129288 0)
(0.221704 -0.121652 0)
(0.246592 -0.128124 0)
(0.246588 -0.12802 0)
(0.253026 -0.124652 0)
(0.247586 -0.109241 0)
(0.257227 -0.0983462 0)
(0.262629 -0.0534457 0)
(0.296065 0.02784 0)
(0.300544 0.0777856 0)
(0.323178 -0.0331807 0)
(0.20093 0.127399 0)
(0.226533 0.24974 0)
(0.0109024 -0.166816 0)
(0.0324292 -0.168556 0)
(0.0538819 -0.168103 0)
(0.0749822 -0.16809 0)
(0.0959223 -0.168198 0)
(0.111681 -0.178506 0)
(0.136142 -0.171691 0)
(0.151747 -0.195113 0)
(0.185652 -0.196299 0)
(0.208692 -0.197841 0)
(0.254099 -0.193554 0)
(0.2944 -0.174381 0)
(0.326454 -0.132071 0)
(0.363287 -0.0984837 0)
(0.373373 -0.0169919 0)
(0.394871 0.043424 0)
(0.365928 0.124991 0)
(0.382964 0.163684 0)
(0.364018 0.232529 0)
(0.399565 0.185938 0)
(0.301872 0.0451612 0)
(0.321061 0.11995 0)
(0.0118422 -0.207778 0)
(0.0357618 -0.208667 0)
(0.0586687 -0.206654 0)
(0.0792941 -0.203976 0)
(0.100712 -0.201015 0)
(0.113139 -0.204098 0)
(0.134494 -0.200566 0)
(0.149511 -0.220813 0)
(0.178954 -0.217883 0)
(0.212053 -0.228971 0)
(0.270948 -0.218617 0)
(0.307824 -0.192967 0)
(0.344108 -0.1508 0)
(0.351886 -0.126863 0)
(0.366365 -0.0753046 0)
(0.394338 -0.0440112 0)
(0.421893 0.0203094 0)
(0.457256 0.0932217 0)
(0.467329 0.167696 0)
(0.535025 0.24303 0)
(0.508265 0.115949 0)
(0.482777 0.0773371 0)
(0.0124591 -0.215803 0)
(0.0370322 -0.216241 0)
(0.06016 -0.21254 0)
(0.0798268 -0.208224 0)
(0.0990129 -0.203181 0)
(0.107386 -0.20297 0)
(0.123261 -0.208005 0)
(0.131282 -0.234187 0)
(0.168643 -0.257581 0)
(0.21503 -0.295017 0)
(0.275628 -0.284733 0)
(0.308786 -0.237726 0)
(0.344077 -0.196431 0)
(0.367246 -0.162577 0)
(0.393816 -0.0928151 0)
(0.432105 -0.0324216 0)
(0.432202 0.0240928 0)
(0.478224 0.100644 0)
(0.496074 0.14036 0)
(0.572848 0.193888 0)
(0.631693 0.189018 0)
(0.60327 0.00431889 0)
(0.0145402 -0.308312 0)
(0.0403648 -0.307226 0)
(0.0645495 -0.298825 0)
(0.0841799 -0.286285 0)
(0.0983158 -0.266998 0)
(0.0971066 -0.243164 0)
(0.0964875 -0.21853 0)
(0.100045 -0.22479 0)
(0.129075 -0.268501 0)
(0.171839 -0.347615 0)
(0.21705 -0.322972 0)
(0.226208 -0.291594 0)
(0.21951 -0.25331 0)
(0.185986 -0.20483 0)
(0.175357 -0.150219 0)
(0.183719 -0.093969 0)
(0.20869 -0.0255255 0)
(0.310281 0.0283013 0)
(0.363119 0.0942939 0)
(0.493314 0.115499 0)
(0.596372 0.181185 0)
(0.696902 0.0692835 0)
(0.0177256 -0.598954 0)
(0.0480708 -0.596742 0)
(0.0782858 -0.586378 0)
(0.107073 -0.568931 0)
(0.133263 -0.540677 0)
(0.14888 -0.500075 0)
(0.132816 -0.439351 0)
(0.0520483 -0.41016 0)
(-0.0148096 -0.441581 0)
(-0.0729492 -0.47378 0)
(-0.082337 -0.371933 0)
(-0.146983 -0.254394 0)
(-0.200702 -0.132717 0)
(-0.203107 -0.0732761 0)
(-0.197083 -0.0546675 0)
(-0.174266 -0.0551728 0)
(-0.12745 -0.0533355 0)
(-0.069053 -0.0544265 0)
(0.0545015 -0.0300682 0)
(0.152852 -0.0447827 0)
(0.366852 0.0778003 0)
(0.442675 0.061228 0)
(0.0101573 0.230523 0)
(0.0249235 0.243894 0)
(0.0480789 0.242229 0)
(0.0743829 0.231812 0)
(0.109379 0.201127 0)
(0.146091 0.160838 0)
(0.153341 -0.117361 0)
(0.0745635 -0.653744 0)
(-0.176798 -0.707702 0)
(-0.454008 -0.601896 0)
(-0.439603 -0.364423 0)
(-0.393318 -0.301048 0)
(-0.35602 -0.303498 0)
(-0.299273 -0.288847 0)
(-0.279327 -0.263597 0)
(-0.248417 -0.214387 0)
(-0.22382 -0.172426 0)
(-0.182336 -0.17863 0)
(-0.109999 -0.141276 0)
(-0.0579095 -0.170296 0)
(0.0658492 -0.0827607 0)
(0.175522 -0.0648399 0)
(-0.0183706 -0.908403 0)
(-0.0480113 -0.919428 0)
(-0.0589367 -0.930024 0)
(-0.0581538 -0.942501 0)
(-0.0170827 -0.952898 0)
(0.0924755 -0.959924 0)
(0.277667 -0.868782 0)
(0.464889 -0.0740728 0)
(-0.0122651 0.523888 0)
(-0.371055 0.0831892 0)
(-0.405274 -0.246277 0)
(-0.367421 -0.3709 0)
(-0.313146 -0.5009 0)
(-0.234 -0.559367 0)
(-0.19463 -0.577392 0)
(-0.154394 -0.564139 0)
(-0.117134 -0.52603 0)
(-0.0840045 -0.459018 0)
(-0.0716089 -0.378544 0)
(-0.0259193 -0.365858 0)
(0.00786634 -0.227443 0)
(0.0945395 -0.243511 0)
(0.180865 -0.253031 0)
(-0.0385015 0.0850985 0)
(-0.102651 0.0696977 0)
(-0.14867 0.0491262 0)
(-0.18146 0.0137714 0)
(-0.198043 -0.0364676 0)
(-0.212781 -0.11867 0)
(-0.296494 -0.18571 0)
(-0.231656 -0.0864783 0)
(0.0436328 0.00150969 0)
(0.299078 -0.415258 0)
(0.174535 -0.503808 0)
(0.235248 -0.555017 0)
(0.306336 -0.49638 0)
(0.381351 -0.305554 0)
(0.444721 -0.11161 0)
(0.538797 0.0936562 0)
(0.506614 0.524305 0)
(0.229577 0.598533 0)
(0.101907 -0.200309 0)
(0.099945 -0.436784 0)
(0.0999058 -0.611642 0)
(0.154392 -0.617326 0)
(0.185697 -0.595126 0)
(-0.011182 -0.311852 0)
(-0.0278979 -0.344984 0)
(-0.0382227 -0.37189 0)
(-0.0447622 -0.399841 0)
(-0.0474295 -0.411788 0)
(-0.0520268 -0.392636 0)
(-0.106142 -0.326191 0)
(-0.0816837 -0.0685228 0)
(0.0811705 0.238685 0)
(0.0133476 0.379097 0)
(-0.0999158 -0.0380381 0)
(-0.0158026 -0.238783 0)
(0.0368305 -0.322445 0)
(0.0948411 -0.394656 0)
(0.129944 -0.444553 0)
(0.14944 -0.501828 0)
(0.283252 -0.564949 0)
(0.518548 -0.700144 0)
(0.781604 -0.646222 0)
(0.890725 -0.53517 0)
(0.980694 -0.128601 0)
(0.981789 0.242447 0)
(0.837163 0.373979 0)
(-0.00426137 -0.178868 0)
(-0.00918813 -0.215224 0)
(-0.0150742 -0.253528 0)
(-0.0263313 -0.297068 0)
(-0.0465749 -0.339146 0)
(-0.0752465 -0.370025 0)
(-0.118014 -0.383513 0)
(-0.140658 -0.315358 0)
(-0.0366626 -0.141673 0)
(0.125443 -0.0568502 0)
(0.264255 -0.260655 0)
(0.21901 -0.397111 0)
(0.200348 -0.375915 0)
(0.213181 -0.328092 0)
(0.259493 -0.23833 0)
(0.302432 -0.103098 0)
(0.331884 0.0498483 0)
(0.300803 0.0524093 0)
(0.243299 -0.0913912 0)
(0.16666 -0.260854 0)
(0.107177 -0.456066 0)
(0.20213 -0.53972 0)
(0.406231 -0.603132 0)
(-0.000925658 -0.128304 0)
(0.000928112 -0.167412 0)
(0.000108118 -0.196961 0)
(-0.00734907 -0.226359 0)
(-0.021499 -0.247794 0)
(-0.042608 -0.253353 0)
(-0.0751501 -0.236856 0)
(-0.0831001 -0.183802 0)
(-0.0843045 -0.0919607 0)
(0.066131 -0.0510627 0)
(0.124758 -0.252669 0)
(0.13931 -0.365435 0)
(0.125619 -0.418095 0)
(0.11619 -0.440544 0)
(0.122322 -0.449759 0)
(0.143214 -0.438795 0)
(0.213779 -0.39569 0)
(0.28522 -0.350583 0)
(0.325609 -0.249155 0)
(0.297657 -0.161149 0)
(0.215519 -0.107141 0)
(0.132084 -0.111133 0)
(0.061062 -0.115914 0)
(0.00683825 -0.213498 0)
(0.0180299 -0.242119 0)
(0.0214771 -0.258481 0)
(0.0160837 -0.275117 0)
(0.00270942 -0.286428 0)
(-0.0162047 -0.287032 0)
(-0.0378751 -0.276861 0)
(-0.0417189 -0.247164 0)
(-0.0354747 -0.219645 0)
(0.0354208 -0.189357 0)
(0.072113 -0.260647 0)
(0.0502513 -0.317194 0)
(0.0308229 -0.34543 0)
(0.0020701 -0.353121 0)
(-0.0138893 -0.33502 0)
(-0.0330457 -0.291679 0)
(-0.0431184 -0.248972 0)
(-0.0462313 -0.239892 0)
(-0.0414403 -0.249106 0)
(-0.0287547 -0.250591 0)
(-0.0111152 -0.249605 0)
(-0.0274993 -0.26621 0)
(-0.0331527 -0.248469 0)
(0.00569135 -0.189345 0)
(0.0152365 -0.218839 0)
(0.0192917 -0.233214 0)
(0.0153675 -0.245168 0)
(0.00390711 -0.252567 0)
(-0.0131315 -0.252684 0)
(-0.0291685 -0.248266 0)
(-0.0357963 -0.238936 0)
(-0.0335391 -0.23334 0)
(0.00238166 -0.227151 0)
(0.0228859 -0.289359 0)
(-0.00737215 -0.329507 0)
(-0.0409954 -0.357336 0)
(-0.0758957 -0.369365 0)
(-0.106229 -0.361155 0)
(-0.1301 -0.323886 0)
(-0.139838 -0.282394 0)
(-0.148641 -0.247508 0)
(-0.160584 -0.208588 0)
(-0.161562 -0.184179 0)
(-0.158476 -0.166041 0)
(-0.157238 -0.192985 0)
(-0.147312 -0.222633 0)
(0.00346675 -0.205812 0)
(0.00821793 -0.229244 0)
(0.00893804 -0.234392 0)
(0.00336217 -0.238329 0)
(-0.00502049 -0.238806 0)
(-0.0144183 -0.237903 0)
(-0.022636 -0.234676 0)
(-0.0274693 -0.229192 0)
(-0.0290413 -0.2283 0)
(-0.0176839 -0.227151 0)
(-0.0208625 -0.256366 0)
(-0.0450172 -0.275442 0)
(-0.0760443 -0.298233 0)
(-0.107727 -0.316478 0)
(-0.13977 -0.31583 0)
(-0.161826 -0.293158 0)
(-0.173187 -0.266766 0)
(-0.179282 -0.249003 0)
(-0.182094 -0.224397 0)
(-0.172877 -0.210177 0)
(-0.165632 -0.205107 0)
(-0.161663 -0.197935 0)
(-0.167292 -0.16983 0)
(0.00148808 -0.209561 0)
(0.000722829 -0.23069 0)
(-0.00258326 -0.232535 0)
(-0.00805413 -0.233665 0)
(-0.0130087 -0.234234 0)
(-0.0179975 -0.233764 0)
(-0.0220555 -0.232261 0)
(-0.0234352 -0.23148 0)
(-0.0249602 -0.234023 0)
(-0.0215822 -0.234067 0)
(-0.0289779 -0.243463 0)
(-0.0483614 -0.254473 0)
(-0.0709874 -0.273136 0)
(-0.102555 -0.294331 0)
(-0.139233 -0.29817 0)
(-0.162238 -0.285564 0)
(-0.1743 -0.264938 0)
(-0.178284 -0.253402 0)
(-0.174778 -0.235682 0)
(-0.168831 -0.221165 0)
(-0.171165 -0.218196 0)
(-0.177111 -0.221153 0)
(-0.178348 -0.213839 0)
(0.000369185 -0.209838 0)
(-0.00280203 -0.228031 0)
(-0.00632238 -0.227923 0)
(-0.00959618 -0.229385 0)
(-0.0131799 -0.23089 0)
(-0.0157739 -0.23071 0)
(-0.0173514 -0.230731 0)
(-0.0183785 -0.231119 0)
(-0.0193229 -0.23212 0)
(-0.021516 -0.230082 0)
(-0.0251053 -0.23358 0)
(-0.0340128 -0.23859 0)
(-0.0441548 -0.249559 0)
(-0.064145 -0.255681 0)
(-0.0926268 -0.258817 0)
(-0.113021 -0.258733 0)
)
;

boundaryField
{
    leftWall
    {
        type            fixedValue;
        value           uniform (0 0 0);
    }
    rightWall
    {
        type            fixedValue;
        value           nonuniform 0();
    }
    lowerWall
    {
        type            fixedValue;
        value           uniform (0 0 0);
    }
    atmosphere
    {
        type            fluxCorrectedVelocity;
        value           nonuniform 0();
    }
    defaultFaces
    {
        type            empty;
    }
    procBoundary0to1
    {
        type            processor;
        value           nonuniform List<vector> 
26
(
(0.0178019 0.0119859 0)
(0.0246501 0.0611435 0)
(0.0730414 0.119419 0)
(0.036837 0.169412 0)
(0.0605057 0.207432 0)
(0.0368375 0.267509 0)
(0.0732308 0.298207 0)
(0.0862567 0.40688 0)
(0.267669 0.413763 0)
(0.264849 0.32452 0)
(0.312815 0.175903 0)
(0.474668 0.148738 0)
(0.594801 0.0863739 0)
(0.679137 0.00143794 0)
(0.618299 -0.0217815 0)
(0.326216 -0.0763721 0)
(0.326216 -0.0763721 0)
(0.229177 -0.339883 0)
(0.214285 -0.610577 0)
(0.763854 0.287772 0)
(0.497411 -0.631631 0)
(-0.00826288 -0.180938 0)
(-0.0481723 -0.270846 0)
(-0.153307 -0.246858 0)
(-0.181669 -0.167106 0)
(-0.178379 -0.206265 0)
)
;
    }
    procBoundary0to2
    {
        type            processor;
        value           nonuniform List<vector> 
24
(
(-0.121906 -0.250753 0)
(-0.128879 -0.244346 0)
(-0.134162 -0.230692 0)
(-0.136173 -0.209125 0)
(-0.141248 -0.199755 0)
(-0.153389 -0.195389 0)
(-0.166646 -0.179669 0)
(-0.0010657 -0.206989 0)
(-0.00334883 -0.223604 0)
(-0.00570328 -0.2243 0)
(-0.0074402 -0.225938 0)
(-0.0103558 -0.22753 0)
(-0.0133843 -0.229181 0)
(-0.016073 -0.230141 0)
(-0.0185286 -0.231087 0)
(-0.0206842 -0.230426 0)
(-0.0227657 -0.229755 0)
(-0.0270266 -0.231396 0)
(-0.0305576 -0.236671 0)
(-0.0375626 -0.241861 0)
(-0.0507229 -0.243172 0)
(-0.0665524 -0.245702 0)
(-0.121906 -0.250753 0)
(-0.0794073 -0.247419 0)
)
;
    }
}


// ************************************************************************* //
