/*--------------------------------*- C++ -*----------------------------------*\
| =========                 |                                                 |
| \\      /  F ield         | OpenFOAM: The Open Source CFD Toolbox           |
|  \\    /   O peration     | Version:  2.4.0                                 |
|   \\  /    A nd           | Web:      www.OpenFOAM.org                      |
|    \\/     M anipulation  |                                                 |
\*---------------------------------------------------------------------------*/
FoamFile
{
    version     2.0;
    format      ascii;
    class       volVectorField;
    location    "0.4";
    object      U.oil;
}
// * * * * * * * * * * * * * * * * * * * * * * * * * * * * * * * * * * * * * //

dimensions      [0 1 -1 0 0 0 0];

internalField   nonuniform List<vector> 
575
(
(0.0189573 -0.00876366 0)
(0.0548171 -0.00888024 0)
(0.0946797 -0.00831124 0)
(0.127214 -0.0101226 0)
(0.173346 -0.00686 0)
(0.19597 -0.010185 0)
(0.247345 -0.00969039 0)
(0.286462 -0.00755562 0)
(0.310532 -0.00673913 0)
(0.339824 -0.0100455 0)
(0.390972 -0.0102734 0)
(0.434759 -0.00826576 0)
(0.458085 -0.00623278 0)
(0.484464 -0.00449466 0)
(0.488361 -0.000210198 0)
(0.494292 0.000722482 0)
(0.488276 0.00331568 0)
(0.470534 0.00511378 0)
(0.434796 0.0151289 0)
(0.368414 0.0154005 0)
(0.275217 0.0284867 0)
(0.136632 0.0331089 0)
(0.0189729 -0.0262899 0)
(0.0548024 -0.0267569 0)
(0.0951218 -0.0246005 0)
(0.126634 -0.0313247 0)
(0.173216 -0.0191594 0)
(0.197996 -0.0314759 0)
(0.246543 -0.0298791 0)
(0.285247 -0.0211027 0)
(0.31151 -0.0219977 0)
(0.344511 -0.0271662 0)
(0.394761 -0.0334087 0)
(0.432639 -0.0268995 0)
(0.456678 -0.0173638 0)
(0.480742 -0.00971766 0)
(0.493023 -0.00405903 0)
(0.502362 -0.000322885 0)
(0.501218 0.0113214 0)
(0.484963 0.0267906 0)
(0.441907 0.0380069 0)
(0.38285 0.0625793 0)
(0.25036 0.0760782 0)
(0.173517 0.0922726 0)
(0.0189472 -0.0439465 0)
(0.0548547 -0.0446582 0)
(0.0951525 -0.0415499 0)
(0.126345 -0.0506495 0)
(0.172725 -0.03531 0)
(0.201485 -0.0506382 0)
(0.243793 -0.0477958 0)
(0.282612 -0.0372074 0)
(0.313286 -0.0390734 0)
(0.35403 -0.0483347 0)
(0.399207 -0.053454 0)
(0.420779 -0.0390831 0)
(0.451543 -0.0314184 0)
(0.483366 -0.0206227 0)
(0.505976 -0.0118798 0)
(0.524712 -0.00269992 0)
(0.518211 0.00779755 0)
(0.501855 0.0358957 0)
(0.453101 0.0671112 0)
(0.380775 0.103792 0)
(0.267561 0.121015 0)
(0.177673 0.130998 0)
(0.0189162 -0.0616015 0)
(0.0549907 -0.062403 0)
(0.0949236 -0.0585276 0)
(0.126678 -0.0699692 0)
(0.172188 -0.0509075 0)
(0.203117 -0.0693047 0)
(0.243575 -0.0651516 0)
(0.280763 -0.0531093 0)
(0.312903 -0.058383 0)
(0.36625 -0.0645252 0)
(0.390083 -0.0639112 0)
(0.415525 -0.0543811 0)
(0.455481 -0.0471551 0)
(0.485677 -0.0360109 0)
(0.520325 -0.0223575 0)
(0.546029 0.00178837 0)
(0.540488 0.0350402 0)
(0.516305 0.0659341 0)
(0.455784 0.108594 0)
(0.364426 0.148863 0)
(0.232827 0.172703 0)
(0.126347 0.177852 0)
(0.0189552 -0.0760383 0)
(0.0550664 -0.0767479 0)
(0.0951845 -0.0730269 0)
(0.127207 -0.0840712 0)
(0.171615 -0.0661136 0)
(0.205227 -0.0832365 0)
(0.242169 -0.0780333 0)
(0.279951 -0.0643318 0)
(0.322019 -0.0757966 0)
(0.363215 -0.0726007 0)
(0.38554 -0.0716669 0)
(0.422291 -0.0588656 0)
(0.460048 -0.0643766 0)
(0.494447 -0.0528359 0)
(0.533636 -0.048959 0)
(0.562943 -0.0218947 0)
(0.557408 0.0267738 0)
(0.527274 0.109472 0)
(0.466727 0.182879 0)
(0.400824 0.226405 0)
(0.256669 0.236219 0)
(0.126056 0.218653 0)
(0.0190605 -0.100893 0)
(0.0550783 -0.102185 0)
(0.0956851 -0.0993992 0)
(0.12939 -0.113099 0)
(0.16622 -0.097354 0)
(0.213377 -0.117078 0)
(0.236376 -0.119424 0)
(0.284107 -0.115914 0)
(0.325412 -0.129066 0)
(0.355566 -0.136441 0)
(0.383506 -0.143464 0)
(0.424114 -0.145101 0)
(0.447953 -0.150504 0)
(0.475943 -0.148094 0)
(0.509953 -0.141188 0)
(0.520629 -0.0970099 0)
(0.550435 -0.0299119 0)
(0.520401 0.0849951 0)
(0.451352 0.20259 0)
(0.378979 0.275866 0)
(0.300248 0.295365 0)
(0.146158 0.278304 0)
(0.018553 -0.170184 0)
(0.0534652 -0.171406 0)
(0.0925492 -0.170645 0)
(0.126776 -0.177687 0)
(0.152864 -0.172497 0)
(0.20647 -0.181699 0)
(0.224066 -0.183665 0)
(0.255898 -0.181861 0)
(0.282142 -0.182095 0)
(0.309928 -0.175408 0)
(0.319434 -0.168633 0)
(0.316992 -0.144714 0)
(0.311136 -0.093852 0)
(0.294459 -0.0363709 0)
(0.268551 0.00840108 0)
(0.241656 0.0557475 0)
(0.3089 0.0799871 0)
(0.378759 0.147388 0)
(0.352899 0.263741 0)
(0.315234 0.336211 0)
(0.289201 0.360123 0)
(0.207909 0.316887 0)
(0.0142501 -0.211203 0)
(0.0424638 -0.210471 0)
(0.0691685 -0.20891 0)
(0.097738 -0.201272 0)
(0.106753 -0.197947 0)
(0.131813 -0.187564 0)
(0.139889 -0.165086 0)
(0.132864 -0.143906 0)
(0.144212 -0.128116 0)
(0.151444 -0.117228 0)
(0.152849 -0.121747 0)
(0.151104 -0.130276 0)
(0.165561 -0.140891 0)
(0.184157 -0.138363 0)
(0.191582 -0.117658 0)
(0.179046 -0.0970027 0)
(0.169307 -0.112608 0)
(0.238242 -0.0342783 0)
(0.278253 0.214353 0)
(0.174423 0.390358 0)
(0.220623 0.441657 0)
(0.220833 0.40553 0)
(0.00670657 -0.22355 0)
(0.0211094 -0.224528 0)
(0.0336887 -0.225205 0)
(0.0511655 -0.224427 0)
(0.0601475 -0.227906 0)
(0.0819597 -0.232771 0)
(0.0993294 -0.224142 0)
(0.1206 -0.226224 0)
(0.158446 -0.215684 0)
(0.184484 -0.187471 0)
(0.214551 -0.154112 0)
(0.248019 -0.111652 0)
(0.282381 -0.0639844 0)
(0.303558 -0.0199759 0)
(0.311213 0.0464049 0)
(0.30128 0.100035 0)
(0.262609 0.237073 0)
(0.108145 0.320657 0)
(0.168132 0.298342 0)
(0.0861833 0.529385 0)
(0.104925 0.47066 0)
(0.220137 0.467437 0)
(0.00924942 -0.166005 0)
(0.0278554 -0.165436 0)
(0.0468809 -0.160948 0)
(0.0671704 -0.152831 0)
(0.0869867 -0.147172 0)
(0.108069 -0.144067 0)
(0.130075 -0.122665 0)
(0.148217 -0.130479 0)
(0.178348 -0.127528 0)
(0.195865 -0.11784 0)
(0.221019 -0.112003 0)
(0.245634 -0.11949 0)
(0.245468 -0.119155 0)
(0.252164 -0.114192 0)
(0.246655 -0.0970201 0)
(0.256203 -0.0848181 0)
(0.261419 -0.0322963 0)
(0.286521 0.0991091 0)
(0.260055 0.233494 0)
(0.291002 0.369558 0)
(0.192557 0.493431 0)
(0.19599 0.405214 0)
(0.0108868 -0.161604 0)
(0.0323852 -0.163455 0)
(0.0538079 -0.163143 0)
(0.0748537 -0.163352 0)
(0.095738 -0.163751 0)
(0.111415 -0.174497 0)
(0.135841 -0.167886 0)
(0.15153 -0.191748 0)
(0.185493 -0.193115 0)
(0.2086 -0.192979 0)
(0.254087 -0.187504 0)
(0.294487 -0.16745 0)
(0.326717 -0.123838 0)
(0.363086 -0.0859629 0)
(0.372969 -0.00482461 0)
(0.393875 0.0550643 0)
(0.3649 0.141259 0)
(0.379137 0.187925 0)
(0.345663 0.29059 0)
(0.42122 0.379961 0)
(0.445367 0.530914 0)
(0.370178 0.430671 0)
(0.0118405 -0.206788 0)
(0.0357567 -0.207699 0)
(0.0586594 -0.205709 0)
(0.0792789 -0.203061 0)
(0.10069 -0.200142 0)
(0.113111 -0.203297 0)
(0.134461 -0.199784 0)
(0.149466 -0.21914 0)
(0.178766 -0.213786 0)
(0.211916 -0.217799 0)
(0.272403 -0.188803 0)
(0.307376 -0.135474 0)
(0.341532 -0.0772459 0)
(0.347626 -0.0497705 0)
(0.362908 0.00413411 0)
(0.390067 0.0379039 0)
(0.418656 0.100919 0)
(0.45696 0.173968 0)
(0.472073 0.24489 0)
(0.538444 0.332374 0)
(0.573101 0.440063 0)
(0.693101 0.489909 0)
(0.0124591 -0.215711 0)
(0.0370322 -0.216152 0)
(0.06016 -0.212453 0)
(0.0798267 -0.208141 0)
(0.0990128 -0.203101 0)
(0.107383 -0.202899 0)
(0.122957 -0.206968 0)
(0.127863 -0.229608 0)
(0.150087 -0.216286 0)
(0.199471 -0.239609 0)
(0.26557 -0.215434 0)
(0.296108 -0.166157 0)
(0.331132 -0.12315 0)
(0.353279 -0.0882388 0)
(0.382265 -0.0182636 0)
(0.423314 0.0445532 0)
(0.426544 0.103212 0)
(0.470705 0.179022 0)
(0.494041 0.218078 0)
(0.576629 0.268933 0)
(0.647606 0.300749 0)
(0.782875 0.35299 0)
(0.0145402 -0.308311 0)
(0.0403648 -0.307225 0)
(0.0645495 -0.298824 0)
(0.0841799 -0.286284 0)
(0.0983157 -0.266998 0)
(0.0967473 -0.243159 0)
(0.0931577 -0.217904 0)
(0.0453872 -0.239729 0)
(0.0920643 -0.236906 0)
(0.144501 -0.296468 0)
(0.193069 -0.26225 0)
(0.200885 -0.228516 0)
(0.194556 -0.19057 0)
(0.162953 -0.147082 0)
(0.160179 -0.099905 0)
(0.174534 -0.048942 0)
(0.201815 0.01877 0)
(0.295229 0.0733864 0)
(0.349294 0.142785 0)
(0.484621 0.168655 0)
(0.594431 0.236814 0)
(0.678685 0.218944 0)
(0.0177256 -0.598954 0)
(0.0480708 -0.596742 0)
(0.0782857 -0.586376 0)
(0.107072 -0.568924 0)
(0.13326 -0.540642 0)
(0.148692 -0.499182 0)
(0.117104 -0.44494 0)
(-0.0337541 -0.460065 0)
(-0.0490034 -0.40002 0)
(-0.0927402 -0.420426 0)
(-0.105437 -0.324185 0)
(-0.159358 -0.216615 0)
(-0.199448 -0.11045 0)
(-0.202531 -0.0623601 0)
(-0.196652 -0.0483926 0)
(-0.174054 -0.0507002 0)
(-0.127377 -0.0495352 0)
(-0.0693063 -0.0511059 0)
(0.0523309 -0.0255836 0)
(0.146218 -0.0346481 0)
(0.33848 0.0869688 0)
(0.417589 0.0941002 0)
(0.0101573 0.230522 0)
(0.0249233 0.243889 0)
(0.0480687 0.242074 0)
(0.0742663 0.230559 0)
(0.108789 0.195327 0)
(0.135293 0.0824549 0)
(-0.00136349 -0.604214 0)
(-0.203194 -0.795043 0)
(-0.26114 -0.670955 0)
(-0.443658 -0.536154 0)
(-0.430213 -0.357821 0)
(-0.392469 -0.304351 0)
(-0.355399 -0.306949 0)
(-0.299026 -0.291431 0)
(-0.279214 -0.265488 0)
(-0.248354 -0.215567 0)
(-0.223771 -0.173119 0)
(-0.18229 -0.179029 0)
(-0.109984 -0.141399 0)
(-0.0578874 -0.17039 0)
(0.0640724 -0.0808466 0)
(0.172517 -0.0555439 0)
(-0.0183706 -0.908402 0)
(-0.0480119 -0.919406 0)
(-0.0589487 -0.92941 0)
(-0.0581737 -0.938612 0)
(-0.023684 -0.907969 0)
(0.00186449 -0.816787 0)
(-0.230445 -0.846431 0)
(-0.408404 -0.780525 0)
(-0.49778 -0.716039 0)
(-0.540193 -0.734711 0)
(-0.498747 -0.757494 0)
(-0.386634 -0.75962 0)
(-0.315332 -0.734017 0)
(-0.233808 -0.673068 0)
(-0.196175 -0.641695 0)
(-0.156501 -0.600825 0)
(-0.116907 -0.547034 0)
(-0.0824299 -0.472049 0)
(-0.070782 -0.385608 0)
(-0.0251214 -0.371436 0)
(0.00807711 -0.229295 0)
(0.094605 -0.243871 0)
(0.181039 -0.249796 0)
(-0.0385015 0.085098 0)
(-0.102651 0.0696666 0)
(-0.148654 0.0482692 0)
(-0.181423 0.00824497 0)
(-0.202103 -0.123261 0)
(-0.230625 -0.399413 0)
(-0.317301 -0.424065 0)
(-0.144027 -0.181768 0)
(0.175733 -0.159671 0)
(0.295486 -0.461319 0)
(0.168517 -0.512517 0)
(0.193095 -0.563912 0)
(0.217171 -0.518318 0)
(0.229338 -0.381449 0)
(0.237228 -0.273215 0)
(0.2587 -0.165438 0)
(0.206471 -0.338677 0)
(0.0782064 -1.00276 0)
(0.0510809 -0.830121 0)
(0.0954658 -0.784324 0)
(0.0961771 -0.667553 0)
(0.152437 -0.650103 0)
(0.186089 -0.620985 0)
(-0.011182 -0.311852 0)
(-0.0278993 -0.344981 0)
(-0.0382756 -0.371809 0)
(-0.0451801 -0.399239 0)
(-0.0487632 -0.411418 0)
(-0.0529473 -0.394072 0)
(-0.106393 -0.328322 0)
(-0.0815759 -0.0705707 0)
(0.0794132 0.234428 0)
(0.00994873 0.373473 0)
(-0.0987053 -0.0417594 0)
(-0.0154859 -0.239862 0)
(0.0370797 -0.3234 0)
(0.0950452 -0.396711 0)
(0.130324 -0.447783 0)
(0.152971 -0.500048 0)
(0.285109 -0.564766 0)
(0.518848 -0.701702 0)
(0.746427 -0.650207 0)
(0.809442 -0.553056 0)
(0.699339 -0.277827 0)
(0.670623 -0.300474 0)
(0.550105 -0.874067 0)
(-0.00426137 -0.178868 0)
(-0.00918789 -0.215232 0)
(-0.0150692 -0.253685 0)
(-0.0263111 -0.297677 0)
(-0.0465648 -0.339984 0)
(-0.0752511 -0.370468 0)
(-0.118021 -0.383648 0)
(-0.14052 -0.315571 0)
(-0.0359958 -0.144571 0)
(0.125606 -0.0591869 0)
(0.263434 -0.260143 0)
(0.219011 -0.397116 0)
(0.200163 -0.376741 0)
(0.210837 -0.334091 0)
(0.254842 -0.250727 0)
(0.297793 -0.115813 0)
(0.328907 0.0361679 0)
(0.300033 0.0445899 0)
(0.242903 -0.0957433 0)
(0.166231 -0.270121 0)
(0.108153 -0.46349 0)
(0.20563 -0.548379 0)
(0.4092 -0.610388 0)
(-0.000925658 -0.128304 0)
(0.000928095 -0.167413 0)
(0.000107943 -0.196979 0)
(-0.00734921 -0.226418 0)
(-0.0214991 -0.247834 0)
(-0.0426081 -0.253362 0)
(-0.0751506 -0.236873 0)
(-0.0831011 -0.183906 0)
(-0.0842977 -0.0924567 0)
(0.066159 -0.0528226 0)
(0.124686 -0.253227 0)
(0.139293 -0.365694 0)
(0.1251 -0.420545 0)
(0.114438 -0.452136 0)
(0.120931 -0.462308 0)
(0.144403 -0.451409 0)
(0.21723 -0.405983 0)
(0.286133 -0.354116 0)
(0.325376 -0.250144 0)
(0.296438 -0.162248 0)
(0.214208 -0.109419 0)
(0.130787 -0.114576 0)
(0.0598021 -0.120741 0)
(0.00683825 -0.213498 0)
(0.0180299 -0.242119 0)
(0.0214771 -0.258482 0)
(0.0160837 -0.27512 0)
(0.00270943 -0.28643 0)
(-0.0162047 -0.287032 0)
(-0.0378751 -0.276863 0)
(-0.0417188 -0.247174 0)
(-0.0354745 -0.219676 0)
(0.0354206 -0.189649 0)
(0.072112 -0.260743 0)
(0.0502108 -0.317453 0)
(0.0300404 -0.351153 0)
(-0.00029681 -0.366751 0)
(-0.0160368 -0.348055 0)
(-0.0337319 -0.301774 0)
(-0.0437953 -0.255341 0)
(-0.0465634 -0.242631 0)
(-0.0415027 -0.250473 0)
(-0.0287996 -0.252174 0)
(-0.0110237 -0.252205 0)
(-0.027398 -0.268415 0)
(-0.033216 -0.250221 0)
(0.00569135 -0.189345 0)
(0.0152365 -0.218839 0)
(0.0192917 -0.233214 0)
(0.0153675 -0.245168 0)
(0.00390712 -0.252567 0)
(-0.0131315 -0.252684 0)
(-0.0291685 -0.248266 0)
(-0.0357963 -0.238937 0)
(-0.033539 -0.233343 0)
(0.00238161 -0.227156 0)
(0.022885 -0.28937 0)
(-0.00741177 -0.32991 0)
(-0.0414604 -0.363514 0)
(-0.0773204 -0.381689 0)
(-0.10704 -0.371832 0)
(-0.130441 -0.326825 0)
(-0.140008 -0.284001 0)
(-0.148808 -0.248577 0)
(-0.160724 -0.209466 0)
(-0.161721 -0.185226 0)
(-0.158745 -0.167813 0)
(-0.15742 -0.194571 0)
(-0.147378 -0.22384 0)
(0.00346675 -0.205812 0)
(0.00821793 -0.229244 0)
(0.00893804 -0.234392 0)
(0.00336217 -0.238329 0)
(-0.00502049 -0.238806 0)
(-0.0144183 -0.237903 0)
(-0.022636 -0.234677 0)
(-0.0274693 -0.229193 0)
(-0.0290413 -0.228304 0)
(-0.0176839 -0.227157 0)
(-0.0208634 -0.256384 0)
(-0.045046 -0.275843 0)
(-0.0762662 -0.30052 0)
(-0.108411 -0.321537 0)
(-0.140082 -0.319386 0)
(-0.161997 -0.295161 0)
(-0.173381 -0.268239 0)
(-0.179394 -0.250203 0)
(-0.182181 -0.225297 0)
(-0.172951 -0.210935 0)
(-0.165703 -0.20594 0)
(-0.161719 -0.198602 0)
(-0.167321 -0.170167 0)
(0.00148808 -0.209561 0)
(0.000722829 -0.23069 0)
(-0.00258326 -0.232535 0)
(-0.00805413 -0.233665 0)
(-0.0130087 -0.234234 0)
(-0.0179975 -0.233765 0)
(-0.0220555 -0.232261 0)
(-0.0234352 -0.231481 0)
(-0.0249602 -0.234026 0)
(-0.0215822 -0.234073 0)
(-0.0289788 -0.243483 0)
(-0.048375 -0.254719 0)
(-0.0710309 -0.273968 0)
(-0.102638 -0.295983 0)
(-0.139444 -0.300662 0)
(-0.162426 -0.288151 0)
(-0.174452 -0.267051 0)
(-0.178397 -0.255046 0)
(-0.17485 -0.236744 0)
(-0.16886 -0.221757 0)
(-0.171178 -0.21855 0)
(-0.17712 -0.221416 0)
(-0.178354 -0.21396 0)
(0.000369185 -0.209838 0)
(-0.00280203 -0.228031 0)
(-0.00632238 -0.227923 0)
(-0.00959618 -0.229385 0)
(-0.0131799 -0.23089 0)
(-0.0157739 -0.23071 0)
(-0.0173514 -0.230731 0)
(-0.0183785 -0.23112 0)
(-0.0193229 -0.232122 0)
(-0.021516 -0.230087 0)
(-0.0251055 -0.233593 0)
(-0.0340166 -0.238699 0)
(-0.044178 -0.250037 0)
(-0.0641989 -0.256738 0)
(-0.0927362 -0.261022 0)
(-0.113231 -0.261746 0)
)
;

boundaryField
{
    leftWall
    {
        type            fixedValue;
        value           uniform (0 0 0);
    }
    rightWall
    {
        type            fixedValue;
        value           nonuniform 0();
    }
    lowerWall
    {
        type            fixedValue;
        value           uniform (0 0 0);
    }
    atmosphere
    {
        type            fluxCorrectedVelocity;
        value           nonuniform 0();
    }
    defaultFaces
    {
        type            empty;
    }
    procBoundary0to1
    {
        type            processor;
        value           nonuniform List<vector> 
26
(
(0.0169838 0.0322795 0)
(0.0237291 0.0823105 0)
(0.0719902 0.141804 0)
(0.0357527 0.194239 0)
(0.0594247 0.234073 0)
(0.03586 0.294968 0)
(0.0723349 0.325415 0)
(0.0859063 0.441809 0)
(0.344807 0.452821 0)
(0.257548 0.414412 0)
(0.332093 0.314518 0)
(0.665374 0.438666 0)
(0.886902 0.346728 0)
(0.808014 0.204567 0)
(0.555982 0.0674044 0)
(0.326198 -0.0499643 0)
(0.326198 -0.0499643 0)
(0.229997 -0.334452 0)
(0.214931 -0.638734 0)
(0.558303 -1.13225 0)
(0.500384 -0.637548 0)
(-0.00896688 -0.184043 0)
(-0.0483155 -0.271581 0)
(-0.153331 -0.24727 0)
(-0.181684 -0.16723 0)
(-0.178383 -0.206328 0)
)
;
    }
    procBoundary0to2
    {
        type            processor;
        value           nonuniform List<vector> 
24
(
(-0.122085 -0.253403 0)
(-0.129013 -0.246332 0)
(-0.134242 -0.23193 0)
(-0.136211 -0.209749 0)
(-0.14126 -0.200007 0)
(-0.153393 -0.19549 0)
(-0.166648 -0.179717 0)
(-0.0010657 -0.206989 0)
(-0.00334883 -0.223604 0)
(-0.00570328 -0.2243 0)
(-0.0074402 -0.225938 0)
(-0.0103558 -0.22753 0)
(-0.0133843 -0.229181 0)
(-0.016073 -0.230141 0)
(-0.0185286 -0.231087 0)
(-0.0206842 -0.230428 0)
(-0.0227658 -0.229759 0)
(-0.0270267 -0.231403 0)
(-0.0305581 -0.236702 0)
(-0.0375726 -0.242182 0)
(-0.0507669 -0.24421 0)
(-0.0666507 -0.247755 0)
(-0.122085 -0.253403 0)
(-0.0795333 -0.250077 0)
)
;
    }
}


// ************************************************************************* //
