/*--------------------------------*- C++ -*----------------------------------*\
| =========                 |                                                 |
| \\      /  F ield         | OpenFOAM: The Open Source CFD Toolbox           |
|  \\    /   O peration     | Version:  2.4.0                                 |
|   \\  /    A nd           | Web:      www.OpenFOAM.org                      |
|    \\/     M anipulation  |                                                 |
\*---------------------------------------------------------------------------*/
FoamFile
{
    version     2.0;
    format      ascii;
    class       volVectorField;
    location    "0.4";
    object      U.water;
}
// * * * * * * * * * * * * * * * * * * * * * * * * * * * * * * * * * * * * * //

dimensions      [0 1 -1 0 0 0 0];

internalField   nonuniform List<vector> 
575
(
(0.0189573 -0.00875985 0)
(0.0548171 -0.00887689 0)
(0.0946797 -0.00830809 0)
(0.127214 -0.0101182 0)
(0.173346 -0.00685662 0)
(0.19597 -0.010179 0)
(0.247345 -0.0096837 0)
(0.286462 -0.0075493 0)
(0.310532 -0.00673052 0)
(0.339824 -0.0100327 0)
(0.390972 -0.0102572 0)
(0.434759 -0.00824953 0)
(0.458085 -0.00621751 0)
(0.484464 -0.00448171 0)
(0.488361 -0.000201571 0)
(0.494292 0.000724559 0)
(0.488277 0.00331125 0)
(0.470536 0.00510244 0)
(0.434803 0.0151084 0)
(0.368434 0.0153628 0)
(0.275609 0.0283533 0)
(0.137767 0.0288165 0)
(0.018973 -0.0262674 0)
(0.0548025 -0.0267364 0)
(0.095122 -0.0245804 0)
(0.126635 -0.0312987 0)
(0.173217 -0.019137 0)
(0.197997 -0.0314435 0)
(0.246544 -0.0298429 0)
(0.285248 -0.021067 0)
(0.311511 -0.021954 0)
(0.344513 -0.0271119 0)
(0.394763 -0.0333521 0)
(0.43264 -0.0268454 0)
(0.456679 -0.0173151 0)
(0.480742 -0.00967875 0)
(0.493022 -0.00403412 0)
(0.502361 -0.000326642 0)
(0.50122 0.0112628 0)
(0.48497 0.0267167 0)
(0.441923 0.0379228 0)
(0.382884 0.0624835 0)
(0.250773 0.0758859 0)
(0.17472 0.087913 0)
(0.0189473 -0.0438632 0)
(0.0548552 -0.0445744 0)
(0.0951533 -0.0414686 0)
(0.126346 -0.0505034 0)
(0.172727 -0.035211 0)
(0.201487 -0.0504278 0)
(0.243797 -0.0475021 0)
(0.282616 -0.0369113 0)
(0.313291 -0.0384506 0)
(0.354036 -0.0469696 0)
(0.399212 -0.0506553 0)
(0.420783 -0.0352267 0)
(0.451546 -0.0252831 0)
(0.483367 -0.0125825 0)
(0.505976 -0.00100588 0)
(0.524722 0.00463562 0)
(0.518248 0.0119903 0)
(0.501923 0.0376223 0)
(0.453187 0.0677003 0)
(0.380874 0.103801 0)
(0.268015 0.120667 0)
(0.179026 0.126569 0)
(0.0189166 -0.0475896 0)
(0.0549921 -0.0477846 0)
(0.0949268 -0.0438985 0)
(0.126684 -0.0508925 0)
(0.172196 -0.034212 0)
(0.203134 -0.0473204 0)
(0.243602 -0.0398695 0)
(0.280802 -0.0269459 0)
(0.313006 -0.0303304 0)
(0.366468 -0.0346127 0)
(0.390477 -0.0304021 0)
(0.416153 -0.0180546 0)
(0.456309 -0.00348592 0)
(0.486096 0.0143304 0)
(0.519282 0.0415663 0)
(0.54394 0.0565689 0)
(0.538721 0.0751244 0)
(0.514965 0.0975242 0)
(0.455074 0.122754 0)
(0.364193 0.151181 0)
(0.23326 0.172248 0)
(0.127754 0.173611 0)
(0.0191734 -0.00207194 0)
(0.0555818 0.000136575 0)
(0.0962719 0.00389914 0)
(0.12921 0.0176052 0)
(0.173619 0.0218711 0)
(0.209821 0.0396307 0)
(0.247256 0.0692601 0)
(0.286577 0.0953962 0)
(0.329732 0.0958698 0)
(0.37117 0.100933 0)
(0.393509 0.102305 0)
(0.430536 0.113704 0)
(0.467719 0.109739 0)
(0.50086 0.123922 0)
(0.536573 0.132591 0)
(0.554248 0.165992 0)
(0.532796 0.210589 0)
(0.488233 0.278753 0)
(0.44648 0.248801 0)
(0.394591 0.256088 0)
(0.256322 0.247996 0)
(0.127341 0.215485 0)
(0.0195332 0.070497 0)
(0.0562544 0.0690847 0)
(0.0982555 0.071495 0)
(0.13277 0.0578852 0)
(0.170577 0.0722922 0)
(0.220123 0.0526928 0)
(0.243323 0.0501375 0)
(0.291313 0.0519258 0)
(0.333168 0.0379435 0)
(0.362999 0.0297701 0)
(0.388542 0.0228586 0)
(0.428048 0.0217479 0)
(0.453324 0.0174357 0)
(0.477736 0.0217291 0)
(0.505557 0.0338185 0)
(0.512636 0.0876644 0)
(0.534986 0.154325 0)
(0.486567 0.228284 0)
(0.405181 0.330423 0)
(0.315876 0.42031 0)
(0.276481 0.358126 0)
(0.143004 0.282689 0)
(0.0188329 0.000146753 0)
(0.0540952 -0.000712737 0)
(0.093937 0.000192295 0)
(0.12833 -0.00397086 0)
(0.154995 -0.000659587 0)
(0.210199 -0.00784169 0)
(0.22719 -0.00776518 0)
(0.256236 -0.00675956 0)
(0.281236 -0.00634241 0)
(0.305581 0.00347834 0)
(0.312461 0.0164544 0)
(0.313257 0.0386671 0)
(0.300941 0.0542506 0)
(0.281815 0.0607113 0)
(0.259795 0.0569841 0)
(0.239188 0.0688278 0)
(0.283444 0.14636 0)
(0.308807 0.343506 0)
(0.298318 0.376692 0)
(0.266676 0.431828 0)
(0.233457 0.495385 0)
(0.196235 0.353043 0)
(0.0139557 -0.0233067 0)
(0.0416571 -0.0235413 0)
(0.0678876 -0.0239819 0)
(0.0954845 -0.020783 0)
(0.103996 -0.0227315 0)
(0.128061 -0.0271268 0)
(0.133794 -0.0256668 0)
(0.129479 -0.0319545 0)
(0.140058 -0.0536705 0)
(0.147904 -0.0766943 0)
(0.150893 -0.104069 0)
(0.15042 -0.125567 0)
(0.165468 -0.140344 0)
(0.18415 -0.138343 0)
(0.19171 -0.118107 0)
(0.179617 -0.101681 0)
(0.17095 -0.129091 0)
(0.235876 -0.0423749 0)
(0.21223 0.272504 0)
(0.147547 0.419932 0)
(0.183439 0.512797 0)
(0.194796 0.52592 0)
(0.00619462 -0.177523 0)
(0.0197386 -0.180009 0)
(0.0315132 -0.183281 0)
(0.0485251 -0.186521 0)
(0.0577199 -0.19458 0)
(0.0796686 -0.205993 0)
(0.097691 -0.203386 0)
(0.119768 -0.211835 0)
(0.158167 -0.207741 0)
(0.184434 -0.184641 0)
(0.214552 -0.153785 0)
(0.248019 -0.111593 0)
(0.282381 -0.0639556 0)
(0.303568 -0.0199694 0)
(0.311346 0.0459911 0)
(0.302132 0.095643 0)
(0.266563 0.218999 0)
(0.130332 0.253699 0)
(0.169097 0.236617 0)
(0.0962448 0.443858 0)
(0.107711 0.462843 0)
(0.221396 0.50797 0)
(0.00924935 -0.165996 0)
(0.0278554 -0.165427 0)
(0.046881 -0.160941 0)
(0.0671704 -0.152825 0)
(0.0869868 -0.147168 0)
(0.108069 -0.144064 0)
(0.130075 -0.122663 0)
(0.148217 -0.130479 0)
(0.178348 -0.127532 0)
(0.195865 -0.117856 0)
(0.221018 -0.112042 0)
(0.245645 -0.119651 0)
(0.245471 -0.11984 0)
(0.252186 -0.116602 0)
(0.24674 -0.100209 0)
(0.256419 -0.0882617 0)
(0.261577 -0.0409678 0)
(0.293772 0.0506647 0)
(0.272591 0.149448 0)
(0.278723 0.288659 0)
(0.188342 0.409989 0)
(0.198221 0.392833 0)
(0.0108868 -0.161604 0)
(0.0323852 -0.163454 0)
(0.0538079 -0.163142 0)
(0.0748537 -0.163351 0)
(0.095738 -0.163751 0)
(0.111415 -0.174497 0)
(0.135841 -0.167886 0)
(0.151531 -0.191752 0)
(0.185495 -0.193278 0)
(0.208601 -0.195041 0)
(0.254057 -0.190959 0)
(0.294383 -0.171915 0)
(0.326466 -0.129618 0)
(0.363301 -0.0961635 0)
(0.37332 -0.0145224 0)
(0.394655 0.0461812 0)
(0.366166 0.130241 0)
(0.382619 0.16961 0)
(0.362833 0.238751 0)
(0.42222 0.305134 0)
(0.41716 0.448448 0)
(0.355016 0.373057 0)
(0.0118405 -0.206787 0)
(0.0357567 -0.207699 0)
(0.0586594 -0.205708 0)
(0.0792789 -0.203061 0)
(0.10069 -0.200141 0)
(0.11311 -0.203297 0)
(0.134462 -0.199798 0)
(0.149487 -0.220151 0)
(0.178943 -0.217284 0)
(0.212051 -0.22843 0)
(0.270947 -0.218146 0)
(0.307823 -0.192619 0)
(0.344113 -0.15069 0)
(0.351924 -0.127313 0)
(0.366406 -0.0760531 0)
(0.394397 -0.0448603 0)
(0.422008 0.0200273 0)
(0.45733 0.0937376 0)
(0.467383 0.168716 0)
(0.534652 0.250377 0)
(0.573877 0.345567 0)
(0.668887 0.422869 0)
(0.0124591 -0.215711 0)
(0.0370322 -0.216153 0)
(0.06016 -0.212454 0)
(0.0798268 -0.208141 0)
(0.0990128 -0.203101 0)
(0.107386 -0.202899 0)
(0.12326 -0.20794 0)
(0.131281 -0.234135 0)
(0.168665 -0.257589 0)
(0.215247 -0.295756 0)
(0.276003 -0.28729 0)
(0.309606 -0.242338 0)
(0.345468 -0.204293 0)
(0.369639 -0.175304 0)
(0.396315 -0.108937 0)
(0.434282 -0.0514924 0)
(0.433424 0.00701556 0)
(0.479413 0.0882983 0)
(0.496274 0.132739 0)
(0.572528 0.190634 0)
(0.634215 0.228898 0)
(0.754171 0.295836 0)
(0.0145415 -0.308876 0)
(0.040369 -0.307784 0)
(0.0645576 -0.299349 0)
(0.0841936 -0.286752 0)
(0.0983365 -0.267381 0)
(0.0971355 -0.243437 0)
(0.0965142 -0.218655 0)
(0.100194 -0.224775 0)
(0.13053 -0.269749 0)
(0.176281 -0.355939 0)
(0.224137 -0.340932 0)
(0.237326 -0.319296 0)
(0.235695 -0.294013 0)
(0.208297 -0.260781 0)
(0.195017 -0.215404 0)
(0.198548 -0.166693 0)
(0.219692 -0.0964466 0)
(0.329774 -0.0300941 0)
(0.375601 0.0505037 0)
(0.498662 0.0828391 0)
(0.595538 0.164962 0)
(0.667298 0.165077 0)
(0.0177477 -0.611871 0)
(0.0481647 -0.609655 0)
(0.0784712 -0.598911 0)
(0.107342 -0.580777 0)
(0.133596 -0.551436 0)
(0.149361 -0.508991 0)
(0.133716 -0.444709 0)
(0.0547519 -0.411517 0)
(-0.00882261 -0.450011 0)
(-0.0627305 -0.502876 0)
(-0.059297 -0.420513 0)
(-0.12564 -0.319824 0)
(-0.20531 -0.216408 0)
(-0.208339 -0.174095 0)
(-0.20456 -0.164305 0)
(-0.179797 -0.172049 0)
(-0.12971 -0.171462 0)
(-0.0604909 -0.167167 0)
(0.0952012 -0.114138 0)
(0.207151 -0.127683 0)
(0.426426 0.0610413 0)
(0.46485 0.0442356 0)
(0.0284542 -1.27861 0)
(0.0574681 -1.27363 0)
(0.0944569 -1.25643 0)
(0.129651 -1.22457 0)
(0.163626 -1.17588 0)
(0.189259 -1.10839 0)
(0.240865 -0.944357 0)
(0.146147 -0.751279 0)
(-0.119472 -0.760341 0)
(-0.47591 -0.781697 0)
(-0.510933 -0.489206 0)
(-0.396804 -0.403199 0)
(-0.378661 -0.404604 0)
(-0.310759 -0.36712 0)
(-0.286899 -0.307922 0)
(-0.249989 -0.238962 0)
(-0.219605 -0.190229 0)
(-0.176624 -0.194271 0)
(-0.103602 -0.162531 0)
(-0.0516522 -0.191582 0)
(0.128375 -0.142768 0)
(0.224073 -0.118623 0)
(-0.0118945 -0.876857 0)
(-0.0496914 -0.902107 0)
(-0.0601437 -0.914393 0)
(-0.0571624 -0.942486 0)
(-0.0171485 -0.954211 0)
(0.0922779 -0.933355 0)
(0.125128 -0.491469 0)
(0.222212 -0.705139 0)
(-0.0892195 -0.43645 0)
(-0.481469 -0.382032 0)
(-0.466096 -0.353678 0)
(-0.373752 -0.442794 0)
(-0.308996 -0.559078 0)
(-0.233254 -0.589415 0)
(-0.194405 -0.593036 0)
(-0.154895 -0.572375 0)
(-0.117214 -0.52978 0)
(-0.0841272 -0.460524 0)
(-0.0716399 -0.379765 0)
(-0.0260245 -0.366992 0)
(0.00798558 -0.227921 0)
(0.0924819 -0.247313 0)
(0.161746 -0.298247 0)
(-0.0384417 0.0670147 0)
(-0.10269 0.0612031 0)
(-0.148665 0.0426942 0)
(-0.181416 0.00967864 0)
(-0.198018 -0.0370556 0)
(-0.212822 -0.11955 0)
(-0.296549 -0.189211 0)
(-0.230713 -0.091275 0)
(0.0443794 -0.00372018 0)
(0.299608 -0.418127 0)
(0.175121 -0.506391 0)
(0.235456 -0.557521 0)
(0.306251 -0.498906 0)
(0.38123 -0.308078 0)
(0.444623 -0.114022 0)
(0.538794 0.0917096 0)
(0.506417 0.523148 0)
(0.22956 0.597906 0)
(0.101924 -0.200608 0)
(0.0999495 -0.436986 0)
(0.0999342 -0.612597 0)
(0.154376 -0.618923 0)
(0.185711 -0.595167 0)
(-0.0113313 -0.311553 0)
(-0.0281564 -0.344531 0)
(-0.0385435 -0.371373 0)
(-0.0450219 -0.399459 0)
(-0.0474764 -0.411726 0)
(-0.0520391 -0.392631 0)
(-0.106153 -0.326227 0)
(-0.0816602 -0.0686142 0)
(0.08091 0.238432 0)
(0.0127169 0.378528 0)
(-0.0998709 -0.038436 0)
(-0.0157756 -0.238931 0)
(0.0368341 -0.322491 0)
(0.0948419 -0.39469 0)
(0.129943 -0.444585 0)
(0.14944 -0.501874 0)
(0.283258 -0.564991 0)
(0.518552 -0.700157 0)
(0.781604 -0.646225 0)
(0.890725 -0.535171 0)
(0.980694 -0.128626 0)
(0.981788 0.242074 0)
(0.837171 0.372517 0)
(-0.00419131 -0.182967 0)
(-0.00911041 -0.217291 0)
(-0.0150136 -0.255042 0)
(-0.0262874 -0.298043 0)
(-0.0465643 -0.339368 0)
(-0.075245 -0.370062 0)
(-0.118015 -0.383534 0)
(-0.140637 -0.315395 0)
(-0.0365532 -0.142081 0)
(0.125414 -0.0569638 0)
(0.264163 -0.260591 0)
(0.219011 -0.397109 0)
(0.200347 -0.37592 0)
(0.21318 -0.328095 0)
(0.259492 -0.238331 0)
(0.302432 -0.103099 0)
(0.331884 0.0498467 0)
(0.300803 0.0524085 0)
(0.243299 -0.0913916 0)
(0.16666 -0.260855 0)
(0.107177 -0.456066 0)
(0.20213 -0.53972 0)
(0.406231 -0.603133 0)
(-0.000945041 -0.129063 0)
(0.000916263 -0.167764 0)
(0.000104383 -0.197181 0)
(-0.00735004 -0.226512 0)
(-0.0214995 -0.247846 0)
(-0.0426086 -0.25337 0)
(-0.0751503 -0.236866 0)
(-0.0831002 -0.183819 0)
(-0.0843041 -0.0920411 0)
(0.0661318 -0.051264 0)
(0.124754 -0.252733 0)
(0.139309 -0.365448 0)
(0.125619 -0.4181 0)
(0.116191 -0.440546 0)
(0.122322 -0.44976 0)
(0.143214 -0.438795 0)
(0.213779 -0.39569 0)
(0.28522 -0.350583 0)
(0.325609 -0.249155 0)
(0.297657 -0.16115 0)
(0.215519 -0.107141 0)
(0.132084 -0.111133 0)
(0.061062 -0.115914 0)
(0.00683778 -0.213811 0)
(0.0180297 -0.242239 0)
(0.0214772 -0.258519 0)
(0.0160838 -0.275137 0)
(0.00270948 -0.286439 0)
(-0.0162046 -0.287038 0)
(-0.0378749 -0.276866 0)
(-0.0417187 -0.247166 0)
(-0.0354746 -0.219649 0)
(0.0354207 -0.18938 0)
(0.0721128 -0.260656 0)
(0.0502511 -0.317196 0)
(0.0308228 -0.345431 0)
(0.00207008 -0.353121 0)
(-0.0138893 -0.33502 0)
(-0.0330457 -0.291679 0)
(-0.0431184 -0.248972 0)
(-0.0462313 -0.239892 0)
(-0.0414403 -0.249106 0)
(-0.0287547 -0.250591 0)
(-0.0111152 -0.249605 0)
(-0.0274993 -0.26621 0)
(-0.0331527 -0.248469 0)
(0.00569139 -0.189382 0)
(0.0152366 -0.218859 0)
(0.0192917 -0.233217 0)
(0.0153675 -0.245169 0)
(0.00390713 -0.252568 0)
(-0.0131315 -0.252685 0)
(-0.0291685 -0.248267 0)
(-0.0357963 -0.238937 0)
(-0.033539 -0.233341 0)
(0.00238169 -0.227152 0)
(0.0228859 -0.28936 0)
(-0.00737218 -0.329508 0)
(-0.0409955 -0.357336 0)
(-0.0758957 -0.369366 0)
(-0.106229 -0.361155 0)
(-0.1301 -0.323886 0)
(-0.139838 -0.282394 0)
(-0.148641 -0.247508 0)
(-0.160584 -0.208588 0)
(-0.161562 -0.184179 0)
(-0.158476 -0.166041 0)
(-0.157238 -0.192985 0)
(-0.147312 -0.222633 0)
(0.00346675 -0.205814 0)
(0.00821794 -0.229247 0)
(0.00893805 -0.234393 0)
(0.00336218 -0.238329 0)
(-0.00502049 -0.238806 0)
(-0.0144183 -0.237903 0)
(-0.022636 -0.234677 0)
(-0.0274693 -0.229192 0)
(-0.0290413 -0.228301 0)
(-0.0176839 -0.227151 0)
(-0.0208625 -0.256367 0)
(-0.0450172 -0.275443 0)
(-0.0760444 -0.298233 0)
(-0.107727 -0.316478 0)
(-0.13977 -0.31583 0)
(-0.161826 -0.293158 0)
(-0.173187 -0.266766 0)
(-0.179282 -0.249003 0)
(-0.182094 -0.224397 0)
(-0.172877 -0.210177 0)
(-0.165632 -0.205107 0)
(-0.161663 -0.197935 0)
(-0.167292 -0.16983 0)
(0.00148808 -0.209561 0)
(0.00072283 -0.230691 0)
(-0.00258326 -0.232536 0)
(-0.00805413 -0.233665 0)
(-0.0130087 -0.234234 0)
(-0.0179975 -0.233765 0)
(-0.0220555 -0.232261 0)
(-0.0234352 -0.23148 0)
(-0.0249602 -0.234023 0)
(-0.0215822 -0.234067 0)
(-0.028978 -0.243463 0)
(-0.0483614 -0.254473 0)
(-0.0709874 -0.273136 0)
(-0.102555 -0.294331 0)
(-0.139233 -0.29817 0)
(-0.162238 -0.285564 0)
(-0.1743 -0.264938 0)
(-0.178284 -0.253402 0)
(-0.174778 -0.235682 0)
(-0.168831 -0.221165 0)
(-0.171165 -0.218196 0)
(-0.177111 -0.221153 0)
(-0.178348 -0.213839 0)
(0.000369185 -0.209838 0)
(-0.00280203 -0.228031 0)
(-0.00632238 -0.227923 0)
(-0.00959618 -0.229385 0)
(-0.0131799 -0.23089 0)
(-0.0157739 -0.23071 0)
(-0.0173514 -0.230731 0)
(-0.0183785 -0.231119 0)
(-0.0193229 -0.23212 0)
(-0.021516 -0.230082 0)
(-0.0251053 -0.23358 0)
(-0.0340128 -0.23859 0)
(-0.0441548 -0.249559 0)
(-0.064145 -0.255681 0)
(-0.0926268 -0.258817 0)
(-0.113021 -0.258733 0)
)
;

boundaryField
{
    leftWall
    {
        type            fixedValue;
        value           uniform (0 0 0);
    }
    rightWall
    {
        type            fixedValue;
        value           nonuniform 0();
    }
    lowerWall
    {
        type            fixedValue;
        value           uniform (0 0 0);
    }
    atmosphere
    {
        type            fluxCorrectedVelocity;
        value           nonuniform 0();
    }
    defaultFaces
    {
        type            empty;
    }
    procBoundary0to1
    {
        type            processor;
        value           nonuniform List<vector> 
26
(
(0.017802 0.0119868 0)
(0.0246501 0.0611535 0)
(0.0730393 0.119491 0)
(0.0368173 0.169752 0)
(0.0604169 0.208498 0)
(0.0366571 0.273235 0)
(0.0725233 0.310104 0)
(0.0862745 0.448553 0)
(0.377386 0.532729 0)
(0.257058 0.408799 0)
(0.332736 0.300245 0)
(0.641056 0.384674 0)
(0.845999 0.303322 0)
(0.785765 0.180019 0)
(0.571639 0.0263697 0)
(0.328535 -0.141018 0)
(0.328535 -0.141018 0)
(0.214621 -0.421228 0)
(0.215624 -0.610005 0)
(0.763861 0.286036 0)
(0.497411 -0.631637 0)
(-0.00826286 -0.180938 0)
(-0.0481723 -0.270846 0)
(-0.153307 -0.246858 0)
(-0.181669 -0.167106 0)
(-0.178379 -0.206265 0)
)
;
    }
    procBoundary0to2
    {
        type            processor;
        value           nonuniform List<vector> 
24
(
(-0.121906 -0.250753 0)
(-0.128879 -0.244346 0)
(-0.134162 -0.230692 0)
(-0.136173 -0.209125 0)
(-0.141248 -0.199755 0)
(-0.153389 -0.195389 0)
(-0.166646 -0.179669 0)
(-0.0010657 -0.206989 0)
(-0.00334883 -0.223604 0)
(-0.00570328 -0.2243 0)
(-0.0074402 -0.225938 0)
(-0.0103558 -0.22753 0)
(-0.0133843 -0.229181 0)
(-0.016073 -0.230141 0)
(-0.0185286 -0.231087 0)
(-0.0206842 -0.230426 0)
(-0.0227657 -0.229755 0)
(-0.0270266 -0.231396 0)
(-0.0305576 -0.236671 0)
(-0.0375626 -0.241861 0)
(-0.0507229 -0.243172 0)
(-0.0665524 -0.245702 0)
(-0.121906 -0.250753 0)
(-0.0794073 -0.247419 0)
)
;
    }
}


// ************************************************************************* //
