/*--------------------------------*- C++ -*----------------------------------*\
| =========                 |                                                 |
| \\      /  F ield         | OpenFOAM: The Open Source CFD Toolbox           |
|  \\    /   O peration     | Version:  2.4.0                                 |
|   \\  /    A nd           | Web:      www.OpenFOAM.org                      |
|    \\/     M anipulation  |                                                 |
\*---------------------------------------------------------------------------*/
FoamFile
{
    version     2.0;
    format      ascii;
    class       volScalarField;
    location    "0.55";
    object      alphas;
}
// * * * * * * * * * * * * * * * * * * * * * * * * * * * * * * * * * * * * * //

dimensions      [0 0 0 0 0 0 0];

internalField   nonuniform List<scalar> 
559
(
1.99999
1.99999
1.99999
1.99999
1.99999
1.99999
1.99998
1.99998
1.05227
1.09627
1.10446
1.10611
1.10779
1.13301
1.18335
1.2377
1.28909
1.34986
1.37621
1.39114
1.3977
1.40087
1.40196
1.42631
1.50479
1.50965
1.51088
1.02239
1.04892
1.09505
1.08099
1.07005
1.07087
1.08605
1.1029
1.11188
1.12251
1.14564
1.17704
1.18056
1.17408
1.10982
1.04439
1.07416
1.47197
1.5111
1.03642
1.09527
1.14758
1.14105
1.13344
1.13967
1.15414
1.16019
1.15468
1.14624
1.14714
1.1585
1.15239
1.11061
1.03993
1.00651
0.981396
1.06602
1.5117
1.06594
1.15025
1.23576
1.22993
1.21734
1.21738
1.22307
1.21925
1.20297
1.16848
1.15561
1.16851
1.15504
1.08723
1.02156
1.00925
0.980356
0.999252
1.5122
1.1403
1.26547
1.36082
1.34268
1.31223
1.29423
1.27767
1.25608
1.22372
1.1663
1.15358
1.16703
1.15589
1.05224
1.01557
1.01223
0.986375
0.989055
1.44507
1.29953
1.53716
1.52954
1.46565
1.40162
1.35284
1.30755
1.2717
1.227
1.15528
1.15401
1.16379
1.59829
1.69567
1.07679
1.02654
0.989474
0.994193
1.38854
1.54857
1.70768
1.66883
1.5407
1.41718
1.32878
1.27024
1.21911
1.15687
1.15415
1.14878
1.16136
2.20414
2.93026
2.08092
1.46363
1.55216
1.34921
1.36092
1.86195
1.66897
1.6036
1.41778
1.28316
1.05948
1.00343
1.012
1.08194
1.12259
1.11439
1.09579
2.06806
2.93721
2.90711
2.7238
2.80829
2.35778
1.31306
1.99957
1.80142
0.341926
0.00816077
0.158724
0.762152
1.75038
2.98772
1.9979
1.9961
1.99002
1.97554
1.70569
1.63353
1.50698
1.3345
0.33162
0.30794
0.262515
0.194735
0.0173526
0.0288524
0.0487344
0.0768818
0.253458
0.318546
0.38985
0.469482
0.893164
1.01204
1.14875
1.26549
2.00958
2.17015
2.37555
2.6854
2.99736
2.99943
2.99992
2.99999
3
3
3
3
3
3
3
3
3
3
3
3
3
3
3
3
3
3
3
3
3
3
3
3
3
3
3
3
3
3
3
3
3
3
3
3
1.7711
1.35041
0.946541
0.796753
0.757857
0.701673
0.560024
0.59412
0.676402
0.739415
0.766637
0.804126
1.35265
2.25248
2.85941
2.9618
2.96516
2.72646
1.30677
0.830123
0.396874
0.262372
0.235404
0.246076
0.334686
0.339294
0.313088
0.3416
0.37751
0.411687
0.434633
0.483874
0.783931
1.62811
2.5186
2.94752
2.84315
1.46204
0.166391
0.140175
0.173573
0.241288
0.298356
0.316281
0.314626
0.303917
0.299058
0.297908
0.303445
0.313779
0.332012
0.35233
0.542312
1.15692
2.33802
2.55567
1.53764
0.158831
0.329359
0.49038
0.638693
0.699966
0.693577
0.652709
0.581982
0.540984
0.518555
0.488642
0.442179
0.429832
0.41714
0.419331
0.487419
0.926774
1.44638
1.33352
0.633905
0.979489
1.42368
1.96876
2.24819
2.06155
1.75042
1.57258
1.49537
1.34642
1.23412
1.14642
0.929662
0.658755
0.576569
0.517466
0.58667
0.774649
1.02796
1.58706
2.18086
2.84788
2.9894
2.99923
2.99798
2.98479
2.92586
2.88887
2.87054
2.88892
2.91669
2.81684
2.44178
1.36709
0.771287
0.645187
0.713488
0.921378
2.93809
2.99733
2.99997
3
3
2.99993
2.99951
2.99786
2.99091
2.98763
2.98776
2.98714
2.98249
2.95037
2.12336
1.09493
0.77459
0.75046
0.897429
3
3
3
3
3
3
2.99723
2.93852
2.7558
2.37209
1.63668
1.61716
1.71671
1.90811
2.08628
1.32073
0.866691
0.79959
0.896121
3
3
3
3
3
2.9999
2.97232
2.47324
1.39918
1.04042
1.0081
1.00574
1.01708
1.08346
1.59524
1.56396
0.970435
0.844128
0.905528
3
3
3
3
3
2.9992
2.9146
2.12179
1.13995
1.00385
1.00048
1.00047
1.00165
1.06091
1.43233
1.55992
1.30243
0.884932
0.919179
3
3
3
3
3
2.99959
2.95928
2.50074
1.49371
1.05215
1.00293
1.00048
1.00047
1.01419
1.1794
1.47666
1.19744
0.922121
0.935769
3
3
3
3
3
3
2.99918
2.96128
2.54121
1.52992
1.05152
1.00188
1.00045
1.00088
1.01581
1.0578
1.00734
0.954179
0.956266
3
3
3
3
3
3
3
2.99977
2.97121
2.5639
1.52398
1.04838
1.00129
1.00011
0.999757
0.99601
0.9873
0.98018
0.979178
3
3
3
3
3
3
3
3
2.99982
2.98321
2.67452
1.66077
1.05176
1.00073
1.00002
0.999604
0.997386
0.995854
0.995391
3
3
3
3
3
3
3
3.00001
3
2.9999
2.9916
2.81027
1.85436
1.07958
1.00028
1.00007
1.00004
0.999994
1.00002
3
3
3
3
3
3
3
3
3.00001
3
2.99998
2.99657
2.88441
2.07138
1.14379
1.00194
1.00036
1.00114
1.00157
3
2.99999
2.99999
2.99999
3
3
3
3
3
3.00001
3
3
2.99798
2.92744
2.51144
1.77157
1.25623
1.02431
1.01298
)
;

boundaryField
{
    leftWall
    {
        type            zeroGradient;
    }
    rightWall
    {
        type            zeroGradient;
    }
    lowerWall
    {
        type            zeroGradient;
    }
    atmosphere
    {
        type            zeroGradient;
    }
    defaultFaces
    {
        type            empty;
    }
    procBoundary1to0
    {
        type            processor;
        value           nonuniform List<scalar> 
26
(
2
2
2
2
2
2
2
2
1.99898
1.75135
0.2005
0.00388998
0.0671786
0.642074
1.46801
2.95119
3
3
3
3
3
3
3
3
3
3
)
;
    }
    procBoundary1to3
    {
        type            processor;
        value           nonuniform List<scalar> 
23
(
3
3
3
3
3
2.99999
2.99999
2.99999
2.99999
3
3
3
3
3
3
3
3
2.99897
2.9815
2.9247
2.88048
2.00562
1.03244
)
;
    }
}


// ************************************************************************* //
