/*--------------------------------*- C++ -*----------------------------------*\
| =========                 |                                                 |
| \\      /  F ield         | OpenFOAM: The Open Source CFD Toolbox           |
|  \\    /   O peration     | Version:  2.4.0                                 |
|   \\  /    A nd           | Web:      www.OpenFOAM.org                      |
|    \\/     M anipulation  |                                                 |
\*---------------------------------------------------------------------------*/
FoamFile
{
    version     2.0;
    format      ascii;
    class       volScalarField;
    location    "0.55";
    object      alpha.oil;
}
// * * * * * * * * * * * * * * * * * * * * * * * * * * * * * * * * * * * * * //

dimensions      [0 0 0 0 0 0 0];

internalField   nonuniform List<scalar> 
559
(
1.11021e-05
1.42043e-05
1.23494e-05
1.23282e-05
1.27553e-05
1.43775e-05
1.73638e-05
1.98181e-05
0.947737
0.903734
0.895551
0.893911
0.892244
0.867034
0.816716
0.762407
0.710991
0.650214
0.623876
0.608939
0.60203
0.597371
0.590602
0.55649
0.489357
0.488649
0.488032
0.977637
0.951086
0.904948
0.919011
0.929957
0.929134
0.913951
0.897163
0.888465
0.877943
0.854687
0.823122
0.819866
0.828206
0.889996
0.943666
0.901953
0.520781
0.486718
0.963605
0.904732
0.852423
0.858953
0.866562
0.860336
0.845867
0.839816
0.845328
0.854151
0.853569
0.842083
0.847921
0.889923
0.960443
0.983937
0.975276
0.912719
0.485454
0.934069
0.849935
0.764288
0.770074
0.782661
0.782622
0.776932
0.780758
0.797038
0.831541
0.844743
0.831802
0.84463
0.912396
0.978049
0.983867
0.976367
0.952185
0.484528
0.859701
0.745934
0.640473
0.657268
0.687735
0.705753
0.722325
0.743924
0.77628
0.833642
0.845901
0.831035
0.850236
0.946505
0.983844
0.983844
0.983097
0.956187
0.54635
0.700038
0.52339
0.471585
0.529526
0.594643
0.644599
0.691127
0.727883
0.772894
0.844454
0.84407
0.825602
0.623466
0.63459
0.958796
0.983844
0.983844
0.953773
0.599066
0.457009
0.262355
0.277857
0.395433
0.51533
0.605825
0.687866
0.763294
0.838896
0.843529
0.845002
0.802194
0.322228
0.02901
0.459242
0.767739
0.713084
0.770745
0.624795
0.156226
0.101347
0.12405
0.216922
0.362658
0.527504
0.665154
0.790801
0.842805
0.843996
0.843512
0.791511
0.342376
0.0160704
0.0459615
0.137973
0.0944463
0.275131
0.669118
2.33439e-05
0.000807429
0.00372101
0.00462973
0.157813
0.651905
0.614398
0.00613056
6.66932e-05
0.000178185
0.000456812
0.000774734
0.0013893
0.00197951
0.00286675
0.00409061
0.00591642
0.00843426
0.013538
0.0220819
0.0140929
0.0259516
0.0463282
0.0750078
0.251089
0.313232
0.379069
0.444495
0.674402
0.675163
0.674402
0.674936
0.488049
0.41011
0.309104
0.155474
0.00131772
0.000282842
3.94814e-05
7.79771e-06
2.15428e-07
3.38443e-07
3.32585e-07
2.79847e-07
4.91088e-08
4.89117e-08
6.01401e-08
6.95776e-08
7.14401e-08
6.25273e-08
5.22643e-08
4.80106e-08
6.03834e-08
4.12043e-08
3.39848e-08
3.88246e-08
1.45661e-08
1.42464e-08
2.31678e-08
3.89323e-08
7.44423e-09
1.10831e-08
1.71952e-08
2.38872e-08
3.54601e-09
4.87182e-09
6.47809e-09
6.96394e-09
1.57e-09
1.81369e-09
2.0574e-09
2.85447e-09
6.8329e-10
6.34327e-10
6.86668e-10
7.55616e-10
0.0161289
0.0390371
0.0652983
0.0988565
0.160459
0.259066
0.411309
0.5347
0.633588
0.701575
0.725992
0.693209
0.500105
0.223709
0.0259957
0.0131673
0.0153971
0.110721
0.678814
0.0103842
0.0309845
0.0705668
0.107664
0.133942
0.170852
0.230876
0.294007
0.339245
0.376035
0.409729
0.426397
0.455446
0.453503
0.31484
0.0997153
0.0122882
0.0438673
0.605279
0.0539833
0.105225
0.162791
0.235321
0.294797
0.313725
0.300445
0.294504
0.296267
0.2975
0.302956
0.312858
0.330693
0.344956
0.382197
0.345856
0.131101
0.13149
0.575779
0.157007
0.317497
0.431384
0.47428
0.54126
0.56297
0.562873
0.544578
0.526652
0.514074
0.48697
0.441638
0.42936
0.416537
0.415311
0.42642
0.414656
0.437503
0.652077
0.539349
0.538037
0.529523
0.386506
0.305366
0.404972
0.547952
0.607716
0.608134
0.608446
0.608157
0.608446
0.608157
0.608273
0.573862
0.514233
0.555931
0.659869
0.787351
0.592282
0.379131
0.0725463
0.00509656
0.000373566
0.0010052
0.00759642
0.0370449
0.0555266
0.0646021
0.055139
0.0408432
0.0799486
0.203493
0.652802
0.718026
0.642222
0.70953
0.834741
0.0304257
0.00130202
1.55274e-05
6.55829e-07
8.28459e-07
3.58207e-05
0.000246844
0.00106969
0.00454259
0.00618328
0.00609588
0.00630307
0.00843597
0.0237163
0.428648
0.777407
0.761688
0.749487
0.842609
2.25031e-06
3.12894e-07
1.00781e-07
1.17103e-07
1.7385e-07
8.24449e-07
0.00138469
0.0307407
0.122096
0.31394
0.681558
0.691259
0.641378
0.545506
0.450017
0.775642
0.837429
0.798575
0.855982
1.47632e-07
1.01453e-07
1.00324e-07
2.17614e-07
5.59421e-07
5.32545e-05
0.0138427
0.263372
0.800349
0.979679
0.995821
0.996965
0.991044
0.956233
0.690921
0.694121
0.843238
0.841298
0.876117
7.93178e-08
1.10752e-07
3.26623e-07
5.4116e-07
1.20874e-06
0.000403226
0.0427012
0.439099
0.930008
0.998046
0.999729
0.999736
0.999113
0.968228
0.773912
0.696778
0.750314
0.882426
0.899087
6.77154e-08
2.40243e-07
5.06948e-07
7.97569e-07
1.37994e-06
0.000208004
0.0203648
0.249631
0.753144
0.973922
0.998523
0.999744
0.99974
0.992334
0.904469
0.740341
0.831012
0.919551
0.923732
8.14738e-08
2.47809e-07
4.112e-07
5.41115e-07
1.13507e-06
4.67659e-06
0.000412964
0.0193614
0.229397
0.735044
0.974236
0.999048
0.999741
0.999411
0.988735
0.954114
0.95015
0.951149
0.949712
6.55374e-08
1.28421e-07
1.32135e-07
2.17655e-07
3.44691e-07
8.88297e-07
2.1795e-06
0.000118248
0.0144013
0.218055
0.738011
0.975807
0.99934
0.999802
0.999386
0.99427
0.984804
0.976927
0.975248
2.78363e-08
2.57711e-08
4.83905e-08
9.02768e-08
1.31241e-07
2.65881e-07
7.80227e-07
2.66913e-06
9.59552e-05
0.00840078
0.162744
0.669619
0.974119
0.999611
0.999826
0.999376
0.996875
0.994257
0.993706
1.24811e-08
1.55593e-08
2.28782e-08
3.60152e-08
6.10053e-08
1.19139e-07
2.43727e-07
6.53829e-07
3.07722e-06
5.58776e-05
0.00420477
0.0948667
0.572823
0.960213
0.999841
0.999864
0.99981
0.999623
0.999576
3.25837e-09
5.83063e-09
9.17269e-09
1.55921e-08
3.20751e-08
7.10343e-08
1.49783e-07
2.86796e-07
6.39022e-07
3.10749e-06
1.68407e-05
0.00171867
0.0578009
0.464314
0.928108
0.999028
0.999805
0.999403
0.999194
1.12693e-09
1.78821e-09
3.32464e-09
6.78729e-09
1.64613e-08
4.37497e-08
1.0249e-07
2.28024e-07
4.09144e-07
9.12585e-07
2.82235e-06
6.27214e-06
0.00101158
0.0362846
0.244284
0.614218
0.871888
0.987848
0.993511
)
;

boundaryField
{
    leftWall
    {
        type            zeroGradient;
    }
    rightWall
    {
        type            zeroGradient;
    }
    lowerWall
    {
        type            zeroGradient;
    }
    atmosphere
    {
        type            inletOutlet;
        inletValue      nonuniform 0();
        value           nonuniform 0();
    }
    defaultFaces
    {
        type            empty;
    }
    procBoundary1to0
    {
        type            processor;
        value           nonuniform List<scalar> 
26
(
5.49117e-07
6.11649e-07
4.97712e-07
5.18713e-07
6.2555e-07
8.89722e-07
1.48777e-06
2.04189e-06
2.69472e-05
0.00100924
0.00190104
0.000996503
0.0668171
0.592909
0.753794
0.0243852
1.97053e-07
1.97053e-07
5.61419e-08
6.46358e-08
8.84583e-08
3.3714e-08
8.68813e-09
2.66453e-09
1.80608e-09
8.32918e-10
)
;
    }
    procBoundary1to3
    {
        type            processor;
        value           nonuniform List<scalar> 
23
(
2.54304e-10
2.21451e-10
2.12109e-10
2.05543e-10
2.89965e-10
6.27484e-10
1.17331e-09
3.21931e-09
9.43035e-09
2.73882e-08
7.75502e-08
1.7241e-07
3.83914e-07
6.87021e-07
1.77333e-06
2.56024e-06
4.79025e-06
0.000518835
0.00925596
0.037654
0.0597662
0.497192
0.983784
)
;
    }
}


// ************************************************************************* //
