/*--------------------------------*- C++ -*----------------------------------*\
| =========                 |                                                 |
| \\      /  F ield         | OpenFOAM: The Open Source CFD Toolbox           |
|  \\    /   O peration     | Version:  2.4.0                                 |
|   \\  /    A nd           | Web:      www.OpenFOAM.org                      |
|    \\/     M anipulation  |                                                 |
\*---------------------------------------------------------------------------*/
FoamFile
{
    version     2.0;
    format      ascii;
    class       volScalarField;
    location    "0.55";
    object      alpha.air;
}
// * * * * * * * * * * * * * * * * * * * * * * * * * * * * * * * * * * * * * //

dimensions      [0 0 0 0 0 0 0];

internalField   nonuniform List<scalar> 
559
(
4.59071e-16
3.17645e-15
1.85337e-14
3.85803e-14
6.58307e-14
8.36468e-14
1.14776e-13
1.79431e-13
9.64595e-06
8.78788e-06
9.9907e-06
2.03034e-05
3.32197e-05
4.74053e-05
6.68409e-05
0.000105536
8.6046e-05
7.49478e-05
0.000104089
0.000163841
0.000130333
3.29473e-05
1.5306e-05
0.000119265
1.42883e-05
3.32969e-06
5.43345e-05
2.23352e-05
1.25803e-06
1.25827e-06
1.25095e-06
1.25111e-06
1.24418e-06
1.52409e-06
6.27934e-05
0.000346786
0.000448066
0.000329259
0.000168891
0.000455867
0.00259977
0.00262274
0.00114445
7.89114e-05
7.47207e-06
7.83435e-05
2.23361e-05
1.76182e-06
1.25378e-06
1.25112e-06
1.24415e-06
1.24432e-06
1.23869e-06
1.23884e-06
3.95919e-06
0.000383854
0.000711184
0.000619829
0.000373053
0.000628119
0.00115077
0.000280737
0.000157643
0.000453016
0.000230356
1.02965e-05
0.00018318
4.51113e-05
2.14846e-06
1.24428e-06
1.23869e-06
1.23884e-06
1.23654e-06
1.23787e-06
2.40899e-05
0.000456954
0.000723346
0.000370451
0.000274461
0.000220989
0.000218495
0.00021488
0.00217176
0.000238639
4.92795e-06
0.0119815
0.00174776
5.92056e-05
1.38907e-06
1.24413e-06
1.23842e-06
1.23884e-06
1.23654e-06
2.1655e-06
1.81799e-05
0.000496722
0.00983176
0.00143642
0.000222475
0.00122188
0.000314593
0.00189185
0.000177721
0.000191734
0.0776135
0.0157313
0.00151759
9.93183e-05
3.63839e-06
1.24361e-06
1.2427e-06
1.24215e-06
1.50452e-06
2.06307e-05
0.0019875
0.236052
0.335454
0.0362327
0.0123763
0.00151978
0.00461001
0.000179478
0.0139853
0.0774673
0.0606139
0.024553
0.00827286
0.000498218
1.00861e-05
1.24483e-06
1.23823e-06
3.55149e-06
7.9462e-05
0.00902434
0.563842
0.962798
0.540298
0.231847
0.279567
0.176608
0.00208223
0.0949389
0.0493646
0.101486
0.113007
0.0844122
0.0149244
0.000620178
1.25248e-06
4.60225e-06
1.8583e-05
0.000207006
0.0168994
0.492868
0.961325
0.95313
0.861827
0.904502
0.668417
0.000694343
6.86848e-13
5.40486e-12
2.00434e-10
1.93645e-07
0.000240962
0.0367482
0.378659
0.993864
3.82152e-11
2.46949e-08
4.43226e-07
1.48878e-06
2.18259e-10
1.52508e-09
6.8348e-09
6.98681e-07
1.65263e-08
9.48615e-08
4.79698e-07
1.93717e-06
6.0391e-07
1.88105e-06
6.71042e-06
2.27937e-05
0.000736926
0.00172477
0.00355398
0.00829646
0.0729196
0.112293
0.158114
0.196849
0.507177
0.58668
0.688816
0.843309
0.99868
0.999716
0.999961
0.999993
1
1
1
1
1
1
1
1
1
1
1
1
1
1
1
1
1
1
1
1
1
1
1
1
1
1
1
1
1
1
1
1
1
0.999999
0.999999
0.999999
0.00112236
0.00260097
0.0755478
0.117727
0.118016
0.095309
0.0176451
0.000854841
8.26047e-05
2.02716e-05
0.000121872
0.0149293
0.201517
0.592556
0.894551
0.975156
0.981158
0.851001
0.0258118
1.16802e-05
5.5469e-05
0.00229289
0.00889921
0.025516
0.0486987
0.0338776
0.00531956
0.000199546
2.0821e-05
5.22408e-05
0.00158049
0.00377206
0.0390724
0.361891
0.731309
0.965661
0.898328
0.153522
2.57375e-05
2.49346e-05
0.000121726
0.000617014
0.000520272
0.000510032
0.00452194
0.00300467
0.000827582
3.77227e-05
3.21035e-05
3.98438e-05
3.98684e-05
0.000230151
0.0280014
0.214947
0.685783
0.768473
0.23466
0.000246721
0.00379409
0.01958
0.05473
0.052823
0.0434459
0.0298626
0.012408
0.00472284
0.00143221
0.000473295
7.13136e-05
3.99197e-05
4.00082e-05
0.000279573
0.0136467
0.145968
0.311062
0.170674
0.0314976
0.147137
0.298044
0.527412
0.647604
0.552186
0.400816
0.321612
0.29573
0.245969
0.20861
0.179276
0.107088
0.0166778
0.000806554
0.000856385
0.00754592
0.0331669
0.0422798
0.331593
0.600574
0.925109
0.994767
0.999618
0.998991
0.992397
0.962937
0.944448
0.935311
0.944593
0.958617
0.912294
0.746072
0.238039
0.0176327
0.000787067
0.000878962
0.00329569
0.969221
0.998676
0.999984
0.999999
0.999999
0.999964
0.999753
0.99893
0.995457
0.993814
0.993888
0.993611
0.991351
0.97555
0.564856
0.105634
0.00409202
0.000100527
0.000108979
0.999998
1
1
1
1
1
0.998616
0.969259
0.877901
0.686049
0.318367
0.308617
0.358425
0.454169
0.545346
0.181488
0.00950665
0.000101471
8.0544e-05
1
1
1
1
1
0.999948
0.986159
0.736623
0.199609
0.0202383
0.00407616
0.00290348
0.00864829
0.0423386
0.301316
0.289794
0.0421234
0.000682225
8.05645e-05
1
1
1
1
1
0.999598
0.9573
0.560897
0.0699768
0.00192565
0.000233588
0.000223643
0.000822845
0.030839
0.219347
0.287555
0.18377
0.000439403
8.05701e-05
1
1
1
1
1
0.999794
0.979637
0.75037
0.246856
0.0260688
0.00145567
0.00022705
0.000221105
0.00725207
0.0915619
0.245305
0.121899
0.000277397
8.05713e-05
1
1
1
1
1
0.999997
0.999589
0.980641
0.770605
0.264956
0.0257524
0.000926156
0.000216396
0.000465226
0.00897918
0.0344657
0.0188731
0.00042415
0.000111256
1
1
1
1
1
1
1
0.999884
0.985602
0.781947
0.261989
0.0241819
0.000632519
7.98388e-05
9.59065e-05
0.000513555
0.000660411
0.000593785
0.000245586
1
1
1
1
1
1
1
1
0.999908
0.991602
0.837258
0.330382
0.0258749
0.000356346
3.99133e-05
4.0075e-05
4.94093e-05
0.000241273
0.000103
1
0.999999
1
1
1
1
1
1
1
0.999948
0.995799
0.905136
0.427179
0.0397851
0.000137526
4.25354e-05
3.72811e-05
4.40485e-05
5.50816e-05
0.999999
0.999999
0.999999
0.999999
1
1
1
1
1
1
0.999987
0.998284
0.942202
0.535688
0.0718921
0.000964838
0.000175016
0.000569663
0.000782527
0.999999
0.999998
0.999998
0.999998
0.999999
1
1
1
1
1
1
0.999996
0.998991
0.963718
0.755718
0.385784
0.128114
0.0121543
0.00649035
)
;

boundaryField
{
    leftWall
    {
        type            alphaContactAngle;
        thetaProperties 
6
(

(
water
mercury
)
 90 0 0 0

(
water
air
)
 90 0 0 0

(
water
oil
)
 90 0 0 0

(
mercury
air
)
 90 0 0 0

(
oil
mercury
)
 90 0 0 0

(
oil
air
)
 90 0 0 0
);
        value           nonuniform 0();
    }
    rightWall
    {
        type            alphaContactAngle;
        thetaProperties 
6
(

(
water
mercury
)
 90 0 0 0

(
water
air
)
 90 0 0 0

(
water
oil
)
 90 0 0 0

(
mercury
air
)
 90 0 0 0

(
oil
mercury
)
 90 0 0 0

(
oil
air
)
 90 0 0 0
);
        value           nonuniform List<scalar> 
25
(
5.43345e-05
7.83435e-05
0.000230356
0.000238639
0.000177721
0.000179478
0.00208223
0.000694343
0.0258118
0.153522
0.23466
0.170674
0.0422798
0.00329569
0.000108979
8.0544e-05
8.05645e-05
8.05701e-05
8.05713e-05
0.000111256
0.000245586
0.000103
5.50816e-05
0.000782527
0.00649035
)
;
    }
    lowerWall
    {
        type            alphaContactAngle;
        thetaProperties 
6
(

(
water
mercury
)
 90 0 0 0

(
water
air
)
 90 0 0 0

(
water
oil
)
 90 0 0 0

(
mercury
air
)
 90 0 0 0

(
oil
mercury
)
 90 0 0 0

(
oil
air
)
 90 0 0 0
);
        value           nonuniform List<scalar> 
40
(
4.59071e-16
4.59071e-16
3.17645e-15
1.85337e-14
3.85803e-14
6.58307e-14
8.36468e-14
1.14776e-13
1.79431e-13
3.82152e-11
2.46949e-08
4.43226e-07
1.48878e-06
9.64595e-06
2.23352e-05
2.23361e-05
1.02965e-05
4.92795e-06
0.000191734
0.0139853
0.0949389
9.64595e-06
8.78788e-06
9.9907e-06
2.03034e-05
3.32197e-05
4.74053e-05
6.68409e-05
0.000105536
8.6046e-05
7.49478e-05
0.000104089
0.000163841
0.000130333
3.29473e-05
1.5306e-05
0.000119265
1.42883e-05
3.32969e-06
5.43345e-05
)
;
    }
    atmosphere
    {
        type            inletOutlet;
        inletValue      nonuniform 0();
        value           nonuniform 0();
    }
    defaultFaces
    {
        type            empty;
    }
    procBoundary1to0
    {
        type            processor;
        value           nonuniform List<scalar> 
26
(
1.97361e-15
1.24847e-14
5.18813e-14
1.33013e-13
2.45923e-13
3.74662e-13
5.30222e-13
6.5428e-13
1.66701e-12
1.72735e-11
5.85202e-10
4.03325e-08
4.86361e-05
0.0163875
0.238073
0.975602
0.999999
0.999999
0.999999
1
1
1
1
1
1
0.999999
)
;
    }
    procBoundary1to3
    {
        type            processor;
        value           nonuniform List<scalar> 
23
(
0.999999
0.999999
0.999999
0.999999
0.999998
0.999998
0.999998
0.999998
0.999998
0.999999
1
1
1
1
1
1
0.999998
0.999484
0.990748
0.962349
0.940237
0.502811
0.0162174
)
;
    }
}


// ************************************************************************* //
