/*--------------------------------*- C++ -*----------------------------------*\
| =========                 |                                                 |
| \\      /  F ield         | OpenFOAM: The Open Source CFD Toolbox           |
|  \\    /   O peration     | Version:  2.4.0                                 |
|   \\  /    A nd           | Web:      www.OpenFOAM.org                      |
|    \\/     M anipulation  |                                                 |
\*---------------------------------------------------------------------------*/
FoamFile
{
    version     2.0;
    format      ascii;
    class       volScalarField;
    location    "0.55";
    object      alpha.mercury;
}
// * * * * * * * * * * * * * * * * * * * * * * * * * * * * * * * * * * * * * //

dimensions      [0 0 0 0 0 0 0];

internalField   nonuniform List<scalar> 
559
(
0.999989
0.999986
0.999987
0.999987
0.999987
0.999985
0.999982
0.99998
0.0522535
0.0962573
0.104438
0.106068
0.107722
0.132918
0.183216
0.237487
0.288922
0.349708
0.376012
0.390856
0.397641
0.401702
0.405654
0.434732
0.507696
0.510496
0.511341
0.0223416
0.0489134
0.0950515
0.0809888
0.0700424
0.0708663
0.0860494
0.102776
0.11119
0.121611
0.144984
0.176705
0.179662
0.16904
0.105976
0.0486438
0.0859847
0.475584
0.512073
0.036373
0.0952674
0.147576
0.141047
0.133438
0.139664
0.154134
0.160185
0.154671
0.145467
0.145717
0.157277
0.151677
0.109403
0.0380188
0.0108657
0.00282392
0.075973
0.51278
0.0659217
0.149881
0.235666
0.229925
0.217338
0.217378
0.223068
0.219242
0.202963
0.168431
0.154746
0.167267
0.154647
0.0870054
0.0214235
0.0123655
0.00167209
0.0202759
0.513476
0.14029
0.241797
0.357552
0.342616
0.312246
0.294237
0.27767
0.256075
0.223719
0.166325
0.15381
0.167253
0.138079
0.0507122
0.0155294
0.012359
0.001167
0.0135964
0.449095
0.299457
0.390467
0.505379
0.465784
0.403341
0.354116
0.308212
0.271904
0.22705
0.155413
0.154937
0.166112
0.133333
0.0273596
0.0046489
0.00278466
0.000535703
0.0132951
0.394468
0.524805
0.606463
0.604563
0.535805
0.438513
0.360728
0.291174
0.227904
0.158984
0.155306
0.15177
0.166046
0.0951928
0.00642778
0.000391875
0.000174798
0.000186496
0.0243216
0.36494
0.710452
0.709766
0.587548
0.430919
0.333635
0.243603
0.16821
0.110599
0.119563
0.13927
0.135126
0.126791
0.12354
0.0185837
0.000877953
0.000172909
0.000170746
0.0386977
0.320928
0.999774
0.900308
0.169102
0.00176523
9.40878e-05
1.5563e-06
9.69438e-08
2.63415e-09
0.998916
0.99796
0.994781
0.987381
0.852149
0.815774
0.752056
0.665202
0.162852
0.149753
0.124488
0.0863238
0.00162898
0.00144754
0.00119303
0.000902793
7.9211e-05
6.97639e-05
5.98585e-05
4.89236e-05
1.70768e-06
1.79129e-06
1.78745e-06
1.73211e-06
1.15817e-07
1.08323e-07
9.32202e-08
7.64715e-08
9.11921e-10
2.83171e-10
6.55091e-11
2.50292e-11
3.13776e-13
5.27394e-13
6.65604e-13
6.49915e-13
9.66896e-15
2.54891e-14
7.00531e-14
2.03056e-13
2.76089e-14
7.7923e-14
2.11723e-13
6.20754e-13
5.98178e-14
1.56366e-13
4.14343e-13
1.30831e-12
1.55856e-13
3.65181e-13
9.8237e-13
3.06507e-12
1.54334e-13
3.25015e-13
7.58137e-13
2.03392e-12
5.93666e-14
1.19346e-13
2.69063e-13
6.86964e-13
1.04559e-14
2.31717e-14
5.91513e-14
1.68478e-13
9.43558e-16
2.20995e-15
6.35668e-15
2.1217e-14
0.875803
0.651784
0.327299
0.172357
0.121675
0.0783399
0.0478898
0.0284276
0.0212829
0.0188895
0.0201394
0.0330645
0.123997
0.125549
0.0748811
0.0115837
0.00314579
0.0313706
0.275259
0.409852
0.182861
0.0924633
0.0505209
0.0177927
0.00886913
0.00339271
0.00156121
0.000878611
0.00070616
0.000900305
0.00174747
0.00855623
0.106606
0.113799
0.112477
0.0191242
0.0521508
0.198096
0.0561655
0.0174375
0.00520847
0.00205801
0.000998697
0.000512982
0.000307211
0.00019976
0.000154135
0.000147167
0.000196122
0.000400396
0.000599449
0.0033418
0.0380551
0.0831112
0.0747855
0.0593793
0.128941
0.000541925
0.000239714
0.000127857
0.000111706
0.000118608
0.000134919
0.000124016
9.03172e-05
8.13729e-05
9.18815e-05
0.000126181
0.000163406
0.000176149
0.000241651
0.00159073
0.0100294
0.0371069
0.0378461
0.0847126
3.13234e-05
1.97136e-05
1.06056e-05
6.78802e-06
7.06315e-06
8.6489e-06
1.15269e-05
1.58056e-05
2.15317e-05
3.51992e-05
6.37057e-05
7.08438e-05
0.000120058
0.000224303
0.000143499
0.000331987
0.00405074
0.00763936
0.0568827
1.46703e-06
9.03572e-07
3.52757e-07
9.62993e-08
3.25219e-08
3.8781e-08
8.18554e-08
1.71446e-07
2.50422e-07
3.37809e-07
3.60287e-07
4.0027e-07
4.1136e-06
3.69878e-05
8.77054e-05
0.000181674
0.000301854
0.000660796
0.038375
3.74849e-08
6.29434e-09
6.29624e-10
3.2976e-10
9.50316e-10
1.86453e-09
2.95632e-09
4.51276e-09
5.73504e-09
1.47503e-08
2.65835e-08
2.74858e-08
2.84563e-08
6.54283e-07
7.2717e-05
0.000312339
0.000312981
0.000335769
0.0272465
7.61515e-12
7.09623e-12
3.0906e-11
2.29744e-10
1.41952e-09
4.22575e-09
4.95287e-09
2.09398e-08
2.43083e-07
1.49978e-06
1.05016e-05
2.25005e-05
2.85072e-05
4.67662e-05
0.000110184
0.000312479
0.000371133
0.000355269
0.0199488
1.07606e-12
6.79333e-12
1.05433e-10
1.12276e-09
4.32129e-09
1.2399e-08
1.67827e-08
1.75983e-07
3.27578e-06
1.36582e-05
2.39899e-05
3.09722e-05
4.32825e-05
0.000105416
0.000185917
0.000226271
0.000413415
0.000391709
0.0145844
1.89796e-12
3.16088e-11
4.44058e-10
2.42734e-09
7.37253e-09
1.59808e-08
2.52779e-08
2.6974e-07
3.91334e-06
1.52102e-05
2.5646e-05
3.04135e-05
3.66163e-05
8.05085e-05
0.000186573
0.000237893
0.000401737
0.000594122
0.00992514
5.96662e-12
8.63841e-11
7.20181e-10
3.10021e-09
8.00125e-09
1.45763e-08
2.03246e-08
8.85368e-08
1.53995e-06
9.68539e-06
2.17809e-05
2.86562e-05
3.30919e-05
4.99129e-05
0.000121236
0.000201054
0.000366006
0.000868805
0.0058981
1.05032e-11
1.0157e-10
8.01952e-10
2.90801e-09
5.89558e-09
7.54188e-09
1.5565e-08
2.51375e-08
1.54577e-07
2.58962e-06
1.29193e-05
2.50616e-05
3.04834e-05
3.52903e-05
6.65989e-05
0.000144748
0.00028724
0.000878802
0.00311036
9.13309e-12
8.10247e-11
3.50857e-10
1.31503e-09
3.3177e-09
6.38022e-09
9.21447e-09
1.73395e-08
3.2606e-08
1.65545e-07
2.56665e-06
1.22242e-05
2.51058e-05
3.53476e-05
4.16635e-05
9.94795e-05
0.000256902
0.000735797
0.00159623
5.96282e-12
2.95964e-11
1.37734e-10
4.83936e-10
1.24592e-09
2.72247e-09
5.44746e-09
9.25121e-09
1.91396e-08
3.91712e-08
8.52426e-08
1.24747e-06
7.80734e-06
2.24519e-05
3.81072e-05
5.41637e-05
0.000181564
0.000436889
0.000687982
1.88045e-12
8.88823e-12
3.71761e-11
1.42062e-10
4.32163e-10
1.13775e-09
2.5821e-09
5.2042e-09
9.56105e-09
1.4554e-08
2.10755e-08
2.43333e-08
3.85315e-07
3.36711e-06
1.49992e-05
3.83549e-05
6.11509e-05
0.000119416
0.000137315
5.02398e-13
2.63079e-12
1.23896e-11
5.07932e-11
1.80235e-10
5.47645e-10
1.39927e-09
3.02095e-09
5.90627e-09
1.10139e-08
1.71441e-08
7.15962e-09
6.68677e-09
9.36424e-08
1.43209e-06
7.03854e-06
1.37052e-05
1.6419e-05
1.45089e-05
7.51213e-14
4.99977e-13
3.03517e-12
1.61542e-11
7.31375e-11
2.74413e-10
8.16422e-10
2.08083e-09
4.30137e-09
9.19433e-09
2.04999e-08
7.06859e-09
5.21823e-09
5.49363e-09
3.21558e-08
1.75225e-07
2.51404e-07
1.06264e-07
6.1537e-08
)
;

boundaryField
{
    leftWall
    {
        type            zeroGradient;
    }
    rightWall
    {
        type            zeroGradient;
    }
    lowerWall
    {
        type            zeroGradient;
    }
    atmosphere
    {
        type            inletOutlet;
        inletValue      nonuniform 0();
        value           nonuniform 0();
    }
    defaultFaces
    {
        type            empty;
    }
    procBoundary1to0
    {
        type            processor;
        value           nonuniform List<scalar> 
26
(
0.999999
0.999999
0.999999
0.999999
0.999999
0.999999
0.999997
0.999997
0.999478
0.875172
0.0992996
0.00144668
0.000107821
1.30603e-06
3.68069e-08
4.54593e-09
2.04047e-13
2.04047e-13
4.31381e-15
9.65297e-15
1.93799e-14
4.59601e-14
5.01964e-14
2.09843e-14
3.53968e-15
3.19931e-16
)
;
    }
    procBoundary1to3
    {
        type            processor;
        value           nonuniform List<scalar> 
23
(
4.64323e-17
1.49839e-16
6.40312e-16
3.06503e-15
1.48662e-14
1.34605e-13
1.04061e-12
6.69344e-12
3.52906e-11
1.47997e-10
5.31883e-10
1.46374e-09
3.6544e-09
7.74746e-09
1.93763e-08
8.08405e-09
5.2049e-09
5.04964e-09
4.81013e-09
4.83668e-09
4.95292e-09
6.04001e-09
4.77624e-09
)
;
    }
}


// ************************************************************************* //
