/*--------------------------------*- C++ -*----------------------------------*\
| =========                 |                                                 |
| \\      /  F ield         | OpenFOAM: The Open Source CFD Toolbox           |
|  \\    /   O peration     | Version:  2.4.0                                 |
|   \\  /    A nd           | Web:      www.OpenFOAM.org                      |
|    \\/     M anipulation  |                                                 |
\*---------------------------------------------------------------------------*/
FoamFile
{
    version     2.0;
    format      ascii;
    class       volScalarField;
    location    "0.55";
    object      alpha.water;
}
// * * * * * * * * * * * * * * * * * * * * * * * * * * * * * * * * * * * * * //

dimensions      [0 0 0 0 0 0 0];

internalField   nonuniform List<scalar> 
559
(
2.19079e-10
3.53778e-10
1.42226e-09
5.53903e-09
1.76691e-08
3.2676e-08
1.23767e-07
3.23064e-07
5.1226e-07
1.23331e-06
1.82456e-06
2.12889e-06
2.1482e-06
2.15932e-06
2.31335e-06
2.68343e-06
3.24428e-06
4.48794e-06
1.03616e-05
4.22594e-05
0.000200308
0.000894685
0.00372922
0.00865997
0.00293441
0.000853959
0.000573374
1.03345e-07
7.93966e-08
1.40418e-07
2.8691e-07
3.43608e-07
3.28752e-07
2.84897e-07
2.78757e-07
3.36386e-07
7.3751e-07
1.77299e-06
5.48804e-06
1.88479e-05
0.000155784
0.00140702
0.00654714
0.011985
0.00362937
0.00113151
3.07083e-08
4.0529e-08
7.4044e-08
1.58658e-07
2.02039e-07
1.93761e-07
1.61788e-07
1.39329e-07
1.76122e-07
7.55186e-07
6.34678e-06
2.36508e-05
3.2447e-05
4.75649e-05
0.000389242
0.00491798
0.0217462
0.0108566
0.0015378
4.86932e-08
1.94481e-06
1.69881e-06
4.18305e-07
1.84749e-07
1.60981e-07
1.37921e-07
1.36983e-07
1.85134e-07
6.1476e-06
5.64266e-05
0.000210941
0.000355238
0.000326324
0.000308116
0.00355103
0.0217494
0.0253692
0.00175903
4.77509e-06
0.000288138
0.000228344
5.77944e-05
1.87163e-05
1.00545e-05
5.64833e-06
2.07623e-06
1.77203e-06
3.26613e-05
0.000273411
0.00121807
0.00185562
0.00134878
0.000406306
0.00257765
0.0154244
0.0283279
0.00437847
0.000313955
0.00853114
0.00730561
0.00317319
0.00191782
0.00128277
0.000660777
0.000212528
5.61105e-05
0.000133989
0.000974584
0.00630056
0.00715055
0.00259692
0.000323668
0.000997267
0.0141022
0.0283248
0.00628833
0.00420193
0.0537153
0.0569662
0.04421
0.0378842
0.0329492
0.0209512
0.00880214
0.0021195
0.0011629
0.00314959
0.0227369
0.0187381
0.00175649
6.58385e-05
0.000240209
0.00717232
0.0283279
0.00818511
0.0383835
0.139523
0.186916
0.239154
0.219295
0.213969
0.166016
0.0985993
0.037629
0.0167164
0.0211559
0.0648004
0.0412174
0.00401937
2.78933e-05
2.75482e-05
0.000879223
0.0177552
0.00926078
0.000202685
0.0988848
0.827177
0.993605
0.841852
0.311346
0.0069429
5.48571e-06
0.00101761
0.00186136
0.00476182
0.0118428
0.146462
0.182247
0.245077
0.330707
0.831232
0.841813
0.861974
0.891592
0.984278
0.972599
0.952472
0.924067
0.748095
0.684974
0.617317
0.54716
0.252677
0.212542
0.167482
0.128213
0.00477431
0.00320974
0.00208024
0.00121794
2.44868e-06
1.20809e-06
5.99016e-07
2.75864e-07
2.21114e-09
3.59291e-09
3.3098e-09
2.41635e-09
1.46868e-12
1.06408e-12
2.33336e-12
5.08935e-12
1.02853e-12
6.47435e-13
5.64566e-13
1.37234e-12
2.72991e-13
2.76354e-13
6.36232e-13
2.81136e-12
1.44543e-13
4.41497e-13
1.60521e-12
5.50179e-12
1.171e-13
2.97806e-13
7.15853e-13
1.56563e-12
1.36495e-14
3.00378e-14
6.42671e-14
1.31267e-13
7.48195e-16
1.35054e-15
2.95039e-15
7.18233e-15
1.35523e-16
1.67411e-16
2.52486e-16
5.41239e-16
0.106946
0.306578
0.531855
0.611059
0.59985
0.567285
0.523157
0.436018
0.345047
0.279517
0.253748
0.258799
0.174381
0.0581866
0.00457232
9.52242e-05
0.000298572
0.00690809
0.0201161
0.579752
0.786099
0.834677
0.832916
0.822749
0.771581
0.731854
0.699113
0.659678
0.623239
0.589319
0.570276
0.532227
0.400821
0.209472
0.0565006
0.00292854
0.00565659
0.0431043
0.889825
0.877312
0.831879
0.762004
0.703684
0.685252
0.694726
0.702292
0.702752
0.702315
0.696816
0.686702
0.668668
0.651472
0.551747
0.356087
0.108332
0.0406601
0.0606218
0.842204
0.678469
0.548908
0.470879
0.405798
0.393449
0.40714
0.442924
0.468544
0.484402
0.512431
0.558127
0.570424
0.583182
0.582819
0.549905
0.40227
0.21359
0.0925382
0.429122
0.314805
0.172422
0.0860751
0.0470235
0.0428332
0.0512212
0.0706569
0.0961148
0.145549
0.183169
0.212208
0.284635
0.374825
0.425189
0.484579
0.432473
0.299326
0.113488
0.0761235
0.0202943
0.00234416
0.000136288
8.44416e-06
3.54005e-06
7.13061e-06
1.8781e-05
2.53557e-05
8.67419e-05
0.000268111
0.00053957
0.00775375
0.0503991
0.109072
0.26416
0.35669
0.288932
0.12359
0.000354088
2.22459e-05
8.29913e-07
3.35882e-08
1.36861e-08
1.65678e-08
2.32931e-08
1.1909e-07
3.45885e-07
2.18687e-06
1.53353e-05
8.5553e-05
0.000213296
0.000734082
0.00642421
0.116648
0.233908
0.250078
0.130037
8.23927e-08
8.58032e-09
1.24817e-09
3.12232e-09
1.39105e-08
2.74251e-08
3.38822e-08
1.07421e-06
4.02347e-06
1.06405e-05
6.50336e-05
0.000101731
0.000168518
0.000279395
0.00452731
0.0425578
0.152694
0.20097
0.12399
8.62873e-10
3.36277e-10
8.52851e-10
9.099e-09
4.0859e-08
7.11418e-08
1.81848e-07
6.04496e-06
3.96923e-05
6.96026e-05
8.0042e-05
0.000101802
0.000265732
0.00132374
0.00757792
0.0158593
0.114227
0.15763
0.109219
2.77588e-11
3.31444e-10
3.78574e-09
2.09412e-08
4.86837e-08
5.04497e-08
4.16065e-07
4.96805e-06
1.27504e-05
1.46974e-05
1.28388e-05
1.07481e-05
2.89626e-05
0.000853742
0.00655567
0.015431
0.065515
0.116542
0.0909088
4.92397e-11
8.79968e-10
4.34597e-09
1.05086e-08
1.17459e-08
1.24853e-08
7.96064e-08
3.73548e-07
9.25124e-07
1.28804e-06
1.33602e-06
1.72175e-06
6.57682e-06
0.000364878
0.00384915
0.0141541
0.0467236
0.0793043
0.0702912
5.93616e-11
4.32715e-10
1.61431e-09
3.31318e-09
4.63116e-09
3.25189e-09
6.00765e-09
1.01013e-08
1.83508e-08
4.16745e-08
1.06018e-07
2.19691e-06
1.3482e-05
9.01181e-05
0.00222051
0.0112772
0.0306914
0.0475498
0.0470679
1.41395e-11
6.20885e-11
1.82253e-10
5.0931e-10
7.09876e-10
8.47293e-10
1.1686e-09
3.63811e-09
4.0094e-09
1.80371e-09
1.68627e-09
7.87697e-09
3.92705e-06
8.4387e-05
0.000477749
0.00511815
0.0142796
0.0217445
0.0229112
3.09136e-12
7.90778e-12
2.15803e-11
5.66013e-11
1.00912e-10
1.70427e-10
3.49721e-10
8.18089e-10
2.26775e-09
2.50492e-09
8.59615e-10
2.03986e-10
7.18075e-08
1.14566e-05
9.75566e-05
0.000531183
0.00289555
0.00506648
0.00550435
2.58268e-13
7.72294e-13
2.20888e-12
6.12996e-12
1.74758e-11
5.03976e-11
1.3691e-10
3.46006e-10
8.80917e-10
2.68959e-09
2.71733e-09
1.67267e-10
2.80846e-10
1.43111e-07
8.45954e-06
5.69448e-05
9.29367e-05
0.000215147
0.000232496
1.82807e-14
8.15194e-14
3.64134e-13
1.62323e-12
6.893e-12
2.58552e-11
8.10997e-11
2.11521e-10
4.8951e-10
1.41328e-09
4.48445e-09
6.36299e-10
1.65161e-10
6.43109e-10
7.47663e-08
1.32531e-06
8.32804e-06
1.23399e-05
1.08196e-05
1.64372e-15
1.16714e-14
8.68104e-14
5.846e-13
3.32476e-12
1.53846e-11
5.58085e-11
1.72409e-10
4.25763e-10
1.09995e-09
4.42621e-09
1.47163e-09
1.68521e-10
1.56573e-10
2.54508e-10
4.11045e-09
2.64495e-08
1.07747e-08
8.42408e-09
)
;

boundaryField
{
    leftWall
    {
        type            zeroGradient;
    }
    rightWall
    {
        type            zeroGradient;
    }
    lowerWall
    {
        type            zeroGradient;
    }
    atmosphere
    {
        type            inletOutlet;
        inletValue      nonuniform 0();
        value           nonuniform 0();
    }
    defaultFaces
    {
        type            empty;
    }
    procBoundary1to0
    {
        type            processor;
        value           nonuniform List<scalar> 
26
(
1.27127e-09
2.01548e-09
5.09253e-09
3.97702e-08
9.58742e-08
2.34628e-07
1.05151e-06
1.26971e-06
0.000494877
0.123819
0.898799
0.997557
0.933027
0.390703
0.0081324
1.24279e-05
1.16788e-09
1.16788e-09
2.13743e-12
1.65032e-12
3.69294e-13
6.07284e-14
3.57382e-14
5.51689e-15
5.96364e-16
1.16923e-16
)
;
    }
    procBoundary1to3
    {
        type            processor;
        value           nonuniform List<scalar> 
23
(
3.39614e-17
3.78561e-17
4.69055e-17
9.1872e-17
3.63967e-16
3.86557e-15
3.78673e-14
3.0478e-13
1.98205e-12
1.04084e-11
4.36698e-11
1.47014e-10
4.43836e-10
1.13385e-09
3.61302e-09
3.24572e-09
4.46398e-10
1.84221e-10
1.54233e-10
5.24101e-11
4.38168e-11
4.46009e-11
9.42378e-11
)
;
    }
}


// ************************************************************************* //
