/*--------------------------------*- C++ -*----------------------------------*\
| =========                 |                                                 |
| \\      /  F ield         | OpenFOAM: The Open Source CFD Toolbox           |
|  \\    /   O peration     | Version:  2.4.0                                 |
|   \\  /    A nd           | Web:      www.OpenFOAM.org                      |
|    \\/     M anipulation  |                                                 |
\*---------------------------------------------------------------------------*/
FoamFile
{
    version     2.0;
    format      ascii;
    class       volScalarField;
    location    "0.55";
    object      p;
}
// * * * * * * * * * * * * * * * * * * * * * * * * * * * * * * * * * * * * * //

dimensions      [1 -1 -2 0 0 0 0];

internalField   nonuniform List<scalar> 
559
(
8058.22
7272.43
6535.88
5801.71
5083.08
4385.64
3716.28
3069.04
2792.7
2890.09
3022.48
2990.51
2875.38
2777.24
2722.8
2674
2600.27
2547.35
2557.89
2649.68
2685.74
2580.21
2384.84
2166.69
2200.6
2766.37
3278.69
2703.75
2746.05
2846.64
2811.52
2688.68
2551.28
2420.34
2291.36
2160.86
2053.49
2005.09
2011.42
1957.66
1798.07
1639.79
1608.4
1713.73
2046.38
2648.28
2657.31
2708.43
2763.02
2753.8
2661.91
2537.42
2404.04
2267.25
2129.59
2006.75
1945.23
1921.82
1832.17
1683.88
1596.67
1721.38
1711.98
1552.79
2318.29
2587.55
2600.63
2627.32
2592.48
2466.9
2301.95
2131.52
1974.8
1856.07
1763.06
1730.85
1711.93
1607.72
1466.43
1473.63
1589.69
1617.14
1515.57
2015.29
2489.5
2483.03
2432.2
2352.59
2203.21
2023.62
1847.36
1703.95
1587.34
1537.26
1544.37
1522.38
1397.22
1281.66
1349.33
1465.4
1535.6
1448.01
1815.86
2295.51
2296.73
2132.22
1998.59
1845.74
1669.98
1501.55
1373.37
1301.65
1327.51
1357.31
1344.79
1241.72
1204.66
1232.25
1392.9
1447.21
1380.59
1671.29
1854.18
1967.96
1705.14
1518.09
1388.22
1249.32
1118.86
1031.52
1047.41
1118.28
1162.11
1168.4
1191.7
1198.48
1204.77
1231.05
1238.28
1287.72
1543.79
1230.82
1482.88
1242.19
1067
979.015
878.954
813.481
785.868
836.985
888.621
942.018
995.989
1135.71
1198.46
1206.84
1219.55
1217.71
1253
1438.39
2085.58
680.703
143.989
143.225
94.6257
51.7657
11.4771
3.65742
2022.45
1957.17
1782.78
1494.04
654.587
622.696
560.657
489.787
140.06
133.5
127.7
126.191
130.167
123.428
116.461
110.006
86.6479
81.4347
73.6621
65.5002
41.125
34.8434
28.7449
22.8544
8.86511
7.27479
5.4165
4.28106
3.79033
3.90236
4.05266
4.19917
4.55539
4.49423
4.41791
4.34388
4.09935
4.11138
4.12608
4.14327
4.09368
4.09397
4.09342
4.09365
3.96993
3.9711
3.97093
3.97055
3.83573
3.83834
3.84074
3.84267
3.71111
3.71127
3.71156
3.71183
3.57837
3.57842
3.57847
3.57842
3.44874
3.44813
3.44749
3.44671
3.31828
3.31707
3.3158
3.3144
817.153
740.619
657.382
613.372
584.316
566.166
569.421
590.383
593.51
614.941
663.919
747.545
953.065
1147.2
1196.3
1220.05
1216.44
1229.5
1383.86
352.974
332.648
346.077
378.761
403.757
432.384
459.568
486.551
522.314
561.09
596.385
626.852
643.425
842.855
1017.07
1135.1
1202.28
1200.5
1356.47
126.748
154.348
191.475
229.463
266.998
290.821
308.603
325.492
341.741
361.231
390.203
438.37
484.048
540.118
699.392
899.037
1077.8
1112.48
1208.59
97.7333
82.9472
80.8357
68.8576
65.074
88.5954
116.832
143.958
163.55
184.835
214.531
254.675
305.005
393.199
519.303
651.377
829.949
934.655
1029.48
49.3044
31.8419
21.1873
11.1912
7.61816
9.55602
14.8664
25.3564
28.5761
30.7605
29.7408
28.7938
35.395
78.7105
301.368
444.111
583.801
711.558
825.859
15.473
7.31606
4.06991
3.80404
3.72526
3.51236
3.07931
2.48433
1.0643
-1.19398
-2.93162
-3.88345
-4.13341
0.527633
44.9385
196.572
363.696
506.853
618.213
3.92425
4.06387
4.50072
4.56621
4.64884
4.52607
3.99149
2.62469
1.00073
-0.239741
-1.00917
-1.18566
-1.4402
-2.32248
-4.67331
20.1501
145.122
309.051
417.415
4.36763
4.47233
4.37036
4.28261
4.22333
4.09225
3.86594
2.56397
0.234296
-3.87645
-8.29691
-19.567
-26.4628
-35.2024
-76.0686
-102.193
-32.7712
93.4828
225.593
4.25435
4.26045
4.28264
4.27698
4.30609
4.2527
4.04072
2.1301
-1.45936
-8.33858
-23.6304
-48.5253
-79.7084
-125.337
-183.091
-229.553
-210.078
-85.6125
74.4709
4.1715
4.19165
4.21251
4.21007
4.2199
4.20988
4.12234
2.36441
-2.21708
-15.9112
-37.7658
-74.6741
-131.936
-215.033
-271.58
-305.328
-297.837
-133.532
7.00219
4.09497
4.09799
4.10223
4.10801
4.12413
4.14446
4.14724
3.39746
-0.598869
-16.1194
-40.5786
-76.423
-136.316
-222.148
-287.662
-310.264
-273.134
-87.8552
39.681
3.96992
3.97176
3.97873
3.98928
4.00052
4.00137
3.97965
3.90944
2.92338
-4.24618
-29.8767
-57.0252
-102.219
-169.346
-233.986
-254.166
-153.963
55.4967
179.05
3.84525
3.84681
3.84966
3.85569
3.86169
3.86306
3.83317
3.79444
3.83678
2.53748
-3.66336
-26.3071
-49.4506
-88.3653
-123.192
-96.8893
39.4954
229.209
344.362
3.71213
3.71286
3.71474
3.71712
3.71848
3.71605
3.70423
3.67209
3.6294
3.76354
3.00234
-2.79824
-7.4812
-24.0573
-31.0024
27.9266
179.94
354.946
448.955
3.5783
3.57826
3.57801
3.57699
3.57524
3.57124
3.56456
3.56027
3.54848
3.57039
3.67493
3.27082
0.191864
3.65457
31.8262
85.7603
217.87
382.601
456.119
3.44534
3.44307
3.43992
3.43581
3.43085
3.42493
3.41865
3.41606
3.41985
3.42507
3.46694
3.45095
3.13085
2.5552
9.30483
100.041
190.459
313.116
378.263
3.31191
3.30778
3.30278
3.29621
3.28774
3.27738
3.26608
3.25788
3.24613
3.23233
3.27573
3.1434
3.00474
2.7777
2.45036
2.08332
32.1236
160.295
248.029
)
;

boundaryField
{
    leftWall
    {
        type            fixedFluxPressure;
        gradient        nonuniform 0();
        value           nonuniform 0();
    }
    rightWall
    {
        type            fixedFluxPressure;
        gradient        uniform 0;
        value           nonuniform List<scalar> 
25
(
3278.69
2648.28
2318.29
2015.29
1815.86
1671.29
1543.79
1438.39
1383.86
1356.47
1208.59
1029.48
825.859
618.213
417.415
225.593
74.4709
7.00219
39.681
179.05
344.362
448.955
456.119
378.263
248.029
)
;
    }
    lowerWall
    {
        type            fixedFluxPressure;
        gradient        nonuniform List<scalar> 
40
(
132718
0
0
0
0
0
0
0
0
131702
130845
127851
121460
0
0
0
0
0
0
0
0
5175.33
5438.63
5486.31
5492.89
5503.53
5675.35
6080.96
6623.57
7263.97
8262.14
8819.83
9135.84
9312.53
9456.77
9695.79
10152.8
12141.4
12430.4
12183.7
)
;
        value           nonuniform List<scalar> 
40
(
8456.37
8058.22
7272.43
6535.88
5801.71
5083.08
4385.64
3716.28
3069.04
2862.84
2792.09
2598.59
2269.07
2792.7
2703.75
2657.31
2587.55
2489.5
2295.51
1854.18
1230.82
2808.23
2906.41
3038.93
3006.99
2891.89
2794.26
2741.04
2693.87
2622.06
2572.13
2584.34
2677.09
2713.68
2608.58
2413.92
2197.15
2237.02
2803.66
3315.24
)
;
    }
    atmosphere
    {
        type            totalPressure;
        U               U.air;
        phi             phi.air;
        rho             rho;
        psi             none;
        gamma           1;
        p0              nonuniform 0();
        value           nonuniform 0();
    }
    defaultFaces
    {
        type            empty;
    }
    procBoundary1to0
    {
        type            processor;
        value           nonuniform List<scalar> 
26
(
7969.47
7191.96
6429.93
5697.96
4979.66
4290.37
3630.36
2984.11
2041.07
526.712
147.187
170.131
110.12
70.073
16.3266
3.53552
4.61615
4.61615
4.08608
4.08973
3.96552
3.83121
3.71099
3.57829
3.44983
3.32022
)
;
    }
    procBoundary1to3
    {
        type            processor;
        value           nonuniform List<scalar> 
23
(
3.18773
3.18607
3.18433
3.18247
3.17914
3.17359
3.16641
3.15699
3.1451
3.13023
3.11195
3.09136
3.05131
3.01984
3.00258
2.88161
2.7922
2.5452
2.32652
2.37675
3.1733
23.0297
116.362
)
;
    }
}


// ************************************************************************* //
