/*--------------------------------*- C++ -*----------------------------------*\
| =========                 |                                                 |
| \\      /  F ield         | OpenFOAM: The Open Source CFD Toolbox           |
|  \\    /   O peration     | Version:  2.4.0                                 |
|   \\  /    A nd           | Web:      www.OpenFOAM.org                      |
|    \\/     M anipulation  |                                                 |
\*---------------------------------------------------------------------------*/
FoamFile
{
    version     2.0;
    format      ascii;
    class       surfaceScalarField;
    location    "0.55";
    object      phi;
}
// * * * * * * * * * * * * * * * * * * * * * * * * * * * * * * * * * * * * * //

dimensions      [0 3 -1 0 0 0 0];

internalField   nonuniform List<scalar> 
1061
(
2.86476e-07
8.53863e-07
4.06513e-06
6.94361e-06
9.49468e-06
1.02595e-05
1.01176e-05
1.01561e-05
-1.72556e-05
1.72556e-05
-9.87285e-06
-7.38276e-06
8.13083e-06
-1.80037e-05
1.78982e-05
-9.76732e-06
2.16785e-05
-3.78031e-06
2.73304e-05
-5.65188e-06
3.54941e-05
-8.16372e-06
4.17104e-05
-6.21628e-06
4.34695e-05
-1.75912e-06
4.32884e-05
1.81114e-07
4.47378e-05
-1.44937e-06
5.2166e-05
-7.42821e-06
5.85376e-05
-6.37171e-06
5.27648e-05
5.77282e-06
3.39315e-05
1.88332e-05
1.51005e-05
1.8831e-05
1.64279e-06
1.34576e-05
3.15502e-06
-1.51227e-06
3.15499e-06
-1.1268e-05
2.85236e-05
1.22167e-06
-1.98724e-05
2.35412e-05
-4.03232e-05
3.80028e-05
-2.42289e-05
4.64822e-05
-1.22597e-05
5.4971e-05
-1.41407e-05
6.36607e-05
-1.68535e-05
6.94441e-05
-1.19996e-05
7.01241e-05
-2.43916e-06
6.6848e-05
3.45721e-06
6.54964e-05
-9.77645e-08
7.25954e-05
-1.45273e-05
8.42587e-05
-1.8035e-05
8.66956e-05
3.33592e-06
5.456e-05
5.09689e-05
2.0131e-05
5.32599e-05
1.48573e-05
1.87313e-05
1.79021e-05
-4.55703e-06
2.10571e-05
-3.63222e-06
3.21558e-05
1.19814e-05
-3.54861e-05
2.88839e-05
-5.72257e-05
4.41098e-05
-3.94548e-05
5.70563e-05
-2.52063e-05
6.57962e-05
-2.28805e-05
7.1039e-05
-2.20963e-05
7.53311e-05
-1.62917e-05
7.64374e-05
-3.54548e-06
7.33501e-05
6.54453e-06
7.16595e-05
1.59279e-06
7.66223e-05
-1.949e-05
8.72532e-05
-2.86659e-05
8.61168e-05
4.47233e-06
5.37653e-05
8.33204e-05
2.02159e-05
8.68093e-05
9.8881e-07
3.79584e-05
1.5845e-06
-5.15276e-06
2.26416e-05
7.9622e-06
2.41936e-05
2.24749e-05
-4.99989e-05
3.38099e-05
-6.85606e-05
4.59441e-05
-5.1589e-05
5.71187e-05
-3.6381e-05
6.5114e-05
-3.08757e-05
6.90828e-05
-2.60652e-05
7.064e-05
-1.78488e-05
7.18953e-05
-4.80082e-06
6.96439e-05
8.79594e-06
6.75575e-05
3.67917e-06
7.14577e-05
-2.33901e-05
7.79584e-05
-3.51667e-05
7.79938e-05
4.43689e-06
6.01569e-05
0.000101157
2.30251e-05
0.000123941
-9.25606e-06
7.02395e-05
-3.48881e-06
-1.092e-05
1.91528e-05
1.87209e-05
5.47267e-06
2.898e-05
-6.02579e-05
3.51531e-05
-7.47337e-05
4.39047e-05
-6.03406e-05
5.30892e-05
-4.55655e-05
5.9134e-05
-3.69205e-05
6.0498e-05
-2.74291e-05
6.12996e-05
-1.86505e-05
6.10896e-05
-4.59073e-06
5.98169e-05
1.00686e-05
6.03719e-05
3.12417e-06
6.69766e-05
-2.99947e-05
7.43705e-05
-4.25606e-05
7.49525e-05
3.85497e-06
6.41606e-05
0.000111949
3.32407e-05
0.000154861
-1.13758e-07
0.000103594
2.00727e-06
-1.3041e-05
2.116e-05
2.45197e-05
-1.90471e-05
3.24274e-05
-6.81656e-05
3.56102e-05
-7.79165e-05
4.16555e-05
-6.63859e-05
4.8979e-05
-5.2889e-05
5.45536e-05
-4.24951e-05
5.63723e-05
-2.92479e-05
5.55834e-05
-1.78615e-05
5.26163e-05
-1.62366e-06
5.34535e-05
9.23146e-06
5.49305e-05
1.64712e-06
5.92458e-05
-3.431e-05
6.15068e-05
-4.48216e-05
6.91145e-05
-3.75269e-06
6.22611e-05
0.000118803
3.36221e-05
0.0001835
-4.03772e-06
0.000141254
4.31838e-06
-2.13971e-05
2.54784e-05
2.53472e-05
-4.43943e-05
3.34685e-05
-7.62869e-05
3.62964e-05
-8.07444e-05
4.03617e-05
-7.04512e-05
4.67831e-05
-5.93104e-05
5.18285e-05
-4.75405e-05
5.32435e-05
-3.06628e-05
4.88004e-05
-1.34184e-05
4.48822e-05
2.29462e-06
4.77184e-05
6.39524e-06
4.81124e-05
1.25315e-06
4.22177e-05
-2.84153e-05
2.42627e-05
-2.68665e-05
2.27151e-05
-2.20472e-06
6.09291e-05
8.05888e-05
4.46872e-05
0.000199741
-1.74059e-06
0.00018768
4.67598e-06
-2.78137e-05
3.01544e-05
2.61374e-05
-7.05317e-05
3.40206e-05
-8.417e-05
3.64528e-05
-8.31767e-05
4.09331e-05
-7.49315e-05
4.72553e-05
-6.56326e-05
5.10582e-05
-5.13434e-05
5.19522e-05
-3.15568e-05
4.5838e-05
-7.30424e-06
4.47616e-05
3.37107e-06
4.71202e-05
4.03666e-06
4.35561e-05
4.81721e-06
2.73703e-05
-1.22294e-05
1.57743e-06
-1.07365e-06
-5.09703e-05
5.03431e-05
-3.54969e-05
6.51159e-05
3.80326e-05
0.000126213
-7.79608e-06
0.000233508
-1.09563e-05
-2.46534e-05
1.9198e-05
-7.73513e-06
2.33949e-05
-2.23728e-05
1.9329e-05
-3.00786e-05
6.59236e-05
-3.66961e-05
0.000120086
-4.40886e-05
0.000106422
-4.77059e-05
7.62513e-05
-5.34373e-05
2.53394e-05
-6.31322e-06
2.94898e-05
-6.09491e-06
3.60263e-05
-6.53647e-06
4.5872e-05
-9.84578e-06
-1.41844e-05
6.00564e-05
2.7947e-05
-1.4713e-05
3.81213e-05
-1.67107e-05
4.99768e-05
-2.17013e-05
-2.69512e-05
6.27436e-05
7.27444e-05
-2.15337e-05
8.06692e-05
-2.46356e-05
8.89021e-05
-2.99342e-05
-3.34669e-05
9.54178e-05
0.000123079
-2.45263e-05
0.000125734
-2.72904e-05
0.000127191
-3.13914e-05
-3.48521e-05
0.000128576
0.000108316
-2.642e-05
0.000109867
-2.88412e-05
0.000110839
-3.2363e-05
-3.63531e-05
0.00011234
7.70268e-05
-2.71956e-05
7.81241e-05
-2.99385e-05
7.86322e-05
-3.28711e-05
-3.42791e-05
7.65582e-05
2.94762e-05
-3.13324e-05
3.77177e-05
-3.818e-05
4.52382e-05
-4.03915e-05
-2.95906e-05
4.05497e-05
-1.2567e-05
-2.50785e-05
-2.43408e-05
-2.6406e-05
-3.60141e-05
-2.87181e-05
-3.2495e-05
-3.31097e-05
5.44003e-05
-3.08205e-05
6.16307e-05
-3.36365e-05
6.95861e-05
-3.66734e-05
-3.78266e-05
7.49177e-05
6.67518e-05
-2.68395e-05
6.12838e-05
-2.81682e-05
5.45189e-05
-2.99085e-05
-3.11899e-05
4.78823e-05
1.60847e-05
-2.31489e-05
1.25703e-05
-2.46539e-05
8.65024e-06
-2.59883e-05
-2.72556e-05
4.71602e-06
1.30799e-05
-1.88173e-05
8.50278e-06
-2.00766e-05
3.3538e-06
-2.08393e-05
-2.14911e-05
-2.41062e-06
-1.30504e-05
-1.75924e-05
-1.44294e-05
-1.86976e-05
-1.62049e-05
-1.90636e-05
-1.94734e-05
-1.82225e-05
-1.41068e-05
-1.63371e-05
-1.59177e-05
-1.68865e-05
-1.78347e-05
-1.71466e-05
-1.7508e-05
-1.98e-05
-1.70239e-05
-1.52976e-05
-1.83365e-05
-1.5574e-05
-1.95924e-05
-1.58905e-05
-1.62702e-05
-2.08301e-05
-1.72735e-05
-1.44149e-05
-1.8344e-05
-1.45034e-05
-1.94606e-05
-1.47739e-05
-1.50787e-05
-2.0652e-05
-1.81268e-05
-1.88339e-05
-1.96437e-05
-2.06545e-05
6.44096e-05
-7.48849e-05
7.10644e-05
-9.08248e-05
8.28078e-05
-9.49201e-05
9.33522e-05
-8.5476e-05
9.99712e-05
-7.22516e-05
9.90049e-05
-5.03772e-05
9.2844e-05
-2.53959e-05
9.30411e-05
-7.50132e-06
9.08606e-05
5.55159e-06
8.31863e-05
1.17111e-05
7.06433e-05
1.73602e-05
4.4747e-05
1.36668e-05
3.33114e-05
1.0362e-05
6.88427e-05
1.48119e-05
7.11711e-05
6.27876e-05
0.000121298
7.60861e-05
3.53179e-05
0.00031949
-9.6796e-07
1.16327e-05
1.82301e-05
7.12887e-05
-8.343e-05
8.12103e-05
-0.000100746
8.7117e-05
-0.000100827
9.24765e-05
-9.08354e-05
9.21781e-05
-7.19533e-05
8.86178e-05
-4.68168e-05
8.72128e-05
-2.39909e-05
8.68294e-05
-7.118e-06
9.0123e-05
2.25806e-06
9.76234e-05
4.21063e-06
0.000106158
8.82553e-06
0.00010084
1.89852e-05
8.31955e-05
2.80063e-05
8.03861e-05
1.76213e-05
8.81075e-05
5.50661e-05
9.92484e-05
6.49453e-05
0.000191313
0.000227425
5.90257e-05
0.00014392
7.72558e-05
0.000106962
-9.49738e-05
0.000114356
-0.000108141
0.000117912
-0.000104383
0.000115882
-8.88059e-05
0.000112447
-6.85179e-05
0.000110657
-4.50267e-05
0.000112349
-2.56828e-05
0.000115214
-9.98341e-06
0.000121583
-4.11081e-06
0.000128037
-2.24351e-06
0.000132949
3.91375e-06
0.000138614
1.33202e-05
0.000141596
2.50236e-05
0.000115252
4.39653e-05
9.8148e-05
7.21705e-05
6.87055e-05
9.43878e-05
0.000135063
0.000161068
8.28612e-05
0.000196122
0.000160117
0.000129328
-9.57251e-05
0.000129756
-0.000108569
0.000136606
-0.000111233
0.000138649
-9.08491e-05
0.000131211
-6.108e-05
0.000124713
-3.85282e-05
0.000123784
-2.4754e-05
0.000126166
-1.23657e-05
0.000132817
-1.07612e-05
0.000137128
-6.55524e-06
0.00014207
-1.02745e-06
0.000145499
9.89075e-06
0.000139931
3.05914e-05
0.000133942
4.9955e-05
0.000128182
7.79301e-05
0.000107102
0.000115468
0.000102208
0.000165962
7.46009e-05
0.000223729
0.000234718
0.000116034
-9.94193e-05
0.000116673
-0.000109208
0.000123599
-0.000118159
0.000124098
-9.13481e-05
0.000107527
-4.45083e-05
9.12e-05
-2.22016e-05
8.71863e-05
-2.07403e-05
0.000103971
-2.915e-05
0.000118459
-2.52491e-05
0.000135665
-2.37617e-05
0.000157481
-2.28433e-05
0.000177657
-1.02854e-05
0.000172859
3.5389e-05
0.000135179
8.76356e-05
0.000142144
7.09651e-05
0.00012528
0.000132332
9.68079e-05
0.000194434
5.66086e-05
0.000263928
0.000291326
7.98795e-05
-0.000102741
8.44883e-05
-0.000113817
8.35779e-05
-0.000117248
8.84768e-05
-9.62471e-05
9.04931e-05
-4.65244e-05
0.000105716
-3.74248e-05
0.000107856
-2.28801e-05
0.000155451
-7.67442e-05
0.000191767
-6.15654e-05
0.000204364
-3.63586e-05
0.000209851
-2.8331e-05
0.000172053
2.75124e-05
0.000148612
5.88302e-05
0.000134999
0.000101248
0.000139261
6.67027e-05
0.000125446
0.000146146
9.5685e-05
0.000224195
4.69682e-05
0.000312645
0.000338294
2.66911e-05
-8.8882e-05
2.16531e-06
-8.92911e-05
-1.94488e-06
-0.000113138
1.98177e-05
-0.000118009
8.38463e-05
-0.000110553
0.000169506
-0.000123084
0.000299447
-0.000152821
0.000387618
-0.000164916
0.000416621
-9.05684e-05
0.000409815
-2.95527e-05
0.0003788
2.68361e-06
0.00036888
3.7432e-05
0.000341367
8.63435e-05
0.000259832
0.000182783
0.000148842
0.000177693
0.00012064
0.000174348
9.0433e-05
0.000254402
4.39706e-05
0.000359107
0.000382265
-5.97216e-06
-0.00011602
2.857e-05
-0.000123833
4.36356e-05
-0.000128203
5.38028e-05
-0.000128177
7.22395e-05
-0.00012899
9.00451e-05
-0.00014089
0.000107339
-0.000170115
1.90056e-05
-7.65821e-05
-4.32561e-05
-2.83067e-05
-5.44635e-05
-1.83455e-05
-3.94759e-05
-1.23039e-05
-5.60532e-06
3.56146e-06
4.44588e-05
3.62796e-05
0.000132938
9.43038e-05
0.000132826
0.000177805
9.92728e-05
0.000207901
7.81443e-05
0.000275531
4.44816e-05
0.00039277
0.000426747
6.09483e-05
-0.00010205
4.51365e-05
-0.000108021
2.42608e-05
-0.000107328
2.79526e-06
-0.000106711
-1.27723e-05
-0.000113422
-2.12218e-05
-0.00013244
-8.8096e-05
-0.000103241
-0.00012154
-4.31379e-05
-0.000112124
-3.77228e-05
-9.642e-05
-3.40497e-05
-7.73025e-05
-3.14215e-05
-5.27374e-05
-2.10036e-05
-2.08379e-05
4.38005e-06
2.69789e-05
4.6487e-05
6.94681e-05
0.000135316
6.58575e-05
0.000211512
4.6296e-05
0.000295092
2.36755e-05
0.00041539
0.000450422
2.66439e-05
-8.08116e-05
-6.89602e-07
-8.06878e-05
-2.63443e-05
-8.16728e-05
-4.7917e-05
-8.51382e-05
-6.92848e-05
-9.2054e-05
-0.000108391
-9.33345e-05
-0.000140679
-7.09527e-05
-0.00013132
-5.24971e-05
-0.00012932
-3.9722e-05
-0.000122977
-4.03929e-05
-0.000114915
-3.94841e-05
-0.000100786
-3.51324e-05
-8.13406e-05
-1.5065e-05
-5.49682e-05
2.01145e-05
-1.29986e-05
9.3346e-05
8.14152e-06
0.000190372
-6.00582e-06
0.000309239
-6.25965e-06
0.000415644
0.000444162
-9.93742e-06
-6.6158e-05
-2.49352e-05
-6.56899e-05
-4.01316e-05
-6.64763e-05
-5.90662e-05
-6.62036e-05
-8.38481e-05
-6.72721e-05
-0.000124804
-5.2379e-05
-0.000161825
-3.39319e-05
-0.000155635
-5.86869e-05
-0.000144214
-5.11427e-05
-0.000142692
-4.19154e-05
-0.000142013
-4.01625e-05
-0.000141476
-3.56699e-05
-0.000137361
-1.91797e-05
-0.000126157
8.91086e-06
-9.7639e-05
6.48276e-05
-6.96661e-05
0.000162399
-5.8164e-05
0.000297737
-3.16801e-05
0.00038916
0.000412482
-1.7181e-05
-5.13875e-05
-2.92368e-05
-5.36341e-05
-4.0651e-05
-5.5062e-05
-5.33399e-05
-5.35146e-05
-7.03415e-05
-5.02704e-05
-8.77302e-05
-3.49904e-05
-0.000109688
-1.19739e-05
-0.000156868
-1.15073e-05
-0.000158862
-4.91488e-05
-0.00015148
-4.92977e-05
-0.000156473
-3.51695e-05
-0.00016709
-2.50521e-05
-0.000177185
-9.0852e-06
-0.000181178
1.29037e-05
-0.000169145
5.27946e-05
-0.000145086
0.000138341
-0.000110852
0.000263503
-6.28869e-05
0.000341195
0.000349595
-2.34485e-05
-4.61614e-05
-2.94474e-05
-4.7635e-05
-3.6568e-05
-4.79414e-05
-4.51491e-05
-4.49334e-05
-5.57555e-05
-3.9664e-05
-6.27704e-05
-2.79755e-05
-6.58865e-05
-8.85777e-06
-9.16653e-05
1.42714e-05
-0.000147797
6.98304e-06
-0.000166491
-3.06037e-05
-0.000167573
-3.40883e-05
-0.000177643
-1.49813e-05
-0.000193034
6.30498e-06
-0.00020829
2.81599e-05
-0.000212366
5.68711e-05
-0.000194039
0.000120013
-0.000147243
0.000216707
-8.07539e-05
0.000274706
0.000268841
-2.4287e-05
-4.16743e-05
-2.93989e-05
-4.2523e-05
-3.55729e-05
-4.17673e-05
-4.16196e-05
-3.88866e-05
-4.72333e-05
-3.40502e-05
-5.03369e-05
-2.48718e-05
-4.7971e-05
-1.12236e-05
-4.06526e-05
6.95291e-06
-6.72218e-05
3.35521e-05
-0.000140012
4.21859e-05
-0.000183156
9.0559e-06
-0.000177912
-2.0225e-05
-0.000188003
1.63958e-05
-0.000205946
4.61028e-05
-0.000221046
7.19716e-05
-0.000210243
0.00010921
-0.000161146
0.00016761
-8.72996e-05
0.000200859
0.000181542
-2.38691e-05
-3.86351e-05
-2.71597e-05
-3.92324e-05
-3.13611e-05
-3.75657e-05
-3.55852e-05
-3.46626e-05
-3.92807e-05
-3.03546e-05
-4.05551e-05
-2.35973e-05
-3.78661e-05
-1.39125e-05
-2.90891e-05
-1.82417e-06
-1.70208e-05
2.14839e-05
-3.32963e-05
5.84612e-05
-0.000125138
0.000100898
-0.000184801
3.94375e-05
-0.000181294
1.28895e-05
-0.000188813
5.36212e-05
-0.000206502
8.96602e-05
-0.000206335
0.000109044
-0.000166609
0.000127884
-8.21174e-05
0.000116367
9.94245e-05
-2.38003e-05
-3.54868e-05
-2.73155e-05
-3.57171e-05
-3.0783e-05
-3.40982e-05
-3.3395e-05
-3.20504e-05
-3.47174e-05
-2.90322e-05
-3.41532e-05
-2.41614e-05
-3.00692e-05
-1.79966e-05
-2.08718e-05
-1.10214e-05
-4.01195e-06
4.62387e-06
1.93715e-05
3.50777e-05
-1.09779e-05
0.000131247
-0.00011217
0.00014063
-0.000165604
6.63233e-05
-0.000182427
7.04439e-05
-0.000185681
9.29142e-05
-0.000192239
0.000115602
-0.0001453
8.09446e-05
-6.16297e-05
3.26974e-05
3.77948e-05
-2.29237e-05
-2.5468e-05
-2.76834e-05
-2.93718e-05
-3.01339e-05
-2.91314e-05
-2.47821e-05
-1.5677e-05
1.14771e-07
2.50342e-05
3.89163e-05
-5.17672e-05
-0.000132057
-0.000177211
-0.000180233
-0.000147694
-9.77625e-05
-5.94264e-05
)
;

boundaryField
{
    leftWall
    {
        type            calculated;
        value           nonuniform 0();
    }
    rightWall
    {
        type            calculated;
        value           uniform 0;
    }
    lowerWall
    {
        type            calculated;
        value           nonuniform List<scalar> 
40
(
-2.31236e-22
0
0
0
0
0
0
0
0
-1.90507e-23
3.03716e-23
-1.10904e-22
-3.76207e-23
0
0
0
0
0
0
0
0
-2.70292e-23
-2.67296e-22
9.75407e-23
1.86746e-23
-3.79463e-22
1.78632e-22
-4.03251e-23
1.70192e-22
1.31729e-22
1.41241e-22
-2.73978e-22
-2.27475e-22
1.77172e-22
2.26374e-22
-4.32785e-22
-9.42727e-23
-1.81666e-22
-3.40479e-22
5.41286e-23
)
;
    }
    atmosphere
    {
        type            calculated;
        value           nonuniform 0();
    }
    defaultFaces
    {
        type            empty;
        value           nonuniform 0();
    }
    procBoundary1to0
    {
        type            processor;
        value           nonuniform List<scalar> 
26
(
-2.86474e-07
-5.67387e-07
-3.21126e-06
-2.87848e-06
-2.55107e-06
-7.64869e-07
1.419e-07
-3.84349e-08
-5.50366e-06
-4.69134e-06
-5.82178e-05
-0.000113469
-9.90299e-05
-7.2634e-05
-1.96079e-05
6.00174e-06
-5.31258e-05
-4.86583e-05
-7.07326e-05
-1.97753e-05
-1.74114e-05
1.18255e-05
1.28515e-05
1.59845e-05
1.63909e-05
1.7405e-05
)
;
    }
    procBoundary1to3
    {
        type            processor;
        value           nonuniform List<scalar> 
23
(
-1.3693e-05
-1.37964e-05
-1.3964e-05
-1.40679e-05
-3.32174e-05
-3.31729e-05
-3.18827e-05
-3.0362e-05
-2.827e-05
-2.51639e-05
-2.23457e-05
-2.01266e-05
-1.11678e-05
1.01581e-05
0.000117365
0.000231313
0.000146613
0.000115597
9.59363e-05
8.30631e-05
3.10129e-05
-5.63866e-06
-2.16316e-05
)
;
    }
}


// ************************************************************************* //
