/*--------------------------------*- C++ -*----------------------------------*\
| =========                 |                                                 |
| \\      /  F ield         | OpenFOAM: The Open Source CFD Toolbox           |
|  \\    /   O peration     | Version:  2.4.0                                 |
|   \\  /    A nd           | Web:      www.OpenFOAM.org                      |
|    \\/     M anipulation  |                                                 |
\*---------------------------------------------------------------------------*/
FoamFile
{
    version     2.0;
    format      ascii;
    class       surfaceScalarField;
    location    "0.55";
    object      phi.water;
}
// * * * * * * * * * * * * * * * * * * * * * * * * * * * * * * * * * * * * * //

dimensions      [0 3 -1 0 0 0 0];

internalField   nonuniform List<scalar> 
1061
(
2.8668e-07
8.54515e-07
4.06716e-06
6.94935e-06
9.50646e-06
1.02925e-05
1.01668e-05
1.4015e-05
-8.27353e-06
-3.04378e-05
-8.31773e-07
-5.64943e-05
1.18809e-05
-6.70182e-05
1.91895e-05
-5.94075e-05
2.43087e-05
-5.37386e-05
3.08287e-05
-5.58819e-05
3.76107e-05
-5.80488e-05
4.23471e-05
-5.52705e-05
4.38875e-05
-5.00876e-05
4.4201e-05
-4.65384e-05
4.60751e-05
-4.5964e-05
5.02553e-05
-4.97382e-05
5.04696e-05
-4.80463e-05
4.78224e-05
-3.00167e-05
3.50433e-05
-1.08564e-05
1.3828e-05
1.13272e-05
-6.94996e-07
4.04029e-05
1.72387e-06
1.92627e-05
1.05363e-05
-3.06373e-06
-1.3854e-05
8.91996e-06
-6.25901e-05
2.55733e-05
-7.99937e-05
3.74654e-05
-6.62114e-05
4.68322e-05
-5.54272e-05
5.56866e-05
-5.77369e-05
6.28034e-05
-6.08824e-05
6.75574e-05
-5.71646e-05
6.8919e-05
-4.88315e-05
6.72611e-05
-4.35402e-05
6.64419e-05
-4.54538e-05
7.10838e-05
-5.90234e-05
7.71464e-05
-6.74228e-05
6.09648e-05
-4.90045e-05
3.9761e-05
5.47216e-06
9.58947e-06
3.16895e-05
4.26576e-06
1.91944e-05
1.34421e-05
4.02346e-05
3.39536e-05
2.87153e-06
-1.2903e-05
1.67071e-05
-7.15711e-05
2.94483e-05
-8.71157e-05
4.15002e-05
-7.21251e-05
5.31824e-05
-6.05945e-05
6.15089e-05
-5.93975e-05
6.66343e-05
-5.86158e-05
7.05884e-05
-5.34348e-05
7.22459e-05
-4.33124e-05
7.08969e-05
-3.70462e-05
6.93232e-05
-3.90455e-05
7.16699e-05
-4.99582e-05
7.83279e-05
-5.87191e-05
6.49863e-05
-4.76478e-05
3.63775e-05
5.53022e-06
1.23125e-05
1.88435e-05
-3.67406e-06
5.58939e-07
-4.19833e-06
8.9985e-06
3.89967e-05
1.24407e-05
-1.74388e-05
2.41919e-05
-6.12447e-05
3.30051e-05
-7.56113e-05
4.28929e-05
-7.62125e-05
5.30239e-05
-6.67207e-05
6.08671e-05
-6.3346e-05
6.4924e-05
-5.96966e-05
6.70087e-05
-5.33965e-05
6.85506e-05
-4.30156e-05
6.69309e-05
-3.4734e-05
6.22519e-05
-3.47813e-05
6.58776e-05
-4.28643e-05
6.95944e-05
-5.65196e-05
7.29981e-05
-4.92462e-05
3.79298e-05
1.55022e-05
2.01696e-05
5.1854e-05
-6.51825e-06
2.48533e-05
-1.82548e-05
-1.38098e-05
3.17272e-05
1.92827e-05
-2.46054e-05
2.9624e-05
-4.44581e-05
3.2638e-05
-4.9313e-05
4.13104e-05
-3.43829e-05
4.99104e-05
-2.75638e-05
5.56799e-05
-2.74031e-05
5.73268e-05
-3.08101e-05
5.80585e-05
-4.17971e-05
5.81886e-05
-4.05245e-05
5.12418e-05
-3.10787e-05
4.93401e-05
-2.74259e-05
6.30095e-05
-3.24809e-05
6.43201e-05
-5.8895e-05
6.09248e-05
-8.09451e-05
4.44655e-05
1.42556e-05
3.03851e-05
7.64537e-05
4.86493e-06
3.69571e-05
-1.12112e-05
-1.85094e-05
2.97895e-05
1.96286e-05
-1.49535e-05
3.35692e-05
-6.60538e-05
3.73692e-05
-6.5748e-05
4.33262e-05
-4.99922e-05
4.92084e-05
-3.4625e-05
5.25853e-05
-2.52787e-05
5.11282e-05
-1.73212e-05
5.15586e-05
-9.78041e-06
5.14658e-05
-1.39614e-05
4.1761e-05
-1.96966e-05
4.57954e-05
-1.58026e-05
5.61468e-05
-3.0016e-05
5.06752e-05
-7.14621e-05
4.88542e-05
-0.000114144
4.76856e-05
1.41334e-05
1.99585e-05
7.84804e-05
-9.94519e-06
3.23389e-06
-1.09638e-05
-4.01048e-05
3.13042e-05
2.46686e-05
-2.20712e-05
3.50216e-05
-5.70805e-05
3.81882e-05
-5.84808e-05
4.25248e-05
-4.55928e-05
4.95949e-05
-3.62489e-05
5.54657e-05
-2.48185e-05
5.71136e-05
-1.12697e-05
4.7606e-05
1.63512e-06
4.63189e-05
1.87672e-06
4.44593e-05
-2.05605e-06
4.25174e-05
2.93488e-06
4.44842e-05
-2.05535e-05
4.16272e-05
-6.95148e-05
3.80573e-05
-0.0001095
5.53411e-05
6.46239e-06
1.64066e-05
9.49862e-05
-2.56012e-06
-3.81219e-05
2.2966e-06
-7.25785e-05
3.50979e-05
2.58153e-05
-5.59436e-05
3.60407e-05
-5.87875e-05
3.77779e-05
-5.84501e-05
4.20273e-05
-5.36875e-05
4.86292e-05
-4.63997e-05
5.28929e-05
-3.59262e-05
5.3734e-05
-1.89409e-05
4.69768e-05
-2.20199e-06
4.52075e-05
1.54962e-05
4.63952e-05
2.2569e-05
4.19121e-05
2.20073e-05
3.30401e-05
-6.92568e-06
3.56883e-05
-4.09381e-05
2.71666e-05
-8.81532e-05
5.96625e-05
-4.30869e-05
3.19348e-05
1.42883e-05
3.60209e-05
-5.94857e-05
2.81619e-05
-7.24695e-05
2.41579e-05
1.38941e-05
2.4369e-05
-1.56665e-06
2.21969e-05
-2.63247e-05
6.74829e-05
-3.6841e-05
0.000120111
-4.86046e-05
0.000107591
-7.62722e-05
7.77167e-05
-7.55245e-05
1.61575e-05
1.57555e-07
3.2064e-05
6.30352e-06
4.2992e-05
5.91184e-06
5.74694e-05
1.34155e-06
-3.78208e-06
7.39368e-05
3.12514e-05
-5.32295e-06
4.27365e-05
-7.65199e-06
5.51639e-05
-1.32515e-05
-1.92266e-05
6.79503e-05
7.46222e-05
-1.99573e-05
8.23876e-05
-2.31648e-05
9.01824e-05
-2.8695e-05
-3.25469e-05
9.65794e-05
0.000123227
-2.47083e-05
0.000125958
-2.7654e-05
0.000127595
-3.19579e-05
-3.56347e-05
0.00012922
0.000110054
-2.94176e-05
0.000111608
-3.29537e-05
0.000112876
-3.75894e-05
-4.25204e-05
0.00011466
7.77057e-05
-4.54243e-05
7.73638e-05
-5.1696e-05
7.65372e-05
-5.78017e-05
-6.32962e-05
7.21869e-05
2.2335e-05
-3.44971e-05
2.80496e-05
-3.67711e-05
3.20339e-05
-3.65308e-05
-4.12469e-05
3.82006e-05
-4.05457e-06
-1.55809e-05
-1.50489e-05
-1.11302e-05
-2.93111e-05
-1.06463e-05
-1.81987e-05
-3.17403e-05
5.43626e-05
-3.0905e-05
6.15805e-05
-3.37694e-05
6.95462e-05
-3.67947e-05
-3.79066e-05
7.48899e-05
6.67423e-05
-2.68367e-05
6.12736e-05
-2.81646e-05
5.45055e-05
-2.9905e-05
-3.11862e-05
4.78651e-05
1.60771e-05
-2.3146e-05
1.25602e-05
-2.46509e-05
8.63746e-06
-2.59848e-05
-2.72519e-05
4.69982e-06
1.30731e-05
-1.88141e-05
8.49464e-06
-2.00731e-05
3.3427e-06
-2.08357e-05
-2.14873e-05
-2.42448e-06
-1.30568e-05
-1.75892e-05
-1.44376e-05
-1.86944e-05
-1.62151e-05
-1.90601e-05
-1.94696e-05
-1.82342e-05
-1.4113e-05
-1.63339e-05
-1.59247e-05
-1.68831e-05
-1.78433e-05
-1.71431e-05
-1.75042e-05
-1.98099e-05
-1.70293e-05
-1.52946e-05
-1.83428e-05
-1.55709e-05
-1.95999e-05
-1.58871e-05
-1.62664e-05
-2.0838e-05
-1.72784e-05
-1.44118e-05
-1.83493e-05
-1.45001e-05
-1.94663e-05
-1.47702e-05
-1.50748e-05
-2.06583e-05
-1.81308e-05
-1.8838e-05
-1.96486e-05
-2.06594e-05
6.73257e-05
-5.40919e-05
7.18643e-05
-7.02207e-05
8.28676e-05
-8.32315e-05
9.27239e-05
-8.18045e-05
9.9305e-05
-7.11696e-05
9.89353e-05
-5.2583e-05
9.35817e-05
-3.00379e-05
9.35428e-05
-1.35723e-05
9.20832e-05
-3.95166e-07
8.58873e-05
4.76238e-06
7.49742e-05
9.53304e-06
5.02524e-05
8.23676e-06
5.52082e-05
1.31576e-05
7.92727e-05
-1.44909e-05
8.0212e-05
-3.2157e-05
0.000110636
-5.26109e-05
0.000115601
-7.42529e-05
0.000135507
-6.8515e-05
2.48358e-05
7.29072e-05
-7.31614e-05
8.15236e-05
-9.64448e-05
8.70942e-05
-9.89889e-05
9.24712e-05
-9.16611e-05
9.28011e-05
-7.59179e-05
8.97704e-05
-5.32356e-05
8.85192e-05
-3.11709e-05
8.83219e-05
-1.38328e-05
9.19151e-05
-5.09557e-06
9.99722e-05
-4.1485e-06
0.000109295
-6.9013e-07
0.000103839
9.62662e-06
8.29079e-05
1.94792e-05
8.9933e-05
2.2067e-05
0.000112691
4.2538e-05
0.000163359
2.04985e-05
0.000217171
-1.26333e-07
0.000180309
-1.45138e-05
6.84867e-05
0.000107493
-9.37107e-05
0.000114607
-0.000109921
0.000118173
-0.000109825
0.000116242
-9.85736e-05
0.000112719
-8.17786e-05
0.000111051
-5.89839e-05
0.000113127
-3.83981e-05
0.000116218
-2.03287e-05
0.000122709
-1.44355e-05
0.000129444
-1.27051e-05
0.000134602
-6.14979e-06
0.000140945
4.19809e-06
0.000144365
1.53941e-05
0.000120413
3.47596e-05
0.00011197
6.56467e-05
0.000118817
8.74581e-05
0.000161685
0.000107314
0.000142932
8.98885e-05
0.00013388
0.000130788
-9.90025e-05
0.000131523
-0.000117768
0.000138317
-0.000135305
0.000140709
-0.000146758
0.000135988
-0.000148313
0.00012973
-0.000123207
0.000127121
-8.9488e-05
0.000128434
-6.2494e-05
0.000135026
-5.83898e-05
0.000139471
-4.71893e-05
0.000144484
-3.72538e-05
0.000147683
-2.46939e-05
0.000143245
-5.07009e-07
0.000138626
2.96773e-05
0.000134123
6.19658e-05
0.000119116
0.000101861
0.000120246
0.000145786
9.18751e-05
0.000183643
0.000209821
0.000116972
-0.000120604
0.000118057
-0.00015784
0.000122278
-0.000195479
0.000124104
-0.00022051
0.000121552
-0.00018759
0.000110105
-0.000123817
0.000103914
-0.000114213
0.000114001
-0.000102857
0.000124639
-0.000126233
0.000137435
-0.00019409
0.000158071
-0.000205934
0.000179555
-0.000192942
0.000176701
-0.000120152
0.00014538
-5.80338e-05
0.000150218
1.44843e-05
0.000133411
0.000108596
0.00010957
0.000173974
6.85738e-05
0.000238411
0.000271998
5.89346e-05
-0.000173833
6.16341e-05
-0.000193422
8.2235e-05
-0.000119887
9.54751e-05
-0.000114033
0.000102012
-8.34367e-05
9.53165e-05
-3.47722e-05
7.86014e-05
-5.57383e-05
0.000100505
-7.81553e-05
0.000133536
-0.000103698
0.000167342
-0.000152874
0.000171603
-0.000150451
0.000176968
-0.000138631
0.000176194
-9.16337e-05
0.00018037
-4.87119e-05
0.000165206
1.45541e-07
0.000136513
0.000106649
0.000109295
0.000196584
6.1265e-05
0.000284723
0.000317289
4.93538e-05
-9.32553e-05
3.15411e-05
-9.62204e-05
3.67571e-06
-7.35216e-05
1.8918e-05
-0.000118685
8.24116e-05
-0.000110778
0.000146084
-0.000122077
0.000188861
-0.000132811
0.000174905
-0.000101523
0.000157883
-6.00983e-05
0.000106384
-3.74777e-05
3.82692e-05
-1.35889e-05
1.76834e-07
-9.39369e-06
1.84929e-05
3.54058e-06
9.9462e-05
1.90015e-05
0.000161262
4.06359e-05
0.000135291
0.000116137
0.000105469
0.000220642
5.98058e-05
0.000326381
0.000355919
-7.73365e-06
-0.000110437
2.83086e-05
-0.000124085
4.35842e-05
-0.000128196
5.3823e-05
-0.000128025
7.19659e-05
-0.000129025
3.88205e-05
-0.000139651
-7.30741e-05
-0.00011088
-9.56732e-05
-4.8489e-05
-7.56854e-05
-3.09135e-05
-5.30542e-05
-2.6541e-05
-4.83881e-05
-1.99521e-05
-2.15275e-05
-6.60235e-06
9.5131e-06
1.52219e-05
3.66907e-05
4.72973e-05
8.82293e-05
6.67284e-05
0.000108841
0.000128825
8.96984e-05
0.00023626
5.6871e-05
0.000357628
0.000398552
6.09309e-05
-0.000102092
4.50907e-05
-0.000108008
2.4029e-05
-0.000107239
2.32395e-06
-0.000106608
-1.43093e-05
-0.000113542
-0.000115419
-0.000128203
-0.000138429
-6.58517e-05
-0.000105215
-4.45476e-05
-0.00010968
-3.46013e-05
-9.78397e-05
-2.90949e-05
-7.86039e-05
-2.50395e-05
-5.12658e-05
-1.56725e-05
-2.71707e-05
3.93808e-06
-3.17777e-06
4.4068e-05
2.92096e-05
8.11072e-05
6.93592e-05
0.000131989
6.27948e-05
0.000254928
3.72074e-05
0.000385499
0.000425954
2.66154e-05
-8.0801e-05
-8.02305e-07
-8.06757e-05
-2.66542e-05
-8.16764e-05
-4.817e-05
-8.53662e-05
-7.178e-05
-9.2852e-05
-0.000155115
-9.01344e-05
-0.000140586
-5.15934e-05
-0.000135482
-3.92056e-05
-0.000130206
-3.45562e-05
-0.00012336
-3.53056e-05
-0.000115176
-3.54666e-05
-9.68185e-05
-3.225e-05
-5.40651e-05
-9.80452e-06
-4.87366e-05
3.60085e-05
-2.28982e-05
8.94849e-05
1.86472e-05
0.000152707
2.43782e-05
0.000280032
1.14478e-05
0.000393354
0.000423719
-9.96786e-06
-6.61476e-05
-2.49969e-05
-6.56869e-05
-4.02264e-05
-6.65178e-05
-5.91142e-05
-6.63164e-05
-8.54716e-05
-6.74054e-05
-0.000170701
-5.17638e-05
-0.000186222
-3.3973e-05
-0.000164573
-3.63935e-05
-0.000148374
-3.61848e-05
-0.000143122
-3.87315e-05
-0.000142336
-4.0049e-05
-0.000139666
-3.56134e-05
-8.36958e-05
-1.63101e-05
-9.93425e-05
2.98135e-05
-7.83303e-05
0.000101957
-3.88403e-05
0.000172301
-2.84817e-05
0.00028707
-1.33312e-05
0.000374576
0.000399958
-1.72013e-05
-5.13773e-05
-2.92637e-05
-5.36243e-05
-4.06825e-05
-5.50591e-05
-5.33724e-05
-5.35265e-05
-7.03532e-05
-5.03029e-05
-9.30283e-05
-3.4986e-05
-0.000169761
-1.25488e-05
-0.000189084
-1.62423e-05
-0.000170324
-2.66951e-05
-0.000157238
-2.77568e-05
-0.000155762
-2.88678e-05
-0.00015287
-2.47658e-05
-0.00015307
-5.46702e-06
-0.000128871
3.49018e-05
-0.000135877
0.000100114
-9.85105e-05
0.000173431
-7.77881e-05
0.000268775
-3.90467e-05
0.000341185
0.000354219
-2.34618e-05
-4.61508e-05
-2.94617e-05
-4.76218e-05
-3.65834e-05
-4.79257e-05
-4.51637e-05
-4.49176e-05
-5.5767e-05
-3.96467e-05
-6.278e-05
-2.79545e-05
-6.75625e-05
-8.82676e-06
-0.000151127
1.38097e-05
-0.000188559
3.24949e-06
-0.000175454
-8.70062e-06
-0.000172399
-9.69515e-06
-0.000195822
-6.46633e-06
-0.000163935
1.01183e-05
-0.000169863
3.36918e-05
-0.000164959
8.18592e-05
-0.000145962
0.0001572
-0.000110701
0.000242077
-5.97997e-05
0.000297601
0.000299752
-2.42976e-05
-4.16639e-05
-2.94097e-05
-4.25099e-05
-3.55837e-05
-4.17515e-05
-4.16293e-05
-3.88676e-05
-4.72414e-05
-3.40287e-05
-5.03408e-05
-2.4847e-05
-4.79695e-05
-1.11984e-05
-4.25928e-05
6.98053e-06
-0.000129445
3.3059e-05
-0.000190914
3.06282e-05
-0.000193301
1.39664e-05
-0.00018014
1.13916e-05
-0.000183378
2.2749e-05
-0.000167516
4.61923e-05
-0.000177907
6.2345e-05
-0.000163474
0.000124035
-0.000131728
0.000164178
-7.44063e-05
0.000210933
0.000202965
-2.38775e-05
-3.86248e-05
-2.71681e-05
-3.92198e-05
-3.13689e-05
-3.75504e-05
-3.55924e-05
-3.4645e-05
-3.92858e-05
-3.0334e-05
-4.05581e-05
-2.35752e-05
-3.78656e-05
-1.38897e-05
-2.90836e-05
-1.80088e-06
-1.84292e-05
2.15079e-05
-9.9514e-05
5.79928e-05
-0.00021041
7.85817e-05
-0.00020021
3.79871e-05
-0.000181086
3.57464e-05
-0.000183458
5.21953e-05
-0.000193424
8.61974e-05
-0.000210085
9.81214e-05
-0.000160926
0.000132477
-8.26823e-05
0.00013751
0.000123575
-2.38068e-05
-3.54766e-05
-2.73216e-05
-3.5705e-05
-3.0789e-05
-3.40844e-05
-3.33998e-05
-3.20341e-05
-3.47212e-05
-2.90143e-05
-3.41553e-05
-2.41415e-05
-3.00686e-05
-1.79762e-05
-2.08702e-05
-1.10027e-05
-3.98983e-06
4.64182e-06
1.89798e-05
3.50883e-05
-6.02761e-05
0.000131019
-0.000205691
0.00012298
-0.000178866
6.16907e-05
-0.000174797
6.16301e-05
-0.000183376
7.57146e-05
-0.000191033
8.6243e-05
-0.000149669
8.14702e-05
-6.49463e-05
4.42809e-05
4.55592e-05
-2.29287e-05
-2.54727e-05
-2.76873e-05
-2.93754e-05
-3.01361e-05
-2.91329e-05
-2.47823e-05
-1.56752e-05
1.29273e-07
2.51334e-05
3.88366e-05
-8.01864e-05
-0.000181172
-0.000183459
-0.000167416
-0.000140339
-9.35674e-05
-5.91311e-05
)
;

boundaryField
{
    leftWall
    {
        type            fixedValue;
        value           nonuniform 0();
    }
    rightWall
    {
        type            fixedValue;
        value           uniform 0;
    }
    lowerWall
    {
        type            fixedValue;
        value           uniform 0;
    }
    atmosphere
    {
        type            calculated;
        value           nonuniform 0();
    }
    defaultFaces
    {
        type            empty;
        value           nonuniform 0();
    }
    procBoundary1to0
    {
        type            processor;
        value           nonuniform List<scalar> 
26
(
-2.86432e-07
-5.67353e-07
-3.21122e-06
-2.87857e-06
-2.55051e-06
-7.6223e-07
1.55761e-07
-3.32845e-08
-3.94695e-06
-3.48105e-06
-5.89841e-05
-0.000113519
-9.95458e-05
-7.39826e-05
-9.67882e-06
5.64424e-06
-4.65165e-05
-4.86341e-05
-7.07242e-05
-1.97683e-05
-1.74055e-05
1.1831e-05
1.28566e-05
1.5989e-05
1.63948e-05
1.74082e-05
)
;
    }
    procBoundary1to3
    {
        type            processor;
        value           nonuniform List<scalar> 
23
(
-1.36898e-05
-1.3793e-05
-1.39605e-05
-1.40642e-05
-3.3208e-05
-3.31621e-05
-3.187e-05
-3.0348e-05
-2.82536e-05
-2.51465e-05
-2.23278e-05
-2.01086e-05
-1.11563e-05
1.01611e-05
0.000117346
0.000231336
0.000136056
9.1163e-05
7.6426e-05
6.43041e-05
-4.6959e-05
-5.04687e-05
-2.24511e-05
)
;
    }
}


// ************************************************************************* //
