/*--------------------------------*- C++ -*----------------------------------*\
| =========                 |                                                 |
| \\      /  F ield         | OpenFOAM: The Open Source CFD Toolbox           |
|  \\    /   O peration     | Version:  2.4.0                                 |
|   \\  /    A nd           | Web:      www.OpenFOAM.org                      |
|    \\/     M anipulation  |                                                 |
\*---------------------------------------------------------------------------*/
FoamFile
{
    version     2.0;
    format      ascii;
    class       surfaceScalarField;
    location    "0.55";
    object      phi.mercury;
}
// * * * * * * * * * * * * * * * * * * * * * * * * * * * * * * * * * * * * * //

dimensions      [0 3 -1 0 0 0 0];

internalField   nonuniform List<scalar> 
1061
(
2.86447e-07
8.53834e-07
4.0651e-06
6.94358e-06
9.49465e-06
1.02595e-05
1.01176e-05
1.01558e-05
6.81274e-07
-9.62994e-05
7.01084e-06
-0.000105777
1.51194e-05
-0.000109319
2.0322e-05
-0.00010382
2.65202e-05
-9.98835e-05
3.35269e-05
-0.000100486
3.91153e-05
-9.86823e-05
4.27786e-05
-9.25104e-05
4.41617e-05
-8.52611e-05
4.48009e-05
-7.93722e-05
4.73379e-05
-7.54569e-05
5.35271e-05
-7.61722e-05
5.76126e-05
-7.94324e-05
5.01257e-05
-7.51066e-05
3.09473e-05
-8.27818e-05
1.55302e-05
-9.6505e-05
6.66644e-06
-6.52995e-05
7.5911e-06
-3.29449e-05
-2.47662e-05
8.147e-06
-7.9607e-05
1.6561e-05
-0.000107606
2.73906e-05
-0.000113609
3.69557e-05
-0.000103187
4.71823e-05
-9.50297e-05
5.63583e-05
-9.71984e-05
6.2084e-05
-9.82803e-05
6.60559e-05
-9.34407e-05
6.80024e-05
-8.53676e-05
6.75827e-05
-7.9858e-05
6.7115e-05
-7.86875e-05
7.01669e-05
-8.82736e-05
7.66102e-05
-9.84646e-05
7.95112e-05
-9.14769e-05
6.42996e-05
-8.40962e-05
4.34312e-05
-0.000105943
2.74815e-05
-0.00012053
2.26343e-05
-8.23597e-05
2.61119e-06
1.02462e-05
-6.68431e-05
2.08312e-05
-0.000102676
2.99071e-05
-0.000108957
3.93492e-05
-9.62403e-05
4.99968e-05
-8.69313e-05
5.80789e-05
-8.61302e-05
6.32075e-05
-8.48273e-05
6.69247e-05
-7.99045e-05
6.89797e-05
-7.19868e-05
6.90106e-05
-7.00184e-05
6.79243e-05
-7.4263e-05
6.81281e-05
-8.91824e-05
7.16644e-05
-0.000107369
7.38197e-05
-0.000107681
7.04581e-05
-9.93915e-05
7.27352e-05
-0.000114084
5.13658e-05
-0.000140427
1.94985e-05
-0.000159802
3.97691e-06
1.64462e-05
-5.46155e-05
2.54134e-05
-9.9383e-05
3.24655e-05
-0.000105854
4.08215e-05
-9.44171e-05
5.02403e-05
-8.58285e-05
5.80083e-05
-8.35698e-05
6.21365e-05
-8.09207e-05
6.45557e-05
-7.65561e-05
6.62328e-05
-6.87816e-05
6.63891e-05
-6.65125e-05
6.46459e-05
-7.18084e-05
6.23315e-05
-9.40562e-05
6.15479e-05
-0.000118229
6.48939e-05
-0.00012634
6.66664e-05
-0.000113508
6.83645e-05
-0.000108686
6.50376e-05
-0.000128947
3.43085e-05
-0.000178319
2.86665e-06
2.1623e-05
-5.06251e-05
2.84465e-05
-9.71836e-05
3.34883e-05
-0.000102198
4.0361e-05
-9.25107e-05
4.8174e-05
-8.40584e-05
5.36652e-05
-8.04651e-05
5.53872e-05
-7.64189e-05
5.59545e-05
-7.27544e-05
5.66661e-05
-6.63482e-05
5.68841e-05
-6.56929e-05
5.68373e-05
-7.23684e-05
5.66755e-05
-9.85582e-05
5.72653e-05
-0.00013014
5.91859e-05
-0.000149912
6.23101e-05
-0.000133652
6.73833e-05
-0.000115175
7.27696e-05
-0.000140218
4.27677e-05
-0.000180359
3.92659e-06
2.49584e-05
-5.63204e-05
3.01701e-05
-9.45709e-05
3.40772e-05
-9.92732e-05
3.95283e-05
-9.29868e-05
4.57972e-05
-8.73467e-05
5.06904e-05
-8.42321e-05
5.268e-05
-7.92229e-05
5.25696e-05
-7.66231e-05
5.21819e-05
-7.19197e-05
5.39634e-05
-7.01968e-05
5.39937e-05
-7.70456e-05
5.15638e-05
-0.000103365
5.11156e-05
-0.000128051
5.1807e-05
-0.000148642
6.26345e-05
-0.000145267
7.72012e-05
-0.000122089
8.32435e-05
-0.0001594
4.92907e-05
-0.000167664
6.00641e-06
2.61842e-05
-6.6013e-05
3.17004e-05
-9.24195e-05
3.48369e-05
-0.000100854
3.88982e-05
-0.000100458
4.4465e-05
-9.92657e-05
4.86529e-05
-9.74933e-05
5.00225e-05
-9.37232e-05
4.84176e-05
-9.38997e-05
4.7631e-05
-8.74914e-05
4.99993e-05
-8.22202e-05
5.00709e-05
-8.74977e-05
4.83476e-05
-0.000107837
4.7067e-05
-0.00011906
4.80097e-05
-0.000136913
7.22144e-05
-0.000152675
9.33722e-05
-0.000155157
9.11801e-05
-0.000176072
5.32625e-05
-0.000142787
9.83491e-06
2.71195e-05
-7.68149e-05
3.25484e-05
-9.65509e-05
3.45145e-05
-0.000109531
3.91366e-05
-0.00011775
4.43674e-05
-0.000121558
4.76202e-05
-0.000123093
4.89266e-05
-0.000122239
4.82814e-05
-0.000125689
4.90328e-05
-0.000121785
5.18791e-05
-0.000121236
5.09466e-05
-0.000122045
4.6328e-05
-0.000124432
4.33498e-05
-0.000110325
4.83939e-05
-0.000120741
7.28333e-05
-0.000138419
9.68702e-05
-0.000193472
9.39476e-05
-0.000202745
5.43313e-05
-0.000139969
6.67055e-06
-8.86978e-06
2.33941e-05
-4.04796e-05
1.88938e-05
-7.01755e-05
5.81055e-05
-6.75857e-05
9.83368e-05
-3.88381e-05
0.00010431
-5.50845e-05
7.55678e-05
-0.000109736
2.11797e-05
-2.78914e-06
2.9486e-05
-7.08974e-06
3.60021e-05
-7.8118e-06
4.57696e-05
-1.1466e-05
-1.63725e-05
5.93877e-05
2.72925e-05
-2.38418e-05
3.68534e-05
-2.64425e-05
4.78486e-05
-3.25906e-05
-3.99589e-05
5.91196e-05
6.26475e-05
-3.92233e-05
6.96438e-05
-4.27574e-05
7.70727e-05
-4.83712e-05
-5.42196e-05
7.91834e-05
0.000103662
-3.67033e-05
0.000108038
-3.88289e-05
0.00011233
-4.14685e-05
-4.42315e-05
0.000116531
0.000107628
-2.29276e-05
0.000109592
-2.52232e-05
0.000111668
-2.84785e-05
-3.12739e-05
0.000113606
7.58378e-05
-3.27186e-05
7.60565e-05
-3.54158e-05
7.57329e-05
-3.83919e-05
-4.18244e-05
7.29604e-05
2.38658e-05
-6.05894e-05
2.67259e-05
-7.10327e-05
2.74613e-05
-7.7544e-05
-6.19841e-05
2.75441e-05
-8.60429e-06
-2.89277e-05
-2.12796e-05
-2.85713e-05
-3.51261e-05
-2.91297e-05
-3.24856e-05
-3.30176e-05
5.43819e-05
-3.08194e-05
6.16133e-05
-3.36334e-05
6.95718e-05
-3.66693e-05
-3.78239e-05
7.48999e-05
6.67423e-05
-2.68367e-05
6.12736e-05
-2.81646e-05
5.45055e-05
-2.9905e-05
-3.11863e-05
4.7865e-05
1.60771e-05
-2.3146e-05
1.25602e-05
-2.46509e-05
8.63745e-06
-2.59848e-05
-2.72519e-05
4.69966e-06
1.30731e-05
-1.8814e-05
8.49462e-06
-2.00731e-05
3.34264e-06
-2.08357e-05
-2.14872e-05
-2.42503e-06
-1.30568e-05
-1.75893e-05
-1.44376e-05
-1.86944e-05
-1.62151e-05
-1.90602e-05
-1.94697e-05
-1.82344e-05
-1.4113e-05
-1.63339e-05
-1.59247e-05
-1.68832e-05
-1.78434e-05
-1.71432e-05
-1.75043e-05
-1.981e-05
-1.70294e-05
-1.52946e-05
-1.83428e-05
-1.55709e-05
-1.95999e-05
-1.58871e-05
-1.62664e-05
-2.08381e-05
-1.72784e-05
-1.44118e-05
-1.83493e-05
-1.45001e-05
-1.94663e-05
-1.47702e-05
-1.50748e-05
-2.06583e-05
-1.81308e-05
-1.8838e-05
-1.96486e-05
-2.06594e-05
6.35391e-05
-8.60568e-05
6.90902e-05
-0.000117851
7.9397e-05
-0.000142906
8.95265e-05
-0.000156419
9.67532e-05
-0.000174141
0.000100002
-0.000177286
0.000102367
-0.000175984
0.000109226
-0.000179427
0.000121347
-0.00018428
0.000134827
-0.000196737
0.000141026
-0.000202143
0.000115458
-0.000192786
9.63436e-05
-0.000151728
0.000107234
-0.00010187
0.00012092
-0.000100164
0.000160951
-0.000118386
0.000214021
-0.000173378
0.000158535
-0.000122524
9.90263e-07
6.75259e-05
-0.000119375
7.89549e-05
-0.000154593
8.86759e-05
-0.000180062
9.90925e-05
-0.000191508
0.000111004
-0.000202495
0.000118989
-0.000193206
0.000127938
-0.00016925
0.000143294
-0.000143455
0.000166401
-0.000133666
0.000193193
-0.000139345
0.000211745
-0.000163908
0.000215179
-0.00020019
0.000169782
-0.00020211
0.000127866
-0.00014641
0.000138652
-9.13292e-05
0.000169834
-7.49853e-05
0.000194103
-8.75505e-05
0.000154473
-6.38664e-05
2.28698e-05
8.72929e-05
-0.00014173
0.000108253
-0.000160207
0.00012688
-0.000166325
0.000137524
-0.000169817
0.000142383
-0.000168829
0.000146047
-0.000156185
0.000148146
-0.000123208
0.000150028
-8.32279e-05
0.000157959
-7.02126e-05
0.000173771
-7.19035e-05
0.000194138
-0.000102498
0.000207398
-0.000150251
0.000196864
-0.000162032
0.000163802
-0.000161959
0.000142912
-0.000117087
0.000151952
-6.94693e-05
0.000170639
-4.90663e-05
0.000140115
-3.70267e-05
6.72148e-05
0.000125041
-0.000113148
0.000133794
-0.000127569
0.000144055
-0.000133245
0.000148754
-0.000132245
0.00014917
-0.000129853
0.000142851
-0.000110604
0.000134428
-8.45649e-05
0.000136298
-7.01299e-05
0.000145772
-7.39911e-05
0.000157274
-7.93185e-05
0.000170551
-0.000113794
0.000178515
-0.000120761
0.000176463
-0.000119567
0.00015755
-0.000117539
0.000155774
-0.000110228
0.00015804
-6.47562e-05
0.000165037
-4.29101e-05
0.000126913
-2.41792e-05
0.000122565
0.000116709
-8.44952e-05
0.000112841
-9.82669e-05
0.000113393
-0.000118425
0.00011418
-0.000117449
0.00010843
-9.05839e-05
9.51911e-05
-7.51617e-05
9.39738e-05
-7.40631e-05
0.000105929
-6.45265e-05
0.000120227
-6.82332e-05
0.000144842
-7.20106e-05
0.000167737
-9.17939e-05
0.000183465
-9.76825e-05
0.000186334
-0.000135319
0.000175376
-0.000136596
0.000165913
-6.90281e-05
0.000151737
3.96511e-06
0.000171208
4.42413e-07
0.000119436
9.47584e-06
0.000172158
6.73813e-05
-0.000114636
5.98468e-05
-0.0001532
5.87511e-05
-0.000150333
7.89354e-05
-7.58037e-05
8.80551e-05
-2.58429e-05
8.63182e-05
-3.00715e-05
7.1558e-05
-5.27365e-05
9.18623e-05
-9.16754e-05
0.000115636
-8.39329e-05
0.000139353
-7.21131e-05
0.000160886
-7.49517e-05
0.000130796
-8.1616e-05
0.000159235
-8.1136e-05
0.000177281
-7.16673e-05
0.000153702
-1.54967e-05
0.000141112
3.60235e-05
0.000149291
7.05918e-05
0.000102142
0.000109133
0.000207128
3.04151e-05
-0.000113839
9.29302e-06
-9.08562e-05
-1.90746e-06
-0.000112362
2.01416e-05
-0.000118066
8.2721e-05
-0.000110606
0.00014599
-0.000121347
0.000191556
-0.000132823
0.000179872
-0.000105983
0.000173823
-5.71553e-05
0.000169538
-2.14523e-05
0.000194891
-1.31475e-05
0.000235036
-1.01511e-05
0.000153436
-2.94641e-06
0.000112634
1.23098e-05
9.71609e-05
3.29532e-05
0.000103536
3.78842e-05
0.000110805
8.47719e-05
7.97351e-05
0.00017833
0.000237838
-6.00006e-06
-0.000116002
2.85372e-05
-0.000123822
4.35816e-05
-0.000128153
5.3823e-05
-0.000127878
7.1764e-05
-0.000128971
4.03953e-05
-0.000138824
-7.49506e-05
-0.000111503
-9.4513e-05
-5.1897e-05
-6.1755e-05
-3.05177e-05
-5.47237e-05
-2.86886e-05
-4.64972e-05
-2.39536e-05
-2.03086e-05
-1.41654e-05
1.39525e-05
4.14231e-06
3.35133e-05
2.54077e-05
4.21188e-05
2.73284e-05
6.41404e-05
4.06206e-05
7.8375e-05
8.93331e-05
6.50724e-05
0.00021245
0.000268709
6.09219e-05
-0.000102039
4.50764e-05
-0.000107993
2.3912e-05
-0.000107209
2.13919e-06
-0.000106575
-1.51061e-05
-0.000113195
-0.000114241
-0.000127679
-0.000153982
-6.64341e-05
-9.17354e-05
-4.43752e-05
-9.92067e-05
-3.94519e-05
-9.85133e-05
-3.65177e-05
-8.66967e-05
-3.42322e-05
-6.82769e-05
-2.47953e-05
-4.5951e-05
-2.48622e-06
-2.44599e-05
2.29747e-05
4.87635e-06
3.62726e-05
4.32796e-05
5.33026e-05
5.73406e-05
0.000114846
5.36983e-05
0.000260993
0.000291255
2.66136e-05
-8.08012e-05
-8.52611e-07
-8.06772e-05
-2.67904e-05
-8.16788e-05
-4.83193e-05
-8.51773e-05
-7.15555e-05
-9.24161e-05
-0.000160467
-9.03057e-05
-0.000147418
-5.18554e-05
-0.000104968
-4.1328e-05
-0.000115414
-3.7712e-05
-0.000124686
-3.92808e-05
-0.000125445
-3.75297e-05
-0.000116997
-2.97559e-05
-9.70755e-05
-6.64524e-06
-7.20742e-05
2.85756e-05
-3.63152e-05
5.93017e-05
7.14392e-06
8.26535e-05
3.43648e-05
0.000161709
4.79866e-05
0.000295025
0.000303222
-9.97141e-06
-6.61473e-05
-2.50535e-05
-6.56818e-05
-4.04284e-05
-6.65138e-05
-5.94591e-05
-6.64964e-05
-8.55808e-05
-6.81605e-05
-0.000175328
-5.30433e-05
-0.000184643
-3.47874e-05
-0.000122696
-3.65083e-05
-0.000123613
-3.08185e-05
-0.000137893
-3.34785e-05
-0.000148621
-3.48251e-05
-0.000153868
-2.51783e-05
-0.00014867
-2.04508e-06
-0.000119179
3.25853e-05
-8.51741e-05
7.9845e-05
-3.62692e-05
0.000126454
9.7963e-06
0.000206392
4.19377e-05
0.000299482
0.000307285
-1.72118e-05
-5.13777e-05
-2.93257e-05
-5.36309e-05
-4.08295e-05
-5.51357e-05
-5.35824e-05
-5.38039e-05
-7.05733e-05
-5.08902e-05
-9.26285e-05
-3.57655e-05
-0.000173093
-1.34857e-05
-0.000181936
-1.30082e-05
-0.000124659
-2.61556e-05
-0.000134979
-2.27293e-05
-0.000154287
-2.30726e-05
-0.000171782
-1.50856e-05
-0.000183908
7.29501e-06
-0.000175223
3.8074e-05
-0.000133796
8.36279e-05
-8.08422e-05
0.000147078
-1.7814e-05
0.000222618
3.19164e-05
0.00028592
0.00029667
-2.34669e-05
-4.61516e-05
-2.94794e-05
-4.76292e-05
-3.66451e-05
-4.79626e-05
-4.52947e-05
-4.50624e-05
-5.58557e-05
-3.99979e-05
-6.28588e-05
-2.85119e-05
-6.76585e-05
-9.4055e-06
-0.000152423
1.29264e-05
-0.000184351
8.68402e-06
-0.000130208
-8.54187e-06
-0.000146354
-1.03e-05
-0.000170573
-3.26421e-06
-0.000191763
1.40459e-05
-0.000199049
4.45139e-05
-0.000173983
8.09704e-05
-0.000111785
0.000139885
-4.07078e-05
0.000204543
1.98035e-05
0.000252762
0.000258224
-2.4299e-05
-4.16645e-05
-2.94157e-05
-4.25133e-05
-3.56087e-05
-4.1768e-05
-4.16726e-05
-3.89184e-05
-4.7264e-05
-3.41386e-05
-5.0255e-05
-2.5049e-05
-4.77427e-05
-1.1557e-05
-4.30382e-05
6.61122e-06
-0.000127336
3.22305e-05
-0.000193659
3.48762e-05
-0.000153478
1.47174e-05
-0.00014826
6.34418e-06
-0.000170818
1.56661e-05
-0.000191615
3.99553e-05
-0.000189496
7.863e-05
-0.000131528
0.000123899
-6.33554e-05
0.000168122
-5.56409e-06
0.000201544
0.000191311
-2.38777e-05
-3.8625e-05
-2.71693e-05
-3.92206e-05
-3.1374e-05
-3.75539e-05
-3.5606e-05
-3.46592e-05
-3.93025e-05
-3.03768e-05
-4.05188e-05
-2.36731e-05
-3.76212e-05
-1.40526e-05
-2.86353e-05
-2.04722e-06
-1.81121e-05
2.11747e-05
-9.43761e-05
5.69509e-05
-0.000212623
9.15273e-05
-0.000185708
3.94182e-05
-0.000150137
3.05098e-05
-0.00015624
3.6687e-05
-0.000178813
6.33202e-05
-0.00015701
9.54692e-05
-0.00010065
0.000120736
-3.76948e-05
0.000125638
0.000108711
-2.38069e-05
-3.54767e-05
-2.73221e-05
-3.57053e-05
-3.07904e-05
-3.40855e-05
-3.34029e-05
-3.20383e-05
-3.47226e-05
-2.90283e-05
-3.41307e-05
-2.41827e-05
-2.99153e-05
-1.80801e-05
-2.05664e-05
-1.12299e-05
-3.14809e-06
4.16835e-06
2.04064e-05
3.38049e-05
-4.53813e-05
0.000128654
-0.000206677
0.000130598
-0.000175009
6.43824e-05
-0.000151134
5.91055e-05
-0.000155264
6.10922e-05
-0.000177328
5.87887e-05
-0.000137566
7.97625e-05
-5.38817e-05
6.29581e-05
5.02764e-05
-2.29287e-05
-2.54728e-05
-2.76876e-05
-2.93763e-05
-3.01371e-05
-2.91187e-05
-2.46704e-05
-1.55371e-05
8.9124e-07
2.66693e-05
3.85507e-05
-7.38988e-05
-0.000183359
-0.000182216
-0.000164945
-0.000143294
-9.52099e-05
-5.95017e-05
)
;

boundaryField
{
    leftWall
    {
        type            fixedValue;
        value           nonuniform 0();
    }
    rightWall
    {
        type            fixedValue;
        value           uniform 0;
    }
    lowerWall
    {
        type            fixedValue;
        value           uniform 0;
    }
    atmosphere
    {
        type            calculated;
        value           nonuniform 0();
    }
    defaultFaces
    {
        type            empty;
        value           nonuniform 0();
    }
    procBoundary1to0
    {
        type            processor;
        value           nonuniform List<scalar> 
26
(
-2.86475e-07
-5.67387e-07
-3.21126e-06
-2.87849e-06
-2.55107e-06
-7.6487e-07
1.419e-07
-3.84353e-08
-5.50421e-06
-4.84624e-06
-5.33299e-05
-8.59678e-05
-9.45485e-05
-7.25202e-05
-1.70709e-05
6.50287e-06
-6.49753e-05
-4.86452e-05
-7.07242e-05
-1.97683e-05
-1.74055e-05
1.1831e-05
1.28566e-05
1.5989e-05
1.63948e-05
1.74082e-05
)
;
    }
    procBoundary1to3
    {
        type            processor;
        value           nonuniform List<scalar> 
23
(
-1.36898e-05
-1.3793e-05
-1.39605e-05
-1.40642e-05
-3.3208e-05
-3.31622e-05
-3.18702e-05
-3.03495e-05
-2.82603e-05
-2.51703e-05
-2.23962e-05
-2.02803e-05
-1.16578e-05
9.02631e-06
0.000114195
0.000230045
0.000139582
9.48641e-05
7.62779e-05
6.12944e-05
-4.30329e-05
-4.84199e-05
-2.11329e-05
)
;
    }
}


// ************************************************************************* //
