/*--------------------------------*- C++ -*----------------------------------*\
| =========                 |                                                 |
| \\      /  F ield         | OpenFOAM: The Open Source CFD Toolbox           |
|  \\    /   O peration     | Version:  2.4.0                                 |
|   \\  /    A nd           | Web:      www.OpenFOAM.org                      |
|    \\/     M anipulation  |                                                 |
\*---------------------------------------------------------------------------*/
FoamFile
{
    version     2.0;
    format      ascii;
    class       surfaceScalarField;
    location    "0.55";
    object      phi.oil;
}
// * * * * * * * * * * * * * * * * * * * * * * * * * * * * * * * * * * * * * //

dimensions      [0 3 -1 0 0 0 0];

internalField   nonuniform List<scalar> 
1061
(
2.57705e-06
3.09939e-06
6.1897e-06
9.0662e-06
1.16853e-05
1.2617e-05
1.27453e-05
1.23704e-05
-1.86945e-05
2.1656e-05
-1.17562e-05
3.18612e-07
7.30863e-06
-7.88585e-06
1.7608e-05
-6.23317e-08
2.1016e-05
5.59611e-06
2.61666e-05
5.10903e-06
3.45289e-05
5.92165e-06
4.13284e-05
1.14808e-05
4.31445e-05
1.91341e-05
4.24265e-05
2.47207e-05
4.31199e-05
2.46319e-05
5.12797e-05
1.98213e-05
5.91614e-05
2.32971e-05
5.45776e-05
3.80126e-05
3.61061e-05
5.39078e-05
1.47273e-05
5.60609e-05
-3.57829e-06
4.67773e-05
-1.48418e-06
2.91013e-05
3.24578e-05
-1.19854e-05
3.17952e-05
3.18425e-08
-1.30562e-05
2.31696e-05
-3.0205e-05
3.80883e-05
-1.43684e-05
4.64291e-05
-2.8848e-06
5.48528e-05
-4.36888e-06
6.3825e-05
-5.74007e-06
6.98498e-05
3.31679e-07
7.04025e-05
1.02878e-05
6.67339e-05
1.63287e-05
6.51856e-05
1.33051e-05
7.31223e-05
2.85114e-07
8.58693e-05
-2.03267e-06
8.78355e-05
1.87642e-05
5.37808e-05
6.16623e-05
1.85322e-05
5.84053e-05
9.99006e-06
2.53203e-05
1.32839e-05
2.4931e-05
4.04668e-05
-4.61017e-06
3.74932e-05
1.07583e-05
-2.60941e-05
2.87113e-05
-4.49615e-05
4.4867e-05
-2.65231e-05
5.81727e-05
-1.20778e-05
6.71249e-05
-9.13516e-06
7.24991e-05
-7.515e-06
7.69015e-05
-1.39783e-06
7.77547e-05
1.13581e-05
7.40897e-05
2.08081e-05
7.2328e-05
1.50148e-05
7.81766e-05
-5.97532e-06
8.95985e-05
-1.43996e-05
8.71021e-05
1.67259e-05
5.33974e-05
8.89788e-05
1.99529e-05
8.94841e-05
-1.04475e-06
3.92029e-05
-5.90606e-06
2.63619e-06
4.23333e-05
6.93524e-06
3.32539e-05
2.17728e-05
-3.81988e-05
3.42178e-05
-5.28335e-05
4.74195e-05
-3.44072e-05
5.90289e-05
-1.85713e-05
6.71206e-05
-1.27623e-05
7.10551e-05
-7.74369e-06
7.22679e-05
4.53229e-07
7.31865e-05
1.25508e-05
7.02719e-05
2.39372e-05
6.81186e-05
1.74736e-05
7.32147e-05
-9.14383e-06
8.02224e-05
-2.12833e-05
7.87491e-05
1.41999e-05
6.00887e-05
0.000105252
2.27341e-05
0.000127119
-1.02208e-05
7.13853e-05
-1.72449e-05
-7.8814e-06
3.42869e-05
1.80075e-05
2.12997e-05
2.91543e-05
-4.48823e-05
3.60492e-05
-5.43255e-05
4.56302e-05
-3.85346e-05
5.52285e-05
-2.41108e-05
6.1324e-05
-1.60221e-05
6.23583e-05
-7.12094e-06
6.29865e-05
7.6164e-07
6.21612e-05
1.33805e-05
6.03774e-05
2.45983e-05
6.10591e-05
1.69398e-05
6.88025e-05
-1.61907e-05
7.61518e-05
-4.46927e-05
7.55208e-05
-2.07614e-05
6.42278e-05
0.000112424
3.3028e-05
0.000156743
-8.27893e-07
0.000104758
-1.02592e-05
-1.06495e-05
3.37743e-05
2.42923e-05
6.92315e-06
3.3691e-05
-4.49141e-05
3.70073e-05
-5.28472e-05
4.32898e-05
-4.00534e-05
5.09233e-05
-2.78468e-05
5.64719e-05
-1.91012e-05
5.7885e-05
-7.71257e-06
5.6586e-05
1.78529e-06
5.27191e-05
1.52294e-05
5.33673e-05
2.38747e-05
5.51505e-05
1.59818e-05
5.84499e-05
-2.07818e-05
6.01545e-05
-6.107e-05
7.19062e-05
-5.9794e-05
6.29682e-05
7.75653e-05
3.37039e-05
0.000156037
-4.61988e-06
0.000103424
-7.12281e-06
-2.99045e-05
3.74748e-05
2.443e-05
-1.49459e-05
3.55276e-05
-4.85454e-05
3.79495e-05
-5.81778e-05
4.16286e-05
-5.13929e-05
4.82367e-05
-4.05272e-05
5.32777e-05
-2.71791e-05
5.43163e-05
-1.1922e-05
4.8901e-05
3.07127e-06
4.43658e-05
1.71763e-05
4.73118e-05
2.19543e-05
4.78219e-05
1.63162e-05
4.43987e-05
-1.58379e-05
4.10377e-05
-4.87777e-05
5.94046e-05
-4.88957e-05
6.67386e-05
5.73669e-05
4.52584e-05
0.000145665
-4.53094e-07
9.3021e-05
-6.01675e-07
-6.25137e-05
4.08625e-05
2.39748e-05
-5.3734e-05
3.59586e-05
-6.12648e-05
3.76876e-05
-7.24133e-05
4.15157e-05
-6.95652e-05
4.80675e-05
-5.94986e-05
5.16382e-05
-4.41594e-05
5.22085e-05
-1.87033e-05
4.53987e-05
5.30989e-06
4.40917e-05
1.54656e-05
4.63622e-05
1.75105e-05
4.25037e-05
1.82751e-05
3.14653e-05
-1.08883e-06
3.84751e-05
-2.50277e-05
5.66194e-05
-3.6325e-05
7.83302e-05
2.55992e-05
6.63157e-05
0.000126807
2.82143e-05
8.47019e-05
2.48853e-05
-5.30108e-05
2.4827e-05
7.59731e-06
2.37145e-05
-1.20379e-06
2.03934e-05
-2.81176e-05
6.49117e-05
-3.47129e-05
0.000121199
-3.99917e-05
0.0001023
-6.06805e-05
7.41519e-05
-0.000128868
2.10132e-05
3.65516e-06
3.00739e-05
2.81538e-06
3.91135e-05
3.32159e-06
5.44195e-05
7.60915e-07
-3.35256e-06
7.32315e-05
2.95791e-05
-3.04745e-06
4.13469e-05
-5.23196e-06
5.42266e-05
-1.00854e-05
-1.41933e-05
6.70407e-05
7.37623e-05
-1.91559e-05
8.50323e-05
-2.25575e-05
9.58871e-05
-2.87846e-05
-3.2025e-05
0.00010239
0.000117353
-2.32799e-05
0.000120396
-2.55249e-05
0.000121195
-2.94061e-05
-3.29449e-05
0.00012285
0.000103867
-2.52384e-05
0.000106465
-2.82676e-05
0.000107682
-3.26097e-05
-3.73849e-05
0.000109062
7.47497e-05
-3.70742e-05
7.54201e-05
-4.22541e-05
7.54529e-05
-4.89033e-05
-5.65284e-05
7.33247e-05
2.32291e-05
-7.34809e-05
2.53409e-05
-8.58068e-05
2.48136e-05
-9.22254e-05
-7.26099e-05
2.45524e-05
7.43996e-06
-4.66758e-05
1.4238e-05
-5.71631e-05
1.51093e-05
-5.95721e-05
-4.18647e-05
3.09989e-06
5.4149e-05
-3.26235e-05
6.05244e-05
-3.62532e-05
6.86065e-05
-3.91231e-05
-3.97652e-05
7.40673e-05
6.67396e-05
-2.68253e-05
6.12863e-05
-2.81828e-05
5.45692e-05
-2.99191e-05
-3.1177e-05
4.79387e-05
1.60928e-05
-2.32378e-05
1.25742e-05
-2.47188e-05
8.64486e-06
-2.60573e-05
-2.73316e-05
4.64653e-06
1.31432e-05
-1.90358e-05
8.5219e-06
-2.02037e-05
3.33574e-06
-2.09152e-05
-2.15492e-05
-2.56296e-06
-1.30544e-05
-1.75952e-05
-1.44394e-05
-1.87118e-05
-1.62244e-05
-1.909e-05
-1.95164e-05
-1.82465e-05
-1.41151e-05
-1.63477e-05
-1.59281e-05
-1.69033e-05
-1.78484e-05
-1.71726e-05
-1.75427e-05
-1.98127e-05
-1.70301e-05
-1.52995e-05
-1.83435e-05
-1.55779e-05
-1.96002e-05
-1.58964e-05
-1.62767e-05
-2.08415e-05
-1.72786e-05
-1.44139e-05
-1.83495e-05
-1.45024e-05
-1.94669e-05
-1.47729e-05
-1.50784e-05
-2.06587e-05
-1.81308e-05
-1.88381e-05
-1.96487e-05
-2.06597e-05
6.63304e-05
-7.24343e-05
7.32225e-05
-9.06426e-05
8.21316e-05
-8.2036e-05
9.23688e-05
-6.96742e-05
9.98828e-05
-5.65549e-05
9.91454e-05
-3.55079e-05
9.15362e-05
-9.27249e-06
9.20112e-05
6.79939e-06
8.93704e-05
1.60354e-05
8.07633e-05
2.13252e-05
6.67602e-05
2.72482e-05
3.98816e-05
2.33311e-05
4.65186e-05
2.21399e-05
8.33185e-05
-4.9436e-06
0.000147447
-1.43418e-05
0.000165372
4.39791e-05
0.000121562
2.55362e-05
0.000118714
-1.57395e-05
2.48546e-05
7.17699e-05
-5.7619e-05
8.24347e-05
-7.40774e-05
8.68669e-05
-8.08941e-05
9.20734e-05
-7.299e-05
9.02887e-05
-5.58556e-05
8.59105e-05
-3.22716e-05
8.42131e-05
-9.92485e-06
8.35638e-05
7.96503e-06
8.67384e-05
1.81511e-05
9.38026e-05
2.0844e-05
0.000101476
2.6264e-05
9.56427e-05
3.53735e-05
7.39699e-05
4.34345e-05
8.08713e-05
3.19565e-05
0.000106078
6.10232e-05
0.000160113
4.13566e-05
0.000206314
2.95812e-05
0.000168337
3.38818e-05
8.11718e-05
0.000110157
-9.2764e-05
0.000113273
-9.9836e-05
0.00011671
-9.39646e-05
0.000114774
-8.02164e-05
0.000111756
-5.88344e-05
0.000109776
-3.39817e-05
0.000110574
-1.42308e-05
0.000112843
2.09948e-06
0.000118904
9.92286e-06
0.000124733
1.2963e-05
0.000129176
1.93483e-05
0.000133598
2.84931e-05
0.000135863
4.09136e-05
0.000106197
5.98663e-05
9.60775e-05
8.85182e-05
0.000104865
0.000103335
0.000149285
0.000125741
0.000131015
0.000120362
0.000157046
0.000124579
-9.25724e-05
0.000126781
-0.000110746
0.000134018
-0.000121527
0.000136585
-0.000123782
0.000128716
-0.000114638
0.000122037
-8.14859e-05
0.000121753
-4.8072e-05
0.000124395
-2.69948e-05
0.000130852
-2.34424e-05
0.000134807
-1.50985e-05
0.000139279
-7.28326e-06
0.000142657
6.34086e-06
0.000135394
3.90921e-05
0.000127326
6.69122e-05
0.000120661
9.44909e-05
0.000104132
0.00013107
0.000107003
0.000175256
8.17032e-05
0.000215044
0.000234906
0.000112272
-0.000108908
0.000111417
-0.000137695
0.000113266
-0.000179683
0.000115928
-0.000185424
0.00010967
-0.000189245
9.479e-05
-0.000160979
9.086e-05
-0.000139706
0.000103951
-0.000118845
0.000118018
-0.000113361
0.00013498
-0.000104683
0.000157112
-0.000110214
0.000177711
-0.000109537
0.000172845
-6.45701e-05
0.000129354
-2.60966e-05
0.000135423
5.96073e-05
0.00011867
0.000144788
9.04347e-05
0.000207882
5.29753e-05
0.000273603
0.00029809
6.97527e-05
-0.000169378
5.45836e-05
-0.000207535
4.8774e-05
-0.000217319
7.03912e-05
-0.00012292
8.10908e-05
-0.000130505
6.54514e-05
-0.000135351
5.52963e-05
-0.000126029
7.35957e-05
-0.000126316
9.69971e-05
-0.000108826
0.000122024
-9.0725e-05
0.000146052
-9.36422e-05
0.000158922
-0.000145657
0.000169394
-0.000117937
0.000174872
-6.54597e-05
0.000148227
3.52544e-05
0.000121415
0.000146169
8.91889e-05
0.000235487
4.18497e-05
0.000323069
0.000346552
3.31144e-05
-0.000135703
3.76186e-05
-0.000127449
2.03977e-05
-0.000120471
1.51987e-05
-0.000114621
-2.96081e-05
-0.000107876
-0.000109901
-6.76723e-05
-0.000142556
-6.54698e-05
-0.000111884
-7.26695e-05
-6.79031e-05
-6.02939e-05
-5.15297e-05
-3.85994e-05
1.99728e-05
-2.5747e-05
0.000124965
-6.37749e-05
0.000163629
-4.63242e-05
0.000183192
7.72904e-06
0.000161315
9.08097e-05
0.000122513
0.000164125
8.58136e-05
0.000261688
3.95688e-05
0.000368722
0.000390225
-1.66349e-06
-9.41733e-05
2.55429e-05
-0.000125436
4.33122e-05
-0.000127989
5.33209e-05
-0.000127107
4.43298e-05
-0.000126527
-0.000134342
-6.41773e-05
-0.000179719
-6.00723e-05
-0.000126121
-5.17454e-05
-8.69249e-05
-4.05008e-05
-6.39232e-05
-3.21949e-05
-4.53609e-05
-1.81935e-05
-9.41991e-06
-3.92551e-06
3.89549e-05
2.20517e-05
0.000104298
6.41569e-05
0.00012333
0.000114943
0.000103256
0.000179823
7.59992e-05
0.000278071
4.17954e-05
0.000400516
0.000433698
6.1099e-05
-0.000103597
4.50232e-05
-0.000108069
2.28667e-05
-0.000103752
8.53097e-07
-0.000104097
-9.9466e-05
-0.000108596
-0.000195029
-6.44908e-05
-0.000176762
-5.03797e-05
-0.000138223
-4.45654e-05
-0.000114119
-3.82393e-05
-9.66668e-05
-3.41896e-05
-7.73912e-05
-3.14596e-05
-5.28786e-05
-2.10449e-05
-2.15067e-05
4.15655e-06
1.94552e-05
4.40491e-05
5.81731e-05
0.000110397
6.85734e-05
0.000180937
4.54255e-05
0.000288485
2.13209e-05
0.000420228
0.000455382
2.63462e-05
-8.09483e-05
-2.02107e-06
-8.06002e-05
-2.70723e-05
-8.21248e-05
-5.28876e-05
-8.54024e-05
-0.000103909
-9.19554e-05
-0.000180101
-5.50495e-05
-0.00016323
-4.41022e-05
-0.000143387
-4.06022e-05
-0.000130186
-3.88896e-05
-0.000123003
-4.03912e-05
-0.000114917
-3.94867e-05
-0.000100801
-3.51327e-05
-8.22877e-05
-1.50669e-05
-6.20242e-05
1.99875e-05
-2.43952e-05
9.0333e-05
1.05158e-05
0.000188594
5.5577e-06
0.000315013
-8.63962e-06
0.000418171
0.000447197
-1.06937e-05
-6.63324e-05
-2.53107e-05
-6.65335e-05
-4.01268e-05
-6.81704e-05
-6.29756e-05
-6.8573e-05
-0.000119785
-7.03632e-05
-0.000207515
-3.70644e-05
-0.000192952
-3.42183e-05
-0.000165919
-3.22262e-05
-0.000148722
-3.54091e-05
-0.00014309
-3.85961e-05
-0.000142039
-3.99821e-05
-0.000141479
-3.5661e-05
-0.000137594
-1.91781e-05
-0.000129343
9.07631e-06
-0.000103186
6.77692e-05
-6.28505e-05
0.000175017
-5.24439e-05
0.000304875
-3.34388e-05
0.000390247
0.000413776
-1.77424e-05
-5.17167e-05
-2.93766e-05
-5.43373e-05
-4.07961e-05
-5.51828e-05
-5.55976e-05
-5.42934e-05
-9.75062e-05
-5.05657e-05
-0.000156712
-3.6251e-05
-0.000217117
-1.95655e-05
-0.000195767
-2.00649e-05
-0.00017127
-2.17947e-05
-0.00015757
-2.59837e-05
-0.00015683
-2.84696e-05
-0.000167106
-2.46174e-05
-0.000177194
-9.07373e-06
-0.000181435
1.29088e-05
-0.000169617
5.31002e-05
-0.000144731
0.000139878
-0.000111361
0.000264423
-6.42689e-05
0.000341275
0.000349564
-2.35464e-05
-4.63102e-05
-2.94633e-05
-4.77658e-05
-3.66545e-05
-4.82528e-05
-4.53071e-05
-4.55031e-05
-5.46107e-05
-4.04631e-05
-6.64019e-05
-2.89029e-05
-0.000126257
-1.22195e-05
-0.000203487
-3.03524e-06
-0.000197383
-3.1306e-07
-0.000176195
-3.69178e-06
-0.000172675
-7.51745e-06
-0.000177924
-5.96769e-06
-0.00019304
7.0013e-06
-0.000208301
2.81638e-05
-0.0002125
5.68636e-05
-0.000194497
0.000119917
-0.000147927
0.000216506
-8.13405e-05
0.000274428
0.000268412
-2.42951e-05
-4.17678e-05
-2.94462e-05
-4.26174e-05
-3.56516e-05
-4.19458e-05
-4.16881e-05
-3.91604e-05
-4.71228e-05
-3.44063e-05
-4.85031e-05
-2.54334e-05
-4.95799e-05
-1.2179e-05
-0.000120897
3.45173e-06
-0.000205442
1.2089e-05
-0.000203989
1.61849e-05
-0.000194232
1.51959e-05
-0.000180045
1.47774e-05
-0.000188275
2.30586e-05
-0.000205949
4.69052e-05
-0.000221061
7.19728e-05
-0.000210332
0.000109205
-0.00016129
0.000167615
-8.74112e-05
0.000200833
0.000181476
-2.38814e-05
-3.86664e-05
-2.71779e-05
-3.92704e-05
-3.13891e-05
-3.7628e-05
-3.56245e-05
-3.47734e-05
-3.92835e-05
-3.05518e-05
-4.03073e-05
-2.39579e-05
-3.63714e-05
-1.45137e-05
-3.16865e-05
-2.72249e-06
-0.000109948
1.66311e-05
-0.000224197
2.62626e-05
-0.000238444
3.5687e-05
-0.000202018
3.74532e-05
-0.000180919
3.85259e-05
-0.000188289
5.2122e-05
-0.000206502
8.88291e-05
-0.000206337
0.000109048
-0.000166615
0.000127883
-8.21226e-05
0.000116356
9.94056e-05
-2.38106e-05
-3.54869e-05
-2.73274e-05
-3.57245e-05
-3.07977e-05
-3.41153e-05
-3.34112e-05
-3.20839e-05
-3.47047e-05
-2.91115e-05
-3.40097e-05
-2.43584e-05
-2.95848e-05
-1.8446e-05
-1.99641e-05
-1.19796e-05
-8.16951e-06
2.73975e-06
-7.69664e-05
2.78636e-05
-0.000233737
8.61752e-05
-0.000248093
6.08642e-05
-0.000180832
5.96687e-05
-0.000174502
6.03386e-05
-0.000182757
7.46093e-05
-0.000192222
8.37719e-05
-0.000145287
7.44971e-05
-6.16085e-05
3.22612e-05
3.74699e-05
-2.29295e-05
-2.54747e-05
-2.76908e-05
-2.93807e-05
-3.01323e-05
-2.9042e-05
-2.43685e-05
-1.53632e-05
9.62222e-07
1.88276e-05
-4.15765e-05
-0.000240725
-0.00021174
-0.000184632
-0.000166486
-0.000139806
-9.3188e-05
-5.90874e-05
)
;

boundaryField
{
    leftWall
    {
        type            fixedValue;
        value           nonuniform 0();
    }
    rightWall
    {
        type            fixedValue;
        value           uniform 0;
    }
    lowerWall
    {
        type            fixedValue;
        value           uniform 0;
    }
    atmosphere
    {
        type            calculated;
        value           nonuniform 0();
    }
    defaultFaces
    {
        type            empty;
        value           nonuniform 0();
    }
    procBoundary1to0
    {
        type            processor;
        value           nonuniform List<scalar> 
26
(
-2.16833e-07
-4.78406e-07
-3.10964e-06
-2.7777e-06
-2.47068e-06
-7.15933e-07
1.75218e-07
-2.24041e-09
-5.43677e-06
-1.67736e-06
-5.63199e-05
-0.000111496
-9.4955e-05
-7.09496e-05
-1.72301e-05
6.8279e-06
-8.45901e-05
-4.90747e-05
-7.07002e-05
-1.97669e-05
-1.75133e-05
1.18057e-05
1.28556e-05
1.59894e-05
1.63948e-05
1.74082e-05
)
;
    }
    procBoundary1to3
    {
        type            processor;
        value           nonuniform List<scalar> 
23
(
-1.36908e-05
-1.37939e-05
-1.39614e-05
-1.40653e-05
-3.32119e-05
-3.31687e-05
-3.18818e-05
-3.03721e-05
-2.83112e-05
-2.52941e-05
-2.2687e-05
-2.08939e-05
-1.31505e-05
6.57741e-06
0.000104919
0.000194033
7.62231e-05
7.61393e-05
7.24376e-05
6.26114e-05
-5.72314e-05
-5.42573e-05
-2.25392e-05
)
;
    }
}


// ************************************************************************* //
