/*--------------------------------*- C++ -*----------------------------------*\
| =========                 |                                                 |
| \\      /  F ield         | OpenFOAM: The Open Source CFD Toolbox           |
|  \\    /   O peration     | Version:  2.4.0                                 |
|   \\  /    A nd           | Web:      www.OpenFOAM.org                      |
|    \\/     M anipulation  |                                                 |
\*---------------------------------------------------------------------------*/
FoamFile
{
    version     2.0;
    format      ascii;
    class       surfaceScalarField;
    location    "0.55";
    object      phi.air;
}
// * * * * * * * * * * * * * * * * * * * * * * * * * * * * * * * * * * * * * //

dimensions      [0 3 -1 0 0 0 0];

internalField   nonuniform List<scalar> 
1061
(
2.8654e-07
8.54095e-07
4.06549e-06
6.94401e-06
9.49528e-06
1.026e-05
1.0118e-05
1.01564e-05
-7.30313e-06
-3.60317e-05
7.16893e-09
-6.16773e-05
1.23941e-05
-7.17009e-05
1.98257e-05
-6.36916e-05
2.52534e-05
-5.74067e-05
3.17917e-05
-5.8028e-05
3.85882e-05
-5.7568e-05
4.32628e-05
-4.54062e-05
4.43975e-05
-1.90814e-05
4.45654e-05
-9.62927e-06
4.61618e-05
-1.21207e-05
5.30821e-05
-2.07374e-05
5.79459e-05
-4.24105e-06
5.03328e-05
9.63554e-05
3.14719e-05
9.86102e-05
1.53647e-05
2.98192e-05
4.66482e-06
-2.31314e-05
4.81264e-06
-2.5475e-05
-1.35523e-06
-1.99098e-06
-1.94875e-05
9.79353e-06
-6.84776e-05
2.58081e-05
-8.45588e-05
3.74208e-05
-7.10123e-05
4.69026e-05
-6.06437e-05
5.5801e-05
-6.29103e-05
6.31608e-05
-6.60117e-05
6.9877e-05
-6.30281e-05
7.24836e-05
-5.53052e-05
6.90053e-05
-4.8061e-05
6.66223e-05
-4.71493e-05
7.17841e-05
-5.79948e-05
8.87558e-05
-6.20771e-05
9.7666e-05
-2.68076e-05
6.52565e-05
-1.71776e-05
2.77152e-05
-8.50058e-05
2.32287e-05
-5.38747e-05
2.03533e-05
-2.04049e-05
2.18858e-05
3.75984e-06
-1.80854e-05
1.73452e-05
-8.00017e-05
2.95158e-05
-9.42766e-05
4.12247e-05
-7.56457e-05
5.27747e-05
-6.41034e-05
6.10642e-05
-6.29526e-05
6.61787e-05
-6.21072e-05
7.00432e-05
-5.70049e-05
7.42789e-05
-4.74847e-05
7.35183e-05
-1.9761e-05
7.00187e-05
1.22524e-06
7.38736e-05
-1.68558e-05
8.16131e-05
-6.37053e-05
8.53246e-05
-3.71691e-05
4.78022e-05
4.40588e-05
3.62909e-05
4.39922e-05
3.67334e-05
3.69273e-05
-1.55348e-06
-6.36279e-05
2.28481e-05
1.41393e-05
-2.25556e-05
2.46855e-05
-7.68518e-06
3.28671e-05
-5.07474e-05
4.25947e-05
-8.27496e-05
5.26453e-05
-6.94204e-05
6.04752e-05
-6.54402e-05
6.45381e-05
-6.2073e-05
6.66662e-05
-5.63295e-05
6.80884e-05
-4.64893e-05
6.7777e-05
-4.13863e-05
6.5905e-05
-3.12449e-05
6.68919e-05
-4.14647e-05
6.70296e-05
4.63286e-05
6.87371e-05
-2.37957e-05
5.88885e-05
1.26794e-05
3.71319e-05
8.24585e-05
3.30274e-05
8.37975e-05
-7.77035e-06
-4.35426e-06
1.4102e-05
2.17593e-05
-3.34327e-05
3.46379e-05
-1.90627e-05
3.70188e-05
-2.82313e-05
4.13895e-05
-3.28265e-05
4.97694e-05
-7.35507e-05
5.55167e-05
-6.83716e-05
5.71267e-05
-5.99383e-05
5.77912e-05
-5.43136e-05
5.82203e-05
-4.48852e-05
5.78221e-05
-3.79786e-05
5.78875e-05
-4.60937e-05
7.54298e-05
-2.7083e-05
7.97596e-05
6.74889e-05
5.78573e-05
0.000156012
4.87835e-05
0.000224521
3.82303e-05
0.000203793
4.11629e-05
0.000154475
3.79886e-06
2.41156e-05
1.21325e-05
2.47614e-05
2.72092e-05
4.04285e-05
-1.70752e-05
3.97575e-05
-2.37581e-05
4.35197e-05
-8.47087e-06
4.66242e-05
5.09458e-06
5.1754e-05
-5.48127e-05
5.39158e-05
-6.4846e-05
5.35973e-05
-5.64123e-05
5.23293e-05
-4.66514e-05
5.3738e-05
-4.0904e-05
5.47843e-05
-4.55278e-05
7.39286e-05
3.75494e-05
6.75898e-05
-9.70902e-07
5.8796e-05
2.90337e-05
3.4335e-05
0.00022261
2.64679e-05
0.000384703
2.39387e-05
0.000380847
-4.60884e-06
9.57726e-05
3.4711e-05
2.26377e-05
2.62547e-05
3.96738e-05
-1.76798e-05
4.05226e-05
-2.23002e-05
4.32363e-05
4.38429e-06
4.95032e-05
3.16338e-05
5.03488e-05
4.98104e-05
5.09582e-05
-5.21232e-05
4.8547e-05
-6.51592e-05
4.66073e-05
-5.34801e-05
4.9028e-05
-4.81327e-05
4.81899e-05
-4.31458e-05
3.49771e-05
6.89795e-05
1.86522e-05
8.41759e-06
1.0664e-05
9.62343e-07
5.16916e-05
8.86476e-05
4.34079e-05
0.000244663
-1.08569e-05
0.00025388
-5.9462e-05
2.61497e-05
2.82664e-05
2.07292e-05
-3.9044e-05
3.94132e-05
-3.19885e-05
4.10612e-05
-3.15733e-05
4.36388e-05
-1.95483e-05
5.07662e-05
2.48244e-06
5.27846e-05
8.33541e-05
4.99467e-05
8.76633e-05
4.73841e-05
-5.63453e-05
4.73568e-05
-6.23428e-05
4.96686e-05
-6.21037e-05
3.92368e-05
-5.59456e-05
7.77281e-06
9.36607e-05
-1.26612e-05
6.4634e-05
-5.56318e-05
7.30312e-05
-4.70982e-05
7.23075e-05
3.43027e-05
0.000127514
-1.92905e-05
0.000245333
-9.82055e-05
-9.26213e-06
1.80919e-05
-7.46313e-06
2.3396e-05
-2.91912e-05
1.921e-05
-4.88276e-05
6.20305e-05
-3.11878e-05
0.000117959
7.00746e-06
0.00011118
1.3733e-05
9.26065e-05
-1.92225e-05
3.03551e-05
-6.34186e-06
2.94996e-05
-5.98814e-06
3.6164e-05
-6.48892e-06
4.5937e-05
-1.00559e-05
-1.56998e-05
8.70438e-05
2.77297e-05
-1.84761e-05
3.76253e-05
-2.08594e-05
4.9044e-05
-2.65188e-05
-3.26921e-05
6.07401e-05
6.77578e-05
-2.97648e-05
7.5326e-05
-3.20475e-05
8.34197e-05
-3.67288e-05
-4.01705e-05
8.82741e-05
0.000121744
-1.70322e-05
0.000125054
-1.48475e-05
0.000127056
-1.53029e-05
-1.44847e-05
0.000129683
0.000116821
-5.43246e-07
0.000126563
-1.44329e-06
0.000130073
-5.38641e-06
-1.04201e-05
0.000136121
9.19138e-05
6.90021e-07
9.26878e-05
-4.10045e-06
9.24626e-05
-9.26215e-06
-1.29057e-05
8.75054e-05
3.46578e-05
-1.76252e-05
4.47367e-05
-2.5862e-05
5.14598e-05
-3.09076e-05
-2.59543e-05
4.2698e-05
-1.25831e-05
-2.50643e-05
-2.4347e-05
-2.64016e-05
-3.60153e-05
-2.87175e-05
-3.24949e-05
-3.31099e-05
5.44002e-05
-3.08205e-05
6.16307e-05
-3.36365e-05
6.9586e-05
-3.66734e-05
-3.78266e-05
7.49177e-05
6.67518e-05
-2.68395e-05
6.12837e-05
-2.81682e-05
5.45188e-05
-2.99085e-05
-3.11899e-05
4.78822e-05
1.60847e-05
-2.31489e-05
1.25703e-05
-2.46539e-05
8.65023e-06
-2.59883e-05
-2.72556e-05
4.71602e-06
1.30799e-05
-1.88173e-05
8.50278e-06
-2.00765e-05
3.3538e-06
-2.08392e-05
-2.14911e-05
-2.41062e-06
-1.30504e-05
-1.75924e-05
-1.44294e-05
-1.86976e-05
-1.62049e-05
-1.90636e-05
-1.94734e-05
-1.82225e-05
-1.41068e-05
-1.63371e-05
-1.59177e-05
-1.68865e-05
-1.78346e-05
-1.71466e-05
-1.7508e-05
-1.98e-05
-1.70239e-05
-1.52976e-05
-1.83365e-05
-1.5574e-05
-1.95924e-05
-1.58905e-05
-1.62702e-05
-2.08301e-05
-1.72735e-05
-1.44149e-05
-1.8344e-05
-1.45034e-05
-1.94606e-05
-1.47739e-05
-1.50787e-05
-2.0652e-05
-1.81268e-05
-1.88339e-05
-1.96437e-05
-2.06545e-05
6.91917e-05
-5.74095e-05
8.43338e-05
-7.93543e-05
9.18458e-05
-6.38406e-05
0.000102433
-2.82455e-05
0.000106807
-1.61672e-05
9.77278e-05
2.59524e-06
8.21823e-05
3.65981e-05
0.000100089
2.42605e-05
0.000102412
-5.5577e-05
0.000102992
-5.42956e-05
4.04943e-05
-5.63294e-05
9.24184e-06
6.62817e-05
-4.94909e-06
5.05775e-05
6.07975e-05
0.000100174
6.72501e-05
0.000124355
0.000120358
9.66163e-05
2.56989e-05
0.000329961
-0.000168723
2.10325e-05
1.39719e-05
6.86587e-05
-0.000105049
7.64859e-05
-0.000132178
7.4591e-05
-9.06285e-05
8.24233e-05
-3.93931e-05
7.97915e-05
-1.03831e-05
7.62928e-05
2.78933e-05
7.45384e-05
6.2123e-05
6.91184e-05
8.58334e-05
9.35552e-05
5.96816e-05
0.000105936
1.44605e-06
0.000104313
5.08438e-06
0.000119184
9.24544e-05
5.24419e-05
8.52614e-05
3.88254e-05
6.62322e-05
6.48495e-05
0.000125893
8.75119e-05
0.000124355
0.000190635
0.000277845
-3.67658e-05
0.000173802
0.000113503
9.83318e-05
-0.000104759
0.000111426
-6.10095e-05
0.00011397
-2.03813e-05
0.000110546
2.1825e-05
0.000109776
5.76208e-05
0.000104126
7.88376e-05
0.000105719
9.5472e-05
0.000109472
0.000102285
0.000118119
9.68224e-05
0.000128624
5.92413e-05
0.000134239
2.66161e-05
0.000141597
1.1672e-05
0.000147083
1.94395e-05
5.73308e-05
2.6405e-05
3.03758e-05
0.000138201
9.12736e-06
0.000158389
0.000126486
0.000245514
3.20962e-05
0.00028207
0.000228302
0.000138215
-3.33099e-05
0.000132212
-3.56572e-05
0.00014464
-2.54092e-05
0.000141327
1.13453e-05
0.000120135
6.00649e-05
0.000110954
9.33234e-05
0.00010984
0.000104303
0.000116151
0.000115196
0.000122662
0.000126667
0.000129001
0.00013571
0.000139577
0.000152363
0.00014586
0.000179394
0.000140618
0.000196896
0.000128366
0.000177132
7.65251e-05
0.000111872
3.60346e-05
0.000202842
5.86554e-05
0.0002729
3.42505e-05
0.000343898
0.000332101
0.000134814
-4.03669e-05
0.000127763
-5.24707e-05
0.00013548
-7.6827e-05
0.000128908
-5.98303e-05
0.000105207
-1.35582e-05
8.57443e-05
1.6926e-05
7.84872e-05
3.0135e-05
0.0001013
1.99269e-05
0.000116691
2.97318e-05
0.000136216
4.3345e-05
0.000158033
5.65378e-05
0.000174127
8.0504e-05
0.00015249
0.000147498
6.13788e-05
0.000289962
0.000115312
0.00025577
6.58852e-05
0.000266916
3.63729e-05
0.000299727
7.10114e-06
0.000377668
0.000400209
9.2599e-05
-6.66611e-05
9.36806e-05
-9.05119e-05
8.49871e-05
-0.000113473
8.85259e-05
-9.61777e-05
9.04995e-05
-4.65085e-05
0.00010589
-3.73738e-05
0.000109057
-2.24739e-05
0.000159424
-7.57811e-05
0.000197827
-6.01013e-05
0.000209616
-3.43584e-05
0.000213085
-2.625e-05
0.000172879
3.17477e-05
0.000144092
6.76673e-05
9.29463e-05
0.000127707
5.32993e-05
0.000118652
4.97086e-05
0.000268327
6.10668e-05
0.000336626
1.16971e-05
0.000356102
0.000362663
2.65832e-05
-8.81576e-05
2.1416e-06
-8.92662e-05
-1.94507e-06
-0.000113138
1.98177e-05
-0.000118009
8.38484e-05
-0.000110553
0.000169545
-0.000123085
0.000299738
-0.000152892
0.000389024
-0.000166406
0.000419234
-9.26149e-05
0.000412668
-2.78286e-05
0.000381056
1.75831e-05
0.000370747
9.16529e-05
0.000344427
0.000150238
0.000283091
0.0002526
0.000124155
0.000247832
4.76672e-05
0.00026222
1.65063e-05
0.000365872
5.48951e-05
0.000362165
0.000314574
-5.97217e-06
-0.000116019
2.857e-05
-0.000123833
4.36356e-05
-0.000128203
5.38028e-05
-0.000128177
7.22395e-05
-0.000128989
9.02006e-05
-0.000140892
0.000112025
-0.000170959
3.10139e-05
-8.08642e-05
-3.10807e-05
-1.78673e-05
-4.50877e-05
7.02213e-06
-2.65876e-05
1.8339e-05
2.02316e-06
4.41452e-05
5.25198e-05
9.95835e-05
0.000161942
0.000185659
0.000151781
0.000264156
5.5978e-05
0.000305459
1.80693e-05
0.000398694
4.52752e-05
0.000434947
0.000368194
6.09483e-05
-0.00010205
4.51365e-05
-0.000108021
2.42608e-05
-0.000107328
2.79526e-06
-0.000106711
-1.277e-05
-0.000113422
-2.00057e-05
-0.000132456
-7.38283e-05
-0.000104779
-0.000102586
-4.23649e-05
-9.59784e-05
-3.44073e-05
-7.63527e-05
-2.15781e-05
-5.18522e-05
-1.38624e-05
-2.83873e-05
5.26228e-06
4.97454e-06
5.14143e-05
6.38646e-05
0.00011073
9.75745e-05
0.000206964
5.19486e-05
0.000289606
-2.44412e-05
0.000374308
1.47821e-06
0.000422849
0.000395242
2.66439e-05
-8.08115e-05
-6.89601e-07
-8.06878e-05
-2.63443e-05
-8.16728e-05
-4.7917e-05
-8.51382e-05
-6.92777e-05
-9.20539e-05
-0.000106811
-9.33461e-05
-0.000133522
-7.18268e-05
-0.000105131
-5.87448e-05
-0.000106109
-4.41437e-05
-9.90247e-05
-4.05169e-05
-0.000102925
-3.64358e-05
-6.95924e-05
-3.44995e-05
-2.31935e-05
-1.20715e-05
-6.00027e-06
2.61127e-05
2.05154e-05
0.000109774
-9.51194e-07
0.000197346
-0.000138746
0.000290462
-1.41083e-05
0.00039802
0.000400067
-9.93742e-06
-6.6158e-05
-2.49352e-05
-6.56899e-05
-4.01316e-05
-6.64763e-05
-5.90661e-05
-6.62036e-05
-8.38442e-05
-6.7272e-05
-0.000123944
-5.23806e-05
-0.000156966
-3.39288e-05
-0.000145293
-6.27986e-05
-0.000115688
-6.63361e-05
-0.000114145
-6.14069e-05
-0.00011094
-5.32444e-05
-0.000125842
-5.14503e-05
-7.78611e-05
-2.90958e-05
-6.61687e-05
-3.5288e-05
-7.15985e-05
7.16611e-06
-0.000103993
8.51172e-05
-0.000171426
0.00021371
-3.50667e-05
0.000349676
0.000377988
-1.7181e-05
-5.13875e-05
-2.92368e-05
-5.36341e-05
-4.06509e-05
-5.5062e-05
-5.33398e-05
-5.35146e-05
-7.03413e-05
-5.02704e-05
-8.77156e-05
-3.49903e-05
-0.000108615
-1.19723e-05
-0.000151342
-1.14231e-05
-0.000147306
-5.2946e-05
-0.00011567
-7.05226e-05
-0.000130023
-7.50386e-05
-0.00013886
-5.92586e-05
-0.00015395
-3.72211e-05
-0.00013988
-1.61472e-05
-0.000158522
-2.86107e-05
-0.000194943
3.61598e-05
-0.000200346
0.00016131
-7.55488e-05
0.000277187
0.000309989
-2.34485e-05
-4.61614e-05
-2.94474e-05
-4.7635e-05
-3.6568e-05
-4.79414e-05
-4.51491e-05
-4.49334e-05
-5.57555e-05
-3.96639e-05
-6.27703e-05
-2.79755e-05
-6.58827e-05
-8.85774e-06
-9.08473e-05
1.42724e-05
-0.000141276
7.03629e-06
-0.000157604
-3.40399e-05
-0.000137014
-5.58611e-05
-0.000155327
-5.68109e-05
-0.000177154
-4.55466e-05
-0.000204953
6.57138e-06
-0.000218088
4.65362e-05
-0.000240687
7.9365e-05
-0.00021062
0.000171125
-0.000110161
0.000225101
0.000240181
-2.4287e-05
-4.16743e-05
-2.93989e-05
-4.2523e-05
-3.55729e-05
-4.17673e-05
-4.16196e-05
-3.88866e-05
-4.72333e-05
-3.40502e-05
-5.03368e-05
-2.48718e-05
-4.79709e-05
-1.12236e-05
-4.06485e-05
6.95289e-06
-6.66319e-05
3.35531e-05
-0.000134024
4.22962e-05
-0.00017526
8.49666e-06
-0.000168072
-4.1883e-05
-0.000167492
-6.35435e-06
-0.000202665
6.92793e-06
-0.00022535
6.13203e-05
-0.000218751
0.000103855
-0.000187469
0.00016452
-0.000105544
0.000194097
0.000181259
-2.38691e-05
-3.86352e-05
-2.71597e-05
-3.92324e-05
-3.13611e-05
-3.75657e-05
-3.55852e-05
-3.46626e-05
-3.92806e-05
-3.03546e-05
-4.05551e-05
-2.35973e-05
-3.7866e-05
-1.39125e-05
-2.9089e-05
-1.82417e-06
-1.7018e-05
2.14838e-05
-3.28886e-05
5.84619e-05
-0.000119233
0.000101035
-0.000176172
3.95381e-05
-0.000182526
1.08351e-06
-0.000214519
5.7332e-05
-0.000213956
0.000111908
-0.000217414
0.000102805
-0.000178829
0.000131513
-8.76733e-05
0.00014272
0.000135485
-2.38003e-05
-3.54868e-05
-2.73155e-05
-3.57171e-05
-3.0783e-05
-3.40982e-05
-3.3395e-05
-3.20504e-05
-3.47174e-05
-2.90322e-05
-3.41532e-05
-2.41614e-05
-3.00692e-05
-1.79965e-05
-2.08718e-05
-1.10214e-05
-4.01193e-06
4.62386e-06
1.93724e-05
3.50776e-05
-1.07844e-05
0.000131247
-0.000108001
0.000140698
-0.000160224
6.65247e-05
-0.000200586
7.38174e-05
-0.000263019
0.000118845
-0.000221729
0.000248375
-0.000178366
0.000175009
-9.28753e-05
0.000100762
0.000126763
-2.29238e-05
-2.5468e-05
-2.76834e-05
-2.93718e-05
-3.01339e-05
-2.91314e-05
-2.47821e-05
-1.5677e-05
1.1477e-07
2.50342e-05
3.89165e-05
-5.16709e-05
-0.000130543
-0.000175999
-0.000190571
-0.000170503
-0.00015841
-9.54376e-05
)
;

boundaryField
{
    leftWall
    {
        type            fixedValue;
        value           nonuniform 0();
    }
    rightWall
    {
        type            fixedValue;
        value           uniform 0;
    }
    lowerWall
    {
        type            fixedValue;
        value           uniform 0;
    }
    atmosphere
    {
        type            calculated;
        value           nonuniform 0();
    }
    defaultFaces
    {
        type            empty;
        value           nonuniform 0();
    }
    procBoundary1to0
    {
        type            processor;
        value           nonuniform List<scalar> 
26
(
-2.86423e-07
-5.67336e-07
-3.21122e-06
-2.87846e-06
-2.55105e-06
-7.64873e-07
1.41894e-07
-3.84669e-08
-5.5031e-06
-4.72819e-06
-5.58776e-05
-0.000111068
-0.000101031
-9.42755e-05
-2.51256e-05
5.98894e-06
-5.30291e-05
-4.86583e-05
-7.07327e-05
-1.97753e-05
-1.74114e-05
1.18255e-05
1.28515e-05
1.59845e-05
1.63909e-05
1.7405e-05
)
;
    }
    procBoundary1to3
    {
        type            processor;
        value           nonuniform List<scalar> 
23
(
-1.3693e-05
-1.37964e-05
-1.3964e-05
-1.40679e-05
-3.32175e-05
-3.3173e-05
-3.18827e-05
-3.03621e-05
-2.82701e-05
-2.51639e-05
-2.23457e-05
-2.01266e-05
-1.11678e-05
1.01581e-05
0.000117365
0.000231313
0.000146649
0.000116337
9.93474e-05
9.29518e-05
0.000107966
0.000134566
5.74036e-05
)
;
    }
}


// ************************************************************************* //
