/*--------------------------------*- C++ -*----------------------------------*\
| =========                 |                                                 |
| \\      /  F ield         | OpenFOAM: The Open Source CFD Toolbox           |
|  \\    /   O peration     | Version:  2.4.0                                 |
|   \\  /    A nd           | Web:      www.OpenFOAM.org                      |
|    \\/     M anipulation  |                                                 |
\*---------------------------------------------------------------------------*/
FoamFile
{
    version     2.0;
    format      ascii;
    class       volScalarField;
    location    "0.55";
    object      rho;
}
// * * * * * * * * * * * * * * * * * * * * * * * * * * * * * * * * * * * * * //

dimensions      [1 -3 0 0 0 0 0];

internalField   nonuniform List<scalar> 
559
(
13528.9
13528.8
13528.8
13528.8
13528.8
13528.8
13528.8
13528.7
1180.81
1754.13
1860.73
1881.95
1903.5
2231.76
2887.09
3594.16
4264.33
5056.31
5399.01
5592.41
5680.89
5734.21
5787.13
6168.39
7116.24
7151.67
7162.53
791.078
1137.29
1738.43
1555.2
1412.58
1423.32
1621.14
1839.04
1948.52
2084.24
2388.84
2802.21
2840.59
2701.2
1880.16
1136.48
1626.25
6698.19
7172.33
973.893
1741.24
2422.77
2337.7
2238.57
2319.68
2508.21
2587.05
2515.2
2395.11
2398.2
2548.87
2476.03
1925.12
994.968
643.889
547.589
1495.06
7181.66
1358.89
2452.71
3570.48
3495.69
3331.7
3332.22
3406.36
3356.5
3144.4
2694.48
2515.99
2679.06
2514.89
1633.62
779.171
662.778
532.555
775.776
7190.84
2327.84
3644.54
5157.79
4963.95
4568.27
4333.61
4117.76
3836.4
3414.83
2667.07
2504.12
2679.5
2295.05
1160.69
702.425
661.705
522.762
690.369
6353.36
4401.69
5552.93
7080.38
6569.53
5756.04
5114.41
4516.02
4042.75
3458.26
2524.94
2519.15
2666.43
2122.99
690.375
542.653
530.605
513.273
685.084
5642.58
7332.8
8389.81
8375.09
7490.85
6228.21
5216.16
4304.18
3473.76
2572.47
2524.06
2478.95
2670.28
1468.28
104.186
235.529
386.707
366.517
742.923
5257.85
9728.29
9792.67
8197.99
6177.62
4914.45
3773.44
2774.31
1990.3
2076.6
2322.9
2271.04
2175.92
1884.27
264.434
35.8396
72.2154
51.3169
679.53
4685.66
13526.2
12279.6
3116.82
1019.8
922.032
637.356
314.522
4.06467
13515.4
13503.4
13463.4
13370.5
11675.9
11219.8
10421.1
9332.27
3037.41
2872.04
2552.94
2070.51
1013.36
1005.16
991.777
973.784
874.712
842.535
807.665
770.078
589.974
550.261
504.865
465.902
249.307
208.853
157.322
79.7992
1.66
1.14235
1.0203
1.00417
1.00011
1.00017
1.00017
1.00014
1.00002
1.00002
1.00003
1.00004
1.00004
1.00003
1.00003
1.00002
1.00003
1.00002
1.00002
1.00002
1.00001
1.00001
1.00001
1.00002
1
1.00001
1.00001
1.00001
1
1
1
1
1
1
1
1
1
0.999999
0.999999
0.999999
11963.7
9144.08
4992.61
2992.43
2326.33
1756.77
1376.73
1087.97
949.778
885.86
889.211
1052.75
2102.2
1869.19
1031.53
164.37
51.5377
487.532
4083.53
6129.83
3275.52
2120.9
1570.25
1130.46
977.046
893.226
867.243
841.187
820.81
806.364
807.117
875.711
2069.88
1906.84
1628.79
268.769
734.036
3025.94
1676.68
1165.84
983.74
907.508
864.594
849.055
849.109
852.25
852.971
853.056
850.947
848.548
842.125
869.162
1257.72
1653.64
1186.34
910.516
2093.19
928.04
840.465
766.349
709.584
678.086
676.803
690.285
716.447
732.975
742.683
757.623
781.157
787.488
794.72
811.996
898.817
1111.76
944.673
1564.82
699.252
584.238
437.625
279.948
200.45
245.989
325.754
375.05
400.769
450.495
488.318
517.568
590.445
682.013
714.062
746.188
765.249
732.647
1276.77
372.616
210.472
39.5472
3.68064
1.19528
1.50565
4.79884
19.5065
28.7365
33.3277
28.7871
21.9252
48.696
153.392
436.897
625.649
681.885
652.637
1060.14
16.5367
1.67202
1.00859
1.00037
1.00044
1.01792
1.12324
1.53396
3.26717
4.08784
4.05753
4.23107
5.42302
13.5767
222.297
509.683
618.991
629.364
919.96
1.00121
1.00017
1.00005
1.00006
1.00012
1.0005
1.69106
16.341
61.9332
157.687
341.304
346.344
321.602
274.119
231.572
434.788
576.439
605.064
821.868
1.00008
1.00005
1.00005
1.00013
1.00038
1.02681
7.9079
132.431
400.458
490.114
498.319
499.006
496.382
480.909
355.855
366.271
541.481
583.579
744.59
1.00004
1.00006
1.00017
1.00032
1.00075
1.20148
22.3087
220.119
465.14
499.245
500.225
500.291
500.082
486.088
396.255
367.326
446.291
565.793
674.73
1.00003
1.00012
1.00027
1.00045
1.00081
1.10401
11.1624
125.567
376.84
487.119
499.559
500.262
500.325
497.215
457.815
387.29
467.303
550.834
611.952
1.00004
1.00013
1.00022
1.00031
1.00065
1.00244
1.20629
10.6617
115.471
367.822
487.319
499.866
500.297
500.273
497.498
490.327
509.671
535.014
564.004
1.00003
1.00007
1.00007
1.00013
1.00022
1.00053
1.00122
1.05925
8.18669
109.812
369.302
488.093
500.014
500.464
500.734
503.6
510.158
520.163
532.131
1.00001
1.00001
1.00003
1.00005
1.00008
1.00017
1.00047
1.00146
1.04815
5.19253
82.2105
335.157
487.191
500.121
500.526
500.952
503.789
508.106
511.665
1.00001
1.00001
1.00001
1.00002
1.00004
1.00008
1.00016
1.0004
1.00167
1.02809
3.09847
48.3388
286.844
480.192
500.132
500.508
500.825
501.642
501.878
1
1
1
1.00001
1.00002
1.00004
1.0001
1.00019
1.0004
1.0017
1.00864
1.85772
29.8427
232.694
464.146
499.612
500.096
499.937
499.805
0.999999
0.999999
1
1
1.00001
1.00003
1.00006
1.00014
1.00026
1.00058
1.00169
1.00323
1.50485
19.1061
122.898
307.497
436.075
493.938
496.763
)
;

boundaryField
{
    leftWall
    {
        type            calculated;
        value           nonuniform 0();
    }
    rightWall
    {
        type            calculated;
        value           nonuniform List<scalar> 
25
(
7162.53
7172.33
7181.66
7190.84
6353.36
5642.58
5257.85
4685.66
4083.53
3025.94
2093.19
1564.82
1276.77
1060.14
919.96
821.868
744.59
674.73
611.952
564.004
532.131
511.665
501.878
499.805
496.763
)
;
    }
    lowerWall
    {
        type            calculated;
        value           nonuniform List<scalar> 
40
(
13528.9
13528.9
13528.8
13528.8
13528.8
13528.8
13528.8
13528.8
13528.7
13515.4
13503.4
13463.4
13370.5
1180.81
791.078
973.893
1358.89
2327.84
4401.69
7332.8
9728.29
1180.81
1754.13
1860.73
1881.95
1903.5
2231.76
2887.09
3594.16
4264.33
5056.31
5399.01
5592.41
5680.89
5734.21
5787.13
6168.39
7116.24
7151.67
7162.53
)
;
    }
    atmosphere
    {
        type            calculated;
        value           nonuniform 0();
    }
    defaultFaces
    {
        type            empty;
    }
    procBoundary1to0
    {
        type            processor;
        value           nonuniform List<scalar> 
26
(
13529
13529
13529
13529
13529
13529
13529
13529
13522.4
11964.5
2243.17
1017.63
967.894
687.191
385.268
13.1807
1.0001
1.0001
1.00003
1.00003
1.00004
1.00002
1
1
1
1
)
;
    }
    procBoundary1to3
    {
        type            processor;
        value           nonuniform List<scalar> 
23
(
0.999999
0.999999
0.999999
0.999999
0.999999
0.999998
0.999998
0.999999
1
1.00001
1.00005
1.00011
1.00024
1.00045
1.00115
1.00139
1.00246
1.25897
5.61879
19.7894
30.8234
249.099
491.909
)
;
    }
}


// ************************************************************************* //
