/*--------------------------------*- C++ -*----------------------------------*\
| =========                 |                                                 |
| \\      /  F ield         | OpenFOAM: The Open Source CFD Toolbox           |
|  \\    /   O peration     | Version:  2.4.0                                 |
|   \\  /    A nd           | Web:      www.OpenFOAM.org                      |
|    \\/     M anipulation  |                                                 |
\*---------------------------------------------------------------------------*/
FoamFile
{
    version     2.0;
    format      ascii;
    class       volVectorField;
    location    "0.55";
    object      U;
}
// * * * * * * * * * * * * * * * * * * * * * * * * * * * * * * * * * * * * * //

dimensions      [0 1 -1 0 0 0 0];

internalField   nonuniform List<vector> 
559
(
(-0.0166866 0.00255125 0)
(-0.0156082 -0.000493388 0)
(0.0244647 0.0116485 0)
(0.0179967 0.0302995 0)
(0.0246527 0.0419889 0)
(0.013373 0.0580945 0)
(0.00831705 0.0548736 0)
(0.00989631 0.0565924 0)
(-0.177109 -0.0600702 0)
(-0.177729 -0.170472 0)
(0.00315649 -0.180235 0)
(0.161112 -0.175171 0)
(0.212825 -0.183992 0)
(0.278763 -0.225925 0)
(0.375324 -0.269905 0)
(0.451975 -0.298116 0)
(0.494692 -0.318293 0)
(0.503013 -0.340154 0)
(0.500153 -0.323445 0)
(0.545868 -0.301848 0)
(0.649219 -0.32086 0)
(0.666874 -0.356861 0)
(0.507486 -0.486896 0)
(0.237845 -0.592835 0)
(0.0868431 -0.266794 0)
(-0.0158278 -0.143349 0)
(0.110321 -0.208387 0)
(-0.135077 0.169955 0)
(-0.108848 0.0626938 0)
(0.150072 -0.0472323 0)
(0.356964 0.0343185 0)
(0.464704 0.0937807 0)
(0.57924 0.105118 0)
(0.694439 0.107187 0)
(0.76405 0.140116 0)
(0.803763 0.185739 0)
(0.78471 0.218199 0)
(0.756515 0.181777 0)
(0.77989 0.104246 0)
(0.877582 0.114072 0)
(1.001 0.224028 0)
(0.947325 0.454686 0)
(0.330738 0.615072 0)
(0.0826678 0.308883 0)
(0.214453 0.039383 0)
(0.257864 0.142251 0)
(-0.110585 0.160539 0)
(0.0504848 -0.191641 0)
(0.249454 -0.267489 0)
(0.405954 -0.197243 0)
(0.564601 -0.151367 0)
(0.72084 -0.163465 0)
(0.794465 -0.176012 0)
(0.83573 -0.151311 0)
(0.872957 -0.103568 0)
(0.859943 -0.0672984 0)
(0.835181 -0.0812303 0)
(0.835285 -0.151265 0)
(0.913154 -0.187758 0)
(1.02146 -0.0530667 0)
(0.914017 0.279753 0)
(0.422106 0.173285 0)
(0.010529 0.0268993 0)
(-0.0949484 0.0754491 0)
(0.170914 0.102009 0)
(-0.0164825 0.171997 0)
(0.215819 -0.187999 0)
(0.331795 -0.293474 0)
(0.436088 -0.210714 0)
(0.589186 -0.132309 0)
(0.717878 -0.106393 0)
(0.779106 -0.0896183 0)
(0.796356 -0.0525765 0)
(0.821109 0.0112629 0)
(0.814721 0.0647835 0)
(0.796548 0.0458816 0)
(0.782907 -0.0744571 0)
(0.798873 -0.134173 0)
(0.911143 0.0416277 0)
(0.897657 0.440337 0)
(0.476508 0.496373 0)
(0.0869184 0.269191 0)
(-0.40092 -0.0527759 0)
(0.167889 0.0992248 0)
(0.15533 0.113587 0)
(0.297335 -0.261175 0)
(0.371442 -0.343741 0)
(0.439778 -0.273246 0)
(0.557986 -0.205294 0)
(0.658095 -0.172165 0)
(0.700144 -0.138597 0)
(0.696289 -0.102878 0)
(0.70198 -0.0356921 0)
(0.701728 0.0357162 0)
(0.699125 0.00801015 0)
(0.7059 -0.147263 0)
(0.748202 -0.226821 0)
(0.882015 -0.0344093 0)
(0.912299 0.512541 0)
(0.512778 0.73221 0)
(0.29378 0.458043 0)
(-0.336899 -0.05254 0)
(0.180037 0.0945782 0)
(0.275071 -0.013889 0)
(0.323925 -0.3017 0)
(0.387384 -0.376749 0)
(0.437392 -0.313681 0)
(0.520256 -0.24443 0)
(0.600866 -0.197998 0)
(0.648393 -0.140143 0)
(0.646229 -0.0862904 0)
(0.619671 -0.0275499 0)
(0.612287 0.068319 0)
(0.63115 0.0264648 0)
(0.63417 -0.141888 0)
(0.610391 -0.207202 0)
(0.770831 -0.0108249 0)
(0.898227 0.494365 0)
(0.554128 0.769205 0)
(0.170486 0.493415 0)
(-0.321747 -0.0682609 0)
(0.16939 0.124195 0)
(0.310571 -0.190653 0)
(0.31704 -0.367772 0)
(0.396363 -0.401506 0)
(0.441646 -0.355236 0)
(0.499122 -0.301996 0)
(0.569002 -0.246195 0)
(0.612312 -0.170869 0)
(0.59627 -0.100775 0)
(0.53459 0.00344878 0)
(0.526778 0.0330495 0)
(0.555242 0.00474099 0)
(0.535096 -0.169962 0)
(0.371502 -0.111982 0)
(-0.377666 0.250185 0)
(0.783479 0.521816 0)
(0.713835 0.873254 0)
(0.155807 0.695201 0)
(-0.236545 -0.214683 0)
(0.190281 0.122468 0)
(0.32479 -0.295718 0)
(0.322141 -0.412365 0)
(0.401023 -0.419204 0)
(0.449479 -0.369105 0)
(0.513195 -0.314008 0)
(0.569657 -0.253262 0)
(0.600245 -0.1459 0)
(0.570162 -0.0270706 0)
(0.509224 0.00849542 0)
(0.520204 -0.00501933 0)
(0.531183 -0.0212331 0)
(0.441861 -0.109188 0)
(0.173214 -0.0444153 0)
(-0.483319 0.256369 0)
(-0.920189 0.810756 0)
(0.624716 0.994811 0)
(-0.33961 1.10741 0)
(-0.263579 -0.0687987 0)
(0.212059 0.139286 0)
(0.0610002 0.0547606 0)
(0.0594445 -0.152095 0)
(0.312958 -0.0699912 0)
(0.631403 -0.170089 0)
(0.552704 -0.242494 0)
(0.411839 -0.264218 0)
(0.129131 -0.303764 0)
(-0.0220001 0.378473 0)
(0.149396 0.0401977 0)
(0.181698 0.0356989 0)
(0.209323 0.00602283 0)
(0.280192 -0.0361927 0)
(0.12299 -0.19771 0)
(0.177628 -0.205667 0)
(0.224285 -0.253052 0)
(0.315067 -0.307566 0)
(0.377283 -0.146069 0)
(0.402624 -0.186062 0)
(0.462193 -0.257575 0)
(0.493199 -0.310811 0)
(0.662586 -0.244207 0)
(0.669028 -0.275332 0)
(0.681499 -0.324788 0)
(0.68782 -0.365477 0)
(0.569844 -0.323792 0)
(0.577609 -0.362775 0)
(0.594248 -0.415268 0)
(0.606807 -0.458525 0)
(0.400282 -0.3281 0)
(0.414725 -0.344475 0)
(0.423416 -0.37234 0)
(0.417052 -0.40671 0)
(0.145892 -0.360004 0)
(0.189008 -0.402674 0)
(0.211862 -0.455118 0)
(0.223352 -0.397448 0)
(-0.0435204 0.409541 0)
(-0.0963049 0.390207 0)
(-0.157399 0.298166 0)
(-0.205605 0.100656 0)
(0.275984 -0.676198 0)
(0.311426 -0.717766 0)
(0.353335 -0.738005 0)
(0.384656 -0.702617 0)
(0.366074 -0.247847 0)
(0.345661 -0.253711 0)
(0.313258 -0.273977 0)
(0.275579 -0.291546 0)
(0.0973455 -0.249626 0)
(0.07668 -0.282672 0)
(0.056625 -0.312737 0)
(0.039358 -0.341582 0)
(0.0823759 -0.283563 0)
(0.0562619 -0.288886 0)
(0.0332926 -0.292365 0)
(0.00400833 -0.295244 0)
(-0.0670198 -0.16991 0)
(-0.0733339 -0.191722 0)
(-0.0805974 -0.203302 0)
(-0.0937544 -0.212942 0)
(-0.0713554 -0.21093 0)
(-0.0803505 -0.216068 0)
(-0.0894267 -0.215751 0)
(-0.101662 -0.217698 0)
(-0.0877567 -0.178106 0)
(-0.0950342 -0.183958 0)
(-0.100454 -0.187765 0)
(-0.109542 -0.192099 0)
(-0.0894198 -0.167733 0)
(-0.0955678 -0.169195 0)
(-0.100025 -0.172711 0)
(-0.108898 -0.176481 0)
(-0.0951751 -0.16105 0)
(-0.0993707 -0.161987 0)
(-0.10225 -0.165247 0)
(-0.109271 -0.168151 0)
(0.368091 -0.340426 0)
(0.374668 -0.475814 0)
(0.41659 -0.442496 0)
(0.467997 -0.355122 0)
(0.520429 -0.289636 0)
(0.545665 -0.187681 0)
(0.528201 -0.0965381 0)
(0.499528 -0.00749682 0)
(0.484402 0.0888666 0)
(0.468142 0.157272 0)
(0.405917 0.188997 0)
(0.296731 0.051845 0)
(0.212469 -0.0439805 0)
(0.220905 0.140345 0)
(0.264542 0.120427 0)
(0.514884 0.637525 0)
(-0.0796732 2.28724 0)
(-0.0634297 -0.102641 0)
(0.351344 0.0568045 0)
(0.385566 -0.429378 0)
(0.423498 -0.445665 0)
(0.461665 -0.454563 0)
(0.468812 -0.413664 0)
(0.497104 -0.308909 0)
(0.493745 -0.1878 0)
(0.473707 -0.0880229 0)
(0.466731 -0.0271853 0)
(0.471274 0.0079477 0)
(0.493151 0.0160229 0)
(0.547411 0.0508577 0)
(0.566074 0.141051 0)
(0.441711 0.24698 0)
(0.450523 -0.0115104 0)
(0.403137 0.168755 0)
(0.412766 0.239752 0)
(0.573137 1.29613 0)
(0.487947 0.424671 0)
(0.444449 0.180215 0)
(0.541496 -0.399682 0)
(0.609001 -0.473109 0)
(0.630906 -0.455039 0)
(0.631538 -0.404389 0)
(0.605049 -0.329622 0)
(0.593192 -0.230213 0)
(0.59578 -0.135351 0)
(0.611565 -0.0465425 0)
(0.634937 -0.00807861 0)
(0.667304 -0.00367494 0)
(0.699935 0.0126531 0)
(0.718396 0.0245559 0)
(0.751838 0.0711991 0)
(0.705942 0.228577 0)
(0.575313 0.409058 0)
(0.47907 0.425164 0)
(0.490826 0.823149 0)
(0.577702 0.829355 0)
(0.479369 0.522554 0)
(0.697172 -0.447832 0)
(0.699322 -0.53269 0)
(0.72055 -0.560276 0)
(0.739479 -0.511885 0)
(0.738578 -0.417624 0)
(0.689208 -0.269548 0)
(0.657427 -0.153604 0)
(0.671131 -0.0684782 0)
(0.689263 -0.0481785 0)
(0.721222 -0.0203275 0)
(0.759838 0.043405 0)
(0.765091 0.122506 0)
(0.796661 0.202785 0)
(0.733491 0.285343 0)
(0.71332 0.387545 0)
(0.636262 0.56149 0)
(0.60362 0.803248 0)
(0.492607 1.05878 0)
(0.37155 0.969975 0)
(0.616988 -0.525673 0)
(0.640494 -0.567971 0)
(0.631689 -0.555641 0)
(0.666217 -0.425495 0)
(0.639632 -0.256866 0)
(0.542556 -0.190571 0)
(0.456284 -0.139198 0)
(0.514457 -0.0709642 0)
(0.589438 -0.0900747 0)
(0.685017 -0.0840317 0)
(0.778878 -0.100193 0)
(0.886908 -0.0748663 0)
(0.974416 0.0495383 0)
(0.808772 0.112092 0)
(0.778078 0.339538 0)
(0.699709 0.601452 0)
(0.6891 0.871531 0)
(0.396646 1.18109 0)
(0.258281 1.28625 0)
(0.413263 -0.47223 0)
(0.445276 -0.523894 0)
(0.390837 -0.304595 0)
(0.484645 0.209061 0)
(0.517372 0.676291 0)
(0.520507 0.896359 0)
(0.548786 0.828603 0)
(0.715057 0.282636 0)
(0.943663 0.211572 0)
(1.01201 0.211501 0)
(1.10881 0.273065 0)
(1.05113 0.464781 0)
(0.737099 0.383814 0)
(0.585439 0.382255 0)
(0.837381 0.220095 0)
(0.6938 0.619434 0)
(0.707586 0.964395 0)
(0.371334 1.35421 0)
(0.185272 1.51215 0)
(0.196289 -0.0541819 0)
(0.0861886 0.169268 0)
(-0.0331712 -0.341997 0)
(-0.00596492 -0.750415 0)
(0.259187 -0.866691 0)
(0.683261 -1.00635 0)
(1.24575 -0.854679 0)
(1.86415 -0.703445 0)
(2.07764 -0.516366 0)
(2.23261 -0.232836 0)
(2.20915 -0.0964339 0)
(2.19823 0.506231 0)
(2.06465 0.995311 0)
(1.50806 1.50965 0)
(0.942686 0.682767 0)
(0.68888 0.776436 0)
(0.681547 1.15181 0)
(0.356492 1.59036 0)
(0.17231 1.70265 0)
(-0.101301 -0.462596 0)
(0.0562527 -0.747981 0)
(0.207519 -0.749561 0)
(0.24418 -0.628333 0)
(0.361484 -0.489129 0)
(0.445291 -0.500206 0)
(0.687911 -0.895864 0)
(0.491287 -0.696762 0)
(-0.168808 -0.152269 0)
(-0.243294 0.00507739 0)
(-0.27554 0.020715 0)
(-0.148671 0.133775 0)
(0.111497 0.288843 0)
(0.447052 0.592598 0)
(0.807023 0.919391 0)
(0.589041 0.955898 0)
(0.560663 1.28715 0)
(0.318993 1.82316 0)
(0.232983 1.95183 0)
(0.383238 -0.680972 0)
(0.305295 -0.623838 0)
(0.195123 -0.565952 0)
(0.0722188 -0.533622 0)
(-0.0239067 -0.585158 0)
(-0.114709 -0.67668 0)
(-0.0399521 -0.61539 0)
(-0.626138 -0.211336 0)
(-0.649032 -0.177052 0)
(-0.586172 -0.164113 0)
(-0.459293 -0.131337 0)
(-0.359404 -0.0618403 0)
(-0.198749 0.0752207 0)
(-0.0480462 0.283942 0)
(0.326657 0.755169 0)
(0.349724 1.04298 0)
(0.372987 1.35558 0)
(0.180911 2.03304 0)
(0.127764 2.1772 0)
(0.213601 -0.363111 0)
(0.0822251 -0.381264 0)
(-0.0865865 -0.417725 0)
(-0.204881 -0.480026 0)
(-0.298579 -0.537632 0)
(-0.434685 -0.590537 0)
(-0.598519 -0.406869 0)
(-0.794642 -0.230218 0)
(-0.74563 -0.189208 0)
(-0.692632 -0.181981 0)
(-0.645921 -0.183796 0)
(-0.579641 -0.152013 0)
(-0.499976 -0.0422812 0)
(-0.432674 0.160173 0)
(-0.195197 0.575405 0)
(-0.0174289 0.993786 0)
(0.0703294 1.55034 0)
(-0.0512718 2.09986 0)
(0.0168305 2.22716 0)
(-0.00861564 -0.372664 0)
(-0.0969253 -0.376238 0)
(-0.176422 -0.376797 0)
(-0.258745 -0.366655 0)
(-0.371697 -0.372173 0)
(-0.544861 -0.338788 0)
(-0.71912 -0.258233 0)
(-0.881443 -0.227091 0)
(-0.812025 -0.199839 0)
(-0.785559 -0.203697 0)
(-0.770055 -0.206035 0)
(-0.751536 -0.184208 0)
(-0.759034 -0.0958995 0)
(-0.758762 0.0608804 0)
(-0.660763 0.392178 0)
(-0.501382 0.895906 0)
(-0.239334 1.56394 0)
(-0.25737 2.03585 0)
(-0.0436856 2.15264 0)
(-0.0529218 -0.289085 0)
(-0.131637 -0.285072 0)
(-0.186859 -0.287185 0)
(-0.246387 -0.28336 0)
(-0.327944 -0.276957 0)
(-0.437456 -0.190633 0)
(-0.512579 -0.0957998 0)
(-0.563376 -0.232835 0)
(-0.829538 -0.262412 0)
(-0.827734 -0.203547 0)
(-0.84855 -0.173887 0)
(-0.854136 -0.149448 0)
(-0.915816 -0.0792125 0)
(-1.00337 0.0449739 0)
(-1.00985 0.298395 0)
(-0.90444 0.808301 0)
(-0.595018 1.47284 0)
(-0.464688 1.8594 0)
(-0.174693 1.95715 0)
(-0.108175 -0.2221 0)
(-0.143715 -0.240073 0)
(-0.177345 -0.24984 0)
(-0.217433 -0.239447 0)
(-0.27338 -0.218458 0)
(-0.323319 -0.157492 0)
(-0.343897 -0.0286934 0)
(-0.382228 0.0862459 0)
(-0.455678 -0.214296 0)
(-0.852381 -0.258698 0)
(-0.877086 -0.145506 0)
(-0.902343 -0.0793838 0)
(-0.962708 0.00050398 0)
(-1.10606 0.104709 0)
(-1.19858 0.263054 0)
(-1.14909 0.631076 0)
(-0.856167 1.1871 0)
(-0.607808 1.5214 0)
(-0.221199 1.5027 0)
(-0.117485 -0.217357 0)
(-0.145863 -0.223147 0)
(-0.172085 -0.22118 0)
(-0.208718 -0.203285 0)
(-0.242673 -0.175198 0)
(-0.264298 -0.126687 0)
(-0.267705 -0.0564415 0)
(-0.234679 0.0611644 0)
(-0.240884 0.218981 0)
(-0.382582 -0.0667136 0)
(-0.841723 -0.200041 0)
(-0.907078 -0.0560055 0)
(-0.930107 0.0647715 0)
(-1.05702 0.183935 0)
(-1.21907 0.298765 0)
(-1.21324 0.526899 0)
(-0.98265 0.893986 0)
(-0.625573 1.14665 0)
(-0.294811 1.10413 0)
(-0.12033 -0.194121 0)
(-0.137395 -0.194537 0)
(-0.156105 -0.188516 0)
(-0.178645 -0.17846 0)
(-0.202097 -0.159445 0)
(-0.218091 -0.120705 0)
(-0.215267 -0.0596751 0)
(-0.180416 0.0136944 0)
(-0.134807 0.144857 0)
(-0.0491942 0.342756 0)
(-0.279585 0.246016 0)
(-0.756383 -0.18316 0)
(-0.936735 0.0904568 0)
(-0.95619 0.239312 0)
(-1.10694 0.407198 0)
(-1.17024 0.537311 0)
(-1.02684 0.707451 0)
(-0.631143 0.790295 0)
(-0.26405 0.636993 0)
(-0.118631 -0.177872 0)
(-0.136841 -0.182192 0)
(-0.157293 -0.174102 0)
(-0.17321 -0.160693 0)
(-0.183751 -0.141999 0)
(-0.186383 -0.11455 0)
(-0.176817 -0.0798957 0)
(-0.137327 -0.0359842 0)
(-0.0893322 0.0584389 0)
(0.0405442 0.226578 0)
(0.197157 0.65808 0)
(-0.305061 0.437788 0)
(-0.772687 0.000417049 0)
(-1.00154 0.295486 0)
(-0.989346 0.409149 0)
(-1.04613 0.470658 0)
(-0.959573 0.53243 0)
(-0.505559 0.364476 0)
(-0.173707 0.294473 0)
(-0.1173 -0.16857 0)
(-0.12927 -0.168907 0)
(-0.142987 -0.161389 0)
(-0.153525 -0.153202 0)
(-0.159564 -0.141599 0)
(-0.160752 -0.122335 0)
(-0.148362 -0.0998473 0)
(-0.105999 -0.0781749 0)
(-0.0722478 -0.0183935 0)
(0.0711782 0.0967384 0)
(0.241432 0.624292 0)
(0.12034 0.948055 0)
(-0.628653 0.48157 0)
(-0.860936 0.427456 0)
(-0.958212 0.508285 0)
(-0.901226 0.492591 0)
(-0.595985 0.134217 0)
(-0.381043 -0.0902973 0)
(-0.199443 0.0398499 0)
)
;

boundaryField
{
    leftWall
    {
        type            calculated;
        value           nonuniform 0();
    }
    rightWall
    {
        type            calculated;
        value           uniform (0 0 0);
    }
    lowerWall
    {
        type            calculated;
        value           uniform (0 0 0);
    }
    atmosphere
    {
        type            calculated;
        value           nonuniform 0();
    }
    defaultFaces
    {
        type            empty;
    }
    procBoundary1to0
    {
        type            processor;
        value           nonuniform List<vector> 
26
(
(0.0221247 0.00909176 0)
(0.0269707 0.019494 0)
(0.0496216 0.0312444 0)
(0.0468914 0.0366992 0)
(0.0324195 0.0348158 0)
(0.00282971 0.040334 0)
(-0.0119496 0.0371919 0)
(-0.00974154 0.0354271 0)
(-0.00644382 0.0423864 0)
(-0.00196878 -0.161532 0)
(0.327217 0.032475 0)
(0.575482 -0.0928695 0)
(0.493475 -0.144011 0)
(0.365811 -0.178518 0)
(0.0832495 -0.268382 0)
(-0.0452454 0.223162 0)
(0.244408 -0.614621 0)
(0.244408 -0.614621 0)
(0.39841 -0.255496 0)
(0.13035 -0.19527 0)
(0.12175 -0.287143 0)
(-0.0522368 -0.138952 0)
(-0.0634471 -0.203766 0)
(-0.0806694 -0.168138 0)
(-0.0837739 -0.167648 0)
(-0.088679 -0.162618 0)
)
;
    }
    procBoundary1to3
    {
        type            processor;
        value           nonuniform List<vector> 
23
(
(-0.0928069 -0.151448 0)
(-0.0961473 -0.152695 0)
(-0.0986392 -0.152878 0)
(-0.104507 -0.152795 0)
(-0.112158 -0.15267 0)
(-0.124914 -0.151084 0)
(-0.139129 -0.145757 0)
(-0.151457 -0.140297 0)
(-0.155897 -0.133527 0)
(-0.155026 -0.123884 0)
(-0.140679 -0.120387 0)
(-0.103538 -0.122746 0)
(-0.0816117 -0.0993902 0)
(0.0756856 -0.00394736 0)
(0.133182 0.482778 0)
(0.348211 1.27023 0)
(-0.309126 0.893095 0)
(-0.704594 0.62492 0)
(-0.802675 0.52524 0)
(-0.855844 0.448918 0)
(-0.823099 0.477251 0)
(-0.351119 -0.141004 0)
(-0.0826074 -0.279883 0)
)
;
    }
}


// ************************************************************************* //
