/*--------------------------------*- C++ -*----------------------------------*\
| =========                 |                                                 |
| \\      /  F ield         | OpenFOAM: The Open Source CFD Toolbox           |
|  \\    /   O peration     | Version:  2.4.0                                 |
|   \\  /    A nd           | Web:      www.OpenFOAM.org                      |
|    \\/     M anipulation  |                                                 |
\*---------------------------------------------------------------------------*/
FoamFile
{
    version     2.0;
    format      ascii;
    class       volVectorField;
    location    "0.55";
    object      U.air;
}
// * * * * * * * * * * * * * * * * * * * * * * * * * * * * * * * * * * * * * //

dimensions      [0 1 -1 0 0 0 0];

internalField   nonuniform List<vector> 
559
(
(-0.0166869 0.00255139 0)
(-0.0156085 -0.000492604 0)
(0.0244645 0.0116501 0)
(0.0179965 0.0303015 0)
(0.0246527 0.0419916 0)
(0.0133731 0.0580973 0)
(0.00831712 0.0548758 0)
(0.00989651 0.0565938 0)
(-0.0920017 -0.313175 0)
(-0.0535881 -0.398252 0)
(0.0835846 -0.412887 0)
(0.186918 -0.403176 0)
(0.243655 -0.405908 0)
(0.331245 -0.427648 0)
(0.414788 -0.442691 0)
(0.475669 -0.427014 0)
(0.507804 -0.377381 0)
(0.514469 -0.358472 0)
(0.515214 -0.342747 0)
(0.55911 -0.333765 0)
(0.650207 -0.3159 0)
(0.65126 -0.122166 0)
(0.47712 -0.242593 0)
(0.224355 -0.468697 0)
(0.111225 -0.307469 0)
(0.0148036 -0.206492 0)
(0.126414 -0.236694 0)
(-0.0530466 -0.069449 0)
(0.0177489 -0.227661 0)
(0.211664 -0.324488 0)
(0.357793 -0.258874 0)
(0.467721 -0.202344 0)
(0.594364 -0.201439 0)
(0.691882 -0.206916 0)
(0.761678 -0.166364 0)
(0.81876 -0.0817905 0)
(0.81186 -0.0284643 0)
(0.77584 -0.0392231 0)
(0.780707 -0.102073 0)
(0.904421 -0.0661617 0)
(1.07627 0.296222 0)
(1.02719 0.39592 0)
(0.455623 0.217977 0)
(0.223413 -0.0485721 0)
(0.246397 0.00696589 0)
(0.276098 0.127793 0)
(-0.0304198 -0.0826865 0)
(0.131726 -0.368997 0)
(0.275501 -0.43592 0)
(0.391594 -0.37491 0)
(0.527998 -0.333119 0)
(0.665833 -0.34311 0)
(0.737443 -0.352676 0)
(0.778087 -0.331292 0)
(0.832558 -0.288843 0)
(0.847686 -0.212766 0)
(0.82583 -0.157703 0)
(0.813561 -0.220701 0)
(0.879323 -0.329603 0)
(0.945812 -0.195872 0)
(0.831331 0.0433059 0)
(0.470665 -0.163501 0)
(0.231497 -0.0597874 0)
(0.0850414 -0.266746 0)
(0.124259 0.103679 0)
(0.060963 -0.0724276 0)
(0.253177 -0.222296 0)
(0.330825 -0.343854 0)
(0.412709 -0.363009 0)
(0.543487 -0.312321 0)
(0.664603 -0.297692 0)
(0.727436 -0.283976 0)
(0.74771 -0.253646 0)
(0.777909 -0.202216 0)
(0.77895 -0.128504 0)
(0.778975 -0.0598595 0)
(0.754096 -0.119852 0)
(0.721485 -0.103559 0)
(0.761984 -0.119571 0)
(0.795423 0.154227 0)
(0.564069 0.362634 0)
(0.296147 0.316373 0)
(-0.0938152 -0.12611 0)
(0.0316314 0.0911326 0)
(0.19536 -0.0857407 0)
(0.33673 -0.0433885 0)
(0.410897 -0.185786 0)
(0.437707 -0.282745 0)
(0.52723 -0.332757 0)
(0.618942 -0.32044 0)
(0.660263 -0.298491 0)
(0.658285 -0.275233 0)
(0.664379 -0.229825 0)
(0.672017 -0.193793 0)
(0.67245 -0.183449 0)
(0.733333 -0.187049 0)
(0.847831 0.298195 0)
(0.755013 0.0754488 0)
(0.692888 0.285694 0)
(0.499642 0.245623 0)
(0.401205 0.530839 0)
(0.031145 0.0171853 0)
(0.0768934 0.0589102 0)
(0.282617 -0.000868549 0)
(0.366097 -0.0778962 0)
(0.458433 -0.12176 0)
(0.473798 -0.0971995 0)
(0.517911 -0.169722 0)
(0.57335 -0.288156 0)
(0.619344 -0.292977 0)
(0.621081 -0.26156 0)
(0.604062 -0.219338 0)
(0.608918 -0.168998 0)
(0.637636 -0.200147 0)
(0.718236 0.011752 0)
(0.73097 0.157303 0)
(0.765056 0.366136 0)
(0.679121 1.10004 0)
(0.352167 1.44909 0)
(0.219074 1.29132 0)
(-0.110392 0.258922 0)
(0.0290281 0.122375 0)
(0.296785 0.110209 0)
(0.33702 -0.0901298 0)
(0.456249 -0.118875 0)
(0.482464 -0.011413 0)
(0.532772 0.0823364 0)
(0.577475 -0.0358267 0)
(0.59207 -0.276866 0)
(0.579702 -0.299747 0)
(0.53886 -0.240398 0)
(0.546167 -0.219017 0)
(0.56447 -0.210799 0)
(0.478958 0.247131 0)
(0.347455 0.0383588 0)
(-0.410005 0.274978 0)
(0.68021 0.668461 0)
(0.63831 1.4306 0)
(0.097171 1.35915 0)
(-0.56873 0.257512 0)
(-0.11881 0.141551 0)
(0.295222 -0.0439055 0)
(0.323846 -0.133963 0)
(0.457589 -0.14073 0)
(0.489215 -0.0509312 0)
(0.549568 0.0668099 0)
(0.603785 0.264945 0)
(0.593189 -0.0266641 0)
(0.565137 -0.284184 0)
(0.536454 -0.28223 0)
(0.545161 -0.271452 0)
(0.532908 -0.252085 0)
(0.255911 0.397214 0)
(-0.000702179 0.185163 0)
(-0.521012 0.282664 0)
(-1.00354 0.837226 0)
(0.54766 1.03678 0)
(-0.407446 1.17642 0)
(-0.55465 0.0438844 0)
(-0.478002 0.128859 0)
(0.0610002 0.0547683 0)
(0.0593776 -0.154929 0)
(0.296695 -0.170853 0)
(0.618074 -0.179892 0)
(0.570596 -0.0993753 0)
(0.51483 0.0587452 0)
(0.158412 -0.0964337 0)
(-0.0221108 0.386405 0)
(0.149422 0.0404461 0)
(0.182104 0.0364264 0)
(0.210115 0.00879788 0)
(0.353672 -0.0361301 0)
(0.122105 -0.204329 0)
(0.175984 -0.215406 0)
(0.220717 -0.268185 0)
(0.308782 -0.330287 0)
(0.35329 -0.242678 0)
(0.374766 -0.286415 0)
(0.43364 -0.363561 0)
(0.461888 -0.430316 0)
(0.651337 -0.226882 0)
(0.663942 -0.220968 0)
(0.679176 -0.246458 0)
(0.690318 -0.262568 0)
(0.605924 -0.14061 0)
(0.645857 -0.139192 0)
(0.691644 -0.173696 0)
(0.723491 -0.199598 0)
(0.484494 0.00456856 0)
(0.493852 -0.0146528 0)
(0.49964 -0.0555955 0)
(0.484405 -0.0985472 0)
(0.174244 -0.193366 0)
(0.223831 -0.263028 0)
(0.247721 -0.345906 0)
(0.241467 -0.322648 0)
(-0.0436184 0.411505 0)
(-0.0963459 0.390678 0)
(-0.157409 0.298228 0)
(-0.205607 0.100663 0)
(0.275984 -0.676198 0)
(0.311426 -0.717766 0)
(0.353335 -0.738005 0)
(0.384655 -0.702616 0)
(0.366075 -0.247847 0)
(0.345661 -0.253711 0)
(0.313258 -0.273977 0)
(0.275579 -0.291546 0)
(0.0973455 -0.249625 0)
(0.0766799 -0.282672 0)
(0.0566249 -0.312736 0)
(0.039358 -0.341582 0)
(0.0823758 -0.283563 0)
(0.0562618 -0.288886 0)
(0.0332925 -0.292365 0)
(0.00400833 -0.295244 0)
(-0.0670198 -0.16991 0)
(-0.0733338 -0.191721 0)
(-0.0805974 -0.203302 0)
(-0.0937544 -0.212942 0)
(-0.0713553 -0.210929 0)
(-0.0803504 -0.216068 0)
(-0.0894266 -0.215751 0)
(-0.101662 -0.217698 0)
(-0.0877566 -0.178106 0)
(-0.0950341 -0.183958 0)
(-0.100454 -0.187764 0)
(-0.109542 -0.192099 0)
(-0.0894197 -0.167733 0)
(-0.0955678 -0.169195 0)
(-0.100025 -0.172711 0)
(-0.108898 -0.176481 0)
(-0.0951751 -0.16105 0)
(-0.0993708 -0.161987 0)
(-0.10225 -0.165247 0)
(-0.109272 -0.168151 0)
(0.447968 -0.191036 0)
(0.42333 -0.282147 0)
(0.471023 -0.226081 0)
(0.516515 -0.0838714 0)
(0.562764 0.0163242 0)
(0.558955 0.2427 0)
(0.493576 0.345176 0)
(0.4988 -0.226092 0)
(0.531515 -0.258277 0)
(0.547937 -0.241112 0)
(0.433647 -0.202823 0)
(0.0345674 0.500373 0)
(-0.0401227 0.363415 0)
(0.121818 0.403054 0)
(0.232326 0.187061 0)
(0.504288 0.65601 0)
(-0.0922527 2.32976 0)
(-0.21151 -0.0648187 0)
(-0.360938 0.0501673 0)
(0.360765 -0.429105 0)
(0.399055 -0.491005 0)
(0.417281 -0.357487 0)
(0.409057 -0.0688971 0)
(0.436432 0.0700008 0)
(0.427421 0.173128 0)
(0.406492 0.283146 0)
(0.386249 0.325032 0)
(0.456423 0.0402065 0)
(0.517316 -0.0576121 0)
(0.564546 -0.0430893 0)
(0.579009 0.404476 0)
(0.434397 0.482362 0)
(0.161512 0.511201 0)
(0.231539 0.600541 0)
(0.31783 0.41262 0)
(0.557801 1.35588 0)
(0.422488 0.49594 0)
(0.0723451 0.264696 0)
(0.488625 -0.498415 0)
(0.56578 -0.494242 0)
(0.616586 -0.2102 0)
(0.607003 -0.0125021 0)
(0.583999 0.105728 0)
(0.570814 0.238227 0)
(0.561249 0.363704 0)
(0.5798 0.448535 0)
(0.611226 0.38095 0)
(0.660659 0.142961 0)
(0.704458 0.0725199 0)
(0.729985 0.223801 0)
(0.763277 0.288246 0)
(0.615208 0.230335 0)
(0.194484 0.953134 0)
(0.0785159 0.827861 0)
(0.3864 1.10264 0)
(0.483907 1.04278 0)
(0.304649 0.7677 0)
(0.725376 -0.300768 0)
(0.733375 -0.228982 0)
(0.74993 -0.138654 0)
(0.768429 0.0442091 0)
(0.715836 0.250229 0)
(0.622806 0.4091 0)
(0.583253 0.482577 0)
(0.606345 0.531275 0)
(0.635624 0.546207 0)
(0.672985 0.483048 0)
(0.731657 0.470153 0)
(0.759623 0.528187 0)
(0.799207 0.58326 0)
(0.718436 0.579105 0)
(0.57271 0.577916 0)
(0.292772 1.07528 0)
(0.292752 1.49764 0)
(0.291944 1.67712 0)
(0.270064 1.37197 0)
(0.736752 -0.228573 0)
(0.722196 -0.243238 0)
(0.695481 -0.227238 0)
(0.705893 -0.1816 0)
(0.644692 -0.0446749 0)
(0.521062 0.0711473 0)
(0.41745 0.190448 0)
(0.482874 0.337837 0)
(0.57745 0.369207 0)
(0.681953 0.438208 0)
(0.782292 0.476425 0)
(0.879455 0.558528 0)
(0.913511 0.789653 0)
(0.556492 1.0941 0)
(0.517867 0.891035 0)
(0.472068 1.13182 0)
(0.37381 1.43606 0)
(0.0942623 1.8789 0)
(0.128422 1.85186 0)
(0.480016 -0.238626 0)
(0.498788 -0.391587 0)
(0.405902 -0.25188 0)
(0.485561 0.215503 0)
(0.517395 0.676972 0)
(0.520609 0.898242 0)
(0.550845 0.841877 0)
(0.730428 0.324531 0)
(0.971306 0.266367 0)
(1.04287 0.269798 0)
(1.13068 0.328124 0)
(1.06085 0.514502 0)
(0.723357 0.469678 0)
(0.499488 0.628613 0)
(0.480156 0.747236 0)
(0.242404 1.24418 0)
(0.419932 1.48903 0)
(0.15144 1.70745 0)
(0.1243 1.73201 0)
(0.197748 -0.02417 0)
(0.0860329 0.171074 0)
(-0.0331748 -0.341984 0)
(-0.00596493 -0.750415 0)
(0.259187 -0.866691 0)
(0.683298 -1.00637 0)
(1.24624 -0.854808 0)
(1.86697 -0.703783 0)
(2.08916 -0.517401 0)
(2.24835 -0.233056 0)
(2.22423 -0.0958564 0)
(2.20934 0.513745 0)
(2.07534 1.00904 0)
(1.52467 1.55385 0)
(0.916276 0.945923 0)
(0.420304 1.27915 0)
(0.276927 1.69888 0)
(0.183175 1.71564 0)
(0.272452 1.58878 0)
(-0.101301 -0.462595 0)
(0.0562527 -0.747981 0)
(0.207519 -0.749561 0)
(0.24418 -0.628333 0)
(0.361484 -0.489129 0)
(0.445291 -0.500205 0)
(0.690238 -0.896588 0)
(0.52956 -0.709383 0)
(-0.114523 -0.140539 0)
(-0.188508 0.0735599 0)
(-0.212912 0.163945 0)
(-0.0918203 0.38069 0)
(0.154933 0.589901 0)
(0.550785 0.932612 0)
(0.914602 1.25978 0)
(0.552651 1.41346 0)
(0.272265 1.85996 0)
(0.171844 1.93216 0)
(0.270588 1.68768 0)
(0.383237 -0.680971 0)
(0.305295 -0.623838 0)
(0.195123 -0.565952 0)
(0.0722188 -0.533622 0)
(-0.0239067 -0.585157 0)
(-0.114663 -0.67669 0)
(-0.0267051 -0.620119 0)
(-0.577568 -0.20763 0)
(-0.575954 -0.147226 0)
(-0.495658 -0.0706518 0)
(-0.337954 -0.00757771 0)
(-0.224585 0.11438 0)
(-0.0616585 0.370858 0)
(0.132959 0.713265 0)
(0.486096 1.17103 0)
(0.396206 1.44722 0)
(0.141002 1.86197 0)
(-0.0727279 2.15196 0)
(0.123557 1.89035 0)
(0.213601 -0.363111 0)
(0.0822251 -0.381264 0)
(-0.0865865 -0.417725 0)
(-0.204881 -0.480026 0)
(-0.298579 -0.537632 0)
(-0.43439 -0.590647 0)
(-0.580781 -0.414031 0)
(-0.74341 -0.245572 0)
(-0.642611 -0.193542 0)
(-0.571991 -0.150817 0)
(-0.556359 -0.137508 0)
(-0.466133 -0.089631 0)
(-0.257673 0.0783539 0)
(-0.134337 0.332219 0)
(0.0153793 0.797432 0)
(0.053258 1.20587 0)
(-0.280827 1.68641 0)
(-0.45735 2.07814 0)
(0.0625702 1.97699 0)
(-0.00861564 -0.372664 0)
(-0.0969253 -0.376238 0)
(-0.176422 -0.376796 0)
(-0.258745 -0.366654 0)
(-0.371696 -0.372173 0)
(-0.544699 -0.338806 0)
(-0.708944 -0.25956 0)
(-0.844689 -0.244241 0)
(-0.710532 -0.2454 0)
(-0.633844 -0.257103 0)
(-0.61046 -0.230462 0)
(-0.63238 -0.220192 0)
(-0.564235 -0.113931 0)
(-0.438189 -0.0328092 0)
(-0.434869 0.298432 0)
(-0.524702 0.747242 0)
(-0.62267 1.32597 0)
(-0.581661 1.896 0)
(3.56115e-05 1.95617 0)
(-0.0529218 -0.289085 0)
(-0.131637 -0.285072 0)
(-0.186859 -0.287185 0)
(-0.246387 -0.283359 0)
(-0.327943 -0.276956 0)
(-0.437454 -0.190632 0)
(-0.512237 -0.0957726 0)
(-0.550751 -0.234783 0)
(-0.783398 -0.295834 0)
(-0.691448 -0.305948 0)
(-0.678633 -0.31409 0)
(-0.708311 -0.272722 0)
(-0.781252 -0.170658 0)
(-0.833093 -0.132974 0)
(-0.872467 -0.0458376 0)
(-1.00741 0.363129 0)
(-0.969118 1.01668 0)
(-0.731851 1.61151 0)
(-0.160683 1.77893 0)
(-0.108175 -0.222101 0)
(-0.143715 -0.240073 0)
(-0.177345 -0.24984 0)
(-0.217433 -0.239447 0)
(-0.27338 -0.218458 0)
(-0.323318 -0.157492 0)
(-0.343896 -0.0286932 0)
(-0.382126 0.0862611 0)
(-0.444698 -0.216543 0)
(-0.810801 -0.307987 0)
(-0.763011 -0.294618 0)
(-0.763696 -0.279198 0)
(-0.86739 -0.19459 0)
(-1.05787 -0.0170081 0)
(-1.20725 0.0435646 0)
(-1.2936 0.286686 0)
(-1.15767 0.832106 0)
(-0.858789 1.25358 0)
(-0.271284 1.35378 0)
(-0.117486 -0.217357 0)
(-0.145863 -0.223147 0)
(-0.172085 -0.22118 0)
(-0.208717 -0.203285 0)
(-0.242673 -0.175198 0)
(-0.264298 -0.126687 0)
(-0.267704 -0.0564413 0)
(-0.234678 0.0611644 0)
(-0.240791 0.218995 0)
(-0.375115 -0.0676746 0)
(-0.805206 -0.242241 0)
(-0.844442 -0.203478 0)
(-0.865115 -0.125003 0)
(-1.00791 0.0374918 0)
(-1.22485 0.247702 0)
(-1.25021 0.416309 0)
(-1.08108 0.782526 0)
(-0.748126 1.0172 0)
(-0.327069 1.05025 0)
(-0.12033 -0.194121 0)
(-0.137395 -0.194537 0)
(-0.156105 -0.188516 0)
(-0.178645 -0.17846 0)
(-0.202097 -0.159445 0)
(-0.218091 -0.120705 0)
(-0.215267 -0.059675 0)
(-0.180416 0.0136944 0)
(-0.134806 0.144857 0)
(-0.049137 0.342765 0)
(-0.275334 0.246473 0)
(-0.7245 -0.216526 0)
(-0.921385 0.0100193 0)
(-1.07458 0.159821 0)
(-1.213 0.439194 0)
(-1.22041 0.5084 0)
(-1.08958 0.709425 0)
(-0.678652 0.841465 0)
(-0.278793 0.722898 0)
(-0.118631 -0.177872 0)
(-0.136842 -0.182192 0)
(-0.157293 -0.174102 0)
(-0.17321 -0.160693 0)
(-0.183751 -0.141999 0)
(-0.186383 -0.11455 0)
(-0.176816 -0.0798956 0)
(-0.137327 -0.0359842 0)
(-0.089332 0.0584387 0)
(0.0405443 0.226578 0)
(0.197173 0.658083 0)
(-0.303328 0.438094 0)
(-0.752991 -0.0149185 0)
(-1.03629 0.305851 0)
(-1.25607 0.558355 0)
(-1.35224 0.859834 0)
(-1.12462 0.785078 0)
(-0.680341 0.597551 0)
(-0.258534 0.603241 0)
(-0.1173 -0.16857 0)
(-0.12927 -0.168908 0)
(-0.142987 -0.16139 0)
(-0.153525 -0.153202 0)
(-0.159564 -0.1416 0)
(-0.160752 -0.122335 0)
(-0.148362 -0.0998473 0)
(-0.105999 -0.0781748 0)
(-0.0722478 -0.0183935 0)
(0.0711781 0.0967382 0)
(0.241432 0.624291 0)
(0.120344 0.948054 0)
(-0.627838 0.48165 0)
(-0.850538 0.430777 0)
(-0.953554 0.555292 0)
(-0.952118 0.748231 0)
(-0.819689 0.596087 0)
(-0.650237 0.514889 0)
(-0.296757 0.448569 0)
)
;

boundaryField
{
    leftWall
    {
        type            fixedValue;
        value           nonuniform 0();
    }
    rightWall
    {
        type            fixedValue;
        value           uniform (0 0 0);
    }
    lowerWall
    {
        type            fixedValue;
        value           uniform (0 0 0);
    }
    atmosphere
    {
        type            fluxCorrectedVelocity;
        value           nonuniform 0();
    }
    defaultFaces
    {
        type            empty;
    }
    procBoundary1to0
    {
        type            processor;
        value           nonuniform List<vector> 
26
(
(0.0221237 0.00909197 0)
(0.0269698 0.0194947 0)
(0.0496209 0.0312459 0)
(0.046891 0.0367012 0)
(0.0324192 0.0348181 0)
(0.00282969 0.0403366 0)
(-0.0119494 0.0371938 0)
(-0.00974105 0.0354284 0)
(-0.00644971 0.042443 0)
(-0.0016216 -0.166285 0)
(0.314496 -0.0769456 0)
(0.563883 -0.109385 0)
(0.500279 -0.0269909 0)
(0.487375 0.117243 0)
(0.111668 0.00263394 0)
(-0.0446355 0.248774 0)
(0.244408 -0.614621 0)
(0.244408 -0.614621 0)
(0.39841 -0.255496 0)
(0.13035 -0.19527 0)
(0.12175 -0.287143 0)
(-0.0522369 -0.138952 0)
(-0.0634471 -0.203767 0)
(-0.0806694 -0.168138 0)
(-0.0837739 -0.167648 0)
(-0.0886791 -0.162619 0)
)
;
    }
    procBoundary1to3
    {
        type            processor;
        value           nonuniform List<vector> 
23
(
(-0.092807 -0.151448 0)
(-0.0961474 -0.152696 0)
(-0.0986394 -0.152878 0)
(-0.104507 -0.152795 0)
(-0.112158 -0.15267 0)
(-0.124914 -0.151085 0)
(-0.139129 -0.145758 0)
(-0.151457 -0.140297 0)
(-0.155897 -0.133527 0)
(-0.155026 -0.123885 0)
(-0.140679 -0.120387 0)
(-0.103538 -0.122746 0)
(-0.0816116 -0.0993901 0)
(0.0756855 -0.00394735 0)
(0.133182 0.482777 0)
(0.34821 1.27023 0)
(-0.309122 0.893093 0)
(-0.704156 0.624965 0)
(-0.799392 0.526426 0)
(-0.852999 0.453788 0)
(-0.867318 0.54154 0)
(-0.572492 0.178556 0)
(-0.355643 0.16146 0)
)
;
    }
}


// ************************************************************************* //
