/*--------------------------------*- C++ -*----------------------------------*\
| =========                 |                                                 |
| \\      /  F ield         | OpenFOAM: The Open Source CFD Toolbox           |
|  \\    /   O peration     | Version:  2.4.0                                 |
|   \\  /    A nd           | Web:      www.OpenFOAM.org                      |
|    \\/     M anipulation  |                                                 |
\*---------------------------------------------------------------------------*/
FoamFile
{
    version     2.0;
    format      ascii;
    class       volVectorField;
    location    "0.55";
    object      U.mercury;
}
// * * * * * * * * * * * * * * * * * * * * * * * * * * * * * * * * * * * * * //

dimensions      [0 1 -1 0 0 0 0];

internalField   nonuniform List<vector> 
559
(
(-0.0166866 0.00255112 0)
(-0.0156082 -0.000493563 0)
(0.0244647 0.0116484 0)
(0.0179967 0.0302993 0)
(0.0246527 0.0419887 0)
(0.013373 0.0580943 0)
(0.00831706 0.0548734 0)
(0.00989632 0.0565921 0)
(-0.0140592 -0.54885 0)
(0.0348949 -0.558272 0)
(0.138388 -0.572557 0)
(0.198989 -0.563573 0)
(0.253873 -0.565306 0)
(0.352899 -0.568058 0)
(0.42611 -0.5615 0)
(0.474472 -0.54521 0)
(0.503311 -0.528407 0)
(0.514214 -0.514831 0)
(0.523181 -0.488781 0)
(0.568718 -0.468586 0)
(0.650517 -0.495078 0)
(0.648351 -0.531652 0)
(0.472772 -0.6611 0)
(0.22232 -0.732985 0)
(0.124667 -0.365397 0)
(0.0478868 -0.240602 0)
(0.142065 -0.306275 0)
(0.0592944 -0.409434 0)
(0.135105 -0.49702 0)
(0.253907 -0.517547 0)
(0.358142 -0.477048 0)
(0.469588 -0.438807 0)
(0.605331 -0.450967 0)
(0.685376 -0.450872 0)
(0.731848 -0.415759 0)
(0.771414 -0.36816 0)
(0.778973 -0.327749 0)
(0.770816 -0.315375 0)
(0.77341 -0.344854 0)
(0.825014 -0.35715 0)
(0.905307 -0.284966 0)
(0.897495 -0.245389 0)
(0.576457 -0.297794 0)
(0.382296 -0.335815 0)
(0.269056 -0.12607 0)
(0.289616 0.0235212 0)
(0.057166 -0.356179 0)
(0.1885 -0.518473 0)
(0.291492 -0.547222 0)
(0.382314 -0.488779 0)
(0.503965 -0.451434 0)
(0.630521 -0.457924 0)
(0.702123 -0.461848 0)
(0.74307 -0.441706 0)
(0.782174 -0.406964 0)
(0.792307 -0.394613 0)
(0.788783 -0.402599 0)
(0.771227 -0.462668 0)
(0.790969 -0.537697 0)
(0.822032 -0.531644 0)
(0.839524 -0.501848 0)
(0.783512 -0.631805 0)
(0.862261 -0.753926 0)
(0.265656 -0.674742 0)
(0.22824 0.0117253 0)
(0.125904 -0.280092 0)
(0.261923 -0.476305 0)
(0.332022 -0.508711 0)
(0.399955 -0.454065 0)
(0.518714 -0.409747 0)
(0.636123 -0.400119 0)
(0.700109 -0.387111 0)
(0.722033 -0.36034 0)
(0.753778 -0.317944 0)
(0.759034 -0.307328 0)
(0.76467 -0.333825 0)
(0.7213 -0.423133 0)
(0.671965 -0.530295 0)
(0.696959 -0.541099 0)
(0.758236 -0.492553 0)
(0.75377 -0.520812 0)
(0.823924 -0.622091 0)
(0.612295 -0.834068 0)
(0.213444 0.0188642 0)
(0.210053 -0.229406 0)
(0.296047 -0.471141 0)
(0.35508 -0.497587 0)
(0.412742 -0.45071 0)
(0.510102 -0.411824 0)
(0.598963 -0.397085 0)
(0.639783 -0.380913 0)
(0.638596 -0.365066 0)
(0.644509 -0.333157 0)
(0.65568 -0.328454 0)
(0.657377 -0.354285 0)
(0.641855 -0.481425 0)
(0.610868 -0.616701 0)
(0.654674 -0.699928 0)
(0.705942 -0.609077 0)
(0.71839 -0.495355 0)
(0.838853 -0.628325 0)
(0.772013 -0.880687 0)
(0.231733 0.0108048 0)
(0.283696 -0.236751 0)
(0.307382 -0.457313 0)
(0.367303 -0.485965 0)
(0.418396 -0.446302 0)
(0.491256 -0.411347 0)
(0.561568 -0.395349 0)
(0.604767 -0.372607 0)
(0.608291 -0.351319 0)
(0.595898 -0.321441 0)
(0.607429 -0.310363 0)
(0.63462 -0.348428 0)
(0.592652 -0.476394 0)
(0.535985 -0.616667 0)
(0.56665 -0.72721 0)
(0.688464 -0.698437 0)
(0.817091 -0.584759 0)
(0.97819 -0.725349 0)
(0.904387 -0.879263 0)
(0.228766 0.0337734 0)
(0.317273 -0.31806 0)
(0.311772 -0.458612 0)
(0.378295 -0.492591 0)
(0.425301 -0.470085 0)
(0.478781 -0.457499 0)
(0.539602 -0.444935 0)
(0.575383 -0.417951 0)
(0.570539 -0.406231 0)
(0.5416 -0.384565 0)
(0.559215 -0.368276 0)
(0.576535 -0.39067 0)
(0.564784 -0.512337 0)
(0.499704 -0.576995 0)
(0.527698 -0.680552 0)
(0.713038 -0.692734 0)
(0.990787 -0.522358 0)
(1.10133 -0.809545 0)
(0.982022 -0.753765 0)
(0.252357 0.0264516 0)
(0.331702 -0.359652 0)
(0.321206 -0.472027 0)
(0.381177 -0.519464 0)
(0.426234 -0.538292 0)
(0.487729 -0.53962 0)
(0.535861 -0.533334 0)
(0.560314 -0.512635 0)
(0.557105 -0.516304 0)
(0.553677 -0.47542 0)
(0.566609 -0.445082 0)
(0.599837 -0.470357 0)
(0.564187 -0.532172 0)
(0.484955 -0.542141 0)
(0.480167 -0.635615 0)
(0.638156 -0.767065 0)
(1.06839 -0.986448 0)
(1.14278 -0.903063 0)
(0.945147 -0.632019 0)
(0.270521 0.059762 0)
(0.0609998 0.0547471 0)
(0.0590929 -0.16643 0)
(0.280511 -0.271129 0)
(0.495589 -0.440049 0)
(0.533909 -0.35884 0)
(0.41015 -0.288369 0)
(0.109941 -0.430107 0)
(-0.0134213 -0.235434 0)
(0.149387 0.0400522 0)
(0.181648 0.0354146 0)
(0.209075 0.0053079 0)
(0.279122 -0.0377657 0)
(0.120086 -0.219362 0)
(0.173027 -0.233057 0)
(0.215684 -0.290226 0)
(0.300362 -0.357969 0)
(0.328947 -0.34048 0)
(0.34594 -0.390248 0)
(0.402461 -0.47999 0)
(0.423498 -0.57978 0)
(0.545977 -0.501654 0)
(0.568807 -0.528416 0)
(0.59058 -0.56165 0)
(0.615156 -0.601925 0)
(0.567085 -0.430624 0)
(0.579312 -0.461646 0)
(0.59551 -0.50603 0)
(0.612897 -0.535975 0)
(0.39605 -0.366903 0)
(0.405559 -0.397803 0)
(0.409513 -0.442612 0)
(0.400832 -0.489455 0)
(0.118689 -0.524146 0)
(0.144969 -0.590251 0)
(0.141556 -0.677281 0)
(0.14081 -0.750508 0)
(-0.0246837 0.0322055 0)
(-0.080062 0.202809 0)
(-0.150553 0.25426 0)
(-0.204652 0.0963048 0)
(0.275895 -0.676217 0)
(0.311329 -0.717727 0)
(0.353254 -0.737943 0)
(0.384575 -0.702597 0)
(0.366026 -0.247829 0)
(0.345606 -0.253676 0)
(0.313195 -0.273937 0)
(0.275498 -0.291505 0)
(0.0973062 -0.249588 0)
(0.0766326 -0.282632 0)
(0.0565637 -0.312694 0)
(0.0392809 -0.341536 0)
(0.0823415 -0.283529 0)
(0.0562217 -0.28885 0)
(0.0332408 -0.292327 0)
(0.00394239 -0.295203 0)
(-0.0670519 -0.169872 0)
(-0.073373 -0.191683 0)
(-0.0806468 -0.203262 0)
(-0.0938132 -0.212899 0)
(-0.0713859 -0.210893 0)
(-0.0803859 -0.216031 0)
(-0.0894688 -0.215712 0)
(-0.101712 -0.217656 0)
(-0.0877835 -0.178071 0)
(-0.0950657 -0.183921 0)
(-0.100491 -0.187725 0)
(-0.109584 -0.192056 0)
(-0.0894435 -0.167698 0)
(-0.0955953 -0.169157 0)
(-0.100055 -0.172671 0)
(-0.10893 -0.176437 0)
(-0.0951945 -0.161014 0)
(-0.0993926 -0.161948 0)
(-0.102274 -0.165207 0)
(-0.109298 -0.168108 0)
(0.357993 -0.350249 0)
(0.367317 -0.529697 0)
(0.39665 -0.616561 0)
(0.449436 -0.673215 0)
(0.502453 -0.706885 0)
(0.536317 -0.728147 0)
(0.544583 -0.755071 0)
(0.561222 -0.802887 0)
(0.608401 -0.837745 0)
(0.685707 -0.899368 0)
(0.753586 -0.867689 0)
(0.74659 -0.780632 0)
(0.51979 -0.520055 0)
(0.51516 -0.49009 0)
(0.578137 -0.56422 0)
(0.669394 -0.770855 0)
(1.03498 -1.12507 0)
(1.17741 -0.767945 0)
(0.451634 -0.00634862 0)
(0.352229 -0.519349 0)
(0.399655 -0.644945 0)
(0.459526 -0.773174 0)
(0.485978 -0.828604 0)
(0.562947 -0.942243 0)
(0.624275 -0.948364 0)
(0.653274 -0.921767 0)
(0.720812 -0.920916 0)
(0.821145 -0.933509 0)
(0.965424 -0.993099 0)
(1.10834 -1.08172 0)
(1.16575 -1.09381 0)
(1.12665 -0.981558 0)
(0.685035 -0.526265 0)
(0.677555 -0.435539 0)
(0.768955 -0.422153 0)
(1.03328 -0.593926 0)
(1.00152 -0.416465 0)
(0.612954 0.0230056 0)
(0.416021 -0.661807 0)
(0.51814 -0.824646 0)
(0.643518 -0.925322 0)
(0.716483 -0.979082 0)
(0.75931 -0.987423 0)
(0.779735 -0.921436 0)
(0.808395 -0.743281 0)
(0.803356 -0.491907 0)
(0.817954 -0.381749 0)
(0.87769 -0.376822 0)
(0.997575 -0.520428 0)
(1.11896 -0.856977 0)
(1.11257 -0.976229 0)
(1.00888 -0.942609 0)
(0.738743 -0.476585 0)
(0.787444 -0.29708 0)
(0.891357 -0.264258 0)
(0.901211 -0.205724 0)
(0.614963 0.177736 0)
(0.652546 -0.666526 0)
(0.711093 -0.746798 0)
(0.757935 -0.786347 0)
(0.791816 -0.782536 0)
(0.802835 -0.739174 0)
(0.804937 -0.650728 0)
(0.739846 -0.489224 0)
(0.719712 -0.337946 0)
(0.748613 -0.312506 0)
(0.810314 -0.323506 0)
(0.889775 -0.46615 0)
(0.949382 -0.581043 0)
(0.968948 -0.568372 0)
(0.94045 -0.553378 0)
(0.875632 -0.638714 0)
(0.816124 -0.413766 0)
(0.88882 -0.226178 0)
(0.884446 -0.137867 0)
(0.515145 0.448162 0)
(0.629712 -0.57728 0)
(0.64108 -0.636051 0)
(0.612278 -0.701949 0)
(0.61121 -0.719453 0)
(0.611206 -0.689175 0)
(0.551383 -0.587457 0)
(0.485374 -0.448423 0)
(0.54366 -0.378188 0)
(0.597784 -0.430093 0)
(0.705226 -0.471525 0)
(0.870228 -0.660562 0)
(0.924839 -0.628386 0)
(1.04929 -0.613892 0)
(0.974513 -0.618949 0)
(0.985892 -0.337402 0)
(0.843695 -0.125836 0)
(0.920869 -0.203087 0)
(0.923483 -0.10965 0)
(0.405727 0.727976 0)
(0.372773 -0.592779 0)
(0.359508 -0.735945 0)
(0.258888 -0.850754 0)
(0.399548 -0.394474 0)
(0.504667 0.39831 0)
(0.485112 0.42697 0)
(0.398743 -0.0961473 0)
(0.413802 -0.53559 0)
(0.567609 -0.533922 0)
(0.654663 -0.485468 0)
(0.814486 -0.490648 0)
(0.886253 -0.444706 0)
(0.942039 -0.599864 0)
(0.911871 -0.642777 0)
(0.945075 -0.333306 0)
(0.740971 0.155733 0)
(0.808589 0.233986 0)
(0.837152 0.246733 0)
(0.351944 0.923568 0)
(0.164569 -0.733479 0)
(0.117946 -0.177168 0)
(-0.0312303 -0.34995 0)
(-0.00611344 -0.752001 0)
(0.258892 -0.866512 0)
(0.660333 -0.994403 0)
(1.01172 -0.793279 0)
(1.04155 -0.605546 0)
(0.880382 -0.412874 0)
(0.906145 -0.22075 0)
(0.940442 -0.151908 0)
(1.30774 -0.0892354 0)
(1.36045 0.129013 0)
(1.05781 0.128955 0)
(0.59278 0.196278 0)
(0.511876 0.205252 0)
(0.623869 0.425816 0)
(0.59378 0.793099 0)
(0.35786 1.07559 0)
(-0.1014 -0.463296 0)
(0.0560681 -0.748262 0)
(0.207293 -0.749545 0)
(0.243698 -0.628298 0)
(0.359666 -0.490504 0)
(0.440542 -0.503632 0)
(0.180447 -0.738273 0)
(-0.395089 -0.405874 0)
(-0.507026 -0.2296 0)
(-0.368641 -0.139997 0)
(-0.32195 -0.0747635 0)
(-0.212533 -0.0419038 0)
(0.00545033 0.0247572 0)
(0.147122 0.132112 0)
(0.201354 0.125385 0)
(0.253294 0.168282 0)
(0.439789 0.402332 0)
(0.414396 0.935407 0)
(0.361052 1.247 0)
(0.383112 -0.680942 0)
(0.305139 -0.623779 0)
(0.194879 -0.565898 0)
(0.0716467 -0.533608 0)
(-0.0254501 -0.584847 0)
(-0.137375 -0.667609 0)
(-0.629899 -0.405401 0)
(-0.750644 -0.220943 0)
(-0.674824 -0.188461 0)
(-0.605164 -0.176997 0)
(-0.505943 -0.153064 0)
(-0.429659 -0.0990091 0)
(-0.308534 0.00666154 0)
(-0.238561 0.104453 0)
(-0.0536709 0.146171 0)
(0.104001 0.241819 0)
(0.353333 0.479109 0)
(0.27997 1.18064 0)
(0.321847 1.38778 0)
(0.213497 -0.363059 0)
(0.0820966 -0.381209 0)
(-0.0867347 -0.417797 0)
(-0.205073 -0.480649 0)
(-0.29889 -0.539496 0)
(-0.51541 -0.562847 0)
(-0.899539 -0.286204 0)
(-0.857652 -0.2124 0)
(-0.763577 -0.192671 0)
(-0.719582 -0.187951 0)
(-0.696822 -0.184313 0)
(-0.658107 -0.14496 0)
(-0.601756 -0.0332962 0)
(-0.527775 0.131743 0)
(-0.315525 0.225408 0)
(-0.0978521 0.298223 0)
(0.1717 0.677671 0)
(0.213837 1.43772 0)
(0.296376 1.46905 0)
(-0.00870977 -0.372612 0)
(-0.0970373 -0.376197 0)
(-0.176543 -0.376994 0)
(-0.258842 -0.367799 0)
(-0.371476 -0.37513 0)
(-0.597831 -0.336403 0)
(-1.04131 -0.21679 0)
(-0.981572 -0.181893 0)
(-0.849978 -0.189272 0)
(-0.812025 -0.196939 0)
(-0.809094 -0.185097 0)
(-0.814375 -0.141383 0)
(-0.834909 -0.0287309 0)
(-0.800938 0.162507 0)
(-0.615321 0.389853 0)
(-0.366002 0.541301 0)
(-0.0530314 0.951416 0)
(0.163207 1.48401 0)
(0.279312 1.50638 0)
(-0.0530009 -0.289038 0)
(-0.131732 -0.285048 0)
(-0.186951 -0.287432 0)
(-0.246485 -0.284528 0)
(-0.328098 -0.279675 0)
(-0.43798 -0.195063 0)
(-0.611267 -0.106078 0)
(-0.983548 -0.167362 0)
(-0.970138 -0.164285 0)
(-0.891945 -0.164799 0)
(-0.878044 -0.147054 0)
(-0.893948 -0.0950316 0)
(-0.954541 0.00994478 0)
(-1.03213 0.171604 0)
(-0.928962 0.439518 0)
(-0.654721 0.757638 0)
(-0.283615 1.12868 0)
(0.0622015 1.48467 0)
(0.26915 1.50184 0)
(-0.108241 -0.222052 0)
(-0.143788 -0.240043 0)
(-0.177426 -0.249959 0)
(-0.217528 -0.240109 0)
(-0.273506 -0.220089 0)
(-0.323737 -0.16033 0)
(-0.344896 -0.0336357 0)
(-0.423058 0.0781082 0)
(-0.921105 -0.116924 0)
(-0.988703 -0.103406 0)
(-0.931756 -0.0869309 0)
(-0.930356 -0.0417212 0)
(-1.00187 0.0712034 0)
(-1.08235 0.21625 0)
(-1.10144 0.405887 0)
(-0.888258 0.732758 0)
(-0.454328 1.09572 0)
(-0.0409312 1.37164 0)
(0.241299 1.41852 0)
(-0.11754 -0.217309 0)
(-0.145921 -0.223102 0)
(-0.172147 -0.221185 0)
(-0.208784 -0.2035 0)
(-0.242749 -0.175879 0)
(-0.264419 -0.12818 0)
(-0.26806 -0.0589185 0)
(-0.236046 0.0569614 0)
(-0.282935 0.207044 0)
(-0.856488 0.000846095 0)
(-1.00836 -0.0126373 0)
(-0.948276 0.0184904 0)
(-0.960626 0.0939437 0)
(-1.06047 0.248295 0)
(-1.09463 0.401245 0)
(-0.999239 0.665778 0)
(-0.59804 0.978439 0)
(-0.175367 1.21125 0)
(0.0975917 1.20457 0)
(-0.120374 -0.194072 0)
(-0.13744 -0.194481 0)
(-0.156149 -0.188469 0)
(-0.178689 -0.178476 0)
(-0.20214 -0.159638 0)
(-0.218137 -0.121304 0)
(-0.2153 -0.0610627 0)
(-0.180498 0.0112996 0)
(-0.134441 0.140729 0)
(-0.0756459 0.333141 0)
(-0.714636 0.202756 0)
(-1.01226 0.0815933 0)
(-0.955234 0.146764 0)
(-0.977749 0.254457 0)
(-1.08207 0.435901 0)
(-1.01427 0.594154 0)
(-0.761848 0.787046 0)
(-0.357991 0.931873 0)
(-0.0720623 0.828481 0)
(-0.118665 -0.177823 0)
(-0.136875 -0.182134 0)
(-0.157326 -0.17404 0)
(-0.17324 -0.160645 0)
(-0.183779 -0.142019 0)
(-0.186411 -0.114785 0)
(-0.176829 -0.0806398 0)
(-0.137299 -0.0376983 0)
(-0.0892386 0.0550757 0)
(0.041802 0.218435 0)
(0.192519 0.649438 0)
(-0.605745 0.385221 0)
(-1.02713 0.196973 0)
(-0.969737 0.283676 0)
(-0.994529 0.40892 0)
(-1.03703 0.495441 0)
(-0.877334 0.571015 0)
(-0.450947 0.502566 0)
(-0.142887 0.42318 0)
(-0.117326 -0.168522 0)
(-0.129296 -0.168853 0)
(-0.143011 -0.161328 0)
(-0.153546 -0.15314 0)
(-0.159583 -0.141564 0)
(-0.16077 -0.122415 0)
(-0.148391 -0.100268 0)
(-0.106067 -0.0793992 0)
(-0.0724413 -0.0213946 0)
(0.0715526 0.090026 0)
(0.239553 0.609181 0)
(0.114843 0.940047 0)
(-0.804404 0.462292 0)
(-1.06294 0.362505 0)
(-0.973585 0.376277 0)
(-0.882604 0.343556 0)
(-0.581927 0.0875979 0)
(-0.380573 -0.0898457 0)
(-0.198477 0.0384111 0)
)
;

boundaryField
{
    leftWall
    {
        type            fixedValue;
        value           nonuniform 0();
    }
    rightWall
    {
        type            fixedValue;
        value           uniform (0 0 0);
    }
    lowerWall
    {
        type            fixedValue;
        value           uniform (0 0 0);
    }
    atmosphere
    {
        type            fluxCorrectedVelocity;
        value           nonuniform 0();
    }
    defaultFaces
    {
        type            empty;
    }
    procBoundary1to0
    {
        type            processor;
        value           nonuniform List<vector> 
26
(
(0.0221247 0.00909176 0)
(0.0269708 0.019494 0)
(0.0496216 0.0312444 0)
(0.0468914 0.0366992 0)
(0.0324195 0.0348158 0)
(0.00282971 0.040334 0)
(-0.0119496 0.0371919 0)
(-0.00974154 0.0354271 0)
(-0.00643835 0.0423376 0)
(-0.000673704 -0.179599 0)
(0.299151 -0.208882 0)
(0.425004 -0.363709 0)
(0.472792 -0.264739 0)
(0.365569 -0.194606 0)
(0.0724047 -0.355795 0)
(-0.0619612 -0.477828 0)
(0.244331 -0.614705 0)
(0.244331 -0.614705 0)
(0.398366 -0.255491 0)
(0.13031 -0.195236 0)
(0.121717 -0.287113 0)
(-0.0522679 -0.138917 0)
(-0.0634755 -0.203733 0)
(-0.0806943 -0.168105 0)
(-0.0837956 -0.167615 0)
(-0.0886963 -0.162586 0)
)
;
    }
    procBoundary1to3
    {
        type            processor;
        value           nonuniform List<vector> 
23
(
(-0.0928211 -0.151414 0)
(-0.0961648 -0.15266 0)
(-0.0986595 -0.152841 0)
(-0.104528 -0.152755 0)
(-0.112179 -0.152627 0)
(-0.124933 -0.151035 0)
(-0.139146 -0.145701 0)
(-0.15147 -0.140237 0)
(-0.155907 -0.133475 0)
(-0.155039 -0.123896 0)
(-0.140709 -0.120629 0)
(-0.103694 -0.123631 0)
(-0.0820611 -0.101985 0)
(0.0750112 -0.00985193 0)
(0.129467 0.466921 0)
(0.344683 1.25996 0)
(-0.314879 0.888609 0)
(-0.829533 0.608373 0)
(-0.991146 0.457709 0)
(-0.905768 0.357419 0)
(-0.261935 -0.339185 0)
(-0.14331 -0.441075 0)
(-0.0783799 -0.286886 0)
)
;
    }
}


// ************************************************************************* //
