/*--------------------------------*- C++ -*----------------------------------*\
| =========                 |                                                 |
| \\      /  F ield         | OpenFOAM: The Open Source CFD Toolbox           |
|  \\    /   O peration     | Version:  2.4.0                                 |
|   \\  /    A nd           | Web:      www.OpenFOAM.org                      |
|    \\/     M anipulation  |                                                 |
\*---------------------------------------------------------------------------*/
FoamFile
{
    version     2.0;
    format      ascii;
    class       volVectorField;
    location    "0.55";
    object      U.oil;
}
// * * * * * * * * * * * * * * * * * * * * * * * * * * * * * * * * * * * * * //

dimensions      [0 1 -1 0 0 0 0];

internalField   nonuniform List<vector> 
559
(
(-0.0169064 0.0142681 0)
(-0.0158585 0.0118002 0)
(0.024166 0.0234272 0)
(0.0177055 0.0417503 0)
(0.0243581 0.0536042 0)
(0.0130795 0.0703473 0)
(0.00800732 0.0683143 0)
(0.00956495 0.0696427 0)
(-0.186099 -0.0331185 0)
(-0.200377 -0.129164 0)
(-0.0126151 -0.134479 0)
(0.156617 -0.129079 0)
(0.207867 -0.137946 0)
(0.267395 -0.173463 0)
(0.363927 -0.204476 0)
(0.444963 -0.221129 0)
(0.491187 -0.232902 0)
(0.496986 -0.246202 0)
(0.486269 -0.22379 0)
(0.531195 -0.194809 0)
(0.648359 -0.20576 0)
(0.679331 -0.239305 0)
(0.531281 -0.367756 0)
(0.249968 -0.484686 0)
(0.0478189 -0.164948 0)
(-0.0823453 -0.0418191 0)
(0.077065 -0.105841 0)
(-0.139521 0.183201 0)
(-0.121394 0.0914796 0)
(0.139165 0.00216777 0)
(0.35686 0.0793837 0)
(0.464336 0.133894 0)
(0.577249 0.147532 0)
(0.695291 0.15973 0)
(0.767737 0.203817 0)
(0.807804 0.255162 0)
(0.785489 0.293949 0)
(0.75408 0.266196 0)
(0.78128 0.200701 0)
(0.889085 0.217439 0)
(1.0203 0.32774 0)
(0.953097 0.53863 0)
(0.318757 0.663316 0)
(0.0553621 0.369404 0)
(0.165017 0.189471 0)
(0.224507 0.267023 0)
(-0.116919 0.180049 0)
(0.0359516 -0.157225 0)
(0.242176 -0.21906 0)
(0.409835 -0.14937 0)
(0.573937 -0.10516 0)
(0.735501 -0.115663 0)
(0.811289 -0.123926 0)
(0.853402 -0.0959207 0)
(0.889565 -0.0480546 0)
(0.871464 -0.0114888 0)
(0.843107 -0.0263024 0)
(0.847263 -0.0930472 0)
(0.935025 -0.12509 0)
(1.04603 0.00588206 0)
(0.917085 0.311109 0)
(0.418632 0.183372 0)
(0.00867933 0.0320651 0)
(-0.124728 0.136794 0)
(0.110536 0.19714 0)
(-0.0265323 0.203905 0)
(0.20768 -0.13715 0)
(0.331725 -0.227102 0)
(0.446876 -0.138054 0)
(0.608754 -0.0552658 0)
(0.740585 -0.0248077 0)
(0.801785 -0.00420327 0)
(0.817224 0.0338461 0)
(0.838253 0.0950944 0)
(0.826 0.140163 0)
(0.802396 0.11551 0)
(0.795327 -0.00425494 0)
(0.822167 -0.0615714 0)
(0.931648 0.0973526 0)
(0.900747 0.46095 0)
(0.473438 0.510365 0)
(0.0835675 0.274553 0)
(-0.423733 -0.0363425 0)
(0.119832 0.184111 0)
(0.146399 0.169561 0)
(0.297115 -0.196577 0)
(0.380466 -0.258267 0)
(0.453871 -0.18073 0)
(0.579726 -0.111521 0)
(0.682748 -0.0783905 0)
(0.723347 -0.0454464 0)
(0.716147 -0.0126257 0)
(0.718541 0.0500361 0)
(0.710914 0.108383 0)
(0.706721 0.0739528 0)
(0.718815 -0.0798126 0)
(0.76945 -0.16928 0)
(0.894544 0.00150698 0)
(0.915632 0.530483 0)
(0.510381 0.749209 0)
(0.29222 0.463788 0)
(-0.355147 -0.0397795 0)
(0.138129 0.163041 0)
(0.271374 0.0814854 0)
(0.329811 -0.219573 0)
(0.406101 -0.269613 0)
(0.453809 -0.198181 0)
(0.539863 -0.131408 0)
(0.622436 -0.0896067 0)
(0.667853 -0.0364261 0)
(0.660405 0.012748 0)
(0.626655 0.0587975 0)
(0.61318 0.138044 0)
(0.630508 0.0954709 0)
(0.64257 -0.0750147 0)
(0.580799 -0.256249 0)
(0.783185 -0.177414 0)
(0.907546 0.477409 0)
(0.555999 0.764823 0)
(0.172041 0.497539 0)
(-0.340881 -0.0579139 0)
(0.131092 0.183342 0)
(0.303292 -0.0545277 0)
(0.323026 -0.259547 0)
(0.419326 -0.287148 0)
(0.458857 -0.233413 0)
(0.514226 -0.183821 0)
(0.58517 -0.133618 0)
(0.627184 -0.0691172 0)
(0.603709 -0.0105672 0)
(0.533197 0.0771619 0)
(0.520784 0.10715 0)
(0.551401 0.0759546 0)
(0.53091 -0.104973 0)
(0.370478 -0.223357 0)
(0.443519 -0.319522 0)
(0.905026 0.350379 0)
(0.736618 0.705389 0)
(0.180392 0.443906 0)
(-0.205715 -0.300975 0)
(0.155945 0.178243 0)
(0.309636 -0.181744 0)
(0.320363 -0.285176 0)
(0.422464 -0.315744 0)
(0.463436 -0.282267 0)
(0.52344 -0.234044 0)
(0.581302 -0.1664 0)
(0.609261 -0.067551 0)
(0.571718 0.0372279 0)
(0.502146 0.074815 0)
(0.512539 0.0662039 0)
(0.520453 0.0489446 0)
(0.42878 -0.0546787 0)
(0.290699 -0.172732 0)
(0.44246 -0.107412 0)
(0.777574 0.292558 0)
(1.1054 0.735239 0)
(0.302022 0.462679 0)
(0.224153 -0.248006 0)
(0.185395 0.177023 0)
(0.0613759 0.100299 0)
(0.0536198 -0.0449188 0)
(0.309526 -0.0120196 0)
(0.625299 -0.176716 0)
(0.533692 -0.22133 0)
(0.402375 -0.262123 0)
(0.111753 -0.428864 0)
(-0.00408427 -0.906665 0)
(0.151546 0.101301 0)
(0.191881 0.118584 0)
(0.240231 0.1228 0)
(0.356539 0.0953322 0)
(0.129874 -0.0723143 0)
(0.190638 -0.0798442 0)
(0.243658 -0.132131 0)
(0.342654 -0.197793 0)
(0.372315 -0.0534194 0)
(0.418199 -0.103899 0)
(0.497419 -0.19141 0)
(0.537285 -0.247275 0)
(0.636664 -0.26452 0)
(0.639299 -0.291435 0)
(0.656697 -0.342563 0)
(0.664026 -0.377265 0)
(0.544449 -0.305204 0)
(0.556554 -0.339721 0)
(0.57836 -0.391213 0)
(0.591848 -0.435151 0)
(0.388086 -0.342067 0)
(0.401685 -0.375868 0)
(0.407502 -0.423684 0)
(0.400012 -0.476516 0)
(0.116924 -0.530462 0)
(0.139531 -0.59994 0)
(0.13234 -0.696296 0)
(0.125366 -0.799643 0)
(0.0307401 -1.0778 0)
(0.0484498 -1.2751 0)
(0.0946097 -1.27939 0)
(0.0370097 -0.709725 0)
(0.278827 -0.670837 0)
(0.305987 -0.718066 0)
(0.347943 -0.741297 0)
(0.381584 -0.709576 0)
(0.365944 -0.250111 0)
(0.345666 -0.256087 0)
(0.31357 -0.276169 0)
(0.276096 -0.293314 0)
(0.0973442 -0.250097 0)
(0.0766418 -0.283107 0)
(0.0565712 -0.313233 0)
(0.0392951 -0.34219 0)
(0.082609 -0.284662 0)
(0.0563525 -0.289666 0)
(0.0332837 -0.293007 0)
(0.00393595 -0.29594 0)
(-0.0670389 -0.170296 0)
(-0.0733624 -0.192049 0)
(-0.0806326 -0.203712 0)
(-0.0937917 -0.213552 0)
(-0.0713846 -0.211048 0)
(-0.0803841 -0.216227 0)
(-0.0894663 -0.216018 0)
(-0.101708 -0.218105 0)
(-0.0877835 -0.178146 0)
(-0.0950657 -0.184027 0)
(-0.100491 -0.187876 0)
(-0.109584 -0.192245 0)
(-0.0894438 -0.167732 0)
(-0.0955956 -0.1692 0)
(-0.100055 -0.172723 0)
(-0.108931 -0.1765 0)
(-0.0951948 -0.161029 0)
(-0.0993929 -0.161964 0)
(-0.102275 -0.165224 0)
(-0.109298 -0.168129 0)
(0.439358 -0.257911 0)
(0.386861 -0.367713 0)
(0.423497 -0.353248 0)
(0.471975 -0.276617 0)
(0.525807 -0.214972 0)
(0.55426 -0.129132 0)
(0.52876 -0.0166026 0)
(0.494013 0.0618894 0)
(0.478189 0.147597 0)
(0.45838 0.208744 0)
(0.389848 0.239416 0)
(0.266974 0.0954559 0)
(0.220325 -0.0711221 0)
(0.294384 -0.11956 0)
(0.437308 -0.130689 0)
(1.16245 0.515576 0)
(0.483587 0.328138 0)
(0.658613 -0.185909 0)
(0.337956 0.0820615 0)
(0.414549 -0.355669 0)
(0.444275 -0.358955 0)
(0.46963 -0.347454 0)
(0.467477 -0.308802 0)
(0.493621 -0.218642 0)
(0.483854 -0.116114 0)
(0.458535 -0.0240237 0)
(0.450005 0.0407698 0)
(0.453711 0.0734132 0)
(0.474886 0.0811419 0)
(0.523649 0.117677 0)
(0.540366 0.209126 0)
(0.398494 0.329463 0)
(0.410705 0.0454798 0)
(0.450014 0.0312254 0)
(0.588731 -0.0296164 0)
(0.952066 -0.0662457 0)
(1.12088 0.0518426 0)
(0.474876 0.208798 0)
(0.579442 -0.355577 0)
(0.609698 -0.416208 0)
(0.623136 -0.403457 0)
(0.626354 -0.34929 0)
(0.600046 -0.263511 0)
(0.589399 -0.158713 0)
(0.58978 -0.0628176 0)
(0.598279 0.0292079 0)
(0.622311 0.0710794 0)
(0.650511 0.0779309 0)
(0.681064 0.0934901 0)
(0.69738 0.106255 0)
(0.718413 0.153706 0)
(0.669052 0.323019 0)
(0.525123 0.491926 0)
(0.526469 0.395455 0)
(0.636265 0.37862 0)
(0.866493 0.275041 0)
(0.505405 0.511471 0)
(0.680213 -0.457122 0)
(0.683638 -0.525503 0)
(0.704679 -0.538743 0)
(0.725094 -0.507354 0)
(0.727405 -0.407915 0)
(0.674367 -0.246336 0)
(0.64457 -0.117985 0)
(0.662219 -0.0199534 0)
(0.679101 0.00906045 0)
(0.710035 0.0431648 0)
(0.747244 0.113714 0)
(0.749814 0.1996 0)
(0.776888 0.284942 0)
(0.705122 0.372498 0)
(0.67244 0.470668 0)
(0.594625 0.642742 0)
(0.610474 0.781598 0)
(0.546472 0.874575 0)
(0.369915 0.949933 0)
(0.600749 -0.515148 0)
(0.618958 -0.608638 0)
(0.592648 -0.677806 0)
(0.613185 -0.669708 0)
(0.624969 -0.616717 0)
(0.561137 -0.486224 0)
(0.476439 -0.335526 0)
(0.523063 -0.241005 0)
(0.587774 -0.253212 0)
(0.682328 -0.218045 0)
(0.776871 -0.212188 0)
(0.88598 -0.164767 0)
(0.976519 0.0184277 0)
(0.793872 0.157472 0)
(0.738323 0.412809 0)
(0.661378 0.678251 0)
(0.655989 0.945192 0)
(0.36987 1.21992 0)
(0.246631 1.3098 0)
(0.384339 -0.584671 0)
(0.369463 -0.717398 0)
(0.199439 -0.954301 0)
(0.304951 -1.0115 0)
(0.45296 -1.11355 0)
(0.419528 -0.970909 0)
(0.27982 -0.904385 0)
(0.315638 -0.805871 0)
(0.473612 -0.71989 0)
(0.565414 -0.630342 0)
(0.734898 -0.661872 0)
(0.825318 -0.678928 0)
(0.864919 -0.477981 0)
(0.852983 -0.316445 0)
(0.941715 0.0873426 0)
(0.681694 0.656435 0)
(0.678521 1.02207 0)
(0.335321 1.4075 0)
(0.168179 1.55256 0)
(0.149234 -0.999585 0)
(0.202016 -1.19631 0)
(0.197552 -1.14635 0)
(0.00997777 -0.755502 0)
(0.193555 -0.809215 0)
(-0.337201 -0.489668 0)
(-0.738993 -0.331295 0)
(-0.764685 -0.387912 0)
(-0.448571 -0.289742 0)
(-0.297106 -0.197376 0)
(-0.245164 -0.190725 0)
(0.475649 -0.671061 0)
(0.859329 -0.592256 0)
(0.865118 -0.262584 0)
(0.979246 0.344169 0)
(0.718188 0.744455 0)
(0.662167 1.19331 0)
(0.327205 1.6377 0)
(0.15378 1.73944 0)
(-0.0399864 -0.602458 0)
(0.0537726 -0.765481 0)
(0.205932 -0.751718 0)
(0.242066 -0.631824 0)
(0.354914 -0.497956 0)
(0.184541 -0.526247 0)
(-0.990374 -0.373338 0)
(-0.715442 -0.298806 0)
(-0.559115 -0.236606 0)
(-0.363011 -0.144571 0)
(-0.30479 -0.0461812 0)
(-0.17404 0.0235629 0)
(0.0872622 0.120664 0)
(0.360876 0.309738 0)
(0.68178 0.513815 0)
(0.600193 0.868968 0)
(0.554722 1.31505 0)
(0.300815 1.86147 0)
(0.221959 1.98706 0)
(0.382484 -0.685861 0)
(0.305351 -0.626454 0)
(0.193401 -0.565895 0)
(0.0696188 -0.534716 0)
(-0.0374388 -0.584228 0)
(-0.970937 -0.47756 0)
(-0.983661 -0.278431 0)
(-0.761977 -0.221702 0)
(-0.667256 -0.184491 0)
(-0.588041 -0.166043 0)
(-0.459788 -0.131843 0)
(-0.359793 -0.0623513 0)
(-0.199931 0.0726522 0)
(-0.0559403 0.265019 0)
(0.259981 0.577967 0)
(0.333257 0.88396 0)
(0.372232 1.35466 0)
(0.166575 2.06461 0)
(0.116217 2.20639 0)
(0.213935 -0.364175 0)
(0.0817095 -0.382798 0)
(-0.0855448 -0.422041 0)
(-0.204714 -0.486671 0)
(-0.358438 -0.534743 0)
(-1.16603 -0.316846 0)
(-0.996144 -0.2463 0)
(-0.860081 -0.210604 0)
(-0.75338 -0.188881 0)
(-0.692863 -0.182041 0)
(-0.64594 -0.183807 0)
(-0.579664 -0.152027 0)
(-0.500171 -0.0423813 0)
(-0.4422 0.15465 0)
(-0.254667 0.513779 0)
(-0.0457343 0.912952 0)
(0.141582 1.5352 0)
(-0.0650598 2.11669 0)
(0.00616518 2.24438 0)
(-0.00873461 -0.373657 0)
(-0.0968404 -0.379572 0)
(-0.175382 -0.383824 0)
(-0.256369 -0.377982 0)
(-0.417181 -0.383633 0)
(-1.31825 -0.252058 0)
(-1.20858 -0.194366 0)
(-0.991915 -0.175535 0)
(-0.845289 -0.184905 0)
(-0.789619 -0.202267 0)
(-0.770286 -0.205999 0)
(-0.75156 -0.184201 0)
(-0.759074 -0.0958977 0)
(-0.761108 0.0615165 0)
(-0.683941 0.401158 0)
(-0.496301 0.946076 0)
(-0.191544 1.60278 0)
(-0.267305 2.04223 0)
(-0.051184 2.16055 0)
(-0.0530443 -0.290391 0)
(-0.131594 -0.28906 0)
(-0.186278 -0.293146 0)
(-0.247109 -0.292325 0)
(-0.356476 -0.291865 0)
(-0.765195 -0.232807 0)
(-1.33861 -0.16109 0)
(-1.20275 -0.134127 0)
(-0.984525 -0.150139 0)
(-0.876858 -0.166635 0)
(-0.853039 -0.170181 0)
(-0.854269 -0.149335 0)
(-0.915844 -0.0791955 0)
(-1.00344 0.0450417 0)
(-1.01126 0.300877 0)
(-0.903002 0.822747 0)
(-0.593101 1.48155 0)
(-0.471904 1.85919 0)
(-0.181231 1.95745 0)
(-0.108221 -0.223172 0)
(-0.143714 -0.242328 0)
(-0.177394 -0.252673 0)
(-0.217477 -0.243879 0)
(-0.273826 -0.225222 0)
(-0.327786 -0.171385 0)
(-0.424918 -0.0683071 0)
(-1.23422 -0.0439354 0)
(-1.20708 -0.0604639 0)
(-1.00148 -0.081944 0)
(-0.917579 -0.0925716 0)
(-0.905777 -0.0744324 0)
(-0.962765 0.000625557 0)
(-1.10606 0.104705 0)
(-1.19858 0.262921 0)
(-1.14973 0.62972 0)
(-0.858315 1.18489 0)
(-0.610923 1.51798 0)
(-0.223493 1.49799 0)
(-0.117536 -0.217935 0)
(-0.145945 -0.223975 0)
(-0.172156 -0.222257 0)
(-0.208801 -0.2052 0)
(-0.242825 -0.178024 0)
(-0.264729 -0.132123 0)
(-0.271669 -0.0667464 0)
(-0.324189 0.0288465 0)
(-1.19314 0.0645151 0)
(-1.26388 0.0467433 0)
(-1.02958 0.0170639 0)
(-0.93798 0.0167557 0)
(-0.931832 0.069812 0)
(-1.05703 0.183985 0)
(-1.21907 0.298756 0)
(-1.21323 0.5267 0)
(-0.982906 0.892909 0)
(-0.625985 1.14482 0)
(-0.295417 1.102 0)
(-0.120374 -0.194337 0)
(-0.137442 -0.194778 0)
(-0.156154 -0.18894 0)
(-0.178702 -0.179225 0)
(-0.202172 -0.160712 0)
(-0.218205 -0.123221 0)
(-0.215336 -0.0648897 0)
(-0.183271 0.00458254 0)
(-0.225653 0.114263 0)
(-1.06964 0.16874 0)
(-1.28618 0.137541 0)
(-1.06056 0.135199 0)
(-0.948179 0.150442 0)
(-0.951283 0.242605 0)
(-1.10692 0.407193 0)
(-1.17024 0.537303 0)
(-1.02685 0.707426 0)
(-0.631171 0.790206 0)
(-0.264075 0.63688 0)
(-0.118666 -0.177916 0)
(-0.136878 -0.182271 0)
(-0.157332 -0.174247 0)
(-0.173253 -0.160971 0)
(-0.183806 -0.142605 0)
(-0.186456 -0.115969 0)
(-0.176856 -0.0829799 0)
(-0.137219 -0.0422736 0)
(-0.0914982 0.0461485 0)
(-0.036205 0.179408 0)
(-0.773071 0.38394 0)
(-1.31111 0.259228 0)
(-1.09371 0.250398 0)
(-0.961446 0.283528 0)
(-0.968683 0.39759 0)
(-1.04583 0.470282 0)
(-0.959543 0.532384 0)
(-0.505459 0.36434 0)
(-0.17364 0.294228 0)
(-0.117327 -0.16855 0)
(-0.129298 -0.1689 0)
(-0.143013 -0.161407 0)
(-0.153553 -0.153286 0)
(-0.159601 -0.141885 0)
(-0.160814 -0.123193 0)
(-0.148501 -0.102048 0)
(-0.106305 -0.0831257 0)
(-0.0729429 -0.0287242 0)
(0.069273 0.0755593 0)
(0.155843 0.55335 0)
(-0.630738 0.689233 0)
(-1.43224 0.400999 0)
(-1.13706 0.339219 0)
(-0.972615 0.362859 0)
(-0.869257 0.332024 0)
(-0.563113 0.0663509 0)
(-0.37773 -0.0977432 0)
(-0.198807 0.0371798 0)
)
;

boundaryField
{
    leftWall
    {
        type            fixedValue;
        value           nonuniform 0();
    }
    rightWall
    {
        type            fixedValue;
        value           uniform (0 0 0);
    }
    lowerWall
    {
        type            fixedValue;
        value           uniform (0 0 0);
    }
    atmosphere
    {
        type            fluxCorrectedVelocity;
        value           nonuniform 0();
    }
    defaultFaces
    {
        type            empty;
    }
    procBoundary1to0
    {
        type            processor;
        value           nonuniform List<vector> 
26
(
(0.0218574 0.010492 0)
(0.0266712 0.020881 0)
(0.0492874 0.0325212 0)
(0.0465541 0.0379551 0)
(0.0320624 0.036249 0)
(0.00244099 0.0421842 0)
(-0.0124791 0.0395767 0)
(-0.0102599 0.0398919 0)
(-0.00945628 0.0936136 0)
(-0.0212976 -0.0527411 0)
(0.31905 0.00314429 0)
(0.574518 -0.100716 0)
(0.472111 -0.122409 0)
(0.356998 -0.165796 0)
(0.074816 -0.351903 0)
(-0.0696381 -0.80109 0)
(0.244796 -0.615196 0)
(0.244796 -0.615196 0)
(0.397941 -0.257994 0)
(0.130396 -0.195936 0)
(0.121919 -0.288542 0)
(-0.0522335 -0.139611 0)
(-0.063474 -0.203976 0)
(-0.0806944 -0.168177 0)
(-0.083796 -0.167648 0)
(-0.0886967 -0.162604 0)
)
;
    }
    procBoundary1to3
    {
        type            processor;
        value           nonuniform List<vector> 
23
(
(-0.0928213 -0.15142 0)
(-0.0961649 -0.152665 0)
(-0.0986596 -0.152846 0)
(-0.104528 -0.152761 0)
(-0.11218 -0.152635 0)
(-0.124934 -0.15105 0)
(-0.139147 -0.14573 0)
(-0.151474 -0.140304 0)
(-0.155922 -0.133653 0)
(-0.155089 -0.124405 0)
(-0.140847 -0.121988 0)
(-0.104208 -0.12674 0)
(-0.08329 -0.108991 0)
(0.073399 -0.0219354 0)
(0.121327 0.441495 0)
(0.252123 1.17823 0)
(-0.961885 0.758452 0)
(-1.54344 0.533421 0)
(-1.15375 0.398091 0)
(-0.92849 0.324422 0)
(-0.127404 -0.534162 0)
(-0.127243 -0.464174 0)
(-0.0781063 -0.287158 0)
)
;
    }
}


// ************************************************************************* //
