/*--------------------------------*- C++ -*----------------------------------*\
| =========                 |                                                 |
| \\      /  F ield         | OpenFOAM: The Open Source CFD Toolbox           |
|  \\    /   O peration     | Version:  2.4.0                                 |
|   \\  /    A nd           | Web:      www.OpenFOAM.org                      |
|    \\/     M anipulation  |                                                 |
\*---------------------------------------------------------------------------*/
FoamFile
{
    version     2.0;
    format      ascii;
    class       volScalarField;
    location    "0.35";
    object      alpha.air;
}
// * * * * * * * * * * * * * * * * * * * * * * * * * * * * * * * * * * * * * //

dimensions      [0 0 0 0 0 0 0];

internalField   nonuniform List<scalar> 
559
(
1.91794e-17
1.99555e-16
1.06021e-15
4.27393e-15
1.88964e-14
4.55088e-14
7.96945e-14
9.98406e-14
5.96032e-05
2.17819e-05
7.3164e-06
1.60144e-05
2.2095e-05
2.13603e-05
1.20999e-05
7.48211e-06
6.61578e-06
7.76473e-06
1.04648e-05
2.26257e-05
1.63294e-05
7.6804e-06
1.69344e-05
0.00103925
0.00263754
0.00170123
0.00170123
6.43785e-05
1.03061e-05
1.14096e-06
5.70447e-07
1.08752e-07
3.05157e-08
2.89075e-08
3.10267e-08
4.12955e-08
2.69203e-08
2.6872e-08
2.81353e-07
8.7464e-08
8.76149e-08
1.68192e-06
0.000457677
0.00155
0.00174059
0.00883576
5.12711e-05
1.93379e-06
4.18873e-08
3.59439e-08
3.63482e-08
7.2225e-08
2.67443e-08
2.67443e-08
9.18959e-08
6.82567e-07
5.54349e-07
4.37736e-05
5.70469e-06
1.09465e-07
1.80163e-07
3.39612e-05
0.00030843
0.00086286
0.111038
1.73152e-05
1.90413e-07
1.44885e-07
1.08624e-06
1.0095e-05
2.62521e-05
2.93191e-06
2.58069e-07
2.04155e-06
3.22513e-05
4.92557e-05
0.000586839
0.000171173
9.82939e-06
1.95997e-07
6.51627e-07
0.000101245
0.00107825
0.11463
2.44413e-06
7.32245e-07
1.3294e-05
0.000860489
0.0132795
0.0177954
0.00110739
6.05222e-05
3.92316e-05
0.000495927
0.00149906
0.0126438
0.00374695
0.00016429
1.45106e-06
4.23142e-07
0.000112676
0.0400774
0.114628
6.69431e-07
2.56183e-06
0.000671941
0.0937067
0.608888
0.555899
0.116791
0.00619648
0.00119234
0.00392362
0.0227448
0.25608
0.216647
0.0158891
8.0796e-05
7.00361e-07
0.000113851
0.0629644
0.0631557
6.69231e-07
6.23117e-06
0.00341134
0.806388
0.998698
0.998673
0.852532
0.133013
0.0138297
0.00963873
0.0989742
0.703231
0.950654
0.19511
0.00299456
1.21036e-05
0.000197959
0.0631206
0.0137128
3.32625e-06
1.58966e-05
0.227796
0.99124
0.999047
0.999047
0.994239
0.472581
0.042642
0.0113257
0.161764
0.758958
0.981622
0.754349
0.0296071
0.000130099
0.00105148
0.0219102
0.00224531
1.42511e-13
1.42017e-12
1.81647e-11
6.0693e-11
1.06765e-10
8.92622e-11
4.27459e-11
8.39139e-07
0.00288754
0.496529
0.564947
0.244346
0.000371517
0.0728894
0.330838
0.252233
8.16245e-06
0.00535668
0.0371002
0.0937245
7.33226e-08
4.26219e-05
0.000440452
0.00435383
7.31417e-10
6.4713e-08
5.40932e-07
1.6339e-05
1.43614e-10
3.15145e-09
9.80139e-09
7.45153e-08
4.05908e-11
4.10715e-11
1.10619e-10
3.62554e-09
3.16022e-07
2.11472e-08
2.95771e-10
2.73477e-10
0.000929789
0.000377365
2.5501e-05
2.12333e-07
0.0164853
0.0120479
0.00654808
0.00333148
0.462957
0.370874
0.316668
0.235926
0.998827
0.995788
0.990355
0.983217
1
1
1
1
1
1
0.999999
0.999999
1
0.999999
0.999999
0.999999
0.999999
0.999999
0.999999
0.999999
0.999999
0.999999
0.999999
0.999999
0.000539826
0.000101546
0.388699
0.968122
0.999047
0.999047
0.988291
0.581078
0.056648
0.0146397
0.167554
0.717471
0.983622
0.985551
0.370318
0.0108493
0.00115252
0.00194597
0.000289872
0.0193028
0.000443714
0.0724782
0.649289
0.958924
0.959092
0.770318
0.177674
0.0129018
0.0246197
0.338568
0.876119
0.995083
0.999858
0.927046
0.0658714
0.00126429
2.76867e-05
8.62118e-06
0.0507087
0.00341535
0.0215845
0.102329
0.389111
0.393046
0.147494
0.0111591
0.00190248
0.0470863
0.571584
0.965804
0.999627
0.999998
0.999076
0.520769
0.0156264
6.46393e-05
1.62642e-06
0.015983
0.00786065
0.00951537
0.0175968
0.0116312
0.0042345
0.000749407
0.000446772
0.00187051
0.124917
0.72398
0.986331
0.999976
1
0.999998
0.945734
0.0486019
0.000195561
1.62642e-06
0.000623642
0.00385132
0.00365074
0.00292694
0.00144696
0.000331155
0.000133986
0.000441658
0.0181496
0.354669
0.884984
0.997603
0.999999
1
1
0.989335
0.0991821
0.000630272
1.78576e-06
8.26362e-06
0.000343695
0.000566309
0.000413325
0.000114255
5.93771e-05
0.000132505
0.00693665
0.117354
0.690293
0.978898
0.999895
1
1
1
0.999874
0.375775
0.00542725
5.63069e-06
1.1525e-06
8.22841e-06
1.78911e-05
1.08427e-05
1.08552e-05
5.91004e-05
0.00347322
0.0396423
0.432192
0.914451
0.998615
1
1
1
1
1
0.851311
0.025213
4.68554e-05
4.98716e-08
1.80255e-06
2.20799e-06
2.43654e-06
5.63391e-05
0.00410123
0.0373821
0.276481
0.827751
0.993439
0.999993
1
1
1
1
1
0.991702
0.0925486
0.000527469
2.44769e-08
5.63617e-08
1.74359e-07
0.000359787
0.00762342
0.0555882
0.228275
0.760395
0.988357
0.999976
1
1
1
1
1
1
0.999899
0.257977
0.00432359
0.000247004
2.02304e-06
2.31238e-05
0.0276094
0.0957369
0.34685
0.800854
0.989649
0.999963
1
1
1
1
1
1
1
1
0.535546
0.0184356
0.0786341
0.0156823
0.021287
0.137735
0.672572
0.98002
0.999923
0.999993
1
1
1
1
1
1
1
1
1
0.610488
0.0243141
0.922753
0.769734
0.802241
0.951111
0.998492
0.999995
1
1
1
1
1
1
1
1
1
1
1
0.506567
0.0208865
0.999999
0.999993
0.999959
0.999901
0.999988
1
1
1
1
1
1
1
1
1
1
1
1
0.285221
0.0120086
0.999999
1
1
1
1
1
1
1
1
1
1
1
1
1
1
1
1
0.243883
0.0076558
0.999999
0.999999
1
1
1
1
1
1
1
1
1
1
1
1
1
1
1
0.387068
0.0109215
0.999999
0.999999
0.999999
0.999999
1
1
1
1
1
1
1
1
1
1
1
1
1
0.75533
0.0335738
0.999998
0.999999
0.999999
0.999999
0.999999
0.999999
1
1
1
1
1
1
1
1
1
1
1
0.962618
0.0827475
)
;

boundaryField
{
    leftWall
    {
        type            alphaContactAngle;
        thetaProperties 
6
(

(
water
mercury
)
 90 0 0 0

(
water
air
)
 90 0 0 0

(
water
oil
)
 90 0 0 0

(
mercury
air
)
 90 0 0 0

(
oil
mercury
)
 90 0 0 0

(
oil
air
)
 90 0 0 0
);
        value           nonuniform 0();
    }
    rightWall
    {
        type            alphaContactAngle;
        thetaProperties 
6
(

(
water
mercury
)
 90 0 0 0

(
water
air
)
 90 0 0 0

(
water
oil
)
 90 0 0 0

(
mercury
air
)
 90 0 0 0

(
oil
mercury
)
 90 0 0 0

(
oil
air
)
 90 0 0 0
);
        value           nonuniform List<scalar> 
25
(
0.00170123
0.00883576
0.111038
0.11463
0.114628
0.0631557
0.0137128
0.00224531
0.000289872
8.62118e-06
1.62642e-06
1.62642e-06
1.78576e-06
5.63069e-06
4.68554e-05
0.000527469
0.00432359
0.0184356
0.0243141
0.0208865
0.0120086
0.0076558
0.0109215
0.0335738
0.0827475
)
;
    }
    lowerWall
    {
        type            alphaContactAngle;
        thetaProperties 
6
(

(
water
mercury
)
 90 0 0 0

(
water
air
)
 90 0 0 0

(
water
oil
)
 90 0 0 0

(
mercury
air
)
 90 0 0 0

(
oil
mercury
)
 90 0 0 0

(
oil
air
)
 90 0 0 0
);
        value           nonuniform List<scalar> 
40
(
1.91794e-17
1.91794e-17
1.99555e-16
1.06021e-15
4.27393e-15
1.88964e-14
4.55088e-14
7.96945e-14
9.98406e-14
0.00288754
0.496529
0.564947
0.244346
5.96032e-05
6.43785e-05
5.12711e-05
1.73152e-05
2.44413e-06
6.69431e-07
6.69231e-07
3.32625e-06
5.96032e-05
2.17819e-05
7.3164e-06
1.60144e-05
2.2095e-05
2.13603e-05
1.20999e-05
7.48211e-06
6.61578e-06
7.76473e-06
1.04648e-05
2.26257e-05
1.63294e-05
7.6804e-06
1.69344e-05
0.00103925
0.00263754
0.00170123
0.00170123
)
;
    }
    atmosphere
    {
        type            inletOutlet;
        inletValue      nonuniform 0();
        value           nonuniform 0();
    }
    defaultFaces
    {
        type            empty;
    }
    procBoundary1to0
    {
        type            processor;
        value           nonuniform List<scalar> 
26
(
6.53994e-17
6.82286e-16
4.19468e-15
2.02822e-14
8.30814e-14
1.92879e-13
2.80069e-13
3.29747e-13
8.65105e-13
8.09412e-12
7.53759e-11
2.18448e-10
3.59344e-10
1.53295e-10
2.63388e-10
8.20012e-06
0.000673235
0.000673235
0.0307089
0.596956
0.999771
1
1
1
0.999999
0.999999
)
;
    }
    procBoundary1to3
    {
        type            processor;
        value           nonuniform List<scalar> 
23
(
0.999999
0.999999
0.999999
0.999998
0.999998
0.999998
0.999998
0.999998
0.999999
0.999999
0.999999
0.999999
1
1
1
1
1
1
1
1
1
0.995911
0.183747
)
;
    }
}


// ************************************************************************* //
