/*--------------------------------*- C++ -*----------------------------------*\
| =========                 |                                                 |
| \\      /  F ield         | OpenFOAM: The Open Source CFD Toolbox           |
|  \\    /   O peration     | Version:  2.4.0                                 |
|   \\  /    A nd           | Web:      www.OpenFOAM.org                      |
|    \\/     M anipulation  |                                                 |
\*---------------------------------------------------------------------------*/
FoamFile
{
    version     2.0;
    format      ascii;
    class       volScalarField;
    location    "0.35";
    object      alpha.mercury;
}
// * * * * * * * * * * * * * * * * * * * * * * * * * * * * * * * * * * * * * //

dimensions      [0 0 0 0 0 0 0];

internalField   nonuniform List<scalar> 
559
(
0.999955
0.99995
0.999945
0.999934
0.999932
0.999921
0.999887
0.999876
0.000145133
0.000183381
0.000217833
0.000275392
0.000334225
0.000440428
0.000751115
0.0021617
0.00912254
0.0339292
0.0509051
0.0508859
0.0509154
0.0505816
0.0505726
0.044636
0.0256673
0.0101746
0.00184753
0.000102866
6.11602e-05
4.88243e-05
3.98894e-05
3.55458e-05
6.03734e-05
0.000163408
0.000719937
0.00345949
0.0128806
0.0507614
0.0512691
0.050751
0.0509314
0.0350402
0.00914713
0.00289337
0.000958869
0.000101239
5.1271e-05
2.78782e-05
2.60483e-05
2.75214e-05
3.37919e-05
5.87525e-05
0.000164445
0.000870428
0.00506425
0.0188844
0.0376343
0.0510242
0.0512919
0.0393186
0.0114191
0.00199762
0.000521175
0.000143717
7.99338e-06
3.01053e-05
1.89202e-05
1.84352e-05
1.7615e-05
2.00843e-05
4.65896e-05
0.000121323
0.000900589
0.00621196
0.0232736
0.0443141
0.0515624
0.0453476
0.0161009
0.00341087
0.000586591
0.000241046
9.9104e-05
7.36185e-06
2.41422e-05
1.7672e-05
1.38161e-05
9.33594e-06
7.83609e-06
2.02215e-05
9.05276e-05
0.000913889
0.00859404
0.028603
0.0512087
0.0498777
0.0260313
0.0059362
0.000842368
0.000167902
0.000120623
6.30924e-05
9.1602e-06
2.00612e-05
1.60763e-05
7.8658e-06
2.308e-06
1.26389e-06
1.8082e-06
1.11025e-05
0.000842307
0.0124105
0.0345069
0.0577404
0.0530534
0.0182999
0.00255577
0.000226713
9.90316e-05
8.39639e-05
5.70551e-05
9.1814e-06
1.85337e-05
1.27601e-05
2.80949e-06
1.9581e-07
5.82842e-09
8.53142e-09
1.21103e-06
0.000921845
0.0165354
0.042561
0.0613087
0.0349157
0.00681976
0.00109236
0.000114608
8.76461e-05
7.89393e-05
5.88719e-05
7.60492e-06
1.57545e-05
3.35146e-06
5.8291e-09
5.82941e-09
5.8281e-09
5.84053e-09
5.83713e-09
0.00149453
0.0211724
0.0520121
0.0621338
0.0334314
0.00487044
0.000793145
5.03348e-05
6.04288e-05
6.60585e-05
5.05354e-05
5.68976e-06
0.993573
0.88099
0.494873
0.125185
0.0133582
0.00456146
0.000672401
6.69833e-05
0.979259
0.417004
0.0316839
0.0291791
0.969061
0.881388
0.606823
0.365735
0.773601
0.814742
0.787964
0.718299
0.288646
0.412142
0.519995
0.578992
0.0375762
0.0730794
0.133286
0.217087
0.0135788
0.0243008
0.0373321
0.0571837
0.0021773
0.0044115
0.00892505
0.019515
0.000220395
0.000507235
0.00123742
0.00342308
1.14374e-05
3.07515e-05
8.55795e-05
0.000264309
1.24868e-07
4.21917e-07
1.34423e-06
5.39482e-06
1.28392e-10
8.46039e-10
9.44062e-09
2.71798e-11
4.51566e-15
6.87405e-14
9.26311e-13
3.6564e-11
3.63158e-14
8.62593e-14
1.17436e-13
1.34103e-13
4.76679e-14
7.18364e-14
1.35639e-13
2.38816e-13
1.48166e-14
2.60676e-14
5.07692e-14
9.30094e-14
2.36286e-15
4.42742e-15
8.09155e-15
1.41013e-14
3.31504e-16
5.63746e-16
9.44141e-16
1.54415e-15
0.0129829
0.00128443
0.00019945
1.86479e-06
1.23958e-07
5.55458e-07
6.78081e-05
0.00810848
0.0326344
0.0601001
0.0652367
0.0409626
0.0062522
0.000543134
1.6298e-05
3.13072e-05
4.52013e-05
3.46293e-05
4.26132e-06
0.128802
0.0172736
0.00772978
0.00138825
0.000110352
0.000330884
0.00448672
0.0322808
0.0583194
0.0654773
0.0652988
0.01985
0.00160376
6.2015e-05
1.33478e-06
1.0099e-05
2.58185e-05
1.86849e-05
2.95435e-06
0.401968
0.102033
0.0632539
0.0230678
0.00815412
0.0162414
0.0426483
0.0651784
0.0691742
0.0704882
0.041253
0.00437434
8.49719e-05
1.423e-06
3.94328e-08
1.66387e-06
1.1891e-05
1.38231e-05
2.96602e-06
0.527966
0.306704
0.148463
0.0619406
0.0674428
0.0766753
0.088973
0.0866716
0.0769804
0.0723945
0.0245836
0.00134415
3.01657e-06
3.61437e-08
3.2527e-08
8.19989e-08
4.47894e-06
8.54205e-06
2.25309e-06
0.341782
0.343887
0.281259
0.202562
0.171665
0.152663
0.126411
0.0979618
0.0824537
0.0483492
0.00767493
0.000157398
2.47605e-07
1.1786e-07
3.23022e-08
8.34346e-09
1.04754e-06
4.23127e-06
1.45485e-06
0.134596
0.248174
0.261489
0.243152
0.206628
0.164861
0.117209
0.0864797
0.0592181
0.015939
0.00100587
5.34181e-06
2.14468e-07
1.76095e-07
3.6199e-08
2.57231e-09
1.3353e-07
1.59283e-06
8.48012e-07
0.0628612
0.129588
0.184311
0.186314
0.165773
0.121363
0.0747975
0.0524095
0.0223667
0.0024933
3.63315e-05
1.88145e-07
1.0475e-07
1.08502e-07
3.25293e-08
2.59119e-09
8.2402e-09
4.58748e-07
3.55004e-07
0.0251324
0.0699435
0.103472
0.099766
0.0778423
0.0491129
0.0334538
0.0169876
0.00289873
0.000106073
3.03984e-07
9.28295e-08
3.18842e-08
3.38158e-08
1.9534e-08
2.66473e-09
2.43983e-10
1.18662e-07
1.27561e-07
0.00540487
0.0222165
0.0304274
0.026452
0.0178309
0.0124442
0.00653122
0.00147084
8.67423e-05
1.1036e-06
7.08099e-08
3.09109e-08
6.72987e-09
6.35478e-09
8.72177e-09
1.92699e-09
1.03458e-10
3.03993e-08
4.8211e-08
0.000379895
0.00226147
0.00246802
0.00227357
0.00142628
0.000746085
0.000207443
1.83191e-05
3.27265e-07
1.19631e-07
1.64197e-08
7.10543e-09
1.01145e-09
9.56421e-10
2.87291e-09
9.53762e-10
7.20954e-11
8.05454e-09
2.21847e-08
1.25501e-05
0.000145528
0.000116677
4.06826e-05
1.05634e-05
7.40987e-07
6.18102e-09
9.32347e-09
3.4579e-08
1.79208e-08
2.61274e-09
1.1247e-09
1.09822e-10
1.19768e-10
6.26736e-10
3.36127e-10
3.62867e-11
2.96369e-09
1.23716e-08
3.66362e-08
5.09456e-07
4.23459e-07
9.28677e-08
1.91909e-09
5.77146e-11
5.39235e-10
2.0424e-09
3.71895e-09
1.62537e-09
2.67319e-10
1.22653e-10
8.07588e-12
1.19847e-11
8.57502e-11
1.00214e-10
1.96433e-11
1.29557e-09
7.4759e-09
1.4776e-13
6.25498e-13
3.23857e-12
9.44879e-12
1.41272e-11
3.67974e-11
6.6185e-11
2.27035e-10
2.82239e-10
1.07363e-10
1.80246e-11
9.42702e-12
4.06962e-13
9.97251e-13
7.02383e-12
1.93815e-11
8.42056e-12
4.0803e-10
4.40792e-09
3.94357e-13
9.52004e-13
2.46601e-12
4.56848e-12
8.36818e-12
1.01188e-11
6.65996e-12
1.46566e-11
1.51522e-11
5.12322e-12
8.30178e-13
5.06476e-13
3.97644e-14
1.46683e-13
5.18103e-13
2.43258e-12
3.78397e-12
5.9063e-11
2.3465e-09
1.64183e-13
4.09497e-13
8.9457e-13
1.54552e-12
2.07373e-12
1.62416e-12
5.66288e-13
6.21829e-13
5.80475e-13
1.74047e-13
2.82119e-14
2.44634e-14
2.72155e-14
9.62375e-14
2.54475e-13
1.21276e-12
1.89162e-12
4.77633e-12
1.0271e-09
2.38529e-14
6.08548e-14
1.44079e-13
2.35696e-13
2.74596e-13
1.62057e-13
3.89806e-14
1.75279e-14
1.5651e-14
4.44913e-15
2.11578e-15
6.42901e-15
2.53104e-14
8.91684e-14
2.50297e-13
7.21884e-13
1.1018e-12
2.93296e-12
3.15457e-10
2.49041e-15
5.79147e-15
1.21621e-14
1.79796e-14
1.85659e-14
9.65147e-15
2.07952e-15
3.88959e-16
3.62275e-16
3.51702e-16
1.31444e-15
5.41245e-15
2.30378e-14
8.29579e-14
2.46815e-13
5.75445e-13
7.90831e-13
2.19032e-12
5.63569e-11
)
;

boundaryField
{
    leftWall
    {
        type            zeroGradient;
    }
    rightWall
    {
        type            zeroGradient;
    }
    lowerWall
    {
        type            zeroGradient;
    }
    atmosphere
    {
        type            inletOutlet;
        inletValue      nonuniform 0();
        value           nonuniform 0();
    }
    defaultFaces
    {
        type            empty;
    }
    procBoundary1to0
    {
        type            processor;
        value           nonuniform List<scalar> 
26
(
0.999993
0.999993
0.999992
0.999989
0.99998
0.999878
0.998298
0.988541
0.876133
0.465927
0.101237
0.00978133
0.000803278
0.000147721
2.43203e-05
3.46197e-06
3.55862e-06
3.55862e-06
3.94074e-08
1.70122e-11
1.52526e-15
9.75835e-15
2.43306e-14
6.78132e-15
8.34998e-16
1.32697e-16
)
;
    }
    procBoundary1to3
    {
        type            processor;
        value           nonuniform List<scalar> 
23
(
1.80395e-17
2.96185e-17
4.82237e-17
7.64745e-17
1.1594e-16
2.31045e-16
3.66311e-16
3.99056e-16
5.54858e-16
3.445e-16
1.09825e-16
2.86803e-17
5.42932e-17
2.28505e-16
1.08863e-15
4.71545e-15
2.0672e-14
7.70842e-14
2.40501e-13
5.49703e-13
6.94074e-13
1.91562e-12
1.20926e-11
)
;
    }
}


// ************************************************************************* //
