/*--------------------------------*- C++ -*----------------------------------*\
| =========                 |                                                 |
| \\      /  F ield         | OpenFOAM: The Open Source CFD Toolbox           |
|  \\    /   O peration     | Version:  2.4.0                                 |
|   \\  /    A nd           | Web:      www.OpenFOAM.org                      |
|    \\/     M anipulation  |                                                 |
\*---------------------------------------------------------------------------*/
FoamFile
{
    version     2.0;
    format      ascii;
    class       volScalarField;
    location    "0.35";
    object      alpha.water;
}
// * * * * * * * * * * * * * * * * * * * * * * * * * * * * * * * * * * * * * //

dimensions      [0 0 0 0 0 0 0];

internalField   nonuniform List<scalar> 
559
(
7.26614e-11
1.4828e-09
5.44699e-08
3.44145e-07
2.01198e-06
1.16851e-05
4.18676e-05
4.19347e-05
1.28473e-09
1.755e-09
1.89614e-09
2.03834e-09
2.23493e-09
2.89992e-09
5.70229e-09
2.36005e-08
8.52923e-08
1.98829e-07
2.65944e-07
2.2643e-07
1.27739e-07
3.96882e-08
8.88361e-09
3.29195e-09
9.44765e-10
6.0244e-11
1.06412e-12
1.34352e-09
2.24566e-09
3.70758e-09
7.82236e-09
1.85145e-08
4.07091e-08
8.31119e-08
1.94725e-07
3.4373e-07
4.6768e-07
4.96124e-07
4.30662e-07
2.59823e-07
8.39996e-08
9.95561e-09
1.89122e-09
5.50146e-10
5.2887e-11
4.54452e-12
1.51475e-09
3.97946e-09
1.50708e-08
5.44759e-08
1.29339e-07
2.24045e-07
3.40923e-07
5.16544e-07
6.69352e-07
7.33319e-07
6.93942e-07
5.32856e-07
3.33791e-07
1.22846e-07
1.61652e-08
1.75587e-09
6.78193e-10
1.17612e-10
2.08783e-11
1.64293e-09
7.67807e-09
4.63489e-08
1.18192e-07
2.4467e-07
4.05926e-07
5.87538e-07
7.87847e-07
9.0214e-07
8.93457e-07
7.92195e-07
5.49115e-07
3.34265e-07
1.28968e-07
1.97636e-08
1.7701e-09
9.83844e-10
2.45137e-10
2.98148e-11
1.91587e-09
1.0787e-08
3.89768e-08
9.61386e-08
2.10537e-07
4.328e-07
7.07438e-07
1.00071e-06
1.09498e-06
1.02598e-06
8.32804e-07
4.75996e-07
2.71864e-07
1.15649e-07
2.01283e-08
1.74889e-09
1.12153e-09
4.30911e-10
6.3701e-11
2.29794e-09
1.28117e-08
2.65346e-08
2.8545e-08
4.92849e-08
1.91717e-07
6.9461e-07
1.11779e-06
1.32333e-06
1.15143e-06
8.53036e-07
4.0796e-07
1.15159e-07
6.3023e-08
1.58282e-08
1.94288e-09
1.16436e-09
5.27166e-10
9.15965e-11
2.79779e-09
1.12664e-08
1.38531e-08
2.17916e-09
9.65404e-11
8.86461e-10
1.77522e-07
1.0216e-06
1.70077e-06
1.32186e-06
8.42913e-07
2.09368e-07
1.54964e-08
1.70627e-08
1.02114e-08
2.10821e-09
1.16001e-09
5.83172e-10
9.39263e-11
2.4969e-09
4.58612e-09
1.99935e-09
1.21819e-10
9.65032e-11
9.67924e-11
9.67421e-11
5.3984e-07
2.35573e-06
1.69452e-06
9.74271e-07
2.45498e-07
1.15318e-08
2.98566e-09
3.94119e-09
1.81341e-09
1.146e-09
6.40506e-10
1.14959e-10
0.0056099
0.106538
0.472037
0.84328
0.958364
0.914644
0.529905
0.0874731
0.0156453
0.00974079
0.00223822
0.00164855
0.0246097
0.0291002
0.029173
0.0270411
0.202388
0.155121
0.146291
0.123652
0.674374
0.548506
0.436975
0.366426
0.928579
0.889038
0.824364
0.735795
0.914257
0.908625
0.899297
0.880724
0.663897
0.73727
0.798097
0.834534
0.192031
0.305088
0.438907
0.587584
0.0186835
0.0532489
0.120311
0.230396
0.000478728
0.00264407
0.0082266
0.0228974
4.21772e-06
1.96994e-05
6.64895e-05
0.000293861
1.77001e-10
4.84146e-09
7.07914e-08
1.27974e-06
1.48162e-13
1.35405e-13
1.17922e-13
1.54935e-13
1.42694e-13
1.25103e-13
2.04997e-13
3.2899e-13
4.45678e-14
1.34371e-14
1.29798e-14
2.19266e-14
8.40753e-15
2.83155e-15
2.01886e-15
2.48423e-15
1.14325e-15
6.80801e-16
6.31384e-16
7.01018e-16
0.000160306
7.49298e-06
1.79589e-06
2.95973e-08
8.92382e-09
1.28662e-08
9.7614e-08
2.84492e-06
4.59701e-06
4.27448e-06
3.09995e-06
6.3133e-07
1.92615e-08
1.00979e-09
8.66079e-10
1.02646e-09
1.02837e-09
7.57924e-10
1.87366e-10
0.00624165
0.000458321
0.000236574
6.08725e-05
6.16518e-06
8.50171e-06
1.59754e-05
2.00394e-05
1.93695e-05
1.46584e-05
7.69493e-06
8.02479e-07
9.36491e-09
4.22444e-11
5.93642e-11
5.04756e-10
8.62193e-10
7.44412e-10
2.73762e-10
0.053889
0.00822397
0.00436266
0.0017341
0.000512205
0.000539919
0.00035073
0.000100004
7.09804e-05
5.24078e-05
1.25355e-05
4.23577e-07
9.11999e-10
3.62805e-12
2.71306e-12
1.92362e-10
6.86796e-10
7.02031e-10
3.50985e-10
0.233078
0.078849
0.0205771
0.00603301
0.00533368
0.00357277
0.0013653
0.000571299
0.00039826
0.000141532
1.1059e-05
1.1062e-07
5.72603e-11
3.91096e-12
2.66406e-12
3.65289e-11
5.29356e-10
6.4335e-10
3.47713e-10
0.558927
0.332761
0.138205
0.0485676
0.0279109
0.0177216
0.0069663
0.00273135
0.00140411
0.000206815
4.70917e-06
8.58937e-09
3.90374e-12
3.77404e-12
2.65418e-12
5.5851e-12
3.51193e-10
5.71667e-10
3.33222e-10
0.789791
0.593171
0.39911
0.227576
0.12404
0.0559198
0.0164518
0.00758205
0.00208354
0.000126099
8.8633e-07
2.75286e-10
2.42336e-12
2.66125e-12
2.22703e-12
1.81355e-12
1.59344e-10
4.90104e-10
3.11333e-10
0.813554
0.716868
0.56015
0.379262
0.206136
0.0784015
0.023611
0.0104492
0.00158373
4.15642e-05
7.24688e-08
7.05974e-12
6.48336e-13
1.28164e-12
1.6606e-12
1.27075e-12
3.44385e-11
4.05967e-10
2.82082e-10
0.712507
0.67675
0.573217
0.40907
0.211991
0.0673712
0.0307045
0.00680506
0.000351356
1.96793e-06
2.262e-10
1.00721e-12
1.45937e-13
3.78699e-13
1.19011e-12
1.0103e-12
3.10434e-12
3.02585e-10
2.492e-10
0.451543
0.497691
0.440523
0.290546
0.112037
0.0517101
0.012756
0.000887306
6.91211e-06
9.32804e-10
1.22333e-11
1.75984e-13
3.48832e-14
9.5372e-14
8.01515e-13
7.62117e-13
1.59931e-12
2.02515e-10
2.15007e-10
0.128334
0.175448
0.131914
0.0824586
0.028608
0.00580697
0.000374612
3.25612e-06
1.34288e-09
3.54069e-11
7.68353e-13
3.11358e-14
1.60567e-14
4.38402e-14
4.17226e-13
5.17426e-13
1.00705e-12
1.35271e-10
1.82572e-10
0.00764648
0.0186986
0.0127783
0.00370204
0.000523973
1.16096e-05
1.50773e-08
1.46194e-10
2.99257e-11
2.33802e-12
5.71725e-14
7.76352e-15
1.36896e-14
3.82615e-14
1.81125e-13
3.40545e-13
7.77574e-13
9.81226e-11
1.5241e-10
2.4413e-05
8.49426e-05
6.38735e-05
1.24116e-05
1.98e-07
8.17285e-11
9.93959e-11
5.81748e-12
1.0156e-12
1.03747e-13
5.23348e-15
4.23321e-15
1.35957e-14
4.08264e-14
1.11275e-13
2.54638e-13
6.73008e-13
7.12056e-11
1.24178e-10
1.8747e-12
6.70974e-11
5.6584e-10
1.31819e-09
5.65606e-12
1.8291e-12
1.36296e-12
3.29784e-13
3.26405e-14
4.8151e-15
1.31922e-15
3.56791e-15
1.35849e-14
4.40058e-14
1.10587e-13
2.29921e-13
6.34549e-13
4.23373e-11
9.75725e-11
4.07872e-13
9.71043e-13
2.72945e-13
1.43389e-12
1.75028e-13
7.78902e-14
2.41891e-14
1.72177e-14
2.05645e-15
6.70932e-16
8.95695e-16
3.25253e-15
1.32437e-14
4.61092e-14
1.20576e-13
2.3436e-13
6.18956e-13
1.46684e-11
7.33242e-11
3.24078e-14
4.67273e-14
3.22786e-14
5.13508e-14
1.70699e-14
6.4239e-15
2.35486e-15
1.45706e-15
4.59571e-16
2.85945e-16
7.81705e-16
3.01115e-15
1.2837e-14
4.64883e-14
1.2788e-13
2.48574e-13
5.8346e-13
5.96234e-12
5.18713e-11
3.03694e-15
4.3331e-15
4.50707e-15
3.90258e-15
2.60051e-15
1.41475e-15
6.93657e-16
3.3382e-16
1.53732e-16
1.83375e-16
7.06137e-16
2.84928e-15
1.2357e-14
4.512e-14
1.32121e-13
2.66791e-13
5.35279e-13
3.99064e-12
3.1019e-11
7.73981e-16
9.22373e-16
1.00485e-15
8.61193e-16
6.38645e-16
3.91539e-16
2.01958e-16
9.86586e-17
6.0109e-17
1.39389e-16
6.23924e-16
2.63377e-15
1.1505e-14
4.29397e-14
1.33156e-13
2.87439e-13
4.9563e-13
2.92133e-12
1.38223e-11
)
;

boundaryField
{
    leftWall
    {
        type            zeroGradient;
    }
    rightWall
    {
        type            zeroGradient;
    }
    lowerWall
    {
        type            zeroGradient;
    }
    atmosphere
    {
        type            inletOutlet;
        inletValue      nonuniform 0();
        value           nonuniform 0();
    }
    defaultFaces
    {
        type            empty;
    }
    procBoundary1to0
    {
        type            processor;
        value           nonuniform List<scalar> 
26
(
1.15137e-10
3.44455e-09
1.41496e-07
1.60319e-06
8.52006e-06
0.000104498
0.00166179
0.0112827
0.117978
0.498432
0.863023
0.968651
0.976979
0.851879
0.345051
0.0192001
0.00503451
0.00503451
9.9347e-05
7.38479e-07
4.50707e-12
1.48683e-13
1.63528e-13
8.93917e-14
1.85498e-14
2.25368e-15
)
;
    }
    procBoundary1to3
    {
        type            processor;
        value           nonuniform List<scalar> 
23
(
1.44973e-16
1.42875e-16
1.59123e-16
1.81094e-16
2.00802e-16
2.33552e-16
2.36311e-16
1.97398e-16
1.55253e-16
1.00071e-16
5.48045e-17
2.93492e-17
2.96213e-17
1.10859e-16
5.32343e-16
2.34772e-15
1.05244e-14
4.06544e-14
1.32164e-13
3.0672e-13
4.78854e-13
2.37127e-12
1.05068e-11
)
;
    }
}


// ************************************************************************* //
