/*--------------------------------*- C++ -*----------------------------------*\
| =========                 |                                                 |
| \\      /  F ield         | OpenFOAM: The Open Source CFD Toolbox           |
|  \\    /   O peration     | Version:  2.4.0                                 |
|   \\  /    A nd           | Web:      www.OpenFOAM.org                      |
|    \\/     M anipulation  |                                                 |
\*---------------------------------------------------------------------------*/
FoamFile
{
    version     2.0;
    format      ascii;
    class       volScalarField;
    location    "0.35";
    object      alphas;
}
// * * * * * * * * * * * * * * * * * * * * * * * * * * * * * * * * * * * * * //

dimensions      [0 0 0 0 0 0 0];

internalField   nonuniform List<scalar> 
559
(
1.99995
1.99995
1.99994
1.99993
1.99993
1.99991
1.99985
1.99983
1.00027
1.00023
1.00023
1.00031
1.00038
1.00048
1.00078
1.00218
1.00914
1.03395
1.05093
1.05093
1.05095
1.0506
1.05061
1.04672
1.03094
1.01358
1.00526
1.00023
1.00008
1.00005
1.00004
1.00004
1.00006
1.00016
1.00072
1.00346
1.01288
1.05076
1.05127
1.05075
1.05093
1.03504
1.01006
1.00599
1.00444
1.01778
1.00015
1.00003
1.00003
1.00003
1.00003
1.00006
1.00017
1.00087
1.00506
1.01889
1.03764
1.05111
1.0513
1.03932
1.01142
1.00207
1.00114
1.00187
1.22209
1.00007
1.00002
1.00002
1.00002
1.00004
1.0001
1.00013
1.0009
1.00622
1.02334
1.04441
1.05274
1.04569
1.01612
1.00341
1.00059
1.00044
1.00226
1.22927
1.00003
1.00002
1.00004
1.00173
1.02657
1.03561
1.00231
1.00104
1.00867
1.02959
1.05421
1.07517
1.03353
1.00627
1.00085
1.00017
1.00035
1.08022
1.22927
1.00002
1.00002
1.00135
1.18742
2.21778
2.1118
1.23359
1.01324
1.0148
1.04235
1.10323
1.56521
1.4516
1.03433
1.00039
1.0001
1.00031
1.12599
1.12632
1.00002
1.00003
1.00683
2.61278
2.9974
2.99735
2.70507
1.26695
1.04419
1.06184
1.25926
2.44138
2.90813
1.39131
1.0061
1.00011
1.00048
1.1263
1.02743
1.00002
1.00004
1.45559
2.98248
2.9981
2.9981
2.98848
1.94666
1.10646
1.07466
1.38566
2.55135
2.96812
2.50949
1.05927
1.00032
1.00217
1.04387
1.0045
1.98796
1.77445
1.02284
0.281905
0.0549938
0.0899174
0.470767
0.912595
1.96939
2.40032
2.15934
1.51623
1.94519
1.99807
2.23933
1.84316
1.57123
1.67033
1.71587
1.7821
0.614272
0.863721
1.0839
1.22127
0.108997
0.184042
0.308923
0.481324
0.0993214
0.115676
0.138035
0.17646
0.33828
0.267142
0.210828
0.184981
0.80819
0.695419
0.56233
0.415839
0.983188
0.947537
0.879825
0.769868
1.03249
1.02145
1.00487
0.983771
1.92591
1.74173
1.63327
1.47156
2.99765
2.99158
2.98071
2.96643
3
3
3
3
3
3
3
3
3
3
3
3
3
3
3
3
3
3
3
3
1.0139
1.00148
1.7776
2.93625
2.9981
2.9981
2.97665
2.17026
1.14593
1.08938
1.40034
2.47591
2.9735
2.97165
1.74065
1.02173
1.00235
1.00393
1.00059
1.16117
1.0177
1.15245
2.29991
2.91796
2.91851
2.54511
1.38761
1.08411
1.1147
1.74243
2.77209
2.99177
2.99978
2.8541
1.13175
1.00256
1.00007
1.00002
1.4495
1.10064
1.10206
1.226
1.78587
1.8018
1.33729
1.0874
1.07291
1.16461
2.18441
2.93598
2.99934
3
2.99815
2.04154
1.03127
1.00014
1.00001
1.32685
1.24358
1.14692
1.0911
1.08538
1.08157
1.08911
1.087
1.08032
1.32209
2.47253
2.97401
2.99996
3
3
2.89147
1.09721
1.0004
1.00001
0.784103
1.01883
1.15036
1.15985
1.14665
1.13561
1.11971
1.09611
1.11735
1.75748
2.77764
2.99537
3
3
3
2.97867
1.19837
1.00127
1.00001
0.344822
0.655691
0.863512
1.0164
1.08282
1.10906
1.10102
1.09277
1.29184
2.3964
2.9588
2.9998
3.00001
3.00001
3
2.99975
1.75155
1.01086
1.00001
0.249309
0.412737
0.624197
0.807075
0.959659
1.04308
1.05813
1.12125
1.88517
2.83135
2.99727
3
3.00001
3.00001
3.00001
3
2.70262
1.05043
1.0001
0.312626
0.393197
0.530259
0.690701
0.865964
0.989944
1.07751
1.56315
2.65805
2.98698
2.99999
3.00001
3.00001
3.00001
3.00001
3
2.98341
1.1851
1.00106
0.553862
0.524526
0.589905
0.736626
0.92104
1.07191
1.45033
2.52138
2.97679
2.99996
3.00001
3.00001
3.00001
3.00001
3.00001
3.00001
2.9998
1.51596
1.00865
0.87254
0.826817
0.870601
0.975034
1.16429
1.68864
2.60154
2.97931
2.99993
3
3.00001
3.00001
3.00001
3.00001
3.00001
3.00001
3
2.07109
1.03687
1.14963
1.01281
1.02991
1.27181
2.34463
2.96003
2.99985
2.99999
3
3.00001
3.00001
3.00001
3.00001
3.00001
3.00001
3.00001
3
2.22098
1.04863
2.84548
2.53938
2.60442
2.90221
2.99699
2.99999
3
3
3.00001
3.00001
3.00001
3.00001
3.00001
3.00001
3.00001
3.00001
3
2.01314
1.04177
3
2.99999
2.99992
2.9998
2.99998
3
3
3.00001
3.00001
3.00001
3.00001
3.00001
3.00001
3.00001
3
3.00001
3.00001
1.57044
1.02402
3
3
3
3
3
3
3
3
3
3
3
3
3
3
3
3.00001
3.00001
1.48777
1.01531
3
3
3
3
3
3
3
3
3
3
3
3
3
3
3
3.00001
3.00001
1.77414
1.02184
3
3
3
3
3
3
3
3
3
3
3
3
3
3
3
3
3
2.51066
1.06715
3
3
3
3
3
3
3
3
3
3
3
3
3
3
3
3
3
2.92524
1.1655
)
;

boundaryField
{
    leftWall
    {
        type            zeroGradient;
    }
    rightWall
    {
        type            zeroGradient;
    }
    lowerWall
    {
        type            zeroGradient;
    }
    atmosphere
    {
        type            zeroGradient;
    }
    defaultFaces
    {
        type            empty;
    }
    procBoundary1to0
    {
        type            processor;
        value           nonuniform List<scalar> 
26
(
1.99999
1.99999
1.99999
1.99999
1.99997
1.99977
1.99664
1.97726
1.75815
0.967494
0.238214
0.0411301
0.0238245
0.148269
0.654973
0.98082
0.996316
0.996316
1.06132
2.19391
2.99954
3
3
3
3
3
)
;
    }
    procBoundary1to3
    {
        type            processor;
        value           nonuniform List<scalar> 
23
(
3
3
3
2.99999
2.99999
2.99999
2.99999
3
3
3
3
3
3
3
3
3
3
3
3
3
3
2.99183
1.3675
)
;
    }
}


// ************************************************************************* //
