/*--------------------------------*- C++ -*----------------------------------*\
| =========                 |                                                 |
| \\      /  F ield         | OpenFOAM: The Open Source CFD Toolbox           |
|  \\    /   O peration     | Version:  2.4.0                                 |
|   \\  /    A nd           | Web:      www.OpenFOAM.org                      |
|    \\/     M anipulation  |                                                 |
\*---------------------------------------------------------------------------*/
FoamFile
{
    version     2.0;
    format      ascii;
    class       volScalarField;
    location    "0.35";
    object      alpha.oil;
}
// * * * * * * * * * * * * * * * * * * * * * * * * * * * * * * * * * * * * * //

dimensions      [0 0 0 0 0 0 0];

internalField   nonuniform List<scalar> 
559
(
4.43912e-05
4.95149e-05
5.48763e-05
6.49586e-05
6.61195e-05
6.66701e-05
7.04932e-05
8.14706e-05
0.999796
0.999796
0.999775
0.999709
0.999644
0.999539
0.999237
0.997831
0.990871
0.966063
0.949085
0.949092
0.949069
0.949411
0.949411
0.954326
0.971697
0.988127
0.996456
0.999834
0.999929
0.999951
0.99996
0.999965
0.99994
0.999837
0.99928
0.996541
0.98712
0.949239
0.948731
0.949249
0.949069
0.964959
0.990396
0.995558
0.997303
0.991067
0.999898
0.999971
0.999975
0.999973
0.999967
0.999942
0.999836
0.99913
0.994936
0.981115
0.962365
0.948932
0.948703
0.960682
0.988581
0.997969
0.999171
0.998995
0.888957
0.999954
0.999982
0.999982
0.999982
0.999971
0.999928
0.999876
0.9991
0.993786
0.976694
0.955637
0.947851
0.954482
0.98389
0.996589
0.999413
0.999658
0.998824
0.885365
0.999975
0.999983
0.999974
0.999132
0.986715
0.982186
0.998803
0.999026
0.991367
0.970901
0.947292
0.937479
0.970222
0.9939
0.999157
0.999832
0.999767
0.959861
0.885365
0.99998
0.999983
0.999322
0.906294
0.391114
0.444102
0.8832
0.992962
0.986397
0.961569
0.919515
0.690867
0.765054
0.981556
0.999693
0.999901
0.999803
0.936979
0.936837
0.999982
0.999983
0.996588
0.193615
0.00130474
0.00133044
0.147469
0.866066
0.969635
0.9478
0.839717
0.261854
0.0425277
0.803798
0.996892
0.999901
0.999724
0.936821
0.986281
0.999982
0.999982
0.772207
0.00876396
0.000956328
0.000956489
0.00576356
0.525926
0.936185
0.936662
0.776102
0.207612
0.0135086
0.244859
0.970343
0.99981
0.998883
0.97804
0.99775
0.000816327
0.0124715
0.0330895
0.0315343
0.0282775
0.0807945
0.469422
0.912459
0.00220803
0.0767283
0.401135
0.72483
0.00595771
0.0166236
0.0331673
0.354993
0.0240024
0.0247803
0.0286455
0.0643253
0.0369801
0.0393096
0.0425902
0.0502284
0.0338444
0.0378829
0.0423488
0.047102
0.0721639
0.0670742
0.0633709
0.0620924
0.333926
0.258319
0.192978
0.145951
0.807748
0.694405
0.559855
0.408993
0.980375
0.946343
0.879578
0.769339
0.983036
0.985308
0.985224
0.973766
0.53704
0.629107
0.683267
0.763781
0.00117399
0.0042133
0.00964543
0.0167821
4.53289e-07
3.26523e-07
2.04989e-07
1.18951e-07
1.42437e-07
4.18831e-08
3.49684e-08
3.95559e-08
5.788e-08
2.71118e-08
1.96624e-08
1.71137e-08
2.83774e-08
1.33403e-08
5.69082e-09
5.52834e-09
8.35874e-09
4.90437e-09
4.20593e-09
3.61576e-09
0.986318
0.998608
0.611103
0.0318803
0.000957629
0.000956474
0.0116442
0.410813
0.910714
0.925257
0.767207
0.241567
0.0101274
0.013907
0.629667
0.98912
0.998803
0.99802
0.999707
0.845655
0.981827
0.919559
0.349266
0.0409641
0.0405726
0.225183
0.790028
0.928761
0.909889
0.596127
0.104032
0.00331488
8.20379e-05
0.0729538
0.93412
0.998711
0.999954
0.999989
0.493436
0.88633
0.910802
0.872872
0.602227
0.590176
0.809509
0.923564
0.928853
0.882374
0.387151
0.0298234
0.00029007
2.99401e-06
0.000925985
0.479231
0.984363
0.999922
0.999996
0.222973
0.606588
0.821447
0.914433
0.915596
0.91552
0.908914
0.912311
0.920752
0.802548
0.251427
0.0123272
2.433e-05
2.99188e-06
4.06504e-06
0.0542671
0.951395
0.999797
0.999997
0.0986682
0.319501
0.576888
0.745946
0.798979
0.829286
0.86649
0.898866
0.897993
0.596776
0.107337
0.00224245
5.02578e-06
3.26479e-06
3.27412e-06
0.0106666
0.900818
0.999366
0.999998
0.0756046
0.158312
0.338835
0.52886
0.669219
0.77916
0.866207
0.899002
0.821345
0.293643
0.020097
0.000102719
4.8589e-06
3.293e-06
3.27899e-06
0.000128735
0.624226
0.994572
0.999994
0.123583
0.153536
0.255522
0.434413
0.62808
0.800177
0.898118
0.897499
0.543859
0.0830158
0.00135078
4.22848e-06
2.83795e-06
2.81072e-06
3.20597e-06
3.4075e-06
0.148691
0.974788
0.999954
0.262361
0.253305
0.323309
0.491162
0.71011
0.879415
0.89846
0.699726
0.169
0.00645473
1.01505e-05
2.6234e-06
1.43748e-06
1.96064e-06
3.14319e-06
3.42895e-06
0.00830036
0.907453
0.999473
0.543052
0.480093
0.529049
0.682643
0.862509
0.880258
0.752438
0.237247
0.0115512
2.63652e-05
2.73494e-06
1.25649e-06
8.17457e-07
1.34216e-06
2.95634e-06
3.25478e-06
0.000104651
0.742024
0.995677
0.871039
0.822288
0.865595
0.887659
0.874229
0.646597
0.198565
0.0103309
3.93229e-05
3.33211e-06
9.70627e-07
5.92649e-07
5.21502e-07
9.86952e-07
2.32655e-06
2.86853e-06
3.71445e-06
0.464456
0.981566
0.913707
0.965474
0.965818
0.858523
0.326894
0.0199681
7.92384e-05
9.6716e-06
2.87595e-06
8.83599e-07
3.7966e-07
3.04037e-07
3.56674e-07
7.68102e-07
1.66173e-06
2.49232e-06
3.55383e-06
0.389514
0.975687
0.0772231
0.230181
0.197695
0.0488766
0.00150808
6.60633e-06
1.83525e-06
8.98168e-07
4.91566e-07
2.75392e-07
1.68029e-07
1.67972e-07
2.63539e-07
6.45113e-07
1.34095e-06
2.32004e-06
3.48245e-06
0.493435
0.979115
7.57962e-07
6.83976e-06
4.08889e-05
9.94084e-05
1.23485e-05
5.87995e-07
2.83324e-07
2.30216e-07
1.66236e-07
1.1248e-07
8.09778e-08
1.00314e-07
2.15992e-07
5.96754e-07
1.29301e-06
2.36479e-06
3.50384e-06
0.714781
0.987993
3.64889e-08
3.96725e-08
5.70681e-08
2.48043e-07
6.15325e-07
1.61042e-07
1.19438e-07
9.50603e-08
7.1294e-08
4.90072e-08
4.14644e-08
6.72656e-08
1.91459e-07
5.8151e-07
1.32312e-06
2.53976e-06
3.56185e-06
0.75612
0.992346
2.27597e-08
2.58243e-08
3.07232e-08
5.41721e-08
9.38551e-08
6.19499e-08
5.10444e-08
4.03532e-08
2.99846e-08
2.12642e-08
2.32836e-08
5.08755e-08
1.75068e-07
5.57668e-07
1.30905e-06
2.71274e-06
3.58021e-06
0.612935
0.98908
7.10948e-09
9.14368e-09
1.34151e-08
1.8889e-08
2.28603e-08
2.28778e-08
1.93198e-08
1.57729e-08
1.17732e-08
9.41601e-09
1.49832e-08
4.31814e-08
1.62965e-07
5.21072e-07
1.27471e-06
2.79806e-06
3.6082e-06
0.244673
0.966428
3.38032e-09
3.24501e-09
4.59506e-09
6.13534e-09
7.4006e-09
7.74381e-09
6.98036e-09
5.32053e-09
4.22272e-09
4.48914e-09
1.0882e-08
3.80519e-08
1.48472e-07
4.77705e-07
1.20696e-06
2.76477e-06
3.76858e-06
0.0373854
0.917254
)
;

boundaryField
{
    leftWall
    {
        type            zeroGradient;
    }
    rightWall
    {
        type            zeroGradient;
    }
    lowerWall
    {
        type            zeroGradient;
    }
    atmosphere
    {
        type            inletOutlet;
        inletValue      nonuniform 0();
        value           nonuniform 0();
    }
    defaultFaces
    {
        type            empty;
    }
    procBoundary1to0
    {
        type            processor;
        value           nonuniform List<scalar> 
26
(
6.81753e-06
6.94404e-06
7.53402e-06
9.55805e-06
1.15739e-05
1.75218e-05
3.96925e-05
0.000175809
0.00588892
0.035641
0.0357404
0.0215674
0.0222179
0.147973
0.654925
0.980788
0.994289
0.994289
0.969192
0.403044
0.000230138
4.97289e-07
2.90911e-07
1.20201e-07
5.21236e-08
1.57743e-08
)
;
    }
    procBoundary1to3
    {
        type            processor;
        value           nonuniform List<scalar> 
23
(
3.2641e-09
2.79843e-09
2.09242e-09
1.80541e-09
1.35211e-09
9.47668e-10
1.13888e-09
1.5202e-09
1.99725e-09
2.26583e-09
2.31531e-09
1.87723e-09
1.51441e-09
2.46881e-09
8.51401e-09
3.3299e-08
1.33606e-07
4.31e-07
1.13302e-06
2.68217e-06
3.94852e-06
0.00409213
0.816255
)
;
    }
}


// ************************************************************************* //
