/*--------------------------------*- C++ -*----------------------------------*\
| =========                 |                                                 |
| \\      /  F ield         | OpenFOAM: The Open Source CFD Toolbox           |
|  \\    /   O peration     | Version:  2.4.0                                 |
|   \\  /    A nd           | Web:      www.OpenFOAM.org                      |
|    \\/     M anipulation  |                                                 |
\*---------------------------------------------------------------------------*/
FoamFile
{
    version     2.0;
    format      ascii;
    class       volScalarField;
    location    "0.35";
    object      p;
}
// * * * * * * * * * * * * * * * * * * * * * * * * * * * * * * * * * * * * * //

dimensions      [1 -1 -2 0 0 0 0];

internalField   nonuniform List<scalar> 
559
(
9763.65
8951.52
8135.36
7270.19
6398.24
5452.1
4419.7
3279.04
619.123
451.194
267.737
137.549
85.3379
108.731
180.49
329.98
532.119
761.792
1032.56
1053.74
927.474
810.72
749.587
761.692
784.614
758.224
734.361
575.648
404.909
215.867
94.0328
47.5404
64.6457
135.146
281.22
471.381
639.326
824.787
862.051
744.815
625.581
577.642
627.466
683.621
692.183
684.675
514.742
333.408
149.855
36.4556
-7.85442
12.4978
76.6331
219.997
407.266
563.647
697.057
711.252
601.877
497.284
508.594
594.302
650.786
659.128
655.904
449.755
258.334
63.9335
-29.4306
-62.3701
-49.5344
5.10849
142.652
327.012
465.82
561.184
555.77
407.667
341.993
420.03
524.894
591.245
609.028
614.742
386.015
167.25
-22.4385
-86.0072
-136.887
-130.561
-68.9525
58.9846
235.74
357.337
415.91
368.412
258.322
233.623
331.709
446.331
524.937
559.837
581.547
328.945
86.1205
-84.2316
-151.055
-156.575
-153.806
-138.613
-19.2546
147.827
246.131
266.552
139.375
59.7137
127.249
240.411
373.642
463.773
514.19
541.432
293.777
33.1331
-141.74
-156.263
-156.027
-155.857
-157.081
-107.984
64.8768
154.064
122.673
40.8928
13.8625
45.5345
149.312
305.861
405.303
465.716
493.92
283.388
8.80605
-155.022
-155.695
-156.227
-155.022
-157.211
-143.087
-26.8497
76.4622
38.847
20.2279
14.8935
19.2667
72.0518
239.94
347.132
413.851
445.958
1340.25
1078.33
656.22
438.562
307.218
244.288
178.806
130.715
-57.8386
191.89
261.249
255.797
512.601
257.054
241.775
303.518
435.365
290.416
212.42
207.272
284.228
171.787
80.8993
36.9608
217.531
162.736
113.878
65.7072
181.415
139.875
102.1
68.2362
134.929
109.816
90.2018
69.4346
100.66
79.8058
68.3068
57.0028
64.6675
53.57
42.444
31.8955
33.5082
35.7483
39.7309
46.2791
3.80108
4.47865
5.55638
7.03214
2.9292
2.84234
2.74417
2.63338
3.33755
3.41586
3.45589
3.48194
2.87845
2.85339
2.82997
2.80259
3.06744
3.07032
3.06856
3.06114
2.82853
2.82286
2.82079
2.82279
2.8195
2.81126
2.80282
2.79514
303.032
38.1173
-154.246
-156.796
-156.614
-156.506
-157.044
-154.221
-116.57
-26.3529
-3.25673
6.84173
10.5421
6.69902
26.6577
144.531
260.397
335.795
374.588
369.673
106.64
-102.358
-153.489
-155.68
-155.94
-156.407
-155.532
-136.315
-72.558
-9.40906
5.86834
7.36453
8.11541
6.7147
39.3696
164.659
242.216
283.765
248.098
100.711
-36.9692
-121.008
-147.509
-150.197
-146.859
-143.66
-125.908
-57.4861
-0.160627
6.45226
6.26228
7.15573
5.74098
10.2833
74.3377
167.826
208.715
29.872
-0.702782
-78.2827
-98.9805
-92.9853
-115.999
-131.267
-127.011
-104.255
-23.6513
4.55859
6.12815
6.13283
6.10877
6.39085
4.9417
14.3268
115.102
143.744
-12.9716
-60.2338
-100.134
-114.081
-121.141
-128.887
-119.821
-98.8364
-66.9359
-5.441
5.34905
5.61188
5.67135
5.58867
6.16162
5.03124
7.53383
74.3194
93.4999
16.1841
-56.31
-108.311
-124.66
-125.585
-116.303
-84.823
-55.547
-15.7809
3.43241
5.06454
5.14806
5.3189
5.36426
5.55805
5.00449
6.43234
40.5468
59.3025
35.396
-29.3442
-74.5419
-93.8058
-94.7134
-75.2612
-42.3746
-18.5763
1.05195
4.5983
4.77225
4.9089
5.03701
5.11011
5.07762
5.07956
4.9677
12.972
39.1859
39.634
24.3433
-21.1767
-39.4936
-44.6159
-27.2151
-9.59125
1.49599
4.09005
4.37981
4.54292
4.67166
4.79422
4.81289
4.85721
5.10591
4.5859
6.29245
27.7316
22.5703
48.904
33.1923
4.91568
-2.71806
-0.359372
3.2751
4.11101
4.2645
4.28702
4.37357
4.48395
4.58787
4.62278
4.70405
4.83264
4.56112
5.17953
21.5737
50.876
61.8223
68.7
46.9265
10.7187
3.76048
3.85961
4.05175
4.09062
4.13985
4.21952
4.30669
4.38618
4.45232
4.53343
4.55209
4.48566
4.48017
15.9018
11.6136
19.6469
21.0256
8.05564
3.76717
3.77346
3.72137
3.73569
3.87926
3.9658
4.04855
4.12414
4.18298
4.26893
4.30693
4.35588
4.30582
4.5991
13.4619
2.4646
2.39673
3.11746
3.36616
3.38955
3.43165
3.5837
3.67127
3.74021
3.80503
3.87311
3.93744
3.96837
4.08047
4.04877
4.15699
4.02102
4.47202
13.7572
3.45856
3.41428
3.14261
3.26861
3.36942
3.39526
3.44671
3.50785
3.58048
3.63896
3.69878
3.75018
3.7644
3.87734
3.78061
3.93911
3.73517
4.06993
15.5053
2.76863
2.88299
3.05225
3.14889
3.21065
3.26752
3.32091
3.37168
3.42784
3.47376
3.5269
3.56458
3.57154
3.67171
3.52936
3.71637
3.52251
3.88573
15.1758
3.04278
3.00792
2.98827
3.03916
3.09123
3.13738
3.18283
3.22812
3.27592
3.31026
3.35908
3.38146
3.3982
3.46724
3.35149
3.54774
3.34813
3.37977
12.9323
2.83333
2.87129
2.90917
2.94325
2.97566
3.01065
3.04728
3.08403
3.12482
3.14846
3.19515
3.20251
3.2341
3.25878
3.21272
3.31943
3.22078
2.99864
6.1064
2.78471
2.78396
2.79805
2.82425
2.85332
2.88185
2.91099
2.94019
2.97435
2.98828
3.03407
3.02537
3.06982
3.05829
3.07236
3.08607
3.07448
2.90005
3.75853
)
;

boundaryField
{
    leftWall
    {
        type            fixedFluxPressure;
        gradient        nonuniform 0();
        value           nonuniform 0();
    }
    rightWall
    {
        type            fixedFluxPressure;
        gradient        uniform 0;
        value           nonuniform List<scalar> 
25
(
734.361
684.675
655.904
614.742
581.547
541.432
493.92
445.958
374.588
283.765
208.715
143.744
93.4999
59.3025
39.1859
27.7316
21.5737
15.9018
13.4619
13.7572
15.5053
15.1758
12.9323
6.1064
3.75853
)
;
    }
    lowerWall
    {
        type            fixedFluxPressure;
        gradient        nonuniform List<scalar> 
40
(
132689
0
0
0
0
0
0
0
0
89407.3
390.934
26.6684
138.535
0
0
0
0
0
0
0
0
4902.62
4905.39
4905.95
4905.96
4905.88
4906.52
4908.42
4915.21
4948.62
5071.78
5161.94
5158.82
5162.21
5160.95
5160.57
5000.68
4565.2
4640.15
4485.8
)
;
        value           nonuniform List<scalar> 
40
(
10161.7
9763.65
8951.52
8135.36
7270.19
6398.24
5452.1
4419.7
3279.04
512.666
194.385
261.419
256.681
619.123
575.648
514.742
449.755
386.015
328.945
293.777
283.388
633.83
465.91
282.454
152.266
100.055
123.451
195.215
344.725
546.964
777.007
1048.05
1069.22
942.96
826.202
765.069
776.694
798.309
772.145
747.818
)
;
    }
    atmosphere
    {
        type            totalPressure;
        U               U.air;
        phi             phi.air;
        rho             rho;
        psi             none;
        gamma           1;
        p0              nonuniform 0();
        value           nonuniform 0();
    }
    defaultFaces
    {
        type            empty;
    }
    procBoundary1to0
    {
        type            processor;
        value           nonuniform List<scalar> 
26
(
9477.79
8662.89
7810.69
6930.05
6031.11
5100.83
4060.5
3091.98
1680.36
941.721
717.712
553.335
405.116
289.265
208.275
152.557
80.4522
80.4522
31.1256
3.19289
3.06054
3.16
2.92808
3.05905
2.84378
2.83158
)
;
    }
    procBoundary1to3
    {
        type            processor;
        value           nonuniform List<scalar> 
23
(
2.69519
2.69058
2.68751
2.68624
2.68543
2.68826
2.69896
2.71349
2.73134
2.75181
2.77367
2.79628
2.82411
2.82975
2.87504
2.85052
2.90864
2.85972
2.91095
2.84249
2.92574
2.64333
3.80458
)
;
    }
}


// ************************************************************************* //
