/*--------------------------------*- C++ -*----------------------------------*\
| =========                 |                                                 |
| \\      /  F ield         | OpenFOAM: The Open Source CFD Toolbox           |
|  \\    /   O peration     | Version:  2.4.0                                 |
|   \\  /    A nd           | Web:      www.OpenFOAM.org                      |
|    \\/     M anipulation  |                                                 |
\*---------------------------------------------------------------------------*/
FoamFile
{
    version     2.0;
    format      ascii;
    class       surfaceScalarField;
    location    "0.35";
    object      phi;
}
// * * * * * * * * * * * * * * * * * * * * * * * * * * * * * * * * * * * * * //

dimensions      [0 3 -1 0 0 0 0];

internalField   nonuniform List<scalar> 
1061
(
8.73455e-06
2.02842e-05
3.25398e-05
4.22277e-05
5.60004e-05
7.09241e-05
9.13185e-05
0.000109645
-4.24618e-05
4.24618e-05
-7.68152e-05
3.43535e-05
-9.76232e-05
2.0808e-05
-0.000107448
9.82518e-06
-0.000109126
1.67787e-06
-0.000103207
-5.91901e-06
-9.37234e-05
-9.4838e-06
-7.29586e-05
-2.07648e-05
-4.19045e-05
-3.10541e-05
-3.25619e-06
-3.86483e-05
4.09379e-05
-4.41941e-05
7.41685e-05
-3.32306e-05
8.8956e-05
-1.47876e-05
8.71499e-05
1.80613e-06
7.3743e-05
1.34069e-05
4.96157e-05
2.41274e-05
2.15561e-05
2.80595e-05
3.39563e-06
1.81605e-05
3.39563e-06
-3.77384e-05
8.02001e-05
-7.24481e-05
6.90632e-05
-9.50678e-05
4.34277e-05
-0.000102747
1.75041e-05
-0.00010064
-4.29199e-07
-9.29926e-05
-1.35661e-05
-8.29647e-05
-1.95117e-05
-5.86321e-05
-4.50974e-05
-2.5998e-05
-6.36883e-05
1.01808e-05
-7.4827e-05
5.3761e-05
-8.77743e-05
8.58278e-05
-6.52974e-05
9.75316e-05
-2.64914e-05
9.25961e-05
6.74167e-06
7.22483e-05
3.37547e-05
4.58794e-05
5.04963e-05
2.03135e-05
5.36254e-05
3.62807e-06
3.48459e-05
7.02369e-06
-3.83607e-05
0.000118561
-6.99205e-05
0.000100623
-9.04772e-05
6.39843e-05
-9.40645e-05
2.10914e-05
-9.12504e-05
-3.24338e-06
-8.43022e-05
-2.05142e-05
-6.79768e-05
-3.58371e-05
-3.84744e-05
-7.45998e-05
-5.33556e-06
-9.68271e-05
3.0498e-05
-0.000110661
6.90084e-05
-0.000126285
9.57112e-05
-9.20002e-05
0.00010559
-3.637e-05
9.26133e-05
1.97182e-05
6.9833e-05
5.6535e-05
4.91194e-05
7.12099e-05
2.96154e-05
7.31294e-05
1.09348e-05
5.35266e-05
1.79585e-05
-3.0664e-05
0.000149225
-6.12392e-05
0.000131198
-7.92584e-05
8.20035e-05
-7.80826e-05
1.99156e-05
-7.08998e-05
-1.04262e-05
-6.41738e-05
-2.72402e-05
-4.82941e-05
-5.17169e-05
-2.13612e-05
-0.000101533
1.05603e-05
-0.000128749
4.7318e-05
-0.000147418
8.0749e-05
-0.000159716
0.000105073
-0.000116324
0.000106218
-3.75152e-05
9.06583e-05
3.52778e-05
6.9722e-05
7.74713e-05
4.86389e-05
9.2293e-05
3.09091e-05
9.08592e-05
1.40538e-05
7.0382e-05
3.20122e-05
-2.45383e-05
0.000173763
-5.26508e-05
0.000159311
-5.53447e-05
8.46974e-05
-4.08362e-05
5.40713e-06
-3.77737e-05
-1.34887e-05
-3.52537e-05
-2.97603e-05
-2.70174e-05
-5.99531e-05
-5.11757e-06
-0.000123433
2.48113e-05
-0.000158677
5.69755e-05
-0.000179582
8.49995e-05
-0.00018774
0.000100283
-0.000131608
0.000104429
-4.16608e-05
8.75898e-05
5.21166e-05
6.67614e-05
9.82997e-05
4.90146e-05
0.00011004
3.46022e-05
0.000105272
1.73283e-05
8.76558e-05
4.93405e-05
-1.80597e-05
0.000191823
-3.78736e-05
0.000179125
-2.40745e-05
7.08983e-05
-1.04969e-05
-8.17052e-06
-5.58087e-06
-1.84047e-05
1.4037e-06
-3.67448e-05
2.7294e-06
-6.12788e-05
1.26675e-05
-0.000133371
3.52488e-05
-0.000181259
6.35338e-05
-0.000207868
8.91885e-05
-0.000213394
9.24128e-05
-0.000134832
8.04303e-05
-2.96783e-05
7.73846e-05
5.51623e-05
6.12946e-05
0.00011439
4.75285e-05
0.000123806
3.29275e-05
0.000119873
1.41039e-05
0.000106479
6.34444e-05
-9.10856e-06
0.000200931
-1.5119e-05
0.000185135
1.70237e-05
3.87557e-05
9.53991e-06
-6.86814e-07
-3.13509e-05
2.24861e-05
-9.78044e-06
-5.83153e-05
1.12666e-05
-8.23258e-05
2.92082e-05
-0.000151312
4.38221e-05
-0.000195873
6.69365e-05
-0.000230982
0.000100865
-0.000247323
0.0001404
-0.000174367
6.22911e-05
4.84305e-05
6.17276e-05
5.57258e-05
5.34183e-05
0.000122699
4.233e-05
0.000134894
2.78609e-05
0.000134342
1.25543e-05
0.000121786
7.59988e-05
1.1771e-06
0.000199754
1.06247e-05
0.000175687
2.30128e-06
4.70791e-05
-3.51434e-05
3.67579e-05
-2.79732e-05
1.53159e-05
-3.01844e-05
-5.61041e-05
2.40945e-06
-0.00011492
3.2733e-05
-0.000181636
5.3678e-05
-0.000216818
7.01731e-05
-0.000247477
8.86817e-05
-0.000265831
0.000119133
-0.000204819
7.14907e-05
9.60732e-05
2.49795e-05
0.000102237
4.64401e-05
0.000101238
4.03777e-05
0.000140956
2.9319e-05
0.0001454
1.50226e-05
0.000136082
9.10214e-05
9.65243e-05
6.32138e-05
8.41649e-05
6.28894e-05
8.62117e-05
7.58619e-05
0.000102543
0.00012604
8.88229e-05
0.000190255
6.12606e-05
0.000194561
1.94344e-05
0.000167266
0.000107126
2.2674e-05
4.05398e-05
-6.42564e-06
2.90996e-05
-7.37392e-06
9.48272e-07
8.53058e-07
-8.22698e-06
6.74512e-05
3.59781e-05
6.77555e-05
2.87953e-05
4.57225e-05
2.29812e-05
9.43007e-06
3.71455e-05
7.85943e-05
3.32458e-05
7.99973e-05
2.73922e-05
7.89373e-05
2.40413e-05
1.45312e-05
7.38361e-05
0.000117405
4.18813e-05
0.00011039
3.44067e-05
0.000105746
2.86858e-05
2.12569e-05
9.90199e-05
0.000188604
4.35328e-05
0.000179662
4.3348e-05
0.000167523
4.08248e-05
3.45801e-05
0.0001542
0.000202037
3.60574e-05
0.000205808
3.95768e-05
0.00020543
4.12021e-05
4.04182e-05
0.000199592
0.000184714
1.86093e-05
0.000197305
2.6986e-05
0.0002047
3.38067e-05
3.89858e-05
0.000206132
0.000129536
-3.80022e-06
0.000152176
4.34527e-06
0.00017376
1.2223e-05
2.46915e-05
0.000188055
7.51246e-05
-1.56614e-05
8.96609e-05
-1.0191e-05
0.000108921
-7.037e-06
8.27566e-07
0.000132785
5.25875e-05
-2.04898e-05
5.928e-05
-1.68836e-05
6.85621e-05
-1.6319e-05
-1.43554e-05
8.3745e-05
6.85603e-05
-2.19823e-05
7.30269e-05
-2.13502e-05
7.95265e-05
-2.28186e-05
-2.03751e-05
8.55462e-05
0.000117659
-2.027e-06
0.000100972
-4.66311e-06
9.10153e-05
-1.28615e-05
-1.34229e-05
8.4063e-05
2.7935e-05
-1.13115e-05
3.72141e-05
-1.39422e-05
3.95294e-05
-1.51769e-05
-1.6152e-05
4.22585e-05
-4.98514e-05
-6.38905e-06
-5.26064e-05
-1.11872e-05
-5.79201e-05
-9.86312e-06
-1.04695e-05
-6.36026e-05
-3.32787e-05
-9.83122e-06
-3.51214e-05
-9.34459e-06
-3.7256e-05
-7.72849e-06
-7.354e-06
-4.03715e-05
-5.04029e-05
-8.26329e-06
-5.16361e-05
-8.11138e-06
-5.16233e-05
-7.7413e-06
-7.58217e-06
-5.13951e-05
-4.62411e-05
-4.54652e-05
-4.51862e-05
-4.53156e-05
5.49663e-05
0.000136561
8.60491e-05
0.000144605
5.56511e-05
7.74771e-05
3.86781e-05
5.37308e-05
7.54396e-05
-2.14457e-05
0.000105892
-8.65569e-05
0.000117371
-0.000126398
0.000108916
-0.000173181
0.000129787
-0.000237689
0.000149128
-0.000266818
0.000154494
-0.000271197
0.000210726
-0.000261051
0.00017528
0.000131519
6.11059e-05
0.000216411
6.33584e-05
9.89859e-05
7.08048e-05
0.00013351
5.48035e-05
0.000161402
2.93228e-05
0.000161563
0.000120344
0.000109294
6.44122e-05
0.000156242
9.7657e-05
0.000169849
6.38696e-05
0.000188544
3.50367e-05
0.00019887
-3.17721e-05
0.000187583
-7.52696e-05
0.000159396
-9.8211e-05
0.000153237
-0.000167023
0.000150817
-0.000235268
0.000149705
-0.000265706
0.000150932
-0.000272424
0.000132696
-0.000242815
8.4114e-05
0.000180101
1.92246e-05
0.000281301
3.40487e-06
0.000114806
5.55354e-05
8.13796e-05
4.52293e-05
0.000171708
2.80617e-05
0.000178731
0.000148406
0.000107211
3.10372e-05
0.000158088
4.67798e-05
0.000180005
4.19528e-05
0.000187716
2.73261e-05
0.000177173
-2.1229e-05
0.000164851
-6.29483e-05
0.000166259
-9.96188e-05
0.00016674
-0.000167504
0.00016099
-0.000229518
0.000144922
-0.000249638
0.000126019
-0.000253521
2.7823e-05
-0.000144619
5.41392e-05
0.000153785
2.09198e-05
0.00031452
1.88267e-05
0.000116899
2.83526e-05
7.18537e-05
3.79244e-05
0.000162136
2.85007e-05
0.000188154
0.000176907
9.97187e-05
3.03384e-05
0.000122957
2.3541e-05
0.000145392
1.95183e-05
0.000163659
9.05903e-06
0.000169428
-2.69984e-05
0.000169995
-6.35152e-05
0.000175843
-0.000105467
0.000181264
-0.000172925
0.000174885
-0.000223139
0.000160264
-0.000235017
0.000135085
-0.000228342
3.47128e-05
-4.42467e-05
6.24724e-05
0.000126026
7.42611e-05
0.000302731
1.19123e-05
0.000179247
1.19662e-06
8.25693e-05
2.80476e-05
0.000135285
2.06607e-05
0.000195541
0.000197567
0.000131437
5.31022e-05
0.000127495
2.74822e-05
0.000134656
1.23574e-05
0.000148914
-5.1983e-06
0.000160307
-3.83921e-05
0.000168941
-7.21488e-05
0.000182247
-0.000118773
0.000188694
-0.000179372
0.000180113
-0.000214559
0.000177427
-0.000232331
0.000105674
-0.000156589
2.9296e-05
3.21311e-05
4.41047e-05
0.000111217
8.45008e-05
0.000262335
-5.79655e-06
0.000269545
-9.0756e-06
8.58484e-05
2.36693e-05
0.00010254
1.3483e-05
0.000205728
0.00021105
0.000173434
7.92603e-05
0.000154911
4.60052e-05
0.000151307
1.5962e-05
0.000157481
-1.1373e-05
0.000167337
-4.82474e-05
0.00017923
-8.40423e-05
0.000194719
-0.000134261
0.00019631
-0.000180963
0.000180321
-0.00019857
0.000152416
-0.000204426
5.11582e-05
-5.53304e-05
9.39465e-06
7.38946e-05
3.14087e-06
0.000117471
6.01624e-05
0.000205314
4.33251e-05
0.000286382
7.65874e-06
0.000121515
1.84825e-05
9.17164e-05
1.23853e-05
0.000211825
0.000223436
0.000198075
8.7318e-05
0.000182529
6.1551e-05
0.000173696
2.47951e-05
0.000177773
-1.54502e-05
0.000185403
-5.58766e-05
0.000198153
-9.67925e-05
0.000206866
-0.000142975
0.000197493
-0.000171589
0.000191292
-0.000192369
9.53006e-05
-0.000108435
1.3507e-06
3.86195e-05
-1.48989e-05
9.01443e-05
-1.66976e-06
0.000104241
6.53983e-05
0.000138246
8.76477e-05
0.000264133
3.85125e-05
0.00017065
8.26226e-06
0.000121967
1.05147e-05
0.000209572
0.00023395
0.000196524
7.88487e-05
0.000194004
6.40711e-05
0.00019216
2.66391e-05
0.000199249
-2.25394e-05
0.000206315
-6.29427e-05
0.00021229
-0.000102768
0.000207837
-0.000138522
0.000192543
-0.000156295
0.000120355
-0.000120181
9.30497e-06
2.6148e-06
-2.65915e-05
7.4516e-05
-2.01293e-05
8.3682e-05
-2.78399e-06
8.68962e-05
3.67839e-05
9.86779e-05
7.01211e-05
0.000230795
3.54141e-05
0.000205357
1.54216e-05
0.000141959
1.15614e-05
0.000213433
0.000245512
0.000172717
3.89165e-05
0.000191514
4.52736e-05
0.000200487
1.76662e-05
0.00020827
-3.03224e-05
0.000214638
-6.93099e-05
0.000213266
-0.000101396
0.000189148
-0.000114404
0.000118198
-8.5346e-05
1.02575e-05
-1.22401e-05
-4.05802e-05
5.34525e-05
-3.16218e-05
6.55575e-05
-2.29599e-05
7.50202e-05
-9.38389e-06
7.33201e-05
4.7896e-07
8.88151e-05
4.51656e-05
0.000186109
4.8814e-05
0.000201709
2.67013e-05
0.000164072
1.44944e-05
0.00022564
0.000260006
0.000123683
-1.02144e-06
0.000154674
1.42827e-05
0.000175758
-3.41821e-06
0.000186187
-4.0751e-05
0.000194157
-7.72798e-05
0.000180769
-8.80075e-05
0.000116871
-5.0506e-05
1.70871e-05
1.44375e-05
-3.80785e-05
4.29254e-05
-3.79853e-05
5.33593e-05
-2.86299e-05
5.62021e-05
-1.95239e-05
6.59142e-05
-8.60289e-06
6.23991e-05
-3.53567e-06
8.37479e-05
4.29792e-05
0.000139594
5.93526e-05
0.000185335
2.6075e-05
0.000197349
1.29006e-05
0.000238814
0.000272907
0.000114168
-2.96435e-05
0.000141188
-1.27368e-05
0.00015105
-1.32805e-05
0.00014679
-3.64914e-05
0.00010907
-3.95598e-05
2.35549e-05
-2.49208e-06
-4.33195e-05
1.63684e-05
-5.20622e-05
2.31801e-05
-4.26882e-05
3.35513e-05
-3.30915e-05
4.37627e-05
-2.37634e-05
4.6874e-05
-1.54411e-05
5.75918e-05
-4.41833e-06
5.13764e-05
4.71337e-06
7.46162e-05
4.22245e-05
0.000102083
5.41753e-05
0.000173384
1.62668e-05
0.000235258
1.02127e-05
0.000244868
0.000283119
0.000104045
-4.96258e-05
0.000111134
-1.98254e-05
0.000110783
-1.29297e-05
4.77972e-05
2.64945e-05
-1.99085e-05
2.81459e-05
-3.60007e-05
1.36001e-05
-3.47906e-05
1.51582e-05
-3.50023e-05
2.33918e-05
-3.29934e-05
3.15425e-05
-2.68548e-05
3.76241e-05
-1.96317e-05
3.96509e-05
-1.1142e-05
4.91021e-05
2.63618e-07
3.99707e-05
1.02685e-05
6.46113e-05
4.09749e-05
7.13763e-05
4.42279e-05
0.000170131
6.94079e-06
0.000272545
8.76522e-06
0.000243044
0.000291885
1.99416e-05
-2.73089e-05
-7.88447e-06
8.00073e-06
-3.7462e-05
1.66478e-05
-3.10115e-05
2.00439e-05
-2.56657e-05
2.28001e-05
-3.16247e-05
1.95591e-05
-3.49847e-05
1.85182e-05
-3.31714e-05
2.15785e-05
-2.86438e-05
2.70149e-05
-2.26149e-05
3.15952e-05
-1.63755e-05
3.34115e-05
-8.25613e-06
4.09827e-05
1.45098e-06
3.02636e-05
1.19773e-05
5.4085e-05
3.85267e-05
4.48269e-05
3.18711e-05
0.000176787
5.70505e-06
0.000298711
9.74232e-06
0.000239006
0.000301627
-6.77054e-05
-2.32061e-05
-5.0073e-05
-9.63165e-06
-4.06371e-05
7.21185e-06
-3.93593e-05
1.87662e-05
-3.50636e-05
1.85043e-05
-3.18903e-05
1.63858e-05
-3.03833e-05
1.70113e-05
-2.84463e-05
1.96415e-05
-2.4705e-05
2.32735e-05
-1.93862e-05
2.62765e-05
-1.39758e-05
2.80011e-05
-6.28027e-06
3.32872e-05
6.51171e-07
2.33322e-05
1.05002e-05
4.4236e-05
2.74595e-05
2.78676e-05
1.62042e-05
0.000188042
7.61928e-06
0.000307296
9.79743e-06
0.000236828
0.000311424
-4.90209e-05
-1.45568e-05
-5.4404e-05
-4.24857e-06
-5.13461e-05
4.15397e-06
-4.12387e-05
8.65887e-06
-3.48971e-05
1.21627e-05
-3.12535e-05
1.27421e-05
-2.85542e-05
1.43121e-05
-2.5557e-05
1.66443e-05
-2.17963e-05
1.95128e-05
-1.70273e-05
2.15075e-05
-1.24804e-05
2.34542e-05
-5.33286e-06
2.61397e-05
-1.98214e-06
1.99815e-05
7.9272e-06
3.43267e-05
1.23852e-05
2.34096e-05
1.2694e-05
0.000187734
1.74551e-05
0.000302535
8.97273e-06
0.000245311
0.000320397
-5.05012e-05
-1.54507e-05
-4.67988e-05
-7.95093e-06
-4.248e-05
-1.64859e-07
-3.8122e-05
4.30085e-06
-3.34271e-05
7.46786e-06
-2.98983e-05
9.21327e-06
-2.65519e-05
1.09657e-05
-2.33463e-05
1.34387e-05
-1.96076e-05
1.57741e-05
-1.52215e-05
1.71215e-05
-1.12689e-05
1.95016e-05
-5.20558e-06
2.00764e-05
-3.24579e-06
1.80217e-05
6.87805e-06
2.42029e-05
5.41419e-06
2.48735e-05
2.62429e-05
0.000166905
4.42429e-05
0.000284535
1.15946e-05
0.000277959
0.000331992
-4.64574e-05
-4.51026e-05
-4.14343e-05
-3.61727e-05
-3.17453e-05
-2.80643e-05
-2.46352e-05
-2.13935e-05
-1.77429e-05
-1.37285e-05
-1.01376e-05
-4.67525e-06
-2.88252e-06
5.58211e-06
6.25937e-06
3.23754e-05
5.52225e-05
1.78725e-05
)
;

boundaryField
{
    leftWall
    {
        type            calculated;
        value           nonuniform 0();
    }
    rightWall
    {
        type            calculated;
        value           uniform 0;
    }
    lowerWall
    {
        type            calculated;
        value           nonuniform List<scalar> 
40
(
2.84602e-23
0
0
0
0
0
0
0
0
2.64698e-23
-2.64698e-23
2.64698e-23
1.05879e-22
0
0
0
0
0
0
0
0
1.60266e-23
1.12897e-22
-9.1006e-24
-4.02087e-23
1.64118e-22
-9.57332e-23
-1.70461e-22
6.37285e-23
1.71561e-23
-1.08179e-22
1.24051e-22
3.13198e-23
2.40855e-22
-3.47145e-23
-1.721e-22
-9.26442e-23
1.32349e-23
2.05141e-22
-1.19114e-22
)
;
    }
    atmosphere
    {
        type            calculated;
        value           nonuniform 0();
    }
    defaultFaces
    {
        type            empty;
        value           nonuniform 0();
    }
    procBoundary1to0
    {
        type            processor;
        value           nonuniform List<scalar> 
26
(
-8.73455e-06
-1.15496e-05
-1.22556e-05
-9.68793e-06
-1.37727e-05
-1.49237e-05
-2.03944e-05
-1.83269e-05
-5.00927e-05
-5.053e-05
-7.79088e-05
-0.000142371
-0.000176536
-0.000166999
-0.00012544
-7.1617e-05
-1.60747e-05
-6.32634e-05
-4.77591e-05
-6.70678e-05
-0.000137615
-1.86505e-05
4.49289e-05
3.67209e-05
4.8835e-05
4.78097e-05
)
;
    }
    procBoundary1to3
    {
        type            processor;
        value           nonuniform List<scalar> 
23
(
-9.83187e-06
-8.8873e-06
-8.02029e-06
-7.4528e-06
-1.43089e-05
-9.30577e-06
-3.83315e-06
-9.60752e-07
3.04048e-06
5.53232e-06
7.53653e-06
1.0197e-05
1.21235e-05
1.31071e-05
1.59107e-05
1.4614e-05
1.6229e-05
1.57382e-05
2.41962e-05
0.000140789
0.000261688
0.000315309
0.000349864
)
;
    }
}


// ************************************************************************* //
