/*--------------------------------*- C++ -*----------------------------------*\
| =========                 |                                                 |
| \\      /  F ield         | OpenFOAM: The Open Source CFD Toolbox           |
|  \\    /   O peration     | Version:  2.4.0                                 |
|   \\  /    A nd           | Web:      www.OpenFOAM.org                      |
|    \\/     M anipulation  |                                                 |
\*---------------------------------------------------------------------------*/
FoamFile
{
    version     2.0;
    format      ascii;
    class       surfaceScalarField;
    location    "0.35";
    object      phi.air;
}
// * * * * * * * * * * * * * * * * * * * * * * * * * * * * * * * * * * * * * //

dimensions      [0 3 -1 0 0 0 0];

internalField   nonuniform List<scalar> 
1061
(
8.73445e-06
2.02841e-05
3.25396e-05
4.22275e-05
5.60002e-05
7.09239e-05
9.13184e-05
0.000109689
-3.61328e-05
5.51986e-05
-7.39908e-05
3.79987e-05
-9.5389e-05
2.18564e-05
-0.000105053
1.19205e-05
-0.00010743
3.69194e-06
-9.99149e-05
-5.67785e-06
-8.42219e-05
-1.61236e-05
-5.23251e-05
-4.01325e-05
-1.49545e-05
-7.61411e-05
1.92079e-05
-0.000119847
5.17672e-05
-0.000135128
7.65677e-05
-0.000124318
8.97452e-05
-0.000103623
9.12033e-05
-8.98017e-05
8.62045e-05
-7.25892e-05
6.69319e-05
2.67347e-06
5.23218e-05
0.000100603
2.53899e-05
8.5699e-05
8.87421e-05
-3.1578e-05
9.64223e-05
-7.08465e-05
7.18717e-05
-9.48455e-05
4.38533e-05
-0.000102695
1.76674e-05
-0.000100536
-5.26492e-07
-9.20879e-05
-1.41279e-05
-7.64088e-05
-2.27474e-05
-4.2333e-05
-5.82702e-05
-4.5497e-06
-9.54046e-05
3.21777e-05
-0.000140139
6.63229e-05
-0.000169241
8.87075e-05
-0.000159071
9.72644e-05
-0.000122301
9.69354e-05
-9.49804e-05
8.31134e-05
-5.32709e-05
4.86549e-05
-1.15089e-05
2.46324e-05
7.52711e-05
6.37963e-06
8.77243e-05
6.52454e-05
-3.30584e-05
0.000130544
-6.95557e-05
0.000101283
-9.04756e-05
6.40355e-05
-9.40395e-05
2.12945e-05
-9.11047e-05
-1.97926e-06
-8.32589e-05
-1.71606e-05
-6.14151e-05
-3.66986e-05
-2.23091e-05
-8.55591e-05
1.35293e-05
-0.000125096
4.79021e-05
-0.000169791
7.84495e-05
-0.000199767
9.78354e-05
-0.000168745
0.00010651
-0.000144117
9.93832e-05
-8.57202e-05
7.97652e-05
-2.20622e-05
5.00615e-05
3.93526e-05
2.80597e-05
0.000102805
1.19488e-05
0.000133079
9.54662e-05
-2.80799e-05
0.0001542
-6.11811e-05
0.000131657
-7.91967e-05
8.51374e-05
-7.79649e-05
7.07361e-05
-7.09635e-05
7.82995e-05
-6.43407e-05
6.93962e-05
-4.4219e-05
1.9107e-05
-4.96506e-06
-0.000101877
2.91125e-05
-0.000151214
6.24418e-05
-0.00017801
8.83189e-05
-0.000159439
0.000109414
-1.19295e-05
0.000108671
-3.60363e-05
9.68271e-05
-6.38046e-05
7.56687e-05
2.43813e-05
4.86476e-05
7.62392e-05
2.63404e-05
0.000112054
1.21359e-05
0.000150756
9.41585e-05
-2.38053e-05
0.000174912
-5.13388e-05
0.000160023
-4.38878e-05
0.000129534
-2.9449e-05
0.000115944
-3.91381e-05
8.24069e-05
-4.90874e-05
6.11726e-05
-4.66838e-05
3.31814e-05
8.6101e-06
-4.17774e-05
3.93441e-05
-0.000108764
6.52649e-05
-0.000100259
9.33024e-05
-6.13965e-05
0.000118384
5.34494e-05
0.000108945
0.000142749
9.08055e-05
0.000153745
6.92687e-05
8.75056e-05
4.55957e-05
0.000105938
2.27285e-05
0.000126751
1.01331e-05
0.000161797
0.000121565
-1.76504e-05
0.000192211
-1.46737e-05
0.000179799
-3.16826e-06
0.000144967
-6.65943e-06
2.48745e-05
-7.62709e-06
-6.73246e-07
-6.19772e-06
-7.43996e-06
-2.55081e-05
9.61345e-06
-1.63703e-05
-3.28648e-05
2.78895e-05
-9.02145e-05
6.24415e-05
-0.00010936
0.000109986
-7.48565e-05
0.000104506
-1.23406e-05
6.94029e-05
0.000101479
5.4024e-05
0.000160292
5.83574e-05
0.000201817
4.33857e-05
0.000124532
1.66801e-05
0.000143421
6.01102e-06
0.000183026
0.000143153
-8.37855e-06
0.000201146
2.2164e-05
0.000185658
4.7796e-05
6.50012e-05
8.72468e-06
2.41085e-06
-3.14484e-05
2.26294e-05
-1.48359e-05
-5.82449e-05
-2.0476e-05
-7.75758e-05
-6.03452e-06
-8.78658e-05
2.76499e-05
-9.56294e-05
7.43761e-05
-0.000135819
0.000132954
-0.000142263
0.000151897
-0.000134602
5.49886e-05
6.01643e-05
3.67378e-05
0.000122452
2.38422e-05
0.000205469
3.75831e-05
0.000145004
1.00463e-05
0.000196738
4.40569e-06
0.000201502
0.000154261
2.62618e-06
0.000168024
7.02185e-05
0.000172665
-3.40514e-06
4.65028e-05
-3.55053e-05
3.72545e-05
-2.80735e-05
1.53925e-05
-3.06079e-05
-5.61343e-05
-2.43683e-05
-0.000115263
-1.37148e-05
-0.000166383
3.30969e-05
-0.000146548
8.16e-05
-0.000155436
0.000102061
-0.000218266
0.000124439
-0.000178073
7.18535e-05
0.000102898
-1.66822e-05
0.000143158
1.3798e-05
0.000150852
2.16219e-05
0.000199375
1.09474e-05
0.000226249
6.10318e-06
0.000212465
0.000160799
9.67224e-05
0.000126784
8.2201e-05
7.51258e-05
7.72107e-05
7.28612e-05
8.80519e-05
0.000113119
8.16306e-05
0.00016946
5.84189e-05
0.000184276
1.85774e-05
0.000165512
0.000108108
-3.82513e-05
3.05953e-05
-1.79213e-05
2.62427e-05
6.81702e-06
4.23959e-06
-1.23193e-05
-8.58573e-05
0.00011156
3.67494e-05
7.26043e-05
2.76591e-05
2.19563e-05
2.52943e-05
1.87355e-05
2.28461e-05
0.000104009
3.10834e-05
0.000101624
3.19553e-05
8.00917e-05
3.22839e-05
2.45672e-05
6.80363e-05
0.000107706
3.68177e-05
0.000111746
3.05634e-05
0.000123555
2.47988e-05
1.53171e-05
0.000100078
0.000163804
3.86501e-05
0.000155884
3.7572e-05
0.000149214
3.56021e-05
3.05024e-05
0.00014608
0.000186727
3.33771e-05
0.000186775
3.55749e-05
0.0001855
3.68756e-05
3.59568e-05
0.000180602
0.000180066
1.83978e-05
0.000188723
2.60966e-05
0.000192075
3.18545e-05
3.60029e-05
0.000191131
0.000130795
6.89441e-06
0.00015341
8.38384e-06
0.000172504
1.30947e-05
2.51638e-05
0.000181738
9.49565e-05
-1.06629e-06
9.82457e-05
-8.79747e-07
0.000112447
-4.58589e-06
-5.62833e-06
0.00013631
4.80152e-05
5.29797e-06
5.01529e-05
7.28544e-06
5.1953e-05
7.90258e-06
9.77184e-06
7.21624e-05
6.64656e-05
-6.23029e-06
6.96298e-05
-4.73568e-06
7.51254e-05
-6.01776e-06
-9.34986e-07
7.73127e-05
0.000117752
-2.00166e-06
0.000101119
-4.58928e-06
9.11774e-05
-1.2746e-05
-1.32477e-05
8.41547e-05
2.7935e-05
-1.13115e-05
3.7214e-05
-1.39422e-05
3.95294e-05
-1.51769e-05
-1.6152e-05
4.22585e-05
-4.98514e-05
-6.38905e-06
-5.26064e-05
-1.11872e-05
-5.79202e-05
-9.86313e-06
-1.04695e-05
-6.36027e-05
-3.32787e-05
-9.83122e-06
-3.51214e-05
-9.3446e-06
-3.7256e-05
-7.7285e-06
-7.35401e-06
-4.03716e-05
-5.04029e-05
-8.2633e-06
-5.16361e-05
-8.11139e-06
-5.16233e-05
-7.74131e-06
-7.58218e-06
-5.13952e-05
-4.62411e-05
-4.54652e-05
-4.51863e-05
-4.53156e-05
8.92567e-05
5.59991e-05
0.000236179
0.000107773
6.6476e-05
3.30068e-05
3.87617e-05
4.76437e-05
7.5424e-05
-2.33763e-05
0.000105456
-8.94104e-05
9.89721e-05
-0.000138373
4.35761e-05
-0.00016956
7.46421e-05
-0.000223865
0.000126786
-0.00022545
0.000137704
-0.000257076
0.000216732
-0.000257502
0.000175241
0.00013577
2.60331e-05
0.000219565
-2.84009e-05
0.000138128
1.74952e-05
0.000195476
9.84786e-06
0.000227623
8.09979e-06
0.000213322
0.000140998
0.000223206
6.81387e-05
0.000247077
5.90368e-05
0.000231294
2.48285e-05
0.000201389
-1.82647e-05
0.000200995
-7.34004e-05
0.00019044
-0.000113633
0.000147558
-0.00013093
0.000115517
-0.000183458
0.000107258
-0.000232326
8.83457e-05
-0.000271969
0.000128746
-0.000276807
0.000129414
-0.000241756
8.38767e-05
0.000181205
1.49164e-05
0.000281327
-9.86983e-05
0.000120241
-7.07677e-06
0.000113041
1.13972e-05
0.000229423
2.6905e-05
0.000183879
0.000149826
0.000122532
7.28828e-05
0.000227422
6.89836e-05
0.000239758
6.94665e-05
0.000211961
6.78737e-06
0.000180564
-0.000102661
0.000157966
-0.000124883
0.000159506
-0.000118888
0.00014687
-0.000170251
0.000122037
-0.000215046
6.51558e-05
-0.000269875
0.000105459
-0.000258843
2.52907e-05
-0.000142327
5.41247e-05
0.000153851
2.08799e-05
0.00031452
-1.20275e-05
0.000116946
-5.54736e-05
9.14485e-05
-9.34094e-06
0.000208755
2.55031e-05
0.00019724
0.00017755
0.00010433
3.46251e-05
0.000150451
4.36211e-05
0.000174578
3.30688e-05
0.000152695
4.47469e-05
0.000184588
6.42682e-07
0.000173726
-4.82408e-05
0.000173905
-9.4851e-05
0.000178045
-0.000150107
0.000117553
-0.000238165
0.000107057
-0.000246532
0.000123841
-0.000229145
3.38563e-05
-4.28034e-05
6.24715e-05
0.000126028
7.42608e-05
0.000302731
1.02886e-05
0.000179247
-6.2475e-05
8.40514e-05
-4.29363e-05
0.000141645
1.5474e-05
0.000214336
0.000197993
0.000139654
4.27605e-05
0.000143586
2.19419e-05
0.000137938
1.65002e-05
0.000146182
3.80765e-06
0.000158981
-3.11331e-05
0.000168511
-6.72942e-05
0.00018215
-9.96469e-05
0.000164423
-0.000188936
0.000106052
-0.000256912
0.000157629
-0.000248181
9.98807e-05
-0.000152842
2.91903e-05
3.24199e-05
4.41044e-05
0.000111217
8.45005e-05
0.000262334
-6.19128e-06
0.000269544
-6.28097e-05
8.59709e-05
-4.15192e-05
0.000100217
3.45917e-06
0.000234025
0.000211517
0.000162916
6.96502e-05
0.000154318
3.95916e-05
0.000149503
1.13963e-05
0.000153823
-1.05419e-05
0.000165774
-4.05633e-05
0.000179105
-6.69551e-05
0.000170137
-0.000133302
0.000161713
-0.000213813
0.000133106
-0.000218724
0.000140192
-0.000207953
4.96447e-05
-5.38063e-05
9.38939e-06
7.39025e-05
3.1408e-06
0.00011747
6.01622e-05
0.000205313
4.33234e-05
0.000286381
-1.50935e-05
0.000121517
-3.43997e-05
9.79915e-05
-3.91057e-06
0.000242452
0.000224703
0.000181913
7.71796e-05
0.000170773
5.53786e-05
0.000166249
2.52867e-05
0.000172164
-7.11267e-06
0.000181346
-4.0851e-05
0.000175946
-0.000110014
0.000182454
-0.000179385
0.000150473
-0.000200891
0.000178864
-0.000204511
9.009e-05
-0.000105765
1.2712e-06
3.87257e-05
-1.48989e-05
9.0144e-05
-1.66976e-06
0.000104241
6.5398e-05
0.000138245
8.76474e-05
0.000264132
3.76172e-05
0.000170649
-3.4532e-05
0.000126151
-1.5199e-05
0.000215986
0.000238901
0.000183654
7.31267e-05
0.00017938
5.77332e-05
0.000180173
2.77946e-05
0.000187072
-1.73711e-05
0.000182898
-0.000101187
0.000189454
-0.000144033
0.000181126
-0.000160485
0.000180155
-0.000163339
0.000113244
-0.000117303
8.87723e-06
2.99899e-06
-2.65918e-05
7.45161e-05
-2.01292e-05
8.36817e-05
-2.78398e-06
8.68958e-05
3.67837e-05
9.86775e-05
7.01208e-05
0.000230794
3.52985e-05
0.000205356
-1.46296e-05
0.000142243
-1.77823e-05
0.00021178
0.000247783
0.000170755
3.48841e-05
0.000180139
4.51139e-05
0.000189163
1.85554e-05
0.000199948
-8.26255e-05
0.000209711
-9.21427e-05
0.000199102
-0.000106196
0.000174477
-0.000109986
0.000110279
-7.79664e-05
9.6401e-06
-1.15629e-05
-4.0581e-05
5.34534e-05
-3.16217e-05
6.55573e-05
-2.29598e-05
7.50199e-05
-9.38385e-06
7.33198e-05
4.78948e-07
8.88147e-05
4.51654e-05
0.000186108
4.88131e-05
0.000201708
1.12961e-05
0.000164074
-1.29422e-05
0.000225571
0.000269984
0.000123401
4.2021e-05
0.000155283
4.97902e-05
0.00018386
3.81844e-05
0.000230734
6.57776e-06
0.000201733
-5.13571e-05
0.000171088
-6.74503e-05
0.000109499
-4.15885e-05
1.63905e-05
1.5017e-05
-3.80802e-05
4.29272e-05
-3.79852e-05
5.33592e-05
-2.86298e-05
5.62019e-05
-1.95238e-05
6.59139e-05
-8.60286e-06
6.23989e-05
-3.53566e-06
8.37476e-05
4.2979e-05
0.000139593
5.93524e-05
0.000185334
2.42547e-05
0.000197349
-1.30258e-05
0.000238837
0.000277209
0.000105135
2.2338e-05
0.000139893
5.18404e-05
0.000161394
5.7163e-05
0.000148445
8.58107e-06
0.000105514
-2.65578e-05
2.29577e-05
-1.51831e-06
-4.33233e-05
1.63721e-05
-5.20624e-05
2.31803e-05
-4.26881e-05
3.35513e-05
-3.30914e-05
4.37626e-05
-2.37633e-05
4.68738e-05
-1.5441e-05
5.75916e-05
-4.41832e-06
5.13763e-05
4.71336e-06
7.46159e-05
4.22243e-05
0.000102082
5.4175e-05
0.000173384
1.314e-05
0.000235257
-1.38554e-05
0.000244585
0.000282636
0.000104073
-4.85498e-05
0.000109462
-1.36986e-05
0.000110084
-2.21927e-06
4.63342e-05
2.98974e-05
-1.9973e-05
2.82302e-05
-3.60007e-05
1.36001e-05
-3.47905e-05
1.51582e-05
-3.50022e-05
2.33918e-05
-3.29933e-05
3.15424e-05
-2.68548e-05
3.7624e-05
-1.96317e-05
3.96508e-05
-1.1142e-05
4.9102e-05
2.63617e-07
3.99707e-05
1.02684e-05
6.46112e-05
4.09747e-05
7.13761e-05
4.42277e-05
0.000170131
1.24919e-06
0.000272544
-1.3419e-05
0.000242689
0.000288427
1.99416e-05
-2.73089e-05
-7.88593e-06
8.0008e-06
-3.74703e-05
1.66495e-05
-3.10164e-05
2.00483e-05
-2.56658e-05
2.28004e-05
-3.16247e-05
1.95591e-05
-3.49846e-05
1.85182e-05
-3.31713e-05
2.15785e-05
-2.86437e-05
2.70148e-05
-2.26148e-05
3.15951e-05
-1.63755e-05
3.34114e-05
-8.25612e-06
4.09826e-05
1.45097e-06
3.02636e-05
1.19773e-05
5.40849e-05
3.85265e-05
4.48268e-05
3.18709e-05
0.000176786
-3.59762e-06
0.00029871
-1.20549e-05
0.00023974
0.000302525
-6.77054e-05
-2.32062e-05
-5.00731e-05
-9.63165e-06
-4.06371e-05
7.21185e-06
-3.93593e-05
1.87662e-05
-3.50635e-05
1.85043e-05
-3.18902e-05
1.63858e-05
-3.03833e-05
1.70113e-05
-2.84463e-05
1.96415e-05
-2.47049e-05
2.32735e-05
-1.93862e-05
2.62764e-05
-1.39758e-05
2.8001e-05
-6.28026e-06
3.32872e-05
6.5117e-07
2.33322e-05
1.05001e-05
4.42359e-05
2.74594e-05
2.78675e-05
1.62041e-05
0.000188042
-2.01494e-06
0.000307295
-1.09395e-05
0.000236273
0.00031654
-4.90209e-05
-1.45568e-05
-5.4404e-05
-4.24857e-06
-5.13461e-05
4.15397e-06
-4.12387e-05
8.65887e-06
-3.48971e-05
1.21627e-05
-3.12534e-05
1.27421e-05
-2.85542e-05
1.4312e-05
-2.5557e-05
1.66443e-05
-2.17962e-05
1.95127e-05
-1.70273e-05
2.15075e-05
-1.24803e-05
2.34541e-05
-5.33285e-06
2.61397e-05
-1.98213e-06
1.99815e-05
7.92718e-06
3.43266e-05
1.23852e-05
2.34095e-05
1.26939e-05
0.000187733
1.62068e-05
0.000302534
-1.0561e-05
0.000247241
0.000331561
-5.05013e-05
-1.54508e-05
-4.67989e-05
-7.95094e-06
-4.248e-05
-1.64859e-07
-3.8122e-05
4.30085e-06
-3.34271e-05
7.46786e-06
-2.98983e-05
9.21327e-06
-2.65519e-05
1.09657e-05
-2.33462e-05
1.34387e-05
-1.96076e-05
1.57741e-05
-1.52215e-05
1.71215e-05
-1.12689e-05
1.95016e-05
-5.20557e-06
2.00763e-05
-3.24579e-06
1.80217e-05
6.87803e-06
2.42028e-05
5.41417e-06
2.48734e-05
2.62428e-05
0.000166904
4.63404e-05
0.000284534
2.68332e-06
0.000281428
0.000331128
-4.64575e-05
-4.51026e-05
-4.14343e-05
-3.61727e-05
-3.17453e-05
-2.80644e-05
-2.46352e-05
-2.13935e-05
-1.77428e-05
-1.37285e-05
-1.01376e-05
-4.67525e-06
-2.88252e-06
5.58209e-06
6.25936e-06
3.23753e-05
5.52962e-05
9.93837e-06
)
;

boundaryField
{
    leftWall
    {
        type            fixedValue;
        value           nonuniform 0();
    }
    rightWall
    {
        type            fixedValue;
        value           uniform 0;
    }
    lowerWall
    {
        type            fixedValue;
        value           uniform 0;
    }
    atmosphere
    {
        type            calculated;
        value           nonuniform 0();
    }
    defaultFaces
    {
        type            empty;
        value           nonuniform 0();
    }
    procBoundary1to0
    {
        type            processor;
        value           nonuniform List<scalar> 
26
(
-8.73459e-06
-1.15497e-05
-1.22556e-05
-9.68797e-06
-1.37728e-05
-1.49238e-05
-2.0381e-05
-1.82753e-05
-4.98608e-05
-5.10283e-05
-7.53587e-05
-0.000129521
-0.000169577
-0.000164429
-0.000125882
-7.24532e-05
8.10392e-06
-8.3912e-05
-4.50909e-05
-6.58586e-05
-0.000137658
-1.86505e-05
4.49289e-05
3.67209e-05
4.8835e-05
4.78097e-05
)
;
    }
    procBoundary1to3
    {
        type            processor;
        value           nonuniform List<scalar> 
23
(
-9.83188e-06
-8.88731e-06
-8.0203e-06
-7.45281e-06
-1.43089e-05
-9.30579e-06
-3.83316e-06
-9.60753e-07
3.04048e-06
5.53233e-06
7.53653e-06
1.0197e-05
1.21235e-05
1.31071e-05
1.59107e-05
1.4614e-05
1.6229e-05
1.57382e-05
2.41961e-05
0.000140788
0.000261687
0.0003162
0.000343462
)
;
    }
}


// ************************************************************************* //
