/*--------------------------------*- C++ -*----------------------------------*\
| =========                 |                                                 |
| \\      /  F ield         | OpenFOAM: The Open Source CFD Toolbox           |
|  \\    /   O peration     | Version:  2.4.0                                 |
|   \\  /    A nd           | Web:      www.OpenFOAM.org                      |
|    \\/     M anipulation  |                                                 |
\*---------------------------------------------------------------------------*/
FoamFile
{
    version     2.0;
    format      ascii;
    class       surfaceScalarField;
    location    "0.35";
    object      phi.water;
}
// * * * * * * * * * * * * * * * * * * * * * * * * * * * * * * * * * * * * * //

dimensions      [0 3 -1 0 0 0 0];

internalField   nonuniform List<scalar> 
1061
(
8.73505e-06
2.03062e-05
3.26671e-05
4.25248e-05
5.70648e-05
7.39384e-05
9.68649e-05
8.00459e-05
-4.30909e-05
4.18086e-05
-7.72288e-05
3.34974e-05
-9.75987e-05
1.99714e-05
-0.000106878
8.68167e-06
-0.000107705
1.55311e-07
-0.000100234
-8.47666e-06
-8.58574e-05
-1.50971e-05
-5.52775e-05
-3.63717e-05
-1.72509e-05
-6.94985e-05
1.78411e-05
-0.000113545
5.09792e-05
-0.00013
7.61036e-05
-0.000118361
8.95242e-05
-9.83855e-05
9.0633e-05
-8.20158e-05
8.40732e-05
-6.78291e-05
6.78645e-05
-4.79175e-05
4.48845e-05
-2.89012e-05
2.06667e-05
-1.70432e-05
-8.67736e-06
-3.79541e-05
7.98221e-05
-7.25534e-05
6.88779e-05
-9.50911e-05
4.33254e-05
-0.000102739
1.74357e-05
-0.00010055
-5.66355e-07
-9.23925e-05
-1.39872e-05
-7.81701e-05
-2.17097e-05
-4.55113e-05
-5.54265e-05
-7.37099e-06
-8.9835e-05
3.06289e-05
-0.000132858
6.54946e-05
-0.000163495
8.85e-05
-0.000149355
9.72814e-05
-0.000115078
9.67581e-05
-8.78498e-05
8.3114e-05
-5.08484e-05
5.80598e-05
2.12349e-07
2.88893e-05
2.98133e-05
6.88909e-06
2.75213e-05
3.22867e-06
-3.84064e-05
0.000118439
-6.99627e-05
0.000100572
-9.05033e-05
6.39479e-05
-9.40486e-05
2.10246e-05
-9.1097e-05
-3.32539e-06
-8.36817e-05
-2.09368e-05
-6.34539e-05
-3.77796e-05
-2.54417e-05
-8.31876e-05
1.08092e-05
-0.000120187
4.59376e-05
-0.000161343
7.71563e-05
-0.000187619
9.72914e-05
-0.000168596
0.000106413
-0.000129205
9.88593e-05
-7.89416e-05
7.83043e-05
-1.0241e-05
5.3659e-05
4.552e-05
3.1089e-05
6.55543e-05
1.10195e-05
5.24375e-05
8.69876e-06
-3.06916e-05
0.000149175
-6.13096e-05
0.000131162
-7.9267e-05
8.19561e-05
-7.80441e-05
1.98563e-05
-7.07201e-05
-1.1013e-05
-6.37416e-05
-2.83206e-05
-4.42363e-05
-5.30536e-05
-8.32662e-06
-0.000107784
2.57247e-05
-0.000147884
5.91268e-05
-0.000188316
8.58197e-05
-0.000207711
0.000104331
-0.000186366
0.000107587
-0.00013408
9.60625e-05
-5.03308e-05
7.44669e-05
3.51081e-05
5.07314e-05
8.07886e-05
3.15819e-05
8.77459e-05
1.42297e-05
6.82675e-05
2.44552e-05
-2.45678e-05
0.000173731
-5.269e-05
0.000159283
-5.5288e-05
8.46674e-05
-4.09048e-05
4.35199e-07
-3.76085e-05
-5.31744e-05
-3.48018e-05
-6.3096e-05
-2.30154e-05
-6.65148e-05
7.49038e-06
-0.00012841
3.79557e-05
-0.000172729
6.64221e-05
-0.000209102
8.90473e-05
-0.000222805
0.000101153
-0.000210155
0.000105796
-0.000146855
9.14957e-05
-1.48337e-05
6.86256e-05
7.82131e-05
4.96072e-05
0.000106657
3.50569e-05
0.000104194
1.79231e-05
8.3601e-05
4.27276e-05
-1.80863e-05
0.000191803
-3.78885e-05
0.000179106
-2.50429e-05
7.078e-05
-1.24409e-05
-3.29493e-05
-2.79287e-06
-8.12279e-05
4.90024e-06
-0.000122543
6.6872e-06
-0.000118361
2.52343e-05
-0.000144425
4.7798e-05
-0.000190528
7.21764e-05
-0.000226993
9.07981e-05
-0.000239883
9.49727e-05
-0.000257824
8.92286e-05
-0.000236809
8.05101e-05
-3.95533e-06
6.1954e-05
0.000106925
4.77549e-05
0.000122329
3.3529e-05
0.000119283
1.46316e-05
0.000101435
6.04577e-05
-9.12692e-06
0.000200914
-1.51798e-05
0.000185113
-2.17701e-06
3.55497e-05
1.57159e-05
-2.33463e-05
-1.20801e-05
-6.96615e-06
3.97901e-05
-7.33743e-05
4.02313e-05
-0.00012601
4.30294e-05
-0.000175399
5.58941e-05
-0.000201226
7.51131e-05
-0.000239725
8.82831e-05
-0.000264036
9.92637e-05
-0.000272738
7.96779e-05
-0.000235179
6.74131e-05
-4.08335e-05
5.39413e-05
0.000117848
4.25276e-05
0.000134007
2.85008e-05
0.00013386
1.28733e-05
0.000118289
7.54068e-05
1.17499e-06
7.97226e-05
3.44194e-06
0.000141242
1.0311e-05
4.9719e-05
-4.86518e-06
1.96926e-05
-5.51212e-06
1.40369e-07
2.35062e-05
-4.86293e-05
6.42605e-05
-9.09396e-05
5.70589e-05
-0.000179182
6.51095e-05
-0.000213022
7.77151e-05
-0.000247872
8.84178e-05
-0.000267856
9.78672e-05
-0.000269436
8.0557e-05
-0.000214951
5.43703e-05
-0.000119348
4.71094e-05
9.24804e-05
4.05048e-05
0.000140379
2.9588e-05
0.000145023
1.51343e-05
0.000134835
9.09139e-05
9.39471e-05
9.42558e-05
9.03585e-05
8.02552e-05
9.41171e-05
8.44343e-05
0.000104678
0.000133367
8.86944e-05
0.000191792
6.04149e-05
0.000194401
1.40838e-05
0.000167147
0.000113107
3.32203e-05
3.74511e-05
1.07828e-05
3.15139e-05
1.03623e-05
-4.16284e-06
-3.38314e-06
1.39469e-05
8.34254e-05
3.40969e-05
7.02084e-05
2.74619e-05
4.75275e-05
2.4936e-05
7.65898e-06
3.76298e-05
9.11921e-05
3.65933e-05
8.94885e-05
2.85556e-05
8.18533e-05
2.56798e-05
1.68265e-05
7.73064e-05
0.000126924
4.38482e-05
0.000119453
3.6573e-05
0.000112059
3.06927e-05
2.27899e-05
0.000101903
0.000191727
4.37415e-05
0.00018508
4.39307e-05
0.000174797
4.17969e-05
3.5892e-05
0.000161832
0.000202355
3.6054e-05
0.000206873
3.97036e-05
0.00020729
4.14101e-05
4.07652e-05
0.0002027
0.000184365
1.85773e-05
0.000197013
2.75554e-05
0.00020441
3.43212e-05
3.92347e-05
0.000206534
0.000137089
-4.05379e-06
0.000158843
8.14846e-06
0.000177597
1.58656e-05
2.72695e-05
0.00018988
8.55704e-05
-1.63126e-05
0.000102829
-5.46701e-06
0.000121337
-2.28319e-06
6.25566e-06
0.000143474
6.19461e-05
-1.78708e-05
7.29347e-05
-1.46655e-05
8.40488e-05
-1.62756e-05
-1.32146e-05
0.000101519
5.84489e-05
-4.54128e-05
6.73331e-05
-2.64389e-05
7.53854e-05
-1.93192e-05
-2.08452e-05
8.84773e-05
0.000105383
-9.91954e-06
8.95438e-05
-1.67751e-05
6.77497e-05
-2.32058e-05
-2.02714e-05
5.64712e-05
2.79352e-05
-1.13118e-05
3.72144e-05
-1.39426e-05
3.95308e-05
-1.51773e-05
-1.61525e-05
4.2264e-05
-4.98523e-05
-6.38915e-06
-5.26068e-05
-1.11874e-05
-5.79199e-05
-9.86339e-06
-1.04698e-05
-6.36018e-05
-3.32796e-05
-9.83133e-06
-3.51218e-05
-9.3447e-06
-3.72558e-05
-7.72859e-06
-7.35415e-06
-4.03708e-05
-5.04038e-05
-8.26341e-06
-5.16366e-05
-8.11148e-06
-5.16233e-05
-7.74143e-06
-7.58228e-06
-5.13946e-05
-4.62419e-05
-4.54658e-05
-4.51863e-05
-4.53154e-05
3.67605e-05
6.85717e-05
4.87019e-05
7.50852e-05
3.21546e-05
4.87398e-05
3.59113e-05
3.89433e-05
7.84798e-05
2.49098e-05
0.000138994
-7.36932e-06
0.000172318
-3.291e-05
0.000154807
-0.000137622
0.000152229
-0.000213301
0.000173467
-0.000251141
0.000190299
-0.000259589
0.000200449
-0.000253733
0.000201227
-0.000173939
0.000126699
-8.74393e-05
8.35233e-05
3.50854e-05
7.11864e-05
0.000131158
5.49367e-05
0.00016123
2.93549e-05
0.000161471
0.000120341
7.42371e-05
4.11484e-05
0.000123024
5.81802e-05
0.000117358
4.71467e-05
0.000108304
4.61133e-05
0.000152852
2.08446e-05
0.00016952
-1.99425e-05
0.000196875
-5.38222e-05
0.000166097
-0.000121125
0.000168273
-0.000193942
0.000183097
-0.000229276
0.000197423
-0.000245564
0.00019596
-0.000229842
0.000175517
-9.54116e-05
0.000103381
0.000159549
9.1223e-05
8.43882e-06
5.75715e-05
6.91324e-05
4.52679e-05
0.000171222
2.80638e-05
0.000178719
0.000148406
0.000103768
3.6968e-05
0.000136675
3.6437e-05
0.000153753
3.01784e-05
0.000148374
2.10568e-05
0.000157043
-5.25309e-06
0.000152525
-4.73155e-05
0.000139258
-8.05254e-05
0.000169489
-0.000119216
0.000176477
-0.000162399
0.00018203
-0.000204152
0.00018659
-0.00022151
0.000173351
-0.000194588
9.81061e-05
4.86094e-05
3.56403e-05
0.000311024
0.000103938
9.87862e-05
5.69348e-05
2.44598e-05
3.82776e-05
0.000160682
2.85017e-05
0.000188148
0.000176906
0.000110775
3.47085e-05
0.000125953
2.75593e-05
0.000139043
1.79727e-05
0.000156529
4.31961e-06
0.000163986
-3.12984e-05
0.00016165
-6.77695e-05
0.000164394
-9.66782e-05
0.000187043
-0.000138771
0.000174243
-0.000175977
0.000155244
-0.000203496
0.000166028
-0.000201545
0.000135042
-0.000143999
6.39943e-05
0.000119631
7.42718e-05
0.000302656
5.50711e-05
0.000179192
5.64008e-05
5.07533e-05
2.97162e-05
0.000134806
2.06617e-05
0.000195531
0.000197567
0.000139723
5.67035e-05
0.000138437
3.08282e-05
0.000144126
1.4736e-05
0.000150922
-5.72534e-06
0.000164828
-4.1333e-05
0.00017408
-7.57416e-05
0.000183719
-0.000111645
0.000193029
-0.000157385
0.000173664
-0.000183795
0.000142098
-0.000196305
0.000158505
-0.000169391
7.22421e-05
-4.72229e-05
4.41575e-05
0.000110994
8.44969e-05
0.000262285
3.17348e-05
0.0002695
4.62909e-05
7.45036e-05
2.69113e-05
0.000103222
1.34861e-05
0.000205645
0.00021105
0.000179312
8.16205e-05
0.000163053
4.90465e-05
0.000158152
1.83196e-05
0.000162484
-1.06063e-05
0.000173995
-4.85641e-05
0.000183641
-8.49433e-05
0.000194748
-0.0001233
0.000199476
-0.000161155
0.000183202
-0.000177748
0.000130148
-0.000177836
0.000146295
-0.000125615
1.61088e-05
6.53606e-05
3.16108e-06
0.000117397
6.01579e-05
0.000205277
4.39604e-05
0.000286343
5.34831e-05
0.000120301
3.02391e-05
8.26557e-05
1.24274e-05
0.000211372
0.000223435
0.000200603
8.85048e-05
0.000186746
6.44183e-05
0.000178317
2.80022e-05
0.000184342
-1.17039e-05
0.000190524
-5.08177e-05
0.000201382
-8.59461e-05
0.000209069
-0.000125694
0.000213497
-0.000146722
0.000191046
-0.00014799
0.00010406
-0.000112875
3.69499e-05
-2.10303e-06
-1.48757e-05
9.00878e-05
-1.66765e-06
0.000104212
6.53949e-05
0.000138218
8.76444e-05
0.000264104
4.77198e-05
0.000170623
3.88163e-05
8.30441e-05
1.08273e-05
0.00020919
0.000233949
0.000197161
8.07679e-05
0.000195213
6.77437e-05
0.000194301
3.23797e-05
0.000200987
-1.33946e-05
0.000207825
-4.81091e-05
0.000214959
-8.11008e-05
0.000229057
-0.000116776
0.00021086
-0.000125175
0.000143486
-0.000111056
9.09197e-05
-6.43546e-05
-2.63496e-05
7.4238e-05
-2.01251e-05
8.36568e-05
-2.78257e-06
8.68744e-05
3.67854e-05
9.86561e-05
7.01206e-05
0.000230771
4.74322e-05
0.000205333
4.69214e-05
0.000113077
1.293e-05
0.000213767
0.000245506
0.000177308
4.96746e-05
0.000190168
5.1665e-05
0.000198428
2.57647e-05
0.000208991
-1.49239e-05
0.000214338
-4.33019e-05
0.000229975
-8.05248e-05
0.000216768
-9.87726e-05
0.000167494
-8.15222e-05
0.000106776
-7.31322e-05
-3.94734e-05
5.25107e-05
-3.16147e-05
6.55355e-05
-2.29566e-05
7.50011e-05
-9.38192e-06
7.33014e-05
4.80226e-07
8.8796e-05
4.51658e-05
0.000186088
4.90673e-05
0.000201685
5.07695e-05
0.000163236
1.84423e-05
0.000225682
0.000259895
0.00013961
2.10081e-05
0.000165357
2.93236e-05
0.000177744
9.58284e-06
0.000187382
-2.64839e-05
0.000213544
-6.16873e-05
0.000200467
-7.08856e-05
0.000144651
-6.98153e-05
9.64044e-05
-5.36569e-05
-3.68702e-05
4.17083e-05
-3.79756e-05
5.33374e-05
-2.86257e-05
5.61866e-05
-1.95208e-05
6.58982e-05
-8.6009e-06
6.23829e-05
-3.53473e-06
8.37313e-05
4.29798e-05
0.000139576
5.93524e-05
0.000185316
3.14974e-05
0.00019734
2.22867e-05
0.000238786
0.000272816
0.000124554
-4.22697e-05
0.000148006
-2.75973e-05
0.000155853
-3.81333e-05
0.000154095
-4.91758e-05
0.000131184
-5.88724e-05
8.81811e-05
-6.42667e-05
-3.89276e-05
1.34345e-05
-5.19289e-05
2.30893e-05
-4.26787e-05
3.35364e-05
-3.30871e-05
4.37506e-05
-2.37597e-05
4.68611e-05
-1.54382e-05
5.75783e-05
-4.41641e-06
5.13624e-05
4.71434e-06
7.46019e-05
4.22258e-05
0.000102067
5.41747e-05
0.000173368
2.77532e-05
0.000235242
2.07543e-05
0.0002452
0.00028313
0.000106047
-4.56727e-05
0.000123142
-5.02172e-05
0.000106718
-5.65289e-05
6.9127e-05
-4.91385e-05
3.35823e-06
5.3861e-06
-3.59524e-05
1.35575e-05
-3.47838e-05
1.51469e-05
-3.49977e-05
2.33837e-05
-3.29893e-05
3.15335e-05
-2.68512e-05
3.76142e-05
-1.96286e-05
3.96401e-05
-1.11395e-05
4.90907e-05
2.65368e-07
3.99589e-05
1.02695e-05
6.45992e-05
4.09764e-05
7.13632e-05
4.42296e-05
0.000170117
2.26281e-05
0.000272516
1.6292e-05
0.000243262
0.00029194
1.99975e-05
-2.73162e-05
-7.12945e-06
7.9494e-06
-3.37012e-05
1.57567e-05
-2.87486e-05
1.79396e-05
-2.55959e-05
2.26731e-05
-3.16206e-05
1.95541e-05
-3.49809e-05
1.85124e-05
-3.31678e-05
2.1572e-05
-2.86405e-05
2.70074e-05
-2.26119e-05
3.15869e-05
-1.63729e-05
3.34025e-05
-8.25399e-06
4.09731e-05
1.45258e-06
3.02536e-05
1.19783e-05
5.40746e-05
3.85284e-05
4.48156e-05
3.18777e-05
0.000176774
2.117e-05
0.000298665
1.3374e-05
0.000238756
0.000301618
-6.77039e-05
-2.32069e-05
-5.00706e-05
-9.63267e-06
-4.06341e-05
7.21049e-06
-3.93557e-05
1.87641e-05
-3.50597e-05
1.85012e-05
-3.18869e-05
1.63816e-05
-3.03802e-05
1.70064e-05
-2.84435e-05
1.96358e-05
-2.47023e-05
2.32673e-05
-1.93839e-05
2.62694e-05
-1.39736e-05
2.79936e-05
-6.27852e-06
3.3279e-05
6.52552e-07
2.33236e-05
1.05012e-05
4.42268e-05
2.74608e-05
2.78575e-05
1.62129e-05
0.00018803
2.23254e-05
0.000307247
1.26487e-05
0.00023707
0.000311378
-4.90196e-05
-1.45573e-05
-5.44022e-05
-4.24952e-06
-5.13438e-05
4.15253e-06
-4.12359e-05
8.6569e-06
-3.48944e-05
1.21598e-05
-3.12507e-05
1.27386e-05
-2.85518e-05
1.43076e-05
-2.55546e-05
1.66395e-05
-2.17943e-05
1.95072e-05
-1.70253e-05
2.15017e-05
-1.24788e-05
2.34476e-05
-5.33143e-06
2.61329e-05
-1.98119e-06
1.9974e-05
7.928e-06
3.43185e-05
1.23862e-05
2.34006e-05
1.2696e-05
0.000187719
2.00428e-05
0.000302501
1.35946e-05
0.000242932
0.000320153
-5.05002e-05
-1.54513e-05
-4.67974e-05
-7.95176e-06
-4.24781e-05
-1.66094e-07
-3.812e-05
4.29898e-06
-3.34249e-05
7.46554e-06
-2.98963e-05
9.21009e-06
-2.65498e-05
1.09622e-05
-2.33445e-05
1.34344e-05
-1.96058e-05
1.57698e-05
-1.52202e-05
1.71165e-05
-1.12676e-05
1.94965e-05
-5.20468e-06
2.00706e-05
-3.24526e-06
1.80157e-05
6.87838e-06
2.41961e-05
5.41376e-06
2.48658e-05
2.62371e-05
0.000166892
3.14946e-05
0.000284516
1.70462e-05
0.000260157
0.000332043
-4.64567e-05
-4.51015e-05
-4.14329e-05
-3.6171e-05
-3.17437e-05
-2.80626e-05
-2.46337e-05
-2.13919e-05
-1.77416e-05
-1.37272e-05
-1.01368e-05
-4.6746e-06
-2.88249e-06
5.58193e-06
6.2579e-06
3.23729e-05
5.27687e-05
2.5802e-05
)
;

boundaryField
{
    leftWall
    {
        type            fixedValue;
        value           nonuniform 0();
    }
    rightWall
    {
        type            fixedValue;
        value           uniform 0;
    }
    lowerWall
    {
        type            fixedValue;
        value           uniform 0;
    }
    atmosphere
    {
        type            calculated;
        value           nonuniform 0();
    }
    defaultFaces
    {
        type            empty;
        value           nonuniform 0();
    }
    procBoundary1to0
    {
        type            processor;
        value           nonuniform List<scalar> 
26
(
-8.73459e-06
-1.155e-05
-1.2261e-05
-9.7166e-06
-1.3758e-05
-1.46504e-05
-1.35487e-05
-1.14824e-05
-5.36908e-05
-4.90125e-05
-8.00037e-05
-0.000144552
-0.000176618
-0.000166413
-0.000128105
-7.89258e-05
-2.55493e-05
-6.52782e-05
-4.66404e-05
-6.29273e-05
-0.000127251
-1.86505e-05
4.49302e-05
3.67221e-05
4.88362e-05
4.7811e-05
)
;
    }
    procBoundary1to3
    {
        type            processor;
        value           nonuniform List<scalar> 
23
(
-9.83191e-06
-8.88739e-06
-8.02036e-06
-7.45293e-06
-1.43092e-05
-9.30643e-06
-3.83415e-06
-9.6206e-07
3.03852e-06
5.5301e-06
7.53359e-06
1.0194e-05
1.21199e-05
1.31036e-05
1.59067e-05
1.46099e-05
1.62245e-05
1.57334e-05
2.41908e-05
0.000140778
0.000261672
0.000289136
0.000350811
)
;
    }
}


// ************************************************************************* //
