/*--------------------------------*- C++ -*----------------------------------*\
| =========                 |                                                 |
| \\      /  F ield         | OpenFOAM: The Open Source CFD Toolbox           |
|  \\    /   O peration     | Version:  2.4.0                                 |
|   \\  /    A nd           | Web:      www.OpenFOAM.org                      |
|    \\/     M anipulation  |                                                 |
\*---------------------------------------------------------------------------*/
FoamFile
{
    version     2.0;
    format      ascii;
    class       surfaceScalarField;
    location    "0.35";
    object      phi.oil;
}
// * * * * * * * * * * * * * * * * * * * * * * * * * * * * * * * * * * * * * //

dimensions      [0 3 -1 0 0 0 0];

internalField   nonuniform List<scalar> 
1061
(
1.40944e-05
2.59661e-05
3.90733e-05
4.90368e-05
6.31965e-05
7.87484e-05
9.93104e-05
0.000112061
-4.24569e-05
4.24663e-05
-7.68115e-05
3.43599e-05
-9.76234e-05
2.08156e-05
-0.000107454
9.83472e-06
-0.000109139
1.68912e-06
-0.000103235
-5.90107e-06
-9.38195e-05
-9.43867e-06
-7.33834e-05
-2.05739e-05
-4.33059e-05
-3.00607e-05
-5.25461e-06
-3.41317e-05
3.98281e-05
-3.48224e-05
7.39525e-05
-2.38212e-05
8.88926e-05
-5.56218e-06
8.67614e-05
1.10427e-05
7.26387e-05
2.12866e-05
4.80561e-05
2.91957e-05
2.02977e-05
3.03862e-05
2.93273e-06
1.88478e-05
3.04858e-06
-3.77368e-05
8.02025e-05
-7.24471e-05
6.90649e-05
-9.50675e-05
4.3429e-05
-0.000102747
1.75052e-05
-0.00010064
-4.27998e-07
-9.29962e-05
-1.35632e-05
-8.29969e-05
-1.94977e-05
-5.88218e-05
-4.50022e-05
-2.65539e-05
-6.31222e-05
8.61421e-06
-7.20978e-05
5.2478e-05
-8.03631e-05
8.55336e-05
-5.60166e-05
9.75588e-05
-1.67458e-05
9.21983e-05
1.61083e-05
7.16109e-05
3.88714e-05
4.5571e-05
5.17119e-05
2.01884e-05
5.39042e-05
3.58906e-06
3.48331e-05
3.31348e-06
-3.83603e-05
0.000118562
-6.99201e-05
0.000100624
-9.0477e-05
6.3985e-05
-9.40646e-05
2.10921e-05
-9.1251e-05
-3.24259e-06
-8.43061e-05
-2.05119e-05
-6.80125e-05
-3.58263e-05
-3.87102e-05
-7.45149e-05
-5.97955e-06
-9.62238e-05
2.939e-05
-0.000107693
6.81959e-05
-0.000120431
9.55355e-05
-8.33992e-05
0.000105508
-2.66133e-05
9.22129e-05
2.64409e-05
6.96103e-05
5.84272e-05
4.90688e-05
7.15038e-05
2.9606e-05
7.31809e-05
1.08736e-05
5.34571e-05
8.10071e-06
-3.06638e-05
0.000149225
-6.12389e-05
0.000131199
-7.92582e-05
8.20038e-05
-7.80825e-05
1.98939e-05
-7.09001e-05
-1.10194e-05
-6.41765e-05
-2.81079e-05
-4.83294e-05
-5.17491e-05
-2.16254e-05
-0.000101468
9.84559e-06
-0.000128153
4.63277e-05
-0.000144545
8.02009e-05
-0.000154394
0.000105149
-0.000109198
0.000106115
-2.9543e-05
9.04794e-05
3.83538e-05
6.96586e-05
7.80708e-05
4.86238e-05
9.23712e-05
3.09075e-05
9.08774e-05
1.4171e-05
6.86975e-05
2.39662e-05
-2.45381e-05
0.000173763
-5.26506e-05
0.000159311
-5.53496e-05
8.46821e-05
-4.09172e-05
-7.88109e-08
-3.77522e-05
-5.67906e-05
-3.51232e-05
-6.63354e-05
-2.70399e-05
-6.5785e-05
-5.43426e-06
-0.000123639
2.40453e-05
-0.000158154
5.60287e-05
-0.00017729
8.44658e-05
-0.000184946
0.000100042
-0.000153648
0.000104355
-5.92884e-05
8.75223e-05
5.26139e-05
6.67485e-05
9.84456e-05
4.90113e-05
0.000110059
3.4844e-05
0.000105277
1.79312e-05
8.36311e-05
4.22939e-05
-1.80595e-05
0.000191823
-3.78813e-05
0.000179125
-2.51099e-05
7.07467e-05
-1.25749e-05
-3.52124e-05
-2.7272e-06
-9.10429e-05
5.25613e-06
-0.000139019
4.56334e-06
-0.00012795
1.23958e-05
-0.000140852
3.43821e-05
-0.000181522
6.25353e-05
-0.000206678
8.50696e-05
-0.000219709
8.79464e-05
-0.000245423
8.15761e-05
-0.000211415
7.75426e-05
4.33887e-05
6.12912e-05
0.000114293
4.75272e-05
0.000123815
3.34557e-05
0.000119874
1.46484e-05
0.000101332
6.02584e-05
-9.1084e-06
0.000200931
-1.51827e-05
0.000185135
-3.91346e-06
3.53249e-05
1.70892e-05
-2.82017e-05
4.26261e-05
-0.000104183
5.31142e-05
-0.000119724
4.20992e-05
-0.000139569
3.15942e-05
-0.000178902
4.29962e-05
-0.000198648
6.53132e-05
-0.000231058
7.76895e-05
-0.000262881
8.24778e-05
-0.00028442
7.17403e-05
-0.000289493
6.44538e-05
-4.10407e-06
5.34603e-05
0.000121343
4.23291e-05
0.000134899
2.84425e-05
0.000134307
1.28797e-05
0.000118248
7.53692e-05
1.17714e-06
0.000200136
2.964e-06
0.000175723
1.12086e-05
4.73046e-05
3.89682e-05
6.50449e-06
7.68341e-05
-6.47336e-05
9.54385e-05
-2.43484e-05
7.61647e-05
-7.05425e-05
4.83707e-05
-0.000197831
5.31355e-05
-0.000220835
6.77635e-05
-0.000248701
7.49717e-05
-0.000276304
7.93746e-05
-0.000286903
6.83131e-05
-0.000288767
5.1814e-05
-9.44019e-05
4.69316e-05
9.32638e-05
4.03878e-05
0.000140751
2.95317e-05
0.000145315
1.51315e-05
0.000134879
9.09081e-05
8.92377e-05
9.89193e-05
9.56682e-05
8.27624e-05
0.000104577
8.82577e-05
0.000118022
0.00013874
9.6566e-05
0.000201954
6.37283e-05
0.000202998
2.18332e-05
0.000167564
0.000106
2.37309e-05
3.63123e-05
-2.431e-05
2.11113e-05
-2.05686e-05
-1.64137e-05
8.3104e-06
6.71455e-06
7.59078e-05
3.41123e-05
6.01227e-05
2.71438e-05
4.34054e-05
2.23719e-05
7.62986e-06
3.34347e-05
9.18759e-05
3.825e-05
8.79859e-05
3.03406e-05
7.75395e-05
2.68756e-05
1.77855e-05
6.82641e-05
0.000131343
4.70787e-05
0.000122731
3.77372e-05
0.000112001
3.11573e-05
2.2589e-05
0.000101994
0.000202359
4.7109e-05
0.000193393
4.68021e-05
0.00018059
4.37948e-05
3.6287e-05
0.000164544
0.000212369
3.65585e-05
0.000217422
4.02452e-05
0.000217836
4.23176e-05
4.20736e-05
0.000212232
0.000185928
1.86427e-05
0.000199644
2.64162e-05
0.000210231
3.31297e-05
3.88665e-05
0.000214033
0.000127037
-3.77603e-06
0.00014824
3.51428e-06
0.000169828
1.08126e-05
2.29217e-05
0.000185777
7.47211e-05
-1.57845e-05
8.84071e-05
-1.03877e-05
0.000106279
-7.37346e-06
5.06577e-08
0.00012827
5.26389e-05
-2.86242e-05
5.92908e-05
-2.26199e-05
6.83998e-05
-2.10114e-05
-1.76929e-05
8.2751e-05
7.00581e-05
-6.47642e-05
7.48069e-05
-5.7203e-05
8.12081e-05
-5.45099e-05
-5.0738e-05
8.74619e-05
8.32385e-05
-4.5146e-05
7.99411e-05
-3.96318e-05
7.89043e-05
-3.66991e-05
-3.41225e-05
8.15257e-05
2.96272e-05
-1.76836e-05
3.82225e-05
-1.96466e-05
4.04982e-05
-1.96874e-05
-1.93907e-05
3.58596e-05
-4.85098e-05
-4.25059e-06
-5.26194e-05
-1.08185e-05
-5.80105e-05
-9.5663e-06
-1.01357e-05
-6.36348e-05
-3.31363e-05
-1.03919e-05
-3.50917e-05
-9.59072e-06
-3.72573e-05
-7.90405e-06
-7.4699e-06
-4.04138e-05
-5.03401e-05
-8.09084e-06
-5.16194e-05
-8.06245e-06
-5.16229e-05
-7.73629e-06
-7.5793e-06
-5.13923e-05
-4.62416e-05
-4.54685e-05
-4.51884e-05
-4.53164e-05
5.50049e-05
0.000145517
4.98309e-05
0.000145558
3.28144e-05
9.10614e-05
3.36575e-05
7.9625e-05
9.14144e-05
6.8563e-05
0.000174589
4.72313e-05
0.000184424
-3.91522e-05
0.000138355
-0.000177475
0.000129338
-0.000240357
0.000147761
-0.00026964
0.000162706
-0.000279008
0.000168396
-0.000282167
0.000165534
-0.000279484
0.000134912
-0.000210148
8.4963e-05
2.67133e-05
7.11256e-05
0.000131039
5.48723e-05
0.000161323
2.93464e-05
0.000161513
0.000120341
0.000111771
8.22517e-05
0.000153978
0.00010214
0.000135724
6.71876e-05
0.000136132
6.79276e-05
0.000149507
5.49087e-05
0.000169849
5.28829e-06
0.000169905
-7.17078e-05
0.000156183
-0.000168036
0.000149122
-0.00023845
0.000159412
-0.00026858
0.000180533
-0.000273852
0.000172089
-0.000263389
0.000153144
-0.000239991
0.000132773
-2.07405e-05
0.000104072
-2.69169e-05
5.77099e-05
6.82377e-05
4.52508e-05
0.000171217
2.80617e-05
0.000178731
0.000148406
0.000114761
4.32975e-05
0.000162865
5.58685e-05
0.000179716
4.47383e-05
0.000181584
2.93582e-05
0.000176215
-4.63979e-07
0.000168195
-4.81573e-05
0.000166863
-0.000100038
0.000165954
-0.000170786
0.000159224
-0.000233125
0.000177075
-0.000251299
0.000189997
-0.000248873
0.000162234
-0.000244698
0.000109607
-0.000175299
0.000106598
0.000221159
0.00011649
1.40298e-05
5.9074e-05
1.79903e-05
3.8298e-05
0.000160589
2.85007e-05
0.000188153
0.000176906
9.90591e-05
3.5343e-05
0.000128367
2.85715e-05
0.000148955
2.32526e-05
0.000166698
1.02885e-05
0.00017174
-2.72801e-05
0.000171173
-6.46466e-05
0.000176011
-0.000108185
0.000180229
-0.000177251
0.000175813
-0.000227159
0.00019668
-0.000235643
0.000198901
-0.000229792
0.00015489
-0.000227724
0.000105547
-5.06844e-05
9.57116e-05
0.000253108
7.01232e-05
0.000140288
6.41511e-05
3.83989e-05
2.98228e-05
0.000134777
2.06612e-05
0.000195533
0.000197567
0.000130672
5.24948e-05
0.000128335
2.62218e-05
0.000136928
1.22581e-05
0.000151457
-5.32163e-06
0.000161567
-3.96947e-05
0.000168789
-7.49512e-05
0.000181623
-0.000123463
0.000187295
-0.00018418
0.000194916
-0.000215855
0.000208025
-0.000219317
0.000196705
-0.000212186
0.000115214
-0.000201513
6.15097e-05
5.07184e-05
8.90437e-05
0.000238085
6.78007e-05
0.00023502
5.5095e-05
6.32376e-05
2.70935e-05
0.000103263
1.34861e-05
0.000205642
0.00021105
0.000181531
8.07989e-05
0.000154921
4.21626e-05
0.000152166
1.07817e-05
0.000158441
-1.62555e-05
0.000167057
-5.30103e-05
0.00017865
-8.897e-05
0.000194263
-0.000139372
0.000197201
-0.000184531
0.00021133
-0.000194406
0.000213385
-0.000193307
0.000191212
-0.000192372
0.000100831
-7.19478e-05
1.55359e-05
8.35289e-05
6.1557e-05
0.000188811
6.76797e-05
0.000258788
5.77891e-05
7.59088e-05
3.09354e-05
8.17536e-05
1.24296e-05
0.000211348
0.000223435
0.000209149
8.87687e-05
0.000188162
5.84941e-05
0.000175293
1.81865e-05
0.000177726
-2.33373e-05
0.000185556
-6.22645e-05
0.000198267
-0.000101912
0.000207195
-0.000146033
0.000211483
-0.000168751
0.000216687
-0.000174048
0.000209677
-0.000165364
0.000115186
-0.000114662
4.48431e-07
6.36729e-05
2.31159e-06
8.84557e-05
6.49839e-05
0.000124289
8.69478e-05
0.000248431
4.96578e-05
0.00015589
4.16498e-05
7.28413e-05
1.08436e-05
0.000209171
0.000233949
0.000200939
7.70555e-05
0.000201087
6.04721e-05
0.000195801
1.96916e-05
0.000201567
-3.02335e-05
0.00020739
-6.801e-05
0.000213156
-0.000104642
0.000212405
-0.000136926
0.000207584
-0.000149977
0.000192586
-0.000149506
0.000138739
-0.000114177
2.47174e-05
1.21382e-05
-1.5527e-05
7.06844e-05
-1.4134e-06
7.98157e-05
4.27408e-05
9.11597e-05
7.52396e-05
0.000221247
6.31161e-05
0.000188741
5.10022e-05
7.45105e-05
1.29936e-05
0.000213784
0.000245506
0.000168886
3.4487e-05
0.000194476
4.21049e-05
0.00020333
1.42713e-05
0.000208931
-3.35042e-05
0.000215278
-7.05435e-05
0.000215228
-0.000101344
0.000203296
-0.000119633
0.000173181
-0.000137369
0.00011508
-0.000127855
2.05199e-05
-1.30655e-05
-2.29356e-05
5.11172e-05
-2.09828e-05
6.73701e-05
-7.64032e-06
6.91296e-05
4.94621e-06
8.32402e-05
4.93156e-05
0.000176993
6.27081e-05
0.000185571
5.28123e-05
0.000119575
1.86358e-05
0.000225684
0.000259891
0.000120802
-4.60606e-06
0.000152734
1.23309e-05
0.000175428
-4.93761e-06
0.000183024
-4.59529e-05
0.000191522
-9.42654e-05
0.000193746
-0.000129102
0.000179917
-0.000131303
0.000150499
-9.69038e-05
4.86477e-05
-4.84256e-05
-2.7442e-05
3.5185e-05
-2.70589e-05
4.99902e-05
-1.87574e-05
6.2102e-05
-6.5011e-06
5.99431e-05
-1.1374e-06
7.94789e-05
4.65896e-05
0.000130976
6.01884e-05
0.000173963
3.20928e-05
0.000209358
2.28332e-05
0.000238783
0.000272812
0.000114476
-8.20757e-05
0.000141101
-5.49218e-05
0.000150106
-6.28641e-05
0.000145633
-9.05248e-05
0.000125981
-0.000105688
8.2486e-05
-9.89793e-05
4.38354e-05
-7.74562e-05
3.34318e-07
-1.59872e-05
-2.87752e-05
1.80321e-05
-3.15567e-05
3.74106e-05
-2.33266e-05
4.44732e-05
-1.48343e-05
5.57866e-05
-2.26235e-06
4.96698e-05
5.35233e-06
7.12272e-05
4.81507e-05
9.4438e-05
5.42717e-05
0.000163783
2.91948e-05
0.000231973
2.14041e-05
0.000245225
0.00028313
0.00010389
-7.64183e-05
0.000117274
-6.69178e-05
0.000115759
-0.000110532
0.000104404
-0.000109046
6.52136e-05
-8.25924e-05
-4.44411e-06
-9.88281e-06
-2.72216e-05
4.12343e-06
-3.15725e-05
1.58346e-05
-3.161e-05
2.78225e-05
-2.698e-05
3.59762e-05
-1.93942e-05
3.88208e-05
-1.04058e-05
4.83395e-05
1.99013e-06
3.87543e-05
1.0074e-05
6.14625e-05
4.75214e-05
6.33776e-05
4.85069e-05
0.000160393
2.43183e-05
0.000249466
1.67114e-05
0.000243275
0.000291942
2.52506e-05
-3.69609e-05
5.30875e-05
-1.18146e-05
8.06569e-05
-6.48768e-05
5.66206e-05
-6.69064e-05
2.42273e-06
-3.04909e-05
-2.87359e-05
1.62563e-05
-3.44658e-05
1.75272e-05
-3.29134e-05
2.05686e-05
-2.83045e-05
2.62508e-05
-2.27782e-05
3.11287e-05
-1.62918e-05
3.31223e-05
-7.1636e-06
4.06017e-05
2.45627e-06
2.92275e-05
1.14531e-05
5.09741e-05
4.42015e-05
3.70316e-05
4.33205e-05
0.000167563
2.24317e-05
0.000259775
1.35471e-05
0.000238742
0.000301618
-6.7572e-05
-2.28314e-05
-4.95931e-05
-9.66266e-06
-3.72855e-05
6.98466e-06
-3.50577e-05
1.76983e-05
-3.06888e-05
1.46881e-05
-3.1673e-05
1.57433e-05
-3.02158e-05
1.6489e-05
-2.84212e-05
1.92958e-05
-2.45617e-05
2.30426e-05
-1.94307e-05
2.61575e-05
-1.40475e-05
2.78852e-05
-4.81466e-06
3.30321e-05
6.51851e-07
2.24577e-05
1.03406e-05
4.12424e-05
3.04419e-05
2.22098e-05
2.92159e-05
0.000179664
2.34683e-05
0.000263786
1.27807e-05
0.000237083
0.000311376
-4.90606e-05
-1.47449e-05
-5.44037e-05
-4.1713e-06
-5.10264e-05
4.2604e-06
-4.07239e-05
8.7163e-06
-3.48385e-05
1.21258e-05
-3.12071e-05
1.2646e-05
-2.85016e-05
1.42103e-05
-2.55765e-05
1.65481e-05
-2.17398e-05
1.94555e-05
-1.69683e-05
2.14696e-05
-1.26932e-05
2.33833e-05
-3.48764e-06
2.59215e-05
-2.99679e-06
1.91982e-05
9.09036e-06
3.1432e-05
1.35518e-05
1.88408e-05
1.47362e-05
0.000175208
2.02798e-05
0.00027158
1.38255e-05
0.000242737
0.000320142
-5.04861e-05
-1.5465e-05
-4.67666e-05
-7.98767e-06
-4.24333e-05
-1.9288e-07
-3.80836e-05
4.31742e-06
-3.34058e-05
7.47382e-06
-2.98894e-05
9.19755e-06
-2.65393e-05
1.09469e-05
-2.33592e-05
1.34189e-05
-1.95903e-05
1.57591e-05
-1.51118e-05
1.71035e-05
-1.15707e-05
1.94491e-05
-2.92466e-06
1.98812e-05
-5.33456e-06
1.72938e-05
9.361e-06
2.16398e-05
5.34474e-06
2.0244e-05
1.61449e-05
0.000153609
2.91945e-05
0.000269421
1.73994e-05
0.000256822
0.000332044
-4.64569e-05
-4.50962e-05
-4.14205e-05
-3.61605e-05
-3.1737e-05
-2.80604e-05
-2.46326e-05
-2.1396e-05
-1.77407e-05
-1.36087e-05
-1.04797e-05
-2.38291e-06
-5.72822e-06
9.72723e-06
4.05099e-06
3.24065e-05
5.13423e-05
2.65606e-05
)
;

boundaryField
{
    leftWall
    {
        type            fixedValue;
        value           nonuniform 0();
    }
    rightWall
    {
        type            fixedValue;
        value           uniform 0;
    }
    lowerWall
    {
        type            fixedValue;
        value           uniform 0;
    }
    atmosphere
    {
        type            calculated;
        value           nonuniform 0();
    }
    defaultFaces
    {
        type            empty;
        value           nonuniform 0();
    }
    procBoundary1to0
    {
        type            processor;
        value           nonuniform List<scalar> 
26
(
-7.70116e-06
-1.01628e-05
-1.10358e-05
-8.34629e-06
-1.2286e-05
-1.35096e-05
-1.94784e-05
-1.80966e-05
-5.34731e-05
-4.78753e-05
-8.39688e-05
-0.000147239
-0.000183012
-0.000172075
-0.000123375
-7.12057e-05
-1.56235e-05
-6.32164e-05
-4.78169e-05
-6.83062e-05
-8.82919e-05
-2.13191e-05
4.36594e-05
3.6735e-05
4.8745e-05
4.78333e-05
)
;
    }
    procBoundary1to3
    {
        type            processor;
        value           nonuniform List<scalar> 
23
(
-9.84294e-06
-8.89171e-06
-8.02328e-06
-7.45461e-06
-1.43077e-05
-9.29985e-06
-3.82031e-06
-9.54712e-07
3.04189e-06
5.53135e-06
7.53024e-06
1.01897e-05
1.21172e-05
1.30954e-05
1.58687e-05
1.4447e-05
1.55774e-05
1.34139e-05
1.93484e-05
0.000127266
0.000242658
0.000273189
0.000350848
)
;
    }
}


// ************************************************************************* //
