/*--------------------------------*- C++ -*----------------------------------*\
| =========                 |                                                 |
| \\      /  F ield         | OpenFOAM: The Open Source CFD Toolbox           |
|  \\    /   O peration     | Version:  2.4.0                                 |
|   \\  /    A nd           | Web:      www.OpenFOAM.org                      |
|    \\/     M anipulation  |                                                 |
\*---------------------------------------------------------------------------*/
FoamFile
{
    version     2.0;
    format      ascii;
    class       surfaceScalarField;
    location    "0.35";
    object      phi.mercury;
}
// * * * * * * * * * * * * * * * * * * * * * * * * * * * * * * * * * * * * * //

dimensions      [0 3 -1 0 0 0 0];

internalField   nonuniform List<scalar> 
1061
(
8.73431e-06
2.02839e-05
3.25394e-05
4.22273e-05
5.59999e-05
7.09235e-05
9.13177e-05
0.000109699
-7.35807e-05
-7.01928e-07
-9.54572e-05
-1.91578e-05
-9.66698e-05
-3.62948e-05
-9.01565e-05
-5.08249e-05
-7.61953e-05
-5.92678e-05
-5.623e-05
-7.75154e-05
-2.78823e-05
-0.00010805
1.87614e-06
-0.000153013
2.179e-05
-0.000187945
4.18537e-05
-0.000227092
6.1628e-05
-0.000219171
7.81936e-05
-0.000208015
9.01414e-05
-0.00018703
9.44405e-05
-0.000170927
9.56844e-05
-0.000162772
9.14344e-05
-0.00015854
8.66405e-05
-0.000142844
7.35829e-05
-0.000125291
-0.000104137
-5.96215e-05
3.61741e-05
-8.97121e-05
3.08529e-05
-0.000100743
8.05376e-06
-9.97302e-05
-1.64404e-05
-8.68577e-05
-3.50577e-05
-6.03394e-05
-6.1958e-05
-9.92732e-06
-0.000104658
3.19641e-05
-0.000164675
4.14882e-05
-0.000195928
5.78442e-05
-0.00024393
7.76251e-05
-0.000248042
9.13007e-05
-0.000237426
9.70242e-05
-0.000207749
0.000101451
-0.000191462
0.000100337
-0.000181393
9.62694e-05
-0.000163657
8.13239e-05
-0.000121029
4.93136e-05
-6.69479e-05
-2.9709e-05
-4.99176e-05
8.17964e-05
-8.15199e-05
7.21791e-05
-9.43103e-05
3.22319e-05
-9.06898e-05
-8.09711e-06
-7.6616e-05
-3.25336e-05
-4.88399e-05
-6.4721e-05
1.13079e-06
-0.000111182
4.07808e-05
-0.000170241
4.77994e-05
-0.000203195
6.85951e-05
-0.000248437
8.65177e-05
-0.00026325
9.89673e-05
-0.000250556
0.00010732
-0.000228318
0.000107997
-0.00021615
0.000102781
-0.000196763
8.90642e-05
-0.000155514
6.05646e-05
-7.79838e-05
2.3617e-05
-1.16602e-05
-1.52385e-06
-3.94011e-05
0.000121657
-7.11551e-05
0.000104543
-8.21086e-05
5.60189e-05
-7.54815e-05
1.50532e-06
-5.63473e-05
-2.99441e-05
-3.12172e-05
-6.0549e-05
2.092e-05
-0.000117919
5.26506e-05
-0.000172367
5.83013e-05
-0.000208494
7.5611e-05
-0.000254961
9.15789e-05
-0.000265736
0.000103535
-0.000262383
0.000109457
-0.000252563
0.000108808
-0.00024
0.000101377
-0.000203831
8.50488e-05
-0.000114954
5.64435e-05
-2.2683e-05
2.36591e-05
1.72173e-05
1.61773e-05
-3.35055e-05
0.000149473
-6.08096e-05
0.000135165
-5.76135e-05
6.55676e-05
-4.08774e-05
-7.27395e-06
-2.99773e-05
-5.56692e-05
-6.23379e-06
-6.6352e-05
4.05396e-05
-0.000103456
6.1033e-05
-0.000179647
6.50117e-05
-0.000210886
7.95217e-05
-0.000255329
9.37867e-05
-0.000263725
0.000102433
-0.000266056
0.000108377
-0.00026845
0.000107337
-0.000255695
9.21365e-05
-0.000173625
7.34025e-05
-3.25201e-05
5.15938e-05
2.90606e-05
2.52258e-05
4.08381e-05
3.25086e-05
-2.71975e-05
0.000174414
-4.22377e-05
0.000160265
-2.70502e-05
5.83026e-05
-1.35809e-05
-2.60184e-05
-4.28912e-06
-5.87283e-05
4.87126e-06
-7.59351e-05
4.02829e-05
-0.000119905
6.9431e-05
-0.000180548
7.203e-05
-0.000210707
8.42107e-05
-0.000254662
9.67154e-05
-0.000261717
0.000103421
-0.000272882
0.000107417
-0.00028178
9.88995e-05
-0.000263445
8.25559e-05
-0.000110184
6.43716e-05
2.36635e-05
4.57788e-05
6.03116e-05
2.05168e-05
6.01356e-05
4.95098e-05
-1.88399e-05
0.000186074
-2.02281e-05
0.00014623
-4.62114e-06
2.35967e-05
1.02566e-05
-2.27057e-05
-1.20839e-05
-7.84156e-06
2.65748e-05
-7.15584e-05
4.77906e-05
-9.32466e-05
7.47457e-05
-0.000158334
7.70387e-05
-0.000205737
8.70919e-05
-0.000250558
9.86495e-05
-0.000265573
0.000107233
-0.000269136
0.000109014
-0.000271245
9.60617e-05
-0.000269327
7.80768e-05
-6.59923e-05
5.93384e-05
5.44358e-05
4.04197e-05
8.11538e-05
1.78113e-05
7.96324e-05
6.6807e-05
-4.37754e-06
0.00011114
-5.32136e-06
8.97202e-05
8.82937e-06
1.96872e-05
-7.07187e-06
2.20089e-05
-3.32485e-06
1.82571e-05
2.60262e-05
-1.65291e-05
4.47465e-05
-3.67497e-05
7.98018e-05
-0.000130542
8.27363e-05
-0.000199999
8.90012e-05
-0.000247441
0.0001009
-0.000260823
0.000107541
-0.000260922
0.000105225
-0.000265624
8.61522e-05
-0.000274613
6.71387e-05
-3.52363e-05
5.55159e-05
8.26285e-05
4.12229e-05
9.89796e-05
1.94097e-05
0.000101503
8.5182e-05
9.67302e-05
6.26312e-05
8.11794e-05
6.17766e-05
6.75282e-05
7.1754e-05
6.80924e-05
0.000101543
5.51322e-05
0.000129316
3.52534e-05
0.000149081
3.94425e-06
0.000144431
0.000104352
4.42143e-05
4.0638e-05
3.93581e-05
3.08546e-05
4.69004e-05
8.39155e-06
-2.66654e-06
4.5077e-05
6.5138e-05
3.62551e-05
6.65993e-05
2.90328e-05
6.07913e-05
2.21521e-05
7.40286e-06
5.22739e-05
7.52649e-05
3.01955e-05
7.73731e-05
2.65509e-05
7.84006e-05
2.29197e-05
1.2618e-05
7.57342e-05
9.92761e-05
3.10882e-05
9.97239e-05
2.74591e-05
0.000100524
2.44922e-05
1.90042e-05
9.67978e-05
0.000128378
2.8605e-05
0.000129339
2.88695e-05
0.000131802
2.91636e-05
2.61686e-05
0.000131166
0.000148711
2.34783e-05
0.000149981
2.47308e-05
0.000153943
2.73861e-05
2.81673e-05
0.000156141
0.00014989
1.41165e-05
0.000151715
1.66928e-05
0.000155456
2.13305e-05
2.6445e-05
0.000161982
0.000127283
-2.81508e-06
0.000139112
2.67635e-06
0.000146024
6.94e-06
1.8373e-05
0.000156859
7.77751e-05
-9.62816e-06
9.36284e-05
-5.93127e-06
0.000113015
-3.98258e-06
3.94677e-06
0.000132991
5.04046e-05
-2.46584e-05
5.46636e-05
-1.46847e-05
6.1632e-05
-1.11113e-05
-5.1631e-06
7.64682e-05
6.99567e-05
-5.89035e-05
7.47352e-05
-5.19704e-05
8.10433e-05
-4.94498e-05
-4.63543e-05
4.0124e-05
0.000105525
-9.93465e-06
9.05088e-05
-1.68931e-05
8.37452e-05
-2.43029e-05
-2.52367e-05
7.89263e-05
2.79352e-05
-1.13117e-05
3.72143e-05
-1.39426e-05
3.95303e-05
-1.51773e-05
-1.61524e-05
4.22593e-05
-4.98523e-05
-6.38912e-06
-5.26068e-05
-1.11874e-05
-5.792e-05
-9.86335e-06
-1.04697e-05
-6.36019e-05
-3.32796e-05
-9.83134e-06
-3.51218e-05
-9.34471e-06
-3.72558e-05
-7.72861e-06
-7.35417e-06
-4.03709e-05
-5.04038e-05
-8.26341e-06
-5.16366e-05
-8.11148e-06
-5.16233e-05
-7.74143e-06
-7.58228e-06
-5.13946e-05
-4.62419e-05
-4.54658e-05
-4.51863e-05
-4.53154e-05
4.82461e-05
3.51861e-05
3.89758e-05
4.56234e-05
3.41551e-05
4.24343e-05
3.43007e-05
3.67173e-05
5.75549e-05
3.86296e-05
0.000122727
8.5643e-06
0.000184153
-3.948e-05
0.000176737
-0.000113545
0.000181067
-0.000194295
0.000200063
-0.000238519
0.000216406
-0.000244365
0.000219999
-0.000234063
0.000220933
-0.000235897
0.000158368
-0.000270743
0.000111208
-2.03843e-05
9.49557e-05
9.68749e-05
7.59533e-05
0.000127652
3.69596e-05
0.000133387
0.00011416
6.45182e-05
2.15484e-05
6.44021e-05
3.15744e-05
5.62888e-05
3.11261e-05
5.43444e-05
2.86956e-05
8.27509e-05
9.00397e-06
0.00014009
-1.30203e-05
0.000174379
-4.32231e-05
0.000176677
-0.000117404
0.000189183
-0.000189281
0.000208322
-0.000224535
0.000224014
-0.000221812
0.000221794
-0.000209604
0.00022739
-0.000227355
0.000150137
-0.000162344
0.000104328
2.13099e-05
6.96071e-05
6.25337e-05
6.01157e-05
0.000144276
3.17576e-05
0.000162878
0.000145157
8.53213e-05
1.67608e-05
9.7288e-05
1.51737e-05
0.000102047
1.65062e-05
9.8567e-05
1.41479e-05
0.000116051
-7.70575e-06
0.000148746
-3.85078e-05
0.000166596
-7.26893e-05
0.000179507
-0.000127826
0.000197545
-0.000184462
0.000221243
-0.00020575
0.000234104
-0.000193873
0.000236197
-0.000189188
0.000197729
-0.000171612
0.000107759
8.90463e-05
4.95515e-05
0.000106363
5.81425e-05
2.02125e-05
4.85615e-05
0.000142896
3.08488e-05
0.000174132
0.000170643
9.61104e-05
2.44263e-05
0.000104279
1.34765e-05
0.000113031
7.52252e-06
0.000123765
-4.49694e-07
0.000138724
-2.58923e-05
0.000157159
-5.48153e-05
0.00017424
-8.34402e-05
0.000192862
-0.000131205
0.000212849
-0.000175935
0.000230239
-0.000182103
0.000227564
-0.0001722
0.000195548
-0.000170735
0.000108325
-5.75598e-05
7.85566e-05
0.00024997
6.82923e-05
0.00017302
3.231e-05
4.26441e-05
3.50963e-05
0.000119561
2.22975e-05
0.000180759
0.000190735
0.000121073
4.31421e-05
0.000117855
2.33056e-05
0.000124743
1.01381e-05
0.000138033
-4.5865e-06
0.000153352
-3.2185e-05
0.000169407
-5.71252e-05
0.000187091
-8.61165e-05
0.000205021
-0.000133346
0.000222123
-0.000159073
0.000231095
-0.000155127
0.000224437
-0.000144823
0.000143255
-0.000146135
7.39568e-05
4.19382e-05
7.89514e-05
0.000232849
7.20403e-05
0.000257119
3.32538e-05
7.83457e-05
2.53725e-05
8.75524e-05
1.42571e-05
0.000187331
0.000203122
0.000147261
5.85439e-05
0.000139051
3.86365e-05
0.000141331
1.78015e-05
0.000151018
-1.5059e-06
0.000165201
-3.13768e-05
0.00018148
-5.64364e-05
0.000199516
-8.95994e-05
0.000215089
-0.000126358
0.000227573
-0.000133438
0.000227859
-0.000124876
0.000214802
-0.000126736
0.000118234
-4.06581e-05
2.10658e-05
7.90059e-05
4.9585e-05
0.000184893
7.09596e-05
0.000275074
3.93633e-05
0.0001226
2.01275e-05
7.7828e-05
1.28486e-05
0.000184176
0.000208875
0.000162026
6.03731e-05
0.000158035
4.77571e-05
0.000159009
2.54568e-05
0.000166994
-2.56461e-07
0.000179563
-2.94746e-05
0.000195882
-5.53098e-05
0.000209906
-8.71513e-05
0.000221945
-0.000109622
0.000224124
-0.000107161
0.000220964
-0.000108471
0.000128226
-7.16152e-05
6.84004e-06
6.00774e-05
3.55485e-06
8.29134e-05
4.80788e-05
0.000117396
7.61554e-05
0.000253209
5.25992e-05
0.00017152
2.35262e-05
8.15796e-05
1.14526e-05
0.000192915
0.000223825
0.000163274
5.29845e-05
0.000161732
4.59105e-05
0.000167217
2.74031e-05
0.000177495
-1.68991e-06
0.000190298
-2.68182e-05
0.000201939
-5.10932e-05
0.000213537
-8.21556e-05
0.000216765
-9.43101e-05
0.000209849
-9.84205e-05
0.000156627
-7.94346e-05
3.06452e-05
2.31101e-05
-1.47074e-05
6.77081e-05
-1.77458e-06
7.32053e-05
3.31001e-05
8.31204e-05
5.93211e-05
0.000223173
5.53884e-05
0.000204739
4.11867e-05
0.000113351
1.30728e-05
0.000208998
0.000242704
0.000156824
4.34677e-05
0.000158731
3.8111e-05
0.000166477
2.06682e-05
0.000180164
-5.41587e-06
0.000189672
-2.54545e-05
0.000199568
-5.19684e-05
0.000204822
-8.16179e-05
0.000197993
-0.000110905
0.000160888
-8.04601e-05
4.86802e-05
-6.33053e-06
-2.33074e-05
5.02781e-05
-1.95076e-05
6.29362e-05
-9.11603e-06
7.02085e-05
1.89363e-06
8.4874e-05
3.59865e-05
0.000183553
5.33872e-05
0.000201014
4.85301e-05
0.000163223
1.82233e-05
0.000224253
0.00025925
0.000139114
1.63223e-05
0.000152697
1.93997e-05
0.000160922
2.37077e-06
0.000171258
-2.83538e-05
0.000188223
-5.57778e-05
0.000202535
-6.68619e-05
0.000192751
-5.72985e-05
0.000122362
-7.35817e-05
1.24401e-05
-9.24659e-06
-2.16884e-05
3.27954e-05
-2.75147e-05
4.91435e-05
-1.91366e-05
6.27264e-05
-8.58664e-06
6.24661e-05
-3.43289e-06
8.37026e-05
3.87045e-05
0.000140331
6.09351e-05
0.00018532
3.1271e-05
0.000197298
2.19729e-05
0.000238566
0.000272666
0.000110633
-2.71447e-05
0.000146383
-2.65511e-05
0.000143188
-2.87575e-05
0.000146271
-3.7998e-05
0.000118815
-7.10671e-05
7.09445e-05
-6.84698e-05
-3.88956e-05
1.23216e-05
-4.10588e-05
2.25837e-05
-3.83873e-05
2.45095e-05
-3.00013e-05
3.58222e-05
-2.37696e-05
4.65284e-05
-1.56073e-05
5.75535e-05
-4.40958e-06
5.13854e-05
4.69617e-06
7.46225e-05
4.15955e-05
0.000102463
5.47979e-05
0.000173373
2.7707e-05
0.000235208
2.05427e-05
0.000245242
0.000283086
8.20711e-05
-6.39533e-05
0.00011801
-5.76791e-05
0.00010164
-7.15313e-05
8.21782e-05
-5.98912e-05
-2.64943e-06
6.96971e-06
-3.5928e-05
1.35607e-05
-3.46648e-05
1.48843e-05
-3.46454e-05
2.27725e-05
-3.2737e-05
3.05853e-05
-2.71958e-05
3.75395e-05
-1.96309e-05
3.96618e-05
-1.11749e-05
4.91086e-05
2.67338e-07
3.99608e-05
1.02682e-05
6.46019e-05
4.10155e-05
7.14256e-05
4.44351e-05
0.000170108
2.26051e-05
0.000272496
1.61751e-05
0.000243318
0.000291919
1.99475e-05
-2.73098e-05
-7.18435e-06
7.98262e-06
-3.37751e-05
1.57661e-05
-2.87885e-05
1.79928e-05
-2.5597e-05
2.26705e-05
-3.16233e-05
1.95556e-05
-3.49819e-05
1.85179e-05
-3.31512e-05
2.15762e-05
-2.86316e-05
2.70161e-05
-2.26485e-05
3.15956e-05
-1.63721e-05
3.34042e-05
-8.25791e-06
4.09746e-05
1.45275e-06
3.02537e-05
1.19791e-05
5.40748e-05
3.85517e-05
4.48195e-05
3.19074e-05
0.000176766
2.11474e-05
0.000298662
1.32927e-05
0.000238761
0.000301602
-6.77037e-05
-2.32067e-05
-5.00698e-05
-9.63274e-06
-4.06337e-05
7.21012e-06
-3.9355e-05
1.87647e-05
-3.50592e-05
1.8502e-05
-3.18868e-05
1.63815e-05
-3.03802e-05
1.70062e-05
-2.84434e-05
1.96361e-05
-2.47016e-05
2.3268e-05
-1.93858e-05
2.62699e-05
-1.39736e-05
2.79937e-05
-6.27879e-06
3.32791e-05
6.52547e-07
2.33236e-05
1.05013e-05
4.42268e-05
2.7463e-05
2.78575e-05
1.62099e-05
0.000188029
2.23185e-05
0.000307247
1.25923e-05
0.000237069
0.000311367
-4.90197e-05
-1.45574e-05
-5.44022e-05
-4.24945e-06
-5.13436e-05
4.15272e-06
-4.12358e-05
8.65708e-06
-3.48944e-05
1.216e-05
-3.12507e-05
1.27387e-05
-2.85518e-05
1.43076e-05
-2.55547e-05
1.66396e-05
-2.17942e-05
1.95072e-05
-1.70254e-05
2.15017e-05
-1.24788e-05
2.34476e-05
-5.33142e-06
2.61329e-05
-1.98122e-06
1.9974e-05
7.92812e-06
3.43185e-05
1.2386e-05
2.34005e-05
1.26956e-05
0.000187719
2.00432e-05
0.000302501
1.35664e-05
0.000242932
0.000320143
-5.05002e-05
-1.54513e-05
-4.67974e-05
-7.95177e-06
-4.24781e-05
-1.661e-07
-3.812e-05
4.299e-06
-3.34249e-05
7.46556e-06
-2.98963e-05
9.2101e-06
-2.65498e-05
1.09622e-05
-2.33445e-05
1.34344e-05
-1.96058e-05
1.57698e-05
-1.52202e-05
1.71165e-05
-1.12676e-05
1.94965e-05
-5.20467e-06
2.00706e-05
-3.2453e-06
1.80157e-05
6.87856e-06
2.41961e-05
5.41329e-06
2.48657e-05
2.62377e-05
0.000166892
3.14975e-05
0.000284516
1.70351e-05
0.000260157
0.000332036
-4.64567e-05
-4.51015e-05
-4.14329e-05
-3.6171e-05
-3.17437e-05
-2.80626e-05
-2.46337e-05
-2.13919e-05
-1.77416e-05
-1.37272e-05
-1.01368e-05
-4.67459e-06
-2.88253e-06
5.58216e-06
6.25746e-06
3.23735e-05
5.27707e-05
2.57996e-05
)
;

boundaryField
{
    leftWall
    {
        type            fixedValue;
        value           nonuniform 0();
    }
    rightWall
    {
        type            fixedValue;
        value           uniform 0;
    }
    lowerWall
    {
        type            fixedValue;
        value           uniform 0;
    }
    atmosphere
    {
        type            calculated;
        value           nonuniform 0();
    }
    defaultFaces
    {
        type            empty;
        value           nonuniform 0();
    }
    procBoundary1to0
    {
        type            processor;
        value           nonuniform List<scalar> 
26
(
-8.73458e-06
-1.15497e-05
-1.22556e-05
-9.68798e-06
-1.37728e-05
-1.49238e-05
-2.04003e-05
-1.83659e-05
-4.98428e-05
-5.13064e-05
-7.25173e-05
-0.000111177
-0.000142247
-0.000140115
-0.000111221
-5.92461e-05
-1.8538e-05
-5.66867e-05
-4.7629e-05
-6.82175e-05
-0.000127252
-1.86505e-05
4.49302e-05
3.67221e-05
4.88362e-05
4.7811e-05
)
;
    }
    procBoundary1to3
    {
        type            processor;
        value           nonuniform List<scalar> 
23
(
-9.83191e-06
-8.88739e-06
-8.02036e-06
-7.45293e-06
-1.43092e-05
-9.30643e-06
-3.83415e-06
-9.62058e-07
3.03852e-06
5.5301e-06
7.53359e-06
1.0194e-05
1.21199e-05
1.31036e-05
1.59067e-05
1.46099e-05
1.62245e-05
1.57334e-05
2.41907e-05
0.000140778
0.000261672
0.000289138
0.000350809
)
;
    }
}


// ************************************************************************* //
