/*--------------------------------*- C++ -*----------------------------------*\
| =========                 |                                                 |
| \\      /  F ield         | OpenFOAM: The Open Source CFD Toolbox           |
|  \\    /   O peration     | Version:  2.4.0                                 |
|   \\  /    A nd           | Web:      www.OpenFOAM.org                      |
|    \\/     M anipulation  |                                                 |
\*---------------------------------------------------------------------------*/
FoamFile
{
    version     2.0;
    format      ascii;
    class       volScalarField;
    location    "0.35";
    object      rho;
}
// * * * * * * * * * * * * * * * * * * * * * * * * * * * * * * * * * * * * * //

dimensions      [1 -3 0 0 0 0 0];

internalField   nonuniform List<scalar> 
559
(
13528.4
13528.3
13528.3
13528.1
13528.1
13528
13527.6
13527.4
501.862
502.379
502.835
503.58
504.344
505.728
509.78
528.161
618.855
942.06
1163.24
1162.98
1163.37
1159.02
1158.9
1081.04
833.104
631.717
523.225
501.309
500.792
500.636
500.52
500.463
500.787
502.129
509.38
545.074
667.821
1161.37
1167.99
1161.24
1163.59
956.539
618.95
536.925
511.626
496.912
500.643
500.363
500.34
500.359
500.441
500.766
502.143
511.341
565.983
746.045
990.338
1164.77
1168.28
1012.28
648.779
526.01
506.637
501.443
444.697
500.384
500.247
500.241
500.23
500.257
500.595
501.58
511.735
580.936
803.217
1077.35
1171.51
1090.75
709.775
544.44
507.643
503.09
500.754
442.897
500.314
500.23
500.174
499.693
493.477
491.385
500.628
511.878
611.953
872.422
1166.45
1143.55
837.293
577.261
510.975
502.188
501.516
480.824
442.921
500.262
500.209
499.768
453.272
196.183
222.632
441.868
507.884
661.102
947.633
1240.95
1063.45
630.323
525.371
502.914
501.29
501.037
469.325
468.606
500.242
500.164
498.336
97.6164
1.65115
1.66401
74.6037
445.639
708.54
1049.72
1249.4
604.005
114.479
416.873
499.999
501.136
500.93
469.27
493.257
500.204
500.037
386.331
5.3733
1.47729
1.47737
3.8761
283.655
754.579
1172.02
1228.82
556.858
73.6281
133.914
485.882
500.723
500.336
489.726
498.954
13448.1
12031.7
7183.72
2552.68
1153.23
1016.75
773.713
544.609
13265.1
5690.25
632.022
759.072
13138
11961.8
8255.79
5152.81
10680.4
11190.2
10821
9873.77
4597.95
6144.03
7493.28
8224.73
1453.87
1896.67
2648.77
3696.31
1134.05
1270.93
1436.05
1685.41
860.316
926.112
1015.33
1171.53
598.887
659.153
735.576
838.391
509.027
526.837
561.258
618.642
492.015
495.316
500.863
509.857
268.987
314.944
342.017
382.42
1.58582
3.10244
5.81314
9.37553
1.00023
1.00016
1.0001
1.00006
1.00007
1.00002
1.00002
1.00002
1.00003
1.00001
1.00001
1.00001
1.00001
1.00001
1
1
1
1
1
1
668.966
516.689
308.64
16.9335
1.47955
1.48481
7.72785
315.69
896.929
1275.74
1266.36
675.685
90.6333
15.2871
315.424
494.995
500.014
499.48
499.911
2171.66
725.067
564.665
194.125
22.9401
25.7304
174.079
831.938
1253.42
1340.83
1181.84
321.443
24.3497
1.87988
37.422
467.262
499.706
500.23
500.035
5738.88
1831.8
1315.55
750.357
412.332
515.752
982.242
1343.69
1400.36
1394.92
752.271
75.0584
2.29425
1.02075
1.4626
240.159
492.358
500.148
500.038
7487.44
4531.55
2439.87
1301.26
1375.58
1498.68
1659.54
1629.31
1502.24
1380.97
459.04
25.335
1.05295
1.00198
1.00247
28.0804
475.806
500.014
500.029
5232.23
5144.96
4231.81
3162.01
2749.86
2497.74
2150.42
1777.49
1565.94
953.065
158.393
4.24827
1.00586
1.00323
1.00207
6.32274
450.522
499.741
500.019
2648.55
4029.87
4106.22
3781.61
3254.12
2675.91
2035.28
1627.07
1214.03
363.276
24.6367
1.12352
1.00533
1.00403
1.00213
1.06428
312.491
497.313
500.009
1725.79
2546.84
3181.45
3117.12
2762.92
2120.41
1484.61
1168.29
576.544
76.1958
2.16561
1.00466
1.00284
1.00288
1.00204
1.00174
75.1969
487.425
499.982
1183.7
1749.67
2134.74
2004.39
1620.18
1171.53
932.569
586.77
124.896
5.65783
1.00918
1.00257
1.00115
1.00144
1.00184
1.00175
5.14189
453.82
499.739
796.192
1038.3
1116.7
989.737
784.533
660.252
477.564
140.17
7.94442
1.02809
1.00233
1.00105
1.0005
1.00076
1.0016
1.00165
1.05223
371.271
497.844
568.994
617.188
598.101
557.075
485.114
339.546
103.265
6.40622
1.02405
1.00328
1.00071
1.0004
1.00028
1.00051
1.0012
1.00145
1.00186
232.764
490.802
464.749
503.42
497.287
433.651
164.786
10.9857
1.03964
1.00495
1.00191
1.00069
1.00023
1.00017
1.00018
1.00039
1.00084
1.00125
1.00178
195.368
487.868
39.5592
115.952
99.7192
25.4031
1.75276
1.0033
1.00093
1.00048
1.0003
1.00016
1.00009
1.00009
1.00013
1.00032
1.00067
1.00116
1.00174
247.224
489.578
1.00038
1.00341
1.0204
1.04961
1.00616
1.0003
1.00014
1.00012
1.00009
1.00006
1.00004
1.00005
1.00011
1.0003
1.00065
1.00118
1.00175
357.676
494.008
1.00002
1.00002
1.00003
1.00012
1.00031
1.00008
1.00006
1.00005
1.00004
1.00003
1.00002
1.00004
1.0001
1.00029
1.00066
1.00127
1.00178
378.304
496.181
1.00001
1.00001
1.00002
1.00003
1.00005
1.00003
1.00003
1.00002
1.00002
1.00001
1.00001
1.00003
1.00009
1.00028
1.00066
1.00136
1.00179
306.854
494.551
1
1
1.00001
1.00001
1.00001
1.00001
1.00001
1.00001
1.00001
1.00001
1.00001
1.00002
1.00008
1.00026
1.00064
1.0014
1.0018
123.092
483.248
1
1
1
1
1
1
1
1
1
1
1.00001
1.00002
1.00008
1.00024
1.0006
1.00138
1.00188
19.6553
458.71
)
;

boundaryField
{
    leftWall
    {
        type            calculated;
        value           nonuniform 0();
    }
    rightWall
    {
        type            calculated;
        value           nonuniform List<scalar> 
25
(
523.225
496.912
444.697
442.897
442.921
468.606
493.257
498.954
499.911
500.035
500.038
500.029
500.019
500.009
499.982
499.739
497.844
490.802
487.868
489.578
494.008
496.181
494.551
483.248
458.71
)
;
    }
    lowerWall
    {
        type            calculated;
        value           nonuniform List<scalar> 
40
(
13528.4
13528.4
13528.3
13528.3
13528.1
13528.1
13528
13527.6
13527.4
13265.1
5690.25
632.022
759.072
501.862
501.309
500.643
500.384
500.314
500.262
500.242
500.204
501.862
502.379
502.835
503.58
504.344
505.728
509.78
528.161
618.855
942.06
1163.24
1162.98
1163.37
1159.02
1158.9
1081.04
833.104
631.717
523.225
)
;
    }
    atmosphere
    {
        type            calculated;
        value           nonuniform 0();
    }
    defaultFaces
    {
        type            empty;
    }
    procBoundary1to0
    {
        type            processor;
        value           nonuniform List<scalar> 
26
(
13528.9
13528.9
13528.9
13528.9
13528.7
13527.5
13507.7
13385.3
11974.1
6819.77
2250.52
1111.77
998.955
927.864
672.842
509.641
502.228
502.228
484.727
202.119
1.11484
1.00025
1.00015
1.00006
1.00003
1.00001
)
;
    }
    procBoundary1to3
    {
        type            processor;
        value           nonuniform List<scalar> 
23
(
1
1
1
0.999999
0.999999
0.999999
0.999999
0.999999
1
1
1
1
1
1
1
1.00002
1.00007
1.00022
1.00057
1.00134
1.00197
3.04198
408.311
)
;
    }
}


// ************************************************************************* //
