/*--------------------------------*- C++ -*----------------------------------*\
| =========                 |                                                 |
| \\      /  F ield         | OpenFOAM: The Open Source CFD Toolbox           |
|  \\    /   O peration     | Version:  2.4.0                                 |
|   \\  /    A nd           | Web:      www.OpenFOAM.org                      |
|    \\/     M anipulation  |                                                 |
\*---------------------------------------------------------------------------*/
FoamFile
{
    version     2.0;
    format      ascii;
    class       volVectorField;
    location    "0.35";
    object      U;
}
// * * * * * * * * * * * * * * * * * * * * * * * * * * * * * * * * * * * * * //

dimensions      [0 1 -1 0 0 0 0];

internalField   nonuniform List<vector> 
559
(
(0.0282695 0.0136153 0)
(0.0361571 0.0804765 0)
(0.0847985 0.143436 0)
(0.0435094 0.208067 0)
(0.0803966 0.257181 0)
(0.0575895 0.350287 0)
(0.127622 0.414424 0)
(0.113526 0.558641 0)
(-0.280087 0.120223 0)
(-0.761049 0.125326 0)
(-1.04867 0.0256741 0)
(-1.20055 0.0302078 0)
(-1.24996 0.0105878 0)
(-1.20247 -0.0151069 0)
(-1.12556 -0.03638 0)
(-0.978701 -0.0636454 0)
(-0.641067 -0.109107 0)
(-0.290578 -0.2043 0)
(0.244904 -0.253001 0)
(0.644186 -0.185423 0)
(0.979374 -0.134157 0)
(1.0248 -0.0850298 0)
(0.973282 -0.0969365 0)
(0.754526 -0.0916819 0)
(0.412084 -0.0555778 0)
(0.0545349 -0.0338727 0)
(0.0193113 -0.0406054 0)
(-0.236748 0.292291 0)
(-0.692506 0.217846 0)
(-1.02114 0.167573 0)
(-1.154 0.0658327 0)
(-1.17928 0.00851539 0)
(-1.08079 -0.0478432 0)
(-1.01303 -0.0575663 0)
(-0.844517 -0.147494 0)
(-0.443857 -0.214519 0)
(-0.134722 -0.222877 0)
(0.394868 -0.25138 0)
(0.811559 -0.192829 0)
(1.0705 -0.0360619 0)
(1.11896 0.0638896 0)
(1.01254 0.172433 0)
(0.687889 0.269734 0)
(0.39406 0.275623 0)
(0.0512929 0.179771 0)
(0.0238938 0.0637037 0)
(-0.271577 0.459406 0)
(-0.678814 0.424501 0)
(-0.975577 0.260127 0)
(-1.07618 0.0993063 0)
(-1.07135 -0.015408 0)
(-0.972143 -0.0803566 0)
(-0.933691 -0.128324 0)
(-0.57593 -0.285237 0)
(-0.259387 -0.403522 0)
(0.143507 -0.460922 0)
(0.593976 -0.53835 0)
(0.943018 -0.406077 0)
(1.17645 -0.190738 0)
(1.17653 0.0335569 0)
(0.985055 0.213227 0)
(0.664043 0.287063 0)
(0.484089 0.301349 0)
(0.166494 0.191445 0)
(0.0744515 0.0198846 0)
(-0.195877 0.664602 0)
(-0.572429 0.563313 0)
(-0.875544 0.330633 0)
(-0.901237 0.0883759 0)
(-0.865229 -0.00983045 0)
(-0.734188 -0.125998 0)
(-0.718451 -0.238996 0)
(-0.342454 -0.452784 0)
(-0.109775 -0.533659 0)
(0.361094 -0.622312 0)
(0.761786 -0.670795 0)
(1.04305 -0.46029 0)
(1.25885 -0.199892 0)
(1.15615 0.127634 0)
(0.97951 0.310537 0)
(0.659245 0.37605 0)
(0.474237 0.382595 0)
(0.203681 0.302193 0)
(0.121007 0.132163 0)
(-0.134674 0.747163 0)
(-0.494456 0.657463 0)
(-0.714872 0.431853 0)
(-0.490347 0.120372 0)
(-0.478445 -0.114664 0)
(-0.379794 -0.176734 0)
(-0.413573 -0.28068 0)
(-0.175345 -0.571855 0)
(0.0767538 -0.740843 0)
(0.50774 -0.829432 0)
(0.829446 -0.868046 0)
(1.04073 -0.649789 0)
(1.20243 -0.120282 0)
(1.14716 0.241862 0)
(0.923991 0.436768 0)
(0.646819 0.493461 0)
(0.496482 0.479337 0)
(0.26751 0.394976 0)
(0.143519 0.203022 0)
(-0.0854988 0.892983 0)
(-0.392946 0.846806 0)
(-0.444803 0.41951 0)
(-0.111216 -0.0904649 0)
(-0.130939 -0.1703 0)
(0.0138181 -0.231631 0)
(0.00492149 -0.338335 0)
(0.0833906 -0.602917 0)
(0.234384 -0.842163 0)
(0.596414 -0.97143 0)
(0.853331 -1.01946 0)
(1.08621 -0.741968 0)
(0.998635 -0.375011 0)
(0.94857 0.246782 0)
(0.84561 0.51665 0)
(0.601336 0.586394 0)
(0.499423 0.55322 0)
(0.247096 0.474838 0)
(0.0800862 0.268064 0)
(-0.0182591 0.941871 0)
(-0.23821 0.851002 0)
(-0.107217 0.219319 0)
(0.391022 -0.0128829 0)
(-0.159229 0.307433 0)
(-0.546551 0.307575 0)
(0.00448687 -0.298602 0)
(0.321844 -0.760218 0)
(0.398568 -0.915961 0)
(0.628506 -1.08438 0)
(0.874368 -1.14903 0)
(1.35407 -0.604495 0)
(1.0784 0.801259 0)
(0.722758 0.247563 0)
(0.732137 0.575357 0)
(0.544057 0.61335 0)
(0.431239 0.621808 0)
(0.20986 0.548191 0)
(0.0753126 0.33267 0)
(0.0750573 0.995708 0)
(-0.0648069 0.90902 0)
(0.218869 0.170281 0)
(-0.384196 0.0269673 0)
(-0.563797 -0.14972 0)
(0.146917 -0.602243 0)
(-1.16999 -0.289478 0)
(0.375251 -0.805373 0)
(0.547758 -1.03521 0)
(0.682453 -1.15917 0)
(0.864545 -1.22852 0)
(1.12549 -0.849998 0)
(1.09068 0.226263 0)
(0.133587 0.336906 0)
(0.63138 0.55813 0)
(0.497295 0.678816 0)
(0.425895 0.674632 0)
(0.243418 0.624484 0)
(0.102777 0.407242 0)
(0.263049 0.595143 0)
(0.293759 0.511035 0)
(0.415706 0.444183 0)
(0.72878 0.56421 0)
(0.991544 0.549902 0)
(0.974673 0.437849 0)
(0.785757 0.24673 0)
(0.477147 -0.0120229 0)
(0.333611 0.512563 0)
(-0.0126157 0.332405 0)
(-0.187597 -0.446871 0)
(-0.0849945 0.170856 0)
(0.338724 0.457815 0)
(0.367799 0.367549 0)
(0.347353 0.285299 0)
(0.192265 0.0433789 0)
(0.410312 0.371162 0)
(0.419126 0.306171 0)
(0.442316 0.250826 0)
(0.41575 0.126274 0)
(0.663855 0.458294 0)
(0.600447 0.352691 0)
(0.58718 0.284341 0)
(0.550941 0.185378 0)
(1.02098 0.529662 0)
(1.0021 0.495599 0)
(0.94597 0.440704 0)
(0.869711 0.342889 0)
(1.05978 0.47852 0)
(1.10235 0.488853 0)
(1.10871 0.479441 0)
(1.10173 0.45733 0)
(0.957845 0.364047 0)
(1.04479 0.428344 0)
(1.08554 0.470888 0)
(1.11116 0.468544 0)
(0.631987 0.0880674 0)
(0.784038 0.207516 0)
(0.885005 0.323921 0)
(0.9858 0.435983 0)
(0.364817 -0.169729 0)
(0.451187 -0.103982 0)
(0.529953 -0.0447528 0)
(0.65384 0.096276 0)
(0.268659 -0.17458 0)
(0.304061 -0.114672 0)
(0.337094 -0.0989578 0)
(0.401031 -0.0674701 0)
(0.367895 -0.389153 0)
(0.365411 -0.345344 0)
(0.411974 -0.340244 0)
(0.43665 -0.311641 0)
(0.680326 0.472968 0)
(0.582205 0.411743 0)
(0.512804 0.306352 0)
(0.463186 0.306783 0)
(0.132761 -0.484968 0)
(0.172473 -0.45358 0)
(0.20463 -0.476534 0)
(0.225325 -0.476171 0)
(-0.254846 0.14676 0)
(-0.271206 0.0352844 0)
(-0.297014 0.0179166 0)
(-0.33476 -0.0129145 0)
(-0.179033 -0.242855 0)
(-0.18231 -0.218104 0)
(-0.197756 -0.172074 0)
(-0.208663 -0.151764 0)
(-0.264843 -0.0299926 0)
(-0.274529 -0.044612 0)
(-0.278529 -0.0495942 0)
(-0.275167 -0.0593418 0)
(-0.247271 -0.126864 0)
(-0.248587 -0.108578 0)
(-0.244395 -0.0968341 0)
(-0.241506 -0.086153 0)
(0.279289 0.944306 0)
(0.228794 0.857531 0)
(0.499797 0.353587 0)
(0.309644 0.244282 0)
(0.165285 0.472931 0)
(0.731725 0.0420234 0)
(0.209731 -0.878125 0)
(0.611582 -0.821082 0)
(0.70341 -1.10986 0)
(0.744109 -1.25782 0)
(0.82134 -1.29807 0)
(0.827213 -1.12753 0)
(1.34648 0.336304 0)
(-0.121186 1.65278 0)
(0.374939 0.462065 0)
(0.421079 0.684005 0)
(0.369313 0.754111 0)
(0.223995 0.730424 0)
(0.099756 0.506302 0)
(0.308991 0.491263 0)
(0.772821 0.620818 0)
(0.845023 0.449019 0)
(0.97186 0.250862 0)
(1.16747 -0.701929 0)
(1.08219 -0.847771 0)
(0.909374 -0.523216 0)
(0.8526 -0.79831 0)
(0.83756 -1.12478 0)
(0.826109 -1.28685 0)
(0.81829 -1.30147 0)
(0.563143 -1.19817 0)
(0.616972 0.842816 0)
(0.413782 1.06772 0)
(-0.451296 0.63963 0)
(0.335644 0.574335 0)
(0.3049 0.807551 0)
(0.19419 0.820801 0)
(0.117218 0.644661 0)
(0.425055 0.164397 0)
(0.740786 0.319169 0)
(0.932512 0.225402 0)
(1.01015 0.179014 0)
(1.03755 -0.0225406 0)
(0.91467 -0.240807 0)
(0.867114 -0.460312 0)
(0.904246 -0.789253 0)
(0.890432 -1.12267 0)
(0.891124 -1.23315 0)
(0.746766 -1.25226 0)
(0.0685686 -1.02491 0)
(0.103554 1.05257 0)
(0.646301 1.3916 0)
(-0.567567 0.75753 0)
(0.189727 0.248007 0)
(0.261696 0.813303 0)
(0.178413 0.893856 0)
(0.124851 0.784498 0)
(0.518629 0.114498 0)
(0.584212 0.122197 0)
(0.718543 0.141096 0)
(0.868473 0.0914508 0)
(0.908521 -0.118231 0)
(0.905293 -0.309954 0)
(0.928897 -0.506156 0)
(0.963613 -0.824803 0)
(0.982248 -1.09099 0)
(0.956902 -1.15193 0)
(0.768371 -1.16642 0)
(0.255773 -0.44658 0)
(0.0528042 0.60911 0)
(0.57016 1.53315 0)
(0.378765 0.580626 0)
(-0.361721 0.53678 0)
(0.21614 0.76564 0)
(0.129605 0.922602 0)
(0.0772428 0.905979 0)
(0.741785 0.193245 0)
(0.673059 0.1049 0)
(0.69697 0.0540981 0)
(0.765351 -0.0142293 0)
(0.835371 -0.175167 0)
(0.88729 -0.336514 0)
(0.949997 -0.52643 0)
(1.00796 -0.839526 0)
(1.03046 -1.03947 0)
(0.938888 -1.10233 0)
(0.623897 -1.04624 0)
(0.273833 -0.0188699 0)
(0.0538929 0.543833 0)
(0.349794 1.46108 0)
(0.731444 1.05692 0)
(-0.853707 0.401301 0)
(0.220408 0.595027 0)
(0.0808436 0.9824 0)
(0.0598616 1.00174 0)
(1.01852 0.349121 0)
(0.847843 0.176832 0)
(0.809484 0.0619944 0)
(0.831315 -0.038057 0)
(0.875183 -0.206596 0)
(0.938891 -0.359406 0)
(1.01591 -0.604777 0)
(1.05579 -0.877019 0)
(1.05885 -1.00301 0)
(0.90208 -1.07625 0)
(0.366039 -0.552006 0)
(0.0977452 0.301344 0)
(0.0216946 0.565556 0)
(0.000234374 1.18349 0)
(0.733373 1.41757 0)
(-0.389179 0.450891 0)
(0.194156 0.421795 0)
(0.078876 1.01996 0)
(0.0602568 1.07021 0)
(1.10226 0.42612 0)
(1.02425 0.276873 0)
(0.952388 0.101122 0)
(0.936249 -0.0662862 0)
(0.984806 -0.248918 0)
(1.03956 -0.437509 0)
(1.09934 -0.678455 0)
(1.10293 -0.853413 0)
(1.04182 -0.932352 0)
(0.738327 -0.929277 0)
(0.124673 0.0291302 0)
(-0.108042 0.441997 0)
(-0.0411678 0.555162 0)
(0.0249938 0.773101 0)
(0.660587 1.37071 0)
(0.318821 0.751755 0)
(-0.0124423 0.428365 0)
(0.0905855 1.03878 0)
(0.0346423 1.12863 0)
(1.06216 0.434935 0)
(1.05333 0.342921 0)
(1.03691 0.150547 0)
(1.06544 -0.073989 0)
(1.11079 -0.279958 0)
(1.14115 -0.485126 0)
(1.14458 -0.701936 0)
(1.08484 -0.82662 0)
(0.924374 -0.910895 0)
(0.258664 -0.221346 0)
(-0.160415 0.358744 0)
(-0.136677 0.439711 0)
(-0.061655 0.476592 0)
(0.0245046 0.551445 0)
(0.362577 1.26012 0)
(0.487331 0.927286 0)
(-0.222267 0.707904 0)
(0.124671 1.03548 0)
(0.017998 1.17453 0)
(0.885681 0.29711 0)
(0.990897 0.282117 0)
(1.06017 0.110677 0)
(1.1156 -0.153651 0)
(1.15014 -0.324574 0)
(1.17906 -0.515604 0)
(1.13543 -0.659039 0)
(1.00005 -0.741728 0)
(0.333398 -0.327968 0)
(-0.231104 0.257746 0)
(-0.193043 0.355401 0)
(-0.14258 0.390669 0)
(-0.0904189 0.381491 0)
(-0.0236413 0.44454 0)
(0.0291283 1.01917 0)
(0.504847 0.992147 0)
(-0.0687987 0.744552 0)
(0.16651 1.07257 0)
(0.0192061 1.2354 0)
(0.576631 0.12183 0)
(0.762193 0.185742 0)
(0.900264 0.0817018 0)
(0.961678 -0.106987 0)
(1.02735 -0.35618 0)
(1.10643 -0.507269 0)
(0.961933 -0.549773 0)
(0.346409 -0.0708254 0)
(-0.177704 0.191439 0)
(-0.226248 0.270973 0)
(-0.17135 0.299384 0)
(-0.128435 0.343031 0)
(-0.0846002 0.331463 0)
(-0.0126205 0.422552 0)
(-0.0197948 0.768798 0)
(0.494413 0.956975 0)
(0.102396 0.862208 0)
(0.144666 1.13658 0)
(0.0322039 1.30854 0)
(0.535196 -0.145663 0)
(0.707497 -0.0684048 0)
(0.79741 -0.1285 0)
(0.823644 -0.346415 0)
(0.807519 -0.470112 0)
(0.451253 -0.0987827 0)
(-0.200115 0.141535 0)
(-0.273927 0.174069 0)
(-0.251795 0.195911 0)
(-0.218069 0.234294 0)
(-0.137335 0.246049 0)
(-0.111286 0.297862 0)
(-0.0646488 0.272682 0)
(0.0232508 0.382146 0)
(0.0189553 0.565797 0)
(0.467306 0.864081 0)
(0.0540496 1.0152 0)
(0.0965928 1.19027 0)
(0.0426783 1.36519 0)
(0.497669 0.0312406 0)
(0.604727 -0.12788 0)
(0.602486 -0.0445421 0)
(0.53119 0.276117 0)
(-0.0387848 0.229573 0)
(-0.17779 0.0565166 0)
(-0.182575 0.0279194 0)
(-0.201061 0.0864713 0)
(-0.178917 0.15164 0)
(-0.177169 0.196859 0)
(-0.105805 0.207835 0)
(-0.0966517 0.259336 0)
(-0.03621 0.220243 0)
(0.0428522 0.337239 0)
(0.0445203 0.4084 0)
(0.448155 0.82314 0)
(-0.0449984 1.22931 0)
(0.0861015 1.19795 0)
(0.0353035 1.40754 0)
(0.189139 -0.327979 0)
(0.050308 0.0733939 0)
(-0.164468 0.151753 0)
(-0.187062 0.0960299 0)
(-0.144867 0.0865096 0)
(-0.1523 0.104192 0)
(-0.180805 0.109704 0)
(-0.191473 0.119428 0)
(-0.156229 0.143859 0)
(-0.158905 0.166134 0)
(-0.0773298 0.176326 0)
(-0.0924661 0.217966 0)
(-0.00890931 0.167556 0)
(0.0334327 0.286263 0)
(0.064374 0.267723 0)
(0.411525 0.822822 0)
(-0.131989 1.41885 0)
(0.115478 1.16739 0)
(0.0118834 1.4517 0)
(-0.371219 -0.0420034 0)
(-0.311805 -0.0484759 0)
(-0.234337 0.0152661 0)
(-0.218274 0.109033 0)
(-0.198292 0.111173 0)
(-0.176683 0.0812766 0)
(-0.165001 0.0804891 0)
(-0.16652 0.1003 0)
(-0.130903 0.122278 0)
(-0.142556 0.14017 0)
(-0.0569456 0.148956 0)
(-0.0944384 0.179923 0)
(0.0163897 0.12768 0)
(-0.00332233 0.238796 0)
(0.0846124 0.165287 0)
(0.265135 0.895561 0)
(-0.135323 1.49613 0)
(0.132097 1.14537 0)
(-0.00732349 1.50168 0)
(-0.249775 -0.110848 0)
(-0.291376 -0.00789321 0)
(-0.285934 0.0471609 0)
(-0.243829 0.0617421 0)
(-0.204463 0.0755495 0)
(-0.175182 0.0724151 0)
(-0.158187 0.0783455 0)
(-0.152805 0.0875919 0)
(-0.113278 0.104133 0)
(-0.130588 0.115381 0)
(-0.04151 0.124647 0)
(-0.0998736 0.143555 0)
(0.0370569 0.103281 0)
(-0.0497457 0.190149 0)
(0.109364 0.118758 0)
(0.0604465 0.932036 0)
(0.0393077 1.50339 0)
(0.125612 1.14915 0)
(-0.0111031 1.54663 0)
(-0.276738 -0.0680221 0)
(-0.262519 -0.0469227 0)
(-0.241818 -0.000614039 0)
(-0.215556 0.0306205 0)
(-0.190275 0.046311 0)
(-0.16912 0.053457 0)
(-0.149237 0.0621009 0)
(-0.140383 0.0737344 0)
(-0.101243 0.0857779 0)
(-0.120455 0.0935632 0)
(-0.0305505 0.104303 0)
(-0.101332 0.111086 0)
(0.0509524 0.0921394 0)
(-0.0822355 0.140856 0)
(0.140697 0.117596 0)
(-0.0649647 0.866852 0)
(0.333944 1.43896 0)
(0.0948365 1.20498 0)
(-0.00930148 1.59561 0)
(-0.249234 -0.061346 0)
(-0.246502 -0.0308114 0)
(-0.233632 -0.001725 0)
(-0.205306 0.00612774 0)
(-0.182929 0.0242287 0)
(-0.159864 0.0359715 0)
(-0.139494 0.0446927 0)
(-0.129079 0.0574372 0)
(-0.0913301 0.0678536 0)
(-0.111241 0.0730737 0)
(-0.0223092 0.0860573 0)
(-0.0998323 0.0831182 0)
(0.058726 0.0833184 0)
(-0.09591 0.0952329 0)
(0.162252 0.119284 0)
(-0.0992147 0.744211 0)
(0.478733 1.32656 0)
(0.0347326 1.3888 0)
(-0.00335852 1.66889 0)
)
;

boundaryField
{
    leftWall
    {
        type            calculated;
        value           nonuniform 0();
    }
    rightWall
    {
        type            calculated;
        value           uniform (0 0 0);
    }
    lowerWall
    {
        type            calculated;
        value           uniform (0 0 0);
    }
    atmosphere
    {
        type            calculated;
        value           nonuniform 0();
    }
    defaultFaces
    {
        type            empty;
    }
    procBoundary1to0
    {
        type            processor;
        value           nonuniform List<vector> 
26
(
(0.171305 0.0369745 0)
(0.221271 0.100402 0)
(0.190205 0.148294 0)
(0.174674 0.206518 0)
(0.228421 0.282095 0)
(0.269323 0.356223 0)
(0.31979 0.42561 0)
(0.287007 0.490328 0)
(0.286591 0.490745 0)
(0.288876 0.442572 0)
(0.478446 0.494896 0)
(0.803829 0.59184 0)
(0.871424 0.454147 0)
(0.799789 0.310158 0)
(0.588666 0.164377 0)
(0.303531 -0.0415996 0)
(0.281823 -0.160084 0)
(0.281823 -0.160084 0)
(0.225775 -0.191252 0)
(0.349922 -0.383247 0)
(0.831149 0.350673 0)
(0.0836456 -0.558083 0)
(-0.203657 0.117099 0)
(-0.222861 -0.245207 0)
(-0.255918 -0.0611992 0)
(-0.26892 -0.152438 0)
)
;
    }
    procBoundary1to3
    {
        type            processor;
        value           nonuniform List<vector> 
23
(
(-0.22078 -0.119173 0)
(-0.21936 -0.114092 0)
(-0.216524 -0.102943 0)
(-0.213005 -0.0964059 0)
(-0.217155 -0.079048 0)
(-0.212819 -0.0548509 0)
(-0.198021 -0.0311344 0)
(-0.17957 -0.0138504 0)
(-0.168641 0.00639947 0)
(-0.149457 0.017963 0)
(-0.129097 0.0285146 0)
(-0.118687 0.0419276 0)
(-0.0835777 0.0501888 0)
(-0.102001 0.0545085 0)
(-0.0167831 0.0693065 0)
(-0.0963951 0.0578425 0)
(0.0623833 0.074728 0)
(-0.09986 0.0553592 0)
(0.169259 0.108099 0)
(-0.0987986 0.606765 0)
(0.546175 1.20216 0)
(-0.00659204 1.59642 0)
(0.0103062 1.7783 0)
)
;
    }
}


// ************************************************************************* //
