/*--------------------------------*- C++ -*----------------------------------*\
| =========                 |                                                 |
| \\      /  F ield         | OpenFOAM: The Open Source CFD Toolbox           |
|  \\    /   O peration     | Version:  2.4.0                                 |
|   \\  /    A nd           | Web:      www.OpenFOAM.org                      |
|    \\/     M anipulation  |                                                 |
\*---------------------------------------------------------------------------*/
FoamFile
{
    version     2.0;
    format      ascii;
    class       volVectorField;
    location    "0.35";
    object      U.mercury;
}
// * * * * * * * * * * * * * * * * * * * * * * * * * * * * * * * * * * * * * //

dimensions      [0 1 -1 0 0 0 0];

internalField   nonuniform List<vector> 
559
(
(0.0282696 0.0136141 0)
(0.0361572 0.0804751 0)
(0.0847987 0.143434 0)
(0.0435096 0.208064 0)
(0.0803969 0.257179 0)
(0.0575897 0.350284 0)
(0.127622 0.41442 0)
(0.113526 0.558633 0)
(-0.641593 -0.0823003 0)
(-1.06712 -0.202158 0)
(-1.13829 -0.309539 0)
(-1.08872 -0.365929 0)
(-0.966297 -0.411133 0)
(-0.771262 -0.493927 0)
(-0.523541 -0.599394 0)
(-0.125269 -0.748825 0)
(0.175869 -0.898455 0)
(0.350087 -1.03732 0)
(0.63162 -1.05077 0)
(0.772236 -0.94819 0)
(1.00572 -0.926786 0)
(1.06021 -0.843633 0)
(1.11853 -0.810722 0)
(1.09424 -0.793178 0)
(1.02512 -0.779882 0)
(0.900947 -0.764221 0)
(0.770251 -0.711786 0)
(-0.496304 0.0765086 0)
(-0.94661 0.0374182 0)
(-1.13167 -0.012067 0)
(-1.17304 -0.100899 0)
(-1.10294 -0.167713 0)
(-0.890911 -0.289605 0)
(-0.567287 -0.475648 0)
(0.300556 -0.765924 0)
(0.397238 -0.937386 0)
(0.567744 -1.18825 0)
(0.761514 -1.116 0)
(0.998217 -1.10928 0)
(1.05778 -0.917961 0)
(1.15677 -0.842043 0)
(1.16317 -0.800952 0)
(1.14093 -0.779471 0)
(1.0754 -0.651016 0)
(0.788192 -0.467254 0)
(0.369209 -0.239353 0)
(-0.40533 0.298144 0)
(-0.838633 0.293187 0)
(-1.05833 0.103674 0)
(-1.08342 -0.0558479 0)
(-0.995137 -0.178006 0)
(-0.757286 -0.315432 0)
(-0.442629 -0.538931 0)
(0.450769 -0.838973 0)
(0.463246 -0.980018 0)
(0.644173 -1.19253 0)
(0.916045 -1.2868 0)
(1.0475 -1.19285 0)
(1.19065 -1.08023 0)
(1.24095 -0.997638 0)
(1.22658 -0.939953 0)
(1.13628 -0.792918 0)
(0.939244 -0.489772 0)
(0.46279 -0.142394 0)
(0.126985 -0.0692573 0)
(-0.289504 0.527729 0)
(-0.698415 0.438107 0)
(-0.944475 0.20172 0)
(-0.903812 -0.029511 0)
(-0.811804 -0.139407 0)
(-0.551705 -0.325972 0)
(-0.21245 -0.558579 0)
(0.614793 -0.823914 0)
(0.582412 -1.00958 0)
(0.763263 -1.24262 0)
(0.959447 -1.28331 0)
(1.11455 -1.24877 0)
(1.22592 -1.15822 0)
(1.25841 -1.11085 0)
(1.23017 -0.973342 0)
(1.12214 -0.700313 0)
(0.867669 -0.247893 0)
(0.434206 0.0251941 0)
(0.170417 0.0501584 0)
(-0.224982 0.630291 0)
(-0.612579 0.537275 0)
(-0.772929 0.328289 0)
(-0.500239 0.0500182 0)
(-0.463246 -0.182326 0)
(-0.281579 -0.295076 0)
(0.111135 -0.605418 0)
(0.723423 -0.865391 0)
(0.67614 -1.03265 0)
(0.821235 -1.2537 0)
(0.993082 -1.30001 0)
(1.12912 -1.28761 0)
(1.21205 -1.27443 0)
(1.24047 -1.21312 0)
(1.21688 -1.00155 0)
(0.961904 -0.354447 0)
(0.737 0.0441774 0)
(0.438198 0.155397 0)
(0.187853 0.116095 0)
(-0.180639 0.794721 0)
(-0.497745 0.743396 0)
(-0.484462 0.349142 0)
(-0.13243 -0.148325 0)
(-0.151934 -0.407362 0)
(0.0463582 -0.463174 0)
(0.0710956 -0.483803 0)
(0.830447 -0.884289 0)
(0.76872 -1.03846 0)
(0.877143 -1.25568 0)
(1.02712 -1.2963 0)
(1.15498 -1.30591 0)
(1.23325 -1.33895 0)
(1.2484 -1.27346 0)
(1.11958 -0.628847 0)
(0.81531 0.0611884 0)
(0.670862 0.250583 0)
(0.37502 0.251596 0)
(0.122269 0.197604 0)
(-0.13088 0.874819 0)
(-0.348323 0.793077 0)
(-0.131846 0.191959 0)
(0.0793412 -0.163168 0)
(-0.0296229 0.124199 0)
(-0.234813 -0.0126317 0)
(0.477845 -0.824495 0)
(0.877318 -0.874678 0)
(0.840256 -1.02571 0)
(0.915556 -1.24627 0)
(1.0459 -1.28198 0)
(1.16902 -1.30142 0)
(1.2578 -1.33501 0)
(1.29897 -1.2902 0)
(1.04458 -0.408163 0)
(0.768921 0.16602 0)
(0.602245 0.345906 0)
(0.330714 0.33365 0)
(0.111774 0.288256 0)
(-0.000437519 0.939128 0)
(-0.132058 0.876035 0)
(0.110272 0.165213 0)
(-0.0952534 -0.0336927 0)
(-0.276764 -0.248787 0)
(0.326646 -0.535937 0)
(0.0589202 -0.417873 0)
(0.929232 -0.672331 0)
(0.897899 -0.995707 0)
(0.954475 -1.21784 0)
(1.06547 -1.26932 0)
(1.16899 -1.28044 0)
(1.23837 -1.27974 0)
(1.29657 -1.31647 0)
(0.924726 -0.201052 0)
(0.687572 0.367521 0)
(0.592333 0.442418 0)
(0.356216 0.452984 0)
(0.1371 0.379762 0)
(0.262309 0.594329 0)
(0.286499 0.503931 0)
(0.377649 0.387388 0)
(0.544482 0.371943 0)
(0.69636 0.339983 0)
(0.78586 0.2436 0)
(0.742619 0.124634 0)
(0.478418 -0.0786884 0)
(0.331935 0.511675 0)
(0.177367 0.355577 0)
(0.240455 -0.0896522 0)
(0.246963 -0.112668 0)
(0.33544 0.458653 0)
(0.354813 0.371173 0)
(0.37793 0.268679 0)
(0.289103 0.0574285 0)
(0.391293 0.361062 0)
(0.405264 0.30435 0)
(0.432013 0.245279 0)
(0.418522 0.105305 0)
(0.547372 0.354912 0)
(0.528314 0.316132 0)
(0.547429 0.269459 0)
(0.533701 0.173525 0)
(0.683433 0.346393 0)
(0.68591 0.335513 0)
(0.705639 0.322191 0)
(0.724386 0.282003 0)
(0.789005 0.296942 0)
(0.794562 0.30914 0)
(0.812679 0.325022 0)
(0.839624 0.31755 0)
(0.787604 0.218257 0)
(0.8128 0.236076 0)
(0.810137 0.285855 0)
(0.853025 0.316431 0)
(0.620425 0.106743 0)
(0.750462 0.139193 0)
(0.750611 0.190003 0)
(0.814115 0.275077 0)
(0.357892 -0.190578 0)
(0.50015 -0.0924049 0)
(0.554988 -0.0316688 0)
(0.682904 0.141599 0)
(0.26899 -0.180565 0)
(0.306019 -0.117999 0)
(0.34262 -0.100606 0)
(0.414473 -0.0670021 0)
(0.375217 -0.501516 0)
(0.373587 -0.426259 0)
(0.420777 -0.410272 0)
(0.445422 -0.364874 0)
(0.628401 0.131492 0)
(0.516124 -0.117345 0)
(0.468094 -0.303638 0)
(0.432123 -0.374557 0)
(0.132762 -0.484973 0)
(0.172474 -0.453585 0)
(0.204633 -0.476538 0)
(0.22533 -0.476175 0)
(-0.254852 0.146759 0)
(-0.27121 0.0352812 0)
(-0.297014 0.017912 0)
(-0.334758 -0.0129188 0)
(-0.179038 -0.242856 0)
(-0.182314 -0.218106 0)
(-0.197756 -0.172076 0)
(-0.20866 -0.151766 0)
(-0.264849 -0.0299941 0)
(-0.274532 -0.0446135 0)
(-0.27853 -0.0495959 0)
(-0.275166 -0.0593436 0)
(-0.247277 -0.126865 0)
(-0.248591 -0.108579 0)
(-0.244397 -0.096835 0)
(-0.241505 -0.0861542 0)
(0.268693 0.171675 0)
(0.221566 0.258565 0)
(0.215732 0.258501 0)
(0.198755 0.261255 0)
(0.221263 0.440595 0)
(0.441739 0.0931178 0)
(1.03394 -0.27064 0)
(0.918251 -0.559957 0)
(0.953868 -0.944197 0)
(1.00881 -1.19321 0)
(1.09441 -1.21412 0)
(1.17712 -1.2108 0)
(1.22445 -1.25108 0)
(1.27079 -1.29887 0)
(0.740936 -0.0535085 0)
(0.55162 0.514235 0)
(0.504183 0.585396 0)
(0.318962 0.606813 0)
(0.124574 0.486853 0)
(0.299218 0.14866 0)
(0.344472 0.194185 0)
(0.323695 0.178175 0)
(0.27897 0.155887 0)
(0.334674 0.0661684 0)
(0.588581 -0.0106036 0)
(0.904418 -0.110838 0)
(0.91778 -0.517332 0)
(0.988646 -0.922432 0)
(1.04843 -1.11483 0)
(1.15634 -1.12268 0)
(1.20442 -1.08867 0)
(1.21994 -1.12248 0)
(1.29248 -1.23979 0)
(0.58001 -0.0948146 0)
(0.41759 0.48851 0)
(0.401925 0.700451 0)
(0.258519 0.740105 0)
(0.129076 0.625302 0)
(0.418606 0.076562 0)
(0.485743 0.0947812 0)
(0.542941 0.108273 0)
(0.519073 0.104598 0)
(0.520437 0.014869 0)
(0.716834 -0.118861 0)
(0.847025 -0.295669 0)
(0.936784 -0.603401 0)
(1.00737 -0.905457 0)
(1.11572 -1.04381 0)
(1.20351 -0.990485 0)
(1.29988 -0.97877 0)
(1.2802 -1.04328 0)
(1.03888 -0.0943139 0)
(-0.212284 0.512836 0)
(0.405724 0.157122 0)
(0.32346 0.756283 0)
(0.229194 0.839089 0)
(0.137425 0.768438 0)
(0.507546 0.0790453 0)
(0.533311 0.051734 0)
(0.57602 0.0444116 0)
(0.635511 0.0277843 0)
(0.702444 -0.0924666 0)
(0.798461 -0.24753 0)
(0.898854 -0.399025 0)
(0.985014 -0.624914 0)
(1.09936 -0.873994 0)
(1.1652 -0.92984 0)
(1.22183 -0.898676 0)
(1.25919 -0.888066 0)
(0.934332 -0.525963 0)
(0.589892 1.46986 0)
(0.357709 0.595753 0)
(0.248092 0.137954 0)
(0.255656 0.739336 0)
(0.165966 0.893007 0)
(0.0836827 0.891084 0)
(0.673198 0.165463 0)
(0.626003 0.0807521 0)
(0.644498 0.0322091 0)
(0.703682 -0.0320424 0)
(0.784428 -0.164122 0)
(0.876582 -0.282719 0)
(0.96554 -0.401749 0)
(1.05535 -0.636573 0)
(1.14121 -0.815275 0)
(1.18956 -0.80675 0)
(1.23463 -0.796477 0)
(1.24547 -0.809891 0)
(0.394184 0.0834607 0)
(0.372177 1.30241 0)
(0.709985 1.01361 0)
(-0.176383 0.371963 0)
(0.248785 0.596455 0)
(0.0994427 0.967422 0)
(0.062345 0.992418 0)
(0.839135 0.268474 0)
(0.75081 0.152666 0)
(0.744223 0.0640444 0)
(0.783889 -0.013095 0)
(0.850368 -0.149865 0)
(0.945393 -0.265968 0)
(1.02499 -0.423624 0)
(1.10494 -0.642539 0)
(1.17093 -0.707524 0)
(1.20081 -0.67468 0)
(1.26135 -0.643164 0)
(1.13789 -0.531202 0)
(0.169042 0.341466 0)
(0.0477863 1.06371 0)
(0.707426 1.35857 0)
(-0.349703 0.452144 0)
(0.274001 0.416514 0)
(0.0853406 1.01654 0)
(0.0612216 1.0663 0)
(0.885583 0.298191 0)
(0.859116 0.228966 0)
(0.848197 0.113345 0)
(0.866853 -0.00120798 0)
(0.940157 -0.150885 0)
(1.0128 -0.276171 0)
(1.07905 -0.433946 0)
(1.14655 -0.56364 0)
(1.17287 -0.554782 0)
(1.22288 -0.544581 0)
(1.20864 -0.543137 0)
(0.0818822 0.245275 0)
(-0.000670907 0.470306 0)
(0.0354303 0.723578 0)
(0.648777 1.32722 0)
(0.319503 0.757031 0)
(0.28986 0.363563 0)
(0.0962988 1.03543 0)
(0.0355723 1.12764 0)
(0.872905 0.279492 0)
(0.867635 0.235076 0)
(0.879466 0.13881 0)
(0.929061 -0.0011426 0)
(0.995581 -0.129682 0)
(1.04908 -0.248735 0)
(1.09993 -0.395617 0)
(1.14151 -0.470904 0)
(1.15808 -0.476265 0)
(1.14255 -0.483434 0)
(0.406698 -0.0211948 0)
(-0.0958279 0.375776 0)
(-0.0528504 0.454326 0)
(0.0282949 0.540117 0)
(0.38132 1.24968 0)
(0.485508 0.92843 0)
(0.0979757 0.516622 0)
(0.135597 1.0324 0)
(0.0183527 1.17428 0)
(0.835568 0.223104 0)
(0.840769 0.199919 0)
(0.864391 0.123079 0)
(0.937096 -0.0148817 0)
(0.99132 -0.123235 0)
(1.02893 -0.235539 0)
(1.09446 -0.376531 0)
(1.10602 -0.434132 0)
(1.05184 -0.465508 0)
(0.558069 -0.218728 0)
(-0.127203 0.29672 0)
(-0.132251 0.371056 0)
(-0.0882151 0.377848 0)
(-0.0213134 0.442371 0)
(0.0392743 1.01952 0)
(0.502506 0.990201 0)
(-0.0545746 0.734832 0)
(0.195416 1.06951 0)
(0.0196933 1.23507 0)
(0.73074 0.209632 0)
(0.810918 0.167073 0)
(0.848493 0.0766538 0)
(0.905466 -0.0347688 0)
(0.968109 -0.125161 0)
(1.07687 -0.274086 0)
(1.10795 -0.431881 0)
(0.930705 -0.623335 0)
(0.251558 -0.212835 0)
(-0.133118 0.188488 0)
(-0.166128 0.289408 0)
(-0.126785 0.339083 0)
(-0.0843688 0.330457 0)
(-0.0124257 0.421651 0)
(-0.0187276 0.769153 0)
(0.493842 0.955975 0)
(0.102541 0.862173 0)
(0.220896 1.13428 0)
(0.0339975 1.30785 0)
(0.575182 -0.0963459 0)
(0.790604 0.00834762 0)
(0.811396 -0.0597604 0)
(0.823584 -0.292116 0)
(0.809976 -0.520862 0)
(0.611799 -0.534295 0)
(-0.152146 0.0863123 0)
(-0.265331 0.161986 0)
(-0.229472 0.166314 0)
(-0.209708 0.221701 0)
(-0.137103 0.244431 0)
(-0.111091 0.296813 0)
(-0.064622 0.272467 0)
(0.0232554 0.381948 0)
(0.0189369 0.565641 0)
(0.467276 0.863804 0)
(0.0541656 1.01509 0)
(0.18953 1.19046 0)
(0.0448283 1.36495 0)
(0.491582 -0.494617 0)
(0.628525 -0.406992 0)
(0.628925 -0.407073 0)
(0.577229 -0.305909 0)
(0.111044 0.0545412 0)
(-0.177248 0.0541457 0)
(-0.182303 0.0272556 0)
(-0.200679 0.0854619 0)
(-0.178963 0.148953 0)
(-0.177301 0.195444 0)
(-0.105763 0.207426 0)
(-0.0966283 0.259114 0)
(-0.0361982 0.220166 0)
(0.0428599 0.337159 0)
(0.0445235 0.408284 0)
(0.448169 0.823 0)
(-0.0448796 1.22916 0)
(0.148432 1.19471 0)
(0.0370001 1.40777 0)
(0.189147 -0.328426 0)
(0.05046 0.0716008 0)
(-0.15241 0.135964 0)
(-0.161651 0.0678172 0)
(-0.143584 0.0845421 0)
(-0.152271 0.104153 0)
(-0.180772 0.10958 0)
(-0.191409 0.119066 0)
(-0.156176 0.143353 0)
(-0.158883 0.165885 0)
(-0.0773144 0.176241 0)
(-0.092453 0.217898 0)
(-0.00889909 0.167502 0)
(0.0334397 0.286206 0)
(0.0643796 0.267656 0)
(0.411536 0.822741 0)
(-0.131837 1.41863 0)
(0.141764 1.16551 0)
(0.0127872 1.45179 0)
(-0.371213 -0.0420088 0)
(-0.311794 -0.0484826 0)
(-0.234322 0.0152585 0)
(-0.218256 0.10902 0)
(-0.198271 0.111152 0)
(-0.176662 0.0812476 0)
(-0.164983 0.0804541 0)
(-0.166504 0.10024 0)
(-0.130887 0.122208 0)
(-0.142543 0.140119 0)
(-0.0569335 0.148913 0)
(-0.0944281 0.179879 0)
(0.0163983 0.127635 0)
(-0.0033161 0.238748 0)
(0.084618 0.165235 0)
(0.265142 0.895495 0)
(-0.135157 1.49587 0)
(0.153077 1.14374 0)
(-0.00677702 1.50158 0)
(-0.24977 -0.11085 0)
(-0.291368 -0.00789715 0)
(-0.285923 0.0471538 0)
(-0.243815 0.0617314 0)
(-0.204447 0.0755337 0)
(-0.175167 0.0723948 0)
(-0.158173 0.078322 0)
(-0.152792 0.0875645 0)
(-0.113266 0.104102 0)
(-0.130578 0.115349 0)
(-0.0415004 0.124613 0)
(-0.0998656 0.143518 0)
(0.0370635 0.103242 0)
(-0.0497415 0.190107 0)
(0.109368 0.118712 0)
(0.0604505 0.93197 0)
(0.0393539 1.50316 0)
(0.162054 1.14421 0)
(-0.0103232 1.54612 0)
(-0.276734 -0.0680251 0)
(-0.262513 -0.0469274 0)
(-0.241809 -0.000620707 0)
(-0.215546 0.0306109 0)
(-0.190263 0.046298 0)
(-0.169108 0.0534405 0)
(-0.149225 0.0620816 0)
(-0.140372 0.0737125 0)
(-0.101233 0.0857539 0)
(-0.120447 0.093537 0)
(-0.0305432 0.104275 0)
(-0.101326 0.111055 0)
(0.0509563 0.0921068 0)
(-0.0822336 0.14082 0)
(0.140697 0.117555 0)
(-0.0649678 0.866784 0)
(0.333857 1.43885 0)
(0.179705 1.18627 0)
(-0.00787608 1.59385 0)
(-0.249231 -0.0613479 0)
(-0.246497 -0.030815 0)
(-0.233625 -0.00173044 0)
(-0.205298 0.00611999 0)
(-0.182921 0.0242183 0)
(-0.159855 0.0359584 0)
(-0.139486 0.0446771 0)
(-0.129071 0.0574196 0)
(-0.0913225 0.0678344 0)
(-0.111235 0.073053 0)
(-0.0223036 0.0860351 0)
(-0.0998284 0.0830944 0)
(0.0587279 0.083293 0)
(-0.0959109 0.0952048 0)
(0.162248 0.119252 0)
(-0.0992238 0.744153 0)
(0.478683 1.3265 0)
(0.210364 1.30903 0)
(-0.00188148 1.66728 0)
)
;

boundaryField
{
    leftWall
    {
        type            fixedValue;
        value           nonuniform 0();
    }
    rightWall
    {
        type            fixedValue;
        value           uniform (0 0 0);
    }
    lowerWall
    {
        type            fixedValue;
        value           uniform (0 0 0);
    }
    atmosphere
    {
        type            fluxCorrectedVelocity;
        value           nonuniform 0();
    }
    defaultFaces
    {
        type            empty;
    }
    procBoundary1to0
    {
        type            processor;
        value           nonuniform List<vector> 
26
(
(0.171305 0.0369744 0)
(0.221271 0.100402 0)
(0.190205 0.148294 0)
(0.174674 0.206518 0)
(0.228421 0.282095 0)
(0.269326 0.356216 0)
(0.319897 0.425316 0)
(0.287797 0.488306 0)
(0.289336 0.470145 0)
(0.295821 0.356557 0)
(0.431932 0.229992 0)
(0.617976 0.21844 0)
(0.798587 0.148478 0)
(0.853162 0.147641 0)
(0.630564 0.0936595 0)
(0.304365 -0.0620383 0)
(0.276605 -0.180603 0)
(0.276605 -0.180603 0)
(0.226159 -0.202071 0)
(0.354338 -0.562951 0)
(0.799468 0.224503 0)
(0.0836429 -0.558087 0)
(-0.203664 0.1171 0)
(-0.222867 -0.245208 0)
(-0.255925 -0.0612008 0)
(-0.268927 -0.15244 0)
)
;
    }
    procBoundary1to3
    {
        type            processor;
        value           nonuniform List<vector> 
23
(
(-0.220785 -0.119174 0)
(-0.219364 -0.114092 0)
(-0.216526 -0.102943 0)
(-0.213006 -0.0964066 0)
(-0.217154 -0.0790489 0)
(-0.212816 -0.0548528 0)
(-0.198016 -0.0311376 0)
(-0.179564 -0.0138551 0)
(-0.168635 0.00639243 0)
(-0.14945 0.0179542 0)
(-0.12909 0.0285035 0)
(-0.11868 0.0419157 0)
(-0.0835714 0.0501755 0)
(-0.101995 0.0544949 0)
(-0.0167787 0.069292 0)
(-0.0963922 0.0578276 0)
(0.0623837 0.0747123 0)
(-0.0998619 0.0553422 0)
(0.169253 0.10808 0)
(-0.0988074 0.606724 0)
(0.546137 1.20208 0)
(0.153852 1.50726 0)
(0.0151386 1.77644 0)
)
;
    }
}


// ************************************************************************* //
