/*--------------------------------*- C++ -*----------------------------------*\
| =========                 |                                                 |
| \\      /  F ield         | OpenFOAM: The Open Source CFD Toolbox           |
|  \\    /   O peration     | Version:  2.4.0                                 |
|   \\  /    A nd           | Web:      www.OpenFOAM.org                      |
|    \\/     M anipulation  |                                                 |
\*---------------------------------------------------------------------------*/
FoamFile
{
    version     2.0;
    format      ascii;
    class       volVectorField;
    location    "0.35";
    object      U.oil;
}
// * * * * * * * * * * * * * * * * * * * * * * * * * * * * * * * * * * * * * //

dimensions      [0 1 -1 0 0 0 0];

internalField   nonuniform List<vector> 
559
(
(0.0264 0.0414143 0)
(0.03407 0.110092 0)
(0.0824374 0.176023 0)
(0.0407072 0.244169 0)
(0.0774146 0.2951 0)
(0.0547317 0.390745 0)
(0.124613 0.457501 0)
(0.111464 0.627105 0)
(-0.280036 0.120249 0)
(-0.760994 0.125385 0)
(-1.04865 0.0257471 0)
(-1.20058 0.0303168 0)
(-1.25006 0.0107289 0)
(-1.20266 -0.0148956 0)
(-1.12602 -0.0359561 0)
(-0.980551 -0.0621601 0)
(-0.64859 -0.101838 0)
(-0.313081 -0.17504 0)
(0.22416 -0.210207 0)
(0.637318 -0.144517 0)
(0.97796 -0.0916274 0)
(1.02291 -0.0446106 0)
(0.965542 -0.0589078 0)
(0.738422 -0.0586523 0)
(0.39515 -0.0366909 0)
(0.045249 -0.0265052 0)
(0.0177304 -0.03982 0)
(-0.236723 0.292309 0)
(-0.69249 0.217857 0)
(-1.02113 0.167582 0)
(-1.154 0.0658393 0)
(-1.17928 0.00852165 0)
(-1.0808 -0.0478286 0)
(-1.0131 -0.057498 0)
(-0.845341 -0.147049 0)
(-0.446776 -0.21201 0)
(-0.143888 -0.21028 0)
(0.375261 -0.205143 0)
(0.801471 -0.143304 0)
(1.07118 0.0110885 0)
(1.11693 0.112506 0)
(1.00707 0.20778 0)
(0.683647 0.279527 0)
(0.392015 0.277879 0)
(0.0505226 0.179797 0)
(0.023736 0.0605435 0)
(-0.271571 0.45941 0)
(-0.678809 0.424504 0)
(-0.975574 0.260131 0)
(-1.07618 0.0993105 0)
(-1.07135 -0.0154025 0)
(-0.972155 -0.0803427 0)
(-0.933771 -0.128257 0)
(-0.576824 -0.284754 0)
(-0.263065 -0.400587 0)
(0.13387 -0.446839 0)
(0.581381 -0.50908 0)
(0.937396 -0.363754 0)
(1.17568 -0.142644 0)
(1.17389 0.0757616 0)
(0.982265 0.226548 0)
(0.663095 0.28923 0)
(0.483853 0.301715 0)
(0.166454 0.19121 0)
(0.0736647 -0.0203892 0)
(-0.195874 0.664605 0)
(-0.572426 0.563315 0)
(-0.875541 0.330635 0)
(-0.901236 0.0883777 0)
(-0.865229 -0.00982993 0)
(-0.734195 -0.125995 0)
(-0.718512 -0.238957 0)
(-0.343316 -0.452449 0)
(-0.114102 -0.530683 0)
(0.351504 -0.607522 0)
(0.752614 -0.642381 0)
(1.0391 -0.417269 0)
(1.26041 -0.154299 0)
(1.15448 0.147906 0)
(0.978651 0.314931 0)
(0.658973 0.376682 0)
(0.474144 0.382733 0)
(0.203694 0.301797 0)
(0.122426 0.088425 0)
(-0.134671 0.747165 0)
(-0.494453 0.657464 0)
(-0.714871 0.431852 0)
(-0.490452 0.120022 0)
(-0.479219 -0.12131 0)
(-0.378243 -0.185713 0)
(-0.413393 -0.281109 0)
(-0.176164 -0.571596 0)
(0.0715513 -0.738314 0)
(0.498441 -0.816954 0)
(0.820424 -0.845013 0)
(1.03411 -0.626269 0)
(1.20168 -0.0902445 0)
(1.1466 0.250596 0)
(0.923744 0.43798 0)
(0.646766 0.493604 0)
(0.496461 0.479377 0)
(0.271678 0.379362 0)
(0.148703 0.160924 0)
(-0.0854967 0.892984 0)
(-0.392944 0.846807 0)
(-0.444972 0.419312 0)
(-0.125581 -0.126131 0)
(-0.139494 -0.417121 0)
(0.0727238 -0.467636 0)
(0.0317809 -0.39739 0)
(0.0849547 -0.6055 0)
(0.227763 -0.840078 0)
(0.586534 -0.963 0)
(0.839425 -1.01848 0)
(1.01733 -0.990457 0)
(0.990382 -0.570245 0)
(0.950886 0.24219 0)
(0.845558 0.516893 0)
(0.601315 0.586446 0)
(0.49942 0.553233 0)
(0.255809 0.450462 0)
(0.0831976 0.243114 0)
(-0.0182569 0.941871 0)
(-0.238209 0.851001 0)
(-0.108498 0.218436 0)
(0.0415316 -0.179782 0)
(0.366686 -0.430621 0)
(0.602529 -0.841829 0)
(0.596596 -0.868011 0)
(0.385395 -0.822199 0)
(0.395353 -0.920767 0)
(0.615981 -1.08195 0)
(0.829938 -1.20827 0)
(0.897918 -1.3134 0)
(0.900806 -1.36853 0)
(0.787667 0.142656 0)
(0.733063 0.574187 0)
(0.544039 0.613388 0)
(0.431249 0.621789 0)
(0.219351 0.522759 0)
(0.0759681 0.327301 0)
(0.0750584 0.995708 0)
(-0.0648123 0.909018 0)
(0.123995 0.15343 0)
(0.171216 -0.0808821 0)
(0.728327 -0.578324 0)
(1.02616 -0.312518 0)
(1.13982 -0.453248 0)
(0.613592 -0.95274 0)
(0.559817 -1.05479 0)
(0.667695 -1.1614 0)
(0.818083 -1.30244 0)
(0.86563 -1.38061 0)
(0.888703 -1.40747 0)
(0.553579 -0.172775 0)
(0.646069 0.547809 0)
(0.497319 0.678812 0)
(0.42611 0.674273 0)
(0.246876 0.615957 0)
(0.102893 0.406417 0)
(0.381644 0.697512 0)
(0.349683 0.570123 0)
(0.4546 0.522594 0)
(0.779401 0.656451 0)
(1.03778 0.624343 0)
(1.00692 0.482934 0)
(0.788028 0.274746 0)
(0.47473 -0.00754907 0)
(0.428449 0.551425 0)
(-0.00379301 0.211186 0)
(-0.214549 -0.568071 0)
(-0.0491253 0.20746 0)
(0.44508 0.427483 0)
(0.385483 0.329304 0)
(0.347156 0.264808 0)
(0.161091 0.0275317 0)
(0.480315 0.39875 0)
(0.477198 0.313842 0)
(0.473706 0.26914 0)
(0.400745 0.150796 0)
(0.726982 0.509376 0)
(0.667854 0.372144 0)
(0.641204 0.300738 0)
(0.575713 0.208161 0)
(1.0908 0.589055 0)
(1.08284 0.539853 0)
(1.01771 0.467227 0)
(0.931768 0.350141 0)
(1.10873 0.521038 0)
(1.16242 0.525798 0)
(1.1737 0.512787 0)
(1.17116 0.484863 0)
(0.967737 0.387981 0)
(1.05957 0.452697 0)
(1.10991 0.494277 0)
(1.14916 0.49366 0)
(0.625418 0.0873068 0)
(0.766886 0.199962 0)
(0.866129 0.317554 0)
(0.96703 0.437523 0)
(0.364432 -0.169625 0)
(0.446943 -0.107312 0)
(0.521482 -0.0525784 0)
(0.636062 0.0757225 0)
(0.26898 -0.178893 0)
(0.304342 -0.117424 0)
(0.336921 -0.100437 0)
(0.399312 -0.0693165 0)
(0.375752 -0.509362 0)
(0.374146 -0.430908 0)
(0.42134 -0.413604 0)
(0.446118 -0.36675 0)
(0.466869 -0.93108 0)
(0.425793 -0.840633 0)
(0.431852 -0.798001 0)
(0.414399 -0.763354 0)
(0.147103 -0.493411 0)
(0.182023 -0.465725 0)
(0.214275 -0.492022 0)
(0.229283 -0.493566 0)
(-0.25604 0.144743 0)
(-0.271531 0.0337167 0)
(-0.297309 0.016603 0)
(-0.335073 -0.0141684 0)
(-0.178932 -0.243355 0)
(-0.182267 -0.21819 0)
(-0.19779 -0.172127 0)
(-0.208707 -0.151794 0)
(-0.264912 -0.0305048 0)
(-0.274557 -0.0448812 0)
(-0.278531 -0.0497578 0)
(-0.27516 -0.0594916 0)
(-0.247299 -0.127008 0)
(-0.248603 -0.108652 0)
(-0.244408 -0.0968719 0)
(-0.241513 -0.0861899 0)
(0.279505 0.954703 0)
(0.228746 0.858305 0)
(0.279104 0.410545 0)
(0.118627 0.267489 0)
(0.246373 0.230091 0)
(0.735062 0.283809 0)
(1.11562 -0.0934967 0)
(0.810855 -0.889863 0)
(0.715232 -1.12915 0)
(0.729992 -1.26714 0)
(0.81713 -1.33996 0)
(0.85741 -1.3955 0)
(0.879393 -1.39184 0)
(0.825392 -1.06073 0)
(0.547965 0.345298 0)
(0.425827 0.680582 0)
(0.369612 0.753708 0)
(0.22434 0.729782 0)
(0.0997716 0.506238 0)
(0.304216 0.547854 0)
(0.780237 0.628497 0)
(0.811934 0.468367 0)
(0.719442 0.466016 0)
(0.713732 0.40971 0)
(0.879261 0.172571 0)
(0.908112 -0.269188 0)
(0.869358 -0.801622 0)
(0.830816 -1.13806 0)
(0.818388 -1.30149 0)
(0.886909 -1.33302 0)
(0.918584 -1.33846 0)
(0.952445 -1.28659 0)
(0.802526 -0.835877 0)
(0.708752 -0.0782506 0)
(0.365513 0.556106 0)
(0.305235 0.807171 0)
(0.194191 0.820798 0)
(0.117218 0.64466 0)
(0.422747 0.219702 0)
(0.770574 0.345921 0)
(0.951974 0.234699 0)
(0.995291 0.207412 0)
(0.997432 0.11823 0)
(0.921386 -0.126714 0)
(0.873021 -0.443002 0)
(0.902694 -0.801377 0)
(0.881921 -1.139 0)
(0.891439 -1.24445 0)
(0.936272 -1.25325 0)
(0.980507 -1.25725 0)
(0.828545 -0.950522 0)
(0.699412 0.831995 0)
(0.793473 -0.183539 0)
(0.401089 0.136632 0)
(0.268026 0.809301 0)
(0.17842 0.893854 0)
(0.124851 0.784497 0)
(0.52526 0.156341 0)
(0.608386 0.154202 0)
(0.743089 0.158064 0)
(0.884625 0.0956568 0)
(0.923813 -0.11805 0)
(0.913974 -0.314593 0)
(0.931787 -0.516703 0)
(0.961562 -0.843883 0)
(0.972658 -1.10925 0)
(0.981844 -1.15882 0)
(1.0081 -1.16079 0)
(1.06069 -1.17042 0)
(0.696628 -0.580329 0)
(0.631841 1.2088 0)
(0.504101 0.403561 0)
(0.411456 0.0274306 0)
(0.231493 0.758701 0)
(0.129643 0.922588 0)
(0.0772427 0.905979 0)
(0.772542 0.18821 0)
(0.69152 0.114125 0)
(0.714865 0.0632854 0)
(0.780568 -0.00919927 0)
(0.844936 -0.176897 0)
(0.887943 -0.345689 0)
(0.9472 -0.544535 0)
(1.0026 -0.861822 0)
(1.02513 -1.05699 0)
(1.03987 -1.09015 0)
(1.0644 -1.08844 0)
(1.05919 -1.06674 0)
(0.245484 0.152774 0)
(0.381318 1.30032 0)
(0.669357 0.91056 0)
(0.308611 0.34475 0)
(0.243281 0.592464 0)
(0.0809737 0.982321 0)
(0.0598615 1.00174 0)
(1.08053 0.348753 0)
(0.873529 0.15658 0)
(0.826894 0.0460899 0)
(0.841913 -0.0497086 0)
(0.875333 -0.22281 0)
(0.934084 -0.377452 0)
(1.01389 -0.629669 0)
(1.05157 -0.89934 0)
(1.07842 -1.00138 0)
(1.10095 -1.00076 0)
(1.13442 -0.997845 0)
(0.993399 -0.821838 0)
(0.122438 0.360095 0)
(0.0349741 1.09002 0)
(0.687053 1.26916 0)
(0.281931 0.334665 0)
(0.279301 0.413038 0)
(0.0800154 1.01911 0)
(0.0602569 1.07021 0)
(1.15786 0.444475 0)
(1.07194 0.256514 0)
(0.977367 0.0671102 0)
(0.942652 -0.100305 0)
(0.985891 -0.277078 0)
(1.03943 -0.4639 0)
(1.10043 -0.700267 0)
(1.10639 -0.863961 0)
(1.1175 -0.885148 0)
(1.13253 -0.870917 0)
(1.1257 -0.828298 0)
(0.015715 0.266257 0)
(-0.00789286 0.471394 0)
(0.0307746 0.700557 0)
(0.642306 1.25883 0)
(0.320813 0.632383 0)
(0.336347 0.35264 0)
(0.0949809 1.03609 0)
(0.0346452 1.12862 0)
(1.07218 0.450959 0)
(1.08748 0.340248 0)
(1.06643 0.119776 0)
(1.08106 -0.112425 0)
(1.11785 -0.309827 0)
(1.1449 -0.504444 0)
(1.14896 -0.710374 0)
(1.10824 -0.79456 0)
(1.06739 -0.784659 0)
(1.00406 -0.73478 0)
(0.345547 -0.125272 0)
(-0.10132 0.375507 0)
(-0.0509526 0.440369 0)
(0.0303186 0.504787 0)
(0.400827 1.20137 0)
(0.455999 0.875028 0)
(0.391032 0.341583 0)
(0.13583 1.03238 0)
(0.0180417 1.1745 0)
(0.855254 0.269046 0)
(0.987988 0.263818 0)
(1.07868 0.0824111 0)
(1.12173 -0.185028 0)
(1.15229 -0.339251 0)
(1.1823 -0.51705 0)
(1.14277 -0.640071 0)
(1.04907 -0.665326 0)
(0.834871 -0.666599 0)
(0.296705 -0.268172 0)
(-0.124628 0.274815 0)
(-0.128879 0.362532 0)
(-0.0841201 0.362291 0)
(-0.0143414 0.417628 0)
(0.0617449 0.969835 0)
(0.486551 0.912943 0)
(0.343651 0.454149 0)
(0.196978 1.06944 0)
(0.0196116 1.23518 0)
(0.561716 0.112289 0)
(0.747715 0.177531 0)
(0.894838 0.0753247 0)
(0.953246 -0.113451 0)
(1.0088 -0.362447 0)
(1.08633 -0.493626 0)
(1.0276 -0.546007 0)
(0.888803 -0.652414 0)
(0.613186 -0.479938 0)
(-0.164977 0.182218 0)
(-0.161504 0.279206 0)
(-0.123244 0.330269 0)
(-0.0803626 0.318312 0)
(-0.00479673 0.40168 0)
(-0.00596105 0.725011 0)
(0.488358 0.88875 0)
(0.165168 0.948059 0)
(0.22665 1.13415 0)
(0.0340574 1.30787 0)
(0.538278 -0.16564 0)
(0.706793 -0.0750895 0)
(0.796143 -0.136278 0)
(0.813089 -0.375415 0)
(0.768762 -0.583827 0)
(0.567434 -0.749783 0)
(0.257768 -0.672833 0)
(0.139885 -0.173919 0)
(-0.144188 0.0886642 0)
(-0.208609 0.213559 0)
(-0.134593 0.2382 0)
(-0.108962 0.290451 0)
(-0.0616999 0.263027 0)
(0.0280821 0.364636 0)
(0.0255624 0.525977 0)
(0.471154 0.815943 0)
(0.122692 1.06669 0)
(0.197471 1.19049 0)
(0.0449148 1.36495 0)
(0.489259 -0.612023 0)
(0.619521 -0.454209 0)
(0.627275 -0.453996 0)
(0.588446 -0.470299 0)
(0.522565 -0.423212 0)
(0.081577 -0.139842 0)
(-0.14369 -0.0342465 0)
(-0.178213 0.0608864 0)
(-0.173637 0.139701 0)
(-0.17579 0.190804 0)
(-0.104525 0.203679 0)
(-0.0956511 0.254919 0)
(-0.0340213 0.212805 0)
(0.045502 0.321445 0)
(0.0498304 0.369963 0)
(0.45238 0.776753 0)
(0.0731711 1.17475 0)
(0.152964 1.19448 0)
(0.0370668 1.40777 0)
(0.216185 -0.359493 0)
(0.135512 -0.130299 0)
(0.442641 -0.572277 0)
(0.424409 -0.561314 0)
(0.131556 -0.314707 0)
(-0.142987 0.0898264 0)
(-0.178516 0.102824 0)
(-0.189562 0.113965 0)
(-0.155027 0.139895 0)
(-0.158134 0.163353 0)
(-0.0767803 0.174228 0)
(-0.0919923 0.215222 0)
(-0.00725505 0.161658 0)
(0.0337461 0.270904 0)
(0.0686296 0.229581 0)
(0.413673 0.776769 0)
(0.0413044 1.25155 0)
(0.143227 1.16541 0)
(0.0128192 1.45179 0)
(-0.371075 -0.0440204 0)
(-0.311076 -0.0512868 0)
(-0.233439 0.0133609 0)
(-0.211316 0.0985164 0)
(-0.190155 0.0944688 0)
(-0.175515 0.0779718 0)
(-0.164222 0.0781183 0)
(-0.16592 0.098242 0)
(-0.130443 0.120588 0)
(-0.142251 0.138896 0)
(-0.0567088 0.147858 0)
(-0.0941782 0.178059 0)
(0.0176556 0.122811 0)
(-0.00491276 0.223689 0)
(0.0885827 0.132692 0)
(0.261692 0.854564 0)
(0.0393152 1.27568 0)
(0.154193 1.14365 0)
(-0.00675765 1.50157 0)
(-0.249854 -0.110733 0)
(-0.291458 -0.0078941 0)
(-0.285847 0.0468194 0)
(-0.243385 0.0606148 0)
(-0.20377 0.0734546 0)
(-0.174803 0.0711127 0)
(-0.157876 0.0772212 0)
(-0.152561 0.0866428 0)
(-0.11311 0.103378 0)
(-0.130465 0.1148 0)
(-0.0414094 0.124029 0)
(-0.0996759 0.14216 0)
(0.037955 0.0991806 0)
(-0.0512741 0.175439 0)
(0.11586 0.0940667 0)
(0.057651 0.881012 0)
(0.0868216 1.29055 0)
(0.164288 1.14391 0)
(-0.0102913 1.5461 0)
(-0.276709 -0.0682057 0)
(-0.262466 -0.0471155 0)
(-0.241746 -0.000832426 0)
(-0.215467 0.0302428 0)
(-0.190166 0.0457264 0)
(-0.169004 0.0529397 0)
(-0.149136 0.0616358 0)
(-0.140297 0.0733328 0)
(-0.101185 0.0854579 0)
(-0.1204 0.0932928 0)
(-0.0305067 0.10391 0)
(-0.101153 0.109936 0)
(0.0514296 0.0884185 0)
(-0.0828577 0.127142 0)
(0.145606 0.0952889 0)
(-0.0656024 0.802126 0)
(0.221539 1.34756 0)
(0.189478 1.18411 0)
(-0.00781993 1.59378 0)
(-0.249235 -0.0613909 0)
(-0.246494 -0.0308724 0)
(-0.233613 -0.00182238 0)
(-0.205275 0.00598538 0)
(-0.182893 0.0240476 0)
(-0.159826 0.0357752 0)
(-0.13946 0.0445084 0)
(-0.12905 0.0572804 0)
(-0.0913099 0.067723 0)
(-0.111212 0.0729388 0)
(-0.0222922 0.0857769 0)
(-0.0996854 0.08213 0)
(0.0589413 0.0799227 0)
(-0.0958951 0.0828767 0)
(0.164404 0.0962215 0)
(-0.100491 0.678439 0)
(0.425507 1.27527 0)
(0.277628 1.27846 0)
(-0.00182982 1.66722 0)
)
;

boundaryField
{
    leftWall
    {
        type            fixedValue;
        value           nonuniform 0();
    }
    rightWall
    {
        type            fixedValue;
        value           uniform (0 0 0);
    }
    lowerWall
    {
        type            fixedValue;
        value           uniform (0 0 0);
    }
    atmosphere
    {
        type            fluxCorrectedVelocity;
        value           nonuniform 0();
    }
    defaultFaces
    {
        type            empty;
    }
    procBoundary1to0
    {
        type            processor;
        value           nonuniform List<vector> 
26
(
(0.168537 0.0451047 0)
(0.218349 0.108857 0)
(0.186844 0.157589 0)
(0.170461 0.217226 0)
(0.22348 0.294823 0)
(0.262622 0.374289 0)
(0.300452 0.458017 0)
(0.248904 0.571603 0)
(0.269697 0.641351 0)
(0.282251 0.540445 0)
(0.503224 0.600176 0)
(0.823859 0.685874 0)
(0.894514 0.539178 0)
(0.814951 0.375274 0)
(0.576235 0.185621 0)
(0.302461 -0.0406034 0)
(0.281796 -0.159941 0)
(0.281796 -0.159941 0)
(0.226191 -0.201048 0)
(0.354714 -0.578254 0)
(0.494248 -0.991434 0)
(0.0926191 -0.56605 0)
(-0.207019 0.11533 0)
(-0.22273 -0.246301 0)
(-0.256131 -0.0621101 0)
(-0.268973 -0.152697 0)
)
;
    }
    procBoundary1to3
    {
        type            processor;
        value           nonuniform List<vector> 
23
(
(-0.22079 -0.119241 0)
(-0.219367 -0.114139 0)
(-0.216527 -0.10298 0)
(-0.213006 -0.0964375 0)
(-0.217154 -0.0790746 0)
(-0.212815 -0.0548739 0)
(-0.198014 -0.0311665 0)
(-0.179561 -0.0138956 0)
(-0.16863 0.00633973 0)
(-0.149444 0.0178949 0)
(-0.129084 0.0284445 0)
(-0.118674 0.0418673 0)
(-0.0835684 0.050135 0)
(-0.101983 0.054435 0)
(-0.0167796 0.0690947 0)
(-0.0962745 0.0570091 0)
(0.0623805 0.0717285 0)
(-0.0999014 0.0442869 0)
(0.168199 0.0850842 0)
(-0.102019 0.540863 0)
(0.505874 1.10547 0)
(0.408237 1.36588 0)
(0.0153336 1.77637 0)
)
;
    }
}


// ************************************************************************* //
