/*--------------------------------*- C++ -*----------------------------------*\
| =========                 |                                                 |
| \\      /  F ield         | OpenFOAM: The Open Source CFD Toolbox           |
|  \\    /   O peration     | Version:  2.4.0                                 |
|   \\  /    A nd           | Web:      www.OpenFOAM.org                      |
|    \\/     M anipulation  |                                                 |
\*---------------------------------------------------------------------------*/
FoamFile
{
    version     2.0;
    format      ascii;
    class       volVectorField;
    location    "0.35";
    object      U.water;
}
// * * * * * * * * * * * * * * * * * * * * * * * * * * * * * * * * * * * * * //

dimensions      [0 1 -1 0 0 0 0];

internalField   nonuniform List<vector> 
559
(
(0.0282697 0.0136158 0)
(0.0361567 0.0805153 0)
(0.0847748 0.143747 0)
(0.0433171 0.209476 0)
(0.0798438 0.262339 0)
(0.0554819 0.365323 0)
(0.122595 0.442469 0)
(0.114874 0.615743 0)
(-0.286552 0.116599 0)
(-0.767879 0.118019 0)
(-1.05064 0.0182931 0)
(-1.19733 0.0188074 0)
(-1.2396 -0.00481749 0)
(-1.18156 -0.0383347 0)
(-1.08112 -0.0779569 0)
(-0.8555 -0.16257 0)
(-0.408411 -0.333921 0)
(-0.00475201 -0.575957 0)
(0.433727 -0.642539 0)
(0.705945 -0.55322 0)
(0.992083 -0.516736 0)
(1.04177 -0.448557 0)
(1.04246 -0.436938 0)
(0.912609 -0.418226 0)
(0.659966 -0.349101 0)
(0.306198 -0.251473 0)
(0.118093 -0.129433 0)
(-0.239852 0.289709 0)
(-0.69436 0.216531 0)
(-1.02162 0.166791 0)
(-1.15406 0.065353 0)
(-1.17906 0.00799114 0)
(-1.07942 -0.0495982 0)
(-1.0023 -0.0676341 0)
(-0.750558 -0.198258 0)
(-0.290018 -0.346768 0)
(0.09507 -0.538697 0)
(0.575395 -0.677105 0)
(0.903247 -0.643107 0)
(1.06432 -0.466321 0)
(1.13751 -0.380584 0)
(1.07997 -0.263311 0)
(0.817444 -0.0303463 0)
(0.509767 0.117828 0)
(0.117616 0.120954 0)
(0.0287639 0.0563294 0)
(-0.272182 0.458674 0)
(-0.679207 0.424178 0)
(-0.975754 0.259802 0)
(-1.07621 0.098972 0)
(-1.07116 -0.0159284 0)
(-0.970538 -0.0822067 0)
(-0.921384 -0.138628 0)
(-0.484836 -0.334431 0)
(-0.10694 -0.525186 0)
(0.323521 -0.724008 0)
(0.73661 -0.869911 0)
(0.993706 -0.78752 0)
(1.18338 -0.62615 0)
(1.20643 -0.444986 0)
(1.06072 -0.148039 0)
(0.73037 0.135376 0)
(0.511821 0.253101 0)
(0.171992 0.184984 0)
(0.073727 -0.0179641 0)
(-0.196075 0.664314 0)
(-0.572615 0.563122 0)
(-0.87565 0.330393 0)
(-0.901281 0.0881507 0)
(-0.865166 -0.01024 0)
(-0.73318 -0.127445 0)
(-0.708491 -0.245463 0)
(-0.258957 -0.485311 0)
(0.0475003 -0.641887 0)
(0.512331 -0.855656 0)
(0.8513 -0.948232 0)
(1.07739 -0.839801 0)
(1.24311 -0.65801 0)
(1.19275 -0.315458 0)
(1.02645 0.0700794 0)
(0.691786 0.300376 0)
(0.487736 0.360948 0)
(0.206508 0.298438 0)
(0.122351 0.0910942 0)
(-0.134808 0.746987 0)
(-0.494619 0.657288 0)
(-0.714935 0.431728 0)
(-0.490505 0.119932 0)
(-0.479184 -0.120999 0)
(-0.377951 -0.185703 0)
(-0.404889 -0.286639 0)
(-0.0983354 -0.597189 0)
(0.227173 -0.814185 0)
(0.627935 -0.992271 0)
(0.903196 -1.0633 0)
(1.0815 -0.95598 0)
(1.20616 -0.601366 0)
(1.17024 -0.118002 0)
(0.95102 0.30404 0)
(0.655973 0.468826 0)
(0.500625 0.471839 0)
(0.27269 0.378639 0)
(0.1484 0.163472 0)
(-0.0856038 0.892867 0)
(-0.393064 0.846685 0)
(-0.444998 0.41928 0)
(-0.124695 -0.123896 0)
(-0.138847 -0.397289 0)
(0.0679954 -0.449715 0)
(0.0308258 -0.394277 0)
(0.143643 -0.627635 0)
(0.386544 -0.898392 0)
(0.706375 -1.0838 0)
(0.929344 -1.1515 0)
(1.08853 -1.1482 0)
(1.08716 -0.87414 0)
(1.00248 -0.0207134 0)
(0.856402 0.471562 0)
(0.604744 0.578028 0)
(0.501202 0.550085 0)
(0.255943 0.450897 0)
(0.0830117 0.244688 0)
(-0.0183718 0.941797 0)
(-0.2383 0.850958 0)
(-0.108427 0.218492 0)
(0.0817583 -0.160578 0)
(-0.0309891 0.127289 0)
(-0.233128 -0.00626901 0)
(0.517592 -0.792403 0)
(0.422231 -0.824531 0)
(0.537141 -0.954244 0)
(0.745609 -1.15309 0)
(0.933018 -1.24266 0)
(1.05849 -1.28445 0)
(1.13945 -1.10689 0)
(0.850344 -0.0342559 0)
(0.740424 0.55092 0)
(0.547089 0.60732 0)
(0.432859 0.619191 0)
(0.219357 0.523386 0)
(0.0759349 0.327631 0)
(0.0750629 0.993705 0)
(-0.0648406 0.908346 0)
(0.12986 0.154238 0)
(-0.0937801 -0.0295011 0)
(-0.277417 -0.244831 0)
(0.327578 -0.542746 0)
(-0.0328425 -0.370303 0)
(0.645345 -0.909911 0)
(0.67429 -1.03468 0)
(0.797668 -1.18696 0)
(0.940582 -1.28547 0)
(1.04912 -1.3089 0)
(1.15535 -1.07062 0)
(0.677772 -0.370758 0)
(0.648605 0.539422 0)
(0.498865 0.676277 0)
(0.427323 0.672583 0)
(0.24712 0.615813 0)
(0.102891 0.406461 0)
(0.37703 0.724445 0)
(0.347247 0.56287 0)
(0.452878 0.498229 0)
(0.754246 0.589303 0)
(0.994294 0.550632 0)
(0.972767 0.434835 0)
(0.7838 0.222067 0)
(0.502362 -0.0586397 0)
(0.433996 0.548985 0)
(0.0297698 0.312855 0)
(0.052676 -0.371117 0)
(0.0381263 -0.0604417 0)
(0.439904 0.432995 0)
(0.42747 0.353593 0)
(0.356852 0.264094 0)
(0.189581 0.00757104 0)
(0.474709 0.406496 0)
(0.478163 0.313745 0)
(0.476499 0.259894 0)
(0.418261 0.151257 0)
(0.710251 0.499743 0)
(0.649818 0.378767 0)
(0.629163 0.300416 0)
(0.574142 0.20055 0)
(1.03209 0.534914 0)
(1.02465 0.506873 0)
(0.981142 0.458503 0)
(0.908616 0.36039 0)
(1.05994 0.477861 0)
(1.10615 0.490932 0)
(1.11642 0.483501 0)
(1.11385 0.464465 0)
(0.953428 0.352486 0)
(1.041 0.420962 0)
(1.08273 0.467301 0)
(1.11055 0.467709 0)
(0.659633 0.0912454 0)
(0.823133 0.224823 0)
(0.909461 0.33242 0)
(0.999866 0.435849 0)
(0.379464 -0.182739 0)
(0.526028 -0.045332 0)
(0.59186 0.0124467 0)
(0.713171 0.164856 0)
(0.289002 -0.191206 0)
(0.370456 -0.0736409 0)
(0.413524 -0.0606753 0)
(0.483955 -0.00679167 0)
(0.37466 -0.501374 0)
(0.373416 -0.415767 0)
(0.43374 -0.40141 0)
(0.450216 -0.327034 0)
(0.628447 0.130748 0)
(0.516138 -0.118495 0)
(0.467863 -0.305723 0)
(0.426957 -0.388598 0)
(0.132762 -0.484974 0)
(0.172474 -0.4536 0)
(0.204634 -0.476695 0)
(0.225335 -0.47729 0)
(-0.254852 0.146759 0)
(-0.27121 0.0352813 0)
(-0.297014 0.0179121 0)
(-0.334758 -0.0129187 0)
(-0.179038 -0.242856 0)
(-0.182314 -0.218106 0)
(-0.197756 -0.172076 0)
(-0.20866 -0.151766 0)
(-0.264849 -0.0299941 0)
(-0.274532 -0.0446135 0)
(-0.27853 -0.0495959 0)
(-0.275166 -0.0593436 0)
(-0.247277 -0.126865 0)
(-0.248591 -0.108579 0)
(-0.244397 -0.096835 0)
(-0.241505 -0.0861542 0)
(0.278373 0.692016 0)
(0.233065 0.799447 0)
(0.29241 0.407595 0)
(0.178224 0.258829 0)
(0.177907 0.435039 0)
(0.731762 0.0757434 0)
(0.750596 -0.415061 0)
(0.840215 -0.783193 0)
(0.809282 -1.05647 0)
(0.862294 -1.23217 0)
(0.960108 -1.27513 0)
(1.05299 -1.27849 0)
(1.19861 -1.04109 0)
(0.761512 -0.42633 0)
(0.536796 0.352041 0)
(0.425841 0.680357 0)
(0.370154 0.753032 0)
(0.224537 0.729538 0)
(0.099773 0.506238 0)
(0.283452 0.262778 0)
(0.628661 0.448276 0)
(0.688195 0.398007 0)
(0.65361 0.40431 0)
(0.78114 0.155747 0)
(0.895731 -0.0859261 0)
(0.910201 -0.250626 0)
(0.889756 -0.6844 0)
(0.905717 -1.03932 0)
(0.931883 -1.21062 0)
(1.03632 -1.2159 0)
(1.08593 -1.17576 0)
(1.0538 -0.661637 0)
(0.708607 0.283536 0)
(0.498484 0.0518432 0)
(0.363507 0.557315 0)
(0.305369 0.807023 0)
(0.194246 0.820728 0)
(0.117218 0.644657 0)
(0.437931 0.176541 0)
(0.635167 0.231622 0)
(0.820771 0.174149 0)
(0.838957 0.162619 0)
(0.845862 0.0926538 0)
(0.866003 -0.15958 0)
(0.885424 -0.389435 0)
(0.924588 -0.705558 0)
(0.942589 -1.01885 0)
(1.00736 -1.14469 0)
(1.08255 -1.10775 0)
(1.06353 -1.05272 0)
(0.548437 0.233684 0)
(0.656711 1.35153 0)
(-0.250501 0.538183 0)
(0.385702 0.144741 0)
(0.267617 0.809552 0)
(0.178446 0.893825 0)
(0.124852 0.784495 0)
(0.536448 0.146254 0)
(0.588346 0.137656 0)
(0.713306 0.122664 0)
(0.831228 0.0620175 0)
(0.877235 -0.130157 0)
(0.910974 -0.311616 0)
(0.959588 -0.47132 0)
(1.0019 -0.732281 0)
(1.05786 -1.00168 0)
(1.08416 -1.04505 0)
(1.11932 -1.02222 0)
(0.964026 -0.858423 0)
(0.099221 0.544767 0)
(0.570174 1.53273 0)
(0.378811 0.580337 0)
(0.246421 0.136141 0)
(0.230547 0.759129 0)
(0.12965 0.922581 0)
(0.0772435 0.905977 0)
(0.778285 0.21113 0)
(0.703129 0.120477 0)
(0.727691 0.0590449 0)
(0.788733 -0.0231777 0)
(0.875275 -0.198317 0)
(0.948815 -0.371331 0)
(1.0157 -0.538109 0)
(1.07641 -0.789679 0)
(1.11699 -0.946439 0)
(1.13233 -0.958814 0)
(1.1268 -0.945254 0)
(0.714728 -0.456609 0)
(0.0549324 0.542027 0)
(0.349796 1.46078 0)
(0.731369 1.05671 0)
(-0.179836 0.368487 0)
(0.242021 0.592606 0)
(0.0809689 0.982323 0)
(0.0598617 1.00174 0)
(1.04316 0.3629 0)
(0.881599 0.192362 0)
(0.837472 0.0741516 0)
(0.857383 -0.0376895 0)
(0.915716 -0.213648 0)
(0.986688 -0.383473 0)
(1.05824 -0.585282 0)
(1.11697 -0.813422 0)
(1.16812 -0.88721 0)
(1.17568 -0.878371 0)
(1.01373 -0.774026 0)
(0.196807 0.203964 0)
(0.0219434 0.564973 0)
(0.000258682 1.18327 0)
(0.733325 1.41737 0)
(-0.358006 0.445396 0)
(0.274052 0.413582 0)
(0.0799545 1.01916 0)
(0.060257 1.07021 0)
(1.11055 0.433216 0)
(1.04388 0.289894 0)
(0.975277 0.112616 0)
(0.963007 -0.0592918 0)
(1.01741 -0.241955 0)
(1.08235 -0.41793 0)
(1.13897 -0.616802 0)
(1.17906 -0.759966 0)
(1.21553 -0.791052 0)
(1.19949 -0.789906 0)
(0.487439 -0.234421 0)
(-0.107745 0.44153 0)
(-0.0411427 0.554993 0)
(0.0249883 0.772956 0)
(0.660567 1.37054 0)
(0.318788 0.751579 0)
(0.290017 0.3627 0)
(0.0947598 1.03623 0)
(0.0346454 1.12862 0)
(1.06514 0.434517 0)
(1.05974 0.355068 0)
(1.04869 0.170022 0)
(1.07996 -0.0456054 0)
(1.12947 -0.235087 0)
(1.1662 -0.398805 0)
(1.19259 -0.583613 0)
(1.21939 -0.677345 0)
(1.21656 -0.725682 0)
(0.787921 -0.514979 0)
(-0.156181 0.354904 0)
(-0.13664 0.439571 0)
(-0.0616426 0.476479 0)
(0.0245069 0.55133 0)
(0.362588 1.25999 0)
(0.487294 0.927175 0)
(0.0979115 0.516637 0)
(0.135311 1.03253 0)
(0.01804 1.1745 0)
(0.922873 0.331747 0)
(1.0004 0.303437 0)
(1.05146 0.143766 0)
(1.11752 -0.0924846 0)
(1.1592 -0.232781 0)
(1.1908 -0.402245 0)
(1.20867 -0.527598 0)
(1.19825 -0.592083 0)
(0.899556 -0.539823 0)
(-0.214009 0.243608 0)
(-0.192981 0.355266 0)
(-0.142558 0.39057 0)
(-0.0904053 0.381394 0)
(-0.0236347 0.444443 0)
(0.029137 1.01906 0)
(0.504827 0.992029 0)
(-0.0548977 0.734693 0)
(0.195375 1.06961 0)
(0.0195945 1.23519 0)
(0.677426 0.186135 0)
(0.829419 0.224462 0)
(0.936828 0.123625 0)
(0.989767 -0.0372164 0)
(1.0625 -0.207138 0)
(1.15915 -0.350701 0)
(1.1483 -0.491527 0)
(0.794988 -0.416004 0)
(-0.159563 0.174301 0)
(-0.226161 0.270821 0)
(-0.171325 0.299302 0)
(-0.128415 0.342947 0)
(-0.0845867 0.331379 0)
(-0.0126127 0.422466 0)
(-0.0197929 0.768703 0)
(0.494407 0.956871 0)
(0.102424 0.862183 0)
(0.220881 1.13433 0)
(0.0339798 1.3079 0)
(0.597498 -0.00299703 0)
(0.764377 0.0365234 0)
(0.836534 -0.0460595 0)
(0.8555 -0.246366 0)
(0.906731 -0.43456 0)
(0.722382 -0.49696 0)
(-0.164868 0.0992213 0)
(-0.272205 0.170944 0)
(-0.251703 0.195781 0)
(-0.218043 0.234229 0)
(-0.137313 0.245981 0)
(-0.111268 0.29779 0)
(-0.0646362 0.272609 0)
(0.0232584 0.382072 0)
(0.0189589 0.565716 0)
(0.467305 0.863994 0)
(0.054085 1.01515 0)
(0.189525 1.19047 0)
(0.0448243 1.36496 0)
(0.502759 -0.492558 0)
(0.663479 -0.360258 0)
(0.664934 -0.38953 0)
(0.602692 -0.328899 0)
(0.130657 0.0392287 0)
(-0.177172 0.0540952 0)
(-0.182538 0.027767 0)
(-0.201035 0.086428 0)
(-0.178894 0.151592 0)
(-0.177148 0.196806 0)
(-0.105786 0.207778 0)
(-0.0966367 0.259276 0)
(-0.0361986 0.220181 0)
(0.0428597 0.337175 0)
(0.0445253 0.408331 0)
(0.448156 0.823065 0)
(-0.0449222 1.22921 0)
(0.148428 1.19472 0)
(0.036998 1.40776 0)
(0.189231 -0.329898 0)
(0.0509755 0.0706634 0)
(-0.152 0.135111 0)
(-0.161317 0.0667233 0)
(-0.143591 0.0840153 0)
(-0.152276 0.104163 0)
(-0.180784 0.109672 0)
(-0.191453 0.119393 0)
(-0.156211 0.143819 0)
(-0.158888 0.166089 0)
(-0.0773148 0.176278 0)
(-0.0924535 0.217915 0)
(-0.00889909 0.167503 0)
(0.0334396 0.286208 0)
(0.0643797 0.267664 0)
(0.411529 0.822755 0)
(-0.131843 1.41865 0)
(0.141763 1.16552 0)
(0.0127844 1.45179 0)
(-0.371213 -0.0420086 0)
(-0.311794 -0.0484826 0)
(-0.234323 0.0152542 0)
(-0.218257 0.109012 0)
(-0.198273 0.111156 0)
(-0.176664 0.0812546 0)
(-0.164984 0.0804633 0)
(-0.166504 0.10027 0)
(-0.130888 0.122245 0)
(-0.142543 0.140133 0)
(-0.0569335 0.148916 0)
(-0.0944281 0.17988 0)
(0.0163983 0.127635 0)
(-0.00331611 0.238748 0)
(0.084618 0.165235 0)
(0.26514 0.895498 0)
(-0.135158 1.49587 0)
(0.153077 1.14374 0)
(-0.00677875 1.50158 0)
(-0.24977 -0.11085 0)
(-0.291368 -0.00789714 0)
(-0.285924 0.0471542 0)
(-0.243815 0.0617322 0)
(-0.204448 0.0755351 0)
(-0.175167 0.0723965 0)
(-0.158173 0.0783229 0)
(-0.152792 0.0875664 0)
(-0.113266 0.104104 0)
(-0.130578 0.11535 0)
(-0.0415004 0.124613 0)
(-0.0998656 0.143518 0)
(0.0370635 0.103242 0)
(-0.0497414 0.190107 0)
(0.109368 0.118712 0)
(0.0604501 0.93197 0)
(0.0393564 1.50316 0)
(0.162054 1.14421 0)
(-0.0103236 1.54612 0)
(-0.276734 -0.0680251 0)
(-0.262513 -0.0469273 0)
(-0.241809 -0.000620583 0)
(-0.215546 0.0306112 0)
(-0.190263 0.0462983 0)
(-0.169108 0.0534408 0)
(-0.149225 0.0620817 0)
(-0.140372 0.0737125 0)
(-0.101233 0.085754 0)
(-0.120447 0.093537 0)
(-0.0305432 0.104275 0)
(-0.101326 0.111055 0)
(0.0509563 0.0921068 0)
(-0.0822336 0.14082 0)
(0.140697 0.117555 0)
(-0.0649679 0.866785 0)
(0.333859 1.43885 0)
(0.179705 1.18627 0)
(-0.00787603 1.59385 0)
(-0.249231 -0.0613479 0)
(-0.246497 -0.030815 0)
(-0.233625 -0.00173042 0)
(-0.205298 0.00612002 0)
(-0.182921 0.0242183 0)
(-0.159855 0.0359584 0)
(-0.139486 0.0446771 0)
(-0.129071 0.0574196 0)
(-0.0913225 0.0678344 0)
(-0.111235 0.073053 0)
(-0.0223036 0.0860351 0)
(-0.0998284 0.0830944 0)
(0.0587279 0.083293 0)
(-0.0959109 0.0952048 0)
(0.162248 0.119252 0)
(-0.0992238 0.744154 0)
(0.478684 1.3265 0)
(0.210364 1.30903 0)
(-0.00188149 1.66728 0)
)
;

boundaryField
{
    leftWall
    {
        type            fixedValue;
        value           nonuniform 0();
    }
    rightWall
    {
        type            fixedValue;
        value           uniform (0 0 0);
    }
    lowerWall
    {
        type            fixedValue;
        value           uniform (0 0 0);
    }
    atmosphere
    {
        type            fluxCorrectedVelocity;
        value           nonuniform 0();
    }
    defaultFaces
    {
        type            empty;
    }
    procBoundary1to0
    {
        type            processor;
        value           nonuniform List<vector> 
26
(
(0.171305 0.0369771 0)
(0.221269 0.100508 0)
(0.190097 0.149344 0)
(0.173809 0.210454 0)
(0.224863 0.297204 0)
(0.246876 0.416398 0)
(0.256185 0.601389 0)
(0.21836 0.666243 0)
(0.267044 0.636211 0)
(0.282858 0.51598 0)
(0.482876 0.52161 0)
(0.80526 0.593517 0)
(0.870959 0.452465 0)
(0.797146 0.298876 0)
(0.61226 0.124059 0)
(0.35818 -0.0925183 0)
(0.276721 -0.212745 0)
(0.276721 -0.212745 0)
(0.22083 -0.205977 0)
(0.354185 -0.563675 0)
(0.799488 0.22421 0)
(0.0836429 -0.558087 0)
(-0.203664 0.1171 0)
(-0.222867 -0.245208 0)
(-0.255925 -0.0612008 0)
(-0.268927 -0.15244 0)
)
;
    }
    procBoundary1to3
    {
        type            processor;
        value           nonuniform List<vector> 
23
(
(-0.220785 -0.119174 0)
(-0.219364 -0.114092 0)
(-0.216526 -0.102943 0)
(-0.213006 -0.0964066 0)
(-0.217154 -0.0790489 0)
(-0.212816 -0.0548528 0)
(-0.198016 -0.0311376 0)
(-0.179564 -0.0138551 0)
(-0.168635 0.00639244 0)
(-0.14945 0.0179542 0)
(-0.12909 0.0285035 0)
(-0.11868 0.0419157 0)
(-0.0835714 0.0501755 0)
(-0.101995 0.0544949 0)
(-0.0167787 0.069292 0)
(-0.0963922 0.0578276 0)
(0.0623837 0.0747124 0)
(-0.0998619 0.0553423 0)
(0.169253 0.10808 0)
(-0.0988074 0.606725 0)
(0.546138 1.20208 0)
(0.153851 1.50726 0)
(0.0151387 1.77644 0)
)
;
    }
}


// ************************************************************************* //
