/*--------------------------------*- C++ -*----------------------------------*\
| =========                 |                                                 |
| \\      /  F ield         | OpenFOAM: The Open Source CFD Toolbox           |
|  \\    /   O peration     | Version:  2.4.0                                 |
|   \\  /    A nd           | Web:      www.OpenFOAM.org                      |
|    \\/     M anipulation  |                                                 |
\*---------------------------------------------------------------------------*/
FoamFile
{
    version     2.0;
    format      ascii;
    class       volScalarField;
    location    "0.05";
    object      alpha.water;
}
// * * * * * * * * * * * * * * * * * * * * * * * * * * * * * * * * * * * * * //

dimensions      [0 0 0 0 0 0 0];

internalField   nonuniform List<scalar> 
575
(
1.47279e-28
9.09876e-28
1.21609e-29
8.44014e-32
1.50006e-29
5.48052e-29
6.25403e-31
3.63651e-33
1.2902e-30
2.63728e-30
2.49295e-32
1.25956e-34
4.917e-32
6.90417e-32
5.82361e-34
2.89199e-36
1.20717e-33
1.21425e-33
9.30037e-36
4.59309e-38
1.31343e-35
1.12108e-35
9.3124e-38
4.91022e-40
1.0323e-37
7.35476e-38
6.57496e-40
3.72062e-42
5.10592e-40
3.27809e-40
3.32892e-42
2.07447e-44
1.89202e-42
1.07928e-42
1.25461e-44
8.72938e-47
5.29776e-45
2.71218e-45
3.63505e-47
2.84495e-49
1.14979e-47
5.32438e-48
8.28149e-50
7.32874e-52
1.96609e-50
8.31986e-51
1.51081e-52
1.51802e-54
2.682e-53
1.05049e-53
2.24073e-55
2.56593e-57
2.94958e-56
1.08563e-56
2.73749e-58
3.58614e-60
2.64058e-59
9.29008e-60
2.78782e-61
4.19388e-63
1.94238e-62
6.65499e-63
2.39315e-64
4.15022e-66
1.18523e-65
4.03364e-66
1.75049e-67
3.51285e-69
6.05966e-69
2.0909e-69
1.10278e-70
2.57018e-72
2.62386e-72
9.37269e-73
6.04893e-74
1.64269e-75
9.73535e-76
3.67545e-76
2.92125e-77
9.26976e-79
3.13489e-79
1.27635e-79
1.25654e-80
4.66909e-82
8.88335e-83
3.97605e-83
4.87218e-84
2.12278e-85
2.24871e-86
1.12639e-86
1.72442e-87
8.81227e-89
5.16732e-90
2.94414e-90
5.64396e-91
3.38012e-92
1.09896e-93
7.21241e-94
1.73159e-94
1.2127e-95
2.66217e-34
8.4747e-37
3.42122e-39
1.51834e-41
6.56713e-44
2.60513e-46
9.44889e-49
3.01236e-51
8.26743e-54
1.93416e-56
3.86563e-59
6.58139e-62
9.20848e-65
1.03973e-67
9.23646e-71
6.21427e-74
3.00383e-77
9.20658e-81
1.31563e-84
9.35073e-36
2.27939e-38
7.2227e-41
2.60382e-43
9.41197e-46
3.18881e-48
1.00369e-50
2.79488e-53
6.75508e-56
1.40145e-58
2.50803e-61
3.83282e-64
4.83862e-67
4.95354e-70
4.00869e-73
2.46879e-76
1.09915e-79
3.10968e-83
4.10228e-87
2.6569e-37
5.1803e-40
1.31973e-42
3.93085e-45
1.20175e-47
3.51515e-50
9.66227e-53
2.36495e-55
5.06137e-58
9.35653e-61
1.50513e-63
2.07199e-66
2.36702e-69
2.20236e-72
1.62651e-75
9.18682e-79
3.76703e-82
9.83738e-86
1.19797e-89
5.60479e-39
9.49232e-42
2.02709e-44
5.11895e-47
1.34701e-49
3.44989e-52
8.35322e-55
1.81136e-57
3.45529e-60
5.72327e-63
8.3158e-66
1.0353e-68
1.07375e-71
9.10348e-75
6.14763e-78
3.191e-81
1.20443e-84
2.9033e-88
3.26205e-92
8.54104e-41
1.3523e-43
2.55286e-46
5.65074e-49
1.30854e-51
2.98292e-54
6.43237e-57
1.24728e-59
2.13675e-62
3.19128e-65
4.20973e-68
4.76015e-71
4.49768e-74
3.48416e-77
2.15583e-80
1.03006e-83
3.58137e-87
7.9697e-91
8.25534e-95
9.59724e-43
1.49417e-45
2.60978e-48
5.23051e-51
1.09155e-53
2.2532e-56
4.3821e-59
7.67661e-62
1.19082e-64
1.61478e-67
1.94454e-70
2.00614e-73
1.73319e-76
1.23027e-79
6.98955e-83
3.07828e-86
9.86515e-90
2.02659e-93
1.93386e-97
7.9757e-45
1.28293e-47
2.15998e-50
4.0397e-53
7.77635e-56
1.47835e-58
2.62776e-61
4.20352e-64
5.95558e-67
7.3865e-70
8.16493e-73
7.72166e-76
6.12272e-79
3.99398e-82
2.08798e-85
8.48844e-89
2.50899e-92
4.75761e-96
4.1791e-100
5.00562e-47
8.64075e-50
1.45072e-52
2.6011e-55
4.72053e-58
8.39725e-61
1.38233e-63
2.04094e-66
2.66413e-69
3.04517e-72
3.10645e-75
2.70568e-78
1.97646e-81
1.18826e-84
5.7284e-88
2.1528e-91
5.87237e-95
1.02773e-98
8.30348e-103
2.41931e-49
4.61867e-52
7.95207e-55
1.39925e-57
2.44191e-60
4.12412e-63
6.36719e-66
8.76705e-69
1.06339e-71
1.1287e-74
1.06811e-77
8.60772e-81
5.81392e-84
3.23048e-87
1.4392e-90
5.00552e-94
1.2607e-97
2.03585e-101
1.51154e-105
9.18357e-52
1.98398e-54
3.58411e-57
6.31472e-60
1.07843e-62
1.75192e-65
2.5665e-68
3.32791e-71
3.7814e-74
3.75432e-77
3.31209e-80
2.48064e-83
1.55469e-86
8.00516e-90
3.30266e-93
1.06398e-96
2.47516e-100
3.68691e-104
2.51301e-108
2.78695e-54
6.9354e-57
1.33946e-59
2.40366e-62
4.07862e-65
6.44727e-68
9.05758e-71
1.11602e-73
1.19695e-76
1.11917e-79
9.24789e-83
6.46423e-86
3.77162e-89
1.80406e-92
6.90646e-96
2.06216e-99
4.43195e-103
6.08657e-107
3.80439e-111
6.86722e-57
1.99689e-59
4.18721e-62
7.76479e-65
1.32612e-67
2.06074e-70
2.80265e-73
3.30812e-76
3.37219e-79
2.98757e-82
2.32259e-85
1.52103e-88
8.2869e-92
3.69044e-95
1.31339e-98
3.6359e-102
7.21945e-106
9.13552e-110
5.22991e-114
1.39282e-59
4.78971e-62
1.10448e-64
2.14282e-67
3.72358e-70
5.73943e-73
7.61951e-76
8.67819e-79
8.46006e-82
7.13977e-85
5.24372e-88
3.22854e-91
1.6469e-94
6.84153e-98
2.26706e-101
5.81999e-105
1.06754e-108
1.24379e-112
6.51322e-117
2.35382e-62
9.6733e-65
2.47958e-67
5.0863e-70
9.07371e-73
1.39813e-75
1.82494e-78
2.01829e-81
1.89194e-84
1.52799e-87
1.06414e-90
6.17854e-94
2.9577e-97
1.14799e-100
3.54634e-104
8.44261e-108
1.43013e-111
1.53281e-115
7.33207e-120
3.35186e-65
1.66165e-67
4.77801e-70
1.04565e-72
1.92904e-75
2.99144e-78
3.86277e-81
4.17086e-84
3.7772e-87
2.9308e-90
1.94181e-93
1.06593e-96
4.79767e-100
1.74205e-103
5.02101e-107
1.10829e-110
1.73286e-114
1.70678e-118
7.44648e-123
4.06453e-68
2.45132e-70
7.9683e-73
1.87479e-75
3.59775e-78
5.64704e-81
7.25114e-84
7.67917e-87
6.74527e-90
5.0449e-93
3.18858e-96
1.65828e-99
7.02814e-103
2.38948e-106
6.42813e-110
1.31522e-113
1.8968e-117
1.71485e-121
6.81346e-126
4.23996e-71
3.13488e-73
1.15954e-75
2.9521e-78
5.92038e-81
9.45028e-84
1.21185e-86
1.26349e-89
1.07996e-92
7.80672e-96
4.71714e-99
2.328e-102
9.30047e-106
2.96234e-109
7.43795e-113
1.41003e-116
1.87401e-120
1.55315e-124
5.61091e-129
3.84299e-74
3.50735e-76
1.48432e-78
4.11099e-81
8.64728e-84
1.40909e-86
1.81068e-89
1.86412e-92
1.55439e-95
1.08829e-98
6.29696e-102
2.95236e-105
1.11254e-108
3.32046e-112
7.7789e-116
1.36541e-119
1.6706e-123
1.26751e-127
4.15671e-132
3.05662e-77
3.46423e-79
1.68504e-81
5.09844e-84
1.12792e-86
1.88185e-89
2.42949e-92
2.47531e-95
2.01736e-98
1.3701e-101
7.59964e-105
3.38733e-108
1.20431e-111
3.3676e-115
7.35712e-119
1.1947e-122
1.34413e-126
9.3233e-131
2.7713e-135
2.1548e-80
3.0481e-82
1.71022e-84
5.671e-87
1.32215e-89
2.26346e-92
2.94121e-95
2.97023e-98
2.36894e-101
1.56211e-104
8.3113e-108
3.52259e-111
1.18148e-114
3.09419e-118
6.29887e-122
9.45361e-126
9.7689e-130
6.18652e-134
1.66434e-138
1.36001e-83
2.41091e-85
1.56459e-87
5.69777e-90
1.40179e-92
2.46587e-95
3.22879e-98
3.2347e-101
2.5264e-104
1.61809e-107
8.259e-111
3.32795e-114
1.05252e-117
2.58016e-121
4.88965e-125
6.77557e-129
6.42315e-133
3.70889e-137
9.01641e-142
7.76392e-87
1.72991e-88
1.30083e-90
5.20847e-93
1.35316e-95
2.44758e-98
3.23092e-101
3.2119e-104
2.45701e-107
1.52811e-110
7.48009e-114
2.86402e-117
8.5351e-121
1.95713e-124
3.44918e-128
4.40823e-132
3.82934e-136
2.01334e-140
4.41468e-145
4.05074e-90
1.13644e-91
9.91063e-94
4.3637e-96
1.19727e-98
2.2269e-101
2.9631e-104
2.92203e-107
2.1887e-110
1.32084e-113
6.19607e-117
2.25235e-120
6.3187e-124
1.35428e-127
2.21698e-131
2.61046e-135
2.07532e-139
9.91835e-144
1.95664e-148
1.95198e-93
6.89862e-95
6.9765e-97
3.37565e-99
9.7762e-102
1.86872e-104
2.50458e-107
2.44798e-110
1.79424e-113
1.04934e-116
4.71225e-120
1.62446e-123
4.28512e-127
8.57761e-131
1.30252e-134
1.41121e-138
1.02504e-142
4.44194e-147
7.85392e-152
8.7812e-97
3.90572e-98
4.57543e-100
2.42922e-102
7.41765e-105
1.45547e-107
1.9624e-110
1.89851e-113
1.36026e-116
7.69635e-120
3.30405e-123
1.0787e-126
2.67201e-130
4.99047e-134
7.01821e-138
6.98461e-142
4.62405e-146
1.81035e-150
2.85437e-155
)
;

boundaryField
{
    leftWall
    {
        type            zeroGradient;
    }
    rightWall
    {
        type            zeroGradient;
    }
    lowerWall
    {
        type            zeroGradient;
    }
    atmosphere
    {
        type            inletOutlet;
        inletValue      uniform 0;
        value           nonuniform List<scalar> 
23
(
1.09896e-93
7.21241e-94
1.73159e-94
1.2127e-95
8.7812e-97
3.90572e-98
4.57543e-100
2.42922e-102
7.41765e-105
1.45547e-107
1.9624e-110
1.89851e-113
1.36026e-116
7.69635e-120
3.30405e-123
1.0787e-126
2.67201e-130
4.99047e-134
7.01821e-138
6.98461e-142
4.62405e-146
1.81035e-150
2.85437e-155
)
;
    }
    defaultFaces
    {
        type            empty;
    }
    procBoundary3to1
    {
        type            processor;
        value           nonuniform List<scalar> 
23
(
4.99883e-27
1.45171e-26
2.12891e-28
1.7235e-30
6.57367e-33
2.76863e-35
1.44402e-37
7.95443e-40
4.14423e-42
1.93854e-44
8.13566e-47
2.98352e-49
9.33859e-52
2.47346e-54
5.53896e-57
1.05394e-59
1.6388e-62
2.0453e-65
1.99795e-68
1.47078e-71
7.73059e-75
2.56713e-78
3.97204e-82
)
;
    }
    procBoundary3to2
    {
        type            processor;
        value           nonuniform List<scalar> 
25
(
2.54407e-31
7.48159e-31
1.20672e-31
3.7321e-33
6.80381e-35
7.41341e-37
4.53965e-39
2.01188e-41
6.3119e-44
1.47002e-46
2.61886e-49
3.63469e-52
3.98532e-55
3.49149e-58
2.4686e-61
1.42177e-64
6.73086e-68
2.64229e-71
8.67333e-75
2.39795e-78
5.6101e-82
1.1089e-85
1.8192e-89
2.30829e-93
1.57524e-97
)
;
    }
}


// ************************************************************************* //
