/*--------------------------------*- C++ -*----------------------------------*\
| =========                 |                                                 |
| \\      /  F ield         | OpenFOAM: The Open Source CFD Toolbox           |
|  \\    /   O peration     | Version:  2.4.0                                 |
|   \\  /    A nd           | Web:      www.OpenFOAM.org                      |
|    \\/     M anipulation  |                                                 |
\*---------------------------------------------------------------------------*/
FoamFile
{
    version     2.0;
    format      ascii;
    class       volScalarField;
    location    "0.05";
    object      alpha.oil;
}
// * * * * * * * * * * * * * * * * * * * * * * * * * * * * * * * * * * * * * //

dimensions      [0 0 0 0 0 0 0];

internalField   nonuniform List<scalar> 
575
(
0.00512396
5.83925e-07
2.59792e-08
7.68507e-10
0.000123577
6.42328e-07
4.43961e-09
9.76281e-11
3.72881e-05
9.18309e-07
5.60374e-10
9.58989e-12
3.45483e-06
1.18007e-06
3.5337e-09
6.11504e-13
3.99443e-07
6.15562e-07
1.36285e-09
2.63572e-14
5.26292e-08
6.80152e-08
2.412e-10
7.44192e-16
3.22621e-09
4.35573e-09
2.09083e-11
1.45149e-17
9.20631e-11
1.43149e-10
9.73952e-13
2.03554e-19
1.62643e-12
3.03985e-12
2.7282e-14
2.1155e-21
1.90203e-14
4.32323e-14
5.00073e-16
1.68153e-23
1.56245e-16
4.3387e-16
6.3567e-18
1.04959e-25
9.37685e-19
3.19379e-18
5.849e-20
5.26524e-28
4.23276e-21
1.77624e-20
4.02593e-22
2.16673e-30
1.47077e-23
7.64396e-23
2.12839e-24
7.44726e-33
4.01069e-26
2.59717e-25
8.83512e-27
2.17128e-35
8.72915e-29
7.0911e-28
2.93531e-29
5.44019e-38
1.53969e-31
1.58097e-30
7.93964e-32
1.18402e-40
2.23222e-34
2.92182e-33
1.77617e-34
2.25867e-43
2.69556e-37
4.54131e-36
3.33533e-37
3.80638e-46
2.74501e-40
6.02114e-39
5.33271e-40
5.70906e-49
2.38378e-43
6.9073e-42
7.36107e-43
7.67854e-52
1.78136e-46
6.95494e-45
8.89345e-46
9.33508e-55
1.15134e-49
6.23687e-48
9.53373e-49
1.0347e-57
6.41385e-53
5.05609e-51
9.19319e-52
1.05536e-60
3.00943e-56
3.76447e-54
8.08589e-55
1.00049e-63
8.54397e-12
7.65532e-14
5.94929e-16
4.40039e-18
3.08802e-20
2.03271e-22
1.2375e-24
6.66359e-27
3.125e-29
1.26239e-31
4.45491e-34
1.34544e-36
3.35513e-39
6.77889e-42
1.0815e-44
1.31248e-47
1.15205e-50
6.41965e-54
1.6743e-57
8.60869e-13
5.60705e-15
3.37693e-17
2.00853e-19
1.16872e-21
6.53273e-24
3.39272e-26
1.57205e-28
6.39974e-31
2.26339e-33
7.08268e-36
1.89784e-38
4.22663e-41
7.67605e-44
1.10773e-46
1.22613e-49
9.87356e-53
5.06809e-56
1.22008e-59
6.86682e-14
3.37477e-16
1.60462e-18
7.80058e-21
3.8168e-23
1.82835e-25
8.17595e-28
3.29092e-30
1.1729e-32
3.66214e-35
1.02194e-37
2.44405e-40
4.8864e-43
8.01228e-46
1.04984e-48
1.0641e-51
7.86895e-55
3.72661e-58
8.29389e-62
3.96927e-15
1.59758e-17
6.22821e-20
2.53707e-22
1.06299e-24
4.41525e-27
1.72015e-29
6.07862e-32
1.91433e-34
5.32469e-37
1.3329e-39
2.86291e-42
5.16621e-45
7.68349e-48
9.17739e-51
8.54656e-54
5.81496e-57
2.54516e-60
5.24285e-64
1.61508e-16
5.74954e-19
1.93339e-21
6.81711e-24
2.49931e-26
9.133e-29
3.14206e-31
9.86065e-34
2.77122e-36
6.93186e-39
1.56619e-41
3.0406e-44
4.97968e-47
6.74897e-50
7.37869e-53
6.33208e-56
3.97349e-59
1.61024e-62
3.07281e-66
4.71341e-18
1.5716e-20
4.76698e-23
1.50213e-25
4.92802e-28
1.61028e-30
4.96284e-33
1.39992e-35
3.54705e-38
8.05514e-41
1.65344e-43
2.9203e-46
4.36479e-49
5.41612e-52
5.4432e-55
4.31627e-58
2.50409e-61
9.41151e-65
1.66543e-68
9.90852e-20
3.275e-22
9.33635e-25
2.7091e-27
8.12537e-30
2.4142e-32
6.76252e-35
1.73552e-37
4.00569e-40
8.33556e-43
1.56507e-45
2.53118e-48
3.47185e-51
3.9628e-54
3.67673e-57
2.70098e-60
1.45214e-63
5.07026e-67
8.32834e-71
1.53578e-21
5.2624e-24
1.4597e-26
4.0066e-29
1.12062e-31
3.07725e-34
7.94444e-37
1.87701e-39
3.98657e-42
7.66927e-45
1.32642e-47
1.977e-50
2.5022e-53
2.63921e-56
2.27027e-59
1.54882e-62
7.73459e-66
2.51289e-69
3.83513e-73
1.79499e-23
6.611e-26
1.83666e-28
4.88168e-31
1.29628e-33
3.34044e-36
8.05282e-39
1.77136e-41
3.49581e-44
6.26929e-47
1.00582e-49
1.39024e-52
1.63224e-55
1.59804e-58
1.27973e-61
8.12737e-65
3.77841e-68
1.14403e-71
1.62375e-75
1.61847e-25
6.58945e-28
1.87807e-30
4.93163e-33
1.26332e-35
3.09784e-38
7.05755e-41
1.46045e-43
2.70284e-46
4.55381e-49
6.82351e-52
8.79861e-55
9.63172e-58
8.79091e-61
6.57898e-64
3.89893e-67
1.6911e-70
4.77907e-74
6.31369e-78
1.14959e-27
5.28853e-30
1.57719e-32
4.16206e-35
1.04324e-37
2.46475e-40
5.36427e-43
1.05425e-45
1.84526e-48
2.94172e-51
4.1436e-54
5.01267e-57
5.14106e-60
4.39234e-63
3.08282e-66
1.70901e-69
6.92998e-73
1.83054e-76
2.25292e-80
6.5535e-30
3.46629e-32
1.09954e-34
2.95845e-37
7.34716e-40
1.691e-42
3.54976e-45
6.68249e-48
1.11484e-50
1.69266e-53
2.25479e-56
2.57256e-59
2.48319e-62
1.99371e-65
1.31653e-68
6.84352e-72
2.59948e-75
6.42691e-79
7.37477e-83
3.04887e-32
1.88034e-34
6.43134e-37
1.78621e-39
4.44373e-42
1.00605e-44
2.05436e-47
3.73263e-50
5.97735e-53
8.69389e-56
1.1013e-58
1.19079e-61
1.08634e-64
8.22663e-68
5.12575e-71
2.5042e-74
8.92679e-78
2.06842e-81
2.2146e-85
1.17516e-34
8.54896e-37
3.18892e-39
9.23902e-42
2.32492e-44
5.22185e-47
1.04499e-49
1.84479e-52
2.85366e-55
3.99666e-58
4.83845e-61
4.97994e-64
4.31029e-67
3.08929e-70
1.82087e-73
8.3794e-77
2.80801e-80
6.10499e-84
6.10322e-88
3.80514e-37
3.29654e-39
1.35393e-41
4.12905e-44
1.05999e-46
2.37962e-49
4.69729e-52
8.10415e-55
1.21775e-57
1.64967e-60
1.91712e-63
1.8857e-66
1.55388e-69
1.05741e-72
5.90949e-76
2.56677e-79
8.09857e-83
1.65388e-86
1.54478e-90
1.0485e-39
1.0904e-41
4.97037e-44
1.60796e-46
4.24285e-49
9.58304e-52
1.87653e-54
3.18002e-57
4.66462e-60
6.13592e-63
6.8718e-66
6.48217e-69
5.10117e-72
3.3055e-75
1.7551e-78
7.20834e-82
2.14435e-85
4.1173e-89
3.59497e-93
2.48877e-42
3.1276e-44
1.59276e-46
5.50216e-49
1.50211e-51
3.43323e-54
6.70215e-57
1.12045e-59
1.6113e-62
2.06485e-65
2.23608e-68
2.02905e-71
1.52906e-74
9.45947e-78
4.78012e-81
1.85936e-84
5.22138e-88
9.43338e-92
7.70274e-96
5.14807e-45
7.86107e-47
4.49691e-49
1.66805e-51
4.73873e-54
1.10163e-56
2.15319e-59
3.56442e-62
5.04388e-65
6.31434e-68
6.63111e-71
5.80341e-74
4.19764e-77
2.48498e-80
1.1968e-83
4.41498e-87
1.1715e-90
1.99275e-94
1.52206e-98
9.38368e-48
1.74912e-49
1.12889e-51
4.51709e-54
1.34201e-56
3.18758e-59
6.26153e-62
1.02968e-64
1.43821e-67
1.76293e-70
1.79971e-73
1.52245e-76
1.05901e-79
6.01088e-83
2.76219e-86
9.6742e-90
2.42743e-93
3.8892e-97
2.77881e-101
1.5234e-50
3.47969e-52
2.54262e-54
1.10155e-56
3.43709e-59
8.37419e-62
1.65871e-64
2.71706e-67
3.75561e-70
4.51612e-73
4.49054e-76
3.67837e-79
2.46449e-82
1.34328e-85
5.89471e-89
1.96168e-92
4.65685e-96
7.02862e-100
4.69684e-104
2.22566e-53
6.24985e-55
5.1842e-57
2.4387e-59
8.01975e-62
2.01119e-64
4.02849e-67
6.58848e-70
9.03112e-73
1.067e-75
1.03499e-78
8.2207e-82
5.31142e-85
2.78328e-88
1.16701e-91
3.69197e-95
8.29356e-99
1.17904e-102
7.36547e-107
2.95582e-56
1.02317e-57
9.65376e-60
4.94087e-62
1.71731e-64
4.44578e-67
9.02778e-70
1.47704e-72
2.01117e-75
2.33737e-78
2.21436e-81
1.70713e-84
1.06452e-87
5.36698e-91
2.15071e-94
6.46938e-98
1.37503e-101
1.84044e-105
1.074e-109
3.60365e-59
1.54114e-60
1.65629e-62
9.23452e-65
3.3995e-67
9.10686e-70
1.87871e-72
3.07996e-75
4.17119e-78
4.77289e-81
4.41967e-84
3.30922e-87
1.99249e-90
9.66804e-94
3.70267e-97
1.05881e-100
2.12837e-104
2.68012e-108
1.45944e-112
4.07245e-62
2.1555e-63
2.64101e-65
1.60488e-67
6.26617e-70
1.74028e-72
3.65352e-75
6.0095e-78
8.10239e-81
9.13333e-84
8.27009e-87
6.01553e-90
3.49754e-93
1.63317e-96
5.97566e-100
1.62365e-103
3.08435e-107
3.65009e-111
1.85222e-115
4.30719e-65
2.82492e-66
3.94766e-68
2.61416e-70
1.08326e-72
3.12299e-75
6.68071e-78
1.10358e-80
1.48216e-83
1.64634e-86
1.45782e-89
1.03003e-92
5.78141e-96
2.59663e-99
9.07098e-103
2.33987e-106
4.19588e-110
4.66009e-114
2.19998e-118
)
;

boundaryField
{
    leftWall
    {
        type            zeroGradient;
    }
    rightWall
    {
        type            zeroGradient;
    }
    lowerWall
    {
        type            zeroGradient;
    }
    atmosphere
    {
        type            inletOutlet;
        inletValue      uniform 0;
        value           nonuniform List<scalar> 
23
(
3.00943e-56
3.76447e-54
8.08589e-55
1.00049e-63
4.30719e-65
2.82492e-66
3.94766e-68
2.61416e-70
1.08326e-72
3.12299e-75
6.68071e-78
1.10358e-80
1.48216e-83
1.64634e-86
1.45782e-89
1.03003e-92
5.78141e-96
2.59663e-99
9.07098e-103
2.33987e-106
4.19588e-110
4.66009e-114
2.19998e-118
)
;
    }
    defaultFaces
    {
        type            empty;
    }
    procBoundary3to1
    {
        type            processor;
        value           nonuniform List<scalar> 
23
(
0.070341
2.08166e-06
1.23129e-07
5.01351e-09
7.24673e-11
8.88584e-13
8.978e-15
8.32954e-17
7.12325e-19
5.56689e-21
3.99776e-23
2.52255e-25
1.37331e-27
6.38422e-30
2.55399e-32
8.74301e-35
2.4533e-37
5.53801e-40
9.80295e-43
1.30988e-45
1.25549e-48
7.60834e-52
2.15223e-55
)
;
    }
    procBoundary3to2
    {
        type            processor;
        value           nonuniform List<scalar> 
25
(
0.826729
0.247074
3.00002e-05
1.79968e-06
1.49937e-07
1.42427e-08
5.28255e-10
9.76761e-12
1.50657e-13
1.36873e-15
8.67581e-18
4.02908e-20
1.40984e-22
3.79692e-25
8.01099e-28
1.34462e-30
1.82e-33
2.01042e-36
1.83064e-39
1.38408e-42
8.70959e-46
4.5298e-49
1.89307e-52
5.80847e-56
8.72264e-60
)
;
    }
}


// ************************************************************************* //
