/*--------------------------------*- C++ -*----------------------------------*\
| =========                 |                                                 |
| \\      /  F ield         | OpenFOAM: The Open Source CFD Toolbox           |
|  \\    /   O peration     | Version:  2.4.0                                 |
|   \\  /    A nd           | Web:      www.OpenFOAM.org                      |
|    \\/     M anipulation  |                                                 |
\*---------------------------------------------------------------------------*/
FoamFile
{
    version     2.0;
    format      ascii;
    class       volScalarField;
    location    "0.05";
    object      alpha.mercury;
}
// * * * * * * * * * * * * * * * * * * * * * * * * * * * * * * * * * * * * * //

dimensions      [0 0 0 0 0 0 0];

internalField   nonuniform List<scalar> 
575
(
3.88495e-41
1.44468e-39
2.4401e-38
2.37317e-38
5.0846e-42
9.22514e-41
9.25618e-40
6.22842e-40
3.84513e-43
4.07196e-42
2.65123e-41
1.31631e-41
8.64357e-45
8.07502e-44
4.32894e-43
1.83671e-43
1.11174e-46
9.83766e-46
4.73684e-45
1.76627e-45
5.86416e-49
6.05589e-48
3.20317e-47
1.14115e-47
2.17492e-51
2.58909e-50
1.51111e-49
5.22533e-50
5.09042e-54
7.46355e-53
5.07037e-52
1.7635e-52
9.02424e-57
1.58666e-55
1.25828e-54
4.50385e-55
1.23406e-59
2.58366e-58
2.38829e-57
8.93585e-58
1.34176e-62
3.31129e-61
3.54905e-60
1.40527e-60
1.18218e-65
3.41323e-64
4.20648e-63
1.7806e-63
8.54791e-69
2.87783e-67
4.03683e-66
1.84285e-66
5.11614e-72
2.0114e-70
3.17666e-69
1.57617e-69
2.54984e-75
1.17782e-73
2.0725e-72
1.12556e-72
1.06289e-78
5.8275e-77
1.13224e-75
6.77367e-76
3.72013e-82
2.45315e-80
5.2278e-79
3.46523e-79
1.09756e-85
8.84002e-84
2.05818e-82
1.51941e-82
2.74124e-89
2.74309e-87
6.96939e-86
5.7562e-86
5.82182e-93
7.37566e-91
2.04749e-89
1.89923e-89
1.05579e-96
1.73038e-94
5.2649e-93
5.50149e-93
1.63958e-100
3.5698e-98
1.19568e-96
1.41052e-96
2.17887e-104
6.53297e-102
2.42064e-100
3.22767e-100
2.45517e-108
1.07098e-105
4.41078e-104
6.64868e-104
2.27589e-112
1.59047e-109
7.30783e-108
1.24396e-107
1.44559e-39
2.9629e-41
3.77068e-43
3.43227e-45
2.38613e-47
1.31183e-49
5.9122e-52
2.19517e-54
6.70568e-57
1.6878e-59
3.51968e-62
6.1003e-65
8.56071e-68
9.58201e-71
8.36171e-74
5.48822e-77
2.56877e-80
7.60453e-84
1.0478e-87
2.93914e-41
4.8147e-43
5.10763e-45
3.95336e-47
2.36923e-49
1.13374e-51
4.48831e-54
1.46933e-56
3.9774e-59
8.9118e-62
1.66496e-64
2.59026e-67
3.27566e-70
3.31665e-73
2.62792e-76
1.57191e-79
6.7387e-83
1.83097e-86
2.31423e-90
4.85812e-43
6.56838e-45
5.9038e-47
3.94206e-49
2.06014e-51
8.66701e-54
3.0375e-56
8.8278e-59
2.13002e-61
4.26965e-64
7.1727e-67
1.00503e-69
1.14838e-72
1.05389e-75
7.59198e-79
4.14283e-82
1.6265e-85
4.05344e-89
4.69644e-93
5.98784e-45
7.19824e-47
5.67267e-49
3.3418e-51
1.54778e-53
5.79954e-56
1.81625e-58
4.72401e-61
1.02277e-63
1.84423e-66
2.79882e-69
3.545e-72
3.67036e-75
3.0595e-78
2.00661e-81
1.00016e-84
3.59157e-88
8.20413e-92
8.70306e-96
5.35461e-47
6.12237e-49
4.43021e-51
2.37142e-53
9.93116e-56
3.36538e-58
9.52095e-61
2.23637e-63
4.37648e-66
7.14114e-69
9.83618e-72
1.1305e-74
1.06373e-77
8.07112e-81
4.82626e-84
2.19949e-87
7.22457e-91
1.51173e-94
1.46613e-98
3.54703e-49
4.03751e-51
2.78971e-53
1.39584e-55
5.39772e-58
1.6811e-60
4.34741e-63
9.31132e-66
1.65982e-68
2.46615e-71
3.09844e-74
3.24417e-77
2.78251e-80
1.92592e-83
1.0514e-86
4.38337e-90
1.3168e-93
2.52214e-97
2.23316e-101
1.74541e-51
2.07029e-53
1.4147e-55
6.79051e-58
2.47378e-60
7.19284e-63
1.72086e-65
3.39378e-68
5.55401e-71
7.5619e-74
8.71033e-77
8.34135e-80
6.54111e-83
4.13883e-86
2.06557e-89
7.88129e-93
2.16492e-96
3.79247e-100
3.06162e-104
6.51158e-54
8.33508e-56
5.79633e-58
2.73056e-60
9.54408e-63
2.62872e-65
5.88664e-68
1.07916e-70
1.63388e-73
2.05131e-76
2.17681e-79
1.914e-82
1.37625e-85
7.97669e-89
3.64371e-92
1.27328e-95
3.19766e-99
5.11963e-103
3.76434e-107
1.87666e-56
2.66551e-58
1.93052e-60
9.09993e-63
3.10135e-65
8.19843e-68
1.7372e-70
2.98699e-73
4.21454e-76
4.90882e-79
4.82091e-82
3.90626e-85
2.58248e-88
1.37365e-91
5.7496e-95
1.84083e-98
4.22594e-102
6.18033e-106
4.13589e-110
4.25768e-59
6.85296e-61
5.26585e-63
2.52413e-65
8.5057e-68
2.18309e-70
4.42037e-73
7.18739e-76
9.51494e-79
1.03402e-81
9.43697e-85
7.07038e-88
4.30842e-91
2.1067e-94
8.0882e-98
2.37356e-101
4.98093e-105
6.65264e-109
4.05161e-113
7.73297e-62
1.43329e-63
1.18583e-65
5.85763e-68
1.97501e-70
4.97081e-73
9.70196e-76
1.50276e-78
1.87801e-81
1.91427e-84
1.62947e-87
1.13227e-90
6.37369e-94
2.86927e-97
1.01144e-100
2.72194e-104
5.22325e-108
6.3741e-112
3.5363e-116
1.14079e-64
2.46563e-66
2.22246e-68
1.14373e-70
3.89732e-73
9.70003e-76
1.83877e-78
2.73069e-81
3.23884e-84
3.11118e-87
2.47802e-90
1.60131e-93
8.34338e-97
3.4628e-100
1.12205e-103
2.77042e-107
4.86566e-111
5.43256e-115
2.75155e-119
1.3842e-67
3.52405e-69
3.49378e-71
1.88988e-73
6.56307e-76
1.62671e-78
3.01423e-81
4.31553e-84
4.88069e-87
4.43623e-90
3.31529e-93
1.99701e-96
9.64837e-100
3.69701e-103
1.10275e-106
2.50088e-110
4.02726e-114
4.12466e-118
1.91386e-122
1.39665e-70
4.22357e-72
4.64128e-74
2.65812e-76
9.47266e-79
2.35174e-81
4.28249e-84
5.93859e-87
6.42925e-90
5.54834e-93
3.89965e-96
2.19417e-99
9.84659e-103
3.4887e-106
9.59753e-110
2.00353e-113
2.96733e-117
2.79877e-121
1.19475e-125
1.18333e-73
4.28065e-75
5.24708e-77
3.20047e-79
1.17698e-81
2.94071e-84
5.28576e-87
7.1265e-90
7.40942e-93
6.0874e-96
4.03262e-99
2.12351e-102
8.86747e-106
2.9109e-109
7.40608e-113
1.42742e-116
1.95262e-120
1.70373e-124
6.71275e-129
8.49371e-77
3.69768e-78
5.08202e-80
3.31707e-82
1.26449e-84
3.19157e-87
5.68242e-90
7.47154e-93
7.47967e-96
5.86294e-99
3.66804e-102
1.81121e-105
7.05336e-109
2.15117e-112
5.08159e-116
9.08124e-120
1.15291e-123
9.33878e-128
3.3959e-132
5.20757e-80
2.7424e-81
4.24389e-83
2.97539e-85
1.17984e-87
3.01715e-90
5.33561e-93
6.8582e-96
6.62474e-99
4.9637e-102
2.93862e-105
1.36372e-108
4.96683e-112
1.41271e-115
3.11352e-119
5.18552e-123
6.13333e-127
4.61338e-131
1.54019e-135
2.74853e-83
1.75854e-84
3.07443e-86
2.32207e-88
9.60273e-91
2.49359e-93
4.389e-96
5.52529e-99
5.15913e-102
3.70195e-105
2.07858e-108
9.09216e-112
3.1091e-115
8.28735e-119
1.71266e-122
2.66888e-126
2.94223e-130
2.04469e-134
6.19788e-139
1.25821e-86
9.81574e-88
1.94371e-89
1.58493e-91
6.84788e-94
1.80861e-96
3.17326e-99
3.91853e-102
3.54278e-105
2.43963e-108
1.30287e-111
5.39266e-115
1.73988e-118
4.36925e-122
8.50084e-126
1.24019e-129
1.2681e-133
8.05367e-138
2.1817e-142
5.0325e-90
4.80076e-91
1.07873e-92
9.5107e-95
4.29801e-97
1.15586e-99
2.02398e-102
2.45509e-105
2.15336e-108
1.42686e-111
7.2749e-115
2.86301e-118
8.76112e-122
2.08127e-125
3.81536e-129
5.18653e-133
4.86658e-137
2.78105e-141
6.61002e-146
1.77161e-93
2.07085e-94
5.28619e-96
5.04387e-98
2.38548e-100
6.53745e-103
1.14369e-105
1.36494e-108
1.16426e-111
7.45038e-115
3.64364e-118
1.37045e-121
3.99365e-125
8.98034e-129
1.54355e-132
1.93445e-136
1.64011e-140
8.28012e-145
1.69334e-149
5.52956e-97
7.93007e-98
2.30083e-99
2.37695e-101
1.17672e-103
3.28842e-106
5.75479e-109
6.77174e-112
5.63578e-115
3.4987e-118
1.64944e-121
5.95237e-125
1.65277e-128
3.50139e-132
5.58244e-136
6.35142e-140
4.77771e-144
2.08979e-148
3.60351e-153
1.54168e-100
2.71379e-101
8.94894e-103
1.00107e-104
5.18763e-107
1.47954e-109
2.5946e-112
3.0192e-115
2.46184e-118
1.48963e-121
6.79465e-125
2.35342e-128
6.19606e-132
1.22358e-135
1.78229e-139
1.80783e-143
1.18352e-147
4.39648e-152
6.25053e-157
3.86896e-104
8.35624e-105
3.13017e-106
3.79114e-108
2.05689e-110
5.99489e-113
1.05616e-115
1.21994e-118
9.78825e-122
5.79269e-125
2.55667e-128
8.4564e-132
2.08839e-135
3.78569e-139
4.94579e-143
4.38678e-147
2.4499e-151
7.55773e-156
8.60361e-161
8.8095e-108
2.33189e-108
9.91431e-110
1.3e-111
7.38951e-114
2.20546e-116
3.9165e-119
4.50815e-122
3.56985e-125
2.06581e-128
8.77559e-132
2.74159e-135
6.25285e-139
1.02178e-142
1.1739e-146
8.92353e-151
4.15658e-155
1.03395e-159
9.01063e-165
)
;

boundaryField
{
    leftWall
    {
        type            zeroGradient;
    }
    rightWall
    {
        type            zeroGradient;
    }
    lowerWall
    {
        type            zeroGradient;
    }
    atmosphere
    {
        type            inletOutlet;
        inletValue      uniform 0;
        value           nonuniform List<scalar> 
23
(
2.27589e-112
1.59047e-109
7.30783e-108
1.24396e-107
8.8095e-108
2.33189e-108
9.91431e-110
1.3e-111
7.38951e-114
2.20546e-116
3.9165e-119
4.50815e-122
3.56985e-125
2.06581e-128
8.77559e-132
2.74159e-135
6.25285e-139
1.02178e-142
1.1739e-146
8.92353e-151
4.15658e-155
1.03395e-159
9.01063e-165
)
;
    }
    defaultFaces
    {
        type            empty;
    }
    procBoundary3to1
    {
        type            processor;
        value           nonuniform List<scalar> 
23
(
3.98215e-40
1.90964e-38
5.59319e-37
8.01389e-37
6.19608e-38
1.58554e-39
2.43737e-41
2.62738e-43
2.13427e-45
1.35758e-47
7.00565e-50
2.9668e-52
1.02783e-54
2.91882e-57
6.81825e-60
1.32064e-62
2.06177e-65
2.55601e-68
2.45979e-71
1.77308e-74
9.06927e-78
2.92382e-81
4.38698e-85
)
;
    }
    procBoundary3to2
    {
        type            processor;
        value           nonuniform List<scalar> 
25
(
1.79599e-44
9.22335e-44
1.31102e-44
2.16747e-46
2.16995e-48
1.03301e-50
2.98647e-53
6.14292e-56
9.26439e-59
1.07574e-61
9.91154e-65
7.36299e-68
4.45293e-71
2.20519e-74
8.9774e-78
3.01382e-81
8.36807e-85
1.92692e-88
3.68755e-92
5.86635e-96
7.72917e-100
8.329e-104
7.10012e-108
4.3512e-112
1.26866e-116
)
;
    }
}


// ************************************************************************* //
