/*--------------------------------*- C++ -*----------------------------------*\
| =========                 |                                                 |
| \\      /  F ield         | OpenFOAM: The Open Source CFD Toolbox           |
|  \\    /   O peration     | Version:  2.4.0                                 |
|   \\  /    A nd           | Web:      www.OpenFOAM.org                      |
|    \\/     M anipulation  |                                                 |
\*---------------------------------------------------------------------------*/
FoamFile
{
    version     2.0;
    format      ascii;
    class       surfaceScalarField;
    location    "0.05";
    object      phi;
}
// * * * * * * * * * * * * * * * * * * * * * * * * * * * * * * * * * * * * * //

dimensions      [0 3 -1 0 0 0 0];

internalField   nonuniform List<scalar> 
1102
(
-4.21855e-05
5.04621e-05
-4.72942e-05
6.12442e-05
-4.6748e-05
5.66271e-05
5.11494e-05
-4.47993e-05
-8.5484e-05
5.51525e-05
-7.72935e-05
5.30538e-05
-6.80544e-05
4.7388e-05
4.42054e-05
-6.11104e-05
-0.000127287
2.84437e-05
-0.000104383
3.01495e-05
-8.64183e-05
2.94234e-05
3.12414e-05
-7.34544e-05
-9.96508e-05
1.97682e-05
-9.0909e-05
2.14077e-05
-8.2938e-05
2.14524e-05
2.2975e-05
-7.46716e-05
-9.09181e-05
9.26487e-06
-8.15008e-05
1.19903e-05
-7.44587e-05
1.44103e-05
1.65103e-05
-6.79941e-05
-7.23647e-05
7.11394e-06
-6.95291e-05
9.15482e-06
-6.60284e-05
1.09095e-05
1.25154e-05
-6.20334e-05
-6.29884e-05
4.76496e-06
-6.05125e-05
6.67889e-06
-5.80025e-05
8.39962e-06
9.87351e-06
-5.53607e-05
-5.43006e-05
3.82993e-06
-5.29256e-05
5.30402e-06
-5.12388e-05
6.71281e-06
7.99725e-06
-4.93625e-05
-4.74804e-05
3.10586e-06
-4.65246e-05
4.34824e-06
-4.53496e-05
5.53784e-06
6.6502e-06
-4.40025e-05
-4.18464e-05
2.58732e-06
-4.11436e-05
3.64551e-06
-4.02754e-05
4.66958e-06
5.64261e-06
-3.92677e-05
-3.70496e-05
2.1915e-06
-3.65151e-05
3.11097e-06
-3.58523e-05
4.00681e-06
4.86735e-06
-3.5077e-05
-3.28847e-05
1.87933e-06
-3.24658e-05
2.69206e-06
-3.19465e-05
3.4876e-06
4.25765e-06
-3.13368e-05
-2.92043e-05
1.62814e-06
-2.88693e-05
2.35713e-06
-2.84548e-05
3.07308e-06
3.76992e-06
-2.79671e-05
-2.59038e-05
1.42345e-06
-2.56323e-05
2.08563e-06
-2.52968e-05
2.7376e-06
3.37483e-06
-2.49017e-05
-2.29061e-05
1.25539e-06
-2.26841e-05
1.86365e-06
-2.24102e-05
2.46369e-06
3.05203e-06
-2.20873e-05
-2.01528e-05
1.11698e-06
-1.99705e-05
1.68135e-06
-1.97457e-05
2.23893e-06
2.78703e-06
-1.94807e-05
-1.75984e-05
1.00308e-06
-1.74486e-05
1.53159e-06
-1.72641e-05
2.05438e-06
2.5693e-06
-1.70463e-05
-1.52065e-05
9.09864e-07
-1.5084e-05
1.40908e-06
-1.4933e-05
1.90339e-06
2.39104e-06
-1.47547e-05
-1.29472e-05
8.34414e-07
-1.2848e-05
1.30988e-06
-1.27257e-05
1.78104e-06
2.24643e-06
-1.25811e-05
-1.07956e-05
7.74548e-07
-1.07168e-05
1.23102e-06
-1.06193e-05
1.68361e-06
2.13111e-06
-1.0504e-05
-8.73009e-06
7.28613e-07
-8.66936e-06
1.17029e-06
-8.59414e-06
1.60839e-06
2.04187e-06
-8.50489e-06
-6.73161e-06
6.95468e-07
-6.68747e-06
1.12616e-06
-6.63253e-06
1.55345e-06
1.97643e-06
-6.56708e-06
-4.78291e-06
6.7435e-07
-4.75445e-06
1.0977e-06
-4.71859e-06
1.5176e-06
1.9333e-06
-4.67545e-06
-2.86751e-06
6.6678e-07
-2.85497e-06
1.08517e-06
-2.83786e-06
1.50049e-06
1.91185e-06
-2.8164e-06
-9.65936e-07
-9.61187e-07
-9.55982e-07
-9.49977e-07
-3.72663e-05
0.000105163
-3.01608e-05
9.227e-05
-2.42782e-05
8.34822e-05
-1.94164e-05
7.66093e-05
-1.54395e-05
7.10502e-05
-1.21968e-05
6.6391e-05
-9.56136e-06
6.24128e-05
-7.42853e-06
5.8978e-05
-5.71291e-06
5.59965e-05
-4.34342e-06
5.34073e-05
-3.25892e-06
5.11667e-05
-2.40781e-06
4.92408e-05
-1.7476e-06
4.7603e-05
-1.24109e-06
4.62329e-05
-8.55996e-07
4.5114e-05
-5.65351e-07
4.42335e-05
-3.40614e-07
4.35833e-05
-1.60785e-07
4.31568e-05
4.27597e-05
-4.70983e-05
9.11508e-05
-3.7429e-05
8.26006e-05
-2.98891e-05
7.59422e-05
-2.39791e-05
7.06993e-05
-1.92607e-05
6.63317e-05
-1.54579e-05
6.25882e-05
-1.23753e-05
5.93302e-05
-9.86965e-06
5.64723e-05
-7.83205e-06
5.39589e-05
-6.17671e-06
5.1752e-05
-4.83398e-06
4.98239e-05
-3.74661e-06
4.81534e-05
-2.86704e-06
4.67234e-05
-2.15468e-06
4.55205e-05
-1.57445e-06
4.45338e-05
-1.09538e-06
4.37545e-05
-6.87784e-07
4.31757e-05
-3.21788e-07
4.27908e-05
4.24379e-05
-5.47597e-05
7.2456e-05
-4.28889e-05
7.07298e-05
-3.422e-05
6.72732e-05
-2.75783e-05
6.40575e-05
-2.23379e-05
6.10912e-05
-1.81318e-05
5.83821e-05
-1.47184e-05
5.59167e-05
-1.19288e-05
5.36827e-05
-9.63935e-06
5.16694e-05
-7.75516e-06
4.98678e-05
-6.20121e-06
4.827e-05
-4.91665e-06
4.68689e-05
-3.85109e-06
4.56578e-05
-2.96177e-06
4.46312e-05
-2.2118e-06
4.37838e-05
-1.56856e-06
4.31112e-05
-1.00237e-06
4.26096e-05
-4.86002e-07
4.22744e-05
4.19519e-05
-5.82084e-05
5.59928e-05
-4.59635e-05
5.84849e-05
-3.69496e-05
5.82592e-05
-3.00393e-05
5.71472e-05
-2.45704e-05
5.56223e-05
-2.01573e-05
5.39689e-05
-1.65509e-05
5.23103e-05
-1.35788e-05
5.07106e-05
-1.1115e-05
4.92056e-05
-9.06346e-06
4.78162e-05
-7.34821e-06
4.65548e-05
-5.90781e-06
4.54285e-05
-4.69125e-06
4.44413e-05
-3.65519e-06
4.35952e-05
-2.76217e-06
4.28908e-05
-1.97911e-06
4.23282e-05
-1.2765e-06
4.19069e-05
-6.28667e-07
4.16266e-05
4.13233e-05
-5.62797e-05
4.42785e-05
-4.61302e-05
4.83353e-05
-3.7933e-05
5.0062e-05
-3.13139e-05
5.05282e-05
-2.5936e-05
5.02443e-05
-2.15206e-05
4.95535e-05
-1.7863e-05
4.86528e-05
-1.48121e-05
4.76597e-05
-1.2253e-05
4.66466e-05
-1.00963e-05
4.56595e-05
-8.27022e-06
4.47287e-05
-6.71583e-06
4.38741e-05
-5.38373e-06
4.31092e-05
-4.23163e-06
4.24431e-05
-3.22262e-06
4.18818e-05
-2.32384e-06
4.14294e-05
-1.50546e-06
4.10886e-05
-7.39434e-07
4.08606e-05
4.05839e-05
-5.28758e-05
3.51209e-05
-4.46192e-05
4.00788e-05
-3.75416e-05
4.29845e-05
-3.15478e-05
4.45343e-05
-2.65047e-05
4.52012e-05
-2.22599e-05
4.53088e-05
-1.8677e-05
4.50699e-05
-1.56419e-05
4.46245e-05
-1.30611e-05
4.40659e-05
-1.08583e-05
4.34567e-05
-8.96968e-06
4.28401e-05
-7.34181e-06
4.22462e-05
-5.92886e-06
4.16962e-05
-4.69095e-06
4.12052e-05
-3.59283e-06
4.07837e-05
-2.60274e-06
4.04393e-05
-1.69146e-06
4.01773e-05
-8.31382e-07
4.00006e-05
3.97525e-05
-4.86873e-05
2.84475e-05
-4.21842e-05
3.35757e-05
-3.62472e-05
3.70475e-05
-3.09912e-05
3.92784e-05
-2.64126e-05
4.06227e-05
-2.24539e-05
4.13501e-05
-1.90408e-05
4.16567e-05
-1.60987e-05
4.16825e-05
-1.35594e-05
4.15266e-05
-1.13627e-05
4.12599e-05
-9.45553e-06
4.0933e-05
-7.79177e-06
4.05825e-05
-6.33062e-06
4.02351e-05
-5.0358e-06
3.99104e-05
-3.87459e-06
3.96225e-05
-2.81712e-06
3.93819e-05
-1.8356e-06
3.91958e-05
-9.03792e-07
3.90687e-05
3.88487e-05
-4.44008e-05
2.34858e-05
-3.92965e-05
2.84714e-05
-3.43955e-05
3.21465e-05
-2.98773e-05
3.47603e-05
-2.58102e-05
3.65556e-05
-2.21992e-05
3.77392e-05
-1.90175e-05
3.84751e-05
-1.62249e-05
3.88899e-05
-1.37769e-05
3.90786e-05
-1.16297e-05
3.91127e-05
-9.74199e-06
3.90453e-05
-8.07577e-06
3.89163e-05
-6.59617e-06
3.87555e-05
-5.27122e-06
3.85854e-05
-4.07141e-06
3.84227e-05
-2.96931e-06
3.82798e-05
-1.93908e-06
3.81656e-05
-9.56037e-07
3.80857e-05
3.78926e-05
-4.02802e-05
1.97635e-05
-3.62591e-05
2.44504e-05
-3.22361e-05
2.81236e-05
-2.83953e-05
3.09196e-05
-2.4834e-05
3.29944e-05
-2.15922e-05
3.44974e-05
-1.86752e-05
3.55582e-05
-1.60686e-05
3.62833e-05
-1.37478e-05
3.67579e-05
-1.1684e-05
3.70489e-05
-9.84699e-06
3.72083e-05
-8.20692e-06
3.72762e-05
-6.73508e-06
3.72837e-05
-5.40415e-06
3.72545e-05
-4.18823e-06
3.72068e-05
-3.06267e-06
3.71542e-05
-2.00388e-06
3.71068e-05
-9.89134e-07
3.70709e-05
3.69035e-05
-3.64236e-05
1.69194e-05
-3.32341e-05
2.12609e-05
-2.99337e-05
2.48233e-05
-2.66872e-05
2.76732e-05
-2.35971e-05
2.99043e-05
-2.07196e-05
3.162e-05
-1.80788e-05
3.29174e-05
-1.56781e-05
3.38826e-05
-1.35082e-05
3.45881e-05
-1.15526e-05
3.50933e-05
-9.79068e-06
3.54464e-05
-8.20027e-06
3.56858e-05
-6.75857e-06
3.5842e-05
-5.44291e-06
3.59388e-05
-4.23105e-06
3.59949e-05
-3.10134e-06
3.60245e-05
-2.03265e-06
3.60381e-05
-1.00434e-06
3.60427e-05
3.58992e-05
-3.28607e-05
1.47031e-05
-3.03063e-05
1.87066e-05
-2.75918e-05
2.21089e-05
-2.48536e-05
2.49351e-05
-2.21875e-05
2.72383e-05
-1.96537e-05
2.90862e-05
-1.7286e-05
3.05497e-05
-1.50987e-05
3.16954e-05
-1.30933e-05
3.25827e-05
-1.12625e-05
3.32625e-05
-9.59392e-06
3.37778e-05
-8.07185e-06
3.41637e-05
-6.67886e-06
3.4449e-05
-5.39667e-06
3.46566e-05
-4.20662e-06
3.48049e-05
-3.09004e-06
3.49079e-05
-2.02835e-06
3.49764e-05
-1.00314e-06
3.50174e-05
3.48961e-05
-2.958e-05
1.29462e-05
-2.75142e-05
1.66408e-05
-2.52721e-05
1.98669e-05
-2.29633e-05
2.26263e-05
-2.06708e-05
2.49458e-05
-1.84527e-05
2.68682e-05
-1.63458e-05
2.84429e-05
-1.43706e-05
2.97203e-05
-1.25354e-05
3.07474e-05
-1.08397e-05
3.15668e-05
-9.27724e-06
3.22153e-05
-7.83775e-06
3.27242e-05
-6.50845e-06
3.31197e-05
-5.27498e-06
3.34232e-05
-4.12204e-06
3.3652e-05
-3.03381e-06
3.38197e-05
-1.99422e-06
3.39368e-05
-9.87059e-07
3.40103e-05
3.3909e-05
-2.65546e-05
1.15338e-05
-2.48692e-05
1.49555e-05
-2.30093e-05
1.8007e-05
-2.1061e-05
2.06782e-05
-1.90942e-05
2.29791e-05
-1.71612e-05
2.49352e-05
-1.52983e-05
2.658e-05
-1.35283e-05
2.79503e-05
-1.18635e-05
2.90826e-05
-1.03079e-05
3.00113e-05
-8.85994e-06
3.07674e-05
-7.51348e-06
3.13778e-05
-6.25961e-06
3.18658e-05
-5.08737e-06
3.22509e-05
-3.98448e-06
3.25491e-05
-2.93776e-06
3.2773e-05
-1.93353e-06
3.29326e-05
-9.57744e-07
3.30345e-05
3.29513e-05
-2.37537e-05
1.03859e-05
-2.23688e-05
1.35706e-05
-2.08201e-05
1.64584e-05
-1.9175e-05
1.90332e-05
-1.74908e-05
2.1295e-05
-1.5813e-05
2.32574e-05
-1.41751e-05
2.49422e-05
-1.26001e-05
2.63754e-05
-1.11022e-05
2.75847e-05
-9.68824e-06
2.85974e-05
-8.35958e-06
2.94387e-05
-7.11345e-06
3.01317e-05
-5.94396e-06
3.06964e-05
-4.84302e-06
3.115e-05
-3.80093e-06
3.1507e-05
-2.80695e-06
3.1779e-05
-1.84956e-06
3.19752e-05
-9.16764e-07
3.21017e-05
3.20345e-05
-2.11472e-05
9.44572e-06
-2.00034e-05
1.24269e-05
-1.87108e-05
1.51659e-05
-1.73218e-05
1.76442e-05
-1.58829e-05
1.98561e-05
-1.44325e-05
2.18071e-05
-1.30007e-05
2.35104e-05
-1.16092e-05
2.49839e-05
-1.02724e-05
2.6248e-05
-8.99881e-06
2.73238e-05
-7.79175e-06
2.82317e-05
-6.65074e-06
2.89907e-05
-5.57225e-06
2.96179e-05
-4.5505e-06
3.01283e-05
-3.57804e-06
3.05345e-05
-2.64618e-06
3.08472e-05
-1.74543e-06
3.10745e-05
-8.65695e-07
3.1222e-05
3.11688e-05
-1.87074e-05
8.67247e-06
-1.77604e-05
1.14799e-05
-1.6681e-05
1.40866e-05
-1.551e-05
1.64733e-05
-1.42847e-05
1.86309e-05
-1.30373e-05
2.05597e-05
-1.17936e-05
2.22668e-05
-1.05736e-05
2.37638e-05
-9.39108e-06
2.50655e-05
-8.25501e-06
2.61877e-05
-7.16993e-06
2.71466e-05
-6.13689e-06
2.79576e-05
-5.15412e-06
2.86351e-05
-4.21767e-06
2.91918e-05
-3.32191e-06
2.96388e-05
-2.45998e-06
2.99853e-05
-1.62412e-06
3.02386e-05
-8.05972e-07
3.04039e-05
3.03628e-05
-1.64099e-05
8.03605e-06
-1.56262e-05
1.06963e-05
-1.47267e-05
1.31871e-05
-1.3743e-05
1.54896e-05
-1.2705e-05
1.75929e-05
-1.16391e-05
1.94939e-05
-1.05675e-05
2.11951e-05
-9.50741e-06
2.27038e-05
-8.47188e-06
2.403e-05
-7.46958e-06
2.51854e-05
-6.5056e-06
2.61826e-05
-5.58196e-06
2.7034e-05
-4.69812e-06
2.77513e-05
-3.85156e-06
2.83453e-05
-3.03811e-06
2.88254e-05
-2.25246e-06
2.91996e-05
-1.48834e-06
2.94745e-05
-7.3897e-07
2.96545e-05
2.96239e-05
-1.42327e-05
7.51412e-06
-1.35871e-05
1.00507e-05
-1.28415e-05
1.24416e-05
-1.20207e-05
1.46688e-05
-1.11484e-05
1.67206e-05
-1.0246e-05
1.85915e-05
-9.33196e-06
2.02811e-05
-8.42133e-06
2.17932e-05
-7.52558e-06
2.31342e-05
-6.65286e-06
2.43127e-05
-5.80833e-06
2.53381e-05
-4.99449e-06
2.62202e-05
-4.21167e-06
2.69685e-05
-3.45836e-06
2.7592e-05
-2.7316e-06
2.80986e-05
-2.02732e-06
2.84953e-05
-1.34057e-06
2.87878e-05
-6.65889e-07
2.89798e-05
2.8958e-05
-1.21568e-05
7.08989e-06
-1.16298e-05
9.52376e-06
-1.10182e-05
1.183e-05
-1.03408e-05
1.39915e-05
-9.61652e-06
1.59963e-05
-8.86246e-06
1.78374e-05
-8.0938e-06
1.95125e-05
-7.32317e-06
2.10226e-05
-6.56052e-06
2.23716e-05
-5.81316e-06
2.35654e-05
-5.08598e-06
2.4611e-05
-4.38169e-06
2.55159e-05
-3.70109e-06
2.62879e-05
-3.04345e-06
2.69343e-05
-2.40672e-06
2.74619e-05
-1.78784e-06
2.78765e-05
-1.18298e-06
2.81829e-05
-5.87849e-07
2.83847e-05
2.83701e-05
-1.01649e-05
6.75083e-06
-9.74193e-06
9.1008e-06
-9.24865e-06
1.13367e-05
-8.69955e-06
1.34425e-05
-8.10912e-06
1.54059e-05
-7.491e-06
1.72193e-05
-6.85736e-06
1.88788e-05
-6.21858e-06
2.03838e-05
-5.58302e-06
2.1736e-05
-4.95701e-06
2.29394e-05
-4.34496e-06
2.39989e-05
-3.74952e-06
2.49205e-05
-3.17177e-06
2.57102e-05
-2.61146e-06
2.6374e-05
-2.06725e-06
2.69177e-05
-1.53691e-06
2.73461e-05
-1.01753e-06
2.76635e-05
-5.05795e-07
2.7873e-05
2.78643e-05
-8.24163e-06
6.48758e-06
-7.91164e-06
8.77082e-06
-7.52489e-06
1.095e-05
-7.09219e-06
1.30098e-05
-6.6245e-06
1.49382e-05
-6.13232e-06
1.67271e-05
-5.62521e-06
1.83717e-05
-5.11142e-06
1.987e-05
-4.59775e-06
2.12224e-05
-4.08948e-06
2.24312e-05
-3.59041e-06
2.34999e-05
-3.10293e-06
2.4433e-05
-2.6282e-06
2.52355e-05
-2.16631e-06
2.59122e-05
-1.71644e-06
2.64678e-05
-1.27701e-06
2.69067e-05
-8.45893e-07
2.72324e-05
-4.20608e-07
2.74476e-05
2.74437e-05
-6.37293e-06
6.29345e-06
-6.12784e-06
8.52575e-06
-5.8388e-06
1.0661e-05
-5.51352e-06
1.26845e-05
-5.15998e-06
1.45847e-05
-4.78594e-06
1.63531e-05
-4.39858e-06
1.79844e-05
-4.00421e-06
1.94756e-05
-3.60811e-06
2.08263e-05
-3.21448e-06
2.20375e-05
-2.8264e-06
2.31118e-05
-2.44592e-06
2.40526e-05
-2.07416e-06
2.48637e-05
-1.71136e-06
2.55494e-05
-1.35709e-06
2.61135e-05
-1.01031e-06
2.65599e-05
-6.69555e-07
2.68916e-05
-3.33011e-07
2.71111e-05
2.71107e-05
-4.54588e-06
6.16388e-06
-4.38005e-06
8.35994e-06
-4.18242e-06
1.04634e-05
-3.95803e-06
1.24601e-05
-3.71228e-06
1.43389e-05
-3.45051e-06
1.60914e-05
-3.17773e-06
1.77116e-05
-2.89845e-06
1.91964e-05
-2.61648e-06
2.05444e-05
-2.33494e-06
2.1756e-05
-2.05617e-06
2.28331e-05
-1.7818e-06
2.37782e-05
-1.51277e-06
2.45947e-05
-1.24942e-06
2.5286e-05
-9.91602e-07
2.58557e-05
-7.38699e-07
2.6307e-05
-4.89792e-07
2.66427e-05
-2.43641e-07
2.68649e-05
2.68671e-05
-2.74904e-06
6.09654e-06
-2.65929e-06
8.27019e-06
-2.54932e-06
1.03534e-05
-2.42185e-06
1.23327e-05
-2.27991e-06
1.4197e-05
-2.12661e-06
1.59381e-05
-1.96498e-06
1.755e-05
-1.7978e-06
1.90292e-05
-1.6275e-06
2.03741e-05
-1.4561e-06
2.15846e-05
-1.2852e-06
2.26622e-05
-1.11596e-06
2.3609e-05
-9.49117e-07
2.44279e-05
-7.85052e-07
2.5122e-05
-6.23804e-07
2.56945e-05
-4.6514e-07
2.61484e-05
-3.08637e-07
2.64862e-05
-1.53583e-07
2.67099e-05
2.67135e-05
-9.31118e-07
-9.04735e-07
-8.71226e-07
-8.31287e-07
-7.8584e-07
-7.35896e-07
-6.82472e-07
-6.26531e-07
-5.68941e-07
-5.10449e-07
-4.51662e-07
-3.93042e-07
-3.3491e-07
-2.77455e-07
-2.20751e-07
-1.64769e-07
-1.09447e-07
-5.45103e-08
)
;

boundaryField
{
    leftWall
    {
        type            calculated;
        value           nonuniform 0();
    }
    rightWall
    {
        type            calculated;
        value           uniform 0;
    }
    lowerWall
    {
        type            calculated;
        value           nonuniform 0();
    }
    atmosphere
    {
        type            calculated;
        value           nonuniform List<scalar> 
23
(
6.6154e-07
1.08043e-06
1.49529e-06
1.90584e-06
6.07768e-06
8.24381e-06
1.03199e-05
1.22927e-05
1.41516e-05
1.58881e-05
1.74966e-05
1.89733e-05
2.03165e-05
2.15261e-05
2.26034e-05
2.35504e-05
2.43697e-05
2.50645e-05
2.56378e-05
2.60924e-05
2.64309e-05
2.6655e-05
2.6659e-05
)
;
    }
    defaultFaces
    {
        type            empty;
        value           nonuniform 0();
    }
    procBoundary3to1
    {
        type            processor;
        value           nonuniform List<scalar> 
23
(
-9.90817e-06
-5.61356e-05
-5.71734e-05
-5.30982e-05
-0.000112696
-9.93757e-05
-8.9365e-05
-8.14713e-05
-7.50273e-05
-6.96338e-05
-6.50483e-05
-6.11109e-05
-5.77121e-05
-5.47768e-05
-5.22512e-05
-5.00919e-05
-4.82632e-05
-4.67394e-05
-4.54991e-05
-4.45242e-05
-4.3808e-05
-4.33367e-05
-4.29204e-05
)
;
    }
    procBoundary3to2
    {
        type            processor;
        value           nonuniform List<scalar> 
25
(
1.63137e-06
8.07936e-05
0.000153996
0.000108326
0.000101421
7.45156e-05
6.53374e-05
5.52356e-05
4.82044e-05
4.2365e-05
3.74455e-05
3.31969e-05
2.94555e-05
2.61085e-05
2.30741e-05
2.02912e-05
1.77123e-05
1.52997e-05
1.30227e-05
1.08555e-05
8.77603e-06
6.76477e-06
4.80403e-06
2.87509e-06
9.71187e-07
)
;
    }
}


// ************************************************************************* //
