/*--------------------------------*- C++ -*----------------------------------*\
| =========                 |                                                 |
| \\      /  F ield         | OpenFOAM: The Open Source CFD Toolbox           |
|  \\    /   O peration     | Version:  2.4.0                                 |
|   \\  /    A nd           | Web:      www.OpenFOAM.org                      |
|    \\/     M anipulation  |                                                 |
\*---------------------------------------------------------------------------*/
FoamFile
{
    version     2.0;
    format      ascii;
    class       surfaceScalarField;
    location    "0.05";
    object      phi.water;
}
// * * * * * * * * * * * * * * * * * * * * * * * * * * * * * * * * * * * * * //

dimensions      [0 3 -1 0 0 0 0];

internalField   nonuniform List<scalar> 
1102
(
-2.94282e-05
2.049e-05
-4.72841e-05
6.12432e-05
-4.67339e-05
5.66266e-05
5.11499e-05
-4.47848e-05
-8.35463e-05
5.24368e-05
-7.72828e-05
5.30557e-05
-6.80436e-05
4.73926e-05
4.42086e-05
-6.11e-05
-0.000126702
2.82329e-05
-0.000104381
3.01505e-05
-8.64132e-05
2.94269e-05
3.12445e-05
-7.34465e-05
-9.96492e-05
1.97687e-05
-9.09087e-05
2.14091e-05
-8.29337e-05
2.14546e-05
2.29776e-05
-7.46654e-05
-9.09171e-05
9.26801e-06
-8.14973e-05
1.19935e-05
-7.44549e-05
1.4413e-05
1.65131e-05
-6.79887e-05
-7.23629e-05
7.11657e-06
-6.95268e-05
9.15739e-06
-6.60241e-05
1.09124e-05
1.25181e-05
-6.20287e-05
-6.29862e-05
4.76787e-06
-6.05086e-05
6.68191e-06
-5.79987e-05
8.40242e-06
9.87618e-06
-5.53564e-05
-5.42978e-05
3.83235e-06
-5.29228e-05
5.3064e-06
-5.12352e-05
6.71536e-06
7.99968e-06
-4.93587e-05
-4.74776e-05
3.10832e-06
-4.6521e-05
4.35072e-06
-4.53462e-05
5.54016e-06
6.65245e-06
-4.3999e-05
-4.18436e-05
2.58932e-06
-4.11409e-05
3.64745e-06
-4.02721e-05
4.67164e-06
5.64458e-06
-3.92645e-05
-3.7047e-05
2.19344e-06
-3.65119e-05
3.11292e-06
-3.58493e-05
4.00864e-06
4.86912e-06
-3.5074e-05
-3.2882e-05
1.88099e-06
-3.24631e-05
2.69365e-06
-3.19436e-05
3.48923e-06
4.25923e-06
-3.1334e-05
-2.92018e-05
1.62977e-06
-2.88665e-05
2.35874e-06
-2.84521e-05
3.07458e-06
3.77138e-06
-2.79643e-05
-2.59014e-05
1.42485e-06
-2.56299e-05
2.08697e-06
-2.52942e-05
2.73897e-06
3.37614e-06
-2.48991e-05
-2.29039e-05
1.25677e-06
-2.26816e-05
1.86501e-06
-2.24078e-05
2.46495e-06
3.05324e-06
-2.2085e-05
-2.01508e-05
1.11822e-06
-1.99684e-05
1.68252e-06
-1.97435e-05
2.2401e-06
2.78815e-06
-1.94785e-05
-1.75966e-05
1.00432e-06
-1.74466e-05
1.53279e-06
-1.72621e-05
2.05549e-06
2.57036e-06
-1.70444e-05
-1.52048e-05
9.10961e-07
-1.50824e-05
1.41012e-06
-1.49312e-05
1.90443e-06
2.39202e-06
-1.4753e-05
-1.29459e-05
8.35501e-07
-1.28464e-05
1.31094e-06
-1.27242e-05
1.78201e-06
2.24734e-06
-1.25796e-05
-1.07944e-05
7.75505e-07
-1.07156e-05
1.23192e-06
-1.06181e-05
1.68451e-06
2.13194e-06
-1.05028e-05
-8.72906e-06
7.29549e-07
-8.66822e-06
1.17119e-06
-8.59314e-06
1.60921e-06
2.04263e-06
-8.50395e-06
-6.73073e-06
6.9624e-07
-6.68673e-06
1.12687e-06
-6.63176e-06
1.55415e-06
1.97707e-06
-6.56639e-06
-4.7823e-06
6.75083e-07
-4.75375e-06
1.09839e-06
-4.71804e-06
1.5182e-06
1.93383e-06
-4.67499e-06
-2.8671e-06
6.67318e-07
-2.85466e-06
1.08564e-06
-2.83761e-06
1.50091e-06
1.91222e-06
-2.8162e-06
-9.65833e-07
-9.61092e-07
-9.55934e-07
-9.49942e-07
-3.72525e-05
0.000105161
-3.01481e-05
9.22656e-05
-2.42649e-05
8.34763e-05
-1.94043e-05
7.66015e-05
-1.54278e-05
7.10414e-05
-1.21865e-05
6.63813e-05
-9.55171e-06
6.24028e-05
-7.42006e-06
5.89677e-05
-5.70516e-06
5.59862e-05
-4.33673e-06
5.3397e-05
-3.25302e-06
5.11565e-05
-2.40288e-06
4.92306e-05
-1.74344e-06
4.7593e-05
-1.23777e-06
4.6223e-05
-8.53392e-07
4.51042e-05
-5.63473e-07
4.42238e-05
-3.39362e-07
4.35737e-05
-1.60149e-07
4.31472e-05
4.27502e-05
-4.70872e-05
9.11525e-05
-3.74177e-05
8.26002e-05
-2.98774e-05
7.59399e-05
-2.39679e-05
7.06951e-05
-1.92498e-05
6.63261e-05
-1.54479e-05
6.25816e-05
-1.2366e-05
5.93228e-05
-9.86115e-06
5.64643e-05
-7.82435e-06
5.39506e-05
-6.16991e-06
5.17434e-05
-4.82804e-06
4.98153e-05
-3.74156e-06
4.81446e-05
-2.86281e-06
4.67146e-05
-2.15126e-06
4.55117e-05
-1.57177e-06
4.4525e-05
-1.09343e-06
4.37456e-05
-6.86493e-07
4.3167e-05
-3.21151e-07
4.27821e-05
4.24292e-05
-5.47508e-05
7.24597e-05
-4.28794e-05
7.0732e-05
-3.42099e-05
6.72737e-05
-2.75682e-05
6.40563e-05
-2.23281e-05
6.10885e-05
-1.81225e-05
5.83781e-05
-1.47096e-05
5.59117e-05
-1.19206e-05
5.36769e-05
-9.63187e-06
5.16629e-05
-7.74849e-06
4.98609e-05
-6.19536e-06
4.82628e-05
-4.91163e-06
4.68613e-05
-3.84687e-06
4.56501e-05
-2.95833e-06
4.46234e-05
-2.2091e-06
4.37759e-05
-1.56657e-06
4.31033e-05
-1.00105e-06
4.26016e-05
-4.85315e-07
4.22665e-05
4.19439e-05
-5.8201e-05
5.59978e-05
-4.59554e-05
5.84889e-05
-3.6941e-05
5.82619e-05
-3.00306e-05
5.71482e-05
-2.45617e-05
5.56217e-05
-2.01487e-05
5.3967e-05
-1.65427e-05
5.23073e-05
-1.35711e-05
5.07066e-05
-1.11079e-05
4.92008e-05
-9.05707e-06
4.78108e-05
-7.34257e-06
4.65488e-05
-5.90294e-06
4.54221e-05
-4.68714e-06
4.44347e-05
-3.65182e-06
4.35883e-05
-2.75951e-06
4.28838e-05
-1.97714e-06
4.23211e-05
-1.27518e-06
4.18998e-05
-6.2797e-07
4.16194e-05
4.1316e-05
-5.62738e-05
4.42841e-05
-4.61235e-05
4.83403e-05
-3.79258e-05
5.00659e-05
-3.13065e-05
5.05306e-05
-2.59284e-05
5.02453e-05
-2.1513e-05
4.95532e-05
-1.78556e-05
4.86513e-05
-1.4805e-05
4.76571e-05
-1.22464e-05
4.66432e-05
-1.00903e-05
4.56554e-05
-8.2649e-06
4.47239e-05
-6.7112e-06
4.38688e-05
-5.3798e-06
4.31036e-05
-4.22839e-06
4.24372e-05
-3.22005e-06
4.18757e-05
-2.32193e-06
4.14231e-05
-1.50418e-06
4.10822e-05
-7.38757e-07
4.08541e-05
4.05773e-05
-5.28706e-05
3.51268e-05
-4.46136e-05
4.00842e-05
-3.75357e-05
4.2989e-05
-3.15415e-05
4.45377e-05
-2.64982e-05
4.52033e-05
-2.22534e-05
4.53097e-05
-1.86705e-05
4.50696e-05
-1.56355e-05
4.46232e-05
-1.30552e-05
4.40636e-05
-1.08528e-05
4.34536e-05
-8.96475e-06
4.28363e-05
-7.33749e-06
4.22419e-05
-5.92516e-06
4.16915e-05
-4.68789e-06
4.12001e-05
-3.59039e-06
4.07784e-05
-2.60091e-06
4.04338e-05
-1.69023e-06
4.01716e-05
-8.30747e-07
3.99948e-05
3.97467e-05
-4.86828e-05
2.84533e-05
-4.21795e-05
3.35811e-05
-3.62422e-05
3.70522e-05
-3.0986e-05
3.92821e-05
-2.64072e-05
4.06253e-05
-2.24483e-05
4.13517e-05
-1.90351e-05
4.16573e-05
-1.60931e-05
4.1682e-05
-1.35541e-05
4.15252e-05
-1.13577e-05
4.12577e-05
-9.45105e-06
4.09301e-05
-7.78781e-06
4.0579e-05
-6.32721e-06
4.02312e-05
-5.03295e-06
3.9906e-05
-3.87231e-06
3.96179e-05
-2.8154e-06
3.9377e-05
-1.83446e-06
3.91908e-05
-9.03182e-07
3.90637e-05
3.88436e-05
-4.43968e-05
2.34912e-05
-3.92924e-05
2.84765e-05
-3.43913e-05
3.21511e-05
-2.98729e-05
3.47641e-05
-2.58057e-05
3.65586e-05
-2.21945e-05
3.77412e-05
-1.90127e-05
3.84762e-05
-1.62201e-05
3.889e-05
-1.37722e-05
3.90779e-05
-1.16253e-05
3.91112e-05
-9.73797e-06
3.90431e-05
-8.07219e-06
3.89135e-05
-6.59306e-06
3.87523e-05
-5.2686e-06
3.85818e-05
-4.06931e-06
3.84188e-05
-2.96773e-06
3.82756e-05
-1.938e-06
3.81612e-05
-9.55483e-07
3.80813e-05
3.78882e-05
-4.02766e-05
1.97684e-05
-3.62555e-05
2.44551e-05
-3.22325e-05
2.81279e-05
-2.83917e-05
3.09233e-05
-2.48302e-05
3.29974e-05
-2.15883e-05
3.44997e-05
-1.86712e-05
3.55596e-05
-1.60645e-05
3.62838e-05
-1.37438e-05
3.67576e-05
-1.16802e-05
3.70479e-05
-9.84344e-06
3.72066e-05
-8.20372e-06
3.7274e-05
-6.73227e-06
3.7281e-05
-5.40178e-06
3.72515e-05
-4.18631e-06
3.72034e-05
-3.06121e-06
3.71506e-05
-2.00291e-06
3.7103e-05
-9.88609e-07
3.70671e-05
3.68996e-05
-3.64203e-05
1.69238e-05
-3.32309e-05
2.12651e-05
-2.99306e-05
2.48272e-05
-2.66841e-05
2.76766e-05
-2.3594e-05
2.99072e-05
-2.07163e-05
3.16222e-05
-1.80754e-05
3.2919e-05
-1.56746e-05
3.38834e-05
-1.35048e-05
3.45881e-05
-1.15493e-05
3.50927e-05
-9.78758e-06
3.54452e-05
-8.19745e-06
3.56841e-05
-6.75608e-06
3.58398e-05
-5.44079e-06
3.59363e-05
-4.22933e-06
3.59921e-05
-3.10003e-06
3.60215e-05
-2.03175e-06
3.60349e-05
-1.00388e-06
3.60393e-05
3.58958e-05
-3.28576e-05
1.47071e-05
-3.03034e-05
1.87103e-05
-2.7589e-05
2.21124e-05
-2.4851e-05
2.49383e-05
-2.21849e-05
2.7241e-05
-1.9651e-05
2.90884e-05
-1.72832e-05
3.05513e-05
-1.50958e-05
3.16963e-05
-1.30904e-05
3.2583e-05
-1.12597e-05
3.32622e-05
-9.59124e-06
3.3777e-05
-8.06938e-06
3.41624e-05
-6.67667e-06
3.44473e-05
-5.39479e-06
3.46546e-05
-4.20509e-06
3.48025e-05
-3.08887e-06
3.49054e-05
-2.02756e-06
3.49737e-05
-1.00271e-06
3.50146e-05
3.48931e-05
-2.95771e-05
1.29498e-05
-2.75115e-05
1.66442e-05
-2.52697e-05
1.987e-05
-2.2961e-05
2.26291e-05
-2.06686e-05
2.49483e-05
-1.84504e-05
2.68702e-05
-1.63435e-05
2.84444e-05
-1.43683e-05
2.97212e-05
-1.2533e-05
3.07479e-05
-1.08373e-05
3.15668e-05
-9.27495e-06
3.22148e-05
-7.83562e-06
3.27233e-05
-6.50654e-06
3.31184e-05
-5.27333e-06
3.34215e-05
-4.12069e-06
3.365e-05
-3.03278e-06
3.38175e-05
-1.99351e-06
3.39345e-05
-9.86701e-07
3.40078e-05
3.39065e-05
-2.65519e-05
1.1537e-05
-2.48667e-05
1.49585e-05
-2.30071e-05
1.80098e-05
-2.10591e-05
2.06807e-05
-1.90924e-05
2.29813e-05
-1.71594e-05
2.4937e-05
-1.52964e-05
2.65814e-05
-1.35263e-05
2.79512e-05
-1.18615e-05
2.90831e-05
-1.03059e-05
3.00114e-05
-8.85799e-06
3.0767e-05
-7.51165e-06
3.13771e-05
-6.25796e-06
3.18648e-05
-5.08595e-06
3.22496e-05
-3.98331e-06
3.25475e-05
-2.93687e-06
3.27712e-05
-1.93293e-06
3.29306e-05
-9.57412e-07
3.30324e-05
3.29491e-05
-2.37512e-05
1.03888e-05
-2.23665e-05
1.35733e-05
-2.08181e-05
1.64609e-05
-1.91734e-05
1.90354e-05
-1.74893e-05
2.12969e-05
-1.58115e-05
2.3259e-05
-1.41736e-05
2.49434e-05
-1.25985e-05
2.63763e-05
-1.11006e-05
2.75852e-05
-9.68656e-06
2.85975e-05
-8.35794e-06
2.94385e-05
-7.11191e-06
3.01312e-05
-5.94256e-06
3.06956e-05
-4.8418e-06
3.11489e-05
-3.79993e-06
3.15057e-05
-2.80619e-06
3.17775e-05
-1.84903e-06
3.19735e-05
-9.16506e-07
3.20999e-05
3.20327e-05
-2.11449e-05
9.4484e-06
-2.00013e-05
1.24293e-05
-1.87091e-05
1.51681e-05
-1.73204e-05
1.76461e-05
-1.58816e-05
1.98578e-05
-1.44313e-05
2.18085e-05
-1.29995e-05
2.35115e-05
-1.16079e-05
2.49847e-05
-1.0271e-05
2.62485e-05
-8.99742e-06
2.7324e-05
-7.79038e-06
2.82316e-05
-6.64944e-06
2.89903e-05
-5.57107e-06
2.96173e-05
-4.54948e-06
3.01274e-05
-3.5772e-06
3.05334e-05
-2.64555e-06
3.08459e-05
-1.74501e-06
3.1073e-05
-8.65457e-07
3.12205e-05
3.11672e-05
-1.87053e-05
8.67493e-06
-1.77586e-05
1.14821e-05
-1.66795e-05
1.40885e-05
-1.55088e-05
1.64749e-05
-1.42837e-05
1.86323e-05
-1.30363e-05
2.05609e-05
-1.17926e-05
2.22678e-05
-1.05725e-05
2.37646e-05
-9.38995e-06
2.5066e-05
-8.25387e-06
2.6188e-05
-7.16881e-06
2.71466e-05
-6.13583e-06
2.79574e-05
-5.15316e-06
2.86346e-05
-4.21684e-06
2.91911e-05
-3.32123e-06
2.96379e-05
-2.45947e-06
2.99842e-05
-1.62376e-06
3.02374e-05
-8.05801e-07
3.04025e-05
3.03615e-05
-1.6408e-05
8.03831e-06
-1.56246e-05
1.06983e-05
-1.47254e-05
1.31888e-05
-1.3742e-05
1.5491e-05
-1.27042e-05
1.75941e-05
-1.16383e-05
1.94949e-05
-1.05666e-05
2.1196e-05
-9.50652e-06
2.27045e-05
-8.47095e-06
2.40305e-05
-7.46864e-06
2.51857e-05
-6.50469e-06
2.61827e-05
-5.58111e-06
2.70339e-05
-4.69736e-06
2.77509e-05
-3.85089e-06
2.83447e-05
-3.03758e-06
2.88246e-05
-2.25205e-06
2.91987e-05
-1.48808e-06
2.94734e-05
-7.38806e-07
2.96534e-05
2.96227e-05
-1.42311e-05
7.5162e-06
-1.35857e-05
1.00525e-05
-1.28404e-05
1.24431e-05
-1.20199e-05
1.46701e-05
-1.11476e-05
1.67217e-05
-1.02453e-05
1.85924e-05
-9.33124e-06
2.02819e-05
-8.42059e-06
2.17939e-05
-7.52483e-06
2.31347e-05
-6.65212e-06
2.4313e-05
-5.80761e-06
2.53382e-05
-4.99383e-06
2.62201e-05
-4.21107e-06
2.69682e-05
-3.45785e-06
2.75915e-05
-2.73119e-06
2.80979e-05
-2.02701e-06
2.84945e-05
-1.34035e-06
2.87869e-05
-6.65786e-07
2.89788e-05
2.8957e-05
-1.21554e-05
7.09181e-06
-1.16287e-05
9.52537e-06
-1.10173e-05
1.18314e-05
-1.03401e-05
1.39927e-05
-9.61589e-06
1.59973e-05
-8.86187e-06
1.78383e-05
-8.0932e-06
1.95132e-05
-7.32258e-06
2.10232e-05
-6.55993e-06
2.23721e-05
-5.81259e-06
2.35657e-05
-5.08544e-06
2.46111e-05
-4.38119e-06
2.55158e-05
-3.70065e-06
2.62877e-05
-3.04308e-06
2.69339e-05
-2.40642e-06
2.74613e-05
-1.78762e-06
2.78758e-05
-1.18285e-06
2.81821e-05
-5.87742e-07
2.83839e-05
2.83692e-05
-1.01638e-05
6.75258e-06
-9.741e-06
9.10226e-06
-9.24791e-06
1.1338e-05
-8.69895e-06
1.34435e-05
-8.1086e-06
1.54068e-05
-7.4905e-06
1.72201e-05
-6.85688e-06
1.88795e-05
-6.21811e-06
2.03843e-05
-5.58257e-06
2.17365e-05
-4.95659e-06
2.29397e-05
-4.34458e-06
2.3999e-05
-3.74917e-06
2.49204e-05
-3.17146e-06
2.571e-05
-2.61119e-06
2.63737e-05
-2.06704e-06
2.69172e-05
-1.53676e-06
2.73456e-05
-1.01742e-06
2.76629e-05
-5.05761e-07
2.78722e-05
2.78636e-05
-8.24076e-06
6.48914e-06
-7.91091e-06
8.77212e-06
-7.5243e-06
1.09511e-05
-7.09169e-06
1.30107e-05
-6.62406e-06
1.4939e-05
-6.13191e-06
1.67278e-05
-5.62483e-06
1.83723e-05
-5.11107e-06
1.98705e-05
-4.59743e-06
2.12227e-05
-4.0892e-06
2.24313e-05
-3.59015e-06
2.34999e-05
-3.10269e-06
2.4433e-05
-2.628e-06
2.52353e-05
-2.16614e-06
2.59119e-05
-1.71631e-06
2.64674e-05
-1.27692e-06
2.69063e-05
-8.45884e-07
2.72319e-05
-4.20562e-07
2.74471e-05
2.74431e-05
-6.37227e-06
6.29477e-06
-6.12728e-06
8.52683e-06
-5.83834e-06
1.06618e-05
-5.51313e-06
1.26852e-05
-5.15962e-06
1.45853e-05
-4.78562e-06
1.63536e-05
-4.3983e-06
1.79848e-05
-4.00397e-06
1.94759e-05
-3.6079e-06
2.08265e-05
-3.2143e-06
2.20376e-05
-2.82624e-06
2.31118e-05
-2.44578e-06
2.40524e-05
-2.07403e-06
2.48635e-05
-1.71126e-06
2.55491e-05
-1.35702e-06
2.61132e-05
-1.01031e-06
2.65595e-05
-6.69563e-07
2.68912e-05
-3.32974e-07
2.71107e-05
2.71102e-05
-4.54542e-06
6.16492e-06
-4.37966e-06
8.36072e-06
-4.18208e-06
1.04639e-05
-3.95774e-06
1.24605e-05
-3.71202e-06
1.43392e-05
-3.45028e-06
1.60915e-05
-3.17754e-06
1.77117e-05
-2.89829e-06
1.91964e-05
-2.61636e-06
2.05443e-05
-2.33483e-06
2.17558e-05
-2.05608e-06
2.28328e-05
-1.78171e-06
2.37779e-05
-1.51269e-06
2.45944e-05
-1.24937e-06
2.52857e-05
-9.91575e-07
2.58553e-05
-7.38719e-07
2.63066e-05
-4.89798e-07
2.66423e-05
-2.43638e-07
2.68645e-05
2.68666e-05
-2.7488e-06
6.09728e-06
-2.65905e-06
8.27073e-06
-2.54912e-06
1.03538e-05
-2.42167e-06
1.23329e-05
-2.27975e-06
1.41971e-05
-2.12647e-06
1.5938e-05
-1.96487e-06
1.75499e-05
-1.79771e-06
1.9029e-05
-1.62743e-06
2.03738e-05
-1.45604e-06
2.15843e-05
-1.28515e-06
2.26618e-05
-1.11591e-06
2.36086e-05
-9.49078e-07
2.44274e-05
-7.85022e-07
2.51215e-05
-6.23798e-07
2.5694e-05
-4.65146e-07
2.61479e-05
-3.08664e-07
2.64857e-05
-1.53593e-07
2.67094e-05
2.6713e-05
-9.31042e-07
-9.04658e-07
-8.71155e-07
-8.31223e-07
-7.85783e-07
-7.35847e-07
-6.82431e-07
-6.26498e-07
-5.68916e-07
-5.10428e-07
-4.51644e-07
-3.93025e-07
-3.34895e-07
-2.77444e-07
-2.20747e-07
-1.64776e-07
-1.09458e-07
-5.45146e-08
)
;

boundaryField
{
    leftWall
    {
        type            fixedValue;
        value           nonuniform 0();
    }
    rightWall
    {
        type            fixedValue;
        value           uniform 0;
    }
    lowerWall
    {
        type            fixedValue;
        value           nonuniform 0();
    }
    atmosphere
    {
        type            calculated;
        value           nonuniform List<scalar> 
23
(
6.61935e-07
1.08078e-06
1.4956e-06
1.90613e-06
6.07831e-06
8.24427e-06
1.03202e-05
1.22928e-05
1.41515e-05
1.5888e-05
1.74964e-05
1.8973e-05
2.03161e-05
2.15257e-05
2.2603e-05
2.35499e-05
2.43692e-05
2.5064e-05
2.56373e-05
2.60919e-05
2.64304e-05
2.66545e-05
2.66585e-05
)
;
    }
    defaultFaces
    {
        type            empty;
        value           nonuniform 0();
    }
    procBoundary3to1
    {
        type            processor;
        value           nonuniform List<scalar> 
23
(
2.48167e-05
-5.6116e-05
-5.71699e-05
-5.30953e-05
-0.000112685
-9.93636e-05
-8.93509e-05
-8.14575e-05
-7.50125e-05
-6.96197e-05
-6.5034e-05
-6.10973e-05
-5.76988e-05
-5.47642e-05
-5.22388e-05
-5.00802e-05
-4.82517e-05
-4.67283e-05
-4.54882e-05
-4.45135e-05
-4.37974e-05
-4.33262e-05
-4.29101e-05
)
;
    }
    procBoundary3to2
    {
        type            processor;
        value           nonuniform List<scalar> 
25
(
-7.8457e-07
2.43336e-05
0.000152775
0.000108324
0.000101424
7.45151e-05
6.53363e-05
5.52332e-05
4.82022e-05
4.23622e-05
3.7443e-05
3.31943e-05
2.94532e-05
2.61062e-05
2.30722e-05
2.02893e-05
1.77107e-05
1.52981e-05
1.30214e-05
1.08543e-05
8.7751e-06
6.76386e-06
4.80343e-06
2.87463e-06
9.70977e-07
)
;
    }
}


// ************************************************************************* //
