/*--------------------------------*- C++ -*----------------------------------*\
| =========                 |                                                 |
| \\      /  F ield         | OpenFOAM: The Open Source CFD Toolbox           |
|  \\    /   O peration     | Version:  2.4.0                                 |
|   \\  /    A nd           | Web:      www.OpenFOAM.org                      |
|    \\/     M anipulation  |                                                 |
\*---------------------------------------------------------------------------*/
FoamFile
{
    version     2.0;
    format      ascii;
    class       volVectorField;
    location    "0.05";
    object      U.air;
}
// * * * * * * * * * * * * * * * * * * * * * * * * * * * * * * * * * * * * * //

dimensions      [0 1 -1 0 0 0 0];

internalField   nonuniform List<vector> 
575
(
(0.0615976 0.433665 0)
(-0.369831 0.661421 0)
(-0.216663 0.644247 0)
(-0.251681 0.592712 0)
(-0.396928 0.696531 0)
(-0.502699 0.681362 0)
(-0.355572 0.619411 0)
(-0.360535 0.54867 0)
(-0.728169 0.500983 0)
(-0.627142 0.496163 0)
(-0.506402 0.442996 0)
(-0.444789 0.438405 0)
(-0.575184 0.243551 0)
(-0.510303 0.272415 0)
(-0.454229 0.278936 0)
(-0.424325 0.312063 0)
(-0.520859 0.149506 0)
(-0.45228 0.175575 0)
(-0.421927 0.195587 0)
(-0.382266 0.220493 0)
(-0.397928 0.0839132 0)
(-0.378256 0.114284 0)
(-0.364605 0.142577 0)
(-0.341371 0.163972 0)
(-0.345553 0.064465 0)
(-0.329913 0.0869839 0)
(-0.319139 0.107989 0)
(-0.302829 0.126571 0)
(-0.294844 0.0482867 0)
(-0.287053 0.0675467 0)
(-0.280177 0.0853321 0)
(-0.268891 0.10134 0)
(-0.257401 0.0388138 0)
(-0.251802 0.0544901 0)
(-0.247076 0.0693729 0)
(-0.238975 0.0832305 0)
(-0.226469 0.0321389 0)
(-0.222365 0.0452807 0)
(-0.218905 0.0579233 0)
(-0.21285 0.069926 0)
(-0.200289 0.02706 0)
(-0.197153 0.0383573 0)
(-0.194529 0.049314 0)
(-0.189877 0.0598369 0)
(-0.177631 0.0230961 0)
(-0.175169 0.0329886 0)
(-0.173113 0.0426402 0)
(-0.169466 0.0519838 0)
(-0.157652 0.0199259 0)
(-0.155686 0.0287296 0)
(-0.154038 0.0373546 0)
(-0.151134 0.0457516 0)
(-0.139765 0.017352 0)
(-0.138177 0.0252954 0)
(-0.136833 0.0331014 0)
(-0.134496 0.0407328 0)
(-0.123538 0.0152427 0)
(-0.122249 0.0224965 0)
(-0.121141 0.0296412 0)
(-0.119247 0.0366484 0)
(-0.108649 0.0135059 0)
(-0.1076 0.0202008 0)
(-0.10668 0.0268071 0)
(-0.105141 0.0333023 0)
(-0.0948473 0.0120744 0)
(-0.0939959 0.0183137 0)
(-0.0932301 0.0244794 0)
(-0.0919803 0.0305532 0)
(-0.0819328 0.0108985 0)
(-0.0812461 0.0167655 0)
(-0.0806102 0.0225703 0)
(-0.0796001 0.0282974 0)
(-0.0697418 0.00994037 0)
(-0.0691947 0.0155045 0)
(-0.0686714 0.0210146 0)
(-0.0678636 0.0264578 0)
(-0.0581378 0.00917148 0)
(-0.0577107 0.0144913 0)
(-0.0572872 0.0197635 0)
(-0.0566529 0.0249766 0)
(-0.0470028 0.00857026 0)
(-0.0466806 0.013697 0)
(-0.0463484 0.0187806 0)
(-0.0458657 0.0238109 0)
(-0.0362334 0.00812101 0)
(-0.0360046 0.0131005 0)
(-0.0357581 0.0180397 0)
(-0.0354105 0.0229294 0)
(-0.0257354 0.00781285 0)
(-0.0255915 0.0126876 0)
(-0.0254289 0.0175229 0)
(-0.0252046 0.0223107 0)
(-0.0154141 0.00765141 0)
(-0.0153564 0.0124553 0)
(-0.0152805 0.0172213 0)
(-0.0151726 0.0219409 0)
(-0.00519913 0.00754869 0)
(-0.00517187 0.0123292 0)
(-0.00514568 0.0170646 0)
(-0.00511516 0.0217513 0)
(-0.221995 0.529544 0)
(-0.182421 0.465262 0)
(-0.147034 0.419734 0)
(-0.117679 0.383877 0)
(-0.0937471 0.354724 0)
(-0.0742535 0.330308 0)
(-0.058417 0.309507 0)
(-0.0455871 0.2916 0)
(-0.0352417 0.276102 0)
(-0.0269547 0.262685 0)
(-0.0203647 0.25111 0)
(-0.0151674 0.24119 0)
(-0.0111122 0.232772 0)
(-0.00798395 0.225744 0)
(-0.00559453 0.220015 0)
(-0.00378593 0.215509 0)
(-0.00240977 0.212191 0)
(-0.00131432 0.210011 0)
(-0.00047238 0.208191 0)
(-0.286525 0.475863 0)
(-0.231037 0.424666 0)
(-0.181197 0.38724 0)
(-0.144978 0.357772 0)
(-0.116188 0.333637 0)
(-0.0932271 0.313213 0)
(-0.0747023 0.295629 0)
(-0.0596826 0.280341 0)
(-0.0474795 0.266993 0)
(-0.0375649 0.255344 0)
(-0.0295182 0.245219 0)
(-0.0229972 0.236484 0)
(-0.0177209 0.229033 0)
(-0.013452 0.222785 0)
(-0.00998681 0.217671 0)
(-0.00714828 0.213641 0)
(-0.00477422 0.210657 0)
(-0.00270205 0.208688 0)
(-0.000842985 0.207366 0)
(-0.341274 0.398867 0)
(-0.265233 0.373147 0)
(-0.207199 0.348021 0)
(-0.166116 0.327353 0)
(-0.134024 0.30948 0)
(-0.108618 0.293777 0)
(-0.0881433 0.279861 0)
(-0.0714853 0.267485 0)
(-0.0578509 0.256487 0)
(-0.0466498 0.24675 0)
(-0.0374244 0.238185 0)
(-0.0298092 0.230725 0)
(-0.0235053 0.224311 0)
(-0.0182625 0.218896 0)
(-0.0138668 0.214442 0)
(-0.0101317 0.210916 0)
(-0.00689013 0.208292 0)
(-0.00399276 0.206544 0)
(-0.00128243 0.20477 0)
(-0.350881 0.315518 0)
(-0.280089 0.314884 0)
(-0.222218 0.305233 0)
(-0.179827 0.294489 0)
(-0.146534 0.283488 0)
(-0.120005 0.272852 0)
(-0.0984761 0.262816 0)
(-0.0808205 0.253495 0)
(-0.066234 0.244945 0)
(-0.0541191 0.237192 0)
(-0.0440134 0.230247 0)
(-0.0355481 0.224108 0)
(-0.0284213 0.218769 0)
(-0.0223796 0.214221 0)
(-0.0172062 0.210453 0)
(-0.0127117 0.207453 0)
(-0.00872789 0.205211 0)
(-0.00510916 0.203716 0)
(-0.00168107 0.202017 0)
(-0.335351 0.243124 0)
(-0.27485 0.259656 0)
(-0.225375 0.263269 0)
(-0.185747 0.261592 0)
(-0.153568 0.257134 0)
(-0.127302 0.251408 0)
(-0.105644 0.245174 0)
(-0.0876456 0.238868 0)
(-0.0725949 0.232747 0)
(-0.0599439 0.226973 0)
(-0.0492597 0.221647 0)
(-0.0401916 0.216836 0)
(-0.0324491 0.21258 0)
(-0.025786 0.208907 0)
(-0.0199898 0.205834 0)
(-0.0148733 0.203369 0)
(-0.0102681 0.201518 0)
(-0.0060213 0.200284 0)
(-0.00197883 0.198871 0)
(-0.308879 0.192055 0)
(-0.261555 0.214319 0)
(-0.220338 0.225896 0)
(-0.185317 0.230855 0)
(-0.155714 0.231787 0)
(-0.130806 0.230361 0)
(-0.109809 0.227585 0)
(-0.0920559 0.224085 0)
(-0.0769906 0.220264 0)
(-0.0641582 0.216385 0)
(-0.0531826 0.212626 0)
(-0.0437497 0.209108 0)
(-0.0355929 0.205914 0)
(-0.0284825 0.203103 0)
(-0.0222168 0.200717 0)
(-0.0166159 0.198782 0)
(-0.0115164 0.197318 0)
(-0.00676746 0.196335 0)
(-0.00222444 0.195064 0)
(-0.279734 0.153634 0)
(-0.243893 0.178448 0)
(-0.210365 0.194177 0)
(-0.180369 0.203459 0)
(-0.153985 0.20838 0)
(-0.131086 0.210419 0)
(-0.11131 0.210585 0)
(-0.0942612 0.209565 0)
(-0.0795565 0.207828 0)
(-0.0668513 0.2057 0)
(-0.0558419 0.203408 0)
(-0.0462627 0.201114 0)
(-0.03788 0.198934 0)
(-0.0304872 0.196953 0)
(-0.0238992 0.19523 0)
(-0.0179481 0.193809 0)
(-0.0124791 0.192721 0)
(-0.00734903 0.191983 0)
(-0.00241815 0.190846 0)
(-0.25196 0.125538 0)
(-0.224706 0.150301 0)
(-0.197686 0.167831 0)
(-0.172434 0.179689 0)
(-0.149396 0.187358 0)
(-0.128797 0.19202 0)
(-0.110572 0.19456 0)
(-0.0945434 0.195633 0)
(-0.0804832 0.195714 0)
(-0.0681548 0.195149 0)
(-0.0573299 0.194191 0)
(-0.0477956 0.193026 0)
(-0.0393564 0.191792 0)
(-0.0318329 0.19059 0)
(-0.0250602 0.189496 0)
(-0.0188855 0.188565 0)
(-0.0131657 0.187835 0)
(-0.00776739 0.187333 0)
(-0.00255799 0.18633 0)
(-0.226404 0.10465 0)
(-0.205513 0.128222 0)
(-0.183766 0.146175 0)
(-0.162681 0.159382 0)
(-0.142814 0.168821 0)
(-0.124559 0.175368 0)
(-0.108033 0.179743 0)
(-0.0932117 0.182517 0)
(-0.0799906 0.18413 0)
(-0.0682264 0.184921 0)
(-0.0577605 0.185145 0)
(-0.0484317 0.184997 0)
(-0.040083 0.184625 0)
(-0.0325639 0.184141 0)
(-0.0257316 0.183629 0)
(-0.0194503 0.183155 0)
(-0.0135907 0.182762 0)
(-0.00803056 0.182481 0)
(-0.0026466 0.181606 0)
(-0.203283 0.0888267 0)
(-0.187046 0.110785 0)
(-0.169487 0.12842 0)
(-0.15193 0.142178 0)
(-0.134922 0.152667 0)
(-0.118908 0.160503 0)
(-0.104098 0.166242 0)
(-0.0905693 0.170354 0)
(-0.0783046 0.173223 0)
(-0.0672346 0.175159 0)
(-0.0572598 0.176404 0)
(-0.0482653 0.177151 0)
(-0.0401302 0.177549 0)
(-0.0327325 0.177713 0)
(-0.0259517 0.177734 0)
(-0.0196699 0.177678 0)
(-0.0137723 0.177596 0)
(-0.00814899 0.17752 0)
(-0.00268733 0.176765 0)
(-0.18243 0.0766191 0)
(-0.169619 0.0968936 0)
(-0.155358 0.113843 0)
(-0.140733 0.127658 0)
(-0.126227 0.138693 0)
(-0.112272 0.147363 0)
(-0.0991168 0.154078 0)
(-0.0868923 0.15921 0)
(-0.0756407 0.163082 0)
(-0.0653463 0.165962 0)
(-0.0559564 0.168073 0)
(-0.0473951 0.169592 0)
(-0.0395736 0.170665 0)
(-0.0323961 0.171404 0)
(-0.0257632 0.171901 0)
(-0.0195749 0.172223 0)
(-0.0137311 0.172422 0)
(-0.0081346 0.172533 0)
(-0.00268415 0.17189 0)
(-0.163556 0.0670233 0)
(-0.153309 0.0857161 0)
(-0.141649 0.101833 0)
(-0.12944 0.115416 0)
(-0.117089 0.126658 0)
(-0.104983 0.135826 0)
(-0.0933755 0.143212 0)
(-0.0824199 0.149102 0)
(-0.0721937 0.153755 0)
(-0.062718 0.157398 0)
(-0.0539747 0.160226 0)
(-0.0459193 0.1624 0)
(-0.03849 0.164053 0)
(-0.0316137 0.165295 0)
(-0.0252108 0.166211 0)
(-0.0191979 0.166868 0)
(-0.0134892 0.167319 0)
(-0.00800021 0.167597 0)
(-0.00264116 0.167056 0)
(-0.146369 0.0593611 0)
(-0.138079 0.076637 0)
(-0.128484 0.0918923 0)
(-0.118266 0.105091 0)
(-0.107757 0.116322 0)
(-0.0972906 0.125749 0)
(-0.0871024 0.133574 0)
(-0.0773518 0.140008 0)
(-0.0681332 0.145255 0)
(-0.0594905 0.149503 0)
(-0.0514302 0.152915 0)
(-0.0439313 0.155634 0)
(-0.0369537 0.15778 0)
(-0.0304438 0.159453 0)
(-0.0243393 0.160732 0)
(-0.0185718 0.161684 0)
(-0.0130691 0.162356 0)
(-0.00775897 0.162781 0)
(-0.00256278 0.162333 0)
(-0.130609 0.0531661 0)
(-0.12384 0.0692027 0)
(-0.115903 0.0836312 0)
(-0.107333 0.0963768 0)
(-0.0983957 0.107464 0)
(-0.0893722 0.116985 0)
(-0.0804727 0.125075 0)
(-0.0718494 0.131887 0)
(-0.063602 0.137576 0)
(-0.055787 0.142292 0)
(-0.0484265 0.146172 0)
(-0.0415169 0.149338 0)
(-0.0350347 0.151895 0)
(-0.0289423 0.153933 0)
(-0.023192 0.155524 0)
(-0.017729 0.156728 0)
(-0.0124933 0.157592 0)
(-0.00742376 0.158147 0)
(-0.00245339 0.157782 0)
(-0.116048 0.0481107 0)
(-0.110486 0.0630777 0)
(-0.103897 0.0767441 0)
(-0.0967007 0.0890183 0)
(-0.0891091 0.099886 0)
(-0.0813543 0.109393 0)
(-0.0736185 0.117624 0)
(-0.0660406 0.124685 0)
(-0.0587179 0.130693 0)
(-0.0517119 0.135766 0)
(-0.0450543 0.140015 0)
(-0.0387529 0.143542 0)
(-0.0327967 0.146437 0)
(-0.0271609 0.148778 0)
(-0.0218098 0.150632 0)
(-0.0167001 0.152052 0)
(-0.011783 0.15308 0)
(-0.00700716 0.153746 0)
(-0.00231725 0.153453 0)
(-0.102495 0.0439606 0)
(-0.0979092 0.0580119 0)
(-0.0924321 0.0709936 0)
(-0.0863926 0.0828091 0)
(-0.0799595 0.093422 0)
(-0.0733224 0.102846 0)
(-0.0666363 0.111129 0)
(-0.0600237 0.118345 0)
(-0.0535752 0.124577 0)
(-0.0473523 0.129915 0)
(-0.0413911 0.134449 0)
(-0.0357066 0.138263 0)
(-0.0302969 0.141431 0)
(-0.0251466 0.144023 0)
(-0.0202301 0.146095 0)
(-0.0155137 0.147696 0)
(-0.0109584 0.148863 0)
(-0.00652096 0.149623 0)
(-0.00215823 0.149394 0)
(-0.0897896 0.040545 0)
(-0.0860075 0.0538177 0)
(-0.0814608 0.0661955 0)
(-0.0764066 0.0775827 0)
(-0.0709793 0.0879307 0)
(-0.0653321 0.0972318 0)
(-0.0595948 0.10551 0)
(-0.0538732 0.11281 0)
(-0.0482485 0.119192 0)
(-0.042779 0.124724 0)
(-0.0375017 0.129474 0)
(-0.0324357 0.133512 0)
(-0.027585 0.136899 0)
(-0.0229413 0.139693 0)
(-0.0184867 0.141945 0)
(-0.0141957 0.143695 0)
(-0.0100377 0.144978 0)
(-0.00597634 0.145816 0)
(-0.0019797 0.145642 0)
(-0.0777925 0.0377376 0)
(-0.0746855 0.0503531 0)
(-0.0709298 0.0622064 0)
(-0.066726 0.0732056 0)
(-0.0621806 0.0832956 0)
(-0.0574168 0.0924552 0)
(-0.0525413 0.10069 0)
(-0.0476439 0.108026 0)
(-0.0427954 0.114503 0)
(-0.0380488 0.120171 0)
(-0.0334397 0.125083 0)
(-0.0289889 0.129293 0)
(-0.0247038 0.132852 0)
(-0.0205814 0.135809 0)
(-0.0166096 0.138205 0)
(-0.0127695 0.140077 0)
(-0.00903749 0.141455 0)
(-0.00538325 0.142358 0)
(-0.0017848 0.142231 0)
(-0.0663852 0.0354441 0)
(-0.0638559 0.0475102 0)
(-0.0607842 0.058915 0)
(-0.0573247 0.0695715 0)
(-0.0535621 0.0794216 0)
(-0.0495937 0.0884354 0)
(-0.0455065 0.096606 0)
(-0.0413749 0.103945 0)
(-0.0372594 0.110478 0)
(-0.0332063 0.116238 0)
(-0.0292486 0.121268 0)
(-0.0254066 0.125607 0)
(-0.0216898 0.129299 0)
(-0.0180984 0.132383 0)
(-0.0146248 0.134894 0)
(-0.0112554 0.136864 0)
(-0.00797233 0.138318 0)
(-0.00475073 0.139275 0)
(-0.00157623 0.139187 0)
(-0.0554641 0.0335937 0)
(-0.0534391 0.045207 0)
(-0.0509691 0.0562353 0)
(-0.0481715 0.0665964 0)
(-0.0451126 0.0762316 0)
(-0.0418685 0.0851055 0)
(-0.0385084 0.0932026 0)
(-0.035093 0.100524 0)
(-0.0316725 0.107083 0)
(-0.0282862 0.112904 0)
(-0.0249631 0.118016 0)
(-0.0217222 0.122452 0)
(-0.0185735 0.126244 0)
(-0.0155192 0.129426 0)
(-0.012555 0.132027 0)
(-0.00967135 0.134074 0)
(-0.00685517 0.135589 0)
(-0.00408658 0.136587 0)
(-0.00135654 0.136531 0)
(-0.0449374 0.0321334 0)
(-0.043362 0.0433813 0)
(-0.0414314 0.0541009 0)
(-0.0392322 0.0642147 0)
(-0.0368152 0.0736643 0)
(-0.0342385 0.0824112 0)
(-0.0315561 0.0904341 0)
(-0.0288157 0.0977265 0)
(-0.0260577 0.104294 0)
(-0.0233146 0.110151 0)
(-0.0206107 0.115319 0)
(-0.0179626 0.119823 0)
(-0.0153801 0.123689 0)
(-0.0128663 0.126944 0)
(-0.0104194 0.129613 0)
(-0.00803278 0.131719 0)
(-0.00569722 0.133281 0)
(-0.00339768 0.134312 0)
(-0.00112807 0.134282 0)
(-0.0347226 0.0310246 0)
(-0.033557 0.041987 0)
(-0.0321196 0.0524619 0)
(-0.0304708 0.0623758 0)
(-0.0286486 0.0716715 0)
(-0.0266955 0.0803088 0)
(-0.0246516 0.0882627 0)
(-0.022553 0.0955214 0)
(-0.0204311 0.102085 0)
(-0.0183111 0.10796 0)
(-0.0162127 0.113164 0)
(-0.0141497 0.117714 0)
(-0.0121305 0.121631 0)
(-0.010159 0.124939 0)
(-0.00823445 0.127658 0)
(-0.00635301 0.129808 0)
(-0.00450836 0.131404 0)
(-0.00268979 0.132459 0)
(-0.000892973 0.132449 0)
(-0.0247444 0.0302398 0)
(-0.0239613 0.0409907 0)
(-0.022984 0.0512816 0)
(-0.0218515 0.0610426 0)
(-0.0205894 0.070218 0)
(-0.0192269 0.0787668 0)
(-0.0177918 0.0866619 0)
(-0.0163097 0.0938881 0)
(-0.0148029 0.100441 0)
(-0.01329 0.106324 0)
(-0.0117857 0.111548 0)
(-0.0103008 0.116128 0)
(-0.00884209 0.120081 0)
(-0.00741308 0.123424 0)
(-0.00601425 0.126178 0)
(-0.00464352 0.128358 0)
(-0.00329704 0.129979 0)
(-0.00196802 0.131051 0)
(-0.00065295 0.131056 0)
(-0.0149352 0.0297576 0)
(-0.0145198 0.0403605 0)
(-0.0139835 0.0505177 0)
(-0.0133464 0.0601624 0)
(-0.0126232 0.0692409 0)
(-0.0118305 0.0777126 0)
(-0.0109848 0.0855496 0)
(-0.0101019 0.0927354 0)
(-0.00919555 0.099263 0)
(-0.00827793 0.105134 0)
(-0.00735874 0.110356 0)
(-0.00644539 0.114941 0)
(-0.00554302 0.118904 0)
(-0.00465463 0.122261 0)
(-0.00378134 0.125028 0)
(-0.00292264 0.127221 0)
(-0.00207672 0.128853 0)
(-0.00124064 0.129933 0)
(-0.000411283 0.129946 0)
(-0.00504867 0.0295074 0)
(-0.00492963 0.0400271 0)
(-0.00476908 0.0501097 0)
(-0.00457205 0.0596912 0)
(-0.00434282 0.0687191 0)
(-0.00408662 0.0771534 0)
(-0.00380892 0.0849654 0)
(-0.00351508 0.0921375 0)
(-0.00321004 0.0986613 0)
(-0.00289815 0.104536 0)
(-0.00258308 0.109769 0)
(-0.0022677 0.114368 0)
(-0.00195412 0.118347 0)
(-0.00164373 0.121722 0)
(-0.00133723 0.124506 0)
(-0.00103473 0.126714 0)
(-0.000735928 0.128358 0)
(-0.000440147 0.129446 0)
(-0.000145889 0.129466 0)
)
;

boundaryField
{
    leftWall
    {
        type            fixedValue;
        value           nonuniform 0();
    }
    rightWall
    {
        type            fixedValue;
        value           uniform (0 0 0);
    }
    lowerWall
    {
        type            fixedValue;
        value           nonuniform 0();
    }
    atmosphere
    {
        type            fluxCorrectedVelocity;
        value           nonuniform List<vector> 
23
(
(-0.00519913 0.00755199 0)
(-0.00517187 0.012334 0)
(-0.00514568 0.0170699 0)
(-0.00511516 0.0217567 0)
(-0.00504867 0.0295123 0)
(-0.00492963 0.0400307 0)
(-0.00476908 0.0501118 0)
(-0.00457205 0.0596916 0)
(-0.00434282 0.0687178 0)
(-0.00408662 0.0771504 0)
(-0.00380892 0.0849608 0)
(-0.00351508 0.0921314 0)
(-0.00321004 0.0986538 0)
(-0.00289815 0.104528 0)
(-0.00258308 0.109759 0)
(-0.0022677 0.114357 0)
(-0.00195412 0.118336 0)
(-0.00164373 0.12171 0)
(-0.00133723 0.124493 0)
(-0.00103473 0.126701 0)
(-0.000735928 0.128345 0)
(-0.000440147 0.129432 0)
(-0.000145889 0.129452 0)
)
;
    }
    defaultFaces
    {
        type            empty;
    }
    procBoundary3to1
    {
        type            processor;
        value           nonuniform List<vector> 
23
(
(0.0294888 -0.13821 0)
(-0.253495 0.652156 0)
(-0.157736 0.658016 0)
(-0.164519 0.612293 0)
(-0.154921 0.556434 0)
(-0.131634 0.493517 0)
(-0.107734 0.444166 0)
(-0.0862377 0.404592 0)
(-0.0677663 0.371934 0)
(-0.052344 0.344433 0)
(-0.039699 0.321005 0)
(-0.0294713 0.300878 0)
(-0.0213262 0.283507 0)
(-0.0149587 0.268515 0)
(-0.0100741 0.255639 0)
(-0.00640747 0.244656 0)
(-0.00374778 0.23537 0)
(-0.00191162 0.227641 0)
(-0.000727763 0.221357 0)
(-7.04863e-05 0.216432 0)
(0.000199119 0.212798 0)
(0.000201521 0.210405 0)
(7.52597e-05 0.208025 0)
)
;
    }
    procBoundary3to2
    {
        type            processor;
        value           nonuniform List<vector> 
25
(
(0.0291627 -0.442268 0)
(-0.112286 -0.352117 0)
(-0.857627 0.268572 0)
(-0.608095 -0.109429 0)
(-0.546236 0.0901981 0)
(-0.408995 -0.00158864 0)
(-0.352403 0.0283017 0)
(-0.298762 0.0139247 0)
(-0.26035 0.0133806 0)
(-0.228609 0.0109268 0)
(-0.201954 0.00900186 0)
(-0.178964 0.00736829 0)
(-0.158741 0.0059786 0)
(-0.140663 0.00479941 0)
(-0.124284 0.00380199 0)
(-0.109271 0.00296229 0)
(-0.0953639 0.00226009 0)
(-0.0823593 0.00167844 0)
(-0.0700898 0.00120329 0)
(-0.0584154 0.000823102 0)
(-0.0472164 0.000528657 0)
(-0.0363866 0.000312999 0)
(-0.0258299 0.000166709 0)
(-0.0154532 0.000121964 0)
(-0.00522707 4.03121e-05 0)
)
;
    }
}


// ************************************************************************* //
