/*--------------------------------*- C++ -*----------------------------------*\
| =========                 |                                                 |
| \\      /  F ield         | OpenFOAM: The Open Source CFD Toolbox           |
|  \\    /   O peration     | Version:  2.4.0                                 |
|   \\  /    A nd           | Web:      www.OpenFOAM.org                      |
|    \\/     M anipulation  |                                                 |
\*---------------------------------------------------------------------------*/
FoamFile
{
    version     2.0;
    format      ascii;
    class       volVectorField;
    location    "0.05";
    object      U.water;
}
// * * * * * * * * * * * * * * * * * * * * * * * * * * * * * * * * * * * * * //

dimensions      [0 1 -1 0 0 0 0];

internalField   nonuniform List<vector> 
575
(
(0.0400689 0.0407199 0)
(-0.369782 0.661398 0)
(-0.216589 0.644223 0)
(-0.251605 0.592701 0)
(-0.378341 0.641074 0)
(-0.502632 0.681358 0)
(-0.355524 0.619432 0)
(-0.360485 0.548694 0)
(-0.722041 0.492105 0)
(-0.627164 0.496172 0)
(-0.506383 0.443051 0)
(-0.44476 0.43844 0)
(-0.575156 0.243562 0)
(-0.510322 0.272435 0)
(-0.454212 0.278964 0)
(-0.424301 0.312096 0)
(-0.520862 0.149535 0)
(-0.45227 0.175606 0)
(-0.421907 0.195616 0)
(-0.382243 0.220523 0)
(-0.397922 0.0839451 0)
(-0.378245 0.114316 0)
(-0.364587 0.142609 0)
(-0.341347 0.164003 0)
(-0.345544 0.0644961 0)
(-0.329897 0.0870157 0)
(-0.319118 0.108022 0)
(-0.302807 0.126601 0)
(-0.29483 0.0483171 0)
(-0.287037 0.0675774 0)
(-0.280159 0.0853626 0)
(-0.268871 0.101369 0)
(-0.257388 0.0388416 0)
(-0.251785 0.0545178 0)
(-0.247057 0.0694007 0)
(-0.238956 0.0832572 0)
(-0.226453 0.0321643 0)
(-0.222349 0.045306 0)
(-0.218889 0.0579482 0)
(-0.212832 0.06995 0)
(-0.200275 0.0270825 0)
(-0.197137 0.0383795 0)
(-0.194512 0.0493362 0)
(-0.189861 0.0598582 0)
(-0.177616 0.0231166 0)
(-0.175155 0.0330088 0)
(-0.173097 0.04266 0)
(-0.16945 0.0520029 0)
(-0.157639 0.0199446 0)
(-0.155671 0.0287478 0)
(-0.154022 0.0373724 0)
(-0.151119 0.0457689 0)
(-0.139752 0.0173693 0)
(-0.138164 0.0253122 0)
(-0.13682 0.0331177 0)
(-0.134482 0.0407485 0)
(-0.123527 0.0152586 0)
(-0.122236 0.0225118 0)
(-0.121127 0.0296562 0)
(-0.119234 0.0366627 0)
(-0.108638 0.0135208 0)
(-0.107589 0.0202152 0)
(-0.106669 0.026821 0)
(-0.10513 0.0333156 0)
(-0.0948381 0.0120885 0)
(-0.0939856 0.0183272 0)
(-0.0932193 0.0244924 0)
(-0.0919697 0.0305656 0)
(-0.0819241 0.0109118 0)
(-0.0812374 0.0167783 0)
(-0.0806011 0.0225825 0)
(-0.0795908 0.028309 0)
(-0.0697347 0.00995283 0)
(-0.0691866 0.0155164 0)
(-0.0686631 0.021026 0)
(-0.0678557 0.0264686 0)
(-0.058131 0.00918314 0)
(-0.0577041 0.0145025 0)
(-0.0572806 0.0197741 0)
(-0.0566464 0.0249866 0)
(-0.0469975 0.00858106 0)
(-0.0466748 0.0137073 0)
(-0.0463426 0.0187903 0)
(-0.0458605 0.02382 0)
(-0.0362286 0.00813075 0)
(-0.0360002 0.0131097 0)
(-0.0357541 0.0180483 0)
(-0.0354066 0.0229375 0)
(-0.0257322 0.00782145 0)
(-0.025588 0.0126956 0)
(-0.0254256 0.0175303 0)
(-0.0252019 0.0223174 0)
(-0.0154118 0.00765866 0)
(-0.0153544 0.0124619 0)
(-0.015279 0.0172271 0)
(-0.0151714 0.0219461 0)
(-0.00519829 0.00755401 0)
(-0.00517134 0.0123339 0)
(-0.0051453 0.0170688 0)
(-0.00511494 0.0217551 0)
(-0.22192 0.529514 0)
(-0.18235 0.465223 0)
(-0.146964 0.419687 0)
(-0.117611 0.383825 0)
(-0.0936836 0.354667 0)
(-0.0741946 0.33025 0)
(-0.0583636 0.309448 0)
(-0.0455385 0.291542 0)
(-0.0351982 0.276045 0)
(-0.0269159 0.262629 0)
(-0.0203309 0.251056 0)
(-0.0151383 0.241137 0)
(-0.0110878 0.232719 0)
(-0.00796389 0.225693 0)
(-0.00557865 0.219965 0)
(-0.0037739 0.21546 0)
(-0.00240136 0.212142 0)
(-0.00130929 0.209962 0)
(-0.000470685 0.208143 0)
(-0.286462 0.475864 0)
(-0.230977 0.424656 0)
(-0.181135 0.387221 0)
(-0.144917 0.357744 0)
(-0.116129 0.333603 0)
(-0.0931713 0.313174 0)
(-0.0746504 0.295587 0)
(-0.0596347 0.280296 0)
(-0.047436 0.266948 0)
(-0.037526 0.255298 0)
(-0.029484 0.245173 0)
(-0.0229677 0.236438 0)
(-0.017696 0.228987 0)
(-0.0134315 0.222739 0)
(-0.00997044 0.217626 0)
(-0.00713584 0.213596 0)
(-0.0047655 0.210612 0)
(-0.00269691 0.208643 0)
(-0.000841329 0.207322 0)
(-0.341226 0.398878 0)
(-0.265184 0.373152 0)
(-0.207147 0.348017 0)
(-0.166062 0.327341 0)
(-0.133971 0.30946 0)
(-0.108567 0.293751 0)
(-0.0880944 0.279831 0)
(-0.0714395 0.267452 0)
(-0.0578088 0.256451 0)
(-0.0466118 0.246712 0)
(-0.0373908 0.238147 0)
(-0.02978 0.230685 0)
(-0.0234805 0.224271 0)
(-0.0182419 0.218856 0)
(-0.0138503 0.214401 0)
(-0.0101192 0.210875 0)
(-0.00688125 0.208252 0)
(-0.00398739 0.206503 0)
(-0.00128058 0.204729 0)
(-0.350842 0.31554 0)
(-0.280048 0.314899 0)
(-0.222174 0.305241 0)
(-0.179781 0.294489 0)
(-0.146488 0.28348 0)
(-0.119959 0.272838 0)
(-0.0984313 0.262797 0)
(-0.0807779 0.253471 0)
(-0.0661943 0.244918 0)
(-0.0540829 0.237162 0)
(-0.0439811 0.230215 0)
(-0.0355199 0.224075 0)
(-0.0283972 0.218735 0)
(-0.0223596 0.214186 0)
(-0.01719 0.210416 0)
(-0.0126993 0.207416 0)
(-0.00871906 0.205175 0)
(-0.00510372 0.203679 0)
(-0.00167918 0.20198 0)
(-0.335319 0.24315 0)
(-0.274816 0.259678 0)
(-0.225338 0.263285 0)
(-0.185708 0.261601 0)
(-0.153527 0.257135 0)
(-0.127261 0.251402 0)
(-0.105603 0.245163 0)
(-0.0876068 0.238852 0)
(-0.0725583 0.232727 0)
(-0.0599102 0.22695 0)
(-0.0492293 0.221621 0)
(-0.0401649 0.216807 0)
(-0.0324261 0.21255 0)
(-0.0257667 0.208877 0)
(-0.0199742 0.205802 0)
(-0.0148613 0.203336 0)
(-0.0102596 0.201485 0)
(-0.00601604 0.20025 0)
(-0.00197701 0.198838 0)
(-0.308852 0.192083 0)
(-0.261526 0.214344 0)
(-0.220307 0.225916 0)
(-0.185283 0.230868 0)
(-0.15568 0.231794 0)
(-0.130771 0.230362 0)
(-0.109774 0.22758 0)
(-0.0920213 0.224076 0)
(-0.0769576 0.22025 0)
(-0.0641274 0.216368 0)
(-0.0531546 0.212605 0)
(-0.0437249 0.209084 0)
(-0.0355714 0.205889 0)
(-0.0284643 0.203077 0)
(-0.022202 0.200689 0)
(-0.0166045 0.198753 0)
(-0.0115083 0.197288 0)
(-0.00676245 0.196305 0)
(-0.00222273 0.195035 0)
(-0.27971 0.153663 0)
(-0.243868 0.178474 0)
(-0.210339 0.194199 0)
(-0.180341 0.203476 0)
(-0.153956 0.208391 0)
(-0.131056 0.210425 0)
(-0.11128 0.210585 0)
(-0.094231 0.20956 0)
(-0.0795272 0.207819 0)
(-0.0668237 0.205687 0)
(-0.0558166 0.203391 0)
(-0.04624 0.201095 0)
(-0.0378602 0.198913 0)
(-0.0304704 0.19693 0)
(-0.0238855 0.195206 0)
(-0.0179374 0.193784 0)
(-0.0124714 0.192695 0)
(-0.00734432 0.191957 0)
(-0.00241651 0.19082 0)
(-0.251938 0.125565 0)
(-0.224685 0.150326 0)
(-0.197663 0.167853 0)
(-0.172411 0.179707 0)
(-0.149372 0.187372 0)
(-0.128772 0.192028 0)
(-0.110546 0.194564 0)
(-0.0945174 0.195632 0)
(-0.0804577 0.195709 0)
(-0.0681305 0.19514 0)
(-0.0573073 0.194179 0)
(-0.0477752 0.193011 0)
(-0.0393385 0.191775 0)
(-0.0318176 0.190571 0)
(-0.0250476 0.189475 0)
(-0.0188756 0.188543 0)
(-0.0131586 0.187813 0)
(-0.00776301 0.18731 0)
(-0.00255651 0.186306 0)
(-0.226384 0.104675 0)
(-0.205494 0.128246 0)
(-0.183747 0.146196 0)
(-0.162661 0.1594 0)
(-0.142794 0.168835 0)
(-0.124538 0.175378 0)
(-0.108011 0.179749 0)
(-0.0931897 0.182518 0)
(-0.0799687 0.184128 0)
(-0.0682053 0.184915 0)
(-0.0577407 0.185136 0)
(-0.0484136 0.184985 0)
(-0.0400669 0.18461 0)
(-0.03255 0.184124 0)
(-0.0257201 0.183612 0)
(-0.0194413 0.183136 0)
(-0.0135842 0.182743 0)
(-0.00802653 0.182461 0)
(-0.00264519 0.181585 0)
(-0.203266 0.0888495 0)
(-0.187028 0.110807 0)
(-0.16947 0.12844 0)
(-0.151913 0.142196 0)
(-0.134905 0.152681 0)
(-0.11889 0.160514 0)
(-0.10408 0.166249 0)
(-0.0905508 0.170357 0)
(-0.0782861 0.173222 0)
(-0.0672166 0.175155 0)
(-0.0572426 0.176397 0)
(-0.0482494 0.177142 0)
(-0.0401159 0.177537 0)
(-0.0327201 0.1777 0)
(-0.0259414 0.177719 0)
(-0.0196618 0.177662 0)
(-0.0137664 0.177579 0)
(-0.00814535 0.177502 0)
(-0.00268609 0.176747 0)
(-0.182413 0.0766396 0)
(-0.169603 0.096913 0)
(-0.155343 0.113861 0)
(-0.140718 0.127674 0)
(-0.126213 0.138706 0)
(-0.112257 0.147373 0)
(-0.0991019 0.154085 0)
(-0.086877 0.159214 0)
(-0.0756252 0.163083 0)
(-0.065331 0.16596 0)
(-0.0559416 0.168068 0)
(-0.0473813 0.169585 0)
(-0.0395611 0.170655 0)
(-0.0323851 0.171393 0)
(-0.0257541 0.171888 0)
(-0.0195676 0.172209 0)
(-0.0137258 0.172408 0)
(-0.00813134 0.172518 0)
(-0.002683 0.171874 0)
(-0.16354 0.0670417 0)
(-0.153294 0.0857334 0)
(-0.141635 0.101849 0)
(-0.129427 0.115431 0)
(-0.117077 0.12667 0)
(-0.104971 0.135836 0)
(-0.0933633 0.14322 0)
(-0.0824074 0.149107 0)
(-0.0721809 0.153757 0)
(-0.0627051 0.157397 0)
(-0.0539621 0.160222 0)
(-0.0459075 0.162394 0)
(-0.0384791 0.164046 0)
(-0.0316041 0.165286 0)
(-0.0252028 0.1662 0)
(-0.0191915 0.166857 0)
(-0.0134845 0.167307 0)
(-0.00799734 0.167584 0)
(-0.0026402 0.167043 0)
(-0.146355 0.0593776 0)
(-0.138065 0.0766525 0)
(-0.128472 0.0919066 0)
(-0.118255 0.105104 0)
(-0.107747 0.116333 0)
(-0.0972807 0.125758 0)
(-0.0870924 0.133581 0)
(-0.0773415 0.140013 0)
(-0.0681226 0.145258 0)
(-0.0594798 0.149503 0)
(-0.0514196 0.152913 0)
(-0.0439212 0.15563 0)
(-0.0369444 0.157774 0)
(-0.0304356 0.159445 0)
(-0.0243324 0.160724 0)
(-0.0185663 0.161674 0)
(-0.0130651 0.162345 0)
(-0.00775648 0.16277 0)
(-0.00256189 0.162322 0)
(-0.130595 0.0531809 0)
(-0.123827 0.0692166 0)
(-0.115892 0.0836439 0)
(-0.107323 0.0963881 0)
(-0.098387 0.107473 0)
(-0.0893641 0.116993 0)
(-0.0804646 0.125081 0)
(-0.0718411 0.131891 0)
(-0.0635933 0.137578 0)
(-0.055778 0.142293 0)
(-0.0484176 0.146171 0)
(-0.0415083 0.149335 0)
(-0.0350267 0.151891 0)
(-0.0289353 0.153927 0)
(-0.0231861 0.155516 0)
(-0.0177242 0.15672 0)
(-0.0124898 0.157583 0)
(-0.00742165 0.158137 0)
(-0.0024527 0.157772 0)
(-0.116035 0.0481243 0)
(-0.110474 0.0630901 0)
(-0.103887 0.0767553 0)
(-0.0966921 0.0890281 0)
(-0.0891018 0.0998945 0)
(-0.0813476 0.1094 0)
(-0.0736119 0.117629 0)
(-0.0660337 0.124689 0)
(-0.0587107 0.130696 0)
(-0.0517045 0.135767 0)
(-0.0450469 0.140014 0)
(-0.0387457 0.14354 0)
(-0.0327901 0.146433 0)
(-0.027155 0.148773 0)
(-0.0218048 0.150626 0)
(-0.0166961 0.152045 0)
(-0.0117802 0.153072 0)
(-0.0070054 0.153737 0)
(-0.00231661 0.153445 0)
(-0.102484 0.043973 0)
(-0.0978986 0.058023 0)
(-0.092423 0.0710035 0)
(-0.0863851 0.0828177 0)
(-0.0799533 0.0934293 0)
(-0.0733169 0.102852 0)
(-0.0666309 0.111134 0)
(-0.060018 0.118348 0)
(-0.0535693 0.124579 0)
(-0.0473462 0.129917 0)
(-0.0413849 0.134449 0)
(-0.0357007 0.138261 0)
(-0.0302914 0.141429 0)
(-0.0251418 0.144019 0)
(-0.020226 0.14609 0)
(-0.0155105 0.14769 0)
(-0.0109561 0.148856 0)
(-0.00651954 0.149616 0)
(-0.00215777 0.149387 0)
(-0.0897793 0.0405564 0)
(-0.0859981 0.0538277 0)
(-0.0814529 0.0662041 0)
(-0.0764002 0.0775902 0)
(-0.0709741 0.087937 0)
(-0.0653275 0.0972372 0)
(-0.0595903 0.105514 0)
(-0.0538685 0.112813 0)
(-0.0482436 0.119194 0)
(-0.042774 0.124725 0)
(-0.0374967 0.129475 0)
(-0.0324309 0.133511 0)
(-0.0275806 0.136897 0)
(-0.0229374 0.13969 0)
(-0.0184835 0.14194 0)
(-0.0141932 0.14369 0)
(-0.0100359 0.144972 0)
(-0.0059752 0.14581 0)
(-0.00197926 0.145636 0)
(-0.0777836 0.0377481 0)
(-0.0746774 0.0503621 0)
(-0.0709231 0.062214 0)
(-0.0667206 0.0732121 0)
(-0.0621763 0.0833012 0)
(-0.0574129 0.09246 0)
(-0.0525375 0.100694 0)
(-0.0476399 0.108029 0)
(-0.0427914 0.114506 0)
(-0.0380448 0.120173 0)
(-0.0334358 0.125084 0)
(-0.0289852 0.129292 0)
(-0.0247004 0.13285 0)
(-0.0205784 0.135806 0)
(-0.0166071 0.138201 0)
(-0.0127676 0.140073 0)
(-0.00903609 0.14145 0)
(-0.00538238 0.142353 0)
(-0.00178452 0.142226 0)
(-0.0663776 0.0354538 0)
(-0.0638491 0.0475184 0)
(-0.0607786 0.0589219 0)
(-0.0573203 0.0695772 0)
(-0.0535584 0.0794266 0)
(-0.0495904 0.0884398 0)
(-0.0455033 0.0966098 0)
(-0.0413716 0.103948 0)
(-0.0372561 0.11048 0)
(-0.0332032 0.11624 0)
(-0.0292456 0.121268 0)
(-0.0254039 0.125607 0)
(-0.0216873 0.129298 0)
(-0.0180962 0.132381 0)
(-0.014623 0.134891 0)
(-0.011254 0.136861 0)
(-0.00797137 0.138314 0)
(-0.00475008 0.13927 0)
(-0.00157595 0.139182 0)
(-0.0554579 0.0336026 0)
(-0.0534336 0.0452144 0)
(-0.0509646 0.0562415 0)
(-0.0481679 0.0666016 0)
(-0.0451095 0.0762362 0)
(-0.0418657 0.0851095 0)
(-0.0385058 0.093206 0)
(-0.0350904 0.100527 0)
(-0.03167 0.107086 0)
(-0.0282839 0.112906 0)
(-0.024961 0.118017 0)
(-0.0217202 0.122451 0)
(-0.0185717 0.126243 0)
(-0.0155176 0.129424 0)
(-0.0125537 0.132024 0)
(-0.00967041 0.134071 0)
(-0.0068545 0.135585 0)
(-0.0040862 0.136583 0)
(-0.00135645 0.136527 0)
(-0.0449325 0.0321415 0)
(-0.0433577 0.043388 0)
(-0.0414279 0.0541065 0)
(-0.0392292 0.0642194 0)
(-0.0368126 0.0736684 0)
(-0.0342363 0.0824148 0)
(-0.031554 0.0904371 0)
(-0.0288138 0.0977289 0)
(-0.0260559 0.104296 0)
(-0.023313 0.110152 0)
(-0.0206092 0.115319 0)
(-0.0179613 0.119822 0)
(-0.0153789 0.123688 0)
(-0.0128653 0.126942 0)
(-0.0104185 0.129611 0)
(-0.0080322 0.131717 0)
(-0.00569696 0.133278 0)
(-0.00339753 0.134309 0)
(-0.00112795 0.134279 0)
(-0.034719 0.0310316 0)
(-0.0335538 0.0419927 0)
(-0.0321168 0.0524666 0)
(-0.0304685 0.0623797 0)
(-0.0286466 0.0716748 0)
(-0.0266937 0.0803116 0)
(-0.0246499 0.0882649 0)
(-0.0225516 0.0955231 0)
(-0.0204298 0.102086 0)
(-0.01831 0.107961 0)
(-0.0162117 0.113164 0)
(-0.0141488 0.117713 0)
(-0.0121298 0.12163 0)
(-0.0101583 0.124938 0)
(-0.00823397 0.127657 0)
(-0.00635279 0.129806 0)
(-0.00450835 0.131402 0)
(-0.00268971 0.132457 0)
(-0.000892874 0.132447 0)
(-0.0247419 0.0302455 0)
(-0.023959 0.0409952 0)
(-0.0229821 0.0512851 0)
(-0.0218498 0.0610454 0)
(-0.020588 0.0702201 0)
(-0.0192256 0.0787684 0)
(-0.0177907 0.0866629 0)
(-0.0163087 0.0938887 0)
(-0.0148021 0.100441 0)
(-0.0132894 0.106324 0)
(-0.0117852 0.111548 0)
(-0.0103003 0.116127 0)
(-0.00884166 0.120079 0)
(-0.00741273 0.123423 0)
(-0.00601402 0.126176 0)
(-0.0046435 0.128356 0)
(-0.00329711 0.129977 0)
(-0.00196803 0.131049 0)
(-0.000652943 0.131053 0)
(-0.014934 0.0297619 0)
(-0.0145185 0.0403637 0)
(-0.0139823 0.0505199 0)
(-0.0133454 0.0601639 0)
(-0.0126223 0.0692417 0)
(-0.0118297 0.0777129 0)
(-0.0109842 0.0855494 0)
(-0.0101013 0.0927347 0)
(-0.00919512 0.099262 0)
(-0.00827758 0.105133 0)
(-0.00735845 0.110354 0)
(-0.00644514 0.114939 0)
(-0.00554279 0.118902 0)
(-0.00465445 0.122258 0)
(-0.00378124 0.125026 0)
(-0.00292264 0.127219 0)
(-0.00207681 0.128851 0)
(-0.00124074 0.129931 0)
(-0.000411311 0.129944 0)
(-0.00504837 0.0295107 0)
(-0.00492922 0.0400295 0)
(-0.00476868 0.0501113 0)
(-0.00457168 0.059692 0)
(-0.00434249 0.0687193 0)
(-0.00408633 0.0771529 0)
(-0.00380868 0.0849644 0)
(-0.00351488 0.0921361 0)
(-0.00320988 0.0986596 0)
(-0.00289803 0.104535 0)
(-0.00258297 0.109766 0)
(-0.0022676 0.114366 0)
(-0.00195404 0.118345 0)
(-0.00164366 0.12172 0)
(-0.00133719 0.124504 0)
(-0.00103474 0.126712 0)
(-0.000735974 0.128356 0)
(-0.000440186 0.129444 0)
(-0.000145901 0.129464 0)
)
;

boundaryField
{
    leftWall
    {
        type            fixedValue;
        value           nonuniform 0();
    }
    rightWall
    {
        type            fixedValue;
        value           uniform (0 0 0);
    }
    lowerWall
    {
        type            fixedValue;
        value           nonuniform 0();
    }
    atmosphere
    {
        type            fluxCorrectedVelocity;
        value           nonuniform List<vector> 
23
(
(-0.00519829 0.00755199 0)
(-0.00517134 0.012334 0)
(-0.0051453 0.0170699 0)
(-0.00511494 0.0217567 0)
(-0.00504837 0.0295123 0)
(-0.00492922 0.0400307 0)
(-0.00476868 0.0501118 0)
(-0.00457168 0.0596916 0)
(-0.00434249 0.0687178 0)
(-0.00408633 0.0771504 0)
(-0.00380868 0.0849608 0)
(-0.00351488 0.0921314 0)
(-0.00320988 0.0986538 0)
(-0.00289803 0.104528 0)
(-0.00258297 0.109759 0)
(-0.0022676 0.114357 0)
(-0.00195404 0.118336 0)
(-0.00164366 0.12171 0)
(-0.00133719 0.124493 0)
(-0.00103474 0.126701 0)
(-0.000735974 0.128345 0)
(-0.000440186 0.129432 0)
(-0.000145901 0.129452 0)
)
;
    }
    defaultFaces
    {
        type            empty;
    }
    procBoundary3to1
    {
        type            processor;
        value           nonuniform List<vector> 
23
(
(0.0154663 -0.409502 0)
(-0.253304 0.651646 0)
(-0.157652 0.657966 0)
(-0.164439 0.61224 0)
(-0.154833 0.556363 0)
(-0.131557 0.493441 0)
(-0.107661 0.444087 0)
(-0.0861681 0.404513 0)
(-0.0677017 0.371854 0)
(-0.0522858 0.344355 0)
(-0.0396466 0.320929 0)
(-0.0294247 0.300805 0)
(-0.0212847 0.283437 0)
(-0.0149222 0.268449 0)
(-0.0100422 0.255575 0)
(-0.00638018 0.244595 0)
(-0.00372479 0.235312 0)
(-0.00189282 0.227584 0)
(-0.000712782 0.221302 0)
(-5.91673e-05 0.216378 0)
(0.000207072 0.212744 0)
(0.000206433 0.210352 0)
(7.70349e-05 0.207973 0)
)
;
    }
    procBoundary3to2
    {
        type            processor;
        value           nonuniform List<vector> 
25
(
(-0.00107162 -0.472919 0)
(-0.0204154 -0.450278 0)
(-0.852389 0.264039 0)
(-0.608101 -0.10945 0)
(-0.546243 0.0902045 0)
(-0.40899 -0.00156733 0)
(-0.352394 0.0283282 0)
(-0.298749 0.0139523 0)
(-0.260337 0.0134073 0)
(-0.228595 0.0109515 0)
(-0.201941 0.00902455 0)
(-0.178951 0.00738911 0)
(-0.158729 0.0059979 0)
(-0.140651 0.00481723 0)
(-0.124274 0.00381855 0)
(-0.109261 0.00297787 0)
(-0.0953553 0.00227488 0)
(-0.0823514 0.00169242 0)
(-0.070083 0.00121641 0)
(-0.0584095 0.000835413 0)
(-0.0472115 0.000540071 0)
(-0.0363825 0.000323394 0)
(-0.025827 0.000176161 0)
(-0.0154511 0.000129958 0)
(-0.00522614 4.69148e-05 0)
)
;
    }
}


// ************************************************************************* //
