/*--------------------------------*- C++ -*----------------------------------*\
| =========                 |                                                 |
| \\      /  F ield         | OpenFOAM: The Open Source CFD Toolbox           |
|  \\    /   O peration     | Version:  2.4.0                                 |
|   \\  /    A nd           | Web:      www.OpenFOAM.org                      |
|    \\/     M anipulation  |                                                 |
\*---------------------------------------------------------------------------*/
FoamFile
{
    version     2.0;
    format      ascii;
    class       volScalarField;
    location    "0.8";
    object      alpha.oil;
}
// * * * * * * * * * * * * * * * * * * * * * * * * * * * * * * * * * * * * * //

dimensions      [0 0 0 0 0 0 0];

internalField   nonuniform List<scalar> 
2268
(
9.56122e-17
5.80751e-16
8.04573e-16
1.17884e-15
2.2563e-15
1.68067e-15
2.38844e-15
9.24064e-15
1.268e-13
1.07398e-12
5.98791e-12
2.39959e-11
7.44906e-11
1.95023e-10
4.68724e-10
1.16669e-09
2.71374e-09
4.93395e-09
1.36886e-08
7.10579e-08
1.07778e-06
5.06255e-06
8.54809e-06
1.03067e-15
5.79954e-15
1.42106e-14
1.58413e-14
2.99515e-14
3.22048e-14
5.25187e-14
5.55507e-14
1.94936e-13
1.28235e-12
6.0154e-12
1.97397e-11
4.82116e-11
9.47361e-11
2.33912e-10
1.57507e-09
5.24951e-09
8.60332e-09
1.8656e-08
4.83816e-08
6.74115e-07
5.20277e-06
1.15264e-05
5.97679e-15
3.16468e-14
1.12623e-13
1.04509e-13
2.17761e-13
3.45286e-13
6.2797e-13
4.95843e-13
4.91731e-13
1.26477e-12
4.84889e-12
1.48341e-11
3.39324e-11
6.01053e-11
3.77841e-10
2.59946e-09
5.93066e-09
1.5419e-08
3.04177e-08
6.5361e-08
2.02174e-07
2.33321e-06
1.17179e-05
2.65907e-14
1.2854e-13
4.63266e-13
4.60858e-13
1.47166e-12
2.88203e-12
5.91985e-12
3.72068e-12
2.54761e-12
2.65758e-12
5.54501e-12
1.55213e-11
4.27406e-11
2.44503e-10
5.81193e-09
2.44274e-08
3.6121e-08
5.44045e-08
1.40718e-07
3.98957e-07
1.12462e-06
3.85305e-06
1.18015e-05
1.11767e-13
4.38582e-13
1.25591e-12
2.46827e-12
1.18601e-11
1.98742e-11
5.77071e-11
2.29056e-11
9.77858e-12
7.05774e-12
8.16415e-12
2.28332e-11
3.05658e-09
9.91086e-08
6.9954e-07
1.27433e-06
1.32259e-06
8.70064e-07
8.66366e-07
1.39277e-06
2.85772e-06
6.0765e-06
1.2066e-05
4.9125e-13
1.12744e-12
4.23361e-12
3.49634e-11
1.85187e-10
3.92921e-10
3.28235e-10
2.39789e-10
1.41829e-10
1.06672e-10
5.33584e-10
4.28143e-08
6.65764e-07
3.04178e-06
6.42729e-06
6.91515e-06
5.94613e-06
3.60724e-06
2.53871e-06
2.43391e-06
3.56402e-06
6.27433e-06
1.11882e-05
1.66688e-12
2.04067e-12
9.35229e-12
7.63113e-11
3.56983e-09
1.00287e-08
2.34593e-09
7.2314e-10
3.53155e-10
2.52408e-09
2.04334e-07
2.47071e-06
8.03146e-06
1.09385e-05
1.09979e-05
1.03197e-05
8.81308e-06
7.01954e-06
7.14142e-06
6.13146e-06
3.9429e-06
2.02523e-05
0.000255554
1.72917e-12
1.72857e-12
1.74196e-12
4.50622e-09
7.62388e-08
1.22705e-07
1.10915e-09
3.53766e-10
3.53474e-10
7.58108e-08
2.50438e-06
1.10187e-05
1.88023e-05
1.18906e-05
1.09977e-05
4.10301e-05
0.000123015
0.000443532
0.000831827
0.000809852
0.000321449
0.00108894
0.00702654
0.133129
0.127668
0.127518
0.127521
0.126152
0.117271
0.117243
0.117162
0.117115
0.117055
0.117027
0.116945
0.116902
0.116835
0.1168
0.116694
0.116632
0.116639
0.116636
0.12904
0.315708
0.427986
0.445447
0.445561
0.43233
0.373189
0.301656
0.268251
0.269125
0.288058
0.31867
0.324124
0.309858
0.193979
0.116586
0.116578
0.11659
0.116595
0.184574
0.306847
0.329242
0.337649
0.342797
0.33781
0.320591
0.298555
0.294273
0.300543
0.325803
0.409243
0.600693
0.71726
0.567447
0.169001
0.116542
0.116529
0.116625
0.258641
0.270171
0.296563
0.312126
0.314404
0.310184
0.293963
0.25015
0.215975
0.216196
0.221727
0.284721
0.472525
0.71681
0.762486
0.25497
0.116482
0.116437
0.119038
0.28619
0.293488
0.308525
0.304926
0.285261
0.257508
0.239078
0.231507
0.220638
0.218887
0.249297
0.331375
0.518682
0.757815
0.761832
0.311752
0.117076
0.116567
0.11664
0.353071
0.478831
0.545389
0.542499
0.497888
0.395352
0.256851
0.188148
0.187099
0.178365
0.21366
0.315613
0.491081
0.74886
0.770293
0.35634
0.118571
0.120408
0.129747
0.339128
0.69877
0.845839
0.869302
0.840654
0.735903
0.496234
0.260176
0.172088
0.15307
0.153101
0.233426
0.431179
0.724796
0.801736
0.381157
0.1319
0.124432
0.262596
0.337578
0.739663
0.950771
0.968571
0.964069
0.935463
0.819168
0.516651
0.228436
0.158752
0.152967
0.16828
0.344585
0.682321
0.848758
0.636
0.322571
0.219567
0.750518
8.9291e-10
3.2556e-07
1.02137e-06
7.41835e-07
9.45147e-07
7.30837e-06
6.45056e-06
2.53098e-06
5.85962e-07
5.50249e-07
1.034e-06
3.73296e-06
2.45321e-05
0.000156168
0.00131641
0.00464281
0.00814118
0.0132707
0.0177515
0.0188145
0.015396
0.0184014
0.0426156
2.10524e-07
6.53362e-05
0.000535651
0.000226551
0.000101641
0.000273273
0.000171818
9.38803e-05
4.34505e-05
2.91101e-05
2.46594e-05
3.17478e-05
0.000510399
0.00213642
0.00683515
0.0181786
0.0312889
0.0445709
0.0533289
0.0580034
0.0530564
0.0540436
0.0765627
0.000186394
0.0101524
0.0399763
0.0227819
0.00682209
0.00718255
0.00446326
0.00159312
0.000762305
0.000545815
0.000472468
0.000887328
0.00639846
0.0429689
0.119462
0.181917
0.226569
0.244675
0.238048
0.242735
0.244789
0.24908
0.236675
0.0248602
0.206957
0.397244
0.292052
0.117412
0.0873269
0.0514632
0.0295907
0.0213724
0.0183065
0.0235036
0.0753175
0.183021
0.322533
0.384671
0.384905
0.390705
0.43691
0.593662
0.64984
0.643626
0.627028
0.699315
0.267868
0.742116
0.844153
0.72656
0.511207
0.415633
0.3474
0.31795
0.327508
0.362527
0.498112
0.554495
0.554317
0.390853
0.162448
0.045651
0.190474
0.655019
0.899192
0.910065
0.88975
0.866261
0.901913
0.612136
0.848427
0.848427
0.848427
0.838131
0.796792
0.779644
0.775009
0.775105
0.752796
0.425427
0.0975125
0.0029713
5.05805e-05
0.0010123
0.0146242
0.296138
0.850721
0.918734
0.918736
0.918734
0.904531
0.593257
0.611779
0.520732
0.325041
0.251172
0.218192
0.214616
0.206816
0.13687
0.053466
0.0115278
0.000561804
0.000125597
4.83831e-06
5.7286e-07
1.75679e-06
0.00120772
0.0636953
0.46181
0.895858
0.918737
0.918739
0.730593
0.0961399
0.123053
0.0320927
0.00890884
0.00377789
0.00192894
0.00164433
0.00103978
0.000517536
0.000249281
2.95185e-05
4.56186e-07
4.26582e-08
6.26458e-08
7.51215e-08
1.08909e-07
1.04076e-05
0.00121489
0.0407235
0.427456
0.881124
0.897969
0.417929
0.00612526
0.00216613
0.000209582
1.5226e-05
1.81059e-06
1.60357e-07
2.70203e-08
1.25936e-07
9.6185e-08
1.17611e-07
2.59799e-08
1.56359e-08
4.2803e-08
1.47436e-07
2.026e-07
1.51133e-07
3.49209e-07
2.54468e-06
0.000723071
0.0545856
0.326294
0.467305
0.11765
0.00039999
4.65019e-06
3.68652e-07
2.91655e-07
1.17294e-07
3.47087e-08
9.43895e-09
1.07604e-08
1.07627e-08
1.51343e-08
1.51585e-08
1.51863e-08
2.38326e-08
1.65778e-07
2.92675e-07
3.64924e-07
4.21654e-07
4.79501e-07
1.96085e-05
0.0025403
0.0231115
0.044809
0.0120751
5.21022e-05
3.45888e-07
3.15097e-07
2.16088e-07
8.04139e-08
4.72478e-08
1.23989e-08
2.05975e-08
2.04276e-08
1.51727e-08
1.58392e-08
1.64656e-08
2.27604e-08
1.13935e-07
3.66093e-07
3.66097e-07
3.5006e-07
3.45966e-07
7.55541e-07
2.87668e-05
0.000290428
0.00064156
0.000298952
5.64355e-06
2.6006e-07
1.95764e-07
8.31802e-08
4.48483e-08
9.16797e-09
1.46687e-09
1.22261e-08
3.30485e-08
2.84459e-08
1.64659e-08
2.44229e-08
4.98369e-08
8.87699e-08
2.17487e-07
2.89356e-07
1.44424e-07
2.47023e-07
6.17577e-07
1.25315e-06
2.17299e-06
3.08118e-06
2.97453e-06
1.89572e-06
1.4141e-07
6.92697e-08
4.40665e-08
2.18011e-08
5.2971e-09
3.19248e-10
8.91704e-09
3.28768e-08
3.39177e-08
3.01272e-08
6.19663e-08
6.41573e-08
5.34098e-08
5.06697e-08
6.65053e-08
4.70085e-08
1.49922e-07
4.95829e-07
1.18846e-06
2.10861e-06
2.80366e-06
2.73245e-06
2.26991e-06
4.64392e-08
3.20246e-08
2.05464e-08
9.66284e-09
8.08156e-10
3.40658e-11
3.35563e-09
1.55673e-08
2.54906e-08
6.35523e-08
6.5617e-08
5.12507e-08
2.6204e-08
2.48429e-08
2.49479e-08
2.66534e-08
6.5432e-08
2.73783e-07
8.88722e-07
1.75508e-06
2.574e-06
2.78613e-06
2.66718e-06
2.79575e-08
1.63091e-08
9.04635e-09
1.57967e-09
3.26012e-11
1.85203e-11
1.11524e-09
3.73773e-09
1.47909e-08
3.61515e-08
4.62844e-08
2.04296e-08
2.12481e-08
2.48228e-08
2.48447e-08
2.48776e-08
4.40844e-08
1.13514e-07
3.70164e-07
1.03458e-06
2.02958e-06
2.5909e-06
2.50434e-06
1.43182e-08
6.19196e-09
1.57505e-09
4.99428e-11
9.76137e-12
1.13553e-11
1.09704e-10
4.23026e-10
3.28648e-09
6.9183e-09
1.32192e-08
8.11383e-09
2.32466e-08
6.01249e-08
9.35787e-08
5.51059e-08
3.33424e-08
5.31408e-08
1.28303e-07
3.42962e-07
1.06922e-06
1.6869e-06
1.69386e-06
4.00671e-09
1.08361e-09
4.64451e-11
5.62099e-12
4.73521e-12
7.28644e-12
2.11515e-11
5.04507e-11
2.44569e-10
5.02306e-10
1.01227e-09
4.27114e-09
1.95707e-08
6.37237e-08
1.18495e-07
1.1695e-07
4.41364e-08
3.20973e-08
6.16074e-08
1.34692e-07
2.88098e-07
5.57743e-07
4.87922e-07
3.28262e-10
3.84412e-11
4.49106e-12
2.27625e-12
2.52273e-12
4.49695e-12
1.35634e-11
3.70708e-11
8.01012e-11
1.39057e-10
1.96693e-10
2.14134e-09
1.21549e-08
5.54535e-08
1.18499e-07
1.18381e-07
6.32022e-08
3.03676e-08
2.93824e-08
6.17218e-08
1.07607e-07
1.5021e-07
1.6356e-07
8.2636e-12
4.2844e-12
1.50887e-12
8.54049e-13
1.30145e-12
2.56226e-12
7.87987e-12
2.52034e-11
6.33801e-11
1.25714e-10
1.76456e-10
9.74122e-10
7.50024e-09
3.62559e-08
8.68916e-08
1.16029e-07
7.10566e-08
3.60607e-08
2.36979e-08
1.99617e-08
3.84766e-08
5.77065e-08
7.19331e-08
2.78684e-12
1.31979e-12
4.08749e-13
3.21601e-13
6.18428e-13
1.33694e-12
4.3614e-12
1.54867e-11
4.26485e-11
9.34095e-11
1.3354e-10
4.65853e-10
6.18704e-09
2.09185e-08
4.68807e-08
5.03025e-08
6.41607e-08
3.6315e-08
2.02222e-08
9.25459e-09
1.14565e-08
1.52249e-08
1.64299e-08
8.66499e-13
3.22944e-13
1.02015e-13
1.17884e-13
2.65297e-13
6.3702e-13
2.26368e-12
8.56839e-12
2.49921e-11
5.78903e-11
8.40699e-11
2.74567e-10
3.21669e-09
1.48095e-08
1.88929e-08
2.72414e-08
3.12029e-08
2.24638e-08
1.81975e-08
8.2774e-09
4.82432e-09
3.62365e-09
1.86205e-09
2.26586e-13
6.97971e-14
2.40562e-14
4.05555e-14
1.01899e-13
2.75668e-13
1.07238e-12
4.22318e-12
1.27559e-11
3.05671e-11
4.46873e-11
9.63943e-11
8.70705e-10
5.94153e-09
1.25544e-08
1.48434e-08
2.28396e-08
1.77252e-08
1.11087e-08
5.61966e-09
3.16128e-09
1.83894e-09
1.01199e-09
5.08334e-14
1.34121e-14
5.45205e-15
1.27737e-14
3.50612e-14
1.07569e-13
4.53982e-13
1.83583e-12
5.66494e-12
1.37196e-11
2.08033e-11
2.20949e-11
7.90565e-11
2.68988e-09
5.00867e-09
9.11661e-09
1.31685e-08
1.17567e-08
7.75656e-09
3.81803e-09
2.24979e-09
1.32013e-09
7.50362e-10
1.00015e-14
2.30876e-15
1.20021e-15
3.63778e-15
1.08208e-14
3.75928e-14
1.69818e-13
6.99631e-13
2.18987e-12
5.31664e-12
8.34233e-12
1.09136e-11
1.3324e-11
4.72534e-10
2.157e-09
3.58302e-09
6.50018e-09
6.05762e-09
4.23265e-09
2.37446e-09
1.40617e-09
7.88065e-10
4.21013e-10
1.75099e-15
3.60934e-16
2.55639e-16
9.31615e-16
2.99953e-15
1.17082e-14
5.58423e-14
2.33236e-13
7.38149e-13
1.79734e-12
2.92843e-12
4.52543e-12
7.32762e-12
4.40042e-11
6.65714e-10
1.54987e-09
2.78961e-09
2.66008e-09
1.90878e-09
1.15785e-09
6.70842e-10
3.60968e-10
1.84746e-10
2.75178e-16
5.18052e-17
5.18858e-17
2.1463e-16
7.48783e-16
3.24628e-15
1.61646e-14
6.83022e-14
2.1856e-13
5.35948e-13
9.13649e-13
1.60143e-12
3.19253e-12
1.58535e-11
1.88026e-10
2.76175e-10
8.75491e-10
1.02717e-09
7.31673e-10
4.50179e-10
2.54118e-10
1.31932e-10
6.40165e-11
3.91371e-17
6.90613e-18
9.87301e-18
4.45893e-17
1.68749e-16
8.02244e-16
4.13527e-15
1.76708e-14
5.7281e-14
1.42497e-13
2.57162e-13
5.00475e-13
1.15881e-12
6.28231e-12
3.42567e-11
2.78964e-11
6.18074e-11
1.13691e-10
1.97427e-10
1.41847e-10
7.67549e-11
3.88882e-11
1.80801e-11
5.07275e-18
8.64245e-19
1.74028e-18
8.37979e-18
3.44232e-17
1.77399e-16
9.412e-16
4.07081e-15
1.34142e-14
3.42038e-14
6.6282e-14
1.41421e-13
3.63059e-13
1.98066e-12
7.48416e-12
9.3665e-12
8.60121e-12
9.5993e-12
1.43649e-11
1.49621e-11
1.68023e-11
9.28668e-12
4.25217e-12
6.02997e-19
1.02562e-19
2.82326e-19
1.43073e-18
6.37703e-18
3.52589e-17
1.91864e-16
8.4157e-16
2.83248e-15
7.47946e-15
1.57308e-14
3.64009e-14
9.9689e-14
5.24391e-13
1.98069e-12
2.85916e-12
2.99747e-12
3.5132e-12
4.04803e-12
4.2719e-12
3.57863e-12
1.92622e-12
8.56454e-13
6.60804e-20
1.16219e-20
4.20479e-20
2.22931e-19
1.07724e-18
6.33625e-18
3.53042e-17
1.57499e-16
5.44577e-16
1.50462e-15
3.45288e-15
8.55863e-15
2.42338e-14
1.18864e-13
4.67754e-13
7.25178e-13
7.84065e-13
9.30711e-13
1.00873e-12
9.78642e-13
6.82326e-13
3.48205e-13
1.49626e-13
6.71165e-21
1.26429e-21
5.75154e-21
3.18433e-20
1.66612e-19
1.03551e-18
5.90491e-18
2.68841e-17
9.60519e-17
2.79739e-16
6.98765e-16
1.83177e-15
5.25206e-15
2.35336e-14
9.18175e-14
1.52137e-13
1.70354e-13
1.97806e-13
2.079e-13
1.81739e-13
1.13538e-13
5.51093e-14
2.28694e-14
6.34563e-22
1.32114e-22
7.23866e-22
4.18911e-21
2.37045e-20
1.54913e-19
9.04661e-19
4.21865e-18
1.56497e-17
4.82119e-17
1.30061e-16
3.56052e-16
1.02011e-15
4.13702e-15
1.52907e-14
2.68976e-14
3.1271e-14
3.55179e-14
3.605e-14
2.85982e-14
1.65704e-14
7.69076e-15
3.08217e-15
5.61113e-23
1.3244e-23
8.40763e-23
5.09946e-22
3.11691e-21
2.1341e-20
1.27775e-19
6.12278e-19
2.36573e-18
7.70413e-18
2.2192e-17
6.27253e-17
1.78243e-16
6.54457e-16
2.23107e-15
4.10434e-15
4.93296e-15
5.51626e-15
5.36477e-15
3.91792e-15
2.14198e-15
9.5404e-16
3.69051e-16
4.65942e-24
1.26927e-24
9.04436e-24
5.77162e-23
3.80607e-22
2.72309e-21
1.67388e-20
8.2633e-20
3.32859e-19
1.14095e-18
3.46591e-18
1.00197e-17
2.81245e-17
9.40806e-17
2.92635e-16
5.51815e-16
6.80773e-16
7.51755e-16
6.97177e-16
4.75344e-16
2.47529e-16
1.06002e-16
3.95664e-17
3.64865e-25
1.1589e-25
9.04659e-25
6.10312e-24
4.33664e-23
3.23524e-22
2.04378e-21
1.04076e-20
4.36579e-20
1.56571e-19
4.95838e-19
1.45543e-18
4.02697e-18
1.23867e-17
3.51346e-17
6.65073e-17
8.35456e-17
9.1042e-17
8.03582e-17
5.17189e-17
2.57998e-17
1.06353e-17
3.8332e-18
2.70519e-26
1.00568e-26
8.45243e-26
6.05942e-25
4.63135e-24
3.59525e-23
2.33485e-22
1.22659e-21
5.34281e-21
1.99145e-20
6.51057e-20
1.92969e-19
5.25999e-19
1.50389e-18
3.91366e-18
7.30586e-18
9.26224e-18
9.9161e-18
8.32632e-18
5.10204e-18
2.44756e-18
9.72108e-19
3.39532e-19
1.90637e-27
8.28743e-28
7.41663e-27
5.67872e-26
4.65816e-25
3.75484e-24
2.50544e-23
1.35611e-22
6.10858e-22
2.35018e-21
7.86872e-21
2.34566e-20
6.30175e-20
1.69294e-19
4.07879e-19
7.41221e-19
9.40592e-19
9.85363e-19
7.87824e-19
4.61557e-19
2.13233e-19
8.17287e-20
2.79541e-20
1.28239e-28
6.49619e-29
6.1528e-28
5.0551e-27
4.43705e-26
3.70491e-25
2.53674e-24
1.41102e-23
6.53986e-23
2.57963e-22
8.78822e-22
2.62723e-21
6.95775e-21
1.77217e-20
3.99117e-20
7.00514e-20
8.83481e-20
9.03078e-20
6.8962e-20
3.88307e-20
1.72998e-20
6.40188e-21
2.20215e-21
8.27926e-30
4.86688e-30
4.87048e-29
4.30771e-28
4.02927e-27
3.4753e-26
2.43653e-25
1.3876e-24
6.58001e-24
2.64318e-23
9.10716e-23
2.7221e-22
7.10889e-22
1.73082e-21
3.67879e-21
6.21251e-21
7.73047e-21
7.68218e-21
5.62237e-21
3.05876e-21
1.32015e-21
4.75265e-22
1.77093e-22
5.17221e-31
3.5196e-31
3.74521e-30
3.59108e-29
3.56639e-28
3.15934e-27
2.2556e-26
1.30638e-25
6.28429e-25
2.54776e-24
8.81102e-24
2.62083e-23
6.73486e-23
1.57498e-22
3.17838e-22
5.15536e-22
6.29791e-22
6.08092e-22
4.28251e-22
2.25837e-22
9.48797e-23
3.37395e-23
1.64324e-23
3.15288e-32
2.49869e-32
2.84602e-31
2.97217e-30
3.11425e-29
2.8157e-28
2.03526e-27
1.19082e-26
5.76736e-26
2.34214e-25
8.06609e-25
2.36995e-24
5.96541e-24
1.34047e-23
2.57404e-23
3.9996e-23
4.7668e-23
4.45753e-23
3.02653e-23
1.55312e-23
6.39823e-24
2.30534e-24
2.02416e-24
1.88888e-33
1.75282e-33
2.1526e-32
2.45004e-31
2.68746e-30
2.46634e-29
1.79567e-28
1.0551e-27
5.11094e-27
2.06546e-26
7.04083e-26
2.03293e-25
4.99218e-25
1.07724e-24
1.96858e-24
2.91946e-24
3.36613e-24
3.03351e-24
1.98639e-24
9.92631e-25
4.03408e-25
1.75576e-25
9.30457e-25
0.0462997
0.0593283
0.102403
0.188398
0.0884688
0.214072
0.445777
0.70012
0.271281
0.564717
0.727072
0.927269
0.888168
0.962551
0.974691
0.974707
0.952466
0.956303
0.95307
0.891373
0.320717
0.408016
0.445676
0.309656
0.00571553
0.00429183
0.00260551
0.0264054
8.14833e-06
2.69911e-06
4.51004e-05
0.00724758
1.1345e-06
1.01293e-06
9.02308e-07
8.7216e-07
8.95653e-07
8.22119e-07
6.32643e-07
5.18998e-07
9.38038e-07
7.17885e-07
3.91795e-07
3.76329e-07
1.47841e-06
1.38017e-06
8.5142e-07
3.7654e-07
2.17864e-06
2.34796e-06
2.12524e-06
1.63659e-06
2.61059e-06
2.62395e-06
2.33204e-06
2.02949e-06
2.45595e-06
2.37261e-06
2.04316e-06
1.61201e-06
1.52245e-06
1.29781e-06
9.35821e-07
4.87839e-07
4.4588e-07
3.57965e-07
2.83031e-07
2.12788e-07
1.89887e-07
1.73617e-07
1.08552e-07
8.26074e-08
7.21507e-08
6.3953e-08
4.47909e-08
3.37788e-08
1.56803e-08
1.43425e-08
1.16249e-08
6.42241e-09
1.45132e-09
1.51288e-09
9.01994e-10
4.92284e-10
7.46393e-10
5.19301e-10
3.26306e-10
1.89019e-10
4.8501e-10
3.01328e-10
1.72599e-10
1.08213e-10
2.67289e-10
1.63092e-10
8.25298e-11
4.89837e-11
1.23737e-10
5.86795e-11
3.34771e-11
2.05632e-11
3.96345e-11
2.1834e-11
1.22928e-11
7.27301e-12
1.09294e-11
6.23632e-12
3.54384e-12
2.05513e-12
2.54422e-12
1.46072e-12
8.28195e-13
4.71955e-13
5.05143e-13
2.87947e-13
1.6152e-13
9.06e-14
8.65648e-14
4.86425e-14
2.68962e-14
1.49056e-14
1.29377e-14
7.14223e-15
3.89295e-15
2.1646e-15
1.70106e-15
9.21543e-16
4.98867e-16
2.98036e-16
1.98383e-16
1.0578e-16
5.89403e-17
5.00201e-17
2.07153e-17
1.10482e-17
7.48254e-18
1.57372e-17
1.96518e-18
1.13452e-18
1.56377e-18
8.4483e-18
1.75204e-19
1.50183e-19
6.16618e-19
5.01259e-18
1.63302e-20
3.57974e-20
2.86972e-19
2.70452e-18
2.05969e-21
1.20651e-20
1.23178e-19
1.26706e-18
4.12811e-22
4.11075e-21
4.6934e-20
5.2126e-19
1.05319e-22
1.29965e-21
1.6218e-20
1.96522e-19
2.85703e-23
3.98206e-22
5.50045e-21
7.48952e-20
2.64509e-23
4.02718e-22
6.05078e-21
8.8615e-20
0.420851
0.800395
0.980604
0.986672
0.98667
0.982319
0.958802
0.865037
0.568621
0.26129
0.185352
0.205287
0.309229
0.590045
0.848609
0.924095
0.870562
0.859677
0.912902
0.821727
0.972369
0.985581
0.986671
0.986672
0.98667
0.986671
0.984309
0.905025
0.61487
0.315261
0.303895
0.368417
0.563404
0.818664
0.946941
0.976832
0.948398
0.882377
0.966667
0.966514
0.945036
0.927318
0.948341
0.969725
0.976532
0.984253
0.975745
0.771034
0.490834
0.3951
0.445897
0.583419
0.788014
0.929956
0.976841
0.952228
0.805781
0.950789
0.733618
0.386237
0.279754
0.341152
0.470669
0.605176
0.803639
0.910959
0.8189
0.73128
0.495707
0.471421
0.598157
0.793491
0.92762
0.97414
0.951101
0.707682
0.496647
0.061568
0.0118027
0.0118026
0.0118001
0.0117982
0.0146151
0.17089
0.71422
0.869402
0.855011
0.569196
0.491843
0.623909
0.821401
0.935939
0.959611
0.868558
0.607003
0.16722
0.0485668
0.0389631
0.012811
0.0118027
0.0118001
0.0118005
0.0222389
0.346939
0.869219
0.858891
0.648222
0.565134
0.729216
0.872062
0.924758
0.884575
0.681178
0.533241
0.287908
0.625402
0.378615
0.128585
0.0160754
0.011803
0.0118011
0.0122413
0.184414
0.738009
0.819697
0.637073
0.505041
0.743764
0.863904
0.857015
0.692089
0.512959
0.50406
0.221673
0.654735
0.654264
0.530775
0.130867
0.0129423
0.0118028
0.0529422
0.357546
0.752879
0.797364
0.603943
0.472658
0.509857
0.565763
0.618453
0.489919
0.482793
0.501163
0.0168507
0.242232
0.654021
0.652568
0.51584
0.135132
0.0849391
0.381183
0.78955
0.838173
0.83425
0.693658
0.48213
0.453627
0.453658
0.507079
0.485125
0.483142
0.534623
0.000198549
0.0157679
0.22621
0.637705
0.662502
0.644194
0.560118
0.759244
0.838131
0.838188
0.838075
0.790987
0.669111
0.610011
0.602502
0.601896
0.560819
0.557822
0.587394
7.26579e-07
0.000117235
0.00888477
0.171428
0.665695
0.837984
0.838031
0.838064
0.838094
0.838131
0.838124
0.732239
0.548884
0.497113
0.587276
0.603145
0.603184
0.602353
0.596518
3.1395e-07
5.77654e-07
6.07223e-05
0.00586181
0.109774
0.400519
0.528948
0.535645
0.661795
0.811511
0.836272
0.608122
0.359888
0.359937
0.37047
0.593356
0.630587
0.641109
0.651317
3.1491e-07
1.3415e-07
4.65071e-07
3.26948e-05
0.00149761
0.0138813
0.0354459
0.045947
0.0710473
0.244982
0.565493
0.738731
0.765596
0.76523
0.671312
0.723274
0.74931
0.772059
0.772635
6.4979e-07
1.34717e-07
1.09969e-07
9.68057e-07
5.31835e-06
8.11599e-06
1.16481e-05
2.37597e-05
9.68649e-05
0.00180746
0.0468545
0.329053
0.658075
0.749721
0.775096
0.806795
0.856835
0.877941
0.857957
4.55757e-07
1.7204e-07
1.03382e-07
2.39365e-07
4.18221e-07
3.72137e-07
7.72914e-07
9.36072e-07
1.27682e-06
1.46534e-06
5.01711e-05
0.00176611
0.0260461
0.14523
0.322769
0.452405
0.727966
0.922968
0.968315
2.07546e-07
1.16331e-07
6.07558e-08
1.40962e-07
4.22132e-07
3.22894e-07
2.47916e-07
5.20414e-07
8.33872e-07
1.25987e-06
1.55582e-06
1.78321e-06
3.92862e-06
0.000232235
0.00389469
0.0230569
0.239261
0.853157
0.985634
1.15836e-07
4.9247e-08
5.12681e-08
8.31911e-08
1.40121e-07
2.37226e-07
1.74265e-07
1.50808e-07
6.2232e-07
1.17561e-06
1.78714e-06
2.29377e-06
2.56047e-06
2.35192e-05
0.000976908
0.0109497
0.0509553
0.396456
0.928656
4.2692e-08
2.29194e-08
2.13157e-08
4.11964e-08
7.16352e-08
1.39459e-07
1.9378e-07
1.48541e-07
1.64851e-07
9.30842e-07
1.62649e-06
2.06545e-06
2.39966e-06
0.000164653
0.00525952
0.0137576
0.00779979
0.0580311
0.411812
1.22553e-08
5.81934e-09
5.44186e-09
2.36093e-08
4.5041e-08
7.38079e-08
1.09813e-07
1.35174e-07
1.408e-07
1.90821e-07
8.95583e-07
1.56663e-06
1.90684e-06
0.00012584
0.00375224
0.00177379
0.000239258
0.00261054
0.0140286
1.96411e-09
1.12107e-09
1.4914e-09
6.27267e-09
2.22798e-08
3.65115e-08
4.9512e-08
6.67174e-08
1.06215e-07
1.48721e-07
4.64152e-07
1.08817e-06
1.60657e-06
7.55957e-05
0.000834414
4.40331e-05
8.85758e-05
5.73673e-06
1.77092e-06
2.65416e-10
3.08835e-10
6.37927e-10
2.56408e-09
7.77745e-09
1.15931e-08
1.49987e-08
2.24795e-08
3.9762e-08
9.10625e-08
2.05949e-07
6.89946e-07
1.19997e-06
6.74119e-05
6.74269e-05
2.87874e-05
7.71203e-05
1.9985e-06
1.14848e-06
9.36157e-11
1.15709e-10
3.15164e-10
9.53882e-10
1.90201e-09
2.52599e-09
3.61393e-09
6.46541e-09
1.36221e-08
3.79758e-08
1.15064e-07
3.34899e-07
7.43311e-07
4.31354e-05
2.50232e-05
1.69195e-05
1.44002e-05
3.13538e-06
1.14848e-06
5.38974e-11
4.76574e-11
8.50682e-11
2.26932e-10
3.47805e-10
5.158e-10
1.27829e-09
3.40584e-09
9.43987e-09
2.77085e-08
7.59721e-08
1.82772e-07
4.48729e-07
2.09019e-05
1.77563e-05
8.4052e-06
2.63871e-06
1.93317e-06
1.26503e-06
2.44298e-11
1.72932e-11
2.02388e-11
2.6931e-11
5.71371e-11
1.83818e-10
6.02721e-10
2.09736e-09
7.67871e-09
2.96661e-08
9.14506e-08
1.90366e-07
3.58105e-07
8.496e-06
1.41518e-05
6.51441e-06
1.81437e-06
1.81908e-06
1.32821e-06
9.59569e-12
5.8661e-12
6.1722e-12
1.04445e-11
2.31173e-11
7.27906e-11
2.84491e-10
1.29739e-09
6.64934e-09
3.58082e-08
1.38536e-07
2.99439e-07
4.51738e-07
2.1649e-06
6.76452e-06
7.16955e-06
3.17635e-06
1.86452e-06
1.37572e-06
3.13585e-12
1.7834e-12
1.98618e-12
4.01557e-12
1.00491e-11
3.19475e-11
1.43618e-10
8.46231e-10
5.54605e-09
2.44814e-08
1.25572e-07
4.7902e-07
8.07976e-07
1.1198e-06
1.56488e-06
7.25333e-06
3.4447e-06
1.89864e-06
1.39311e-06
8.39419e-13
4.66952e-13
5.7999e-13
1.40367e-12
4.38801e-12
1.70626e-11
8.49507e-11
5.31736e-10
2.10168e-09
1.20548e-08
1.27096e-07
7.18129e-07
1.28835e-06
1.96909e-06
3.99706e-06
7.49086e-06
2.52983e-06
1.89192e-06
1.35427e-06
1.86792e-13
1.099e-13
1.88289e-13
6.89027e-13
3.14878e-12
1.52154e-11
7.49134e-11
2.31259e-10
1.19491e-09
1.24308e-08
1.16493e-07
8.26245e-07
1.57193e-06
2.88566e-05
3.26583e-05
1.11742e-05
2.14384e-06
1.84168e-06
1.24086e-06
3.59823e-14
2.88234e-14
9.59564e-14
5.22269e-13
2.91831e-12
1.55711e-11
7.51614e-11
1.75268e-10
5.86125e-10
9.91678e-09
1.00863e-07
6.67713e-07
1.67784e-06
3.71687e-05
4.12647e-05
2.5776e-05
3.78547e-06
1.75877e-06
1.07296e-06
6.62381e-15
1.13681e-14
6.61223e-14
4.35276e-13
2.7347e-12
1.59438e-11
7.97799e-11
2.20619e-10
6.40852e-10
6.75415e-09
5.33501e-08
3.59225e-07
1.40132e-06
9.24163e-06
2.78755e-05
2.06554e-05
6.50497e-06
2.62695e-06
9.94781e-07
1.48914e-15
6.51422e-15
5.03198e-14
3.81029e-13
2.68244e-12
1.70679e-11
9.08901e-11
3.27315e-10
1.11849e-09
4.62752e-09
2.3457e-08
1.46975e-07
7.83581e-07
1.71914e-06
2.84477e-06
8.4263e-06
9.2581e-06
6.75848e-06
1.22674e-06
5.5774e-16
4.60082e-15
4.29532e-14
3.74101e-13
2.95132e-12
2.04872e-11
1.17792e-10
4.88809e-10
1.65514e-09
6.33616e-09
2.0393e-08
7.33038e-08
3.19935e-07
9.05128e-07
1.31133e-06
3.56309e-06
9.18444e-06
6.00302e-06
9.89876e-07
3.08377e-16
3.38091e-15
3.62625e-14
3.56162e-13
3.12238e-12
2.37076e-11
1.45628e-10
6.20103e-10
3.00973e-09
1.21728e-08
3.70428e-08
1.07645e-07
2.56662e-07
5.41786e-07
9.29772e-07
2.73348e-06
8.97458e-06
2.30091e-06
3.96499e-07
1.94023e-16
2.48785e-15
3.00767e-14
3.30352e-13
3.22874e-12
2.70453e-11
1.77203e-10
8.05236e-10
5.46089e-09
2.25914e-08
6.50832e-08
2.43075e-07
4.65476e-07
6.43336e-07
1.03024e-06
4.38465e-06
5.70953e-06
1.25393e-06
2.58486e-07
1.26403e-16
1.83368e-15
2.47653e-14
3.02342e-13
3.26829e-12
2.95618e-11
2.04194e-10
1.09987e-09
7.73392e-09
3.47836e-08
1.01931e-07
3.88014e-07
7.40356e-07
1.07847e-06
1.87001e-06
4.71744e-06
1.83051e-06
6.86395e-07
1.55653e-07
7.68241e-17
1.2205e-15
1.77991e-14
2.30691e-13
2.5697e-12
2.28224e-11
1.50044e-10
1.12778e-09
7.31937e-09
3.39444e-08
9.81549e-08
4.04341e-07
8.90366e-07
1.5697e-06
3.78987e-06
2.97489e-06
8.36838e-07
2.48861e-07
8.5798e-08
4.05227e-17
6.83557e-16
1.03803e-14
1.36874e-13
1.51534e-12
1.32487e-11
8.86576e-11
7.3051e-10
4.56937e-09
2.27386e-08
7.20318e-08
2.69925e-07
7.88193e-07
1.33868e-06
2.43597e-06
8.90857e-07
3.39106e-07
1.12764e-07
2.39301e-08
1.82103e-17
3.19861e-16
4.97095e-15
6.58129e-14
7.17442e-13
6.00363e-12
3.33038e-11
3.63877e-10
1.98713e-09
8.61472e-09
3.18697e-08
1.04153e-07
4.42789e-07
6.89202e-07
6.25631e-07
3.56328e-07
1.70246e-07
2.46511e-08
8.09783e-09
7.15584e-18
1.31112e-16
2.10637e-15
2.8621e-14
3.18522e-13
2.74553e-12
1.74361e-11
1.72494e-10
8.88301e-10
3.60718e-09
1.34688e-08
3.89843e-08
1.09943e-07
1.73274e-07
1.34587e-07
6.80578e-08
1.73641e-08
1.23615e-08
3.87524e-09
2.65846e-18
5.3527e-17
9.49608e-16
1.45263e-14
1.90185e-13
2.06418e-12
1.82186e-11
1.38443e-10
7.44876e-10
3.03467e-09
8.80669e-09
9.98477e-09
2.00082e-08
2.75445e-08
2.30533e-08
1.29013e-08
1.01649e-08
8.85158e-09
3.87431e-09
1.0724e-18
2.7403e-17
6.53857e-16
1.31866e-14
2.14301e-13
2.58994e-12
2.2402e-11
1.57574e-10
7.64765e-10
2.41807e-09
4.1476e-09
2.74002e-09
3.79359e-09
7.133e-09
6.2896e-09
3.85394e-09
4.49248e-09
4.4766e-09
2.23329e-09
1.25938e-18
3.54479e-17
7.8618e-16
1.31825e-14
1.67734e-13
1.63173e-12
1.17892e-11
4.3583e-11
1.22411e-10
1.96497e-10
1.50063e-10
4.82296e-11
3.96516e-11
1.11276e-10
5.65488e-10
6.33826e-10
1.04913e-09
1.09654e-09
6.3586e-10
)
;

boundaryField
{
    leftWall
    {
        type            zeroGradient;
    }
    rightWall
    {
        type            zeroGradient;
    }
    lowerWall
    {
        type            zeroGradient;
    }
    atmosphere
    {
        type            inletOutlet;
        inletValue      uniform 0;
        value           nonuniform List<scalar> 
46
(
1.88888e-33
1.75282e-33
2.1526e-32
2.45004e-31
2.68746e-30
2.46634e-29
1.79567e-28
1.0551e-27
5.11094e-27
2.06546e-26
7.04083e-26
2.03293e-25
4.99218e-25
1.07724e-24
1.96858e-24
2.91946e-24
3.36613e-24
3.03351e-24
1.98639e-24
9.92631e-25
4.03408e-25
1.75576e-25
9.30457e-25
2.64509e-23
4.02718e-22
6.05078e-21
8.8615e-20
1.25938e-18
0
0
0
0
0
0
0
0
0
0
0
0
0
0
0
0
0
0
)
;
    }
    defaultFaces
    {
        type            empty;
    }
}


// ************************************************************************* //
