/*--------------------------------*- C++ -*----------------------------------*\
| =========                 |                                                 |
| \\      /  F ield         | OpenFOAM: The Open Source CFD Toolbox           |
|  \\    /   O peration     | Version:  2.4.0                                 |
|   \\  /    A nd           | Web:      www.OpenFOAM.org                      |
|    \\/     M anipulation  |                                                 |
\*---------------------------------------------------------------------------*/
FoamFile
{
    version     2.0;
    format      ascii;
    class       volScalarField;
    location    "0.8";
    object      alpha.water;
}
// * * * * * * * * * * * * * * * * * * * * * * * * * * * * * * * * * * * * * //

dimensions      [0 0 0 0 0 0 0];

internalField   nonuniform List<scalar> 
2268
(
9.37389e-08
1.18525e-07
3.86429e-08
3.02712e-08
3.12238e-08
2.37513e-08
1.7986e-08
1.57347e-08
1.72449e-08
1.7959e-08
1.45756e-08
1.08636e-08
9.09838e-09
9.6704e-09
9.71551e-09
7.05008e-09
5.10131e-09
4.39892e-09
4.33423e-09
4.67973e-09
2.14872e-09
6.93406e-10
3.50162e-10
0.000589336
0.00057212
0.000274749
0.000102768
4.03031e-05
8.93845e-06
1.22419e-06
2.58947e-07
1.38778e-07
1.17014e-07
6.09503e-08
3.51852e-08
3.37625e-08
3.84694e-08
3.41376e-08
2.64675e-08
2.12882e-08
1.57159e-08
1.56827e-08
1.66663e-08
1.47448e-08
1.63992e-09
1.16511e-09
0.141522
0.131796
0.110136
0.0684855
0.0250839
0.00320524
0.000144091
1.10558e-05
2.09051e-06
9.04225e-07
4.18307e-07
2.3669e-07
2.37539e-07
2.3761e-07
1.17903e-07
6.75341e-08
5.2823e-08
5.47202e-08
7.7055e-08
8.82432e-08
3.95527e-08
1.15876e-08
4.71849e-09
0.956119
0.952065
0.943315
0.920259
0.854039
0.668183
0.34628
0.0449752
0.00134629
8.6131e-05
1.07233e-05
2.04918e-06
1.018e-06
1.02294e-06
6.66675e-07
3.04743e-07
2.22619e-07
2.32365e-07
3.15281e-07
3.24163e-07
1.38041e-07
4.65912e-08
1.34827e-08
0.999995
0.999995
0.999995
0.999995
0.999541
0.994138
0.931394
0.473763
0.0418282
0.00184034
0.000138511
2.95068e-05
1.53482e-05
9.98345e-06
5.75006e-06
5.29035e-06
3.64096e-06
1.20239e-06
9.59608e-07
9.42013e-07
1.01499e-06
2.11852e-06
6.25095e-06
0.999994
0.999995
0.999995
0.999995
0.999995
0.999987
0.995112
0.8124
0.222283
0.01803
0.00146386
0.000182733
5.92929e-05
0.000302626
0.00150869
0.00232807
0.00194636
0.000721238
0.000296562
0.000221677
0.000490781
0.00119274
0.00328968
0.999993
0.999993
0.999994
0.999994
0.999994
0.999991
0.997634
0.905368
0.443566
0.0597632
0.00480015
0.00133438
0.00598052
0.0342178
0.0830692
0.106275
0.101257
0.06925
0.0484018
0.0405079
0.0495344
0.0769087
0.133392
0.999996
0.999996
0.999996
0.999996
0.999995
0.999994
0.999503
0.970043
0.727525
0.27163
0.0794234
0.0841252
0.192235
0.391449
0.557731
0.622816
0.638264
0.61603
0.592912
0.576944
0.577879
0.611108
0.656867
0.000493042
0.00595743
0.00597153
0.00505219
0.0035436
0.0025733
0.00208228
0.0016296
0.00123021
0.00119419
0.00119502
0.000923487
0.000390797
5.69977e-05
8.47014e-06
3.90669e-06
2.06018e-05
0.000105274
0.00017146
0.00471537
0.131687
0.191308
0.201556
0.183387
0.164264
0.160884
0.154511
0.137424
0.131713
0.129453
0.105412
0.0692327
0.0199717
0.00164131
3.36827e-05
2.59643e-05
0.000144525
0.00032027
0.228198
0.524626
0.641642
0.65806
0.656352
0.661833
0.678223
0.697617
0.700402
0.693162
0.670232
0.58788
0.396009
0.186328
0.0213198
0.000470328
3.37872e-05
0.000128059
0.000345699
0.678211
0.698117
0.698155
0.687472
0.685494
0.689712
0.705655
0.74872
0.7833
0.783519
0.778029
0.715136
0.527236
0.262345
0.0269922
0.000748774
5.52345e-05
0.000132091
0.000417589
0.67716
0.689522
0.689602
0.694895
0.714634
0.742382
0.760794
0.768144
0.778759
0.780095
0.746904
0.667677
0.48088
0.211353
0.0203087
0.00072313
6.6232e-05
0.000142437
0.00033564
0.57393
0.50708
0.453602
0.457184
0.501979
0.604543
0.743039
0.811734
0.812284
0.798536
0.72246
0.64949
0.507507
0.223399
0.0170394
0.00074233
9.80266e-05
0.000160655
0.000365519
0.366958
0.233316
0.145226
0.129889
0.159241
0.263995
0.503663
0.739536
0.812287
0.782726
0.782656
0.702319
0.564082
0.259328
0.0193509
0.00103571
0.000192617
0.00020236
0.0012078
0.311604
0.0562243
0.0325918
0.0309182
0.0358292
0.0644356
0.18073
0.482987
0.757478
0.82815
0.827978
0.790692
0.634687
0.310418
0.0365134
0.0036621
0.00298065
0.00159241
0.0103532
0.999998
0.999998
0.999997
0.999997
0.999996
0.99999
0.999953
0.995991
0.958066
0.874158
0.784697
0.745686
0.801524
0.899234
0.945878
0.958954
0.965181
0.963703
0.962703
0.962435
0.962349
0.958667
0.908683
0.999999
0.999934
0.999464
0.999773
0.999898
0.999726
0.999826
0.999752
0.998706
0.995805
0.994248
0.996799
0.99693
0.996929
0.992893
0.981718
0.968648
0.955374
0.946622
0.941951
0.946895
0.945912
0.923165
0.999813
0.989847
0.960023
0.977218
0.993178
0.992817
0.995537
0.998402
0.999069
0.999068
0.999069
0.998903
0.993509
0.956874
0.87967
0.814609
0.768764
0.752301
0.76022
0.756619
0.754694
0.750264
0.734346
0.975139
0.793042
0.602754
0.707947
0.882588
0.912673
0.948537
0.970409
0.978626
0.981688
0.976491
0.924623
0.815198
0.642657
0.499726
0.336575
0.249286
0.24907
0.317948
0.346927
0.355655
0.365014
0.265199
0.732118
0.257848
0.155847
0.27344
0.488793
0.584367
0.6526
0.68205
0.672492
0.637381
0.488728
0.393289
0.228027
0.0642138
0.0109445
0.00109159
0.00915694
0.0369843
0.071293
0.0859192
0.101597
0.101058
0.0481207
0.386878
0.128189
0.0982607
0.120094
0.142147
0.186896
0.205488
0.201329
0.156164
0.0827668
0.0202294
0.00265887
9.07772e-05
2.43206e-06
4.67311e-06
2.27222e-05
0.00239236
0.0253551
0.0590571
0.07258
0.0662338
0.0296709
0.00540592
0.171387
0.0197062
0.00918423
0.00910728
0.0111502
0.0155422
0.0166759
0.0102862
0.00191875
0.000260203
1.15684e-05
2.82064e-07
4.82928e-09
5.40054e-10
3.45459e-10
2.81909e-07
9.99351e-05
0.00305152
0.017955
0.0334729
0.0335744
0.0104755
0.000357708
0.00942358
0.000813392
5.6216e-05
3.43688e-05
2.68031e-05
3.265e-05
2.29188e-05
1.08015e-05
2.24835e-06
1.78276e-07
5.8831e-09
1.9061e-09
1.06293e-09
2.4323e-10
2.01074e-10
6.35068e-10
4.09567e-07
7.14463e-05
0.00149248
0.0054886
0.0073324
0.00252845
2.08361e-05
5.96702e-05
7.38943e-06
7.52434e-08
9.20812e-09
4.60005e-09
1.7893e-09
1.601e-09
2.25863e-09
1.77515e-09
1.74109e-09
1.75992e-09
1.73394e-09
9.2511e-10
2.41987e-10
2.01159e-10
2.68877e-10
4.14855e-10
2.12961e-07
2.12385e-05
0.000199246
0.000396015
0.000170488
2.83952e-06
8.66018e-08
2.69345e-08
1.05809e-08
9.66873e-09
6.45412e-09
1.57564e-09
1.30683e-09
1.72331e-09
1.72833e-09
1.73685e-09
1.93668e-09
3.65759e-09
3.77712e-09
1.47489e-09
2.00127e-10
1.98469e-10
2.97047e-10
5.14353e-10
4.10039e-08
8.84546e-07
2.78018e-06
2.24988e-06
2.19945e-07
2.64023e-08
2.1307e-08
1.09464e-08
1.38929e-08
1.17562e-08
3.61885e-09
2.49607e-09
3.62998e-09
2.71539e-09
2.05321e-09
2.06656e-09
3.14064e-09
3.68119e-09
5.72058e-10
1.24767e-10
1.98499e-10
4.53702e-10
7.17883e-10
7.69295e-10
1.75679e-09
3.29166e-09
6.24705e-09
8.79478e-09
2.33395e-08
1.7299e-08
1.64203e-08
1.58346e-08
4.68478e-09
4.96351e-10
1.11961e-09
4.36785e-09
3.92214e-09
2.54769e-09
2.68358e-09
4.6827e-09
4.23885e-09
3.99819e-10
4.39074e-11
1.7843e-10
6.15755e-10
1.6988e-09
2.30857e-09
1.91147e-09
1.89507e-09
1.89513e-09
4.39772e-09
2.38848e-08
1.95007e-08
2.40521e-08
1.56002e-08
4.97791e-09
1.68015e-10
8.22873e-10
3.45715e-09
4.24095e-09
3.4515e-09
4.11263e-09
4.86958e-09
2.71151e-09
1.46422e-10
2.35286e-11
1.15733e-10
5.07708e-10
1.86166e-09
4.91073e-09
7.4027e-09
3.87399e-09
1.89547e-09
3.47516e-09
4.50522e-08
3.49928e-08
2.45378e-08
1.30721e-08
1.54279e-09
3.85158e-11
3.1438e-10
1.59877e-09
3.32764e-09
3.50939e-09
4.16889e-09
3.47075e-09
8.13737e-10
1.58249e-11
8.05178e-12
4.42987e-11
2.56862e-10
1.25149e-09
4.39195e-09
1.06253e-08
1.35142e-08
5.83648e-09
4.40725e-09
4.69805e-08
3.38075e-08
2.00427e-08
4.72957e-09
1.30921e-10
1.94582e-11
1.10302e-10
4.56747e-10
1.78767e-09
2.57461e-09
2.84923e-09
1.33512e-09
1.84249e-10
5.01952e-12
2.32964e-12
1.19363e-11
1.19527e-10
5.516e-10
2.22724e-09
7.36932e-09
1.56975e-08
1.48323e-08
1.40027e-08
4.06589e-08
2.30567e-08
6.90066e-09
3.7463e-10
1.37124e-11
1.05558e-11
2.12185e-11
5.53441e-11
3.99128e-10
9.59187e-10
1.13871e-09
4.12404e-10
7.79404e-11
2.03576e-12
6.38335e-13
3.37106e-12
3.23254e-11
1.96349e-10
7.72411e-10
2.8606e-09
1.0125e-08
1.43945e-08
1.39733e-08
1.82841e-08
6.5132e-09
5.04844e-10
1.26036e-11
7.5541e-12
5.43431e-12
9.40315e-12
1.3002e-11
2.64456e-11
1.18971e-10
1.35382e-10
1.13919e-10
3.14266e-11
9.86774e-13
1.64952e-13
6.60059e-13
6.21282e-12
5.20841e-11
2.67487e-10
9.81985e-10
3.27093e-09
6.3248e-09
6.77847e-09
2.27799e-09
3.94425e-10
1.20224e-11
6.16833e-12
3.59322e-12
2.57499e-12
3.8319e-12
6.00475e-12
8.67691e-12
1.06661e-11
9.92276e-12
3.08405e-11
1.11762e-11
6.99038e-13
6.67292e-14
1.14799e-13
1.07882e-12
1.09545e-11
6.53077e-11
3.18942e-10
1.0168e-09
1.90407e-09
2.30649e-09
5.01715e-11
8.32591e-12
4.93091e-12
2.77045e-12
1.51906e-12
1.10474e-12
1.47536e-12
2.35804e-12
3.21904e-12
4.95446e-12
4.5466e-12
9.1036e-12
3.50174e-12
3.49703e-13
3.5521e-14
2.06274e-14
1.72003e-13
1.97881e-12
1.25046e-11
5.29074e-11
2.61248e-10
5.72075e-10
7.48722e-10
5.66129e-12
3.46329e-12
2.01074e-12
1.06954e-12
5.72946e-13
4.25968e-13
5.36056e-13
8.48085e-13
1.14509e-12
1.85558e-12
1.70261e-12
2.56377e-12
9.91459e-13
1.36784e-13
1.71205e-14
4.5283e-15
2.51348e-14
3.02179e-13
2.11844e-12
3.00457e-12
3.57211e-11
1.02968e-10
1.36003e-10
2.25941e-12
1.29364e-12
7.04438e-13
3.60475e-13
1.93081e-13
1.47156e-13
1.80445e-13
2.79373e-13
3.70861e-13
5.91692e-13
5.42116e-13
6.77949e-13
2.59939e-13
4.57292e-14
7.01745e-15
1.31916e-15
3.4127e-15
3.95172e-14
3.1235e-13
7.7838e-13
2.4054e-12
8.19672e-12
5.52745e-12
7.45827e-13
4.08643e-13
2.14125e-13
1.07435e-13
5.81423e-14
4.54161e-14
5.53557e-14
8.38138e-14
1.08924e-13
1.6724e-13
1.52951e-13
1.66732e-13
6.45487e-14
1.39222e-14
2.54927e-15
4.49974e-16
4.59068e-16
4.53316e-15
3.9886e-14
1.45509e-13
5.13656e-13
1.03909e-12
1.13239e-12
2.17903e-13
1.12123e-13
5.72545e-14
2.84794e-14
1.56478e-14
1.25023e-14
1.53091e-14
2.27821e-14
2.90202e-14
4.25206e-14
3.88125e-14
3.79427e-14
1.51542e-14
3.86279e-15
8.17046e-16
1.50819e-16
6.90106e-17
4.69865e-16
4.38136e-15
2.08271e-14
7.6138e-14
1.56779e-13
1.984e-13
5.63729e-14
2.71653e-14
1.35924e-14
6.74663e-15
3.76668e-15
3.07165e-15
3.80231e-15
5.59113e-15
7.0022e-15
9.76002e-15
8.88743e-15
7.95957e-15
3.30991e-15
9.57533e-16
2.25202e-16
4.41854e-17
1.24856e-17
4.59186e-17
4.18048e-16
2.39187e-15
8.92059e-15
1.99128e-14
2.74275e-14
1.30223e-14
5.87082e-15
2.88781e-15
1.43563e-15
8.13501e-16
6.75692e-16
8.48159e-16
1.23721e-15
1.52795e-15
2.0268e-15
1.83945e-15
1.53613e-15
6.67102e-16
2.11795e-16
5.36949e-17
1.10862e-17
2.50328e-18
4.45006e-18
3.56641e-17
2.27171e-16
8.5433e-16
2.04814e-15
3.05176e-15
2.70747e-15
1.13849e-15
5.51951e-16
2.75413e-16
1.58094e-16
1.33503e-16
1.70156e-16
2.46991e-16
3.01603e-16
3.81459e-16
3.43904e-16
2.71767e-16
1.22868e-16
4.16528e-17
1.10961e-17
2.36703e-18
4.86172e-19
4.50036e-19
2.82933e-18
1.83506e-17
6.82606e-17
1.76368e-16
2.8021e-16
5.10091e-16
1.99257e-16
9.53661e-17
4.7816e-17
2.77493e-17
2.37819e-17
3.07794e-17
4.45454e-17
5.38721e-17
6.51675e-17
5.81584e-17
4.39867e-17
2.0529e-17
7.2745e-18
1.99933e-18
4.3483e-19
8.55123e-20
4.79799e-20
2.16732e-19
1.30931e-18
4.72129e-18
1.30515e-17
2.16549e-17
8.75102e-17
3.16294e-17
1.49571e-17
7.53462e-18
4.41131e-18
3.83282e-18
5.03541e-18
7.27192e-18
8.71401e-18
1.01232e-17
8.92585e-18
6.51677e-18
3.10941e-18
1.13141e-18
3.15406e-19
6.89499e-20
1.31621e-20
5.24869e-21
1.66373e-20
8.64836e-20
2.93371e-19
8.44446e-19
1.44512e-18
1.37269e-17
4.57547e-18
2.1389e-18
1.08205e-18
6.37804e-19
5.61102e-19
7.47621e-19
1.07756e-18
1.27926e-18
1.43118e-18
1.24301e-18
8.80688e-19
4.25779e-19
1.56843e-19
4.38371e-20
9.53265e-21
1.77207e-21
5.63022e-22
1.28695e-21
5.50152e-21
1.71397e-20
4.90404e-20
8.5283e-20
1.97522e-18
6.05286e-19
2.79775e-19
1.4204e-19
8.41422e-20
7.48727e-20
1.01089e-19
1.45383e-19
1.7092e-19
1.8471e-19
1.57707e-19
1.08793e-19
5.28421e-20
1.94887e-20
5.40523e-21
1.15708e-21
2.08705e-22
5.69192e-23
9.9961e-23
3.48747e-22
9.72999e-22
2.61554e-21
4.57163e-21
2.61688e-19
7.35489e-20
3.3609e-20
1.71095e-20
1.01697e-20
9.14309e-21
1.24928e-20
1.79159e-20
2.08443e-20
2.18055e-20
1.82545e-20
1.22807e-20
5.94669e-21
2.17567e-21
5.93683e-22
1.24173e-22
2.16491e-23
5.31697e-24
7.66326e-24
2.22218e-23
5.47201e-23
1.31571e-22
2.27429e-22
3.20152e-20
8.23382e-21
3.71879e-21
1.89681e-21
1.12981e-21
1.02563e-21
1.41677e-21
2.02467e-21
2.3292e-21
2.36245e-21
1.93581e-21
1.27067e-21
6.0937e-22
2.19509e-22
5.8504e-23
1.18659e-23
1.98881e-24
4.54273e-25
5.73233e-25
1.42256e-24
3.06615e-24
6.38541e-24
1.06894e-23
3.62917e-21
8.52389e-22
3.80339e-22
1.94228e-22
1.15805e-22
1.06087e-22
1.47994e-22
2.10591e-22
2.3935e-22
2.35643e-22
1.88702e-22
1.20801e-22
5.70555e-23
2.01144e-23
5.20409e-24
1.01708e-24
1.63142e-25
3.55236e-26
4.15353e-26
9.08549e-26
1.71621e-25
3.06051e-25
4.88683e-25
3.82264e-22
8.1849e-23
3.60674e-23
1.84293e-23
1.09902e-23
1.01562e-23
1.4296e-23
2.02439e-23
2.27154e-23
2.17231e-23
1.69781e-23
1.05922e-23
4.90365e-24
1.68304e-24
4.20362e-25
7.87059e-26
1.20314e-26
2.55688e-27
2.9124e-27
5.76948e-27
9.66177e-27
1.49807e-26
2.46732e-26
3.75209e-23
7.31337e-24
3.18109e-24
1.62568e-24
9.69063e-25
9.0315e-25
1.28164e-24
1.80497e-24
1.9985e-24
1.85835e-24
1.41643e-24
8.60727e-25
3.89153e-25
1.29481e-25
3.10623e-26
5.53965e-27
8.03547e-28
1.71035e-28
1.98076e-28
3.63946e-28
5.54218e-28
8.15775e-28
2.21819e-27
3.44108e-24
6.10223e-25
2.6185e-25
1.33777e-25
7.9666e-26
7.48565e-26
1.06996e-25
1.49789e-25
1.63571e-25
1.48055e-25
1.1e-25
6.50821e-26
2.86654e-26
9.21904e-27
2.11665e-27
3.57971e-28
4.91316e-29
1.07835e-29
1.31006e-29
2.28215e-29
3.32319e-29
6.31829e-29
4.73545e-28
2.95595e-25
4.77193e-26
2.01928e-26
1.03074e-26
6.12895e-27
5.80559e-27
8.35065e-27
1.16134e-26
1.24991e-26
1.10184e-26
7.9763e-27
4.59309e-27
1.96717e-27
6.10079e-28
1.3366e-28
2.13611e-29
2.7743e-30
6.52211e-31
8.47911e-31
1.42793e-30
2.2304e-30
9.12377e-30
1.36505e-28
2.38517e-26
3.51286e-27
1.46582e-27
7.46981e-28
4.43265e-28
4.23317e-28
6.12293e-28
8.45006e-28
8.9524e-28
7.68392e-28
5.41604e-28
3.03408e-28
1.26101e-28
3.76027e-29
7.83526e-30
1.17859e-30
1.45137e-31
3.83596e-32
5.4e-32
9.07938e-32
1.96809e-31
1.9613e-30
3.86228e-29
1.81524e-27
2.44758e-28
1.00869e-28
5.12453e-29
3.03186e-29
2.91968e-29
4.2434e-29
5.8016e-29
6.03709e-29
5.03637e-29
3.44868e-29
1.87521e-29
7.53894e-30
2.15286e-30
4.24584e-31
5.982e-32
7.02637e-33
2.21502e-33
3.39151e-33
6.10796e-33
2.57636e-32
4.54716e-31
1.01002e-29
1.31212e-28
1.62715e-29
6.63856e-30
3.35811e-30
1.97953e-30
1.92178e-30
2.80208e-30
3.78762e-30
3.86154e-30
3.12342e-30
2.0712e-30
1.08827e-30
4.20604e-31
1.14157e-31
2.10845e-32
2.75194e-33
3.11463e-34
1.26184e-34
2.11278e-34
4.74184e-34
4.39994e-33
1.01608e-31
2.45086e-30
9.07473e-30
1.04335e-30
4.22608e-31
2.1251e-31
1.24671e-31
1.21846e-31
1.77677e-31
2.3667e-31
2.35748e-31
1.84492e-31
1.18152e-31
5.98349e-32
2.21526e-32
5.68427e-33
9.74211e-34
1.16175e-34
1.28407e-35
7.0931e-36
1.32028e-35
4.78988e-35
8.29623e-34
2.17945e-32
5.65252e-31
6.04351e-31
6.51022e-32
2.61797e-32
1.30692e-32
7.62236e-33
7.49046e-33
1.08923e-32
1.42558e-32
1.38397e-32
1.04562e-32
6.44883e-33
3.13835e-33
1.10978e-33
2.68573e-34
4.26224e-35
4.64248e-36
5.24865e-37
4.25632e-37
1.53278e-36
2.21744e-35
5.38278e-34
1.40067e-32
3.87117e-31
0.807703
0.765978
0.70642
0.611579
0.90932
0.701022
0.288168
0.0338414
0.51035
0.180957
0.0296721
0.00932887
0.0743296
0.0183891
0.012011
0.0120147
0.00942992
0.00977385
0.0120039
0.0119985
0.000741105
0.00404942
0.0106694
0.0119895
8.88769e-06
3.98818e-05
7.99019e-05
0.000992623
2.08517e-08
2.59838e-08
2.07504e-08
1.80388e-08
9.75448e-09
1.00084e-08
1.3597e-08
1.8048e-08
9.78608e-09
1.08138e-08
1.18668e-08
1.08092e-08
1.53207e-08
1.01563e-08
7.9306e-09
7.92979e-09
2.04196e-08
1.78235e-08
9.07104e-09
9.24006e-09
1.40963e-08
4.56904e-08
5.42579e-08
4.56687e-08
9.63412e-09
4.99256e-08
7.87587e-08
7.88196e-08
1.61977e-08
5.51578e-08
7.87799e-08
7.8835e-08
1.5706e-08
3.45857e-08
4.53111e-08
2.9399e-08
7.70324e-09
1.05867e-08
1.00118e-08
7.37888e-09
2.78263e-09
3.43853e-09
2.94968e-09
2.08341e-09
8.85416e-10
8.96572e-10
7.11012e-10
4.86354e-10
1.55111e-10
1.42172e-10
1.22345e-10
6.7884e-11
6.23825e-12
1.02421e-11
6.75195e-12
4.75412e-12
1.3242e-12
1.67217e-12
1.38447e-12
1.09947e-12
2.24353e-13
2.50154e-13
2.23591e-13
1.87786e-13
2.99855e-14
3.17685e-14
2.95972e-14
2.65004e-14
3.26829e-15
3.40567e-15
3.32681e-15
3.20664e-15
2.95958e-16
3.11005e-16
3.22832e-16
3.38249e-16
2.2775e-17
2.47183e-17
2.76119e-17
3.14065e-17
1.5261e-18
1.74283e-18
2.10328e-18
2.56996e-18
9.13722e-20
1.10858e-19
1.43326e-19
1.86661e-19
4.99009e-21
6.41265e-21
8.77399e-21
1.2256e-20
2.521e-22
3.39616e-22
4.92094e-22
7.78797e-22
1.19639e-23
1.70981e-23
2.89129e-23
6.63178e-23
5.7895e-25
1.10273e-24
3.51953e-24
1.67839e-23
4.63513e-26
2.1253e-25
1.34863e-24
9.1333e-24
1.12367e-26
8.81426e-26
6.9767e-25
5.4542e-24
4.21767e-27
3.90903e-26
3.47315e-25
3.03295e-24
1.56668e-27
1.60303e-26
1.56788e-25
1.50795e-24
5.33041e-28
5.93325e-27
6.33033e-26
6.62648e-25
1.64559e-28
1.98362e-27
2.30322e-26
2.61464e-25
4.68049e-29
6.10149e-28
7.73272e-27
9.60254e-26
1.2856e-29
1.82952e-28
2.56267e-27
3.54732e-26
1.16704e-29
1.78101e-28
2.67383e-27
3.89463e-26
0.22589
0.0146876
0.0098181
0.011634
0.0117202
0.016349
0.039904
0.133682
0.43039
0.737975
0.813353
0.787368
0.670058
0.403315
0.12189
0.0204128
0.017998
0.037692
0.0544943
0.00685886
0.00609385
0.00608756
0.0049865
0.00295919
0.0020589
0.00383147
0.0099455
0.093866
0.384484
0.684094
0.694025
0.622681
0.431206
0.178355
0.0491308
0.0179685
0.0450733
0.104269
0.00955159
0.00961102
0.00799277
0.00305087
0.00141517
0.00073908
0.000397457
0.000406538
0.0137175
0.206281
0.499157
0.604328
0.553472
0.415045
0.211603
0.069867
0.0206275
0.043438
0.187243
0.0120282
0.00996606
0.00167898
0.000289952
0.000193592
0.000163701
0.000114287
0.000146095
0.00378829
0.0788212
0.25834
0.504096
0.528526
0.401725
0.206426
0.0723242
0.0253155
0.0476618
0.283979
0.0120109
0.00207354
4.08796e-05
2.32562e-05
2.32178e-05
2.32127e-05
2.32176e-05
2.39128e-05
0.00110647
0.028602
0.140872
0.430737
0.508112
0.376044
0.17854
0.0640051
0.0402865
0.131149
0.380833
0.0110148
0.00264179
0.00244025
0.000501455
2.81308e-05
2.32176e-05
2.32135e-05
3.91167e-05
0.00358002
0.0493104
0.139027
0.350505
0.432084
0.270128
0.127875
0.075186
0.115363
0.317923
0.449962
0.00960259
0.0205941
0.0171834
0.00577294
0.000367698
2.40972e-05
2.32694e-05
7.05937e-05
0.00564382
0.0652072
0.161631
0.286471
0.268827
0.178385
0.134267
0.141758
0.306796
0.482841
0.474042
0.00459481
0.02065
0.0235
0.0211793
0.0057065
0.000305289
7.49049e-05
0.000682169
0.0114006
0.0720402
0.164134
0.240503
0.194721
0.157549
0.136894
0.301841
0.489694
0.499958
0.474535
0.000346402
0.00690217
0.0235266
0.0251939
0.0229649
0.00826394
0.00493094
0.0129636
0.0362702
0.0845004
0.143626
0.235015
0.27625
0.274731
0.365075
0.433214
0.48862
0.500046
0.441111
4.01124e-06
0.000353128
0.00669636
0.0252524
0.0295544
0.0357363
0.0341195
0.0410667
0.0594317
0.0968202
0.139658
0.18673
0.308557
0.366066
0.391144
0.395093
0.436666
0.436222
0.394087
1.67687e-08
2.55688e-06
0.000191611
0.00473997
0.0256052
0.0411609
0.048774
0.0506364
0.0632254
0.0838395
0.09185
0.101646
0.11482
0.157923
0.289676
0.386706
0.393981
0.39215
0.392172
9.07346e-09
1.36242e-08
1.94209e-06
0.000141829
0.00265376
0.0110274
0.0174928
0.0192555
0.0221596
0.0414994
0.0706135
0.0891428
0.0728778
0.072914
0.159987
0.358489
0.365273
0.351848
0.335915
1.25602e-08
4.12252e-09
1.72343e-08
1.96804e-06
4.24496e-05
0.000268714
0.000647314
0.000851505
0.00114161
0.0057027
0.0286563
0.0824032
0.143566
0.143983
0.169127
0.228096
0.24147
0.205569
0.180669
3.16737e-08
7.10851e-09
1.67179e-09
4.99851e-08
6.70164e-07
8.35776e-07
8.4559e-07
1.00703e-06
1.40882e-06
2.74983e-05
0.00114861
0.0124209
0.0429613
0.0880652
0.110819
0.119414
0.0984808
0.0623431
0.0518371
2.72166e-08
7.14104e-09
1.78898e-09
1.98324e-09
7.02834e-08
1.91197e-07
4.0036e-07
4.02174e-07
3.1796e-07
2.21532e-07
1.16738e-06
3.64636e-05
0.000783146
0.00533696
0.0133257
0.0161333
0.00960219
0.00504721
0.00400879
9.42252e-09
3.50626e-09
9.39874e-10
6.87775e-10
9.86663e-09
9.65123e-08
2.38541e-07
3.62926e-07
3.65137e-07
2.2204e-07
1.28253e-07
1.65293e-07
1.08342e-06
1.87629e-05
7.88605e-05
9.61198e-05
7.05104e-05
6.91273e-05
8.51839e-05
3.01939e-09
9.97657e-10
2.86868e-10
3.74897e-10
9.09472e-10
4.14138e-08
1.03047e-07
5.28685e-08
2.58411e-07
2.58347e-07
8.6273e-08
4.13367e-08
4.0877e-08
8.61664e-09
1.63966e-08
7.63762e-09
1.74612e-08
2.93923e-07
1.07607e-06
7.33343e-10
2.46219e-10
8.43853e-11
1.47358e-10
2.92733e-10
2.46624e-09
1.29241e-08
2.40571e-08
2.74977e-08
2.42333e-07
5.69854e-08
3.3395e-09
1.91401e-09
4.40209e-10
3.1745e-10
1.3348e-10
6.73158e-12
1.41452e-11
2.35394e-10
1.39851e-10
4.50693e-11
2.70115e-11
5.18285e-11
9.20606e-11
2.84573e-10
1.01353e-09
2.3114e-09
2.47812e-09
1.85131e-08
8.55566e-08
9.06388e-08
5.5147e-09
6.50119e-10
8.89907e-10
2.75109e-10
6.19348e-12
4.08428e-12
4.10499e-12
1.62802e-11
8.7116e-12
8.88383e-12
1.5002e-11
2.31548e-11
4.4444e-11
8.52265e-11
1.49845e-10
2.78481e-10
1.78093e-09
2.54778e-08
7.2345e-08
2.62623e-08
2.03218e-09
1.62368e-09
3.51571e-10
1.57335e-11
4.19748e-12
6.05516e-12
3.31043e-12
2.67421e-12
2.89813e-12
3.95396e-12
5.52187e-12
8.25445e-12
1.17644e-11
2.20128e-11
4.64102e-11
2.26256e-10
3.30696e-09
2.96703e-08
2.6031e-08
1.02986e-08
2.79822e-09
8.36725e-10
1.2216e-10
1.33074e-11
1.19777e-11
7.82508e-13
7.19695e-13
7.85046e-13
9.39713e-13
1.33572e-12
2.09835e-12
4.25625e-12
9.89199e-12
2.57688e-11
7.47589e-11
6.1934e-10
6.92322e-09
1.00401e-08
8.45602e-09
4.70593e-09
1.78536e-09
3.4472e-10
5.40155e-11
2.26131e-11
1.56894e-13
1.62231e-13
1.75234e-13
2.07396e-13
3.52705e-13
7.60384e-13
2.04885e-12
6.14061e-12
2.0066e-11
6.72381e-11
2.14684e-10
1.05831e-09
2.73085e-09
3.6239e-09
3.4748e-09
2.16473e-09
5.34229e-10
1.21015e-10
4.36504e-11
2.69189e-14
3.02912e-14
3.30433e-14
4.59382e-14
1.04638e-13
3.00901e-13
9.93088e-13
4.00992e-12
1.73525e-11
7.49538e-11
2.38249e-10
4.94928e-10
1.00839e-09
1.57336e-09
2.28696e-09
1.85492e-09
5.91626e-10
2.33962e-10
5.84395e-11
3.96035e-15
4.72297e-15
5.61531e-15
1.06113e-14
3.05616e-14
1.06494e-13
4.67581e-13
2.60459e-12
1.59052e-11
9.57255e-11
3.62778e-10
7.4802e-10
1.06641e-09
1.35769e-09
1.86857e-09
1.57541e-09
6.54129e-10
2.90502e-10
8.14742e-11
4.98955e-16
6.33027e-16
9.22616e-16
2.36812e-15
7.57219e-15
3.06341e-14
1.91106e-13
1.58055e-12
1.4628e-11
1.00891e-10
4.80922e-10
1.23654e-09
1.66044e-09
1.80133e-09
1.92285e-09
1.58394e-09
6.66463e-10
3.27423e-10
1.02405e-10
5.40281e-17
7.65442e-17
1.48197e-16
4.52978e-16
1.49744e-15
6.7819e-15
6.38317e-14
9.0571e-13
9.70514e-12
8.72971e-11
6.14042e-10
1.80024e-09
2.30412e-09
2.30564e-09
2.18394e-09
1.55068e-09
6.41456e-10
3.8076e-10
1.1357e-10
5.16247e-18
8.795e-18
2.18808e-17
6.93368e-17
2.36353e-16
1.28268e-15
1.92624e-14
4.60401e-13
6.65509e-12
7.81736e-11
5.8872e-10
1.98238e-09
2.52508e-09
2.5244e-09
2.17628e-09
1.32262e-09
7.06184e-10
4.06714e-10
1.03912e-10
4.53304e-19
9.73193e-19
2.78965e-18
8.68514e-18
3.20684e-17
2.20818e-16
4.07983e-15
1.33073e-13
3.58114e-12
4.17717e-11
3.53604e-10
1.55373e-09
2.49331e-09
2.4646e-09
2.01041e-09
1.43933e-09
8.89713e-10
3.82585e-10
6.87856e-11
3.8516e-20
1.03115e-19
3.18175e-19
1.08806e-18
4.9726e-18
3.88064e-17
5.97996e-16
1.50988e-14
4.5406e-13
1.05543e-11
1.4087e-10
8.9766e-10
2.10275e-09
2.45158e-09
2.32238e-09
1.95355e-09
1.19982e-09
2.88981e-10
1.81393e-11
3.50098e-21
1.25454e-20
5.42252e-20
3.06106e-19
2.00048e-18
1.42956e-17
1.28881e-16
2.16915e-15
6.57062e-14
1.97923e-12
3.40893e-11
3.50516e-10
1.25414e-09
2.00089e-09
2.13462e-09
1.91996e-09
1.14172e-09
2.00697e-10
8.75131e-12
5.3345e-22
3.59684e-21
2.89952e-20
2.44116e-19
1.95762e-18
1.45144e-17
9.91475e-17
7.12096e-16
9.76686e-15
2.90513e-13
6.95429e-12
7.25846e-11
4.11375e-10
9.08777e-10
1.0351e-09
8.26223e-10
3.46557e-10
7.21952e-11
4.24234e-12
2.20079e-22
2.34064e-21
2.49201e-20
2.50332e-19
2.31325e-18
1.92865e-17
1.41557e-16
8.97025e-16
5.11372e-15
4.29659e-14
7.6244e-13
1.02031e-11
6.45793e-11
1.79772e-10
2.23446e-10
1.69191e-10
6.32596e-11
8.6342e-12
2.20797e-12
1.3627e-22
1.76394e-21
2.19872e-20
2.55151e-19
2.70399e-18
2.55995e-17
2.10387e-16
1.45289e-15
8.13009e-15
3.6098e-14
1.4135e-13
7.73674e-13
3.21173e-12
1.21689e-11
1.7937e-11
1.38618e-11
7.29776e-12
2.66549e-12
8.66808e-13
8.46911e-23
1.26259e-21
1.80705e-20
2.40314e-19
2.90006e-18
3.07507e-17
2.76106e-16
2.0215e-15
1.16255e-14
5.03947e-14
1.55634e-13
3.53125e-13
7.29554e-13
1.92813e-12
3.0654e-12
2.99939e-12
1.82459e-12
8.91882e-13
4.74331e-13
4.75438e-23
7.8625e-22
1.2319e-20
1.76482e-19
2.25461e-18
2.49176e-17
2.30964e-16
1.73921e-15
1.02565e-14
4.57085e-14
1.44354e-13
3.45717e-13
6.81719e-13
1.20918e-12
1.52746e-12
1.32303e-12
8.01188e-13
4.56232e-13
3.15379e-13
2.32417e-23
4.10899e-22
6.73062e-21
9.85136e-20
1.26122e-18
1.38093e-17
1.26727e-16
9.54363e-16
5.73061e-15
2.6936e-14
9.17277e-14
2.49981e-13
5.68812e-13
8.63656e-13
9.68541e-13
7.0482e-13
4.07056e-13
2.30983e-13
2.11578e-13
9.84391e-24
1.81522e-22
3.03204e-21
4.42678e-20
5.55472e-19
5.8941e-18
5.22083e-17
3.81018e-16
2.24733e-15
1.0692e-14
3.88091e-14
1.21078e-13
3.2722e-13
4.54355e-13
4.44176e-13
2.98313e-13
1.69091e-13
9.12739e-14
1.37648e-13
3.72301e-24
7.16543e-23
1.22943e-21
1.81762e-20
2.27787e-19
2.38426e-18
2.05749e-17
1.44939e-16
8.21567e-16
3.74686e-15
1.3434e-14
4.03241e-14
1.12749e-13
1.37609e-13
1.2363e-13
8.07937e-14
4.90225e-14
3.21896e-14
8.33441e-14
1.34349e-24
2.80591e-23
5.16429e-22
8.15215e-21
1.09302e-19
1.20934e-18
1.06949e-17
7.41957e-17
3.99729e-16
1.64951e-15
5.3249e-15
1.26583e-14
2.85546e-14
2.74605e-14
2.61005e-14
1.77544e-14
1.34205e-14
1.16252e-14
4.30883e-14
5.13724e-25
1.29906e-23
3.02329e-22
5.93456e-21
9.43013e-20
1.11911e-18
9.49998e-18
5.91501e-17
2.80023e-16
9.83933e-16
2.73996e-15
4.86885e-15
8.5431e-15
6.88687e-15
6.59339e-15
4.58136e-15
3.76753e-15
3.62424e-15
1.74163e-14
5.45812e-25
1.49936e-23
3.24517e-22
5.32614e-21
6.66497e-20
6.43047e-19
4.76334e-18
2.65991e-17
1.13559e-16
3.49526e-16
8.60355e-16
1.20248e-15
1.79789e-15
1.23302e-15
1.03614e-15
7.08851e-16
6.23029e-16
6.42659e-16
3.9999e-15
)
;

boundaryField
{
    leftWall
    {
        type            zeroGradient;
    }
    rightWall
    {
        type            zeroGradient;
    }
    lowerWall
    {
        type            zeroGradient;
    }
    atmosphere
    {
        type            inletOutlet;
        inletValue      uniform 0;
        value           nonuniform List<scalar> 
46
(
6.04351e-31
6.51022e-32
2.61797e-32
1.30692e-32
7.62236e-33
7.49046e-33
1.08923e-32
1.42558e-32
1.38397e-32
1.04562e-32
6.44883e-33
3.13835e-33
1.10978e-33
2.68573e-34
4.26224e-35
4.64248e-36
5.24865e-37
4.25632e-37
1.53278e-36
2.21744e-35
5.38278e-34
1.40067e-32
3.87117e-31
1.16704e-29
1.78101e-28
2.67383e-27
3.89463e-26
5.45812e-25
0
0
0
0
0
0
0
0
0
0
0
0
0
0
0
0
0
0
)
;
    }
    defaultFaces
    {
        type            empty;
    }
}


// ************************************************************************* //
