/*--------------------------------*- C++ -*----------------------------------*\
| =========                 |                                                 |
| \\      /  F ield         | OpenFOAM: The Open Source CFD Toolbox           |
|  \\    /   O peration     | Version:  2.4.0                                 |
|   \\  /    A nd           | Web:      www.OpenFOAM.org                      |
|    \\/     M anipulation  |                                                 |
\*---------------------------------------------------------------------------*/
FoamFile
{
    version     2.0;
    format      ascii;
    class       volScalarField;
    location    "0.8";
    object      alpha.air;
}
// * * * * * * * * * * * * * * * * * * * * * * * * * * * * * * * * * * * * * //

dimensions      [0 0 0 0 0 0 0];

internalField   nonuniform List<scalar> 
2268
(
8.37677e-12
1.06572e-11
6.2728e-12
6.614e-12
8.03332e-12
5.66783e-12
3.64312e-12
2.30105e-12
1.73441e-12
1.27844e-12
7.11011e-13
3.08977e-13
1.40644e-13
1.0081e-13
8.42193e-14
5.93368e-14
3.66528e-14
2.6159e-14
2.53886e-14
3.08784e-14
1.97429e-14
4.69456e-15
7.6026e-15
4.55277e-11
5.38285e-11
4.17197e-11
4.51568e-11
4.85771e-11
3.76362e-11
2.64135e-11
1.70041e-11
1.19622e-11
8.14356e-12
4.18079e-12
1.72891e-12
8.30902e-13
6.11305e-13
4.79172e-13
3.30762e-13
2.14971e-13
1.62973e-13
1.62852e-13
1.7794e-13
1.25351e-13
4.13646e-14
3.92393e-14
1.50461e-10
1.60082e-10
1.36342e-10
1.29829e-10
1.24874e-10
8.58827e-11
4.26957e-11
2.55663e-11
2.11836e-11
1.69463e-11
1.06326e-11
5.6254e-12
3.14218e-12
2.08638e-12
1.46054e-12
9.96521e-13
6.92826e-13
5.4727e-13
5.26782e-13
5.14125e-13
4.30782e-13
2.70473e-13
2.50215e-13
1.40259e-10
1.58405e-10
1.61848e-10
1.92314e-10
2.51484e-10
2.60618e-10
2.60524e-10
1.79279e-10
8.96693e-11
5.72821e-11
3.12947e-11
1.19988e-11
6.36627e-12
4.44787e-12
3.11988e-12
2.18791e-12
1.61414e-12
1.26747e-12
1.10956e-12
1.09488e-12
1.68914e-12
1.88308e-12
1.89931e-12
5.67208e-11
5.6735e-11
5.70977e-11
5.77293e-11
5.77883e-11
6.68218e-11
9.87925e-11
1.86052e-10
1.6652e-10
9.18365e-11
4.8012e-11
2.54492e-11
1.49816e-11
8.79379e-12
5.32531e-12
3.64625e-12
2.80308e-12
2.2731e-12
2.04382e-12
3.3537e-12
8.38762e-12
7.29715e-12
8.29713e-12
5.6942e-11
5.70635e-11
5.90081e-11
6.63599e-11
7.50235e-11
9.02358e-11
9.03186e-11
1.41356e-10
1.98571e-10
1.41553e-10
6.4278e-11
3.70483e-11
2.07335e-11
1.0714e-11
5.97183e-12
4.31179e-12
3.72887e-12
3.65956e-12
7.30744e-12
2.31186e-11
1.25052e-10
3.31221e-10
3.58109e-10
6.05746e-11
5.86072e-11
6.58329e-11
6.6929e-11
1.21398e-10
2.31787e-10
1.33986e-10
1.63133e-10
2.15353e-10
1.60679e-10
6.03786e-11
3.94497e-11
2.6135e-11
9.60576e-12
5.24631e-12
4.39752e-12
5.89747e-12
7.71868e-10
8.84235e-09
1.33109e-08
1.31069e-08
2.08656e-08
6.19688e-08
3.73167e-10
2.1149e-09
1.73888e-09
8.60706e-11
4.38282e-10
7.50525e-10
2.85897e-10
2.61497e-10
3.74762e-10
4.33546e-10
3.47549e-10
3.24278e-10
1.80937e-11
9.67773e-12
2.12783e-10
4.11218e-10
4.69295e-09
1.53526e-07
5.15e-07
5.09533e-07
2.75938e-07
3.59325e-07
9.68722e-07
5.9101e-06
1.23089e-05
3.1752e-05
4.17489e-05
3.25281e-05
2.63712e-05
2.84002e-05
1.41313e-05
7.45989e-06
6.36446e-06
1.31035e-05
1.23518e-05
9.1707e-06
1.68071e-06
1.30401e-06
4.58187e-05
7.57115e-05
1.6698e-05
1.24531e-05
7.43623e-06
5.44424e-05
9.80263e-05
0.000158538
0.000560024
0.00160629
0.00258867
0.00264481
0.00180235
0.0016022
0.0012992
0.00104464
0.00104047
0.000787208
0.000148674
7.31886e-05
4.99799e-05
2.12549e-05
1.66263e-05
5.87134e-05
7.39267e-05
6.20369e-05
6.20274e-05
6.20252e-05
6.86466e-05
0.000869694
0.00320834
0.00372985
0.00371756
0.00119007
0.000493719
0.000897542
0.00125737
0.000802527
9.61063e-05
1.51852e-05
1.20089e-05
1.65713e-05
6.54876e-05
6.22144e-05
6.20274e-05
6.20252e-05
6.20255e-05
6.20233e-05
0.000338334
0.00108616
0.000681028
0.000239279
0.000198105
9.63726e-05
9.65833e-05
0.00015243
0.000164325
3.17712e-05
1.20042e-05
1.20019e-05
2.41315e-05
0.000461818
7.73843e-05
6.20328e-05
6.20279e-05
6.5356e-05
6.20236e-05
7.09755e-05
0.000288982
0.000535048
0.000937217
0.00371764
0.000869495
0.000100959
1.47086e-05
1.47697e-05
2.49375e-05
1.2001e-05
1.20017e-05
2.64405e-05
0.03569
0.0035459
0.000614647
0.000271252
9.4402e-05
6.31996e-05
6.33265e-05
7.2016e-05
0.00057035
0.0230313
0.063806
0.0348198
0.00107589
1.6057e-05
2.50318e-05
0.000119349
2.50922e-05
1.20018e-05
4.42451e-05
0.263667
0.0616053
0.00881754
0.000765204
6.61162e-05
6.33265e-05
6.34541e-05
0.000248935
0.0155893
0.0641689
0.0641768
0.0641716
0.00455529
4.61187e-05
9.19811e-05
0.000555601
3.11053e-05
1.20017e-05
4.17976e-05
0.310378
0.201363
0.0165711
0.000467881
6.35843e-05
6.34525e-05
6.35827e-05
0.000322423
0.0140496
0.0130619
0.0190139
0.0409776
0.0206344
0.000402405
0.000247294
0.000681127
0.000228535
1.20028e-05
4.80297e-05
1.03311e-07
8.26096e-08
4.71762e-08
1.67221e-08
3.11488e-09
2.12832e-09
5.51068e-10
4.91734e-10
7.01462e-10
9.43892e-10
1.24822e-09
1.35874e-09
2.31481e-09
2.88786e-08
2.75198e-07
7.3591e-07
1.35927e-06
2.21067e-06
2.60928e-06
2.60328e-06
2.64326e-06
2.91995e-06
1.00138e-05
4.1583e-07
2.6954e-07
1.55108e-07
5.80282e-08
1.17706e-08
4.55581e-09
1.13327e-09
7.70053e-10
9.50652e-10
1.06426e-09
1.06539e-09
1.06798e-09
4.19264e-08
1.93961e-06
1.16501e-06
3.18202e-06
5.16858e-06
3.80293e-06
2.76272e-06
4.21874e-06
1.00234e-05
1.43127e-05
0.000251084
5.26093e-07
4.30281e-07
5.00462e-07
2.98421e-07
1.86594e-07
8.45052e-08
2.42947e-08
8.83709e-09
2.02625e-09
1.4474e-09
1.31101e-09
8.87523e-09
6.6913e-07
0.00012199
0.000855715
0.00346765
0.00466338
0.00301957
0.0017273
0.000641526
0.00051266
0.000652638
0.0289705
8.31741e-07
1.06075e-06
1.64906e-06
1.02141e-06
1.87486e-07
1.5641e-07
4.67097e-08
9.97734e-09
3.15482e-09
2.18752e-09
7.91149e-07
5.74311e-05
0.00177947
0.0348094
0.115602
0.278519
0.360007
0.314018
0.0883867
0.00322974
0.00071678
0.00795305
0.035458
1.43313e-05
3.53116e-05
4.93785e-07
2.85263e-07
7.26047e-08
5.59628e-08
1.5627e-08
3.64831e-09
4.33708e-09
9.16991e-05
0.0131607
0.0522159
0.217656
0.544932
0.826606
0.953257
0.800369
0.307996
0.0295135
0.00401535
0.00865098
0.0326728
0.0499376
0.000986343
0.0233836
0.0533123
0.0314791
0.0197225
0.0163114
0.0148683
0.0236613
0.0687304
0.164437
0.554343
0.899827
0.996937
0.999946
0.998982
0.985353
0.70147
0.123923
0.0222083
0.00868284
0.0150302
0.0657927
0.401328
0.216834
0.459561
0.665775
0.73972
0.770657
0.769841
0.776507
0.852844
0.944615
0.988211
0.999425
0.999873
0.999994
0.999998
0.999997
0.998791
0.936205
0.535139
0.0861871
0.0477895
0.0476853
0.25893
0.903503
0.867523
0.967093
0.991034
0.996187
0.998043
0.998322
0.998937
0.999471
0.999748
0.999969
0.999999
0.999999
0.999999
0.999999
0.999999
0.999989
0.998785
0.959206
0.571053
0.113388
0.0946994
0.579544
0.993855
0.997774
0.999782
0.999984
0.999997
0.999999
0.999999
0.999999
1
0.999999
0.999999
0.999999
0.999999
0.999999
0.999999
0.999999
0.999999
0.999997
0.999277
0.945395
0.673509
0.532301
0.882181
0.999599
0.999995
0.999999
0.999999
0.999999
0.999999
0.999999
1
1
1
0.999999
0.999999
0.999999
0.999999
0.999999
0.999999
0.999999
1
0.999981
0.997461
0.97689
0.955191
0.987925
0.999949
0.999999
0.999999
0.999999
0.999999
0.999999
0.999999
1
1
1
1
1
1
0.999999
0.999999
0.999999
1
1
1
0.999972
0.999712
0.999361
0.999703
0.999996
0.999999
0.999999
0.999999
0.999999
0.999999
0.999999
1
1
1
1
1
1
0.999999
0.999999
0.999999
1
1
1
1
1
1
0.999999
1
0.999999
0.999999
0.999999
0.999999
0.999999
0.999999
1
1
1
1
1
1
0.999999
0.999999
1
1
1
1
1
1
1
1
1
0.999999
0.999999
0.999999
0.999999
0.999999
0.999999
1
1
1
1
1
1
0.999999
1
1
1
1
1
1
1
1
1
1
0.999999
0.999999
0.999999
0.999999
0.999999
0.999999
1
1
1
1
1
1
0.999999
1
1
1
1
1
1
1
1
1
1
0.999999
0.999999
0.999999
0.999999
0.999999
0.999999
1
1
1
1
1
1
0.999999
0.999999
0.999999
0.999999
0.999999
1
1
1
1
1
1
0.999999
0.999999
0.999999
0.999999
0.999999
1
1
1
1
1
1
1
0.999999
0.999999
0.999999
0.999999
0.999999
0.999999
0.999999
1
1
1
1
0.999999
0.999999
0.999999
0.999999
0.999999
1
1
1
1
1
1
1
0.999999
0.999999
0.999999
0.999999
1
0.999999
0.999999
0.999999
0.999999
0.999999
0.999999
0.999999
0.999999
0.999999
0.999999
1
1
1
1
1
1
1
1
0.999999
0.999999
0.999999
1
1
1
0.999999
0.999999
0.999999
0.999999
0.999999
0.999999
0.999999
0.999999
0.999999
1
1
1
1
1
1
1
1
0.999999
0.999999
1
1
1
1
1
1
0.999999
0.999999
0.999999
0.999999
0.999999
0.999999
0.999999
1
1
1
1
1
1
1
1
0.999999
0.999999
0.999999
1
1
1
1
1
1
0.999999
0.999999
0.999999
0.999999
0.999999
1
1
1
1
1
1
1
1
1
0.999999
0.999999
0.999999
0.999999
0.999999
1
1
1
1
0.999999
0.999999
0.999999
0.999999
0.999999
1
1
1
1
1
1
1
1
1
1
0.999999
0.999999
0.999999
0.999999
0.999999
0.999999
1
0.999999
0.999999
0.999999
0.999999
0.999999
0.999999
1
1
1
1
1
1
1
1
1
1
0.999999
0.999999
0.999999
0.999999
0.999999
0.999999
0.999999
0.999999
0.999999
0.999999
0.999999
0.999999
0.999999
1
1
1
1
1
1
1
1
1
1
1
0.999999
0.999999
0.999999
0.999999
0.999999
0.999999
0.999999
0.999999
0.999999
0.999999
0.999999
1
1
1
1
1
1
1
1
1
1
1
1
1
0.999999
0.999999
0.999999
0.999999
0.999999
0.999999
0.999998
0.999998
0.999999
0.999999
1
1
1
1
1
1
1
1
1
1
1
1
1
1
1
0.999999
0.999999
0.999999
0.999999
0.999998
0.999998
0.999999
1
1
1
1
1
1
1
1
1
1
1
1
1
1
1
1
1
0.999999
0.999999
0.999999
0.999998
0.999998
0.999999
1
1
1
1
1
1
1
1
1
1
1
1
1
1
1
1
1
1
0.999999
0.999999
0.999998
0.999998
1
1
1
1
1
1
1
1
1
1
1
1
1
1
1
1
1
1
1
1
0.999999
0.999999
0.999998
1
1
1
1
1
1
1
1
1
1
1
1
1
1
1
1
1
1
1
1
0.999999
0.999999
0.999998
1
1
1
1
1
1
1
1
1
1
1
1
1
1
1
1
1
1
1
1
1
0.999999
0.999998
1
1
1
1
1
1
1
1
1
1
1
1
1
1
1
1
1
1
1
1
1
0.999999
0.999999
1
1
1
1
1
1
1
1
1
1
1
1
1
1
1
1
1
1
1
1
1
0.999999
0.999999
1
1
1
1
1
1
1
1
1
1
1
1
1
1
1
1
1
1
1
1
1
1
0.999999
1
1
1
1
1
1
1
1
1
1
1
1
1
1
1
1
1
1
1
1
1
1
0.999999
1
1
1
1
1
1
1
1
1
1
1
1
1
1
1
1
1
1
1
1
1
1
0.999999
1
1
1
1
1
1
1
1
1
1
1
1
1
1
1
1
1
1
1
1
1
1
0.999999
1
1
1
1
1
1
1
1
1
1
1
1
1
1
1
1
1
1
0.999999
1
1
1
0.999999
1
1
1
1
1
1
1
1
1
1
1
1
1
1
1
1
1
0.999999
0.999999
0.999999
1
1
1
1
1
1
1
1
1
1
1
1
1
1
1
1
1
1
1
1
0.999999
0.999999
0.999999
0.999999
1
0.999999
1
1
1
1
1
1
1
1
1
1
1
1
1
1
1
1
1
1
0.999999
1
1
1
0.999999
0.000125719
0.00414207
0.0219734
0.0438799
0.0021881
0.0848651
0.266004
0.266001
0.218346
0.254299
0.243225
0.0633649
0.0374452
0.0190004
0.013238
0.0132188
0.0380621
0.0338701
0.0348672
0.096568
0.678534
0.587919
0.543632
0.678332
0.994276
0.995669
0.997315
0.972602
0.999992
0.999998
0.999956
0.992753
1
1
1
1
1
1
1
1
1
1
1
1
1
1
1
1
1
1
1
1
1
1
1
1
1
1
1
1
1
1
1
1
1
1
0.999999
0.999999
0.999999
0.999999
0.999999
0.999999
0.999999
0.999999
0.999999
0.999999
0.999999
0.999999
0.999999
0.999999
0.999999
0.999999
0.999999
0.999999
0.999999
0.999999
0.999999
0.999999
0.999999
1
0.999999
0.999999
0.999999
0.999999
0.999999
0.999999
0.999999
0.999999
0.999999
0.999999
0.999998
0.999998
0.999998
0.999998
0.999998
0.999998
0.999998
0.999998
0.999998
0.999997
0.999997
0.999997
0.999998
0.999997
0.999997
0.999997
0.999998
0.999997
0.999997
0.999996
0.999998
0.999997
0.999997
0.999996
0.999998
0.999997
0.999996
0.999996
0.999998
0.999997
0.999996
0.999996
0.999998
0.999997
0.999996
0.999996
0.999998
0.999997
0.999996
0.999996
0.999998
0.999998
0.999997
0.999997
0.999998
0.999997
0.999997
0.999997
0.999999
0.999998
0.999997
0.999997
0.999998
0.999998
0.999998
0.999998
0.999999
0.999998
0.999998
0.999998
0.999998
0.999998
0.999997
0.999998
0.999998
0.999998
0.999998
0.999999
0.310376
0.184501
0.00953146
0.00164721
0.00156365
0.00129171
0.00125562
0.00124335
0.000954763
0.000703915
0.00125781
0.00730148
0.0206236
0.00356229
0.000544916
0.000682197
0.00247158
0.00302488
0.000903076
0.17138
0.021503
0.00828757
0.00829654
0.0103271
0.0112311
0.00945705
0.00570571
0.00107702
0.000615084
0.000614739
0.00204447
0.00884974
0.00489316
0.000448921
0.000106348
0.000336839
0.00302234
0.00640814
0.0237313
0.0238238
0.0469225
0.069601
0.0502202
0.0295105
0.0230425
0.0153154
0.0105032
0.0226505
0.00997584
0.000535125
0.00058734
0.00146861
0.000233637
7.72031e-06
0.0002442
0.00302484
0.000752357
0.0371225
0.256369
0.612073
0.719951
0.658649
0.529162
0.394704
0.196206
0.0852324
0.102245
0.0103446
0.000160207
1.09059e-05
6.80256e-05
2.52944e-05
1.31574e-06
7.33353e-05
0.000961412
0.000647526
0.491299
0.936354
0.988157
0.988175
0.988178
0.988179
0.985362
0.829087
0.284666
0.101968
0.00408501
3.09305e-05
5.88026e-06
2.99881e-06
1.28589e-06
1.28487e-06
1.16322e-05
0.00011232
0.000677774
0.82175
0.948786
0.95859
0.986687
0.98817
0.988178
0.988177
0.977723
0.649479
0.0814519
0.00205334
0.00124189
0.00274782
0.000615455
4.7879e-06
4.13994e-06
1.64794e-05
0.000133225
0.000673243
0.702472
0.35395
0.604151
0.865626
0.983557
0.988174
0.988177
0.987689
0.809942
0.19677
0.018646
0.0764221
0.2261
0.0778144
0.00177999
0.0011771
0.00106852
0.00272767
0.00139345
0.773719
0.324558
0.322172
0.447988
0.863412
0.986753
0.988123
0.946374
0.631049
0.175066
0.0384743
0.155521
0.332588
0.332561
0.297311
0.0796665
0.0203047
0.0153076
0.00151586
0.982803
0.750846
0.322388
0.322172
0.461133
0.856579
0.910111
0.605805
0.174116
0.077277
0.0220906
0.0712947
0.241587
0.271608
0.181225
0.0596624
0.0258016
0.0117967
0.00127413
0.999798
0.983879
0.767077
0.336976
0.307865
0.319965
0.405647
0.199536
0.102254
0.0648087
0.0221418
0.0222316
0.0222966
0.0238861
0.00630664
0.00283286
0.00135422
0.00127401
0.00127396
0.999999
0.99988
0.990924
0.823823
0.308638
0.12074
0.113037
0.111118
0.0984658
0.0777946
0.0697913
0.165943
0.336248
0.344922
0.122934
0.0094962
0.00127391
0.00127384
0.00127398
0.999999
0.999999
0.999938
0.993997
0.887568
0.588426
0.453509
0.445039
0.315968
0.146839
0.0928965
0.302461
0.567022
0.566876
0.468921
0.0464731
0.00127376
0.00132946
0.00300988
1
0.999999
0.999999
0.999966
0.998461
0.98585
0.963905
0.953199
0.927807
0.749304
0.405796
0.178592
0.0901693
0.0900277
0.158389
0.0463691
0.00557025
0.0153606
0.0369162
1
0.999999
0.999998
0.999998
0.999994
0.999992
0.999989
0.999977
0.999904
0.998167
0.951997
0.658509
0.298864
0.161774
0.113278
0.0723922
0.0420922
0.0562686
0.0859175
1
0.999999
0.999998
0.999998
0.999999
1
1
1
1
1
0.99995
0.998199
0.973171
0.849416
0.66382
0.531283
0.262245
0.071855
0.0275762
0.999999
0.999998
0.999998
0.999998
0.999999
1
1
1
1
1
1
1
0.999997
0.999751
0.996028
0.976847
0.760669
0.146773
0.0142791
0.999999
0.999998
0.999998
0.999998
0.999999
0.999999
1
1
1
1
1
1
1
0.999979
0.999025
0.989052
0.949045
0.603545
0.0713434
0.999998
0.999998
0.999998
0.999998
0.999999
0.999999
0.999999
1
1
1
1
1
1
0.999838
0.994742
0.986243
0.992201
0.94197
0.588189
0.999998
0.999998
0.999998
0.999998
0.999998
0.999998
0.999999
0.999999
0.999999
1
1
1
1
0.999876
0.996249
0.998227
0.999761
0.997391
0.985973
0.999999
0.999998
0.999998
0.999998
0.999998
0.999998
0.999998
0.999999
0.999999
1
1
1
1
0.999926
0.999167
0.999957
0.999912
0.999996
1
0.999999
0.999998
0.999998
0.999998
0.999997
0.999998
0.999998
0.999999
0.999999
1
1
1
1
0.999934
0.999934
0.999972
0.999924
1
1
0.999999
0.999998
0.999998
0.999997
0.999997
0.999998
0.999998
0.999999
0.999999
1
1
1
1
0.999958
0.999976
0.999984
0.999987
0.999998
1
0.999999
0.999998
0.999998
0.999997
0.999997
0.999998
0.999998
0.999999
1
1
1
1
1
0.99998
0.999984
0.999993
0.999999
1
1
0.999999
0.999998
0.999998
0.999997
0.999998
0.999998
0.999999
0.999999
1
1
1
1
1
0.999992
0.999987
0.999995
1
1
1
0.999998
0.999998
0.999997
0.999997
0.999998
0.999998
0.999999
1
1
1
1
1
1
0.999999
0.999995
0.999995
0.999999
1
1
0.999998
0.999997
0.999997
0.999997
0.999998
0.999998
0.999999
1
1
1
1
1
1
1
1
0.999995
0.999999
1
1
0.999997
0.999997
0.999997
0.999997
0.999998
0.999998
0.999999
1
1
1
1
1
1
1
0.999998
0.999995
1
1
1
0.999997
0.999997
0.999997
0.999997
0.999998
0.999999
0.999999
1
1
1
1
1
1
0.999973
0.999969
0.999991
1
1
1
0.999996
0.999996
0.999996
0.999997
0.999998
0.999999
0.999999
0.999999
0.999999
0.999999
1
1
1
0.999965
0.999961
0.999977
0.999998
1
1
0.999996
0.999996
0.999996
0.999997
0.999998
0.999999
0.999999
0.999999
0.999999
0.999999
1
1
1
0.999993
0.999974
0.999982
0.999996
0.999999
1
0.999996
0.999996
0.999997
0.999997
0.999998
0.999999
0.999999
0.999999
0.999999
0.999999
1
1
1
1
0.999999
0.999994
0.999993
0.999995
0.999999
0.999996
0.999996
0.999997
0.999997
0.999998
0.999999
0.999999
0.999999
0.999999
0.999999
1
1
1
1
1
0.999998
0.999992
0.999995
1
0.999996
0.999996
0.999997
0.999998
0.999998
0.999999
0.999999
0.999999
0.999999
0.999999
1
1
1
1
1
0.999999
0.999992
0.999999
1
0.999996
0.999997
0.999997
0.999998
0.999999
0.999999
0.999999
0.999999
0.999999
0.999999
1
1
1
1
1
0.999997
0.999996
0.999999
1
0.999997
0.999997
0.999998
0.999998
0.999999
0.999999
0.999999
0.999999
0.999999
1
1
1
1
1
1
0.999997
0.999999
1
1
0.999997
0.999998
0.999998
0.999999
0.999999
0.999999
0.999999
0.999999
0.999999
1
1
1
1
1
0.999998
0.999998
1
1
1
0.999998
0.999998
0.999999
0.999999
0.999999
0.999999
0.999999
0.999999
0.999999
0.999999
1
1
1
1
0.999999
1
1
1
1
0.999998
0.999999
0.999999
0.999999
0.999999
0.999999
0.999999
0.999999
0.999999
0.999999
1
1
1
1
1
1
1
1
1
0.999998
0.999999
0.999999
0.999999
0.999999
0.999999
0.999999
0.999999
0.999999
1
1
1
1
1
1
1
1
1
1
0.999999
0.999999
0.999999
0.999999
0.999999
0.999999
0.999999
0.999999
0.999999
1
1
1
1
1
1
1
1
1
1
0.999999
0.999999
0.999999
0.999999
0.999999
0.999999
0.999999
0.999999
1
1
1
1
1
1
1
1
1
1
1
0.999999
0.999999
0.999999
0.999999
0.999999
1
1
1
1
1
1
1
1
1
1
1
1
1
1
)
;

boundaryField
{
    leftWall
    {
        type            alphaContactAngle;
        thetaProperties 6 ( ( water mercury ) 90 0 0 0 ( water air ) 90 0 0 0 ( water oil ) 90 0 0 0 ( mercury air ) 90 0 0 0 ( oil mercury ) 90 0 0 0 ( oil air ) 90 0 0 0 );
        value           nonuniform List<scalar> 
50
(
8.37677e-12
4.55277e-11
1.50461e-10
1.40259e-10
5.67208e-11
5.6942e-11
6.05746e-11
3.73167e-10
1.03311e-07
4.1583e-07
5.26093e-07
8.31741e-07
1.43313e-05
0.000986343
0.216834
0.867523
0.997774
0.999995
0.999999
0.999999
0.999999
0.999999
0.999999
0.999999
0.999999
0.999999
0.999999
0.999999
0.999999
0.999999
0.999999
0.999999
0.999999
0.999999
0.999999
0.999999
0.999999
1
1
1
1
1
1
1
1
1
1
1
1
1
)
;
    }
    rightWall
    {
        type            alphaContactAngle;
        thetaProperties 6 ( ( water mercury ) 90 0 0 0 ( water air ) 90 0 0 0 ( water oil ) 90 0 0 0 ( mercury air ) 90 0 0 0 ( oil mercury ) 90 0 0 0 ( oil air ) 90 0 0 0 );
        value           nonuniform List<scalar> 
50
(
1.24531e-05
1.66263e-05
1.65713e-05
2.41315e-05
2.64405e-05
4.42451e-05
4.17976e-05
4.80297e-05
0.000903076
0.00640814
0.000752357
0.000647526
0.000677774
0.000673243
0.00139345
0.00151586
0.00127413
0.00127396
0.00127398
0.00300988
0.0369162
0.0859175
0.0275762
0.0142791
0.0713434
0.588189
0.985973
1
1
1
1
1
1
1
1
1
1
1
0.999999
1
1
1
1
1
1
1
1
1
1
1
)
;
    }
    lowerWall
    {
        type            alphaContactAngle;
        thetaProperties 6 ( ( water mercury ) 90 0 0 0 ( water air ) 90 0 0 0 ( water oil ) 90 0 0 0 ( mercury air ) 90 0 0 0 ( oil mercury ) 90 0 0 0 ( oil air ) 90 0 0 0 );
        value           nonuniform List<scalar> 
62
(
8.37677e-12
1.06572e-11
6.2728e-12
6.614e-12
8.03332e-12
5.66783e-12
3.64312e-12
2.30105e-12
1.73441e-12
1.27844e-12
7.11011e-13
3.08977e-13
1.40644e-13
1.0081e-13
8.42193e-14
5.93368e-14
3.66528e-14
2.6159e-14
2.53886e-14
3.08784e-14
1.97429e-14
4.69456e-15
7.6026e-15
7.6026e-15
3.92393e-14
2.50215e-13
1.89931e-12
8.29713e-12
3.58109e-10
6.19688e-08
9.68722e-07
0.000125719
0.00414207
0.0219734
0.0438799
5.9101e-06
7.43623e-06
5.87134e-05
6.54876e-05
0.000461818
0.03569
0.263667
0.310378
5.9101e-06
1.23089e-05
3.1752e-05
4.17489e-05
3.25281e-05
2.63712e-05
2.84002e-05
1.41313e-05
7.45989e-06
6.36446e-06
1.31035e-05
1.23518e-05
9.1707e-06
1.68071e-06
1.30401e-06
4.58187e-05
7.57115e-05
1.6698e-05
1.24531e-05
)
;
    }
    atmosphere
    {
        type            inletOutlet;
        inletValue      uniform 1;
        value           nonuniform List<scalar> 
46
(
1
1
1
1
1
1
1
1
1
1
1
1
1
1
1
1
1
1
0.999999
1
1
1
0.999999
0.999998
0.999998
0.999998
0.999999
0.999999
1
1
1
1
1
1
1
1
1
1
1
1
1
1
1
1
1
1
)
;
    }
    defaultFaces
    {
        type            empty;
    }
}


// ************************************************************************* //
