/*--------------------------------*- C++ -*----------------------------------*\
| =========                 |                                                 |
| \\      /  F ield         | OpenFOAM: The Open Source CFD Toolbox           |
|  \\    /   O peration     | Version:  2.4.0                                 |
|   \\  /    A nd           | Web:      www.OpenFOAM.org                      |
|    \\/     M anipulation  |                                                 |
\*---------------------------------------------------------------------------*/
FoamFile
{
    version     2.0;
    format      ascii;
    class       volScalarField;
    location    "0.8";
    object      alpha.mercury;
}
// * * * * * * * * * * * * * * * * * * * * * * * * * * * * * * * * * * * * * //

dimensions      [0 0 0 0 0 0 0];

internalField   nonuniform List<scalar> 
2268
(
1
1
1
1
1
1
1
1
1
1
1
1
1
1
1
1
1
1
1
1
0.999999
0.999995
0.999991
0.999411
0.999428
0.999725
0.999897
0.99996
0.999991
0.999999
1
1
1
1
1
1
1
1
1
1
1
1
1
0.999999
0.999995
0.999988
0.858478
0.868204
0.889864
0.931514
0.974916
0.996795
0.999856
0.999989
0.999998
0.999999
0.999999
1
1
1
1
1
1
1
1
1
1
0.999998
0.999988
0.0438805
0.0479352
0.0566853
0.0797408
0.14596
0.331817
0.65372
0.955025
0.998654
0.999914
0.999989
0.999998
0.999999
0.999999
0.999999
1
1
1
0.999999
0.999999
0.999999
0.999996
0.999988
4.95704e-06
4.92649e-06
4.92344e-06
4.92606e-06
0.000458681
0.0058617
0.0686055
0.526237
0.958172
0.99816
0.999861
0.99997
0.999985
0.99999
0.999994
0.999993
0.999995
0.999998
0.999998
0.999998
0.999996
0.999992
0.999981
5.73883e-06
5.31335e-06
5.02607e-06
5.03796e-06
5.03819e-06
1.27248e-05
0.00488753
0.1876
0.777717
0.98197
0.998536
0.999817
0.99994
0.999694
0.998485
0.997665
0.998048
0.999275
0.999701
0.999776
0.999506
0.998801
0.996699
6.94595e-06
6.53285e-06
5.9257e-06
5.92524e-06
5.52225e-06
8.68904e-06
0.00236563
0.0946319
0.556434
0.940237
0.9952
0.998663
0.994011
0.965771
0.91692
0.893714
0.898734
0.930743
0.951591
0.959486
0.950462
0.923071
0.866352
4.12336e-06
3.80656e-06
3.70019e-06
4.38582e-06
4.72085e-06
5.46156e-06
0.000497214
0.0299566
0.272474
0.72837
0.920574
0.915864
0.807746
0.608539
0.442258
0.377143
0.361613
0.383526
0.406256
0.422246
0.421799
0.387803
0.336106
0.866373
0.866363
0.866479
0.867385
0.870272
0.88013
0.880647
0.881195
0.881648
0.881746
0.881766
0.88212
0.882699
0.883107
0.883192
0.883257
0.883273
0.883241
0.883182
0.866239
0.552551
0.380609
0.352839
0.370493
0.401799
0.463339
0.541188
0.592524
0.59756
0.581191
0.574874
0.605604
0.669384
0.804232
0.883308
0.883347
0.883246
0.88307
0.58717
0.168454
0.0290536
0.00422892
0.000789256
0.000287932
0.000316195
0.000619844
0.00159576
0.0025778
0.00277572
0.002384
0.00240143
0.0951556
0.410432
0.830434
0.88341
0.883333
0.883014
0.0630824
0.0316501
0.00521976
0.000339648
3.995e-05
4.23632e-05
4.35885e-05
4.37434e-05
4.38667e-05
4.61279e-05
4.66319e-05
4.74192e-05
0.000143023
0.0206933
0.210358
0.744251
0.883452
0.88342
0.880522
0.036188
0.0169134
0.00181036
0.000116541
3.93928e-05
4.77552e-05
5.73125e-05
6.05601e-05
6.87433e-05
8.1315e-05
8.13322e-05
7.93559e-05
0.000338045
0.0308186
0.217846
0.687501
0.882847
0.88328
0.882999
0.0373091
0.0105431
0.000394394
4.54132e-05
3.93961e-05
4.13943e-05
4.60635e-05
4.57571e-05
4.60652e-05
6.74327e-05
7.41857e-05
7.73416e-05
0.000336775
0.0277267
0.212645
0.642801
0.881308
0.879421
0.869845
0.0302478
0.00630869
0.000118208
4.48276e-05
3.94252e-05
3.87399e-05
4.00289e-05
3.92746e-05
3.47757e-05
3.47682e-05
6.62962e-05
8.36623e-05
0.000185236
0.0158309
0.178822
0.617253
0.867879
0.875356
0.736157
0.0404415
0.00275125
6.72483e-05
4.38786e-05
3.92425e-05
3.86195e-05
3.8639e-05
3.92756e-05
3.62332e-05
3.6149e-05
4.07254e-05
5.17373e-05
9.50519e-05
0.00686037
0.114483
0.359659
0.674221
0.778831
0.239082
1.66599e-06
1.6718e-06
1.52448e-06
2.03688e-06
2.5338e-06
2.60179e-06
4.06621e-05
0.00400591
0.0419333
0.125841
0.215302
0.25431
0.198451
0.10061
0.0528052
0.0364026
0.0266766
0.0230241
0.0195424
0.0187483
0.0222522
0.0229289
0.0486912
2.59073e-07
2.36564e-07
2.08506e-07
3.08839e-07
5.63586e-07
5.56129e-07
2.52029e-06
0.00015413
0.00125014
0.00416624
0.00572699
0.00316932
0.00256006
0.000932487
0.000270186
0.000100185
5.8135e-05
5.07513e-05
4.61908e-05
4.12148e-05
3.85824e-05
3.03394e-05
2.15949e-05
2.99494e-08
2.0825e-08
1.30235e-08
1.86702e-08
5.29675e-08
6.44541e-08
1.48552e-07
5.02089e-06
0.000168517
0.000385876
0.00045811
0.000210167
9.16312e-05
3.52541e-05
1.30581e-05
6.0565e-06
3.90713e-06
3.71271e-06
3.98586e-06
4.19651e-06
3.96129e-06
3.99515e-06
9.46883e-06
1.58822e-09
7.26338e-10
3.02831e-10
6.12729e-10
2.92018e-09
4.765e-09
1.23273e-08
2.41027e-08
1.93083e-06
5.9346e-06
4.11558e-06
1.77958e-06
7.05975e-07
4.2539e-07
6.73717e-07
7.85828e-07
8.46846e-07
1.24141e-06
2.48991e-06
3.23941e-06
3.31045e-06
5.43883e-06
2.93636e-05
1.12795e-10
2.22915e-11
3.70938e-11
5.8127e-11
1.25645e-10
2.6588e-10
5.50042e-10
5.64053e-10
1.53049e-09
7.25964e-09
3.83166e-09
2.3273e-09
8.07585e-10
8.19755e-10
4.42425e-09
5.43327e-09
8.6605e-08
7.65399e-07
1.78578e-06
2.16105e-06
3.94947e-06
9.80413e-06
3.06036e-05
1.92111e-11
1.65623e-11
2.40892e-11
2.71544e-11
2.64487e-11
3.25329e-11
3.99626e-11
4.18362e-11
4.78161e-11
3.07813e-11
1.82851e-11
8.38755e-12
1.21525e-12
1.41019e-12
2.66003e-12
1.12235e-09
8.84782e-08
8.25026e-07
1.99361e-06
2.94041e-06
4.04694e-06
7.48122e-06
1.09852e-05
1.16699e-11
9.44449e-12
1.13172e-11
1.08577e-11
9.61649e-12
9.8037e-12
1.05525e-11
9.36801e-12
5.59299e-12
2.75302e-12
1.40646e-12
1.26912e-12
1.28777e-12
1.61928e-12
2.22593e-12
4.31004e-11
7.0881e-09
1.98298e-07
1.30363e-06
2.57438e-06
3.01738e-06
3.0506e-06
6.82877e-07
7.15492e-12
5.33018e-12
4.57367e-12
3.15906e-12
1.61128e-12
1.1034e-12
9.25108e-13
1.73107e-12
2.86627e-12
2.45067e-12
1.54193e-12
8.18406e-13
5.90981e-13
1.03892e-12
1.8426e-12
3.31507e-12
7.2411e-11
1.53518e-08
3.8132e-07
1.365e-06
1.6902e-06
8.05164e-07
1.16442e-08
5.31117e-12
4.00927e-12
2.46672e-12
1.39727e-12
5.13195e-13
1.70686e-13
1.14439e-13
6.08574e-13
1.44183e-12
1.48489e-12
7.00277e-13
1.45421e-13
2.70393e-13
6.99728e-13
1.53153e-12
3.06778e-12
5.34417e-12
2.6664e-10
2.90267e-08
2.3685e-07
3.96634e-07
1.0508e-07
4.06879e-10
4.23127e-12
3.70852e-12
2.21331e-12
8.45041e-13
1.40395e-13
2.67609e-14
3.1435e-14
2.79497e-13
7.91123e-13
8.73732e-13
4.19684e-13
3.69694e-14
2.09457e-14
1.34851e-13
5.65741e-13
1.90037e-12
4.89812e-12
1.05481e-11
5.08385e-10
7.24771e-09
1.66897e-08
5.40932e-09
1.72563e-10
3.08381e-12
3.20033e-12
2.01741e-12
9.74626e-13
3.94425e-13
7.53506e-14
1.80759e-14
1.25119e-13
4.72717e-13
5.76356e-13
2.65891e-13
7.95064e-14
2.75e-14
1.05451e-13
4.99461e-13
1.80512e-12
5.08874e-12
1.09759e-11
1.89261e-11
4.88216e-11
1.54877e-10
1.61484e-10
1.40652e-10
2.00951e-12
2.40238e-12
1.3734e-12
4.75289e-13
6.71004e-14
8.48939e-15
3.65241e-15
4.79399e-14
2.84911e-13
3.64495e-13
1.56394e-13
3.97512e-14
9.01779e-15
3.70507e-14
2.90635e-13
1.44217e-12
4.92996e-12
1.2124e-11
2.22988e-11
3.07225e-11
3.08134e-11
3.92793e-11
1.22602e-10
1.21369e-12
1.48615e-12
7.54591e-13
2.37216e-13
4.57593e-14
3.99108e-15
4.36615e-15
2.58321e-14
1.68614e-13
2.07148e-13
8.98438e-14
2.22857e-14
3.2175e-15
2.08937e-14
1.83185e-13
1.00991e-12
3.94202e-12
1.12525e-11
2.32228e-11
3.50226e-11
3.69483e-11
3.86112e-11
1.04326e-10
6.94726e-13
7.28457e-13
3.26221e-13
8.85153e-14
1.47084e-14
1.24596e-15
1.67827e-15
1.30418e-14
8.26383e-14
9.94713e-14
4.13422e-14
8.2784e-15
1.18419e-15
8.5956e-15
8.20176e-14
5.26082e-13
2.40195e-12
8.03953e-12
1.9668e-11
3.52081e-11
4.25574e-11
4.28976e-11
7.37638e-11
3.60399e-13
2.93923e-13
1.16827e-13
2.87997e-14
4.3931e-15
3.51994e-16
5.46299e-16
5.26862e-15
3.09764e-14
3.91628e-14
1.53755e-14
2.63015e-15
4.16464e-16
3.14253e-15
3.06845e-14
2.13985e-13
1.10323e-12
4.25414e-12
1.22111e-11
2.7382e-11
4.259e-11
4.58829e-11
6.26533e-11
1.57344e-13
1.00682e-13
3.51909e-14
7.91393e-15
1.11474e-15
8.55738e-17
1.36601e-16
1.62568e-15
9.37461e-15
1.29551e-14
5.17502e-15
8.52712e-16
1.16635e-16
8.07779e-16
8.47813e-15
6.51097e-14
3.77528e-13
1.66583e-12
5.6763e-12
1.48476e-11
3.24264e-11
4.09876e-11
5.09653e-11
5.61005e-14
2.90838e-14
8.94367e-15
1.83681e-15
2.40302e-16
1.78368e-17
3.0494e-17
4.1137e-16
2.45187e-15
3.72755e-15
1.59271e-15
2.68631e-16
2.90327e-17
1.45083e-16
1.65625e-15
1.42723e-14
9.50811e-14
4.98336e-13
2.09433e-12
6.58963e-12
1.5243e-11
2.3654e-11
2.91262e-11
1.66147e-14
7.16285e-15
1.96677e-15
3.7225e-16
4.57452e-17
3.32071e-18
6.30895e-18
9.35664e-17
5.73908e-16
9.5296e-16
4.43758e-16
8.03983e-17
8.27952e-18
2.41262e-17
2.81646e-16
2.64225e-15
2.01705e-14
1.23605e-13
6.16844e-13
2.30371e-12
6.21948e-12
9.84655e-12
1.22872e-11
4.20747e-15
1.53317e-15
3.82054e-16
6.73281e-17
7.85011e-18
5.59518e-19
1.20178e-18
1.92763e-17
1.22178e-16
2.18717e-16
1.10368e-16
2.16114e-17
2.32456e-18
3.92218e-18
4.54828e-17
4.51954e-16
3.81926e-15
2.64184e-14
1.50107e-13
6.38491e-13
1.96213e-12
3.50629e-12
4.48564e-12
9.3342e-16
2.9009e-16
6.63701e-17
1.09639e-17
1.21883e-18
8.52532e-20
2.10715e-19
3.62386e-18
2.37218e-17
4.51999e-17
2.44192e-17
5.09981e-18
5.83378e-19
6.36843e-19
7.14393e-18
7.35195e-17
6.63331e-16
4.97299e-15
3.09614e-14
1.44883e-13
4.88265e-13
9.42807e-13
1.27117e-12
1.84285e-16
4.91978e-17
1.04155e-17
1.62141e-18
1.72795e-19
1.19243e-20
3.39852e-20
6.23869e-19
4.20856e-18
8.44333e-18
4.82834e-18
1.06153e-18
1.28489e-19
1.03545e-19
1.10663e-18
1.15435e-17
1.07313e-16
8.41038e-16
5.55851e-15
2.78424e-14
9.98094e-14
2.05752e-13
2.97998e-13
3.27491e-17
7.56663e-18
1.49142e-18
2.1993e-19
2.25894e-20
1.54453e-21
5.03653e-21
9.85046e-20
6.83919e-19
1.43532e-18
8.61963e-19
1.98956e-19
2.56398e-20
1.67259e-20
1.68042e-19
1.74511e-18
1.63669e-17
1.31011e-16
8.93423e-16
4.67098e-15
1.74184e-14
3.83578e-14
6.06829e-14
5.2876e-18
1.06405e-18
1.95916e-19
2.74646e-20
2.729e-21
1.85295e-22
6.84537e-22
1.42648e-20
1.01835e-19
2.2284e-19
1.39562e-19
3.36809e-20
4.62699e-21
2.64722e-21
2.47707e-20
2.52832e-19
2.36499e-18
1.911e-17
1.31851e-16
7.05625e-16
2.69637e-15
6.35029e-15
1.11423e-14
7.80535e-19
1.37542e-19
2.37101e-20
3.1672e-21
3.04982e-22
2.05474e-23
8.54125e-23
1.8957e-21
1.38967e-20
3.16147e-20
2.05109e-20
5.12896e-21
7.43509e-22
4.02509e-22
3.50522e-21
3.50179e-20
3.25321e-19
2.628e-18
1.8137e-17
9.83128e-17
3.81079e-16
9.54842e-16
1.87151e-15
1.05958e-19
1.64448e-20
2.65959e-21
3.39313e-22
3.17246e-23
2.1215e-24
9.80265e-24
2.31475e-22
1.73937e-21
4.10331e-21
2.74189e-21
7.05738e-22
1.07279e-22
5.81378e-23
4.71219e-22
4.57993e-21
4.20458e-20
3.38637e-19
2.33693e-18
1.2772e-17
4.98404e-17
1.31659e-16
2.85941e-16
1.32715e-20
1.82296e-21
2.771e-22
3.38286e-23
3.07399e-24
2.03802e-25
1.03684e-24
2.60318e-23
2.00248e-22
4.88053e-22
3.33371e-22
8.76752e-23
1.38888e-23
7.93235e-24
5.98703e-23
5.6049e-22
5.06633e-21
4.06984e-20
2.80308e-19
1.5372e-18
6.01489e-18
1.66024e-17
3.90332e-17
1.53949e-21
1.87946e-22
2.68871e-23
3.1466e-24
2.78286e-25
1.82892e-26
1.01288e-25
2.70155e-24
2.1242e-23
5.32951e-23
3.69555e-23
9.8644e-24
1.61843e-24
1.0208e-24
7.20028e-24
6.40207e-23
5.65095e-22
4.49592e-21
3.08714e-20
1.69632e-19
6.65548e-19
1.89083e-18
4.6786e-18
1.6589e-22
1.8064e-23
2.43406e-24
2.73269e-25
2.35168e-26
1.52893e-27
9.16085e-27
2.59249e-25
2.07997e-24
5.35773e-24
3.75159e-24
1.01027e-24
1.71458e-25
1.23928e-25
8.16773e-25
6.82327e-24
5.82179e-23
4.55906e-22
3.11455e-21
1.70385e-20
6.64557e-20
1.9146e-19
4.89304e-19
1.6652e-23
1.62301e-24
2.06188e-25
2.22312e-26
1.86226e-27
1.19636e-28
7.68959e-28
2.30548e-26
1.884e-25
4.96528e-25
3.4906e-25
9.42177e-26
1.65594e-26
1.42248e-26
8.81725e-26
6.84195e-25
5.55521e-24
4.23258e-23
2.84951e-22
1.54358e-21
5.96094e-21
1.71788e-20
4.4431e-20
1.56051e-24
1.36458e-25
1.63533e-26
1.69404e-27
1.38038e-28
8.74042e-30
6.00565e-29
1.90458e-27
1.58287e-26
4.25818e-26
2.99124e-26
8.04912e-27
1.47478e-27
1.54805e-27
9.07308e-27
6.47578e-26
4.93106e-25
3.60806e-24
2.37448e-23
1.26369e-22
4.78105e-22
1.36035e-21
3.51307e-21
1.36897e-25
1.07684e-26
1.218e-27
1.21308e-28
9.61447e-30
5.99077e-31
4.37485e-30
1.46469e-28
1.23625e-27
3.38649e-27
2.36523e-27
6.31278e-28
1.21989e-28
1.60025e-28
8.94582e-28
5.85708e-27
4.11746e-26
2.84448e-25
1.80402e-24
9.33733e-24
3.43359e-23
9.54019e-23
2.4314e-22
1.12646e-26
7.98358e-28
8.52574e-29
8.1666e-30
6.29133e-31
3.84963e-32
2.98148e-31
1.0518e-29
9.00412e-29
2.50614e-28
1.7335e-28
4.56999e-29
9.49971e-30
1.5746e-29
8.46843e-29
5.09196e-28
3.26089e-27
2.09072e-26
1.25903e-25
6.2664e-25
2.21674e-24
5.9546e-24
1.48821e-23
8.71635e-28
5.57523e-29
5.62227e-30
5.18144e-31
3.87805e-32
2.32629e-33
1.90604e-32
7.0711e-31
6.13262e-30
1.73093e-29
1.18162e-29
3.06602e-30
7.05567e-31
1.47706e-30
7.70655e-30
4.28215e-29
2.47891e-28
1.44856e-27
8.13522e-27
3.84298e-26
1.29569e-25
3.34301e-25
8.24961e-25
6.35497e-29
3.67327e-30
3.49851e-31
3.10308e-32
2.25516e-33
1.32393e-34
1.14647e-33
4.46458e-32
3.91909e-31
1.11965e-30
7.52076e-31
1.91681e-31
5.07173e-32
1.32213e-31
6.73828e-31
3.49241e-30
1.82568e-29
9.58074e-29
4.92391e-28
2.1759e-27
6.93612e-27
1.73156e-26
4.57076e-26
4.37492e-30
2.28818e-31
2.05772e-32
1.75679e-33
1.23881e-34
7.10464e-36
6.50569e-35
2.65439e-33
2.35681e-32
6.80784e-32
4.48943e-32
1.12403e-32
3.57849e-33
1.13081e-32
5.6546e-32
2.76089e-31
1.3106e-30
6.13009e-30
2.83296e-29
1.15415e-28
3.48743e-28
9.18382e-28
3.81462e-27
2.84937e-31
1.35111e-32
1.14647e-33
9.41847e-35
6.43627e-36
3.59721e-37
3.49165e-36
1.49008e-34
1.33747e-33
3.90366e-33
2.52261e-33
6.2186e-34
2.5011e-34
9.25887e-34
4.55715e-33
2.11607e-32
9.21292e-32
3.83957e-31
1.57586e-30
5.88466e-30
1.79448e-29
7.28774e-29
7.37576e-28
1.75884e-32
7.57891e-34
6.06149e-35
4.78601e-36
3.16219e-37
1.71593e-38
1.77816e-37
7.92275e-36
7.18466e-35
2.11708e-34
1.33793e-34
3.26216e-35
1.7369e-35
7.26917e-35
3.52945e-34
1.57166e-33
6.35813e-33
2.38446e-32
8.69541e-32
3.06987e-31
1.24584e-30
1.21847e-29
2.0731e-28
1.03125e-33
4.04751e-35
3.04695e-36
2.30594e-37
1.4668e-38
7.68202e-40
8.63011e-39
4.00612e-37
3.66696e-36
1.08952e-35
6.71571e-36
1.63248e-36
1.19647e-36
5.47272e-36
2.62491e-35
1.12901e-34
4.3046e-34
1.48002e-33
4.93842e-33
1.93533e-32
1.60268e-31
2.8576e-30
5.82431e-29
5.76344e-35
2.06055e-36
1.46065e-37
1.05519e-38
6.41771e-40
3.2144e-41
4.01415e-40
1.93639e-38
1.78623e-37
5.33959e-37
3.19402e-37
7.82332e-38
8.12914e-38
3.95579e-37
1.87747e-36
7.84791e-36
2.85495e-35
9.22093e-35
3.06827e-34
1.85825e-33
3.02878e-32
6.79084e-31
1.51667e-29
3.09007e-36
1.006e-37
6.72815e-39
4.63518e-40
2.68516e-41
1.29644e-42
1.89046e-41
9.07468e-40
8.36967e-39
2.50665e-38
1.44762e-38
3.64208e-39
5.41303e-39
2.73694e-38
1.28433e-37
5.24176e-37
1.84339e-36
5.81225e-36
2.31053e-35
2.65113e-34
6.11057e-33
1.52381e-31
3.66864e-30
1.60036e-37
4.76503e-39
3.03163e-40
1.99106e-41
1.09794e-42
5.26852e-44
9.3825e-43
4.18391e-41
3.80189e-40
1.13103e-39
6.29842e-40
1.7081e-40
3.56876e-40
1.82969e-39
8.4349e-39
3.35675e-38
1.1541e-37
3.80801e-37
2.35651e-36
4.55305e-35
1.21732e-33
3.26449e-32
8.43868e-31
8.05409e-39
2.21755e-40
1.34355e-41
8.41111e-43
4.41281e-44
2.20046e-45
4.82538e-44
1.90682e-42
1.68539e-41
4.9398e-41
2.65305e-41
8.32121e-42
2.3562e-41
1.20647e-40
5.45851e-40
2.17031e-39
8.80189e-39
6.83984e-38
1.29209e-36
3.15551e-35
7.99605e-34
2.08126e-32
5.74195e-31
0.145872
0.170552
0.169205
0.156144
2.28776e-05
4.15772e-05
5.25791e-05
3.87516e-05
2.37623e-05
2.8437e-05
3.17606e-05
3.95503e-05
5.85931e-05
6.12108e-05
6.13414e-05
6.14003e-05
4.31676e-05
5.45765e-05
6.05722e-05
6.13022e-05
8.96586e-06
1.65798e-05
2.32502e-05
2.37946e-05
1.75113e-07
1.32856e-07
6.15013e-08
7.67987e-07
4.33934e-10
1.57321e-10
9.63131e-11
4.12489e-08
1.32683e-10
1.28882e-10
9.59849e-11
1.02302e-10
1.35325e-10
1.19973e-10
9.56336e-11
7.78923e-11
1.40765e-10
1.21854e-10
8.67543e-11
6.7473e-11
1.40541e-10
1.06524e-10
7.11811e-11
5.34511e-11
1.37759e-10
1.17107e-10
9.73334e-11
7.67932e-11
1.06688e-10
1.03772e-10
9.52431e-11
8.55611e-11
8.26342e-11
8.27491e-11
7.75078e-11
7.03611e-11
5.74598e-11
5.555e-11
5.0844e-11
4.19682e-11
2.8775e-11
2.78444e-11
2.44424e-11
1.99038e-11
1.27101e-11
1.19766e-11
1.03154e-11
8.30316e-12
4.48559e-12
4.15347e-12
3.59481e-12
3.04353e-12
1.27818e-12
1.20416e-12
1.10954e-12
1.07632e-12
3.0784e-13
3.08415e-13
3.22239e-13
3.7527e-13
6.56677e-14
7.28281e-14
8.87936e-14
1.21667e-13
1.28042e-14
1.59816e-14
2.24428e-14
3.44856e-14
2.28843e-15
3.18644e-15
4.98591e-15
8.24945e-15
3.68991e-16
5.59999e-16
9.44946e-16
1.64145e-15
5.23591e-17
8.45766e-17
1.50425e-16
2.722e-16
6.45431e-18
1.09178e-17
2.02036e-17
3.80188e-17
6.86552e-19
1.20324e-18
2.3073e-18
4.53901e-18
6.30378e-20
1.14004e-19
2.27108e-19
4.73425e-19
5.01869e-21
9.38612e-21
1.96225e-20
4.39906e-20
3.49814e-22
6.83016e-22
1.52297e-21
3.73385e-21
2.17367e-23
4.54292e-23
1.12278e-22
3.15015e-22
1.28081e-24
3.19821e-24
1.03868e-23
4.12734e-23
9.80694e-26
4.23406e-25
2.37925e-24
1.48611e-23
1.86815e-26
1.39703e-25
1.07341e-24
8.25293e-24
6.4749e-27
5.92836e-26
5.22183e-25
4.53207e-24
2.36503e-27
2.4061e-26
2.3421e-25
2.24425e-24
7.99722e-28
8.86603e-27
9.4274e-26
9.84291e-25
2.46009e-28
2.95628e-27
3.42386e-26
3.87942e-25
6.97999e-29
9.07677e-28
1.14806e-26
1.42356e-25
1.91328e-29
2.71729e-28
3.79998e-27
5.25333e-26
1.72833e-29
2.63497e-28
3.95254e-27
5.75296e-26
0.0428839
0.00041793
4.84002e-05
4.85016e-05
4.74037e-05
4.16627e-05
3.92304e-05
3.81333e-05
3.48384e-05
3.10793e-05
3.68976e-05
4.44703e-05
9.02989e-05
0.0030789
0.0289577
0.0548116
0.108971
0.099608
0.0317024
3.63895e-05
3.65289e-05
4.54759e-05
4.77732e-05
4.32154e-05
4.12349e-05
4.12677e-05
4.07591e-05
3.31027e-05
3.09765e-05
3.09659e-05
3.64493e-05
5.37202e-05
0.00049781
0.00253365
0.00382306
0.00486393
0.00350837
0.00694764
5.14582e-05
5.2409e-05
5.03904e-05
3.10839e-05
2.51244e-05
2.65016e-05
2.95051e-05
2.61357e-05
3.48475e-05
3.48586e-05
3.38459e-05
3.69987e-05
4.41467e-05
6.87618e-05
0.000150601
0.0001707
0.00228842
0.00131065
0.00622483
6.15259e-05
4.89622e-05
1.23713e-05
5.8791e-06
5.92514e-06
6.55547e-06
7.15166e-06
1.04359e-05
2.09345e-05
3.45416e-05
3.62793e-05
3.71477e-05
4.21187e-05
5.01995e-05
5.90091e-05
5.5335e-05
0.000472601
0.000276933
0.00769248
4.45781e-05
4.95031e-06
4.64244e-07
4.54613e-07
4.542e-07
4.54167e-07
4.54135e-07
1.12175e-06
8.96877e-06
2.82611e-05
3.31565e-05
3.58991e-05
3.91377e-05
4.46176e-05
5.90506e-05
5.53353e-05
9.22323e-05
0.000181957
0.0114873
1.60489e-05
6.94812e-06
8.35687e-06
1.94422e-06
4.54469e-07
4.54215e-07
4.54407e-07
4.54451e-07
3.57206e-06
1.95165e-05
2.89847e-05
3.20063e-05
3.42218e-05
4.14705e-05
5.84043e-05
5.32388e-05
4.75436e-05
0.000767038
0.0161248
1.88688e-05
5.54974e-05
5.22677e-05
1.7531e-05
1.27905e-06
4.54659e-07
4.54532e-07
4.54556e-07
1.96558e-06
1.53064e-05
2.73596e-05
3.37882e-05
3.27528e-05
3.71913e-05
4.87938e-05
5.04533e-05
4.75602e-05
0.00147381
0.020506
1.4416e-05
5.87107e-05
6.57592e-05
5.94226e-05
1.62489e-05
1.1506e-06
6.45337e-07
2.60239e-06
6.03359e-06
1.52877e-05
2.87628e-05
3.37811e-05
3.27515e-05
3.29285e-05
3.34751e-05
3.95362e-05
8.35174e-05
0.00194263
0.0227872
1.1483e-06
2.01901e-05
6.57879e-05
6.77353e-05
6.35881e-05
2.61046e-05
2.03181e-05
4.96618e-05
6.47182e-05
5.12642e-05
3.46348e-05
3.32387e-05
3.33279e-05
3.34815e-05
4.17072e-05
4.54252e-05
0.000454791
0.00501607
0.0229938
1.38816e-08
9.95789e-07
1.77036e-05
6.7798e-05
7.9382e-05
0.000106417
0.000117535
0.000154946
0.000184892
0.000185032
0.000126061
5.23577e-05
3.58504e-05
3.77348e-05
4.83305e-05
0.000178668
0.00116159
0.00468391
0.0172468
9.19481e-11
6.82293e-09
4.48214e-07
1.03586e-05
6.29656e-05
0.000116493
0.000159802
0.00018357
0.000216821
0.000236659
0.000236667
0.000173419
4.92054e-05
4.31294e-05
0.000114979
0.000653737
0.00156182
0.00422387
0.0100382
4.526e-11
5.6815e-11
3.89438e-09
3.26249e-07
6.22056e-06
2.91737e-05
5.21459e-05
6.25144e-05
7.9053e-05
0.000152632
0.000219975
0.000275515
0.000214314
0.000274318
0.000623903
0.00168363
0.00286777
0.00571535
0.00975889
4.52935e-11
3.89854e-11
1.09131e-10
5.12911e-09
1.63019e-07
1.17551e-06
3.21142e-06
4.49461e-06
5.88652e-06
1.39086e-05
5.63803e-05
0.000275563
0.00067022
0.000761791
0.00117418
0.00226338
0.00365205
0.00701296
0.00978095
5.40909e-11
3.89658e-11
7.21245e-11
1.88544e-10
4.18573e-09
2.32077e-08
4.30959e-08
5.86238e-08
7.12054e-08
1.46469e-07
1.83596e-06
1.91896e-05
0.000101558
0.000441765
0.000809583
0.00140063
0.00259422
0.00344872
0.00429007
4.4201e-11
3.11925e-11
6.55106e-11
1.86846e-10
2.4093e-10
3.0943e-09
1.92659e-08
3.44502e-08
4.49809e-08
4.46618e-08
5.62197e-08
1.38785e-07
1.79604e-06
1.87655e-05
8.7976e-05
0.000180612
0.000189248
0.00013129
0.000100823
2.51783e-11
2.20804e-11
5.7739e-11
1.90417e-10
2.31192e-10
2.67314e-10
4.6051e-09
2.8441e-08
5.18429e-08
7.78445e-08
6.84959e-08
4.19176e-08
6.69082e-08
3.41242e-07
8.70266e-07
1.23288e-06
1.10698e-06
1.74214e-06
2.12022e-06
1.3077e-11
1.57097e-11
6.08779e-11
1.3262e-10
1.97364e-10
2.16692e-10
2.5432e-10
1.00862e-09
4.0445e-08
7.77386e-08
7.76812e-08
3.1737e-08
4.69173e-09
2.68061e-09
2.65226e-09
1.89658e-09
5.35748e-10
8.13472e-09
2.19733e-08
6.53615e-12
1.35942e-11
3.8133e-11
8.28345e-11
1.28646e-10
1.6757e-10
2.02709e-10
2.14889e-10
4.37425e-10
5.6135e-08
7.36077e-08
6.51427e-09
1.33821e-09
1.30321e-09
1.30125e-09
6.41875e-10
2.46677e-11
1.49612e-11
3.31958e-11
3.81691e-12
8.93629e-12
1.93204e-11
4.48612e-11
7.63477e-11
1.12055e-10
1.56684e-10
2.06238e-10
2.38024e-10
2.87445e-09
2.25428e-08
4.92814e-08
1.42996e-08
2.04378e-09
3.61185e-09
1.28506e-09
2.50744e-11
1.49579e-11
1.71026e-11
2.15655e-12
4.92389e-12
1.0352e-11
2.07804e-11
3.6967e-11
6.22314e-11
1.03638e-10
1.70108e-10
2.58966e-10
4.65628e-10
3.99054e-09
2.38152e-08
1.38658e-08
4.48783e-09
4.59966e-09
1.44166e-09
8.70835e-11
1.57664e-11
2.33487e-11
1.03274e-12
2.28448e-12
4.57442e-12
8.58215e-12
1.55738e-11
2.77365e-11
5.07767e-11
9.6246e-11
1.89606e-10
3.6718e-10
9.06665e-10
7.42843e-09
7.09372e-09
4.72207e-09
4.62845e-09
2.81234e-09
6.0688e-10
7.01117e-11
4.62168e-11
3.99608e-13
8.63666e-13
1.67572e-12
3.09933e-12
5.98216e-12
1.05233e-11
2.13056e-11
4.70547e-11
1.14442e-10
2.88743e-10
6.79072e-10
2.14549e-09
3.00791e-09
2.96164e-09
4.20524e-09
3.77051e-09
1.40067e-09
2.25667e-10
8.28386e-11
1.24865e-13
2.6693e-13
5.14361e-13
9.96437e-13
2.1273e-12
4.35232e-12
1.02084e-11
2.70679e-11
8.07689e-11
2.558e-10
7.01744e-10
1.44723e-09
2.08991e-09
2.22243e-09
3.80497e-09
3.93315e-09
1.7889e-09
4.23982e-10
1.45047e-10
3.16691e-14
6.78724e-14
1.34517e-13
2.86973e-13
6.75715e-13
1.62095e-12
4.43962e-12
1.61207e-11
6.57683e-11
2.74249e-10
8.64387e-10
1.76476e-09
2.51123e-09
2.63613e-09
3.90134e-09
3.98305e-09
1.83467e-09
7.14907e-10
1.84604e-10
6.62079e-15
1.45066e-14
3.05699e-14
7.26087e-14
1.82095e-13
5.10164e-13
1.92674e-12
9.94435e-12
5.81883e-11
3.42193e-10
1.30435e-09
2.7671e-09
3.85475e-09
3.83979e-09
4.4767e-09
4.16909e-09
1.95592e-09
8.36982e-10
2.45358e-10
1.16313e-15
2.66025e-15
6.05245e-15
1.5581e-14
4.03595e-14
1.35013e-13
7.57734e-13
5.90185e-12
5.20737e-11
3.3768e-10
1.62437e-09
4.58194e-09
6.40043e-09
6.40788e-09
5.9079e-09
4.7473e-09
1.89051e-09
8.97015e-10
2.98432e-10
1.74376e-16
4.22773e-16
1.02977e-15
2.72938e-15
7.30596e-15
2.8345e-14
2.44342e-13
3.28467e-12
3.18861e-11
2.61858e-10
1.98722e-09
6.8386e-09
9.40832e-09
9.25138e-09
7.84558e-09
4.62382e-09
1.57742e-09
1.00582e-09
3.25371e-10
2.27328e-17
5.82918e-17
1.4731e-16
3.82048e-16
1.07998e-15
5.12849e-15
7.10638e-14
1.60764e-12
1.86703e-11
2.36457e-10
1.88321e-09
7.67303e-09
1.02772e-08
1.04132e-08
7.88512e-09
3.5416e-09
1.73764e-09
1.07961e-09
2.96541e-10
2.59654e-18
6.9163e-18
1.74262e-17
4.37926e-17
1.35615e-16
8.26449e-16
1.43262e-14
4.11689e-13
5.72982e-12
1.30657e-10
1.17733e-09
5.74831e-09
1.01588e-08
1.04129e-08
7.61458e-09
4.80795e-09
2.56905e-09
1.02871e-09
1.98171e-10
2.61014e-19
7.04008e-19
1.71888e-18
4.48976e-18
1.66247e-17
1.22924e-16
1.9182e-15
4.56149e-14
1.28329e-12
3.48531e-11
4.81689e-10
3.21309e-09
8.58945e-09
1.02711e-08
1.02786e-08
8.98625e-09
4.14468e-09
7.53592e-10
5.80903e-11
2.34765e-20
6.51077e-20
1.77094e-19
6.89428e-19
3.83694e-18
2.81409e-17
3.00305e-16
5.83895e-15
1.84418e-13
6.22545e-12
1.18682e-10
1.22003e-09
5.00726e-09
8.58081e-09
9.77604e-09
8.01041e-09
3.86113e-09
5.82842e-10
3.34914e-11
2.20662e-21
8.72327e-21
5.00144e-20
3.80701e-19
2.96412e-18
2.19812e-17
1.575e-16
1.35248e-15
2.47027e-14
8.62359e-13
1.6013e-11
2.47078e-10
1.56566e-09
3.54359e-09
3.99033e-09
2.84344e-09
1.08609e-09
2.85619e-10
2.49953e-11
4.26808e-22
3.71813e-21
3.75019e-20
3.71222e-19
3.42623e-18
2.91446e-17
2.27042e-16
1.62249e-15
1.13127e-14
1.2087e-13
2.54491e-12
2.70841e-11
2.3383e-10
6.31496e-10
7.77169e-10
5.70021e-10
2.52753e-10
6.06122e-11
1.38635e-11
2.10237e-22
2.63963e-21
3.26421e-20
3.80418e-19
4.13142e-18
4.14626e-17
3.77455e-16
3.02138e-15
2.0411e-14
1.1361e-13
5.58788e-13
2.01047e-12
9.06133e-12
4.26593e-11
7.15776e-11
7.92726e-11
6.81308e-11
2.68317e-11
9.6378e-12
1.26687e-22
1.87892e-21
2.70541e-20
3.68566e-19
4.68014e-18
5.38687e-17
5.40683e-16
4.54381e-15
3.08349e-14
1.63701e-13
6.48467e-13
1.98855e-12
5.60704e-12
1.36203e-11
2.67661e-11
4.5168e-11
3.32934e-11
1.63195e-11
5.70753e-12
7.0731e-23
1.1702e-21
1.85273e-20
2.72536e-19
3.65126e-18
4.32992e-17
4.40466e-16
3.72661e-15
2.54183e-14
1.36667e-13
5.48327e-13
1.83808e-12
6.19765e-12
1.78754e-11
3.44044e-11
3.3758e-11
1.72168e-11
7.88543e-12
2.6011e-12
3.45113e-23
6.11128e-22
1.01001e-20
1.50828e-19
1.99966e-18
2.30731e-17
2.27455e-16
1.88047e-15
1.27447e-14
7.05097e-14
2.98076e-13
1.1396e-12
5.14535e-12
1.64091e-11
2.19632e-11
1.34125e-11
6.16427e-12
2.64778e-12
8.74256e-13
1.46016e-23
2.6959e-22
4.52907e-21
6.69556e-20
8.58817e-19
9.4302e-18
8.77403e-17
6.84677e-16
4.41222e-15
2.36371e-14
1.00478e-13
4.20956e-13
2.17517e-12
5.68997e-12
5.13057e-12
2.99003e-12
1.3879e-12
5.10796e-13
2.65418e-13
5.5183e-24
1.06265e-22
1.82869e-21
2.72099e-20
3.44923e-19
3.67736e-18
3.26206e-17
2.39035e-16
1.43029e-15
7.02692e-15
2.7857e-14
1.00142e-13
4.17167e-13
6.84637e-13
5.38693e-13
3.0973e-13
1.52034e-13
6.95455e-14
1.17212e-13
1.98991e-24
4.15566e-23
7.65613e-22
1.21132e-20
1.63044e-19
1.81491e-18
1.61991e-17
1.13947e-16
6.26424e-16
2.65845e-15
8.92929e-15
2.26811e-14
5.90637e-14
5.53301e-14
4.84325e-14
3.11152e-14
2.17793e-14
1.7192e-14
5.8294e-14
7.60034e-25
1.92038e-23
4.46739e-22
8.76987e-21
1.39459e-19
1.65754e-18
1.41028e-17
8.80829e-17
4.18706e-16
1.47824e-15
4.13836e-15
7.36569e-15
1.30036e-14
1.03061e-14
9.7224e-15
6.71542e-15
5.47554e-15
5.12769e-15
2.34636e-14
8.05709e-25
2.21192e-23
4.78524e-22
7.85118e-21
9.82244e-20
9.47564e-19
7.01891e-18
3.91978e-17
1.67373e-16
5.15216e-16
1.26783e-15
1.76911e-15
2.63866e-15
1.80574e-15
1.51282e-15
1.03342e-15
9.02922e-16
9.0781e-16
5.38483e-15
)
;

boundaryField
{
    leftWall
    {
        type            zeroGradient;
    }
    rightWall
    {
        type            zeroGradient;
    }
    lowerWall
    {
        type            zeroGradient;
    }
    atmosphere
    {
        type            inletOutlet;
        inletValue      uniform 0;
        value           nonuniform List<scalar> 
46
(
8.05409e-39
2.21755e-40
1.34355e-41
8.41111e-43
4.41281e-44
2.20046e-45
4.82538e-44
1.90682e-42
1.68539e-41
4.9398e-41
2.65305e-41
8.32121e-42
2.3562e-41
1.20647e-40
5.45851e-40
2.17031e-39
8.80189e-39
6.83984e-38
1.29209e-36
3.15551e-35
7.99605e-34
2.08126e-32
5.74195e-31
1.72833e-29
2.63497e-28
3.95254e-27
5.75296e-26
8.05709e-25
0
0
0
0
0
0
0
0
0
0
0
0
0
0
0
0
0
0
)
;
    }
    defaultFaces
    {
        type            empty;
    }
}


// ************************************************************************* //
