/*--------------------------------*- C++ -*----------------------------------*\
| =========                 |                                                 |
| \\      /  F ield         | OpenFOAM: The Open Source CFD Toolbox           |
|  \\    /   O peration     | Version:  2.4.0                                 |
|   \\  /    A nd           | Web:      www.OpenFOAM.org                      |
|    \\/     M anipulation  |                                                 |
\*---------------------------------------------------------------------------*/
FoamFile
{
    version     2.0;
    format      ascii;
    class       volScalarField;
    location    "0.8";
    object      p;
}
// * * * * * * * * * * * * * * * * * * * * * * * * * * * * * * * * * * * * * //

dimensions      [1 -1 -2 0 0 0 0];

internalField   nonuniform List<scalar> 
2268
(
3001.88
3025.2
3065.14
3163.22
3299.72
3606.4
4092.34
4672.65
5303.29
5729.72
6010.55
6192.38
6295.55
6331.06
6319.86
6290.27
6263.04
6249.84
6257.02
6285.61
6312.8
6334.95
6382.3
2396.52
2429.21
2466.35
2541.97
2630.63
2850.58
3254.21
3845.14
4563.14
5028.03
5288.08
5433.76
5516.31
5539.49
5519.18
5487.19
5461.34
5447.27
5456.63
5484.18
5513.77
5535.21
5580.34
1247.7
1259.21
1284.08
1336.42
1496.13
1881.43
2496.92
3063.12
3765.76
4183.15
4464.53
4644.47
4738.02
4754.5
4722.34
4685.84
4657.8
4643.03
4653.5
4681.14
4712.94
4738.49
4784.65
900.576
902.621
918.337
948.714
999.945
1084.87
1229.73
2134.3
3052.2
3528.67
3783.78
3892.49
3977.34
3972.94
3924.68
3877.33
3842.8
3827.32
3844.94
3874.6
3907.64
3944.08
3993.28
1073.06
1077.21
1080.09
1082.77
1078.03
1076.71
1060.82
1245.15
2263.75
2807.57
3088.64
3223.81
3242.48
3201.37
3128.24
3064.43
3022.31
2992.41
2992.88
3023.57
3066.98
3122.78
3200.43
776.572
781.813
806.113
841.635
890.678
962.971
1040.54
991.183
1520.92
2102.68
2251.76
2449.93
2489.56
2422.5
2333.91
2272.79
2241.39
2248.69
2277.19
2316.71
2362.84
2386.04
2407.14
937
938.127
931.197
926.724
918.73
914.276
942.317
906.27
989.037
1543.75
1726.69
1774.92
1727.08
1585.14
1410.46
1318.7
1272.96
1276.96
1317.76
1372.9
1423.67
1464.05
1562.61
671.178
677.136
709.359
745.069
786.182
824.354
839.929
791.459
600.326
699.5
781.395
889.637
911.482
826.216
671.735
588.118
533.301
523.576
536.278
573.376
628.729
706.342
824.832
2824.95
2786.08
2291.78
1853.69
1703.56
1674.99
1741.44
1870.97
2003.89
2104.51
2206.18
2329.13
2524.37
2887.92
3602.63
4898.42
6127.2
6130.95
6054.98
1615.85
1421.87
1009.59
788.454
697.599
640.86
658.95
745.58
854.668
949.876
1046.29
1148.39
1266.41
1439.94
2038.81
3333
4689.18
4728.44
4739.74
1430.18
981.865
896.732
834.864
801.603
814.937
833.003
849.871
911.701
999.773
1092.03
1190.15
1285.13
1363.07
1660.36
2969.37
4289.53
4579.3
4529.64
919.015
872.347
815.536
756.218
711.962
683.398
696.588
764.628
842.331
930.842
1022.85
1131.31
1259.93
1340.54
1435.22
2166.73
3401.14
3630.05
3476.79
932.182
798.345
708.739
666.669
631.25
614.166
632.841
682.135
750.283
836.58
925.326
1026.19
1138.99
1231.99
1332.61
1858.17
2705.19
2911.52
3049.54
752.846
690.948
636.922
613.572
582.934
571.679
598.36
658.812
735.386
816.235
897.404
989.959
1107.68
1146.08
1161.57
1425.73
2218.25
2305.1
2323.57
694.387
639.027
587.766
559.928
520.705
500.602
509.408
560.658
636.01
734.47
826.307
912.679
1010.92
1051.27
992.136
1050.6
1651.58
1750.96
1680.06
668.426
615.038
553.152
521.821
487.085
470.918
483.936
520.869
587.897
687.61
775.231
846.774
920.936
961.136
838.596
819.86
1151.66
1183.48
1203.73
838.088
832.628
800.471
769.677
737.568
713.478
684.828
627.209
389.057
261.471
199.82
222.051
276.748
361.847
435.406
476.575
502.873
534.167
569.418
604.774
645.029
694.716
674.54
462.027
458.869
472.506
505.781
532.102
543.683
525.866
489.134
394.656
338.33
317.17
311.385
341.122
372.019
392.454
398.565
401.1
408.785
425.993
458.164
497.254
549.282
585.33
476.885
467.279
446.659
425.86
412.132
400.57
383.422
360.628
314.474
266.113
210.486
184.194
180.074
179.553
165.791
142.549
167.659
215.926
264.424
280.641
305.609
382.792
501.63
253.173
206.699
187.968
216.712
225.472
241.942
240.72
226.815
196.845
164.555
138.451
113.701
91.0846
60.9015
37.3195
19.2522
37.7459
78.3875
122.584
169.048
266.295
336.051
380.834
168.816
149.381
140.446
134.792
143.833
149.381
150.004
145.117
132.24
110.237
59.5456
22.1631
6.26896
4.91049
6.62288
7.09711
11.9731
16.5415
19.3057
22.5963
75.2574
177.996
205.829
133.638
95.3785
55.2756
37.0722
30.1228
28.7816
28.041
21.6172
12.6841
7.19847
5.75228
5.12068
5.28689
5.3088
5.36393
5.64343
5.92319
22.2125
86.1587
86.7018
92.5393
61.0844
23.8229
33.3494
12.4457
6.65352
5.75272
5.45258
5.42323
5.29751
4.82277
4.65025
4.60235
4.63737
4.9667
5.35216
5.33837
5.42974
5.3273
4.37053
3.97363
20.1149
71.3562
38.9875
15.9567
5.15616
5.198
3.90415
4.15304
4.29043
4.4393
4.58328
4.70202
4.83203
4.97854
5.01373
4.79673
4.84544
5.02189
4.92503
4.96926
4.98295
4.718
4.62659
4.45126
21.2508
19.0988
6.90783
3.82822
4.69139
4.76047
4.78534
4.73139
4.79852
4.81368
4.78727
4.74074
4.70385
4.63766
4.52821
4.60117
4.75404
4.75861
4.76822
4.72625
4.5928
4.61693
4.37564
3.83098
4.59588
2.67259
2.78359
4.52436
4.30031
4.12414
4.15385
4.17573
4.23329
4.32291
4.42409
4.46955
4.45275
4.38724
4.4313
4.51878
4.52269
4.49162
4.44678
4.33463
4.21632
4.04743
3.70096
3.02935
2.35794
2.14188
4.28182
4.20695
4.21849
4.2943
4.3784
4.4158
4.365
4.31796
4.29418
4.27198
4.23101
4.25825
4.29763
4.28141
4.23521
4.16083
4.04814
3.91061
3.73683
3.48988
3.17829
2.57956
1.69531
4.13599
4.1224
4.11619
4.12535
4.10274
4.1259
4.14765
4.15383
4.13445
4.11837
4.1032
4.10747
4.1099
4.06797
4.01582
3.92961
3.81341
3.65947
3.50799
3.26341
3.02899
2.42526
1.2996
4.01142
3.99472
3.97853
3.96949
3.96102
3.98673
3.96526
3.98594
3.97444
3.961
3.94023
3.92114
3.91231
3.86572
3.81162
3.72981
3.62135
3.47864
3.32291
3.03926
2.74888
2.17988
1.23585
3.86659
3.85558
3.85048
3.8509
3.86145
3.85976
3.85586
3.83903
3.82285
3.80551
3.78848
3.76792
3.74207
3.69784
3.64031
3.56204
3.46198
3.33778
3.18911
2.96294
2.67316
2.22074
1.55695
3.72475
3.71646
3.71098
3.70371
3.69837
3.69688
3.68649
3.68156
3.66782
3.64889
3.63139
3.60442
3.57545
3.53372
3.48143
3.41431
3.33251
3.23327
3.11965
2.97098
2.80682
2.51187
2.07592
3.58104
3.57548
3.56723
3.55996
3.55239
3.54718
3.53744
3.52893
3.51409
3.49592
3.47559
3.44965
3.41996
3.38165
3.33567
3.28062
3.2173
3.14384
3.06489
2.96905
2.88313
2.72512
2.45186
3.43216
3.42898
3.42161
3.41536
3.40755
3.40037
3.39038
3.37937
3.36433
3.34627
3.32598
3.30153
3.27287
3.23838
3.19899
3.15353
3.10315
3.0488
2.99224
2.92972
2.87385
2.77979
2.61416
3.28398
3.28194
3.27562
3.26961
3.26213
3.25412
3.24398
3.2323
3.21791
3.20066
3.18026
3.15696
3.13042
3.09952
3.06489
3.02649
2.9851
2.94138
2.89662
2.84889
2.80467
2.73791
2.63053
3.13738
3.13557
3.13036
3.12466
3.11746
3.1092
3.09912
3.08737
3.07334
3.05697
3.03786
3.01588
2.99111
2.96323
2.93252
2.89926
2.86416
2.82758
2.79029
2.75061
2.71086
2.65782
2.58281
2.9924
2.99066
2.9863
2.98093
2.97408
2.96591
2.95607
2.94459
2.93109
2.91552
2.89758
2.87723
2.85451
2.8294
2.80205
2.77287
2.74234
2.71063
2.67821
2.64358
2.60702
2.56241
2.5059
2.84905
2.84739
2.84362
2.83858
2.83207
2.82415
2.81477
2.80378
2.79097
2.77632
2.75962
2.74095
2.72021
2.69756
2.67314
2.64732
2.62027
2.59218
2.56318
2.53222
2.49895
2.46032
2.41521
2.70727
2.7057
2.70236
2.69767
2.69154
2.68403
2.67513
2.66472
2.65271
2.63905
2.62364
2.60651
2.58764
2.56721
2.54535
2.52226
2.49801
2.47277
2.44652
2.41854
2.38844
2.35464
2.31697
2.56696
2.5655
2.56249
2.55815
2.55245
2.54543
2.53703
2.52726
2.51604
2.50334
2.48914
2.47346
2.45636
2.4379
2.4182
2.39739
2.37557
2.35277
2.32887
2.30356
2.27644
2.2467
2.21444
2.42805
2.4267
2.42396
2.41995
2.41467
2.40812
2.40029
2.39119
2.38079
2.36907
2.35605
2.34175
2.3262
2.30947
2.29168
2.27287
2.25314
2.23246
2.21077
2.18792
2.16356
2.13731
2.10922
2.29042
2.28918
2.28667
2.28297
2.27808
2.27203
2.26479
2.25638
2.24679
2.23605
2.22415
2.2111
2.19696
2.18181
2.16569
2.14868
2.13085
2.11214
2.09253
2.07187
2.05
2.02672
2.00219
2.15397
2.15283
2.15054
2.14714
2.14265
2.13707
2.13041
2.12268
2.1139
2.10406
2.09318
2.0813
2.06849
2.05478
2.04023
2.02489
2.00874
1.99182
1.97406
1.95546
1.93594
1.91533
1.8938
2.01861
2.01757
2.01549
2.01238
2.00827
2.00315
1.99705
1.98998
1.98195
1.97298
1.96312
1.95236
1.94077
1.92837
1.91522
1.90133
1.88677
1.87153
1.85561
1.83895
1.82149
1.80326
1.78437
1.88424
1.8833
1.8814
1.87857
1.87482
1.87015
1.8646
1.85816
1.85087
1.84274
1.8338
1.82408
1.81361
1.80244
1.79059
1.77812
1.76505
1.75135
1.73705
1.72215
1.70666
1.69059
1.67403
1.75077
1.74991
1.74819
1.74562
1.74222
1.738
1.73296
1.72714
1.72054
1.71319
1.70513
1.69637
1.68695
1.67692
1.6663
1.65512
1.64339
1.63115
1.61842
1.60519
1.59149
1.57737
1.5629
1.61812
1.61735
1.61579
1.61348
1.61041
1.6066
1.60206
1.59681
1.59088
1.58427
1.57704
1.56918
1.56075
1.55178
1.54229
1.53231
1.52187
1.511
1.49971
1.48802
1.47598
1.46362
1.45103
1.4862
1.48551
1.48411
1.48204
1.47929
1.47588
1.47181
1.46711
1.4618
1.45591
1.44944
1.44244
1.43494
1.42696
1.41853
1.40968
1.40044
1.39083
1.38088
1.37063
1.3601
1.34936
1.33847
1.35494
1.35432
1.35308
1.35123
1.34879
1.34575
1.34213
1.33795
1.33324
1.32801
1.32228
1.31609
1.30945
1.30239
1.29495
1.28716
1.27903
1.27061
1.26192
1.25299
1.24386
1.23458
1.22523
1.22426
1.22372
1.22262
1.22099
1.21883
1.21615
1.21296
1.20929
1.20513
1.20053
1.19549
1.19005
1.18423
1.17805
1.17155
1.16474
1.15766
1.15034
1.1428
1.13508
1.12723
1.11929
1.11133
1.0941
1.09362
1.09267
1.09124
1.08936
1.08702
1.08424
1.08103
1.07741
1.0734
1.06902
1.0643
1.05925
1.05389
1.04826
1.04237
1.03626
1.02996
1.02349
1.01689
1.01021
1.00349
0.996786
0.964382
0.963972
0.963147
0.961921
0.960298
0.958285
0.955892
0.953134
0.950027
0.946584
0.942825
0.93877
0.934436
0.929849
0.925038
0.92002
0.91482
0.909465
0.903988
0.898421
0.892801
0.887177
0.881601
0.835047
0.834698
0.833998
0.832961
0.831591
0.829893
0.827878
0.825555
0.822936
0.820034
0.816864
0.813444
0.809794
0.805937
0.801888
0.797669
0.793306
0.788832
0.784269
0.779643
0.774995
0.770364
0.765794
0.706046
0.70575
0.705171
0.704316
0.70319
0.701795
0.70014
0.698234
0.696083
0.693699
0.691096
0.688287
0.685287
0.682111
0.67878
0.675313
0.671739
0.668071
0.664335
0.660569
0.656801
0.653062
0.649394
0.577323
0.577096
0.576637
0.575953
0.575057
0.573946
0.572627
0.571109
0.569399
0.567507
0.565443
0.563216
0.560839
0.558321
0.555679
0.552929
0.550082
0.547158
0.544191
0.541208
0.538235
0.535299
0.532428
0.448817
0.448646
0.448301
0.447778
0.447099
0.446256
0.445257
0.444108
0.442815
0.441388
0.439838
0.438164
0.436375
0.434482
0.432494
0.43042
0.428277
0.426081
0.423843
0.421583
0.419328
0.417115
0.414973
0.320489
0.320364
0.320143
0.319756
0.319298
0.318708
0.31801
0.317206
0.316304
0.315311
0.314246
0.313084
0.311846
0.310541
0.309168
0.307738
0.306261
0.304736
0.303176
0.301604
0.300037
0.298496
0.296993
0.19231
0.192204
0.192074
0.19181
0.191517
0.191168
0.190764
0.1903
0.189779
0.189204
0.188584
0.187915
0.187206
0.186461
0.185679
0.184857
0.184029
0.18315
0.182256
0.181351
0.180441
0.179543
0.17867
0.0641779
0.0641562
0.0640981
0.0639815
0.0638535
0.0637144
0.063576
0.0634268
0.0632622
0.0630815
0.0628855
0.0626759
0.0624539
0.0622202
0.0619769
0.0617233
0.0614599
0.0611852
0.0609023
0.0606133
0.0603218
0.060031
0.0597525
784.071
791.483
781.384
771.252
590.343
622.821
618.667
592.16
574.808
607.868
603.276
574.997
475.396
510.095
526.195
470.794
186.811
213.793
217.554
182.966
10.8728
11.1521
23.8804
52.2833
4.25661
3.09853
1.90258
3.85422
4.09138
3.72717
3.52609
3.28504
2.37376
2.05428
1.98978
1.83264
1.80669
1.67678
1.64758
1.5758
1.29121
1.19635
1.1428
1.14134
0.721403
0.751743
0.730939
0.769046
0.486031
0.29693
0.313853
0.449719
0.973256
0.71412
0.655413
0.735041
1.71883
1.52146
1.41871
1.42323
2.21875
2.08103
1.99103
1.95464
2.46666
2.37856
2.31409
2.28176
2.5378
2.48219
2.4351
2.397
2.51891
2.4793
2.44349
2.41273
2.45837
2.42833
2.4001
2.37463
2.37819
2.35444
2.33166
2.3104
2.28678
2.26737
2.24848
2.23038
2.18905
2.17271
2.15665
2.14095
2.0875
2.07355
2.05971
2.04601
1.98338
1.97123
1.95918
1.94717
1.87741
1.86682
1.85628
1.84575
1.77004
1.76079
1.75157
1.74235
1.66154
1.65347
1.64543
1.63738
1.55204
1.54503
1.53804
1.53106
1.44163
1.43558
1.42954
1.42353
1.33038
1.32518
1.32001
1.31487
1.21832
1.21389
1.20949
1.20513
1.10549
1.10176
1.09806
1.0944
0.991908
0.988811
0.985761
0.982777
0.877573
0.875025
0.872524
0.870085
0.762513
0.760444
0.758416
0.756442
0.646772
0.645123
0.643511
0.641943
0.53039
0.52911
0.527861
0.526646
0.413453
0.412499
0.411569
0.410666
0.295935
0.295273
0.294627
0.293997
0.178048
0.177654
0.177266
0.176885
0.0595445
0.0594103
0.0592748
0.0591335
640.34
600.833
509.575
457.42
422.742
400.242
394.832
420.564
477.457
580.994
679.844
744.907
795.175
837.007
731.617
755.115
854.473
815.99
945.933
554.771
500.682
399.054
364.733
342.385
322.759
320.91
339.082
366.102
455.023
569.09
623.589
664.277
733.242
771.892
799.219
901.942
897.267
977.851
484.653
343.176
224.408
206.887
204.479
211.071
228.49
248.159
283.906
353.774
470.324
543.552
584.754
655.267
707.409
727.435
771.986
746.708
833.871
301.704
176.252
142.848
142.726
144.134
146.173
149.799
164.374
200.2
269.91
385.439
465.231
521.306
577.275
650.817
705.828
761.715
768.64
798.501
154.234
131.564
137.007
138.888
140.056
140.665
140.897
142.101
154.292
231.576
332.362
409.516
461.913
504.119
608.575
673.341
735.361
733.36
762.865
105.305
132.846
138.582
140.896
141.49
142.355
143.117
142.458
145.309
195.08
304.901
361.724
401.397
459.037
572.608
643.777
711.133
720.794
740.102
16.4541
103.424
129.159
138.641
140.648
140.928
141.632
142.058
144.228
172.065
284.214
331.188
371.158
433.133
538.066
620.66
695.572
700.953
726.403
3.38039
31.9105
94.4984
129.869
140.909
141.688
141.592
142.087
145.584
182.721
272.131
315.921
366.627
431.228
500.23
565.439
662.617
689.522
720.443
1.14501
3.93915
28.1997
82.844
126.764
139.166
140.886
140.202
151.268
197.514
245.741
299.855
352.55
413.682
482.999
551.31
640.377
692.184
727.045
1.58075
1.36785
3.32641
23.0774
73.4523
115.131
125.916
122.014
138.847
155.337
191.607
235.899
294.443
363.239
469.331
535.826
634.279
711.258
748.272
1.36556
1.69963
1.6291
2.85487
17.2085
39.2605
48.9359
44.497
69.6028
98.5892
132.942
180.006
227.563
276.014
343.327
488.379
628.39
736.337
777.237
1.03486
1.61048
1.98522
1.91579
2.34167
9.12528
12.9534
9.93877
15.4371
31.7264
77.9192
143.369
198.2
240.98
289.779
398.753
613.553
754.924
795.626
0.871845
1.55298
1.94763
2.26011
2.32889
1.57009
1.24568
1.2943
1.3771
3.21994
14.8466
55.3114
133.958
196.226
253.012
367.092
585.026
769.959
807.251
1.03574
1.71381
2.14086
2.34898
2.74613
3.25855
3.35778
3.22686
3.03856
2.64635
2.16082
3.78199
13.892
40.5849
89.4941
222.576
568.447
719.756
746.533
1.55392
1.95403
2.23546
2.4444
2.56538
2.83445
2.99368
2.95232
2.95753
2.93673
2.59149
1.33688
-0.178073
-2.48518
2.62461
47.5506
209.746
412.553
518.233
1.9709
2.15507
2.32007
2.44263
2.54705
2.62479
2.64454
2.72173
2.7081
2.67543
2.4813
2.34704
3.09343
1.82876
-0.272803
-0.564403
15.1624
93.982
283.441
2.26728
2.29834
2.36452
2.43687
2.51251
2.61346
2.70789
2.75947
2.86672
2.79981
2.44118
1.69724
1.29094
1.24423
1.94756
3.3478
1.55489
17.4035
68.2015
2.34602
2.34575
2.36732
2.40328
2.4527
2.51324
2.57563
2.64932
2.73465
2.87158
2.69142
2.25563
1.39178
0.116063
-0.587426
1.06953
1.47121
0.789418
22.5602
2.37044
2.34617
2.34008
2.35189
2.37556
2.40383
2.43098
2.45295
2.46924
2.45319
2.27618
1.88567
1.30379
0.770713
0.217615
0.486272
0.698496
-0.873282
-2.00053
2.33685
2.30453
2.28905
2.2847
2.2895
2.29784
2.30505
2.30373
2.27885
2.20802
2.01371
1.66145
1.16192
0.560358
0.0150842
0.142386
0.701911
0.145225
3.15379
2.27758
2.24365
2.22077
2.20787
2.19953
2.19223
2.18197
2.16042
2.11357
2.02623
1.85146
1.57968
1.17638
0.745172
0.386271
0.279394
0.636747
0.489722
1.69185
2.20164
2.1685
2.14226
2.12207
2.10729
2.08946
2.06915
2.03693
1.98282
1.89898
1.76583
1.56821
1.31294
1.04935
0.81782
0.65398
0.785354
0.832601
1.36786
2.11562
2.08442
2.05725
2.03383
2.01424
1.99134
1.96718
1.93182
1.87845
1.80474
1.70079
1.55415
1.3888
1.20017
1.06899
1.04079
1.07115
1.18223
1.44189
2.02355
1.9947
1.968
1.9435
1.92076
1.89718
1.87081
1.8358
1.78944
1.72831
1.64541
1.53273
1.40819
1.30939
1.25642
1.28049
1.30466
1.40316
1.52193
1.92731
1.90103
1.8758
1.85217
1.82913
1.80568
1.77961
1.74747
1.70896
1.65923
1.59514
1.5067
1.41438
1.37409
1.3601
1.41169
1.46503
1.54338
1.64575
1.82822
1.80457
1.78153
1.75943
1.73759
1.71561
1.69162
1.6638
1.63291
1.59369
1.54105
1.4644
1.39005
1.36931
1.42346
1.52193
1.61961
1.70226
1.84414
1.72694
1.70589
1.68522
1.66508
1.64557
1.62588
1.60518
1.58201
1.55826
1.52759
1.48528
1.4235
1.34843
1.33052
1.46262
1.60066
1.7504
1.86905
2.03215
1.62392
1.60545
1.58734
1.56973
1.55263
1.53578
1.51858
1.50073
1.4826
1.46112
1.43183
1.38884
1.32697
1.33626
1.49401
1.64934
1.8276
1.97102
2.11577
1.5194
1.50338
1.48777
1.47269
1.45822
1.44433
1.43077
1.41764
1.40516
1.39218
1.37618
1.35613
1.3214
1.36241
1.51037
1.65676
1.82829
1.96327
2.07242
1.4135
1.39976
1.38646
1.37387
1.36199
1.35092
1.34072
1.33157
1.32392
1.31739
1.31293
1.31008
1.31401
1.37074
1.48552
1.61658
1.76065
1.88045
1.96335
1.30631
1.29466
1.2836
1.27324
1.26372
1.2552
1.24791
1.24208
1.23837
1.23685
1.23983
1.24965
1.27487
1.3314
1.42462
1.53933
1.65459
1.76473
1.83146
1.19789
1.18805
1.17906
1.17073
1.1633
1.157
1.15213
1.14899
1.14837
1.15044
1.15806
1.17359
1.20422
1.25613
1.32956
1.42664
1.52414
1.62234
1.67752
1.08832
1.07984
1.07291
1.06635
1.06069
1.05623
1.05331
1.05229
1.05382
1.05854
1.06807
1.08603
1.11441
1.15504
1.21419
1.29862
1.38507
1.46572
1.51074
0.977918
0.971896
0.965455
0.960145
0.955884
0.952866
0.95141
0.951869
0.954836
0.961066
0.971238
0.988034
1.00811
1.03547
1.08822
1.16265
1.24344
1.29907
1.33525
0.866114
0.860995
0.856143
0.852053
0.848919
0.846964
0.846489
0.847845
0.851548
0.858167
0.868235
0.881335
0.894909
0.900441
0.958127
1.01594
1.09356
1.12653
1.15844
0.753229
0.749084
0.745338
0.742214
0.739906
0.738634
0.738666
0.740269
0.744023
0.749988
0.759232
0.768317
0.781363
0.785197
0.832042
0.878767
0.943084
0.955452
0.985132
0.639398
0.636113
0.633203
0.630797
0.629046
0.628125
0.628276
0.62962
0.632894
0.637637
0.645092
0.654149
0.665369
0.681336
0.712685
0.744486
0.783184
0.797104
0.817169
0.524669
0.522137
0.519882
0.517988
0.516564
0.515732
0.515701
0.516405
0.518847
0.521916
0.527912
0.535867
0.544559
0.559315
0.581786
0.605914
0.627979
0.641949
0.655007
0.409201
0.407275
0.405528
0.403989
0.402721
0.401788
0.40138
0.401137
0.402635
0.403328
0.407628
0.411974
0.418557
0.428806
0.445435
0.464006
0.476052
0.484054
0.497813
0.29296
0.291607
0.290283
0.288986
0.287751
0.286566
0.285642
0.283972
0.283986
0.283161
0.285453
0.286935
0.290768
0.297398
0.309126
0.321403
0.330522
0.335302
0.346863
0.176259
0.175355
0.17438
0.173225
0.171794
0.169912
0.168425
0.165229
0.163844
0.160133
0.159397
0.157901
0.160663
0.163694
0.171548
0.181405
0.19054
0.19266
0.200882
0.0588754
0.0583864
0.0576939
0.0566595
0.0551773
0.0530576
0.0506343
0.0459846
0.0422266
0.0339544
0.0301626
0.0221754
0.0214325
0.0253697
0.0324939
0.0429285
0.0585323
0.0649446
0.0750384
)
;

boundaryField
{
    leftWall
    {
        type            fixedFluxPressure;
        gradient        uniform 0;
        value           nonuniform List<scalar> 
50
(
3001.88
2396.52
1247.7
900.576
1073.06
776.572
937
671.178
838.088
462.027
476.885
253.173
168.816
133.638
33.3494
5.198
4.69139
4.52436
4.28182
4.13599
4.01142
3.86659
3.72475
3.58104
3.43216
3.28398
3.13738
2.9924
2.84905
2.70727
2.56696
2.42805
2.29042
2.15397
2.01861
1.88424
1.75077
1.61812
1.4862
1.35494
1.22426
1.0941
0.964382
0.835047
0.706046
0.577323
0.448817
0.320489
0.19231
0.0641779
)
;
    }
    rightWall
    {
        type            fixedFluxPressure;
        gradient        uniform 0;
        value           nonuniform List<scalar> 
50
(
6054.98
4739.74
4529.64
3476.79
3049.54
2323.57
1680.06
1203.73
945.933
977.851
833.871
798.501
762.865
740.102
726.403
720.443
727.045
748.272
777.237
795.626
807.251
746.533
518.233
283.441
68.2015
22.5602
-2.00053
3.15379
1.69185
1.36786
1.44189
1.52193
1.64575
1.84414
2.03215
2.11577
2.07242
1.96335
1.83146
1.67752
1.51074
1.33525
1.15844
0.985132
0.817169
0.655007
0.497813
0.346863
0.200882
0.0750384
)
;
    }
    lowerWall
    {
        type            fixedFluxPressure;
        gradient        nonuniform List<scalar> 
62
(
132719
132719
132719
132719
132719
132719
132719
132719
132719
132719
132719
132719
132719
132719
132719
132719
132719
132719
132719
132719
132719
132718
132716
0
0
0
0
0
0
0
0
10786.3
8102.68
3573.51
2012.98
0
0
0
0
0
0
0
0
36191
37211.8
37382.1
36942.7
37269.6
39561.2
39680.7
39807.5
39902.1
39946.5
39984.4
40143.9
40389.6
40835.8
41157.4
41359
40654.4
40512.6
40330.7
)
;
        value           nonuniform List<scalar> 
62
(
3400.03
3423.35
3463.29
3561.37
3697.87
4004.55
4490.49
5070.8
5701.44
6127.87
6408.7
6590.53
6693.7
6729.2
6718.01
6688.42
6661.19
6647.99
6655.17
6683.76
6710.95
6733.1
6780.44
6382.3
5580.34
4784.65
3993.28
3200.43
2407.14
1562.61
824.832
852.899
843.186
804.186
784.097
2824.95
1615.85
1430.18
919.015
932.182
752.846
694.387
668.426
2933.52
2897.71
2403.93
1964.52
1815.36
1793.67
1860.48
1990.39
2123.6
2224.35
2326.13
2449.56
2645.54
3010.42
3726.1
5022.5
6249.16
6252.48
6175.97
)
;
    }
    atmosphere
    {
        type            totalPressure;
        U               U.air;
        phi             phi.air;
        rho             rho;
        psi             none;
        gamma           1;
        p0              uniform 0;
        value           nonuniform List<scalar> 
46
(
0
0
0
0
0
0
0
0
0
0
0
0
0
0
0
0
0
0
0
0
0
0
0
0
0
0
0
0
-3.22547e-05
-0.000345881
-0.00110729
-0.00239429
-0.00428763
-0.00685074
-0.0104349
-0.0144139
-0.0212041
-0.0265901
-0.0364545
-0.0397624
-0.0416308
-0.0381929
-0.0315726
-0.0234695
-0.0184262
-0.011618
)
;
    }
    defaultFaces
    {
        type            empty;
    }
}


// ************************************************************************* //
