/*--------------------------------*- C++ -*----------------------------------*\
| =========                 |                                                 |
| \\      /  F ield         | OpenFOAM: The Open Source CFD Toolbox           |
|  \\    /   O peration     | Version:  2.4.0                                 |
|   \\  /    A nd           | Web:      www.OpenFOAM.org                      |
|    \\/     M anipulation  |                                                 |
\*---------------------------------------------------------------------------*/
FoamFile
{
    version     2.0;
    format      ascii;
    class       surfaceScalarField;
    location    "0.8";
    object      phi;
}
// * * * * * * * * * * * * * * * * * * * * * * * * * * * * * * * * * * * * * //

dimensions      [0 3 -1 0 0 0 0];

internalField   nonuniform List<scalar> 
4432
(
1.25702e-06
-1.25702e-06
2.699e-06
-1.44198e-06
3.2251e-06
-5.26102e-07
3.04123e-06
1.83874e-07
2.32315e-06
7.18081e-07
-1.26656e-07
2.4498e-06
-4.52571e-06
4.39905e-06
-1.06677e-05
6.14203e-06
-1.54578e-05
4.79001e-06
-1.79491e-05
2.4913e-06
-1.94633e-05
1.51427e-06
-2.00246e-05
5.61296e-07
-1.924e-05
-7.84601e-07
-1.70354e-05
-2.20466e-06
-1.4451e-05
-2.5844e-06
-1.23754e-05
-2.0756e-06
-1.09564e-05
-1.41896e-06
-9.76989e-06
-1.1865e-06
-8.38848e-06
-1.38141e-06
-6.17375e-06
-2.21473e-06
-4.57815e-06
-1.5956e-06
-3.8658e-06
-7.12346e-07
-3.86581e-06
1.21943e-06
-2.47645e-06
2.39992e-06
-2.62246e-06
3.19359e-06
-1.31978e-06
3.7529e-06
-3.75434e-07
3.88279e-06
5.88186e-07
1.77401e-06
4.55859e-06
-2.86891e-06
9.04197e-06
-9.77327e-06
1.30464e-05
-1.55459e-05
1.05627e-05
-1.89214e-05
5.86677e-06
-2.02544e-05
2.84727e-06
-2.03872e-05
6.94153e-07
-1.91515e-05
-2.02038e-06
-1.68784e-05
-4.47771e-06
-1.43461e-05
-5.11668e-06
-1.22244e-05
-4.19736e-06
-1.0649e-05
-2.99435e-06
-9.40795e-06
-2.42755e-06
-7.75063e-06
-3.03873e-06
-5.73081e-06
-4.23455e-06
-3.84359e-06
-3.48282e-06
-2.27276e-06
-2.28317e-06
-6.13857e-06
1.45274e-06
-3.9292e-06
2.24215e-06
-3.41186e-06
3.70721e-06
-2.78484e-06
3.97727e-06
-6.45492e-07
1.72826e-06
2.83719e-06
-1.68714e-06
7.97399e-06
-5.55663e-06
1.29115e-05
-1.13617e-05
1.88515e-05
-1.61397e-05
1.53406e-05
-1.91357e-05
8.86279e-06
-2.03982e-05
4.10971e-06
-2.02173e-05
5.13237e-07
-1.89091e-05
-3.32854e-06
-1.67936e-05
-6.59321e-06
-1.45448e-05
-7.36543e-06
-1.24628e-05
-6.27934e-06
-1.05599e-05
-4.89726e-06
-9.01321e-06
-3.97428e-06
-7.20855e-06
-4.8434e-06
-5.51783e-06
-5.92527e-06
-3.45922e-06
-5.54143e-06
-1.40943e-06
-4.33296e-06
-7.548e-06
1.03682e-06
-4.96602e-06
6.71637e-07
-3.04668e-06
7.46582e-07
-2.85978e-06
1.74422e-07
-7.33316e-08
-6.89568e-07
3.70118e-06
-2.34683e-06
9.63125e-06
-7.74446e-06
1.83091e-05
-1.41761e-05
2.52831e-05
-1.84542e-05
1.96187e-05
-2.0408e-05
1.08166e-05
-2.0488e-05
4.1897e-06
-1.99997e-05
2.49922e-08
-1.88584e-05
-4.46986e-06
-1.67779e-05
-8.67375e-06
-1.43004e-05
-9.84292e-06
-1.18008e-05
-8.77895e-06
-9.49018e-06
-7.20785e-06
-7.90538e-06
-5.55908e-06
-6.9884e-06
-5.76037e-06
-6.62316e-06
-6.29051e-06
-4.87166e-06
-7.29292e-06
-2.15985e-06
-7.04477e-06
-9.70785e-06
-4.7533e-07
-4.49069e-06
-4.29148e-07
-3.09286e-06
-8.08446e-07
-2.48049e-06
-4.48345e-07
-4.33432e-07
-2.6519e-07
3.51803e-06
-2.54874e-06
1.19148e-05
-1.09894e-05
2.67498e-05
-1.99007e-05
3.41945e-05
-2.39409e-05
2.36589e-05
-2.54078e-05
1.22834e-05
-2.47624e-05
3.54434e-06
-2.26742e-05
-2.06319e-06
-2.02861e-05
-6.85803e-06
-1.7779e-05
-1.11808e-05
-1.47019e-05
-1.292e-05
-1.14076e-05
-1.20733e-05
-8.50721e-06
-1.01082e-05
-7.00365e-06
-7.06263e-06
-6.80925e-06
-5.95477e-06
-6.98553e-06
-6.11423e-06
-6.27486e-06
-8.00359e-06
-3.587e-06
-9.73264e-06
-1.32948e-05
-2.55133e-07
-4.23555e-06
-2.27223e-06
-1.07577e-06
-5.9182e-06
1.16549e-06
-1.1536e-05
5.18441e-06
-1.73553e-05
9.33731e-06
-1.8906e-05
1.34654e-05
-2.27513e-05
3.05952e-05
-2.97781e-05
4.12212e-05
-3.11127e-05
2.49935e-05
-3.01563e-05
1.1327e-05
-2.90762e-05
2.46416e-06
-2.73072e-05
-3.8321e-06
-2.46915e-05
-9.47377e-06
-2.15844e-05
-1.42879e-05
-1.74721e-05
-1.70323e-05
-1.30198e-05
-1.65256e-05
-9.33212e-06
-1.37959e-05
-7.31765e-06
-9.0771e-06
-6.81492e-06
-6.4575e-06
-6.92514e-06
-6.00401e-06
-6.63963e-06
-8.28911e-06
-4.739e-06
-1.16333e-05
-1.80338e-05
-7.59667e-07
-3.47588e-06
-8.5824e-07
-9.77199e-07
-1.53471e-06
1.84196e-06
-3.75359e-06
7.40329e-06
-7.8269e-06
1.34106e-05
-1.49401e-05
2.05786e-05
-2.42614e-05
3.99165e-05
-3.68817e-05
5.38415e-05
-4.17042e-05
2.9816e-05
-3.97068e-05
9.32965e-06
-3.54578e-05
-1.78482e-06
-3.11453e-05
-8.1446e-06
-2.72602e-05
-1.33589e-05
-2.30178e-05
-1.85303e-05
-1.88119e-05
-2.12382e-05
-1.52572e-05
-2.00803e-05
-1.22831e-05
-1.677e-05
-9.41478e-06
-1.19454e-05
-7.06649e-06
-8.80579e-06
-5.76375e-06
-7.30675e-06
-6.11053e-06
-7.94233e-06
-6.04327e-06
-1.17005e-05
-2.40771e-05
5.56546e-07
-4.03243e-06
-1.17994e-06
7.59288e-07
-4.22068e-06
4.8827e-06
-7.2909e-06
1.04735e-05
-1.03628e-05
1.64825e-05
-1.36707e-05
2.38865e-05
-1.88291e-05
4.50749e-05
-3.04961e-05
6.55085e-05
-4.14332e-05
4.07531e-05
-4.29089e-05
1.08053e-05
-4.12566e-05
-3.43704e-06
-3.61838e-05
-1.32175e-05
-2.8601e-05
-2.09416e-05
-1.99425e-05
-2.71889e-05
-1.53573e-05
-2.58233e-05
-1.49045e-05
-2.05331e-05
-1.52917e-05
-1.63828e-05
-1.27633e-05
-1.44738e-05
-8.30565e-06
-1.32635e-05
-4.95094e-06
-1.06615e-05
-6.48773e-06
-6.40554e-06
-1.05877e-05
-7.60059e-06
-3.46648e-05
-4.29828e-07
4.29828e-07
1.81239e-05
-1.85537e-05
2.80578e-05
-9.93393e-06
3.32689e-05
-5.21108e-06
3.63142e-05
-3.04529e-06
3.86559e-05
-2.34169e-06
4.1098e-05
-2.44211e-06
4.38932e-05
-2.79527e-06
4.69272e-05
-3.034e-06
5.00305e-05
-3.10322e-06
5.32787e-05
-3.2482e-06
5.59515e-05
-2.67286e-06
5.66136e-05
-6.62118e-07
5.31838e-05
3.42985e-06
4.33221e-05
9.8617e-06
2.59695e-05
1.73525e-05
6.27888e-06
1.96907e-05
-2.69888e-06
8.97776e-06
-2.69888e-06
4.88451e-06
-4.45468e-06
3.49493e-05
-4.86185e-05
4.52731e-05
-2.02577e-05
4.85976e-05
-8.53554e-06
5.01345e-05
-4.58225e-06
4.97843e-05
-1.99147e-06
5.00585e-05
-2.71636e-06
5.13906e-05
-4.12736e-06
5.27956e-05
-4.43895e-06
5.38024e-05
-4.11008e-06
5.51497e-05
-4.59547e-06
5.67911e-05
-4.3143e-06
5.73936e-05
-1.26454e-06
5.35233e-05
7.30005e-06
4.24646e-05
2.09205e-05
2.71506e-05
3.26665e-05
1.27154e-05
3.41259e-05
-1.37372e-06
2.30669e-05
-4.0726e-06
2.65368e-05
-3.09914e-05
4.48668e-05
-6.69485e-05
5.78137e-05
-3.32046e-05
6.63522e-05
-1.70741e-05
7.20316e-05
-1.02617e-05
7.55167e-05
-5.47658e-06
7.40572e-05
-1.25683e-06
6.86856e-05
1.2443e-06
6.11836e-05
3.06304e-06
5.21781e-05
4.89535e-06
4.27542e-05
4.82852e-06
3.15396e-05
6.90022e-06
1.89719e-05
1.13032e-05
2.02981e-05
5.97388e-06
2.41225e-05
1.70961e-05
2.29475e-05
3.38415e-05
1.2619e-05
4.44544e-05
1.1965e-06
3.44893e-05
-2.8761e-06
3.55711e-05
-6.65626e-05
3.9637e-05
-7.10144e-05
4.79013e-05
-4.14689e-05
5.53507e-05
-2.45236e-05
6.06559e-05
-1.55668e-05
6.24439e-05
-7.26465e-06
6.15669e-05
-3.79795e-07
5.95895e-05
3.22171e-06
5.62631e-05
6.38946e-06
5.12471e-05
9.91136e-06
4.29919e-05
1.30837e-05
2.98555e-05
2.00366e-05
1.45047e-05
2.6654e-05
-1.38157e-05
3.42943e-05
-1.21784e-05
1.54587e-05
1.16883e-05
9.97486e-06
1.20559e-05
4.40868e-05
5.50176e-06
4.10434e-05
2.62566e-06
3.03813e-05
-9.69439e-05
3.48704e-05
-7.55035e-05
3.91707e-05
-4.57692e-05
4.59318e-05
-3.12847e-05
5.15863e-05
-2.12213e-05
5.36757e-05
-9.35402e-06
5.13144e-05
1.98145e-06
4.62897e-05
8.24646e-06
4.1967e-05
1.07121e-05
3.9596e-05
1.22824e-05
3.53071e-05
1.73727e-05
2.58594e-05
2.94843e-05
7.10054e-06
4.54128e-05
-2.27723e-05
6.41672e-05
-2.84979e-05
2.11843e-05
-8.45173e-06
-1.00713e-05
6.98056e-06
2.86545e-05
6.98815e-06
4.10358e-05
9.61381e-06
1.62561e-05
-0.0001132
1.79725e-05
-7.72199e-05
2.31915e-05
-5.09882e-05
3.14864e-05
-3.95796e-05
3.705e-05
-2.67848e-05
3.94869e-05
-1.1791e-05
3.97161e-05
1.75228e-06
3.82454e-05
9.71714e-06
3.41149e-05
1.48425e-05
3.04209e-05
1.59764e-05
2.79448e-05
1.98487e-05
2.32369e-05
3.41922e-05
8.58717e-06
6.00626e-05
-1.90194e-05
9.17737e-05
-2.59853e-05
2.81503e-05
-1.12527e-05
-2.48039e-05
5.29529e-06
1.21066e-05
8.41903e-06
3.79121e-05
1.80328e-05
6.55785e-06
-0.000119758
-3.89631e-06
-6.67657e-05
4.21832e-06
-5.91029e-05
2.00943e-05
-5.54556e-05
3.2243e-05
-3.89335e-05
3.71554e-05
-1.67033e-05
3.58621e-05
3.04556e-06
3.21027e-05
1.34766e-05
2.60964e-05
2.08488e-05
2.25399e-05
1.9533e-05
2.17896e-05
2.0599e-05
2.13264e-05
3.46554e-05
1.30469e-05
6.83421e-05
-1.06509e-05
0.000115471
-2.31494e-05
4.06488e-05
-1.93119e-05
-2.86415e-05
-3.67049e-06
-3.53482e-06
7.35473e-06
2.68869e-05
2.53876e-05
-5.46581e-06
-0.000114292
-1.37986e-05
-5.84329e-05
-5.84298e-06
-6.70585e-05
6.16834e-06
-6.74669e-05
1.9426e-05
-5.21911e-05
3.07964e-05
-2.80737e-05
3.44151e-05
-5.73213e-07
3.12422e-05
1.66495e-05
2.55811e-05
2.65099e-05
2.05165e-05
2.45976e-05
1.82257e-05
2.28897e-05
1.81635e-05
3.47176e-05
1.69076e-05
6.95981e-05
2.41057e-07
0.000132138
-1.98852e-05
6.07751e-05
-2.56462e-05
-2.28805e-05
-1.55913e-05
-1.35898e-05
1.53139e-06
9.76418e-06
2.6919e-05
1.53058e-06
-5.56301e-06
5.68749e-06
-3.39763e-06
8.63368e-06
1.93651e-06
6.67188e-06
1.24353e-05
-1.06407e-06
2.42185e-05
-8.74585e-06
3.15683e-05
-7.32655e-06
4.36556e-05
-1.62154e-06
5.98035e-05
-1.51761e-05
5.43076e-05
-3.66622e-05
3.22914e-05
-4.8535e-05
8.43576e-06
-4.76808e-05
-1.40716e-05
-3.73529e-05
-3.12696e-05
-2.96222e-05
-3.49195e-05
-2.63782e-05
-2.90673e-05
-2.59879e-05
-2.09234e-05
-2.67506e-05
-1.56201e-05
-2.59367e-05
-1.52877e-05
-2.47012e-05
-1.4499e-05
-2.51497e-05
-1.0213e-05
-2.91569e-05
-2.39827e-06
-3.51966e-05
-1.56095e-06
-3.07515e-05
-3.91098e-05
6.88768e-06
-1.24507e-05
9.91802e-06
-6.42797e-06
6.49999e-06
5.35454e-06
2.62639e-06
1.63089e-05
6.17683e-07
2.62272e-05
6.27369e-07
3.15586e-05
5.05156e-06
3.92314e-05
1.84362e-05
4.64189e-05
2.85577e-05
4.4186e-05
3.15531e-05
2.92961e-05
3.21267e-05
7.86215e-06
3.12919e-05
-1.32369e-05
2.61081e-05
-2.60858e-05
2.18044e-05
-3.06157e-05
2.06842e-05
-2.79472e-05
2.17127e-05
-2.19518e-05
2.27872e-05
-1.66946e-05
2.15135e-05
-1.4014e-05
1.64878e-05
-9.47326e-06
1.10876e-05
-4.81281e-06
8.42101e-06
2.68315e-07
9.22006e-06
-2.36e-06
-1.52271e-05
-6.30438e-06
9.20414e-06
-2.16548e-05
1.76508e-05
-1.48746e-05
2.08888e-05
2.1165e-06
1.60728e-05
2.11249e-05
7.88579e-06
3.44143e-05
1.90747e-06
3.75369e-05
2.48526e-06
3.86536e-05
1.1236e-05
3.76682e-05
2.34885e-05
3.19335e-05
3.35225e-05
1.92621e-05
3.92616e-05
2.12298e-06
3.82354e-05
-1.22106e-05
3.59943e-05
-2.38448e-05
3.74418e-05
-3.20632e-05
4.19531e-05
-3.24585e-05
4.14745e-05
-2.14732e-05
3.47571e-05
-9.97726e-06
2.44098e-05
-3.66664e-06
1.83943e-05
-3.45776e-06
9.21185e-06
4.36962e-06
-9.40843e-06
1.88886e-05
-5.5968e-05
4.41996e-05
5.06046e-05
-0.0001218
1.64689e-05
-3.81238e-05
2.30977e-05
-2.15034e-05
1.14892e-05
1.37251e-05
3.10755e-06
2.95065e-05
-1.77039e-06
3.92922e-05
-6.41494e-06
4.21815e-05
-5.84188e-06
3.80806e-05
3.89746e-07
3.14366e-05
9.79001e-06
2.25332e-05
1.76519e-05
1.14002e-05
2.29113e-05
-3.13643e-06
2.57467e-05
-1.5046e-05
2.81856e-05
-2.62836e-05
2.79794e-05
-3.18571e-05
2.87188e-05
-3.31979e-05
1.43395e-05
-7.09386e-06
-1.37204e-05
1.80826e-05
-3.28784e-05
1.54914e-05
-5.11663e-05
1.48301e-05
-8.17427e-05
3.4946e-05
-0.000133281
7.04268e-05
-0.000196512
0.00010743
0.000103318
-0.000249225
-5.24698e-06
-3.28768e-05
-2.29705e-05
-3.77991e-06
-3.78287e-05
2.85833e-05
-4.29212e-05
3.4599e-05
-3.93749e-05
3.57459e-05
-3.34658e-05
3.62724e-05
-2.63272e-05
3.0942e-05
-1.84447e-05
2.35541e-05
-6.60217e-06
1.06907e-05
7.85544e-06
-3.05741e-06
1.80217e-05
-1.33027e-05
1.4427e-05
-1.14512e-05
1.4234e-07
-1.1999e-05
-1.60672e-05
-1.56476e-05
-7.72121e-05
2.7947e-05
-0.000199169
0.000114864
-0.000211979
3.08924e-05
-0.000199184
2.69615e-06
-0.000204793
2.0439e-05
-0.000233356
6.35088e-05
-0.000263604
0.000100676
-0.000270957
0.000114783
9.09041e-05
-0.000258543
-2.95361e-05
-3.34067e-06
-6.00868e-05
2.67708e-05
-7.29805e-05
4.1477e-05
-7.48962e-05
3.65147e-05
-6.94259e-05
3.02755e-05
-5.97842e-05
2.66307e-05
-5.1635e-05
2.27928e-05
-4.43662e-05
1.62852e-05
-4.09184e-05
7.2429e-06
-4.53376e-05
1.36179e-06
-4.62542e-05
-1.23861e-05
-7.13301e-05
1.36246e-05
-0.000163056
7.97271e-05
-0.000231338
5.26346e-05
-0.000258704
5.53126e-05
-0.000247313
0.000103473
-0.000226973
1.05522e-05
-0.000220027
-4.24953e-06
-0.000222048
2.24597e-05
-0.00023865
8.0111e-05
-0.000250563
0.000112589
-0.000251135
0.000115354
9.82244e-05
-0.000258455
-4.5055e-05
4.17143e-05
-7.96268e-05
6.13426e-05
-9.04839e-05
5.23341e-05
-8.85328e-05
3.45636e-05
-7.92603e-05
2.1003e-05
-6.99312e-05
1.73017e-05
-5.86258e-05
1.14874e-05
-5.62349e-05
1.38944e-05
-0.000100464
5.14722e-05
-0.000180798
8.16953e-05
-0.000219689
2.65053e-05
-0.000186153
-1.99116e-05
-0.000139553
3.31271e-05
-0.000143659
5.67407e-05
-0.000151535
6.31881e-05
-0.000154541
0.000106479
-0.000197606
5.36174e-05
-0.000203285
1.42914e-06
-0.000212824
3.19991e-05
-0.000215666
8.29531e-05
-0.00022019
0.000117113
-0.000236979
0.000132143
0.000232868
-0.000371623
-4.88279e-05
9.05422e-05
-9.90456e-05
0.00011156
-0.000105995
5.92833e-05
-9.32246e-05
2.17934e-05
-7.9342e-05
7.12039e-06
-6.49392e-05
2.89885e-06
-7.13759e-05
1.79241e-05
-8.52342e-05
2.77526e-05
-8.63952e-05
5.26333e-05
-7.5465e-05
7.0765e-05
-7.1169e-05
2.22093e-05
-8.01812e-05
-1.08993e-05
-7.12517e-05
2.41976e-05
-6.63785e-05
5.18675e-05
-7.02405e-05
6.70501e-05
-6.1711e-05
9.79495e-05
-0.000115753
0.000107659
-0.000186615
7.22916e-05
-0.000205813
5.11966e-05
-0.000201183
7.83229e-05
-0.000198037
0.000113967
-0.000253564
0.00018767
0.000323191
-0.000343887
-5.04106e-05
0.000140953
-5.97642e-05
0.000120914
-4.90053e-05
4.85244e-05
-3.36244e-05
6.41246e-06
-1.38359e-05
-1.26681e-05
4.85032e-06
-1.57874e-05
3.87121e-06
1.89032e-05
-3.4709e-05
6.63328e-05
-5.1203e-05
6.91273e-05
-5.34286e-05
7.29906e-05
-7.77918e-05
4.65724e-05
-9.65992e-05
7.90807e-06
-8.25604e-05
1.01588e-05
-6.80577e-05
3.73648e-05
-5.71762e-05
5.61687e-05
-3.90559e-05
7.98292e-05
-3.82733e-05
0.000106877
-9.91884e-05
0.000133207
-0.00017703
0.000129038
-0.000195853
9.71462e-05
-0.000206967
0.000125081
-0.000247214
0.000227917
0.000334847
-0.00025887
-5.14758e-06
0.0001461
2.48807e-06
0.000113278
-2.39679e-06
5.34093e-05
-1.16755e-05
1.56912e-05
-1.54945e-05
-8.84918e-06
-2.7121e-05
-4.16085e-06
-2.27049e-05
1.44872e-05
-1.80551e-05
6.1683e-05
-2.55347e-05
7.6607e-05
-2.86286e-05
7.60846e-05
-3.07184e-05
4.86622e-05
-3.3289e-05
1.04787e-05
-3.74627e-05
1.43324e-05
-3.19823e-05
3.18843e-05
-2.38432e-05
4.80296e-05
-1.41658e-05
7.01517e-05
-4.47714e-06
9.71882e-05
-1.4123e-06
0.000130142
-3.48493e-05
0.000162475
-9.95096e-05
0.000161807
-0.000158885
0.000184456
-0.000211707
0.000280739
0.00033034
-0.0002072
1.81961e-05
0.000127904
2.54253e-05
0.000106049
2.2623e-05
5.62115e-05
1.78539e-05
2.04603e-05
8.20669e-06
7.98067e-07
-6.70197e-06
1.07478e-05
-1.04735e-05
1.82587e-05
-7.51899e-06
5.87284e-05
-8.48184e-06
7.75699e-05
-4.17901e-06
7.17817e-05
-1.19549e-07
4.46028e-05
-1.16732e-05
2.20323e-05
-2.75855e-05
3.02447e-05
-2.79107e-05
3.22095e-05
-2.35407e-05
4.36597e-05
-1.51758e-05
6.17869e-05
-3.99051e-06
8.60029e-05
9.25772e-06
0.000116894
1.53646e-05
0.000156368
-1.6315e-05
0.000193486
-9.12356e-05
0.000259377
-0.00014603
0.000335533
0.000332935
-0.000148624
1.40346e-05
0.00011387
2.2478e-05
9.76056e-05
1.85822e-05
6.01073e-05
1.02086e-05
2.88339e-05
6.07562e-07
1.03991e-05
-2.61356e-06
1.39689e-05
-1.56391e-06
1.72091e-05
1.47881e-06
5.56857e-05
2.11414e-06
7.69345e-05
4.65384e-06
6.9242e-05
2.80205e-06
4.64546e-05
-3.89469e-06
2.87291e-05
-8.9738e-06
3.53238e-05
-1.39401e-05
3.71758e-05
-1.64381e-05
4.61577e-05
-1.45339e-05
5.98826e-05
-9.01593e-06
8.04849e-05
2.55542e-07
0.000107622
1.00283e-05
0.000146595
7.54317e-06
0.000195971
-2.293e-05
0.00028985
-6.2142e-05
0.000374745
0.000344701
-7.39078e-05
7.87701e-06
0.000105993
2.01693e-05
8.53132e-05
2.44887e-05
5.5788e-05
2.20146e-05
3.1308e-05
9.32926e-06
2.30845e-05
-2.54441e-06
2.58426e-05
-1.12893e-05
2.59539e-05
-2.88105e-06
4.72775e-05
7.53413e-06
6.65193e-05
1.34382e-05
6.33379e-05
1.14851e-05
4.84077e-05
1.33415e-06
3.888e-05
-7.31173e-06
4.39697e-05
-1.52961e-05
4.51602e-05
-1.93936e-05
5.02552e-05
-1.89589e-05
5.94479e-05
-1.5512e-05
7.70381e-05
-1.0749e-05
0.000102859
-2.16265e-07
0.000136063
1.32336e-05
0.000182521
2.96309e-05
0.000273453
4.46468e-05
0.00035973
0.000340121
4.92265e-05
9.11295e-06
9.68798e-05
1.92355e-05
7.51907e-05
2.16753e-05
5.33481e-05
1.58274e-05
3.71558e-05
8.59354e-06
3.03184e-05
1.0746e-06
3.33615e-05
-5.05984e-06
3.20884e-05
-3.14825e-06
4.53659e-05
7.22497e-06
5.61461e-05
1.25901e-05
5.79728e-05
7.48449e-06
5.35134e-05
-2.12388e-06
4.84884e-05
-8.23426e-06
5.00801e-05
-1.28784e-05
4.98043e-05
-1.65094e-05
5.38862e-05
-1.88589e-05
6.17975e-05
-1.80819e-05
7.62611e-05
-1.48146e-05
9.95918e-05
-8.43785e-06
0.000129686
6.17727e-06
0.000167906
3.75073e-05
0.000242123
8.30026e-05
0.000314234
0.00029549
0.000127634
1.28818e-05
8.3998e-05
1.96034e-05
6.84692e-05
2.07697e-05
5.21819e-05
1.60072e-05
4.19183e-05
8.64289e-06
3.76827e-05
2.7597e-06
3.92447e-05
-3.97124e-06
3.88193e-05
-3.84321e-06
4.52379e-05
1.58241e-06
5.07205e-05
4.17699e-06
5.53782e-05
1.1436e-06
5.65467e-05
-5.22656e-06
5.48586e-05
-9.64112e-06
5.44947e-05
-1.36625e-05
5.38257e-05
-1.64918e-05
5.67155e-05
-1.80911e-05
6.33968e-05
-1.74447e-05
7.56147e-05
-1.33764e-05
9.55234e-05
-6.33253e-06
0.000122642
6.87896e-06
0.000154695
4.26241e-05
0.000206377
0.000100515
0.000256343
0.00023699
0.000159015
1.17525e-05
7.22455e-05
1.72489e-05
6.29728e-05
1.74105e-05
5.20202e-05
1.34e-05
4.59288e-05
8.08607e-06
4.29967e-05
3.97374e-06
4.33571e-05
-5.69258e-07
4.33623e-05
-1.88503e-06
4.65537e-05
-4.44158e-07
4.92796e-05
1.03518e-06
5.38989e-05
4.57317e-07
5.71246e-05
-2.32953e-06
5.76454e-05
-5.43267e-06
5.75978e-05
-9.18789e-06
5.75809e-05
-1.21227e-05
5.96504e-05
-1.33683e-05
6.46424e-05
-1.18912e-05
7.41376e-05
-5.7014e-06
8.93335e-05
6.42365e-06
0.000110517
2.54469e-05
0.000135671
6.13084e-05
0.000170516
0.000118497
0.000199155
0.000180629
0.000174858
7.89852e-06
6.4347e-05
1.21444e-05
5.87269e-05
1.22747e-05
5.18899e-05
1.00286e-05
4.81749e-05
7.03652e-06
4.59887e-05
4.63408e-06
4.57595e-05
2.18579e-06
4.58106e-05
8.78552e-07
4.78609e-05
6.05852e-07
4.95523e-05
1.37314e-06
5.31316e-05
2.21564e-06
5.62821e-05
2.15801e-06
5.7703e-05
1.3563e-06
5.83995e-05
-3.57285e-07
5.92945e-05
-2.07677e-06
6.13699e-05
-2.81804e-06
6.53837e-05
-1.38714e-06
7.27067e-05
4.22244e-06
8.3724e-05
1.59906e-05
9.87488e-05
3.63962e-05
0.000115266
6.96577e-05
0.000137254
0.000119053
0.00014976
0.000134198
0.000165483
4.9339e-06
5.94131e-05
8.10946e-06
5.55514e-05
8.65016e-06
5.13492e-05
7.86561e-06
4.89594e-05
6.49004e-06
4.73643e-05
5.31923e-06
4.69303e-05
4.11878e-06
4.70111e-05
3.60229e-06
4.83774e-05
3.33371e-06
4.98209e-05
3.98188e-06
5.24834e-05
5.35853e-06
5.49055e-05
6.59559e-06
5.6466e-05
7.36306e-06
5.7632e-05
7.46919e-06
5.91883e-05
7.49518e-06
6.13439e-05
8.00509e-06
6.48738e-05
1.00724e-05
7.06394e-05
1.51659e-05
7.86304e-05
2.52498e-05
8.8665e-05
4.18403e-05
9.86753e-05
6.88267e-05
0.000110268
0.000105269
0.000113318
0.000102406
0.000137061
3.19937e-06
5.62138e-05
5.73799e-06
5.30127e-05
6.65669e-06
5.04305e-05
6.69499e-06
4.89211e-05
6.1857e-06
4.78736e-05
5.6215e-06
4.74945e-05
5.03665e-06
4.75959e-05
4.89954e-06
4.85145e-05
5.08208e-06
4.96384e-05
6.04455e-06
5.15209e-05
7.58789e-06
5.33621e-05
9.19549e-06
5.48584e-05
1.06304e-05
5.61971e-05
1.18271e-05
5.79916e-05
1.30464e-05
6.01246e-05
1.44858e-05
6.34344e-05
1.734e-05
6.77852e-05
2.29431e-05
7.30273e-05
3.21879e-05
7.94202e-05
4.5242e-05
8.56212e-05
6.46699e-05
9.08401e-05
8.86646e-05
8.93229e-05
8.11737e-05
0.000109896
2.34864e-06
5.38651e-05
4.37329e-06
5.09881e-05
5.35808e-06
4.94457e-05
5.73685e-06
4.85424e-05
5.72704e-06
4.78834e-05
5.59313e-06
4.76284e-05
5.43782e-06
4.77512e-05
5.56139e-06
4.83909e-05
5.98268e-06
4.92171e-05
7.05656e-06
5.04471e-05
8.64696e-06
5.17717e-05
1.0367e-05
5.31383e-05
1.2091e-05
5.44732e-05
1.38897e-05
5.61929e-05
1.57763e-05
5.8238e-05
1.81325e-05
6.10783e-05
2.1911e-05
6.40067e-05
2.78064e-05
6.71319e-05
3.61793e-05
7.10473e-05
4.70192e-05
7.47814e-05
6.11641e-05
7.66952e-05
7.71369e-05
7.33501e-05
6.61524e-05
9.21582e-05
1.87055e-06
5.19946e-05
3.45599e-06
4.94026e-05
4.42573e-06
4.84759e-05
5.07742e-06
4.78907e-05
5.50317e-06
4.74577e-05
5.76849e-06
4.73631e-05
5.99889e-06
4.75208e-05
6.38934e-06
4.80005e-05
6.95892e-06
4.86475e-05
7.91116e-06
4.94948e-05
9.27997e-06
5.04029e-05
1.0898e-05
5.15203e-05
1.26198e-05
5.27514e-05
1.4698e-05
5.41147e-05
1.72019e-05
5.57341e-05
2.05294e-05
5.77507e-05
2.47531e-05
5.9783e-05
3.01756e-05
6.17095e-05
3.74027e-05
6.38202e-05
4.65378e-05
6.56462e-05
5.75026e-05
6.57304e-05
6.89516e-05
6.19011e-05
5.51426e-05
7.99614e-05
1.53674e-06
5.04578e-05
2.92614e-06
4.80132e-05
3.99023e-06
4.74118e-05
4.82689e-06
4.7054e-05
5.46697e-06
4.68176e-05
6.05155e-06
4.67785e-05
6.68575e-06
4.68866e-05
7.41541e-06
4.72708e-05
8.28154e-06
4.77814e-05
9.32771e-06
4.84486e-05
1.06376e-05
4.9093e-05
1.22537e-05
4.99042e-05
1.40655e-05
5.09396e-05
1.62374e-05
5.19428e-05
1.8904e-05
5.30675e-05
2.24407e-05
5.42141e-05
2.67843e-05
5.54394e-05
3.18985e-05
5.65952e-05
3.82471e-05
5.74716e-05
4.59804e-05
5.79129e-05
5.47667e-05
5.69441e-05
6.35785e-05
5.30892e-05
4.69319e-05
7.17892e-05
1.37914e-06
4.90787e-05
2.63187e-06
4.67605e-05
3.68846e-06
4.63553e-05
4.60754e-06
4.61349e-05
5.43397e-06
4.59911e-05
6.25255e-06
4.596e-05
7.10648e-06
4.60327e-05
8.08265e-06
4.62946e-05
9.20295e-06
4.66611e-05
1.04777e-05
4.71739e-05
1.18851e-05
4.76857e-05
1.35616e-05
4.82277e-05
1.56039e-05
4.88973e-05
1.79645e-05
4.95821e-05
2.07717e-05
5.02603e-05
2.4016e-05
5.09698e-05
2.78305e-05
5.16248e-05
3.2483e-05
5.19426e-05
3.80791e-05
5.18755e-05
4.45636e-05
5.14283e-05
5.17079e-05
4.97998e-05
5.88312e-05
4.59659e-05
4.06975e-05
6.50656e-05
1.23067e-06
4.7848e-05
2.37197e-06
4.56192e-05
3.40992e-06
4.53173e-05
4.38239e-06
4.51625e-05
5.31014e-06
4.50634e-05
6.23142e-06
4.50387e-05
7.18393e-06
4.50802e-05
8.26338e-06
4.52152e-05
9.49259e-06
4.54319e-05
1.08635e-05
4.58029e-05
1.23457e-05
4.62035e-05
1.40587e-05
4.65147e-05
1.61085e-05
4.68475e-05
1.85143e-05
4.71763e-05
2.1281e-05
4.74936e-05
2.4448e-05
4.78028e-05
2.82249e-05
4.78479e-05
3.25777e-05
4.75899e-05
3.74445e-05
4.70086e-05
4.28969e-05
4.59759e-05
4.88097e-05
4.3887e-05
5.45254e-05
4.02503e-05
3.58247e-05
5.93982e-05
1.20228e-06
4.66457e-05
2.30923e-06
4.45123e-05
3.34652e-06
4.428e-05
4.3446e-06
4.41644e-05
5.32864e-06
4.40794e-05
6.33084e-06
4.40365e-05
7.37757e-06
4.40334e-05
8.51312e-06
4.40796e-05
9.75739e-06
4.41876e-05
1.11825e-05
4.43778e-05
1.28078e-05
4.45782e-05
1.46141e-05
4.47084e-05
1.66145e-05
4.48471e-05
1.8919e-05
4.48718e-05
2.15766e-05
4.48361e-05
2.46449e-05
4.47344e-05
2.80822e-05
4.44107e-05
3.1808e-05
4.38639e-05
3.60199e-05
4.27967e-05
4.07329e-05
4.1263e-05
4.56736e-05
3.89463e-05
5.0208e-05
3.57159e-05
3.17967e-05
5.4236e-05
1.13699e-06
4.55087e-05
2.2067e-06
4.34426e-05
3.24683e-06
4.32399e-05
4.25791e-06
4.31533e-05
5.2656e-06
4.30717e-05
6.3052e-06
4.29969e-05
7.39399e-06
4.29446e-05
8.55543e-06
4.29182e-05
9.81873e-06
4.29243e-05
1.12491e-05
4.29474e-05
1.28849e-05
4.29425e-05
1.4689e-05
4.29043e-05
1.67221e-05
4.28139e-05
1.89063e-05
4.26876e-05
2.12872e-05
4.24552e-05
2.40602e-05
4.19615e-05
2.71653e-05
4.13055e-05
3.07008e-05
4.03284e-05
3.45267e-05
3.89708e-05
3.85754e-05
3.72143e-05
4.25691e-05
3.49526e-05
4.63519e-05
3.1933e-05
2.82699e-05
4.98786e-05
1.09513e-06
4.44136e-05
2.13843e-06
4.23993e-05
3.17699e-06
4.22013e-05
4.21938e-06
4.21109e-05
5.26985e-06
4.20212e-05
6.33876e-06
4.19279e-05
7.45732e-06
4.18261e-05
8.65092e-06
4.17246e-05
9.94762e-06
4.16276e-05
1.13547e-05
4.15403e-05
1.28649e-05
4.14322e-05
1.4518e-05
4.12512e-05
1.63968e-05
4.09352e-05
1.85148e-05
4.05695e-05
2.09602e-05
4.00098e-05
2.35962e-05
3.93255e-05
2.64503e-05
3.84514e-05
2.94852e-05
3.72936e-05
3.26263e-05
3.58297e-05
3.59753e-05
3.38652e-05
3.94783e-05
3.14496e-05
4.28498e-05
2.85615e-05
2.52565e-05
4.58631e-05
1.05246e-06
4.33611e-05
2.05993e-06
4.13918e-05
3.06933e-06
4.11919e-05
4.08502e-06
4.10952e-05
5.11881e-06
4.09874e-05
6.18132e-06
4.08654e-05
7.28853e-06
4.07189e-05
8.45878e-06
4.05544e-05
9.72208e-06
4.03643e-05
1.11253e-05
4.01371e-05
1.26804e-05
3.98771e-05
1.43824e-05
3.95493e-05
1.61964e-05
3.91212e-05
1.81682e-05
3.85977e-05
2.02544e-05
3.79236e-05
2.25246e-05
3.70552e-05
2.5042e-05
3.5934e-05
2.77592e-05
3.45763e-05
3.06969e-05
3.2892e-05
3.36952e-05
3.0867e-05
3.66175e-05
2.85273e-05
3.9439e-05
2.57399e-05
2.25515e-05
4.21441e-05
1.03045e-06
4.23307e-05
2.027e-06
4.03952e-05
3.02582e-06
4.01931e-05
4.03212e-06
4.00889e-05
5.05732e-06
3.99622e-05
6.11637e-06
3.98064e-05
7.21556e-06
3.96197e-05
8.3695e-06
3.94004e-05
9.59557e-06
3.91382e-05
1.09031e-05
3.88296e-05
1.23054e-05
3.84748e-05
1.3831e-05
3.80237e-05
1.54896e-05
3.74626e-05
1.73091e-05
3.67782e-05
1.93065e-05
3.59261e-05
2.15109e-05
3.48509e-05
2.38266e-05
3.36182e-05
2.62488e-05
3.21542e-05
2.87011e-05
3.04396e-05
3.11896e-05
2.83785e-05
3.37484e-05
2.59685e-05
3.62577e-05
2.32307e-05
2.01917e-05
3.86173e-05
9.76717e-07
4.1354e-05
1.92258e-06
3.94494e-05
2.87952e-06
3.92361e-05
3.84935e-06
3.91191e-05
4.83931e-06
3.89722e-05
5.86245e-06
3.87832e-05
6.92722e-06
3.85549e-05
8.04524e-06
3.82824e-05
9.22692e-06
3.79565e-05
1.04898e-05
3.75666e-05
1.18687e-05
3.70959e-05
1.33471e-05
3.65453e-05
1.49285e-05
3.58812e-05
1.66226e-05
3.50841e-05
1.84213e-05
3.41275e-05
2.02919e-05
3.29803e-05
2.22701e-05
3.164e-05
2.43581e-05
3.00662e-05
2.65593e-05
2.82385e-05
2.8803e-05
2.61347e-05
3.10134e-05
2.37581e-05
3.31673e-05
2.10768e-05
1.81142e-05
3.52448e-05
9.48634e-07
4.04053e-05
1.87158e-06
3.85264e-05
2.80656e-06
3.83012e-05
3.74966e-06
3.8176e-05
4.70946e-06
3.80124e-05
5.69062e-06
3.78021e-05
6.7016e-06
3.75439e-05
7.75345e-06
3.72305e-05
8.85858e-06
3.68514e-05
1.00288e-05
3.63964e-05
1.12709e-05
3.58538e-05
1.25973e-05
3.5219e-05
1.40208e-05
3.44576e-05
1.55498e-05
3.35551e-05
1.71775e-05
3.24997e-05
1.89039e-05
3.12539e-05
2.07204e-05
2.98235e-05
2.25789e-05
2.82077e-05
2.44691e-05
2.63483e-05
2.63742e-05
2.42296e-05
2.82886e-05
2.18437e-05
3.0168e-05
1.91974e-05
1.63069e-05
3.19753e-05
8.91974e-07
3.95134e-05
1.76973e-06
3.76487e-05
2.65968e-06
3.74112e-05
3.55718e-06
3.72785e-05
4.46917e-06
3.71004e-05
5.39948e-06
3.68718e-05
6.356e-06
3.65874e-05
7.34893e-06
3.62376e-05
8.38508e-06
3.58152e-05
9.47602e-06
3.53055e-05
1.06268e-05
3.4703e-05
1.18533e-05
3.39924e-05
1.31535e-05
3.31574e-05
1.45248e-05
3.21838e-05
1.59664e-05
3.1058e-05
1.74715e-05
2.97488e-05
1.903e-05
2.82651e-05
2.06487e-05
2.65889e-05
2.23076e-05
2.46895e-05
2.39767e-05
2.25604e-05
2.56245e-05
2.01959e-05
2.72355e-05
1.75864e-05
1.47502e-05
2.87921e-05
8.53915e-07
3.86594e-05
1.69346e-06
3.68091e-05
2.54039e-06
3.65643e-05
3.39149e-06
3.64274e-05
4.25242e-06
3.62395e-05
5.1253e-06
3.59989e-05
6.0143e-06
3.56984e-05
6.92583e-06
3.53261e-05
7.86894e-06
3.48721e-05
8.86044e-06
3.4314e-05
9.90112e-06
3.36624e-05
1.09993e-05
3.28942e-05
1.21613e-05
3.19954e-05
1.33831e-05
3.0962e-05
1.46588e-05
2.97823e-05
1.59774e-05
2.84302e-05
1.73371e-05
2.69053e-05
1.87399e-05
2.51862e-05
2.01622e-05
2.32671e-05
2.15856e-05
2.11371e-05
2.29914e-05
1.87901e-05
2.43648e-05
1.62129e-05
1.34275e-05
2.56875e-05
8.07483e-07
3.7852e-05
1.60042e-06
3.60162e-05
2.39973e-06
3.5765e-05
3.19699e-06
3.56301e-05
4.00037e-06
3.54361e-05
4.81458e-06
3.51847e-05
5.64414e-06
3.48689e-05
6.4929e-06
3.44773e-05
7.36153e-06
3.40035e-05
8.25042e-06
3.34251e-05
9.16769e-06
3.27451e-05
1.0119e-05
3.19429e-05
1.11168e-05
3.09976e-05
1.21662e-05
2.99126e-05
1.32718e-05
2.86767e-05
1.44225e-05
2.72795e-05
1.56077e-05
2.572e-05
1.68057e-05
2.39882e-05
1.80086e-05
2.20643e-05
1.9212e-05
1.99337e-05
2.03983e-05
1.76038e-05
2.15464e-05
1.50648e-05
1.2324e-05
2.26499e-05
7.64504e-07
3.70874e-05
1.49292e-06
3.52877e-05
2.22718e-06
3.50307e-05
2.96106e-06
3.48962e-05
3.70337e-06
3.46938e-05
4.46014e-06
3.44279e-05
5.23467e-06
3.40943e-05
6.0218e-06
3.36902e-05
6.82365e-06
3.32016e-05
7.62915e-06
3.26196e-05
8.44806e-06
3.19262e-05
9.285e-06
3.1106e-05
1.01407e-05
3.01419e-05
1.10182e-05
2.90352e-05
1.19221e-05
2.77728e-05
1.28537e-05
2.6348e-05
1.3823e-05
2.47507e-05
1.48353e-05
2.29758e-05
1.58609e-05
2.10386e-05
1.6865e-05
1.89296e-05
1.78408e-05
1.6628e-05
1.87804e-05
1.41251e-05
1.14284e-05
1.96759e-05
7.25402e-07
3.6362e-05
1.37483e-06
3.46383e-05
2.02435e-06
3.43812e-05
2.67888e-06
3.42417e-05
3.34293e-06
3.40298e-05
4.02063e-06
3.37502e-05
4.7207e-06
3.33943e-05
5.43702e-06
3.29738e-05
6.16812e-06
3.24705e-05
6.90757e-06
3.18801e-05
7.65351e-06
3.11802e-05
8.40236e-06
3.03571e-05
9.14622e-06
2.9398e-05
9.88921e-06
2.82922e-05
1.0635e-05
2.7027e-05
1.13885e-05
2.55944e-05
1.21497e-05
2.39895e-05
1.29154e-05
2.22102e-05
1.36984e-05
2.02556e-05
1.45121e-05
1.81159e-05
1.53147e-05
1.58255e-05
1.60649e-05
1.33749e-05
1.07308e-05
1.67626e-05
6.6951e-07
3.56925e-05
1.19574e-06
3.41121e-05
1.72303e-06
3.38539e-05
2.26305e-06
3.37017e-05
2.81534e-06
3.34775e-05
3.38563e-06
3.31799e-05
3.97877e-06
3.28011e-05
4.60003e-06
3.23526e-05
5.24642e-06
3.18241e-05
5.91215e-06
3.12144e-05
6.5828e-06
3.05096e-05
7.24477e-06
2.96951e-05
7.90605e-06
2.87368e-05
8.57631e-06
2.76219e-05
9.23876e-06
2.63646e-05
9.89154e-06
2.49416e-05
1.05215e-05
2.33596e-05
1.11202e-05
2.16114e-05
1.16997e-05
1.96762e-05
1.22568e-05
1.75588e-05
1.28127e-05
1.52695e-05
1.33798e-05
1.28078e-05
1.02082e-05
1.39023e-05
5.69848e-07
3.51227e-05
9.0957e-07
3.37724e-05
1.23585e-06
3.35276e-05
1.60028e-06
3.33372e-05
1.99385e-06
3.30839e-05
2.41314e-06
3.27606e-05
2.8646e-06
3.23497e-05
3.36218e-06
3.1855e-05
3.90778e-06
3.12785e-05
4.50102e-06
3.06212e-05
5.13183e-06
2.98788e-05
5.78119e-06
2.90458e-05
6.421e-06
2.80969e-05
7.03876e-06
2.70042e-05
7.61557e-06
2.57878e-05
8.15938e-06
2.43978e-05
8.69045e-06
2.28285e-05
9.21252e-06
2.10894e-05