/*--------------------------------*- C++ -*----------------------------------*\
| =========                 |                                                 |
| \\      /  F ield         | OpenFOAM: The Open Source CFD Toolbox           |
|  \\    /   O peration     | Version:  2.4.0                                 |
|   \\  /    A nd           | Web:      www.OpenFOAM.org                      |
|    \\/     M anipulation  |                                                 |
\*---------------------------------------------------------------------------*/
FoamFile
{
    version     2.0;
    format      ascii;
    class       surfaceScalarField;
    location    "0.8";
    object      phi.oil;
}
// * * * * * * * * * * * * * * * * * * * * * * * * * * * * * * * * * * * * * //

dimensions      [0 3 -1 0 0 0 0];

internalField   nonuniform List<scalar> 
4432
(
1.25702e-06
-1.25028e-06
2.699e-06
-1.43554e-06
3.2251e-06
-5.24589e-07
3.04122e-06
1.84047e-07
2.32314e-06
7.18097e-07
-1.26668e-07
2.44981e-06
-4.52572e-06
4.39906e-06
-1.06677e-05
6.14204e-06
-1.54578e-05
4.79001e-06
-1.79491e-05
2.4913e-06
-1.94633e-05
1.51427e-06
-2.00246e-05
5.61312e-07
-1.924e-05
-7.84563e-07
-1.70354e-05
-2.20458e-06
-1.44509e-05
-2.58421e-06
-1.23753e-05
-2.07489e-06
-1.09564e-05
-1.4169e-06
-9.7698e-06
-1.18298e-06
-8.38764e-06
-1.37307e-06
-6.14492e-06
-2.18335e-06
-4.53897e-06
-1.21495e-06
-3.86955e-06
5.74891e-07
-1.90819e-06
1.21931e-06
-2.26266e-06
2.39974e-06
-2.37297e-06
3.19353e-06
-1.04625e-06
3.75289e-06
-9.95533e-08
3.88279e-06
7.56334e-07
1.774e-06
4.58629e-06
-2.86892e-06
9.04215e-06
-9.77328e-06
1.30464e-05
-1.55459e-05
1.05627e-05
-1.89214e-05
5.86677e-06
-2.02544e-05
2.84728e-06
-2.03873e-05
6.94173e-07
-1.91515e-05
-2.02034e-06
-1.68784e-05
-4.47766e-06
-1.43461e-05
-5.11651e-06
-1.22243e-05
-4.19629e-06
-1.0649e-05
-2.99144e-06
-9.40785e-06
-2.4214e-06
-7.75013e-06
-3.02613e-06
-5.7181e-06
-4.2053e-06
-3.77245e-06
-3.27161e-06
-2.26151e-06
-1.24631e-06
-3.9584e-06
1.45716e-06
-1.4948e-05
2.25075e-06
-1.4157e-05
3.71593e-06
-1.25871e-05
3.97445e-06
-8.65663e-06
1.70205e-06
-2.83143e-06
-1.69188e-06
5.09428e-06
-5.55661e-06
1.22188e-05
-1.13617e-05
1.8934e-05
-1.61397e-05
1.53466e-05
-1.91357e-05
8.8628e-06
-2.03982e-05
4.10972e-06
-2.02173e-05
5.13255e-07
-1.89091e-05
-3.32851e-06
-1.67936e-05
-6.59313e-06
-1.45448e-05
-7.36386e-06
-1.24628e-05
-6.27244e-06
-1.05598e-05
-4.88656e-06
-9.01304e-06
-3.95628e-06
-7.20798e-06
-4.80022e-06
-5.51651e-06
-5.80943e-06
-3.41329e-06
-5.26709e-06
-1.37225e-06
-3.49417e-06
-5.38157e-06
1.16541e-06
-1.30664e-05
1.08977e-06
-1.17595e-05
1.63586e-06
-1.21106e-05
1.59858e-06
-1.06661e-05
6.62382e-07
-1.55435e-05
-1.41449e-06
-9.4566e-06
-7.35207e-06
4.98978e-06
-1.42553e-05
2.17324e-05
-1.84524e-05
1.99214e-05
-2.0408e-05
1.0836e-05
-2.0488e-05
4.18983e-06
-1.99997e-05
2.49875e-08
-1.88584e-05
-4.46917e-06
-1.67777e-05
-8.65108e-06
-1.42998e-05
-9.69222e-06
-1.18003e-05
-8.50575e-06
-9.4897e-06
-6.91657e-06
-7.90453e-06
-5.34451e-06
-6.98668e-06
-5.51075e-06
-6.61877e-06
-5.88563e-06
-4.82194e-06
-6.58028e-06
-2.12474e-06
-5.76682e-06
-7.47495e-06
-4.7533e-07
-4.49104e-06
-4.29174e-07
-3.09321e-06
-8.08497e-07
-2.48084e-06
-4.37927e-07
-4.33755e-07
-2.39414e-08
3.36844e-06
-1.42585e-06
8.91841e-06
-9.17684e-06
1.27296e-05
-1.93077e-05
2.19159e-05
-2.39934e-05
2.26497e-05
-2.54033e-05
1.24832e-05
-2.47623e-05
3.56397e-06
-2.26742e-05
-2.05474e-06
-2.02822e-05
-6.73176e-06
-1.77466e-05
-1.05987e-05
-1.4681e-05
-1.18137e-05
-1.14012e-05
-1.09008e-05
-8.50639e-06
-9.05773e-06
-7.00361e-06
-6.32649e-06
-6.81145e-06
-5.37449e-06
-6.9868e-06
-5.50556e-06
-6.25738e-06
-7.13343e-06
-3.56067e-06
-8.43104e-06
-1.15394e-05
-2.55141e-07
-4.23598e-06
-2.27225e-06
-1.0762e-06
-5.91825e-06
1.16507e-06
-1.15361e-05
5.18397e-06
-1.73553e-05
9.33553e-06
-1.88575e-05
1.34643e-05
-2.41333e-05
2.74703e-05
-2.92001e-05
2.55742e-05
-3.10348e-05
1.98464e-05
-3.01665e-05
1.14446e-05
-2.90724e-05
2.57503e-06
-2.72584e-05
-3.3568e-06
-2.45757e-05
-8.22528e-06
-2.14603e-05
-1.26896e-05
-1.74382e-05
-1.54981e-05
-1.30135e-05
-1.52562e-05
-9.34254e-06
-1.28316e-05
-7.32609e-06
-8.38912e-06
-6.82367e-06
-5.7478e-06
-6.93527e-06
-5.35424e-06
-6.63367e-06
-7.75068e-06
-4.74093e-06
-1.01627e-05
-6.87977e-06
-7.59676e-07
-3.47648e-06
-8.58276e-07
-9.77806e-07
-1.53477e-06
1.84135e-06
-3.7539e-06
7.40525e-06
-7.82793e-06
1.34381e-05
-1.53578e-05
2.05943e-05
-2.9107e-05
3.74152e-05
-3.86269e-05
3.41836e-05
-4.15905e-05
1.68667e-05
-3.97456e-05
7.501e-06
-3.52679e-05
-1.38504e-06
-3.08668e-05
-7.02534e-06
-2.71532e-05
-1.2423e-05
-2.2999e-05
-2.02363e-05
-1.88331e-05
-2.58821e-05
-1.52818e-05
-2.47851e-05
-1.23035e-05
-1.80436e-05
-9.41452e-06
-6.89787e-06
-7.06978e-06
1.08055e-06
-5.76177e-06
2.68469e-06
-6.10235e-06
-4.16708e-06
-4.97838e-06
1.48868e-06
4.54882e-06
5.56531e-07
-4.03327e-06
-1.17997e-06
6.55368e-07
-4.22107e-06
4.60561e-06
-7.29567e-06
1.03233e-05
-1.03665e-05
1.64704e-05
-1.37746e-05
2.36143e-05
-2.31859e-05
4.46849e-05
-3.47598e-05
4.70339e-05
-4.19489e-05
2.06082e-05
-4.30701e-05
3.24583e-06
-4.0961e-05
-6.9633e-06
-3.60928e-05
-1.6981e-05
-2.91256e-05
-2.67471e-05
-2.06837e-05
-3.62335e-05
-1.56821e-05
-1.79658e-05
-1.47109e-05
-1.01445e-05
-1.33055e-05
-8.87685e-06
-1.20298e-05
-5.49573e-06
-8.70329e-06
-1.70946e-06
-5.07088e-06
2.57839e-06
-6.7762e-06
5.49378e-06
-1.16565e-05
5.51268e-06
-6.88115e-06
4.17798e-07
4.46466e-05
2.15778e-05
2.70385e-05
3.13848e-05
3.75485e-05
3.45858e-05
3.83369e-05
3.66062e-05
3.87572e-05
3.81759e-05
3.92106e-05
4.00065e-05
3.89574e-05
4.27613e-05
3.8989e-05
4.61019e-05
3.9242e-05
4.91868e-05
3.93447e-05
5.22981e-05
3.94043e-05
5.44419e-05
4.0721e-05
5.39237e-05
4.46301e-05
4.81183e-05
5.24403e-05
3.45959e-05
6.06032e-05
1.77551e-05
6.62533e-05
5.00572e-06
6.85797e-05
-2.22169e-06
5.85275e-05
4.33619e-05
7.77914e-06
1.71703e-05
3.83045e-05
-1.99034e-05
4.72616e-05
8.8397e-06
4.9449e-05
1.69814e-05
5.06305e-05
1.8311e-05
4.93732e-05
1.68129e-05
4.88552e-05
1.71791e-05
5.01916e-05
2.03573e-05
5.18404e-05
2.16743e-05
5.28662e-05
2.14474e-05
5.41993e-05
2.0275e-05
5.5796e-05
2.09251e-05
5.60175e-05
2.69538e-05
4.86231e-05
2.34259e-05
3.40438e-05
4.06009e-05
1.87207e-05
5.35808e-05
1.13354e-05
5.7807e-05
-1.48742e-06
4.32608e-05
1.98639e-05
3.25014e-05
1.42083e-05
4.80012e-05
-4.3307e-05
6.08887e-05
-1.27711e-05
6.92442e-05
-1.70391e-06
7.40616e-05
6.75906e-07
7.66998e-05
5.06659e-06
7.44471e-05
1.04326e-05
6.75245e-05
1.38007e-05
5.86304e-05
1.57842e-05
4.90568e-05
1.71683e-05
3.9419e-05
1.69415e-05
2.7959e-05
1.74543e-05
1.5885e-05
1.91642e-05
1.45943e-05
1.17342e-05
1.27147e-05
3.20253e-05
1.33901e-05
6.56671e-05
9.35428e-06
8.08546e-05
1.0349e-06
7.40797e-05
3.79022e-05
3.78262e-05
-3.97936e-05
4.24478e-05
-4.91591e-05
5.09194e-05
-2.41477e-05
5.81125e-05
-1.11779e-05
6.31097e-05
-3.24992e-06
6.3704e-05
5.88048e-06
6.14974e-05
1.30835e-05
5.85562e-05
1.80124e-05
5.42189e-05
2.2553e-05
4.84881e-05
2.59206e-05
3.94983e-05
2.8454e-05
2.58163e-05
3.48693e-05
1.11789e-05
3.85884e-05
-1.46597e-05
4.21831e-05
-2.23947e-05
2.65633e-05
3.65558e-06
2.86111e-05
9.70484e-06
7.53301e-05
6.17539e-06
7.33031e-05
2.7751e-05
3.33357e-05
-7.79577e-05
3.7902e-05
-5.82481e-05
4.16675e-05
-3.27059e-05
4.82747e-05
-1.95778e-05
5.35884e-05
-8.48371e-06
5.49261e-05
3.90401e-06
5.14976e-05
1.36191e-05
4.57351e-05
1.94605e-05
4.04522e-05
2.1714e-05
3.74804e-05
2.36922e-05
3.2536e-05
2.75766e-05
2.21526e-05
4.00523e-05
3.60641e-06
5.40357e-05
-2.37484e-05
7.15126e-05
-3.45732e-05
3.39879e-05
-1.65363e-05
1.2915e-05
4.52573e-06
5.41086e-05
5.89061e-06
7.10013e-05
4.36042e-05
1.68274e-05
-0.000117537
1.9233e-05
-6.90697e-05
2.43472e-05
-4.46162e-05
3.30206e-05
-3.32094e-05
3.81653e-05
-1.95924e-05
3.94818e-05
-2.97422e-06
3.91904e-05
1.50444e-05
3.69267e-05
2.59151e-05
3.26676e-05
3.02661e-05
2.92939e-05
2.77162e-05
2.66533e-05
2.92887e-05
2.06139e-05
4.43069e-05
5.38778e-06
7.29372e-05
-1.94453e-05
0.000100602
-2.93798e-05
4.16426e-05
-1.8609e-05
-3.08408e-06
3.6168e-06
4.13239e-05
8.17114e-06
6.64985e-05
4.88995e-05
1.93119e-06
-0.000129087
-3.9418e-06
-6.99797e-05
4.78471e-06
-5.78209e-05
2.06871e-05
-5.37301e-05
3.27727e-05
-3.66706e-05
3.72066e-05
-1.2425e-05
3.49037e-05
1.05718e-05
3.05621e-05
2.38464e-05
2.45452e-05
3.27001e-05
2.11933e-05
3.02444e-05
2.03313e-05
3.12255e-05
1.93582e-05
4.51388e-05
1.04246e-05
8.1683e-05
-1.03482e-05
0.00012553
-2.39853e-05
5.26222e-05
-2.46454e-05
-1.1702e-05
-4.74704e-06
2.3462e-05
8.06148e-06
5.61163e-05
5.565e-05
-1.5024e-05
-0.000114177
-1.65345e-05
-6.259e-05
-5.68069e-06
-6.72633e-05
6.42295e-06
-6.69102e-05
1.96854e-05
-5.14778e-05
3.10096e-05
-2.66565e-05
3.40159e-05
2.9297e-06
2.95258e-05
2.56795e-05
2.31422e-05
3.87385e-05
1.79311e-05
3.7877e-05
1.62136e-05
3.56755e-05
1.64717e-05
4.71238e-05
1.53608e-05
8.25833e-05
-1.59311e-07
0.000143343
-2.0009e-05
6.87854e-05
-2.87151e-05
-1.16205e-05
-1.63759e-05
8.616e-06
2.39086e-06
3.30692e-05
4.41697e-05
1.54212e-06
-5.50405e-06
5.73936e-06
1.81934e-06
8.63409e-06
1.31432e-05
6.65754e-06
1.07285e-05
-1.71175e-06
1.59377e-05
-8.63745e-06
2.19978e-05
-1.16679e-05
2.97111e-05
-1.76991e-05
3.94044e-05
-3.01161e-05
3.98975e-05
-4.21646e-05
1.4753e-05
-4.84945e-05
-8.65334e-06
-4.66855e-05
-3.44642e-05
-3.11304e-05
-2.40716e-05
-2.02943e-05
-2.58483e-05
-2.25215e-05
-2.79136e-05
-2.45148e-05
-1.35862e-05
-2.76104e-05
-2.87349e-06
-2.90631e-05
-1.08481e-06
-2.90104e-05
-1.08913e-06
-2.98122e-05
3.87116e-06
-3.46463e-05
1.15602e-05
-4.0371e-05
1.16436e-05
-1.70831e-05
-4.85437e-05
5.10255e-06
-9.63522e-06
7.36565e-06
1.40322e-06
5.45495e-06
1.60147e-05
1.95058e-06
2.42734e-05
4.33594e-07
3.04408e-05
1.23547e-06
3.80883e-05
5.81128e-06
4.17175e-05
1.55621e-05
4.40686e-05
2.38955e-05
3.39689e-05
2.64122e-05
1.96259e-05
2.88826e-05
9.71585e-06
2.01139e-05
-6.28353e-06
2.34777e-05
-1.68797e-05
2.23349e-05
-1.93593e-05
2.31936e-05
-1.47197e-05
2.35547e-05
-7.78645e-06
2.29854e-05
-2.14419e-06
2.00896e-05
2.49104e-07
1.33597e-05
4.49652e-06
6.91227e-06
9.43808e-06
3.48872e-06
1.55522e-05
4.40605e-06
1.11734e-05
-7.05765e-06
-1.33367e-05
9.37969e-06
-1.32608e-05
1.97755e-05
-3.04765e-06
2.23319e-05
1.80347e-05
1.73038e-05
3.55172e-05
9.04131e-06
4.89775e-05
3.25336e-06
5.13098e-05
4.37087e-06
5.13574e-05
1.40576e-05
4.94663e-05
2.62371e-05
4.0709e-05
3.62709e-05
2.55501e-05
4.04765e-05
8.47089e-06
3.66547e-05
-4.26896e-06
3.43003e-05
-1.5178e-05
3.66737e-05
-2.40291e-05
4.23047e-05
-3.09492e-05
4.06104e-05
-3.34258e-05
3.17039e-05
-2.77281e-05
2.08503e-05
-1.31901e-05
1.60699e-05
3.71614e-06
6.27156e-06
1.41707e-05
-1.35425e-05
2.65017e-05
-6.04021e-05
5.40227e-05
6.0589e-05
-0.000118546
1.77185e-05
-2.77044e-05
2.39554e-05
-1.22517e-05
1.09216e-05
2.0629e-05
2.07628e-06
3.82901e-05
-2.16484e-06
4.98842e-05
-5.98904e-06
5.31342e-05
-4.77858e-06
4.87162e-05
2.70658e-06
4.17014e-05
1.2712e-05
3.18303e-05
2.0684e-05
1.98694e-05
2.54412e-05
4.45603e-06
2.71142e-05
-1.01576e-05
2.88894e-05
-3.24205e-05
2.57481e-05
-6.17586e-05
2.28091e-05
-8.55752e-05
1.74062e-05
-9.1782e-05
-3.26516e-06
-3.86364e-05
-2.83222e-05
-7.50509e-06
-5.12024e-05
1.37223e-05
-8.29145e-05
3.95696e-05
-0.000137986
7.56777e-05
-0.000205502
0.00011139
0.000100195
-0.000251736
-3.70663e-06
-2.47133e-05
-2.2357e-05
-1.47833e-07
-3.82378e-05
2.99464e-05
-4.55598e-05
3.74149e-05
-4.23867e-05
4.04321e-05
-3.54977e-05
4.12734e-05
-2.74238e-05
3.63818e-05
-1.86692e-05
2.87198e-05
-5.34349e-06
1.31826e-05
1.01908e-05
-6.59281e-06
1.93715e-05
-4.30123e-05
1.31588e-05
-7.4255e-05
-6.44131e-07
-0.000101207
-7.97621e-06
-9.86039e-05
-3.90014e-05
-0.00010741
-0.000135788
-6.36387e-05
-0.000201506
-1.83527e-05
-0.000196107
2.10761e-06
-0.000206015
2.31752e-05
-0.000235306
6.51419e-05
-0.000265332
0.000102079
-0.000272454
0.000111225
5.22439e-05
-0.00025917
-2.93129e-05
-8.75615e-06
-6.07745e-05
-8.36247e-07
-7.38726e-05
-3.21608e-06
-7.58559e-05
-7.97052e-06
-7.0578e-05
-1.28714e-05
-6.09202e-05
-1.5008e-05
-5.26654e-05
-1.95939e-05
-4.55065e-05
-3.02577e-05
-4.20941e-05
-4.7012e-05
-4.6796e-05
-6.68874e-05
-4.89029e-05
-9.44156e-05
-4.57906e-05
-0.000113553
-5.27569e-05
-7.94735e-05
-3.87376e-05
-4.19854e-05
-0.000118453
-6.38985e-05
-0.000230605
-3.2443e-05
-0.000214127
-2.85661e-05
-0.000214923
-1.74393e-05
-0.000222784
1.96826e-05
-0.000239748
8.068e-05
-0.000251899
0.000111241
-0.000262107
0.000106494
1.90936e-05
-0.000279193
-5.68716e-05
-2.44169e-05
-8.80638e-05
-2.81233e-05
-9.38728e-05
-4.0997e-05
-9.06063e-05
-4.96172e-05
-7.97057e-05
-5.94556e-05
-7.14274e-05
-5.99886e-05
-6.38145e-05
-6.21543e-05
-6.06424e-05
-7.76797e-05
-6.61935e-05
-8.81445e-05
-7.19617e-05
-6.3284e-05
-6.04992e-05
-4.53069e-05
-8.14107e-05
-4.59312e-05
-0.000109459
3.03534e-07
-0.00017202
3.67192e-05
-0.000190403
2.06093e-05
-0.000242643
-2.17091e-05
-0.000214114
-3.85353e-05
-0.000196757
-1.40221e-05
-0.000209274
1.95152e-05
-0.000217604
7.87137e-05
-0.000226311
0.000115821
-0.000270083
0.000120285
8.46049e-05
-0.000308981
-7.60411e-05
-4.92157e-05
-0.000100934
-4.49996e-05
-9.87489e-05
-5.2727e-05
-8.92714e-05
-4.29386e-05
-7.59655e-05
-3.67851e-05
-6.68723e-05
-3.18802e-05
-6.32894e-05
-4.53507e-05
-6.08065e-05
-5.06909e-05
-5.98161e-05
-5.0405e-05
-5.0961e-05
-1.19263e-05
-5.83758e-05
8.15707e-06
-8.02037e-05
-1.11504e-05
-7.1065e-05
2.39267e-05
-6.62898e-05
4.7963e-05
-9.66971e-05
6.52261e-05
-0.000207967
3.12212e-05
-0.00023004
7.8162e-06
-0.000206126
1.51913e-05
-0.00019509
3.19645e-05
-0.000201383
6.0061e-05
-0.000217582
0.000105575
-0.000284651
0.000141342
0.000155862
-0.000266735
-7.16566e-05
-4.90769e-07
-7.91957e-05
1.41174e-05
-6.05729e-05
1.29004e-06
-3.62341e-05
-1.17769e-05
-1.61501e-05
-1.47578e-05
4.87052e-06
-1.68127e-05
2.26683e-06
1.73612e-05
-3.58207e-05
6.09347e-05
-4.92292e-05
6.35457e-05
-5.31946e-05
7.28833e-05
-7.82991e-05
4.65261e-05
-9.2125e-05
8.60342e-06
-8.15645e-05
8.77577e-06
-6.83454e-05
3.4181e-05
-5.35259e-05
4.94129e-05
-6.56372e-05
7.5867e-05
-0.000153061
7.15173e-05
-0.000223757
5.54985e-05
-0.000205879
5.79041e-05
-0.000194635
6.33336e-05
-0.000208663
9.33981e-05
-0.000284029
0.000136877
0.000178832
-0.00020957
-1.34447e-05
7.27696e-05
1.74491e-07
0.000109767
-8.49532e-07
5.32568e-05
-1.1596e-05
1.6004e-05
-1.50092e-05
-8.31336e-06
-2.71199e-05
-3.97166e-06
-2.26747e-05
1.48915e-05
-1.81251e-05
6.15495e-05
-2.5527e-05
7.65359e-05
-2.86455e-05
7.60083e-05
-3.05454e-05
4.86033e-05
-3.21295e-05
1.03118e-05
-3.6741e-05
1.17408e-05
-3.17291e-05
3.03791e-05
-2.39779e-05
4.58688e-05
-1.49268e-05
6.72651e-05
-9.89134e-05
9.31858e-05
-0.000208594
8.03077e-05
-0.000222128
8.25344e-05
-0.000202682
7.7973e-05
-0.000197832
8.7914e-05
-0.000236726
0.000121393
0.000195966
-0.000182698
1.74573e-05
0.000125789
2.50136e-05
0.000103843
2.20511e-05
5.31855e-05
1.8175e-05
1.98808e-05
8.76832e-06
1.26507e-06
-6.95913e-06
1.09109e-05
-1.04944e-05
1.85493e-05
-7.44202e-06
5.84086e-05
-8.47665e-06
7.73574e-05
-4.19115e-06
7.17086e-05
-2.6041e-08
4.44057e-05
-1.41116e-05
2.12563e-05
-2.57864e-05
2.9969e-05
-2.83743e-05
3.08473e-05
-2.42783e-05
4.20805e-05
-1.61974e-05
5.78125e-05
-1.18276e-05
8.3932e-05
-9.28236e-05
0.00011361
-0.000194959
0.00010141
-0.000209966
0.000108127
-0.000203631
0.000127208
-0.000175911
0.000157668
0.000266474
-0.000145343
1.31272e-05
0.00011122
2.18745e-05
9.39886e-05
1.85602e-05
5.93901e-05
1.09418e-05
2.82441e-05
6.1645e-07
1.01622e-05
-2.70887e-06
1.39152e-05
-1.31551e-06
1.69987e-05
1.48553e-06
5.55352e-05
2.03272e-06
7.67431e-05
4.64883e-06
6.89214e-05
2.6969e-06
4.61288e-05
-4.23194e-06
2.87732e-05
-9.03944e-06
3.40319e-05
-1.44475e-05
3.09374e-05
-1.6217e-05
3.8585e-05
-1.44823e-05
5.68306e-05
-9.30736e-06
7.8212e-05
-6.2791e-06
0.000105101
-1.10969e-05
0.000141769
-3.63237e-05
0.000185772
-7.6007e-05
0.000262044
-0.00010132
0.000337189
0.000337775
-8.91335e-05
6.25146e-06
0.000102151
2.00287e-05
8.48518e-05
2.42133e-05
5.55636e-05
2.22534e-05
3.12147e-05
9.40709e-06
2.31042e-05
-2.7735e-06
2.5839e-05
-1.11378e-05
2.599e-05
-2.87295e-06
4.72467e-05
7.47652e-06
6.65249e-05
1.33865e-05
6.24538e-05
1.14459e-05
4.81555e-05
1.47365e-06
3.85479e-05
-7.34807e-06
4.34522e-05
-1.54909e-05
4.47204e-05
-1.9442e-05
4.94113e-05
-1.82424e-05
5.9104e-05
-1.417e-05
7.46903e-05
-1.23367e-05
9.80288e-05
-8.765e-06
0.000132491
-3.5141e-06
0.000178723
3.72007e-06
0.00026675
1.15239e-05
0.000353364
0.000346003
1.87641e-05
8.71982e-06
9.6833e-05
1.91872e-05
7.51585e-05
2.16298e-05
5.32784e-05
1.59687e-05
3.70272e-05
8.60236e-06
3.02982e-05
1.02778e-06
3.33579e-05
-5.13172e-06
3.20293e-05
-3.02817e-06
4.52731e-05
7.6798e-06
5.61363e-05
1.25624e-05
5.76209e-05
7.62712e-06
5.30545e-05
-1.86956e-06
4.76144e-05
-8.25292e-06
4.99249e-05
-1.29126e-05
4.96873e-05
-1.65648e-05
5.37705e-05
-1.88723e-05
6.16819e-05
-1.62914e-05
7.59095e-05
-1.42004e-05
9.46542e-05
-1.33231e-05
0.000118475
-5.84276e-06
0.000162487
1.59022e-05
0.000243047
5.46393e-05
0.000320851
0.000308583
9.86753e-05
1.26701e-05
8.40752e-05
1.95626e-05
6.84619e-05
2.07664e-05
5.2135e-05
1.60291e-05
4.18994e-05
8.6445e-06
3.7679e-05
2.74809e-06
3.9241e-05
-3.99131e-06
3.88028e-05
-3.75843e-06
4.52114e-05
1.74292e-06
5.06517e-05
4.15509e-06
5.49669e-05
1.3278e-06
5.58451e-05
-5.24649e-06
5.46169e-05
-9.68183e-06
5.44116e-05
-1.3695e-05
5.34966e-05
-1.65342e-05
5.53171e-05
-1.81443e-05
6.29219e-05
-1.71101e-05
7.54431e-05
-1.20069e-05
9.41747e-05
-7.48622e-06
0.000114089
1.37753e-06
0.000138659
2.91247e-05
0.00020035
7.99484e-05
0.000260788
0.000244443
0.000137837
1.16683e-05
7.22808e-05
1.72118e-05
6.29757e-05
1.74192e-05
5.20124e-05
1.34014e-05
4.59251e-05
8.0873e-06
4.2993e-05
3.97442e-06
4.33532e-05
-5.69631e-07
4.33577e-05
-1.87967e-06
4.65474e-05
-4.32691e-07
4.9264e-05
1.04284e-06
5.38645e-05
4.71244e-07
5.70135e-05
-2.39935e-06
5.76014e-05
-5.58671e-06
5.74957e-05
-9.37121e-06
5.73433e-05
-1.20659e-05
5.91748e-05
-1.33963e-05
6.33062e-05
-1.18768e-05
7.39186e-05
-5.11171e-06
8.91567e-05
6.80854e-06
0.000109293
2.39757e-05
0.000130182
5.65512e-05
0.000149775
0.000108206
0.000182394
0.000164211
0.00016599
7.87701e-06
6.43615e-05
1.21394e-05
5.87268e-05
1.22755e-05
5.18864e-05
1.00294e-05
4.81713e-05
7.03753e-06
4.5985e-05
4.63522e-06
4.57556e-05
2.18706e-06
4.58064e-05
8.79685e-07
4.78563e-05
6.07459e-07
4.95468e-05
1.37547e-06
5.31255e-05
2.2172e-06
5.62755e-05
2.13637e-06
5.76861e-05
1.2295e-06
5.83105e-05
-5.4983e-07
5.90411e-05
-2.21522e-06
6.0953e-05
-2.84518e-06
6.49894e-05
-1.48985e-06
7.23375e-05
4.41737e-06
8.36362e-05
1.65731e-05
9.84183e-05
3.70786e-05
0.00011395
6.8987e-05
0.000132573
0.000116171
0.000138891
0.000127686
0.000162923
4.93245e-06
5.94109e-05
8.10969e-06
5.55479e-05
8.65067e-06
5.13456e-05
7.86628e-06
4.89558e-05
6.49085e-06
4.73605e-05
5.32016e-06
4.69263e-05
4.11981e-06
4.70068e-05
3.60341e-06
4.83728e-05
3.33489e-06
4.98158e-05
3.98321e-06
5.24777e-05
5.36358e-06
5.48992e-05
6.60104e-06
5.64564e-05
7.25639e-06
5.75855e-05
7.25294e-06
5.88913e-05
7.37823e-06
6.07677e-05
7.75729e-06
6.448e-05
9.81839e-06
7.03763e-05
1.51105e-05
7.84652e-05
2.55256e-05
8.86327e-05
4.23578e-05
9.81846e-05
6.93296e-05
0.000109281
0.000105242
0.000112213
0.000101444
0.00013665
3.1995e-06
5.62103e-05
5.73826e-06
5.30092e-05
6.6571e-06
5.04269e-05
6.69552e-06
4.89174e-05
6.18633e-06
4.78697e-05
5.62222e-06
4.74905e-05
5.03744e-06
4.75916e-05
4.90038e-06
4.85099e-05
5.08298e-06
4.96334e-05
6.04549e-06
5.15155e-05
7.59049e-06
5.33562e-05
9.20549e-06
5.4851e-05
1.05953e-05
5.61681e-05
1.16718e-05
5.78118e-05
1.29555e-05
5.94349e-05
1.42166e-05
6.20236e-05
1.69926e-05
6.75673e-05
2.27618e-05
7.29024e-05
3.20957e-05
7.93806e-05
4.54867e-05
8.56715e-05
6.49708e-05
9.08798e-05
8.88819e-05
8.92174e-05
8.07268e-05
0.000109823
2.34873e-06
5.38616e-05
4.37349e-06
5.09845e-05
5.35838e-06
4.9442e-05
5.73724e-06
4.85386e-05
5.7275e-06
4.78795e-05
5.59365e-06
4.76244e-05
5.43837e-06
4.7747e-05
5.56196e-06
4.83865e-05
5.98329e-06
4.92123e-05
7.05714e-06
5.04419e-05
8.64822e-06
5.17662e-05
1.03768e-05
5.31319e-05
1.20988e-05
5.4454e-05
1.38578e-05
5.61227e-05
1.57456e-05
5.7871e-05
1.81117e-05
6.08051e-05
2.16028e-05
6.35693e-05
2.75692e-05
6.70364e-05
3.59706e-05
7.09991e-05
4.70439e-05
7.47582e-05
6.12249e-05
7.67567e-05
7.71497e-05
7.34665e-05
6.62678e-05
9.21314e-05
1.87063e-06
5.1991e-05
3.45613e-06
4.9399e-05
4.42594e-06
4.84723e-05
5.07769e-06
4.78869e-05
5.50348e-06
4.74538e-05
5.76882e-06
4.73591e-05
5.99924e-06
4.75166e-05
6.38968e-06
4.79961e-05
6.95924e-06
4.86429e-05
7.91141e-06
4.94899e-05
9.28052e-06
5.03977e-05
1.09034e-05
5.15148e-05
1.26321e-05
5.27419e-05
1.46978e-05
5.4063e-05
1.72094e-05
5.56813e-05
2.05257e-05
5.76678e-05
2.46596e-05
5.97106e-05
3.01155e-05
6.16631e-05
3.72371e-05
6.38118e-05
4.64678e-05
6.56482e-05
5.74724e-05
6.5734e-05
6.89106e-05
6.19126e-05
5.51434e-05
7.99503e-05
1.53678e-06
5.04543e-05
2.92622e-06
4.80096e-05
3.99036e-06
4.74082e-05
4.82704e-06
4.70503e-05
5.46714e-06
4.68138e-05
6.05172e-06
4.67746e-05
6.68591e-06
4.68825e-05
7.41554e-06
4.72666e-05
8.28162e-06
4.77769e-05
9.32769e-06
4.8444e-05
1.06375e-05
4.90881e-05
1.22552e-05
4.98991e-05
1.40751e-05
5.09346e-05
1.62487e-05
5.1928e-05
1.89038e-05
5.30338e-05
2.24621e-05
5.418e-05
2.67293e-05
5.53868e-05
3.18191e-05
5.65659e-05
3.81689e-05
5.74594e-05
4.59385e-05
5.79095e-05
5.47411e-05
5.69399e-05
6.35607e-05
5.30839e-05
4.69255e-05
7.17812e-05
1.37916e-06
4.90752e-05
2.63191e-06
4.6757e-05
3.68851e-06
4.63517e-05
4.6076e-06
4.61313e-05
5.43402e-06
4.59874e-05
6.25258e-06
4.59561e-05
7.10648e-06
4.60287e-05
8.0826e-06
4.62905e-05
9.20283e-06
4.66568e-05
1.04775e-05
4.71694e-05
1.18847e-05
4.7681e-05
1.35612e-05
4.82229e-05
1.56104e-05
4.88924e-05
1.79698e-05
4.95779e-05
2.07824e-05
5.02517e-05
2.40253e-05
5.09553e-05
2.78116e-05
5.16038e-05
3.24389e-05
5.1933e-05
3.80292e-05
5.18742e-05
4.45407e-05
5.14261e-05
5.16915e-05
4.9797e-05
5.88198e-05
4.59624e-05
4.06931e-05
6.50587e-05
1.23067e-06
4.78445e-05
2.37197e-06
4.56157e-05
3.40991e-06
4.53138e-05
4.38237e-06
4.51589e-05
5.31009e-06
4.50597e-05
6.23134e-06
4.50349e-05
7.18379e-06
4.50763e-05
8.26317e-06
4.52112e-05
9.49229e-06
4.54278e-05
1.08631e-05
4.57987e-05
1.23451e-05
4.61991e-05
1.40579e-05
4.65102e-05
1.6109e-05
4.68428e-05
1.8519e-05
4.71722e-05
2.12842e-05
4.74898e-05
2.44574e-05
4.77977e-05
2.82165e-05
4.78433e-05
3.25579e-05
4.75869e-05
3.74237e-05
4.70078e-05
4.28833e-05
4.5974e-05
4.87995e-05
4.3885e-05
5.45177e-05
4.02469e-05
3.58205e-05
5.93927e-05
1.20227e-06
4.66423e-05
2.3092e-06
4.45088e-05
3.34647e-06
4.42765e-05
4.34451e-06
4.41609e-05
5.32851e-06
4.40758e-05
6.33066e-06
4.40328e-05
7.37732e-06
4.40297e-05
8.51279e-06
4.40758e-05
9.75696e-06
4.41837e-05
1.1182e-05
4.43738e-05
1.28071e-05
4.45741e-05
1.46132e-05
4.47042e-05
1.66135e-05
4.48428e-05
1.89199e-05
4.48674e-05
2.15784e-05
4.48319e-05
2.46481e-05
4.47322e-05
2.8078e-05
4.44084e-05
3.17997e-05
4.38617e-05
3.60108e-05
4.27952e-05
4.07254e-05
4.12611e-05
4.56675e-05
3.89433e-05
5.02028e-05
3.57122e-05
3.17929e-05
5.42313e-05
1.13696e-06
4.55054e-05
2.20664e-06
4.34392e-05
3.24673e-06
4.32365e-05
4.25777e-06
4.31499e-05
5.26541e-06
4.30682e-05
6.30494e-06
4.29933e-05
7.39366e-06
4.29411e-05
8.55501e-06
4.29146e-05
9.81819e-06
4.29206e-05
1.12484e-05
4.29436e-05
1.2884e-05
4.29386e-05
1.4688e-05
4.29004e-05
1.67209e-05
4.281e-05
1.89054e-05
4.26835e-05
2.12858e-05
4.24514e-05
2.40608e-05
4.1958e-05
2.71636e-05
4.13036e-05
3.06963e-05
4.03272e-05
3.4522e-05
3.89682e-05
3.85711e-05
3.72111e-05
4.2565e-05
3.49493e-05
4.63479e-05
3.19296e-05
2.82665e-05
4.98745e-05
1.09509e-06
4.44103e-05
2.13835e-06
4.2396e-05
3.17687e-06
4.2198e-05
4.2192e-06
4.21076e-05
5.26961e-06
4.20178e-05
6.33845e-06
4.19246e-05
7.45693e-06
4.18227e-05
8.65042e-06
4.17211e-05
9.94702e-06
4.1624e-05
1.1354e-05
4.15367e-05
1.2864e-05
4.14286e-05
1.45169e-05
4.12476e-05
1.63955e-05
4.09315e-05
1.85134e-05
4.05658e-05
2.09584e-05
4.00061e-05
2.35944e-05
3.93218e-05
2.64484e-05
3.84478e-05
2.94832e-05
3.72902e-05
3.26234e-05
3.58267e-05
3.59721e-05
3.38622e-05
3.9475e-05
3.14465e-05
4.28462e-05
2.85584e-05
2.52536e-05
4.58593e-05
1.05241e-06
4.3358e-05
2.05983e-06
4.13886e-05
3.06918e-06
4.11887e-05
4.08481e-06
4.1092e-05
5.11854e-06
4.09842e-05
6.18097e-06
4.08622e-05
7.2881e-06
4.07156e-05
8.45824e-06
4.0551e-05
9.72142e-06
4.03609e-05
1.11245e-05
4.01337e-05
1.26795e-05
3.98737e-05
1.43813e-05
3.95458e-05
1.61951e-05
3.91178e-05
1.81667e-05
3.85942e-05
2.02527e-05
3.79202e-05
2.25227e-05
3.70519e-05
2.50399e-05
3.59307e-05
2.7757e-05
3.45731e-05
3.06945e-05
3.28888e-05
3.36925e-05
3.0864e-05
3.66145e-05
2.85245e-05
3.94358e-05
2.57373e-05
2.2549e-05
4.21406e-05
1.03039e-06
4.23276e-05
2.0269e-06
4.03921e-05
3.02566e-06
4.019e-05
4.03189e-06
4.00858e-05
5.05702e-06
3.99591e-05
6.116e-06
3.98032e-05
7.21509e-06
3.96165e-05
8.36893e-06
3.93972e-05
9.59489e-06
3.9135e-05
1.09023e-05
3.88264e-05
1.23045e-05
3.84716e-05
1.38299e-05
3.80205e-05
1.54883e-05
3.74594e-05
1.73076e-05
3.6775e-05
1.93048e-05
3.5923e-05
2.1509e-05
3.48478e-05
2.38246e-05
3.36153e-05
2.62466e-05
3.21513e-05
2.86988e-05
3.04369e-05
3.11871e-05
2.83759e-05
3.37457e-05
2.59661e-05
3.62547e-05
2.32284e-05
2.01897e-05
3.86141e-05
9.7666e-07
4.1351e-05
1.92247e-06
3.94464e-05
2.87935e-06
3.92331e-05
3.8491e-06
3.91161e-05
4.839e-06
3.89692e-05
5.86206e-06
3.87802e-05
6.92674e-06
3.85519e-05
8.04466e-06
3.82794e-05
9.22624e-06
3.79535e-05
1.0489e-05
3.75636e-05
1.18678e-05
3.70929e-05
1.3346e-05
3.65424e-05
1.49272e-05
3.58783e-05
1.66212e-05
3.50812e-05
1.84197e-05
3.41246e-05
2.02901e-05
3.29775e-05
2.22682e-05
3.16373e-05
2.4356e-05
3.00636e-05
2.6557e-05
2.8236e-05
2.88006e-05
2.61325e-05
3.10109e-05
2.3756e-05
3.31645e-05
2.10749e-05
1.81125e-05
3.52418e-05
9.48576e-07
4.04024e-05
1.87146e-06
3.85235e-05
2.80638e-06
3.82982e-05
3.74942e-06
3.81731e-05
4.70914e-06
3.80095e-05
5.69023e-06
3.77992e-05
6.70112e-06
3.7541e-05
7.75287e-06
3.72276e-05
8.8579e-06
3.68485e-05
1.0028e-05
3.63936e-05
1.127e-05
3.5851e-05
1.25962e-05
3.52162e-05
1.40196e-05
3.44549e-05
1.55484e-05
3.35524e-05
1.7176e-05
3.24971e-05
1.89023e-05
3.12514e-05
2.07186e-05
2.98211e-05
2.2577e-05
2.82054e-05
2.4467e-05
2.63462e-05
2.6372e-05
2.42276e-05
2.82862e-05
2.18419e-05
3.01655e-05
1.91958e-05
1.63055e-05
3.19726e-05
8.91916e-07
3.95105e-05
1.76961e-06
3.76458e-05
2.6595e-06
3.74084e-05
3.55694e-06
3.72757e-05
4.46886e-06
3.70976e-05
5.39909e-06
3.6869e-05
6.35553e-06
3.65846e-05
7.34838e-06
3.62348e-05
8.38442e-06
3.58125e-05
9.47526e-06
3.53028e-05
1.06259e-05
3.47004e-05
1.18523e-05
3.39898e-05
1.31524e-05
3.31549e-05
1.45235e-05
3.21813e-05
1.5965e-05
3.10557e-05
1.747e-05
2.97465e-05
1.90283e-05
2.82629e-05
2.06469e-05
2.65869e-05
2.23056e-05
2.46876e-05
2.39746e-05
2.25587e-05
2.56223e-05
2.01944e-05
2.72332e-05
1.75851e-05
1.47491e-05
2.87896e-05
8.53859e-07
3.86567e-05
1.69334e-06
3.68064e-05
2.54022e-06
3.65615e-05
3.39126e-06
3.64246e-05
4.25212e-06
3.62368e-05
5.12493e-06
3.59962e-05
6.01385e-06
3.56957e-05
6.9253e-06
3.53234e-05
7.86832e-06
3.48695e-05
8.85971e-06
3.43114e-05
9.90029e-06
3.36598e-05
1.09984e-05
3.28918e-05
1.21602e-05
3.1993e-05
1.33819e-05
3.09597e-05
1.46575e-05
2.97801e-05
1.59759e-05
2.84281e-05
1.73356e-05
2.69033e-05
1.87382e-05
2.51843e-05
2.01604e-05
2.32655e-05
2.15837e-05
2.11356e-05
2.29894e-05
1.87888e-05
2.43627e-05
1.62118e-05
1.34266e-05
2.56853e-05
8.0743e-07
3.78493e-05
1.60031e-06
3.60135e-05
2.39957e-06
3.57623e-05
3.19677e-06
3.56275e-05
4.00009e-06
3.54335e-05
4.81423e-06
3.51821e-05
5.64372e-06
3.48663e-05
6.4924e-06
3.44747e-05
7.36095e-06
3.4001e-05
8.24975e-06
3.34226e-05
9.16692e-06
3.27427e-05
1.01181e-05
3.19406e-05
1.11158e-05
3.09954e-05
1.21651e-05
2.99105e-05
1.32706e-05
2.86747e-05
1.44211e-05
2.72776e-05
1.56063e-05
2.57182e-05
1.68042e-05
2.39865e-05
1.8007e-05
2.20628e-05
1.92103e-05
1.99324e-05
2.03965e-05
1.76027e-05
2.15446e-05
1.50639e-05
1.23233e-05
2.26479e-05
7.64455e-07
3.70849e-05
1.49282e-06
3.52852e-05
2.22703e-06
3.50281e-05
2.96086e-06
3.48936e-05
3.70311e-06
3.46913e-05
4.45982e-06
3.44254e-05
5.23429e-06
3.40918e-05
6.02135e-06
3.36877e-05
6.82312e-06
3.31992e-05
7.62854e-06
3.26172e-05
8.44737e-06
3.19239e-05
9.28422e-06
3.11038e-05
1.01399e-05
3.01398e-05
1.10172e-05
2.90332e-05
1.1921e-05
2.77709e-05
1.28525e-05
2.63462e-05
1.38217e-05
2.47491e-05
1.48339e-05
2.29744e-05
1.58595e-05
2.10373e-05
1.68635e-05
1.89285e-05
1.78392e-05
1.66271e-05
1.87788e-05
1.41244e-05
1.1428e-05
1.96742e-05
7.25358e-07
3.63595e-05
1.37474e-06
3.46358e-05
2.02422e-06
3.43787e-05
2.6787e-06
3.42392e-05
3.3427e-06
3.40273e-05
4.02034e-06
3.37477e-05
4.72036e-06
3.33918e-05
5.43662e-06
3.29715e-05
6.16765e-06
3.24682e-05
6.90704e-06
3.18779e-05
7.6529e-06
3.1178e-05
8.40167e-06
3.0355e-05
9.14544e-06
2.9396e-05
9.88835e-06
2.82903e-05
1.0634e-05
2.70253e-05
1.13875e-05
2.55927e-05
1.21486e-05
2.39881e-05
1.29142e-05
2.22088e-05
1.36972e-05
2.02545e-05
1.45108e-05
1.81149e-05
1.53133e-05
1.58247e-05
1.60635e-05
1.33743e-05
1.07304e-05
1.6761e-05
6.69471e-07
3.569e-05
1.19566e-06
3.41096e-05
1.72292e-06
3.38514e-05
2.26289e-06
3.36992e-05
2.81514e-06
3.3475e-05
3.38538e-06
3.31775e-05
3.97847e-06
3.27988e-05
4.59968e-06
3.23503e-05
5.24601e-06
3.18219e-05
5.91168e-06
3.12122e-05
6.58227e-06
3.05075e-05
7.24418e-06
2.96931e-05
7.90538e-06
2.87348e-05
8.57557e-06
2.76201e-05
9.23794e-06
2.63629e-05
9.89065e-06
2.49401e-05
1.05205e-05
2.33582e-05
1.11192e-05
2.16102e-05
1.16986e-05
1.96751e-05
1.22557e-05
1.75579e-05
1.28116e-05
1.52689e-05
1.33786e-05
1.28074e-05
1.0208e-05
1.3901e-05
5.69816e-07
3.51202e-05
9.09505e-07
3.37699e-05
1.23575e-06
3.35252e-05
1.60014e-06
3.33348e-05
1.99368e-06
3.30815e-05
2.41293e-06
3.27583e-05
2.86435e-06
3.23474e-05
3.36189e-06
3.18527e-05
3.90744e-06
3.12764e-05
4.50063e-06
3.0619e-05
5.13139e-06
2.98767e-05
5.7807e-06
2.90438e-05
6.42046e-06
2.80951e-05
7.03814e-06
2.70024e-05
7.6149e-06
2.57862e-05
8.15864e-06
2.43963e-05
8.68967e-06
2.28272e-05
9.2117e-06
2.10882e-05
9.6994e-06
1.91875e-05