/*--------------------------------*- C++ -*----------------------------------*\
| =========                 |                                                 |
| \\      /  F ield         | OpenFOAM: The Open Source CFD Toolbox           |
|  \\    /   O peration     | Version:  2.4.0                                 |
|   \\  /    A nd           | Web:      www.OpenFOAM.org                      |
|    \\/     M anipulation  |                                                 |
\*---------------------------------------------------------------------------*/
FoamFile
{
    version     2.0;
    format      ascii;
    class       surfaceScalarField;
    location    "0.8";
    object      phi.air;
}
// * * * * * * * * * * * * * * * * * * * * * * * * * * * * * * * * * * * * * //

dimensions      [0 3 -1 0 0 0 0];

internalField   nonuniform List<scalar> 
4432
(
1.25702e-06
-1.24613e-06
2.699e-06
-1.43156e-06
3.2251e-06
-5.23507e-07
3.04122e-06
1.84268e-07
2.32314e-06
7.18199e-07
-1.2667e-07
2.44988e-06
-4.52572e-06
4.39911e-06
-1.06677e-05
6.14207e-06
-1.54578e-05
4.79003e-06
-1.79491e-05
2.49131e-06
-1.94633e-05
1.51428e-06
-2.00246e-05
5.61305e-07
-1.924e-05
-7.84593e-07
-1.70354e-05
-2.20465e-06
-1.4451e-05
-2.5844e-06
-1.23754e-05
-2.0756e-06
-1.09564e-05
-1.41896e-06
-9.76989e-06
-1.1865e-06
-8.38848e-06
-1.38141e-06
-6.17376e-06
-2.21472e-06
-4.57816e-06
-1.59559e-06
-3.86581e-06
-7.12339e-07
-3.86581e-06
1.21924e-06
-2.09337e-06
2.39963e-06
-2.20567e-06
3.19349e-06
-9.04714e-07
3.75287e-06
5.96067e-09
3.88278e-06
8.14928e-07
1.77398e-06
4.5988e-06
-2.86893e-06
9.04239e-06
-9.77329e-06
1.30465e-05
-1.55459e-05
1.05627e-05
-1.89214e-05
5.86682e-06
-2.02544e-05
2.84731e-06
-2.03873e-05
6.94176e-07
-1.91515e-05
-2.02036e-06
-1.68784e-05
-4.4777e-06
-1.43461e-05
-5.11666e-06
-1.22244e-05
-4.19734e-06
-1.0649e-05
-2.99434e-06
-9.40796e-06
-2.42754e-06
-7.75063e-06
-3.03872e-06
-5.73081e-06
-4.23453e-06
-3.84359e-06
-3.4828e-06
-2.27277e-06
-2.28315e-06
-6.13855e-06
1.45715e-06
-1.53043e-05
2.25064e-06
-1.4567e-05
3.71542e-06
-1.30966e-05
3.97209e-06
-9.42823e-06
1.69504e-06
-4.07185e-06
-1.69402e-06
3.82898e-06
-5.55661e-06
1.23004e-05
-1.13618e-05
1.89614e-05
-1.61397e-05
1.53502e-05
-1.91357e-05
8.86292e-06
-2.03982e-05
4.10978e-06
-2.02173e-05
5.13275e-07
-1.89091e-05
-3.32851e-06
-1.67936e-05
-6.59319e-06
-1.45448e-05
-7.36542e-06
-1.24628e-05
-6.27933e-06
-1.05599e-05
-4.89725e-06
-9.01322e-06
-3.97426e-06
-7.20855e-06
-4.84338e-06
-5.51783e-06
-5.92525e-06
-3.45922e-06
-5.54141e-06
-1.40944e-06
-4.33293e-06
-7.54798e-06
1.19005e-06
-1.52357e-05
1.16731e-06
-1.40284e-05
1.79016e-06
-1.43999e-05
1.82072e-06
-1.30152e-05
8.53941e-07
-1.89125e-05
-1.32829e-06
-1.20788e-05
-7.34139e-06
4.18791e-06
-1.42816e-05
2.13864e-05
-1.84513e-05
2.00277e-05
-2.0408e-05
1.08476e-05
-2.0488e-05
4.19007e-06
-1.99997e-05
2.50352e-08
-1.88584e-05
-4.46985e-06
-1.67779e-05
-8.67374e-06
-1.43004e-05
-9.84292e-06
-1.18008e-05
-8.77895e-06
-9.49018e-06
-7.20785e-06
-7.90538e-06
-5.55907e-06
-6.9884e-06
-5.76036e-06
-6.62316e-06
-6.29049e-06
-4.87167e-06
-7.29289e-06
-2.15985e-06
-7.04474e-06
-9.70782e-06
-4.75325e-07
-4.49099e-06
-4.29172e-07
-3.09315e-06
-8.08495e-07
-2.48078e-06
-4.24453e-07
-4.33739e-07
1.00696e-07
3.17644e-06
-1.19283e-06
7.16855e-06
-9.00459e-06
9.76925e-06
-1.92465e-05
2.06274e-05
-2.40119e-05
2.26747e-05
-2.54007e-05
1.25619e-05
-2.47623e-05
3.57574e-06
-2.26742e-05
-2.06256e-06
-2.02861e-05
-6.85796e-06
-1.7779e-05
-1.11786e-05
-1.47019e-05
-1.28783e-05
-1.14076e-05
-1.20112e-05
-8.50721e-06
-1.00549e-05
-7.00365e-06
-7.04837e-06
-6.80926e-06
-5.95235e-06
-6.98553e-06
-6.11292e-06
-6.27486e-06
-7.99655e-06
-3.587e-06
-9.70019e-06
-1.32188e-05
-2.5514e-07
-4.2362e-06
-2.27224e-06
-1.07642e-06
-5.91824e-06
1.1649e-06
-1.15361e-05
5.18387e-06
-1.73552e-05
9.3368e-06
-1.88229e-05
1.34617e-05
-2.43876e-05
2.60722e-05
-2.91561e-05
2.29308e-05
-3.10426e-05
1.96402e-05
-3.01704e-05
1.14976e-05
-2.90703e-05
2.59214e-06
-2.73071e-05
-3.80042e-06
-2.46908e-05
-9.3615e-06
-2.15785e-05
-1.39442e-05
-1.74702e-05
-1.65174e-05
-1.30188e-05
-1.60613e-05
-9.33199e-06
-1.32941e-05
-7.31752e-06
-8.58148e-06
-6.81496e-06
-6.05426e-06
-6.92508e-06
-5.63319e-06
-6.6394e-06
-7.84622e-06
-4.74015e-06
-1.11125e-05
-1.77246e-05
-7.59675e-07
-3.47596e-06
-8.58276e-07
-9.74603e-07
-1.53476e-06
1.84359e-06
-3.75366e-06
7.40265e-06
-7.8274e-06
1.34103e-05
-1.56324e-05
2.05775e-05
-3.00981e-05
3.61666e-05
-3.87667e-05
3.0501e-05
-4.15847e-05
1.55588e-05
-3.97228e-05
7.50753e-06
-3.54596e-05
-1.40159e-06
-3.11439e-05
-7.66968e-06
-2.72495e-05
-1.3431e-05
-2.30181e-05
-2.08662e-05
-1.88292e-05
-2.66886e-05
-1.52677e-05
-2.70462e-05
-1.22826e-05
-2.39033e-05
-9.41388e-06
-1.7982e-05
-7.06788e-06
-1.39584e-05
-5.76504e-06
-1.2072e-05
-6.10883e-06
-1.30579e-05
-6.02261e-06
-1.78791e-05
-3.19032e-05
5.56512e-07
-4.07449e-06
-1.18013e-06
7.2583e-07
-4.2208e-06
4.87081e-06
-7.29098e-06
1.04719e-05
-1.0363e-05
1.64824e-05
-1.38653e-05
2.38867e-05
-2.42691e-05
4.35382e-05
-3.54397e-05
4.2294e-05
-4.1995e-05
1.74392e-05
-4.29512e-05
2.86502e-06
-4.12461e-05
-7.06885e-06
-3.6226e-05
-1.7004e-05
-2.89475e-05
-2.74729e-05
-2.07072e-05
-3.99163e-05
-1.60307e-05
-4.56155e-05
-1.54203e-05
-4.28305e-05
-1.54441e-05
-3.92627e-05
-1.26621e-05
-3.6117e-05
-7.9549e-06
-3.40669e-05
-4.43597e-06
-3.08946e-05
-5.6922e-06
-2.60092e-05
-9.29676e-06
-2.89857e-05
-5.84766e-05
-4.97165e-07
2.05987e-06
1.84251e-05
-1.36787e-05
2.84478e-05
-2.67435e-06
3.32681e-05
6.63344e-06
3.62889e-05
3.59774e-05
3.86967e-05
9.59736e-05
4.12111e-05
0.000116089
4.40234e-05
0.000104722
4.7025e-05
8.48253e-05
5.01251e-05
8.2495e-05
5.33776e-05
7.70715e-05
5.61078e-05
7.22387e-05
5.69208e-05
7.48485e-05
5.37831e-05
6.90685e-05
4.24688e-05
2.8648e-05
2.27704e-05
3.81425e-05
6.42034e-06
4.13866e-05
-2.62859e-06
1.87915e-05
4.96058e-06
4.37121e-06
-6.68835e-06
3.3813e-05
-7.17942e-05
4.4384e-05
-7.81733e-05
4.90559e-05
-7.93584e-05
5.50076e-05
-9.39037e-05
4.74055e-05
-0.000143908
4.36141e-05
-0.000191105
4.59808e-05
-0.000111476
4.87671e-05
-7.14548e-05
5.00791e-05
-6.52789e-05
5.18528e-05
-6.56499e-05
5.35205e-05
-6.33626e-05
5.39018e-05
-5.87132e-05
4.74074e-05
6.08351e-07
3.85374e-05
4.21048e-05
2.38946e-05
3.61148e-05
1.27748e-05
3.66529e-05
-1.38482e-06
2.26305e-05
-4.34501e-06
2.3127e-05
-5.54805e-05
3.90005e-05
-0.000125464
5.17814e-05
-9.0201e-05
6.36129e-05
-3.30386e-05
7.11906e-05
-4.77156e-07
7.37748e-05
6.02193e-06
6.59844e-05
9.95402e-05
4.62672e-05
0.000128728
3.4083e-05
9.04589e-05
2.6243e-05
8.23578e-05
2.58192e-05
5.00192e-05
1.64281e-05
2.52946e-05
2.11049e-05
2.48671e-05
1.97641e-05
-1.43452e-05
1.01602e-05
1.91283e-05
2.06313e-05
3.9154e-05
1.24682e-05
4.8053e-05
1.30599e-06
3.86698e-05
5.15332e-06
3.32142e-05
-0.000144666
3.5215e-05
-0.000133371
4.49673e-05
-6.63464e-05
5.58037e-05
-1.37435e-05
6.08758e-05
-4.09151e-06
6.10429e-05
2.64855e-06
5.31998e-05
1.81035e-05
4.93764e-05
5.9088e-05
4.93572e-05
6.59793e-05
4.79384e-05
6.81413e-05
4.01714e-05
0.000104889
2.72738e-05
8.00189e-05
8.45617e-06
4.69349e-05
-1.6364e-05
1.31489e-05
-9.30622e-06
-9.0056e-06
1.07541e-05
7.9781e-06
1.19809e-05
4.64676e-05
5.72088e-06
4.36988e-05
5.65006e-06
2.99204e-05
6.48009e-05
2.97492e-05
6.8259e-06
3.8685e-05
-1.02487e-05
4.63947e-05
-1.5394e-05
5.17349e-05
-1.45493e-05
5.27846e-05
-4.67907e-06
4.79171e-05
6.05707e-06
3.88144e-05
1.5079e-05
2.76306e-05
2.19269e-05
2.03698e-05
3.76494e-05
1.45344e-05
5.44894e-05
1.29388e-05
7.37279e-05
1.98583e-06
6.65221e-05
-2.25346e-05
2.28971e-05
-2.43638e-05
-8.1887e-06
-8.50209e-06
-7.84118e-06
6.90614e-06
3.17807e-05
6.80258e-06
4.34301e-05
1.76838e-05
2.82396e-05
-6.32098e-06
2.94773e-05
2.49377e-05
2.54346e-05
3.77585e-05
3.3041e-05
9.60568e-06
3.69777e-05
-1.46232e-05
3.85304e-05
-1.01569e-06
3.79644e-05
1.49125e-05
3.14351e-05
3.76396e-05
1.56835e-05
0.000112279
1.14836e-05
0.000105929
6.16305e-06
0.000101702
-3.21492e-06
0.000123831
2.35477e-06
0.000172258
-2.02158e-05
4.47583e-05
-2.36977e-05
-3.76982e-06
-1.33857e-05
-5.8366e-06
5.28188e-06
1.53192e-05
8.39804e-06
4.04394e-05
2.38208e-05
2.82033e-05
-6.46738e-05
1.5187e-05
-9.88991e-06
1.38606e-05
8.19012e-06
2.63934e-05
-9.86633e-06
3.25019e-05
-3.40459e-05
3.67165e-05
-1.44903e-05
3.26522e-05
3.09119e-06
1.76658e-05
3.01249e-05
7.21201e-06
7.35744e-05
4.8262e-06
6.92848e-05
4.78242e-06
7.5937e-05
1.8562e-06
0.000106249
6.28603e-06
0.000173844
-1.52152e-05
8.69523e-05
-2.31121e-05
8.61132e-06
-2.57342e-05
-6.4356e-06
-3.72673e-06
5.46521e-06
7.43309e-06
2.34524e-05
1.0086e-05
1.94647e-05
-7.85921e-05
1.20651e-05
-3.52511e-05
4.80411e-06
-1.53042e-05
9.8863e-06
-1.09622e-05
1.95299e-05
-3.76372e-06
2.99887e-05
2.00283e-05
3.17638e-05
5.32665e-05
1.65734e-05
7.57666e-05
4.98424e-06
0.000107944
2.76223e-06
9.65542e-05
3.86334e-06
9.20657e-05
3.4157e-06
0.000106025
9.04002e-06
0.00016452
-7.92963e-07
0.000199041
-1.90237e-05
2.20282e-05
-3.05762e-05
-3.58197e-05
-1.54635e-05
1.22005e-05
7.65833e-07
5.28772e-05
-3.59855e-06
1.53328e-06
-5.04849e-06
5.69895e-06
-3.0355e-06
8.63901e-06
2.12268e-06
6.67354e-06
1.2489e-05
-1.06387e-06
2.42262e-05
-8.77489e-06
3.15699e-05
-1.2756e-05
4.35983e-05
-2.1005e-05
5.22695e-05
-3.2603e-05
3.19169e-05
-4.30295e-05
9.13682e-06
-4.84857e-05
-1.1864e-05
-4.72705e-05
-3.41668e-05
-3.66281e-05
-5.27448e-05
-2.77791e-05
-6.44304e-05
-2.62934e-05
-4.95613e-05
-2.73048e-05
-3.24312e-05
-2.71647e-05
-2.38081e-05
-2.46005e-05
-2.32916e-05
-2.19384e-05
-2.224e-05
-2.03031e-05
-1.89178e-05
-2.22039e-05
-1.14181e-05
-2.82147e-05
-1.05299e-05
-3.53501e-05
-3.18807e-05
6.89327e-06
-1.24877e-05
9.90092e-06
-6.39407e-06
6.47994e-06
5.61713e-06
2.62117e-06
1.64869e-05
6.17037e-07
2.6312e-05
6.27588e-07
3.1631e-05
4.92148e-06
3.92505e-05
1.59605e-05
4.61871e-05
2.24116e-05
4.1298e-05
2.47221e-05
2.26925e-05
2.72862e-05
9.01919e-07
2.86369e-05
-1.7264e-05
2.4737e-05
-2.75643e-05
2.1693e-05
-1.96655e-05
2.06821e-05
2.0245e-05
2.16913e-05
5.20322e-05
2.27692e-05
5.57656e-05
2.15313e-05
4.84087e-05
1.65334e-05
4.52786e-05
1.10258e-05
3.2552e-05
8.067e-06
3.80886e-05
5.00745e-06
3.31908e-05
2.36297e-05
-1.20356e-05
9.22657e-06
-2.09972e-05
1.77313e-05
-1.39877e-05
2.09515e-05
2.99354e-06
1.61079e-05
2.19465e-05
7.90596e-06
3.50868e-05
1.9251e-06
3.80753e-05
2.49692e-06
3.90096e-05
1.11329e-05
3.78715e-05
2.2866e-05
3.18502e-05
3.25726e-05
1.88248e-05
3.86696e-05
1.96646e-06
3.82042e-05
-1.00766e-05
3.59585e-05
9.87168e-06
4.03417e-05
3.36619e-05
4.96615e-05
6.03948e-05
3.27718e-05
0.000101604
1.7489e-05
0.000121543
5.30978e-06
0.000122835
1.18528e-05
0.000101799
7.64604e-07
6.88381e-05
-3.52637e-05
3.26337e-05
-0.000110766
8.03991e-05
0.000120397
-0.000187577
1.6595e-05
-3.76041e-05
2.30937e-05
-2.22573e-05
1.1463e-05
1.16965e-05
3.08951e-06
2.75517e-05
-1.79009e-06
3.8113e-05
-6.40073e-06
4.12266e-05
-5.81065e-06
3.74239e-05
4.41371e-07
3.09909e-05
9.82097e-06
2.22507e-05
1.76348e-05
1.3715e-05
2.33167e-05
5.12278e-05
3.27542e-05
6.63592e-05
4.49698e-05
8.18704e-05
4.41994e-05
5.85693e-05
4.4295e-05
3.64346e-05
-1.29083e-06
4.96508e-05
-4.69341e-05
6.33454e-05
-6.92457e-05
7.82284e-05
-8.53107e-05
0.000104928
-0.00013388
0.000160554
-0.000179894
0.000196204
-0.000232895
0.000215287
0.000198746
-0.000325514
-5.2341e-06
-1.56574e-05
-2.344e-05
3.89334e-05
-3.73633e-05
8.7572e-05
-4.10796e-05
0.000104385
-3.80772e-05
0.000116413
-3.28113e-05
0.000122167
-2.60392e-05
0.000118475
-1.83937e-05
0.000117891
-6.27705e-06
0.000115101
4.10132e-05
0.000100209
5.05699e-05
7.96829e-05
3.28288e-05
6.44156e-05
1.67493e-06
4.11704e-05
-1.99696e-05
6.82805e-06
-8.198e-05
4.09041e-05
-0.00020819
0.000120527
-0.000221124
4.73296e-05
-0.000215003
6.50771e-06
-0.000189203
-6.11673e-05
-0.000284424
1.75119e-06
-0.000333654
9.17276e-05
-0.000288372
0.000194536
0.000219945
-0.000250409
-1.92751e-06
9.63054e-05
-3.0242e-05
0.000129175
-5.96476e-05
0.000125861
-6.99394e-05
0.000111552
-6.89138e-05
9.96628e-05
-5.95912e-05
9.33319e-05
-4.65001e-05
9.02548e-05
-3.62143e-05
7.8242e-05
-3.53742e-05
6.26145e-05
-4.32263e-05
5.26463e-05
-4.53817e-05
1.08514e-05
-7.27438e-05
2.02966e-05
-0.000163228
7.99702e-05
-0.000231441
5.26372e-05
-0.000259811
5.53733e-05
-0.000250463
0.000104558
-0.00024556
1.92039e-05
-0.000287288
2.26501e-05
-0.000225387
7.65063e-05
-0.00024725
9.8675e-05
-0.000239273
0.000174452
-0.000216044
0.000160866
0.000140109
-0.000244115
-2.58914e-05
0.000104373
-7.33848e-05
9.82237e-05
-8.91802e-05
7.1739e-05
-8.80307e-05
4.74009e-05
-7.93119e-05
3.14792e-05
-6.97334e-05
2.73235e-05
-5.76114e-05
2.06904e-05
-5.5797e-05
2.1063e-05
-0.000101672
5.54285e-05
-0.000181473
8.2554e-05
-0.000219745
2.65257e-05
-0.00018616
-1.991e-05
-0.000139553
3.31273e-05
-0.000143659
5.67407e-05
-0.000151511
6.31882e-05
-0.000151587
0.000106557
-0.000191718
5.67113e-05
-0.000217831
6.64006e-06
-0.000263264
5.76428e-05
-0.000182241
0.000136038
-0.000187263
0.00013954
-0.000213241
0.000148709
0.000240879
-0.00037389
-4.67244e-05
0.000100721
-9.90282e-05
0.000114188
-0.000106042
5.97876e-05
-9.32364e-05
2.19167e-05
-7.93483e-05
7.16314e-06
-6.49368e-05
2.92783e-06
-7.13825e-05
1.79576e-05
-8.52437e-05
2.77732e-05
-8.6399e-05
5.26463e-05
-7.54654e-05
7.07663e-05
-7.1169e-05
2.22093e-05
-8.01813e-05
-1.08994e-05
-7.12518e-05
2.41976e-05
-6.63786e-05
5.18675e-05
-7.02404e-05
6.70502e-05
-6.16214e-05
9.79499e-05
-0.000113305
0.00010772
-0.000180641
7.35016e-05
-0.000226409
5.73321e-05
-0.000199614
0.000106554
-0.000159785
0.000132596
-0.000245182
0.0002048
0.00032374
-0.00034404
-5.03862e-05
0.00014111
-5.97622e-05
0.000120925
-4.90053e-05
4.85248e-05
-3.36244e-05
6.41248e-06
-1.38359e-05
-1.26681e-05
4.85032e-06
-1.57874e-05
3.87121e-06
1.89033e-05
-3.4709e-05
6.63329e-05
-5.1203e-05
6.91274e-05
-5.34287e-05
7.29907e-05
-7.77919e-05
4.65725e-05
-9.65993e-05
7.90808e-06
-8.25605e-05
1.01588e-05
-6.80577e-05
3.73648e-05
-5.71762e-05
5.61687e-05
-3.90559e-05
7.98292e-05
-3.82317e-05
0.000106877
-9.56452e-05
0.000133235
-0.000170241
0.00013113
-0.000196655
0.00010431
-0.000206268
0.000136003
-0.000244908
0.000234243
0.000334882
-0.000258876
-5.14757e-06
0.000146101
2.48807e-06
0.000113278
-2.3968e-06
5.34093e-05
-1.16756e-05
1.56912e-05
-1.54945e-05
-8.84919e-06
-2.7121e-05
-4.16085e-06
-2.27049e-05
1.44872e-05
-1.80551e-05
6.1683e-05
-2.55347e-05
7.6607e-05
-2.86286e-05
7.60846e-05
-3.07185e-05
4.86623e-05
-3.3289e-05
1.04787e-05
-3.74627e-05
1.43325e-05
-3.19823e-05
3.18844e-05
-2.38432e-05
4.80297e-05
-1.41658e-05
7.01517e-05
-4.47619e-06
9.71882e-05
-1.14678e-06
0.000130142
-3.24159e-05
0.000162578
-9.58824e-05
0.000162799
-0.000157744
0.000186701
-0.000211554
0.000281731
0.000330344
-0.0002072
1.81961e-05
0.000127904
2.54253e-05
0.000106049
2.26231e-05
5.62116e-05
1.7854e-05
2.04603e-05
8.2067e-06
7.98068e-07
-6.70197e-06
1.07478e-05
-1.04735e-05
1.82587e-05
-7.51899e-06
5.87285e-05
-8.48185e-06
7.75699e-05
-4.17901e-06
7.17817e-05
-1.19549e-07
4.46028e-05
-1.16732e-05
2.20323e-05
-2.75855e-05
3.02447e-05
-2.79107e-05
3.22095e-05
-2.35407e-05
4.36597e-05
-1.51758e-05
6.17869e-05
-3.99051e-06
8.60029e-05
9.25922e-06
0.000116894
1.53982e-05
0.000156369
-1.62246e-05
0.000193498
-9.11825e-05
0.000259419
-0.000146025
0.000335559
0.000332935
-0.000148624
1.40346e-05
0.00011387
2.2478e-05
9.76056e-05
1.85823e-05
6.01073e-05
1.02086e-05
2.8834e-05
6.07562e-07
1.03991e-05
-2.61356e-06
1.39689e-05
-1.56391e-06
1.72091e-05
1.47881e-06
5.56857e-05
2.11414e-06
7.69345e-05
4.65384e-06
6.9242e-05
2.80205e-06
4.64546e-05
-3.89469e-06
2.87291e-05
-8.9738e-06
3.53239e-05
-1.39401e-05
3.71759e-05
-1.64382e-05
4.61577e-05
-1.45339e-05
5.98826e-05
-9.01593e-06
8.04849e-05
2.55548e-07
0.000107622
1.00283e-05
0.000146595
7.54327e-06
0.000195971
-2.29297e-05
0.000289849
-6.21418e-05
0.000374744
0.0003447
-7.39076e-05
7.87701e-06
0.000105993
2.01693e-05
8.53133e-05
2.44887e-05
5.5788e-05
2.20146e-05
3.1308e-05
9.32927e-06
2.30845e-05
-2.54441e-06
2.58426e-05
-1.12893e-05
2.5954e-05
-2.88106e-06
4.72775e-05
7.53413e-06
6.65194e-05
1.34382e-05
6.3338e-05
1.14851e-05
4.84077e-05
1.33415e-06
3.88801e-05
-7.31174e-06
4.39697e-05
-1.52961e-05
4.51602e-05
-1.93936e-05
5.02552e-05
-1.89589e-05
5.94479e-05
-1.5512e-05
7.70381e-05
-1.0749e-05
0.000102859
-2.16251e-07
0.000136062
1.32336e-05
0.000182521
2.96309e-05
0.000273452
4.46467e-05
0.000359729
0.00034012
4.92264e-05
9.11296e-06
9.68799e-05
1.92355e-05
7.51908e-05
2.16753e-05
5.33482e-05
1.58275e-05
3.71559e-05
8.59355e-06
3.03184e-05
1.0746e-06
3.33616e-05
-5.05984e-06
3.20884e-05
-3.14825e-06
4.53659e-05
7.22497e-06
5.61461e-05
1.25902e-05
5.79728e-05
7.48449e-06
5.35134e-05
-2.12388e-06
4.84884e-05
-8.23427e-06
5.00801e-05
-1.28784e-05
4.98043e-05
-1.65094e-05
5.38862e-05
-1.8859e-05
6.17975e-05
-1.80819e-05
7.62611e-05
-1.48146e-05
9.95917e-05
-8.43784e-06
0.000129686
6.17728e-06
0.000167906
3.75072e-05
0.000242122
8.30024e-05
0.000314233
0.000295489
0.000127633
1.28818e-05
8.39981e-05
1.96034e-05
6.84692e-05
2.07697e-05
5.21819e-05
1.60072e-05
4.19183e-05
8.6429e-06
3.76827e-05
2.7597e-06
3.92448e-05
-3.97124e-06
3.88193e-05
-3.84321e-06
4.52379e-05
1.58241e-06
5.07205e-05
4.17699e-06
5.53782e-05
1.1436e-06
5.65468e-05
-5.22656e-06
5.48586e-05
-9.64112e-06
5.44947e-05
-1.36625e-05
5.38257e-05
-1.64918e-05
5.67155e-05
-1.80911e-05
6.33969e-05
-1.74447e-05
7.56147e-05
-1.33764e-05
9.55234e-05
-6.33252e-06
0.000122642
6.87896e-06
0.000154695
4.2624e-05
0.000206377
0.000100515
0.000256343
0.00023699
0.000159015
1.17525e-05
7.22456e-05
1.72489e-05
6.29728e-05
1.74106e-05
5.20203e-05
1.34e-05
4.59288e-05
8.08608e-06
4.29967e-05
3.97374e-06
4.33571e-05
-5.69258e-07
4.33623e-05
-1.88503e-06
4.65537e-05
-4.44158e-07
4.92796e-05
1.03518e-06
5.38989e-05
4.57317e-07
5.71246e-05
-2.32953e-06
5.76454e-05
-5.43267e-06
5.75978e-05
-9.18789e-06
5.75809e-05
-1.21227e-05
5.96504e-05
-1.33683e-05
6.46424e-05
-1.18912e-05
7.41377e-05
-5.70141e-06
8.93336e-05
6.42365e-06
0.000110517
2.54469e-05
0.000135671
6.13084e-05
0.000170516
0.000118497
0.000199155
0.000180628
0.000174858
7.89853e-06
6.43471e-05
1.21444e-05
5.8727e-05
1.22747e-05
5.18899e-05
1.00286e-05
4.81749e-05
7.03653e-06
4.59888e-05
4.63408e-06
4.57595e-05
2.1858e-06
4.58106e-05
8.78552e-07
4.78609e-05
6.05852e-07
4.95523e-05
1.37314e-06
5.31316e-05
2.21564e-06
5.62821e-05
2.15801e-06
5.77031e-05
1.3563e-06
5.83996e-05
-3.57286e-07
5.92945e-05
-2.07678e-06
6.13699e-05
-2.81805e-06
6.53837e-05
-1.38714e-06
7.27068e-05
4.22244e-06
8.3724e-05
1.59906e-05
9.87488e-05
3.63962e-05
0.000115266
6.96577e-05
0.000137254
0.000119053
0.00014976
0.000134198
0.000165483
4.9339e-06
5.94132e-05
8.10947e-06
5.55514e-05
8.65016e-06
5.13492e-05
7.86561e-06
4.89595e-05
6.49004e-06
4.73643e-05
5.31923e-06
4.69303e-05
4.11878e-06
4.70111e-05
3.60229e-06
4.83774e-05
3.33371e-06
4.98209e-05
3.98188e-06
5.24834e-05
5.35853e-06
5.49055e-05
6.59559e-06
5.6466e-05
7.36307e-06
5.76321e-05
7.4692e-06
5.91884e-05
7.49519e-06
6.13439e-05
8.00509e-06
6.48738e-05
1.00724e-05
7.06394e-05
1.5166e-05
7.86305e-05
2.52498e-05
8.8665e-05
4.18404e-05
9.86753e-05
6.88267e-05
0.000110268
0.000105269
0.000113318
0.000102406
0.000137062
3.19937e-06
5.62138e-05
5.738e-06
5.30128e-05
6.6567e-06
5.04305e-05
6.695e-06
4.89212e-05
6.1857e-06
4.78736e-05
5.6215e-06
4.74945e-05
5.03665e-06
4.75959e-05
4.89954e-06
4.85145e-05
5.08208e-06
4.96384e-05
6.04455e-06
5.15209e-05
7.58789e-06
5.33621e-05
9.19549e-06
5.48584e-05
1.06304e-05
5.61972e-05
1.18272e-05
5.79916e-05
1.30464e-05
6.01246e-05
1.44858e-05
6.34345e-05
1.734e-05
6.77852e-05
2.29431e-05
7.30274e-05
3.21879e-05
7.94202e-05
4.5242e-05
8.56213e-05
6.467e-05
9.08401e-05
8.86647e-05
8.9323e-05
8.11738e-05
0.000109897
2.34864e-06
5.38652e-05
4.37329e-06
5.09881e-05
5.35809e-06
4.94457e-05
5.73686e-06
4.85424e-05
5.72704e-06
4.78834e-05
5.59313e-06
4.76284e-05
5.43782e-06
4.77512e-05
5.56139e-06
4.83909e-05
5.98268e-06
4.92171e-05
7.05656e-06
5.04471e-05
8.64696e-06
5.17717e-05
1.0367e-05
5.31383e-05
1.2091e-05
5.44732e-05
1.38897e-05
5.6193e-05
1.57763e-05
5.8238e-05
1.81325e-05
6.10783e-05
2.1911e-05
6.40067e-05
2.78064e-05
6.71319e-05
3.61793e-05
7.10473e-05
4.70192e-05
7.47814e-05
6.11641e-05
7.66952e-05
7.7137e-05
7.33501e-05
6.61525e-05
9.21583e-05
1.87055e-06
5.19946e-05
3.45599e-06
4.94027e-05
4.42574e-06
4.8476e-05
5.07743e-06
4.78907e-05
5.50318e-06
4.74577e-05
5.76849e-06
4.73631e-05
5.99889e-06
4.75208e-05
6.38934e-06
4.80005e-05
6.95892e-06
4.86475e-05
7.91116e-06
4.94948e-05
9.27997e-06
5.04029e-05
1.0898e-05
5.15203e-05
1.26198e-05
5.27514e-05
1.4698e-05
5.41147e-05
1.72019e-05
5.57341e-05
2.05294e-05
5.77508e-05
2.47531e-05
5.9783e-05
3.01756e-05
6.17095e-05
3.74027e-05
6.38202e-05
4.65378e-05
6.56462e-05
5.75026e-05
6.57304e-05
6.89517e-05
6.19011e-05
5.51426e-05
7.99615e-05
1.53674e-06
5.04579e-05
2.92614e-06
4.80133e-05
3.99023e-06
4.74119e-05
4.82689e-06
4.7054e-05
5.46697e-06
4.68176e-05
6.05155e-06
4.67786e-05
6.68575e-06
4.68866e-05
7.41542e-06
4.72708e-05
8.28154e-06
4.77814e-05
9.32771e-06
4.84487e-05
1.06376e-05
4.9093e-05
1.22537e-05
4.99042e-05
1.40655e-05
5.09396e-05
1.62374e-05
5.19428e-05
1.8904e-05
5.30675e-05
2.24407e-05
5.42141e-05
2.67843e-05
5.54394e-05
3.18985e-05
5.65952e-05
3.82471e-05
5.74716e-05
4.59805e-05
5.79129e-05
5.47667e-05
5.69442e-05
6.35786e-05
5.30892e-05
4.69319e-05
7.17892e-05
1.37914e-06
4.90787e-05
2.63187e-06
4.67605e-05
3.68846e-06
4.63553e-05
4.60754e-06
4.61349e-05
5.43397e-06
4.59912e-05
6.25255e-06
4.596e-05
7.10648e-06
4.60327e-05
8.08265e-06
4.62947e-05
9.20295e-06
4.66611e-05
1.04777e-05
4.71739e-05
1.18851e-05
4.76857e-05
1.35616e-05
4.82277e-05
1.56039e-05
4.88973e-05
1.79645e-05
4.95822e-05
2.07717e-05
5.02604e-05
2.4016e-05
5.09698e-05
2.78305e-05
5.16249e-05
3.24831e-05
5.19427e-05
3.80791e-05
5.18756e-05
4.45637e-05
5.14284e-05
5.1708e-05
4.97998e-05
5.88313e-05
4.59659e-05
4.06976e-05
6.50656e-05
1.23067e-06
4.7848e-05
2.37197e-06
4.56192e-05
3.40992e-06
4.53173e-05
4.38239e-06
4.51625e-05
5.31014e-06
4.50634e-05
6.23143e-06
4.50387e-05
7.18393e-06
4.50802e-05
8.26338e-06
4.52152e-05
9.49259e-06
4.54319e-05
1.08635e-05
4.58029e-05
1.23457e-05
4.62035e-05
1.40587e-05
4.65147e-05
1.61085e-05
4.68475e-05
1.85143e-05
4.71763e-05
2.1281e-05
4.74937e-05
2.4448e-05
4.78028e-05
2.82249e-05
4.78479e-05
3.25777e-05
4.75899e-05
3.74446e-05
4.70087e-05
4.2897e-05
4.5976e-05
4.88098e-05
4.3887e-05
5.45254e-05
4.02503e-05
3.58247e-05
5.93982e-05
1.20229e-06
4.66458e-05
2.30923e-06
4.45123e-05
3.34652e-06
4.428e-05
4.3446e-06
4.41644e-05
5.32864e-06
4.40794e-05
6.33084e-06
4.40365e-05
7.37757e-06
4.40335e-05
8.51312e-06
4.40796e-05
9.75739e-06
4.41876e-05
1.11825e-05
4.43778e-05
1.28078e-05
4.45782e-05
1.46141e-05
4.47084e-05
1.66145e-05
4.48471e-05
1.8919e-05
4.48718e-05
2.15766e-05
4.48361e-05
2.46449e-05
4.47345e-05
2.80822e-05
4.44107e-05
3.18081e-05
4.3864e-05
3.602e-05
4.27968e-05
4.07329e-05
4.1263e-05
4.56737e-05
3.89463e-05
5.0208e-05
3.57159e-05
3.17967e-05
5.42361e-05
1.13699e-06
4.55088e-05
2.2067e-06
4.34426e-05
3.24683e-06
4.32399e-05
4.25791e-06
4.31533e-05
5.2656e-06
4.30717e-05
6.3052e-06
4.29969e-05
7.39399e-06
4.29447e-05
8.55543e-06
4.29182e-05
9.81873e-06
4.29243e-05
1.12491e-05
4.29474e-05
1.28849e-05
4.29425e-05
1.4689e-05
4.29043e-05
1.67221e-05
4.28139e-05
1.89063e-05
4.26876e-05
2.12872e-05
4.24552e-05
2.40602e-05
4.19615e-05
2.71653e-05
4.13056e-05
3.07008e-05
4.03285e-05
3.45267e-05
3.89709e-05
3.85755e-05
3.72143e-05
4.25691e-05
3.49526e-05
4.6352e-05
3.19331e-05
2.827e-05
4.98787e-05
1.09513e-06
4.44136e-05
2.13843e-06
4.23993e-05
3.17699e-06
4.22013e-05
4.21938e-06
4.21109e-05
5.26985e-06
4.20212e-05
6.33876e-06
4.19279e-05
7.45732e-06
4.18261e-05
8.65092e-06
4.17246e-05
9.94762e-06
4.16276e-05
1.13547e-05
4.15403e-05
1.28649e-05
4.14322e-05
1.4518e-05
4.12512e-05
1.63968e-05
4.09352e-05
1.85148e-05
4.05695e-05
2.09602e-05
4.00098e-05
2.35962e-05
3.93255e-05
2.64503e-05
3.84514e-05
2.94852e-05
3.72936e-05
3.26263e-05
3.58297e-05
3.59754e-05
3.38653e-05
3.94783e-05
3.14497e-05
4.28498e-05
2.85616e-05
2.52566e-05
4.58632e-05
1.05246e-06
4.33612e-05
2.05993e-06
4.13918e-05
3.06933e-06
4.11919e-05
4.08502e-06
4.10952e-05
5.11881e-06
4.09874e-05
6.18133e-06
4.08654e-05
7.28853e-06
4.07189e-05
8.45878e-06
4.05544e-05
9.72208e-06
4.03643e-05
1.11253e-05
4.01371e-05
1.26804e-05
3.98771e-05
1.43824e-05
3.95493e-05
1.61964e-05
3.91212e-05
1.81682e-05
3.85977e-05
2.02544e-05
3.79236e-05
2.25246e-05
3.70552e-05
2.5042e-05
3.5934e-05
2.77592e-05
3.45764e-05
3.06969e-05
3.2892e-05
3.36952e-05
3.0867e-05
3.66175e-05
2.85274e-05
3.94391e-05
2.574e-05
2.25515e-05
4.21442e-05
1.03045e-06
4.23307e-05
2.027e-06
4.03952e-05
3.02582e-06
4.01931e-05
4.03212e-06
4.00889e-05
5.05732e-06
3.99622e-05
6.11637e-06
3.98064e-05
7.21556e-06
3.96197e-05
8.3695e-06
3.94004e-05
9.59557e-06
3.91382e-05
1.09031e-05
3.88296e-05
1.23054e-05
3.84748e-05
1.3831e-05
3.80237e-05
1.54896e-05
3.74626e-05
1.73091e-05
3.67782e-05
1.93065e-05
3.59261e-05
2.15109e-05
3.48509e-05
2.38266e-05
3.36182e-05
2.62488e-05
3.21542e-05
2.87011e-05
3.04397e-05
3.11896e-05
2.83785e-05
3.37484e-05
2.59685e-05
3.62577e-05
2.32307e-05
2.01918e-05
3.86174e-05
9.76717e-07
4.1354e-05
1.92258e-06
3.94494e-05
2.87953e-06
3.92362e-05
3.84935e-06
3.91191e-05
4.83931e-06
3.89722e-05
5.86245e-06
3.87832e-05
6.92722e-06
3.85549e-05
8.04524e-06
3.82824e-05
9.22692e-06
3.79565e-05
1.04898e-05
3.75666e-05
1.18687e-05
3.70959e-05
1.33471e-05
3.65453e-05
1.49285e-05
3.58812e-05
1.66226e-05
3.50841e-05
1.84213e-05
3.41274e-05
2.02918e-05
3.29803e-05
2.22701e-05
3.16399e-05
2.43581e-05
3.00662e-05
2.65593e-05
2.82385e-05
2.8803e-05
2.61347e-05
3.10135e-05
2.37581e-05
3.31673e-05
2.10768e-05
1.81142e-05
3.52449e-05
9.48634e-07
4.04053e-05
1.87158e-06
3.85264e-05
2.80656e-06
3.83012e-05
3.74966e-06
3.8176e-05
4.70946e-06
3.80124e-05
5.69062e-06
3.78021e-05
6.7016e-06
3.75439e-05
7.75345e-06
3.72305e-05
8.85858e-06
3.68514e-05
1.00288e-05
3.63964e-05
1.12709e-05
3.58538e-05
1.25973e-05
3.5219e-05
1.40208e-05
3.44576e-05
1.55498e-05
3.35551e-05
1.71775e-05
3.24997e-05
1.89039e-05
3.12539e-05
2.07204e-05
2.98235e-05
2.25789e-05
2.82077e-05
2.44691e-05
2.63483e-05
2.63742e-05
2.42296e-05
2.82886e-05
2.18437e-05
3.0168e-05
1.91974e-05
1.63069e-05
3.19754e-05
8.91974e-07
3.95134e-05
1.76973e-06
3.76487e-05
2.65968e-06
3.74112e-05
3.55718e-06
3.72785e-05
4.46917e-06
3.71004e-05
5.39948e-06
3.68718e-05
6.356e-06
3.65874e-05
7.34893e-06
3.62376e-05
8.38508e-06
3.58152e-05
9.47602e-06
3.53055e-05
1.06268e-05
3.4703e-05
1.18533e-05
3.39924e-05
1.31535e-05
3.31574e-05
1.45248e-05
3.21838e-05
1.59664e-05
3.1058e-05
1.74715e-05
2.97487e-05
1.903e-05
2.82651e-05
2.06487e-05
2.65889e-05
2.23076e-05
2.46895e-05
2.39767e-05
2.25604e-05
2.56245e-05
2.01959e-05
2.72355e-05
1.75864e-05
1.47502e-05
2.87922e-05
8.53915e-07
3.86595e-05
1.69346e-06
3.68091e-05
2.54039e-06
3.65643e-05
3.39149e-06
3.64274e-05
4.25242e-06
3.62395e-05
5.1253e-06
3.59989e-05
6.0143e-06
3.56984e-05
6.92583e-06
3.53261e-05
7.86894e-06
3.48721e-05
8.86043e-06
3.4314e-05
9.90112e-06
3.36623e-05
1.09993e-05
3.28942e-05
1.21613e-05
3.19954e-05
1.33831e-05
3.0962e-05
1.46588e-05
2.97823e-05
1.59774e-05
2.84302e-05
1.73371e-05
2.69053e-05
1.87399e-05
2.51861e-05
2.01622e-05
2.32671e-05
2.15856e-05
2.11371e-05
2.29914e-05
1.87901e-05
2.43649e-05
1.62129e-05
1.34275e-05
2.56876e-05
8.07483e-07
3.7852e-05
1.60042e-06
3.60162e-05
2.39973e-06
3.5765e-05
3.19699e-06
3.56301e-05
4.00037e-06
3.54361e-05
4.81458e-06
3.51847e-05
5.64414e-06
3.48689e-05
6.4929e-06
3.44773e-05
7.36153e-06
3.40035e-05
8.25042e-06
3.34251e-05
9.16769e-06
3.27451e-05
1.0119e-05
3.19429e-05
1.11168e-05
3.09976e-05
1.21662e-05
2.99126e-05
1.32718e-05
2.86767e-05
1.44224e-05
2.72795e-05
1.56077e-05
2.572e-05
1.68057e-05
2.39881e-05
1.80086e-05
2.20643e-05
1.9212e-05
1.99337e-05
2.03983e-05
1.76038e-05
2.15465e-05
1.50648e-05
1.2324e-05
2.265e-05
7.64504e-07
3.70875e-05
1.49292e-06
3.52878e-05
2.22718e-06
3.50307e-05
2.96106e-06
3.48962e-05
3.70337e-06
3.46938e-05
4.46014e-06
3.44279e-05
5.23467e-06
3.40943e-05
6.0218e-06
3.36902e-05
6.82365e-06
3.32016e-05
7.62915e-06
3.26196e-05
8.44806e-06
3.19262e-05
9.285e-06
3.1106e-05
1.01407e-05
3.01419e-05
1.10182e-05
2.90352e-05
1.19221e-05
2.77728e-05
1.28537e-05
2.6348e-05
1.3823e-05
2.47507e-05
1.48353e-05
2.29758e-05
1.58609e-05
2.10386e-05
1.6865e-05
1.89296e-05
1.78408e-05
1.6628e-05
1.87804e-05
1.41252e-05
1.14284e-05
1.9676e-05
7.25402e-07
3.6362e-05
1.37483e-06
3.46383e-05
2.02435e-06
3.43812e-05
2.67888e-06
3.42417e-05
3.34293e-06
3.40298e-05
4.02063e-06
3.37502e-05
4.7207e-06
3.33943e-05
5.43702e-06
3.29738e-05
6.16812e-06
3.24705e-05
6.90757e-06
3.18801e-05
7.65351e-06
3.11802e-05
8.40236e-06
3.03571e-05
9.14621e-06
2.9398e-05
9.88921e-06
2.82922e-05
1.06349e-05
2.7027e-05
1.13885e-05
2.55944e-05
1.21497e-05
2.39895e-05
1.29154e-05
2.22102e-05
1.36984e-05
2.02556e-05
1.45121e-05
1.81159e-05
1.53147e-05
1.58255e-05
1.60649e-05
1.33749e-05
1.07308e-05
1.67626e-05
6.6951e-07
3.56925e-05
1.19574e-06
3.41121e-05
1.72303e-06
3.38539e-05
2.26305e-06
3.37017e-05
2.81534e-06
3.34775e-05
3.38563e-06
3.31799e-05
3.97877e-06
3.28011e-05
4.60003e-06
3.23526e-05
5.24642e-06
3.18241e-05
5.91215e-06
3.12144e-05
6.5828e-06
3.05096e-05
7.24477e-06
2.96951e-05
7.90605e-06
2.87368e-05
8.57631e-06
2.76219e-05
9.23876e-06
2.63646e-05
9.89154e-06
2.49416e-05
1.05215e-05
2.33596e-05
1.11203e-05
2.16114e-05
1.16997e-05
1.96762e-05
1.22568e-05
1.75588e-05
1.28127e-05
1.52695e-05
1.33798e-05
1.28078e-05
1.02082e-05
1.39024e-05
5.69848e-07
3.51227e-05
9.0957e-07
3.37724e-05
1.23585e-06
3.35276e-05
1.60028e-06
3.33372e-05
1.99385e-06
3.30839e-05
2.41314e-06
3.27606e-05
2.8646e-06
3.23497e-05
3.36218e-06
3.1855e-05
3.90778e-06
3.12785e-05
4.50102e-06
3.06212e-05
5.13183e-06
2.98788e-05
5.78119e-06
2.90458e-05
6.421e-06
2.80969e-05
7.03876e-06
2.70042e-05
7.61557e-06
2.57878e-05
8.15939e-06
2.43978e-05
8.69045e-06
2.28285e-05
9.21253e-06
2.10894e-05
9.70026e-06
1.91885e-05
1.01257e-05
1.71333e-05
1.04881e-05
1.49072e-05