/*--------------------------------*- C++ -*----------------------------------*\
| =========                 |                                                 |
| \\      /  F ield         | OpenFOAM: The Open Source CFD Toolbox           |
|  \\    /   O peration     | Version:  2.4.0                                 |
|   \\  /    A nd           | Web:      www.OpenFOAM.org                      |
|    \\/     M anipulation  |                                                 |
\*---------------------------------------------------------------------------*/
FoamFile
{
    version     2.0;
    format      ascii;
    class       surfaceScalarField;
    location    "0.8";
    object      phi.mercury;
}
// * * * * * * * * * * * * * * * * * * * * * * * * * * * * * * * * * * * * * //

dimensions      [0 3 -1 0 0 0 0];

internalField   nonuniform List<scalar> 
4432
(
1.25702e-06
-1.26307e-06
2.699e-06
-1.44779e-06
3.2251e-06
-5.28121e-07
3.04123e-06
1.83417e-07
2.32315e-06
7.17979e-07
-1.26656e-07
2.4498e-06
-4.52571e-06
4.39905e-06
-1.06677e-05
6.14203e-06
-1.54578e-05
4.79001e-06
-1.79491e-05
2.4913e-06
-1.94633e-05
1.51427e-06
-2.00246e-05
5.61296e-07
-1.924e-05
-7.84601e-07
-1.70354e-05
-2.20466e-06
-1.4451e-05
-2.5844e-06
-1.23754e-05
-2.0756e-06
-1.09564e-05
-1.41896e-06
-9.76989e-06
-1.1865e-06
-8.38848e-06
-1.38141e-06
-6.17375e-06
-2.21473e-06
-4.57815e-06
-1.5956e-06
-3.86581e-06
-7.12353e-07
-3.86583e-06
1.21954e-06
-5.04484e-06
2.4001e-06
-5.01619e-06
3.19368e-06
-3.06582e-06
3.75292e-06
-1.27596e-06
3.8828e-06
3.32853e-07
1.77401e-06
4.53853e-06
-2.86891e-06
9.04168e-06
-9.77327e-06
1.30464e-05
-1.55459e-05
1.05627e-05
-1.89214e-05
5.86677e-06
-2.02544e-05
2.84727e-06
-2.03872e-05
6.94153e-07
-1.91515e-05
-2.02038e-06
-1.68784e-05
-4.47771e-06
-1.43461e-05
-5.11668e-06
-1.22244e-05
-4.19736e-06
-1.0649e-05
-2.99435e-06
-9.40795e-06
-2.42755e-06
-7.75063e-06
-3.03873e-06
-5.73081e-06
-4.23455e-06
-3.84359e-06
-3.48282e-06
-2.27276e-06
-2.28318e-06
-6.13859e-06
1.46787e-06
-3.65494e-05
2.27504e-06
-3.58546e-05
3.75644e-06
-3.40295e-05
4.04179e-06
-3.01482e-05
1.77126e-06
-2.31098e-05
-1.68363e-06
-9.79223e-06
-5.55668e-06
6.91238e-06
-1.13617e-05
1.86755e-05
-1.61397e-05
1.53363e-05
-1.91357e-05
8.86272e-06
-2.03982e-05
4.10971e-06
-2.02173e-05
5.13237e-07
-1.89091e-05
-3.32854e-06
-1.67936e-05
-6.59321e-06
-1.45448e-05
-7.36543e-06
-1.24628e-05
-6.27934e-06
-1.05599e-05
-4.89726e-06
-9.01321e-06
-3.97428e-06
-7.20855e-06
-4.8434e-06
-5.51783e-06
-5.92527e-06
-3.45922e-06
-5.54143e-06
-1.40943e-06
-4.33296e-06
-7.54803e-06
1.43193e-06
-3.28134e-05
1.90046e-06
-3.19019e-05
3.14642e-06
-3.1514e-05
3.54601e-06
-2.88891e-05
2.17956e-06
-3.99801e-05
-3.9489e-07
-3.06368e-05
-6.41503e-06
-1.16419e-05
-1.40057e-05
1.41162e-05
-1.84556e-05
1.89697e-05
-2.04081e-05
1.08011e-05
-2.0488e-05
4.18927e-06
-1.99997e-05
2.49538e-08
-1.88584e-05
-4.46988e-06
-1.67779e-05
-8.67376e-06
-1.43004e-05
-9.84293e-06
-1.18008e-05
-8.77895e-06
-9.49018e-06
-7.20785e-06
-7.90538e-06
-5.55908e-06
-6.9884e-06
-5.76037e-06
-6.62316e-06
-6.29051e-06
-4.87166e-06
-7.29293e-06
-2.15985e-06
-7.04478e-06
-9.70788e-06
-2.49168e-07
-9.23423e-06
-3.65455e-07
-7.66935e-06
-7.23238e-07
-6.93046e-06
1.1281e-06
-4.72197e-06
2.64556e-06
-1.89369e-05
1.04216e-06
-2.49951e-05
-7.06215e-06
-1.6895e-05
-1.79568e-05
9.15761e-06
-2.38279e-05
1.93846e-05
-2.54114e-05
1.19975e-05
-2.47626e-05
3.52747e-06
-2.26742e-05
-2.06403e-06
-2.02861e-05
-6.85819e-06
-1.7779e-05
-1.11828e-05
-1.47019e-05
-1.29389e-05
-1.14076e-05
-1.21028e-05
-8.50721e-06
-1.01325e-05
-7.00365e-06
-7.07012e-06
-6.80925e-06
-5.95677e-06
-6.98553e-06
-6.11551e-06
-6.27486e-06
-8.00794e-06
-3.587e-06
-9.74732e-06
-1.33353e-05
-1.93163e-07
-7.04834e-06
-2.01367e-06
-4.24241e-06
-5.556e-06
-1.53931e-06
-1.10492e-05
2.96084e-06
-1.64774e-05
6.97555e-06
-1.80918e-05
4.2475e-06
-2.61671e-05
-8.56119e-06
-2.84717e-05
3.79995e-06
-3.05902e-05
1.35211e-05
-3.01418e-05
1.03173e-05
-2.90794e-05
2.38616e-06
-2.73075e-05
-3.84827e-06
-2.46922e-05
-9.54524e-06
-2.15873e-05
-1.47613e-05
-1.74731e-05
-1.84978e-05
-1.30203e-05
-1.84631e-05
-9.33218e-06
-1.56522e-05
-7.31773e-06
-1.02505e-05
-6.81489e-06
-7.16407e-06
-6.92519e-06
-6.56771e-06
-6.63974e-06
-9.06251e-06
-4.73839e-06
-1.29911e-05
-2.03774e-05
-7.21273e-07
-8.46162e-06
-8.93566e-07
-5.8283e-06
-1.56809e-06
-3.1053e-06
-3.73094e-06
1.83319e-06
-1.01697e-05
8.44223e-06
-2.3355e-05
1.40638e-05
-3.89864e-05
-7.19606e-06
-4.06538e-05
-3.93373e-06
-4.13663e-05
2.96402e-06
-3.96618e-05
3.13805e-06
-3.54567e-05
-3.28778e-06
-3.11462e-05
-9.60515e-06
-2.72797e-05
-1.67585e-05
-2.31161e-05
-2.65436e-05
-1.8905e-05
-3.4774e-05
-1.53059e-05
-3.64113e-05
-1.22799e-05
-3.36028e-05
-9.3895e-06
-2.72666e-05
-7.0448e-06
-2.30105e-05
-5.74383e-06
-2.09598e-05
-6.08033e-06
-2.19154e-05
-5.94617e-06
-2.72259e-05
-4.21328e-05
6.11301e-07
-4.76385e-06
-9.46042e-07
-3.61657e-07
-3.97659e-06
4.08168e-06
-6.98269e-06
8.95394e-06
-1.06269e-05
1.38397e-05
-2.04785e-05
1.87262e-05
-3.66072e-05
7.85364e-07
-4.08627e-05
-9.7741e-06
-4.25826e-05
-5.43599e-06
-4.30422e-05
-7.39675e-06
-4.11832e-05
-1.52332e-05
-3.63372e-05
-2.48231e-05
-2.93954e-05
-3.64616e-05
-2.14121e-05
-5.40182e-05
-1.65821e-05
-6.50417e-05
-1.58362e-05
-6.39589e-05
-1.55676e-05
-6.09375e-05
-1.25779e-05
-5.69988e-05
-7.6615e-06
-5.42896e-05
-4.00513e-06
-5.08968e-05
-5.03475e-06
-4.54151e-05
-8.25217e-06
-4.9707e-05
-7.97144e-05
-5.66526e-07
-6.36235e-06
1.75833e-05
-3.63622e-05
2.75414e-05
-3.7487e-05
3.30659e-05
-3.19077e-05
3.62709e-05
-2.75903e-05
3.87203e-05
-2.47983e-05
4.12447e-05
-2.20478e-05
4.40448e-05
-1.93053e-05
4.70375e-05
-1.77289e-05
5.01432e-05
-1.76763e-05
5.34102e-05
-1.85177e-05
5.6155e-05
-1.83661e-05
5.69727e-05
-1.57188e-05
5.38538e-05
-1.05364e-05
4.44755e-05
4.74127e-07
2.70547e-05
1.08935e-05
6.44716e-06
1.32352e-05
-2.76194e-06
2.43383e-06
-8.7859e-06
3.4481e-06
-1.25489e-05
3.07352e-05
-9.78071e-05
4.15067e-05
-0.000120039
4.64704e-05
-0.000110738
4.88062e-05
-9.66879e-05
4.97969e-05
-7.16782e-05
5.07987e-05
-6.60042e-05
5.20749e-05
-6.77428e-05
5.33353e-05
-6.43416e-05
5.44041e-05
-6.17307e-05
5.58562e-05
-6.28456e-05
5.76004e-05
-6.46501e-05
5.83529e-05
-6.41617e-05
5.53273e-05
-1.92756e-05
4.40309e-05
8.20214e-06
2.82634e-05
2.91815e-05
1.28979e-05
3.10011e-05
-1.35856e-06
2.04015e-05
-7.23803e-06
1.748e-05
-9.94226e-05
3.30689e-05
-0.000182019
3.91104e-05
-0.000202509
4.50169e-05
-0.000176476
5.35575e-05
-0.000106535
6.65871e-05
-7.68033e-05
7.22796e-05
-6.99829e-05
7.3331e-05
-7.24417e-05
7.03178e-05
-6.93601e-05
6.5634e-05
-6.5589e-05
6.16176e-05
-6.54434e-05
5.47896e-05
-6.59968e-05
4.62752e-05
-7.55641e-05
3.82541e-05
-4.74562e-05
3.10958e-05
-1.59978e-05
2.45423e-05
2.52587e-05
1.30499e-05
3.96535e-05
1.21796e-06
2.92675e-05
-8.33397e-06
3.0103e-05
-0.000193
2.58039e-05
-0.000210596
2.3463e-05
-0.000209429
3.37391e-05
-0.000134729
5.32509e-05
-4.53011e-05
5.76133e-05
-2.85746e-05
5.84318e-05
-1.98634e-05
5.78534e-05
-1.48367e-05
5.56211e-05
-1.24252e-05
5.22403e-05
-1.20487e-05
4.6677e-05
-1.06287e-05
2.35694e-05
-4.04306e-06
-5.35282e-06
-2.3927e-05
-1.47601e-05
-4.16365e-05
-1.10291e-06
-2.56228e-05
1.35243e-05
2.58623e-06
1.23659e-05
3.99552e-05
5.41209e-06
3.67876e-05
-7.3759e-07
1.97335e-05
-0.000208081
1.95713e-05
-0.000216924
2.21731e-05
-0.000197799
3.55995e-05
-8.59989e-05
4.80328e-05
-4.73122e-05
5.14734e-05
-3.25207e-05
5.10864e-05
-2.10325e-05
4.80155e-05
-1.32265e-05
4.4999e-05
-1.08746e-05
4.33192e-05
-1.55219e-05
4.0915e-05
-1.37891e-05
1.79915e-05
-7.86602e-07
-1.17223e-05
-1.87537e-05
-2.24012e-05
-3.31509e-05
-2.12796e-05
-2.56578e-05
-6.24094e-06
-2.16278e-05
7.30536e-06
2.52542e-05
7.13324e-06
3.7006e-05
4.82937e-06
1.75238e-05
-0.000212878
1.444e-05
-0.000219492
1.55084e-05
-0.000155835
2.61394e-05
-7.03118e-05
3.41232e-05
-5.26604e-05
3.93898e-05
-3.61315e-05
4.10144e-05
-2.17454e-05
4.03937e-05
-1.1533e-05
3.70562e-05
-6.19835e-06
3.57585e-05
-1.21891e-05
3.45437e-05
-1.52284e-05
1.57511e-05
-5.12895e-06
-1.11806e-05
-8.74156e-06
-2.14448e-05
-3.0661e-05
-2.15093e-05
-2.75172e-05
-8.95751e-06
-3.75449e-05
5.52312e-06
7.92193e-06
8.45448e-06
3.39219e-05
1.04728e-05
1.43511e-05
-0.000210597
2.49582e-06
-0.000209541
-1.98682e-06
-0.000117525
1.22251e-05
-8.27551e-05
2.7622e-05
-6.64331e-05
3.61661e-05
-4.35006e-05
3.75941e-05
-2.13165e-05
3.48467e-05
-7.0107e-06
3.0246e-05
3.77967e-06
2.73715e-05
2.49494e-06
2.857e-05
-2.72338e-06
1.95767e-05
3.32214e-06
-4.33063e-06
1.3473e-05
-1.98352e-05
-2.93254e-05
-2.19342e-05
-3.03063e-05
-1.74654e-05
-4.63808e-05
-3.51212e-06
-1.15256e-05
7.18445e-06
2.07996e-05
-6.44157e-06
1.23985e-05
-0.000207497
-2.79004e-06
-0.000192885
-1.28683e-05
-0.00010664
-1.16386e-06
-9.88563e-05
1.42096e-05
-8.31416e-05
2.84455e-05
-5.79313e-05
3.5435e-05
-2.86132e-05
3.45653e-05
-8.90297e-06
2.96918e-05
5.36285e-06
2.43249e-05
7.35462e-06
2.21234e-05
4.22934e-06
2.07621e-05
1.02047e-05
4.3495e-06
2.80835e-05
-1.40234e-05
-2.59698e-05
-1.98788e-05
-2.86479e-05
-2.27794e-05
-5.48843e-05
-1.52954e-05
-3.64632e-05
6.9961e-07
-8.42613e-06
-5.57917e-05
1.45915e-06
-7.4315e-06
5.29549e-06
-6.33795e-06
8.27232e-06
-9.11186e-07
6.09042e-06
6.96204e-06
-1.4644e-06
1.77036e-05
-2.07543e-05
2.49616e-05
-4.76358e-05
2.01662e-05
-6.07225e-05
2.24772e-06
-5.40327e-05
-1.08074e-05
-4.91269e-05
-2.1422e-05
-4.84419e-05
-3.5661e-05
-4.69035e-05
-5.53673e-05
-3.58968e-05
-7.60831e-05
-2.5493e-05
-9.8419e-05
-2.61315e-05
-9.85178e-05
-2.97366e-05
-7.41578e-05
-2.79738e-05
-6.04865e-05
-2.14282e-05
-5.98348e-05
-1.51882e-05
-5.89711e-05
-9.03239e-06
-5.60696e-05
-6.92356e-06
-4.78244e-05
-1.68262e-05
-4.55271e-05
-6.59086e-05
-2.29529e-05
6.84228e-06
-1.08239e-05
9.92977e-06
-5.29752e-06
6.3801e-06
5.27677e-06
2.53384e-06
1.45034e-05
6.56875e-07
2.18976e-05
-7.82031e-07
2.70939e-05
-1.01808e-05
2.64275e-05
-2.27657e-05
1.93048e-05
-2.33424e-05
-3.37883e-06
-1.26836e-05
-2.66023e-05
-1.50505e-06
-4.51107e-05
7.14324e-06
-5.58312e-05
1.27286e-05
-6.28726e-05
1.87232e-05
-6.73266e-05
2.58231e-05
-6.02039e-05
3.049e-05
-4.23335e-05
3.15457e-05
-2.95085e-05
3.03091e-05
-2.69286e-05
2.61059e-05
-2.4671e-05
1.95348e-05
-1.96448e-05
1.54983e-05
-1.4569e-05
1.45889e-05
-1.4503e-05
-2.13623e-05
-2.61217e-06
9.15987e-06
-2.14119e-05
1.7649e-05
-1.455e-05
2.09093e-05
2.1954e-06
1.59559e-05
2.14726e-05
7.82642e-06
3.48966e-05
1.76912e-06
3.78763e-05
9.81527e-07
3.88334e-05
-2.00301e-06
2.05807e-05
-1.96573e-06
9.30655e-06
4.95025e-06
-7.6845e-06
1.85575e-05
-1.93931e-05
3.05936e-05
-2.25196e-05
3.34595e-05
-2.37196e-05
3.4703e-05
-2.58691e-05
3.88257e-05
-3.01647e-05
4.1502e-05
-3.24112e-05
3.6198e-05
-2.84254e-05
2.5233e-05
-2.13181e-05
1.86129e-05
-9.03137e-06
9.89047e-06
2.49875e-06
-8.44844e-06
1.70042e-05
-5.71831e-05
3.97539e-05
3.51347e-05
-0.000101966
1.64893e-05
-3.80876e-05
2.3049e-05
-2.32297e-05
1.15373e-05
1.09187e-05
3.12019e-06
2.75435e-05
-1.78161e-06
3.87551e-05
-6.41724e-06
4.19442e-05
-5.80975e-06
3.81003e-05
1.49067e-06
3.16476e-05
8.63503e-06
1.41758e-05
1.62855e-05
3.91292e-06
2.07985e-05
-5.34745e-06
2.30951e-05
-1.21247e-05
2.74037e-05
-2.97158e-05
2.65053e-05
-5.27936e-05
2.51957e-05
-5.57589e-05
2.33052e-05
-5.65956e-05
5.19425e-06
-4.43184e-05
-2.26665e-05
-1.62531e-05
-4.92592e-05
4.15272e-06
-8.02902e-05
2.72536e-05
-0.000134592
6.31233e-05
-0.000173949
9.11901e-05
5.68552e-05
-0.000221743
-5.56375e-06
-3.41456e-05
-2.35156e-05
-8.12712e-06
-3.74736e-05
2.29666e-05
-4.18591e-05
2.97805e-05
-3.88022e-05
3.19032e-05
-3.32259e-05
3.32281e-05
-2.6235e-05
2.8266e-05
-1.84241e-05
2.049e-05
-6.69015e-06
4.99727e-06
7.20519e-06
-1.41044e-05
1.62391e-05
-5.2046e-05
1.09082e-05
-7.89192e-05
-9.06786e-07
-8.5655e-05
-7.57963e-06
-7.66664e-05
-4.53254e-05
-7.9077e-05
-0.000144126
-1.67769e-05
-0.00015887
-1.43536e-05
-0.000181582
2.40163e-07
-0.000204033
2.19103e-05
-0.000225256
6.25398e-05
-0.000239841
9.61828e-05
-0.00024138
9.25052e-05
1.16504e-05
-0.000250714
-3.02444e-05
-1.88374e-05
-6.19986e-05
-1.29811e-05
-7.31028e-05
-9.31216e-06
-7.39371e-05
-1.26522e-05
-6.82032e-05
-1.60187e-05
-5.87475e-05
-1.63376e-05
-5.09135e-05
-2.12169e-05
-4.40234e-05
-3.13823e-05
-4.10537e-05
-4.87181e-05
-4.5911e-05
-6.57442e-05
-4.74704e-05
-8.11216e-05
-5.10157e-05
-8.59545e-05
-0.000129261
2.97147e-05
-0.000195956
5.11135e-05
-0.000187135
3.29742e-05
-0.000191256
3.25631e-05
-0.000167135
-2.10011e-05
-0.000200351
-1.42714e-05
-0.000217337
1.80776e-05
-0.00023521
7.67832e-05
-0.000246891
0.000105551
-0.000257981
9.4881e-05
1.19913e-05
-0.000279895
-5.21566e-05
-3.69939e-05
-8.55847e-05
-3.11352e-05
-9.19069e-05
-2.61799e-05
-8.84497e-05
-3.62264e-05
-7.80765e-05
-4.58793e-05
-6.94772e-05
-4.69369e-05
-6.17102e-05
-4.98936e-05
-5.9e-05
-5.90795e-05
-7.47965e-05
-4.86864e-05
-0.000126546
5.75702e-06
-0.00020037
1.84452e-05
-0.00018288
-2.07107e-05
-0.000139529
3.31063e-05
-0.000143663
5.67398e-05
-0.000158269
6.31771e-05
-0.000210785
8.40854e-05
-0.000162731
-1.00147e-05
-0.000157479
-1.2224e-05
-0.00020506
1.80197e-05
-0.00021759
7.50898e-05
-0.000229553
0.000110048
-0.000266772
0.000107878
6.93782e-05
-0.000299167
-6.01145e-05
-2.46814e-05
-9.82653e-05
6.80612e-06
-0.00010238
6.60891e-06
-9.17873e-05
1.77945e-06
-7.83917e-05
-1.78003e-06
-6.53384e-05
-3.34237e-06
-7.00224e-05
9.95115e-06
-8.27125e-05
2.17773e-05
-8.50594e-05
4.78146e-05
-7.53327e-05
7.03303e-05
-7.11651e-05
2.2204e-05
-8.01762e-05
-1.09038e-05
-7.12458e-05
2.41959e-05
-6.63717e-05
5.1867e-05
-7.03074e-05
6.70506e-05
-8.87478e-05
9.77622e-05
-0.000179567
8.89783e-05
-0.000143267
2.9469e-05
-0.000173291
2.48052e-05
-0.000201094
5.15944e-05
-0.000214227
9.50869e-05
-0.000159445
0.000112984
0.0002275
-0.000276988
-5.53238e-05
0.000104728
-6.05546e-05
0.000116373
-4.90302e-05
4.84206e-05
-3.36234e-05
6.4075e-06
-1.38328e-05
-1.26695e-05
4.85397e-06
-1.5789e-05
3.87453e-06
1.89013e-05
-3.4706e-05
6.63302e-05
-5.11986e-05
6.91243e-05
-5.34236e-05
7.29878e-05
-7.77863e-05
4.65696e-05
-9.65938e-05
7.9055e-06
-8.25537e-05
1.01567e-05
-6.80494e-05
3.7363e-05
-5.71668e-05
5.61671e-05
-3.90559e-05
7.9828e-05
-5.36652e-05
0.000106858
-0.000174535
0.000122346
-0.000164366
6.65232e-05
-0.000189364
4.87337e-05
-0.000186556
6.98051e-05
-0.000176597
0.000123856
0.000321148
-0.00025533
-5.15404e-06
0.000146042
2.48769e-06
0.000113277
-2.39343e-06
5.34084e-05
-1.16734e-05
1.56899e-05
-1.54915e-05
-8.85049e-06
-2.71176e-05
-4.16272e-06
-2.27008e-05
1.44848e-05
-1.80513e-05
6.16803e-05
-2.55305e-05
7.66038e-05
-2.86239e-05
7.60812e-05
-3.07136e-05
4.86588e-05
-3.32833e-05
1.04752e-05
-3.74559e-05
1.43288e-05
-3.19742e-05
3.18804e-05
-2.38338e-05
4.80252e-05
-1.41543e-05
7.01465e-05
-5.02794e-06
9.71816e-05
-6.01572e-05
0.000129834
-0.000144075
0.000138997
-0.000173587
0.000104543
-0.000182684
0.000106132
-0.000215134
0.00019229
0.000328364
-0.000206997
1.81965e-05
0.000127903
2.54263e-05
0.000106048
2.26248e-05
5.62098e-05
1.78563e-05
2.04583e-05
8.20944e-06
7.96235e-07
-6.69892e-06
1.07456e-05
-1.04701e-05
1.82561e-05
-7.51542e-06
5.87254e-05
-8.47782e-06
7.75664e-05
-4.17465e-06
7.1778e-05
-1.14739e-07
4.45989e-05
-1.16675e-05
2.20281e-05
-2.7579e-05
3.02401e-05
-2.79032e-05
3.22043e-05
-2.3532e-05
4.36536e-05
-1.5165e-05
6.17796e-05
-3.97732e-06
8.59937e-05
8.41623e-06
0.00011688
-8.93027e-08
0.000155893
-4.39754e-05
0.000187443
-0.000107012
0.000243449
-0.000148133
0.000323732
0.000332771
-0.000148661
1.40353e-05
0.000113868
2.2479e-05
9.76041e-05
1.85837e-05
6.01052e-05
1.02107e-05
2.88316e-05
6.09817e-07
1.03967e-05
-2.61087e-06
1.39662e-05
-1.56083e-06
1.72061e-05
1.48215e-06
5.56824e-05
2.11784e-06
7.69308e-05
4.6579e-06
6.92379e-05
2.80665e-06
4.64501e-05
-3.88946e-06
2.87241e-05
-8.96786e-06
3.53183e-05
-1.39335e-05
3.71695e-05
-1.64308e-05
4.61502e-05
-1.45251e-05
5.98737e-05
-9.0059e-06
8.04742e-05
2.69651e-07
0.000107608
1.00302e-05
0.000146576
7.51893e-06
0.000195942
-2.30074e-05
0.0002898
-6.23727e-05
0.00037468
0.000344627
-7.39719e-05
7.87766e-06
0.000105991
2.01701e-05
8.53112e-05
2.44897e-05
5.57856e-05
2.20163e-05
3.13054e-05
9.33126e-06
2.30817e-05
-2.54206e-06
2.58396e-05
-1.12866e-05
2.59506e-05
-2.87799e-06
4.72738e-05
7.53746e-06
6.65153e-05
1.34419e-05
6.33335e-05
1.14893e-05
4.84028e-05
1.33879e-06
3.88746e-05
-7.3066e-06
4.39636e-05
-1.52905e-05
4.51532e-05
-1.93876e-05
5.0247e-05
-1.89521e-05
5.94383e-05
-1.55042e-05
7.70265e-05
-1.07398e-05
0.000102845
-2.09474e-07
0.000136046
1.323e-05
0.0001825
2.96104e-05
0.000273421
4.45994e-05
0.000359697
0.000340141
4.91187e-05
9.1133e-06
9.68774e-05
1.92361e-05
7.51882e-05
2.16763e-05
5.33454e-05
1.58289e-05
3.71529e-05
8.59526e-06
3.03153e-05
1.07664e-06
3.33582e-05
-5.05751e-06
3.20848e-05
-3.14561e-06
4.5362e-05
7.22788e-06
5.61418e-05
1.25934e-05
5.7968e-05
7.48806e-06
5.35081e-05
-2.11997e-06
4.84826e-05
-8.23002e-06
5.00736e-05
-1.28739e-05
4.97969e-05
-1.65047e-05
5.38777e-05
-1.88543e-05
6.17876e-05
-1.80763e-05
7.62498e-05
-1.48086e-05
9.95788e-05
-8.43317e-06
0.000129671
6.17922e-06
0.000167892
3.74881e-05
0.000242107
8.30235e-05
0.000314215
0.000295531
0.000127588
1.28821e-05
8.39953e-05
1.9604e-05
6.84663e-05
2.07706e-05
5.21789e-05
1.60084e-05
4.19151e-05
8.64437e-06
3.76794e-05
2.76144e-06
3.92412e-05
-3.96924e-06
3.88155e-05
-3.84097e-06
4.52337e-05
1.58488e-06
5.07159e-05
4.1797e-06
5.53732e-05
1.14656e-06
5.65413e-05
-5.22337e-06
5.48525e-05
-9.63778e-06
5.44879e-05
-1.3659e-05
5.38181e-05
-1.64884e-05
5.6707e-05
-1.80877e-05
6.33873e-05
-1.74412e-05
7.56039e-05
-1.33713e-05
9.55118e-05
-6.3277e-06
0.000122631
6.89142e-06
0.000154689
4.26183e-05
0.000206378
0.000100532
0.000256347
0.000237024
0.000159001
1.17527e-05
7.22424e-05
1.72494e-05
6.29696e-05
1.74113e-05
5.2017e-05
1.3401e-05
4.59254e-05
8.08731e-06
4.29931e-05
3.97521e-06
4.33533e-05
-5.67583e-07
4.33583e-05
-1.88316e-06
4.65493e-05
-4.42113e-07
4.92749e-05
1.03739e-06
5.38937e-05
4.59689e-07
5.7119e-05
-2.32703e-06
5.76393e-05
-5.43014e-06
5.7591e-05
-9.18546e-06
5.75734e-05
-1.21203e-05
5.96422e-05
-1.33661e-05
6.46333e-05
-1.18889e-05
7.41277e-05
-5.69821e-06
8.93227e-05
6.42985e-06
0.000110507
2.54662e-05
0.000135666
6.13185e-05
0.000170528
0.000118509
0.000199182
0.000180668
0.000174847
7.89873e-06
6.43438e-05
1.21448e-05
5.87236e-05
1.22754e-05
5.18865e-05
1.00294e-05
4.81713e-05
7.03755e-06
4.5985e-05
4.63528e-06
4.57556e-05
2.18716e-06
4.58064e-05
8.80059e-07
4.78564e-05
6.07484e-07
4.95475e-05
1.37488e-06
5.31264e-05
2.21746e-06
5.62765e-05
2.15987e-06
5.76969e-05
1.35809e-06
5.83929e-05
-3.55517e-07
5.92872e-05
-2.07531e-06
6.13618e-05
-2.81658e-06
6.53752e-05
-1.38609e-06
7.26972e-05
4.22372e-06
8.37138e-05
1.59934e-05
9.87381e-05
3.64056e-05
0.000115257
6.96675e-05
0.000137253
0.000119059
0.000149772
0.000134211
0.000165473
4.93406e-06
5.94097e-05
8.10981e-06
5.55479e-05
8.65067e-06
5.13456e-05
7.86628e-06
4.89558e-05
6.49086e-06
4.73605e-05
5.32018e-06
4.69263e-05
4.11985e-06
4.70068e-05
3.60346e-06
4.83729e-05
3.33496e-06
4.98161e-05
3.98318e-06
5.24782e-05
5.35985e-06
5.48999e-05
6.59688e-06
5.646e-05
7.36428e-06
5.76256e-05
7.47018e-06
5.91813e-05
7.49618e-06
6.13364e-05
8.00545e-06
6.48655e-05
1.00728e-05
7.06307e-05
1.51658e-05
7.8621e-05
2.525e-05
8.86551e-05
4.18421e-05
9.86655e-05
6.8829e-05
0.000110261
0.000105269
0.000113313
0.000102402
0.000137057
3.19951e-06
5.62103e-05
5.73827e-06
5.30092e-05
6.6571e-06
5.04269e-05
6.69552e-06
4.89174e-05
6.18633e-06
4.78698e-05
5.62222e-06
4.74905e-05
5.03745e-06
4.75917e-05
4.9004e-06
4.851e-05
5.08297e-06
4.96336e-05
6.04545e-06
5.15159e-05
7.58875e-06
5.33567e-05
9.19628e-06
5.48526e-05
1.0631e-05
5.61909e-05
1.18277e-05
5.7985e-05
1.30466e-05
6.01174e-05
1.44857e-05
6.34268e-05
1.73396e-05
6.7777e-05
2.29423e-05
7.30186e-05
3.21867e-05
7.9411e-05
4.52407e-05
8.56118e-05
6.46684e-05
9.0831e-05
8.86618e-05
8.93147e-05
8.11655e-05
0.000109892
2.34874e-06
5.38616e-05
4.37349e-06
5.09845e-05
5.35838e-06
4.9442e-05
5.73724e-06
4.85386e-05
5.7275e-06
4.78795e-05
5.59365e-06
4.76244e-05
5.43838e-06
4.7747e-05
5.56196e-06
4.83865e-05
5.98326e-06
4.92124e-05
7.0571e-06
5.04421e-05
8.64744e-06
5.17665e-05
1.03674e-05
5.31327e-05
1.20912e-05
5.44672e-05
1.38896e-05
5.61866e-05
1.57761e-05
5.82313e-05
1.81319e-05
6.10711e-05
2.19101e-05
6.39991e-05
2.78051e-05
6.71239e-05
3.61775e-05
7.10389e-05
4.70168e-05
7.47727e-05
6.11612e-05
7.66865e-05
7.71332e-05
7.33414e-05
6.61438e-05
9.21534e-05
1.87063e-06
5.1991e-05
3.45613e-06
4.9399e-05
4.42594e-06
4.84723e-05
5.07769e-06
4.78869e-05
5.50348e-06
4.74538e-05
5.76882e-06
4.73591e-05
5.99924e-06
4.75167e-05
6.38968e-06
4.79961e-05
6.95922e-06
4.86429e-05
7.91139e-06
4.949e-05
9.2801e-06
5.03978e-05
1.0898e-05
5.1515e-05
1.26195e-05
5.27457e-05
1.46976e-05
5.41088e-05
1.72011e-05
5.57278e-05
2.05284e-05
5.77441e-05
2.47518e-05
5.9776e-05
3.01738e-05
6.17022e-05
3.74005e-05
6.38127e-05
4.65351e-05
6.56385e-05
5.74993e-05
6.57225e-05
6.89476e-05
6.18932e-05
5.51346e-05
7.99565e-05
1.53678e-06
5.04543e-05
2.92622e-06
4.80096e-05
3.99036e-06
4.74082e-05
4.82704e-06
4.70503e-05
5.46714e-06
4.68138e-05
6.05172e-06
4.67746e-05
6.68591e-06
4.68825e-05
7.41554e-06
4.72666e-05
8.2816e-06
4.77769e-05
9.32768e-06
4.8444e-05
1.06374e-05
4.90882e-05
1.22534e-05
4.98992e-05
1.4065e-05
5.09343e-05
1.62366e-05
5.19372e-05
1.8903e-05
5.30617e-05
2.24393e-05
5.4208e-05
2.67826e-05
5.54331e-05
3.18965e-05
5.65887e-05
3.82447e-05
5.74649e-05
4.59775e-05
5.79061e-05
5.47632e-05
5.69372e-05
6.35744e-05
5.30823e-05
4.6925e-05
7.17843e-05
1.37916e-06
4.90752e-05
2.63191e-06
4.6757e-05
3.68851e-06
4.63517e-05
4.6076e-06
4.61313e-05
5.43402e-06
4.59874e-05
6.25258e-06
4.59561e-05
7.10648e-06
4.60287e-05
8.08259e-06
4.62905e-05
9.20281e-06
4.66568e-05
1.04775e-05
4.71694e-05
1.18847e-05
4.76811e-05
1.35611e-05
4.82229e-05
1.56031e-05
4.88923e-05
1.79635e-05
4.9577e-05
2.07704e-05
5.0255e-05
2.40144e-05
5.09643e-05
2.78286e-05
5.16192e-05
3.24809e-05
5.19368e-05
3.80765e-05
5.18696e-05
4.45607e-05
5.14224e-05
5.17045e-05
4.97938e-05
5.88272e-05
4.59599e-05
4.06917e-05
6.50608e-05
1.23067e-06
4.78445e-05
2.37197e-06
4.56157e-05
3.40991e-06
4.53138e-05
4.38237e-06
4.51589e-05
5.31009e-06
4.50597e-05
6.23134e-06
4.50349e-05
7.18379e-06
4.50763e-05
8.26317e-06
4.52112e-05
9.49229e-06
4.54278e-05
1.08631e-05
4.57987e-05
1.23451e-05
4.61991e-05
1.40579e-05
4.65103e-05
1.61075e-05
4.68429e-05
1.85131e-05
4.71715e-05
2.12795e-05
4.74888e-05
2.44462e-05
4.77978e-05
2.82229e-05
4.78428e-05
3.25754e-05
4.75847e-05
3.74419e-05
4.70034e-05
4.28939e-05
4.59707e-05
4.88063e-05
4.38818e-05
5.45214e-05
4.02451e-05
3.58197e-05
5.93936e-05
1.20227e-06
4.66423e-05
2.3092e-06
4.45088e-05
3.34647e-06
4.42765e-05
4.34451e-06
4.41609e-05
5.32851e-06
4.40758e-05
6.33066e-06
4.40328e-05
7.37732e-06
4.40297e-05
8.51279e-06
4.40758e-05
9.75696e-06
4.41837e-05
1.1182e-05
4.43738e-05
1.28071e-05
4.45741e-05
1.46132e-05
4.47042e-05
1.66134e-05
4.48428e-05
1.89177e-05
4.48674e-05
2.1575e-05
4.48316e-05
2.46431e-05
4.47299e-05
2.80801e-05
4.44061e-05
3.18057e-05
4.38593e-05
3.60173e-05
4.27921e-05
4.07299e-05
4.12584e-05
4.56703e-05
3.89418e-05
5.02042e-05
3.57115e-05
3.17925e-05
5.42317e-05
1.13696e-06
4.55054e-05
2.20664e-06
4.34392e-05
3.24673e-06
4.32365e-05
4.25777e-06
4.31499e-05
5.26541e-06
4.30682e-05
6.30494e-06
4.29933e-05
7.39366e-06
4.29411e-05
8.55501e-06
4.29146e-05
9.81819e-06
4.29206e-05
1.12484e-05
4.29436e-05
1.2884e-05
4.29386e-05
1.4688e-05
4.29004e-05
1.67209e-05
4.281e-05
1.89049e-05
4.26835e-05
2.12856e-05
4.24511e-05
2.40583e-05
4.19574e-05
2.71632e-05
4.13014e-05
3.06985e-05
4.03243e-05
3.45241e-05
3.89668e-05
3.85725e-05
3.72103e-05
4.25659e-05
3.49487e-05
4.63483e-05
3.19293e-05
2.82664e-05
4.98746e-05
1.09509e-06
4.44103e-05
2.13835e-06
4.2396e-05
3.17687e-06
4.2198e-05
4.2192e-06
4.21076e-05
5.26961e-06
4.20178e-05
6.33845e-06
4.19246e-05
7.45693e-06
4.18227e-05
8.65042e-06
4.17211e-05
9.94702e-06
4.1624e-05
1.1354e-05
4.15367e-05
1.2864e-05
4.14286e-05
1.45169e-05
4.12476e-05
1.63955e-05
4.09315e-05
1.85133e-05
4.05658e-05
2.09585e-05
4.0006e-05
2.35942e-05
3.93218e-05
2.64482e-05
3.84477e-05
2.94828e-05
3.72899e-05
3.26238e-05
3.58261e-05
3.59725e-05
3.38618e-05
3.94752e-05
3.14463e-05
4.28464e-05
2.85584e-05
2.52536e-05
4.58593e-05
1.05241e-06
4.3358e-05
2.05983e-06
4.13886e-05
3.06918e-06
4.11887e-05
4.08481e-06
4.1092e-05
5.11854e-06
4.09842e-05
6.18097e-06
4.08622e-05
7.2881e-06
4.07156e-05
8.45824e-06
4.0551e-05
9.72142e-06
4.03609e-05
1.11245e-05
4.01337e-05
1.26795e-05
3.98737e-05
1.43813e-05
3.95458e-05
1.61951e-05
3.91178e-05
1.81667e-05
3.85942e-05
2.02527e-05
3.79202e-05
2.25227e-05
3.70519e-05
2.50399e-05
3.59307e-05
2.7757e-05
3.45731e-05
3.06945e-05
3.28888e-05
3.36925e-05
3.08639e-05
3.66146e-05
2.85245e-05
3.94358e-05
2.57373e-05
2.2549e-05
4.21406e-05
1.03039e-06
4.23276e-05
2.0269e-06
4.03921e-05
3.02566e-06
4.019e-05
4.03189e-06
4.00858e-05
5.05702e-06
3.99591e-05
6.116e-06
3.98032e-05
7.21509e-06
3.96165e-05
8.36893e-06
3.93972e-05
9.59489e-06
3.9135e-05
1.09023e-05
3.88264e-05
1.23045e-05
3.84716e-05
1.38299e-05
3.80205e-05
1.54883e-05
3.74594e-05
1.73076e-05
3.6775e-05
1.93048e-05
3.5923e-05
2.1509e-05
3.48478e-05
2.38246e-05
3.36153e-05
2.62466e-05
3.21513e-05
2.86988e-05
3.04369e-05
3.11871e-05
2.83758e-05
3.37457e-05
2.5966e-05
3.62547e-05
2.32284e-05
2.01897e-05
3.86141e-05
9.7666e-07
4.1351e-05
1.92247e-06
3.94464e-05
2.87935e-06
3.92331e-05
3.8491e-06
3.91161e-05
4.839e-06
3.89692e-05
5.86206e-06
3.87802e-05
6.92674e-06
3.85519e-05
8.04466e-06
3.82794e-05
9.22624e-06
3.79535e-05
1.0489e-05
3.75636e-05
1.18678e-05
3.70929e-05
1.3346e-05
3.65424e-05
1.49272e-05
3.58783e-05
1.66212e-05
3.50812e-05
1.84197e-05
3.41246e-05
2.02901e-05
3.29775e-05
2.22682e-05
3.16373e-05
2.4356e-05
3.00636e-05
2.6557e-05
2.8236e-05
2.88006e-05
2.61325e-05
3.10109e-05
2.3756e-05
3.31645e-05
2.10749e-05
1.81125e-05
3.52418e-05
9.48576e-07
4.04024e-05
1.87146e-06
3.85235e-05
2.80638e-06
3.82982e-05
3.74942e-06
3.81731e-05
4.70914e-06
3.80095e-05
5.69023e-06
3.77992e-05
6.70112e-06
3.7541e-05
7.75287e-06
3.72276e-05
8.8579e-06
3.68485e-05
1.0028e-05
3.63936e-05
1.127e-05
3.5851e-05
1.25962e-05
3.52162e-05
1.40196e-05
3.44549e-05
1.55484e-05
3.35524e-05
1.7176e-05
3.24971e-05
1.89023e-05
3.12514e-05
2.07186e-05
2.98211e-05
2.2577e-05
2.82054e-05
2.4467e-05
2.63462e-05
2.6372e-05
2.42276e-05
2.82862e-05
2.18419e-05
3.01655e-05
1.91958e-05
1.63055e-05
3.19726e-05
8.91916e-07
3.95105e-05
1.76961e-06
3.76458e-05
2.6595e-06
3.74084e-05
3.55694e-06
3.72757e-05
4.46886e-06
3.70976e-05
5.39909e-06
3.6869e-05
6.35553e-06
3.65846e-05
7.34838e-06
3.62348e-05
8.38442e-06
3.58125e-05
9.47526e-06
3.53028e-05
1.06259e-05
3.47004e-05
1.18523e-05
3.39898e-05
1.31524e-05
3.31549e-05
1.45235e-05
3.21813e-05
1.5965e-05
3.10557e-05
1.747e-05
2.97465e-05
1.90283e-05
2.82629e-05
2.06469e-05
2.65869e-05
2.23056e-05
2.46876e-05
2.39746e-05
2.25587e-05
2.56223e-05
2.01944e-05
2.72332e-05
1.75851e-05
1.47491e-05
2.87896e-05
8.53859e-07
3.86567e-05
1.69334e-06
3.68064e-05
2.54022e-06
3.65615e-05
3.39126e-06
3.64246e-05
4.25212e-06
3.62368e-05
5.12493e-06
3.59962e-05
6.01385e-06
3.56957e-05
6.9253e-06
3.53234e-05
7.86832e-06
3.48695e-05
8.85971e-06
3.43114e-05
9.90029e-06
3.36598e-05
1.09984e-05
3.28918e-05
1.21602e-05
3.1993e-05
1.33819e-05
3.09597e-05
1.46575e-05
2.97801e-05
1.59759e-05
2.84281e-05
1.73356e-05
2.69033e-05
1.87382e-05
2.51843e-05
2.01604e-05
2.32655e-05
2.15837e-05
2.11356e-05
2.29894e-05
1.87888e-05
2.43627e-05
1.62118e-05
1.34266e-05
2.56853e-05
8.0743e-07
3.78493e-05
1.60031e-06
3.60135e-05
2.39957e-06
3.57623e-05
3.19677e-06
3.56275e-05
4.00009e-06
3.54335e-05
4.81423e-06
3.51821e-05
5.64372e-06
3.48663e-05
6.4924e-06
3.44747e-05
7.36095e-06
3.4001e-05
8.24975e-06
3.34226e-05
9.16692e-06
3.27427e-05
1.01181e-05
3.19406e-05
1.11158e-05
3.09954e-05
1.21651e-05
2.99105e-05
1.32706e-05
2.86747e-05
1.44211e-05
2.72776e-05
1.56063e-05
2.57182e-05
1.68042e-05
2.39865e-05
1.8007e-05
2.20628e-05
1.92103e-05
1.99324e-05
2.03965e-05
1.76027e-05
2.15446e-05
1.50639e-05
1.23233e-05
2.26479e-05
7.64455e-07
3.70849e-05
1.49282e-06
3.52852e-05
2.22703e-06
3.50281e-05
2.96086e-06
3.48936e-05
3.70311e-06
3.46913e-05
4.45982e-06
3.44254e-05
5.23429e-06
3.40918e-05
6.02135e-06
3.36877e-05
6.82312e-06
3.31992e-05
7.62854e-06
3.26172e-05
8.44737e-06
3.19239e-05
9.28422e-06
3.11038e-05
1.01399e-05
3.01398e-05
1.10172e-05
2.90332e-05
1.1921e-05
2.77709e-05
1.28525e-05
2.63462e-05
1.38217e-05
2.47491e-05
1.48339e-05
2.29744e-05
1.58595e-05
2.10373e-05
1.68635e-05
1.89285e-05
1.78392e-05
1.66271e-05
1.87788e-05
1.41244e-05
1.1428e-05
1.96742e-05
7.25358e-07
3.63595e-05
1.37474e-06
3.46358e-05
2.02422e-06
3.43787e-05
2.6787e-06
3.42392e-05
3.3427e-06
3.40273e-05
4.02034e-06
3.37477e-05
4.72036e-06
3.33918e-05
5.43662e-06
3.29715e-05
6.16765e-06
3.24682e-05
6.90704e-06
3.18779e-05
7.6529e-06
3.1178e-05
8.40167e-06
3.0355e-05
9.14544e-06
2.9396e-05
9.88835e-06
2.82903e-05
1.0634e-05
2.70253e-05
1.13875e-05
2.55927e-05
1.21486e-05
2.39881e-05
1.29142e-05
2.22088e-05
1.36972e-05
2.02545e-05
1.45108e-05
1.81149e-05
1.53133e-05
1.58247e-05
1.60635e-05
1.33743e-05
1.07304e-05
1.6761e-05
6.69471e-07
3.569e-05
1.19566e-06
3.41096e-05
1.72292e-06
3.38514e-05
2.26289e-06
3.36992e-05
2.81514e-06
3.3475e-05
3.38538e-06
3.31775e-05
3.97847e-06
3.27988e-05
4.59968e-06
3.23503e-05
5.24601e-06
3.18219e-05
5.91168e-06
3.12122e-05
6.58227e-06
3.05075e-05
7.24418e-06
2.96931e-05
7.90538e-06
2.87348e-05
8.57557e-06
2.76201e-05
9.23794e-06
2.63629e-05
9.89065e-06
2.49401e-05
1.05205e-05
2.33582e-05
1.11192e-05
2.16102e-05
1.16986e-05
1.96751e-05
1.22557e-05
1.75579e-05
1.28116e-05
1.52689e-05
1.33786e-05
1.28074e-05
1.0208e-05
1.3901e-05
5.69816e-07
3.51202e-05
9.09505e-07
3.37699e-05
1.23575e-06
3.35252e-05
1.60014e-06
3.33348e-05
1.99368e-06
3.30815e-05
2.41293e-06
3.27583e-05
2.86435e-06
3.23474e-05
3.36189e-06
3.18527e-05
3.90744e-06
3.12764e-05
4.50063e-06
3.0619e-05
5.13139e-06
2.98767e-05
5.7807e-06
2.90438e-05
6.42046e-06
2.80951e-05
7.03814e-06