/*--------------------------------*- C++ -*----------------------------------*\
| =========                 |                                                 |
| \\      /  F ield         | OpenFOAM: The Open Source CFD Toolbox           |
|  \\    /   O peration     | Version:  2.4.0                                 |
|   \\  /    A nd           | Web:      www.OpenFOAM.org                      |
|    \\/     M anipulation  |                                                 |
\*---------------------------------------------------------------------------*/
FoamFile
{
    version     2.0;
    format      ascii;
    class       surfaceScalarField;
    location    "0.8";
    object      phi.water;
}
// * * * * * * * * * * * * * * * * * * * * * * * * * * * * * * * * * * * * * //

dimensions      [0 3 -1 0 0 0 0];

internalField   nonuniform List<scalar> 
4432
(
1.25735e-06
1.92536e-05
2.69765e-06
1.88737e-05
3.22483e-06
1.4166e-05
3.04091e-06
9.08206e-06
2.32232e-06
5.76716e-06
-1.27841e-07
4.00881e-06
-4.52685e-06
4.66656e-06
-1.06694e-05
6.20743e-06
-1.54589e-05
4.82087e-06
-1.79496e-05
2.50984e-06
-1.94636e-05
1.52614e-06
-2.00248e-05
5.7106e-07
-1.92401e-05
-7.74693e-07
-1.70353e-05
-2.19359e-06
-1.44511e-05
-2.57384e-06
-1.23754e-05
-2.06742e-06
-1.09564e-05
-1.4125e-06
-9.7699e-06
-1.18153e-06
-8.38849e-06
-1.37671e-06
-6.17389e-06
-2.2097e-06
-4.57818e-06
-1.59197e-06
-3.86582e-06
-7.11791e-07
-3.86549e-06
1.03032e-06
3.11013e-05
1.97884e-06
3.11515e-05
2.72589e-06
2.85624e-05
3.41657e-06
2.4983e-05
3.62172e-06
2.06585e-05
1.75351e-06
1.70204e-05
-2.85593e-06
1.30442e-05
-9.7802e-06
1.40623e-05
-1.55522e-05
1.08713e-05
-1.8922e-05
6.08354e-06
-2.0255e-05
2.98125e-06
-2.03877e-05
7.69492e-07
-1.91514e-05
-1.96006e-06
-1.68785e-05
-4.42081e-06
-1.43464e-05
-5.08506e-06
-1.22245e-05
-4.17648e-06
-1.06491e-05
-2.97726e-06
-9.40798e-06
-2.41131e-06
-7.75065e-06
-3.01751e-06
-5.73094e-06
-4.21169e-06
-3.84407e-06
-3.46984e-06
-2.27279e-06
-2.28008e-06
-6.13714e-06
1.35715e-06
2.28875e-05
2.00313e-06
2.40106e-05
3.20523e-06
2.52892e-05
2.66276e-06
2.95289e-05
-1.26863e-06
3.59194e-05
-3.7804e-06
4.31316e-05
-4.95371e-06
4.15467e-05
-1.11823e-05
2.65015e-05
-1.61219e-05
2.18176e-05
-1.91264e-05
1.05269e-05
-2.03959e-05
4.83175e-06
-2.02203e-05
8.4266e-07
-1.89096e-05
-3.09615e-06
-1.67982e-05
-6.33365e-06
-1.45464e-05
-7.18249e-06
-1.24632e-05
-6.19196e-06
-1.05598e-05
-4.83259e-06
-9.01266e-06
-3.90544e-06
-7.20838e-06
-4.75166e-06
-5.51923e-06
-5.82418e-06
-3.46083e-06
-5.50209e-06
-1.40969e-06
-4.32028e-06
-7.54386e-06
1.01781e-06
-4.34126e-06
6.03809e-07
-2.33803e-06
5.70898e-07
-2.02388e-06
-2.54463e-07
1.12335e-06
-1.5901e-06
7.15168e-06
-4.24311e-06
1.78112e-05
-1.32107e-05
3.52417e-05
-2.13622e-05
5.71705e-05
-1.65002e-05
4.90343e-05
-1.79762e-05
2.68997e-05
-2.00328e-05
9.99554e-06
-1.99869e-05
2.46279e-06
-1.88584e-05
-2.6462e-06
-1.67724e-05
-7.32421e-06
-1.43036e-05
-9.00473e-06
-1.18011e-05
-7.97185e-06
-9.48904e-06
-6.62968e-06
-7.90397e-06
-5.34818e-06
-6.98962e-06
-5.56756e-06
-6.62417e-06
-6.09372e-06
-4.87822e-06
-7.09928e-06
-2.16166e-06
-6.69473e-06
-8.68278e-06
-4.75331e-07
-4.49066e-06
-4.29148e-07
-3.09284e-06
-8.08447e-07
-2.48046e-06
-4.48711e-07
-4.33411e-07
-2.74418e-07
3.52324e-06
-2.68761e-06
1.20235e-05
-1.2652e-05
2.84148e-05
-2.54975e-05
4.80902e-05
-2.90061e-05
5.17523e-05
-2.17492e-05
4.07735e-05
-2.25384e-05
2.45837e-05
-2.24891e-05
5.86305e-06
-2.03162e-05
-2.5627e-06
-1.77982e-05
1.28647e-06
-1.46982e-05
1.20416e-05
-1.14213e-05
1.31986e-05
-8.51792e-06
1.47975e-05
-7.00369e-06
1.36564e-05
-6.81091e-06
7.44235e-06
-6.98775e-06
5.35398e-06
-6.26358e-06
9.68726e-06
-3.51685e-06
1.48082e-05
1.12064e-05
-2.55133e-07
-4.23553e-06
-2.27223e-06
-1.07575e-06
-5.91821e-06
1.16551e-06
-1.1536e-05
5.18442e-06
-1.73553e-05
9.33733e-06
-1.8908e-05
1.34655e-05
-2.23876e-05
3.07377e-05
-3.09968e-05
4.73695e-05
-3.49388e-05
4.79806e-05
-3.16291e-05
3.62764e-05
-2.51715e-05
2.72901e-05
-2.54833e-05
1.74646e-05
-2.07716e-05
1.41171e-05
-1.8371e-05
1.26631e-05
-1.699e-05
1.61582e-05
-1.27862e-05
1.72172e-05
-9.28544e-06
2.03203e-05
-7.16306e-06
2.32884e-05
-6.93517e-06
2.18539e-05
-6.78247e-06
2.11121e-05
-6.50256e-06
2.18579e-05
-5.01058e-06
2.17794e-05
1.38878e-05
-7.59668e-07
-3.47586e-06
-8.5824e-07
-9.77174e-07
-1.53471e-06
1.84198e-06
-3.75359e-06
7.40331e-06
-7.82688e-06
1.34106e-05
-1.49301e-05
2.05787e-05
-2.35108e-05
3.9984e-05
-3.50611e-05
5.76797e-05
-4.27088e-05
4.8822e-05
-4.10556e-05
4.05051e-05
-3.58027e-05
3.2402e-05
-3.08971e-05
2.45756e-05
-2.63115e-05
1.75434e-05
-2.14396e-05
1.11065e-05
-1.79217e-05
7.47224e-06
-1.48365e-05
8.38608e-06
-1.23169e-05
1.19179e-05
-9.81917e-06
1.74351e-05
-7.5326e-06
2.12568e-05
-6.18641e-06
2.32328e-05
-6.55798e-06
2.26172e-05
-6.87088e-06
1.78586e-05
3.13258e-06
5.56546e-07
-4.03243e-06
-1.17994e-06
7.59292e-07
-4.22068e-06
4.8827e-06
-7.2909e-06
1.04735e-05
-1.03628e-05
1.64825e-05
-1.3669e-05
2.38865e-05
-1.85542e-05
4.50905e-05
-2.86493e-05
6.71751e-05
-4.02819e-05
5.22102e-05
-4.22825e-05
3.18053e-05
-4.20809e-05
2.34473e-05
-3.52266e-05
1.44264e-05
-2.66734e-05
3.63272e-06
-1.83155e-05
-5.57714e-06
-1.45071e-05
-7.55434e-06
-1.43588e-05
-4.60821e-06
-1.51288e-05
-1.14449e-06
-1.28852e-05
1.15586e-06
-8.76129e-06
2.93719e-06
-5.6421e-06
6.06257e-06
-7.47674e-06
9.87334e-06
-1.19142e-05
8.08503e-06
-2.04398e-05
2.02034e-06
3.42047e-05
2.27555e-05
1.81644e-05
3.23079e-05
3.0534e-05
3.5429e-05
3.16797e-05
3.70704e-05
3.19005e-05
3.84634e-05
3.23627e-05
4.03448e-05
3.2755e-05
4.31488e-05
3.36958e-05
4.64375e-05
3.45561e-05
4.94255e-05
3.47261e-05
5.20051e-05
3.46805e-05
5.11828e-05
3.38418e-05
4.4548e-05
3.31576e-05
5.04029e-05
3.92943e-05
4.38495e-05
5.14264e-05
2.40216e-05
2.14908e-05
3.82045e-06
2.11561e-05
-2.42266e-06
2.07633e-05
1.39758e-05
1.03874e-05
1.69375e-05
3.93996e-05
-2.1815e-05
4.78844e-05
2.37568e-06
5.06228e-05
1.06899e-05
5.18024e-05
1.47151e-05
5.07998e-05
1.46843e-05
5.03826e-05
1.65805e-05
5.11562e-05
1.98124e-05
5.23668e-05
2.09491e-05
5.31254e-05
2.05561e-05
5.41595e-05
1.90403e-05
5.50222e-05
1.95546e-05
5.35311e-05
2.50795e-05
4.50183e-05
2.55678e-05
2.6233e-05
4.02167e-05
2.69859e-05
3.03533e-05
8.96554e-06
3.40046e-05
-1.96164e-06
2.63144e-05
7.86739e-06
3.17342e-05
-3.99764e-06
4.51558e-05
-5.92671e-05
5.67154e-05
-3.84126e-05
6.49368e-05
-2.39539e-05
7.09987e-05
-1.556e-05
7.49407e-05
-1.05151e-05
7.39069e-05
-6.51799e-06
6.92818e-05
-3.86399e-06
6.23908e-05
-1.49158e-06
5.36526e-05
5.1832e-07
4.4648e-05
3.42718e-07
3.51233e-05
1.40699e-06
2.13763e-05
2.39007e-06
1.18726e-05
1.42201e-06
1.31405e-05
3.13261e-05
1.50391e-05
5.13508e-05
9.53651e-06
4.63272e-05
7.10843e-07
4.29688e-05
1.66229e-05
3.50813e-05
-6.80322e-05
3.88618e-05
-7.50008e-05
4.66737e-05
-4.81681e-05
5.40964e-05
-3.04453e-05
5.95418e-05
-2.08414e-05
6.18991e-05
-1.2475e-05
6.16013e-05
-5.27741e-06
5.99158e-05
-1.52424e-06
5.6831e-05
1.82654e-06
5.20216e-05
5.41468e-06
4.41771e-05
8.10236e-06
3.23188e-05
1.33883e-05
2.00403e-05
1.49399e-05
-8.7437e-06
1.80009e-05
-1.86158e-05
2.95949e-05
5.70767e-06
2.16742e-05
1.0899e-05
4.66373e-05
4.63951e-06
4.81416e-05
1.52281e-05
2.95421e-05
-0.00010479
3.37552e-05
-8.36449e-05
3.80881e-05
-5.52547e-05
4.49519e-05
-3.98927e-05
5.08407e-05
-2.94198e-05
5.32628e-05
-1.57791e-05
5.12589e-05
-1.85517e-06
4.64556e-05
5.26763e-06
4.24074e-05
7.88643e-06
4.03029e-05
9.02865e-06
3.65112e-05
1.24553e-05
2.86165e-05
2.30981e-05
1.43918e-05
3.6622e-05
-1.67672e-05
5.18187e-05
-2.91056e-05
3.58993e-05
-1.45152e-05
1.11672e-06
6.43527e-06
3.04562e-05
6.31523e-06
4.78152e-05
2.52596e-05
1.53254e-05
-0.000136857
1.6619e-05
-9.59339e-05
2.18127e-05
-6.71001e-05
2.98222e-05
-5.49807e-05
3.61498e-05
-4.13446e-05
3.94895e-05
-2.32739e-05
3.98666e-05
-6.27668e-06
3.85527e-05
5.03126e-06
3.47132e-05
1.04643e-05
3.1792e-05
8.55706e-06
3.00081e-05
1.05916e-05
2.58891e-05
2.35246e-05
1.4783e-05
4.84259e-05
-1.39033e-05
7.58751e-05
-2.62612e-05
4.42334e-05
-1.61738e-05
-1.17497e-05
5.09954e-06
1.68686e-05
8.35066e-06
4.51299e-05
3.74864e-05
2.35388e-06
-0.000147591
-7.36943e-06
-9.79871e-05
3.55077e-07
-8.16016e-05
1.65724e-05
-7.55096e-05
3.02704e-05
-5.9861e-05
3.70733e-05
-3.84699e-05
3.64459e-05
-1.1417e-05
3.2679e-05
6.88078e-06
2.73567e-05
1.68303e-05
2.42553e-05
1.5075e-05
2.36385e-05
1.57229e-05
2.34163e-05
2.67954e-05
1.7104e-05
5.75046e-05
-5.89118e-06
9.64196e-05
-2.21009e-05
5.96263e-05
-2.09209e-05
-1.32352e-05
-3.91583e-06
1.25342e-05
7.94508e-06
3.50154e-05
5.85163e-05
-1.42553e-05
-0.000139908
-2.55404e-05
-8.44613e-05
-1.35914e-05
-8.84704e-05
-1.22446e-06
-9.12502e-05
1.45145e-05
-7.77194e-05
2.9271e-05
-5.59533e-05
3.52201e-05
-2.30408e-05
3.24429e-05
1.27873e-06
2.65287e-05
1.89646e-05
2.13468e-05
2.0596e-05
1.91572e-05
1.92337e-05
1.94095e-05
2.91613e-05
1.88557e-05
5.98733e-05
6.99907e-06
0.000112981
-1.5405e-05
7.65453e-05
-2.8302e-05
-6.36402e-07
-1.65946e-05
1.31869e-05
2.61551e-06
3.15644e-05
4.55701e-05
1.53058e-06
-5.563e-06
5.68749e-06
-3.3978e-06
8.63368e-06
1.9335e-06
6.67189e-06
1.24355e-05
-1.06407e-06
2.42189e-05
-8.74559e-06
3.15696e-05
-7.24481e-06
4.36574e-05
-2.32068e-07
5.99245e-05
-1.1618e-05
5.57449e-05
-3.40988e-05
3.60261e-05
-4.85635e-05
1.39149e-05
-4.79083e-05
-7.96912e-06
-3.76095e-05
-2.6263e-05
-2.9973e-05
-3.153e-05
-2.64018e-05
-2.71709e-05
-2.58748e-05
-2.00083e-05
-2.67095e-05
-1.52597e-05
-2.5986e-05
-1.51801e-05
-2.48086e-05
-1.45419e-05
-2.54101e-05
-1.03286e-05
-2.95833e-05
-2.36831e-06
-3.57321e-05
-1.53314e-06
-3.07052e-05
-4.08096e-05
6.88774e-06
-1.24509e-05
9.91879e-06
-6.46818e-06
6.50039e-06
5.13414e-06
2.6265e-06
1.62162e-05
6.17718e-07
2.62126e-05
6.27235e-07
3.15341e-05
5.05265e-06
3.92257e-05
1.84653e-05
4.64231e-05
2.86988e-05
4.42239e-05
3.17731e-05
2.94264e-05
3.2277e-05
8.02606e-06
3.13643e-05
-1.31679e-05
2.61351e-05
-2.60688e-05
2.18038e-05
-3.08581e-05
2.06515e-05
-2.88565e-05
2.16653e-05
-2.36715e-05
2.27789e-05
-1.90484e-05
2.15864e-05
-1.654e-05
1.66717e-05
-1.19131e-05
1.13327e-05
-7.3498e-06
8.69984e-06
-2.41822e-06
9.5569e-06
-4.79227e-06
-1.74559e-05
-5.64319e-06
9.20323e-06
-2.17613e-05
1.75962e-05
-1.63148e-05
2.08421e-05
-2.33695e-06
1.60544e-05
1.8436e-05
7.87764e-06
3.34497e-05
1.89958e-06
3.68538e-05
2.47954e-06
3.82882e-05
1.12338e-05
3.74814e-05
2.34938e-05
3.18372e-05
3.35331e-05
1.92076e-05
3.92677e-05
2.05097e-06
3.82423e-05
-1.25241e-05
3.60374e-05
-2.47856e-05
3.75083e-05
-3.53346e-05
4.1871e-05
-4.08495e-05
4.17421e-05
-4.57361e-05
3.57903e-05
-4.63255e-05
2.56057e-05
-3.72354e-05
1.91413e-05
-1.77892e-05
1.01668e-05
-3.78389e-06
-8.03177e-06
1.2782e-05
-5.34238e-05
3.62038e-05
3.67568e-05
-0.000105453
1.63051e-05
-3.99103e-05
2.27264e-05
-2.98587e-05
1.17876e-05
2.42724e-06
3.37305e-06
2.03897e-05
-1.7254e-06
3.4437e-05
-6.4467e-06
3.85017e-05
-5.8868e-06
3.54311e-05
3.29165e-07
2.92777e-05
9.73087e-06
2.05688e-05
1.75872e-05
9.40798e-06
2.27798e-05
-6.32766e-06
2.55363e-05
-2.0611e-05
2.75202e-05
-4.46956e-05
2.72251e-05
-7.58434e-05
2.68164e-05
-0.000105557
2.73148e-05
-0.000106108
1.3838e-05
-5.75931e-05
-1.53504e-05
-3.31451e-05
-4.63939e-05
-8.21132e-06
-7.92925e-05
1.61809e-05
-0.000124423
5.02412e-05
-0.000175086
8.53416e-05
9.32786e-05
-0.000213194
-6.81848e-06
-3.93121e-05
-2.53228e-05
-2.13359e-05
-3.63317e-05
7.1276e-06
-3.86366e-05
1.77471e-05
-3.67737e-05
2.32021e-05
-3.22124e-05
2.65942e-05
-2.57806e-05
2.22806e-05
-1.83378e-05
1.46359e-05
-7.26526e-06
-1.28502e-06
5.68043e-06
-2.11747e-05
1.39984e-05
-6.30747e-05
8.69726e-06
-9.04515e-05
-1.31326e-06
-7.71596e-05
-4.41672e-06
-5.13729e-05
-3.28073e-05
-0.000111684
-0.000116064
-8.26924e-05
-0.000184213
-3.16946e-05
-0.000194048
-9.49681e-06
-0.000194047
1.46591e-05
-0.000211183
4.96122e-05
-0.000234348
8.6813e-05
-0.000243574
0.000102897
8.29587e-05
-0.000247251
-3.14752e-05
-3.03474e-05
-6.50419e-05
-5.20492e-05
-7.12258e-05
-3.51564e-05
-6.96916e-05
-3.27813e-05
-6.37572e-05
-3.01641e-05
-5.52355e-05
-2.43651e-05
-4.81836e-05
-2.93081e-05
-4.15287e-05
-3.97782e-05
-3.88108e-05
-6.3331e-05
-4.3389e-05
-8.2328e-05
-4.11752e-05
-6.98002e-05
-2.94553e-05
-8.31863e-05
-6.67338e-05
-4.6846e-05
-0.000120442
1.48125e-05
-0.000146599
-2.70705e-05
-0.000197044
5.22191e-06
-0.000204997
-2.66274e-05
-0.000210581
-1.8911e-05
-0.000210981
1.18221e-05
-0.000222641
6.0365e-05
-0.000234673
9.85219e-05
-0.000249906
0.000108093
8.10138e-05
-0.000253689
-4.28554e-05
-6.52971e-05
-7.577e-05
-9.25376e-05
-8.39061e-05
-5.3986e-05
-7.79335e-05
-5.53897e-05
-6.90665e-05
-5.22421e-05
-5.98599e-05
-4.72486e-05
-5.37892e-05
-5.03394e-05
-5.19999e-05
-5.38313e-05
-5.1629e-05
-4.88478e-05
-8.21078e-05
-3.9954e-05
-0.00010708
-5.03775e-06
-0.000127476
-1.34171e-05
-0.000139244
3.30948e-05
-0.000143663
5.67088e-05
-0.000121854
6.31428e-05
-0.000134913
4.77336e-05
-0.000194013
3.08748e-06
-0.000194886
-5.66645e-06
-0.000206663
1.48188e-05
-0.000210158
5.91833e-05
-0.000220174
9.6423e-05
-0.000257631
0.000111187
0.000135227
-0.000269582
-1.33911e-05
-6.62043e-05
-4.93661e-05
-2.35883e-05
-9.05203e-05
-2.14643e-05
-8.13201e-05
-1.87299e-05
-7.23198e-05
-1.9036e-05
-6.05555e-05
-1.89627e-05
-5.65187e-05
-2.96946e-05
-6.10878e-05
-2.14733e-05
-5.84913e-05
4.80906e-06
-5.78147e-05
4.29803e-05
-7.13339e-05
2.1329e-05
-8.00989e-05
-1.09716e-05
-7.12882e-05
2.41745e-05
-6.63715e-05
5.18651e-05
-7.0324e-05
6.70487e-05
-7.39281e-05
9.77675e-05
-0.000124049
4.92427e-05
-0.000191008
2.76548e-05
-0.000196484
2.89427e-05
-0.000198762
4.92722e-05
-0.000205224
8.50056e-05
-0.000255671
0.000103232
0.000214102
-0.000158796
-2.68803e-05
1.74272e-05
-2.93618e-05
4.18345e-05
-4.61248e-05
3.81714e-05
-3.40628e-05
6.12683e-06
-1.38801e-05
-1.28613e-05
4.78689e-06
-1.58523e-05
3.76102e-06
1.8853e-05
-3.46548e-05
6.62697e-05
-5.11975e-05
6.9104e-05
-5.343e-05
7.29741e-05
-7.77775e-05
4.65543e-05
-9.65805e-05
7.66612e-06
-8.2583e-05
9.76462e-06
-6.80524e-05
3.7243e-05
-5.7166e-05
5.61637e-05
-3.90575e-05
7.98283e-05
-5.48887e-05
0.000106858
-0.000113694
8.64211e-05
-0.000183621
3.59665e-05
-0.000194137
4.90879e-05
-0.00019791
6.99216e-05
-0.000201372
0.000108684
0.000228378
-0.000124084
-4.84735e-06
0.000138191
1.67924e-06
0.000113089
-2.29171e-06
5.34723e-05
-1.17009e-05
1.56756e-05
-1.53111e-05
-8.39107e-06
-2.71004e-05
-3.92959e-06
-2.26641e-05
1.45975e-05
-1.80454e-05
6.16417e-05
-2.553e-05
7.66061e-05
-2.86352e-05
7.60647e-05
-3.06436e-05
4.86418e-05
-3.32679e-05
1.03778e-05
-3.74205e-05
1.4269e-05
-3.20274e-05
3.18193e-05
-2.38347e-05
4.80221e-05
-1.41536e-05
7.01439e-05
-5.02922e-06
9.7175e-05
-6.08867e-05
0.000129832
-0.000131148
0.000133913
-0.000158952
7.51235e-05
-0.000189839
7.51505e-05
-0.000179654
0.000115364
0.000242638
-0.000155256
1.79232e-05
0.000127783
2.5301e-05
0.000105999
2.2648e-05
5.61008e-05
1.79557e-05
2.03497e-05
8.51177e-06
9.56626e-07
-6.63464e-06
1.08437e-05
-1.04216e-05
1.83761e-05
-7.48882e-06
5.86726e-05
-8.49725e-06
7.75332e-05
-4.17888e-06
7.17524e-05
-7.71877e-08
4.45651e-05
-1.17141e-05
2.19241e-05
-2.75287e-05
3.01773e-05
-2.79102e-05
3.22052e-05
-2.35315e-05
4.36553e-05
-1.51594e-05
6.17781e-05
-3.97359e-06
8.59822e-05
8.40972e-06
0.000116822
-8.02265e-08
0.000155942
-4.39861e-05
0.000187849
-0.000107675
0.000244216
-0.000149234
0.000323002
0.000332176
-0.000148518
1.37049e-05
0.000113712
2.24763e-05
9.73867e-05
1.8596e-05
5.98761e-05
1.07063e-05
2.86957e-05
6.16276e-07
1.0393e-05
-2.62257e-06
1.39364e-05
-1.47662e-06
1.71674e-05
1.48218e-06
5.5656e-05
2.09624e-06
7.68906e-05
4.65604e-06
6.91938e-05
2.78763e-06
4.64434e-05
-3.8755e-06
2.86887e-05
-8.93569e-06
3.51875e-05
-1.39278e-05
3.71504e-05
-1.64316e-05
4.61492e-05
-1.45208e-05
5.9872e-05
-8.99805e-06
8.04704e-05
2.73241e-07
0.000107589
9.99927e-06
0.000146401
7.49585e-06
0.0001956
-2.30368e-05
0.000289727
-6.25982e-05
0.000374659
0.000344424
-7.33453e-05
7.59269e-06
0.000104549
2.01592e-05
8.42817e-05
2.43007e-05
5.56154e-05
2.22953e-05
3.12108e-05
9.47082e-06
2.31069e-05
-2.57878e-06
2.58389e-05
-1.12589e-05
2.59595e-05
-2.85236e-06
4.72922e-05
7.50968e-06
6.65234e-05
1.34407e-05
6.33034e-05
1.14703e-05
4.83698e-05
1.42118e-06
3.88202e-05
-7.25717e-06
4.39208e-05
-1.52876e-05
4.51517e-05
-1.93881e-05
5.02468e-05
-1.8951e-05
5.94377e-05
-1.54942e-05
7.7024e-05
-1.07081e-05
0.000102838
-2.24478e-07
0.000136026
1.29486e-05
0.000182235
2.94558e-05
0.000271983
4.45083e-05
0.000359186
0.000340121
4.83556e-05
8.66055e-06
9.64813e-05
1.91404e-05
7.49561e-05
2.1553e-05
5.31862e-05
1.61259e-05
3.68422e-05
8.62179e-06
3.02506e-05
1.06844e-06
3.33574e-05
-5.07512e-06
3.20747e-05
-3.09961e-06
4.53532e-05
7.23143e-06
5.61567e-05
1.25898e-05
5.79522e-05
7.50744e-06
5.34565e-05
-2.05141e-06
4.83867e-05
-8.22009e-06
5.00581e-05
-1.28738e-05
4.97966e-05
-1.65051e-05
5.38776e-05
-1.88558e-05
6.17872e-05
-1.80698e-05
7.62493e-05
-1.4789e-05
9.95808e-05
-8.39921e-06
0.000129662
6.17835e-06
0.000167927
3.63799e-05
0.000241915
8.26043e-05
0.000311782
0.000292944
0.000127435
1.25135e-05
8.37898e-05
1.94155e-05
6.82355e-05
2.06417e-05
5.18119e-05
1.61173e-05
4.17995e-05
8.64637e-06
3.76762e-05
2.75922e-06
3.92409e-05
-3.97519e-06
3.88132e-05
-3.82093e-06
4.52292e-05
1.59805e-06
5.07122e-05
4.17732e-06
5.53617e-05
1.17419e-06
5.65052e-05
-5.20266e-06
5.48267e-05
-9.63585e-06
5.44847e-05
-1.3659e-05
5.3818e-05
-1.64885e-05
5.67069e-05
-1.80882e-05
6.33872e-05
-1.74399e-05
7.56037e-05
-1.33458e-05
9.55167e-05
-6.26905e-06
0.000122671
7.27787e-06
0.000154825
4.22963e-05
0.000206819
9.99796e-05
0.000256521
0.000237309
0.00015864
1.14228e-05
7.16695e-05
1.69093e-05
6.25386e-05
1.74493e-05
5.19038e-05
1.34073e-05
4.59201e-05
8.08735e-06
4.2993e-05
3.97503e-06
4.33532e-05
-5.68038e-07
4.33581e-05
-1.88235e-06
4.65488e-05
-4.39019e-07
4.92731e-05
1.03704e-06
5.389e-05
4.64338e-07
5.71124e-05
-2.32431e-06
5.76362e-05
-5.42938e-06
5.75905e-05
-9.18545e-06
5.75734e-05
-1.21203e-05
5.96422e-05
-1.33662e-05
6.46332e-05
-1.18879e-05
7.41278e-05
-5.68487e-06
8.93251e-05
6.50199e-06
0.000110526
2.59427e-05
0.000135786
6.16724e-05
0.000171001
0.000118147
0.000200094
0.000181538
0.000174589
7.71442e-06
6.39895e-05
1.20689e-05
5.8679e-05
1.22787e-05
5.18843e-05
1.00295e-05
4.81712e-05
7.03756e-06
4.5985e-05
4.63524e-06
4.57555e-05
2.18713e-06
4.58064e-05
8.79996e-07
4.78564e-05
6.07528e-07
4.95474e-05
1.37481e-06
5.31261e-05
2.21726e-06
5.62764e-05
2.15985e-06
5.76967e-05
1.35818e-06
5.83927e-05
-3.55513e-07
5.92872e-05
-2.07531e-06
6.13618e-05
-2.8166e-06
6.53752e-05
-1.38584e-06
7.26972e-05
4.22831e-06
8.37142e-05
1.60226e-05
9.87434e-05
3.65769e-05
0.000115289
6.99435e-05
0.000137434
0.000119066
0.000150237
0.000134614
0.000165448
4.91267e-06
5.94157e-05
8.10703e-06
5.55494e-05
8.65068e-06
5.13456e-05
7.86629e-06
4.89557e-05
6.49086e-06
4.73605e-05
5.32017e-06
4.69263e-05
4.11984e-06
4.70068e-05
3.60345e-06
4.83729e-05
3.33495e-06
4.9816e-05
3.98316e-06
5.24782e-05
5.35992e-06
5.48999e-05
6.59677e-06
5.64599e-05
7.36425e-06
5.76255e-05
7.47018e-06
5.91813e-05
7.49618e-06
6.13364e-05
8.00545e-06
6.48655e-05
1.00728e-05
7.06307e-05
1.51667e-05
7.86211e-05
2.52587e-05
8.86563e-05
4.18845e-05
9.86755e-05
6.89035e-05
0.000110307
0.000105306
0.000113418
0.000102505
0.000137068
3.19916e-06
5.62104e-05
5.73824e-06
5.30092e-05
6.65709e-06
5.04269e-05
6.69552e-06
4.89174e-05
6.18633e-06
4.78697e-05
5.62222e-06
4.74905e-05
5.03745e-06
4.75917e-05
4.90039e-06
4.851e-05
5.08297e-06
4.96336e-05
6.04544e-06
5.15159e-05
7.58877e-06
5.33567e-05
9.19624e-06
5.48526e-05
1.0631e-05
5.61909e-05
1.18277e-05
5.7985e-05
1.30466e-05
6.01174e-05
1.44857e-05
6.34268e-05
1.73397e-05
6.7777e-05
2.29425e-05
7.30186e-05
3.21878e-05
7.94113e-05
4.525e-05
8.56133e-05
6.46876e-05
9.08413e-05
8.86739e-05
8.934e-05
8.11947e-05
0.000109896
2.34872e-06
5.38616e-05
4.37348e-06
5.09845e-05
5.35838e-06
4.9442e-05
5.73724e-06
4.85386e-05
5.7275e-06
4.78795e-05
5.59365e-06
4.76244e-05
5.43837e-06
4.7747e-05
5.56196e-06
4.83865e-05
5.98326e-06
4.92124e-05
7.0571e-06
5.04421e-05
8.64744e-06
5.17665e-05
1.03674e-05
5.31327e-05
1.20912e-05
5.44672e-05
1.38896e-05
5.61866e-05
1.57761e-05
5.82313e-05
1.81319e-05
6.10711e-05
2.19101e-05
6.39991e-05
2.78051e-05
6.71239e-05
3.61775e-05
7.1039e-05
4.70179e-05
7.47727e-05
6.11641e-05
7.66875e-05
7.71347e-05
7.33449e-05
6.61482e-05
9.21539e-05
1.87062e-06
5.1991e-05
3.45613e-06
4.9399e-05
4.42594e-06
4.84723e-05
5.07769e-06
4.78869e-05
5.50348e-06
4.74538e-05
5.76882e-06
4.73591e-05
5.99924e-06
4.75167e-05
6.38968e-06
4.79961e-05
6.95922e-06
4.86429e-05
7.91139e-06
4.949e-05
9.2801e-06
5.03978e-05
1.0898e-05
5.1515e-05
1.26195e-05
5.27457e-05
1.46976e-05
5.41088e-05
1.72011e-05
5.57278e-05
2.05284e-05
5.77441e-05
2.47518e-05
5.9776e-05
3.01738e-05
6.17022e-05
3.74005e-05
6.38127e-05
4.65351e-05
6.56385e-05
5.74994e-05
6.57225e-05
6.89475e-05
6.18934e-05
5.51347e-05
7.99565e-05
1.53678e-06
5.04543e-05
2.92622e-06
4.80096e-05
3.99035e-06
4.74082e-05
4.82704e-06
4.70503e-05
5.46714e-06
4.68138e-05
6.05172e-06
4.67746e-05
6.68591e-06
4.68825e-05
7.41554e-06
4.72666e-05
8.2816e-06
4.77769e-05
9.32768e-06
4.8444e-05
1.06374e-05
4.90882e-05
1.22534e-05
4.98992e-05
1.4065e-05
5.09343e-05
1.62366e-05
5.19372e-05
1.8903e-05
5.30617e-05
2.24393e-05
5.4208e-05
2.67826e-05
5.54331e-05
3.18965e-05
5.65887e-05
3.82447e-05
5.74649e-05
4.59775e-05
5.79061e-05
5.47632e-05
5.69372e-05
6.35744e-05
5.30823e-05
4.6925e-05
7.17843e-05
1.37916e-06
4.90752e-05
2.63191e-06
4.6757e-05
3.68851e-06
4.63517e-05
4.6076e-06
4.61313e-05
5.43402e-06
4.59874e-05
6.25258e-06
4.59561e-05
7.10648e-06
4.60287e-05
8.08259e-06
4.62905e-05
9.20281e-06
4.66568e-05
1.04775e-05
4.71694e-05
1.18847e-05
4.76811e-05
1.35611e-05
4.82229e-05
1.56031e-05
4.88923e-05
1.79635e-05
4.9577e-05
2.07704e-05
5.0255e-05
2.40144e-05
5.09643e-05
2.78286e-05
5.16192e-05
3.24809e-05
5.19368e-05
3.80765e-05
5.18696e-05
4.45607e-05
5.14224e-05
5.17045e-05
4.97938e-05
5.88272e-05
4.59599e-05
4.06917e-05
6.50608e-05
1.23067e-06
4.78445e-05
2.37197e-06
4.56157e-05
3.40991e-06
4.53138e-05
4.38237e-06
4.51589e-05
5.31009e-06
4.50597e-05
6.23134e-06
4.50349e-05
7.18379e-06
4.50763e-05
8.26317e-06
4.52112e-05
9.49229e-06
4.54278e-05
1.08631e-05
4.57987e-05
1.23451e-05
4.61991e-05
1.40579e-05
4.65103e-05
1.61075e-05
4.68429e-05
1.85131e-05
4.71715e-05
2.12795e-05
4.74888e-05
2.44462e-05
4.77978e-05
2.82229e-05
4.78428e-05
3.25754e-05
4.75847e-05
3.74419e-05
4.70034e-05
4.28939e-05
4.59707e-05
4.88063e-05
4.38818e-05
5.45214e-05
4.02451e-05
3.58197e-05
5.93936e-05
1.20227e-06
4.66423e-05
2.3092e-06
4.45088e-05
3.34647e-06
4.42765e-05
4.34451e-06
4.41609e-05
5.32851e-06
4.40758e-05
6.33066e-06
4.40328e-05
7.37732e-06
4.40297e-05
8.51279e-06
4.40758e-05
9.75696e-06
4.41837e-05
1.1182e-05
4.43738e-05
1.28071e-05
4.45741e-05
1.46132e-05
4.47042e-05
1.66134e-05
4.48428e-05
1.89177e-05
4.48674e-05
2.1575e-05
4.48316e-05
2.46431e-05
4.47299e-05
2.80801e-05
4.44061e-05
3.18057e-05
4.38593e-05
3.60173e-05
4.27921e-05
4.07299e-05
4.12584e-05
4.56703e-05
3.89418e-05
5.02042e-05
3.57115e-05
3.17925e-05
5.42317e-05
1.13696e-06
4.55054e-05
2.20664e-06
4.34392e-05
3.24673e-06
4.32365e-05
4.25777e-06
4.31499e-05
5.26541e-06
4.30682e-05
6.30494e-06
4.29933e-05
7.39366e-06
4.29411e-05
8.55501e-06
4.29146e-05
9.81819e-06
4.29206e-05
1.12484e-05
4.29436e-05
1.2884e-05
4.29386e-05
1.4688e-05
4.29004e-05
1.67209e-05
4.281e-05
1.89049e-05
4.26835e-05
2.12856e-05
4.24511e-05
2.40583e-05
4.19574e-05
2.71632e-05
4.13014e-05
3.06985e-05
4.03243e-05
3.45241e-05
3.89668e-05
3.85725e-05
3.72103e-05
4.25659e-05
3.49487e-05
4.63483e-05
3.19293e-05
2.82664e-05
4.98746e-05
1.09509e-06
4.44103e-05
2.13835e-06
4.2396e-05
3.17687e-06
4.2198e-05
4.2192e-06
4.21076e-05
5.26961e-06
4.20178e-05
6.33845e-06
4.19246e-05
7.45693e-06
4.18227e-05
8.65042e-06
4.17211e-05
9.94702e-06
4.1624e-05
1.1354e-05
4.15367e-05
1.2864e-05
4.14286e-05
1.45169e-05
4.12476e-05
1.63955e-05
4.09315e-05
1.85133e-05
4.05658e-05
2.09585e-05
4.0006e-05
2.35942e-05
3.93218e-05
2.64482e-05
3.84477e-05
2.94828e-05
3.72899e-05
3.26238e-05
3.58261e-05
3.59725e-05
3.38618e-05
3.94752e-05
3.14463e-05
4.28464e-05
2.85584e-05
2.52536e-05
4.58593e-05
1.05241e-06
4.3358e-05
2.05983e-06
4.13886e-05
3.06918e-06
4.11887e-05
4.08481e-06
4.1092e-05
5.11854e-06
4.09842e-05
6.18097e-06
4.08622e-05
7.2881e-06
4.07156e-05
8.45824e-06
4.0551e-05
9.72142e-06
4.03609e-05
1.11245e-05
4.01337e-05
1.26795e-05
3.98737e-05
1.43813e-05
3.95458e-05
1.61951e-05
3.91178e-05
1.81667e-05
3.85942e-05
2.02527e-05
3.79202e-05
2.25227e-05
3.70519e-05
2.50399e-05
3.59307e-05
2.7757e-05
3.45731e-05
3.06945e-05
3.28888e-05
3.36925e-05
3.08639e-05
3.66146e-05
2.85245e-05
3.94358e-05
2.57373e-05
2.2549e-05
4.21406e-05
1.03039e-06
4.23276e-05
2.0269e-06
4.03921e-05
3.02566e-06
4.019e-05
4.03189e-06
4.00858e-05
5.05702e-06
3.99591e-05
6.116e-06
3.98032e-05
7.21509e-06
3.96165e-05
8.36893e-06
3.93972e-05
9.59489e-06
3.9135e-05
1.09023e-05
3.88264e-05
1.23045e-05
3.84716e-05
1.38299e-05
3.80205e-05
1.54883e-05
3.74594e-05
1.73076e-05
3.6775e-05
1.93048e-05
3.5923e-05
2.1509e-05
3.48478e-05
2.38246e-05
3.36153e-05
2.62466e-05
3.21513e-05
2.86988e-05
3.04369e-05
3.11871e-05
2.83758e-05
3.37457e-05
2.5966e-05
3.62547e-05
2.32284e-05
2.01897e-05
3.86141e-05
9.7666e-07
4.1351e-05
1.92247e-06
3.94464e-05
2.87935e-06
3.92331e-05
3.8491e-06
3.91161e-05
4.839e-06
3.89692e-05
5.86206e-06
3.87802e-05
6.92674e-06
3.85519e-05
8.04466e-06
3.82794e-05
9.22624e-06
3.79535e-05
1.0489e-05
3.75636e-05
1.18678e-05
3.70929e-05
1.3346e-05
3.65424e-05
1.49272e-05
3.58783e-05
1.66212e-05
3.50812e-05
1.84197e-05
3.41246e-05
2.02901e-05
3.29775e-05
2.22682e-05
3.16373e-05
2.4356e-05
3.00636e-05
2.6557e-05
2.8236e-05
2.88006e-05
2.61325e-05
3.10109e-05
2.3756e-05
3.31645e-05
2.10749e-05
1.81125e-05
3.52418e-05
9.48576e-07
4.04024e-05
1.87146e-06
3.85235e-05
2.80638e-06
3.82982e-05
3.74942e-06
3.81731e-05
4.70914e-06
3.80095e-05
5.69023e-06
3.77992e-05
6.70112e-06
3.7541e-05
7.75287e-06
3.72276e-05
8.8579e-06
3.68485e-05
1.0028e-05
3.63936e-05
1.127e-05
3.5851e-05
1.25962e-05
3.52162e-05
1.40196e-05
3.44549e-05
1.55484e-05
3.35524e-05
1.7176e-05
3.24971e-05
1.89023e-05
3.12514e-05
2.07186e-05
2.98211e-05
2.2577e-05
2.82054e-05
2.4467e-05
2.63462e-05
2.6372e-05
2.42276e-05
2.82862e-05
2.18419e-05
3.01655e-05
1.91958e-05
1.63055e-05
3.19726e-05
8.91916e-07
3.95105e-05
1.76961e-06
3.76458e-05
2.6595e-06
3.74084e-05
3.55694e-06
3.72757e-05
4.46886e-06
3.70976e-05
5.39909e-06
3.6869e-05
6.35553e-06
3.65846e-05
7.34838e-06
3.62348e-05
8.38442e-06
3.58125e-05
9.47526e-06
3.53028e-05
1.06259e-05
3.47004e-05
1.18523e-05
3.39898e-05
1.31524e-05
3.31549e-05
1.45235e-05
3.21813e-05
1.5965e-05
3.10557e-05
1.747e-05
2.97465e-05
1.90283e-05
2.82629e-05
2.06469e-05
2.65869e-05
2.23056e-05
2.46876e-05
2.39746e-05
2.25587e-05
2.56223e-05
2.01944e-05
2.72332e-05
1.75851e-05
1.47491e-05
2.87896e-05
8.53859e-07
3.86567e-05
1.69334e-06
3.68064e-05
2.54022e-06
3.65615e-05
3.39126e-06
3.64246e-05
4.25212e-06
3.62368e-05
5.12493e-06
3.59962e-05
6.01385e-06
3.56957e-05
6.9253e-06
3.53234e-05
7.86832e-06
3.48695e-05
8.85971e-06
3.43114e-05
9.90029e-06
3.36598e-05
1.09984e-05
3.28918e-05
1.21602e-05
3.1993e-05
1.33819e-05
3.09597e-05
1.46575e-05
2.97801e-05
1.59759e-05
2.84281e-05
1.73356e-05
2.69033e-05
1.87382e-05
2.51843e-05
2.01604e-05
2.32655e-05
2.15837e-05
2.11356e-05
2.29894e-05
1.87888e-05
2.43627e-05
1.62118e-05
1.34266e-05
2.56853e-05
8.0743e-07
3.78493e-05
1.60031e-06
3.60135e-05
2.39957e-06
3.57623e-05
3.19677e-06
3.56275e-05
4.00009e-06
3.54335e-05
4.81423e-06
3.51821e-05
5.64372e-06
3.48663e-05
6.4924e-06
3.44747e-05
7.36095e-06
3.4001e-05
8.24975e-06
3.34226e-05
9.16692e-06
3.27427e-05
1.01181e-05
3.19406e-05
1.11158e-05
3.09954e-05
1.21651e-05
2.99105e-05
1.32706e-05
2.86747e-05
1.44211e-05
2.72776e-05
1.56063e-05
2.57182e-05
1.68042e-05
2.39865e-05
1.8007e-05
2.20628e-05
1.92103e-05
1.99324e-05
2.03965e-05
1.76027e-05
2.15446e-05
1.50639e-05
1.23233e-05
2.26479e-05
7.64455e-07
3.70849e-05
1.49282e-06
3.52852e-05
2.22703e-06
3.50281e-05
2.96086e-06
3.48936e-05
3.70311e-06
3.46913e-05
4.45982e-06
3.44254e-05
5.23429e-06
3.40918e-05
6.02135e-06
3.36877e-05
6.82312e-06
3.31992e-05
7.62854e-06
3.26172e-05
8.44737e-06
3.19239e-05
9.28422e-06
3.11038e-05
1.01399e-05
3.01398e-05
1.10172e-05
2.90332e-05
1.1921e-05
2.77709e-05
1.28525e-05
2.63462e-05
1.38217e-05
2.47491e-05
1.48339e-05
2.29744e-05
1.58595e-05
2.10373e-05
1.68635e-05
1.89285e-05
1.78392e-05
1.66271e-05
1.87788e-05
1.41244e-05
1.1428e-05
1.96742e-05
7.25358e-07
3.63595e-05
1.37474e-06
3.46358e-05
2.02422e-06
3.43787e-05
2.6787e-06
3.42392e-05
3.3427e-06
3.40273e-05
4.02034e-06
3.37477e-05
4.72036e-06
3.33918e-05
5.43662e-06
3.29715e-05
6.16765e-06
3.24682e-05
6.90704e-06
3.18779e-05
7.6529e-06
3.1178e-05
8.40167e-06
3.0355e-05
9.14544e-06
2.9396e-05
9.88835e-06
2.82903e-05
1.0634e-05
2.70253e-05
1.13875e-05
2.55927e-05
1.21486e-05
2.39881e-05
1.29142e-05
2.22088e-05
1.36972e-05
2.02545e-05
1.45108e-05
1.81149e-05
1.53133e-05
1.58247e-05
1.60635e-05
1.33743e-05
1.07304e-05
1.6761e-05
6.69471e-07
3.569e-05
1.19566e-06
3.41096e-05
1.72292e-06
3.38514e-05
2.26289e-06
3.36992e-05
2.81514e-06
3.3475e-05
3.38538e-06
3.31775e-05
3.97847e-06
3.27988e-05
4.59968e-06
3.23503e-05
5.24601e-06
3.18219e-05
5.91168e-06
3.12122e-05
6.58227e-06
3.05075e-05
7.24418e-06
2.96931e-05
7.90538e-06
2.87348e-05
8.57557e-06
2.76201e-05
9.23794e-06
2.63629e-05
9.89065e-06
2.49401e-05
1.05205e-05
2.33582e-05
1.11192e-05
2.16102e-05
1.16986e-05
1.96751e-05
1.22557e-05
1.75579e-05
1.28116e-05
1.52689e-05
1.33786e-05
1.28074e-05
1.0208e-05
1.3901e-05
5.69816e-07
3.51202e-05
9.09505e-07
3.37699e-05
1.23575e-06
3.35252e-05
1.60014e-06
3.33348e-05
1.99368e-06
3.30815e-05
2.41293e-06
3.27583e-05
2.86435e-06
3.23474e-05
3.36189e-06
3.18527e-05
3.90744e-06
3.12764e-05
4.50063e-06
3.0619e-05
5.13139e-06
2.98767e-05
5.7807e-06
2.90438e-05
6.42046e-06
2.80951e-05
7.03814e-06
2.70024e-05
7.6149e-06
2.57862e-05
8.15864e-06
2.43963e-05
8.68967e-06
2.28272e-05
9.2117e-06
2.10882e-05
9.6994e-06