/*--------------------------------*- C++ -*----------------------------------*\
| =========                 |                                                 |
| \\      /  F ield         | OpenFOAM: The Open Source CFD Toolbox           |
|  \\    /   O peration     | Version:  2.4.0                                 |
|   \\  /    A nd           | Web:      www.OpenFOAM.org                      |
|    \\/     M anipulation  |                                                 |
\*---------------------------------------------------------------------------*/
FoamFile
{
    version     2.0;
    format      ascii;
    class       volScalarField;
    location    "0.8";
    object      rho;
}
// * * * * * * * * * * * * * * * * * * * * * * * * * * * * * * * * * * * * * //

dimensions      [1 -3 0 0 0 0 0];

internalField   nonuniform List<scalar> 
2268
(
13529
13529
13529
13529
13529
13529
13529
13529
13529
13529
13529
13529
13529
13529
13529
13529
13529
13529
13529
13529
13529
13528.9
13528.9
13521.6
13521.8
13525.6
13527.7
13528.5
13528.9
13529
13529
13529
13529
13529
13529
13529
13529
13529
13529
13529
13529
13529
13529
13529
13528.9
13528.8
11755.9
11877.7
12149.1
12670.9
13214.7
13488.8
13527.2
13528.9
13529
13529
13529
13529
13529
13529
13529
13529
13529
13529
13529
13529
13529
13529
13528.8
1549.78
1600.58
1710.21
1999.07
2828.74
5157.34
9190.46
12965.5
13512.1
13527.9
13528.9
13529
13529
13529
13529
13529
13529
13529
13529
13529
13529
13528.9
13528.8
1000.06
1000.06
1000.06
1000.06
1005.75
1073.44
1859.56
7593.22
13004.9
13505.9
13527.3
13528.6
13528.8
13528.9
13528.9
13528.9
13528.9
13529
13529
13529
13528.9
13528.9
13528.8
1000.07
1000.07
1000.06
1000.06
1000.06
1000.16
1061.24
3350.44
10744
13303.1
13510.7
13526.7
13528.2
13525.2
13510
13499.7
13504.5
13519.9
13525.3
13526.2
13522.8
13514
13487.6
1000.09
1000.08
1000.07
1000.07
1000.07
1000.11
1029.64
2185.64
7971.56
12780.2
13468.9
13512.2
13454
13100.1
12488.1
12197.3
12260.2
12661.3
12922.5
13021.4
12908.3
12565.1
11854.4
1000.05
1000.05
1000.05
1000.05
1000.06
1000.07
1006.23
1375.33
4413.83
10125.7
12533.9
12474.9
11120.2
8624.38
6541.04
5725.2
5530.59
5804.97
6089.56
6289.91
6284.56
5858.23
5207.56
11788.2
11790.8
11792.3
11803.7
11840.5
11968.5
11975
11981.9
11987.6
11988.9
11989.1
11993.6
12000.9
12006
12007.1
12007.9
12008.1
12007.8
12007.1
11788.6
7765
5554.56
5197.84
5418.56
5816.37
6615.99
7627.08
8287.81
8350.67
8136.41
8042.22
8424.51
9231
10979.1
12008.6
12009.1
12007.9
12005.7
8264.31
2957.06
1199.33
884.098
838.428
834.634
842.797
855.284
869.131
878.312
870.687
824.755
728.845
1832.32
5857.78
11319.9
12010
12009
12005
1660.97
1261.4
917.055
848.13
843.236
845.377
853.227
874.388
891.882
892.241
889.523
858.138
765.434
900.71
3254.17
10197.2
12010.5
12010.1
11972.5
1309.84
1065.09
868.357
848.935
857.797
871.782
881.108
884.717
890.008
890.639
872.657
834.439
744.795
1007.21
3348.47
9457.81
12002.6
12008.3
12004.8
1255.26
889.137
731.633
729.049
751.456
802.779
872.088
906.427
906.458
888.654
830.358
808.378
757.605
972.943
3279.06
8875.36
11982.6
11958
11833.4
946.009
668.113
569.754
565.147
580.102
632.471
752.321
870.155
898.818
859.796
860.168
820.228
782.182
835.903
2839.51
8542.43
11807.7
11905.1
10092
1027.84
463.479
508.904
515.798
518.395
532.69
590.837
741.844
872.201
908.028
905.032
875.572
808.286
744.392
2009.74
5187.49
9285.81
10648.2
3620.16
1000.02
1000.02
1000.02
1000.03
1000.03
1000.03
1000.51
1050.19
1525.38
2576.66
3697.52
4186.25
3486.38
2260.46
1660.94
1453.77
1330.16
1281.83
1235.97
1225.49
1271.1
1278.07
1588.73
1000
999.97
999.735
999.89
999.956
999.87
999.946
1001.88
1015.64
1052.18
1071.74
1039.69
1031.82
1010.61
999.966
992.163
985.079
978.346
973.911
971.51
973.945
973.344
961.738
999.907
994.924
980.011
988.609
996.589
996.409
997.77
999.266
1001.73
1004.56
1005.5
1002.19
997.948
978.835
939.578
905.653
882.106
874.692
879.3
878.044
877.143
874.858
852.84
987.569
896.52
801.376
853.973
941.294
956.336
974.268
985.205
989.338
990.921
988.299
962.306
906.72
803.964
692.186
529.316
445.01
467.856
614.901
671.894
677.513
678.61
615.289
866.052
628.907
577.923
636.72
744.396
792.183
826.3
841.025
836.246
818.645
737.797
670.588
505.403
260.185
92.9951
24.8704
105.195
364.812
520.943
540.985
546.534
534.354
499.541
692.947
552.426
522.528
544.339
561.232
585.309
595.325
588.858
543.785
459.329
233.497
52.315
2.57337
1.02767
1.50981
8.32017
151.164
450.851
518.473
531.996
525.67
482.103
302.584
477.493
280.532
172.37
135.433
121.017
123.62
120.861
79.5739
29.5964
7.01231
1.2919
1.06295
1.00242
1.00029
1.00088
1.60294
32.8839
234.494
465.988
492.924
493.033
376.072
49.3404
71.8177
17.8268
5.50167
2.9195
1.98932
1.85314
1.54174
1.26904
1.12664
1.01491
1.00023
1.00002
1.00003
1.00004
1.00005
1.00519
1.60664
21.3926
215.797
446.183
456.434
212.083
4.07748
2.14051
1.11196
1.00767
1.00091
1.00008
1.00001
1.00006
1.00005
1.00006
1.00001
1.00001
1.00002
1.00007
1.0001
1.00007
1.00017
1.00127
1.36103
28.2598
164.023
234.586
59.8793
1.20244
1.00241
1.00021
1.00016
1.00007
1.00002
1.00001
1.00001
1.00001
1.00001
1.00001
1.00001
1.00001
1.00009
1.00015
1.00018
1.00021
1.00024
1.00979
2.26766
12.5336
23.3627
7.02781
1.02622
1.0002
1.00018
1.00012
1.00005
1.00003
1.00001
1.00001
1.00001
1.00001
1.00001
1.00001
1.00001
1.00006
1.00018
1.00018
1.00017
1.00017
1.00038
1.01436
1.14493
1.32015
1.14919
1.00283
1.00015
1.00011
1.00006
1.00004
1.00001
1
1.00001
1.00002
1.00002
1.00001
1.00001
1.00003
1.00005
1.00011
1.00014
1.00007
1.00012
1.00031
1.00063
1.00109
1.00154
1.00149
1.00095
1.00009
1.00005
1.00004
1.00003
1.00001
0.999999
1
1.00002
1.00002
1.00002
1.00003
1.00004
1.00003
1.00002
1.00003
1.00002
1.00008
1.00025
1.0006
1.00106
1.00141
1.00137
1.00114
1.00007
1.00005
1.00003
1.00002
1
0.999999
1
1.00001
1.00002
1.00003
1.00004
1.00003
1.00001
1.00001
1.00001
1.00001
1.00003
1.00014
1.00045
1.00089
1.0013
1.0014
1.00134
1.00006
1.00004
1.00002
1
0.999999
0.999999
1
1
1.00001
1.00002
1.00003
1.00001
1.00001
1.00001
1.00001
1.00001
1.00002
1.00006
1.00019
1.00053
1.00103
1.00131
1.00127
1.00005
1.00002
1.00001
0.999999
0.999999
0.999999
1
1
1
1
1.00001
1
1.00001
1.00003
1.00005
1.00003
1.00002
1.00003
1.00006
1.00017
1.00055
1.00086
1.00086
1.00002
1.00001
1
0.999999
0.999999
1
1
1
1
1
1
1
1.00001
1.00003
1.00006
1.00006
1.00002
1.00002
1.00003
1.00007
1.00015
1.00029
1.00025
1
0.999999
0.999999
0.999999
0.999999
1
1
1
1
1
1
1
1.00001
1.00003
1.00006
1.00006
1.00003
1.00001
1.00001
1.00003
1.00005
1.00008
1.00008
0.999999
0.999999
0.999999
0.999999
1
1
1
1
1
1
1
1
1
1.00002
1.00004
1.00006
1.00004
1.00002
1.00001
1.00001
1.00002
1.00003
1.00004
0.999999
0.999999
0.999999
0.999999
1
1
1
1
1
1
1
1
1
1.00001
1.00002
1.00002
1.00003
1.00002
1.00001
1
1.00001
1.00001
1.00001
0.999999
0.999999
0.999999
0.999999
1
1
1
1
1
1
1
1
1
1.00001
1.00001
1.00001
1.00002
1.00001
1.00001
1
1
1
1
0.999999
0.999999
0.999999
1
1
1
1
1
1
1
1
1
1
1
1.00001
1.00001
1.00001
1.00001
1.00001
1
1
1
1
0.999999
0.999999
0.999999
1
1
1
1
1
1
1
1
1
1
1
1
1
1.00001
1.00001
1
1
1
1
1
0.999999
0.999999
0.999999
1
1
1
1
1
1
1
1
1
1
1
1
1
1
1
1
1
1
0.999999
0.999999
0.999999
0.999999
0.999999
1
1
1
1
1
1
1
1
1
1
1
1
1
1
1
1
1
0.999999
0.999999
0.999999
0.999999
0.999999
1
1
1
1
1
1
1
1
1
1
1
1
1
1
1
1
0.999999
0.999999
0.999999
0.999998
0.999998
0.999999
0.999999
1
1
1
1
1
1
1
1
1
1
1
1
1
1
1
0.999999
0.999999
0.999999
0.999999
0.999998
0.999998
0.999999
1
1
1
1
1
1
1
1
1
1
1
1
1
1
1
1
1
0.999999
0.999999
0.999999
0.999998
0.999998
0.999999
1
1
1
1
1
1
1
1
1
1
1
1
1
1
1
1
1
1
0.999999
0.999999
0.999998
0.999998
1
1
1
1
1
1
1
1
1
1
1
1
1
1
1
1
1
1
1
1
0.999999
0.999999
0.999998
1
1
1
1
1
1
1
1
1
1
1
1
1
1
1
1
1
1
1
1
0.999999
0.999999
0.999998
1
1
1
1
1
1
1
1
1
1
1
1
1
1
1
1
1
1
1
1
1
0.999999
0.999998
1
1
1
1
1
1
1
1
1
1
1
1
1
1
1
1
1
1
1
1
1
0.999999
0.999999
1
1
1
1
1
1
1
1
1
1
1
1
1
1
1
1
1
1
1
1
1
0.999999
0.999999
1
1
1
1
1
1
1
1
1
1
1
1
1
1
1
1
1
1
1
1
1
1
0.999999
1
1
1
1
1
1
1
1
1
1
1
1
1
1
1
1
1
1
1
1
1
1
0.999999
1
1
1
1
1
1
1
1
1
1
1
1
1
1
1
1
1
1
1
1
1
1
0.999999
1
1
1
1
1
1
1
1
1
1
1
1
1
1
1
1
1
1
1
1
1
1
0.999999
1
1
1
1
1
1
1
1
1
1
1
1
1
1
1
1
1
1
0.999999
1
1
1
0.999999
1
1
1
1
1
1
1
1
1
1
1
1
1
1
1
1
1
0.999999
0.999999
0.999999
1
1
1
1
1
1
1
1
1
1
1
1
1
1
1
1
1
1
1
1
0.999999
0.999999
0.999999
0.999999
1
0.999999
1
1
1
1
1
1
1
1
1
1
1
1
1
1
1
1
1
1
0.999999
1
1
1
0.999999
2804.35
3103.04
3046.81
2818.29
953.866
808.705
512.034
384.692
646.531
463.955
393.881
473.562
519.244
500.512
500.2
500.212
486.285
488.698
489.393
458.611
161.899
208.87
234.365
167.818
3.8633
3.18326
2.3808
15.1783
1.00409
1.00138
1.02253
4.61712
1.00058
1.00052
1.00047
1.00046
1.00046
1.00042
1.00033
1.00027
1.00049
1.00037
1.0002
1.0002
1.00076
1.00071
1.00044
1.0002
1.00111
1.00122
1.00112
1.00087
1.00132
1.00136
1.00125
1.00109
1.00125
1.00124
1.0011
1.00089
1.00078
1.00068
1.00051
1.00027
1.00023
1.00019
1.00015
1.00011
1.0001
1.00009
1.00006
1.00004
1.00004
1.00003
1.00002
1.00002
1.00001
1.00001
1
1
1
1
1
0.999999
1
0.999999
1
1
1
1
1
1
0.999999
0.999999
0.999999
0.999999
0.999999
0.999999
0.999999
0.999999
0.999998
0.999998
0.999998
0.999998
0.999998
0.999998
0.999998
0.999998
0.999998
0.999997
0.999997
0.999997
0.999998
0.999997
0.999997
0.999997
0.999998
0.999997
0.999997
0.999996
0.999998
0.999997
0.999997
0.999996
0.999998
0.999997
0.999996
0.999996
0.999998
0.999997
0.999996
0.999996
0.999998
0.999997
0.999996
0.999996
0.999998
0.999997
0.999996
0.999996
0.999998
0.999998
0.999997
0.999997
0.999998
0.999997
0.999997
0.999997
0.999999
0.999998
0.999997
0.999997
0.999998
0.999998
0.999998
0.999998
0.999999
0.999998
0.999998
0.999998
0.999998
0.999998
0.999997
0.999998
0.999998
0.999998
0.999998
0.999999
1016.8
420.724
500.784
505.628
505.698
508.073
519.837
566.718
715.173
869.041
906.53
890.62
825.915
739.996
937.964
1224.01
1927.54
1815.13
939.848
418.386
492.794
499.502
498.976
496.89
495.963
497.735
502.657
546.827
692.339
842.144
846.467
807.625
719.648
621.965
574.324
572.189
566.74
639.458
493.605
493.601
481.239
467.2
475.976
485.99
489.085
492.902
502.072
592.292
745.042
802.379
777.019
707.686
607.648
537.154
540.009
537.287
674.35
488.292
377.694
195.577
140.967
171.509
236.116
303.194
402.303
459.636
488.841
624.481
752.452
764.807
701.483
603.97
536.883
518.779
526.96
741.893
261.429
33.8609
6.93665
6.91886
6.91759
6.91662
8.32226
86.3129
358.622
463.788
568.83
715.821
754.563
688.602
590.039
532.723
521.34
567.89
839.747
95.6639
27.968
22.9935
7.91992
6.92381
6.91759
6.9178
12.1424
177.747
484.266
568.867
675.05
715.117
635.297
564.697
538.285
558.293
668.889
934.736
154.514
334.4
207.802
71.1684
9.40625
6.91993
6.91812
7.18507
98.6871
434.616
571.868
605.542
522.016
550.848
566.882
570.95
653.485
759.262
1003.5
116.4
349.136
351.844
287.819
72.2233
7.77874
6.97317
28.1348
190.886
448.862
563.244
543.087
431.826
413.256
420.525
611.682
735.803
767.651
1033.41
9.77009
129.042
351.749
352.717
282.206
77.0399
48.5855
204.833
432.095
504.358
561.241
582.365
518.008
502.269
592.65
687.428
737.361
809.491
1019.51
1.10327
9.23443
120.808
345.359
362.187
359.593
316.174
422.985
481.101
518.482
560.423
582.954
643.62
671.606
693.055
698.461
732.792
778.502
921.117
1.00038
1.06115
5.63098
91.418
359.613
461.85
470.064
472.263
485.304
506.185
514.183
470.278
390.264
407.407
584.992
697.132
716.704
750.473
826.238
1.00017
1.0003
1.03229
4.07114
58.5125
212.27
283.126
288.369
354.443
449.467
491.818
397.234
256.288
257.161
354.131
677.991
719.366
749.726
793.605
1.00017
1.00007
1.00025
1.01835
1.79192
8.2111
19.3776
24.839
37.6727
129.131
312.571
455.675
535.522
536.994
520.827
620.4
665.539
686.493
699.35
1.00036
1.00007
1.00006
1.00053
1.00338
1.0052
1.00724
1.01366
1.05071
1.93137
25.5527
177.865
373.671
469.064
509.433
541.833
562.037
548.028
538.942
1.00026
1.00009
1.00005
1.00012
1.00028
1.00042
1.00105
1.00134
1.00156
1.00156
1.02696
1.91959
14.8037
79.0554
176.564
245.31
376.408
468.379
489.558
1.00011
1.00006
1.00003
1.00007
1.00022
1.00026
1.00042
1.00101
1.00148
1.00191
1.00183
1.00162
1.00395
1.13925
3.03401
12.6181
120.477
426.818
492.945
1.00006
1.00002
1.00002
1.00004
1.00007
1.00016
1.00019
1.00014
1.00112
1.0019
1.00203
1.00162
1.00138
1.01178
1.48753
6.46394
26.4267
198.832
464.401
1.00002
1.00001
1.00001
1.00002
1.00004
1.00007
1.00011
1.0001
1.00012
1.00147
1.00187
1.00112
1.00122
1.08218
3.62452
7.86508
4.89209
29.9575
206.494
1
1
1
1.00001
1.00002
1.00004
1.00006
1.00007
1.00008
1.00015
1.00084
1.00154
1.00115
1.06282
2.87242
1.88514
1.11939
2.30266
8.00027
1
0.999999
0.999999
1
1.00001
1.00002
1.00002
1.00003
1.00006
1.00008
1.00031
1.00094
1.00102
1.03779
1.41644
1.02199
1.0442
1.00286
1.00089
0.999999
0.999999
0.999998
0.999999
1
1
1.00001
1.00001
1.00002
1.00005
1.00012
1.00048
1.00072
1.03371
1.03371
1.0144
1.03849
1.001
1.00057
0.999999
0.999998
0.999998
0.999998
0.999998
0.999999
1
1
1.00001
1.00002
1.00007
1.0002
1.00042
1.02157
1.01255
1.0085
1.00721
1.00157
1.00058
0.999999
0.999998
0.999998
0.999998
0.999998
0.999998
0.999999
1
1.00001
1.00002
1.00005
1.00011
1.00026
1.01046
1.00892
1.00425
1.00134
1.00097
1.00063
0.999999
0.999998
0.999998
0.999997
0.999998
0.999998
0.999999
1
1
1.00002
1.00006
1.00012
1.00021
1.00428
1.00712
1.00331
1.00093
1.00092
1.00067
0.999998
0.999998
0.999997
0.999997
0.999998
0.999998
0.999999
1
1
1.00002
1.00009
1.00019
1.00028
1.00113
1.00344
1.00364
1.00161
1.00094
1.00069
0.999998
0.999997
0.999997
0.999997
0.999998
0.999998
0.999999
1
1
1.00002
1.00009
1.0003
1.00049
1.00065
1.00086
1.00369
1.00175
1.00096
1.0007
0.999997
0.999997
0.999997
0.999997
0.999998
0.999998
0.999999
1
1
1.00001
1.00009
1.00045
1.00077
1.00111
1.0021
1.0038
1.00129
1.00096
1.00068
0.999997
0.999997
0.999997
0.999997
0.999998
0.999999
0.999999
1
1
1.00001
1.00008
1.00052
1.00093
1.01454
1.01641
1.00563
1.0011
1.00094
1.00062
0.999996
0.999996
0.999996
0.999997
0.999998
0.999999
0.999999
1
1
1.00001
1.00007
1.00041
1.00098
1.01869
1.0207
1.01293
1.00193
1.00089
1.00054
0.999996
0.999996
0.999996
0.999997
0.999998
0.999999
0.999999
0.999999
1
1
1.00003
1.00022
1.00082
1.00476
1.01405
1.01043
1.00331
1.00132
1.0005
0.999996
0.999996
0.999997
0.999997
0.999998
0.999999
0.999999
0.999999
1
1
1.00001
1.00009
1.00046
1.00098
1.00156
1.00432
1.00467
1.00338
1.00061
0.999996
0.999996
0.999997
0.999997
0.999998
0.999999
0.999999
0.999999
1
1
1.00001
1.00004
1.00018
1.0005
1.00071
1.00182
1.0046
1.003
1.00049
0.999996
0.999996
0.999997
0.999998
0.999998
0.999999
0.999999
0.999999
1
1.00001
1.00002
1.00005
1.00013
1.00028
1.00048
1.00137
1.00448
1.00115
1.0002
0.999996
0.999997
0.999997
0.999998
0.999999
0.999999
0.999999
0.999999
1
1.00001
1.00003
1.00012
1.00023
1.00032
1.00052
1.00219
1.00285
1.00063
1.00013
0.999997
0.999997
0.999998
0.999998
0.999999
0.999999
0.999999
1
1
1.00002
1.00005
1.00019
1.00037
1.00054
1.00093
1.00236
1.00092
1.00034
1.00008
0.999997
0.999998
0.999998
0.999999
0.999999
0.999999
0.999999
1
1
1.00002
1.00005
1.0002
1.00045
1.00079
1.00189
1.00149
1.00042
1.00012
1.00004
0.999998
0.999998
0.999999
0.999999
0.999999
0.999999
0.999999
1
1
1.00001
1.00004
1.00013
1.00039
1.00067
1.00122
1.00045
1.00017
1.00006
1.00001
0.999998
0.999999
0.999999
0.999999
0.999999
0.999999
0.999999
0.999999
1
1
1.00002
1.00005
1.00022
1.00034
1.00031
1.00018
1.00009
1.00001
1
0.999998
0.999999
0.999999
0.999999
0.999999
0.999999
0.999999
0.999999
1
1
1.00001
1.00002
1.00005
1.00009
1.00007
1.00003
1.00001
1.00001
1
0.999999
0.999999
0.999999
0.999999
0.999999
0.999999
0.999999
0.999999
1
1
1
1
1.00001
1.00001
1.00001
1.00001
1.00001
1
1
0.999999
0.999999
0.999999
0.999999
0.999999
0.999999
0.999999
0.999999
1
1
1
1
1
1
1
1
1
1
1
0.999999
0.999999
0.999999
0.999999
0.999999
1
1
1
1
1
1
1
1
1
1
1
1
1
1
)
;

boundaryField
{
    leftWall
    {
        type            calculated;
        value           nonuniform List<scalar> 
50
(
13529
13521.6
11755.9
1549.78
1000.06
1000.07
1000.09
1000.05
1000.02
1000
999.907
987.569
866.052
692.947
477.493
71.8177
2.14051
1.00241
1.0002
1.00015
1.00009
1.00007
1.00006
1.00005
1.00002
1
0.999999
0.999999
0.999999
0.999999
0.999999
0.999999
0.999999
0.999999
0.999999
0.999999
0.999999
1
1
1
1
1
1
1
1
1
1
1
1
1
)
;
    }
    rightWall
    {
        type            calculated;
        value           nonuniform List<scalar> 
50
(
12007.1
12005.7
12005
11972.5
12004.8
11833.4
10092
3620.16
939.848
639.458
674.35
741.893
839.747
934.736
1003.5
1033.41
1019.51
921.117
826.238
793.605
699.35
538.942
489.558
492.945
464.401
206.494
8.00027
1.00089
1.00057
1.00058
1.00063
1.00067
1.00069
1.0007
1.00068
1.00062
1.00054
1.0005
1.00061
1.00049
1.0002
1.00013
1.00008
1.00004
1.00001
1
1
1
1
1
)
;
    }
    lowerWall
    {
        type            calculated;
        value           nonuniform List<scalar> 
62
(
13529
13529
13529
13529
13529
13529
13529
13529
13529
13529
13529
13529
13529
13529
13529
13529
13529
13529
13529
13529
13529
13528.9
13528.9
13528.9
13528.8
13528.8
13528.8
13528.8
13487.6
11854.4
5207.56
2804.35
3103.04
3046.81
2818.29
11788.2
11788.6
8264.31
1660.97
1309.84
1255.26
946.009
1027.84
11788.2
11790.8
11792.3
11803.7
11840.5
11968.5
11975
11981.9
11987.6
11988.9
11989.1
11993.6
12000.9
12006
12007.1
12007.9
12008.1
12007.8
12007.1
)
;
    }
    atmosphere
    {
        type            calculated;
        value           nonuniform List<scalar> 
46
(
1
1
1
1
1
1
1
1
1
1
1
1
1
1
1
1
1
1
0.999999
1
1
1
0.999999
0.999998
0.999998
0.999998
0.999999
0.999999
1
1
1
1
1
1
1
1
1
1
1
1
1
1
1
1
1
1
)
;
    }
    defaultFaces
    {
        type            empty;
    }
}


// ************************************************************************* //
