/*--------------------------------*- C++ -*----------------------------------*\
| =========                 |                                                 |
| \\      /  F ield         | OpenFOAM: The Open Source CFD Toolbox           |
|  \\    /   O peration     | Version:  2.4.0                                 |
|   \\  /    A nd           | Web:      www.OpenFOAM.org                      |
|    \\/     M anipulation  |                                                 |
\*---------------------------------------------------------------------------*/
FoamFile
{
    version     2.0;
    format      ascii;
    class       volVectorField;
    location    "0.8";
    object      U;
}
// * * * * * * * * * * * * * * * * * * * * * * * * * * * * * * * * * * * * * //

dimensions      [0 1 -1 0 0 0 0];

internalField   nonuniform List<vector> 
2268
(
(0.00806628 -0.0531685 0)
(0.0211189 -0.0542233 0)
(0.0387189 -0.0552389 0)
(0.0349169 -0.0582119 0)
(0.0320536 -0.0564149 0)
(0.0184789 -0.0374737 0)
(-0.0211389 -0.0070431 0)
(-0.0821599 0.0233435 0)
(-0.153576 0.0336776 0)
(-0.19486 0.030898 0)
(-0.214173 0.0249184 0)
(-0.229374 0.0101518 0)
(-0.229545 -0.000922987 0)
(-0.211911 -0.00775199 0)
(-0.180938 -0.0119866 0)
(-0.152755 -0.00994983 0)
(-0.132992 -0.00660091 0)
(-0.119822 -0.00566055 0)
(-0.105559 -0.00373643 0)
(-0.0850027 -0.00844328 0)
(-0.0566491 -0.00199761 0)
(-0.0492899 0.00107676 0)
(-0.0363106 -0.0114056 0)
(0.00994303 0.0438521 0)
(0.0182936 0.0433437 0)
(0.0349211 0.0523586 0)
(0.0392248 0.0617667 0)
(0.0453365 0.0669795 0)
(0.0387077 0.0676425 0)
(0.00159192 0.0534428 0)
(-0.0666718 0.0399409 0)
(-0.147699 0.0212431 0)
(-0.20251 -0.000507782 0)
(-0.229385 -0.00623106 0)
(-0.23661 -0.0031751 0)
(-0.230714 -0.00704998 0)
(-0.20995 -0.0159117 0)
(-0.179356 -0.0166041 0)
(-0.151691 -0.0130896 0)
(-0.13014 -0.00902534 0)
(-0.115824 -0.00744019 0)
(-0.101006 -0.0112776 0)
(-0.0758992 -0.0157259 0)
(-0.0548187 -0.0150292 0)
(-0.034389 -0.00909511 0)
(-0.0155325 -0.0313447 0)
(0.0130664 -0.0834181 0)
(0.0194182 -0.084526 0)
(0.0316134 -0.0741627 0)
(0.0504565 -0.0689483 0)
(0.0363867 -0.0613322 0)
(0.0020748 -0.0244512 0)
(-0.0385045 0.0532544 0)
(-0.0917203 0.108938 0)
(-0.157966 0.0888889 0)
(-0.207613 0.0574096 0)
(-0.230679 0.0330922 0)
(-0.2356 0.00957324 0)
(-0.226241 -0.015568 0)
(-0.208468 -0.0320871 0)
(-0.180011 -0.0379173 0)
(-0.155672 -0.0313102 0)
(-0.131761 -0.0225208 0)
(-0.112253 -0.0179917 0)
(-0.0952883 -0.0208701 0)
(-0.0696907 -0.0295542 0)
(-0.0560659 -0.0220225 0)
(-0.0240692 -0.0152235 0)
(-0.00660148 -0.03531 0)
(0.0114477 0.12041 0)
(0.0101922 0.125905 0)
(0.00496878 0.125499 0)
(0.0113426 0.146088 0)
(-0.00789652 0.158589 0)
(-0.0113027 0.124277 0)
(-0.050714 0.0858924 0)
(-0.116752 0.0896662 0)
(-0.1914 0.0836956 0)
(-0.231524 0.0450846 0)
(-0.240087 0.015219 0)
(-0.234071 -0.00448715 0)
(-0.225389 -0.0208401 0)
(-0.208294 -0.0399043 0)
(-0.179783 -0.0420171 0)
(-0.150612 -0.03678 0)
(-0.121615 -0.0308046 0)
(-0.0980383 -0.0254953 0)
(-0.0834631 -0.0303715 0)
(-0.0765084 -0.0337984 0)
(-0.0755923 -0.0377462 0)
(-0.0357768 -0.0302144 0)
(-0.0115571 -0.0453834 0)
(-0.0063474 -0.152223 0)
(-0.00344367 -0.146266 0)
(-0.0061295 -0.147876 0)
(-0.0115056 -0.145338 0)
(9.65298e-05 -0.0974103 0)
(-0.00498027 0.0318895 0)
(-0.0632907 0.213583 0)
(-0.222308 0.185569 0)
(-0.246622 0.119251 0)
(-0.289941 0.0669334 0)
(-0.293713 0.0320014 0)
(-0.275073 0.00525405 0)
(-0.247836 -0.0254269 0)
(-0.221814 -0.0516168 0)
(-0.189588 -0.0622233 0)
(-0.150325 -0.0568185 0)
(-0.112553 -0.0466043 0)
(-0.0843566 -0.037012 0)
(-0.0764999 -0.0359007 0)
(-0.0781592 -0.0385296 0)
(-0.08254 -0.0455256 0)
(-0.0617579 -0.0492462 0)
(-0.0169903 -0.0592815 0)
(0.00154349 0.0713707 0)
(-0.00826422 0.0860979 0)
(-0.0414611 0.0982441 0)
(-0.0922164 0.124238 0)
(-0.17366 0.114898 0)
(-0.217279 0.0746354 0)
(-0.194436 0.107265 0)
(-0.367029 0.233351 0)
(-0.364618 0.137342 0)
(-0.357913 0.0619392 0)
(-0.346158 0.000402629 0)
(-0.325541 -0.0300294 0)
(-0.298927 -0.0500391 0)
(-0.270823 -0.0673748 0)
(-0.229073 -0.072202 0)
(-0.174793 -0.067055 0)
(-0.125828 -0.0558603 0)
(-0.0895669 -0.0325143 0)
(-0.0777586 -0.0216275 0)
(-0.0771571 -0.0205844 0)
(-0.0800568 -0.0330732 0)
(-0.0742274 -0.0484946 0)
(-0.0306742 -0.0807281 0)
(-0.00641115 -0.086279 0)
(-0.00938752 -0.0773384 0)
(-0.0113682 -0.068186 0)
(-0.0249028 -0.0406146 0)
(-0.0611529 0.0154196 0)
(-0.123944 0.0883221 0)
(-0.203388 0.20007 0)
(-0.359026 0.247334 0)
(-0.515809 0.150893 0)
(-0.486122 0.0710048 0)
(-0.440469 0.0324344 0)
(-0.383459 -0.00671389 0)
(-0.336775 -0.0491587 0)
(-0.292616 -0.091603 0)
(-0.241581 -0.123453 0)
(-0.192325 -0.124674 0)
(-0.157967 -0.105863 0)
(-0.125706 -0.0753296 0)
(-0.0896014 -0.0548772 0)
(-0.0709166 -0.0503287 0)
(-0.0621539 -0.0644713 0)
(-0.081292 -0.0876807 0)
(-0.0502618 -0.123119 0)
(0.00789743 0.0222139 0)
(0.00283161 0.0485641 0)
(-0.0275091 0.0712294 0)
(-0.0659817 0.0912605 0)
(-0.0989852 0.100102 0)
(-0.132027 0.117017 0)
(-0.172351 0.224457 0)
(-0.236461 0.321991 0)
(-0.489131 0.185674 0)
(-0.515981 0.0152115 0)
(-0.502566 -0.0618019 0)
(-0.454618 -0.0942241 0)
(-0.382006 -0.110081 0)
(-0.287839 -0.123619 0)
(-0.189286 -0.116451 0)
(-0.167591 -0.101188 0)
(-0.178381 -0.0872653 0)
(-0.169707 -0.0695556 0)
(-0.120731 -0.0587818 0)
(-0.0655626 -0.0482813 0)
(-0.0500711 -0.0416805 0)
(-0.102419 -0.0551564 0)
(-0.123908 -0.134068 0)
(-0.139196 -0.147203 0)
(0.132663 -0.186263 0)
(0.269996 -0.184122 0)
(0.353772 -0.193328 0)
(0.400882 -0.19948 0)
(0.432612 -0.195225 0)
(0.460193 -0.184349 0)
(0.488965 -0.171633 0)
(0.518315 -0.167272 0)
(0.554408 -0.167667 0)
(0.584345 -0.167463 0)
(0.625758 -0.169007 0)
(0.645968 -0.15735 0)
(0.630445 -0.144242 0)
(0.573771 -0.10996 0)
(0.443918 -0.0724677 0)
(0.181354 -0.0353678 0)
(-0.0528233 -0.0926877 0)
(-0.0135362 -0.141233 0)
(-0.18447 0.118822 0)
(0.302091 -0.0425826 0)
(0.473697 0.0412418 0)
(0.542158 0.0951537 0)
(0.571727 0.116634 0)
(0.576333 0.111879 0)
(0.574368 0.0962556 0)
(0.583976 0.084137 0)
(0.598225 0.080407 0)
(0.607654 0.0802605 0)
(0.616737 0.0778466 0)
(0.641739 0.084421 0)
(0.647976 0.0934231 0)
(0.634583 0.121507 0)
(0.579663 0.176617 0)
(0.425265 0.20072 0)
(0.229356 0.186159 0)
(0.0387116 0.150677 0)
(-0.0718213 0.080946 0)
(0.0942051 -0.124093 0)
(0.478582 -0.324217 0)
(0.591576 -0.101336 0)
(0.719586 -0.0055815 0)
(0.804685 0.0227513 0)
(0.859383 0.0220336 0)
(0.863976 0.0506053 0)
(0.827383 0.0914397 0)
(0.749949 0.100336 0)
(0.653539 0.0936605 0)
(0.547727 0.0788444 0)
(0.4521 0.0833346 0)
(0.264157 0.149078 0)
(0.133508 0.0403654 0)
(0.262691 0.0776164 0)
(0.337803 0.160607 0)
(0.214224 0.187112 0)
(0.058743 0.1151 0)
(-0.0356049 -0.0938836 0)
(0.384104 -0.0458995 0)
(0.415191 -0.242349 0)
(0.482439 -0.192856 0)
(0.600605 -0.159827 0)
(0.663193 -0.134464 0)
(0.712841 -0.104272 0)
(0.719456 -0.0931909 0)
(0.701859 -0.0990511 0)
(0.666839 -0.0812886 0)
(0.627487 -0.0542028 0)
(0.54731 -0.0388721 0)
(0.451211 -0.0220395 0)
(0.258776 -0.0281226 0)
(0.0668855 0.0362052 0)
(-0.373873 0.11482 0)
(0.125037 0.130056 0)
(0.16411 0.215367 0)
(0.0962293 0.186593 0)
(0.0191759 0.0397701 0)
(0.312547 -0.498805 0)
(0.347127 -0.40862 0)
(0.432583 -0.242267 0)
(0.480667 -0.101735 0)
(0.555513 -0.0317979 0)
(0.607497 0.0257934 0)
(0.614753 0.084084 0)
(0.566793 0.120439 0)
(0.502473 0.13022 0)
(0.470748 0.132672 0)
(0.434865 0.144667 0)
(0.381594 0.187914 0)
(0.225475 0.243382 0)
(-0.067564 0.25369 0)
(-0.453266 0.073142 0)
(-0.255328 -0.0106894 0)
(0.0797204 0.20412 0)
(0.0684625 0.211084 0)
(0.087152 -0.0025152 0)
(0.192267 -0.533618 0)
(0.161861 -0.370782 0)
(0.23174 -0.214961 0)
(0.315874 -0.182087 0)
(0.385111 -0.156735 0)
(0.450433 -0.102607 0)
(0.461823 -0.0544154 0)
(0.453513 -0.0235301 0)
(0.420171 -0.00441297 0)
(0.367638 0.0115255 0)
(0.326985 0.0549621 0)
(0.319042 0.134174 0)
(0.239663 0.246967 0)
(-0.0504516 0.398432 0)
(-0.374238 0.110053 0)
(-0.28033 -0.0964894 0)
(0.0468767 0.0904075 0)
(0.0638956 0.195226 0)
(0.122734 0.0858176 0)
(0.160781 -0.556139 0)
(-0.0526197 -0.398994 0)
(-0.0351078 -0.286525 0)
(0.138886 -0.219771 0)
(0.302325 -0.12494 0)
(0.428683 -0.0229227 0)
(0.446113 0.0528887 0)
(0.402116 0.0994396 0)
(0.342264 0.124392 0)
(0.268877 0.115821 0)
(0.24734 0.110009 0)
(0.252792 0.169663 0)
(0.258196 0.300657 0)
(0.0530078 0.476034 0)
(-0.285738 0.147677 0)
(-0.295827 -0.147579 0)
(-0.116571 0.0206971 0)
(0.0261992 0.181659 0)
(0.136814 0.0860058 0)
(0.0603848 -0.557298 0)
(-0.199379 -0.263764 0)
(-0.12949 -0.290653 0)
(0.004672 -0.297284 0)
(0.127389 -0.226857 0)
(0.311693 -0.117085 0)
(0.417014 0.000724206 0)
(0.404541 0.0519002 0)
(0.336573 0.100387 0)
(0.268521 0.0976252 0)
(0.207723 0.107673 0)
(0.205865 0.176678 0)
(0.226169 0.351229 0)
(0.189925 0.625635 0)
(-0.187591 0.215308 0)
(-0.294244 -0.145965 0)
(-0.26289 -0.0677885 0)
(-0.111085 0.0615604 0)
(0.137087 0.212252 0)
(0.00251999 -0.0736036 0)
(0.0159245 -0.0660665 0)
(0.0411155 -0.0300078 0)
(0.0497823 0.0300761 0)
(0.0196439 0.106459 0)
(-0.0295573 0.172875 0)
(-0.0584328 0.268408 0)
(-0.00807106 0.392663 0)
(-0.0123114 0.374395 0)
(-0.145275 0.253628 0)
(-0.251836 0.130945 0)
(-0.273666 0.0120498 0)
(-0.233016 -0.0759123 0)
(-0.174495 -0.104699 0)
(-0.146436 -0.0784156 0)
(-0.14199 -0.042563 0)
(-0.147718 -0.0128732 0)
(-0.142263 -0.00571132 0)
(-0.132015 0.00463175 0)
(-0.132141 0.0508809 0)
(-0.140425 0.113212 0)
(-0.15845 0.106615 0)
(-0.252323 -0.181364 0)
(0.0210067 -0.0120715 0)
(0.0489032 0.00956842 0)
(0.052975 0.0379589 0)
(0.0219571 0.0780789 0)
(0.00835403 0.131272 0)
(-0.000677106 0.159355 0)
(0.0070253 0.212006 0)
(0.0516903 0.274771 0)
(0.131772 0.26171 0)
(0.16569 0.155207 0)
(0.169215 0.0081575 0)
(0.178164 -0.124701 0)
(0.16027 -0.19975 0)
(0.127721 -0.217286 0)
(0.114074 -0.197081 0)
(0.109346 -0.159988 0)
(0.122439 -0.143467 0)
(0.118073 -0.154497 0)
(0.106163 -0.164103 0)
(0.074603 -0.166187 0)
(0.0448614 -0.14778 0)
(0.0506814 -0.132291 0)
(0.0472999 -0.139531 0)
(0.0264184 -0.0920571 0)
(0.070366 -0.0561351 0)
(0.114999 0.038707 0)
(0.107255 0.122597 0)
(0.0697641 0.170875 0)
(0.0181544 0.185916 0)
(0.00240559 0.212794 0)
(0.0259447 0.234336 0)
(0.0902673 0.217572 0)
(0.156428 0.151286 0)
(0.196478 0.0598998 0)
(0.215912 -0.0388453 0)
(0.200253 -0.112329 0)
(0.195008 -0.145902 0)
(0.21399 -0.138716 0)
(0.221251 -0.10807 0)
(0.214707 -0.0584106 0)
(0.162125 -0.0100407 0)
(0.114186 0.0556247 0)
(0.0777646 0.105732 0)
(0.0116258 0.140212 0)
(-0.112583 0.0951659 0)
(-0.471498 -0.0271644 0)
(0.046029 -0.171786 0)
(0.119376 -0.13175 0)
(0.119705 -0.0303267 0)
(0.0161961 0.0805988 0)
(0.013478 0.174614 0)
(-0.0299453 0.201454 0)
(-0.0387703 0.190156 0)
(-0.0232977 0.156595 0)
(0.0270128 0.107413 0)
(0.0746073 0.0412798 0)
(0.112409 -0.03772 0)
(0.133305 -0.0859322 0)
(0.146987 -0.149139 0)
(0.15066 -0.214684 0)
(0.154946 -0.240737 0)
(0.120109 -0.1922 0)
(0.0259837 -0.108255 0)
(-0.145129 -0.0515751 0)
(-0.204591 -0.0902852 0)
(-0.346396 -0.0406606 0)
(-0.512446 0.0967407 0)
(-0.915462 0.437491 0)
(-1.27011 0.613213 0)
(0.00696683 -0.225923 0)
(-0.0625278 -0.0766325 0)
(-0.178638 0.200351 0)
(-0.235783 0.270912 0)
(-0.214111 0.290723 0)
(-0.202997 0.289767 0)
(-0.156975 0.251818 0)
(-0.122835 0.211029 0)
(-0.0702855 0.161552 0)
(0.00240815 0.100533 0)
(0.0756503 0.00496947 0)
(0.107955 -0.094002 0)
(0.044698 -0.214227 0)
(-0.0462368 -0.229331 0)
(-0.109204 0.0312806 0)
(-0.846378 0.664416 0)
(-1.24569 0.418106 0)
(-1.07134 0.185837 0)
(-1.02995 0.203827 0)
(-1.15532 0.368963 0)
(-1.35857 0.60023 0)
(-1.4178 0.673174 0)
(-1.46346 0.492912 0)
(-0.0515466 -0.0990521 0)
(-0.276447 0.0448619 0)
(-0.365982 0.0948527 0)
(-0.396872 0.0822746 0)
(-0.393815 0.0740469 0)
(-0.342241 0.0797634 0)
(-0.288161 0.0628145 0)
(-0.260136 0.0224076 0)
(-0.225383 -0.0695337 0)
(-0.221646 -0.176068 0)
(-0.261065 -0.214917 0)
(-0.239938 0.21314 0)
(-0.513281 0.738751 0)
(-1.2104 0.394086 0)
(-1.35588 0.512885 0)
(-1.3766 0.740667 0)
(-1.40015 0.0317962 0)
(-1.1984 -0.0737659 0)
(-1.1621 0.0762864 0)
(-1.22771 0.380622 0)
(-1.31796 0.560198 0)
(-1.36113 0.575371 0)
(-1.38685 0.300737 0)
(-0.176118 0.0337749 0)
(-0.361983 0.146973 0)
(-0.444512 0.238773 0)
(-0.479014 0.257152 0)
(-0.453155 0.241974 0)
(-0.38716 0.208718 0)
(-0.344611 0.189148 0)
(-0.303628 0.280023 0)
(-0.29886 0.600445 0)
(-0.752276 0.796122 0)
(-1.24468 0.42259 0)
(-1.10813 0.0757796 0)
(-0.785444 0.220201 0)
(-0.789583 0.211103 0)
(-0.752481 0.17256 0)
(-0.774863 0.486968 0)
(-1.02573 0.176879 0)
(-1.20084 -0.0200551 0)
(-1.0972 0.125785 0)
(-1.14981 0.467515 0)
(-1.17594 0.611428 0)
(-1.21787 0.642666 0)
(-1.3581 0.982442 0)
(-0.24254 0.573559 0)
(-0.309385 0.976154 0)
(-0.636897 0.732589 0)
(-0.527922 0.41226 0)
(-0.47894 0.213002 0)
(-0.359049 0.182138 0)
(-0.334771 0.106427 0)
(-0.433842 0.0313222 0)
(-0.452841 0.154874 0)
(-0.433554 0.245542 0)
(-0.44152 -0.0720389 0)
(-0.339737 -0.276307 0)
(-0.454061 0.0961406 0)
(-0.367208 0.331589 0)
(-0.348257 0.433141 0)
(-0.357801 0.61301 0)
(-0.36261 0.537544 0)
(-0.878809 0.0994017 0)
(-1.19772 0.214797 0)
(-1.063 0.385294 0)
(-1.10391 0.641615 0)
(-1.14494 0.842728 0)
(-1.18583 1.6218 0)
(-0.2154 0.79486 0)
(-0.334545 0.516012 0)
(-0.296211 0.0635159 0)
(-0.250392 -0.0966238 0)
(-0.0848588 -0.0940321 0)
(-0.0687672 -0.127612 0)
(0.122089 0.134683 0)
(-0.0861317 0.293201 0)
(-0.271605 0.357114 0)
(-0.266127 0.426824 0)
(-0.343028 0.270173 0)
(-0.492459 0.140326 0)
(-0.491231 0.163111 0)
(-0.416092 0.267993 0)
(-0.319005 0.339371 0)
(-0.27598 0.480382 0)
(-0.17328 0.612345 0)
(-0.213056 0.644406 0)
(-0.841057 0.464536 0)
(-1.08051 0.510722 0)
(-1.05414 0.649295 0)
(-1.12431 1.15515 0)
(-1.19255 1.86872 0)
(-0.0263897 0.777955 0)
(-0.0409238 0.642167 0)
(0.0602681 0.350296 0)
(-0.0786643 0.129813 0)
(-0.0542769 -0.0952838 0)
(-0.109363 -0.0981142 0)
(-0.170114 0.0195346 0)
(-0.0597257 0.355057 0)
(-0.140719 0.384679 0)
(-0.13847 0.395829 0)
(-0.192426 0.253365 0)
(-0.136739 -0.0512593 0)
(-0.1965 -0.0506854 0)
(-0.213079 0.126898 0)
(-0.141073 0.246315 0)
(-0.102264 0.371582 0)
(-0.05282 0.517326 0)
(0.00241383 0.714727 0)
(-0.0150411 0.874154 0)
(-0.353521 0.78682 0)
(-0.741309 0.955058 0)
(-1.03994 1.56707 0)
(-1.11893 1.82091 0)
(0.0525143 0.7473 0)
(0.125725 0.608254 0)
(0.135452 0.302901 0)
(0.119816 0.0841305 0)
(0.0812608 0.0375852 0)
(0.0139948 0.0782456 0)
(-0.0954255 0.173466 0)
(-0.0133008 0.340148 0)
(-0.0679457 0.428041 0)
(-0.0236878 0.407707 0)
(-0.0276986 0.272551 0)
(0.0270373 0.164751 0)
(-0.141723 0.203932 0)
(-0.162983 0.21023 0)
(-0.139914 0.268176 0)
(-0.108734 0.367358 0)
(-0.0514814 0.500337 0)
(0.0114804 0.671858 0)
(0.0915781 0.863828 0)
(0.06909 0.989167 0)
(-0.222378 1.20591 0)
(-0.785683 1.64943 0)
(-0.879755 1.74116 0)
(0.0216392 0.663733 0)
(0.124129 0.564447 0)
(0.110955 0.311723 0)
(0.0980383 0.116639 0)
(0.00515792 -0.0365801 0)
(0.00334713 0.00890199 0)
(-0.029884 0.00228071 0)
(0.0139223 0.302543 0)
(-0.000163897 0.426721 0)
(0.0238661 0.38649 0)
(0.024456 0.226635 0)
(0.0074674 0.0862108 0)
(-0.0445023 0.133561 0)
(-0.0577472 0.143524 0)
(-0.085657 0.212702 0)
(-0.0890977 0.313068 0)
(-0.0610858 0.443357 0)
(-0.033223 0.603351 0)
(0.0391607 0.835966 0)
(0.0604289 1.07436 0)
(0.0369148 1.52798 0)
(-0.262641 1.90603 0)
(-0.485429 1.78446 0)
(-0.0237034 0.582141 0)
(0.104823 0.484412 0)
(0.113556 0.314942 0)
(0.145204 0.177801 0)
(0.0808417 0.147286 0)
(0.0296211 0.146712 0)
(-0.0622595 0.170804 0)
(-0.0482715 0.28259 0)
(0.0138171 0.399287 0)
(0.0686451 0.355093 0)
(0.0760061 0.259003 0)
(0.0425132 0.20729 0)
(-0.0256714 0.234969 0)
(-0.0585004 0.246975 0)
(-0.0996197 0.275203 0)
(-0.105279 0.326255 0)
(-0.0924981 0.421731 0)
(-0.0692705 0.567272 0)
(-0.0345129 0.76546 0)
(0.027393 1.05254 0)
(0.131287 1.54321 0)
(0.199888 2.03893 0)
(0.237146 1.95926 0)
(-0.00739607 0.559311 0)
(0.100447 0.433362 0)
(0.109272 0.295326 0)
(0.117683 0.177106 0)
(0.0597581 0.120897 0)
(0.0303362 0.146683 0)
(-0.0177598 0.130762 0)
(-0.0397777 0.241646 0)
(0.00731147 0.322796 0)
(0.0688217 0.323177 0)
(0.0691319 0.272867 0)
(0.0123225 0.228399 0)
(-0.0327808 0.25198 0)
(-0.054648 0.254164 0)
(-0.0812763 0.279274 0)
(-0.0962227 0.325898 0)
(-0.104044 0.419282 0)
(-0.0850976 0.553133 0)
(-0.0638596 0.717314 0)
(-0.0296749 0.947481 0)
(0.101508 1.44654 0)
(0.300015 1.91291 0)
(0.555105 1.82996 0)
(0.0361977 0.488719 0)
(0.0974865 0.384049 0)
(0.112451 0.280316 0)
(0.108669 0.211761 0)
(0.0628987 0.188113 0)
(0.0335211 0.198409 0)
(-0.00596262 0.197267 0)
(-0.0341698 0.238794 0)
(-0.00818299 0.277532 0)
(0.0243812 0.301899 0)
(0.0226054 0.296801 0)
(-0.0110597 0.281377 0)
(-0.0420496 0.278781 0)
(-0.0612902 0.274563 0)
(-0.0833566 0.296087 0)
(-0.0926979 0.339092 0)
(-0.097829 0.411025 0)
(-0.0860331 0.532065 0)
(-0.0510532 0.694738 0)
(-0.0191031 0.88826 0)
(0.102508 1.22034 0)
(0.348902 1.57746 0)
(0.685862 1.47343 0)
(0.0459071 0.411686 0)
(0.0788932 0.34911 0)
(0.103287 0.278396 0)
(0.0852977 0.237666 0)
(0.0561888 0.22357 0)
(0.0333791 0.229063 0)
(0.00769878 0.2287 0)
(-0.0129948 0.247643 0)
(-0.00813527 0.266499 0)
(0.00282806 0.292693 0)
(0.00881714 0.309205 0)
(-0.00410686 0.311 0)
(-0.0195133 0.311613 0)
(-0.0378496 0.30965 0)
(-0.0590729 0.320418 0)
(-0.0696753 0.350094 0)
(-0.0711851 0.406549 0)
(-0.0540738 0.497789 0)
(-0.00370253 0.629003 0)
(0.0716351 0.787826 0)
(0.219525 1.0114 0)
(0.447007 1.20815 0)
(0.787557 1.09642 0)
(0.030817 0.362775 0)
(0.0551014 0.325101 0)
(0.0723058 0.279243 0)
(0.0608947 0.25461 0)
(0.0454005 0.241385 0)
(0.0317569 0.241698 0)
(0.0171616 0.241806 0)
(0.00713984 0.255186 0)
(0.00208848 0.265551 0)
(0.00426928 0.288393 0)
(0.0108974 0.30749 0)
(0.0128005 0.315041 0)
(0.0106969 0.316445 0)
(0.00387993 0.318079 0)
(-0.00731904 0.328487 0)
(-0.0143649 0.351114 0)
(-0.0150022 0.394326 0)
(0.000687676 0.461488 0)
(0.0459666 0.554563 0)
(0.128057 0.661944 0)
(0.277789 0.811175 0)
(0.478031 0.905278 0)
(0.774792 0.799804 0)
(0.0176717 0.330807 0)
(0.0364009 0.306512 0)
(0.0485076 0.278522 0)
(0.0451732 0.263015 0)
(0.0385283 0.252736 0)
(0.0320679 0.25052 0)
(0.0246655 0.250701 0)
(0.0202252 0.259566 0)
(0.0184054 0.267753 0)
(0.0177092 0.284412 0)
(0.0248434 0.300194 0)
(0.033022 0.308304 0)
(0.0386331 0.313273 0)
(0.040651 0.320497 0)
(0.0400305 0.33151 0)
(0.0409539 0.350664 0)
(0.0458851 0.384907 0)
(0.0634564 0.435304 0)
(0.102238 0.501115 0)
(0.171368 0.567454 0)
(0.289147 0.648988 0)
(0.452277 0.678801 0)
(0.661071 0.605059 0)
(0.0102959 0.310423 0)
(0.0247676 0.292208 0)
(0.0354311 0.274568 0)
(0.0364646 0.264195 0)
(0.0349348 0.257078 0)
(0.0319957 0.254651 0)
(0.0281787 0.255287 0)
(0.0263816 0.261343 0)
(0.0262527 0.26847 0)
(0.0286744 0.280521 0)
(0.0363887 0.291315 0)
(0.0454173 0.29962 0)
(0.053849 0.30704 0)
(0.0608367 0.31656 0)
(0.0667793 0.328092 0)
(0.07409 0.346649 0)
(0.0828155 0.37451 0)
(0.105017 0.410263 0)
(0.14434 0.453204 0)
(0.203195 0.494472 0)
(0.289107 0.533614 0)
(0.40505 0.530194 0)
(0.538053 0.477425 0)
(0.00700054 0.296294 0)
(0.018623 0.279927 0)
(0.027447 0.269244 0)
(0.0302014 0.263002 0)
(0.0311564 0.258545 0)
(0.0305539 0.256881 0)
(0.0294214 0.25735 0)
(0.0293593 0.261402 0)
(0.0304506 0.266467 0)
(0.0341728 0.274641 0)
(0.0417671 0.283563 0)
(0.0514632 0.291594 0)
(0.0602921 0.298913 0)
(0.0701798 0.308501 0)
(0.0795324 0.320348 0)
(0.0907808 0.337819 0)
(0.105303 0.356533 0)
(0.131522 0.377904 0)
(0.169705 0.404654 0)
(0.220375 0.430686 0)
(0.287319 0.447632 0)
(0.368071 0.430597 0)
(0.455676 0.38746 0)
(0.00552464 0.285062 0)
(0.0148133 0.270465 0)
(0.0217399 0.264233 0)
(0.0257667 0.260499 0)
(0.0285467 0.257367 0)
(0.0306485 0.256485 0)
(0.031464 0.257373 0)
(0.0332153 0.26027 0)
(0.0356042 0.264262 0)
(0.0395132 0.269498 0)
(0.0456443 0.275421 0)
(0.054503 0.282184 0)
(0.0628913 0.289103 0)
(0.0732011 0.298146 0)
(0.0852271 0.308745 0)
(0.100538 0.322194 0)
(0.120963 0.335783 0)
(0.146237 0.348293 0)
(0.179777 0.363872 0)
(0.222998 0.378254 0)
(0.278007 0.381829 0)
(0.33749 0.360912 0)
(0.399883 0.322046 0)
(0.00449704 0.276158 0)
(0.0121267 0.262646 0)
(0.0189473 0.25869 0)
(0.0238928 0.25604 0)
(0.0277935 0.254741 0)
(0.030957 0.254569 0)
(0.0342174 0.255038 0)
(0.0378332 0.257297 0)
(0.0420337 0.260255 0)
(0.0472781 0.264197 0)
(0.0532341 0.268029 0)
(0.06145 0.273109 0)
(0.0705591 0.279873 0)
(0.0810851 0.286121 0)
(0.0939751 0.293386 0)
(0.109963 0.301567 0)
(0.131885 0.310385 0)
(0.156911 0.31882 0)
(0.18703 0.326376 0)
(0.224426 0.331693 0)
(0.269618 0.328708 0)
(0.316712 0.307291 0)
(0.363404 0.27113 0)
(0.00402923 0.268345 0)
(0.0108334 0.255593 0)
(0.0172152 0.252957 0)
(0.0223837 0.251421 0)
(0.0270583 0.250507 0)
(0.031396 0.250286 0)
(0.03586 0.250814 0)
(0.0407077 0.252614 0)
(0.0463209 0.255138 0)
(0.0528219 0.258257 0)
(0.0600307 0.261352 0)
(0.0679755 0.265332 0)
(0.0781675 0.269867 0)
(0.0899091 0.274514 0)
(0.103663 0.27921 0)
(0.120105 0.283907 0)
(0.138616 0.288822 0)
(0.161139 0.293077 0)
(0.188349 0.295044 0)
(0.221267 0.294733 0)
(0.257016 0.287103 0)
(0.296649 0.266299 0)
(0.332883 0.235121 0)
(0.00352033 0.261454 0)
(0.0097252 0.249171 0)
(0.0156211 0.247291 0)
(0.0210094 0.246254 0)
(0.0260815 0.245599 0)
(0.0310433 0.245463 0)
(0.0359895 0.245816 0)
(0.0413737 0.246828 0)
(0.0475836 0.248398 0)
(0.0546047 0.251122 0)
(0.0623849 0.253628 0)
(0.0706213 0.255443 0)
(0.0807158 0.258101 0)
(0.0926838 0.261167 0)
(0.10675 0.263921 0)
(0.122297 0.266848 0)
(0.140965 0.268796 0)
(0.162631 0.268172 0)
(0.187757 0.266143 0)
(0.21469 0.261498 0)
(0.245615 0.25167 0)
(0.277252 0.230905 0)
(0.306259 0.204531 0)
(0.00341359 0.254777 0)
(0.00951887 0.243075 0)
(0.015223 0.241639 0)
(0.0207114 0.240992 0)
(0.0260069 0.240552 0)
(0.0313307 0.240404 0)
(0.0367809 0.240546 0)
(0.0426135 0.241069 0)
(0.0490206 0.241904 0)
(0.0560661 0.243201 0)
(0.0642961 0.244821 0)
(0.0735685 0.246174 0)
(0.0837182 0.247431 0)
(0.0951711 0.248154 0)
(0.108375 0.248757 0)
(0.123835 0.249668 0)
(0.141283 0.248505 0)
(0.160686 0.246621 0)
(0.181315 0.24221 0)
(0.205378 0.235652 0)
(0.231777 0.222349 0)
(0.257521 0.20347 0)
(0.280396 0.18225 0)
(0.00322197 0.248691 0)
(0.00902234 0.237372 0)
(0.0146643 0.236226 0)
(0.0202057 0.235741 0)
(0.0255914 0.235241 0)
(0.0310562 0.234803 0)
(0.0367666 0.234635 0)
(0.0427903 0.234681 0)
(0.049303 0.23495 0)
(0.0563762 0.235538 0)
(0.0646435 0.236249 0)
(0.0739745 0.236576 0)
(0.0841213 0.23689 0)
(0.095774 0.236551 0)
(0.107618 0.235972 0)
(0.121471 0.233843 0)
(0.137134 0.231332 0)
(0.15493 0.22722 0)
(0.174781 0.220184 0)
(0.196032 0.210543 0)
(0.218018 0.199004 0)
(0.238181 0.182802 0)
(0.258406 0.16115 0)
(0.00307325 0.242477 0)
(0.00871018 0.231475 0)
(0.014267 0.230348 0)
(0.0198959 0.22988 0)
(0.0254894 0.229501 0)
(0.0311635 0.229172 0)
(0.0370271 0.228809 0)
(0.0432047 0.228478 0)
(0.049876 0.228254 0)
(0.0571186 0.228145 0)
(0.0650873 0.227519 0)
(0.0733105 0.226921 0)
(0.082874 0.225746 0)
(0.0934672 0.224675 0)
(0.105696 0.222224 0)
(0.119572 0.219168 0)
(0.134156 0.215085 0)
(0.149968 0.208823 0)
(0.166827 0.20169 0)
(0.183484 0.192019 0)
(0.202341 0.178639 0)
(0.221155 0.162081 0)
(0.238169 0.144232 0)
(0.00294216 0.236886 0)
(0.0083812 0.226129 0)
(0.0137546 0.225008 0)
(0.0192417 0.22447 0)
(0.0246962 0.223914 0)
(0.0303398 0.223351 0)
(0.0361524 0.222658 0)
(0.0422451 0.22194 0)
(0.0487283 0.221171 0)
(0.0558697 0.220312 0)
(0.0637709 0.219521 0)
(0.0726352 0.218039 0)
(0.0820335 0.215894 0)
(0.0921479 0.213335 0)
(0.103098 0.210251 0)
(0.11467 0.206257 0)
(0.127478 0.200653 0)
(0.14148 0.194276 0)
(0.15666 0.185038 0)
(0.172827 0.173756 0)
(0.188867 0.161442 0)
(0.203939 0.146517 0)
(0.219022 0.128576 0)
(0.00286245 0.231105 0)
(0.00822848 0.220599 0)
(0.013546 0.219564 0)
(0.0189796 0.219051 0)
(0.0243865 0.218439 0)
(0.029998 0.217692 0)
(0.0357814 0.216789 0)
(0.0418232 0.215726 0)
(0.0481849 0.214455 0)
(0.0550069 0.212955 0)
(0.0622469 0.2112 0)
(0.0700695 0.209127 0)
(0.078603 0.206635 0)
(0.0879775 0.20334 0)
(0.0980687 0.199127 0)
(0.109426 0.193561 0)
(0.121649 0.187203 0)
(0.134331 0.179379 0)
(0.147538 0.170716 0)
(0.160575 0.16006 0)
(0.174188 0.146749 0)
(0.187935 0.131619 0)
(0.201023 0.115092 0)
(0.00271431 0.225823 0)
(0.00779596 0.215451 0)
(0.0128651 0.214321 0)
(0.0180858 0.213715 0)
(0.0233112 0.212971 0)
(0.0287225 0.212023 0)
(0.0343154 0.210911 0)
(0.0401701 0.209629 0)
(0.0463359 0.20811 0)
(0.0528793 0.206308 0)
(0.0599215 0.204118 0)
(0.0676414 0.201438 0)
(0.0758481 0.198005 0)
(0.0846361 0.193942 0)
(0.0940264 0.189 0)
(0.103886 0.183126 0)
(0.114148 0.176286 0)
(0.125035 0.168093 0)
(0.136557 0.158112 0)
(0.148578 0.146594 0)
(0.16061 0.13395 0)
(0.172216 0.119358 0)
(0.183651 0.103118 0)
(0.00261045 0.220518 0)
(0.00758935 0.210332 0)
(0.0125321 0.20915 0)
(0.0176241 0.208494 0)
(0.0227036 0.207633 0)
(0.0279237 0.206528 0)
(0.0332637 0.205178 0)
(0.0387933 0.203551 0)
(0.0445745 0.201595 0)
(0.0506693 0.19929 0)
(0.0571269 0.196563 0)
(0.064025 0.193408 0)
(0.0713898 0.1896 0)
(0.0793035 0.184974 0)
(0.0877898 0.179524 0)
(0.096768 0.172979 0)
(0.106302 0.165404 0)
(0.116214 0.156906 0)
(0.126249 0.147138 0)
(0.136456 0.135837 0)
(0.1467 0.122846 0)
(0.156921 0.108418 0)
(0.166808 0.0926884 0)
(0.00244194 0.215655 0)
(0.00715972 0.205583 0)
(0.0118637 0.204338 0)
(0.0167112 0.203649 0)
(0.0215411 0.202743 0)
(0.0264965 0.201577 0)
(0.0315532 0.200131 0)
(0.0367777 0.198351 0)
(0.0422212 0.196194 0)
(0.0479245 0.193597 0)
(0.053932 0.190504 0)
(0.0602955 0.186787 0)
(0.067088 0.182419 0)
(0.0742552 0.177359 0)
(0.0818141 0.171497 0)
(0.0897211 0.164626 0)
(0.0979429 0.156781 0)
(0.106474 0.147836 0)
(0.115253 0.137557 0)
(0.124248 0.126015 0)
(0.133157 0.113239 0)
(0.14191 0.0990653 0)
(0.150379 0.083637 0)
(0.00233712 0.210861 0)
(0.00686077 0.200772 0)
(0.0113379 0.199467 0)
(0.0159541 0.198732 0)
(0.0205165 0.197737 0)
(0.0251872 0.196468 0)
(0.0299151 0.194884 0)
(0.0347414 0.192927 0)
(0.0396974 0.190548 0)
(0.0448918 0.187666 0)
(0.050339 0.184282 0)
(0.056066 0.180341 0)
(0.0621346 0.175745 0)
(0.0685412 0.17035 0)
(0.075248 0.164096 0)
(0.0822116 0.156873 0)
(0.0894052 0.148683 0)
(0.096819 0.139498 0)
(0.104407 0.129244 0)
(0.112074 0.117772 0)
(0.119678 0.105043 0)
(0.127155 0.091051 0)
(0.134345 0.0758962 0)
(0.00218142 0.206446 0)
(0.00649363 0.196558 0)
(0.0107131 0.195232 0)
(0.0150606 0.194506 0)
(0.0193166 0.193479 0)
(0.0236749 0.192149 0)
(0.0280785 0.190454 0)
(0.0325894 0.188361 0)
(0.0371952 0.185824 0)
(0.0419122 0.18278 0)
(0.0467715 0.179123 0)
(0.0517618 0.174805 0)
(0.0569709 0.169729 0)
(0.0624668 0.163982 0)
(0.0682473 0.157544 0)
(0.0743124 0.150263 0)
(0.080615 0.141967 0)
(0.087019 0.132622 0)
(0.0934427 0.122177 0)
(0.0999196 0.110675 0)
(0.106356 0.0980652 0)
(0.112637 0.084282 0)
(0.118625 0.0693741 0)
(0.00210694 0.202109 0)
(0.00610255 0.192267 0)
(0.00994409 0.190858 0)
(0.0139645 0.190128 0)
(0.0178797 0.189074 0)
(0.0219116 0.187701 0)
(0.0260224 0.186036 0)
(0.0302293 0.183955 0)
(0.0345018 0.181362 0)
(0.0388167 0.178265 0)
(0.043177 0.174541 0)
(0.0476051 0.170099 0)
(0.0521453 0.164929 0)
(0.0567973 0.158992 0)
(0.0615872 0.15213 0)
(0.0664842 0.144375 0)
(0.0715616 0.135844 0)
(0.0768936 0.126555 0)
(0.0824246 0.11628 0)
(0.0878802 0.104832 0)
(0.0931921 0.0922623 0)
(0.0983541 0.0786404 0)
(0.103224 0.0639918 0)
(0.00205706 0.198192 0)
(0.00571848 0.188653 0)
(0.00905689 0.187315 0)
(0.0126633 0.186584 0)
(0.0161443 0.18547 0)
(0.0197551 0.184017 0)
(0.0234587 0.182154 0)
(0.0272668 0.179909 0)
(0.0311608 0.177232 0)
(0.0351147 0.174085 0)
(0.0390999 0.170363 0)
(0.0431134 0.165961 0)
(0.0471527 0.160808 0)
(0.0511287 0.154797 0)
(0.0551021 0.147949 0)
(0.0591051 0.140224 0)
(0.0632051 0.131505 0)
(0.0673021 0.121671 0)
(0.0713824 0.111047 0)
(0.0756964 0.0997757 0)
(0.0801325 0.0875364 0)
(0.0843003 0.0741478 0)
(0.0881207 0.0597177 0)
(0.00203853 0.194422 0)
(0.00510984 0.185453 0)
(0.00774698 0.184009 0)
(0.0107348 0.183242 0)
(0.0135927 0.182074 0)
(0.0166345 0.180505 0)
(0.019745 0.17851 0)
(0.0230053 0.176151 0)
(0.0264099 0.17344 0)
(0.029953 0.170241 0)
(0.0335614 0.166482 0)
(0.0371469 0.162049 0)
(0.0406789 0.15686 0)
(0.0442515 0.150917 0)
(0.0478366 0.144145 0)
(0.0513895 0.136477 0)
(0.0548674 0.127878 0)
(0.0580953 0.118398 0)
(0.0612765 0.107838 0)
(0.0643613 0.0960725 0)
(0.0672151 0.0835862 0)
(0.070348 0.0705059 0)
(0.0732761 0.0564606 0)
(0.00192683 0.19092 0)
(0.00419486 0.183 0)
(0.00558546 0.181682 0)
(0.00764682 0.180785 0)
(0.00956788 0.179493 0)
(0.011813 0.177812 0)
(0.0141129 0.175694 0)
(0.0166562 0.173133 0)
(0.0194643 0.170114 0)
(0.0225128 0.166708 0)
(0.025818 0.162886 0)
(0.0293079 0.158521 0)
(0.0327931 0.153445 0)
(0.0361741 0.14756 0)
(0.0394037 0.140835 0)
(0.0424033 0.133176 0)
(0.0452077 0.124635 0)
(0.0480736 0.115246 0)
(0.0508468 0.104934 0)
(0.0532699 0.0937849 0)
(0.0554362 0.0815141 0)
(0.0571908 0.068051 0)
(0.0587582 0.0540229 0)
(0.001519 0.188312 0)
(0.00244754 0.181397 0)
(0.00252696 0.180035 0)
(0.00324429 0.178893 0)
(0.00383346 0.177448 0)
(0.0048899 0.175631 0)
(0.00603496 0.173361 0)
(0.00745641 0.170661 0)
(0.00907314 0.167545 0)
(0.0110929 0.163891 0)
(0.0134822 0.159751 0)
(0.0162722 0.155085 0)
(0.0194726 0.149892 0)
(0.0229326 0.144087 0)
(0.0265588 0.137562 0)
(0.0301858 0.130271 0)
(0.0336049 0.122095 0)
(0.0365952 0.112909 0)
(0.0390425 0.102734 0)
(0.0411946 0.0916841 0)
(0.043083 0.0797843 0)
(0.0445004 0.0671397 0)
(0.04507 0.0533562 0)
(0.00103956 0.18681 0)
(0.000579174 0.182067 0)
(-0.00112389 0.181023 0)
(-0.001916 0.179644 0)
(-0.00282825 0.177957 0)
(-0.00321767 0.175827 0)
(-0.00330457 0.173259 0)
(-0.00301254 0.170178 0)
(-0.00228039 0.166549 0)
(-0.00119897 0.162374 0)
(0.00026734 0.157684 0)
(0.00215829 0.152558 0)
(0.00445437 0.146919 0)
(0.00711994 0.140677 0)
(0.0101583 0.133826 0)
(0.013491 0.126363 0)
(0.0169881 0.118228 0)
(0.0205096 0.109419 0)
(0.0238735 0.0998512 0)
(0.0267693 0.0894774 0)
(0.0289418 0.078241 0)
(0.0303324 0.0660099 0)
(0.030924 0.0528563 0)
(0.000490215 0.186434 0)