/*--------------------------------*- C++ -*----------------------------------*\
| =========                 |                                                 |
| \\      /  F ield         | OpenFOAM: The Open Source CFD Toolbox           |
|  \\    /   O peration     | Version:  2.4.0                                 |
|   \\  /    A nd           | Web:      www.OpenFOAM.org                      |
|    \\/     M anipulation  |                                                 |
\*---------------------------------------------------------------------------*/
FoamFile
{
    version     2.0;
    format      ascii;
    class       volVectorField;
    location    "0.8";
    object      U.air;
}
// * * * * * * * * * * * * * * * * * * * * * * * * * * * * * * * * * * * * * //

dimensions      [0 1 -1 0 0 0 0];

internalField   nonuniform List<vector> 
2268
(
(0.00806628 -0.0531682 0)
(0.0211188 -0.054223 0)
(0.0387188 -0.0552387 0)
(0.0349168 -0.0582117 0)
(0.0320535 -0.0564146 0)
(0.0184787 -0.0374735 0)
(-0.021139 -0.00704291 0)
(-0.08216 0.0233436 0)
(-0.153576 0.0336777 0)
(-0.19486 0.0308981 0)
(-0.214173 0.0249184 0)
(-0.229374 0.0101518 0)
(-0.229545 -0.000922964 0)
(-0.211911 -0.00775197 0)
(-0.180938 -0.0119866 0)
(-0.152755 -0.00994982 0)
(-0.132992 -0.0066009 0)
(-0.119822 -0.00566054 0)
(-0.105559 -0.00373642 0)
(-0.0850027 -0.00844326 0)
(-0.0566492 -0.00199759 0)
(-0.0492899 0.00107677 0)
(-0.0363106 -0.0114057 0)
(0.009942 0.0439964 0)
(0.018291 0.0434819 0)
(0.0349201 0.0523922 0)
(0.0392245 0.0617718 0)
(0.0453363 0.066981 0)
(0.0387074 0.0676433 0)
(0.00159166 0.0534432 0)
(-0.066672 0.0399412 0)
(-0.147699 0.0212433 0)
(-0.20251 -0.00050761 0)
(-0.229385 -0.00623094 0)
(-0.23661 -0.00317501 0)
(-0.230714 -0.00704991 0)
(-0.209951 -0.0159116 0)
(-0.179356 -0.0166041 0)
(-0.151691 -0.0130896 0)
(-0.13014 -0.0090253 0)
(-0.115824 -0.00744015 0)
(-0.101006 -0.0112776 0)
(-0.0758993 -0.0157258 0)
(-0.0548188 -0.0150291 0)
(-0.0343891 -0.00909504 0)
(-0.0155325 -0.0313447 0)
(0.0130915 -0.09142 0)
(0.0194961 -0.0915419 0)
(0.031727 -0.0789625 0)
(0.0505149 -0.070033 0)
(0.0361861 -0.0598668 0)
(0.00183508 -0.0234724 0)
(-0.0385076 0.0532666 0)
(-0.0917206 0.108939 0)
(-0.157966 0.0888895 0)
(-0.207613 0.05741 0)
(-0.230679 0.0330924 0)
(-0.2356 0.0095734 0)
(-0.226241 -0.0155679 0)
(-0.208468 -0.032087 0)
(-0.180011 -0.0379172 0)
(-0.155672 -0.0313101 0)
(-0.131761 -0.0225207 0)
(-0.112253 -0.0179916 0)
(-0.0952883 -0.02087 0)
(-0.0696907 -0.0295541 0)
(-0.0560659 -0.0220224 0)
(-0.0240692 -0.0152234 0)
(-0.00660149 -0.03531 0)
(0.012394 -0.0258526 0)
(0.0132664 -0.0238858 0)
(0.0134252 -0.0295276 0)
(0.0267584 -0.0199445 0)
(0.0134946 -0.00690008 0)
(0.00324917 0.0122582 0)
(-0.038611 0.0482182 0)
(-0.116982 0.0901837 0)
(-0.191594 0.0841414 0)
(-0.231524 0.0450869 0)
(-0.240087 0.0152194 0)
(-0.234071 -0.00448693 0)
(-0.225389 -0.02084 0)
(-0.208294 -0.0399042 0)
(-0.179783 -0.0420171 0)
(-0.150612 -0.03678 0)
(-0.121615 -0.0308046 0)
(-0.0980383 -0.0254953 0)
(-0.0834631 -0.0303714 0)
(-0.0765084 -0.0337983 0)
(-0.0755923 -0.0377461 0)
(-0.0357768 -0.0302143 0)
(-0.0115571 -0.0453833 0)
(-0.00634722 -0.152224 0)
(-0.00344383 -0.146268 0)
(-0.00612993 -0.147877 0)
(-0.0115062 -0.145339 0)
(0.00086845 -0.101167 0)
(0.00018532 -0.00822031 0)
(-0.0387763 0.0712701 0)
(-0.192642 0.124937 0)
(-0.246923 0.119866 0)
(-0.290099 0.0675167 0)
(-0.293714 0.0320075 0)
(-0.275073 0.00525439 0)
(-0.247836 -0.0254268 0)
(-0.221814 -0.0516168 0)
(-0.189588 -0.0622233 0)
(-0.150325 -0.0568185 0)
(-0.112553 -0.0466043 0)
(-0.0843566 -0.037012 0)
(-0.0764999 -0.0359006 0)
(-0.0781592 -0.0385294 0)
(-0.08254 -0.045525 0)
(-0.0617579 -0.0492447 0)
(-0.0169903 -0.0592799 0)
(0.00154343 0.0713678 0)
(-0.00826436 0.0860952 0)
(-0.0414614 0.0982415 0)
(-0.0922169 0.124235 0)
(-0.173661 0.114895 0)
(-0.217279 0.0746006 0)
(-0.207883 0.086191 0)
(-0.342741 0.131509 0)
(-0.357949 0.121011 0)
(-0.358259 0.0632051 0)
(-0.346205 0.000833337 0)
(-0.325542 -0.0300203 0)
(-0.298927 -0.0500382 0)
(-0.270822 -0.067342 0)
(-0.229049 -0.0716321 0)
(-0.174774 -0.0662513 0)
(-0.125826 -0.0551325 0)
(-0.0895698 -0.032312 0)
(-0.0777594 -0.0215713 0)
(-0.0771576 -0.0205315 0)
(-0.0800585 -0.0329471 0)
(-0.0742344 -0.0480094 0)
(-0.0306867 -0.0797258 0)
(-0.00641118 -0.0862809 0)
(-0.00938777 -0.0773331 0)
(-0.0113688 -0.068183 0)
(-0.0249036 -0.0406176 0)
(-0.0611538 0.0154175 0)
(-0.123961 0.0883108 0)
(-0.228933 0.17631 0)
(-0.408355 0.138372 0)
(-0.50153 0.102705 0)
(-0.485999 0.0705507 0)
(-0.440546 0.0334831 0)
(-0.383461 -0.00625158 0)
(-0.336735 -0.0479707 0)
(-0.292513 -0.0904759 0)
(-0.241761 -0.125739 0)
(-0.192522 -0.129237 0)
(-0.158014 -0.109951 0)
(-0.125686 -0.0764138 0)
(-0.0896088 -0.0542022 0)
(-0.0709373 -0.0491572 0)
(-0.0621615 -0.0639895 0)
(-0.0812102 -0.0892624 0)
(-0.0499489 -0.129906 0)
(0.00789723 0.0221014 0)
(0.00283034 0.0484821 0)
(-0.0275109 0.0712023 0)
(-0.0659829 0.0912546 0)
(-0.0989863 0.1001 0)
(-0.132029 0.117016 0)
(-0.182319 0.213822 0)
(-0.314209 0.193529 0)
(-0.491353 0.0700656 0)
(-0.513893 -0.00678279 0)
(-0.502438 -0.0635907 0)
(-0.454578 -0.096343 0)
(-0.382512 -0.122645 0)
(-0.292063 -0.164026 0)
(-0.19697 -0.192091 0)
(-0.17451 -0.193351 0)
(-0.1826 -0.181627 0)
(-0.17015 -0.154866 0)
(-0.118392 -0.137388 0)
(-0.0604621 -0.123367 0)
(-0.0430583 -0.11754 0)
(-0.0905372 -0.140706 0)
(-0.110504 -0.24266 0)
(-0.139228 -0.1459 0)
(0.134274 -0.158621 0)
(0.273911 -0.130147 0)
(0.355922 -0.126317 0)
(0.400701 -0.0706531 0)
(0.43269 0.0734232 0)
(0.461074 0.126159 0)
(0.490394 0.104786 0)
(0.519588 0.057337 0)
(0.555509 0.0512831 0)
(0.585443 0.0410995 0)
(0.627191 0.0276006 0)
(0.648652 0.0388309 0)
(0.635707 0.0247046 0)
(0.57217 -0.0627993 0)
(0.421249 -0.0187138 0)
(0.163873 0.0251205 0)
(-0.0524757 -0.0688691 0)
(-0.0132681 -0.123462 0)
(-0.182533 0.125961 0)
(0.296052 -0.0774803 0)
(0.460313 -0.0573132 0)
(0.538568 -0.0028607 0)
(0.595467 0.0567484 0)
(0.588104 0.0110002 0)
(0.517363 -0.0345028 0)
(0.51336 0.133561 0)
(0.544058 0.166254 0)
(0.56324 0.167968 0)
(0.576747 0.179949 0)
(0.604595 0.185058 0)
(0.608952 0.212377 0)
(0.580567 0.281782 0)
(0.521112 0.282367 0)
(0.382238 0.260665 0)
(0.2111 0.244555 0)
(0.0382952 0.173645 0)
(-0.0719133 0.0994406 0)
(0.0887047 -0.135077 0)
(0.409115 -0.546608 0)
(0.516135 -0.423379 0)
(0.674646 -0.177515 0)
(0.788798 -0.0504641 0)
(0.843326 -0.238854 0)
(0.814436 -0.0854073 0)
(0.649788 0.217288 0)
(0.466646 0.208338 0)
(0.349758 0.18132 0)
(0.304117 0.0905118 0)
(0.273745 0.0374711 0)
(0.123711 0.0810655 0)
(0.196938 -0.0630018 0)
(0.163658 0.124746 0)
(0.222155 0.185343 0)
(0.198027 0.202805 0)
(0.0578178 0.125376 0)
(-0.0353177 -0.0738951 0)
(0.376472 -0.406157 0)
(0.3754 -0.531389 0)
(0.442309 -0.340178 0)
(0.600993 -0.132143 0)
(0.667818 -0.077533 0)
(0.707384 -0.0552494 0)
(0.668474 0.203976 0)
(0.596141 0.35073 0)
(0.569709 0.274698 0)
(0.570428 0.266957 0)
(0.511473 0.288218 0)
(0.417429 0.168159 0)
(0.236909 0.0635946 0)
(-0.035387 -0.0163129 0)
(-0.273938 0.0331495 0)
(0.104037 0.135578 0)
(0.155122 0.23033 0)
(0.09661 0.20314 0)
(0.0201027 0.0660041 0)
(0.290846 -0.462267 0)
(0.321474 -0.499709 0)
(0.409565 -0.268918 0)
(0.486157 -0.0369375 0)
(0.559623 0.0160912 0)
(0.603265 0.0646306 0)
(0.592067 0.137596 0)
(0.507048 0.269146 0)
(0.38018 0.298333 0)
(0.280254 0.338623 0)
(0.206453 0.465981 0)
(0.186743 0.448153 0)
(0.159922 0.338806 0)
(-0.140223 0.096298 0)
(-0.349461 -0.0425002 0)
(-0.244168 -0.00758917 0)
(0.0731311 0.217518 0)
(0.0664834 0.223427 0)
(0.0862556 0.0253565 0)
(0.257805 0.13419 0)
(0.312741 0.0337772 0)
(0.312035 0.0641119 0)
(0.338825 -0.0313557 0)
(0.391043 -0.112969 0)
(0.444914 -0.0622175 0)
(0.44561 -0.00990489 0)
(0.408056 0.056423 0)
(0.285354 0.253005 0)
(0.156264 0.292435 0)
(0.0977436 0.338279 0)
(0.036356 0.463701 0)
(0.0629222 0.571798 0)
(-0.137333 0.176133 0)
(-0.311708 -0.0310008 0)
(-0.280977 -0.0473534 0)
(0.0272022 0.106542 0)
(0.0631297 0.206787 0)
(0.12262 0.124875 0)
(0.278825 -0.186464 0)
(0.190896 -0.0117249 0)
(0.13631 0.100524 0)
(0.232392 0.0178708 0)
(0.338485 -0.0894905 0)
(0.424705 -0.00593872 0)
(0.426254 0.0810186 0)
(0.309097 0.208994 0)
(0.153274 0.491261 0)
(0.0616064 0.448018 0)
(0.04887 0.440967 0)
(0.0433478 0.555251 0)
(0.0991778 0.837693 0)
(-0.0739649 0.301368 0)
(-0.267057 -0.000933296 0)
(-0.323195 -0.0349905 0)
(-0.159133 0.0587888 0)
(0.0263807 0.185951 0)
(0.136731 0.0973279 0)
(0.223599 -0.336639 0)
(0.0828417 -0.0906731 0)
(0.0893749 -0.00808432 0)
(0.0813979 -0.0567341 0)
(0.149348 -0.106589 0)
(0.30691 -0.00381301 0)
(0.398445 0.112971 0)
(0.314498 0.224185 0)
(0.135933 0.43176 0)
(0.0486024 0.400295 0)
(0.0235834 0.413581 0)
(0.03987 0.525447 0)
(0.0931355 0.83604 0)
(0.0769659 0.640131 0)
(-0.166702 0.0406893 0)
(-0.291341 -0.114142 0)
(-0.294606 0.0334536 0)
(-0.111939 0.173116 0)
(0.131238 0.0703519 0)
(0.00252728 -0.0723298 0)
(0.0159626 -0.0651801 0)
(0.0411608 -0.0295486 0)
(0.049801 0.0302168 0)
(0.0196487 0.10648 0)
(-0.0295567 0.172884 0)
(-0.0591416 0.26762 0)
(-0.0608409 0.324845 0)
(-0.131606 0.215013 0)
(-0.209841 0.111218 0)
(-0.256515 0.0231971 0)
(-0.270045 -0.0832405 0)
(-0.235077 -0.189525 0)
(-0.162039 -0.275513 0)
(-0.138032 -0.258345 0)
(-0.147177 -0.195031 0)
(-0.154108 -0.148024 0)
(-0.140222 -0.137242 0)
(-0.121166 -0.122598 0)
(-0.113562 -0.082665 0)
(-0.105984 -0.0237402 0)
(-0.121659 -0.0330946 0)
(-0.216239 -0.336335 0)
(0.0210223 -0.0107857 0)
(0.0488755 0.0105027 0)
(0.052875 0.0385788 0)
(0.0218892 0.0783962 0)
(0.00833834 0.131456 0)
(-0.000678117 0.159457 0)
(0.00702568 0.212034 0)
(0.0495174 0.271992 0)
(0.110079 0.23574 0)
(0.126789 0.105766 0)
(0.135415 -0.040355 0)
(0.159814 -0.156646 0)
(0.149394 -0.229111 0)
(0.123417 -0.217393 0)
(0.114012 -0.0776119 0)
(0.109271 0.0276473 0)
(0.12231 0.040425 0)
(0.11807 0.00175977 0)
(0.106321 -0.0301031 0)
(0.074648 -0.0726434 0)
(0.043753 -0.0499771 0)
(0.0395095 -0.0406076 0)
(0.0250972 -0.024419 0)
(0.0264767 -0.0905474 0)
(0.0706549 -0.0540697 0)
(0.115354 0.0425474 0)
(0.107514 0.125392 0)
(0.0698926 0.172211 0)
(0.0182582 0.187084 0)
(0.00248749 0.213478 0)
(0.025985 0.234529 0)
(0.088665 0.215176 0)
(0.15161 0.143845 0)
(0.191327 0.0511646 0)
(0.214792 -0.0363623 0)
(0.200347 -0.0314164 0)
(0.203109 0.0481555 0)
(0.24364 0.238034 0)
(0.218819 0.431485 0)
(0.144931 0.505715 0)
(0.0638515 0.505471 0)
(0.043805 0.470654 0)
(0.0388172 0.362911 0)
(-0.0790566 0.271202 0)
(-0.330256 0.273193 0)
(-0.821949 0.255791 0)
(0.0463165 -0.165986 0)
(0.119605 -0.127136 0)
(0.119448 -0.0362548 0)
(0.0163007 0.0789185 0)
(0.0133271 0.176873 0)
(-0.029957 0.203849 0)
(-0.038666 0.192195 0)
(-0.0230861 0.158101 0)
(0.0272928 0.108472 0)
(0.0747116 0.047711 0)
(0.113455 0.0894832 0)
(0.153046 0.110561 0)
(0.213215 0.22959 0)
(0.23951 0.223794 0)
(0.246578 0.187598 0)
(0.11626 0.184412 0)
(-0.103084 0.298502 0)
(-0.322002 0.393293 0)
(-0.402325 0.412462 0)
(-0.594945 0.473828 0)
(-0.779854 0.436252 0)
(-1.14389 0.816535 0)
(-1.56275 1.06932 0)
(0.0082758 -0.195838 0)
(-0.0699045 -0.00875417 0)
(-0.180354 0.323424 0)
(-0.226927 0.413888 0)
(-0.204827 0.461634 0)
(-0.19825 0.478485 0)
(-0.154939 0.447083 0)
(-0.121833 0.424326 0)
(-0.0692785 0.403819 0)
(0.0825858 0.358138 0)
(0.254594 0.431163 0)
(0.248485 0.28334 0)
(0.101383 0.0844589 0)
(-0.0526794 -0.0210248 0)
(-0.122915 0.159701 0)
(-0.869707 0.725673 0)
(-1.29078 0.542852 0)
(-1.11119 0.362086 0)
(-1.07084 0.194116 0)
(-1.30594 0.529688 0)
(-1.66933 0.915838 0)
(-1.6408 1.16846 0)
(-1.48255 1.15038 0)
(0.0240594 0.198673 0)
(-0.117012 0.47907 0)
(-0.251645 0.532144 0)
(-0.347344 0.513746 0)
(-0.379126 0.514115 0)
(-0.340487 0.531176 0)
(-0.27384 0.517056 0)
(-0.224774 0.458447 0)
(-0.189536 0.308121 0)
(-0.201617 0.133817 0)
(-0.254534 -0.0119217 0)
(-0.239023 0.307254 0)
(-0.514174 0.74327 0)
(-1.21045 0.394133 0)
(-1.3572 0.513952 0)
(-1.37777 0.753093 0)
(-1.48216 0.0904648 0)
(-1.47218 -0.00304421 0)
(-1.35956 -0.0346613 0)
(-1.25641 0.212052 0)
(-1.26491 0.689584 0)
(-1.20271 0.925978 0)
(-1.27332 0.670945 0)
(-0.114516 0.446077 0)
(-0.292424 0.414433 0)
(-0.422444 0.418373 0)
(-0.473803 0.403172 0)
(-0.452026 0.373447 0)
(-0.386658 0.338557 0)
(-0.34154 0.317414 0)
(-0.299391 0.382863 0)
(-0.297582 0.657443 0)
(-0.756883 0.810871 0)
(-1.24517 0.423124 0)
(-1.10823 0.0758582 0)
(-0.785446 0.220202 0)
(-0.789584 0.211103 0)
(-0.752481 0.17256 0)
(-0.773988 0.487834 0)
(-1.0073 0.201953 0)
(-1.27317 0.0545137 0)
(-1.3092 0.367567 0)
(-1.19507 0.670322 0)
(-1.00383 0.826657 0)
(-1.07882 0.813039 0)
(-1.32426 1.06774 0)
(-0.235313 0.692014 0)
(-0.303021 1.01721 0)
(-0.637712 0.742085 0)
(-0.527915 0.415219 0)
(-0.478992 0.214239 0)
(-0.359009 0.18311 0)
(-0.334755 0.106959 0)
(-0.433899 0.0316004 0)
(-0.45287 0.15505 0)
(-0.433557 0.245556 0)
(-0.441521 -0.072039 0)
(-0.339737 -0.276307 0)
(-0.454061 0.0961407 0)
(-0.367208 0.33159 0)
(-0.348257 0.433141 0)
(-0.357794 0.613016 0)
(-0.361329 0.538431 0)
(-0.863889 0.104926 0)
(-1.27566 0.28548 0)
(-1.14747 0.630669 0)
(-1.02091 0.7948 0)
(-1.06132 0.921684 0)
(-1.18227 1.62747 0)
(-0.215173 0.797358 0)
(-0.334515 0.51617 0)
(-0.296209 0.0635201 0)
(-0.250392 -0.0966237 0)
(-0.0848588 -0.0940322 0)
(-0.0687673 -0.127612 0)
(0.122089 0.134684 0)
(-0.0861317 0.293201 0)
(-0.271605 0.357114 0)
(-0.266127 0.426824 0)
(-0.343028 0.270173 0)
(-0.49246 0.140326 0)
(-0.491232 0.163111 0)
(-0.416093 0.267993 0)
(-0.319005 0.339371 0)
(-0.27598 0.480382 0)
(-0.173279 0.612346 0)
(-0.212236 0.644721 0)
(-0.818993 0.477625 0)
(-1.08122 0.601754 0)
(-1.04366 0.742432 0)
(-1.11315 1.20468 0)
(-1.1923 1.86907 0)
(-0.0263893 0.777958 0)
(-0.0409239 0.642168 0)
(0.0602681 0.350296 0)
(-0.0786644 0.129813 0)
(-0.0542769 -0.0952839 0)
(-0.109363 -0.0981143 0)
(-0.170114 0.0195346 0)
(-0.0597257 0.355057 0)
(-0.140719 0.384679 0)
(-0.13847 0.395829 0)
(-0.192426 0.253365 0)
(-0.136739 -0.0512593 0)
(-0.1965 -0.0506855 0)
(-0.213079 0.126898 0)
(-0.141073 0.246316 0)
(-0.102265 0.371582 0)
(-0.05282 0.517326 0)
(0.00243495 0.714731 0)
(-0.0117753 0.875266 0)
(-0.334461 0.796207 0)
(-0.725574 0.977001 0)
(-1.03915 1.57789 0)
(-1.11891 1.82095 0)
(0.0525144 0.7473 0)
(0.125725 0.608255 0)
(0.135452 0.302902 0)
(0.119816 0.0841306 0)
(0.0812609 0.0375852 0)
(0.0139948 0.0782457 0)
(-0.0954255 0.173466 0)
(-0.0133008 0.340148 0)
(-0.0679457 0.428041 0)
(-0.0236878 0.407707 0)
(-0.0276986 0.272551 0)
(0.0270373 0.164751 0)
(-0.141723 0.203932 0)
(-0.162983 0.21023 0)
(-0.139914 0.268176 0)
(-0.108734 0.367358 0)
(-0.0514814 0.500337 0)
(0.0114804 0.671858 0)
(0.0916076 0.863834 0)
(0.0694354 0.989299 0)
(-0.221812 1.20635 0)
(-0.785597 1.64971 0)
(-0.879752 1.74116 0)
(0.0216392 0.663733 0)
(0.124129 0.564448 0)
(0.110955 0.311723 0)
(0.0980384 0.11664 0)
(0.00515793 -0.0365801 0)
(0.00334713 0.008902 0)
(-0.029884 0.00228072 0)
(0.0139223 0.302543 0)
(-0.000163897 0.426721 0)
(0.0238661 0.38649 0)
(0.024456 0.226635 0)
(0.0074674 0.0862108 0)
(-0.0445024 0.133561 0)
(-0.0577472 0.143524 0)
(-0.0856571 0.212702 0)
(-0.0890977 0.313068 0)
(-0.0610858 0.443357 0)
(-0.033223 0.603351 0)
(0.0391608 0.835965 0)
(0.0604291 1.07436 0)
(0.0369156 1.52798 0)
(-0.26264 1.90602 0)
(-0.485428 1.78445 0)
(-0.0237034 0.582142 0)
(0.104823 0.484413 0)
(0.113556 0.314942 0)
(0.145204 0.177801 0)
(0.0808418 0.147286 0)
(0.0296211 0.146713 0)
(-0.0622595 0.170804 0)
(-0.0482715 0.28259 0)
(0.0138171 0.399287 0)
(0.0686451 0.355093 0)
(0.0760062 0.259003 0)
(0.0425132 0.20729 0)
(-0.0256714 0.234969 0)
(-0.0585004 0.246975 0)
(-0.0996197 0.275203 0)
(-0.105279 0.326256 0)
(-0.0924981 0.421731 0)
(-0.0692705 0.567272 0)
(-0.0345128 0.765459 0)
(0.0273931 1.05253 0)
(0.131287 1.54321 0)
(0.199888 2.03893 0)
(0.237145 1.95925 0)
(-0.00739607 0.559311 0)
(0.100447 0.433362 0)
(0.109272 0.295326 0)
(0.117683 0.177106 0)
(0.0597581 0.120898 0)
(0.0303363 0.146684 0)
(-0.0177598 0.130762 0)
(-0.0397777 0.241646 0)
(0.00731147 0.322796 0)
(0.0688217 0.323177 0)
(0.0691319 0.272868 0)
(0.0123226 0.228399 0)
(-0.0327808 0.25198 0)
(-0.054648 0.254164 0)
(-0.0812763 0.279274 0)
(-0.0962227 0.325898 0)
(-0.104044 0.419282 0)
(-0.0850975 0.553133 0)
(-0.0638595 0.717313 0)
(-0.0296748 0.947479 0)
(0.101508 1.44654 0)
(0.300015 1.9129 0)
(0.555104 1.82996 0)
(0.0361977 0.48872 0)
(0.0974866 0.38405 0)
(0.112451 0.280317 0)
(0.108669 0.211761 0)
(0.0628988 0.188113 0)
(0.0335211 0.198409 0)
(-0.00596263 0.197267 0)
(-0.0341698 0.238794 0)
(-0.00818299 0.277532 0)
(0.0243812 0.301899 0)
(0.0226054 0.296801 0)
(-0.0110597 0.281377 0)
(-0.0420496 0.278781 0)
(-0.0612902 0.274563 0)
(-0.0833566 0.296087 0)
(-0.0926979 0.339093 0)
(-0.0978291 0.411025 0)
(-0.0860331 0.532065 0)
(-0.0510532 0.694737 0)
(-0.0191031 0.888259 0)
(0.102508 1.22034 0)
(0.348902 1.57746 0)
(0.68586 1.47343 0)
(0.0459071 0.411686 0)
(0.0788933 0.34911 0)
(0.103287 0.278396 0)
(0.0852978 0.237666 0)
(0.0561889 0.22357 0)
(0.0333792 0.229063 0)
(0.00769878 0.2287 0)
(-0.0129948 0.247643 0)
(-0.00813527 0.266499 0)
(0.00282806 0.292693 0)
(0.00881715 0.309206 0)
(-0.00410686 0.311 0)
(-0.0195133 0.311613 0)
(-0.0378496 0.30965 0)
(-0.059073 0.320418 0)
(-0.0696753 0.350094 0)
(-0.0711852 0.406549 0)
(-0.0540738 0.497789 0)
(-0.00370254 0.629004 0)
(0.0716351 0.787826 0)
(0.219525 1.0114 0)
(0.447006 1.20815 0)
(0.787556 1.09642 0)
(0.030817 0.362775 0)
(0.0551015 0.325102 0)
(0.0723058 0.279243 0)
(0.0608948 0.25461 0)
(0.0454005 0.241385 0)
(0.0317569 0.241698 0)
(0.0171616 0.241806 0)
(0.00713984 0.255186 0)
(0.00208848 0.265551 0)
(0.00426928 0.288393 0)
(0.0108974 0.30749 0)
(0.0128005 0.315042 0)
(0.0106969 0.316445 0)
(0.00387993 0.31808 0)
(-0.00731904 0.328487 0)
(-0.014365 0.351114 0)
(-0.0150022 0.394327 0)
(0.000687677 0.461488 0)
(0.0459666 0.554563 0)
(0.128057 0.661944 0)
(0.277789 0.811175 0)
(0.478031 0.905277 0)
(0.774791 0.799803 0)
(0.0176717 0.330807 0)
(0.0364009 0.306512 0)
(0.0485076 0.278522 0)
(0.0451733 0.263015 0)
(0.0385283 0.252736 0)
(0.0320679 0.25052 0)
(0.0246655 0.250701 0)
(0.0202252 0.259566 0)
(0.0184054 0.267753 0)
(0.0177092 0.284412 0)
(0.0248434 0.300194 0)
(0.033022 0.308304 0)
(0.0386331 0.313273 0)
(0.040651 0.320498 0)
(0.0400305 0.33151 0)
(0.0409539 0.350664 0)
(0.0458851 0.384907 0)
(0.0634564 0.435304 0)
(0.102238 0.501115 0)
(0.171368 0.567454 0)
(0.289147 0.648988 0)
(0.452277 0.678801 0)
(0.661071 0.605059 0)
(0.0102959 0.310423 0)
(0.0247676 0.292209 0)
(0.0354311 0.274568 0)
(0.0364646 0.264195 0)
(0.0349348 0.257078 0)
(0.0319957 0.254651 0)
(0.0281787 0.255287 0)
(0.0263816 0.261343 0)
(0.0262527 0.26847 0)
(0.0286744 0.280521 0)
(0.0363888 0.291315 0)
(0.0454173 0.29962 0)
(0.0538491 0.30704 0)
(0.0608368 0.31656 0)
(0.0667793 0.328092 0)
(0.0740901 0.346649 0)
(0.0828156 0.37451 0)
(0.105017 0.410263 0)
(0.14434 0.453204 0)
(0.203195 0.494472 0)
(0.289108 0.533615 0)
(0.40505 0.530194 0)
(0.538053 0.477425 0)
(0.00700055 0.296294 0)
(0.018623 0.279928 0)
(0.027447 0.269244 0)
(0.0302014 0.263003 0)
(0.0311564 0.258545 0)
(0.0305539 0.256881 0)
(0.0294214 0.25735 0)
(0.0293593 0.261402 0)
(0.0304506 0.266467 0)
(0.0341728 0.274641 0)
(0.0417671 0.283563 0)
(0.0514632 0.291594 0)
(0.0602922 0.298913 0)
(0.0701799 0.308501 0)
(0.0795325 0.320348 0)
(0.0907809 0.337819 0)
(0.105303 0.356533 0)
(0.131522 0.377904 0)
(0.169705 0.404654 0)
(0.220375 0.430686 0)
(0.287319 0.447632 0)
(0.368072 0.430597 0)
(0.455677 0.38746 0)
(0.00552464 0.285062 0)
(0.0148133 0.270465 0)
(0.0217399 0.264233 0)
(0.0257667 0.2605 0)
(0.0285467 0.257367 0)
(0.0306485 0.256485 0)
(0.031464 0.257373 0)
(0.0332153 0.26027 0)
(0.0356042 0.264262 0)
(0.0395132 0.269498 0)
(0.0456443 0.275421 0)
(0.054503 0.282185 0)
(0.0628913 0.289103 0)
(0.0732012 0.298147 0)
(0.0852271 0.308745 0)
(0.100538 0.322194 0)
(0.120963 0.335783 0)
(0.146237 0.348293 0)
(0.179777 0.363872 0)
(0.222998 0.378254 0)
(0.278007 0.381829 0)
(0.33749 0.360913 0)
(0.399883 0.322047 0)
(0.00449705 0.276158 0)
(0.0121267 0.262646 0)
(0.0189473 0.25869 0)
(0.0238928 0.25604 0)
(0.0277936 0.254741 0)
(0.030957 0.254569 0)
(0.0342174 0.255038 0)
(0.0378332 0.257297 0)
(0.0420337 0.260255 0)
(0.0472781 0.264197 0)
(0.0532341 0.268029 0)
(0.06145 0.273109 0)
(0.0705592 0.279873 0)
(0.0810852 0.286121 0)
(0.0939751 0.293387 0)
(0.109964 0.301567 0)
(0.131885 0.310386 0)
(0.156911 0.31882 0)
(0.18703 0.326376 0)
(0.224426 0.331693 0)
(0.269618 0.328708 0)
(0.316712 0.307291 0)
(0.363404 0.271131 0)
(0.00402923 0.268345 0)
(0.0108334 0.255593 0)
(0.0172152 0.252957 0)
(0.0223837 0.251421 0)
(0.0270583 0.250508 0)
(0.031396 0.250286 0)
(0.03586 0.250814 0)
(0.0407077 0.252614 0)
(0.0463209 0.255138 0)
(0.052822 0.258257 0)
(0.0600307 0.261352 0)
(0.0679755 0.265332 0)
(0.0781676 0.269867 0)
(0.0899092 0.274515 0)
(0.103663 0.27921 0)
(0.120105 0.283907 0)
(0.138616 0.288822 0)
(0.161139 0.293077 0)
(0.188349 0.295044 0)
(0.221267 0.294733 0)
(0.257016 0.287104 0)
(0.296649 0.266299 0)
(0.332884 0.235121 0)
(0.00352033 0.261454 0)
(0.00972521 0.249171 0)
(0.0156211 0.247291 0)
(0.0210094 0.246254 0)
(0.0260815 0.245599 0)
(0.0310433 0.245463 0)
(0.0359895 0.245816 0)
(0.0413737 0.246828 0)
(0.0475836 0.248398 0)
(0.0546047 0.251122 0)
(0.0623849 0.253628 0)
(0.0706214 0.255443 0)
(0.0807158 0.258101 0)
(0.0926838 0.261167 0)
(0.10675 0.263921 0)
(0.122297 0.266849 0)
(0.140965 0.268796 0)
(0.162631 0.268173 0)
(0.187757 0.266143 0)
(0.21469 0.261499 0)
(0.245615 0.25167 0)
(0.277253 0.230905 0)
(0.306259 0.204531 0)
(0.00341359 0.254778 0)
(0.00951888 0.243075 0)
(0.0152231 0.241639 0)
(0.0207114 0.240992 0)
(0.0260069 0.240552 0)
(0.0313307 0.240404 0)
(0.0367809 0.240546 0)
(0.0426135 0.241069 0)
(0.0490206 0.241904 0)
(0.0560661 0.243201 0)
(0.0642962 0.244821 0)
(0.0735686 0.246174 0)
(0.0837182 0.247431 0)
(0.0951711 0.248154 0)
(0.108376 0.248757 0)
(0.123835 0.249668 0)
(0.141283 0.248505 0)
(0.160686 0.246621 0)
(0.181316 0.24221 0)
(0.205378 0.235652 0)
(0.231777 0.22235 0)
(0.257521 0.20347 0)
(0.280397 0.18225 0)
(0.00322197 0.248691 0)
(0.00902235 0.237372 0)
(0.0146644 0.236226 0)
(0.0202057 0.235741 0)
(0.0255914 0.235241 0)
(0.0310562 0.234803 0)
(0.0367666 0.234635 0)
(0.0427903 0.234681 0)
(0.049303 0.23495 0)
(0.0563762 0.235538 0)
(0.0646435 0.236249 0)
(0.0739745 0.236576 0)
(0.0841213 0.23689 0)
(0.095774 0.236551 0)
(0.107618 0.235972 0)
(0.121471 0.233843 0)
(0.137134 0.231333 0)
(0.15493 0.227221 0)
(0.174782 0.220185 0)
(0.196032 0.210543 0)
(0.218018 0.199005 0)
(0.238182 0.182802 0)
(0.258407 0.16115 0)
(0.00307325 0.242477 0)
(0.00871019 0.231476 0)
(0.0142671 0.230348 0)
(0.0198959 0.22988 0)
(0.0254894 0.229501 0)
(0.0311635 0.229173 0)
(0.0370271 0.228809 0)
(0.0432047 0.228478 0)
(0.049876 0.228254 0)
(0.0571186 0.228145 0)
(0.0650873 0.227519 0)
(0.0733105 0.226921 0)
(0.0828741 0.225747 0)
(0.0934672 0.224675 0)
(0.105696 0.222224 0)
(0.119572 0.219168 0)
(0.134156 0.215085 0)
(0.149968 0.208823 0)
(0.166827 0.20169 0)
(0.183484 0.192019 0)
(0.202341 0.178639 0)
(0.221156 0.162081 0)
(0.23817 0.144233 0)
(0.00294216 0.236886 0)
(0.0083812 0.22613 0)
(0.0137546 0.225008 0)
(0.0192417 0.22447 0)
(0.0246962 0.223914 0)
(0.0303398 0.223351 0)
(0.0361524 0.222658 0)
(0.0422451 0.22194 0)
(0.0487283 0.221171 0)
(0.0558697 0.220312 0)
(0.0637709 0.219521 0)
(0.0726352 0.218039 0)
(0.0820335 0.215894 0)
(0.092148 0.213335 0)
(0.103098 0.210251 0)
(0.11467 0.206257 0)
(0.127478 0.200653 0)
(0.14148 0.194276 0)
(0.15666 0.185038 0)
(0.172827 0.173756 0)
(0.188867 0.161442 0)
(0.203939 0.146517 0)
(0.219022 0.128577 0)
(0.00286245 0.231106 0)
(0.00822848 0.220599 0)
(0.013546 0.219564 0)
(0.0189796 0.219051 0)
(0.0243865 0.218439 0)
(0.029998 0.217692 0)
(0.0357814 0.216789 0)
(0.0418232 0.215726 0)
(0.0481849 0.214455 0)
(0.0550069 0.212955 0)
(0.0622469 0.2112 0)
(0.0700695 0.209127 0)
(0.078603 0.206635 0)
(0.0879775 0.20334 0)
(0.0980687 0.199127 0)
(0.109426 0.193561 0)
(0.121649 0.187203 0)
(0.134331 0.179379 0)
(0.147539 0.170716 0)
(0.160575 0.16006 0)
(0.174189 0.146749 0)
(0.187935 0.131619 0)
(0.201024 0.115093 0)
(0.00271431 0.225823 0)
(0.00779596 0.215451 0)
(0.0128652 0.214321 0)
(0.0180858 0.213716 0)
(0.0233112 0.212971 0)
(0.0287225 0.212023 0)
(0.0343154 0.210911 0)
(0.0401701 0.209629 0)
(0.0463359 0.20811 0)
(0.0528793 0.206308 0)
(0.0599215 0.204118 0)
(0.0676414 0.201438 0)
(0.0758481 0.198005 0)
(0.0846361 0.193942 0)
(0.0940264 0.189 0)
(0.103886 0.183126 0)
(0.114148 0.176286 0)
(0.125035 0.168093 0)
(0.136557 0.158112 0)
(0.148578 0.146594 0)
(0.16061 0.13395 0)
(0.172216 0.119358 0)
(0.183652 0.103118 0)
(0.00261045 0.220518 0)
(0.00758936 0.210332 0)
(0.0125321 0.20915 0)
(0.0176241 0.208494 0)
(0.0227036 0.207633 0)
(0.0279237 0.206528 0)
(0.0332637 0.205178 0)
(0.0387933 0.203551 0)
(0.0445745 0.201595 0)
(0.0506693 0.19929 0)
(0.0571269 0.196563 0)
(0.064025 0.193408 0)
(0.0713898 0.1896 0)
(0.0793035 0.184974 0)
(0.0877897 0.179524 0)
(0.0967679 0.172979 0)
(0.106302 0.165404 0)
(0.116214 0.156906 0)
(0.126249 0.147138 0)
(0.136456 0.135837 0)
(0.146701 0.122846 0)
(0.156921 0.108418 0)
(0.166809 0.0926886 0)
(0.00244194 0.215655 0)
(0.00715972 0.205583 0)
(0.0118637 0.204338 0)
(0.0167112 0.203649 0)
(0.0215411 0.202743 0)
(0.0264965 0.201577 0)
(0.0315532 0.200131 0)
(0.0367777 0.198351 0)
(0.0422212 0.196194 0)
(0.0479245 0.193597 0)
(0.053932 0.190504 0)
(0.0602955 0.186787 0)
(0.067088 0.182419 0)
(0.0742552 0.177359 0)
(0.0818141 0.171497 0)
(0.089721 0.164626 0)
(0.0979429 0.156781 0)
(0.106474 0.147836 0)
(0.115253 0.137557 0)
(0.124248 0.126015 0)
(0.133157 0.113239 0)
(0.14191 0.0990654 0)
(0.150379 0.0836371 0)
(0.00233712 0.210861 0)
(0.00686077 0.200772 0)
(0.0113379 0.199467 0)
(0.0159541 0.198732 0)
(0.0205165 0.197737 0)
(0.0251872 0.196468 0)
(0.0299151 0.194884 0)
(0.0347414 0.192927 0)
(0.0396974 0.190548 0)
(0.0448918 0.187666 0)
(0.050339 0.184282 0)
(0.056066 0.180341 0)
(0.0621346 0.175745 0)
(0.0685411 0.17035 0)
(0.075248 0.164096 0)
(0.0822115 0.156873 0)
(0.0894051 0.148683 0)
(0.0968189 0.139498 0)
(0.104407 0.129244 0)
(0.112074 0.117772 0)
(0.119678 0.105043 0)
(0.127155 0.091051 0)
(0.134345 0.0758963 0)
(0.00218142 0.206446 0)
(0.00649363 0.196558 0)
(0.0107131 0.195232 0)
(0.0150606 0.194506 0)
(0.0193166 0.193479 0)
(0.0236749 0.192149 0)
(0.0280785 0.190454 0)
(0.0325894 0.188361 0)
(0.0371952 0.185824 0)
(0.0419122 0.18278 0)
(0.0467715 0.179123 0)
(0.0517618 0.174805 0)
(0.0569709 0.169729 0)
(0.0624668 0.163982 0)
(0.0682472 0.157544 0)
(0.0743124 0.150263 0)
(0.0806149 0.141967 0)
(0.087019 0.132622 0)
(0.0934426 0.122177 0)
(0.0999196 0.110675 0)
(0.106356 0.0980652 0)
(0.112637 0.084282 0)
(0.118625 0.0693742 0)
(0.00210695 0.202109 0)
(0.00610255 0.192267 0)
(0.00994409 0.190858 0)
(0.0139645 0.190129 0)
(0.0178797 0.189074 0)
(0.0219116 0.187701 0)
(0.0260224 0.186036 0)
(0.0302293 0.183955 0)
(0.0345018 0.181362 0)
(0.0388167 0.178265 0)
(0.043177 0.174541 0)
(0.0476051 0.170099 0)
(0.0521453 0.164929 0)
(0.0567973 0.158991 0)
(0.0615872 0.15213 0)
(0.0664841 0.144375 0)
(0.0715616 0.135844 0)
(0.0768935 0.126555 0)
(0.0824246 0.11628 0)
(0.0878802 0.104832 0)
(0.0931921 0.0922623 0)
(0.0983541 0.0786404 0)
(0.103224 0.0639919 0)
(0.00205706 0.198193 0)
(0.00571848 0.188653 0)
(0.00905689 0.187315 0)
(0.0126633 0.186584 0)
(0.0161443 0.18547 0)
(0.0197551 0.184017 0)
(0.0234587 0.182154 0)
(0.0272668 0.179909 0)
(0.0311608 0.177232 0)
(0.0351147 0.174085 0)
(0.0390999 0.170363 0)
(0.0431134 0.165961 0)
(0.0471527 0.160808 0)
(0.0511287 0.154797 0)
(0.0551021 0.147949 0)
(0.0591051 0.140224 0)
(0.0632051 0.131505 0)
(0.0673021 0.121671 0)
(0.0713824 0.111047 0)
(0.0756964 0.0997757 0)
(0.0801325 0.0875364 0)
(0.0843003 0.0741478 0)
(0.0881208 0.0597178 0)
(0.00203853 0.194422 0)
(0.00510984 0.185453 0)
(0.00774698 0.184009 0)
(0.0107348 0.183243 0)
(0.0135927 0.182074 0)
(0.0166345 0.180505 0)
(0.019745 0.17851 0)
(0.0230053 0.176151 0)
(0.0264099 0.17344 0)
(0.029953 0.170241 0)
(0.0335614 0.166482 0)
(0.0371469 0.162049 0)
(0.0406789 0.15686 0)
(0.0442515 0.150917 0)
(0.0478366 0.144145 0)
(0.0513895 0.136477 0)
(0.0548674 0.127878 0)
(0.0580953 0.118398 0)
(0.0612765 0.107838 0)
(0.0643614 0.0960725 0)
(0.0672151 0.0835863 0)
(0.070348 0.0705059 0)
(0.0732762 0.0564607 0)
(0.00192683 0.19092 0)
(0.00419486 0.183 0)
(0.00558546 0.181682 0)
(0.00764682 0.180785 0)
(0.00956788 0.179493 0)
(0.011813 0.177812 0)
(0.0141129 0.175694 0)
(0.0166562 0.173133 0)
(0.0194643 0.170114 0)
(0.0225128 0.166708 0)
(0.025818 0.162886 0)
(0.0293079 0.158521 0)
(0.0327931 0.153445 0)
(0.0361741 0.14756 0)
(0.0394037 0.140835 0)
(0.0424034 0.133176 0)
(0.0452077 0.124635 0)
(0.0480736 0.115246 0)
(0.0508468 0.104934 0)
(0.0532699 0.0937849 0)
(0.0554362 0.0815141 0)
(0.0571908 0.068051 0)
(0.0587583 0.0540229 0)
(0.001519 0.188312 0)
(0.00244754 0.181397 0)
(0.00252696 0.180035 0)
(0.00324429 0.178893 0)
(0.00383346 0.177448 0)
(0.0048899 0.175631 0)
(0.00603497 0.173361 0)
(0.00745641 0.170661 0)
(0.00907314 0.167545 0)
(0.0110929 0.163891 0)
(0.0134822 0.159751 0)
(0.0162722 0.155085 0)
(0.0194726 0.149892 0)
(0.0229326 0.144087 0)
(0.0265588 0.137562 0)
(0.0301858 0.130271 0)
(0.0336049 0.122095 0)
(0.0365952 0.112909 0)
(0.0390426 0.102734 0)
(0.0411946 0.0916841 0)
(0.043083 0.0797843 0)
(0.0445004 0.0671397 0)
(0.04507 0.0533562 0)
(0.00103956 0.18681 0)
(0.000579174 0.182067 0)
(-0.00112389 0.181023 0)
(-0.001916 0.179644 0)
(-0.00282825 0.177957 0)
(-0.00321767 0.175827 0)
(-0.00330457 0.173259 0)
(-0.00301254 0.170178 0)
(-0.00228039 0.166549 0)
(-0.00119897 0.162374 0)
(0.00026734 0.157684 0)
(0.00215829 0.152558 0)
(0.00445437 0.146919 0)
(0.00711994 0.140677 0)
(0.0101583 0.133826 0)
(0.013491 0.126363 0)
(0.0169881 0.118228 0)
(0.0205096 0.109419 0)
(0.0238736 0.0998512 0)
(0.0267693 0.0894775 0)
(0.0289418 0.0782411 0)
(0.0303324 0.0660099 0)
(0.030924 0.0528564 0)
(0.000490215 0.186434 0)
(-0.000945241 0.183003 0)