/*--------------------------------*- C++ -*----------------------------------*\
| =========                 |                                                 |
| \\      /  F ield         | OpenFOAM: The Open Source CFD Toolbox           |
|  \\    /   O peration     | Version:  2.4.0                                 |
|   \\  /    A nd           | Web:      www.OpenFOAM.org                      |
|    \\/     M anipulation  |                                                 |
\*---------------------------------------------------------------------------*/
FoamFile
{
    version     2.0;
    format      ascii;
    class       volVectorField;
    location    "0.8";
    object      U.mercury;
}
// * * * * * * * * * * * * * * * * * * * * * * * * * * * * * * * * * * * * * //

dimensions      [0 1 -1 0 0 0 0];

internalField   nonuniform List<vector> 
2268
(
(0.00806628 -0.0531685 0)
(0.0211189 -0.0542233 0)
(0.0387189 -0.0552389 0)
(0.0349169 -0.0582119 0)
(0.0320536 -0.0564149 0)
(0.0184789 -0.0374737 0)
(-0.0211389 -0.0070431 0)
(-0.0821599 0.0233435 0)
(-0.153576 0.0336776 0)
(-0.19486 0.030898 0)
(-0.214173 0.0249184 0)
(-0.229374 0.0101518 0)
(-0.229545 -0.000922987 0)
(-0.211911 -0.00775199 0)
(-0.180938 -0.0119867 0)
(-0.152755 -0.00994983 0)
(-0.132992 -0.00660091 0)
(-0.119822 -0.00566055 0)
(-0.105559 -0.00373643 0)
(-0.0850027 -0.00844328 0)
(-0.0566491 -0.00199761 0)
(-0.0492899 0.00107673 0)
(-0.0363106 -0.0114057 0)
(0.00994361 0.0437718 0)
(0.0182951 0.0432664 0)
(0.0349219 0.0523323 0)
(0.039225 0.0617605 0)
(0.0453365 0.066978 0)
(0.0387077 0.0676423 0)
(0.00159192 0.0534428 0)
(-0.0666718 0.0399409 0)
(-0.147699 0.0212431 0)
(-0.20251 -0.000507782 0)
(-0.229385 -0.00623106 0)
(-0.23661 -0.0031751 0)
(-0.230714 -0.00704998 0)
(-0.20995 -0.0159117 0)
(-0.179356 -0.0166041 0)
(-0.151691 -0.0130896 0)
(-0.13014 -0.00902534 0)
(-0.115824 -0.00744019 0)
(-0.101006 -0.0112776 0)
(-0.0758992 -0.0157259 0)
(-0.0548187 -0.0150292 0)
(-0.034389 -0.00909514 0)
(-0.0155325 -0.0313449 0)
(0.0131502 -0.110123 0)
(0.0196947 -0.109433 0)
(0.0320999 -0.0947162 0)
(0.0511301 -0.0814465 0)
(0.0369991 -0.0658083 0)
(0.00221481 -0.0250234 0)
(-0.0385019 0.0532433 0)
(-0.0917202 0.108938 0)
(-0.157966 0.0888889 0)
(-0.207613 0.0574096 0)
(-0.230679 0.0330922 0)
(-0.2356 0.00957324 0)
(-0.226241 -0.015568 0)
(-0.208468 -0.0320871 0)
(-0.180011 -0.0379173 0)
(-0.155672 -0.0313102 0)
(-0.131761 -0.0225208 0)
(-0.112253 -0.0179917 0)
(-0.0952883 -0.0208701 0)
(-0.0696907 -0.0295542 0)
(-0.0560659 -0.0220225 0)
(-0.0240692 -0.0152235 0)
(-0.00660148 -0.0353102 0)
(0.0139226 -0.262111 0)
(0.0180135 -0.255182 0)
(0.025446 -0.24989 0)
(0.0453411 -0.220078 0)
(0.0335729 -0.162227 0)
(0.0146834 -0.0757574 0)
(-0.0257315 0.00812446 0)
(-0.113124 0.0815245 0)
(-0.19131 0.0834895 0)
(-0.231523 0.0450811 0)
(-0.240087 0.0152189 0)
(-0.234071 -0.00448716 0)
(-0.225389 -0.0208401 0)
(-0.208294 -0.0399043 0)
(-0.179783 -0.0420171 0)
(-0.150612 -0.03678 0)
(-0.121615 -0.0308046 0)
(-0.0980383 -0.0254954 0)
(-0.0834631 -0.0303715 0)
(-0.0765084 -0.0337984 0)
(-0.0755923 -0.0377462 0)
(-0.0357768 -0.0302144 0)
(-0.0115571 -0.0453836 0)
(-0.002474 -0.169465 0)
(-0.00256777 -0.163768 0)
(-0.00553249 -0.164747 0)
(-0.0104003 -0.162768 0)
(0.0298643 -0.242076 0)
(0.0284324 -0.227502 0)
(-0.00655451 -0.115781 0)
(-0.167293 0.0731278 0)
(-0.243294 0.112451 0)
(-0.289865 0.0666503 0)
(-0.293712 0.0319935 0)
(-0.275073 0.0052534 0)
(-0.247836 -0.0254271 0)
(-0.221814 -0.051617 0)
(-0.189588 -0.0622234 0)
(-0.150325 -0.0568186 0)
(-0.112553 -0.0466044 0)
(-0.0843566 -0.037012 0)
(-0.0764999 -0.0359007 0)
(-0.0781592 -0.0385296 0)
(-0.08254 -0.0455257 0)
(-0.0617579 -0.0492462 0)
(-0.0169903 -0.0592818 0)
(0.00168052 0.0489102 0)
(-0.00668549 0.0644869 0)
(-0.0379628 0.0771502 0)
(-0.0874089 0.103115 0)
(-0.167136 0.0935973 0)
(-0.213501 0.00402336 0)
(-0.297372 -0.054068 0)
(-0.319986 0.0360929 0)
(-0.348099 0.0968895 0)
(-0.357191 0.0592963 0)
(-0.346135 0.000183065 0)
(-0.32554 -0.0300407 0)
(-0.298927 -0.0500413 0)
(-0.270825 -0.0674028 0)
(-0.229083 -0.0724605 0)
(-0.174803 -0.0674587 0)
(-0.125829 -0.0561984 0)
(-0.0895655 -0.0326196 0)
(-0.077758 -0.0216552 0)
(-0.0771567 -0.0206019 0)
(-0.0800558 -0.033132 0)
(-0.0742242 -0.0486958 0)
(-0.0306664 -0.0812819 0)
(-0.00603595 -0.104603 0)
(-0.00930022 -0.0948446 0)
(-0.0119756 -0.0841373 0)
(-0.0251568 -0.0576511 0)
(-0.0610178 -0.00172479 0)
(-0.177602 0.0511542 0)
(-0.452536 -0.0316627 0)
(-0.466943 0.00895672 0)
(-0.488247 0.0578795 0)
(-0.483472 0.0611945 0)
(-0.440411 0.0316546 0)
(-0.383458 -0.00693205 0)
(-0.336808 -0.0501395 0)
(-0.293158 -0.0975437 0)
(-0.242807 -0.139012 0)
(-0.193211 -0.14524 0)
(-0.158194 -0.125494 0)
(-0.125492 -0.0884285 0)
(-0.0893448 -0.0639131 0)
(-0.0707109 -0.0578461 0)
(-0.0619061 -0.0737348 0)
(-0.0806275 -0.102162 0)
(-0.0491853 -0.148699 0)
(0.00802154 0.00416555 0)
(0.00434589 0.0311476 0)
(-0.02452 0.0542792 0)
(-0.0623159 0.072415 0)
(-0.0952474 0.0803284 0)
(-0.142555 0.0902032 0)
(-0.417416 -0.0370103 0)
(-0.461764 -0.0502726 0)
(-0.493168 -0.0244256 0)
(-0.511211 -0.0350232 0)
(-0.501629 -0.0749187 0)
(-0.454353 -0.108213 0)
(-0.38338 -0.144229 0)
(-0.296361 -0.205171 0)
(-0.203354 -0.254973 0)
(-0.180086 -0.267673 0)
(-0.186005 -0.257805 0)
(-0.170507 -0.22474 0)
(-0.116439 -0.202728 0)
(-0.0561949 -0.18617 0)
(-0.0371965 -0.180714 0)
(-0.0807784 -0.210621 0)
(-0.0999882 -0.329376 0)
(-0.139559 -0.171668 0)
(0.129041 -0.212881 0)
(0.263955 -0.21068 0)
(0.349609 -0.217862 0)
(0.399492 -0.222869 0)
(0.432729 -0.216933 0)
(0.4614 -0.206192 0)
(0.490709 -0.193426 0)
(0.51978 -0.189082 0)
(0.555686 -0.189519 0)
(0.585734 -0.189414 0)
(0.627643 -0.191075 0)
(0.649212 -0.179787 0)
(0.636314 -0.167509 0)
(0.584342 -0.132586 0)
(0.457095 -0.0942658 0)
(0.188416 -0.0574641 0)
(-0.0531572 -0.11528 0)
(-0.0140729 -0.16319 0)
(-0.186117 0.0946155 0)
(0.275035 -0.177383 0)
(0.425305 -0.191706 0)
(0.506798 -0.124611 0)
(0.551251 -0.0746403 0)
(0.569266 -0.0529544 0)
(0.578336 -0.0362674 0)
(0.590815 -0.0208831 0)
(0.604591 -0.00899707 0)
(0.614095 -0.00810867 0)
(0.62417 -0.0170386 0)
(0.650759 -0.0139658 0)
(0.657873 0.00202802 0)
(0.651189 0.043547 0)
(0.597367 0.13265 0)
(0.438573 0.177724 0)
(0.236749 0.162638 0)
(0.0390749 0.12872 0)
(-0.0717666 0.059153 0)
(0.0671512 -0.199652 0)
(0.339846 -0.73953 0)
(0.396673 -0.92577 0)
(0.473924 -0.902006 0)
(0.566104 -0.814287 0)
(0.702174 -0.592526 0)
(0.820453 -0.554407 0)
(0.858577 -0.591278 0)
(0.829709 -0.574724 0)
(0.776801 -0.551198 0)
(0.723319 -0.553434 0)
(0.686276 -0.573465 0)
(0.563069 -0.58519 0)
(0.458923 -0.207322 0)
(0.382221 -0.0394213 0)
(0.362377 0.135638 0)
(0.224261 0.168478 0)
(0.0605215 0.0970189 0)
(-0.0359037 -0.113554 0)
(0.366993 -0.805116 0)
(0.309164 -0.984915 0)
(0.265831 -1.0158 0)
(0.312597 -0.823363 0)
(0.561052 -0.284637 0)
(0.646982 -0.189227 0)
(0.671395 -0.155355 0)
(0.672131 -0.139448 0)
(0.653864 -0.123909 0)
(0.622046 -0.107181 0)
(0.574552 -0.101976 0)
(0.50483 -0.0817235 0)
(0.0665805 -0.157199 0)
(-0.172965 -0.237094 0)
(-0.18495 -0.107604 0)
(0.157334 0.0874402 0)
(0.172932 0.194073 0)
(0.0969029 0.163782 0)
(0.018285 0.0177695 0)
(0.228871 -1.01181 0)
(0.21623 -1.04145 0)
(0.223228 -1.02309 0)
(0.348724 -0.505626 0)
(0.51473 -0.170401 0)
(0.576374 -0.0967317 0)
(0.598603 -0.0416251 0)
(0.576275 -0.00411144 0)
(0.534044 0.000234352 0)
(0.505897 -0.016994 0)
(0.486108 -0.00980479 0)
(0.456598 0.0361846 0)
(-0.0072735 -0.09063 0)
(-0.241069 -0.166379 0)
(-0.288323 -0.126633 0)
(-0.220516 -0.0564998 0)
(0.087025 0.185544 0)
(0.0705662 0.190951 0)
(0.0881395 -0.0213905 0)
(0.199397 -1.02683 0)
(0.199386 -1.07095 0)
(0.145997 -0.909141 0)
(0.252627 -0.338686 0)
(0.33468 -0.267406 0)
(0.434836 -0.205891 0)
(0.468546 -0.154594 0)
(0.472754 -0.116925 0)
(0.448399 -0.0986049 0)
(0.41921 -0.124541 0)
(0.399723 -0.11484 0)
(0.397644 -0.0410136 0)
(-0.00274721 -0.08167 0)
(-0.232973 -0.148846 0)
(-0.269795 -0.130704 0)
(-0.246056 -0.157562 0)
(0.0532941 0.0724405 0)
(0.0647301 0.175532 0)
(0.122934 0.0624418 0)
(0.190665 -1.03794 0)
(0.13541 -1.05426 0)
(-0.0806963 -0.631074 0)
(0.0416302 -0.349136 0)
(0.230647 -0.259087 0)
(0.393097 -0.154581 0)
(0.4494 -0.0664663 0)
(0.426818 -0.00146979 0)
(0.378412 0.0337102 0)
(0.324648 0.00951467 0)
(0.322184 -0.0394215 0)
(0.338 -0.0139708 0)
(0.128806 -0.00404104 0)
(-0.212408 -0.152225 0)
(-0.256273 -0.144285 0)
(-0.269441 -0.207778 0)
(-0.11109 -0.000337911 0)
(0.0262635 0.16137 0)
(0.135283 0.0348661 0)
(0.156978 -1.00371 0)
(0.125811 -0.975307 0)
(-0.201557 -0.522232 0)
(-0.083434 -0.43942 0)
(0.0550054 -0.368109 0)
(0.263424 -0.250905 0)
(0.404026 -0.126523 0)
(0.429204 -0.0589997 0)
(0.378731 0.007928 0)
(0.314537 0.0183421 0)
(0.251887 0.0170493 0)
(0.255183 0.0499663 0)
(0.235793 0.13664 0)
(-0.114884 -0.13207 0)
(-0.222425 -0.161098 0)
(-0.249143 -0.254031 0)
(-0.250537 -0.119697 0)
(-0.110932 0.0276173 0)
(0.129834 -0.0904829 0)
(0.00239274 -0.0785236 0)
(0.0148887 -0.0712215 0)
(0.0394288 -0.0356038 0)
(0.0476406 0.0222869 0)
(0.0174521 0.0958513 0)
(-0.032255 0.160182 0)
(-0.205765 0.10454 0)
(-0.355278 -0.0535516 0)
(-0.315865 -0.0311671 0)
(-0.274846 -0.0321625 0)
(-0.260699 -0.0731823 0)
(-0.266879 -0.16652 0)
(-0.236953 -0.293092 0)
(-0.148455 -0.461479 0)
(-0.125959 -0.515297 0)
(-0.156042 -0.461362 0)
(-0.166908 -0.427144 0)
(-0.135223 -0.429372 0)
(-0.094638 -0.429083 0)
(-0.0681259 -0.407423 0)
(-0.029413 -0.329459 0)
(-0.0426496 -0.339706 0)
(-0.145024 -0.584872 0)
(0.0209859 -0.0143287 0)
(0.0489486 0.00741846 0)
(0.0531912 0.0360848 0)
(0.0223726 0.0755015 0)
(0.00878546 0.127394 0)
(-0.000804071 0.155711 0)
(-0.00893199 0.196586 0)
(-0.0946046 0.0872871 0)
(-0.153898 -0.0802766 0)
(-0.101992 -0.184999 0)
(-0.0373823 -0.288368 0)
(0.0204972 -0.399258 0)
(0.0560008 -0.487146 0)
(0.082416 -0.556078 0)
(0.126559 -0.529244 0)
(0.161452 -0.373567 0)
(0.172047 -0.273147 0)
(0.164348 -0.270256 0)
(0.156395 -0.264398 0)
(0.126167 -0.255781 0)
(0.0840162 -0.238821 0)
(0.0856972 -0.202286 0)
(0.0689839 -0.186752 0)
(0.0264098 -0.0924285 0)
(0.0704283 -0.0560695 0)
(0.115111 0.0398378 0)
(0.107322 0.12327 0)
(0.0697369 0.170594 0)
(0.0181411 0.185608 0)
(0.00228286 0.211495 0)
(0.00785623 0.204496 0)
(-0.0207927 0.0507791 0)
(0.00140985 -0.0881254 0)
(0.0504126 -0.190272 0)
(0.152058 -0.211938 0)
(0.188204 -0.226198 0)
(0.192793 -0.226918 0)
(0.209992 -0.189657 0)
(0.221438 -0.142228 0)
(0.219687 -0.0795881 0)
(0.167581 -0.0271539 0)
(0.117866 0.0390411 0)
(0.0801074 0.0887139 0)
(0.0174326 0.126619 0)
(-0.106617 0.0793279 0)
(-0.464372 -0.0466423 0)
(0.0460214 -0.171275 0)
(0.119252 -0.132856 0)
(0.119502 -0.0385222 0)
(0.0166206 0.0769229 0)
(0.0134449 0.175231 0)
(-0.0299396 0.202352 0)
(-0.0387249 0.190932 0)
(-0.0231545 0.156431 0)
(0.0222139 0.098624 0)
(0.0665913 0.0233938 0)
(0.108824 -0.04847 0)
(0.131865 -0.0916042 0)
(0.146381 -0.152789 0)
(0.146879 -0.235253 0)
(0.144903 -0.30091 0)
(0.125513 -0.34243 0)
(0.111666 -0.35161 0)
(-0.0502201 -0.281438 0)
(-0.176794 -0.169964 0)
(-0.336665 -0.0707047 0)
(-0.503567 0.0731797 0)
(-0.931497 0.39716 0)
(-1.23894 0.428594 0)
(0.00679216 -0.228262 0)
(-0.0682994 -0.0935826 0)
(-0.180637 0.180432 0)
(-0.229691 0.250993 0)
(-0.209588 0.278425 0)
(-0.201093 0.28148 0)
(-0.156296 0.246341 0)
(-0.122526 0.206667 0)
(-0.0704316 0.156586 0)
(0.00120906 0.0946527 0)
(0.0704162 -0.00831973 0)
(0.0961028 -0.124012 0)
(0.0255342 -0.309946 0)
(-0.035817 -0.486906 0)
(-0.0480439 -0.53541 0)
(-0.476436 -0.309736 0)
(-1.06423 -0.0392698 0)
(-1.04686 0.0914066 0)
(-1.02471 0.191068 0)
(-1.13652 0.348709 0)
(-1.33065 0.555988 0)
(-1.40017 0.55194 0)
(-1.43763 0.196831 0)
(-0.0508972 -0.113391 0)
(-0.286695 0.010971 0)
(-0.372688 0.0501273 0)
(-0.393612 0.0524923 0)
(-0.387718 0.0503263 0)
(-0.33605 0.0598122 0)
(-0.283654 0.043034 0)
(-0.256842 -0.000728263 0)
(-0.223968 -0.109203 0)
(-0.222765 -0.251265 0)
(-0.263426 -0.475347 0)
(-0.244341 -0.5038 0)
(-0.400863 0.173988 0)
(-1.18754 0.368329 0)
(-1.0366 0.253776 0)
(-1.32772 0.221148 0)
(-1.22335 -0.0931819 0)
(-1.15281 -0.0819808 0)
(-1.14352 0.0753381 0)
(-1.217 0.377649 0)
(-1.31264 0.533536 0)
(-1.38748 0.463795 0)
(-1.47239 -0.0984645 0)
(-0.179738 -0.105919 0)
(-0.404336 -0.12608 0)
(-0.47982 -0.109124 0)
(-0.486055 -0.132177 0)
(-0.450937 -0.162603 0)
(-0.385326 -0.184158 0)
(-0.349048 -0.214182 0)
(-0.321596 -0.242896 0)
(-0.314024 -0.173206 0)
(-0.521477 0.0599559 0)
(-1.10587 0.270202 0)
(-1.06636 0.0426783 0)
(-0.785302 0.21987 0)
(-0.789562 0.211103 0)
(-0.752658 0.17246 0)
(-0.950349 0.313296 0)
(-1.24114 -0.116301 0)
(-1.12369 -0.0982489 0)
(-1.07404 0.100409 0)
(-1.14081 0.438043 0)
(-1.19213 0.582547 0)
(-1.28624 0.560289 0)
(-1.61212 0.293175 0)
(-0.24548 -0.146419 0)
(-0.430504 0.0769294 0)
(-0.587545 0.159086 0)
(-0.528539 0.105502 0)
(-0.471302 0.0329603 0)
(-0.365256 0.0318607 0)
(-0.337725 0.00930046 0)
(-0.42024 -0.034428 0)
(-0.443772 0.0993383 0)
(-0.432664 0.241043 0)
(-0.441498 -0.0720495 0)
(-0.339712 -0.276317 0)
(-0.454032 0.0961348 0)
(-0.367175 0.331589 0)
(-0.348218 0.433147 0)
(-0.361818 0.610077 0)
(-0.625642 0.355408 0)
(-1.13926 0.00402344 0)
(-1.10201 0.129118 0)
(-1.05304 0.347764 0)
(-1.11252 0.615818 0)
(-1.24558 0.734458 0)
(-1.46741 1.18335 0)
(-0.247638 0.424347 0)
(-0.344634 0.463055 0)
(-0.29679 0.062354 0)
(-0.250398 -0.0966497 0)
(-0.0848435 -0.0940385 0)
(-0.0687487 -0.12762 0)
(0.12211 0.134674 0)
(-0.086109 0.293188 0)
(-0.271582 0.357099 0)
(-0.266103 0.426808 0)
(-0.343003 0.270158 0)
(-0.492432 0.140313 0)
(-0.4912 0.1631 0)
(-0.416055 0.267985 0)
(-0.318961 0.339365 0)
(-0.275929 0.480379 0)
(-0.173564 0.612127 0)
(-0.428852 0.561253 0)
(-1.13791 0.287971 0)
(-1.08021 0.338187 0)
(-1.06563 0.549495 0)
(-1.19377 0.837702 0)
(-1.26613 1.75976 0)
(-0.0265326 0.777332 0)
(-0.0409217 0.642158 0)
(0.0602757 0.350288 0)
(-0.0786534 0.129806 0)
(-0.0542629 -0.095292 0)
(-0.109346 -0.098124 0)
(-0.170094 0.0195226 0)
(-0.0597041 0.355043 0)
(-0.140696 0.384663 0)
(-0.138447 0.395812 0)
(-0.1924 0.253348 0)
(-0.13671 -0.0512761 0)
(-0.196467 -0.0507021 0)
(-0.21304 0.126881 0)
(-0.141028 0.246298 0)
(-0.102213 0.371562 0)
(-0.0527601 0.517301 0)
(-0.00975937 0.712542 0)
(-0.474174 0.717136 0)
(-0.906057 0.5141 0)
(-0.996472 0.599039 0)
(-1.0775 1.04821 0)
(-1.12894 1.80112 0)
(0.0525153 0.747291 0)
(0.125729 0.608247 0)
(0.135459 0.302895 0)
(0.119826 0.0841227 0)
(0.0812735 0.0375759 0)
(0.0140097 0.0782347 0)
(-0.0954085 0.173453 0)
(-0.0132817 0.340132 0)
(-0.067925 0.428023 0)
(-0.0236655 0.407688 0)
(-0.0276737 0.272531 0)
(0.0270657 0.16473 0)
(-0.141691 0.20391 0)
(-0.162946 0.210205 0)
(-0.139871 0.268147 0)
(-0.108686 0.367324 0)
(-0.0514278 0.500294 0)
(0.0115327 0.671797 0)
(0.0755323 0.85968 0)
(-0.0608897 0.93827 0)
(-0.372112 1.08936 0)
(-0.81363 1.55411 0)
(-0.880486 1.74008 0)
(0.0216404 0.663723 0)
(0.124132 0.564438 0)
(0.110961 0.311713 0)
(0.0980468 0.116628 0)
(0.00516874 -0.0365926 0)
(0.00336044 0.00888811 0)
(-0.0298686 0.00226504 0)
(0.0139395 0.302525 0)
(-0.00014498 0.426701 0)
(0.0238869 0.386469 0)
(0.0244792 0.226612 0)
(0.00749373 0.0861859 0)
(-0.0444724 0.133533 0)
(-0.0577133 0.143492 0)
(-0.0856194 0.212665 0)
(-0.0890563 0.313024 0)
(-0.0610412 0.443303 0)
(-0.0331768 0.603279 0)
(0.0391929 0.835865 0)
(0.0603934 1.0742 0)
(0.0366186 1.5276 0)
(-0.262983 1.90549 0)
(-0.485898 1.7841 0)
(-0.0237024 0.58213 0)
(0.104826 0.4844 0)
(0.113561 0.31493 0)
(0.145211 0.177788 0)
(0.0808514 0.147272 0)
(0.0296327 0.146697 0)
(-0.062246 0.170787 0)
(-0.0482563 0.282571 0)
(0.013834 0.399265 0)
(0.0686638 0.35507 0)
(0.0760271 0.258977 0)
(0.0425367 0.207262 0)
(-0.0256452 0.234937 0)
(-0.0584715 0.246939 0)
(-0.0995883 0.275161 0)
(-0.105245 0.326206 0)
(-0.0924628 0.42167 0)
(-0.0692364 0.567196 0)
(-0.0344916 0.76536 0)
(0.0273788 1.0524 0)
(0.131212 1.54303 0)
(0.199718 2.03873 0)
(0.236665 1.95912 0)
(-0.00739524 0.559297 0)
(0.10045 0.433348 0)
(0.109277 0.295312 0)
(0.117689 0.177091 0)
(0.0597664 0.120882 0)
(0.0303463 0.146666 0)
(-0.0177481 0.130743 0)
(-0.0397645 0.241625 0)
(0.00732626 0.322773 0)
(0.0688381 0.323152 0)
(0.0691501 0.27284 0)
(0.0123426 0.228368 0)
(-0.0327589 0.251946 0)
(-0.0546246 0.254125 0)
(-0.0812516 0.279229 0)
(-0.0961971 0.325845 0)
(-0.104017 0.41922 0)
(-0.085073 0.553058 0)
(-0.0638452 0.717223 0)
(-0.0296889 0.947377 0)
(0.101435 1.44642 0)
(0.299875 1.9128 0)
(0.554812 1.82997 0)
(0.0361985 0.488704 0)
(0.0974889 0.384034 0)
(0.112455 0.280301 0)
(0.108674 0.211744 0)
(0.0629059 0.188096 0)
(0.0335298 0.19839 0)
(-0.00595256 0.197247 0)
(-0.0341584 0.238772 0)
(-0.00817036 0.277508 0)
(0.0243951 0.301873 0)
(0.0226206 0.296772 0)
(-0.0110432 0.281345 0)
(-0.0420321 0.278745 0)
(-0.0612721 0.274522 0)
(-0.0833383 0.296041 0)
(-0.0926795 0.33904 0)
(-0.0978108 0.410965 0)
(-0.0860161 0.531996 0)
(-0.0510418 0.694657 0)
(-0.0191057 0.888172 0)
(0.102467 1.22026 0)
(0.348799 1.57741 0)
(0.685692 1.47345 0)
(0.0459078 0.41167 0)
(0.0788953 0.349093 0)
(0.103291 0.278379 0)
(0.0853025 0.237648 0)
(0.0561949 0.223551 0)
(0.0333864 0.229043 0)
(0.0077072 0.228679 0)
(-0.0129853 0.24762 0)
(-0.00812478 0.266474 0)
(0.00283948 0.292666 0)
(0.00882945 0.309176 0)
(-0.00409381 0.310967 0)
(-0.0194998 0.311577 0)
(-0.0378363 0.309609 0)
(-0.0590598 0.320373 0)
(-0.0696628 0.350044 0)
(-0.0711735 0.406493 0)
(-0.0540636 0.497726 0)
(-0.00369597 0.628932 0)
(0.0716327 0.787748 0)
(0.219505 1.01132 0)
(0.446952 1.20809 0)
(0.787466 1.09638 0)
(0.0308176 0.362758 0)
(0.0551032 0.325084 0)
(0.0723086 0.279225 0)
(0.0608986 0.254591 0)
(0.0454055 0.241366 0)
(0.0317629 0.241678 0)
(0.0171685 0.241783 0)
(0.00714754 0.255163 0)
(0.0020969 0.265525 0)
(0.00427832 0.288365 0)
(0.010907 0.30746 0)
(0.0128104 0.315008 0)
(0.0107067 0.316408 0)
(0.00388949 0.31804 0)
(-0.00731034 0.328444 0)
(-0.0143571 0.351066 0)
(-0.0149956 0.394274 0)
(0.000692299 0.46143 0)
(0.0459681 0.554499 0)
(0.128053 0.661874 0)
(0.277776 0.811101 0)
(0.478004 0.905206 0)
(0.774749 0.799735 0)
(0.0176721 0.330789 0)
(0.0364022 0.306493 0)
(0.0485099 0.278503 0)
(0.0451764 0.262995 0)
(0.0385323 0.252716 0)
(0.0320726 0.250499 0)
(0.0246709 0.250678 0)
(0.0202312 0.259542 0)
(0.0184118 0.267727 0)
(0.0177161 0.284384 0)
(0.0248504 0.300164 0)
(0.033029 0.308271 0)
(0.0386398 0.313237 0)
(0.0406569 0.320459 0)
(0.0400358 0.331468 0)
(0.0409576 0.350618 0)
(0.045887 0.384858 0)
(0.0634565 0.435251 0)
(0.102235 0.501057 0)
(0.17136 0.567392 0)
(0.289134 0.648922 0)
(0.452258 0.678733 0)
(0.661046 0.604989 0)
(0.0102963 0.310404 0)
(0.0247687 0.292189 0)
(0.0354329 0.274548 0)
(0.0364671 0.264175 0)
(0.0349379 0.257057 0)
(0.0319993 0.254629 0)
(0.0281828 0.255264 0)
(0.0263861 0.261319 0)
(0.0262574 0.268444 0)
(0.0286792 0.280493 0)
(0.0363935 0.291285 0)
(0.0454218 0.299588 0)
(0.0538528 0.307006 0)
(0.06084 0.316523 0)
(0.0667812 0.328052 0)
(0.0740903 0.346606 0)
(0.0828144 0.374464 0)
(0.105013 0.410214 0)
(0.144334 0.453152 0)
(0.203185 0.494416 0)
(0.289093 0.533557 0)
(0.405031 0.530134 0)
(0.53803 0.477365 0)
(0.00700081 0.296275 0)
(0.0186238 0.279908 0)
(0.0274484 0.269224 0)
(0.0302032 0.262982 0)
(0.0311587 0.258524 0)
(0.0305565 0.25686 0)
(0.0294243 0.257327 0)
(0.0293623 0.261378 0)
(0.0304537 0.266442 0)
(0.0341758 0.274613 0)
(0.0417698 0.283534 0)
(0.0514654 0.291563 0)
(0.0602936 0.29888 0)
(0.0701802 0.308466 0)
(0.0795316 0.32031 0)
(0.0907785 0.337779 0)
(0.105299 0.35649 0)
(0.131516 0.377859 0)
(0.169697 0.404606 0)
(0.220363 0.430636 0)
(0.287304 0.447581 0)
(0.368052 0.430544 0)
(0.455653 0.387407 0)
(0.00552484 0.285042 0)
(0.0148139 0.270445 0)
(0.0217408 0.264214 0)
(0.0257679 0.260479 0)
(0.0285482 0.257346 0)
(0.0306502 0.256464 0)
(0.0314658 0.257351 0)
(0.0332171 0.260246 0)
(0.0356059 0.264237 0)
(0.0395147 0.269472 0)
(0.0456453 0.275393 0)
(0.0545034 0.282155 0)
(0.0628907 0.289071 0)
(0.0731994 0.298113 0)
(0.085224 0.30871 0)
(0.100533 0.322157 0)
(0.120957 0.335744 0)
(0.146229 0.348251 0)
(0.179767 0.363829 0)
(0.222985 0.378209 0)
(0.27799 0.381784 0)
(0.33747 0.360866 0)
(0.399859 0.322 0)
(0.00449716 0.276139 0)
(0.0121271 0.262626 0)
(0.0189478 0.25867 0)
(0.0238936 0.25602 0)
(0.0277944 0.25472 0)
(0.0309579 0.254548 0)
(0.0342183 0.255015 0)
(0.037834 0.257274 0)
(0.0420342 0.26023 0)
(0.0472782 0.264172 0)
(0.0532336 0.268002 0)
(0.0614487 0.273081 0)
(0.0705569 0.279844 0)
(0.0810816 0.28609 0)
(0.0939702 0.293354 0)
(0.109957 0.301533 0)
(0.131877 0.31035 0)
(0.156901 0.318783 0)
(0.187018 0.326338 0)
(0.224412 0.331654 0)
(0.269601 0.328668 0)
(0.316691 0.307251 0)
(0.36338 0.27109 0)
(0.00402929 0.268325 0)
(0.0108336 0.255574 0)
(0.0172155 0.252937 0)
(0.022384 0.251401 0)
(0.0270586 0.250487 0)
(0.0313963 0.250265 0)
(0.0358601 0.250792 0)
(0.0407075 0.252591 0)
(0.0463204 0.255115 0)
(0.0528209 0.258232 0)
(0.060029 0.261327 0)
(0.067973 0.265306 0)
(0.078164 0.26984 0)
(0.0899043 0.274486 0)
(0.103657 0.27918 0)
(0.120097 0.283876 0)
(0.138606 0.288789 0)
(0.161128 0.293043 0)
(0.188336 0.29501 0)
(0.221252 0.294699 0)
(0.256999 0.287069 0)
(0.296629 0.266264 0)
(0.33286 0.235086 0)
(0.00352033 0.261435 0)
(0.0097252 0.249152 0)
(0.0156211 0.247272 0)
(0.0210094 0.246234 0)
(0.0260813 0.245579 0)
(0.031043 0.245442 0)
(0.0359889 0.245795 0)
(0.0413728 0.246807 0)
(0.0475822 0.248376 0)
(0.0546028 0.251099 0)
(0.0623823 0.253604 0)
(0.0706178 0.255418 0)
(0.0807112 0.258075 0)
(0.0926779 0.26114 0)
(0.106742 0.263893 0)
(0.122288 0.26682 0)
(0.140955 0.268767 0)
(0.16262 0.268143 0)
(0.187744 0.266113 0)
(0.214675 0.261468 0)
(0.245597 0.25164 0)
(0.277233 0.230875 0)
(0.306236 0.204501 0)
(0.00341355 0.254759 0)
(0.00951875 0.243056 0)
(0.0152228 0.24162 0)
(0.020711 0.240973 0)
(0.0260063 0.240532 0)
(0.0313299 0.240384 0)
(0.0367797 0.240525 0)
(0.0426119 0.241048 0)
(0.0490185 0.241883 0)
(0.0560634 0.243179 0)
(0.0642927 0.244798 0)
(0.0735642 0.246151 0)
(0.0837128 0.247407 0)
(0.0951645 0.248129 0)
(0.108368 0.248732 0)
(0.123826 0.249642 0)
(0.141273 0.248479 0)
(0.160674 0.246594 0)
(0.181302 0.242184 0)
(0.205363 0.235625 0)
(0.23176 0.222323 0)
(0.257502 0.203444 0)
(0.280375 0.182225 0)
(0.00322188 0.248673 0)
(0.0090221 0.237354 0)
(0.0146639 0.236207 0)
(0.0202051 0.235723 0)
(0.0255905 0.235222 0)
(0.031055 0.234783 0)
(0.036765 0.234616 0)
(0.0427882 0.234661 0)
(0.0493005 0.23493 0)
(0.0563729 0.235517 0)
(0.0646396 0.236227 0)
(0.0739697 0.236554 0)
(0.0841154 0.236867 0)
(0.0957669 0.236528 0)
(0.10761 0.235949 0)
(0.121462 0.23382 0)
(0.137123 0.231309 0)
(0.154918 0.227197 0)
(0.174768 0.220161 0)
(0.196017 0.21052 0)
(0.218002 0.198982 0)
(0.238163 0.18278 0)
(0.258386 0.161129 0)
(0.00307314 0.242459 0)
(0.00870986 0.231458 0)
(0.0142665 0.23033 0)
(0.0198951 0.229862 0)
(0.0254882 0.229483 0)
(0.031162 0.229154 0)
(0.0370252 0.228791 0)
(0.0432023 0.228458 0)
(0.049873 0.228234 0)
(0.057115 0.228126 0)
(0.0650829 0.227499 0)
(0.0733053 0.226901 0)
(0.0828678 0.225726 0)
(0.0934598 0.224654 0)
(0.105687 0.222203 0)
(0.119562 0.219147 0)
(0.134145 0.215064 0)
(0.149956 0.208802 0)
(0.166814 0.20167 0)
(0.18347 0.191999 0)
(0.202325 0.17862 0)
(0.221138 0.162062 0)
(0.23815 0.144215 0)
(0.00294203 0.236869 0)
(0.00838081 0.226112 0)
(0.013754 0.224991 0)
(0.0192408 0.224453 0)
(0.0246949 0.223896 0)
(0.0303381 0.223333 0)
(0.0361502 0.22264 0)
(0.0422424 0.221921 0)
(0.0487251 0.221152 0)
(0.0558658 0.220294 0)
(0.0637663 0.219502 0)
(0.0726297 0.21802 0)
(0.0820271 0.215875 0)
(0.0921405 0.213316 0)
(0.103089 0.210232 0)
(0.11466 0.206238 0)
(0.127467 0.200635 0)
(0.141468 0.194257 0)
(0.156647 0.18502 0)
(0.172813 0.173739 0)
(0.188852 0.161425 0)
(0.203923 0.146501 0)
(0.219004 0.128562 0)
(0.00286231 0.231089 0)
(0.00822805 0.220582 0)
(0.0135453 0.219547 0)
(0.0189786 0.219034 0)
(0.0243851 0.218422 0)
(0.0299962 0.217674 0)
(0.0357791 0.216772 0)
(0.0418205 0.215708 0)
(0.0481815 0.214438 0)
(0.055003 0.212937 0)
(0.0622422 0.211182 0)
(0.070064 0.209109 0)
(0.0785966 0.206617 0)
(0.0879701 0.203323 0)
(0.0980602 0.19911 0)
(0.109417 0.193544 0)
(0.121638 0.187186 0)
(0.13432 0.179362 0)
(0.147526 0.1707 0)
(0.160562 0.160044 0)
(0.174174 0.146735 0)
(0.18792 0.131605 0)
(0.201007 0.11508 0)
(0.00271416 0.225806 0)
(0.0077955 0.215434 0)
(0.0128644 0.214304 0)
(0.0180847 0.213699 0)
(0.0233097 0.212954 0)
(0.0287207 0.212006 0)
(0.0343131 0.210894 0)
(0.0401673 0.209612 0)
(0.0463325 0.208093 0)
(0.0528753 0.206291 0)
(0.0599168 0.204102 0)
(0.0676359 0.201422 0)
(0.0758418 0.197989 0)
(0.0846288 0.193926 0)
(0.0940182 0.188984 0)
(0.103876 0.18311 0)
(0.114138 0.176271 0)
(0.125025 0.168078 0)
(0.136546 0.158098 0)
(0.148566 0.146581 0)
(0.160596 0.133937 0)
(0.172202 0.119347 0)
(0.183636 0.103108 0)
(0.0026103 0.220502 0)
(0.00758888 0.210316 0)
(0.0125313 0.209134 0)
(0.0176229 0.208478 0)
(0.022702 0.207617 0)
(0.0279218 0.206512 0)
(0.0332613 0.205162 0)
(0.0387905 0.203535 0)
(0.0445712 0.201579 0)
(0.0506654 0.199274 0)
(0.0571223 0.196547 0)
(0.0640197 0.193392 0)
(0.0713837 0.189585 0)
(0.0792966 0.184959 0)
(0.087782 0.17951 0)
(0.0967593 0.172964 0)
(0.106293 0.16539 0)
(0.116204 0.156893 0)
(0.126238 0.147126 0)
(0.136445 0.135825 0)
(0.146688 0.122835 0)
(0.156908 0.108408 0)
(0.166794 0.0926802 0)
(0.00244179 0.215639 0)
(0.00715925 0.205568 0)
(0.0118629 0.204323 0)
(0.01671 0.203633 0)
(0.0215396 0.202727 0)
(0.0264946 0.201561 0)
(0.0315509 0.200116 0)
(0.036775 0.198335 0)
(0.0422179 0.196179 0)
(0.0479207 0.193582 0)
(0.0539276 0.190489 0)
(0.0602904 0.186772 0)
(0.0670823 0.182405 0)
(0.0742486 0.177345 0)
(0.0818068 0.171484 0)
(0.0897129 0.164613 0)
(0.0979341 0.156769 0)
(0.106464 0.147824 0)
(0.115243 0.137546 0)
(0.124238 0.126005 0)
(0.133146 0.11323 0)
(0.141898 0.0990575 0)
(0.150366 0.0836304 0)
(0.00233697 0.210846 0)
(0.00686032 0.200757 0)
(0.0113371 0.199452 0)
(0.015953 0.198717 0)
(0.0205151 0.197722 0)
(0.0251854 0.196453 0)
(0.0299129 0.19487 0)
(0.0347388 0.192912 0)
(0.0396943 0.190534 0)
(0.0448882 0.187652 0)
(0.0503349 0.184268 0)
(0.0560613 0.180328 0)
(0.0621292 0.175732 0)
(0.0685351 0.170337 0)
(0.0752412 0.164084 0)
(0.0822041 0.156862 0)
(0.0893971 0.148672 0)
(0.0968103 0.139488 0)
(0.104398 0.129234 0)
(0.112064 0.117763 0)
(0.119668 0.105035 0)
(0.127144 0.0910445 0)
(0.134333 0.075891 0)
(0.00218128 0.206431 0)
(0.0064932 0.196543 0)
(0.0107124 0.195217 0)
(0.0150596 0.194491 0)
(0.0193153 0.193464 0)
(0.0236732 0.192135 0)
(0.0280765 0.190439 0)
(0.0325869 0.188347 0)
(0.0371923 0.185811 0)
(0.0419089 0.182767 0)
(0.0467676 0.179109 0)
(0.0517574 0.174792 0)
(0.056966 0.169717 0)
(0.0624613 0.16397 0)
(0.068241 0.157533 0)
(0.0743056 0.150253 0)
(0.0806076 0.141957 0)
(0.0870111 0.132612 0)
(0.0934343 0.122168 0)
(0.0999107 0.110668 0)
(0.106347 0.0980588 0)
(0.112627 0.0842767 0)
(0.118614 0.06937 0)
(0.00210681 0.202094 0)
(0.00610215 0.192253 0)
(0.00994342 0.190844 0)
(0.0139636 0.190114 0)
(0.0178785 0.18906 0)
(0.02191 0.187687 0)
(0.0260205 0.186022 0)
(0.0302271 0.183941 0)
(0.0344991 0.181349 0)
(0.0388137 0.178252 0)
(0.0431735 0.174528 0)
(0.0476011 0.170087 0)
(0.0521408 0.164917 0)
(0.0567923 0.15898 0)
(0.0615817 0.15212 0)
(0.0664781 0.144365 0)
(0.0715551 0.135835 0)
(0.0768866 0.126547 0)
(0.0824172 0.116273 0)
(0.0878724 0.104825 0)
(0.0931838 0.0922569 0)
(0.0983453 0.0786361 0)
(0.103214 0.0639887 0)
(0.00205695 0.198179 0)
(0.00571812 0.188639 0)
(0.00905629 0.187301 0)
(0.0126625 0.18657 0)
(0.0161432 0.185456 0)
(0.0197537 0.184004 0)
(0.023457 0.182141 0)
(0.0272648 0.179896 0)
(0.0311584 0.177219 0)
(0.0351119 0.174072 0)
(0.0390969 0.170351 0)
(0.0431099 0.16595 0)
(0.0471488 0.160797 0)
(0.0511243 0.154787 0)
(0.0550972 0.147939 0)
(0.0590998 0.140215 0)
(0.0631994 0.131496 0)
(0.067296 0.121664 0)
(0.0713759 0.11104 0)
(0.0756896 0.09977 0)
(0.0801253 0.0875318 0)
(0.0842927 0.0741443 0)
(0.0881127 0.0597155 0)
(0.00203842 0.194408 0)
(0.00510953 0.185439 0)
(0.00774645 0.183996 0)
(0.010734 0.183229 0)
(0.0135917 0.182061 0)
(0.0166333 0.180492 0)
(0.0197435 0.178497 0)
(0.0230036 0.176138 0)
(0.0264079 0.173427 0)
(0.0299507 0.170229 0)
(0.0335588 0.16647 0)
(0.0371439 0.162038 0)
(0.0406755 0.156849 0)
(0.0442477 0.150907 0)
(0.0478324 0.144135 0)
(0.0513849 0.136468 0)
(0.0548625 0.12787 0)
(0.0580901 0.118391 0)
(0.061271 0.107832 0)
(0.0643556 0.0960675 0)
(0.067209 0.0835823 0)
(0.0703416 0.0705032 0)
(0.0732694 0.0564591 0)
(0.00192674 0.190907 0)
(0.0041946 0.182987 0)
(0.00558502 0.181669 0)
(0.0076462 0.180772 0)
(0.00956707 0.17948 0)
(0.011812 0.177799 0)
(0.0141117 0.175682 0)
(0.0166548 0.173121 0)
(0.0194626 0.170102 0)
(0.0225109 0.166696 0)
(0.0258158 0.162875 0)
(0.0293054 0.158511 0)
(0.0327903 0.153434 0)
(0.036171 0.147551 0)
(0.0394002 0.140826 0)
(0.0423995 0.133168 0)
(0.0452036 0.124627 0)
(0.0480693 0.11524 0)
(0.0508423 0.104928 0)
(0.0532652 0.0937804 0)
(0.0554312 0.0815108 0)
(0.0571856 0.0680488 0)
(0.0587528 0.0540219 0)
(0.00151893 0.188299 0)
(0.00244733 0.181384 0)
(0.00252661 0.180022 0)
(0.00324379 0.17888 0)
(0.00383282 0.177435 0)
(0.0048891 0.175619 0)
(0.00603399 0.173348 0)
(0.00745526 0.170649 0)
(0.00907181 0.167534 0)
(0.0110914 0.16388 0)
(0.0134804 0.15974 0)
(0.0162702 0.155075 0)
(0.0194704 0.149882 0)
(0.0229301 0.144078 0)
(0.026556 0.137554 0)
(0.0301827 0.130263 0)
(0.0336016 0.122088 0)
(0.0365918 0.112903 0)
(0.039039 0.102729 0)
(0.0411909 0.0916801 0)
(0.0430792 0.0797814 0)
(0.0444964 0.067138 0)
(0.0450658 0.0533557 0)
(0.0010395 0.186797 0)
(0.000579021 0.182054 0)
(-0.00112414 0.18101 0)
(-0.00191636 0.179631 0)
(-0.00282872 0.177944 0)
(-0.00321826 0.175815 0)
(-0.00330527 0.173247 0)
(-0.00301337 0.170166 0)
(-0.00228135 0.166538 0)
(-0.00120008 0.162363 0)
(0.000266086 0.157673 0)
(0.00215688 0.152548 0)
(0.00445278 0.146909 0)
(0.00711811 0.140668 0)
(0.0101562 0.133817 0)
(0.0134888 0.126356 0)
(0.0169857 0.118222 0)
(0.0205071 0.109414 0)
(0.023871 0.0998466 0)