/*--------------------------------*- C++ -*----------------------------------*\
| =========                 |                                                 |
| \\      /  F ield         | OpenFOAM: The Open Source CFD Toolbox           |
|  \\    /   O peration     | Version:  2.4.0                                 |
|   \\  /    A nd           | Web:      www.OpenFOAM.org                      |
|    \\/     M anipulation  |                                                 |
\*---------------------------------------------------------------------------*/
FoamFile
{
    version     2.0;
    format      ascii;
    class       volVectorField;
    location    "0.8";
    object      U.oil;
}
// * * * * * * * * * * * * * * * * * * * * * * * * * * * * * * * * * * * * * //

dimensions      [0 1 -1 0 0 0 0];

internalField   nonuniform List<vector> 
2268
(
(0.00806628 -0.0531685 0)
(0.0211188 -0.0542233 0)
(0.0387189 -0.0552389 0)
(0.0349169 -0.0582119 0)
(0.0320535 -0.0564149 0)
(0.0184788 -0.0374737 0)
(-0.021139 -0.00704308 0)
(-0.08216 0.0233435 0)
(-0.153576 0.0336776 0)
(-0.19486 0.030898 0)
(-0.214173 0.0249184 0)
(-0.229374 0.0101518 0)
(-0.229545 -0.000922782 0)
(-0.211911 -0.0077515 0)
(-0.180938 -0.0119855 0)
(-0.152755 -0.00994626 0)
(-0.132992 -0.00659153 0)
(-0.119822 -0.00564415 0)
(-0.10556 -0.00369467 0)
(-0.085015 -0.00826026 0)
(-0.0566928 0.000186623 0)
(-0.0494367 0.00790729 0)
(-0.0364267 -0.00146128 0)
(0.0099424 0.0439416 0)
(0.018292 0.0434294 0)
(0.0349205 0.0523783 0)
(0.0392246 0.061769 0)
(0.0453364 0.0669798 0)
(0.0387076 0.0676425 0)
(0.00159179 0.0534428 0)
(-0.0666719 0.0399409 0)
(-0.147699 0.0212431 0)
(-0.20251 -0.000507763 0)
(-0.229385 -0.00623101 0)
(-0.23661 -0.003175 0)
(-0.230714 -0.00704979 0)
(-0.209951 -0.0159113 0)
(-0.179356 -0.0166032 0)
(-0.151691 -0.0130847 0)
(-0.13014 -0.00901185 0)
(-0.115824 -0.00741372 0)
(-0.101007 -0.0112204 0)
(-0.0759084 -0.0155621 0)
(-0.0548585 -0.013467 0)
(-0.0345511 -0.00279294 0)
(-0.0156677 -0.0200394 0)
(0.0130916 -0.0914342 0)
(0.0194966 -0.0915846 0)
(0.0317295 -0.0790681 0)
(0.0505269 -0.0702561 0)
(0.0362301 -0.0601878 0)
(0.00189607 -0.0237213 0)
(-0.0385062 0.0532609 0)
(-0.0917204 0.108938 0)
(-0.157966 0.0888889 0)
(-0.207613 0.0574096 0)
(-0.230679 0.0330922 0)
(-0.2356 0.00957334 0)
(-0.226241 -0.0155678 0)
(-0.208468 -0.0320867 0)
(-0.180011 -0.0379125 0)
(-0.155672 -0.0312881 0)
(-0.131761 -0.0224828 0)
(-0.112253 -0.0179248 0)
(-0.0952897 -0.0207146 0)
(-0.0696953 -0.0291633 0)
(-0.0560879 -0.0207232 0)
(-0.0241992 -0.010274 0)
(-0.00672167 -0.0235866 0)
(0.0122404 -0.00210769 0)
(0.0127767 -2.74449e-05 0)
(0.0121239 -0.00567276 0)
(0.0245521 0.00381761 0)
(0.0107247 0.0145285 0)
(0.00147956 0.0258799 0)
(-0.0390723 0.0496543 0)
(-0.116863 0.0899151 0)
(-0.191523 0.0839778 0)
(-0.231524 0.0450852 0)
(-0.240087 0.015219 0)
(-0.234071 -0.00448711 0)
(-0.225389 -0.0208381 0)
(-0.208294 -0.0398406 0)
(-0.179782 -0.0416139 0)
(-0.15061 -0.0360501 0)
(-0.121614 -0.0300156 0)
(-0.0980391 -0.0248723 0)
(-0.0834708 -0.0295941 0)
(-0.0765316 -0.0324214 0)
(-0.0756536 -0.035098 0)
(-0.0359523 -0.0244412 0)
(-0.0116944 -0.033525 0)
(-0.00634732 -0.152224 0)
(-0.00344385 -0.146268 0)
(-0.00612994 -0.147877 0)
(-0.0115063 -0.145339 0)
(0.000474941 -0.0992546 0)
(-0.00124014 0.00284549 0)
(-0.0424771 0.0927542 0)
(-0.19497 0.129696 0)
(-0.246796 0.119606 0)
(-0.290041 0.0673016 0)
(-0.293714 0.0320045 0)
(-0.275073 0.00528281 0)
(-0.247835 -0.0250724 0)
(-0.221795 -0.0501794 0)
(-0.189539 -0.0592765 0)
(-0.150264 -0.0532776 0)
(-0.112507 -0.0432273 0)
(-0.0843381 -0.0346141 0)
(-0.0765218 -0.0337925 0)
(-0.0782304 -0.0358746 0)
(-0.0826959 -0.0412789 0)
(-0.0621017 -0.0421743 0)
(-0.0172327 -0.048283 0)
(0.00154343 0.0713684 0)
(-0.00826439 0.0860957 0)
(-0.0414615 0.0982419 0)
(-0.0922169 0.124235 0)
(-0.173661 0.114895 0)
(-0.21728 0.0746195 0)
(-0.203607 0.092893 0)
(-0.346161 0.14585 0)
(-0.358033 0.121217 0)
(-0.35818 0.0629163 0)
(-0.346191 0.00075148 0)
(-0.325555 -0.0289947 0)
(-0.298878 -0.0469339 0)
(-0.270596 -0.0618745 0)
(-0.228753 -0.0645777 0)
(-0.174567 -0.0593353 0)
(-0.125767 -0.0490802 0)
(-0.0896237 -0.0277621 0)
(-0.0778509 -0.0176621 0)
(-0.0772756 -0.0167984 0)
(-0.0801711 -0.0286536 0)
(-0.0743183 -0.0397099 0)
(-0.0307164 -0.0575991 0)
(-0.00641119 -0.0862818 0)
(-0.00938778 -0.0773411 0)
(-0.0113688 -0.0681886 0)
(-0.0249036 -0.040616 0)
(-0.0611537 0.015433 0)
(-0.123952 0.0883311 0)
(-0.221236 0.183469 0)
(-0.400948 0.154732 0)
(-0.502291 0.105275 0)
(-0.485944 0.0703337 0)
(-0.44055 0.0341326 0)
(-0.383415 -0.00167731 0)
(-0.336285 -0.0405842 0)
(-0.291819 -0.0844328 0)
(-0.241264 -0.12017 0)
(-0.192358 -0.121558 0)
(-0.157988 -0.0981387 0)
(-0.125677 -0.0570416 0)
(-0.0896084 -0.0303152 0)
(-0.0709133 -0.0250223 0)
(-0.0621608 -0.0463376 0)
(-0.0820288 -0.0610763 0)
(-0.0526809 -0.0476651 0)
(0.00789734 0.0222107 0)
(0.00283134 0.0485113 0)
(-0.0275097 0.0711236 0)
(-0.0659854 0.0912181 0)
(-0.0989913 0.100112 0)
(-0.13203 0.117342 0)
(-0.178478 0.218301 0)
(-0.301034 0.215342 0)
(-0.491064 0.0851712 0)
(-0.513953 -0.00639618 0)
(-0.502601 -0.0627749 0)
(-0.454809 -0.0922414 0)
(-0.382439 -0.116256 0)
(-0.291772 -0.156979 0)
(-0.195995 -0.180225 0)
(-0.172805 -0.176298 0)
(-0.180423 -0.154449 0)
(-0.16929 -0.0932613 0)
(-0.123966 -0.0406789 0)
(-0.0708202 -0.0273664 0)
(-0.0521404 -0.06811 0)
(-0.111915 -0.0235637 0)
(-0.146824 0.00962016 0)
(-0.136839 0.0116462 0)
(0.155372 -0.0136591 0)
(0.308668 -0.0117381 0)
(0.380674 -0.0328017 0)
(0.410027 -0.0424973 0)
(0.43167 -0.0357748 0)
(0.451209 -0.0231641 0)
(0.475955 -0.0100035 0)
(0.50735 -0.00481457 0)
(0.544844 -0.00474532 0)
(0.573951 -0.00377246 0)
(0.611617 -0.00373511 0)
(0.621503 0.0117318 0)
(0.586084 0.0316049 0)
(0.493829 0.0611256 0)
(0.344187 0.0925017 0)
(0.127884 0.131932 0)
(-0.0502949 0.0783623 0)
(-0.00947356 0.0249618 0)
(-0.174736 0.276198 0)
(0.326188 0.13674 0)
(0.501766 0.191471 0)
(0.558442 0.220637 0)
(0.579515 0.233859 0)
(0.577257 0.226105 0)
(0.56696 0.214267 0)
(0.571796 0.210879 0)
(0.586188 0.212688 0)
(0.596992 0.213468 0)
(0.606109 0.211545 0)
(0.630113 0.219144 0)
(0.633216 0.234508 0)
(0.600904 0.279552 0)
(0.506869 0.357368 0)
(0.32446 0.3749 0)
(0.17334 0.364358 0)
(0.0359601 0.316963 0)
(-0.0722348 0.245803 0)
(0.113491 -0.00917554 0)
(0.521822 -0.216195 0)
(0.62878 -0.00131075 0)
(0.75497 0.0692739 0)
(0.834339 0.0757892 0)
(0.876321 0.062894 0)
(0.872508 0.0839864 0)
(0.825625 0.12994 0)
(0.726739 0.142271 0)
(0.620975 0.136792 0)
(0.510172 0.121704 0)
(0.417597 0.121877 0)
(0.230529 0.179468 0)
(0.0885642 0.0677981 0)
(0.179792 0.159665 0)
(0.217307 0.283115 0)
(0.138151 0.328358 0)
(0.0452628 0.252132 0)
(-0.0333447 0.0548385 0)
(0.401559 0.12338 0)
(0.444452 -0.119971 0)
(0.516328 -0.103077 0)
(0.630527 -0.0944047 0)
(0.693915 -0.0786251 0)
(0.735593 -0.0429326 0)
(0.727184 -0.0243617 0)
(0.698039 -0.0241138 0)
(0.648837 -0.000660387 0)
(0.599379 0.0223768 0)
(0.511421 0.0351483 0)
(0.410293 0.0467684 0)
(0.219661 0.0280512 0)
(0.0398889 0.072503 0)
(-0.42537 0.173808 0)
(0.0309341 0.254213 0)
(0.0972101 0.376863 0)
(0.0911173 0.359618 0)
(0.0257561 0.202201 0)
(0.333086 -0.396986 0)
(0.382642 -0.316131 0)
(0.463617 -0.162131 0)
(0.509563 -0.0328193 0)
(0.578567 0.0395781 0)
(0.628225 0.0960673 0)
(0.621407 0.141676 0)
(0.565317 0.172253 0)
(0.490827 0.183827 0)
(0.449283 0.191507 0)
(0.407831 0.202035 0)
(0.347356 0.246008 0)
(0.185921 0.287002 0)
(-0.0947896 0.28795 0)
(-0.499823 0.128469 0)
(-0.332001 0.0902072 0)
(0.0246433 0.344182 0)
(0.0525259 0.363597 0)
(0.0796854 0.140185 0)
(0.192392 -0.463347 0)
(0.173066 -0.304883 0)
(0.245259 -0.170692 0)
(0.33131 -0.136735 0)
(0.402379 -0.106147 0)
(0.457732 -0.0467426 0)
(0.462176 0.0136174 0)
(0.444095 0.049741 0)
(0.401179 0.0656701 0)
(0.353832 0.0755544 0)
(0.318888 0.1027 0)
(0.298211 0.18647 0)
(0.207254 0.298677 0)
(-0.0757424 0.438015 0)
(-0.402427 0.174826 0)
(-0.342087 0.0135459 0)
(-0.000810107 0.223931 0)
(0.0578015 0.339012 0)
(0.121393 0.242304 0)
(0.101454 -0.628546 0)
(-0.0652428 -0.384386 0)
(-0.0280035 -0.271143 0)
(0.145023 -0.205365 0)
(0.308803 -0.107525 0)
(0.433955 0.00692388 0)
(0.443238 0.102636 0)
(0.388442 0.163328 0)
(0.321956 0.187349 0)
(0.255091 0.160794 0)
(0.230364 0.155228 0)
(0.237963 0.214472 0)
(0.231795 0.366494 0)
(0.0322297 0.520999 0)
(-0.292442 0.210934 0)
(-0.338436 -0.0504321 0)
(-0.152602 0.159038 0)
(0.0257459 0.324319 0)
(0.141083 0.228792 0)
(-0.0726758 -0.582795 0)
(-0.263956 -0.297429 0)
(-0.130325 -0.292065 0)
(0.00757097 -0.293834 0)
(0.130037 -0.222307 0)
(0.314571 -0.108093 0)
(0.417411 0.0226442 0)
(0.392848 0.0988863 0)
(0.313281 0.160357 0)
(0.237566 0.158533 0)
(0.17995 0.166848 0)
(0.186503 0.233782 0)
(0.208946 0.414509 0)
(0.179253 0.677287 0)
(-0.187322 0.261687 0)
(-0.319673 -0.0852904 0)
(-0.288474 0.0396404 0)
(-0.111589 0.181139 0)
(0.139141 0.306978 0)
(0.0025214 -0.0735453 0)
(0.0159486 -0.0613793 0)
(0.0411471 -0.0243794 0)
(0.0498371 0.0339961 0)
(0.0197909 0.108974 0)
(-0.0292123 0.176146 0)
(-0.058423 0.270745 0)
(-0.0483968 0.341682 0)
(-0.113319 0.238894 0)
(-0.201063 0.130036 0)
(-0.255853 0.0379389 0)
(-0.270562 -0.0709513 0)
(-0.235333 -0.173245 0)
(-0.165952 -0.247337 0)
(-0.135938 -0.189209 0)
(-0.133915 -0.0466999 0)
(-0.143093 0.0308427 0)
(-0.15126 0.0559093 0)
(-0.153495 0.0749907 0)
(-0.157326 0.125414 0)
(-0.166035 0.186331 0)
(-0.185733 0.177363 0)
(-0.293592 -0.0811203 0)
(0.0210578 -0.0135315 0)
(0.0488726 0.0196949 0)
(0.048025 0.0950365 0)
(0.0166006 0.108785 0)
(0.0060894 0.148364 0)
(0.000557137 0.193363 0)
(0.0125464 0.23639 0)
(0.0586815 0.285374 0)
(0.120398 0.245815 0)
(0.137536 0.119059 0)
(0.143752 -0.0266258 0)
(0.164187 -0.142903 0)
(0.154336 -0.165786 0)
(0.120676 -0.158516 0)
(0.124705 -0.120048 0)
(0.122388 -0.0761063 0)
(0.127562 -0.0569836 0)
(0.114334 -0.0719884 0)
(0.0938451 -0.0932301 0)
(0.0543512 -0.0945844 0)
(0.019392 -0.0684503 0)
(0.0233157 -0.0552726 0)
(0.0260836 -0.0844238 0)
(0.0289182 -0.0746999 0)
(0.0836475 0.00989961 0)
(0.122284 0.121376 0)
(0.114318 0.203995 0)
(0.0766118 0.253947 0)
(0.0245819 0.267415 0)
(0.0106212 0.290308 0)
(0.0391747 0.302666 0)
(0.107293 0.265151 0)
(0.172833 0.18402 0)
(0.210869 0.0883184 0)
(0.220677 0.000295273 0)
(0.189892 -0.0613075 0)
(0.189166 -0.0886223 0)
(0.2125 -0.0747485 0)
(0.2209 -0.0350908 0)
(0.205385 0.0210689 0)
(0.142707 0.0706 0)
(0.096672 0.13267 0)
(0.0669835 0.178533 0)
(-0.00909668 0.205441 0)
(-0.135448 0.151904 0)
(-0.482691 0.00190474 0)
(0.0453789 -0.113261 0)
(0.127306 -0.0620409 0)
(0.121281 0.033187 0)
(0.00888435 0.143614 0)
(0.00992396 0.243977 0)
(-0.0296795 0.270892 0)
(-0.0354432 0.256196 0)
(-0.0147015 0.218883 0)
(0.0413904 0.16221 0)
(0.0901453 0.0902613 0)
(0.12945 0.0124919 0)
(0.145985 -0.0391858 0)
(0.15414 -0.109531 0)
(0.15229 -0.193362 0)
(0.131301 -0.281759 0)
(0.109536 -0.320904 0)
(0.0669895 -0.29844 0)
(-0.0998395 -0.19912 0)
(-0.198729 -0.0878915 0)
(-0.351171 -0.00259316 0)
(-0.518837 0.127223 0)
(-0.95884 0.479089 0)
(-1.31503 0.635864 0)
(0.0102672 -0.181738 0)
(-0.0542761 -0.0524083 0)
(-0.176922 0.217438 0)
(-0.245067 0.301264 0)
(-0.232594 0.34095 0)
(-0.216002 0.346335 0)
(-0.164199 0.309959 0)
(-0.126957 0.268758 0)
(-0.068352 0.214753 0)
(0.0140806 0.147427 0)
(0.0854522 0.0276425 0)
(0.112465 -0.0893576 0)
(0.0350478 -0.274404 0)
(-0.0405675 -0.464949 0)
(-0.045478 -0.567936 0)
(-0.371545 -0.581411 0)
(-1.07247 -0.0767227 0)
(-1.05638 0.113719 0)
(-1.03141 0.209862 0)
(-1.16489 0.37727 0)
(-1.37158 0.611099 0)
(-1.42781 0.668127 0)
(-1.47025 0.456137 0)
(-0.0534578 -0.0636557 0)
(-0.275497 0.0518308 0)
(-0.372156 0.0829399 0)
(-0.401931 0.079759 0)
(-0.399302 0.0774537 0)
(-0.348741 0.085437 0)
(-0.293756 0.0708788 0)
(-0.265649 0.0262952 0)
(-0.231715 -0.0858309 0)
(-0.227197 -0.227526 0)
(-0.270717 -0.460131 0)
(-0.249749 -0.629097 0)
(-0.22512 -0.742411 0)
(-0.41653 -0.510304 0)
(-0.0614613 -0.536743 0)
(-1.29848 -0.095288 0)
(-1.20776 -0.105894 0)
(-1.16158 -0.0837038 0)
(-1.16252 0.0806857 0)
(-1.23439 0.388301 0)
(-1.32528 0.561853 0)
(-1.37562 0.550648 0)
(-1.46373 0.0498998 0)
(-0.208179 -0.0481482 0)
(-0.425269 -0.0653007 0)
(-0.489227 -0.113417 0)
(-0.495577 -0.152273 0)
(-0.459487 -0.19545 0)
(-0.391471 -0.22389 0)
(-0.359231 -0.254516 0)
(-0.331422 -0.314086 0)
(-0.322458 -0.368165 0)
(-0.367845 -0.43907 0)
(-0.391089 -0.5174 0)
(-0.320321 -0.548655 0)
(-0.69124 -0.0367156 0)
(-0.781083 0.192169 0)
(-1.10696 -0.0224123 0)
(-1.49869 -0.229321 0)
(-1.29629 -0.191162 0)
(-1.11766 -0.105898 0)
(-1.07775 0.103795 0)
(-1.14975 0.461992 0)
(-1.18612 0.603355 0)
(-1.26761 0.583016 0)
(-1.67548 0.182467 0)
(-0.304829 -0.181958 0)
(-0.507571 -0.224308 0)
(-0.547002 -0.317706 0)
(-0.530373 -0.36187 0)
(-0.452862 -0.420783 0)
(-0.383982 -0.3997 0)
(-0.351515 -0.39699 0)
(-0.325406 -0.500171 0)
(-0.337921 -0.551424 0)
(-0.348021 -0.19747 0)
(-0.442487 -0.0536368 0)
(-0.339313 -0.278347 0)
(-0.453205 0.0920992 0)
(-0.366953 0.327569 0)
(-0.35274 0.42454 0)
(-1.09468 0.078469 0)
(-1.41562 -0.191273 0)
(-1.22973 -0.0306337 0)
(-1.09391 0.120759 0)
(-1.0522 0.354415 0)
(-1.11287 0.626667 0)
(-1.26115 0.73481 0)
(-1.76116 0.702784 0)
(-0.323512 -0.328743 0)
(-0.481801 -0.228692 0)
(-0.434192 -0.208698 0)
(-0.315374 -0.175833 0)
(-0.106677 -0.117957 0)
(-0.0777872 -0.137348 0)
(0.103569 0.109266 0)
(-0.0900635 0.27612 0)
(-0.272102 0.345329 0)
(-0.266137 0.4246 0)
(-0.343003 0.269052 0)
(-0.49175 0.13916 0)
(-0.489865 0.158311 0)
(-0.416847 0.261979 0)
(-0.31933 0.335435 0)
(-0.277931 0.463022 0)
(-0.558982 0.373602 0)
(-1.34605 0.209592 0)
(-1.22305 0.237904 0)
(-1.079 0.322946 0)
(-1.06606 0.543349 0)
(-1.20804 0.784499 0)
(-1.79953 0.975696 0)
(-0.118991 0.379396 0)
(-0.0575093 0.600806 0)
(0.0573639 0.337524 0)
(-0.0779475 0.125852 0)
(-0.0540223 -0.0966402 0)
(-0.109246 -0.0984594 0)
(-0.169989 0.0188223 0)
(-0.059583 0.354429 0)
(-0.140587 0.383936 0)
(-0.138503 0.395369 0)
(-0.192397 0.253064 0)
(-0.136591 -0.0519128 0)
(-0.195479 -0.0553162 0)
(-0.213486 0.117681 0)
(-0.142971 0.234396 0)
(-0.104803 0.355846 0)
(-0.0596409 0.498878 0)
(-1.07472 0.526783 0)
(-1.29738 0.437175 0)
(-1.15908 0.389983 0)
(-1.07667 0.487273 0)
(-1.10415 0.681069 0)
(-1.53426 1.0175 0)
(0.0492567 0.731376 0)
(0.124148 0.603342 0)
(0.136581 0.302974 0)
(0.120839 0.0841147 0)
(0.0816981 0.0375511 0)
(0.0140013 0.0781996 0)
(-0.0955403 0.173307 0)
(-0.0133518 0.339714 0)
(-0.0679581 0.427616 0)
(-0.0237252 0.40731 0)
(-0.0276859 0.272171 0)
(0.0270567 0.164126 0)
(-0.141651 0.200665 0)
(-0.164727 0.200296 0)
(-0.143038 0.257546 0)
(-0.113309 0.356241 0)
(-0.0573739 0.489784 0)
(-0.078717 0.649529 0)
(-0.936586 0.605423 0)
(-1.12027 0.525804 0)
(-1.10201 0.52299 0)
(-1.06649 0.693239 0)
(-1.12609 1.41706 0)
(0.0213399 0.658897 0)
(0.12372 0.561685 0)
(0.111036 0.310234 0)
(0.0980129 0.115589 0)
(0.00517998 -0.0369781 0)
(0.00336535 0.0088072 0)
(-0.0298509 0.00191794 0)
(0.0139147 0.301777 0)
(-0.00019113 0.42608 0)
(0.0238507 0.386052 0)
(0.0244577 0.225995 0)
(0.00751173 0.0849969 0)
(-0.0446904 0.131164 0)
(-0.0594857 0.137944 0)
(-0.0885449 0.205292 0)
(-0.0910182 0.308664 0)
(-0.065388 0.436032 0)
(-0.0466329 0.589506 0)
(-0.0285388 0.800118 0)
(-0.0974825 1.00491 0)
(-0.279005 1.30357 0)
(-0.525933 1.58809 0)
(-0.625417 1.71089 0)
(-0.0237114 0.579675 0)
(0.104682 0.483041 0)
(0.113474 0.314082 0)
(0.145154 0.177322 0)
(0.0808681 0.147188 0)
(0.0296317 0.146688 0)
(-0.0622457 0.170625 0)
(-0.0482337 0.281892 0)
(0.0137748 0.398555 0)
(0.0686048 0.354342 0)
(0.0758711 0.257716 0)
(0.0424158 0.205843 0)
(-0.0258515 0.233595 0)
(-0.0588375 0.245317 0)
(-0.10022 0.273004 0)
(-0.105899 0.324885 0)
(-0.0949299 0.418537 0)
(-0.0789954 0.558703 0)
(-0.0638146 0.748801 0)
(-0.0414312 1.01546 0)
(0.00967985 1.48393 0)
(0.0345299 1.96558 0)
(0.0727691 1.96428 0)
(-0.00745619 0.558195 0)
(0.100414 0.4327 0)
(0.109273 0.294897 0)
(0.117703 0.176896 0)
(0.05977 0.120854 0)
(0.0303463 0.146664 0)
(-0.0177578 0.130668 0)
(-0.0398024 0.241277 0)
(0.00725983 0.322238 0)
(0.0686693 0.321925 0)
(0.0689706 0.271472 0)
(0.0121732 0.227295 0)
(-0.0328937 0.251243 0)
(-0.0548055 0.253439 0)
(-0.0814884 0.278493 0)
(-0.0965416 0.325204 0)
(-0.105027 0.417857 0)
(-0.0899577 0.549451 0)
(-0.0833145 0.710359 0)
(-0.0724573 0.944288 0)
(0.0103002 1.42894 0)
(0.160708 1.91497 0)
(0.407609 1.88798 0)
(0.0361417 0.488191 0)
(0.097468 0.38371 0)
(0.112447 0.280112 0)
(0.108673 0.211686 0)
(0.062906 0.188092 0)
(0.0335297 0.19839 0)
(-0.00595438 0.197214 0)
(-0.0341628 0.238654 0)
(-0.00820355 0.277189 0)
(0.0243007 0.301094 0)
(0.0224966 0.295787 0)
(-0.0111174 0.280808 0)
(-0.0421412 0.278228 0)
(-0.0614434 0.273827 0)
(-0.0835572 0.295265 0)
(-0.092952 0.338428 0)
(-0.0983842 0.41023 0)
(-0.0877105 0.530623 0)
(-0.0582722 0.692072 0)
(-0.0380082 0.890841 0)
(0.0495365 1.24067 0)
(0.251218 1.62218 0)
(0.580295 1.53608 0)
(0.0458958 0.411388 0)
(0.078888 0.348949 0)
(0.103291 0.278323 0)
(0.0853025 0.237641 0)
(0.0561949 0.223551 0)
(0.0333864 0.229042 0)
(0.00770701 0.228672 0)
(-0.0129862 0.247598 0)
(-0.00813235 0.266368 0)
(0.002824 0.29243 0)
(0.00879153 0.308809 0)
(-0.00412616 0.310753 0)
(-0.0196121 0.311095 0)
(-0.0381964 0.308474 0)
(-0.0597238 0.318701 0)
(-0.0702029 0.34896 0)
(-0.0715097 0.405879 0)
(-0.0547289 0.497062 0)
(-0.00557594 0.628094 0)
(0.0654469 0.790783 0)
(0.198013 1.02106 0)
(0.401671 1.23795 0)
(0.736839 1.13432 0)
(0.0308177 0.36265 0)
(0.0551037 0.325047 0)
(0.0723088 0.279218 0)
(0.0608986 0.254591 0)
(0.0454055 0.241365 0)
(0.0317629 0.241677 0)
(0.0171685 0.241783 0)
(0.00714744 0.25516 0)
(0.0020962 0.265507 0)
(0.00427695 0.288328 0)
(0.0109037 0.30739 0)
(0.0127936 0.314911 0)
(0.0106175 0.316016 0)
(0.00354534 0.316797 0)
(-0.00801799 0.326284 0)
(-0.0151557 0.349165 0)
(-0.01533 0.393517 0)
(0.000397906 0.460924 0)
(0.0453071 0.553908 0)
(0.126797 0.66119 0)
(0.273687 0.813921 0)
(0.468445 0.924293 0)
(0.7617 0.811107 0)
(0.0176723 0.330768 0)
(0.0364023 0.306488 0)
(0.0485099 0.278503 0)
(0.0451764 0.262995 0)
(0.0385323 0.252716 0)
(0.0320726 0.250499 0)
(0.0246709 0.250678 0)
(0.0202311 0.259541 0)
(0.0184116 0.267725 0)
(0.0177157 0.28438 0)
(0.0248498 0.300156 0)
(0.0330207 0.308223 0)
(0.0385873 0.31298 0)
(0.0403911 0.319407 0)
(0.0394326 0.329355 0)
(0.0403002 0.348536 0)
(0.0455165 0.383813 0)
(0.0632611 0.434741 0)
(0.101964 0.5006 0)
(0.17082 0.56682 0)
(0.288152 0.648603 0)
(0.45078 0.679828 0)
(0.658742 0.605528 0)
(0.0102963 0.310402 0)
(0.0247687 0.292189 0)
(0.0354329 0.274548 0)
(0.0364671 0.264175 0)
(0.0349379 0.257057 0)
(0.0319993 0.254629 0)
(0.0281828 0.255264 0)
(0.026386 0.261319 0)
(0.0262573 0.268442 0)
(0.0286789 0.28049 0)
(0.036393 0.291282 0)
(0.0454182 0.299565 0)
(0.0538232 0.306843 0)
(0.060682 0.315811 0)
(0.0663733 0.326477 0)
(0.0735631 0.34473 0)
(0.0824685 0.373288 0)
(0.104832 0.409628 0)
(0.144197 0.452768 0)
(0.203047 0.494043 0)
(0.288802 0.533228 0)
(0.404615 0.529962 0)
(0.537583 0.4771 0)
(0.00700081 0.296275 0)
(0.0186238 0.279908 0)
(0.0274484 0.269224 0)
(0.0302032 0.262982 0)
(0.0311587 0.258524 0)
(0.0305565 0.25686 0)
(0.0294243 0.257327 0)
(0.0293623 0.261378 0)
(0.0304536 0.266441 0)
(0.0341756 0.274612 0)
(0.0417695 0.283532 0)
(0.0514639 0.291553 0)
(0.0602725 0.298767 0)
(0.0701003 0.308033 0)
(0.0793344 0.319419 0)
(0.0905684 0.336756 0)
(0.105029 0.355457 0)
(0.131353 0.377284 0)
(0.169596 0.404263 0)
(0.220311 0.430434 0)
(0.287236 0.447361 0)
(0.368 0.430371 0)
(0.455582 0.387148 0)
(0.00552484 0.285042 0)
(0.0148139 0.270445 0)
(0.0217408 0.264214 0)
(0.0257679 0.260479 0)
(0.0285482 0.257346 0)
(0.0306502 0.256464 0)
(0.0314658 0.257351 0)
(0.0332171 0.260246 0)
(0.0356059 0.264236 0)
(0.0395145 0.269471 0)
(0.0456451 0.275391 0)
(0.0545026 0.28215 0)
(0.0628806 0.289007 0)
(0.07315 0.297847 0)
(0.0851548 0.308286 0)
(0.100433 0.321626 0)
(0.120833 0.335119 0)
(0.146136 0.34783 0)
(0.17969 0.363544 0)
(0.222943 0.378076 0)
(0.277961 0.38168 0)
(0.337455 0.360786 0)
(0.399845 0.32192 0)
(0.00449716 0.276139 0)
(0.0121271 0.262626 0)
(0.0189478 0.25867 0)
(0.0238936 0.25602 0)
(0.0277944 0.25472 0)
(0.0309579 0.254548 0)
(0.0342183 0.255015 0)
(0.037834 0.257274 0)
(0.0420341 0.26023 0)
(0.0472781 0.264171 0)
(0.0532335 0.268001 0)
(0.0614485 0.273079 0)
(0.0705545 0.27982 0)
(0.0810627 0.285957 0)
(0.0939294 0.293131 0)
(0.109906 0.301241 0)
(0.131795 0.309959 0)
(0.156839 0.318481 0)
(0.186977 0.326138 0)
(0.224389 0.331559 0)
(0.269585 0.328613 0)
(0.31668 0.307217 0)
(0.363373 0.271073 0)
(0.00402929 0.268325 0)
(0.0108336 0.255574 0)
(0.0172155 0.252937 0)
(0.022384 0.251401 0)
(0.0270586 0.250487 0)
(0.0313963 0.250265 0)
(0.0358601 0.250792 0)
(0.0407075 0.252591 0)
(0.0463204 0.255115 0)
(0.0528209 0.258232 0)
(0.0600289 0.261326 0)
(0.067973 0.265305 0)
(0.0781637 0.269835 0)
(0.0898967 0.274432 0)
(0.103641 0.279071 0)
(0.120068 0.283713 0)
(0.138564 0.28855 0)
(0.161089 0.292842 0)
(0.18831 0.294881 0)
(0.221238 0.294635 0)
(0.256989 0.287032 0)
(0.296622 0.266244 0)
(0.332856 0.235076 0)
(0.00352033 0.261435 0)
(0.0097252 0.249152 0)
(0.0156211 0.247272 0)
(0.0210094 0.246234 0)
(0.0260813 0.245579 0)
(0.031043 0.245442 0)
(0.0359889 0.245795 0)
(0.0413728 0.246807 0)
(0.0475822 0.248376 0)
(0.0546028 0.251099 0)
(0.0623823 0.253603 0)
(0.0706178 0.255417 0)
(0.0807112 0.258075 0)
(0.0926767 0.261124 0)
(0.106737 0.263849 0)
(0.122278 0.266742 0)
(0.140936 0.268643 0)
(0.162601 0.268031 0)
(0.18773 0.266038 0)
(0.214666 0.261428 0)
(0.245592 0.251617 0)
(0.277229 0.230862 0)
(0.306234 0.204495 0)
(0.00341355 0.254759 0)
(0.00951875 0.243056 0)
(0.0152228 0.24162 0)
(0.020711 0.240973 0)
(0.0260063 0.240532 0)
(0.0313299 0.240384 0)
(0.0367797 0.240525 0)
(0.0426119 0.241048 0)
(0.0490185 0.241883 0)
(0.0560634 0.243179 0)
(0.0642927 0.244798 0)
(0.0735642 0.246151 0)
(0.0837127 0.247406 0)
(0.0951644 0.248127 0)
(0.108366 0.248716 0)
(0.123822 0.249612 0)
(0.141266 0.248423 0)
(0.160667 0.246542 0)
(0.181297 0.242147 0)
(0.205359 0.235604 0)
(0.231758 0.222311 0)
(0.2575 0.203438 0)
(0.280374 0.182222 0)
(0.00322188 0.248673 0)
(0.0090221 0.237354 0)
(0.0146639 0.236207 0)
(0.0202051 0.235723 0)
(0.0255905 0.235222 0)
(0.031055 0.234783 0)
(0.036765 0.234616 0)
(0.0427882 0.234661 0)
(0.0493005 0.23493 0)
(0.0563729 0.235517 0)
(0.0646396 0.236227 0)
(0.0739697 0.236554 0)
(0.0841154 0.236867 0)
(0.0957668 0.236528 0)
(0.10761 0.235944 0)
(0.121461 0.23381 0)
(0.137121 0.231289 0)
(0.154916 0.227176 0)
(0.174766 0.220146 0)
(0.196016 0.210511 0)
(0.218001 0.198977 0)
(0.238163 0.182777 0)
(0.258385 0.161128 0)
(0.00307314 0.242459 0)
(0.00870986 0.231458 0)
(0.0142665 0.23033 0)
(0.0198951 0.229862 0)
(0.0254882 0.229483 0)
(0.031162 0.229154 0)
(0.0370252 0.228791 0)
(0.0432023 0.228458 0)
(0.049873 0.228234 0)
(0.057115 0.228126 0)
(0.0650829 0.227499 0)
(0.0733053 0.226901 0)
(0.0828678 0.225726 0)
(0.0934598 0.224654 0)
(0.105687 0.222202 0)
(0.119562 0.219145 0)
(0.134145 0.21506 0)
(0.149956 0.208797 0)
(0.166814 0.201665 0)
(0.18347 0.191996 0)
(0.202325 0.178618 0)
(0.221138 0.162061 0)
(0.23815 0.144215 0)
(0.00294203 0.236869 0)
(0.00838081 0.226112 0)
(0.013754 0.224991 0)
(0.0192408 0.224453 0)
(0.0246949 0.223896 0)
(0.0303381 0.223333 0)
(0.0361502 0.22264 0)
(0.0422424 0.221921 0)
(0.0487251 0.221152 0)
(0.0558658 0.220294 0)
(0.0637663 0.219502 0)
(0.0726297 0.21802 0)
(0.0820271 0.215875 0)
(0.0921405 0.213316 0)
(0.103089 0.210232 0)
(0.11466 0.206238 0)
(0.127467 0.200634 0)
(0.141468 0.194257 0)
(0.156647 0.185019 0)
(0.172813 0.173738 0)
(0.188852 0.161425 0)
(0.203923 0.146501 0)
(0.219004 0.128562 0)
(0.00286231 0.231089 0)
(0.00822805 0.220582 0)
(0.0135453 0.219547 0)
(0.0189786 0.219034 0)
(0.0243851 0.218422 0)
(0.0299962 0.217674 0)
(0.0357791 0.216772 0)
(0.0418205 0.215708 0)
(0.0481815 0.214438 0)
(0.055003 0.212937 0)
(0.0622422 0.211182 0)
(0.070064 0.209109 0)
(0.0785966 0.206617 0)
(0.0879701 0.203323 0)
(0.0980602 0.19911 0)
(0.109417 0.193544 0)
(0.121638 0.187186 0)
(0.13432 0.179362 0)
(0.147526 0.1707 0)
(0.160562 0.160044 0)
(0.174174 0.146735 0)
(0.18792 0.131605 0)
(0.201007 0.11508 0)
(0.00271416 0.225806 0)
(0.0077955 0.215434 0)
(0.0128644 0.214304 0)
(0.0180847 0.213699 0)
(0.0233097 0.212954 0)
(0.0287207 0.212006 0)
(0.0343131 0.210894 0)
(0.0401673 0.209612 0)
(0.0463325 0.208093 0)
(0.0528753 0.206291 0)
(0.0599168 0.204102 0)
(0.0676359 0.201422 0)
(0.0758418 0.197989 0)
(0.0846288 0.193926 0)
(0.0940182 0.188984 0)
(0.103876 0.18311 0)
(0.114138 0.176271 0)
(0.125025 0.168078 0)
(0.136546 0.158098 0)
(0.148566 0.146581 0)
(0.160596 0.133937 0)
(0.172202 0.119347 0)
(0.183636 0.103108 0)
(0.0026103 0.220502 0)
(0.00758888 0.210316 0)
(0.0125313 0.209134 0)
(0.0176229 0.208478 0)
(0.022702 0.207617 0)
(0.0279218 0.206512 0)
(0.0332613 0.205162 0)
(0.0387905 0.203535 0)
(0.0445712 0.201579 0)
(0.0506654 0.199274 0)
(0.0571223 0.196547 0)
(0.0640197 0.193392 0)
(0.0713837 0.189585 0)
(0.0792966 0.184959 0)
(0.087782 0.17951 0)
(0.0967593 0.172964 0)
(0.106293 0.16539 0)
(0.116204 0.156893 0)
(0.126238 0.147126 0)
(0.136445 0.135825 0)
(0.146688 0.122835 0)
(0.156908 0.108408 0)
(0.166794 0.0926802 0)
(0.00244179 0.215639 0)
(0.00715925 0.205568 0)
(0.0118629 0.204323 0)
(0.01671 0.203633 0)
(0.0215396 0.202727 0)
(0.0264946 0.201561 0)
(0.0315509 0.200116 0)
(0.036775 0.198335 0)
(0.0422179 0.196179 0)
(0.0479207 0.193582 0)
(0.0539276 0.190489 0)
(0.0602904 0.186772 0)
(0.0670823 0.182405 0)
(0.0742486 0.177345 0)
(0.0818068 0.171484 0)
(0.0897129 0.164613 0)
(0.0979341 0.156769 0)
(0.106464 0.147824 0)
(0.115243 0.137546 0)
(0.124238 0.126005 0)
(0.133146 0.11323 0)
(0.141898 0.0990575 0)
(0.150366 0.0836304 0)
(0.00233697 0.210846 0)
(0.00686032 0.200757 0)
(0.0113371 0.199452 0)
(0.015953 0.198717 0)
(0.0205151 0.197722 0)
(0.0251854 0.196453 0)
(0.0299129 0.19487 0)
(0.0347388 0.192912 0)
(0.0396943 0.190534 0)
(0.0448882 0.187652 0)
(0.0503349 0.184268 0)
(0.0560613 0.180328 0)
(0.0621292 0.175732 0)
(0.0685351 0.170337 0)
(0.0752412 0.164084 0)
(0.0822041 0.156862 0)
(0.0893971 0.148672 0)
(0.0968103 0.139488 0)
(0.104398 0.129234 0)
(0.112064 0.117763 0)
(0.119668 0.105035 0)
(0.127144 0.0910445 0)
(0.134333 0.075891 0)
(0.00218128 0.206431 0)
(0.0064932 0.196543 0)
(0.0107124 0.195217 0)
(0.0150596 0.194491 0)
(0.0193153 0.193464 0)
(0.0236732 0.192135 0)
(0.0280765 0.190439 0)
(0.0325869 0.188347 0)
(0.0371923 0.185811 0)
(0.0419089 0.182767 0)
(0.0467676 0.179109 0)
(0.0517574 0.174792 0)
(0.056966 0.169717 0)
(0.0624613 0.16397 0)
(0.068241 0.157533 0)
(0.0743056 0.150253 0)
(0.0806076 0.141957 0)
(0.0870111 0.132612 0)
(0.0934343 0.122168 0)
(0.0999107 0.110668 0)
(0.106347 0.0980588 0)
(0.112627 0.0842767 0)
(0.118614 0.06937 0)
(0.00210681 0.202094 0)
(0.00610215 0.192253 0)
(0.00994342 0.190844 0)
(0.0139636 0.190114 0)
(0.0178785 0.18906 0)
(0.02191 0.187687 0)
(0.0260205 0.186022 0)
(0.0302271 0.183941 0)
(0.0344991 0.181349 0)
(0.0388137 0.178252 0)
(0.0431735 0.174528 0)
(0.0476011 0.170087 0)
(0.0521408 0.164917 0)
(0.0567923 0.15898 0)
(0.0615817 0.15212 0)
(0.0664781 0.144365 0)
(0.0715551 0.135835 0)
(0.0768866 0.126547 0)
(0.0824172 0.116273 0)
(0.0878724 0.104825 0)
(0.0931838 0.0922569 0)
(0.0983453 0.0786361 0)
(0.103214 0.0639887 0)
(0.00205695 0.198179 0)
(0.00571812 0.188639 0)
(0.00905629 0.187301 0)
(0.0126625 0.18657 0)
(0.0161432 0.185456 0)
(0.0197537 0.184004 0)
(0.023457 0.182141 0)
(0.0272648 0.179896 0)
(0.0311584 0.177219 0)
(0.0351119 0.174072 0)
(0.0390969 0.170351 0)
(0.0431099 0.16595 0)
(0.0471488 0.160797 0)
(0.0511243 0.154787 0)
(0.0550972 0.147939 0)
(0.0590998 0.140215 0)
(0.0631994 0.131496 0)
(0.067296 0.121664 0)
(0.0713759 0.11104 0)
(0.0756896 0.09977 0)
(0.0801253 0.0875318 0)
(0.0842927 0.0741443 0)
(0.0881127 0.0597155 0)
(0.00203842 0.194408 0)
(0.00510953 0.185439 0)
(0.00774645 0.183996 0)
(0.010734 0.183229 0)
(0.0135917 0.182061 0)
(0.0166333 0.180492 0)
(0.0197435 0.178497 0)
(0.0230036 0.176138 0)
(0.0264079 0.173427 0)
(0.0299507 0.170229 0)
(0.0335588 0.16647 0)
(0.0371439 0.162038 0)
(0.0406755 0.156849 0)
(0.0442477 0.150907 0)
(0.0478324 0.144135 0)
(0.0513849 0.136468 0)
(0.0548625 0.12787 0)
(0.0580901 0.118391 0)
(0.061271 0.107832 0)
(0.0643556 0.0960675 0)
(0.067209 0.0835823 0)
(0.0703416 0.0705032 0)
(0.0732694 0.0564591 0)
(0.00192674 0.190907 0)
(0.0041946 0.182987 0)
(0.00558502 0.181669 0)
(0.0076462 0.180772 0)
(0.00956707 0.17948 0)
(0.011812 0.177799 0)
(0.0141117 0.175682 0)
(0.0166548 0.173121 0)
(0.0194626 0.170102 0)
(0.0225109 0.166696 0)
(0.0258158 0.162875 0)
(0.0293054 0.158511 0)
(0.0327903 0.153434 0)
(0.036171 0.147551 0)
(0.0394002 0.140826 0)
(0.0423995 0.133168 0)
(0.0452036 0.124627 0)
(0.0480693 0.11524 0)
(0.0508423 0.104928 0)
(0.0532652 0.0937804 0)
(0.0554312 0.0815108 0)
(0.0571856 0.0680488 0)
(0.0587528 0.0540219 0)
(0.00151893 0.188299 0)
(0.00244733 0.181384 0)
(0.00252661 0.180022 0)
(0.00324379 0.17888 0)
(0.00383282 0.177435 0)
(0.0048891 0.175619 0)
(0.00603399 0.173348 0)
(0.00745526 0.170649 0)
(0.00907181 0.167534 0)
(0.0110914 0.16388 0)
(0.0134804 0.15974 0)
(0.0162702 0.155075 0)
(0.0194704 0.149882 0)
(0.0229301 0.144078 0)
(0.026556 0.137554 0)
(0.0301827 0.130263 0)
(0.0336016 0.122088 0)
(0.0365918 0.112903 0)
(0.039039 0.102729 0)
(0.0411909 0.0916801 0)
(0.0430792 0.0797814 0)
(0.0444964 0.067138 0)
(0.0450658 0.0533557 0)
(0.0010395 0.186797 0)
(0.000579021 0.182054 0)
(-0.00112414 0.18101 0)
(-0.00191636 0.179631 0)
(-0.00282872 0.177944 0)
(-0.00321826 0.175815 0)
(-0.00330527 0.173247 0)
(-0.00301337 0.170166 0)
(-0.00228135 0.166538 0)
(-0.00120008 0.162363 0)
(0.000266086 0.157673 0)
(0.00215688 0.152548 0)
(0.00445278 0.146909 0)
(0.00711811 0.140668 0)
(0.0101562 0.133817 0)
(0.0134888 0.126356 0)
(0.0169857 0.118222 0)
(0.0205071 0.109414 0)
(0.023871 0.0998466 0)
(0.0267667 0.0894739 0)
(0.0289391 0.0782385 0)