/*--------------------------------*- C++ -*----------------------------------*\
| =========                 |                                                 |
| \\      /  F ield         | OpenFOAM: The Open Source CFD Toolbox           |
|  \\    /   O peration     | Version:  2.4.0                                 |
|   \\  /    A nd           | Web:      www.OpenFOAM.org                      |
|    \\/     M anipulation  |                                                 |
\*---------------------------------------------------------------------------*/
FoamFile
{
    version     2.0;
    format      ascii;
    class       volVectorField;
    location    "0.8";
    object      U.water;
}
// * * * * * * * * * * * * * * * * * * * * * * * * * * * * * * * * * * * * * //

dimensions      [0 1 -1 0 0 0 0];

internalField   nonuniform List<vector> 
2268
(
(0.00807164 -0.0435475 0)
(0.0211161 -0.0447983 0)
(0.0387157 -0.0471374 0)
(0.0349136 -0.0521315 0)
(0.0320471 -0.0521185 0)
(0.0184669 -0.0355262 0)
(-0.021154 -0.0065216 0)
(-0.0821762 0.0235257 0)
(-0.15359 0.0337971 0)
(-0.19487 0.0310009 0)
(-0.214178 0.0249836 0)
(-0.229376 0.0101957 0)
(-0.229546 -0.000882706 0)
(-0.211911 -0.00770697 0)
(-0.180938 -0.0119441 0)
(-0.152755 -0.00991771 0)
(-0.132992 -0.00657626 0)
(-0.119822 -0.00564105 0)
(-0.105559 -0.00371712 0)
(-0.0850029 -0.00842259 0)
(-0.0566493 -0.00198335 0)
(-0.04929 0.00107927 0)
(-0.0363107 -0.0114042 0)
(0.00897434 0.180022 0)
(0.0157032 0.178453 0)
(0.0320867 0.148066 0)
(0.0371485 0.121603 0)
(0.0438015 0.10599 0)
(0.0374821 0.0898304 0)
(0.000925284 0.0623954 0)
(-0.0669537 0.0424523 0)
(-0.147844 0.0220602 0)
(-0.202576 2.94083e-05 0)
(-0.229409 -0.00591057 0)
(-0.236618 -0.00296921 0)
(-0.230717 -0.00684564 0)
(-0.209951 -0.0156986 0)
(-0.179355 -0.0164729 0)
(-0.15169 -0.0130036 0)
(-0.130139 -0.00895741 0)
(-0.115824 -0.00737892 0)
(-0.101007 -0.0112015 0)
(-0.0759 -0.0156407 0)
(-0.0548193 -0.0149811 0)
(-0.0343893 -0.0090846 0)
(-0.0155326 -0.0313398 0)
(0.0125583 0.0785765 0)
(0.0175972 0.0795509 0)
(0.0276826 0.0919042 0)
(0.0412941 0.101048 0)
(0.0125865 0.112637 0)
(-0.0414665 0.153474 0)
(-0.0566043 0.130036 0)
(-0.0964746 0.132092 0)
(-0.159136 0.102532 0)
(-0.207889 0.0644287 0)
(-0.230802 0.0358184 0)
(-0.235656 0.0106915 0)
(-0.226262 -0.0147967 0)
(-0.208467 -0.0312561 0)
(-0.180003 -0.0373607 0)
(-0.155668 -0.0310165 0)
(-0.131759 -0.0222901 0)
(-0.112253 -0.0177478 0)
(-0.0952906 -0.0205424 0)
(-0.0696942 -0.0292054 0)
(-0.0560681 -0.0218658 0)
(-0.02407 -0.0151757 0)
(-0.0066018 -0.0352947 0)
(0.0113342 0.137966 0)
(0.00979845 0.145092 0)
(0.00373827 0.148057 0)
(0.00839665 0.177817 0)
(-0.0149839 0.213419 0)
(-0.0242072 0.223614 0)
(-0.0978769 0.232705 0)
(-0.193776 0.262551 0)
(-0.257875 0.236596 0)
(-0.242428 0.0856913 0)
(-0.24192 0.0284865 0)
(-0.234341 0.00106861 0)
(-0.225446 -0.016706 0)
(-0.208269 -0.0366146 0)
(-0.179746 -0.0398523 0)
(-0.15059 -0.0350158 0)
(-0.121606 -0.0294716 0)
(-0.0980396 -0.0247926 0)
(-0.0834747 -0.0296022 0)
(-0.0765217 -0.0330046 0)
(-0.0756011 -0.0371972 0)
(-0.0357806 -0.02947 0)
(-0.0115582 -0.0437668 0)
(-0.00634742 -0.152223 0)
(-0.00344368 -0.146266 0)
(-0.0061295 -0.147875 0)
(-0.0115056 -0.145338 0)
(8.28696e-05 -0.0973439 0)
(-0.00517728 0.0334189 0)
(-0.0674699 0.237844 0)
(-0.283417 0.310465 0)
(-0.322856 0.275013 0)
(-0.331352 0.220463 0)
(-0.301166 0.0888594 0)
(-0.276333 0.0274095 0)
(-0.247771 -0.0115336 0)
(-0.221538 -0.0349378 0)
(-0.189402 -0.0444587 0)
(-0.150251 -0.0391279 0)
(-0.112512 -0.030256 0)
(-0.0843402 -0.0237616 0)
(-0.0765095 -0.0250858 0)
(-0.0781808 -0.0285507 0)
(-0.0825759 -0.0337908 0)
(-0.0618666 -0.0348863 0)
(-0.017155 -0.0407055 0)
(0.00154349 0.0713708 0)
(-0.00826423 0.086098 0)
(-0.0414611 0.0982442 0)
(-0.0922164 0.124238 0)
(-0.17366 0.114898 0)
(-0.217279 0.0746363 0)
(-0.193931 0.108057 0)
(-0.377892 0.278902 0)
(-0.422414 0.278876 0)
(-0.397262 0.205878 0)
(-0.362291 0.150173 0)
(-0.331059 0.0322782 0)
(-0.298559 -0.0123109 0)
(-0.266818 0.0249816 0)
(-0.222094 0.0988693 0)
(-0.170642 0.105916 0)
(-0.125346 0.117498 0)
(-0.0916329 0.113342 0)
(-0.0798176 0.0716355 0)
(-0.0789698 0.0584561 0)
(-0.0821199 0.0866198 0)
(-0.0769121 0.119927 0)
(-0.0330147 0.0869666 0)
(-0.00641115 -0.0862789 0)
(-0.00938752 -0.0773383 0)
(-0.0113682 -0.0681859 0)
(-0.0249028 -0.0406145 0)
(-0.0611529 0.0154197 0)
(-0.123944 0.0883224 0)
(-0.202797 0.20062 0)
(-0.347746 0.27225 0)
(-0.550385 0.267574 0)
(-0.527802 0.225347 0)
(-0.452438 0.194109 0)
(-0.384301 0.156552 0)
(-0.33129 0.113851 0)
(-0.277324 0.0760652 0)
(-0.228053 0.0482829 0)
(-0.184871 0.0482775 0)
(-0.155951 0.0683759 0)
(-0.128572 0.100721 0)
(-0.0946474 0.122766 0)
(-0.0757896 0.127728 0)
(-0.0669089 0.113275 0)
(-0.0892672 0.0861146 0)
(-0.0572489 0.0428712 0)
(0.00789743 0.0222139 0)
(0.00283161 0.0485641 0)
(-0.0275091 0.0712294 0)
(-0.0659817 0.0912606 0)
(-0.0989852 0.100102 0)
(-0.132027 0.117017 0)
(-0.172229 0.224588 0)
(-0.229503 0.333487 0)
(-0.48762 0.26436 0)
(-0.528771 0.149914 0)
(-0.513421 0.0902315 0)
(-0.457493 0.0580734 0)
(-0.376232 0.0334014 0)
(-0.27459 0.00316174 0)
(-0.178131 -0.00660769 0)
(-0.160025 -0.00036856 0)
(-0.17406 0.00936846 0)
(-0.169209 0.0270755 0)
(-0.123667 0.0398226 0)
(-0.0724112 0.0526056 0)
(-0.0594672 0.0598158 0)
(-0.116135 0.0434437 0)
(-0.135903 -0.0356694 0)
(-0.136761 -0.0486997 0)
(0.172648 -0.0142657 0)
(0.320723 -0.0118936 0)
(0.389389 -0.0334722 0)
(0.416652 -0.0450954 0)
(0.435416 -0.0399061 0)
(0.454991 -0.0262226 0)
(0.481082 -0.0106292 0)
(0.511896 -0.0038996 0)
(0.548023 -0.00393682 0)
(0.576359 -0.00263295 0)
(0.614652 -0.0213441 0)
(0.634962 -0.0609555 0)
(0.628069 -0.110986 0)
(0.578424 -0.0941039 0)
(0.44819 -0.0759609 0)
(0.182642 -0.0344004 0)
(-0.052251 -0.0616109 0)
(-0.0125646 -0.0934997 0)
(-0.148431 0.258975 0)
(0.357852 0.0931377 0)
(0.507186 0.168657 0)
(0.568072 0.202623 0)
(0.594101 0.218434 0)
(0.591072 0.215422 0)
(0.581038 0.206279 0)
(0.585008 0.203689 0)
(0.594981 0.206549 0)
(0.600761 0.20793 0)
(0.607417 0.205313 0)
(0.62806 0.212704 0)
(0.631093 0.230588 0)
(0.602595 0.276077 0)
(0.512864 0.34843 0)
(0.415141 0.208141 0)
(0.227889 0.188673 0)
(0.0376045 0.187429 0)
(-0.0718999 0.152089 0)
(0.148219 -0.0226219 0)
(0.497847 -0.254013 0)
(0.581318 -0.1153 0)
(0.703014 -0.0382126 0)
(0.789486 -0.00393566 0)
(0.850808 0.00147226 0)
(0.860027 0.0352828 0)
(0.828925 0.0749907 0)
(0.761027 0.0836795 0)
(0.668829 0.0768873 0)
(0.565688 0.0606077 0)
(0.475318 0.0592056 0)
(0.313672 0.107588 0)
(0.1399 0.0619532 0)
(0.171759 0.145146 0)
(0.269015 0.221644 0)
(0.204406 0.191195 0)
(0.0565655 0.141744 0)
(-0.034905 -0.0240668 0)
(0.379039 -0.0398036 0)
(0.408678 -0.256019 0)
(0.469666 -0.224827 0)
(0.587162 -0.189204 0)
(0.649108 -0.160071 0)
(0.702614 -0.131857 0)
(0.716265 -0.122003 0)
(0.703291 -0.124738 0)
(0.671887 -0.103827 0)
(0.63526 -0.0754283 0)
(0.557545 -0.0600464 0)
(0.467503 -0.049456 0)
(0.293888 -0.078449 0)
(0.159627 -0.0413843 0)
(-0.392106 0.1824 0)
(0.0674489 0.210694 0)
(0.151551 0.22736 0)
(0.0961245 0.224099 0)
(0.0219775 0.125643 0)
(0.308354 -0.514446 0)
(0.335224 -0.432454 0)
(0.41925 -0.276067 0)
(0.468009 -0.131914 0)
(0.546313 -0.060286 0)
(0.60031 0.00142235 0)
(0.612665 0.0659904 0)
(0.56726 0.104777 0)
(0.505854 0.114929 0)
(0.476995 0.115931 0)
(0.44502 0.123937 0)
(0.398832 0.158761 0)
(0.268316 0.196547 0)
(0.0553601 0.192111 0)
(-0.476169 0.140716 0)
(-0.296839 0.044502 0)
(0.0694588 0.216851 0)
(0.0647456 0.245052 0)
(0.0837606 0.0616958 0)
(0.187651 -0.586312 0)
(0.149446 -0.421282 0)
(0.21545 -0.267963 0)
(0.297551 -0.235977 0)
(0.367986 -0.206911 0)
(0.445661 -0.139138 0)
(0.461702 -0.0779303 0)
(0.455699 -0.0405151 0)
(0.424639 -0.0207311 0)
(0.376814 -0.0108668 0)
(0.349619 0.0158397 0)
(0.34431 0.0911152 0)
(0.271557 0.196459 0)
(0.056986 0.333681 0)
(-0.403375 0.186623 0)
(-0.313595 -0.0403019 0)
(0.0360762 0.109916 0)
(0.0625938 0.22956 0)
(0.121956 0.161672 0)
(0.128328 -0.715126 0)
(-0.0841963 -0.527281 0)
(-0.0868559 -0.399332 0)
(0.0972904 -0.31754 0)
(0.26813 -0.216856 0)
(0.413992 -0.106106 0)
(0.448947 0.00388122 0)
(0.406957 0.0769315 0)
(0.350192 0.104017 0)
(0.288563 0.0797975 0)
(0.266929 0.0740374 0)
(0.276848 0.119561 0)
(0.279703 0.246094 0)
(0.127305 0.388742 0)
(-0.280361 0.225552 0)
(-0.324789 -0.0828165 0)
(-0.128483 0.0597535 0)
(0.0265937 0.226048 0)
(0.141428 0.211221 0)
(0.0294282 -0.691528 0)
(-0.3765 -0.405972 0)
(-0.216251 -0.392655 0)
(-0.0871803 -0.408788 0)
(0.0561902 -0.349333 0)
(0.269949 -0.247646 0)
(0.415226 -0.0986412 0)
(0.417107 0.00153327 0)
(0.347317 0.0761592 0)
(0.277922 0.081179 0)
(0.217081 0.0897205 0)
(0.218584 0.146457 0)
(0.239843 0.301144 0)
(0.220266 0.528822 0)
(-0.0847654 0.318581 0)
(-0.307622 -0.0758109 0)
(-0.285831 0.0399159 0)
(-0.116338 0.174035 0)
(0.155694 0.336936 0)
(0.00251999 -0.0736036 0)
(0.0159245 -0.0660665 0)
(0.0411155 -0.0300078 0)
(0.0497823 0.0300761 0)
(0.0196439 0.106459 0)
(-0.0295573 0.172875 0)
(-0.0584268 0.268415 0)
(-0.00667449 0.394457 0)
(0.000974822 0.392147 0)
(-0.126622 0.29477 0)
(-0.249404 0.186952 0)
(-0.275981 0.0729499 0)
(-0.232041 -0.0221374 0)
(-0.17741 -0.0647558 0)
(-0.147594 -0.0538717 0)
(-0.141495 -0.026645 0)
(-0.147227 -0.0017917 0)
(-0.142307 0.00356225 0)
(-0.132378 0.0121389 0)
(-0.132896 0.058352 0)
(-0.142582 0.122278 0)
(-0.160696 0.115933 0)
(-0.256138 -0.164442 0)
(0.0210067 -0.0120715 0)
(0.0489032 0.00956776 0)
(0.0529776 0.0379283 0)
(0.0219583 0.0780719 0)
(0.00835426 0.13127 0)
(-0.000677443 0.159346 0)
(0.00702439 0.212002 0)
(0.0517122 0.274799 0)
(0.13213 0.262139 0)
(0.166811 0.156631 0)
(0.170406 0.00986639 0)
(0.178665 -0.123827 0)
(0.160541 -0.199029 0)
(0.127779 -0.217095 0)
(0.113997 -0.197521 0)
(0.109099 -0.161521 0)
(0.122271 -0.146253 0)
(0.118245 -0.158341 0)
(0.106855 -0.168091 0)
(0.0758478 -0.170592 0)
(0.046287 -0.152223 0)
(0.0522439 -0.13669 0)
(0.049065 -0.144131 0)
(0.0264179 -0.0920603 0)
(0.0702298 -0.0568124 0)
(0.114696 0.0352646 0)
(0.10709 0.120699 0)
(0.0697171 0.170304 0)
(0.0181079 0.185327 0)
(0.00236876 0.212447 0)
(0.0259237 0.234227 0)
(0.0902731 0.217563 0)
(0.156479 0.151361 0)
(0.196538 0.0600011 0)
(0.215921 -0.0388436 0)
(0.20032 -0.112647 0)
(0.19527 -0.148496 0)
(0.214164 -0.147768 0)
(0.22134 -0.126664 0)
(0.217877 -0.0852565 0)
(0.168835 -0.038337 0)
(0.11983 0.0305567 0)
(0.0812564 0.0821581 0)
(0.0184088 0.118966 0)
(-0.104803 0.0761747 0)
(-0.454064 -0.0476957 0)
(0.0460455 -0.173278 0)
(0.117307 -0.149941 0)
(0.118667 -0.0721853 0)
(0.0192125 0.0546028 0)
(0.0139508 0.165386 0)
(-0.0299708 0.19481 0)
(-0.0389508 0.186573 0)
(-0.0235599 0.154696 0)
(0.0266989 0.106216 0)
(0.0743176 0.0403665 0)
(0.111999 -0.0389286 0)
(0.132271 -0.0897523 0)
(0.145237 -0.158858 0)
(0.145029 -0.249135 0)
(0.15195 -0.308248 0)
(0.135386 -0.356667 0)
(0.148109 -0.397595 0)
(-0.00157896 -0.353629 0)
(-0.160571 -0.234513 0)
(-0.335138 -0.116755 0)
(-0.500338 0.0408922 0)
(-0.835967 0.357774 0)
(-1.11254 0.492517 0)
(0.00575927 -0.24209 0)
(-0.0862761 -0.146362 0)
(-0.187929 0.107795 0)
(-0.211113 0.190264 0)
(-0.194781 0.238193 0)
(-0.193747 0.249533 0)
(-0.15313 0.220867 0)
(-0.120914 0.184117 0)
(-0.0712272 0.135644 0)
(-0.00424238 0.0738238 0)
(0.0608415 -0.0296156 0)
(0.0829379 -0.150649 0)
(0.01405 -0.353039 0)
(-0.0260717 -0.562925 0)
(-0.0195605 -0.773868 0)
(-0.332873 -0.728454 0)
(-0.907438 -0.192409 0)
(-1.00433 -0.00464656 0)
(-0.994633 0.131726 0)
(-1.04695 0.273466 0)
(-1.21815 0.478167 0)
(-1.25992 0.556305 0)
(-1.31631 0.500056 0)
(-0.0487153 -0.155817 0)
(-0.311822 -0.0804678 0)
(-0.374706 -0.0395439 0)
(-0.374116 -0.0130509 0)
(-0.363501 -0.00709856 0)
(-0.314682 0.0161785 0)
(-0.26797 -0.000649402 0)
(-0.24307 -0.0438032 0)
(-0.209729 -0.154857 0)
(-0.210949 -0.3237 0)
(-0.237093 -0.620678 0)
(-0.189804 -0.748648 0)
(-0.146022 -0.398397 0)
(-0.803826 0.133617 0)
(-0.567657 -0.249241 0)
(-1.23226 -0.0611721 0)
(-1.16744 -0.126653 0)
(-1.0956 -0.0859802 0)
(-1.08134 0.0495679 0)
(-1.1396 0.303569 0)
(-1.22843 0.507869 0)
(-1.27072 0.551583 0)
(-1.37817 0.345094 0)
(-0.139613 -0.195429 0)
(-0.311843 -0.481094 0)
(-0.461759 -0.31624 0)
(-0.445514 -0.311342 0)
(-0.407341 -0.285214 0)
(-0.352515 -0.248789 0)
(-0.306286 -0.281164 0)
(-0.285136 -0.341324 0)
(-0.270374 -0.469406 0)
(-0.291458 -0.492951 0)
(-0.714464 -0.0457289 0)
(-0.997293 -0.0279572 0)
(-0.78403 0.216239 0)
(-0.789534 0.209875 0)
(-0.752655 0.171118 0)
(-0.984576 0.249664 0)
(-1.21176 -0.144049 0)
(-1.1027 -0.105793 0)
(-1.04956 0.0623553 0)
(-1.08673 0.329532 0)
(-1.14169 0.526601 0)
(-1.18563 0.591514 0)
(-1.51305 0.526627 0)
(-0.0944762 -0.465717 0)
(-0.056275 -0.467265 0)
(-0.511665 -0.210166 0)
(-0.471036 -0.233402 0)
(-0.422276 -0.243067 0)
(-0.347937 -0.235972 0)
(-0.305825 -0.249069 0)
(-0.326545 -0.243211 0)
(-0.406641 0.00687858 0)
(-0.431881 0.237609 0)
(-0.441468 -0.0734769 0)
(-0.33965 -0.277191 0)
(-0.454007 0.0959973 0)
(-0.367173 0.331569 0)
(-0.348218 0.43313 0)
(-0.361989 0.609297 0)
(-0.703722 0.314531 0)
(-1.16214 0.0539993 0)
(-1.10534 0.10248 0)
(-1.0499 0.273251 0)
(-1.07745 0.493571 0)
(-1.10208 0.582469 0)
(-1.79689 1.03279 0)
(-0.0912213 -0.190188 0)
(-0.233465 0.263232 0)
(-0.292886 0.0637786 0)
(-0.251031 -0.0988272 0)
(-0.0849752 -0.0957112 0)
(-0.0688888 -0.129134 0)
(0.121778 0.132901 0)
(-0.0861471 0.291648 0)
(-0.271578 0.355744 0)
(-0.266099 0.426004 0)
(-0.343005 0.27004 0)
(-0.492375 0.140191 0)
(-0.491182 0.163003 0)
(-0.416054 0.267961 0)
(-0.318962 0.339353 0)
(-0.275934 0.480356 0)
(-0.173635 0.611312 0)
(-0.496203 0.529219 0)
(-1.13655 0.275569 0)
(-1.1022 0.298044 0)
(-1.07614 0.474132 0)
(-1.09364 0.621719 0)
(-1.3483 1.57545 0)
(-0.025962 0.762495 0)
(-0.041269 0.63871 0)
(0.060326 0.349281 0)
(-0.0785765 0.129202 0)
(-0.054178 -0.095701 0)
(-0.109311 -0.0982317 0)
(-0.170054 0.0194359 0)
(-0.0596647 0.354923 0)
(-0.140677 0.384555 0)
(-0.138457 0.395716 0)
(-0.1924 0.253247 0)
(-0.136632 -0.0514404 0)
(-0.196402 -0.0509461 0)
(-0.213033 0.126785 0)
(-0.14103 0.246284 0)
(-0.102217 0.371547 0)
(-0.0527654 0.517279 0)
(-0.00978223 0.711942 0)
(-0.478702 0.713407 0)
(-0.913543 0.50978 0)
(-1.01144 0.590174 0)
(-1.07723 0.9943 0)
(-1.14021 1.77564 0)
(0.0522893 0.745494 0)
(0.125531 0.607664 0)
(0.1356 0.30289 0)
(0.120152 0.0840734 0)
(0.0814821 0.0375594 0)
(0.0140088 0.0782208 0)
(-0.0954409 0.173419 0)
(-0.0133114 0.339999 0)
(-0.0679388 0.427894 0)
(-0.0236818 0.407588 0)
(-0.0276768 0.272443 0)
(0.0270934 0.164565 0)
(-0.141676 0.203686 0)
(-0.162953 0.210157 0)
(-0.139873 0.268139 0)
(-0.108691 0.367311 0)
(-0.0514417 0.500265 0)
(0.0115082 0.67174 0)
(0.0755408 0.859544 0)
(-0.0607893 0.93775 0)
(-0.372481 1.08846 0)
(-0.8142 1.55287 0)
(-0.881039 1.73826 0)
(0.0216299 0.66286 0)
(0.12408 0.563909 0)
(0.110963 0.31113 0)
(0.0980146 0.115904 0)
(0.00517675 -0.0369214 0)
(0.00336411 0.00883674 0)
(-0.0298663 0.00219889 0)
(0.0139324 0.30233 0)
(-0.000159857 0.426529 0)
(0.0238769 0.386351 0)
(0.0244759 0.226492 0)
(0.00749756 0.0859653 0)
(-0.044493 0.133314 0)
(-0.0577186 0.143469 0)
(-0.0856203 0.212662 0)
(-0.0890608 0.313015 0)
(-0.0610623 0.443271 0)
(-0.0332472 0.603185 0)
(0.0390575 0.835732 0)
(0.0602914 1.07412 0)
(0.036377 1.52744 0)
(-0.263304 1.90538 0)
(-0.486148 1.7827 0)
(-0.0237534 0.581161 0)
(0.104736 0.483622 0)
(0.113469 0.314046 0)
(0.145165 0.177209 0)
(0.0808776 0.14714 0)
(0.0296331 0.146689 0)
(-0.0622458 0.170757 0)
(-0.0482463 0.282424 0)
(0.0138193 0.399086 0)
(0.0686488 0.354921 0)
(0.0760063 0.258804 0)
(0.0425177 0.207038 0)
(-0.0256673 0.234791 0)
(-0.0584735 0.246929 0)
(-0.0995887 0.27516 0)
(-0.105248 0.326201 0)
(-0.0924785 0.421651 0)
(-0.0693087 0.567128 0)
(-0.0347893 0.765165 0)
(0.026759 1.05211 0)
(0.130817 1.54289 0)
(0.199414 2.03864 0)
(0.235948 1.95918 0)
(-0.00746299 0.557581 0)
(0.100375 0.432031 0)
(0.109258 0.294406 0)
(0.117709 0.176642 0)
(0.0597766 0.120815 0)
(0.0303464 0.146664 0)
(-0.0177499 0.130729 0)
(-0.0397721 0.241552 0)
(0.00731037 0.322636 0)
(0.0688207 0.323002 0)
(0.0691279 0.272666 0)
(0.0123208 0.228218 0)
(-0.0327668 0.251895 0)
(-0.0546248 0.254123 0)
(-0.0812518 0.279229 0)
(-0.0961981 0.325843 0)
(-0.104024 0.419211 0)
(-0.0851158 0.553024 0)
(-0.0640634 0.717126 0)
(-0.0304331 0.947311 0)
(0.0999611 1.44631 0)
(0.299093 1.91282 0)
(0.55411 1.83076 0)
(0.0361496 0.486847 0)
(0.0973983 0.382754 0)
(0.112415 0.279576 0)
(0.108664 0.211529 0)
(0.0629063 0.188078 0)
(0.0335297 0.198389 0)
(-0.00595293 0.19724 0)
(-0.0341595 0.238745 0)
(-0.00817793 0.277429 0)
(0.0243831 0.301765 0)
(0.0226061 0.296646 0)
(-0.0110523 0.281271 0)
(-0.0420338 0.278732 0)
(-0.0612721 0.274522 0)
(-0.0833384 0.296041 0)
(-0.0926797 0.33904 0)
(-0.0978135 0.410961 0)
(-0.0860306 0.531982 0)
(-0.0511189 0.694619 0)
(-0.0194176 0.888162 0)
(0.101468 1.22066 0)
(0.347418 1.57769 0)
(0.683803 1.47519 0)
(0.0458609 0.410088 0)
(0.0788448 0.348186 0)
(0.103277 0.278056 0)
(0.0853028 0.237598 0)
(0.0561949 0.22355 0)
(0.0333864 0.229042 0)
(0.00770713 0.228677 0)
(-0.0129856 0.247614 0)
(-0.00812661 0.266448 0)
(0.00283507 0.292618 0)
(0.00882271 0.309119 0)
(-0.00409717 0.310943 0)
(-0.0195007 0.311573 0)
(-0.0378363 0.309609 0)
(-0.0590598 0.320373 0)
(-0.0696629 0.350044 0)
(-0.0711742 0.406491 0)
(-0.0540683 0.497721 0)
(-0.00371904 0.62892 0)
(0.0715195 0.787817 0)
(0.219082 1.01153 0)
(0.446095 1.20868 0)
(0.786024 1.09777 0)
(0.0308091 0.36197 0)
(0.0551015 0.324754 0)
(0.0723102 0.279155 0)
(0.0608987 0.254588 0)
(0.0454055 0.241365 0)
(0.0317629 0.241677 0)
(0.0171685 0.241783 0)
(0.00714749 0.255162 0)
(0.00209673 0.265521 0)
(0.00427767 0.288353 0)
(0.0109061 0.307447 0)
(0.0128094 0.315002 0)
(0.0107064 0.316407 0)
(0.00388947 0.31804 0)
(-0.00731035 0.328444 0)
(-0.0143571 0.351066 0)
(-0.0149957 0.394274 0)
(0.000691099 0.461428 0)
(0.0459622 0.554494 0)
(0.128033 0.661865 0)
(0.277687 0.811147 0)
(0.477759 0.905504 0)
(0.774377 0.800095 0)
(0.0176736 0.330591 0)
(0.0364026 0.306429 0)
(0.0485099 0.278498 0)
(0.0451764 0.262995 0)
(0.0385323 0.252716 0)
(0.0320726 0.250499 0)
(0.0246709 0.250678 0)
(0.0202311 0.259542 0)
(0.0184118 0.267726 0)
(0.017716 0.284383 0)
(0.0248503 0.300162 0)
(0.0330288 0.308269 0)
(0.0386397 0.313237 0)
(0.0406569 0.320459 0)
(0.0400358 0.331468 0)
(0.0409576 0.350618 0)
(0.0458869 0.384858 0)
(0.0634562 0.43525 0)
(0.102234 0.501055 0)
(0.171355 0.567387 0)
(0.289119 0.648919 0)
(0.452226 0.678751 0)
(0.661004 0.605013 0)
(0.0102963 0.310383 0)
(0.0247687 0.292186 0)
(0.0354329 0.274548 0)
(0.0364671 0.264175 0)
(0.0349379 0.257057 0)
(0.0319993 0.254629 0)
(0.0281828 0.255264 0)
(0.0263861 0.261319 0)
(0.0262574 0.268444 0)
(0.0286792 0.280493 0)
(0.0363935 0.291285 0)
(0.0454217 0.299587 0)
(0.0538528 0.307006 0)
(0.06084 0.316523 0)
(0.0667812 0.328052 0)
(0.0740903 0.346606 0)
(0.0828144 0.374464 0)
(0.105013 0.410214 0)
(0.144334 0.453151 0)
(0.203184 0.494414 0)
(0.28909 0.533553 0)
(0.405027 0.530131 0)
(0.538027 0.477359 0)
(0.00700081 0.296274 0)
(0.0186238 0.279908 0)
(0.0274484 0.269224 0)
(0.0302032 0.262982 0)
(0.0311587 0.258524 0)
(0.0305565 0.25686 0)
(0.0294243 0.257327 0)
(0.0293623 0.261378 0)
(0.0304537 0.266442 0)
(0.0341758 0.274613 0)
(0.0417698 0.283534 0)
(0.0514654 0.291563 0)
(0.0602936 0.29888 0)
(0.0701802 0.308466 0)
(0.0795316 0.32031 0)
(0.0907785 0.337779 0)
(0.105299 0.35649 0)
(0.131516 0.377859 0)
(0.169697 0.404606 0)
(0.220363 0.430636 0)
(0.287303 0.447579 0)
(0.368052 0.430542 0)
(0.455653 0.387402 0)
(0.00552484 0.285042 0)
(0.0148139 0.270445 0)
(0.0217408 0.264213 0)
(0.0257679 0.260479 0)
(0.0285482 0.257346 0)
(0.0306502 0.256464 0)
(0.0314658 0.257351 0)
(0.0332171 0.260246 0)
(0.0356059 0.264237 0)
(0.0395147 0.269472 0)
(0.0456453 0.275393 0)
(0.0545034 0.282155 0)
(0.0628906 0.289071 0)
(0.0731994 0.298113 0)
(0.085224 0.30871 0)
(0.100533 0.322157 0)
(0.120957 0.335744 0)
(0.146229 0.348251 0)
(0.179767 0.363829 0)
(0.222985 0.378209 0)
(0.27799 0.381784 0)
(0.33747 0.360866 0)
(0.399859 0.321999 0)
(0.00449716 0.276139 0)
(0.0121271 0.262626 0)
(0.0189478 0.25867 0)
(0.0238936 0.25602 0)
(0.0277944 0.25472 0)
(0.0309579 0.254548 0)
(0.0342183 0.255015 0)
(0.037834 0.257274 0)
(0.0420342 0.26023 0)
(0.0472782 0.264172 0)
(0.0532336 0.268002 0)
(0.0614487 0.273081 0)
(0.0705569 0.279844 0)
(0.0810816 0.28609 0)
(0.0939702 0.293354 0)
(0.109957 0.301533 0)
(0.131877 0.31035 0)
(0.156901 0.318783 0)
(0.187018 0.326338 0)
(0.224412 0.331654 0)
(0.269601 0.328668 0)
(0.316691 0.307251 0)
(0.36338 0.27109 0)
(0.00402929 0.268325 0)
(0.0108336 0.255574 0)
(0.0172155 0.252937 0)
(0.022384 0.251401 0)
(0.0270586 0.250487 0)
(0.0313963 0.250265 0)
(0.0358601 0.250792 0)
(0.0407075 0.252591 0)
(0.0463204 0.255115 0)
(0.0528209 0.258232 0)
(0.060029 0.261327 0)
(0.067973 0.265306 0)
(0.078164 0.26984 0)
(0.0899043 0.274486 0)
(0.103657 0.27918 0)
(0.120097 0.283876 0)
(0.138606 0.288789 0)
(0.161128 0.293043 0)
(0.188336 0.29501 0)
(0.221252 0.294699 0)
(0.256999 0.287069 0)
(0.296629 0.266264 0)
(0.33286 0.235086 0)
(0.00352033 0.261435 0)
(0.0097252 0.249152 0)
(0.0156211 0.247272 0)
(0.0210094 0.246234 0)
(0.0260813 0.245579 0)
(0.031043 0.245442 0)
(0.0359889 0.245795 0)
(0.0413728 0.246807 0)
(0.0475822 0.248376 0)
(0.0546028 0.251099 0)
(0.0623823 0.253604 0)
(0.0706178 0.255418 0)
(0.0807112 0.258075 0)
(0.0926779 0.26114 0)
(0.106742 0.263893 0)
(0.122288 0.26682 0)
(0.140955 0.268767 0)
(0.16262 0.268143 0)
(0.187744 0.266113 0)
(0.214675 0.261468 0)
(0.245597 0.25164 0)
(0.277233 0.230875 0)
(0.306236 0.204501 0)
(0.00341355 0.254759 0)
(0.00951875 0.243056 0)
(0.0152228 0.24162 0)
(0.020711 0.240973 0)
(0.0260063 0.240532 0)
(0.0313299 0.240384 0)
(0.0367797 0.240525 0)
(0.0426119 0.241048 0)
(0.0490185 0.241883 0)
(0.0560634 0.243179 0)
(0.0642927 0.244798 0)
(0.0735642 0.246151 0)
(0.0837128 0.247407 0)
(0.0951645 0.248129 0)
(0.108368 0.248732 0)
(0.123826 0.249642 0)
(0.141273 0.248479 0)
(0.160674 0.246594 0)
(0.181302 0.242184 0)
(0.205363 0.235625 0)
(0.23176 0.222323 0)
(0.257502 0.203444 0)
(0.280375 0.182225 0)
(0.00322188 0.248673 0)
(0.0090221 0.237354 0)
(0.0146639 0.236207 0)
(0.0202051 0.235723 0)
(0.0255905 0.235222 0)
(0.031055 0.234783 0)
(0.036765 0.234616 0)
(0.0427882 0.234661 0)
(0.0493005 0.23493 0)
(0.0563729 0.235517 0)
(0.0646396 0.236227 0)
(0.0739697 0.236554 0)
(0.0841154 0.236867 0)
(0.0957669 0.236528 0)
(0.10761 0.235949 0)
(0.121462 0.23382 0)
(0.137123 0.231309 0)
(0.154918 0.227197 0)
(0.174768 0.220161 0)
(0.196017 0.21052 0)
(0.218002 0.198982 0)
(0.238163 0.18278 0)
(0.258386 0.161129 0)
(0.00307314 0.242459 0)
(0.00870986 0.231458 0)
(0.0142665 0.23033 0)
(0.0198951 0.229862 0)
(0.0254882 0.229483 0)
(0.031162 0.229154 0)
(0.0370252 0.228791 0)
(0.0432023 0.228458 0)
(0.049873 0.228234 0)
(0.057115 0.228126 0)
(0.0650829 0.227499 0)
(0.0733053 0.226901 0)
(0.0828678 0.225726 0)
(0.0934598 0.224654 0)
(0.105687 0.222203 0)
(0.119562 0.219147 0)
(0.134145 0.215064 0)
(0.149956 0.208802 0)
(0.166814 0.20167 0)
(0.18347 0.191999 0)
(0.202325 0.17862 0)
(0.221138 0.162062 0)
(0.23815 0.144215 0)
(0.00294203 0.236869 0)
(0.00838081 0.226112 0)
(0.013754 0.224991 0)
(0.0192408 0.224453 0)
(0.0246949 0.223896 0)
(0.0303381 0.223333 0)
(0.0361502 0.22264 0)
(0.0422424 0.221921 0)
(0.0487251 0.221152 0)
(0.0558658 0.220294 0)
(0.0637663 0.219502 0)
(0.0726297 0.21802 0)
(0.0820271 0.215875 0)
(0.0921405 0.213316 0)
(0.103089 0.210232 0)
(0.11466 0.206238 0)
(0.127467 0.200635 0)
(0.141468 0.194257 0)
(0.156647 0.18502 0)
(0.172813 0.173739 0)
(0.188852 0.161425 0)
(0.203923 0.146501 0)
(0.219004 0.128562 0)
(0.00286231 0.231089 0)
(0.00822805 0.220582 0)
(0.0135453 0.219547 0)
(0.0189786 0.219034 0)
(0.0243851 0.218422 0)
(0.0299962 0.217674 0)
(0.0357791 0.216772 0)
(0.0418205 0.215708 0)
(0.0481815 0.214438 0)
(0.055003 0.212937 0)
(0.0622422 0.211182 0)
(0.070064 0.209109 0)
(0.0785966 0.206617 0)
(0.0879701 0.203323 0)
(0.0980602 0.19911 0)
(0.109417 0.193544 0)
(0.121638 0.187186 0)
(0.13432 0.179362 0)
(0.147526 0.1707 0)
(0.160562 0.160044 0)
(0.174174 0.146735 0)
(0.18792 0.131605 0)
(0.201007 0.11508 0)
(0.00271416 0.225806 0)
(0.0077955 0.215434 0)
(0.0128644 0.214304 0)
(0.0180847 0.213699 0)
(0.0233097 0.212954 0)
(0.0287207 0.212006 0)
(0.0343131 0.210894 0)
(0.0401673 0.209612 0)
(0.0463325 0.208093 0)
(0.0528753 0.206291 0)
(0.0599168 0.204102 0)
(0.0676359 0.201422 0)
(0.0758418 0.197989 0)
(0.0846288 0.193926 0)
(0.0940182 0.188984 0)
(0.103876 0.18311 0)
(0.114138 0.176271 0)
(0.125025 0.168078 0)
(0.136546 0.158098 0)
(0.148566 0.146581 0)
(0.160596 0.133937 0)
(0.172202 0.119347 0)
(0.183636 0.103108 0)
(0.0026103 0.220502 0)
(0.00758888 0.210316 0)
(0.0125313 0.209134 0)
(0.0176229 0.208478 0)
(0.022702 0.207617 0)
(0.0279218 0.206512 0)
(0.0332613 0.205162 0)
(0.0387905 0.203535 0)
(0.0445712 0.201579 0)
(0.0506654 0.199274 0)
(0.0571223 0.196547 0)
(0.0640197 0.193392 0)
(0.0713837 0.189585 0)
(0.0792966 0.184959 0)
(0.087782 0.17951 0)
(0.0967593 0.172964 0)
(0.106293 0.16539 0)
(0.116204 0.156893 0)
(0.126238 0.147126 0)
(0.136445 0.135825 0)
(0.146688 0.122835 0)
(0.156908 0.108408 0)
(0.166794 0.0926802 0)
(0.00244179 0.215639 0)
(0.00715925 0.205568 0)
(0.0118629 0.204323 0)
(0.01671 0.203633 0)
(0.0215396 0.202727 0)
(0.0264946 0.201561 0)
(0.0315509 0.200116 0)
(0.036775 0.198335 0)
(0.0422179 0.196179 0)
(0.0479207 0.193582 0)
(0.0539276 0.190489 0)
(0.0602904 0.186772 0)
(0.0670823 0.182405 0)
(0.0742486 0.177345 0)
(0.0818068 0.171484 0)
(0.0897129 0.164613 0)
(0.0979341 0.156769 0)
(0.106464 0.147824 0)
(0.115243 0.137546 0)
(0.124238 0.126005 0)
(0.133146 0.11323 0)
(0.141898 0.0990575 0)
(0.150366 0.0836304 0)
(0.00233697 0.210846 0)
(0.00686032 0.200757 0)
(0.0113371 0.199452 0)
(0.015953 0.198717 0)
(0.0205151 0.197722 0)
(0.0251854 0.196453 0)
(0.0299129 0.19487 0)
(0.0347388 0.192912 0)
(0.0396943 0.190534 0)
(0.0448882 0.187652 0)
(0.0503349 0.184268 0)
(0.0560613 0.180328 0)
(0.0621292 0.175732 0)
(0.0685351 0.170337 0)
(0.0752412 0.164084 0)
(0.0822041 0.156862 0)
(0.0893971 0.148672 0)
(0.0968103 0.139488 0)
(0.104398 0.129234 0)
(0.112064 0.117763 0)
(0.119668 0.105035 0)
(0.127144 0.0910445 0)
(0.134333 0.075891 0)
(0.00218128 0.206431 0)
(0.0064932 0.196543 0)
(0.0107124 0.195217 0)
(0.0150596 0.194491 0)
(0.0193153 0.193464 0)
(0.0236732 0.192135 0)
(0.0280765 0.190439 0)
(0.0325869 0.188347 0)
(0.0371923 0.185811 0)
(0.0419089 0.182767 0)
(0.0467676 0.179109 0)
(0.0517574 0.174792 0)
(0.056966 0.169717 0)
(0.0624613 0.16397 0)
(0.068241 0.157533 0)
(0.0743056 0.150253 0)
(0.0806076 0.141957 0)
(0.0870111 0.132612 0)
(0.0934343 0.122168 0)
(0.0999107 0.110668 0)
(0.106347 0.0980588 0)
(0.112627 0.0842767 0)
(0.118614 0.06937 0)
(0.00210681 0.202094 0)
(0.00610215 0.192253 0)
(0.00994342 0.190844 0)
(0.0139636 0.190114 0)
(0.0178785 0.18906 0)
(0.02191 0.187687 0)
(0.0260205 0.186022 0)
(0.0302271 0.183941 0)
(0.0344991 0.181349 0)
(0.0388137 0.178252 0)
(0.0431735 0.174528 0)
(0.0476011 0.170087 0)
(0.0521408 0.164917 0)
(0.0567923 0.15898 0)
(0.0615817 0.15212 0)
(0.0664781 0.144365 0)
(0.0715551 0.135835 0)
(0.0768866 0.126547 0)
(0.0824172 0.116273 0)
(0.0878724 0.104825 0)
(0.0931838 0.0922569 0)
(0.0983453 0.0786361 0)
(0.103214 0.0639887 0)
(0.00205695 0.198179 0)
(0.00571812 0.188639 0)
(0.00905629 0.187301 0)
(0.0126625 0.18657 0)
(0.0161432 0.185456 0)
(0.0197537 0.184004 0)
(0.023457 0.182141 0)
(0.0272648 0.179896 0)
(0.0311584 0.177219 0)
(0.0351119 0.174072 0)
(0.0390969 0.170351 0)
(0.0431099 0.16595 0)
(0.0471488 0.160797 0)
(0.0511243 0.154787 0)
(0.0550972 0.147939 0)
(0.0590998 0.140215 0)
(0.0631994 0.131496 0)
(0.067296 0.121664 0)
(0.0713759 0.11104 0)
(0.0756896 0.09977 0)
(0.0801253 0.0875318 0)
(0.0842927 0.0741443 0)
(0.0881127 0.0597155 0)
(0.00203842 0.194408 0)
(0.00510953 0.185439 0)
(0.00774645 0.183996 0)
(0.010734 0.183229 0)
(0.0135917 0.182061 0)
(0.0166333 0.180492 0)
(0.0197435 0.178497 0)
(0.0230036 0.176138 0)
(0.0264079 0.173427 0)
(0.0299507 0.170229 0)
(0.0335588 0.16647 0)
(0.0371439 0.162038 0)
(0.0406755 0.156849 0)
(0.0442477 0.150907 0)
(0.0478324 0.144135 0)
(0.0513849 0.136468 0)
(0.0548625 0.12787 0)
(0.0580901 0.118391 0)
(0.061271 0.107832 0)
(0.0643556 0.0960675 0)
(0.067209 0.0835823 0)
(0.0703416 0.0705032 0)
(0.0732694 0.0564591 0)
(0.00192674 0.190907 0)
(0.0041946 0.182987 0)
(0.00558502 0.181669 0)
(0.0076462 0.180772 0)
(0.00956707 0.17948 0)
(0.011812 0.177799 0)
(0.0141117 0.175682 0)
(0.0166548 0.173121 0)
(0.0194626 0.170102 0)
(0.0225109 0.166696 0)
(0.0258158 0.162875 0)
(0.0293054 0.158511 0)
(0.0327903 0.153434 0)
(0.036171 0.147551 0)
(0.0394002 0.140826 0)
(0.0423995 0.133168 0)
(0.0452036 0.124627 0)
(0.0480693 0.11524 0)
(0.0508423 0.104928 0)
(0.0532652 0.0937804 0)
(0.0554312 0.0815108 0)
(0.0571856 0.0680488 0)
(0.0587528 0.0540219 0)
(0.00151893 0.188299 0)
(0.00244733 0.181384 0)
(0.00252661 0.180022 0)
(0.00324379 0.17888 0)
(0.00383282 0.177435 0)
(0.0048891 0.175619 0)
(0.00603399 0.173348 0)
(0.00745526 0.170649 0)
(0.00907181 0.167534 0)
(0.0110914 0.16388 0)
(0.0134804 0.15974 0)
(0.0162702 0.155075 0)
(0.0194704 0.149882 0)
(0.0229301 0.144078 0)
(0.026556 0.137554 0)
(0.0301827 0.130263 0)
(0.0336016 0.122088 0)
(0.0365918 0.112903 0)
(0.039039 0.102729 0)
(0.0411909 0.0916801 0)
(0.0430792 0.0797814 0)
(0.0444964 0.067138 0)
(0.0450658 0.0533557 0)
(0.0010395 0.186797 0)
(0.000579021 0.182054 0)
(-0.00112414 0.18101 0)
(-0.00191636 0.179631 0)
(-0.00282872 0.177944 0)
(-0.00321826 0.175815 0)
(-0.00330527 0.173247 0)
(-0.00301337 0.170166 0)
(-0.00228135 0.166538 0)
(-0.00120008 0.162363 0)
(0.000266086 0.157673 0)
(0.00215688 0.152548 0)
(0.00445278 0.146909 0)
(0.00711811 0.140668 0)
(0.0101562 0.133817 0)
(0.0134888 0.126356 0)
(0.0169857 0.118222 0)
(0.0205071 0.109414 0)
(0.023871 0.0998466 0)
(0.0267667 0.0894739 0)
(0.0289391 0.0782385 0)
(0.0303295 0.0660085 0)
(0.030921 0.0528561 0)