/*--------------------------------*- C++ -*----------------------------------*\
| =========                 |                                                 |
| \\      /  F ield         | OpenFOAM: The Open Source CFD Toolbox           |
|  \\    /   O peration     | Version:  2.4.0                                 |
|   \\  /    A nd           | Web:      www.OpenFOAM.org                      |
|    \\/     M anipulation  |                                                 |
\*---------------------------------------------------------------------------*/
FoamFile
{
    version     2.0;
    format      ascii;
    class       volScalarField;
    location    "0.15";
    object      alpha.air;
}
// * * * * * * * * * * * * * * * * * * * * * * * * * * * * * * * * * * * * * //

dimensions      [0 0 0 0 0 0 0];

internalField   nonuniform List<scalar> 
559
(
2.07943e-24
2.65368e-23
1.14002e-22
2.4263e-22
2.42449e-22
1.62476e-22
9.1084e-23
1.01535e-22
1.00001
1.00001
1
0.999741
0.986146
0.852858
0.605099
0.528325
0.493804
0.562164
0.682323
0.672342
0.787539
0.936931
0.992385
0.999729
1
1
1
1.00001
1.00001
1
0.999113
0.939126
0.418757
0.0868777
0.0601972
0.0609743
0.0916859
0.143767
0.666336
0.976377
0.99902
0.99961
0.999956
1
1.00001
1.00001
1.00001
1
0.999992
0.994559
0.689018
0.0904105
0.0020753
0.000708355
0.00162172
0.0410094
0.57678
0.965493
0.999634
1
1
1
1
1.00001
1.00001
1.00001
1
0.999905
0.949172
0.377631
0.0233048
0.000197507
0.000196228
0.00671809
0.30456
0.900624
0.998134
0.999998
1
1
1
1
1.00001
1.00001
1.00001
1
0.996412
0.762752
0.152726
0.00449265
3.98003e-05
0.000451395
0.0428346
0.588145
0.96668
0.999638
1
1
1
1
1.00001
1.00001
1.00001
1.00001
0.999979
0.935457
0.398854
0.0329335
0.00037349
1.59022e-05
0.0009667
0.1069
0.690517
0.98011
0.99985
1
1
1
1
1.00001
1.00001
1.00001
1.00001
0.967704
0.594061
0.088699
0.0020041
1.05744e-05
7.46959e-06
0.00200266
0.17754
0.781424
0.990897
0.99997
1
1
1
1.00001
1.00001
1.00001
1.00001
0.901202
0.588722
0.12363
0.00559623
4.79127e-05
2.25885e-06
2.45616e-06
0.00547384
0.315532
0.880925
0.997354
0.999998
1
1
1
1.00001
1.00001
1.00001
1.00001
5.48165e-22
3.38746e-21
2.06037e-19
1.20771e-13
1.12111e-11
4.44053e-10
3.04311e-09
9.90062e-09
2.79851e-22
7.21003e-21
4.16574e-19
0.00147143
1.59133e-21
8.4975e-21
2.98866e-18
1.21717e-05
9.42958e-19
4.81693e-17
6.72613e-15
8.79702e-14
3.26115e-13
1.03377e-12
1.34403e-12
2.32317e-12
2.16416e-11
2.93626e-11
5.60314e-11
5.49064e-11
5.38298e-10
5.04948e-10
4.97555e-10
2.5995e-10
3.20071e-09
3.31122e-09
2.2439e-09
9.52681e-10
8.87342e-09
8.37751e-09
6.01444e-09
7.24592e-09
2.8084e-08
2.86328e-08
8.12865e-08
4.73392e-06
9.18878e-07
1.15106e-05
0.000187876
0.00388929
0.0010128
0.00574357
0.0392116
0.220569
0.0924383
0.241811
0.610594
0.944881
0.760103
0.968988
0.999154
0.999995
0.999984
0.99995
0.999986
1
1
1
1
1
1
1
1
1
1
1
1
1
0.0189561
0.00336046
6.88111e-05
1.05202e-07
4.63602e-08
1.36307e-06
0.00057461
0.0622435
0.574074
0.959407
0.999607
1
1
1
1.00001
1.00001
1.00001
1.00001
1
1.93264e-06
2.73472e-08
4.68785e-11
1.72192e-09
8.16822e-08
4.12868e-05
0.0115128
0.307179
0.863994
0.996261
0.999995
1
1
1
1.00001
1.00001
1
1
1
3.97759e-13
7.02152e-13
7.16954e-12
9.90134e-09
4.94159e-06
0.0017628
0.13218
0.714022
0.983278
0.999923
1
1
1
1
1
1
1
1
1
3.12827e-12
4.83559e-12
1.79211e-09
1.23328e-06
0.000480562
0.0521259
0.556553
0.956925
0.99961
1
1
1
1
1
1
1
1
1
1
1.86033e-11
5.33175e-10
3.39535e-07
0.000184947
0.0242336
0.419966
0.917327
0.99846
0.999999
1
1
1
1
1
1
1
1
1
1
1.83653e-10
1.3288e-07
8.9316e-05
0.0132029
0.335783
0.893145
0.997904
0.999995
1
1
1
1
1
1
1
1
1
1
1
2.15023e-08
5.84911e-05
0.00986236
0.279049
0.866041
0.996831
0.999996
1
1
1
1
1
1
1
1
1
1
1
1
2.23219e-05
0.00889868
0.252044
0.855491
0.996711
0.999994
0.999999
1
1
1
1
1
1
1
1
1
1
1
1
0.0057074
0.243764
0.853872
0.996993
0.999995
0.999999
0.999999
1
1
1
1
1
1
1
1
1
1
1
1
0.202743
0.859624
0.997909
0.999996
0.999999
0.999999
0.999999
1
1
1
1
1
1
1
1
1
1
1
1
0.849265
0.998843
0.999998
0.999998
0.999998
0.999999
0.999999
1
1
1
1
1
1
1
1
1
1
1
1
0.998911
0.999999
0.999999
0.999998
0.999998
0.999999
1
1
1
1
1
1
1
1
1
1
1
1
1
0.999998
0.999999
0.999999
0.999998
0.999999
0.999999
1
1
1
1
1
1
1
1
1
1
1
1
1
1
0.999999
0.999999
0.999999
0.999999
1
1
1
1
1
1
1
1
1
1
1
1
1
1
1
1
0.999999
0.999999
0.999999
1
1
1
1
1
0.999999
1
1
1
1
1
1
1
1
1
1
1
1
1
0.999999
0.999999
0.999999
0.999999
0.999999
0.999999
0.999999
1
1
1
1
1
1
1
1
1
1
1
0.999999
0.999999
0.999999
0.999999
0.999998
0.999998
0.999998
0.999999
0.999999
0.999999
0.999999
1
1
1
1
)
;

boundaryField
{
    leftWall
    {
        type            alphaContactAngle;
        thetaProperties 
6
(

(
water
mercury
)
 90 0 0 0

(
water
air
)
 90 0 0 0

(
water
oil
)
 90 0 0 0

(
mercury
air
)
 90 0 0 0

(
oil
mercury
)
 90 0 0 0

(
oil
air
)
 90 0 0 0
);
        value           nonuniform 0();
    }
    rightWall
    {
        type            alphaContactAngle;
        thetaProperties 
6
(

(
water
mercury
)
 90 0 0 0

(
water
air
)
 90 0 0 0

(
water
oil
)
 90 0 0 0

(
mercury
air
)
 90 0 0 0

(
oil
mercury
)
 90 0 0 0

(
oil
air
)
 90 0 0 0
);
        value           nonuniform List<scalar> 
25
(
1
1.00001
1.00001
1.00001
1.00001
1.00001
1.00001
1.00001
1
1
1
1
1
1
1
1
1
1
1
1
1
1
1
1
1
)
;
    }
    lowerWall
    {
        type            alphaContactAngle;
        thetaProperties 
6
(

(
water
mercury
)
 90 0 0 0

(
water
air
)
 90 0 0 0

(
water
oil
)
 90 0 0 0

(
mercury
air
)
 90 0 0 0

(
oil
mercury
)
 90 0 0 0

(
oil
air
)
 90 0 0 0
);
        value           nonuniform List<scalar> 
40
(
2.07943e-24
2.07943e-24
2.65368e-23
1.14002e-22
2.4263e-22
2.42449e-22
1.62476e-22
9.1084e-23
1.01535e-22
2.79851e-22
7.21003e-21
4.16574e-19
0.00147143
1.00001
1.00001
1.00001
1.00001
1.00001
1.00001
1.00001
0.901202
1.00001
1.00001
1
0.999741
0.986146
0.852858
0.605099
0.528325
0.493804
0.562164
0.682323
0.672342
0.787539
0.936931
0.992385
0.999729
1
1
1
)
;
    }
    atmosphere
    {
        type            inletOutlet;
        inletValue      nonuniform 0();
        value           nonuniform 0();
    }
    defaultFaces
    {
        type            empty;
    }
    procBoundary1to0
    {
        type            processor;
        value           nonuniform List<scalar> 
26
(
1.00529e-23
1.4335e-22
7.33535e-22
2.20803e-21
3.17665e-21
4.27978e-21
4.46194e-21
3.8765e-21
4.42278e-21
2.07613e-20
6.19915e-19
5.0494e-14
3.94133e-12
2.66215e-10
2.29868e-09
1.0179e-08
2.63468e-08
2.63468e-08
1.00633e-07
7.20622e-05
0.0154619
0.344021
0.971859
0.999999
1
1
)
;
    }
    procBoundary1to3
    {
        type            processor;
        value           nonuniform List<scalar> 
23
(
1
1
1
1
1
1
1
1
1
0.999999
0.999999
0.999998
0.999998
0.999998
0.999998
0.999999
0.999999
0.999999
0.999999
0.999999
1
1
1
)
;
    }
}


// ************************************************************************* //
