/*--------------------------------*- C++ -*----------------------------------*\
| =========                 |                                                 |
| \\      /  F ield         | OpenFOAM: The Open Source CFD Toolbox           |
|  \\    /   O peration     | Version:  2.4.0                                 |
|   \\  /    A nd           | Web:      www.OpenFOAM.org                      |
|    \\/     M anipulation  |                                                 |
\*---------------------------------------------------------------------------*/
FoamFile
{
    version     2.0;
    format      ascii;
    class       volScalarField;
    location    "0.15";
    object      alphas;
}
// * * * * * * * * * * * * * * * * * * * * * * * * * * * * * * * * * * * * * //

dimensions      [0 0 0 0 0 0 0];

internalField   nonuniform List<scalar> 
559
(
1.91379
1.84799
1.59756
1.22606
1.03826
1.00246
1.00005
1
3.00003
3.00003
3.00001
2.99949
2.9723
2.70573
2.21021
2.05666
1.98762
2.12433
2.36465
2.34469
2.57508
2.87387
2.98478
2.99947
3.00001
3.00001
3.00002
3.00004
3.00002
3.00001
2.99824
2.87826
1.83752
1.17376
1.1204
1.12196
1.18338
1.28754
2.33268
2.95276
2.99805
2.99923
2.99992
3.00001
3.00002
3.00002
3.00003
3.00001
3
2.98913
2.37804
1.18083
1.00415
1.00142
1.00325
1.08202
2.15356
2.93099
2.99928
3.00001
3.00001
3.00001
3.00001
3.00002
3.00002
3.00003
3.00001
2.99982
2.89835
1.75527
1.04661
1.0004
1.00039
1.01344
1.60912
2.80125
2.99627
3
3.00001
3.00001
3.00001
3.00002
3.00002
3.00002
3.00003
3.00001
2.99283
2.52551
1.30546
1.00899
1.00008
1.0009
1.08567
2.17629
2.93336
2.99928
3.00001
3.00001
3.00001
3.00001
3.00002
3.00002
3.00002
3.00003
2.99997
2.87092
1.79771
1.06587
1.00075
1.00003
1.00193
1.2138
2.38104
2.96022
2.9997
3.00001
3.00001
3.00001
3.00002
3.00002
3.00002
3.00002
3.00002
2.93542
2.18813
1.1774
1.00401
1.00002
1.00001
1.00401
1.35508
2.56285
2.9818
2.99994
3.00001
3.00001
3.00001
3.00002
3.00002
3.00002
3.00002
2.80242
2.17745
1.24726
1.01119
1.0001
1
1
1.01095
1.63106
2.76185
2.99471
3
3.00001
3.00001
3.00002
3.00002
3.00002
3.00002
3.00002
0.999999
0.999999
1
1
1
1
1
1
0.999999
0.999999
0.999999
1.00294
0.999999
0.999999
0.999999
1.00002
1
1
1
1
1
1
1
1
1
1
1
1
1
1
1
1
1
1
1
1
1
1
1
1
1
1
1
1.00001
1
1.00002
1.00038
1.00778
1.00203
1.01149
1.07842
1.44114
1.18488
1.48362
2.22119
2.88976
2.52021
2.93798
2.99831
2.99999
2.99997
2.9999
2.99997
3
3
3
3
3
3
3
3
3
3
3
3
3
1.03791
1.00672
1.00014
0.999999
0.999999
1
1.00115
1.12449
2.14815
2.91882
2.99922
3.00001
3.00001
3.00001
3.00002
3.00002
3.00002
3.00002
3.00001
1
0.999999
0.999999
0.999999
1
1.00008
1.02303
1.61436
2.72799
2.99252
2.99999
3.00001
3.00001
3.00002
3.00002
3.00002
3.00001
3.00001
3.00001
1
1
1
1
1.00001
1.00353
1.26436
2.42804
2.96656
2.99985
3
3.00001
3.00001
3.00001
3.00001
3.00001
3.00001
3.00001
3.00001
1
1
1
1
1.00096
1.10425
2.11311
2.91385
2.99922
3
3.00001
3.00001
3.00001
3.00001
3.00001
3.00001
3.00001
3.00001
3.00001
1
1
1
1.00037
1.04847
1.83993
2.83466
2.99692
3
3
3.00001
3.00001
3.00001
3.00001
3.00001
3.00001
3.00001
3.00001
3
1
1
1.00018
1.02641
1.67157
2.78629
2.99581
2.99999
3
3
3.00001
3.00001
3.00001
3.00001
3.00001
3.00001
3
3
3
1
1.00012
1.01972
1.5581
2.73208
2.99366
2.99999
3
3
3
3.00001
3.00001
3.00001
3.00001
3
3
3
3
3
1.00004
1.0178
1.50409
2.71098
2.99342
2.99999
3
3
3
3
3.00001
3.00001
3.00001
3
3
3
3
3
3
1.01141
1.48753
2.70774
2.99399
2.99999
3
3
3
3
3.00001
3.00001
3.00001
3
3
3
3
3
3
3
1.40549
2.71925
2.99582
2.99999
3
3
3
3
3
3.00001
3.00001
3
3
3
3
3
3
3
3
2.69853
2.99769
2.99999
3
3
3
3
3
3
3
3
3
3
3
3
3
3
3
3
2.99782
3
3
3
3
3
3
3
3
3
3
3
3
3
3
3
3
3
3
3
3
3
3
3
3
3
3
3
3
3
3
3
3
3
3
3
3
3
3
3
3
3
3
3
3
3
3
3
3
3
3
3
3
3
3
3
3
3
3
3
3
3
3
3
3
3
3
3
3
3
3
3
3
3
3
3
3
3
3
3
3
3
3
3
3
3
3
3
3
3
3
3
3
3
3
3
3
3
3
3
3
3
3
2.99999
3
3
3
3
3
3
3
3
3
3
)
;

boundaryField
{
    leftWall
    {
        type            zeroGradient;
    }
    rightWall
    {
        type            zeroGradient;
    }
    lowerWall
    {
        type            zeroGradient;
    }
    atmosphere
    {
        type            zeroGradient;
    }
    defaultFaces
    {
        type            empty;
    }
    procBoundary1to0
    {
        type            processor;
        value           nonuniform List<scalar> 
26
(
1.96178
1.86413
1.41341
1.03919
1.00058
1
1
1
1
1
1
1
1
1
1
1
1
1
1
1.00014
1.03092
1.68804
2.94372
3
3
3
)
;
    }
    procBoundary1to3
    {
        type            processor;
        value           nonuniform List<scalar> 
23
(
3
3
3
3
3
3
3
3
3
3
3
2.99999
2.99999
2.99999
3
3
3
3
3
3
3
3
3
)
;
    }
}


// ************************************************************************* //
