/*--------------------------------*- C++ -*----------------------------------*\
| =========                 |                                                 |
| \\      /  F ield         | OpenFOAM: The Open Source CFD Toolbox           |
|  \\    /   O peration     | Version:  2.4.0                                 |
|   \\  /    A nd           | Web:      www.OpenFOAM.org                      |
|    \\/     M anipulation  |                                                 |
\*---------------------------------------------------------------------------*/
FoamFile
{
    version     2.0;
    format      ascii;
    class       volScalarField;
    location    "0.15";
    object      alpha.oil;
}
// * * * * * * * * * * * * * * * * * * * * * * * * * * * * * * * * * * * * * //

dimensions      [0 0 0 0 0 0 0];

internalField   nonuniform List<scalar> 
559
(
0.0862084
0.152008
0.40244
0.773933
0.961739
0.99754
0.99995
0.999998
1.60496e-06
8.14072e-06
1.28289e-05
0.000270423
0.0138637
0.147151
0.394909
0.471683
0.506203
0.437844
0.317684
0.327664
0.212467
0.0630754
0.00762177
0.000278524
7.46083e-06
2.31844e-06
2.08101e-07
2.59819e-06
9.28207e-06
1.33248e-05
0.000898957
0.0608822
0.58125
0.913129
0.939809
0.939032
0.908321
0.856241
0.333672
0.0236312
0.000987074
0.000397245
5.17949e-05
7.41369e-06
1.58218e-06
1.17354e-07
4.5488e-06
1.44769e-05
2.16156e-05
0.00545111
0.310989
0.909594
0.997928
0.999295
0.998382
0.958995
0.423225
0.034513
0.000372553
7.23702e-06
7.69128e-06
7.86677e-06
4.2917e-06
8.22524e-07
5.88884e-08
5.17799e-06
1.43898e-05
0.000108741
0.0508353
0.622374
0.976698
0.999804
0.999805
0.993284
0.695442
0.0993794
0.0018713
8.02887e-06
7.05153e-06
7.49178e-06
6.40402e-06
2.52241e-06
4.36723e-07
2.91403e-08
6.06762e-06
1.41512e-05
0.00359901
0.237255
0.847277
0.995509
0.999961
0.999549
0.957166
0.411856
0.0333231
0.000366824
6.50473e-06
7.0251e-06
6.98042e-06
4.67347e-06
1.4875e-06
2.27723e-07
1.38479e-08
7.4661e-06
3.44153e-05
0.0645516
0.60115
0.967069
0.999627
0.999984
0.999033
0.8931
0.309484
0.019893
0.000154998
6.57353e-06
6.92929e-06
6.03302e-06
3.14872e-06
8.36106e-07
1.12679e-07
6.18837e-09
9.59209e-06
0.0323064
0.405945
0.911304
0.997997
0.999989
0.999992
0.997997
0.82246
0.218577
0.00910563
3.5402e-05
6.70959e-06
6.48712e-06
4.69401e-06
1.94316e-06
4.3827e-07
5.21143e-08
2.57997e-09
0.098811
0.411285
0.876372
0.994404
0.999952
0.999997
0.999997
0.994526
0.684468
0.119076
0.00264959
8.16847e-06
6.41614e-06
5.51996e-06
3.22941e-06
1.09038e-06
2.12282e-07
2.23997e-08
1.00235e-09
0.999999
0.999999
1
1
1
1
1
1
0.999999
0.999999
0.999998
0.998527
0.999999
0.999999
0.999999
0.999987
1
1
1
1
1
1
1
1
1
1
1
1
1
1
1
1
1
1
1
1
1
1
1
1
1
1
1
0.999995
0.999999
0.999989
0.999812
0.996111
0.998987
0.994257
0.960789
0.779431
0.907562
0.75819
0.389407
0.0551194
0.239898
0.0310124
0.000846636
4.98961e-06
1.6709e-05
5.11592e-05
1.49086e-05
6.10383e-07
1.09157e-06
7.35907e-07
4.73588e-07
2.36827e-07
7.51517e-07
5.41284e-07
3.34897e-07
1.84299e-07
4.33957e-07
3.10695e-07
1.87031e-07
1.08276e-07
0.981043
0.996638
0.99993
0.999999
0.999999
0.999998
0.999425
0.937756
0.425926
0.0405941
0.000396952
6.19261e-06
4.38501e-06
3.04995e-06
1.32121e-06
3.47361e-07
5.58559e-08
5.03795e-09
1.97682e-10
0.999997
0.999999
0.999999
0.999999
0.999999
0.999958
0.988487
0.692821
0.136007
0.00374076
9.70305e-06
3.75544e-06
2.45839e-06
1.32257e-06
4.4218e-07
9.42127e-08
1.28013e-08
1.00108e-09
3.46815e-11
1
1
1
1
0.999995
0.998237
0.86782
0.285979
0.0167229
7.9546e-05
4.54043e-06
2.07157e-06
1.14938e-06
4.75909e-07
1.27931e-07
2.27327e-08
2.63487e-09
1.80599e-10
5.557e-12
1
1
1
0.999998
0.999519
0.947874
0.443448
0.0430752
0.000390763
2.48485e-06
2.42722e-06
1.04193e-06
4.60216e-07
1.49796e-07
3.32498e-08
5.02715e-09
5.0143e-10
3.00769e-11
8.24351e-13
1
1
0.999999
0.999815
0.975767
0.580035
0.0826736
0.00154021
1.75716e-06
1.85479e-06
1.18216e-06
4.58197e-07
1.615e-07
4.25024e-08
7.93687e-09
1.03359e-09
9.01403e-11
4.79796e-12
1.1747e-13
1
1
0.999911
0.986797
0.664218
0.106857
0.0020968
4.74722e-06
7.83114e-07
1.04199e-06
5.13841e-07
1.74875e-07
5.04281e-08
1.10208e-08
1.75722e-09
1.99259e-10
1.53592e-11
7.31752e-13
1.61264e-14
1
0.999941
0.990138
0.720952
0.133961
0.00317034
4.14076e-06
1.59786e-07
4.77113e-07
4.77121e-07
1.95591e-07
5.82374e-08
1.41157e-08
2.62134e-09
3.62041e-10
3.61188e-11
2.48318e-12
1.06698e-13
2.13086e-15
0.999978
0.991101
0.747956
0.14451
0.00328995
5.78545e-06
1.69299e-07
5.41482e-08
2.42045e-07
1.83735e-07
6.5041e-08
1.70355e-08
3.55417e-09
5.72148e-10
6.93728e-11
6.15463e-12
3.80541e-13
1.48493e-14
2.70191e-16
0.994293
0.756236
0.146129
0.00300772
4.44127e-06
2.21522e-07
5.59395e-08
1.68775e-08
9.97655e-08
6.06075e-08
1.89513e-08
4.40813e-09
8.06894e-10
1.14479e-10
1.23451e-11
9.8374e-13
5.51483e-14
1.96696e-15
3.27633e-17
0.797257
0.140376
0.00209134
3.21631e-06
3.16494e-07
7.88776e-08
1.83826e-08
1.00908e-08
3.42636e-08
1.73437e-08
4.86247e-09
1.01509e-09
1.65548e-10
2.09901e-11
2.0366e-12
1.47135e-13
7.53623e-15
2.47198e-16
3.78669e-18
0.150736
0.00115707
1.9313e-06
5.1029e-07
1.18017e-07
4.2126e-08
2.4553e-09
3.97659e-09
9.99897e-09
4.34505e-09
1.10499e-09
2.09042e-10
3.07668e-11
3.52764e-12
3.11062e-13
2.05493e-14
9.6834e-16
2.93852e-17
4.15751e-19
0.00108919
1.16757e-06
2.41036e-07
1.73699e-07
6.82151e-08
5.52083e-09
2.33593e-10
1.20798e-09
2.51282e-09
9.60253e-10
2.2353e-10
3.86727e-11
5.19149e-12
5.43713e-13
4.3951e-14
2.67529e-15
1.16721e-16
3.2945e-18
4.32278e-20
1.95199e-06
6.8948e-07
9.12959e-08
4.12259e-08
9.02539e-09
1.51953e-10
4.44779e-11
3.00329e-10
5.49625e-10
1.88301e-10
4.04538e-11
6.45208e-12
7.97132e-13
7.69091e-14
5.74364e-15
3.24271e-16
1.31738e-17
3.47554e-19
4.24446e-21
2.12281e-07
2.70843e-07
4.69189e-08
1.85005e-09
1.74763e-10
5.08335e-12
1.4783e-11
6.316e-11
1.05566e-10
3.29378e-11
6.57704e-12
9.74133e-13
1.11614e-13
9.9945e-15
6.9424e-16
3.65667e-17
1.39036e-18
3.44317e-20
3.92714e-22
8.94241e-08
5.46021e-08
5.48052e-09
2.26314e-11
7.77315e-12
2.94175e-12
3.75378e-12
1.15208e-11
1.79451e-11
5.16293e-12
9.64291e-13
1.33486e-13
1.4281e-14
1.19445e-15
7.76351e-17
3.83469e-18
1.37085e-19
3.19935e-21
3.41746e-23
1.06277e-07
7.26891e-09
1.74059e-10
2.03909e-11
7.04702e-12
1.63406e-12
8.96204e-13
1.87062e-12
2.71875e-12
7.28285e-13
1.27931e-13
1.66473e-14
1.67276e-15
1.31434e-16
8.03531e-18
3.73932e-19
1.26192e-20
2.78501e-22
2.79367e-24
6.75676e-08
5.52263e-09
1.1345e-10
1.99775e-11
5.07933e-12
8.21434e-13
2.26822e-13
2.79331e-13
3.69577e-13
9.28138e-14
1.54066e-14
1.89413e-15
1.79693e-16
1.33308e-17
7.70185e-19
3.39092e-20
1.08428e-21
2.27005e-23
2.14285e-25
)
;

boundaryField
{
    leftWall
    {
        type            zeroGradient;
    }
    rightWall
    {
        type            zeroGradient;
    }
    lowerWall
    {
        type            zeroGradient;
    }
    atmosphere
    {
        type            inletOutlet;
        inletValue      nonuniform 0();
        value           nonuniform 0();
    }
    defaultFaces
    {
        type            empty;
    }
    procBoundary1to0
    {
        type            processor;
        value           nonuniform List<scalar> 
26
(
0.0382203
0.135868
0.58659
0.960806
0.99942
0.999998
0.999999
0.999999
0.999999
0.999999
1
1
1
1
1
1
1
1
1
0.999928
0.984538
0.65598
0.0281419
2.61349e-06
7.79414e-07
3.63811e-07
)
;
    }
    procBoundary1to3
    {
        type            processor;
        value           nonuniform List<scalar> 
23
(
1.93144e-07
1.35381e-07
8.19128e-08
4.94417e-08
3.21037e-08
3.06906e-09
8.74911e-11
1.3986e-11
2.80988e-12
3.5452e-13
6.13154e-14
4.00173e-14
4.5397e-14
1.07296e-14
1.68951e-15
1.97104e-16
1.77351e-17
1.24784e-18
6.84123e-20
2.86034e-21
8.69442e-23
1.73156e-24
1.54168e-26
)
;
    }
}


// ************************************************************************* //
