/*--------------------------------*- C++ -*----------------------------------*\
| =========                 |                                                 |
| \\      /  F ield         | OpenFOAM: The Open Source CFD Toolbox           |
|  \\    /   O peration     | Version:  2.4.0                                 |
|   \\  /    A nd           | Web:      www.OpenFOAM.org                      |
|    \\/     M anipulation  |                                                 |
\*---------------------------------------------------------------------------*/
FoamFile
{
    version     2.0;
    format      ascii;
    class       volScalarField;
    location    "0.15";
    object      alpha.water;
}
// * * * * * * * * * * * * * * * * * * * * * * * * * * * * * * * * * * * * * //

dimensions      [0 0 0 0 0 0 0];

internalField   nonuniform List<scalar> 
559
(
2.33976e-11
1.29774e-09
4.81315e-09
2.32612e-09
4.96572e-10
4.52676e-11
1.67826e-11
9.01337e-11
2.91307e-17
4.20218e-16
2.2608e-15
6.33056e-15
1.33931e-14
2.20724e-14
2.11303e-14
1.53968e-14
1.11337e-14
7.66444e-15
4.62885e-15
2.68159e-15
1.51723e-15
8.257e-16
3.89591e-16
1.21833e-16
1.87567e-17
1.27416e-18
3.2543e-20
5.59545e-17
5.64842e-16
2.54219e-15
8.40415e-15
4.58924e-14
6.57248e-14
6.17265e-14
4.62997e-14
3.14988e-14
1.9554e-14
1.02351e-14
4.91576e-15
2.31435e-15
1.01252e-15
3.88099e-16
1.05942e-16
1.56827e-17
1.11792e-18
3.13852e-20
7.5273e-17
6.21592e-16
2.53991e-15
2.46447e-14
1.23216e-13
1.65329e-13
1.50797e-13
1.11597e-13
7.39352e-14
4.53129e-14
2.43057e-14
1.10476e-14
4.32217e-15
1.53153e-15
4.1635e-16
8.0714e-17
9.82304e-18
6.64003e-19
1.92894e-20
4.83864e-17
3.81338e-16
1.49718e-15
1.5114e-13
3.15004e-13
3.91596e-13
3.37599e-13
2.40102e-13
1.54439e-13
9.23513e-14
4.56789e-14
1.79992e-14
6.42264e-15
1.72973e-15
3.36807e-16
4.98191e-17
5.33504e-18
3.50703e-19
1.04034e-20
2.77583e-17
1.9108e-16
2.58957e-14
4.5259e-13
8.07068e-13
8.66168e-13
6.89327e-13
4.6409e-13
2.85183e-13
1.57249e-13
6.84581e-14
2.42628e-14
6.89581e-15
1.39518e-15
2.0716e-16
2.60251e-17
2.5974e-18
1.66503e-19
4.91051e-21
1.37718e-17
7.08831e-16
4.54022e-13
1.43621e-12
1.92822e-12
1.73876e-12
1.26881e-12
8.04818e-13
4.64914e-13
2.3378e-13
9.02784e-14
2.63735e-14
5.25116e-15
7.69318e-16
9.62493e-17
1.14493e-17
1.11183e-18
6.96551e-20
2.00717e-21
6.42004e-18
2.26042e-13
1.61462e-12
4.1529e-12
4.39677e-12
3.15405e-12
2.08319e-12
1.24816e-12
6.80866e-13
3.16375e-13
1.07315e-13
2.27286e-14
2.91001e-15
3.08889e-16
3.67148e-17
4.44667e-18
4.2852e-19
2.61028e-20
7.2598e-22
1.0631e-13
1.86888e-12
5.32883e-12
1.01166e-11
1.01196e-11
5.29145e-12
3.04443e-12
1.72139e-12
8.98365e-13
3.90586e-13
1.13425e-13
1.49159e-14
9.97971e-16
9.56321e-17
1.271e-17
1.59869e-18
1.52083e-19
8.92142e-21
2.37662e-22
1.0114e-09
7.76677e-10
2.14979e-09
1.23029e-08
5.55219e-09
2.37209e-10
6.80334e-12
5.90113e-13
6.523e-10
3.86739e-10
1.94209e-10
9.81562e-11
4.83957e-10
2.9024e-10
1.66269e-10
1.02325e-10
1.43252e-09
1.07863e-09
8.54889e-10
7.34084e-10
9.00611e-09
6.80289e-09
5.19753e-09
3.92063e-09
4.07818e-09
3.03797e-09
2.23322e-09
1.62302e-09
1.66533e-10
1.37929e-10
1.0262e-10
7.33529e-11
5.23374e-12
3.92306e-12
2.8917e-12
2.32249e-12
4.13391e-13
2.83879e-13
1.91487e-13
1.26625e-13
2.87494e-13
1.84973e-13
1.16405e-13
7.18604e-14
1.84162e-13
1.09392e-13
6.35899e-14
3.6413e-14
9.84379e-14
5.29098e-14
2.83171e-14
1.47831e-14
3.93967e-14
1.85413e-14
8.76036e-15
4.28551e-15
1.05542e-14
5.16143e-15
2.38147e-15
2.47648e-16
1.64973e-15
4.78314e-16
2.60336e-16
4.8349e-17
7.04122e-17
7.38411e-17
2.83066e-17
1.24515e-17
7.29605e-18
8.97055e-18
4.10778e-18
3.44555e-18
1.42527e-18
1.32199e-18
8.20913e-19
7.94531e-19
1.75959e-11
1.47527e-11
1.92147e-11
2.54172e-11
2.33712e-11
1.4183e-11
4.07588e-12
2.11486e-12
1.06752e-12
4.32284e-13
9.7362e-14
6.08676e-15
1.26695e-16
1.81249e-17
2.55364e-18
3.09906e-19
2.76099e-20
1.5013e-21
3.71977e-23
7.96439e-11
8.25742e-11
7.26743e-11
7.6888e-11
6.03159e-11
2.64621e-11
5.1939e-12
2.51089e-12
1.26286e-12
4.43423e-13
5.79858e-14
1.3227e-15
2.11223e-17
3.52624e-18
4.90533e-19
5.55837e-20
4.57094e-21
2.29043e-22
5.24287e-24
5.68161e-10
4.48472e-10
3.39604e-10
2.20344e-10
1.1902e-10
2.95491e-11
3.78039e-12
2.03512e-12
1.06713e-12
2.66083e-13
1.94143e-14
1.5037e-16
4.53606e-18
7.22763e-19
9.47591e-20
9.82599e-21
7.29589e-22
3.34869e-23
7.03063e-25
2.08567e-09
1.05218e-09
5.46564e-10
2.96214e-10
7.98488e-11
8.20858e-12
2.29053e-12
1.41806e-12
5.07072e-13
8.26994e-14
3.70852e-15
2.36083e-17
1.28604e-18
1.68833e-19
1.962e-20
1.80722e-21
1.186e-22
4.8577e-24
9.22492e-26
8.09077e-10
3.90901e-10
1.88625e-10
5.03864e-11
5.14569e-12
2.01142e-12
1.25282e-12
6.35609e-13
1.83154e-13
2.02903e-14
7.19654e-16
6.53976e-18
4.43686e-19
4.59487e-20
4.47844e-21
3.54089e-22
2.02779e-23
7.36262e-25
1.24515e-26
4.29813e-11
2.33674e-11
6.31328e-12
2.41165e-12
1.11111e-12
6.83093e-13
3.90044e-13
2.19445e-13
5.46772e-14
4.79466e-15
1.45046e-16
2.34762e-18
1.57645e-19
1.34061e-20
1.08499e-21
7.26851e-23
3.60074e-24
1.14971e-25
1.72307e-27
1.14552e-12
4.88174e-13
2.60187e-13
1.29706e-13
8.67483e-14
7.83143e-14
1.41301e-13
7.91194e-14
1.50904e-14
1.06084e-15
3.0824e-17
8.05839e-19
5.16716e-20
3.79375e-21
2.61142e-22
1.49773e-23
6.44342e-25
1.81091e-26
2.40736e-28
5.44557e-14
2.32968e-14
9.65091e-15
4.97095e-15
9.95958e-15
4.91912e-14
6.28746e-14
2.57036e-14
3.72997e-15
2.20296e-16
6.80019e-18
2.44225e-19
1.50133e-20
9.85444e-22
5.93664e-23
2.97521e-24
1.12567e-25
2.80729e-27
3.32761e-29
2.81698e-14
1.07971e-14
4.69866e-15
3.15952e-15
1.37891e-14
2.7953e-14
2.41049e-14
7.26577e-15
8.26224e-16
4.3375e-17
1.49775e-18
6.49305e-20
3.84012e-21
2.30182e-22
1.24216e-23
5.54751e-25
1.87417e-26
4.19447e-28
4.46846e-30
1.27279e-14
4.87515e-15
1.77652e-15
3.96482e-15
9.03671e-15
1.25401e-14
7.81298e-15
1.77962e-15
1.65615e-16
8.14214e-18
3.169e-19
1.52429e-20
8.67954e-22
4.81524e-23
2.36696e-24
9.57262e-26
2.92854e-27
5.95033e-29
5.74788e-31
4.6852e-15
8.72433e-16
1.1594e-15
2.56498e-15
4.39528e-15
4.55983e-15
2.13659e-15
3.81153e-16
3.03191e-17
1.4548e-18
6.27805e-20
3.1822e-21
1.74433e-22
9.03817e-24
4.09554e-25
1.51887e-26
4.25672e-28
7.93536e-30
7.00904e-32
6.7852e-16
3.04832e-16
6.5607e-16
1.2258e-15
1.68843e-15
1.36251e-15
4.98375e-16
7.21156e-17
5.1024e-18
2.45976e-19
1.14751e-20
5.9444e-22
3.13552e-23
1.52737e-24
6.43676e-26
2.21042e-27
5.72867e-29
9.88498e-31
8.04319e-33
1.01248e-16
1.42195e-16
2.90829e-16
4.64599e-16
5.2809e-16
3.40929e-16
1.00277e-16
1.21716e-17
7.92917e-19
3.90334e-20
1.92144e-21
9.98343e-23
5.06671e-24
2.33184e-25
9.20414e-27
2.94891e-28
7.12163e-30
1.14582e-31
8.6418e-34
3.39578e-17
6.03788e-17
1.06033e-16
1.45297e-16
1.37383e-16
7.28197e-17
1.75823e-17
1.84771e-18
1.14041e-19
5.76966e-21
2.93674e-22
1.51314e-23
7.39023e-25
3.22672e-26
1.19968e-27
3.60803e-29
8.17029e-31
1.23298e-32
8.66519e-35
1.13424e-17
1.99648e-17
3.14438e-17
3.80384e-17
3.02548e-17
1.3416e-17
2.71219e-18
2.53942e-19
1.51882e-20
7.89425e-22
4.09107e-23
2.07564e-24
9.76295e-26
4.05802e-27
1.42795e-28
4.05182e-30
8.64816e-32
1.23033e-33
8.0901e-36
3.50666e-18
5.54162e-18
7.77679e-18
8.45034e-18
5.70854e-18
2.14764e-18
3.71037e-19
3.17532e-20
1.87135e-21
9.95135e-23
5.19212e-24
2.58316e-25
1.17125e-26
4.64951e-28
1.55471e-29
4.18035e-31
8.44695e-33
1.13752e-34
7.0239e-37
8.81114e-19
1.28009e-18
1.62235e-18
1.61067e-18
9.29129e-19
3.00704e-19
4.53019e-20
3.62418e-21
2.12912e-22
1.15199e-23
6.00406e-25
2.92231e-26
1.27896e-27
4.86285e-29
1.55071e-30
3.96624e-32
7.61615e-34
9.74364e-36
5.66491e-38
)
;

boundaryField
{
    leftWall
    {
        type            zeroGradient;
    }
    rightWall
    {
        type            zeroGradient;
    }
    lowerWall
    {
        type            zeroGradient;
    }
    atmosphere
    {
        type            inletOutlet;
        inletValue      nonuniform 0();
        value           nonuniform 0();
    }
    defaultFaces
    {
        type            empty;
    }
    procBoundary1to0
    {
        type            processor;
        value           nonuniform List<scalar> 
26
(
2.33624e-12
6.56989e-09
1.65335e-07
1.62544e-07
2.11655e-08
1.78009e-09
4.01938e-09
5.45755e-09
4.79532e-09
2.12375e-09
5.33528e-09
2.46232e-08
9.82245e-09
3.6823e-10
1.11486e-11
1.10558e-12
4.39644e-13
4.39644e-13
3.0091e-13
1.79713e-13
8.29399e-14
2.60458e-14
4.44561e-15
1.46917e-16
4.29422e-18
6.90147e-19
)
;
    }
    procBoundary1to3
    {
        type            processor;
        value           nonuniform List<scalar> 
23
(
2.51248e-19
2.09023e-19
1.61914e-19
1.61524e-19
1.82868e-19
2.45607e-19
2.88762e-19
2.63677e-19
1.31052e-19
3.70298e-20
4.96058e-21
3.78311e-22
2.23161e-23
1.2219e-24
6.32874e-26
3.01042e-27
1.27363e-28
4.65083e-30
1.41887e-31
3.46367e-33
6.34132e-35
7.73052e-37
4.24324e-39
)
;
    }
}


// ************************************************************************* //
