/*--------------------------------*- C++ -*----------------------------------*\
| =========                 |                                                 |
| \\      /  F ield         | OpenFOAM: The Open Source CFD Toolbox           |
|  \\    /   O peration     | Version:  2.4.0                                 |
|   \\  /    A nd           | Web:      www.OpenFOAM.org                      |
|    \\/     M anipulation  |                                                 |
\*---------------------------------------------------------------------------*/
FoamFile
{
    version     2.0;
    format      ascii;
    class       volScalarField;
    location    "0.15";
    object      alpha.mercury;
}
// * * * * * * * * * * * * * * * * * * * * * * * * * * * * * * * * * * * * * //

dimensions      [0 0 0 0 0 0 0];

internalField   nonuniform List<scalar> 
559
(
0.913789
0.84799
0.597559
0.226066
0.0382604
0.00245978
4.89928e-05
6.63437e-07
2.45099e-15
3.02082e-14
1.42481e-13
3.6101e-13
7.03378e-13
1.00995e-12
8.34474e-13
5.3995e-13
3.78382e-13
2.65788e-13
1.76324e-13
1.14733e-13
7.20529e-14
4.30714e-14
2.19819e-14
7.34991e-15
1.19867e-15
8.5632e-17
2.28901e-18
5.74774e-15
4.96337e-14
1.93086e-13
5.60379e-13
2.50404e-12
2.69784e-12
2.04864e-12
1.33887e-12
8.39825e-13
5.10196e-13
2.88458e-13
1.58876e-13
8.80115e-14
4.49185e-14
1.98064e-14
6.03499e-15
9.73078e-16
7.46194e-17
2.23876e-18
1.01084e-14
7.19374e-14
2.59788e-13
2.03086e-12
5.63531e-12
5.55001e-12
4.02325e-12
2.47543e-12
1.47636e-12
8.64599e-13
4.90394e-13
2.6308e-13
1.24664e-13
5.3402e-14
1.79667e-14
4.21776e-15
5.88615e-16
4.42837e-17
1.41051e-18
8.92883e-15
5.74388e-14
1.94304e-13
9.01453e-12
1.28204e-11
1.3549e-11
7.42163e-12
3.91969e-12
2.23621e-12
1.2681e-12
6.87537e-13
3.24976e-13
1.43018e-13
4.95591e-14
1.30637e-14
2.50823e-15
3.20309e-16
2.40302e-17
7.94459e-19
6.85589e-15
3.82314e-14
8.31537e-12
3.92571e-11
7.27017e-11
6.03741e-11
2.06084e-11
4.89099e-12
2.81489e-12
1.53853e-12
7.60033e-13
3.34227e-13
1.2357e-13
3.54035e-14
7.83947e-15
1.33768e-15
1.62542e-16
1.20241e-17
3.97279e-19
4.18471e-15
6.1784e-13
9.78503e-11
2.34385e-10
2.24528e-10
1.23379e-10
3.21957e-11
5.3889e-12
2.98372e-12
1.57624e-12
7.31341e-13
2.78706e-13
8.00029e-14
1.94523e-14
3.95392e-15
6.40344e-16
7.52996e-17
5.41883e-18
1.74294e-19
1.03793e-11
2.01662e-10
7.75001e-10
7.18086e-10
4.08527e-10
1.58169e-10
4.12009e-11
5.61585e-12
2.85587e-12
1.47041e-12
6.37065e-13
1.83888e-13
4.07118e-14
8.95129e-15
1.77149e-15
2.80408e-16
3.19966e-17
2.21138e-18
6.81649e-20
9.12235e-10
3.58325e-09
2.71112e-09
1.15096e-09
4.78264e-10
1.9297e-10
4.93051e-11
5.63361e-12
2.54511e-12
1.2845e-12
5.0009e-13
9.7474e-14
1.61062e-14
3.7042e-15
7.36682e-16
1.14447e-16
1.25708e-17
8.25876e-19
2.42047e-20
3.49131e-07
1.77146e-07
3.16553e-08
4.09112e-09
6.39678e-11
4.88927e-14
3.84455e-29
6.27655e-28
2.69304e-07
2.14123e-07
1.60794e-07
1.25206e-07
1.72939e-07
1.48657e-07
1.18259e-07
9.4694e-08
3.35105e-08
2.87497e-08
2.27265e-08
1.38893e-08
3.81682e-09
2.74199e-09
1.59064e-09
8.96373e-10
2.00287e-11
5.78978e-12
1.58294e-12
4.42163e-13
2.7276e-14
1.53237e-14
8.5317e-15
4.75901e-15
2.0179e-28
2.86777e-27
4.60971e-26
7.03911e-25
2.97326e-27
4.11608e-26
5.76192e-25
6.76485e-24
3.39735e-26
4.56019e-25
6.052e-24
5.31894e-23
3.54485e-25
4.06533e-24
5.06581e-23
3.42212e-22
3.81199e-24
2.96513e-23
3.17607e-22
1.80076e-21
3.73967e-23
1.96727e-22
1.56999e-21
7.6994e-21
2.96851e-22
1.2858e-21
8.53541e-21
9.20048e-20
2.41195e-21
1.20908e-20
3.34402e-20
8.36913e-20
3.21999e-21
7.69243e-21
1.73064e-20
3.5407e-20
1.62185e-21
3.48822e-21
6.82944e-21
1.23245e-20
5.08216e-22
9.89778e-22
1.80291e-21
3.11542e-21
5.97867e-08
1.8779e-08
4.35651e-09
1.06529e-09
5.19351e-10
2.47481e-10
5.64443e-11
5.02121e-12
2.12663e-12
1.07405e-12
3.29416e-13
3.19989e-14
3.54302e-15
9.54778e-16
1.79408e-16
2.56373e-17
2.57259e-18
1.54427e-19
4.17021e-21
5.53184e-08
1.66963e-08
2.32454e-09
1.19525e-09
6.59854e-10
2.33308e-10
3.78846e-11
2.73541e-12
1.38803e-12
6.51533e-13
1.37079e-13
7.1378e-15
9.39255e-16
2.36063e-16
4.03553e-17
5.20567e-18
4.72979e-19
2.58417e-20
6.39177e-22
4.06758e-09
1.58853e-09
6.50464e-10
2.50588e-10
9.06603e-11
1.25662e-11
1.27836e-12
8.44607e-13
5.65118e-13
2.53825e-13
4.27068e-14
1.50572e-15
2.65232e-16
5.65075e-17
8.70137e-18
1.0063e-18
8.15887e-20
4.04824e-21
9.13342e-23
3.28365e-10
1.20694e-10
4.42389e-11
1.52503e-11
2.04877e-12
7.79875e-13
3.53214e-13
1.83789e-13
1.47726e-13
9.02162e-14
1.10798e-14
4.50155e-16
7.76686e-17
1.36415e-17
1.86197e-18
1.91524e-19
1.3734e-20
6.0843e-22
1.243e-23
8.47384e-14
2.56275e-14
9.66005e-15
3.96757e-15
1.6041e-15
6.96275e-16
1.71162e-15
2.12229e-14
6.87802e-14
3.0442e-14
2.99045e-15
1.58576e-16
2.32556e-17
3.37688e-18
4.0135e-19
3.6323e-20
2.3097e-21
9.17662e-23
1.6863e-24
1.62276e-15
5.54357e-16
1.90193e-16
6.43757e-17
2.70176e-17
1.28984e-16
2.45791e-15
2.082e-14
3.2152e-14
9.59074e-15
8.27713e-16
5.50792e-17
6.86799e-18
8.40051e-19
8.62734e-20
6.83913e-21
3.85796e-22
1.37487e-23
2.276e-25
1.54289e-22
3.5478e-21
5.19501e-20
8.45614e-19
1.36964e-17
3.25655e-16
4.55976e-15
1.37368e-14
1.25677e-14
2.75848e-15
2.27335e-16
1.74626e-17
1.91564e-18
2.02133e-19
1.80537e-20
1.2581e-21
6.31609e-23
2.02435e-24
3.0287e-26
8.31813e-22
1.8184e-20
2.47623e-19
2.91563e-18
5.7187e-17
1.0365e-15
3.65146e-15
6.76374e-15
4.15197e-15
7.22818e-16
5.96922e-17
4.93228e-18
4.89427e-19
4.55682e-20
3.58684e-21
2.21873e-22
9.97836e-24
2.89109e-25
3.92475e-27
3.83661e-21
8.4494e-20
1.0219e-18
1.45888e-17
2.42778e-16
8.74243e-16
2.04775e-15
2.66188e-15
1.17692e-15
1.73115e-16
1.45633e-17
1.23593e-18
1.12848e-19
9.43883e-21
6.64627e-22
3.69094e-23
1.50005e-24
3.95522e-26
4.89552e-28
1.61104e-20
3.29608e-19
6.75792e-18
5.65674e-17
1.97004e-16
5.06623e-16
8.95875e-16
8.61226e-16
2.9085e-16
3.79389e-17
3.24679e-18
2.75285e-19
2.33695e-20
1.78046e-21
1.13638e-22
5.72858e-24
2.1231e-25
5.13166e-27
5.82274e-29
6.36447e-20
2.28001e-18
1.24561e-17
4.16656e-17
1.10629e-16
2.25872e-16
3.17528e-16
2.3432e-16
6.34633e-17
7.59812e-18
6.56428e-19
5.46928e-20
4.34745e-21
3.04959e-22
1.78336e-23
8.2416e-25
2.80861e-26
6.26814e-28
6.55514e-30
4.28177e-19
2.29799e-18
7.8873e-18
2.14823e-17
4.76736e-17
8.10427e-17
9.35121e-17
5.45469e-17
1.23359e-17
1.38851e-18
1.19972e-19
9.73259e-21
7.28119e-22
4.74252e-23
2.56339e-24
1.09518e-25
3.45722e-27
7.17041e-29
6.94639e-31
3.07241e-19
1.23832e-18
3.6356e-18
8.60583e-18
1.6567e-17
2.41193e-17
2.32863e-17
1.10159e-17
2.15043e-18
2.31143e-19
1.98186e-20
1.55716e-21
1.10099e-22
6.70389e-24
3.37414e-25
1.34199e-26
3.94938e-28
7.65601e-30
6.90055e-32
1.77612e-19
5.45825e-19
1.35446e-18
2.82693e-18
4.79067e-18
6.09342e-18
4.96787e-18
1.95128e-18
3.37823e-19
3.5024e-20
2.96137e-21
2.24781e-22
1.50737e-23
8.62923e-25
4.0693e-26
1.5156e-27
4.18108e-29
7.61223e-31
6.40895e-33
6.62163e-20
1.81553e-19
4.09072e-19
7.78031e-19
1.17653e-18
1.323e-18
9.17866e-19
3.05787e-19
4.80004e-20
4.82929e-21
4.00834e-22
2.93618e-23
1.87368e-24
1.01328e-25
4.50091e-27
1.57771e-28
4.09938e-30
7.03989e-32
5.55393e-34
2.07491e-20
5.01249e-20
1.03197e-19
1.82397e-19
2.48523e-19
2.48776e-19
1.48137e-19
4.26863e-20
6.18492e-21
6.06018e-22
4.9224e-23
3.4798e-24
2.11941e-25
1.08741e-26
4.57043e-28
1.5145e-29
3.72162e-31
6.05014e-33
4.48574e-35
5.14012e-21
1.14925e-20
2.20667e-20
3.68591e-20
4.54588e-20
4.07554e-20
2.10219e-20
5.33557e-21
7.24024e-22
6.92381e-23
5.49319e-24
3.75015e-25
2.18624e-26
1.06823e-27
4.26547e-29
1.34139e-30
3.12881e-32
4.83072e-34
3.37331e-36
)
;

boundaryField
{
    leftWall
    {
        type            zeroGradient;
    }
    rightWall
    {
        type            zeroGradient;
    }
    lowerWall
    {
        type            zeroGradient;
    }
    atmosphere
    {
        type            inletOutlet;
        inletValue      nonuniform 0();
        value           nonuniform 0();
    }
    defaultFaces
    {
        type            empty;
    }
    procBoundary1to0
    {
        type            processor;
        value           nonuniform List<scalar> 
26
(
0.961778
0.864131
0.41341
0.0391938
0.000580385
1.80638e-06
6.94045e-07
6.0211e-07
4.37275e-07
1.8453e-07
2.16993e-08
2.60258e-09
2.96674e-11
1.37239e-13
2.61751e-31
5.31757e-30
8.00023e-27
8.00023e-27
8.34499e-26
7.35064e-25
5.55443e-24
3.60451e-23
1.74781e-22
7.37012e-22
3.94847e-22
1.35308e-22
)
;
    }
    procBoundary1to3
    {
        type            processor;
        value           nonuniform List<scalar> 
23
(
1.18736e-22
2.18782e-22
3.86367e-22
6.50664e-22
1.03929e-21
2.19498e-21
4.04515e-21
6.43126e-21
7.22964e-21
5.84217e-21
2.63618e-21
5.99535e-22
7.70886e-23
7.20555e-24
5.57908e-25
3.68244e-26
2.0604e-27
9.62038e-29
3.66253e-30
1.09687e-31
2.4362e-33
3.5822e-35
2.36141e-37
)
;
    }
}


// ************************************************************************* //
