/*--------------------------------*- C++ -*----------------------------------*\
| =========                 |                                                 |
| \\      /  F ield         | OpenFOAM: The Open Source CFD Toolbox           |
|  \\    /   O peration     | Version:  2.4.0                                 |
|   \\  /    A nd           | Web:      www.OpenFOAM.org                      |
|    \\/     M anipulation  |                                                 |
\*---------------------------------------------------------------------------*/
FoamFile
{
    version     2.0;
    format      ascii;
    class       surfaceScalarField;
    location    "0.15";
    object      phi;
}
// * * * * * * * * * * * * * * * * * * * * * * * * * * * * * * * * * * * * * //

dimensions      [0 3 -1 0 0 0 0];

internalField   nonuniform List<scalar> 
1061
(
8.29365e-05
0.000171931
0.000253681
0.000316187
0.000355527
0.000372026
0.000378614
0.00039008
-5.32271e-05
5.32271e-05
-0.000146414
9.31871e-05
-0.000292258
0.000145844
-0.000374551
8.22924e-05
-0.0003073
-6.72504e-05
-0.00016372
-0.00014358
-2.68818e-05
-0.000136839
9.01565e-05
-0.000117038
0.000189783
-9.96268e-05
0.000278246
-8.84626e-05
0.000317429
-3.91832e-05
0.000311222
6.20656e-06
0.000323563
-1.23408e-05
0.000311877
1.16863e-05
0.00023169
8.01864e-05
0.000130289
0.000101401
6.63611e-05
6.39283e-05
2.86062e-05
3.7755e-05
2.86062e-05
-4.43912e-05
9.76183e-05
-9.53469e-05
0.000144143
-0.000119965
0.000170462
-5.74955e-05
1.98228e-05
2.86335e-05
-0.000153379
4.99894e-05
-0.000164936
7.86379e-05
-0.000165487
0.000105103
-0.000143503
0.000133179
-0.000127703
0.000160389
-0.000115672
0.000200224
-7.9018e-05
0.000269141
-6.27106e-05
0.00025833
-1.52966e-06
0.000237813
3.22027e-05
0.00018522
0.00013278
0.000114415
0.000172205
6.31692e-05
0.000115174
2.79531e-05
7.2971e-05
5.65593e-05
-2.59137e-05
0.000123532
-3.41681e-05
0.000152397
1.10329e-05
0.000125261
7.49469e-05
-4.40912e-05
7.65344e-05
-0.000154967
8.60236e-05
-0.000174425
9.69952e-05
-0.000176459
0.000116982
-0.00016349
0.00013898
-0.000149701
0.000166325
-0.000143016
0.000231871
-0.000144565
0.000212585
-4.34238e-05
0.000227526
-1.64706e-05
0.00018554
7.41883e-05
0.000125696
0.000192623
8.37624e-05
0.000214139
5.2173e-05
0.000146764
2.47773e-05
0.000100367
8.13367e-05
-1.03091e-05
0.000133841
-5.22632e-06
0.000147315
6.13755e-05
5.86596e-05
0.000108861
-9.15768e-05
9.82056e-05
-0.000144311
0.000106756
-0.000182976
0.000117394
-0.000187096
0.000132405
-0.000178501
0.000153132
-0.000170428
0.000199228
-0.000189113
0.000194772
-0.000140108
0.000214938
-6.35901e-05
0.000179664
1.88037e-05
0.000121479
0.000132373
7.86959e-05
0.000235406
6.10793e-05
0.000231756
4.24029e-05
0.00016544
2.1164e-05
0.000121605
0.000102501
-4.95905e-06
0.0001388
4.07192e-05
0.000101636
9.42246e-05
5.1542e-06
0.000106604
-0.000103957
0.000116303
-0.00015401
0.000123832
-0.000190504
0.000130117
-0.000193382
0.000140612
-0.000188996
0.00016395
-0.000193766
0.000183748
-0.000208911
0.00018269
-0.00013905
0.00016714
-4.80404e-05
0.000121474
6.44695e-05
7.11093e-05
0.000182738
5.01255e-05
0.00025639
4.54018e-05
0.00023648
3.39589e-05
0.000176883
1.75974e-05
0.000137967
0.000120098
1.37964e-06
0.00013742
5.53672e-05
4.76488e-05
0.000110836
-5.03149e-05
0.000117489
-0.000110609
0.000129572
-0.000166094
0.000133359
-0.000194292
0.000136317
-0.000196339
0.000142779
-0.000195457
0.000152339
-0.000203327
0.000154471
-0.000211042
0.000144578
-0.000129158
0.000108562
-1.20246e-05
6.68709e-05
0.000106161
3.56042e-05
0.000214005
3.07419e-05
0.000261252
3.32436e-05
0.000233978
2.67375e-05
0.000183389
1.43168e-05
0.000150388
0.000134415
3.47081e-05
0.000102712
9.48592e-05
-1.25023e-05
0.00010867
-6.41252e-05
0.000128135
-0.000130074
0.000138817
-0.000176776
0.000139595
-0.00019507
0.000139473
-0.000196217
0.000142681
-0.000198665
0.000146011
-0.000206657
0.000135607
-0.000200638
0.000103829
-9.73798e-05
6.34518e-05
2.83528e-05
2.86257e-05
0.000140987
1.25122e-05
0.000230118
1.77231e-05
0.000256041
2.42603e-05
0.000227441
2.07742e-05
0.000186875
1.14342e-05
0.000159728
0.000145849
8.35941e-05
1.91183e-05
9.77481e-05
-2.66563e-05
0.000120675
-8.70523e-05
0.000140583
-0.000149982
0.000145274
-0.000181467
0.000142501
-0.000192296
0.000140355
-0.000194071
0.00014165
-0.00019996
0.000145595
-0.000210602
0.000119362
-0.000174405
6.4774e-05
-4.27918e-05
2.31253e-05
7.00014e-05
4.39169e-07
0.000163673
-1.74534e-06
0.000232303
9.54945e-06
0.000244746
1.7497e-05
0.000219493
1.5811e-05
0.000188561
8.9378e-06
0.000166601
0.000154787
0.00023101
0.000304886
0.00013059
0.000271062
5.75351e-05
0.000245054
1.36795e-05
0.000218537
-1.95688e-05
0.000203587
-4.56016e-05
0.000189472
-6.62532e-05
0.000174547
0.000160711
0.000228164
7.67222e-05
0.000180375
4.77887e-05
0.000155592
2.47833e-05
7.30676e-06
0.000148285
0.000294089
5.36951e-05
0.000310902
3.0975e-05
0.000322949
1.27362e-05
-3.92208e-06
0.000334178
0.000278236
2.05133e-05
0.000298663
1.05475e-05
0.000309404
1.99533e-06
-8.90481e-06
0.000314387
0.000239709
-6.57989e-07
0.000255599
-5.34291e-06
0.000268651
-1.10567e-05
-1.79058e-05
0.000277652
0.000218314
-1.53847e-05
0.000230595
-1.76241e-05
0.000241702
-2.21635e-05
-2.71312e-05
0.000250928
0.000199495
-2.54077e-05
0.000209896
-2.80254e-05
0.000221078
-3.33451e-05
-3.65283e-05
0.000230475
0.000183902
-3.47621e-05
0.000195137
-3.92604e-05
0.000204997
-4.32049e-05
-4.5405e-05
0.000213873
0.000171274
-4.53255e-05
0.000181135
-4.91207e-05
0.0001895
-5.15702e-05
-5.4754e-05
0.000198849
0.000157222
-5.48435e-05
0.000165461
-5.73599e-05
0.000174784
-6.08938e-05
-6.53105e-05
0.000185341
0.000140647
-6.25516e-05
0.000149787
-6.64996e-05
0.000159713
-7.082e-05
-7.3404e-05
0.000167806
0.000123328
-7.0989e-05
0.000131776
-7.49477e-05
0.000131044
-7.00875e-05
-6.4688e-05
0.000122328
9.22531e-05
-6.96046e-05
9.71277e-05
-7.98222e-05
7.81894e-05
-5.11493e-05
-4.18092e-06
1.76823e-05
7.07305e-05
-4.48486e-05
3.06511e-05
-3.97427e-05
-4.57055e-05
2.52073e-05
2.21396e-05
-7.2026e-05
-7.39402e-05
3.5716e-07
-0.000124271
1.05883e-05
-0.000131064
3.20001e-05
3.15134e-05
-0.000140438
-0.000124606
-9.33707e-07
-0.000130568
1.65505e-05
-0.000123928
2.53599e-05
2.89916e-05
-0.000121406
-0.00014425
1.83392e-05
-0.000147364
1.96647e-05
-0.000143067
2.10635e-05
2.2534e-05
-0.00013661
-0.000131362
-0.000129253
-0.000127894
-0.000127128
0.000204107
-3.67033e-05
0.000262305
-8.48544e-05
0.000307205
-0.000131952
0.000322914
-0.000165692
0.000321045
-0.000179598
0.000310359
-0.000181611
0.000301978
-0.00018569
0.000295497
-0.000193479
0.000287013
-0.000202118
0.000188108
-7.54995e-05
6.66972e-05
7.86186e-05
-3.92909e-06
0.000140628
-2.89272e-05
0.000188672
-1.58528e-05
0.000219228
7.96545e-06
0.000220928
2.10066e-05
0.000206452
2.06506e-05
0.000188917
1.21555e-05
0.000175096
0.000166942
0.000344835
-4.73603e-05
0.000346996
-8.70156e-05
0.000343918
-0.000128874
0.000337122
-0.000158895
0.000325253
-0.000167729
0.000310342
-0.000166699
0.000302296
-0.000177644
0.000300675
-0.000191858
0.000231078
-0.000132521
9.79216e-05
5.76565e-05
1.8574e-05
0.000157966
-1.85916e-05
0.000177793
-2.64442e-05
0.000196524
-1.46838e-05
0.000207468
-8.86536e-08
0.000206333
8.48886e-06
0.000197875
9.93748e-06
0.000187469
6.22585e-06
0.000178808
0.000173168
0.000322167
-5.51402e-05
0.000326107
-9.09559e-05
0.000324328
-0.000127095
0.000316451
-0.000151019
0.000303999
-0.000155277
0.000296196
-0.000158896
0.000291383
-0.000172832
0.000266778
-0.000167253
0.000136103
-1.84664e-06
3.34821e-05
0.000160277
-3.39431e-06
0.000194843
-1.96715e-05
0.000194071
-2.1069e-05
0.000197921
-1.36195e-05
0.000200019
-4.84309e-06
0.000197556
1.12688e-06
0.000191905
3.33396e-06
0.000185262
2.44487e-06
0.000179697
0.000175613
0.000288841
-6.63293e-05
0.000298377
-0.000100492
0.000301895
-0.000130612
0.000295638
-0.000144762
0.000288019
-0.000147658
0.000286672
-0.000157548
0.000284689
-0.000170849
0.000164807
-4.73704e-05
3.49212e-05
0.000128039
-6.96321e-06
0.000202162
-1.68337e-05
0.000204713
-2.1737e-05
0.000198974
-2.0058e-05
0.000196243
-1.45518e-05
0.000194512
-8.46076e-06
0.000191465
-3.70165e-06
0.000187146
-9.71627e-07
0.000182532
-2.8515e-08
0.000178754
0.000175585
0.000267523
-8.29247e-05
0.00028143
-0.000114399
0.000286287
-0.00013547
0.000282766
-0.000141241
0.000283261
-0.000148153
0.000308662
-0.00018295
0.000211107
-7.32938e-05
6.21655e-05
0.000101571
-1.31713e-05
0.000203376
-2.54799e-05
0.00021447
-2.59326e-05
0.000205166
-2.47096e-05
0.000197751
-2.14737e-05
0.000193007
-1.6649e-05
0.000189688
-1.14789e-05
0.000186295
-7.05717e-06
0.000182724
-3.79638e-06
0.000179271
-1.64542e-06
0.000176603
0.000173939
0.000250617
-0.000103067
0.000264119
-0.000127901
0.000267403
-0.000138753
0.000268236
-0.000142074
0.000288896
-0.000168813
0.00019841
-9.24637e-05
5.16324e-05
7.3484e-05
-3.2817e-05
0.00018602
-4.29679e-05
0.000213527
-3.84209e-05
0.000209923
-3.3432e-05
0.000200177
-2.90052e-05
0.000193324
-2.43204e-05
0.000188322
-1.9195e-05
0.000184562
-1.41663e-05
0.000181266
-9.6278e-06
0.000178186
-5.86687e-06
0.00017551
-2.75753e-06
0.000173493
0.000171182
0.000234926
-0.00012412
0.000246813
-0.000139787
0.000249074
-0.000141014
0.000270036
-0.000163036
0.000194518
-9.32956e-05
4.48073e-05
5.72468e-05
-5.14838e-05
0.000169775
-6.59103e-05
0.000200447
-5.7801e-05
0.000205417
-4.73922e-05
0.000199515
-3.96423e-05
0.000192427
-3.31644e-05
0.000186846
-2.73225e-05
0.00018248
-2.17517e-05
0.000178992
-1.64508e-05
0.000175966
-1.16669e-05
0.000173402
-7.39816e-06
0.000171241
-3.59011e-06
0.000169685
0.000167592
0.000219258
-0.000144529
0.000225249
-0.000145778
0.00024274
-0.000158504
0.000169834
-9.01309e-05
2.99149e-05
4.66237e-05
-6.85317e-05
0.000155693
-8.40359e-05
0.000185279
-7.74672e-05
0.000193878
-6.46371e-05
0.000192587
-5.33137e-05
0.000188191
-4.4346e-05
0.000183459
-3.68385e-05
0.000179339
-3.01848e-05
0.000175826
-2.40653e-05
0.000172872
-1.8465e-05
0.000170365
-1.33039e-05
0.000168241
-8.59493e-06
0.000166532
-4.23193e-06
0.000165322
0.00016336
0.00019791
-0.000157099
0.000214736
-0.000162603
0.00013771
-8.14785e-05
6.50539e-06
4.10735e-05
-8.74545e-05
0.000140584
-0.000100446
0.000168685
-9.40966e-05
0.00017893
-8.11407e-05
0.000180922
-6.81764e-05
0.000179623
-5.70673e-05
0.000177082
-4.7701e-05
0.000174093
-3.96693e-05
0.000171307
-3.25292e-05
0.000168686
-2.60495e-05
0.000166392
-2.01169e-05
0.000164433
-1.46298e-05
0.000162753
-9.53744e-06
0.00016144
-4.71632e-06
0.000160501
0.000158643
0.000177268
-0.000166561
9.07934e-05
-7.61279e-05
-3.26211e-05
4.19361e-05
-0.000108912
0.000117364
-0.000116352
0.000148024
-0.000108836
0.000161168
-9.56434e-05
0.000165738
-8.22376e-05
0.000167516
-7.00302e-05
0.000167415
-5.92859e-05
0.000166338
-4.99644e-05
0.000164771
-4.16957e-05
0.000163038
-3.43134e-05
0.000161304
-2.76091e-05
0.000159688
-2.14213e-05
0.000158245
-1.56767e-05
0.000157009
-1.02583e-05
0.000156021
-5.09027e-06
0.000155333
0.000153553
4.18155e-05
-8.60484e-05
-7.07087e-05
3.63963e-05
-0.000123623
9.48506e-05
-0.000128893
0.000122633
-0.000121404
0.000140536
-0.000108022
0.000147786
-9.47326e-05
0.000152448
-8.20982e-05
0.000154882
-7.06683e-05
0.000155986
-6.0446e-05
0.000156116
-5.12745e-05
0.0001556
-4.30401e-05
0.000154804
-3.55721e-05
0.000153836
-2.87338e-05
0.00015285
-2.23744e-05
0.000151886
-1.64297e-05
0.000151064
-1.07902e-05
0.000150382
-5.35355e-06
0.000149897
0.0001482
-9.93665e-05
3.10003e-05
-0.000128596
6.56262e-05
-0.000134482
0.000100736
-0.000128998
0.000117149
-0.000117752
0.00012929
-0.000104823
0.000134858
-9.26132e-05
0.000140238
-8.10776e-05
0.000143346
-7.04526e-05
0.000145361
-6.07149e-05
0.000146378
-5.18777e-05
0.000146763
-4.37811e-05
0.000146707
-3.63448e-05
0.0001464
-2.94531e-05
0.000145958
-2.30272e-05
0.00014546
-1.69557e-05
0.000144993
-1.11606e-05
0.000144587
-5.551e-06
0.000144287
0.000142649
-9.47132e-05
5.36875e-05
-0.00012598
9.68934e-05
-0.000128984
0.00010374
-0.000122789
0.000110954
-0.000111448
0.000117949
-0.000100832
0.000124241
-8.97994e-05
0.000129206
-7.9337e-05
0.000132884
-6.94807e-05
0.000135504
-6.03174e-05
0.000137215
-5.18283e-05
0.000138274
-4.39689e-05
0.000138848
-3.66554e-05
0.000139086
-2.98186e-05
0.000139121
-2.33799e-05
0.000139021
-1.72576e-05
0.00013887
-1.13797e-05
0.000138709
-5.64742e-06
0.000138555
0.000137001
-0.000148025
6.12745e-05
-0.000134548
8.3416e-05
-0.000124481
9.36729e-05
-0.000115997
0.00010247
-0.000106003
0.000107955
-9.644e-05
0.000114678
-8.65842e-05
0.00011935
-7.70777e-05
0.000123377
-6.7971e-05
0.000126398
-5.9372e-05
0.000128616
-5.12924e-05
0.000130194
-4.37071e-05
0.000131263
-3.65883e-05
0.000131967
-2.9858e-05
0.000132391
-2.34764e-05
0.00013264
-1.7365e-05
0.000132759
-1.14652e-05
0.000132809
-5.71092e-06
0.0001328
0.00013129
-0.000131593
7.14614e-05
-0.000127326
7.91489e-05
-0.000118204
8.45512e-05
-0.000109755
9.40213e-05
-0.000100876
9.9076e-05
-9.2032e-05
0.000105834
-8.31621e-05
0.00011048
-7.4483e-05
0.000114698
-6.60681e-05
0.000117983
-5.8017e-05
0.000120565
-5.03577e-05
0.000122535
-4.30938e-05
0.000123999
-3.61946e-05
0.000125068
-2.96337e-05
0.00012583
-2.33532e-05
0.000126359
-1.73078e-05
0.000126713
-1.14409e-05
0.000126942
-5.68211e-06
0.000127042
0.000125608
-0.000128396
6.3248e-05
-0.000119787
7.05399e-05
-0.00011128
7.60438e-05
-0.000103936
8.66773e-05
-9.58325e-05
9.09727e-05
-8.77407e-05
9.77425e-05
-7.96511e-05
0.00010239
-7.1669e-05
0.000106716
-6.38804e-05
0.000110194
-5.63517e-05
0.000113036
-4.91137e-05
0.000115297
-4.21799e-05
0.000117065
-3.55423e-05
0.00011843
-2.91727e-05
0.000119461
-2.30424e-05
0.000120229
-1.71075e-05
0.000120778
-1.1326e-05
0.000121161
-5.64764e-06
0.000121363
0.000119961
-0.000121469
-0.000112745
-0.000105684
-9.83974e-05
-9.09541e-05
-8.35408e-05
-7.60903e-05
-6.87219e-05
-6.14867e-05
-5.44427e-05
-4.76183e-05
-4.10296e-05
-3.46704e-05
-2.85281e-05
-2.25754e-05
-1.67826e-05
-1.11093e-05
-5.5129e-06
)
;

boundaryField
{
    leftWall
    {
        type            calculated;
        value           nonuniform 0();
    }
    rightWall
    {
        type            calculated;
        value           uniform 0;
    }
    lowerWall
    {
        type            calculated;
        value           nonuniform List<scalar> 
40
(
1.58819e-22
0
0
0
0
0
0
0
0
1.38232e-23
3.20218e-23
-5.8656e-23
2.64698e-23
0
0
0
0
0
0
0
0
6.33908e-23
5.21221e-23
4.5251e-23
8.42432e-23
0
-3.97047e-23
-1.05879e-22
5.29396e-23
-5.29396e-23
0
-2.64698e-23
0
-2.64698e-23
-6.61744e-24
-3.06057e-23
-2.79173e-23
-5.36084e-23
5.2549e-24
-1.11576e-22
)
;
    }
    atmosphere
    {
        type            calculated;
        value           nonuniform 0();
    }
    defaultFaces
    {
        type            empty;
        value           nonuniform 0();
    }
    procBoundary1to0
    {
        type            processor;
        value           nonuniform List<scalar> 
26
(
-8.29365e-05
-8.89942e-05
-8.17506e-05
-6.25054e-05
-3.93401e-05
-1.64992e-05
-6.58772e-06
-1.14663e-05
-0.000145816
-0.000170642
-0.000171999
-0.000174682
-0.000170339
-0.000163439
-0.000153896
-0.000142198
-8.4766e-05
-0.000147704
-0.000132939
-0.000114891
-9.36375e-05
-9.54866e-05
2.87344e-05
0.000125897
0.000124977
0.000133247
)
;
    }
    procBoundary1to3
    {
        type            processor;
        value           nonuniform List<scalar> 
23
(
1.64542e-05
1.75564e-05
1.97037e-05
2.17678e-05
5.75899e-05
6.18157e-05
6.89827e-05
7.93905e-05
8.35294e-05
9.03292e-05
9.49397e-05
9.93478e-05
0.000102959
0.000105992
0.000108472
0.000110476
0.000112071
0.000113318
0.000114276
0.000114986
0.000115487
0.000115767
0.000114448
)
;
    }
}


// ************************************************************************* //
