/*--------------------------------*- C++ -*----------------------------------*\
| =========                 |                                                 |
| \\      /  F ield         | OpenFOAM: The Open Source CFD Toolbox           |
|  \\    /   O peration     | Version:  2.4.0                                 |
|   \\  /    A nd           | Web:      www.OpenFOAM.org                      |
|    \\/     M anipulation  |                                                 |
\*---------------------------------------------------------------------------*/
FoamFile
{
    version     2.0;
    format      ascii;
    class       surfaceScalarField;
    location    "0.15";
    object      phi.mercury;
}
// * * * * * * * * * * * * * * * * * * * * * * * * * * * * * * * * * * * * * //

dimensions      [0 3 -1 0 0 0 0];

internalField   nonuniform List<scalar> 
1061
(
7.27859e-05
0.000137438
0.000156383
0.000162158
0.000155078
0.000158491
0.000187558
0.000382064
-5.32059e-05
5.32211e-05
-0.000146095
9.30224e-05
-0.000256641
0.00014479
-0.00012101
2.52695e-05
-3.00999e-05
-0.000149807
1.37287e-05
-0.00017471
4.99423e-05
-0.000165381
0.000102036
-0.00015993
0.00014104
-0.000157901
0.000196806
-0.000143939
0.000232101
-0.000136922
0.000242153
-0.000155908
0.000280797
-0.000177632
0.000310669
-0.000246637
0.000266248
-0.000134504
0.000137961
5.20398e-05
6.64004e-05
6.35822e-05
2.86114e-05
3.77525e-05
2.86106e-05
-4.43706e-05
9.7595e-05
-9.51432e-05
0.000143774
-9.5489e-05
0.000169179
3.15587e-05
-3.98964e-05
7.43356e-05
-0.000168609
7.4256e-05
-0.000174681
8.24168e-05
-0.000167952
0.000105385
-0.000147897
0.000131038
-0.000132583
0.000156102
-0.000127023
0.000177083
-0.000158126
0.000201827
-0.000193191
0.000249181
-0.000145669
0.000255567
-3.05002e-05
0.00020112
8.06314e-05
0.000117573
0.000162194
6.32243e-05
0.000114949
2.79584e-05
7.29747e-05
5.65646e-05
-2.59202e-05
0.000123499
-3.41584e-05
0.00015193
1.18728e-05
0.000121331
7.31035e-05
-0.000108618
8.95934e-05
-0.000166382
8.91214e-05
-0.000175192
9.70573e-05
-0.000176496
0.000116989
-0.000163501
0.000138408
-0.000150158
0.000146129
-0.000176765
0.000172448
-0.000222792
0.000175337
-0.000184714
0.000221615
-3.17544e-05
0.000185631
7.39224e-05
0.00012599
0.000192029
8.38724e-05
0.000213757
5.21859e-05
0.000146737
2.47819e-05
0.000100378
8.13476e-05
-1.03019e-05
0.000133818
-4.98888e-06
0.000146944
5.11598e-05
2.15493e-05
9.03727e-05
-0.000133178
0.000103419
-0.000155204
0.000107499
-0.00018274
0.000117407
-0.000187078
0.00013241
-0.000178496
0.000143698
-0.000174111
0.000160998
-0.000216899
0.000167338
-0.000227158
0.000198652
-0.000111402
0.000179644
1.83867e-05
0.000121571
0.000132297
7.88086e-05
0.000235225
6.11078e-05
0.00023166
4.24105e-05
0.000165454
2.11683e-05
0.000121621
0.000102513
-4.95596e-06
0.000138782
3.32616e-05
0.000101527
7.31162e-05
-5.64606e-05
0.000101321
-0.000123772
0.000119094
-0.000155459
0.00012395
-0.000190426
0.000130131
-0.000193361
0.00014032
-0.000189032
0.000145571
-0.000201354
0.000158445
-0.00022265
0.000169641
-0.000215799
0.000165147
-6.76031e-05
0.000121517
6.42636e-05
7.11929e-05
0.000182713
5.01812e-05
0.000256321
4.5415e-05
0.000236473
3.39657e-05
0.000176906
1.76011e-05
0.000137987
0.000120116
1.4712e-06
0.000137307
5.53106e-05
4.2295e-05
9.27698e-05
-7.86191e-05
0.000116895
-0.000115617
0.000130257
-0.000165363
0.000133373
-0.000194266
0.000136336
-0.000196319
0.000141239
-0.000195563
0.000143554
-0.000208789
0.000151801
-0.000227748
0.000149853
-0.000201164
0.00010926
-2.22934e-05
6.69321e-05
0.000106115
3.56682e-05
0.000214018
3.07721e-05
0.000261246
3.32523e-05
0.000234003
2.67435e-05
0.000183417
1.432e-05
0.000150411
0.000134435
5.1601e-05
3.37261e-05
9.43585e-05
-3.45147e-05
0.000107018
-7.15587e-05
0.000129266
-0.000129358
0.000138852
-0.000176717
0.000139606
-0.000195047
0.000139501
-0.000196198
0.000140351
-0.000198913
0.000142426
-0.000212149
0.000145032
-0.000228187
0.000120305
-0.00016909
6.3978e-05
2.62752e-05
2.86714e-05
0.000141033
1.25534e-05
0.000230155
1.77381e-05
0.000256067
2.42667e-05
0.000227476
2.07792e-05
0.000186906
1.14369e-05
0.000159754
0.000145873
9.34292e-05
-5.31206e-06
9.93281e-05
-4.24317e-05
0.000121375
-8.64236e-05
0.000140644
-0.00014979
0.000145283
-0.000181444
0.000142511
-0.000192275
0.000140413
-0.000194053
0.000139658
-0.000201114
0.000143794
-0.000214646
0.000141584
-0.000223863
7.7997e-05
-0.000107451
2.31994e-05
6.97906e-05
4.66738e-07
0.000163736
-1.72425e-06
0.000232342
9.55722e-06
0.00024478
1.75026e-05
0.000219531
1.58153e-05
0.000188595
8.94016e-06
0.00016663
0.000154814
0.00023261
0.000294329
0.000131579
0.000269284
5.84905e-05
0.000244838
1.38259e-05
0.000218521
-1.95638e-05
0.000203585
-4.55989e-05
0.000189471
-6.62508e-05
0.000174547
0.000160711
0.000229548
8.02862e-05
0.000183399
5.03744e-05
0.000156541
2.61411e-05
8.49524e-06
0.000147287
0.000292318
5.36966e-05
0.000309514
3.08838e-05
0.000322037
1.25491e-05
-4.19482e-06
0.00033244
0.000277872
2.10695e-05
0.000298325
1.09975e-05
0.000309123
2.36275e-06
-8.69117e-06
0.000314182
0.000239677
-5.90875e-07
0.000255571
-5.30201e-06
0.000268633
-1.1037e-05
-1.78957e-05
0.00027764
0.000218312
-1.53827e-05
0.000230594
-1.7622e-05
0.000241701
-2.21611e-05
-2.71285e-05
0.000250927
0.000199494
-2.54061e-05
0.000209896
-2.80235e-05
0.000221078
-3.33431e-05
-3.65262e-05
0.000230475
0.000183902
-3.47608e-05
0.000195137
-3.92589e-05
0.000204998
-4.32034e-05
-4.54034e-05
0.000213875
0.000171275
-4.53244e-05
0.000181136
-4.91195e-05
0.000189501
-5.1569e-05
-5.47527e-05
0.000198851
0.000157222
-5.48426e-05
0.000165462
-5.7359e-05
0.000174786
-6.08935e-05
-6.53551e-05
0.000185299
0.000140648
-6.25613e-05
0.000149787
-6.65739e-05
0.000159635
-7.13542e-05
-7.71897e-05
0.000164057
0.000123177
-7.24347e-05
0.000130769
-7.91223e-05
0.00012586
-8.5499e-05
-9.33825e-05
0.000104075
8.89705e-05
-8.73545e-05
7.7327e-05
-0.000102731
5.07295e-05
-0.000106313
-5.12082e-05
2.00657e-05
3.0529e-05
-7.72993e-05
4.77407e-06
-7.90997e-05
-4.33629e-05
6.71157e-06
2.21335e-05
-7.20259e-05
-7.29729e-05
2.14292e-07
-0.000122756
9.93761e-06
-0.000130831
3.18464e-05
3.15214e-05
-0.000140456
-0.000124623
-9.28078e-07
-0.000130585
1.65572e-05
-0.000123945
2.5367e-05
2.89988e-05
-0.000121423
-0.000144264
1.83445e-05
-0.000147379
1.96702e-05
-0.000143084
2.10692e-05
2.25403e-05
-0.000136625
-0.000131374
-0.000129268
-0.000127908
-0.000127143
0.000200888
-3.44984e-05
0.000261375
-8.44655e-05
0.000307124
-0.000131876
0.000322927
-0.000165667
0.000321065
-0.000179577
0.00031039
-0.000181593
0.000302003
-0.000185709
0.000300386
-0.00019854
0.000308075
-0.000214939
0.000269974
-0.000179135
8.15513e-05
5.27692e-05
-3.87824e-06
0.00014063
-2.89083e-05
0.000188721
-1.58401e-05
0.000219272
7.97431e-06
0.000220971
2.10148e-05
0.000206493
2.0657e-05
0.000188954
1.21591e-05
0.000175129
0.000166975
0.000342715
-4.7967e-05
0.00034682
-8.72576e-05
0.000343936
-0.000128871
0.000337139
-0.000158892
0.000325275
-0.000167725
0.000310805
-0.000166667
0.000298452
-0.000177707
0.000303748
-0.000198679
0.000291362
-0.000199439
0.000149156
-3.34804e-05
1.88311e-05
0.000157567
-1.85863e-05
0.000177836
-2.64401e-05
0.000196571
-1.46794e-05
0.000207514
-8.3829e-08
0.000206377
8.49342e-06
0.000197916
9.941e-06
0.000187507
6.22811e-06
0.000178844
0.000173204
0.000322148
-5.49922e-05
0.000326111
-9.08962e-05
0.000324336
-0.000127066
0.000316464
-0.000151002
0.000304046
-0.000155262
0.000293628
-0.000158948
0.000290941
-0.00018329
0.000294283
-0.000200921
0.00022018
-0.000114132
3.83119e-05
0.000153705
-3.37758e-06
0.00019485
-1.96719e-05
0.000194118
-2.10682e-05
0.000197969
-1.36178e-05
0.000200065
-4.84092e-06
0.000197601
1.12902e-06
0.000191947
3.33572e-06
0.000185302
2.44614e-06
0.000179735
0.000175651
0.000288838
-6.63163e-05
0.00029838
-0.00010048
0.000301902
-0.000130601
0.000295648
-0.000144751
0.00028759
-0.000147668
0.000277505
-0.000169858
0.000283063
-0.000190843
0.000238227
-0.000148318
4.91096e-05
0.000102347
-6.95834e-06
0.000202201
-1.68363e-05
0.000204758
-2.17393e-05
0.000199022
-2.00591e-05
0.00019629
-1.4552e-05
0.000194558
-8.46047e-06
0.000191509
-3.70121e-06
0.000187188
-9.71118e-07
0.000182572
-2.80667e-08
0.000178793
0.000175624
0.000267524
-8.29173e-05
0.000281434
-0.00011439
0.000286293
-0.000135461
0.000282644
-0.000141276
0.000270991
-0.000159197
0.000274561
-0.000199413
0.000253577
-0.000178105
9.25192e-05
5.11639e-05
-1.31597e-05
0.000203403
-2.54866e-05
0.000214518
-2.59379e-05
0.000205214
-2.47134e-05
0.000197799
-2.14763e-05
0.000193053
-1.66508e-05
0.000189733
-1.148e-05
0.000186339
-7.05793e-06
0.000182766
-3.79685e-06
0.000179312
-1.64526e-06
0.000176643
0.000173979
0.000250619
-0.000103061
0.000264123
-0.000127894
0.000267311
-0.000138872
0.000255465
-0.000152931
0.000246651
-0.000191417
0.000223135
-0.000188208
8.67328e-05
1.57238e-05
-3.27345e-05
0.0001859
-4.29794e-05
0.000213576
-3.84296e-05
0.000209971
-3.34388e-05
0.000200224
-2.90104e-05
0.00019337
-2.43245e-05
0.000188367
-1.91981e-05
0.000184606
-1.41686e-05
0.000181309
-9.62954e-06
0.000178227
-5.86791e-06
0.000175551
-2.75792e-06
0.000173533
0.000171222
0.000234929
-0.000124116
0.000246706
-0.000139958
0.000238879
-0.000151267
0.000225939
-0.000193399
0.000199885
-0.000198944
7.30892e-05
1.7901e-07
-5.1438e-05
0.000169693
-6.59258e-05
0.000200493
-5.78131e-05
0.000205464
-4.74018e-05
0.000199561
-3.965e-05
0.000192473
-3.31707e-05
0.000186891
-2.73277e-05
0.000182524
-2.17559e-05
0.000179034
-1.64541e-05
0.000176007
-1.16693e-05
0.000173442
-7.39989e-06
0.000171281
-3.59066e-06
0.000169725
0.000167631
0.000219143
-0.000144666
0.000216512
-0.00015631
0.00019809
-0.000196636
0.000161407
-0.000200412
5.1882e-05
-1.26584e-05
-6.8464e-05
0.00015557
-8.4054e-05
0.000185322
-7.7482e-05
0.000193921
-6.46492e-05
0.000192631
-5.33238e-05
0.000188235
-4.43545e-05
0.000183503
-3.68457e-05
0.000179381
-3.01909e-05
0.000175868
-2.40703e-05
0.000172913
-1.8469e-05
0.000170406
-1.3307e-05
0.00016828
-8.59693e-06
0.000166571
-4.233e-06
0.000165361
0.000163398
0.000189747
-0.000165391
0.000171002
-0.00020343
0.000122064
-0.000195668
1.91646e-05
-7.84367e-06
-8.74256e-05
0.000140536
-0.000100465
0.000168723
-9.41134e-05
0.00017897
-8.11548e-05
0.000180963
-6.81884e-05
0.000179664
-5.70777e-05
0.000177124
-4.771e-05
0.000174134
-3.96772e-05
0.000171348
-3.2536e-05
0.000168726
-2.60551e-05
0.000166432
-2.01216e-05
0.000164472
-1.46333e-05
0.000162792
-9.53995e-06
0.000161478
-4.71732e-06
0.000160539
0.000158681
0.000135627
-0.000209726
7.37119e-05
-0.000201125
-2.65684e-05
5.29791e-06
-0.00010891
0.00011737
-0.000116372
0.000148058
-0.000108854
0.000161204
-9.5659e-05
0.000165775
-8.22511e-05
0.000167555
-7.0042e-05
0.000167454
-5.92964e-05
0.000166377
-4.99738e-05
0.00016481
-4.17041e-05
0.000163077
-3.43207e-05
0.000161342
-2.76153e-05
0.000159726
-2.14264e-05
0.000158282
-1.56806e-05
0.000157046
-1.02609e-05
0.000156058
-5.09165e-06
0.00015537
0.00015359
2.34752e-05
-0.000215081
-6.6809e-05
9.53409e-06
-0.000123638
9.48726e-05
-0.000128912
0.000122663
-0.000121423
0.000140567
-0.000108039
0.00014782
-9.47472e-05
0.000152483
-8.21111e-05
0.000154918
-7.06799e-05
0.000156022
-6.04566e-05
0.000156152
-5.12843e-05
0.000155637
-4.30489e-05
0.00015484
-3.55798e-05
0.000153872
-2.87403e-05
0.000152886
-2.23798e-05
0.000151922
-1.64338e-05
0.0001511
-1.07931e-05
0.000150418
-5.35476e-06
0.000149932
0.000148235
-8.92409e-05
4.44088e-06
-0.000128614
6.56516e-05
-0.000134501
0.000100763
-0.000129016
0.000117177
-0.000117769
0.000129319
-0.000104838
0.000134889
-9.26268e-05
0.000140271
-8.10899e-05
0.00014338
-7.0464e-05
0.000145395
-6.07255e-05
0.000146412
-5.18876e-05
0.000146797
-4.37901e-05
0.000146742
-3.63528e-05
0.000146434
-2.94599e-05
0.000145993
-2.30327e-05
0.000145494
-1.696e-05
0.000145027
-1.11634e-05
0.000144621
-5.55262e-06
0.000144321
0.000142683
-9.47286e-05
5.37091e-05
-0.000125997
9.6917e-05
-0.000129001
0.000103765
-0.000122806
0.00011098
-0.000111464
0.000117977
-0.000100846
0.00012427
-8.98122e-05
0.000129236
-7.93488e-05
0.000132915
-6.94918e-05
0.000135536
-6.0328e-05
0.000137247
-5.18382e-05
0.000138306
-4.3978e-05
0.000138881
-3.66634e-05
0.000139119
-2.98253e-05
0.000139154
-2.33855e-05
0.000139054
-1.72619e-05
0.000138903
-1.13829e-05
0.000138742
-5.64885e-06
0.000138588
0.000137034
-0.000148042
6.12945e-05
-0.000134564
8.34377e-05
-0.000124497
9.36953e-05
-0.000116012
0.000102494
-0.000106017
0.00010798
-9.6453e-05
0.000114705
-8.65963e-05
0.000119377
-7.70889e-05
0.000123406
-6.7982e-05
0.000126427
-5.93824e-05
0.000128645
-5.13022e-05
0.000130224
-4.37161e-05
0.000131293
-3.65962e-05
0.000131998
-2.98647e-05
0.000132422
-2.34819e-05
0.000132671
-1.73694e-05
0.00013279
-1.14682e-05
0.00013284
-5.71231e-06
0.000132832
0.000131322
-0.000131609
7.14793e-05
-0.000127342
7.91675e-05
-0.000118219
8.45717e-05
-0.00010977
9.40424e-05
-0.000100889
9.90992e-05
-9.20445e-05
0.000105858
-8.31732e-05
0.000110505
-7.44941e-05
0.000114724
-6.60785e-05
0.000118009
-5.80273e-05
0.000120591
-5.03672e-05
0.000122562
-4.31025e-05
0.000124026
-3.62023e-05
0.000125096
-2.96402e-05
0.000125858
-2.33586e-05
0.000126388
-1.73121e-05
0.000126742
-1.14437e-05
0.000126972
-5.68372e-06
0.000127071
0.000125638
-0.000128412
6.3263e-05
-0.000119802
7.0557e-05
-0.000111294
7.60613e-05
-0.000103949
8.6697e-05
-9.58451e-05
9.09928e-05
-8.77519e-05
9.77645e-05
-7.96621e-05
0.000102412
-7.16794e-05
0.00010674
-6.38908e-05
0.000110218
-5.63614e-05
0.00011306
-4.9123e-05
0.000115322
-4.21883e-05
0.00011709
-3.55497e-05
0.000118456
-2.9179e-05
0.000119487
-2.30476e-05
0.000120255
-1.71113e-05
0.000120805
-1.13289e-05
0.000121188
-5.64889e-06
0.000121391
0.000119988
-0.000121483
-0.000112759
-0.000105697
-9.84101e-05
-9.09652e-05
-8.35518e-05
-7.61004e-05
-6.87321e-05
-6.14964e-05
-5.44523e-05
-4.76271e-05
-4.10377e-05
-3.46774e-05
-2.85341e-05
-2.25802e-05
-1.67863e-05
-1.11114e-05
-5.51456e-06
)
;

boundaryField
{
    leftWall
    {
        type            fixedValue;
        value           nonuniform 0();
    }
    rightWall
    {
        type            fixedValue;
        value           uniform 0;
    }
    lowerWall
    {
        type            fixedValue;
        value           uniform 0;
    }
    atmosphere
    {
        type            calculated;
        value           nonuniform 0();
    }
    defaultFaces
    {
        type            empty;
        value           nonuniform 0();
    }
    procBoundary1to0
    {
        type            processor;
        value           nonuniform List<scalar> 
26
(
-8.51821e-05
-9.26947e-05
-9.58379e-05
-0.000101173
-0.00010086
-6.47316e-05
-4.905e-05
-1.54946e-05
-0.000140537
-0.000169145
-0.000172272
-0.000174719
-0.000170338
-0.000163438
-0.000153896
-0.000142198
-8.47639e-05
-0.000147704
-0.00013294
-0.000114867
-9.06251e-05
-5.00788e-05
2.22154e-05
0.000125911
0.00012499
0.000133258
)
;
    }
    procBoundary1to3
    {
        type            processor;
        value           nonuniform List<scalar> 
23
(
1.64584e-05
1.75608e-05
1.97086e-05
2.17729e-05
5.76037e-05
6.18302e-05
6.89995e-05
7.94078e-05
8.35488e-05
9.03489e-05
9.49612e-05
9.93695e-05
0.000102982
0.000106015
0.000108496
0.0001105
0.000112096
0.000113343
0.000114301
0.000115011
0.000115513
0.000115792
0.000114474
)
;
    }
}


// ************************************************************************* //
