/*--------------------------------*- C++ -*----------------------------------*\
| =========                 |                                                 |
| \\      /  F ield         | OpenFOAM: The Open Source CFD Toolbox           |
|  \\    /   O peration     | Version:  2.4.0                                 |
|   \\  /    A nd           | Web:      www.OpenFOAM.org                      |
|    \\/     M anipulation  |                                                 |
\*---------------------------------------------------------------------------*/
FoamFile
{
    version     2.0;
    format      ascii;
    class       surfaceScalarField;
    location    "0.15";
    object      phi.oil;
}
// * * * * * * * * * * * * * * * * * * * * * * * * * * * * * * * * * * * * * //

dimensions      [0 3 -1 0 0 0 0];

internalField   nonuniform List<scalar> 
1061
(
0.000158009
0.000261862
0.000321804
0.000339644
0.000359693
0.000372294
0.000378619
0.00039008
-5.61272e-05
3.90877e-05
-9.46224e-05
2.66222e-05
-3.17509e-05
7.13821e-06
4.0304e-05
-0.000181841
3.63686e-05
-0.00018078
3.34863e-05
-0.000178442
5.64764e-05
-0.000168212
0.000102936
-0.000163646
0.00013702
-0.000162361
0.000189403
-0.000148803
0.000223904
-0.000145974
0.000235008
-0.000171218
0.000273917
-0.00021096
0.000310168
-0.000355467
0.000309897
-0.000410127
0.000201229
-0.000348409
8.25821e-05
-4.29879e-05
2.97966e-05
1.54093e-05
2.53473e-05
-4.68164e-05
6.68091e-05
-6.58585e-05
5.37226e-05
-1.88573e-06
1.87352e-05
6.95535e-05
-0.000152309
7.97738e-05
-0.000171229
7.61125e-05
-0.000175451
8.27147e-05
-0.000168181
0.0001054
-0.000148296
0.000130853
-0.000133056
0.000155751
-0.000128012
0.00017517
-0.000164306
0.000190798
-0.0002131
0.000243203
-0.000226956
0.000315493
-0.000259883
0.000303686
-0.000253578
0.000212401
-0.000139954
8.60365e-05
1.82012e-05
3.05105e-05
5.21735e-05
5.4032e-05
-3.41771e-05
8.68402e-05
-3.82405e-05
6.1862e-05
1.33296e-05
-2.25397e-05
7.27288e-05
-0.000136235
9.04956e-05
-0.000167293
8.93507e-05
-0.000175249
9.70523e-05
-0.000176518
0.000116981
-0.000163528
0.000138342
-0.000150237
0.000144387
-0.000179354
0.00016406
-0.000231646
0.000158338
-0.000251156
0.000153246
-0.000208974
0.000204576
-4.00005e-05
0.000184347
4.31474e-05
0.000117765
9.06758e-05
5.7912e-05
9.36897e-05
2.58282e-05
8.72304e-05
7.99712e-05
-1.3236e-05
9.9198e-05
2.96582e-06
6.56739e-05
4.69806e-05
-6.55578e-05
8.77593e-05
-0.000140565
0.000103714
-0.000155848
0.000107543
-0.00018273
0.000117396
-0.000187097
0.000132399
-0.000178521
0.000142921
-0.000174448
0.000156998
-0.000218956
0.000159725
-0.000247234
0.000143045
-0.000267396
0.000171202
-0.00011955
0.000150065
7.74998e-05
0.000114314
0.000158016
7.43084e-05
0.000159203
4.06209e-05
0.000134914
2.24238e-05
0.000112599
0.000101841
-9.16261e-06
0.000105957
1.62558e-05
8.48375e-05
6.85626e-05
-8.17473e-05
0.000100853
-0.000125586
0.000119229
-0.000155536
0.000123946
-0.00019044
0.00013012
-0.000193382
0.000140287
-0.000189057
0.000144151
-0.000201894
0.00015519
-0.000223866
0.00016178
-0.000249646
0.000140272
-0.00025657
0.000135525
-3.6947e-05
0.000103632
0.000148543
7.59072e-05
0.000204014
5.16974e-05
0.000190215
3.06589e-05
0.000155706
1.88485e-05
0.000132063
0.000119821
1.4852e-05
7.92406e-05
5.52833e-05
3.89316e-05
9.0447e-05
-8.28173e-05
0.000116858
-0.000115917
0.000130285
-0.000165335
0.000133362
-0.00019429
0.000136326
-0.000196339
0.000141128
-0.000195586
0.000142916
-0.000209132
0.000151345
-0.000229542
0.000154264
-0.00024842
0.000124963
-0.00022755
9.19432e-05
5.5719e-05
6.53331e-05
0.000194471
4.95734e-05
0.000225692
3.56878e-05
0.000204152
2.3897e-05
0.000167855
1.52337e-05
0.000147305
0.000134324
6.30384e-05
1.45355e-05
9.42781e-05
-3.77259e-05
0.000106903
-7.20887e-05
0.000129309
-0.000129332
0.000138845
-0.000176739
0.000139595
-0.00019507
0.000139492
-0.000196217
0.000140211
-0.000198935
0.000142157
-0.00021248
0.000147376
-0.000232249
0.000140402
-0.000250439
0.00010457
-0.000129653
5.26415e-05
0.000135344
3.71542e-05
0.000220267
3.04562e-05
0.000232123
2.40829e-05
0.000206297
1.93631e-05
0.000175819
1.19348e-05
0.000158399
0.00014583
9.48575e-05
-9.41328e-06
9.935e-05
-4.36592e-05
0.000121429
-8.637e-05
0.000140649
-0.000149806
0.000145274
-0.000181467
0.000142501
-0.000192296
0.000140408
-0.000194072
0.000139545
-0.000201175
0.000143626
-0.000214909
0.000149907
-0.000234854
0.000110894
-0.00024834
5.16821e-05
-1.64105e-05
1.89897e-05
0.000171144
1.61288e-05
0.000221195
1.67507e-05
0.000218813
1.60733e-05
0.000192674
1.55322e-05
0.000178379
9.15182e-06
0.000166064
0.000154796
0.00023101
0.000304886
0.00013059
0.000271062
5.75351e-05
0.000245054
1.36795e-05
0.000218537
-1.95688e-05
0.000203587
-4.56016e-05
0.000189472
-6.62532e-05
0.000174547
0.000160711
0.000228164
7.67222e-05
0.000180375
4.77888e-05
0.000155652
2.47834e-05
7.35406e-06
0.000148672
0.000294089
5.36951e-05
0.000310903
3.09751e-05
0.00032295
1.27362e-05
-3.92208e-06
0.000334179
0.000278236
2.05133e-05
0.000298664
1.05475e-05
0.000309404
1.99533e-06
-8.90481e-06
0.000314387
0.000239709
-6.57989e-07
0.000255599
-5.34291e-06
0.000268651
-1.10566e-05
-1.79058e-05
0.000277652
0.000218314
-1.53847e-05
0.000230595
-1.76241e-05
0.000241702
-2.21635e-05
-2.71312e-05
0.000250928
0.000199495
-2.54077e-05
0.000209896
-2.80254e-05
0.000221078
-3.33451e-05
-3.65283e-05
0.000230475
0.000183902
-3.47621e-05
0.000195137
-3.92604e-05
0.000204997
-4.32049e-05
-4.5405e-05
0.000213874
0.000171274
-4.53255e-05
0.000181135
-4.91207e-05
0.0001895
-5.15702e-05
-5.4754e-05
0.000198849
0.000157222
-5.48435e-05
0.000165461
-5.73599e-05
0.000174784
-6.08944e-05
-6.5359e-05
0.000185294
0.000140647
-6.25626e-05
0.000149786
-6.65796e-05
0.000159629
-7.13926e-05
-7.74449e-05
0.000163789
0.000123166
-7.2532e-05
0.000130698
-7.93974e-05
0.000125505
-8.67146e-05
-9.71931e-05
0.000102505
8.87531e-05
-8.88874e-05
7.58097e-05
-0.000105908
4.65957e-05
-0.00011591
-6.72528e-05
2.0872e-05
2.26639e-05
-8.23893e-05
-1.18337e-05
-0.000100149
-3.20708e-05
-8.27454e-05
4.35623e-06
-5.87004e-05
-1.76027e-05
-3.30908e-05
-3.44078e-05
-3.58987e-05
-6.55954e-05
-1.00029e-05
2.82685e-05
-0.000131565
-0.000127966
-3.71593e-06
-0.000126414
1.62803e-05
-0.000117446
2.47388e-05
2.86954e-05
-0.000116367
-0.000146381
1.83826e-05
-0.000146197
2.01418e-05
-0.000140501
2.16044e-05
2.28237e-05
-0.00013528
-0.000131484
-0.000127875
-0.000126695
-0.00012685
0.000204035
-3.53623e-05
0.000262351
-8.46624e-05
0.000307205
-0.000131952
0.000322915
-0.000165692
0.000321045
-0.000179598
0.000310368
-0.000181611
0.000301998
-0.000185717
0.000300677
-0.000198812
0.000311365
-0.000216356
0.00031689
-0.000237342
0.00020395
-0.000161551
3.12476e-05
9.96681e-05
-4.55016e-06
0.000183274
3.26507e-06
0.000203238
1.26476e-05
0.000195588
1.95884e-05
0.000189058
2.09414e-05
0.000186931
1.22375e-05
0.000175054
0.000166972
0.000344836
-4.73603e-05
0.000346997
-8.70156e-05
0.000343918
-0.000128874
0.000337122
-0.000158896
0.000325253
-0.000167729
0.000310808
-0.000166675
0.000298257
-0.000177712
0.000304022
-0.000199198
0.000314089
-0.000219474
0.000245533
-0.000217867
9.64335e-05
3.69066e-05
-7.68552e-06
0.000151807
-1.78246e-05
0.000179708
-9.73838e-06
0.00018439
8.53446e-07
0.000187339
8.34489e-06
0.000194108
1.00008e-05
0.000187359
6.23674e-06
0.000178836
0.000173204
0.000322167
-5.51402e-05
0.000326107
-9.09559e-05
0.000324328
-0.000127095
0.000316451
-0.000151019
0.000304033
-0.000155275
0.00029349
-0.000158954
0.00029091
-0.000184004
0.000300203
-0.000206769
0.000292528
-0.000217325
0.000174133
-3.41103e-05
2.00602e-05
0.000145372
-1.50349e-05
0.000172053
-1.73315e-05
0.000176349
-1.24035e-05
0.000180989
-4.94534e-06
0.000192075
1.10633e-06
0.000191655
3.34112e-06
0.000185293
2.44687e-06
0.000179735
0.000175651
0.000288841
-6.63293e-05
0.000298377
-0.000100492
0.000301895
-0.000130613
0.000295638
-0.000144762
0.00028756
-0.000147674
0.000276884
-0.00017068
0.000282844
-0.000193271
0.000281906
-0.000208172
0.000165138
-0.000107986
1.57297e-05
0.000171075
-9.1696e-06
0.000179153
-1.82276e-05
0.000179092
-1.78764e-05
0.000179488
-1.42534e-05
0.000188009
-8.52413e-06
0.00019095
-3.7097e-06
0.000187179
-9.71132e-07
0.000182572
-2.80358e-08
0.000178793
0.000175624
0.000267523
-8.29247e-05
0.00028143
-0.000114399
0.000286287
-0.00013547
0.000282631
-0.000141285
0.000270177
-0.000159944
0.000270918
-0.0002012
0.000271221
-0.000221577
0.000200801
-0.000129045
3.20882e-05
0.000145116
-1.71695e-05
0.000195131
-2.06309e-05
0.000184536
-2.21569e-05
0.000182564
-2.06063e-05
0.00018599
-1.66664e-05
0.000188854
-1.15016e-05
0.000186315
-7.06046e-06
0.000182768
-3.79699e-06
0.000179312
-1.64527e-06
0.000176643
0.000173979
0.000250617
-0.000103067
0.000264119
-0.000127901
0.000267301
-0.000138885
0.000254602
-0.00015368
0.00024231
-0.000193701
0.00023127
-0.000218232
0.000188624
-0.00015165
3.75235e-05
6.14654e-05
-3.4481e-05
0.000203342
-3.27589e-05
0.000192435
-2.96208e-05
0.000184353
-2.78275e-05
0.000186577
-2.42374e-05
0.000187212
-1.9225e-05
0.000184557
-1.41746e-05
0.000181312
-9.63018e-06
0.000178228
-5.86795e-06
0.000175551
-2.75793e-06
0.000173533
0.000171222
0.000234926
-0.00012412
0.000246695
-0.000139974
0.000238175
-0.000151988
0.000221592
-0.000196418
0.000201329
-0.000228082
0.000139988
-0.000135064
7.80286e-06
5.36271e-05
-5.84916e-05
0.000194219
-5.46177e-05
0.000197123
-4.35658e-05
0.000185702
-3.79534e-05
0.000185139
-3.30024e-05
0.000185568
-2.73564e-05
0.000182452
-2.17657e-05
0.000179039
-1.64555e-05
0.000176009
-1.16695e-05
0.000173443
-7.3999e-06
0.000171281
-3.59066e-06
0.000169725
0.000167631
0.000219132
-0.000144679
0.000215898
-0.000157057
0.000193692
-0.000200433
0.00015924
-0.000228957
0.000100659
-0.000143854
-9.27508e-06
4.55806e-05
-7.97091e-05
0.000178069
-6.95343e-05
0.000192989
-6.34228e-05
0.000186432
-5.17177e-05
0.000181956
-4.41064e-05
0.000182078
-3.6881e-05
0.000179304
-3.02058e-05
0.000175877
-2.4073e-05
0.000172916
-1.84694e-05
0.000170406
-1.3307e-05
0.00016828
-8.59693e-06
0.000166571
-4.233e-06
0.000165361
0.000163398
0.000189169
-0.000165974
0.000166657
-0.000207559
0.000118087
-0.000224486
4.89872e-05
-0.000123032
-3.56736e-05
5.46906e-05
-9.29512e-05
0.000161018
-9.35862e-05
0.000178172
-7.75326e-05
0.000181015
-6.7826e-05
0.000177495
-5.68838e-05
0.000176057
-4.77546e-05
0.000174075
-3.96988e-05
0.000171364
-3.25403e-05
0.000168731
-2.60558e-05
0.000166433
-2.01216e-05
0.000164472
-1.46333e-05
0.000162792
-9.53995e-06
0.000161478
-4.71732e-06
0.000160539
0.000158681
0.000131386
-0.000213952
6.93354e-05
-0.000232909
-7.98704e-06
-0.000106929
-6.42688e-05
6.6377e-05
-0.000105323
0.000140378
-0.000107498
0.000160817
-9.56783e-05
0.0001658
-8.15421e-05
0.000167614
-7.00493e-05
0.000167262
-5.93499e-05
0.000166372
-5.0001e-05
0.000164836
-4.17105e-05
0.000163084
-3.43217e-05
0.000161343
-2.76154e-05
0.000159726
-2.14264e-05
0.000158282
-1.56806e-05
0.000157046
-1.02609e-05
0.000156058
-5.09165e-06
0.00015537
0.00015359
1.88566e-05
-0.000248489
-4.87174e-05
-0.000114654
-9.8711e-05
5.92651e-05
-0.000111138
0.000113113
-0.000119473
0.000140092
-0.000107635
0.000147382
-9.47075e-05
0.000152515
-8.19803e-05
0.000154953
-7.07175e-05
0.000156071
-6.04833e-05
0.000156183
-5.12919e-05
0.000155645
-4.30503e-05
0.000154842
-3.558e-05
0.000153873
-2.87404e-05
0.000152886
-2.23798e-05
0.000151922
-1.64338e-05
0.0001511
-1.07931e-05
0.000150418
-5.35476e-06
0.000149932
0.000148235
-4.33553e-05
-0.000115773
-0.000108835
6.07998e-05
-0.000132924
9.71267e-05
-0.000126202
0.000112338
-0.000116129
0.000128027
-0.000104902
0.000134957
-9.26097e-05
0.000140274
-8.10661e-05
0.000143392
-7.04784e-05
0.000145417
-6.07325e-05
0.000146421
-5.18893e-05
0.000146799
-4.37904e-05
0.000146742
-3.63528e-05
0.000146434
-2.94599e-05
0.000145993
-2.30327e-05
0.000145494
-1.696e-05
0.000145027
-1.11634e-05
0.000144621
-5.55262e-06
0.000144321
0.000142683
-8.29654e-05
4.34146e-05
-9.92414e-05
8.89557e-05
-0.000127392
0.00010327
-0.000122673
0.000110378
-0.000111486
0.000118056
-0.000100848
0.000124272
-8.98085e-05
0.000129236
-7.93448e-05
0.000132918
-6.94954e-05
0.000135541
-6.03295e-05
0.000137249
-5.18385e-05
0.000138306
-4.3978e-05
0.000138881
-3.66634e-05
0.000139119
-2.98253e-05
0.000139154
-2.33855e-05
0.000139054
-1.72619e-05
0.000138903
-1.13829e-05
0.000138742
-5.64885e-06
0.000138588
0.000137034
-0.000147779
6.12173e-05
-0.000123221
7.79302e-05
-0.000123265
9.33347e-05
-0.00011604
0.000102512
-0.000106019
0.000107983
-9.64528e-05
0.000114705
-8.65957e-05
0.000119378
-7.70883e-05
0.000123407
-6.79827e-05
0.000126428
-5.93827e-05
0.000128646
-5.13023e-05
0.000130224
-4.37161e-05
0.000131293
-3.65962e-05
0.000131998
-2.98647e-05
0.000132422
-2.34819e-05
0.000132671
-1.73694e-05
0.00013279
-1.14682e-05
0.00013284
-5.71231e-06
0.000132832
0.000131322
-0.000130997
7.14502e-05
-0.000126375
7.86883e-05
-0.000118225
8.46194e-05
-0.00010977
9.40424e-05
-0.000100889
9.90992e-05
-9.20445e-05
0.000105858
-8.31731e-05
0.000110505
-7.4494e-05
0.000114724
-6.60786e-05
0.000118009
-5.80273e-05
0.000120591
-5.03673e-05
0.000122562
-4.31025e-05
0.000124026
-3.62023e-05
0.000125096
-2.96402e-05
0.000125858
-2.33586e-05
0.000126388
-1.73121e-05
0.000126742
-1.14437e-05
0.000126972
-5.68372e-06
0.000127071
0.000125638
-0.000123916
6.33523e-05
-0.000119882
7.0569e-05
-0.000111295
7.60618e-05
-0.000103949
8.6697e-05
-9.58451e-05
9.09928e-05
-8.77519e-05
9.77645e-05
-7.96621e-05
0.000102412
-7.16794e-05
0.00010674
-6.38908e-05
0.000110218
-5.63614e-05
0.00011306
-4.9123e-05
0.000115322
-4.21883e-05
0.00011709
-3.55497e-05
0.000118456
-2.9179e-05
0.000119487
-2.30476e-05
0.000120255
-1.71113e-05
0.000120805
-1.13289e-05
0.000121188
-5.64889e-06
0.000121391
0.000119988
-0.000119987
-0.000112786
-0.000105698
-9.84103e-05
-9.09652e-05
-8.35518e-05
-7.61004e-05
-6.87321e-05
-6.14965e-05
-5.44523e-05
-4.76271e-05
-4.10377e-05
-3.46774e-05
-2.85341e-05
-2.25802e-05
-1.67863e-05
-1.11114e-05
-5.51456e-06
)
;

boundaryField
{
    leftWall
    {
        type            fixedValue;
        value           nonuniform 0();
    }
    rightWall
    {
        type            fixedValue;
        value           uniform 0;
    }
    lowerWall
    {
        type            fixedValue;
        value           uniform 0;
    }
    atmosphere
    {
        type            calculated;
        value           nonuniform 0();
    }
    defaultFaces
    {
        type            empty;
        value           nonuniform 0();
    }
    procBoundary1to0
    {
        type            processor;
        value           nonuniform List<scalar> 
26
(
-4.90907e-05
-6.69865e-05
-6.73509e-05
-5.65927e-05
-3.81217e-05
-1.64398e-05
-6.58667e-06
-1.14663e-05
-0.000145816
-0.000170642
-0.000171999
-0.000174682
-0.000170339
-0.000163439
-0.000153896
-0.000142198
-8.4766e-05
-0.000147704
-0.000132939
-0.000114865
-9.04213e-05
-4.57092e-05
1.79126e-05
0.000122225
0.000127981
0.000134016
)
;
    }
    procBoundary1to3
    {
        type            processor;
        value           nonuniform List<scalar> 
23
(
1.53898e-05
1.69364e-05
1.91827e-05
2.14897e-05
5.75022e-05
6.18525e-05
6.89997e-05
7.94078e-05
8.35488e-05
9.03489e-05
9.49612e-05
9.93695e-05
0.000102982
0.000106015
0.000108496
0.0001105
0.000112096
0.000113343
0.000114301
0.000115011
0.000115513
0.000115792
0.000114474
)
;
    }
}


// ************************************************************************* //
