/*--------------------------------*- C++ -*----------------------------------*\
| =========                 |                                                 |
| \\      /  F ield         | OpenFOAM: The Open Source CFD Toolbox           |
|  \\    /   O peration     | Version:  2.4.0                                 |
|   \\  /    A nd           | Web:      www.OpenFOAM.org                      |
|    \\/     M anipulation  |                                                 |
\*---------------------------------------------------------------------------*/
FoamFile
{
    version     2.0;
    format      ascii;
    class       surfaceScalarField;
    location    "0.15";
    object      phi.air;
}
// * * * * * * * * * * * * * * * * * * * * * * * * * * * * * * * * * * * * * //

dimensions      [0 3 -1 0 0 0 0];

internalField   nonuniform List<scalar> 
1061
(
7.8257e-05
0.000151136
0.000188982
0.000219448
0.00026221
0.00033224
0.000375479
0.000390076
-5.32264e-05
5.32264e-05
-0.000146413
9.31864e-05
-0.000292292
0.000145844
-0.000377499
8.24459e-05
-0.000337387
-6.28421e-05
-0.000237039
-0.000123609
-9.06154e-05
-7.75314e-05
7.79288e-05
-5.2525e-06
0.000236951
6.3802e-05
0.000332179
3.5769e-05
0.00036198
0.000112573
0.000339417
9.38579e-05
0.000331493
1.42443e-05
0.000311937
2.38357e-05
0.000231378
8.21596e-05
0.000130278
0.000101474
6.63606e-05
6.39287e-05
2.8606e-05
3.77548e-05
2.86061e-05
-4.43905e-05
9.7617e-05
-9.53459e-05
0.000144142
-0.000120017
0.000170463
-6.15445e-05
2.03708e-05
4.4494e-06
-0.000149301
-2.72173e-05
-0.000134142
2.72687e-05
-0.000107598
0.000100487
9.09773e-06
0.000161317
3.7999e-05
0.000195138
5.7993e-05
0.00023702
7.24275e-05
0.000286178
-2.87782e-05
0.000258516
1.20874e-06
0.000237758
3.23477e-05
0.000185192
0.000132857
0.000114412
0.000172213
6.31686e-05
0.000115174
2.7953e-05
7.29705e-05
5.6559e-05
-2.59132e-05
0.00012353
-3.41675e-05
0.000152396
1.10265e-05
0.000125269
7.53631e-05
-4.14225e-05
5.46702e-05
-0.00014418
1.73951e-05
-0.000160751
5.58137e-05
-0.000124015
0.000118064
-7.96576e-05
0.000168257
-2.1531e-05
0.000215405
3.09535e-05
0.000251996
-0.000113761
0.000213546
-3.95744e-05
0.000227538
-1.64339e-05
0.000185539
7.41885e-05
0.000125695
0.000192623
8.37615e-05
0.000214139
5.21726e-05
0.000146763
2.47772e-05
0.000100366
8.13362e-05
-1.03089e-05
0.000133839
-5.22675e-06
0.000147314
6.17511e-05
5.88896e-05
0.000119567
-8.3332e-05
7.62339e-05
-0.00011234
4.06145e-05
-0.000200412
0.00010674
-0.000176231
0.00013386
-0.000115214
0.000208522
-1.22096e-05
0.000227078
-0.000152096
0.00019664
-0.000132495
0.000215004
-6.33615e-05
0.000179662
1.88046e-05
0.000121477
0.000132373
7.86951e-05
0.000235405
6.10788e-05
0.000231755
4.24026e-05
0.000165439
2.11639e-05
0.000121605
0.0001025
-4.95893e-06
0.000138798
4.07629e-05
0.000101635
9.77372e-05
8.21977e-06
0.000113417
-8.83438e-05
8.20119e-05
-0.000139099
7.33808e-05
-0.000216822
0.000119945
-0.000190805
0.000155307
-0.000101906
0.000206907
-9.33269e-05
0.000191924
-0.000200473
0.000183047
-0.000136027
0.000167144
-4.79858e-05
0.000121473
6.44698e-05
7.11085e-05
0.000182737
5.01249e-05
0.000256388
4.54014e-05
0.000236478
3.39587e-05
0.000176882
1.75973e-05
0.000137966
0.000120097
1.37933e-06
0.000137419
5.53694e-05
4.77915e-05
0.000121008
-4.03162e-05
0.000119776
-9.4139e-05
8.75052e-05
-0.00020878
0.000119824
-0.000204332
0.000119156
-0.000195298
0.000171737
-0.000109149
0.00016655
-0.000168314
0.000155087
-0.000204405
0.00014448
-0.000127403
0.000108561
-1.2004e-05
6.68702e-05
0.000106161
3.56038e-05
0.000214003
3.07416e-05
0.00026125
3.32434e-05
0.000233977
2.67374e-05
0.000183388
1.43167e-05
0.000150387
0.000134414
3.42424e-05
0.000107294
9.50212e-05
-5.31331e-06
0.000112076
-4.98956e-05
0.000103422
-0.000145086
0.000111094
-0.000212741
0.000138928
-0.000195715
0.000120333
-0.00019584
0.000167728
-0.000126654
0.000150195
-0.000188862
0.000134095
-0.000194217
0.000103661
-9.64746e-05
6.34505e-05
2.83561e-05
2.86253e-05
0.000140986
1.25119e-05
0.000230117
1.7723e-05
0.000256039
2.42601e-05
0.000227439
2.07741e-05
0.000186874
1.14341e-05
0.000159727
0.000145848
7.97368e-05
3.66749e-05
9.48512e-05
-1.31344e-06
0.000109755
-9.44802e-05
0.000117232
-0.000196197
0.000143328
-0.000184701
0.000142283
-0.000192627
0.000120993
-0.000186068
0.000152658
-0.000149749
0.000146917
-0.000204094
0.000117382
-0.000168135
6.47123e-05
-4.23943e-05
2.3125e-05
7.00017e-05
4.39055e-07
0.000163672
-1.7454e-06
0.000232301
9.54937e-06
0.000244745
1.74969e-05
0.000219492
1.58109e-05
0.00018856
8.93775e-06
0.0001666
0.000154786
0.000231011
0.000304869
0.000130592
0.000271054
5.75383e-05
0.000245049
1.36828e-05
0.000218534
-1.95655e-05
0.000203585
-4.55975e-05
0.000189472
-6.62456e-05
0.00017455
0.000160717
0.000228147
7.6722e-05
0.000180354
4.77899e-05
7.4392e-05
2.47876e-05
-5.63939e-05
9.08888e-05
0.000294078
5.3697e-05
0.000310889
3.09778e-05
0.000324183
1.27404e-05
-4.34263e-06
0.000335037
0.000278229
2.05158e-05
0.000298656
1.05506e-05
0.000309397
1.99914e-06
-8.9005e-06
0.000314381
0.000239705
-6.55605e-07
0.000255595
-5.34026e-06
0.000268647
-1.10536e-05
-1.79024e-05
0.000277649
0.000218312
-1.53828e-05
0.000230594
-1.7622e-05
0.000241701
-2.2161e-05
-2.71285e-05
0.000250927
0.000199495
-2.54055e-05
0.000209896
-2.8023e-05
0.000221078
-3.33427e-05
-3.65261e-05
0.000230476
0.000183904
-3.47586e-05
0.00019514
-3.92568e-05
0.000204999
-4.3202e-05
-4.54023e-05
0.000213879
0.000171281
-4.53172e-05
0.000181141
-4.91131e-05
0.000189506
-5.15605e-05
-5.45374e-05
0.000200088
0.000157239
-5.4785e-05
0.00016548
-5.67479e-05
0.000175105
-5.44523e-05
-4.04494e-05
0.00021252
0.000141261
-4.07851e-05
0.000158674
-3.87598e-05
0.000200762
-4.23267e-05
-4.1439e-05
0.000227326
0.000171239
-3.95103e-05
0.000178686
-4.34479e-05
0.000168146
-3.55389e-05
-4.14119e-05
0.000151068
0.000109696
-4.36513e-05
0.000125828
-6.28193e-05
8.72183e-05
-3.54493e-05
-2.39325e-06
1.75529e-05
7.82615e-05
-3.97315e-05
3.13388e-05
-3.87897e-05
-4.57113e-05
2.52538e-05
2.21396e-05
-7.20261e-05
-7.39421e-05
3.57457e-07
-0.000124274
1.05895e-05
-0.000131065
3.20004e-05
3.15134e-05
-0.000140438
-0.000124606
-9.33704e-07
-0.000130568
1.65505e-05
-0.000123928
2.53599e-05
2.89916e-05
-0.000121406
-0.000144249
1.83392e-05
-0.000147364
1.96647e-05
-0.000143067
2.10635e-05
2.2534e-05
-0.00013661
-0.000131362
-0.000129253
-0.000127894
-0.000127127
0.000210448
-0.000176846
0.000235617
-0.000198989
0.000305944
-0.00014274
0.000322921
-0.000165678
0.000320927
-0.000179603
0.000280917
-0.00018281
0.000301377
-0.000181185
0.000284397
-0.000169943
0.000279605
-0.000196555
0.000185412
-7.18304e-05
6.66692e-05
7.86671e-05
-3.92925e-06
0.000140627
-2.89271e-05
0.00018867
-1.58527e-05
0.000219227
7.9654e-06
0.000220927
2.10064e-05
0.000206451
2.06505e-05
0.000188916
1.21555e-05
0.000175095
0.000166942
0.000344873
-4.7517e-05
0.000346999
-8.69983e-05
0.000343927
-0.000128855
0.000337128
-0.000158883
0.000322255
-0.00016818
0.000230196
-0.000193087
0.000323603
-0.000176768
0.000298305
-0.000184822
0.000224841
-0.000125332
9.76439e-05
5.81837e-05
1.85734e-05
0.000157966
-1.85916e-05
0.000177792
-2.6444e-05
0.000196523
-1.46837e-05
0.000207467
-8.86534e-08
0.000206332
8.48882e-06
0.000197874
9.93743e-06
0.000187468
6.22582e-06
0.000178807
0.000173168
0.000322166
-5.51271e-05
0.000326111
-9.09412e-05
0.000324337
-0.00012708
0.000316317
-0.000151098
0.000265133
-0.000164749
0.000333888
-0.000156788
0.000292028
-0.000151559
0.000260817
-0.000159471
0.000134778
1.30875e-08
3.34761e-05
0.000160285
-3.39437e-06
0.000194842
-1.96714e-05
0.00019407
-2.10689e-05
0.000197921
-1.36194e-05
0.000200018
-4.84307e-06
0.000197556
1.12688e-06
0.000191904
3.33395e-06
0.000185261
2.44486e-06
0.000179696
0.000175613
0.000288841
-6.63196e-05
0.000298381
-0.00010048
0.00030197
-0.000130607
0.000296601
-0.000145255
0.000305003
-0.000146405
0.000309043
-0.000115049
0.000285282
-0.000162845
0.000162205
-4.37014e-05
3.48955e-05
0.000128085
-6.96324e-06
0.000202161
-1.68336e-05
0.000204712
-2.17369e-05
0.000198973
-2.00579e-05
0.000196242
-1.45517e-05
0.000194512
-8.46073e-06
0.000191465
-3.70164e-06
0.000187145
-9.71625e-07
0.000182531
-2.85149e-08
0.000178753
0.000175584
0.000267524
-8.29173e-05
0.000281476
-0.000114385
0.000292792
-0.000134259
0.000293637
-0.000134734
0.000329086
-9.44426e-05
0.000327366
-0.000173402
0.000208464
-6.67305e-05
6.20585e-05
0.000101749
-1.31714e-05
0.000203376
-2.54799e-05
0.00021447
-2.59325e-05
0.000205165
-2.47095e-05
0.00019775
-2.14736e-05
0.000193006
-1.6649e-05
0.000189687
-1.14788e-05
0.000186295
-7.05715e-06
0.000182724
-3.79637e-06
0.00017927
-1.64541e-06
0.000176602
0.000173939
0.000250647
-0.000103058
0.000269129
-0.000125134
0.000282648
-0.000112264
0.000332736
-7.42531e-05
0.000318125
-0.000152284
0.000196517
-8.51419e-05
5.14883e-05
7.37207e-05
-3.28172e-05
0.000186021
-4.29679e-05
0.000213527
-3.84208e-05
0.000209923
-3.34319e-05
0.000200176
-2.90051e-05
0.000193324
-2.43203e-05
0.000188321
-1.9195e-05
0.000184562
-1.41662e-05
0.000181266
-9.62779e-06
0.000178185
-5.86686e-06
0.00017551
-2.75753e-06
0.000173493
0.000171182
0.000238725
-0.000122331
0.000270356
-9.80931e-05
0.000313621
-6.81884e-05
0.000306203
-0.000137571
0.000194016
-8.33642e-05
4.4656e-05
5.75527e-05
-5.1484e-05
0.000169775
-6.59102e-05
0.000200447
-5.78009e-05
0.000205417
-4.73921e-05
0.000199514
-3.96422e-05
0.000192427
-3.31643e-05
0.000186846
-2.73224e-05
0.00018248
-2.17517e-05
0.000178991
-1.64508e-05
0.000175965
-1.16669e-05
0.000173401
-7.39815e-06
0.000171241
-3.5901e-06
0.000169685
0.000167592
0.00024743
-9.23171e-05
0.000287568
-6.77712e-05
0.000282263
-0.000124607
0.000170679
-7.90758e-05
2.97982e-05
4.69379e-05
-6.85319e-05
0.000155694
-8.4036e-05
0.00018528
-7.74672e-05
0.000193878
-6.4637e-05
0.000192587
-5.33136e-05
0.000188191
-4.43459e-05
0.000183459
-3.68384e-05
0.000179338
-3.01848e-05
0.000175826
-2.40652e-05
0.000172872
-1.8465e-05
0.000170365
-1.33039e-05
0.00016824
-8.59492e-06
0.000166532
-4.23193e-06
0.000165322
0.00016336
0.000259247
-8.08159e-05
0.000254261
-0.000126071
0.000139291
-7.00319e-05
6.44132e-06
4.13209e-05
-8.74547e-05
0.000140584
-0.000100446
0.000168685
-9.40966e-05
0.00017893
-8.11407e-05
0.000180922
-6.81763e-05
0.000179623
-5.70672e-05
0.000177082
-4.77009e-05
0.000174093
-3.96692e-05
0.000171307
-3.25292e-05
0.000168686
-2.60494e-05
0.000166392
-2.01169e-05
0.000164433
-1.46298e-05
0.000162753
-9.53744e-06
0.00016144
-4.71632e-06
0.000160501
0.000158643
0.000217764
-0.000123855
9.24391e-05
-6.41881e-05
-3.2647e-05
4.2092e-05
-0.000108912
0.000117364
-0.000116352
0.000148024
-0.000108836
0.000161169
-9.56434e-05
0.000165738
-8.22376e-05
0.000167516
-7.00301e-05
0.000167415
-5.92858e-05
0.000166338
-4.99643e-05
0.000164771
-4.16957e-05
0.000163038
-3.43133e-05
0.000161304
-2.76091e-05
0.000159688
-2.14213e-05
0.000158245
-1.56767e-05
0.000157009
-1.02583e-05
0.000156021
-5.09027e-06
0.000155333
0.000153553
4.37024e-05
-7.27041e-05
-7.07215e-05
3.64838e-05
-0.000123623
9.48508e-05
-0.000128893
0.000122634
-0.000121404
0.000140536
-0.000108022
0.000147786
-9.47326e-05
0.000152448
-8.20981e-05
0.000154882
-7.06682e-05
0.000155985
-6.04459e-05
0.000156115
-5.12745e-05
0.0001556
-4.304e-05
0.000154804
-3.55721e-05
0.000153836
-2.87338e-05
0.00015285
-2.23744e-05
0.000151886
-1.64297e-05
0.000151064
-1.07902e-05
0.000150382
-5.35354e-06
0.000149896
0.000148199
-9.9397e-05
3.10804e-05
-0.000128597
6.56262e-05
-0.000134482
0.000100736
-0.000128998
0.000117149
-0.000117752
0.00012929
-0.000104823
0.000134858
-9.26132e-05
0.000140238
-8.10775e-05
0.000143346
-7.04525e-05
0.00014536
-6.07148e-05
0.000146378
-5.18776e-05
0.000146763
-4.37811e-05
0.000146707
-3.63448e-05
0.0001464
-2.94531e-05
0.000145958
-2.30272e-05
0.00014546
-1.69557e-05
0.000144992
-1.11606e-05
0.000144587
-5.55099e-06
0.000144287
0.000142648
-9.47132e-05
5.36875e-05
-0.000125981
9.68935e-05
-0.000128984
0.00010374
-0.000122789
0.000110954
-0.000111448
0.000117949
-0.000100832
0.000124241
-8.97994e-05
0.000129206
-7.93369e-05
0.000132884
-6.94806e-05
0.000135504
-6.03174e-05
0.000137215
-5.18283e-05
0.000138274
-4.39689e-05
0.000138848
-3.66554e-05
0.000139086
-2.98185e-05
0.000139121
-2.33799e-05
0.000139021
-1.72576e-05
0.00013887
-1.13797e-05
0.000138709
-5.64741e-06
0.000138555
0.000137001
-0.000148025
6.12745e-05
-0.000134548
8.34161e-05
-0.000124481
9.3673e-05
-0.000115997
0.00010247
-0.000106003
0.000107955
-9.644e-05
0.000114678
-8.65842e-05
0.00011935
-7.70777e-05
0.000123377
-6.7971e-05
0.000126398
-5.9372e-05
0.000128616
-5.12924e-05
0.000130194
-4.37071e-05
0.000131263
-3.65883e-05
0.000131967
-2.9858e-05
0.000132391
-2.34764e-05
0.000132639
-1.7365e-05
0.000132759
-1.14651e-05
0.000132809
-5.71091e-06
0.0001328
0.00013129
-0.000131593
7.14614e-05
-0.000127326
7.91489e-05
-0.000118204
8.45512e-05
-0.000109755
9.40214e-05
-0.000100876
9.90761e-05
-9.20321e-05
0.000105834
-8.31621e-05
0.00011048
-7.4483e-05
0.000114698
-6.60681e-05
0.000117983
-5.8017e-05
0.000120565
-5.03577e-05
0.000122535
-4.30938e-05
0.000123999
-3.61946e-05
0.000125068
-2.96337e-05
0.00012583
-2.33532e-05
0.000126359
-1.73078e-05
0.000126713
-1.14409e-05
0.000126942
-5.6821e-06
0.000127041
0.000125608
-0.000128396
6.3248e-05
-0.000119787
7.05399e-05
-0.00011128
7.60438e-05
-0.000103936
8.66773e-05
-9.58325e-05
9.09727e-05
-8.77408e-05
9.77425e-05
-7.96511e-05
0.00010239
-7.16691e-05
0.000106716
-6.38805e-05
0.000110194
-5.63517e-05
0.000113036
-4.91138e-05
0.000115297
-4.21799e-05
0.000117065
-3.55423e-05
0.000118431
-2.91727e-05
0.000119461
-2.30424e-05
0.000120229
-1.71075e-05
0.000120778
-1.1326e-05
0.000121161
-5.64763e-06
0.000121363
0.00011996
-0.000121469
-0.000112745
-0.000105684
-9.83975e-05
-9.09542e-05
-8.35409e-05
-7.60904e-05
-6.8722e-05
-6.14868e-05
-5.44428e-05
-4.76184e-05
-4.10296e-05
-3.46704e-05
-2.85281e-05
-2.25754e-05
-1.67826e-05
-1.11093e-05
-5.5129e-06
)
;

boundaryField
{
    leftWall
    {
        type            fixedValue;
        value           nonuniform 0();
    }
    rightWall
    {
        type            fixedValue;
        value           uniform 0;
    }
    lowerWall
    {
        type            fixedValue;
        value           uniform 0;
    }
    atmosphere
    {
        type            calculated;
        value           nonuniform 0();
    }
    defaultFaces
    {
        type            empty;
        value           nonuniform 0();
    }
    procBoundary1to0
    {
        type            processor;
        value           nonuniform List<scalar> 
26
(
-8.37188e-05
-9.08834e-05
-9.14071e-05
-8.71752e-05
-6.95592e-05
-2.61937e-05
-7.28101e-06
-1.14604e-05
-0.000145806
-0.000170637
-0.000171996
-0.000174679
-0.000170337
-0.000163439
-0.000153897
-0.000142203
-8.47488e-05
-0.000147721
-0.000133018
-0.000151122
-0.000137904
-0.000125153
2.88331e-05
0.000125896
0.000124976
0.000133247
)
;
    }
    procBoundary1to3
    {
        type            processor;
        value           nonuniform List<scalar> 
23
(
1.64541e-05
1.75564e-05
1.97037e-05
2.17678e-05
5.75899e-05
6.18157e-05
6.89827e-05
7.93905e-05
8.35294e-05
9.03292e-05
9.49398e-05
9.9348e-05
0.000102959
0.000105992
0.000108472
0.000110476
0.000112071
0.000113318
0.000114276
0.000114986
0.000115487
0.000115767
0.000114448
)
;
    }
}


// ************************************************************************* //
