/*--------------------------------*- C++ -*----------------------------------*\
| =========                 |                                                 |
| \\      /  F ield         | OpenFOAM: The Open Source CFD Toolbox           |
|  \\    /   O peration     | Version:  2.4.0                                 |
|   \\  /    A nd           | Web:      www.OpenFOAM.org                      |
|    \\/     M anipulation  |                                                 |
\*---------------------------------------------------------------------------*/
FoamFile
{
    version     2.0;
    format      ascii;
    class       surfaceScalarField;
    location    "0.15";
    object      phi.water;
}
// * * * * * * * * * * * * * * * * * * * * * * * * * * * * * * * * * * * * * //

dimensions      [0 3 -1 0 0 0 0];

internalField   nonuniform List<scalar> 
1061
(
7.79432e-05
0.000151188
0.000190637
0.000224488
0.000272988
0.000340417
0.000376913
0.000390072
-5.32058e-05
5.32211e-05
-0.000146094
9.30224e-05
-0.00025664
0.00014479
-0.000121008
2.52697e-05
-3.00999e-05
-0.000149807
1.37287e-05
-0.00017471
4.99423e-05
-0.000165381
0.000102036
-0.00015993
0.00014104
-0.000157901
0.000196806
-0.000143939
0.000232101
-0.000136922
0.000242153
-0.000155908
0.000280797
-0.000177632
0.000310669
-0.000246637
0.000266248
-0.000134505
0.000137961
5.20398e-05
6.64004e-05
6.35822e-05
2.86114e-05
3.77525e-05
2.86106e-05
-4.43706e-05
9.7595e-05
-9.51429e-05
0.000143774
-9.54887e-05
0.000169179
3.15596e-05
-3.98954e-05
7.43355e-05
-0.000168609
7.42559e-05
-0.000174681
8.24168e-05
-0.000167952
0.000105385
-0.000147896
0.000131038
-0.000132583
0.000156102
-0.000127023
0.000177083
-0.000158126
0.000201827
-0.000193191
0.000249181
-0.000145669
0.000255567
-3.05002e-05
0.00020112
8.06313e-05
0.000117573
0.000162194
6.32243e-05
0.000114949
2.79584e-05
7.29747e-05
5.65646e-05
-2.59202e-05
0.000123499
-3.41583e-05
0.00015193
1.18722e-05
0.00012133
7.31029e-05
-0.000108618
8.95932e-05
-0.000166383
8.91214e-05
-0.000175192
9.70573e-05
-0.000176496
0.000116989
-0.000163501
0.000138408
-0.000150158
0.000146129
-0.000176765
0.000172448
-0.000222792
0.000175336
-0.000184713
0.000221615
-3.17545e-05
0.000185631
7.39225e-05
0.00012599
0.000192029
8.38724e-05
0.000213757
5.21859e-05
0.000146737
2.47819e-05
0.000100378
8.13476e-05
-1.03018e-05
0.000133818
-4.98888e-06
0.000146944
5.11596e-05
2.15536e-05
9.03721e-05
-0.00013318
0.000103419
-0.000155206
0.000107499
-0.00018274
0.000117407
-0.000187077
0.00013241
-0.000178496
0.000143698
-0.000174111
0.000160998
-0.000216899
0.000167338
-0.000227157
0.000198652
-0.000111401
0.000179643
1.83869e-05
0.000121571
0.000132297
7.88086e-05
0.000235225
6.11078e-05
0.00023166
4.24105e-05
0.000165454
2.11683e-05
0.000121621
0.000102513
-4.95595e-06
0.000138782
3.32583e-05
0.000101528
7.31136e-05
-5.64576e-05
0.000101321
-0.000123782
0.000119093
-0.000155461
0.00012395
-0.000190426
0.000130131
-0.000193361
0.00014032
-0.000189032
0.000145571
-0.000201354
0.000158445
-0.00022265
0.00016964
-0.000215799
0.000165147
-6.76028e-05
0.000121517
6.42637e-05
7.11929e-05
0.000182713
5.01812e-05
0.000256321
4.5415e-05
0.000236473
3.39657e-05
0.000176906
1.76011e-05
0.000137987
0.000120116
1.47098e-06
0.000137294
5.53118e-05
4.24785e-05
9.27702e-05
-7.86622e-05
0.000116895
-0.000115624
0.000130257
-0.000165363
0.000133373
-0.000194266
0.000136336
-0.00019632
0.000141239
-0.000195563
0.000143554
-0.000208789
0.000151801
-0.000227748
0.000149853
-0.000201164
0.00010926
-2.22931e-05
6.6932e-05
0.000106115
3.56682e-05
0.000214018
3.07721e-05
0.000261246
3.32523e-05
0.000234003
2.67435e-05
0.000183417
1.432e-05
0.000150411
0.000134435
5.15793e-05
3.39337e-05
9.43517e-05
-3.45621e-05
0.000107011
-7.15967e-05
0.000129268
-0.000129356
0.000138852
-0.000176718
0.000139606
-0.000195047
0.000139501
-0.000196198
0.000140351
-0.000198913
0.000142426
-0.000212149
0.000145032
-0.000228187
0.000120305
-0.00016909
6.39778e-05
2.62755e-05
2.86714e-05
0.000141033
1.25534e-05
0.000230155
1.77381e-05
0.000256067
2.42667e-05
0.000227476
2.07792e-05
0.000186906
1.14369e-05
0.000159754
0.000145873
9.35669e-05
-6.3078e-06
9.9256e-05
-4.25928e-05
0.000121401
-8.63932e-05
0.000140651
-0.000149796
0.000145283
-0.000181445
0.000142511
-0.000192275
0.000140413
-0.000194053
0.000139658
-0.000201114
0.000143793
-0.000214646
0.000141584
-0.000223863
7.79971e-05
-0.000107451
2.31993e-05
6.97908e-05
4.6673e-07
0.000163736
-1.72425e-06
0.000232342
9.55722e-06
0.00024478
1.75026e-05
0.000219531
1.58153e-05
0.000188595
8.94016e-06
0.00016663
0.000154814
0.000231012
0.000304866
0.000130584
0.000271052
5.7507e-05
0.000245046
1.36989e-05
0.000218526
-1.95553e-05
0.000203583
-4.55986e-05
0.000189471
-6.62508e-05
0.000174547
0.000160711
0.000228148
7.67237e-05
0.000180358
4.77907e-05
0.000155626
2.47878e-05
7.35663e-06
0.000148626
0.000294077
5.36955e-05
0.000310889
3.09774e-05
0.000322936
1.27406e-05
-3.91612e-06
0.000334165
0.000278228
2.05036e-05
0.000298656
1.05428e-05
0.000309397
1.99385e-06
-8.90384e-06
0.00031438
0.0002397
-6.49685e-07
0.000255592
-5.33647e-06
0.000268645
-1.10514e-05
-1.79011e-05
0.000277647
0.000218311
-1.53799e-05
0.000230593
-1.76202e-05
0.0002417
-2.21595e-05
-2.71275e-05
0.000250926
0.000199494
-2.5406e-05
0.000209896
-2.80234e-05
0.000221078
-3.3343e-05
-3.65262e-05
0.000230475
0.000183902
-3.47608e-05
0.000195137
-3.92589e-05
0.000204998
-4.32034e-05
-4.54034e-05
0.000213875
0.000171275
-4.53244e-05
0.000181136
-4.91195e-05
0.000189501
-5.1569e-05
-5.47527e-05
0.000198851
0.000157222
-5.48426e-05
0.000165462
-5.7359e-05
0.000174786
-6.08935e-05
-6.53551e-05
0.000185299
0.000140648
-6.25613e-05
0.000149787
-6.65739e-05
0.000159635
-7.13542e-05
-7.71897e-05
0.000164057
0.000123177
-7.24347e-05
0.000130769
-7.91223e-05
0.00012586
-8.5499e-05
-9.33825e-05
0.000104075
8.89705e-05
-8.73545e-05
7.7327e-05
-0.000102731
5.07295e-05
-0.000106313
-5.12082e-05
2.00657e-05
3.0529e-05
-7.72993e-05
4.77407e-06
-7.90997e-05
-4.33629e-05
6.71157e-06
2.21335e-05
-7.20259e-05
-7.29729e-05
2.14292e-07
-0.000122756
9.93761e-06
-0.000130831
3.18464e-05
3.15214e-05
-0.000140456
-0.000124623
-9.28078e-07
-0.000130585
1.65572e-05
-0.000123945
2.5367e-05
2.89988e-05
-0.000121423
-0.000144264
1.83445e-05
-0.000147379
1.96702e-05
-0.000143084
2.10692e-05
2.25403e-05
-0.000136625
-0.000131374
-0.000129268
-0.000127908
-0.000127143
0.00020404
-3.54248e-05
0.00026235
-8.46509e-05
0.000307216
-0.000131928
0.000322928
-0.000165671
0.000321062
-0.000179579
0.000310388
-0.000181593
0.000302004
-0.000185709
0.000300386
-0.00019854
0.000308075
-0.000214939
0.000269974
-0.000179135
8.1551e-05
5.27693e-05
-3.8783e-06
0.00014063
-2.89083e-05
0.000188721
-1.58401e-05
0.000219272
7.97431e-06
0.000220971
2.10148e-05
0.000206493
2.0657e-05
0.000188954
1.21591e-05
0.000175129
0.000166975
0.000344835
-4.73402e-05
0.000347
-8.69956e-05
0.000343927
-0.000128854
0.000337134
-0.000158878
0.000325269
-0.000167714
0.000310803
-0.000166664
0.000298455
-0.000177707
0.000303748
-0.000198679
0.000291362
-0.00019944
0.000149156
-3.34811e-05
1.88308e-05
0.000157567
-1.85863e-05
0.000177836
-2.64401e-05
0.000196571
-1.46794e-05
0.000207514
-8.3829e-08
0.000206377
8.49342e-06
0.000197916
9.941e-06
0.000187507
6.22811e-06
0.000178844
0.000173204
0.000322166
-5.513e-05
0.000326111
-9.09421e-05
0.000324335
-0.00012708
0.000316462
-0.000151005
0.000304045
-0.000155262
0.000293628
-0.000158948
0.000290941
-0.00018329
0.000294283
-0.000200921
0.00022018
-0.000114132
3.83116e-05
0.000153705
-3.37762e-06
0.00019485
-1.96719e-05
0.000194118
-2.10682e-05
0.000197969
-1.36178e-05
0.000200065
-4.84092e-06
0.000197601
1.12902e-06
0.000191947
3.33572e-06
0.000185302
2.44614e-06
0.000179735
0.000175651
0.00028884
-6.63186e-05
0.00029838
-0.00010048
0.000301902
-0.000130601
0.000295648
-0.000144752
0.00028759
-0.000147668
0.000277505
-0.000169858
0.000283063
-0.000190843
0.000238227
-0.000148318
4.91097e-05
0.000102347
-6.95839e-06
0.000202201
-1.68363e-05
0.000204758
-2.17393e-05
0.000199022
-2.00591e-05
0.00019629
-1.4552e-05
0.000194558
-8.46047e-06
0.000191509
-3.70121e-06
0.000187188
-9.71118e-07
0.000182572
-2.80667e-08
0.000178793
0.000175624
0.000267524
-8.29162e-05
0.000281434
-0.00011439
0.000286293
-0.000135461
0.000282644
-0.000141276
0.000270991
-0.000159197
0.000274561
-0.000199413
0.000253577
-0.000178105
9.25194e-05
5.11638e-05
-1.31597e-05
0.000203403
-2.54866e-05
0.000214518
-2.59379e-05
0.000205214
-2.47134e-05
0.000197799
-2.14763e-05
0.000193053
-1.66508e-05
0.000189733
-1.148e-05
0.000186339
-7.05793e-06
0.000182766
-3.79685e-06
0.000179312
-1.64526e-06
0.000176643
0.000173979
0.000250619
-0.000103061
0.000264123
-0.000127894
0.000267311
-0.000138872
0.000255465
-0.000152931
0.000246651
-0.000191417
0.000223135
-0.000188208
8.67329e-05
1.57238e-05
-3.27344e-05
0.0001859
-4.29794e-05
0.000213576
-3.84296e-05
0.000209971
-3.34388e-05
0.000200224
-2.90104e-05
0.00019337
-2.43245e-05
0.000188367
-1.91981e-05
0.000184606
-1.41686e-05
0.000181309
-9.62954e-06
0.000178227
-5.86791e-06
0.000175551
-2.75792e-06
0.000173533
0.000171222
0.000234929
-0.000124116
0.000246706
-0.000139958
0.000238879
-0.000151267
0.000225939
-0.000193399
0.000199885
-0.000198944
7.30892e-05
1.79026e-07
-5.14379e-05
0.000169693
-6.59258e-05
0.000200493
-5.78131e-05
0.000205464
-4.74018e-05
0.000199561
-3.965e-05
0.000192473
-3.31707e-05
0.000186891
-2.73277e-05
0.000182524
-2.17559e-05
0.000179034
-1.64541e-05
0.000176007
-1.16693e-05
0.000173442
-7.39989e-06
0.000171281
-3.59066e-06
0.000169725
0.000167631
0.000219143
-0.000144666
0.000216512
-0.00015631
0.00019809
-0.000196636
0.000161407
-0.000200412
5.1882e-05
-1.26584e-05
-6.8464e-05
0.00015557
-8.4054e-05
0.000185322
-7.7482e-05
0.000193921
-6.46492e-05
0.000192631
-5.33238e-05
0.000188235
-4.43545e-05
0.000183503
-3.68457e-05
0.000179381
-3.01909e-05
0.000175868
-2.40703e-05
0.000172913
-1.8469e-05
0.000170406
-1.3307e-05
0.00016828
-8.59693e-06
0.000166571
-4.233e-06
0.000165361
0.000163398
0.000189747
-0.000165391
0.000171002
-0.00020343
0.000122064
-0.000195668
1.91646e-05
-7.84367e-06
-8.74256e-05
0.000140536
-0.000100465
0.000168723
-9.41134e-05
0.00017897
-8.11548e-05
0.000180963
-6.81884e-05
0.000179664
-5.70777e-05
0.000177124
-4.771e-05
0.000174134
-3.96772e-05
0.000171348
-3.2536e-05
0.000168726
-2.60551e-05
0.000166432
-2.01216e-05
0.000164472
-1.46333e-05
0.000162792
-9.53995e-06
0.000161478
-4.71732e-06
0.000160539
0.000158681
0.000135627
-0.000209726
7.37119e-05
-0.000201125
-2.65684e-05
5.29791e-06
-0.00010891
0.00011737
-0.000116372
0.000148058
-0.000108854
0.000161204
-9.5659e-05
0.000165775
-8.22511e-05
0.000167555
-7.0042e-05
0.000167454
-5.92964e-05
0.000166377
-4.99738e-05
0.00016481
-4.17041e-05
0.000163077
-3.43207e-05
0.000161342
-2.76153e-05
0.000159726
-2.14264e-05
0.000158282
-1.56806e-05
0.000157046
-1.02609e-05
0.000156058
-5.09165e-06
0.00015537
0.00015359
2.34752e-05
-0.000215081
-6.6809e-05
9.53409e-06
-0.000123638
9.48726e-05
-0.000128912
0.000122663
-0.000121423
0.000140567
-0.000108039
0.00014782
-9.47472e-05
0.000152483
-8.21111e-05
0.000154918
-7.06799e-05
0.000156022
-6.04566e-05
0.000156152
-5.12843e-05
0.000155637
-4.30489e-05
0.00015484
-3.55798e-05
0.000153872
-2.87403e-05
0.000152886
-2.23798e-05
0.000151922
-1.64338e-05
0.0001511
-1.07931e-05
0.000150418
-5.35476e-06
0.000149932
0.000148235
-8.92409e-05
4.44088e-06
-0.000128614
6.56516e-05
-0.000134501
0.000100763
-0.000129016
0.000117177
-0.000117769
0.000129319
-0.000104838
0.000134889
-9.26268e-05
0.000140271
-8.10899e-05
0.00014338
-7.0464e-05
0.000145395
-6.07255e-05
0.000146412
-5.18876e-05
0.000146797
-4.37901e-05
0.000146742
-3.63528e-05
0.000146434
-2.94599e-05
0.000145993
-2.30327e-05
0.000145494
-1.696e-05
0.000145027
-1.11634e-05
0.000144621
-5.55262e-06
0.000144321
0.000142683
-9.47286e-05
5.37091e-05
-0.000125997
9.6917e-05
-0.000129001
0.000103765
-0.000122806
0.00011098
-0.000111464
0.000117977
-0.000100846
0.00012427
-8.98122e-05
0.000129236
-7.93488e-05
0.000132915
-6.94918e-05
0.000135536
-6.0328e-05
0.000137247
-5.18382e-05
0.000138306
-4.3978e-05
0.000138881
-3.66634e-05
0.000139119
-2.98253e-05
0.000139154
-2.33855e-05
0.000139054
-1.72619e-05
0.000138903
-1.13829e-05
0.000138742
-5.64885e-06
0.000138588
0.000137034
-0.000148042
6.12945e-05
-0.000134564
8.34377e-05
-0.000124497
9.36953e-05
-0.000116012
0.000102494
-0.000106017
0.00010798
-9.6453e-05
0.000114705
-8.65963e-05
0.000119377
-7.70889e-05
0.000123406
-6.7982e-05
0.000126427
-5.93824e-05
0.000128645
-5.13022e-05
0.000130224
-4.37161e-05
0.000131293
-3.65962e-05
0.000131998
-2.98647e-05
0.000132422
-2.34819e-05
0.000132671
-1.73694e-05
0.00013279
-1.14682e-05
0.00013284
-5.71231e-06
0.000132832
0.000131322
-0.000131609
7.14793e-05
-0.000127342
7.91675e-05
-0.000118219
8.45717e-05
-0.00010977
9.40424e-05
-0.000100889
9.90992e-05
-9.20445e-05
0.000105858
-8.31732e-05
0.000110505
-7.44941e-05
0.000114724
-6.60785e-05
0.000118009
-5.80273e-05
0.000120591
-5.03672e-05
0.000122562
-4.31025e-05
0.000124026
-3.62023e-05
0.000125096
-2.96402e-05
0.000125858
-2.33586e-05
0.000126388
-1.73121e-05
0.000126742
-1.14437e-05
0.000126972
-5.68372e-06
0.000127071
0.000125638
-0.000128412
6.3263e-05
-0.000119802
7.0557e-05
-0.000111294
7.60613e-05
-0.000103949
8.6697e-05
-9.58451e-05
9.09928e-05
-8.77519e-05
9.77645e-05
-7.96621e-05
0.000102412
-7.16794e-05
0.00010674
-6.38908e-05
0.000110218
-5.63614e-05
0.00011306
-4.9123e-05
0.000115322
-4.21883e-05
0.00011709
-3.55497e-05
0.000118456
-2.9179e-05
0.000119487
-2.30476e-05
0.000120255
-1.71113e-05
0.000120805
-1.13289e-05
0.000121188
-5.64889e-06
0.000121391
0.000119988
-0.000121483
-0.000112759
-0.000105697
-9.84101e-05
-9.09652e-05
-8.35518e-05
-7.61004e-05
-6.87321e-05
-6.14964e-05
-5.44523e-05
-4.76271e-05
-4.10377e-05
-3.46774e-05
-2.85341e-05
-2.25802e-05
-1.67863e-05
-1.11114e-05
-5.51456e-06
)
;

boundaryField
{
    leftWall
    {
        type            fixedValue;
        value           nonuniform 0();
    }
    rightWall
    {
        type            fixedValue;
        value           uniform 0;
    }
    lowerWall
    {
        type            fixedValue;
        value           uniform 0;
    }
    atmosphere
    {
        type            calculated;
        value           nonuniform 0();
    }
    defaultFaces
    {
        type            empty;
        value           nonuniform 0();
    }
    procBoundary1to0
    {
        type            processor;
        value           nonuniform List<scalar> 
26
(
-8.37862e-05
-9.09801e-05
-9.10185e-05
-8.58623e-05
-6.63142e-05
-2.40055e-05
-6.96317e-06
-1.14642e-05
-0.000145789
-0.000170629
-0.000171985
-0.000174645
-0.000170327
-0.000163438
-0.000153896
-0.000142198
-8.47639e-05
-0.000147704
-0.00013294
-0.000114867
-9.06251e-05
-5.00788e-05
2.22154e-05
0.000125911
0.00012499
0.000133258
)
;
    }
    procBoundary1to3
    {
        type            processor;
        value           nonuniform List<scalar> 
23
(
1.64584e-05
1.75608e-05
1.97086e-05
2.17729e-05
5.76037e-05
6.18302e-05
6.89995e-05
7.94078e-05
8.35488e-05
9.03489e-05
9.49612e-05
9.93695e-05
0.000102982
0.000106015
0.000108496
0.0001105
0.000112096
0.000113343
0.000114301
0.000115011
0.000115513
0.000115792
0.000114474
)
;
    }
}


// ************************************************************************* //
