/*--------------------------------*- C++ -*----------------------------------*\
| =========                 |                                                 |
| \\      /  F ield         | OpenFOAM: The Open Source CFD Toolbox           |
|  \\    /   O peration     | Version:  2.4.0                                 |
|   \\  /    A nd           | Web:      www.OpenFOAM.org                      |
|    \\/     M anipulation  |                                                 |
\*---------------------------------------------------------------------------*/
FoamFile
{
    version     2.0;
    format      ascii;
    class       volScalarField;
    location    "0.15";
    object      rho;
}
// * * * * * * * * * * * * * * * * * * * * * * * * * * * * * * * * * * * * * //

dimensions      [1 -3 0 0 0 0 0];

internalField   nonuniform List<scalar> 
559
(
12405.8
11548.5
8285.6
3445.41
998.494
532.048
500.638
500.008
1.00081
1.00408
1.00641
1.13495
7.91801
74.4283
198.06
236.37
253.595
219.484
159.524
164.504
107.021
32.4746
4.80327
1.13899
1.00373
1.00116
1.00011
1.00131
1.00465
1.00666
1.44859
31.3802
291.044
456.651
469.965
469.577
454.252
428.264
167.502
12.792
1.49256
1.19823
1.02585
1.00371
1.0008
1.00006
1.00228
1.00724
1.0108
3.72011
156.183
454.887
498.966
499.648
499.193
479.538
212.189
18.222
1.18591
1.00362
1.00385
1.00393
1.00215
1.00042
1.00004
1.0026
1.00719
1.05428
26.3668
311.565
488.372
499.902
499.903
496.649
348.025
50.5903
1.93378
1.00401
1.00353
1.00375
1.0032
1.00127
1.00022
1.00002
1.00304
1.00708
2.79592
119.39
423.791
497.759
499.98
499.775
478.626
206.516
17.6282
1.18305
1.00325
1.00351
1.00349
1.00234
1.00075
1.00012
1.00001
1.00374
1.01719
33.2113
300.974
483.567
499.814
499.992
499.518
446.657
155.433
10.9266
1.07735
1.00329
1.00346
1.00302
1.00158
1.00042
1.00006
1.00001
1.0048
17.1209
203.567
455.74
499
499.995
499.996
499.001
411.408
110.07
5.54371
1.01767
1.00335
1.00324
1.00235
1.00098
1.00023
1.00003
1.00001
50.3067
206.231
438.31
497.208
499.976
499.999
499.999
497.268
342.55
60.4188
2.32215
1.00408
1.00321
1.00276
1.00162
1.00055
1.00011
1.00002
1.00001
500.004
500.002
500
500
500
500
500
500
500.003
500.002
500.001
499.267
500.002
500.001
500.001
499.995
500
500
500
500
500
500
500
500
500
500
500
500
500
500
500
500
500
500
500
500
500
500
500
500
500
500
500
499.998
500
499.994
499.906
498.059
499.495
497.134
480.434
389.936
453.873
379.337
195.314
28.5046
120.709
16.4752
1.42247
1.00249
1.00834
1.02553
1.00744
1.0003
1.00055
1.00037
1.00024
1.00012
1.00038
1.00027
1.00017
1.00009
1.00022
1.00016
1.00009
1.00005
490.541
498.323
499.965
500
500
499.999
499.713
468.94
213.537
21.2565
1.19808
1.0031
1.00219
1.00153
1.00067
1.00018
1.00003
1.00001
1
499.999
500
500
500
500
499.979
494.255
346.718
68.8673
2.86664
1.00485
1.00188
1.00123
1.00067
1.00023
1.00005
1.00001
1.00001
1
500
500
500
500
499.997
499.12
434.042
143.703
9.34471
1.0397
1.00227
1.00104
1.00058
1.00024
1.00007
1.00002
1.00001
1
1
500
500
500
499.999
499.76
473.989
222.28
22.4945
1.19499
1.00124
1.00122
1.00052
1.00023
1.00008
1.00002
1.00001
1
1
1
500
500
500
499.908
487.908
290.437
42.2541
1.76857
1.00088
1.00093
1.00059
1.00023
1.00008
1.00002
1.00001
1
1
1
1
500
500
499.955
493.412
332.445
54.3215
2.0463
1.00237
1.00039
1.00052
1.00026
1.00009
1.00003
1.00001
1
1
1
1
1
500
499.971
495.079
360.755
67.8464
2.582
1.00207
1.00008
1.00024
1.00024
1.0001
1.00003
1.00001
1
1
1
1
1
1
499.989
495.56
374.23
73.1104
2.64168
1.00289
1.00008
1.00003
1.00012
1.00009
1.00003
1.00001
1
1
1
1
1
1
1
497.152
378.362
73.9182
2.50085
1.00222
1.00011
1.00003
1.00001
1.00005
1.00003
1.00001
1
1
1
1
1
1
1
1
398.831
71.0477
2.04358
1.0016
1.00016
1.00004
1.00001
1.00001
1.00002
1.00001
1
1
1
1
1
1
1
1
1
76.2171
1.57738
1.00096
1.00025
1.00006
1.00002
1
1
1.00001
1
1
1
1
1
1
1
1
1
1
1.54351
1.00058
1.00012
1.00009
1.00003
1
1
1
1
1
1
1
1
1
1
1
1
1
1
1.00097
1.00034
1.00004
1.00002
1
0.999999
1
1
1
1
1
1
1
1
1
1
1
1
1
1.00011
1.00013
1.00002
1
0.999999
1
1
1
1
1
1
1
1
1
1
1
1
1
1
1.00004
1.00003
1
0.999999
0.999999
1
1
1
1
1
0.999999
1
1
1
1
1
1
1
1
1.00005
1
1
1
1
0.999999
0.999999
0.999999
0.999999
0.999999
0.999999
0.999999
1
1
1
1
1
1
1
1.00003
1
1
1
0.999999
0.999999
0.999999
0.999999
0.999998
0.999998
0.999998
0.999999
0.999999
0.999999
0.999999
1
1
1
1
)
;

boundaryField
{
    leftWall
    {
        type            calculated;
        value           nonuniform 0();
    }
    rightWall
    {
        type            calculated;
        value           nonuniform List<scalar> 
25
(
1.00011
1.00006
1.00004
1.00002
1.00001
1.00001
1.00001
1.00001
1
1
1
1
1
1
1
1
1
1
1
1
1
1
1
1
1
)
;
    }
    lowerWall
    {
        type            calculated;
        value           nonuniform List<scalar> 
40
(
12405.8
12405.8
11548.5
8285.6
3445.41
998.494
532.048
500.638
500.008
500.003
500.002
500.001
499.267
1.00081
1.00131
1.00228
1.0026
1.00304
1.00374
1.0048
50.3067
1.00081
1.00408
1.00641
1.13495
7.91801
74.4283
198.06
236.37
253.595
219.484
159.524
164.504
107.021
32.4746
4.80327
1.13899
1.00373
1.00116
1.00011
)
;
    }
    atmosphere
    {
        type            calculated;
        value           nonuniform 0();
    }
    defaultFaces
    {
        type            empty;
    }
    procBoundary1to0
    {
        type            processor;
        value           nonuniform List<scalar> 
26
(
13031
11758.8
5886.31
1010.66
507.562
500.023
500.009
500.008
500.005
500.002
500
500
500
500
500
500
500
500
500
499.964
492.285
328.334
15.0428
1.00131
1.00039
1.00018
)
;
    }
    procBoundary1to3
    {
        type            processor;
        value           nonuniform List<scalar> 
23
(
1.0001
1.00007
1.00004
1.00003
1.00002
1
1
1
1
0.999999
0.999999
0.999998
0.999998
0.999998
0.999998
0.999999
0.999999
0.999999
0.999999
0.999999
1
1
1
)
;
    }
}


// ************************************************************************* //
