/*--------------------------------*- C++ -*----------------------------------*\
| =========                 |                                                 |
| \\      /  F ield         | OpenFOAM: The Open Source CFD Toolbox           |
|  \\    /   O peration     | Version:  2.4.0                                 |
|   \\  /    A nd           | Web:      www.OpenFOAM.org                      |
|    \\/     M anipulation  |                                                 |
\*---------------------------------------------------------------------------*/
FoamFile
{
    version     2.0;
    format      ascii;
    class       volVectorField;
    location    "0.15";
    object      U;
}
// * * * * * * * * * * * * * * * * * * * * * * * * * * * * * * * * * * * * * //

dimensions      [0 1 -1 0 0 0 0];

internalField   nonuniform List<vector> 
559
(
(0.989369 0.0722307 0)
(1.05135 0.738961 0)
(1.07487 1.04048 0)
(1.0655 1.65141 0)
(0.786297 2.08985 0)
(0.40185 2.03375 0)
(0.123394 2.0116 0)
(0.0683336 2.09268 0)
(-0.234012 0.141686 0)
(-0.878552 0.30934 0)
(-2.2986 0.533626 0)
(-4.76969 0.226722 0)
(-5.55148 -0.182037 0)
(-1.94407 -0.727918 0)
(-0.813572 -0.759968 0)
(0.291706 -0.653527 0)
(1.60092 -0.557544 0)
(2.59013 -0.566505 0)
(3.7055 -0.358297 0)
(3.51185 -0.445993 0)
(3.51101 -0.861597 0)
(3.9163 -0.693655 0)
(3.51567 -0.121813 0)
(1.8362 0.265972 0)
(0.996077 0.186183 0)
(0.507059 0.0921364 0)
(0.154349 0.0687024 0)
(-0.2185 0.350078 0)
(-0.686673 0.559359 0)
(-1.39163 0.719161 0)
(-1.62634 0.359756 0)
(-0.2519 -0.567217 0)
(0.529186 -0.778636 0)
(0.84711 -0.804002 0)
(1.04989 -0.714951 0)
(1.37485 -0.659382 0)
(1.71691 -0.574908 0)
(2.02205 -0.55823 0)
(2.35142 -0.239803 0)
(3.13649 0.581194 0)
(3.05183 0.672755 0)
(2.64849 0.720528 0)
(1.53063 0.645027 0)
(0.922291 0.419781 0)
(0.489189 0.268961 0)
(0.151395 0.206536 0)
(-0.116666 0.559977 0)
(-0.396915 0.741896 0)
(-0.392924 0.840429 0)
(0.616033 -0.0479562 0)
(0.841443 -0.791009 0)
(0.994577 -0.862154 0)
(1.07948 -0.852799 0)
(1.2237 -0.771424 0)
(1.46938 -0.685428 0)
(1.68879 -0.688477 0)
(2.09003 -0.431573 0)
(2.68131 0.247714 0)
(2.61527 -0.300551 0)
(2.55533 -0.0976755 0)
(1.82953 0.722607 0)
(1.05944 0.958602 0)
(0.733007 0.649393 0)
(0.421353 0.421989 0)
(0.135649 0.333975 0)
(-0.0724726 0.606279 0)
(-0.119563 0.757357 0)
(0.0211533 0.39684 0)
(1.49064 -0.292486 0)
(1.11428 -0.734651 0)
(1.22254 -0.877419 0)
(1.3048 -0.89415 0)
(1.44555 -0.840386 0)
(1.59052 -0.79505 0)
(1.85248 -0.749597 0)
(2.28386 -0.367702 0)
(2.38215 -0.429291 0)
(2.38236 0.0221277 0)
(1.87607 0.563712 0)
(1.0523 1.07842 0)
(0.73253 1.09586 0)
(0.57657 0.761597 0)
(0.353632 0.538987 0)
(0.117068 0.445719 0)
(-0.0294782 0.688238 0)
(-0.0651541 0.617314 0)
(1.13966 0.250419 0)
(1.30117 -0.492946 0)
(1.28319 -0.743852 0)
(1.42842 -0.918864 0)
(1.4785 -0.937663 0)
(1.55544 -0.891551 0)
(1.6325 -0.885641 0)
(2.00463 -0.895597 0)
(2.01328 -0.698234 0)
(2.00187 -0.332935 0)
(1.79194 0.202468 0)
(1.1252 0.777448 0)
(0.605446 1.20682 0)
(0.52674 1.14849 0)
(0.451123 0.830983 0)
(0.290719 0.628802 0)
(0.0982306 0.538939 0)
(-0.0458734 0.626179 0)
(0.0843997 0.411207 0)
(1.40986 -0.136722 0)
(1.2762 -0.531536 0)
(1.45682 -0.786558 0)
(1.54822 -0.944662 0)
(1.56234 -0.946051 0)
(1.59196 -0.928596 0)
(1.6499 -0.94227 0)
(1.89113 -0.978733 0)
(1.69293 -0.717438 0)
(1.4329 -0.130614 0)
(1.06699 0.427575 0)
(0.552938 0.981557 0)
(0.32967 1.28046 0)
(0.364345 1.15167 0)
(0.349524 0.876514 0)
(0.234426 0.701332 0)
(0.0806453 0.618624 0)
(-0.0567653 0.807819 0)
(0.966881 0.0821137 0)
(1.18061 -0.294105 0)
(1.38566 -0.576367 0)
(1.59131 -0.828304 0)
(1.62125 -0.939492 0)
(1.61285 -0.939935 0)
(1.60652 -0.943958 0)
(1.66978 -0.97759 0)
(1.81975 -0.971725 0)
(1.3693 -0.548027 0)
(0.890795 0.0240267 0)
(0.52491 0.631086 0)
(0.180638 1.11248 0)
(0.146466 1.26989 0)
(0.251265 1.11704 0)
(0.268553 0.894941 0)
(0.185887 0.749204 0)
(0.0649828 0.676973 0)
(0.865355 0.22151 0)
(1.10463 -0.121936 0)
(1.23304 -0.361264 0)
(1.56484 -0.680025 0)
(1.68692 -0.868109 0)
(1.67557 -0.929011 0)
(1.63813 -0.931854 0)
(1.61909 -0.953332 0)
(1.70432 -0.981372 0)
(1.72549 -0.883076 0)
(0.981433 -0.336018 0)
(0.411074 0.27214 0)
(0.0822124 0.782252 0)
(-0.0685664 1.14956 0)
(0.0383334 1.22223 0)
(0.176108 1.08634 0)
(0.202374 0.914776 0)
(0.145078 0.795221 0)
(0.0514393 0.732449 0)
(1.06719 1.8673 0)
(1.20533 0.869696 0)
(1.09841 0.41752 0)
(1.05591 0.183104 0)
(1.00705 -0.0280757 0)
(0.95546 -0.188572 0)
(0.896165 -0.30713 0)
(0.82548 -0.406621 0)
(1.52103 1.41938 0)
(1.26203 0.991261 0)
(0.848808 0.599412 0)
(0.713814 0.346487 0)
(1.47746 0.652155 0)
(1.64014 0.327988 0)
(1.71826 0.0939242 0)
(1.76812 -0.123001 0)
(1.36013 0.373307 0)
(1.52055 0.251333 0)
(1.6244 0.136419 0)
(1.69516 0.00606971 0)
(1.20189 0.0956796 0)
(1.31616 0.0141774 0)
(1.39608 -0.0789389 0)
(1.47222 -0.179208 0)
(1.1297 -0.11668 0)
(1.19988 -0.153855 0)
(1.25701 -0.200643 0)
(1.31635 -0.261096 0)
(1.04487 -0.249083 0)
(1.09038 -0.262134 0)
(1.14928 -0.321665 0)
(1.20591 -0.368459 0)
(0.959066 -0.34557 0)
(1.00925 -0.388037 0)
(1.07316 -0.451242 0)
(1.11354 -0.471487 0)
(0.883791 -0.464117 0)
(0.946882 -0.51608 0)
(0.98731 -0.544739 0)
(1.03105 -0.572002 0)
(0.817038 -0.575377 0)
(0.867378 -0.611421 0)
(0.895703 -0.639063 0)
(0.967645 -0.683793 0)
(0.737141 -0.670272 0)
(0.773312 -0.701523 0)
(0.817363 -0.751014 0)
(0.879847 -0.824747 0)
(0.636117 -0.766464 0)
(0.678885 -0.829707 0)
(0.697032 -0.906862 0)
(0.688717 -0.907898 0)
(0.494045 -0.900688 0)
(0.501924 -0.948784 0)
(0.506925 -0.885009 0)
(0.375599 -0.166379 0)
(0.493274 -0.854157 0)
(0.426683 -0.489042 0)
(0.025621 0.424523 0)
(-0.473187 0.139601 0)
(-0.246716 0.212198 0)
(-0.749665 -0.0340593 0)
(-0.618352 0.34417 0)
(-0.742674 0.425202 0)
(-0.713568 -0.264555 0)
(-0.690076 0.157686 0)
(-0.663497 0.231343 0)
(-0.660504 0.274026 0)
(-0.748769 0.276014 0)
(-0.781149 0.297884 0)
(-0.772872 0.325914 0)
(-0.739994 0.327891 0)
(-0.712999 0.166679 0)
(-0.691269 0.190458 0)
(-0.683694 0.20617 0)
(-0.682661 0.23893 0)
(0.858784 0.0318431 0)
(1.2408 -0.261534 0)
(1.58737 -0.571747 0)
(1.73099 -0.789076 0)
(1.75632 -0.88322 0)
(1.71725 -0.909022 0)
(1.65267 -0.915267 0)
(1.63672 -0.944785 0)
(1.74666 -0.979206 0)
(1.45798 -0.670219 0)
(0.555024 0.111357 0)
(0.0956293 0.546882 0)
(-0.13975 0.875965 0)
(-0.14519 1.1013 0)
(-0.00942976 1.12812 0)
(0.0943525 1.03524 0)
(0.120685 0.91999 0)
(0.0919306 0.833348 0)
(0.0332851 0.784648 0)
(1.86195 -0.329846 0)
(1.88309 -0.498995 0)
(1.8672 -0.657374 0)
(1.83814 -0.80588 0)
(1.79307 -0.856729 0)
(1.71559 -0.832607 0)
(1.62698 -0.864857 0)
(1.66389 -0.9144 0)
(1.67444 -0.859119 0)
(0.862085 -0.0255691 0)
(0.206938 0.608646 0)
(-0.038969 0.778793 0)
(-0.152988 0.929946 0)
(-0.116085 1.02701 0)
(-0.0311987 1.03002 0)
(0.031671 0.978128 0)
(0.0553361 0.912292 0)
(0.046566 0.858607 0)
(0.0173162 0.825465 0)
(1.74918 -0.170078 0)
(1.76182 -0.361386 0)
(1.75201 -0.567997 0)
(1.74271 -0.708102 0)
(1.68673 -0.743512 0)
(1.60594 -0.760351 0)
(1.59647 -0.833727 0)
(1.73771 -0.897461 0)
(1.23513 -0.401266 0)
(0.305856 0.578214 0)
(0.0357466 0.880697 0)
(-0.0822675 0.907079 0)
(-0.122906 0.952604 0)
(-0.0945221 0.981332 0)
(-0.0450138 0.975677 0)
(-0.00485153 0.944378 0)
(0.0159018 0.904611 0)
(0.0179026 0.870815 0)
(0.00701206 0.847484 0)
(1.53382 -0.322923 0)
(1.59057 -0.495737 0)
(1.63948 -0.659151 0)
(1.62852 -0.745307 0)
(1.57976 -0.752331 0)
(1.5302 -0.793127 0)
(1.66792 -0.847242 0)
(1.444 -0.582112 0)
(0.398181 0.404835 0)
(-0.00266145 0.938035 0)
(-0.0759686 0.986573 0)
(-0.116786 0.958089 0)
(-0.116257 0.953934 0)
(-0.092825 0.954401 0)
(-0.0591099 0.94254 0)
(-0.0293768 0.919773 0)
(-0.00964331 0.893314 0)
(-0.000760744 0.871061 0)
(0.000202486 0.853653 0)
(1.39775 -0.35841 0)
(1.49084 -0.511746 0)
(1.54521 -0.629936 0)
(1.54575 -0.670814 0)
(1.49937 -0.698218 0)
(1.59034 -0.745711 0)
(1.71109 -0.611521 0)
(0.728064 0.124633 0)
(-0.0285357 0.873607 0)
(-0.130498 1.04007 0)
(-0.144136 1.00282 0)
(-0.141228 0.966168 0)
(-0.124422 0.94551 0)
(-0.102126 0.931405 0)
(-0.0736356 0.916285 0)
(-0.0477012 0.897791 0)
(-0.0273071 0.87871 0)
(-0.0133569 0.86336 0)
(-0.00439173 0.849258 0)
(1.29431 -0.451734 0)
(1.40118 -0.590088 0)
(1.44553 -0.667566 0)
(1.4203 -0.705374 0)
(1.46293 -0.764857 0)
(1.6303 -0.710793 0)
(0.700579 0.0159599 0)
(-0.107268 0.831845 0)
(-0.242234 1.0497 0)
(-0.226496 1.0391 0)
(-0.194906 0.986668 0)
(-0.168893 0.950337 0)
(-0.143095 0.925135 0)
(-0.115876 0.907996 0)
(-0.0879923 0.89197 0)
(-0.0623157 0.876187 0)
(-0.0402449 0.861612 0)
(-0.0221903 0.850468 0)
(-0.0074424 0.838786 0)
(1.21491 -0.556701 0)
(1.31212 -0.651165 0)
(1.31845 -0.698447 0)
(1.3516 -0.731151 0)
(1.52135 -0.617867 0)
(0.764523 -0.0519665 0)
(-0.212665 0.73644 0)
(-0.350764 0.990721 0)
(-0.342498 1.03369 0)
(-0.282717 0.996968 0)
(-0.233537 0.954365 0)
(-0.195613 0.923244 0)
(-0.162044 0.900157 0)
(-0.130781 0.882445 0)
(-0.101403 0.867232 0)
(-0.0744431 0.853692 0)
(-0.0502015 0.842158 0)
(-0.0288298 0.833628 0)
(-0.00966957 0.823292 0)
(1.14985 -0.654884 0)
(1.18879 -0.726973 0)
(1.2118 -0.740201 0)
(1.34597 -0.604683 0)
(0.707099 -0.0509594 0)
(-0.315604 0.653886 0)
(-0.442752 0.907 0)
(-0.446169 0.974333 0)
(-0.382116 0.970368 0)
(-0.315423 0.942679 0)
(-0.26138 0.913406 0)
(-0.217311 0.889395 0)
(-0.179 0.870107 0)
(-0.144698 0.854367 0)
(-0.113287 0.84095 0)
(-0.084473 0.829676 0)
(-0.0581237 0.82039 0)
(-0.0339659 0.813764 0)
(-0.0114358 0.804001 0)
(1.04074 -0.765332 0)
(1.06479 -0.77357 0)
(1.19062 -0.579804 0)
(0.553094 0.00287007 0)
(-0.44719 0.590058 0)
(-0.532356 0.828757 0)
(-0.533245 0.901067 0)
(-0.472936 0.913057 0)
(-0.399921 0.904162 0)
(-0.334925 0.887295 0)
(-0.280321 0.868659 0)
(-0.233771 0.851616 0)
(-0.192812 0.836696 0)
(-0.156427 0.823938 0)
(-0.123193 0.813048 0)
(-0.0926429 0.803907 0)
(-0.0643778 0.796611 0)
(-0.0379244 0.791455 0)
(-0.0127257 0.782313 0)
(0.90039 -0.838564 0)
(1.01959 -0.588123 0)
(0.235535 0.0852029 0)
(-0.531056 0.494186 0)
(-0.629314 0.740849 0)
(-0.612873 0.818754 0)
(-0.551873 0.840135 0)
(-0.477669 0.845904 0)
(-0.407722 0.84245 0)
(-0.346094 0.834011 0)
(-0.292409 0.823025 0)
(-0.245265 0.812086 0)
(-0.203299 0.801435 0)
(-0.165527 0.791923 0)
(-0.13097 0.78371 0)
(-0.0990279 0.776644 0)
(-0.0691942 0.77112 0)
(-0.0409038 0.767192 0)
(-0.0137746 0.758477 0)
(0.708305 -0.616976 0)
(-0.0439177 0.164009 0)
(-0.644626 0.398054 0)
(-0.687876 0.626742 0)
(-0.680045 0.717557 0)
(-0.616342 0.756824 0)
(-0.545122 0.772974 0)
(-0.473928 0.782719 0)
(-0.409365 0.785146 0)
(-0.35114 0.78305 0)
(-0.299143 0.778071 0)
(-0.252521 0.772002 0)
(-0.210451 0.765386 0)
(-0.172008 0.759052 0)
(-0.136665 0.753282 0)
(-0.103776 0.748274 0)
(-0.0727495 0.744267 0)
(-0.0431666 0.741425 0)
(-0.014359 0.733141 0)
(-0.386888 0.146761 0)
(-0.769423 0.215399 0)
(-0.677548 0.503206 0)
(-0.728556 0.589925 0)
(-0.655795 0.664243 0)
(-0.59801 0.686001 0)
(-0.528594 0.710975 0)
(-0.465548 0.724109 0)
(-0.406009 0.731746 0)
(-0.351408 0.734572 0)
(-0.301571 0.734322 0)
(-0.256106 0.732289 0)
(-0.214513 0.729219 0)
(-0.176094 0.725764 0)
(-0.140439 0.722217 0)
(-0.106971 0.71912 0)
(-0.0752115 0.716483 0)
(-0.0446435 0.714595 0)
(-0.0150389 0.706482 0)
(-0.360728 0.13967 0)
(-0.7016 0.429384 0)
(-0.667929 0.50101 0)
(-0.699214 0.55277 0)
(-0.612903 0.598718 0)
(-0.57492 0.628694 0)
(-0.50855 0.654313 0)
(-0.453815 0.670645 0)
(-0.398741 0.682029 0)
(-0.347921 0.688707 0)
(-0.300519 0.692227 0)
(-0.256608 0.693514 0)
(-0.215935 0.693403 0)
(-0.178018 0.692438 0)
(-0.14244 0.690964 0)
(-0.108787 0.689505 0)
(-0.076654 0.688126 0)
(-0.0456134 0.687054 0)
(-0.0150772 0.679496 0)
(-0.76987 0.360076 0)
(-0.77597 0.459263 0)
(-0.681531 0.479287 0)
(-0.662069 0.51571 0)
(-0.584583 0.545678 0)
(-0.548254 0.579675 0)
(-0.488598 0.603164 0)
(-0.439402 0.622153 0)
(-0.388744 0.635931 0)
(-0.34146 0.645535 0)
(-0.296649 0.652003 0)
(-0.254602 0.656005 0)
(-0.215144 0.658316 0)
(-0.178033 0.659473 0)
(-0.142892 0.659833 0)
(-0.109393 0.659774 0)
(-0.0772373 0.65952 0)
(-0.0459547 0.659114 0)
(-0.0154642 0.65153 0)
(-0.69216 0.292053 0)
(-0.704363 0.395836 0)
(-0.646839 0.430204 0)
(-0.623988 0.475282 0)
(-0.558183 0.50099 0)
(-0.521732 0.53475 0)
(-0.468531 0.557632 0)
(-0.423397 0.577942 0)
(-0.376821 0.593356 0)
(-0.332793 0.605086 0)
(-0.290574 0.613762 0)
(-0.250526 0.619942 0)
(-0.212512 0.624261 0)
(-0.176426 0.627159 0)
(-0.141994 0.629079 0)
(-0.108946 0.630226 0)
(-0.077036 0.630921 0)
(-0.0458988 0.631157 0)
(-0.0151606 0.624338 0)
(-0.722983 0.342603 0)
(-0.680369 0.358342 0)
(-0.610326 0.388339 0)
(-0.590707 0.437544 0)
(-0.530931 0.460658 0)
(-0.496157 0.493793 0)
(-0.448291 0.516565 0)
(-0.406461 0.537477 0)
(-0.363547 0.554009 0)
(-0.322502 0.567253 0)
(-0.282805 0.577576 0)
(-0.244785 0.585459 0)
(-0.208369 0.591396 0)
(-0.173487 0.595745 0)
(-0.139971 0.598923 0)
(-0.107619 0.601118 0)
(-0.0761968 0.602608 0)
(-0.0455042 0.603332 0)
(-0.0152043 0.596136 0)
(-0.680416 0.298886 0)
(-0.623961 0.326376 0)
(-0.587341 0.351598 0)
(-0.554598 0.402805 0)
(-0.505738 0.423613 0)
(-0.470969 0.456376 0)
(-0.427926 0.479014 0)
(-0.389 0.500276 0)
(-0.349345 0.517554 0)
(-0.311048 0.53187 0)
(-0.273761 0.54342 0)
(-0.237753 0.552609 0)
(-0.202997 0.559818 0)
(-0.169453 0.565362 0)
(-0.137009 0.569558 0)
(-0.105516 0.572631 0)
(-0.0747841 0.574788 0)
(-0.0445427 0.575974 0)
(-0.0147703 0.56977 0)
)
;

boundaryField
{
    leftWall
    {
        type            calculated;
        value           nonuniform 0();
    }
    rightWall
    {
        type            calculated;
        value           uniform (0 0 0);
    }
    lowerWall
    {
        type            calculated;
        value           uniform (0 0 0);
    }
    atmosphere
    {
        type            calculated;
        value           nonuniform 0();
    }
    defaultFaces
    {
        type            empty;
    }
    procBoundary1to0
    {
        type            processor;
        value           nonuniform List<vector> 
26
(
(1.10154 -0.0110307 0)
(1.19039 0.246258 0)
(1.04205 0.331115 0)
(0.544464 0.652736 0)
(0.231977 0.489506 0)
(0.045003 0.646599 0)
(0.0600384 0.70046 0)
(0.179132 0.841415 0)
(0.703352 0.733533 0)
(0.762006 0.437847 0)
(0.838763 0.222913 0)
(0.858254 0.0889162 0)
(0.842747 -0.0220286 0)
(0.811409 -0.139546 0)
(0.766864 -0.248461 0)
(0.715089 -0.344188 0)
(0.752519 -0.506795 0)
(0.752519 -0.506795 0)
(0.673677 -0.603602 0)
(0.58502 -0.680186 0)
(0.469859 -0.769549 0)
(0.327016 -0.876741 0)
(0.277556 -0.37183 0)
(-0.609242 -0.530839 0)
(-0.535585 -0.151528 0)
(-0.710674 0.0860706 0)
)
;
    }
    procBoundary1to3
    {
        type            processor;
        value           nonuniform List<vector> 
23
(
(-0.695067 0.170732 0)
(-0.684075 0.168595 0)
(-0.676199 0.204026 0)
(-0.667917 0.236194 0)
(-0.628889 0.268732 0)
(-0.581376 0.284718 0)
(-0.564058 0.319845 0)
(-0.516589 0.369934 0)
(-0.482913 0.389116 0)
(-0.445368 0.421988 0)
(-0.40778 0.444382 0)
(-0.371118 0.465899 0)
(-0.334517 0.483686 0)
(-0.298749 0.498769 0)
(-0.263758 0.511228 0)
(-0.229723 0.521413 0)
(-0.196653 0.529611 0)
(-0.164534 0.5361 0)
(-0.133288 0.541125 0)
(-0.102805 0.544898 0)
(-0.0729544 0.547575 0)
(-0.0435983 0.549105 0)
(-0.0144507 0.542694 0)
)
;
    }
}


// ************************************************************************* //
