/*--------------------------------*- C++ -*----------------------------------*\
| =========                 |                                                 |
| \\      /  F ield         | OpenFOAM: The Open Source CFD Toolbox           |
|  \\    /   O peration     | Version:  2.4.0                                 |
|   \\  /    A nd           | Web:      www.OpenFOAM.org                      |
|    \\/     M anipulation  |                                                 |
\*---------------------------------------------------------------------------*/
FoamFile
{
    version     2.0;
    format      ascii;
    class       volVectorField;
    location    "0.15";
    object      U.mercury;
}
// * * * * * * * * * * * * * * * * * * * * * * * * * * * * * * * * * * * * * //

dimensions      [0 1 -1 0 0 0 0];

internalField   nonuniform List<vector> 
559
(
(1.01058 0.0485715 0)
(1.07647 0.656275 0)
(1.1367 0.766421 0)
(1.21472 0.869773 0)
(1.37338 0.863849 0)
(1.51475 0.951681 0)
(1.12762 1.3596 0)
(0.139266 2.04888 0)
(-0.233916 0.141672 0)
(-0.878256 0.308798 0)
(-2.28894 0.529189 0)
(-3.91205 0.0421565 0)
(-1.41487 -0.715365 0)
(0.175743 -0.896657 0)
(0.372328 -0.891905 0)
(0.789279 -0.861767 0)
(1.40415 -0.84953 0)
(1.90531 -0.822846 0)
(2.70871 -0.804589 0)
(2.75444 -0.891909 0)
(2.93016 -1.13456 0)
(3.56989 -1.41279 0)
(3.7127 -1.09121 0)
(2.10476 -0.0335367 0)
(0.997373 0.184845 0)
(0.507192 0.0921149 0)
(0.154378 0.068713 0)
(-0.218425 0.350031 0)
(-0.686356 0.558315 0)
(-1.38639 0.714603 0)
(-1.03079 0.046043 0)
(0.637809 -0.790121 0)
(0.873263 -0.872454 0)
(0.919075 -0.833532 0)
(1.06926 -0.757703 0)
(1.36669 -0.71288 0)
(1.6831 -0.651103 0)
(1.95129 -0.712269 0)
(2.03037 -0.814589 0)
(2.38477 -0.516553 0)
(3.18106 0.0256235 0)
(2.863 0.260521 0)
(1.62714 0.541729 0)
(0.924523 0.417804 0)
(0.489317 0.268963 0)
(0.151424 0.206559 0)
(-0.11667 0.559813 0)
(-0.397209 0.739594 0)
(-0.392162 0.833181 0)
(0.621207 -0.309256 0)
(0.989498 -0.845481 0)
(1.04373 -0.87259 0)
(1.08079 -0.853259 0)
(1.22394 -0.77172 0)
(1.46921 -0.686375 0)
(1.66701 -0.724199 0)
(1.76837 -0.895049 0)
(2.01566 -0.760218 0)
(2.53534 -0.409061 0)
(2.55437 -0.0991717 0)
(1.8331 0.717857 0)
(1.06234 0.955504 0)
(0.733478 0.649071 0)
(0.42144 0.422034 0)
(0.135675 0.334014 0)
(-0.0724251 0.606145 0)
(-0.119539 0.755019 0)
(0.0297426 0.369608 0)
(0.990615 -0.605507 0)
(1.12523 -0.790077 0)
(1.23286 -0.87727 0)
(1.30499 -0.894086 0)
(1.44568 -0.840333 0)
(1.58812 -0.799262 0)
(1.70347 -0.947897 0)
(1.86373 -1.04068 0)
(2.23694 -0.692695 0)
(2.38109 0.019192 0)
(1.87642 0.563059 0)
(1.05394 1.0771 0)
(0.733417 1.09504 0)
(0.576736 0.761638 0)
(0.353706 0.539052 0)
(0.117092 0.445775 0)
(-0.0294415 0.688145 0)
(-0.0651712 0.616129 0)
(0.882312 0.0198842 0)
(1.07131 -0.644343 0)
(1.293 -0.760943 0)
(1.43024 -0.918314 0)
(1.47864 -0.937566 0)
(1.55554 -0.891593 0)
(1.61473 -0.91159 0)
(1.7159 -1.04907 0)
(1.88985 -1.06355 0)
(2.00197 -0.443261 0)
(1.79207 0.20106 0)
(1.12593 0.777205 0)
(0.606477 1.20631 0)
(0.527118 1.14834 0)
(0.451234 0.831086 0)
(0.29078 0.628887 0)
(0.0982512 0.539012 0)
(-0.0458436 0.626146 0)
(0.0878747 0.412848 0)
(0.980006 -0.38863 0)
(1.21671 -0.578819 0)
(1.46137 -0.783628 0)
(1.5484 -0.944521 0)
(1.56247 -0.945954 0)
(1.59196 -0.928891 0)
(1.61857 -0.979196 0)
(1.711 -1.07482 0)
(1.7922 -1.03402 0)
(1.46487 -0.203256 0)
(1.06759 0.426917 0)
(0.553681 0.981545 0)
(0.330324 1.28032 0)
(0.364537 1.15176 0)
(0.349609 0.876643 0)
(0.23448 0.701437 0)
(0.0806638 0.618717 0)
(-0.0550285 0.805926 0)
(1.02969 -0.0826666 0)
(1.09018 -0.355205 0)
(1.38279 -0.574089 0)
(1.59169 -0.827798 0)
(1.62136 -0.93938 0)
(1.61297 -0.939838 0)
(1.60638 -0.944619 0)
(1.62795 -1.00388 0)
(1.71607 -1.07057 0)
(1.61739 -0.886522 0)
(0.908167 0.00249851 0)
(0.525325 0.631166 0)
(0.181244 1.11261 0)
(0.146815 1.26999 0)
(0.251367 1.11721 0)
(0.268621 0.895088 0)
(0.185931 0.749325 0)
(0.0649979 0.677082 0)
(1.0698 -0.0431831 0)
(1.08191 -0.206493 0)
(1.22706 -0.357419 0)
(1.56521 -0.678828 0)
(1.687 -0.867985 0)
(1.67568 -0.928904 0)
(1.63823 -0.931762 0)
(1.61865 -0.954776 0)
(1.64909 -1.00661 0)
(1.73829 -1.05287 0)
(1.29248 -0.63225 0)
(0.41297 0.270566 0)
(0.0824752 0.782578 0)
(-0.0681895 1.14978 0)
(0.0384886 1.22242 0)
(0.176179 1.08653 0)
(0.202431 0.914932 0)
(0.145116 0.795355 0)
(0.0514526 0.732574 0)
(1.02957 1.86116 0)
(1.19854 0.87369 0)
(1.09776 0.417966 0)
(1.05586 0.183095 0)
(1.00704 -0.0280679 0)
(0.955455 -0.188556 0)
(0.896164 -0.307117 0)
(0.825481 -0.406608 0)
(1.49875 1.43989 0)
(1.27563 1.00444 0)
(0.858301 0.605889 0)
(0.717315 0.350549 0)
(1.46962 0.668732 0)
(1.63317 0.339892 0)
(1.71386 0.100614 0)
(1.76559 -0.1187 0)
(1.35876 0.374082 0)
(1.51921 0.251864 0)
(1.62351 0.136794 0)
(1.69479 0.00633843 0)
(1.20183 0.0957119 0)
(1.31609 0.0142016 0)
(1.39602 -0.0789243 0)
(1.47218 -0.179185 0)
(1.12968 -0.116666 0)
(1.19987 -0.153838 0)
(1.25701 -0.200618 0)
(1.31635 -0.261064 0)
(1.04487 -0.249064 0)
(1.09037 -0.262113 0)
(1.14928 -0.321638 0)
(1.20591 -0.368432 0)
(0.959066 -0.345553 0)
(1.00925 -0.388018 0)
(1.07316 -0.451221 0)
(1.11355 -0.471466 0)
(0.883793 -0.464103 0)
(0.946886 -0.516065 0)
(0.987316 -0.544723 0)
(1.03106 -0.571985 0)
(0.817042 -0.575365 0)
(0.867384 -0.611409 0)
(0.89571 -0.63905 0)
(0.967654 -0.683781 0)
(0.737145 -0.670264 0)
(0.773317 -0.701516 0)
(0.817344 -0.751037 0)
(0.878745 -0.82589 0)
(0.635899 -0.766746 0)
(0.677502 -0.831461 0)
(0.687987 -0.920251 0)
(0.640341 -0.979626 0)
(0.477715 -0.931548 0)
(0.460165 -1.0239 0)
(0.370814 -1.09915 0)
(0.18753 -0.980997 0)
(0.271158 -1.08591 0)
(0.111659 -1.13648 0)
(-0.00485592 0.00278911 0)
(-0.473035 0.13913 0)
(-0.245509 0.205439 0)
(-0.733595 -0.0536255 0)
(-0.616095 0.339336 0)
(-0.742778 0.425306 0)
(-0.713666 -0.2645 0)
(-0.690167 0.157762 0)
(-0.66359 0.231428 0)
(-0.660597 0.274112 0)
(-0.748846 0.276082 0)
(-0.781228 0.297953 0)
(-0.772955 0.325985 0)
(-0.740081 0.327968 0)
(-0.713062 0.166734 0)
(-0.691341 0.190515 0)
(-0.683773 0.206231 0)
(-0.682742 0.238995 0)
(0.8619 0.039925 0)
(1.24089 -0.260459 0)
(1.58737 -0.571585 0)
(1.73106 -0.788967 0)
(1.75641 -0.883115 0)
(1.71735 -0.908924 0)
(1.65278 -0.915193 0)
(1.63263 -0.95414 0)
(1.68367 -1.00712 0)
(1.70456 -0.990241 0)
(0.746468 -0.0736697 0)
(0.0961939 0.546632 0)
(-0.139655 0.876252 0)
(-0.145096 1.10154 0)
(-0.00937746 1.12834 0)
(0.0943991 1.03544 0)
(0.120724 0.920159 0)
(0.0919569 0.8335 0)
(0.0332945 0.784792 0)
(1.86096 -0.327907 0)
(1.88308 -0.498455 0)
(1.86727 -0.657189 0)
(1.83822 -0.805761 0)
(1.79315 -0.856638 0)
(1.71567 -0.832531 0)
(1.62687 -0.864947 0)
(1.63413 -0.934684 0)
(1.70564 -0.987732 0)
(1.26156 -0.467151 0)
(0.211612 0.603962 0)
(-0.0389354 0.779003 0)
(-0.152969 0.930193 0)
(-0.116063 1.02725 0)
(-0.031174 1.03023 0)
(0.0316964 0.978327 0)
(0.0553577 0.912475 0)
(0.0465815 0.858776 0)
(0.0173222 0.825629 0)
(1.74909 -0.169927 0)
(1.76183 -0.361279 0)
(1.75204 -0.567891 0)
(1.74276 -0.708021 0)
(1.6868 -0.743445 0)
(1.60585 -0.760186 0)
(1.57655 -0.842952 0)
(1.63955 -0.943974 0)
(1.54368 -0.801157 0)
(0.376705 0.499364 0)
(0.0360553 0.880514 0)
(-0.0822736 0.907319 0)
(-0.122906 0.952842 0)
(-0.0945155 0.98156 0)
(-0.0450033 0.975893 0)
(-0.00483992 0.94458 0)
(0.0159122 0.904802 0)
(0.0179107 0.870997 0)
(0.00701542 0.847662 0)
(1.53381 -0.322868 0)
(1.59058 -0.495675 0)
(1.6395 -0.659087 0)
(1.62856 -0.745248 0)
(1.57976 -0.752274 0)
(1.51971 -0.799415 0)
(1.54201 -0.893682 0)
(1.54976 -0.878705 0)
(0.580023 0.193963 0)
(-0.00258163 0.938141 0)
(-0.075977 0.986791 0)
(-0.116803 0.958331 0)
(-0.116266 0.954168 0)
(-0.0928286 0.954625 0)
(-0.0591097 0.942755 0)
(-0.0293748 0.919978 0)
(-0.00964075 0.893511 0)
(-0.000758257 0.871251 0)
(0.000203745 0.853839 0)
(1.39775 -0.358369 0)
(1.49086 -0.511699 0)
(1.54524 -0.629887 0)
(1.54577 -0.670773 0)
(1.49326 -0.701493 0)
(1.47874 -0.811346 0)
(1.54352 -0.858996 0)
(0.962256 -0.181946 0)
(-0.0282503 0.873464 0)
(-0.130538 1.04031 0)
(-0.14417 1.00306 0)
(-0.141254 0.966405 0)
(-0.124438 0.945738 0)
(-0.102138 0.931626 0)
(-0.0736434 0.916498 0)
(-0.0477064 0.897996 0)
(-0.0273104 0.878909 0)
(-0.0133579 0.863554 0)
(-0.00439123 0.849448 0)
(1.29431 -0.451703 0)
(1.4012 -0.590052 0)
(1.44555 -0.667536 0)
(1.41645 -0.707682 0)
(1.3603 -0.836588 0)
(1.33065 -0.995662 0)
(0.896867 -0.356472 0)
(-0.105646 0.830075 0)
(-0.242307 1.04995 0)
(-0.226549 1.03934 0)
(-0.194948 0.986903 0)
(-0.168926 0.950567 0)
(-0.143119 0.925357 0)
(-0.115895 0.908213 0)
(-0.0880068 0.89218 0)
(-0.0623266 0.876391 0)
(-0.0402524 0.861811 0)
(-0.0221941 0.850663 0)
(-0.00744341 0.838979 0)
(1.21492 -0.556676 0)
(1.31213 -0.651145 0)
(1.31554 -0.700706 0)
(1.26503 -0.81076 0)
(1.16919 -0.906977 0)
(0.835407 -0.39806 0)
(-0.211655 0.735151 0)
(-0.35086 0.990955 0)
(-0.342572 1.03393 0)
(-0.282775 0.997198 0)
(-0.233583 0.954591 0)
(-0.19565 0.923466 0)
(-0.162075 0.900373 0)
(-0.130806 0.882656 0)
(-0.101423 0.867438 0)
(-0.0744585 0.853892 0)
(-0.0502128 0.842355 0)
(-0.0288359 0.833822 0)
(-0.00967106 0.823484 0)
(1.14985 -0.654868 0)
(1.18621 -0.72943 0)
(1.1318 -0.822008 0)
(0.974492 -0.948106 0)
(0.716551 -0.476883 0)
(-0.314356 0.652091 0)
(-0.442858 0.907214 0)
(-0.446257 0.974551 0)
(-0.382188 0.970588 0)
(-0.315483 0.942898 0)
(-0.26143 0.913622 0)
(-0.217353 0.889607 0)
(-0.179036 0.870315 0)
(-0.144728 0.85457 0)
(-0.113311 0.841149 0)
(-0.0844922 0.829872 0)
(-0.0581374 0.820582 0)
(-0.0339741 0.813954 0)
(-0.0114387 0.80419 0)
(1.03912 -0.766989 0)
(0.987759 -0.857694 0)
(0.824277 -0.972008 0)
(0.522445 -0.420236 0)
(-0.446661 0.589246 0)
(-0.532466 0.828948 0)
(-0.533342 0.901267 0)
(-0.473019 0.913262 0)
(-0.399991 0.904369 0)
(-0.334984 0.887502 0)
(-0.280373 0.868865 0)
(-0.233816 0.851819 0)
(-0.192851 0.836895 0)
(-0.15646 0.824134 0)
(-0.123221 0.813241 0)
(-0.0926648 0.804097 0)
(-0.064394 0.796799 0)
(-0.0379339 0.791641 0)
(-0.0127284 0.782498 0)
(0.838267 -0.907427 0)
(0.634265 -1.00257 0)
(0.217796 -0.28411 0)
(-0.530974 0.49407 0)
(-0.629424 0.741019 0)
(-0.612975 0.818933 0)
(-0.551963 0.840322 0)
(-0.477747 0.846096 0)
(-0.40779 0.842645 0)
(-0.346154 0.834207 0)
(-0.292463 0.82322 0)
(-0.245313 0.812279 0)
(-0.203341 0.801625 0)
(-0.165564 0.792111 0)
(-0.131 0.783896 0)
(-0.099052 0.776827 0)
(-0.0692115 0.771302 0)
(-0.0409143 0.767373 0)
(-0.0137783 0.758657 0)
(0.443408 -1.03822 0)
(-0.077123 -0.147054 0)
(-0.644699 0.398155 0)
(-0.687981 0.626892 0)
(-0.680147 0.717717 0)
(-0.616436 0.756992 0)
(-0.545206 0.773149 0)
(-0.474001 0.782899 0)
(-0.409431 0.785329 0)
(-0.3512 0.783234 0)
(-0.299198 0.778254 0)
(-0.252571 0.772185 0)
(-0.210496 0.765567 0)
(-0.172046 0.759231 0)
(-0.136697 0.75346 0)
(-0.103801 0.748451 0)
(-0.0727682 0.744443 0)
(-0.0431776 0.7416 0)
(-0.0143623 0.733316 0)
(-0.277096 -0.193655 0)
(-0.769522 0.215527 0)
(-0.677647 0.50334 0)
(-0.728655 0.590066 0)
(-0.65589 0.664392 0)
(-0.598097 0.686158 0)
(-0.528672 0.711139 0)
(-0.465618 0.724278 0)
(-0.406072 0.731917 0)
(-0.351467 0.734745 0)
(-0.301626 0.734495 0)
(-0.256157 0.732462 0)
(-0.214558 0.729392 0)
(-0.176133 0.725935 0)
(-0.140472 0.722388 0)
(-0.106998 0.71929 0)
(-0.0752303 0.716652 0)
(-0.0446553 0.714763 0)
(-0.0150433 0.70665 0)
(-0.360825 0.139812 0)
(-0.701694 0.429505 0)
(-0.668022 0.501136 0)
(-0.699306 0.552902 0)
(-0.612991 0.598858 0)
(-0.575 0.628841 0)
(-0.508622 0.654466 0)
(-0.453881 0.670802 0)
(-0.398802 0.68219 0)
(-0.347979 0.688868 0)
(-0.300574 0.69239 0)
(-0.256659 0.693678 0)
(-0.21598 0.693567 0)
(-0.178058 0.692602 0)
(-0.142473 0.691128 0)
(-0.108814 0.689669 0)
(-0.0766741 0.688289 0)
(-0.0456258 0.687216 0)
(-0.015081 0.679659 0)
(-0.769967 0.360183 0)
(-0.776062 0.459374 0)
(-0.68162 0.479401 0)
(-0.662155 0.515832 0)
(-0.584664 0.545806 0)
(-0.548328 0.579812 0)
(-0.488665 0.603305 0)
(-0.439464 0.622299 0)
(-0.388804 0.636079 0)
(-0.341518 0.645686 0)
(-0.296703 0.652155 0)
(-0.254652 0.656158 0)
(-0.215189 0.658469 0)
(-0.178072 0.659628 0)
(-0.142925 0.659988 0)
(-0.10942 0.65993 0)
(-0.0772574 0.659675 0)
(-0.0459667 0.659271 0)
(-0.015468 0.651686 0)
(-0.692249 0.292144 0)
(-0.704449 0.395934 0)
(-0.646922 0.430308 0)
(-0.624067 0.475391 0)
(-0.558258 0.501107 0)
(-0.5218 0.534873 0)
(-0.468594 0.55776 0)
(-0.423456 0.578074 0)
(-0.376879 0.593491 0)
(-0.332848 0.605223 0)
(-0.290627 0.613901 0)
(-0.250575 0.620083 0)
(-0.212556 0.624403 0)
(-0.176464 0.627302 0)
(-0.142026 0.629224 0)
(-0.108972 0.630372 0)
(-0.077055 0.631068 0)
(-0.0459106 0.631304 0)
(-0.0151649 0.624486 0)
(-0.723068 0.342683 0)
(-0.68045 0.358429 0)
(-0.610404 0.388431 0)
(-0.590781 0.437643 0)
(-0.531 0.460762 0)
(-0.49622 0.493904 0)
(-0.448351 0.516681 0)
(-0.406519 0.537596 0)
(-0.363603 0.55413 0)
(-0.322556 0.567377 0)
(-0.282856 0.577703 0)
(-0.244833 0.585588 0)
(-0.208412 0.591526 0)
(-0.173524 0.595877 0)
(-0.140001 0.599057 0)
(-0.107643 0.601254 0)
(-0.0762147 0.602745 0)
(-0.0455152 0.603471 0)
(-0.0152077 0.596275 0)
(-0.680494 0.298955 0)
(-0.624035 0.326452 0)
(-0.587413 0.351682 0)
(-0.554666 0.402895 0)
(-0.505801 0.423709 0)
(-0.471028 0.456477 0)
(-0.427983 0.47912 0)
(-0.389054 0.500386 0)
(-0.349398 0.517668 0)
(-0.3111 0.531986 0)
(-0.27381 0.543538 0)
(-0.237799 0.552729 0)
(-0.203038 0.55994 0)
(-0.169488 0.565486 0)
(-0.137038 0.569684 0)
(-0.105539 0.572758 0)
(-0.0747998 0.574917 0)
(-0.044553 0.576103 0)
(-0.0147748 0.569901 0)
)
;

boundaryField
{
    leftWall
    {
        type            fixedValue;
        value           nonuniform 0();
    }
    rightWall
    {
        type            fixedValue;
        value           uniform (0 0 0);
    }
    lowerWall
    {
        type            fixedValue;
        value           uniform (0 0 0);
    }
    atmosphere
    {
        type            fluxCorrectedVelocity;
        value           nonuniform 0();
    }
    defaultFaces
    {
        type            empty;
    }
    procBoundary1to0
    {
        type            processor;
        value           nonuniform List<vector> 
26
(
(1.11353 -0.0191648 0)
(1.21869 0.193093 0)
(1.2014 0.0364803 0)
(1.20346 -0.132851 0)
(1.11393 -0.178765 0)
(0.189954 0.53552 0)
(0.0679349 0.690556 0)
(0.175592 0.832296 0)
(0.689401 0.729602 0)
(0.760552 0.437518 0)
(0.838434 0.222559 0)
(0.858212 0.0888573 0)
(0.842737 -0.022024 0)
(0.811404 -0.139534 0)
(0.766861 -0.248449 0)
(0.715088 -0.344178 0)
(0.752522 -0.506785 0)
(0.752522 -0.506785 0)
(0.673679 -0.603593 0)
(0.585016 -0.680191 0)
(0.466561 -0.774577 0)
(0.250527 -0.98149 0)
(-0.0289944 -1.24019 0)
(-0.609266 -0.531071 0)
(-0.535656 -0.15147 0)
(-0.71073 0.0861183 0)
)
;
    }
    procBoundary1to3
    {
        type            processor;
        value           nonuniform List<vector> 
23
(
(-0.695125 0.170775 0)
(-0.684138 0.168641 0)
(-0.676269 0.204076 0)
(-0.66799 0.236247 0)
(-0.628959 0.268793 0)
(-0.581444 0.284786 0)
(-0.564123 0.31992 0)
(-0.516651 0.370015 0)
(-0.482971 0.389204 0)
(-0.445423 0.422081 0)
(-0.407833 0.44448 0)
(-0.37117 0.466 0)
(-0.334567 0.483791 0)
(-0.298798 0.498876 0)
(-0.263805 0.511338 0)
(-0.229767 0.521525 0)
(-0.196692 0.529725 0)
(-0.164568 0.536216 0)
(-0.133316 0.541243 0)
(-0.102826 0.545017 0)
(-0.0729699 0.547695 0)
(-0.0436076 0.549226 0)
(-0.0144531 0.542816 0)
)
;
    }
}


// ************************************************************************* //
