/*--------------------------------*- C++ -*----------------------------------*\
| =========                 |                                                 |
| \\      /  F ield         | OpenFOAM: The Open Source CFD Toolbox           |
|  \\    /   O peration     | Version:  2.4.0                                 |
|   \\  /    A nd           | Web:      www.OpenFOAM.org                      |
|    \\/     M anipulation  |                                                 |
\*---------------------------------------------------------------------------*/
FoamFile
{
    version     2.0;
    format      ascii;
    class       volVectorField;
    location    "0.15";
    object      U.oil;
}
// * * * * * * * * * * * * * * * * * * * * * * * * * * * * * * * * * * * * * //

dimensions      [0 1 -1 0 0 0 0];

internalField   nonuniform List<vector> 
559
(
(0.764558 0.323014 0)
(0.911204 1.20024 0)
(0.983077 1.44743 0)
(1.02191 1.87973 0)
(0.762942 2.13862 0)
(0.399106 2.03642 0)
(0.123345 2.01164 0)
(0.0683336 2.09268 0)
(-0.342913 0.0967716 0)
(-0.95481 0.0446546 0)
(-1.19838 -0.0188185 0)
(0.222872 -0.847522 0)
(0.536074 -0.966918 0)
(0.477328 -0.920692 0)
(0.475502 -0.903373 0)
(0.829017 -0.878633 0)
(1.38854 -0.872053 0)
(1.84762 -0.844137 0)
(2.61209 -0.847504 0)
(2.6823 -0.934059 0)
(2.86069 -1.16697 0)
(3.48585 -1.58639 0)
(3.87899 -1.91284 0)
(3.65914 -1.77044 0)
(1.36995 -0.264574 0)
(0.605353 0.00450026 0)
(0.169485 0.0619246 0)
(-0.309793 0.253531 0)
(-0.729881 0.20054 0)
(-0.773703 0.0684166 0)
(0.669101 -0.85034 0)
(0.859851 -0.845701 0)
(0.899054 -0.879512 0)
(0.924787 -0.835943 0)
(1.07074 -0.761251 0)
(1.3659 -0.717463 0)
(1.68029 -0.657295 0)
(1.94565 -0.724404 0)
(2.00012 -0.868595 0)
(2.06719 -0.979848 0)
(3.53663 -1.75808 0)
(3.84804 -1.85637 0)
(3.47683 -1.44496 0)
(1.50088 -0.143229 0)
(0.614285 0.169103 0)
(0.162772 0.201093 0)
(-0.225049 0.387378 0)
(-0.519022 0.297933 0)
(-0.381364 0.110902 0)
(0.626638 -0.638448 0)
(1.00414 -0.850865 0)
(1.04727 -0.873346 0)
(1.08081 -0.853359 0)
(1.22385 -0.771835 0)
(1.46909 -0.686608 0)
(1.66494 -0.727578 0)
(1.74132 -0.933938 0)
(1.79146 -1.09965 0)
(1.95971 -1.19196 0)
(2.23978 -0.641353 0)
(2.47942 -0.234412 0)
(1.70073 0.201951 0)
(0.993097 0.336124 0)
(0.472273 0.375757 0)
(0.139959 0.331286 0)
(-0.116558 0.433127 0)
(-0.171223 0.30143 0)
(0.220106 -0.272448 0)
(0.84465 -0.696715 0)
(1.1259 -0.793625 0)
(1.23354 -0.877271 0)
(1.30488 -0.894177 0)
(1.44556 -0.840453 0)
(1.58781 -0.799788 0)
(1.6928 -0.962053 0)
(1.78647 -1.16435 0)
(1.90207 -1.29983 0)
(2.06272 -0.760718 0)
(1.97128 0.189901 0)
(1.49989 0.611626 0)
(1.06533 0.681662 0)
(0.688304 0.61349 0)
(0.374922 0.515954 0)
(0.118736 0.444277 0)
(-0.068667 0.531072 0)
(-0.133631 0.313653 0)
(0.474604 -0.34475 0)
(1.04435 -0.662054 0)
(1.29349 -0.761856 0)
(1.43028 -0.918339 0)
(1.47851 -0.937663 0)
(1.55543 -0.891713 0)
(1.6132 -0.913777 0)
(1.69166 -1.06196 0)
(1.84293 -1.20222 0)
(2.00212 -1.28287 0)
(1.80976 -0.399645 0)
(1.40706 0.560644 0)
(0.992078 0.915938 0)
(0.748987 0.89301 0)
(0.514163 0.748784 0)
(0.300394 0.61643 0)
(0.0988663 0.538237 0)
(-0.0773865 0.492243 0)
(0.401218 0.563348 0)
(0.870548 -0.45274 0)
(1.21269 -0.58199 0)
(1.46155 -0.783508 0)
(1.54831 -0.944624 0)
(1.56234 -0.946051 0)
(1.59187 -0.929006 0)
(1.61644 -0.981683 0)
(1.69343 -1.08422 0)
(1.8448 -1.20214 0)
(1.89764 -1.19296 0)
(1.2904 0.0329806 0)
(0.877561 0.862994 0)
(0.650659 1.08157 0)
(0.521891 1.00238 0)
(0.384894 0.831554 0)
(0.238688 0.695027 0)
(0.0808772 0.618356 0)
(0.339576 0.31152 0)
(1.05717 -0.154986 0)
(1.08256 -0.360344 0)
(1.38266 -0.574009 0)
(1.59165 -0.827853 0)
(1.62125 -0.939492 0)
(1.61285 -0.939935 0)
(1.60629 -0.944719 0)
(1.62539 -1.00548 0)
(1.70335 -1.08273 0)
(1.82466 -1.16963 0)
(1.68214 -0.972671 0)
(0.746823 0.519124 0)
(0.487745 1.04804 0)
(0.395737 1.14678 0)
(0.351724 1.03883 0)
(0.28644 0.871943 0)
(0.18766 0.746355 0)
(0.0650666 0.676932 0)
(1.11088 -0.0962437 0)
(1.08 -0.213443 0)
(1.22676 -0.357252 0)
(1.56521 -0.678844 0)
(1.68692 -0.868104 0)
(1.67557 -0.929011 0)
(1.63813 -0.931855 0)
(1.61857 -0.954883 0)
(1.64568 -1.00817 0)
(1.74058 -1.08371 0)
(1.84208 -1.15622 0)
(0.926404 -0.241635 0)
(0.25598 0.828829 0)
(0.186295 1.12305 0)
(0.205938 1.15414 0)
(0.229076 1.04484 0)
(0.210583 0.903649 0)
(0.14577 0.794049 0)
(0.0514731 0.732516 0)
(1.0672 1.8673 0)
(1.20534 0.869697 0)
(1.09841 0.41752 0)
(1.05591 0.183104 0)
(1.00705 -0.0280757 0)
(0.95546 -0.188572 0)
(0.896165 -0.30713 0)
(0.82548 -0.406621 0)
(1.52104 1.41938 0)
(1.26203 0.991262 0)
(0.848809 0.599413 0)
(0.714348 0.346936 0)
(1.47746 0.652155 0)
(1.64014 0.327988 0)
(1.71826 0.0939243 0)
(1.76812 -0.122997 0)
(1.36013 0.373307 0)
(1.52055 0.251333 0)
(1.6244 0.136419 0)
(1.69516 0.00606971 0)
(1.20189 0.0956796 0)
(1.31616 0.0141774 0)
(1.39608 -0.0789389 0)
(1.47222 -0.179208 0)
(1.1297 -0.11668 0)
(1.19988 -0.153855 0)
(1.25701 -0.200643 0)
(1.31635 -0.261096 0)
(1.04487 -0.249083 0)
(1.09038 -0.262134 0)
(1.14928 -0.321665 0)
(1.20591 -0.368459 0)
(0.959066 -0.34557 0)
(1.00925 -0.388037 0)
(1.07316 -0.451242 0)
(1.11354 -0.471487 0)
(0.883791 -0.464117 0)
(0.946882 -0.51608 0)
(0.98731 -0.544739 0)
(1.03105 -0.572002 0)
(0.817038 -0.575377 0)
(0.867378 -0.611421 0)
(0.895703 -0.639063 0)
(0.967645 -0.683793 0)
(0.737141 -0.670272 0)
(0.773311 -0.701524 0)
(0.817336 -0.751047 0)
(0.878665 -0.825976 0)
(0.635882 -0.766769 0)
(0.677406 -0.831585 0)
(0.687333 -0.92122 0)
(0.637138 -0.984382 0)
(0.476617 -0.93362 0)
(0.457416 -1.02885 0)
(0.358814 -1.11803 0)
(0.136852 -1.20059 0)
(0.245292 -1.11291 0)
(-0.0112965 -1.38925 0)
(-0.1093 -1.44576 0)
(-0.331828 -0.196021 0)
(-0.0931471 -0.601406 0)
(-0.111678 -0.809831 0)
(-0.298409 -0.32341 0)
(-0.730449 0.37935 0)
(-0.7612 -0.330424 0)
(-0.686392 0.121923 0)
(-0.654413 0.215172 0)
(-0.656756 0.27147 0)
(-0.767696 0.280194 0)
(-0.797247 0.305733 0)
(-0.779352 0.330819 0)
(-0.741046 0.329106 0)
(-0.720925 0.164816 0)
(-0.697457 0.191234 0)
(-0.687235 0.207108 0)
(-0.684428 0.239315 0)
(0.86152 0.0386231 0)
(1.24086 -0.260743 0)
(1.58738 -0.571742 0)
(1.73099 -0.789076 0)
(1.75632 -0.883221 0)
(1.71725 -0.909022 0)
(1.65271 -0.915257 0)
(1.63239 -0.954635 0)
(1.67868 -1.00934 0)
(1.78707 -1.09743 0)
(1.80332 -1.09667 0)
(0.372418 0.284267 0)
(-0.031248 0.917339 0)
(-0.0120336 1.09822 0)
(0.061049 1.10697 0)
(0.113308 1.02281 0)
(0.123288 0.917093 0)
(0.0921159 0.833149 0)
(0.0332977 0.784777 0)
(1.86195 -0.329846 0)
(1.88309 -0.498995 0)
(1.8672 -0.657374 0)
(1.83814 -0.80588 0)
(1.79307 -0.856729 0)
(1.71559 -0.832604 0)
(1.62683 -0.864974 0)
(1.63238 -0.935877 0)
(1.7109 -1.00948 0)
(1.81267 -1.07669 0)
(0.998118 -0.227696 0)
(0.0227007 0.687148 0)
(-0.108462 0.925592 0)
(-0.0762055 1.02054 0)
(-0.0140212 1.02375 0)
(0.0355706 0.975441 0)
(0.0558012 0.911865 0)
(0.0466049 0.858719 0)
(0.0173226 0.825627 0)
(1.74918 -0.170078 0)
(1.76182 -0.361386 0)
(1.75201 -0.567997 0)
(1.74271 -0.708102 0)
(1.68673 -0.743512 0)
(1.6058 -0.760214 0)
(1.57543 -0.843473 0)
(1.62941 -0.9488 0)
(1.71826 -1.02755 0)
(1.5909 -0.855847 0)
(0.263552 0.575751 0)
(-0.0627211 0.853903 0)
(-0.106293 0.933073 0)
(-0.0842914 0.973721 0)
(-0.0415045 0.973171 0)
(-0.00417535 0.943825 0)
(0.0159789 0.904685 0)
(0.0179138 0.870988 0)
(0.00701546 0.847662 0)
(1.53382 -0.322923 0)
(1.59057 -0.495737 0)
(1.63948 -0.659151 0)
(1.62852 -0.745307 0)
(1.57972 -0.752315 0)
(1.51907 -0.799797 0)
(1.53202 -0.897374 0)
(1.58474 -0.976841 0)
(1.57845 -0.964894 0)
(0.184706 0.706142 0)
(-0.0160489 0.890253 0)
(-0.101636 0.927843 0)
(-0.108591 0.941981 0)
(-0.0899254 0.950946 0)
(-0.0583794 0.941849 0)
(-0.0292646 0.919808 0)
(-0.0096312 0.893491 0)
(-0.000757864 0.87125 0)
(0.000203749 0.853839 0)
(1.39775 -0.35841 0)
(1.49084 -0.511746 0)
(1.54521 -0.629936 0)
(1.54574 -0.670813 0)
(1.49286 -0.701712 0)
(1.47093 -0.815948 0)
(1.50653 -0.913694 0)
(1.5487 -0.950012 0)
(0.431795 0.35754 0)
(-0.0775847 0.972288 0)
(-0.116931 0.966725 0)
(-0.132269 0.952838 0)
(-0.121101 0.941096 0)
(-0.101314 0.93046 0)
(-0.073494 0.916265 0)
(-0.0476882 0.897963 0)
(-0.0273091 0.878906 0)
(-0.0133578 0.863554 0)
(-0.00439122 0.849448 0)
(1.29431 -0.451734 0)
(1.40118 -0.590088 0)
(1.44552 -0.66757 0)
(1.41618 -0.707852 0)
(1.35336 -0.841438 0)
(1.27556 -1.04808 0)
(1.30061 -1.12257 0)
(0.531326 0.0830087 0)
(-0.189264 1.00252 0)
(-0.194979 1.01134 0)
(-0.181292 0.973297 0)
(-0.164859 0.945851 0)
(-0.142014 0.924031 0)
(-0.115691 0.907905 0)
(-0.0879774 0.892129 0)
(-0.0623237 0.876385 0)
(-0.0402522 0.861811 0)
(-0.0221941 0.850663 0)
(-0.00744341 0.838979 0)
(1.21491 -0.556701 0)
(1.31211 -0.65117 0)
(1.31533 -0.700876 0)
(1.25922 -0.816107 0)
(1.11302 -0.953128 0)
(0.952165 -0.967645 0)
(0.301024 0.0426072 0)
(-0.347927 0.989976 0)
(-0.323692 1.02443 0)
(-0.267332 0.987636 0)
(-0.228079 0.950335 0)
(-0.194243 0.922075 0)
(-0.161787 0.90001 0)
(-0.130761 0.882586 0)
(-0.101418 0.867428 0)
(-0.0744581 0.853891 0)
(-0.0502128 0.842355 0)
(-0.0288359 0.833822 0)
(-0.00967106 0.823484 0)
(1.14984 -0.654886 0)
(1.18602 -0.729615 0)
(1.12641 -0.827533 0)
(0.918022 -1.00034 0)
(0.731628 -1.14765 0)
(0.146153 -0.0228441 0)
(-0.431917 0.898383 0)
(-0.444465 0.973811 0)
(-0.37387 0.967962 0)
(-0.309902 0.940393 0)
(-0.259709 0.912483 0)
(-0.216974 0.889243 0)
(-0.17897 0.870231 0)
(-0.144719 0.854556 0)
(-0.11331 0.841147 0)
(-0.0844921 0.829872 0)
(-0.0581374 0.820582 0)
(-0.0339741 0.813954 0)
(-0.0114387 0.80419 0)
(1.039 -0.767115 0)
(0.982538 -0.863403 0)
(0.768921 -1.0313 0)
(0.471386 -1.12817 0)
(-0.112698 0.0753954 0)
(-0.522678 0.821907 0)
(-0.531213 0.900941 0)
(-0.472342 0.913039 0)
(-0.397078 0.903733 0)
(-0.333403 0.886888 0)
(-0.279943 0.868574 0)
(-0.233731 0.851733 0)
(-0.192838 0.836878 0)
(-0.156459 0.824131 0)
(-0.123221 0.813241 0)
(-0.0926648 0.804097 0)
(-0.064394 0.796799 0)
(-0.0379339 0.791641 0)
(-0.0127284 0.782498 0)
(0.83407 -0.912083 0)
(0.574552 -1.06683 0)
(0.180096 -1.07443 0)
(-0.331601 0.210988 0)
(-0.623739 0.7409 0)
(-0.610844 0.81932 0)
(-0.551402 0.840314 0)
(-0.477452 0.846084 0)
(-0.406985 0.842463 0)
(-0.345789 0.834038 0)
(-0.292372 0.82315 0)
(-0.245297 0.812261 0)
(-0.203339 0.801622 0)
(-0.165563 0.792111 0)
(-0.131 0.783896 0)
(-0.099052 0.776827 0)
(-0.0692115 0.771302 0)
(-0.0409143 0.767373 0)
(-0.0137783 0.758657 0)
(0.40369 -1.10141 0)
(-0.181982 -1.13263 0)
(-0.554624 0.283336 0)
(-0.677776 0.623417 0)
(-0.678143 0.718518 0)
(-0.615571 0.75709 0)
(-0.545148 0.773097 0)
(-0.473916 0.782895 0)
(-0.40925 0.785265 0)
(-0.351129 0.783189 0)
(-0.299182 0.778239 0)
(-0.252568 0.772182 0)
(-0.210495 0.765566 0)
(-0.172046 0.759231 0)
(-0.136697 0.75346 0)
(-0.103801 0.748451 0)
(-0.0727682 0.744443 0)
(-0.0431776 0.7416 0)
(-0.0143623 0.733316 0)
(0.0700611 -1.26952 0)
(-0.759604 0.211402 0)
(-0.677899 0.506472 0)
(-0.72639 0.591069 0)
(-0.654855 0.665082 0)
(-0.598066 0.68617 0)
(-0.528666 0.711131 0)
(-0.465599 0.724275 0)
(-0.406039 0.731897 0)
(-0.351456 0.734734 0)
(-0.301624 0.734492 0)
(-0.256156 0.732461 0)
(-0.214558 0.729392 0)
(-0.176133 0.725935 0)
(-0.140472 0.722388 0)
(-0.106998 0.71929 0)
(-0.0752303 0.716652 0)
(-0.0446553 0.714763 0)
(-0.0150433 0.70665 0)
(-0.367922 0.236653 0)
(-0.687314 0.43624 0)
(-0.66726 0.501925 0)
(-0.699087 0.552998 0)
(-0.612958 0.598841 0)
(-0.574999 0.628819 0)
(-0.508621 0.654466 0)
(-0.453878 0.670801 0)
(-0.398797 0.682184 0)
(-0.347977 0.688866 0)
(-0.300574 0.69239 0)
(-0.256659 0.693678 0)
(-0.21598 0.693567 0)
(-0.178058 0.692602 0)
(-0.142473 0.691128 0)
(-0.108814 0.689669 0)
(-0.0766741 0.688289 0)
(-0.0456258 0.687216 0)
(-0.015081 0.679659 0)
(-0.776813 0.365786 0)
(-0.775054 0.461748 0)
(-0.681211 0.479558 0)
(-0.662148 0.515693 0)
(-0.584664 0.545771 0)
(-0.548328 0.579811 0)
(-0.488665 0.603305 0)
(-0.439464 0.622298 0)
(-0.388803 0.636078 0)
(-0.341517 0.645685 0)
(-0.296703 0.652155 0)
(-0.254652 0.656158 0)
(-0.215189 0.658469 0)
(-0.178072 0.659628 0)
(-0.142925 0.659988 0)
(-0.10942 0.65993 0)
(-0.0772574 0.659675 0)
(-0.0459667 0.659271 0)
(-0.015468 0.651686 0)
(-0.692309 0.292253 0)
(-0.704498 0.395796 0)
(-0.646923 0.430214 0)
(-0.624067 0.475383 0)
(-0.558258 0.501106 0)
(-0.5218 0.534873 0)
(-0.468594 0.55776 0)
(-0.423456 0.578073 0)
(-0.376879 0.593491 0)
(-0.332848 0.605223 0)
(-0.290627 0.613901 0)
(-0.250575 0.620083 0)
(-0.212556 0.624403 0)
(-0.176464 0.627302 0)
(-0.142026 0.629224 0)
(-0.108972 0.630372 0)
(-0.077055 0.631068 0)
(-0.0459106 0.631304 0)
(-0.0151649 0.624486 0)
(-0.723345 0.342922 0)
(-0.680462 0.358253 0)
(-0.610404 0.388408 0)
(-0.590781 0.437642 0)
(-0.530999 0.460762 0)
(-0.49622 0.493904 0)
(-0.448351 0.516681 0)
(-0.406519 0.537596 0)
(-0.363603 0.55413 0)
(-0.322556 0.567377 0)
(-0.282856 0.577703 0)
(-0.244833 0.585588 0)
(-0.208412 0.591526 0)
(-0.173524 0.595877 0)
(-0.140001 0.599057 0)
(-0.107643 0.601254 0)
(-0.0762147 0.602745 0)
(-0.0455152 0.603471 0)
(-0.0152077 0.596275 0)
(-0.681254 0.299088 0)
(-0.624054 0.326445 0)
(-0.587413 0.351681 0)
(-0.554666 0.402895 0)
(-0.505801 0.423709 0)
(-0.471028 0.456477 0)
(-0.427983 0.47912 0)
(-0.389054 0.500386 0)
(-0.349398 0.517668 0)
(-0.3111 0.531986 0)
(-0.27381 0.543538 0)
(-0.237799 0.552729 0)
(-0.203038 0.55994 0)
(-0.169488 0.565486 0)
(-0.137038 0.569684 0)
(-0.105539 0.572758 0)
(-0.0747998 0.574917 0)
(-0.044553 0.576103 0)
(-0.0147748 0.569901 0)
)
;

boundaryField
{
    leftWall
    {
        type            fixedValue;
        value           nonuniform 0();
    }
    rightWall
    {
        type            fixedValue;
        value           uniform (0 0 0);
    }
    lowerWall
    {
        type            fixedValue;
        value           uniform (0 0 0);
    }
    atmosphere
    {
        type            fluxCorrectedVelocity;
        value           nonuniform 0();
    }
    defaultFaces
    {
        type            empty;
    }
    procBoundary1to0
    {
        type            processor;
        value           nonuniform List<vector> 
26
(
(0.799952 0.193654 0)
(1.0104 0.584394 0)
(0.929743 0.538764 0)
(0.517582 0.684782 0)
(0.231465 0.489894 0)
(0.0450027 0.646599 0)
(0.0600384 0.70046 0)
(0.179132 0.841415 0)
(0.703352 0.733534 0)
(0.762007 0.437847 0)
(0.838763 0.222914 0)
(0.858254 0.0889162 0)
(0.842746 -0.0220286 0)
(0.811409 -0.139546 0)
(0.766864 -0.248461 0)
(0.715089 -0.344188 0)
(0.752519 -0.506795 0)
(0.752519 -0.506795 0)
(0.673677 -0.603602 0)
(0.585013 -0.680197 0)
(0.466331 -0.774927 0)
(0.245238 -0.988741 0)
(-0.154138 -1.59476 0)
(-0.551166 -0.862778 0)
(-0.566222 -0.156005 0)
(-0.714009 0.0835276 0)
)
;
    }
    procBoundary1to3
    {
        type            processor;
        value           nonuniform List<vector> 
23
(
(-0.696575 0.168095 0)
(-0.685059 0.166784 0)
(-0.676809 0.2031 0)
(-0.668314 0.23579 0)
(-0.629198 0.268614 0)
(-0.581455 0.284768 0)
(-0.564123 0.31992 0)
(-0.516651 0.370015 0)
(-0.482971 0.389204 0)
(-0.445423 0.422081 0)
(-0.407833 0.44448 0)
(-0.37117 0.466 0)
(-0.334567 0.483791 0)
(-0.298798 0.498876 0)
(-0.263805 0.511338 0)
(-0.229767 0.521525 0)
(-0.196692 0.529725 0)
(-0.164568 0.536216 0)
(-0.133316 0.541243 0)
(-0.102826 0.545017 0)
(-0.0729699 0.547695 0)
(-0.0436076 0.549226 0)
(-0.0144531 0.542816 0)
)
;
    }
}


// ************************************************************************* //
