/*--------------------------------*- C++ -*----------------------------------*\
| =========                 |                                                 |
| \\      /  F ield         | OpenFOAM: The Open Source CFD Toolbox           |
|  \\    /   O peration     | Version:  2.4.0                                 |
|   \\  /    A nd           | Web:      www.OpenFOAM.org                      |
|    \\/     M anipulation  |                                                 |
\*---------------------------------------------------------------------------*/
FoamFile
{
    version     2.0;
    format      ascii;
    class       volScalarField;
    location    "0.4";
    object      alpha.water;
}
// * * * * * * * * * * * * * * * * * * * * * * * * * * * * * * * * * * * * * //

dimensions      [0 0 0 0 0 0 0];

internalField   nonuniform List<scalar> 
2268
(
3.97753e-10
3.39214e-10
3.07106e-10
4.46316e-10
3.13762e-10
6.60668e-10
7.20559e-10
6.56139e-10
9.82404e-10
1.68253e-09
2.27642e-09
2.324e-09
2.27404e-09
2.3518e-09
2.558e-09
2.81172e-09
2.84936e-09
2.73453e-09
2.35784e-09
1.64775e-09
6.99e-10
1.7642e-10
9.16745e-11
4.46607e-09
3.95296e-09
3.74066e-09
5.16107e-09
4.07593e-09
6.84923e-09
7.74001e-09
7.39423e-09
9.80581e-09
1.39264e-08
1.70826e-08
1.7217e-08
1.71964e-08
1.72857e-08
1.74386e-08
1.68871e-08
1.554e-08
1.31498e-08
9.56715e-09
5.03345e-09
1.95747e-09
1.02532e-09
6.81562e-10
2.37943e-08
2.2e-08
2.17279e-08
2.73777e-08
2.45598e-08
3.32965e-08
3.70342e-08
3.71824e-08
4.3839e-08
5.25026e-08
5.88268e-08
6.01509e-08
6.42538e-08
6.53594e-08
7.10831e-08
7.10494e-08
6.82475e-08
5.71346e-08
3.90572e-08
1.8034e-08
1.43443e-08
1.64266e-08
1.28753e-08
1.64026e-07
1.75381e-07
1.69443e-07
3.8711e-07
2.27868e-07
6.21515e-07
9.7402e-07
1.00666e-06
2.35915e-06
5.68108e-06
1.36791e-05
2.06359e-05
3.98066e-05
5.97649e-05
0.000102741
6.39303e-05
2.96181e-05
1.25421e-05
4.60458e-06
1.08225e-06
2.20478e-07
1.60493e-07
7.47711e-08
0.000168546
0.000184087
0.000184835
0.000335101
0.000248103
0.000499551
0.000762858
0.000910175
0.00168178
0.00304399
0.0056632
0.00824031
0.0132021
0.0188609
0.027641
0.0201385
0.00745201
0.00144892
0.000163174
1.68753e-05
1.87208e-06
1.22598e-06
3.0608e-07
0.0230926
0.0243672
0.0251172
0.0337857
0.0318313
0.0453588
0.0606288
0.0732707
0.103987
0.146797
0.209541
0.266899
0.343085
0.43021
0.520849
0.582119
0.518429
0.311154
0.0703274
0.00524494
0.000157794
5.38807e-06
1.33304e-06
0.369008
0.378504
0.389084
0.434028
0.444285
0.507288
0.576215
0.634573
0.717085
0.800251
0.878259
0.930132
0.966718
0.987625
0.996712
0.999551
0.993005
0.924915
0.564714
0.0953841
0.00412026
7.20272e-05
1.6387e-05
0.917107
0.921551
0.928015
0.942108
0.950536
0.966416
0.979571
0.988512
0.994886
0.998036
0.99936
0.999786
0.999916
0.999962
0.99998
0.999959
0.999859
0.99896
0.948726
0.470196
0.0454007
0.000853886
1.64598e-05
1.97756e-09
3.11418e-09
6.2764e-09
3.69095e-08
1.43548e-07
3.68194e-07
6.97154e-07
1.09389e-06
1.59365e-06
2.14537e-06
2.72267e-06
3.15779e-06
3.33974e-06
3.28729e-06
2.82737e-06
2.0719e-06
1.19674e-06
3.73717e-07
2.96596e-08
1.9552e-09
4.74764e-09
4.0426e-08
1.81068e-07
3.65969e-07
4.90481e-07
5.18489e-07
5.18374e-07
5.6878e-07
9.1374e-07
1.63191e-06
2.35538e-06
3.37104e-06
3.20697e-06
2.54107e-06
1.50627e-06
5.88528e-07
1.72159e-07
1.90461e-08
1.90241e-09
1.48825e-08
1.25362e-07
3.90648e-07
6.0525e-07
7.40871e-07
8.30555e-07
9.06532e-07
9.88053e-07
1.18938e-06
1.62276e-06
2.80799e-06
6.58939e-06
7.60213e-06
6.28103e-06
3.07378e-06
5.89831e-07
4.72969e-08
3.83158e-09
2.99645e-09
4.90877e-08
2.48398e-07
4.26438e-07
6.03442e-07
6.90629e-07
7.07895e-07
6.1124e-07
6.11752e-07
8.58521e-07
2.02774e-06
5.2308e-06
1.43664e-05
1.68601e-05
1.23925e-05
4.13332e-06
3.87697e-07
9.62458e-09
2.95525e-10
6.12686e-09
8.06114e-08
2.30229e-07
2.83929e-07
2.78658e-07
2.35564e-07
1.48175e-07
9.66976e-08
1.32452e-07
3.98364e-07
3.9757e-06
1.85683e-05
4.73942e-05
5.04526e-05
2.5105e-05
4.06897e-06
1.65509e-07
7.31127e-09
1.13009e-10
5.98501e-09
7.47221e-08
1.7809e-07
6.35237e-08
1.07716e-08
1.87492e-10
9.09623e-12
3.45757e-12
3.43906e-10
6.07775e-07
5.37948e-05
0.000139302
0.000213326
0.000166375
4.7825e-05
3.77825e-06
1.13138e-07
3.92869e-09
7.46405e-11
4.79191e-09
5.33063e-08
1.09817e-07
3.36431e-08
9.21767e-10
1.12669e-11
1.07136e-11
2.36263e-12
6.68558e-11
1.3359e-05
0.000417373
0.000699412
0.000713854
0.000318846
5.87282e-05
2.56393e-06
5.02598e-08
1.82404e-09
7.74015e-11
3.48345e-09
1.44125e-08
2.4694e-11
7.7227e-12
1.13592e-11
7.6758e-12
2.81632e-10
1.3641e-13
-1.94176e-11
0.000161536
0.00145966
0.00172996
0.0013384
0.000288594
9.94667e-06
5.37385e-07
1.98519e-08
1.17611e-09
8.80639e-11
0.995501
0.995765
0.996204
0.996842
0.997473
0.998259
0.998894
0.999367
0.99968
0.999844
0.999924
0.999961
0.999975
0.999983
0.999982
0.999973
0.999881
0.999247
0.993312
0.899343
0.351049
0.0435823
0.00197148
0.999985
0.999985
0.999987
0.999988
0.99999
0.999992
0.999994
0.999995
0.999997
0.999998
0.999998
0.999998
0.999998
0.999997
0.999996
0.999991
0.999952
0.999578
0.997434
0.990466
0.84741
0.355252
0.0707352
0.999999
0.999999
0.999999
0.999999
0.999999
0.999999
0.999999
0.999999
0.999999
0.999999
0.999999
0.999998
0.999991
0.999963
0.999956
0.99996
0.99996
0.999919
0.99949
0.996804
0.978069
0.827896
0.433477
1
1
1
1
1
1
1
1
0.999997
0.999927
0.999661
0.999083
0.997676
0.993981
0.991974
0.991297
0.993973
0.996923
0.998839
0.998649
0.994179
0.975208
0.867175
0.999807
0.99981
0.99983
0.99986
0.999899
0.999938
0.999977
0.99997
0.999079
0.990733
0.975379
0.95429
0.918035
0.86003
0.817983
0.789362
0.818977
0.872665
0.925878
0.961823
0.983718
0.983269
0.97472
0.959007
0.959584
0.96208
0.966161
0.972185
0.979891
0.989686
0.995238
0.969507
0.86174
0.743072
0.626263
0.4883
0.344921
0.254359
0.197257
0.199316
0.254256
0.367178
0.503016
0.6796
0.822564
0.894108
0.371338
0.373023
0.382764
0.401072
0.432802
0.491144
0.630318
0.81368
0.782759
0.518245
0.31734
0.180223
0.0680492
0.0207079
0.00910826
0.00547218
0.00443555
0.00406362
0.00873042
0.0241652
0.144898
0.314306
0.466244
0.000400926
0.0003985
0.000431767
0.000513774
0.000706849
0.00117129
0.0046515
0.0579953
0.142486
0.0507258
0.0114723
0.00284152
0.000775185
0.000378834
0.000222728
0.000134891
8.70696e-05
6.93757e-05
9.81417e-05
9.97602e-05
0.00406375
0.0116353
0.0188695
4.16847e-07
3.19274e-07
2.70763e-07
2.05153e-07
2.74644e-08
1.19418e-07
5.38923e-06
1.76805e-05
2.78192e-05
5.18348e-06
5.6235e-06
6.96194e-06
9.39306e-06
1.213e-05
1.08566e-05
8.17187e-06
4.65872e-06
2.01366e-06
1.24291e-06
9.61244e-07
1.10084e-05
4.08647e-05
0.000263065
1.95582e-07
7.75461e-08
5.17796e-08
2.68344e-08
2.43844e-09
1.08695e-09
6.90442e-09
1.98499e-08
1.40028e-08
1.38882e-08
1.36614e-08
9.55064e-09
3.96337e-09
3.17811e-09
3.12798e-09
4.40595e-09
3.74127e-09
1.79981e-09
1.70646e-09
1.14739e-09
2.87643e-08
5.65298e-07
4.89286e-06
5.30249e-08
3.60397e-08
3.20648e-08
2.10523e-08
3.27301e-09
6.42236e-10
6.11563e-10
2.1189e-09
1.67437e-08
1.78776e-08
4.52427e-09
6.43442e-10
1.42621e-10
1.11521e-10
8.23761e-11
1.29831e-10
1.47344e-10
7.59787e-11
2.07778e-11
6.10304e-12
3.15785e-12
3.31309e-12
1.69914e-10
5.44137e-08
2.68996e-08
2.00505e-08
1.40406e-08
3.78125e-09
7.44355e-10
5.09427e-10
1.52684e-09
8.41446e-09
1.62995e-08
4.97019e-09
1.10547e-09
1.88775e-10
8.93464e-11
3.77457e-11
1.15866e-11
5.48948e-12
2.87738e-12
3.21807e-12
3.34178e-12
1.90383e-12
1.00508e-12
6.44177e-13
2.67507e-08
9.21917e-09
3.6313e-09
2.0237e-09
1.04444e-09
5.08438e-10
2.33919e-10
1.43272e-10
2.80238e-10
2.39772e-09
9.72782e-10
1.57528e-10
9.38858e-11
5.0974e-11
2.01111e-11
7.84572e-12
3.06855e-12
1.31561e-12
5.62594e-13
2.08628e-13
9.55481e-14
1.08306e-13
1.34332e-13
3.64048e-09
1.62173e-09
2.32934e-10
8.16138e-11
6.76469e-11
8.89888e-11
1.14046e-10
5.12949e-11
3.66509e-11
3.99753e-11
3.46298e-11
3.18353e-11
2.28565e-11
8.03467e-12
2.36777e-12
5.06092e-13
1.15242e-13
3.23327e-14
1.94626e-14
2.61483e-14
5.32449e-14
9.05072e-14
1.05506e-13
1.6544e-10
2.24351e-10
3.81375e-11
1.8929e-11
1.5295e-11
1.766e-11
2.20906e-11
2.98303e-11
2.80033e-11
2.66721e-11
2.19682e-11
1.52064e-11
7.92185e-12
1.95648e-12
1.5329e-13
3.23026e-15
3.31381e-15
6.84831e-15
1.52473e-14
2.87179e-14
4.14896e-14
4.40956e-14
3.33121e-14
1.93664e-11
3.13955e-11
1.57082e-11
9.02111e-12
6.57164e-12
6.38062e-12
7.55361e-12
1.02203e-11
1.08136e-11
1.07909e-11
7.55606e-12
4.78622e-12
2.10765e-12
5.35043e-13
4.29029e-14
4.85447e-16
9.39632e-16
1.97807e-15
3.81116e-15
6.16328e-15
8.09314e-15
8.39013e-15
6.10735e-15
5.51051e-12
8.52263e-12
4.57228e-12
2.93622e-12
2.18831e-12
2.07898e-12
2.54348e-12
3.26503e-12
3.37594e-12
3.04575e-12
2.37782e-12
1.40966e-12
5.6686e-13
1.43718e-13
1.36348e-14
5.43832e-17
1.13592e-16
2.37453e-16
4.49801e-16
7.4248e-16
9.94288e-16
1.03695e-15
8.1294e-16
1.1327e-12
1.61185e-12
8.22117e-13
5.3937e-13
4.05073e-13
4.04777e-13
5.64187e-13
7.72979e-13
8.51052e-13
7.74691e-13
6.24179e-13
3.83746e-13
1.58871e-13
4.11502e-14
4.12474e-15
2.37875e-18
5.40177e-18
1.13871e-17
2.20976e-17
3.9226e-17
6.03312e-17
7.87143e-17
9.15722e-17
7.80979e-14
1.27737e-13
6.55965e-14
4.16044e-14
2.55514e-14
3.1922e-14
6.60404e-14
1.09099e-13
1.29861e-13
1.19897e-13
9.92586e-14
6.55583e-14
2.84622e-14
7.45314e-15
7.24621e-16
1.05665e-19
2.77814e-19
6.7606e-19
1.51677e-18
3.16471e-18
6.08035e-18
1.04476e-17
1.62704e-17
4.09249e-21
1.53889e-19
2.82608e-18
3.03438e-17
2.00127e-16
8.32565e-16
2.2171e-15
3.73368e-15
3.824e-15
2.29432e-15
8.86932e-16
3.00623e-16
5.7745e-17
5.40375e-18
2.24706e-21
7.60639e-21
2.2854e-20
6.22696e-20
1.57321e-19
3.71381e-19
8.12946e-19
1.58871e-18
2.77115e-18
2.31781e-37
2.70112e-35
1.37041e-33
4.00842e-32
7.8987e-31
1.1531e-29
1.30209e-28
1.18179e-27
8.87892e-27
5.71761e-26
3.31169e-25
1.74805e-24
8.46659e-24
3.81902e-23
1.60791e-22
6.16085e-22
2.14674e-21
6.80046e-21
1.97621e-20
5.20992e-20
1.22225e-19
2.48058e-19
4.4926e-19
1.25438e-38
1.11722e-36
4.74519e-35
1.28107e-33
2.49527e-32
3.7344e-31
4.47901e-30
4.42706e-29
3.72035e-28
2.77192e-27
1.83482e-26
1.10061e-25
6.09626e-25
3.05089e-24
1.36587e-23
5.51431e-23
2.03831e-22
6.90163e-22
2.10076e-21
5.71327e-21
1.38913e-20
3.00634e-20
5.92088e-20
1.46726e-40
1.53405e-38
7.51983e-37
2.29393e-35
4.91087e-34
7.93163e-33
1.0249e-31
1.10713e-30
1.04033e-29
8.65118e-29
6.49129e-28
4.49116e-27
2.81538e-26
1.60072e-25
8.15164e-25
3.70623e-24
1.51341e-23
5.50411e-23
1.77439e-22
5.1866e-22
1.3574e-21
3.21849e-21
7.08747e-21
4.31276e-42
4.05875e-40
1.83357e-38
5.32362e-37
1.12685e-35
1.86882e-34
2.55129e-33
2.98647e-32
3.10511e-31
2.95518e-30
2.5787e-29
1.9738e-28
1.32141e-27
7.96172e-27
4.29759e-26
2.0675e-25
8.89542e-25
3.45484e-24
1.22672e-23
3.95418e-23
1.15088e-22
3.07047e-22
7.67023e-22
2.97688e-44
3.09873e-42
1.56339e-40
5.10771e-39
1.23379e-37
2.38043e-36
3.85526e-35
5.40502e-34
6.64928e-33
7.14888e-32
6.70182e-31
5.55371e-30
4.15362e-29
2.75828e-28
1.63484e-27
8.83657e-27
4.3513e-26
1.93997e-25
7.736e-25
2.73673e-24
8.90285e-24
2.70362e-23
7.57116e-23
2.74443e-46
3.19951e-44
1.82032e-42
6.75288e-41
1.84474e-39
3.95814e-38
6.94441e-37
1.02734e-35
1.31266e-34
1.47816e-33
1.50017e-32
1.39608e-31
1.18101e-30
9.0142e-30
6.18071e-29
3.70701e-28
1.95733e-27
9.33607e-27
4.08088e-26
1.65425e-25
6.20413e-25
2.12389e-24
6.57728e-24
1.66724e-48
2.07681e-46
1.26655e-44
5.07605e-43
1.521e-41
3.66903e-40
7.46231e-39
1.31279e-37
2.02318e-36
2.74508e-35
3.26175e-34
3.37909e-33
3.05117e-32
2.44024e-31
1.74943e-30
1.1533e-29
7.07111e-29
3.97529e-28
2.0318e-27
9.37223e-27
3.87969e-26
1.47059e-25
5.09064e-25
9.28677e-51
1.30423e-48
8.98191e-47
4.0797e-45
1.38138e-43
3.72152e-42
8.30266e-41
1.5751e-39
2.58377e-38
3.71049e-37
4.7387e-36
5.47341e-35
5.75891e-34
5.49848e-33
4.7658e-32
3.72047e-31
2.5754e-30
1.5893e-29
8.85857e-29
4.52685e-28
2.13066e-27
9.09307e-27
3.48787e-26
3.19998e-53
5.12305e-51
4.05825e-49
2.13811e-47
8.46017e-46
2.67969e-44
7.05224e-43
1.57832e-41
3.05339e-40
5.17116e-39
7.72245e-38
1.01877e-36
1.19128e-35
1.24059e-34
1.15684e-33
9.73841e-33
7.49945e-32
5.30041e-31
3.42261e-30
1.99728e-29
1.04868e-28
4.98071e-28
2.13494e-27
1.10996e-55
2.03752e-53
1.84084e-51
1.10338e-49
4.94248e-48
1.76408e-46
5.21646e-45
1.31066e-43
2.84528e-42
5.39671e-41
9.01909e-40
1.33941e-38
1.78675e-37
2.15248e-36
2.34503e-35
2.3098e-34
2.05031e-33
1.63603e-32
1.17758e-31
7.69143e-31
4.56049e-30
2.43837e-29
1.17043e-28
2.67837e-58
5.72061e-56
6.03323e-54
4.23277e-52
2.22156e-50
9.27705e-49
3.19747e-47
9.31757e-46
2.33595e-44
5.10786e-43
9.84697e-42
1.68561e-40
2.57012e-39
3.50428e-38
4.29412e-37
4.74691e-36
4.74985e-35
4.31257e-34
3.54871e-33
2.63821e-32
1.76746e-31
1.0651e-30
5.75799e-30
5.28557e-61
1.33393e-58
1.64903e-56
1.35271e-54
8.26985e-53
4.01088e-51
1.60279e-49
5.4095e-48
1.5684e-46
3.95311e-45
8.74325e-44
1.71235e-42
2.99485e-41
4.701e-40
6.63851e-39
8.45038e-38
9.7078e-37
1.00661e-35
9.42518e-35
7.96931e-34
6.07278e-33
4.1542e-32
2.54334e-31
7.9104e-64
2.35702e-61
3.43932e-59
3.32523e-57
2.39114e-55
1.36113e-53
6.36887e-52
2.51036e-50
8.48291e-49
2.49086e-47
6.42098e-46
1.4641e-44
2.96939e-43
5.38327e-42
8.7614e-41
1.28381e-39
1.69672e-38
2.02445e-37
2.17989e-36
2.11516e-35
1.84489e-34
1.44163e-33
1.0064e-32
7.94826e-67
2.90389e-64
5.10482e-62
5.91961e-60
5.08877e-58
3.45552e-56
1.92555e-54
9.01628e-53
3.60718e-51
1.24893e-49
3.78113e-48
1.00969e-46
2.39511e-45
5.07331e-44
9.63132e-43
1.64321e-41
2.52397e-40
3.49292e-39
4.35457e-38
4.88448e-37
4.91712e-36
4.42595e-35
3.55143e-34
5.09276e-70
2.35932e-67
5.08899e-65
7.16381e-63
7.42943e-61
6.06345e-59
4.05488e-57
2.28267e-55
1.10119e-53
4.6029e-52
1.67914e-50
5.37826e-49
1.5218e-47
3.82582e-46
8.58612e-45
1.72627e-43
3.11661e-42
5.05922e-41
7.38457e-40
9.67894e-39
1.13621e-37
1.19008e-36
1.10864e-35
1.72806e-73
1.14871e-70
3.1523e-68
5.46008e-66
6.85141e-64
6.69294e-62
5.34615e-60
3.62054e-58
2.12714e-56
1.09674e-54
4.98098e-53
1.99118e-51
6.99839e-50
2.16464e-48
5.91102e-47
1.43233e-45
3.09552e-44
5.98724e-43
1.0378e-41
1.6111e-40
2.23492e-39
2.75975e-38
3.02282e-37
3.11154e-77
3.69685e-74
1.32765e-71
2.82865e-69
4.30477e-67
5.08712e-65
4.90295e-63
3.99406e-61
2.81709e-59
1.74954e-57
9.66014e-56
4.75755e-54
2.08771e-52
8.14562e-51
2.81653e-49
8.59904e-48
2.31482e-46
5.50355e-45
1.1602e-43
2.17628e-42
3.63334e-41
5.38305e-40
7.05067e-39
7.25939e-81
1.69982e-77
7.86803e-75
2.00978e-72
3.58299e-70
4.90796e-68
5.42174e-66
4.99443e-64
3.93261e-62
2.70706e-60
1.66295e-58
9.25053e-57
4.68915e-55
2.16644e-53
9.0934e-52
3.44811e-50
1.17284e-48
3.55185e-47
9.51012e-46
2.24192e-44
4.64961e-43
8.48422e-42
1.36126e-40
2.24013e-83
4.82795e-80
2.23972e-77
5.70862e-75
1.00621e-72
1.3539e-70
1.46745e-68
1.32518e-66
1.02456e-64
6.93397e-63
4.19211e-61
2.30933e-59
1.17763e-57
5.61546e-56
2.51765e-54
1.06257e-52
4.2038e-51
1.54377e-49
5.19141e-48
1.57426e-46
4.24451e-45
1.00276e-43
2.05708e-42
4.72063e-85
6.18615e-82
2.40101e-79
5.37538e-77
8.40486e-75
1.00698e-72
9.79732e-71
8.02971e-69
5.6914e-67
3.56097e-65
1.99931e-63
1.02272e-61
4.8426e-60
2.15239e-58
9.08398e-57
3.67986e-55
1.44441e-53
5.52629e-52
2.06046e-50
7.41767e-49
2.5305e-47
7.95187e-46
2.19519e-44
6.82962e-87
6.07626e-84
2.0515e-81
4.2155e-79
6.18214e-77
7.02559e-75
6.5203e-73
5.12269e-71
3.49558e-69
2.11235e-67
1.14808e-65
5.68447e-64
2.59517e-62
1.10594e-60
4.44936e-59
1.71055e-57
6.36384e-56
2.32099e-54
8.40455e-53
3.05301e-51
1.1159e-49
4.06887e-48
1.4471e-46
1.70426e-89
1.52898e-86
5.28861e-84
1.11429e-81
1.67018e-79
1.93076e-77
1.80872e-75
1.42227e-73
9.63882e-72
5.74864e-70
3.06974e-68
1.48964e-66
6.65617e-65
2.77565e-63
1.09677e-61
4.1644e-60
1.54001e-58
5.62491e-57
2.0598e-55
7.68174e-54
2.96249e-52
1.19571e-50
5.05112e-49
0.00653862
0.00707376
0.00324531
0.00330698
0.00693595
0.00824826
0.0094427
0.0133095
0.175327
0.0941177
0.081259
0.0805187
0.726125
0.613054
0.50641
0.444417
0.959816
0.941406
0.915109
0.888286
0.93044
0.934371
0.93429
0.933606
0.535558
0.573472
0.599872
0.603853
0.0245552
0.0303313
0.0390736
0.0475224
0.000424431
0.000669884
0.00130836
0.00209736
8.96261e-06
1.56435e-05
2.87854e-05
6.21575e-05
7.86443e-10
4.2363e-09
2.17373e-08
1.00954e-12
5.03519e-13
3.8911e-13
6.96092e-13
1.03998e-12
1.35538e-13
1.72032e-13
2.8439e-13
7.19788e-13
1.07364e-13
1.66281e-13
3.04827e-13
6.17236e-13
1.32148e-14
1.216e-14
1.76834e-14
2.81864e-14
2.183e-15
1.7813e-15
2.05424e-15
2.50418e-15
4.81817e-16
4.68484e-16
5.18753e-16
5.81384e-16
1.03226e-16
1.16529e-16
1.33411e-16
1.48761e-16
2.36267e-17
2.77939e-17
3.18699e-17
3.53447e-17
4.43144e-18
5.42342e-18
6.3936e-18
7.29837e-18
7.55265e-19
9.54915e-19
1.16241e-18
1.37793e-18
1.08845e-19
1.46001e-19
1.88067e-19
2.34315e-19
1.45341e-20
2.07856e-20
2.83492e-20
3.69082e-20
1.75893e-21
2.66989e-21
3.83804e-21
5.21299e-21
1.90973e-22
3.05627e-22
4.61909e-22
6.5852e-22
1.83594e-23
3.12893e-23
5.00749e-23
7.51815e-23
1.56964e-24
2.85928e-24
4.87218e-24
7.75145e-24
1.19613e-25
2.349e-25
4.29562e-25
7.30885e-25
8.17301e-27
1.74155e-26
3.4435e-26
6.30772e-26
5.02627e-28
1.16998e-27
2.51817e-27
5.00685e-27
2.7869e-29
7.13253e-29
1.68353e-28
3.67028e-28
1.39479e-30
3.95143e-30
1.03073e-29
2.49625e-29
6.29338e-32
1.98886e-31
5.78548e-31
1.58499e-30
2.55117e-33
9.07243e-33
2.97404e-32
9.43116e-32
9.23318e-35
3.73394e-34
1.39568e-33
5.25288e-33
2.95243e-36
1.37414e-35
5.92986e-35
2.69977e-34
8.20061e-38
4.46195e-37
2.25351e-36
1.25312e-35
1.92524e-39
1.24929e-38
7.49117e-38
5.03157e-37
3.65828e-41
2.92114e-40
2.13807e-39
1.77998e-38
5.14134e-43
5.2716e-42
4.82673e-41
4.5606e-40
4.7789e-45
6.86442e-44
8.7707e-43
1.19644e-41
2.16868e-47
4.15813e-46
7.17668e-45
1.09912e-43
0.000722977
9.84379e-05
1.96211e-05
1.53058e-05
9.51927e-06
6.2336e-06
2.21984e-05
6.72035e-05
0.000397162
0.00225793
0.00415134
0.00378714
0.00186296
0.000163251
6.00331e-07
7.07678e-08
9.37621e-09
9.34915e-10
1.069e-10
0.0114326
0.00522675
0.00138329
0.000859502
0.00064915
0.000481816
0.00121277
0.00260207
0.00585203
0.00894991
0.00890117
0.00703338
0.0021683
7.90891e-05
1.09636e-07
1.06903e-08
4.28815e-09
8.4289e-10
1.41324e-10
0.0840843
0.0668826
0.0352003
0.015277
0.00578986
0.00589062
0.00829069
0.0143105
0.0211419
0.0207612
0.0190903
0.0101505
0.00121
1.50595e-05
4.46077e-09
2.63231e-09
2.02987e-09
8.13481e-10
2.02404e-10
0.423967
0.346685
0.255032
0.163488
0.076018
0.0597025
0.0676872
0.0761008
0.0633626
0.0436129
0.0286844
0.00693702
0.000253302
1.15047e-06
1.32892e-10
7.17235e-10
1.15697e-09
7.95133e-10
3.03945e-10
0.855582
0.78941
0.682047
0.536028
0.374406
0.293287
0.243126
0.18304
0.107999
0.0640684
0.0272866
0.00240457
2.26678e-05
5.61584e-08
4.91962e-11
4.3559e-10
8.10717e-10
7.63568e-10
3.69839e-10
0.927581
0.911055
0.864833
0.775007
0.671461
0.558747
0.400186
0.249316
0.133421
0.0781284
0.0137648
0.000369366
9.86494e-07
6.18554e-09
2.48746e-11
2.63714e-10
6.0763e-10
7.13829e-10
3.78136e-10
0.641954
0.748916
0.803666
0.790934
0.736507
0.639744
0.442021
0.24057
0.154507
0.0403923
0.00207172
9.17645e-06
1.4763e-08
1.36095e-09
2.58274e-11
5.39737e-11
3.23687e-10
6.64579e-10
3.75558e-10
0.10546
0.302533
0.578105
0.683733
0.662661
0.546605
0.342877
0.194876
0.0571284
0.00459942
4.73004e-05
1.91778e-08
5.32669e-09
1.92034e-10
1.84838e-11
4.49725e-12
1.10679e-10
5.78114e-10
3.66786e-10
0.0156152
0.11317
0.321488
0.45472
0.430167
0.295926
0.179505
0.0561863
0.00490348
5.02869e-05
4.97224e-08
3.95894e-09
1.46443e-09
1.16336e-11
6.72159e-12
3.5957e-12
3.5829e-11
4.84685e-10
3.44985e-10
0.00177736
0.028065
0.0961423
0.132155
0.121961
0.0756957
0.0229253
0.00176717
1.67228e-05
2.57944e-08
7.25097e-09
8.72674e-10
2.9771e-10
5.23082e-12
4.29934e-12
2.93228e-12
7.16962e-12
3.7945e-10
3.11528e-10
1.00489e-05
0.000575956
0.00394283
0.00645337
0.00556524
0.0020927
0.000125011
6.43442e-07
6.9977e-08
3.71375e-09
1.1246e-09
1.84426e-10
4.54283e-11
2.80685e-12
2.97173e-12
2.28866e-12
3.22387e-12
2.47746e-10
2.75724e-10
1.39994e-08
1.98879e-07
1.80841e-06
6.12192e-06
3.94973e-06
3.14853e-07
2.13262e-08
5.66648e-08
8.19914e-09
5.81177e-10
1.85613e-10
3.28955e-11
6.06731e-12
1.18965e-12
2.02868e-12
1.68411e-12
2.09958e-12
1.44614e-10
2.40651e-10
2.99432e-12
2.07832e-11
1.41015e-10
3.41733e-10
1.43119e-09
4.45798e-09
7.38024e-10
2.71542e-09
8.75883e-10
8.80051e-11
2.9374e-11
4.61026e-12
7.80846e-13
4.5581e-13
1.21306e-12
1.14884e-12
1.4435e-12
9.60297e-11
2.09089e-10
1.39609e-12
4.06733e-12
1.52408e-11
5.54275e-11
1.1523e-10
1.43891e-10
8.52596e-11
1.65781e-10
8.45495e-11
1.16934e-11
4.01589e-12
5.96153e-13
1.10111e-13
1.7631e-13
6.00149e-13
7.26505e-13
1.02872e-12
8.05316e-11
1.81907e-10
5.26421e-14
1.76078e-13
5.58296e-13
1.47046e-12
4.0566e-12
6.36211e-12
5.48079e-12
7.8246e-12
6.83404e-12
1.28497e-12
4.56713e-13
6.89194e-14
3.00301e-14
8.03054e-14
2.71747e-13
4.40759e-13
7.87046e-13
6.88524e-11
1.56161e-10
3.12197e-15
5.09754e-15
9.70936e-15
2.16214e-14
6.01722e-14
2.00605e-13
3.326e-13
3.59039e-13
4.5911e-13
1.13873e-13
4.31452e-14
1.17565e-14
1.95895e-14
5.32176e-14
1.5447e-13
2.91314e-13
6.58688e-13
4.81245e-11
1.29843e-10
6.42257e-16
7.47138e-16
7.92166e-16
8.39919e-16
1.41028e-15
5.15186e-15
1.33597e-14
1.45723e-14
2.5051e-14
8.44074e-15
4.70704e-15
5.97701e-15
1.71845e-14
4.57748e-14
1.29634e-13
2.35842e-13
5.90664e-13
1.79957e-11
1.03693e-10
1.61343e-16
1.78916e-16
1.75836e-16
1.57094e-16
1.42299e-16
1.87124e-16
4.69758e-16
5.70589e-16
1.19764e-15
8.50543e-16
1.59618e-15
4.72882e-15
1.54892e-14
4.26491e-14
1.2701e-13
2.30352e-13
5.57906e-13
9.16741e-12
8.08929e-11
3.82004e-17
4.2255e-17
4.14901e-17
3.71782e-17
3.04334e-17
2.49735e-17
2.94032e-17
4.37079e-17
1.18452e-16
3.21851e-16
1.10845e-15
3.809e-15
1.35464e-14
4.00134e-14
1.26444e-13
2.47968e-13
5.30423e-13
4.94704e-12
6.17363e-11
8.14168e-18
9.57062e-18
9.83914e-18
9.04189e-18
7.38655e-18
5.62403e-18
6.45506e-18
1.45281e-17
5.39618e-17
2.14311e-16
8.2948e-16
3.02679e-15
1.17007e-14
3.77767e-14
1.25948e-13
2.69462e-13
4.98167e-13
3.12828e-12
4.32561e-11
1.59471e-18
1.99365e-18
2.15515e-18
2.04212e-18
1.72724e-18
1.44406e-18
2.28052e-18
7.78825e-18
3.43852e-17
1.49279e-16
6.22759e-16
2.42303e-15
1.01028e-14
3.59682e-14
1.21675e-13
2.85205e-13
4.65767e-13
2.30647e-12
2.23072e-11
2.82963e-19
3.79738e-19
4.30596e-19
4.24806e-19
3.84468e-19
4.00169e-19
9.91386e-19
4.55317e-18
2.22829e-17
1.04344e-16
4.70509e-16
1.99523e-15
8.89133e-15
3.47693e-14
1.18326e-13
2.91346e-13
4.48088e-13
1.87913e-12
1.25632e-11
4.61088e-20
6.55494e-20
7.82776e-20
8.18644e-20
8.35321e-20
1.26901e-19
4.91946e-19
2.69618e-18
1.43638e-17
7.26944e-17
3.56857e-16
1.69576e-15
8.11094e-15
3.41009e-14
1.17868e-13
2.97165e-13
4.62005e-13
1.59169e-12
1.01775e-11
6.73862e-21
1.02086e-20
1.30439e-20
1.48132e-20
1.86092e-20
4.75627e-20
2.57085e-19
1.5728e-18
9.13259e-18
5.01029e-17
2.70371e-16
1.47344e-15
7.66483e-15
3.39473e-14
1.20321e-13
3.15546e-13
5.28525e-13
1.52403e-12
9.00434e-12
8.88408e-22
1.4488e-21
2.0076e-21
2.57952e-21
4.60086e-21
1.98741e-20
1.32724e-19
8.86998e-19
5.62775e-18
3.3839e-17
2.06266e-16
1.27743e-15
7.28443e-15
3.40588e-14
1.24017e-13
3.41762e-13
6.47301e-13
1.68292e-12
8.73916e-12
1.06099e-22
1.88146e-22
2.88055e-22
4.5317e-22
1.33874e-21
8.64271e-21
6.62423e-20
4.80967e-19
3.3225e-18
2.20649e-17
1.60171e-16
1.09405e-15
6.79641e-15
3.4192e-14
1.28214e-13
3.7016e-13
7.98092e-13
1.94534e-12
8.34284e-12
1.15703e-23
2.25586e-23
3.94073e-23
8.70635e-23
4.47413e-22
3.75539e-21
3.21796e-20
2.56038e-19
1.94894e-18
1.54618e-17
1.27134e-16
9.31545e-16
6.14981e-15
3.18978e-14
1.23548e-13
3.7519e-13
8.76796e-13
2.03584e-12
7.77691e-12
1.16024e-24
2.52255e-24
5.37945e-24
1.96018e-23
1.58902e-22
1.58724e-21
1.5094e-20
1.33957e-19
1.23083e-18
1.15306e-17
1.03699e-16
8.00301e-16
5.44352e-15
2.80801e-14
1.09043e-13
3.27228e-13
8.15107e-13
1.98858e-12
7.11447e-12
1.07567e-25
2.68252e-25
7.90137e-25
5.10786e-24
5.64104e-23
6.46313e-22
6.90395e-21
7.50317e-20
8.4729e-19
9.02728e-18
8.76923e-17
7.14964e-16
4.88607e-15
2.46514e-14
9.32255e-14
2.57549e-13
6.41284e-13
1.8608e-12
6.42955e-12
9.29615e-27
2.81399e-26
1.33543e-25
1.41753e-24
1.93123e-23
2.53254e-22
3.3164e-21
4.59533e-20
6.05473e-19
7.21844e-18
7.58818e-17
6.59012e-16
4.60104e-15
2.29993e-14
8.28398e-14
2.05018e-13
4.36619e-13
1.65536e-12
5.7128e-12
7.59747e-28
3.08471e-27
2.56982e-26
3.88896e-25
6.29014e-24
9.96435e-23
1.72217e-21
2.83699e-20
4.29854e-19
5.78229e-18
6.64439e-17
6.18104e-16
4.45276e-15
2.26912e-14
7.96756e-14
1.83273e-13
3.24401e-13
1.39842e-12
4.92978e-12
5.99879e-29
3.69778e-28
5.16105e-27
1.0047e-25
1.92508e-24
4.13758e-23
8.69035e-22
1.6977e-20
2.97995e-19
4.56319e-18
5.81899e-17
5.86928e-16
4.41801e-15
2.30574e-14
8.02231e-14
1.78422e-13
2.89696e-13
1.17442e-12
4.06958e-12
4.70072e-30
4.7804e-29
9.95024e-28
2.38499e-26
5.99657e-25
1.61963e-23
4.13021e-22
9.6555e-21
1.99381e-19
3.49983e-18
5.00849e-17
5.53747e-16
4.43094e-15
2.39303e-14
8.32519e-14
1.81928e-13
2.82689e-13
9.50131e-13
3.14224e-12
3.70253e-31
6.17525e-30
1.74019e-28
5.08691e-27
1.72156e-25
5.74323e-24
1.79771e-22
5.08144e-21
1.25308e-19
2.57685e-18
4.20531e-17
5.15159e-16
4.44945e-15
2.53087e-14
8.92524e-14
1.92965e-13
2.87458e-13
7.21555e-13
2.2382e-12
2.87132e-32
7.35949e-31
2.67354e-29
1.00166e-27
4.30033e-26
1.78523e-24
6.93049e-23
2.41169e-21
7.20343e-20
1.76465e-18
3.36755e-17
4.69821e-16
4.48131e-15
2.72192e-14
9.9406e-14
2.15765e-13
3.08304e-13
5.61919e-13
1.56347e-12
2.07905e-33
7.63436e-32
3.50784e-30
1.67678e-28
9.01649e-27
4.69052e-25
2.26992e-23
9.83313e-22
3.6421e-20
1.09172e-18
2.49456e-17
4.04721e-16
4.35083e-15
2.88266e-14
1.11535e-13
2.52161e-13
3.54569e-13
4.98171e-13
1.15791e-12
1.34052e-34
6.77043e-33
3.9504e-31
2.3322e-29
1.55984e-27
1.02063e-25
6.22306e-24
3.3962e-22
1.57731e-20
5.88155e-19
1.64784e-17
3.20208e-16
3.98701e-15
2.95398e-14
1.23751e-13
3.01408e-13
4.28211e-13
4.98569e-13
9.44237e-13
7.11408e-36
4.81631e-34
3.62186e-32
2.54105e-30
2.07187e-28
1.6787e-26
1.29121e-24
8.98314e-23
5.34981e-21
2.55881e-19
9.10724e-18
2.21122e-16
3.34031e-15
2.87377e-14
1.33359e-13
3.50485e-13
5.22214e-13
5.34956e-13
8.42887e-13
3.46807e-37
3.27093e-35
3.28947e-33
3.01404e-31
2.61458e-29
2.54071e-27
2.38666e-25
2.06062e-23
1.55188e-21
9.51429e-20
4.37846e-18
1.36599e-16
2.56921e-15
2.62797e-14
1.37693e-13
3.89711e-13
6.25188e-13
5.81543e-13
8.09616e-13
9.33069e-39
1.12539e-36
1.53872e-34
1.90357e-32
2.10905e-30
2.12986e-28
2.37533e-26
2.62856e-24
2.64319e-22
2.23582e-20
1.45825e-18
6.45616e-17
1.67032e-15
2.19941e-14
1.34969e-13
4.0173e-13
6.69842e-13
6.25301e-13
8.2194e-13
4.27028e-40
8.37657e-38
1.6547e-35
2.84067e-33
4.29653e-31
5.83209e-29
7.24329e-27
8.36629e-25
9.09381e-23
9.11622e-21
7.5876e-19
4.26372e-17
1.30302e-15
1.8672e-14
1.19508e-13
3.76077e-13
6.56039e-13
6.98549e-13
8.45974e-13
1.81877e-42
1.97688e-40
5.14634e-38
1.32911e-35
3.00644e-33
6.00568e-31
1.07366e-28
1.73957e-26
2.55377e-24
3.3235e-22
3.57697e-20
2.8152e-18
1.37785e-16
3.55039e-15
4.20599e-14
2.16867e-13
5.42327e-13
7.49224e-13
8.66714e-13
)
;

boundaryField
{
    leftWall
    {
        type            zeroGradient;
    }
    rightWall
    {
        type            zeroGradient;
    }
    lowerWall
    {
        type            zeroGradient;
    }
    atmosphere
    {
        type            inletOutlet;
        inletValue      uniform 0;
        value           nonuniform List<scalar> 
46
(
0
0
0
0
0
0
0
0
0
0
0
0
0
0
0
0
0
0
0
0
0
0
0
0
0
0
0
0
0
0
0
0
0
0
0
0
0
0
0
0
0
0
0
5.42327e-13
7.49224e-13
8.66714e-13
)
;
    }
    defaultFaces
    {
        type            empty;
    }
}


// ************************************************************************* //
