/*--------------------------------*- C++ -*----------------------------------*\
| =========                 |                                                 |
| \\      /  F ield         | OpenFOAM: The Open Source CFD Toolbox           |
|  \\    /   O peration     | Version:  2.4.0                                 |
|   \\  /    A nd           | Web:      www.OpenFOAM.org                      |
|    \\/     M anipulation  |                                                 |
\*---------------------------------------------------------------------------*/
FoamFile
{
    version     2.0;
    format      ascii;
    class       volScalarField;
    location    "0.4";
    object      alpha.mercury;
}
// * * * * * * * * * * * * * * * * * * * * * * * * * * * * * * * * * * * * * //

dimensions      [0 0 0 0 0 0 0];

internalField   nonuniform List<scalar> 
2268
(
1
1
1
1
1
1
1
1
1
1
1
1
1
1
1
1
1
1
1
1
1
0.999997
0.999973
1
1
1
1
1
1
1
1
1
1
1
1
1
1
1
1
1
1
1
1
1
0.999997
0.99997
1
1
1
1
1
1
1
1
1
1
1
1
1
1
1
1
1
1
1
1
1
0.999997
0.999969
1
1
1
1
1
0.999999
0.999999
0.999999
0.999998
0.999994
0.999986
0.999979
0.99996
0.99994
0.999897
0.999936
0.999969
0.999986
0.999994
0.999998
0.999999
0.999996
0.999965
0.999831
0.999816
0.999815
0.999665
0.999752
0.9995
0.999237
0.99909
0.998318
0.996956
0.994337
0.99176
0.986798
0.981139
0.972359
0.97986
0.992541
0.998544
0.999832
0.999981
0.999997
0.999995
0.99996
0.976907
0.975633
0.974883
0.966214
0.968169
0.954641
0.939371
0.926729
0.896013
0.853203
0.790459
0.733101
0.656915
0.56979
0.47915
0.417871
0.481511
0.68864
0.929557
0.994725
0.999838
0.999989
0.999956
0.630992
0.621496
0.610916
0.565972
0.555715
0.492712
0.423785
0.365427
0.282915
0.199749
0.121741
0.0698681
0.0332822
0.0123752
0.00328776
0.000440199
0.00694079
0.074786
0.434624
0.90439
0.995852
0.99992
0.999943
0.0828925
0.0784493
0.0719853
0.0578917
0.0494639
0.0335842
0.0204289
0.0114877
0.0051143
0.00196347
0.000639686
0.000213589
8.36395e-05
3.8083e-05
1.79611e-05
1.61529e-05
1.61593e-05
0.000752238
0.0503423
0.528617
0.954314
0.999123
0.999942
0.000342239
0.000342469
0.000342698
0.000342929
0.000461998
0.00122016
0.00537519
0.0209351
0.0583452
0.106005
0.114911
0.11491
0.115588
0.115588
0.116259
0.116015
0.116045
0.115069
0.114029
0.000342015
0.000185038
9.75184e-05
4.71569e-05
3.7352e-05
3.69113e-05
3.36512e-05
6.02769e-05
0.000343092
0.00389117
0.0377265
0.113243
0.114945
0.116258
0.115588
0.116691
0.115403
0.110126
0.0986121
0.000198739
3.51085e-05
2.1746e-05
2.75049e-05
2.88526e-05
2.56995e-05
2.28028e-05
6.67426e-05
0.000271338
0.00309342
0.0163802
0.0400814
0.0912345
0.11519
0.11693
0.115648
0.0884629
0.0315669
0.0211693
7.24641e-05
1.71008e-05
1.69246e-05
1.27984e-05
1.02621e-05
7.50363e-06
5.99718e-06
1.15044e-05
0.00020105
0.0046312
0.023857
0.0406111
0.0512748
0.0558505
0.0583387
0.0392592
0.012721
0.00230543
0.00112986
6.25541e-05
1.72163e-05
1.30839e-05
4.81887e-06
2.58095e-06
1.53606e-06
7.29813e-07
1.31444e-06
9.88882e-05
0.00504522
0.0307598
0.0490021
0.0545149
0.0469097
0.0258391
0.00568925
0.000555358
0.000357644
0.000263899
4.76601e-05
1.60286e-05
9.42199e-06
1.45693e-06
2.33687e-07
8.63339e-09
5.71167e-09
1.19838e-07
5.27064e-05
0.00710688
0.0368335
0.0550417
0.0571469
0.0462785
0.0198059
0.0019838
0.000124336
0.000115087
6.34714e-05
3.00112e-05
1.56646e-05
7.75143e-06
1.21194e-06
1.84093e-08
5.7209e-09
5.70723e-09
7.55753e-08
4.92594e-05
0.0131065
0.046877
0.0587206
0.0589778
0.0461451
0.0106545
0.000686322
8.92394e-05
9.19896e-05
3.378e-05
0.000657083
1.46099e-05
5.83238e-09
5.73134e-09
5.72844e-09
5.72405e-09
1.68561e-08
1.6739e-08
0.000774652
0.032321
0.0578287
0.061509
0.0607227
0.0257735
0.00144319
8.1388e-05
7.02259e-05
8.48501e-05
2.40782e-05
0.0044987
0.00423536
0.00379546
0.00315743
0.00252665
0.00174084
0.00110609
0.000633263
0.000320093
0.000155947
7.59245e-05
3.93013e-05
2.46685e-05
1.69828e-05
1.70752e-05
1.61464e-05
1.63453e-05
3.38978e-05
0.00273571
0.0939003
0.645732
0.955824
0.997852
1.52127e-05
1.44825e-05
1.336e-05
1.18659e-05
1.00701e-05
7.95419e-06
6.34063e-06
4.53809e-06
3.1687e-06
2.39812e-06
1.98462e-06
1.82291e-06
1.79089e-06
1.71756e-06
1.92149e-06
2.25708e-06
4.86414e-06
6.21251e-06
1.95544e-05
0.00242209
0.140182
0.632097
0.924794
7.76488e-07
7.53253e-07
7.28729e-07
6.94994e-07
6.52553e-07
5.84871e-07
5.68206e-07
4.86351e-07
4.47916e-07
4.06924e-07
3.55948e-07
3.06864e-07
2.83945e-07
2.4622e-07
2.60719e-07
2.99279e-07
5.52514e-07
8.07306e-07
1.00579e-06
5.37229e-05
0.00951926
0.156008
0.550472
6.36263e-08
6.16079e-08
6.01251e-08
5.77605e-08
5.46098e-08
4.83856e-08
4.42232e-08
3.53624e-08
2.7825e-08
2.13483e-08
1.68447e-08
1.42888e-08
1.32102e-08
1.1288e-08
1.26184e-08
1.53073e-08
4.50567e-08
6.2631e-08
7.35576e-08
1.18361e-06
0.000279413
0.0137724
0.117436
3.62514e-10
3.44152e-10
3.23423e-10
3.07045e-10
2.9787e-10
2.78978e-10
2.71901e-10
2.27553e-10
1.8038e-10
1.21437e-10
8.48979e-11
7.51354e-11
7.15104e-11
6.90392e-11
7.68275e-11
9.68422e-11
1.78322e-10
5.36564e-10
1.19251e-09
6.04e-08
1.52527e-05
0.00147313
0.00927716
7.56843e-14
2.29698e-14
1.4169e-14
1.36216e-14
1.32891e-14
1.30683e-14
1.24404e-14
1.06212e-14
8.56125e-15
6.6212e-15
6.5346e-15
7.41307e-15
9.09774e-15
1.16244e-14
1.62348e-14
2.67865e-14
1.27433e-13
5.13394e-13
2.32242e-12
1.14871e-09
9.33648e-07
7.88555e-05
0.0018966
5.18023e-32
1.03021e-30
2.69017e-29
6.35593e-28
1.28747e-26
2.01662e-25
1.53643e-24
1.23767e-20
7.82804e-19
8.35599e-18
4.31049e-17
2.15338e-16
1.10628e-15
5.60958e-15
2.62217e-14
1.13057e-13
4.50913e-13
1.77872e-12
2.49313e-11
2.86215e-10
1.27019e-07
4.06639e-06
7.03242e-05
2.81278e-31
1.24815e-29
4.24578e-28
9.8912e-27
1.87453e-25
2.81794e-24
2.06246e-23
1.56694e-19
6.73914e-18
4.74367e-17
2.33843e-16
1.07635e-15
4.77177e-15
2.16747e-14
9.67979e-14
4.1803e-13
1.67054e-12
6.06444e-12
1.9106e-11
2.75039e-11
3.39182e-08
7.84419e-07
4.08816e-06
3.05306e-30
1.85127e-28
6.03973e-27
1.27783e-25
2.14658e-24
3.26072e-23
2.98989e-22
1.40028e-20
8.51584e-19
4.52753e-18
1.14811e-17
3.55699e-17
1.23059e-16
4.84086e-16
2.12223e-15
1.00546e-14
4.27288e-14
1.74446e-13
5.54948e-13
9.24013e-13
5.05268e-11
5.1323e-08
3.63642e-07
2.87795e-29
1.76732e-27
5.50858e-26
1.12275e-24
1.67696e-23
1.88997e-22
1.60706e-21
1.22296e-20
2.55114e-19
1.04804e-19
1.24194e-20
9.91758e-22
1.41012e-22
3.55213e-22
1.2572e-21
2.70122e-21
3.53286e-21
2.4655e-20
2.47743e-19
4.2546e-15
4.49492e-14
1.18843e-10
5.91531e-09
2.21213e-31
1.86251e-30
1.00077e-29
5.16683e-29
3.25468e-28
4.55115e-27
2.52368e-25
1.7102e-23
8.60315e-21
2.66842e-22
2.35251e-24
1.84979e-23
2.11541e-22
1.31687e-21
5.82301e-21
2.0806e-20
6.89802e-20
3.26393e-19
1.29294e-18
5.30755e-18
3.18972e-17
1.77477e-15
2.18382e-14
1.61116e-32
1.47703e-31
8.50179e-31
5.43072e-30
5.00762e-29
5.25066e-28
1.34712e-26
8.09256e-25
6.43812e-23
1.88965e-23
3.37305e-24
4.09325e-23
5.03141e-22
3.64612e-21
1.90702e-20
8.1615e-20
3.09479e-19
1.45854e-18
6.4316e-18
2.59078e-17
2.36628e-16
2.23457e-15
8.5159e-15
1.2415e-34
1.08551e-33
1.191e-32
5.08308e-31
1.69865e-29
2.93885e-28
2.68862e-27
1.42738e-26
5.0776e-26
2.68916e-25
6.81536e-24
1.17006e-22
1.36818e-21
1.0338e-20
6.23313e-20
3.29924e-19
1.53343e-18
6.72961e-18
2.46799e-17
8.14144e-17
4.73529e-16
4.93887e-15
2.19246e-14
2.16717e-37
2.58815e-36
5.91269e-35
7.09472e-33
2.5515e-30
1.66559e-28
2.77052e-27
2.39299e-26
1.38981e-25
1.04485e-24
1.94124e-23
3.14635e-22
3.54287e-21
2.67994e-20
1.76446e-19
1.05968e-18
5.63251e-18
2.64449e-17
1.01445e-16
3.15853e-16
1.10605e-15
7.45402e-15
2.90844e-14
7.73312e-40
3.94454e-37
8.98744e-35
1.45995e-32
2.53455e-30
1.96534e-28
3.8999e-27
4.23223e-26
3.48263e-25
3.02148e-24
4.91807e-23
7.77038e-22
8.4517e-21
6.29185e-20
4.05164e-19
2.42798e-18
1.30817e-17
6.04044e-17
2.29869e-16
7.00978e-16
1.78903e-15
4.30395e-15
1.12006e-14
2.18306e-39
1.35796e-36
3.26415e-34
4.4734e-32
4.66415e-30
1.93195e-28
3.90111e-27
5.29438e-26
6.12048e-25
7.16145e-24
1.12254e-22
1.28726e-21
9.9295e-21
5.61981e-20
2.6164e-19
1.04096e-18
3.63792e-18
1.13915e-17
3.31852e-17
9.22723e-17
2.56128e-16
7.59071e-16
2.33066e-15
7.51558e-39
4.32066e-36
1.15621e-33
1.23715e-31
5.68727e-30
1.50917e-28
2.75228e-27
3.98334e-26
5.18366e-25
6.45031e-24
7.97744e-23
6.95241e-22
4.29582e-21
2.04118e-20
7.90928e-20
2.60446e-19
7.67915e-19
2.09875e-18
5.58582e-18
1.47497e-17
3.80743e-17
9.74132e-17
2.48388e-16
2.36928e-38
1.10442e-35
1.26778e-33
6.64649e-32
2.09985e-30
4.58217e-29
7.729e-28
1.12564e-26
1.50424e-25
1.71551e-24
1.6517e-23
1.18754e-22
6.41501e-22
2.72437e-21
8.99088e-21
2.44674e-20
6.07589e-20
1.45348e-19
3.4276e-19
8.21653e-19
2.00635e-18
4.98511e-18
1.24134e-17
1.55302e-38
2.44719e-36
1.63354e-34
6.7494e-33
1.97165e-31
4.24821e-30
7.31197e-29
1.03899e-27
1.23138e-26
1.19779e-25
9.3914e-25
5.96793e-24
3.23399e-23
1.46202e-22
5.57855e-22
1.91496e-21
5.97843e-21
1.7391e-20
4.74589e-20
1.23559e-19
3.06447e-19
6.9893e-19
1.45537e-18
1.14101e-39
1.45449e-37
9.69437e-36
4.23816e-34
1.26204e-32
2.72592e-31
4.4776e-30
5.81196e-29
6.03423e-28
5.14315e-27
3.8055e-26
2.56234e-25
1.55104e-24
8.18608e-24
3.8304e-23
1.58541e-22
5.6937e-22
1.82841e-21
5.41084e-21
1.49317e-20
3.83436e-20
8.87662e-20
1.85428e-19
3.83186e-41
6.35993e-39
4.51879e-37
1.85925e-35
5.22101e-34
1.10376e-32
1.83095e-31
2.46536e-30
2.75539e-29
2.61864e-28
2.18569e-27
1.6015e-26
1.03034e-25
5.90167e-25
3.0334e-24
1.37856e-23
5.60075e-23
2.04752e-22
6.82551e-22
2.05948e-21
5.54865e-21
1.30741e-20
2.78526e-20
2.54157e-42
3.23698e-40
1.97922e-38
7.84179e-37
2.27805e-35
5.14199e-34
9.33895e-33
1.38767e-31
1.71751e-30
1.82026e-29
1.6338e-28
1.26432e-27
8.62553e-27
5.12608e-26
2.6577e-25
1.22475e-24
5.13572e-24
1.97035e-23
6.80587e-23
2.11064e-22
5.90638e-22
1.49484e-21
3.4943e-21
3.84953e-44
5.97669e-42
4.32004e-40
1.95579e-38
6.22771e-37
1.49358e-35
2.84228e-34
4.43974e-33
5.85481e-32
6.55733e-31
6.32749e-30
5.38011e-29
3.99574e-28
2.62874e-27
1.52646e-26
7.85663e-26
3.62586e-25
1.49431e-24
5.49551e-24
1.84987e-23
5.63812e-23
1.57917e-22
4.15241e-22
1.92174e-45
2.59302e-43
1.67603e-41
7.00647e-40
2.13685e-38
5.0691e-37
9.72551e-36
1.55542e-34
2.1306e-33
2.56618e-32
2.72487e-31
2.45569e-30
1.89325e-29
1.29588e-28
7.89318e-28
4.28098e-27
2.08288e-26
9.20983e-26
3.75822e-25
1.40489e-24
4.79297e-24
1.51501e-23
4.50546e-23
1.81081e-47
2.72941e-45
1.96903e-43
9.146e-42
3.10392e-40
8.25348e-39
1.79378e-37
3.26766e-36
5.04659e-35
6.59459e-34
7.31878e-33
7.04652e-32
6.04194e-31
4.55824e-30
3.05801e-29
1.87156e-28
1.04716e-27
5.33612e-27
2.44816e-26
1.00328e-25
3.80839e-25
1.35729e-24
4.47052e-24
2.65551e-49
4.34234e-47
3.40453e-45
1.71893e-43
6.27789e-42
1.76098e-40
3.93827e-39
7.23674e-38
1.1205e-36
1.49587e-35
1.76793e-34
1.89019e-33
1.81925e-32
1.5714e-31
1.21686e-30
8.24662e-30
4.93756e-29
2.68426e-28
1.34492e-27
6.28342e-27
2.72593e-26
1.08307e-25
3.90696e-25
2.24967e-51
3.79374e-49
3.07823e-47
1.62212e-45
6.29446e-44
1.93066e-42
4.88887e-41
1.04689e-39
1.92145e-38
3.04614e-37
4.16466e-36
4.90976e-35
5.011e-34
4.51683e-33
3.65008e-32
2.71915e-31
1.88888e-30
1.20593e-29
7.01825e-29
3.69541e-28
1.75105e-27
7.62948e-27
3.05418e-26
1.81554e-53
3.3674e-51
3.00083e-49
1.73602e-47
7.34931e-46
2.42649e-44
6.504e-43
1.45566e-41
2.77335e-40
4.56902e-39
6.63533e-38
8.66491e-37
1.02694e-35
1.10196e-34
1.07249e-33
9.39974e-33
7.30827e-32
5.07422e-31
3.19076e-30
1.84605e-29
9.87861e-29
4.81564e-28
2.12439e-27
8.62952e-56
1.7773e-53
1.77348e-51
1.15778e-49
5.57704e-48
2.11254e-46
6.53772e-45
1.69497e-43
3.75109e-42
7.195e-41
1.20769e-39
1.78098e-38
2.32019e-37
2.68775e-36
2.7875e-35
2.61291e-34
2.24575e-33
1.7761e-32
1.28685e-31
8.4503e-31
5.0112e-30
2.70342e-29
1.32732e-28
4.22182e-58
9.63016e-56
1.05877e-53
7.59994e-52
4.01328e-50
1.66415e-48
5.64363e-47
1.60859e-45
3.9269e-44
8.32023e-43
1.54605e-41
2.54551e-40
3.75923e-39
5.0117e-38
6.0448e-37
6.59788e-36
6.49841e-35
5.76388e-34
4.62369e-33
3.37824e-32
2.25158e-31
1.36172e-30
7.45959e-30
1.35152e-60
3.48296e-58
4.34795e-56
3.56024e-54
2.1525e-52
1.02343e-50
3.97653e-49
1.29576e-47
3.60966e-46
8.72954e-45
1.85522e-43
3.49384e-42
5.85447e-41
8.77076e-40
1.18164e-38
1.43806e-37
1.58735e-36
1.59403e-35
1.45537e-34
1.20507e-33
9.03609e-33
6.13553e-32
3.77282e-31
3.4337e-63
1.01582e-60
1.44819e-58
1.3544e-56
9.3453e-55
5.07162e-53
2.25172e-51
8.39583e-50
2.67761e-48
7.39995e-47
1.79079e-45
3.83311e-44
7.32501e-43
1.25685e-41
1.94209e-40
2.70929e-39
3.41808e-38
3.90251e-37
4.03665e-36
3.78617e-35
3.2174e-34
2.47144e-33
1.71569e-32
6.31975e-66
2.15613e-63
3.55515e-61
3.85002e-59
3.07772e-57
1.93542e-55
9.95349e-54
4.29473e-52
1.58388e-50
5.06518e-49
1.42023e-47
3.52039e-46
7.76218e-45
1.53093e-43
2.7141e-42
4.33996e-41
6.27393e-40
8.21185e-39
9.73397e-38
1.04417e-36
1.01228e-35
8.85415e-35
6.988e-34
7.49304e-69
3.08255e-66
6.03314e-64
7.73584e-62
7.3114e-60
5.43316e-58
3.3008e-56
1.68011e-54
7.29076e-53
2.73403e-51
8.95793e-50
2.58841e-48
6.647e-47
1.52571e-45
3.14338e-44
5.83174e-43
9.76477e-42
1.47757e-40
2.02141e-39
2.49907e-38
2.78796e-37
2.80078e-36
2.53381e-35
5.47938e-72
2.82549e-69
6.71131e-67
1.03442e-64
1.16928e-62
1.03641e-60
7.50672e-59
4.56814e-57
2.37914e-55
1.07275e-53
4.21982e-52
1.4575e-50
4.44962e-49
1.20825e-47
2.93355e-46
6.3941e-45
1.25474e-43
2.2208e-42
3.54742e-41
5.11094e-40
6.63116e-39
7.73108e-38
8.09909e-37
2.05859e-75
1.51744e-72
4.54775e-70
8.55122e-68
1.16015e-65
1.222e-63
1.05074e-61
7.65371e-60
4.83518e-58
2.68078e-56
1.30963e-54
5.63433e-53
2.13272e-51
7.11146e-50
2.09641e-48
5.49453e-47
1.28761e-45
2.70884e-44
5.12621e-43
8.72694e-42
1.33484e-40
1.8303e-39
2.24899e-38
4.05115e-79
5.35385e-76
2.08413e-73
4.78522e-71
7.82391e-69
9.91187e-67
1.02249e-64
8.90633e-63
6.71441e-61
4.45834e-59
2.63415e-57
1.39003e-55
6.54682e-54
2.74712e-52
1.02382e-50
3.37699e-49
9.84572e-48
2.54244e-46
5.84122e-45
1.19924e-43
2.20317e-42
3.61684e-41
5.30212e-40
1.11729e-82
2.86036e-79
1.41439e-76
3.84146e-74
7.26357e-72
1.05359e-69
1.23126e-67
1.19941e-65
9.98889e-64
7.27856e-62
4.73991e-60
2.80089e-58
1.51213e-56
7.46304e-55
3.35761e-53
1.36967e-51
5.03147e-50
1.65232e-48
4.81727e-47
1.24191e-45
2.83086e-44
5.71439e-43
1.02399e-41
4.33247e-85
9.7817e-82
4.74296e-79
1.26252e-76
2.32318e-74
3.26333e-72
3.69371e-70
3.48559e-68
2.81875e-66
1.99796e-64
1.26721e-62
7.33911e-61
3.9451e-59
1.98941e-57
9.46883e-56
4.26151e-54
1.807e-52
7.15193e-51
2.60758e-49
8.62713e-48
2.55446e-46
6.67468e-45
1.52796e-43
1.05547e-86
1.43004e-83
5.74022e-81
1.32946e-78
2.15129e-76
2.66893e-74
2.69085e-72
2.28743e-70
1.6835e-68
1.09519e-66
6.40342e-65
3.41751e-63
1.69206e-61
7.88489e-60
3.50006e-58
1.49702e-56
6.23307e-55
2.54383e-53
1.01845e-51
3.9673e-50
1.47718e-48
5.11417e-47
1.57154e-45
1.61924e-88
1.48338e-85
5.15896e-83
1.09251e-80
1.6522e-78
1.93764e-76
1.85744e-74
1.50893e-72
1.06604e-70
6.67955e-69
3.77077e-67
1.94303e-65
9.25237e-64
4.12304e-62
1.73951e-60
7.036e-59
2.76438e-57
1.06941e-55
4.12905e-54
1.60956e-52
6.36365e-51
2.53531e-49
9.97997e-48
3.88058e-91
3.56764e-88
1.26463e-85
2.73131e-83
4.1981e-81
4.97933e-79
4.78939e-77
3.87044e-75
2.69893e-73
1.65867e-71
9.14344e-70
4.59044e-68
2.12769e-66
9.23253e-65
3.81024e-63
1.51762e-61
5.91699e-60
2.29182e-58
8.95834e-57
3.59235e-55
1.5017e-53
6.62784e-52
3.09135e-50
0.988639
0.802793
0.233599
0.133357
0.988586
0.964498
0.843266
0.645118
0.812182
0.890949
0.890997
0.874965
0.254925
0.365786
0.46976
0.527747
0.0228724
0.039973
0.064734
0.0897961
0.00505623
0.00963081
0.0146439
0.0182099
0.000179369
0.000362181
0.000617189
0.000789767
8.12287e-06
1.20293e-05
1.78298e-05
2.2871e-05
6.19406e-07
9.19372e-07
1.55815e-06
1.70445e-06
1.28797e-08
2.32508e-08
5.26911e-08
2.1898e-13
5.57865e-14
1.30703e-13
6.71619e-13
1.49075e-13
1.96363e-14
4.0263e-14
7.26347e-14
1.24111e-13
7.09311e-14
1.42143e-13
2.57182e-13
4.41857e-13
8.29202e-14
1.71466e-13
3.45891e-13
6.626e-13
3.2466e-14
6.34087e-14
1.19602e-13
2.1727e-13
6.61688e-15
1.18014e-14
2.06074e-14
3.5107e-14
6.25013e-16
1.05512e-15
1.75697e-15
2.84651e-15
2.94444e-17
4.6816e-17
7.20558e-17
1.0496e-16
2.81392e-18
3.89528e-18
5.211e-18
6.699e-18
3.58359e-19
4.93863e-19
6.56201e-19
8.46972e-19
5.56005e-20
7.84775e-20
1.06937e-19
1.42387e-19
7.67858e-21
1.15674e-20
1.67544e-20
2.3489e-20
1.01903e-21
1.63965e-21
2.51447e-21
3.68028e-21
1.22913e-22
2.09811e-22
3.38963e-22
5.18046e-22
1.32928e-23
2.39253e-23
4.07216e-23
6.56125e-23
1.27788e-24
2.45445e-24
4.441e-24
7.5795e-24
1.09848e-25
2.26035e-25
4.37412e-25
7.97278e-25
8.47148e-27
1.88418e-26
3.93286e-26
7.75034e-26
5.89198e-28
1.42536e-27
3.23641e-27
6.99127e-27
3.70473e-29
9.81546e-29
2.44776e-28
5.93754e-28
2.10651e-30
6.15663e-30
1.70948e-29
4.84606e-29
1.08297e-31
3.52106e-31
1.10901e-30
3.89063e-30
5.02063e-33
1.83462e-32
6.71923e-32
3.11221e-31
2.08835e-34
8.67564e-34
3.79643e-33
2.43187e-32
7.72993e-36
3.69525e-35
1.9754e-34
1.77117e-33
2.51357e-37
1.39736e-36
9.20167e-36
1.13184e-34
7.04122e-39
4.60342e-38
3.72134e-37
6.10141e-36
1.64787e-40
1.28041e-39
1.23817e-38
2.57277e-37
3.08277e-42
2.9343e-41
3.47723e-40
9.46624e-39
4.1548e-44
4.95583e-43
6.49666e-42
1.82115e-40
3.71257e-46
6.22597e-45
1.18672e-43
5.46283e-42
1.48161e-48
3.20734e-47
6.54638e-46
1.57397e-44
0.0965478
0.0377268
0.00872261
0.00440002
0.00206189
0.000751563
0.000887886
0.00208571
0.0181773
0.0592868
0.0671922
0.0647603
0.0533547
0.0105043
0.000134142
3.29944e-05
6.96236e-05
6.56785e-05
2.5071e-05
0.412534
0.203428
0.0798706
0.0515876
0.0383431
0.0227043
0.0247069
0.0388174
0.07159
0.0769415
0.0721568
0.0690393
0.038143
0.00288289
2.30536e-05
2.72267e-05
6.44299e-05
6.05476e-05
2.38077e-05
0.732737
0.456405
0.288677
0.171901
0.0991076
0.0960175
0.0960512
0.10393
0.0989337
0.0838337
0.0735603
0.0582988
0.0139079
0.000340698
3.39716e-06
1.87496e-05
4.75214e-05
5.98292e-05
1.96252e-05
0.521873
0.480351
0.390902
0.288667
0.209225
0.17458
0.157515
0.135281
0.108768
0.0816475
0.0719716
0.0305386
0.00250519
1.51891e-05
8.72685e-07
9.80104e-06
2.91767e-05
4.59899e-05
1.31007e-05
0.117765
0.167441
0.217402
0.2431
0.238702
0.209988
0.171825
0.136261
0.0933678
0.0697769
0.0425127
0.00739953
0.000168107
4.29454e-07
1.29816e-07
4.22504e-06
1.56732e-05
2.23108e-05
7.09688e-06
0.023635
0.0391525
0.0769083
0.133775
0.159328
0.153996
0.135864
0.106873
0.0655242
0.0447108
0.0113852
0.000635254
4.05685e-06
3.11745e-08
1.49955e-08
8.40614e-07
6.22497e-06
1.29044e-05
3.65632e-06
0.0023859
0.0123998
0.0380439
0.0698679
0.104428
0.109819
0.0905752
0.0558782
0.0390845
0.0132408
0.00107049
1.08147e-05
9.06008e-08
9.93947e-09
9.20371e-09
3.10415e-08
1.22632e-06
9.94173e-06
3.10808e-06
0.000140468
0.00241973
0.0142354
0.0392651
0.0510706
0.0468896
0.0339991
0.0219567
0.00872827
0.00105826
2.11167e-05
1.1452e-07
1.19089e-07
1.18121e-08
9.1936e-09
9.19528e-09
3.91117e-07
4.58946e-06
2.39366e-06
1.86348e-05
0.000485509
0.0042589
0.0126244
0.0136983
0.0112614
0.00848286
0.00374433
0.00053802
1.66978e-05
1.2628e-07
1.15494e-07
1.19291e-07
1.82772e-08
9.24562e-09
9.18573e-09
5.86388e-08
1.22691e-06
1.37661e-06
2.44821e-06
7.87772e-05
0.000539599
0.00147025
0.00149345
0.00109781
0.000554915
9.73884e-05
4.65513e-06
7.80907e-08
7.90951e-08
8.25171e-08
9.43708e-08
7.47696e-08
4.64018e-08
1.24207e-08
4.20207e-09
2.47026e-07
5.60198e-07
5.19049e-08
2.01293e-06
1.59921e-05
2.79542e-05
2.61059e-05
1.62915e-05
2.41813e-06
4.75561e-08
4.18174e-08
5.04163e-08
4.54001e-08
4.307e-08
5.05082e-08
7.20806e-08
5.99499e-08
1.78867e-08
1.53694e-09
4.70421e-08
1.88453e-07
3.30628e-11
1.18308e-09
1.34063e-08
5.27726e-08
2.96877e-08
2.38227e-09
2.14749e-09
1.52286e-08
2.39626e-08
2.49212e-08
1.88489e-08
1.67133e-08
1.98141e-08
3.87618e-08
4.88338e-08
1.54263e-08
1.40138e-09
8.31297e-09
6.6722e-08
7.27003e-13
1.56557e-12
3.76411e-12
6.30876e-12
3.58443e-11
2.73496e-10
8.94853e-10
4.64254e-09
8.35124e-09
8.55326e-09
5.84615e-09
4.85804e-09
5.80384e-09
1.47192e-08
2.86325e-08
1.04404e-08
1.16381e-09
2.1595e-09
2.95606e-08
1.23403e-12
2.99435e-12
5.96504e-12
1.03317e-11
1.49168e-11
4.6456e-11
2.91691e-10
1.13646e-09
2.0099e-09
2.14844e-09
1.34325e-09
1.12143e-09
1.29607e-09
4.31747e-09
1.20794e-08
5.77825e-09
8.62749e-10
1.3896e-09
1.67445e-08
3.78519e-13
8.83676e-13
1.71766e-12
2.83083e-12
4.5898e-12
8.17401e-12
3.61129e-11
1.73117e-10
3.43322e-10
3.94178e-10
2.40601e-10
2.07658e-10
2.18952e-10
9.71317e-10
3.61162e-09
2.59782e-09
5.89407e-10
1.01484e-09
1.08035e-08
5.78799e-14
1.27005e-13
2.39347e-13
3.89544e-13
6.05981e-13
1.26862e-12
4.8057e-12
1.86846e-11
4.24921e-11
5.37886e-11
3.29353e-11
3.08854e-11
2.76847e-11
1.63785e-10
7.35667e-10
1.03396e-09
3.59283e-10
5.69779e-10
7.1904e-09
4.44496e-15
9.14963e-15
1.6375e-14
2.64415e-14
4.24498e-14
8.92481e-14
3.59224e-13
1.53617e-12
3.86084e-12
5.50967e-12
3.4286e-12
3.60002e-12
2.65319e-12
2.07023e-11
9.5422e-11
3.19888e-10
1.97347e-10
1.86176e-10
4.71262e-09
1.45196e-16
2.48319e-16
3.9059e-16
6.76369e-16
1.42892e-15
4.14387e-15
1.90611e-14
9.33449e-14
2.63099e-13
4.24879e-13
2.7292e-13
3.29011e-13
2.21203e-13
2.03401e-12
7.27906e-12
1.89139e-11
1.03566e-10
2.98952e-11
2.94381e-09
8.35076e-18
1.22334e-17
1.60518e-17
2.05198e-17
3.40055e-17
1.18152e-16
7.25288e-16
4.23664e-15
1.34895e-14
2.50614e-14
1.84549e-14
2.91768e-14
3.69889e-14
2.08464e-13
5.40846e-13
2.55578e-12
5.28511e-11
9.0949e-12
1.66835e-09
1.07282e-18
1.63662e-18
2.23833e-18
2.75492e-18
3.16357e-18
4.99919e-18
2.59059e-17
1.62143e-16
6.05839e-16
1.47704e-15
2.38177e-15
6.96783e-15
2.27364e-14
7.64778e-14
2.43976e-13
1.45405e-12
2.47363e-11
6.40878e-12
7.85497e-10
1.85702e-19
2.94687e-19
4.16107e-19
5.31264e-19
6.64024e-19
1.10481e-18
3.73771e-18
1.79327e-17
8.13977e-17
3.25231e-16
1.23187e-15
4.66827e-15
1.89861e-14
6.59426e-14
2.16248e-13
8.43054e-13
1.04562e-11
4.08201e-12
2.6309e-10
3.19404e-20
5.38708e-20
7.96186e-20
1.09189e-19
1.64859e-19
4.00414e-19
1.72814e-18
8.83141e-18
4.34889e-17
2.01769e-16
8.98559e-16
3.7594e-15
1.64892e-14
6.26251e-14
2.05795e-13
5.83695e-13
4.22732e-12
2.66146e-12
5.07045e-11
5.17191e-21
9.20366e-21
1.45223e-20
2.25198e-20
4.57572e-20
1.68413e-19
9.10297e-19
5.17126e-18
2.74867e-17
1.38138e-16
6.7182e-16
3.15046e-15
1.48454e-14
6.05865e-14
2.02225e-13
5.00531e-13
1.84737e-12
1.92292e-12
1.15453e-11
7.55576e-22
1.4424e-21
2.5164e-21
4.77434e-21
1.45122e-20
7.64782e-20
4.82711e-19
2.98222e-18
1.7238e-17
9.39292e-17
5.02268e-16
2.69973e-15
1.38333e-14
5.9505e-14
2.03502e-13
4.96959e-13
1.07433e-12
1.63004e-12
1.0176e-11
1.00626e-22
2.10062e-22
4.22163e-22
1.09532e-21
5.1514e-21
3.49857e-20
2.48163e-19
1.65878e-18
1.04693e-17
6.25183e-17
3.77598e-16
2.30405e-15
1.29306e-14
5.86524e-14
2.05789e-13
5.18154e-13
9.31049e-13
1.67599e-12
1.0124e-11
1.22819e-23
2.87108e-23
7.17091e-23
2.84939e-22
1.94325e-21
1.56457e-20
1.22242e-19
8.84367e-19
6.07464e-18
4.00431e-17
2.87763e-16
1.93373e-15
1.18117e-14
5.75076e-14
2.07208e-13
5.39728e-13
9.98366e-13
1.90392e-12
9.92605e-12
1.38959e-24
3.79593e-24
1.32259e-23
8.3172e-23
7.39478e-22
6.78136e-21
5.82842e-20
4.61247e-19
3.48791e-18
2.74283e-17
2.23057e-16
1.60624e-15
1.04286e-14
5.24453e-14
1.95895e-13
5.34819e-13
1.04942e-12
1.99548e-12
9.53491e-12
1.4809e-25
5.09751e-25
2.77159e-24
2.56106e-23
2.74249e-22
2.82163e-21
2.67466e-20
2.35808e-19
2.149e-18
1.99217e-17
1.77057e-16
1.34292e-15
8.99505e-15
4.52085e-14
1.71435e-13
4.73759e-13
9.89529e-13
1.98498e-12
9.00545e-12
1.52562e-26
7.41269e-26
6.4539e-25
7.86912e-24
9.7597e-23
1.12537e-21
1.19516e-20
1.28854e-19
1.44052e-18
1.51686e-17
1.45529e-16
1.16731e-15
7.868e-15
3.88716e-14
1.45198e-13
3.86042e-13
8.23686e-13
1.94222e-12
8.39966e-12
1.58473e-27
1.20375e-26
1.55587e-25
2.32167e-24
3.29701e-23
4.31356e-22
5.60667e-21
7.6941e-20
1.00262e-18
1.18086e-17
1.22588e-16
1.04938e-15
7.23381e-15
3.55776e-14
1.27103e-13
3.13309e-13
6.13489e-13
1.84033e-12
7.68477e-12
1.73834e-28
2.10773e-27
3.65192e-26
6.44587e-25
1.05466e-23
1.66103e-22
2.84468e-21
4.63807e-20
6.94948e-19
9.23788e-18
1.04889e-16
9.63777e-16
6.86528e-15
3.45645e-14
1.20548e-13
2.778e-13
4.83683e-13
1.66423e-12
6.80153e-12
2.03015e-29
3.67923e-28
7.97925e-27
1.65418e-25
3.16993e-24
6.75817e-23
1.40583e-21
2.71819e-20
4.72028e-19
7.14926e-18
9.01833e-17
9.00279e-16
6.71362e-15
3.47307e-14
1.20171e-13
2.67315e-13
4.36891e-13
1.46871e-12
5.73073e-12
2.41408e-30
6.0038e-29
1.58091e-27
3.87975e-26
9.70826e-25
2.59889e-23
6.5641e-22
1.51942e-20
3.10648e-19
5.40009e-18
7.65627e-17
8.393e-16
6.66638e-15
3.57746e-14
1.23925e-13
2.70552e-13
4.24371e-13
1.22023e-12
4.48911e-12
2.71407e-31
8.7301e-30
2.77621e-28
8.1743e-27
2.74668e-25
9.08124e-24
2.81628e-22
7.88728e-21
1.92761e-19
3.93058e-18
6.3651e-17
7.74422e-16
6.65032e-15
3.7653e-14
1.32361e-13
2.85806e-13
4.28601e-13
9.56468e-13
3.22214e-12
2.70932e-32
1.09738e-30
4.24825e-29
1.59172e-27
6.77957e-26
2.7899e-24
1.07357e-22
3.70414e-21
1.09759e-19
2.66939e-18
5.06179e-17
7.02399e-16
6.67032e-15
4.03761e-14
1.47097e-13
3.18861e-13
4.57042e-13
7.71796e-13
2.25874e-12
2.29089e-33
1.16341e-31
5.5396e-30
2.63971e-28
1.40812e-26
7.26384e-25
3.48636e-23
1.49853e-21
5.51117e-20
1.64175e-18
3.7318e-17
6.02893e-16
6.45962e-15
4.26878e-14
1.64841e-13
3.72146e-13
5.23602e-13
7.03745e-13
1.67631e-12
1.61384e-34
1.03971e-32
6.19789e-31
3.64309e-29
2.4178e-27
1.56941e-25
9.49587e-24
5.14568e-22
2.37488e-20
8.80861e-19
2.45727e-17
4.75884e-16
5.90998e-15
4.36978e-14
1.82754e-13
4.4439e-13
6.30927e-13
7.16671e-13
1.36961e-12
8.87865e-36
7.39654e-34
5.64635e-32
3.94366e-30
3.19248e-28
2.56764e-26
1.96101e-24
1.35552e-22
8.02747e-21
3.82172e-19
1.35522e-17
3.28121e-16
4.9461e-15
4.24802e-14
1.96828e-13
5.16327e-13
7.6818e-13
7.75829e-13
1.22482e-12
4.46586e-37
5.01499e-35
5.09205e-33
4.64338e-31
4.00531e-29
3.86711e-27
3.61005e-25
3.09917e-23
2.3225e-21
1.41811e-19
6.50544e-18
2.02473e-16
3.80131e-15
3.88241e-14
2.03119e-13
5.73639e-13
9.18556e-13
8.46213e-13
1.1782e-12
1.10955e-38
1.70709e-36
2.36744e-34
2.9155e-32
3.2134e-30
3.22938e-28
3.58259e-26
3.94447e-24
3.94877e-22
3.32795e-20
2.16435e-18
9.56176e-17
2.46974e-15
3.24749e-14
1.98993e-13
5.91208e-13
9.82942e-13
9.10505e-13
1.19769e-12
5.45261e-40
1.26963e-37
2.52302e-35
4.31081e-33
6.48892e-31
8.77012e-29
1.08506e-26
1.24905e-24
1.35362e-22
1.35347e-20
1.12416e-18
6.30683e-17
1.92493e-15
2.75511e-14
1.76108e-13
5.53225e-13
9.62536e-13
1.0193e-12
1.23445e-12
9.33211e-43
2.65534e-40
7.79841e-38
2.01605e-35
4.53882e-33
9.02698e-31
1.60757e-28
2.59594e-26
3.80017e-24
4.93402e-22
5.3003e-20
4.16525e-18
2.0361e-16
5.24069e-15
6.20114e-14
3.19273e-13
7.9676e-13
1.09616e-12
1.26678e-12
)
;

boundaryField
{
    leftWall
    {
        type            zeroGradient;
    }
    rightWall
    {
        type            zeroGradient;
    }
    lowerWall
    {
        type            zeroGradient;
    }
    atmosphere
    {
        type            inletOutlet;
        inletValue      uniform 0;
        value           nonuniform List<scalar> 
46
(
0
0
0
0
0
0
0
0
0
0
0
0
0
0
0
0
0
0
0
0
0
0
0
0
0
0
0
0
0
0
0
0
0
0
0
0
0
0
0
0
0
0
0
7.9676e-13
1.09616e-12
1.26678e-12
)
;
    }
    defaultFaces
    {
        type            empty;
    }
}


// ************************************************************************* //
