/*--------------------------------*- C++ -*----------------------------------*\
| =========                 |                                                 |
| \\      /  F ield         | OpenFOAM: The Open Source CFD Toolbox           |
|  \\    /   O peration     | Version:  2.4.0                                 |
|   \\  /    A nd           | Web:      www.OpenFOAM.org                      |
|    \\/     M anipulation  |                                                 |
\*---------------------------------------------------------------------------*/
FoamFile
{
    version     2.0;
    format      ascii;
    class       volScalarField;
    location    "0.4";
    object      alpha.oil;
}
// * * * * * * * * * * * * * * * * * * * * * * * * * * * * * * * * * * * * * //

dimensions      [0 0 0 0 0 0 0];

internalField   nonuniform List<scalar> 
2268
(
3.41916e-23
3.05374e-22
1.35542e-21
1.34354e-20
1.26836e-20
1.19863e-19
1.71131e-19
2.02531e-19
2.58339e-17
1.91006e-14
3.6798e-12
3.8523e-11
1.99287e-10
6.50546e-10
1.51048e-09
2.74232e-09
3.9205e-09
5.26455e-09
7.29208e-09
1.17609e-08
4.42181e-08
2.61575e-06
2.67469e-05
1.14038e-21
9.577e-21
4.35059e-20
3.4873e-19
3.91126e-19
2.41274e-18
3.65039e-18
4.96994e-18
2.19475e-16
8.33753e-14
1.3049e-11
1.4989e-10
8.92651e-10
3.20429e-09
7.53189e-09
1.316e-08
1.76289e-08
2.05459e-08
2.26435e-08
2.70904e-08
5.95539e-08
2.67907e-06
2.98225e-05
1.8585e-20
1.46651e-19
6.8993e-19
4.42659e-18
5.81915e-18
2.44956e-17
3.85645e-17
6.11695e-17
1.20626e-15
1.62017e-13
1.59145e-11
2.07667e-10
1.51875e-09
6.65285e-09
1.49617e-08
4.67141e-08
1.09494e-07
1.2251e-07
1.12392e-07
9.12475e-08
1.17495e-07
2.6639e-06
3.062e-05
1.97142e-19
1.46443e-18
7.17476e-18
3.67252e-17
5.51096e-17
1.68121e-16
2.69933e-16
5.02035e-16
6.14424e-15
2.04517e-13
6.50733e-12
4.56732e-11
5.19457e-10
4.92456e-09
4.87026e-08
3.38072e-07
1.19284e-06
1.52145e-06
1.25141e-06
6.72583e-07
4.52483e-07
3.24691e-06
3.50147e-05
1.52978e-18
1.0744e-17
5.48137e-17
2.24377e-16
3.73587e-16
8.72037e-16
1.39919e-15
3.18959e-15
2.8332e-14
2.61121e-13
4.10659e-12
1.0421e-10
1.86976e-09
2.02231e-08
2.14036e-07
1.87959e-06
7.1547e-06
6.84009e-06
4.99615e-06
2.4931e-06
1.21287e-06
4.0526e-06
3.94955e-05
9.25688e-18
6.182e-17
3.27213e-16
1.07991e-15
1.9223e-15
3.65838e-15
5.69203e-15
1.66932e-14
1.152e-13
5.51895e-13
6.39777e-12
4.12896e-10
6.40882e-09
6.70476e-08
7.21524e-07
9.9402e-06
5.96309e-05
0.000205798
0.000115906
3.01119e-05
4.2327e-06
5.51925e-06
4.19733e-05
4.54851e-17
2.91323e-16
1.57818e-15
4.32184e-15
7.69434e-15
1.29903e-14
1.90847e-14
7.60019e-14
4.17762e-13
1.6031e-12
1.29304e-11
5.58341e-10
6.84506e-09
6.16537e-08
6.65583e-07
8.35239e-06
5.37527e-05
0.000299009
0.000662052
0.000226241
2.78015e-05
8.23655e-06
4.07576e-05
1.87195e-16
1.16438e-15
6.31045e-15
1.50024e-14
2.47176e-14
3.97985e-14
5.68473e-14
3.53363e-13
1.31213e-12
4.37065e-12
2.5784e-11
2.79695e-10
3.97852e-09
6.30213e-08
1.54458e-06
2.42792e-05
0.000124534
0.000287512
0.000931129
0.00118629
0.000284818
2.27748e-05
4.1079e-05
0.99964
0.999638
0.999639
0.999652
0.999538
0.99878
0.994624
0.979063
0.941651
0.893991
0.885086
0.885085
0.884399
0.884399
0.883733
0.883978
0.883937
0.884619
0.88462
0.999648
0.999804
0.999897
0.999952
0.999963
0.999963
0.999963
0.99994
0.999657
0.996109
0.962273
0.886756
0.88505
0.883724
0.884396
0.883303
0.884588
0.888962
0.899724
0.999792
0.999964
0.999978
0.999972
0.999969
0.999908
0.999631
0.999698
0.999707
0.996906
0.983618
0.959912
0.908752
0.884787
0.883034
0.884335
0.911518
0.968179
0.97766
0.999884
0.999983
0.999983
0.999983
0.999191
0.973935
0.914691
0.931725
0.987337
0.995026
0.976048
0.95928
0.948673
0.944097
0.941564
0.960655
0.987257
0.99767
0.998696
0.999875
0.999983
0.999983
0.999614
0.904082
0.369407
0.162184
0.180715
0.578001
0.955418
0.96525
0.950099
0.945312
0.952885
0.973885
0.994207
0.999434
0.999591
0.999591
0.99989
0.999982
0.999899
0.94576
0.153637
0.00189546
0.000947457
0.000947457
0.00590918
0.528127
0.919302
0.942497
0.942023
0.947594
0.978902
0.997908
0.999865
0.999208
0.998671
0.999951
0.999982
0.999948
0.61806
0.0488626
0.0009536
0.000947457
0.000947457
0.00175989
0.206952
0.838101
0.937612
0.933237
0.802732
0.887942
0.990971
0.999862
0.998108
0.922632
0.999336
0.999983
0.999977
0.803852
0.180092
0.00499599
0.00094878
0.000947511
0.0340163
0.425783
0.850544
0.933143
0.884411
0.323541
0.539597
0.976368
0.999868
0.998996
0.885362
6.7294e-16
4.10962e-15
2.18068e-14
4.60989e-14
6.86291e-14
1.08204e-13
1.69067e-13
2.12852e-12
3.05881e-12
8.12864e-12
8.40997e-11
2.22426e-09
1.84597e-08
1.26363e-07
1.04038e-06
1.12649e-05
0.000102495
0.000718971
0.00395199
0.00675673
0.00321896
0.000593876
0.00017598
3.86753e-15
2.30059e-14
1.14931e-13
2.0503e-13
2.75831e-13
4.10789e-13
9.16749e-13
2.8417e-11
6.50893e-10
1.40733e-09
3.49009e-08
2.11873e-07
5.14903e-07
9.86464e-07
1.95235e-06
6.52459e-06
4.30504e-05
0.000416206
0.00254658
0.00711203
0.0124077
0.0126505
0.00447032
1.92972e-14
1.14968e-13
5.23158e-13
7.759e-13
9.53436e-13
1.31694e-12
7.51519e-12
4.47914e-09
1.03898e-07
2.96891e-07
7.69963e-07
2.22561e-06
8.27446e-06
3.66869e-05
4.39402e-05
3.96795e-05
3.93843e-05
8.02226e-05
0.000508763
0.00314242
0.0124113
0.016096
0.0160499
8.30681e-14
5.13787e-13
2.01074e-12
2.45984e-12
3.03308e-12
4.0785e-12
2.87697e-10
5.82374e-08
2.50677e-06
7.29338e-05
0.000339099
0.00091716
0.00232367
0.00601876
0.00802602
0.00870356
0.0060269
0.00307737
0.0011605
0.00135014
0.00554148
0.0110199
0.0153894
3.08691e-13
2.01008e-12
5.93929e-12
6.03467e-12
1.21388e-11
2.03212e-11
2.01334e-07
2.43204e-05
0.000919589
0.00926539
0.0246202
0.0457102
0.0819653
0.13997
0.182017
0.210638
0.181023
0.127336
0.0741223
0.038177
0.0162669
0.0152574
0.0160027
9.88085e-13
6.27279e-12
1.01263e-10
1.79987e-10
1.40552e-09
1.08955e-08
1.54343e-05
0.00176484
0.0295847
0.137338
0.25636
0.373545
0.511643
0.655062
0.745635
0.802739
0.800682
0.745743
0.632822
0.496984
0.320399
0.177357
0.103995
2.69359e-12
3.09025e-11
1.01967e-09
4.0192e-09
2.60917e-08
5.44213e-07
8.93023e-05
0.0124917
0.143238
0.405251
0.630607
0.797625
0.92401
0.976824
0.989841
0.993934
0.994633
0.994644
0.991067
0.975599
0.855069
0.685689
0.533685
6.31422e-12
7.80867e-11
2.43946e-09
2.0476e-08
1.0199e-07
2.49217e-06
7.73178e-05
0.0159773
0.171256
0.375893
0.562309
0.708677
0.806007
0.885655
0.93004
0.960888
0.977738
0.985983
0.994291
0.994924
0.994966
0.98743
0.979709
1.44123e-11
3.20927e-10
9.99797e-09
7.3142e-08
5.01333e-07
5.67997e-06
0.000112449
0.000455576
0.00102598
0.00222513
0.00653902
0.016703
0.0411477
0.0930393
0.159192
0.251776
0.367046
0.501272
0.676176
0.744623
0.924455
0.944883
0.951796
9.0211e-12
6.11581e-10
1.63659e-08
9.66545e-08
1.65234e-06
7.01815e-06
4.59517e-06
2.66257e-06
2.70383e-06
2.58845e-06
4.90262e-07
1.23873e-07
1.30032e-07
2.48716e-07
5.47367e-07
2.23829e-06
1.40784e-05
0.000345207
0.00910314
0.0257828
0.168272
0.252108
0.299112
6.22222e-12
4.07626e-10
1.04282e-08
6.50805e-08
1.80087e-07
1.02455e-07
1.97165e-08
2.04074e-08
2.50613e-07
2.06877e-07
6.04145e-08
1.37162e-08
1.3747e-08
3.9517e-08
1.04865e-07
1.52082e-07
8.99784e-08
8.94906e-08
1.11086e-07
2.98877e-07
1.56184e-06
7.33825e-06
2.45041e-05
4.13533e-12
1.79671e-10
3.60682e-09
1.24958e-08
8.53085e-09
1.86592e-09
3.34751e-09
2.05311e-08
1.11294e-07
2.41867e-07
9.88094e-08
1.9521e-08
2.85928e-08
1.83418e-07
4.33471e-07
4.88148e-07
3.63925e-07
1.51371e-07
1.04022e-07
2.49476e-07
2.95572e-07
3.35592e-07
3.23715e-07
1.40896e-12
2.01646e-11
2.8979e-10
5.3825e-10
3.00937e-10
8.12878e-11
3.11544e-10
1.98742e-09
6.40459e-09
7.07188e-08
2.08631e-08
1.07425e-08
1.26499e-07
6.75852e-07
7.78658e-07
8.07439e-07
8.06708e-07
3.52544e-07
7.67048e-08
1.28153e-07
2.45936e-07
2.66936e-07
2.56496e-07
1.15301e-13
1.30915e-12
1.27576e-11
1.99762e-11
2.40846e-11
2.94851e-11
3.71629e-11
7.64653e-11
1.48916e-10
2.45707e-10
2.86645e-10
1.07863e-08
3.261e-07
7.69751e-07
7.82932e-07
6.44813e-07
3.12113e-07
9.8891e-08
5.57952e-08
6.78271e-08
1.33587e-07
1.18181e-07
1.26467e-07
1.62795e-14
2.59528e-13
2.42512e-12
8.80712e-12
1.60132e-11
2.16655e-11
3.31532e-11
7.46936e-11
1.51849e-10
1.97879e-10
4.95017e-10
2.13867e-08
3.47023e-07
7.6424e-07
6.18615e-07
1.01324e-07
5.8759e-08
4.90635e-08
4.90538e-08
6.27679e-08
1.11538e-07
8.70154e-08
5.23581e-08
1.40265e-15
3.1776e-14
5.06712e-13
3.49298e-12
9.1458e-12
1.35632e-11
2.49594e-11
6.99767e-11
1.81817e-10
3.04994e-10
8.94623e-10
2.07789e-08
9.65983e-08
2.61542e-07
1.34848e-07
9.76534e-08
6.1507e-08
6.18125e-08
5.00341e-08
4.43651e-08
4.16573e-08
4.20128e-08
1.55785e-08
2.05427e-16
8.51722e-15
1.68697e-13
1.38594e-12
4.03483e-12
6.99624e-12
1.67954e-11
5.56849e-11
1.67283e-10
2.96583e-10
1.09719e-09
1.17598e-08
3.11311e-08
5.79928e-08
1.3618e-07
1.43153e-07
1.21539e-07
9.22015e-08
5.73256e-08
2.72572e-08
1.35722e-08
7.41029e-09
5.22485e-09
1.2792e-16
5.5184e-15
8.27397e-14
4.94015e-13
1.37682e-12
2.93511e-12
9.34588e-12
3.52165e-11
1.00935e-10
2.80136e-10
6.19743e-10
4.59399e-09
2.33755e-08
4.91879e-08
1.1029e-07
1.70146e-07
1.51448e-07
1.13746e-07
7.10754e-08
3.69993e-08
1.37238e-08
5.3027e-09
2.24056e-09
7.41316e-17
2.06224e-15
2.22281e-14
1.13776e-13
3.41744e-13
1.01398e-12
4.44209e-12
1.8868e-11
5.85687e-11
1.96479e-10
3.6196e-10
8.64016e-10
1.75773e-08
6.06852e-08
1.20551e-07
1.45314e-07
1.4063e-07
1.104e-07
7.13305e-08
3.83511e-08
1.66599e-08
5.57201e-09
1.69868e-09
1.54927e-17
3.36995e-16
3.22051e-15
1.64957e-14
6.43514e-14
3.25152e-13
1.8536e-12
8.52926e-12
2.9612e-11
8.26877e-11
1.32859e-10
1.41937e-10
4.78699e-09
3.35144e-08
5.83733e-08
9.61262e-08
9.25988e-08
7.93191e-08
5.5176e-08
3.15339e-08
1.44049e-08
5.00108e-09
1.38502e-09
1.00159e-20
8.5397e-19
3.1306e-17
6.40908e-16
8.40543e-15
7.64647e-14
4.99525e-13
2.41339e-12
8.61689e-12
2.12518e-11
3.05628e-11
2.3518e-11
6.28302e-10
5.45527e-09
2.65056e-08
3.05831e-08
4.29191e-08
4.01905e-08
2.96631e-08
1.83488e-08
8.95732e-09
3.19347e-09
8.11306e-10
1.58787e-21
1.09903e-19
3.53265e-18
6.88974e-17
9.14197e-16
8.64911e-15
5.95283e-14
2.98154e-13
1.08105e-12
2.83902e-12
5.40288e-12
8.42557e-12
1.46227e-11
5.26337e-10
2.24684e-09
1.05186e-08
1.28885e-08
1.3585e-08
8.98613e-09
6.26138e-09
3.43943e-09
1.39791e-09
3.6432e-10
1.91942e-23
1.58132e-21
6.13831e-20
1.46492e-18
2.3804e-17
2.77153e-16
2.39301e-15
1.56106e-14
7.8046e-14
2.99232e-13
8.87483e-13
2.08527e-12
3.88356e-12
6.70563e-12
8.84215e-11
5.85603e-10
2.42567e-09
2.84661e-09
2.07103e-09
9.76935e-10
5.53255e-10
2.72058e-10
9.31743e-11
4.19018e-24
3.08262e-22
1.08947e-20
2.43498e-19
3.84403e-18
4.51756e-17
4.06128e-16
2.84291e-15
1.57191e-14
6.97453e-14
2.49685e-13
7.10987e-13
1.66049e-12
3.61507e-12
9.89394e-12
4.17485e-11
1.79956e-10
3.82394e-10
3.16831e-10
1.38502e-10
4.67544e-11
2.26067e-11
1.30269e-11
3.76186e-25
2.79829e-23
9.94147e-22
2.21696e-20
3.50625e-19
4.20096e-18
3.96793e-17
3.02775e-16
1.89079e-15
9.67268e-15
4.05646e-14
1.40773e-13
4.13186e-13
1.02526e-12
2.16631e-12
4.03896e-12
6.46148e-12
1.8434e-11
2.62913e-11
3.00985e-11
2.0503e-11
9.12734e-12
3.70032e-12
3.34981e-26
2.6775e-24
1.02605e-22
2.47245e-21
4.20403e-20
5.34534e-19
5.25882e-18
4.10354e-17
2.58968e-16
1.3449e-15
5.86586e-15
2.18781e-14
6.9943e-14
1.92064e-13
4.58527e-13
9.52757e-13
1.73934e-12
2.77611e-12
3.65299e-12
3.67422e-12
2.80276e-12
1.57294e-12
6.59472e-13
3.84234e-28
3.24126e-26
1.31217e-24
3.35713e-23
6.12847e-22
8.53055e-21
9.43496e-20
8.50222e-19
6.34234e-18
3.95757e-17
2.07017e-16
9.08448e-16
3.34448e-15
1.04366e-14
2.77092e-14
6.32377e-14
1.24694e-13
2.09151e-13
2.91171e-13
3.26179e-13
2.83522e-13
1.84951e-13
9.08108e-14
3.26749e-30
3.01552e-28
1.33368e-26
3.73651e-25
7.4677e-24
1.13377e-22
1.35954e-21
1.32196e-20
1.06049e-19
7.10519e-19
4.02817e-18
1.9589e-17
8.23434e-17
2.99121e-16
9.38861e-16
2.52919e-15
5.75714e-15
1.09813e-14
1.73974e-14
2.25319e-14
2.30515e-14
1.77824e-14
1.03827e-14
1.56646e-32
1.60032e-30
7.88195e-29
2.47436e-27
5.57504e-26
9.5945e-25
1.30916e-23
1.45143e-22
1.33144e-21
1.02567e-20
6.70365e-20
3.73529e-19
1.77928e-18
7.26553e-18
2.54794e-17
7.67812e-17
1.9894e-16
4.40039e-16
8.1676e-16
1.23856e-15
1.48814e-15
1.37221e-15
9.75602e-16
6.27497e-35
7.12498e-33
3.88307e-31
1.34909e-29
3.36244e-28
6.40833e-27
9.71587e-26
1.20313e-24
1.23906e-23
1.07438e-22
7.91249e-22
4.98692e-21
2.71319e-20
1.27883e-19
5.21799e-19
1.83737e-18
5.54593e-18
1.42088e-17
3.05563e-17
5.42545e-17
7.74596e-17
8.62822e-17
7.58983e-17
1.63416e-37
2.08557e-35
1.28301e-33
5.05245e-32
1.43261e-30
3.11348e-29
5.38729e-28
7.6129e-27
8.94944e-26
8.87748e-25
7.51192e-24
5.46078e-23
3.42051e-22
1.85069e-21
8.66577e-21
3.50876e-20
1.22442e-19
3.65871e-19
9.24946e-19
1.94341e-18
3.3177e-18
4.5059e-18
4.96589e-18
3.07711e-40
4.49377e-38
3.14941e-36
1.41484e-34
4.57918e-33
1.13746e-31
2.25435e-30
3.65805e-29
4.94794e-28
5.65028e-27
5.49986e-26
4.60061e-25
3.32951e-24
2.09175e-23
1.14125e-22
5.4007e-22
2.20899e-21
7.75804e-21
2.31705e-20
5.80325e-20
1.19643e-19
1.99971e-19
2.78094e-19
4.0615e-43
6.80886e-41
5.49473e-39
2.84768e-37
1.06472e-35
3.05925e-34
7.02163e-33
1.32069e-31
2.07322e-30
2.75391e-29
3.12738e-28
3.05873e-27
2.58943e-26
1.90418e-25
1.21876e-24
6.78794e-24
3.28132e-23
1.36958e-22
4.89282e-22
1.47738e-21
3.71309e-21
7.69411e-21
1.35411e-20
3.42271e-46
6.82753e-44
6.48471e-42
3.95286e-40
1.73848e-38
5.88125e-37
1.59141e-35
3.53171e-34
6.54301e-33
1.02557e-31
1.37428e-30
1.58747e-29
1.59075e-28
1.38847e-27
1.05776e-26
7.0346e-26
4.07603e-25
2.04826e-24
8.85803e-24
3.26045e-23
1.00839e-22
2.60576e-22
5.80228e-22
1.77978e-49
4.36475e-47
4.98712e-45
3.63781e-43
1.91044e-41
7.71543e-40
2.49536e-38
6.63864e-37
1.4798e-35
2.79874e-34
4.53145e-33
6.32592e-32
7.66087e-31
8.08656e-30
7.46266e-29
6.02705e-28
4.25432e-27
2.61414e-26
1.38818e-25
6.30448e-25
2.42121e-24
7.83842e-24
2.20435e-23
4.94567e-53
1.64421e-50
2.34731e-48
2.09536e-46
1.33462e-44
6.49859e-43
2.5319e-41
8.15971e-40
2.22473e-38
5.20002e-37
1.04911e-35
1.83249e-34
2.77714e-33
3.66085e-32
4.20865e-31
4.22881e-30
3.71438e-29
2.84326e-28
1.88393e-27
1.06973e-26
5.15144e-26
2.09953e-25
7.44513e-25
7.01778e-57
3.76884e-54
6.97999e-52
7.69677e-50
5.97874e-48
3.54374e-46
1.68275e-44
6.63473e-43
2.22457e-41
6.44761e-40
1.63113e-38
3.61656e-37
7.03227e-36
1.19869e-34
1.78806e-33
2.32736e-32
2.63464e-31
2.58374e-30
2.18301e-29
1.57624e-28
9.63703e-28
4.97913e-27
2.22719e-26
7.35471e-61
7.44826e-58
1.79941e-55
2.43433e-53
2.29324e-51
1.64976e-49
9.5027e-48
4.52786e-46
1.82608e-44
6.35964e-43
1.94708e-41
5.30495e-40
1.29264e-38
2.81657e-37
5.46825e-36
9.39635e-35
1.41577e-33
1.84931e-32
2.06809e-31
1.95654e-30
1.55142e-29
1.02939e-28
5.83878e-28
3.09117e-64
3.85483e-61
1.06325e-58
1.61199e-56
1.68422e-54
1.33583e-52
8.4741e-51
4.44312e-49
1.97706e-47
7.62693e-46
2.59993e-44
7.97268e-43
2.2281e-41
5.71292e-40
1.34569e-38
2.90016e-37
5.65879e-36
9.82649e-35
1.48533e-33
1.90779e-32
2.03975e-31
1.79211e-30
1.31118e-29
1.04701e-66
9.10217e-64
2.32911e-61
3.42004e-59
3.49025e-57
2.71588e-55
1.70776e-53
9.00188e-52
4.08373e-50
1.62701e-48
5.7832e-47
1.8596e-45
5.48337e-44
1.4983e-42
3.81878e-41
9.11519e-40
2.03839e-38
4.24565e-37
8.11508e-36
1.38628e-34
2.04145e-33
2.49442e-32
2.45156e-31
4.73448e-69
2.95159e-66
6.96423e-64
9.97956e-62
1.0191e-59
8.05485e-58
5.19318e-56
2.83021e-54
1.33694e-52
5.57668e-51
2.08364e-49
7.05163e-48
2.18304e-46
6.24002e-45
1.65911e-43
4.13247e-42
9.69947e-41
2.15344e-39
4.52181e-38
8.91335e-37
1.61405e-35
2.57737e-34
3.43728e-33
8.31246e-72
5.60506e-69
1.45957e-66
2.31633e-64
2.61558e-62
2.27746e-60
1.60585e-58
9.49136e-57
4.82388e-55
2.15009e-53
8.53766e-52
3.0594e-50
9.99962e-49
3.01173e-47
8.45187e-46
2.22936e-44
5.564e-43
1.32078e-41
2.99179e-40
6.46602e-39
1.3244e-37
2.5207e-36
4.25886e-35
0.00442428
0.0741837
0.308254
0.585242
0.00442797
0.0182401
0.0424234
0.0822348
0.0124896
0.0142933
0.0182178
0.0200432
0.0189493
0.0211522
0.0237804
0.0277069
0.0173117
0.018621
0.0201571
0.021918
0.0645037
0.0559984
0.0510656
0.048184
0.464259
0.426159
0.399499
0.395334
0.972888
0.966104
0.956463
0.946427
0.937142
0.921907
0.92198
0.917629
0.272158
0.249759
0.261335
0.273954
4.50882e-05
7.62715e-05
0.000165308
0.000321371
2.89355e-07
2.54821e-07
2.48332e-07
2.67608e-07
1.37314e-07
6.89492e-08
3.04457e-08
2.77742e-08
4.54628e-08
2.22431e-08
1.77931e-08
2.73617e-08
1.52819e-08
9.41894e-09
1.18443e-08
1.9074e-08
6.60522e-09
5.50826e-09
4.29799e-09
6.18315e-09
3.57483e-09
2.5469e-09
2.63847e-09
2.3399e-09
1.52205e-09
1.47796e-09
1.07746e-09
9.81025e-10
6.41921e-10
4.93239e-10
4.50407e-10
3.55914e-10
3.64198e-10
2.48254e-10
1.69349e-10
1.212e-10
2.12438e-10
1.46692e-10
9.75596e-11
6.70348e-11
8.85837e-11
6.46728e-11
4.5609e-11
3.13763e-11
2.83809e-11
2.13114e-11
1.53522e-11
1.06979e-11
7.58162e-12
5.89161e-12
4.37433e-12
3.11167e-12
1.67578e-12
1.36779e-12
1.06094e-12
7.81065e-13
3.08876e-13
2.66041e-13
2.16316e-13
1.654e-13
4.76768e-14
4.34097e-14
3.72986e-14
2.98076e-14
6.22556e-15
5.98895e-15
5.46607e-15
4.59952e-15
6.91705e-16
7.05078e-16
6.88456e-16
6.1507e-16
6.56827e-17
7.15373e-17
7.52951e-17
7.20593e-17
5.35404e-18
6.30964e-18
7.2234e-18
7.47624e-18
3.77106e-19
4.87817e-19
6.13334e-19
6.93219e-19
2.31343e-20
3.3319e-20
4.64821e-20
5.79437e-20
1.24547e-21
2.02304e-21
3.16475e-21
4.39588e-21
5.91889e-23
1.09722e-22
1.94601e-22
3.04559e-22
2.49005e-24
5.32451e-24
1.08335e-23
1.93408e-23
9.25441e-26
2.3079e-25
5.45943e-25
1.12769e-24
3.0143e-27
8.8663e-27
2.47695e-26
6.02329e-26
8.45821e-29
2.97225e-28
1.00005e-27
2.92993e-27
1.99701e-30
8.45978e-30
3.50257e-29
1.27424e-28
3.69207e-32
1.90792e-31
1.00702e-30
4.84849e-30
5.89356e-34
3.35414e-33
2.00787e-32
1.3123e-31
0.891639
0.962137
0.99122
0.968365
0.586022
0.17899
0.0857527
0.0979687
0.314149
0.777768
0.915074
0.917984
0.656525
0.121081
0.675948
0.991223
0.99987
0.990413
0.894086
0.399252
0.762207
0.916246
0.944651
0.94477
0.885434
0.695177
0.674924
0.792709
0.900212
0.915167
0.878337
0.378691
0.0571691
0.828583
0.998985
0.999398
0.978034
0.975968
0.105835
0.407614
0.653401
0.805107
0.887253
0.888417
0.887837
0.876536
0.878098
0.894971
0.903838
0.704167
0.152913
0.0373802
0.718713
0.999007
0.997927
0.978155
0.999001
0.049484
0.152337
0.332483
0.532839
0.709389
0.763701
0.773926
0.788422
0.827754
0.87441
0.847478
0.386986
0.0328552
0.0124827
0.375916
0.987891
0.998022
0.991786
0.999973
0.026652
0.0430662
0.0995347
0.217694
0.384337
0.496037
0.584967
0.680617
0.79852
0.856007
0.633583
0.1259
0.00303366
0.00153219
0.108664
0.831051
0.999501
0.999478
0.999992
0.0487837
0.0497915
0.0582477
0.0911617
0.169141
0.28722
0.463913
0.64363
0.79631
0.73638
0.267845
0.0187194
0.000111556
6.56262e-05
0.0259109
0.550506
0.99983
0.999965
0.999996
0.355647
0.238682
0.158288
0.139195
0.159063
0.250431
0.467286
0.696106
0.708377
0.374538
0.0463582
0.000660446
2.62637e-06
2.34579e-06
0.00180695
0.118608
0.886926
0.999946
0.999996
0.889038
0.694356
0.407634
0.277
0.286266
0.406372
0.615331
0.697626
0.44188
0.0741412
0.00172701
4.20843e-06
3.02148e-06
2.23294e-06
3.32451e-05
0.00384033
0.306499
0.999272
0.999995
0.907031
0.850086
0.666586
0.532085
0.555493
0.682888
0.683361
0.443269
0.0804285
0.00199372
5.30261e-06
3.22812e-06
2.97843e-06
2.2337e-06
2.55496e-06
2.07628e-05
0.0695276
0.992078
0.999984
0.32353
0.581513
0.767531
0.817011
0.817194
0.785388
0.417758
0.0474806
0.00035456
4.16783e-06
2.94163e-06
2.34831e-06
2.35228e-06
2.3442e-06
2.71125e-06
3.28253e-06
0.0084078
0.960384
0.999829
0.00158156
0.0316545
0.203751
0.458431
0.477968
0.207888
0.011047
1.24381e-05
2.90288e-06
2.29947e-06
1.67486e-06
1.4718e-06
1.64252e-06
2.13432e-06
2.77306e-06
3.30813e-06
8.49468e-05
0.821799
0.998068
2.52602e-07
2.99235e-06
0.000390307
0.00241007
0.0013826
0.000170984
7.83608e-06
2.36661e-06
1.48283e-06
1.11222e-06
8.50978e-07
8.2461e-07
1.05589e-06
1.69706e-06
2.7417e-06
3.20252e-06
3.61652e-06
0.501345
0.982891
3.9368e-08
1.33301e-07
6.20157e-07
1.24951e-06
1.64283e-06
1.61874e-06
6.02644e-07
7.21899e-07
6.05552e-07
4.63884e-07
3.89005e-07
4.43145e-07
6.68029e-07
1.29981e-06
2.43915e-06
2.9636e-06
3.40896e-06
0.196796
0.93957
4.13096e-08
7.09013e-08
2.46712e-07
7.3988e-07
8.82121e-07
3.30398e-07
2.20957e-07
2.38883e-07
2.12846e-07
1.7791e-07
1.75096e-07
2.45336e-07
4.35466e-07
9.62797e-07
1.94955e-06
2.636e-06
3.21296e-06
0.154702
0.929563
2.22793e-08
3.78762e-08
7.53959e-08
1.29308e-07
1.73184e-07
9.16566e-08
7.53124e-08
7.67694e-08
7.28184e-08
6.92331e-08
8.45257e-08
1.48714e-07
3.10632e-07
7.36991e-07
1.54013e-06
2.31948e-06
3.09279e-06
0.247279
0.938959
7.13215e-09
1.18037e-08
1.72025e-08
2.58881e-08
3.05531e-08
2.99214e-08
2.83849e-08
2.74254e-08
2.65473e-08
2.95762e-08
4.69115e-08
1.02492e-07
2.49284e-07
6.08824e-07
1.32398e-06
2.13941e-06
3.05611e-06
0.560331
0.964947
2.79947e-09
3.1252e-09
5.19076e-09
6.6015e-09
9.11442e-09
1.00478e-08
9.83575e-09
9.57232e-09
1.0202e-08
1.44207e-08
3.0304e-08
7.87172e-08
2.15411e-07
5.31055e-07
1.21822e-06
2.12458e-06
3.07584e-06
0.711945
0.983791
8.42155e-10
9.14074e-10
1.23994e-09
1.76718e-09
2.35788e-09
2.96664e-09
3.23819e-09
3.29011e-09
4.14555e-09
8.04447e-09
2.15373e-08
6.29876e-08
1.88325e-07
4.72884e-07
1.13797e-06
2.25051e-06
3.14519e-06
0.603029
0.981532
3.0319e-10
2.25309e-10
2.9583e-10
4.34668e-10
5.93124e-10
7.78269e-10
9.71685e-10
1.15043e-09
1.85001e-09
4.87403e-09
1.5423e-08
4.87673e-08
1.56986e-07
4.11195e-07
1.05682e-06
2.42905e-06
3.21635e-06
0.276512
0.962361
9.00448e-11
5.20133e-11
7.00855e-11
1.04319e-10
1.48946e-10
1.94614e-10
2.7637e-10
4.15101e-10
9.29148e-10
3.0663e-09
1.08464e-08
3.63837e-08
1.26453e-07
3.49047e-07
9.96487e-07
2.4986e-06
3.27642e-06
0.051866
0.920792
4.91287e-11
1.30906e-11
1.33948e-11
2.18228e-11
3.41056e-11
4.92516e-11
7.81356e-11
1.58451e-10
4.89384e-10
1.84287e-09
6.87325e-09
2.2327e-08
9.79908e-08
2.77571e-07
9.19828e-07
2.38483e-06
3.32044e-06
0.00462484
0.871118
2.13132e-11
4.49093e-12
2.94192e-12
4.62731e-12
7.5173e-12
1.16219e-11
2.15167e-11
6.07135e-11
2.37158e-10
9.91874e-10
3.98097e-09
1.41996e-08
5.60472e-08
1.29476e-07
6.25276e-07
2.11964e-06
3.2844e-06
0.000303816
0.833922
7.33393e-12
1.54079e-12
6.69899e-13
9.7606e-13
1.64106e-12
2.66469e-12
5.36373e-12
1.82264e-11
8.19748e-11
3.99412e-10
1.78694e-09
7.08033e-09
3.06581e-08
5.43654e-08
4.18084e-07
2.45686e-06
4.03199e-06
0.000157406
0.744011
2.16484e-12
4.86009e-13
1.56522e-13
1.9373e-13
3.33043e-13
5.82664e-13
1.32531e-12
5.09083e-12
2.41226e-11
1.21494e-10
7.17753e-10
3.36428e-09
1.75202e-08
3.85329e-08
2.58967e-07
9.40026e-06
1.88732e-05
0.000289127
0.431837
5.55103e-13
1.36318e-13
3.70347e-14
3.56304e-14
5.94145e-14
9.98757e-14
1.97677e-13
7.54982e-13
4.70735e-12
2.91166e-11
2.02103e-10
1.53026e-09
1.03039e-08
4.00294e-08
3.72112e-07
2.57141e-05
0.000102381
0.00149874
0.130023
1.20764e-13
3.37891e-14
8.6282e-15
6.35958e-15
1.0397e-14
1.97749e-14
5.32838e-14
2.75114e-13
1.99305e-12
1.52649e-11
1.32233e-10
1.15444e-09
8.50961e-09
4.82909e-08
4.25003e-07
4.55214e-05
0.000331674
0.00663221
0.261983
2.25209e-14
7.32814e-15
1.90406e-15
1.11537e-15
1.78358e-15
4.47338e-15
2.08691e-14
1.57343e-13
1.3506e-12
1.29097e-11
1.32814e-10
1.27615e-09
9.82578e-09
5.25531e-08
4.4158e-07
6.00097e-05
0.00103065
0.0112084
0.691157
3.6174e-15
1.38934e-15
3.88346e-16
1.97507e-16
3.60046e-16
1.73681e-15
1.45127e-14
1.38681e-13
1.44541e-12
1.57583e-11
1.64515e-10
1.52214e-09
1.15346e-08
6.16083e-08
2.79883e-07
6.92889e-05
0.00325412
0.0235368
0.945954
5.07455e-16
2.31378e-16
7.22444e-17
3.56993e-17
9.18965e-17
7.6309e-16
8.15907e-15
9.55197e-14
1.19614e-12
1.42871e-11
1.52012e-10
1.4533e-09
1.18237e-08
4.27472e-08
2.45303e-07
4.14083e-05
0.00833156
0.14412
0.985108
6.28777e-17
3.41379e-17
1.21524e-17
5.73151e-18
1.46603e-17
1.50858e-16
2.13211e-15
3.46536e-14
5.51083e-13
8.04877e-12
9.4436e-11
1.04292e-09
1.01418e-08
4.54846e-08
2.073e-07
4.55377e-06
0.00802247
0.394297
0.985829
6.95981e-18
4.50446e-18
1.85578e-18
8.75492e-19
2.24605e-18
3.13305e-17
6.7361e-16
1.46795e-14
2.99663e-13
5.46677e-12
7.20872e-11
9.09566e-10
9.75544e-09
4.22646e-08
1.8213e-07
4.81103e-07
0.00212398
0.403477
0.985829
6.94974e-19
5.3656e-19
2.59295e-19
1.47325e-19
7.81294e-19
1.85546e-17
4.93102e-16
1.24697e-14
2.85198e-13
5.67967e-12
7.38445e-11
9.53787e-10
1.05984e-08
4.31107e-08
1.18994e-07
3.26632e-07
0.000106167
0.262947
0.985829
6.31743e-20
5.82301e-20
3.33071e-20
2.53437e-20
2.79639e-19
8.89196e-18
2.85629e-16
8.56163e-15
2.26586e-13
5.00706e-12
6.72081e-11
8.56202e-10
9.9371e-09
4.30629e-08
9.84788e-08
2.4119e-07
1.04399e-06
0.0814914
0.968769
5.26871e-21
5.80879e-21
4.04606e-21
7.02818e-21
1.8557e-19
6.92157e-18
2.46627e-16
7.94472e-15
2.20934e-13
5.00692e-12
8.64795e-11
8.17207e-10
9.34217e-09
3.24792e-08
1.11439e-07
1.7805e-07
5.14399e-07
0.0122196
0.870697
4.05809e-22
5.36721e-22
4.69275e-22
1.95638e-21
7.82384e-20
3.46252e-18
1.42507e-16
5.19708e-15
1.60387e-13
3.99304e-12
7.19227e-11
1.06466e-09
9.50702e-09
5.05652e-08
2.42669e-07
3.02783e-07
5.85287e-07
0.000994588
0.6846
2.90118e-23
4.618e-23
4.95433e-23
3.21632e-22
1.66416e-20
9.15135e-19
4.66411e-17
2.11506e-15
8.14023e-14
2.50713e-12
5.33536e-11
9.44961e-10
1.03861e-08
5.86906e-08
2.76677e-07
7.25124e-07
8.57924e-07
3.35903e-05
0.514262
1.93173e-24
3.71958e-24
4.83421e-24
4.17675e-23
2.73951e-21
1.9212e-19
1.26139e-17
7.40349e-16
3.66103e-14
1.42396e-12
3.86649e-11
7.62293e-10
1.07314e-08
7.67379e-08
3.80958e-07
1.51255e-06
1.26025e-06
1.75205e-06
0.400744
1.19876e-25
2.8123e-25
4.39528e-25
4.52381e-24
3.61542e-22
3.13928e-20
2.60751e-18
1.96072e-16
1.25279e-14
6.33416e-13
2.33958e-11
5.79837e-10
9.04307e-09
6.83501e-08
5.29136e-07
2.62938e-06
1.52445e-06
1.84998e-06
0.266444
6.92666e-27
2.00066e-26
3.79619e-26
5.28338e-25
4.47787e-23
4.63137e-21
4.70966e-19
4.46975e-17
3.72071e-15
2.48133e-13
1.18455e-11
3.63766e-10
6.12486e-09
6.45633e-08
8.5834e-07
4.46894e-06
1.85122e-06
1.83688e-06
0.108727
3.68617e-28
1.33301e-27
2.89464e-27
3.41568e-26
3.55429e-24
3.7455e-22
4.45612e-20
5.39364e-18
6.04884e-16
5.67248e-14
3.88934e-12
1.66442e-10
3.44978e-09
7.54216e-08
1.09435e-06
7.22003e-06
2.21035e-06
1.83252e-06
0.0216401
1.82187e-29
8.42143e-29
2.29161e-28
5.04227e-27
7.5117e-25
1.07387e-22
1.4159e-20
1.73782e-18
1.95726e-16
1.83102e-14
1.12173e-12
4.67525e-11
2.40534e-09
5.58061e-08
9.58433e-07
6.93727e-06
6.01955e-06
2.88398e-05
0.00181781
6.88644e-31
4.54241e-30
1.3956e-29
4.47276e-29
4.80424e-27
9.2996e-25
1.54677e-22
2.16104e-20
2.43009e-18
2.03105e-16
1.09171e-14
3.01004e-13
3.58146e-12
3.85496e-09
1.55354e-07
3.52059e-06
1.61734e-05
3.81754e-05
4.88281e-05
)
;

boundaryField
{
    leftWall
    {
        type            zeroGradient;
    }
    rightWall
    {
        type            zeroGradient;
    }
    lowerWall
    {
        type            zeroGradient;
    }
    atmosphere
    {
        type            inletOutlet;
        inletValue      uniform 0;
        value           nonuniform List<scalar> 
46
(
0
0
0
0
0
0
0
0
0
0
0
0
0
0
0
0
0
0
0
0
0
0
0
0
0
0
0
0
0
0
0
0
0
0
0
0
0
0
0
0
0
0
0
1.61734e-05
3.81754e-05
4.88281e-05
)
;
    }
    defaultFaces
    {
        type            empty;
    }
}


// ************************************************************************* //
