/*--------------------------------*- C++ -*----------------------------------*\
| =========                 |                                                 |
| \\      /  F ield         | OpenFOAM: The Open Source CFD Toolbox           |
|  \\    /   O peration     | Version:  2.4.0                                 |
|   \\  /    A nd           | Web:      www.OpenFOAM.org                      |
|    \\/     M anipulation  |                                                 |
\*---------------------------------------------------------------------------*/
FoamFile
{
    version     2.0;
    format      ascii;
    class       volScalarField;
    location    "0.4";
    object      alphas;
}
// * * * * * * * * * * * * * * * * * * * * * * * * * * * * * * * * * * * * * //

dimensions      [0 0 0 0 0 0 0];

internalField   nonuniform List<scalar> 
2268
(
2
2
2
2
2
2
2
2
2
2
2
2
2
2
2
2
2
2
2
2
2
2
1.99997
2
2
2
2
2
2
2
2
2
2
2
2
2
2
2
2
2
2
2
2
2
2
1.99997
2
2
2
2
2
2
2
2
2
2
2
2
2
2
2
2
2
2
2
2
2
2
1.99997
2
2
2
2
2
2
2
2
2
1.99999
1.99997
1.99996
1.99992
1.99988
1.99979
1.99987
1.99994
1.99997
1.99999
2
2
2
1.99996
1.99966
1.99963
1.99963
1.99933
1.9995
1.999
1.99847
1.99818
1.99664
1.99391
1.98867
1.98352
1.9736
1.96228
1.94472
1.95972
1.98509
1.9971
1.99967
1.99996
1.99999
1.99999
1.99996
1.95381
1.95127
1.94977
1.93243
1.93634
1.90928
1.87874
1.85346
1.79203
1.70641
1.58092
1.4662
1.31383
1.13958
0.958301
0.835752
0.963081
1.37749
1.85923
1.98948
1.99968
1.99998
1.99995
1.26198
1.24299
1.22183
1.13194
1.11143
0.985423
0.84757
0.730854
0.56583
0.399499
0.243482
0.139736
0.0665644
0.0247505
0.00657618
0.000888751
0.0139353
0.149871
0.86991
1.80901
1.99173
1.99985
1.99993
0.165785
0.156899
0.143971
0.115783
0.0989279
0.0671683
0.0408578
0.0229754
0.0102286
0.00392694
0.00127937
0.000427178
0.000167283
7.62295e-05
3.74669e-05
5.65852e-05
0.000156853
0.00179199
0.101616
1.05842
1.90891
1.99827
1.99993
1.00038
1.00038
1.00038
1.00035
1.00046
1.00122
1.00538
1.02094
1.05835
1.10601
1.11491
1.11491
1.11561
1.11561
1.11627
1.11602
1.11608
1.11569
1.11674
1.00036
1.00021
1.00011
1.00005
1.00004
1.00004
1.00004
1.00006
1.00034
1.00389
1.03773
1.11324
1.11495
1.11629
1.11562
1.1167
1.11542
1.11195
1.10195
1.00022
1.00004
1.00002
1.00003
1.00003
1.00016
1.00072
1.00054
1.00032
1.00309
1.01638
1.04009
1.09124
1.11522
1.11699
1.11568
1.0885
1.03208
1.02352
1.00016
1.00002
1.00002
1.00002
1.00161
1.05213
1.17062
1.13654
1.02513
1.00532
1.02404
1.04082
1.05134
1.05591
1.0585
1.03942
1.01277
1.00236
1.00149
1.00019
1.00002
1.00002
1.00077
1.19185
2.2612
2.67564
2.63857
1.8439
1.08412
1.03873
1.05075
1.05472
1.04717
1.02632
1.00589
1.00058
1.00046
1.00056
1.00018
1.00002
1.0002
1.10849
2.69276
2.99623
2.99811
2.9981
2.98813
1.93664
1.12441
1.05955
1.05817
1.05804
1.02225
1.00219
1.00015
1.00147
1.0026
1.00007
1.00002
1.0001
1.76389
2.90231
2.99811
2.99811
2.9981
2.99643
2.57296
1.27567
1.06396
1.07241
1.34744
1.21329
1.01737
1.00019
1.0037
1.15471
1.00067
1.00002
1.00005
1.39231
2.63984
2.99003
2.99811
2.99811
2.9312
2.11563
1.23671
1.06702
1.16644
2.32628
1.91934
1.04718
1.0002
1.00193
1.22926
0.00899741
0.00847073
0.00759093
0.00631487
0.00505331
0.00348168
0.00221218
0.00126653
0.000640187
0.000311896
0.000151852
7.86098e-05
4.93645e-05
3.4105e-05
3.5202e-05
4.35647e-05
0.000135189
0.000786767
0.00942341
0.194557
1.29468
1.91224
1.99588
3.04301e-05
2.89699e-05
2.67253e-05
2.37373e-05
2.01461e-05
1.59146e-05
1.26877e-05
9.08341e-06
6.34841e-06
4.81273e-06
4.02635e-06
3.88588e-06
4.13047e-06
4.45965e-06
5.83345e-06
1.10689e-05
5.27942e-05
0.000428637
0.00258569
0.0119562
0.292772
1.27684
1.85406
1.58266e-06
1.53603e-06
1.48481e-06
1.41475e-06
1.32748e-06
1.19099e-06
1.16551e-06
1.02136e-06
1.04571e-06
1.14721e-06
1.51887e-06
2.87637e-06
8.87766e-06
3.72137e-05
4.45006e-05
4.03185e-05
4.0526e-05
8.18568e-05
0.000510783
0.00324987
0.0314498
0.328112
1.11699
5.36665e-07
5.21481e-07
4.82501e-07
4.32263e-07
3.75193e-07
3.14255e-07
3.57431e-07
3.05808e-07
2.6486e-06
7.30265e-05
0.000339171
0.000917218
0.00232372
0.0060188
0.00802605
0.00870359
0.006027
0.0030775
0.00116066
0.00135251
0.00610031
0.0385647
0.250261
0.000579786
0.000570439
0.000508986
0.000418765
0.000302564
0.000184635
6.85645e-05
4.03819e-05
0.000924353
0.00926895
0.0246223
0.045711
0.0819656
0.13997
0.182017
0.210638
0.181023
0.127336
0.0741223
0.0381771
0.0162974
0.0182036
0.034557
0.122978
0.121247
0.113759
0.101516
0.0834441
0.0603276
0.0309095
0.0107552
0.0323105
0.140104
0.258064
0.374122
0.511813
0.655113
0.745655
0.802751
0.800689
0.745747
0.632823
0.496984
0.320401
0.177515
0.107789
1.88598
1.88093
1.85171
1.79678
1.70159
1.52657
1.10887
0.533975
0.365246
0.634763
0.786765
0.864082
0.947833
0.984229
0.992994
0.995716
0.997427
0.998521
0.991674
0.976307
0.855168
0.6857
0.533827
2.9988
2.9988
2.9987
2.99846
2.99788
2.99648
2.98589
2.79406
2.23003
2.09604
1.84096
1.57412
1.38566
1.22755
1.13925
1.07782
1.04426
1.02783
1.01112
1.00985
0.997877
0.990234
0.98397
3
3
3
3
3
2.99999
2.99976
2.99903
2.99786
2.99553
2.9869
2.96657
2.91768
2.81388
2.68158
2.49642
2.2659
1.99745
1.64764
1.51075
1.15106
1.11011
1.09562
3
3
3
3
2.99999
2.99998
2.99999
2.99999
2.99999
2.99999
3
3
3
3
3
2.99999
2.99997
2.99931
2.98179
2.94844
2.66346
2.49578
2.40176
3
3
3
3
3
3
3
3
3
3
3
3
3
3
3
3
3
3
3
3
3
2.99999
2.99995
3
3
3
3
3
3
3
3
3
3
3
3
3
3
3
3
3
3
3
3
3
3
3
3
3
3
3
3
3
3
3
3
3
3
3
3
3
3
3
3
3
3
3
3
3
3
3
3
3
3
3
3
3
3
3
3
3
3
3
3
3
3
3
3
3
3
3
3
3
3
3
3
3
3
3
3
3
3
3
3
3
3
3
3
3
3
3
3
3
3
3
3
3
3
3
3
3
3
3
3
3
3
3
3
3
3
3
3
3
3
3
3
3
3
3
3
3
3
3
3
3
3
3
3
3
3
3
3
3
3
3
3
3
3
3
3
3
3
3
3
3
3
3
3
3
3
3
3
3
3
3
3
3
3
3
3
3
3
3
3
3
3
3
3
3
3
3
3
3
3
3
3
3
3
3
3
3
3
3
3
3
3
3
3
3
3
3
3
3
3
3
3
3
3
3
3
3
3
3
3
3
3
3
3
3
3
3
3
3
3
3
3
3
3
3
3
3
3
3
3
3
3
3
3
3
3
3
3
3
3
3
3
3
3
3
3
3
3
3
3
3
3
3
3
3
3
3
3
3
3
3
3
3
3
3
3
3
3
3
3
3
3
3
3
3
3
3
3
3
3
3
3
3
3
3
3
3
3
3
3
3
3
3
3
3
3
3
3
3
3
3
3
3
3
3
3
3
3
3
3
3
3
3
3
3
3
3
3
3
3
3
3
3
3
3
3
3
3
2.99999
2.99999
2.99999
2.99999
3
3
3
3
3
3
3
3
3
3
3
3
3
3
3
3
3
3
3
2.99999
2.99999
2.99999
2.99999
3
3
3
3
3
3
3
3
3
3
3
3
3
3
3
3
3
3
3
2.99999
2.99999
2.99999
2.99999
3
3
3
3
3
3
3
3
3
3
3
3
3
3
3
3
3
3
3
3
2.99999
2.99999
2.99999
3
3
3
3
3
3
3
3
3
3
3
3
3
3
3
3
3
3
3
3
2.99999
2.99999
2.99999
3
3
3
3
3
3
3
3
3
3
3
3
3
3
3
3
3
3
3
3
3
2.99999
2.99999
3
3
3
3
3
3
3
3
3
3
3
3
3
3
3
3
3
3
3
3
3
3
2.99999
3
3
3
3
3
3
3
3
3
3
3
3
3
3
3
3
3
3
3
3
3
3
2.99999
3
3
3
3
3
3
3
3
3
3
3
3
3
3
3
3
3
3
3
3
3
3
3
3
3
3
3
3
3
3
3
3
3
3
3
3
3
3
3
3
3
3
3
3
3
3
3
3
3
3
3
3
3
3
3
3
3
3
3
3
3
3
3
3
3
3
3
3
3
3
3
3
3
3
3
3
3
3
3
3
3
3
3
3
3
3
3
3
3
3
3
3
3
3
3
3
3
3
3
3
3
3
3
3
3
3
3
3
3
3
3
3
3
3
3
3
3
3
3
3
3
3
3
3
3
3
3
3
3
3
3
3
3
3
3
3
3
3
3
3
3
3
3
3
3
3
3
3
3
3
3
3
3
3
3
3
3
3
3
3
3
3
3
3
3
3
3
3
3
3
3
3
3
3
3
3
3
3
3
3
3
3
3
3
3
3
3
3
3
3
3
3
3
3
3
3
3
3
3
3
3
3
3
3
3
3
3
3
3
3
3
3
3
3
3
3
3
3
3
3
3
3
3
3
3
3
3
3
3
3
1.9829
2.02762
2.14017
1.68625
1.98175
1.97428
2.04356
2.15049
1.63686
1.79811
1.82879
1.84339
0.5288
0.752747
0.963449
1.08359
0.0630565
0.098567
0.149625
0.20151
0.0746162
0.07526
0.0803533
0.0846038
0.464628
0.426904
0.400767
0.396985
0.98055
0.976785
0.969836
0.964556
1.12444
1.15418
1.15211
1.15845
2.45566
2.50044
2.47724
2.45191
2.99991
2.99985
2.99967
2.99936
3
3
3
3
3
3
3
3
3
3
3
3
3
3
3
3
3
3
3
3
3
3
3
3
3
3
3
3
3
3
3
3
3
3
3
3
3
3
3
3
3
3
3
3
3
3
3
3
3
3
3
3
3
3
3
3
3
3
3
3
2.99999
2.99999
3
2.99999
2.99999
2.99999
2.99999
2.99999
2.99999
2.99999
2.99999
2.99999
2.99999
2.99999
2.99999
2.99999
2.99999
2.99999
2.99999
2.99999
3
3
2.99999
2.99999
3
3
3
2.99999
3
3
3
2.99999
3
3
3
3
3
3
3
3
3
3
3
3
3
3
3
3
3
3
3
3
3
3
3
3
3
3
3
3
3
3
3
3
1.11801
1.03771
1.00878
1.05883
1.82588
2.64126
2.82755
2.80178
2.35234
1.37841
1.09021
1.08791
1.62801
2.74685
1.64797
1.01752
1.00019
1.01911
1.21181
1.75467
1.25648
1.08349
1.05654
1.07018
1.20499
1.58131
1.60354
1.32544
1.09579
1.07081
1.15319
2.19797
2.88255
1.34281
1.002
1.00114
1.04387
1.04804
1.80334
1.52772
1.29892
1.17206
1.10902
1.10949
1.10341
1.10007
1.08145
1.06395
1.0615
1.50292
2.67664
2.92486
1.56257
1.00197
1.0041
1.04363
1.00198
1.10726
1.17492
1.17904
1.15519
1.14395
1.11892
1.09158
1.05958
1.04564
1.0387
1.14702
2.17468
2.93103
2.97502
2.24817
1.02421
1.00393
1.01638
1.00004
0.262186
0.378197
0.53739
0.713431
0.869408
0.918082
0.928867
0.953389
0.985598
1.02601
1.60846
2.73359
2.9937
2.99694
2.78268
1.3379
1.00098
1.00102
1.00001
0.0960538
0.128098
0.212096
0.358882
0.488007
0.595325
0.735754
0.857919
0.941594
1.24814
2.41163
2.96082
2.99978
2.99987
2.94818
1.89899
1.00034
1.00006
1.00001
0.360457
0.263486
0.23438
0.278939
0.367925
0.470087
0.64879
0.8302
1.08064
2.11651
2.9
2.99865
3
3
2.99639
2.76279
1.22615
1.0001
1.00001
0.905403
0.701268
0.436181
0.355537
0.388414
0.500551
0.706709
0.998164
1.93613
2.83686
2.99639
3
3
3
2.99994
2.99233
2.38701
1.00145
1.00001
1.13907
0.959834
0.698105
0.559045
0.584815
0.735184
1.08628
1.94116
2.8239
2.99585
3
3.00001
3.00001
3
3
2.99997
2.86095
1.01585
1.00003
2.34761
1.7527
1.17597
0.968042
0.998236
1.20104
2.09516
2.89964
2.99924
3
3.00001
3.00001
3.00001
3
3
3
2.98319
1.07924
1.00034
2.99681
2.93496
2.58065
2.06375
2.02734
2.57793
2.97753
2.99998
3
3.00001
3.00001
3.00001
3.00001
3.00001
3
3
2.99984
1.35641
1.00387
3
2.99999
2.99921
2.99516
2.99723
2.99966
2.99999
3
3.00001
3.00001
3.00001
3.00001
3.00001
3.00001
3.00001
3
3
1.99732
1.03422
3
3
3
3
3
3
3
3.00001
3.00001
3.00001
3.00001
3.00001
3.00001
3.00001
3.00001
3.00001
3
2.60641
1.12086
3
3
3
3
3
3
3
3.00001
3.00001
3.00001
3.00001
3.00001
3.00001
3.00001
3.00001
3.00001
3.00001
2.6906
1.14088
3
3
3
3
3
3
3
3
3.00001
3.00001
3.00001
3.00001
3.00001
3.00001
3.00001
3.00001
3.00001
2.50545
1.12209
3
3
3
3
3
3
3
3
3
3
3
3
3
3
3
3.00001
3.00001
1.87935
1.07011
3
3
3
3
3
3
3
3
3
3
3
3
3
3
3
3.00001
3.00001
1.57612
1.03242
3
3
3
3
3
3
3
3
3
3
3
3
3
3
3
3.00001
3.00001
1.79395
1.03694
3
3
3
3
3
3
3
3
3
3
3
3
3
3
3
3
3.00001
2.44698
1.07528
3
3
3
3
3
3
3
3
3
3
3
3
3
3
3
3
3
2.89628
1.15842
3
3
3
3
3
3
3
3
3
3
3
3
3
3
3
3
3
2.99076
1.25777
3
3
3
3
3
3
3
3
3
3
3
3
3
3
3
3
3
2.9994
1.33216
3
3
3
3
3
3
3
3
3
3
3
3
3
3
3
3
3
2.9997
1.51198
3
3
3
3
3
3
3
3
3
3
3
3
3
3
3
2.99999
2.99997
2.99943
2.13633
3
3
3
3
3
3
3
3
3
3
3
3
3
3
3
2.99995
2.9998
2.99701
2.73996
3
3
3
3
3
3
3
3
3
3
3
3
3
3
3
2.99991
2.99934
2.98675
2.47604
2.99999
3
3
3
3
3
3
3
3
3
3
3
3
3
3
2.99988
2.99795
2.97759
1.61769
2.99999
2.99999
2.99999
2.99999
2.99999
3
3
3
3
3
3
3
3
3
3
2.99986
2.9935
2.95294
1.1081
2.99999
2.99999
2.99999
2.99999
2.99999
2.99999
3
3
3
3
3
3
3
3
3
2.99992
2.98334
2.71177
1.02979
2.99999
2.99999
2.99999
2.99999
2.99999
2.99999
3
3
3
3
3
3
3
3
3
2.99999
2.98396
2.21141
1.02835
2.99999
2.99999
2.99999
2.99999
2.99999
2.99999
3
3
3
3
3
3
3
3
3
3
2.99575
2.19305
1.02835
2.99999
2.99999
2.99999
2.99999
2.99999
3
3
3
3
3
3
3
3
3
3
3
2.99979
2.47411
1.02835
2.99999
2.99999
2.99999
2.99999
2.99999
3
3
3
3
3
3
3
3
3
3
3
3
2.83702
1.06247
2.99999
2.99999
2.99999
2.99999
2.99999
3
3
3
3
3
3
3
3
3
3
3
3
2.97556
1.25861
2.99999
2.99999
2.99999
2.99999
3
3
3
3
3
3
3
3
3
3
3
3
3
2.99801
1.63081
3
2.99999
2.99999
3
3
3
3
3
3
3
3
3
3
3
3
3
3
2.99994
1.97148
3
3
3
3
3
3
3
3
3
3
3
3
3
3
3
3
3
3
2.19852
3
3
3
3
3
3
3
3
3
3
3
3
3
3
3
3
3
3
2.46712
3
3
3
3
3
3
3
3
3
3
3
3
3
3
3
2.99999
3
3
2.78255
3
3
3
3
3
3
3
3
3
3
3
3
3
3
3
2.99999
3
3
2.95673
3
3
3
3
3
3
3
3
3
3
3
3
3
3
3
2.99999
2.99999
2.99995
2.99637
3
3
3
3
3
3
3
3
3
3
3
3
3
3
3
2.99999
2.99997
2.99993
2.99991
)
;

boundaryField
{
    leftWall
    {
        type            zeroGradient;
    }
    rightWall
    {
        type            zeroGradient;
    }
    lowerWall
    {
        type            zeroGradient;
    }
    atmosphere
    {
        type            zeroGradient;
    }
    defaultFaces
    {
        type            empty;
    }
}


// ************************************************************************* //
