/*--------------------------------*- C++ -*----------------------------------*\
| =========                 |                                                 |
| \\      /  F ield         | OpenFOAM: The Open Source CFD Toolbox           |
|  \\    /   O peration     | Version:  2.4.0                                 |
|   \\  /    A nd           | Web:      www.OpenFOAM.org                      |
|    \\/     M anipulation  |                                                 |
\*---------------------------------------------------------------------------*/
FoamFile
{
    version     2.0;
    format      ascii;
    class       volScalarField;
    location    "0.4";
    object      alpha.air;
}
// * * * * * * * * * * * * * * * * * * * * * * * * * * * * * * * * * * * * * //

dimensions      [0 0 0 0 0 0 0];

internalField   nonuniform List<scalar> 
2268
(
2.28168e-15
2.31641e-15
2.13066e-15
3.17137e-15
1.9108e-15
3.86696e-15
3.72969e-15
2.79761e-15
3.66803e-15
6.2184e-15
8.10489e-15
7.07427e-15
5.61229e-15
4.8919e-15
5.09221e-15
5.86647e-15
5.40085e-15
4.2345e-15
2.89557e-15
1.71501e-15
8.39679e-16
3.01847e-16
6.02142e-17
3.51906e-14
3.55907e-14
3.3337e-14
4.53684e-14
3.10775e-14
5.18375e-14
5.09615e-14
4.23001e-14
5.31442e-14
7.71711e-14
9.3914e-14
8.49871e-14
7.41345e-14
6.81474e-14
6.96805e-14
7.09723e-14
6.17188e-14
4.70427e-14
3.11672e-14
1.7507e-14
7.72477e-15
2.55177e-15
5.70369e-16
2.49521e-13
2.50515e-13
2.38734e-13
2.97116e-13
2.29487e-13
3.22417e-13
3.2144e-13
2.91581e-13
3.49193e-13
4.41579e-13
4.99205e-13
4.76435e-13
4.58898e-13
4.38315e-13
4.30132e-13
4.00277e-13
3.35958e-13
2.49781e-13
1.62816e-13
8.73613e-14
3.78481e-14
1.24202e-14
2.90027e-15
1.06627e-12
1.06221e-12
1.02669e-12
1.18069e-12
1.00145e-12
1.22275e-12
1.22235e-12
1.16744e-12
1.32277e-12
1.51028e-12
1.63463e-12
1.63099e-12
1.6263e-12
1.56944e-12
1.50149e-12
1.35081e-12
1.11777e-12
8.3421e-13
5.39558e-13
2.87224e-13
1.22478e-13
3.82935e-14
7.39342e-15
3.17655e-12
3.15383e-12
3.09869e-12
3.38286e-12
3.00828e-12
3.25248e-12
3.15253e-12
3.01863e-12
3.13586e-12
3.43406e-12
3.60907e-12
3.61344e-12
3.55359e-12
3.43067e-12
3.23085e-12
2.92162e-12
2.49591e-12
1.94678e-12
1.30639e-12
7.36857e-13
3.41842e-13
1.19472e-13
2.67763e-14
8.91331e-12
8.73637e-12
8.87095e-12
9.60376e-12
8.51522e-12
8.08982e-12
7.00281e-12
5.88587e-12
5.09877e-12
5.71018e-12
5.61469e-12
5.39385e-12
5.23022e-12
5.43608e-12
4.82027e-12
4.29227e-12
3.78659e-12
3.14914e-12
2.25888e-12
1.35802e-12
6.84451e-13
2.75839e-13
6.53619e-14
3.55098e-11
3.39741e-11
3.66802e-11
4.02676e-11
3.58111e-11
2.93429e-11
2.22834e-11
1.41295e-11
6.76402e-12
8.84585e-12
6.86079e-12
6.04697e-12
7.49817e-12
1.1369e-11
8.79094e-12
6.56654e-12
4.27796e-12
3.47164e-12
2.66983e-12
1.73444e-12
9.65541e-13
4.45886e-13
1.33622e-13
1.59382e-10
1.79965e-10
2.13554e-10
2.21976e-10
2.06612e-10
1.67856e-10
9.96976e-11
5.16615e-11
6.93247e-12
6.64894e-12
6.47996e-12
6.26307e-12
3.39905e-11
1.23113e-10
5.86753e-11
4.09624e-11
7.98571e-12
3.38649e-12
2.76878e-12
1.95964e-12
1.12335e-12
5.71359e-13
1.95595e-13
1.85718e-05
2.05643e-05
1.92612e-05
5.42857e-06
3.39895e-07
2.74497e-07
6.29096e-07
2.0333e-06
2.67719e-06
2.11315e-06
1.44846e-06
2.33574e-06
1.02973e-05
9.87788e-06
5.4223e-06
5.41976e-06
1.82555e-05
0.000312332
0.00135312
1.03722e-05
1.1115e-05
6.43776e-06
1.16404e-06
3.39926e-07
8.75281e-07
4.32805e-06
5.28932e-07
3.50364e-07
8.70205e-08
8.8505e-08
2.72174e-07
2.50768e-06
1.64798e-05
1.51963e-05
5.5895e-06
9.70538e-06
0.000912275
0.00166599
9.79742e-06
1.765e-06
9.31092e-07
9.24852e-07
2.73358e-06
6.69275e-05
0.000346817
0.00023546
2.22208e-05
6.33376e-07
1.67139e-06
5.48612e-06
7.83799e-06
1.64732e-05
3.07515e-05
1.50267e-05
1.93847e-05
0.000254877
0.00117342
4.43211e-05
6.67681e-07
7.82835e-07
5.54038e-06
0.000799695
0.0260585
0.0853043
0.068264
0.0124627
0.000343162
9.402e-05
0.000104879
3.90119e-05
3.65147e-05
8.60062e-05
8.23866e-05
2.24565e-05
2.56947e-05
0.00017661
6.34773e-05
6.692e-07
4.90139e-06
0.000382497
0.0959198
0.630596
0.837817
0.819284
0.421901
0.0395383
0.00398812
0.000881298
0.00012753
0.000155853
0.000251829
0.000100886
1.17002e-05
5.24508e-05
0.000148085
6.36956e-05
2.75592e-06
9.31895e-05
0.0542424
0.846373
0.99811
0.999054
0.999052
0.994038
0.464767
0.0438125
0.00232346
0.000618021
0.00596306
0.00124564
0.000105253
1.18227e-05
0.000678282
0.0012685
2.01636e-05
2.90997e-06
4.5716e-05
0.381943
0.951148
0.999053
0.999053
0.999052
0.998191
0.77993
0.114606
0.00296964
0.00707322
0.150806
0.101346
0.00834117
4.92811e-05
0.00180149
0.0773365
7.76335e-06
4.01129e-06
2.43515e-05
0.196151
0.819914
0.99501
0.999054
0.999054
0.965211
0.541737
0.090169
0.00361994
0.0535295
0.650398
0.458951
0.0235514
6.28004e-05
0.000920335
0.114615
6.20074e-10
6.65703e-10
7.30244e-10
7.64033e-10
7.78944e-10
7.84396e-10
7.22249e-10
6.40976e-10
6.22115e-10
7.4902e-10
1.10449e-09
1.6904e-09
3.0237e-09
4.37055e-09
3.72799e-09
2.37053e-09
1.06633e-09
2.54494e-10
3.27444e-11
1.14588e-11
3.65126e-12
1.37669e-12
2.86159e-13
1.54074e-09
1.64133e-09
1.76621e-09
1.85342e-09
1.94969e-09
2.08103e-09
2.14436e-09
2.40092e-09
3.45522e-09
5.02989e-09
7.40405e-09
9.39633e-09
1.12608e-08
1.26869e-08
1.27129e-08
1.00606e-08
5.17559e-09
2.16011e-09
6.93904e-10
1.92166e-10
5.71113e-11
9.26029e-12
2.00638e-12
9.89458e-09
9.84132e-09
9.11566e-09
8.25448e-09
7.45641e-09
7.08062e-09
9.69716e-09
1.47248e-08
1.53277e-08
1.21566e-08
1.23356e-08
1.23443e-08
1.17726e-08
1.14719e-08
1.29823e-08
1.34839e-08
1.2227e-08
6.53213e-09
2.88618e-09
1.07766e-09
2.94406e-10
1.60955e-10
5.57834e-11
1.36471e-07
1.32755e-07
1.2075e-07
1.0558e-07
8.86568e-08
7.24931e-08
8.95655e-08
5.89485e-08
2.87245e-08
1.66821e-08
1.28172e-08
9.68633e-09
6.37861e-09
3.77783e-09
2.71182e-09
2.71205e-09
3.09439e-09
3.02544e-09
2.50993e-09
2.12717e-09
1.33194e-09
6.54351e-10
2.16226e-10
0.000193262
0.000190146
0.000169662
0.000139588
0.000100854
6.1545e-05
2.27875e-05
5.35369e-06
1.58806e-06
1.18777e-06
7.12457e-07
2.61858e-07
9.83891e-08
4.57431e-08
2.17387e-08
9.98676e-09
3.26978e-09
1.25862e-09
1.25274e-09
1.12692e-09
8.94599e-10
7.58697e-10
3.50691e-10
0.0409928
0.0404156
0.0379197
0.0338388
0.0278147
0.0201092
0.010298
0.00299679
0.0009086
0.000922196
0.000568211
0.000192522
5.65342e-05
1.71202e-05
6.97594e-06
3.95813e-06
2.20917e-06
1.37136e-06
2.46897e-07
9.95462e-09
7.88748e-10
5.05783e-10
3.62066e-10
0.628662
0.626977
0.617236
0.598928
0.567198
0.508855
0.369593
0.173828
0.0740027
0.0765039
0.0520525
0.0221522
0.00794106
0.00246844
0.00105115
0.000594117
0.000931303
0.00129222
0.000202336
0.000236166
3.29818e-05
6.77618e-07
1.86508e-07
0.999599
0.999601
0.999568
0.999486
0.999292
0.998826
0.995271
0.926027
0.686258
0.573381
0.426218
0.288482
0.193218
0.113967
0.0697372
0.0389774
0.0221747
0.0139481
0.00561063
0.00497641
0.000970159
0.000934289
0.00141779
0.999999
0.999999
0.999999
0.999999
0.999999
0.999993
0.999882
0.999526
0.998946
0.99777
0.993455
0.98329
0.958843
0.906948
0.840797
0.748216
0.63295
0.498726
0.323823
0.255377
0.0755347
0.055076
0.0479405
0.999999
0.999999
0.999999
0.999999
0.999997
0.999992
0.999995
0.999997
0.999997
0.999997
0.999999
1
0.999999
0.999999
0.999999
0.999998
0.999986
0.999655
0.990897
0.974218
0.831729
0.747892
0.700883
0.999999
0.999999
0.999999
0.999999
0.999999
0.999999
0.999999
0.999999
1
1
1
1
1
1
0.999999
0.999999
1
1
1
1
0.999999
0.999993
0.999976
0.999999
0.999998
0.999998
0.999999
0.999999
0.999999
0.999999
0.999999
0.999999
1
1
1
1
0.999999
0.999999
0.999999
0.999999
1
1
1
1
1
1
0.999998
0.999998
0.999998
0.999999
0.999999
0.999999
0.999999
0.999999
0.999999
0.999999
1
1
0.999999
0.999999
0.999999
0.999999
0.999999
0.999999
1
1
1
1
1
0.999998
0.999998
0.999998
0.999999
0.999999
0.999999
0.999999
0.999999
0.999999
1
1
1
0.999999
0.999999
0.999999
0.999999
0.999999
1
1
1
1
1
1
0.999998
0.999999
0.999999
0.999999
0.999999
0.999999
0.999999
1
1
1
1
1
0.999999
0.999999
0.999999
1
1
1
1
1
1
0.999999
0.999999
0.999999
0.999999
0.999999
0.999999
0.999999
0.999999
0.999999
1
1
1
1
1
1
1
1
1
1
1
1
0.999999
0.999999
0.999999
0.999999
0.999999
0.999999
0.999999
0.999999
0.999999
0.999999
1
1
1
1
1
1
1
1
1
1
1
1
1
1
0.999999
0.999999
0.999999
0.999999
0.999999
0.999999
0.999999
0.999999
1
1
1
1
1
1
1
1
1
1
1
1
1
1
1
1
1
0.999999
0.999999
0.999999
0.999999
0.999999
1
1
1
1
1
1
1
1
1
1
1
1
1
1
1
1
1
1
1
0.999999
0.999999
0.999999
1
1
1
1
1
1
1
1
1
1
1
0.999999
1
1
1
1
1
1
1
1
0.999999
0.999999
0.999999
1
1
1
1
1
1
1
1
1
1
0.999999
1
0.999999
1
1
1
1
1
1
1
0.999999
0.999999
1
1
1
1
1
1
1
1
1
1
1
1
0.999999
0.999999
0.999999
0.999999
1
1
1
1
1
0.999999
0.999999
1
1
1
1
1
1
1
1
1
1
1
1
1
0.999999
0.999999
0.999999
0.999999
0.999999
0.999999
0.999999
1
1
1
1
1
1
1
1
1
1
1
1
1
1
1
0.999999
0.999999
0.999999
0.999999
0.999998
0.999998
0.999998
0.999999
0.999999
0.999999
1
1
1
1
1
1
1
1
1
1
1
1
1
1
0.999999
0.999999
0.999999
0.999998
0.999998
0.999998
0.999998
0.999998
1
1
1
1
1
1
1
1
1
1
1
1
1
1
1
1
0.999999
0.999999
0.999998
0.999998
0.999998
0.999998
0.999997
1
1
1
1
1
1
1
1
1
1
1
1
1
1
1
1
0.999999
0.999999
0.999999
0.999998
0.999998
0.999997
0.999997
1
1
1
1
1
1
1
1
1
1
1
1
1
1
1
1
0.999999
0.999999
0.999999
0.999998
0.999998
0.999998
0.999997
1
1
1
1
1
1
1
1
1
1
1
1
1
1
1
1
1
0.999999
0.999999
0.999999
0.999998
0.999998
0.999997
1
1
1
1
1
1
1
1
1
1
1
1
1
1
1
1
1
0.999999
0.999999
0.999999
0.999999
0.999998
0.999997
1
1
1
1
1
1
1
1
1
1
1
1
1
1
1
1
1
1
0.999999
0.999999
0.999999
0.999998
0.999998
1
1
1
1
1
1
1
1
1
1
1
1
1
1
1
1
1
1
0.999999
0.999999
0.999999
0.999999
0.999998
1
1
1
1
1
1
1
1
1
1
1
1
1
1
1
1
1
1
1
0.999999
0.999999
0.999999
0.999999
1
1
1
1
1
1
1
1
1
1
1
1
1
1
1
1
1
1
0.999999
1
0.999999
0.999999
0.999999
1
1
1
1
1
1
1
1
1
1
1
1
1
1
1
1
1
1
0.999999
1
1
1
0.999999
1
1
1
1
1
1
1
1
1
1
1
1
1
1
1
1
1
0.999999
0.999999
1
1
1
1
1
1
1
1
1
1
1
1
1
1
1
1
1
1
1
1
0.999999
0.999999
0.999999
0.999999
1
1
0.999999
1
1
1
1
1
1
1
1
1
1
1
1
1
1
1
0.999999
0.999999
0.999999
0.999999
1
1
1
1
1
1
1
1
1
1
1
1
1
1
1
1
1
1
0.999999
1
0.999999
0.999999
0.999999
1
0.999999
1
0.999999
1
1
1
1
1
1
1
1
1
1
1
1
1
1
1
1
1
1
1
1
1
1
1
1
1
1
1
1
1
1
1
1
1
1
1
1
1
1
1
1
1
1
1
1
1
1
1
1
1
1
1
1
1
1
1
1
1
1
1
1
1
1
1
1
1
1
1
1
1
0.000397805
0.11595
0.454905
0.278097
4.9437e-05
0.00901318
0.104869
0.259339
9.92615e-07
0.000640208
0.00952625
0.024473
8.5286e-09
7.52598e-06
4.94759e-05
0.000129005
6.69454e-10
8.8285e-09
3.13044e-08
1.87462e-09
3.66425e-10
8.96673e-10
2.08618e-09
1.87573e-09
3.4479e-06
6.59112e-06
1.12725e-05
2.38852e-05
0.00254874
0.00355218
0.00444575
0.00602761
0.0624328
0.0774227
0.0767105
0.0802721
0.727834
0.750225
0.738636
0.725985
0.999955
0.999924
0.999835
0.999679
1
1
1
1
1
1
1
1
1
1
1
1
0.999999
0.999999
0.999999
0.999999
0.999999
0.999999
0.999999
0.999999
0.999999
0.999998
0.999999
0.999999
0.999999
0.999999
0.999999
0.999999
0.999999
0.999999
0.999999
0.999999
1
1
1
1
1
1
1
1
1
1
1
1
1
1
1
1
1
1
1
1
0.999998
0.999999
1
1
0.999999
0.999999
0.999999
0.999999
0.999997
0.999997
0.999999
0.999998
0.999998
0.999998
0.999998
0.999998
0.999997
0.999997
0.999998
0.999998
0.999998
0.999998
0.999998
0.999998
0.999998
0.999998
0.999998
0.999998
0.999999
0.999999
0.999998
0.999998
0.999999
0.999998
0.999999
0.999998
0.999999
0.999999
0.999999
0.999998
0.999999
0.999999
0.999999
0.999999
0.999999
0.999999
1
0.999999
1
1
0.999999
0.999999
0.999999
0.999999
1
0.999999
1
1
0.999999
1
0.999999
0.999999
1
1
1
1
1
1
1
1
1
1
0.0110912
3.93806e-05
3.99315e-05
0.0272219
0.41191
0.820256
0.913341
0.899882
0.667279
0.160689
0.0135841
0.0134695
0.288259
0.868253
0.323918
0.00874466
6.13536e-05
0.00952211
0.105891
0.176783
0.0291393
0.00250227
0.0029038
0.0162405
0.0913832
0.278907
0.28366
0.129851
0.0138985
0.00377601
0.0455912
0.580999
0.93987
0.171395
0.000988078
0.000538051
0.0219065
0.0240091
0.0773437
0.0690995
0.0227226
0.00771716
0.00785178
0.00967803
0.00782381
0.00522563
0.00182872
0.000435635
0.0035126
0.227384
0.831971
0.962265
0.281285
0.000975595
0.00202572
0.0217863
0.000980147
0.00467594
0.0206277
0.021584
0.0150072
0.00537014
0.00201879
0.000873203
0.000197626
0.000116033
0.000330373
0.0518668
0.575539
0.964388
0.987502
0.624085
0.0121006
0.00194991
0.00816895
1.47085e-05
1.43591e-06
8.29157e-05
0.0010173
0.00317912
0.0025557
0.000689469
8.36059e-05
8.38178e-05
0.000114152
0.0101483
0.296618
0.864297
0.996777
0.998469
0.891337
0.168946
0.000483867
0.000500676
1.73528e-06
1.73028e-08
5.18577e-07
1.07004e-05
5.67284e-05
7.00393e-05
3.74372e-05
3.77973e-05
0.00018099
0.0047449
0.140781
0.707006
0.980277
0.999885
0.999936
0.974091
0.449495
0.000164282
2.33106e-05
1.63457e-06
1.29502e-05
1.48313e-06
1.41637e-06
2.60429e-06
2.05553e-06
6.01994e-06
0.00011787
0.00744564
0.0980313
0.57183
0.950501
0.999322
1
0.999999
0.998195
0.881394
0.113074
4.49685e-05
1.81998e-06
0.00536108
0.000690567
2.5387e-05
2.28253e-06
2.0548e-06
0.00013312
0.00779325
0.0855417
0.492264
0.920202
0.998207
0.999999
1
1
0.999969
0.996162
0.693503
0.000724506
3.20204e-06
0.077335
0.0362589
0.0076673
0.000570418
0.000641974
0.00992416
0.128652
0.496801
0.914131
0.997942
0.999998
1
1
1
1
0.999982
0.930475
0.00792202
1.58072e-05
0.674691
0.390344
0.135787
0.0493637
0.0593518
0.137819
0.558763
0.950656
0.999627
0.999999
1
1
1
1
1
1
0.991595
0.0396174
0.000171219
0.998409
0.967768
0.79229
0.535088
0.516441
0.790003
0.988827
0.99999
1
1
1
1
1
1
1
1
0.999918
0.178202
0.00193327
1
0.999997
0.999608
0.997584
0.998614
0.999831
0.999994
1
1
1
1
1
1
1
1
1
1
0.498658
0.0171104
1
1
1
0.999999
0.999999
1
1
1
1
1
1
1
1
1
1
1
1
0.803206
0.0604316
1
1
1
1
1
1
1
1
1
1
1
1
1
1
1
1
1
0.845301
0.0704385
0.999999
1
1
1
1
1
1
1
1
1
1
1
1
1
1
1
1
0.752723
0.0610425
0.999999
0.999999
0.999999
1
1
1
1
1
1
1
1
1
1
1
1
1
1
0.439672
0.035054
0.999999
0.999999
0.999999
0.999999
1
1
1
1
1
1
1
1
1
1
1
1
1
0.288058
0.016211
0.999999
0.999999
0.999999
0.999999
0.999999
1
0.999999
1
1
1
1
1
1
1
1
1
1
0.396974
0.0184697
0.999999
0.999999
0.999998
0.999999
0.999999
0.999999
0.999999
0.999999
1
1
1
1
1
1
1
1
1
0.723491
0.0376406
0.999999
0.999999
0.999999
0.999999
0.999998
0.999998
0.999999
0.999999
0.999999
1
1
1
1
1
1
1
1
0.948137
0.07921
1
0.999999
0.999999
0.999999
0.999999
0.999998
0.999999
0.999999
0.999999
0.999999
1
1
1
1
1
1
1
0.995379
0.128884
1
1
0.999999
0.999999
0.999999
0.999999
0.999999
0.999999
0.999999
0.999999
1
1
1
1
1
1
1
0.9997
0.16608
1
1
1
0.999999
0.999999
0.999999
0.999999
0.999999
0.999999
0.999999
1
1
1
1
1
0.999999
0.999999
0.999846
0.255991
1
1
1
0.999999
0.999999
0.999999
0.999999
0.999999
0.999999
0.999999
1
1
1
1
1
0.999992
0.999984
0.999714
0.568165
0.999999
0.999999
0.999999
0.999999
0.999999
0.999999
0.999999
0.999999
0.999999
1
1
1
1
1
1
0.999975
0.9999
0.998505
0.86998
0.999999
0.999999
0.999999
0.999999
0.999999
0.999999
0.999999
0.999999
0.999999
1
1
1
1
1
1
0.999956
0.999671
0.993371
0.73802
0.999998
0.999998
0.999999
0.999999
0.999999
0.999999
0.999999
0.999999
0.999999
1
1
1
1
1
1
0.999941
0.998972
0.988795
0.308845
0.999998
0.999998
0.999998
0.999998
0.999998
0.999998
0.999999
0.999999
1
1
1
1
1
1
1
0.999931
0.996748
0.976466
0.0540488
0.999997
0.999997
0.999998
0.999998
0.999998
0.999998
0.999999
0.999999
1
1
1
1
1
1
1
0.999959
0.99167
0.855883
0.0148948
0.999997
0.999997
0.999997
0.999997
0.999998
0.999998
0.999999
0.999999
1
1
1
1
1
1
1
0.999996
0.991978
0.605705
0.0141738
0.999997
0.999997
0.999997
0.999997
0.999998
0.999998
0.999999
1
1
1
1
1
1
1
1
1
0.997877
0.596525
0.0141738
0.999997
0.999997
0.999997
0.999997
0.999998
0.999998
0.999999
1
1
1
0.999999
0.999999
0.999999
1
1
1
0.999894
0.737055
0.0141738
0.999998
0.999997
0.999997
0.999997
0.999998
0.999999
0.999999
1
1
1
0.999999
0.999999
0.999999
0.999999
1
1
0.999999
0.91851
0.031233
0.999998
0.999998
0.999997
0.999998
0.999998
0.999999
1
1
1
0.999999
0.999999
0.999999
0.999999
0.999999
1
1
1
0.987782
0.129305
0.999998
0.999998
0.999998
0.999998
0.999999
0.999999
1
1
1
0.999999
0.999999
0.999999
0.999999
1
1
1
1
0.999007
0.315402
0.999999
0.999998
0.999998
0.999999
0.999999
0.999999
1
1
1
0.999999
0.999999
0.999999
1
1
1
1
1
0.999967
0.48574
0.999999
0.999999
0.999999
0.999999
0.999999
1
1
1
1
0.999999
0.999999
0.999999
1
1
1
0.999999
1
1
0.599258
0.999999
0.999999
0.999999
0.999999
0.999999
1
1
1
0.999999
0.999999
0.999999
0.999999
1
1
1
0.999998
1
1
0.733557
0.999999
0.999999
0.999999
0.999999
0.999999
1
0.999999
0.999999
0.999999
0.999999
0.999999
0.999999
0.999999
0.999999
0.999999
0.999996
1
0.999999
0.891274
1
0.999999
0.999999
0.999999
0.999999
0.999999
0.999999
0.999999
0.999999
0.999999
0.999999
0.999999
0.999999
0.999999
0.999998
0.999994
1
0.999999
0.978362
1
1
0.999999
0.999999
0.999999
0.999999
0.999999
0.999999
0.999999
0.999999
0.999999
0.999999
0.999999
0.999999
0.999998
0.999994
0.999996
0.999973
0.998185
1
1
1
1
1
1
0.999999
0.999999
0.999999
0.999999
0.999999
0.999999
0.999999
0.999999
0.999999
0.999997
0.999985
0.999964
0.999953
)
;

boundaryField
{
    leftWall
    {
        type            alphaContactAngle;
        thetaProperties 6 ( ( water mercury ) 90 0 0 0 ( water air ) 90 0 0 0 ( water oil ) 90 0 0 0 ( mercury air ) 90 0 0 0 ( oil mercury ) 90 0 0 0 ( oil air ) 90 0 0 0 );
        value           nonuniform List<scalar> 
50
(
2.28168e-15
3.51906e-14
2.49521e-13
1.06627e-12
3.17655e-12
8.91331e-12
3.55098e-11
1.59382e-10
6.20074e-10
1.54074e-09
9.89458e-09
1.36471e-07
0.000193262
0.0409928
0.628662
0.999599
0.999999
0.999999
0.999999
0.999999
0.999998
0.999998
0.999998
0.999999
0.999999
0.999999
0.999999
0.999999
0.999999
0.999999
0.999999
1
0.999999
1
1
1
1
1
1
1
1
1
1
1
1
1
1
1
1
1
)
;
    }
    rightWall
    {
        type            alphaContactAngle;
        thetaProperties 6 ( ( water mercury ) 90 0 0 0 ( water air ) 90 0 0 0 ( water oil ) 90 0 0 0 ( mercury air ) 90 0 0 0 ( oil mercury ) 90 0 0 0 ( oil air ) 90 0 0 0 );
        value           nonuniform List<scalar> 
50
(
0.00135312
0.00166599
0.00117342
0.00017661
0.000148085
0.0012685
0.0773365
0.114615
0.105891
0.0240091
0.000980147
1.47085e-05
1.73528e-06
1.63457e-06
1.81998e-06
3.20204e-06
1.58072e-05
0.000171219
0.00193327
0.0171104
0.0604316
0.0704385
0.0610425
0.035054
0.016211
0.0184697
0.0376406
0.07921
0.128884
0.16608
0.255991
0.568165
0.86998
0.73802
0.308845
0.0540488
0.0148948
0.0141738
0.0141738
0.0141738
0.031233
0.129305
0.315402
0.48574
0.599258
0.733557
0.891274
0.978362
0.998185
0.999953
)
;
    }
    lowerWall
    {
        type            alphaContactAngle;
        thetaProperties 6 ( ( water mercury ) 90 0 0 0 ( water air ) 90 0 0 0 ( water oil ) 90 0 0 0 ( mercury air ) 90 0 0 0 ( oil mercury ) 90 0 0 0 ( oil air ) 90 0 0 0 );
        value           nonuniform List<scalar> 
62
(
2.28168e-15
2.31641e-15
2.13066e-15
3.17137e-15
1.9108e-15
3.86696e-15
3.72969e-15
2.79761e-15
3.66803e-15
6.2184e-15
8.10489e-15
7.07427e-15
5.61229e-15
4.8919e-15
5.09221e-15
5.86647e-15
5.40085e-15
4.2345e-15
2.89557e-15
1.71501e-15
8.39679e-16
3.01847e-16
6.02142e-17
6.02142e-17
5.70369e-16
2.90027e-15
7.39342e-15
2.67763e-14
6.53619e-14
1.33622e-13
1.95595e-13
0.000397805
0.11595
0.454905
0.278097
1.85718e-05
1.03722e-05
9.79742e-06
4.43211e-05
6.34773e-05
6.36956e-05
2.01636e-05
7.76335e-06
1.85718e-05
2.05643e-05
1.92612e-05
5.42857e-06
3.39895e-07
2.74497e-07
6.29096e-07
2.0333e-06
2.67719e-06
2.11315e-06
1.44846e-06
2.33574e-06
1.02973e-05
9.87788e-06
5.4223e-06
5.41976e-06
1.82555e-05
0.000312332
0.00135312
)
;
    }
    atmosphere
    {
        type            inletOutlet;
        inletValue      uniform 1;
        value           nonuniform List<scalar> 
46
(
1
1
1
1
1
1
1
1
1
1
1
1
1
1
1
1
1
1
1
1
1
1
1
1
1
1
1
1
1
1
1
1
1
1
1
1
1
1
1
1
1
1
1
0.999985
0.999964
0.999953
)
;
    }
    defaultFaces
    {
        type            empty;
    }
}


// ************************************************************************* //
