/*--------------------------------*- C++ -*----------------------------------*\
| =========                 |                                                 |
| \\      /  F ield         | OpenFOAM: The Open Source CFD Toolbox           |
|  \\    /   O peration     | Version:  2.4.0                                 |
|   \\  /    A nd           | Web:      www.OpenFOAM.org                      |
|    \\/     M anipulation  |                                                 |
\*---------------------------------------------------------------------------*/
FoamFile
{
    version     2.0;
    format      ascii;
    class       volScalarField;
    location    "0.4";
    object      p;
}
// * * * * * * * * * * * * * * * * * * * * * * * * * * * * * * * * * * * * * //

dimensions      [1 -1 -2 0 0 0 0];

internalField   nonuniform List<scalar> 
2268
(
6047.76
6037.9
6018.38
5996.72
5940.04
5915.22
5850.1
5772.2
5710.06
5639.02
5559.87
5489.45
5434.72
5408.35
5448.34
5564.94
5845.4
6285.63
6883.79
7592.37
8282.37
8739.4
8916.2
5245.21
5235.26
5216.21
5192.56
5139.79
5109.94
5045.99
4970.5
4907.66
4833.41
4752.72
4681.1
4625.42
4595.4
4631.04
4764.79
5020.11
5453.87
6050.03
6766.2
7462.75
7925.22
8102.72
4436.35
4426.29
4407.98
4381.16
4333.96
4297.46
4235.36
4163.04
4098.63
4017.92
3935.31
3861.48
3802.24
3765.61
3788.28
3857.77
4113.77
4559.06
5165.72
5908.04
6616.12
7100.29
7309.4
3621.88
3611.8
3594.25
3564.26
3523.01
3479.48
3419.37
3350.16
3283.61
3198.22
3115.18
3034.14
2966.99
2915.12
2933.26
3059.58
3236.99
3626.33
4228
5012.3
5756.73
6257.31
6457.79
2801.47
2791.35
2774.71
2740.31
2705.4
2653.6
2595.96
2533.8
2462.2
2382.61
2295.15
2210.24
2115.26
2030.02
1958.55
1974.05
2194.92
2625.52
3264.52
4083.41
4889.79
5400.98
5587.89
1952.53
1941.96
1925.76
1881.41
1848.45
1779.39
1703.26
1629.37
1539.34
1452.39
1379.7
1336.29
1266.31
1203.36
1174.28
1176.99
1243.21
1443.79
2096.44
3115.77
4007.55
4574.95
4731.67
1174.32
1169.29
1162.81
1141.02
1129.99
1097.91
1066.24
1045.19
1019.11
1001.84
994.348
988.238
995.789
1016.93
1037.06
1053.84
1063.18
1075.3
1239.38
2084.98
3081.04
3731.79
3871.89
839.841
839.888
838.696
839.879
846.614
861.633
884.134
911.262
942.254
968.859
1000.14
1031.95
1047.93
1048.98
1048.12
1056.56
1066.72
1078.2
1037.3
1350.63
2236.24
2907.54
2965.19
919.079
843.503
699.247
574.972
497.28
460.266
462.765
497.762
590.159
798.715
1146.7
1606.94
1802.87
1814.58
1649.34
1485.16
1482.68
1671.54
2066.3
891.595
808.783
655.038
532.492
456.809
416.339
414.523
435.959
476.499
580.28
820.747
1164.56
1410.4
1448.21
1321.68
1207.07
1192.76
1303.36
1610.65
846.669
765.257
602.353
480.496
416.417
393.648
396.646
421.574
460.563
573.567
776.473
937.623
1081.94
1081.1
991.071
929.866
954.814
1079.06
1279.57
811.278
726.006
543.626
420.514
379.905
339.44
335.711
340.619
373.326
496.471
675.499
821.214
872.097
815.887
673.231
628.727
779.211
955.02
1109.04
784.121
693.197
490.651
381.381
332.571
326.545
325.574
325.98
335.171
398.56
576.16
685.39
720.953
655.05
529.364
544.911
722.679
869.788
983.397
765.469
668.787
464.835
330.786
326.02
326.128
326.005
326.073
323.534
343.32
457.542
564.818
566.935
481.547
396.759
452.758
650.909
773.572
857.684
761.979
652.873
466.973
328.734
326.845
326.423
326.032
326.188
325.073
329.067
368.713
445.624
418.022
246.442
188.601
328.443
553.799
675.194
739.688
776.281
651.773
473.738
334.405
325.909
325.867
325.834
325.453
324.633
323.903
323.194
344.939
261.688
127.048
148.885
238.259
464.477
589.363
651.867
863.249
865.177
868.888
875.657
880.228
881.124
879.066
874.345
867.381
862.06
852.496
837.302
828.271
832.429
844.196
861.786
888.1
922.45
963.255
926.067
1156.11
1691.04
1358.16
661.572
662.455
663.952
665.587
667.892
671.819
678.827
689.849
702.784
716.035
725.798
742.461
765.807
789.757
810.122
824.755
833.732
835.575
831.953
817.977
747.07
795.304
995.206
527.713
528.937
531.6
536.301
543.657
553.474
566.619
578.378
587.35
593.954
596.641
599.567
598.199
596.19
595.052
604.861
628.491
650.337
657.166
651.884
595.127
505.053
479.707
392.161
393.234
395.49
399.393
405.833
414.872
428.63
442.178
452.208
456.178
454.693
453.319
455.814
466.17
478.858
492.308
498.99
504.829
503.489
492.999
458.947
374.553
280.584
249.637
250.707
252.927
256.693
263.165
273.488
291.924
311.546
323.657
321.088
309.127
303.295
300.768
298.735
299.056
305.877
318.313
333.693
344.4
347.065
328.645
281.861
214.098
73.5701
74.6197
77.0127
81.7213
90.6224
107.338
140.434
196.037
217.798
193.994
166.729
155.991
155.698
161.228
168.634
176.837
184.995
199.27
212.814
221.913
217.558
213.434
197.457
11.5707
11.6713
12.034
12.6869
13.7809
15.5022
20.457
48.1424
70.0029
59.8258
52.6357
65.0914
81.8439
103.051
120.91
132.916
142.055
146.041
150.507
150.811
147.907
158.99
160.584
3.63776
3.62749
3.6038
3.56575
3.51608
3.47819
3.38914
3.81395
4.4136
5.04803
7.01277
10.3261
15.9685
22.8443
28.3666
34.5078
42.0743
54.9229
72.9313
82.4504
112.253
120.811
120.364
5.49552
5.49611
5.4998
5.50847
5.51689
5.54519
5.39089
5.07609
4.68794
4.45328
4.20704
4.11247
4.15615
4.3418
4.5335
4.36546
3.33778
5.39252
9.86577
14.0648
25.5276
30.8361
33.4336
4.07448
4.08216
4.09459
4.11228
4.13365
4.14916
4.11238
4.14015
4.53459
4.62058
4.79976
4.89319
4.84094
4.69684
4.57481
4.45032
4.42859
4.11928
3.90351
3.91199
4.31562
3.30863
3.66129
4.68539
4.66573
4.63742
4.59969
4.55347
4.49965
4.42089
4.35043
4.4857
4.23445
4.23719
4.27082
4.34288
4.39247
4.39418
4.38205
4.48367
4.63639
4.68889
4.5678
4.27017
4.17569
4.09941
4.20183
4.21167
4.22418
4.23765
4.25129
4.26379
4.26619
4.27426
4.33584
4.35248
4.32299
4.30143
4.27683
4.24756
4.20564
4.14962
4.10027
4.06002
4.02644
4.019
4.01634
4.07397
4.14653
4.11858
4.11512
4.11386
4.11665
4.1217
4.12507
4.12263
4.12499
4.13425
4.13013
4.13351
4.12556
4.11497
4.09397
4.07565
4.06747
4.08608
4.09363
4.06948
4.01018
3.95098
3.90512
3.85987
3.98652
3.98495
3.98443
3.98531
3.98785
3.99149
3.99556
4.00605
4.01923
4.02507
4.01117
3.99642
3.97918
3.95944
3.93456
3.90821
3.88904
3.8745
3.86478
3.85655
3.85129
3.85551
3.85274
3.84028
3.84066
3.84132
3.84263
3.84475
3.84764
3.85097
3.8563
3.85924
3.86335
3.86151
3.85329
3.84069
3.82613
3.81022
3.79495
3.78083
3.76278
3.74071
3.72388
3.70569
3.68969
3.67795
3.70391
3.70393
3.70423
3.70527
3.70692
3.7092
3.71173
3.71436
3.71538
3.71701
3.7133
3.70662
3.69754
3.68664
3.67408
3.66116
3.64862
3.63574
3.62276
3.61147
3.60107
3.58906
3.57609
3.56475
3.56485
3.56523
3.56614
3.56753
3.569
3.57052
3.57203
3.5726
3.57287
3.56995
3.56485
3.55779
3.54916
3.53883
3.52797
3.51742
3.50674
3.49689
3.48709
3.478
3.46954
3.46135
3.4256
3.42567
3.426
3.42668
3.42756
3.42863
3.42969
3.43025
3.43017
3.42976
3.42736
3.42344
3.41794
3.4113
3.40368
3.39592
3.38815
3.37966
3.37157
3.36377
3.35652
3.35037
3.34485
3.28638
3.28648
3.28677
3.28724
3.28781
3.28842
3.28885
3.28902
3.28874
3.28783
3.28569
3.28254
3.27858
3.2741
3.26863
3.26255
3.2565
3.25025
3.24459
3.23938
3.23472
3.23123
3.229
3.14702
3.14712
3.14734
3.14763
3.14796
3.14825
3.14846
3.14844
3.14809
3.14719
3.1456
3.14312
3.13993
3.13628
3.1323
3.12819
3.12396
3.11992
3.11619
3.1129
3.11047
3.10915
3.1092
3.00745
3.00755
3.0077
3.00793
3.00818
3.00837
3.00848
3.00842
3.00806
3.00729
3.00603
3.00432
3.0022
2.99962
2.99694
2.99429
2.99158
2.9891
2.98713
2.9858
2.98545
2.98604
2.98824
2.86776
2.86782
2.86795
2.86812
2.86833
2.86851
2.8686
2.86853
2.86823
2.86763
2.8667
2.86552
2.86424
2.86273
2.86116
2.8595
2.85806
2.85711
2.85667
2.85688
2.85806
2.86047
2.86478
2.72805
2.72811
2.72822
2.72835
2.72851
2.72865
2.72873
2.72874
2.72859
2.72828
2.72791
2.7274
2.72666
2.72582
2.72507
2.7245
2.72432
2.72459
2.72533
2.72704
2.72964
2.73345
2.73907
2.58823
2.58827
2.58837
2.58851
2.58866
2.58882
2.58896
2.58907
2.58913
2.58915
2.58909
2.58897
2.58881
2.58873
2.58874
2.58907
2.58984
2.59107
2.59302
2.59592
2.59979
2.60486
2.61159
2.44826
2.44832
2.44844
2.4486
2.44881
2.44903
2.44924
2.44946
2.44967
2.44987
2.45003
2.45026
2.45067
2.45122
2.45198
2.45315
2.45468
2.45678
2.45965
2.46337
2.46823
2.47428
2.48197
2.30829
2.30836
2.30848
2.30867
2.3089
2.30916
2.30948
2.30983
2.31022
2.31065
2.31116
2.31176
2.31253
2.31353
2.31489
2.31659
2.31875
2.32163
2.32523
2.32977
2.33535
2.34219
2.35049
2.16823
2.1683
2.16843
2.16864
2.16891
2.16926
2.16967
2.17014
2.17068
2.17131
2.17207
2.17299
2.17413
2.17555
2.17729
2.1795
2.18229
2.18562
2.18978
2.19487
2.20095
2.20837
2.21719
2.02807
2.02815
2.0283
2.02853
2.02885
2.02924
2.02972
2.03028
2.03095
2.03176
2.03273
2.03392
2.03534
2.03707
2.03919
2.04179
2.04491
2.04865
2.0532
2.05868
2.06526
2.07301
2.08213
1.88785
1.88793
1.8881
1.88836
1.8887
1.88913
1.88967
1.89032
1.89111
1.89207
1.89321
1.89456
1.89617
1.89812
1.90048
1.9033
1.9067
1.9108
1.91567
1.92143
1.92821
1.93616
1.94541
1.74752
1.74761
1.74779
1.74807
1.74844
1.74892
1.74951
1.75024
1.75111
1.75216
1.75339
1.75487
1.75667
1.75881
1.76134
1.76435
1.76793
1.77216
1.77717
1.78305
1.78991
1.79788
1.80711
1.60706
1.60716
1.60735
1.60763
1.60802
1.60853
1.60916
1.60992
1.61085
1.61196
1.6133
1.61489
1.61678
1.619
1.62163
1.62475
1.62842
1.63272
1.63775
1.64361
1.65041
1.65826
1.6673
1.46654
1.46663
1.46683
1.46712
1.46753
1.46804
1.46869
1.46948
1.47043
1.47157
1.47295
1.47458
1.4765
1.47877
1.48144
1.48456
1.48822
1.49248
1.49744
1.50317
1.50979
1.51738
1.52608
1.32587
1.32596
1.32616
1.32645
1.32686
1.32738
1.32803
1.32882
1.32979
1.33095
1.33233
1.33396
1.33587
1.33812
1.34075
1.34382
1.34739
1.35152
1.3563
1.3618
1.36812
1.37534
1.38356
1.18513
1.18522
1.18542
1.1857
1.18609
1.1866
1.18723
1.188
1.18895
1.19008
1.19143
1.19302
1.19487
1.19705
1.19959
1.20253
1.20594
1.20987
1.21439
1.21957
1.22549
1.23223
1.23986
1.0443
1.04439
1.04458
1.04484
1.04522
1.0457
1.04631
1.04706
1.04796
1.04904
1.05031
1.0518
1.05355
1.0556
1.05799
1.06075
1.06393
1.06759
1.07179
1.07657
1.082
1.08816
1.09511
0.903396
0.903472
0.903641
0.903883
0.904229
0.904681
0.905251
0.905943
0.906776
0.907759
0.908922
0.910302
0.911936
0.913834
0.916025
0.918536
0.921429
0.924759
0.928558
0.932871
0.937756
0.943264
0.949447
0.762414
0.762463
0.762614
0.76282
0.76312
0.763509
0.764
0.76461
0.76536
0.766252
0.767313
0.768564
0.770016
0.771689
0.773624
0.775878
0.778487
0.781451
0.784794
0.78858
0.79286
0.797659
0.803012
0.621307
0.621329
0.621455
0.621621
0.621871
0.622198
0.622616
0.623133
0.623759
0.624521
0.625431
0.626508
0.627774
0.629257
0.630965
0.632921
0.635128
0.637631
0.640507
0.643778
0.647432
0.65148
0.655961
0.480097
0.480101
0.480196
0.480323
0.480523
0.480792
0.481134
0.481559
0.482077
0.482702
0.48345
0.484336
0.485377
0.486588
0.487995
0.48961
0.491457
0.49356
0.495928
0.498563
0.501496
0.504798
0.508436
0.339019
0.338971
0.339031
0.339118
0.339262
0.339458
0.339713
0.340033
0.340422
0.340889
0.341446
0.342105
0.342879
0.343785
0.344842
0.346069
0.347484
0.349107
0.35096
0.353031
0.355318
0.357817
0.360519
0.198173
0.198133
0.198151
0.198182
0.198245
0.198335
0.198459
0.198621
0.198829
0.199091
0.199414
0.199807
0.20028
0.200847
0.201532
0.202353
0.203317
0.204427
0.205675
0.207074
0.208645
0.210379
0.212275
0.0571941
0.0571766
0.0571555
0.0571175
0.0570811
0.0570475
0.0570235
0.057018
0.0570397
0.0570967
0.0571958
0.0573426
0.0575439
0.0578088
0.0581421
0.058548
0.0590329
0.0596051
0.0602759
0.0610628
0.0619659
0.0629748
0.0640693
201.222
722.695
756.415
762.678
882.831
727.704
618.597
620.503
424.328
355.043
307.067
308.315
177.309
101.693
28.377
-29.1229
146.54
102.945
72.5312
51.5358
170.13
144.462
116.153
88.5522
154.347
144.418
130.186
113.917
113.723
107.113
99.7044
88.4411
29.8574
27.3811
25.7886
22.4571
3.92063
4.2024
4.5641
4.75499
3.99148
3.90778
3.80023
3.70106
4.16705
4.14695
4.1123
4.07215
3.8306
3.81002
3.78566
3.75711
3.83489
3.81746
3.79334
3.76328
3.66926
3.662
3.65477
3.64732
3.56526
3.5583
3.55154
3.54458
3.45556
3.45195
3.44888
3.44615
3.34123
3.33935
3.33802
3.33723
3.22837
3.22833
3.22871
3.22971
3.1107
3.11215
3.11418
3.11673
2.99122
2.99357
2.99663
3.00028
2.86922
2.87249
2.87634
2.8807
2.74459
2.74851
2.75289
2.75793
2.61795
2.62238
2.62723
2.63264
2.48892
2.49378
2.49902
2.50475
2.3579
2.36304
2.36856
2.37452
2.2249
2.23023
2.23593
2.24203
2.09001
2.09543
2.10123
2.10741
1.95333
1.95876
1.96457
1.97074
1.81493
1.8203
1.82602
1.8321
1.67492
1.68014
1.68569
1.69158
1.53339
1.53837
1.54368
1.5493
1.39044
1.39513
1.40011
1.40538
1.24622
1.25055
1.25513
1.25998
1.10087
1.10478
1.1089
1.11326
0.95454
0.957984
0.96161
0.965425
0.807395
0.810348
0.813445
0.816689
0.659605
0.66205
0.6646
0.667259
0.511339
0.513265
0.515256
0.517321
0.362662
0.364091
0.365572
0.367089
0.213753
0.214711
0.215679
0.21665
0.0648556
0.065342
0.0658042
0.0662365
785.951
651.014
484.116
359.675
325.985
326.577
326.515
326.439
325.042
308.551
253.124
217.067
81.2942
51.7703
110.284
177.424
356.732
470.22
533.461
683.855
606.837
485.64
392.769
345.251
327.86
324.197
321.363
305.313
236.799
155.498
69.6399
35.1144
28.0983
59.9547
143.526
266.128
351.069
401.197
340.52
388.603
392.311
335.729
306.098
305.292
300.476
268.474
218.141
154.239
81.5291
17.0615
15.4343
15.6572
29.9791
117.349
203.77
264.645
296.478
-55.8253
49.4983
146.331
187.983
203.559
199.797
182.445
158.1
131.236
81.9542
15.9783
7.85362
8.8974
9.13785
11.3038
71.2835
156.315
193.734
218.222
22.6785
24.1676
56.3185
78.6313
86.6509
87.4718
82.1207
77.5133
65.1981
22.3631
5.82752
6.00543
6.6927
6.70386
5.86863
21.6611
120.208
139.732
158.679
44.7318
30.8941
43.3388
49.943
38.9438
31.6331
29.4548
34.0921
18.6824
5.09728
4.71366
5.01815
5.3767
5.64203
4.3937
9.99021
102.866
97.0003
109.592
79.6472
48.1159
42.4527
42.316
28.3549
15.3398
12.8123
10.5909
4.51427
4.43013
4.46703
4.56752
4.55273
4.89638
4.15142
4.70542
17.2832
54.6008
67.8909
62.8546
40.6487
27.6739
37.7962
36.4445
19.62
12.6815
5.85471
4.34751
4.42786
4.4037
4.42047
4.24643
4.57911
4.38892
4.38645
4.82925
16.5533
39.0377
16.0268
19.2008
16.7136
25.911
36.061
22.4528
9.61786
4.68424
4.43536
4.43045
4.39797
4.43824
4.37054
4.86888
4.72284
4.71749
5.02329
5.99263
23.3369
5.1002
8.45994
8.78033
14.7733
23.5708
14.3973
4.95014
4.29473
4.34233
4.35555
4.41293
4.50306
4.6157
5.17927
4.86247
4.91148
4.95729
5.28185
18.2646
3.54478
3.29474
3.5083
3.98137
4.2536
4.6191
4.09537
4.19165
4.23736
4.31556
4.40426
4.52525
4.70338
5.12004
4.83499
4.97236
4.87237
5.05196
16.5326
3.99458
3.83465
3.57201
3.54425
3.6517
3.6615
3.89509
4.06415
4.16991
4.26269
4.36005
4.48106
4.64108
4.89414
4.77642
4.86215
4.84222
4.81132
10.5384
3.70145
3.66342
3.63188
3.70008
3.88545
3.97993
3.9977
4.05506
4.10782
4.18982
4.28814
4.40036
4.53303
4.69179
4.71878
4.72355
4.79317
4.84965
7.21692
3.70895
3.63608
3.58519
3.58676
3.60737
3.66249
3.78753
3.9148
4.01339
4.09976
4.19375
4.29502
4.40577
4.53425
4.58959
4.61516
4.65634
4.80372
6.80969
3.62996
3.6125
3.61705
3.65597
3.72305
3.78598
3.81262
3.85383
3.92072
3.99793
4.08356
4.17192
4.26256
4.37661
4.41831
4.48222
4.43777
4.68615
7.72967
3.53177
3.51646
3.51253
3.52702
3.55484
3.58837
3.67164
3.74868
3.81715
3.8874
3.96329
4.03642
4.10918
4.20768
4.21672
4.32237
4.1825
4.64518
9.82136
3.44216
3.44369
3.4557
3.47944
3.51392
3.55933
3.59561
3.64766
3.70717
3.77006
3.83594
3.89396
3.95258
4.02937
4.00439
4.12934
3.95976
4.27054
10.4816
3.33694
3.34227
3.35543
3.37659
3.40503
3.43807
3.48947
3.5394
3.59228
3.64783
3.70446
3.75031
3.79886
3.85217
3.78796
3.89413
3.79712
3.50859
8.10661
3.23257
3.24157
3.25694
3.27901
3.30817
3.34478
3.3829
3.42669
3.4738
3.52224
3.57251
3.60759
3.65479
3.67884
3.63904
3.69029
3.66866
3.18232
5.63647
3.12196
3.13387
3.15073
3.17306
3.20099
3.23391
3.2702
3.30998
3.3528
3.39443
3.44125
3.46688
3.51609
3.52321
3.53202
3.53617
3.58567
3.24921
4.50505
3.00719
3.0208
3.03879
3.06137
3.08842
3.11943
3.15341
3.19022
3.23007
3.26535
3.31067
3.32845
3.38217
3.37621
3.43022
3.40791
3.49589
3.20664
3.97931
2.8889
2.90382
2.92251
2.94523
2.97157
3.00117
3.03351
3.06827
3.1057
3.1361
3.18049
3.19185
3.24816
3.23006
3.31445
3.26438
3.36144
3.1361
3.5474
2.76727
2.78308
2.80231
2.82517
2.85114
2.87994
2.91113
2.94446
2.98007
3.00752
3.05094
3.05738
3.11373
3.08677
3.16502
3.09733
3.21438
2.99303
3.6267
2.64257
2.65919
2.6789
2.70189
2.72763
2.75602
2.78664
2.8191
2.85393
2.88016
2.92266
2.92641
2.98184
2.94496
3.00332
2.90706
2.97083
2.83282
2.75654
2.51519
2.53239
2.55246
2.57559
2.60139
2.62975
2.6603
2.69261
2.72757
2.75452
2.79654
2.80137
2.85604
2.80869
2.85669
2.73894
2.7234
2.71337
2.79982
2.38527
2.40293
2.4233
2.44656
2.47253
2.50113
2.5321
2.56501
2.60104
2.63069
2.67368
2.68537
2.73902
2.6952
2.75763
2.59384
2.63337
2.56731
2.71614
2.25299
2.27092
2.29147
2.31487
2.34107
2.37008
2.40181
2.43589
2.4738
2.5074
2.55499
2.57598
2.63391
2.62121
2.68397
2.56657
2.66692
2.47798
3.39895
2.11846
2.13647
2.15707
2.18051
2.2069
2.23636
2.26898
2.30454
2.34473
2.38252
2.44017
2.46591
2.54107
2.55893
2.63633
2.61099
2.7204
2.49276
3.01987
1.98174
1.99964
2.0201
2.04342
2.06984
2.09962
2.13307
2.17024
2.21281
2.25092
2.33285
2.34091
2.45855
2.49101
2.60603
2.65915
2.73934
2.69715
3.62546
1.84292
1.86047
1.88056
1.90351
1.92969
1.95947
1.99345
2.03223
2.07755
2.12585
2.19796
2.23564
2.36343
2.39528
2.57785
2.68359
2.76865
3.22769
6.97245
1.70207
1.71904
1.73848
1.76074
1.78624
1.81549
1.84928
1.8883
1.93446
1.98755
2.05635
2.11976
2.24124
2.30333
2.51385
2.61794
2.80448
3.21729
13.3895
1.5593
1.57543
1.59393
1.6151
1.63942
1.6674
1.6999
1.73801
1.78349
1.8382
1.90684
1.98453
2.09954
2.18979
2.40201
2.47392
2.75839
2.19724
16.0453
1.41474
1.42979
1.44703
1.46671
1.48928
1.51524
1.54543
1.58099
1.62366
1.67598
1.74218
1.82533
1.93813
2.05346
2.27553
2.38121
2.79356
2.3716
6.41913
1.26856
1.2823
1.29799
1.31579
1.33612
1.35934
1.38615
1.41752
1.45493
1.5008
1.55918
1.63536
1.74503
1.87466
2.109
2.27688
2.80426
2.50964
3.67667
1.12095
1.13319
1.14706
1.16264
1.18042
1.20021
1.22271
1.24847
1.27837
1.31401
1.35828
1.41579
1.5013
1.62367
1.85171
2.02892
2.56154
2.33077
3.10735
0.972144
0.982752
0.994647
1.00786
1.0226
1.03865
1.05624
1.0754
1.09618
1.11871
1.1436
1.17147
1.21245
1.26779
1.40388
1.53861
1.9189
1.70097
2.81799
0.822381
0.831269
0.841099
0.851822
0.863506
0.875631
0.888138
0.900411
0.911504
0.919794
0.922761
0.915658
0.898791
0.848737
0.828961
0.76132
0.837322
0.52884
1.61196
0.671901
0.679051
0.686801
0.69501
0.703867
0.71225
0.72
0.725944
0.728172
0.723377
0.705886
0.665272
0.58872
0.420546
0.169124
-0.336485
-0.740933
-1.35358
-0.602072
0.520911
0.526351
0.532135
0.538079
0.544073
0.549332
0.553186
0.554176
0.549858
0.535921
0.504373
0.440807
0.320194
0.0662313
-0.37658
-1.37055
-2.56789
-3.87186
-1.34598
0.369672
0.37347
0.377376
0.381178
0.384706
0.3874
0.388472
0.386381
0.378827
0.361492
0.326511
0.259324
0.130936
-0.124489
-0.554435
-1.96968
-2.91836
-5.25793
-0.67581
0.218281
0.220535
0.222665
0.224595
0.226109
0.226804
0.226055
0.22275
0.215146
0.200311
0.173044
0.123296
0.030231
-0.147476
-0.520546
-1.32725
-2.08662
-4.0323
-0.453199
0.0669067
0.0676317
0.0681097
0.0682717
0.0679933
0.0670819
0.065223
0.0619158
0.05643
0.0477262
0.0343013
0.0139872
-0.0167037
-0.0651236
-0.162069
-0.375154
-0.616359
-1.53158
-0.383567
)
;

boundaryField
{
    leftWall
    {
        type            fixedFluxPressure;
        gradient        uniform 0;
        value           nonuniform List<scalar> 
50
(
6047.76
5245.21
4436.35
3621.88
2801.47
1952.53
1174.32
839.841
863.249
661.572
527.713
392.161
249.637
73.5701
11.5707
3.63776
5.49552
4.07448
4.68539
4.20183
4.11858
3.98652
3.84028
3.70391
3.56475
3.4256
3.28638
3.14702
3.00745
2.86776
2.72805
2.58823
2.44826
2.30829
2.16823
2.02807
1.88785
1.74752
1.60706
1.46654
1.32587
1.18513
1.0443
0.903396
0.762414
0.621307
0.480097
0.339019
0.198173
0.0571941
)
;
    }
    rightWall
    {
        type            fixedFluxPressure;
        gradient        uniform 0;
        value           nonuniform List<scalar> 
50
(
2066.3
1610.65
1279.57
1109.04
983.397
857.684
739.688
651.867
533.461
401.197
296.478
218.222
158.679
109.592
67.8909
39.0377
23.3369
18.2646
16.5326
10.5384
7.21692
6.80969
7.72967
9.82136
10.4816
8.10661
5.63647
4.50505
3.97931
3.5474
3.6267
2.75654
2.79982
2.71614
3.39895
3.01987
3.62546
6.97245
13.3895
16.0453
6.41913
3.67667
3.10735
2.81799
1.61196
-0.602072
-1.34598
-0.67581
-0.453199
-0.383567
)
;
    }
    lowerWall
    {
        type            fixedFluxPressure;
        gradient        nonuniform List<scalar> 
62
(
132719
132719
132719
132719
132719
132719
132719
132719
132719
132719
132719
132719
132719
132719
132719
132719
132719
132719
132719
132719
132719
132719
132710
0
0
0
0
0
0
0
0
114146
9050.87
127.269
181.416
0
0
0
0
0
0
0
0
4906.19
4906.1
4906.3
4906.6
4907.22
4910.92
4930.77
5007.07
5202.44
5486.74
5553.72
5547.34
5553.35
5551.73
5553.96
5550.1
5549.2
5520.89
5451.03
)
;
        value           nonuniform List<scalar> 
62
(
6445.91
6436.05
6416.53
6394.87
6338.19
6313.37
6248.25
6170.35
6108.21
6037.17
5958.02
5887.6
5832.87
5806.5
5846.49
5963.09
6243.55
6683.78
7281.94
7990.51
8680.52
9137.55
9314.32
8916.2
8102.72
7309.4
6457.79
5587.89
4731.67
3871.89
2965.19
929.585
780.448
757.228
763.835
919.079
891.595
846.669
811.278
784.121
765.469
761.979
776.281
933.798
858.221
713.965
589.691
512.001
474.999
477.557
512.783
605.766
815.175
1163.36
1623.58
1819.53
1831.23
1666
1501.81
1499.32
1688.1
2082.65
)
;
    }
    atmosphere
    {
        type            totalPressure;
        U               U.air;
        phi             phi.air;
        rho             rho;
        psi             none;
        gamma           1;
        p0              uniform 0;
        value           nonuniform List<scalar> 
46
(
-0.0138645
-0.0142863
-0.0143068
-0.0143383
-0.0143619
-0.0143805
-0.0143889
-0.0143824
-0.0143564
-0.0143062
-0.0142275
-0.0141159
-0.013967
-0.0137749
-0.0135346
-0.013244
-0.0129024
-0.0125087
-0.0120614
-0.0115601
-0.0110047
-0.0103973
-0.00975277
-0.00935027
-0.00911659
-0.00893276
-0.0087945
-0.00864569
-0.00870786
-0.00903471
-0.00965283
-0.0106104
-0.0119941
-0.0139397
-0.0166583
-0.0204443
-0.0256802
-0.0327882
-0.0421077
-0.053759
-0.0685755
-0.0984277
-0.18002
0
0
0
)
;
    }
    defaultFaces
    {
        type            empty;
    }
}


// ************************************************************************* //
