/*--------------------------------*- C++ -*----------------------------------*\
| =========                 |                                                 |
| \\      /  F ield         | OpenFOAM: The Open Source CFD Toolbox           |
|  \\    /   O peration     | Version:  2.4.0                                 |
|   \\  /    A nd           | Web:      www.OpenFOAM.org                      |
|    \\/     M anipulation  |                                                 |
\*---------------------------------------------------------------------------*/
FoamFile
{
    version     2.0;
    format      ascii;
    class       surfaceScalarField;
    location    "0.4";
    object      phi;
}
// * * * * * * * * * * * * * * * * * * * * * * * * * * * * * * * * * * * * * //

dimensions      [0 3 -1 0 0 0 0];

internalField   nonuniform List<scalar> 
4432
(
3.24659e-06
-3.24659e-06
6.54521e-06
-3.29862e-06
9.59742e-06
-3.05221e-06
1.34214e-05
-3.82396e-06
1.5863e-05
-2.44163e-06
1.96735e-05
-3.8105e-06
2.3341e-05
-3.66745e-06
2.59886e-05
-2.64765e-06
2.86678e-05
-2.67918e-06
3.20897e-05
-3.42186e-06
3.61349e-05
-4.04526e-06
3.93584e-05
-3.22349e-06
4.15809e-05
-2.22243e-06
4.28987e-05
-1.31786e-06
4.3309e-05
-4.10235e-07
4.33194e-05
-1.04633e-08
4.21117e-05
1.2077e-06
3.93307e-05
2.78102e-06
3.45528e-05
4.77794e-06
2.74838e-05
7.069e-06
1.77958e-05
9.68795e-06
7.05961e-06
1.07362e-05
7.05961e-06
3.24888e-06
-6.49547e-06
6.55247e-06
-6.60221e-06
9.61988e-06
-6.11962e-06
1.33553e-05
-7.55938e-06
1.59774e-05
-5.06371e-06
1.97104e-05
-7.54355e-06
2.32472e-05
-7.20423e-06
2.59877e-05
-5.38815e-06
2.89326e-05
-5.62406e-06
3.24041e-05
-6.89337e-06
3.62895e-05
-7.93064e-06
3.91632e-05
-6.0972e-06
4.13868e-05
-4.4461e-06
4.29356e-05
-2.86663e-06
4.40521e-05
-1.5267e-06
4.42183e-05
-1.76735e-07
4.34892e-05
1.93688e-06
4.03933e-05
5.87687e-06
3.54455e-05
9.7258e-06
2.70548e-05
1.54597e-05
1.82954e-05
1.84473e-05
9.01871e-06
2.00129e-05
1.60783e-05
3.25298e-06
-9.74845e-06
6.54039e-06
-9.88962e-06
9.66272e-06
-9.24195e-06
1.32583e-05
-1.11549e-05
1.61657e-05
-7.97114e-06
1.97035e-05
-1.10814e-05
2.30043e-05
-1.0505e-05
2.59877e-05
-8.3715e-06
2.94361e-05
-9.07248e-06
3.296e-05
-1.04173e-05
3.59933e-05
-1.0964e-05
3.8388e-05
-8.49185e-06
4.12541e-05
-7.31222e-06
4.36091e-05
-5.2216e-06
4.56045e-05
-3.5221e-06
4.59872e-05
-5.59465e-07
4.48369e-05
3.08721e-06
4.20051e-05
8.7086e-06
3.57762e-05
1.59547e-05
2.77185e-05
2.35174e-05
1.92135e-05
2.69523e-05
1.12809e-05
2.79456e-05
2.73592e-05
3.25966e-06
-1.30081e-05
6.52308e-06
-1.3153e-05
9.72848e-06
-1.24473e-05
1.31551e-05
-1.45816e-05
1.62956e-05
-1.11116e-05
1.97029e-05
-1.44887e-05
2.29167e-05
-1.37188e-05
2.59502e-05
-1.1405e-05
2.99325e-05
-1.30548e-05
3.30296e-05
-1.35144e-05
3.54464e-05
-1.33808e-05
3.81474e-05
-1.11929e-05
4.15901e-05
-1.07549e-05
4.44828e-05
-8.11433e-06
4.69583e-05
-5.99761e-06
4.81617e-05
-1.76286e-06
4.6613e-05
4.63594e-06
4.29192e-05
1.24024e-05
3.52265e-05
2.36474e-05
2.54982e-05
3.32458e-05
1.54974e-05
3.6953e-05
7.45747e-06
3.59855e-05
3.48167e-05
3.2664e-06
-1.62745e-05
6.52451e-06
-1.64111e-05
9.81411e-06
-1.5737e-05
1.30196e-05
-1.77871e-05
1.64851e-05
-1.45771e-05
1.96113e-05
-1.76149e-05
2.28149e-05
-1.69224e-05
2.64221e-05
-1.50122e-05
3.00128e-05
-1.66455e-05
3.28259e-05
-1.63275e-05
3.54348e-05
-1.59897e-05
3.85615e-05
-1.43196e-05
4.19996e-05
-1.41929e-05
4.53841e-05
-1.14989e-05
4.86898e-05
-9.30329e-06
4.92632e-05
-2.33629e-06
4.78931e-05
6.00606e-06
4.38242e-05
1.64713e-05
3.74758e-05
2.99957e-05
2.80432e-05
4.26784e-05
1.65221e-05
4.84741e-05
8.56825e-06
4.39394e-05
4.33849e-05
3.27403e-06
-1.95485e-05
6.51966e-06
-1.96568e-05
9.99625e-06
-1.92136e-05
1.27516e-05
-2.05424e-05
1.67589e-05
-1.85844e-05
1.9613e-05
-2.0469e-05
2.27125e-05
-2.0022e-05
2.6744e-05
-1.90437e-05
2.97389e-05
-1.96404e-05
3.24398e-05
-1.90284e-05
3.51197e-05
-1.86696e-05
3.79226e-05
-1.71225e-05
4.015e-05
-1.64203e-05
4.26122e-05
-1.3961e-05
4.44745e-05
-1.11656e-05
4.67203e-05
-4.58215e-06
4.70928e-05
5.63356e-06
4.14072e-05
2.21569e-05
3.62439e-05
3.51591e-05
2.96557e-05
4.92666e-05
1.92701e-05
5.88596e-05
8.5415e-06
5.4668e-05
5.19264e-05
3.19538e-06
-2.27439e-05
6.31909e-06
-2.27805e-05
9.83459e-06
-2.27291e-05
1.20154e-05
-2.27232e-05
1.60733e-05
-2.26424e-05
1.88391e-05
-2.32348e-05
2.09665e-05
-2.21494e-05
2.35146e-05
-2.15917e-05
2.56399e-05
-2.17657e-05
2.68807e-05
-2.02692e-05
2.71957e-05
-1.89845e-05
2.68303e-05
-1.67571e-05
2.51142e-05
-1.47042e-05
2.33786e-05
-1.22254e-05
2.16142e-05
-9.4012e-06
2.27816e-05
-5.74958e-06
2.84204e-05
-5.25371e-09
3.17898e-05
1.87876e-05
2.76267e-05
3.93222e-05
2.73269e-05
4.95664e-05
2.1851e-05
6.43355e-05
1.31055e-05
6.34136e-05
6.50319e-05
2.46673e-06
-2.52106e-05
4.87487e-06
-2.51886e-05
7.3276e-06
-2.51818e-05
8.73557e-06
-2.41312e-05
1.04769e-05
-2.43836e-05
1.15624e-05
-2.43203e-05
1.15958e-05
-2.21828e-05
1.18725e-05
-2.18685e-05
1.24247e-05
-2.23179e-05
1.31299e-05
-2.09744e-05
1.28266e-05
-1.86813e-05
1.36221e-05
-1.75526e-05
1.51935e-05
-1.62756e-05
1.69265e-05
-1.39584e-05
1.62431e-05
-8.71783e-06
1.5224e-05
-4.73044e-06
1.70828e-05
-1.86408e-06
2.28702e-05
1.30002e-05
2.18601e-05
4.03322e-05
1.91329e-05
5.22936e-05
2.08928e-05
6.25755e-05
1.45661e-05
6.97403e-05
7.9598e-05
-2.83902e-05
2.83902e-05
-5.46863e-05
2.62962e-05
-8.07759e-05
2.60896e-05
-9.67192e-05
1.59433e-05
-0.000101403
4.68398e-06
-9.90627e-05
-2.34049e-06
-8.59452e-05
-1.31174e-05
-6.6925e-05
-1.90203e-05
-4.81213e-05
-1.88037e-05
-2.65812e-05
-2.154e-05
-4.77413e-06
-2.18071e-05
2.94234e-05
-3.41975e-05
6.54267e-05
-3.60033e-05
9.83923e-05
-3.29656e-05
0.000112209
-1.38172e-05
0.000106914
5.29572e-06
9.31187e-05
1.3795e-05
6.22176e-05
3.09011e-05
6.22176e-05
-2.40152e-05
5.24054e-05
-4.91162e-05
5.13972e-05
-7.29234e-05
4.98967e-05
-8.27497e-05
2.57696e-05
-8.40001e-05
5.93445e-06
-7.92121e-05
-7.12852e-06
-7.26458e-05
-1.96837e-05
-6.63107e-05
-2.53554e-05
-5.19429e-05
-3.31714e-05
-2.53796e-05
-4.81034e-05
1.52679e-05
-6.24546e-05
5.02234e-05
-6.9153e-05
8.04433e-05
-6.62231e-05
0.000107691
-6.02133e-05
0.000116692
-2.28186e-05
0.000114589
7.39901e-06
0.000101671
2.67136e-05
6.88538e-05
6.37178e-05
0.000131071
-2.11189e-05
7.35243e-05
-4.2459e-05
7.27373e-05
-6.28162e-05
7.02539e-05
-6.842e-05
3.13733e-05
-6.581e-05
3.32444e-06
-5.61679e-05
-1.67706e-05
-4.95547e-05
-2.62969e-05
-4.58714e-05
-2.90387e-05
-3.58538e-05
-4.31891e-05
-1.08858e-05
-7.30714e-05
2.28185e-05
-9.61589e-05
5.75747e-05
-0.000103909
9.01259e-05
-9.87743e-05
0.00010925
-7.93377e-05
0.000118758
-3.2326e-05
0.000111141
1.5016e-05
8.81839e-05
4.96703e-05
4.50417e-05
0.00010686
0.000176113
-1.7562e-05
9.10862e-05
-3.43007e-05
8.9476e-05
-5.07344e-05
8.66876e-05
-4.63402e-05
2.69792e-05
-3.22057e-05
-1.08101e-05
-2.87898e-05
-2.01865e-05
-2.0735e-05
-3.43517e-05
-1.45762e-05
-3.51974e-05
-5.98378e-06
-5.17815e-05
1.49662e-05
-9.40213e-05
4.27178e-05
-0.000123911
7.41195e-05
-0.000135311
0.000102277
-0.000126932
0.000121711
-9.8772e-05
0.000117402
-2.80166e-05
9.56934e-05
3.67243e-05
5.81307e-05
8.7233e-05
1.70546e-05
0.000147936
0.000193168
-1.23287e-05
0.000103415
-2.17731e-05
9.89204e-05
-2.56435e-05
9.0558e-05
-1.1244e-05
1.25797e-05
-3.6209e-06
-1.84333e-05
9.75616e-06
-3.35637e-05
1.56091e-05
-4.02046e-05
1.82755e-05
-3.78638e-05
2.06323e-05
-5.41383e-05
3.46473e-05
-0.000108036
5.55984e-05
-0.000144862
8.22969e-05
-0.000162009
0.000107375
-0.000152009
0.000122356
-0.000113753
0.00011269
-1.83508e-05
7.61877e-05
7.32263e-05
3.39552e-05
0.000129466
4.81885e-06
0.000177072
0.000197987
-2.72812e-06
0.000106143
-5.15917e-06
0.000101351
6.21855e-06
7.91803e-05
1.72038e-05
1.59438e-06
2.05873e-05
-2.18171e-05
3.30497e-05
-4.60262e-05
1.08307e-05
-1.79855e-05
-1.63598e-05
-1.06732e-05
2.42605e-05
-9.47584e-05
5.02854e-05
-0.000134061
7.28891e-05
-0.000167465
9.14982e-05
-0.000180618
0.000111593
-0.000172104
0.000110548
-0.000112708
9.95877e-05
-7.39034e-06
6.03955e-05
0.000112418
2.15148e-05
0.000168346
1.72683e-06
0.00019686
0.000199713
9.86695e-06
9.62761e-05
1.11636e-05
0.000100055
2.86048e-05
6.17392e-05
3.67344e-05
-6.53531e-06
3.70952e-05
-2.21782e-05
7.57417e-06
-1.65054e-05
1.23984e-05
-2.28098e-05
1.9172e-05
-1.74466e-05
2.34116e-05
-9.89978e-05
5.38667e-05
-0.000164516
8.28582e-05
-0.000196457
9.90663e-05
-0.000196827
0.000115863
-0.000188901
9.80164e-05
-9.48617e-05
7.09366e-05
1.96894e-05
4.13563e-05
0.000141999
1.4103e-05
0.0001956
7.18929e-07
0.000210244
0.000200432
2.18303e-05
7.44458e-05
3.07706e-05
9.11145e-05
4.20465e-05
5.04632e-05
4.7419e-05
-1.19078e-05
5.12683e-05
-2.60277e-05
5.65174e-05
-2.17545e-05
8.08922e-05
-4.71846e-05
0.000105246
-4.17999e-05
9.79924e-05
-9.17446e-05
8.67505e-05
-0.000153274
9.11211e-05
-0.000200827
0.000104443
-0.000210148
0.000130902
-0.00021536
6.28764e-05
-2.68365e-05
2.54885e-05
5.70773e-05
1.78666e-05
0.000149621
4.79868e-06
0.000208668
-8.83045e-07
0.000215926
0.000199549
2.3888e-06
-2.75994e-05
4.92189e-06
-2.77217e-05
7.26346e-06
-2.75233e-05
1.00769e-05
-2.69446e-05
1.27528e-05
-2.70596e-05
1.62555e-05
-2.7823e-05
2.00664e-05
-2.59936e-05
2.60778e-05
-2.78799e-05
3.18357e-05
-2.80758e-05
3.7105e-05
-2.62437e-05
4.31117e-05
-2.46881e-05
5.03022e-05
-2.47431e-05
5.5104e-05
-2.10774e-05
5.77591e-05
-1.66135e-05
5.68978e-05
-7.85645e-06
5.24697e-05
-3.02347e-07
3.73754e-05
1.32302e-05
2.57168e-05
2.46588e-05
3.14117e-05
3.46373e-05
2.64001e-05
5.73052e-05
3.42393e-05
5.47363e-05
4.64517e-05
5.75279e-05
6.42744e-05
6.17753e-05
3.44357e-06
-3.1043e-05
7.00517e-06
-3.12833e-05
1.05667e-05
-3.10849e-05
1.44027e-05
-3.07805e-05
1.8107e-05
-3.07639e-05
2.2252e-05
-3.1968e-05
2.58867e-05
-2.96283e-05
3.0618e-05
-3.26112e-05
3.46675e-05
-3.21253e-05
3.93047e-05
-3.08809e-05
4.39537e-05
-2.9337e-05
4.60493e-05
-2.68387e-05
4.57422e-05
-2.07703e-05
4.59948e-05
-1.68662e-05
4.64205e-05
-8.28206e-06
4.86728e-05
-2.55471e-06
5.12506e-05
1.06524e-05
5.2803e-05
2.31064e-05
4.91494e-05
3.82909e-05
4.85851e-05
5.78696e-05
3.38555e-05
6.94659e-05
4.20416e-05
4.93418e-05
5.05468e-05
5.57692e-05
4.0354e-06
-3.50784e-05
8.06032e-06
-3.53082e-05
1.20033e-05
-3.50278e-05
1.59163e-05
-3.46935e-05
1.94264e-05
-3.42741e-05
2.27025e-05
-3.52441e-05
2.67578e-05
-3.36836e-05
3.14423e-05
-3.72957e-05
3.62921e-05
-3.69751e-05
4.35744e-05
-3.81632e-05
5.12827e-05
-3.70453e-05
5.75884e-05
-3.31444e-05
6.38699e-05
-2.70519e-05
6.99347e-05
-2.29309e-05
7.20174e-05
-1.03648e-05
6.97516e-05
-2.88922e-07
6.83595e-05
1.20445e-05
6.88763e-05
2.25896e-05
7.0814e-05
3.63531e-05
7.76191e-05
5.10644e-05
7.38133e-05
7.32717e-05
5.73579e-05
6.57972e-05
4.77267e-05
6.01781e-05
4.44839e-06
-3.95268e-05
8.81849e-06
-3.96783e-05
1.29413e-05
-3.91506e-05
1.67296e-05
-3.84819e-05
2.01251e-05
-3.76696e-05
2.268e-05
-3.7799e-05
2.64459e-05
-3.74494e-05
3.02011e-05
-4.10509e-05
3.60911e-05
-4.28651e-05
4.56614e-05
-4.77335e-05
5.45878e-05
-4.59717e-05
6.08621e-05
-3.94187e-05
6.49011e-05
-3.10909e-05
6.68003e-05
-2.48301e-05
7.01506e-05
-1.37151e-05
7.53135e-05
-5.4518e-06
8.23005e-05
5.05749e-06
8.53239e-05
1.95662e-05
9.16363e-05
3.00407e-05
0.000100361
4.234e-05
0.000118515
5.51178e-05
0.000117951
6.63609e-05
5.83638e-05
0.000107314
4.63314e-06
-4.41599e-05
9.10521e-06
-4.41504e-05
1.31701e-05
-4.32155e-05
1.67059e-05
-4.20176e-05
1.9431e-05
-4.03947e-05
2.10414e-05
-3.94094e-05
2.34825e-05
-3.98906e-05
2.73002e-05
-4.48686e-05
3.56552e-05
-5.12201e-05
4.69347e-05
-5.9013e-05
5.44505e-05
-5.34875e-05
6.01416e-05
-4.51097e-05
6.63229e-05
-3.72722e-05
7.11609e-05
-2.96681e-05
7.6486e-05
-1.90402e-05
8.03612e-05
-9.32701e-06
8.31501e-05
2.26859e-06
8.99654e-05
1.27509e-05
9.80326e-05
2.19735e-05
0.000111467
2.89058e-05
0.000127838
3.87466e-05
0.000150655
4.35442e-05
4.1908e-05
0.000167111
5.17255e-06
-4.93325e-05
9.84389e-06
-4.88217e-05
1.39978e-05
-4.73695e-05
1.71552e-05
-4.5175e-05
1.85591e-05
-4.17986e-05
1.73764e-05
-3.82267e-05
1.67824e-05
-3.92966e-05
2.09866e-05
-4.90728e-05
2.92318e-05
-5.94653e-05
3.74496e-05
-6.72308e-05
3.97936e-05
-5.58315e-05
3.95818e-05
-4.4898e-05
3.52583e-05
-3.29486e-05
3.1304e-05
-2.57139e-05
3.17944e-05
-1.95305e-05
3.6784e-05
-1.43166e-05
4.61232e-05
-7.07062e-06
6.04581e-05
-1.58404e-06
7.67419e-05
5.6897e-06
9.95167e-05
6.13101e-06
0.000114513
2.37508e-05
0.000136522
2.15346e-05
2.0404e-05
0.000158026
6.03629e-06
-5.53688e-05
1.12907e-05
-5.40761e-05
1.65464e-05
-5.26252e-05
2.13625e-05
-4.9991e-05
2.54018e-05
-4.58379e-05
2.47433e-05
-3.75682e-05
1.18159e-05
-2.63692e-05
1.55194e-06
-3.88088e-05
-7.37822e-06
-5.05351e-05
-1.40358e-05
-6.05732e-05
-2.44004e-05
-4.54669e-05
-3.3794e-05
-3.55043e-05
-3.76261e-05
-2.91165e-05
-3.77051e-05
-2.56349e-05
-3.40552e-05
-2.31805e-05
-2.83338e-05
-2.0038e-05
-1.85072e-05
-1.68973e-05
-1.74465e-06
-1.83465e-05
1.90836e-05
-1.51386e-05
4.5486e-05
-2.02714e-05
6.98043e-05
-5.6747e-07
9.05444e-05
7.94539e-07
-1.88977e-06
0.000112838
1.91876e-06
-5.72875e-05
4.69762e-06
-5.6855e-05
8.63977e-06
-5.65673e-05
1.38141e-05
-5.51654e-05
1.94372e-05
-5.1461e-05
2.0386e-05
-3.85169e-05
1.0818e-05
-1.68012e-05
-1.08873e-05
-1.71035e-05
-6.2414e-05
9.91639e-07
-8.32054e-05
-3.97818e-05
-7.92019e-05
-4.94705e-05
-7.2364e-05
-4.23423e-05
-6.18448e-05
-3.96357e-05
-5.43876e-05
-3.30921e-05
-4.88472e-05
-2.87208e-05
-4.43493e-05
-2.45359e-05
-3.81012e-05
-2.31454e-05
-2.8703e-05
-2.77447e-05
-1.453e-05
-2.93116e-05
2.07182e-07
-3.50085e-05
2.22151e-05
-2.25754e-05
4.55223e-05
-2.25127e-05
-2.29264e-05
6.65589e-05
-6.24954e-06
-5.1038e-05
-1.00227e-05
-5.30818e-05
-1.1098e-05
-5.5492e-05
-7.08946e-06
-5.9174e-05
5.32187e-06
-6.38724e-05
3.75168e-05
-7.07118e-05
9.06963e-05
-6.99808e-05
6.94603e-05
4.13255e-06
-1.26323e-05
8.30842e-05
-5.53242e-05
2.91004e-06
-6.38673e-05
-4.09273e-05
-6.35567e-05
-4.26529e-05
-5.52663e-05
-4.7926e-05
-4.19464e-05
-4.64119e-05
-3.02704e-05
-4.03968e-05
-2.13569e-05
-3.34494e-05
-2.23524e-05
-2.21499e-05
-1.88178e-05
-3.12793e-05
-1.01733e-05
-3.79562e-05
-3.98962e-06
-4.11922e-05
9.43542e-06
-3.60004e-05
2.50232e-05
-3.81004e-05
-3.89674e-05
4.10641e-05
-1.32579e-05
-3.778e-05
-2.32196e-05
-4.31201e-05
-3.06654e-05
-4.80462e-05
-3.54268e-05
-5.44126e-05
-3.90123e-05
-6.02869e-05
-4.38241e-05
-6.59e-05
-4.95096e-05
-6.42952e-05
-2.26689e-05
-2.27082e-05
3.73626e-05
2.30527e-05
4.10984e-05
-8.25691e-07
3.78424e-05
-3.76714e-05
5.25188e-05
-5.73293e-05
6.60256e-05
-6.14328e-05
7.6332e-05
-5.67184e-05
8.9766e-05
-5.38309e-05
9.72054e-05
-4.08888e-05
7.82628e-05
-3.20727e-06
3.89681e-05
8.01541e-06
2.39832e-05
-2.29712e-05
1.739e-05
-3.4599e-05
3.33134e-05
-5.19238e-05
3.03038e-05
-3.50909e-05
-4.68498e-05
3.81863e-05
-3.3153e-06
-3.44647e-05
-5.98523e-06
-4.04502e-05
-7.63927e-06
-4.63921e-05
-8.78893e-06
-5.32629e-05
-9.88395e-06
-5.91919e-05
-1.33565e-05
-6.24274e-05
-1.57249e-05
-6.19269e-05
-1.58934e-06
-3.68437e-05
1.30872e-05
8.37616e-06
-1.07167e-05
2.29782e-05
-1.16277e-05
-3.67604e-05
1.52909e-06
-7.04861e-05
1.26268e-05
-7.25305e-05
2.25656e-05
-6.66571e-05
2.78012e-05
-5.90666e-05
3.6447e-05
-4.95345e-05
7.19036e-05
-3.86639e-05
0.00012615
-4.62312e-05
0.000155377
-5.21979e-05
0.00017973
-5.8952e-05
0.000180212
-5.2406e-05
0.000169833
-2.4712e-05
-2.36386e-05
0.000146622
-1.33135e-06
-3.31334e-05
-2.23493e-06
-3.95466e-05
-3.79972e-06
-4.48273e-05
-6.76693e-06
-5.02957e-05
-1.12724e-05
-5.46865e-05
-1.71061e-05
-5.65936e-05
-2.42639e-05
-5.47691e-05
-1.85582e-05
-4.25494e-05
8.64104e-06
-1.88231e-05
3.8814e-05
-7.19471e-06
4.37504e-05
-4.16968e-05
3.84353e-05
-6.5171e-05
3.8297e-05
-7.23922e-05
4.4628e-05
-7.29882e-05
5.3146e-05
-6.75845e-05
5.94805e-05
-5.58691e-05
6.01683e-05
-3.93517e-05
5.02153e-05
-3.62782e-05
3.9088e-05
-4.10706e-05
2.71603e-05
-4.70243e-05
2.63985e-05
-5.16442e-05
5.55505e-05
-5.3864e-05
-5.64992e-05
8.84111e-05
2.13808e-08
-3.31548e-05
1.04146e-07
-3.96293e-05
-7.3558e-07
-4.39876e-05
-2.74649e-06
-4.82848e-05
-6.06858e-06
-5.13644e-05
-1.05631e-05
-5.20991e-05
-1.53627e-05
-4.99696e-05
-1.51268e-05
-4.27853e-05
-1.56377e-06
-3.23861e-05
1.69277e-05
-2.56862e-05
2.5433e-05
-5.02021e-05
2.45748e-05
-6.43127e-05
2.28424e-05
-7.06598e-05
2.22455e-05
-7.23913e-05
2.45791e-05
-6.99182e-05
3.19172e-05
-6.32072e-05
4.64278e-05
-5.38622e-05
5.85139e-05
-4.83643e-05
5.8382e-05
-4.09387e-05
4.78358e-05
-3.64781e-05
3.17536e-05
-3.5562e-05
1.81644e-05
-4.02748e-05
-4.07925e-05
2.45775e-06
2.40824e-06
-3.5563e-05
3.7079e-06
-4.0929e-05
3.54653e-06
-4.38262e-05
1.78066e-06
-4.65189e-05
-1.25087e-06
-4.83328e-05
-4.85937e-06
-4.84906e-05
-7.75668e-06
-4.70723e-05
-7.3308e-06
-4.32112e-05
-3.65105e-08
-3.96804e-05
1.06801e-05
-3.64028e-05
1.11564e-05
-5.06784e-05
7.42136e-06
-6.05777e-05
2.94037e-06
-6.61788e-05
-1.03734e-06
-6.84136e-05
-4.154e-06
-6.68015e-05
-7.23209e-06
-6.01291e-05
-8.27749e-06
-5.28168e-05
-8.29115e-06
-4.83506e-05
-6.19389e-06
-4.30359e-05
-3.79554e-06
-3.88765e-05
-3.89864e-06
-3.54589e-05
-5.90349e-06
-3.82699e-05
-3.8859e-05
-7.83699e-06
1.94858e-06
-3.75116e-05
3.26094e-06
-4.22414e-05
3.25586e-06
-4.38212e-05
1.82278e-06
-4.50858e-05
-8.74502e-07
-4.56355e-05
-3.90322e-06
-4.54619e-05
-6.30289e-06
-4.46726e-05
-6.23241e-06
-4.32816e-05
-3.12205e-06
-4.27908e-05
2.4518e-06
-4.19767e-05
1.42235e-06
-4.96489e-05
-4.37462e-06
-5.47807e-05
-1.10252e-05
-5.95283e-05
-1.69094e-05
-6.25293e-05
-2.16943e-05
-6.20166e-05
-2.50193e-05
-5.68041e-05
-2.68363e-05
-5.09998e-05
-2.83822e-05
-4.68047e-05
-2.98536e-05
-4.15645e-05
-3.04284e-05
-3.83017e-05
-2.90882e-05
-3.67992e-05
-2.83227e-05
-3.90354e-05
-3.8742e-05
-2.84397e-05
1.10294e-06
-3.86145e-05
1.61984e-06
-4.27583e-05
1.14692e-06
-4.33482e-05
-1.51847e-07
-4.37871e-05
-1.84971e-06
-4.39377e-05
-3.49972e-06
-4.38118e-05
-4.79458e-06
-4.33777e-05
-5.08844e-06
-4.29878e-05
-4.60743e-06
-4.32718e-05
-3.44012e-06
-4.3144e-05
-6.18402e-06
-4.6905e-05
-1.12439e-05
-4.97208e-05
-1.72845e-05
-5.34877e-05
-2.28206e-05
-5.69932e-05
-2.77613e-05
-5.70759e-05
-3.10054e-05
-5.35601e-05
-3.28804e-05
-4.91248e-05
-3.35216e-05
-4.61635e-05
-3.30716e-05
-4.20145e-05
-3.20624e-05
-3.9311e-05
-3.01647e-05
-3.86968e-05
-3.03661e-05
-3.8834e-05
-3.60898e-05
-3.30182e-05
1.99473e-07
-3.8814e-05
-1.69178e-07
-4.23896e-05
-9.9749e-07
-4.25199e-05
-1.988e-06
-4.27965e-05
-2.91879e-06
-4.30069e-05
-3.77025e-06
-4.29604e-05
-4.30057e-06
-4.28474e-05
-4.4173e-06
-4.2871e-05
-4.51013e-06
-4.31789e-05
-4.60073e-06
-4.30534e-05
-7.22679e-06
-4.4279e-05
-1.11463e-05
-4.58013e-05
-1.61883e-05
-4.84457e-05
-2.22224e-05
-5.0959e-05
-2.77904e-05
-5.15079e-05
-3.11669e-05
-5.01836e-05
-3.27531e-05
-4.75385e-05
-3.30123e-05
-4.59044e-05
-3.21056e-05
-4.29212e-05
-3.18782e-05
-3.95384e-05
-3.22371e-05
-3.83379e-05
-3.30312e-05
-3.80399e-05
-3.57573e-05
-3.33637e-05
-2.22164e-07
-3.85918e-05
-8.37312e-07
-4.17744e-05
-1.50672e-06
-4.18505e-05
-2.1364e-06
-4.21669e-05
-2.72182e-06
-4.24215e-05
-3.13423e-06
-4.2548e-05
-3.36191e-06
-4.26197e-05
-3.49502e-06
-4.27379e-05
-3.93421e-06
-4.27397e-05
-4.2896e-06
-4.2698e-05
-5.46285e-06
-4.31057e-05
-7.21936e-06
-4.40448e-05
-1.00433e-05
-4.56218e-05
-1.4459e-05
-4.65433e-05
-1.88981e-05
-4.70689e-05
-2.1727e-05
-4.73547e-05
-2.31689e-05
-4.60966e-05
-2.46722e-05
-4.44011e-05
-2.52649e-05
-4.23284e-05
-2.57903e-05
-3.9013e-05
-2.7414e-05
-3.67142e-05
-2.97013e-05
-3.57526e-05
-3.35996e-05
-3.1859e-05
-4.0528e-07
-3.81865e-05
-8.45695e-07
-4.1334e-05
-1.23105e-06
-4.14651e-05
-1.66545e-06
-4.17325e-05
-2.24664e-06
-4.18403e-05
-2.77203e-06
-4.20226e-05
-3.24352e-06
-4.21482e-05
-3.69292e-06
-4.22885e-05
-4.14225e-06
-4.22904e-05
-4.60454e-06
-4.22357e-05
-5.30895e-06
-4.24013e-05
-6.30192e-06
-4.30518e-05
-8.30664e-06
-4.36171e-05
-1.08028e-05
-4.40471e-05
-1.34186e-05
-4.4453e-05
-1.67316e-05
-4.40417e-05
-1.96049e-05
-4.32233e-05
-2.20173e-05
-4.19886e-05
-2.38837e-05
-4.0462e-05
-2.52878e-05
-3.76089e-05
-2.76231e-05
-3.43789e-05
-3.05243e-05
-3.28513e-05
-3.17543e-05
-3.23696e-05
-3.45431e-07
-3.78411e-05
-7.34686e-07
-4.09448e-05
-1.21012e-06
-4.09897e-05
-1.86754e-06
-4.1075e-05
-2.59668e-06
-4.11111e-05
-3.41929e-06
-4.12e-05
-4.24901e-06
-4.13185e-05
-5.11931e-06
-4.14182e-05
-5.89107e-06
-4.15187e-05
-6.35411e-06
-4.17727e-05
-6.73455e-06
-4.20209e-05
-7.58623e-06
-4.22001e-05
-8.9577e-06
-4.22456e-05
-1.06137e-05
-4.23911e-05
-1.28588e-05
-4.2208e-05
-1.56955e-05
-4.1205e-05
-1.83652e-05
-4.05537e-05
-2.0539e-05
-3.98147e-05
-2.24763e-05
-3.85247e-05
-2.39087e-05
-3.61765e-05
-2.54103e-05
-3.28773e-05
-2.71272e-05
-3.11345e-05
-3.03461e-05
-2.85353e-05
-3.40168e-07
-3.75009e-05
-9.01855e-07
-4.03831e-05
-1.57688e-06
-4.03147e-05
-2.26278e-06
-4.03891e-05
-2.94249e-06
-4.04314e-05
-3.6876e-06
-4.04549e-05
-4.48768e-06
-4.05184e-05
-5.3575e-06
-4.05484e-05
-6.2624e-06
-4.06138e-05
-7.14077e-06
-4.08943e-05
-8.15103e-06
-4.10106e-05
-9.33515e-06
-4.1016e-05
-1.06788e-05
-4.0902e-05
-1.21781e-05
-4.08917e-05
-1.39669e-05
-4.04192e-05
-1.56168e-05
-3.95551e-05
-1.74594e-05
-3.8711e-05
-1.9407e-05
-3.78672e-05
-2.14658e-05
-3.64659e-05
-2.33339e-05
-3.43084e-05
-2.49729e-05
-3.12383e-05
-2.61271e-05
-2.99803e-05
-2.95474e-05
-2.69258e-05
-4.95502e-07
-3.70054e-05
-1.0382e-06
-3.98404e-05
-1.55972e-06
-3.97932e-05
-2.10238e-06
-3.98465e-05
-2.68613e-06
-3.98477e-05
-3.32077e-06
-3.98202e-05
-4.04998e-06
-3.97892e-05
-4.86296e-06
-3.97354e-05
-5.71321e-06
-3.97635e-05
-6.83658e-06
-3.9771e-05
-7.98911e-06
-3.98581e-05
-9.14545e-06
-3.98597e-05
-1.05596e-05
-3.94879e-05
-1.22112e-05
-3.92401e-05
-1.3775e-05
-3.88554e-05
-1.5043e-05
-3.82871e-05
-1.63187e-05
-3.74354e-05
-1.799e-05
-3.61959e-05
-1.96349e-05
-3.48209e-05
-2.09661e-05
-3.29773e-05
-2.17826e-05
-3.04218e-05
-2.26598e-05
-2.91031e-05
-2.8534e-05
-2.36731e-05
-3.90704e-07
-3.66147e-05
-8.93468e-07
-3.93376e-05
-1.43023e-06
-3.92564e-05
-2.0235e-06
-3.92532e-05
-2.64297e-06
-3.92282e-05
-3.25679e-06
-3.92064e-05
-3.87624e-06
-3.91698e-05
-4.49443e-06
-3.91172e-05
-5.22293e-06
-3.9035e-05
-6.05496e-06
-3.89389e-05
-6.99153e-06
-3.89215e-05
-8.12334e-06
-3.87279e-05
-9.16727e-06
-3.84439e-05
-1.04265e-05
-3.79808e-05
-1.18643e-05
-3.74176e-05
-1.34038e-05
-3.67475e-05
-1.50915e-05
-3.57477e-05
-1.66962e-05
-3.45912e-05
-1.78808e-05
-3.36363e-05
-1.91534e-05
-3.17046e-05
-1.99076e-05
-2.96676e-05
-2.05215e-05
-2.84892e-05
-2.74798e-05
-2.15756e-05
-5.43724e-07
-3.6071e-05
-1.1475e-06
-3.87338e-05
-1.72945e-06
-3.86745e-05
-2.31507e-06
-3.86676e-05
-2.91548e-06
-3.86278e-05
-3.5466e-06
-3.85753e-05
-4.20349e-06
-3.85129e-05
-4.86763e-06
-3.84531e-05
-5.51922e-06
-3.83834e-05
-6.27961e-06
-3.81785e-05
-7.41258e-06
-3.77885e-05
-8.60076e-06
-3.75397e-05
-9.63407e-06
-3.74106e-05
-1.07013e-05
-3.69136e-05
-1.1825e-05
-3.6294e-05
-1.29978e-05
-3.55746e-05
-1.4055e-05
-3.46905e-05
-1.49683e-05
-3.36779e-05
-1.61526e-05
-3.2452e-05
-1.71559e-05
-3.07014e-05
-1.7812e-05
-2.90115e-05
-1.84625e-05
-2.78387e-05
-2.64391e-05
-1.95032e-05
-4.13044e-07
-3.5658e-05
-9.17269e-07
-3.82296e-05
-1.44422e-06
-3.81475e-05
-1.99275e-06
-3.81191e-05
-2.55551e-06
-3.8065e-05
-3.13593e-06
-3.79949e-05
-3.74821e-06
-3.79006e-05
-4.42033e-06
-3.7781e-05
-5.20124e-06
-3.76025e-05
-6.04072e-06
-3.73391e-05
-6.82803e-06
-3.70012e-05
-7.61622e-06
-3.67515e-05
-8.69715e-06
-3.63297e-05
-9.79027e-06
-3.58205e-05
-1.07268e-05
-3.53574e-05
-1.16619e-05
-3.46396e-05
-1.26776e-05
-3.36748e-05
-1.38865e-05
-3.2469e-05
-1.51339e-05
-3.12045e-05
-1.57768e-05
-3.00585e-05
-1.61964e-05
-2.85919e-05
-1.68984e-05
-2.71366e-05
-2.56248e-05
-1.77127e-05
-4.55207e-07
-3.52028e-05
-9.81553e-07
-3.77033e-05
-1.51899e-06
-3.76101e-05
-2.08942e-06
-3.75486e-05
-2.69897e-06
-3.74555e-05
-3.3468e-06
-3.7347e-05
-4.0177e-06
-3.72297e-05
-4.71184e-06
-3.70868e-05
-5.41683e-06
-3.68975e-05
-6.08234e-06
-3.66735e-05
-6.70013e-06
-3.63834e-05
-7.42863e-06
-3.6023e-05
-8.21277e-06
-3.55456e-05
-9.08743e-06
-3.49458e-05
-1.02664e-05
-3.41784e-05
-1.13574e-05
-3.35486e-05
-1.22061e-05
-3.28262e-05
-1.28746e-05
-3.18005e-05
-1.33986e-05
-3.06805e-05
-1.40048e-05
-2.94523e-05
-1.46681e-05
-2.79286e-05
-1.53256e-05
-2.64791e-05
-2.51329e-05
-1.58175e-05
-4.38909e-07
-3.47639e-05
-9.33924e-07
-3.72083e-05
-1.41873e-06
-3.71253e-05
-1.90028e-06
-3.70671e-05
-2.37839e-06
-3.69774e-05
-2.87055e-06
-3.68549e-05
-3.40235e-06
-3.66979e-05
-3.98476e-06
-3.65044e-05
-4.6273e-06
-3.6255e-05
-5.37652e-06
-3.59243e-05
-6.23021e-06
-3.55297e-05
-7.14429e-06
-3.51089e-05
-7.98092e-06
-3.47089e-05
-8.74286e-06
-3.41839e-05
-9.30287e-06
-3.36184e-05
-9.88313e-06
-3.29683e-05
-1.06245e-05
-3.20848e-05
-1.14009e-05
-3.10242e-05
-1.22274e-05
-2.98539e-05
-1.30009e-05
-2.86789e-05
-1.33749e-05
-2.75546e-05
-1.36495e-05
-2.62045e-05
-2.46812e-05
-1.41012e-05
-4.28877e-07
-3.4335e-05
-9.22352e-07
-3.67148e-05
-1.421e-06
-3.66266e-05
-1.94052e-06
-3.65476e-05
-2.48158e-06
-3.64363e-05
-3.0384e-06
-3.6298e-05
-3.60674e-06
-3.61296e-05
-4.18995e-06
-3.59212e-05
-4.77863e-06
-3.56663e-05
-5.33297e-06
-3.537e-05
-5.83857e-06
-3.50241e-05
-6.36656e-06
-3.45809e-05
-6.9992e-06
-3.40763e-05
-7.67503e-06
-3.3508e-05
-8.45512e-06
-3.28383e-05
-9.36334e-06
-3.20601e-05
-1.01523e-05
-3.12958e-05
-1.07523e-05
-3.04241e-05
-1.11311e-05
-2.94752e-05
-1.1422e-05
-2.8388e-05
-1.18543e-05
-2.71223e-05
-1.22395e-05
-2.58193e-05
-2.44733e-05
-1.24474e-05
-3.80014e-07
-3.3955e-05
-8.06379e-07
-3.62884e-05
-1.22979e-06
-3.62032e-05
-1.66404e-06
-3.61133e-05
-2.11522e-06
-3.59851e-05
-2.59248e-06
-3.58208e-05
-3.10372e-06
-3.56183e-05
-3.64922e-06
-3.53757e-05
-4.22593e-06
-3.50896e-05
-4.84371e-06
-3.47522e-05
-5.51173e-06
-3.43561e-05
-6.18921e-06
-3.39035e-05
-6.84485e-06
-3.34207e-05
-7.46856e-06
-3.28843e-05
-8.01937e-06
-3.22875e-05
-8.44973e-06
-3.16298e-05
-8.88035e-06
-3.08652e-05
-9.34445e-06
-2.996e-05
-9.88068e-06
-2.8939e-05
-1.03779e-05
-2.78908e-05
-1.0661e-05
-2.68391e-05
-1.08241e-05
-2.56562e-05
-2.43487e-05
-1.09487e-05
-3.78462e-07
-3.35765e-05
-8.05938e-07
-3.5861e-05
-1.23085e-06
-3.57783e-05
-1.66658e-06
-3.56776e-05
-2.11168e-06
-3.554e-05
-2.56609e-06
-3.53664e-05
-3.03034e-06
-3.51541e-05
-3.50543e-06
-3.49006e-05
-3.99159e-06
-3.46034e-05
-4.48505e-06
-3.42588e-05
-4.97732e-06
-3.38639e-05
-5.45812e-06
-3.34227e-05
-5.94992e-06
-3.29289e-05
-6.46409e-06
-3.23702e-05
-7.005e-06
-3.17466e-05
-7.58241e-06
-3.10523e-05
-8.15105e-06
-3.02965e-05
-8.62106e-06
-2.94901e-05
-8.94681e-06
-2.86132e-05
-9.18805e-06
-2.76495e-05
-9.41451e-06
-2.66127e-05
-9.55551e-06
-2.55152e-05
-2.43325e-05
-9.57177e-06
-3.29288e-07
-3.32472e-05
-6.99471e-07
-3.54908e-05
-1.06849e-06
-3.54093e-05
-1.45083e-06
-3.52953e-05
-1.84963e-06
-3.51412e-05
-2.26816e-06
-3.49479e-05
-2.70686e-06
-3.47154e-05
-3.16256e-06
-3.4445e-05
-3.62946e-06
-3.41365e-05
-4.10221e-06
-3.3786e-05
-4.5821e-06
-3.3384e-05
-5.07611e-06
-3.29287e-05
-5.57079e-06
-3.24342e-05
-6.04495e-06
-3.1896e-05
-6.49027e-06
-3.13013e-05
-6.89461e-06
-3.0648e-05
-7.25788e-06
-2.99333e-05
-7.60042e-06
-2.91475e-05
-7.91723e-06
-2.82964e-05
-8.16904e-06
-2.73977e-05
-8.32244e-06
-2.64593e-05
-8.37612e-06
-2.54615e-05
-2.43849e-05
-8.32362e-06
-3.00111e-07
-3.29471e-05
-6.40381e-07
-3.51505e-05
-9.77924e-07
-3.50717e-05
-1.32722e-06
-3.4946e-05
-1.68779e-06
-3.47807e-05
-2.06099e-06
-3.45747e-05
-2.4482e-06
-3.43282e-05
-2.85024e-06
-3.40429e-05
-3.26832e-06
-3.37185e-05
-3.69806e-06
-3.33563e-05
-4.12569e-06
-3.29563e-05
-4.54013e-06
-3.25142e-05
-4.95031e-06
-3.2024e-05
-5.36127e-06
-3.1485e-05
-5.76321e-06
-3.08994e-05
-6.14665e-06
-3.02646e-05
-6.50042e-06
-2.95795e-05
-6.80133e-06
-2.88466e-05
-7.03393e-06
-2.80638e-05
-7.19977e-06
-2.72319e-05
-7.29868e-06
-2.63604e-05
-7.30772e-06
-2.54525e-05
-2.449e-05
-7.20261e-06
-2.58912e-07
-3.26882e-05
-5.54505e-07
-3.48549e-05
-8.49446e-07
-3.47768e-05
-1.15674e-06
-3.46387e-05
-1.47661e-06
-3.44608e-05
-1.81095e-06
-3.42403e-05
-2.16112e-06
-3.3978e-05
-2.52469e-06
-3.36793e-05
-2.89729e-06
-3.33459e-05
-3.27659e-06
-3.2977e-05
-3.66189e-06
-3.2571e-05
-4.04977e-06
-3.21263e-05
-4.43078e-06
-3.1643e-05
-4.79609e-06
-3.11197e-05
-5.14169e-06
-3.05538e-05
-5.46129e-06
-2.9945e-05
-5.74659e-06
-2.92942e-05
-5.99169e-06
-2.86015e-05
-6.18652e-06
-2.7869e-05
-6.31774e-06
-2.71007e-05
-6.37393e-06
-2.63042e-05
-6.3426e-06
-2.54838e-05
-2.46295e-05
-6.20313e-06
-2.09079e-07
-3.24791e-05
-4.61517e-07
-3.46025e-05
-7.13611e-07
-3.45247e-05
-9.77744e-07
-3.43745e-05
-1.25318e-06
-3.41854e-05
-1.54247e-06
-3.3951e-05
-1.8498e-06
-3.36707e-05
-2.1742e-06
-3.3355e-05
-2.51217e-06
-3.30079e-05
-2.8584e-06
-3.26307e-05
-3.20625e-06
-3.22232e-05
-3.55008e-06
-3.17825e-05
-3.88734e-06
-3.13057e-05
-4.21308e-06
-3.0794e-05
-4.52048e-06
-3.02464e-05
-4.80272e-06
-2.96628e-05
-5.05215e-06
-2.90448e-05
-5.25898e-06
-2.83947e-05
-5.41417e-06
-2.77138e-05
-5.50925e-06
-2.70056e-05
-5.53589e-06
-2.62775e-05
-5.48127e-06
-2.55384e-05
-2.47859e-05
-5.32487e-06
-1.58447e-07
-3.23207e-05
-3.72265e-07
-3.43887e-05
-5.86567e-07
-3.43104e-05
-8.0989e-07
-3.41512e-05
-1.03933e-06
-3.39559e-05
-1.2728e-06
-3.37176e-05
-1.51129e-06
-3.34322e-05
-1.76462e-06
-3.31016e-05
-2.04314e-06
-3.27294e-05
-2.34871e-06
-3.23252e-05
-2.6746e-06
-3.18973e-05
-3.00534e-06
-3.14518e-05
-3.327e-06
-3.09841e-05
-3.63216e-06
-3.04888e-05
-3.91477e-06
-2.99637e-05
-4.16934e-06
-2.94082e-05
-4.38945e-06
-2.88247e-05
-4.56778e-06
-2.82164e-05
-4.69821e-06
-2.75834e-05
-4.77257e-06
-2.69312e-05
-4.78251e-06
-2.62676e-05
-4.71793e-06
-2.5603e-05
-2.49423e-05
-4.56152e-06
-9.83816e-08
-3.22223e-05
-2.94542e-07
-3.41925e-05
-4.88182e-07
-3.41168e-05
-6.84064e-07
-3.39553e-05
-8.80672e-07
-3.37593e-05
-1.07221e-06
-3.3526e-05
-1.25391e-06
-3.32505e-05
-1.43064e-06
-3.29249e-05
-1.61336e-06
-3.25467e-05
-1.81647e-06
-3.21221e-05
-2.05279e-06
-3.1661e-05
-2.32877e-06
-3.11758e-05
-2.6367e-06
-3.06761e-05
-2.95787e-06
-3.01677e-05
-3.26329e-06
-2.96583e-05
-3.52967e-06
-2.91418e-05
-3.74735e-06
-2.8607e-05
-3.91605e-06
-2.80477e-05
-4.03516e-06
-2.74643e-05
-4.10043e-06
-2.6866e-05
-4.10609e-06
-2.6262e-05
-4.04616e-06
-2.5663e-05
-2.50811e-05
-3.90726e-06
-5.5824e-08
-3.21665e-05
-2.73297e-07
-3.3975e-05