/*--------------------------------*- C++ -*----------------------------------*\
| =========                 |                                                 |
| \\      /  F ield         | OpenFOAM: The Open Source CFD Toolbox           |
|  \\    /   O peration     | Version:  2.4.0                                 |
|   \\  /    A nd           | Web:      www.OpenFOAM.org                      |
|    \\/     M anipulation  |                                                 |
\*---------------------------------------------------------------------------*/
FoamFile
{
    version     2.0;
    format      ascii;
    class       surfaceScalarField;
    location    "0.4";
    object      phi.air;
}
// * * * * * * * * * * * * * * * * * * * * * * * * * * * * * * * * * * * * * //

dimensions      [0 3 -1 0 0 0 0];

internalField   nonuniform List<scalar> 
4432
(
3.24659e-06
-3.24659e-06
6.54521e-06
-3.29862e-06
9.59742e-06
-3.05221e-06
1.34214e-05
-3.82396e-06
1.5863e-05
-2.44163e-06
1.96735e-05
-3.8105e-06
2.3341e-05
-3.66746e-06
2.59886e-05
-2.64765e-06
2.86678e-05
-2.67918e-06
3.20897e-05
-3.42186e-06
3.61349e-05
-4.04526e-06
3.93584e-05
-3.2235e-06
4.15809e-05
-2.22243e-06
4.28987e-05
-1.31786e-06
4.3309e-05
-4.10228e-07
4.33194e-05
-1.0458e-08
4.21117e-05
1.2077e-06
3.93307e-05
2.78101e-06
3.45528e-05
4.77793e-06
2.74838e-05
7.06899e-06
1.77958e-05
9.68793e-06
7.05964e-06
1.07362e-05
7.05955e-06
3.24888e-06
-6.49546e-06
6.55248e-06
-6.60221e-06
9.61988e-06
-6.11962e-06
1.33553e-05
-7.55938e-06
1.59774e-05
-5.06371e-06
1.97104e-05
-7.54355e-06
2.32472e-05
-7.20423e-06
2.59877e-05
-5.38815e-06
2.89326e-05
-5.62406e-06
3.24041e-05
-6.89336e-06
3.62895e-05
-7.93065e-06
3.91632e-05
-6.09721e-06
4.13869e-05
-4.44611e-06
4.29356e-05
-2.86663e-06
4.40521e-05
-1.52669e-06
4.42184e-05
-1.76722e-07
4.34892e-05
1.93687e-06
4.03933e-05
5.87686e-06
3.54455e-05
9.72579e-06
2.70548e-05
1.54597e-05
1.82955e-05
1.84473e-05
9.01874e-06
2.00129e-05
1.60783e-05
3.25299e-06
-9.74845e-06
6.54039e-06
-9.88961e-06
9.66272e-06
-9.24195e-06
1.32583e-05
-1.11549e-05
1.61657e-05
-7.97114e-06
1.97035e-05
-1.10814e-05
2.30043e-05
-1.0505e-05
2.59877e-05
-8.3715e-06
2.94361e-05
-9.07248e-06
3.296e-05
-1.04173e-05
3.59933e-05
-1.0964e-05
3.8388e-05
-8.49185e-06
4.12541e-05
-7.31219e-06
4.36091e-05
-5.22152e-06
4.56045e-05
-3.52185e-06
4.59872e-05
-5.59375e-07
4.48369e-05
3.08722e-06
4.20052e-05
8.70859e-06
3.57763e-05
1.59547e-05
2.77186e-05
2.35174e-05
1.92136e-05
2.69523e-05
1.12809e-05
2.79456e-05
2.73592e-05
3.25966e-06
-1.30074e-05
6.52308e-06
-1.31521e-05
9.72848e-06
-1.24465e-05
1.31551e-05
-1.45784e-05
1.62956e-05
-1.111e-05
1.97029e-05
-1.44818e-05
2.29167e-05
-1.37031e-05
2.59502e-05
-1.1383e-05
2.99325e-05
-1.30066e-05
3.30296e-05
-1.34335e-05
3.54464e-05
-1.32534e-05
3.81474e-05
-1.10314e-05
4.15901e-05
-1.0539e-05
4.44828e-05
-7.85008e-06
4.69583e-05
-5.66088e-06
4.81617e-05
-1.46397e-06
4.6613e-05
4.77812e-06
4.29192e-05
1.24368e-05
3.52266e-05
2.36479e-05
2.54982e-05
3.32457e-05
1.54975e-05
3.6953e-05
7.45752e-06
3.59856e-05
3.48167e-05
3.26641e-06
-1.59734e-05
6.52452e-06
-1.61013e-05
9.81415e-06
-1.54236e-05
1.30196e-05
-1.74169e-05
1.64851e-05
-1.42259e-05
1.96116e-05
-1.71895e-05
2.28157e-05
-1.64432e-05
2.64236e-05
-1.45101e-05
3.00162e-05
-1.61519e-05
3.28304e-05
-1.60347e-05
3.544e-05
-1.61449e-05
3.85682e-05
-1.49465e-05
4.20058e-05
-1.55945e-05
4.53896e-05
-1.40594e-05
4.86884e-05
-1.32967e-05
4.92468e-05
-7.03338e-06
4.7871e-05
2.5354e-06
4.38053e-05
1.59249e-05
3.74755e-05
3.03489e-05
2.80433e-05
4.27031e-05
1.65222e-05
4.84741e-05
8.56831e-06
4.39394e-05
4.33849e-05
3.27479e-06
-2.14597e-05
6.52075e-06
-2.17022e-05
9.99895e-06
-2.13758e-05
1.27534e-05
-2.34133e-05
1.67621e-05
-2.14876e-05
1.96135e-05
-2.44085e-05
2.27096e-05
-2.51464e-05
2.6734e-05
-2.51106e-05
2.97171e-05
-2.73901e-05
3.24079e-05
-2.88636e-05
3.50969e-05
-3.12585e-05
3.78734e-05
-3.22184e-05
4.00867e-05
-3.31655e-05
4.26893e-05
-3.40252e-05
4.47004e-05
-3.61665e-05
4.72022e-05
-3.43135e-05
4.79327e-05
-1.68717e-05
4.19282e-05
5.95435e-06
3.61618e-05
2.9308e-05
2.96088e-05
4.96094e-05
1.927e-05
5.89047e-05
8.54155e-06
5.4668e-05
5.19264e-05
3.1815e-06
-3.98059e-05
6.30413e-06
-4.02124e-05
9.77399e-06
-4.05223e-05
1.1997e-05
-4.21814e-05
1.5941e-05
-4.23569e-05
1.87085e-05
-4.52507e-05
2.09099e-05
-4.69778e-05
2.3495e-05
-4.87105e-05
2.57913e-05
-5.17983e-05
2.73572e-05
-5.26582e-05
2.76864e-05
-5.24459e-05
2.75616e-05
-4.4933e-05
2.65305e-05
-3.17715e-05
2.47765e-05
-2.14878e-05
2.24348e-05
-1.37731e-05
2.45517e-05
-6.92216e-06
3.42495e-05
-5.9898e-06
3.65476e-05
-6.27062e-06
2.94707e-05
2.2807e-05
2.72403e-05
4.56656e-05
2.18182e-05
6.46903e-05
1.31055e-05
6.34201e-05
6.50319e-05
2.50881e-06
-5.50015e-05
4.9428e-06
-5.4957e-05
7.44586e-06
-5.48383e-05
8.95771e-06
-5.35378e-05
1.07184e-05
-5.32938e-05
1.2042e-05
-5.15137e-05
1.20674e-05
-4.66927e-05
1.23082e-05
-4.2191e-05
1.29307e-05
-3.61711e-05
1.34908e-05
-2.85146e-05
1.30154e-05
-2.19651e-05
1.36754e-05
-1.85154e-05
1.5199e-05
-1.64299e-05
1.69262e-05
-1.39741e-05
1.62434e-05
-8.71934e-06
1.52243e-05
-4.73193e-06
1.72143e-05
-1.86594e-06
2.80291e-05
1.12781e-05
2.73805e-05
2.26445e-05
2.02248e-05
4.03434e-05
2.08141e-05
6.18373e-05
1.45634e-05
7.00768e-05
7.96054e-05
-2.82485e-05
2.68264e-05
-5.17839e-05
2.69802e-05
-7.8796e-05
2.75597e-05
-9.54576e-05
1.454e-05
-9.77764e-05
6.82056e-07
-8.8973e-05
-1.11804e-05
-6.93418e-05
-3.06396e-05
-4.76031e-05
-5.39362e-05
-2.8205e-05
-7.67439e-05
-6.33152e-06
-9.29763e-05
1.38454e-05
-9.97645e-05
3.97251e-05
-0.000116896
6.65458e-05
-0.000111489
9.13189e-05
-0.000112736
0.00010352
-8.13552e-05
0.000103443
-6.58826e-05
9.40281e-05
-4.97774e-05
5.67848e-05
2.1591e-05
0.000118309
-2.39249e-05
5.30591e-05
-4.71966e-05
5.34698e-05
-7.20206e-05
5.16093e-05
-8.25679e-05
2.64726e-05
-8.3908e-05
6.34788e-06
-7.91645e-05
-3.55604e-06
-7.25908e-05
-7.9569e-06
-6.30761e-05
-1.86955e-05
-3.35461e-05
-3.78548e-05
3.35806e-06
-8.44381e-05
3.78247e-05
-0.000134375
6.17883e-05
-0.00016466
8.38093e-05
-0.000154782
0.000103901
-0.00014853
0.000112142
-0.000103627
0.000112063
-7.16633e-05
0.00010038
-5.00347e-05
6.50996e-05
5.83426e-06
0.000121201
-2.04094e-05
7.99624e-05
-4.19549e-05
7.32221e-05
-6.25136e-05
7.09695e-05
-6.8278e-05
3.28268e-05
-6.52608e-05
4.23218e-05
-5.62846e-05
6.24052e-05
-5.23162e-05
6.73489e-05
-4.69389e-05
7.31089e-05
-2.47061e-05
5.57972e-05
1.41364e-05
-8.1751e-05
4.34624e-05
-0.00016054
7.06362e-05
-0.000182336
9.23313e-05
-0.000186472
0.000106797
-0.000163854
0.000114229
-0.000122969
0.000110125
-7.76455e-05
9.63105e-05
-4.76093e-05
5.57898e-05
1.14895e-05
0.000145547
-1.47395e-05
0.00010016
-3.40148e-05
8.967e-05
-5.01955e-05
8.78475e-05
-3.73349e-05
4.83906e-05
-2.12625e-05
7.44887e-05
-2.76461e-05
5.3903e-05
-2.18632e-05
2.86694e-05
-2.1832e-05
4.45561e-05
-3.03121e-05
3.65682e-05
3.24803e-05
1.75436e-06
5.92496e-05
-7.4873e-05
8.10132e-05
-0.000171605
0.000100701
-0.000196102
0.000114193
-0.000188183
0.000110867
-0.000128121
9.64302e-05
-7.3301e-05
6.92337e-05
6.69297e-06
2.51479e-05
0.0001163
0.000212949
-8.46756e-06
0.000111491
-2.11121e-05
9.9193e-05
-1.43963e-05
9.42847e-05
4.47121e-06
9.80032e-05
1.8075e-06
3.29009e-05
1.1165e-05
-1.85426e-05
1.47471e-05
-2.80633e-05
1.31196e-05
-2.26338e-05
-2.88828e-06
-5.7276e-07
3.44414e-06
-1.3389e-06
4.56974e-05
-2.98743e-05
8.45862e-05
-0.000126928
0.000102487
-0.000192338
0.000113205
-5.03478e-05
0.000107657
-8.87462e-05
7.71213e-05
-4.61283e-06
3.45255e-05
0.00011714
1.9755e-06
0.000236958
0.000293296
1.03767e-06
0.000107393
4.53795e-07
0.000101659
4.73981e-05
7.90247e-05
2.50551e-05
1.10788e-05
2.11164e-05
-1.89362e-05
3.30391e-05
-4.59652e-05
1.07772e-05
-1.78329e-05
-1.66929e-05
-1.05232e-05
5.47333e-06
-9.44371e-05
1.03619e-05
-9.8223e-05
5.39315e-05
-6.52286e-05
9.07968e-05
-0.000111721
0.000117213
-8.21699e-05
0.000119597
5.30004e-05
9.03718e-05
0.000194376
5.82745e-05
0.000223875
6.52328e-06
0.000173661
-1.25597e-05
0.000303009
0.000338255
1.21547e-05
9.18365e-05
1.32631e-05
0.000100068
9.10886e-05
6.13575e-05
4.59051e-05
-2.04282e-05
3.72946e-05
-2.19544e-05
7.52695e-06
-1.63947e-05
1.23404e-05
-2.27454e-05
1.90859e-05
-1.73847e-05
1.56184e-05
-9.9058e-05
2.37642e-05
-0.000149375
6.41752e-05
-0.000133246
0.000101494
-0.000124377
0.000138289
-6.69084e-05
0.000106371
6.13926e-05
4.60853e-05
9.46863e-05
3.54822e-06
0.000234097
-5.85787e-06
0.00020469
-1.25316e-05
0.000310961
0.000305669
2.25129e-05
3.15766e-05
3.23079e-05
5.11057e-05
9.07735e-05
4.43623e-05
5.94638e-05
-4.33933e-05
5.28673e-05
-2.61436e-05
5.65427e-05
-2.06946e-05
8.09016e-05
-4.7056e-05
0.000105695
-4.12042e-05
0.000101592
-9.19501e-05
8.34618e-05
-0.000118405
8.27286e-05
-0.000122464
0.000116706
-0.000129409
0.000173855
-8.06487e-05
5.72025e-05
4.81641e-05
-1.34294e-05
0.000101516
-2.37564e-05
0.00019249
-1.22298e-05
0.000216339
-1.58024e-05
0.000311573
0.000297619
2.62146e-06
-3.2124e-05
5.34015e-06
-3.20765e-05
7.88103e-06
-3.16065e-05
1.0695e-05
-3.06241e-05
1.33683e-05
-3.025e-05
1.67918e-05
-3.03146e-05
2.04047e-05
-2.79133e-05
2.6205e-05
-2.91345e-05
3.18551e-05
-2.87294e-05
3.70932e-05
-2.64507e-05
4.31055e-05
-2.46989e-05
5.02994e-05
-2.47383e-05
5.51034e-05
-2.10738e-05
5.77594e-05
-1.66109e-05
5.68982e-05
-7.85479e-06
5.24702e-05
-3.01598e-07
3.73768e-05
1.32309e-05
2.79118e-05
2.46502e-05
4.62957e-05
3.09203e-05
3.41233e-05
3.48158e-05
3.51158e-05
4.54375e-05
4.63666e-05
5.63365e-05
6.41718e-05
9.73149e-05
3.44356e-06
-3.10377e-05
7.00512e-06
-3.1278e-05
1.05667e-05
-3.108e-05
1.44027e-05
-3.07761e-05
1.81069e-05
-3.076e-05
2.22519e-05
-3.19645e-05
2.58866e-05
-2.96244e-05
3.06178e-05
-3.26058e-05
3.46672e-05
-3.21192e-05
3.93044e-05
-3.08752e-05
4.3953e-05
-2.933e-05
4.6048e-05
-2.68302e-05
4.57408e-05
-2.07597e-05
4.59937e-05
-1.68534e-05
4.64199e-05
-8.26699e-06
4.86728e-05
-2.54067e-06
5.12483e-05
1.06618e-05
5.27827e-05
2.31098e-05
4.88442e-05
3.83071e-05
5.00332e-05
5.39501e-05
3.58614e-05
4.70017e-05
4.2578e-05
4.08109e-05
4.91301e-05
5.64459e-05
4.03533e-06
-3.50525e-05
8.06017e-06
-3.52829e-05
1.2003e-05
-3.50039e-05
1.59159e-05
-3.46711e-05
1.9426e-05
-3.42532e-05
2.27019e-05
-3.52242e-05
2.6757e-05
-3.3653e-05
3.14416e-05
-3.72688e-05
3.62917e-05
-3.69588e-05
4.35742e-05
-3.81523e-05
5.12825e-05
-3.70338e-05
5.75885e-05
-3.3125e-05
6.38702e-05
-2.70119e-05
6.99349e-05
-2.28465e-05
7.20169e-05
-1.02915e-05
6.97503e-05
-2.43685e-07
6.83588e-05
1.20592e-05
6.88714e-05
2.25958e-05
7.0748e-05
3.6367e-05
7.2932e-05
5.10741e-05
6.83415e-05
6.18819e-05
5.68622e-05
4.60756e-05
3.85393e-05
5.99188e-05
4.44814e-06
-2.75426e-05
8.81798e-06
-2.78379e-05
1.29404e-05
-2.8344e-05
1.67283e-05
-2.92415e-05
2.01233e-05
-3.05859e-05
2.26766e-05
-3.31355e-05
2.64415e-05
-3.55562e-05
3.01987e-05
-4.0551e-05
3.60906e-05
-4.26953e-05
4.56609e-05
-4.76452e-05
5.45844e-05
-4.60014e-05
6.08565e-05
-3.94091e-05
6.48971e-05
-3.08538e-05
6.67917e-05
-2.42936e-05
7.01404e-05
-1.31106e-05
7.53064e-05
-4.67213e-06
8.22976e-05
5.90746e-06
8.53272e-05
2.02768e-05
9.16382e-05
3.05375e-05
9.97606e-05
4.26377e-05
0.0001112
5.48291e-05
0.00010701
5.43943e-05
4.37458e-05
9.71993e-05
4.5151e-06
1.50372e-05
8.87077e-06
1.48103e-05
1.28212e-05
1.53193e-05
1.6224e-05
1.56397e-05
1.88866e-05
1.56336e-05
2.05005e-05
1.37914e-05
2.32695e-05
9.90764e-06
2.72652e-05
-2.41805e-06
3.56765e-05
-1.91994e-05
4.69661e-05
-2.42017e-05
5.45029e-05
-2.73873e-05
6.01906e-05
-3.33286e-05
6.63278e-05
-3.38857e-05
7.11485e-05
-3.05169e-05
7.64838e-05
-2.16314e-05
8.03541e-05
-1.21954e-05
8.31162e-05
-1.59421e-06
8.99213e-05
1.07019e-05
9.80275e-05
2.09708e-05
0.000111496
2.82046e-05
0.000125716
3.88801e-05
0.000144622
4.15849e-05
3.60258e-05
0.000152397
4.8211e-06
1.72581e-05
9.04577e-06
1.83772e-05
1.24354e-05
2.08169e-05
1.42234e-05
2.47845e-05
1.30898e-05
3.12477e-05
6.37173e-06
3.92636e-05
-3.07151e-06
3.79408e-05
1.15716e-05
1.09953e-05
3.95106e-05
-3.08544e-06
4.71448e-05
1.74616e-05
4.30571e-05
4.12388e-05
4.13788e-05
3.47921e-05
3.76683e-05
2.70413e-05
3.39622e-05
1.58426e-05
3.37553e-05
9.71475e-06
3.81435e-05
3.40138e-06
4.81035e-05
1.9395e-05
6.22674e-05
3.20706e-05
7.79369e-05
1.4204e-05
9.99506e-05
1.72588e-05
0.000114486
2.52219e-05
0.000135452
2.07913e-05
1.93089e-05
0.000154132
5.94036e-06
-2.69165e-05
1.09659e-05
-2.53257e-05
1.59901e-05
-2.32133e-05
2.04928e-05
-1.93375e-05
2.41647e-05
-1.29701e-05
2.17237e-05
4.54761e-07
-1.08355e-06
2.27974e-05
-5.79925e-06
1.78115e-05
-1.74031e-06
4.09029e-05
-8.13534e-06
2.65656e-05
-3.4801e-05
2.6642e-05
-4.84322e-05
3.52138e-05
-5.56506e-05
3.82321e-05
-5.34796e-05
3.86601e-05
-4.34115e-05
4.03536e-05
-3.53224e-05
4.04736e-05
-2.22988e-05
4.31892e-05
-5.23258e-06
3.94164e-05
1.92087e-05
3.49385e-05
4.68083e-05
2.68085e-05
7.23996e-05
2.17724e-05
9.23193e-05
2.27024e-05
2.48673e-05
0.000113774
1.91633e-06
-5.72702e-05
4.6937e-06
-5.68383e-05
8.63398e-06
-5.65499e-05
1.38059e-05
-5.51455e-05
1.94246e-05
-5.14412e-05
2.03288e-05
-3.84733e-05
1.02515e-05
-1.65588e-05
-8.91434e-06
-1.2267e-05
-6.22717e-05
2.61888e-05
-8.57517e-05
-1.62625e-05
-8.33712e-05
-2.54223e-05
-7.82558e-05
-7.31768e-06
-6.77151e-05
5.25586e-06
-5.82961e-05
2.23323e-05
-5.27411e-05
3.68178e-05
-4.88614e-05
5.09476e-05
-4.57366e-05
5.98699e-05
-4.014e-05
5.58914e-05
-2.14793e-05
5.02034e-05
-2.26104e-05
3.91167e-05
1.42891e-05
4.07578e-05
4.60372e-05
3.84298e-05
3.68992e-05
7.52831e-05
-6.24954e-06
-5.1038e-05
-1.00227e-05
-5.30818e-05
-1.1098e-05
-5.54921e-05
-7.08947e-06
-5.9174e-05
5.32189e-06
-6.38724e-05
3.75206e-05
-7.07117e-05
9.07401e-05
-6.99789e-05
6.95758e-05
4.15249e-06
-1.24949e-05
8.31685e-05
-5.51413e-05
3.01756e-06
-6.36439e-05
-4.07986e-05
-6.34835e-05
-4.24105e-05
-5.55169e-05
-4.74748e-05
-4.21863e-05
-4.5453e-05
-2.96865e-05
-3.74316e-05
-1.95763e-05
-2.60155e-05
-2.5415e-05
-4.2828e-06
-2.44313e-05
6.2351e-06
-1.45459e-05
3.68926e-06
-1.45354e-05
2.51861e-06
5.80009e-06
1.98711e-05
2.33467e-05
2.56722e-05
2.72288e-05
4.44441e-05
-1.3258e-05
-3.77801e-05
-2.32196e-05
-4.31202e-05
-3.06655e-05
-4.80462e-05
-3.54269e-05
-5.44126e-05
-3.90123e-05
-6.0287e-05
-4.38241e-05
-6.59001e-05
-4.95097e-05
-6.42953e-05
-2.2669e-05
-2.27082e-05
3.73626e-05
2.30527e-05
4.10984e-05
-8.2565e-07
3.78424e-05
-3.76714e-05
5.25188e-05
-5.73293e-05
6.60256e-05
-6.14328e-05
7.6332e-05
-5.67184e-05
8.97661e-05
-5.38309e-05
9.7206e-05
-4.08888e-05
7.82733e-05
-3.207e-06
3.90967e-05
8.03259e-06
2.41658e-05
-2.27197e-05
1.73495e-05
-3.40336e-05
3.58786e-05
-4.86721e-05
3.00276e-05
-2.50848e-05
-2.85316e-05
3.79817e-05
-3.3153e-06
-3.44648e-05
-5.98524e-06
-4.04502e-05
-7.63928e-06
-4.63922e-05
-8.78894e-06
-5.3263e-05
-9.88396e-06
-5.9192e-05
-1.33565e-05
-6.24275e-05
-1.57249e-05
-6.19269e-05
-1.58934e-06
-3.68438e-05
1.30872e-05
8.37616e-06
-1.07167e-05
2.29782e-05
-1.16278e-05
-3.67604e-05
1.52909e-06
-7.04862e-05
1.26268e-05
-7.25305e-05
2.25656e-05
-6.66571e-05
2.78013e-05
-5.90666e-05
3.6447e-05
-4.95346e-05
7.19036e-05
-3.86639e-05
0.00012615
-4.62312e-05
0.000155377
-5.21979e-05
0.00017973
-5.8952e-05
0.000180212
-5.2406e-05
0.000169834
-2.47119e-05
-2.36378e-05
0.000146624
-1.33135e-06
-3.31334e-05
-2.23493e-06
-3.95466e-05
-3.79972e-06
-4.48274e-05
-6.76693e-06
-5.02958e-05
-1.12724e-05
-5.46865e-05
-1.71062e-05
-5.65937e-05
-2.42639e-05
-5.47692e-05
-1.85582e-05
-4.25494e-05
8.64104e-06
-1.88231e-05
3.8814e-05
-7.19471e-06
4.37505e-05
-4.16968e-05
3.84353e-05
-6.5171e-05
3.8297e-05
-7.23922e-05
4.46281e-05
-7.29882e-05
5.3146e-05
-6.75846e-05
5.94805e-05
-5.58691e-05
6.01684e-05
-3.93517e-05
5.02153e-05
-3.62782e-05
3.9088e-05
-4.10706e-05
2.71603e-05
-4.70243e-05
2.63985e-05
-5.16442e-05
5.55505e-05
-5.3864e-05
-5.64992e-05
8.84111e-05
2.13808e-08
-3.31548e-05
1.04146e-07
-3.96294e-05
-7.35581e-07
-4.39877e-05
-2.7465e-06
-4.82848e-05
-6.06859e-06
-5.13644e-05
-1.05631e-05
-5.20991e-05
-1.53627e-05
-4.99696e-05
-1.51268e-05
-4.27853e-05
-1.56377e-06
-3.23861e-05
1.69277e-05
-2.56862e-05
2.5433e-05
-5.02021e-05
2.45748e-05
-6.43128e-05
2.28424e-05
-7.06598e-05
2.22455e-05
-7.23913e-05
2.45791e-05
-6.99182e-05
3.19172e-05
-6.32072e-05
4.64278e-05
-5.38623e-05
5.85139e-05
-4.83643e-05
5.8382e-05
-4.09387e-05
4.78358e-05
-3.64781e-05
3.17536e-05
-3.5562e-05
1.81644e-05
-4.02748e-05
-4.07925e-05
2.45775e-06
2.40825e-06
-3.55631e-05
3.70791e-06
-4.09291e-05
3.54654e-06
-4.38263e-05
1.78066e-06
-4.6519e-05
-1.25088e-06
-4.83329e-05
-4.85938e-06
-4.84906e-05
-7.75668e-06
-4.70723e-05
-7.33081e-06
-4.32112e-05
-3.65105e-08
-3.96804e-05
1.06801e-05
-3.64029e-05
1.11564e-05
-5.06784e-05
7.42136e-06
-6.05777e-05
2.94037e-06
-6.61788e-05
-1.03734e-06
-6.84136e-05
-4.154e-06
-6.68015e-05
-7.23209e-06
-6.01291e-05
-8.27749e-06
-5.28169e-05
-8.29115e-06
-4.83506e-05
-6.19389e-06
-4.30359e-05
-3.79554e-06
-3.88765e-05
-3.89864e-06
-3.5459e-05
-5.90349e-06
-3.82699e-05
-3.8859e-05
-7.83699e-06
1.94858e-06
-3.75116e-05
3.26094e-06
-4.22414e-05
3.25587e-06
-4.38212e-05
1.82278e-06
-4.50859e-05
-8.74502e-07
-4.56356e-05
-3.90322e-06
-4.54619e-05
-6.30289e-06
-4.46726e-05
-6.23241e-06
-4.32816e-05
-3.12205e-06
-4.27908e-05
2.4518e-06
-4.19767e-05
1.42235e-06
-4.96489e-05
-4.37462e-06
-5.47807e-05
-1.10252e-05
-5.95283e-05
-1.69094e-05
-6.25293e-05
-2.16943e-05
-6.20166e-05
-2.50193e-05
-5.68041e-05
-2.68363e-05
-5.09998e-05
-2.83822e-05
-4.68047e-05
-2.98536e-05
-4.15645e-05
-3.04284e-05
-3.83017e-05
-2.90882e-05
-3.67992e-05
-2.83227e-05
-3.90354e-05
-3.8742e-05
-2.84397e-05
1.10294e-06
-3.86146e-05
1.61984e-06
-4.27583e-05
1.14692e-06
-4.33483e-05
-1.51847e-07
-4.37871e-05
-1.84971e-06
-4.39377e-05
-3.49972e-06
-4.38119e-05
-4.79458e-06
-4.33777e-05
-5.08844e-06
-4.29878e-05
-4.60743e-06
-4.32718e-05
-3.44012e-06
-4.3144e-05
-6.18403e-06
-4.6905e-05
-1.12439e-05
-4.97208e-05
-1.72845e-05
-5.34877e-05
-2.28206e-05
-5.69932e-05
-2.77613e-05
-5.70759e-05
-3.10054e-05
-5.356e-05
-3.28804e-05
-4.91248e-05
-3.35216e-05
-4.61635e-05
-3.30716e-05
-4.20145e-05
-3.20624e-05
-3.9311e-05
-3.01648e-05
-3.86968e-05
-3.03661e-05
-3.8834e-05
-3.60899e-05
-3.30183e-05
1.99474e-07
-3.8814e-05
-1.69178e-07
-4.23896e-05
-9.97491e-07
-4.25199e-05
-1.988e-06
-4.27966e-05
-2.91879e-06
-4.30069e-05
-3.77025e-06
-4.29604e-05
-4.30057e-06
-4.28474e-05
-4.4173e-06
-4.2871e-05
-4.51013e-06
-4.31789e-05
-4.60073e-06
-4.30534e-05
-7.22679e-06
-4.4279e-05
-1.11463e-05
-4.58013e-05
-1.61883e-05
-4.84457e-05
-2.22224e-05
-5.09591e-05
-2.77904e-05
-5.15079e-05
-3.11668e-05
-5.01835e-05
-3.27531e-05
-4.75385e-05
-3.30123e-05
-4.59044e-05
-3.21056e-05
-4.29211e-05
-3.18782e-05
-3.95384e-05
-3.22371e-05
-3.83379e-05
-3.30312e-05
-3.804e-05
-3.57573e-05
-3.33637e-05
-2.22164e-07
-3.85919e-05
-8.37313e-07
-4.17745e-05
-1.50672e-06
-4.18505e-05
-2.1364e-06
-4.21669e-05
-2.72182e-06
-4.24215e-05
-3.13423e-06
-4.2548e-05
-3.36191e-06
-4.26197e-05
-3.49502e-06
-4.27379e-05
-3.93421e-06
-4.27397e-05
-4.2896e-06
-4.2698e-05
-5.46285e-06
-4.31057e-05
-7.21936e-06
-4.40448e-05
-1.00433e-05
-4.56218e-05
-1.4459e-05
-4.65433e-05
-1.88981e-05
-4.70689e-05
-2.1727e-05
-4.73547e-05
-2.31689e-05
-4.60966e-05
-2.46721e-05
-4.4401e-05
-2.52649e-05
-4.23284e-05
-2.57903e-05
-3.9013e-05
-2.7414e-05
-3.67142e-05
-2.97013e-05
-3.57526e-05
-3.35996e-05
-3.1859e-05
-4.05281e-07
-3.81866e-05
-8.45696e-07
-4.13341e-05
-1.23105e-06
-4.14652e-05
-1.66545e-06
-4.17325e-05
-2.24664e-06
-4.18403e-05
-2.77203e-06
-4.20226e-05
-3.24352e-06
-4.21482e-05
-3.69292e-06
-4.22885e-05
-4.14225e-06
-4.22904e-05
-4.60454e-06
-4.22357e-05
-5.30895e-06
-4.24013e-05
-6.30192e-06
-4.30518e-05
-8.30665e-06
-4.36171e-05
-1.08028e-05
-4.40471e-05
-1.34186e-05
-4.4453e-05
-1.67316e-05
-4.40417e-05
-1.96048e-05
-4.32233e-05
-2.20173e-05
-4.19886e-05
-2.38837e-05
-4.04619e-05
-2.52878e-05
-3.76089e-05
-2.76231e-05
-3.43789e-05
-3.05243e-05
-3.28513e-05
-3.17543e-05
-3.23696e-05
-3.45432e-07
-3.78411e-05
-7.34687e-07
-4.09448e-05
-1.21012e-06
-4.09897e-05
-1.86754e-06
-4.10751e-05
-2.59668e-06
-4.11112e-05
-3.41929e-06
-4.12e-05
-4.24901e-06
-4.13185e-05
-5.11931e-06
-4.14182e-05
-5.89107e-06
-4.15187e-05
-6.35411e-06
-4.17727e-05
-6.73455e-06
-4.20209e-05
-7.58623e-06
-4.22001e-05
-8.9577e-06
-4.22456e-05
-1.06137e-05
-4.23911e-05
-1.28588e-05
-4.2208e-05
-1.56955e-05
-4.1205e-05
-1.83652e-05
-4.05537e-05
-2.0539e-05
-3.98147e-05
-2.24763e-05
-3.85247e-05
-2.39086e-05
-3.61765e-05
-2.54103e-05
-3.28772e-05
-2.71272e-05
-3.11344e-05
-3.0346e-05
-2.85353e-05
-3.40168e-07
-3.7501e-05
-9.01856e-07
-4.03831e-05
-1.57688e-06
-4.03147e-05
-2.26278e-06
-4.03892e-05
-2.94249e-06
-4.04314e-05
-3.6876e-06
-4.04549e-05
-4.48768e-06
-4.05184e-05
-5.3575e-06
-4.05484e-05
-6.2624e-06
-4.06138e-05
-7.14077e-06
-4.08943e-05
-8.15103e-06
-4.10106e-05
-9.33516e-06
-4.1016e-05
-1.06788e-05
-4.0902e-05
-1.21781e-05
-4.08917e-05
-1.3967e-05
-4.04192e-05
-1.56168e-05
-3.95552e-05
-1.74594e-05
-3.8711e-05
-1.9407e-05
-3.78672e-05
-2.14658e-05
-3.64658e-05
-2.33339e-05
-3.43084e-05
-2.49729e-05
-3.12383e-05
-2.61271e-05
-2.99803e-05
-2.95473e-05
-2.69257e-05
-4.95502e-07
-3.70055e-05
-1.0382e-06
-3.98404e-05
-1.55972e-06
-3.97932e-05
-2.10238e-06
-3.98465e-05
-2.68613e-06
-3.98477e-05
-3.32077e-06
-3.98202e-05
-4.04998e-06
-3.97892e-05
-4.86296e-06
-3.97354e-05
-5.71321e-06
-3.97635e-05
-6.83658e-06
-3.97709e-05
-7.98911e-06
-3.98581e-05
-9.14545e-06
-3.98597e-05
-1.05596e-05
-3.94879e-05
-1.22112e-05
-3.92401e-05
-1.3775e-05
-3.88554e-05
-1.50431e-05
-3.82871e-05
-1.63187e-05
-3.74354e-05
-1.799e-05
-3.61959e-05
-1.96349e-05
-3.48209e-05
-2.09661e-05
-3.29773e-05
-2.17826e-05
-3.04218e-05
-2.26598e-05
-2.91031e-05
-2.8534e-05
-2.36731e-05
-3.90704e-07
-3.66148e-05
-8.93468e-07
-3.93376e-05
-1.43023e-06
-3.92564e-05
-2.0235e-06
-3.92532e-05
-2.64297e-06
-3.92282e-05
-3.25679e-06
-3.92064e-05
-3.87624e-06
-3.91698e-05
-4.49443e-06
-3.91172e-05
-5.22293e-06
-3.9035e-05
-6.05496e-06
-3.89389e-05
-6.99153e-06
-3.89215e-05
-8.12335e-06
-3.87279e-05
-9.16727e-06
-3.8444e-05
-1.04265e-05
-3.79808e-05
-1.18643e-05
-3.74177e-05
-1.34038e-05
-3.67476e-05
-1.50915e-05
-3.57478e-05
-1.66962e-05
-3.45912e-05
-1.78808e-05
-3.36363e-05
-1.91534e-05
-3.17046e-05
-1.99076e-05
-2.96676e-05
-2.05215e-05
-2.84892e-05
-2.74798e-05
-2.15756e-05
-5.43724e-07
-3.6071e-05
-1.1475e-06
-3.87339e-05
-1.72945e-06
-3.86745e-05
-2.31507e-06
-3.86676e-05
-2.91548e-06
-3.86278e-05
-3.5466e-06
-3.85753e-05
-4.20349e-06
-3.85129e-05
-4.86763e-06
-3.84531e-05
-5.51922e-06
-3.83834e-05
-6.27961e-06
-3.81785e-05
-7.41258e-06
-3.77885e-05
-8.60076e-06
-3.75397e-05
-9.63407e-06
-3.74106e-05
-1.07013e-05
-3.69136e-05
-1.1825e-05
-3.6294e-05
-1.29979e-05
-3.55747e-05
-1.4055e-05
-3.46906e-05
-1.49684e-05
-3.36779e-05
-1.61527e-05
-3.2452e-05
-1.71559e-05
-3.07014e-05
-1.7812e-05
-2.90115e-05
-1.84626e-05
-2.78387e-05
-2.64392e-05
-1.95032e-05
-4.13044e-07
-3.5658e-05
-9.17269e-07
-3.82296e-05
-1.44422e-06
-3.81475e-05
-1.99275e-06
-3.81191e-05
-2.55551e-06
-3.8065e-05
-3.13593e-06
-3.79949e-05
-3.74821e-06
-3.79006e-05
-4.42033e-06
-3.7781e-05
-5.20124e-06
-3.76025e-05
-6.04072e-06
-3.73391e-05
-6.82803e-06
-3.70012e-05
-7.61622e-06
-3.67515e-05
-8.69715e-06
-3.63297e-05
-9.79027e-06
-3.58205e-05
-1.07268e-05
-3.53574e-05
-1.16619e-05
-3.46396e-05
-1.26776e-05
-3.36748e-05
-1.38865e-05
-3.2469e-05
-1.5134e-05
-3.12046e-05
-1.57768e-05
-3.00586e-05
-1.61964e-05
-2.8592e-05
-1.68985e-05
-2.71367e-05
-2.56249e-05
-1.77127e-05
-4.55207e-07
-3.52028e-05
-9.81554e-07
-3.77033e-05
-1.51899e-06
-3.76101e-05
-2.08942e-06
-3.75487e-05
-2.69897e-06
-3.74555e-05
-3.3468e-06
-3.7347e-05
-4.0177e-06
-3.72297e-05
-4.71184e-06
-3.70868e-05
-5.41683e-06
-3.68975e-05
-6.08234e-06
-3.66735e-05
-6.70013e-06
-3.63834e-05
-7.42863e-06
-3.6023e-05
-8.21277e-06
-3.55456e-05
-9.08743e-06
-3.49458e-05
-1.02664e-05
-3.41784e-05
-1.13574e-05
-3.35486e-05
-1.22061e-05
-3.28262e-05
-1.28746e-05
-3.18005e-05
-1.33986e-05
-3.06805e-05
-1.40049e-05
-2.94524e-05
-1.46682e-05
-2.79287e-05
-1.53256e-05
-2.64792e-05
-2.5133e-05
-1.58175e-05
-4.38909e-07
-3.47639e-05
-9.33924e-07
-3.72083e-05
-1.41873e-06
-3.71253e-05
-1.90028e-06
-3.70671e-05
-2.37839e-06
-3.69774e-05
-2.87055e-06
-3.68549e-05
-3.40235e-06
-3.66979e-05
-3.98476e-06
-3.65044e-05
-4.6273e-06
-3.6255e-05
-5.37652e-06
-3.59243e-05
-6.23021e-06
-3.55297e-05
-7.14429e-06
-3.51089e-05
-7.98092e-06
-3.47089e-05
-8.74286e-06
-3.41839e-05
-9.30287e-06
-3.36184e-05
-9.88314e-06
-3.29683e-05
-1.06245e-05
-3.20848e-05
-1.14009e-05
-3.10242e-05
-1.22275e-05
-2.9854e-05
-1.30009e-05
-2.86789e-05
-1.33749e-05
-2.75547e-05
-1.36495e-05
-2.62045e-05
-2.46813e-05
-1.41012e-05
-4.28877e-07
-3.4335e-05
-9.22353e-07
-3.67148e-05
-1.421e-06
-3.66266e-05
-1.94052e-06
-3.65476e-05
-2.48158e-06
-3.64363e-05
-3.0384e-06
-3.6298e-05
-3.60674e-06
-3.61296e-05
-4.18995e-06
-3.59212e-05
-4.77863e-06
-3.56663e-05
-5.33297e-06
-3.537e-05
-5.83857e-06
-3.50241e-05
-6.36656e-06
-3.45809e-05
-6.9992e-06
-3.40763e-05
-7.67503e-06
-3.3508e-05
-8.45512e-06
-3.28383e-05
-9.36334e-06
-3.20601e-05
-1.01523e-05
-3.12958e-05
-1.07524e-05
-3.04242e-05
-1.11311e-05
-2.94752e-05
-1.1422e-05
-2.8388e-05
-1.18544e-05
-2.71223e-05
-1.22395e-05
-2.58194e-05
-2.44734e-05
-1.24474e-05
-3.80015e-07
-3.3955e-05
-8.06379e-07
-3.62884e-05
-1.22979e-06
-3.62032e-05
-1.66404e-06
-3.61133e-05
-2.11522e-06
-3.59851e-05
-2.59248e-06
-3.58208e-05
-3.10372e-06
-3.56183e-05
-3.64922e-06
-3.53757e-05
-4.22593e-06
-3.50896e-05
-4.84371e-06
-3.47522e-05
-5.51173e-06
-3.43561e-05
-6.18921e-06
-3.39035e-05
-6.84485e-06
-3.34207e-05
-7.46856e-06
-3.28843e-05
-8.01937e-06
-3.22875e-05
-8.44973e-06
-3.16298e-05
-8.88036e-06
-3.08652e-05
-9.34445e-06
-2.99601e-05
-9.88069e-06
-2.8939e-05
-1.03779e-05
-2.78908e-05
-1.06611e-05
-2.68391e-05
-1.08242e-05
-2.56563e-05
-2.43488e-05
-1.09487e-05
-3.78462e-07
-3.35765e-05
-8.05938e-07
-3.5861e-05
-1.23085e-06
-3.57783e-05
-1.66658e-06
-3.56776e-05
-2.11168e-06
-3.554e-05
-2.56609e-06
-3.53664e-05
-3.03034e-06
-3.51541e-05
-3.50543e-06
-3.49006e-05
-3.99159e-06
-3.46034e-05
-4.48505e-06
-3.42587e-05
-4.97732e-06
-3.38639e-05
-5.45812e-06
-3.34227e-05
-5.94992e-06
-3.29289e-05
-6.46409e-06
-3.23702e-05
-7.005e-06
-3.17466e-05
-7.58241e-06
-3.10523e-05
-8.15105e-06
-3.02965e-05
-8.62106e-06
-2.94901e-05
-8.94681e-06
-2.86133e-05
-9.18807e-06
-2.76495e-05
-9.41452e-06
-2.66127e-05
-9.55553e-06
-2.55152e-05
-2.43325e-05
-9.57179e-06
-3.29288e-07
-3.32472e-05
-6.99471e-07
-3.54908e-05
-1.06849e-06
-3.54093e-05
-1.45083e-06
-3.52953e-05
-1.84963e-06
-3.51412e-05
-2.26816e-06
-3.49479e-05
-2.70686e-06
-3.47154e-05
-3.16256e-06
-3.4445e-05
-3.62946e-06
-3.41365e-05
-4.10221e-06
-3.3786e-05
-4.5821e-06
-3.3384e-05
-5.0761e-06
-3.29286e-05
-5.57079e-06
-3.24342e-05
-6.04495e-06
-3.1896e-05
-6.49027e-06
-3.13013e-05
-6.89461e-06
-3.0648e-05
-7.25788e-06
-2.99333e-05
-7.60043e-06
-2.91475e-05
-7.91723e-06
-2.82965e-05
-8.16905e-06
-2.73977e-05
-8.32245e-06
-2.64593e-05
-8.37614e-06
-2.54616e-05
-2.4385e-05
-8.32364e-06
-3.00111e-07
-3.29471e-05
-6.40381e-07
-3.51505e-05
-9.77924e-07
-3.50717e-05
-1.32722e-06
-3.4946e-05
-1.68779e-06
-3.47807e-05
-2.06099e-06
-3.45747e-05
-2.4482e-06
-3.43282e-05
-2.85023e-06
-3.40429e-05
-3.26832e-06
-3.37184e-05
-3.69806e-06
-3.33563e-05
-4.12569e-06
-3.29563e-05
-4.54013e-06
-3.25142e-05
-4.95031e-06
-3.2024e-05
-5.36127e-06
-3.1485e-05
-5.76321e-06
-3.08993e-05
-6.14665e-06
-3.02646e-05
-6.50042e-06
-2.95795e-05
-6.80133e-06
-2.88466e-05
-7.03394e-06
-2.80639e-05
-7.19978e-06
-2.72319e-05
-7.29869e-06
-2.63604e-05
-7.30773e-06
-2.54525e-05
-2.44901e-05
-7.20262e-06
-2.58913e-07
-3.26882e-05
-5.54505e-07
-3.48549e-05
-8.49446e-07
-3.47768e-05
-1.15674e-06
-3.46387e-05
-1.47661e-06
-3.44608e-05
-1.81095e-06
-3.42403e-05
-2.16112e-06
-3.3978e-05
-2.52469e-06
-3.36793e-05
-2.89729e-06
-3.33459e-05
-3.27659e-06
-3.2977e-05
-3.66189e-06
-3.2571e-05
-4.04976e-06
-3.21263e-05
-4.43078e-06
-3.1643e-05
-4.79609e-06
-3.11197e-05
-5.14169e-06
-3.05537e-05
-5.46129e-06
-2.9945e-05
-5.74659e-06
-2.92942e-05
-5.99169e-06
-2.86015e-05
-6.18652e-06
-2.7869e-05
-6.31775e-06
-2.71007e-05
-6.37393e-06
-2.63042e-05
-6.3426e-06
-2.54838e-05
-2.46295e-05
-6.20314e-06
-2.0908e-07
-3.24791e-05
-4.61517e-07
-3.46025e-05
-7.13611e-07
-3.45247e-05
-9.77744e-07
-3.43745e-05
-1.25318e-06
-3.41854e-05
-1.54247e-06
-3.3951e-05
-1.8498e-06
-3.36707e-05
-2.1742e-06
-3.33549e-05
-2.51217e-06
-3.30079e-05
-2.8584e-06
-3.26307e-05
-3.20625e-06
-3.22232e-05
-3.55008e-06
-3.17825e-05
-3.88734e-06
-3.13057e-05
-4.21308e-06
-3.0794e-05
-4.52048e-06
-3.02464e-05
-4.80272e-06
-2.96628e-05
-5.05215e-06
-2.90448e-05
-5.25898e-06
-2.83947e-05
-5.41417e-06
-2.77139e-05
-5.50925e-06
-2.70056e-05
-5.53589e-06
-2.62776e-05
-5.48127e-06
-2.55385e-05
-2.47859e-05
-5.32487e-06
-1.58447e-07
-3.23207e-05
-3.72265e-07
-3.43887e-05
-5.86567e-07
-3.43104e-05
-8.0989e-07
-3.41512e-05
-1.03933e-06
-3.39559e-05
-1.2728e-06
-3.37176e-05
-1.51129e-06
-3.34322e-05
-1.76462e-06
-3.31016e-05
-2.04314e-06
-3.27294e-05
-2.34871e-06
-3.23252e-05
-2.6746e-06
-3.18973e-05
-3.00534e-06
-3.14518e-05
-3.327e-06
-3.09841e-05
-3.63216e-06
-3.04888e-05
-3.91477e-06
-2.99637e-05
-4.16934e-06
-2.94082e-05
-4.38945e-06
-2.88247e-05
-4.56778e-06
-2.82164e-05
-4.69822e-06
-2.75834e-05
-4.77258e-06
-2.69313e-05
-4.78251e-06
-2.62676e-05
-4.71794e-06
-2.5603e-05
-2.49423e-05
-4.56152e-06
-9.83816e-08
-3.22223e-05
-2.94542e-07
-3.41925e-05
-4.88182e-07
-3.41168e-05
-6.84064e-07
-3.39553e-05
-8.80672e-07
-3.37593e-05
-1.07221e-06
-3.3526e-05
-1.25391e-06
-3.32505e-05
-1.43064e-06
-3.29249e-05
-1.61336e-06
-3.25466e-05
-1.81647e-06
-3.21221e-05
-2.05279e-06
-3.1661e-05
-2.32877e-06
-3.11758e-05
-2.6367e-06
-3.06761e-05
-2.95787e-06
-3.01677e-05
-3.26329e-06
-2.96583e-05
-3.52967e-06
-2.91418e-05
-3.74736e-06
-2.8607e-05
-3.91606e-06
-2.80477e-05
-4.03516e-06
-2.74643e-05
-4.10043e-06
-2.6866e-05
-4.10609e-06
-2.6262e-05
-4.04616e-06
-2.5663e-05
-2.50812e-05
-3.90726e-06
-5.5824e-08
-3.21665e-05
-2.73297e-07
-3.3975e-05
-4.85845e-07
-3.39042e-05
-6.87562e-07
-3.37536e-05