/*--------------------------------*- C++ -*----------------------------------*\
| =========                 |                                                 |
| \\      /  F ield         | OpenFOAM: The Open Source CFD Toolbox           |
|  \\    /   O peration     | Version:  2.4.0                                 |
|   \\  /    A nd           | Web:      www.OpenFOAM.org                      |
|    \\/     M anipulation  |                                                 |
\*---------------------------------------------------------------------------*/
FoamFile
{
    version     2.0;
    format      ascii;
    class       surfaceScalarField;
    location    "0.4";
    object      phi.water;
}
// * * * * * * * * * * * * * * * * * * * * * * * * * * * * * * * * * * * * * //

dimensions      [0 3 -1 0 0 0 0];

internalField   nonuniform List<scalar> 
4432
(
3.24659e-06
-3.24548e-06
6.54521e-06
-3.29765e-06
9.59743e-06
-3.05129e-06
1.34214e-05
-3.82272e-06
1.5863e-05
-2.44061e-06
1.96735e-05
-3.80882e-06
2.3341e-05
-3.66556e-06
2.59886e-05
-2.64578e-06
2.86678e-05
-2.67669e-06
3.20897e-05
-3.41827e-06
3.6135e-05
-4.04093e-06
3.93584e-05
-3.219e-06
4.15809e-05
-2.21778e-06
4.28987e-05
-1.313e-06
4.33089e-05
-4.05217e-07
4.33193e-05
-5.56929e-09
4.21116e-05
1.21258e-06
3.93305e-05
2.78547e-06
3.45526e-05
4.78128e-06
2.74838e-05
7.07095e-06
1.77959e-05
9.68871e-06
7.05964e-06
1.07366e-05
7.05979e-06
3.24888e-06
-6.48885e-06
6.55248e-06
-6.59615e-06
9.61993e-06
-6.11366e-06
1.33553e-05
-7.5518e-06
1.59775e-05
-5.05701e-06
1.97105e-05
-7.53413e-06
2.32473e-05
-7.19367e-06
2.59878e-05
-5.37762e-06
2.89328e-05
-5.61135e-06
3.24044e-05
-6.878e-06
3.62896e-05
-7.91456e-06
3.91633e-05
-6.0817e-06
4.13869e-05
-4.43179e-06
4.29355e-05
-2.85318e-06
4.40518e-05
-1.51325e-06
4.42178e-05
-1.60528e-07
4.34883e-05
1.95358e-06
4.03925e-05
5.89299e-06
3.5445e-05
9.73905e-06
2.70548e-05
1.54667e-05
1.82954e-05
1.84524e-05
9.01875e-06
2.00184e-05
1.60828e-05
3.25297e-06
-9.72223e-06
6.54044e-06
-9.86221e-06
9.66294e-06
-9.2156e-06
1.32583e-05
-1.11006e-05
1.6166e-05
-7.93822e-06
1.97039e-05
-1.09978e-05
2.30047e-05
-1.03803e-05
2.59882e-05
-8.24779e-06
2.94367e-05
-8.78987e-06
3.29608e-05
-9.74872e-06
3.59939e-05
-9.49757e-06
3.83885e-05
-6.54051e-06
4.12544e-05
-4.10633e-06
4.36091e-05
-9.0585e-07
4.56047e-05
2.46569e-06
4.59864e-05
3.39847e-06
4.48347e-05
5.39388e-06
4.20018e-05
9.78051e-06
3.57737e-05
1.64626e-05
2.77173e-05
2.37221e-05
1.92124e-05
2.70309e-05
1.12808e-05
2.80024e-05
2.73872e-05
3.25981e-06
-3.26603e-06
6.52319e-06
-2.87005e-06
9.72944e-06
-2.30089e-06
1.31541e-05
-2.32023e-07
1.62965e-05
3.89994e-07
1.97061e-05
2.99444e-06
2.29195e-05
8.09121e-06
2.59582e-05
1.22277e-05
2.9961e-05
1.27242e-05
3.3037e-05
1.31405e-05
3.54858e-05
1.34484e-05
3.81377e-05
1.54015e-05
4.16053e-05
1.58021e-05
4.42542e-05
1.84792e-05
4.64812e-05
2.19684e-05
4.76476e-05
2.65386e-05
4.62633e-05
2.82486e-05
4.26379e-05
3.09522e-05
3.50102e-05
2.97369e-05
2.54395e-05
3.42582e-05
1.54888e-05
3.71398e-05
7.45985e-06
3.62541e-05
3.49299e-05
3.31999e-06
1.12981e-05
6.58438e-06
1.12493e-05
9.92724e-06
1.18747e-05
1.30134e-05
1.0926e-05
1.64808e-05
1.34455e-05
1.99526e-05
1.23363e-05
2.33195e-05
1.46826e-05
2.69568e-05
1.77155e-05
3.07304e-05
1.72502e-05
3.35131e-05
1.79175e-05
3.60972e-05
1.81262e-05
3.92981e-05
1.92398e-05
4.26616e-05
1.91056e-05
4.5993e-05
2.16813e-05
4.85268e-05
2.36795e-05
4.75685e-05
3.24653e-05
4.47832e-05
4.43751e-05
3.41176e-05
5.68888e-05
3.36893e-05
5.20766e-05
2.77059e-05
4.79957e-05
1.64794e-05
4.97696e-05
8.5661e-06
4.45566e-05
4.36293e-05
3.35863e-06
1.21839e-05
6.64342e-06
1.19683e-05
1.03305e-05
1.23016e-05
1.2997e-05
1.04806e-05
1.73069e-05
1.22718e-05
2.02198e-05
9.4948e-06
2.32877e-05
9.19406e-06
2.73876e-05
9.23124e-06
3.03224e-05
7.25715e-06
3.2864e-05
6.68874e-06
3.52991e-05
6.17102e-06
3.81729e-05
7.38919e-06
4.03553e-05
5.03651e-06
4.24504e-05
4.66878e-06
4.41373e-05
4.83628e-06
4.60034e-05
9.21232e-06
4.47598e-05
2.02981e-05
3.46858e-05
4.48843e-05
2.93898e-05
6.66089e-05
1.96931e-05
8.25362e-05
1.68526e-05
7.05709e-05
8.56368e-06
5.60583e-05
5.3112e-05
3.24338e-06
-1.85694e-06
6.3682e-06
-2.10437e-06
1.00073e-05
-2.34004e-06
1.20612e-05
-3.39502e-06
1.63522e-05
-3.68137e-06
1.90444e-05
-5.89714e-06
2.10342e-05
-6.5565e-06
2.35318e-05
-7.76973e-06
2.55505e-05
-1.08428e-05
2.67024e-05
-1.24797e-05
2.70845e-05
-1.41428e-05
2.67316e-05
-1.4295e-05
2.50077e-05
-1.38502e-05
2.3324e-05
-1.19684e-05
2.15992e-05
-9.337e-06
2.27382e-05
-5.74064e-06
2.77924e-05
1.18413e-07
2.85887e-05
2.10467e-05
1.87426e-05
4.96159e-05
1.99996e-05
7.35514e-05
1.32183e-05
9.33235e-05
1.29288e-05
7.05617e-05
6.7678e-05
2.4586e-06
-2.09135e-05
4.86251e-06
-2.10864e-05
7.30854e-06
-2.13735e-05
8.70488e-06
-2.09499e-05
1.04494e-05
-2.1615e-05
1.15223e-05
-2.23503e-05
1.15679e-05
-2.09075e-05
1.18552e-05
-2.11231e-05
1.24119e-05
-2.19886e-05
1.31241e-05
-2.0859e-05
1.28247e-05
-1.86486e-05
1.36217e-05
-1.75445e-05
1.51934e-05
-1.62738e-05
1.69265e-05
-1.3958e-05
1.62431e-05
-8.71767e-06
1.52242e-05
-4.73031e-06
1.70815e-05
-1.8643e-06
2.24916e-05
1.30201e-05
1.72546e-05
4.21148e-05
1.01005e-05
6.71852e-05
1.5322e-05
8.22192e-05
1.13827e-05
9.54287e-05
6.10524e-05
-2.96102e-05
2.56166e-05
-5.55903e-05
2.37491e-05
-8.08917e-05
2.38021e-05
-9.60239e-05
1.42362e-05
-9.86455e-05
2.29883e-06
-9.09131e-05
-8.9266e-06
-7.17762e-05
-2.85487e-05
-4.97694e-05
-4.87117e-05
-2.98539e-05
-6.99175e-05
-8.18111e-06
-8.61181e-05
1.25358e-05
-9.63269e-05
3.90883e-05
-0.000108925
6.64631e-05
-0.000109938
9.19971e-05
-0.00010558
0.000104568
-7.95708e-05
0.000103807
-5.7045e-05
9.62736e-05
-4.65654e-05
7.3424e-05
-3.57304e-05
-1.8455e-05
-2.48653e-05
5.01756e-05
-4.95487e-05
5.06648e-05
-7.31314e-05
4.96471e-05
-8.27768e-05
2.55922e-05
-8.3995e-05
5.72703e-06
-7.91816e-05
-7.33334e-06
-7.25847e-05
-2.00342e-05
-6.45342e-05
-2.62393e-05
-3.72843e-05
-3.90668e-05
2.67184e-06
-7.76858e-05
3.60538e-05
-0.000132004
6.10906e-05
-0.000154352
8.36243e-05
-0.000151033
0.000103977
-0.000144179
0.000112319
-0.00010261
0.000112351
-6.45949e-05
0.000103931
-4.48396e-05
7.93382e-05
-1.66875e-05
3.10717e-05
-2.12988e-05
7.26748e-05
-4.25738e-05
7.27109e-05
-6.29107e-05
7.02146e-05
-6.84264e-05
3.12818e-05
-6.57775e-05
3.22178e-06
-5.61385e-05
-1.78822e-05
-4.94914e-05
-3.0358e-05
-4.45969e-05
-3.27627e-05
-2.48488e-05
-4.79578e-05
9.67505e-06
-9.56427e-05
4.16437e-05
-0.000148066
6.94281e-05
-0.000175634
9.22043e-05
-0.000178177
0.000106785
-0.000163613
0.00011451
-0.00012065
0.000110238
-7.72262e-05
9.65954e-05
-3.96061e-05
6.39586e-05
2.19758e-05
8.87771e-05
-1.76244e-05
9.08631e-05
-3.44576e-05
8.94735e-05
-5.0769e-05
8.66134e-05
-4.6259e-05
2.69632e-05
-3.23393e-05
-1.43702e-05
-2.8836e-05
-5.3103e-05
-2.06658e-05
-8.18953e-05
-1.36058e-05
-9.08834e-05
4.97028e-06
-7.7075e-05
3.18097e-05
-0.000115525
5.64519e-05
-0.000169352
8.03738e-05
-0.000193842
0.000100687
-0.000192741
0.000114166
-0.000175898
0.000111145
-0.000123765
9.70301e-05
-6.21632e-05
6.83156e-05
1.65588e-05
2.68445e-05
0.000115324
0.000172028
-1.23847e-05
0.00010331
-2.18612e-05
9.89044e-05
-2.56356e-05
9.05364e-05
-1.20025e-05
1.05699e-05
-6.50615e-06
-5.97906e-05
6.19897e-06
-8.93407e-05
1.91701e-05
-0.000146577
2.60902e-05
-0.000158774
3.50124e-05
-0.000161442
4.86012e-05
-0.000155529
6.60748e-05
-0.000182097
8.56933e-05
-0.000185905
0.000103616
-0.00018433
0.000113236
-0.000174144
0.000107392
-0.000111742
7.90882e-05
1.01323e-05
3.67586e-05
0.000115446
7.04419e-06
0.000170147
0.000193438
-2.74726e-06
0.000106114
-5.20456e-06
0.000101337
5.00456e-06
7.92048e-05
1.1314e-05
-8.95453e-07
1.55569e-05
-4.32154e-05
3.48029e-05
-5.61207e-05
2.36017e-05
-5.19829e-05
2.32202e-05
-4.46912e-05
7.03597e-05
-0.000129625
5.49991e-05
-0.000170193
7.58902e-05
-0.000151905
9.29732e-05
-0.000172706
0.000107122
-0.000188812
9.92075e-05
-0.000189673
9.36714e-05
-0.000106526
6.25879e-05
6.92762e-05
2.22347e-05
0.000164401
2.02418e-06
0.000195223
0.000193977
9.8773e-06
9.32822e-05
1.11285e-05
0.000100047
1.47767e-05
6.18493e-05
1.99656e-05
-1.21627e-06
3.19962e-05
-2.36449e-05
1.67964e-05
-2.8592e-05
2.41312e-05
-3.52173e-05
3.47964e-05
-2.85904e-05
5.81347e-05
-9.94749e-05
5.89228e-05
-0.000143052
8.85995e-05
-0.000195606
0.000101413
-0.000205413
0.000102907
-0.000227285
8.32851e-05
-0.000262261
7.01637e-05
-8.73115e-05
4.34381e-05
0.000119932
1.44683e-05
0.000193999
1.32926e-06
0.000209196
0.000189896
2.16639e-05
3.98476e-06
3.07481e-05
3.77807e-05
3.70677e-05
3.26057e-05
3.58917e-05
-5.28315e-06
3.85493e-05
-1.8193e-05
5.36995e-05
-2.76962e-05
7.9231e-05
-3.47804e-05
8.40076e-05
-2.77185e-05
4.73171e-05
-4.20326e-05
7.51627e-05
-0.000155459
9.29911e-05
-0.00021013
0.000106388
-0.00022185
0.000101888
-0.000268785
5.83417e-05
-0.000264589
4.2393e-05
-2.31954e-05
1.89303e-05
0.000146095
4.99852e-06
0.000207944
3.49691e-08
0.000214924
0.000187953
2.38175e-06
-2.75185e-05
4.90973e-06
-2.76459e-05
7.24674e-06
-2.74555e-05
1.00617e-05
-2.6888e-05
1.27396e-05
-2.70148e-05
1.62459e-05
-2.77926e-05
2.00615e-05
-2.59739e-05
2.60763e-05
-2.78691e-05
3.18355e-05
-2.8071e-05
3.71051e-05
-2.62421e-05
4.31118e-05
-2.46879e-05
5.03023e-05
-2.47431e-05
5.5104e-05
-2.10774e-05
5.77591e-05
-1.66136e-05
5.68978e-05
-7.85646e-06
5.24703e-05
-3.02338e-07
3.73801e-05
1.323e-05
2.56932e-05
2.46534e-05
2.95886e-05
3.4647e-05
1.64044e-05
5.98738e-05
2.23159e-05
6.70628e-05
5.13633e-05
7.18097e-05
6.82247e-05
8.91401e-05
3.44357e-06
-3.10431e-05
7.00517e-06
-3.12834e-05
1.05667e-05
-3.10849e-05
1.44027e-05
-3.07806e-05
1.8107e-05
-3.0764e-05
2.2252e-05
-3.1968e-05
2.58867e-05
-2.96284e-05
3.0618e-05
-3.26112e-05
3.46675e-05
-3.21253e-05
3.93047e-05
-3.08809e-05
4.39537e-05
-2.9337e-05
4.60493e-05
-2.68387e-05
4.57422e-05
-2.07703e-05
4.59948e-05
-1.68663e-05
4.64205e-05
-8.28214e-06
4.86729e-05
-2.55478e-06
5.12535e-05
1.06523e-05
5.28142e-05
2.31067e-05
4.91569e-05
3.82783e-05
4.8303e-05
5.78495e-05
3.10776e-05
7.36425e-05
3.63363e-05
6.07721e-05
6.1486e-05
6.40874e-05
4.0354e-06
-3.50784e-05
8.06032e-06
-3.53082e-05
1.20033e-05
-3.50278e-05
1.59163e-05
-3.46935e-05
1.94264e-05
-3.42741e-05
2.27025e-05
-3.52441e-05
2.67578e-05
-3.36836e-05
3.14423e-05
-3.72957e-05
3.62921e-05
-3.69751e-05
4.35744e-05
-3.81635e-05
5.12827e-05
-3.70482e-05
5.75884e-05
-3.31527e-05
6.387e-05
-2.70716e-05
6.99347e-05
-2.29781e-05
7.20174e-05
-1.04065e-05
6.97516e-05
-3.13419e-07
6.83596e-05
1.20389e-05
6.88809e-05
2.25881e-05
7.08279e-05
3.63456e-05
7.77048e-05
5.10331e-05
7.49246e-05
7.34293e-05
5.78063e-05
7.00068e-05
5.74871e-05
6.13538e-05
4.44839e-06
-3.9528e-05
8.81849e-06
-3.96795e-05
1.29413e-05
-3.91515e-05
1.67296e-05
-3.84825e-05
2.01251e-05
-3.76699e-05
2.268e-05
-3.77992e-05
2.64459e-05
-3.74494e-05
3.02011e-05
-4.1051e-05
3.60914e-05
-4.28745e-05
4.56629e-05
-4.78204e-05
5.4591e-05
-4.6161e-05
6.08656e-05
-3.97369e-05
6.49033e-05
-3.17099e-05
6.68057e-05
-2.59502e-05
7.01573e-05
-1.50958e-05
7.53181e-05
-7.37305e-06
8.23023e-05
3.36609e-06
8.53223e-05
1.84947e-05
9.16356e-05
2.94764e-05
0.000100363
4.20721e-05
0.000118741
5.49711e-05
0.000119799
6.66601e-05
6.06339e-05
0.000112488
4.63316e-06
-4.54046e-05
9.10526e-06
-4.53723e-05
1.31702e-05
-4.43519e-05
1.67059e-05
-4.30141e-05
1.9431e-05
-4.11878e-05
2.10414e-05
-3.99514e-05
2.34826e-05
-4.01489e-05
2.73054e-05
-4.49484e-05
3.5681e-05
-5.14013e-05
4.69603e-05
-5.9911e-05
5.45293e-05
-5.57465e-05
6.03259e-05
-4.86773e-05
6.66821e-05
-4.26253e-05
7.16157e-05
-3.72262e-05
7.69495e-05
-2.77327e-05
8.07189e-05
-1.87192e-05
8.34431e-05
-7.39339e-06
9.01149e-05
5.88574e-06
9.80426e-05
1.72453e-05
0.00011143
2.6021e-05
0.000127798
3.72769e-05
0.000150754
4.29881e-05
4.19015e-05
0.000167967
5.18747e-06
-8.28521e-05
9.87643e-06
-8.24761e-05
1.4056e-05
-8.05873e-05
1.72485e-05
-7.75528e-05
1.86934e-05
-7.27338e-05
1.75463e-05
-6.60912e-05
1.6925e-05
-5.74077e-05
2.11526e-05
-5.48689e-05
2.97147e-05
-6.25336e-05
3.85136e-05
-7.49679e-05
4.19009e-05
-6.65796e-05
4.29763e-05
-5.74525e-05
4.0209e-05
-4.90516e-05
3.66433e-05
-4.32968e-05
3.60735e-05
-3.8446e-05
3.97575e-05
-3.46065e-05
5.02349e-05
-2.77078e-05
6.47206e-05
-2.04199e-05
7.95835e-05
-7.16208e-06
0.000100727
-4.90718e-06
0.000114664
1.95173e-05
0.000135944
1.83693e-05
1.94128e-05
0.000157795
6.19812e-06
-0.000179993
1.18254e-05
-0.000179309
1.74095e-05
-0.000176722
2.25787e-05
-0.000172
2.68425e-05
-0.000164606
2.71093e-05
-0.00015401
1.6731e-05
-0.000132026
3.71186e-06
-0.000107581
-6.03277e-06
-0.000109326
-1.078e-05
-0.000119329
-1.78761e-05
-8.68105e-05
-3.07362e-05
-6.85374e-05
-3.831e-05
-5.63101e-05
-3.87082e-05
-4.49751e-05
-3.5473e-05
-3.75792e-05
-2.90184e-05
-3.17558e-05
-1.78954e-05
-2.69694e-05
3.14504e-06
-2.63848e-05
2.86053e-05
-2.07448e-05
5.85007e-05
-2.43067e-05
7.99711e-05
-8.74428e-06
9.46154e-05
-7.84512e-06
-1.09686e-05
0.000114876
8.00466e-06
-0.000143815
1.4154e-05
-0.000140381
2.08805e-05
-0.000137408
2.73248e-05
-0.000132844
3.28773e-05
-0.000107695
4.01626e-05
-0.000112689
3.65685e-05
-0.000115738
2.37016e-06
-0.000138939
-5.46658e-05
-0.000128365
-9.10268e-05
-0.000125513
-8.447e-05
-7.47049e-05
-7.09076e-05
-6.42806e-05
-6.20068e-05
-7.1323e-05
-5.44404e-05
-7.16858e-05
-4.87984e-05
-6.38664e-05
-4.31021e-05
-5.29145e-05
-3.7028e-05
-4.17493e-05
-2.65361e-05
-3.37297e-05
-1.35315e-05
-2.43279e-05
8.90887e-06
-2.79792e-05
3.26511e-05
-2.17456e-05
5.06726e-05
-2.501e-05
-3.46909e-05
6.98407e-05
-5.58314e-06
-6.652e-05
-1.02542e-05
-7.25307e-05
-1.10597e-05
-7.56703e-05
-7.55379e-06
-8.00636e-05
6.6209e-06
-7.01594e-05
1.38184e-05
-8.09214e-05
3.13191e-05
-3.95338e-05
1.30548e-05
-5.64768e-05
-4.79131e-05
-3.45795e-05
-8.75985e-05
-3.89636e-05
-8.10977e-05
-4.1359e-05
-6.53947e-05
-4.8708e-05
-5.17175e-05
-5.28025e-05
-4.05131e-05
-4.95665e-05
-3.23087e-05
-5.67896e-05
-2.51627e-05
-7.4078e-05
-1.88488e-05
-7.13228e-05
-1.52284e-05
-0.000107609
-8.59923e-06
-0.00010055
-9.0131e-07
-9.7345e-05
1.05539e-05
-4.64679e-05
2.08951e-05
-4.43272e-05
-5.0791e-05
3.70227e-05
-1.19306e-05
-2.91086e-05
-2.2943e-05
-3.89546e-05
-3.03754e-05
-4.55762e-05
-3.51478e-05
-5.34096e-05
-3.90024e-05
-6.02873e-05
-4.39511e-05
-6.58317e-05
-4.91958e-05
-6.40009e-05
-2.27605e-05
-2.275e-05
3.74371e-05
2.30344e-05
4.12419e-05
-4.7942e-07
3.78635e-05
-3.893e-05
5.24121e-05
-5.81493e-05
6.59839e-05
-6.16443e-05
7.63105e-05
-5.66617e-05
8.97645e-05
-5.3562e-05
9.69457e-05
-4.01744e-05
7.29416e-05
-2.37434e-06
2.69672e-05
-1.49516e-06
1.74264e-05
-4.94151e-05
1.76726e-05
-6.23012e-05
2.48951e-05
-8.15696e-05
2.85884e-05
-9.3512e-05
-0.000103506
3.81056e-05
-3.29897e-06
-3.56568e-05
-6.03047e-06
-4.13431e-05
-7.67254e-06
-4.71508e-05
-8.78772e-06
-5.37121e-05
-9.88526e-06
-5.92437e-05
-1.33584e-05
-6.2437e-05
-1.57171e-05
-6.19306e-05
-9.8487e-07
-3.68102e-05
1.28452e-05
9.04785e-06
-1.03705e-05
2.32289e-05
-1.17025e-05
-3.6752e-05
1.52754e-06
-7.05025e-05
1.26291e-05
-7.25329e-05
2.25668e-05
-6.66596e-05
2.78015e-05
-5.90715e-05
3.64448e-05
-4.95503e-05
7.18937e-05
-3.86895e-05
0.000126139
-4.62471e-05
0.000155365
-5.22023e-05
0.000179702
-5.89548e-05
0.000180063
-5.24097e-05
0.000169129
-2.47556e-05
-2.42092e-05
0.000145482
-1.2827e-06
-3.3528e-05
-2.21246e-06
-3.97973e-05
-3.77384e-06
-4.50764e-05
-6.70535e-06
-5.05325e-05
-1.12477e-05
-5.47689e-05
-1.71031e-05
-5.66065e-05
-2.42677e-05
-5.47837e-05
-1.83534e-05
-4.26019e-05
8.95515e-06
-1.89622e-05
3.83837e-05
-7.28676e-06
4.37841e-05
-4.17158e-05
3.84414e-05
-6.51834e-05
3.82986e-05
-7.23942e-05
4.46287e-05
-7.29893e-05
5.31453e-05
-6.75858e-05
5.9477e-05
-5.5871e-05
6.0162e-05
-3.93534e-05
5.02072e-05
-3.62796e-05
3.90791e-05
-4.1072e-05
2.7152e-05
-4.70258e-05
2.639e-05
-5.16454e-05
5.55449e-05
-5.38625e-05
-5.6495e-05
8.84072e-05
9.42988e-09
-3.26654e-05
1.03195e-07
-3.95044e-05
-7.33226e-07
-4.39423e-05
-2.74307e-06
-4.82664e-05
-6.06553e-06
-5.13589e-05
-1.05605e-05
-5.20986e-05
-1.53618e-05
-4.99708e-05
-1.51256e-05
-4.27856e-05
-1.48062e-06
-3.23804e-05
1.69082e-05
-2.56103e-05
2.54314e-05
-5.02044e-05
2.45771e-05
-6.43168e-05
2.28444e-05
-7.06636e-05
2.22467e-05
-7.23947e-05
2.45787e-05
-6.99212e-05
3.19143e-05
-6.32099e-05
4.64217e-05
-5.38647e-05
5.85057e-05
-4.8366e-05
5.83727e-05
-4.094e-05
4.78273e-05
-3.64786e-05
3.1747e-05
-3.55611e-05
1.81596e-05
-4.02727e-05
-4.07879e-05
2.45622e-06
2.40189e-06
-3.55988e-05
3.70622e-06
-4.09459e-05
3.54648e-06
-4.38301e-05
1.78061e-06
-4.65212e-05
-1.25079e-06
-4.8335e-05
-4.85903e-06
-4.8493e-05
-7.75576e-06
-4.70749e-05
-7.32966e-06
-4.3213e-05
-3.50107e-08
-3.96821e-05
1.06817e-05
-3.64046e-05
1.11583e-05
-5.06803e-05
7.42334e-06
-6.05798e-05
2.94214e-06
-6.6181e-05
-1.03639e-06
-6.8416e-05
-4.15461e-06
-6.68041e-05
-7.2352e-06
-6.01317e-05
-8.28301e-06
-5.28191e-05
-8.29903e-06
-4.8353e-05
-6.20202e-06
-4.30367e-05
-3.80261e-06
-3.88766e-05
-3.90391e-06
-3.54574e-05
-5.90552e-06
-3.82672e-05
-3.88547e-05
-7.83868e-06
1.94856e-06
-3.75134e-05
3.26051e-06
-4.22435e-05
3.25569e-06
-4.3823e-05
1.82276e-06
-4.50875e-05
-8.74311e-07
-4.56372e-05
-3.90277e-06
-4.54635e-05
-6.30215e-06
-4.46742e-05
-6.23138e-06
-4.32833e-05
-3.12075e-06
-4.27925e-05
2.45336e-06
-4.19785e-05
1.42413e-06
-4.9651e-05
-4.37281e-06
-5.4783e-05
-1.10237e-05
-5.95306e-05
-1.69087e-05
-6.25318e-05
-2.16952e-05
-6.20195e-05
-2.50219e-05
-5.68069e-05
-2.68419e-05
-5.10029e-05
-2.83887e-05
-4.68062e-05
-2.98611e-05
-4.15657e-05
-3.0434e-05
-3.83007e-05
-2.90925e-05
-3.6798e-05
-2.83235e-05
-3.90322e-05
-3.87391e-05
-2.84396e-05
1.10285e-06
-3.86164e-05
1.61969e-06
-4.27602e-05
1.14683e-06
-4.335e-05
-1.51812e-07
-4.37887e-05
-1.84949e-06
-4.39393e-05
-3.49928e-06
-4.38134e-05
-4.79389e-06
-4.33793e-05
-5.08749e-06
-4.29894e-05
-4.60624e-06
-4.32734e-05
-3.43872e-06
-4.31458e-05
-6.18249e-06
-4.6907e-05
-1.12424e-05
-4.97229e-05
-1.72834e-05
-5.349e-05
-2.28204e-05
-5.69958e-05
-2.77622e-05
-5.70787e-05
-3.10084e-05
-5.35631e-05
-3.28844e-05
-4.91268e-05
-3.35278e-05
-4.61655e-05
-3.30771e-05
-4.20143e-05
-3.20679e-05
-3.93106e-05
-3.01671e-05
-3.86943e-05
-3.03671e-05
-3.88322e-05
-3.60845e-05
-3.3016e-05
1.99401e-07
-3.88159e-05
-1.69264e-07
-4.23915e-05
-9.97526e-07
-4.25217e-05
-1.98793e-06
-4.27983e-05
-2.91855e-06
-4.30085e-05
-3.76981e-06
-4.2962e-05
-4.29991e-06
-4.2849e-05
-4.41643e-06
-4.28727e-05
-4.50905e-06
-4.31806e-05
-4.59949e-06
-4.30552e-05
-7.22545e-06
-4.42809e-05
-1.11451e-05
-4.58034e-05
-1.61875e-05
-4.8448e-05
-2.22225e-05
-5.09615e-05
-2.77916e-05
-5.15104e-05
-3.11689e-05
-5.01859e-05
-3.27572e-05
-4.75408e-05
-3.30163e-05
-4.5905e-05
-3.21109e-05
-4.29221e-05
-3.18814e-05
-3.95374e-05
-3.224e-05
-3.83375e-05
-3.30286e-05
-3.80366e-05
-3.57557e-05
-3.33624e-05
-2.22181e-07
-3.85937e-05
-8.37331e-07
-4.17763e-05
-1.5067e-06
-4.18523e-05
-2.13627e-06
-4.21686e-05
-2.72155e-06
-4.24232e-05
-3.13378e-06
-4.25496e-05
-3.36128e-06
-4.26214e-05
-3.4942e-06
-4.27396e-05
-3.93322e-06
-4.27415e-05
-4.28848e-06
-4.26998e-05
-5.46168e-06
-4.31076e-05
-7.21831e-06
-4.40468e-05
-1.00427e-05
-4.5624e-05
-1.44591e-05
-4.65454e-05
-1.88991e-05
-4.70712e-05
-2.17291e-05
-4.73568e-05
-2.31713e-05
-4.60985e-05
-2.46766e-05
-4.44031e-05
-2.52683e-05
-4.23292e-05
-2.57942e-05
-3.90134e-05
-2.74139e-05
-3.67128e-05
-2.97006e-05
-3.57511e-05
-3.35959e-05
-3.18526e-05
-4.05286e-07
-3.81885e-05
-8.45681e-07
-4.13359e-05
-1.23097e-06
-4.1467e-05
-1.66528e-06
-4.17342e-05
-2.24633e-06
-4.1842e-05
-2.77158e-06
-4.20242e-05
-3.2429e-06
-4.21499e-05
-3.69214e-06
-4.22902e-05
-4.14132e-06
-4.22921e-05
-4.60351e-06
-4.22375e-05
-5.30789e-06
-4.24032e-05
-6.30099e-06
-4.30538e-05
-8.30602e-06
-4.36192e-05
-1.08031e-05
-4.40494e-05
-1.34194e-05
-4.44552e-05
-1.67335e-05
-4.4044e-05
-1.96074e-05
-4.32254e-05
-2.20206e-05
-4.19905e-05
-2.38867e-05
-4.04633e-05
-2.52899e-05
-3.76096e-05
-2.76229e-05
-3.43787e-05
-3.05213e-05
-3.28502e-05
-3.17529e-05
-3.23657e-05
-3.45407e-07
-3.7843e-05
-7.34621e-07
-4.09467e-05
-1.20999e-06
-4.09915e-05
-1.8673e-06
-4.10768e-05
-2.59632e-06
-4.11129e-05
-3.41881e-06
-4.12017e-05
-4.24838e-06
-4.13202e-05
-5.11856e-06
-4.14199e-05
-5.89021e-06
-4.15203e-05
-6.35318e-06
-4.17744e-05
-6.73363e-06
-4.20227e-05
-7.58542e-06
-4.22021e-05
-8.95726e-06
-4.22477e-05
-1.06139e-05
-4.23932e-05
-1.28597e-05
-4.22102e-05
-1.56973e-05
-4.12072e-05
-1.83675e-05
-4.05558e-05
-2.05418e-05
-3.98167e-05
-2.24786e-05
-3.85263e-05
-2.39098e-05
-3.61776e-05
-2.54092e-05
-3.28776e-05
-2.71239e-05
-3.11345e-05
-3.03456e-05
-2.8531e-05
-3.40119e-07
-3.75028e-05
-9.01748e-07
-4.03849e-05
-1.57669e-06
-4.03165e-05
-2.2625e-06
-4.03909e-05
-2.9421e-06
-4.04332e-05
-3.6871e-06
-4.04566e-05
-4.48706e-06
-4.05201e-05
-5.35678e-06
-4.05501e-05
-6.2616e-06
-4.06155e-05
-7.13994e-06
-4.08961e-05
-8.15022e-06
-4.10124e-05
-9.3345e-06
-4.10179e-05
-1.06784e-05
-4.0904e-05
-1.21784e-05
-4.08939e-05
-1.39678e-05
-4.04213e-05
-1.56185e-05
-3.95574e-05
-1.74616e-05
-3.87132e-05
-1.94093e-05
-3.78693e-05
-2.14676e-05
-3.64676e-05
-2.33343e-05
-3.43098e-05
-2.49715e-05
-3.12391e-05
-2.61233e-05
-2.99807e-05
-2.95479e-05
-2.69221e-05
-4.95445e-07
-3.70073e-05
-1.03807e-06
-3.98422e-05
-1.55951e-06
-3.9795e-05
-2.10206e-06
-3.98483e-05
-2.68571e-06
-3.98494e-05
-3.32024e-06
-3.98219e-05
-4.04937e-06
-3.97909e-05
-4.86226e-06
-3.97371e-05
-5.71246e-06
-3.97652e-05
-6.83582e-06
-3.97727e-05
-7.98841e-06
-3.98599e-05
-9.14489e-06
-3.98616e-05
-1.05593e-05
-3.94899e-05
-1.22115e-05
-3.92422e-05
-1.3776e-05
-3.88576e-05
-1.50447e-05
-3.82894e-05
-1.63208e-05
-3.74376e-05
-1.7992e-05
-3.6198e-05
-1.96363e-05
-3.48228e-05
-2.09661e-05
-3.29787e-05
-2.17808e-05
-3.04229e-05
-2.26563e-05
-2.91041e-05
-2.85349e-05
-2.36693e-05
-3.90624e-07
-3.66165e-05
-8.93309e-07
-3.93394e-05
-1.42998e-06
-3.92582e-05
-2.02316e-06
-3.9255e-05
-2.64253e-06
-3.92299e-05
-3.25625e-06
-3.92081e-05
-3.87562e-06
-3.91715e-05
-4.49375e-06
-3.9119e-05
-5.22223e-06
-3.90368e-05
-6.05427e-06
-3.89407e-05
-6.99089e-06
-3.89234e-05
-8.12288e-06
-3.87298e-05
-9.16711e-06
-3.8446e-05
-1.04269e-05
-3.79829e-05
-1.18653e-05
-3.74198e-05
-1.34055e-05
-3.67498e-05
-1.50934e-05
-3.575e-05
-1.66979e-05
-3.45933e-05
-1.78818e-05
-3.36382e-05
-1.9153e-05
-3.17062e-05
-1.99057e-05
-2.9669e-05
-2.05178e-05
-2.84903e-05
-2.7481e-05
-2.15724e-05
-5.43649e-07
-3.60728e-05
-1.14733e-06
-3.87356e-05
-1.72919e-06
-3.86762e-05
-2.31471e-06
-3.86694e-05
-2.91502e-06
-3.86295e-05
-3.54607e-06
-3.8577e-05
-4.20288e-06
-3.85146e-05
-4.86699e-06
-3.84549e-05
-5.51857e-06
-3.83852e-05
-6.27897e-06
-3.81804e-05
-7.41203e-06
-3.77904e-05
-8.60037e-06
-3.75416e-05
-9.63402e-06
-3.74127e-05
-1.07017e-05
-3.69157e-05
-1.1826e-05
-3.62962e-05
-1.29995e-05
-3.55769e-05
-1.40568e-05
-3.46928e-05
-1.49699e-05
-3.368e-05
-1.61534e-05
-3.24539e-05
-1.71552e-05
-3.07031e-05
-1.78098e-05
-2.9013e-05
-1.8459e-05
-2.78401e-05
-2.64403e-05
-1.94998e-05
-4.12948e-07
-3.56597e-05
-9.17086e-07
-3.82314e-05
-1.44395e-06
-3.81493e-05
-1.99238e-06
-3.81208e-05
-2.55505e-06
-3.80668e-05
-3.13539e-06
-3.79966e-05
-3.74763e-06
-3.79024e-05
-4.41972e-06
-3.77828e-05
-5.20063e-06
-3.76043e-05
-6.04015e-06
-3.73409e-05
-6.82755e-06
-3.70031e-05
-7.61593e-06
-3.67535e-05
-8.69719e-06
-3.63318e-05
-9.7908e-06
-3.58226e-05
-1.0728e-05
-3.53596e-05
-1.16635e-05
-3.46418e-05
-1.26793e-05
-3.3677e-05
-1.38878e-05
-3.24712e-05
-1.51344e-05
-3.12065e-05
-1.57759e-05
-3.00603e-05
-1.61942e-05
-2.85935e-05
-1.68947e-05
-2.7138e-05
-2.56263e-05
-1.77096e-05
-4.55125e-07
-3.52045e-05
-9.81373e-07
-3.7705e-05
-1.51871e-06
-3.76118e-05
-2.08905e-06
-3.75504e-05
-2.69852e-06
-3.74572e-05
-3.34628e-06
-3.73488e-05
-4.01714e-06
-3.72315e-05
-4.71126e-06
-3.70887e-05
-5.41626e-06
-3.68994e-05
-6.08183e-06
-3.66754e-05
-6.69972e-06
-3.63854e-05
-7.4284e-06
-3.6025e-05
-8.21288e-06
-3.55477e-05
-9.08803e-06
-3.4948e-05
-1.02675e-05
-3.41806e-05
-1.1359e-05
-3.35508e-05
-1.22077e-05
-3.28284e-05
-1.28757e-05
-3.18026e-05
-1.33989e-05
-3.06825e-05
-1.40037e-05
-2.94541e-05
-1.46657e-05
-2.79303e-05
-1.5322e-05
-2.64808e-05
-2.51345e-05
-1.58142e-05
-4.38808e-07
-3.47656e-05
-9.33736e-07
-3.721e-05
-1.41846e-06
-3.7127e-05
-1.89991e-06
-3.70689e-05
-2.37795e-06
-3.69791e-05
-2.87005e-06
-3.68566e-05
-3.40181e-06
-3.66997e-05
-3.98422e-06
-3.65063e-05
-4.62678e-06
-3.62568e-05
-5.37606e-06
-3.59262e-05
-6.22986e-06
-3.55317e-05
-7.14414e-06
-3.5111e-05
-7.9811e-06
-3.4711e-05
-8.74351e-06
-3.4186e-05
-9.30406e-06
-3.36206e-05
-9.88464e-06
-3.29705e-05
-1.0626e-05
-3.2087e-05
-1.14019e-05
-3.10263e-05
-1.22275e-05
-2.98559e-05
-1.29997e-05
-2.86807e-05
-1.33725e-05
-2.75564e-05
-1.36458e-05
-2.62062e-05
-2.4683e-05
-1.40981e-05
-4.28798e-07
-3.43367e-05
-9.22177e-07
-3.67165e-05
-1.42073e-06
-3.66284e-05
-1.94017e-06
-3.65493e-05
-2.48116e-06
-3.64381e-05
-3.03793e-06
-3.62998e-05
-3.60624e-06
-3.61314e-05
-4.18945e-06
-3.59231e-05
-4.77816e-06
-3.56682e-05
-5.33256e-06
-3.53719e-05
-5.83829e-06
-3.50261e-05
-6.36647e-06
-3.4583e-05
-6.99945e-06
-3.40784e-05
-7.67576e-06
-3.35102e-05
-8.45626e-06
-3.28405e-05
-9.36484e-06
-3.20623e-05
-1.01537e-05
-3.12979e-05
-1.07532e-05
-3.04262e-05
-1.1131e-05
-2.94772e-05
-1.14207e-05
-2.83899e-05
-1.18518e-05
-2.71241e-05
-1.22359e-05
-2.58212e-05
-2.44752e-05
-1.24442e-05
-3.79917e-07
-3.39567e-05
-8.06201e-07
-3.62901e-05
-1.22953e-06
-3.62049e-05
-1.66371e-06
-3.61151e-05
-2.11482e-06
-3.59869e-05
-2.59203e-06
-3.58226e-05
-3.10326e-06
-3.56202e-05
-3.64876e-06
-3.53776e-05
-4.22551e-06
-3.50915e-05
-4.84336e-06
-3.47542e-05
-5.5115e-06
-3.43581e-05
-6.18919e-06
-3.39055e-05
-6.84516e-06
-3.34228e-05
-7.46926e-06
-3.28865e-05
-8.02061e-06
-3.22897e-05
-8.45114e-06
-3.16319e-05
-8.88167e-06
-3.08673e-05
-9.34521e-06
-2.99621e-05
-9.88054e-06
-2.89409e-05
-1.03765e-05
-2.78927e-05
-1.06586e-05
-2.6841e-05
-1.08206e-05
-2.56582e-05
-2.43508e-05
-1.09458e-05
-3.78392e-07
-3.35783e-05
-8.05778e-07
-3.58627e-05
-1.23061e-06
-3.578e-05
-1.66626e-06
-3.56793e-05
-2.11131e-06
-3.55418e-05
-2.56568e-06
-3.53682e-05
-3.02992e-06
-3.51559e-05
-3.50501e-06
-3.49025e-05
-3.99121e-06
-3.46053e-05
-4.48475e-06
-3.42607e-05
-4.97714e-06
-3.38659e-05
-5.45815e-06
-3.34247e-05
-5.95026e-06
-3.2931e-05
-6.46488e-06
-3.23723e-05
-7.00614e-06
-3.17487e-05
-7.5838e-06
-3.10545e-05
-8.15229e-06
-3.02986e-05
-8.62172e-06
-2.94921e-05
-8.94661e-06
-2.86152e-05
-9.18666e-06
-2.76514e-05
-9.41205e-06
-2.66146e-05
-9.55209e-06
-2.55173e-05
-2.43346e-05
-9.56881e-06
-3.29198e-07
-3.32489e-05
-6.99312e-07
-3.54925e-05
-1.06826e-06
-3.5411e-05
-1.45054e-06
-3.5297e-05
-1.84929e-06
-3.5143e-05
-2.26779e-06
-3.49497e-05
-2.70648e-06
-3.47172e-05
-3.16219e-06
-3.44468e-05
-3.62913e-06
-3.41385e-05
-4.10196e-06
-3.3788e-05
-4.58198e-06
-3.3386e-05
-5.07619e-06
-3.29307e-05
-5.57116e-06
-3.24363e-05
-6.0457e-06
-3.18981e-05
-6.49146e-06
-3.13035e-05
-6.89593e-06
-3.06501e-05
-7.25903e-06
-2.99353e-05
-7.60103e-06
-2.91495e-05
-7.91699e-06
-2.82984e-05
-8.16768e-06
-2.73996e-05
-8.32008e-06
-2.64612e-05
-8.3728e-06
-2.54636e-05
-2.43873e-05
-8.32087e-06
-3.00052e-07
-3.29489e-05
-6.40244e-07
-3.51522e-05
-9.77717e-07
-3.50735e-05
-1.32696e-06
-3.49477e-05
-1.68748e-06
-3.47824e-05
-2.06065e-06
-3.45765e-05
-2.44785e-06
-3.433e-05
-2.84991e-06
-3.40448e-05
-3.26805e-06
-3.37204e-05
-3.69786e-06
-3.33582e-05
-4.12562e-06
-3.29583e-05
-4.54024e-06
-3.25163e-05
-4.95072e-06
-3.20261e-05
-5.36209e-06
-3.14872e-05
-5.76427e-06
-3.09014e-05
-6.14796e-06
-3.02667e-05
-6.50148e-06
-2.95815e-05
-6.80189e-06
-2.88486e-05
-7.03369e-06
-2.80657e-05
-7.19845e-06
-2.72338e-05
-7.29645e-06
-2.63624e-05
-7.30459e-06
-2.54546e-05
-2.44924e-05
-7.19996e-06
-2.58834e-07
-3.26899e-05
-5.54371e-07
-3.48566e-05
-8.49255e-07
-3.47785e-05
-1.1565e-06
-3.46404e-05
-1.47633e-06
-3.44626e-05
-1.81065e-06
-3.42421e-05
-2.16082e-06
-3.39798e-05
-2.52442e-06
-3.36812e-05
-2.89706e-06
-3.33478e-05
-3.27644e-06
-3.29789e-05
-3.66186e-06
-3.2573e-05
-4.04992e-06
-3.21284e-05
-4.43122e-06
-3.1645e-05
-4.79681e-06
-3.11218e-05
-5.14284e-06
-3.05559e-05
-5.46246e-06
-2.99469e-05
-5.7476e-06
-2.92962e-05
-5.99221e-06
-2.86034e-05
-6.18627e-06
-2.78709e-05
-6.31652e-06
-2.71026e-05
-6.37182e-06
-2.63061e-05
-6.33965e-06
-2.5486e-05
-2.46318e-05
-6.20068e-06
-2.09033e-07
-3.24809e-05
-4.61405e-07
-3.46042e-05
-7.13444e-07
-3.45264e-05
-9.77532e-07
-3.43763e-05
-1.25294e-06
-3.41871e-05
-1.54221e-06
-3.39528e-05
-1.84954e-06
-3.36725e-05
-2.17396e-06
-3.33568e-05
-2.51198e-06
-3.30098e-05
-2.85829e-06
-3.26327e-05
-3.20625e-06
-3.22252e-05
-3.55026e-06
-3.17845e-05
-3.88777e-06
-3.13078e-05
-4.21388e-06
-3.07961e-05
-4.52147e-06
-3.02483e-05
-4.80387e-06
-2.96648e-05
-5.05311e-06
-2.90467e-05
-5.25944e-06
-2.83965e-05
-5.41396e-06
-2.77157e-05
-5.50809e-06
-2.70074e-05
-5.53395e-06
-2.62795e-05
-5.47852e-06
-2.55405e-05
-2.47881e-05
-5.32262e-06
-1.58379e-07
-3.23223e-05
-3.72157e-07
-3.43903e-05
-5.86417e-07
-3.43121e-05
-8.09704e-07
-3.41529e-05
-1.03912e-06
-3.39577e-05
-1.27258e-06
-3.37194e-05
-1.51107e-06
-3.3434e-05
-1.76443e-06
-3.31035e-05
-2.04299e-06
-3.27313e-05
-2.34863e-06
-3.23271e-05
-2.67463e-06
-3.18993e-05
-3.00555e-06
-3.14538e-05
-3.32744e-06
-3.09861e-05
-3.63286e-06
-3.04908e-05
-3.91581e-06
-2.99658e-05
-4.17039e-06
-2.94101e-05
-4.39033e-06
-2.88266e-05
-4.56822e-06
-2.82182e-05
-4.69801e-06
-2.75852e-05
-4.77153e-06
-2.6933e-05
-4.78069e-06
-2.62695e-05
-4.71541e-06
-2.56051e-05
-2.49445e-05
-4.55938e-06
-9.83465e-08
-3.2224e-05
-2.94458e-07
-3.41942e-05
-4.88056e-07
-3.41185e-05
-6.83905e-07
-3.39571e-05
-8.8049e-07
-3.37611e-05
-1.07202e-06
-3.35278e-05
-1.25373e-06
-3.32523e-05
-1.43048e-06
-3.29267e-05
-1.61324e-06
-3.25485e-05
-1.81642e-06
-3.2124e-05
-2.05284e-06
-3.16629e-05
-2.32897e-06
-3.11777e-05
-2.63713e-06
-3.06781e-05
-2.95863e-06
-3.01697e-05
-3.26415e-06
-2.96602e-05
-3.53071e-06
-2.91438e-05
-3.74815e-06
-2.86088e-05
-3.91646e-06
-2.80494e-05
-4.03497e-06
-2.7466e-05
-4.09944e-06
-2.68677e-05
-4.10448e-06
-2.62637e-05
-4.04382e-06
-2.56648e-05
-2.50832e-05
-3.90533e-06
-5.57714e-08
-3.21681e-05
-2.73217e-07