/*--------------------------------*- C++ -*----------------------------------*\
| =========                 |                                                 |
| \\      /  F ield         | OpenFOAM: The Open Source CFD Toolbox           |
|  \\    /   O peration     | Version:  2.4.0                                 |
|   \\  /    A nd           | Web:      www.OpenFOAM.org                      |
|    \\/     M anipulation  |                                                 |
\*---------------------------------------------------------------------------*/
FoamFile
{
    version     2.0;
    format      ascii;
    class       surfaceScalarField;
    location    "0.4";
    object      phi.oil;
}
// * * * * * * * * * * * * * * * * * * * * * * * * * * * * * * * * * * * * * //

dimensions      [0 3 -1 0 0 0 0];

internalField   nonuniform List<scalar> 
4432
(
3.24659e-06
-3.24659e-06
6.54521e-06
-3.29862e-06
9.59742e-06
-3.05221e-06
1.34214e-05
-3.82396e-06
1.5863e-05
-2.44163e-06
1.96735e-05
-3.8105e-06
2.3341e-05
-3.66746e-06
2.59886e-05
-2.64765e-06
2.86678e-05
-2.67918e-06
3.20897e-05
-3.42186e-06
3.61349e-05
-4.04526e-06
3.93584e-05
-3.22345e-06
4.15809e-05
-2.22215e-06
4.28987e-05
-1.31686e-06
4.33089e-05
-4.07847e-07
4.33193e-05
-6.33901e-09
4.21114e-05
1.21356e-06
3.93302e-05
2.78823e-06
3.45517e-05
4.7863e-06
2.74799e-05
7.07996e-06
1.7596e-05
9.71611e-06
6.57197e-06
1.15449e-05
1.09713e-05
3.24888e-06
-6.49547e-06
6.55248e-06
-6.60221e-06
9.61988e-06
-6.11962e-06
1.33553e-05
-7.55938e-06
1.59774e-05
-5.06371e-06
1.97104e-05
-7.54355e-06
2.32472e-05
-7.20423e-06
2.59877e-05
-5.38815e-06
2.89326e-05
-5.62406e-06
3.24041e-05
-6.89337e-06
3.62895e-05
-7.93064e-06
3.91632e-05
-6.09712e-06
4.13869e-05
-4.44547e-06
4.29356e-05
-2.864e-06
4.40519e-05
-1.52058e-06
4.42178e-05
-1.59149e-07
4.3488e-05
1.97403e-06
4.03914e-05
5.91808e-06
3.54428e-05
9.76634e-06
2.70488e-05
1.54946e-05
1.81231e-05
1.84979e-05
8.37667e-06
2.08245e-05
2.00163e-05
3.25299e-06
-9.74845e-06
6.54039e-06
-9.88962e-06
9.66272e-06
-9.24195e-06
1.32583e-05
-1.11549e-05
1.61657e-05
-7.97114e-06
1.97035e-05
-1.10814e-05
2.30043e-05
-1.0505e-05
2.59877e-05
-8.3715e-06
2.94361e-05
-9.07248e-06
3.296e-05
-1.04173e-05
3.59933e-05
-1.0964e-05
3.8388e-05
-8.49179e-06
4.12542e-05
-7.31164e-06
4.36091e-05
-5.21834e-06
4.56044e-05
-3.50459e-06
4.59842e-05
-4.65116e-07
4.48295e-05
3.37846e-06
4.19952e-05
9.10124e-06
3.57659e-05
1.62946e-05
2.77068e-05
2.37177e-05
1.90333e-05
2.71065e-05
1.06564e-05
2.8834e-05
3.17551e-05
3.25966e-06
-1.30077e-05
6.52308e-06
-1.31525e-05
9.72848e-06
-1.24468e-05
1.31551e-05
-1.45797e-05
1.62956e-05
-1.11107e-05
1.97029e-05
-1.44845e-05
2.29167e-05
-1.3709e-05
2.59502e-05
-1.13911e-05
2.99325e-05
-1.30242e-05
3.30296e-05
-1.3459e-05
3.54464e-05
-1.3291e-05
3.81474e-05
-1.10773e-05
4.15902e-05
-1.0597e-05
4.44833e-05
-7.91457e-06
4.6951e-05
-5.69984e-06
4.81161e-05
-1.1733e-06
4.65649e-05
5.75184e-06
4.28403e-05
1.32384e-05
3.515e-05
2.43727e-05
2.5453e-05
3.37591e-05
1.53139e-05
3.73062e-05
6.9175e-06
3.70281e-05
3.96563e-05
3.26641e-06
-1.60522e-05
6.52451e-06
-1.61822e-05
9.81414e-06
-1.55054e-05
1.30196e-05
-1.75128e-05
1.64851e-05
-1.43172e-05
1.96115e-05
-1.73009e-05
2.28154e-05
-1.65728e-05
2.6423e-05
-1.46524e-05
3.00151e-05
-1.63146e-05
3.28293e-05
-1.61564e-05
3.54389e-05
-1.62469e-05
3.85668e-05
-1.5032e-05
4.20045e-05
-1.5655e-05
4.53876e-05
-1.39188e-05
4.86811e-05
-1.28986e-05
4.91068e-05
-6.35289e-06
4.78569e-05
3.9006e-06
4.37005e-05
2.32453e-05
3.73199e-05
3.57552e-05
2.7932e-05
4.47808e-05
1.63304e-05
4.91979e-05
8.04491e-06
4.51548e-05
4.84432e-05
3.27462e-06
-2.14442e-05
6.52051e-06
-2.16622e-05
9.99832e-06
-2.13233e-05
1.27529e-05
-2.32528e-05
1.67611e-05
-2.13197e-05
1.96125e-05
-2.40887e-05
2.27088e-05
-2.46556e-05
2.67333e-05
-2.44836e-05
2.97168e-05
-2.65511e-05
3.24082e-05
-2.79462e-05
3.50973e-05
-3.03404e-05
3.78742e-05
-3.14038e-05
4.00891e-05
-3.26932e-05
4.26847e-05
-3.3254e-05
4.46553e-05
-3.45033e-05
4.6857e-05
-2.96407e-05
4.60998e-05
-1.00288e-05
4.07821e-05
1.44758e-05
3.44451e-05
4.71059e-05
2.88573e-05
5.73716e-05
1.90663e-05
6.08391e-05
7.96489e-06
5.62142e-05
5.70359e-05
3.18197e-06
-3.87011e-05
6.3047e-06
-3.90586e-05
9.77687e-06
-3.93526e-05
1.1998e-05
-4.07646e-05
1.59497e-05
-4.09562e-05
1.87194e-05
-4.3463e-05
2.09155e-05
-4.46479e-05
2.34973e-05
-4.58534e-05
2.57718e-05
-4.78974e-05
2.72937e-05
-4.81226e-05
2.76181e-05
-4.74298e-05
2.74499e-05
-4.01737e-05
2.6279e-05
-2.8175e-05
2.44867e-05
-1.90434e-05
2.24749e-05
-1.27063e-05
2.28747e-05
-8.44953e-06
3.10395e-05
-8.5182e-06
3.50989e-05
1.87899e-06
2.47538e-05
3.58378e-05
2.4016e-05
6.46813e-05
2.13642e-05
7.07746e-05
1.25243e-05
6.53688e-05
6.99297e-05
2.50287e-06
-5.05765e-05
4.9331e-06
-5.04956e-05
7.4286e-06
-5.03279e-05
8.92429e-06
-4.88998e-05
1.06804e-05
-4.85995e-05
1.19607e-05
-4.67664e-05
1.19797e-05
-4.20021e-05
1.22173e-05
-3.78551e-05
1.28075e-05
-3.27217e-05
1.33847e-05
-2.62398e-05
1.29451e-05
-2.06939e-05
1.36488e-05
-1.80503e-05
1.51966e-05
-1.63359e-05
1.69235e-05
-1.39472e-05
1.47166e-05
-8.70085e-06
1.2678e-05
-4.79834e-06
1.61673e-05
1.01618e-06
2.71044e-05
2.01036e-05
2.50243e-05
3.73411e-05
1.24969e-05
6.57391e-05
1.76277e-05
7.16285e-05
1.43403e-05
7.08748e-05
8.62268e-05
-2.83792e-05
2.84158e-05
-5.46782e-05
2.63171e-05
-8.07749e-05
2.61085e-05
-9.67254e-05
1.59577e-05
-0.000101432
4.70246e-06
-9.92165e-05
-2.28679e-06
-8.65562e-05
-1.28968e-05
-6.8544e-05
-1.80802e-05
-5.12471e-05
-1.51085e-05
-3.06601e-05
-1.29324e-05
-8.73488e-06
-9.75563e-06
2.71982e-05
-1.73572e-05
6.5187e-05
-1.91149e-05
9.98895e-05
-1.6204e-05
0.000114016
1.4471e-06
0.000107657
1.98672e-05
9.23806e-05
2.79762e-05
5.96273e-05
4.59876e-05
7.91573e-05
-2.40079e-05
5.24254e-05
-4.91132e-05
5.14026e-05
-7.29228e-05
4.98995e-05
-8.27495e-05
2.57707e-05
-8.40001e-05
5.93532e-06
-7.92123e-05
-7.12787e-06
-7.26466e-05
-1.9685e-05
-6.63224e-05
-2.53528e-05
-5.21345e-05
-3.31362e-05
-2.69606e-05
-4.75637e-05
1.20203e-05
-5.78134e-05
4.7807e-05
-5.57598e-05
7.97255e-05
-4.89745e-05
0.00010854
-4.11969e-05
0.000117696
-4.53122e-06
0.000115106
2.39835e-05
0.000101164
4.13451e-05
6.67027e-05
7.58496e-05
0.000143893
-2.11175e-05
7.35316e-05
-4.24586e-05
7.27378e-05
-6.2816e-05
7.02543e-05
-6.84199e-05
3.13738e-05
-6.581e-05
3.30916e-06
-5.61679e-05
-1.78183e-05
-4.95547e-05
-3.04864e-05
-4.58803e-05
-3.26598e-05
-3.59973e-05
-4.37855e-05
-1.15889e-05
-7.26033e-05
2.15027e-05
-9.32246e-05
5.59388e-05
-9.73203e-05
8.97056e-05
-8.70324e-05
0.000109806
-6.47221e-05
0.000119723
-1.66711e-05
0.000111324
2.99343e-05
8.71051e-05
5.9947e-05
4.38206e-05
0.000110951
0.000179018
-1.75618e-05
9.10883e-05
-3.43006e-05
8.94761e-05
-5.07342e-05
8.66877e-05
-4.63438e-05
2.69751e-05
-3.23546e-05
-1.51447e-05
-2.88572e-05
-5.64027e-05
-2.06411e-05
-8.83744e-05
-1.4275e-05
-9.88272e-05
-5.99135e-06
-7.62774e-05
1.41867e-05
-9.54791e-05
4.16239e-05
-0.000120767
7.34832e-05
-0.000129304
0.000102465
-0.000119399
0.000122631
-9.01694e-05
0.000118054
-1.89618e-05
9.5597e-05
4.25434e-05
5.7845e-05
8.89778e-05
1.69358e-05
0.000148268
0.000193324
-1.23286e-05
0.000103416
-2.17729e-05
9.89204e-05
-2.56456e-05
9.05578e-05
-1.20389e-05
1.0181e-05
-6.71773e-06
-6.41651e-05
5.86431e-06
-9.94523e-05
1.97746e-05
-0.000176916
2.67074e-05
-0.000190306
2.75404e-05
-0.000184
3.46086e-05
-0.000143606
5.46294e-05
-0.000144311
8.19158e-05
-0.000156616
0.000107861
-0.00014541
0.000123088
-0.000106796
0.00011285
-1.28829e-05
7.61362e-05
7.44108e-05
3.39354e-05
0.00012955
4.8045e-06
0.00017709
0.000197942
-2.72801e-06
0.000106143
-5.15933e-06
0.000101351
5.06857e-06
7.91802e-05
1.07719e-05
-1.05104e-06
1.43108e-05
-4.73881e-05
4.03915e-05
-8.85857e-05
6.72993e-05
-0.000178906
7.99894e-05
-0.000168791
7.47954e-05
-0.000177563
6.34088e-05
-0.000193306
7.27812e-05
-0.000173269
9.14956e-05
-0.00017599
0.000112287
-0.000166803
0.000110887
-0.000119633
9.96017e-05
-1.44431e-05
6.03742e-05
0.000112397
2.15165e-05
0.000168365
1.73894e-06
0.000196738
0.000194049
9.8671e-06
9.6299e-05
1.11637e-05
0.000100055
1.38533e-05
6.17391e-05
1.84026e-05
-8.86981e-07
2.92791e-05
-2.39084e-05
5.71732e-05
-5.35708e-05
7.35877e-05
-9.0639e-05
8.22898e-05
-8.269e-05
8.62884e-05
-9.56032e-05
7.80595e-05
-0.000194896
8.38513e-05
-0.000201601
9.94305e-05
-0.000193025
0.000114848
-0.000188077
9.6733e-05
-0.000194826
7.22458e-05
-7.38655e-06
4.15043e-05
0.000140614
1.41195e-05
0.000195608
1.26408e-06
0.000210114
0.000189261
2.18317e-05
7.78881e-05
3.07706e-05
9.20529e-05
3.67471e-05
5.05992e-05
3.49805e-05
-6.68458e-06
3.55852e-05
-2.57874e-05
4.79405e-05
-3.8122e-05
7.0752e-05
-5.16225e-05
8.1303e-05
-5.99534e-05
8.7733e-05
-9.03257e-05
8.86916e-05
-0.000178407
9.16387e-05
-0.000204361
0.000104563
-0.000207388
0.00010798
-0.000232741
6.92161e-05
-0.000216138
3.78258e-05
2.59101e-05
1.8362e-05
0.000148807
4.80571e-06
0.000208672
3.11427e-08
0.000215579
0.000187203
2.56206e-06
-3.05875e-05
5.23184e-06
-3.05829e-05
7.7172e-06
-3.01816e-05
1.05254e-05
-2.93034e-05
1.31911e-05
-2.90652e-05
1.66272e-05
-2.93389e-05
2.02924e-05
-2.71181e-05
2.6158e-05
-2.85782e-05
3.18467e-05
-2.8413e-05
3.70996e-05
-2.63393e-05
4.31094e-05
-2.46908e-05
5.0302e-05
-2.47409e-05
5.51076e-05
-2.11129e-05
5.77544e-05
-1.67087e-05
5.50782e-05
-7.96449e-06
4.07935e-05
6.16428e-07
2.54909e-05
1.71114e-05
2.23333e-05
3.45311e-05
3.07248e-05
4.80229e-05
1.70185e-05
7.23898e-05
2.03926e-05
7.29703e-05
4.58882e-05
6.81469e-05
5.48736e-05
8.62008e-05
3.44357e-06
-3.10425e-05
7.00515e-06
-3.12828e-05
1.05667e-05
-3.10844e-05
1.44027e-05
-3.07801e-05
1.8107e-05
-3.07636e-05
2.2252e-05
-3.19677e-05
2.58867e-05
-2.96282e-05
3.06181e-05
-3.26115e-05
3.46675e-05
-3.21342e-05
3.93066e-05
-3.09031e-05
4.39606e-05
-2.9372e-05
4.6047e-05
-2.68022e-05
4.57265e-05
-2.00689e-05
4.59568e-05
-1.31776e-05
4.62463e-05
-4.74892e-06
4.38142e-05
7.25125e-07
3.88229e-05
1.22296e-05
4.52689e-05
2.21536e-05
4.85465e-05
4.66767e-05
5.13256e-05
7.33461e-05
3.50587e-05
8.69627e-05
3.56371e-05
6.70347e-05
6.63976e-05
6.20082e-05
4.0354e-06
-3.50785e-05
8.06031e-06
-3.53083e-05
1.20032e-05
-3.50279e-05
1.59162e-05
-3.46936e-05
1.94264e-05
-3.42741e-05
2.27025e-05
-3.52441e-05
2.67579e-05
-3.36836e-05
3.14476e-05
-3.72969e-05
3.62937e-05
-3.68451e-05
4.35922e-05
-2.82086e-05
5.13231e-05
-1.96229e-05
5.74151e-05
-1.50909e-05
6.07787e-05
-1.01333e-05
6.98236e-05
-7.39348e-06
7.18482e-05
-7.00586e-08
6.96001e-05
5.29022e-06
6.58437e-05
1.38851e-05
5.30811e-05
2.35761e-05
6.35996e-05
4.54281e-05
8.15543e-05
6.53106e-05
7.96659e-05
8.90644e-05
6.18313e-05
7.99508e-05
6.43281e-05
6.32963e-05
4.44839e-06
-3.9528e-05
8.81849e-06
-3.96795e-05
1.29412e-05
-3.91516e-05
1.67296e-05
-3.84826e-05
2.01251e-05
-3.767e-05
2.26801e-05
-3.77992e-05
2.64471e-05
-3.74477e-05
3.01632e-05
-3.71992e-05
2.89834e-05
-2.24247e-05
3.85906e-05
-2.92196e-05
4.9437e-05
-3.09894e-05
5.87074e-05
-2.60843e-05
6.43572e-05
-1.70216e-05
6.60357e-05
-1.06054e-05
6.93486e-05
-5.64918e-07
7.46903e-05
1.01453e-05
8.18907e-05
2.14511e-05
8.60513e-05
3.49283e-05
9.21789e-05
4.44679e-05
0.000101536
5.56255e-05
0.000119803
6.88749e-05
0.000123631
7.78407e-05
6.93603e-05
0.000117483
4.63316e-06
-4.53644e-05
9.10525e-06
-4.53327e-05
1.31702e-05
-4.43152e-05
1.67059e-05
-4.29819e-05
1.9431e-05
-4.11624e-05
2.10444e-05
-3.99358e-05
2.12379e-05
-3.82614e-05
1.63839e-05
-2.70502e-05
3.06164e-05
-4.04857e-05
4.54487e-05
-4.78852e-05
5.22885e-05
-3.97245e-05
5.74398e-05
-3.16659e-05
6.34448e-05
-2.45901e-05
6.87905e-05
-1.8213e-05
7.45885e-05
-8.99173e-06
7.8892e-05
-1.82787e-07
8.15426e-05
1.22907e-05
8.86304e-05
2.16121e-05
9.78649e-05
3.06217e-05
0.000112786
3.68021e-05
0.000132118
4.60086e-05
0.000157196
4.90676e-05
4.5179e-05
0.000176622
5.18698e-06
-8.15252e-05
9.87538e-06
-8.11441e-05
1.40541e-05
-7.92825e-05
1.72455e-05
-7.62995e-05
1.86893e-05
-7.1578e-05
1.64805e-05
-6.53704e-05
6.05773e-06
-5.41704e-05
1.17565e-05
-5.86804e-05
2.38207e-05
-5.27938e-05
3.30754e-05
-5.96381e-05
3.52086e-05
-4.87405e-05
3.53072e-05
-3.77732e-05
3.17224e-05
-2.70425e-05
2.90196e-05
-2.18377e-05
3.05462e-05
-1.66767e-05
3.60485e-05
-1.20331e-05
4.49172e-05
-4.74225e-06
5.85367e-05
1.18668e-06
7.45533e-05
8.66366e-06
9.77656e-05
1.00809e-05
0.000114061
2.67202e-05
0.000140211
2.57054e-05
2.25882e-05
0.000162341
6.18994e-06
-0.000167655
1.17987e-05
-0.000166939
1.73674e-05
-0.000164489
2.2522e-05
-0.000159759
2.67743e-05
-0.000151795
1.5522e-05
-0.000129488
4.85633e-06
-0.000126385
-8.89135e-06
-0.000120543
-1.21167e-05
-9.86155e-05
-1.73945e-05
-9.02731e-05
-2.6133e-05
-6.29815e-05
-3.39791e-05
-4.60735e-05
-3.74955e-05
-3.58657e-05
-3.76617e-05
-2.94354e-05
-3.4037e-05
-2.54531e-05
-2.8325e-05
-2.12293e-05
-1.85055e-05
-1.75781e-05
-1.77353e-06
-1.87742e-05
1.89243e-05
-1.52603e-05
4.42839e-05
-2.03462e-05
6.67742e-05
7.88008e-08
8.79393e-05
2.46539e-06
9.95586e-07
0.000110686
3.23959e-06
-7.16611e-05
6.79271e-06
-7.07692e-05
1.15326e-05
-7.23546e-05
1.73952e-05
-8.05052e-05
1.94845e-05
-9.37829e-05
6.8117e-06
-9.26545e-05
-2.18635e-05
-0.000137832
-4.20718e-05
-0.000153715
-6.54779e-05
-0.000138473
-7.99739e-05
-0.000126007
-7.67981e-05
-0.000108978
-7.04937e-05
-0.000103663
-6.07787e-05
-0.000100655
-5.39921e-05
-9.0892e-05
-4.86234e-05
-8.34998e-05
-4.42071e-05
-7.35322e-05
-3.79608e-05
-6.35858e-05
-2.85902e-05
-5.65748e-05
-1.44931e-05
-4.49931e-05
2.57163e-07
-4.6103e-05
2.214e-05
-2.51015e-05
4.54418e-05
-2.42641e-05
-2.43387e-05
6.64629e-05
-6.25134e-06
-5.10406e-05
-1.00364e-05
-5.30635e-05
-1.10169e-05
-5.52103e-05
-6.09822e-06
-5.98348e-05
-1.15359e-06
-6.21908e-05
-2.48051e-05
-0.000100886
-6.07885e-05
-0.000104256
-8.4591e-05
-8.05024e-05
-9.66507e-05
-7.7606e-05
-9.6832e-05
-9.341e-05
-8.28655e-05
-8.01675e-05
-6.60128e-05
-7.14341e-05
-5.17837e-05
-6.94044e-05
-4.02845e-05
-6.60653e-05
-3.25281e-05
-7.46845e-05
-2.53309e-05
-8.50652e-05
-1.8361e-05
-0.000101634
-1.48963e-05
-0.000143338
-8.39072e-06
-0.000117853
-1.89882e-06
-0.000110956
9.68939e-06
-8.2389e-05
2.51149e-05
-8.08802e-05
-7.85915e-05
4.08583e-05
-1.32634e-05
-3.77806e-05
-2.33001e-05
-4.31029e-05
-3.06139e-05
-4.75653e-05
-2.5885e-05
-5.258e-05
-3.47509e-05
-3.83102e-05
-4.81445e-05
-4.43471e-05
-4.38511e-05
-4.2673e-05
1.29664e-06
-2.09572e-05
4.71272e-05
-7.69569e-07
3.66532e-05
-3.00486e-05
3.03501e-05
-4.83751e-05
4.00489e-05
-6.06731e-05
4.27692e-05
-6.36729e-05
4.20874e-05
-5.84108e-05
3.96048e-05
-5.51638e-05
3.34394e-05
-3.78099e-05
1.9944e-05
-4.20224e-05
1.18737e-05
-9.14785e-05
1.36964e-05
-7.79881e-05
1.77667e-05
-7.78888e-05
2.3674e-05
-8.73198e-05
3.10298e-05
-0.000104461
-0.000151004
3.87104e-05
-3.31685e-06
-3.4466e-05
-6.00309e-06
-4.04581e-05
-7.6893e-06
-4.65531e-05
-8.85159e-06
-5.38637e-05
-9.98422e-06
-5.84339e-05
-1.28723e-05
-6.17999e-05
-1.57659e-05
-6.179e-05
1.28593e-06
-3.68938e-05
1.20494e-05
1.15259e-05
-9.25112e-06
2.20888e-05
-1.18816e-05
-3.73711e-05
1.58983e-06
-7.05694e-05
1.28393e-05
-7.26336e-05
2.27122e-05
-6.47111e-05
2.80808e-05
-5.31155e-05
3.61631e-05
-4.2509e-05
7.21548e-05
-3.08944e-05
0.00012293
-4.44962e-05
0.000141544
-5.43862e-05
0.000120733
-6.39949e-05
0.000108204
-5.29641e-05
0.000104056
-4.8882e-05
-9.18839e-05
0.000102115
-1.33178e-06
-3.31347e-05
-2.23746e-06
-3.95492e-05
-3.81e-06
-4.48611e-05
-6.75429e-06
-5.04235e-05
-1.12455e-05
-5.47994e-05
-1.71153e-05
-5.66273e-05
-2.42905e-05
-5.48358e-05
-1.72576e-05
-4.28622e-05
1.03258e-05
-1.93721e-05
3.6336e-05
-7.81181e-06
4.36729e-05
-4.15302e-05
3.83943e-05
-6.52495e-05
3.71197e-05
-7.22164e-05
4.32918e-05
-7.12996e-05
5.22973e-05
-7.11439e-05
5.82141e-05
-6.04832e-05
5.87025e-05
-4.5834e-05
5.01886e-05
-4.06736e-05
3.75095e-05
-4.06134e-05
2.68863e-05
-4.76918e-05
2.70695e-05
-5.30315e-05
5.61685e-05
-5.64363e-05
-5.98863e-05
8.88563e-05
2.10427e-08
-3.31563e-05
1.03634e-07
-3.96306e-05
-7.36249e-07
-4.39871e-05
-2.74623e-06
-4.82835e-05
-6.06786e-06
-5.13647e-05
-1.05637e-05
-5.21003e-05
-1.53638e-05
-4.99699e-05
-1.51247e-05
-4.27733e-05
-5.44713e-07
-3.22918e-05
1.65377e-05
-2.44993e-05
2.54018e-05
-5.01717e-05
2.3895e-05
-6.43503e-05
1.94852e-05
-6.83214e-05
2.18937e-05
-7.43495e-05
2.45182e-05
-7.24853e-05
3.251e-05
-6.63339e-05
4.30071e-05
-5.58256e-05
5.43936e-05
-4.9208e-05
5.7851e-05
-4.12629e-05
4.62675e-05
-3.60762e-05
3.14163e-05
-3.43631e-05
1.7984e-05
-3.82392e-05
-3.93204e-05
2.79731e-06
2.40802e-06
-3.55646e-05
3.70757e-06
-4.09306e-05
3.54626e-06
-4.38278e-05
1.78055e-06
-4.65204e-05
-1.25071e-06
-4.83343e-05
-4.85893e-06
-4.84921e-05
-7.75587e-06
-4.70738e-05
-7.32957e-06
-4.32129e-05
-3.41793e-08
-3.96826e-05
1.06819e-05
-3.64052e-05
1.11231e-05
-5.06825e-05
6.16539e-06
-6.06468e-05
2.11272e-06
-6.73819e-05
-1.48353e-06
-7.08755e-05
-4.36204e-06
-6.85815e-05
-6.94766e-06
-5.23047e-05
-8.03597e-06
-4.99124e-05
-8.33346e-06
-4.83768e-05
-6.19525e-06
-4.32372e-05
-3.66992e-06
-3.91371e-05
-3.85089e-06
-3.60579e-05
-5.89478e-06
-3.8879e-05
-3.91493e-05
-7.69394e-06
1.94841e-06
-3.75134e-05
3.2607e-06
-4.22431e-05
3.25567e-06
-4.38228e-05
1.82274e-06
-4.50874e-05
-8.74315e-07
-4.56371e-05
-3.90278e-06
-4.54634e-05
-6.30217e-06
-4.46742e-05
-6.23135e-06
-4.32834e-05
-3.12052e-06
-4.27929e-05
2.45408e-06
-4.19794e-05
1.34016e-06
-4.96518e-05
-4.94977e-06
-5.48699e-05
-1.13609e-05
-5.87633e-05
-1.69305e-05
-6.11917e-05
-1.853e-05
-5.82217e-05
-2.4958e-05
-5.71721e-05
-2.68584e-05
-5.12063e-05
-2.84204e-05
-4.69851e-05
-2.98798e-05
-4.17223e-05
-3.03681e-05
-3.83912e-05
-2.9118e-05
-3.65177e-05
-2.83342e-05
-3.90843e-05
-3.89912e-05
-2.83671e-05
1.10283e-06
-3.86163e-05
1.61969e-06
-4.276e-05
1.14681e-06
-4.33499e-05
-1.51824e-07
-4.37887e-05
-1.8495e-06
-4.39393e-05
-3.49929e-06
-4.38134e-05
-4.79391e-06
-4.33793e-05
-5.08751e-06
-4.29896e-05
-4.60605e-06
-4.3274e-05
-3.43906e-06
-4.31469e-05
-6.241e-06
-4.69104e-05
-1.1427e-05
-4.98013e-05
-1.7379e-05
-5.35562e-05
-2.22638e-05
-5.55617e-05
-2.76781e-05
-5.75528e-05
-3.09488e-05
-5.38322e-05
-3.2913e-05
-4.92259e-05
-3.35354e-05
-4.63855e-05
-3.3096e-05
-4.22005e-05
-3.20821e-05
-3.93889e-05
-3.01792e-05
-3.869e-05
-3.03216e-05
-3.87323e-05
-3.60506e-05
-3.30012e-05
1.99401e-07
-3.88159e-05
-1.69267e-07
-4.23914e-05
-9.97529e-07
-4.25217e-05
-1.98793e-06
-4.27982e-05
-2.91855e-06
-4.30085e-05
-3.76981e-06
-4.2962e-05
-4.29991e-06
-4.2849e-05
-4.41645e-06
-4.28728e-05
-4.509e-06
-4.31811e-05
-4.60033e-06
-4.30563e-05
-7.25161e-06
-4.42847e-05
-1.1197e-05
-4.58443e-05
-1.6275e-05
-4.85665e-05
-2.23697e-05
-5.11819e-05
-2.7842e-05
-5.20007e-05
-3.11639e-05
-5.06226e-05
-3.27385e-05
-4.79219e-05
-3.29891e-05
-4.62072e-05
-3.20969e-05
-4.3118e-05
-3.18709e-05
-3.96238e-05
-3.22351e-05
-3.83816e-05
-3.30295e-05
-3.80637e-05
-3.57801e-05
-3.33631e-05
-2.2218e-07
-3.85937e-05
-8.37331e-07
-4.17763e-05
-1.5067e-06
-4.18523e-05
-2.13627e-06
-4.21686e-05
-2.72155e-06
-4.24232e-05
-3.13378e-06
-4.25496e-05
-3.36129e-06
-4.26214e-05
-3.49421e-06
-4.27397e-05
-3.93328e-06
-4.27418e-05
-4.28867e-06
-4.27007e-05
-5.46646e-06
-4.31096e-05
-7.23995e-06
-4.40569e-05
-1.00996e-05
-4.57031e-05
-1.458e-05
-4.67212e-05
-1.89694e-05
-4.74584e-05
-2.17433e-05
-4.79024e-05
-2.31438e-05
-4.66039e-05
-2.46173e-05
-4.47881e-05
-2.52282e-05
-4.25696e-05
-2.57612e-05
-3.91378e-05
-2.73989e-05
-3.67579e-05
-2.96954e-05
-3.57679e-05
-3.36023e-05
-3.18522e-05
-4.05286e-07
-3.81885e-05
-8.45681e-07
-4.13359e-05
-1.23097e-06
-4.1467e-05
-1.66528e-06
-4.17342e-05
-2.24633e-06
-4.1842e-05
-2.77158e-06
-4.20242e-05
-3.2429e-06
-4.21499e-05
-3.69215e-06
-4.22902e-05
-4.14136e-06
-4.22923e-05
-4.60361e-06
-4.2238e-05
-5.30817e-06
-4.24042e-05
-6.31349e-06
-4.30563e-05
-8.35293e-06
-4.36643e-05
-1.08614e-05
-4.41982e-05
-1.34606e-05
-4.46188e-05
-1.6748e-05
-4.44301e-05
-1.95663e-05
-4.35821e-05
-2.1956e-05
-4.22848e-05
-2.38274e-05
-4.06717e-05
-2.52468e-05
-3.77272e-05
-2.75966e-05
-3.44312e-05
-3.05137e-05
-3.2868e-05
-3.1758e-05
-3.23652e-05
-3.45407e-07
-3.7843e-05
-7.34621e-07
-4.09467e-05
-1.20999e-06
-4.09915e-05
-1.8673e-06
-4.10768e-05
-2.59632e-06
-4.11129e-05
-3.41881e-06
-4.12017e-05
-4.24839e-06
-4.13202e-05
-5.11858e-06
-4.14199e-05
-5.89024e-06
-4.15204e-05
-6.3532e-06
-4.17747e-05
-6.73364e-06
-4.20231e-05
-7.58937e-06
-4.22025e-05
-8.97126e-06
-4.22604e-05
-1.06419e-05
-4.24509e-05
-1.28887e-05
-4.23564e-05
-1.5702e-05
-4.1286e-05
-1.83556e-05
-4.07499e-05
-2.05067e-05
-4.00198e-05
-2.24374e-05
-3.86906e-05
-2.38846e-05
-3.628e-05
-2.53954e-05
-3.29267e-05
-2.71188e-05
-3.11513e-05
-3.03503e-05
-2.85304e-05
-3.40119e-07
-3.75028e-05
-9.01748e-07
-4.03849e-05
-1.57669e-06
-4.03165e-05
-2.2625e-06
-4.03909e-05
-2.9421e-06
-4.04332e-05
-3.6871e-06
-4.04566e-05
-4.48706e-06
-4.05201e-05
-5.35679e-06
-4.05501e-05
-6.26161e-06
-4.06155e-05
-7.13995e-06
-4.08961e-05
-8.15022e-06
-4.10125e-05
-9.33508e-06
-4.1018e-05
-1.06832e-05
-4.09057e-05
-1.21921e-05
-4.09073e-05
-1.39747e-05
-4.04506e-05
-1.56319e-05
-3.96168e-05
-1.74616e-05
-3.87688e-05
-1.93941e-05
-3.79307e-05
-2.14491e-05
-3.65187e-05
-2.33203e-05
-3.43462e-05
-2.49638e-05
-3.12576e-05
-2.61218e-05
-2.99875e-05
-2.95496e-05
-2.69219e-05
-4.95445e-07
-3.70073e-05
-1.03807e-06
-3.98422e-05
-1.55951e-06
-3.9795e-05
-2.10206e-06
-3.98483e-05
-2.68571e-06
-3.98494e-05
-3.32024e-06
-3.98219e-05
-4.04937e-06
-3.97909e-05
-4.86226e-06
-3.97371e-05
-5.71247e-06
-3.97652e-05
-6.83582e-06
-3.97727e-05
-7.98841e-06
-3.98599e-05
-9.14489e-06
-3.98616e-05
-1.056e-05
-3.94899e-05
-1.22135e-05
-3.92436e-05
-1.37833e-05
-3.88638e-05
-1.5047e-05
-3.83122e-05
-1.6322e-05
-3.74701e-05
-1.79857e-05
-3.62388e-05
-1.96332e-05
-3.48509e-05
-2.09642e-05
-3.29981e-05
-2.17792e-05
-3.04326e-05
-2.26557e-05
-2.91084e-05
-2.8536e-05
-2.36691e-05
-3.90624e-07
-3.66165e-05
-8.93309e-07
-3.93394e-05
-1.42998e-06
-3.92582e-05
-2.02316e-06
-3.9255e-05
-2.64253e-06
-3.92299e-05
-3.25625e-06
-3.92081e-05
-3.87562e-06
-3.91715e-05
-4.49375e-06
-3.9119e-05
-5.22223e-06
-3.90368e-05
-6.05427e-06
-3.89407e-05
-6.9909e-06
-3.89234e-05
-8.12288e-06
-3.87298e-05
-9.16711e-06
-3.8446e-05
-1.0427e-05
-3.7983e-05
-1.18658e-05
-3.74201e-05
-1.34074e-05
-3.67516e-05
-1.5094e-05
-3.5757e-05
-1.66971e-05
-3.45998e-05
-1.78811e-05
-3.36423e-05
-1.91525e-05
-3.17083e-05
-1.99056e-05
-2.96701e-05
-2.05177e-05
-2.84908e-05
-2.74813e-05
-2.15724e-05
-5.43649e-07
-3.60728e-05
-1.14733e-06
-3.87356e-05
-1.72919e-06
-3.86762e-05
-2.31471e-06
-3.86694e-05
-2.91502e-06
-3.86295e-05
-3.54607e-06
-3.8577e-05
-4.20288e-06
-3.85146e-05
-4.86699e-06
-3.84549e-05
-5.51857e-06
-3.83852e-05
-6.27897e-06
-3.81804e-05
-7.41203e-06
-3.77904e-05
-8.60037e-06
-3.75416e-05
-9.63402e-06
-3.74127e-05
-1.07017e-05
-3.69157e-05
-1.18261e-05
-3.62962e-05
-1.29996e-05
-3.5577e-05
-1.4057e-05
-3.46932e-05
-1.49698e-05
-3.3681e-05
-1.61532e-05
-3.2455e-05
-1.71551e-05
-3.07035e-05
-1.78098e-05
-2.90131e-05
-1.8459e-05
-2.78401e-05
-2.64404e-05
-1.94998e-05
-4.12948e-07
-3.56597e-05
-9.17086e-07
-3.82314e-05
-1.44395e-06
-3.81493e-05
-1.99238e-06
-3.81208e-05
-2.55505e-06
-3.80668e-05
-3.13539e-06
-3.79966e-05
-3.74763e-06
-3.79024e-05
-4.41972e-06
-3.77828e-05
-5.20063e-06
-3.76043e-05
-6.04015e-06
-3.73409e-05
-6.82755e-06
-3.70031e-05
-7.61593e-06
-3.67535e-05
-8.69719e-06
-3.63318e-05
-9.7908e-06
-3.58226e-05
-1.0728e-05
-3.53596e-05
-1.16635e-05
-3.46418e-05
-1.26793e-05
-3.36771e-05
-1.38878e-05
-3.24712e-05
-1.51344e-05
-3.12066e-05
-1.57759e-05
-3.00604e-05
-1.61942e-05
-2.85936e-05
-1.68947e-05
-2.7138e-05
-2.56263e-05
-1.77096e-05
-4.55125e-07
-3.52045e-05
-9.81373e-07
-3.7705e-05
-1.51871e-06
-3.76118e-05
-2.08905e-06
-3.75504e-05
-2.69852e-06
-3.74572e-05
-3.34628e-06
-3.73488e-05
-4.01714e-06
-3.72315e-05
-4.71126e-06
-3.70887e-05
-5.41626e-06
-3.68994e-05
-6.08183e-06
-3.66754e-05
-6.69972e-06
-3.63854e-05
-7.4284e-06
-3.6025e-05
-8.21288e-06
-3.55477e-05
-9.08803e-06
-3.4948e-05
-1.02675e-05
-3.41806e-05
-1.1359e-05
-3.35508e-05
-1.22077e-05
-3.28284e-05
-1.28757e-05
-3.18026e-05
-1.33989e-05
-3.06825e-05
-1.40037e-05
-2.94541e-05
-1.46657e-05
-2.79303e-05
-1.5322e-05
-2.64808e-05
-2.51345e-05
-1.58142e-05
-4.38808e-07
-3.47656e-05
-9.33736e-07
-3.721e-05
-1.41846e-06
-3.7127e-05
-1.89991e-06
-3.70689e-05
-2.37795e-06
-3.69791e-05
-2.87005e-06
-3.68566e-05
-3.40181e-06
-3.66997e-05
-3.98422e-06
-3.65063e-05
-4.62678e-06
-3.62568e-05
-5.37606e-06
-3.59262e-05
-6.22986e-06
-3.55317e-05
-7.14414e-06
-3.5111e-05
-7.9811e-06
-3.4711e-05
-8.74351e-06
-3.4186e-05
-9.30406e-06
-3.36206e-05
-9.88464e-06
-3.29705e-05
-1.0626e-05
-3.2087e-05
-1.14019e-05
-3.10263e-05
-1.22275e-05
-2.98559e-05
-1.29997e-05
-2.86807e-05
-1.33725e-05
-2.75564e-05
-1.36458e-05
-2.62062e-05
-2.4683e-05
-1.40981e-05
-4.28798e-07
-3.43367e-05
-9.22177e-07
-3.67165e-05
-1.42073e-06
-3.66284e-05
-1.94017e-06
-3.65493e-05
-2.48116e-06
-3.64381e-05
-3.03793e-06
-3.62998e-05
-3.60624e-06
-3.61314e-05
-4.18945e-06
-3.59231e-05
-4.77816e-06
-3.56682e-05
-5.33256e-06
-3.53719e-05
-5.83829e-06
-3.50261e-05
-6.36647e-06
-3.4583e-05
-6.99945e-06
-3.40784e-05
-7.67576e-06
-3.35102e-05
-8.45626e-06
-3.28405e-05
-9.36484e-06
-3.20623e-05
-1.01537e-05
-3.12979e-05
-1.07532e-05
-3.04262e-05
-1.1131e-05
-2.94772e-05
-1.14207e-05
-2.83899e-05
-1.18518e-05
-2.71241e-05
-1.22359e-05
-2.58212e-05
-2.44752e-05
-1.24442e-05
-3.79917e-07
-3.39567e-05
-8.06201e-07
-3.62901e-05
-1.22953e-06
-3.62049e-05
-1.66371e-06
-3.61151e-05
-2.11482e-06
-3.59869e-05
-2.59203e-06
-3.58226e-05
-3.10326e-06
-3.56202e-05
-3.64876e-06
-3.53776e-05
-4.22551e-06
-3.50915e-05
-4.84336e-06
-3.47542e-05
-5.5115e-06
-3.43581e-05
-6.18919e-06
-3.39055e-05
-6.84516e-06
-3.34228e-05
-7.46926e-06
-3.28865e-05
-8.02061e-06
-3.22897e-05
-8.45114e-06
-3.16319e-05
-8.88167e-06
-3.08673e-05
-9.34521e-06
-2.99621e-05
-9.88054e-06
-2.89409e-05
-1.03765e-05
-2.78927e-05
-1.06586e-05
-2.6841e-05
-1.08206e-05
-2.56582e-05
-2.43508e-05
-1.09458e-05
-3.78392e-07
-3.35783e-05
-8.05778e-07
-3.58627e-05
-1.23061e-06
-3.578e-05
-1.66626e-06
-3.56793e-05
-2.11131e-06
-3.55418e-05
-2.56568e-06
-3.53682e-05
-3.02992e-06
-3.51559e-05
-3.50501e-06
-3.49025e-05
-3.99121e-06
-3.46053e-05
-4.48475e-06
-3.42607e-05
-4.97714e-06
-3.38659e-05
-5.45815e-06
-3.34247e-05
-5.95026e-06
-3.2931e-05
-6.46488e-06
-3.23723e-05
-7.00614e-06
-3.17487e-05
-7.5838e-06
-3.10545e-05
-8.15229e-06
-3.02986e-05
-8.62172e-06
-2.94921e-05
-8.94661e-06
-2.86152e-05
-9.18666e-06
-2.76514e-05
-9.41205e-06
-2.66146e-05
-9.55209e-06
-2.55173e-05
-2.43346e-05
-9.56881e-06
-3.29198e-07
-3.32489e-05
-6.99312e-07
-3.54925e-05
-1.06826e-06
-3.5411e-05
-1.45054e-06
-3.5297e-05
-1.84929e-06
-3.5143e-05
-2.26779e-06
-3.49497e-05
-2.70648e-06
-3.47172e-05
-3.16219e-06
-3.44468e-05
-3.62913e-06
-3.41385e-05
-4.10196e-06
-3.3788e-05
-4.58198e-06
-3.3386e-05
-5.07619e-06
-3.29307e-05
-5.57116e-06
-3.24363e-05
-6.0457e-06
-3.18981e-05
-6.49146e-06
-3.13035e-05
-6.89593e-06
-3.06501e-05
-7.25903e-06
-2.99353e-05
-7.60103e-06
-2.91495e-05
-7.91699e-06
-2.82984e-05
-8.16768e-06
-2.73996e-05
-8.32008e-06
-2.64612e-05
-8.3728e-06
-2.54636e-05
-2.43873e-05
-8.32087e-06
-3.00052e-07
-3.29489e-05
-6.40244e-07
-3.51522e-05
-9.77717e-07
-3.50735e-05
-1.32696e-06
-3.49477e-05
-1.68748e-06
-3.47824e-05
-2.06065e-06
-3.45765e-05
-2.44785e-06
-3.433e-05
-2.84991e-06
-3.40448e-05
-3.26805e-06
-3.37204e-05
-3.69786e-06
-3.33582e-05
-4.12562e-06
-3.29583e-05
-4.54024e-06
-3.25163e-05
-4.95072e-06
-3.20261e-05
-5.36209e-06
-3.14872e-05
-5.76427e-06
-3.09014e-05
-6.14796e-06
-3.02667e-05
-6.50148e-06
-2.95815e-05
-6.80189e-06
-2.88486e-05
-7.03369e-06
-2.80657e-05
-7.19845e-06
-2.72338e-05
-7.29645e-06
-2.63624e-05
-7.30459e-06
-2.54546e-05
-2.44924e-05
-7.19996e-06
-2.58834e-07
-3.26899e-05
-5.54371e-07
-3.48566e-05
-8.49255e-07
-3.47785e-05
-1.1565e-06
-3.46404e-05
-1.47633e-06
-3.44626e-05
-1.81065e-06
-3.42421e-05
-2.16082e-06
-3.39798e-05
-2.52442e-06
-3.36812e-05
-2.89706e-06
-3.33478e-05
-3.27644e-06
-3.29789e-05
-3.66186e-06
-3.2573e-05
-4.04992e-06
-3.21284e-05
-4.43122e-06
-3.1645e-05
-4.79681e-06
-3.11218e-05
-5.14284e-06
-3.05559e-05
-5.46246e-06
-2.99469e-05
-5.7476e-06
-2.92962e-05
-5.99221e-06
-2.86034e-05
-6.18627e-06
-2.78709e-05
-6.31652e-06
-2.71026e-05
-6.37182e-06
-2.63061e-05
-6.33965e-06
-2.5486e-05
-2.46318e-05
-6.20068e-06
-2.09033e-07
-3.24809e-05
-4.61405e-07
-3.46042e-05
-7.13444e-07
-3.45264e-05
-9.77532e-07
-3.43763e-05
-1.25294e-06
-3.41871e-05
-1.54221e-06
-3.39528e-05
-1.84954e-06
-3.36725e-05
-2.17396e-06
-3.33568e-05
-2.51198e-06
-3.30098e-05
-2.85829e-06
-3.26327e-05
-3.20625e-06
-3.22252e-05
-3.55026e-06
-3.17845e-05
-3.88777e-06
-3.13078e-05
-4.21388e-06
-3.07961e-05
-4.52147e-06
-3.02483e-05
-4.80387e-06
-2.96648e-05
-5.05311e-06
-2.90467e-05
-5.25944e-06
-2.83965e-05
-5.41396e-06
-2.77157e-05
-5.50809e-06
-2.70074e-05
-5.53395e-06
-2.62795e-05
-5.47852e-06
-2.55405e-05
-2.47881e-05
-5.32262e-06
-1.58379e-07
-3.23223e-05
-3.72157e-07
-3.43903e-05
-5.86417e-07
-3.43121e-05
-8.09704e-07
-3.41529e-05
-1.03912e-06
-3.39577e-05
-1.27258e-06
-3.37194e-05
-1.51107e-06
-3.3434e-05
-1.76443e-06
-3.31035e-05
-2.04299e-06
-3.27313e-05
-2.34863e-06
-3.23271e-05
-2.67463e-06
-3.18993e-05
-3.00555e-06
-3.14538e-05
-3.32744e-06
-3.09861e-05
-3.63286e-06
-3.04908e-05
-3.91581e-06
-2.99658e-05
-4.17039e-06
-2.94101e-05
-4.39033e-06
-2.88266e-05
-4.56822e-06
-2.82182e-05
-4.69801e-06
-2.75852e-05
-4.77153e-06
-2.6933e-05
-4.78069e-06
-2.62695e-05
-4.71541e-06
-2.56051e-05
-2.49445e-05
-4.55938e-06
-9.83465e-08
-3.2224e-05
-2.94458e-07
-3.41942e-05
-4.88056e-07
-3.41185e-05
-6.83905e-07
-3.39571e-05
-8.8049e-07
-3.37611e-05
-1.07202e-06
-3.35278e-05
-1.25373e-06
-3.32523e-05
-1.43048e-06
-3.29267e-05
-1.61324e-06
-3.25485e-05
-1.81642e-06
-3.2124e-05
-2.05284e-06
-3.16629e-05
-2.32897e-06
-3.11777e-05
-2.63713e-06
-3.06781e-05
-2.95863e-06
-3.01697e-05
-3.26415e-06
-2.96602e-05
-3.53071e-06
-2.91438e-05
-3.74815e-06
-2.86088e-05
-3.91646e-06
-2.80494e-05
-4.03497e-06
-2.7466e-05
-4.09944e-06
-2.68677e-05
-4.10448e-06
-2.62637e-05
-4.04382e-06
-2.56648e-05
-2.50832e-05
-3.90533e-06
-5.57714e-08