/*--------------------------------*- C++ -*----------------------------------*\
| =========                 |                                                 |
| \\      /  F ield         | OpenFOAM: The Open Source CFD Toolbox           |
|  \\    /   O peration     | Version:  2.4.0                                 |
|   \\  /    A nd           | Web:      www.OpenFOAM.org                      |
|    \\/     M anipulation  |                                                 |
\*---------------------------------------------------------------------------*/
FoamFile
{
    version     2.0;
    format      ascii;
    class       surfaceScalarField;
    location    "0.4";
    object      phi.mercury;
}
// * * * * * * * * * * * * * * * * * * * * * * * * * * * * * * * * * * * * * //

dimensions      [0 3 -1 0 0 0 0];

internalField   nonuniform List<scalar> 
4432
(
3.24659e-06
-3.24659e-06
6.54521e-06
-3.29862e-06
9.59742e-06
-3.05221e-06
1.34214e-05
-3.82396e-06
1.5863e-05
-2.44163e-06
1.96735e-05
-3.8105e-06
2.3341e-05
-3.66746e-06
2.59886e-05
-2.64765e-06
2.86678e-05
-2.67918e-06
3.20897e-05
-3.42187e-06
3.61349e-05
-4.04526e-06
3.93584e-05
-3.22349e-06
4.15809e-05
-2.22243e-06
4.28987e-05
-1.31786e-06
4.3309e-05
-4.10235e-07
4.33194e-05
-1.04633e-08
4.21117e-05
1.2077e-06
3.93307e-05
2.78102e-06
3.45528e-05
4.77794e-06
2.74838e-05
7.069e-06
1.77958e-05
9.68795e-06
7.05962e-06
1.07362e-05
7.0595e-06
3.24888e-06
-6.49547e-06
6.55247e-06
-6.60221e-06
9.61988e-06
-6.11962e-06
1.33553e-05
-7.55939e-06
1.59774e-05
-5.06371e-06
1.97104e-05
-7.54355e-06
2.32472e-05
-7.20423e-06
2.59877e-05
-5.38815e-06
2.89326e-05
-5.62406e-06
3.24041e-05
-6.89337e-06
3.62895e-05
-7.93064e-06
3.91632e-05
-6.0972e-06
4.13868e-05
-4.4461e-06
4.29356e-05
-2.86663e-06
4.40521e-05
-1.5267e-06
4.42183e-05
-1.76735e-07
4.34892e-05
1.93688e-06
4.03933e-05
5.87687e-06
3.54455e-05
9.7258e-06
2.70548e-05
1.54597e-05
1.82954e-05
1.84473e-05
9.01872e-06
2.00129e-05
1.60782e-05
3.25298e-06
-9.74845e-06
6.54039e-06
-9.88962e-06
9.66272e-06
-9.24195e-06
1.32583e-05
-1.11549e-05
1.61657e-05
-7.97114e-06
1.97035e-05
-1.10814e-05
2.30043e-05
-1.0505e-05
2.59877e-05
-8.3715e-06
2.94361e-05
-9.07248e-06
3.296e-05
-1.04173e-05
3.59933e-05
-1.0964e-05
3.8388e-05
-8.49187e-06
4.12541e-05
-7.31228e-06
4.36091e-05
-5.22172e-06
4.56045e-05
-3.52241e-06
4.59872e-05
-5.59592e-07
4.48369e-05
3.08718e-06
4.20051e-05
8.70859e-06
3.57762e-05
1.59547e-05
2.77185e-05
2.35174e-05
1.92135e-05
2.69523e-05
1.12809e-05
2.79456e-05
2.73591e-05
3.25966e-06
-1.30089e-05
6.52308e-06
-1.3154e-05
9.72848e-06
-1.24483e-05
1.31551e-05
-1.4584e-05
1.62956e-05
-1.1113e-05
1.97029e-05
-1.44931e-05
2.29167e-05
-1.37271e-05
2.59502e-05
-1.14157e-05
2.99325e-05
-1.30765e-05
3.30296e-05
-1.35551e-05
3.54464e-05
-1.34572e-05
3.81474e-05
-1.13032e-05
4.15901e-05
-1.09319e-05
4.44828e-05
-8.36831e-06
4.69584e-05
-6.39101e-06
4.81618e-05
-2.05166e-06
4.6613e-05
4.54728e-06
4.29192e-05
1.23888e-05
3.52265e-05
2.36469e-05
2.54982e-05
3.32458e-05
1.54974e-05
3.6953e-05
7.45748e-06
3.59855e-05
3.48165e-05
3.26639e-06
-1.6599e-05
6.52449e-06
-1.67549e-05
9.81408e-06
-1.60907e-05
1.30196e-05
-1.82854e-05
1.64851e-05
-1.50339e-05
1.9611e-05
-1.83178e-05
2.28144e-05
-1.79233e-05
2.64214e-05
-1.62728e-05
3.00111e-05
-1.85363e-05
3.28229e-05
-1.91009e-05
3.54302e-05
-2.01033e-05
3.85536e-05
-1.96728e-05
4.19888e-05
-2.14106e-05
4.53696e-05
-2.11062e-05
4.86938e-05
-2.17667e-05
4.92869e-05
-1.73317e-05
4.7907e-05
-7.68235e-06
4.3832e-05
8.98189e-06
3.74762e-05
2.91886e-05
2.80432e-05
4.26643e-05
1.65221e-05
4.8474e-05
8.56827e-06
4.39394e-05
4.33847e-05
3.27197e-06
-2.72868e-05
6.51652e-06
-2.76341e-05
9.98611e-06
-2.74451e-05
1.27433e-05
-3.00145e-05
1.67369e-05
-2.8225e-05
1.9579e-05
-3.19101e-05
2.26713e-05
-3.36712e-05
2.66814e-05
-3.45327e-05
2.96553e-05
-3.83734e-05
3.23479e-05
-4.21589e-05
3.50636e-05
-4.8292e-05
3.78128e-05
-5.36634e-05
4.00206e-05
-5.71393e-05
4.27589e-05
-5.93331e-05
4.48891e-05
-6.15011e-05
4.75976e-05
-5.67392e-05
4.87471e-05
-3.97398e-05
4.29919e-05
-1.4636e-05
3.65132e-05
2.0512e-05
2.96827e-05
4.75026e-05
1.92703e-05
5.88345e-05
8.54152e-06
5.4668e-05
5.19262e-05
3.16673e-06
-6.03733e-05
6.2885e-06
-6.11836e-05
9.71377e-06
-6.20529e-05
1.19795e-05
-6.53578e-05
1.58202e-05
-6.63438e-05
1.85964e-05
-7.17826e-05
2.08628e-05
-7.6761e-05
2.34787e-05
-8.11125e-05
2.59211e-05
-8.66886e-05
2.78117e-05
-8.9713e-05
2.82448e-05
-9.32682e-05
2.86454e-05
-8.45579e-05
2.96749e-05
-6.50419e-05
3.0298e-05
-5.33799e-05
2.96465e-05
-4.81758e-05
3.45067e-05
-4.4761e-05
4.31478e-05
-3.52123e-05
4.11442e-05
-3.86179e-05
3.20082e-05
7.20988e-06
2.7711e-05
4.00851e-05
2.18692e-05
6.35983e-05
1.31055e-05
6.34103e-05
6.50316e-05
2.55934e-06
-9.52286e-05
5.02682e-06
-9.60588e-05
7.60194e-06
-9.72687e-05
9.27663e-06
-9.97162e-05
1.11107e-05
-0.000101973
1.30056e-05
-0.000106535
1.33106e-05
-0.000110402
1.39456e-05
-0.000114096
1.60223e-05
-0.000113962
1.75331e-05
-0.000104163
1.73936e-05
-8.97337e-05
1.66877e-05
-6.90429e-05
1.63268e-05
-4.3837e-05
1.65001e-05
-2.86104e-05
1.66251e-05
-1.76661e-05
1.56918e-05
-1.2703e-05
2.11176e-05
-9.31875e-06
3.72018e-05
-3.09148e-05
3.3136e-05
-8.38535e-06
2.228e-05
2.89733e-05
2.10253e-05
5.92763e-05
1.45675e-05
6.93616e-05
7.96094e-05
-6.02658e-05
-4.63484e-05
-7.8502e-05
-5.30785e-05
-8.36269e-05
-6.03617e-05
-8.10524e-05
-5.80044e-05
-6.76036e-05
-6.93486e-05
-5.2551e-05
-8.77071e-05
-4.01097e-05
-9.44463e-05
-2.77021e-05
-0.000107616
-1.32089e-05
-0.00014103
6.26586e-06
-0.000169579
2.57325e-05
-0.000167663
4.65052e-05
-0.000164977
6.72596e-05
-0.000165622
8.69744e-05
-0.000160783
9.84575e-05
-0.000130219
0.000101255
-0.000105363
9.87646e-05
-9.45573e-05
8.22606e-05
-8.78657e-05
-8.07265e-05
-5.17994e-05
-2.15986e-05
-7.07053e-05
1.61276e-06
-8.02102e-05
2.13277e-06
-8.43262e-05
-6.8028e-06
-8.21109e-05
-2.04789e-05
-7.18611e-05
-3.16064e-05
-5.28861e-05
-4.58091e-05
-7.95232e-06
-7.74688e-05
3.83976e-05
-0.000147527
4.90184e-05
-0.000202075
5.50434e-05
-0.000229363
6.89849e-05
-0.000230457
8.5933e-05
-0.00021628
0.000101218
-0.000205503
0.000109057
-0.000161807
0.000110655
-0.000118768
0.000105657
-0.000102182
8.73313e-05
-9.48138e-05
-6.96587e-05
-3.29977e-05
1.73812e-05
-5.29351e-05
4.99597e-05
-6.80892e-05
4.63608e-05
-6.92813e-05
5.99971e-06
-6.36559e-05
-1.57239e-05
-5.20129e-05
-3.33537e-05
-3.19442e-05
-4.59453e-05
7.87166e-06
-6.7287e-05
4.92139e-05
-0.000150362
6.06231e-05
-0.000193365
6.81046e-05
-0.000238902
8.08508e-05
-0.000260504
9.37761e-05
-0.000251772
0.00010502
-0.000235578
0.000111424
-0.000195229
0.000109529
-0.000162604
0.000105059
-0.000143138
8.98052e-05
-0.000129789
-7.95751e-05
-2.37504e-05
5.24984e-05
-4.34437e-05
7.74085e-05
-5.56602e-05
6.85385e-05
-4.73237e-05
1.49681e-05
-3.2951e-05
-1.96776e-05
-2.80671e-05
-6.1574e-05
-1.94462e-05
-7.68031e-05
2.23356e-05
-8.22433e-05
6.15911e-05
-0.00015607
6.86262e-05
-0.000194898
7.55022e-05
-0.000239289
8.73176e-05
-0.000262886
9.89583e-05
-0.000261644
0.000106523
-0.000257358
0.000104705
-0.000233611
9.93013e-05
-0.000215889
9.58209e-05
-0.000173657
8.55737e-05
-0.000100123
-3.57714e-05
-1.79983e-05
7.51641e-05
-3.04578e-05
8.90481e-05
-2.93173e-05
8.06612e-05
-1.29551e-05
4.66698e-06
-6.78235e-06
-4.96056e-05
3.41988e-06
-5.88761e-05
1.51149e-05
-0.000100291
3.8391e-05
-0.000118058
7.12255e-05
-0.000172238
7.46504e-05
-0.000193501
7.94659e-05
-0.000241489
8.92473e-05
-0.00026115
9.82919e-05
-0.000263206
0.000103015
-0.000259656
0.00010276
-0.000249819
9.26009e-05
-0.000232173
7.70492e-05
-0.000119773
5.18477e-05
1.08642e-05
5.35392e-05
-9.90315e-06
9.13137e-05
-1.31361e-05
9.54757e-05
-1.28723e-06
7.6845e-05
1.06005e-05
-3.81728e-07
1.06969e-05
-4.39116e-05
3.41046e-05
-5.62866e-05
1.11591e-05
-5.22809e-05
4.51956e-05
-6.91215e-05
8.28291e-05
-0.000144708
8.00691e-05
-0.000186372
8.45886e-05
-0.000239188
9.15523e-05
-0.000260367
9.85738e-05
-0.000263528
9.97172e-05
-0.000262236
9.88977e-05
-0.000254353
8.0664e-05
-0.000224137
5.03647e-05
-9.54705e-06
2.19673e-05
0.000101176
0.00012517
1.6277e-06
2.95289e-05
2.69086e-06
7.43519e-05
6.35953e-06
4.77982e-05
1.32757e-05
4.06293e-06
3.13439e-05
-2.36245e-05
1.67879e-05
-3.23351e-05
1.88046e-05
-3.23487e-05
4.3147e-05
-5.81455e-05
7.91787e-05
-0.000102749
8.12501e-05
-0.000181969
8.68975e-05
-0.000237131
9.304e-05
-0.000259764
9.90567e-05
-0.00026251
9.92197e-05
-0.00026871
9.43742e-05
-0.000258159
7.05599e-05
-0.000134984
3.53913e-05
8.49855e-05
1.28836e-05
0.000133772
0.00014463
1.76841e-05
-2.62161e-05
1.31797e-05
1.45148e-05
3.32929e-05
1.94023e-06
3.57832e-05
-1.08355e-05
4.03501e-05
-1.75901e-05
5.54749e-05
-3.33186e-05
7.56491e-05
-4.80445e-05
4.48827e-05
-3.57446e-05
7.68833e-05
-9.2176e-05
8.2527e-05
-0.000180355
8.9928e-05
-0.000234475
9.68655e-05
-0.000259393
0.000101987
-0.000269104
9.31288e-05
-0.000264066
7.45337e-05
-0.000234834
4.34886e-05
1.70187e-05
2.20971e-05
0.000137149
8.92667e-06
0.000148917
0.000149687
3.99671e-06
-6.33731e-05
7.9378e-06
-6.3343e-05
1.20564e-05
-6.30663e-05
1.54067e-05
-6.25558e-05
1.89409e-05
-6.2333e-05
2.29968e-05
-6.24647e-05
2.57004e-05
-6.14728e-05
2.91362e-05
-6.16966e-05
3.25926e-05
-5.7946e-05
3.61826e-05
-4.59972e-05
4.14944e-05
-2.91674e-05
4.81243e-05
-2.26782e-05
5.41867e-05
-1.86142e-05
5.84381e-05
-1.37448e-05
5.78495e-05
-6.8709e-06
5.35536e-05
-2.18673e-06
4.26999e-05
1.23493e-05
4.83929e-05
1.21295e-05
6.71946e-05
-3.97116e-06
4.3425e-05
4.73959e-06
3.72103e-05
3.55768e-05
4.63374e-05
5.38523e-05
6.41477e-05
6.15503e-05
3.4293e-06
-2.46736e-05
6.91838e-06
-2.47075e-05
1.04953e-05
-2.44006e-05
1.43323e-05
-2.39173e-05
1.80123e-05
-2.36877e-05
2.22064e-05
-2.42758e-05
2.57647e-05
-2.2617e-05
3.02888e-05
-2.50895e-05
3.45361e-05
-2.6049e-05
3.91849e-05
-2.59649e-05
4.40397e-05
-2.51864e-05
4.62567e-05
-2.36665e-05
4.59243e-05
-1.94138e-05
4.61158e-05
-1.66168e-05
4.65207e-05
-1.05781e-05
4.6114e-05
-7.19084e-06
5.15204e-05
2.80448e-06
5.10427e-05
1.22079e-05
4.54323e-05
1.77552e-05
5.18449e-05
9.90053e-06
3.81425e-05
1.56355e-05
4.36731e-05
3.15368e-05
4.65876e-05
5.5505e-05
4.03095e-06
-3.23433e-05
8.06004e-06
-3.26619e-05
1.20066e-05
-3.25282e-05
1.59262e-05
-3.23941e-05
1.94365e-05
-3.22126e-05
2.27531e-05
-3.35114e-05
2.67607e-05
-3.20059e-05
3.14407e-05
-3.58155e-05
3.62873e-05
-3.56879e-05
4.3505e-05
-3.68546e-05
5.12145e-05
-3.60496e-05
5.75593e-05
-3.2489e-05
6.38098e-05
-2.65857e-05
6.99329e-05
-2.25213e-05
7.20468e-05
-9.83586e-06
6.90658e-05
3.51865e-07
6.81894e-05
1.26235e-05
6.88021e-05
2.18409e-05
4.54068e-05
3.3938e-05
5.35498e-05
2.44745e-05
6.06806e-05
1.2629e-05
5.6354e-05
1.88299e-05
2.79383e-05
5.97029e-05
4.44692e-06
-3.95052e-05
8.8183e-06
-3.96597e-05
1.29412e-05
-3.9138e-05
1.67301e-05
-3.84755e-05
2.01259e-05
-3.76706e-05
2.26822e-05
-3.78095e-05
2.64449e-05
-3.74436e-05
3.01943e-05
-4.10388e-05
3.60824e-05
-4.28211e-05
4.5649e-05
-4.76364e-05
5.45821e-05
-4.58487e-05
6.08586e-05
-3.92758e-05
6.49e-05
-3.08633e-05
6.67985e-05
-2.45222e-05
7.01504e-05
-1.34042e-05
7.53254e-05
-5.06485e-06
8.23076e-05
5.49583e-06
8.53146e-05
1.99762e-05
8.31257e-05
3.04624e-05
5.85044e-05
3.91594e-05
8.52504e-05
2.16183e-05
9.08638e-05
8.13947e-06
2.26415e-05
8.75214e-05
4.63315e-06
-4.53629e-05
9.10524e-06
-4.53314e-05
1.31702e-05
-4.4314e-05
1.67059e-05
-4.29809e-05
1.9431e-05
-4.11615e-05
2.10415e-05
-3.99337e-05
2.34827e-05
-4.0141e-05
2.72988e-05
-4.49236e-05
3.56431e-05
-5.11806e-05
4.69218e-05
-5.8845e-05
5.44195e-05
-5.32826e-05
6.00948e-05
-4.51006e-05
6.6283e-05
-3.76964e-05
7.11564e-05
-3.07753e-05
7.65046e-05
-2.0634e-05
8.0375e-05
-1.12493e-05
8.31435e-05
3.49012e-07
8.99464e-05
1.15735e-05
9.83667e-05
2.1373e-05
6.49051e-05
2.90676e-05
8.96065e-05
2.34398e-05
0.000113617
5.16224e-06
7.86133e-06
0.000113807
5.18698e-06
-8.15252e-05
9.87537e-06
-8.11441e-05
1.40541e-05
-7.92815e-05
1.72455e-05
-7.62959e-05
1.86891e-05
-7.15567e-05
1.7541e-05
-6.50669e-05
1.69068e-05
-5.67874e-05
2.0956e-05
-5.47268e-05
2.91449e-05
-6.14936e-05
3.74901e-05
-7.10579e-05
4.01029e-05
-6.002e-05
4.02883e-05
-4.8566e-05
3.6455e-05
-3.72814e-05
3.26288e-05
-3.01855e-05
3.28131e-05
-2.39132e-05
3.7471e-05
-1.85722e-05
4.71011e-05
-1.14396e-05
6.15138e-05
-6.0321e-06
7.74361e-05
2.30635e-06
9.83826e-05
3.23299e-06
7.35083e-05
2.31769e-05
0.000113917
8.68965e-06
-2.24869e-06
0.000128244
6.18994e-06
-0.000167655
1.17986e-05
-0.000166941
1.73672e-05
-0.000164541
2.25211e-05
-0.00016012
2.67781e-05
-0.000153139
2.70131e-05
-0.000142823
1.6395e-05
-0.000121899
2.44001e-06
-0.000104072
-7.58487e-06
-0.000104923
-1.35639e-05
-0.000104882
-2.25178e-05
-7.22723e-05
-3.3006e-05
-5.23447e-05
-3.76314e-05
-3.86839e-05
-3.77443e-05
-3.02222e-05
-3.41031e-05
-2.57174e-05
-2.83487e-05
-2.13809e-05
-1.84872e-05
-1.77011e-05
-1.57559e-06
-1.88694e-05
1.97372e-05
-1.54124e-05
4.79986e-05
-2.06152e-05
5.5004e-05
-1.74212e-06
7.54439e-05
2.92501e-07
-7.04847e-06
0.000118982
3.23956e-06
-7.16587e-05
6.79159e-06
-7.07135e-05
1.15301e-05
-7.0619e-05
1.74138e-05
-7.00569e-05
2.37732e-05
-6.42509e-05
2.98968e-05
-6.0261e-05
2.37089e-05
-6.59282e-05
-1.27289e-05
-0.000119811
-6.06598e-05
-0.000122078
-8.26687e-05
-0.000119929
-7.74774e-05
-9.90901e-05
-7.06184e-05
-9.43302e-05
-6.08497e-05
-9.31018e-05
-5.4018e-05
-8.49137e-05
-4.86383e-05
-7.85249e-05
-4.42163e-05
-6.95658e-05
-3.79699e-05
-6.06821e-05
-2.85968e-05
-5.46762e-05
-1.44948e-05
-4.40294e-05
7.09159e-07
-4.54234e-05
2.2621e-05
-2.44982e-05
4.15771e-05
-1.83838e-05
-1.89704e-05
6.45007e-05
-6.2501e-06
-5.10395e-05
-1.00234e-05
-5.30829e-05
-1.10985e-05
-5.5493e-05
-7.0892e-06
-5.91746e-05
5.31886e-06
-6.38728e-05
3.62026e-05
-7.07594e-05
7.46137e-05
-7.06349e-05
3.78371e-05
-4.38801e-06
-3.66637e-05
5.21849e-05
-7.27662e-05
-2.15543e-05
-7.48777e-05
-5.69774e-05
-6.52915e-05
-5.90587e-05
-5.24857e-05
-6.29913e-05
-4.05283e-05
-6.19694e-05
-3.22717e-05
-6.91615e-05
-2.49713e-05
-7.84772e-05
-1.86645e-05
-9.30947e-05
-1.51572e-05
-0.000129364
-8.50131e-06
-0.000106712
-2.0278e-06
-0.000101974
1.00672e-05
-7.83071e-05
2.52998e-05
-7.46537e-05
-6.03925e-05
4.06321e-05
-1.32584e-05
-3.77808e-05
-2.32203e-05
-4.31209e-05
-3.0666e-05
-4.80469e-05
-3.54259e-05
-5.44133e-05
-3.90073e-05
-6.02852e-05
-4.38301e-05
-6.58803e-05
-4.95043e-05
-6.42838e-05
-2.2655e-05
-2.27086e-05
3.73681e-05
2.30443e-05
4.10998e-05
-8.30272e-07
3.78448e-05
-3.76724e-05
5.25209e-05
-5.73298e-05
6.60262e-05
-6.14335e-05
7.63294e-05
-5.67195e-05
8.97427e-05
-5.38321e-05
9.69231e-05
-4.089e-05
7.25596e-05
-3.36612e-06
2.69199e-05
-1.72641e-06
1.74229e-05
-4.94607e-05
1.76938e-05
-6.2321e-05
2.47604e-05
-8.16774e-05
3.09736e-05
-9.53457e-05
-0.0001366
3.86991e-05
-3.31583e-06
-3.44659e-05
-5.98599e-06
-4.04512e-05
-7.63991e-06
-4.63931e-05
-8.78925e-06
-5.32639e-05
-9.88384e-06
-5.91929e-05
-1.33562e-05
-6.24285e-05
-1.57244e-05
-6.19281e-05
-1.5887e-06
-3.68445e-05
1.30883e-05
8.37526e-06
-1.07153e-05
2.29771e-05
-1.16259e-05
-3.67616e-05
1.53137e-06
-7.04874e-05
1.26291e-05
-7.25318e-05
2.25671e-05
-6.66584e-05
2.78015e-05
-5.90683e-05
3.64437e-05
-4.95363e-05
7.1897e-05
-3.8665e-05
0.000126142
-4.62317e-05
0.000155366
-5.21994e-05
0.000179702
-5.89545e-05
0.000180063
-5.24098e-05
0.000169141
-2.47559e-05
-2.42532e-05
0.000145498
-1.3317e-06
-3.31347e-05
-2.23543e-06
-3.95478e-05
-3.80017e-06
-4.48285e-05
-6.76709e-06
-5.02968e-05
-1.12722e-05
-5.46876e-05
-1.71057e-05
-5.65948e-05
-2.42632e-05
-5.47704e-05
-1.8557e-05
-4.25505e-05
8.64274e-06
-1.88244e-05
3.88158e-05
-7.19589e-06
4.37524e-05
-4.16983e-05
3.84373e-05
-6.51726e-05
3.82991e-05
-7.2394e-05
4.46295e-05
-7.29899e-05
5.31456e-05
-6.75866e-05
5.94771e-05
-5.58712e-05
6.0162e-05
-3.93537e-05
5.02073e-05
-3.62798e-05
3.90791e-05
-4.10721e-05
2.7152e-05
-4.70257e-05
2.639e-05
-5.16452e-05
5.55449e-05
-5.38624e-05
-5.6495e-05
8.84072e-05
2.10403e-08
-3.31563e-05
1.03683e-07
-3.96308e-05
-7.35978e-07
-4.3989e-05
-2.74665e-06
-4.8286e-05
-6.06848e-06
-5.13656e-05
-1.05627e-05
-5.21003e-05
-1.5362e-05
-4.99709e-05
-1.51257e-05
-4.27866e-05
-1.56233e-06
-3.23876e-05
1.69296e-05
-2.56877e-05
2.54351e-05
-5.02037e-05
2.45769e-05
-6.43146e-05
2.28443e-05
-7.06618e-05
2.22467e-05
-7.23935e-05
2.45788e-05
-6.99206e-05
3.19144e-05
-6.32096e-05
4.64218e-05
-5.38646e-05
5.85057e-05
-4.8366e-05
5.83727e-05
-4.094e-05
4.78273e-05
-3.64786e-05
3.1747e-05
-3.55611e-05
1.81596e-05
-4.02727e-05
-4.07879e-05
2.45621e-06
2.40802e-06
-3.55646e-05
3.70757e-06
-4.09306e-05
3.54626e-06
-4.38277e-05
1.78055e-06
-4.65203e-05
-1.2507e-06
-4.83342e-05
-4.85891e-06
-4.8492e-05
-7.75587e-06
-4.70736e-05
-7.32967e-06
-4.32126e-05
-3.50826e-08
-3.96819e-05
1.06818e-05
-3.64044e-05
1.11583e-05
-5.06802e-05
7.42332e-06
-6.05796e-05
2.94204e-06
-6.6181e-05
-1.03641e-06
-6.8416e-05
-4.15462e-06
-6.68041e-05
-7.2352e-06
-6.01317e-05
-8.28301e-06
-5.28191e-05
-8.29903e-06
-4.8353e-05
-6.20202e-06
-4.30367e-05
-3.80261e-06
-3.88766e-05
-3.90391e-06
-3.54574e-05
-5.90552e-06
-3.82672e-05
-3.88547e-05
-7.83868e-06
1.94841e-06
-3.75134e-05
3.2607e-06
-4.22431e-05
3.25567e-06
-4.38228e-05
1.82275e-06
-4.50874e-05
-8.74304e-07
-4.5637e-05
-3.90276e-06
-4.54633e-05
-6.30214e-06
-4.46741e-05
-6.23138e-06
-4.32831e-05
-3.12074e-06
-4.27923e-05
2.45338e-06
-4.19784e-05
1.42408e-06
-4.96508e-05
-4.37287e-06
-5.47827e-05
-1.10237e-05
-5.95305e-05
-1.69088e-05
-6.25318e-05
-2.16952e-05
-6.20195e-05
-2.50219e-05
-5.68069e-05
-2.68419e-05
-5.10029e-05
-2.83887e-05
-4.68062e-05
-2.98611e-05
-4.15657e-05
-3.0434e-05
-3.83007e-05
-2.90925e-05
-3.6798e-05
-2.83235e-05
-3.90322e-05
-3.87391e-05
-2.84396e-05
1.10283e-06
-3.86163e-05
1.61969e-06
-4.276e-05
1.14681e-06
-4.33499e-05
-1.51818e-07
-4.37887e-05
-1.84949e-06
-4.39393e-05
-3.49927e-06
-4.38134e-05
-4.79389e-06
-4.33792e-05
-5.08749e-06
-4.29893e-05
-4.60624e-06
-4.32734e-05
-3.43872e-06
-4.31457e-05
-6.1825e-06
-4.69069e-05
-1.12424e-05
-4.97229e-05
-1.72834e-05
-5.349e-05
-2.28204e-05
-5.69958e-05
-2.77622e-05
-5.70787e-05
-3.10084e-05
-5.35631e-05
-3.28844e-05
-4.91268e-05
-3.35278e-05
-4.61655e-05
-3.30771e-05
-4.20143e-05
-3.20679e-05
-3.93106e-05
-3.01671e-05
-3.86943e-05
-3.03671e-05
-3.88322e-05
-3.60845e-05
-3.3016e-05
1.99401e-07
-3.88159e-05
-1.69267e-07
-4.23914e-05
-9.97528e-07
-4.25217e-05
-1.98793e-06
-4.27982e-05
-2.91855e-06
-4.30085e-05
-3.76981e-06
-4.2962e-05
-4.29991e-06
-4.2849e-05
-4.41643e-06
-4.28726e-05
-4.50905e-06
-4.31806e-05
-4.59949e-06
-4.30552e-05
-7.22546e-06
-4.42809e-05
-1.11451e-05
-4.58034e-05
-1.61875e-05
-4.8448e-05
-2.22225e-05
-5.09615e-05
-2.77916e-05
-5.15104e-05
-3.11689e-05
-5.01859e-05
-3.27572e-05
-4.75408e-05
-3.30163e-05
-4.5905e-05
-3.21109e-05
-4.29221e-05
-3.18814e-05
-3.95374e-05
-3.224e-05
-3.83375e-05
-3.30286e-05
-3.80366e-05
-3.57557e-05
-3.33624e-05
-2.2218e-07
-3.85937e-05
-8.37331e-07
-4.17763e-05
-1.5067e-06
-4.18523e-05
-2.13627e-06
-4.21686e-05
-2.72155e-06
-4.24232e-05
-3.13378e-06
-4.25496e-05
-3.36128e-06
-4.26214e-05
-3.4942e-06
-4.27396e-05
-3.93322e-06
-4.27415e-05
-4.28848e-06
-4.26998e-05
-5.46168e-06
-4.31076e-05
-7.21831e-06
-4.40468e-05
-1.00427e-05
-4.5624e-05
-1.44591e-05
-4.65454e-05
-1.88991e-05
-4.70712e-05
-2.17291e-05
-4.73568e-05
-2.31713e-05
-4.60985e-05
-2.46766e-05
-4.44031e-05
-2.52683e-05
-4.23292e-05
-2.57942e-05
-3.90134e-05
-2.74139e-05
-3.67128e-05
-2.97006e-05
-3.57511e-05
-3.35959e-05
-3.18526e-05
-4.05286e-07
-3.81885e-05
-8.45681e-07
-4.13359e-05
-1.23097e-06
-4.1467e-05
-1.66528e-06
-4.17342e-05
-2.24633e-06
-4.1842e-05
-2.77158e-06
-4.20242e-05
-3.2429e-06
-4.21499e-05
-3.69214e-06
-4.22902e-05
-4.14132e-06
-4.22921e-05
-4.60351e-06
-4.22375e-05
-5.30789e-06
-4.24032e-05
-6.30099e-06
-4.30538e-05
-8.30602e-06
-4.36192e-05
-1.08031e-05
-4.40494e-05
-1.34194e-05
-4.44552e-05
-1.67335e-05
-4.4044e-05
-1.96074e-05
-4.32254e-05
-2.20206e-05
-4.19905e-05
-2.38867e-05
-4.04633e-05
-2.52899e-05
-3.76096e-05
-2.76229e-05
-3.43787e-05
-3.05213e-05
-3.28502e-05
-3.17529e-05
-3.23657e-05
-3.45407e-07
-3.7843e-05
-7.34621e-07
-4.09467e-05
-1.20999e-06
-4.09915e-05
-1.8673e-06
-4.10768e-05
-2.59632e-06
-4.11129e-05
-3.41881e-06
-4.12017e-05
-4.24838e-06
-4.13202e-05
-5.11856e-06
-4.14199e-05
-5.89021e-06
-4.15203e-05
-6.35318e-06
-4.17744e-05
-6.73363e-06
-4.20227e-05
-7.58542e-06
-4.22021e-05
-8.95726e-06
-4.22477e-05
-1.06139e-05
-4.23932e-05
-1.28597e-05
-4.22102e-05
-1.56973e-05
-4.12072e-05
-1.83675e-05
-4.05558e-05
-2.05418e-05
-3.98167e-05
-2.24786e-05
-3.85263e-05
-2.39098e-05
-3.61776e-05
-2.54092e-05
-3.28776e-05
-2.71239e-05
-3.11345e-05
-3.03456e-05
-2.8531e-05
-3.40119e-07
-3.75028e-05
-9.01748e-07
-4.03849e-05
-1.57669e-06
-4.03165e-05
-2.2625e-06
-4.03909e-05
-2.9421e-06
-4.04332e-05
-3.6871e-06
-4.04566e-05
-4.48706e-06
-4.05201e-05
-5.35678e-06
-4.05501e-05
-6.2616e-06
-4.06155e-05
-7.13994e-06
-4.08961e-05
-8.15022e-06
-4.10124e-05
-9.3345e-06
-4.10179e-05
-1.06784e-05
-4.0904e-05
-1.21784e-05
-4.08939e-05
-1.39678e-05
-4.04213e-05
-1.56185e-05
-3.95574e-05
-1.74616e-05
-3.87132e-05
-1.94093e-05
-3.78693e-05
-2.14676e-05
-3.64676e-05
-2.33343e-05
-3.43098e-05
-2.49715e-05
-3.12391e-05
-2.61233e-05
-2.99807e-05
-2.95479e-05
-2.69221e-05
-4.95445e-07
-3.70073e-05
-1.03807e-06
-3.98422e-05
-1.55951e-06
-3.9795e-05
-2.10206e-06
-3.98483e-05
-2.68571e-06
-3.98494e-05
-3.32024e-06
-3.98219e-05
-4.04937e-06
-3.97909e-05
-4.86226e-06
-3.97371e-05
-5.71246e-06
-3.97652e-05
-6.83582e-06
-3.97727e-05
-7.98841e-06
-3.98599e-05
-9.14489e-06
-3.98616e-05
-1.05593e-05
-3.94899e-05
-1.22115e-05
-3.92422e-05
-1.3776e-05
-3.88576e-05
-1.50447e-05
-3.82894e-05
-1.63208e-05
-3.74376e-05
-1.7992e-05
-3.6198e-05
-1.96363e-05
-3.48228e-05
-2.09661e-05
-3.29787e-05
-2.17808e-05
-3.04229e-05
-2.26563e-05
-2.91041e-05
-2.85349e-05
-2.36693e-05
-3.90624e-07
-3.66165e-05
-8.93309e-07
-3.93394e-05
-1.42998e-06
-3.92582e-05
-2.02316e-06
-3.9255e-05
-2.64253e-06
-3.92299e-05
-3.25625e-06
-3.92081e-05
-3.87562e-06
-3.91715e-05
-4.49375e-06
-3.9119e-05
-5.22223e-06
-3.90368e-05
-6.05427e-06
-3.89407e-05
-6.99089e-06
-3.89234e-05
-8.12288e-06
-3.87298e-05
-9.16711e-06
-3.8446e-05
-1.04269e-05
-3.79829e-05
-1.18653e-05
-3.74198e-05
-1.34055e-05
-3.67498e-05
-1.50934e-05
-3.575e-05
-1.66979e-05
-3.45933e-05
-1.78818e-05
-3.36382e-05
-1.9153e-05
-3.17062e-05
-1.99057e-05
-2.9669e-05
-2.05178e-05
-2.84903e-05
-2.7481e-05
-2.15724e-05
-5.43649e-07
-3.60728e-05
-1.14733e-06
-3.87356e-05
-1.72919e-06
-3.86762e-05
-2.31471e-06
-3.86694e-05
-2.91502e-06
-3.86295e-05
-3.54607e-06
-3.8577e-05
-4.20288e-06
-3.85146e-05
-4.86699e-06
-3.84549e-05
-5.51857e-06
-3.83852e-05
-6.27897e-06
-3.81804e-05
-7.41203e-06
-3.77904e-05
-8.60037e-06
-3.75416e-05
-9.63402e-06
-3.74127e-05
-1.07017e-05
-3.69157e-05
-1.1826e-05
-3.62962e-05
-1.29995e-05
-3.55769e-05
-1.40568e-05
-3.46928e-05
-1.49699e-05
-3.368e-05
-1.61534e-05
-3.24539e-05
-1.71552e-05
-3.07031e-05
-1.78098e-05
-2.9013e-05
-1.8459e-05
-2.78401e-05
-2.64403e-05
-1.94998e-05
-4.12948e-07
-3.56597e-05
-9.17086e-07
-3.82314e-05
-1.44395e-06
-3.81493e-05
-1.99238e-06
-3.81208e-05
-2.55505e-06
-3.80668e-05
-3.13539e-06
-3.79966e-05
-3.74763e-06
-3.79024e-05
-4.41972e-06
-3.77828e-05
-5.20063e-06
-3.76043e-05
-6.04015e-06
-3.73409e-05
-6.82755e-06
-3.70031e-05
-7.61593e-06
-3.67535e-05
-8.69719e-06
-3.63318e-05
-9.7908e-06
-3.58226e-05
-1.0728e-05
-3.53596e-05
-1.16635e-05
-3.46418e-05
-1.26793e-05
-3.3677e-05
-1.38878e-05
-3.24712e-05
-1.51344e-05
-3.12065e-05
-1.57759e-05
-3.00603e-05
-1.61942e-05
-2.85935e-05
-1.68947e-05
-2.7138e-05
-2.56263e-05
-1.77096e-05
-4.55125e-07
-3.52045e-05
-9.81373e-07
-3.7705e-05
-1.51871e-06
-3.76118e-05
-2.08905e-06
-3.75504e-05
-2.69852e-06
-3.74572e-05
-3.34628e-06
-3.73488e-05
-4.01714e-06
-3.72315e-05
-4.71126e-06
-3.70887e-05
-5.41626e-06
-3.68994e-05
-6.08183e-06
-3.66754e-05
-6.69972e-06
-3.63854e-05
-7.4284e-06
-3.6025e-05
-8.21288e-06
-3.55477e-05
-9.08803e-06
-3.4948e-05
-1.02675e-05
-3.41806e-05
-1.1359e-05
-3.35508e-05
-1.22077e-05
-3.28284e-05
-1.28757e-05
-3.18026e-05
-1.33989e-05
-3.06825e-05
-1.40037e-05
-2.94541e-05
-1.46657e-05
-2.79303e-05
-1.5322e-05
-2.64808e-05
-2.51345e-05
-1.58142e-05
-4.38808e-07
-3.47656e-05
-9.33736e-07
-3.721e-05
-1.41846e-06
-3.7127e-05
-1.89991e-06
-3.70689e-05
-2.37795e-06
-3.69791e-05
-2.87005e-06
-3.68566e-05
-3.40181e-06
-3.66997e-05
-3.98422e-06
-3.65063e-05
-4.62678e-06
-3.62568e-05
-5.37606e-06
-3.59262e-05
-6.22986e-06
-3.55317e-05
-7.14414e-06
-3.5111e-05
-7.9811e-06
-3.4711e-05
-8.74351e-06
-3.4186e-05
-9.30406e-06
-3.36206e-05
-9.88464e-06
-3.29705e-05
-1.0626e-05
-3.2087e-05
-1.14019e-05
-3.10263e-05
-1.22275e-05
-2.98559e-05
-1.29997e-05
-2.86807e-05
-1.33725e-05
-2.75564e-05
-1.36458e-05
-2.62062e-05
-2.4683e-05
-1.40981e-05
-4.28798e-07
-3.43367e-05
-9.22177e-07
-3.67165e-05
-1.42073e-06
-3.66284e-05
-1.94017e-06
-3.65493e-05
-2.48116e-06
-3.64381e-05
-3.03793e-06
-3.62998e-05
-3.60624e-06
-3.61314e-05
-4.18945e-06
-3.59231e-05
-4.77816e-06
-3.56682e-05
-5.33256e-06
-3.53719e-05
-5.83829e-06
-3.50261e-05
-6.36647e-06
-3.4583e-05
-6.99945e-06
-3.40784e-05
-7.67576e-06
-3.35102e-05
-8.45626e-06
-3.28405e-05
-9.36484e-06
-3.20623e-05
-1.01537e-05
-3.12979e-05
-1.07532e-05
-3.04262e-05
-1.1131e-05
-2.94772e-05
-1.14207e-05
-2.83899e-05
-1.18518e-05
-2.71241e-05
-1.22359e-05
-2.58212e-05
-2.44752e-05
-1.24442e-05
-3.79917e-07
-3.39567e-05
-8.06201e-07
-3.62901e-05
-1.22953e-06
-3.62049e-05
-1.66371e-06
-3.61151e-05
-2.11482e-06
-3.59869e-05
-2.59203e-06
-3.58226e-05
-3.10326e-06
-3.56202e-05
-3.64876e-06
-3.53776e-05
-4.22551e-06
-3.50915e-05
-4.84336e-06
-3.47542e-05
-5.5115e-06
-3.43581e-05
-6.18919e-06
-3.39055e-05
-6.84516e-06
-3.34228e-05
-7.46926e-06
-3.28865e-05
-8.02061e-06
-3.22897e-05
-8.45114e-06
-3.16319e-05
-8.88167e-06
-3.08673e-05
-9.34521e-06
-2.99621e-05
-9.88054e-06
-2.89409e-05
-1.03765e-05
-2.78927e-05
-1.06586e-05
-2.6841e-05
-1.08206e-05
-2.56582e-05
-2.43508e-05
-1.09458e-05
-3.78392e-07
-3.35783e-05
-8.05778e-07
-3.58627e-05
-1.23061e-06
-3.578e-05
-1.66626e-06
-3.56793e-05
-2.11131e-06
-3.55418e-05
-2.56568e-06
-3.53682e-05
-3.02992e-06
-3.51559e-05
-3.50501e-06
-3.49025e-05
-3.99121e-06
-3.46053e-05
-4.48475e-06
-3.42607e-05
-4.97714e-06
-3.38659e-05
-5.45815e-06
-3.34247e-05
-5.95026e-06
-3.2931e-05
-6.46488e-06
-3.23723e-05
-7.00614e-06
-3.17487e-05
-7.5838e-06
-3.10545e-05
-8.15229e-06
-3.02986e-05
-8.62172e-06
-2.94921e-05
-8.94661e-06
-2.86152e-05
-9.18666e-06
-2.76514e-05
-9.41205e-06
-2.66146e-05
-9.55209e-06
-2.55173e-05
-2.43346e-05
-9.56881e-06
-3.29198e-07
-3.32489e-05
-6.99312e-07
-3.54925e-05
-1.06826e-06
-3.5411e-05
-1.45054e-06
-3.5297e-05
-1.84929e-06
-3.5143e-05
-2.26779e-06
-3.49497e-05
-2.70648e-06
-3.47172e-05
-3.16219e-06
-3.44468e-05
-3.62913e-06
-3.41385e-05
-4.10196e-06
-3.3788e-05
-4.58198e-06
-3.3386e-05
-5.07619e-06
-3.29307e-05
-5.57116e-06
-3.24363e-05
-6.0457e-06
-3.18981e-05
-6.49146e-06
-3.13035e-05
-6.89593e-06
-3.06501e-05
-7.25903e-06
-2.99353e-05
-7.60103e-06
-2.91495e-05
-7.91699e-06
-2.82984e-05
-8.16768e-06
-2.73996e-05
-8.32008e-06
-2.64612e-05
-8.3728e-06
-2.54636e-05
-2.43873e-05
-8.32087e-06
-3.00052e-07
-3.29489e-05
-6.40244e-07
-3.51522e-05
-9.77717e-07
-3.50735e-05
-1.32696e-06
-3.49477e-05
-1.68748e-06
-3.47824e-05
-2.06065e-06
-3.45765e-05
-2.44785e-06
-3.433e-05
-2.84991e-06
-3.40448e-05
-3.26805e-06
-3.37204e-05
-3.69786e-06
-3.33582e-05
-4.12562e-06
-3.29583e-05
-4.54024e-06
-3.25163e-05
-4.95072e-06
-3.20261e-05
-5.36209e-06
-3.14872e-05
-5.76427e-06
-3.09014e-05
-6.14796e-06
-3.02667e-05
-6.50148e-06
-2.95815e-05
-6.80189e-06
-2.88486e-05
-7.03369e-06
-2.80657e-05
-7.19845e-06
-2.72338e-05
-7.29645e-06
-2.63624e-05
-7.30459e-06
-2.54546e-05
-2.44924e-05
-7.19996e-06
-2.58834e-07
-3.26899e-05
-5.54371e-07
-3.48566e-05
-8.49255e-07
-3.47785e-05
-1.1565e-06
-3.46404e-05
-1.47633e-06
-3.44626e-05
-1.81065e-06
-3.42421e-05
-2.16082e-06
-3.39798e-05
-2.52442e-06
-3.36812e-05
-2.89706e-06
-3.33478e-05
-3.27644e-06
-3.29789e-05
-3.66186e-06
-3.2573e-05
-4.04992e-06
-3.21284e-05
-4.43122e-06
-3.1645e-05
-4.79681e-06
-3.11218e-05
-5.14284e-06
-3.05559e-05
-5.46246e-06
-2.99469e-05
-5.7476e-06
-2.92962e-05
-5.99221e-06
-2.86034e-05
-6.18627e-06
-2.78709e-05
-6.31652e-06
-2.71026e-05
-6.37182e-06
-2.63061e-05
-6.33965e-06
-2.5486e-05
-2.46318e-05
-6.20068e-06
-2.09033e-07
-3.24809e-05
-4.61405e-07
-3.46042e-05
-7.13444e-07
-3.45264e-05
-9.77532e-07
-3.43763e-05
-1.25294e-06
-3.41871e-05
-1.54221e-06
-3.39528e-05
-1.84954e-06
-3.36725e-05
-2.17396e-06
-3.33568e-05
-2.51198e-06
-3.30098e-05
-2.85829e-06
-3.26327e-05
-3.20625e-06
-3.22252e-05
-3.55026e-06
-3.17845e-05
-3.88777e-06
-3.13078e-05
-4.21388e-06
-3.07961e-05
-4.52147e-06
-3.02483e-05
-4.80387e-06
-2.96648e-05
-5.05311e-06
-2.90467e-05
-5.25944e-06
-2.83965e-05
-5.41396e-06
-2.77157e-05
-5.50809e-06
-2.70074e-05
-5.53395e-06
-2.62795e-05
-5.47852e-06
-2.55405e-05
-2.47881e-05
-5.32262e-06
-1.58379e-07
-3.23223e-05
-3.72157e-07
-3.43903e-05
-5.86417e-07
-3.43121e-05
-8.09704e-07
-3.41529e-05
-1.03912e-06
-3.39577e-05
-1.27258e-06
-3.37194e-05
-1.51107e-06
-3.3434e-05
-1.76443e-06
-3.31035e-05
-2.04299e-06
-3.27313e-05
-2.34863e-06
-3.23271e-05
-2.67463e-06
-3.18993e-05
-3.00555e-06
-3.14538e-05
-3.32744e-06
-3.09861e-05
-3.63286e-06
-3.04908e-05
-3.91581e-06
-2.99658e-05
-4.17039e-06
-2.94101e-05
-4.39033e-06
-2.88266e-05
-4.56822e-06
-2.82182e-05
-4.69801e-06
-2.75852e-05
-4.77153e-06
-2.6933e-05
-4.78069e-06
-2.62695e-05
-4.71541e-06
-2.56051e-05
-2.49445e-05
-4.55938e-06
-9.83465e-08
-3.2224e-05
-2.94458e-07
-3.41942e-05
-4.88056e-07
-3.41185e-05
-6.83905e-07
-3.39571e-05
-8.8049e-07
-3.37611e-05
-1.07202e-06
-3.35278e-05
-1.25373e-06
-3.32523e-05
-1.43048e-06
-3.29267e-05
-1.61324e-06
-3.25485e-05
-1.81642e-06
-3.2124e-05
-2.05284e-06
-3.16629e-05
-2.32897e-06
-3.11777e-05
-2.63713e-06
-3.06781e-05
-2.95863e-06
-3.01697e-05
-3.26415e-06
-2.96602e-05
-3.53071e-06
-2.91438e-05
-3.74815e-06
-2.86088e-05
-3.91646e-06
-2.80494e-05
-4.03497e-06
-2.7466e-05
-4.09944e-06
-2.68677e-05
-4.10448e-06
-2.62637e-05
-4.04382e-06
-2.56648e-05