/*--------------------------------*- C++ -*----------------------------------*\
| =========                 |                                                 |
| \\      /  F ield         | OpenFOAM: The Open Source CFD Toolbox           |
|  \\    /   O peration     | Version:  2.4.0                                 |
|   \\  /    A nd           | Web:      www.OpenFOAM.org                      |
|    \\/     M anipulation  |                                                 |
\*---------------------------------------------------------------------------*/
FoamFile
{
    version     2.0;
    format      ascii;
    class       volVectorField;
    location    "0.4";
    object      U.air;
}
// * * * * * * * * * * * * * * * * * * * * * * * * * * * * * * * * * * * * * //

dimensions      [0 1 -1 0 0 0 0];

internalField   nonuniform List<vector> 
2268
(
(0.0189573 -0.00876366 0)
(0.0548171 -0.00888024 0)
(0.0946797 -0.00831123 0)
(0.127214 -0.0101226 0)
(0.173346 -0.00686 0)
(0.19597 -0.010185 0)
(0.247345 -0.00969039 0)
(0.286462 -0.00755562 0)
(0.310532 -0.00673912 0)
(0.339824 -0.0100455 0)
(0.390972 -0.0102734 0)
(0.434759 -0.00826595 0)
(0.458085 -0.00623383 0)
(0.484464 -0.00449831 0)
(0.488361 -0.000218779 0)
(0.494293 0.000707517 0)
(0.488279 0.00329463 0)
(0.470538 0.00508762 0)
(0.434805 0.0150969 0)
(0.368435 0.015356 0)
(0.275609 0.0283505 0)
(0.137768 0.0288154 0)
(0.017802 0.0119862 0)
(0.0189729 -0.0262899 0)
(0.0548024 -0.0267569 0)
(0.0951218 -0.0246005 0)
(0.126634 -0.0313247 0)
(0.173216 -0.0191594 0)
(0.197996 -0.0314759 0)
(0.246543 -0.0298791 0)
(0.285247 -0.0211027 0)
(0.31151 -0.0219977 0)
(0.344511 -0.0271662 0)
(0.394761 -0.0334088 0)
(0.432639 -0.0268999 0)
(0.456678 -0.0173663 0)
(0.480743 -0.00972757 0)
(0.493024 -0.0040821 0)
(0.502367 -0.000381687 0)
(0.501228 0.0112047 0)
(0.48498 0.0266619 0)
(0.441933 0.0378806 0)
(0.38289 0.0624622 0)
(0.250775 0.0758724 0)
(0.174721 0.0879001 0)
(0.0246502 0.0611439 0)
(0.0189472 -0.0439465 0)
(0.0548547 -0.0446582 0)
(0.0951525 -0.0415499 0)
(0.126345 -0.0506495 0)
(0.172725 -0.0353099 0)
(0.201485 -0.0506382 0)
(0.243793 -0.0477958 0)
(0.282612 -0.0372074 0)
(0.313286 -0.0390734 0)
(0.35403 -0.0483347 0)
(0.399207 -0.053454 0)
(0.420779 -0.0390835 0)
(0.451543 -0.0314216 0)
(0.483366 -0.0206384 0)
(0.505978 -0.0119441 0)
(0.52473 -0.00299826 0)
(0.518269 0.00693736 0)
(0.501954 0.0347487 0)
(0.45322 0.0661035 0)
(0.380899 0.103176 0)
(0.26803 0.120485 0)
(0.179034 0.126432 0)
(0.0730416 0.119419 0)
(0.0189162 -0.0616015 0)
(0.0549907 -0.0624029 0)
(0.0949236 -0.0585276 0)
(0.126678 -0.0699692 0)
(0.172188 -0.0509074 0)
(0.203117 -0.0693046 0)
(0.243575 -0.0651516 0)
(0.280763 -0.0531093 0)
(0.312903 -0.058383 0)
(0.36625 -0.0645252 0)
(0.390083 -0.0639111 0)
(0.415525 -0.0543812 0)
(0.45548 -0.0471576 0)
(0.485677 -0.0360327 0)
(0.520344 -0.0225489 0)
(0.546127 0.000303973 0)
(0.540846 0.0312242 0)
(0.517041 0.0626351 0)
(0.4567 0.105701 0)
(0.36517 0.146917 0)
(0.233627 0.171359 0)
(0.127851 0.172674 0)
(0.0368372 0.169413 0)
(0.0189552 -0.0760333 0)
(0.0550664 -0.0767421 0)
(0.0951846 -0.0730211 0)
(0.127208 -0.0840534 0)
(0.171615 -0.0661035 0)
(0.205229 -0.083199 0)
(0.242172 -0.0779539 0)
(0.279956 -0.0642221 0)
(0.322029 -0.0755631 0)
(0.363227 -0.0723518 0)
(0.385553 -0.0713748 0)
(0.422306 -0.0585545 0)
(0.460062 -0.0640489 0)
(0.494455 -0.0525229 0)
(0.533646 -0.0488477 0)
(0.563177 -0.0240409 0)
(0.55805 0.0139744 0)
(0.528415 0.0789613 0)
(0.46825 0.162655 0)
(0.402278 0.218127 0)
(0.25794 0.233193 0)
(0.127692 0.212617 0)
(0.0605059 0.207433 0)
(0.0190614 -0.100562 0)
(0.0550805 -0.101855 0)
(0.09569 -0.0990711 0)
(0.129397 -0.112784 0)
(0.166229 -0.0970374 0)
(0.213388 -0.116791 0)
(0.236386 -0.119175 0)
(0.284116 -0.115701 0)
(0.325418 -0.128941 0)
(0.355566 -0.13644 0)
(0.3835 -0.143648 0)
(0.424106 -0.145458 0)
(0.447933 -0.151105 0)
(0.475915 -0.15063 0)
(0.510094 -0.146567 0)
(0.521452 -0.106978 0)
(0.554008 -0.0470381 0)
(0.532359 0.0373899 0)
(0.468005 0.141291 0)
(0.389903 0.24388 0)
(0.304327 0.286814 0)
(0.148009 0.270877 0)
(0.0368378 0.26751 0)
(0.018551 -0.171372 0)
(0.0534599 -0.172843 0)
(0.0925363 -0.172233 0)
(0.126751 -0.180453 0)
(0.152829 -0.175374 0)
(0.206368 -0.18644 0)
(0.223939 -0.190825 0)
(0.255879 -0.191312 0)
(0.282214 -0.196053 0)
(0.310357 -0.193047 0)
(0.320256 -0.190457 0)
(0.317517 -0.170516 0)
(0.312952 -0.120221 0)
(0.297452 -0.0593215 0)
(0.271513 -0.00754381 0)
(0.243377 0.0497068 0)
(0.318611 0.0613511 0)
(0.394362 0.105786 0)
(0.390812 0.173815 0)
(0.350532 0.257678 0)
(0.303245 0.330524 0)
(0.2111 0.307116 0)
(0.0732311 0.298208 0)
(0.0142893 -0.236213 0)
(0.0425731 -0.235797 0)
(0.069347 -0.234668 0)
(0.0980733 -0.228128 0)
(0.107184 -0.225299 0)
(0.132469 -0.215586 0)
(0.141105 -0.192914 0)
(0.133647 -0.169798 0)
(0.145385 -0.149155 0)
(0.15272 -0.131831 0)
(0.153802 -0.130362 0)
(0.151623 -0.133853 0)
(0.165693 -0.141667 0)
(0.184164 -0.138456 0)
(0.191713 -0.118116 0)
(0.17962 -0.101689 0)
(0.170955 -0.129097 0)
(0.243518 -0.0522031 0)
(0.312176 0.149114 0)
(0.246951 0.257221 0)
(0.264069 0.355249 0)
(0.230178 0.371761 0)
(0.0862578 0.406883 0)
(-0.189848 0.115036 0)
(-0.485272 0.0927179 0)
(-0.792939 0.0561976 0)
(-1.03233 0.000315356 0)
(-1.12594 -0.0525103 0)
(-1.11394 -0.124707 0)
(-0.949365 -0.305154 0)
(-0.651728 -0.460432 0)
(-0.435591 -0.55684 0)
(-0.182515 -0.599272 0)
(0.061039 -0.51037 0)
(0.274806 -0.490144 0)
(0.59283 -0.555751 0)
(0.888469 -0.511445 0)
(1.13629 -0.476442 0)
(1.20775 -0.415967 0)
(1.15405 -0.38661 0)
(0.914284 -0.240646 0)
(0.661031 0.0161748 0)
(-0.146998 0.1732 0)
(-0.430336 0.173124 0)
(-0.735793 0.19481 0)
(-0.903942 0.136506 0)
(-0.95826 0.0551436 0)
(-0.959464 0.0166972 0)
(-0.8647 0.0120386 0)
(-0.769478 0.00389954 0)
(-0.66478 0.0208197 0)
(-0.24492 -0.157444 0)
(0.238572 -0.477014 0)
(0.612187 -0.724861 0)
(0.793721 -0.599987 0)
(1.06496 -0.642577 0)
(1.25024 -0.342473 0)
(1.30727 -0.26209 0)
(1.23556 -0.153736 0)
(1.02117 0.110376 0)
(0.722288 0.58114 0)
(-0.105284 0.309854 0)
(-0.389818 0.316373 0)
(-0.645276 0.310604 0)
(-0.763674 0.112377 0)
(-0.772725 0.0874794 0)
(-0.695571 0.137047 0)
(-0.628604 0.121875 0)
(-0.541193 0.0827127 0)
(-0.527007 -0.0931934 0)
(-0.0536585 -0.49789 0)
(0.320951 -0.706193 0)
(0.667216 -0.761338 0)
(0.955903 -0.910311 0)
(1.12004 -0.798747 0)
(1.27386 -0.631513 0)
(1.28929 -0.402689 0)
(1.23089 -0.307402 0)
(0.917932 0.0699674 0)
(0.582547 0.738945 0)
(-0.0772389 0.452801 0)
(-0.300524 0.395021 0)
(-0.54013 0.353089 0)
(-0.536565 0.2228 0)
(-0.305555 0.356163 0)
(-0.27793 0.271927 0)
(-0.316842 0.242108 0)
(-0.235439 0.335055 0)
(-0.329539 0.316849 0)
(0.11056 -0.254186 0)
(0.54738 -0.655883 0)
(0.800329 -0.836678 0)
(1.0587 -0.858163 0)
(1.21116 -0.798587 0)
(1.31093 -0.590088 0)
(1.23083 -0.409859 0)
(1.03456 -0.0304581 0)
(0.486318 0.434773 0)
(0.165049 1.06537 0)
(-0.0401329 0.499684 0)
(-0.186862 0.463287 0)
(-0.291612 0.460163 0)
(-0.0306321 0.387705 0)
(0.0304256 0.151374 0)
(0.0373787 -0.0456458 0)
(0.162776 -0.0944347 0)
(0.114081 -0.128707 0)
(0.048665 -0.0809767 0)
(0.00687314 -0.0332493 0)
(0.336164 -0.312296 0)
(0.783893 -0.7973 0)
(1.08411 -0.93535 0)
(1.20796 -0.730645 0)
(1.3025 -0.494402 0)
(1.17197 -0.0470862 0)
(0.656541 0.42301 0)
(0.115377 0.89183 0)
(-0.0154561 1.25183 0)
(0.00174601 0.536922 0)
(0.0165842 0.476685 0)
(0.147822 0.439266 0)
(0.521503 0.182959 0)
(0.222313 -0.0032687 0)
(0.264107 0.13755 0)
(0.442835 0.1556 0)
(-0.0837805 0.300912 0)
(-0.598364 0.465285 0)
(0.283085 -0.320272 0)
(0.38331 -0.23101 0)
(0.841526 -0.574993 0)
(1.17024 -0.812616 0)
(1.3509 -0.035884 0)
(1.21929 -0.143936 0)
(0.991749 0.238993 0)
(0.334368 0.70504 0)
(-0.136701 1.33017 0)
(-0.0724645 1.55945 0)
(0.0527174 0.494924 0)
(0.195476 0.501606 0)
(0.467533 0.372697 0)
(0.723101 0.0230701 0)
(0.47793 -0.0846251 0)
(0.149982 -0.405552 0)
(-0.0143347 -0.319973 0)
(0.39445 -0.328431 0)
(-0.156501 -0.801287 0)
(0.403108 -0.509047 0)
(0.577464 -0.525616 0)
(0.938083 -0.582023 0)
(1.34197 -0.396734 0)
(1.44624 0.236666 0)
(0.926431 0.610655 0)
(0.364546 1.0819 0)
(-0.0245696 0.915972 0)
(-0.190702 1.50631 0)
(-0.054855 1.56391 0)
(0.168578 0.404748 0)
(0.320935 0.482975 0)
(0.648075 0.235304 0)
(0.864811 -0.182035 0)
(0.613532 0.00117727 0)
(0.594254 0.12821 0)
(0.72905 0.00458935 0)
(1.15165 0.0193261 0)
(1.07164 -0.255104 0)
(1.02003 -0.558468 0)
(0.999065 -0.606066 0)
(1.10568 -0.623661 0)
(1.62327 -0.367778 0)
(1.50523 0.224099 0)
(0.12907 0.529813 0)
(-0.142668 1.08884 0)
(-0.217887 1.04719 0)
(-0.204686 1.51227 0)
(-0.0742736 1.45708 0)
(0.00687397 -0.238599 0)
(0.0215644 -0.239304 0)
(0.0344303 -0.239495 0)
(0.0521062 -0.237931 0)
(0.0610611 -0.240445 0)
(0.0829029 -0.243793 0)
(0.100077 -0.233609 0)
(0.121036 -0.233754 0)
(0.158626 -0.2208 0)
(0.184528 -0.189991 0)
(0.214548 -0.15463 0)
(0.248019 -0.111739 0)
(0.282383 -0.0640116 0)
(0.303569 -0.0199823 0)
(0.311348 0.0459793 0)
(0.302135 0.0956311 0)
(0.266567 0.218987 0)
(0.130447 0.253475 0)
(0.198314 0.198059 0)
(0.189388 0.25776 0)
(0.172719 0.323973 0)
(0.241059 0.362046 0)
(0.363623 0.413793 0)
(0.00924945 -0.166 0)
(0.0278553 -0.16543 0)
(0.0468808 -0.160942 0)
(0.0671703 -0.152824 0)
(0.0869866 -0.147165 0)
(0.108069 -0.144059 0)
(0.130075 -0.122655 0)
(0.148216 -0.130464 0)
(0.178347 -0.127514 0)
(0.195864 -0.117836 0)
(0.221015 -0.112015 0)
(0.24564 -0.11962 0)
(0.245464 -0.119806 0)
(0.252179 -0.116562 0)
(0.246735 -0.100165 0)
(0.256418 -0.0882207 0)
(0.261579 -0.04094 0)
(0.29377 0.050718 0)
(0.272526 0.150015 0)
(0.283464 0.255471 0)
(0.195517 0.249706 0)
(0.221135 0.277051 0)
(0.2668 0.329831 0)
(0.0108866 -0.161524 0)
(0.0323846 -0.163375 0)
(0.0538069 -0.163068 0)
(0.0748522 -0.163282 0)
(0.0957361 -0.163686 0)
(0.111413 -0.174436 0)
(0.135838 -0.167794 0)
(0.151527 -0.191665 0)
(0.185492 -0.193218 0)
(0.208599 -0.194996 0)
(0.254056 -0.190913 0)
(0.294383 -0.171868 0)
(0.326467 -0.12957 0)
(0.363303 -0.0961147 0)
(0.37332 -0.0144689 0)
(0.39465 0.0462316 0)
(0.366161 0.130281 0)
(0.382618 0.169632 0)
(0.362816 0.238819 0)
(0.422134 0.30534 0)
(0.391561 0.358768 0)
(0.335427 0.226731 0)
(0.317361 0.203982 0)
(0.0118398 -0.175111 0)
(0.0357546 -0.176402 0)
(0.0586558 -0.177129 0)
(0.0792732 -0.1786 0)
(0.100682 -0.18136 0)
(0.113096 -0.190905 0)
(0.13444 -0.1947 0)
(0.149469 -0.218753 0)
(0.178936 -0.216778 0)
(0.21205 -0.228051 0)
(0.270949 -0.217846 0)
(0.307822 -0.192341 0)
(0.344096 -0.150149 0)
(0.351856 -0.126041 0)
(0.366336 -0.0743996 0)
(0.394303 -0.0430336 0)
(0.421956 0.0213439 0)
(0.45733 0.0944428 0)
(0.467402 0.168965 0)
(0.534671 0.250698 0)
(0.572267 0.341077 0)
(0.62065 0.333428 0)
(0.551253 0.257423 0)
(0.0121494 -0.0240777 0)
(0.0360879 -0.0256233 0)
(0.0586019 -0.0262259 0)
(0.0776075 -0.0290692 0)
(0.0962688 -0.0350065 0)
(0.104484 -0.0498372 0)
(0.121247 -0.0726223 0)
(0.130615 -0.123147 0)
(0.168568 -0.174354 0)
(0.215244 -0.204196 0)
(0.275993 -0.216515 0)
(0.309273 -0.20596 0)
(0.344387 -0.18411 0)
(0.367269 -0.157345 0)
(0.393712 -0.0896628 0)
(0.431994 -0.0299547 0)
(0.432115 0.0262484 0)
(0.478096 0.102537 0)
(0.49604 0.141867 0)
(0.572802 0.195814 0)
(0.634681 0.231369 0)
(0.742718 0.273725 0)
(0.793522 0.258066 0)
(0.0135569 0.106794 0)
(0.0371587 0.109232 0)
(0.05798 0.118342 0)
(0.0717287 0.131781 0)
(0.0751925 0.152145 0)
(0.0521586 0.173489 0)
(0.0123488 0.167188 0)
(0.0198134 0.0672003 0)
(0.131344 -0.0225933 0)
(0.225917 -0.0214786 0)
(0.250647 -0.00740296 0)
(0.236621 -0.0756973 0)
(0.225107 -0.113791 0)
(0.19311 -0.118746 0)
(0.181846 -0.0953826 0)
(0.187236 -0.0635504 0)
(0.212578 0.0191455 0)
(0.315836 0.100163 0)
(0.365325 0.111994 0)
(0.494869 0.138867 0)
(0.595261 0.189326 0)
(0.669475 0.174875 0)
(0.778832 0.167286 0)
(0.0170579 -0.206329 0)
(0.0451896 -0.202166 0)
(0.0724226 -0.19112 0)
(0.0980275 -0.172651 0)
(0.120936 -0.142675 0)
(0.127518 -0.103615 0)
(0.0693061 -0.0614031 0)
(-0.0190325 0.025541 0)
(-0.0213014 0.0816344 0)
(-0.0411713 0.0731795 0)
(-0.103163 0.138195 0)
(-0.225277 0.191809 0)
(-0.287763 0.236652 0)
(-0.293628 0.229635 0)
(-0.264624 0.212398 0)
(-0.217375 0.165252 0)
(-0.157289 0.194315 0)
(-0.0879532 0.205413 0)
(0.0447512 0.130205 0)
(0.151041 0.116772 0)
(0.366891 0.14342 0)
(0.44421 0.122736 0)
(0.567429 0.105822 0)
(0.0050715 0.65015 0)
(0.0158925 0.665166 0)
(0.0345234 0.680398 0)
(0.0563299 0.707609 0)
(0.0877177 0.750947 0)
(0.122408 0.85705 0)
(0.0435019 0.935378 0)
(0.0537698 0.168137 0)
(-0.197932 -0.151246 0)
(-0.468742 -0.116192 0)
(-0.464195 -0.0452561 0)
(-0.431293 0.00454199 0)
(-0.395005 0.0358513 0)
(-0.329318 0.0994146 0)
(-0.302022 0.163766 0)
(-0.271955 0.236652 0)
(-0.257129 0.289751 0)
(-0.234013 0.259358 0)
(-0.159499 0.243367 0)
(-0.138099 0.18303 0)
(-0.019851 0.162632 0)
(0.153583 0.17823 0)
(0.350816 0.190929 0)
(-0.0183695 -0.908404 0)
(-0.0480078 -0.919429 0)
(-0.0589336 -0.930025 0)
(-0.0581531 -0.942503 0)
(-0.0170863 -0.952903 0)
(0.0925735 -0.960092 0)
(0.297525 -0.870818 0)
(0.611896 0.0488256 0)
(0.146139 0.938304 0)
(-0.289392 0.477942 0)
(-0.315181 0.246324 0)
(-0.332964 0.326474 0)
(-0.306113 0.250603 0)
(-0.235062 0.0739735 0)
(-0.18179 -0.0444658 0)
(-0.128443 -0.115453 0)
(-0.121162 -0.147824 0)
(-0.127113 -0.10534 0)
(-0.111603 -0.0389945 0)
(-0.0759791 -0.0164883 0)
(-0.0356019 0.173156 0)
(0.0796456 0.18135 0)
(0.185816 0.170434 0)
(-0.0385002 0.0851075 0)
(-0.102648 0.0697061 0)
(-0.148667 0.0491344 0)
(-0.181458 0.0137794 0)
(-0.198043 -0.0364383 0)
(-0.212749 -0.118113 0)
(-0.296472 -0.185413 0)
(-0.231704 -0.0864214 0)
(0.0435468 0.00161925 0)
(0.29907 -0.415245 0)
(0.174523 -0.503807 0)
(0.235236 -0.555019 0)
(0.306329 -0.49638 0)
(0.38135 -0.305541 0)
(0.444755 -0.111571 0)
(0.539015 0.0938873 0)
(0.508979 0.531112 0)
(0.253998 0.856381 0)
(0.164477 0.57435 0)
(0.110653 0.391148 0)
(0.132048 -0.13101 0)
(0.178242 -0.216376 0)
(0.180016 -0.213745 0)
(-0.0111805 -0.311852 0)
(-0.0278943 -0.344984 0)
(-0.0382189 -0.37189 0)
(-0.0447597 -0.399841 0)
(-0.0474291 -0.411788 0)
(-0.052028 -0.392636 0)
(-0.106143 -0.326191 0)
(-0.0816897 -0.0685237 0)
(0.0811672 0.238686 0)
(0.0133404 0.379102 0)
(-0.0999252 -0.0380323 0)
(-0.0158134 -0.238775 0)
(0.0368181 -0.322436 0)
(0.0948309 -0.394648 0)
(0.12994 -0.444543 0)
(0.149449 -0.50182 0)
(0.283275 -0.564938 0)
(0.518587 -0.700133 0)
(0.781658 -0.646209 0)
(0.890792 -0.535149 0)
(0.980889 -0.128478 0)
(0.982868 0.244372 0)
(0.841963 0.39494 0)
(-0.00426045 -0.178857 0)
(-0.00918586 -0.215214 0)
(-0.0150717 -0.253518 0)
(-0.0263297 -0.297059 0)
(-0.0465748 -0.339138 0)
(-0.0752482 -0.370017 0)
(-0.118018 -0.383505 0)
(-0.140663 -0.315352 0)
(-0.0366711 -0.141665 0)
(0.125434 -0.0568445 0)
(0.264245 -0.260649 0)
(0.218999 -0.397105 0)
(0.200338 -0.375908 0)
(0.213171 -0.328085 0)
(0.25949 -0.238322 0)
(0.302443 -0.103089 0)
(0.33191 0.0498562 0)
(0.300841 0.0524163 0)
(0.243345 -0.0913803 0)
(0.166707 -0.260843 0)
(0.107223 -0.456063 0)
(0.202168 -0.539728 0)
(0.406254 -0.603142 0)
(-0.000924738 -0.128298 0)
(0.000930277 -0.167407 0)
(0.000110411 -0.196956 0)
(-0.00734761 -0.226354 0)
(-0.0214988 -0.247788 0)
(-0.0426094 -0.253347 0)
(-0.0751531 -0.236849 0)
(-0.0831051 -0.183796 0)
(-0.0843114 -0.0919539 0)
(0.0661221 -0.0510551 0)
(0.124747 -0.252659 0)
(0.139298 -0.365424 0)
(0.125608 -0.418084 0)
(0.116182 -0.440532 0)
(0.12232 -0.449747 0)
(0.143222 -0.438782 0)
(0.213802 -0.395679 0)
(0.285258 -0.350576 0)
(0.325656 -0.24915 0)
(0.297705 -0.161147 0)
(0.21556 -0.107142 0)
(0.132115 -0.111143 0)
(0.0610789 -0.115938 0)
(0.00683885 -0.21349 0)
(0.0180314 -0.242111 0)
(0.0214788 -0.258473 0)
(0.0160848 -0.27511 0)
(0.00270922 -0.286421 0)
(-0.0162064 -0.287025 0)
(-0.0378786 -0.276854 0)
(-0.0417242 -0.247157 0)
(-0.0354815 -0.219638 0)
(0.0354125 -0.18935 0)
(0.0721033 -0.260638 0)
(0.0502409 -0.317184 0)
(0.0308131 -0.345419 0)
(0.00206315 -0.353108 0)
(-0.0138902 -0.335006 0)
(-0.0330356 -0.291664 0)
(-0.0430953 -0.248959 0)
(-0.0461953 -0.239881 0)
(-0.0413974 -0.249099 0)
(-0.0287139 -0.250589 0)
(-0.0110821 -0.249612 0)
(-0.0274798 -0.266223 0)
(-0.0331427 -0.248494 0)
(0.00569182 -0.189336 0)
(0.0152376 -0.21883 0)
(0.0192928 -0.233206 0)
(0.0153681 -0.24516 0)
(0.00390666 -0.252559 0)
(-0.0131333 -0.252676 0)
(-0.0291718 -0.248258 0)
(-0.0358011 -0.238928 0)
(-0.0335452 -0.233331 0)
(0.00237388 -0.227142 0)
(0.0228769 -0.289349 0)
(-0.00738154 -0.329496 0)
(-0.0410041 -0.357324 0)
(-0.0759014 -0.369352 0)
(-0.106229 -0.36114 0)
(-0.130091 -0.323871 0)
(-0.139816 -0.282379 0)
(-0.148609 -0.247498 0)
(-0.160546 -0.208582 0)
(-0.161527 -0.184181 0)
(-0.158449 -0.166048 0)
(-0.157224 -0.193001 0)
(-0.14731 -0.222651 0)
(0.00346705 -0.205803 0)
(0.00821863 -0.229235 0)
(0.00893872 -0.234384 0)
(0.00336237 -0.238321 0)
(-0.00502117 -0.238798 0)
(-0.0144201 -0.237895 0)
(-0.0226391 -0.234668 0)
(-0.0274737 -0.229183 0)
(-0.029047 -0.228292 0)
(-0.0176908 -0.227142 0)
(-0.0208703 -0.256356 0)
(-0.0450253 -0.275431 0)
(-0.0760514 -0.298221 0)
(-0.107731 -0.316465 0)
(-0.139769 -0.315815 0)
(-0.161815 -0.293142 0)
(-0.173168 -0.266753 0)
(-0.179255 -0.248994 0)
(-0.182063 -0.224394 0)
(-0.172848 -0.21018 0)
(-0.165611 -0.205117 0)
(-0.161654 -0.197949 0)
(-0.167296 -0.169852 0)
(0.00148828 -0.209551 0)
(0.000723257 -0.230681 0)
(-0.00258293 -0.232526 0)
(-0.00805422 -0.233656 0)
(-0.0130096 -0.234226 0)
(-0.0179993 -0.233756 0)
(-0.0220585 -0.232252 0)
(-0.0234394 -0.231472 0)
(-0.0249655 -0.234014 0)
(-0.0215884 -0.234058 0)
(-0.0289849 -0.243453 0)
(-0.0483682 -0.254461 0)
(-0.0709928 -0.273124 0)
(-0.102557 -0.294317 0)
(-0.139229 -0.298155 0)
(-0.162229 -0.28555 0)
(-0.174283 -0.264927 0)
(-0.178262 -0.253395 0)
(-0.174752 -0.23568 0)
(-0.168808 -0.221169 0)
(-0.171148 -0.218203 0)
(-0.17711 -0.221167 0)
(-0.178358 -0.213858 0)
(0.000369226 -0.209828 0)
(-0.00280194 -0.228021 0)
(-0.0063224 -0.227914 0)
(-0.00959661 -0.229376 0)
(-0.013181 -0.230881 0)
(-0.0157758 -0.230701 0)
(-0.0173543 -0.230722 0)
(-0.0183824 -0.23111 0)
(-0.0193278 -0.232111 0)
(-0.0215217 -0.230072 0)
(-0.0251114 -0.233569 0)
(-0.0340188 -0.23858 0)
(-0.0441591 -0.249548 0)
(-0.0641464 -0.255668 0)
(-0.0926238 -0.258804 0)
(-0.113012 -0.258721 0)
(-0.121894 -0.250741 0)
(-0.12886 -0.244339 0)
(-0.134141 -0.230687 0)
(-0.136153 -0.209127 0)
(-0.141238 -0.19976 0)
(-0.153391 -0.195403 0)
(-0.166666 -0.179683 0)
(-0.00106569 -0.206979 0)
(-0.00334886 -0.223594 0)
(-0.00570353 -0.22429 0)
(-0.00744087 -0.225929 0)
(-0.0103571 -0.227521 0)
(-0.0133863 -0.229172 0)
(-0.0160759 -0.230132 0)
(-0.0185324 -0.231078 0)
(-0.0206888 -0.230417 0)
(-0.022771 -0.229746 0)
(-0.0270322 -0.231385 0)
(-0.0305629 -0.236661 0)
(-0.0375667 -0.241849 0)
(-0.0507239 -0.24316 0)
(-0.0665495 -0.24569 0)
(-0.0794 -0.247407 0)
(-0.0989044 -0.241575 0)
(-0.114415 -0.230507 0)
(-0.123464 -0.221472 0)
(-0.131228 -0.205937 0)
(-0.141517 -0.189627 0)
(-0.156771 -0.183149 0)
(-0.170827 -0.175507 0)
(-0.000701791 -0.204241 0)
(-0.00304132 -0.221485 0)
(-0.00479328 -0.222317 0)
(-0.00820612 -0.223703 0)
(-0.0116271 -0.224314 0)
(-0.0159688 -0.2252 0)
(-0.0203766 -0.225506 0)
(-0.024837 -0.225892 0)
(-0.0293472 -0.226879 0)
(-0.0333557 -0.227281 0)
(-0.0351557 -0.227535 0)
(-0.0375992 -0.22943 0)
(-0.0444073 -0.231649 0)
(-0.0515078 -0.235383 0)
(-0.0635256 -0.236676 0)
(-0.0752271 -0.230461 0)
(-0.0926866 -0.228532 0)
(-0.106048 -0.225312 0)
(-0.115741 -0.217894 0)
(-0.125299 -0.203879 0)
(-0.132413 -0.185633 0)
(-0.140884 -0.175466 0)
(-0.15045 -0.171544 0)
(-0.000655131 -0.20318 0)
(-0.00292685 -0.219121 0)
(-0.00677637 -0.218773 0)
(-0.0102079 -0.218708 0)
(-0.0138183 -0.219308 0)
(-0.0175969 -0.219874 0)
(-0.0216533 -0.220728 0)
(-0.0260355 -0.221075 0)
(-0.030877 -0.2208 0)
(-0.036122 -0.222042 0)
(-0.0408808 -0.223281 0)
(-0.0467358 -0.22374 0)
(-0.0537138 -0.223859 0)
(-0.061565 -0.223146 0)
(-0.070016 -0.220278 0)
(-0.0793898 -0.215781 0)
(-0.0890503 -0.210426 0)
(-0.0989885 -0.205917 0)
(-0.110324 -0.19911 0)
(-0.12129 -0.186497 0)
(-0.130425 -0.168326 0)
(-0.138807 -0.160375 0)
(-0.142817 -0.156713 0)
(-0.00118835 -0.200447 0)
(-0.00417204 -0.215865 0)
(-0.00694845 -0.215539 0)
(-0.00967999 -0.216272 0)
(-0.0127171 -0.216291 0)
(-0.0158708 -0.215872 0)
(-0.0194959 -0.215663 0)
(-0.0235472 -0.215478 0)
(-0.0282213 -0.216175 0)
(-0.0332556 -0.217426 0)
(-0.0406617 -0.217971 0)
(-0.0456101 -0.218685 0)
(-0.0520528 -0.216517 0)
(-0.0615978 -0.216292 0)
(-0.0700685 -0.214088 0)
(-0.0781557 -0.210553 0)
(-0.0839325 -0.206839 0)
(-0.0912701 -0.202629 0)
(-0.101736 -0.19505 0)
(-0.110687 -0.184622 0)
(-0.115 -0.16942 0)
(-0.120055 -0.163408 0)
(-0.123733 -0.16084 0)
(-0.000879491 -0.198794 0)
(-0.00333917 -0.213675 0)
(-0.00615176 -0.213277 0)
(-0.00918224 -0.213259 0)
(-0.012427 -0.213288 0)
(-0.0157622 -0.213493 0)
(-0.0189954 -0.213454 0)
(-0.0222954 -0.213226 0)
(-0.0258506 -0.212675 0)
(-0.0306407 -0.212299 0)
(-0.0346897 -0.212956 0)
(-0.0402729 -0.211873 0)
(-0.0466334 -0.210338 0)
(-0.0523416 -0.208673 0)
(-0.0593686 -0.20601 0)
(-0.0679454 -0.202885 0)
(-0.0764057 -0.19748 0)
(-0.0862977 -0.188537 0)
(-0.0943546 -0.181718 0)
(-0.0984838 -0.172077 0)
(-0.107496 -0.160374 0)
(-0.108297 -0.152661 0)
(-0.112696 -0.149568 0)
(-0.00133033 -0.195272 0)
(-0.0045415 -0.209884 0)
(-0.00772218 -0.209668 0)
(-0.0108101 -0.209794 0)
(-0.0139778 -0.2097 0)
(-0.0172263 -0.209473 0)
(-0.0206928 -0.209232 0)
(-0.0243384 -0.208879 0)
(-0.0281161 -0.208329 0)
(-0.031376 -0.206947 0)
(-0.0360603 -0.205641 0)
(-0.0432254 -0.204949 0)
(-0.0492999 -0.204043 0)
(-0.0545217 -0.200808 0)
(-0.0601802 -0.197724 0)
(-0.0667992 -0.193583 0)
(-0.0728194 -0.188382 0)
(-0.0786265 -0.185165 0)
(-0.0835299 -0.181556 0)
(-0.0900044 -0.170405 0)
(-0.0947024 -0.15896 0)
(-0.0980341 -0.152994 0)
(-0.101558 -0.146478 0)
(-0.00100327 -0.193857 0)
(-0.00346408 -0.207957 0)
(-0.00633157 -0.207526 0)
(-0.00918362 -0.207409 0)
(-0.0121698 -0.207156 0)
(-0.0152263 -0.206799 0)
(-0.0184184 -0.206279 0)
(-0.0218633 -0.205694 0)
(-0.0256614 -0.205093 0)
(-0.0301799 -0.204318 0)
(-0.0349618 -0.202669 0)
(-0.0385 -0.201271 0)
(-0.0431317 -0.199705 0)
(-0.0499157 -0.196911 0)
(-0.055699 -0.194532 0)
(-0.0594132 -0.190787 0)
(-0.0657281 -0.185953 0)
(-0.0712732 -0.179014 0)
(-0.0785395 -0.169332 0)
(-0.0835675 -0.161945 0)
(-0.0861825 -0.156154 0)
(-0.0890954 -0.149529 0)
(-0.0932681 -0.139748 0)
(-0.0011153 -0.190541 0)
(-0.00380326 -0.204171 0)
(-0.0066951 -0.203705 0)
(-0.00962494 -0.203466 0)
(-0.0127744 -0.203088 0)
(-0.016192 -0.202691 0)
(-0.0197621 -0.202257 0)
(-0.0234056 -0.201677 0)
(-0.027213 -0.200758 0)
(-0.0310876 -0.19922 0)
(-0.0342435 -0.197162 0)
(-0.0377446 -0.19566 0)
(-0.0421969 -0.192885 0)
(-0.0459889 -0.190517 0)
(-0.0513013 -0.186746 0)
(-0.0587456 -0.182501 0)
(-0.0636824 -0.177937 0)
(-0.0677781 -0.172062 0)
(-0.0707555 -0.168209 0)
(-0.0733974 -0.163216 0)
(-0.0765211 -0.152662 0)
(-0.0817817 -0.143318 0)
(-0.0838671 -0.137699 0)
(-0.00109703 -0.189064 0)
(-0.00364484 -0.202454 0)
(-0.00634578 -0.201992 0)
(-0.00891159 -0.201697 0)
(-0.011495 -0.201208 0)
(-0.0140518 -0.200509 0)
(-0.0167831 -0.199655 0)
(-0.0198161 -0.19868 0)
(-0.0230753 -0.197488 0)
(-0.0265942 -0.196129 0)
(-0.0309499 -0.19461 0)
(-0.0361078 -0.192228 0)
(-0.0405699 -0.189879 0)
(-0.045071 -0.186374 0)
(-0.0488554 -0.183183 0)
(-0.0512597 -0.180789 0)
(-0.0548333 -0.176742 0)
(-0.0594314 -0.171385 0)
(-0.0628951 -0.162941 0)
(-0.0685357 -0.154658 0)
(-0.0712761 -0.149953 0)
(-0.0725629 -0.143504 0)
(-0.0748483 -0.134146 0)
(-0.00106948 -0.185914 0)
(-0.0035693 -0.198884 0)
(-0.00629408 -0.198421 0)
(-0.00899257 -0.198048 0)
(-0.0118459 -0.197525 0)
(-0.014809 -0.196885 0)
(-0.0178417 -0.196076 0)
(-0.0209343 -0.194995 0)
(-0.0240746 -0.193592 0)
(-0.0272029 -0.191808 0)
(-0.030099 -0.189598 0)
(-0.0325618 -0.187516 0)
(-0.0357476 -0.185344 0)
(-0.0393103 -0.182743 0)
(-0.0430749 -0.179158 0)
(-0.0476627 -0.174156 0)
(-0.0528849 -0.169343 0)
(-0.0564255 -0.164065 0)
(-0.0591479 -0.160269 0)
(-0.0601091 -0.155801 0)
(-0.0622343 -0.147775 0)
(-0.0653928 -0.139965 0)
(-0.0666656 -0.132881 0)
(-0.000980479 -0.18461 0)
(-0.00312779 -0.197345 0)
(-0.00548854 -0.196878 0)
(-0.00774826 -0.196428 0)
(-0.0101238 -0.19578 0)
(-0.0126056 -0.194951 0)
(-0.0152552 -0.193948 0)
(-0.0180896 -0.192775 0)
(-0.0210939 -0.191417 0)
(-0.0242544 -0.18986 0)
(-0.027674 -0.188006 0)
(-0.031415 -0.185347 0)
(-0.0349953 -0.182424 0)
(-0.0384473 -0.179399 0)
(-0.041714 -0.176149 0)
(-0.0443609 -0.172968 0)
(-0.0463591 -0.169275 0)
(-0.0488169 -0.164274 0)
(-0.0515306 -0.157626 0)
(-0.0545504 -0.151067 0)
(-0.0566115 -0.145711 0)
(-0.0578956 -0.139306 0)
(-0.0587944 -0.131765 0)
(-0.00095892 -0.181677 0)
(-0.00313132 -0.194106 0)
(-0.00548185 -0.193654 0)
(-0.00776262 -0.193126 0)
(-0.0101331 -0.192393 0)
(-0.0125479 -0.191456 0)
(-0.0150081 -0.190297 0)
(-0.0175161 -0.188903 0)
(-0.020085 -0.187258 0)
(-0.0227302 -0.185348 0)
(-0.0253972 -0.183222 0)
(-0.027951 -0.181139 0)
(-0.0305398 -0.17871 0)
(-0.0332537 -0.175712 0)
(-0.0360626 -0.172346 0)
(-0.0390694 -0.168411 0)
(-0.0422836 -0.16403 0)
(-0.0451866 -0.159704 0)
(-0.0472669 -0.155395 0)
(-0.0485888 -0.150393 0)
(-0.0498558 -0.144386 0)
(-0.0512092 -0.138109 0)
(-0.051669 -0.131449 0)
(-0.000871532 -0.180652 0)
(-0.00269632 -0.192908 0)
(-0.00476601 -0.19248 0)
(-0.00673763 -0.191936 0)
(-0.00883322 -0.19119 0)
(-0.0110183 -0.190248 0)
(-0.0133143 -0.189107 0)
(-0.0157149 -0.187756 0)
(-0.0181984 -0.186174 0)
(-0.0207104 -0.184292 0)
(-0.0232368 -0.182029 0)
(-0.0258549 -0.179363 0)
(-0.0285497 -0.176603 0)
(-0.0311638 -0.17372 0)
(-0.0336411 -0.170479 0)
(-0.035929 -0.166944 0)
(-0.0379642 -0.163091 0)
(-0.0398379 -0.158635 0)
(-0.0416619 -0.153647 0)
(-0.0432034 -0.148475 0)
(-0.0442548 -0.143287 0)
(-0.0449846 -0.137678 0)
(-0.0450983 -0.13151 0)
(-0.000780213 -0.178191 0)
(-0.00246742 -0.190136 0)
(-0.00436194 -0.189693 0)
(-0.00616273 -0.189016 0)
(-0.00806907 -0.188121 0)
(-0.0100314 -0.187008 0)
(-0.0120657 -0.185682 0)
(-0.0141773 -0.18416 0)
(-0.0163684 -0.182457 0)
(-0.0186465 -0.18061 0)
(-0.0209642 -0.178606 0)
(-0.0232211 -0.176378 0)
(-0.0254157 -0.173787 0)
(-0.0276225 -0.170851 0)
(-0.0298156 -0.167666 0)
(-0.0319307 -0.164189 0)
(-0.0339299 -0.1604 0)
(-0.0357171 -0.1564 0)
(-0.0371573 -0.152137 0)
(-0.0381961 -0.14753 0)
(-0.0388782 -0.142602 0)
(-0.0393227 -0.137443 0)
(-0.0391746 -0.131921 0)
(-0.000693725 -0.177254 0)
(-0.00211591 -0.189096 0)
(-0.00378809 -0.188687 0)
(-0.00535371 -0.187997 0)
(-0.00703847 -0.187096 0)
(-0.00878582 -0.18597 0)
(-0.0106184 -0.184617 0)
(-0.0125321 -0.18305 0)
(-0.0145059 -0.18126 0)
(-0.0165192 -0.179236 0)
(-0.0185663 -0.176977 0)
(-0.0206457 -0.1745 0)
(-0.0227206 -0.171852 0)
(-0.0247264 -0.169011 0)
(-0.0266351 -0.165914 0)
(-0.0284268 -0.162566 0)
(-0.030054 -0.158972 0)
(-0.0314849 -0.155098 0)
(-0.0326874 -0.15097 0)
(-0.0335642 -0.146639 0)
(-0.0340394 -0.142153 0)
(-0.0341999 -0.137491 0)
(-0.0338522 -0.13256 0)
(-0.000544551 -0.175629 0)
(-0.00172612 -0.187182 0)
(-0.00317977 -0.186759 0)
(-0.00450579 -0.18597 0)
(-0.00595815 -0.184967 0)
(-0.00746546 -0.183735 0)
(-0.00905866 -0.182287 0)
(-0.0107489 -0.180658 0)
(-0.0125242 -0.178859 0)
(-0.0143627 -0.176893 0)
(-0.0162301 -0.174746 0)
(-0.0180875 -0.172395 0)
(-0.0199136 -0.16982 0)
(-0.021696 -0.167023 0)
(-0.0234004 -0.16402 0)
(-0.0249869 -0.16081 0)
(-0.02642 -0.157396 0)
(-0.0276536 -0.153794 0)
(-0.0286381 -0.150003 0)
(-0.0293131 -0.146029 0)
(-0.0296207 -0.141912 0)
(-0.0296059 -0.1377 0)
(-0.0291407 -0.133343 0)
(-0.000385177 -0.174864 0)
(-0.00133678 -0.186204 0)
(-0.00261312 -0.185786 0)
(-0.00371484 -0.184947 0)
(-0.00494223 -0.183908 0)
(-0.00619219 -0.182627 0)
(-0.00743888 -0.181063 0)
(-0.00873446 -0.179297 0)
(-0.0101465 -0.17737 0)
(-0.0117108 -0.175286 0)
(-0.0134183 -0.173073 0)
(-0.0152027 -0.170718 0)
(-0.016951 -0.168174 0)
(-0.0186385 -0.165442 0)
(-0.0202206 -0.162522 0)
(-0.0216648 -0.159425 0)
(-0.0229407 -0.156173 0)
(-0.024014 -0.152768 0)
(-0.0248522 -0.149217 0)
(-0.0254086 -0.145547 0)
(-0.0256231 -0.141793 0)
(-0.0255112 -0.138003 0)
(-0.025005 -0.134171 0)
(-0.00013507 -0.173978 0)
(-0.000944896 -0.184941 0)
(-0.00216927 -0.184523 0)
(-0.00311594 -0.183643 0)
(-0.00419329 -0.182578 0)
(-0.00523997 -0.18127 0)
(-0.00623509 -0.179718 0)
(-0.00718463 -0.1779 0)
(-0.00813191 -0.175816 0)
(-0.0091444 -0.173551 0)
(-0.010298 -0.171138 0)
(-0.0116605 -0.168656 0)
(-0.0132423 -0.166136 0)
(-0.0149649 -0.163574 0)
(-0.0166781 -0.160897 0)
(-0.0182286 -0.158066 0)
(-0.0195082 -0.155043 0)
(-0.0205483 -0.151861 0)
(-0.0213225 -0.148552 0)
(-0.0218195 -0.145167 0)
(-0.0220028 -0.14174 0)
(-0.021875 -0.138326 0)
(-0.0214113 -0.134957 0)
(9.05077e-05 -0.173575 0)
(-0.000718768 -0.183846 0)
(-0.00215392 -0.183448 0)
(-0.0031245 -0.182595 0)
(-0.00421664 -0.181546 0)
(-0.00524925 -0.180343 0)
(-0.00622768 -0.178931 0)
(-0.00713649 -0.177233 0)
(-0.00795817 -0.175211 0)
(-0.00870396 -0.172888 0)
(-0.00942901 -0.170336 0)
(-0.0101937 -0.167628 0)
(-0.0110344 -0.164826 0)
(-0.0119284 -0.161944 0)
(-0.0129746 -0.159106 0)
(-0.014205 -0.156316 0)
(-0.0155599 -0.153555 0)
(-0.0168611 -0.150771 0)
(-0.0178529 -0.147861 0)
(-0.0184311 -0.144812 0)
(-0.0186844 -0.141691 0)
(-0.0186257 -0.138602 0)
(-0.0182874 -0.135621 0)
(0.000206538 -0.173504 0)
(-0.000889692 -0.182757 0)
(-0.00290745 -0.182382 0)
(-0.00421928 -0.181637 0)
(-0.00562901 -0.180672 0)
(-0.00685326 -0.179488 0)
(-0.00802548 -0.178103 0)
(-0.00906274 -0.176467 0)
(-0.00994422 -0.174592 0)
(-0.0105922 -0.172419 0)
(-0.0110005 -0.169957 0)
(-0.0112502 -0.167268 0)
(-0.0114576 -0.164438 0)
(-0.0117047 -0.1615 0)
(-0.0120079 -0.158479 0)
(-0.012387 -0.155448 0)
(-0.0128596 -0.152462 0)
(-0.0133676 -0.149553 0)
(-0.0140503 -0.146797 0)
(-0.014796 -0.144097 0)
(-0.0153967 -0.141394 0)
(-0.0156186 -0.138677 0)
(-0.0155331 -0.136037 0)
(0.00018567 -0.173566 0)
(-0.00166018 -0.181433 0)
(-0.00455299 -0.181109 0)
(-0.00659667 -0.180557 0)
(-0.0086881 -0.179718 0)
(-0.0104504 -0.178587 0)