/*--------------------------------*- C++ -*----------------------------------*\
| =========                 |                                                 |
| \\      /  F ield         | OpenFOAM: The Open Source CFD Toolbox           |
|  \\    /   O peration     | Version:  2.4.0                                 |
|   \\  /    A nd           | Web:      www.OpenFOAM.org                      |
|    \\/     M anipulation  |                                                 |
\*---------------------------------------------------------------------------*/
FoamFile
{
    version     2.0;
    format      ascii;
    class       volVectorField;
    location    "0.4";
    object      U.oil;
}
// * * * * * * * * * * * * * * * * * * * * * * * * * * * * * * * * * * * * * //

dimensions      [0 1 -1 0 0 0 0];

internalField   nonuniform List<vector> 
2268
(
(0.0189573 -0.00876366 0)
(0.0548171 -0.00888024 0)
(0.0946797 -0.00831124 0)
(0.127214 -0.0101226 0)
(0.173346 -0.00686 0)
(0.19597 -0.010185 0)
(0.247345 -0.00969039 0)
(0.286462 -0.00755562 0)
(0.310532 -0.00673913 0)
(0.339824 -0.0100455 0)
(0.390972 -0.0102734 0)
(0.434759 -0.00826576 0)
(0.458085 -0.00623278 0)
(0.484464 -0.00449466 0)
(0.488361 -0.000210198 0)
(0.494292 0.000722482 0)
(0.488276 0.00331568 0)
(0.470534 0.00511378 0)
(0.434796 0.0151289 0)
(0.368414 0.0154005 0)
(0.275217 0.0284867 0)
(0.136632 0.0331089 0)
(0.0169838 0.0322795 0)
(0.0189729 -0.0262899 0)
(0.0548024 -0.0267569 0)
(0.0951218 -0.0246005 0)
(0.126634 -0.0313247 0)
(0.173216 -0.0191594 0)
(0.197996 -0.0314759 0)
(0.246543 -0.0298791 0)
(0.285247 -0.0211027 0)
(0.31151 -0.0219977 0)
(0.344511 -0.0271662 0)
(0.394761 -0.0334087 0)
(0.432639 -0.0268995 0)
(0.456678 -0.0173638 0)
(0.480742 -0.00971766 0)
(0.493023 -0.00405903 0)
(0.502362 -0.000322885 0)
(0.501218 0.0113214 0)
(0.484963 0.0267906 0)
(0.441907 0.0380069 0)
(0.38285 0.0625793 0)
(0.25036 0.0760782 0)
(0.173517 0.0922726 0)
(0.0237291 0.0823105 0)
(0.0189472 -0.0439465 0)
(0.0548547 -0.0446582 0)
(0.0951525 -0.0415499 0)
(0.126345 -0.0506495 0)
(0.172725 -0.03531 0)
(0.201485 -0.0506382 0)
(0.243793 -0.0477958 0)
(0.282612 -0.0372074 0)
(0.313286 -0.0390734 0)
(0.35403 -0.0483347 0)
(0.399207 -0.053454 0)
(0.420779 -0.0390831 0)
(0.451543 -0.0314184 0)
(0.483366 -0.0206227 0)
(0.505976 -0.0118798 0)
(0.524712 -0.00269992 0)
(0.518211 0.00779755 0)
(0.501855 0.0358957 0)
(0.453101 0.0671112 0)
(0.380775 0.103792 0)
(0.267561 0.121015 0)
(0.177673 0.130998 0)
(0.0719902 0.141804 0)
(0.0189162 -0.0616015 0)
(0.0549907 -0.062403 0)
(0.0949236 -0.0585276 0)
(0.126678 -0.0699692 0)
(0.172188 -0.0509075 0)
(0.203117 -0.0693047 0)
(0.243575 -0.0651516 0)
(0.280763 -0.0531093 0)
(0.312903 -0.058383 0)
(0.36625 -0.0645252 0)
(0.390083 -0.0639112 0)
(0.415525 -0.0543811 0)
(0.455481 -0.0471551 0)
(0.485677 -0.0360109 0)
(0.520325 -0.0223575 0)
(0.546029 0.00178837 0)
(0.540488 0.0350402 0)
(0.516305 0.0659341 0)
(0.455784 0.108594 0)
(0.364426 0.148863 0)
(0.232827 0.172703 0)
(0.126347 0.177852 0)
(0.0357527 0.194239 0)
(0.0189552 -0.0760383 0)
(0.0550664 -0.0767479 0)
(0.0951845 -0.0730269 0)
(0.127207 -0.0840712 0)
(0.171615 -0.0661136 0)
(0.205227 -0.0832365 0)
(0.242169 -0.0780333 0)
(0.279951 -0.0643318 0)
(0.322019 -0.0757966 0)
(0.363215 -0.0726007 0)
(0.38554 -0.0716669 0)
(0.422291 -0.0588656 0)
(0.460048 -0.0643766 0)
(0.494447 -0.0528359 0)
(0.533636 -0.048959 0)
(0.562943 -0.0218947 0)
(0.557408 0.0267738 0)
(0.527274 0.109472 0)
(0.466727 0.182879 0)
(0.400824 0.226405 0)
(0.256669 0.236219 0)
(0.126056 0.218653 0)
(0.0594247 0.234073 0)
(0.0190605 -0.100893 0)
(0.0550783 -0.102185 0)
(0.0956851 -0.0993992 0)
(0.12939 -0.113099 0)
(0.16622 -0.097354 0)
(0.213377 -0.117078 0)
(0.236376 -0.119424 0)
(0.284107 -0.115914 0)
(0.325412 -0.129066 0)
(0.355566 -0.136441 0)
(0.383506 -0.143464 0)
(0.424114 -0.145101 0)
(0.447953 -0.150504 0)
(0.475943 -0.148094 0)
(0.509953 -0.141188 0)
(0.520629 -0.0970099 0)
(0.550435 -0.0299119 0)
(0.520401 0.0849951 0)
(0.451352 0.20259 0)
(0.378979 0.275866 0)
(0.300248 0.295365 0)
(0.146158 0.278304 0)
(0.03586 0.294968 0)
(0.018553 -0.170184 0)
(0.0534652 -0.171406 0)
(0.0925492 -0.170645 0)
(0.126776 -0.177687 0)
(0.152864 -0.172497 0)
(0.20647 -0.181699 0)
(0.224066 -0.183665 0)
(0.255898 -0.181861 0)
(0.282142 -0.182095 0)
(0.309928 -0.175408 0)
(0.319434 -0.168633 0)
(0.316992 -0.144714 0)
(0.311136 -0.093852 0)
(0.294459 -0.0363709 0)
(0.268551 0.00840108 0)
(0.241656 0.0557475 0)
(0.3089 0.0799871 0)
(0.378759 0.147388 0)
(0.352899 0.263741 0)
(0.315234 0.336211 0)
(0.289201 0.360123 0)
(0.207909 0.316887 0)
(0.0723349 0.325415 0)
(0.0142501 -0.211203 0)
(0.0424638 -0.210471 0)
(0.0691685 -0.20891 0)
(0.097738 -0.201272 0)
(0.106753 -0.197947 0)
(0.131813 -0.187564 0)
(0.139889 -0.165086 0)
(0.132864 -0.143906 0)
(0.144212 -0.128116 0)
(0.151444 -0.117228 0)
(0.152849 -0.121747 0)
(0.151104 -0.130276 0)
(0.165561 -0.140891 0)
(0.184157 -0.138363 0)
(0.191582 -0.117658 0)
(0.179046 -0.0970027 0)
(0.169307 -0.112608 0)
(0.238242 -0.0342783 0)
(0.278253 0.214353 0)
(0.174423 0.390358 0)
(0.220623 0.441657 0)
(0.220833 0.40553 0)
(0.0859063 0.441809 0)
(-0.177259 0.120754 0)
(-0.494803 0.102146 0)
(-0.82342 0.0605097 0)
(-1.05067 0.0215308 0)
(-1.14608 -0.0155915 0)
(-1.17413 -0.0396107 0)
(-1.10471 -0.136686 0)
(-0.875976 -0.210151 0)
(-0.690096 -0.269923 0)
(-0.434818 -0.297834 0)
(-0.222963 -0.142423 0)
(0.071815 -0.111344 0)
(0.504862 -0.155634 0)
(0.932428 -0.142074 0)
(1.25614 -0.0952222 0)
(1.29079 -0.096315 0)
(1.18834 -0.0712656 0)
(0.921543 -0.0389118 0)
(0.581468 0.0613397 0)
(-0.132314 0.179221 0)
(-0.439922 0.164251 0)
(-0.753194 0.182829 0)
(-0.910264 0.131987 0)
(-0.959744 0.054451 0)
(-0.960196 0.00850408 0)
(-0.864565 -0.0146766 0)
(-0.772758 -0.0072505 0)
(-0.733335 0.0666753 0)
(-0.513079 0.101152 0)
(-0.0616682 -0.0259303 0)
(0.3965 -0.163584 0)
(0.700258 -0.122126 0)
(1.06107 -0.0896967 0)
(1.31907 0.0766283 0)
(1.35183 0.224664 0)
(1.27586 0.257765 0)
(1.04662 0.346264 0)
(0.611373 0.517587 0)
(-0.104027 0.290876 0)
(-0.397452 0.307467 0)
(-0.649921 0.303691 0)
(-0.766197 0.107128 0)
(-0.776264 -0.00334354 0)
(-0.696875 -0.0582552 0)
(-0.611492 -0.137848 0)
(-0.515056 -0.18342 0)
(-0.542949 -0.312044 0)
(-0.259553 -0.44542 0)
(0.0310995 -0.392543 0)
(0.484798 -0.29051 0)
(0.863098 -0.384035 0)
(1.13348 -0.340203 0)
(1.32104 -0.113059 0)
(1.34422 0.0295071 0)
(1.23018 0.170187 0)
(0.813039 0.469345 0)
(0.271977 0.908566 0)
(-0.0924058 0.413698 0)
(-0.317774 0.393283 0)
(-0.544745 0.34852 0)
(-0.583908 0.168179 0)
(-0.415795 0.0434164 0)
(-0.348157 -0.151208 0)
(-0.317307 -0.21316 0)
(-0.184747 -0.202297 0)
(-0.139081 -0.18329 0)
(0.0191898 -0.323182 0)
(0.343038 -0.547343 0)
(0.658015 -0.545906 0)
(1.04146 -0.422413 0)
(1.25534 -0.311782 0)
(1.41707 -0.0954631 0)
(1.3068 0.184923 0)
(0.989814 0.420575 0)
(0.366815 0.666943 0)
(0.0522495 0.937859 0)
(-0.0616329 0.458046 0)
(-0.212116 0.462145 0)
(-0.356858 0.447946 0)
(-0.184586 0.12473 0)
(-0.102364 -0.219479 0)
(-0.0316893 -0.393694 0)
(0.164335 -0.606611 0)
(0.27577 -0.72464 0)
(0.296891 -0.597066 0)
(0.356609 -0.600855 0)
(0.502743 -0.633462 0)
(0.766856 -0.718183 0)
(1.10923 -0.659012 0)
(1.26348 -0.474288 0)
(1.43144 -0.0374144 0)
(1.20279 0.331873 0)
(0.651875 0.541954 0)
(0.122654 0.780591 0)
(-0.00141499 0.947963 0)
(-0.0198491 0.514002 0)
(-0.0363067 0.475278 0)
(-0.115085 0.430264 0)
(0.218039 -0.0515079 0)
(0.0630866 -0.362754 0)
(0.249817 -0.531584 0)
(0.675631 -1.07604 0)
(0.859981 -1.08499 0)
(0.957652 -1.18515 0)
(0.750166 -0.873503 0)
(0.773974 -0.779315 0)
(0.888033 -0.805316 0)
(1.19815 -0.739671 0)
(1.25047 -0.530338 0)
(1.28944 -0.0590809 0)
(1.03988 0.425682 0)
(0.444439 0.701036 0)
(0.0283921 0.917111 0)
(0.0115797 0.954883 0)
(0.0395626 0.494833 0)
(0.170646 0.500786 0)
(0.0479857 0.374159 0)
(0.239636 0.0486037 0)
(0.217804 -0.075602 0)
(0.441453 -0.325522 0)
(0.867374 -0.651123 0)
(0.808708 -0.541174 0)
(1.0661 -0.528584 0)
(0.899148 -0.984294 0)
(0.922747 -0.957721 0)
(1.0311 -0.919821 0)
(1.20483 -0.900215 0)
(1.261 -0.773456 0)
(1.02206 -0.137927 0)
(0.730884 0.573112 0)
(0.297016 0.879053 0)
(0.00212556 1.00077 0)
(0.0246445 0.943753 0)
(0.155693 0.478859 0)
(0.307292 0.483251 0)
(0.341994 0.237193 0)
(0.468502 -0.0556776 0)
(0.386359 -0.141934 0)
(0.39485 -0.202035 0)
(0.701925 -0.242045 0)
(0.909218 -0.26984 0)
(0.933425 -0.389603 0)
(1.01678 -0.870137 0)
(1.04942 -0.974056 0)
(1.10926 -0.973498 0)
(1.18377 -1.0326 0)
(1.17029 -1.00668 0)
(0.508683 0.088248 0)
(0.372079 0.756047 0)
(0.109985 1.00604 0)
(-0.0152248 1.03359 0)
(0.0177781 0.90564 0)
(0.00670657 -0.22355 0)
(0.0211094 -0.224528 0)
(0.0336887 -0.225205 0)
(0.0511655 -0.224427 0)
(0.0601475 -0.227906 0)
(0.0819597 -0.232771 0)
(0.0993294 -0.224142 0)
(0.1206 -0.226224 0)
(0.158446 -0.215684 0)
(0.184484 -0.187471 0)
(0.214551 -0.154112 0)
(0.248019 -0.111652 0)
(0.282381 -0.0639844 0)
(0.303558 -0.0199759 0)
(0.311213 0.0464049 0)
(0.30128 0.100035 0)
(0.262609 0.237073 0)
(0.108145 0.320657 0)
(0.168132 0.298342 0)
(0.0861833 0.529385 0)
(0.104925 0.47066 0)
(0.220137 0.467437 0)
(0.344807 0.452821 0)
(0.00924942 -0.166005 0)
(0.0278554 -0.165436 0)
(0.0468809 -0.160948 0)
(0.0671704 -0.152831 0)
(0.0869867 -0.147172 0)
(0.108069 -0.144067 0)
(0.130075 -0.122665 0)
(0.148217 -0.130479 0)
(0.178348 -0.127528 0)
(0.195865 -0.11784 0)
(0.221019 -0.112003 0)
(0.245634 -0.11949 0)
(0.245468 -0.119155 0)
(0.252164 -0.114192 0)
(0.246655 -0.0970201 0)
(0.256203 -0.0848181 0)
(0.261419 -0.0322963 0)
(0.286521 0.0991091 0)
(0.260055 0.233494 0)
(0.291002 0.369558 0)
(0.192557 0.493431 0)
(0.19599 0.405214 0)
(0.257548 0.414412 0)
(0.0108868 -0.161604 0)
(0.0323852 -0.163455 0)
(0.0538079 -0.163143 0)
(0.0748537 -0.163352 0)
(0.095738 -0.163751 0)
(0.111415 -0.174497 0)
(0.135841 -0.167886 0)
(0.15153 -0.191748 0)
(0.185493 -0.193115 0)
(0.2086 -0.192979 0)
(0.254087 -0.187504 0)
(0.294487 -0.16745 0)
(0.326717 -0.123838 0)
(0.363086 -0.0859629 0)
(0.372969 -0.00482461 0)
(0.393875 0.0550643 0)
(0.3649 0.141259 0)
(0.379137 0.187925 0)
(0.345663 0.29059 0)
(0.42122 0.379961 0)
(0.445367 0.530914 0)
(0.370178 0.430671 0)
(0.332093 0.314518 0)
(0.0118405 -0.206788 0)
(0.0357567 -0.207699 0)
(0.0586594 -0.205709 0)
(0.0792789 -0.203061 0)
(0.10069 -0.200142 0)
(0.113111 -0.203297 0)
(0.134461 -0.199784 0)
(0.149466 -0.21914 0)
(0.178766 -0.213786 0)
(0.211916 -0.217799 0)
(0.272403 -0.188803 0)
(0.307376 -0.135474 0)
(0.341532 -0.0772459 0)
(0.347626 -0.0497705 0)
(0.362908 0.00413411 0)
(0.390067 0.0379039 0)
(0.418656 0.100919 0)
(0.45696 0.173968 0)
(0.472073 0.24489 0)
(0.538444 0.332374 0)
(0.573101 0.440063 0)
(0.693101 0.489909 0)
(0.665374 0.438666 0)
(0.0124591 -0.215711 0)
(0.0370322 -0.216152 0)
(0.06016 -0.212453 0)
(0.0798267 -0.208141 0)
(0.0990128 -0.203101 0)
(0.107383 -0.202899 0)
(0.122957 -0.206968 0)
(0.127863 -0.229608 0)
(0.150087 -0.216286 0)
(0.199471 -0.239609 0)
(0.26557 -0.215434 0)
(0.296108 -0.166157 0)
(0.331132 -0.12315 0)
(0.353279 -0.0882388 0)
(0.382265 -0.0182636 0)
(0.423314 0.0445532 0)
(0.426544 0.103212 0)
(0.470705 0.179022 0)
(0.494041 0.218078 0)
(0.576629 0.268933 0)
(0.647606 0.300749 0)
(0.782875 0.35299 0)
(0.886902 0.346728 0)
(0.0145402 -0.308311 0)
(0.0403648 -0.307225 0)
(0.0645495 -0.298824 0)
(0.0841799 -0.286284 0)
(0.0983157 -0.266998 0)
(0.0967473 -0.243159 0)
(0.0931577 -0.217904 0)
(0.0453872 -0.239729 0)
(0.0920643 -0.236906 0)
(0.144501 -0.296468 0)
(0.193069 -0.26225 0)
(0.200885 -0.228516 0)
(0.194556 -0.19057 0)
(0.162953 -0.147082 0)
(0.160179 -0.099905 0)
(0.174534 -0.048942 0)
(0.201815 0.01877 0)
(0.295229 0.0733864 0)
(0.349294 0.142785 0)
(0.484621 0.168655 0)
(0.594431 0.236814 0)
(0.678685 0.218944 0)
(0.808014 0.204567 0)
(0.0177256 -0.598954 0)
(0.0480708 -0.596742 0)
(0.0782857 -0.586376 0)
(0.107072 -0.568924 0)
(0.13326 -0.540642 0)
(0.148692 -0.499182 0)
(0.117104 -0.44494 0)
(-0.0337541 -0.460065 0)
(-0.0490034 -0.40002 0)
(-0.0927402 -0.420426 0)
(-0.105437 -0.324185 0)
(-0.159358 -0.216615 0)
(-0.199448 -0.11045 0)
(-0.202531 -0.0623601 0)
(-0.196652 -0.0483926 0)
(-0.174054 -0.0507002 0)
(-0.127377 -0.0495352 0)
(-0.0693063 -0.0511059 0)
(0.0523309 -0.0255836 0)
(0.146218 -0.0346481 0)
(0.33848 0.0869688 0)
(0.417589 0.0941002 0)
(0.555982 0.0674044 0)
(0.0101573 0.230522 0)
(0.0249233 0.243889 0)
(0.0480687 0.242074 0)
(0.0742663 0.230559 0)
(0.108789 0.195327 0)
(0.135293 0.0824549 0)
(-0.00136349 -0.604214 0)
(-0.203194 -0.795043 0)
(-0.26114 -0.670955 0)
(-0.443658 -0.536154 0)
(-0.430213 -0.357821 0)
(-0.392469 -0.304351 0)
(-0.355399 -0.306949 0)
(-0.299026 -0.291431 0)
(-0.279214 -0.265488 0)
(-0.248354 -0.215567 0)
(-0.223771 -0.173119 0)
(-0.18229 -0.179029 0)
(-0.109984 -0.141399 0)
(-0.0578874 -0.17039 0)
(0.0640724 -0.0808466 0)
(0.172517 -0.0555439 0)
(0.326198 -0.0499643 0)
(-0.0183706 -0.908402 0)
(-0.0480119 -0.919406 0)
(-0.0589487 -0.92941 0)
(-0.0581737 -0.938612 0)
(-0.023684 -0.907969 0)
(0.00186449 -0.816787 0)
(-0.230445 -0.846431 0)
(-0.408404 -0.780525 0)
(-0.49778 -0.716039 0)
(-0.540193 -0.734711 0)
(-0.498747 -0.757494 0)
(-0.386634 -0.75962 0)
(-0.315332 -0.734017 0)
(-0.233808 -0.673068 0)
(-0.196175 -0.641695 0)
(-0.156501 -0.600825 0)
(-0.116907 -0.547034 0)
(-0.0824299 -0.472049 0)
(-0.070782 -0.385608 0)
(-0.0251214 -0.371436 0)
(0.00807711 -0.229295 0)
(0.094605 -0.243871 0)
(0.181039 -0.249796 0)
(-0.0385015 0.085098 0)
(-0.102651 0.0696666 0)
(-0.148654 0.0482692 0)
(-0.181423 0.00824497 0)
(-0.202103 -0.123261 0)
(-0.230625 -0.399413 0)
(-0.317301 -0.424065 0)
(-0.144027 -0.181768 0)
(0.175733 -0.159671 0)
(0.295486 -0.461319 0)
(0.168517 -0.512517 0)
(0.193095 -0.563912 0)
(0.217171 -0.518318 0)
(0.229338 -0.381449 0)
(0.237228 -0.273215 0)
(0.2587 -0.165438 0)
(0.206471 -0.338677 0)
(0.0782064 -1.00276 0)
(0.0510809 -0.830121 0)
(0.0954658 -0.784324 0)
(0.0961771 -0.667553 0)
(0.152437 -0.650103 0)
(0.186089 -0.620985 0)
(-0.011182 -0.311852 0)
(-0.0278993 -0.344981 0)
(-0.0382756 -0.371809 0)
(-0.0451801 -0.399239 0)
(-0.0487632 -0.411418 0)
(-0.0529473 -0.394072 0)
(-0.106393 -0.328322 0)
(-0.0815759 -0.0705707 0)
(0.0794132 0.234428 0)
(0.00994873 0.373473 0)
(-0.0987053 -0.0417594 0)
(-0.0154859 -0.239862 0)
(0.0370797 -0.3234 0)
(0.0950452 -0.396711 0)
(0.130324 -0.447783 0)
(0.152971 -0.500048 0)
(0.285109 -0.564766 0)
(0.518848 -0.701702 0)
(0.746427 -0.650207 0)
(0.809442 -0.553056 0)
(0.699339 -0.277827 0)
(0.670623 -0.300474 0)
(0.550105 -0.874067 0)
(-0.00426137 -0.178868 0)
(-0.00918789 -0.215232 0)
(-0.0150692 -0.253685 0)
(-0.0263111 -0.297677 0)
(-0.0465648 -0.339984 0)
(-0.0752511 -0.370468 0)
(-0.118021 -0.383648 0)
(-0.14052 -0.315571 0)
(-0.0359958 -0.144571 0)
(0.125606 -0.0591869 0)
(0.263434 -0.260143 0)
(0.219011 -0.397116 0)
(0.200163 -0.376741 0)
(0.210837 -0.334091 0)
(0.254842 -0.250727 0)
(0.297793 -0.115813 0)
(0.328907 0.0361679 0)
(0.300033 0.0445899 0)
(0.242903 -0.0957433 0)
(0.166231 -0.270121 0)
(0.108153 -0.46349 0)
(0.20563 -0.548379 0)
(0.4092 -0.610388 0)
(-0.000925658 -0.128304 0)
(0.000928095 -0.167413 0)
(0.000107943 -0.196979 0)
(-0.00734921 -0.226418 0)
(-0.0214991 -0.247834 0)
(-0.0426081 -0.253362 0)
(-0.0751506 -0.236873 0)
(-0.0831011 -0.183906 0)
(-0.0842977 -0.0924567 0)
(0.066159 -0.0528226 0)
(0.124686 -0.253227 0)
(0.139293 -0.365694 0)
(0.1251 -0.420545 0)
(0.114438 -0.452136 0)
(0.120931 -0.462308 0)
(0.144403 -0.451409 0)
(0.21723 -0.405983 0)
(0.286133 -0.354116 0)
(0.325376 -0.250144 0)
(0.296438 -0.162248 0)
(0.214208 -0.109419 0)
(0.130787 -0.114576 0)
(0.0598021 -0.120741 0)
(0.00683825 -0.213498 0)
(0.0180299 -0.242119 0)
(0.0214771 -0.258482 0)
(0.0160837 -0.27512 0)
(0.00270943 -0.28643 0)
(-0.0162047 -0.287032 0)
(-0.0378751 -0.276863 0)
(-0.0417188 -0.247174 0)
(-0.0354745 -0.219676 0)
(0.0354206 -0.189649 0)
(0.072112 -0.260743 0)
(0.0502108 -0.317453 0)
(0.0300404 -0.351153 0)
(-0.00029681 -0.366751 0)
(-0.0160368 -0.348055 0)
(-0.0337319 -0.301774 0)
(-0.0437953 -0.255341 0)
(-0.0465634 -0.242631 0)
(-0.0415027 -0.250473 0)
(-0.0287996 -0.252174 0)
(-0.0110237 -0.252205 0)
(-0.027398 -0.268415 0)
(-0.033216 -0.250221 0)
(0.00569135 -0.189345 0)
(0.0152365 -0.218839 0)
(0.0192917 -0.233214 0)
(0.0153675 -0.245168 0)
(0.00390712 -0.252567 0)
(-0.0131315 -0.252684 0)
(-0.0291685 -0.248266 0)
(-0.0357963 -0.238937 0)
(-0.033539 -0.233343 0)
(0.00238161 -0.227156 0)
(0.022885 -0.28937 0)
(-0.00741177 -0.32991 0)
(-0.0414604 -0.363514 0)
(-0.0773204 -0.381689 0)
(-0.10704 -0.371832 0)
(-0.130441 -0.326825 0)
(-0.140008 -0.284001 0)
(-0.148808 -0.248577 0)
(-0.160724 -0.209466 0)
(-0.161721 -0.185226 0)
(-0.158745 -0.167813 0)
(-0.15742 -0.194571 0)
(-0.147378 -0.22384 0)
(0.00346675 -0.205812 0)
(0.00821793 -0.229244 0)
(0.00893804 -0.234392 0)
(0.00336217 -0.238329 0)
(-0.00502049 -0.238806 0)
(-0.0144183 -0.237903 0)
(-0.022636 -0.234677 0)
(-0.0274693 -0.229193 0)
(-0.0290413 -0.228304 0)
(-0.0176839 -0.227157 0)
(-0.0208634 -0.256384 0)
(-0.045046 -0.275843 0)
(-0.0762662 -0.30052 0)
(-0.108411 -0.321537 0)
(-0.140082 -0.319386 0)
(-0.161997 -0.295161 0)
(-0.173381 -0.268239 0)
(-0.179394 -0.250203 0)
(-0.182181 -0.225297 0)
(-0.172951 -0.210935 0)
(-0.165703 -0.20594 0)
(-0.161719 -0.198602 0)
(-0.167321 -0.170167 0)
(0.00148808 -0.209561 0)
(0.000722829 -0.23069 0)
(-0.00258326 -0.232535 0)
(-0.00805413 -0.233665 0)
(-0.0130087 -0.234234 0)
(-0.0179975 -0.233765 0)
(-0.0220555 -0.232261 0)
(-0.0234352 -0.231481 0)
(-0.0249602 -0.234026 0)
(-0.0215822 -0.234073 0)
(-0.0289788 -0.243483 0)
(-0.048375 -0.254719 0)
(-0.0710309 -0.273968 0)
(-0.102638 -0.295983 0)
(-0.139444 -0.300662 0)
(-0.162426 -0.288151 0)
(-0.174452 -0.267051 0)
(-0.178397 -0.255046 0)
(-0.17485 -0.236744 0)
(-0.16886 -0.221757 0)
(-0.171178 -0.21855 0)
(-0.17712 -0.221416 0)
(-0.178354 -0.21396 0)
(0.000369185 -0.209838 0)
(-0.00280203 -0.228031 0)
(-0.00632238 -0.227923 0)
(-0.00959618 -0.229385 0)
(-0.0131799 -0.23089 0)
(-0.0157739 -0.23071 0)
(-0.0173514 -0.230731 0)
(-0.0183785 -0.23112 0)
(-0.0193229 -0.232122 0)
(-0.021516 -0.230087 0)
(-0.0251055 -0.233593 0)
(-0.0340166 -0.238699 0)
(-0.044178 -0.250037 0)
(-0.0641989 -0.256738 0)
(-0.0927362 -0.261022 0)
(-0.113231 -0.261746 0)
(-0.122085 -0.253403 0)
(-0.129013 -0.246332 0)
(-0.134242 -0.23193 0)
(-0.136211 -0.209749 0)
(-0.14126 -0.200007 0)
(-0.153393 -0.19549 0)
(-0.166648 -0.179717 0)
(-0.0010657 -0.206989 0)
(-0.00334883 -0.223604 0)
(-0.00570328 -0.2243 0)
(-0.0074402 -0.225938 0)
(-0.0103558 -0.22753 0)
(-0.0133843 -0.229181 0)
(-0.016073 -0.230141 0)
(-0.0185286 -0.231087 0)
(-0.0206842 -0.230428 0)
(-0.0227658 -0.229759 0)
(-0.0270267 -0.231403 0)
(-0.0305581 -0.236702 0)
(-0.0375726 -0.242182 0)
(-0.0507669 -0.24421 0)
(-0.0666507 -0.247755 0)
(-0.0795333 -0.250077 0)
(-0.0990411 -0.244089 0)
(-0.114527 -0.232456 0)
(-0.123537 -0.222723 0)
(-0.131267 -0.2066 0)
(-0.14153 -0.189895 0)
(-0.156764 -0.183235 0)
(-0.170809 -0.175523 0)
(-0.000701727 -0.204252 0)
(-0.00304108 -0.221495 0)
(-0.00479273 -0.222327 0)
(-0.00820513 -0.223713 0)
(-0.0116255 -0.224323 0)
(-0.0159665 -0.225209 0)
(-0.0203736 -0.225515 0)
(-0.0248333 -0.225901 0)
(-0.0293429 -0.226889 0)
(-0.033351 -0.227293 0)
(-0.0351508 -0.227548 0)
(-0.0375946 -0.229446 0)
(-0.044406 -0.231793 0)
(-0.0515233 -0.236059 0)
(-0.0635587 -0.237921 0)
(-0.0752889 -0.232225 0)
(-0.0927568 -0.230282 0)
(-0.106112 -0.226778 0)
(-0.115784 -0.218893 0)
(-0.125321 -0.204438 0)
(-0.132417 -0.185881 0)
(-0.140872 -0.175547 0)
(-0.150429 -0.171563 0)
(-0.000654997 -0.20319 0)
(-0.00292642 -0.21913 0)
(-0.00677558 -0.218782 0)
(-0.0102066 -0.218717 0)
(-0.0138165 -0.219317 0)
(-0.0175945 -0.219883 0)
(-0.0216502 -0.220737 0)
(-0.0260319 -0.221084 0)
(-0.030873 -0.220809 0)
(-0.0361176 -0.222052 0)
(-0.0408764 -0.223291 0)
(-0.0467319 -0.223751 0)
(-0.0537115 -0.223898 0)
(-0.0615681 -0.223362 0)
(-0.0700294 -0.22083 0)
(-0.0794126 -0.216544 0)
(-0.0890792 -0.211318 0)
(-0.099016 -0.206725 0)
(-0.110344 -0.199688 0)
(-0.121299 -0.186845 0)
(-0.130422 -0.168491 0)
(-0.138793 -0.160434 0)
(-0.142797 -0.156728 0)
(-0.0011882 -0.200457 0)
(-0.00417153 -0.215875 0)
(-0.00694751 -0.215549 0)
(-0.00967855 -0.216282 0)
(-0.0127151 -0.2163 0)
(-0.0158683 -0.215881 0)
(-0.0194929 -0.215672 0)
(-0.0235437 -0.215487 0)
(-0.0282175 -0.216185 0)
(-0.0332516 -0.217436 0)
(-0.0406577 -0.217981 0)
(-0.0456067 -0.218696 0)
(-0.0520507 -0.216531 0)
(-0.0615982 -0.216334 0)
(-0.0700732 -0.214239 0)
(-0.0781667 -0.210811 0)
(-0.083946 -0.207179 0)
(-0.0912833 -0.202965 0)
(-0.101747 -0.195288 0)
(-0.110691 -0.184776 0)
(-0.114994 -0.1695 0)
(-0.12004 -0.16344 0)
(-0.123713 -0.160851 0)
(-0.000879276 -0.198804 0)
(-0.00333853 -0.213685 0)
(-0.00615067 -0.213287 0)
(-0.00918065 -0.213268 0)
(-0.0124249 -0.213297 0)
(-0.0157596 -0.213502 0)
(-0.0189923 -0.213463 0)
(-0.022292 -0.213235 0)
(-0.0258469 -0.212684 0)
(-0.030637 -0.212309 0)
(-0.0346862 -0.212967 0)
(-0.04027 -0.211883 0)
(-0.0466317 -0.210349 0)
(-0.0523422 -0.208686 0)
(-0.0593723 -0.206033 0)
(-0.0679525 -0.20295 0)
(-0.0764153 -0.197575 0)
(-0.0863076 -0.188639 0)
(-0.0943619 -0.18179 0)
(-0.0984851 -0.172123 0)
(-0.10749 -0.160402 0)
(-0.108282 -0.152676 0)
(-0.112677 -0.149576 0)
(-0.00133013 -0.195281 0)
(-0.00454085 -0.209894 0)
(-0.00772102 -0.209678 0)
(-0.0108084 -0.209803 0)
(-0.0139756 -0.20971 0)
(-0.0172236 -0.209482 0)
(-0.0206898 -0.209242 0)
(-0.024335 -0.208888 0)
(-0.0281126 -0.208338 0)
(-0.0313725 -0.206957 0)
(-0.0360571 -0.205651 0)
(-0.0432228 -0.204959 0)
(-0.0492987 -0.204054 0)
(-0.0545228 -0.20082 0)
(-0.0601843 -0.197737 0)
(-0.0668064 -0.193598 0)
(-0.0728286 -0.188407 0)
(-0.0786354 -0.185193 0)
(-0.0835358 -0.181579 0)
(-0.0900044 -0.17042 0)
(-0.0946946 -0.15897 0)
(-0.0980187 -0.153002 0)
(-0.101539 -0.146485 0)
(-0.00100301 -0.193867 0)
(-0.00346333 -0.207966 0)
(-0.00633033 -0.207536 0)
(-0.00918188 -0.207419 0)
(-0.0121675 -0.207165 0)
(-0.0152236 -0.206808 0)
(-0.0184154 -0.206288 0)
(-0.02186 -0.205703 0)
(-0.0256581 -0.205102 0)
(-0.0301767 -0.204328 0)
(-0.034959 -0.202679 0)
(-0.038498 -0.201281 0)
(-0.0431311 -0.199716 0)
(-0.0499172 -0.196923 0)
(-0.0557034 -0.194544 0)
(-0.0594204 -0.190799 0)
(-0.0657368 -0.185965 0)
(-0.0712813 -0.179027 0)
(-0.0785442 -0.169344 0)
(-0.0835662 -0.161955 0)
(-0.086174 -0.156163 0)
(-0.0890794 -0.149536 0)
(-0.0932498 -0.139755 0)
(-0.00111508 -0.19055 0)
(-0.00380256 -0.20418 0)
(-0.00669387 -0.203715 0)
(-0.0096232 -0.203475 0)
(-0.0127722 -0.203098 0)
(-0.0161894 -0.2027 0)
(-0.0197592 -0.202266 0)
(-0.0234025 -0.201687 0)
(-0.0272099 -0.200768 0)
(-0.0310847 -0.19923 0)
(-0.034241 -0.197172 0)
(-0.0377429 -0.19567 0)
(-0.0421966 -0.192897 0)
(-0.0459909 -0.190529 0)
(-0.051306 -0.186757 0)
(-0.0587527 -0.182513 0)
(-0.0636908 -0.177949 0)
(-0.0677855 -0.172074 0)
(-0.0707592 -0.16822 0)
(-0.073395 -0.163226 0)
(-0.0765116 -0.152671 0)
(-0.0817654 -0.143326 0)
(-0.0838484 -0.137707 0)
(-0.00109676 -0.189073 0)
(-0.00364406 -0.202463 0)
(-0.00634453 -0.202001 0)
(-0.00890987 -0.201706 0)
(-0.0114929 -0.201218 0)
(-0.0140492 -0.200518 0)
(-0.0167803 -0.199665 0)
(-0.0198132 -0.19869 0)
(-0.0230725 -0.197498 0)
(-0.0265915 -0.19614 0)
(-0.0309477 -0.19462 0)
(-0.0361065 -0.192239 0)
(-0.04057 -0.18989 0)
(-0.0450732 -0.186386 0)
(-0.0488604 -0.183195 0)
(-0.051267 -0.1808 0)
(-0.0548413 -0.176754 0)
(-0.059438 -0.171396 0)
(-0.062898 -0.162951 0)
(-0.0685325 -0.154668 0)
(-0.0712662 -0.149962 0)
(-0.0725464 -0.143513 0)
(-0.0748301 -0.134155 0)
(-0.00106927 -0.185924 0)
(-0.00356862 -0.198894 0)
(-0.00629289 -0.19843 0)
(-0.00899091 -0.198058 0)
(-0.0118438 -0.197534 0)
(-0.0148066 -0.196895 0)
(-0.0178391 -0.196086 0)
(-0.0209316 -0.195005 0)
(-0.024072 -0.193602 0)
(-0.0272006 -0.191819 0)
(-0.0300971 -0.189608 0)
(-0.0325608 -0.187527 0)
(-0.0357481 -0.185355 0)
(-0.0393129 -0.182754 0)
(-0.0430799 -0.17917 0)
(-0.0476698 -0.174167 0)
(-0.0528926 -0.169355 0)
(-0.0564314 -0.164076 0)
(-0.0591501 -0.160279 0)
(-0.0601053 -0.155811 0)
(-0.0622238 -0.147784 0)
(-0.0653763 -0.139975 0)
(-0.0666473 -0.132891 0)
(-0.000980217 -0.184619 0)
(-0.00312705 -0.197354 0)
(-0.00548736 -0.196887 0)
(-0.00774667 -0.196438 0)
(-0.0101219 -0.19579 0)
(-0.0126034 -0.194961 0)
(-0.0152528 -0.193958 0)
(-0.0180871 -0.192785 0)
(-0.0210916 -0.191427 0)
(-0.0242523 -0.18987 0)
(-0.0276725 -0.188017 0)
(-0.0314143 -0.185359 0)
(-0.034996 -0.182435 0)
(-0.03845 -0.17941 0)
(-0.0417192 -0.17616 0)
(-0.044368 -0.17298 0)
(-0.0463664 -0.169286 0)
(-0.0488224 -0.164285 0)
(-0.0515322 -0.157636 0)
(-0.0545462 -0.151077 0)
(-0.0566011 -0.145721 0)
(-0.0578793 -0.139316 0)
(-0.0587768 -0.131775 0)
(-0.000958731 -0.181687 0)
(-0.0031307 -0.194115 0)
(-0.00548077 -0.193663 0)
(-0.00776113 -0.193136 0)
(-0.0101313 -0.192403 0)
(-0.0125458 -0.191466 0)
(-0.0150059 -0.190307 0)
(-0.0175138 -0.188913 0)
(-0.0200829 -0.187269 0)
(-0.0227284 -0.185359 0)
(-0.025396 -0.183233 0)
(-0.0279506 -0.18115 0)
(-0.0305408 -0.178721 0)
(-0.0332567 -0.175724 0)
(-0.0360677 -0.172357 0)
(-0.0390762 -0.168422 0)
(-0.0422907 -0.164042 0)
(-0.0451917 -0.159714 0)
(-0.0472682 -0.155406 0)
(-0.0485845 -0.150404 0)
(-0.0498454 -0.144397 0)
(-0.0511933 -0.138119 0)
(-0.0516517 -0.131461 0)
(-0.000871292 -0.180662 0)
(-0.00269565 -0.192918 0)
(-0.00476497 -0.19249 0)
(-0.00673624 -0.191946 0)
(-0.00883152 -0.191199 0)
(-0.0110164 -0.190258 0)
(-0.0133122 -0.189117 0)
(-0.0157129 -0.187766 0)
(-0.0181966 -0.186184 0)
(-0.0207088 -0.184302 0)
(-0.0232358 -0.18204 0)
(-0.0258548 -0.179374 0)
(-0.0285509 -0.176615 0)
(-0.0311668 -0.173731 0)
(-0.0336464 -0.170491 0)
(-0.0359357 -0.166956 0)
(-0.0379708 -0.163102 0)
(-0.0398426 -0.158645 0)
(-0.0416629 -0.153658 0)
(-0.043199 -0.148485 0)
(-0.0442447 -0.143297 0)
(-0.0449693 -0.137689 0)
(-0.0450819 -0.131522 0)
(-0.000780054 -0.1782 0)
(-0.00246689 -0.190145 0)
(-0.00436102 -0.189702 0)
(-0.00616146 -0.189025 0)
(-0.00806752 -0.188131 0)
(-0.0100296 -0.187017 0)
(-0.0120639 -0.185692 0)
(-0.0141755 -0.18417 0)
(-0.0163668 -0.182467 0)
(-0.0186453 -0.18062 0)
(-0.0209635 -0.178617 0)
(-0.0232212 -0.176389 0)
(-0.0254171 -0.173798 0)
(-0.0276259 -0.170862 0)
(-0.0298207 -0.167678 0)
(-0.031937 -0.1642 0)
(-0.0339362 -0.160411 0)
(-0.0357214 -0.156411 0)
(-0.0371582 -0.152148 0)
(-0.0381918 -0.14754 0)
(-0.0388686 -0.142612 0)
(-0.0393082 -0.137454 0)
(-0.039159 -0.131933 0)
(-0.000693515 -0.177263 0)
(-0.00211533 -0.189105 0)
(-0.00378721 -0.188696 0)
(-0.00535255 -0.188007 0)
(-0.00703708 -0.187106 0)
(-0.00878428 -0.185979 0)
(-0.0106168 -0.184627 0)
(-0.0125305 -0.18306 0)
(-0.0145046 -0.181271 0)
(-0.0165182 -0.179246 0)
(-0.0185658 -0.176988 0)
(-0.020646 -0.174511 0)
(-0.0227222 -0.171864 0)
(-0.0247295 -0.169022 0)
(-0.0266401 -0.165926 0)
(-0.0284331 -0.162577 0)
(-0.0300599 -0.158983 0)
(-0.031489 -0.155108 0)
(-0.0326881 -0.150981 0)
(-0.0335603 -0.146649 0)
(-0.0340304 -0.142163 0)
(-0.0341864 -0.137502 0)
(-0.0338377 -0.132573 0)
(-0.000544425 -0.175638 0)
(-0.0017257 -0.187191 0)
(-0.00317902 -0.186768 0)
(-0.00450477 -0.185979 0)
(-0.00595692 -0.184977 0)
(-0.00746411 -0.183744 0)
(-0.00905727 -0.182297 0)
(-0.0107475 -0.180668 0)
(-0.0125231 -0.17887 0)
(-0.0143619 -0.176904 0)
(-0.0162298 -0.174757 0)
(-0.018088 -0.172406 0)
(-0.0199152 -0.169831 0)
(-0.0216993 -0.167034 0)
(-0.0234052 -0.164031 0)
(-0.0249926 -0.160821 0)
(-0.0264257 -0.157406 0)
(-0.0276574 -0.153804 0)
(-0.0286388 -0.150013 0)
(-0.0293094 -0.146039 0)
(-0.0296123 -0.141923 0)
(-0.0295933 -0.137712 0)
(-0.0291273 -0.133355 0)
(-0.000384995 -0.174874 0)
(-0.00133631 -0.186213 0)
(-0.00261243 -0.185795 0)
(-0.00371394 -0.184956 0)
(-0.00494116 -0.183917 0)
(-0.00619101 -0.182636 0)
(-0.00743769 -0.181073 0)
(-0.00873336 -0.179307 0)
(-0.0101456 -0.17738 0)
(-0.0117102 -0.175296 0)
(-0.0134182 -0.173084 0)
(-0.0152034 -0.170729 0)
(-0.0169528 -0.168185 0)
(-0.0186416 -0.165453 0)
(-0.0202253 -0.162533 0)
(-0.0216704 -0.159435 0)
(-0.0229459 -0.156184 0)
(-0.0240176 -0.152778 0)
(-0.0248528 -0.149227 0)
(-0.0254052 -0.145556 0)
(-0.0256154 -0.141804 0)
(-0.0254996 -0.138014 0)
(-0.0249925 -0.134183 0)
(-0.000134976 -0.173987 0)
(-0.000944576 -0.18495 0)
(-0.0021687 -0.184532 0)
(-0.00311518 -0.183652 0)
(-0.00419237 -0.182587 0)
(-0.00523897 -0.181279 0)
(-0.00623409 -0.179728 0)
(-0.00718372 -0.17791 0)
(-0.00813117 -0.175826 0)
(-0.00914397 -0.173561 0)
(-0.0102981 -0.171149 0)
(-0.0116612 -0.168666 0)
(-0.013244 -0.166147 0)
(-0.014968 -0.163584 0)
(-0.0166825 -0.160908 0)
(-0.0182337 -0.158076 0)
(-0.0195131 -0.155053 0)
(-0.0205515 -0.151871 0)
(-0.021323 -0.148562 0)
(-0.0218164 -0.145177 0)
(-0.0219958 -0.14175 0)
(-0.0218644 -0.138336 0)
(-0.0213998 -0.134969 0)
(9.06484e-05 -0.173584 0)
(-0.000718415 -0.183855 0)
(-0.00215342 -0.183457 0)
(-0.00312385 -0.182604 0)
(-0.00421587 -0.181556 0)
(-0.00524843 -0.180353 0)
(-0.00622686 -0.178941 0)
(-0.00713575 -0.177243 0)
(-0.0079576 -0.175221 0)
(-0.00870368 -0.172898 0)
(-0.00942914 -0.170346 0)
(-0.0101944 -0.167638 0)
(-0.0110362 -0.164836 0)
(-0.0119311 -0.161954 0)
(-0.0129788 -0.159117 0)
(-0.0142098 -0.156326 0)
(-0.0155641 -0.153564 0)
(-0.0168639 -0.15078 0)
(-0.0178533 -0.14787 0)
(-0.0184283 -0.144821 0)
(-0.018678 -0.1417 0)
(-0.0186159 -0.138611 0)
(-0.0182769 -0.135632 0)
(0.000206571 -0.173513 0)
(-0.000889515 -0.182766 0)
(-0.00290708 -0.182391 0)
(-0.00421877 -0.181646 0)
(-0.0056284 -0.180681 0)
(-0.0068526 -0.179497 0)
(-0.00802483 -0.178113 0)
(-0.00906217 -0.176477 0)
(-0.00994382 -0.174602 0)
(-0.0105921 -0.172429 0)
(-0.0110008 -0.169967 0)
(-0.011251 -0.167278 0)
(-0.0114592 -0.164448 0)
(-0.0117075 -0.16151 0)
(-0.0120116 -0.158489 0)
(-0.0123911 -0.155457 0)
(-0.0128635 -0.152471 0)
(-0.01337 -0.149561 0)
(-0.0140505 -0.146805 0)
(-0.0147933 -0.144105 0)
(-0.0153908 -0.141402 0)
(-0.0156098 -0.138686 0)
(-0.0155236 -0.136047 0)
(0.000185758 -0.173575 0)
(-0.00165996 -0.181442 0)
(-0.00455267 -0.181118 0)