/*--------------------------------*- C++ -*----------------------------------*\
| =========                 |                                                 |
| \\      /  F ield         | OpenFOAM: The Open Source CFD Toolbox           |
|  \\    /   O peration     | Version:  2.4.0                                 |
|   \\  /    A nd           | Web:      www.OpenFOAM.org                      |
|    \\/     M anipulation  |                                                 |
\*---------------------------------------------------------------------------*/
FoamFile
{
    version     2.0;
    format      ascii;
    class       volVectorField;
    location    "0.4";
    object      U.water;
}
// * * * * * * * * * * * * * * * * * * * * * * * * * * * * * * * * * * * * * //

dimensions      [0 1 -1 0 0 0 0];

internalField   nonuniform List<vector> 
2268
(
(0.0189573 -0.00875985 0)
(0.0548171 -0.00887689 0)
(0.0946797 -0.00830809 0)
(0.127214 -0.0101182 0)
(0.173346 -0.00685662 0)
(0.19597 -0.010179 0)
(0.247345 -0.0096837 0)
(0.286462 -0.0075493 0)
(0.310532 -0.00673052 0)
(0.339824 -0.0100327 0)
(0.390972 -0.0102572 0)
(0.434759 -0.00824953 0)
(0.458085 -0.00621751 0)
(0.484464 -0.00448171 0)
(0.488361 -0.000201571 0)
(0.494292 0.000724559 0)
(0.488277 0.00331125 0)
(0.470536 0.00510244 0)
(0.434803 0.0151084 0)
(0.368434 0.0153628 0)
(0.275609 0.0283533 0)
(0.137767 0.0288165 0)
(0.017802 0.0119868 0)
(0.018973 -0.0262674 0)
(0.0548025 -0.0267364 0)
(0.095122 -0.0245804 0)
(0.126635 -0.0312987 0)
(0.173217 -0.019137 0)
(0.197997 -0.0314435 0)
(0.246544 -0.0298429 0)
(0.285248 -0.021067 0)
(0.311511 -0.021954 0)
(0.344513 -0.0271119 0)
(0.394763 -0.0333521 0)
(0.43264 -0.0268454 0)
(0.456679 -0.0173151 0)
(0.480742 -0.00967875 0)
(0.493022 -0.00403412 0)
(0.502361 -0.000326642 0)
(0.50122 0.0112628 0)
(0.48497 0.0267167 0)
(0.441923 0.0379228 0)
(0.382884 0.0624835 0)
(0.250773 0.0758859 0)
(0.17472 0.087913 0)
(0.0246501 0.0611535 0)
(0.0189473 -0.0438632 0)
(0.0548552 -0.0445744 0)
(0.0951533 -0.0414686 0)
(0.126346 -0.0505034 0)
(0.172727 -0.035211 0)
(0.201487 -0.0504278 0)
(0.243797 -0.0475021 0)
(0.282616 -0.0369113 0)
(0.313291 -0.0384506 0)
(0.354036 -0.0469696 0)
(0.399212 -0.0506553 0)
(0.420783 -0.0352267 0)
(0.451546 -0.0252831 0)
(0.483367 -0.0125825 0)
(0.505976 -0.00100588 0)
(0.524722 0.00463562 0)
(0.518248 0.0119903 0)
(0.501923 0.0376223 0)
(0.453187 0.0677003 0)
(0.380874 0.103801 0)
(0.268015 0.120667 0)
(0.179026 0.126569 0)
(0.0730393 0.119491 0)
(0.0189166 -0.0475896 0)
(0.0549921 -0.0477846 0)
(0.0949268 -0.0438985 0)
(0.126684 -0.0508925 0)
(0.172196 -0.034212 0)
(0.203134 -0.0473204 0)
(0.243602 -0.0398695 0)
(0.280802 -0.0269459 0)
(0.313006 -0.0303304 0)
(0.366468 -0.0346127 0)
(0.390477 -0.0304021 0)
(0.416153 -0.0180546 0)
(0.456309 -0.00348592 0)
(0.486096 0.0143304 0)
(0.519282 0.0415663 0)
(0.54394 0.0565689 0)
(0.538721 0.0751244 0)
(0.514965 0.0975242 0)
(0.455074 0.122754 0)
(0.364193 0.151181 0)
(0.23326 0.172248 0)
(0.127754 0.173611 0)
(0.0368173 0.169752 0)
(0.0191734 -0.00207194 0)
(0.0555818 0.000136575 0)
(0.0962719 0.00389914 0)
(0.12921 0.0176052 0)
(0.173619 0.0218711 0)
(0.209821 0.0396307 0)
(0.247256 0.0692601 0)
(0.286577 0.0953962 0)
(0.329732 0.0958698 0)
(0.37117 0.100933 0)
(0.393509 0.102305 0)
(0.430536 0.113704 0)
(0.467719 0.109739 0)
(0.50086 0.123922 0)
(0.536573 0.132591 0)
(0.554248 0.165992 0)
(0.532796 0.210589 0)
(0.488233 0.278753 0)
(0.44648 0.248801 0)
(0.394591 0.256088 0)
(0.256322 0.247996 0)
(0.127341 0.215485 0)
(0.0604169 0.208498 0)
(0.0195332 0.070497 0)
(0.0562544 0.0690847 0)
(0.0982555 0.071495 0)
(0.13277 0.0578852 0)
(0.170577 0.0722922 0)
(0.220123 0.0526928 0)
(0.243323 0.0501375 0)
(0.291313 0.0519258 0)
(0.333168 0.0379435 0)
(0.362999 0.0297701 0)
(0.388542 0.0228586 0)
(0.428048 0.0217479 0)
(0.453324 0.0174357 0)
(0.477736 0.0217291 0)
(0.505557 0.0338185 0)
(0.512636 0.0876644 0)
(0.534986 0.154325 0)
(0.486567 0.228284 0)
(0.405181 0.330423 0)
(0.315876 0.42031 0)
(0.276481 0.358126 0)
(0.143004 0.282689 0)
(0.0366571 0.273235 0)
(0.0188329 0.000146753 0)
(0.0540952 -0.000712737 0)
(0.093937 0.000192295 0)
(0.12833 -0.00397086 0)
(0.154995 -0.000659587 0)
(0.210199 -0.00784169 0)
(0.22719 -0.00776518 0)
(0.256236 -0.00675956 0)
(0.281236 -0.00634241 0)
(0.305581 0.00347834 0)
(0.312461 0.0164544 0)
(0.313257 0.0386671 0)
(0.300941 0.0542506 0)
(0.281815 0.0607113 0)
(0.259795 0.0569841 0)
(0.239188 0.0688278 0)
(0.283444 0.14636 0)
(0.308807 0.343506 0)
(0.298318 0.376692 0)
(0.266676 0.431828 0)
(0.233457 0.495385 0)
(0.196235 0.353043 0)
(0.0725233 0.310104 0)
(0.0139557 -0.0233067 0)
(0.0416571 -0.0235413 0)
(0.0678876 -0.0239819 0)
(0.0954845 -0.020783 0)
(0.103996 -0.0227315 0)
(0.128061 -0.0271268 0)
(0.133794 -0.0256668 0)
(0.129479 -0.0319545 0)
(0.140058 -0.0536705 0)
(0.147904 -0.0766943 0)
(0.150893 -0.104069 0)
(0.15042 -0.125567 0)
(0.165468 -0.140344 0)
(0.18415 -0.138343 0)
(0.19171 -0.118107 0)
(0.179617 -0.101681 0)
(0.17095 -0.129091 0)
(0.235876 -0.0423749 0)
(0.21223 0.272504 0)
(0.147547 0.419932 0)
(0.183439 0.512797 0)
(0.194796 0.52592 0)
(0.0862745 0.448553 0)
(-0.190847 0.106645 0)
(-0.509062 0.0848018 0)
(-0.828465 0.0430033 0)
(-1.04752 0.00298155 0)
(-1.133 -0.0421345 0)
(-1.12786 -0.105456 0)
(-0.976157 -0.276801 0)
(-0.679931 -0.429167 0)
(-0.45805 -0.531549 0)
(-0.197707 -0.580862 0)
(0.035917 -0.47721 0)
(0.270127 -0.479928 0)
(0.585152 -0.520537 0)
(0.890473 -0.49638 0)
(1.1503 -0.432245 0)
(1.21452 -0.390489 0)
(1.17368 -0.36632 0)
(1.02214 -0.347958 0)
(0.721112 -0.290456 0)
(-0.144753 0.16562 0)
(-0.447702 0.156833 0)
(-0.75512 0.178974 0)
(-0.910517 0.131221 0)
(-0.959881 0.0539317 0)
(-0.960101 0.00791386 0)
(-0.864178 -0.0155126 0)
(-0.770068 -0.0101942 0)
(-0.682126 0.0308456 0)
(-0.290557 -0.113989 0)
(0.249447 -0.49376 0)
(0.587334 -0.660951 0)
(0.796923 -0.618507 0)
(1.06377 -0.586865 0)
(1.24566 -0.375114 0)
(1.31231 -0.204519 0)
(1.25971 -0.137831 0)
(1.12573 -0.0800892 0)
(0.763099 0.00551246 0)
(-0.10852 0.284307 0)
(-0.397905 0.307097 0)
(-0.650169 0.303324 0)
(-0.766499 0.106567 0)
(-0.776417 -0.00387696 0)
(-0.69688 -0.058832 0)
(-0.611392 -0.138443 0)
(-0.512428 -0.186108 0)
(-0.503737 -0.332604 0)
(-0.097293 -0.536789 0)
(0.278815 -0.669703 0)
(0.659489 -0.749998 0)
(0.945272 -0.854482 0)
(1.11962 -0.815032 0)
(1.27717 -0.600212 0)
(1.29149 -0.406096 0)
(1.24037 -0.274618 0)
(0.975253 0.00589088 0)
(0.536559 0.376141 0)
(-0.0931868 0.412297 0)
(-0.317887 0.393187 0)
(-0.545069 0.348176 0)
(-0.584136 0.1678 0)
(-0.416 0.0430297 0)
(-0.348082 -0.150893 0)
(-0.316997 -0.211258 0)
(-0.18468 -0.200381 0)
(-0.113939 -0.199995 0)
(0.172706 -0.447087 0)
(0.530623 -0.7853 0)
(0.781849 -0.880351 0)
(1.05868 -0.84329 0)
(1.20976 -0.780535 0)
(1.31365 -0.605188 0)
(1.24204 -0.372523 0)
(1.03962 0.00534682 0)
(0.484619 0.448713 0)
(0.146116 0.786953 0)
(-0.0620515 0.457298 0)
(-0.212255 0.462064 0)
(-0.357173 0.447745 0)
(-0.184794 0.124522 0)
(-0.101675 -0.217341 0)
(-0.0283067 -0.37552 0)
(0.163398 -0.551103 0)
(0.259278 -0.665338 0)
(0.302737 -0.586417 0)
(0.452594 -0.673366 0)
(0.659555 -0.864643 0)
(0.858431 -0.990355 0)
(1.10114 -0.9702 0)
(1.21243 -0.860318 0)
(1.32331 -0.536835 0)
(1.1942 -0.0262827 0)
(0.67936 0.447335 0)
(0.153996 0.726808 0)
(0.0178092 0.911321 0)
(-0.0200418 0.513728 0)
(-0.0364311 0.475218 0)
(-0.115395 0.430231 0)
(0.219028 -0.0507059 0)
(0.0807088 -0.322954 0)
(0.259369 -0.0530137 0)
(0.492546 -0.111913 0)
(0.139554 -0.0282456 0)
(0.201005 -0.346316 0)
(0.770668 -0.874945 0)
(0.849298 -0.955219 0)
(0.95801 -1.0383 0)
(1.17131 -1.02901 0)
(1.21554 -0.906929 0)
(1.23386 -0.526882 0)
(1.05584 0.185445 0)
(0.454124 0.675194 0)
(0.0340731 0.907391 0)
(0.0129538 0.951259 0)
(0.0395099 0.494789 0)
(0.170537 0.500764 0)
(0.0477915 0.374179 0)
(0.251763 0.0479927 0)
(0.278637 -0.0777923 0)
(0.196562 -0.392736 0)
(0.16653 -0.388269 0)
(0.467193 -0.366178 0)
(0.264901 -0.714664 0)
(0.858421 -0.937583 0)
(0.978925 -1.07188 0)
(1.07106 -1.10752 0)
(1.20606 -1.1519 0)
(1.24437 -1.10045 0)
(1.07826 -0.539846 0)
(0.761784 0.431592 0)
(0.301903 0.867558 0)
(0.00481319 0.995625 0)
(0.0244416 0.946203 0)
(0.162882 0.439046 0)
(0.307156 0.481302 0)
(0.341866 0.236283 0)
(0.473158 -0.0583254 0)
(0.408888 -0.128974 0)
(0.510588 -0.0115279 0)
(0.724209 -0.0351047 0)
(1.1109 -0.0315662 0)
(0.951148 -0.366683 0)
(0.950704 -0.911305 0)
(1.05128 -1.09177 0)
(1.12392 -1.13564 0)
(1.21269 -1.24657 0)
(1.23929 -1.24371 0)
(0.650061 -0.195522 0)
(0.379138 0.739548 0)
(0.112308 1.00185 0)
(-0.0133214 1.02981 0)
(0.0171604 0.909477 0)
(0.00619462 -0.177523 0)
(0.0197386 -0.180009 0)
(0.0315132 -0.183281 0)
(0.0485251 -0.186521 0)
(0.0577199 -0.19458 0)
(0.0796686 -0.205993 0)
(0.097691 -0.203386 0)
(0.119768 -0.211835 0)
(0.158167 -0.207741 0)
(0.184434 -0.184641 0)
(0.214552 -0.153785 0)
(0.248019 -0.111593 0)
(0.282381 -0.0639556 0)
(0.303568 -0.0199694 0)
(0.311346 0.0459911 0)
(0.302132 0.095643 0)
(0.266563 0.218999 0)
(0.130332 0.253699 0)
(0.169097 0.236617 0)
(0.0962448 0.443858 0)
(0.107711 0.462843 0)
(0.221396 0.50797 0)
(0.377386 0.532729 0)
(0.00924935 -0.165996 0)
(0.0278554 -0.165427 0)
(0.046881 -0.160941 0)
(0.0671704 -0.152825 0)
(0.0869868 -0.147168 0)
(0.108069 -0.144064 0)
(0.130075 -0.122663 0)
(0.148217 -0.130479 0)
(0.178348 -0.127532 0)
(0.195865 -0.117856 0)
(0.221018 -0.112042 0)
(0.245645 -0.119651 0)
(0.245471 -0.11984 0)
(0.252186 -0.116602 0)
(0.24674 -0.100209 0)
(0.256419 -0.0882617 0)
(0.261577 -0.0409678 0)
(0.293772 0.0506647 0)
(0.272591 0.149448 0)
(0.278723 0.288659 0)
(0.188342 0.409989 0)
(0.198221 0.392833 0)
(0.257058 0.408799 0)
(0.0108868 -0.161604 0)
(0.0323852 -0.163454 0)
(0.0538079 -0.163142 0)
(0.0748537 -0.163351 0)
(0.095738 -0.163751 0)
(0.111415 -0.174497 0)
(0.135841 -0.167886 0)
(0.151531 -0.191752 0)
(0.185495 -0.193278 0)
(0.208601 -0.195041 0)
(0.254057 -0.190959 0)
(0.294383 -0.171915 0)
(0.326466 -0.129618 0)
(0.363301 -0.0961635 0)
(0.37332 -0.0145224 0)
(0.394655 0.0461812 0)
(0.366166 0.130241 0)
(0.382619 0.16961 0)
(0.362833 0.238751 0)
(0.42222 0.305134 0)
(0.41716 0.448448 0)
(0.355016 0.373057 0)
(0.332736 0.300245 0)
(0.0118405 -0.206787 0)
(0.0357567 -0.207699 0)
(0.0586594 -0.205708 0)
(0.0792789 -0.203061 0)
(0.10069 -0.200141 0)
(0.11311 -0.203297 0)
(0.134462 -0.199798 0)
(0.149487 -0.220151 0)
(0.178943 -0.217284 0)
(0.212051 -0.22843 0)
(0.270947 -0.218146 0)
(0.307823 -0.192619 0)
(0.344113 -0.15069 0)
(0.351924 -0.127313 0)
(0.366406 -0.0760531 0)
(0.394397 -0.0448603 0)
(0.422008 0.0200273 0)
(0.45733 0.0937376 0)
(0.467383 0.168716 0)
(0.534652 0.250377 0)
(0.573877 0.345567 0)
(0.668887 0.422869 0)
(0.641056 0.384674 0)
(0.0124591 -0.215711 0)
(0.0370322 -0.216153 0)
(0.06016 -0.212454 0)
(0.0798268 -0.208141 0)
(0.0990128 -0.203101 0)
(0.107386 -0.202899 0)
(0.12326 -0.20794 0)
(0.131281 -0.234135 0)
(0.168665 -0.257589 0)
(0.215247 -0.295756 0)
(0.276003 -0.28729 0)
(0.309606 -0.242338 0)
(0.345468 -0.204293 0)
(0.369639 -0.175304 0)
(0.396315 -0.108937 0)
(0.434282 -0.0514924 0)
(0.433424 0.00701556 0)
(0.479413 0.0882983 0)
(0.496274 0.132739 0)
(0.572528 0.190634 0)
(0.634215 0.228898 0)
(0.754171 0.295836 0)
(0.845999 0.303322 0)
(0.0145415 -0.308876 0)
(0.040369 -0.307784 0)
(0.0645576 -0.299349 0)
(0.0841936 -0.286752 0)
(0.0983365 -0.267381 0)
(0.0971355 -0.243437 0)
(0.0965142 -0.218655 0)
(0.100194 -0.224775 0)
(0.13053 -0.269749 0)
(0.176281 -0.355939 0)
(0.224137 -0.340932 0)
(0.237326 -0.319296 0)
(0.235695 -0.294013 0)
(0.208297 -0.260781 0)
(0.195017 -0.215404 0)
(0.198548 -0.166693 0)
(0.219692 -0.0964466 0)
(0.329774 -0.0300941 0)
(0.375601 0.0505037 0)
(0.498662 0.0828391 0)
(0.595538 0.164962 0)
(0.667298 0.165077 0)
(0.785765 0.180019 0)
(0.0177477 -0.611871 0)
(0.0481647 -0.609655 0)
(0.0784712 -0.598911 0)
(0.107342 -0.580777 0)
(0.133596 -0.551436 0)
(0.149361 -0.508991 0)
(0.133716 -0.444709 0)
(0.0547519 -0.411517 0)
(-0.00882261 -0.450011 0)
(-0.0627305 -0.502876 0)
(-0.059297 -0.420513 0)
(-0.12564 -0.319824 0)
(-0.20531 -0.216408 0)
(-0.208339 -0.174095 0)
(-0.20456 -0.164305 0)
(-0.179797 -0.172049 0)
(-0.12971 -0.171462 0)
(-0.0604909 -0.167167 0)
(0.0952012 -0.114138 0)
(0.207151 -0.127683 0)
(0.426426 0.0610413 0)
(0.46485 0.0442356 0)
(0.571639 0.0263697 0)
(0.0284542 -1.27861 0)
(0.0574681 -1.27363 0)
(0.0944569 -1.25643 0)
(0.129651 -1.22457 0)
(0.163626 -1.17588 0)
(0.189259 -1.10839 0)
(0.240865 -0.944357 0)
(0.146147 -0.751279 0)
(-0.119472 -0.760341 0)
(-0.47591 -0.781697 0)
(-0.510933 -0.489206 0)
(-0.396804 -0.403199 0)
(-0.378661 -0.404604 0)
(-0.310759 -0.36712 0)
(-0.286899 -0.307922 0)
(-0.249989 -0.238962 0)
(-0.219605 -0.190229 0)
(-0.176624 -0.194271 0)
(-0.103602 -0.162531 0)
(-0.0516522 -0.191582 0)
(0.128375 -0.142768 0)
(0.224073 -0.118623 0)
(0.328535 -0.141018 0)
(-0.0118945 -0.876857 0)
(-0.0496914 -0.902107 0)
(-0.0601437 -0.914393 0)
(-0.0571624 -0.942486 0)
(-0.0171485 -0.954211 0)
(0.0922779 -0.933355 0)
(0.125128 -0.491469 0)
(0.222212 -0.705139 0)
(-0.0892195 -0.43645 0)
(-0.481469 -0.382032 0)
(-0.466096 -0.353678 0)
(-0.373752 -0.442794 0)
(-0.308996 -0.559078 0)
(-0.233254 -0.589415 0)
(-0.194405 -0.593036 0)
(-0.154895 -0.572375 0)
(-0.117214 -0.52978 0)
(-0.0841272 -0.460524 0)
(-0.0716399 -0.379765 0)
(-0.0260245 -0.366992 0)
(0.00798558 -0.227921 0)
(0.0924819 -0.247313 0)
(0.161746 -0.298247 0)
(-0.0384417 0.0670147 0)
(-0.10269 0.0612031 0)
(-0.148665 0.0426942 0)
(-0.181416 0.00967864 0)
(-0.198018 -0.0370556 0)
(-0.212822 -0.11955 0)
(-0.296549 -0.189211 0)
(-0.230713 -0.091275 0)
(0.0443794 -0.00372018 0)
(0.299608 -0.418127 0)
(0.175121 -0.506391 0)
(0.235456 -0.557521 0)
(0.306251 -0.498906 0)
(0.38123 -0.308078 0)
(0.444623 -0.114022 0)
(0.538794 0.0917096 0)
(0.506417 0.523148 0)
(0.22956 0.597906 0)
(0.101924 -0.200608 0)
(0.0999495 -0.436986 0)
(0.0999342 -0.612597 0)
(0.154376 -0.618923 0)
(0.185711 -0.595167 0)
(-0.0113313 -0.311553 0)
(-0.0281564 -0.344531 0)
(-0.0385435 -0.371373 0)
(-0.0450219 -0.399459 0)
(-0.0474764 -0.411726 0)
(-0.0520391 -0.392631 0)
(-0.106153 -0.326227 0)
(-0.0816602 -0.0686142 0)
(0.08091 0.238432 0)
(0.0127169 0.378528 0)
(-0.0998709 -0.038436 0)
(-0.0157756 -0.238931 0)
(0.0368341 -0.322491 0)
(0.0948419 -0.39469 0)
(0.129943 -0.444585 0)
(0.14944 -0.501874 0)
(0.283258 -0.564991 0)
(0.518552 -0.700157 0)
(0.781604 -0.646225 0)
(0.890725 -0.535171 0)
(0.980694 -0.128626 0)
(0.981788 0.242074 0)
(0.837171 0.372517 0)
(-0.00419131 -0.182967 0)
(-0.00911041 -0.217291 0)
(-0.0150136 -0.255042 0)
(-0.0262874 -0.298043 0)
(-0.0465643 -0.339368 0)
(-0.075245 -0.370062 0)
(-0.118015 -0.383534 0)
(-0.140637 -0.315395 0)
(-0.0365532 -0.142081 0)
(0.125414 -0.0569638 0)
(0.264163 -0.260591 0)
(0.219011 -0.397109 0)
(0.200347 -0.37592 0)
(0.21318 -0.328095 0)
(0.259492 -0.238331 0)
(0.302432 -0.103099 0)
(0.331884 0.0498467 0)
(0.300803 0.0524085 0)
(0.243299 -0.0913916 0)
(0.16666 -0.260855 0)
(0.107177 -0.456066 0)
(0.20213 -0.53972 0)
(0.406231 -0.603133 0)
(-0.000945041 -0.129063 0)
(0.000916263 -0.167764 0)
(0.000104383 -0.197181 0)
(-0.00735004 -0.226512 0)
(-0.0214995 -0.247846 0)
(-0.0426086 -0.25337 0)
(-0.0751503 -0.236866 0)
(-0.0831002 -0.183819 0)
(-0.0843041 -0.0920411 0)
(0.0661318 -0.051264 0)
(0.124754 -0.252733 0)
(0.139309 -0.365448 0)
(0.125619 -0.4181 0)
(0.116191 -0.440546 0)
(0.122322 -0.44976 0)
(0.143214 -0.438795 0)
(0.213779 -0.39569 0)
(0.28522 -0.350583 0)
(0.325609 -0.249155 0)
(0.297657 -0.16115 0)
(0.215519 -0.107141 0)
(0.132084 -0.111133 0)
(0.061062 -0.115914 0)
(0.00683778 -0.213811 0)
(0.0180297 -0.242239 0)
(0.0214772 -0.258519 0)
(0.0160838 -0.275137 0)
(0.00270948 -0.286439 0)
(-0.0162046 -0.287038 0)
(-0.0378749 -0.276866 0)
(-0.0417187 -0.247166 0)
(-0.0354746 -0.219649 0)
(0.0354207 -0.18938 0)
(0.0721128 -0.260656 0)
(0.0502511 -0.317196 0)
(0.0308228 -0.345431 0)
(0.00207008 -0.353121 0)
(-0.0138893 -0.33502 0)
(-0.0330457 -0.291679 0)
(-0.0431184 -0.248972 0)
(-0.0462313 -0.239892 0)
(-0.0414403 -0.249106 0)
(-0.0287547 -0.250591 0)
(-0.0111152 -0.249605 0)
(-0.0274993 -0.26621 0)
(-0.0331527 -0.248469 0)
(0.00569139 -0.189382 0)
(0.0152366 -0.218859 0)
(0.0192917 -0.233217 0)
(0.0153675 -0.245169 0)
(0.00390713 -0.252568 0)
(-0.0131315 -0.252685 0)
(-0.0291685 -0.248267 0)
(-0.0357963 -0.238937 0)
(-0.033539 -0.233341 0)
(0.00238169 -0.227152 0)
(0.0228859 -0.28936 0)
(-0.00737218 -0.329508 0)
(-0.0409955 -0.357336 0)
(-0.0758957 -0.369366 0)
(-0.106229 -0.361155 0)
(-0.1301 -0.323886 0)
(-0.139838 -0.282394 0)
(-0.148641 -0.247508 0)
(-0.160584 -0.208588 0)
(-0.161562 -0.184179 0)
(-0.158476 -0.166041 0)
(-0.157238 -0.192985 0)
(-0.147312 -0.222633 0)
(0.00346675 -0.205814 0)
(0.00821794 -0.229247 0)
(0.00893805 -0.234393 0)
(0.00336218 -0.238329 0)
(-0.00502049 -0.238806 0)
(-0.0144183 -0.237903 0)
(-0.022636 -0.234677 0)
(-0.0274693 -0.229192 0)
(-0.0290413 -0.228301 0)
(-0.0176839 -0.227151 0)
(-0.0208625 -0.256367 0)
(-0.0450172 -0.275443 0)
(-0.0760444 -0.298233 0)
(-0.107727 -0.316478 0)
(-0.13977 -0.31583 0)
(-0.161826 -0.293158 0)
(-0.173187 -0.266766 0)
(-0.179282 -0.249003 0)
(-0.182094 -0.224397 0)
(-0.172877 -0.210177 0)
(-0.165632 -0.205107 0)
(-0.161663 -0.197935 0)
(-0.167292 -0.16983 0)
(0.00148808 -0.209561 0)
(0.00072283 -0.230691 0)
(-0.00258326 -0.232536 0)
(-0.00805413 -0.233665 0)
(-0.0130087 -0.234234 0)
(-0.0179975 -0.233765 0)
(-0.0220555 -0.232261 0)
(-0.0234352 -0.23148 0)
(-0.0249602 -0.234023 0)
(-0.0215822 -0.234067 0)
(-0.028978 -0.243463 0)
(-0.0483614 -0.254473 0)
(-0.0709874 -0.273136 0)
(-0.102555 -0.294331 0)
(-0.139233 -0.29817 0)
(-0.162238 -0.285564 0)
(-0.1743 -0.264938 0)
(-0.178284 -0.253402 0)
(-0.174778 -0.235682 0)
(-0.168831 -0.221165 0)
(-0.171165 -0.218196 0)
(-0.177111 -0.221153 0)
(-0.178348 -0.213839 0)
(0.000369185 -0.209838 0)
(-0.00280203 -0.228031 0)
(-0.00632238 -0.227923 0)
(-0.00959618 -0.229385 0)
(-0.0131799 -0.23089 0)
(-0.0157739 -0.23071 0)
(-0.0173514 -0.230731 0)
(-0.0183785 -0.231119 0)
(-0.0193229 -0.23212 0)
(-0.021516 -0.230082 0)
(-0.0251053 -0.23358 0)
(-0.0340128 -0.23859 0)
(-0.0441548 -0.249559 0)
(-0.064145 -0.255681 0)
(-0.0926268 -0.258817 0)
(-0.113021 -0.258733 0)
(-0.121906 -0.250753 0)
(-0.128879 -0.244346 0)
(-0.134162 -0.230692 0)
(-0.136173 -0.209125 0)
(-0.141248 -0.199755 0)
(-0.153389 -0.195389 0)
(-0.166646 -0.179669 0)
(-0.0010657 -0.206989 0)
(-0.00334883 -0.223604 0)
(-0.00570328 -0.2243 0)
(-0.0074402 -0.225938 0)
(-0.0103558 -0.22753 0)
(-0.0133843 -0.229181 0)
(-0.016073 -0.230141 0)
(-0.0185286 -0.231087 0)
(-0.0206842 -0.230426 0)
(-0.0227657 -0.229755 0)
(-0.0270266 -0.231396 0)
(-0.0305576 -0.236671 0)
(-0.0375626 -0.241861 0)
(-0.0507229 -0.243172 0)
(-0.0665524 -0.245702 0)
(-0.0794073 -0.247419 0)
(-0.0989164 -0.241586 0)
(-0.114431 -0.230518 0)
(-0.123481 -0.221478 0)
(-0.131241 -0.20594 0)
(-0.141522 -0.189622 0)
(-0.156762 -0.183142 0)
(-0.170809 -0.175493 0)
(-0.000701727 -0.204252 0)
(-0.00304108 -0.221495 0)
(-0.00479273 -0.222327 0)
(-0.00820513 -0.223713 0)
(-0.0116255 -0.224323 0)
(-0.0159665 -0.225209 0)
(-0.0203736 -0.225515 0)
(-0.0248333 -0.225901 0)
(-0.0293429 -0.226888 0)
(-0.0333509 -0.227291 0)
(-0.0351507 -0.227545 0)
(-0.0375945 -0.229441 0)
(-0.0444039 -0.231661 0)
(-0.0515069 -0.235395 0)
(-0.0635284 -0.236688 0)
(-0.0752342 -0.230474 0)
(-0.0926976 -0.228543 0)
(-0.106062 -0.225323 0)
(-0.115754 -0.217902 0)
(-0.125308 -0.203884 0)
(-0.132414 -0.185634 0)
(-0.140872 -0.175464 0)
(-0.15043 -0.17154 0)
(-0.000654997 -0.20319 0)
(-0.00292642 -0.21913 0)
(-0.00677558 -0.218782 0)
(-0.0102066 -0.218717 0)
(-0.0138165 -0.219317 0)
(-0.0175945 -0.219883 0)
(-0.0216502 -0.220737 0)
(-0.0260319 -0.221084 0)
(-0.030873 -0.220809 0)
(-0.0361176 -0.222051 0)
(-0.0408764 -0.223291 0)
(-0.0467319 -0.22375 0)
(-0.0537111 -0.22387 0)
(-0.0615646 -0.223157 0)
(-0.0700189 -0.22029 0)
(-0.0793966 -0.215793 0)
(-0.0890606 -0.210437 0)
(-0.0990006 -0.205928 0)
(-0.110336 -0.199119 0)
(-0.121296 -0.186503 0)
(-0.130422 -0.168329 0)
(-0.138793 -0.160377 0)
(-0.142797 -0.156713 0)
(-0.0011882 -0.200457 0)
(-0.00417153 -0.215875 0)
(-0.00694751 -0.215549 0)
(-0.00967855 -0.216282 0)
(-0.0127151 -0.2163 0)
(-0.0158683 -0.215881 0)
(-0.0194929 -0.215672 0)
(-0.0235437 -0.215487 0)
(-0.0282175 -0.216185 0)
(-0.0332516 -0.217436 0)
(-0.0406577 -0.217981 0)
(-0.0456067 -0.218696 0)
(-0.0520507 -0.216528 0)
(-0.0615979 -0.216304 0)
(-0.0700719 -0.2141 0)
(-0.0781628 -0.210565 0)
(-0.0839425 -0.206851 0)
(-0.091281 -0.20264 0)
(-0.101745 -0.19506 0)
(-0.11069 -0.184629 0)
(-0.114995 -0.169425 0)
(-0.120041 -0.163412 0)
(-0.123713 -0.160844 0)
(-0.000879276 -0.198804 0)
(-0.00333853 -0.213685 0)
(-0.00615067 -0.213287 0)
(-0.00918065 -0.213268 0)
(-0.0124249 -0.213297 0)
(-0.0157596 -0.213502 0)
(-0.0189923 -0.213463 0)
(-0.022292 -0.213235 0)
(-0.0258469 -0.212684 0)
(-0.030637 -0.212309 0)
(-0.0346862 -0.212966 0)
(-0.04027 -0.211883 0)
(-0.0466317 -0.210349 0)
(-0.0523422 -0.208684 0)
(-0.0593723 -0.206022 0)
(-0.0679525 -0.202897 0)
(-0.0764152 -0.197492 0)
(-0.0863075 -0.188548 0)
(-0.0943619 -0.181728 0)
(-0.0984853 -0.172085 0)
(-0.10749 -0.160381 0)
(-0.108282 -0.152667 0)
(-0.112678 -0.149573 0)
(-0.00133013 -0.195281 0)
(-0.00454085 -0.209894 0)
(-0.00772102 -0.209678 0)
(-0.0108084 -0.209803 0)
(-0.0139756 -0.20971 0)
(-0.0172236 -0.209482 0)
(-0.0206898 -0.209242 0)
(-0.024335 -0.208888 0)
(-0.0281126 -0.208338 0)
(-0.0313725 -0.206957 0)
(-0.0360571 -0.205651 0)
(-0.0432228 -0.204959 0)
(-0.0492987 -0.204054 0)
(-0.0545228 -0.200819 0)
(-0.0601843 -0.197736 0)
(-0.0668064 -0.193595 0)
(-0.0728286 -0.188394 0)
(-0.0786355 -0.185176 0)
(-0.0835359 -0.181567 0)
(-0.0900044 -0.170414 0)
(-0.0946946 -0.158967 0)
(-0.0980187 -0.153 0)
(-0.101539 -0.146485 0)
(-0.00100301 -0.193867 0)
(-0.00346333 -0.207966 0)
(-0.00633033 -0.207536 0)
(-0.00918188 -0.207419 0)
(-0.0121675 -0.207165 0)
(-0.0152236 -0.206808 0)
(-0.0184154 -0.206288 0)
(-0.02186 -0.205703 0)
(-0.0256581 -0.205102 0)
(-0.0301767 -0.204328 0)
(-0.034959 -0.202679 0)
(-0.038498 -0.201281 0)
(-0.0431311 -0.199716 0)
(-0.0499172 -0.196923 0)
(-0.0557034 -0.194544 0)
(-0.0594204 -0.190799 0)
(-0.0657368 -0.185965 0)
(-0.0712813 -0.179025 0)
(-0.0785442 -0.169343 0)
(-0.0835662 -0.161954 0)
(-0.086174 -0.156162 0)
(-0.0890794 -0.149536 0)
(-0.0932498 -0.139755 0)
(-0.00111508 -0.19055 0)
(-0.00380256 -0.20418 0)
(-0.00669387 -0.203715 0)
(-0.0096232 -0.203475 0)
(-0.0127722 -0.203098 0)
(-0.0161894 -0.2027 0)
(-0.0197592 -0.202266 0)
(-0.0234025 -0.201687 0)
(-0.0272099 -0.200768 0)
(-0.0310847 -0.19923 0)
(-0.034241 -0.197172 0)
(-0.0377429 -0.19567 0)
(-0.0421966 -0.192897 0)
(-0.0459909 -0.190529 0)
(-0.051306 -0.186757 0)
(-0.0587527 -0.182513 0)
(-0.0636908 -0.177949 0)
(-0.0677855 -0.172074 0)
(-0.0707592 -0.16822 0)
(-0.073395 -0.163226 0)
(-0.0765116 -0.152671 0)
(-0.0817654 -0.143326 0)
(-0.0838484 -0.137707 0)
(-0.00109676 -0.189073 0)
(-0.00364406 -0.202463 0)
(-0.00634453 -0.202001 0)
(-0.00890987 -0.201706 0)
(-0.0114929 -0.201218 0)
(-0.0140492 -0.200518 0)
(-0.0167803 -0.199665 0)
(-0.0198132 -0.19869 0)
(-0.0230725 -0.197498 0)
(-0.0265915 -0.19614 0)
(-0.0309477 -0.19462 0)
(-0.0361065 -0.192239 0)
(-0.04057 -0.18989 0)
(-0.0450732 -0.186386 0)
(-0.0488604 -0.183195 0)
(-0.051267 -0.1808 0)
(-0.0548413 -0.176754 0)
(-0.059438 -0.171396 0)
(-0.062898 -0.162951 0)
(-0.0685325 -0.154668 0)
(-0.0712662 -0.149962 0)
(-0.0725464 -0.143513 0)
(-0.0748301 -0.134155 0)
(-0.00106927 -0.185924 0)
(-0.00356862 -0.198894 0)
(-0.00629289 -0.19843 0)
(-0.00899091 -0.198058 0)
(-0.0118438 -0.197534 0)
(-0.0148066 -0.196895 0)
(-0.0178391 -0.196086 0)
(-0.0209316 -0.195005 0)
(-0.024072 -0.193602 0)
(-0.0272006 -0.191819 0)
(-0.0300971 -0.189608 0)
(-0.0325608 -0.187527 0)
(-0.0357481 -0.185355 0)
(-0.0393129 -0.182754 0)
(-0.0430799 -0.17917 0)
(-0.0476698 -0.174167 0)
(-0.0528926 -0.169355 0)
(-0.0564314 -0.164076 0)
(-0.0591501 -0.160279 0)
(-0.0601053 -0.155811 0)
(-0.0622238 -0.147784 0)
(-0.0653763 -0.139975 0)
(-0.0666473 -0.132891 0)
(-0.000980217 -0.184619 0)
(-0.00312705 -0.197354 0)
(-0.00548736 -0.196887 0)
(-0.00774667 -0.196438 0)
(-0.0101219 -0.19579 0)
(-0.0126034 -0.194961 0)
(-0.0152528 -0.193958 0)
(-0.0180871 -0.192785 0)
(-0.0210916 -0.191427 0)
(-0.0242523 -0.18987 0)
(-0.0276725 -0.188017 0)
(-0.0314143 -0.185359 0)
(-0.034996 -0.182435 0)
(-0.03845 -0.17941 0)
(-0.0417192 -0.17616 0)
(-0.044368 -0.17298 0)
(-0.0463664 -0.169286 0)
(-0.0488224 -0.164285 0)
(-0.0515322 -0.157636 0)
(-0.0545462 -0.151077 0)
(-0.0566011 -0.145721 0)
(-0.0578793 -0.139316 0)
(-0.0587768 -0.131775 0)
(-0.000958731 -0.181687 0)
(-0.0031307 -0.194115 0)
(-0.00548077 -0.193663 0)
(-0.00776113 -0.193136 0)
(-0.0101313 -0.192403 0)
(-0.0125458 -0.191466 0)
(-0.0150059 -0.190307 0)
(-0.0175138 -0.188913 0)
(-0.0200829 -0.187269 0)
(-0.0227284 -0.185359 0)
(-0.025396 -0.183233 0)
(-0.0279506 -0.18115 0)
(-0.0305408 -0.178721 0)
(-0.0332567 -0.175724 0)
(-0.0360677 -0.172357 0)
(-0.0390762 -0.168422 0)
(-0.0422907 -0.164042 0)
(-0.0451917 -0.159714 0)
(-0.0472682 -0.155406 0)
(-0.0485845 -0.150404 0)
(-0.0498454 -0.144397 0)
(-0.0511933 -0.138119 0)
(-0.0516517 -0.131461 0)
(-0.000871292 -0.180662 0)
(-0.00269565 -0.192918 0)
(-0.00476497 -0.19249 0)
(-0.00673624 -0.191946 0)
(-0.00883152 -0.191199 0)
(-0.0110164 -0.190258 0)
(-0.0133122 -0.189117 0)
(-0.0157129 -0.187766 0)
(-0.0181966 -0.186184 0)
(-0.0207088 -0.184302 0)
(-0.0232358 -0.18204 0)
(-0.0258548 -0.179374 0)
(-0.0285509 -0.176615 0)
(-0.0311668 -0.173731 0)
(-0.0336464 -0.170491 0)
(-0.0359357 -0.166956 0)
(-0.0379708 -0.163102 0)
(-0.0398426 -0.158645 0)
(-0.0416629 -0.153658 0)
(-0.043199 -0.148485 0)
(-0.0442447 -0.143297 0)
(-0.0449693 -0.137689 0)
(-0.0450819 -0.131522 0)
(-0.000780054 -0.1782 0)
(-0.00246689 -0.190145 0)
(-0.00436102 -0.189702 0)
(-0.00616146 -0.189025 0)
(-0.00806752 -0.188131 0)
(-0.0100296 -0.187017 0)
(-0.0120639 -0.185692 0)
(-0.0141755 -0.18417 0)
(-0.0163668 -0.182467 0)
(-0.0186453 -0.18062 0)
(-0.0209635 -0.178617 0)
(-0.0232212 -0.176389 0)
(-0.0254171 -0.173798 0)
(-0.0276259 -0.170862 0)
(-0.0298207 -0.167678 0)
(-0.031937 -0.1642 0)
(-0.0339362 -0.160411 0)
(-0.0357214 -0.156411 0)
(-0.0371582 -0.152148 0)
(-0.0381918 -0.14754 0)
(-0.0388686 -0.142612 0)
(-0.0393082 -0.137454 0)
(-0.039159 -0.131933 0)
(-0.000693515 -0.177263 0)
(-0.00211533 -0.189105 0)
(-0.00378721 -0.188696 0)
(-0.00535255 -0.188007 0)
(-0.00703708 -0.187106 0)
(-0.00878428 -0.185979 0)
(-0.0106168 -0.184627 0)
(-0.0125305 -0.18306 0)
(-0.0145046 -0.181271 0)
(-0.0165182 -0.179246 0)
(-0.0185658 -0.176988 0)
(-0.020646 -0.174511 0)
(-0.0227222 -0.171864 0)
(-0.0247295 -0.169022 0)
(-0.0266401 -0.165926 0)
(-0.0284331 -0.162577 0)
(-0.0300599 -0.158983 0)
(-0.031489 -0.155108 0)
(-0.0326881 -0.150981 0)
(-0.0335603 -0.146649 0)
(-0.0340304 -0.142163 0)
(-0.0341864 -0.137502 0)
(-0.0338377 -0.132573 0)
(-0.000544425 -0.175638 0)
(-0.0017257 -0.187191 0)
(-0.00317902 -0.186768 0)
(-0.00450477 -0.185979 0)
(-0.00595692 -0.184977 0)
(-0.00746411 -0.183744 0)
(-0.00905727 -0.182297 0)
(-0.0107475 -0.180668 0)
(-0.0125231 -0.17887 0)
(-0.0143619 -0.176904 0)
(-0.0162298 -0.174757 0)
(-0.018088 -0.172406 0)
(-0.0199152 -0.169831 0)
(-0.0216993 -0.167034 0)
(-0.0234052 -0.164031 0)
(-0.0249926 -0.160821 0)
(-0.0264257 -0.157406 0)
(-0.0276574 -0.153804 0)
(-0.0286388 -0.150013 0)
(-0.0293094 -0.146039 0)
(-0.0296123 -0.141923 0)
(-0.0295933 -0.137712 0)
(-0.0291273 -0.133355 0)
(-0.000384995 -0.174874 0)
(-0.00133631 -0.186213 0)
(-0.00261243 -0.185795 0)
(-0.00371394 -0.184956 0)
(-0.00494116 -0.183917 0)
(-0.00619101 -0.182636 0)
(-0.00743769 -0.181073 0)
(-0.00873336 -0.179307 0)
(-0.0101456 -0.17738 0)
(-0.0117102 -0.175296 0)
(-0.0134182 -0.173084 0)
(-0.0152034 -0.170729 0)
(-0.0169528 -0.168185 0)
(-0.0186416 -0.165453 0)
(-0.0202253 -0.162533 0)
(-0.0216704 -0.159435 0)
(-0.0229459 -0.156184 0)
(-0.0240176 -0.152778 0)
(-0.0248528 -0.149227 0)
(-0.0254052 -0.145556 0)
(-0.0256154 -0.141804 0)
(-0.0254996 -0.138014 0)
(-0.0249925 -0.134183 0)
(-0.000134976 -0.173987 0)
(-0.000944576 -0.18495 0)
(-0.0021687 -0.184532 0)
(-0.00311518 -0.183652 0)
(-0.00419237 -0.182587 0)
(-0.00523897 -0.181279 0)
(-0.00623409 -0.179728 0)
(-0.00718372 -0.17791 0)
(-0.00813117 -0.175826 0)
(-0.00914397 -0.173561 0)
(-0.0102981 -0.171149 0)
(-0.0116612 -0.168666 0)
(-0.013244 -0.166147 0)
(-0.014968 -0.163584 0)
(-0.0166825 -0.160908 0)
(-0.0182337 -0.158076 0)
(-0.0195131 -0.155053 0)
(-0.0205515 -0.151871 0)
(-0.021323 -0.148562 0)
(-0.0218164 -0.145177 0)
(-0.0219958 -0.14175 0)
(-0.0218644 -0.138336 0)
(-0.0213998 -0.134969 0)
(9.06484e-05 -0.173584 0)
(-0.000718415 -0.183855 0)
(-0.00215342 -0.183457 0)
(-0.00312385 -0.182604 0)
(-0.00421587 -0.181556 0)
(-0.00524843 -0.180353 0)
(-0.00622686 -0.178941 0)
(-0.00713575 -0.177243 0)
(-0.0079576 -0.175221 0)
(-0.00870368 -0.172898 0)
(-0.00942914 -0.170346 0)
(-0.0101944 -0.167638 0)
(-0.0110362 -0.164836 0)
(-0.0119311 -0.161954 0)
(-0.0129788 -0.159117 0)
(-0.0142098 -0.156326 0)
(-0.0155641 -0.153564 0)
(-0.0168639 -0.15078 0)
(-0.0178533 -0.14787 0)
(-0.0184283 -0.144821 0)
(-0.018678 -0.1417 0)
(-0.0186159 -0.138611 0)
(-0.0182769 -0.135632 0)
(0.000206571 -0.173513 0)
(-0.000889515 -0.182766 0)
(-0.00290708 -0.182391 0)
(-0.00421877 -0.181646 0)
(-0.0056284 -0.180681 0)
(-0.0068526 -0.179497 0)
(-0.00802483 -0.178113 0)
(-0.00906217 -0.176477 0)
(-0.00994382 -0.174602 0)
(-0.0105921 -0.172429 0)
(-0.0110008 -0.169967 0)
(-0.011251 -0.167278 0)
(-0.0114592 -0.164448 0)
(-0.0117075 -0.16151 0)
(-0.0120116 -0.158489 0)
(-0.0123911 -0.155457 0)
(-0.0128635 -0.152471 0)
(-0.01337 -0.149561 0)
(-0.0140505 -0.146805 0)
(-0.0147933 -0.144105 0)
(-0.0153908 -0.141402 0)
(-0.0156098 -0.138686 0)
(-0.0155236 -0.136047 0)
(0.000185758 -0.173575 0)
(-0.00165996 -0.181442 0)
(-0.00455267 -0.181118 0)
(-0.00659627 -0.180566 0)