/*--------------------------------*- C++ -*----------------------------------*\
| =========                 |                                                 |
| \\      /  F ield         | OpenFOAM: The Open Source CFD Toolbox           |
|  \\    /   O peration     | Version:  2.4.0                                 |
|   \\  /    A nd           | Web:      www.OpenFOAM.org                      |
|    \\/     M anipulation  |                                                 |
\*---------------------------------------------------------------------------*/
FoamFile
{
    version     2.0;
    format      ascii;
    class       volScalarField;
    location    "0.6";
    object      alpha.oil;
}
// * * * * * * * * * * * * * * * * * * * * * * * * * * * * * * * * * * * * * //

dimensions      [0 0 0 0 0 0 0];

internalField   nonuniform List<scalar> 
575
(
1.6513e-10
1.37259e-10
1.22192e-10
1.28316e-10
7.09728e-11
5.81424e-11
4.8765e-11
4.18682e-11
3.78118e-11
2.86681e-11
2.26905e-11
2.01063e-11
1.94244e-11
1.37737e-11
1.02846e-11
8.95712e-12
8.40459e-12
5.85238e-12
4.1471e-12
3.35808e-12
2.92304e-12
2.05985e-12
1.44734e-12
1.11783e-12
8.9757e-13
6.50001e-13
4.5935e-13
3.4031e-13
2.33217e-13
1.74691e-13
1.26373e-13
9.20568e-14
5.16621e-14
4.0166e-14
3.00326e-14
2.25228e-14
9.71942e-15
7.93014e-15
6.22555e-15
5.0961e-15
1.5568e-15
1.34184e-15
1.14022e-15
1.16708e-15
2.13672e-16
1.97962e-16
1.92498e-16
2.91534e-16
2.53426e-17
2.57673e-17
3.13025e-17
7.79365e-17
2.63508e-18
3.15811e-18
6.11334e-18
2.7334e-17
2.5069e-19
4.3882e-19
1.75083e-18
1.18453e-17
2.38392e-20
7.74477e-20
5.25367e-19
4.30772e-18
3.3557e-21
2.41088e-20
2.2496e-19
2.06692e-18
6.6018e-22
7.22132e-21
8.05539e-20
8.43032e-19
1.1391e-22
1.53879e-21
1.98202e-20
2.37115e-19
1.73084e-23
2.75026e-22
4.07961e-21
5.60321e-20
1.99069e-24
3.74399e-23
6.50704e-22
1.04131e-20
2.07381e-25
4.68461e-24
9.66337e-23
1.81519e-21
1.85231e-26
5.30533e-25
1.38877e-23
3.29376e-22
2.16096e-27
7.2104e-26
2.27068e-24
6.65064e-23
5.08421e-29
2.25596e-27
9.0175e-26
3.251e-24
2.69754e-10
6.68439e-10
2.09938e-09
5.20162e-09
1.75338e-08
3.69366e-08
1.28729e-07
3.9521e-07
8.88276e-06
0.000958761
0.0136056
0.124446
0.540162
0.927134
0.985251
0.992624
0.994187
0.995393
0.995111
3.7425e-11
2.07544e-10
1.0014e-09
3.68532e-09
1.18678e-08
3.35273e-08
8.35385e-08
1.78004e-07
7.65292e-07
6.01244e-06
0.000306848
0.00543344
0.0332571
0.172397
0.360181
0.506138
0.629107
0.782265
0.916971
2.08213e-11
3.47778e-11
4.4227e-10
1.75143e-09
6.91345e-09
2.26094e-08
6.12822e-08
1.40947e-07
3.00576e-07
9.47175e-07
3.31505e-06
9.74473e-05
0.000835648
0.00332436
0.0099686
0.0217772
0.0316278
0.104576
0.55522
9.8064e-12
1.75033e-11
1.62604e-10
7.57428e-10
3.29952e-09
1.31288e-08
4.26255e-08
1.09876e-07
2.42187e-07
6.1549e-07
1.63995e-06
2.61883e-06
4.38336e-06
8.68122e-06
1.49394e-05
3.09399e-05
6.88096e-05
0.0192986
0.578913
3.76862e-12
1.06205e-11
5.3031e-11
2.93328e-10
1.43993e-09
6.54176e-09
2.67382e-08
8.46302e-08
2.08741e-07
5.5081e-07
1.13913e-06
2.15152e-06
2.61456e-06
2.95841e-06
3.00652e-06
2.21022e-06
1.88808e-06
9.7193e-05
0.632816
1.17702e-12
3.25666e-12
1.72377e-11
9.30474e-11
5.20442e-10
2.67532e-09
1.24983e-08
5.01435e-08
1.48209e-07
4.92232e-07
1.05147e-06
1.98635e-06
2.32002e-06
2.71529e-06
2.6481e-06
1.89846e-06
1.67866e-06
1.69806e-05
0.471657
3.26339e-13
8.42422e-13
4.8824e-12
2.83009e-11
1.57567e-10
9.20991e-10
5.15425e-09
2.69355e-08
1.13575e-07
3.80011e-07
9.54852e-07
1.82881e-06
2.16521e-06
2.49133e-06
2.28461e-06
1.70309e-06
1.47671e-06
8.5591e-06
0.406563
7.96586e-14
1.6882e-13
1.07017e-12
7.00211e-12
4.32049e-11
2.56143e-10
1.60227e-09
9.97163e-09
5.41327e-08
2.23136e-07
7.09104e-07
1.48449e-06
2.04832e-06
2.22374e-06
1.88796e-06
1.3831e-06
1.24521e-06
5.71176e-06
0.402417
2.01752e-14
4.63003e-14
2.97328e-13
1.93164e-12
1.18181e-11
7.03286e-11
4.27519e-10
2.70476e-09
1.62294e-08
8.3298e-08
3.37214e-07
9.81086e-07
1.70797e-06
1.77683e-06
1.32602e-06
9.83788e-07
1.06599e-06
4.4393e-06
0.335052
5.90734e-15
2.3386e-14
1.63666e-13
1.05038e-12
5.95821e-12
3.01806e-11
1.41779e-10
6.68013e-10
3.41779e-09
1.84774e-08
9.00052e-08
3.7886e-07
1.02409e-06
1.05332e-06
7.01375e-07
7.3657e-07
1.05652e-06
4.41436e-06
0.235216
2.28965e-15
1.54118e-14
1.19631e-13
8.18307e-13
4.85143e-12
2.47942e-11
1.09058e-10
4.16199e-10
1.4334e-09
4.99881e-09
2.05925e-08
9.13455e-08
3.17945e-07
4.02216e-07
3.90792e-07
7.85358e-07
1.19383e-06
3.01905e-05
0.136105
9.5515e-16
8.47188e-15
7.2354e-14
5.3733e-13
3.4424e-12
1.89162e-11
8.87136e-11
3.53508e-10
1.19412e-09
3.46045e-09
9.04307e-09
2.4349e-08
7.50273e-08
1.96352e-07
4.07447e-07
9.25917e-07
1.4246e-06
0.000264863
0.0499743
3.69533e-16
3.95075e-15
3.79489e-14
3.14858e-13
2.24585e-12
1.37038e-11
7.12148e-11
3.13939e-10
1.16998e-09
3.68486e-09
9.90441e-09
2.29571e-08
4.87697e-08
2.86576e-07
8.74815e-07
1.10879e-06
1.8131e-06
0.000717498
0.0108938
1.67375e-16
2.04766e-15
2.18705e-14
2.01062e-13
1.58475e-12
1.06556e-11
6.08321e-11
2.93737e-10
1.19713e-09
4.11634e-09
1.21586e-08
3.12027e-08
1.11963e-07
1.14046e-06
2.59897e-05
7.70821e-06
7.83376e-06
0.000882407
0.00105306
8.47352e-17
1.16734e-15
1.39841e-14
1.44577e-13
1.28265e-12
9.69478e-12
6.20251e-11
3.34366e-10
1.51598e-09
5.78496e-09
1.91441e-08
5.89592e-08
2.99884e-07
1.59047e-05
8.96502e-05
1.41025e-05
2.59406e-05
0.000185892
0.000191507
3.44349e-17
5.33035e-16
7.2419e-15
8.56111e-14
8.7316e-13
7.61443e-12
5.62401e-11
3.50094e-10
1.83193e-09
8.03106e-09
2.91673e-08
1.31976e-07
1.04762e-06
3.66523e-05
0.000197138
2.25949e-05
2.55838e-05
0.000164075
0.00282409
1.78089e-17
2.95162e-16
4.27426e-15
5.41083e-14
5.97571e-13
5.729e-12
4.75039e-11
3.40403e-10
2.11125e-09
1.13676e-08
5.21451e-08
1.91399e-07
7.73823e-07
1.36181e-05
0.000204439
0.00103223
0.00177245
0.0190869
0.128521
8.1694e-18
1.51893e-16
2.44614e-15
3.40734e-14
4.10494e-13
4.29205e-12
3.93249e-11
3.20679e-10
2.34427e-09
1.50268e-08
7.4845e-08
3.16631e-07
1.24261e-06
2.08438e-06
9.65814e-05
0.00588225
0.0897797
0.348135
0.693694
2.62796e-18
5.63603e-17
1.04087e-15
1.64602e-14
2.22176e-13
2.56144e-12
2.5381e-11
2.18763e-10
1.67422e-09
1.12548e-08
6.08259e-08
2.61711e-07
1.09149e-06
1.99414e-06
8.72139e-05
0.00983216
0.212853
0.772344
0.979328
7.11665e-19
1.74549e-17
3.64264e-16
6.42427e-15
9.5181e-14
1.17797e-12
1.21511e-11
1.05273e-10
7.78324e-10
4.86785e-09
2.5761e-08
1.13811e-07
5.55745e-07
1.39192e-06
3.73497e-05
0.00423427
0.124993
0.776744
0.985829
1.5302e-19
4.31098e-18
1.01825e-16
2.00512e-15
3.27398e-14
4.40164e-13
4.83757e-12
4.33021e-11
3.16822e-10
1.91102e-09
9.64212e-09
4.09215e-08
1.45582e-07
6.1437e-07
5.67338e-06
0.000274989
0.00800936
0.353377
0.985829
3.09668e-20
1.00346e-18
2.68865e-17
5.93662e-16
1.07403e-14
1.57984e-13
1.87009e-12
1.76141e-11
1.31071e-10
7.69082e-10
3.59794e-09
1.37514e-08
4.50816e-08
1.94287e-07
9.35299e-07
4.8024e-06
5.6152e-05
0.0801194
0.979142
7.02422e-21
2.81321e-19
9.19056e-18
2.45205e-16
5.33177e-15
9.38972e-14
1.325e-12
1.47595e-11
1.27659e-10
8.45481e-10
4.25587e-09
1.63391e-08
7.10377e-08
2.3662e-07
5.66584e-07
3.76834e-07
2.63855e-06
0.0155499
0.841499
1.7888e-21
9.30123e-20
3.93192e-18
1.33683e-16
3.63085e-15
7.82735e-14
1.32534e-12
1.73721e-11
1.7377e-10
1.30905e-09
7.34325e-09
3.08527e-08
9.69653e-08
2.97529e-07
5.41434e-07
3.36691e-07
4.57474e-07
0.0014344
0.39487
1.05635e-22
6.79582e-21
3.55678e-19
1.49734e-17
5.04269e-16
1.35321e-14
2.87102e-13
4.74739e-12
5.96977e-11
5.50009e-10
3.5274e-09
1.51982e-08
4.37404e-08
7.60681e-08
1.50533e-07
1.63077e-08
4.45678e-07
3.05677e-05
0.027858
)
;

boundaryField
{
    leftWall
    {
        type            zeroGradient;
    }
    rightWall
    {
        type            zeroGradient;
    }
    lowerWall
    {
        type            zeroGradient;
    }
    atmosphere
    {
        type            inletOutlet;
        inletValue      uniform 0;
        value           nonuniform List<scalar> 
23
(
5.08421e-29
2.25596e-27
9.0175e-26
3.251e-24
1.05635e-22
6.79582e-21
3.55678e-19
1.49734e-17
5.04269e-16
1.35321e-14
2.87102e-13
4.74739e-12
5.96977e-11
5.50009e-10
3.5274e-09
1.51982e-08
4.37404e-08
7.60681e-08
1.50533e-07
0
4.45678e-07
0
0
)
;
    }
    defaultFaces
    {
        type            empty;
    }
    procBoundary3to1
    {
        type            processor;
        value           nonuniform List<scalar> 
23
(
4.55602e-10
4.3721e-10
4.49359e-10
5.61055e-10
8.92118e-10
2.11854e-09
4.19823e-09
1.08483e-08
2.32303e-08
8.00536e-08
2.53779e-07
2.66587e-06
0.000167061
0.026009
0.307372
0.813538
0.986076
0.993654
0.987108
0.972735
0.967283
0.96866
0.964187
)
;
    }
    procBoundary3to2
    {
        type            processor;
        value           nonuniform List<scalar> 
25
(
3.32303e-10
1.6645e-10
1.15673e-10
5.64107e-11
2.11233e-11
6.8699e-12
1.77678e-12
4.61331e-13
9.28357e-14
1.52941e-14
2.11351e-15
2.46822e-16
2.44909e-17
2.09729e-18
1.57194e-19
1.05211e-20
6.85023e-22
5.24224e-23
4.95195e-24
5.3432e-25
4.87208e-26
4.07476e-27
2.85849e-28
2.95533e-29
4.68488e-31
)
;
    }
}


// ************************************************************************* //
