/*--------------------------------*- C++ -*----------------------------------*\
| =========                 |                                                 |
| \\      /  F ield         | OpenFOAM: The Open Source CFD Toolbox           |
|  \\    /   O peration     | Version:  2.4.0                                 |
|   \\  /    A nd           | Web:      www.OpenFOAM.org                      |
|    \\/     M anipulation  |                                                 |
\*---------------------------------------------------------------------------*/
FoamFile
{
    version     2.0;
    format      ascii;
    class       volScalarField;
    location    "0.6";
    object      alpha.mercury;
}
// * * * * * * * * * * * * * * * * * * * * * * * * * * * * * * * * * * * * * //

dimensions      [0 0 0 0 0 0 0];

internalField   nonuniform List<scalar> 
575
(
3.62784e-16
1.8089e-15
8.74455e-15
3.89513e-14
6.24864e-17
3.78799e-16
2.12164e-15
1.07035e-14
1.00117e-17
7.20514e-17
4.69263e-16
2.72599e-15
1.84056e-18
1.40506e-17
9.8045e-17
6.17379e-16
1.88219e-19
1.64694e-18
1.34713e-17
1.00769e-16
1.85567e-20
1.72298e-19
1.57096e-18
1.32908e-17
1.37471e-21
1.25366e-20
1.27105e-19
1.24107e-18
1.50049e-22
9.86322e-22
8.79013e-21
8.82781e-20
2.95607e-23
1.46817e-22
8.53325e-22
6.2224e-21
7.98765e-24
4.09465e-23
2.06753e-22
1.04801e-21
2.45033e-24
1.38097e-23
7.40829e-23
3.76156e-22
7.70813e-25
4.82941e-24
2.85167e-23
1.5815e-22
2.50191e-25
1.74047e-24
1.1351e-23
6.91825e-23
8.04304e-26
6.22968e-25
4.50851e-24
3.04257e-23
2.48952e-26
2.15304e-25
1.73764e-24
1.30667e-23
7.15416e-27
6.93041e-26
6.26163e-25
5.27187e-24
1.84e-27
2.00425e-26
2.03488e-25
1.92478e-24
4.0853e-28
5.0294e-27
5.7621e-26
6.14199e-25
7.41396e-29
1.03708e-27
1.34617e-26
1.62238e-25
1.07912e-29
1.73493e-28
2.58786e-27
3.58437e-26
1.19674e-30
2.27053e-29
3.98205e-28
6.45401e-27
1.26423e-31
2.89472e-30
6.06321e-29
1.15979e-27
1.21836e-32
3.48727e-31
9.12342e-30
2.16359e-28
1.46811e-33
4.76957e-32
1.46405e-30
4.1843e-29
3.65905e-35
1.55693e-33
6.01695e-32
2.10682e-30
1.5614e-13
1.03844e-12
5.49959e-12
2.34282e-11
9.93309e-11
2.8505e-10
9.48927e-10
1.98125e-09
5.28849e-09
1.12842e-08
1.27592e-08
1.27612e-07
3.55165e-06
2.4085e-05
6.45062e-05
0.000151717
0.00026775
0.000438195
0.000607817
4.78423e-14
3.65236e-13
2.32654e-12
1.2502e-11
5.53297e-11
1.99723e-10
5.93456e-10
1.44457e-09
3.37257e-09
7.43376e-09
1.10653e-08
8.13434e-09
3.06004e-08
1.1018e-06
8.40995e-06
2.18051e-05
3.19075e-05
1.84114e-05
2.31452e-05
1.40147e-14
1.25782e-13
9.36865e-13
5.76882e-12
2.9085e-11
1.19734e-10
4.00523e-10
1.09345e-09
2.65425e-09
6.37174e-09
1.3154e-08
6.56529e-09
4.99435e-09
7.74462e-09
5.5365e-08
1.5562e-07
1.68716e-07
1.50366e-08
2.15287e-08
3.48923e-15
3.54737e-14
3.07922e-13
2.22532e-12
1.3173e-11
6.42064e-11
2.66168e-10
8.38133e-10
2.22317e-09
6.00819e-09
1.31386e-08
7.37064e-09
4.99944e-09
4.99411e-09
7.14724e-09
1.10036e-08
6.75139e-09
2.48406e-09
5.36423e-10
6.82792e-16
8.48629e-15
8.88244e-14
7.74711e-13
5.61101e-12
3.38546e-11
1.66918e-10
6.4621e-10
1.92524e-09
5.47625e-09
1.19589e-08
1.16181e-08
5.47243e-09
4.99955e-09
8.10861e-09
1.47285e-08
1.32285e-08
5.58108e-09
5.36499e-10
1.03008e-16
1.50642e-15
1.8816e-14
1.98058e-13
1.76157e-12
1.30831e-11
7.91645e-11
3.94549e-10
1.43511e-09
4.92815e-09
1.1183e-08
1.83779e-08
9.50468e-09
4.99538e-09
9.07454e-09
1.29981e-08
1.10795e-08
6.50133e-09
6.11396e-10
1.12657e-17
1.96886e-16
2.96894e-15
3.85563e-14
4.3091e-13
4.06628e-12
3.15277e-11
2.0954e-10
1.03824e-09
3.81418e-09
1.00029e-08
1.86383e-08
1.87271e-08
8.34016e-09
1.17378e-08
1.19125e-08
9.04722e-09
5.84374e-09
7.03993e-10
8.9021e-19
1.80616e-17
3.23992e-16
5.10996e-15
7.04116e-14
8.37962e-13
8.43742e-12
6.98065e-11
4.61814e-10
2.17146e-09
7.25379e-09
1.54992e-08
1.88903e-08
1.52398e-08
1.21466e-08
9.77274e-09
6.43701e-09
5.17251e-09
7.10983e-10
5.6278e-20
1.19378e-18
2.43376e-17
4.52349e-16
7.48206e-15
1.08678e-13
1.36249e-12
1.43291e-11
1.20242e-10
7.50817e-10
3.32656e-09
9.93169e-09
1.65853e-08
1.28629e-08
9.06286e-09
5.58272e-09
4.4543e-09
4.53413e-09
7.01393e-10
5.74181e-21
7.81616e-20
1.34777e-18
2.59001e-17
4.84886e-16
8.243e-15
1.22892e-13
1.56407e-12
1.64266e-11
1.35988e-10
8.26018e-10
3.78334e-09
9.96979e-09
7.59731e-09
4.58551e-09
1.80248e-09
3.03797e-09
3.67827e-09
6.78597e-10
1.81364e-21
1.6681e-20
1.52114e-19
1.64599e-18
2.38658e-17
4.08438e-16
6.89904e-15
1.0461e-13
1.35504e-12
1.45383e-11
1.2666e-10
7.95283e-10
3.04426e-09
2.51197e-09
1.16773e-09
2.02128e-10
1.90646e-09
2.84446e-09
5.55474e-10
8.20586e-22
7.8362e-21
6.56586e-20
4.89167e-19
3.43544e-18
2.69826e-17
2.95499e-16
4.24045e-15
6.35371e-14
8.85146e-13
1.00017e-11
8.62076e-11
4.89778e-10
3.71889e-10
5.23906e-11
8.7924e-12
1.42678e-09
2.33201e-09
5.24532e-10
3.93135e-22
4.1469e-21
3.80487e-20
3.0281e-19
2.08658e-18
1.24725e-17
6.64883e-17
3.58773e-16
2.6832e-15
3.2586e-14
3.91335e-13
3.74458e-12
1.63715e-11
3.85004e-12
1.98343e-12
2.75612e-12
1.14971e-09
1.73542e-09
3.54256e-10
1.91116e-22
2.24636e-21
2.29613e-20
2.03389e-19
1.55631e-18
1.02392e-17
5.76775e-17
2.77674e-16
1.15355e-15
4.38761e-15
1.81289e-14
9.08333e-14
4.9839e-13
3.29356e-13
5.1968e-13
2.01344e-12
8.45494e-10
9.79302e-10
1.18465e-10
9.14545e-23
1.21045e-21
1.39535e-20
1.39696e-19
1.21137e-18
9.063e-18
5.83048e-17
3.21904e-16
1.52527e-15
6.20907e-15
2.2209e-14
7.19464e-14
2.01698e-13
6.30247e-13
2.56863e-12
5.4183e-11
4.73625e-10
4.24255e-10
2.63124e-11
4.1344e-23
6.1947e-22
8.10546e-21
9.24395e-20
9.18816e-19
7.95897e-18
5.99817e-17
3.93202e-16
2.23843e-15
1.10702e-14
4.81737e-14
1.88392e-13
6.5811e-13
2.52138e-12
1.2521e-11
1.23813e-10
2.71014e-10
1.38901e-10
1.13921e-11
1.69654e-23
2.87966e-22
4.27392e-21
5.56507e-20
6.37301e-19
6.42738e-18
5.72523e-17
4.51658e-16
3.15062e-15
1.92579e-14
1.0178e-13
4.60487e-13
1.80569e-12
6.15966e-12
2.63454e-11
9.28676e-11
1.06407e-10
2.54981e-11
9.02285e-12
6.09076e-24
1.17113e-22
1.97623e-21
2.92956e-20
3.82719e-19
4.4404e-18
4.63203e-17
4.39615e-16
3.79498e-15
2.89381e-14
1.82431e-13
8.6365e-13
2.80143e-12
6.46578e-12
1.2846e-11
2.31276e-11
1.05833e-11
6.02457e-12
8.52101e-12
1.82021e-24
3.98547e-23
7.59638e-22
1.25777e-20
1.81239e-19
2.28883e-18
2.5656e-17
2.58939e-16
2.3632e-15
1.90125e-14
1.25926e-13
6.17724e-13
2.01443e-12
4.22705e-12
5.97569e-12
3.30257e-12
2.04208e-12
4.15101e-12
7.99025e-12
4.61371e-25
1.1547e-23
2.47886e-22
4.54806e-21
7.12528e-20
9.54564e-19
1.09929e-17
1.09861e-16
9.63159e-16
7.41099e-15
4.86363e-14
2.54801e-13
9.75608e-13
2.50412e-12
3.897e-12
3.40744e-12
1.82827e-12
2.69595e-12
7.18841e-12
9.64771e-26
2.78065e-24
6.76205e-23
1.38253e-21
2.37061e-20
3.39859e-19
4.06362e-18
4.05402e-17
3.39306e-16
2.41136e-15
1.46864e-14
7.56192e-14
3.16367e-13
1.05295e-12
2.15764e-12
2.23067e-12
1.28406e-12
1.83057e-12
6.12199e-12
2.0211e-26
6.72173e-25
1.85841e-23
4.26205e-22
8.0722e-21
1.25499e-19
1.58848e-18
1.62286e-17
1.33086e-16
8.7867e-16
4.73656e-15
2.13384e-14
8.33136e-14
3.21285e-13
7.8142e-13
1.07228e-12
7.49671e-13
1.17235e-12
4.83768e-12
4.61649e-27
1.85168e-25
6.06302e-24
1.62178e-22
3.53539e-21
6.24108e-20
8.82873e-19
9.86579e-18
8.57564e-17
5.72841e-16
2.92971e-15
1.15879e-14
3.69818e-14
1.02141e-13
2.41193e-13
5.24502e-13
4.60553e-13
8.92318e-13
3.41854e-12
1.0995e-27
5.58736e-26
2.3094e-24
7.68117e-23
2.04236e-21
4.31436e-20
7.16646e-19
9.22597e-18
9.06945e-17
6.70476e-16
3.66819e-15
1.4835e-14
4.40453e-14
9.94648e-14
1.62715e-13
2.25764e-13
3.16874e-13
7.57052e-13
2.17835e-12
6.66629e-29
4.1818e-27
2.13696e-25
8.79494e-24
2.90029e-22
7.6372e-21
1.59474e-19
2.60668e-18
3.26212e-17
3.02305e-16
1.98077e-15
8.87951e-15
2.72065e-14
4.83993e-14
7.68898e-14
7.09989e-15
2.52098e-13
4.60184e-13
1.19917e-12
)
;

boundaryField
{
    leftWall
    {
        type            zeroGradient;
    }
    rightWall
    {
        type            zeroGradient;
    }
    lowerWall
    {
        type            zeroGradient;
    }
    atmosphere
    {
        type            inletOutlet;
        inletValue      uniform 0;
        value           nonuniform List<scalar> 
23
(
3.65905e-35
1.55693e-33
6.01695e-32
2.10682e-30
6.66629e-29
4.1818e-27
2.13696e-25
8.79494e-24
2.90029e-22
7.6372e-21
1.59474e-19
2.60668e-18
3.26212e-17
3.02305e-16
1.98077e-15
8.87951e-15
2.72065e-14
4.83993e-14
7.68898e-14
0
2.52098e-13
0
0
)
;
    }
    defaultFaces
    {
        type            empty;
    }
    procBoundary3to1
    {
        type            processor;
        value           nonuniform List<scalar> 
23
(
2.7823e-15
9.94699e-15
3.71852e-14
1.35304e-13
4.58713e-13
2.62461e-12
1.24263e-11
4.88504e-11
1.64731e-10
5.98844e-10
1.38807e-09
3.45519e-09
5.61665e-09
1.1027e-08
3.07449e-07
8.58539e-06
4.39699e-05
6.99967e-05
8.57058e-05
0.00024698
0.000600027
0.00142118
0.00256871
)
;
    }
    procBoundary3to2
    {
        type            processor;
        value           nonuniform List<scalar> 
25
(
4.31875e-17
5.47478e-18
7.21471e-19
1.26414e-19
1.27467e-20
1.44558e-21
1.49529e-22
2.12709e-23
3.87284e-24
8.48363e-25
2.18919e-25
6.0071e-26
1.71961e-26
4.90517e-27
1.34637e-27
3.42753e-28
7.78319e-29
1.51798e-29
2.40564e-30
3.02438e-31
2.82291e-32
2.43173e-33
1.87712e-34
2.06484e-35
3.5849e-37
)
;
    }
}


// ************************************************************************* //
