/*--------------------------------*- C++ -*----------------------------------*\
| =========                 |                                                 |
| \\      /  F ield         | OpenFOAM: The Open Source CFD Toolbox           |
|  \\    /   O peration     | Version:  2.4.0                                 |
|   \\  /    A nd           | Web:      www.OpenFOAM.org                      |
|    \\/     M anipulation  |                                                 |
\*---------------------------------------------------------------------------*/
FoamFile
{
    version     2.0;
    format      ascii;
    class       surfaceScalarField;
    location    "0.6";
    object      phi;
}
// * * * * * * * * * * * * * * * * * * * * * * * * * * * * * * * * * * * * * //

dimensions      [0 3 -1 0 0 0 0];

internalField   nonuniform List<scalar> 
1102
(
-1.55202e-05
-9.23037e-06
-1.60112e-05
-9.24985e-06
-1.66715e-05
-8.99647e-06
-8.83645e-06
-1.73796e-05
-1.4821e-05
-8.58439e-06
-1.55262e-05
-8.54482e-06
-1.62426e-05
-8.27991e-06
-8.00972e-06
-1.70694e-05
-1.38665e-05
-7.87926e-06
-1.46572e-05
-7.75388e-06
-1.53796e-05
-7.55755e-06
-7.29523e-06
-1.60941e-05
-1.44591e-05
-7.24801e-06
-1.51044e-05
-7.1087e-06
-1.56637e-05
-6.99826e-06
-6.79927e-06
-1.61597e-05
-1.3471e-05
-6.6105e-06
-1.40789e-05
-6.50066e-06
-1.45698e-05
-6.50751e-06
-6.33797e-06
-1.50311e-05
-1.35384e-05
-6.12303e-06
-1.40276e-05
-6.01151e-06
-1.45209e-05
-6.01424e-06
-5.91241e-06
-1.49465e-05
-1.27896e-05
-5.66253e-06
-1.33165e-05
-5.48458e-06
-1.39047e-05
-5.42608e-06
-5.37927e-06
-1.44379e-05
-1.2789e-05
-5.14019e-06
-1.32447e-05
-5.02897e-06
-1.37341e-05
-4.93663e-06
-4.88307e-06
-1.42304e-05
-1.25149e-05
-4.62483e-06
-1.2999e-05
-4.54477e-06
-1.3462e-05
-4.47372e-06
-4.40809e-06
-1.3937e-05
-1.21633e-05
-4.13467e-06
-1.26609e-05
-4.04721e-06
-1.31673e-05
-3.96732e-06
-3.87913e-06
-1.36963e-05
-1.19594e-05
-3.5925e-06
-1.24644e-05
-3.54224e-06
-1.29762e-05
-3.45557e-06
-3.37364e-06
-1.34817e-05
-1.1601e-05
-3.0982e-06
-1.21128e-05
-3.0304e-06
-1.26154e-05
-2.953e-06
-2.85624e-06
-1.31329e-05
-1.1257e-05
-2.59636e-06
-1.17614e-05
-2.52595e-06
-1.2274e-05
-2.44048e-06
-2.34191e-06
-1.27883e-05
-1.08437e-05
-2.12088e-06
-1.13388e-05
-2.03091e-06
-1.18414e-05
-1.93784e-06
-1.83151e-06
-1.23518e-05
-1.03896e-05
-1.65953e-06
-1.08675e-05
-1.55304e-06
-1.13592e-05
-1.44611e-06
-1.33005e-06
-1.18607e-05
-9.87583e-06
-1.2175e-06
-1.03358e-05
-1.09304e-06
-1.08119e-05
-9.70059e-07
-8.4046e-07
-1.13015e-05
-9.3037e-06
-7.945e-07
-9.74286e-06
-6.53882e-07
-1.02e-05
-5.1295e-07
-3.6906e-07
-1.06714e-05
-8.66785e-06
-3.92382e-07
-9.08573e-06
-2.35981e-07
-9.52062e-06
-7.80617e-08
8.20985e-08
-9.97178e-06
-7.9676e-06
-1.27908e-08
-8.36128e-06
1.57694e-07
-8.76842e-06
3.29086e-07
5.10688e-07
-9.19701e-06
-7.19418e-06
3.38915e-07
-7.56206e-06
5.25598e-07
-7.94769e-06
7.14707e-07
9.08983e-07
-8.34598e-06
-6.35016e-06
6.73514e-07
-6.69159e-06
8.67027e-07
-7.04767e-06
1.07079e-06
1.27917e-06
-7.41786e-06
-5.42281e-06
9.70743e-07
-5.73894e-06
1.18318e-06
-6.06716e-06
1.39901e-06
1.61796e-06
-6.40594e-06
-4.48525e-06
1.1348e-06
-4.69889e-06
1.39682e-06
-4.95258e-06
1.65271e-06
1.90772e-06
-5.24232e-06
-3.84549e-06
1.10858e-06
-3.86441e-06
1.41578e-06
-3.93563e-06
1.72396e-06
2.02852e-06
-4.05641e-06
-3.67098e-06
-3.56798e-06
-3.48711e-06
-3.43491e-06
-1.92234e-05
-2.01976e-05
-2.12625e-05
-1.92401e-05
-2.30392e-05
-1.80722e-05
-2.52466e-05
-1.6124e-05
-2.78046e-05
-1.31727e-05
-3.05377e-05
-8.01633e-06
-3.27632e-05
-3.12969e-07
-3.09844e-05
1.40042e-05
-2.50629e-05
4.64155e-05
-7.18109e-05
8.39492e-05
-0.000200605
9.01041e-05
-0.000233356
-6.84326e-06
-0.000183584
-5.68511e-05
-0.00017895
2.56229e-05
-0.000174409
6.65123e-05
-0.000161054
9.59964e-05
-0.000138735
8.97479e-05
-8.49223e-05
1.41467e-05
-1.32953e-05
-1.869e-05
-1.8577e-05
-1.99924e-05
-1.79376e-05
-2.09934e-05
-1.70709e-05
-2.22656e-05
-1.48515e-05
-2.32895e-05
-1.21486e-05
-2.28336e-05
-8.47195e-06
-2.04017e-05
-2.74478e-06
-1.24008e-05
6.00346e-06
8.46902e-06
2.55456e-05
4.06029e-05
5.18152e-05
5.48136e-06
0.000125226
-0.000112763
0.000111401
-0.000181078
1.14638e-05
-0.000185704
3.02485e-05
-0.000157274
3.80823e-05
-0.000125396
6.41181e-05
-9.91838e-05
6.35355e-05
-6.0454e-05
-2.45831e-05
-7.37493e-05
-1.75426e-05
-1.71285e-05
-1.88139e-05
-1.66661e-05
-1.9935e-05
-1.59497e-05
-2.06014e-05
-1.41849e-05
-2.03801e-05
-1.23697e-05
-1.82416e-05
-1.06102e-05
-1.31983e-05
-7.78797e-06
-2.91278e-06
-4.28195e-06
1.89153e-05
3.71764e-06
5.29425e-05
1.7788e-05
8.09153e-05
9.72526e-05
7.74861e-07
0.000191541
-0.000106642
0.000118881
-0.000144632
6.82377e-05
-0.000146234
3.96844e-05
-0.00012834
4.6224e-05
-0.00011545
5.0645e-05
-8.71713e-05
-5.28614e-05
-0.000160921
-1.72743e-05
-1.60139e-05
-1.79553e-05
-1.59851e-05
-1.87318e-05
-1.51731e-05
-1.91152e-05
-1.38014e-05
-1.83724e-05
-1.31122e-05
-1.60118e-05
-1.29707e-05
-1.12839e-05
-1.25157e-05
-1.64561e-06
-1.39201e-05
1.68656e-05
-1.47935e-05
4.31398e-05
-8.48623e-06
8.18352e-05
5.85571e-05
5.9399e-05
0.000213977
-1.52248e-05
0.000193504
-7.75944e-05
0.000130607
-9.49864e-05
5.70762e-05
-5.97092e-05
1.09466e-05
-1.4252e-05
5.18755e-06
-2.4231e-05
-4.28825e-05
-0.000185152
-1.62144e-05
-1.48307e-05
-1.73206e-05
-1.48788e-05
-1.8214e-05
-1.42796e-05
-1.85243e-05
-1.3491e-05
-1.78999e-05
-1.37365e-05
-1.62651e-05
-1.46053e-05
-1.29639e-05
-1.58167e-05
-5.8606e-06
-2.10233e-05
7.47585e-06
-2.81299e-05
2.43473e-05
-2.53577e-05
6.11477e-05
2.17566e-05
6.73668e-05
0.000207758
4.12476e-05
0.000219623
-4.27743e-06
0.000176132
-2.80422e-05
8.08408e-05
-1.38563e-05
-3.23945e-06
-8.40168e-07
-7.8287e-06
-2.93831e-07
-4.34289e-05
-0.000185445
-1.59789e-05
-1.37983e-05
-1.70023e-05
-1.38554e-05
-1.7919e-05
-1.33629e-05
-1.83364e-05
-1.30735e-05
-1.83982e-05
-1.36745e-05
-1.80591e-05
-1.49443e-05
-1.67831e-05
-1.70926e-05
-1.43743e-05
-2.3432e-05
-1.01325e-05
-3.23716e-05
-3.9968e-06
-3.14934e-05
2.91687e-05
-1.14089e-05
5.58306e-05
0.000181096
5.36058e-05
0.000221848
3.98584e-05
0.000189879
2.00321e-05
0.000100667
1.76377e-05
-8.45137e-07
1.73056e-05
-7.49677e-06
7.52679e-06
-3.36502e-05
-0.000177919
-1.56104e-05
-1.26258e-05
-1.68185e-05
-1.26474e-05
-1.78534e-05
-1.23279e-05
-1.8625e-05
-1.23017e-05
-1.93762e-05
-1.29233e-05
-2.02045e-05
-1.41159e-05
-2.11207e-05
-1.61762e-05
-2.36177e-05
-2.0935e-05
-2.80678e-05
-2.79214e-05
-2.67117e-05
-3.28496e-05
-1.23909e-05
-2.57298e-05
3.42214e-05
0.000134484
4.57944e-05
0.000210275
5.31769e-05
0.000182497
5.37469e-05
0.000100097
4.55916e-05
7.31005e-06
3.84055e-05
-3.10753e-07
1.22726e-05
-7.51726e-06
-0.000165646
-1.54199e-05
-1.14364e-05
-1.66672e-05
-1.14001e-05
-1.78108e-05
-1.11844e-05
-1.8958e-05
-1.11544e-05
-2.026e-05
-1.16211e-05
-2.19527e-05
-1.24231e-05
-2.43686e-05
-1.37603e-05
-2.88951e-05
-1.64084e-05
-3.67965e-05
-2.002e-05
-4.60041e-05
-2.3642e-05
-5.54228e-05
-1.63111e-05
-7.8517e-07
7.98463e-05
3.53205e-05
0.000174169
5.82327e-05
0.000159584
7.47842e-05
8.35452e-05
6.51517e-05
1.69425e-05
4.73295e-05
1.75114e-05
1.36791e-05
2.61332e-05
-0.000151967
-1.51778e-05
-1.01957e-05
-1.65119e-05
-1.0066e-05
-1.78142e-05
-9.88204e-06
-1.9235e-05
-9.73353e-06
-2.08805e-05
-9.97552e-06
-2.29883e-05
-1.03153e-05
-2.59952e-05
-1.07532e-05
-3.08426e-05
-1.1561e-05
-3.87661e-05
-1.20964e-05
-5.13319e-05
-1.10762e-05
-6.47462e-05
-2.89687e-06
-3.29194e-05
4.80195e-05
1.82097e-05
0.00012304
5.72258e-05
0.000120568
8.056e-05
6.02109e-05
7.17589e-05
2.57435e-05
4.70361e-05
4.22341e-05
1.48257e-05
5.83436e-05
-0.000137141
-1.50105e-05
-8.88153e-06
-1.63422e-05
-8.73433e-06
-1.77572e-05
-8.467e-06
-1.92797e-05
-8.21097e-06
-2.10833e-05
-8.17187e-06
-2.33133e-05
-8.08522e-06
-2.62389e-05
-7.8275e-06
-3.03987e-05
-7.40112e-06
-3.64275e-05
-6.06759e-06
-4.53108e-05
-2.19284e-06
-5.50692e-05
6.86156e-06
-4.27581e-05
3.57084e-05
1.36812e-06
7.89139e-05
4.68697e-05
7.50665e-05
6.75784e-05
3.95022e-05
6.25427e-05
3.07791e-05
4.24157e-05
6.23612e-05
1.8272e-05
8.24872e-05
-0.000118869
-1.4705e-05
-7.65831e-06
-1.61107e-05
-7.32863e-06
-1.75615e-05
-7.0162e-06
-1.91433e-05
-6.62909e-06
-2.09665e-05
-6.34863e-06
-2.30893e-05
-5.96231e-06
-2.56338e-05
-5.28292e-06
-2.87791e-05
-4.25573e-06
-3.24939e-05
-2.35278e-06
-3.69344e-05
2.24773e-06
-3.95416e-05
9.46874e-06
-3.01893e-05
2.63561e-05
-1.08767e-06
4.98123e-05
3.32359e-05
4.0743e-05
4.56635e-05
2.70745e-05
4.64196e-05
3.00229e-05
3.0396e-05
7.83848e-05
1.64454e-05
9.64378e-05
-0.000102424
-1.44262e-05
-6.36503e-06
-1.57959e-05
-5.95888e-06
-1.72676e-05
-5.54453e-06
-1.88473e-05
-5.04939e-06
-2.0606e-05
-4.58978e-06
-2.25397e-05
-4.02854e-06
-2.46384e-05
-3.18421e-06
-2.68598e-05
-2.03425e-06
-2.88648e-05
-3.47684e-07
-3.00958e-05
3.47877e-06
-2.88881e-05
8.26106e-06
-1.88179e-05
1.62859e-05
1.42669e-06
2.95677e-05
2.20539e-05
2.01157e-05
2.92809e-05
1.98475e-05
3.15173e-05
2.77865e-05
1.95259e-05
9.03763e-05
1.96574e-05
9.63064e-05
-8.27665e-05
-1.40383e-05
-5.11513e-06
-1.54091e-05
-4.58801e-06
-1.68742e-05
-4.07949e-06
-1.84294e-05
-3.49412e-06
-2.01062e-05
-2.91295e-06
-2.18629e-05
-2.27175e-06
-2.36108e-05
-1.43619e-06
-2.51998e-05
-4.45189e-07
-2.62316e-05
6.84085e-07
-2.57649e-05
3.01217e-06
-2.29592e-05
5.45534e-06
-1.39607e-05
7.2874e-06
7.21006e-07
1.48859e-05
1.32073e-05
7.62941e-06
1.82256e-05
1.48292e-05
1.66232e-05
2.93889e-05
1.01347e-05
9.68648e-05
1.73653e-05
8.90759e-05
-6.54012e-05
-1.36021e-05
-3.86489e-06
-1.49478e-05
-3.24232e-06
-1.63966e-05
-2.63071e-06
-1.79278e-05
-1.96287e-06
-1.9548e-05
-1.2927e-06
-2.12104e-05
-6.09259e-07
-2.27984e-05
1.51865e-07
-2.41177e-05
8.74154e-07
-2.47766e-05
1.34299e-06
-2.38281e-05
2.06376e-06
-2.04814e-05
2.1086e-06
-1.33027e-05
1.08738e-07
-2.53864e-06
4.12185e-06
5.87931e-06
-7.8855e-07
5.87285e-06
1.48357e-05
-3.36051e-06
3.86223e-05
-3.23711e-06
9.67414e-05
8.13333e-06
7.77055e-05
-5.72679e-05
-1.30873e-05
-2.63831e-06
-1.44123e-05
-1.91734e-06
-1.58429e-05
-1.20005e-06
-1.73648e-05
-4.40917e-07
-1.89693e-05
3.11753e-07
-2.06369e-05
1.05842e-06
-2.22529e-05
1.76792e-06
-2.3578e-05
2.19936e-06
-2.44374e-05
2.20236e-06
-2.39908e-05
1.61725e-06
-2.12898e-05
-5.92421e-07
-1.60994e-05
-5.08163e-06
-7.86781e-06
-4.10977e-06
-4.52354e-06
-4.13283e-06
-1.66107e-05
2.69228e-05
-3.50425e-05
5.70542e-05
-2.80292e-05
8.97281e-05
-8.02635e-06
5.77027e-05
-6.52942e-05
-1.25037e-05
-1.43615e-06
-1.38031e-05
-6.17909e-07
-1.52092e-05
2.06052e-07
-1.67227e-05
1.07269e-06
-1.83582e-05
1.94729e-06
-2.00865e-05
2.78676e-06
-2.18416e-05
3.52306e-06
-2.35921e-05
3.94989e-06
-2.5154e-05
3.76423e-06
-2.60054e-05
2.46866e-06
-2.55674e-05
-1.03041e-06
-2.33054e-05
-7.34367e-06
-1.86503e-05
-8.76486e-06
-2.65812e-05
3.79804e-06
-5.7299e-05
5.76406e-05
-8.42211e-05
8.39763e-05
-6.50056e-05
7.05126e-05
-1.83781e-05
1.10753e-05
-8.36723e-05
-1.18407e-05
-2.66791e-07
-1.31049e-05
6.46271e-07
-1.44939e-05
1.59509e-06
-1.60068e-05
2.58557e-06
-1.76767e-05
3.61729e-06
-1.95138e-05
4.62385e-06
-2.15385e-05
5.54777e-06
-2.37945e-05
6.20597e-06
-2.63184e-05
6.28817e-06
-2.90298e-05
5.18001e-06
-3.20222e-05
1.96199e-06
-3.53353e-05
-4.03059e-06
-4.39683e-05
-1.31862e-07
-7.86638e-05
3.84935e-05
-0.000120711
9.96874e-05
-0.000155886
0.000119152
-9.30424e-05
7.66878e-06
-1.08353e-05
-7.11318e-05
-9.45076e-05
-1.10954e-05
8.56817e-07
-1.23192e-05
1.87005e-06
-1.36714e-05
2.94732e-06
-1.51713e-05
4.08557e-06
-1.68542e-05
5.30021e-06
-1.87777e-05
6.54735e-06
-2.10498e-05
7.81987e-06
-2.38856e-05
9.04181e-06
-2.77669e-05
1.01695e-05
-3.36178e-05
1.10309e-05
-4.32365e-05
1.15807e-05
-6.08234e-05
1.35563e-05
-8.84387e-05
2.74834e-05
-0.000123101
7.31562e-05
-0.000134839
0.000111425
-0.000108653
9.29665e-05
-2.92788e-05
-7.17059e-05
-2.80191e-06
-9.76087e-05
-9.73095e-05
-1.02632e-05
1.92303e-06
-1.14336e-05
3.04044e-06
-1.27302e-05
4.24397e-06
-1.41799e-05
5.53527e-06
-1.58212e-05
6.94146e-06
-1.77212e-05
8.44738e-06
-2.00062e-05
1.01049e-05
-2.29234e-05
1.1959e-05
-2.6975e-05
1.42211e-05
-3.31809e-05
1.72368e-05
-4.35473e-05
2.19471e-05
-6.11323e-05
3.11413e-05
-8.59317e-05
5.22827e-05
-0.000102942
9.01665e-05
-9.58885e-05
0.000104371
-5.12116e-05
4.82896e-05
-1.50793e-05
-0.000107838
-4.01707e-06
-0.000108671
-0.000101327
-9.34932e-06
2.92637e-06
-1.04491e-05
4.14021e-06
-1.16693e-05
5.46415e-06
-1.30322e-05
6.89819e-06
-1.45749e-05
8.48421e-06
-1.63506e-05
1.02231e-05
-1.84434e-05
1.21977e-05
-2.1004e-05
1.45196e-05
-2.42608e-05
1.74779e-05
-2.85697e-05
2.15457e-05
-3.43227e-05
2.77001e-05
-4.12666e-05
3.80852e-05
-4.59358e-05
5.69519e-05
-4.29136e-05
8.71443e-05
-2.98794e-05
9.13371e-05
-1.22462e-05
3.06563e-05
-8.95242e-06
-0.000111132
-3.25543e-06
-0.000114368
-0.000104582
-8.34667e-06
3.85519e-06
-9.36369e-06
5.15724e-06
-1.04865e-05
6.58702e-06
-1.17294e-05
8.14104e-06
-1.31175e-05
9.87234e-06
-1.46819e-05
1.17874e-05
-1.64405e-05
1.39564e-05
-1.84199e-05
1.64991e-05
-2.05754e-05
1.96334e-05
-2.27279e-05
2.36982e-05
-2.4177e-05
2.91492e-05
-2.24303e-05
3.63386e-05
-1.13746e-05
4.58961e-05
1.36798e-05
6.20899e-05
4.79716e-05
5.70453e-05
5.14468e-05
2.7181e-05
7.11738e-06
-6.68025e-05
-2.43929e-06
-0.000104811
-0.000107021
-7.25663e-06
4.70589e-06
-8.19339e-06
6.09401e-06
-9.21796e-06
7.6116e-06
-1.03529e-05
9.27599e-06
-1.16025e-05
1.1122e-05
-1.29822e-05
1.31671e-05
-1.44767e-05
1.54509e-05
-1.60077e-05
1.80301e-05
-1.73618e-05
2.09875e-05
-1.81188e-05
2.44552e-05
-1.72672e-05
2.82976e-05
-1.23272e-05
3.13986e-05
-8.97159e-07
3.44661e-05
2.70763e-05
3.41164e-05
5.98595e-05
2.4262e-05
6.52387e-05
2.18018e-05
2.61322e-05
-2.76961e-05
1.97748e-06
-8.06565e-05
-0.000105044
-6.01378e-06
5.47738e-06
-6.86357e-06
6.94382e-06
-7.78249e-06
8.53054e-06
-8.7748e-06
1.02683e-05
-9.84772e-06
1.21949e-05
-1.10068e-05
1.43262e-05
-1.22433e-05
1.66874e-05
-1.34841e-05
1.92709e-05
-1.45136e-05
2.2017e-05
-1.48814e-05
2.48231e-05
-1.37439e-05
2.71601e-05
-9.78399e-06
2.74387e-05
-2.09111e-06
2.67732e-05
1.79647e-05
1.40606e-05
4.16775e-05
5.49162e-07
5.49533e-05
8.52595e-06
2.025e-05
7.00723e-06
8.50429e-06
-6.89108e-05
-9.65395e-05
-4.54002e-06
5.96102e-06
-5.21525e-06
7.61908e-06
-6.03117e-06
9.34648e-06
-6.96759e-06
1.12048e-05
-8.00748e-06
1.32348e-05
-9.15451e-06
1.54733e-05
-1.03997e-05
1.79326e-05
-1.16727e-05
2.0544e-05
-1.28595e-05
2.32038e-05
-1.3798e-05
2.57616e-05
-1.39766e-05
2.73386e-05
-1.32683e-05
2.67305e-05
-1.03122e-05
2.38171e-05
-5.08008e-06
8.82848e-06
-2.14821e-06
-2.38272e-06
3.31256e-05
-2.67479e-05
2.92279e-05
1.09049e-05
2.07929e-05
-6.04758e-05
-7.57466e-05
-3.45064e-06
-3.639e-06
-3.96342e-06
-4.38096e-06
-4.8688e-06
-5.42906e-06
-6.09017e-06
-6.91816e-06
-7.96833e-06
-9.23484e-06
-1.03093e-05
-1.01777e-05
-9.47964e-06
-1.47201e-06
-3.98994e-06
2.19179e-05
3.37893e-05
4.2451e-05
)
;

boundaryField
{
    leftWall
    {
        type            calculated;
        value           nonuniform 0();
    }
    rightWall
    {
        type            calculated;
        value           uniform 0;
    }
    lowerWall
    {
        type            calculated;
        value           nonuniform 0();
    }
    atmosphere
    {
        type            calculated;
        value           nonuniform List<scalar> 
23
(
9.87688e-07
1.3128e-06
1.64311e-06
1.97633e-06
5.97676e-06
7.80744e-06
9.67091e-06
1.16223e-05
1.37227e-05
1.60335e-05
1.85937e-05
2.1372e-05
2.4254e-05
2.70281e-05
2.84131e-05
2.65988e-05
2.31191e-05
8.20852e-07
1.3521e-07
-5.26558e-05
-9.66433e-07
-6.91375e-05
-3.32956e-05
)
;
    }
    defaultFaces
    {
        type            empty;
        value           nonuniform 0();
    }
    procBoundary3to1
    {
        type            processor;
        value           nonuniform List<scalar> 
23
(
9.70124e-06
9.74098e-06
9.65681e-06
9.54447e-06
2.20415e-05
2.12792e-05
1.98493e-05
1.83316e-05
1.57311e-05
1.07498e-05
2.53869e-06
-1.57826e-05
-5.2337e-05
-3.72012e-05
3.869e-05
3.95935e-05
7.07965e-06
-3.02567e-05
-7.1054e-05
-0.000109351
-0.000112067
-6.79592e-05
-7.1627e-05
)
;
    }
    procBoundary3to2
    {
        type            processor;
        value           nonuniform List<scalar> 
25
(
1.50494e-05
1.4175e-05
1.31615e-05
1.38279e-05
1.28335e-05
1.30508e-05
1.23291e-05
1.22666e-05
1.19995e-05
1.16731e-05
1.14173e-05
1.11067e-05
1.07552e-05
1.03682e-05
9.92827e-06
9.4338e-06
8.8807e-06
8.26573e-06
7.58801e-06
6.84248e-06
6.01556e-06
5.12558e-06
4.32121e-06
3.87172e-06
3.79189e-06
)
;
    }
}


// ************************************************************************* //
