/*--------------------------------*- C++ -*----------------------------------*\
| =========                 |                                                 |
| \\      /  F ield         | OpenFOAM: The Open Source CFD Toolbox           |
|  \\    /   O peration     | Version:  2.4.0                                 |
|   \\  /    A nd           | Web:      www.OpenFOAM.org                      |
|    \\/     M anipulation  |                                                 |
\*---------------------------------------------------------------------------*/
FoamFile
{
    version     2.0;
    format      ascii;
    class       surfaceScalarField;
    location    "0.6";
    object      phi.mercury;
}
// * * * * * * * * * * * * * * * * * * * * * * * * * * * * * * * * * * * * * //

dimensions      [0 3 -1 0 0 0 0];

internalField   nonuniform List<scalar> 
1102
(
-1.55277e-05
-9.2083e-06
-1.60161e-05
-9.2267e-06
-1.66791e-05
-8.97298e-06
-8.81186e-06
-1.73816e-05
-1.48241e-05
-8.56449e-06
-1.55294e-05
-8.52433e-06
-1.62456e-05
-8.25903e-06
-7.98805e-06
-1.70692e-05
-1.38677e-05
-7.86259e-06
-1.46588e-05
-7.73648e-06
-1.53798e-05
-7.53946e-06
-7.27657e-06
-1.60922e-05
-1.44574e-05
-7.23334e-06
-1.51029e-05
-7.0935e-06
-1.56619e-05
-6.98279e-06
-6.78321e-06
-1.61556e-05
-1.34673e-05
-6.59844e-06
-1.4076e-05
-6.48807e-06
-1.45655e-05
-6.49434e-06
-6.32436e-06
-1.50254e-05
-1.35327e-05
-6.1124e-06
-1.40222e-05
-6.00054e-06
-1.45151e-05
-6.00309e-06
-5.90086e-06
-1.49392e-05
-1.27826e-05
-5.65381e-06
-1.33102e-05
-5.47556e-06
-1.38974e-05
-5.41667e-06
-5.36962e-06
-1.44295e-05
-1.27809e-05
-5.13251e-06
-1.32367e-05
-5.0211e-06
-1.3726e-05
-4.92871e-06
-4.87493e-06
-1.4221e-05
-1.25061e-05
-4.61858e-06
-1.29909e-05
-4.53834e-06
-1.34531e-05
-4.4671e-06
-4.40133e-06
-1.39271e-05
-1.21539e-05
-4.12915e-06
-1.26519e-05
-4.04166e-06
-1.3158e-05
-3.96174e-06
-3.87348e-06
-1.36861e-05
-1.195e-05
-3.58798e-06
-1.24553e-05
-3.53764e-06
-1.29666e-05
-3.45091e-06
-3.36898e-06
-1.34715e-05
-1.15913e-05
-3.09423e-06
-1.21035e-05
-3.02648e-06
-1.26059e-05
-2.9491e-06
-2.85236e-06
-1.31227e-05
-1.12475e-05
-2.59302e-06
-1.17522e-05
-2.52261e-06
-1.22646e-05
-2.43723e-06
-2.3387e-06
-1.27784e-05
-1.08343e-05
-2.11798e-06
-1.133e-05
-2.02815e-06
-1.18323e-05
-1.93509e-06
-1.82887e-06
-1.23424e-05
-1.03809e-05
-1.65703e-06
-1.08587e-05
-1.55058e-06
-1.13506e-05
-1.44381e-06
-1.32786e-06
-1.18517e-05
-9.86722e-06
-1.21531e-06
-1.03278e-05
-1.09103e-06
-1.08037e-05
-9.68086e-07
-8.38636e-07
-1.12931e-05
-9.29593e-06
-7.92441e-07
-9.73503e-06
-6.51909e-07
-1.01924e-05
-5.11229e-07
-3.67468e-07
-1.06637e-05
-8.66046e-06
-3.90585e-07
-9.07905e-06
-2.34399e-07
-9.51363e-06
-7.649e-08
8.34699e-08
-9.96489e-06
-7.96119e-06
-1.09869e-08
-8.35466e-06
1.59414e-07
-8.7623e-06
3.30516e-07
5.11964e-07
-9.19089e-06
-7.18815e-06
3.40571e-07
-7.55675e-06
5.27021e-07
-7.94222e-06
7.16102e-07
9.10172e-07
-8.34072e-06
-6.34517e-06
6.75318e-07
-6.68642e-06
8.68708e-07
-7.0431e-06
1.07215e-06
1.28035e-06
-7.4134e-06
-5.41837e-06
9.72376e-07
-5.73526e-06
1.18453e-06
-6.06335e-06
1.40031e-06
1.61905e-06
-6.40242e-06
-4.48211e-06
1.13659e-06
-4.69544e-06
1.39844e-06
-4.94968e-06
1.65399e-06
1.90872e-06
-5.2397e-06
-3.84314e-06
1.11016e-06
-3.86252e-06
1.41699e-06
-3.93394e-06
1.72491e-06
2.0292e-06
-4.05496e-06
-3.67027e-06
-3.56729e-06
-3.48661e-06
-3.4345e-06
-1.92206e-05
-2.01382e-05
-2.12521e-05
-1.91777e-05
-2.30261e-05
-1.80105e-05
-2.52263e-05
-1.60634e-05
-2.77881e-05
-1.31219e-05
-3.05139e-05
-7.98403e-06
-3.2709e-05
-3.52419e-07
-3.13182e-05
1.38426e-05
-7.5434e-05
4.58887e-05
-0.000229237
6.9783e-05
-0.000289442
4.77594e-05
-0.000169932
-6.96802e-06
-0.000151061
-5.1913e-06
-0.000160037
1.42859e-05
-0.000141728
4.35931e-05
-0.000113726
7.27892e-05
-6.32206e-05
0.000106703
-2.26227e-05
0.000103544
0.000125108
-1.86848e-05
-1.85246e-05
-1.99821e-05
-1.78831e-05
-2.09796e-05
-1.70161e-05
-2.2247e-05
-1.47972e-05
-2.32691e-05
-1.20995e-05
-2.28046e-05
-8.4362e-06
-2.03394e-05
-2.75083e-06
-1.23329e-05
5.89282e-06
8.50884e-06
2.52099e-05
1.84887e-05
5.09275e-05
-0.000105572
0.000118327
-0.000210675
7.68137e-05
-0.000144526
2.88855e-06
-0.000144382
5.31053e-06
-0.000144821
1.83168e-05
-0.000120839
3.14791e-05
-8.83256e-05
2.91161e-05
-4.46841e-05
-2.66462e-05
-2.4586e-05
-1.75356e-05
-1.70829e-05
-1.88033e-05
-1.66189e-05
-1.99209e-05
-1.59016e-05
-2.05836e-05
-1.41369e-05
-2.03589e-05
-1.23242e-05
-1.82131e-05
-1.0574e-05
-1.31426e-05
-7.78327e-06
-2.86028e-06
-4.36192e-06
1.94229e-05
3.42409e-06
5.30438e-05
1.69068e-05
7.53851e-05
9.56448e-05
-2.92443e-05
0.000188258
-0.000146085
0.000109776
-0.000165031
5.47924e-05
-0.000161045
2.1851e-05
-0.000145038
1.34069e-05
-7.06928e-05
-1.12475e-05
-2.25538e-05
-0.000154871
-0.000183371
-1.7266e-05
-1.59749e-05
-1.79437e-05
-1.59446e-05
-1.87175e-05
-1.51318e-05
-1.90977e-05
-1.376e-05
-1.83524e-05
-1.30725e-05
-1.59877e-05
-1.29374e-05
-1.1246e-05
-1.25054e-05
-1.62851e-06
-1.39804e-05
1.732e-05
-1.50403e-05
4.30634e-05
-9.21754e-06
7.94278e-05
5.70965e-05
5.97948e-05
0.000211782
-1.55344e-05
0.000193217
-7.78624e-05
0.00013001
-9.36795e-05
5.60969e-05
-6.02408e-05
8.01728e-06
-2.11987e-05
2.47952e-06
-7.18251e-06
-0.000115158
-0.000186992
-1.62048e-05
-1.47975e-05
-1.73083e-05
-1.48443e-05
-1.81998e-05
-1.42447e-05
-1.85077e-05
-1.34561e-05
-1.78817e-05
-1.37031e-05
-1.62464e-05
-1.45765e-05
-1.29423e-05
-1.58028e-05
-5.88101e-06
-2.10597e-05
7.80803e-06
-2.83008e-05
2.33943e-05
-2.58564e-05
6.08119e-05
2.00278e-05
6.82321e-05
0.000205802
4.13539e-05
0.000218874
-4.79693e-06
0.000176108
-2.81274e-05
8.04916e-05
-1.29817e-05
-4.01956e-06
3.23275e-07
-8.61448e-06
-4.54984e-06
-4.4919e-05
-0.000180423
-1.59682e-05
-1.37703e-05
-1.69895e-05
-1.38265e-05
-1.79046e-05
-1.33336e-05
-1.83207e-05
-1.30446e-05
-1.8382e-05
-1.36471e-05
-1.80443e-05
-1.492e-05
-1.67751e-05
-1.7077e-05
-1.44044e-05
-2.34501e-05
-9.93835e-06
-3.2484e-05
-5.54314e-06
-3.18864e-05
3.23307e-05
-1.21941e-05
5.72945e-05
0.000181209
5.37603e-05
0.000219733
3.92748e-05
0.000189552
2.00612e-05
0.000100684
1.83081e-05
-1.14239e-06
1.80864e-05
-8.07445e-06
-3.69455e-06
-3.39492e-05
-0.000172941
-1.55989e-05
-1.26023e-05
-1.68052e-05
-1.26234e-05
-1.78389e-05
-1.23039e-05
-1.86101e-05
-1.22782e-05
-1.93616e-05
-1.2901e-05
-2.01924e-05
-1.40959e-05
-2.11173e-05
-1.61608e-05
-2.36603e-05
-2.09381e-05
-2.81786e-05
-2.80069e-05
-2.82015e-05
-3.30879e-05
-8.91712e-06
-2.51423e-05
3.53709e-05
0.000136147
4.54849e-05
0.000209693
5.29609e-05
0.000181659
5.39302e-05
0.000100541
4.60273e-05
7.46657e-06
3.91602e-05
-4.26848e-07
1.9889e-06
-7.70928e-06
-0.000163322
-1.5408e-05
-1.14169e-05
-1.66539e-05
-1.13804e-05
-1.77968e-05
-1.11648e-05
-1.8944e-05
-1.11354e-05
-2.0247e-05
-1.16033e-05
-2.19422e-05
-1.24069e-05
-2.43642e-05
-1.37462e-05
-2.89213e-05
-1.64012e-05
-3.69939e-05
-2.00515e-05
-4.67293e-05
-2.3818e-05
-5.34725e-05
-1.6117e-05
1.08713e-06
8.14639e-05
3.56053e-05
0.000175331
5.72426e-05
0.000160404
7.46328e-05
8.45132e-05
6.53984e-05
1.68856e-05
4.77617e-05
1.71304e-05
2.4997e-06
2.5817e-05
-0.00015021
-1.51657e-05
-1.01795e-05
-1.64986e-05
-1.00498e-05
-1.78007e-05
-9.86632e-06
-1.92219e-05
-9.71841e-06
-2.08688e-05
-9.96146e-06
-2.29789e-05
-1.03023e-05
-2.59901e-05
-1.07415e-05
-3.08492e-05
-1.15509e-05
-3.88345e-05
-1.20955e-05
-5.16357e-05
-1.11306e-05
-6.40027e-05
-2.97213e-06
-2.96522e-05
4.86802e-05
1.82429e-05
0.000124827
5.60462e-05
0.000121808
8.01376e-05
6.08131e-05
7.18488e-05
2.5481e-05
4.7027e-05
4.18487e-05
2.98364e-06
5.79742e-05
-0.000132072
-1.49984e-05
-8.86823e-06
-1.63293e-05
-8.72128e-06
-1.77442e-05
-8.45448e-06
-1.92675e-05
-8.19916e-06
-2.10725e-05
-8.16099e-06
-2.33048e-05
-8.07523e-06
-2.62338e-05
-7.81833e-06
-3.03986e-05
-7.39239e-06
-3.64391e-05
-6.05957e-06
-4.53653e-05
-2.1916e-06
-5.50667e-05
6.84599e-06
-4.06314e-05
3.58079e-05
1.20104e-06
7.95411e-05
4.59111e-05
7.59191e-05
6.74951e-05
3.95771e-05
6.25898e-05
3.06982e-05
4.22072e-05
6.2114e-05
5.37857e-06
8.19152e-05
-0.000113386
-1.46931e-05
-7.64739e-06
-1.60983e-05
-7.31821e-06
-1.75491e-05
-7.00639e-06
-1.91318e-05
-6.62017e-06
-2.09564e-05
-6.34052e-06
-2.30815e-05
-5.95509e-06
-2.5629e-05
-5.27627e-06
-2.87781e-05
-4.2494e-06
-3.2497e-05
-2.3462e-06
-3.69427e-05
2.25465e-06
-3.95522e-05
9.47485e-06
-2.97261e-05
2.63916e-05
-1.13491e-06
5.00459e-05
3.28663e-05
4.10022e-05
4.56836e-05
2.70799e-05
4.65806e-05
3.00434e-05
3.00916e-05
7.83043e-05
6.93418e-06
9.18383e-05
-0.000101209
-1.44147e-05
-6.35615e-06
-1.5784e-05
-5.95063e-06
-1.7256e-05
-5.53709e-06
-1.88365e-05
-5.04286e-06
-2.05967e-05
-4.58417e-06
-2.25324e-05
-4.02378e-06
-2.46338e-05
-3.18007e-06
-2.68585e-05
-2.03042e-06
-2.88669e-05
-3.43673e-07
-3.01004e-05
3.48352e-06
-2.88934e-05
8.26692e-06
-1.87593e-05
1.62965e-05
1.41199e-06
2.96146e-05
2.19996e-05
2.0151e-05
2.92858e-05
1.98646e-05
3.16707e-05
2.78026e-05
1.92469e-05
9.03469e-05
1.23167e-05
7.8026e-05
-9.09255e-05
-1.40273e-05
-5.10797e-06
-1.53979e-05
-4.58158e-06
-1.68633e-05
-4.07404e-06
-1.84194e-05
-3.48967e-06
-2.00976e-05
-2.90957e-06
-2.18561e-05
-2.26925e-06
-2.36066e-05
-1.43443e-06
-2.51985e-05
-4.43777e-07
-2.6233e-05
6.85527e-07
-2.57685e-05
3.01417e-06
-2.29639e-05
5.45836e-06
-1.39642e-05
7.29184e-06
7.15969e-07
1.48929e-05
1.3204e-05
7.63754e-06
1.82241e-05
1.47037e-05
1.67344e-05
2.9392e-05
1.01711e-05
9.68434e-05
1.39264e-05
6.10831e-05
-7.55506e-05
-1.35918e-05
-3.85912e-06
-1.49374e-05
-3.23743e-06
-1.63865e-05
-2.62689e-06
-1.79187e-05
-1.96019e-06
-1.95401e-05
-1.29118e-06
-2.12042e-05
-6.0873e-07
-2.27945e-05
1.51537e-07
-2.41163e-05
8.73344e-07
-2.47775e-05
1.34211e-06
-2.38308e-05
2.06316e-06
-2.04849e-05
2.10876e-06
-1.33064e-05
1.09824e-07
-2.5415e-06
4.12435e-06
5.89143e-06
-8.368e-07
5.90013e-06
1.31032e-05
-3.28321e-06
3.85291e-05
-2.03917e-06
9.64828e-05
7.73547e-06
5.79098e-05
-6.00539e-05
-1.30777e-05
-2.63368e-06
-1.44027e-05
-1.91371e-06
-1.58338e-05
-1.19757e-06
-1.73567e-05
-4.39714e-07
-1.89622e-05
3.11769e-07
-2.06314e-05
1.0573e-06
-2.22494e-05
1.76591e-06
-2.35767e-05
2.19675e-06
-2.4438e-05
2.1995e-06
-2.39929e-05
1.61448e-06
-2.12925e-05
-5.95003e-07
-1.61018e-05
-5.08427e-06
-7.86901e-06
-4.11248e-06
-4.55632e-06
-4.52938e-06
-1.6452e-05
2.07447e-05
-3.48492e-05
5.66946e-05
-2.68769e-05
8.93032e-05
-7.40447e-06
5.05373e-05
-7.26269e-05
-1.24949e-05
-1.43242e-06
-1.37945e-05
-6.1526e-07
-1.52011e-05
2.07475e-07
-1.67155e-05
1.0728e-06
-1.83521e-05
1.94619e-06
-2.00818e-05
2.78449e-06
-2.18387e-05
3.51987e-06
-2.35911e-05
3.94597e-06
-2.51546e-05
3.75985e-06
-2.60071e-05
2.46408e-06
-2.55699e-05
-1.0355e-06
-2.33075e-05
-7.35031e-06
-1.86417e-05
-8.77273e-06
-2.67248e-05
3.37633e-06
-5.62866e-05
4.67037e-05
-8.37981e-05
5.65508e-05
-6.31433e-05
3.76163e-05
-1.3568e-05
-5.51535e-05
-0.000104268
-1.18329e-05
-2.63763e-07
-1.30973e-05
6.48186e-07
-1.4487e-05
1.59572e-06
-1.60006e-05
2.58496e-06
-1.76716e-05
3.61544e-06
-1.95098e-05
4.62097e-06
-2.15361e-05
5.54395e-06
-2.37939e-05
6.20135e-06
-2.63192e-05
6.28305e-06
-2.90318e-05
5.17425e-06
-3.20249e-05
1.95519e-06
-3.53369e-05
-4.04106e-06
-4.39484e-05
-1.5018e-07
-7.72238e-05
3.83944e-05
-0.000107203
8.97541e-05
-0.000121095
1.88547e-05
-5.1536e-05
-0.000101391
-2.94895e-06
-0.000107278
-0.00010021
-1.10885e-05
8.59377e-07
-1.23126e-05
1.87146e-06
-1.36654e-05
2.94749e-06
-1.51662e-05
4.08456e-06
-1.68499e-05
5.29809e-06
-1.87745e-05
6.54429e-06
-2.10481e-05
7.8159e-06
-2.38854e-05
9.03715e-06
-2.77682e-05
1.01642e-05
-3.36203e-05
1.1025e-05
-4.32406e-05
1.15737e-05
-6.08304e-05
1.35463e-05
-8.84484e-05
2.7465e-05
-0.000121781
7.31221e-05
-9.86604e-05
0.000105449
-5.27747e-05
-1.7397e-05
-1.94368e-05
-0.000110748
-2.67012e-06
-0.000104995
-9.88167e-05
-1.02572e-05
1.92528e-06
-1.14281e-05
3.04155e-06
-1.27252e-05
4.24395e-06
-1.41756e-05
5.53415e-06
-1.58176e-05
6.93945e-06
-1.77187e-05
8.44448e-06
-2.00051e-05
1.01013e-05
-2.29237e-05
1.19548e-05
-2.69766e-05
1.42162e-05
-3.31838e-05
1.72316e-05
-4.35523e-05
2.19411e-05
-6.11408e-05
3.11346e-05
-8.59486e-05
5.22721e-05
-0.000101818
9.01436e-05
-6.4728e-05
0.000100656
-2.79789e-05
-3.40868e-05
-1.62335e-05
-0.000115184
-3.89173e-06
-0.000109943
-0.000101269
-9.34428e-06
2.92847e-06
-1.04445e-05
4.14121e-06
-1.16652e-05
5.46409e-06
-1.30286e-05
6.89718e-06
-1.45721e-05
8.48238e-06
-1.63487e-05
1.02205e-05
-1.84427e-05
1.21945e-05
-2.10047e-05
1.45159e-05
-2.42628e-05
1.74739e-05
-2.85731e-05
2.15414e-05
-3.43276e-05
2.76957e-05
-4.12735e-05
3.80808e-05
-4.59479e-05
5.69478e-05
-4.28252e-05
8.71365e-05
-2.6983e-05
9.07466e-05
-1.38869e-05
-1.43062e-05
-1.44422e-05
-0.00012004
-2.31569e-06
-0.000113605
-0.000104634
-8.34255e-06
3.85715e-06
-9.35995e-06
5.15816e-06
-1.04832e-05
6.58693e-06
-1.17265e-05
8.14012e-06
-1.31153e-05
9.8706e-06
-1.46805e-05
1.17851e-05
-1.64403e-05
1.39535e-05
-1.84209e-05
1.64958e-05
-2.05776e-05
1.96301e-05
-2.27313e-05
2.3695e-05
-2.41816e-05
2.91464e-05
-2.24356e-05
3.63368e-05
-1.13817e-05
4.58956e-05
1.36608e-05
6.20915e-05
4.52966e-05
5.70458e-05
2.95317e-05
2.2745e-05
-9.11087e-06
-8.79432e-05
1.87737e-06
-0.000109141
-0.000107048
-7.25336e-06
4.70767e-06
-8.19047e-06
6.0947e-06
-9.21534e-06
7.61134e-06
-1.03507e-05
9.27483e-06
-1.16008e-05
1.11201e-05
-1.29813e-05
1.31646e-05
-1.44767e-05
1.54479e-05
-1.60087e-05
1.8027e-05
-1.73638e-05
2.09847e-05
-1.81219e-05
2.44529e-05
-1.72709e-05
2.82964e-05
-1.23314e-05
3.13989e-05
-9.02963e-07
3.44679e-05
2.70672e-05
3.41208e-05
5.9839e-05
2.42708e-05
6.48496e-05
2.18172e-05
9.47382e-06
-2.81254e-05
1.0677e-05
-9.35805e-05
-0.00010505
-6.01141e-06
5.47871e-06
-6.86145e-06
6.94398e-06
-7.7806e-06
8.52967e-06
-8.7732e-06
1.02666e-05
-9.84657e-06
1.21924e-05
-1.10062e-05
1.43231e-05
-1.22435e-05
1.6684e-05
-1.3485e-05
1.92676e-05
-1.45152e-05
2.20141e-05
-1.48836e-05
2.4821e-05
-1.37463e-05
2.71595e-05
-9.78686e-06
2.74394e-05
-2.09473e-06
2.67755e-05
1.79571e-05
1.40636e-05
4.16667e-05
5.54748e-07
5.49441e-05
8.53767e-06
1.90001e-05
7.01601e-06
2.40784e-05
-7.66944e-05
-9.35343e-05
-4.53862e-06
5.96172e-06
-5.21396e-06
7.61863e-06
-6.03001e-06
9.345e-06
-6.96662e-06
1.12024e-05
-8.00679e-06
1.32317e-05
-9.1542e-06
1.54696e-05
-1.03998e-05
1.79287e-05
-1.16733e-05
2.05403e-05
-1.28605e-05
2.32006e-05
-1.37993e-05
2.57594e-05
-1.39783e-05
2.73377e-05
-1.32699e-05
2.67306e-05
-1.03151e-05
2.38183e-05
-5.08591e-06
8.82998e-06
-2.15855e-06
-2.37801e-06
3.31182e-05
-2.67431e-05
2.62317e-05
1.09149e-05
3.19095e-05
-6.12194e-05
-6.78032e-05
-3.45019e-06
-3.63857e-06
-3.96304e-06
-4.38063e-06
-4.86857e-06
-5.42895e-06
-6.0902e-06
-6.91833e-06
-7.96864e-06
-9.23536e-06
-1.03101e-05
-1.01786e-05
-9.4814e-06
-1.47588e-06
-3.99955e-06
2.19173e-05
3.37174e-05
4.56794e-05
)
;

boundaryField
{
    leftWall
    {
        type            fixedValue;
        value           nonuniform 0();
    }
    rightWall
    {
        type            fixedValue;
        value           uniform 0;
    }
    lowerWall
    {
        type            fixedValue;
        value           nonuniform 0();
    }
    atmosphere
    {
        type            calculated;
        value           nonuniform List<scalar> 
23
(
9.89012e-07
1.31381e-06
1.64381e-06
1.97681e-06
5.97718e-06
7.80678e-06
9.66922e-06
1.16197e-05
1.37193e-05
1.60297e-05
1.85897e-05
2.13682e-05
2.42507e-05
2.70257e-05
2.84121e-05
2.65988e-05
2.312e-05
8.22714e-07
1.44035e-07
-5.26602e-05
-9.38072e-07
-6.89201e-05
-1.19386e-05
)
;
    }
    defaultFaces
    {
        type            empty;
        value           nonuniform 0();
    }
    procBoundary3to1
    {
        type            processor;
        value           nonuniform List<scalar> 
23
(
9.67483e-06
9.71456e-06
9.62913e-06
9.51657e-06
2.19709e-05
2.12085e-05
1.9776e-05
1.82659e-05
1.56751e-05
1.07465e-05
2.6174e-06
-1.54448e-05
-4.83662e-05
-7.07964e-06
2.10918e-05
1.16592e-05
-5.22525e-06
-3.903e-05
-8.56256e-05
-0.000122773
-0.00016104
-0.000175513
-0.00018902
)
;
    }
    procBoundary3to2
    {
        type            processor;
        value           nonuniform List<scalar> 
25
(
1.50507e-05
1.41754e-05
1.31583e-05
1.38232e-05
1.2826e-05
1.30427e-05
1.2319e-05
1.22564e-05
1.19882e-05
1.16621e-05
1.14058e-05
1.10957e-05
1.07443e-05
1.03578e-05
9.91836e-06
9.4245e-06
8.87224e-06
8.25783e-06
7.58115e-06
6.83621e-06
6.01048e-06
5.1211e-06
4.31806e-06
3.86965e-06
3.79105e-06
)
;
    }
}


// ************************************************************************* //
