/*--------------------------------*- C++ -*----------------------------------*\
| =========                 |                                                 |
| \\      /  F ield         | OpenFOAM: The Open Source CFD Toolbox           |
|  \\    /   O peration     | Version:  2.4.0                                 |
|   \\  /    A nd           | Web:      www.OpenFOAM.org                      |
|    \\/     M anipulation  |                                                 |
\*---------------------------------------------------------------------------*/
FoamFile
{
    version     2.0;
    format      ascii;
    class       surfaceScalarField;
    location    "0.6";
    object      phi.air;
}
// * * * * * * * * * * * * * * * * * * * * * * * * * * * * * * * * * * * * * //

dimensions      [0 3 -1 0 0 0 0];

internalField   nonuniform List<scalar> 
1102
(
-1.55202e-05
-9.23037e-06
-1.60112e-05
-9.24986e-06
-1.66715e-05
-8.99648e-06
-8.83646e-06
-1.73796e-05
-1.4821e-05
-8.58439e-06
-1.55262e-05
-8.54482e-06
-1.62426e-05
-8.27991e-06
-8.00973e-06
-1.70694e-05
-1.38665e-05
-7.87926e-06
-1.46572e-05
-7.75389e-06
-1.53797e-05
-7.55755e-06
-7.29524e-06
-1.60942e-05
-1.44591e-05
-7.24801e-06
-1.51044e-05
-7.1087e-06
-1.56637e-05
-6.99827e-06
-6.79928e-06
-1.61597e-05
-1.3471e-05
-6.6105e-06
-1.40789e-05
-6.50067e-06
-1.45698e-05
-6.50752e-06
-6.33797e-06
-1.50311e-05
-1.35384e-05
-6.12303e-06
-1.40276e-05
-6.01151e-06
-1.45209e-05
-6.01425e-06
-5.91242e-06
-1.49465e-05
-1.27896e-05
-5.66253e-06
-1.33165e-05
-5.48458e-06
-1.39047e-05
-5.42609e-06
-5.37928e-06
-1.44379e-05
-1.2789e-05
-5.1402e-06
-1.32447e-05
-5.02898e-06
-1.37342e-05
-4.93664e-06
-4.88308e-06
-1.42304e-05
-1.25149e-05
-4.62484e-06
-1.29991e-05
-4.54478e-06
-1.3462e-05
-4.47373e-06
-4.4081e-06
-1.3937e-05
-1.21633e-05
-4.13468e-06
-1.26609e-05
-4.04722e-06
-1.31674e-05
-3.96733e-06
-3.87914e-06
-1.36964e-05
-1.19595e-05
-3.59251e-06
-1.24644e-05
-3.54225e-06
-1.29762e-05
-3.45558e-06
-3.37365e-06
-1.34817e-05
-1.1601e-05
-3.09821e-06
-1.21129e-05
-3.03041e-06
-1.26155e-05
-2.95301e-06
-2.85625e-06
-1.31329e-05
-1.1257e-05
-2.59636e-06
-1.17615e-05
-2.52596e-06
-1.2274e-05
-2.44049e-06
-2.34192e-06
-1.27884e-05
-1.08438e-05
-2.12088e-06
-1.13388e-05
-2.03091e-06
-1.18415e-05
-1.93785e-06
-1.83152e-06
-1.23519e-05
-1.03896e-05
-1.65953e-06
-1.08675e-05
-1.55305e-06
-1.13593e-05
-1.44611e-06
-1.33006e-06
-1.18607e-05
-9.87585e-06
-1.2175e-06
-1.03358e-05
-1.09304e-06
-1.08119e-05
-9.70062e-07
-8.40463e-07
-1.13015e-05
-9.30371e-06
-7.94501e-07
-9.74288e-06
-6.53883e-07
-1.02e-05
-5.12951e-07
-3.69061e-07
-1.06714e-05
-8.66785e-06
-3.92382e-07
-9.08574e-06
-2.35982e-07
-9.52064e-06
-7.80619e-08
8.20987e-08
-9.97181e-06
-7.96761e-06
-1.27908e-08
-8.36129e-06
1.57694e-07
-8.76844e-06
3.29086e-07
5.10689e-07
-9.19703e-06
-7.19418e-06
3.38915e-07
-7.56207e-06
5.25598e-07
-7.94769e-06
7.14708e-07
9.08984e-07
-8.34599e-06
-6.35016e-06
6.73514e-07
-6.6916e-06
8.67027e-07
-7.04768e-06
1.07079e-06
1.27918e-06
-7.41787e-06
-5.42281e-06
9.70744e-07
-5.73895e-06
1.18319e-06
-6.06717e-06
1.39901e-06
1.61796e-06
-6.40594e-06
-4.48526e-06
1.1348e-06
-4.69889e-06
1.39682e-06
-4.95258e-06
1.65272e-06
1.90772e-06
-5.24232e-06
-3.84549e-06
1.10858e-06
-3.86441e-06
1.41578e-06
-3.93563e-06
1.72396e-06
2.02852e-06
-4.05641e-06
-3.67098e-06
-3.56798e-06
-3.48711e-06
-3.43491e-06
-1.92234e-05
-2.01977e-05
-2.12626e-05
-1.92401e-05
-2.30393e-05
-1.80722e-05
-2.52467e-05
-1.61241e-05
-2.78046e-05
-1.31728e-05
-3.05378e-05
-8.01635e-06
-3.27632e-05
-3.12969e-07
-3.09839e-05
1.40042e-05
-2.49426e-05
4.64155e-05
-6.95924e-05
8.3985e-05
-0.000191719
9.07361e-05
-0.000226983
-6.83676e-06
-0.000195397
-7.73862e-05
-0.000198959
4.28204e-05
-0.000218732
0.000132019
-0.00018578
0.000214508
-0.000160292
0.000223055
-0.000124997
0.000120119
7.25602e-05
-1.869e-05
-1.8577e-05
-1.99924e-05
-1.79376e-05
-2.09934e-05
-1.7071e-05
-2.22657e-05
-1.48516e-05
-2.32895e-05
-1.21487e-05
-2.28337e-05
-8.47196e-06
-2.04017e-05
-2.74479e-06
-1.24008e-05
6.00346e-06
8.46925e-06
2.55456e-05
4.06407e-05
5.18152e-05
6.34201e-06
0.00012524
-0.000109674
0.000111682
-0.000179874
1.1724e-05
-0.000191686
3.32957e-05
-0.000162115
4.46882e-05
-0.000132529
8.16578e-05
-0.000125613
9.82396e-05
-0.000103898
5.00923e-05
4.20995e-05
-1.75426e-05
-1.71286e-05
-1.8814e-05
-1.66662e-05
-1.9935e-05
-1.59498e-05
-2.06015e-05
-1.41849e-05
-2.03802e-05
-1.23697e-05
-1.82417e-05
-1.06103e-05
-1.31983e-05
-7.78797e-06
-2.91278e-06
-4.28195e-06
1.89153e-05
3.71764e-06
5.29424e-05
1.7788e-05
8.09241e-05
9.72524e-05
8.83351e-07
0.000191547
-0.000106357
0.000118919
-0.000144304
6.83323e-05
-0.00014599
3.98924e-05
-0.000128022
4.68738e-05
-0.000120162
5.23081e-05
-0.000122853
-4.43765e-05
-0.000128641
-1.72743e-05
-1.60139e-05
-1.79554e-05
-1.59851e-05
-1.87319e-05
-1.51732e-05
-1.91152e-05
-1.38014e-05
-1.83725e-05
-1.31123e-05
-1.60118e-05
-1.29707e-05
-1.12839e-05
-1.25157e-05
-1.64561e-06
-1.39201e-05
1.68656e-05
-1.47935e-05
4.31398e-05
-8.48622e-06
8.18351e-05
5.8557e-05
5.93991e-05
0.000213977
-1.52242e-05
0.000193504
-7.75934e-05
0.000130607
-9.49846e-05
5.70763e-05
-5.97065e-05
1.09469e-05
-1.41354e-05
5.18934e-06
-3.26599e-05
-4.16735e-05
-0.00018213
-1.62144e-05
-1.48307e-05
-1.73206e-05
-1.48788e-05
-1.82141e-05
-1.42796e-05
-1.85243e-05
-1.3491e-05
-1.78999e-05
-1.37365e-05
-1.62651e-05
-1.46053e-05
-1.29639e-05
-1.58167e-05
-5.8606e-06
-2.10233e-05
7.47585e-06
-2.81299e-05
2.43473e-05
-2.53576e-05
6.11476e-05
2.17566e-05
6.73666e-05
0.000207758
4.12475e-05
0.000219623
-4.2774e-06
0.000176132
-2.80421e-05
8.08406e-05
-1.38563e-05
-3.23944e-06
-8.40428e-07
-7.82868e-06
7.94013e-07
-4.34237e-05
-0.000191991
-1.59789e-05
-1.37983e-05
-1.70023e-05
-1.38554e-05
-1.7919e-05
-1.33629e-05
-1.83364e-05
-1.30735e-05
-1.83982e-05
-1.36746e-05
-1.80591e-05
-1.49444e-05
-1.67831e-05
-1.70926e-05
-1.43743e-05
-2.34321e-05
-1.01325e-05
-3.23716e-05
-3.9968e-06
-3.14934e-05
2.91686e-05
-1.14089e-05
5.58304e-05
0.000181096
5.36057e-05
0.000221848
3.98583e-05
0.000189879
2.00321e-05
0.000100667
1.76376e-05
-8.45135e-07
1.73056e-05
-7.49675e-06
1.10367e-05
-3.36493e-05
-0.000182076
-1.56104e-05
-1.26259e-05
-1.68185e-05
-1.26474e-05
-1.78534e-05
-1.2328e-05
-1.86251e-05
-1.23017e-05
-1.93762e-05
-1.29233e-05
-2.02045e-05
-1.4116e-05
-2.11207e-05
-1.61762e-05
-2.36177e-05
-2.0935e-05
-2.80678e-05
-2.79214e-05
-2.67117e-05
-3.28495e-05
-1.23908e-05
-2.57297e-05
3.42213e-05
0.000134484
4.57943e-05
0.000210275
5.31768e-05
0.000182496
5.37468e-05
0.000100097
4.55915e-05
7.31004e-06
3.84055e-05
-3.10752e-07
1.54138e-05
-7.51676e-06
-0.000167339
-1.54199e-05
-1.14364e-05
-1.66673e-05
-1.14001e-05
-1.78108e-05
-1.11844e-05
-1.8958e-05
-1.11544e-05
-2.026e-05
-1.16212e-05
-2.19527e-05
-1.24231e-05
-2.43686e-05
-1.37603e-05
-2.88951e-05
-1.64084e-05
-3.67965e-05
-2.002e-05
-4.6004e-05
-2.3642e-05
-5.54227e-05
-1.63111e-05
-7.85176e-07
7.98462e-05
3.53204e-05
0.000174169
5.82325e-05
0.000159584
7.47841e-05
8.3545e-05
6.51516e-05
1.69424e-05
4.73295e-05
1.75113e-05
1.70416e-05
2.61335e-05
-0.000153072
-1.51778e-05
-1.01957e-05
-1.65119e-05
-1.0066e-05
-1.78142e-05
-9.88206e-06
-1.9235e-05
-9.73355e-06
-2.08806e-05
-9.97554e-06
-2.29883e-05
-1.03153e-05
-2.59952e-05
-1.07532e-05
-3.08426e-05
-1.1561e-05
-3.87661e-05
-1.20964e-05
-5.13319e-05
-1.10762e-05
-6.47461e-05
-2.89687e-06
-3.29194e-05
4.80195e-05
1.82097e-05
0.00012304
5.72257e-05
0.000120568
8.05599e-05
6.02108e-05
7.17588e-05
2.57434e-05
4.70361e-05
4.22341e-05
1.76779e-05
5.83437e-05
-0.000139368
-1.50105e-05
-8.88156e-06
-1.63422e-05
-8.73436e-06
-1.77572e-05
-8.46702e-06
-1.92797e-05
-8.21099e-06
-2.10833e-05
-8.17188e-06
-2.33133e-05
-8.08523e-06
-2.62389e-05
-7.8275e-06
-3.03987e-05
-7.40112e-06
-3.64275e-05
-6.06759e-06
-4.53108e-05
-2.19284e-06
-5.50692e-05
6.86156e-06
-4.27581e-05
3.57084e-05
1.36812e-06
7.89138e-05
4.68696e-05
7.50665e-05
6.75783e-05
3.95021e-05
6.25427e-05
3.0779e-05
4.24156e-05
6.23611e-05
2.04413e-05
8.24882e-05
-0.0001203
-1.4705e-05
-7.65833e-06
-1.61107e-05
-7.32865e-06
-1.75615e-05
-7.01622e-06
-1.91433e-05
-6.62911e-06
-2.09665e-05
-6.34864e-06
-2.30893e-05
-5.96232e-06
-2.56338e-05
-5.28292e-06
-2.87791e-05
-4.25573e-06
-3.24939e-05
-2.35278e-06
-3.69344e-05
2.24773e-06
-3.95416e-05
9.46875e-06
-3.01893e-05
2.63561e-05
-1.08767e-06
4.98123e-05
3.32359e-05
4.0743e-05
4.56635e-05
2.70745e-05
4.64196e-05
3.00229e-05
3.03962e-05
7.83847e-05
1.73887e-05
9.64522e-05
-0.000102577
-1.44262e-05
-6.36505e-06
-1.5796e-05
-5.9589e-06
-1.72676e-05
-5.54455e-06
-1.88473e-05
-5.0494e-06
-2.06061e-05
-4.58979e-06
-2.25398e-05
-4.02855e-06
-2.46384e-05
-3.18421e-06
-2.68598e-05
-2.03425e-06
-2.88648e-05
-3.47684e-07
-3.00958e-05
3.47878e-06
-2.88881e-05
8.26106e-06
-1.88179e-05
1.62859e-05
1.42669e-06
2.95677e-05
2.20539e-05
2.01157e-05
2.92809e-05
1.98475e-05
3.15173e-05
2.77865e-05
1.95267e-05
9.03761e-05
1.99785e-05
9.63768e-05
-8.23699e-05
-1.40383e-05
-5.11515e-06
-1.54092e-05
-4.58802e-06
-1.68742e-05
-4.0795e-06
-1.84294e-05
-3.49413e-06
-2.01062e-05
-2.91295e-06
-2.18629e-05
-2.27176e-06
-2.36109e-05
-1.43619e-06
-2.51999e-05
-4.4519e-07
-2.62316e-05
6.84085e-07
-2.57649e-05
3.01217e-06
-2.29592e-05
5.45534e-06
-1.39607e-05
7.2874e-06
7.21006e-07
1.48859e-05
1.32073e-05
7.62941e-06
1.82255e-05
1.48298e-05
1.66232e-05
2.9389e-05
1.01349e-05
9.68647e-05
1.74211e-05
8.92025e-05
-6.52377e-05
-1.36022e-05
-3.86491e-06
-1.49478e-05
-3.24234e-06
-1.63966e-05
-2.63072e-06
-1.79278e-05
-1.96287e-06
-1.9548e-05
-1.29271e-06
-2.12104e-05
-6.0926e-07
-2.27984e-05
1.51865e-07
-2.41177e-05
8.74154e-07
-2.47766e-05
1.34299e-06
-2.38281e-05
2.06376e-06
-2.04814e-05
2.1086e-06
-1.33027e-05
1.08738e-07
-2.53864e-06
4.12185e-06
5.87926e-06
-7.88307e-07
5.87273e-06
1.48408e-05
-3.36057e-06
3.86227e-05
-3.24106e-06
9.67421e-05
8.13541e-06
7.77824e-05
-5.72485e-05
-1.30873e-05
-2.63832e-06
-1.44123e-05
-1.91734e-06
-1.5843e-05
-1.20005e-06
-1.73649e-05
-4.40918e-07
-1.89693e-05
3.11754e-07
-2.06369e-05
1.05842e-06
-2.22529e-05
1.76792e-06
-2.3578e-05
2.19936e-06
-2.44374e-05
2.20236e-06
-2.39908e-05
1.61725e-06
-2.12898e-05
-5.92421e-07
-1.60994e-05
-5.08163e-06
-7.86781e-06
-4.10977e-06
-4.52343e-06
-4.13135e-06
-1.66111e-05
2.69411e-05
-3.50429e-05
5.70553e-05
-2.80322e-05
8.97294e-05
-8.02889e-06
5.77246e-05
-6.52403e-05
-1.25037e-05
-1.43615e-06
-1.38031e-05
-6.17911e-07
-1.52092e-05
2.06053e-07
-1.67228e-05
1.07269e-06
-1.83583e-05
1.94729e-06
-2.00866e-05
2.78677e-06
-2.18417e-05
3.52306e-06
-2.35921e-05
3.94989e-06
-2.5154e-05
3.76424e-06
-2.60054e-05
2.46866e-06
-2.55674e-05
-1.03041e-06
-2.33053e-05
-7.34366e-06
-1.86503e-05
-8.76485e-06
-2.65807e-05
3.79954e-06
-5.73018e-05
5.76722e-05
-8.42221e-05
8.40611e-05
-6.50107e-05
7.0634e-05
-1.84132e-05
1.22251e-05
-8.15608e-05
-1.18408e-05
-2.66792e-07
-1.31049e-05
6.46273e-07
-1.4494e-05
1.59509e-06
-1.60068e-05
2.58557e-06
-1.76768e-05
3.6173e-06
-1.95138e-05
4.62385e-06
-2.15385e-05
5.54778e-06
-2.37946e-05
6.20597e-06
-2.63185e-05
6.28817e-06
-2.90298e-05
5.18001e-06
-3.20222e-05
1.96199e-06
-3.53352e-05
-4.03059e-06
-4.39683e-05
-1.3186e-07
-7.8667e-05
3.84938e-05
-0.000120757
9.97129e-05
-0.000156058
0.000120007
-9.38363e-05
1.48251e-05
-1.1696e-05
-6.14133e-05
-9.0239e-05
-1.10954e-05
8.56819e-07
-1.23192e-05
1.87005e-06
-1.36714e-05
2.94733e-06
-1.51714e-05
4.08557e-06
-1.68543e-05
5.30022e-06
-1.87777e-05
6.54735e-06
-2.10498e-05
7.81987e-06
-2.38856e-05
9.04182e-06
-2.77669e-05
1.01695e-05
-3.36178e-05
1.10309e-05
-4.32365e-05
1.15807e-05
-6.08233e-05
1.35563e-05
-8.84385e-05
2.74834e-05
-0.000123104
7.31561e-05
-0.000135105
0.000111439
-0.00011253
9.46283e-05
-3.24368e-05
-6.3586e-05
-2.95787e-06
-8.76092e-05
-8.93014e-05
-1.02632e-05
1.92303e-06
-1.14336e-05
3.04044e-06
-1.27302e-05
4.24397e-06
-1.41799e-05
5.53528e-06
-1.58212e-05
6.94147e-06
-1.77212e-05
8.44739e-06
-2.00062e-05
1.0105e-05
-2.29234e-05
1.1959e-05
-2.6975e-05
1.42211e-05
-3.31809e-05
1.72368e-05
-4.35473e-05
2.19471e-05
-6.11323e-05
3.11413e-05
-8.59315e-05
5.22827e-05
-0.000102944
9.01664e-05
-9.6217e-05
0.00010438
-5.49443e-05
4.94487e-05
-1.38774e-05
-0.000106118
-4.95177e-06
-0.000104061
-0.000104676
-9.34933e-06
2.92638e-06
-1.04491e-05
4.14021e-06
-1.16693e-05
5.46416e-06
-1.30322e-05
6.8982e-06
-1.45749e-05
8.48422e-06
-1.63506e-05
1.02231e-05
-1.84434e-05
1.21978e-05
-2.1004e-05
1.45196e-05
-2.42608e-05
1.74779e-05
-2.85697e-05
2.15457e-05
-3.43227e-05
2.77001e-05
-4.12666e-05
3.80852e-05
-4.59357e-05
5.69519e-05
-4.29138e-05
8.71442e-05
-2.98993e-05
9.13386e-05
-1.20854e-05
3.09892e-05
-4.10107e-06
-0.000110257
-1.05173e-05
-0.000115416
-0.000100838
-8.34668e-06
3.8552e-06
-9.3637e-06
5.15724e-06
-1.04866e-05
6.58702e-06
-1.17294e-05
8.14105e-06
-1.31175e-05
9.87235e-06
-1.46819e-05
1.17874e-05
-1.64405e-05
1.39564e-05
-1.84199e-05
1.64991e-05
-2.05754e-05
1.96334e-05
-2.27279e-05
2.36982e-05
-2.4177e-05
2.91492e-05
-2.24304e-05
3.63386e-05
-1.13746e-05
4.58961e-05
1.36798e-05
6.20898e-05
4.79784e-05
5.70453e-05
5.17062e-05
2.71925e-05
1.13903e-05
-6.65656e-05
-1.16655e-05
-0.000103439
-0.00010548
-7.25664e-06
4.7059e-06
-8.19339e-06
6.09401e-06
-9.21797e-06
7.61161e-06
-1.03529e-05
9.276e-06
-1.16025e-05
1.1122e-05
-1.29822e-05
1.31671e-05
-1.44767e-05
1.54509e-05
-1.60077e-05
1.80301e-05
-1.73618e-05
2.09876e-05
-1.81188e-05
2.44553e-05
-1.72672e-05
2.82976e-05
-1.23272e-05
3.13986e-05
-8.97159e-07
3.44661e-05
2.70763e-05
3.41164e-05
5.98595e-05
2.4262e-05
6.52397e-05
2.18018e-05
2.71058e-05
-2.76948e-05
-8.63323e-06
-7.97644e-05
-0.000104954
-6.01379e-06
5.47738e-06
-6.86358e-06
6.94383e-06
-7.78249e-06
8.53054e-06
-8.77481e-06
1.02683e-05
-9.84773e-06
1.21949e-05
-1.10068e-05
1.43262e-05
-1.22433e-05
1.66875e-05
-1.34842e-05
1.9271e-05
-1.45136e-05
2.20171e-05
-1.48814e-05
2.48231e-05
-1.37439e-05
2.71601e-05
-9.78399e-06
2.74387e-05
-2.09111e-06
2.67732e-05
1.79647e-05
1.40606e-05
4.16775e-05
5.49162e-07
5.49533e-05
8.52595e-06
2.02706e-05
7.00724e-06
-4.41498e-06
-6.87715e-05
-0.000101671
-4.54002e-06
5.96102e-06
-5.21525e-06
7.61908e-06
-6.03117e-06
9.34648e-06
-6.9676e-06
1.12048e-05
-8.00748e-06
1.32348e-05
-9.15452e-06
1.54733e-05
-1.03997e-05
1.79326e-05
-1.16728e-05
2.05441e-05
-1.28595e-05
2.32038e-05
-1.3798e-05
2.57616e-05
-1.39766e-05
2.73386e-05
-1.32683e-05
2.67305e-05
-1.03122e-05
2.38171e-05
-5.08008e-06
8.82848e-06
-2.14821e-06
-2.38272e-06
3.31256e-05
-2.67479e-05
2.92502e-05
1.09049e-05
1.76187e-05
-6.04703e-05
-7.82008e-05
-3.45064e-06
-3.639e-06
-3.96343e-06
-4.38096e-06
-4.8688e-06
-5.42906e-06
-6.09018e-06
-6.91817e-06
-7.96834e-06
-9.23484e-06
-1.03093e-05
-1.01777e-05
-9.47964e-06
-1.47201e-06
-3.98994e-06
2.19179e-05
3.37897e-05
4.23623e-05
)
;

boundaryField
{
    leftWall
    {
        type            fixedValue;
        value           nonuniform 0();
    }
    rightWall
    {
        type            fixedValue;
        value           uniform 0;
    }
    lowerWall
    {
        type            fixedValue;
        value           nonuniform 0();
    }
    atmosphere
    {
        type            calculated;
        value           nonuniform List<scalar> 
23
(
9.87688e-07
1.3128e-06
1.64311e-06
1.97633e-06
5.97676e-06
7.80745e-06
9.67091e-06
1.16223e-05
1.37227e-05
1.60335e-05
1.85938e-05
2.13721e-05
2.4254e-05
2.70281e-05
2.84131e-05
2.65988e-05
2.31191e-05
8.20852e-07
1.3521e-07
-5.26558e-05
-9.66433e-07
-6.91375e-05
-3.32956e-05
)
;
    }
    defaultFaces
    {
        type            empty;
        value           nonuniform 0();
    }
    procBoundary3to1
    {
        type            processor;
        value           nonuniform List<scalar> 
23
(
9.70125e-06
9.74099e-06
9.65683e-06
9.54448e-06
2.20416e-05
2.12792e-05
1.98493e-05
1.83317e-05
1.57311e-05
1.07498e-05
2.53869e-06
-1.57826e-05
-5.23426e-05
-3.79269e-05
4.28343e-05
5.95103e-05
1.90397e-05
-1.17617e-05
-5.69242e-05
-0.000104211
-0.00011509
-8.6449e-05
-9.79102e-05
)
;
    }
    procBoundary3to2
    {
        type            processor;
        value           nonuniform List<scalar> 
25
(
1.50494e-05
1.4175e-05
1.31615e-05
1.38279e-05
1.28335e-05
1.30508e-05
1.23291e-05
1.22666e-05
1.19995e-05
1.16731e-05
1.14173e-05
1.11067e-05
1.07552e-05
1.03683e-05
9.92829e-06
9.43381e-06
8.88071e-06
8.26574e-06
7.58801e-06
6.84248e-06
6.01556e-06
5.12558e-06
4.32121e-06
3.87172e-06
3.79189e-06
)
;
    }
}


// ************************************************************************* //
