/*--------------------------------*- C++ -*----------------------------------*\
| =========                 |                                                 |
| \\      /  F ield         | OpenFOAM: The Open Source CFD Toolbox           |
|  \\    /   O peration     | Version:  2.4.0                                 |
|   \\  /    A nd           | Web:      www.OpenFOAM.org                      |
|    \\/     M anipulation  |                                                 |
\*---------------------------------------------------------------------------*/
FoamFile
{
    version     2.0;
    format      ascii;
    class       surfaceScalarField;
    location    "0.6";
    object      phi.oil;
}
// * * * * * * * * * * * * * * * * * * * * * * * * * * * * * * * * * * * * * //

dimensions      [0 3 -1 0 0 0 0];

internalField   nonuniform List<scalar> 
1102
(
-1.55277e-05
-9.20852e-06
-1.60161e-05
-9.22688e-06
-1.66791e-05
-8.97314e-06
-8.81202e-06
-1.73816e-05
-1.48241e-05
-8.56459e-06
-1.55294e-05
-8.52441e-06
-1.62457e-05
-8.2591e-06
-7.98812e-06
-1.70692e-05
-1.38677e-05
-7.86264e-06
-1.46588e-05
-7.73652e-06
-1.53798e-05
-7.53949e-06
-7.2766e-06
-1.60922e-05
-1.44574e-05
-7.23337e-06
-1.51029e-05
-7.09352e-06
-1.56619e-05
-6.98281e-06
-6.78322e-06
-1.61556e-05
-1.34673e-05
-6.59845e-06
-1.4076e-05
-6.48808e-06
-1.45655e-05
-6.49434e-06
-6.32436e-06
-1.50254e-05
-1.35327e-05
-6.1124e-06
-1.40222e-05
-6.00054e-06
-1.45151e-05
-6.00309e-06
-5.90086e-06
-1.49392e-05
-1.27826e-05
-5.65381e-06
-1.33102e-05
-5.47556e-06
-1.38974e-05
-5.41667e-06
-5.36962e-06
-1.44295e-05
-1.27809e-05
-5.13251e-06
-1.32367e-05
-5.0211e-06
-1.3726e-05
-4.92871e-06
-4.87493e-06
-1.4221e-05
-1.25061e-05
-4.61858e-06
-1.29909e-05
-4.53834e-06
-1.34531e-05
-4.4671e-06
-4.40133e-06
-1.39271e-05
-1.21539e-05
-4.12915e-06
-1.26519e-05
-4.04166e-06
-1.3158e-05
-3.96174e-06
-3.87348e-06
-1.36861e-05
-1.195e-05
-3.58798e-06
-1.24553e-05
-3.53764e-06
-1.29666e-05
-3.45091e-06
-3.36898e-06
-1.34715e-05
-1.15913e-05
-3.09423e-06
-1.21035e-05
-3.02648e-06
-1.26059e-05
-2.9491e-06
-2.85236e-06
-1.31227e-05
-1.12475e-05
-2.59302e-06
-1.17522e-05
-2.52261e-06
-1.22646e-05
-2.43723e-06
-2.3387e-06
-1.27784e-05
-1.08343e-05
-2.11798e-06
-1.133e-05
-2.02815e-06
-1.18323e-05
-1.93509e-06
-1.82887e-06
-1.23424e-05
-1.03809e-05
-1.65703e-06
-1.08587e-05
-1.55058e-06
-1.13506e-05
-1.44381e-06
-1.32786e-06
-1.18517e-05
-9.86722e-06
-1.21531e-06
-1.03278e-05
-1.09103e-06
-1.08037e-05
-9.68086e-07
-8.38636e-07
-1.12931e-05
-9.29593e-06
-7.92441e-07
-9.73503e-06
-6.51909e-07
-1.01924e-05
-5.11229e-07
-3.67468e-07
-1.06637e-05
-8.66046e-06
-3.90585e-07
-9.07905e-06
-2.34399e-07
-9.51363e-06
-7.649e-08
8.34699e-08
-9.96489e-06
-7.96119e-06
-1.09869e-08
-8.35466e-06
1.59414e-07
-8.7623e-06
3.30516e-07
5.11964e-07
-9.19089e-06
-7.18815e-06
3.40571e-07
-7.55675e-06
5.27021e-07
-7.94222e-06
7.16102e-07
9.10172e-07
-8.34072e-06
-6.34517e-06
6.75318e-07
-6.68642e-06
8.68708e-07
-7.0431e-06
1.07215e-06
1.28035e-06
-7.4134e-06
-5.41837e-06
9.72376e-07
-5.73526e-06
1.18453e-06
-6.06335e-06
1.40031e-06
1.61905e-06
-6.40242e-06
-4.48211e-06
1.13659e-06
-4.69544e-06
1.39844e-06
-4.94968e-06
1.65399e-06
1.90872e-06
-5.2397e-06
-3.84314e-06
1.11016e-06
-3.86252e-06
1.41699e-06
-3.93394e-06
1.72491e-06
2.0292e-06
-4.05496e-06
-3.67027e-06
-3.56729e-06
-3.48661e-06
-3.4345e-06
-1.92209e-05
-2.01389e-05
-2.12532e-05
-1.91796e-05
-2.30279e-05
-1.80166e-05
-2.52322e-05
-1.60802e-05
-2.77933e-05
-1.31768e-05
-3.0473e-05
-8.11189e-06
-3.49009e-05
-7.39952e-07
-0.000133608
1.28429e-05
-0.000273298
2.26966e-05
-0.000374195
9.20939e-06
-0.000320447
-1.67399e-07
-0.000246164
-6.93658e-06
-0.000179321
-5.77343e-06
-0.000178041
1.15523e-05
-0.000174096
3.4849e-05
-0.000161028
5.68936e-05
-0.000138778
5.92283e-05
-8.4925e-05
1.0175e-06
-1.72295e-05
-1.86849e-05
-1.85248e-05
-1.99825e-05
-1.78837e-05
-2.09805e-05
-1.70192e-05
-2.22505e-05
-1.48086e-05
-2.32683e-05
-1.21366e-05
-2.27711e-05
-8.54181e-06
-2.02176e-05
-3.02347e-06
-1.9786e-05
5.28777e-06
-6.41885e-05
2.38869e-05
-0.000201837
3.49255e-05
-0.000293527
3.06794e-05
-0.000269367
9.84481e-06
-0.000191584
-3.53993e-06
-0.000169237
-1.38394e-06
-0.000150934
9.00635e-06
-0.000119948
1.52442e-05
-8.81714e-05
-6.75681e-06
-5.27678e-05
-0.000118307
-0.00011528
-1.75357e-05
-1.70829e-05
-1.88035e-05
-1.6619e-05
-1.99213e-05
-1.59028e-05
-2.05848e-05
-1.41417e-05
-2.03563e-05
-1.23433e-05
-1.81884e-05
-1.06399e-05
-1.30342e-05
-7.97518e-06
-2.86567e-06
-4.82604e-06
1.64327e-05
2.38954e-06
2.47283e-05
1.51721e-05
-9.74871e-05
8.62307e-05
-0.00023166
6.31053e-05
-0.000243156
2.72711e-05
-0.000193539
1.14495e-05
-0.000161331
-1.80477e-06
-0.000139935
-1.27261e-05
-5.0968e-05
-5.26267e-05
-1.46924e-05
-0.000181367
-0.000185564
-1.7266e-05
-1.59749e-05
-1.79438e-05
-1.59446e-05
-1.87177e-05
-1.51323e-05
-1.90981e-05
-1.37622e-05
-1.83513e-05
-1.30816e-05
-1.59745e-05
-1.29726e-05
-1.11886e-05
-1.26288e-05
-1.68804e-06
-1.4327e-05
1.76681e-05
-1.58324e-05
3.97638e-05
-1.1096e-05
6.12942e-05
5.44322e-05
7.22479e-06
0.000199924
-8.95609e-05
0.000167589
-0.000142612
9.47402e-05
-0.000160947
2.72737e-05
-0.000112194
-8.83629e-06
-2.61704e-05
-4.56321e-05
-4.47939e-06
-0.000166329
-0.000187116
-1.62048e-05
-1.47975e-05
-1.73084e-05
-1.48443e-05
-1.81999e-05
-1.42448e-05
-1.8508e-05
-1.34568e-05
-1.78817e-05
-1.37068e-05
-1.62441e-05
-1.45931e-05
-1.29197e-05
-1.58695e-05
-5.98216e-06
-2.12781e-05
8.04372e-06
-2.88203e-05
2.14227e-05
-2.71476e-05
5.91224e-05
1.63611e-05
6.13899e-05
0.000201989
2.95648e-05
0.000211724
-1.04852e-05
0.000169932
-2.91051e-05
7.57051e-05
-1.37057e-05
-7.9442e-06
4.43444e-06
-1.33338e-05
-2.64357e-06
-0.000132123
-0.000180138
-1.59682e-05
-1.37703e-05
-1.69895e-05
-1.38265e-05
-1.79046e-05
-1.33337e-05
-1.83208e-05
-1.30448e-05
-1.83827e-05
-1.36484e-05
-1.80474e-05
-1.49266e-05
-1.67852e-05
-1.71081e-05
-1.44809e-05
-2.35813e-05
-9.76015e-06
-3.28438e-05
-7.7487e-06
-3.28771e-05
3.45732e-05
-1.37328e-05
5.84967e-05
0.000182034
4.97141e-05
0.000218786
3.65599e-05
0.000188069
2.29195e-05
9.99522e-05
2.117e-05
-1.26041e-06
9.45485e-06
-1.03531e-05
-3.84623e-06
-9.82832e-05
-0.000172608
-1.55989e-05
-1.26023e-05
-1.68052e-05
-1.26234e-05
-1.78389e-05
-1.23039e-05
-1.86102e-05
-1.22783e-05
-1.9362e-05
-1.29014e-05
-2.01956e-05
-1.40982e-05
-2.11335e-05
-1.61736e-05
-2.37576e-05
-2.10065e-05
-2.82868e-05
-2.82797e-05
-2.99655e-05
-3.36262e-05
-5.3786e-06
-2.36774e-05
3.92963e-05
0.000138174
4.54418e-05
0.000209318
5.07791e-05
0.000182998
5.42993e-05
0.000102644
4.83193e-05
8.65559e-06
2.24725e-05
-8.91888e-07
-3.86449e-08
-7.57276e-05
-0.000163153
-1.5408e-05
-1.14169e-05
-1.66539e-05
-1.13804e-05
-1.77968e-05
-1.11648e-05
-1.8944e-05
-1.11355e-05
-2.02472e-05
-1.16034e-05
-2.19436e-05
-1.24076e-05
-2.43734e-05
-1.37503e-05
-2.89966e-05
-1.64271e-05
-3.7235e-05
-2.01921e-05
-4.70903e-05
-2.42033e-05
-5.00829e-05
-1.53155e-05
3.65705e-06
8.32715e-05
3.7084e-05
0.00017757
5.56315e-05
0.000162073
7.38738e-05
8.67121e-05
6.69662e-05
1.71825e-05
2.97456e-05
1.60139e-05
3.2997e-07
-4.70293e-05
-0.000150075
-1.51657e-05
-1.01795e-05
-1.64986e-05
-1.00498e-05
-1.78007e-05
-9.86632e-06
-1.92219e-05
-9.71841e-06
-2.08689e-05
-9.96149e-06
-2.29793e-05
-1.03025e-05
-2.5993e-05
-1.07426e-05
-3.08754e-05
-1.15579e-05
-3.89796e-05
-1.21368e-05
-5.18115e-05
-1.13193e-05
-6.10384e-05
-3.10421e-06
-2.45703e-05
4.89274e-05
2.07676e-05
0.000125662
5.42956e-05
0.000121966
7.9098e-05
6.0957e-05
7.24205e-05
2.46382e-05
3.1415e-05
4.06022e-05
6.52616e-07
-1.01572e-05
-0.000131559
-1.49984e-05
-8.86823e-06
-1.63293e-05
-8.72128e-06
-1.77442e-05
-8.45448e-06
-1.92675e-05
-8.19916e-06
-2.10725e-05
-8.16102e-06
-2.33049e-05
-8.07533e-06
-2.62345e-05
-7.81879e-06
-3.04032e-05
-7.39433e-06
-3.6466e-05
-6.06797e-06
-4.54477e-05
-2.22938e-06
-5.43647e-05
6.7477e-06
-3.59831e-05
3.5618e-05
2.67597e-06
7.82157e-05
4.41031e-05
7.56624e-05
6.7011e-05
3.87048e-05
6.25563e-05
2.9214e-05
2.89377e-05
6.0692e-05
1.99621e-06
9.66534e-06
-0.000112595
-1.46931e-05
-7.64739e-06
-1.60983e-05
-7.31821e-06
-1.75491e-05
-7.00639e-06
-1.91318e-05
-6.62017e-06
-2.09564e-05
-6.34053e-06
-2.30816e-05
-5.95518e-06
-2.56293e-05
-5.27663e-06
-2.87793e-05
-4.25076e-06
-3.25005e-05
-2.35052e-06
-3.69484e-05
2.24204e-06
-3.95122e-05
9.44262e-06
-2.85105e-05
2.63742e-05
-6.74668e-07
5.00238e-05
3.31141e-05
4.07213e-05
4.41613e-05
2.57552e-05
4.69016e-05
2.78554e-05
1.63922e-05
7.60386e-05
3.52995e-06
-2.44201e-06
-0.00010093
-1.44147e-05
-6.35615e-06
-1.5784e-05
-5.95063e-06
-1.7256e-05
-5.53709e-06
-1.88365e-05
-5.04286e-06
-2.05968e-05
-4.58418e-06
-2.25325e-05
-4.02385e-06
-2.4634e-05
-3.18037e-06
-2.68591e-05
-2.03162e-06
-2.88674e-05
-3.47741e-07
-3.00966e-05
3.47147e-06
-2.88795e-05
8.2346e-06
-1.85011e-05
1.62177e-05
1.73897e-06
2.94645e-05
2.28457e-05
1.8931e-05
2.7801e-05
1.7029e-05
3.24503e-05
2.52559e-05
1.32267e-05
8.74572e-05
7.19239e-06
-4.73427e-05
-9.53934e-05
-1.40273e-05
-5.10797e-06
-1.53979e-05
-4.58158e-06
-1.68633e-05
-4.07404e-06
-1.84194e-05
-3.48967e-06
-2.00976e-05
-2.90957e-06
-2.18562e-05
-2.2693e-06
-2.36067e-05
-1.43467e-06
-2.51988e-05
-4.44891e-07
-2.62325e-05
6.8127e-07
-2.57619e-05
2.99995e-06
-2.29469e-05
5.41541e-06
-1.38014e-05
7.17052e-06
9.97024e-07
1.43576e-05
1.47127e-05
3.02738e-06
1.85322e-05
-2.40035e-05
1.85832e-05
1.11131e-05
9.35819e-06
6.89012e-05
7.80325e-06
-6.93566e-05
-9.25774e-05
-1.35918e-05
-3.85912e-06
-1.49374e-05
-3.23743e-06
-1.63865e-05
-2.62689e-06
-1.79187e-05
-1.96019e-06
-1.95401e-05
-1.29119e-06
-2.12043e-05
-6.08769e-07
-2.27946e-05
1.51308e-07
-2.41165e-05
8.72186e-07
-2.47769e-05
1.33711e-06
-2.38223e-05
2.04401e-06
-2.04628e-05
2.04095e-06
-1.29283e-05
-1.18273e-07
-2.16508e-06
2.72047e-06
9.85668e-06
-2.92593e-05
1.22094e-05
-7.31903e-05
4.23983e-06
-3.83161e-06
5.65996e-06
4.09455e-05
5.9602e-06
-6.65739e-05
-8.80962e-05
-1.30777e-05
-2.63368e-06
-1.44027e-05
-1.91371e-06
-1.58338e-05
-1.19757e-06
-1.73567e-05
-4.39714e-07
-1.89622e-05
3.11765e-07
-2.06314e-05
1.05727e-06
-2.22495e-05
1.76568e-06
-2.3577e-05
2.19545e-06
-2.44378e-05
2.19318e-06
-2.39834e-05
1.58751e-06
-2.12465e-05
-6.97116e-07
-1.53115e-05
-5.5415e-06
-7.5802e-06
-8.37109e-06
-6.36699e-06
-6.03881e-05
-7.53622e-06
-0.000100934
-1.37307e-05
-8.31336e-06
1.60128e-06
3.07941e-05
5.56192e-06
-6.85973e-05
-0.000100828
-1.24949e-05
-1.43242e-06
-1.37945e-05
-6.1526e-07
-1.52011e-05
2.07475e-07
-1.67155e-05
1.0728e-06
-1.83521e-05
1.94619e-06
-2.00818e-05
2.78447e-06
-2.18388e-05
3.51967e-06
-2.35918e-05
3.94464e-06
-2.51559e-05
3.75232e-06
-2.60025e-05
2.42661e-06
-2.54778e-05
-1.20245e-06
-2.09016e-05
-8.03665e-06
-1.69681e-05
-1.32848e-05
-3.01178e-05
-5.60727e-05
-3.06767e-05
-0.000100312
-3.48632e-05
-7.69452e-05
-9.40284e-06
-6.45521e-05
5.07145e-06
-0.000107236
-0.00011371
-1.18329e-05
-2.63763e-07
-1.30973e-05
6.48186e-07
-1.4487e-05
1.59572e-06
-1.60006e-05
2.58496e-06
-1.76716e-05
3.61544e-06
-1.95099e-05
4.62095e-06
-2.15363e-05
5.54378e-06
-2.37951e-05
6.20007e-06
-2.63249e-05
6.27457e-06
-2.90478e-05
5.12559e-06
-3.19984e-05
1.73648e-06
-3.42865e-05
-4.6598e-06
-3.44059e-05
-1.80885e-06
-4.75772e-05
-2.1317e-06
-4.44186e-05
-7.13652e-05
-3.29724e-05
-0.000127291
-1.76916e-05
-0.000141508
-3.27934e-08
-0.000114342
-0.000100621
-1.10885e-05
8.59377e-07
-1.23126e-05
1.87146e-06
-1.36654e-05
2.94749e-06
-1.51662e-05
4.08456e-06
-1.68499e-05
5.29809e-06
-1.87745e-05
6.54427e-06
-2.10483e-05
7.81577e-06
-2.38874e-05
9.03605e-06
-2.77837e-05
1.01558e-05
-3.37018e-05
1.09674e-05
-4.34483e-05
1.12656e-05
-6.04171e-05
1.2331e-05
-8.84385e-05
2.45058e-05
-6.14241e-05
5.60665e-05
-4.58416e-05
-4.76045e-05
-3.14766e-05
-0.00011691
-1.80132e-05
-0.000117246
-2.65845e-06
-0.000105457
-9.88743e-05
-1.02572e-05
1.92528e-06
-1.14281e-05
3.04155e-06
-1.27252e-05
4.24395e-06
-1.41756e-05
5.53415e-06
-1.58176e-05
6.93945e-06
-1.77187e-05
8.44447e-06
-2.00052e-05
1.01012e-05
-2.29252e-05
1.19541e-05
-2.69898e-05
1.42108e-05
-3.3271e-05
1.71925e-05
-4.38426e-05
2.16988e-05
-6.0388e-05
2.99791e-05
-8.53062e-05
4.76197e-05
-4.65854e-05
7.62605e-05
-2.99224e-05
-3.84273e-05
-2.14181e-05
-0.000115373
-1.63173e-05
-0.000116302
-3.88454e-06
-0.000110012
-0.000101267
-9.34428e-06
2.92847e-06
-1.04445e-05
4.14121e-06
-1.16652e-05
5.46409e-06
-1.30286e-05
6.89718e-06
-1.45721e-05
8.48238e-06
-1.63487e-05
1.02205e-05
-1.84428e-05
1.21945e-05
-2.10053e-05
1.45156e-05
-2.42671e-05
1.74715e-05
-2.86027e-05
2.15264e-05
-3.44368e-05
2.76155e-05
-4.07096e-05
3.77249e-05
-4.6536e-05
5.47493e-05
-2.73249e-05
7.98852e-05
-2.05447e-05
1.43504e-05
-1.45737e-05
-0.000116714
-1.48611e-05
-0.000123411
-2.27718e-06
-0.000113561
-0.000104636
-8.34255e-06
3.85715e-06
-9.35995e-06
5.15816e-06
-1.04832e-05
6.58693e-06
-1.17265e-05
8.14012e-06
-1.31153e-05
9.8706e-06
-1.46805e-05
1.17851e-05
-1.64403e-05
1.39534e-05
-1.84211e-05
1.64957e-05
-2.05787e-05
1.96291e-05
-2.2737e-05
2.36895e-05
-2.42033e-05
2.91205e-05
-2.22709e-05
3.6249e-05
-1.13984e-05
4.5703e-05
7.50747e-06
6.12864e-05
-9.73709e-07
4.06081e-05
-1.09286e-05
-5.53693e-05
-1.22572e-05
-0.000125289
2.11318e-06
-0.000109771
-0.000107049
-7.25336e-06
4.70767e-06
-8.19047e-06
6.0947e-06
-9.21534e-06
7.61134e-06
-1.03507e-05
9.27483e-06
-1.16008e-05
1.11201e-05
-1.29813e-05
1.31646e-05
-1.44767e-05
1.54479e-05
-1.60088e-05
1.80269e-05
-1.73641e-05
2.09842e-05
-1.81225e-05
2.44499e-05
-1.7274e-05
2.8281e-05
-1.22546e-05
3.13384e-05
-8.59423e-07
3.41776e-05
2.88909e-05
3.32143e-05
4.01524e-05
2.39305e-05
2.96752e-05
1.42044e-05
2.8185e-06
-7.05856e-05
1.1401e-05
-9.84131e-05
-0.000105052
-6.01141e-06
5.47871e-06
-6.86145e-06
6.94398e-06
-7.7806e-06
8.52967e-06
-8.7732e-06
1.02666e-05
-9.84657e-06
1.21924e-05
-1.10062e-05
1.43231e-05
-1.22435e-05
1.6684e-05
-1.34851e-05
1.92675e-05
-1.45154e-05
2.20136e-05
-1.48836e-05
2.4817e-05
-1.3747e-05
2.71375e-05
-9.65187e-06
2.73442e-05
-2.12524e-06
2.64494e-05
1.93198e-05
1.31684e-05
4.05742e-05
-5.03481e-07
5.22058e-05
8.03046e-06
1.76187e-05
-1.69607e-06
2.57333e-05
-8.51801e-05
-9.33698e-05
-4.53862e-06
5.96172e-06
-5.21396e-06
7.61863e-06
-6.03001e-06
9.345e-06
-6.96662e-06
1.12024e-05
-8.00679e-06
1.32317e-05
-9.1542e-06
1.54696e-05
-1.03998e-05
1.79287e-05
-1.16733e-05
2.05403e-05
-1.28609e-05
2.32001e-05
-1.38006e-05
2.57555e-05
-1.39857e-05
2.73158e-05
-1.31945e-05
2.66454e-05
-1.03773e-05
2.35748e-05
-4.71449e-06
8.56792e-06
-2.39229e-06
-3.70525e-06
3.41818e-05
-2.34122e-05
-1.87673e-06
9.39607e-06
3.3638e-05
-6.80269e-05
-6.65895e-05
-3.45019e-06
-3.63857e-06
-3.96304e-06
-4.38063e-06
-4.86857e-06
-5.42895e-06
-6.0902e-06
-6.91835e-06
-7.96884e-06
-9.23658e-06
-1.03169e-05
-1.0149e-05
-9.56004e-06
-1.01934e-06
-2.97792e-06
3.02288e-05
6.62934e-06
4.87293e-05
)
;

boundaryField
{
    leftWall
    {
        type            fixedValue;
        value           nonuniform 0();
    }
    rightWall
    {
        type            fixedValue;
        value           uniform 0;
    }
    lowerWall
    {
        type            fixedValue;
        value           nonuniform 0();
    }
    atmosphere
    {
        type            calculated;
        value           nonuniform List<scalar> 
23
(
9.89012e-07
1.31381e-06
1.64381e-06
1.97681e-06
5.97718e-06
7.80678e-06
9.66922e-06
1.16197e-05
1.37193e-05
1.60297e-05
1.85897e-05
2.13682e-05
2.42504e-05
2.70236e-05
2.83987e-05
2.65442e-05
2.29612e-05
6.23912e-07
-2.67199e-07
-5.24646e-05
-7.94325e-07
-5.22369e-05
-3.56984e-05
)
;
    }
    defaultFaces
    {
        type            empty;
        value           nonuniform 0();
    }
    procBoundary3to1
    {
        type            processor;
        value           nonuniform List<scalar> 
23
(
9.67544e-06
9.71514e-06
9.62973e-06
9.51731e-06
2.19737e-05
2.1215e-05
1.97893e-05
1.8299e-05
1.57477e-05
1.09692e-05
3.22986e-06
-5.21523e-06
1.19648e-05
1.59057e-05
1.70103e-05
1.70554e-05
3.42978e-06
-3.08265e-05
-7.08395e-05
-0.000108775
-0.000111107
-6.68466e-05
-7.02857e-05
)
;
    }
    procBoundary3to2
    {
        type            processor;
        value           nonuniform List<scalar> 
25
(
1.50507e-05
1.41754e-05
1.31583e-05
1.38232e-05
1.2826e-05
1.30427e-05
1.2319e-05
1.22564e-05
1.19882e-05
1.16621e-05
1.14058e-05
1.10957e-05
1.07443e-05
1.03578e-05
9.91836e-06
9.4245e-06
8.87224e-06
8.25783e-06
7.58115e-06
6.83621e-06
6.01048e-06
5.1211e-06
4.31806e-06
3.86965e-06
3.79105e-06
)
;
    }
}


// ************************************************************************* //
