/*--------------------------------*- C++ -*----------------------------------*\
| =========                 |                                                 |
| \\      /  F ield         | OpenFOAM: The Open Source CFD Toolbox           |
|  \\    /   O peration     | Version:  2.4.0                                 |
|   \\  /    A nd           | Web:      www.OpenFOAM.org                      |
|    \\/     M anipulation  |                                                 |
\*---------------------------------------------------------------------------*/
FoamFile
{
    version     2.0;
    format      ascii;
    class       surfaceScalarField;
    location    "0.6";
    object      phi.water;
}
// * * * * * * * * * * * * * * * * * * * * * * * * * * * * * * * * * * * * * //

dimensions      [0 3 -1 0 0 0 0];

internalField   nonuniform List<scalar> 
1102
(
-1.55277e-05
-9.2083e-06
-1.60161e-05
-9.2267e-06
-1.66791e-05
-8.97298e-06
-8.81185e-06
-1.73816e-05
-1.48241e-05
-8.56449e-06
-1.55294e-05
-8.52433e-06
-1.62456e-05
-8.25903e-06
-7.98805e-06
-1.70692e-05
-1.38677e-05
-7.86259e-06
-1.46588e-05
-7.73648e-06
-1.53798e-05
-7.53946e-06
-7.27657e-06
-1.60922e-05
-1.44574e-05
-7.23334e-06
-1.51029e-05
-7.0935e-06
-1.56619e-05
-6.98279e-06
-6.78321e-06
-1.61556e-05
-1.34673e-05
-6.59844e-06
-1.4076e-05
-6.48807e-06
-1.45655e-05
-6.49434e-06
-6.32436e-06
-1.50254e-05
-1.35327e-05
-6.1124e-06
-1.40222e-05
-6.00054e-06
-1.45151e-05
-6.00309e-06
-5.90086e-06
-1.49392e-05
-1.27826e-05
-5.65381e-06
-1.33102e-05
-5.47556e-06
-1.38974e-05
-5.41667e-06
-5.36962e-06
-1.44295e-05
-1.27809e-05
-5.13251e-06
-1.32367e-05
-5.0211e-06
-1.3726e-05
-4.92871e-06
-4.87493e-06
-1.4221e-05
-1.25061e-05
-4.61858e-06
-1.29909e-05
-4.53834e-06
-1.34531e-05
-4.4671e-06
-4.40133e-06
-1.39271e-05
-1.21539e-05
-4.12915e-06
-1.26519e-05
-4.04166e-06
-1.3158e-05
-3.96174e-06
-3.87348e-06
-1.36861e-05
-1.195e-05
-3.58798e-06
-1.24553e-05
-3.53764e-06
-1.29666e-05
-3.45091e-06
-3.36898e-06
-1.34715e-05
-1.15913e-05
-3.09423e-06
-1.21035e-05
-3.02648e-06
-1.26059e-05
-2.9491e-06
-2.85236e-06
-1.31227e-05
-1.12475e-05
-2.59302e-06
-1.17522e-05
-2.52261e-06
-1.22646e-05
-2.43723e-06
-2.3387e-06
-1.27784e-05
-1.08343e-05
-2.11798e-06
-1.133e-05
-2.02815e-06
-1.18323e-05
-1.93509e-06
-1.82887e-06
-1.23424e-05
-1.03809e-05
-1.65703e-06
-1.08587e-05
-1.55058e-06
-1.13506e-05
-1.44381e-06
-1.32786e-06
-1.18517e-05
-9.86722e-06
-1.21531e-06
-1.03278e-05
-1.09103e-06
-1.08037e-05
-9.68086e-07
-8.38636e-07
-1.12931e-05
-9.29593e-06
-7.92441e-07
-9.73503e-06
-6.51909e-07
-1.01924e-05
-5.11229e-07
-3.67468e-07
-1.06637e-05
-8.66046e-06
-3.90585e-07
-9.07905e-06
-2.34399e-07
-9.51363e-06
-7.649e-08
8.34699e-08
-9.96489e-06
-7.96119e-06
-1.09869e-08
-8.35466e-06
1.59414e-07
-8.7623e-06
3.30516e-07
5.11964e-07
-9.19089e-06
-7.18815e-06
3.40571e-07
-7.55675e-06
5.27021e-07
-7.94222e-06
7.16102e-07
9.10172e-07
-8.34072e-06
-6.34517e-06
6.75318e-07
-6.68642e-06
8.68708e-07
-7.0431e-06
1.07215e-06
1.28035e-06
-7.4134e-06
-5.41837e-06
9.72376e-07
-5.73526e-06
1.18453e-06
-6.06335e-06
1.40031e-06
1.61905e-06
-6.40242e-06
-4.48211e-06
1.13659e-06
-4.69544e-06
1.39844e-06
-4.94968e-06
1.65399e-06
1.90872e-06
-5.2397e-06
-3.84314e-06
1.11016e-06
-3.86252e-06
1.41699e-06
-3.93394e-06
1.72491e-06
2.0292e-06
-4.05496e-06
-3.67027e-06
-3.56729e-06
-3.48661e-06
-3.4345e-06
-1.92205e-05
-2.01382e-05
-2.1252e-05
-1.91776e-05
-2.30258e-05
-1.801e-05
-2.52249e-05
-1.60613e-05
-2.77852e-05
-1.31129e-05
-3.05134e-05
-7.95509e-06
-3.27521e-05
-2.53819e-07
-3.12337e-05
1.40717e-05
-7.63105e-05
4.64404e-05
-0.00023003
6.86917e-05
-0.0002943
4.24306e-05
-0.000186651
-6.96279e-06
-0.000164608
1.28929e-06
-0.000196741
3.03979e-05
-0.000184105
6.55599e-05
-0.000164309
9.57252e-05
-0.000132853
0.000112289
-8.39578e-05
5.98525e-05
5.46628e-05
-1.86848e-05
-1.85246e-05
-1.99821e-05
-1.78831e-05
-2.09795e-05
-1.70159e-05
-2.22464e-05
-1.47961e-05
-2.32688e-05
-1.20944e-05
-2.28103e-05
-8.41746e-06
-2.03832e-05
-2.69093e-06
-1.23935e-05
6.05719e-06
8.38394e-06
2.55996e-05
1.77872e-05
5.18453e-05
-0.00010957
0.000116542
-0.000211794
7.17877e-05
-0.000147623
2.01683e-06
-0.000154888
7.82122e-06
-0.000168942
2.39418e-05
-0.000151428
3.79487e-05
-9.98762e-05
3.01152e-05
-5.92782e-05
-6.2686e-05
-8.17655e-05
-1.75356e-05
-1.70829e-05
-1.88033e-05
-1.66189e-05
-1.99208e-05
-1.59015e-05
-2.05834e-05
-1.41364e-05
-2.03593e-05
-1.23219e-05
-1.82184e-05
-1.05636e-05
-1.31783e-05
-7.74419e-06
-2.90262e-06
-4.24161e-06
1.89277e-05
3.75204e-06
5.29592e-05
1.78077e-05
7.50107e-05
9.72836e-05
-3.18422e-05
0.000187358
-0.000146134
0.000106431
-0.00016754
5.29075e-05
-0.000159989
2.15698e-05
-0.00014618
1.35966e-05
-7.09621e-05
-1.31665e-05
-2.21381e-05
-0.000155236
-0.000183882
-1.7266e-05
-1.59749e-05
-1.79437e-05
-1.59446e-05
-1.87174e-05
-1.51318e-05
-1.90977e-05
-1.37598e-05
-1.83526e-05
-1.30714e-05
-1.59907e-05
-1.29319e-05
-1.12656e-05
-1.24806e-05
-1.63686e-06
-1.38906e-05
1.68737e-05
-1.47711e-05
4.31364e-05
-8.47454e-06
8.18148e-05
5.85513e-05
5.93945e-05
0.000214013
-1.53877e-05
0.000193524
-7.78425e-05
0.000130549
-9.54141e-05
5.70119e-05
-6.06316e-05
1.08109e-05
-2.11645e-05
4.5223e-06
-7.13107e-06
-0.000114791
-0.000186992
-1.62048e-05
-1.47975e-05
-1.73083e-05
-1.48443e-05
-1.81998e-05
-1.42446e-05
-1.85077e-05
-1.3456e-05
-1.78817e-05
-1.37027e-05
-1.62468e-05
-1.45739e-05
-1.29493e-05
-1.57892e-05
-5.8554e-06
-2.10008e-05
7.47985e-06
-2.81133e-05
2.43203e-05
-2.53485e-05
6.11363e-05
2.17307e-05
6.74176e-05
0.000207773
4.12721e-05
0.00021966
-4.30716e-06
0.000176157
-2.80599e-05
8.08561e-05
-1.39178e-05
-3.23897e-06
-7.76376e-07
-7.81937e-06
-2.4538e-06
-4.50049e-05
-0.00018042
-1.59682e-05
-1.37703e-05
-1.69895e-05
-1.38265e-05
-1.79046e-05
-1.33336e-05
-1.83207e-05
-1.30446e-05
-1.83819e-05
-1.3647e-05
-1.80437e-05
-1.4919e-05
-1.67721e-05
-1.70706e-05
-1.43722e-05
-2.34138e-05
-1.01348e-05
-3.23575e-05
-4.05355e-06
-3.14865e-05
2.92404e-05
-1.14099e-05
5.58721e-05
0.000181128
5.36237e-05
0.000221859
3.98397e-05
0.000189911
2.00289e-05
0.000100688
1.76128e-05
-8.28015e-07
1.72995e-05
-7.476e-06
-2.64427e-06
-3.3852e-05
-0.000172943
-1.55989e-05
-1.26023e-05
-1.68052e-05
-1.26234e-05
-1.78389e-05
-1.23039e-05
-1.86101e-05
-1.22782e-05
-1.93615e-05
-1.29009e-05
-2.01918e-05
-1.40956e-05
-2.11125e-05
-1.61583e-05
-2.36173e-05
-2.09195e-05
-2.80777e-05
-2.79088e-05
-2.6766e-05
-3.2842e-05
-1.229e-05
-2.57036e-05
3.4233e-05
0.000134564
4.57863e-05
0.000210281
5.31685e-05
0.000182517
5.37416e-05
0.000100132
4.55843e-05
7.3403e-06
3.84105e-05
-2.84423e-07
1.46357e-06
-7.62399e-06
-0.00016333
-1.5408e-05
-1.14169e-05
-1.66539e-05
-1.13804e-05
-1.77968e-05
-1.11648e-05
-1.8944e-05
-1.11354e-05
-2.0247e-05
-1.16032e-05
-2.1942e-05
-1.24068e-05
-2.43619e-05
-1.37456e-05
-2.88948e-05
-1.63952e-05
-3.68073e-05
-2.00076e-05
-4.60396e-05
-2.36335e-05
-5.53928e-05
-1.6297e-05
-7.32551e-07
7.99189e-05
3.53171e-05
0.000174221
5.81999e-05
0.000159634
7.47722e-05
8.36001e-05
6.51518e-05
1.69661e-05
4.73433e-05
1.75323e-05
2.00495e-06
2.60571e-05
-0.000150221
-1.51657e-05
-1.01795e-05
-1.64986e-05
-1.00498e-05
-1.78007e-05
-9.86632e-06
-1.92219e-05
-9.71841e-06
-2.08688e-05
-9.96146e-06
-2.29788e-05
-1.03023e-05
-2.59896e-05
-1.07414e-05
-3.0842e-05
-1.15498e-05
-3.87722e-05
-1.20851e-05
-5.13503e-05
-1.10652e-05
-6.47548e-05
-2.88673e-06
-3.28351e-05
4.80552e-05
1.81969e-05
0.000123137
5.71839e-05
0.000120641
8.05485e-05
6.02535e-05
7.17587e-05
2.576e-05
4.70453e-05
4.22557e-05
2.66206e-06
5.82862e-05
-0.000132088
-1.49984e-05
-8.86823e-06
-1.63293e-05
-8.72128e-06
-1.77442e-05
-8.45448e-06
-1.92675e-05
-8.19916e-06
-2.10725e-05
-8.16099e-06
-2.33048e-05
-8.07523e-06
-2.62338e-05
-7.81832e-06
-3.03978e-05
-7.39228e-06
-3.64312e-05
-6.05842e-06
-4.53196e-05
-2.18262e-06
-5.50831e-05
6.87272e-06
-4.27242e-05
3.57227e-05
1.35182e-06
7.89595e-05
4.68394e-05
7.5115e-05
6.75751e-05
3.95235e-05
6.25417e-05
3.07978e-05
4.24152e-05
6.23834e-05
4.89695e-06
8.21437e-05
-0.000113403
-1.46931e-05
-7.64739e-06
-1.60983e-05
-7.31821e-06
-1.75491e-05
-7.00639e-06
-1.91318e-05
-6.62017e-06
-2.09564e-05
-6.34052e-06
-2.30815e-05
-5.95509e-06
-2.5629e-05
-5.27627e-06
-2.87781e-05
-4.2494e-06
-3.24965e-05
-2.34612e-06
-3.69402e-05
2.25534e-06
-3.95497e-05
9.47782e-06
-3.01902e-05
2.6367e-05
-1.09788e-06
4.98304e-05
3.32221e-05
4.07637e-05
4.56602e-05
2.70908e-05
4.64186e-05
3.00421e-05
3.03376e-05
7.84058e-05
6.69076e-06
9.16571e-05
-0.000101224
-1.44147e-05
-6.35615e-06
-1.5784e-05
-5.95063e-06
-1.7256e-05
-5.53709e-06
-1.88365e-05
-5.04286e-06
-2.05967e-05
-4.58417e-06
-2.25324e-05
-4.02378e-06
-2.46338e-05
-3.18007e-06
-2.68585e-05
-2.03042e-06
-2.88668e-05
-3.4367e-07
-3.01004e-05
3.48355e-06
-2.88941e-05
8.26713e-06
-1.88232e-05
1.62936e-05
1.41986e-06
2.95779e-05
2.20478e-05
2.01277e-05
2.92779e-05
1.98619e-05
3.15166e-05
2.78029e-05
1.92436e-05
9.03959e-05
1.21917e-05
7.77203e-05
-9.09394e-05
-1.40273e-05
-5.10797e-06
-1.53979e-05
-4.58158e-06
-1.68633e-05
-4.07404e-06
-1.84194e-05
-3.48967e-06
-2.00976e-05
-2.90957e-06
-2.18561e-05
-2.26925e-06
-2.36066e-05
-1.43443e-06
-2.51985e-05
-4.43777e-07
-2.6233e-05
6.85528e-07
-2.57685e-05
3.01417e-06
-2.29639e-05
5.45837e-06
-1.39657e-05
7.29178e-06
7.16362e-07
1.48919e-05
1.32042e-05
7.63746e-06
1.82241e-05
1.47037e-05
1.66251e-05
2.93915e-05
1.00512e-05
9.68663e-05
1.3941e-05
6.10229e-05
-7.55705e-05
-1.35918e-05
-3.85912e-06
-1.49374e-05
-3.23743e-06
-1.63865e-05
-2.62689e-06
-1.79187e-05
-1.96019e-06
-1.95401e-05
-1.29118e-06
-2.12042e-05
-6.0873e-07
-2.27945e-05
1.51537e-07
-2.41163e-05
8.73344e-07
-2.47775e-05
1.34211e-06
-2.38308e-05
2.06316e-06
-2.04849e-05
2.10876e-06
-1.33064e-05
1.09831e-07
-2.5415e-06
4.12436e-06
5.8914e-06
-8.36727e-07
5.90025e-06
1.31032e-05
-3.35049e-06
3.85188e-05
-2.10499e-06
9.64985e-05
7.77082e-06
5.79514e-05
-6.00661e-05
-1.30777e-05
-2.63368e-06
-1.44027e-05
-1.91371e-06
-1.58338e-05
-1.19757e-06
-1.73567e-05
-4.39714e-07
-1.89622e-05
3.11769e-07
-2.06314e-05
1.0573e-06
-2.22494e-05
1.76591e-06
-2.35767e-05
2.19675e-06
-2.4438e-05
2.1995e-06
-2.39929e-05
1.61448e-06
-2.12925e-05
-5.94999e-07
-1.61018e-05
-5.08425e-06
-7.86901e-06
-4.1124e-06
-4.55635e-06
-4.52923e-06
-1.64412e-05
2.07442e-05
-3.4907e-05
5.66841e-05
-2.69139e-05
8.92808e-05
-7.39364e-06
5.05017e-05
-7.26243e-05
-1.24949e-05
-1.43242e-06
-1.37945e-05
-6.1526e-07
-1.52011e-05
2.07475e-07
-1.67155e-05
1.0728e-06
-1.83521e-05
1.94619e-06
-2.00818e-05
2.78449e-06
-2.18387e-05
3.51987e-06
-2.35911e-05
3.94597e-06
-2.51546e-05
3.75985e-06
-2.60071e-05
2.46408e-06
-2.55699e-05
-1.03549e-06
-2.33075e-05
-7.35027e-06
-1.86417e-05
-8.77258e-06
-2.67237e-05
3.37624e-06
-5.62488e-05
4.67029e-05
-8.38388e-05
5.65081e-05
-6.31234e-05
3.73969e-05
-1.35363e-05
-5.52475e-05
-0.000104267
-1.18329e-05
-2.63763e-07
-1.30973e-05
6.48186e-07
-1.4487e-05
1.59572e-06
-1.60006e-05
2.58496e-06
-1.76716e-05
3.61544e-06
-1.95098e-05
4.62097e-06
-2.15361e-05
5.54395e-06
-2.37939e-05
6.20135e-06
-2.63192e-05
6.28305e-06
-2.90318e-05
5.17425e-06
-3.20249e-05
1.9552e-06
-3.53369e-05
-4.04102e-06
-4.39474e-05
-1.50231e-07
-7.72222e-05
3.83944e-05
-0.000107209
8.9761e-05
-0.000121095
1.88322e-05
-5.15066e-05
-0.000101424
-2.94815e-06
-0.000107277
-0.000100209
-1.10885e-05
8.59377e-07
-1.23126e-05
1.87146e-06
-1.36654e-05
2.94749e-06
-1.51662e-05
4.08456e-06
-1.68499e-05
5.29809e-06
-1.87745e-05
6.54429e-06
-2.10481e-05
7.8159e-06
-2.38854e-05
9.03715e-06
-2.77682e-05
1.01642e-05
-3.36203e-05
1.1025e-05
-4.32405e-05
1.15737e-05
-6.083e-05
1.35464e-05
-8.84465e-05
2.74653e-05
-0.000121781
7.31227e-05
-9.86511e-05
0.000105451
-5.27716e-05
-1.7398e-05
-1.94367e-05
-0.000110748
-2.67011e-06
-0.000104994
-9.88167e-05
-1.02572e-05
1.92528e-06
-1.14281e-05
3.04155e-06
-1.27252e-05
4.24395e-06
-1.41756e-05
5.53415e-06
-1.58176e-05
6.93945e-06
-1.77187e-05
8.44448e-06
-2.00051e-05
1.01013e-05
-2.29237e-05
1.19548e-05
-2.69766e-05
1.42162e-05
-3.31838e-05
1.72316e-05
-4.35522e-05
2.19411e-05
-6.11405e-05
3.11346e-05
-8.59478e-05
5.22723e-05
-0.000101818
9.01441e-05
-6.4722e-05
0.000100656
-2.79787e-05
-3.40867e-05
-1.62335e-05
-0.000115184
-3.89175e-06
-0.000109943
-0.000101269
-9.34428e-06
2.92847e-06
-1.04445e-05
4.14121e-06
-1.16652e-05
5.46409e-06
-1.30286e-05
6.89718e-06
-1.45721e-05
8.48238e-06
-1.63487e-05
1.02205e-05
-1.84427e-05
1.21945e-05
-2.10047e-05
1.45159e-05
-2.42628e-05
1.74739e-05
-2.85731e-05
2.15414e-05
-3.43276e-05
2.76957e-05
-4.12734e-05
3.80808e-05
-4.59476e-05
5.69478e-05
-4.28247e-05
8.71365e-05
-2.69816e-05
9.07469e-05
-1.38867e-05
-1.43068e-05
-1.44421e-05
-0.00012004
-2.31571e-06
-0.000113605
-0.000104634
-8.34255e-06
3.85715e-06
-9.35995e-06
5.15816e-06
-1.04832e-05
6.58693e-06
-1.17265e-05
8.14012e-06
-1.31153e-05
9.8706e-06
-1.46805e-05
1.17851e-05
-1.64403e-05
1.39535e-05
-1.84209e-05
1.64958e-05
-2.05776e-05
1.96301e-05
-2.27313e-05
2.3695e-05
-2.41816e-05
2.91464e-05
-2.24356e-05
3.63368e-05
-1.13817e-05
4.58956e-05
1.36608e-05
6.20914e-05
4.52969e-05
5.70454e-05
2.95314e-05
2.2745e-05
-9.11097e-06
-8.79432e-05
1.87736e-06
-0.000109141
-0.000107048
-7.25336e-06
4.70767e-06
-8.19047e-06
6.0947e-06
-9.21534e-06
7.61134e-06
-1.03507e-05
9.27483e-06
-1.16008e-05
1.11201e-05
-1.29813e-05
1.31646e-05
-1.44767e-05
1.54479e-05
-1.60087e-05
1.8027e-05
-1.73638e-05
2.09847e-05
-1.81219e-05
2.44529e-05
-1.72709e-05
2.82964e-05
-1.23314e-05
3.13989e-05
-9.02967e-07
3.44679e-05
2.70671e-05
3.41208e-05
5.9839e-05
2.42707e-05
6.48496e-05
2.18172e-05
9.47316e-06
-2.81253e-05
1.0677e-05
-9.35805e-05
-0.00010505
-6.01141e-06
5.47871e-06
-6.86145e-06
6.94398e-06
-7.7806e-06
8.52967e-06
-8.7732e-06
1.02666e-05
-9.84657e-06
1.21924e-05
-1.10062e-05
1.43231e-05
-1.22435e-05
1.6684e-05
-1.3485e-05
1.92676e-05
-1.45152e-05
2.20141e-05
-1.48836e-05
2.4821e-05
-1.37463e-05
2.71595e-05
-9.78686e-06
2.74394e-05
-2.09473e-06
2.67755e-05
1.79571e-05
1.40637e-05
4.16667e-05
5.54751e-07
5.49441e-05
8.53762e-06
1.89998e-05
7.01606e-06
2.40784e-05
-7.66943e-05
-9.35343e-05
-4.53862e-06
5.96172e-06
-5.21396e-06
7.61863e-06
-6.03001e-06
9.345e-06
-6.96662e-06
1.12024e-05
-8.00679e-06
1.32317e-05
-9.1542e-06
1.54696e-05
-1.03998e-05
1.79287e-05
-1.16733e-05
2.05403e-05
-1.28605e-05
2.32006e-05
-1.37993e-05
2.57594e-05
-1.39783e-05
2.73377e-05
-1.32699e-05
2.67306e-05
-1.03151e-05
2.38183e-05
-5.08592e-06
8.82999e-06
-2.15854e-06
-2.378e-06
3.31181e-05
-2.67431e-05
2.6232e-05
1.09149e-05
3.19098e-05
-6.12194e-05
-6.78032e-05
-3.45019e-06
-3.63857e-06
-3.96304e-06
-4.38063e-06
-4.86857e-06
-5.42895e-06
-6.0902e-06
-6.91833e-06
-7.96864e-06
-9.23536e-06
-1.03101e-05
-1.01786e-05
-9.4814e-06
-1.47589e-06
-3.99957e-06
2.19171e-05
3.37175e-05
4.56795e-05
)
;

boundaryField
{
    leftWall
    {
        type            fixedValue;
        value           nonuniform 0();
    }
    rightWall
    {
        type            fixedValue;
        value           uniform 0;
    }
    lowerWall
    {
        type            fixedValue;
        value           nonuniform 0();
    }
    atmosphere
    {
        type            calculated;
        value           nonuniform List<scalar> 
23
(
9.89012e-07
1.31381e-06
1.64381e-06
1.97681e-06
5.97718e-06
7.80678e-06
9.66922e-06
1.16197e-05
1.37193e-05
1.60297e-05
1.85897e-05
2.13682e-05
2.42507e-05
2.70257e-05
2.84121e-05
2.65988e-05
2.312e-05
8.22717e-07
1.4404e-07
-5.26602e-05
-9.38073e-07
-6.89201e-05
-1.19385e-05
)
;
    }
    defaultFaces
    {
        type            empty;
        value           nonuniform 0();
    }
    procBoundary3to1
    {
        type            processor;
        value           nonuniform List<scalar> 
23
(
9.67483e-06
9.71456e-06
9.62913e-06
9.51657e-06
2.19708e-05
2.12082e-05
1.97749e-05
1.82613e-05
1.56589e-05
1.06882e-05
2.47333e-06
-1.58539e-05
-4.86881e-05
-5.10509e-06
2.09184e-05
7.74274e-06
-1.91324e-05
-6.20872e-05
-0.000105457
-0.000143537
-0.000161224
-0.000126984
-0.000132679
)
;
    }
    procBoundary3to2
    {
        type            processor;
        value           nonuniform List<scalar> 
25
(
1.50507e-05
1.41754e-05
1.31583e-05
1.38232e-05
1.2826e-05
1.30427e-05
1.2319e-05
1.22564e-05
1.19882e-05
1.16621e-05
1.14058e-05
1.10957e-05
1.07443e-05
1.03578e-05
9.91836e-06
9.4245e-06
8.87224e-06
8.25783e-06
7.58115e-06
6.83621e-06
6.01048e-06
5.1211e-06
4.31806e-06
3.86965e-06
3.79105e-06
)
;
    }
}


// ************************************************************************* //
