/*--------------------------------*- C++ -*----------------------------------*\
| =========                 |                                                 |
| \\      /  F ield         | OpenFOAM: The Open Source CFD Toolbox           |
|  \\    /   O peration     | Version:  2.4.0                                 |
|   \\  /    A nd           | Web:      www.OpenFOAM.org                      |
|    \\/     M anipulation  |                                                 |
\*---------------------------------------------------------------------------*/
FoamFile
{
    version     2.0;
    format      ascii;
    class       volScalarField;
    location    "0.6";
    object      rho;
}
// * * * * * * * * * * * * * * * * * * * * * * * * * * * * * * * * * * * * * //

dimensions      [1 -3 0 0 0 0 0];

internalField   nonuniform List<scalar> 
575
(
1
1
0.999999
0.999999
1
1
0.999999
0.999999
1
1
0.999999
0.999999
1
1
0.999999
0.999999
1
1
0.999999
0.999999
1
0.999999
0.999999
0.999999
0.999999
0.999999
0.999999
0.999998
0.999999
0.999998
0.999998
0.999998
0.999998
0.999998
0.999998
0.999998
0.999998
0.999998
0.999997
0.999997
0.999997
0.999997
0.999997
0.999997
0.999998
0.999997
0.999997
0.999997
0.999997
0.999997
0.999997
0.999997
0.999998
0.999997
0.999997
0.999997
0.999998
0.999997
0.999997
0.999997
0.999999
0.999998
0.999997
0.999997
0.999999
0.999998
0.999998
0.999997
0.999999
0.999999
0.999998
0.999998
0.999999
0.999999
0.999998
0.999998
1
0.999999
0.999999
0.999999
1
1
0.999999
0.999999
1
0.999999
0.999999
0.999999
0.999999
0.999999
0.999999
0.999999
1
1
1
1
1
1
1
1
0.999998
0.999998
0.999998
1
1.00001
1.00002
1.00008
1.00022
1.00451
1.47858
7.78938
63.1011
270.667
465.086
497.408
504.471
506.05
507.155
509.052
0.999998
0.999998
0.999998
0.999999
1
1.00002
1.00005
1.00011
1.00043
1.0031
1.15327
3.7114
17.596
87.0638
181.043
254.265
315.818
391.653
458.913
0.999999
0.999998
0.999998
0.999998
1
1.00001
1.00004
1.00009
1.00019
1.00056
1.00184
1.04872
1.41706
2.65898
5.97546
11.8702
16.7861
53.1838
278.055
0.999999
0.999998
0.999998
0.999998
1
1.00001
1.00002
1.00007
1.00015
1.00039
1.001
1.00141
1.00226
1.0044
1.00756
1.01559
1.03443
10.6301
289.877
0.999999
0.999998
0.999998
0.999998
0.999999
1
1.00001
1.00005
1.00013
1.00035
1.00074
1.00124
1.00138
1.00155
1.00161
1.00131
1.00112
1.04858
316.775
0.999999
0.999998
0.999998
0.999998
0.999998
1
1.00001
1.00003
1.00009
1.00031
1.00068
1.00125
1.00129
1.00143
1.00145
1.00113
1.00099
1.00856
236.357
0.999999
0.999998
0.999998
0.999998
0.999998
0.999999
1
1.00002
1.00007
1.00024
1.00062
1.00117
1.00134
1.00136
1.00131
1.00102
1.00086
1.00435
203.875
0.999998
0.999998
0.999998
0.999998
0.999998
0.999999
1
1.00001
1.00003
1.00014
1.00046
1.00096
1.00129
1.00132
1.00111
1.00083
1.00071
1.00292
201.806
0.999998
0.999998
0.999998
0.999998
0.999998
0.999999
1
1
1.00001
1.00005
1.00021
1.00063
1.00108
1.00107
1.00079
1.00057
1.00059
1.00228
168.191
0.999997
0.999997
0.999997
0.999998
0.999998
0.999999
0.999999
1
1
1.00001
1.00006
1.00024
1.00065
1.00063
1.00041
1.00039
1.00057
1.00225
118.373
0.999997
0.999997
0.999997
0.999998
0.999998
0.999999
0.999999
1
1
1
1.00001
1.00006
1.0002
1.00024
1.00021
1.0004
1.00062
1.01511
68.9164
0.999997
0.999997
0.999997
0.999998
0.999998
0.999999
0.999999
1
1
1
1
1.00001
1.00004
1.0001
1.0002
1.00046
1.00073
1.1322
25.9372
0.999997
0.999997
0.999997
0.999998
0.999998
0.999999
0.999999
0.999999
1
1
1
1.00001
1.00002
1.00014
1.00044
1.00055
1.00092
1.35806
6.43601
0.999997
0.999997
0.999997
0.999998
0.999998
0.999999
0.999999
0.999999
1
1
1.00001
1.00002
1.00006
1.00057
1.01297
1.00385
1.00392
1.44034
1.52548
0.999997
0.999997
0.999997
0.999998
0.999998
0.999999
0.999999
1
1
1
1.00001
1.00003
1.00015
1.00794
1.04474
1.00704
1.01295
1.09277
1.09557
0.999997
0.999997
0.999997
0.999998
0.999998
0.999999
0.999999
1
1
1
1.00001
1.00007
1.00052
1.01829
1.09837
1.01128
1.01277
1.08188
2.40922
0.999998
0.999997
0.999998
0.999998
0.999999
0.999999
0.999999
0.999999
1
1.00001
1.00003
1.0001
1.00039
1.0068
1.10202
1.51508
1.88446
10.5243
65.1321
0.999998
0.999998
0.999998
0.999998
0.999999
0.999999
0.999999
0.999999
1
1.00001
1.00004
1.00016
1.00062
1.00104
1.0482
3.93525
45.8001
174.719
347.153
0.999998
0.999998
0.999998
0.999999
0.999999
0.999999
0.999999
0.999999
1
1.00001
1.00003
1.00013
1.00055
1.001
1.04352
5.90625
107.214
386.4
489.685
0.999999
0.999999
0.999999
0.999999
0.999999
0.999999
0.999999
0.999999
1
1
1.00001
1.00006
1.00028
1.0007
1.01864
3.1129
63.3716
388.595
492.929
0.999999
0.999999
0.999999
0.999999
0.999999
0.999999
0.999999
0.999999
0.999999
1
1
1.00002
1.00007
1.00031
1.00283
1.13722
4.99667
177.335
492.929
0.999999
0.999999
0.999999
0.999999
0.999999
0.999999
0.999999
0.999999
0.999999
1
1
1.00001
1.00002
1.0001
1.00047
1.0024
1.02802
40.9796
489.592
0.999999
0.999999
0.999999
0.999999
0.999999
0.999999
0.999999
0.999999
0.999999
1
1
1.00001
1.00003
1.00012
1.00028
1.00019
1.00132
8.75942
420.908
1
1
0.999999
0.999999
0.999999
0.999999
0.999999
0.999999
0.999999
1
1
1.00001
1.00005
1.00015
1.00027
1.00017
1.00023
1.71577
198.04
1
1
1
1
1
1
0.999999
0.999999
0.999999
1
1
1.00001
1.00002
1.00004
1.00008
1.00001
1.00022
1.01525
14.9011
)
;

boundaryField
{
    leftWall
    {
        type            calculated;
        value           nonuniform 0();
    }
    rightWall
    {
        type            calculated;
        value           nonuniform List<scalar> 
25
(
509.052
458.913
278.055
289.877
316.775
236.357
203.875
201.806
168.191
118.373
68.9164
25.9372
6.43601
1.52548
1.09557
2.40922
65.1321
347.153
489.685
492.929
492.929
489.592
420.908
198.04
14.9011
)
;
    }
    lowerWall
    {
        type            calculated;
        value           nonuniform 0();
    }
    atmosphere
    {
        type            calculated;
        value           nonuniform List<scalar> 
23
(
1
1
1
1
1
1
1
1
1
1
0.999999
0.999999
0.999999
1
1
1.00001
1.00002
1.00004
1.00008
1
1.00022
1
1
)
;
    }
    defaultFaces
    {
        type            empty;
    }
    procBoundary3to1
    {
        type            processor;
        value           nonuniform List<scalar> 
23
(
0.999998
0.999999
0.999999
0.999999
0.999999
0.999999
0.999999
1
1.00001
1.00005
1.00015
1.00138
1.08344
13.9786
154.386
407.291
496.044
503.964
507.486
516.694
523.843
533.442
550.056
)
;
    }
    procBoundary3to2
    {
        type            processor;
        value           nonuniform List<scalar> 
25
(
0.999999
1
1
1
0.999999
0.999999
0.999998
0.999998
0.999998
0.999997
0.999997
0.999997
0.999998
0.999998
0.999999
0.999999
0.999999
0.999999
0.999999
0.999999
1
1
1
1
1
)
;
    }
}


// ************************************************************************* //
