/*--------------------------------*- C++ -*----------------------------------*\
| =========                 |                                                 |
| \\      /  F ield         | OpenFOAM: The Open Source CFD Toolbox           |
|  \\    /   O peration     | Version:  2.4.0                                 |
|   \\  /    A nd           | Web:      www.OpenFOAM.org                      |
|    \\/     M anipulation  |                                                 |
\*---------------------------------------------------------------------------*/
FoamFile
{
    version     2.0;
    format      ascii;
    class       volVectorField;
    location    "0.6";
    object      U;
}
// * * * * * * * * * * * * * * * * * * * * * * * * * * * * * * * * * * * * * //

dimensions      [0 1 -1 0 0 0 0];

internalField   nonuniform List<vector> 
575
(
(-0.0818084 -0.107058 0)
(-0.0843891 -0.107233 0)
(-0.0871297 -0.104749 0)
(-0.0922212 -0.102918 0)
(-0.0778699 -0.103946 0)
(-0.0811232 -0.104167 0)
(-0.0850569 -0.100734 0)
(-0.0906504 -0.0980373 0)
(-0.0725202 -0.0929256 0)
(-0.0761955 -0.0919735 0)
(-0.0805131 -0.0891425 0)
(-0.0854524 -0.0859278 0)
(-0.0761476 -0.0857803 0)
(-0.0791668 -0.0836042 0)
(-0.0820504 -0.0821182 0)
(-0.0856129 -0.0798526 0)
(-0.0708384 -0.0799481 0)
(-0.0744882 -0.0788097 0)
(-0.0765067 -0.077871 0)
(-0.0792864 -0.0749392 0)
(-0.071451 -0.0712249 0)
(-0.0745266 -0.0701725 0)
(-0.0763291 -0.0710551 0)
(-0.0784442 -0.0702738 0)
(-0.0672118 -0.0679622 0)
(-0.0703672 -0.0661452 0)
(-0.0732606 -0.0655469 0)
(-0.075802 -0.0649482 0)
(-0.0669567 -0.0618969 0)
(-0.0702224 -0.0597655 0)
(-0.0725438 -0.0586972 0)
(-0.0747479 -0.0582061 0)
(-0.0657048 -0.0550392 0)
(-0.0685113 -0.0548596 0)
(-0.0713124 -0.0538948 0)
(-0.0736255 -0.0537299 0)
(-0.063636 -0.0507443 0)
(-0.0665586 -0.0491165 0)
(-0.0695687 -0.0484377 0)
(-0.0722533 -0.0472686 0)
(-0.062634 -0.043659 0)
(-0.0654277 -0.0434375 0)
(-0.0683611 -0.0422359 0)
(-0.0714209 -0.0415732 0)
(-0.0608108 -0.0384107 0)
(-0.0634694 -0.0375631 0)
(-0.0664005 -0.0367584 0)
(-0.0693947 -0.0357071 0)
(-0.05902 -0.0323887 0)
(-0.061639 -0.0317551 0)
(-0.0644105 -0.0307856 0)
(-0.0675765 -0.0297611 0)
(-0.056897 -0.0269496 0)
(-0.0594115 -0.0260276 0)
(-0.0620831 -0.0250382 0)
(-0.0651604 -0.0239034 0)
(-0.0545197 -0.0215535 0)
(-0.0569706 -0.0204708 0)
(-0.0594976 -0.0193373 0)
(-0.0624845 -0.0181075 0)
(-0.0518225 -0.0164113 0)
(-0.0541978 -0.0151034 0)
(-0.0566122 -0.013797 0)
(-0.0594428 -0.0124234 0)
(-0.0488053 -0.0114729 0)
(-0.051098 -0.00996907 0)
(-0.0534015 -0.00846353 0)
(-0.0560527 -0.00692145 0)
(-0.0454476 -0.00676018 0)
(-0.047643 -0.00507012 0)
(-0.0498473 -0.00336117 0)
(-0.0523139 -0.00162621 0)
(-0.0417485 -0.00229531 0)
(-0.0438229 -0.000429283 0)
(-0.0459154 0.00148052 0)
(-0.0481977 0.00341455 0)
(-0.037667 0.00189417 0)
(-0.0396044 0.00392295 0)
(-0.0415945 0.00601476 0)
(-0.0437072 0.00814161 0)
(-0.0331766 0.00582716 0)
(-0.035006 0.00799132 0)
(-0.0368597 0.0102273 0)
(-0.0388074 0.0125227 0)
(-0.0283155 0.00955944 0)
(-0.0299617 0.0118009 0)
(-0.0316759 0.0141472 0)
(-0.0334645 0.0166016 0)
(-0.0235084 0.0125446 0)
(-0.024575 0.0151578 0)
(-0.0258608 0.0177081 0)
(-0.02735 0.0202786 0)
(-0.0207117 0.0135317 0)
(-0.0206288 0.0168223 0)
(-0.0208743 0.020035 0)
(-0.02136 0.02323 0)
(-0.0200279 0.0112947 0)
(-0.0193681 0.0149982 0)
(-0.0188975 0.0187638 0)
(-0.0185254 0.022564 0)
(-0.0976723 -0.1006 0)
(-0.108398 -0.0962813 0)
(-0.119691 -0.0900293 0)
(-0.129929 -0.0813258 0)
(-0.142981 -0.0681145 0)
(-0.158706 -0.0435568 0)
(-0.172072 -0.00270884 0)
(-0.162885 0.0772699 0)
(-0.152102 0.268427 0)
(-0.104337 0.425074 0)
(-0.555725 -0.037483 0)
(-1.02757 -0.257227 0)
(-1.06416 -0.0783553 0)
(-1.00134 0.0985594 0)
(-1.01406 0.241408 0)
(-0.930628 0.362505 0)
(-0.807476 0.350844 0)
(-0.592656 0.190566 0)
(-0.243728 0.165484 0)
(-0.0954855 -0.0953343 0)
(-0.104657 -0.0915616 0)
(-0.110685 -0.0878762 0)
(-0.114766 -0.0774812 0)
(-0.123658 -0.0631594 0)
(-0.125437 -0.0403042 0)
(-0.118043 -0.00497639 0)
(-0.0836191 0.0521068 0)
(-0.0375682 0.174342 0)
(0.143556 0.34904 0)
(0.283444 0.685629 0)
(-0.248675 0.214536 0)
(-0.901423 -0.342689 0)
(-1.02223 0.183748 0)
(-0.942418 0.30026 0)
(-0.826963 0.395899 0)
(-0.620504 0.296034 0)
(-0.374079 -0.0704088 0)
(-0.166721 -0.347144 0)
(-0.0901342 -0.0851062 0)
(-0.0974842 -0.0824775 0)
(-0.104704 -0.0779954 0)
(-0.108259 -0.0683985 0)
(-0.110814 -0.0582368 0)
(-0.104512 -0.0469222 0)
(-0.0866556 -0.0270403 0)
(-0.0404665 0.00300816 0)
(0.00998085 0.0674286 0)
(0.202403 0.153014 0)
(0.395365 0.591596 0)
(0.39276 0.838109 0)
(-0.374079 0.336701 0)
(-0.787364 0.221096 0)
(-0.805578 0.302951 0)
(-0.715923 0.547545 0)
(-0.70495 0.661057 0)
(-0.496802 -0.0732412 0)
(-0.149988 -0.552536 0)
(-0.0899467 -0.0815342 0)
(-0.0946694 -0.080164 0)
(-0.0969655 -0.0769825 0)
(-0.102325 -0.0695215 0)
(-0.100594 -0.0629335 0)
(-0.0923116 -0.0577827 0)
(-0.0734893 -0.0508177 0)
(-0.0330644 -0.0477903 0)
(0.00942705 -0.0336908 0)
(0.179425 0.0107073 0)
(0.289214 0.339732 0)
(0.507367 1.0133 0)
(0.197893 0.826754 0)
(-0.374286 0.460512 0)
(-0.504592 0.152212 0)
(-0.453164 0.0343297 0)
(-0.0678715 0.0304853 0)
(-0.164835 -0.0914688 0)
(-0.0380524 -0.827833 0)
(-0.0837561 -0.0741912 0)
(-0.0905923 -0.0751059 0)
(-0.0942926 -0.0711409 0)
(-0.0989521 -0.0652736 0)
(-0.0980015 -0.0647356 0)
(-0.0901969 -0.0676224 0)
(-0.0775689 -0.0694787 0)
(-0.0489518 -0.0876236 0)
(-0.0264449 -0.111068 0)
(0.117784 -0.0908719 0)
(0.116496 0.186391 0)
(0.480432 1.02759 0)
(0.337193 1.04288 0)
(0.04185 0.809328 0)
(-0.0940901 0.342702 0)
(-0.217316 0.0210247 0)
(0.124434 0.000182793 0)
(-0.173788 -0.181864 0)
(-0.0216671 -0.873406 0)
(-0.0833027 -0.0698314 0)
(-0.0888462 -0.0695958 0)
(-0.092781 -0.0670033 0)
(-0.0977707 -0.0649745 0)
(-0.0977199 -0.0671007 0)
(-0.0965941 -0.0715706 0)
(-0.0923083 -0.0800719 0)
(-0.081437 -0.110603 0)
(-0.0797705 -0.1503 0)
(0.0124948 -0.144613 0)
(-0.0917544 -0.00785141 0)
(0.402474 0.989144 0)
(0.295452 1.08611 0)
(0.223357 0.929143 0)
(0.155308 0.482651 0)
(0.0474572 -0.0346108 0)
(0.201757 -0.0525053 0)
(-0.0713627 -0.213896 0)
(-0.0144202 -0.844946 0)
(-0.0800079 -0.0647605 0)
(-0.0878595 -0.0644759 0)
(-0.0924782 -0.0624256 0)
(-0.0978816 -0.0612648 0)
(-0.101792 -0.0641775 0)
(-0.104417 -0.070466 0)
(-0.11109 -0.0804636 0)
(-0.114643 -0.106646 0)
(-0.132526 -0.147266 0)
(-0.123998 -0.160777 0)
(-0.252353 -0.0977921 0)
(0.167848 0.840296 0)
(0.244654 1.06889 0)
(0.236106 0.921885 0)
(0.287064 0.535604 0)
(0.261531 0.0251412 0)
(0.304986 -0.02789 0)
(0.0349546 -0.0972116 0)
(-0.0141137 -0.818159 0)
(-0.0791915 -0.0578967 0)
(-0.0867988 -0.058539 0)
(-0.0922317 -0.0569711 0)
(-0.0983268 -0.0572223 0)
(-0.105504 -0.0594741 0)
(-0.111811 -0.0638043 0)
(-0.12503 -0.0719619 0)
(-0.13849 -0.0891057 0)
(-0.17093 -0.113679 0)
(-0.223367 -0.136422 0)
(-0.343214 -0.103945 0)
(-0.191898 0.505061 0)
(0.191472 0.997881 0)
(0.210832 0.872716 0)
(0.367564 0.485466 0)
(0.386858 0.0672937 0)
(0.387583 0.034747 0)
(0.0298764 0.033074 0)
(-0.0141475 -0.757139 0)
(-0.0772253 -0.0534478 0)
(-0.0857057 -0.0518205 0)
(-0.09215 -0.051265 0)
(-0.0989469 -0.0504372 0)
(-0.108287 -0.0522014 0)
(-0.11662 -0.0548228 0)
(-0.132357 -0.0586317 0)
(-0.150246 -0.0660592 0)
(-0.18573 -0.0743658 0)
(-0.242479 -0.0783107 0)
(-0.340348 -0.0438815 0)
(-0.345675 0.271865 0)
(0.0286979 0.73428 0)
(0.175202 0.696 0)
(0.397873 0.338494 0)
(0.415284 0.0995178 0)
(0.413094 0.136071 0)
(0.0239633 0.197415 0)
(-0.00168973 -0.66866 0)
(-0.0768359 -0.0457206 0)
(-0.0842836 -0.0459771 0)
(-0.0918772 -0.0444907 0)
(-0.0989089 -0.0435915 0)
(-0.108985 -0.0439353 0)
(-0.11859 -0.0443319 0)
(-0.13394 -0.0444215 0)
(-0.151347 -0.0445898 0)
(-0.181001 -0.0409308 0)
(-0.220529 -0.0260225 0)
(-0.272271 0.0150811 0)
(-0.323481 0.180532 0)
(-0.0887421 0.437654 0)
(0.102573 0.442707 0)
(0.358437 0.210572 0)
(0.343519 0.136461 0)
(0.357564 0.254995 0)
(0.0569892 0.343955 0)
(0.00716219 -0.539528 0)
(-0.0751113 -0.0406293 0)
(-0.0827616 -0.0388368 0)
(-0.0908779 -0.037642 0)
(-0.0980613 -0.03601 0)
(-0.108309 -0.0351795 0)
(-0.11809 -0.0339099 0)
(-0.131633 -0.0313961 0)
(-0.146277 -0.0273163 0)
(-0.167243 -0.0182217 0)
(-0.189027 0.00385658 0)
(-0.203314 0.0413282 0)
(-0.223455 0.145021 0)
(-0.0699662 0.287674 0)
(0.0584123 0.250652 0)
(0.26413 0.151555 0)
(0.2174 0.150479 0)
(0.281467 0.345683 0)
(0.0434612 0.444449 0)
(0.0226011 -0.442513 0)
(-0.0738294 -0.0339356 0)
(-0.0809904 -0.0323754 0)
(-0.0892271 -0.030532 0)
(-0.0966305 -0.0283889 0)
(-0.106468 -0.0265543 0)
(-0.115919 -0.0241997 0)
(-0.127394 -0.0203475 0)
(-0.138786 -0.0146848 0)
(-0.152501 -0.00511957 0)
(-0.160816 0.0150698 0)
(-0.155715 0.042829 0)
(-0.157107 0.0992584 0)
(-0.026301 0.185136 0)
(0.0380051 0.134409 0)
(0.179691 0.112508 0)
(0.123608 0.141085 0)
(0.200513 0.415301 0)
(0.0539653 0.480406 0)
(0.0667085 -0.348488 0)
(-0.0719218 -0.0280033 0)
(-0.0788484 -0.0256064 0)
(-0.0871153 -0.0234263 0)
(-0.0945643 -0.0208061 0)
(-0.103943 -0.0182658 0)
(-0.112945 -0.0153383 0)
(-0.122703 -0.011207 0)
(-0.131572 -0.00583255 0)
(-0.140588 0.00143775 0)
(-0.140954 0.0160471 0)
(-0.128902 0.0328483 0)
(-0.122987 0.053229 0)
(-0.0129627 0.103728 0)
(0.0161838 0.0646168 0)
(0.123242 0.086868 0)
(0.0553739 0.133198 0)
(0.109385 0.459005 0)
(0.0373483 0.455215 0)
(0.0936512 -0.299829 0)
(-0.0697347 -0.0218312 0)
(-0.0764358 -0.0190512 0)
(-0.0845203 -0.0163392 0)
(-0.0920536 -0.0133174 0)
(-0.101042 -0.0103021 0)
(-0.109779 -0.00713561 0)
(-0.118648 -0.00322293 0)
(-0.126421 0.00106603 0)
(-0.132672 0.00449235 0)
(-0.131879 0.0113599 0)
(-0.11771 0.0176529 0)
(-0.109266 0.0156479 0)
(-0.021082 0.0444468 0)
(-0.011725 0.0146095 0)
(0.0765595 0.0645658 0)
(-0.029562 0.149422 0)
(-0.00555757 0.45648 0)
(-0.0141723 0.413724 0)
(0.0680824 -0.272995 0)
(-0.0671112 -0.0158426 0)
(-0.0736414 -0.0125583 0)
(-0.0815167 -0.00934635 0)
(-0.0891561 -0.00590631 0)
(-0.0979457 -0.00244956 0)
(-0.106628 0.000982652 0)
(-0.115564 0.00460414 0)
(-0.123721 0.00702444 0)
(-0.129261 0.00771723 0)
(-0.131003 0.00735676 0)
(-0.121793 0.00123821 0)
(-0.112592 -0.0155357 0)
(-0.046144 -0.00352645 0)
(-0.0520699 -0.0253991 0)
(-0.00500374 0.0823066 0)
(-0.187938 0.220072 0)
(-0.153422 0.479325 0)
(-0.088696 0.348932 0)
(-0.0278419 -0.310681 0)
(-0.0640785 -0.00991061 0)
(-0.0704798 -0.00617393 0)
(-0.0781085 -0.00241732 0)
(-0.0858074 0.00147204 0)
(-0.0945049 0.00542398 0)
(-0.103465 0.00919308 0)
(-0.112902 0.0124163 0)
(-0.122115 0.0141826 0)
(-0.131159 0.0133521 0)
(-0.137249 0.00771471 0)
(-0.13698 -0.00693954 0)
(-0.133433 -0.0345024 0)
(-0.103627 -0.0417374 0)
(-0.115797 -0.0180464 0)
(-0.211844 0.157154 0)
(-0.428209 0.327276 0)
(-0.391916 0.38347 0)
(-0.211245 0.224923 0)
(-0.0505313 -0.335959 0)
(-0.060605 -0.00414485 0)
(-0.0668645 6.80336e-05 0)
(-0.0742532 0.00439156 0)
(-0.0820024 0.00884945 0)
(-0.0906635 0.0134305 0)
(-0.0999769 0.0178382 0)
(-0.110366 0.0216989 0)
(-0.121713 0.0240478 0)
(-0.134455 0.0231425 0)
(-0.147155 0.0157055 0)
(-0.159542 -0.00469749 0)
(-0.176538 -0.0437417 0)
(-0.188814 -0.058368 0)
(-0.316221 0.0509542 0)
(-0.59727 0.420508 0)
(-0.772123 0.579023 0)
(-0.71465 0.427276 0)
(-0.222141 -0.103529 0)
(0.032181 -0.507753 0)
(-0.0566958 0.0014423 0)
(-0.0627911 0.006135 0)
(-0.0698829 0.0110426 0)
(-0.0775468 0.0161926 0)
(-0.0861364 0.0216179 0)
(-0.0956905 0.0270441 0)
(-0.106872 0.0323068 0)
(-0.120282 0.0367858 0)
(-0.137866 0.0394419 0)
(-0.1614 0.0375939 0)
(-0.198442 0.027139 0)
(-0.260934 0.0134493 0)
(-0.35992 0.0645028 0)
(-0.606416 0.330814 0)
(-0.758948 0.549088 0)
(-0.825476 0.497461 0)
(-0.331529 -0.352115 0)
(-0.0993264 -0.508528 0)
(0.0316231 -0.495066 0)
(-0.0523423 0.00680041 0)
(-0.0582083 0.0119669 0)
(-0.0649391 0.0174917 0)
(-0.0723451 0.0233774 0)
(-0.0806494 0.0297275 0)
(-0.090037 0.0363848 0)
(-0.101184 0.0435027 0)
(-0.114799 0.0510415 0)
(-0.133049 0.059496 0)
(-0.15786 0.0695045 0)
(-0.198766 0.0840782 0)
(-0.267706 0.115568 0)
(-0.359103 0.203842 0)
(-0.52155 0.408849 0)
(-0.593405 0.518428 0)
(-0.541445 0.320299 0)
(-0.139236 -0.480635 0)
(-0.0974181 -0.523724 0)
(0.0409359 -0.496435 0)
(-0.0475664 0.0118389 0)
(-0.0531296 0.0174832 0)
(-0.0594128 0.0236358 0)
(-0.066396 0.0302663 0)
(-0.0741938 0.0375481 0)
(-0.0830128 0.0454426 0)
(-0.0933317 0.0543073 0)
(-0.105595 0.0645645 0)
(-0.121156 0.0775295 0)
(-0.139527 0.0955526 0)
(-0.165497 0.123892 0)
(-0.201392 0.176209 0)
(-0.213439 0.283574 0)
(-0.237774 0.433974 0)
(-0.222999 0.455482 0)
(-0.158298 0.125044 0)
(-0.050358 -0.512053 0)
(-0.105866 -0.550364 0)
(0.0688446 -0.496726 0)
(-0.0423525 0.0164979 0)
(-0.0475325 0.0226034 0)
(-0.0532991 0.0292873 0)
(-0.0597034 0.0365192 0)
(-0.06677 0.0445548 0)
(-0.0746562 0.0534027 0)
(-0.0835399 0.0635109 0)
(-0.0934717 0.0753892 0)
(-0.104901 0.0903566 0)
(-0.115239 0.110463 0)
(-0.125073 0.139543 0)
(-0.134926 0.183086 0)
(-0.0820375 0.252897 0)
(-0.0205842 0.380232 0)
(0.155904 0.415738 0)
(0.29215 0.225262 0)
(0.227836 -0.361856 0)
(-0.142153 -0.542672 0)
(0.110146 -0.522232 0)
(-0.0366833 0.0208809 0)
(-0.0414722 0.0274163 0)
(-0.0467337 0.0346313 0)
(-0.0525328 0.0424797 0)
(-0.0589729 0.0511955 0)
(-0.0660238 0.0608396 0)
(-0.073729 0.0716323 0)
(-0.0818611 0.0841028 0)
(-0.0901558 0.099007 0)
(-0.0954253 0.117626 0)
(-0.0949448 0.141407 0)
(-0.0942354 0.166978 0)
(-0.0236735 0.198479 0)
(0.0185828 0.244384 0)
(0.267282 0.192015 0)
(0.31998 0.0997694 0)
(0.463142 -0.215298 0)
(-0.305835 -0.473521 0)
(0.211939 -0.517189 0)
(-0.0302538 0.0247099 0)
(-0.0345025 0.0315943 0)
(-0.0393351 0.0390855 0)
(-0.044441 0.0473593 0)
(-0.0499611 0.056497 0)
(-0.0559844 0.0666122 0)
(-0.0624085 0.0778454 0)
(-0.0690335 0.090235 0)
(-0.0756445 0.103808 0)
(-0.0795259 0.118568 0)
(-0.0767479 0.132125 0)
(-0.0753384 0.138868 0)
(-0.0190133 0.138984 0)
(-0.00555154 0.0870355 0)
(0.197948 0.0367827 0)
(0.198244 0.104604 0)
(0.500389 -0.0313612 0)
(-0.398936 -0.37462 0)
(0.354879 -0.486264 0)
(-0.0228026 0.0285051 0)
(-0.0260579 0.0358688 0)
(-0.0300987 0.0437246 0)
(-0.034804 0.0523439 0)
(-0.0400913 0.0619254 0)
(-0.0459115 0.0725478 0)
(-0.0523228 0.0842658 0)
(-0.059119 0.0968152 0)
(-0.0658897 0.109727 0)
(-0.0714745 0.12234 0)
(-0.0740646 0.131922 0)
(-0.0797714 0.130467 0)
(-0.0546761 0.122001 0)
(-0.0625356 0.0602328 0)
(0.0222841 -0.0285726 0)
(-0.0599863 -0.0305886 0)
(0.477592 0.0715015 0)
(-0.242481 -0.278723 0)
(0.508063 -0.375401 0)
(-0.0183197 0.0290198 0)
(-0.0188817 0.037905 0)
(-0.0203027 0.0469501 0)
(-0.0223431 0.0564226 0)
(-0.0247579 0.0666186 0)
(-0.0275301 0.0778365 0)
(-0.0306996 0.0902625 0)
(-0.0345417 0.103747 0)
(-0.0394913 0.117737 0)
(-0.0456486 0.131207 0)
(-0.0516148 0.137987 0)
(-0.0620788 0.129427 0)
(-0.0381616 0.112551 0)
(-0.0789159 0.00704694 0)
(0.0737365 0.00142944 0)
(-0.133345 -0.252923 0)
(0.394305 0.00158278 0)
(-0.0556294 -0.333651 0)
(0.462185 -0.154709 0)
)
;

boundaryField
{
    leftWall
    {
        type            calculated;
        value           nonuniform 0();
    }
    rightWall
    {
        type            calculated;
        value           uniform (0 0 0);
    }
    lowerWall
    {
        type            calculated;
        value           nonuniform 0();
    }
    atmosphere
    {
        type            calculated;
        value           nonuniform List<vector> 
23
(
(-0.0200279 0.0112752 0)
(-0.0193681 0.0149867 0)
(-0.0188975 0.0187574 0)
(-0.0185254 0.0225614 0)
(-0.0183197 0.0290222 0)
(-0.0188817 0.0379118 0)
(-0.0203027 0.0469605 0)
(-0.0223431 0.0564362 0)
(-0.0247579 0.0666353 0)
(-0.0275301 0.0778564 0)
(-0.0306996 0.0902883 0)
(-0.0345417 0.103779 0)
(-0.0394913 0.117774 0)
(-0.0456486 0.131244 0)
(-0.0516148 0.13797 0)
(-0.0620788 0.12916 0)
(-0.0381616 0.112263 0)
(-0.0789159 0.00398593 0)
(0.0737365 0.00065656 0)
(-0.133345 -0.255688 0)
(0.394305 -0.00469286 0)
(-0.0556287 -0.335721 0)
(0.458362 -0.161678 0)
)
;
    }
    defaultFaces
    {
        type            empty;
    }
    procBoundary3to1
    {
        type            processor;
        value           nonuniform List<vector> 
23
(
(-0.0890659 -0.113709 0)
(-0.0910855 -0.114027 0)
(-0.0932459 -0.114125 0)
(-0.0983222 -0.113503 0)
(-0.102658 -0.111044 0)
(-0.110517 -0.107553 0)
(-0.121303 -0.101274 0)
(-0.135107 -0.098093 0)
(-0.154903 -0.0890768 0)
(-0.186597 -0.0679598 0)
(-0.227949 -0.0288072 0)
(-0.280933 0.0705623 0)
(-0.334856 0.211013 0)
(-0.642347 -0.159624 0)
(-1.09225 -0.260677 0)
(-1.09104 -0.148457 0)
(-1.13595 -0.0334483 0)
(-1.26804 0.150281 0)
(-1.25241 0.38449 0)
(-1.08202 0.614498 0)
(-0.86556 0.668529 0)
(-0.533001 0.462367 0)
(-0.223027 0.553787 0)
)
;
    }
    procBoundary3to2
    {
        type            processor;
        value           nonuniform List<vector> 
25
(
(-0.0778154 -0.11089 0)
(-0.0717327 -0.1076 0)
(-0.0670336 -0.0992321 0)
(-0.0701509 -0.0927724 0)
(-0.0640622 -0.0843891 0)
(-0.0663663 -0.0739707 0)
(-0.0629002 -0.0698104 0)
(-0.0627876 -0.0628112 0)
(-0.0607821 -0.0569771 0)
(-0.0602892 -0.0500423 0)
(-0.0582861 -0.0452466 0)
(-0.0571141 -0.0389026 0)
(-0.055179 -0.0338508 0)
(-0.053231 -0.0284461 0)
(-0.0509266 -0.0234277 0)
(-0.0483411 -0.0185164 0)
(-0.0454495 -0.0138248 0)
(-0.0422376 -0.00934167 0)
(-0.0387079 -0.00511255 0)
(-0.0348302 -0.00117505 0)
(-0.0305342 0.0025814 0)
(-0.0258857 0.00633445 0)
(-0.0224916 0.00835797 0)
(-0.0208676 0.00846151 0)
(-0.0208907 0.00569865 0)
)
;
    }
}


// ************************************************************************* //
