/*--------------------------------*- C++ -*----------------------------------*\
| =========                 |                                                 |
| \\      /  F ield         | OpenFOAM: The Open Source CFD Toolbox           |
|  \\    /   O peration     | Version:  2.4.0                                 |
|   \\  /    A nd           | Web:      www.OpenFOAM.org                      |
|    \\/     M anipulation  |                                                 |
\*---------------------------------------------------------------------------*/
FoamFile
{
    version     2.0;
    format      ascii;
    class       volVectorField;
    location    "0.6";
    object      U.mercury;
}
// * * * * * * * * * * * * * * * * * * * * * * * * * * * * * * * * * * * * * //

dimensions      [0 1 -1 0 0 0 0];

internalField   nonuniform List<vector> 
575
(
(-0.0818323 -0.106781 0)
(-0.0844219 -0.106951 0)
(-0.087164 -0.104457 0)
(-0.0922459 -0.102618 0)
(-0.0778802 -0.103706 0)
(-0.0811398 -0.103918 0)
(-0.0850743 -0.100481 0)
(-0.0906573 -0.0977733 0)
(-0.0725154 -0.0927169 0)
(-0.0762026 -0.0917572 0)
(-0.0805184 -0.0889201 0)
(-0.085447 -0.0856976 0)
(-0.0761311 -0.0856013 0)
(-0.0791578 -0.083418 0)
(-0.0820423 -0.0819266 0)
(-0.0855967 -0.0796543 0)
(-0.0708087 -0.0797955 0)
(-0.0744702 -0.078651 0)
(-0.0764878 -0.0777074 0)
(-0.0792591 -0.0747699 0)
(-0.0714148 -0.0710954 0)
(-0.0744968 -0.0700381 0)
(-0.0762991 -0.0709162 0)
(-0.0784085 -0.0701301 0)
(-0.0671665 -0.0678517 0)
(-0.0703317 -0.0660311 0)
(-0.0732246 -0.0654295 0)
(-0.0757594 -0.0648272 0)
(-0.0669079 -0.0618033 0)
(-0.070179 -0.0596691 0)
(-0.0725009 -0.0585983 0)
(-0.0747005 -0.0581046 0)
(-0.0656514 -0.0549596 0)
(-0.0684657 -0.054778 0)
(-0.0712668 -0.0538118 0)
(-0.0735747 -0.0536449 0)
(-0.0635814 -0.050677 0)
(-0.0665091 -0.0490481 0)
(-0.0695197 -0.0483681 0)
(-0.0722005 -0.0471978 0)
(-0.0625782 -0.0436017 0)
(-0.0653779 -0.0433795 0)
(-0.0683112 -0.0421774 0)
(-0.0713674 -0.0415144 0)
(-0.0607553 -0.0383623 0)
(-0.063418 -0.0375145 0)
(-0.0663502 -0.0367096 0)
(-0.0693416 -0.0356584 0)
(-0.0589656 -0.032347 0)
(-0.0615889 -0.0317136 0)
(-0.0643608 -0.0307447 0)
(-0.0675245 -0.0297206 0)
(-0.0568439 -0.026914 0)
(-0.0593625 -0.0259928 0)
(-0.0620351 -0.0250039 0)
(-0.0651102 -0.0238699 0)
(-0.0544697 -0.0215227 0)
(-0.0569235 -0.020441 0)
(-0.0594509 -0.0193085 0)
(-0.0624369 -0.0180799 0)
(-0.0517746 -0.0163845 0)
(-0.0541532 -0.0150779 0)
(-0.0565689 -0.0137726 0)
(-0.0593982 -0.0124005 0)
(-0.0487619 -0.0114487 0)
(-0.0510561 -0.00994636 0)
(-0.0533603 -0.00844244 0)
(-0.0560116 -0.00690195 0)
(-0.0454067 -0.00673817 0)
(-0.0476052 -0.00504983 0)
(-0.0498106 -0.00334238 0)
(-0.0522765 -0.0016093 0)
(-0.041713 -0.00227475 0)
(-0.0437879 -0.000410439 0)
(-0.0458812 0.00149766 0)
(-0.0481647 0.00342966 0)
(-0.0376341 0.00191392 0)
(-0.0395739 0.00394088 0)
(-0.0415656 0.00603089 0)
(-0.0436784 0.00815568 0)
(-0.0331496 0.00584691 0)
(-0.0349787 0.00800904 0)
(-0.0368335 0.010243 0)
(-0.0387831 0.0125362 0)
(-0.0282916 0.00957906 0)
(-0.0299399 0.0118182 0)
(-0.0316558 0.0141624 0)
(-0.0334448 0.0166145 0)
(-0.0234915 0.0125641 0)
(-0.0245573 0.0151748 0)
(-0.0258438 0.0177228 0)
(-0.0273352 0.0202905 0)
(-0.0206998 0.0135509 0)
(-0.0206174 0.0168385 0)
(-0.0208647 0.0200477 0)
(-0.0213517 0.0232396 0)
(-0.0200238 0.0113113 0)
(-0.0193643 0.0150109 0)
(-0.0188943 0.0187732 0)
(-0.0185229 0.0225706 0)
(-0.0976697 -0.100284 0)
(-0.108363 -0.0959581 0)
(-0.119628 -0.0897011 0)
(-0.129835 -0.0810173 0)
(-0.142871 -0.0678503 0)
(-0.158579 -0.0434433 0)
(-0.171902 -0.00298476 0)
(-0.162734 0.0761874 0)
(-0.159706 0.264152 0)
(-0.623172 0.313984 0)
(-1.27813 -0.0369589 0)
(-1.25783 -0.089882 0)
(-1.10686 -0.00412953 0)
(-1.03287 0.130877 0)
(-0.952552 0.323327 0)
(-0.7269 0.501611 0)
(-0.452977 0.646816 0)
(-0.194633 0.68236 0)
(-0.00298762 0.767765 0)
(-0.0954715 -0.095063 0)
(-0.104616 -0.0912779 0)
(-0.11062 -0.0875933 0)
(-0.114678 -0.0772016 0)
(-0.123552 -0.0629156 0)
(-0.125319 -0.0401408 0)
(-0.117917 -0.00510117 0)
(-0.0835774 0.0513454 0)
(-0.0382085 0.171888 0)
(0.136171 0.343508 0)
(0.0593471 0.59922 0)
(-0.811437 0.104429 0)
(-1.12073 -0.121048 0)
(-1.06195 0.0524789 0)
(-0.993422 0.174736 0)
(-0.824513 0.306373 0)
(-0.542312 0.331219 0)
(-0.288742 0.0644629 0)
(-0.0963977 0.0459682 0)
(-0.0901107 -0.0848681 0)
(-0.0974373 -0.0822306 0)
(-0.104637 -0.0777452 0)
(-0.108174 -0.0681497 0)
(-0.11071 -0.0580066 0)
(-0.104397 -0.0467509 0)
(-0.0865519 -0.027067 0)
(-0.0404796 0.00244876 0)
(0.0094725 0.0655671 0)
(0.200392 0.148423 0)
(0.388606 0.583534 0)
(0.320763 0.801231 0)
(-0.545874 0.267914 0)
(-0.929391 0.121002 0)
(-0.94267 0.137215 0)
(-0.831753 0.183957 0)
(-0.556969 0.0843277 0)
(-0.12881 -0.703262 0)
(-0.0561722 -0.776535 0)
(-0.0899134 -0.0813285 0)
(-0.0946158 -0.0799512 0)
(-0.0968957 -0.0767653 0)
(-0.10224 -0.0693047 0)
(-0.100494 -0.0627268 0)
(-0.0922057 -0.0576159 0)
(-0.0734029 -0.0507965 0)
(-0.0331161 -0.0481947 0)
(0.00888802 -0.0351929 0)
(0.177631 0.00649664 0)
(0.28442 0.333231 0)
(0.503135 1.00583 0)
(0.196463 0.825577 0)
(-0.376174 0.45778 0)
(-0.50237 0.146521 0)
(-0.449164 0.021963 0)
(-0.0675312 0.0103212 0)
(-0.0705196 -0.610374 0)
(-0.0212399 -0.895228 0)
(-0.0837154 -0.0740157 0)
(-0.0905334 -0.0749238 0)
(-0.0942216 -0.0709557 0)
(-0.09887 -0.0650883 0)
(-0.0979086 -0.064558 0)
(-0.090102 -0.0674721 0)
(-0.0774974 -0.0694279 0)
(-0.0490194 -0.0879 0)
(-0.0269718 -0.112214 0)
(0.115623 -0.0940837 0)
(0.110835 0.177385 0)
(0.478928 1.02151 0)
(0.338124 1.04025 0)
(0.0407469 0.807708 0)
(-0.0940587 0.338148 0)
(-0.212423 0.0130159 0)
(0.124816 -0.00591916 0)
(-0.169366 -0.19714 0)
(-0.0159516 -0.884915 0)
(-0.0832543 -0.0696826 0)
(-0.0887829 -0.0694418 0)
(-0.0927084 -0.0668474 0)
(-0.09769 -0.0648197 0)
(-0.0976345 -0.0669527 0)
(-0.0965101 -0.0714414 0)
(-0.0922473 -0.0800017 0)
(-0.0814808 -0.110745 0)
(-0.080045 -0.151006 0)
(0.00990341 -0.146936 0)
(-0.0977632 -0.0149716 0)
(0.403864 0.985081 0)
(0.297791 1.08521 0)
(0.222925 0.929736 0)
(0.154977 0.480956 0)
(0.0515324 -0.0367129 0)
(0.202748 -0.0555278 0)
(-0.0720192 -0.215284 0)
(-0.0138883 -0.850978 0)
(-0.0799545 -0.0646354 0)
(-0.0877932 -0.0643475 0)
(-0.0924038 -0.0622962 0)
(-0.0978027 -0.0611377 0)
(-0.101713 -0.0640569 0)
(-0.104344 -0.0703579 0)
(-0.111038 -0.0803865 0)
(-0.114659 -0.106682 0)
(-0.132787 -0.14768 0)
(-0.126235 -0.162162 0)
(-0.255216 -0.0976002 0)
(0.172517 0.842061 0)
(0.246819 1.06569 0)
(0.235518 0.923374 0)
(0.286712 0.53624 0)
(0.263907 0.0251513 0)
(0.306236 -0.0288528 0)
(0.0356905 -0.0977978 0)
(-0.00789574 -0.81251 0)
(-0.0791345 -0.0577922 0)
(-0.0867312 -0.0584331 0)
(-0.0921584 -0.0568651 0)
(-0.0982518 -0.0571193 0)
(-0.105431 -0.0593765 0)
(-0.111747 -0.0637161 0)
(-0.124984 -0.0718888 0)
(-0.138483 -0.0890806 0)
(-0.171061 -0.113844 0)
(-0.224443 -0.137011 0)
(-0.343861 -0.100796 0)
(-0.188601 0.50785 0)
(0.193887 0.99792 0)
(0.2109 0.87445 0)
(0.36672 0.488568 0)
(0.387991 0.068581 0)
(0.388333 0.0343625 0)
(0.0314601 0.0324272 0)
(-0.001671 -0.761324 0)
(-0.0771665 -0.0533613 0)
(-0.0856379 -0.0517335 0)
(-0.0920784 -0.0511793 0)
(-0.0988757 -0.0503545 0)
(-0.108221 -0.0521238 0)
(-0.116563 -0.0547518 0)
(-0.132317 -0.0585686 0)
(-0.150231 -0.0660114 0)
(-0.185769 -0.0743844 0)
(-0.24273 -0.078535 0)
(-0.340565 -0.0429316 0)
(-0.342342 0.2744 0)
(0.0324704 0.7366 0)
(0.175716 0.697238 0)
(0.396252 0.34012 0)
(0.415284 0.0997201 0)
(0.413361 0.135269 0)
(0.0249145 0.196504 0)
(0.00788983 -0.686538 0)
(-0.0767762 -0.0456492 0)
(-0.0842168 -0.0459062 0)
(-0.0918079 -0.0444222 0)
(-0.0988414 -0.0435261 0)
(-0.108923 -0.0438747 0)
(-0.118539 -0.0442762 0)
(-0.133903 -0.0443707 0)
(-0.151331 -0.0445432 0)
(-0.181011 -0.0408977 0)
(-0.22058 -0.0260617 0)
(-0.272352 0.0149611 0)
(-0.322305 0.180548 0)
(-0.0863485 0.438129 0)
(0.10284 0.442494 0)
(0.357956 0.210166 0)
(0.34357 0.135868 0)
(0.357758 0.254423 0)
(0.0573504 0.343055 0)
(0.0137741 -0.570235 0)
(-0.075052 -0.0405705 0)
(-0.0826966 -0.0387798 0)
(-0.0908114 -0.0375878 0)
(-0.0979975 -0.0359596 0)
(-0.108252 -0.0351334 0)
(-0.118042 -0.0338682 0)
(-0.131599 -0.0313577 0)
(-0.146261 -0.0272797 0)
(-0.167247 -0.0181855 0)
(-0.189051 0.00388275 0)
(-0.203354 0.0412865 0)
(-0.223385 0.144684 0)
(-0.0697748 0.286833 0)
(0.0585261 0.250029 0)
(0.263624 0.150743 0)
(0.217587 0.150409 0)
(0.281726 0.345418 0)
(0.0433128 0.441505 0)
(0.0211207 -0.493011 0)
(-0.0737714 -0.0338875 0)
(-0.0809278 -0.0323301 0)
(-0.0891641 -0.0304901 0)
(-0.0965705 -0.0283513 0)
(-0.106414 -0.026521 0)
(-0.115875 -0.0241706 0)
(-0.127363 -0.0203213 0)
(-0.13877 -0.0146602 0)
(-0.152503 -0.00509388 0)
(-0.160834 0.0150979 0)
(-0.155744 0.0428496 0)
(-0.157131 0.0992077 0)
(-0.0263451 0.184828 0)
(0.0379957 0.134173 0)
(0.179726 0.112471 0)
(0.123598 0.141147 0)
(0.200803 0.415241 0)
(0.0531816 0.433534 0)
(0.041651 -0.431464 0)
(-0.0718659 -0.0279644 0)
(-0.078789 -0.0255708 0)
(-0.0870561 -0.023395 0)
(-0.0945084 -0.0207794 0)
(-0.103893 -0.0182439 0)
(-0.112904 -0.0153207 0)
(-0.122674 -0.0111926 0)
(-0.131557 -0.00581992 0)
(-0.140588 0.00145088 0)
(-0.140967 0.0160633 0)
(-0.128924 0.032869 0)
(-0.123012 0.0532477 0)
(-0.0129887 0.103709 0)
(0.0161619 0.0646201 0)
(0.12323 0.0869206 0)
(0.0553759 0.133272 0)
(0.109783 0.458956 0)
(0.0379147 0.326944 0)
(0.0685573 -0.375667 0)
(-0.0696816 -0.0217998 0)
(-0.0763802 -0.0190237 0)
(-0.0844654 -0.0163167 0)
(-0.0920022 -0.0133001 0)
(-0.100996 -0.0102902 0)
(-0.109742 -0.00712827 0)
(-0.118621 -0.00321945 0)
(-0.126407 0.00106751 0)
(-0.132671 0.00449358 0)
(-0.131889 0.0113631 0)
(-0.117727 0.0176606 0)
(-0.109285 0.0156607 0)
(-0.0210993 0.0444657 0)
(-0.0117378 0.0146356 0)
(0.0767143 0.062723 0)
(-0.0294985 0.14934 0)
(-0.00508154 0.456376 0)
(-0.00504377 0.2702 0)
(0.0625817 -0.29643 0)
(-0.0670614 -0.0158174 0)
(-0.0735901 -0.0125376 0)
(-0.0814667 -0.00933104 0)
(-0.0891098 -0.0058969 0)
(-0.0979048 -0.00244583 0)
(-0.106594 0.000981228 0)
(-0.11554 0.00459846 0)
(-0.123708 0.0070162 0)
(-0.129259 0.00770852 0)
(-0.131011 0.00734892 0)
(-0.121806 0.00123236 0)
(-0.112606 -0.0155395 0)
(-0.0461544 -0.0035265 0)
(-0.0521738 -0.0261641 0)
(-0.00492355 0.0648115 0)
(-0.187571 0.218964 0)
(-0.152082 0.476363 0)
(-0.0810573 0.311492 0)
(-0.0263974 -0.313929 0)
(-0.0640326 -0.00989031 0)
(-0.0704332 -0.00615869 0)
(-0.0780639 -0.00240788 0)
(-0.0857665 0.00147522 0)
(-0.0944691 0.00542134 0)
(-0.103436 0.00918488 0)
(-0.112882 0.0124037 0)
(-0.122104 0.0141666 0)
(-0.131158 0.0133343 0)
(-0.137256 0.00769666 0)
(-0.136992 -0.00695823 0)
(-0.133445 -0.0345239 0)
(-0.103635 -0.0417625 0)
(-0.116284 -0.0215606 0)
(-0.210676 0.115514 0)
(-0.426488 0.324673 0)
(-0.389705 0.381967 0)
(-0.199349 0.192745 0)
(-0.024059 -0.404813 0)
(-0.0605632 -0.00412845 0)
(-0.0668231 7.91142e-05 0)
(-0.0742142 0.00439652 0)
(-0.081967 0.00884823 0)
(-0.0906329 0.0134233 0)
(-0.0999523 0.0178257 0)
(-0.110349 0.0216819 0)
(-0.121705 0.0240271 0)
(-0.134455 0.0231195 0)
(-0.147163 0.0156805 0)
(-0.159556 -0.00472597 0)
(-0.176549 -0.0437829 0)
(-0.188819 -0.0584273 0)
(-0.316192 0.0500979 0)
(-0.574937 0.354309 0)
(-0.64133 0.30604 0)
(-0.543038 0.0706025 0)
(-0.10169 -0.399871 0)
(0.0349366 -0.505615 0)
(-0.0566587 0.00145586 0)
(-0.062755 0.00614308 0)
(-0.0698493 0.0110445 0)
(-0.0775169 0.0161887 0)
(-0.0861109 0.0216083 0)
(-0.0956703 0.0270297 0)
(-0.106859 0.0322879 0)
(-0.120276 0.0367633 0)
(-0.137869 0.0394168 0)
(-0.16141 0.0375658 0)
(-0.19846 0.0271054 0)
(-0.260961 0.0133969 0)
(-0.359962 0.0644128 0)
(-0.606466 0.330657 0)
(-0.746694 0.520978 0)
(-0.501795 -0.0278305 0)
(-0.178909 -0.561805 0)
(-0.0702795 -0.520371 0)
(0.0344245 -0.488865 0)
(-0.0523098 0.0068121 0)
(-0.0581774 0.011973 0)
(-0.0649109 0.017492 0)
(-0.0723202 0.0233722 0)
(-0.0806283 0.0297174 0)
(-0.0900209 0.0363703 0)
(-0.101174 0.0434842 0)
(-0.114797 0.0510199 0)
(-0.133054 0.0594715 0)
(-0.157872 0.0694774 0)
(-0.198787 0.0840466 0)
(-0.26774 0.115529 0)
(-0.359157 0.203762 0)
(-0.521686 0.408683 0)
(-0.582118 0.489335 0)
(-0.304169 -0.172875 0)
(-0.106785 -0.561133 0)
(-0.088516 -0.528259 0)
(0.0411754 -0.496101 0)
(-0.0475388 0.0118494 0)
(-0.0531038 0.0174883 0)
(-0.0593895 0.0236356 0)
(-0.0663755 0.0302611 0)
(-0.0741766 0.0375388 0)
(-0.0830002 0.0454293 0)
(-0.093325 0.0542906 0)
(-0.105595 0.0645451 0)
(-0.121163 0.0775079 0)
(-0.139541 0.0955292 0)
(-0.165519 0.123867 0)
(-0.201422 0.176182 0)
(-0.213485 0.283543 0)
(-0.237881 0.433899 0)
(-0.222666 0.448053 0)
(-0.129052 -0.152643 0)
(-0.0721301 -0.559279 0)
(-0.0961714 -0.554056 0)
(0.069291 -0.496734 0)
(-0.0423294 0.0165078 0)
(-0.0475114 0.0226081 0)
(-0.0532802 0.029287 0)
(-0.0596868 0.0365145 0)
(-0.0667563 0.0445461 0)
(-0.0746467 0.0533906 0)
(-0.0835357 0.0634959 0)
(-0.0934737 0.0753722 0)
(-0.10491 0.0903385 0)
(-0.115254 0.110444 0)
(-0.125094 0.139525 0)
(-0.134953 0.183071 0)
(-0.0820708 0.252887 0)
(-0.0206439 0.380228 0)
(0.15572 0.415635 0)
(0.261158 0.157263 0)
(0.0958796 -0.480692 0)
(-0.0952615 -0.549595 0)
(0.110886 -0.522427 0)
(-0.036665 0.02089 0)
(-0.0414557 0.0274203 0)
(-0.0467189 0.0346305 0)
(-0.0525199 0.0424747 0)
(-0.0589624 0.0511867 0)
(-0.0660168 0.0608277 0)
(-0.0737267 0.0716179 0)
(-0.0818641 0.0840874 0)
(-0.0901641 0.0989918 0)
(-0.0954391 0.117613 0)
(-0.0949629 0.141398 0)
(-0.0942562 0.166974 0)
(-0.0236991 0.198482 0)
(0.0185394 0.244398 0)
(0.26723 0.192055 0)
(0.319868 0.0998669 0)
(0.456968 -0.222978 0)
(-0.144568 -0.505503 0)
(0.213396 -0.517345 0)
(-0.0302404 0.0247175 0)
(-0.0344905 0.0315964 0)
(-0.0393243 0.0390828 0)
(-0.0444316 0.0473522 0)
(-0.0499538 0.0564862 0)
(-0.0559799 0.0665984 0)
(-0.0624075 0.07783 0)
(-0.0690362 0.0902193 0)
(-0.075651 0.103794 0)
(-0.0795359 0.118557 0)
(-0.07676 0.13212 0)
(-0.0753528 0.13887 0)
(-0.0190301 0.138993 0)
(-0.00558048 0.087054 0)
(0.197902 0.0368229 0)
(0.198184 0.104678 0)
(0.500346 -0.0312935 0)
(-0.227409 -0.41467 0)
(0.361557 -0.489786 0)
(-0.022795 0.0285099 0)
(-0.0260506 0.0358681 0)
(-0.0300922 0.0437189 0)
(-0.0347983 0.0523337 0)
(-0.0400868 0.0619115 0)
(-0.0459088 0.0725312 0)
(-0.0523222 0.0842479 0)
(-0.0591207 0.0967978 0)
(-0.0658936 0.109711 0)
(-0.0714804 0.122329 0)
(-0.0740725 0.131919 0)
(-0.07978 0.13047 0)
(-0.0546881 0.12201 0)
(-0.0625583 0.0602437 0)
(0.0222493 -0.0285482 0)
(-0.0600506 -0.0305329 0)
(0.477546 0.0715429 0)
(-0.229701 -0.295563 0)
(0.522296 -0.400229 0)
(-0.0183175 0.0290225 0)
(-0.0188793 0.0379023 0)
(-0.0203005 0.0469425 0)
(-0.0223412 0.0564105 0)
(-0.0247565 0.0666029 0)
(-0.0275292 0.0778183 0)
(-0.0306994 0.0902434 0)
(-0.0345422 0.103729 0)
(-0.0394925 0.117721 0)
(-0.0456507 0.131196 0)
(-0.051618 0.137983 0)
(-0.062083 0.129428 0)
(-0.0381705 0.112558 0)
(-0.0789281 0.00705631 0)
(0.0736972 0.00146394 0)
(-0.133366 -0.252933 0)
(0.39424 0.00167979 0)
(-0.0557433 -0.333562 0)
(0.547346 -0.171836 0)
)
;

boundaryField
{
    leftWall
    {
        type            fixedValue;
        value           nonuniform 0();
    }
    rightWall
    {
        type            fixedValue;
        value           uniform (0 0 0);
    }
    lowerWall
    {
        type            fixedValue;
        value           nonuniform 0();
    }
    atmosphere
    {
        type            fluxCorrectedVelocity;
        value           nonuniform List<vector> 
23
(
(-0.0200238 0.0112752 0)
(-0.0193643 0.0149867 0)
(-0.0188943 0.0187574 0)
(-0.0185229 0.0225614 0)
(-0.0183175 0.0290222 0)
(-0.0188793 0.0379118 0)
(-0.0203005 0.0469605 0)
(-0.0223412 0.0564362 0)
(-0.0247565 0.0666353 0)
(-0.0275292 0.0778564 0)
(-0.0306994 0.0902884 0)
(-0.0345422 0.103779 0)
(-0.0394925 0.117774 0)
(-0.0456507 0.131244 0)
(-0.051618 0.13797 0)
(-0.062083 0.12916 0)
(-0.0381705 0.112263 0)
(-0.0789281 0.00398593 0)
(0.0736972 0.00065656 0)
(-0.133366 -0.255688 0)
(0.39424 -0.00469285 0)
(-0.0557433 -0.335721 0)
(0.547346 -0.161678 0)
)
;
    }
    defaultFaces
    {
        type            empty;
    }
    procBoundary3to1
    {
        type            processor;
        value           nonuniform List<vector> 
23
(
(-0.0891097 -0.113397 0)
(-0.0911322 -0.113704 0)
(-0.0932968 -0.113791 0)
(-0.0983636 -0.113157 0)
(-0.102672 -0.110683 0)
(-0.110489 -0.107179 0)
(-0.121238 -0.100902 0)
(-0.135009 -0.0977514 0)
(-0.154775 -0.0888248 0)
(-0.186439 -0.0679462 0)
(-0.227717 -0.0292662 0)
(-0.280422 0.0686153 0)
(-0.4775 0.173945 0)
(-1.23297 -0.15943 0)
(-1.20489 -0.15127 0)
(-1.16294 -0.0871922 0)
(-1.13669 0.0575378 0)
(-1.1466 0.262822 0)
(-1.03474 0.493236 0)
(-0.712807 0.687284 0)
(-0.325265 0.854718 0)
(-0.037144 0.932007 0)
(0.0919647 0.95635 0)
)
;
    }
    procBoundary3to2
    {
        type            processor;
        value           nonuniform List<vector> 
25
(
(-0.0778234 -0.110628 0)
(-0.0717273 -0.107368 0)
(-0.0670115 -0.0990323 0)
(-0.0701169 -0.0926009 0)
(-0.0640173 -0.0842429 0)
(-0.066315 -0.0738457 0)
(-0.0628413 -0.0697034 0)
(-0.0627257 -0.0627196 0)
(-0.0607169 -0.056899 0)
(-0.0602237 -0.0499753 0)
(-0.05822 -0.0451891 0)
(-0.0570496 -0.0388529 0)
(-0.0551161 -0.0338078 0)
(-0.0531709 -0.0284084 0)
(-0.0508696 -0.0233946 0)
(-0.048288 -0.0184867 0)
(-0.0454007 -0.0137978 0)
(-0.0421931 -0.00931649 0)
(-0.0386684 -0.00508879 0)
(-0.0347954 -0.00115181 0)
(-0.0305048 0.00260464 0)
(-0.0258612 0.00635785 0)
(-0.0224737 0.00838223 0)
(-0.0208559 0.00848522 0)
(-0.0208864 0.00572092 0)
)
;
    }
}


// ************************************************************************* //
