/*--------------------------------*- C++ -*----------------------------------*\
| =========                 |                                                 |
| \\      /  F ield         | OpenFOAM: The Open Source CFD Toolbox           |
|  \\    /   O peration     | Version:  2.4.0                                 |
|   \\  /    A nd           | Web:      www.OpenFOAM.org                      |
|    \\/     M anipulation  |                                                 |
\*---------------------------------------------------------------------------*/
FoamFile
{
    version     2.0;
    format      ascii;
    class       volVectorField;
    location    "0.6";
    object      U.oil;
}
// * * * * * * * * * * * * * * * * * * * * * * * * * * * * * * * * * * * * * //

dimensions      [0 1 -1 0 0 0 0];

internalField   nonuniform List<vector> 
575
(
(-0.0818324 -0.106785 0)
(-0.084422 -0.106954 0)
(-0.0871641 -0.104461 0)
(-0.092246 -0.102623 0)
(-0.0778802 -0.103708 0)
(-0.0811399 -0.103919 0)
(-0.0850744 -0.100482 0)
(-0.0906573 -0.0977744 0)
(-0.0725155 -0.0927177 0)
(-0.0762026 -0.0917579 0)
(-0.0805185 -0.0889206 0)
(-0.085447 -0.0856981 0)
(-0.0761311 -0.0856018 0)
(-0.0791578 -0.0834184 0)
(-0.0820423 -0.0819269 0)
(-0.0855967 -0.0796545 0)
(-0.0708087 -0.0797957 0)
(-0.0744702 -0.0786511 0)
(-0.0764878 -0.0777075 0)
(-0.0792591 -0.07477 0)
(-0.0714148 -0.0710955 0)
(-0.0744968 -0.0700381 0)
(-0.0762991 -0.0709162 0)
(-0.0784085 -0.0701302 0)
(-0.0671665 -0.0678517 0)
(-0.0703317 -0.0660311 0)
(-0.0732246 -0.0654295 0)
(-0.0757594 -0.0648272 0)
(-0.0669079 -0.0618033 0)
(-0.070179 -0.0596691 0)
(-0.0725009 -0.0585983 0)
(-0.0747005 -0.0581046 0)
(-0.0656514 -0.0549596 0)
(-0.0684657 -0.054778 0)
(-0.0712668 -0.0538118 0)
(-0.0735747 -0.0536449 0)
(-0.0635814 -0.050677 0)
(-0.0665091 -0.0490481 0)
(-0.0695197 -0.0483681 0)
(-0.0722005 -0.0471978 0)
(-0.0625782 -0.0436017 0)
(-0.0653779 -0.0433795 0)
(-0.0683112 -0.0421774 0)
(-0.0713674 -0.0415144 0)
(-0.0607553 -0.0383623 0)
(-0.063418 -0.0375145 0)
(-0.0663502 -0.0367096 0)
(-0.0693416 -0.0356584 0)
(-0.0589656 -0.032347 0)
(-0.0615889 -0.0317136 0)
(-0.0643608 -0.0307447 0)
(-0.0675245 -0.0297206 0)
(-0.0568439 -0.026914 0)
(-0.0593625 -0.0259928 0)
(-0.0620351 -0.0250039 0)
(-0.0651102 -0.0238699 0)
(-0.0544697 -0.0215227 0)
(-0.0569235 -0.020441 0)
(-0.0594509 -0.0193085 0)
(-0.0624369 -0.0180799 0)
(-0.0517746 -0.0163845 0)
(-0.0541532 -0.0150779 0)
(-0.0565689 -0.0137726 0)
(-0.0593982 -0.0124005 0)
(-0.0487619 -0.0114487 0)
(-0.0510561 -0.00994636 0)
(-0.0533603 -0.00844244 0)
(-0.0560116 -0.00690195 0)
(-0.0454067 -0.00673817 0)
(-0.0476052 -0.00504983 0)
(-0.0498106 -0.00334238 0)
(-0.0522765 -0.0016093 0)
(-0.041713 -0.00227475 0)
(-0.0437879 -0.000410439 0)
(-0.0458812 0.00149766 0)
(-0.0481647 0.00342966 0)
(-0.0376341 0.00191392 0)
(-0.0395739 0.00394088 0)
(-0.0415656 0.00603089 0)
(-0.0436784 0.00815568 0)
(-0.0331496 0.00584691 0)
(-0.0349787 0.00800904 0)
(-0.0368335 0.010243 0)
(-0.0387831 0.0125362 0)
(-0.0282916 0.00957906 0)
(-0.0299399 0.0118182 0)
(-0.0316558 0.0141624 0)
(-0.0334448 0.0166145 0)
(-0.0234915 0.0125641 0)
(-0.0245573 0.0151748 0)
(-0.0258438 0.0177228 0)
(-0.0273352 0.0202905 0)
(-0.0206998 0.0135509 0)
(-0.0206174 0.0168385 0)
(-0.0208647 0.0200477 0)
(-0.0213517 0.0232396 0)
(-0.0200238 0.0113113 0)
(-0.0193643 0.0150109 0)
(-0.0188943 0.0187732 0)
(-0.0185229 0.0225706 0)
(-0.09767 -0.100291 0)
(-0.108364 -0.0959756 0)
(-0.11963 -0.0897449 0)
(-0.129839 -0.081126 0)
(-0.142871 -0.0681498 0)
(-0.158544 -0.0441911 0)
(-0.171763 -0.0053718 0)
(-0.190784 0.0677444 0)
(-1.342 0.117825 0)
(-2.0614 0.00808925 0)
(-1.71274 -0.0365078 0)
(-1.28338 -0.0564079 0)
(-1.06757 -0.0145283 0)
(-0.992728 0.0966429 0)
(-1.01161 0.238398 0)
(-0.930227 0.360613 0)
(-0.807577 0.349243 0)
(-0.592829 0.189201 0)
(-0.243842 0.163764 0)
(-0.0954715 -0.0950647 0)
(-0.104616 -0.0912832 0)
(-0.110621 -0.0876147 0)
(-0.114682 -0.0772682 0)
(-0.123557 -0.0631339 0)
(-0.125318 -0.0407246 0)
(-0.11786 -0.00676285 0)
(-0.0838811 0.0474912 0)
(-0.126427 0.158286 0)
(-0.587247 0.210637 0)
(-1.37587 0.0432884 0)
(-1.4187 -0.0133426 0)
(-1.19919 -0.0319655 0)
(-1.01372 0.0291636 0)
(-0.927213 0.11386 0)
(-0.802668 0.182306 0)
(-0.571784 0.106728 0)
(-0.322596 -0.216325 0)
(-0.155349 -0.396659 0)
(-0.0901107 -0.0848686 0)
(-0.0974374 -0.082232 0)
(-0.104638 -0.0777549 0)
(-0.108176 -0.0681866 0)
(-0.110717 -0.0581418 0)
(-0.104419 -0.0471857 0)
(-0.0866091 -0.0282756 0)
(-0.0408014 -0.000407572 0)
(0.00754166 0.0589009 0)
(0.155948 0.13628 0)
(0.147618 0.495803 0)
(-0.934275 0.171995 0)
(-1.24223 -0.00420925 0)
(-1.17357 -0.0425774 0)
(-1.00862 -0.0090034 0)
(-0.830619 -0.00988433 0)
(-0.483422 -0.151292 0)
(-0.0598656 -0.813292 0)
(-0.0484451 -0.791709 0)
(-0.0899134 -0.0813287 0)
(-0.0946158 -0.0799516 0)
(-0.0968959 -0.0767692 0)
(-0.102241 -0.0693213 0)
(-0.100499 -0.062796 0)
(-0.0922299 -0.0578764 0)
(-0.0735008 -0.0516296 0)
(-0.0335749 -0.0503543 0)
(0.00735667 -0.0399222 0)
(0.173441 -0.00457523 0)
(0.257799 0.321393 0)
(0.329451 0.897898 0)
(-0.188293 0.607716 0)
(-0.701115 0.247717 0)
(-0.855025 0.0132777 0)
(-0.85317 -0.0729701 0)
(-0.273415 -0.447803 0)
(-0.0210876 -0.881751 0)
(-0.0201179 -0.89976 0)
(-0.0837154 -0.0740158 0)
(-0.0905334 -0.074924 0)
(-0.0942217 -0.070957 0)
(-0.0988705 -0.065095 0)
(-0.0979115 -0.0645887 0)
(-0.0901181 -0.0676033 0)
(-0.0775834 -0.0699284 0)
(-0.0494834 -0.0894338 0)
(-0.0284526 -0.115764 0)
(0.110446 -0.102176 0)
(0.100219 0.15909 0)
(0.450604 0.993567 0)
(0.283596 0.988192 0)
(-0.0101406 0.758553 0)
(-0.105388 0.297219 0)
(-0.232093 -0.0274885 0)
(0.125155 -0.0481148 0)
(-0.0325178 -0.760365 0)
(-0.0156541 -0.885496 0)
(-0.0832543 -0.0696827 0)
(-0.0887829 -0.0694418 0)
(-0.0927084 -0.0668478 0)
(-0.0976902 -0.0648221 0)
(-0.0976358 -0.0669645 0)
(-0.0965179 -0.0714973 0)
(-0.092297 -0.0802467 0)
(-0.081788 -0.111643 0)
(-0.0808117 -0.153213 0)
(0.00373846 -0.152852 0)
(-0.110018 -0.0296298 0)
(0.405439 0.975396 0)
(0.292067 1.06386 0)
(0.201553 0.911968 0)
(0.153484 0.47071 0)
(0.0679777 -0.0415386 0)
(0.209542 -0.068679 0)
(-0.0456256 -0.526129 0)
(-0.0138494 -0.851356 0)
(-0.0799545 -0.0646354 0)
(-0.0877932 -0.0643476 0)
(-0.0924038 -0.0622964 0)
(-0.0978027 -0.0611384 0)
(-0.101713 -0.0640608 0)
(-0.104347 -0.0703782 0)
(-0.111058 -0.0804865 0)
(-0.11481 -0.107118 0)
(-0.133595 -0.149146 0)
(-0.131278 -0.165791 0)
(-0.260407 -0.0952476 0)
(0.187168 0.845712 0)
(0.256814 1.05848 0)
(0.228224 0.919159 0)
(0.283579 0.542926 0)
(0.273662 0.0294005 0)
(0.313068 -0.0345394 0)
(0.0118328 -0.412322 0)
(-0.00743219 -0.812134 0)
(-0.0791345 -0.0577922 0)
(-0.0867312 -0.0584331 0)
(-0.0921584 -0.0568651 0)
(-0.0982518 -0.0571195 0)
(-0.105431 -0.0593777 0)
(-0.111748 -0.0637224 0)
(-0.12499 -0.0719236 0)
(-0.138535 -0.0892598 0)
(-0.171435 -0.114563 0)
(-0.226619 -0.138685 0)
(-0.345065 -0.0936354 0)
(-0.179326 0.514888 0)
(0.202687 0.999303 0)
(0.212456 0.878585 0)
(0.36286 0.498186 0)
(0.392203 0.0737847 0)
(0.393404 0.0313162 0)
(0.00955186 -0.309217 0)
(-0.000685834 -0.761702 0)
(-0.0771665 -0.0533613 0)
(-0.0856379 -0.0517335 0)
(-0.0920784 -0.0511793 0)
(-0.0988757 -0.0503546 0)
(-0.108221 -0.0521242 0)
(-0.116563 -0.0547537 0)
(-0.132319 -0.058579 0)
(-0.150244 -0.0660693 0)
(-0.185867 -0.0746602 0)
(-0.243302 -0.0792758 0)
(-0.340738 -0.0404291 0)
(-0.333578 0.280774 0)
(0.0435679 0.744183 0)
(0.179117 0.703961 0)
(0.390612 0.345926 0)
(0.415333 0.0982414 0)
(0.415073 0.128787 0)
(0.00451749 -0.15122 0)
(0.00877474 -0.688283 0)
(-0.0767762 -0.0456492 0)
(-0.0842168 -0.0459062 0)
(-0.0918079 -0.0444222 0)
(-0.0988414 -0.0435261 0)
(-0.108923 -0.0438749 0)
(-0.118539 -0.0442769 0)
(-0.133904 -0.0443741 0)
(-0.151333 -0.0445601 0)
(-0.181024 -0.040978 0)
(-0.220646 -0.0263741 0)
(-0.272372 0.014533 0)
(-0.318835 0.181156 0)
(-0.0799364 0.439341 0)
(0.104341 0.441882 0)
(0.355309 0.207249 0)
(0.343309 0.129846 0)
(0.358675 0.246867 0)
(0.0272936 0.0368664 0)
(0.0145833 -0.574175 0)
(-0.075052 -0.0405705 0)
(-0.0826966 -0.0387798 0)
(-0.0908114 -0.0375878 0)
(-0.0979975 -0.0359597 0)
(-0.108252 -0.0351335 0)
(-0.118042 -0.0338686 0)
(-0.1316 -0.0313596 0)
(-0.146262 -0.0272872 0)
(-0.167249 -0.0182128 0)
(-0.189052 0.00378179 0)
(-0.203341 0.0409494 0)
(-0.22296 0.143667 0)
(-0.06897 0.28504 0)
(0.0588839 0.24677 0)
(0.262793 0.145095 0)
(0.217257 0.141911 0)
(0.284264 0.336197 0)
(0.0244654 0.120485 0)
(0.0208393 -0.502583 0)
(-0.0737714 -0.0338875 0)
(-0.0809278 -0.0323301 0)
(-0.0891641 -0.0304901 0)
(-0.0965705 -0.0283514 0)
(-0.106414 -0.0265211 0)
(-0.115875 -0.024171 0)
(-0.127363 -0.0203229 0)
(-0.138771 -0.0146663 0)
(-0.152503 -0.00511405 0)
(-0.160829 0.0150377 0)
(-0.155722 0.0426747 0)
(-0.157018 0.0986948 0)
(-0.0262581 0.183443 0)
(0.0381299 0.13027 0)
(0.17902 0.104835 0)
(0.125284 0.129937 0)
(0.206516 0.402272 0)
(0.0434496 -0.124131 0)
(0.0324122 -0.462241 0)
(-0.0718659 -0.0279644 0)
(-0.078789 -0.0255708 0)
(-0.0870561 -0.023395 0)
(-0.0945084 -0.0207794 0)
(-0.103893 -0.018244 0)
(-0.112904 -0.015321 0)
(-0.122674 -0.0111939 0)
(-0.131557 -0.00582548 0)
(-0.140588 0.00143067 0)
(-0.140962 0.0159998 0)
(-0.1289 0.0326924 0)
(-0.122907 0.0528045 0)
(-0.0128497 0.102452 0)
(0.0166321 0.0576308 0)
(0.126055 0.0687231 0)
(0.0606435 0.116278 0)
(0.124074 0.442817 0)
(0.0398286 -0.316828 0)
(0.0423708 -0.455183 0)
(-0.0696816 -0.0217998 0)
(-0.0763802 -0.0190237 0)
(-0.0844654 -0.0163167 0)
(-0.0920022 -0.0133001 0)
(-0.100996 -0.0102902 0)
(-0.109742 -0.00712847 0)
(-0.118621 -0.0032206 0)
(-0.126407 0.00106199 0)
(-0.13267 0.00447097 0)
(-0.131883 0.0112837 0)
(-0.117704 0.0174141 0)
(-0.109175 0.0149787 0)
(-0.0208324 0.0417912 0)
(-0.0117841 -0.0148421 0)
(0.0990963 -0.209968 0)
(0.0120969 0.0397485 0)
(0.0357571 0.358099 0)
(0.0339927 -0.353028 0)
(0.0284716 -0.442511 0)
(-0.0670614 -0.0158174 0)
(-0.0735901 -0.0125376 0)
(-0.0814667 -0.00933104 0)
(-0.0891098 -0.00589691 0)
(-0.0979048 -0.00244585 0)
(-0.106594 0.000981055 0)
(-0.11554 0.00459736 0)
(-0.123708 0.0070102 0)
(-0.129258 0.00768073 0)
(-0.131006 0.00723839 0)
(-0.121783 0.000848904 0)
(-0.112418 -0.0168889 0)
(-0.0461781 -0.0121723 0)
(-0.080467 -0.241975 0)
(-0.00274732 -0.483875 0)
(-0.110115 -0.068715 0)
(-0.0314898 0.117616 0)
(0.0367212 -0.279376 0)
(0.0206078 -0.425852 0)
(-0.0640326 -0.00989031 0)
(-0.0704332 -0.00615869 0)
(-0.0780639 -0.00240788 0)
(-0.0857665 0.00147522 0)
(-0.0944691 0.00542133 0)
(-0.103436 0.00918473 0)
(-0.112882 0.0124027 0)
(-0.122104 0.0141603 0)
(-0.131158 0.0133002 0)
(-0.137253 0.00753817 0)
(-0.13698 -0.00758996 0)
(-0.133387 -0.0371287 0)
(-0.105559 -0.0674318 0)
(-0.162205 -0.354474 0)
(-0.193858 -0.497239 0)
(-0.215786 -0.0229554 0)
(-0.137213 0.168723 0)
(0.00471819 -0.367258 0)
(0.0365051 -0.56311 0)
(-0.0605632 -0.00412845 0)
(-0.0668231 7.91142e-05 0)
(-0.0742142 0.00439652 0)
(-0.081967 0.00884823 0)
(-0.0906329 0.0134233 0)
(-0.0999523 0.0178256 0)
(-0.110349 0.021681 0)
(-0.121705 0.0240208 0)
(-0.134456 0.0230797 0)
(-0.147169 0.0154572 0)
(-0.159601 -0.00577377 0)
(-0.176805 -0.0476124 0)
(-0.190342 -0.0754826 0)
(-0.317915 -0.184284 0)
(-0.298997 -0.470215 0)
(-0.214892 -0.585271 0)
(-0.185655 -0.672656 0)
(-0.0393732 -0.553576 0)
(0.0355518 -0.505252 0)
(-0.0566587 0.00145586 0)
(-0.062755 0.00614308 0)
(-0.0698493 0.0110445 0)
(-0.0775169 0.0161887 0)
(-0.0861109 0.0216083 0)
(-0.0956703 0.0270296 0)
(-0.106859 0.0322872 0)
(-0.120277 0.0367578 0)
(-0.137873 0.0393767 0)
(-0.161438 0.037308 0)
(-0.198557 0.0258052 0)
(-0.262288 0.00874187 0)
(-0.375842 0.0543785 0)
(-0.583586 0.239217 0)
(-0.439553 -0.178778 0)
(-0.162683 -0.57806 0)
(-0.147289 -0.605227 0)
(-0.0676991 -0.521489 0)
(0.0345646 -0.488596 0)
(-0.0523098 0.0068121 0)
(-0.0581774 0.011973 0)
(-0.0649109 0.017492 0)
(-0.0723202 0.0233722 0)
(-0.0806283 0.0297174 0)
(-0.0900209 0.0363703 0)
(-0.101174 0.0434837 0)
(-0.114797 0.0510159 0)
(-0.133057 0.0594419 0)
(-0.1579 0.0692824 0)
(-0.198914 0.0829991 0)
(-0.268954 0.111562 0)
(-0.370772 0.191386 0)
(-0.510563 0.326962 0)
(-0.279386 -0.278604 0)
(-0.117161 -0.561304 0)
(-0.102624 -0.571414 0)
(-0.088093 -0.528524 0)
(0.0411875 -0.496075 0)
(-0.0475388 0.0118494 0)
(-0.0531038 0.0174883 0)
(-0.0593895 0.0236356 0)
(-0.0663755 0.0302611 0)
(-0.0741766 0.0375388 0)
(-0.0830002 0.0454293 0)
(-0.093325 0.0542904 0)
(-0.105595 0.0645429 0)
(-0.121165 0.0774917 0)
(-0.139551 0.0954258 0)
(-0.165592 0.12333 0)
(-0.201803 0.17401 0)
(-0.218401 0.274394 0)
(-0.256065 0.39506 0)
(-0.186838 -0.0799669 0)
(-0.085616 -0.562349 0)
(-0.0764169 -0.568643 0)
(-0.0957272 -0.554265 0)
(0.0693103 -0.496738 0)
(-0.0423294 0.0165078 0)
(-0.0475114 0.0226081 0)
(-0.0532802 0.029287 0)
(-0.0596868 0.0365145 0)
(-0.0667563 0.0445461 0)
(-0.0746467 0.0533906 0)
(-0.0835357 0.0634958 0)
(-0.0934738 0.0753712 0)
(-0.10491 0.0903315 0)
(-0.115257 0.110401 0)
(-0.125118 0.139304 0)
(-0.135078 0.182137 0)
(-0.0834333 0.249678 0)
(-0.0323567 0.370077 0)
(0.0793708 0.291011 0)
(-0.0618286 -0.555632 0)
(-0.0501584 -0.612586 0)
(-0.0909891 -0.550228 0)
(0.110916 -0.522434 0)
(-0.036665 0.02089 0)
(-0.0414557 0.0274203 0)
(-0.0467189 0.0346305 0)
(-0.0525199 0.0424747 0)
(-0.0589624 0.0511867 0)
(-0.0660168 0.0608276 0)
(-0.0737267 0.0716179 0)
(-0.0818641 0.0840869 0)
(-0.0901642 0.0989885 0)
(-0.0954399 0.117593 0)
(-0.0949701 0.141301 0)
(-0.0942916 0.166596 0)
(-0.0239725 0.197253 0)
(0.0164417 0.241374 0)
(0.251822 0.182877 0)
(0.254778 0.0969134 0)
(0.148835 -0.616948 0)
(-0.10427 -0.51352 0)
(0.213449 -0.517349 0)
(-0.0302404 0.0247175 0)
(-0.0344905 0.0315964 0)
(-0.0393243 0.0390828 0)
(-0.0444316 0.0473522 0)
(-0.0499538 0.0564862 0)
(-0.0559799 0.0665984 0)
(-0.0624075 0.0778299 0)
(-0.0690362 0.090219 0)
(-0.0756511 0.103792 0)
(-0.0795364 0.11854 0)
(-0.0767648 0.13203 0)
(-0.075368 0.13852 0)
(-0.0192218 0.13775 0)
(-0.00685078 0.083431 0)
(0.193497 0.0307783 0)
(0.196042 0.0976291 0)
(0.461682 -0.0637584 0)
(-0.104173 -0.443542 0)
(0.361845 -0.489953 0)
(-0.022795 0.0285099 0)
(-0.0260506 0.0358681 0)
(-0.0300922 0.0437189 0)
(-0.0347983 0.0523337 0)
(-0.0400868 0.0619115 0)
(-0.0459088 0.0725312 0)
(-0.0523222 0.0842479 0)
(-0.0591207 0.0967975 0)
(-0.0658937 0.109709 0)
(-0.0714811 0.122311 0)
(-0.0740795 0.131815 0)
(-0.0798032 0.13005 0)
(-0.0548543 0.120665 0)
(-0.0632563 0.0565281 0)
(0.019249 -0.0339048 0)
(-0.0613942 -0.0318373 0)
(0.470689 0.0596103 0)
(-0.163986 -0.382392 0)
(0.52349 -0.402313 0)
(-0.0183175 0.0290225 0)
(-0.0188793 0.0379023 0)
(-0.0203005 0.0469425 0)
(-0.0223412 0.0564105 0)
(-0.0247565 0.0666029 0)
(-0.0275292 0.0778183 0)
(-0.0306994 0.0902434 0)
(-0.0345422 0.103729 0)
(-0.0394926 0.117719 0)
(-0.0456511 0.131183 0)
(-0.0516216 0.137901 0)
(-0.0620916 0.129096 0)
(-0.0382533 0.111597 0)
(-0.0789751 0.00522739 0)
(0.0732649 -0.00154231 0)
(-0.133483 -0.254131 0)
(0.395875 -3.75463e-05 0)
(-0.0806312 -0.263539 0)
(0.595602 -0.181623 0)
)
;

boundaryField
{
    leftWall
    {
        type            fixedValue;
        value           nonuniform 0();
    }
    rightWall
    {
        type            fixedValue;
        value           uniform (0 0 0);
    }
    lowerWall
    {
        type            fixedValue;
        value           nonuniform 0();
    }
    atmosphere
    {
        type            fluxCorrectedVelocity;
        value           nonuniform List<vector> 
23
(
(-0.0200238 0.0112752 0)
(-0.0193643 0.0149867 0)
(-0.0188943 0.0187574 0)
(-0.0185229 0.0225614 0)
(-0.0183175 0.0290222 0)
(-0.0188793 0.0379118 0)
(-0.0203005 0.0469605 0)
(-0.0223412 0.0564362 0)
(-0.0247565 0.0666353 0)
(-0.0275292 0.0778564 0)
(-0.0306994 0.0902884 0)
(-0.0345422 0.103779 0)
(-0.0394926 0.117774 0)
(-0.0456511 0.131244 0)
(-0.0516216 0.13797 0)
(-0.0620916 0.12916 0)
(-0.0382533 0.112263 0)
(-0.0789751 0.00398593 0)
(0.0732649 0.00065656 0)
(-0.133483 -0.255688 0)
(0.395875 -0.00469285 0)
(-0.0806312 -0.335721 0)
(0.595602 -0.161678 0)
)
;
    }
    defaultFaces
    {
        type            empty;
    }
    procBoundary3to1
    {
        type            processor;
        value           nonuniform List<vector> 
23
(
(-0.0891099 -0.113409 0)
(-0.0911325 -0.113716 0)
(-0.0932972 -0.113804 0)
(-0.0983641 -0.113173 0)
(-0.102673 -0.110706 0)
(-0.110492 -0.107226 0)
(-0.121244 -0.100996 0)
(-0.135018 -0.0979444 0)
(-0.154777 -0.0892517 0)
(-0.186462 -0.0691203 0)
(-0.236369 -0.0334097 0)
(-0.53783 0.00163924 0)
(-1.88877 -0.178652 0)
(-1.46554 -0.1585 0)
(-1.17317 -0.13545 0)
(-1.09946 -0.116196 0)
(-1.13553 -0.0317743 0)
(-1.26783 0.149025 0)
(-1.25325 0.382177 0)
(-1.08503 0.610987 0)
(-0.869066 0.663012 0)
(-0.534728 0.453982 0)
(-0.225307 0.545377 0)
)
;
    }
    procBoundary3to2
    {
        type            processor;
        value           nonuniform List<vector> 
25
(
(-0.0778236 -0.110636 0)
(-0.0717274 -0.107372 0)
(-0.0670115 -0.0990346 0)
(-0.070117 -0.0926021 0)
(-0.0640173 -0.0842434 0)
(-0.066315 -0.0738459 0)
(-0.0628413 -0.0697034 0)
(-0.0627257 -0.0627197 0)
(-0.0607169 -0.056899 0)
(-0.0602237 -0.0499753 0)
(-0.05822 -0.0451891 0)
(-0.0570496 -0.0388529 0)
(-0.0551161 -0.0338078 0)
(-0.0531709 -0.0284084 0)
(-0.0508696 -0.0233946 0)
(-0.048288 -0.0184867 0)
(-0.0454007 -0.0137978 0)
(-0.0421931 -0.00931649 0)
(-0.0386684 -0.00508879 0)
(-0.0347954 -0.00115181 0)
(-0.0305048 0.00260464 0)
(-0.0258612 0.00635785 0)
(-0.0224737 0.00838223 0)
(-0.0208559 0.00848522 0)
(-0.0208864 0.00572092 0)
)
;
    }
}


// ************************************************************************* //
