/*--------------------------------*- C++ -*----------------------------------*\
| =========                 |                                                 |
| \\      /  F ield         | OpenFOAM: The Open Source CFD Toolbox           |
|  \\    /   O peration     | Version:  2.4.0                                 |
|   \\  /    A nd           | Web:      www.OpenFOAM.org                      |
|    \\/     M anipulation  |                                                 |
\*---------------------------------------------------------------------------*/
FoamFile
{
    version     2.0;
    format      ascii;
    class       volVectorField;
    location    "0.6";
    object      U.water;
}
// * * * * * * * * * * * * * * * * * * * * * * * * * * * * * * * * * * * * * //

dimensions      [0 1 -1 0 0 0 0];

internalField   nonuniform List<vector> 
575
(
(-0.0818323 -0.106781 0)
(-0.0844219 -0.106951 0)
(-0.087164 -0.104457 0)
(-0.0922459 -0.102618 0)
(-0.0778802 -0.103706 0)
(-0.0811398 -0.103918 0)
(-0.0850743 -0.100481 0)
(-0.0906573 -0.0977733 0)
(-0.0725154 -0.0927169 0)
(-0.0762026 -0.0917572 0)
(-0.0805184 -0.0889201 0)
(-0.085447 -0.0856976 0)
(-0.0761311 -0.0856013 0)
(-0.0791578 -0.083418 0)
(-0.0820423 -0.0819266 0)
(-0.0855967 -0.0796543 0)
(-0.0708087 -0.0797955 0)
(-0.0744702 -0.078651 0)
(-0.0764878 -0.0777074 0)
(-0.0792591 -0.0747699 0)
(-0.0714148 -0.0710954 0)
(-0.0744968 -0.0700381 0)
(-0.0762991 -0.0709162 0)
(-0.0784085 -0.0701301 0)
(-0.0671665 -0.0678517 0)
(-0.0703317 -0.0660311 0)
(-0.0732246 -0.0654295 0)
(-0.0757594 -0.0648272 0)
(-0.0669079 -0.0618033 0)
(-0.070179 -0.0596691 0)
(-0.0725009 -0.0585983 0)
(-0.0747005 -0.0581046 0)
(-0.0656514 -0.0549596 0)
(-0.0684657 -0.054778 0)
(-0.0712668 -0.0538118 0)
(-0.0735747 -0.0536449 0)
(-0.0635814 -0.050677 0)
(-0.0665091 -0.0490481 0)
(-0.0695197 -0.0483681 0)
(-0.0722005 -0.0471978 0)
(-0.0625782 -0.0436017 0)
(-0.0653779 -0.0433795 0)
(-0.0683112 -0.0421774 0)
(-0.0713674 -0.0415144 0)
(-0.0607553 -0.0383623 0)
(-0.063418 -0.0375145 0)
(-0.0663502 -0.0367096 0)
(-0.0693416 -0.0356584 0)
(-0.0589656 -0.032347 0)
(-0.0615889 -0.0317136 0)
(-0.0643608 -0.0307447 0)
(-0.0675245 -0.0297206 0)
(-0.0568439 -0.026914 0)
(-0.0593625 -0.0259928 0)
(-0.0620351 -0.0250039 0)
(-0.0651102 -0.0238699 0)
(-0.0544697 -0.0215227 0)
(-0.0569235 -0.020441 0)
(-0.0594509 -0.0193085 0)
(-0.0624369 -0.0180799 0)
(-0.0517746 -0.0163845 0)
(-0.0541532 -0.0150779 0)
(-0.0565689 -0.0137726 0)
(-0.0593982 -0.0124005 0)
(-0.0487619 -0.0114487 0)
(-0.0510561 -0.00994636 0)
(-0.0533603 -0.00844244 0)
(-0.0560116 -0.00690195 0)
(-0.0454067 -0.00673817 0)
(-0.0476052 -0.00504983 0)
(-0.0498106 -0.00334238 0)
(-0.0522765 -0.0016093 0)
(-0.041713 -0.00227475 0)
(-0.0437879 -0.000410439 0)
(-0.0458812 0.00149766 0)
(-0.0481647 0.00342966 0)
(-0.0376341 0.00191392 0)
(-0.0395739 0.00394088 0)
(-0.0415656 0.00603089 0)
(-0.0436784 0.00815568 0)
(-0.0331496 0.00584691 0)
(-0.0349787 0.00800904 0)
(-0.0368335 0.010243 0)
(-0.0387831 0.0125362 0)
(-0.0282916 0.00957906 0)
(-0.0299399 0.0118182 0)
(-0.0316558 0.0141624 0)
(-0.0334448 0.0166145 0)
(-0.0234915 0.0125641 0)
(-0.0245573 0.0151748 0)
(-0.0258438 0.0177228 0)
(-0.0273352 0.0202905 0)
(-0.0206998 0.0135509 0)
(-0.0206174 0.0168385 0)
(-0.0208647 0.0200477 0)
(-0.0213517 0.0232396 0)
(-0.0200238 0.0113113 0)
(-0.0193643 0.0150109 0)
(-0.0188943 0.0187732 0)
(-0.0185229 0.0225706 0)
(-0.0976697 -0.100284 0)
(-0.108363 -0.0959575 0)
(-0.119628 -0.0896976 0)
(-0.129835 -0.0810028 0)
(-0.14287 -0.0677939 0)
(-0.158588 -0.0432586 0)
(-0.171979 -0.00240836 0)
(-0.162843 0.0775823 0)
(-0.15795 0.268233 0)
(-0.623684 0.314799 0)
(-1.27989 -0.0383299 0)
(-1.27045 -0.0898359 0)
(-1.24745 0.0503019 0)
(-1.24066 0.274563 0)
(-1.14026 0.456091 0)
(-0.96547 0.597937 0)
(-0.8014 0.618363 0)
(-0.563055 0.454737 0)
(-0.220586 0.490553 0)
(-0.0954715 -0.0950629 0)
(-0.104616 -0.0912777 0)
(-0.11062 -0.0875918 0)
(-0.114678 -0.0771943 0)
(-0.123551 -0.0628825 0)
(-0.125319 -0.0400233 0)
(-0.117932 -0.00470268 0)
(-0.0835539 0.0523987 0)
(-0.037542 0.174633 0)
(0.14156 0.349065 0)
(0.0559159 0.597944 0)
(-0.811844 0.104058 0)
(-1.13081 -0.120547 0)
(-1.1504 0.0923398 0)
(-1.11302 0.268459 0)
(-0.981414 0.408631 0)
(-0.741513 0.362766 0)
(-0.366573 -0.117048 0)
(-0.167367 -0.294316 0)
(-0.0901107 -0.0848681 0)
(-0.0974373 -0.0822306 0)
(-0.104637 -0.0777446 0)
(-0.108173 -0.0681461 0)
(-0.110709 -0.0579888 0)
(-0.104393 -0.0466767 0)
(-0.0865406 -0.0268036 0)
(-0.0403884 0.00323599 0)
(0.010001 0.0676416 0)
(0.202352 0.153183 0)
(0.395291 0.592004 0)
(0.319205 0.801308 0)
(-0.545439 0.268837 0)
(-0.92925 0.120948 0)
(-0.941117 0.1386 0)
(-0.839983 0.187097 0)
(-0.577204 0.0825072 0)
(-0.12735 -0.70122 0)
(-0.0553808 -0.774866 0)
(-0.0899134 -0.0813285 0)
(-0.0946158 -0.0799512 0)
(-0.0968956 -0.0767651 0)
(-0.10224 -0.0693032 0)
(-0.100494 -0.0627183 0)
(-0.0922022 -0.0575751 0)
(-0.0733841 -0.0506264 0)
(-0.0329951 -0.0476213 0)
(0.00943105 -0.0335531 0)
(0.179345 0.0107853 0)
(0.289123 0.33976 0)
(0.507435 1.01346 0)
(0.19733 0.826567 0)
(-0.375295 0.45979 0)
(-0.506059 0.150283 0)
(-0.456837 0.0310112 0)
(-0.0729552 0.0170845 0)
(-0.0704991 -0.610516 0)
(-0.0212389 -0.895155 0)
(-0.0837154 -0.0740157 0)
(-0.0905334 -0.0749238 0)
(-0.0942216 -0.0709556 0)
(-0.0988699 -0.0650878 0)
(-0.0979083 -0.0645544 0)
(-0.0900994 -0.0674517 0)
(-0.0774807 -0.0693269 0)
(-0.0489 -0.0874984 0)
(-0.0264534 -0.110975 0)
(0.117699 -0.0908249 0)
(0.116307 0.18631 0)
(0.480485 1.0278 0)
(0.337307 1.04303 0)
(0.0417818 0.809363 0)
(-0.0941449 0.342672 0)
(-0.217323 0.0208888 0)
(0.124243 0.000138344 0)
(-0.169639 -0.199721 0)
(-0.0159518 -0.884913 0)
(-0.0832543 -0.0696826 0)
(-0.0887829 -0.0694418 0)
(-0.0927084 -0.0668473 0)
(-0.09769 -0.0648196 0)
(-0.0976344 -0.0669515 0)
(-0.0965089 -0.0714328 0)
(-0.0922376 -0.0799517 0)
(-0.0814007 -0.110503 0)
(-0.0797841 -0.150225 0)
(0.0123834 -0.144577 0)
(-0.0919877 -0.00793638 0)
(0.402414 0.989246 0)
(0.29552 1.08624 0)
(0.223364 0.929286 0)
(0.155278 0.482684 0)
(0.0474736 -0.0345568 0)
(0.201667 -0.0524238 0)
(-0.0714188 -0.21521 0)
(-0.0138875 -0.850987 0)
(-0.0799545 -0.0646354 0)
(-0.0877932 -0.0643475 0)
(-0.0924038 -0.0622962 0)
(-0.0978027 -0.0611377 0)
(-0.101713 -0.0640565 0)
(-0.104344 -0.0703551 0)
(-0.111034 -0.0803664 0)
(-0.114618 -0.106563 0)
(-0.132543 -0.147199 0)
(-0.124104 -0.160735 0)
(-0.252507 -0.0977128 0)
(0.167908 0.84048 0)
(0.244585 1.06891 0)
(0.2361 0.92204 0)
(0.287001 0.53572 0)
(0.261527 0.0252694 0)
(0.304942 -0.027758 0)
(0.0348324 -0.0978088 0)
(-0.00789728 -0.812537 0)
(-0.0791345 -0.0577922 0)
(-0.0867312 -0.0584331 0)
(-0.0921584 -0.0568651 0)
(-0.0982518 -0.0571193 0)
(-0.105431 -0.0593765 0)
(-0.111747 -0.0637154 0)
(-0.124983 -0.0718825 0)
(-0.13847 -0.0890358 0)
(-0.170946 -0.113616 0)
(-0.223442 -0.136375 0)
(-0.343312 -0.103816 0)
(-0.191877 0.505258 0)
(0.191473 0.997968 0)
(0.210796 0.87287 0)
(0.367475 0.485681 0)
(0.386848 0.0674491 0)
(0.387563 0.0348843 0)
(0.0298236 0.032666 0)
(-0.00167407 -0.761367 0)
(-0.0771665 -0.0533613 0)
(-0.0856379 -0.0517335 0)
(-0.0920784 -0.0511793 0)
(-0.0988757 -0.0503545 0)
(-0.108221 -0.0521238 0)
(-0.116563 -0.0547517 0)
(-0.132317 -0.0585673 0)
(-0.150229 -0.0659996 0)
(-0.185741 -0.0743068 0)
(-0.24252 -0.0782557 0)
(-0.340421 -0.0438089 0)
(-0.34569 0.271988 0)
(0.0287731 0.734465 0)
(0.175121 0.696162 0)
(0.397798 0.338643 0)
(0.41527 0.0996277 0)
(0.413098 0.136194 0)
(0.0239697 0.197112 0)
(0.00788577 -0.686594 0)
(-0.0767762 -0.0456492 0)
(-0.0842168 -0.0459062 0)
(-0.0918079 -0.0444222 0)
(-0.0988414 -0.0435261 0)
(-0.108923 -0.0438747 0)
(-0.118539 -0.0442762 0)
(-0.133903 -0.0443705 0)
(-0.151331 -0.0445411 0)
(-0.181008 -0.0408809 0)
(-0.220558 -0.0259681 0)
(-0.27232 0.0151368 0)
(-0.323536 0.180577 0)
(-0.0887605 0.437745 0)
(0.10253 0.4428 0)
(0.358404 0.210644 0)
(0.34351 0.136547 0)
(0.357572 0.25512 0)
(0.0569972 0.343705 0)
(0.0137677 -0.5703 0)
(-0.075052 -0.0405705 0)
(-0.0826966 -0.0387798 0)
(-0.0908114 -0.0375878 0)
(-0.0979975 -0.0359596 0)
(-0.108252 -0.0351334 0)
(-0.118042 -0.0338682 0)
(-0.131599 -0.0313577 0)
(-0.146261 -0.0272795 0)
(-0.167247 -0.0181833 0)
(-0.18905 0.00389996 0)
(-0.203349 0.0413778 0)
(-0.223501 0.145069 0)
(-0.0700231 0.287711 0)
(0.0583785 0.250712 0)
(0.264095 0.15162 0)
(0.217389 0.150574 0)
(0.28147 0.345798 0)
(0.0433255 0.44175 0)
(0.0211196 -0.493067 0)
(-0.0737714 -0.0338875 0)
(-0.0809278 -0.0323301 0)
(-0.0891641 -0.0304901 0)
(-0.0965705 -0.0283513 0)
(-0.106414 -0.026521 0)
(-0.115875 -0.0241706 0)
(-0.127363 -0.0203213 0)
(-0.13877 -0.0146602 0)
(-0.152503 -0.00509371 0)
(-0.160834 0.0150997 0)
(-0.155743 0.0428655 0)
(-0.15714 0.099301 0)
(-0.0263373 0.185183 0)
(0.0379732 0.134466 0)
(0.179671 0.112582 0)
(0.123597 0.141172 0)
(0.200528 0.4154 0)
(0.0531599 0.433394 0)
(0.0416607 -0.431552 0)
(-0.0718659 -0.0279644 0)
(-0.078789 -0.0255708 0)
(-0.0870561 -0.023395 0)
(-0.0945084 -0.0207794 0)
(-0.103893 -0.0182439 0)
(-0.112904 -0.0153207 0)
(-0.122674 -0.0111926 0)
(-0.131557 -0.00581992 0)
(-0.140588 0.00145089 0)
(-0.140967 0.0160634 0)
(-0.128924 0.0328703 0)
(-0.123012 0.0532581 0)
(-0.0129886 0.103765 0)
(0.0161615 0.0646645 0)
(0.12323 0.0869273 0)
(0.0553754 0.133274 0)
(0.109403 0.45909 0)
(0.0377646 0.326807 0)
(0.0685733 -0.375754 0)
(-0.0696816 -0.0217998 0)
(-0.0763802 -0.0190237 0)
(-0.0844654 -0.0163167 0)
(-0.0920022 -0.0133001 0)
(-0.100996 -0.0102902 0)
(-0.109742 -0.00712827 0)
(-0.118621 -0.00321945 0)
(-0.126407 0.00106751 0)
(-0.132671 0.00449358 0)
(-0.131889 0.0113631 0)
(-0.117727 0.0176607 0)
(-0.109285 0.0156612 0)
(-0.0210993 0.0444677 0)
(-0.0117378 0.0146362 0)
(0.0767142 0.0627236 0)
(-0.0294995 0.14934 0)
(-0.00551115 0.45646 0)
(-0.0051443 0.27026 0)
(0.0625833 -0.296462 0)
(-0.0670614 -0.0158174 0)
(-0.0735901 -0.0125376 0)
(-0.0814667 -0.00933104 0)
(-0.0891098 -0.0058969 0)
(-0.0979048 -0.00244583 0)
(-0.106594 0.000981228 0)
(-0.11554 0.00459846 0)
(-0.123708 0.0070162 0)
(-0.129259 0.00770852 0)
(-0.131011 0.00734892 0)
(-0.121806 0.00123237 0)
(-0.112606 -0.0155394 0)
(-0.0461544 -0.00352629 0)
(-0.0521738 -0.0261636 0)
(-0.0049229 0.0648125 0)
(-0.187607 0.218926 0)
(-0.152403 0.476429 0)
(-0.0811789 0.311506 0)
(-0.0263987 -0.313924 0)
(-0.0640326 -0.00989031 0)
(-0.0704332 -0.00615869 0)
(-0.0780639 -0.00240788 0)
(-0.0857665 0.00147522 0)
(-0.0944691 0.00542134 0)
(-0.103436 0.00918488 0)
(-0.112882 0.0124037 0)
(-0.122104 0.0141666 0)
(-0.131158 0.0133343 0)
(-0.137256 0.00769667 0)
(-0.136992 -0.0069582 0)
(-0.133445 -0.0345238 0)
(-0.103635 -0.0417621 0)
(-0.116284 -0.0215592 0)
(-0.210671 0.115512 0)
(-0.426569 0.324681 0)
(-0.38993 0.381919 0)
(-0.199398 0.192717 0)
(-0.0240578 -0.404814 0)
(-0.0605632 -0.00412845 0)
(-0.0668231 7.91142e-05 0)
(-0.0742142 0.00439652 0)
(-0.081967 0.00884823 0)
(-0.0906329 0.0134233 0)
(-0.0999523 0.0178257 0)
(-0.110349 0.0216819 0)
(-0.121705 0.0240271 0)
(-0.134455 0.0231195 0)
(-0.147163 0.0156805 0)
(-0.159556 -0.00472591 0)
(-0.176549 -0.0437826 0)
(-0.188818 -0.0584266 0)
(-0.316189 0.0500992 0)
(-0.574938 0.354329 0)
(-0.641343 0.306042 0)
(-0.543027 0.0705331 0)
(-0.101689 -0.399871 0)
(0.0349366 -0.505615 0)
(-0.0566587 0.00145586 0)
(-0.062755 0.00614308 0)
(-0.0698493 0.0110445 0)
(-0.0775169 0.0161887 0)
(-0.0861109 0.0216083 0)
(-0.0956703 0.0270297 0)
(-0.106859 0.0322879 0)
(-0.120276 0.0367633 0)
(-0.137869 0.0394168 0)
(-0.16141 0.0375658 0)
(-0.19846 0.0271054 0)
(-0.260961 0.0133972 0)
(-0.359961 0.0644131 0)
(-0.606462 0.330658 0)
(-0.746698 0.520995 0)
(-0.501793 -0.0278316 0)
(-0.178908 -0.561804 0)
(-0.0702795 -0.52037 0)
(0.0344245 -0.488865 0)
(-0.0523098 0.0068121 0)
(-0.0581774 0.011973 0)
(-0.0649109 0.017492 0)
(-0.0723202 0.0233722 0)
(-0.0806283 0.0297174 0)
(-0.0900209 0.0363703 0)
(-0.101174 0.0434842 0)
(-0.114797 0.0510199 0)
(-0.133054 0.0594715 0)
(-0.157872 0.0694774 0)
(-0.198787 0.0840467 0)
(-0.26774 0.115529 0)
(-0.359156 0.203763 0)
(-0.521684 0.408686 0)
(-0.582113 0.48934 0)
(-0.304169 -0.172874 0)
(-0.106785 -0.561133 0)
(-0.088516 -0.528259 0)
(0.0411754 -0.496101 0)
(-0.0475388 0.0118494 0)
(-0.0531038 0.0174883 0)
(-0.0593895 0.0236356 0)
(-0.0663755 0.0302611 0)
(-0.0741766 0.0375388 0)
(-0.0830002 0.0454293 0)
(-0.093325 0.0542906 0)
(-0.105595 0.0645451 0)
(-0.121163 0.0775079 0)
(-0.139541 0.0955292 0)
(-0.165519 0.123867 0)
(-0.201422 0.176182 0)
(-0.213484 0.283543 0)
(-0.23788 0.433901 0)
(-0.222662 0.448055 0)
(-0.129052 -0.152643 0)
(-0.0721301 -0.559279 0)
(-0.0961714 -0.554056 0)
(0.069291 -0.496734 0)
(-0.0423294 0.0165078 0)
(-0.0475114 0.0226081 0)
(-0.0532802 0.029287 0)
(-0.0596868 0.0365145 0)
(-0.0667563 0.0445461 0)
(-0.0746467 0.0533906 0)
(-0.0835357 0.0634959 0)
(-0.0934737 0.0753722 0)
(-0.10491 0.0903385 0)
(-0.115254 0.110444 0)
(-0.125094 0.139525 0)
(-0.134953 0.183071 0)
(-0.0820707 0.252888 0)
(-0.0206432 0.380228 0)
(0.155722 0.415635 0)
(0.261159 0.157263 0)
(0.0958797 -0.480692 0)
(-0.0952615 -0.549595 0)
(0.110886 -0.522427 0)
(-0.036665 0.02089 0)
(-0.0414557 0.0274203 0)
(-0.0467189 0.0346305 0)
(-0.0525199 0.0424747 0)
(-0.0589624 0.0511867 0)
(-0.0660168 0.0608277 0)
(-0.0737267 0.0716179 0)
(-0.0818641 0.0840874 0)
(-0.0901641 0.0989918 0)
(-0.0954391 0.117613 0)
(-0.0949629 0.141398 0)
(-0.0942562 0.166974 0)
(-0.0236991 0.198482 0)
(0.0185395 0.244398 0)
(0.26723 0.192055 0)
(0.319868 0.0998668 0)
(0.456968 -0.222978 0)
(-0.144568 -0.505503 0)
(0.213396 -0.517345 0)
(-0.0302404 0.0247175 0)
(-0.0344905 0.0315964 0)
(-0.0393243 0.0390828 0)
(-0.0444316 0.0473522 0)
(-0.0499538 0.0564862 0)
(-0.0559799 0.0665984 0)
(-0.0624075 0.07783 0)
(-0.0690362 0.0902193 0)
(-0.075651 0.103794 0)
(-0.0795359 0.118557 0)
(-0.07676 0.13212 0)
(-0.0753528 0.13887 0)
(-0.0190301 0.138993 0)
(-0.00558046 0.087054 0)
(0.197902 0.036823 0)
(0.198184 0.104678 0)
(0.500346 -0.0312934 0)
(-0.227409 -0.41467 0)
(0.361557 -0.489786 0)
(-0.022795 0.0285099 0)
(-0.0260506 0.0358681 0)
(-0.0300922 0.0437189 0)
(-0.0347983 0.0523337 0)
(-0.0400868 0.0619115 0)
(-0.0459088 0.0725312 0)
(-0.0523222 0.0842479 0)
(-0.0591207 0.0967978 0)
(-0.0658936 0.109711 0)
(-0.0714804 0.122329 0)
(-0.0740725 0.131919 0)
(-0.07978 0.13047 0)
(-0.0546881 0.12201 0)
(-0.0625583 0.0602437 0)
(0.0222493 -0.0285482 0)
(-0.0600505 -0.0305328 0)
(0.477546 0.071543 0)
(-0.229701 -0.295563 0)
(0.522296 -0.400229 0)
(-0.0183175 0.0290225 0)
(-0.0188793 0.0379023 0)
(-0.0203005 0.0469425 0)
(-0.0223412 0.0564105 0)
(-0.0247565 0.0666029 0)
(-0.0275292 0.0778183 0)
(-0.0306994 0.0902434 0)
(-0.0345422 0.103729 0)
(-0.0394925 0.117721 0)
(-0.0456507 0.131196 0)
(-0.051618 0.137983 0)
(-0.062083 0.129428 0)
(-0.0381705 0.112559 0)
(-0.0789281 0.00705634 0)
(0.0736972 0.00146398 0)
(-0.133366 -0.252932 0)
(0.39424 0.00167984 0)
(-0.0557432 -0.333562 0)
(0.547346 -0.171836 0)
)
;

boundaryField
{
    leftWall
    {
        type            fixedValue;
        value           nonuniform 0();
    }
    rightWall
    {
        type            fixedValue;
        value           uniform (0 0 0);
    }
    lowerWall
    {
        type            fixedValue;
        value           nonuniform 0();
    }
    atmosphere
    {
        type            fluxCorrectedVelocity;
        value           nonuniform List<vector> 
23
(
(-0.0200238 0.0112752 0)
(-0.0193643 0.0149867 0)
(-0.0188943 0.0187574 0)
(-0.0185229 0.0225614 0)
(-0.0183175 0.0290222 0)
(-0.0188793 0.0379118 0)
(-0.0203005 0.0469605 0)
(-0.0223412 0.0564362 0)
(-0.0247565 0.0666353 0)
(-0.0275292 0.0778564 0)
(-0.0306994 0.0902884 0)
(-0.0345422 0.103779 0)
(-0.0394925 0.117774 0)
(-0.0456507 0.131244 0)
(-0.051618 0.13797 0)
(-0.062083 0.12916 0)
(-0.0381705 0.112263 0)
(-0.0789281 0.00398593 0)
(0.0736972 0.00065656 0)
(-0.133366 -0.255688 0)
(0.39424 -0.00469285 0)
(-0.0557432 -0.335721 0)
(0.547346 -0.161678 0)
)
;
    }
    defaultFaces
    {
        type            empty;
    }
    procBoundary3to1
    {
        type            processor;
        value           nonuniform List<vector> 
23
(
(-0.0891097 -0.113397 0)
(-0.0911322 -0.113704 0)
(-0.0932968 -0.113791 0)
(-0.0983636 -0.113157 0)
(-0.102672 -0.110682 0)
(-0.110489 -0.107177 0)
(-0.121238 -0.100894 0)
(-0.135007 -0.0977201 0)
(-0.154774 -0.088722 0)
(-0.186464 -0.0676392 0)
(-0.227856 -0.0285285 0)
(-0.281037 0.0708918 0)
(-0.480969 0.174849 0)
(-1.23307 -0.159038 0)
(-1.2244 -0.150717 0)
(-1.32335 -0.0508733 0)
(-1.34492 0.145945 0)
(-1.30279 0.351426 0)
(-1.18875 0.56253 0)
(-0.976721 0.740385 0)
(-0.769935 0.831306 0)
(-0.500609 0.711695 0)
(-0.181225 0.766692 0)
)
;
    }
    procBoundary3to2
    {
        type            processor;
        value           nonuniform List<vector> 
25
(
(-0.0778234 -0.110628 0)
(-0.0717273 -0.107368 0)
(-0.0670115 -0.0990323 0)
(-0.0701169 -0.0926009 0)
(-0.0640173 -0.0842429 0)
(-0.066315 -0.0738457 0)
(-0.0628413 -0.0697034 0)
(-0.0627257 -0.0627196 0)
(-0.0607169 -0.056899 0)
(-0.0602237 -0.0499753 0)
(-0.05822 -0.0451891 0)
(-0.0570496 -0.0388529 0)
(-0.0551161 -0.0338078 0)
(-0.0531709 -0.0284084 0)
(-0.0508696 -0.0233946 0)
(-0.048288 -0.0184867 0)
(-0.0454007 -0.0137978 0)
(-0.0421931 -0.00931649 0)
(-0.0386684 -0.00508879 0)
(-0.0347954 -0.00115181 0)
(-0.0305048 0.00260464 0)
(-0.0258612 0.00635785 0)
(-0.0224737 0.00838223 0)
(-0.0208559 0.00848522 0)
(-0.0208864 0.00572092 0)
)
;
    }
}


// ************************************************************************* //
