/*--------------------------------*- C++ -*----------------------------------*\
| =========                 |                                                 |
| \\      /  F ield         | OpenFOAM: The Open Source CFD Toolbox           |
|  \\    /   O peration     | Version:  2.4.0                                 |
|   \\  /    A nd           | Web:      www.OpenFOAM.org                      |
|    \\/     M anipulation  |                                                 |
\*---------------------------------------------------------------------------*/
FoamFile
{
    version     2.0;
    format      ascii;
    class       volScalarField;
    location    "0.9";
    object      alpha.mercury;
}
// * * * * * * * * * * * * * * * * * * * * * * * * * * * * * * * * * * * * * //

dimensions      [0 0 0 0 0 0 0];

internalField   nonuniform List<scalar> 
559
(
5.56464e-13
1.52504e-12
3.46443e-12
6.41303e-12
1.027e-11
1.42229e-11
1.90958e-11
1.41703e-12
1.00574e-12
4.99672e-13
1.92786e-13
5.78223e-14
1.33319e-14
3.29936e-15
1.20056e-14
5.25864e-14
7.2895e-14
5.97701e-14
3.59076e-14
1.82154e-14
1.15874e-14
2.20307e-14
7.77341e-14
2.71376e-13
8.12764e-13
2.0981e-12
4.4225e-12
7.47579e-12
1.14824e-11
1.70553e-11
7.23613e-13
5.04772e-13
2.38009e-13
8.8437e-14
2.61137e-14
6.12377e-15
1.40115e-15
3.69592e-15
1.90308e-14
2.89288e-14
2.48342e-14
1.51313e-14
7.49401e-15
4.21738e-15
7.68796e-15
2.98543e-14
1.14561e-13
3.75799e-13
1.09764e-12
2.5917e-12
4.78113e-12
8.30973e-12
1.38978e-11
3.17578e-13
2.16723e-13
9.72922e-14
3.49079e-14
1.01197e-14
2.3884e-15
5.34156e-16
1.10331e-15
6.25738e-15
1.02558e-14
9.1324e-15
5.62348e-15
2.73644e-15
1.42536e-15
2.49822e-15
1.03243e-14
4.23552e-14
1.49983e-13
4.85578e-13
1.24509e-12
2.53108e-12
4.91601e-12
8.83141e-12
1.21579e-13
8.05343e-14
3.45868e-14
1.20102e-14
3.40989e-15
8.02499e-16
1.78446e-16
3.1871e-16
1.89506e-15
3.2873e-15
2.9944e-15
1.84675e-15
8.81537e-16
4.34716e-16
7.41914e-16
3.2243e-15
1.40247e-14
5.29966e-14
1.8441e-13
5.04252e-13
1.13002e-12
2.35948e-12
4.28221e-12
4.12369e-14
2.62289e-14
1.08295e-14
3.6476e-15
1.01357e-15
2.36339e-16
5.24565e-17
8.80175e-17
5.30805e-16
9.59317e-16
8.83132e-16
5.41007e-16
2.53018e-16
1.1928e-16
1.99097e-16
9.03682e-16
4.13493e-15
1.64853e-14
6.03692e-14
1.74674e-13
4.23964e-13
9.10308e-13
1.58939e-12
1.2539e-14
7.57115e-15
3.01405e-15
9.85506e-16
2.67767e-16
6.15679e-17
1.36399e-17
2.29148e-17
1.37651e-16
2.5599e-16
2.36056e-16
1.42791e-16
6.53422e-17
2.95584e-17
4.80533e-17
2.26051e-16
1.07889e-15
4.50408e-15
1.71468e-14
5.17596e-14
1.32168e-13
2.80067e-13
4.51315e-13
3.44839e-15
1.95624e-15
7.516e-16
2.38577e-16
6.33091e-17
1.43028e-17
3.1606e-18
5.56082e-18
3.30034e-17
6.25921e-17
5.75354e-17
3.42635e-17
1.53175e-17
6.64716e-18
1.0415e-17
5.04194e-17
2.49328e-16
1.07887e-15
4.21002e-15
1.30436e-14
3.41475e-14
6.88791e-14
9.90851e-14
8.63155e-16
4.5616e-16
1.69069e-16
5.20736e-17
1.34719e-17
2.97986e-18
6.56325e-19
1.24966e-18
7.31471e-18
1.40496e-17
1.28385e-17
7.51439e-18
3.28075e-18
1.3645e-18
2.02675e-18
1.0025e-17
5.10202e-17
2.27044e-16
8.97543e-16
2.81498e-15
7.30243e-15
1.35769e-14
1.71981e-14
1.97578e-16
9.66423e-17
3.45169e-17
1.0311e-17
2.59724e-18
5.60977e-19
1.23168e-19
2.59287e-19
1.49845e-18
2.89995e-18
2.6279e-18
1.50964e-18
6.42955e-19
2.55837e-19
3.56428e-19
1.78755e-18
9.28892e-18
4.2017e-17
1.66085e-16
5.16953e-16
1.29006e-15
2.18219e-15
2.42763e-15
4.15173e-17
1.87031e-17
6.42648e-18
1.86011e-18
4.55501e-19
9.58413e-20
2.09962e-20
4.96468e-20
2.83933e-19
5.51916e-19
4.94935e-19
2.78893e-19
1.15735e-19
4.4033e-20
5.68149e-20
2.85898e-19
1.50578e-18
6.84606e-18
2.68026e-17
8.15064e-17
1.91337e-16
2.902e-16
2.83381e-16
8.03857e-18
3.32366e-18
1.09682e-18
3.07295e-19
7.30549e-20
1.49468e-20
3.27347e-21
8.7795e-21
4.98153e-20
9.70065e-20
8.59338e-20
4.74315e-20
1.9148e-20
6.95823e-21
8.24672e-21
4.13334e-20
2.18809e-19
9.89314e-19
3.78661e-18
1.10637e-17
2.40273e-17
3.25344e-17
2.80073e-17
1.43865e-18
5.44578e-19
1.72294e-19
4.66683e-20
1.07549e-20
2.13551e-21
4.68936e-22
1.43684e-21
8.10581e-21
1.57807e-20
1.37917e-20
7.44367e-21
2.91941e-21
1.01276e-21
1.09665e-21
5.41916e-21
2.85769e-20
1.2718e-19
4.71052e-19
1.30785e-18
2.59975e-18
3.13288e-18
2.39122e-18
2.38779e-19
8.26151e-20
2.50184e-20
6.5444e-21
1.46006e-21
2.80875e-22
6.20707e-23
2.1806e-22
1.22512e-21
2.38128e-21
2.04965e-21
1.07961e-21
4.10504e-22
1.35878e-22
1.3425e-22
6.48664e-22
3.38036e-21
1.4677e-20
5.20929e-20
1.35943e-19
2.45498e-19
2.63667e-19
1.80021e-19
3.68665e-20
1.16476e-20
3.37091e-21
8.50679e-22
1.83503e-22
3.4146e-23
7.62916e-24
3.07698e-23
1.72359e-22
3.3412e-22
2.82774e-22
1.45043e-22
5.33368e-23
1.68346e-23
1.52138e-23
7.13681e-23
3.64509e-22
1.53245e-21
5.17072e-21
1.25888e-20
2.05686e-20
1.97525e-20
1.21681e-20
5.3123e-21
1.53166e-21
4.23015e-22
1.02884e-22
2.14336e-23
3.85244e-24
8.75039e-25
4.048e-24
2.26253e-23
4.37026e-23
3.63095e-23
1.80909e-23
6.41635e-24
1.93008e-24
1.60593e-24
7.27162e-24
3.61252e-23
1.46051e-22
4.65519e-22
1.0516e-21
1.55239e-21
1.34013e-21
7.49706e-22
7.16761e-22
1.8853e-22
4.96265e-23
1.16223e-23
2.33584e-24
4.05027e-25
9.41169e-26
4.98046e-25
2.77903e-24
5.34348e-24
4.35057e-24
2.09984e-24
7.16088e-25
2.05134e-25
1.58857e-25
6.91959e-25
3.32128e-24
1.28294e-23
3.84247e-23
8.02787e-23
1.07199e-22
8.36436e-23
4.25572e-23
9.08444e-23
2.17943e-23
5.46153e-24
1.23068e-24
2.38396e-25
3.98352e-26
9.53777e-27
5.74918e-26
3.20333e-25
6.12682e-25
4.87971e-25
2.27585e-25
7.43922e-26
2.02798e-26
1.4819e-26
6.19654e-26
2.85465e-25
1.0488e-24
2.94336e-24
5.67892e-24
6.87252e-24
4.86612e-24
2.2433e-24
1.08505e-23
2.37435e-24
5.6584e-25
1.22597e-25
2.28688e-26
3.67842e-27
9.14562e-28
6.24658e-27
3.4754e-26
6.60948e-26
5.14187e-26
2.3122e-26
7.2264e-27
1.87471e-27
1.31338e-27
5.26565e-27
2.31445e-26
8.0504e-26
2.11159e-25
3.76592e-25
4.1452e-25
2.66718e-25
1.10934e-25
1.22515e-24
2.44627e-25
5.53912e-26
1.1531e-26
2.06921e-27
3.19974e-28
8.32879e-29
6.40761e-28
3.55983e-27
6.72899e-27
5.10471e-27
2.20767e-27
6.58006e-28
1.62572e-28
1.11477e-28
4.28742e-28
1.78828e-27
5.86681e-27
1.43635e-26
2.36626e-26
2.37117e-26
1.38684e-26
5.31783e-27
1.31157e-25
2.39257e-26
5.14108e-27
1.02725e-27
1.77093e-28
2.62816e-29
7.22915e-30
6.22884e-29
3.45533e-28
6.4881e-28
4.79135e-28
1.98849e-28
5.63885e-29
1.32871e-29
9.11866e-30
3.36536e-29
1.32634e-28
4.09976e-28
9.37594e-28
1.42896e-27
1.30527e-27
6.93021e-28
2.9392e-28
1.33485e-26
2.22967e-27
4.54288e-28
8.69885e-29
1.43771e-29
2.04259e-30
6.00265e-31
5.76107e-30
3.18933e-29
5.94245e-29
4.25861e-29
1.68883e-29
4.53827e-30
1.02263e-30
7.24387e-31
2.57064e-30
9.53037e-30
2.76778e-29
5.9109e-29
8.3583e-29
6.98836e-29
3.46334e-29
3.12629e-29
1.29692e-27
1.98847e-28
3.83501e-29
7.0143e-30
1.10637e-30
1.4967e-31
4.78343e-32
5.10836e-31
2.82027e-30
5.20196e-30
3.59491e-30
1.35e-30
3.40597e-31
7.35329e-32
5.60444e-32
1.91908e-31
6.67167e-31
1.81854e-30
3.62993e-30
4.76584e-30
3.66286e-30
1.96721e-30
6.81654e-30
1.20926e-28
1.70825e-29
3.11819e-30
5.43339e-31
8.14845e-32
1.04478e-32
3.69967e-33
4.36899e-32
2.40233e-31
4.37602e-31
2.89891e-31
1.02216e-31
2.40048e-32
4.99489e-33
4.2458e-33
1.39788e-32
4.53331e-32
1.15601e-31
2.1554e-31
2.63235e-31
1.90265e-31
1.792e-31
1.80882e-30
1.09138e-29
1.42443e-30
2.46074e-31
4.07512e-32
5.79331e-33
7.01707e-34
2.91278e-34
3.67983e-33
1.98605e-32
3.54865e-32
2.23774e-32
7.33672e-33
1.58712e-33
3.23113e-34
3.20564e-34
1.00756e-33
3.02036e-33
7.15233e-33
1.23953e-32
1.41146e-32
1.1566e-32
5.36288e-32
1.074e-30
)
;

boundaryField
{
    leftWall
    {
        type            zeroGradient;
    }
    rightWall
    {
        type            zeroGradient;
    }
    lowerWall
    {
        type            zeroGradient;
    }
    atmosphere
    {
        type            inletOutlet;
        inletValue      uniform 0;
        value           nonuniform List<scalar> 
23
(
1.09138e-29
1.42443e-30
2.46074e-31
4.07512e-32
5.79331e-33
7.01707e-34
2.91278e-34
3.67983e-33
1.98605e-32
3.54865e-32
2.23774e-32
7.33672e-33
1.58712e-33
3.23113e-34
3.20564e-34
1.00756e-33
3.02036e-33
7.15233e-33
1.23953e-32
1.41146e-32
1.1566e-32
5.36288e-32
1.074e-30
)
;
    }
    defaultFaces
    {
        type            empty;
    }
    procBoundary2to0
    {
        type            processor;
        value           nonuniform List<scalar> 
24
(
1.06968e-12
3.11619e-12
5.82028e-12
1.06355e-11
1.72007e-11
2.23068e-11
2.89631e-11
2.37098e-12
1.70485e-12
8.91782e-13
3.56615e-13
1.07723e-13
2.4117e-14
7.54882e-15
3.7303e-14
1.28618e-13
1.60847e-13
1.2614e-13
7.52415e-14
3.99639e-14
3.09585e-14
5.99244e-14
1.82611e-13
1.82611e-13
)
;
    }
    procBoundary2to3
    {
        type            processor;
        value           nonuniform List<scalar> 
25
(
2.14856e-11
1.99359e-11
1.69475e-11
1.09709e-11
5.24847e-12
1.87469e-12
5.05046e-13
1.04115e-13
1.68305e-14
2.1986e-15
2.37292e-16
2.16729e-17
1.71356e-18
1.19872e-19
7.54684e-21
4.32405e-22
2.26748e-23
1.0957e-24
5.06419e-26
2.97047e-27
4.89172e-28
1.66753e-28
6.18313e-29
2.23145e-29
2.71127e-29
)
;
    }
}


// ************************************************************************* //
