/*--------------------------------*- C++ -*----------------------------------*\
| =========                 |                                                 |
| \\      /  F ield         | OpenFOAM: The Open Source CFD Toolbox           |
|  \\    /   O peration     | Version:  2.4.0                                 |
|   \\  /    A nd           | Web:      www.OpenFOAM.org                      |
|    \\/     M anipulation  |                                                 |
\*---------------------------------------------------------------------------*/
FoamFile
{
    version     2.0;
    format      ascii;
    class       volScalarField;
    location    "0.9";
    object      alpha.water;
}
// * * * * * * * * * * * * * * * * * * * * * * * * * * * * * * * * * * * * * //

dimensions      [0 0 0 0 0 0 0];

internalField   nonuniform List<scalar> 
559
(
5.27629e-11
9.40644e-11
2.78462e-10
5.07254e-10
1.02954e-09
1.93032e-09
2.80511e-09
4.46543e-08
4.23003e-08
2.60486e-08
8.04467e-09
6.66798e-10
2.05048e-11
7.2497e-11
6.94424e-11
4.26981e-10
8.19135e-10
1.39082e-09
1.04674e-09
7.23848e-10
4.25896e-10
9.35054e-11
1.6684e-11
2.00152e-11
6.21124e-11
2.14456e-10
5.05075e-10
9.35946e-10
2.24778e-09
3.55711e-09
3.6602e-08
2.52739e-08
1.10474e-08
1.24008e-09
2.73947e-11
9.21435e-12
1.35536e-11
1.1634e-11
4.8907e-11
1.05414e-10
2.32834e-10
2.92109e-10
1.94121e-10
1.53517e-10
4.13038e-11
1.0261e-11
1.08395e-11
2.63139e-11
1.11518e-10
3.4041e-10
7.26538e-10
1.51193e-09
3.147e-09
1.68597e-08
1.06357e-08
1.46219e-09
4.40054e-11
6.68809e-12
5.06435e-12
6.42739e-12
7.09772e-12
7.64801e-12
1.66942e-11
3.28676e-11
5.95582e-11
6.20354e-11
4.78901e-11
1.6808e-11
6.32185e-12
4.914e-12
1.00777e-11
2.59739e-11
1.31888e-10
3.74423e-10
8.13832e-10
1.59038e-09
2.57121e-09
9.54149e-10
4.38194e-11
5.56974e-12
3.79709e-12
2.63304e-12
3.04471e-12
3.68807e-12
4.47483e-12
7.50264e-12
7.84767e-12
1.62531e-11
2.01492e-11
1.25569e-11
6.38289e-12
2.75593e-12
1.88004e-12
3.40412e-12
9.09363e-12
3.25128e-11
1.10244e-10
3.09616e-10
6.48756e-10
6.71191e-11
1.48445e-11
4.69602e-12
3.06269e-12
1.87262e-12
1.24862e-12
1.34809e-12
1.70332e-12
2.18267e-12
3.15431e-12
3.59515e-12
5.2237e-12
6.80549e-12
4.69151e-12
2.4027e-12
1.02254e-12
6.23002e-13
1.04019e-12
2.81262e-12
9.49887e-12
2.26362e-11
8.5486e-11
2.29403e-10
4.52036e-12
4.01532e-12
2.33301e-12
1.4011e-12
8.26678e-13
5.36834e-13
5.50886e-13
7.09874e-13
9.28561e-13
1.2883e-12
1.4629e-12
1.96473e-12
2.31487e-12
1.61133e-12
8.05166e-13
3.31841e-13
1.8159e-13
2.87154e-13
7.78433e-13
2.30071e-12
6.31596e-12
1.98579e-11
5.82805e-11
2.2522e-12
1.58507e-12
9.77219e-13
5.69983e-13
3.27171e-13
2.09207e-13
2.07025e-13
2.68352e-13
3.52435e-13
4.85924e-13
5.46159e-13
7.11908e-13
7.45807e-13
4.97784e-13
2.41257e-13
9.59098e-14
4.72615e-14
7.09977e-14
1.92196e-13
4.89079e-13
1.41778e-12
5.03163e-12
1.09688e-11
9.1639e-13
6.12299e-13
3.65286e-13
2.07532e-13
1.16474e-13
7.39657e-14
7.14209e-14
9.23674e-14
1.20625e-13
1.65724e-13
1.83948e-13
2.31187e-13
2.20231e-13
1.39433e-13
6.51213e-14
2.49177e-14
1.10791e-14
1.55752e-14
4.19479e-14
9.49401e-14
2.65674e-13
8.97316e-13
1.51531e-12
3.36062e-13
2.12002e-13
1.22412e-13
6.79441e-14
3.74884e-14
2.37809e-14
2.26079e-14
2.90378e-14
3.7471e-14
5.10112e-14
5.56826e-14
6.67109e-14
5.87927e-14
3.53116e-14
1.58719e-14
5.85475e-15
2.36645e-15
3.01353e-15
7.98851e-15
1.65772e-14
4.18611e-14
1.23063e-13
1.66183e-13
1.11632e-13
6.5812e-14
3.69422e-14
2.00947e-14
1.0948e-14
6.96588e-15
6.56672e-15
8.35785e-15
1.06126e-14
1.42309e-14
1.52179e-14
1.72495e-14
1.41938e-14
8.11377e-15
3.51361e-15
1.25249e-15
4.63956e-16
5.13686e-16
1.32194e-15
2.56549e-15
5.66383e-15
1.36451e-14
1.49748e-14
3.35163e-14
1.84572e-14
1.00968e-14
5.39576e-15
2.91246e-15
1.86377e-15
1.75137e-15
2.2068e-15
2.75049e-15
3.61228e-15
3.77148e-15
4.02636e-15
3.11e-15
1.69638e-15
7.08648e-16
2.44768e-16
8.39845e-17
7.78807e-17
1.89854e-16
3.46383e-16
6.64308e-16
1.27666e-15
1.15052e-15
9.11405e-15
4.702e-15
2.51051e-15
1.3207e-15
7.08032e-16
4.56465e-16
4.29307e-16
5.35591e-16
6.54287e-16
8.3767e-16
8.5179e-16
8.55112e-16
6.22511e-16
3.24728e-16
1.31089e-16
4.39176e-17
1.40834e-17
1.05984e-17
2.37298e-17
4.07611e-17
6.84261e-17
1.04123e-16
7.76232e-17
2.25499e-15
1.09338e-15
5.70456e-16
2.95926e-16
1.57866e-16
1.0261e-16
9.68495e-17
1.19676e-16
1.43197e-16
1.78106e-16
1.75956e-16
1.66203e-16
1.14367e-16
5.71382e-17
2.22949e-17
7.24302e-18
2.18763e-18
1.31508e-18
2.60173e-18
4.18797e-18
6.21016e-18
7.55437e-18
4.69808e-18
5.10238e-16
2.33073e-16
1.18932e-16
6.09296e-17
3.23875e-17
2.12293e-17
2.01454e-17
2.46707e-17
2.89064e-17
3.48407e-17
3.3377e-17
2.97165e-17
1.93722e-17
9.27586e-18
3.49564e-18
1.09924e-18
3.14065e-19
1.50808e-19
2.52434e-19
3.78269e-19
4.98763e-19
4.92876e-19
2.57222e-19
1.06147e-16
4.57344e-17
2.28399e-17
1.15703e-17
6.13401e-18
4.05448e-18
3.8727e-18
4.70242e-18
5.39562e-18
6.29093e-18
5.83573e-18
4.9076e-18
3.03627e-18
1.3936e-18
5.06491e-19
1.53701e-19
4.16091e-20
1.61673e-20
2.19057e-20
3.02557e-20
3.55596e-20
2.90243e-20
1.27441e-20
2.04053e-17
8.29411e-18
4.05606e-18
2.03397e-18
1.07612e-18
7.17095e-19
6.89914e-19
8.31014e-19
9.3397e-19
1.05199e-18
9.43762e-19
7.51171e-19
4.4159e-19
1.94186e-19
6.79068e-20
1.98115e-20
5.07966e-21
1.63202e-21
1.7206e-21
2.16178e-21
2.26295e-21
1.54551e-21
5.70596e-22
3.6415e-18
1.39549e-18
6.68542e-19
3.32197e-19
1.75474e-19
1.1785e-19
1.14251e-19
1.36566e-19
1.50374e-19
1.63513e-19
1.41721e-19
1.06973e-19
5.98041e-20
2.51707e-20
8.44334e-21
2.35662e-21
5.70483e-22
1.55232e-22
1.24032e-22
1.39487e-22
1.2955e-22
7.46893e-23
2.31411e-23
6.0589e-19
2.18678e-19
1.0266e-19
5.05929e-20
2.66872e-20
1.80567e-20
1.76429e-20
2.09349e-20
2.25881e-20
2.37093e-20
1.98429e-20
1.42305e-20
7.57258e-21
3.04786e-21
9.7778e-22
2.59807e-22
5.91262e-23
1.38997e-23
8.30303e-24
8.21108e-24
6.74049e-24
3.29961e-24
8.57171e-25
9.43624e-20
3.2041e-20
1.47448e-20
7.21186e-21
3.79887e-21
2.58827e-21
2.54855e-21
3.00247e-21
3.17498e-21
3.21739e-21
2.59907e-21
1.77364e-21
8.99063e-22
3.45709e-22
1.05782e-22
2.66465e-23
5.67953e-24
1.17271e-24
5.24328e-25
4.46266e-25
3.21649e-25
1.34356e-25
2.94239e-26
1.38055e-20
4.40804e-21
1.98848e-21
9.65809e-22
5.0798e-22
3.4839e-22
3.45673e-22
4.04326e-22
4.19066e-22
4.10066e-22
3.19684e-22
2.07925e-22
1.00452e-22
3.68503e-23
1.07225e-23
2.54835e-24
5.06252e-25
9.29135e-26
3.16315e-26
2.27851e-26
1.43502e-26
5.12237e-27
9.84224e-28
1.90356e-21
5.71939e-22
2.53039e-22
1.22054e-22
6.40712e-23
4.4222e-23
4.42088e-23
5.13156e-23
5.20937e-23
4.92102e-23
3.69907e-23
2.29447e-23
1.05599e-23
3.6883e-24
1.01747e-24
2.2725e-25
4.19033e-26
6.88445e-27
1.83066e-27
1.10627e-27
6.0892e-28
1.879e-28
4.3438e-29
2.48495e-22
7.03493e-23
3.05376e-23
1.46217e-23
7.65395e-24
5.31841e-24
5.36207e-24
6.17672e-24
6.13364e-24
5.58674e-24
4.03861e-24
2.38418e-24
1.04082e-24
3.44032e-25
8.92643e-26
1.85784e-26
3.15513e-27
4.65426e-28
1.00697e-28
5.15544e-29
2.48572e-29
6.90035e-30
5.15741e-30
3.08862e-23
8.2687e-24
3.52845e-24
1.67648e-24
8.7436e-25
6.11549e-25
6.21794e-25
7.10114e-25
6.88589e-25
6.03741e-25
4.18546e-25
2.34557e-25
9.67017e-26
3.00483e-26
7.26771e-27
1.39467e-27
2.15679e-28
2.84237e-29
5.1773e-30
2.30292e-30
9.83852e-31
3.01807e-31
1.22324e-30
3.68754e-24
9.36523e-25
3.93334e-25
1.85242e-25
9.62029e-26
6.77337e-26
6.94027e-26
7.83861e-26
7.40448e-26
6.23236e-26
4.12867e-26
2.18802e-26
8.46763e-27
2.45078e-27
5.45453e-28
9.48962e-29
1.30852e-29
1.51337e-30
2.41087e-31
9.8198e-32
3.88544e-32
4.14711e-32
7.22645e-31
)
;

boundaryField
{
    leftWall
    {
        type            zeroGradient;
    }
    rightWall
    {
        type            zeroGradient;
    }
    lowerWall
    {
        type            zeroGradient;
    }
    atmosphere
    {
        type            inletOutlet;
        inletValue      uniform 0;
        value           nonuniform List<scalar> 
23
(
3.68754e-24
9.36523e-25
3.93334e-25
1.85242e-25
9.62029e-26
6.77337e-26
6.94027e-26
7.83861e-26
7.40448e-26
6.23236e-26
4.12867e-26
2.18802e-26
8.46763e-27
2.45078e-27
5.45453e-28
9.48962e-29
1.30852e-29
1.51337e-30
2.41087e-31
9.8198e-32
3.88544e-32
4.14711e-32
7.22645e-31
)
;
    }
    defaultFaces
    {
        type            empty;
    }
    procBoundary2to0
    {
        type            processor;
        value           nonuniform List<scalar> 
24
(
9.33799e-11
1.47979e-10
7.64976e-10
1.17831e-09
4.69834e-09
5.86999e-09
9.28556e-09
3.52914e-08
3.16792e-08
3.05318e-08
1.81222e-08
4.48165e-09
2.21953e-10
1.80461e-10
5.82066e-10
1.54745e-09
2.13376e-09
2.76264e-09
2.65985e-09
1.93545e-09
1.22881e-09
4.04884e-10
6.16493e-11
6.16493e-11
)
;
    }
    procBoundary2to3
    {
        type            processor;
        value           nonuniform List<scalar> 
25
(
3.85315e-09
4.13692e-09
3.89175e-09
2.06761e-09
9.50458e-10
3.37696e-10
8.56645e-11
1.2793e-11
1.56008e-12
1.52725e-13
1.22945e-14
8.42788e-16
5.07848e-17
2.74551e-18
1.33704e-19
5.84031e-21
2.28041e-22
7.99079e-24
2.55144e-25
8.05637e-27
4.76287e-28
1.14676e-28
4.14471e-29
1.497e-29
1.82963e-29
)
;
    }
}


// ************************************************************************* //
