/*--------------------------------*- C++ -*----------------------------------*\
| =========                 |                                                 |
| \\      /  F ield         | OpenFOAM: The Open Source CFD Toolbox           |
|  \\    /   O peration     | Version:  2.4.0                                 |
|   \\  /    A nd           | Web:      www.OpenFOAM.org                      |
|    \\/     M anipulation  |                                                 |
\*---------------------------------------------------------------------------*/
FoamFile
{
    version     2.0;
    format      ascii;
    class       volScalarField;
    location    "0.9";
    object      p;
}
// * * * * * * * * * * * * * * * * * * * * * * * * * * * * * * * * * * * * * //

dimensions      [1 -1 -2 0 0 0 0];

internalField   nonuniform List<scalar> 
559
(
2.67627
2.61528
2.53681
2.45548
2.38982
2.31431
2.2437
3.06752
3.05589
3.02944
3.00618
2.98018
2.94924
2.91594
2.87985
2.84325
2.8066
2.77225
2.74066
2.71207
2.68497
2.65579
2.62191
2.58124
2.53405
2.47612
2.42053
2.37151
2.31042
2.25544
2.92162
2.91304
2.89026
2.86881
2.84451
2.81715
2.78859
2.75815
2.72719
2.69614
2.66585
2.63659
2.60895
2.58204
2.55342
2.52208
2.48708
2.44829
2.4044
2.36328
2.3259
2.28183
2.24091
2.77604
2.76949
2.75141
2.73232
2.7107
2.68735
2.66252
2.63631
2.60961
2.58268
2.556
2.52983
2.5045
2.47869
2.45207
2.4237
2.3935
2.36117
2.32691
2.29464
2.26456
2.23255
2.20645
2.6326
2.62725
2.61307
2.59717
2.57871
2.55862
2.53702
2.51435
2.49113
2.46762
2.44413
2.42082
2.39769
2.37417
2.35012
2.32501
2.29907
2.27195
2.24445
2.21865
2.19412
2.17138
2.15525
2.49189
2.48743
2.4764
2.46331
2.4477
2.43045
2.41182
2.39222
2.372
2.35143
2.33072
2.30997
2.28913
2.26807
2.24665
2.22465
2.20237
2.17972
2.15746
2.13656
2.1175
2.10121
2.09118
2.35388
2.35016
2.34152
2.33074
2.31763
2.30292
2.28691
2.26997
2.25236
2.23432
2.21605
2.19765
2.17914
2.16046
2.1416
2.12255
2.10353
2.08466
2.06651
2.04975
2.03519
2.02386
2.01799
2.21827
2.21518
2.20832
2.19941
2.18844
2.17595
2.16223
2.1476
2.1323
2.11654
2.10051
2.08431
2.06799
2.05157
2.03514
2.0187
2.00256
1.98688
1.97217
1.95895
1.94795
1.93999
1.93659
2.08468
2.08211
2.0766
2.06922
2.06004
2.04946
2.03773
2.02514
2.0119
1.99821
1.9842
1.96999
1.95569
1.94139
1.92717
1.91316
1.89959
1.88665
1.87479
1.86433
1.85605
1.85067
1.84898
1.9528
1.95068
1.9462
1.94008
1.93239
1.92343
1.91342
1.90261
1.89118
1.87931
1.86713
1.8548
1.8424
1.83006
1.81787
1.80599
1.7946
1.78395
1.7744
1.76632
1.76022
1.75657
1.75599
1.82237
1.82061
1.81694
1.81185
1.80541
1.79782
1.7893
1.78004
1.77022
1.75999
1.74949
1.73885
1.72817
1.71757
1.70719
1.69716
1.68771
1.67904
1.67143
1.66516
1.66066
1.65831
1.65848
1.69312
1.69166
1.68863
1.68438
1.67898
1.67258
1.66535
1.65746
1.64906
1.64029
1.63128
1.62215
1.61302
1.604
1.59523
1.58686
1.57906
1.57201
1.56596
1.56117
1.55793
1.55652
1.55718
1.56486
1.56365
1.56113
1.55759
1.55306
1.54768
1.54157
1.53487
1.52772
1.52024
1.51256
1.50479
1.49703
1.48942
1.48207
1.47512
1.46872
1.46305
1.4583
1.45467
1.45239
1.45166
1.45264
1.43742
1.43642
1.43433
1.43139
1.4276
1.42307
1.41793
1.41227
1.40623
1.3999
1.39339
1.38682
1.3803
1.37392
1.36781
1.36209
1.35688
1.35235
1.34865
1.34595
1.3444
1.34415
1.34533
1.31067
1.30984
1.30811
1.30566
1.3025
1.29872
1.29441
1.28966
1.28458
1.27927
1.27381
1.26831
1.26286
1.25757
1.25253
1.24785
1.24366
1.24007
1.23723
1.23524
1.23425
1.23435
1.23562
1.18448
1.1838
1.18238
1.18035
1.17773
1.17459
1.171
1.16705
1.16282
1.15839
1.15385
1.14928
1.14477
1.14042
1.1363
1.13253
1.12918
1.12638
1.12423
1.12281
1.12223
1.12255
1.12384
1.05877
1.05821
1.05704
1.05537
1.05322
1.05063
1.04768
1.04442
1.04093
1.03727
1.03354
1.02979
1.02611
1.02257
1.01925
1.01623
1.0136
1.01144
1.00983
1.00885
1.00857
1.00904
1.0103
0.933444
0.932989
0.932039
0.930685
0.928932
0.926827
0.924418
0.921761
0.918916
0.915943
0.912908
0.909874
0.906904
0.904062
0.90142
0.899046
0.897008
0.89537
0.894198
0.893552
0.893483
0.894028
0.895214
0.808432
0.808072
0.807311
0.806227
0.804825
0.80314
0.801211
0.799084
0.796808
0.79443
0.792004
0.789585
0.787226
0.784985
0.78292
0.781084
0.779527
0.778309
0.777482
0.777087
0.777158
0.777722
0.778796
0.683671
0.683382
0.682783
0.681936
0.680842
0.67953
0.678031
0.676377
0.674604
0.672751
0.670862
0.668981
0.667152
0.665424
0.663839
0.662441
0.66128
0.660399
0.659829
0.659605
0.659754
0.660284
0.661191
0.559122
0.558906
0.558459
0.557823
0.557002
0.556016
0.554887
0.553642
0.552307
0.550914
0.549495
0.548084
0.546716
0.545426
0.544249
0.543224
0.542381
0.541751
0.541366
0.541254
0.541428
0.541892
0.542637
0.434728
0.434576
0.434249
0.43379
0.433207
0.432507
0.431705
0.430822
0.429876
0.42889
0.427888
0.426895
0.425934
0.425027
0.424204
0.423487
0.422903
0.422477
0.422232
0.42218
0.422332
0.422697
0.423271
0.310448
0.310351
0.310145
0.309851
0.309472
0.309016
0.308497
0.307924
0.307311
0.306673
0.306027
0.305385
0.304765
0.304184
0.303656
0.303202
0.302835
0.302572
0.302424
0.3024
0.302513
0.302764
0.303139
0.18623
0.186164
0.186035
0.185892
0.185704
0.185469
0.185195
0.184889
0.184561
0.184219
0.183873
0.183531
0.183205
0.182905
0.182637
0.182411
0.182232
0.182109
0.182047
0.182052
0.182125
0.182267
0.182494
0.0620456
0.0620488
0.0619951
0.0619399
0.0618932
0.0618322
0.0617615
0.06168
0.0615921
0.0615
0.0614067
0.0613169
0.0612339
0.0611591
0.0610939
0.06104
0.0609979
0.0609712
0.0609607
0.0609654
0.0609819
0.0609912
0.06109
)
;

boundaryField
{
    leftWall
    {
        type            fixedFluxPressure;
        gradient        uniform 0;
        value           nonuniform List<scalar> 
24
(
3.06752
2.92162
2.77604
2.6326
2.49189
2.35388
2.21827
2.08468
1.9528
1.82237
1.69312
1.56486
1.43742
1.31067
1.18448
1.05877
0.933444
0.808432
0.683671
0.559122
0.434728
0.310448
0.18623
0.0620456
)
;
    }
    rightWall
    {
        type            fixedFluxPressure;
        gradient        nonuniform 0();
        value           nonuniform 0();
    }
    lowerWall
    {
        type            fixedFluxPressure;
        gradient        nonuniform 0();
        value           nonuniform 0();
    }
    atmosphere
    {
        type            totalPressure;
        U               U.air;
        phi             phi.air;
        rho             rho;
        psi             none;
        gamma           1;
        p0              uniform 0;
        value           uniform 0;
    }
    defaultFaces
    {
        type            empty;
    }
    procBoundary2to0
    {
        type            processor;
        value           nonuniform List<scalar> 
24
(
2.77296
2.68618
2.57232
2.43871
2.33552
2.24122
2.15778
3.21176
3.19374
3.16824
3.14391
3.118
3.08432
3.04487
3.00047
2.95576
2.91156
2.87131
2.84084
2.81471
2.78902
2.76109
2.72494
2.72494
)
;
    }
    procBoundary2to3
    {
        type            processor;
        value           nonuniform List<scalar> 
25
(
2.21129
2.23399
2.22148
2.19874
2.15246
2.09109
2.01923
1.93842
1.85108
1.75819
1.66067
1.55933
1.45472
1.3473
1.23746
1.12551
1.0118
0.896552
0.779974
0.6621
0.543366
0.423831
0.303477
0.182694
0.0610503
)
;
    }
}


// ************************************************************************* //
