/*--------------------------------*- C++ -*----------------------------------*\
| =========                 |                                                 |
| \\      /  F ield         | OpenFOAM: The Open Source CFD Toolbox           |
|  \\    /   O peration     | Version:  2.4.0                                 |
|   \\  /    A nd           | Web:      www.OpenFOAM.org                      |
|    \\/     M anipulation  |                                                 |
\*---------------------------------------------------------------------------*/
FoamFile
{
    version     2.0;
    format      ascii;
    class       surfaceScalarField;
    location    "0.9";
    object      phi.water;
}
// * * * * * * * * * * * * * * * * * * * * * * * * * * * * * * * * * * * * * //

dimensions      [0 3 -1 0 0 0 0];

internalField   nonuniform List<scalar> 
1070
(
9.242e-05
6.82271e-05
0.000108608
6.18832e-05
0.000126803
5.35811e-05
0.000147676
5.53282e-05
0.000165998
4.15838e-05
0.000181484
1.3253e-05
3.73081e-06
1.66204e-05
0.000121691
2.80423e-05
0.000114049
3.18588e-05
9.59553e-05
3.105e-05
8.57201e-05
2.98692e-05
8.19059e-05
3.03479e-05
8.14404e-05
3.1966e-05
8.13682e-05
3.57736e-05
8.26831e-05
4.30414e-05
8.37446e-05
5.10065e-05
8.3951e-05
5.68873e-05
8.29236e-05
5.98867e-05
7.99889e-05
6.26123e-05
7.74016e-05
6.64395e-05
7.35436e-05
7.15904e-05
6.93755e-05
7.8595e-05
6.42858e-05
8.7468e-05
5.93542e-05
9.77119e-05
5.16407e-05
0.000107085
4.42114e-05
0.000121185
4.12356e-05
0.000135163
2.76103e-05
0.000140827
7.57641e-06
4.44908e-07
1.33672e-05
0.000108049
2.35741e-05
0.000103845
2.80032e-05
9.19929e-05
2.87114e-05
8.51619e-05
2.91322e-05
8.14892e-05
3.03353e-05
8.02375e-05
3.26297e-05
7.90738e-05
3.62158e-05
7.90972e-05
4.1356e-05
7.86022e-05
4.71773e-05
7.81254e-05
5.27161e-05
7.7379e-05
5.7333e-05
7.537e-05
6.21476e-05
7.25868e-05
6.70943e-05
6.85962e-05
7.23799e-05
6.40904e-05
7.80353e-05
5.86307e-05
8.42395e-05
5.31498e-05
9.03438e-05
4.55363e-05
9.567e-05
3.88858e-05
0.000103495
3.34142e-05
0.000109546
2.15485e-05
0.000108635
8.46701e-06
3.69148e-06
1.0274e-05
9.78686e-05
1.8875e-05
9.53131e-05
2.35531e-05
8.75593e-05
2.58107e-05
8.29139e-05
2.7546e-05
7.9754e-05
2.9602e-05
7.81815e-05
3.217e-05
7.65059e-05
3.55946e-05
7.56727e-05
3.97219e-05
7.44748e-05
4.4472e-05
7.3375e-05
4.96435e-05
7.22065e-05
5.47442e-05
7.02683e-05
6.00912e-05
6.72394e-05
6.52185e-05
6.34684e-05
7.03596e-05
5.89495e-05
7.52044e-05
5.37856e-05
7.96506e-05
4.87032e-05
8.32649e-05
4.19215e-05
8.65752e-05
3.55753e-05
9.08329e-05
2.91565e-05
9.24931e-05
1.98828e-05
8.94926e-05
1.14658e-05
8.11921e-06
7.93071e-06
9.00461e-05
1.51997e-05
8.80848e-05
1.97202e-05
8.30457e-05
2.28001e-05
7.98341e-05
2.53641e-05
7.71901e-05
2.80986e-05
7.5447e-05
3.09093e-05
7.36952e-05
3.41966e-05
7.23855e-05
3.78278e-05
7.08437e-05
4.1885e-05
6.93179e-05
4.64815e-05
6.76101e-05
5.13659e-05
6.53838e-05
5.62342e-05
6.23709e-05
6.09243e-05
5.87783e-05
6.5355e-05
5.45186e-05
6.93857e-05
4.97547e-05
7.31067e-05
4.49817e-05
7.6071e-05
3.89567e-05
7.86884e-05
3.29576e-05
8.11255e-05
2.67191e-05
8.13902e-05
1.96175e-05
7.91976e-05
1.36605e-05
1.07372e-05
6.39678e-06
8.36314e-05
1.25208e-05
8.1953e-05
1.69118e-05
7.86546e-05
2.04377e-05
7.63082e-05
2.34785e-05
7.41493e-05
2.6508e-05
7.24175e-05
2.95432e-05
7.06599e-05
3.28103e-05
6.91185e-05
3.62384e-05
6.74156e-05
3.99097e-05
6.56467e-05
4.39731e-05
6.35468e-05
4.83064e-05
6.10505e-05
5.25603e-05
5.8117e-05
5.66366e-05
5.47019e-05
6.04175e-05
5.07377e-05
6.38939e-05
4.62778e-05
6.72008e-05
4.16743e-05
6.98042e-05
3.63529e-05
7.18244e-05
3.09369e-05
7.34031e-05
2.51403e-05
7.35847e-05
1.9436e-05
7.26126e-05
1.46342e-05
1.12515e-05
5.33988e-06
7.82909e-05
1.05579e-05
7.67348e-05
1.47433e-05
7.44693e-05
1.83756e-05
7.26758e-05
2.16297e-05
7.08953e-05
2.47929e-05
6.92543e-05
2.79239e-05
6.7529e-05
3.11703e-05
6.5872e-05
3.45298e-05
6.40561e-05
3.80067e-05
6.217e-05
4.16111e-05
5.99425e-05
4.53203e-05
5.73414e-05
4.9044e-05
5.43934e-05
5.26386e-05
5.11074e-05
5.59878e-05
4.73881e-05
5.90295e-05
4.32359e-05
6.18069e-05
3.88964e-05
6.40805e-05
3.40788e-05
6.59444e-05
2.90727e-05
6.73598e-05
2.37249e-05
6.77786e-05
1.90173e-05
6.77544e-05
1.46589e-05
1.05704e-05
4.61394e-06
7.3677e-05
9.1446e-06
7.22041e-05
1.3071e-05
7.0543e-05
1.66358e-05
6.91109e-05
1.9937e-05
6.75942e-05
2.31274e-05
6.60639e-05
2.62524e-05
6.44039e-05
2.94225e-05
6.2702e-05
3.26469e-05
6.08318e-05
3.59509e-05
5.8866e-05
3.92226e-05
5.6671e-05
4.24849e-05
5.40792e-05
4.56853e-05
5.11931e-05
4.88075e-05
4.7985e-05
5.18627e-05
4.43329e-05
5.46397e-05
4.04585e-05
5.71891e-05
3.63465e-05
5.92657e-05
3.20017e-05
6.09449e-05
2.73932e-05
6.20524e-05
2.26174e-05
6.27705e-05
1.82993e-05
6.34908e-05
1.39389e-05
9.55175e-06
4.08159e-06
6.95954e-05
8.0861e-06
6.81996e-05
1.17246e-05
6.69044e-05
1.51044e-05
6.57311e-05
1.82933e-05
6.44053e-05
2.13934e-05
6.29638e-05
2.4418e-05
6.13793e-05
2.74324e-05
5.96876e-05
3.04491e-05
5.78152e-05
3.35164e-05
5.57987e-05
3.65925e-05
5.3595e-05
3.96424e-05
5.10294e-05
4.26029e-05
4.82327e-05
4.54644e-05
4.51236e-05
4.80634e-05
4.17336e-05
5.04282e-05
3.80934e-05
5.25752e-05
3.41991e-05
5.44461e-05
3.01304e-05
5.60072e-05
2.58318e-05
5.72578e-05
2.13668e-05
5.83841e-05
1.71733e-05
5.93388e-05
1.29844e-05
8.61834e-06
3.66751e-06
6.59279e-05
7.26855e-06
6.45986e-05
1.06425e-05
6.35304e-05
1.38425e-05
6.25312e-05
1.68976e-05
6.13501e-05
1.98601e-05
6.00013e-05
2.27497e-05
5.84897e-05
2.56109e-05
5.68264e-05
2.84513e-05
5.49748e-05
3.12608e-05
5.29893e-05
3.4052e-05
5.08038e-05
3.67368e-05
4.83447e-05
3.93678e-05
4.56018e-05
4.18663e-05
4.26249e-05
4.42277e-05
3.93721e-05
4.64531e-05
3.58676e-05
4.84643e-05
3.21874e-05
5.02647e-05
2.83296e-05
5.17317e-05
2.43647e-05
5.28815e-05
2.02169e-05
5.39104e-05
1.61446e-05
5.49213e-05
1.19737e-05
7.67025e-06
3.29547e-06
6.26324e-05
6.53622e-06
6.13578e-05
9.6404e-06
6.04262e-05
1.26306e-05
5.9541e-05
1.55132e-05
5.84675e-05
1.83021e-05
5.72125e-05
2.1023e-05
5.57688e-05
2.36998e-05
5.41496e-05
2.63253e-05
5.23494e-05
2.89275e-05
5.03871e-05
3.15063e-05
4.82251e-05
3.40105e-05
4.58406e-05
3.64316e-05
4.31807e-05
3.87287e-05
4.03279e-05
4.08726e-05
3.72279e-05
4.27944e-05
3.39456e-05
4.45346e-05
3.04468e-05
4.60789e-05
2.67849e-05
4.74447e-05
2.29986e-05
4.86263e-05
1.90354e-05
4.97024e-05
1.50687e-05
5.06441e-05
1.10322e-05
6.85719e-06
2.99849e-06
5.96339e-05
5.95686e-06
5.83994e-05
8.81952e-06
5.75636e-05
1.15984e-05
5.67621e-05
1.42918e-05
5.57741e-05
1.69052e-05
5.45991e-05
1.94477e-05
5.32263e-05
2.19294e-05
5.16679e-05
2.43545e-05
4.99244e-05
2.67434e-05
4.79983e-05
2.90672e-05
4.59013e-05
3.13213e-05
4.35867e-05
3.34652e-05
4.10369e-05
3.55048e-05
3.82882e-05
3.73912e-05
3.53415e-05
3.91667e-05
3.21696e-05
4.07991e-05
2.88141e-05
4.22771e-05
2.53066e-05
4.35718e-05
2.17037e-05
4.46481e-05
1.79592e-05
4.55822e-05
1.41347e-05
4.6416e-05
1.01987e-05
6.13999e-06
2.71705e-06
5.69168e-05
5.40564e-06
5.57108e-05
8.02483e-06
5.49444e-05
1.05799e-05
5.42071e-05
1.30664e-05
5.32875e-05
1.54927e-05
5.21728e-05
1.78567e-05
5.08622e-05
2.01591e-05
4.93655e-05
2.24001e-05
4.76834e-05
2.45823e-05
4.58162e-05
2.67163e-05
4.37674e-05
2.87715e-05
4.15315e-05
3.07248e-05
3.90836e-05
3.2569e-05
3.6444e-05
3.42914e-05
3.36189e-05
3.58809e-05
3.05799e-05
3.73151e-05
2.73795e-05
3.85958e-05
2.40256e-05
3.9734e-05
2.05653e-05
4.07324e-05
1.69609e-05
4.16018e-05
1.32655e-05
4.23421e-05
9.45851e-06
5.53258e-06
2.47458e-06
5.44422e-05
4.92164e-06
5.32637e-05
7.31935e-06
5.25466e-05
9.66367e-06
5.18627e-05
1.19528e-05
5.09984e-05
1.41876e-05
4.9938e-05
1.63626e-05
4.86872e-05
1.84737e-05
4.72544e-05
2.05223e-05
4.56349e-05
2.2506e-05
4.38324e-05
2.44276e-05
4.1846e-05
2.62703e-05
3.96888e-05
2.80217e-05
3.73323e-05
2.96784e-05
3.47872e-05
3.12287e-05
3.20685e-05
3.26534e-05
2.91549e-05
3.3955e-05
2.60775e-05
3.51067e-05
2.28737e-05
3.61252e-05
1.95467e-05
3.70003e-05
1.60858e-05
3.7749e-05
1.25169e-05
3.83811e-05
8.8266e-06
5.02676e-06
2.23951e-06
5.22027e-05
4.46303e-06
5.10402e-05
6.6497e-06
5.036e-05
8.79218e-06
4.97202e-05
1.08865e-05
4.89041e-05
1.29288e-05
4.78957e-05
1.4914e-05
4.67021e-05
1.68415e-05
4.53269e-05
1.87055e-05
4.3771e-05
2.05027e-05
4.20352e-05
2.22259e-05
4.01228e-05
2.38779e-05
3.80369e-05
2.54437e-05
3.57665e-05
2.69178e-05
3.33132e-05
2.8291e-05
3.0695e-05
2.95542e-05
2.78915e-05
3.06972e-05
2.49343e-05
3.17141e-05
2.18565e-05
3.26071e-05
1.86535e-05
3.3376e-05
1.5317e-05
3.40249e-05
1.18682e-05
3.45525e-05
8.29915e-06
4.62595e-06
2.02129e-06
5.01814e-05
4.03581e-06
4.90257e-05
6.0187e-06
4.8377e-05
7.96546e-06
4.77735e-05
9.87012e-06
4.69994e-05
1.17239e-05
4.6042e-05
1.35212e-05
4.49047e-05
1.52592e-05
4.35889e-05
1.69321e-05
4.20982e-05
1.85466e-05
4.04207e-05
2.00932e-05
3.85764e-05
2.15727e-05
3.65575e-05
2.2974e-05
3.43653e-05
2.4286e-05
3.20012e-05
2.54995e-05
2.94815e-05
2.65977e-05
2.6793e-05
2.75756e-05
2.39561e-05
2.84513e-05
2.09806e-05
2.92247e-05
1.78801e-05
2.98843e-05
1.46575e-05
3.04246e-05
1.1328e-05
3.08474e-05
7.8766e-06
4.32502e-06
1.82228e-06
4.83591e-05
3.64395e-06
4.7204e-05
5.43879e-06
4.65822e-05
7.19673e-06
4.60155e-05
8.91304e-06
4.52831e-05
1.05798e-05
4.43752e-05
1.21923e-05
4.32922e-05
1.37475e-05
4.20337e-05
1.52413e-05
4.06044e-05
1.66712e-05
3.89909e-05
1.80369e-05
3.72108e-05
1.93306e-05
3.52639e-05
2.05531e-05
3.31427e-05
2.16964e-05
3.0858e-05
2.27572e-05
2.84205e-05
2.37229e-05
2.58272e-05
2.45895e-05
2.30893e-05
2.53413e-05
2.02287e-05
2.59776e-05
1.72436e-05
2.65103e-05
1.41248e-05
2.69418e-05
1.08966e-05
2.72607e-05
7.55784e-06
4.11907e-06
1.63472e-06
4.67244e-05
3.26821e-06
4.55705e-05
4.88012e-06
4.49703e-05
6.45531e-06
4.44403e-05
7.99294e-06
4.37455e-05
9.48858e-06
4.28796e-05
1.09329e-05
4.18479e-05
1.23183e-05
4.06483e-05
1.3648e-05
3.92748e-05
1.49056e-05
3.77333e-05
1.60921e-05
3.60242e-05
1.72069e-05
3.41491e-05
1.82514e-05
3.20983e-05
1.92206e-05
2.98887e-05
2.01141e-05
2.7527e-05
2.09227e-05
2.50183e-05
2.16407e-05
2.2371e-05
2.22773e-05
1.95919e-05
2.28274e-05
1.66935e-05
2.32614e-05
1.36908e-05
2.358e-05
1.05782e-05
2.37935e-05
7.34447e-06
4.00885e-06
1.46217e-06
4.52621e-05
2.91529e-06
4.41174e-05
4.34231e-06
4.35432e-05
5.74069e-06
4.30419e-05
7.10797e-06
4.23782e-05
8.43809e-06
4.15495e-05
9.72886e-06
4.05571e-05
1.09703e-05
3.94068e-05
1.21556e-05
3.80896e-05
1.32725e-05
3.66164e-05
1.43203e-05
3.49766e-05
1.52974e-05
3.31721e-05
1.61888e-05
3.12068e-05
1.69909e-05
2.90868e-05
1.77043e-05
2.68134e-05
1.83293e-05
2.43932e-05
1.88714e-05
2.18287e-05
1.93401e-05
1.91231e-05
1.973e-05
1.63035e-05
2.00558e-05
1.33651e-05
2.03034e-05
1.03308e-05
2.04344e-05
7.21356e-06
3.99029e-06
1.30722e-06
4.39549e-05
2.57723e-06
4.28473e-05
3.82954e-06
4.22909e-05
5.04925e-06
4.18222e-05
6.23771e-06
4.11897e-05
7.39522e-06
4.0392e-05
8.52055e-06
3.94318e-05
9.60486e-06
3.83225e-05
1.06347e-05
3.70598e-05
1.16036e-05
3.56475e-05
1.25003e-05
3.40799e-05
1.33175e-05
3.23549e-05
1.40631e-05
3.04613e-05
1.47447e-05
2.84051e-05
1.53508e-05
2.62074e-05
1.58803e-05
2.38635e-05
1.63211e-05
2.13878e-05
1.66509e-05
1.87932e-05
1.68832e-05
1.60711e-05
1.70337e-05
1.32146e-05
1.71137e-05
1.02509e-05
1.71428e-05
7.18448e-06
4.04482e-06
1.17171e-06
4.27832e-05
2.23132e-06
4.17877e-05
3.26106e-06
4.12612e-05
4.27937e-06
4.08039e-05
5.28059e-06
4.01885e-05
6.25833e-06
3.94142e-05
7.21646e-06
3.84737e-05
8.15756e-06
3.73815e-05
9.07122e-06
3.61461e-05
9.94158e-06
3.47771e-05
1.07513e-05
3.32702e-05
1.14843e-05
3.16219e-05
1.2127e-05
2.98186e-05
1.26785e-05
2.78536e-05
1.31287e-05
2.57571e-05
1.34914e-05
2.3501e-05
1.37817e-05
2.10973e-05
1.40079e-05
1.85669e-05
1.4165e-05
1.5914e-05
1.42196e-05
1.31601e-05
1.41687e-05
1.03018e-05
1.40339e-05
7.31946e-06
4.23945e-06
9.82415e-07
4.18008e-05
1.82162e-06
4.09485e-05
2.62607e-06
4.04567e-05
3.42481e-06
4.00051e-05
4.21556e-06
3.93977e-05
4.98556e-06
3.86442e-05
5.73118e-06
3.77281e-05
6.45026e-06
3.66624e-05
7.14857e-06
3.54478e-05
7.83168e-06
3.40941e-05
8.49011e-06
3.26118e-05
9.11864e-06
3.09934e-05
9.70343e-06
2.92339e-05
1.02197e-05
2.73373e-05
1.06684e-05
2.53087e-05
1.10265e-05
2.31427e-05
1.12829e-05
2.08408e-05
1.14319e-05
1.84177e-05
1.14818e-05
1.5864e-05
1.14508e-05
1.3191e-05
1.13363e-05
1.04163e-05
1.11072e-05
7.54863e-06
4.59317e-06
7.59882e-07
4.10409e-05
1.22955e-06
4.04788e-05
1.64069e-06
4.00456e-05
2.06332e-06
3.95825e-05
2.49855e-06
3.89625e-05
2.94294e-06
3.81998e-05
3.38924e-06
3.72818e-05
3.83925e-06
3.62124e-05
4.29343e-06
3.49937e-05
4.75665e-06
3.36309e-05
5.22982e-06
3.21387e-05
5.70827e-06
3.0515e-05
6.18061e-06
2.87616e-05
6.64123e-06
2.68769e-05
7.08263e-06
2.48671e-05
7.4854e-06
2.27399e-05
7.83063e-06
2.04953e-05
8.10065e-06
1.81473e-05
8.27479e-06
1.56895e-05
8.32882e-06
1.31367e-05
8.24441e-06
1.05007e-05
8.01944e-06
7.77354e-06
4.92384e-06
4.02699e-07
4.06382e-05
5.40371e-07
4.03411e-05
6.78591e-07
3.99074e-05
8.66032e-07
3.93951e-05
1.066e-06
3.87626e-05
1.29053e-06
3.79753e-05
1.53293e-06
3.70394e-05
1.79351e-06
3.59518e-05
2.07148e-06
3.47157e-05
2.3673e-06
3.3335e-05
2.68559e-06
3.18204e-05
3.01926e-06
3.01813e-05
3.36063e-06
2.84202e-05
3.70284e-06
2.65346e-05
4.0356e-06
2.45343e-05
4.34762e-06
2.24276e-05
4.63697e-06
2.02056e-05
4.88459e-06
1.78993e-05
5.074e-06
1.54998e-05
5.18659e-06
1.30239e-05
5.19444e-06
1.04926e-05
5.05574e-06
7.9122e-06
5.23254e-06
6.53167e-08
-1.59939e-07
-4.65506e-07
-7.49921e-07
-9.9657e-07
-1.19546e-06
-1.35245e-06
-1.46874e-06
-1.54575e-06
-1.5854e-06
-1.58606e-06
-1.54595e-06
-1.46691e-06
-1.35368e-06
-1.20725e-06
-1.03172e-06
-8.44573e-07
-6.42007e-07
-4.43499e-07
-2.60302e-07
-1.04881e-07
3.06899e-09
)
;

boundaryField
{
    leftWall
    {
        type            fixedValue;
        value           uniform 0;
    }
    rightWall
    {
        type            fixedValue;
        value           nonuniform 0();
    }
    lowerWall
    {
        type            fixedValue;
        value           nonuniform 0();
    }
    atmosphere
    {
        type            calculated;
        value           nonuniform List<scalar> 
23
(
4.05729e-05
4.05664e-05
4.02129e-05
3.96795e-05
3.90092e-05
3.81742e-05
3.71963e-05
3.60681e-05
3.47927e-05
3.33747e-05
3.18211e-05
3.01412e-05
2.83412e-05
2.64213e-05
2.43877e-05
2.22519e-05
2.00183e-05
1.76967e-05
1.53012e-05
1.28406e-05
1.03372e-05
7.80418e-06
5.21905e-06
)
;
    }
    defaultFaces
    {
        type            empty;
        value           nonuniform 0();
    }
    procBoundary2to0
    {
        type            processor;
        value           nonuniform List<scalar> 
24
(
-8.09294e-05
-7.80701e-05
-7.18021e-05
-7.62369e-05
-6.00558e-05
-2.89435e-05
-2.12738e-05
-0.000137923
-0.000125496
-9.96472e-05
-8.46253e-05
-8.06873e-05
-8.19174e-05
-8.29858e-05
-8.64883e-05
-9.10194e-05
-9.19223e-05
-8.88141e-05
-8.29766e-05
-8.0118e-05
-7.737e-05
-7.45247e-05
-7.9717e-05
-7.12903e-05
)
;
    }
    procBoundary2to3
    {
        type            processor;
        value           nonuniform List<scalar> 
25
(
0.000198659
0.000144117
0.00010538
8.5079e-05
7.65882e-05
7.21007e-05
6.84361e-05
6.45096e-05
6.02724e-05
5.58695e-05
5.14573e-05
4.71332e-05
4.29497e-05
3.8887e-05
3.49534e-05
3.11484e-05
2.74667e-05
2.39038e-05
2.04531e-05
1.70884e-05
1.38393e-05
1.07537e-05
7.68887e-06
4.74694e-06
1.65531e-08
)
;
    }
}


// ************************************************************************* //
