/*--------------------------------*- C++ -*----------------------------------*\
| =========                 |                                                 |
| \\      /  F ield         | OpenFOAM: The Open Source CFD Toolbox           |
|  \\    /   O peration     | Version:  2.4.0                                 |
|   \\  /    A nd           | Web:      www.OpenFOAM.org                      |
|    \\/     M anipulation  |                                                 |
\*---------------------------------------------------------------------------*/
FoamFile
{
    version     2.0;
    format      ascii;
    class       volVectorField;
    location    "0.9";
    object      U.air;
}
// * * * * * * * * * * * * * * * * * * * * * * * * * * * * * * * * * * * * * //

dimensions      [0 1 -1 0 0 0 0];

internalField   nonuniform List<vector> 
559
(
(0.459785 0.398449 0)
(0.536603 0.368352 0)
(0.617266 0.31694 0)
(0.747152 0.336617 0)
(0.837943 0.259144 0)
(0.912734 0.085454 0)
(1.00288 0.0347739 0)
(0.0606397 0.696928 0)
(0.121553 0.644206 0)
(0.174327 0.528616 0)
(0.174011 0.46026 0)
(0.159543 0.440474 0)
(0.161113 0.441137 0)
(0.166401 0.444284 0)
(0.176482 0.455779 0)
(0.208236 0.467171 0)
(0.25168 0.469511 0)
(0.294221 0.460757 0)
(0.315446 0.442235 0)
(0.32857 0.42978 0)
(0.346033 0.410133 0)
(0.369542 0.38968 0)
(0.400989 0.365243 0)
(0.444493 0.341328 0)
(0.494426 0.299635 0)
(0.545497 0.253746 0)
(0.607994 0.243441 0)
(0.6888 0.17056 0)
(0.737129 0.0453152 0)
(0.756358 -0.00239066 0)
(0.0501414 0.61503 0)
(0.0986053 0.584882 0)
(0.150554 0.507478 0)
(0.153786 0.46279 0)
(0.153718 0.442218 0)
(0.159124 0.43802 0)
(0.168136 0.434232 0)
(0.182039 0.436952 0)
(0.20706 0.436402 0)
(0.236482 0.434872 0)
(0.269342 0.43144 0)
(0.295764 0.419827 0)
(0.320572 0.406495 0)
(0.347132 0.385019 0)
(0.374046 0.361825 0)
(0.402926 0.331943 0)
(0.435347 0.302074 0)
(0.466437 0.258847 0)
(0.497903 0.22101 0)
(0.527639 0.193769 0)
(0.578295 0.121174 0)
(0.582636 0.0344713 0)
(0.572079 0.00514861 0)
(0.0362359 0.552295 0)
(0.0776885 0.535064 0)
(0.121391 0.483922 0)
(0.133041 0.45491 0)
(0.143048 0.437093 0)
(0.153506 0.42934 0)
(0.164942 0.420619 0)
(0.180587 0.417852 0)
(0.201758 0.412695 0)
(0.224705 0.40814 0)
(0.252389 0.403289 0)
(0.280283 0.393636 0)
(0.307863 0.37775 0)
(0.336937 0.357441 0)
(0.363161 0.333087 0)
(0.391116 0.304598 0)
(0.415969 0.27571 0)
(0.435965 0.236387 0)
(0.45451 0.200555 0)
(0.472125 0.165164 0)
(0.497056 0.1069 0)
(0.486806 0.0526267 0)
(0.466143 0.031687 0)
(0.0256462 0.50475 0)
(0.0615599 0.493117 0)
(0.0979454 0.460123 0)
(0.114651 0.439918 0)
(0.129147 0.42438 0)
(0.143787 0.414922 0)
(0.157903 0.405827 0)
(0.174175 0.399703 0)
(0.193037 0.391911 0)
(0.213202 0.384519 0)
(0.236366 0.376728 0)
(0.262659 0.365422 0)
(0.288597 0.348846 0)
(0.314613 0.329281 0)
(0.339007 0.305732 0)
(0.36151 0.279126 0)
(0.382588 0.253343 0)
(0.39921 0.218727 0)
(0.415192 0.184346 0)
(0.426936 0.14783 0)
(0.438391 0.104189 0)
(0.430236 0.0674247 0)
(0.417037 0.0517434 0)
(0.0195193 0.467042 0)
(0.0503681 0.4576 0)
(0.0814172 0.436145 0)
(0.100659 0.42156 0)
(0.11792 0.408924 0)
(0.134346 0.399539 0)
(0.150176 0.390131 0)
(0.167144 0.382239 0)
(0.185075 0.3734 0)
(0.204062 0.364128 0)
(0.224304 0.353211 0)
(0.247587 0.340382 0)
(0.270699 0.324678 0)
(0.293153 0.305943 0)
(0.314189 0.283479 0)
(0.333263 0.258857 0)
(0.351601 0.233152 0)
(0.367556 0.202651 0)
(0.379946 0.171056 0)
(0.388471 0.138711 0)
(0.396268 0.105205 0)
(0.389772 0.0766134 0)
(0.389458 0.0598277 0)
(0.015869 0.43611 0)
(0.0422315 0.427478 0)
(0.0693127 0.413086 0)
(0.0891825 0.402155 0)
(0.107514 0.39167 0)
(0.124663 0.382517 0)
(0.141357 0.373101 0)
(0.158487 0.364381 0)
(0.176078 0.354892 0)
(0.194498 0.345047 0)
(0.213375 0.333221 0)
(0.233205 0.319186 0)
(0.253015 0.303416 0)
(0.272833 0.285326 0)
(0.291618 0.265109 0)
(0.308365 0.241649 0)
(0.324303 0.217282 0)
(0.33746 0.189776 0)
(0.34876 0.162086 0)
(0.357092 0.131123 0)
(0.364025 0.102382 0)
(0.361113 0.0790018 0)
(0.36659 0.058737 0)
(0.0135238 0.40936 0)
(0.0365018 0.401216 0)
(0.0604333 0.390945 0)
(0.0798998 0.382431 0)
(0.0982837 0.373674 0)
(0.115647 0.365201 0)
(0.132466 0.35614 0)
(0.149298 0.347087 0)
(0.166428 0.337098 0)
(0.183973 0.326768 0)
(0.201815 0.314586 0)
(0.219024 0.300397 0)
(0.236609 0.284376 0)
(0.253329 0.267126 0)
(0.270006 0.247033 0)
(0.28567 0.225482 0)
(0.300043 0.202936 0)
(0.312402 0.178115 0)
(0.322693 0.151524 0)
(0.329841 0.124334 0)
(0.335144 0.101236 0)
(0.336938 0.0768432 0)
(0.345013 0.0524989 0)
(0.0118724 0.386301 0)
(0.0322828 0.378565 0)
(0.0536609 0.370761 0)
(0.072132 0.363869 0)
(0.0897089 0.356238 0)
(0.106549 0.348173 0)
(0.122913 0.339391 0)
(0.139086 0.330195 0)
(0.155273 0.320028 0)
(0.171551 0.309055 0)
(0.187949 0.297446 0)
(0.204529 0.283651 0)
(0.220629 0.26851 0)
(0.236258 0.25121 0)
(0.251095 0.232033 0)
(0.264259 0.211989 0)
(0.276159 0.189946 0)
(0.287173 0.167509 0)
(0.296318 0.143688 0)
(0.303465 0.118506 0)
(0.31066 0.0946967 0)
(0.315129 0.0719942 0)
(0.321707 0.0486479 0)
(0.0106061 0.365353 0)
(0.0290075 0.358014 0)
(0.0484015 0.351753 0)
(0.0658198 0.345987 0)
(0.0825447 0.339292 0)
(0.0986555 0.331784 0)
(0.114351 0.32346 0)
(0.129732 0.314386 0)
(0.14506 0.304274 0)
(0.160122 0.293508 0)
(0.175266 0.281515 0)
(0.189973 0.267853 0)
(0.204043 0.252971 0)
(0.21808 0.236647 0)
(0.230856 0.218845 0)
(0.243195 0.199206 0)
(0.254707 0.178998 0)
(0.264699 0.157267 0)
(0.274065 0.134703 0)
(0.280537 0.111838 0)
(0.28648 0.0898002 0)
(0.291555 0.0667335 0)
(0.298075 0.0429691 0)
(0.00948666 0.346711 0)
(0.0260746 0.339675 0)
(0.0436248 0.334292 0)
(0.0598392 0.329218 0)
(0.0755656 0.323169 0)
(0.090761 0.316195 0)
(0.105542 0.308242 0)
(0.119974 0.299393 0)
(0.134244 0.289573 0)
(0.148159 0.278985 0)
(0.162145 0.267237 0)
(0.17579 0.254178 0)
(0.188982 0.2394 0)
(0.201661 0.22364 0)
(0.213531 0.206449 0)
(0.22461 0.188323 0)
(0.234361 0.168859 0)
(0.242988 0.148781 0)
(0.25105 0.127866 0)
(0.257535 0.105477 0)
(0.264079 0.0834292 0)
(0.26913 0.0614566 0)
(0.274513 0.0386787 0)
(0.00858768 0.329685 0)
(0.0237583 0.322938 0)
(0.0398015 0.318213 0)
(0.0548528 0.313685 0)
(0.0695061 0.308136 0)
(0.0837462 0.301597 0)
(0.097571 0.293978 0)
(0.111034 0.285362 0)
(0.124181 0.275754 0)
(0.137063 0.265184 0)
(0.14976 0.25366 0)
(0.162024 0.240941 0)
(0.173816 0.22694 0)
(0.185099 0.211782 0)
(0.195594 0.195505 0)
(0.205354 0.178027 0)
(0.214568 0.159422 0)
(0.222842 0.139946 0)
(0.230522 0.11999 0)
(0.236748 0.0995499 0)
(0.242247 0.0785476 0)
(0.246773 0.0568214 0)
(0.251522 0.0345454 0)
(0.0077487 0.31437 0)
(0.0215574 0.307805 0)
(0.0361536 0.303525 0)
(0.0499757 0.299396 0)
(0.063467 0.294268 0)
(0.0766577 0.288099 0)
(0.089499 0.28087 0)
(0.102019 0.272648 0)
(0.114191 0.263435 0)
(0.12607 0.253219 0)
(0.137619 0.242045 0)
(0.148879 0.229777 0)
(0.159649 0.216255 0)
(0.169886 0.201662 0)
(0.179392 0.186045 0)
(0.188293 0.169224 0)
(0.196486 0.151618 0)
(0.203676 0.133124 0)
(0.210269 0.113945 0)
(0.215922 0.0938564 0)
(0.221115 0.073499 0)
(0.225259 0.0526202 0)
(0.229264 0.0311153 0)
(0.00703694 0.300303 0)
(0.0196436 0.293842 0)
(0.0329341 0.289848 0)
(0.0456162 0.286012 0)
(0.0580152 0.281185 0)
(0.0701643 0.275292 0)
(0.0819944 0.268364 0)
(0.0935008 0.260452 0)
(0.104647 0.251532 0)
(0.115466 0.241632 0)
(0.125907 0.230746 0)
(0.136063 0.218931 0)
(0.145697 0.206001 0)
(0.154836 0.192004 0)
(0.163446 0.177004 0)
(0.171441 0.160893 0)
(0.17876 0.143879 0)
(0.18536 0.126179 0)
(0.191231 0.107881 0)
(0.196303 0.0888869 0)
(0.200732 0.0692941 0)
(0.204339 0.0490014 0)
(0.20767 0.0281678 0)
(0.00633165 0.287662 0)
(0.0178146 0.281406 0)
(0.0298849 0.277665 0)
(0.0414738 0.274104 0)
(0.0528155 0.269577 0)
(0.063926 0.263998 0)
(0.0747294 0.257389 0)
(0.0852243 0.249794 0)
(0.0954052 0.241202 0)
(0.105231 0.231652 0)
(0.114661 0.22112 0)
(0.123731 0.20962 0)
(0.13236 0.197067 0)
(0.140512 0.183532 0)
(0.148176 0.169145 0)
(0.155255 0.153759 0)
(0.161722 0.137492 0)
(0.167567 0.120562 0)
(0.172662 0.10289 0)
(0.177151 0.0844748 0)
(0.181005 0.0654982 0)
(0.184128 0.0458978 0)
(0.186787 0.0257599 0)
(0.00570272 0.276106 0)
(0.016106 0.26981 0)
(0.0270276 0.266208 0)
(0.037559 0.262853 0)
(0.0478722 0.258569 0)
(0.05797 0.253267 0)
(0.0677726 0.247005 0)
(0.0772535 0.239766 0)
(0.0863975 0.23155 0)
(0.095224 0.222349 0)
(0.103695 0.212213 0)
(0.111813 0.201138 0)
(0.119561 0.189152 0)
(0.126846 0.176205 0)
(0.133641 0.162325 0)
(0.139856 0.147422 0)
(0.145433 0.131687 0)
(0.150411 0.115308 0)
(0.154833 0.0983209 0)
(0.158728 0.0806416 0)
(0.161975 0.0623465 0)
(0.164558 0.0433949 0)
(0.166584 0.0239122 0)
(0.00509383 0.265804 0)
(0.0145515 0.259604 0)
(0.0244126 0.25622 0)
(0.0339446 0.253065 0)
(0.0432453 0.248991 0)
(0.0523402 0.243954 0)
(0.0611371 0.237915 0)
(0.0696385 0.230917 0)
(0.0778068 0.222996 0)
(0.0856534 0.214123 0)
(0.0931715 0.204308 0)
(0.100301 0.193592 0)
(0.107047 0.181938 0)
(0.113403 0.169358 0)
(0.119325 0.156013 0)
(0.124775 0.141882 0)
(0.129721 0.126905 0)
(0.134096 0.111105 0)
(0.137796 0.0945575 0)
(0.140947 0.0774028 0)
(0.143563 0.0597199 0)
(0.145606 0.0414263 0)
(0.147032 0.022579 0)
(0.00455317 0.256429 0)
(0.0130545 0.250207 0)
(0.0218993 0.24686 0)
(0.0304601 0.243893 0)
(0.0387857 0.240052 0)
(0.0469402 0.235271 0)
(0.0548234 0.229602 0)
(0.0624302 0.223005 0)
(0.0697146 0.215461 0)
(0.0766568 0.206972 0)
(0.0832317 0.197525 0)
(0.0893941 0.187131 0)
(0.0951653 0.175797 0)
(0.100586 0.163651 0)
(0.105609 0.150674 0)
(0.11018 0.136846 0)
(0.114275 0.122272 0)
(0.117902 0.107201 0)
(0.121142 0.0915178 0)
(0.123825 0.0750092 0)
(0.12582 0.057787 0)
(0.127282 0.0399974 0)
(0.128135 0.0217317 0)
(0.0040472 0.248083 0)
(0.0117014 0.24193 0)
(0.0194755 0.238823 0)
(0.0271021 0.236045 0)
(0.0344858 0.232384 0)
(0.041735 0.22783 0)
(0.0487759 0.222405 0)
(0.055577 0.216066 0)
(0.0621023 0.208761 0)
(0.0682798 0.200604 0)
(0.0740827 0.191576 0)
(0.0795094 0.181664 0)
(0.0845677 0.170866 0)
(0.0891144 0.159152 0)
(0.0931696 0.146571 0)
(0.0967446 0.133193 0)
(0.0998745 0.119086 0)
(0.102631 0.104146 0)
(0.104916 0.0885673 0)
(0.10681 0.0726833 0)
(0.108453 0.0563025 0)
(0.109506 0.0391736 0)
(0.109843 0.0214405 0)
(0.00364387 0.240732 0)
(0.0103709 0.234516 0)
(0.0172087 0.231402 0)
(0.0238701 0.228773 0)
(0.0302952 0.225273 0)
(0.0365951 0.220896 0)
(0.0427321 0.215626 0)
(0.0486768 0.209532 0)
(0.0543421 0.202658 0)
(0.0597265 0.194923 0)
(0.0647428 0.186292 0)
(0.0693323 0.176739 0)
(0.073526 0.166304 0)
(0.0773434 0.155061 0)
(0.0808036 0.143031 0)
(0.0838629 0.13025 0)
(0.0865445 0.116674 0)
(0.0885791 0.102346 0)
(0.0900459 0.0873576 0)
(0.0911533 0.0715145 0)
(0.0916689 0.0551331 0)
(0.0920467 0.0385797 0)
(0.0920029 0.0215547 0)
(0.00338742 0.233981 0)
(0.00921163 0.228419 0)
(0.0146745 0.225594 0)
(0.0202799 0.223163 0)
(0.0256468 0.219815 0)
(0.0309657 0.215547 0)
(0.0361607 0.210403 0)
(0.0412435 0.204425 0)
(0.0462591 0.197625 0)
(0.0510472 0.190083 0)
(0.0555752 0.181789 0)
(0.0597582 0.172696 0)
(0.0634469 0.162717 0)
(0.0666435 0.151864 0)
(0.0693507 0.140192 0)
(0.0715274 0.127675 0)
(0.0732226 0.114421 0)
(0.0745959 0.100608 0)
(0.075709 0.0861485 0)
(0.0762945 0.0710913 0)
(0.0763247 0.0554127 0)
(0.075811 0.0388637 0)
(0.0748371 0.0219723 0)
(0.00295155 0.228068 0)
(0.00763407 0.22268 0)
(0.0118481 0.219725 0)
(0.016292 0.217191 0)
(0.0204719 0.213858 0)
(0.0247215 0.209757 0)
(0.0287589 0.204803 0)
(0.0327059 0.19908 0)
(0.0364803 0.192631 0)
(0.0401912 0.18544 0)
(0.0438029 0.177534 0)
(0.047273 0.168845 0)
(0.0505497 0.159371 0)
(0.0535214 0.149115 0)
(0.0561382 0.138078 0)
(0.0583147 0.126244 0)
(0.0599758 0.113646 0)
(0.0610978 0.100244 0)
(0.0615813 0.0860664 0)
(0.0615813 0.0713194 0)
(0.0612494 0.0560017 0)
(0.0604701 0.0402701 0)
(0.0588236 0.0239159 0)
(0.00254881 0.223236 0)
(0.00558649 0.21939 0)
(0.0076018 0.217214 0)
(0.00998966 0.214969 0)
(0.0121629 0.211779 0)
(0.0146141 0.207735 0)
(0.0169648 0.20277 0)
(0.0193754 0.196959 0)
(0.0217903 0.190343 0)
(0.024258 0.182917 0)
(0.0267646 0.174757 0)
(0.0293262 0.165939 0)
(0.0318974 0.156443 0)
(0.0344027 0.146252 0)
(0.0368433 0.135343 0)
(0.0391471 0.12378 0)
(0.0411751 0.111522 0)
(0.0428467 0.0986283 0)
(0.044061 0.085118 0)
(0.0447146 0.0710481 0)
(0.0446525 0.0563984 0)
(0.043846 0.0411248 0)
(0.0422511 0.0253372 0)
(0.00167857 0.219777 0)
(0.00267332 0.217141 0)
(0.003068 0.214419 0)
(0.00422958 0.211543 0)
(0.00509703 0.208096 0)
(0.00631545 0.20398 0)
(0.00754333 0.199122 0)
(0.00888841 0.193495 0)
(0.0103412 0.187078 0)
(0.0118711 0.17988 0)
(0.013517 0.171964 0)
(0.0152769 0.163386 0)
(0.017107 0.15412 0)
(0.0189506 0.144099 0)
(0.020781 0.133432 0)
(0.0225148 0.122126 0)
(0.0241356 0.110252 0)
(0.0256071 0.0978555 0)
(0.026813 0.0849076 0)
(0.0276447 0.0714474 0)
(0.0279984 0.0576109 0)
(0.0277251 0.0433846 0)
(0.026586 0.028352 0)
(0.000660664 0.218897 0)
(6.55689e-05 0.21886 0)
(-0.00183111 0.216954 0)
(-0.00322561 0.214076 0)
(-0.00478458 0.210459 0)
(-0.00592542 0.205953 0)
(-0.00689364 0.200677 0)
(-0.00762503 0.194589 0)
(-0.00813906 0.187707 0)
(-0.00846071 0.180055 0)
(-0.0085688 0.171672 0)
(-0.00846228 0.162608 0)
(-0.00813531 0.152895 0)
(-0.00760994 0.142536 0)
(-0.00690073 0.131564 0)
(-0.00603193 0.120041 0)
(-0.00505695 0.10799 0)
(-0.00398811 0.0954631 0)
(-0.00289003 0.0825386 0)
(-0.00185604 0.0692627 0)
(-0.000914397 0.0557559 0)
(-0.000202859 0.0420918 0)
(0.000240826 0.0281431 0)
)
;

boundaryField
{
    leftWall
    {
        type            fixedValue;
        value           uniform (0 0 0);
    }
    rightWall
    {
        type            fixedValue;
        value           nonuniform 0();
    }
    lowerWall
    {
        type            fixedValue;
        value           nonuniform 0();
    }
    atmosphere
    {
        type            fluxCorrectedVelocity;
        value           nonuniform List<vector> 
23
(
(0.000660664 0.218895 0)
(6.55689e-05 0.21886 0)
(-0.00183111 0.216953 0)
(-0.00322561 0.214075 0)
(-0.00478458 0.210459 0)
(-0.00592542 0.205954 0)
(-0.00689364 0.200678 0)
(-0.00762503 0.194591 0)
(-0.00813906 0.187711 0)
(-0.00846071 0.18006 0)
(-0.0085688 0.171678 0)
(-0.00846228 0.162615 0)
(-0.00813531 0.152904 0)
(-0.00760994 0.142547 0)
(-0.00690073 0.131576 0)
(-0.00603193 0.120054 0)
(-0.00505695 0.108003 0)
(-0.00398811 0.0954777 0)
(-0.00289003 0.0825537 0)
(-0.00185604 0.069278 0)
(-0.000914397 0.0557708 0)
(-0.000202859 0.0421046 0)
(0.000240826 0.0281572 0)
)
;
    }
    defaultFaces
    {
        type            empty;
    }
    procBoundary2to0
    {
        type            processor;
        value           nonuniform List<vector> 
24
(
(0.488414 0.484881 0)
(0.605891 0.480667 0)
(0.722771 0.457837 0)
(0.947708 0.484374 0)
(1.0026 0.373381 0)
(1.0969 0.210965 0)
(1.25387 0.173628 0)
(0.0612604 0.796165 0)
(0.139589 0.711031 0)
(0.176393 0.545601 0)
(0.181266 0.453857 0)
(0.157695 0.430447 0)
(0.156411 0.442891 0)
(0.157692 0.450993 0)
(0.166281 0.477344 0)
(0.213869 0.512666 0)
(0.27985 0.520591 0)
(0.338495 0.496818 0)
(0.347995 0.451449 0)
(0.339546 0.434112 0)
(0.344874 0.426237 0)
(0.362779 0.417659 0)
(0.400175 0.40819 0)
(0.400175 0.40819 0)
)
;
    }
    procBoundary2to3
    {
        type            processor;
        value           nonuniform List<vector> 
25
(
(1.07388 0.0236314 0)
(0.772199 -0.0146436 0)
(0.558136 0.00219377 0)
(0.44975 0.0265817 0)
(0.407063 0.0392531 0)
(0.384832 0.0450265 0)
(0.366924 0.0412928 0)
(0.346492 0.0358417 0)
(0.323986 0.0306527 0)
(0.300463 0.0259194 0)
(0.276736 0.0218057 0)
(0.25348 0.0181947 0)
(0.230917 0.0151518 0)
(0.209028 0.0126381 0)
(0.187826 0.0106835 0)
(0.167332 0.00926856 0)
(0.147498 0.00837366 0)
(0.128295 0.00795496 0)
(0.10969 0.00804076 0)
(0.0915619 0.00859641 0)
(0.0740059 0.00937438 0)
(0.0572202 0.0113712 0)
(0.0408143 0.0132365 0)
(0.0249729 0.0167076 0)
(2.53083e-05 0.0172496 0)
)
;
    }
}


// ************************************************************************* //
