/*--------------------------------*- C++ -*----------------------------------*\
| =========                 |                                                 |
| \\      /  F ield         | OpenFOAM: The Open Source CFD Toolbox           |
|  \\    /   O peration     | Version:  2.4.0                                 |
|   \\  /    A nd           | Web:      www.OpenFOAM.org                      |
|    \\/     M anipulation  |                                                 |
\*---------------------------------------------------------------------------*/
FoamFile
{
    version     2.0;
    format      ascii;
    class       volVectorField;
    location    "0.9";
    object      U.mercury;
}
// * * * * * * * * * * * * * * * * * * * * * * * * * * * * * * * * * * * * * //

dimensions      [0 1 -1 0 0 0 0];

internalField   nonuniform List<vector> 
559
(
(0.459778 0.398435 0)
(0.53659 0.368339 0)
(0.617249 0.316927 0)
(0.747131 0.336608 0)
(0.837916 0.259138 0)
(0.912705 0.0854541 0)
(1.00286 0.034784 0)
(0.0606392 0.69692 0)
(0.121552 0.644198 0)
(0.174326 0.528609 0)
(0.17401 0.460253 0)
(0.159542 0.440468 0)
(0.161112 0.44113 0)
(0.166401 0.444277 0)
(0.176482 0.455771 0)
(0.208235 0.467163 0)
(0.25168 0.469503 0)
(0.29422 0.460748 0)
(0.315445 0.442226 0)
(0.328569 0.42977 0)
(0.346032 0.410123 0)
(0.36954 0.389669 0)
(0.400985 0.365232 0)
(0.444486 0.341317 0)
(0.494415 0.299624 0)
(0.545482 0.253736 0)
(0.607975 0.243432 0)
(0.688777 0.170553 0)
(0.737104 0.0453109 0)
(0.756337 -0.00238974 0)
(0.050141 0.615022 0)
(0.0986044 0.584875 0)
(0.150553 0.507471 0)
(0.153785 0.462784 0)
(0.153717 0.442211 0)
(0.159122 0.438014 0)
(0.168135 0.434225 0)
(0.182038 0.436945 0)
(0.20706 0.436395 0)
(0.236481 0.434864 0)
(0.269342 0.431432 0)
(0.295763 0.419818 0)
(0.320571 0.406486 0)
(0.347131 0.38501 0)
(0.374043 0.361816 0)
(0.402922 0.331934 0)
(0.43534 0.302065 0)
(0.466427 0.258838 0)
(0.497889 0.221002 0)
(0.527621 0.193761 0)
(0.578275 0.121167 0)
(0.582615 0.0344663 0)
(0.572059 0.00514591 0)
(0.0362356 0.552288 0)
(0.0776878 0.535057 0)
(0.12139 0.483915 0)
(0.13304 0.454904 0)
(0.143047 0.437087 0)
(0.153505 0.429334 0)
(0.16494 0.420613 0)
(0.180585 0.417846 0)
(0.201757 0.412688 0)
(0.224703 0.408133 0)
(0.252387 0.403281 0)
(0.280282 0.393628 0)
(0.307863 0.377743 0)
(0.336935 0.357433 0)
(0.363159 0.333079 0)
(0.391112 0.30459 0)
(0.415962 0.275702 0)
(0.435954 0.23638 0)
(0.454496 0.200548 0)
(0.472109 0.165157 0)
(0.497038 0.106894 0)
(0.486787 0.0526219 0)
(0.466125 0.0316838 0)
(0.0256459 0.504743 0)
(0.0615593 0.49311 0)
(0.0979445 0.460117 0)
(0.11465 0.439911 0)
(0.129146 0.424374 0)
(0.143786 0.414915 0)
(0.157902 0.405821 0)
(0.174174 0.399697 0)
(0.193036 0.391905 0)
(0.2132 0.384513 0)
(0.236365 0.376722 0)
(0.262658 0.365415 0)
(0.288596 0.348839 0)
(0.314612 0.329274 0)
(0.339005 0.305725 0)
(0.361506 0.279119 0)
(0.382581 0.253336 0)
(0.399199 0.21872 0)
(0.415179 0.184339 0)
(0.42692 0.147824 0)
(0.438374 0.104183 0)
(0.430219 0.0674207 0)
(0.41702 0.0517405 0)
(0.0195191 0.467036 0)
(0.0503676 0.457594 0)
(0.0814165 0.436139 0)
(0.100658 0.421554 0)
(0.117919 0.408918 0)
(0.134345 0.399533 0)
(0.150175 0.390125 0)
(0.167143 0.382233 0)
(0.185074 0.373394 0)
(0.204061 0.364122 0)
(0.224303 0.353205 0)
(0.247585 0.340375 0)
(0.270698 0.324671 0)
(0.293152 0.305936 0)
(0.314187 0.283473 0)
(0.333259 0.25885 0)
(0.351594 0.233145 0)
(0.367546 0.202644 0)
(0.379933 0.171051 0)
(0.388456 0.138706 0)
(0.396252 0.105201 0)
(0.389756 0.0766104 0)
(0.389443 0.0598258 0)
(0.0158689 0.436104 0)
(0.0422311 0.427472 0)
(0.069312 0.41308 0)
(0.0891816 0.402149 0)
(0.107513 0.391664 0)
(0.124662 0.382511 0)
(0.141355 0.373095 0)
(0.158486 0.364375 0)
(0.176077 0.354886 0)
(0.194497 0.345041 0)
(0.213374 0.333215 0)
(0.233204 0.31918 0)
(0.253014 0.30341 0)
(0.272832 0.28532 0)
(0.291616 0.265103 0)
(0.308361 0.241643 0)
(0.324297 0.217277 0)
(0.33745 0.18977 0)
(0.348748 0.162081 0)
(0.357078 0.131119 0)
(0.36401 0.102379 0)
(0.361099 0.0789996 0)
(0.366577 0.0587361 0)
(0.0135236 0.409354 0)
(0.0365014 0.40121 0)
(0.0604327 0.39094 0)
(0.079899 0.382425 0)
(0.0982827 0.373668 0)
(0.115645 0.365196 0)
(0.132464 0.356134 0)
(0.149297 0.347082 0)
(0.166427 0.337093 0)
(0.183971 0.326762 0)
(0.201814 0.31458 0)
(0.219022 0.300391 0)
(0.236608 0.284371 0)
(0.253328 0.26712 0)
(0.270004 0.247027 0)
(0.285667 0.225477 0)
(0.300036 0.20293 0)
(0.312393 0.178109 0)
(0.322682 0.151519 0)
(0.329828 0.12433 0)
(0.335131 0.101233 0)
(0.336925 0.0768415 0)
(0.345001 0.0524985 0)
(0.0118723 0.386296 0)
(0.0322824 0.378559 0)
(0.0536603 0.370756 0)
(0.0721312 0.363864 0)
(0.0897079 0.356233 0)
(0.106547 0.348168 0)
(0.122912 0.339385 0)
(0.139085 0.33019 0)
(0.155272 0.320023 0)
(0.171549 0.309049 0)
(0.187948 0.297441 0)
(0.204527 0.283646 0)
(0.220628 0.268505 0)
(0.236257 0.251205 0)
(0.251093 0.232028 0)
(0.264255 0.211984 0)
(0.276153 0.189941 0)
(0.287164 0.167505 0)
(0.296307 0.143684 0)
(0.303453 0.118502 0)
(0.310648 0.0946944 0)
(0.315117 0.071993 0)
(0.321695 0.0486479 0)
(0.010606 0.365347 0)
(0.0290072 0.358009 0)
(0.0484009 0.351747 0)
(0.065819 0.345981 0)
(0.0825437 0.339287 0)
(0.0986543 0.331778 0)
(0.114349 0.323455 0)
(0.129731 0.314381 0)
(0.145059 0.304268 0)
(0.160121 0.293503 0)
(0.175265 0.28151 0)
(0.189972 0.267847 0)
(0.204042 0.252966 0)
(0.218079 0.236642 0)
(0.230855 0.21884 0)
(0.243191 0.199201 0)
(0.254701 0.178994 0)
(0.264691 0.157262 0)
(0.274054 0.134699 0)
(0.280525 0.111835 0)
(0.286469 0.0897983 0)
(0.291544 0.0667327 0)
(0.298065 0.0429694 0)
(0.00948653 0.346706 0)
(0.0260742 0.33967 0)
(0.0436243 0.334287 0)
(0.0598385 0.329213 0)
(0.0755646 0.323164 0)
(0.0907599 0.31619 0)
(0.10554 0.308237 0)
(0.119972 0.299388 0)
(0.134242 0.289568 0)
(0.148158 0.27898 0)
(0.162144 0.267232 0)
(0.175789 0.254173 0)
(0.188981 0.239395 0)
(0.20166 0.223635 0)
(0.213529 0.206444 0)
(0.224607 0.188319 0)
(0.234356 0.168855 0)
(0.24298 0.148777 0)
(0.251041 0.127863 0)
(0.257524 0.105475 0)
(0.264069 0.0834276 0)
(0.26912 0.0614561 0)
(0.274504 0.0386792 0)
(0.00858759 0.329679 0)
(0.023758 0.322933 0)
(0.039801 0.318208 0)
(0.0548521 0.31368 0)
(0.0695052 0.308131 0)
(0.0837451 0.301591 0)
(0.0975698 0.293973 0)
(0.111033 0.285357 0)
(0.12418 0.275749 0)
(0.137062 0.265179 0)
(0.149759 0.253655 0)
(0.162023 0.240936 0)
(0.173816 0.226936 0)
(0.185098 0.211778 0)
(0.195592 0.195501 0)
(0.205351 0.178023 0)
(0.214563 0.159418 0)
(0.222835 0.139943 0)
(0.230513 0.119987 0)
(0.236738 0.0995478 0)
(0.242238 0.0785463 0)
(0.246764 0.0568212 0)
(0.251514 0.0345462 0)
(0.00774859 0.314365 0)
(0.0215571 0.3078 0)
(0.0361531 0.30352 0)
(0.049975 0.299391 0)
(0.0634661 0.294264 0)
(0.0766566 0.288094 0)
(0.0894978 0.280865 0)
(0.102018 0.272643 0)
(0.11419 0.263431 0)
(0.126068 0.253214 0)
(0.137618 0.242041 0)
(0.148878 0.229773 0)
(0.159648 0.21625 0)
(0.169885 0.201657 0)
(0.17939 0.18604 0)
(0.18829 0.16922 0)
(0.196481 0.151615 0)
(0.203669 0.13312 0)
(0.210261 0.113942 0)
(0.215914 0.0938546 0)
(0.221106 0.073498 0)
(0.225252 0.0526202 0)
(0.229257 0.0311161 0)
(0.00703686 0.300298 0)
(0.0196434 0.293837 0)
(0.0329336 0.289843 0)
(0.0456156 0.286007 0)
(0.0580144 0.28118 0)
(0.0701633 0.275287 0)
(0.0819933 0.26836 0)
(0.0934996 0.260447 0)
(0.104645 0.251527 0)
(0.115465 0.241627 0)
(0.125906 0.230741 0)
(0.136063 0.218927 0)
(0.145696 0.205997 0)
(0.154836 0.192 0)
(0.163445 0.177 0)
(0.171439 0.160889 0)
(0.178756 0.143875 0)
(0.185354 0.126176 0)
(0.191224 0.107879 0)
(0.196295 0.0888853 0)
(0.200725 0.0692933 0)
(0.204332 0.0490015 0)
(0.207664 0.0281687 0)
(0.00633154 0.287658 0)
(0.0178143 0.281401 0)
(0.0298845 0.277661 0)
(0.0414732 0.2741 0)
(0.0528147 0.269572 0)
(0.0639251 0.263993 0)
(0.0747284 0.257385 0)
(0.0852231 0.249789 0)
(0.095404 0.241198 0)
(0.10523 0.231648 0)
(0.11466 0.221116 0)
(0.12373 0.209616 0)
(0.132359 0.197063 0)
(0.140511 0.183528 0)
(0.148175 0.169141 0)
(0.155252 0.153755 0)
(0.161718 0.137488 0)
(0.167562 0.120559 0)
(0.172656 0.102888 0)
(0.177144 0.0844734 0)
(0.180998 0.0654975 0)
(0.184122 0.045898 0)
(0.186781 0.0257608 0)
(0.00570264 0.276101 0)
(0.0161057 0.269805 0)
(0.0270272 0.266203 0)
(0.0375584 0.262848 0)
(0.0478715 0.258564 0)
(0.0579691 0.253263 0)
(0.0677716 0.247 0)
(0.0772524 0.239761 0)
(0.0863964 0.231546 0)
(0.095223 0.222345 0)
(0.103694 0.212209 0)
(0.111812 0.201134 0)
(0.11956 0.189148 0)
(0.126845 0.176201 0)
(0.13364 0.162321 0)
(0.139854 0.147418 0)
(0.145429 0.131684 0)
(0.150406 0.115306 0)
(0.154827 0.0983189 0)
(0.158722 0.0806403 0)
(0.16197 0.062346 0)
(0.164552 0.0433951 0)
(0.16658 0.0239131 0)
(0.00509373 0.265799 0)
(0.0145512 0.259599 0)
(0.0244122 0.256216 0)
(0.0339441 0.253061 0)
(0.0432446 0.248987 0)
(0.0523394 0.24395 0)
(0.0611361 0.237911 0)
(0.0696375 0.230912 0)
(0.0778059 0.222992 0)
(0.0856525 0.214119 0)
(0.0931707 0.204304 0)
(0.1003 0.193589 0)
(0.107047 0.181934 0)
(0.113402 0.169354 0)
(0.119324 0.15601 0)
(0.124773 0.141879 0)
(0.129718 0.126902 0)
(0.134091 0.111103 0)
(0.137791 0.0945557 0)
(0.140942 0.0774017 0)
(0.143558 0.0597195 0)
(0.145601 0.0414266 0)
(0.147028 0.0225799 0)
(0.0045531 0.256425 0)
(0.0130543 0.250203 0)
(0.0218989 0.246856 0)
(0.0304595 0.243888 0)
(0.0387851 0.240047 0)
(0.0469394 0.235267 0)
(0.0548225 0.229598 0)
(0.0624293 0.223001 0)
(0.0697137 0.215457 0)
(0.076656 0.206969 0)
(0.083231 0.197521 0)
(0.0893935 0.187128 0)
(0.0951648 0.175793 0)
(0.100585 0.163648 0)
(0.105608 0.15067 0)
(0.110178 0.136843 0)
(0.114272 0.12227 0)
(0.117899 0.107199 0)
(0.121137 0.0915161 0)
(0.12382 0.0750082 0)
(0.125816 0.0577867 0)
(0.127278 0.0399977 0)
(0.128132 0.0217325 0)
(0.00404711 0.248079 0)
(0.0117011 0.241926 0)
(0.0194752 0.238818 0)
(0.0271017 0.23604 0)
(0.0344852 0.232379 0)
(0.0417344 0.227826 0)
(0.0487752 0.222401 0)
(0.0555763 0.216062 0)
(0.0621015 0.208757 0)
(0.0682791 0.2006 0)
(0.0740821 0.191573 0)
(0.079509 0.181661 0)
(0.0845673 0.170863 0)
(0.089114 0.159148 0)
(0.0931689 0.146568 0)
(0.0967432 0.13319 0)
(0.0998722 0.119084 0)
(0.102627 0.104144 0)
(0.104912 0.0885658 0)
(0.106805 0.0726825 0)
(0.108449 0.0563023 0)
(0.109502 0.0391739 0)
(0.10984 0.0214412 0)
(0.00364381 0.240727 0)
(0.0103708 0.234512 0)
(0.0172084 0.231397 0)
(0.0238697 0.228769 0)
(0.0302947 0.225269 0)
(0.0365945 0.220892 0)
(0.0427315 0.215622 0)
(0.0486762 0.209528 0)
(0.0543414 0.202654 0)
(0.0597258 0.194919 0)
(0.0647423 0.186289 0)
(0.0693319 0.176736 0)
(0.0735258 0.1663 0)
(0.0773431 0.155058 0)
(0.0808031 0.143028 0)
(0.0838619 0.130247 0)
(0.0865426 0.116671 0)
(0.0885763 0.102344 0)
(0.0900425 0.0873563 0)
(0.0911497 0.0715138 0)
(0.0916655 0.055133 0)
(0.0920438 0.03858 0)
(0.0920005 0.0215555 0)
(0.00338735 0.233977 0)
(0.00921144 0.228415 0)
(0.0146742 0.225589 0)
(0.0202795 0.223159 0)
(0.0256464 0.219811 0)
(0.0309652 0.215543 0)
(0.0361601 0.210399 0)
(0.041243 0.204421 0)
(0.0462585 0.197622 0)
(0.0510466 0.190079 0)
(0.0555747 0.181785 0)
(0.0597579 0.172693 0)
(0.0634466 0.162714 0)
(0.0666433 0.151861 0)
(0.0693504 0.140189 0)
(0.0715267 0.127673 0)
(0.0732213 0.114419 0)
(0.0745937 0.100607 0)
(0.0757063 0.0861475 0)
(0.0762914 0.0710909 0)
(0.0763218 0.0554128 0)
(0.0758084 0.0388641 0)
(0.074835 0.0219731 0)
(0.00295151 0.228064 0)
(0.00763393 0.222676 0)
(0.0118479 0.21972 0)
(0.0162917 0.217187 0)
(0.0204716 0.213854 0)
(0.0247211 0.209753 0)
(0.0287585 0.204799 0)
(0.0327055 0.199076 0)
(0.0364798 0.192627 0)
(0.0401908 0.185437 0)
(0.0438026 0.177531 0)
(0.0472726 0.168842 0)
(0.0505495 0.159368 0)
(0.0535213 0.149112 0)
(0.0561383 0.138075 0)
(0.0583147 0.126241 0)
(0.0599749 0.113644 0)
(0.0610962 0.100242 0)
(0.0615791 0.0860656 0)
(0.0615788 0.071319 0)
(0.0612469 0.0560018 0)
(0.0604679 0.0402707 0)
(0.0588219 0.0239168 0)
(0.00254876 0.223232 0)
(0.00558637 0.219385 0)
(0.00760163 0.21721 0)
(0.00998944 0.214965 0)
(0.0121626 0.211775 0)
(0.0146138 0.207731 0)
(0.0169645 0.202766 0)
(0.0193751 0.196955 0)
(0.02179 0.19034 0)
(0.0242577 0.182913 0)
(0.0267643 0.174753 0)
(0.029326 0.165936 0)
(0.0318973 0.15644 0)
(0.034403 0.146249 0)
(0.0368437 0.13534 0)
(0.0391472 0.123777 0)
(0.0411748 0.11152 0)
(0.0428457 0.0986263 0)
(0.0440594 0.0851166 0)
(0.0447126 0.0710473 0)
(0.0446505 0.0563982 0)
(0.0438442 0.0411251 0)
(0.0422497 0.0253381 0)
(0.00167854 0.219772 0)
(0.00267324 0.217137 0)
(0.0030679 0.214415 0)
(0.00422944 0.211539 0)
(0.00509687 0.208092 0)
(0.00631527 0.203976 0)
(0.00754313 0.199118 0)
(0.00888821 0.193491 0)
(0.010341 0.187074 0)
(0.0118709 0.179877 0)
(0.0135168 0.171961 0)
(0.0152768 0.163383 0)
(0.0171071 0.154117 0)
(0.0189509 0.144096 0)
(0.0207814 0.133429 0)
(0.0225151 0.122123 0)
(0.0241355 0.110248 0)
(0.0256065 0.0978525 0)
(0.0268119 0.084905 0)
(0.0276434 0.0714456 0)
(0.0279971 0.0576099 0)
(0.0277241 0.0433844 0)
(0.0265853 0.0283524 0)
(0.000660654 0.218892 0)
(6.55426e-05 0.218856 0)
(-0.00183115 0.21695 0)
(-0.00322566 0.214072 0)
(-0.00478463 0.210455 0)
(-0.00592548 0.20595 0)
(-0.00689371 0.200673 0)
(-0.00762511 0.194585 0)
(-0.00813914 0.187703 0)
(-0.00846077 0.180052 0)
(-0.00856886 0.171669 0)
(-0.00846231 0.162604 0)
(-0.00813529 0.152892 0)
(-0.00760983 0.142533 0)
(-0.00690058 0.131561 0)
(-0.00603184 0.120037 0)
(-0.00505702 0.107985 0)
(-0.00398835 0.0954592 0)
(-0.00289041 0.0825353 0)
(-0.00185649 0.0692602 0)
(-0.000914834 0.0557543 0)
(-0.000203208 0.042091 0)
(0.000240702 0.028143 0)
)
;

boundaryField
{
    leftWall
    {
        type            fixedValue;
        value           uniform (0 0 0);
    }
    rightWall
    {
        type            fixedValue;
        value           nonuniform 0();
    }
    lowerWall
    {
        type            fixedValue;
        value           nonuniform 0();
    }
    atmosphere
    {
        type            fluxCorrectedVelocity;
        value           nonuniform List<vector> 
23
(
(0.000660654 0.218895 0)
(6.55426e-05 0.21886 0)
(-0.00183115 0.216953 0)
(-0.00322566 0.214075 0)
(-0.00478463 0.210459 0)
(-0.00592548 0.205954 0)
(-0.00689371 0.200678 0)
(-0.00762511 0.194591 0)
(-0.00813914 0.187711 0)
(-0.00846077 0.18006 0)
(-0.00856886 0.171678 0)
(-0.00846231 0.162615 0)
(-0.00813529 0.152904 0)
(-0.00760983 0.142547 0)
(-0.00690058 0.131576 0)
(-0.00603184 0.120054 0)
(-0.00505702 0.108003 0)
(-0.00398835 0.0954777 0)
(-0.00289041 0.0825537 0)
(-0.00185649 0.069278 0)
(-0.000914834 0.0557708 0)
(-0.000203208 0.0421046 0)
(0.000240702 0.0281572 0)
)
;
    }
    defaultFaces
    {
        type            empty;
    }
    procBoundary2to0
    {
        type            processor;
        value           nonuniform List<vector> 
24
(
(0.488406 0.484863 0)
(0.605878 0.480651 0)
(0.722746 0.457822 0)
(0.947661 0.484365 0)
(1.00248 0.373425 0)
(1.09678 0.211037 0)
(1.25378 0.173792 0)
(0.0612598 0.796156 0)
(0.139587 0.711023 0)
(0.176392 0.545594 0)
(0.181265 0.453851 0)
(0.157695 0.430441 0)
(0.156411 0.442884 0)
(0.157692 0.450985 0)
(0.166281 0.477335 0)
(0.213868 0.512657 0)
(0.27985 0.520582 0)
(0.338495 0.496808 0)
(0.347995 0.451438 0)
(0.339546 0.434101 0)
(0.344875 0.426225 0)
(0.362777 0.417646 0)
(0.400171 0.408176 0)
(0.400171 0.408176 0)
)
;
    }
    procBoundary2to3
    {
        type            processor;
        value           nonuniform List<vector> 
25
(
(1.07385 0.0236509 0)
(0.772181 -0.0146431 0)
(0.558118 0.00219151 0)
(0.449734 0.0265786 0)
(0.407048 0.03925 0)
(0.384818 0.0450253 0)
(0.366912 0.0412926 0)
(0.34648 0.0358421 0)
(0.323975 0.0306534 0)
(0.300453 0.0259205 0)
(0.276728 0.021807 0)
(0.253472 0.0181962 0)
(0.230911 0.0151533 0)
(0.209023 0.0126397 0)
(0.187821 0.010685 0)
(0.167328 0.00926996 0)
(0.147494 0.00837499 0)
(0.128292 0.00795617 0)
(0.109687 0.00804194 0)
(0.0915598 0.00859752 0)
(0.0740042 0.00937549 0)
(0.057219 0.0113724 0)
(0.0408133 0.0132376 0)
(0.0249723 0.0167084 0)
(2.50995e-05 0.0172495 0)
)
;
    }
}


// ************************************************************************* //
