/*--------------------------------*- C++ -*----------------------------------*\
| =========                 |                                                 |
| \\      /  F ield         | OpenFOAM: The Open Source CFD Toolbox           |
|  \\    /   O peration     | Version:  2.4.0                                 |
|   \\  /    A nd           | Web:      www.OpenFOAM.org                      |
|    \\/     M anipulation  |                                                 |
\*---------------------------------------------------------------------------*/
FoamFile
{
    version     2.0;
    format      ascii;
    class       volVectorField;
    location    "0.9";
    object      U.oil;
}
// * * * * * * * * * * * * * * * * * * * * * * * * * * * * * * * * * * * * * //

dimensions      [0 1 -1 0 0 0 0];

internalField   nonuniform List<vector> 
559
(
(0.459484 0.39786 0)
(0.536216 0.367638 0)
(0.616276 0.315485 0)
(0.745931 0.335749 0)
(0.835362 0.261044 0)
(0.906846 0.0872962 0)
(1.00239 0.0511755 0)
(0.0605938 0.695859 0)
(0.121466 0.643624 0)
(0.174246 0.528216 0)
(0.173992 0.460144 0)
(0.159542 0.440453 0)
(0.161112 0.441129 0)
(0.166398 0.444265 0)
(0.17648 0.455756 0)
(0.208233 0.467139 0)
(0.251672 0.469455 0)
(0.294194 0.460581 0)
(0.315425 0.442006 0)
(0.328548 0.429622 0)
(0.345968 0.409907 0)
(0.369313 0.389129 0)
(0.400583 0.364304 0)
(0.444003 0.340235 0)
(0.493918 0.298723 0)
(0.544955 0.252945 0)
(0.607409 0.242694 0)
(0.688272 0.170172 0)
(0.734992 0.0439309 0)
(0.751929 -0.00250631 0)
(0.0501285 0.614479 0)
(0.0985795 0.584587 0)
(0.150531 0.507323 0)
(0.153784 0.462758 0)
(0.153717 0.44221 0)
(0.159122 0.438014 0)
(0.168134 0.434222 0)
(0.182038 0.436944 0)
(0.207059 0.436391 0)
(0.23648 0.434855 0)
(0.269341 0.431399 0)
(0.295758 0.419774 0)
(0.320565 0.406448 0)
(0.347094 0.384902 0)
(0.373886 0.361405 0)
(0.402407 0.330655 0)
(0.43472 0.300589 0)
(0.465746 0.25753 0)
(0.497424 0.220183 0)
(0.527247 0.193199 0)
(0.577737 0.120511 0)
(0.581692 0.0332729 0)
(0.569895 0.00363322 0)
(0.0362334 0.552063 0)
(0.0776837 0.534933 0)
(0.121389 0.483883 0)
(0.13304 0.454901 0)
(0.143047 0.437087 0)
(0.153505 0.429334 0)
(0.16494 0.420612 0)
(0.180585 0.417845 0)
(0.201756 0.412687 0)
(0.224703 0.408131 0)
(0.252387 0.403278 0)
(0.280281 0.39362 0)
(0.307859 0.377728 0)
(0.336914 0.357352 0)
(0.363043 0.332786 0)
(0.390761 0.303556 0)
(0.415433 0.274276 0)
(0.435396 0.235072 0)
(0.454118 0.199769 0)
(0.471964 0.164735 0)
(0.496824 0.106363 0)
(0.486457 0.0518721 0)
(0.465696 0.0304423 0)
(0.0256468 0.504697 0)
(0.0615597 0.493082 0)
(0.0979445 0.460114 0)
(0.11465 0.439911 0)
(0.129146 0.424374 0)
(0.143786 0.414915 0)
(0.157902 0.405821 0)
(0.174174 0.399697 0)
(0.193036 0.391904 0)
(0.2132 0.384512 0)
(0.236365 0.37672 0)
(0.262658 0.365412 0)
(0.288594 0.348829 0)
(0.314594 0.329213 0)
(0.338955 0.305473 0)
(0.361331 0.278456 0)
(0.382312 0.252395 0)
(0.398961 0.217825 0)
(0.415043 0.183778 0)
(0.426854 0.147557 0)
(0.438298 0.10387 0)
(0.430138 0.0670029 0)
(0.41697 0.0511298 0)
(0.0195191 0.46703 0)
(0.0503676 0.457592 0)
(0.0814165 0.436138 0)
(0.100658 0.421554 0)
(0.117919 0.408918 0)
(0.134345 0.399533 0)
(0.150175 0.390125 0)
(0.167142 0.382232 0)
(0.185074 0.373393 0)
(0.20406 0.364121 0)
(0.224303 0.353204 0)
(0.247585 0.340374 0)
(0.270697 0.324665 0)
(0.293143 0.305889 0)
(0.314144 0.283301 0)
(0.333209 0.25851 0)
(0.35153 0.232683 0)
(0.367479 0.202181 0)
(0.37987 0.17071 0)
(0.388415 0.138511 0)
(0.396231 0.105048 0)
(0.389739 0.0764221 0)
(0.389433 0.0595684 0)
(0.0158689 0.436104 0)
(0.0422311 0.427472 0)
(0.069312 0.41308 0)
(0.0891816 0.402149 0)
(0.107513 0.391664 0)
(0.124662 0.382511 0)
(0.141355 0.373095 0)
(0.158486 0.364375 0)
(0.176077 0.354886 0)
(0.194497 0.34504 0)
(0.213374 0.333214 0)
(0.233204 0.319179 0)
(0.253014 0.303407 0)
(0.272826 0.285293 0)
(0.291601 0.264998 0)
(0.308328 0.241463 0)
(0.324254 0.217049 0)
(0.337401 0.189515 0)
(0.348704 0.161843 0)
(0.35705 0.130963 0)
(0.363999 0.102291 0)
(0.361092 0.0789135 0)
(0.366575 0.0586157 0)
(0.0135236 0.409354 0)
(0.0365014 0.40121 0)
(0.0604327 0.39094 0)
(0.079899 0.382425 0)
(0.0982827 0.373668 0)
(0.115645 0.365196 0)
(0.132464 0.356134 0)
(0.149297 0.347082 0)
(0.166427 0.337092 0)
(0.183971 0.326761 0)
(0.201814 0.31458 0)
(0.219022 0.300391 0)
(0.236608 0.28437 0)
(0.253327 0.267108 0)
(0.269996 0.24698 0)
(0.285656 0.225387 0)
(0.300018 0.202795 0)
(0.312367 0.177933 0)
(0.32266 0.151347 0)
(0.329813 0.124213 0)
(0.335123 0.101167 0)
(0.336922 0.0767901 0)
(0.345001 0.0524478 0)
(0.0118723 0.386296 0)
(0.0322824 0.378559 0)
(0.0536603 0.370756 0)
(0.0721312 0.363864 0)
(0.0897079 0.356233 0)
(0.106547 0.348168 0)
(0.122912 0.339385 0)
(0.139085 0.33019 0)
(0.155272 0.320022 0)
(0.171549 0.309049 0)
(0.187948 0.297441 0)
(0.204527 0.283646 0)
(0.220628 0.268504 0)
(0.236257 0.251202 0)
(0.251092 0.232011 0)
(0.264251 0.211947 0)
(0.276145 0.18987 0)
(0.287152 0.167395 0)
(0.296297 0.143579 0)
(0.303446 0.118428 0)
(0.310645 0.094647 0)
(0.315116 0.0719609 0)
(0.321696 0.0486249 0)
(0.010606 0.365347 0)
(0.0290072 0.358009 0)
(0.0484009 0.351747 0)
(0.065819 0.345981 0)
(0.0825437 0.339287 0)
(0.0986543 0.331778 0)
(0.114349 0.323455 0)
(0.129731 0.314381 0)
(0.145059 0.304268 0)
(0.160121 0.293503 0)
(0.175265 0.28151 0)
(0.189972 0.267847 0)
(0.204042 0.252966 0)
(0.218079 0.236642 0)
(0.230854 0.218836 0)
(0.24319 0.199189 0)
(0.2547 0.178967 0)
(0.264688 0.157211 0)
(0.274051 0.134647 0)
(0.280523 0.111796 0)
(0.286468 0.0897716 0)
(0.291544 0.0667156 0)
(0.298065 0.0429588 0)
(0.00948653 0.346706 0)
(0.0260742 0.33967 0)
(0.0436243 0.334287 0)
(0.0598385 0.329213 0)
(0.0755646 0.323164 0)
(0.0907599 0.31619 0)
(0.10554 0.308237 0)
(0.119972 0.299388 0)
(0.134242 0.289568 0)
(0.148158 0.27898 0)
(0.162144 0.267232 0)
(0.175789 0.254173 0)
(0.188981 0.239395 0)
(0.20166 0.223635 0)
(0.213529 0.206443 0)
(0.224607 0.188316 0)
(0.234356 0.16885 0)
(0.24298 0.148762 0)
(0.25104 0.127845 0)
(0.257524 0.105459 0)
(0.264069 0.0834162 0)
(0.26912 0.0614489 0)
(0.274504 0.0386751 0)
(0.00858759 0.329679 0)
(0.023758 0.322933 0)
(0.039801 0.318208 0)
(0.0548521 0.31368 0)
(0.0695052 0.308131 0)
(0.0837451 0.301591 0)
(0.0975698 0.293973 0)
(0.111033 0.285357 0)
(0.12418 0.275749 0)
(0.137062 0.265179 0)
(0.149759 0.253655 0)
(0.162023 0.240936 0)
(0.173816 0.226936 0)
(0.185098 0.211777 0)
(0.195592 0.195501 0)
(0.205351 0.178022 0)
(0.214563 0.159418 0)
(0.222835 0.139941 0)
(0.230513 0.119984 0)
(0.236738 0.0995437 0)
(0.242238 0.0785429 0)
(0.246764 0.0568189 0)
(0.251514 0.0345449 0)
(0.00774859 0.314365 0)
(0.0215571 0.3078 0)
(0.0361531 0.30352 0)
(0.049975 0.299391 0)
(0.0634661 0.294264 0)
(0.0766566 0.288094 0)
(0.0894978 0.280865 0)
(0.102018 0.272643 0)
(0.11419 0.263431 0)
(0.126068 0.253214 0)
(0.137618 0.242041 0)
(0.148878 0.229772 0)
(0.159648 0.21625 0)
(0.169885 0.201657 0)
(0.17939 0.18604 0)
(0.18829 0.16922 0)
(0.196481 0.151614 0)
(0.203669 0.13312 0)
(0.210261 0.113942 0)
(0.215913 0.0938542 0)
(0.221106 0.0734975 0)
(0.225252 0.0526197 0)
(0.229257 0.0311158 0)
(0.00703686 0.300298 0)
(0.0196434 0.293837 0)
(0.0329336 0.289843 0)
(0.0456156 0.286007 0)
(0.0580144 0.28118 0)
(0.0701633 0.275287 0)
(0.0819933 0.26836 0)
(0.0934996 0.260447 0)
(0.104645 0.251527 0)
(0.115465 0.241627 0)
(0.125906 0.230741 0)
(0.136063 0.218927 0)
(0.145696 0.205997 0)
(0.154836 0.192 0)
(0.163445 0.177 0)
(0.171439 0.160889 0)
(0.178756 0.143875 0)
(0.185354 0.126176 0)
(0.191224 0.107878 0)
(0.196295 0.0888852 0)
(0.200725 0.0692932 0)
(0.204332 0.0490014 0)
(0.207664 0.0281686 0)
(0.00633154 0.287658 0)
(0.0178143 0.281401 0)
(0.0298845 0.277661 0)
(0.0414732 0.2741 0)
(0.0528147 0.269572 0)
(0.0639251 0.263993 0)
(0.0747284 0.257385 0)
(0.0852231 0.249789 0)
(0.095404 0.241198 0)
(0.10523 0.231648 0)
(0.11466 0.221116 0)
(0.12373 0.209616 0)
(0.132359 0.197063 0)
(0.140511 0.183528 0)
(0.148175 0.169141 0)
(0.155252 0.153755 0)
(0.161718 0.137488 0)
(0.167562 0.120559 0)
(0.172656 0.102888 0)
(0.177144 0.0844733 0)
(0.180998 0.0654975 0)
(0.184122 0.045898 0)
(0.186781 0.0257608 0)
(0.00570264 0.276101 0)
(0.0161057 0.269805 0)
(0.0270272 0.266203 0)
(0.0375584 0.262848 0)
(0.0478715 0.258564 0)
(0.0579691 0.253263 0)
(0.0677716 0.247 0)
(0.0772524 0.239761 0)
(0.0863964 0.231546 0)
(0.095223 0.222345 0)
(0.103694 0.212209 0)
(0.111812 0.201134 0)
(0.11956 0.189148 0)
(0.126845 0.176201 0)
(0.13364 0.162321 0)
(0.139854 0.147418 0)
(0.145429 0.131684 0)
(0.150406 0.115306 0)
(0.154827 0.0983189 0)
(0.158722 0.0806403 0)
(0.16197 0.062346 0)
(0.164552 0.0433951 0)
(0.16658 0.0239131 0)
(0.00509373 0.265799 0)
(0.0145512 0.259599 0)
(0.0244122 0.256216 0)
(0.0339441 0.253061 0)
(0.0432446 0.248987 0)
(0.0523394 0.24395 0)
(0.0611361 0.237911 0)
(0.0696375 0.230912 0)
(0.0778059 0.222992 0)
(0.0856525 0.214119 0)
(0.0931707 0.204304 0)
(0.1003 0.193589 0)
(0.107047 0.181934 0)
(0.113402 0.169354 0)
(0.119324 0.15601 0)
(0.124773 0.141879 0)
(0.129718 0.126902 0)
(0.134091 0.111103 0)
(0.137791 0.0945557 0)
(0.140942 0.0774017 0)
(0.143558 0.0597195 0)
(0.145601 0.0414266 0)
(0.147028 0.0225799 0)
(0.0045531 0.256425 0)
(0.0130543 0.250203 0)
(0.0218989 0.246856 0)
(0.0304595 0.243888 0)
(0.0387851 0.240047 0)
(0.0469394 0.235267 0)
(0.0548225 0.229598 0)
(0.0624293 0.223001 0)
(0.0697137 0.215457 0)
(0.076656 0.206969 0)
(0.083231 0.197521 0)
(0.0893935 0.187128 0)
(0.0951648 0.175793 0)
(0.100585 0.163648 0)
(0.105608 0.15067 0)
(0.110178 0.136843 0)
(0.114272 0.12227 0)
(0.117899 0.107199 0)
(0.121137 0.0915161 0)
(0.12382 0.0750082 0)
(0.125816 0.0577867 0)
(0.127278 0.0399977 0)
(0.128132 0.0217325 0)
(0.00404711 0.248079 0)
(0.0117011 0.241926 0)
(0.0194752 0.238818 0)
(0.0271017 0.23604 0)
(0.0344852 0.232379 0)
(0.0417344 0.227826 0)
(0.0487752 0.222401 0)
(0.0555763 0.216062 0)
(0.0621015 0.208757 0)
(0.0682791 0.2006 0)
(0.0740821 0.191573 0)
(0.079509 0.181661 0)
(0.0845673 0.170863 0)
(0.089114 0.159148 0)
(0.0931689 0.146568 0)
(0.0967432 0.13319 0)
(0.0998722 0.119084 0)
(0.102627 0.104144 0)
(0.104912 0.0885658 0)
(0.106805 0.0726825 0)
(0.108449 0.0563023 0)
(0.109502 0.0391739 0)
(0.10984 0.0214412 0)
(0.00364381 0.240727 0)
(0.0103708 0.234512 0)
(0.0172084 0.231397 0)
(0.0238697 0.228769 0)
(0.0302947 0.225269 0)
(0.0365945 0.220892 0)
(0.0427315 0.215622 0)
(0.0486762 0.209528 0)
(0.0543414 0.202654 0)
(0.0597258 0.194919 0)
(0.0647423 0.186289 0)
(0.0693319 0.176736 0)
(0.0735258 0.1663 0)
(0.0773431 0.155058 0)
(0.0808031 0.143028 0)
(0.0838619 0.130247 0)
(0.0865426 0.116671 0)
(0.0885763 0.102344 0)
(0.0900425 0.0873563 0)
(0.0911497 0.0715138 0)
(0.0916655 0.055133 0)
(0.0920438 0.03858 0)
(0.0920005 0.0215555 0)
(0.00338735 0.233977 0)
(0.00921144 0.228415 0)
(0.0146742 0.225589 0)
(0.0202795 0.223159 0)
(0.0256464 0.219811 0)
(0.0309652 0.215543 0)
(0.0361601 0.210399 0)
(0.041243 0.204421 0)
(0.0462585 0.197622 0)
(0.0510466 0.190079 0)
(0.0555747 0.181785 0)
(0.0597579 0.172693 0)
(0.0634466 0.162714 0)
(0.0666433 0.151861 0)
(0.0693504 0.140189 0)
(0.0715267 0.127673 0)
(0.0732213 0.114419 0)
(0.0745937 0.100607 0)
(0.0757063 0.0861475 0)
(0.0762914 0.0710909 0)
(0.0763218 0.0554128 0)
(0.0758084 0.0388641 0)
(0.074835 0.0219731 0)
(0.00295151 0.228064 0)
(0.00763393 0.222676 0)
(0.0118479 0.21972 0)
(0.0162917 0.217187 0)
(0.0204716 0.213854 0)
(0.0247211 0.209753 0)
(0.0287585 0.204799 0)
(0.0327055 0.199076 0)
(0.0364798 0.192627 0)
(0.0401908 0.185437 0)
(0.0438026 0.177531 0)
(0.0472726 0.168842 0)
(0.0505495 0.159368 0)
(0.0535213 0.149112 0)
(0.0561383 0.138075 0)
(0.0583147 0.126241 0)
(0.0599749 0.113644 0)
(0.0610962 0.100242 0)
(0.0615791 0.0860656 0)
(0.0615788 0.071319 0)
(0.0612469 0.0560018 0)
(0.0604679 0.0402707 0)
(0.0588219 0.0239168 0)
(0.00254876 0.223232 0)
(0.00558637 0.219385 0)
(0.00760163 0.21721 0)
(0.00998944 0.214965 0)
(0.0121626 0.211775 0)
(0.0146138 0.207731 0)
(0.0169645 0.202766 0)
(0.0193751 0.196955 0)
(0.02179 0.19034 0)
(0.0242577 0.182913 0)
(0.0267643 0.174753 0)
(0.029326 0.165936 0)
(0.0318973 0.15644 0)
(0.034403 0.146249 0)
(0.0368437 0.13534 0)
(0.0391472 0.123777 0)
(0.0411748 0.11152 0)
(0.0428457 0.0986263 0)
(0.0440594 0.0851166 0)
(0.0447126 0.0710473 0)
(0.0446505 0.0563982 0)
(0.0438442 0.0411251 0)
(0.0422497 0.0253381 0)
(0.00167854 0.219772 0)
(0.00267324 0.217137 0)
(0.0030679 0.214415 0)
(0.00422944 0.211539 0)
(0.00509687 0.208092 0)
(0.00631527 0.203976 0)
(0.00754313 0.199118 0)
(0.00888821 0.193491 0)
(0.010341 0.187074 0)
(0.0118709 0.179877 0)
(0.0135168 0.171961 0)
(0.0152768 0.163383 0)
(0.0171071 0.154117 0)
(0.0189509 0.144096 0)
(0.0207814 0.133429 0)
(0.0225151 0.122123 0)
(0.0241355 0.110248 0)
(0.0256065 0.0978525 0)
(0.0268119 0.084905 0)
(0.0276434 0.0714456 0)
(0.0279971 0.0576099 0)
(0.0277241 0.0433844 0)
(0.0265853 0.0283524 0)
(0.000660654 0.218892 0)
(6.55426e-05 0.218856 0)
(-0.00183115 0.21695 0)
(-0.00322566 0.214072 0)
(-0.00478463 0.210455 0)
(-0.00592548 0.20595 0)
(-0.00689371 0.200673 0)
(-0.00762511 0.194585 0)
(-0.00813914 0.187703 0)
(-0.00846077 0.180052 0)
(-0.00856886 0.171669 0)
(-0.00846231 0.162604 0)
(-0.00813529 0.152892 0)
(-0.00760983 0.142533 0)
(-0.00690058 0.131561 0)
(-0.00603184 0.120037 0)
(-0.00505702 0.107985 0)
(-0.00398835 0.0954592 0)
(-0.00289041 0.0825353 0)
(-0.00185649 0.0692602 0)
(-0.000914834 0.0557543 0)
(-0.000203208 0.042091 0)
(0.000240702 0.028143 0)
)
;

boundaryField
{
    leftWall
    {
        type            fixedValue;
        value           uniform (0 0 0);
    }
    rightWall
    {
        type            fixedValue;
        value           nonuniform 0();
    }
    lowerWall
    {
        type            fixedValue;
        value           nonuniform 0();
    }
    atmosphere
    {
        type            fluxCorrectedVelocity;
        value           nonuniform List<vector> 
23
(
(0.000660654 0.218895 0)
(6.55426e-05 0.21886 0)
(-0.00183115 0.216953 0)
(-0.00322566 0.214075 0)
(-0.00478463 0.210459 0)
(-0.00592548 0.205954 0)
(-0.00689371 0.200678 0)
(-0.00762511 0.194591 0)
(-0.00813914 0.187711 0)
(-0.00846077 0.18006 0)
(-0.00856886 0.171678 0)
(-0.00846231 0.162615 0)
(-0.00813529 0.152904 0)
(-0.00760983 0.142547 0)
(-0.00690058 0.131576 0)
(-0.00603184 0.120054 0)
(-0.00505702 0.108003 0)
(-0.00398835 0.0954777 0)
(-0.00289041 0.0825537 0)
(-0.00185649 0.069278 0)
(-0.000914834 0.0557708 0)
(-0.000203208 0.0421046 0)
(0.000240702 0.0281572 0)
)
;
    }
    defaultFaces
    {
        type            empty;
    }
    procBoundary2to0
    {
        type            processor;
        value           nonuniform List<vector> 
24
(
(0.488101 0.484312 0)
(0.597216 0.477947 0)
(0.668941 0.474522 0)
(0.871204 0.493972 0)
(0.90366 0.425047 0)
(1.00781 0.2824 0)
(1.21172 0.278575 0)
(0.061174 0.794609 0)
(0.139462 0.710246 0)
(0.17626 0.544927 0)
(0.181212 0.453562 0)
(0.157684 0.430371 0)
(0.15641 0.442879 0)
(0.157682 0.450956 0)
(0.166263 0.47726 0)
(0.213844 0.512566 0)
(0.279791 0.520458 0)
(0.338334 0.496414 0)
(0.34782 0.45096 0)
(0.339451 0.433743 0)
(0.344776 0.42588 0)
(0.362653 0.417162 0)
(0.39996 0.407582 0)
(0.39996 0.407582 0)
)
;
    }
    procBoundary2to3
    {
        type            processor;
        value           nonuniform List<vector> 
25
(
(1.04603 0.0624038 0)
(0.767484 -0.0132962 0)
(0.556779 0.00120054 0)
(0.449587 0.0252935 0)
(0.407058 0.0385164 0)
(0.384826 0.0446989 0)
(0.366917 0.0411344 0)
(0.346482 0.0357871 0)
(0.323976 0.030634 0)
(0.300454 0.0259123 0)
(0.276728 0.021804 0)
(0.253472 0.0181953 0)
(0.230911 0.0151531 0)
(0.209023 0.0126396 0)
(0.187821 0.010685 0)
(0.167328 0.00926996 0)
(0.147494 0.00837499 0)
(0.128292 0.00795617 0)
(0.109687 0.00804194 0)
(0.0915598 0.00859752 0)
(0.0740042 0.00937549 0)
(0.057219 0.0113724 0)
(0.0408133 0.0132376 0)
(0.0249723 0.0167084 0)
(2.50995e-05 0.0172495 0)
)
;
    }
}


// ************************************************************************* //
