/*--------------------------------*- C++ -*----------------------------------*\
| =========                 |                                                 |
| \\      /  F ield         | OpenFOAM: The Open Source CFD Toolbox           |
|  \\    /   O peration     | Version:  2.4.0                                 |
|   \\  /    A nd           | Web:      www.OpenFOAM.org                      |
|    \\/     M anipulation  |                                                 |
\*---------------------------------------------------------------------------*/
FoamFile
{
    version     2.0;
    format      ascii;
    class       volScalarField;
    location    "0.25";
    object      alpha.oil;
}
// * * * * * * * * * * * * * * * * * * * * * * * * * * * * * * * * * * * * * //

dimensions      [0 0 0 0 0 0 0];

internalField   nonuniform List<scalar> 
575
(
9.20061e-09
6.57731e-09
5.7905e-09
4.16079e-09
5.88597e-09
4.16932e-09
3.37747e-09
2.56471e-09
4.60805e-09
2.93935e-09
2.05132e-09
1.41738e-09
1.94424e-09
1.45321e-09
1.04124e-09
7.19935e-10
6.85795e-10
5.34333e-10
3.95847e-10
2.79691e-10
1.95103e-10
1.5489e-10
1.18996e-10
8.72715e-11
4.2982e-11
3.6237e-11
2.93434e-11
2.25905e-11
7.51771e-12
6.68152e-12
5.8309e-12
4.82884e-12
1.15825e-12
1.00521e-12
9.5495e-13
8.54965e-13
1.67156e-13
1.28047e-13
1.29431e-13
1.26099e-13
2.18226e-14
1.42218e-14
1.46946e-14
1.56627e-14
2.35405e-15
1.3945e-15
1.4118e-15
1.65325e-15
2.01566e-16
1.19428e-16
1.15976e-16
1.49819e-16
1.37252e-17
8.80308e-18
8.23167e-18
1.17696e-17
7.59073e-19
5.54834e-19
5.10089e-19
8.09113e-19
3.49779e-20
3.00227e-20
2.78773e-20
4.91194e-20
1.37663e-21
1.41005e-21
1.35671e-21
2.6564e-21
4.73432e-23
5.83063e-23
5.93369e-23
1.29054e-22
1.45268e-24
2.15524e-24
2.35268e-24
5.67708e-24
4.04025e-26
7.22951e-26
8.5295e-26
2.27776e-25
1.02751e-27
2.2331e-27
2.85274e-27
8.38924e-27
2.40775e-29
6.4427e-29
8.89029e-29
2.8516e-28
5.26347e-31
1.76794e-30
2.61694e-30
8.97894e-30
1.04377e-32
4.61737e-32
7.35444e-32
2.62011e-31
1.93402e-34
1.22169e-33
2.07559e-33
6.96232e-33
3.26649e-09
8.06099e-10
3.23108e-10
4.41475e-10
7.83108e-10
1.30805e-09
1.80117e-09
2.12093e-09
1.85595e-09
1.1756e-09
8.00579e-10
5.94849e-10
4.96677e-10
6.02323e-10
1.43947e-09
5.75227e-09
2.45645e-08
8.6646e-08
1.54772e-07
1.80445e-09
2.99614e-10
8.61912e-11
1.10558e-10
2.08035e-10
3.64022e-10
5.22335e-10
6.43849e-10
5.85644e-10
3.60732e-10
2.39649e-10
1.72136e-10
1.43938e-10
1.50531e-10
2.72173e-10
9.12688e-10
3.77631e-09
1.37186e-08
2.61147e-08
9.11177e-10
1.01758e-10
1.83501e-11
2.46877e-11
5.39936e-11
9.57581e-11
1.36966e-10
1.75569e-10
1.65594e-10
1.00086e-10
6.53956e-11
4.59257e-11
3.69443e-11
3.52511e-11
4.95548e-11
1.29711e-10
4.88833e-10
1.75241e-09
3.38875e-09
4.76639e-10
5.35904e-11
6.38819e-12
4.81143e-12
6.51862e-12
1.49349e-11
3.20039e-11
4.23236e-11
4.15597e-11
2.50051e-11
1.65986e-11
1.13003e-11
8.71149e-12
7.57136e-12
8.68085e-12
1.71276e-11
5.4967e-11
1.86606e-10
3.54082e-10
1.89112e-10
2.63543e-11
2.51472e-12
1.14185e-12
1.65402e-12
3.21253e-12
6.71822e-12
9.20958e-12
9.16093e-12
5.94467e-12
3.80272e-12
2.50197e-12
1.84078e-12
1.47239e-12
1.4369e-12
2.15257e-12
5.53608e-12
1.70633e-11
3.08788e-11
6.0806e-11
9.97439e-12
1.01301e-12
2.96642e-13
3.31338e-13
6.4352e-13
1.26255e-12
1.80654e-12
1.84842e-12
1.25393e-12
7.86296e-13
4.98763e-13
3.48277e-13
2.57896e-13
2.20514e-13
2.59185e-13
5.131e-13
1.37447e-12
2.31144e-12
1.61921e-11
3.07496e-12
3.67228e-13
8.2649e-14
5.97002e-14
1.10953e-13
2.13524e-13
3.19685e-13
3.37888e-13
2.36916e-13
1.46551e-13
8.95503e-14
5.91637e-14
4.06672e-14
3.09988e-14
2.96972e-14
4.46685e-14
9.96868e-14
1.51836e-13
3.67124e-12
8.02431e-13
1.12867e-13
2.28451e-14
1.05845e-14
1.67856e-14
3.2589e-14
5.10062e-14
5.58188e-14
4.02454e-14
2.46138e-14
1.45013e-14
9.05442e-15
5.78499e-15
3.97109e-15
3.2019e-15
3.6973e-15
6.62933e-15
8.90874e-15
6.9319e-13
1.79545e-13
2.90746e-14
5.81493e-15
1.93019e-15
2.29215e-15
4.49317e-15
7.34159e-15
8.33505e-15
6.15693e-15
3.7289e-15
2.12233e-15
1.25258e-15
7.44724e-16
4.63285e-16
3.21849e-16
2.92144e-16
4.10285e-16
4.73589e-16
1.09855e-13
3.42598e-14
6.3362e-15
1.31381e-15
3.58725e-16
2.91183e-16
5.60587e-16
9.54946e-16
1.12639e-15
8.49828e-16
5.10526e-16
2.81402e-16
1.57169e-16
8.7078e-17
4.93114e-17
3.00007e-17
2.20003e-17
2.3907e-17
2.30743e-17
1.47044e-14
5.57684e-15
1.18174e-15
2.60321e-16
6.50898e-17
3.55188e-17
6.35518e-17
1.12521e-16
1.38011e-16
1.06092e-16
6.33261e-17
3.38923e-17
1.79492e-17
9.28319e-18
4.80299e-18
2.58839e-18
1.57276e-18
1.32261e-18
1.04008e-18
1.68183e-15
7.78541e-16
1.90401e-16
4.51824e-17
1.10596e-17
4.27874e-18
6.59314e-18
1.20451e-17
1.53677e-17
1.20148e-17
7.13745e-18
3.71873e-18
1.87227e-18
9.05781e-19
4.29608e-19
2.06797e-19
1.06325e-19
6.98538e-20
4.37111e-20
1.66166e-16
9.39924e-17
2.67141e-17
6.89271e-18
1.71585e-18
5.16096e-19
6.32504e-19
1.1755e-18
1.55956e-18
1.23847e-18
7.33331e-19
3.72886e-19
1.79004e-19
8.11959e-20
3.54198e-20
1.53278e-20
6.78061e-21
3.53307e-21
1.72413e-21
1.43323e-17
9.90321e-18
3.28859e-18
9.29155e-19
2.40427e-19
6.19077e-20
5.69014e-20
1.05027e-19
1.44715e-19
1.16615e-19
6.89221e-20
3.42847e-20
1.57419e-20
6.71215e-21
2.70198e-21
1.05681e-21
4.07529e-22
1.71387e-22
6.4202e-23
1.08984e-18
9.19007e-19
3.57865e-19
1.11364e-19
3.03525e-20
7.23382e-21
4.88299e-21
8.63557e-21
1.23237e-20
1.00692e-20
5.9472e-21
2.90074e-21
1.27789e-21
5.13609e-22
1.91439e-22
6.7992e-23
2.30931e-23
7.97909e-24
2.26944e-24
7.37363e-20
7.57927e-20
3.4686e-20
1.19459e-20
3.4592e-21
8.05502e-22
4.06865e-22
6.57572e-22
9.67042e-22
8.00497e-22
4.7298e-22
2.26677e-22
9.61026e-23
3.65155e-23
1.2646e-23
4.09579e-24
1.23557e-24
3.56668e-25
7.65671e-26
4.47802e-21
5.60425e-21
3.01758e-21
1.15469e-21
3.57401e-22
8.41566e-23
3.33758e-23
4.6733e-23
7.02366e-23
5.88445e-23
3.48102e-23
1.64238e-23
6.72031e-24
2.42125e-24
7.81822e-25
2.31843e-25
6.25553e-26
1.53167e-26
2.47935e-27
2.46183e-22
3.74744e-22
2.37483e-22
1.01281e-22
3.36569e-23
8.18367e-24
2.71065e-24
3.12901e-24
4.7448e-24
4.01774e-24
2.38091e-24
1.10778e-24
4.38645e-25
1.50311e-25
4.54124e-26
1.23776e-26
3.00505e-27
6.3252e-28
7.75008e-29
1.23531e-23
2.28556e-23
1.7043e-23
8.11969e-24
2.90644e-24
7.39029e-25
2.17234e-25
1.99569e-25
2.99735e-25
2.55998e-25
1.52011e-25
6.9849e-26
2.68304e-26
8.77086e-27
2.48798e-27
6.25636e-28
1.37399e-28
2.51541e-29
2.35228e-30
5.70318e-25
1.28236e-24
1.12444e-24
5.99394e-25
2.31651e-25
6.20664e-26
1.70292e-26
1.22748e-26
1.78106e-26
1.52975e-26
9.10109e-27
4.13502e-27
1.54421e-27
4.82984e-28
1.29075e-28
3.00563e-29
5.99972e-30
9.65138e-31
6.97255e-32
2.44158e-26
6.67653e-26
6.87759e-26
4.10551e-26
1.7158e-26
4.86598e-27
1.29377e-27
7.37177e-28
1.00203e-27
8.61814e-28
5.13458e-28
2.30878e-28
8.39889e-29
2.52037e-29
6.36662e-30
1.37783e-30
2.51104e-31
3.58096e-32
2.02918e-33
9.7659e-28
3.25401e-27
3.93288e-27
2.62916e-27
1.18908e-27
3.57804e-28
9.45952e-29
4.36933e-29
5.37497e-29
4.60141e-29
2.7426e-29
1.22126e-29
4.33526e-30
1.25149e-30
2.99781e-31
6.05142e-32
1.01118e-32
1.28842e-33
5.82639e-35
3.6754e-29
1.49859e-28
2.12257e-28
1.5884e-28
7.77547e-29
2.48531e-29
6.64306e-30
2.57646e-30
2.77212e-30
2.34295e-30
1.39473e-30
6.1517e-31
2.13383e-31
5.9394e-32
1.35303e-32
2.55619e-33
3.93158e-34
4.50635e-35
1.65593e-36
1.31136e-30
6.56973e-30
1.0874e-29
9.09254e-30
4.81375e-30
1.63477e-30
4.4665e-31
1.51475e-31
1.38527e-31
1.1436e-31
6.78369e-32
2.96385e-32
1.00589e-32
2.70576e-33
5.87922e-34
1.04328e-34
1.48335e-35
1.5392e-36
4.68014e-38
4.4226e-32
2.78484e-31
5.38493e-31
5.01464e-31
2.86303e-31
1.03082e-31
2.89305e-32
8.88269e-33
6.76741e-33
5.38436e-33
3.17285e-33
1.37272e-33
4.56291e-34
1.18848e-34
2.46949e-35
4.12856e-36
5.44275e-37
5.13666e-38
1.31407e-39
)
;

boundaryField
{
    leftWall
    {
        type            zeroGradient;
    }
    rightWall
    {
        type            zeroGradient;
    }
    lowerWall
    {
        type            zeroGradient;
    }
    atmosphere
    {
        type            inletOutlet;
        inletValue      uniform 0;
        value           nonuniform List<scalar> 
23
(
1.93402e-34
1.22169e-33
2.07559e-33
6.96232e-33
4.4226e-32
2.78484e-31
5.38493e-31
5.01464e-31
2.86303e-31
1.03082e-31
2.89305e-32
8.88269e-33
6.76741e-33
5.38436e-33
3.17285e-33
1.37272e-33
4.56291e-34
1.18848e-34
2.46949e-35
4.12856e-36
5.44275e-37
5.13666e-38
1.31407e-39
)
;
    }
    defaultFaces
    {
        type            empty;
    }
    procBoundary3to1
    {
        type            processor;
        value           nonuniform List<scalar> 
23
(
1.76471e-08
1.72122e-08
1.35765e-08
1.03197e-08
7.8893e-09
2.3152e-09
1.0638e-09
1.55432e-09
2.65988e-09
4.23442e-09
5.58446e-09
6.2652e-09
5.1683e-09
3.63497e-09
2.51993e-09
1.77051e-09
1.56309e-09
2.30803e-09
7.13527e-09
3.12516e-08
1.31225e-07
4.31492e-07
6.6587e-07
)
;
    }
    procBoundary3to2
    {
        type            processor;
        value           nonuniform List<scalar> 
25
(
3.06865e-08
2.36204e-08
1.54874e-08
1.17341e-08
6.53727e-09
1.69341e-09
8.22867e-11
3.8102e-11
6.19572e-12
7.44974e-13
7.20293e-14
5.4566e-15
3.26586e-16
1.57654e-17
6.2869e-19
2.11985e-20
6.16765e-22
1.57504e-23
3.57669e-25
7.28384e-27
1.33387e-28
2.17768e-30
3.13875e-32
3.50623e-34
2.97469e-36
)
;
    }
}


// ************************************************************************* //
