/*--------------------------------*- C++ -*----------------------------------*\
| =========                 |                                                 |
| \\      /  F ield         | OpenFOAM: The Open Source CFD Toolbox           |
|  \\    /   O peration     | Version:  2.4.0                                 |
|   \\  /    A nd           | Web:      www.OpenFOAM.org                      |
|    \\/     M anipulation  |                                                 |
\*---------------------------------------------------------------------------*/
FoamFile
{
    version     2.0;
    format      ascii;
    class       volScalarField;
    location    "0.25";
    object      alpha.water;
}
// * * * * * * * * * * * * * * * * * * * * * * * * * * * * * * * * * * * * * //

dimensions      [0 0 0 0 0 0 0];

internalField   nonuniform List<scalar> 
575
(
6.78716e-17
6.49504e-17
5.56488e-17
6.48433e-17
8.1017e-18
9.9366e-18
1.23346e-17
1.56342e-17
1.20578e-18
1.75692e-18
2.44289e-18
3.2582e-18
1.86748e-19
2.89561e-19
4.17743e-19
5.84168e-19
2.54215e-20
4.01683e-20
6.01296e-20
8.75655e-20
2.77363e-21
4.48892e-21
7.11181e-21
1.10658e-20
2.41236e-22
4.20972e-22
7.20814e-22
1.21867e-21
1.69226e-23
3.35088e-23
6.38185e-23
1.19443e-22
1.0264e-24
2.3482e-24
5.04972e-24
1.04069e-23
5.57528e-26
1.46582e-25
3.54665e-25
8.05876e-25
2.73062e-27
8.13931e-27
2.21331e-26
5.54916e-26
1.19206e-28
4.02435e-28
1.22777e-27
3.4023e-27
4.62854e-30
1.77084e-29
6.06924e-29
1.86451e-28
1.59893e-31
6.95289e-31
2.68275e-30
9.1709e-30
4.92441e-33
2.44392e-32
1.06445e-31
4.06583e-31
1.35555e-34
7.7174e-34
3.80603e-33
1.6314e-32
3.34278e-36
2.1956e-35
1.23073e-34
5.94747e-34
7.39913e-38
5.63946e-37
3.6102e-36
1.97712e-35
1.4733e-39
1.30884e-38
9.62842e-38
6.01234e-37
2.63326e-41
2.74214e-40
2.33717e-39
1.67667e-38
4.17449e-43
5.1684e-42
5.16005e-41
4.2941e-40
5.78567e-45
8.69982e-44
1.03305e-42
1.00994e-41
6.93359e-47
1.29742e-45
1.86418e-44
2.17372e-43
6.65301e-49
1.6483e-47
2.98418e-46
4.27173e-45
5.03004e-51
1.73519e-49
4.04193e-48
7.18264e-47
7.78667e-17
1.10783e-16
1.41944e-16
1.53246e-16
1.43881e-16
1.19286e-16
7.79561e-17
4.31579e-17
1.83652e-17
6.00852e-18
1.46378e-18
3.26003e-19
5.72818e-19
4.89918e-18
4.23924e-17
3.08944e-16
1.79742e-15
7.8773e-15
1.98684e-14
1.95572e-17
2.93936e-17
3.84955e-17
4.13581e-17
3.99721e-17
3.31835e-17
2.11194e-17
1.1657e-17
4.80646e-18
1.54384e-18
3.63874e-19
7.19192e-20
7.1675e-20
5.31468e-19
4.7405e-18
3.67881e-17
2.31054e-16
1.09813e-15
2.86468e-15
4.24772e-18
6.75981e-18
9.09897e-18
9.88214e-18
9.98386e-18
8.2586e-18
5.19357e-18
2.84806e-18
1.14056e-18
3.58626e-19
8.14723e-20
1.47336e-20
8.98677e-21
5.03071e-20
4.43994e-19
3.58619e-18
2.37563e-17
1.18976e-16
3.16045e-16
7.94724e-19
1.3282e-18
1.8777e-18
2.13194e-18
2.23193e-18
1.82888e-18
1.1646e-18
6.24961e-19
2.45274e-19
7.50618e-20
1.63857e-20
2.73947e-21
1.16805e-21
4.35378e-21
3.57582e-20
2.93299e-19
2.01089e-18
1.0399e-17
2.77889e-17
1.23864e-19
2.23537e-19
3.43463e-19
4.13307e-19
4.41264e-19
3.64608e-19
2.36077e-19
1.23401e-19
4.76872e-20
1.41374e-20
2.95737e-21
4.57609e-22
1.53809e-22
3.63931e-22
2.54853e-21
2.05762e-20
1.43553e-19
7.55562e-19
2.0102e-18
1.66945e-20
3.33301e-20
5.65161e-20
7.09921e-20
7.7089e-20
6.60461e-20
4.28594e-20
2.20157e-20
8.36082e-21
2.39694e-21
4.79208e-22
6.85302e-23
1.95885e-23
3.07874e-23
1.66282e-22
1.26483e-21
8.82077e-21
4.67316e-20
1.2268e-19
1.97888e-21
4.43365e-21
8.2728e-21
1.07555e-20
1.20662e-20
1.07927e-20
6.97918e-21
3.55107e-21
1.32116e-21
3.66257e-22
6.98382e-23
9.22374e-24
2.33099e-24
2.67223e-24
1.03273e-23
6.9639e-23
4.74863e-22
2.50816e-21
6.44461e-21
2.12533e-22
5.25358e-22
1.06194e-21
1.45304e-21
1.70422e-21
1.58025e-21
1.02434e-21
5.17368e-22
1.88391e-22
5.0522e-23
9.18111e-24
1.12168e-24
2.55235e-25
2.32817e-25
6.33485e-25
3.51805e-24
2.27658e-23
1.18648e-22
2.96216e-22
2.02766e-23
5.54916e-23
1.19824e-22
1.76117e-22
2.17128e-22
2.07416e-22
1.35902e-22
6.81014e-23
2.42905e-23
6.30567e-24
1.09303e-24
1.24143e-25
2.56687e-26
1.96931e-26
3.9189e-26
1.67462e-25
9.87466e-25
5.01216e-24
1.20742e-23
1.71876e-24
5.20527e-24
1.20265e-23
1.91958e-23
2.49196e-23
2.44992e-23
1.63174e-23
8.11248e-24
2.83861e-24
7.14169e-25
1.18392e-25
1.26149e-26
2.38526e-27
1.57828e-27
2.43703e-27
7.71176e-27
3.93805e-26
1.9127e-25
4.41403e-25
1.29338e-25
4.34807e-25
1.08376e-24
1.88447e-24
2.5783e-24
2.6144e-24
1.77515e-24
8.76668e-25
3.01455e-25
7.36522e-26
1.17281e-26
1.18839e-27
2.06931e-28
1.18524e-28
1.49392e-28
3.50573e-28
1.46845e-27
6.6634e-27
1.46122e-26
8.68244e-27
3.24924e-26
8.8147e-26
1.66995e-25
2.41105e-25
2.52918e-25
1.75317e-25
8.6179e-26
2.91803e-26
6.94305e-27
1.06847e-27
1.04797e-28
1.69643e-29
8.33162e-30
8.83767e-30
1.58577e-29
5.20811e-29
2.14049e-28
4.41733e-28
5.22585e-28
2.18377e-27
6.49285e-27
1.33975e-26
2.04472e-26
2.22505e-26
1.57616e-26
7.73e-27
2.58323e-27
6.00737e-28
9.00305e-29
8.72361e-30
1.32914e-30
5.51192e-31
4.97312e-31
7.10253e-31
1.78479e-30
6.4025e-30
1.22869e-29
2.83467e-29
1.32652e-28
4.34481e-28
9.76563e-28
1.57852e-27
1.78596e-27
1.29411e-27
6.34776e-28
2.09911e-28
4.79144e-29
7.05533e-30
6.89599e-31
1.00311e-31
3.46354e-32
2.64509e-32
3.11245e-32
5.98085e-32
1.80067e-31
3.16637e-31
1.39232e-30
7.31699e-30
2.6503e-29
6.4934e-29
1.11377e-28
1.3126e-28
9.73895e-29
4.78967e-29
1.57186e-29
3.53859e-30
5.16887e-31
5.19216e-32
7.31366e-33
2.08977e-33
1.32977e-33
1.31838e-33
1.97156e-33
4.80791e-33
7.60877e-33
6.22009e-32
3.68169e-31
1.47942e-30
3.95568e-30
7.2133e-30
8.86811e-30
6.74459e-30
3.33386e-30
1.08921e-30
2.43075e-31
3.55658e-32
3.72472e-33
5.14272e-34
1.22311e-34
6.3481e-35
5.35317e-35
6.39276e-35
1.23012e-34
1.71536e-34
2.5382e-33
1.6977e-32
7.58994e-32
2.21804e-31
4.30765e-31
5.53148e-31
4.31684e-31
2.14972e-31
7.01503e-32
1.56015e-32
2.30761e-33
2.54258e-34
3.47236e-35
6.99496e-36
2.90081e-36
2.07601e-36
2.03046e-36
3.04147e-36
3.6495e-36
9.50031e-35
7.20813e-34
3.59583e-33
1.15049e-32
2.38356e-32
3.20028e-32
2.5653e-32
1.28993e-32
4.21837e-33
9.39882e-34
1.41664e-34
1.64877e-35
2.24054e-36
3.9203e-37
1.2821e-37
7.69344e-38
6.28379e-38
7.31871e-38
7.36932e-38
3.27487e-36
2.83162e-35
1.58125e-34
5.54963e-34
1.22841e-33
1.72598e-33
1.4223e-33
7.23717e-34
2.37961e-34
5.33832e-35
8.25292e-36
1.01451e-36
1.37662e-37
2.15047e-38
5.54402e-39
2.73535e-39
1.88689e-39
1.72312e-39
1.42022e-39
1.04371e-37
1.03435e-36
6.48965e-36
2.50366e-35
5.92904e-35
8.72346e-35
7.39543e-35
3.81548e-35
1.26535e-35
2.87127e-36
4.57474e-37
5.92246e-38
8.03935e-39
1.15023e-39
2.37044e-40
9.39579e-41
5.48711e-41
3.98343e-41
2.62668e-41
3.08621e-39
3.53129e-38
2.50022e-37
1.06273e-36
2.69575e-36
4.15516e-36
3.62591e-36
1.90016e-36
6.37452e-37
1.469e-37
2.41947e-38
3.2838e-39
4.4627e-40
5.97342e-41
1.00978e-41
3.14814e-42
1.54633e-42
9.06046e-43
4.6873e-43
8.49327e-41
1.13272e-39
9.09826e-39
4.27123e-38
1.16157e-37
1.87578e-37
1.68527e-37
8.98429e-38
3.05681e-38
7.178e-39
1.22394e-39
1.73251e-40
2.35782e-41
3.00154e-42
4.29928e-43
1.04113e-43
4.23764e-44
2.03067e-44
8.11614e-45
2.1764e-42
3.42732e-41
3.1453e-40
1.63617e-39
4.7755e-39
8.0803e-39
7.47518e-39
4.05895e-39
1.40368e-39
3.367e-40
5.94394e-41
8.72754e-42
1.18916e-42
1.45703e-43
1.8275e-44
3.44065e-45
1.13546e-45
4.48781e-46
1.37025e-46
5.24177e-44
9.89391e-43
1.04298e-41
6.01715e-41
1.88338e-40
3.33525e-40
3.176e-40
1.75844e-40
6.19364e-41
1.52074e-41
2.77757e-42
4.2098e-43
5.74196e-44
6.831e-45
7.72867e-46
1.15009e-46
3.00381e-47
9.81392e-48
2.27212e-48
1.12066e-45
2.65408e-44
3.29438e-43
2.13029e-42
7.17026e-42
1.32928e-41
1.30242e-41
7.35657e-42
2.64243e-42
6.64802e-43
1.25416e-43
1.9531e-44
2.66566e-45
3.09767e-46
3.2377e-47
3.91629e-48
7.91725e-49
2.12391e-49
3.7094e-50
)
;

boundaryField
{
    leftWall
    {
        type            zeroGradient;
    }
    rightWall
    {
        type            zeroGradient;
    }
    lowerWall
    {
        type            zeroGradient;
    }
    atmosphere
    {
        type            inletOutlet;
        inletValue      uniform 0;
        value           nonuniform List<scalar> 
23
(
5.03004e-51
1.73519e-49
4.04193e-48
7.18264e-47
1.12066e-45
2.65408e-44
3.29438e-43
2.13029e-42
7.17026e-42
1.32928e-41
1.30242e-41
7.35657e-42
2.64243e-42
6.64802e-43
1.25416e-43
1.9531e-44
2.66566e-45
3.09767e-46
3.2377e-47
3.91629e-48
7.91725e-49
2.12391e-49
3.7094e-50
)
;
    }
    defaultFaces
    {
        type            empty;
    }
    procBoundary3to1
    {
        type            processor;
        value           nonuniform List<scalar> 
23
(
7.34949e-16
6.0806e-16
2.19748e-16
2.20921e-16
2.61026e-16
3.63801e-16
4.56472e-16
4.96e-16
4.67321e-16
3.88173e-16
2.60044e-16
1.45423e-16
6.37098e-17
2.12408e-17
5.33157e-18
1.42098e-18
4.26702e-18
3.79495e-17
3.09113e-16
2.06485e-15
1.08039e-14
4.20151e-14
9.98998e-14
)
;
    }
    procBoundary3to2
    {
        type            processor;
        value           nonuniform List<scalar> 
25
(
3.86477e-17
4.94358e-18
6.0851e-19
7.44491e-20
9.17476e-21
9.21854e-22
7.13774e-23
4.46467e-24
2.40604e-25
1.14116e-26
4.85524e-28
1.83764e-29
6.18256e-31
1.84775e-32
4.91068e-34
1.16181e-35
2.44816e-37
4.59017e-39
7.62857e-41
1.11336e-42
1.40488e-44
1.48794e-46
1.28503e-48
7.50494e-51
2.73096e-53
)
;
    }
}


// ************************************************************************* //
