/*--------------------------------*- C++ -*----------------------------------*\
| =========                 |                                                 |
| \\      /  F ield         | OpenFOAM: The Open Source CFD Toolbox           |
|  \\    /   O peration     | Version:  2.4.0                                 |
|   \\  /    A nd           | Web:      www.OpenFOAM.org                      |
|    \\/     M anipulation  |                                                 |
\*---------------------------------------------------------------------------*/
FoamFile
{
    version     2.0;
    format      ascii;
    class       volScalarField;
    location    "0.25";
    object      p;
}
// * * * * * * * * * * * * * * * * * * * * * * * * * * * * * * * * * * * * * //

dimensions      [1 -1 -2 0 0 0 0];

internalField   nonuniform List<scalar> 
575
(
2.73369
2.72386
2.7143
2.70431
2.64295
2.63229
2.62156
2.61125
2.54743
2.53738
2.52688
2.51757
2.45002
2.44075
2.43156
2.42298
2.35027
2.34161
2.33306
2.32582
2.24856
2.24123
2.23362
2.22673
2.14467
2.13847
2.132
2.12582
2.03916
2.03375
2.02834
2.02302
1.9318
1.92716
1.9226
1.91808
1.82284
1.81886
1.81502
1.81124
1.71234
1.70894
1.70572
1.70258
1.60039
1.59751
1.59482
1.59223
1.48711
1.48469
1.48245
1.48033
1.37263
1.3706
1.36874
1.36702
1.25703
1.25534
1.25382
1.25242
1.14043
1.13905
1.1378
1.13667
1.02295
1.02182
1.0208
1.01989
0.904711
0.903754
0.90292
0.902194
0.785496
0.784828
0.784212
0.783665
0.665917
0.66537
0.664883
0.66446
0.545749
0.545339
0.544973
0.544655
0.425117
0.424823
0.424558
0.424329
0.304004
0.303833
0.30368
0.303541
0.182739
0.182647
0.182543
0.182445
0.0608099
0.0608364
0.0608601
0.0608765
2.68739
2.6607
2.63327
2.60468
2.57433
2.54447
2.51732
2.49291
2.47656
2.47111
2.48229
2.51816
2.5893
2.71107
2.90315
3.18599
3.56948
4.05845
4.34308
2.59515
2.57124
2.54763
2.5235
2.49948
2.47776
2.45978
2.44714
2.44352
2.4523
2.47843
2.52876
2.61138
2.73641
2.91409
3.15018
3.43534
3.7501
3.92174
2.50275
2.48151
2.46097
2.44122
2.42316
2.40815
2.39749
2.39394
2.39958
2.41782
2.45265
2.50923
2.59301
2.70967
2.86288
3.05068
3.2586
3.46402
3.57399
2.40921
2.39065
2.37295
2.35736
2.344
2.33426
2.33002
2.33278
2.34469
2.36853
2.4073
2.46454
2.54349
2.64663
2.77383
2.91997
3.07123
3.20842
3.28177
2.31433
2.29774
2.28312
2.27105
2.26165
2.2561
2.25647
2.26362
2.27938
2.3059
2.34529
2.39976
2.47092
2.55921
2.66267
2.77545
2.88624
2.98008
3.03066
2.21641
2.20289
2.1908
2.18158
2.17541
2.17345
2.17693
2.18684
2.20458
2.23171
2.26958
2.31944
2.38175
2.45586
2.5391
2.62606
2.70803
2.77383
2.80957
2.11673
2.10577
2.09567
2.08904
2.08559
2.08603
2.09161
2.10305
2.12142
2.14777
2.18289
2.22732
2.28086
2.34233
2.40897
2.4762
2.53747
2.58492
2.61058
2.01503
2.00594
1.99802
1.99339
1.99194
1.9941
2.00094
2.013
2.03106
2.05577
2.08751
2.12639
2.17182
2.22243
2.27573
2.32796
2.3743
2.40929
2.42804
1.91124
1.90374
1.89781
1.89469
1.89464
1.89795
1.90542
1.91746
1.9346
1.95719
1.98537
2.01894
2.05716
2.09868
2.14133
2.18217
2.21762
2.24389
2.25783
1.80547
1.79936
1.79495
1.79305
1.79397
1.79796
1.80561
1.81718
1.83303
1.85332
1.87799
1.9067
1.93868
1.97267
2.00688
2.039
2.0664
2.08641
2.09695
1.69777
1.69286
1.68964
1.68867
1.69023
1.69455
1.70203
1.71286
1.72724
1.7452
1.76658
1.79096
1.8176
1.84542
1.87292
1.89834
1.91971
1.93515
1.94321
1.58826
1.58437
1.58208
1.58178
1.58374
1.58812
1.59521
1.60514
1.61798
1.6337
1.65206
1.67266
1.6948
1.71755
1.73972
1.75994
1.77675
1.78877
1.79502
1.47709
1.47403
1.47245
1.47263
1.47478
1.47904
1.48561
1.49455
1.50588
1.51951
1.53518
1.55249
1.57084
1.58946
1.60737
1.62353
1.63683
1.64628
1.65116
1.3644
1.36201
1.36097
1.36146
1.36366
1.36768
1.37365
1.38158
1.39147
1.40318
1.41647
1.43096
1.44614
1.46137
1.47587
1.48882
1.49941
1.50687
1.51072
1.25032
1.24848
1.24783
1.2485
1.25065
1.25435
1.25968
1.26664
1.27517
1.28516
1.29636
1.30844
1.32096
1.3334
1.34515
1.35556
1.36401
1.36994
1.37299
1.13499
1.13359
1.13322
1.13399
1.13601
1.13934
1.14402
1.15005
1.15735
1.16579
1.17517
1.18519
1.19549
1.20563
1.21514
1.22351
1.23027
1.23499
1.23741
1.01856
1.0175
1.01732
1.01812
1.01996
1.0229
1.02695
1.0321
1.03828
1.04535
1.05315
1.06141
1.06983
1.07808
1.08576
1.09248
1.09788
1.10164
1.10356
0.901149
0.900355
0.900308
0.901069
0.902704
0.905243
0.908697
0.913038
0.918198
0.924064
0.930477
0.937232
0.944079
0.950738
0.956908
0.962285
0.966586
0.969573
0.971095
0.782872
0.782291
0.782322
0.783016
0.784424
0.786571
0.789457
0.793053
0.797298
0.802094
0.807306
0.812764
0.818269
0.823596
0.828511
0.832777
0.836179
0.838534
0.839732
0.663858
0.663436
0.663503
0.664105
0.66528
0.667046
0.6694
0.672315
0.675736
0.679581
0.68374
0.688076
0.69243
0.696628
0.700486
0.703825
0.70648
0.708313
0.709243
0.544206
0.543901
0.543977
0.544469
0.54541
0.546811
0.548669
0.550959
0.553636
0.556634
0.559864
0.563219
0.566578
0.569806
0.572764
0.575317
0.577341
0.578736
0.579442
0.424007
0.423792
0.423857
0.424233
0.424944
0.426
0.427396
0.429112
0.431112
0.433346
0.435746
0.438234
0.440717
0.443099
0.445276
0.447152
0.448635
0.449654
0.450169
0.303337
0.303192
0.303233
0.303489
0.303979
0.304709
0.305675
0.306861
0.308241
0.30978
0.31143
0.313137
0.314838
0.316466
0.317953
0.31923
0.32024
0.320932
0.321279
0.182307
0.182213
0.182222
0.182356
0.182634
0.183054
0.183613
0.184301
0.185103
0.185997
0.186956
0.187948
0.188936
0.189882
0.190745
0.191486
0.19207
0.192467
0.192662
0.0608834
0.0608798
0.0609056
0.0609632
0.0610462
0.061165
0.0613248
0.0615269
0.0617687
0.0620444
0.0623451
0.0626593
0.0629744
0.0632775
0.0635554
0.0637959
0.0639936
0.0641284
0.0641901
)
;

boundaryField
{
    leftWall
    {
        type            fixedFluxPressure;
        gradient        nonuniform 0();
        value           nonuniform 0();
    }
    rightWall
    {
        type            fixedFluxPressure;
        gradient        uniform 0;
        value           nonuniform List<scalar> 
25
(
4.34308
3.92174
3.57399
3.28177
3.03066
2.80957
2.61058
2.42804
2.25783
2.09695
1.94321
1.79502
1.65116
1.51072
1.37299
1.23741
1.10356
0.971095
0.839732
0.709243
0.579442
0.450169
0.321279
0.192662
0.0641901
)
;
    }
    lowerWall
    {
        type            fixedFluxPressure;
        gradient        nonuniform 0();
        value           nonuniform 0();
    }
    atmosphere
    {
        type            totalPressure;
        U               U.air;
        phi             phi.air;
        rho             rho;
        psi             none;
        gamma           1;
        p0              uniform 0;
        value           uniform 0;
    }
    defaultFaces
    {
        type            empty;
    }
    procBoundary3to1
    {
        type            processor;
        value           nonuniform List<scalar> 
23
(
2.81381
2.8141
2.80855
2.7985
2.77919
2.75104
2.71956
2.68613
2.64925
2.60991
2.57102
2.53257
2.49946
2.47457
2.46324
2.47381
2.51794
2.61505
2.79519
3.10037
3.58557
4.34249
4.85454
)
;
    }
    procBoundary3to2
    {
        type            processor;
        value           nonuniform List<scalar> 
25
(
2.74935
2.6596
2.56267
2.46381
2.36322
2.26008
2.15496
2.04809
1.93954
1.8295
1.71803
1.60523
1.4912
1.37604
1.25987
1.14277
1.02485
0.906182
0.786782
0.666871
0.546453
0.425604
0.304316
0.182838
0.0607657
)
;
    }
}


// ************************************************************************* //
