/*--------------------------------*- C++ -*----------------------------------*\
| =========                 |                                                 |
| \\      /  F ield         | OpenFOAM: The Open Source CFD Toolbox           |
|  \\    /   O peration     | Version:  2.4.0                                 |
|   \\  /    A nd           | Web:      www.OpenFOAM.org                      |
|    \\/     M anipulation  |                                                 |
\*---------------------------------------------------------------------------*/
FoamFile
{
    version     2.0;
    format      ascii;
    class       surfaceScalarField;
    location    "0.25";
    object      phi;
}
// * * * * * * * * * * * * * * * * * * * * * * * * * * * * * * * * * * * * * //

dimensions      [0 3 -1 0 0 0 0];

internalField   nonuniform List<scalar> 
1102
(
-7.69341e-05
4.79632e-06
-7.37425e-05
5.40065e-06
-7.11961e-05
6.57635e-06
7.19756e-06
-6.8922e-05
-7.03073e-05
2.85357e-06
-6.92446e-05
4.33792e-06
-6.80129e-05
5.34458e-06
5.82755e-06
-6.66429e-05
-6.7201e-05
2.56852e-06
-6.65203e-05
3.65717e-06
-6.52612e-05
4.08549e-06
4.69835e-06
-6.41321e-05
-6.44628e-05
2.23158e-06
-6.35592e-05
2.75365e-06
-6.26986e-05
3.22485e-06
3.84252e-06
-6.18428e-05
-6.01689e-05
1.59945e-06
-5.91781e-05
1.76283e-06
-5.82256e-05
2.27232e-06
2.93634e-06
-5.73195e-05
-5.55519e-05
8.91963e-07
-5.49324e-05
1.14327e-06
-5.43152e-05
1.65515e-06
2.44342e-06
-5.38223e-05
-5.12235e-05
2.81194e-07
-5.0773e-05
6.92793e-07
-5.03333e-05
1.21544e-06
2.06391e-06
-4.99539e-05
-4.75101e-05
-9.22791e-08
-4.72581e-05
4.40767e-07
-4.70979e-05
1.05519e-06
1.81524e-06
-4.68493e-05
-4.39986e-05
-3.21781e-07
-4.38798e-05
3.21923e-07
-4.37753e-05
9.50662e-07
1.65392e-06
-4.3614e-05
-4.06771e-05
-3.94874e-07
-4.06109e-05
2.55693e-07
-4.05589e-05
8.98665e-07
1.56507e-06
-4.04701e-05
-3.74586e-05
-4.23725e-07
-3.74388e-05
2.35826e-07
-3.74137e-05
8.73553e-07
1.51114e-06
-3.73598e-05
-3.43781e-05
-4.12765e-07
-3.43795e-05
2.37219e-07
-3.43732e-05
8.67136e-07
1.48336e-06
-3.43454e-05
-3.14198e-05
-3.78027e-07
-3.14381e-05
2.55505e-07
-3.14448e-05
8.73823e-07
1.47297e-06
-3.14345e-05
-2.85784e-05
-3.25838e-07
-2.86104e-05
2.87464e-07
-2.86277e-05
8.91123e-07
1.47534e-06
-2.86301e-05
-2.58444e-05
-2.62183e-07
-2.58883e-05
3.31393e-07
-2.59153e-05
9.1807e-07
1.48798e-06
-2.59279e-05
-2.32102e-05
-1.88182e-07
-2.32638e-05
3.84999e-07
-2.32997e-05
9.53873e-07
1.50959e-06
-2.33213e-05
-2.06647e-05
-1.06807e-07
-2.07268e-05
4.47068e-07
-2.07714e-05
9.98476e-07
1.54014e-06
-2.0802e-05
-1.81968e-05
-2.1261e-08
-1.82672e-05
5.17407e-07
-1.83211e-05
1.05237e-06
1.58035e-06
-1.83613e-05
-1.57991e-05
7.25506e-08
-1.58762e-05
5.9452e-07
-1.59395e-05
1.11561e-06
1.63113e-06
-1.59903e-05
-1.34543e-05
1.69941e-07
-1.35406e-05
6.80835e-07
-1.36154e-05
1.19032e-06
1.69478e-06
-1.3679e-05
-1.11537e-05
2.72822e-07
-1.125e-05
7.77074e-07
-1.13383e-05
1.2786e-06
1.77413e-06
-1.14177e-05
-8.8726e-06
3.89889e-07
-8.98846e-06
8.92945e-07
-9.09747e-06
1.3876e-06
1.87557e-06
-9.19892e-06
-6.65621e-06
5.16081e-07
-6.77238e-06
1.00908e-06
-6.88701e-06
1.50224e-06
1.98932e-06
-7.00076e-06
-4.27111e-06
6.94689e-07
-4.48339e-06
1.2214e-06
-4.70558e-06
1.72444e-06
2.20871e-06
-4.92495e-06
-1.97915e-06
-1.99944e-06
-2.04728e-06
-2.11873e-06
-6.50142e-05
1.89812e-05
-6.29339e-05
2.21028e-05
-6.07239e-05
2.42381e-05
-5.84517e-05
2.3534e-05
-5.85145e-05
2.54716e-05
-5.91132e-05
2.65956e-05
-6.03754e-05
2.64644e-05
-6.30632e-05
2.93998e-05
-6.6563e-05
3.06459e-05
-7.1439e-05
3.4321e-05
-7.74027e-05
3.88036e-05
-8.45392e-05
4.5659e-05
-9.25194e-05
5.53623e-05
-0.000100631
6.91271e-05
-0.000107148
8.82864e-05
-0.000108409
0.00011414
-9.65258e-05
0.000147504
-5.68879e-05
0.000188982
0.000204338
-6.37227e-05
1.6061e-05
-6.15623e-05
1.99425e-05
-5.94878e-05
2.21636e-05
-5.78974e-05
2.19436e-05
-5.78546e-05
2.54288e-05
-5.78491e-05
2.65901e-05
-5.91715e-05
2.77868e-05
-6.11265e-05
3.13548e-05
-6.38924e-05
3.34118e-05
-6.74757e-05
3.79044e-05
-7.17236e-05
4.30515e-05
-7.64393e-05
5.03747e-05
-8.11187e-05
6.00418e-05
-8.48535e-05
7.2862e-05
-8.59786e-05
8.94117e-05
-8.17502e-05
0.000109911
-6.78073e-05
0.000133561
-3.7621e-05
0.000158796
0.000166717
-6.19203e-05
1.38492e-05
-5.91841e-05
1.72063e-05
-5.72058e-05
2.01852e-05
-5.67219e-05
2.14598e-05
-5.64185e-05
2.51254e-05
-5.60975e-05
2.62692e-05
-5.74656e-05
2.91549e-05
-5.849e-05
3.23792e-05
-6.0609e-05
3.55309e-05
-6.29845e-05
4.02799e-05
-6.57261e-05
4.57931e-05
-6.8428e-05
5.30767e-05
-7.05803e-05
6.21942e-05
-7.13157e-05
7.35975e-05
-6.93074e-05
8.74034e-05
-6.27284e-05
0.000103332
-4.93665e-05
0.000120199
-2.66149e-05
0.000136045
0.000140102
-5.92435e-05
1.12498e-05
-5.67363e-05
1.4699e-05
-5.53763e-05
1.88253e-05
-5.50726e-05
2.11561e-05
-5.41353e-05
2.41881e-05
-5.41693e-05
2.63031e-05
-5.49224e-05
2.99081e-05
-5.5538e-05
3.29948e-05
-5.69143e-05
3.69071e-05
-5.82913e-05
4.1657e-05
-5.97721e-05
4.72739e-05
-6.09062e-05
5.42108e-05
-6.1241e-05
6.2529e-05
-6.00517e-05
7.24082e-05
-5.63809e-05
8.37327e-05
-4.9094e-05
9.60456e-05
-3.71446e-05
0.00010825
-1.96922e-05
0.000118592
0.00012041
-5.54206e-05
9.35086e-06
-5.4017e-05
1.32954e-05
-5.34389e-05
1.82472e-05
-5.26915e-05
2.04087e-05
-5.16535e-05
2.31501e-05
-5.20004e-05
2.665e-05
-5.19628e-05
2.98706e-05
-5.23852e-05
3.34173e-05
-5.30195e-05
3.75415e-05
-5.36169e-05
4.22544e-05
-5.40893e-05
4.77463e-05
-5.40669e-05
5.41883e-05
-5.31623e-05
6.16245e-05
-5.08192e-05
7.00652e-05
-4.63871e-05
7.93007e-05
-3.91996e-05
8.88582e-05
-2.88099e-05
9.78602e-05
-1.50846e-05
0.000104867
0.000105325
-5.2518e-05
8.04646e-06
-5.15543e-05
1.23318e-05
-5.08855e-05
1.75784e-05
-4.98465e-05
1.93696e-05
-4.92713e-05
2.25749e-05
-4.92403e-05
2.66191e-05
-4.89423e-05
2.95726e-05
-4.90517e-05
3.35267e-05
-4.91113e-05
3.76011e-05
-4.90936e-05
4.22368e-05
-4.88035e-05
4.74562e-05
-4.79669e-05
5.33518e-05
-4.62643e-05
5.99219e-05
-4.32926e-05
6.70935e-05
-3.86264e-05
7.46346e-05
-3.18922e-05
8.21241e-05
-2.29213e-05
8.88894e-05
-1.18915e-05
9.38375e-05
9.34336e-05
-4.95964e-05
7.68895e-06
-4.88864e-05
1.16218e-05
-4.77956e-05
1.64876e-05
-4.70594e-05
1.86335e-05
-4.67164e-05
2.2232e-05
-4.62363e-05
2.61389e-05
-4.58992e-05
2.92356e-05
-4.56418e-05
3.32692e-05
-4.52985e-05
3.72579e-05
-4.48013e-05
4.17396e-05
-4.39658e-05
4.66207e-05
-4.25834e-05
5.19694e-05
-4.04037e-05
5.77423e-05
-3.71451e-05
6.3835e-05
-3.25375e-05
7.00271e-05
-2.6383e-05
7.59696e-05
-1.86504e-05
8.11569e-05
-9.59126e-06
8.47785e-05
8.38424e-05
-4.63771e-05
7.21677e-06
-4.59245e-05
1.11692e-05
-4.48091e-05
1.53722e-05
-4.42693e-05
1.80937e-05
-4.38776e-05
2.18403e-05
-4.32221e-05
2.54835e-05
-4.28063e-05
2.88198e-05
-4.2266e-05
3.2729e-05
-4.16344e-05
3.66263e-05
-4.07842e-05
4.08894e-05
-3.95791e-05
4.54156e-05
-3.78542e-05
5.02445e-05
-3.5423e-05
5.53111e-05
-3.20931e-05
6.0505e-05
-2.76981e-05
6.56321e-05
-2.21423e-05
7.04139e-05
-1.54597e-05
7.44743e-05
-7.8876e-06
7.72065e-05
7.59548e-05
-4.32424e-05
6.84518e-06
-4.27871e-05
1.07138e-05
-4.19174e-05
1.45025e-05
-4.14424e-05
1.76187e-05
-4.09333e-05
2.13312e-05
-4.02572e-05
2.48074e-05
-3.97097e-05
2.82724e-05
-3.89893e-05
3.20086e-05
-3.81489e-05
3.57859e-05
-3.70585e-05
3.9799e-05
-3.56197e-05
4.39769e-05
-3.37034e-05
4.83283e-05
-3.11754e-05
5.27831e-05
-2.79068e-05
5.72365e-05
-2.37993e-05
6.15247e-05
-1.8815e-05
6.54296e-05
-1.30132e-05
6.86725e-05
-6.59564e-06
7.07889e-05
6.93592e-05
-4.01236e-05
6.49871e-06
-3.96929e-05
1.0283e-05
-3.90526e-05
1.38622e-05
-3.85857e-05
1.71519e-05
-3.80091e-05
2.07546e-05
-3.73421e-05
2.41405e-05
-3.66757e-05
2.7606e-05
-3.58442e-05
3.11771e-05
-3.48604e-05
3.48022e-05
-3.36214e-05
3.85599e-05
-3.20516e-05
4.24071e-05
-3.00533e-05
4.633e-05
-2.75319e-05
5.02617e-05
-2.44034e-05
5.41079e-05
-2.06125e-05
5.77339e-05
-1.61531e-05
6.09703e-05
-1.10903e-05
6.36097e-05
-5.59002e-06
6.52888e-05
6.37692e-05
-3.70924e-05
6.23131e-06
-3.67051e-05
9.89569e-06
-3.62064e-05
1.33635e-05
-3.57404e-05
1.6686e-05
-3.51484e-05
2.01626e-05
-3.44853e-05
2.34775e-05
-3.37436e-05
2.68644e-05
-3.28463e-05
3.02798e-05
-3.1776e-05
3.37319e-05
-3.04586e-05
3.72424e-05
-2.88343e-05
4.07828e-05
-2.68313e-05
4.4327e-05
-2.4384e-05
4.78145e-05
-2.14392e-05
5.11631e-05
-1.79689e-05
5.42636e-05
-1.39833e-05
5.69847e-05
-9.5447e-06
5.91711e-05
-4.78901e-06
6.05331e-05
5.89803e-05
-3.41455e-05
6.03139e-06
-3.38185e-05
9.56867e-06
-3.34033e-05
1.29483e-05
-3.29475e-05
1.62302e-05
-3.23667e-05
1.95818e-05
-3.17061e-05
2.28169e-05
-3.09301e-05
2.60884e-05
-3.00018e-05
2.93515e-05
-2.88926e-05
3.26226e-05
-2.755e-05
3.58999e-05
-2.59273e-05
3.91602e-05
-2.3973e-05
4.23726e-05
-2.16424e-05
4.54839e-05
-1.89033e-05
4.8424e-05
-1.57444e-05
5.11047e-05
-1.21839e-05
5.34242e-05
-8.27815e-06
5.52654e-05
-4.13812e-06
5.63931e-05
5.48421e-05
-3.1294e-05
5.89091e-06
-3.10234e-05
9.29804e-06
-3.0664e-05
1.25889e-05
-3.02295e-05
1.57957e-05
-2.96728e-05
1.90251e-05
-2.90219e-05
2.21661e-05
-2.8242e-05
2.53085e-05
-2.73111e-05
2.84206e-05
-2.62005e-05
3.15121e-05
-2.48729e-05
3.45722e-05
-2.32924e-05
3.75797e-05
-2.14229e-05
4.05031e-05
-1.92348e-05
4.32959e-05
-1.67099e-05
4.58991e-05
-1.38471e-05
4.82419e-05
-1.06678e-05
5.0245e-05
-7.22147e-06
5.18191e-05
-3.59904e-06
5.27707e-05
5.12431e-05
-2.85375e-05
5.79827e-06
-2.83173e-05
9.0778e-06
-2.80022e-05
1.22739e-05
-2.7597e-05
1.53905e-05
-2.70723e-05
1.85006e-05
-2.64427e-05
2.15365e-05
-2.56808e-05
2.45466e-05
-2.47705e-05
2.75103e-05
-2.36875e-05
3.0429e-05
-2.24045e-05
3.32892e-05
-2.08949e-05
3.60701e-05
-1.91339e-05
3.8742e-05
-1.71027e-05
4.12647e-05
-1.47924e-05
4.35889e-05
-1.22079e-05
4.56574e-05
-9.37122e-06
4.74083e-05
-6.32513e-06
4.8773e-05
-3.14453e-06
4.95901e-05
4.80986e-05
-2.5874e-05
5.74426e-06
-2.56989e-05
8.90274e-06
-2.54248e-05
1.19998e-05
-2.50546e-05
1.50203e-05
-2.45684e-05
1.80144e-05
-2.39716e-05
2.09397e-05
-2.32444e-05
2.38194e-05
-2.23735e-05
2.66394e-05
-2.13396e-05
2.93951e-05
-2.01228e-05
3.20724e-05
-1.8704e-05
3.46512e-05
-1.70664e-05
3.71044e-05
-1.5199e-05
3.93974e-05
-1.30991e-05
4.14889e-05
-1.07747e-05
4.3333e-05
-8.24719e-06
4.48808e-05
-5.55327e-06
4.60791e-05
-2.75518e-06
4.6792e-05
4.53434e-05
-2.32999e-05
5.72283e-06
-2.31666e-05
8.76948e-06
-2.29336e-05
1.17668e-05
-2.26035e-05
1.46902e-05
-2.21616e-05
1.75725e-05
-2.1608e-05
2.03862e-05
-2.09284e-05
2.31398e-05
-2.01115e-05
2.58225e-05
-1.91428e-05
2.84264e-05
-1.80077e-05
3.09373e-05
-1.66927e-05
3.33363e-05
-1.51874e-05
3.5599e-05
-1.34858e-05
3.76958e-05
-1.15893e-05
3.95924e-05
-9.5075e-06
4.12512e-05
-7.26042e-06
4.26338e-05
-4.87951e-06
4.36982e-05
-2.41683e-06
4.43294e-05
4.29266e-05
-2.08106e-05
5.73139e-06
-2.07177e-05
8.67663e-06
-2.05277e-05
1.15769e-05
-2.02424e-05
1.4405e-05
-1.98503e-05
1.71803e-05
-1.93486e-05
1.98845e-05
-1.87268e-05
2.25179e-05
-1.79753e-05
2.50711e-05
-1.70834e-05
2.75345e-05
-1.60407e-05
2.98945e-05
-1.48381e-05
3.21336e-05
-1.34693e-05
3.42303e-05
-1.19324e-05
3.61589e-05
-1.0231e-05
3.78909e-05
-8.37551e-06
3.93958e-05
-6.3842e-06
4.06425e-05
-4.28405e-06
4.15981e-05
-2.11894e-06
4.21642e-05
4.08077e-05
-1.84e-05
5.77002e-06
-1.83481e-05
8.62471e-06
-1.8204e-05
1.14328e-05
-1.79683e-05
1.41692e-05
-1.76313e-05
1.68433e-05
-1.71889e-05
1.94421e-05
-1.66328e-05
2.19618e-05
-1.59554e-05
2.43936e-05
-1.51487e-05
2.67278e-05
-1.42055e-05
2.89514e-05
-1.31202e-05
3.10483e-05
-1.18896e-05
3.29997e-05
-1.05143e-05
3.47836e-05
-8.99922e-06
3.63759e-05
-7.35505e-06
3.77516e-05
-5.59827e-06
3.88857e-05
-3.75208e-06
3.97519e-05
-1.85371e-06
4.02659e-05
3.89539e-05
-1.60614e-05
5.8411e-06
-1.60527e-05
8.61604e-06
-1.59585e-05
1.13386e-05
-1.57771e-05
1.39879e-05
-1.55002e-05
1.65664e-05
-1.5123e-05
1.90649e-05
-1.46387e-05
2.14775e-05
-1.40415e-05
2.37964e-05
-1.33255e-05
2.60118e-05
-1.24861e-05
2.8112e-05
-1.15202e-05
3.00824e-05
-1.0427e-05
3.19065e-05
-9.20864e-06
3.35653e-05
-7.87123e-06
3.50385e-05
-6.42501e-06
3.63054e-05
-4.88484e-06
3.73455e-05
-3.2707e-06
3.81377e-05
-1.61427e-06
3.86094e-05
3.73397e-05
-1.37875e-05
5.94954e-06
-1.38264e-05
8.65491e-06
-1.37868e-05
1.12991e-05
-1.36652e-05
1.38662e-05
-1.3454e-05
1.63551e-05
-1.31479e-05
1.87587e-05
-1.27415e-05
2.10711e-05
-1.22302e-05
2.32851e-05
-1.161e-05
2.53917e-05
-1.08782e-05
2.73801e-05
-1.00333e-05
2.92376e-05
-9.07624e-06
3.09494e-05
-8.01024e-06
3.24993e-05
-6.84168e-06
3.38699e-05
-5.58034e-06
3.5044e-05
-4.23953e-06
3.60047e-05
-2.8366e-06
3.67348e-05
-1.39907e-06
3.71719e-05
3.59406e-05
-1.15703e-05
6.10214e-06
-1.16619e-05
8.74651e-06
-1.16811e-05
1.13183e-05
-1.1622e-05
1.38072e-05
-1.14774e-05
1.62105e-05
-1.12422e-05
1.85236e-05
-1.09123e-05
2.07412e-05
-1.04846e-05
2.28574e-05
-9.95724e-06
2.48643e-05
-9.32933e-06
2.67522e-05
-8.60151e-06
2.85098e-05
-7.77604e-06
3.01239e-05
-6.85717e-06
3.15804e-05
-5.85148e-06
3.28643e-05
-4.7682e-06
3.39608e-05
-3.61936e-06
3.48559e-05
-2.41978e-06
3.55352e-05
-1.19246e-06
3.59446e-05
3.47481e-05
-9.40871e-06
6.31192e-06
-9.56661e-06
8.90441e-06
-9.6603e-06
1.1412e-05
-9.68227e-06
1.38291e-05
-9.62487e-06
1.61531e-05
-9.48217e-06
1.83809e-05
-9.24975e-06
2.05088e-05
-8.9246e-06
2.25323e-05
-8.50517e-06
2.44449e-05
-7.9914e-06
2.62385e-05
-7.38473e-06
2.79031e-05
-6.68825e-06
2.94275e-05
-5.90674e-06
3.07989e-05
-5.04682e-06
3.20043e-05
-4.11694e-06
3.30309e-05
-3.12731e-06
3.38662e-05
-2.09144e-06
3.44993e-05
-1.03016e-06
3.48832e-05
3.37179e-05
-7.2544e-06
6.56558e-06
-7.45365e-06
9.10367e-06
-7.5836e-06
1.15419e-05
-7.64025e-06
1.38858e-05
-7.62068e-06
1.61336e-05
-7.52296e-06
1.82832e-05
-7.34633e-06
2.03322e-05
-7.09073e-06
2.22767e-05
-6.75666e-06
2.41108e-05
-6.34511e-06
2.5827e-05
-5.85794e-06
2.7416e-05
-5.29806e-06
2.88676e-05
-4.66962e-06
3.01705e-05
-3.97832e-06
3.13131e-05
-3.23222e-06
3.22848e-05
-2.4435e-06
3.30776e-05
-1.6298e-06
3.36856e-05
-8.01531e-07
3.4055e-05
3.29164e-05
-5.38648e-06
7.02713e-06
-5.78479e-06
9.502e-06
-6.09983e-06
1.1857e-05
-6.31153e-06
1.40975e-05
-6.41649e-06
1.62386e-05
-6.42019e-06
1.82869e-05
-6.32943e-06
2.02415e-05
-6.15074e-06
2.2098e-05
-5.89022e-06
2.38503e-05
-5.55362e-06
2.54904e-05
-5.14649e-06
2.70089e-05
-4.67445e-06
2.83956e-05
-4.14333e-06
2.96394e-05
-3.55944e-06
3.07292e-05
-2.9284e-06
3.16538e-05
-2.25199e-06
3.24012e-05
-1.52282e-06
3.29565e-05
-7.51277e-07
3.32834e-05
3.21651e-05
-2.37601e-06
-2.66131e-06
-2.93924e-06
-3.19087e-06
-3.39749e-06
-3.54407e-06
-3.62148e-06
-3.62563e-06
-3.55626e-06
-3.41589e-06
-3.20884e-06
-2.94077e-06
-2.61828e-06
-2.24816e-06
-1.83733e-06
-1.39241e-06
-9.26266e-07
-4.54327e-07
)
;

boundaryField
{
    leftWall
    {
        type            calculated;
        value           nonuniform 0();
    }
    rightWall
    {
        type            calculated;
        value           uniform 0;
    }
    lowerWall
    {
        type            calculated;
        value           nonuniform 0();
    }
    atmosphere
    {
        type            calculated;
        value           nonuniform List<scalar> 
23
(
6.81197e-07
1.2417e-06
1.77229e-06
2.28017e-06
7.28442e-06
9.78731e-06
1.21349e-05
1.43492e-05
1.64452e-05
1.84335e-05
2.03189e-05
2.21022e-05
2.3781e-05
2.535e-05
2.68019e-05
2.81276e-05
2.93169e-05
3.03591e-05
3.1243e-05
3.19563e-05
3.24904e-05
3.28115e-05
3.17108e-05
)
;
    }
    defaultFaces
    {
        type            empty;
        value           nonuniform 0();
    }
    procBoundary3to1
    {
        type            processor;
        value           nonuniform List<scalar> 
23
(
-8.50616e-06
-8.59234e-06
-9.1227e-06
-9.47168e-06
-2.2889e-05
-2.41831e-05
-2.64481e-05
-2.58062e-05
-2.54088e-05
-2.59969e-05
-2.52022e-05
-2.67121e-05
-2.71461e-05
-2.9445e-05
-3.28399e-05
-3.85224e-05
-4.7382e-05
-6.1015e-05
-8.177e-05
-0.000112878
-0.000159387
-0.00022862
-0.000261225
)
;
    }
    procBoundary3to2
    {
        type            processor;
        value           nonuniform List<scalar> 
25
(
8.0644e-05
7.22501e-05
6.74861e-05
6.47997e-05
6.0801e-05
5.62594e-05
5.18342e-05
4.78836e-05
4.42281e-05
4.07502e-05
3.74875e-05
3.43672e-05
3.13851e-05
2.85262e-05
2.57807e-05
2.31362e-05
2.05833e-05
1.81112e-05
1.57053e-05
1.33569e-05
1.10508e-05
8.75552e-06
6.53e-06
4.0925e-06
1.99267e-06
)
;
    }
}


// ************************************************************************* //
