/*--------------------------------*- C++ -*----------------------------------*\
| =========                 |                                                 |
| \\      /  F ield         | OpenFOAM: The Open Source CFD Toolbox           |
|  \\    /   O peration     | Version:  2.4.0                                 |
|   \\  /    A nd           | Web:      www.OpenFOAM.org                      |
|    \\/     M anipulation  |                                                 |
\*---------------------------------------------------------------------------*/
FoamFile
{
    version     2.0;
    format      ascii;
    class       surfaceScalarField;
    location    "0.25";
    object      phi.mercury;
}
// * * * * * * * * * * * * * * * * * * * * * * * * * * * * * * * * * * * * * //

dimensions      [0 3 -1 0 0 0 0];

internalField   nonuniform List<scalar> 
1102
(
-7.69078e-05
4.78694e-06
-7.37155e-05
5.39028e-06
-7.11666e-05
6.56517e-06
7.18523e-06
-6.8894e-05
-7.02849e-05
2.84546e-06
-6.92212e-05
4.32901e-06
-6.79878e-05
5.33508e-06
5.81706e-06
-6.66185e-05
-6.71817e-05
2.56229e-06
-6.64993e-05
3.6502e-06
-6.52399e-05
4.07765e-06
4.6897e-06
-6.41111e-05
-6.44462e-05
2.22633e-06
-6.35419e-05
2.74771e-06
-6.26805e-05
3.21845e-06
3.83536e-06
-6.18252e-05
-6.0155e-05
1.59558e-06
-5.91629e-05
1.75835e-06
-5.82105e-05
2.26712e-06
2.93054e-06
-5.73047e-05
-5.55403e-05
8.88592e-07
-5.49203e-05
1.13938e-06
-5.43026e-05
1.65091e-06
2.43864e-06
-5.38102e-05
-5.12139e-05
2.78695e-07
-5.07624e-05
6.89896e-07
-5.0323e-05
1.21202e-06
2.06005e-06
-4.99439e-05
-4.75023e-05
-9.44623e-08
-4.725e-05
4.38227e-07
-4.70894e-05
1.05241e-06
1.81208e-06
-4.68413e-05
-4.39923e-05
-3.23313e-07
-4.38728e-05
3.20099e-07
-4.37685e-05
9.48448e-07
1.6514e-06
-4.36076e-05
-4.0672e-05
-3.96241e-07
-4.06056e-05
2.54076e-07
-4.05534e-05
8.96892e-07
1.56302e-06
-4.0465e-05
-3.74546e-05
-4.24648e-07
-3.74342e-05
2.34703e-07
-3.74094e-05
8.72154e-07
1.50953e-06
-3.73558e-05
-3.4375e-05
-4.13573e-07
-3.43762e-05
2.36238e-07
-3.43698e-05
8.66038e-07
1.48207e-06
-3.43423e-05
-3.14174e-05
-3.7852e-07
-3.14353e-05
2.54864e-07
-3.14423e-05
8.72984e-07
1.47198e-06
-3.14321e-05
-2.85766e-05
-3.26289e-07
-2.86085e-05
2.86897e-07
-2.86258e-05
8.90477e-07
1.47456e-06
-2.86284e-05
-2.5843e-05
-2.62432e-07
-2.58867e-05
3.31044e-07
-2.59139e-05
9.17584e-07
1.4874e-06
-2.59267e-05
-2.32093e-05
-1.88419e-07
-2.32629e-05
3.84684e-07
-2.32987e-05
9.53501e-07
1.50913e-06
-2.33205e-05
-2.06641e-05
-1.0693e-07
-2.07261e-05
4.46874e-07
-2.07708e-05
9.98187e-07
1.53979e-06
-2.08015e-05
-1.81965e-05
-2.14273e-08
-1.82669e-05
5.17191e-07
-1.83208e-05
1.05212e-06
1.58005e-06
-1.83612e-05
-1.5799e-05
7.24153e-08
-1.58761e-05
5.9434e-07
-1.59395e-05
1.11537e-06
1.63085e-06
-1.59903e-05
-1.34544e-05
1.69715e-07
-1.35407e-05
6.8059e-07
-1.36155e-05
1.19006e-06
1.69449e-06
-1.36792e-05
-1.1154e-05
2.72563e-07
-1.12502e-05
7.76798e-07
-1.13386e-05
1.2783e-06
1.77382e-06
-1.1418e-05
-8.8729e-06
3.89532e-07
-8.98876e-06
8.92591e-07
-9.09778e-06
1.38726e-06
1.87523e-06
-9.19926e-06
-6.65649e-06
5.15686e-07
-6.77263e-06
1.0087e-06
-6.88732e-06
1.50185e-06
1.98894e-06
-7.00107e-06
-4.27134e-06
6.94171e-07
-4.48365e-06
1.2209e-06
-4.70583e-06
1.72397e-06
2.20827e-06
-4.92521e-06
-1.97929e-06
-1.99956e-06
-2.0474e-06
-2.11883e-06
-6.49877e-05
1.89491e-05
-6.29106e-05
2.20657e-05
-6.07024e-05
2.41968e-05
-5.84339e-05
2.34882e-05
-5.85004e-05
2.54222e-05
-5.91037e-05
2.65428e-05
-6.03713e-05
2.64087e-05
-6.30635e-05
2.93425e-05
-6.6571e-05
3.05874e-05
-7.1452e-05
3.42638e-05
-7.74257e-05
3.87472e-05
-8.4566e-05
4.56079e-05
-9.2556e-05
5.53159e-05
-0.00010067
6.90912e-05
-0.000107192
8.82611e-05
-0.000108447
0.00011413
-9.65639e-05
0.000147508
-5.69074e-05
0.000189006
0.00020437
-6.37005e-05
1.60335e-05
-6.15426e-05
1.99108e-05
-5.94703e-05
2.2128e-05
-5.78827e-05
2.19042e-05
-5.78433e-05
2.53863e-05
-5.78415e-05
2.65447e-05
-5.91683e-05
2.77392e-05
-6.11278e-05
3.1306e-05
-6.38995e-05
3.33625e-05
-6.7488e-05
3.7856e-05
-7.17424e-05
4.3005e-05
-7.64622e-05
5.03323e-05
-8.11469e-05
6.00046e-05
-8.4884e-05
7.28327e-05
-8.60104e-05
8.93911e-05
-8.17777e-05
0.000109901
-6.78305e-05
0.000133561
-3.76357e-05
0.000158805
0.000166734
-6.19018e-05
1.38261e-05
-5.91678e-05
1.71795e-05
-5.71914e-05
2.0155e-05
-5.671e-05
2.14263e-05
-5.64093e-05
2.50893e-05
-5.60915e-05
2.62306e-05
-5.74633e-05
2.91146e-05
-5.84917e-05
3.23381e-05
-6.06153e-05
3.54896e-05
-6.29952e-05
4.02396e-05
-6.57414e-05
4.57547e-05
-6.84467e-05
5.30419e-05
-7.06022e-05
6.21638e-05
-7.13391e-05
7.35733e-05
-6.93307e-05
8.73861e-05
-6.2748e-05
0.000103323
-4.93824e-05
0.000120195
-2.6624e-05
0.000136048
0.000140109
-5.92281e-05
1.12306e-05
-5.67228e-05
1.46766e-05
-5.53646e-05
1.87999e-05
-5.50629e-05
2.11279e-05
-5.41279e-05
2.41577e-05
-5.41646e-05
2.62707e-05
-5.49209e-05
2.98744e-05
-5.55398e-05
3.29605e-05
-5.69198e-05
3.68729e-05
-5.83004e-05
4.16237e-05
-5.97846e-05
4.72425e-05
-6.09212e-05
5.41823e-05
-6.1258e-05
6.25044e-05
-6.00694e-05
7.23881e-05
-5.63982e-05
8.37178e-05
-4.91086e-05
9.60362e-05
-3.7155e-05
0.000108245
-1.96985e-05
0.000118591
0.000120412
-5.54079e-05
9.33498e-06
-5.4006e-05
1.32768e-05
-5.34294e-05
1.82259e-05
-5.26837e-05
2.03852e-05
-5.16476e-05
2.31247e-05
-5.19967e-05
2.6623e-05
-5.19617e-05
2.98425e-05
-5.23869e-05
3.33888e-05
-5.30242e-05
3.75132e-05
-5.36244e-05
4.2227e-05
-5.40994e-05
4.77206e-05
-5.40788e-05
5.41651e-05
-5.31755e-05
6.16043e-05
-5.08328e-05
7.00486e-05
-4.64e-05
7.92881e-05
-3.92102e-05
8.88496e-05
-2.88177e-05
9.78548e-05
-1.50882e-05
0.000104865
0.000105324
-5.25076e-05
8.03341e-06
-5.15454e-05
1.23164e-05
-5.0878e-05
1.75608e-05
-4.98403e-05
1.93501e-05
-4.92666e-05
2.25538e-05
-4.92375e-05
2.65967e-05
-4.89416e-05
2.95494e-05
-4.90532e-05
3.35032e-05
-4.91151e-05
3.75778e-05
-4.90998e-05
4.22144e-05
-4.88115e-05
4.74352e-05
-4.79764e-05
5.33329e-05
-4.62745e-05
5.99055e-05
-4.33029e-05
6.70799e-05
-3.8636e-05
7.46239e-05
-3.19001e-05
8.21164e-05
-2.29264e-05
8.88844e-05
-1.18942e-05
9.38339e-05
9.34317e-05
-4.9588e-05
7.67826e-06
-4.88793e-05
1.16091e-05
-4.77896e-05
1.64731e-05
-4.70545e-05
1.86174e-05
-4.67128e-05
2.22146e-05
-4.62341e-05
2.61205e-05
-4.58988e-05
2.92165e-05
-4.56431e-05
3.32499e-05
-4.53017e-05
3.72388e-05
-4.48062e-05
4.17213e-05
-4.39722e-05
4.66036e-05
-4.25908e-05
5.1954e-05
-4.04116e-05
5.77288e-05
-3.7153e-05
6.38238e-05
-3.25448e-05
7.00182e-05
-2.63887e-05
7.5963e-05
-1.86544e-05
8.1152e-05
-9.59259e-06
8.47754e-05
8.38395e-05
-4.63705e-05
7.20805e-06
-4.59189e-05
1.11588e-05
-4.48044e-05
1.53603e-05
-4.42655e-05
1.80805e-05
-4.38747e-05
2.1826e-05
-4.32205e-05
2.54685e-05
-4.2806e-05
2.88042e-05
-4.22672e-05
3.27132e-05
-4.1637e-05
3.66107e-05
-4.07881e-05
4.08745e-05
-3.95841e-05
4.54017e-05
-3.786e-05
5.0232e-05
-3.54291e-05
5.53002e-05
-3.20991e-05
6.04959e-05
-2.77036e-05
6.56247e-05
-2.21466e-05
7.04082e-05
-1.54622e-05
7.44701e-05
-7.88882e-06
7.72029e-05
7.59522e-05
-4.32372e-05
6.8381e-06
-4.27827e-05
1.07053e-05
-4.19137e-05
1.44928e-05
-4.14394e-05
1.7608e-05
-4.09311e-05
2.13196e-05
-4.0256e-05
2.47952e-05
-3.97096e-05
2.82597e-05
-3.89903e-05
3.19958e-05
-3.8151e-05
3.57733e-05
-3.70616e-05
3.97869e-05
-3.56236e-05
4.39656e-05
-3.37079e-05
4.83181e-05
-3.11801e-05
5.27742e-05
-2.79114e-05
5.7229e-05
-2.38034e-05
6.15186e-05
-1.88181e-05
6.54248e-05
-1.30153e-05
6.86686e-05
-6.59608e-06
7.07861e-05
6.93563e-05
-4.01196e-05
6.493e-06
-3.96896e-05
1.02762e-05
-3.90498e-05
1.38544e-05
-3.85835e-05
1.71432e-05
-3.80075e-05
2.07452e-05
-3.73413e-05
2.41306e-05
-3.66757e-05
2.75958e-05
-3.5845e-05
3.11667e-05
-3.48621e-05
3.4792e-05
-3.36237e-05
3.85501e-05
-3.20546e-05
4.2398e-05
-3.00567e-05
4.63218e-05
-2.75355e-05
5.02545e-05
-2.44068e-05
5.41018e-05
-2.06156e-05
5.77288e-05
-1.61555e-05
6.09661e-05
-1.10914e-05
6.36065e-05
-5.59057e-06
6.52857e-05
6.37668e-05
-3.70893e-05
6.22673e-06
-3.67026e-05
9.89018e-06
-3.62044e-05
1.33572e-05
-3.57388e-05
1.6679e-05
-3.51472e-05
2.01551e-05
-3.44847e-05
2.34695e-05
-3.37436e-05
2.68561e-05
-3.2847e-05
3.02715e-05
-3.17773e-05
3.37238e-05
-3.04604e-05
3.72346e-05
-2.88366e-05
4.07756e-05
-2.68338e-05
4.43204e-05
-2.43867e-05
4.78086e-05
-2.14418e-05
5.11581e-05
-1.79711e-05
5.42594e-05
-1.39849e-05
5.69812e-05
-9.54573e-06
5.91682e-05
-4.78906e-06
6.05308e-05
5.89778e-05
-3.41432e-05
6.02775e-06
-3.38167e-05
9.56427e-06
-3.34018e-05
1.29432e-05
-3.29463e-05
1.62247e-05
-3.23658e-05
1.95758e-05
-3.17057e-05
2.28105e-05
-3.09302e-05
2.60818e-05
-3.00024e-05
2.93449e-05
-2.88935e-05
3.26161e-05
-2.75514e-05
3.58936e-05
-2.5929e-05
3.91544e-05
-2.39749e-05
4.23673e-05
-2.16445e-05
4.54792e-05
-1.89052e-05
4.842e-05
-1.5746e-05
5.11013e-05
-1.21851e-05
5.34213e-05
-8.27862e-06
5.5263e-05
-4.13835e-06
5.63907e-05
5.48402e-05
-3.12923e-05
5.88804e-06
-3.10221e-05
9.29454e-06
-3.0663e-05
1.25849e-05
-3.02287e-05
1.57913e-05
-2.96723e-05
1.90203e-05
-2.90217e-05
2.2161e-05
-2.82421e-05
2.53033e-05
-2.73116e-05
2.84154e-05
-2.62013e-05
3.15069e-05
-2.4874e-05
3.45673e-05
-2.32937e-05
3.75751e-05
-2.14243e-05
4.04988e-05
-1.92363e-05
4.32921e-05
-1.67113e-05
4.58958e-05
-1.38482e-05
4.82391e-05
-1.06685e-05
5.02426e-05
-7.22194e-06
5.18169e-05
-3.59895e-06
5.27689e-05
5.12412e-05
-2.85363e-05
5.79602e-06
-2.83164e-05
9.07505e-06
-2.80016e-05
1.22708e-05
-2.75964e-05
1.5387e-05
-2.7072e-05
1.84968e-05
-2.64426e-05
2.15325e-05
-2.5681e-05
2.45425e-05
-2.47709e-05
2.75062e-05
-2.36881e-05
3.0425e-05
-2.24052e-05
3.32853e-05
-2.08959e-05
3.60664e-05
-1.91349e-05
3.87386e-05
-1.71038e-05
4.12617e-05
-1.47934e-05
4.35862e-05
-1.22087e-05
4.56551e-05
-9.37178e-06
4.74063e-05
-6.32524e-06
4.87713e-05
-3.1446e-06
4.95883e-05
4.80971e-05
-2.58732e-05
5.7425e-06
-2.56984e-05
8.90057e-06
-2.54244e-05
1.19973e-05
-2.50543e-05
1.50176e-05
-2.45683e-05
1.80114e-05
-2.39717e-05
2.09366e-05
-2.32446e-05
2.38162e-05
-2.23738e-05
2.66361e-05
-2.134e-05
2.93919e-05
-2.01234e-05
3.20693e-05
-1.87047e-05
3.46483e-05
-1.70671e-05
3.71017e-05
-1.51998e-05
3.93949e-05
-1.30998e-05
4.14868e-05
-1.07752e-05
4.33311e-05
-8.24749e-06
4.48792e-05
-5.55345e-06
4.60776e-05
-2.75503e-06
4.67908e-05
4.5342e-05
-2.32994e-05
5.72145e-06
-2.31664e-05
8.76778e-06
-2.29334e-05
1.17649e-05
-2.26034e-05
1.46881e-05
-2.21615e-05
1.75701e-05
-2.16081e-05
2.03837e-05
-2.09286e-05
2.31372e-05
-2.01118e-05
2.58199e-05
-1.91431e-05
2.84238e-05
-1.80081e-05
3.09348e-05
-1.66933e-05
3.3334e-05
-1.51879e-05
3.55969e-05
-1.34864e-05
3.76939e-05
-1.15898e-05
3.95907e-05
-9.50787e-06
4.12497e-05
-7.26064e-06
4.26324e-05
-4.87946e-06
4.36971e-05
-2.41682e-06
4.43281e-05
4.29255e-05
-2.08103e-05
5.73029e-06
-2.07176e-05
8.67528e-06
-2.05277e-05
1.15753e-05
-2.02424e-05
1.44033e-05
-1.98503e-05
1.71785e-05
-1.93488e-05
1.98826e-05
-1.87269e-05
2.25159e-05
-1.79755e-05
2.5069e-05
-1.70837e-05
2.75325e-05
-1.6041e-05
2.98926e-05
-1.48384e-05
3.21318e-05
-1.34697e-05
3.42286e-05
-1.19328e-05
3.61574e-05
-1.02313e-05
3.78896e-05
-8.37575e-06
3.93946e-05
-6.38428e-06
4.06414e-05
-4.28408e-06
4.1597e-05
-2.11878e-06
4.21634e-05
4.08067e-05
-1.84e-05
5.76911e-06
-1.83481e-05
8.62361e-06
-1.82041e-05
1.14316e-05
-1.79684e-05
1.41679e-05
-1.76314e-05
1.68418e-05
-1.7189e-05
1.94406e-05
-1.66329e-05
2.19601e-05
-1.59555e-05
2.4392e-05
-1.51489e-05
2.67262e-05
-1.42058e-05
2.89498e-05
-1.31205e-05
3.10469e-05
-1.18899e-05
3.29984e-05
-1.05145e-05
3.47824e-05
-8.99942e-06
3.63748e-05
-7.35518e-06
3.77506e-05
-5.59832e-06
3.88848e-05
-3.75196e-06
3.97511e-05
-1.85367e-06
4.0265e-05
3.89532e-05
-1.60615e-05
5.8403e-06
-1.60529e-05
8.6151e-06
-1.59587e-05
1.13376e-05
-1.57773e-05
1.39867e-05
-1.55004e-05
1.65652e-05
-1.51232e-05
1.90636e-05
-1.46389e-05
2.14762e-05
-1.40416e-05
2.37951e-05
-1.33256e-05
2.60106e-05
-1.24862e-05
2.81108e-05
-1.15203e-05
3.00813e-05
-1.04271e-05
3.19055e-05
-9.20878e-06
3.35643e-05
-7.87134e-06
3.50377e-05
-6.42507e-06
3.63046e-05
-4.8848e-06
3.73448e-05
-3.27065e-06
3.8137e-05
-1.61416e-06
3.86088e-05
3.7339e-05
-1.37877e-05
5.94878e-06
-1.38266e-05
8.65407e-06
-1.37871e-05
1.12982e-05
-1.36655e-05
1.38653e-05
-1.34542e-05
1.63541e-05
-1.31481e-05
1.87577e-05
-1.27417e-05
2.10701e-05
-1.22303e-05
2.32841e-05
-1.16101e-05
2.53907e-05
-1.08783e-05
2.73792e-05
-1.00334e-05
2.92368e-05
-9.07632e-06
3.09487e-05
-8.0103e-06
3.24986e-05
-6.84172e-06
3.38693e-05
-5.58034e-06
3.50435e-05
-4.23949e-06
3.60042e-05
-2.83649e-06
3.67343e-05
-1.39905e-06
3.71713e-05
3.594e-05
-1.15706e-05
6.10138e-06
-1.16622e-05
8.74573e-06
-1.16814e-05
1.13175e-05
-1.16223e-05
1.38064e-05
-1.14777e-05
1.62097e-05
-1.12425e-05
1.85228e-05
-1.09125e-05
2.07405e-05
-1.04847e-05
2.28567e-05
-9.95728e-06
2.48636e-05
-9.32936e-06
2.67516e-05
-8.60154e-06
2.85093e-05
-7.77607e-06
3.01235e-05
-6.85718e-06
3.15799e-05
-5.85148e-06
3.28639e-05
-4.76817e-06
3.39604e-05
-3.6193e-06
3.48555e-05
-2.41976e-06
3.55348e-05
-1.1924e-06
3.59442e-05
3.47477e-05
-9.40904e-06
6.31114e-06
-9.56693e-06
8.90366e-06
-9.66059e-06
1.14113e-05
-9.68255e-06
1.38285e-05
-9.62512e-06
1.61525e-05
-9.48237e-06
1.83803e-05
-9.24987e-06
2.05083e-05
-8.92464e-06
2.25319e-05
-8.50518e-06
2.44445e-05
-7.99139e-06
2.62381e-05
-7.38472e-06
2.79028e-05
-6.68823e-06
2.94272e-05
-5.90672e-06
3.07986e-05
-5.04678e-06
3.20041e-05
-4.1169e-06
3.30306e-05
-3.12729e-06
3.3866e-05
-2.09141e-06
3.44991e-05
-1.03011e-06
3.4883e-05
3.37176e-05
-7.2547e-06
6.56474e-06
-7.45392e-06
9.10294e-06
-7.58386e-06
1.15413e-05
-7.64048e-06
1.38853e-05
-7.62088e-06
1.61331e-05
-7.5231e-06
1.82828e-05
-7.3464e-06
2.03319e-05
-7.09075e-06
2.22765e-05
-6.75663e-06
2.41106e-05
-6.34508e-06
2.58268e-05
-5.85791e-06
2.74158e-05
-5.29803e-06
2.88674e-05
-4.66957e-06
3.01703e-05
-3.97828e-06
3.13129e-05
-3.23219e-06
3.22846e-05
-2.44349e-06
3.30773e-05
-1.62977e-06
3.36854e-05
-8.01511e-07
3.40547e-05
3.29161e-05
-5.38669e-06
7.02623e-06
-5.78498e-06
9.50127e-06
-6.1e-06
1.18564e-05
-6.31167e-06
1.40971e-05
-6.41661e-06
1.62382e-05
-6.42027e-06
1.82867e-05
-6.32947e-06
2.02413e-05
-6.15074e-06
2.20979e-05
-5.8902e-06
2.38502e-05
-5.55358e-06
2.54902e-05
-5.14646e-06
2.70088e-05
-4.67442e-06
2.83954e-05
-4.1433e-06
2.96392e-05
-3.55941e-06
3.0729e-05
-2.92838e-06
3.16535e-05
-2.25197e-06
3.24009e-05
-1.52282e-06
3.29562e-05
-7.51275e-07
3.32831e-05
3.21648e-05
-2.37609e-06
-2.66137e-06
-2.93929e-06
-3.19092e-06
-3.39753e-06
-3.54409e-06
-3.62149e-06
-3.62563e-06
-3.55625e-06
-3.41587e-06
-3.20882e-06
-2.94076e-06
-2.61826e-06
-2.24815e-06
-1.83732e-06
-1.39241e-06
-9.26267e-07
-4.54327e-07
)
;

boundaryField
{
    leftWall
    {
        type            fixedValue;
        value           nonuniform 0();
    }
    rightWall
    {
        type            fixedValue;
        value           uniform 0;
    }
    lowerWall
    {
        type            fixedValue;
        value           nonuniform 0();
    }
    atmosphere
    {
        type            calculated;
        value           nonuniform List<scalar> 
23
(
6.80556e-07
1.24112e-06
1.77176e-06
2.2797e-06
7.28349e-06
9.78657e-06
1.21344e-05
1.43487e-05
1.64449e-05
1.84333e-05
2.03187e-05
2.21021e-05
2.37809e-05
2.53499e-05
2.68017e-05
2.81274e-05
2.93167e-05
3.03589e-05
3.12427e-05
3.1956e-05
3.249e-05
3.28112e-05
3.17105e-05
)
;
    }
    defaultFaces
    {
        type            empty;
        value           nonuniform 0();
    }
    procBoundary3to1
    {
        type            processor;
        value           nonuniform List<scalar> 
23
(
-8.49406e-06
-8.57952e-06
-9.10879e-06
-9.45701e-06
-2.285e-05
-2.41397e-05
-2.63982e-05
-2.57521e-05
-2.53499e-05
-2.59341e-05
-2.51362e-05
-2.66428e-05
-2.7077e-05
-2.93738e-05
-3.27727e-05
-3.84548e-05
-4.73244e-05
-6.09628e-05
-8.17367e-05
-0.000112866
-0.00015941
-0.000228662
-0.000261294
)
;
    }
    procBoundary3to2
    {
        type            processor;
        value           nonuniform List<scalar> 
25
(
8.06229e-05
7.22311e-05
6.74708e-05
6.47863e-05
6.07904e-05
5.62501e-05
5.18271e-05
4.78775e-05
4.42237e-05
4.07463e-05
3.74848e-05
3.43649e-05
3.13836e-05
2.8525e-05
2.57801e-05
2.31357e-05
2.05832e-05
1.81112e-05
1.57054e-05
1.33571e-05
1.10511e-05
8.75578e-06
6.53027e-06
4.09266e-06
1.99266e-06
)
;
    }
}


// ************************************************************************* //
