/*--------------------------------*- C++ -*----------------------------------*\
| =========                 |                                                 |
| \\      /  F ield         | OpenFOAM: The Open Source CFD Toolbox           |
|  \\    /   O peration     | Version:  2.4.0                                 |
|   \\  /    A nd           | Web:      www.OpenFOAM.org                      |
|    \\/     M anipulation  |                                                 |
\*---------------------------------------------------------------------------*/
FoamFile
{
    version     2.0;
    format      ascii;
    class       surfaceScalarField;
    location    "0.25";
    object      phi.air;
}
// * * * * * * * * * * * * * * * * * * * * * * * * * * * * * * * * * * * * * //

dimensions      [0 3 -1 0 0 0 0];

internalField   nonuniform List<scalar> 
1102
(
-7.69343e-05
4.79633e-06
-7.37426e-05
5.40065e-06
-7.11962e-05
6.57636e-06
7.19757e-06
-6.89221e-05
-7.03074e-05
2.85357e-06
-6.92447e-05
4.33792e-06
-6.80129e-05
5.34458e-06
5.82755e-06
-6.6643e-05
-6.7201e-05
2.56852e-06
-6.65203e-05
3.65717e-06
-6.52613e-05
4.08549e-06
4.69835e-06
-6.41321e-05
-6.44627e-05
2.23157e-06
-6.35592e-05
2.75365e-06
-6.26986e-05
3.22485e-06
3.84251e-06
-6.18428e-05
-6.01688e-05
1.59945e-06
-5.9178e-05
1.76283e-06
-5.82255e-05
2.27232e-06
2.93634e-06
-5.73194e-05
-5.55519e-05
8.91962e-07
-5.49323e-05
1.14327e-06
-5.43152e-05
1.65514e-06
2.44342e-06
-5.38223e-05
-5.12235e-05
2.81194e-07
-5.0773e-05
6.92793e-07
-5.03333e-05
1.21544e-06
2.06391e-06
-4.99539e-05
-4.75102e-05
-9.22793e-08
-4.72582e-05
4.40768e-07
-4.70979e-05
1.05519e-06
1.81525e-06
-4.68493e-05
-4.39987e-05
-3.21782e-07
-4.38799e-05
3.21924e-07
-4.37754e-05
9.50665e-07
1.65392e-06
-4.36141e-05
-4.06772e-05
-3.94875e-07
-4.0611e-05
2.55694e-07
-4.0559e-05
8.98668e-07
1.56508e-06
-4.04702e-05
-3.74588e-05
-4.23726e-07
-3.74389e-05
2.35827e-07
-3.74138e-05
8.73556e-07
1.51115e-06
-3.73599e-05
-3.43782e-05
-4.12766e-07
-3.43796e-05
2.3722e-07
-3.43733e-05
8.67138e-07
1.48336e-06
-3.43455e-05
-3.14199e-05
-3.78028e-07
-3.14382e-05
2.55506e-07
-3.14449e-05
8.73826e-07
1.47297e-06
-3.14346e-05
-2.85785e-05
-3.25838e-07
-2.86105e-05
2.87465e-07
-2.86278e-05
8.91125e-07
1.47534e-06
-2.86302e-05
-2.58444e-05
-2.62183e-07
-2.58884e-05
3.31394e-07
-2.59153e-05
9.18072e-07
1.48799e-06
-2.5928e-05
-2.32103e-05
-1.88183e-07
-2.32639e-05
3.84999e-07
-2.32997e-05
9.53875e-07
1.50959e-06
-2.33214e-05
-2.06647e-05
-1.06807e-07
-2.07268e-05
4.47069e-07
-2.07714e-05
9.98477e-07
1.54014e-06
-2.0802e-05
-1.81968e-05
-2.1261e-08
-1.82672e-05
5.17407e-07
-1.83211e-05
1.05237e-06
1.58036e-06
-1.83613e-05
-1.57991e-05
7.25506e-08
-1.58762e-05
5.9452e-07
-1.59395e-05
1.11561e-06
1.63113e-06
-1.59903e-05
-1.34543e-05
1.69941e-07
-1.35406e-05
6.80836e-07
-1.36154e-05
1.19032e-06
1.69478e-06
-1.3679e-05
-1.11537e-05
2.72822e-07
-1.125e-05
7.77075e-07
-1.13383e-05
1.27861e-06
1.77413e-06
-1.14177e-05
-8.8726e-06
3.89889e-07
-8.98846e-06
8.92945e-07
-9.09748e-06
1.3876e-06
1.87557e-06
-9.19893e-06
-6.65621e-06
5.1608e-07
-6.77238e-06
1.00908e-06
-6.88701e-06
1.50224e-06
1.98932e-06
-7.00076e-06
-4.27111e-06
6.9469e-07
-4.48339e-06
1.2214e-06
-4.70558e-06
1.72444e-06
2.20871e-06
-4.92495e-06
-1.97915e-06
-1.99944e-06
-2.04728e-06
-2.11873e-06
-6.50143e-05
1.89812e-05
-6.29341e-05
2.21029e-05
-6.0724e-05
2.42381e-05
-5.84519e-05
2.35341e-05
-5.85146e-05
2.54716e-05
-5.91133e-05
2.65957e-05
-6.03755e-05
2.64644e-05
-6.30632e-05
2.93998e-05
-6.6563e-05
3.06459e-05
-7.1439e-05
3.4321e-05
-7.74027e-05
3.88036e-05
-8.45392e-05
4.5659e-05
-9.25194e-05
5.53623e-05
-0.000100631
6.91271e-05
-0.000107148
8.82864e-05
-0.000108409
0.00011414
-9.65257e-05
0.000147503
-5.68878e-05
0.000188982
0.000204337
-6.37228e-05
1.6061e-05
-6.15624e-05
1.99425e-05
-5.94879e-05
2.21636e-05
-5.78975e-05
2.19436e-05
-5.78547e-05
2.54289e-05
-5.78492e-05
2.65901e-05
-5.91716e-05
2.77869e-05
-6.11266e-05
3.13549e-05
-6.38924e-05
3.34118e-05
-6.74758e-05
3.79044e-05
-7.17236e-05
4.30515e-05
-7.64393e-05
5.03747e-05
-8.11186e-05
6.00418e-05
-8.48535e-05
7.2862e-05
-8.59785e-05
8.94116e-05
-8.17501e-05
0.000109911
-6.78072e-05
0.000133561
-3.76209e-05
0.000158796
0.000166717
-6.19204e-05
1.38492e-05
-5.91842e-05
1.72063e-05
-5.72059e-05
2.01853e-05
-5.6722e-05
2.14598e-05
-5.64186e-05
2.51254e-05
-5.60977e-05
2.62692e-05
-5.74657e-05
2.9155e-05
-5.84901e-05
3.23793e-05
-6.06091e-05
3.55309e-05
-6.29846e-05
4.028e-05
-6.57261e-05
4.57931e-05
-6.8428e-05
5.30767e-05
-7.05803e-05
6.21942e-05
-7.13157e-05
7.35975e-05
-6.93074e-05
8.74034e-05
-6.27284e-05
0.000103332
-4.93665e-05
0.000120199
-2.66149e-05
0.000136045
0.000140102
-5.92435e-05
1.12498e-05
-5.67363e-05
1.4699e-05
-5.53764e-05
1.88253e-05
-5.50727e-05
2.11561e-05
-5.41354e-05
2.41882e-05
-5.41694e-05
2.63032e-05
-5.49225e-05
2.99081e-05
-5.55381e-05
3.29949e-05
-5.69144e-05
3.69072e-05
-5.82914e-05
4.1657e-05
-5.97722e-05
4.72739e-05
-6.09062e-05
5.42108e-05
-6.1241e-05
6.25291e-05
-6.00517e-05
7.24082e-05
-5.63809e-05
8.37327e-05
-4.9094e-05
9.60456e-05
-3.71446e-05
0.00010825
-1.96922e-05
0.000118592
0.00012041
-5.54206e-05
9.35085e-06
-5.4017e-05
1.32954e-05
-5.34389e-05
1.82472e-05
-5.26916e-05
2.04087e-05
-5.16536e-05
2.31502e-05
-5.20004e-05
2.665e-05
-5.19629e-05
2.98706e-05
-5.23853e-05
3.34173e-05
-5.30196e-05
3.75415e-05
-5.3617e-05
4.22544e-05
-5.40893e-05
4.77463e-05
-5.40669e-05
5.41884e-05
-5.31623e-05
6.16245e-05
-5.08192e-05
7.00652e-05
-4.63871e-05
7.93007e-05
-3.91996e-05
8.88583e-05
-2.88099e-05
9.78602e-05
-1.50846e-05
0.000104867
0.000105325
-5.2518e-05
8.04646e-06
-5.15543e-05
1.23318e-05
-5.08856e-05
1.75784e-05
-4.98465e-05
1.93697e-05
-4.92713e-05
2.2575e-05
-4.92403e-05
2.66191e-05
-4.89424e-05
2.95726e-05
-4.90517e-05
3.35267e-05
-4.91113e-05
3.76011e-05
-4.90937e-05
4.22368e-05
-4.88035e-05
4.74562e-05
-4.79669e-05
5.33518e-05
-4.62643e-05
5.99219e-05
-4.32926e-05
6.70935e-05
-3.86264e-05
7.46346e-05
-3.18922e-05
8.21242e-05
-2.29213e-05
8.88894e-05
-1.18915e-05
9.38376e-05
9.34337e-05
-4.95964e-05
7.68895e-06
-4.88864e-05
1.16218e-05
-4.77956e-05
1.64876e-05
-4.70594e-05
1.86335e-05
-4.67165e-05
2.2232e-05
-4.62363e-05
2.6139e-05
-4.58993e-05
2.92356e-05
-4.56418e-05
3.32692e-05
-4.52985e-05
3.72579e-05
-4.48013e-05
4.17396e-05
-4.39658e-05
4.66207e-05
-4.25834e-05
5.19694e-05
-4.04037e-05
5.77423e-05
-3.71451e-05
6.3835e-05
-3.25375e-05
7.00271e-05
-2.6383e-05
7.59697e-05
-1.86504e-05
8.11569e-05
-9.59126e-06
8.47785e-05
8.38425e-05
-4.63771e-05
7.21678e-06
-4.59245e-05
1.11692e-05
-4.48091e-05
1.53722e-05
-4.42694e-05
1.80937e-05
-4.38776e-05
2.18403e-05
-4.32222e-05
2.54836e-05
-4.28063e-05
2.88198e-05
-4.22661e-05
3.2729e-05
-4.16344e-05
3.66263e-05
-4.07842e-05
4.08894e-05
-3.95791e-05
4.54157e-05
-3.78542e-05
5.02446e-05
-3.5423e-05
5.53111e-05
-3.20931e-05
6.05051e-05
-2.76981e-05
6.56322e-05
-2.21423e-05
7.04139e-05
-1.54597e-05
7.44743e-05
-7.8876e-06
7.72066e-05
7.59549e-05
-4.32425e-05
6.84519e-06
-4.27871e-05
1.07138e-05
-4.19174e-05
1.45025e-05
-4.14424e-05
1.76187e-05
-4.09333e-05
2.13312e-05
-4.02572e-05
2.48075e-05
-3.97098e-05
2.82724e-05
-3.89893e-05
3.20086e-05
-3.81489e-05
3.57859e-05
-3.70585e-05
3.9799e-05
-3.56197e-05
4.39769e-05
-3.37034e-05
4.83283e-05
-3.11754e-05
5.27831e-05
-2.79068e-05
5.72365e-05
-2.37993e-05
6.15247e-05
-1.8815e-05
6.54296e-05
-1.30132e-05
6.86726e-05
-6.59565e-06
7.0789e-05
6.93593e-05
-4.01237e-05
6.49873e-06
-3.9693e-05
1.0283e-05
-3.90526e-05
1.38622e-05
-3.85858e-05
1.71519e-05
-3.80091e-05
2.07546e-05
-3.73421e-05
2.41405e-05
-3.66757e-05
2.76061e-05
-3.58442e-05
3.11771e-05
-3.48605e-05
3.48022e-05
-3.36214e-05
3.85599e-05
-3.20516e-05
4.24071e-05
-3.00533e-05
4.633e-05
-2.75319e-05
5.02617e-05
-2.44034e-05
5.41079e-05
-2.06126e-05
5.77339e-05
-1.61532e-05
6.09703e-05
-1.10903e-05
6.36097e-05
-5.59002e-06
6.52888e-05
6.37692e-05
-3.70925e-05
6.23133e-06
-3.67052e-05
9.89572e-06
-3.62065e-05
1.33635e-05
-3.57405e-05
1.6686e-05
-3.51484e-05
2.01626e-05
-3.44853e-05
2.34775e-05
-3.37436e-05
2.68644e-05
-3.28463e-05
3.02798e-05
-3.17761e-05
3.3732e-05
-3.04586e-05
3.72424e-05
-2.88343e-05
4.07829e-05
-2.68313e-05
4.4327e-05
-2.4384e-05
4.78145e-05
-2.14392e-05
5.11631e-05
-1.79689e-05
5.42636e-05
-1.39833e-05
5.69847e-05
-9.5447e-06
5.91711e-05
-4.78901e-06
6.05331e-05
5.89803e-05
-3.41456e-05
6.03141e-06
-3.38186e-05
9.5687e-06
-3.34033e-05
1.29483e-05
-3.29476e-05
1.62303e-05
-3.23667e-05
1.95818e-05
-3.17061e-05
2.28169e-05
-3.09301e-05
2.60884e-05
-3.00019e-05
2.93516e-05
-2.88926e-05
3.26227e-05
-2.755e-05
3.58999e-05
-2.59273e-05
3.91602e-05
-2.3973e-05
4.23726e-05
-2.16425e-05
4.5484e-05
-1.89033e-05
4.8424e-05
-1.57444e-05
5.11047e-05
-1.21839e-05
5.34242e-05
-8.27816e-06
5.52654e-05
-4.13812e-06
5.63931e-05
5.48421e-05
-3.12941e-05
5.89093e-06
-3.10235e-05
9.29806e-06
-3.06641e-05
1.2589e-05
-3.02296e-05
1.57958e-05
-2.96728e-05
1.90252e-05
-2.9022e-05
2.21661e-05
-2.8242e-05
2.53085e-05
-2.73111e-05
2.84207e-05
-2.62006e-05
3.15121e-05
-2.48729e-05
3.45722e-05
-2.32925e-05
3.75797e-05
-2.14229e-05
4.05031e-05
-1.92348e-05
4.32959e-05
-1.67099e-05
4.58991e-05
-1.38471e-05
4.82419e-05
-1.06678e-05
5.0245e-05
-7.22147e-06
5.18191e-05
-3.59904e-06
5.27707e-05
5.12431e-05
-2.85376e-05
5.79829e-06
-2.83174e-05
9.07783e-06
-2.80023e-05
1.2274e-05
-2.7597e-05
1.53905e-05
-2.70724e-05
1.85006e-05
-2.64427e-05
2.15365e-05
-2.56808e-05
2.45466e-05
-2.47705e-05
2.75104e-05
-2.36875e-05
3.0429e-05
-2.24045e-05
3.32892e-05
-2.08949e-05
3.60701e-05
-1.91339e-05
3.8742e-05
-1.71027e-05
4.12647e-05
-1.47924e-05
4.35889e-05
-1.22079e-05
4.56574e-05
-9.37123e-06
4.74083e-05
-6.32513e-06
4.8773e-05
-3.14453e-06
4.95901e-05
4.80986e-05
-2.5874e-05
5.74427e-06
-2.5699e-05
8.90276e-06
-2.54249e-05
1.19999e-05
-2.50546e-05
1.50204e-05
-2.45684e-05
1.80144e-05
-2.39717e-05
2.09398e-05
-2.32445e-05
2.38194e-05
-2.23735e-05
2.66394e-05
-2.13396e-05
2.93951e-05
-2.01228e-05
3.20724e-05
-1.8704e-05
3.46512e-05
-1.70664e-05
3.71044e-05
-1.5199e-05
3.93974e-05
-1.30991e-05
4.14889e-05
-1.07747e-05
4.3333e-05
-8.24719e-06
4.48808e-05
-5.55327e-06
4.60791e-05
-2.75518e-06
4.6792e-05
4.53434e-05
-2.32999e-05
5.72284e-06
-2.31667e-05
8.7695e-06
-2.29337e-05
1.17669e-05
-2.26036e-05
1.46903e-05
-2.21616e-05
1.75725e-05
-2.1608e-05
2.03862e-05
-2.09284e-05
2.31398e-05
-2.01116e-05
2.58225e-05
-1.91428e-05
2.84264e-05
-1.80077e-05
3.09373e-05
-1.66928e-05
3.33363e-05
-1.51874e-05
3.5599e-05
-1.34858e-05
3.76958e-05
-1.15893e-05
3.95924e-05
-9.5075e-06
4.12513e-05
-7.26042e-06
4.26338e-05
-4.87951e-06
4.36982e-05
-2.41683e-06
4.43294e-05
4.29266e-05
-2.08106e-05
5.7314e-06
-2.07177e-05
8.67665e-06
-2.05277e-05
1.15769e-05
-2.02425e-05
1.4405e-05
-1.98503e-05
1.71803e-05
-1.93487e-05
1.98846e-05
-1.87268e-05
2.25179e-05
-1.79753e-05
2.50711e-05
-1.70835e-05
2.75345e-05
-1.60407e-05
2.98945e-05
-1.48381e-05
3.21337e-05
-1.34693e-05
3.42303e-05
-1.19325e-05
3.6159e-05
-1.0231e-05
3.7891e-05
-8.37551e-06
3.93958e-05
-6.3842e-06
4.06425e-05
-4.28405e-06
4.15981e-05
-2.11894e-06
4.21643e-05
4.08077e-05
-1.84e-05
5.77003e-06
-1.83481e-05
8.62473e-06
-1.82041e-05
1.14329e-05
-1.79683e-05
1.41693e-05
-1.76313e-05
1.68433e-05
-1.71889e-05
1.94421e-05
-1.66328e-05
2.19618e-05
-1.59554e-05
2.43937e-05
-1.51487e-05
2.67278e-05
-1.42056e-05
2.89514e-05
-1.31202e-05
3.10484e-05
-1.18896e-05
3.29997e-05
-1.05143e-05
3.47836e-05
-8.99922e-06
3.63759e-05
-7.35506e-06
3.77516e-05
-5.59827e-06
3.88857e-05
-3.75208e-06
3.97519e-05
-1.85371e-06
4.02659e-05
3.8954e-05
-1.60614e-05
5.84111e-06
-1.60527e-05
8.61605e-06
-1.59585e-05
1.13386e-05
-1.57771e-05
1.39879e-05
-1.55002e-05
1.65664e-05
-1.5123e-05
1.90649e-05
-1.46387e-05
2.14775e-05
-1.40415e-05
2.37964e-05
-1.33255e-05
2.60118e-05
-1.24861e-05
2.8112e-05
-1.15202e-05
3.00825e-05
-1.0427e-05
3.19065e-05
-9.20864e-06
3.35653e-05
-7.87123e-06
3.50385e-05
-6.42502e-06
3.63054e-05
-4.88484e-06
3.73455e-05
-3.2707e-06
3.81377e-05
-1.61427e-06
3.86094e-05
3.73397e-05
-1.37875e-05
5.94954e-06
-1.38264e-05
8.65492e-06
-1.37869e-05
1.12991e-05
-1.36653e-05
1.38663e-05
-1.3454e-05
1.63551e-05
-1.31479e-05
1.87588e-05
-1.27415e-05
2.10711e-05
-1.22302e-05
2.32851e-05
-1.16101e-05
2.53917e-05
-1.08782e-05
2.73801e-05
-1.00333e-05
2.92376e-05
-9.07625e-06
3.09494e-05
-8.01024e-06
3.24993e-05
-6.84168e-06
3.387e-05
-5.58034e-06
3.50441e-05
-4.23953e-06
3.60047e-05
-2.8366e-06
3.67348e-05
-1.39907e-06
3.71719e-05
3.59406e-05
-1.15703e-05
6.10215e-06
-1.16619e-05
8.74652e-06
-1.16811e-05
1.13183e-05
-1.1622e-05
1.38072e-05
-1.14774e-05
1.62105e-05
-1.12422e-05
1.85236e-05
-1.09123e-05
2.07412e-05
-1.04847e-05
2.28574e-05
-9.95724e-06
2.48643e-05
-9.32933e-06
2.67522e-05
-8.60152e-06
2.85098e-05
-7.77605e-06
3.0124e-05
-6.85717e-06
3.15804e-05
-5.85149e-06
3.28643e-05
-4.7682e-06
3.39608e-05
-3.61936e-06
3.48559e-05
-2.41978e-06
3.55352e-05
-1.19246e-06
3.59446e-05
3.47481e-05
-9.40872e-06
6.31193e-06
-9.56662e-06
8.90441e-06
-9.6603e-06
1.1412e-05
-9.68228e-06
1.38291e-05
-9.62488e-06
1.61531e-05
-9.48218e-06
1.83809e-05
-9.24976e-06
2.05088e-05
-8.9246e-06
2.25323e-05
-8.50518e-06
2.44449e-05
-7.99141e-06
2.62385e-05
-7.38474e-06
2.79032e-05
-6.68825e-06
2.94275e-05
-5.90674e-06
3.07989e-05
-5.04682e-06
3.20043e-05
-4.11694e-06
3.30309e-05
-3.12731e-06
3.38663e-05
-2.09144e-06
3.44993e-05
-1.03016e-06
3.48832e-05
3.37179e-05
-7.25441e-06
6.56558e-06
-7.45365e-06
9.10367e-06
-7.58361e-06
1.1542e-05
-7.64025e-06
1.38858e-05
-7.62068e-06
1.61336e-05
-7.52296e-06
1.82832e-05
-7.34633e-06
2.03322e-05
-7.09074e-06
2.22767e-05
-6.75666e-06
2.41108e-05
-6.34511e-06
2.5827e-05
-5.85795e-06
2.7416e-05
-5.29807e-06
2.88676e-05
-4.66962e-06
3.01705e-05
-3.97832e-06
3.13131e-05
-3.23222e-06
3.22848e-05
-2.4435e-06
3.30776e-05
-1.6298e-06
3.36856e-05
-8.01531e-07
3.4055e-05
3.29164e-05
-5.38648e-06
7.02713e-06
-5.7848e-06
9.50201e-06
-6.09983e-06
1.1857e-05
-6.31153e-06
1.40975e-05
-6.41649e-06
1.62386e-05
-6.42019e-06
1.82869e-05
-6.32943e-06
2.02415e-05
-6.15074e-06
2.20981e-05
-5.89022e-06
2.38504e-05
-5.55362e-06
2.54904e-05
-5.14649e-06
2.70089e-05
-4.67445e-06
2.83956e-05
-4.14333e-06
2.96394e-05
-3.55944e-06
3.07292e-05
-2.9284e-06
3.16538e-05
-2.25199e-06
3.24012e-05
-1.52282e-06
3.29565e-05
-7.51277e-07
3.32834e-05
3.21651e-05
-2.37601e-06
-2.66131e-06
-2.93924e-06
-3.19088e-06
-3.39749e-06
-3.54407e-06
-3.62148e-06
-3.62563e-06
-3.55627e-06
-3.41589e-06
-3.20884e-06
-2.94078e-06
-2.61828e-06
-2.24816e-06
-1.83733e-06
-1.39241e-06
-9.26266e-07
-4.54327e-07
)
;

boundaryField
{
    leftWall
    {
        type            fixedValue;
        value           nonuniform 0();
    }
    rightWall
    {
        type            fixedValue;
        value           uniform 0;
    }
    lowerWall
    {
        type            fixedValue;
        value           nonuniform 0();
    }
    atmosphere
    {
        type            calculated;
        value           nonuniform List<scalar> 
23
(
6.81198e-07
1.2417e-06
1.77229e-06
2.28017e-06
7.28442e-06
9.78731e-06
1.2135e-05
1.43492e-05
1.64452e-05
1.84335e-05
2.03189e-05
2.21022e-05
2.3781e-05
2.535e-05
2.68019e-05
2.81276e-05
2.93169e-05
3.03591e-05
3.1243e-05
3.19563e-05
3.24903e-05
3.28115e-05
3.17108e-05
)
;
    }
    defaultFaces
    {
        type            empty;
        value           nonuniform 0();
    }
    procBoundary3to1
    {
        type            processor;
        value           nonuniform List<scalar> 
23
(
-8.50617e-06
-8.59235e-06
-9.12271e-06
-9.4717e-06
-2.2889e-05
-2.41831e-05
-2.64481e-05
-2.58062e-05
-2.54088e-05
-2.59969e-05
-2.52022e-05
-2.67121e-05
-2.71461e-05
-2.9445e-05
-3.28399e-05
-3.85224e-05
-4.7382e-05
-6.1015e-05
-8.17699e-05
-0.000112878
-0.000159387
-0.00022862
-0.000261225
)
;
    }
    procBoundary3to2
    {
        type            processor;
        value           nonuniform List<scalar> 
25
(
8.06441e-05
7.22501e-05
6.74861e-05
6.47996e-05
6.0801e-05
5.62594e-05
5.18343e-05
4.78837e-05
4.42282e-05
4.07503e-05
3.74876e-05
3.43673e-05
3.13852e-05
2.85263e-05
2.57807e-05
2.31362e-05
2.05833e-05
1.81112e-05
1.57053e-05
1.33569e-05
1.10508e-05
8.75552e-06
6.53e-06
4.0925e-06
1.99267e-06
)
;
    }
}


// ************************************************************************* //
