/*--------------------------------*- C++ -*----------------------------------*\
| =========                 |                                                 |
| \\      /  F ield         | OpenFOAM: The Open Source CFD Toolbox           |
|  \\    /   O peration     | Version:  2.4.0                                 |
|   \\  /    A nd           | Web:      www.OpenFOAM.org                      |
|    \\/     M anipulation  |                                                 |
\*---------------------------------------------------------------------------*/
FoamFile
{
    version     2.0;
    format      ascii;
    class       volVectorField;
    location    "0.25";
    object      U.air;
}
// * * * * * * * * * * * * * * * * * * * * * * * * * * * * * * * * * * * * * //

dimensions      [0 1 -1 0 0 0 0];

internalField   nonuniform List<vector> 
575
(
(-0.423704 0.076804 0)
(-0.402833 0.0757157 0)
(-0.39218 0.0859901 0)
(-0.379748 0.0912521 0)
(-0.380267 0.0347079 0)
(-0.375576 0.0509206 0)
(-0.371282 0.0671194 0)
(-0.364894 0.0720537 0)
(-0.360109 0.0292924 0)
(-0.360104 0.0486412 0)
(-0.35878 0.0556552 0)
(-0.347566 0.0631874 0)
(-0.347858 0.0293511 0)
(-0.342219 0.0364098 0)
(-0.340058 0.0403863 0)
(-0.33213 0.0473877 0)
(-0.323193 0.0217371 0)
(-0.320286 0.0249646 0)
(-0.319289 0.0308871 0)
(-0.310089 0.0379704 0)
(-0.299325 0.0145138 0)
(-0.294565 0.0157343 0)
(-0.29472 0.0225164 0)
(-0.291401 0.0298225 0)
(-0.275926 0.00537722 0)
(-0.27147 0.00969637 0)
(-0.271492 0.0145746 0)
(-0.271305 0.0249104 0)
(-0.256267 0.000996418 0)
(-0.25251 0.00565421 0)
(-0.252198 0.01259 0)
(-0.25391 0.021414 0)
(-0.236848 -0.00320715 0)
(-0.234733 0.00407747 0)
(-0.2341 0.0109736 0)
(-0.235681 0.0191084 0)
(-0.21866 -0.00419824 0)
(-0.217631 0.00295881 0)
(-0.216579 0.0102655 0)
(-0.218193 0.0179024 0)
(-0.201264 -0.00484609 0)
(-0.200789 0.0026125 0)
(-0.199795 0.00985158 0)
(-0.200996 0.0171419 0)
(-0.18461 -0.00485995 0)
(-0.184512 0.00252811 0)
(-0.183636 0.00971474 0)
(-0.184454 0.0167391 0)
(-0.168645 -0.00459529 0)
(-0.168781 0.00266192 0)
(-0.168113 0.00973931 0)
(-0.168592 0.0165669 0)
(-0.153325 -0.00408934 0)
(-0.153604 0.00295916 0)
(-0.153172 0.00989329 0)
(-0.153402 0.0165577 0)
(-0.138603 -0.00340838 0)
(-0.138962 0.00340256 0)
(-0.138757 0.0101592 0)
(-0.138834 0.016674 0)
(-0.124427 -0.0026041 0)
(-0.124827 0.00396825 0)
(-0.124823 0.0105295 0)
(-0.124828 0.0168956 0)
(-0.110739 -0.00171621 0)
(-0.111158 0.00463608 0)
(-0.111316 0.0109996 0)
(-0.111317 0.0172167 0)
(-0.0974805 -0.000755864 0)
(-0.0979062 0.00539834 0)
(-0.0981939 0.0115723 0)
(-0.0982405 0.0176425 0)
(-0.0845869 0.000256487 0)
(-0.0850336 0.00624551 0)
(-0.0854149 0.0122512 0)
(-0.0855381 0.018183 0)
(-0.0719897 0.00132428 0)
(-0.0724587 0.0071839 0)
(-0.0729201 0.0130494 0)
(-0.0731483 0.0188585 0)
(-0.0596225 0.00245942 0)
(-0.0601305 0.00823079 0)
(-0.0606623 0.0139907 0)
(-0.0610118 0.0196964 0)
(-0.0473337 0.003815 0)
(-0.0479416 0.00949047 0)
(-0.0485723 0.015147 0)
(-0.049078 0.0207617 0)
(-0.0354158 0.00480424 0)
(-0.036041 0.0105871 0)
(-0.0366894 0.0163081 0)
(-0.0372756 0.0219235 0)
(-0.0223729 0.00741213 0)
(-0.0235153 0.0129684 0)
(-0.0246764 0.0184722 0)
(-0.0258555 0.0239133 0)
(-0.0106587 0.00778342 0)
(-0.0106515 0.0141781 0)
(-0.0108459 0.0202312 0)
(-0.0111614 0.0260257 0)
(-0.356708 0.0995573 0)
(-0.344638 0.112532 0)
(-0.336054 0.125244 0)
(-0.317095 0.121957 0)
(-0.313138 0.122426 0)
(-0.318754 0.127188 0)
(-0.316263 0.125385 0)
(-0.335666 0.136352 0)
(-0.344279 0.140437 0)
(-0.372237 0.155149 0)
(-0.398191 0.174363 0)
(-0.434884 0.205009 0)
(-0.474965 0.250235 0)
(-0.518842 0.316807 0)
(-0.558783 0.413399 0)
(-0.582177 0.55023 0)
(-0.569196 0.739495 0)
(-0.411251 0.998439 0)
(-0.186422 1.10645 0)
(-0.34848 0.083642 0)
(-0.34113 0.104711 0)
(-0.323759 0.112404 0)
(-0.314012 0.108607 0)
(-0.311704 0.12513 0)
(-0.311537 0.13134 0)
(-0.311692 0.130944 0)
(-0.325663 0.14831 0)
(-0.333315 0.15542 0)
(-0.353838 0.175666 0)
(-0.372815 0.198983 0)
(-0.39798 0.233506 0)
(-0.42294 0.280525 0)
(-0.446163 0.344926 0)
(-0.459927 0.431158 0)
(-0.453079 0.542611 0)
(-0.411963 0.678536 0)
(-0.282823 0.835154 0)
(-0.114147 0.889576 0)
(-0.340698 0.0741811 0)
(-0.327628 0.0893168 0)
(-0.311275 0.103563 0)
(-0.304025 0.104645 0)
(-0.307972 0.122756 0)
(-0.298191 0.127815 0)
(-0.307036 0.138491 0)
(-0.310742 0.155 0)
(-0.319276 0.167383 0)
(-0.332177 0.190008 0)
(-0.345134 0.215825 0)
(-0.360337 0.251307 0)
(-0.373315 0.296826 0)
(-0.38156 0.355443 0)
(-0.378716 0.428729 0)
(-0.356526 0.516426 0)
(-0.30636 0.613449 0)
(-0.204204 0.710584 0)
(-0.0768546 0.738982 0)
(-0.321908 0.0620348 0)
(-0.309525 0.0775048 0)
(-0.298983 0.0935076 0)
(-0.298627 0.103912 0)
(-0.29413 0.121761 0)
(-0.288502 0.126581 0)
(-0.294835 0.144355 0)
(-0.295486 0.158365 0)
(-0.302107 0.17605 0)
(-0.309246 0.198948 0)
(-0.316841 0.225992 0)
(-0.324108 0.260473 0)
(-0.328124 0.302707 0)
(-0.32617 0.354198 0)
(-0.313525 0.414909 0)
(-0.284616 0.483016 0)
(-0.234243 0.552872 0)
(-0.153163 0.615224 0)
(-0.0547091 0.62925 0)
(-0.301819 0.0500106 0)
(-0.293751 0.0665922 0)
(-0.285717 0.0900865 0)
(-0.29001 0.102317 0)
(-0.275025 0.113696 0)
(-0.281292 0.128711 0)
(-0.277863 0.145369 0)
(-0.28035 0.160997 0)
(-0.282881 0.180848 0)
(-0.286252 0.203648 0)
(-0.289124 0.230656 0)
(-0.290466 0.263072 0)
(-0.288083 0.301237 0)
(-0.27959 0.345569 0)
(-0.261658 0.395272 0)
(-0.230753 0.448084 0)
(-0.183904 0.499157 0)
(-0.118685 0.540581 0)
(-0.0404983 0.545918 0)
(-0.280876 0.0385145 0)
(-0.279385 0.0622076 0)
(-0.275981 0.0874888 0)
(-0.271648 0.0963116 0)
(-0.262602 0.110594 0)
(-0.267444 0.129772 0)
(-0.261665 0.143993 0)
(-0.263839 0.162488 0)
(-0.263174 0.182367 0)
(-0.263712 0.20502 0)
(-0.262793 0.231027 0)
(-0.25989 0.260924 0)
(-0.25316 0.29486 0)
(-0.240763 0.332655 0)
(-0.220414 0.373234 0)
(-0.189954 0.414423 0)
(-0.147884 0.45245 0)
(-0.0940509 0.481128 0)
(-0.0316585 0.481092 0)
(-0.26422 0.038624 0)
(-0.263901 0.0566946 0)
(-0.262836 0.0824713 0)
(-0.251631 0.0915097 0)
(-0.252507 0.108494 0)
(-0.249993 0.128165 0)
(-0.246432 0.142436 0)
(-0.246242 0.162109 0)
(-0.243817 0.181586 0)
(-0.241971 0.203739 0)
(-0.238283 0.228242 0)
(-0.232439 0.255503 0)
(-0.222936 0.285416 0)
(-0.208438 0.317543 0)
(-0.187416 0.350785 0)
(-0.158592 0.383267 0)
(-0.121321 0.412136 0)
(-0.0762037 0.43281 0)
(-0.0254836 0.429518 0)
(-0.248588 0.0353432 0)
(-0.246336 0.0548696 0)
(-0.247188 0.0765704 0)
(-0.235296 0.0885083 0)
(-0.238886 0.106679 0)
(-0.233022 0.124996 0)
(-0.230855 0.140695 0)
(-0.228528 0.16006 0)
(-0.225055 0.179183 0)
(-0.22132 0.200432 0)
(-0.215733 0.223255 0)
(-0.207952 0.247941 0)
(-0.196837 0.274219 0)
(-0.181437 0.30157 0)
(-0.160756 0.328989 0)
(-0.134075 0.354948 0)
(-0.101199 0.377311 0)
(-0.0629339 0.392671 0)
(-0.0209093 0.387351 0)
(-0.233029 0.0338035 0)
(-0.229191 0.052686 0)
(-0.230144 0.071686 0)
(-0.221045 0.0861751 0)
(-0.222946 0.104434 0)
(-0.217124 0.121625 0)
(-0.214846 0.138352 0)
(-0.211263 0.156916 0)
(-0.207009 0.175584 0)
(-0.201934 0.195689 0)
(-0.195117 0.216817 0)
(-0.186166 0.239092 0)
(-0.174264 0.262184 0)
(-0.158746 0.285573 0)
(-0.138978 0.30839 0)
(-0.114585 0.329429 0)
(-0.085602 0.347103 0)
(-0.0528185 0.358824 0)
(-0.0174447 0.352294 0)
(-0.216919 0.0318685 0)
(-0.212657 0.0505413 0)
(-0.213274 0.068201 0)
(-0.206851 0.0839787 0)
(-0.206687 0.101777 0)
(-0.20176 0.118402 0)
(-0.198873 0.135375 0)
(-0.194649 0.153117 0)
(-0.189796 0.171136 0)
(-0.183867 0.190014 0)
(-0.176323 0.209503 0)
(-0.166777 0.229586 0)
(-0.154665 0.249933 0)
(-0.139524 0.270062 0)
(-0.120968 0.289249 0)
(-0.0988243 0.306552 0)
(-0.0732373 0.320797 0)
(-0.0449105 0.329981 0)
(-0.0147562 0.32281 0)
(-0.200792 0.0304599 0)
(-0.196808 0.0485342 0)
(-0.196985 0.0655636 0)
(-0.192318 0.0817378 0)
(-0.190877 0.0989424 0)
(-0.186678 0.115231 0)
(-0.183281 0.131946 0)
(-0.178749 0.148922 0)
(-0.173496 0.166141 0)
(-0.167097 0.183801 0)
(-0.159203 0.201746 0)
(-0.149484 0.219875 0)
(-0.137552 0.237881 0)
(-0.123092 0.255337 0)
(-0.105881 0.27165 0)
(-0.0858642 0.286091 0)
(-0.0632288 0.297786 0)
(-0.0385825 0.305154 0)
(-0.0126194 0.297696 0)
(-0.184892 0.029359 0)
(-0.181487 0.0468417 0)
(-0.181299 0.0634318 0)
(-0.177711 0.0795216 0)
(-0.175654 0.0961132 0)
(-0.171911 0.112055 0)
(-0.168233 0.128266 0)
(-0.163586 0.144502 0)
(-0.158134 0.160853 0)
(-0.151553 0.177346 0)
(-0.143597 0.193868 0)
(-0.134004 0.210275 0)
(-0.12251 0.226294 0)
(-0.108909 0.241555 0)
(-0.09308 0.25558 0)
(-0.0750378 0.267805 0)
(-0.054977 0.27757 0)
(-0.0334165 0.283607 0)
(-0.0108865 0.276076 0)
(-0.16938 0.028584 0)
(-0.166626 0.0454336 0)
(-0.166173 0.0616158 0)
(-0.16329 0.0773938 0)
(-0.161002 0.0933833 0)
(-0.157561 0.108899 0)
(-0.153798 0.124502 0)
(-0.149168 0.140003 0)
(-0.143694 0.155473 0)
(-0.137147 0.170873 0)
(-0.129342 0.1861 0)
(-0.120084 0.201002 0)
(-0.109195 0.215337 0)
(-0.0965471 0.228792 0)
(-0.0820845 0.240982 0)
(-0.065859 0.251469 0)
(-0.0480572 0.259752 0)
(-0.02912 0.264796 0)
(-0.00945398 0.257328 0)
(-0.15433 0.0280639 0)
(-0.1522 0.0442845 0)
(-0.151586 0.0600276 0)
(-0.149208 0.0753922 0)
(-0.146897 0.0907945 0)
(-0.143703 0.105819 0)
(-0.139996 0.120779 0)
(-0.135488 0.135551 0)
(-0.130136 0.15016 0)
(-0.123781 0.164547 0)
(-0.116283 0.178609 0)
(-0.107504 0.1922 0)
(-0.0973241 0.205107 0)
(-0.0856697 0.217069 0)
(-0.072528 0.227776 0)
(-0.0579685 0.236885 0)
(-0.0421626 0.244015 0)
(-0.0254846 0.248308 0)
(-0.0082485 0.240985 0)
(-0.139776 0.0277486 0)
(-0.138201 0.0433645 0)
(-0.137522 0.0586386 0)
(-0.135538 0.0735462 0)
(-0.133325 0.0883759 0)
(-0.130373 0.10287 0)
(-0.126825 0.117187 0)
(-0.122523 0.131246 0)
(-0.117405 0.145037 0)
(-0.111359 0.158492 0)
(-0.10428 0.171513 0)
(-0.0960732 0.183962 0)
(-0.0866623 0.195657 0)
(-0.07601 0.206378 0)
(-0.0641295 0.215876 0)
(-0.0510978 0.223882 0)
(-0.0370686 0.230102 0)
(-0.0223605 0.233816 0)
(-0.00721751 0.226686 0)
(-0.125719 0.0276009 0)
(-0.124624 0.0426521 0)
(-0.123962 0.0574444 0)
(-0.122313 0.0718808 0)
(-0.120275 0.0861557 0)
(-0.117581 0.100104 0)
(-0.114268 0.113795 0)
(-0.110242 0.127168 0)
(-0.105442 0.140192 0)
(-0.0997888 0.152797 0)
(-0.0932068 0.16489 0)
(-0.0856317 0.176345 0)
(-0.0770191 0.187005 0)
(-0.0673562 0.196689 0)
(-0.0566717 0.205193 0)
(-0.0450437 0.212306 0)
(-0.0326084 0.217798 0)
(-0.0196379 0.221062 0)
(-0.00632328 0.214147 0)
(-0.112139 0.0276008 0)
(-0.111459 0.0421359 0)
(-0.110882 0.0564509 0)
(-0.10954 0.0704191 0)
(-0.10773 0.0841612 0)
(-0.10532 0.0975691 0)
(-0.102297 0.110658 0)
(-0.098603 0.123381 0)
(-0.0941844 0.135692 0)
(-0.0889844 0.147526 0)
(-0.0829509 0.158793 0)
(-0.0760429 0.169382 0)
(-0.0682377 0.179159 0)
(-0.0595393 0.18797 0)
(-0.0499851 0.195651 0)
(-0.0396509 0.202035 0)
(-0.0286564 0.206939 0)
(-0.0172349 0.209847 0)
(-0.00553752 0.203155 0)
(-0.0990034 0.0277433 0)
(-0.0986874 0.0418142 0)
(-0.0982558 0.0556707 0)
(-0.0972097 0.0691838 0)
(-0.0956686 0.082419 0)
(-0.0935706 0.0953017 0)
(-0.090882 0.10782 0)
(-0.0875637 0.11993 0)
(-0.0835722 0.131584 0)
(-0.0788679 0.142718 0)
(-0.0734158 0.15325 0)
(-0.0671926 0.163081 0)
(-0.0601909 0.172096 0)
(-0.0524256 0.180167 0)
(-0.0439384 0.18716 0)
(-0.034801 0.19294 0)
(-0.0251181 0.197362 0)
(-0.0150905 0.199985 0)
(-0.00483971 0.193514 0)
(-0.0862735 0.0280354 0)
(-0.0862859 0.0416943 0)
(-0.0860509 0.0551199 0)
(-0.0853052 0.0681976 0)
(-0.0840675 0.0809532 0)
(-0.0823074 0.0933338 0)
(-0.0799868 0.105314 0)
(-0.0770764 0.116854 0)
(-0.0735434 0.127906 0)
(-0.0693606 0.138409 0)
(-0.0645072 0.14829 0)
(-0.0589725 0.157461 0)
(-0.0527605 0.165823 0)
(-0.0458929 0.173268 0)
(-0.0384134 0.179687 0)
(-0.0303886 0.184967 0)
(-0.0219108 0.188994 0)
(-0.0131513 0.19139 0)
(-0.00421082 0.185128 0)
(-0.0739014 0.0284971 0)
(-0.0742271 0.0417946 0)
(-0.0742375 0.0548229 0)
(-0.0738083 0.0674888 0)
(-0.0729068 0.0797933 0)
(-0.0715141 0.0916974 0)
(-0.069594 0.103171 0)
(-0.0671237 0.114178 0)
(-0.0640788 0.124673 0)
(-0.0604418 0.1346 0)
(-0.0562018 0.143893 0)
(-0.0513573 0.152477 0)
(-0.0459192 0.160265 0)
(-0.0399134 0.167167 0)
(-0.033383 0.173092 0)
(-0.0263897 0.177947 0)
(-0.0190138 0.181642 0)
(-0.011405 0.183847 0)
(-0.00364705 0.177782 0)
(-0.0618375 0.0291523 0)
(-0.0624765 0.0421296 0)
(-0.0627729 0.0547887 0)
(-0.0626721 0.0670619 0)
(-0.0621185 0.0789388 0)
(-0.0610948 0.0903918 0)
(-0.0595704 0.101393 0)
(-0.0575292 0.111911 0)
(-0.0549573 0.121904 0)
(-0.0518479 0.131322 0)
(-0.0482005 0.140106 0)
(-0.044023 0.148187 0)
(-0.0393326 0.155492 0)
(-0.0341586 0.161941 0)
(-0.0285431 0.167457 0)
(-0.0225426 0.171964 0)
(-0.0162301 0.175385 0)
(-0.00972624 0.177446 0)
(-0.00310633 0.171558 0)
(-0.050052 0.0300678 0)
(-0.0510493 0.0427754 0)
(-0.0517192 0.0551052 0)
(-0.0520359 0.0670142 0)
(-0.0519366 0.0784885 0)
(-0.0513968 0.0895098 0)
(-0.0503846 0.100057 0)
(-0.048882 0.110104 0)
(-0.0468766 0.119616 0)
(-0.0443643 0.12855 0)
(-0.0413489 0.136855 0)
(-0.0378427 0.144471 0)
(-0.033867 0.151335 0)
(-0.0294526 0.157378 0)
(-0.0246402 0.162535 0)
(-0.0194804 0.166742 0)
(-0.0140316 0.169935 0)
(-0.00840978 0.171855 0)
(-0.00267953 0.166123 0)
(-0.0383702 0.0311557 0)
(-0.0396069 0.0436109 0)
(-0.0404819 0.0556206 0)
(-0.0409806 0.0671788 0)
(-0.0410715 0.0782756 0)
(-0.0407497 0.0889009 0)
(-0.0400058 0.0990412 0)
(-0.0388386 0.108676 0)
(-0.0372493 0.117775 0)
(-0.0352414 0.126298 0)
(-0.0328226 0.1342 0)
(-0.0300054 0.141424 0)
(-0.0268085 0.147912 0)
(-0.023258 0.153602 0)
(-0.01939 0.158431 0)
(-0.0152565 0.162344 0)
(-0.0109371 0.1653 0)
(-0.00654747 0.167127 0)
(-0.00208696 0.161548 0)
(-0.0277572 0.0329132 0)
(-0.0301037 0.0450617 0)
(-0.0320538 0.0566896 0)
(-0.0334753 0.0678295 0)
(-0.0343074 0.0785047 0)
(-0.0345837 0.0887199 0)
(-0.0343361 0.0984622 0)
(-0.0336005 0.107709 0)
(-0.0324103 0.11643 0)
(-0.0307974 0.124589 0)
(-0.0287919 0.132143 0)
(-0.0264234 0.139045 0)
(-0.0237221 0.145245 0)
(-0.0207205 0.150694 0)
(-0.0174531 0.155344 0)
(-0.0139494 0.159162 0)
(-0.0101933 0.162107 0)
(-0.00615369 0.163835 0)
(-0.00194378 0.158333 0)
(-0.0120575 0.0353642 0)
(-0.013551 0.047516 0)
(-0.0150602 0.0589142 0)
(-0.0165022 0.0696652 0)
(-0.0177589 0.0798438 0)
(-0.0187223 0.0895001 0)
(-0.0193301 0.0986571 0)
(-0.0195496 0.107319 0)
(-0.0193709 0.115472 0)
(-0.0188014 0.123093 0)
(-0.0178609 0.130144 0)
(-0.016577 0.136582 0)
(-0.0149833 0.142359 0)
(-0.0131162 0.14742 0)
(-0.0110121 0.151713 0)
(-0.00871299 0.155177 0)
(-0.00619341 0.15777 0)
(-0.00373911 0.15933 0)
(-0.00116249 0.153985 0)
)
;

boundaryField
{
    leftWall
    {
        type            fixedValue;
        value           nonuniform 0();
    }
    rightWall
    {
        type            fixedValue;
        value           uniform (0 0 0);
    }
    lowerWall
    {
        type            fixedValue;
        value           nonuniform 0();
    }
    atmosphere
    {
        type            fluxCorrectedVelocity;
        value           nonuniform List<vector> 
23
(
(-0.0106587 0.00777639 0)
(-0.0106515 0.0141749 0)
(-0.0108459 0.0202321 0)
(-0.0111614 0.0260299 0)
(-0.0120575 0.035372 0)
(-0.013551 0.0475257 0)
(-0.0150602 0.0589255 0)
(-0.0165022 0.0696774 0)
(-0.0177589 0.0798553 0)
(-0.0187223 0.0895102 0)
(-0.0193301 0.0986654 0)
(-0.0195496 0.107325 0)
(-0.0193709 0.115477 0)
(-0.0188014 0.123096 0)
(-0.0178609 0.130146 0)
(-0.016577 0.136583 0)
(-0.0149833 0.142358 0)
(-0.0131162 0.147419 0)
(-0.0110121 0.151711 0)
(-0.00871299 0.155175 0)
(-0.00619341 0.157768 0)
(-0.00373911 0.159328 0)
(-0.00116249 0.153983 0)
)
;
    }
    defaultFaces
    {
        type            empty;
    }
    procBoundary3to1
    {
        type            processor;
        value           nonuniform List<vector> 
23
(
(-0.45979 0.130516 0)
(-0.426538 0.128233 0)
(-0.406481 0.127026 0)
(-0.389154 0.126432 0)
(-0.364346 0.125824 0)
(-0.347168 0.12313 0)
(-0.337529 0.133141 0)
(-0.321609 0.130302 0)
(-0.316672 0.124573 0)
(-0.318993 0.125144 0)
(-0.317841 0.118987 0)
(-0.33982 0.121816 0)
(-0.350757 0.121544 0)
(-0.3854 0.128415 0)
(-0.418806 0.141218 0)
(-0.467681 0.164188 0)
(-0.525298 0.202483 0)
(-0.595379 0.264234 0)
(-0.673239 0.362902 0)
(-0.750218 0.519536 0)
(-0.80215 0.774508 0)
(-0.631534 1.19804 0)
(-0.345479 1.43376 0)
)
;
    }
    procBoundary3to2
    {
        type            processor;
        value           nonuniform List<vector> 
25
(
(-0.445273 0.0652821 0)
(-0.400221 0.0337154 0)
(-0.367392 0.00697703 0)
(-0.347222 0.00680886 0)
(-0.331724 0.00562206 0)
(-0.307162 -0.00298686 0)
(-0.285067 -0.00750211 0)
(-0.260037 -0.0151542 0)
(-0.239726 -0.0158076 0)
(-0.22006 -0.0175022 0)
(-0.202014 -0.0174569 0)
(-0.184879 -0.0171068 0)
(-0.168592 -0.0163211 0)
(-0.15305 -0.0153149 0)
(-0.138167 -0.014165 0)
(-0.123868 -0.0129376 0)
(-0.110086 -0.0116763 0)
(-0.0967548 -0.0104006 0)
(-0.0837948 -0.00912674 0)
(-0.0711468 -0.00784944 0)
(-0.0587236 -0.0066026 0)
(-0.0464108 -0.00507618 0)
(-0.0342209 -0.00444589 0)
(-0.0214829 -0.00122357 0)
(-0.010601 -0.00233178 0)
)
;
    }
}


// ************************************************************************* //
