/*--------------------------------*- C++ -*----------------------------------*\
| =========                 |                                                 |
| \\      /  F ield         | OpenFOAM: The Open Source CFD Toolbox           |
|  \\    /   O peration     | Version:  2.4.0                                 |
|   \\  /    A nd           | Web:      www.OpenFOAM.org                      |
|    \\/     M anipulation  |                                                 |
\*---------------------------------------------------------------------------*/
FoamFile
{
    version     2.0;
    format      ascii;
    class       volVectorField;
    location    "0.25";
    object      U.oil;
}
// * * * * * * * * * * * * * * * * * * * * * * * * * * * * * * * * * * * * * //

dimensions      [0 1 -1 0 0 0 0];

internalField   nonuniform List<vector> 
575
(
(-0.423622 0.0765645 0)
(-0.402715 0.0754688 0)
(-0.392052 0.0857509 0)
(-0.37961 0.0910257 0)
(-0.380179 0.0345218 0)
(-0.375469 0.0507508 0)
(-0.371165 0.0669528 0)
(-0.364771 0.071888 0)
(-0.360032 0.0291525 0)
(-0.360007 0.0485123 0)
(-0.358674 0.0555274 0)
(-0.347457 0.0630576 0)
(-0.347784 0.0292521 0)
(-0.342133 0.0363136 0)
(-0.339967 0.0402892 0)
(-0.332037 0.0472867 0)
(-0.323129 0.0216719 0)
(-0.32021 0.0248951 0)
(-0.319209 0.0308137 0)
(-0.31001 0.0378914 0)
(-0.299269 0.0144685 0)
(-0.294502 0.0156833 0)
(-0.294654 0.02246 0)
(-0.291335 0.0297602 0)
(-0.275881 0.00534234 0)
(-0.271416 0.00965661 0)
(-0.271436 0.0145302 0)
(-0.27125 0.0248605 0)
(-0.256229 0.000969443 0)
(-0.252466 0.00562296 0)
(-0.252153 0.0125544 0)
(-0.253866 0.0213737 0)
(-0.236818 -0.0032284 0)
(-0.234697 0.00405252 0)
(-0.234063 0.0109451 0)
(-0.235645 0.0190759 0)
(-0.218635 -0.00421478 0)
(-0.217602 0.00293915 0)
(-0.216549 0.0102427 0)
(-0.218165 0.0178763 0)
(-0.201246 -0.00485915 0)
(-0.200766 0.00259685 0)
(-0.199771 0.00983344 0)
(-0.200974 0.0171209 0)
(-0.184595 -0.00486982 0)
(-0.184494 0.00251609 0)
(-0.183618 0.00970046 0)
(-0.184436 0.0167225 0)
(-0.168634 -0.00460271 0)
(-0.168766 0.00265266 0)
(-0.168098 0.00972823 0)
(-0.168578 0.0165538 0)
(-0.153316 -0.00409472 0)
(-0.153594 0.00295225 0)
(-0.153161 0.00988479 0)
(-0.153392 0.0165476 0)
(-0.138598 -0.00341237 0)
(-0.138954 0.00339732 0)
(-0.138749 0.0101527 0)
(-0.138827 0.0166661 0)
(-0.124423 -0.00260688 0)
(-0.124822 0.00396445 0)
(-0.124817 0.0105246 0)
(-0.124823 0.0168896 0)
(-0.110737 -0.00171825 0)
(-0.111155 0.00463316 0)
(-0.111313 0.0109958 0)
(-0.111314 0.017212 0)
(-0.0974795 -0.000757521 0)
(-0.0979047 0.005396 0)
(-0.0981922 0.0115692 0)
(-0.0982392 0.0176387 0)
(-0.0845871 0.000254758 0)
(-0.085033 0.00624325 0)
(-0.0854144 0.0122484 0)
(-0.0855381 0.0181797 0)
(-0.0719905 0.00132222 0)
(-0.0724594 0.00718147 0)
(-0.0729207 0.0130465 0)
(-0.0731492 0.0188553 0)
(-0.0596239 0.00245665 0)
(-0.0601316 0.00822781 0)
(-0.0606635 0.0139875 0)
(-0.0610133 0.019693 0)
(-0.0473351 0.00381148 0)
(-0.0479432 0.00948686 0)
(-0.0485739 0.0151433 0)
(-0.0490798 0.0207579 0)
(-0.0354173 0.00479996 0)
(-0.0360424 0.0105829 0)
(-0.0366909 0.0163039 0)
(-0.0372772 0.0219194 0)
(-0.022374 0.00740693 0)
(-0.0235166 0.0129633 0)
(-0.0246778 0.0184674 0)
(-0.0258568 0.0239087 0)
(-0.0106591 0.0077768 0)
(-0.0106522 0.0141719 0)
(-0.0108465 0.0202255 0)
(-0.011162 0.0260205 0)
(-0.356576 0.0993298 0)
(-0.344507 0.112322 0)
(-0.335935 0.125017 0)
(-0.316991 0.121706 0)
(-0.313055 0.12215 0)
(-0.318695 0.126887 0)
(-0.316233 0.125065 0)
(-0.335662 0.136021 0)
(-0.344305 0.140111 0)
(-0.372293 0.154828 0)
(-0.398286 0.174058 0)
(-0.435014 0.204719 0)
(-0.475131 0.249982 0)
(-0.519041 0.316595 0)
(-0.559009 0.413272 0)
(-0.582463 0.550298 0)
(-0.56981 0.740465 0)
(-0.41397 1.00483 0)
(-0.191354 1.11748 0)
(-0.348362 0.0834714 0)
(-0.341018 0.104539 0)
(-0.323659 0.112215 0)
(-0.313925 0.108397 0)
(-0.311634 0.124902 0)
(-0.311487 0.131095 0)
(-0.311664 0.130685 0)
(-0.325659 0.148043 0)
(-0.333337 0.155151 0)
(-0.353889 0.175405 0)
(-0.372898 0.198731 0)
(-0.398091 0.233277 0)
(-0.423076 0.280321 0)
(-0.446319 0.344766 0)
(-0.460094 0.431045 0)
(-0.453249 0.542565 0)
(-0.412177 0.678597 0)
(-0.283271 0.835776 0)
(-0.114714 0.890959 0)
(-0.340595 0.0740445 0)
(-0.327534 0.0891729 0)
(-0.311192 0.103403 0)
(-0.303954 0.104468 0)
(-0.307914 0.122564 0)
(-0.29815 0.12761 0)
(-0.307014 0.138275 0)
(-0.31074 0.154778 0)
(-0.319297 0.167161 0)
(-0.332222 0.189791 0)
(-0.345203 0.215618 0)
(-0.360428 0.251119 0)
(-0.373424 0.296662 0)
(-0.381682 0.355313 0)
(-0.378842 0.428636 0)
(-0.356642 0.516377 0)
(-0.306464 0.613442 0)
(-0.204304 0.710649 0)
(-0.0769172 0.739134 0)
(-0.321821 0.0619252 0)
(-0.309448 0.0773845 0)
(-0.298915 0.0933721 0)
(-0.29857 0.103762 0)
(-0.294083 0.121599 0)
(-0.288469 0.126408 0)
(-0.294818 0.144175 0)
(-0.295487 0.15818 0)
(-0.302126 0.175866 0)
(-0.309285 0.198768 0)
(-0.316899 0.225823 0)
(-0.324181 0.260319 0)
(-0.32821 0.302573 0)
(-0.326263 0.35409 0)
(-0.313619 0.41483 0)
(-0.284701 0.482969 0)
(-0.234311 0.552852 0)
(-0.153211 0.61523 0)
(-0.0547284 0.629276 0)
(-0.301746 0.0499222 0)
(-0.293688 0.0664921 0)
(-0.285662 0.0899732 0)
(-0.289963 0.102192 0)
(-0.274988 0.11356 0)
(-0.281266 0.128567 0)
(-0.27785 0.145218 0)
(-0.280352 0.160844 0)
(-0.282898 0.180696 0)
(-0.286285 0.203501 0)
(-0.289171 0.230517 0)
(-0.290525 0.262946 0)
(-0.28815 0.301128 0)
(-0.279662 0.34548 0)
(-0.261729 0.395205 0)
(-0.230816 0.44804 0)
(-0.183953 0.499132 0)
(-0.118715 0.540573 0)
(-0.0405078 0.545921 0)
(-0.280816 0.0384431 0)
(-0.279333 0.0621248 0)
(-0.275937 0.0873946 0)
(-0.271611 0.0962071 0)
(-0.262572 0.110481 0)
(-0.267424 0.129652 0)
(-0.261655 0.143868 0)
(-0.263841 0.162362 0)
(-0.263188 0.182242 0)
(-0.263739 0.204899 0)
(-0.262831 0.230913 0)
(-0.259937 0.260822 0)
(-0.253213 0.294771 0)
(-0.240818 0.332581 0)
(-0.220468 0.373177 0)
(-0.190001 0.414384 0)
(-0.147919 0.452425 0)
(-0.0940719 0.481114 0)
(-0.0316657 0.481085 0)
(-0.264171 0.038566 0)
(-0.263859 0.0566263 0)
(-0.2628 0.0823934 0)
(-0.251601 0.0914233 0)
(-0.252484 0.108401 0)
(-0.249977 0.128066 0)
(-0.246425 0.142334 0)
(-0.246245 0.162005 0)
(-0.243829 0.181483 0)
(-0.241993 0.20364 0)
(-0.238313 0.228149 0)
(-0.232476 0.255419 0)
(-0.222977 0.285344 0)
(-0.208481 0.317482 0)
(-0.187457 0.350737 0)
(-0.158627 0.383232 0)
(-0.121347 0.412112 0)
(-0.0762179 0.432793 0)
(-0.0254872 0.429506 0)
(-0.248549 0.035296 0)
(-0.246302 0.0548136 0)
(-0.24716 0.0765064 0)
(-0.235273 0.0884372 0)
(-0.238868 0.106602 0)
(-0.23301 0.124914 0)
(-0.23085 0.140611 0)
(-0.22853 0.159975 0)
(-0.225065 0.179099 0)
(-0.221337 0.200351 0)
(-0.215757 0.22318 0)
(-0.207981 0.247873 0)
(-0.196868 0.27416 0)
(-0.18147 0.301521 0)
(-0.160787 0.328949 0)
(-0.134101 0.354918 0)
(-0.101217 0.377289 0)
(-0.0629438 0.392655 0)
(-0.0209126 0.387338 0)
(-0.232997 0.033765 0)
(-0.229165 0.0526402 0)
(-0.230122 0.0716336 0)
(-0.221027 0.086117 0)
(-0.222932 0.104371 0)
(-0.217115 0.121559 0)
(-0.214843 0.138283 0)
(-0.211265 0.156847 0)
(-0.207017 0.175516 0)
(-0.201947 0.195624 0)
(-0.195136 0.216756 0)
(-0.186188 0.239037 0)
(-0.174289 0.262136 0)
(-0.158771 0.285532 0)
(-0.139001 0.308357 0)
(-0.114604 0.329403 0)
(-0.0856157 0.347084 0)
(-0.0528252 0.358808 0)
(-0.0174459 0.35228 0)
(-0.216894 0.0318374 0)
(-0.212637 0.0505041 0)
(-0.213257 0.0681584 0)
(-0.206837 0.0839315 0)
(-0.206676 0.101725 0)
(-0.201753 0.118348 0)
(-0.198871 0.135319 0)
(-0.194651 0.153061 0)
(-0.189802 0.17108 0)
(-0.183878 0.189961 0)
(-0.176337 0.209453 0)
(-0.166794 0.229541 0)
(-0.154684 0.249894 0)
(-0.139543 0.270029 0)
(-0.120985 0.289222 0)
(-0.0988385 0.30653 0)
(-0.0732466 0.32078 0)
(-0.0449151 0.329967 0)
(-0.0147577 0.322797 0)
(-0.200772 0.0304348 0)
(-0.196792 0.0485041 0)
(-0.196972 0.0655291 0)
(-0.192308 0.0816996 0)
(-0.19087 0.0989011 0)
(-0.186673 0.115187 0)
(-0.18328 0.131901 0)
(-0.178751 0.148876 0)
(-0.173501 0.166097 0)
(-0.167105 0.183758 0)
(-0.159214 0.201706 0)
(-0.149497 0.219839 0)
(-0.137566 0.237849 0)
(-0.123106 0.25531 0)
(-0.105894 0.271627 0)
(-0.0858744 0.286073 0)
(-0.0632358 0.297771 0)
(-0.0385854 0.305141 0)
(-0.0126196 0.297684 0)
(-0.184877 0.029339 0)
(-0.181475 0.0468175 0)
(-0.18129 0.0634041 0)
(-0.177703 0.0794909 0)
(-0.175649 0.09608 0)
(-0.171908 0.11202 0)
(-0.168233 0.128229 0)
(-0.163587 0.144465 0)
(-0.158138 0.160817 0)
(-0.151559 0.177312 0)
(-0.143605 0.193836 0)
(-0.134014 0.210246 0)
(-0.12252 0.226268 0)
(-0.108919 0.241533 0)
(-0.0930894 0.255562 0)
(-0.0750453 0.267789 0)
(-0.0549814 0.277557 0)
(-0.0334183 0.283595 0)
(-0.0108871 0.276065 0)
(-0.169368 0.0285681 0)
(-0.166618 0.0454143 0)
(-0.166167 0.0615936 0)
(-0.163285 0.0773692 0)
(-0.160998 0.0933569 0)
(-0.157559 0.108871 0)
(-0.153797 0.124473 0)
(-0.149169 0.139974 0)
(-0.143697 0.155444 0)
(-0.137151 0.170846 0)
(-0.129348 0.186074 0)
(-0.120091 0.200978 0)
(-0.109203 0.215316 0)
(-0.0965548 0.228775 0)
(-0.0820913 0.240967 0)
(-0.0658641 0.251456 0)
(-0.0480605 0.259741 0)
(-0.029121 0.264786 0)
(-0.00945372 0.257319 0)
(-0.154322 0.0280513 0)
(-0.152194 0.0442692 0)
(-0.151581 0.06001 0)
(-0.149204 0.0753728 0)
(-0.146894 0.0907735 0)
(-0.143702 0.105797 0)
(-0.139996 0.120756 0)
(-0.135489 0.135528 0)
(-0.130138 0.150138 0)
(-0.123784 0.164525 0)
(-0.116288 0.178589 0)
(-0.107509 0.192181 0)
(-0.0973298 0.205091 0)
(-0.0856753 0.217055 0)
(-0.0725329 0.227764 0)
(-0.0579722 0.236875 0)
(-0.0421644 0.244006 0)
(-0.0254851 0.248299 0)
(-0.00824869 0.240977 0)
(-0.139771 0.0277388 0)
(-0.138197 0.0433524 0)
(-0.137519 0.0586248 0)
(-0.135536 0.0735309 0)
(-0.133324 0.0883594 0)
(-0.130373 0.102852 0)
(-0.126825 0.117169 0)
(-0.122524 0.131228 0)
(-0.117407 0.145019 0)
(-0.111361 0.158475 0)
(-0.104284 0.171497 0)
(-0.0960771 0.183947 0)
(-0.0866665 0.195643 0)
(-0.076014 0.206366 0)
(-0.0641329 0.215866 0)
(-0.0511001 0.223873 0)
(-0.0370699 0.230094 0)
(-0.0223606 0.233809 0)
(-0.00721711 0.226679 0)
(-0.125715 0.0275932 0)
(-0.124622 0.0426426 0)
(-0.12396 0.0574334 0)
(-0.122312 0.0718687 0)
(-0.120274 0.0861426 0)
(-0.117581 0.100091 0)
(-0.114268 0.113781 0)
(-0.110243 0.127154 0)
(-0.105444 0.140178 0)
(-0.0997907 0.152784 0)
(-0.0932093 0.164877 0)
(-0.0856346 0.176333 0)
(-0.0770221 0.186995 0)
(-0.067359 0.196679 0)
(-0.056674 0.205184 0)
(-0.0450453 0.212298 0)
(-0.0326088 0.217791 0)
(-0.0196377 0.221055 0)
(-0.00632326 0.214141 0)
(-0.112137 0.0275947 0)
(-0.111458 0.0421284 0)
(-0.110882 0.0564423 0)
(-0.10954 0.0704095 0)
(-0.10773 0.0841509 0)
(-0.10532 0.0975582 0)
(-0.102298 0.110647 0)
(-0.098604 0.123369 0)
(-0.0941855 0.135681 0)
(-0.0889858 0.147516 0)
(-0.0829527 0.158783 0)
(-0.0760449 0.169373 0)
(-0.0682397 0.17915 0)
(-0.0595411 0.187962 0)
(-0.0499866 0.195645 0)
(-0.0396517 0.202029 0)
(-0.0286567 0.206933 0)
(-0.0172346 0.209842 0)
(-0.00553711 0.20315 0)
(-0.0990028 0.0277384 0)
(-0.0986874 0.0418082 0)
(-0.098256 0.0556638 0)
(-0.0972101 0.0691762 0)
(-0.0956692 0.0824108 0)
(-0.0935714 0.095293 0)
(-0.090883 0.107811 0)
(-0.0875646 0.119921 0)
(-0.0835731 0.131576 0)
(-0.0788689 0.14271 0)
(-0.073417 0.153242 0)
(-0.067194 0.163073 0)
(-0.0601923 0.172089 0)
(-0.0524268 0.180161 0)
(-0.0439392 0.187155 0)
(-0.0348014 0.192935 0)
(-0.0251179 0.197358 0)
(-0.0150901 0.199981 0)
(-0.00483961 0.19351 0)
(-0.0862739 0.0280312 0)
(-0.0862867 0.0416893 0)
(-0.0860518 0.0551143 0)
(-0.0853062 0.0681914 0)
(-0.0840686 0.0809466 0)
(-0.0823085 0.0933269 0)
(-0.0799878 0.105307 0)
(-0.0770773 0.116847 0)
(-0.0735441 0.127899 0)
(-0.0693613 0.138403 0)
(-0.0645079 0.148283 0)
(-0.0589734 0.157455 0)
(-0.0527612 0.165817 0)
(-0.0458936 0.173264 0)
(-0.0384138 0.179682 0)
(-0.0303887 0.184963 0)
(-0.0219106 0.188991 0)
(-0.0131508 0.191387 0)
(-0.0042105 0.185125 0)
(-0.0739026 0.0284933 0)
(-0.0742284 0.0417902 0)
(-0.0742389 0.0548181 0)
(-0.0738096 0.0674837 0)
(-0.0729081 0.0797879 0)
(-0.0715154 0.0916918 0)
(-0.0695951 0.103166 0)
(-0.0671244 0.114173 0)
(-0.0640793 0.124668 0)
(-0.0604422 0.134595 0)
(-0.0562022 0.143889 0)
(-0.0513577 0.152472 0)
(-0.0459196 0.160261 0)
(-0.0399136 0.167164 0)
(-0.0333831 0.173088 0)
(-0.0263896 0.177944 0)
(-0.0190134 0.181639 0)
(-0.0114047 0.183844 0)
(-0.00364699 0.177779 0)
(-0.0618391 0.0291486 0)
(-0.0624781 0.0421256 0)
(-0.0627745 0.0547846 0)
(-0.0626736 0.0670576 0)
(-0.0621199 0.0789345 0)
(-0.0610961 0.0903875 0)
(-0.0595714 0.101389 0)
(-0.0575298 0.111907 0)
(-0.0549576 0.1219 0)
(-0.051848 0.131318 0)
(-0.0482006 0.140102 0)
(-0.0440231 0.148184 0)
(-0.0393327 0.155489 0)
(-0.0341586 0.161939 0)
(-0.028543 0.167454 0)
(-0.0225424 0.171961 0)
(-0.0162299 0.175383 0)
(-0.00972602 0.177443 0)
(-0.00310616 0.171556 0)
(-0.0500538 0.030064 0)
(-0.051051 0.0427717 0)
(-0.0517208 0.0551015 0)
(-0.0520374 0.0670107 0)
(-0.051938 0.0784852 0)
(-0.0513979 0.0895067 0)
(-0.0503854 0.100054 0)
(-0.0488825 0.110101 0)
(-0.0468767 0.119614 0)
(-0.0443642 0.128548 0)
(-0.0413488 0.136853 0)
(-0.0378426 0.144469 0)
(-0.0338668 0.151333 0)
(-0.0294524 0.157376 0)
(-0.02464 0.162533 0)
(-0.0194803 0.16674 0)
(-0.0140314 0.169933 0)
(-0.00840955 0.171854 0)
(-0.0026794 0.166121 0)
(-0.0383718 0.0311518 0)
(-0.0396084 0.0436073 0)
(-0.0404833 0.0556174 0)
(-0.0409819 0.0671759 0)
(-0.0410726 0.0782731 0)
(-0.0407506 0.0888988 0)
(-0.0400064 0.0990395 0)
(-0.0388389 0.108674 0)
(-0.0372493 0.117773 0)
(-0.0352413 0.126297 0)
(-0.0328224 0.134198 0)
(-0.0300052 0.141423 0)
(-0.0268083 0.147911 0)
(-0.0232577 0.153601 0)
(-0.0193898 0.15843 0)
(-0.0152564 0.162343 0)
(-0.010937 0.165299 0)
(-0.00654735 0.167125 0)
(-0.00208691 0.161547 0)
(-0.0277585 0.0329089 0)
(-0.0301047 0.0450582 0)
(-0.0320548 0.0566866 0)
(-0.0334761 0.0678271 0)
(-0.0343081 0.0785028 0)
(-0.0345842 0.0887185 0)
(-0.0343364 0.0984611 0)
(-0.0336006 0.107708 0)
(-0.0324102 0.116429 0)
(-0.0307973 0.124588 0)
(-0.0287917 0.132142 0)
(-0.0264232 0.139044 0)
(-0.0237219 0.145244 0)
(-0.0207203 0.150693 0)
(-0.017453 0.155343 0)
(-0.0139493 0.15916 0)
(-0.0101933 0.162105 0)
(-0.00615369 0.163834 0)
(-0.00194378 0.158332 0)
(-0.012058 0.0353598 0)
(-0.0135514 0.0475124 0)
(-0.0150605 0.0589113 0)
(-0.0165025 0.069663 0)
(-0.0177591 0.0798422 0)
(-0.0187224 0.089499 0)
(-0.0193302 0.0986563 0)
(-0.0195496 0.107318 0)
(-0.0193708 0.115472 0)
(-0.0188014 0.123092 0)
(-0.0178608 0.130143 0)
(-0.0165769 0.136581 0)
(-0.0149832 0.142358 0)
(-0.0131161 0.147419 0)
(-0.011012 0.151712 0)
(-0.00871295 0.155176 0)
(-0.00619341 0.157769 0)
(-0.00373911 0.159328 0)
(-0.00116249 0.153984 0)
)
;

boundaryField
{
    leftWall
    {
        type            fixedValue;
        value           nonuniform 0();
    }
    rightWall
    {
        type            fixedValue;
        value           uniform (0 0 0);
    }
    lowerWall
    {
        type            fixedValue;
        value           nonuniform 0();
    }
    atmosphere
    {
        type            fluxCorrectedVelocity;
        value           nonuniform List<vector> 
23
(
(-0.0106591 0.00777639 0)
(-0.0106522 0.0141749 0)
(-0.0108465 0.0202321 0)
(-0.011162 0.0260299 0)
(-0.012058 0.035372 0)
(-0.0135514 0.0475257 0)
(-0.0150605 0.0589255 0)
(-0.0165025 0.0696774 0)
(-0.0177591 0.0798553 0)
(-0.0187224 0.0895102 0)
(-0.0193302 0.0986654 0)
(-0.0195496 0.107325 0)
(-0.0193708 0.115477 0)
(-0.0188014 0.123096 0)
(-0.0178608 0.130146 0)
(-0.0165769 0.136583 0)
(-0.0149832 0.142358 0)
(-0.0131161 0.147419 0)
(-0.011012 0.151711 0)
(-0.00871295 0.155175 0)
(-0.00619341 0.157768 0)
(-0.00373911 0.159328 0)
(-0.00116249 0.153983 0)
)
;
    }
    defaultFaces
    {
        type            empty;
    }
    procBoundary3to1
    {
        type            processor;
        value           nonuniform List<vector> 
23
(
(-0.45995 0.130084 0)
(-0.426395 0.127748 0)
(-0.406347 0.126608 0)
(-0.389018 0.126083 0)
(-0.364211 0.125504 0)
(-0.34702 0.12287 0)
(-0.337389 0.132867 0)
(-0.32149 0.129995 0)
(-0.316581 0.124226 0)
(-0.318938 0.124759 0)
(-0.317822 0.118578 0)
(-0.339835 0.121403 0)
(-0.350795 0.121143 0)
(-0.38547 0.128032 0)
(-0.418911 0.140854 0)
(-0.467831 0.163843 0)
(-0.525494 0.202171 0)
(-0.595636 0.263994 0)
(-0.673626 0.362944 0)
(-0.751021 0.52129 0)
(-0.80268 0.786822 0)
(-0.63244 1.26308 0)
(-0.353036 1.49583 0)
)
;
    }
    procBoundary3to2
    {
        type            processor;
        value           nonuniform List<vector> 
25
(
(-0.445406 0.0648985 0)
(-0.40023 0.0333229 0)
(-0.367372 0.00666555 0)
(-0.347195 0.00658572 0)
(-0.331692 0.00547857 0)
(-0.307122 -0.00306238 0)
(-0.285031 -0.00753837 0)
(-0.260008 -0.0151768 0)
(-0.239704 -0.0158248 0)
(-0.220043 -0.0175154 0)
(-0.202001 -0.0174669 0)
(-0.18487 -0.0171143 0)
(-0.168586 -0.0163265 0)
(-0.153046 -0.0153187 0)
(-0.138164 -0.0141676 0)
(-0.123867 -0.0129393 0)
(-0.110086 -0.0116775 0)
(-0.0967557 -0.0104017 0)
(-0.0837965 -0.009128 0)
(-0.0711488 -0.00785125 0)
(-0.0587259 -0.00660521 0)
(-0.046413 -0.00507977 0)
(-0.0342229 -0.0044504 0)
(-0.021484 -0.00122933 0)
(-0.0106013 -0.00233871 0)
)
;
    }
}


// ************************************************************************* //
