/*--------------------------------*- C++ -*----------------------------------*\
| =========                 |                                                 |
| \\      /  F ield         | OpenFOAM: The Open Source CFD Toolbox           |
|  \\    /   O peration     | Version:  2.4.0                                 |
|   \\  /    A nd           | Web:      www.OpenFOAM.org                      |
|    \\/     M anipulation  |                                                 |
\*---------------------------------------------------------------------------*/
FoamFile
{
    version     2.0;
    format      ascii;
    class       volScalarField;
    location    "0.15";
    object      alpha.oil;
}
// * * * * * * * * * * * * * * * * * * * * * * * * * * * * * * * * * * * * * //

dimensions      [0 0 0 0 0 0 0];

internalField   nonuniform List<scalar> 
575
(
1.97419e-50
1.10104e-47
4.00836e-45
1.30183e-42
3.44452e-40
1.19142e-37
2.86418e-35
7.13926e-33
2.2371e-23
1.59581e-16
1.4066e-13
1.26468e-10
2.93537e-07
2.29241e-06
8.51373e-06
2.11478e-05
4.42932e-05
9.19454e-05
0.00021762
0.000675382
0.0032861
0.0382203
4.75656e-48
2.48915e-45
8.35257e-43
2.44973e-40
5.74999e-38
1.7075e-35
3.50123e-33
6.69294e-31
2.50841e-21
2.02794e-15
4.72436e-12
7.41237e-09
1.4443e-06
9.17858e-06
2.90619e-05
6.23759e-05
0.000114716
0.000240237
0.000613426
0.00225809
0.0143108
0.135868
5.60243e-46
2.74929e-43
8.50199e-41
2.25139e-38
4.69248e-36
1.19478e-33
2.09472e-31
3.08564e-29
1.24104e-19
1.21164e-14
6.76152e-11
4.44611e-08
4.15075e-06
2.50686e-05
7.77068e-05
0.000266353
0.000934529
0.00324528
0.0105114
0.0408865
0.21544
0.58659
4.30589e-44
1.97992e-41
5.64043e-39
1.34843e-36
2.49791e-34
5.44792e-32
8.17936e-30
9.32947e-28
3.59474e-18
5.85463e-14
5.11041e-10
1.6618e-07
1.30304e-05
0.000138613
0.0009596
0.005746
0.0259933
0.0869882
0.247515
0.55674
0.859439
0.960806
2.43207e-42
1.04664e-39
2.74496e-37
5.92412e-35
9.75983e-33
1.82326e-30
2.34624e-28
2.07698e-26
6.87496e-17
5.1691e-13
2.08382e-09
2.40943e-06
0.000196972
0.00321857
0.0225617
0.102072
0.308227
0.631701
0.90303
0.991537
0.998127
0.99942
1.07818e-40
4.33521e-38
1.04558e-35
2.03694e-33
2.98594e-31
4.77813e-29
5.27623e-27
3.6296e-25
9.20616e-16
6.76415e-12
2.48978e-08
2.97343e-05
0.00225511
0.0311871
0.17097
0.505725
0.844556
0.974176
0.998047
0.999959
0.999996
0.999998
3.91388e-39
1.46685e-36
3.24818e-34
5.7105e-32
7.45026e-30
1.02086e-27
9.69918e-26
5.17875e-24
8.93122e-15
7.27993e-11
7.47188e-07
0.000137337
0.0102778
0.103337
0.407002
0.751387
0.92579
0.989871
0.99962
0.999997
0.999999
0.999999
1.19912e-37
4.17529e-35
8.46954e-33
1.34286e-30
1.55868e-28
1.82715e-26
1.50012e-24
6.20317e-23
6.33586e-14
5.61414e-10
4.43201e-06
0.000385062
0.0195288
0.143026
0.447422
0.769855
0.962656
0.998611
0.999989
0.999999
0.999999
0.999999
3.1743e-36
1.02254e-33
1.89402e-31
2.70473e-29
2.78915e-27
2.79316e-25
1.99361e-23
6.36266e-22
3.23863e-13
1.17627e-08
1.06919e-05
0.000687547
0.0197402
0.148564
0.433095
0.814851
0.984753
0.999856
0.999999
0.999999
0.999999
0.999999
1.3904e-34
4.10885e-32
6.8869e-30
8.81386e-28
8.04761e-26
6.84719e-24
4.25613e-22
1.03356e-20
2.17765e-12
3.19005e-08
1.22149e-05
0.000499352
0.015923
0.0924654
0.379836
0.817207
0.987538
0.999908
1
1
0.999999
0.999999
5.05481e-33
1.35865e-30
2.04367e-28
2.33793e-26
1.89365e-24
1.35782e-22
7.39647e-21
1.39958e-19
6.27134e-12
9.39462e-09
1.36351e-06
0.000136185
0.00574976
0.0638018
0.320621
0.753338
0.973118
0.999526
0.999999
1
1
1
1.57887e-31
3.81284e-29
5.1404e-27
5.19461e-25
3.78657e-23
2.2462e-21
1.04715e-19
1.49439e-18
8.91169e-18
3.92046e-11
5.95168e-07
0.000134569
0.00515361
0.0620116
0.309202
0.730669
0.964884
0.99908
0.999997
1
1
1
4.09221e-30
8.81531e-28
1.06003e-25
9.22799e-24
6.00731e-22
2.95564e-20
1.18049e-18
1.29933e-17
6.41662e-17
8.25934e-14
7.72396e-07
0.000168153
0.00814654
0.0838589
0.358297
0.765568
0.971328
0.999261
0.999997
1
1
1
8.33586e-29
1.63477e-26
1.768e-24
1.34728e-22
7.70949e-21
3.22288e-19
1.11304e-17
9.69058e-17
4.03728e-16
1.29377e-15
7.02492e-07
0.000227215
0.0138583
0.125129
0.459004
0.845206
0.986663
0.999771
0.999999
1
1
1
1.44801e-27
2.56664e-25
2.47079e-23
1.65937e-21
8.28919e-20
2.9711e-18
8.89734e-17
6.18182e-16
2.18771e-15
6.4124e-15
6.10547e-07
0.000277294
0.0224042
0.180663
0.572931
0.911519
0.995189
0.999953
1
1
1
1
2.19308e-26
3.51494e-24
3.01395e-22
1.78585e-20
7.77116e-19
2.38311e-17
6.13202e-16
3.39923e-15
1.03059e-14
2.89959e-14
4.71796e-07
0.000330329
0.0382164
0.26734
0.705555
0.961514
0.99888
0.999995
1
1
1
1
2.97153e-25
4.31144e-23
3.29217e-21
1.71534e-19
6.47874e-18
1.68526e-16
3.66557e-15
1.61803e-14
4.23129e-14
1.23173e-13
3.42482e-07
0.000377684
0.0645717
0.384402
0.827519
0.987396
0.999822
0.999999
1
1
1
1
1
3.66775e-24
4.82578e-22
3.28503e-20
1.5031e-18
4.91522e-17
1.07033e-15
1.90683e-14
6.66951e-14
1.51104e-13
5.18231e-13
2.45283e-07
0.000419825
0.110596
0.536855
0.921839
0.997226
0.999983
1
1
1
1
1
1
4.18712e-23
5.0072e-21
3.04732e-19
1.22547e-17
3.45473e-16
6.20015e-15
8.60742e-14
2.3725e-13
4.64691e-13
2.31497e-12
2.15441e-07
0.000519057
0.19704
0.713745
0.975646
0.999616
0.999999
1
1
1
1
1
0.999928
4.47618e-22
4.88015e-20
2.66886e-18
9.45772e-17
2.28796e-15
3.32915e-14
3.35267e-13
7.33483e-13
1.21662e-12
3.15263e-11
1.3287e-06
0.00310088
0.368212
0.87591
0.995627
0.999969
1
1
1
0.999999
0.999978
0.999401
0.984538
4.52198e-21
4.5161e-19
2.23569e-17
6.98933e-16
1.44354e-14
1.67713e-13
1.10491e-12
2.23646e-12
3.41144e-12
2.58577e-08
8.13575e-05
0.038895
0.645573
0.970285
0.999477
0.999996
0.999997
0.999984
0.999882
0.999084
0.991949
0.939098
0.65598
4.32974e-20
3.99008e-18
1.80401e-16
4.95163e-15
8.76782e-14
8.1389e-13
2.95172e-12
1.15681e-11
1.52231e-09
1.65735e-06
0.00112259
0.141838
0.86351
0.994395
0.999286
0.999055
0.997827
0.993368
0.976256
0.919494
0.737578
0.359026
0.0281419
3.92898e-19
3.36458e-17
1.39401e-15
3.33017e-14
5.24041e-13
4.43905e-12
8.38578e-11
1.2895e-09
9.76721e-08
1.62406e-05
0.00384246
0.206262
0.862685
0.941069
0.935548
0.915317
0.865547
0.759504
0.559289
0.292508
0.061072
0.00170517
2.61349e-06
3.39453e-18
2.70383e-16
1.01737e-14
2.13285e-13
3.09433e-12
7.41084e-11
1.08291e-09
1.47845e-08
5.37429e-07
5.11746e-05
0.00279102
0.0457669
0.247752
0.373359
0.354215
0.286389
0.182127
0.074204
0.0119543
0.000505103
4.14285e-06
1.00229e-06
7.79414e-07
2.8123e-17
2.06278e-15
6.92222e-14
1.32298e-12
1.51551e-11
2.24837e-10
2.69312e-09
3.85386e-08
7.69732e-07
1.25208e-05
0.000129761
0.000363764
0.000919111
0.00285014
0.00217919
0.000767745
0.000118369
8.81941e-06
1.72545e-06
1.88548e-06
1.32014e-06
4.64601e-07
3.63811e-07
7.79303e-17
5.08694e-15
1.62517e-13
3.12666e-12
3.55668e-11
3.98727e-10
5.56126e-09
8.94096e-08
5.30383e-07
1.54248e-06
9.31061e-07
2.7915e-07
2.08239e-07
3.09903e-07
2.7928e-07
6.05272e-07
)
;

boundaryField
{
    leftWall
    {
        type            zeroGradient;
    }
    rightWall
    {
        type            zeroGradient;
    }
    lowerWall
    {
        type            zeroGradient;
    }
    atmosphere
    {
        type            inletOutlet;
        inletValue      nonuniform 0();
        value           nonuniform 0();
    }
    defaultFaces
    {
        type            empty;
    }
    procBoundary0to1
    {
        type            processor;
        value           nonuniform List<scalar> 
26
(
0.0862084
0.152008
0.40244
0.773933
0.961739
0.99754
0.99995
0.999998
0.999999
0.999999
1
1
1
1
1
1
1
1
0.999999
0.998987
0.907562
0.239898
1.6709e-05
1.09157e-06
7.51517e-07
4.33957e-07
)
;
    }
    procBoundary0to2
    {
        type            processor;
        value           nonuniform List<scalar> 
24
(
6.46852e-07
7.20416e-07
1.02379e-06
1.32919e-06
9.85859e-07
3.59962e-07
1.98624e-07
1.52639e-18
1.48538e-16
8.02979e-15
2.90847e-13
7.67243e-12
1.44179e-10
1.80517e-09
1.33582e-08
4.48004e-08
3.54809e-08
1.27356e-08
2.27902e-09
3.18135e-09
1.19148e-08
3.52884e-08
6.46852e-07
2.60108e-08
)
;
    }
}


// ************************************************************************* //
