/*--------------------------------*- C++ -*----------------------------------*\
| =========                 |                                                 |
| \\      /  F ield         | OpenFOAM: The Open Source CFD Toolbox           |
|  \\    /   O peration     | Version:  2.4.0                                 |
|   \\  /    A nd           | Web:      www.OpenFOAM.org                      |
|    \\/     M anipulation  |                                                 |
\*---------------------------------------------------------------------------*/
FoamFile
{
    version     2.0;
    format      ascii;
    class       volScalarField;
    location    "0.15";
    object      alpha.mercury;
}
// * * * * * * * * * * * * * * * * * * * * * * * * * * * * * * * * * * * * * //

dimensions      [0 0 0 0 0 0 0];

internalField   nonuniform List<scalar> 
575
(
1
1
1
1
1
1
1
1
1
1
1
1
1
0.999998
0.999991
0.999978
0.999955
0.999907
0.999781
0.999323
0.996712
0.961778
1
1
1
1
1
1
1
1
1
1
1
1
0.999998
0.999991
0.999971
0.999937
0.999885
0.999759
0.999386
0.997741
0.985688
0.864131
1
1
1
1
1
1
1
1
1
1
1
1
0.999996
0.999975
0.999922
0.999733
0.999065
0.996754
0.989487
0.959111
0.784559
0.41341
1
1
1
1
1
1
1
1
1
1
1
1
0.999987
0.99986
0.999034
0.99423
0.973938
0.912877
0.752333
0.443197
0.140554
0.0391938
1
1
1
1
1
1
1
1
1
1
1
0.999997
0.999778
0.996384
0.975886
0.894392
0.686419
0.36402
0.095639
0.00837209
0.00187227
0.000580385
1
1
1
1
1
1
1
1
1
1
1
0.999936
0.995275
0.948598
0.779966
0.429962
0.110025
0.0108244
0.000335852
7.57529e-06
3.75514e-06
1.80638e-06
1
1
1
1
1
1
1
1
1
1
0.999995
0.997871
0.936304
0.690634
0.303222
0.0439423
0.00197091
3.96485e-05
6.54052e-07
6.56211e-07
9.13561e-07
6.94045e-07
1
1
1
1
1
1
1
1
1
1
0.999381
0.950471
0.667812
0.27676
0.0579111
0.00340087
6.87688e-05
8.75136e-07
6.40082e-07
6.88848e-07
7.72655e-07
6.0211e-07
0.999902
0.99988
0.999817
0.999678
0.99937
0.998511
0.996453
0.990273
0.974595
0.927696
0.819612
0.561663
0.200063
0.0659976
0.0074889
0.000303907
5.29161e-06
2.46605e-07
3.61933e-07
4.6154e-07
5.02109e-07
4.37275e-07
0.980544
0.978178
0.972358
0.962005
0.945373
0.912686
0.861629
0.772082
0.637607
0.441667
0.22837
0.0504608
0.0109132
0.00111681
8.75872e-05
4.965e-06
1.22071e-07
3.96274e-08
6.56657e-08
1.12272e-07
1.91466e-07
1.8453e-07
0.657853
0.640854
0.604134
0.548339
0.48025
0.382494
0.279004
0.171241
0.082579
0.0274835
0.00611136
0.0007385
0.000266348
6.23025e-05
1.54266e-05
2.44783e-06
1.38726e-07
1.88866e-08
1.91523e-08
2.02334e-08
2.49627e-08
2.16993e-08
0.0734784
0.0675518
0.055448
0.0400981
0.0264447
0.0147272
0.00715315
0.00292813
0.000989856
0.000268424
6.05211e-05
4.70633e-05
1.8743e-05
5.35256e-06
2.62501e-06
1.2178e-06
2.22204e-07
8.68435e-09
1.48752e-09
1.32803e-09
2.73901e-09
2.60258e-09
1.31672e-06
1.31226e-06
2.32251e-06
4.44637e-06
3.14646e-06
2.08944e-06
1.79812e-06
1.73461e-06
1.42881e-06
1.01062e-06
7.78446e-07
7.64182e-07
5.41847e-07
2.90331e-07
2.24442e-07
1.89367e-07
8.68661e-08
1.12043e-08
2.69949e-10
6.83794e-12
4.77862e-11
2.96674e-11
1.84408e-10
1.36205e-10
1.4358e-10
2.10552e-10
3.36896e-10
4.82515e-10
6.36298e-10
7.18799e-10
8.29661e-10
9.76076e-10
1.01609e-09
1.16469e-09
9.8389e-10
5.61184e-10
9.72945e-10
1.31572e-09
6.11433e-10
6.0414e-11
2.86665e-12
1.12005e-12
3.94587e-13
1.37239e-13
3.2743e-66
9.60499e-64
1.49464e-61
1.64094e-59
1.45488e-57
1.07911e-55
7.29097e-54
4.3933e-52
2.49997e-50
1.34848e-48
8.4684e-47
5.23358e-45
2.89942e-44
4.94862e-44
1.11994e-43
6.54173e-43
1.69577e-41
1.15147e-39
9.43194e-38
1.20445e-35
1.41365e-33
2.61751e-31
1.18229e-64
3.23052e-62
4.63818e-60
4.67099e-58
3.78604e-56
2.5652e-54
1.58408e-52
8.73445e-51
4.52115e-49
2.13754e-47
1.2549e-45
6.92253e-44
3.96173e-43
7.50473e-43
2.5371e-42
2.72936e-41
8.91127e-40
5.34012e-38
3.80879e-36
3.512e-34
3.65373e-32
5.31757e-30
3.71004e-63
9.46272e-61
1.26116e-58
1.17484e-56
8.80116e-55
5.50744e-53
3.14058e-51
1.59259e-49
7.47851e-48
3.09541e-46
1.7283e-44
8.59737e-43
5.16251e-42
1.13658e-41
6.07322e-41
1.01378e-39
3.54545e-38
1.83815e-36
1.08989e-34
7.51885e-33
7.37876e-31
8.0258e-29
8.00023e-27
1.02642e-61
2.44901e-59
3.04728e-57
2.64923e-55
1.8564e-53
1.08393e-51
5.7501e-50
2.68666e-48
1.13875e-46
4.09314e-45
2.21754e-43
1.00803e-41
6.45774e-41
1.76322e-40
1.51636e-39
3.28153e-38
1.13728e-36
4.98246e-35
2.39038e-33
1.28982e-31
1.23167e-29
9.57249e-28
8.34499e-26
2.53325e-60
5.66699e-58
6.61995e-56
5.41843e-54
3.58572e-52
1.97244e-50
9.78219e-49
4.21183e-47
1.60312e-45
4.99513e-44
2.69274e-42
1.12462e-40
7.86214e-40
2.87112e-39
3.79725e-38
9.22123e-37
3.02239e-35
1.10449e-33
4.20557e-32
1.9009e-30
1.73291e-28
9.47448e-27
7.35064e-25
5.63342e-59
1.18413e-56
1.30556e-54
1.01483e-52
6.40444e-51
3.34781e-49
1.55858e-47
6.17997e-46
2.10152e-44
5.73119e-43
3.14505e-41
1.20366e-39
9.55498e-39
4.95251e-38
8.99434e-37
2.25679e-35
6.74549e-34
2.04723e-32
6.12987e-31
2.55768e-29
2.06903e-27
8.36065e-26
5.55443e-24
1.13966e-57
2.25709e-55
2.36225e-53
1.75952e-51
1.0692e-49
5.35463e-48
2.34566e-46
8.55591e-45
2.59065e-43
6.43541e-42
3.60083e-40
1.24833e-38
1.20187e-37
8.87656e-37
1.90053e-35
4.79111e-34
1.27918e-32
3.20576e-31
7.69144e-30
3.27273e-28
2.09656e-26
7.29179e-25
3.60451e-23
2.1139e-56
3.96693e-54
3.98004e-52
2.87356e-50
1.69597e-48
8.18491e-47
3.37237e-45
1.12812e-43
3.04025e-42
7.55295e-41
4.14433e-39
1.29427e-37
1.56392e-36
1.51455e-35
3.492e-34
8.79804e-33
2.06673e-31
4.25408e-30
9.01661e-29
4.02727e-27
1.82596e-25
6.93126e-24
1.74781e-22
3.6267e-55
6.52288e-53
6.37824e-51
4.53588e-49
2.61777e-47
1.2183e-45
4.69276e-44
1.42795e-42
3.45062e-41
9.8015e-40
4.99254e-38
1.32755e-36
1.80923e-35
2.18815e-34
5.62285e-33
1.41181e-31
2.83744e-30
4.81145e-29
1.14948e-27
4.93522e-26
1.46534e-24
6.29817e-23
7.37012e-22
5.84569e-54
1.02942e-51
1.00535e-49
7.16387e-48
4.05539e-46
1.80415e-44
6.36091e-43
1.71094e-41
3.8111e-40
1.41065e-38
5.22934e-37
1.10456e-35
1.63254e-34
2.68224e-33
8.27891e-32
2.02061e-30
3.43178e-29
4.79535e-28
1.71082e-26
5.92245e-25
8.24262e-24
6.2686e-23
3.94847e-22
9.06962e-53
1.61635e-50
1.6152e-48
1.15721e-46
6.31563e-45
2.61427e-43
8.34475e-42
2.0408e-40
3.90144e-39
6.50908e-38
1.23166e-36
4.99824e-35
9.67008e-34
2.94923e-32
1.1516e-30
2.65353e-29
3.75583e-28
3.56589e-27
2.59722e-26
1.98456e-25
2.37707e-24
2.54786e-23
1.35308e-22
2.53469e-52
2.98722e-50
1.79557e-48
7.68188e-47
2.90833e-45
1.21037e-43
5.63784e-42
2.55691e-40
1.04219e-38
3.84085e-37
1.45495e-35
4.65576e-34
8.21223e-33
9.33772e-32
8.32103e-31
6.82628e-30
)
;

boundaryField
{
    leftWall
    {
        type            zeroGradient;
    }
    rightWall
    {
        type            zeroGradient;
    }
    lowerWall
    {
        type            zeroGradient;
    }
    atmosphere
    {
        type            inletOutlet;
        inletValue      nonuniform 0();
        value           nonuniform 0();
    }
    defaultFaces
    {
        type            empty;
    }
    procBoundary0to1
    {
        type            processor;
        value           nonuniform List<scalar> 
26
(
0.913789
0.84799
0.597559
0.226066
0.0382604
0.00245978
4.89928e-05
6.63437e-07
3.49131e-07
1.77146e-07
3.16553e-08
4.09112e-09
6.39678e-11
4.88927e-14
3.84455e-29
6.27655e-28
6.27655e-28
3.39735e-26
3.54485e-25
3.81199e-24
3.73967e-23
2.96851e-22
2.41195e-21
3.21999e-21
1.62185e-21
5.08216e-22
)
;
    }
    procBoundary0to2
    {
        type            processor;
        value           nonuniform List<scalar> 
24
(
6.09101e-29
6.7018e-28
1.0006e-26
1.55988e-25
1.60441e-24
8.87775e-24
3.57892e-23
2.3833e-55
1.15144e-52
3.15768e-50
6.62646e-48
1.21107e-45
1.70798e-43
1.59827e-41
9.59587e-40
3.86269e-38
1.08282e-36
2.2129e-35
3.51403e-34
4.58142e-33
5.60128e-32
7.40523e-31
6.09101e-29
1.03137e-29
)
;
    }
}


// ************************************************************************* //
