/*--------------------------------*- C++ -*----------------------------------*\
| =========                 |                                                 |
| \\      /  F ield         | OpenFOAM: The Open Source CFD Toolbox           |
|  \\    /   O peration     | Version:  2.4.0                                 |
|   \\  /    A nd           | Web:      www.OpenFOAM.org                      |
|    \\/     M anipulation  |                                                 |
\*---------------------------------------------------------------------------*/
FoamFile
{
    version     2.0;
    format      ascii;
    class       volScalarField;
    location    "0.15";
    object      alpha.water;
}
// * * * * * * * * * * * * * * * * * * * * * * * * * * * * * * * * * * * * * //

dimensions      [0 0 0 0 0 0 0];

internalField   nonuniform List<scalar> 
575
(
6.81702e-15
4.27403e-15
6.71501e-15
1.39622e-14
2.83492e-14
6.29571e-14
1.09884e-13
1.66566e-13
2.1776e-12
2.4832e-11
4.05772e-11
2.93771e-11
3.51316e-11
5.24161e-11
5.94779e-11
5.22209e-11
3.65053e-11
2.29304e-11
1.56495e-11
1.00063e-11
4.84828e-12
2.33624e-12
3.10183e-13
1.95469e-13
2.76629e-13
5.07575e-13
8.76684e-13
1.60722e-12
2.34487e-12
3.27639e-12
3.59128e-11
2.81639e-10
4.88874e-10
5.10996e-10
7.07226e-10
1.13262e-09
1.23684e-09
1.17684e-09
9.50539e-10
5.82332e-10
3.42132e-10
6.25924e-10
1.44913e-09
6.56989e-09
6.10637e-12
3.79275e-12
4.82181e-12
7.78502e-12
1.14588e-11
1.73841e-11
2.13505e-11
3.11805e-11
2.77483e-10
1.56199e-09
2.93674e-09
2.95124e-09
4.28945e-09
7.29021e-09
1.09819e-08
2.2609e-08
7.50334e-08
2.96771e-07
9.04662e-07
1.65376e-06
9.68754e-07
1.65335e-07
6.64813e-11
3.99869e-11
4.55768e-11
6.46427e-11
8.1346e-11
1.02552e-10
1.06849e-10
2.02233e-10
1.36016e-09
5.66266e-09
1.2429e-08
1.05706e-08
4.68435e-08
1.06919e-06
6.41703e-06
2.35303e-05
6.86886e-05
0.00013408
0.000151795
6.27969e-05
7.15621e-06
1.62544e-07
4.21501e-10
2.41954e-10
2.4719e-10
3.07447e-10
3.32874e-10
3.51263e-10
3.18987e-10
1.0387e-09
4.85669e-09
1.49876e-08
4.174e-08
1.26709e-07
2.53779e-05
0.000397835
0.00155229
0.00353558
0.00535307
0.00427853
0.00133047
9.13405e-05
1.26797e-06
2.11655e-08
1.4754e-09
8.00618e-10
7.40198e-10
7.95837e-10
7.56451e-10
6.78979e-10
6.58391e-10
4.32143e-09
1.34731e-08
3.0593e-08
2.87186e-07
3.42487e-05
0.00247032
0.0202149
0.0490647
0.064313
0.0454188
0.0149991
0.00161729
3.37827e-05
9.68548e-08
1.78009e-09
2.25138e-09
1.16271e-09
9.75088e-10
9.24018e-10
7.9281e-10
5.95051e-10
1.865e-09
1.37846e-08
2.92755e-08
4.85921e-08
4.45015e-06
0.0019921
0.053418
0.206029
0.289776
0.20467
0.0722392
0.0100889
0.000379267
2.58639e-06
7.14922e-08
4.01938e-09
1.83243e-10
1.83244e-10
1.83244e-10
1.83244e-10
1.83245e-10
1.83246e-10
8.33075e-09
3.16017e-08
4.77666e-08
5.75943e-08
0.000615091
0.0491435
0.312659
0.580214
0.494666
0.226744
0.0372749
0.00138769
1.04561e-05
1.38576e-07
4.00829e-08
5.45755e-09
9.80138e-05
0.000119896
0.000182829
0.000322225
0.000630196
0.0014889
0.0035466
0.00972749
0.0254049
0.072304
0.180378
0.43765
0.780197
0.785439
0.559415
0.184845
0.0152417
0.000143033
3.33206e-07
4.82988e-08
1.6257e-08
4.79532e-09
0.019456
0.0218225
0.0276419
0.0379948
0.0546267
0.0873141
0.138371
0.227918
0.362393
0.558333
0.771618
0.94904
0.973164
0.906417
0.620076
0.182788
0.0124613
9.15677e-05
1.6045e-07
2.42044e-08
5.44052e-09
2.12375e-09
0.342147
0.359146
0.395866
0.451661
0.51975
0.617506
0.720996
0.828759
0.917421
0.972516
0.993887
0.999125
0.993984
0.936136
0.679364
0.246659
0.0268824
0.000474524
7.68625e-07
2.46684e-08
1.14058e-08
5.33528e-09
0.926522
0.932448
0.944552
0.959902
0.973555
0.985273
0.992847
0.997072
0.99901
0.999731
0.999939
0.999818
0.994827
0.937983
0.690795
0.269329
0.0351161
0.000919762
2.86373e-06
1.01945e-07
5.01998e-08
2.46232e-08
0.999999
0.999999
0.999998
0.999996
0.999997
0.999998
0.999998
0.999998
0.999999
0.999999
0.999998
0.999831
0.991853
0.916141
0.641703
0.234432
0.0286717
0.000738797
2.55753e-06
2.84894e-08
1.77734e-08
9.82245e-09
1
1
1
1
1
1
1
1
1
1
0.999999
0.999773
0.986142
0.874871
0.540996
0.154793
0.0133364
0.000228964
5.49138e-07
9.50197e-10
4.91473e-10
3.6823e-10
1
1
1
1
1
1
1
1
1
1
0.999999
0.999723
0.977596
0.819336
0.427069
0.088481
0.00481043
4.73127e-05
6.50738e-08
7.28908e-11
3.05502e-11
1.11486e-11
1
1
1
1
1
1
1
1
1
1
0.999999
0.99967
0.961784
0.73266
0.294445
0.0384862
0.00112006
5.33131e-06
3.46598e-09
2.95196e-12
1.90842e-12
1.10558e-12
1
1
1
1
1
1
1
1
1
1
1
0.999622
0.935428
0.615598
0.172481
0.0126043
0.000178107
3.66519e-07
1.01347e-10
3.33165e-12
1.90605e-12
9.35939e-13
4.39644e-13
1
1
1
1
1
1
1
1
1
1
1
0.99958
0.889404
0.463145
0.078161
0.00277402
1.7314e-05
1.47778e-08
5.48931e-12
2.86804e-12
1.48221e-12
6.94399e-13
3.0091e-13
1
1
1
1
1
1
1
1
1
1
1
0.999481
0.80296
0.286255
0.0243536
0.000384046
9.62815e-07
5.50329e-10
6.0866e-12
2.9664e-12
1.26332e-12
4.91989e-13
1.79713e-13
1
1
1
1
1
1
1
1
1
0.999999
0.999996
0.996891
0.631787
0.12409
0.00437292
3.09342e-05
4.0951e-08
9.6235e-10
1.5849e-11
3.09113e-12
9.78832e-13
2.88611e-13
8.29399e-14
0.999998
0.999998
0.999997
0.999996
0.999992
0.999983
0.99996
0.9999
0.999736
0.999293
0.998313
0.95831
0.354239
0.0297064
0.00047128
2.17619e-06
4.35274e-08
1.48068e-09
3.64224e-11
2.07761e-12
5.89434e-13
1.32163e-13
2.60458e-14
0.998559
0.998391
0.998025
0.997333
0.996059
0.993712
0.989283
0.980926
0.965509
0.938775
0.903978
0.744906
0.12461
0.00434296
3.63236e-05
1.96333e-06
2.19481e-08
1.54068e-10
1.17192e-12
4.5321e-13
1.15921e-13
2.21707e-14
4.44561e-15
0.899996
0.893766
0.881211
0.860436
0.82855
0.782288
0.717158
0.630785
0.524028
0.405326
0.307543
0.172974
0.0206052
0.000278218
4.7361e-06
1.48238e-07
1.1916e-09
1.97208e-12
4.71501e-13
1.00068e-13
1.76277e-14
2.74419e-15
1.46917e-16
0.272281
0.259088
0.234894
0.20089
0.159662
0.115764
0.0739095
0.0397697
0.0168519
0.0057042
0.00198645
0.000694031
0.000926321
3.54215e-05
6.2535e-07
2.42688e-09
2.45668e-12
5.75196e-13
9.99411e-14
1.32698e-14
8.95473e-16
4.21172e-17
4.29422e-18
0.00111701
0.000926436
0.000660596
0.000403351
0.000193563
7.81276e-05
2.23163e-05
5.70419e-06
1.40653e-06
4.03179e-07
1.96614e-07
3.39693e-07
2.03874e-06
2.67184e-06
5.83657e-08
6.3407e-13
7.33841e-13
4.61504e-14
2.30126e-15
1.10712e-16
4.71601e-18
3.33159e-19
6.90147e-19
4.1513e-07
2.66555e-07
2.18679e-07
1.81345e-07
1.78046e-07
2.22505e-07
3.41026e-07
3.60558e-07
3.81808e-08
1.45725e-09
1.98462e-09
1.3777e-08
6.50361e-08
1.18478e-07
1.08054e-08
1.44011e-14
)
;

boundaryField
{
    leftWall
    {
        type            zeroGradient;
    }
    rightWall
    {
        type            zeroGradient;
    }
    lowerWall
    {
        type            zeroGradient;
    }
    atmosphere
    {
        type            inletOutlet;
        inletValue      nonuniform 0();
        value           nonuniform 0();
    }
    defaultFaces
    {
        type            empty;
    }
    procBoundary0to1
    {
        type            processor;
        value           nonuniform List<scalar> 
26
(
2.33976e-11
1.29774e-09
4.81315e-09
2.32612e-09
4.96572e-10
4.52676e-11
1.67826e-11
9.01337e-11
1.0114e-09
7.76677e-10
2.14979e-09
1.23029e-08
5.55219e-09
2.37209e-10
6.80334e-12
5.90113e-13
5.90113e-13
2.87494e-13
1.84162e-13
9.84379e-14
3.93967e-14
1.05542e-14
1.64973e-15
7.04122e-17
7.29605e-18
1.42527e-18
)
;
    }
    procBoundary0to2
    {
        type            processor;
        value           nonuniform List<scalar> 
24
(
5.44218e-16
2.81349e-18
1.34493e-20
3.86831e-21
2.30506e-20
7.51987e-20
1.68e-19
1.60692e-09
1.40572e-09
1.4216e-09
8.08646e-10
6.51891e-10
5.27887e-10
8.46998e-10
2.72057e-09
3.29404e-09
1.76818e-10
7.03915e-10
2.58564e-09
6.05718e-09
9.85633e-09
1.95919e-09
5.44218e-16
1.23653e-17
)
;
    }
}


// ************************************************************************* //
