/*--------------------------------*- C++ -*----------------------------------*\
| =========                 |                                                 |
| \\      /  F ield         | OpenFOAM: The Open Source CFD Toolbox           |
|  \\    /   O peration     | Version:  2.4.0                                 |
|   \\  /    A nd           | Web:      www.OpenFOAM.org                      |
|    \\/     M anipulation  |                                                 |
\*---------------------------------------------------------------------------*/
FoamFile
{
    version     2.0;
    format      ascii;
    class       volScalarField;
    location    "0.15";
    object      p;
}
// * * * * * * * * * * * * * * * * * * * * * * * * * * * * * * * * * * * * * //

dimensions      [1 -1 -2 0 0 0 0];

internalField   nonuniform List<scalar> 
575
(
11854.5
11819.9
11750.9
11646.3
11509.1
11330.6
11128.3
10874.6
10561.4
10302.2
9833.29
9366.86
8948.03
8367.65
7563.51
6641.46
5741.11
4952.52
4441.16
4363.5
5080.76
8220.53
11060.3
11025.6
10956.2
10851.1
10713.1
10533.5
10330.3
10073.9
9763.59
9482.16
9023.21
8557.48
8117.84
7509.29
6677.42
5734.21
4837.45
4056.04
3525.54
3305.45
3577.56
4578.67
10268.3
10233.3
10163.2
10057
9917.33
9735.87
9530.5
9269.25
8961.9
8651.39
8195.74
7730.41
7250.78
6588.88
5708.66
4733.45
3829.46
3078.46
2561.68
2144.79
1875.87
1987.86
9478.74
9443.19
9372.03
9264.26
9122.08
8938.05
8729.1
8461.88
8153.65
7816.21
7353.21
6882.71
6340.04
5594.6
4642.61
3643.02
2773.58
2037.23
1506.85
1279.85
1268.84
1284.78
8691.75
8655.55
8583.01
8473.16
8327.63
8140.35
7926.73
7651.85
7340.22
6977.89
6500.89
6012.12
5381.54
4522.88
3487.7
2474.91
1660.29
1267.1
1140.68
1170.5
1270.61
1191.26
7907.74
7870.73
7796.48
7684.07
7534.32
7343.24
7123.83
6840.72
6523.13
6138.14
5645.61
5130.22
4366.46
3394
2327.75
1543.49
1219.47
1199.8
1203.93
1181.5
1199.58
1103.29
7127.07
7089.1
7012.8
6897.43
6742.6
6547.38
6321.95
6030.3
5702.93
5298.27
4793.63
4236.45
3340.3
2350.36
1545.67
1257.16
1241.51
1176.29
1122.86
1110.11
1135.39
1059.21
6349.93
6310.92
6232.28
6113.85
5952.86
5753.02
5522.06
5221.24
4878.01
4440.53
3925.35
3337.33
2411.22
1695
1333.82
1274.86
1198.12
1130.67
1092.84
1080.66
1088.45
1027.8
5143.54
5102.68
5019.05
4895.33
4719.98
4508.5
4268.4
3955.01
3582.8
3059.34
2466.77
1934.17
1534.12
1365.95
1278.77
1193.95
1128.54
1091.34
1055.22
1039.06
1014.05
950.705
3601.08
3548.71
3435.08
3278.47
3074.12
2817
2506.81
2197.36
1910.92
1676.72
1442.14
1333.57
1317.17
1254.34
1183.77
1101.88
1062.55
1027.06
995.688
978.088
951.695
895.457
1787.78
1772.38
1736.78
1678.95
1603.58
1520.09
1433.79
1354.52
1291.94
1262.39
1265.64
1263.9
1208.32
1129.7
1067.54
1004
973.838
946.067
924.431
904.916
884.271
840.058
1315.25
1312
1307.57
1304.58
1302.11
1300.95
1298.71
1291.21
1271.35
1238.83
1189.87
1134.56
1073.28
1006.07
944.662
898.743
880.11
862.064
844.166
824.184
801.647
754.827
1294.78
1292.58
1288.14
1277.91
1261.63
1237.47
1207.02
1174.14
1142.2
1104.11
1061.35
1012.46
951.633
889.907
829.566
796.275
787.748
777.21
761.892
740.668
717.721
675.468
1140.4
1137.05
1130.16
1120.2
1107.31
1092.31
1074.76
1053.21
1024.92
988.227
946.071
894.471
834.245
779.429
722.618
703.815
701.94
693.71
679.925
660.799
636.645
597.87
1022.54
1019.75
1014.1
1005.5
993.958
978.79
959.613
935.965
906.49
871.082
830.087
779.068
720.683
670.995
620.487
617.171
618.375
612.139
599.66
581.525
556.953
520.505
900.454
897.673
892.102
883.582
871.871
856.881
838.12
815.28
787.28
753.901
715.018
666.756
611.71
565.695
527.784
534.21
536.755
532.032
520.525
502.801
478.045
442.868
779.465
776.885
771.62
763.56
752.474
738.085
720.115
698.169
671.709
640.26
603.22
558.036
507.69
463.82
445.881
455.196
457.689
453.349
442.275
424.477
399.55
364.905
320.489
659.243
656.813
651.866
644.185
633.569
619.705
602.383
581.416
556.501
527.513
493.405
452.38
406.319
366.671
369.5
378.374
380.573
375.874
364.883
346.686
321.449
286.586
241.486
539.823
537.624
533.081
525.972
515.935
502.668
485.977
465.942
442.922
416.668
386.656
349.671
306.362
282.061
296.204
304.265
305.732
300.303
288.447
269.817
244.278
208.353
161.401
421.82
419.991
416.166
409.961
400.842
388.288
372.028
352.455
330.961
308.166
284.581
252.132
211.427
210.826
224.722
233.507
233.698
227.085
213.889
194.996
168.13
128.56
70.6124
306.076
304.77
301.912
296.908
288.883
276.706
259.286
237.004
213.123
190.664
173.519
148.451
128.622
146.856
157.649
166.825
165.699
156.667
140.195
120.235
87.023
41.4833
13.1463
183.021
182.042
179.77
175.491
167.944
155.203
134.622
106.079
75.1746
51.6695
44.5691
40.8616
64.8422
87.2268
94.3395
102.149
98.9263
84.0317
56.541
35.3274
21.8678
7.39281
2.28669
41.5315
41.4665
41.4478
41.65
41.9729
41.7706
38.6071
30.7812
19.2749
10.082
6.62208
7.748
15.041
24.0004
26.182
27.5351
26.3489
22.316
9.85368
4.36143
1.80186
2.41184
2.70533
5.01166
4.82671
4.47808
3.98147
3.35329
2.61057
1.84489
1.33345
1.25566
1.61025
1.90385
2.22745
3.30723
4.24999
4.26399
3.76015
3.08236
2.27082
2.33717
2.79781
3.2879
3.3422
2.85504
2.3994
2.44718
2.54113
2.68158
2.86868
3.09809
3.36025
3.68116
3.93303
3.84691
3.5865
3.15051
2.83811
2.66425
2.68331
2.82568
3.05686
3.35114
3.58214
3.34251
2.99155
2.90917
2.88009
3.48146
3.45499
3.40192
3.32798
3.24342
3.16428
3.11415
3.02648
2.90653
2.86653
2.86969
2.91243
3.01576
3.16739
3.22784
3.18951
)
;

boundaryField
{
    leftWall
    {
        type            fixedFluxPressure;
        gradient        uniform 0;
        value           nonuniform List<scalar> 
26
(
11854.5
11060.3
10268.3
9478.74
8691.75
7907.74
7127.07
6349.93
5143.54
3601.08
1787.78
1315.25
1294.78
1140.4
1022.54
900.454
779.465
659.243
539.823
421.82
306.076
183.021
41.5315
5.01166
2.3994
3.48146
)
;
    }
    rightWall
    {
        type            fixedFluxPressure;
        gradient        nonuniform 0();
        value           nonuniform 0();
    }
    lowerWall
    {
        type            fixedFluxPressure;
        gradient        nonuniform List<scalar> 
22
(
132719
132719
132719
132719
132719
132719
132719
132719
132719
132719
132719
132719
132719
132719
132717
132709
132687
132624
132403
131394
126216
89533.7
)
;
        value           nonuniform List<scalar> 
22
(
12252.6
12218.1
12149
12044.4
11907.3
11728.8
11526.5
11272.7
10959.5
10700.3
10231.4
9765.01
9346.18
8765.8
7961.66
7039.58
6139.16
5350.38
4838.36
4757.68
5459.4
8489.13
)
;
    }
    atmosphere
    {
        type            totalPressure;
        U               U.air;
        phi             phi.air;
        rho             rho;
        psi             none;
        gamma           1;
        p0              nonuniform 0();
        value           nonuniform 0();
    }
    defaultFaces
    {
        type            empty;
    }
    procBoundary0to1
    {
        type            processor;
        value           nonuniform List<scalar> 
26
(
17420.7
12334.1
6092.56
2436.94
1486.95
1322
1179.56
977.749
605.083
896.428
779.679
691.33
617.275
544.665
471.407
397.244
397.244
279.427
198.893
113.327
25.1057
1.50707
3.62395
2.44155
2.82574
2.82113
)
;
    }
    procBoundary0to2
    {
        type            processor;
        value           nonuniform List<scalar> 
24
(
3.09472
2.99665
2.86225
2.78886
2.75303
2.75666
2.71155
2.61779
2.6274
2.64472
2.67123
2.70476
2.74532
2.78561
2.80729
2.81219
2.81582
2.80648
2.76383
2.71083
2.67737
2.68101
3.09472
2.71354
)
;
    }
}


// ************************************************************************* //
