/*--------------------------------*- C++ -*----------------------------------*\
| =========                 |                                                 |
| \\      /  F ield         | OpenFOAM: The Open Source CFD Toolbox           |
|  \\    /   O peration     | Version:  2.4.0                                 |
|   \\  /    A nd           | Web:      www.OpenFOAM.org                      |
|    \\/     M anipulation  |                                                 |
\*---------------------------------------------------------------------------*/
FoamFile
{
    version     2.0;
    format      ascii;
    class       surfaceScalarField;
    location    "0.15";
    object      phi;
}
// * * * * * * * * * * * * * * * * * * * * * * * * * * * * * * * * * * * * * //

dimensions      [0 3 -1 0 0 0 0];

internalField   nonuniform List<scalar> 
1101
(
2.67192e-06
-2.67192e-06
5.39016e-06
-2.71824e-06
8.20012e-06
-2.80996e-06
1.11519e-05
-2.95179e-06
1.4286e-05
-3.13411e-06
1.77015e-05
-3.41545e-06
2.13878e-05
-3.68628e-06
2.57294e-05
-4.34163e-06
2.97396e-05
-4.0102e-06
3.64102e-05
-6.67065e-06
4.22586e-05
-5.84841e-06
4.7997e-05
-5.73838e-06
5.57446e-05
-7.74757e-06
6.58117e-05
-1.00671e-05
7.75505e-05
-1.17389e-05
8.98977e-05
-1.23472e-05
0.000101167
-1.12688e-05
0.000109953
-8.786e-06
0.000115142
-5.18996e-06
0.000115985
-8.42763e-07
0.00010885
7.13571e-06
2.5913e-05
2.66291e-06
-5.33483e-06
5.37217e-06
-5.4275e-06
8.17286e-06
-5.61066e-06
1.11142e-05
-5.89311e-06
1.42342e-05
-6.25417e-06
1.76397e-05
-6.82093e-06
2.13058e-05
-7.35234e-06
2.55377e-05
-8.57353e-06
2.97965e-05
-8.26899e-06
3.61675e-05
-1.30417e-05
4.17597e-05
-1.14406e-05
4.75244e-05
-1.1503e-05
5.62859e-05
-1.65091e-05
6.76114e-05
-2.13926e-05
7.94447e-05
-2.35722e-05
9.03057e-05
-2.32081e-05
9.94975e-05
-2.04606e-05
0.000106804
-1.6092e-05
0.000112135
-1.0521e-05
0.000115339
-4.04749e-06
0.000114856
7.61863e-06
5.17752e-05
2.64234e-06
-7.97718e-06
5.33087e-06
-8.11602e-06
8.11049e-06
-8.39028e-06
1.10275e-05
-8.81014e-06
1.41193e-05
-9.34591e-06
1.74931e-05
-1.01948e-05
2.11266e-05
-1.09859e-05
2.52431e-05
-1.269e-05
2.97304e-05
-1.27563e-05
3.56211e-05
-1.89324e-05
4.11001e-05
-1.69196e-05
4.70112e-05
-1.74141e-05
5.6467e-05
-2.59649e-05
6.83473e-05
-3.32728e-05
7.99545e-05
-3.51794e-05
8.97616e-05
-3.30153e-05
9.74109e-05
-2.811e-05
0.000102753
-2.14337e-05
0.000105768
-1.35362e-05
0.000106025
-4.30461e-06
0.000102282
1.13616e-05
7.23066e-05
2.61164e-06
-1.05888e-05
5.26938e-06
-1.07738e-05
8.01814e-06
-1.1139e-05
1.08989e-05
-1.16909e-05
1.3951e-05
-1.23981e-05
1.72652e-05
-1.35089e-05
2.08436e-05
-1.45643e-05
2.48778e-05
-1.67242e-05
2.94015e-05
-1.728e-05
3.48489e-05
-2.43798e-05
4.02478e-05
-2.23185e-05
4.67013e-05
-2.38676e-05
5.68007e-05
-3.60643e-05
6.87072e-05
-4.51793e-05
7.89542e-05
-4.54264e-05
8.62372e-05
-4.02984e-05
9.10738e-05
-3.29466e-05
9.29627e-05
-2.33225e-05
9.35821e-05
-1.41556e-05
9.56095e-05
-6.33202e-06
8.26375e-05
2.43336e-05
9.24387e-05
2.57067e-06
-1.31595e-05
5.18764e-06
-1.33907e-05
7.89619e-06
-1.38476e-05
1.073e-05
-1.45247e-05
1.37275e-05
-1.53956e-05
1.69668e-05
-1.67482e-05
2.04705e-05
-1.80679e-05
2.44039e-05
-2.06576e-05
2.89276e-05
-2.18038e-05
3.37992e-05
-2.92514e-05
3.9245e-05
-2.77643e-05
4.65198e-05
-3.11423e-05
5.66311e-05
-4.61757e-05
6.70724e-05
-5.56206e-05
7.5278e-05
-5.3632e-05
7.91182e-05
-4.41386e-05
8.03653e-05
-3.41937e-05
8.33285e-05
-2.62857e-05
7.98735e-05
-1.07007e-05
7.17667e-05
1.77475e-06
5.19954e-05
4.4105e-05
0.000105094
2.5189e-06
-1.56784e-05
5.08486e-06
-1.59567e-05
7.74403e-06
-1.65068e-05
1.05211e-05
-1.73017e-05
1.34483e-05
-1.83229e-05
1.66004e-05
-1.99003e-05
1.99992e-05
-2.14668e-05
2.38485e-05
-2.45069e-05
2.81787e-05
-2.6134e-05
3.26461e-05
-3.37187e-05
3.83466e-05
-3.34649e-05
4.61607e-05
-3.89564e-05
5.52797e-05
-5.52947e-05
6.26437e-05
-6.29845e-05
6.61396e-05
-5.71279e-05
7.39032e-05
-5.19022e-05
8.06835e-05
-4.0974e-05
8.19578e-05
-2.75599e-05
7.98753e-05
-8.61822e-06
6.18865e-05
1.97635e-05
3.39186e-05
7.20729e-05
0.000122513
2.45421e-06
-1.81326e-05
4.95707e-06
-1.84595e-05
7.55573e-06
-1.91054e-05
1.02645e-05
-2.00105e-05
1.31071e-05
-2.11654e-05
1.61602e-05
-2.29535e-05
1.94382e-05
-2.47447e-05
2.31744e-05
-2.82431e-05
2.73549e-05
-3.03145e-05
3.15465e-05
-3.79103e-05
3.74071e-05
-3.93255e-05
4.54192e-05
-4.69685e-05
5.08103e-05
-6.06858e-05
5.56028e-05
-6.77769e-05
6.83758e-05
-6.99009e-05
7.84651e-05
-6.19915e-05
8.51156e-05
-4.76245e-05
8.10943e-05
-2.35386e-05
6.38377e-05
8.63839e-06
4.4753e-05
3.88482e-05
2.52421e-05
9.15838e-05
0.000141168
2.37059e-06
-2.05032e-05
4.79352e-06
-2.08825e-05
7.31819e-06
-2.16301e-05
9.9462e-06
-2.26385e-05
1.26933e-05
-2.39125e-05
1.56416e-05
-2.59018e-05
1.8778e-05
-2.78811e-05
2.24102e-05
-3.18753e-05
2.65173e-05
-3.44215e-05
3.04155e-05
-4.18086e-05
3.62024e-05
-4.51123e-05
4.27237e-05
-5.34899e-05
4.65293e-05
-6.44914e-05
5.9927e-05
-8.11746e-05
6.74896e-05
-7.74636e-05
7.01712e-05
-6.46731e-05
6.51039e-05
-4.25572e-05
5.27489e-05
-1.11835e-05
4.23767e-05
1.90106e-05
3.57193e-05
4.55057e-05
2.4969e-05
0.000102334
0.00015467
4.74648e-06
-2.52497e-05
9.63575e-06
-2.57717e-05
1.47902e-05
-2.67845e-05
2.01633e-05
-2.80116e-05
2.57243e-05
-2.94735e-05
3.1662e-05
-3.18395e-05
3.79388e-05
-3.41579e-05
4.50844e-05
-3.90209e-05
5.34574e-05
-4.27945e-05
6.19475e-05
-5.02987e-05
7.37591e-05
-5.69239e-05
8.19862e-05
-6.17171e-05
9.67027e-05
-7.92079e-05
0.000110096
-9.45683e-05
0.000121183
-8.85499e-05
0.000115709
-5.91999e-05
9.372e-05
-2.05678e-05
8.3763e-05
-1.22652e-06
7.73745e-05
2.53991e-05
8.10543e-05
4.18259e-05
9.68251e-05
8.65632e-05
0.00010568
4.48393e-06
-2.97336e-05
9.16112e-06
-3.04489e-05
1.41113e-05
-3.17347e-05
1.92201e-05
-3.31204e-05
2.44243e-05
-3.46777e-05
3.02697e-05
-3.76849e-05
3.62132e-05
-4.01014e-05
4.16124e-05
-4.44201e-05
4.74687e-05
-4.86508e-05
5.62694e-05
-5.90994e-05
6.65321e-05
-6.71866e-05
8.21835e-05
-7.73685e-05
9.9046e-05
-9.60704e-05
0.000109371
-0.000104893
0.000111918
-9.10967e-05
9.94631e-05
-4.67451e-05
8.90421e-05
-1.01468e-05
8.63598e-05
1.45577e-06
8.73995e-05
2.43594e-05
9.9643e-05
2.95824e-05
0.00012394
6.22658e-05
5.89786e-05
4.03403e-06
-3.37676e-05
8.37217e-06
-3.47871e-05
1.27052e-05
-3.60678e-05
1.74354e-05
-3.78506e-05
2.16749e-05
-3.89172e-05
2.69422e-05
-4.29522e-05
3.36908e-05
-4.685e-05
4.29946e-05
-5.37239e-05
5.56227e-05
-6.12789e-05
6.86926e-05
-7.21694e-05
8.04357e-05
-7.89296e-05
9.91042e-05
-9.60369e-05
0.000108807
-0.000105773
0.000109999
-0.000106086
0.000108521
-8.96184e-05
0.00010183
-4.00536e-05
9.69728e-05
-5.28996e-06
9.66319e-05
1.79665e-06
0.000104247
1.67445e-05
0.000117667
1.61616e-05
0.00014354
3.63938e-05
3.05187e-05
6.02017e-06
-3.97878e-05
1.23332e-05
-4.11001e-05
1.88589e-05
-4.25935e-05
2.67818e-05
-4.57735e-05
3.54399e-05
-4.75753e-05
4.52514e-05
-5.27637e-05
5.64187e-05
-5.80173e-05
6.83141e-05
-6.56192e-05
7.98756e-05
-7.28404e-05
9.04987e-05
-8.27925e-05
0.00010014
-8.8571e-05
0.000105417
-0.000101314
0.000108071
-0.000108426
0.000108142
-0.000106157
0.000104459
-8.5935e-05
0.000100097
-3.56922e-05
9.96673e-05
-4.86e-06
0.000102643
-1.17895e-06
0.000112286
7.10168e-06
0.000124211
4.23644e-06
0.000150123
1.04814e-05
5.96032e-06
9.75101e-06
-4.95388e-05
1.88451e-05
-5.01941e-05
2.77924e-05
-5.15409e-05
3.65191e-05
-5.45002e-05
4.63442e-05
-5.74003e-05
5.56787e-05
-6.20982e-05
6.49642e-05
-6.73028e-05
7.29833e-05
-7.36382e-05
8.01108e-05
-7.99679e-05
8.55682e-05
-8.82499e-05
9.0327e-05
-9.33299e-05
9.51759e-05
-0.000106163
9.84529e-05
-0.000111703
9.96947e-05
-0.000107399
9.46826e-05
-8.09229e-05
9.16876e-05
-3.26972e-05
9.51667e-05
-8.33913e-06
0.000101115
-7.12678e-06
0.000112312
-4.09536e-06
0.000126551
-1.00032e-05
0.000149147
-1.21141e-05
-1.52321e-05
7.57871e-06
-5.71175e-05
1.53851e-05
-5.80005e-05
2.35782e-05
-5.9734e-05
3.13634e-05
-6.22854e-05
3.94678e-05
-6.55047e-05
4.69564e-05
-6.95868e-05
5.40457e-05
-7.43922e-05
6.03e-05
-7.98925e-05
6.64289e-05
-8.60968e-05
7.2237e-05
-9.4058e-05
7.80082e-05
-9.91011e-05
8.40003e-05
-0.000112155
8.81021e-05
-0.000115805
8.92427e-05
-0.00010854
8.3465e-05
-7.51452e-05
8.18884e-05
-3.11206e-05
8.80473e-05
-1.4498e-05
9.64697e-05
-1.55493e-05
0.000109136
-1.6762e-05
0.000124268
-2.51343e-05
0.000142788
-3.06345e-05
-3.58835e-05
7.29548e-06
-6.4413e-05
1.45969e-05
-6.53019e-05
2.17511e-05
-6.68882e-05
2.8613e-05
-6.91474e-05
3.54184e-05
-7.231e-05
4.19616e-05
-7.61301e-05
4.84955e-05
-8.0926e-05
5.49607e-05
-8.63578e-05
6.13098e-05
-9.24459e-05
6.72973e-05
-0.000100045
7.34604e-05
-0.000105264
7.92249e-05
-0.00011792
8.27596e-05
-0.00011934
8.14281e-05
-0.000107208
7.35716e-05
-6.72887e-05
7.33683e-05
-3.09173e-05
8.05775e-05
-2.17072e-05
9.02948e-05
-2.52666e-05
0.000103493
-2.99602e-05
0.000118378
-4.0019e-05
0.000134735
-4.69924e-05
-5.5044e-05
6.36186e-06
-7.07749e-05
1.26898e-05
-7.16299e-05
1.8935e-05
-7.31333e-05
2.51618e-05
-7.53743e-05
3.13368e-05
-7.8485e-05
3.74619e-05
-8.22551e-05
4.33666e-05
-8.68307e-05
4.91039e-05
-9.20952e-05
5.47345e-05
-9.80764e-05
5.95644e-05
-0.000104875
6.459e-05
-0.00011029
6.98467e-05
-0.000123176
7.28618e-05
-0.000122355
6.88996e-05
-0.000103246
6.12889e-05
-5.9678e-05
6.38278e-05
-3.34561e-05
7.22309e-05
-3.01103e-05
8.31649e-05
-3.62006e-05
9.62468e-05
-4.30422e-05
0.000110249
-5.40214e-05
0.000125262
-6.20056e-05
-7.19795e-05
5.63188e-06
-7.64068e-05
1.12375e-05
-7.72355e-05
1.67731e-05
-7.86689e-05
2.22286e-05
-8.08298e-05
2.74697e-05
-8.37261e-05
3.26049e-05
-8.73903e-05
3.75457e-05
-9.17716e-05
4.23398e-05
-9.68892e-05
4.70507e-05
-0.000102787
5.1776e-05
-0.000109601
5.72328e-05
-0.000115747
6.21541e-05
-0.000128098
6.37582e-05
-0.000123959
5.63826e-05
-9.58706e-05
5.03607e-05
-5.36562e-05
5.50264e-05
-3.81218e-05
6.41987e-05
-3.92826e-05
7.54987e-05
-4.75006e-05
8.78647e-05
-5.54082e-05
0.000100568
-6.67252e-05
0.000114242
-7.56786e-05
0.000129782
-8.75204e-05
-0.000102687
4.89513e-06
-8.13019e-05
9.75373e-06
-8.20941e-05
1.45301e-05
-8.34453e-05
1.91896e-05
-8.54893e-05
2.37663e-05
-8.83028e-05
2.82071e-05
-9.18311e-05
3.25364e-05
-9.61009e-05
3.67468e-05
-0.0001011
4.0871e-05
-0.000106912
4.48107e-05
-0.00011354
4.949e-05
-0.000120426
5.36808e-05
-0.000132288
5.26998e-05
-0.000122978
4.28014e-05
-8.59722e-05
3.98704e-05
-5.07251e-05
4.64098e-05
-4.46612e-05
5.64915e-05
-4.93643e-05
6.71872e-05
-5.81963e-05
7.83815e-05
-6.66026e-05
8.9536e-05
-7.78797e-05
0.000101823
-8.79652e-05
0.000116203
-0.000101901
-0.000119423
4.15506e-06
-8.54569e-05
8.2925e-06
-8.62315e-05
1.2375e-05
-8.75278e-05
1.63525e-05
-8.94668e-05
2.01816e-05
-9.21318e-05
2.38596e-05
-9.55092e-05
2.73359e-05
-9.95772e-05
3.06288e-05
-0.000104393
3.38063e-05
-0.000110089
3.6907e-05
-0.000116641
4.08743e-05
-0.000124393
4.42922e-05
-0.000135706
3.93341e-05
-0.00011802
2.92314e-05
-7.58695e-05
3.04497e-05
-5.19435e-05
3.85317e-05
-5.27432e-05
4.88525e-05
-5.96851e-05
5.83919e-05
-6.77357e-05
6.81623e-05
-7.6373e-05
7.74996e-05
-8.7217e-05
8.79939e-05
-9.84596e-05
0.000100115
-0.000114022
-0.000134199
3.3855e-06
-8.88424e-05
6.76454e-06
-8.96106e-05
1.01477e-05
-9.0911e-05
1.34981e-05
-9.28171e-05
1.66838e-05
-9.53176e-05
1.96546e-05
-9.848e-05
2.2396e-05
-0.000102319
2.48531e-05
-0.00010685
2.69772e-05
-0.000112213
2.89326e-05
-0.000118597
3.16473e-05
-0.000127108
3.36535e-05
-0.000137713
2.38753e-05
-0.000108241
1.6275e-05
-6.82693e-05
2.22401e-05
-5.79086e-05
3.1753e-05
-6.22561e-05
4.11413e-05
-6.90734e-05
4.955e-05
-7.61443e-05
5.7753e-05
-8.45759e-05
6.5149e-05
-9.46131e-05
7.39459e-05
-0.000107256
8.24052e-05
-0.000122481
-0.000145431
2.85925e-06
-9.17017e-05
5.65833e-06
-9.24096e-05
8.37067e-06
-9.36233e-05
1.10365e-05
-9.54829e-05
1.35835e-05
-9.78646e-05
1.59425e-05
-0.000100839
1.80366e-05
-0.000104413
1.97061e-05
-0.000108519
2.0679e-05
-0.000113186
2.08057e-05
-0.000118723
2.01025e-05
-0.000126405
1.62695e-05
-0.00013388
6.28001e-06
-9.82519e-05
5.80108e-06
-6.77903e-05
1.57222e-05
-6.78297e-05
2.58263e-05
-7.23602e-05
3.41155e-05
-7.73625e-05
4.16596e-05
-8.36885e-05
4.83065e-05
-9.12228e-05
5.38957e-05
-0.000100202
6.06175e-05
-0.000113978
5.99893e-05
-0.000121853
-0.000180929
2.50617e-06
-9.42079e-05
4.9163e-06
-9.48198e-05
7.16312e-06
-9.58701e-05
9.19949e-06
-9.75193e-05
1.11004e-05
-9.97655e-05
1.28763e-05
-0.000102615
1.44266e-05
-0.000105963
1.545e-05
-0.000109543
1.53265e-05
-0.000113062
1.293e-05
-0.000116327
5.36403e-06
-0.000118839
-7.88009e-06
-0.000120635
-1.00217e-05
-9.61103e-05
-6.73086e-08
-7.77448e-05
1.22001e-05
-8.00971e-05
2.12437e-05
-8.14038e-05
2.86982e-05
-8.48171e-05
3.53925e-05
-9.03827e-05
3.9546e-05
-9.53763e-05
3.82937e-05
-9.89499e-05
4.30051e-05
-0.00011869
4.44192e-05
-0.000123267
-0.000107775
1.89209e-06
-9.61e-05
3.65882e-06
-9.65865e-05
5.18194e-06
-9.73933e-05
6.3063e-06
-9.86437e-05
7.05848e-06
-0.000100518
7.80503e-06
-0.000103361
9.19497e-06
-0.000107353
1.18937e-05
-0.000112241
1.39661e-05
-0.000115135
7.83575e-06
-0.000110196
-1.5201e-05
-9.5802e-05
-2.52765e-05
-0.00011056
-1.44846e-05
-0.000106902
3.0395e-07
-9.25333e-05
1.07916e-05
-9.05848e-05
1.72014e-05
-8.78136e-05
2.02112e-05
-8.78269e-05
2.5357e-05
-9.55286e-05
2.52003e-05
-9.52196e-05
2.02018e-05
-9.39514e-05
-1.49553e-05
-8.35325e-05
-7.70412e-05
-6.11807e-05
-5.89199e-05
1.04722e-06
-9.71472e-05
2.05711e-06
-9.75964e-05
3.14525e-06
-9.84814e-05
4.38217e-06
-9.98806e-05
6.32744e-06
-0.000102463
9.04326e-06
-0.000106077
1.02425e-05
-0.000108552
4.45511e-06
-0.000106454
-1.02891e-05
-0.000100391
-3.26918e-05
-8.77937e-05
-5.22229e-05
-7.6271e-05
-4.3388e-05
-0.000119395
-1.60212e-05
-0.000134269
4.96798e-07
-0.000109051
5.86518e-06
-9.59532e-05
7.36977e-06
-8.93182e-05
5.85407e-06
-8.63112e-05
-1.14087e-05
-7.82658e-05
-4.01785e-05
-6.64498e-05
-6.91943e-05
-6.49356e-05
-7.5839e-05
-7.68878e-05
-7.36171e-05
-6.34026e-05
-7.56044e-06
-7.16529e-06
-8.99819e-05
-1.45564e-05
-9.02053e-05
-2.23299e-05
-9.07079e-05
-3.03311e-05
-9.18794e-05
-3.9105e-05
-9.3689e-05
-4.76038e-05
-9.75785e-05
-5.64135e-05
-9.97423e-05
-6.13865e-05
-0.000101481
-5.26499e-05
-0.000109127
-2.77977e-05
-0.000112646
1.43011e-05
-0.00011837
2.78903e-05
-0.000132984
4.87364e-06
-0.000111252
-2.6619e-05
-7.75587e-05
-5.45275e-05
-6.80447e-05
-7.661e-05
-6.72357e-05
-9.13824e-05
-8.93624e-05
-5.80111e-05
-3.03813e-05
-4.75185e-05
-0.000101249
-4.70517e-06
-8.26769e-06
-1.08963e-05
-1.26582e-05
-1.35168e-05
-1.50124e-05
-1.59301e-05
-1.63088e-05
-2.11899e-05
-2.74955e-05
-3.79878e-05
-5.99999e-05
-7.52964e-05
-7.65551e-05
-7.10147e-05
)
;

boundaryField
{
    leftWall
    {
        type            calculated;
        value           uniform 0;
    }
    rightWall
    {
        type            calculated;
        value           nonuniform 0();
    }
    lowerWall
    {
        type            calculated;
        value           nonuniform List<scalar> 
22
(
-2.31005e-29
-9.08047e-30
-2.24143e-29
-9.69034e-29
-3.99498e-28
-1.97026e-27
-1.05885e-22
-1.37913e-26
-2.35716e-24
1.11199e-23
2.85658e-23
-1.20551e-22
-1.18389e-23
2.36203e-23
-1.28045e-22
-5.83421e-23
3.70939e-23
4.77697e-23
6.47269e-23
-8.27181e-23
6.61744e-24
-2.64698e-23
)
;
    }
    atmosphere
    {
        type            calculated;
        value           nonuniform 0();
    }
    defaultFaces
    {
        type            empty;
        value           nonuniform 0();
    }
    procBoundary0to1
    {
        type            processor;
        value           nonuniform List<scalar> 
26
(
8.29365e-05
8.89942e-05
8.17506e-05
6.25054e-05
3.93401e-05
1.64992e-05
6.58772e-06
1.14663e-05
0.000145816
0.000170642
0.000171999
0.000174682
0.000170339
0.000163439
0.000153896
0.000142198
8.4766e-05
0.000147704
0.000132939
0.000114891
9.36375e-05
9.54866e-05
-2.87344e-05
-0.000125897
-0.000124977
-0.000133247
)
;
    }
    procBoundary0to2
    {
        type            processor;
        value           nonuniform List<scalar> 
24
(
-7.15388e-05
-8.02857e-05
-9.78011e-05
-9.25654e-05
-5.97506e-05
-9.67207e-06
2.44372e-05
-8.52767e-05
-8.66428e-05
-8.80792e-05
-9.01176e-05
-9.28304e-05
-9.60829e-05
-9.88246e-05
-0.000101102
-0.000104246
-0.00010634
-0.000107878
-0.000110972
-9.59558e-05
-7.63e-05
-7.35851e-05
-5.91574e-05
-7.9093e-05
)
;
    }
}


// ************************************************************************* //
