/*--------------------------------*- C++ -*----------------------------------*\
| =========                 |                                                 |
| \\      /  F ield         | OpenFOAM: The Open Source CFD Toolbox           |
|  \\    /   O peration     | Version:  2.4.0                                 |
|   \\  /    A nd           | Web:      www.OpenFOAM.org                      |
|    \\/     M anipulation  |                                                 |
\*---------------------------------------------------------------------------*/
FoamFile
{
    version     2.0;
    format      ascii;
    class       surfaceScalarField;
    location    "0.15";
    object      phi.air;
}
// * * * * * * * * * * * * * * * * * * * * * * * * * * * * * * * * * * * * * //

dimensions      [0 3 -1 0 0 0 0];

internalField   nonuniform List<scalar> 
1101
(
2.67193e-06
-2.67188e-06
5.39018e-06
-2.7182e-06
8.20015e-06
-2.80992e-06
1.1152e-05
-2.95176e-06
1.42861e-05
-3.13407e-06
1.77015e-05
-3.41542e-06
2.13878e-05
-3.68626e-06
2.57294e-05
-4.3416e-06
2.97396e-05
-4.01018e-06
3.64102e-05
-6.67064e-06
4.22587e-05
-5.84839e-06
4.7997e-05
-5.73837e-06
5.57446e-05
-7.74756e-06
6.58117e-05
-1.00671e-05
7.75506e-05
-1.17389e-05
8.98978e-05
-1.23472e-05
0.000101167
-1.12689e-05
0.000109953
-8.78593e-06
0.000115141
-5.18689e-06
0.000115978
-8.0809e-07
0.000108836
7.25427e-06
2.36004e-05
2.66292e-06
-5.33473e-06
5.37219e-06
-5.4274e-06
8.17289e-06
-5.61056e-06
1.11142e-05
-5.89302e-06
1.42343e-05
-6.25408e-06
1.76398e-05
-6.82085e-06
2.13058e-05
-7.35227e-06
2.55377e-05
-8.57347e-06
2.97965e-05
-8.26893e-06
3.61675e-05
-1.30416e-05
4.17597e-05
-1.14406e-05
4.75244e-05
-1.1503e-05
5.62859e-05
-1.6509e-05
6.76114e-05
-2.13925e-05
7.94447e-05
-2.35722e-05
9.03057e-05
-2.32078e-05
9.94976e-05
-2.04522e-05
0.000106803
-1.60575e-05
0.000112134
-1.04537e-05
0.00011535
-4.02126e-06
0.000114823
4.95884e-06
3.25783e-05
2.64235e-06
-7.97705e-06
5.33088e-06
-8.11589e-06
8.11052e-06
-8.39016e-06
1.10276e-05
-8.81002e-06
1.41193e-05
-9.3458e-06
1.74931e-05
-1.01947e-05
2.11267e-05
-1.09858e-05
2.52431e-05
-1.26899e-05
2.97305e-05
-1.27563e-05
3.56211e-05
-1.89323e-05
4.11001e-05
-1.69195e-05
4.70112e-05
-1.7414e-05
5.6467e-05
-2.59648e-05
6.83473e-05
-3.32728e-05
7.99545e-05
-3.51693e-05
8.97613e-05
-3.2962e-05
9.74191e-05
-2.80329e-05
0.000102764
-2.17007e-05
0.000105759
-1.5848e-05
0.000106086
-1.30672e-05
0.000104756
-1.05931e-05
2.22965e-05
2.61165e-06
-1.05886e-05
5.2694e-06
-1.07736e-05
8.01817e-06
-1.11389e-05
1.08989e-05
-1.16907e-05
1.39511e-05
-1.23979e-05
1.72652e-05
-1.35088e-05
2.08436e-05
-1.45641e-05
2.48779e-05
-1.67241e-05
2.94016e-05
-1.72799e-05
3.48489e-05
-2.43797e-05
4.02478e-05
-2.23184e-05
4.67013e-05
-2.38675e-05
5.68007e-05
-3.60641e-05
6.87059e-05
-4.51338e-05
7.89689e-05
-4.53142e-05
8.62442e-05
-4.07583e-05
9.09976e-05
-3.64065e-05
9.28588e-05
-3.41262e-05
9.40482e-05
-3.56447e-05
9.70195e-05
-3.80572e-05
9.30633e-05
-2.15306e-05
3.45719e-05
2.57068e-06
-1.31593e-05
5.18766e-06
-1.33905e-05
7.89621e-06
-1.38474e-05
1.073e-05
-1.45245e-05
1.37276e-05
-1.53955e-05
1.69669e-05
-1.67481e-05
2.04705e-05
-1.80678e-05
2.44039e-05
-2.06575e-05
2.89276e-05
-2.18037e-05
3.37992e-05
-2.92512e-05
3.92451e-05
-2.77642e-05
4.65197e-05
-3.11422e-05
5.66238e-05
-4.60808e-05
6.7089e-05
-5.54322e-05
7.51515e-05
-5.5549e-05
7.86764e-05
-5.41462e-05
7.95486e-05
-5.87923e-05
8.14259e-05
-5.98635e-05
7.94366e-05
-5.49112e-05
7.49721e-05
-1.35796e-05
5.72931e-05
3.40123e-05
9.70676e-05
2.5189e-06
-1.56782e-05
5.08487e-06
-1.59565e-05
7.74405e-06
-1.65066e-05
1.05211e-05
-1.73015e-05
1.34483e-05
-1.83227e-05
1.66004e-05
-1.99001e-05
1.99992e-05
-2.14666e-05
2.38485e-05
-2.45068e-05
2.81787e-05
-2.61339e-05
3.26461e-05
-3.37186e-05
3.83467e-05
-3.34648e-05
4.61257e-05
-3.88932e-05
5.53131e-05
-5.49397e-05
6.22819e-05
-6.5824e-05
6.46351e-05
-7.23616e-05
6.81157e-05
-8.68368e-05
7.21034e-05
-8.63025e-05
7.61061e-05
-4.54611e-05
7.87372e-05
-1.07215e-05
6.18819e-05
1.9754e-05
3.39235e-05
7.20681e-05
0.000122507
2.45422e-06
-1.81324e-05
4.95708e-06
-1.84593e-05
7.55576e-06
-1.91052e-05
1.02645e-05
-2.00103e-05
1.31071e-05
-2.11652e-05
1.61603e-05
-2.29533e-05
1.94382e-05
-2.47446e-05
2.31744e-05
-2.8243e-05
2.73549e-05
-3.03144e-05
3.15465e-05
-3.79102e-05
3.738e-05
-3.93125e-05
4.5533e-05
-4.65122e-05
5.03763e-05
-6.34633e-05
5.24102e-05
-8.33833e-05
5.73509e-05
-0.000104739
6.39327e-05
-0.000101103
8.00487e-05
-5.65764e-05
8.05918e-05
-2.51483e-05
6.37623e-05
8.5485e-06
4.47517e-05
3.88481e-05
2.52406e-05
9.15833e-05
0.000141163
2.3706e-06
-2.05028e-05
4.79354e-06
-2.0882e-05
7.3182e-06
-2.16293e-05
9.94623e-06
-2.26365e-05
1.26933e-05
-2.39054e-05
1.56416e-05
-2.58757e-05
1.8778e-05
-2.78191e-05
2.24102e-05
-3.17243e-05
2.65173e-05
-3.41115e-05
3.04108e-05
-4.1175e-05
3.62263e-05
-4.43665e-05
4.24186e-05
-5.5197e-05
4.34066e-05
-7.66561e-05
4.83548e-05
-0.000110264
5.31866e-05
-0.000113733
6.44949e-05
-7.85299e-05
6.46689e-05
-4.62749e-05
5.25638e-05
-1.18247e-05
4.23752e-05
1.90102e-05
3.57177e-05
4.55057e-05
2.49667e-05
0.000102334
0.000154669
4.74651e-06
-2.50096e-05
9.63584e-06
-2.55172e-05
1.47905e-05
-2.6498e-05
2.01647e-05
-2.76764e-05
2.57307e-05
-2.90735e-05
3.16829e-05
-3.1401e-05
3.7983e-05
-3.39069e-05
4.51468e-05
-3.9423e-05
5.34882e-05
-4.46349e-05
6.16154e-05
-5.55498e-05
7.2229e-05
-6.77564e-05
7.58024e-05
-8.21388e-05
7.9483e-05
-0.000109899
8.8166e-05
-0.000126164
0.00010734
-9.68681e-05
0.000113746
-6.4222e-05
9.3249e-05
-2.41361e-05
8.37269e-05
-1.25464e-06
7.73719e-05
2.53993e-05
8.10508e-05
4.18265e-05
9.68199e-05
8.65641e-05
0.000105682
4.49193e-06
-3.11185e-05
9.17737e-06
-3.20223e-05
1.41314e-05
-3.37909e-05
1.92316e-05
-3.59744e-05
2.43931e-05
-3.8641e-05
3.01054e-05
-4.35657e-05
3.57602e-05
-4.84532e-05
4.05888e-05
-5.643e-05
4.53029e-05
-6.52157e-05
5.06137e-05
-8.11243e-05
5.48646e-05
-9.5347e-05
6.80999e-05
-0.000105262
8.86778e-05
-0.000109031
0.000106779
-0.000106909
0.000110821
-9.18772e-05
9.99256e-05
-5.24221e-05
8.84292e-05
-1.38704e-05
8.63402e-05
1.38209e-06
8.73972e-05
2.436e-05
9.964e-05
2.95833e-05
0.000123936
6.22672e-05
5.89811e-05
3.93468e-06
-4.80015e-05
8.10811e-06
-4.93644e-05
1.21819e-05
-5.15981e-05
1.64573e-05
-5.47238e-05
2.00399e-05
-5.7495e-05
2.40949e-05
-6.40614e-05
2.89932e-05
-7.04447e-05
3.5581e-05
-7.95434e-05
4.59434e-05
-8.78049e-05
5.99859e-05
-9.15343e-05
7.53967e-05
-8.53913e-05
9.72059e-05
-9.74785e-05
0.000108422
-0.000106149
0.000110139
-0.000105739
0.00010789
-9.01834e-05
0.000101733
-4.53483e-05
9.67053e-05
-9.60141e-06
9.65159e-05
1.56041e-06
0.000104245
1.67453e-05
0.000117665
1.61628e-05
0.000143536
3.63953e-05
3.05209e-05
4.99974e-06
-4.18507e-05
1.02501e-05
-4.31172e-05
1.58389e-05
-4.5747e-05
2.29566e-05
-4.98001e-05
3.12208e-05
-5.05574e-05
4.10407e-05
-5.44165e-05
5.27541e-05
-5.89369e-05
6.56148e-05
-6.60296e-05
7.82835e-05
-7.29923e-05
9.00045e-05
-8.27409e-05
0.000100105
-8.85228e-05
0.000105338
-0.000101274
0.000108288
-0.000108319
0.000108261
-0.000105808
0.000104006
-8.66258e-05
9.98066e-05
-4.08908e-05
9.95223e-05
-9.02435e-06
0.00010234
-1.4376e-06
0.000112284
7.10263e-06
0.000124209
4.2377e-06
0.000150121
1.04831e-05
5.96267e-06
9.75103e-06
-4.95385e-05
1.88451e-05
-5.01938e-05
2.77924e-05
-5.15404e-05
3.65191e-05
-5.44995e-05
4.63441e-05
-5.73998e-05
5.56787e-05
-6.20978e-05
6.49642e-05
-6.73024e-05
7.29832e-05
-7.36379e-05
8.01107e-05
-7.99676e-05
8.5568e-05
-8.82495e-05
9.03258e-05
-9.33297e-05
9.51017e-05
-0.000106163
9.86829e-05
-0.000111566
9.97492e-05
-0.000107068
9.42519e-05
-8.21926e-05
9.13519e-05
-3.82577e-05
9.47448e-05
-1.15844e-05
0.00010088
-7.22226e-06
0.00011231
-4.09428e-06
0.00012655
-1.00018e-05
0.000149145
-1.21124e-05
-1.52298e-05
7.57872e-06
-5.71172e-05
1.53851e-05
-5.80001e-05
2.35782e-05
-5.97337e-05
3.13634e-05
-6.22851e-05
3.94677e-05
-6.55043e-05
4.69563e-05
-6.95865e-05
5.40456e-05
-7.43918e-05
6.02999e-05
-7.98921e-05
6.64288e-05
-8.60962e-05
7.22369e-05
-9.4057e-05
7.80063e-05
-9.91006e-05
8.39275e-05
-0.000112154
8.83433e-05
-0.000115623
8.91744e-05
-0.000108308
8.30206e-05
-7.74818e-05
8.16036e-05
-3.66965e-05
8.73692e-05
-1.6415e-05
9.64244e-05
-1.55562e-05
0.000109135
-1.67608e-05
0.000124267
-2.51326e-05
0.000142787
-3.06321e-05
-3.58802e-05
7.29548e-06
-6.44123e-05
1.45969e-05
-6.53012e-05
2.17511e-05
-6.68875e-05
2.8613e-05
-6.91466e-05
3.54184e-05
-7.23092e-05
4.19616e-05
-7.61291e-05
4.84955e-05
-8.09248e-05
5.49608e-05
-8.6356e-05
6.131e-05
-9.24436e-05
6.72975e-05
-0.000100043
7.34581e-05
-0.000105262
7.91481e-05
-0.000117918
8.29622e-05
-0.0001191
8.1258e-05
-0.000107247
7.33249e-05
-7.08834e-05
7.32507e-05
-3.56936e-05
8.00511e-05
-2.2503e-05
9.02889e-05
-2.52649e-05
0.000103492
-2.9958e-05
0.000118377
-4.00154e-05
0.000134736
-4.6987e-05
-5.50367e-05
6.36187e-06
-7.07729e-05
1.26899e-05
-7.1628e-05
1.8935e-05
-7.31313e-05
2.51619e-05
-7.53719e-05
3.13369e-05
-7.84823e-05
3.7462e-05
-8.22518e-05
4.33668e-05
-8.68266e-05
4.91045e-05
-9.20899e-05
5.47353e-05
-9.80701e-05
5.95654e-05
-0.000104868
6.45879e-05
-0.000110283
6.9784e-05
-0.000123173
7.30115e-05
-0.000122052
6.86325e-05
-0.000103869
6.11166e-05
-6.43096e-05
6.35814e-05
-3.66546e-05
7.20245e-05
-3.02085e-05
8.31645e-05
-3.6198e-05
9.6247e-05
-4.30364e-05
0.00011025
-5.40116e-05
0.000125266
-6.19925e-05
-7.19605e-05
5.63193e-06
-7.64007e-05
1.12376e-05
-7.72294e-05
1.67732e-05
-7.86624e-05
2.22289e-05
-8.08227e-05
2.74701e-05
-8.37181e-05
3.26056e-05
-8.73809e-05
3.75469e-05
-9.17596e-05
4.23415e-05
-9.68739e-05
4.70532e-05
-0.000102768
5.17792e-05
-0.000109578
5.72322e-05
-0.00011573
6.21116e-05
-0.000128092
6.38101e-05
-0.000123621
5.61741e-05
-9.75681e-05
5.03065e-05
-5.86523e-05
5.45967e-05
-3.9686e-05
6.4177e-05
-3.92778e-05
7.54991e-05
-4.74917e-05
8.78668e-05
-5.53936e-05
0.000100573
-6.66995e-05
0.000114251
-7.56377e-05
0.000129796
-8.74575e-05
-0.000102651
4.8953e-06
-8.12826e-05
9.7541e-06
-8.20742e-05
1.45307e-05
-8.34244e-05
1.91905e-05
-8.54665e-05
2.37677e-05
-8.8276e-05
2.82093e-05
-9.17967e-05
3.25399e-05
-9.60565e-05
3.67522e-05
-0.000101044
4.08791e-05
-0.000106845
4.48194e-05
-0.000113466
4.94915e-05
-0.000120386
5.36664e-05
-0.00013228
5.26537e-05
-0.000122742
4.28003e-05
-8.91938e-05
3.99166e-05
-5.48158e-05
4.61723e-05
-4.4945e-05
5.64912e-05
-4.93558e-05
6.71894e-05
-5.81698e-05
7.83881e-05
-6.65567e-05
8.95523e-05
-7.77943e-05
0.000101859
-8.78643e-05
0.000116239
-0.000101786
-0.000113331
4.15561e-06
-8.5383e-05
8.29369e-06
-8.61553e-05
1.2377e-05
-8.74488e-05
1.63557e-05
-8.9384e-05
2.0187e-05
-9.20442e-05
2.38687e-05
-9.54159e-05
2.73497e-05
-9.9483e-05
3.06483e-05
-0.000104306
3.38319e-05
-0.000110007
3.69304e-05
-0.000116526
4.0882e-05
-0.000124142
4.43107e-05
-0.000135074
3.92657e-05
-0.000119038
2.94185e-05
-8.03554e-05
3.0288e-05
-5.40386e-05
3.84938e-05
-5.27007e-05
4.88544e-05
-5.9645e-05
5.84005e-05
-6.76569e-05
6.81878e-05
-7.6295e-05
7.75425e-05
-8.70683e-05
8.80487e-05
-9.62492e-05
0.000102576
-8.18607e-05
-7.2432e-05
3.38741e-06
-8.86485e-05
6.76866e-06
-8.93894e-05
1.01546e-05
-9.06268e-05
1.35084e-05
-9.23986e-05
1.66976e-05
-9.46114e-05
1.9671e-05
-9.71296e-05
2.24124e-05
-9.94516e-05
2.48685e-05
-0.00010044
2.69979e-05
-9.80168e-05
2.8977e-05
-8.89071e-05
3.18195e-05
-8.64245e-05
3.37955e-05
-9.39193e-05
2.40589e-05
-0.000101274
1.65281e-05
-7.04843e-05
2.21053e-05
-5.27058e-05
3.17521e-05
-6.20241e-05
4.11494e-05
-6.87491e-05
4.95664e-05
-7.46223e-05
5.77839e-05
-7.55889e-05
6.56419e-05
-5.25564e-05
8.70203e-05
-4.85678e-05
0.000118502
-6.00997e-05
-7.73782e-05
2.86167e-06
-5.01747e-05
5.66503e-06
-5.00333e-05
8.38728e-06
-4.97848e-05
1.10801e-05
-4.97464e-05
1.37077e-05
-5.00107e-05
1.63169e-05
-5.06944e-05
1.9126e-05
-5.15469e-05
2.24299e-05
-5.2332e-05
2.65056e-05
-5.34422e-05
2.78933e-05
-5.7126e-05
3.17466e-05
-6.66922e-05
2.52298e-05
-6.87665e-05
4.87571e-06
-3.33855e-05
5.27239e-06
-2.74547e-05
1.52016e-05
-3.71658e-05
2.58317e-05
-3.33986e-05
3.42549e-05
-2.9457e-05
4.31797e-05
-2.81373e-05
5.84979e-05
-3.02227e-05
7.81565e-05
-3.62153e-05
9.25466e-05
-4.7115e-05
8.66216e-05
-5.73369e-05
-0.000150872
2.93169e-06
-3.14055e-05
5.90384e-06
-3.21394e-05
9.01179e-06
-3.35538e-05
1.24414e-05
-3.59981e-05
1.65515e-05
-3.96273e-05
2.16296e-05
-4.4624e-05
2.65239e-05
-5.03902e-05
2.85715e-05
-5.61422e-05
2.5491e-05
-6.11377e-05
1.60927e-05
-6.66725e-05
7.14763e-06
-7.0335e-05
-2.26086e-05
-6.81315e-05
-3.22552e-05
-3.97052e-05
-6.30681e-06
-2.03201e-05
6.44725e-06
-2.04196e-05
2.39059e-05
-1.88086e-05
4.05529e-05
-2.12562e-05
5.56389e-05
-2.68018e-05
5.50348e-05
-2.75953e-05
4.95605e-05
-3.76228e-05
6.19556e-05
-7.36852e-05
5.56236e-05
-9.30797e-05
-0.000106503
1.91994e-06
-5.02003e-05
3.66748e-06
-5.10489e-05
5.09567e-06
-5.25855e-05
6.16516e-06
-5.49912e-05
7.144e-06
-5.85793e-05
9.29536e-06
-6.37085e-05
1.33636e-05
-7.0109e-05
1.92512e-05
-7.64364e-05
2.16293e-05
-8.12394e-05
1.1372e-05
-7.99477e-05
-1.73496e-05
-6.89926e-05
-3.78446e-05
-8.78459e-05
-2.35712e-05
-7.31584e-05
-1.85346e-06
-4.4807e-05
9.63061e-06
-3.91046e-05
1.81302e-05
-3.46064e-05
2.37274e-05
-3.62316e-05
3.89094e-05
-4.93115e-05
3.37218e-05
-5.67624e-05
2.48946e-05
-6.73921e-05
-1.46681e-05
-7.96363e-05
-7.70634e-05
-6.10762e-05
-5.89198e-05
1.26408e-06
-8.04952e-05
2.47429e-06
-8.13376e-05
3.75649e-06
-8.32227e-05
5.18215e-06
-8.62663e-05
7.32142e-06
-9.07574e-05
1.01305e-05
-9.69165e-05
1.10935e-05
-0.000102031
4.80249e-06
-0.00010309
-1.02842e-05
-9.94801e-05
-3.27784e-05
-8.75298e-05
-5.30757e-05
-7.60208e-05
-4.70932e-05
-0.000117144
-1.86805e-05
-0.000121897
6.06752e-08
-8.93219e-05
6.55126e-06
-7.50063e-05
8.44374e-06
-6.99239e-05
7.15486e-06
-7.17608e-05
-1.13439e-05
-7.29245e-05
-4.02948e-05
-6.59069e-05
-6.92037e-05
-6.49007e-05
-7.58389e-05
-7.68875e-05
-7.3617e-05
-6.34026e-05
-7.56043e-06
-7.17196e-06
-8.99474e-05
-1.45664e-05
-9.01788e-05
-2.23402e-05
-9.06889e-05
-3.03389e-05
-9.18679e-05
-3.91097e-05
-9.36828e-05
-4.76058e-05
-9.75756e-05
-5.64141e-05
-9.97412e-05
-6.13866e-05
-0.000101481
-5.265e-05
-0.000109127
-2.77983e-05
-0.000112646
1.43078e-05
-0.000118369
2.7916e-05
-0.000132983
4.89338e-06
-0.000111239
-2.66789e-05
-7.74878e-05
-5.45978e-05
-6.79839e-05
-7.66387e-05
-6.72055e-05
-9.13864e-05
-8.93625e-05
-5.8011e-05
-3.03813e-05
-4.75185e-05
-0.000101249
-4.70518e-06
-8.2677e-06
-1.08963e-05
-1.26582e-05
-1.35168e-05
-1.50124e-05
-1.59302e-05
-1.63088e-05
-2.11899e-05
-2.74955e-05
-3.79878e-05
-6e-05
-7.52965e-05
-7.65551e-05
-7.10146e-05
)
;

boundaryField
{
    leftWall
    {
        type            fixedValue;
        value           uniform 0;
    }
    rightWall
    {
        type            fixedValue;
        value           nonuniform 0();
    }
    lowerWall
    {
        type            fixedValue;
        value           uniform 0;
    }
    atmosphere
    {
        type            calculated;
        value           nonuniform 0();
    }
    defaultFaces
    {
        type            empty;
        value           nonuniform 0();
    }
    procBoundary0to1
    {
        type            processor;
        value           nonuniform List<scalar> 
26
(
8.37188e-05
9.08834e-05
9.14071e-05
8.71752e-05
6.95592e-05
2.61937e-05
7.28101e-06
1.14604e-05
0.000145806
0.000170637
0.000171996
0.000174679
0.000170337
0.000163439
0.000153897
0.000142203
8.47488e-05
0.000147721
0.000133018
0.000151122
0.000137904
0.000125153
-2.88331e-05
-0.000125896
-0.000124976
-0.000133247
)
;
    }
    procBoundary0to2
    {
        type            processor;
        value           nonuniform List<scalar> 
24
(
-7.15332e-05
-8.02853e-05
-9.78009e-05
-9.25652e-05
-5.97505e-05
-9.67206e-06
2.44372e-05
-8.52769e-05
-8.66429e-05
-8.80794e-05
-9.01177e-05
-9.28306e-05
-9.60831e-05
-9.88247e-05
-0.000101103
-0.000104246
-0.00010634
-0.000107878
-0.000110972
-9.59559e-05
-7.63001e-05
-7.35851e-05
-5.91573e-05
-7.9093e-05
)
;
    }
}


// ************************************************************************* //
