/*--------------------------------*- C++ -*----------------------------------*\
| =========                 |                                                 |
| \\      /  F ield         | OpenFOAM: The Open Source CFD Toolbox           |
|  \\    /   O peration     | Version:  2.4.0                                 |
|   \\  /    A nd           | Web:      www.OpenFOAM.org                      |
|    \\/     M anipulation  |                                                 |
\*---------------------------------------------------------------------------*/
FoamFile
{
    version     2.0;
    format      ascii;
    class       volVectorField;
    location    "0.15";
    object      U;
}
// * * * * * * * * * * * * * * * * * * * * * * * * * * * * * * * * * * * * * //

dimensions      [0 1 -1 0 0 0 0];

internalField   nonuniform List<vector> 
575
(
(0.0152584 -0.00721457 0)
(0.046035 -0.00733797 0)
(0.0776682 -0.00758539 0)
(0.110357 -0.00796793 0)
(0.14607 -0.00846452 0)
(0.180722 -0.00919065 0)
(0.227845 -0.0101109 0)
(0.261983 -0.0111895 0)
(0.326552 -0.0117839 0)
(0.367342 -0.0179199 0)
(0.450042 -0.0143329 0)
(0.527084 -0.0159104 0)
(0.585143 -0.02246 0)
(0.677334 -0.0291186 0)
(0.811871 -0.0337762 0)
(0.961488 -0.0343129 0)
(1.10675 -0.0284072 0)
(1.2273 -0.0145239 0)
(1.31331 -0.00466462 0)
(1.33784 -0.00981234 0)
(1.31013 -0.00796263 0)
(1.10154 -0.0110307 0)
(0.0152064 -0.0216247 0)
(0.0458825 -0.0220005 0)
(0.0774096 -0.0227425 0)
(0.109997 -0.0238888 0)
(0.145554 -0.0253551 0)
(0.18006 -0.0276713 0)
(0.227138 -0.0296501 0)
(0.260335 -0.0356794 0)
(0.325363 -0.0312307 0)
(0.368012 -0.0553321 0)
(0.447568 -0.0476808 0)
(0.518806 -0.0462275 0)
(0.582623 -0.0628009 0)
(0.693617 -0.081997 0)
(0.837703 -0.0955804 0)
(0.978685 -0.101016 0)
(1.10115 -0.0947442 0)
(1.19674 -0.0825243 0)
(1.27702 -0.0529166 0)
(1.32364 -0.000410666 0)
(1.35082 0.077041 0)
(1.19039 0.246258 0)
(0.0150895 -0.0359512 0)
(0.0455319 -0.0365761 0)
(0.0768163 -0.0378104 0)
(0.109174 -0.0397076 0)
(0.144366 -0.0421297 0)
(0.178649 -0.045948 0)
(0.225252 -0.0496139 0)
(0.257298 -0.0571203 0)
(0.323446 -0.0572964 0)
(0.36572 -0.0866578 0)
(0.443262 -0.0750324 0)
(0.509215 -0.0787011 0)
(0.57859 -0.117092 0)
(0.702968 -0.151497 0)
(0.850982 -0.162106 0)
(0.982281 -0.154235 0)
(1.08795 -0.13142 0)
(1.16597 -0.0894788 0)
(1.22018 -0.0606244 0)
(1.23551 -0.0501912 0)
(1.26239 -0.00831309 0)
(1.04205 0.331115 0)
(0.014915 -0.0501384 0)
(0.045009 -0.0510124 0)
(0.0759352 -0.0527377 0)
(0.107958 -0.0553615 0)
(0.142581 -0.0587134 0)
(0.176689 -0.0640257 0)
(0.221954 -0.0689294 0)
(0.253791 -0.0796274 0)
(0.319647 -0.0806409 0)
(0.359843 -0.11709 0)
(0.435857 -0.10878 0)
(0.498589 -0.110645 0)
(0.577692 -0.165739 0)
(0.709892 -0.212799 0)
(0.853712 -0.223834 0)
(0.96214 -0.206489 0)
(1.03646 -0.177611 0)
(1.08348 -0.157075 0)
(1.11272 -0.112788 0)
(1.13707 -0.0127764 0)
(1.15074 0.235639 0)
(0.544464 0.652736 0)
(0.0146821 -0.064149 0)
(0.0443117 -0.0652721 0)
(0.0747692 -0.0674886 0)
(0.10635 -0.0708046 0)
(0.140248 -0.0750594 0)
(0.174055 -0.0817012 0)
(0.21767 -0.088165 0)
(0.249348 -0.100835 0)
(0.314019 -0.105676 0)
(0.352656 -0.145964 0)
(0.422232 -0.133896 0)
(0.490432 -0.149425 0)
(0.575591 -0.227556 0)
(0.704834 -0.283998 0)
(0.828354 -0.278626 0)
(0.916053 -0.248527 0)
(0.954566 -0.207057 0)
(0.982154 -0.107209 0)
(0.987383 0.0638645 0)
(0.886255 0.0530759 0)
(0.825207 0.131073 0)
(0.231977 0.489506 0)
(0.014388 -0.0778925 0)
(0.0434313 -0.0792656 0)
(0.0733121 -0.0819788 0)
(0.104341 -0.0859579 0)
(0.137374 -0.0910962 0)
(0.170716 -0.099046 0)
(0.212459 -0.106927 0)
(0.243857 -0.12228 0)
(0.307287 -0.129967 0)
(0.340076 -0.170014 0)
(0.411269 -0.166278 0)
(0.482321 -0.187628 0)
(0.567549 -0.279487 0)
(0.682834 -0.333244 0)
(0.77782 -0.331115 0)
(0.83834 -0.25497 0)
(0.9428 -0.0799741 0)
(0.97537 -0.0707145 0)
(0.930029 -0.134201 0)
(0.84594 -0.0190599 0)
(0.636264 0.29473 0)
(0.045003 0.646599 0)
(0.0140211 -0.0911666 0)
(0.0423319 -0.0928099 0)
(0.0715108 -0.0960615 0)
(0.101843 -0.100706 0)
(0.133879 -0.10671 0)
(0.16657 -0.115886 0)
(0.206319 -0.124996 0)
(0.237482 -0.142547 0)
(0.298467 -0.152214 0)
(0.327395 -0.191917 0)
(0.401634 -0.191617 0)
(0.470692 -0.227466 0)
(0.560526 -0.332163 0)
(0.640791 -0.383588 0)
(0.729282 -0.315476 0)
(0.932779 -0.183654 0)
(0.954468 -0.261982 0)
(0.962787 -0.204152 0)
(0.867622 0.010021 0)
(0.614075 0.194779 0)
(0.459654 0.467106 0)
(0.0600384 0.70046 0)
(0.0135582 -0.104358 0)
(0.0409497 -0.106284 0)
(0.0692921 -0.110067 0)
(0.0987916 -0.115237 0)
(0.129794 -0.121684 0)
(0.161726 -0.131548 0)
(0.199572 -0.141234 0)
(0.230615 -0.160764 0)
(0.289307 -0.172885 0)
(0.313707 -0.215994 0)
(0.393916 -0.226008 0)
(0.453342 -0.289104 0)
(0.559357 -0.358504 0)
(0.603449 -0.381114 0)
(0.802958 -0.340417 0)
(0.833275 -0.388242 0)
(0.780883 -0.289661 0)
(0.677312 -0.0725598 0)
(0.545678 0.10008 0)
(0.443506 0.251157 0)
(0.39972 0.53529 0)
(0.179132 0.841415 0)
(0.0127537 -0.124707 0)
(0.0385782 -0.126882 0)
(0.0656439 -0.131151 0)
(0.0939649 -0.136657 0)
(0.123651 -0.143662 0)
(0.154059 -0.155588 0)
(0.189064 -0.16717 0)
(0.220403 -0.192886 0)
(0.27231 -0.216084 0)
(0.299438 -0.269927 0)
(0.375821 -0.317501 0)
(0.444081 -0.343096 0)
(0.506995 -0.343946 0)
(0.575568 -0.398425 0)
(0.664218 -0.455205 0)
(0.677021 -0.346248 0)
(0.558848 -0.12439 0)
(0.474582 -0.0129442 0)
(0.409085 0.129831 0)
(0.452324 0.252891 0)
(0.41989 0.543627 0)
(0.703352 0.733533 0)
(0.0120686 -0.136509 0)
(0.0365355 -0.140414 0)
(0.0627099 -0.148138 0)
(0.0895573 -0.158313 0)
(0.118099 -0.172518 0)
(0.146504 -0.197109 0)
(0.179131 -0.219732 0)
(0.212094 -0.253752 0)
(0.238804 -0.276213 0)
(0.287906 -0.304653 0)
(0.328779 -0.317239 0)
(0.421522 -0.263064 0)
(0.496943 -0.408767 0)
(0.583266 -0.546592 0)
(0.632792 -0.495028 0)
(0.60577 -0.278999 0)
(0.488763 -0.0805644 0)
(0.480714 0.000581846 0)
(0.443359 0.149413 0)
(0.523193 0.196991 0)
(0.570517 0.423345 0)
(0.762006 0.437847 0)
(0.0109642 -0.208849 0)
(0.0329834 -0.212103 0)
(0.0566921 -0.217518 0)
(0.0792254 -0.221408 0)
(0.106171 -0.222583 0)
(0.12909 -0.227496 0)
(0.159895 -0.223747 0)
(0.202289 -0.224606 0)
(0.253784 -0.22105 0)
(0.332325 -0.250514 0)
(0.405464 -0.315641 0)
(0.486728 -0.493354 0)
(0.564201 -0.580338 0)
(0.601138 -0.580185 0)
(0.622026 -0.499497 0)
(0.595027 -0.232116 0)
(0.527875 -0.0360146 0)
(0.521962 0.0123557 0)
(0.530837 0.109962 0)
(0.599132 0.118358 0)
(0.695018 0.261666 0)
(0.838763 0.222913 0)
(0.0161633 -0.109934 0)
(0.0481048 -0.11538 0)
(0.081999 -0.117784 0)
(0.118848 -0.125416 0)
(0.164223 -0.129353 0)
(0.213456 -0.162551 0)
(0.270439 -0.205822 0)
(0.335108 -0.278162 0)
(0.402247 -0.364153 0)
(0.459606 -0.456437 0)
(0.514784 -0.489236 0)
(0.551206 -0.540231 0)
(0.577603 -0.581295 0)
(0.592469 -0.577019 0)
(0.604716 -0.483885 0)
(0.572659 -0.212201 0)
(0.533305 -0.0246296 0)
(0.543554 0.00605448 0)
(0.576104 0.0647982 0)
(0.629689 0.0543759 0)
(0.737275 0.120043 0)
(0.858254 0.0889162 0)
(0.0267117 -0.288069 0)
(0.0770248 -0.294217 0)
(0.127228 -0.302996 0)
(0.170739 -0.325098 0)
(0.223986 -0.341458 0)
(0.272933 -0.367205 0)
(0.323902 -0.389584 0)
(0.371208 -0.41522 0)
(0.409457 -0.435718 0)
(0.451817 -0.472457 0)
(0.471731 -0.498793 0)
(0.49114 -0.563867 0)
(0.526377 -0.591686 0)
(0.547345 -0.574754 0)
(0.556707 -0.45514 0)
(0.511028 -0.183975 0)
(0.503467 -0.0307007 0)
(0.524646 -0.0196344 0)
(0.572187 0.00970045 0)
(0.635632 -0.0108634 0)
(0.752581 -0.0101896 0)
(0.842747 -0.0220286 0)
(0.0201611 -0.280188 0)
(0.0615812 -0.282147 0)
(0.104025 -0.289961 0)
(0.147902 -0.301109 0)
(0.189824 -0.316213 0)
(0.233005 -0.338655 0)
(0.271107 -0.366671 0)
(0.308571 -0.400905 0)
(0.336797 -0.439893 0)
(0.373398 -0.488471 0)
(0.399922 -0.515831 0)
(0.431564 -0.58572 0)
(0.471283 -0.611939 0)
(0.494438 -0.583751 0)
(0.496493 -0.422456 0)
(0.445467 -0.166872 0)
(0.456821 -0.0591158 0)
(0.492046 -0.0592899 0)
(0.551957 -0.0543777 0)
(0.626463 -0.0936816 0)
(0.728211 -0.117212 0)
(0.811409 -0.139546 0)
(0.0196645 -0.328195 0)
(0.0591107 -0.334335 0)
(0.0972412 -0.343187 0)
(0.136033 -0.357099 0)
(0.171965 -0.374164 0)
(0.207773 -0.396143 0)
(0.241953 -0.42231 0)
(0.278091 -0.452294 0)
(0.309173 -0.485645 0)
(0.346842 -0.525014 0)
(0.373687 -0.551714 0)
(0.409093 -0.623393 0)
(0.44641 -0.637845 0)
(0.464487 -0.59117 0)
(0.442387 -0.393808 0)
(0.389728 -0.166789 0)
(0.411122 -0.097555 0)
(0.456239 -0.108504 0)
(0.519782 -0.125173 0)
(0.598931 -0.175598 0)
(0.687253 -0.209708 0)
(0.766864 -0.248461 0)
(0.0171221 -0.366875 0)
(0.0510991 -0.371026 0)
(0.0851531 -0.379561 0)
(0.118103 -0.391528 0)
(0.151928 -0.409977 0)
(0.184446 -0.430521 0)
(0.216888 -0.456831 0)
(0.248323 -0.485928 0)
(0.276229 -0.517845 0)
(0.311683 -0.558485 0)
(0.326586 -0.588113 0)
(0.361134 -0.652639 0)
(0.396641 -0.652891 0)
(0.409123 -0.574279 0)
(0.362229 -0.339913 0)
(0.330693 -0.168351 0)
(0.360279 -0.137665 0)
(0.417476 -0.163669 0)
(0.481517 -0.19637 0)
(0.558903 -0.254172 0)
(0.636908 -0.294707 0)
(0.715089 -0.344188 0)
(0.0151062 -0.396823 0)
(0.0453522 -0.401544 0)
(0.0751652 -0.40938 0)
(0.104962 -0.421524 0)
(0.133389 -0.436502 0)
(0.161443 -0.456744 0)
(0.188011 -0.479794 0)
(0.214762 -0.507628 0)
(0.238406 -0.540368 0)
(0.267437 -0.575471 0)
(0.286351 -0.605851 0)
(0.324026 -0.677228 0)
(0.35455 -0.667364 0)
(0.351857 -0.550315 0)
(0.28433 -0.303873 0)
(0.280978 -0.190785 0)
(0.312544 -0.185827 0)
(0.378714 -0.225433 0)
(0.438089 -0.265981 0)
(0.511489 -0.326684 0)
(0.578866 -0.372163 0)
(0.654919 -0.431688 0)
(0.752519 -0.506795 0)
(0.0131491 -0.426295 0)
(0.0393428 -0.430565 0)
(0.0653016 -0.438096 0)
(0.0905209 -0.449357 0)
(0.115407 -0.46544 0)
(0.139488 -0.484849 0)
(0.16305 -0.509089 0)
(0.186049 -0.536769 0)
(0.207415 -0.568332 0)
(0.233107 -0.606136 0)
(0.246076 -0.642093 0)
(0.282347 -0.704829 0)
(0.307164 -0.673183 0)
(0.277643 -0.500383 0)
(0.210351 -0.275784 0)
(0.229921 -0.221442 0)
(0.271487 -0.23712 0)
(0.336764 -0.285475 0)
(0.390296 -0.329776 0)
(0.456914 -0.391126 0)
(0.514243 -0.442782 0)
(0.586947 -0.512658 0)
(0.673677 -0.603602 0)
(0.0111556 -0.449604 0)
(0.0334122 -0.4539 0)
(0.0554428 -0.461159 0)
(0.0772349 -0.472161 0)
(0.0981693 -0.486784 0)
(0.118342 -0.5056 0)
(0.137548 -0.527846 0)
(0.155767 -0.554436 0)
(0.172843 -0.585937 0)
(0.191589 -0.620965 0)
(0.203436 -0.660316 0)
(0.234688 -0.724479 0)
(0.253127 -0.661764 0)
(0.186188 -0.442746 0)
(0.150389 -0.270912 0)
(0.180306 -0.260431 0)
(0.235627 -0.294836 0)
(0.29134 -0.340666 0)
(0.339628 -0.387142 0)
(0.397532 -0.447359 0)
(0.444206 -0.503466 0)
(0.508337 -0.583237 0)
(0.58502 -0.680186 0)
(0.00908282 -0.472005 0)
(0.0271643 -0.476181 0)
(0.0452568 -0.48303 0)
(0.0635625 -0.492915 0)
(0.0812067 -0.506877 0)
(0.0977032 -0.52437 0)
(0.113104 -0.54567 0)
(0.127085 -0.57057 0)
(0.139867 -0.599881 0)
(0.150846 -0.634492 0)
(0.160968 -0.67879 0)
(0.180453 -0.738369 0)
(0.186706 -0.632421 0)
(0.0835423 -0.383737 0)
(0.102865 -0.293214 0)
(0.141736 -0.308527 0)
(0.198025 -0.34915 0)
(0.246202 -0.389584 0)
(0.288057 -0.434984 0)
(0.337836 -0.488803 0)
(0.370985 -0.548617 0)
(0.430486 -0.633509 0)
(0.469859 -0.769549 0)
(0.00767473 -0.483901 0)
(0.0229132 -0.487712 0)
(0.0377976 -0.494237 0)
(0.0520307 -0.504047 0)
(0.0662225 -0.516152 0)
(0.0794619 -0.53161 0)
(0.0915126 -0.550486 0)
(0.1017 -0.573156 0)
(0.11 -0.600407 0)
(0.111149 -0.633798 0)
(0.11641 -0.680489 0)
(0.09992 -0.738014 0)
(0.081137 -0.572988 0)
(-0.00417489 -0.353948 0)
(0.0619648 -0.333738 0)
(0.113976 -0.362932 0)
(0.162102 -0.391816 0)
(0.205731 -0.425099 0)
(0.242828 -0.466264 0)
(0.283754 -0.516457 0)
(0.300442 -0.605271 0)
(0.337543 -0.718306 0)
(0.327016 -0.876741 0)
(0.00677435 -0.494968 0)
(0.0201187 -0.498786 0)
(0.0327425 -0.505456 0)
(0.0440676 -0.516087 0)
(0.0545355 -0.530853 0)
(0.0645576 -0.550038 0)
(0.0735512 -0.574407 0)
(0.0805547 -0.603572 0)
(0.0842233 -0.636294 0)
(0.0759733 -0.671711 0)
(0.0676996 -0.711112 0)
(-0.0192051 -0.742338 0)
(-0.0555859 -0.517381 0)
(-0.0471094 -0.374741 0)
(0.045748 -0.389782 0)
(0.091009 -0.405129 0)
(0.13638 -0.428881 0)
(0.174391 -0.469309 0)
(0.204434 -0.529961 0)
(0.21393 -0.600426 0)
(0.205861 -0.67827 0)
(0.252666 -0.720138 0)
(0.277556 -0.37183 0)
(0.00521857 -0.558306 0)
(0.01504 -0.56173 0)
(0.0239678 -0.567263 0)
(0.0311265 -0.574865 0)
(0.0361596 -0.583513 0)
(0.0400378 -0.591969 0)
(0.0454762 -0.60004 0)
(0.0559023 -0.610819 0)
(0.0691084 -0.632587 0)
(0.0650102 -0.657757 0)
(0.00694861 -0.653802 0)
(-0.165968 -0.588498 0)
(-0.112571 -0.553874 0)
(-0.0376163 -0.490379 0)
(0.0389799 -0.503015 0)
(0.0784802 -0.509089 0)
(0.103311 -0.527502 0)
(0.121751 -0.551461 0)
(0.138686 -0.58963 0)
(0.138587 -0.582341 0)
(0.0587366 -0.248175 0)
(-0.152248 0.151012 0)
(-0.609242 -0.530839 0)
(0.00313987 -0.548158 0)
(0.00820028 -0.545206 0)
(0.0140264 -0.536956 0)
(0.0200184 -0.518921 0)
(0.0282673 -0.48179 0)
(0.0397294 -0.411768 0)
(0.0506091 -0.288962 0)
(0.0501014 -0.101774 0)
(-0.0141784 0.106512 0)
(-0.0751614 0.245661 0)
(-0.282779 0.326816 0)
(-0.359311 -0.142134 0)
(-0.146338 -0.607715 0)
(-0.0175132 -0.589473 0)
(0.0204699 -0.565411 0)
(0.0399245 -0.526138 0)
(0.044186 -0.448531 0)
(0.00285011 -0.206332 0)
(-0.114124 0.207886 0)
(-0.272493 0.241057 0)
(-0.410791 -0.301784 0)
(-0.355688 -0.585166 0)
(-0.535585 -0.151528 0)
(-0.0186411 0.0720888 0)
(-0.0581762 0.0678186 0)
(-0.0982896 0.0500673 0)
(-0.140803 0.0121097 0)
(-0.186201 -0.0498128 0)
(-0.232071 -0.164051 0)
(-0.279357 -0.327453 0)
(-0.318055 -0.547413 0)
(-0.310866 -0.75625 0)
(-0.23455 -0.841128 0)
(-0.0466081 -0.871056 0)
(0.177017 -0.806104 0)
(0.109558 -0.346175 0)
(-0.059793 -0.0589807 0)
(-0.213818 0.0435048 0)
(-0.354547 0.0814533 0)
(-0.456296 0.0059701 0)
(-0.500409 -0.283778 0)
(-0.39833 -0.668711 0)
(-0.223895 -0.773991 0)
(-0.144391 -0.630302 0)
(-0.374871 -0.215619 0)
(-0.710674 0.0860706 0)
(-0.0128666 -0.787443 0)
(-0.0361546 -0.793275 0)
(-0.0519137 -0.797023 0)
(-0.0638896 -0.797867 0)
(-0.0699952 -0.796033 0)
(-0.0764451 -0.788004 0)
(-0.0819532 -0.768074 0)
(-0.084075 -0.730364 0)
(-0.100454 -0.678689 0)
(-0.133912 -0.633251 0)
(-0.166299 -0.637358 0)
(-0.251374 -0.744784 0)
(-0.366386 -0.713971 0)
(-0.419523 -0.602251 0)
(-0.400751 -0.607311 0)
(-0.35388 -0.663402 0)
)
;

boundaryField
{
    leftWall
    {
        type            calculated;
        value           uniform (0 0 0);
    }
    rightWall
    {
        type            calculated;
        value           nonuniform 0();
    }
    lowerWall
    {
        type            calculated;
        value           uniform (0 0 0);
    }
    atmosphere
    {
        type            calculated;
        value           nonuniform 0();
    }
    defaultFaces
    {
        type            empty;
    }
    procBoundary0to1
    {
        type            processor;
        value           nonuniform List<vector> 
26
(
(0.989369 0.0722307 0)
(1.05135 0.738961 0)
(1.07487 1.04048 0)
(1.0655 1.65141 0)
(0.786297 2.08985 0)
(0.40185 2.03375 0)
(0.123394 2.0116 0)
(0.0683336 2.09268 0)
(1.06719 1.8673 0)
(1.20533 0.869696 0)
(1.09841 0.41752 0)
(1.05591 0.183104 0)
(1.00705 -0.0280757 0)
(0.95546 -0.188572 0)
(0.896165 -0.30713 0)
(0.82548 -0.406621 0)
(0.82548 -0.406621 0)
(0.817038 -0.575377 0)
(0.737141 -0.670272 0)
(0.636117 -0.766464 0)
(0.494045 -0.900688 0)
(0.493274 -0.854157 0)
(-0.246716 0.212198 0)
(-0.713568 -0.264555 0)
(-0.748769 0.276014 0)
(-0.712999 0.166679 0)
)
;
    }
    procBoundary0to2
    {
        type            processor;
        value           nonuniform List<vector> 
24
(
(-0.274584 -0.692555 0)
(-0.202355 -0.673532 0)
(-0.186533 -0.575171 0)
(-0.256273 -0.380744 0)
(-0.473391 -0.0786301 0)
(-0.712118 0.10946 0)
(-0.73793 0.145577 0)
(-0.00186579 -0.330979 0)
(-0.0061452 -0.336299 0)
(-0.0107211 -0.339375 0)
(-0.0221373 -0.347025 0)
(-0.0387844 -0.359909 0)
(-0.0629162 -0.380284 0)
(-0.0923351 -0.403993 0)
(-0.126012 -0.43261 0)
(-0.16385 -0.465826 0)
(-0.207927 -0.490843 0)
(-0.264871 -0.509004 0)
(-0.334402 -0.522083 0)
(-0.379857 -0.439202 0)
(-0.387357 -0.356564 0)
(-0.356401 -0.326194 0)
(-0.274584 -0.692555 0)
(-0.361964 -0.321998 0)
)
;
    }
}


// ************************************************************************* //
