/*--------------------------------*- C++ -*----------------------------------*\
| =========                 |                                                 |
| \\      /  F ield         | OpenFOAM: The Open Source CFD Toolbox           |
|  \\    /   O peration     | Version:  2.4.0                                 |
|   \\  /    A nd           | Web:      www.OpenFOAM.org                      |
|    \\/     M anipulation  |                                                 |
\*---------------------------------------------------------------------------*/
FoamFile
{
    version     2.0;
    format      ascii;
    class       volVectorField;
    location    "0.15";
    object      U.air;
}
// * * * * * * * * * * * * * * * * * * * * * * * * * * * * * * * * * * * * * //

dimensions      [0 1 -1 0 0 0 0];

internalField   nonuniform List<vector> 
575
(
(0.0152584 -0.00721445 0)
(0.0460351 -0.00733786 0)
(0.0776685 -0.00758528 0)
(0.110358 -0.00796782 0)
(0.146071 -0.00846442 0)
(0.180722 -0.00919057 0)
(0.227846 -0.0101109 0)
(0.261983 -0.0111894 0)
(0.326552 -0.0117838 0)
(0.367342 -0.0179199 0)
(0.450042 -0.0143329 0)
(0.527084 -0.0159103 0)
(0.585143 -0.0224599 0)
(0.677334 -0.0291186 0)
(0.811872 -0.0337762 0)
(0.961488 -0.034313 0)
(1.10675 -0.0284079 0)
(1.2273 -0.0145253 0)
(1.31331 -0.0046635 0)
(1.33783 -0.00975834 0)
(1.30988 -0.00755207 0)
(1.10426 -0.0128756 0)
(0.0152064 -0.0216244 0)
(0.0458826 -0.0220001 0)
(0.0774099 -0.0227422 0)
(0.109998 -0.0238885 0)
(0.145555 -0.0253548 0)
(0.180061 -0.027671 0)
(0.227138 -0.0296498 0)
(0.260335 -0.0356792 0)
(0.325363 -0.0312305 0)
(0.368012 -0.0553319 0)
(0.447568 -0.0476807 0)
(0.518806 -0.0462273 0)
(0.582623 -0.0628007 0)
(0.693617 -0.0819968 0)
(0.837703 -0.0955805 0)
(0.978686 -0.101017 0)
(1.10116 -0.0947445 0)
(1.19674 -0.082521 0)
(1.27703 -0.0528763 0)
(1.32366 -7.42237e-05 0)
(1.3508 0.0772291 0)
(1.20467 0.219445 0)
(0.0150896 -0.0359506 0)
(0.0455321 -0.0365755 0)
(0.0768166 -0.0378098 0)
(0.109174 -0.0397071 0)
(0.144366 -0.0421292 0)
(0.17865 -0.0459475 0)
(0.225253 -0.0496135 0)
(0.257298 -0.0571199 0)
(0.323447 -0.057296 0)
(0.36572 -0.0866575 0)
(0.443262 -0.0750321 0)
(0.509215 -0.0787007 0)
(0.57859 -0.117091 0)
(0.702968 -0.151497 0)
(0.850983 -0.162107 0)
(0.982284 -0.154228 0)
(1.08799 -0.131302 0)
(1.16609 -0.0890657 0)
(1.22026 -0.060288 0)
(1.2351 -0.0525781 0)
(1.26019 -0.0420524 0)
(1.15139 0.128926 0)
(0.0149151 -0.0501376 0)
(0.0450092 -0.0510116 0)
(0.0759354 -0.0527369 0)
(0.107958 -0.0553608 0)
(0.142582 -0.0587126 0)
(0.17669 -0.0640251 0)
(0.221954 -0.0689288 0)
(0.253792 -0.0796269 0)
(0.319648 -0.0806404 0)
(0.359844 -0.11709 0)
(0.435857 -0.10878 0)
(0.498589 -0.110644 0)
(0.577692 -0.165738 0)
(0.709892 -0.212798 0)
(0.853768 -0.223699 0)
(0.962331 -0.206005 0)
(1.03621 -0.178371 0)
(1.08108 -0.164974 0)
(1.10492 -0.144603 0)
(1.12184 -0.115476 0)
(1.15074 -0.0342171 0)
(0.883297 0.248809 0)
(0.0146821 -0.064148 0)
(0.0443118 -0.0652711 0)
(0.0747695 -0.0674877 0)
(0.10635 -0.0708036 0)
(0.140248 -0.0750585 0)
(0.174056 -0.0817004 0)
(0.217671 -0.0881643 0)
(0.249348 -0.100834 0)
(0.31402 -0.105675 0)
(0.352656 -0.145963 0)
(0.422232 -0.133896 0)
(0.490432 -0.149424 0)
(0.575591 -0.227553 0)
(0.705026 -0.283527 0)
(0.82819 -0.279032 0)
(0.911913 -0.259331 0)
(0.937706 -0.25355 0)
(0.939743 -0.23384 0)
(0.924364 -0.194138 0)
(0.898619 -0.0920461 0)
(0.864458 0.0548657 0)
(0.314737 0.426812 0)
(0.0143881 -0.0778915 0)
(0.0434315 -0.0792645 0)
(0.0733123 -0.0819778 0)
(0.104342 -0.0859569 0)
(0.137374 -0.0910953 0)
(0.170717 -0.0990451 0)
(0.212459 -0.106926 0)
(0.243857 -0.12228 0)
(0.307288 -0.129966 0)
(0.340076 -0.170014 0)
(0.41127 -0.166277 0)
(0.482321 -0.187627 0)
(0.567897 -0.278625 0)
(0.682019 -0.335105 0)
(0.76542 -0.358709 0)
(0.783165 -0.371143 0)
(0.794622 -0.349353 0)
(0.892643 -0.233365 0)
(0.920396 -0.157345 0)
(0.845905 -0.0191575 0)
(0.636289 0.294677 0)
(0.0450334 0.646546 0)
(0.0140211 -0.0911654 0)
(0.042332 -0.0928088 0)
(0.0715111 -0.0960604 0)
(0.101844 -0.100705 0)
(0.133879 -0.106709 0)
(0.16657 -0.115886 0)
(0.206319 -0.124996 0)
(0.237482 -0.142546 0)
(0.298467 -0.152213 0)
(0.327395 -0.191916 0)
(0.401634 -0.191616 0)
(0.470983 -0.226755 0)
(0.559936 -0.33343 0)
(0.621757 -0.420346 0)
(0.634648 -0.474193 0)
(0.714243 -0.463183 0)
(0.88593 -0.339808 0)
(0.961423 -0.213541 0)
(0.868007 0.00878525 0)
(0.614061 0.194779 0)
(0.45964 0.467105 0)
(0.0600069 0.700433 0)
(0.0135582 -0.104357 0)
(0.0409499 -0.106283 0)
(0.0692922 -0.110066 0)
(0.0987919 -0.115236 0)
(0.129794 -0.121683 0)
(0.161726 -0.131547 0)
(0.199573 -0.141234 0)
(0.230615 -0.160763 0)
(0.289308 -0.172885 0)
(0.313707 -0.215993 0)
(0.393957 -0.225887 0)
(0.453465 -0.288789 0)
(0.540683 -0.393961 0)
(0.511203 -0.527796 0)
(0.600755 -0.564306 0)
(0.746808 -0.476382 0)
(0.777684 -0.308951 0)
(0.678367 -0.077654 0)
(0.545666 0.100078 0)
(0.443491 0.251157 0)
(0.399698 0.535288 0)
(0.179104 0.841398 0)
(0.0127537 -0.124704 0)
(0.0385784 -0.126877 0)
(0.0656447 -0.13114 0)
(0.0939682 -0.136623 0)
(0.123668 -0.143529 0)
(0.154129 -0.155079 0)
(0.189217 -0.166215 0)
(0.220677 -0.191448 0)
(0.272655 -0.21466 0)
(0.299028 -0.271199 0)
(0.371763 -0.329317 0)
(0.424399 -0.396217 0)
(0.435085 -0.502307 0)
(0.440588 -0.594749 0)
(0.574614 -0.559251 0)
(0.659215 -0.377092 0)
(0.563422 -0.144918 0)
(0.474673 -0.0131901 0)
(0.409073 0.129832 0)
(0.452308 0.252892 0)
(0.419865 0.543629 0)
(0.703323 0.733541 0)
(0.0120901 -0.134985 0)
(0.0366016 -0.138929 0)
(0.0628121 -0.146807 0)
(0.0896546 -0.157403 0)
(0.118095 -0.172544 0)
(0.14608 -0.199533 0)
(0.177689 -0.226789 0)
(0.208306 -0.270678 0)
(0.230705 -0.31156 0)
(0.268294 -0.378173 0)
(0.285158 -0.448081 0)
(0.335343 -0.446755 0)
(0.433904 -0.51433 0)
(0.557209 -0.578922 0)
(0.628478 -0.500475 0)
(0.601969 -0.311594 0)
(0.494261 -0.0976255 0)
(0.480732 0.000504751 0)
(0.443348 0.149415 0)
(0.523179 0.196995 0)
(0.570497 0.423352 0)
(0.761985 0.437861 0)
(0.0107226 -0.240963 0)
(0.032108 -0.246753 0)
(0.0547769 -0.258283 0)
(0.07551 -0.271878 0)
(0.0997025 -0.285732 0)
(0.117751 -0.312006 0)
(0.141185 -0.333295 0)
(0.171215 -0.365724 0)
(0.20805 -0.388356 0)
(0.281398 -0.400619 0)
(0.371902 -0.395237 0)
(0.474772 -0.51474 0)
(0.558657 -0.589676 0)
(0.602595 -0.578888 0)
(0.620011 -0.50272 0)
(0.591221 -0.262323 0)
(0.531899 -0.0591614 0)
(0.522194 0.0115391 0)
(0.530828 0.109965 0)
(0.59912 0.118364 0)
(0.695003 0.261674 0)
(0.838746 0.222926 0)
(0.0135565 -0.237122 0)
(0.0399821 -0.241686 0)
(0.0685589 -0.242687 0)
(0.100615 -0.244002 0)
(0.142991 -0.23702 0)
(0.191068 -0.251435 0)
(0.249591 -0.271118 0)
(0.318818 -0.318864 0)
(0.391547 -0.386057 0)
(0.455469 -0.464585 0)
(0.514459 -0.490242 0)
(0.551149 -0.540574 0)
(0.577932 -0.580874 0)
(0.593814 -0.575133 0)
(0.603204 -0.486775 0)
(0.569605 -0.240392 0)
(0.535558 -0.0492673 0)
(0.543862 0.0043968 0)
(0.576096 0.0648029 0)
(0.62968 0.0543823 0)
(0.737264 0.120052 0)
(0.858241 0.0889285 0)
(0.0267117 -0.288068 0)
(0.0770249 -0.294216 0)
(0.127228 -0.302995 0)
(0.170739 -0.325097 0)
(0.223986 -0.341457 0)
(0.272933 -0.367204 0)
(0.323902 -0.389583 0)
(0.371208 -0.415219 0)
(0.409456 -0.435717 0)
(0.451817 -0.472455 0)
(0.47173 -0.498792 0)
(0.491139 -0.563865 0)
(0.526814 -0.591078 0)
(0.54865 -0.572927 0)
(0.55451 -0.459781 0)
(0.509411 -0.21272 0)
(0.503908 -0.0517958 0)
(0.524752 -0.0207619 0)
(0.572181 0.0097059 0)
(0.635624 -0.0108563 0)
(0.752573 -0.0101803 0)
(0.842738 -0.0220159 0)
(0.0201611 -0.280186 0)
(0.0615812 -0.282145 0)
(0.104025 -0.289959 0)
(0.147902 -0.301107 0)
(0.189824 -0.316212 0)
(0.233005 -0.338653 0)
(0.271106 -0.366669 0)
(0.30857 -0.400903 0)
(0.336796 -0.439891 0)
(0.373397 -0.488467 0)
(0.399921 -0.515829 0)
(0.431565 -0.585716 0)
(0.471878 -0.61111 0)
(0.495494 -0.582204 0)
(0.493234 -0.431874 0)
(0.444916 -0.19757 0)
(0.456545 -0.0725869 0)
(0.492041 -0.0594501 0)
(0.551952 -0.0543715 0)
(0.626458 -0.0936731 0)
(0.728205 -0.117201 0)
(0.811404 -0.13953 0)
(0.0196645 -0.328192 0)
(0.0591107 -0.334332 0)
(0.0972411 -0.343185 0)
(0.136033 -0.357096 0)
(0.171965 -0.374161 0)
(0.207773 -0.39614 0)
(0.241953 -0.422305 0)
(0.278091 -0.452288 0)
(0.309174 -0.485638 0)
(0.346843 -0.525003 0)
(0.373687 -0.551707 0)
(0.409095 -0.623386 0)
(0.447142 -0.636769 0)
(0.464888 -0.590463 0)
(0.439399 -0.409619 0)
(0.390406 -0.195678 0)
(0.410993 -0.104369 0)
(0.456235 -0.108508 0)
(0.519778 -0.125164 0)
(0.598928 -0.175584 0)
(0.687252 -0.209687 0)
(0.766867 -0.248432 0)
(0.0171221 -0.366868 0)
(0.0510991 -0.371019 0)
(0.0851532 -0.379553 0)
(0.118104 -0.391519 0)
(0.151929 -0.409968 0)
(0.184446 -0.430509 0)
(0.216889 -0.456816 0)
(0.248325 -0.485909 0)
(0.276232 -0.517822 0)
(0.311688 -0.558457 0)
(0.32659 -0.58809 0)
(0.361139 -0.652623 0)
(0.397614 -0.651479 0)
(0.408428 -0.575701 0)
(0.360251 -0.362537 0)
(0.330819 -0.189485 0)
(0.36019 -0.139438 0)
(0.417474 -0.163659 0)
(0.481516 -0.196348 0)
(0.558906 -0.254136 0)
(0.636919 -0.294657 0)
(0.715111 -0.344117 0)
(0.0151064 -0.396801 0)
(0.0453526 -0.401522 0)
(0.0751659 -0.409357 0)
(0.104963 -0.421499 0)
(0.133391 -0.436473 0)
(0.161446 -0.456709 0)
(0.188016 -0.47975 0)
(0.214769 -0.507572 0)
(0.238418 -0.540299 0)
(0.267452 -0.575388 0)
(0.286366 -0.60579 0)
(0.324039 -0.677202 0)
(0.355612 -0.665683 0)
(0.350064 -0.555883 0)
(0.28449 -0.330961 0)
(0.280726 -0.20247 0)
(0.312538 -0.185905 0)
(0.378715 -0.225402 0)
(0.438095 -0.265925 0)
(0.511507 -0.326588 0)
(0.578905 -0.372016 0)
(0.654983 -0.431465 0)
(0.752605 -0.506651 0)
(0.0131496 -0.426226 0)
(0.0393443 -0.430495 0)
(0.0653043 -0.438022 0)
(0.0905251 -0.449276 0)
(0.115413 -0.465346 0)
(0.139498 -0.484731 0)
(0.163065 -0.508936 0)
(0.186073 -0.536578 0)
(0.207451 -0.568101 0)
(0.233152 -0.605872 0)
(0.246113 -0.641943 0)
(0.282366 -0.70479 0)
(0.30809 -0.671555 0)
(0.275843 -0.513148 0)
(0.211692 -0.300873 0)
(0.229746 -0.225346 0)
(0.271487 -0.237095 0)
(0.336771 -0.285379 0)
(0.390319 -0.329611 0)
(0.456974 -0.390825 0)
(0.514383 -0.442401 0)
(0.587135 -0.512183 0)
(0.673989 -0.588901 0)
(0.0111571 -0.449352 0)
(0.0334169 -0.453641 0)
(0.0554514 -0.460889 0)
(0.077249 -0.471876 0)
(0.0981927 -0.486476 0)
(0.118381 -0.505257 0)
(0.137609 -0.527474 0)
(0.155856 -0.554053 0)
(0.172964 -0.585534 0)
(0.19172 -0.620454 0)
(0.203528 -0.659585 0)
(0.234726 -0.722892 0)
(0.253256 -0.66132 0)
(0.186473 -0.463995 0)
(0.1509 -0.286325 0)
(0.180297 -0.2606 0)
(0.235631 -0.294705 0)
(0.291367 -0.340383 0)
(0.339717 -0.386809 0)
(0.397714 -0.446733 0)
(0.444466 -0.497823 0)
(0.515355 -0.507315 0)
(0.685478 -0.524882 0)
(0.00908791 -0.471297 0)
(0.0271804 -0.475398 0)
(0.0452864 -0.482081 0)
(0.0636087 -0.49162 0)
(0.0812712 -0.504852 0)
(0.097784 -0.520726 0)
(0.113191 -0.538248 0)
(0.12717 -0.554357 0)
(0.139964 -0.564469 0)
(0.151022 -0.561801 0)
(0.161506 -0.581556 0)
(0.181431 -0.635211 0)
(0.184622 -0.618666 0)
(0.0867488 -0.406971 0)
(0.102724 -0.284324 0)
(0.141703 -0.307839 0)
(0.198047 -0.348227 0)
(0.246267 -0.385617 0)
(0.288186 -0.412919 0)
(0.339255 -0.391225 0)
(0.406716 -0.410866 0)
(0.56669 -0.386487 0)
(0.694478 -0.427043 0)
(0.00768051 -0.381936 0)
(0.0229375 -0.383834 0)
(0.0378594 -0.387028 0)
(0.0521908 -0.392377 0)
(0.066669 -0.399059 0)
(0.0807907 -0.407552 0)
(0.0954187 -0.415746 0)
(0.111877 -0.419026 0)
(0.132827 -0.412156 0)
(0.146018 -0.389665 0)
(0.166697 -0.409142 0)
(0.153862 -0.44914 0)
(0.0990546 -0.430596 0)
(-0.0104406 -0.269062 0)
(0.059016 -0.245223 0)
(0.112741 -0.272038 0)
(0.162472 -0.282555 0)
(0.210071 -0.295489 0)
(0.273398 -0.298075 0)
(0.37807 -0.226785 0)
(0.45287 -0.267544 0)
(0.50584 -0.373181 0)
(0.48295 -0.663178 0)
(0.00790026 -0.208143 0)
(0.0239203 -0.210071 0)
(0.0403591 -0.213836 0)
(0.0577367 -0.221419 0)
(0.0778802 -0.233846 0)
(0.102723 -0.252004 0)
(0.129555 -0.274777 0)
(0.148348 -0.301146 0)
(0.146858 -0.329452 0)
(0.111644 -0.365454 0)
(0.0809979 -0.408299 0)
(-0.0513864 -0.432562 0)
(-0.162303 -0.19546 0)
(-0.122556 -0.107123 0)
(0.0149559 -0.146709 0)
(0.0821259 -0.124873 0)
(0.175477 -0.123034 0)
(0.260871 -0.143222 0)
(0.300913 -0.171308 0)
(0.288678 -0.246024 0)
(0.2932 -0.398102 0)
(0.323013 -0.569566 0)
(0.290056 -0.336417 0)
(0.00529057 -0.245288 0)
(0.0151377 -0.248954 0)
(0.0237575 -0.255356 0)
(0.0305164 -0.265307 0)
(0.0360322 -0.279667 0)
(0.0444052 -0.300331 0)
(0.0610073 -0.333212 0)
(0.0873443 -0.384481 0)
(0.109346 -0.458144 0)
(0.095032 -0.529278 0)
(0.0125339 -0.544186 0)
(-0.205017 -0.436013 0)
(-0.181585 -0.322003 0)
(-0.0672121 -0.206335 0)
(0.0307032 -0.200547 0)
(0.0780402 -0.18725 0)
(0.115654 -0.209823 0)
(0.17063 -0.269833 0)
(0.196939 -0.390801 0)
(0.174764 -0.451585 0)
(0.0671032 -0.183344 0)
(-0.152189 0.154273 0)
(-0.609242 -0.530838 0)
(0.0037275 -0.450724 0)
(0.0099142 -0.449546 0)
(0.0167983 -0.444596 0)
(0.0238085 -0.431265 0)
(0.0330401 -0.400319 0)
(0.0452252 -0.338321 0)
(0.0556153 -0.226862 0)
(0.0534143 -0.0552484 0)
(-0.0135511 0.132647 0)
(-0.0752245 0.25617 0)
(-0.283655 0.334125 0)
(-0.370562 -0.108449 0)
(-0.160991 -0.529907 0)
(-0.024754 -0.476785 0)
(0.021738 -0.446955 0)
(0.0447884 -0.411301 0)
(0.0511636 -0.348641 0)
(0.00672083 -0.134748 0)
(-0.114375 0.226104 0)
(-0.27256 0.242054 0)
(-0.410791 -0.301781 0)
(-0.355688 -0.585165 0)
(-0.535585 -0.151527 0)
(-0.0186628 0.0736602 0)
(-0.058223 0.0691485 0)
(-0.0983458 0.0510357 0)
(-0.140852 0.0127109 0)
(-0.186233 -0.0495124 0)
(-0.232086 -0.163928 0)
(-0.279362 -0.327418 0)
(-0.318056 -0.547407 0)
(-0.310866 -0.75625 0)
(-0.234551 -0.841131 0)
(-0.0466057 -0.871031 0)
(0.177109 -0.80588 0)
(0.109711 -0.345126 0)
(-0.0599524 -0.0555005 0)
(-0.214226 0.0463482 0)
(-0.354783 0.0825572 0)
(-0.456339 0.00615385 0)
(-0.50041 -0.283769 0)
(-0.398329 -0.66871 0)
(-0.223895 -0.773989 0)
(-0.144391 -0.630301 0)
(-0.374871 -0.215619 0)
(-0.710673 0.0860705 0)
(-0.0128667 -0.787444 0)
(-0.0361547 -0.793277 0)
(-0.0519138 -0.797024 0)
(-0.0638897 -0.797868 0)
(-0.0699953 -0.796034 0)
(-0.0764453 -0.788006 0)
(-0.0819533 -0.768076 0)
(-0.0840751 -0.730365 0)
(-0.100455 -0.67869 0)
(-0.133912 -0.633251 0)
(-0.166299 -0.637358 0)
(-0.251374 -0.744785 0)
(-0.366386 -0.713972 0)
(-0.419523 -0.602251 0)
(-0.400751 -0.607311 0)
(-0.35388 -0.663401 0)
)
;

boundaryField
{
    leftWall
    {
        type            fixedValue;
        value           uniform (0 0 0);
    }
    rightWall
    {
        type            fixedValue;
        value           nonuniform 0();
    }
    lowerWall
    {
        type            fixedValue;
        value           uniform (0 0 0);
    }
    atmosphere
    {
        type            fluxCorrectedVelocity;
        value           nonuniform 0();
    }
    defaultFaces
    {
        type            empty;
    }
    procBoundary0to1
    {
        type            processor;
        value           nonuniform List<vector> 
26
(
(0.998558 0.0619876 0)
(1.06446 0.69584 0)
(1.11638 0.856762 0)
(1.16731 1.11851 0)
(1.09786 1.43946 0)
(0.638098 1.80417 0)
(0.145959 1.99694 0)
(0.0682414 2.09267 0)
(1.0671 1.86728 0)
(1.2053 0.86971 0)
(1.09839 0.417537 0)
(1.0559 0.183121 0)
(1.00704 -0.0280576 0)
(0.955457 -0.188551 0)
(0.896174 -0.307099 0)
(0.82551 -0.406553 0)
(0.82551 -0.406553 0)
(0.817133 -0.575024 0)
(0.739025 -0.563672 0)
(0.86778 -0.465152 0)
(0.665157 -0.577353 0)
(0.57154 -0.772491 0)
(-0.246718 0.212211 0)
(-0.713567 -0.264554 0)
(-0.748768 0.276013 0)
(-0.712998 0.166679 0)
)
;
    }
    procBoundary0to2
    {
        type            processor;
        value           nonuniform List<vector> 
24
(
(-0.274583 -0.692554 0)
(-0.202354 -0.673532 0)
(-0.186533 -0.57517 0)
(-0.256272 -0.380743 0)
(-0.473391 -0.0786299 0)
(-0.712117 0.109459 0)
(-0.737929 0.145577 0)
(-0.00186579 -0.33098 0)
(-0.00614521 -0.336299 0)
(-0.0107211 -0.339376 0)
(-0.0221374 -0.347026 0)
(-0.0387844 -0.35991 0)
(-0.0629163 -0.380285 0)
(-0.0923353 -0.403993 0)
(-0.126012 -0.432611 0)
(-0.163851 -0.465827 0)
(-0.207927 -0.490844 0)
(-0.264871 -0.509005 0)
(-0.334402 -0.522084 0)
(-0.379857 -0.439202 0)
(-0.387357 -0.356564 0)
(-0.356402 -0.326194 0)
(-0.274583 -0.692554 0)
(-0.361964 -0.321998 0)
)
;
    }
}


// ************************************************************************* //
