/*--------------------------------*- C++ -*----------------------------------*\
| =========                 |                                                 |
| \\      /  F ield         | OpenFOAM: The Open Source CFD Toolbox           |
|  \\    /   O peration     | Version:  2.4.0                                 |
|   \\  /    A nd           | Web:      www.OpenFOAM.org                      |
|    \\/     M anipulation  |                                                 |
\*---------------------------------------------------------------------------*/
FoamFile
{
    version     2.0;
    format      ascii;
    class       volVectorField;
    location    "0.15";
    object      U.mercury;
}
// * * * * * * * * * * * * * * * * * * * * * * * * * * * * * * * * * * * * * //

dimensions      [0 1 -1 0 0 0 0];

internalField   nonuniform List<vector> 
575
(
(0.0152584 -0.00721457 0)
(0.046035 -0.00733797 0)
(0.0776682 -0.00758539 0)
(0.110357 -0.00796793 0)
(0.14607 -0.00846453 0)
(0.180722 -0.00919066 0)
(0.227845 -0.0101109 0)
(0.261983 -0.0111895 0)
(0.326552 -0.0117839 0)
(0.367342 -0.0179199 0)
(0.450042 -0.0143329 0)
(0.527084 -0.0159104 0)
(0.585143 -0.02246 0)
(0.677334 -0.0291186 0)
(0.811872 -0.0337763 0)
(0.961488 -0.0343133 0)
(1.10675 -0.0284085 0)
(1.2273 -0.0145283 0)
(1.31331 -0.00468219 0)
(1.33785 -0.00991471 0)
(1.31051 -0.00855831 0)
(1.11353 -0.0191648 0)
(0.0152064 -0.0216247 0)
(0.0458825 -0.0220005 0)
(0.0774097 -0.0227425 0)
(0.109997 -0.0238888 0)
(0.145554 -0.0253551 0)
(0.180061 -0.0276713 0)
(0.227138 -0.0296501 0)
(0.260335 -0.0356794 0)
(0.325363 -0.0312307 0)
(0.368012 -0.0553321 0)
(0.447568 -0.0476808 0)
(0.518806 -0.0462275 0)
(0.582623 -0.0628009 0)
(0.693617 -0.0819971 0)
(0.837703 -0.0955811 0)
(0.978685 -0.101019 0)
(1.10115 -0.0947518 0)
(1.19673 -0.0825465 0)
(1.277 -0.0530035 0)
(1.32363 -0.000856526 0)
(1.35117 0.0734137 0)
(1.21869 0.193093 0)
(0.0150895 -0.0359512 0)
(0.0455319 -0.0365761 0)
(0.0768163 -0.0378104 0)
(0.109174 -0.0397076 0)
(0.144366 -0.0421297 0)
(0.178649 -0.045948 0)
(0.225253 -0.0496139 0)
(0.257298 -0.0571203 0)
(0.323446 -0.0572964 0)
(0.36572 -0.0866578 0)
(0.443262 -0.0750324 0)
(0.509215 -0.0787011 0)
(0.57859 -0.117092 0)
(0.702967 -0.151498 0)
(0.850981 -0.162111 0)
(0.982271 -0.154262 0)
(1.08788 -0.131584 0)
(1.16578 -0.0900852 0)
(1.21973 -0.0626931 0)
(1.23402 -0.0587853 0)
(1.25866 -0.0655005 0)
(1.2014 0.0364803 0)
(0.014915 -0.0501384 0)
(0.0450091 -0.0510125 0)
(0.0759352 -0.0527377 0)
(0.107958 -0.0553615 0)
(0.142581 -0.0587134 0)
(0.176689 -0.0640257 0)
(0.221954 -0.0689294 0)
(0.253791 -0.0796274 0)
(0.319647 -0.0806409 0)
(0.359843 -0.11709 0)
(0.435857 -0.10878 0)
(0.498589 -0.110645 0)
(0.577692 -0.165739 0)
(0.709888 -0.212809 0)
(0.853638 -0.224009 0)
(0.961699 -0.207616 0)
(1.03471 -0.182945 0)
(1.07807 -0.174896 0)
(1.09977 -0.165596 0)
(1.11429 -0.166478 0)
(1.15074 -0.192916 0)
(1.20346 -0.132851 0)
(0.0146821 -0.064149 0)
(0.0443117 -0.0652721 0)
(0.0747692 -0.0674886 0)
(0.10635 -0.0708046 0)
(0.140248 -0.0750594 0)
(0.174055 -0.0817012 0)
(0.21767 -0.088165 0)
(0.249348 -0.100835 0)
(0.314019 -0.105676 0)
(0.352656 -0.145964 0)
(0.422232 -0.133896 0)
(0.490432 -0.149425 0)
(0.575584 -0.227573 0)
(0.704567 -0.284658 0)
(0.82634 -0.283553 0)
(0.907197 -0.271627 0)
(0.92736 -0.282021 0)
(0.918745 -0.296374 0)
(0.880414 -0.374089 0)
(0.929091 -0.449215 0)
(1.08708 -0.37735 0)
(1.11393 -0.178765 0)
(0.014388 -0.0778926 0)
(0.0434313 -0.0792656 0)
(0.0733121 -0.0819789 0)
(0.104341 -0.0859579 0)
(0.137374 -0.0910963 0)
(0.170716 -0.099046 0)
(0.212459 -0.106927 0)
(0.243857 -0.12228 0)
(0.307287 -0.129967 0)
(0.340076 -0.170014 0)
(0.411269 -0.166278 0)
(0.48232 -0.18763 0)
(0.567205 -0.280344 0)
(0.678266 -0.34357 0)
(0.754892 -0.382249 0)
(0.754718 -0.43093 0)
(0.693571 -0.530858 0)
(0.717295 -0.57506 0)
(0.739007 -0.562777 0)
(0.807519 -0.119 0)
(0.695639 0.18276 0)
(0.189954 0.53552 0)
(0.0140211 -0.0911666 0)
(0.0423319 -0.0928099 0)
(0.0715108 -0.0960615 0)
(0.101843 -0.100706 0)
(0.133879 -0.10671 0)
(0.16657 -0.115886 0)
(0.206319 -0.124996 0)
(0.237482 -0.142547 0)
(0.298467 -0.152214 0)
(0.327395 -0.191917 0)
(0.401634 -0.191617 0)
(0.470553 -0.227806 0)
(0.554927 -0.344252 0)
(0.603771 -0.455514 0)
(0.579491 -0.567689 0)
(0.483081 -0.757366 0)
(0.506048 -0.766788 0)
(0.719115 -0.478948 0)
(0.859001 -0.00725893 0)
(0.61208 0.186491 0)
(0.45872 0.452419 0)
(0.0679349 0.690556 0)
(0.0135582 -0.104358 0)
(0.0409497 -0.106284 0)
(0.0692921 -0.110067 0)
(0.0987916 -0.115237 0)
(0.129794 -0.121684 0)
(0.161726 -0.131548 0)
(0.199572 -0.141234 0)
(0.230615 -0.160764 0)
(0.289307 -0.172885 0)
(0.313707 -0.215994 0)
(0.39389 -0.226083 0)
(0.449795 -0.298026 0)
(0.521059 -0.431426 0)
(0.446957 -0.630925 0)
(0.389863 -0.798931 0)
(0.382889 -0.847228 0)
(0.51332 -0.590277 0)
(0.667526 -0.0923598 0)
(0.54321 0.0947165 0)
(0.443183 0.24532 0)
(0.397774 0.525018 0)
(0.175592 0.832296 0)
(0.0127536 -0.124712 0)
(0.038578 -0.126888 0)
(0.0656431 -0.131163 0)
(0.0939621 -0.136686 0)
(0.123642 -0.143742 0)
(0.154025 -0.155829 0)
(0.18897 -0.16776 0)
(0.220089 -0.19453 0)
(0.271256 -0.220426 0)
(0.295408 -0.282444 0)
(0.364392 -0.350781 0)
(0.406458 -0.444652 0)
(0.375823 -0.633065 0)
(0.285251 -0.819998 0)
(0.295675 -0.885618 0)
(0.296696 -0.765551 0)
(0.511607 -0.207881 0)
(0.472903 -0.0160418 0)
(0.407509 0.126775 0)
(0.450862 0.248714 0)
(0.416661 0.537476 0)
(0.689401 0.729602 0)
(0.0120222 -0.139805 0)
(0.0363712 -0.144106 0)
(0.0623518 -0.1528 0)
(0.0888724 -0.164715 0)
(0.116819 -0.181732 0)
(0.143901 -0.211985 0)
(0.1742 -0.243872 0)
(0.202692 -0.295775 0)
(0.22192 -0.349905 0)
(0.251949 -0.43945 0)
(0.248564 -0.557846 0)
(0.212426 -0.70874 0)
(0.23171 -0.852829 0)
(0.251866 -0.957925 0)
(0.462892 -0.683942 0)
(0.583212 -0.323156 0)
(0.493081 -0.0971175 0)
(0.480468 -0.000369265 0)
(0.442926 0.148271 0)
(0.522443 0.195524 0)
(0.567914 0.422542 0)
(0.760552 0.437518 0)
(0.0104483 -0.277414 0)
(0.031145 -0.284876 0)
(0.0528271 -0.299787 0)
(0.072037 -0.319057 0)
(0.0940781 -0.340646 0)
(0.108426 -0.381509 0)
(0.125688 -0.424032 0)
(0.142722 -0.495121 0)
(0.153856 -0.586611 0)
(0.180392 -0.698332 0)
(0.217592 -0.761215 0)
(0.269112 -0.882657 0)
(0.361731 -0.918973 0)
(0.543546 -0.737216 0)
(0.596583 -0.542642 0)
(0.586923 -0.267149 0)
(0.531311 -0.0578462 0)
(0.522009 0.0115312 0)
(0.530714 0.10963 0)
(0.599034 0.1179 0)
(0.694741 0.261207 0)
(0.838434 0.222559 0)
(0.010104 -0.405575 0)
(0.0288094 -0.415418 0)
(0.0483502 -0.430493 0)
(0.0685701 -0.452417 0)
(0.0969169 -0.470661 0)
(0.124588 -0.515378 0)
(0.156468 -0.562791 0)
(0.194809 -0.628725 0)
(0.231982 -0.712745 0)
(0.302134 -0.766666 0)
(0.460231 -0.658473 0)
(0.532499 -0.653477 0)
(0.562992 -0.632748 0)
(0.585327 -0.597794 0)
(0.600602 -0.493376 0)
(0.568388 -0.242596 0)
(0.535156 -0.0482459 0)
(0.543742 0.0048072 0)
(0.576091 0.0647319 0)
(0.629674 0.0543102 0)
(0.737246 0.119979 0)
(0.858212 0.0888573 0)
(0.0315162 -0.29418 0)
(0.0767762 -0.30056 0)
(0.126796 -0.31186 0)
(0.169181 -0.339098 0)
(0.221894 -0.352979 0)
(0.271833 -0.376366 0)
(0.32302 -0.39811 0)
(0.370429 -0.423693 0)
(0.408714 -0.442996 0)
(0.451227 -0.477874 0)
(0.471305 -0.50317 0)
(0.490517 -0.567869 0)
(0.525619 -0.594508 0)
(0.54765 -0.575584 0)
(0.553955 -0.46178 0)
(0.509316 -0.212768 0)
(0.503794 -0.0499951 0)
(0.524685 -0.0204593 0)
(0.57218 0.00969754 0)
(0.635624 -0.0108604 0)
(0.752573 -0.0101883 0)
(0.842737 -0.022024 0)
(0.0201611 -0.280974 0)
(0.0615812 -0.282942 0)
(0.104025 -0.290951 0)
(0.147902 -0.302281 0)
(0.189824 -0.317295 0)
(0.233004 -0.339614 0)
(0.271106 -0.367585 0)
(0.30857 -0.401811 0)
(0.336795 -0.440735 0)
(0.373396 -0.489192 0)
(0.39992 -0.516461 0)
(0.431562 -0.586347 0)
(0.471572 -0.61205 0)
(0.494761 -0.583529 0)
(0.492972 -0.432781 0)
(0.444938 -0.19645 0)
(0.456589 -0.0705313 0)
(0.492041 -0.059416 0)
(0.551952 -0.0543726 0)
(0.626458 -0.0936742 0)
(0.728205 -0.117203 0)
(0.811404 -0.139534 0)
(0.0196645 -0.328193 0)
(0.0591107 -0.334333 0)
(0.0972411 -0.343186 0)
(0.136033 -0.357097 0)
(0.171965 -0.374163 0)
(0.207773 -0.396142 0)
(0.241953 -0.422309 0)
(0.27809 -0.452294 0)
(0.309173 -0.485645 0)
(0.346841 -0.525014 0)
(0.373686 -0.551714 0)
(0.409093 -0.623393 0)
(0.446743 -0.637355 0)
(0.46422 -0.591635 0)
(0.439319 -0.410041 0)
(0.390363 -0.193881 0)
(0.411023 -0.102771 0)
(0.456235 -0.108504 0)
(0.519778 -0.125167 0)
(0.598927 -0.175591 0)
(0.687249 -0.209699 0)
(0.766861 -0.248449 0)
(0.0171221 -0.366874 0)
(0.051099 -0.371024 0)
(0.085153 -0.379559 0)
(0.118103 -0.391526 0)
(0.151928 -0.409976 0)
(0.184445 -0.43052 0)
(0.216887 -0.456829 0)
(0.248323 -0.485926 0)
(0.276228 -0.517844 0)
(0.311682 -0.558483 0)
(0.326585 -0.588112 0)
(0.361133 -0.652636 0)
(0.397092 -0.652235 0)
(0.407881 -0.576822 0)
(0.360269 -0.362325 0)
(0.330806 -0.187323 0)
(0.360221 -0.138799 0)
(0.417473 -0.163664 0)
(0.481514 -0.196364 0)
(0.5589 -0.254164 0)
(0.636906 -0.294698 0)
(0.715088 -0.344178 0)
(0.0151062 -0.396821 0)
(0.0453521 -0.401542 0)
(0.075165 -0.409378 0)
(0.104962 -0.421523 0)
(0.133389 -0.4365 0)
(0.161442 -0.456742 0)
(0.188011 -0.479792 0)
(0.214761 -0.507626 0)
(0.238406 -0.540366 0)
(0.267436 -0.575469 0)
(0.28635 -0.60585 0)
(0.324026 -0.677224 0)
(0.355018 -0.66662 0)
(0.349755 -0.556845 0)
(0.284484 -0.329957 0)
(0.280769 -0.200484 0)
(0.31254 -0.185873 0)
(0.378712 -0.225428 0)
(0.438087 -0.265974 0)
(0.511488 -0.326677 0)
(0.578866 -0.372155 0)
(0.65492 -0.431679 0)
(0.752522 -0.506785 0)
(0.0131491 -0.426294 0)
(0.0393428 -0.430564 0)
(0.0653015 -0.438095 0)
(0.0905207 -0.449355 0)
(0.115407 -0.465438 0)
(0.139488 -0.484848 0)
(0.16305 -0.509087 0)
(0.186048 -0.536768 0)
(0.207414 -0.56833 0)
(0.233106 -0.606134 0)
(0.246075 -0.642092 0)
(0.282347 -0.704824 0)
(0.307461 -0.672658 0)
(0.275766 -0.513694 0)
(0.211597 -0.299088 0)
(0.229796 -0.224223 0)
(0.271486 -0.237116 0)
(0.336763 -0.28547 0)
(0.390295 -0.32977 0)
(0.456913 -0.39112 0)
(0.514243 -0.442775 0)
(0.586949 -0.51265 0)
(0.673679 -0.603593 0)
(0.0111557 -0.449603 0)
(0.0334122 -0.4539 0)
(0.0554428 -0.461158 0)
(0.0772348 -0.47216 0)
(0.0981691 -0.486783 0)
(0.118342 -0.505599 0)
(0.137547 -0.527845 0)
(0.155766 -0.554435 0)
(0.172842 -0.585936 0)
(0.191588 -0.620963 0)
(0.203435 -0.660314 0)
(0.234689 -0.724473 0)
(0.252758 -0.66261 0)
(0.18647 -0.463752 0)
(0.150831 -0.28435 0)
(0.180301 -0.260584 0)
(0.235626 -0.294832 0)
(0.291339 -0.340661 0)
(0.339627 -0.387137 0)
(0.397532 -0.447353 0)
(0.444207 -0.50346 0)
(0.508339 -0.583231 0)
(0.585016 -0.680191 0)
(0.00908283 -0.472005 0)
(0.0271643 -0.476182 0)
(0.0452569 -0.48303 0)
(0.0635625 -0.492916 0)
(0.0812065 -0.506877 0)
(0.0977029 -0.52437 0)
(0.113103 -0.54567 0)
(0.127084 -0.57057 0)
(0.139866 -0.599881 0)
(0.150845 -0.634491 0)
(0.160967 -0.678789 0)
(0.180448 -0.738347 0)
(0.185442 -0.638065 0)
(0.0865229 -0.406659 0)
(0.102792 -0.296888 0)
(0.141736 -0.308525 0)
(0.198025 -0.349147 0)
(0.246202 -0.38958 0)
(0.288056 -0.43498 0)
(0.337836 -0.488798 0)
(0.370986 -0.548615 0)
(0.43041 -0.633645 0)
(0.466561 -0.774577 0)
(0.00767473 -0.483903 0)
(0.0229132 -0.487714 0)
(0.0377976 -0.494238 0)
(0.0520307 -0.504049 0)
(0.0662223 -0.516154 0)
(0.0794616 -0.531614 0)
(0.091512 -0.550492 0)
(0.101699 -0.573172 0)
(0.109993 -0.600456 0)
(0.111124 -0.633967 0)
(0.116332 -0.680913 0)
(0.0996668 -0.73843 0)
(0.0826038 -0.589239 0)
(-0.00234983 -0.366702 0)
(0.0619671 -0.333944 0)
(0.113976 -0.36293 0)
(0.162101 -0.391814 0)
(0.205731 -0.425099 0)
(0.242824 -0.466281 0)
(0.283673 -0.516705 0)
(0.299281 -0.607841 0)
(0.32733 -0.739247 0)
(0.250527 -0.98149 0)
(0.00677275 -0.495372 0)
(0.0201127 -0.499239 0)
(0.0327278 -0.506018 0)
(0.044032 -0.516854 0)
(0.0544457 -0.531996 0)
(0.0643228 -0.551871 0)
(0.0729617 -0.57756 0)
(0.0792745 -0.609282 0)
(0.0820521 -0.646928 0)
(0.0737186 -0.691068 0)
(0.0663425 -0.741847 0)
(-0.0151092 -0.78145 0)
(-0.051967 -0.539096 0)
(-0.0465533 -0.37774 0)
(0.0457677 -0.389938 0)
(0.0910169 -0.405378 0)
(0.136299 -0.429508 0)
(0.173847 -0.471355 0)
(0.202235 -0.538134 0)
(0.207797 -0.629504 0)
(0.17673 -0.771716 0)
(0.137698 -0.966208 0)
(-0.0289944 -1.24019 0)
(0.00521086 -0.591953 0)
(0.0150288 -0.597691 0)
(0.0239955 -0.607928 0)
(0.0312226 -0.623412 0)
(0.0361858 -0.644274 0)
(0.0388652 -0.670346 0)
(0.0395698 -0.70154 0)
(0.0381875 -0.738335 0)
(0.0340598 -0.784522 0)
(0.0230557 -0.837301 0)
(-0.00467084 -0.882881 0)
(-0.106987 -0.854468 0)
(-0.104005 -0.590427 0)
(-0.0358811 -0.507077 0)
(0.0395156 -0.52259 0)
(0.0785186 -0.537045 0)
(0.101511 -0.573844 0)
(0.107228 -0.635142 0)
(0.0959044 -0.735641 0)
(0.0592916 -0.868926 0)
(-0.0435926 -1.04099 0)
(-0.163025 -0.440518 0)
(-0.609266 -0.531071 0)
(0.00166434 -0.792813 0)
(0.00360486 -0.801688 0)
(0.00559664 -0.817839 0)
(0.0060418 -0.84216 0)
(0.00524691 -0.87474 0)
(0.00196561 -0.91645 0)
(-0.0040856 -0.967416 0)
(-0.0158163 -1.02754 0)
(-0.0411056 -1.01551 0)
(-0.0687116 -0.826536 0)
(-0.201287 -0.555916 0)
(-0.193463 -0.712057 0)
(-0.10696 -0.822331 0)
(-0.00636227 -0.763035 0)
(0.0183531 -0.763088 0)
(0.0289524 -0.785143 0)
(0.0166071 -0.843282 0)
(-0.0364412 -0.932874 0)
(-0.101833 -0.683676 0)
(-0.249212 -0.101616 0)
(-0.410641 -0.303498 0)
(-0.355754 -0.585119 0)
(-0.535656 -0.15147 0)
(-0.0122681 -0.389402 0)
(-0.0429317 -0.36537 0)
(-0.0761828 -0.331242 0)
(-0.115856 -0.29268 0)
(-0.164111 -0.262859 0)
(-0.216795 -0.284548 0)
(-0.272725 -0.375483 0)
(-0.31651 -0.557551 0)
(-0.31081 -0.756769 0)
(-0.234386 -0.840627 0)
(-0.0471257 -0.876316 0)
(0.151873 -0.867799 0)
(0.0757646 -0.578778 0)
(-0.0397421 -0.497024 0)
(-0.15352 -0.3762 0)
(-0.293549 -0.203515 0)
(-0.432653 -0.0929082 0)
(-0.499159 -0.288979 0)
(-0.398363 -0.668702 0)
(-0.223949 -0.773965 0)
(-0.144445 -0.630275 0)
(-0.374924 -0.215584 0)
(-0.71073 0.0861183 0)
(-0.0128665 -0.787462 0)
(-0.0361583 -0.793295 0)
(-0.0519186 -0.797043 0)
(-0.0638956 -0.797888 0)
(-0.070002 -0.796056 0)
(-0.0764521 -0.788029 0)
(-0.0819599 -0.768102 0)
(-0.084082 -0.730394 0)
(-0.100463 -0.678723 0)
(-0.133924 -0.633305 0)
(-0.166312 -0.637389 0)
(-0.251391 -0.744804 0)
(-0.366406 -0.713986 0)
(-0.419547 -0.602259 0)
(-0.400778 -0.607314 0)
(-0.35391 -0.663399 0)
)
;

boundaryField
{
    leftWall
    {
        type            fixedValue;
        value           uniform (0 0 0);
    }
    rightWall
    {
        type            fixedValue;
        value           nonuniform 0();
    }
    lowerWall
    {
        type            fixedValue;
        value           uniform (0 0 0);
    }
    atmosphere
    {
        type            fluxCorrectedVelocity;
        value           nonuniform 0();
    }
    defaultFaces
    {
        type            empty;
    }
    procBoundary0to1
    {
        type            processor;
        value           nonuniform List<vector> 
26
(
(1.01058 0.0485715 0)
(1.07647 0.656275 0)
(1.1367 0.766421 0)
(1.21472 0.869773 0)
(1.37338 0.863849 0)
(1.51475 0.951681 0)
(1.12762 1.3596 0)
(0.139266 2.04888 0)
(1.02957 1.86116 0)
(1.19854 0.87369 0)
(1.09776 0.417966 0)
(1.05586 0.183095 0)
(1.00704 -0.0280679 0)
(0.955455 -0.188556 0)
(0.896164 -0.307117 0)
(0.825481 -0.406608 0)
(0.825481 -0.406608 0)
(0.817042 -0.575365 0)
(0.737145 -0.670264 0)
(0.635899 -0.766746 0)
(0.477715 -0.931548 0)
(0.271158 -1.08591 0)
(-0.245509 0.205439 0)
(-0.713666 -0.2645 0)
(-0.748846 0.276082 0)
(-0.713062 0.166734 0)
)
;
    }
    procBoundary0to2
    {
        type            processor;
        value           nonuniform List<vector> 
24
(
(-0.274613 -0.692549 0)
(-0.202385 -0.673524 0)
(-0.186568 -0.575162 0)
(-0.256312 -0.380733 0)
(-0.473433 -0.0786062 0)
(-0.712164 0.109492 0)
(-0.737979 0.145617 0)
(-0.00186653 -0.331 0)
(-0.00614746 -0.336319 0)
(-0.0107248 -0.339395 0)
(-0.0221422 -0.347044 0)
(-0.03879 -0.359927 0)
(-0.0629222 -0.380301 0)
(-0.0923415 -0.404009 0)
(-0.126019 -0.432627 0)
(-0.163859 -0.465843 0)
(-0.207937 -0.490859 0)
(-0.264883 -0.509019 0)
(-0.334416 -0.522096 0)
(-0.379874 -0.439211 0)
(-0.387377 -0.356568 0)
(-0.356423 -0.326193 0)
(-0.274613 -0.692549 0)
(-0.361988 -0.321994 0)
)
;
    }
}


// ************************************************************************* //
