/*--------------------------------*- C++ -*----------------------------------*\
| =========                 |                                                 |
| \\      /  F ield         | OpenFOAM: The Open Source CFD Toolbox           |
|  \\    /   O peration     | Version:  2.4.0                                 |
|   \\  /    A nd           | Web:      www.OpenFOAM.org                      |
|    \\/     M anipulation  |                                                 |
\*---------------------------------------------------------------------------*/
FoamFile
{
    version     2.0;
    format      ascii;
    class       volVectorField;
    location    "0.15";
    object      U.oil;
}
// * * * * * * * * * * * * * * * * * * * * * * * * * * * * * * * * * * * * * //

dimensions      [0 1 -1 0 0 0 0];

internalField   nonuniform List<vector> 
575
(
(0.0152584 -0.00721445 0)
(0.0460351 -0.00733786 0)
(0.0776685 -0.00758528 0)
(0.110358 -0.00796782 0)
(0.146071 -0.00846442 0)
(0.180722 -0.00919057 0)
(0.227846 -0.0101109 0)
(0.261983 -0.0111894 0)
(0.326552 -0.0117838 0)
(0.367342 -0.0179199 0)
(0.450042 -0.0143329 0)
(0.527134 -0.0159048 0)
(0.585603 -0.0211543 0)
(0.679209 -0.0239392 0)
(0.816592 -0.0221195 0)
(0.970091 -0.0145949 0)
(1.11964 0.00155829 0)
(1.24327 0.0327693 0)
(1.32648 0.0760621 0)
(1.31959 0.141651 0)
(1.19552 0.172712 0)
(0.799952 0.193654 0)
(0.0152064 -0.0216244 0)
(0.0458826 -0.0220001 0)
(0.0774099 -0.0227422 0)
(0.109998 -0.0238885 0)
(0.145555 -0.0253548 0)
(0.180061 -0.027671 0)
(0.227138 -0.0296498 0)
(0.260335 -0.0356792 0)
(0.325363 -0.0312305 0)
(0.368012 -0.0553319 0)
(0.44757 -0.0476806 0)
(0.519018 -0.0461844 0)
(0.584013 -0.0596009 0)
(0.69836 -0.0710484 0)
(0.848075 -0.0727414 0)
(0.994644 -0.059243 0)
(1.12255 -0.0292099 0)
(1.2246 0.00962754 0)
(1.30725 0.0885895 0)
(1.33117 0.196594 0)
(1.32714 0.326886 0)
(1.0104 0.584394 0)
(0.0150896 -0.0359506 0)
(0.0455321 -0.0365755 0)
(0.0768166 -0.0378098 0)
(0.109174 -0.0397071 0)
(0.144366 -0.0421292 0)
(0.17865 -0.0459475 0)
(0.225253 -0.0496135 0)
(0.257298 -0.0571199 0)
(0.323447 -0.057296 0)
(0.365721 -0.0866575 0)
(0.443271 -0.0750316 0)
(0.509749 -0.0785184 0)
(0.581388 -0.110593 0)
(0.711244 -0.125699 0)
(0.870242 -0.102642 0)
(1.0235 -0.0521204 0)
(1.15722 0.0435433 0)
(1.22306 0.0967513 0)
(1.26262 0.13411 0)
(1.27045 0.151407 0)
(1.27599 0.199944 0)
(0.929743 0.538764 0)
(0.0149151 -0.0501376 0)
(0.0450092 -0.0510116 0)
(0.0759354 -0.0527369 0)
(0.107958 -0.0553608 0)
(0.142582 -0.0587126 0)
(0.17669 -0.0640251 0)
(0.221954 -0.0689288 0)
(0.253792 -0.0796269 0)
(0.319648 -0.0806404 0)
(0.359844 -0.11709 0)
(0.435888 -0.108777 0)
(0.499682 -0.109444 0)
(0.584655 -0.142307 0)
(0.738878 -0.136554 0)
(0.93014 -0.0413481 0)
(1.0385 -0.0117846 0)
(1.10194 0.0221124 0)
(1.14015 0.0298644 0)
(1.15209 0.0477147 0)
(1.1552 0.109589 0)
(1.15074 0.305728 0)
(0.517582 0.684782 0)
(0.0146821 -0.064148 0)
(0.0443118 -0.0652711 0)
(0.0747695 -0.0674877 0)
(0.10635 -0.0708036 0)
(0.140248 -0.0750585 0)
(0.174056 -0.0817004 0)
(0.217671 -0.0881643 0)
(0.249348 -0.100834 0)
(0.31402 -0.105675 0)
(0.352657 -0.145963 0)
(0.422515 -0.133876 0)
(0.496797 -0.142158 0)
(0.607724 -0.14277 0)
(0.781408 -0.0946192 0)
(0.910029 -0.0785899 0)
(0.991157 -0.0525569 0)
(1.01406 -0.0428106 0)
(1.0183 0.00124533 0)
(0.998682 0.110491 0)
(0.885889 0.0573287 0)
(0.824715 0.132026 0)
(0.231465 0.489894 0)
(0.0143881 -0.0778915 0)
(0.0434315 -0.0792645 0)
(0.0733123 -0.0819778 0)
(0.104342 -0.0859569 0)
(0.137374 -0.0910953 0)
(0.170717 -0.0990451 0)
(0.212459 -0.106926 0)
(0.243857 -0.12228 0)
(0.307288 -0.129966 0)
(0.340081 -0.170014 0)
(0.413185 -0.16589 0)
(0.499512 -0.162942 0)
(0.640338 -0.0968945 0)
(0.768076 -0.13946 0)
(0.860242 -0.148321 0)
(0.901658 -0.121251 0)
(0.972605 -0.0207863 0)
(0.977726 -0.0639462 0)
(0.929932 -0.133979 0)
(0.845938 -0.0190578 0)
(0.636263 0.294731 0)
(0.0450027 0.646599 0)
(0.0140211 -0.0911654 0)
(0.042332 -0.0928088 0)
(0.0715111 -0.0960604 0)
(0.101844 -0.100705 0)
(0.133879 -0.106709 0)
(0.16657 -0.115886 0)
(0.206319 -0.124996 0)
(0.237482 -0.142546 0)
(0.298467 -0.152213 0)
(0.327507 -0.191916 0)
(0.406561 -0.189511 0)
(0.500864 -0.169031 0)
(0.645723 -0.149767 0)
(0.730282 -0.217335 0)
(0.802496 -0.198482 0)
(0.965809 -0.137552 0)
(0.957164 -0.254984 0)
(0.962711 -0.202871 0)
(0.8676 0.0100915 0)
(0.614075 0.194779 0)
(0.459654 0.467106 0)
(0.0600384 0.70046 0)
(0.0135582 -0.104357 0)
(0.0409499 -0.106283 0)
(0.0692922 -0.110066 0)
(0.0987919 -0.115236 0)
(0.129794 -0.121683 0)
(0.161726 -0.131547 0)
(0.199573 -0.141234 0)
(0.230615 -0.160763 0)
(0.289308 -0.172885 0)
(0.314239 -0.215989 0)
(0.402414 -0.220922 0)
(0.501435 -0.188748 0)
(0.650182 -0.205489 0)
(0.693396 -0.257305 0)
(0.878079 -0.263573 0)
(0.850108 -0.370407 0)
(0.781161 -0.284462 0)
(0.677237 -0.0722014 0)
(0.545678 0.100081 0)
(0.443506 0.251157 0)
(0.39972 0.53529 0)
(0.179132 0.841415 0)
(0.0127537 -0.124705 0)
(0.0385784 -0.126879 0)
(0.0656444 -0.131145 0)
(0.0939669 -0.136637 0)
(0.123662 -0.14358 0)
(0.154104 -0.155265 0)
(0.189177 -0.166464 0)
(0.220618 -0.191756 0)
(0.27258 -0.214975 0)
(0.299677 -0.27148 0)
(0.38114 -0.326846 0)
(0.469113 -0.298894 0)
(0.583925 -0.211077 0)
(0.649314 -0.279746 0)
(0.705694 -0.41352 0)
(0.685102 -0.323388 0)
(0.558041 -0.120778 0)
(0.474575 -0.0129267 0)
(0.409085 0.129831 0)
(0.452324 0.252891 0)
(0.41989 0.543627 0)
(0.703352 0.733534 0)
(0.0120855 -0.135308 0)
(0.0365873 -0.13925 0)
(0.062788 -0.147121 0)
(0.0896232 -0.157696 0)
(0.11806 -0.172797 0)
(0.146051 -0.199699 0)
(0.177684 -0.226813 0)
(0.208358 -0.270446 0)
(0.230919 -0.310627 0)
(0.270275 -0.371642 0)
(0.292595 -0.430411 0)
(0.347043 -0.389924 0)
(0.538048 -0.334167 0)
(0.627678 -0.494658 0)
(0.671425 -0.445156 0)
(0.609308 -0.248634 0)
(0.487877 -0.0778181 0)
(0.480711 0.000589305 0)
(0.443359 0.149413 0)
(0.523193 0.196991 0)
(0.570517 0.423345 0)
(0.762007 0.437847 0)
(0.010727 -0.240373 0)
(0.0321273 -0.245989 0)
(0.0548514 -0.256697 0)
(0.0757205 -0.269018 0)
(0.100187 -0.281006 0)
(0.118879 -0.303597 0)
(0.143564 -0.319363 0)
(0.175301 -0.347169 0)
(0.214493 -0.364785 0)
(0.290066 -0.375063 0)
(0.379564 -0.37694 0)
(0.486073 -0.5039 0)
(0.611009 -0.537588 0)
(0.649249 -0.526925 0)
(0.657496 -0.442715 0)
(0.599978 -0.192788 0)
(0.52692 -0.0305238 0)
(0.521945 0.012415 0)
(0.530837 0.109962 0)
(0.599132 0.118358 0)
(0.695018 0.261666 0)
(0.838763 0.222914 0)
(0.0139604 -0.217414 0)
(0.041259 -0.22183 0)
(0.070741 -0.222408 0)
(0.103755 -0.223576 0)
(0.146944 -0.216972 0)
(0.195725 -0.232945 0)
(0.25455 -0.255586 0)
(0.323378 -0.307469 0)
(0.395141 -0.378701 0)
(0.457267 -0.461089 0)
(0.515863 -0.489527 0)
(0.559731 -0.525244 0)
(0.619294 -0.525951 0)
(0.63427 -0.518479 0)
(0.635255 -0.425436 0)
(0.577105 -0.171109 0)
(0.532682 -0.0178265 0)
(0.54353 0.00618146 0)
(0.576104 0.0647983 0)
(0.629689 0.0543759 0)
(0.737275 0.120043 0)
(0.858254 0.0889162 0)
(0.0267117 -0.288068 0)
(0.0770249 -0.294216 0)
(0.127228 -0.302995 0)
(0.170739 -0.325097 0)
(0.223986 -0.341457 0)
(0.272933 -0.367204 0)
(0.323902 -0.389583 0)
(0.371208 -0.415219 0)
(0.409456 -0.435717 0)
(0.451847 -0.472456 0)
(0.472852 -0.498665 0)
(0.501584 -0.546634 0)
(0.565233 -0.537811 0)
(0.587827 -0.518186 0)
(0.583084 -0.399357 0)
(0.513014 -0.148629 0)
(0.503356 -0.0254532 0)
(0.524638 -0.0195462 0)
(0.572187 0.00970046 0)
(0.635632 -0.0108634 0)
(0.752581 -0.0101896 0)
(0.842746 -0.0220286 0)
(0.0201611 -0.280186 0)
(0.0615812 -0.282145 0)
(0.104025 -0.289959 0)
(0.147902 -0.301107 0)
(0.189824 -0.316212 0)
(0.233005 -0.338653 0)
(0.271106 -0.36667 0)
(0.30857 -0.400904 0)
(0.336796 -0.439892 0)
(0.373424 -0.48847 0)
(0.401167 -0.515715 0)
(0.444878 -0.564299 0)
(0.508876 -0.559691 0)
(0.533144 -0.527202 0)
(0.515358 -0.367882 0)
(0.445905 -0.142351 0)
(0.456869 -0.0567902 0)
(0.492046 -0.0592728 0)
(0.551957 -0.0543777 0)
(0.626463 -0.0936816 0)
(0.728211 -0.117212 0)
(0.811409 -0.139546 0)
(0.0196645 -0.328193 0)
(0.0591107 -0.334333 0)
(0.0972411 -0.343186 0)
(0.136033 -0.357097 0)
(0.171965 -0.374163 0)
(0.207773 -0.396142 0)
(0.241953 -0.422308 0)
(0.27809 -0.452293 0)
(0.309173 -0.485644 0)
(0.346864 -0.525012 0)
(0.37495 -0.551615 0)
(0.423955 -0.598778 0)
(0.481716 -0.586097 0)
(0.497159 -0.53386 0)
(0.451707 -0.344462 0)
(0.389385 -0.152207 0)
(0.411137 -0.0967614 0)
(0.456239 -0.108502 0)
(0.519782 -0.125173 0)
(0.598931 -0.175598 0)
(0.687253 -0.209708 0)
(0.766864 -0.248461 0)
(0.0171221 -0.366874 0)
(0.051099 -0.371024 0)
(0.085153 -0.379559 0)
(0.118103 -0.391526 0)
(0.151928 -0.409976 0)
(0.184445 -0.43052 0)
(0.216887 -0.456829 0)
(0.248323 -0.485926 0)
(0.276228 -0.517844 0)
(0.311699 -0.558483 0)
(0.327793 -0.588033 0)
(0.377173 -0.624523 0)
(0.432829 -0.600449 0)
(0.436178 -0.518769 0)
(0.365501 -0.302456 0)
(0.330655 -0.16209 0)
(0.360286 -0.137519 0)
(0.417476 -0.163669 0)
(0.481517 -0.19637 0)
(0.558903 -0.254172 0)
(0.636908 -0.294707 0)
(0.715089 -0.344188 0)
(0.0151062 -0.396821 0)
(0.0453521 -0.401542 0)
(0.075165 -0.409378 0)
(0.104962 -0.421523 0)
(0.133389 -0.4365 0)
(0.161442 -0.456742 0)
(0.188011 -0.479792 0)
(0.214761 -0.507626 0)
(0.238406 -0.540366 0)
(0.267448 -0.575469 0)
(0.287493 -0.605795 0)
(0.340937 -0.646537 0)
(0.388711 -0.613355 0)
(0.369144 -0.49656 0)
(0.284186 -0.27974 0)
(0.281021 -0.188785 0)
(0.312545 -0.185817 0)
(0.378714 -0.225434 0)
(0.438089 -0.265981 0)
(0.511489 -0.326684 0)
(0.578866 -0.372163 0)
(0.654919 -0.431688 0)
(0.752519 -0.506795 0)
(0.0131491 -0.426294 0)
(0.0393428 -0.430564 0)
(0.0653015 -0.438095 0)
(0.0905207 -0.449355 0)
(0.115407 -0.465438 0)
(0.139488 -0.484848 0)
(0.16305 -0.509087 0)
(0.186048 -0.536768 0)
(0.207414 -0.56833 0)
(0.233114 -0.606134 0)
(0.247112 -0.642051 0)
(0.29912 -0.670948 0)
(0.339013 -0.61726 0)
(0.284399 -0.452435 0)
(0.209726 -0.264102 0)
(0.229939 -0.221047 0)
(0.271488 -0.23712 0)
(0.336764 -0.285475 0)
(0.390296 -0.329776 0)
(0.456914 -0.391126 0)
(0.514243 -0.442782 0)
(0.586947 -0.512658 0)
(0.673677 -0.603602 0)
(0.0111557 -0.449603 0)
(0.0334122 -0.4539 0)
(0.0554428 -0.461158 0)
(0.0772348 -0.47216 0)
(0.0981691 -0.486783 0)
(0.118342 -0.505599 0)
(0.137547 -0.527845 0)
(0.155766 -0.554435 0)
(0.172842 -0.585936 0)
(0.191594 -0.620963 0)
(0.204385 -0.660243 0)
(0.251265 -0.68748 0)
(0.277342 -0.605926 0)
(0.185732 -0.408758 0)
(0.150269 -0.267274 0)
(0.180307 -0.260403 0)
(0.235627 -0.294836 0)
(0.29134 -0.340666 0)
(0.339628 -0.387142 0)
(0.397532 -0.447359 0)
(0.444206 -0.503466 0)
(0.508337 -0.583237 0)
(0.585013 -0.680197 0)
(0.00908283 -0.472005 0)
(0.0271643 -0.476182 0)
(0.0452569 -0.48303 0)
(0.0635625 -0.492916 0)
(0.0812065 -0.506877 0)
(0.0977029 -0.52437 0)
(0.113103 -0.54567 0)
(0.127084 -0.57057 0)
(0.139866 -0.599881 0)
(0.150873 -0.63449 0)
(0.161881 -0.678021 0)
(0.172659 -0.702659 0)
(0.198216 -0.58099 0)
(0.0814397 -0.367569 0)
(0.102877 -0.292626 0)
(0.141736 -0.308527 0)
(0.198025 -0.34915 0)
(0.246202 -0.389584 0)
(0.288057 -0.434984 0)
(0.337836 -0.488803 0)
(0.370984 -0.54862 0)
(0.430404 -0.633657 0)
(0.466331 -0.774927 0)
(0.00767473 -0.483903 0)
(0.0229132 -0.487714 0)
(0.0377976 -0.494238 0)
(0.0520307 -0.504049 0)
(0.0662223 -0.516154 0)
(0.0794616 -0.531614 0)
(0.091512 -0.550492 0)
(0.101699 -0.573172 0)
(0.109994 -0.600456 0)
(0.11147 -0.633856 0)
(0.111599 -0.685184 0)
(0.0872296 -0.694634 0)
(0.0778898 -0.537217 0)
(-0.00472803 -0.350084 0)
(0.0619645 -0.333707 0)
(0.113976 -0.362932 0)
(0.162101 -0.391816 0)
(0.205731 -0.425101 0)
(0.242824 -0.466284 0)
(0.283667 -0.516723 0)
(0.299205 -0.608012 0)
(0.326628 -0.740688 0)
(0.245238 -0.988741 0)
(0.00677275 -0.495372 0)
(0.0201127 -0.499239 0)
(0.0327278 -0.506018 0)
(0.044032 -0.516854 0)
(0.0544457 -0.531996 0)
(0.0643228 -0.551871 0)
(0.0729617 -0.57756 0)
(0.0792746 -0.609282 0)
(0.0820886 -0.646931 0)
(0.0737692 -0.691716 0)
(0.0363512 -0.764949 0)
(-0.0251083 -0.725989 0)
(-0.0560207 -0.508221 0)
(-0.0470941 -0.374619 0)
(0.0457688 -0.389946 0)
(0.0910174 -0.405393 0)
(0.136294 -0.429547 0)
(0.173813 -0.471486 0)
(0.202087 -0.538684 0)
(0.207385 -0.631456 0)
(0.174786 -0.77795 0)
(0.127073 -0.988954 0)
(-0.154138 -1.59476 0)
(0.00521086 -0.591953 0)
(0.0150288 -0.597691 0)
(0.0239955 -0.607928 0)
(0.0312226 -0.623412 0)
(0.0361858 -0.644274 0)
(0.0388652 -0.670346 0)
(0.0395698 -0.701541 0)
(0.0381883 -0.738338 0)
(0.0341106 -0.784751 0)
(0.0133097 -0.85304 0)
(-0.0391791 -0.838203 0)
(-0.0923825 -0.757588 0)
(-0.103398 -0.582468 0)
(-0.0357725 -0.508064 0)
(0.03955 -0.523851 0)
(0.0785209 -0.538865 0)
(0.101394 -0.57685 0)
(0.106274 -0.640639 0)
(0.0927825 -0.746304 0)
(0.051085 -0.898601 0)
(-0.0698932 -1.24488 0)
(-0.186915 -1.75868 0)
(-0.551166 -0.862778 0)
(0.00166434 -0.792813 0)
(0.00360486 -0.801688 0)
(0.00559664 -0.817839 0)
(0.0060418 -0.84216 0)
(0.00524691 -0.87474 0)
(0.0019654 -0.916449 0)
(-0.00408895 -0.967411 0)
(-0.0158693 -1.02748 0)
(-0.0427461 -1.01685 0)
(-0.0699838 -0.937716 0)
(-0.0818109 -0.860216 0)
(-0.127294 -0.819781 0)
(-0.102056 -0.841895 0)
(-0.00536106 -0.778579 0)
(0.0181581 -0.781372 0)
(0.0278048 -0.812282 0)
(0.0128515 -0.897104 0)
(-0.0454425 -1.09944 0)
(-0.0933373 -1.29794 0)
(-0.138266 -1.73161 0)
(-0.319488 -1.07364 0)
(-0.376823 -0.57347 0)
(-0.566222 -0.156005 0)
(-0.0122681 -0.389402 0)
(-0.0429317 -0.36537 0)
(-0.0761828 -0.331242 0)
(-0.115856 -0.29268 0)
(-0.164111 -0.26286 0)
(-0.216789 -0.284553 0)
(-0.272603 -0.37545 0)
(-0.314118 -0.554326 0)
(-0.300178 -0.68068 0)
(-0.169982 -0.64745 0)
(-0.0654408 -1.0684 0)
(-0.0745504 -1.42368 0)
(-0.0558749 -1.48552 0)
(-0.00402837 -1.27604 0)
(-0.0267061 -1.25842 0)
(-0.0468695 -1.3554 0)
(-0.0847298 -1.5463 0)
(-0.261313 -1.25423 0)
(-0.371422 -0.713085 0)
(-0.26603 -0.76701 0)
(-0.173185 -0.657435 0)
(-0.376065 -0.235538 0)
(-0.714009 0.0835276 0)
(-0.0128665 -0.787462 0)
(-0.0361583 -0.793295 0)
(-0.0519186 -0.797043 0)
(-0.0638957 -0.797888 0)
(-0.0700025 -0.796057 0)
(-0.0764557 -0.78804 0)
(-0.0820121 -0.768373 0)
(-0.0851208 -0.736648 0)
(-0.104897 -0.717331 0)
(-0.139184 -0.734291 0)
(-0.163518 -0.683124 0)
(-0.24803 -0.735255 0)
(-0.368922 -0.707046 0)
(-0.420735 -0.603605 0)
(-0.405105 -0.606608 0)
(-0.360722 -0.675528 0)
)
;

boundaryField
{
    leftWall
    {
        type            fixedValue;
        value           uniform (0 0 0);
    }
    rightWall
    {
        type            fixedValue;
        value           nonuniform 0();
    }
    lowerWall
    {
        type            fixedValue;
        value           uniform (0 0 0);
    }
    atmosphere
    {
        type            fluxCorrectedVelocity;
        value           nonuniform 0();
    }
    defaultFaces
    {
        type            empty;
    }
    procBoundary0to1
    {
        type            processor;
        value           nonuniform List<vector> 
26
(
(0.764558 0.323014 0)
(0.911204 1.20024 0)
(0.983077 1.44743 0)
(1.02191 1.87973 0)
(0.762942 2.13862 0)
(0.399106 2.03642 0)
(0.123345 2.01164 0)
(0.0683336 2.09268 0)
(1.0672 1.8673 0)
(1.20534 0.869697 0)
(1.09841 0.41752 0)
(1.05591 0.183104 0)
(1.00705 -0.0280757 0)
(0.95546 -0.188572 0)
(0.896165 -0.30713 0)
(0.82548 -0.406621 0)
(0.82548 -0.406621 0)
(0.817038 -0.575377 0)
(0.737141 -0.670272 0)
(0.635882 -0.766769 0)
(0.476617 -0.93362 0)
(0.245292 -1.11291 0)
(-0.0931471 -0.601406 0)
(-0.7612 -0.330424 0)
(-0.767696 0.280194 0)
(-0.720925 0.164816 0)
)
;
    }
    procBoundary0to2
    {
        type            processor;
        value           nonuniform List<vector> 
24
(
(-0.282622 -0.705339 0)
(-0.209906 -0.69333 0)
(-0.199038 -0.621459 0)
(-0.264029 -0.431979 0)
(-0.467344 -0.106369 0)
(-0.71264 0.103156 0)
(-0.739061 0.142043 0)
(-0.00186653 -0.331 0)
(-0.00614746 -0.336319 0)
(-0.0107248 -0.339395 0)
(-0.0221422 -0.347044 0)
(-0.0387899 -0.359927 0)
(-0.0629216 -0.380305 0)
(-0.0923346 -0.40405 0)
(-0.125992 -0.432996 0)
(-0.163795 -0.466789 0)
(-0.207977 -0.492273 0)
(-0.264968 -0.510228 0)
(-0.334446 -0.522797 0)
(-0.379903 -0.439799 0)
(-0.387367 -0.3575 0)
(-0.356258 -0.32765 0)
(-0.282622 -0.705339 0)
(-0.361927 -0.323719 0)
)
;
    }
}


// ************************************************************************* //
