/*--------------------------------*- C++ -*----------------------------------*\
| =========                 |                                                 |
| \\      /  F ield         | OpenFOAM: The Open Source CFD Toolbox           |
|  \\    /   O peration     | Version:  2.4.0                                 |
|   \\  /    A nd           | Web:      www.OpenFOAM.org                      |
|    \\/     M anipulation  |                                                 |
\*---------------------------------------------------------------------------*/
FoamFile
{
    version     2.0;
    format      ascii;
    class       volVectorField;
    location    "0.15";
    object      U.water;
}
// * * * * * * * * * * * * * * * * * * * * * * * * * * * * * * * * * * * * * //

dimensions      [0 1 -1 0 0 0 0];

internalField   nonuniform List<vector> 
575
(
(0.0152584 -0.00721445 0)
(0.0460351 -0.00733786 0)
(0.0776685 -0.00758528 0)
(0.110358 -0.00796782 0)
(0.146071 -0.00846442 0)
(0.180722 -0.00919057 0)
(0.227846 -0.0101109 0)
(0.261983 -0.0111894 0)
(0.326552 -0.0117838 0)
(0.367342 -0.0179196 0)
(0.450042 -0.0143325 0)
(0.527084 -0.0159099 0)
(0.585143 -0.0224593 0)
(0.677334 -0.0291176 0)
(0.811872 -0.0337751 0)
(0.961488 -0.034312 0)
(1.10675 -0.0284072 0)
(1.2273 -0.0145254 0)
(1.31331 -0.00466714 0)
(1.33784 -0.00979629 0)
(1.31 -0.00774366 0)
(1.10486 -0.0132722 0)
(0.0152064 -0.0216243 0)
(0.0458826 -0.0220001 0)
(0.0774099 -0.0227422 0)
(0.109998 -0.0238885 0)
(0.145555 -0.0253548 0)
(0.180061 -0.027671 0)
(0.227138 -0.0296498 0)
(0.260335 -0.0356791 0)
(0.325363 -0.0312302 0)
(0.368012 -0.0553304 0)
(0.447569 -0.0476779 0)
(0.518806 -0.0462245 0)
(0.582624 -0.0627965 0)
(0.693618 -0.0819894 0)
(0.837705 -0.0955704 0)
(0.978687 -0.101001 0)
(1.10116 -0.0947066 0)
(1.19674 -0.0824003 0)
(1.27702 -0.0525624 0)
(1.32365 0.000485772 0)
(1.35085 0.0772703 0)
(1.2054 0.21814 0)
(0.0150896 -0.0359505 0)
(0.0455321 -0.0365754 0)
(0.0768166 -0.0378097 0)
(0.109174 -0.039707 0)
(0.144366 -0.0421291 0)
(0.17865 -0.0459474 0)
(0.225253 -0.0496134 0)
(0.257299 -0.0571197 0)
(0.323447 -0.0572947 0)
(0.365722 -0.0866511 0)
(0.443264 -0.0750188 0)
(0.509218 -0.0786886 0)
(0.578595 -0.117059 0)
(0.702977 -0.151096 0)
(0.850997 -0.160219 0)
(0.982303 -0.149284 0)
(1.08798 -0.12241 0)
(1.16596 -0.0769081 0)
(1.22007 -0.0465458 0)
(1.23481 -0.0453005 0)
(1.26022 -0.041118 0)
(1.14595 0.139011 0)
(0.0149151 -0.0501372 0)
(0.0450092 -0.0510114 0)
(0.0759354 -0.0527367 0)
(0.107958 -0.0553605 0)
(0.142582 -0.0587123 0)
(0.17669 -0.0640247 0)
(0.221954 -0.0689285 0)
(0.253792 -0.0796259 0)
(0.319649 -0.080635 0)
(0.359848 -0.11707 0)
(0.435865 -0.10873 0)
(0.498603 -0.110565 0)
(0.577834 -0.160917 0)
(0.710771 -0.194138 0)
(0.857088 -0.19487 0)
(0.969473 -0.167053 0)
(1.04689 -0.123099 0)
(1.09366 -0.101939 0)
(1.10977 -0.0999461 0)
(1.12433 -0.0995274 0)
(1.15083 -0.0102024 0)
(0.853185 0.284749 0)
(0.0146822 -0.0641465 0)
(0.0443118 -0.0652702 0)
(0.0747695 -0.0674868 0)
(0.10635 -0.0708027 0)
(0.140248 -0.0750575 0)
(0.174056 -0.0816994 0)
(0.217671 -0.0881633 0)
(0.249349 -0.10083 0)
(0.314023 -0.105658 0)
(0.35267 -0.145917 0)
(0.422265 -0.133653 0)
(0.492023 -0.143856 0)
(0.587229 -0.192701 0)
(0.754717 -0.163862 0)
(0.907151 -0.088906 0)
(0.988194 -0.0628132 0)
(1.01759 -0.0517239 0)
(1.03978 -0.0257192 0)
(1.00751 -0.101038 0)
(0.929982 -0.0745003 0)
(0.854947 0.0720606 0)
(0.294819 0.441991 0)
(0.0143881 -0.0778878 0)
(0.0434315 -0.0792626 0)
(0.0733124 -0.081976 0)
(0.104342 -0.0859551 0)
(0.137374 -0.0910936 0)
(0.170717 -0.0990436 0)
(0.21246 -0.106924 0)
(0.24386 -0.122264 0)
(0.307297 -0.129925 0)
(0.34014 -0.169926 0)
(0.413081 -0.164819 0)
(0.496471 -0.153569 0)
(0.639593 -0.100943 0)
(0.765643 -0.147651 0)
(0.855103 -0.155222 0)
(0.899496 -0.130088 0)
(0.992329 -0.0883145 0)
(1.00865 -0.146343 0)
(1.02989 -0.182372 0)
(0.896729 -0.0577582 0)
(0.636716 0.294018 0)
(0.0450259 0.646567 0)
(0.0140212 -0.0911619 0)
(0.0423321 -0.0928069 0)
(0.0715112 -0.0960588 0)
(0.101844 -0.100703 0)
(0.13388 -0.106708 0)
(0.16657 -0.115884 0)
(0.206321 -0.124991 0)
(0.23749 -0.14252 0)
(0.298485 -0.15216 0)
(0.327783 -0.191829 0)
(0.408759 -0.170663 0)
(0.538563 -0.0612879 0)
(0.642286 -0.155375 0)
(0.719999 -0.22587 0)
(0.783193 -0.215885 0)
(0.908069 -0.229731 0)
(0.932148 -0.337887 0)
(0.971192 -0.328764 0)
(0.927458 -0.175742 0)
(0.625282 0.183279 0)
(0.459642 0.466865 0)
(0.0600405 0.70042 0)
(0.0135579 -0.0968696 0)
(0.0409499 -0.0980678 0)
(0.0692923 -0.100247 0)
(0.0987922 -0.103219 0)
(0.129795 -0.107169 0)
(0.161727 -0.115036 0)
(0.199575 -0.124103 0)
(0.230621 -0.143171 0)
(0.289309 -0.154719 0)
(0.31917 -0.19616 0)
(0.435484 -0.103808 0)
(0.521563 -0.117337 0)
(0.635487 -0.212307 0)
(0.655923 -0.292475 0)
(0.783373 -0.356244 0)
(0.782877 -0.441915 0)
(0.774212 -0.423377 0)
(0.731279 -0.330479 0)
(0.562223 0.0683676 0)
(0.443672 0.250917 0)
(0.399698 0.535231 0)
(0.179113 0.841386 0)
(0.0133232 -0.0763236 0)
(0.0405453 -0.0733537 0)
(0.069987 -0.064581 0)
(0.102574 -0.0468241 0)
(0.139308 -0.0172125 0)
(0.176493 0.0060893 0)
(0.215579 -0.00152352 0)
(0.252338 -0.0254998 0)
(0.312727 -0.04949 0)
(0.351136 -0.109322 0)
(0.427754 -0.16628 0)
(0.492326 -0.212831 0)
(0.538684 -0.273171 0)
(0.586013 -0.385449 0)
(0.637041 -0.481715 0)
(0.642025 -0.446334 0)
(0.611035 -0.357743 0)
(0.524816 -0.135339 0)
(0.410136 0.128624 0)
(0.452302 0.252854 0)
(0.419858 0.543616 0)
(0.703306 0.733534 0)
(0.01441 0.0296061 0)
(0.0439012 0.025051 0)
(0.0753056 0.0158566 0)
(0.1069 0.00378581 0)
(0.140243 -0.013056 0)
(0.173721 -0.0416058 0)
(0.209836 -0.0694169 0)
(0.243944 -0.111399 0)
(0.268511 -0.146558 0)
(0.31635 -0.198022 0)
(0.35252 -0.246027 0)
(0.432679 -0.239301 0)
(0.499245 -0.405008 0)
(0.579144 -0.551384 0)
(0.609151 -0.525551 0)
(0.589957 -0.414757 0)
(0.558981 -0.298201 0)
(0.509055 -0.0808682 0)
(0.443848 0.14901 0)
(0.523165 0.196976 0)
(0.570492 0.423349 0)
(0.761982 0.437861 0)
(0.0119562 -0.0770162 0)
(0.0362638 -0.0822481 0)
(0.0625904 -0.091967 0)
(0.0879524 -0.102858 0)
(0.117344 -0.113493 0)
(0.141889 -0.132098 0)
(0.173132 -0.146242 0)
(0.214597 -0.168711 0)
(0.262779 -0.188145 0)
(0.336618 -0.237859 0)
(0.406619 -0.312901 0)
(0.486889 -0.493065 0)
(0.563984 -0.580495 0)
(0.597864 -0.583805 0)
(0.605288 -0.526294 0)
(0.579906 -0.35223 0)
(0.562475 -0.234777 0)
(0.558487 -0.112559 0)
(0.532159 0.106834 0)
(0.599135 0.118342 0)
(0.694998 0.261659 0)
(0.838741 0.222922 0)
(0.0166438 -0.0864875 0)
(0.0495026 -0.0936436 0)
(0.0839743 -0.0994269 0)
(0.120948 -0.111756 0)
(0.166051 -0.120082 0)
(0.214784 -0.157277 0)
(0.27126 -0.20325 0)
(0.33552 -0.277132 0)
(0.402416 -0.363808 0)
(0.459648 -0.456354 0)
(0.514787 -0.489226 0)
(0.551206 -0.540228 0)
(0.577388 -0.581581 0)
(0.589706 -0.580889 0)
(0.591047 -0.510047 0)
(0.560597 -0.32368 0)
(0.550432 -0.211559 0)
(0.569651 -0.131877 0)
(0.577688 0.0568237 0)
(0.62972 0.0543271 0)
(0.737232 0.120011 0)
(0.858222 0.0889172 0)
(0.0267116 -0.288069 0)
(0.0770248 -0.294217 0)
(0.127228 -0.302996 0)
(0.170739 -0.325098 0)
(0.223986 -0.341458 0)
(0.272933 -0.367205 0)
(0.323902 -0.389584 0)
(0.371208 -0.41522 0)
(0.409457 -0.435718 0)
(0.451817 -0.472457 0)
(0.471731 -0.498793 0)
(0.491138 -0.56387 0)
(0.526058 -0.592129 0)
(0.543639 -0.579933 0)
(0.541979 -0.486287 0)
(0.504545 -0.299401 0)
(0.507218 -0.208475 0)
(0.536304 -0.138923 0)
(0.5727 0.00438694 0)
(0.635684 -0.0108753 0)
(0.752565 -0.0101911 0)
(0.842732 -0.0220216 0)
(0.0201611 -0.280188 0)
(0.0615812 -0.282147 0)
(0.104025 -0.289961 0)
(0.147902 -0.301109 0)
(0.189824 -0.316213 0)
(0.233005 -0.338655 0)
(0.271107 -0.366671 0)
(0.308571 -0.400905 0)
(0.336797 -0.439893 0)
(0.373398 -0.488471 0)
(0.399922 -0.515831 0)
(0.431561 -0.585725 0)
(0.470755 -0.612674 0)
(0.488902 -0.591839 0)
(0.480486 -0.468759 0)
(0.443076 -0.300763 0)
(0.453335 -0.231171 0)
(0.491473 -0.133871 0)
(0.55201 -0.055383 0)
(0.626476 -0.0936768 0)
(0.728205 -0.117204 0)
(0.811403 -0.139535 0)
(0.0196645 -0.328195 0)
(0.0591107 -0.334335 0)
(0.0972412 -0.343188 0)
(0.136033 -0.357099 0)
(0.171965 -0.374164 0)
(0.207773 -0.396143 0)
(0.241953 -0.42231 0)
(0.278091 -0.452294 0)
(0.309173 -0.485646 0)
(0.346842 -0.525014 0)
(0.373687 -0.551714 0)
(0.409089 -0.6234 0)
(0.445601 -0.639032 0)
(0.457283 -0.603807 0)
(0.429884 -0.460008 0)
(0.393263 -0.317006 0)
(0.408075 -0.261739 0)
(0.453186 -0.142653 0)
(0.519897 -0.125264 0)
(0.598929 -0.175591 0)
(0.687249 -0.209699 0)
(0.766861 -0.248449 0)
(0.0171221 -0.366875 0)
(0.0510991 -0.371026 0)
(0.0851532 -0.379561 0)
(0.118103 -0.391528 0)
(0.151928 -0.409977 0)
(0.184446 -0.430521 0)
(0.216888 -0.456831 0)
(0.248323 -0.485928 0)
(0.276229 -0.517845 0)
(0.311683 -0.558485 0)
(0.326586 -0.588113 0)
(0.361128 -0.652648 0)
(0.395203 -0.654975 0)
(0.399251 -0.594535 0)
(0.354388 -0.429666 0)
(0.331639 -0.324782 0)
(0.353923 -0.267823 0)
(0.416464 -0.169962 0)
(0.481574 -0.19637 0)
(0.5589 -0.254164 0)
(0.636906 -0.294698 0)
(0.715088 -0.344178 0)
(0.0151062 -0.396823 0)
(0.0453522 -0.401544 0)
(0.0751652 -0.40938 0)
(0.104962 -0.421524 0)
(0.133389 -0.436502 0)
(0.161443 -0.456744 0)
(0.188011 -0.479794 0)
(0.214762 -0.507628 0)
(0.238406 -0.540368 0)
(0.267437 -0.575471 0)
(0.286351 -0.605851 0)
(0.32402 -0.677239 0)
(0.352192 -0.671092 0)
(0.341062 -0.583882 0)
(0.285019 -0.41966 0)
(0.277621 -0.347443 0)
(0.309309 -0.243775 0)
(0.378631 -0.225942 0)
(0.438094 -0.265975 0)
(0.511488 -0.326677 0)
(0.578866 -0.372155 0)
(0.65492 -0.431679 0)
(0.752522 -0.506785 0)
(0.0131491 -0.426295 0)
(0.0393428 -0.430565 0)
(0.0653016 -0.438096 0)
(0.0905209 -0.449357 0)
(0.115407 -0.46544 0)
(0.139488 -0.484849 0)
(0.16305 -0.509089 0)
(0.186049 -0.536769 0)
(0.207415 -0.568332 0)
(0.233107 -0.606136 0)
(0.246076 -0.642093 0)
(0.28234 -0.704843 0)
(0.303203 -0.680136 0)
(0.269811 -0.555961 0)
(0.217721 -0.413565 0)
(0.2236 -0.363376 0)
(0.269882 -0.250846 0)
(0.33679 -0.2855 0)
(0.390295 -0.32977 0)
(0.456913 -0.39112 0)
(0.514243 -0.442775 0)
(0.586949 -0.51265 0)
(0.673679 -0.603593 0)
(0.0111556 -0.449604 0)
(0.0334122 -0.4539 0)
(0.0554428 -0.461159 0)
(0.0772349 -0.472161 0)
(0.0981692 -0.486784 0)
(0.118342 -0.5056 0)
(0.137548 -0.527846 0)
(0.155767 -0.554436 0)
(0.172843 -0.585937 0)
(0.191589 -0.620965 0)
(0.203436 -0.660316 0)
(0.234679 -0.724498 0)
(0.247185 -0.675467 0)
(0.187326 -0.527492 0)
(0.155192 -0.416651 0)
(0.178056 -0.332764 0)
(0.235452 -0.295872 0)
(0.291347 -0.340662 0)
(0.339627 -0.387137 0)
(0.397532 -0.447353 0)
(0.444207 -0.50346 0)
(0.508339 -0.583231 0)
(0.585016 -0.680191 0)
(0.00908282 -0.472005 0)
(0.0271643 -0.476181 0)
(0.0452568 -0.483029 0)
(0.0635625 -0.492915 0)
(0.0812066 -0.506877 0)
(0.0977032 -0.52437 0)
(0.113104 -0.54567 0)
(0.127085 -0.57057 0)
(0.139867 -0.599881 0)
(0.150846 -0.634492 0)
(0.160967 -0.67879 0)
(0.180477 -0.73848 0)
(0.179997 -0.662396 0)
(0.0983838 -0.497861 0)
(0.10022 -0.426912 0)
(0.141788 -0.321937 0)
(0.198007 -0.349244 0)
(0.246202 -0.389582 0)
(0.288056 -0.43498 0)
(0.337836 -0.488798 0)
(0.370986 -0.548615 0)
(0.43041 -0.633645 0)
(0.466561 -0.774577 0)
(0.00767472 -0.483901 0)
(0.0229132 -0.487712 0)
(0.0377976 -0.494237 0)
(0.0520307 -0.504048 0)
(0.0662224 -0.516153 0)
(0.0794619 -0.531612 0)
(0.0915124 -0.550491 0)
(0.101699 -0.573171 0)
(0.109994 -0.600456 0)
(0.111124 -0.633971 0)
(0.11633 -0.680925 0)
(0.100278 -0.740617 0)
(0.087045 -0.638252 0)
(0.0138938 -0.48019 0)
(0.0628926 -0.408268 0)
(0.113859 -0.364535 0)
(0.162081 -0.391832 0)
(0.205732 -0.4251 0)
(0.242824 -0.466281 0)
(0.283673 -0.516705 0)
(0.299281 -0.607841 0)
(0.32733 -0.739247 0)
(0.250527 -0.98149 0)
(0.00677272 -0.495382 0)
(0.0201126 -0.499251 0)
(0.0327274 -0.506033 0)
(0.044031 -0.516875 0)
(0.0544431 -0.532028 0)
(0.0643161 -0.551923 0)
(0.0729444 -0.577652 0)
(0.0792363 -0.609453 0)
(0.0819857 -0.647255 0)
(0.0736469 -0.691683 0)
(0.0663424 -0.742835 0)
(-0.0131881 -0.79255 0)
(-0.0423978 -0.611553 0)
(-0.0286725 -0.48055 0)
(0.0478736 -0.398646 0)
(0.0910008 -0.405896 0)
(0.136306 -0.429515 0)
(0.173848 -0.471356 0)
(0.202235 -0.538134 0)
(0.207797 -0.629504 0)
(0.17673 -0.771716 0)
(0.137698 -0.966208 0)
(-0.0289944 -1.24019 0)
(0.00521056 -0.593087 0)
(0.0150284 -0.598907 0)
(0.0239962 -0.609309 0)
(0.0312255 -0.625076 0)
(0.0361859 -0.646386 0)
(0.0388223 -0.673131 0)
(0.0393509 -0.705275 0)
(0.0374985 -0.7433 0)
(0.0325605 -0.791033 0)
(0.0209669 -0.846241 0)
(-0.00498103 -0.896936 0)
(-0.113575 -0.934102 0)
(-0.105739 -0.670059 0)
(-0.0350074 -0.55138 0)
(0.0396583 -0.524217 0)
(0.0785224 -0.537166 0)
(0.101511 -0.573846 0)
(0.107228 -0.635142 0)
(0.0959044 -0.735641 0)
(0.0592916 -0.868926 0)
(-0.0435926 -1.04099 0)
(-0.163025 -0.440518 0)
(-0.609266 -0.531071 0)
(0.00156933 -0.808566 0)
(0.00329897 -0.818761 0)
(0.00499786 -0.837793 0)
(0.00494192 -0.867602 0)
(0.00314719 -0.910591 0)
(-0.00224836 -0.97278 0)
(-0.012119 -1.06708 0)
(-0.0298864 -1.22513 0)
(-0.0507688 -1.41817 0)
(-0.0641996 -1.57543 0)
(-0.126002 -1.66746 0)
(-0.200796 -1.73626 0)
(-0.10468 -1.08307 0)
(-0.0150353 -0.773899 0)
(0.018238 -0.76275 0)
(0.0289544 -0.785165 0)
(0.0166071 -0.843282 0)
(-0.0364412 -0.932874 0)
(-0.101833 -0.683676 0)
(-0.249212 -0.101616 0)
(-0.410641 -0.303498 0)
(-0.355754 -0.585119 0)
(-0.535656 -0.15147 0)
(0.000764468 -1.33307 0)
(-0.00770478 -1.3663 0)
(-0.0133534 -1.41486 0)
(-0.0188321 -1.47796 0)
(-0.0252477 -1.60197 0)
(-0.0332347 -1.73219 0)
(-0.0616399 -1.9033 0)
(-0.129003 -1.78344 0)
(-0.255779 -1.19306 0)
(-0.250439 -0.845092 0)
(-0.0648563 -0.848641 0)
(0.128055 -0.8676 0)
(0.0459735 -0.80893 0)
(-0.0332138 -0.58739 0)
(-0.152112 -0.379579 0)
(-0.29355 -0.203516 0)
(-0.432653 -0.0929082 0)
(-0.499159 -0.288979 0)
(-0.398363 -0.668702 0)
(-0.223949 -0.773965 0)
(-0.144445 -0.630275 0)
(-0.374924 -0.215584 0)
(-0.71073 0.0861183 0)
(0.00868767 -0.765649 0)
(-0.0424657 -0.769968 0)
(-0.0605405 -0.775715 0)
(-0.0725169 -0.770645 0)
(-0.0788128 -0.762583 0)
(-0.0859834 -0.753879 0)
(-0.0918691 -0.765642 0)
(-0.0920669 -0.743021 0)
(-0.0999295 -0.682731 0)
(-0.133892 -0.63454 0)
(-0.166372 -0.638336 0)
(-0.252374 -0.745992 0)
(-0.368171 -0.715934 0)
(-0.416778 -0.605446 0)
(-0.400824 -0.607522 0)
(-0.35391 -0.663399 0)
)
;

boundaryField
{
    leftWall
    {
        type            fixedValue;
        value           uniform (0 0 0);
    }
    rightWall
    {
        type            fixedValue;
        value           nonuniform 0();
    }
    lowerWall
    {
        type            fixedValue;
        value           uniform (0 0 0);
    }
    atmosphere
    {
        type            fluxCorrectedVelocity;
        value           nonuniform 0();
    }
    defaultFaces
    {
        type            empty;
    }
    procBoundary0to1
    {
        type            processor;
        value           nonuniform List<vector> 
26
(
(0.998976 0.061522 0)
(1.06507 0.693823 0)
(1.11517 0.8619 0)
(1.16414 1.13501 0)
(1.07137 1.4948 0)
(0.595726 1.84539 0)
(0.137865 2.00219 0)
(0.06824 2.09267 0)
(1.0671 1.86725 0)
(1.20529 0.869708 0)
(1.09838 0.41753 0)
(1.05588 0.183108 0)
(1.00704 -0.0280604 0)
(0.955455 -0.188556 0)
(0.896164 -0.307117 0)
(0.825481 -0.406608 0)
(0.825481 -0.406608 0)
(0.817042 -0.575365 0)
(0.737145 -0.670264 0)
(0.635899 -0.766746 0)
(0.477715 -0.931548 0)
(0.271158 -1.08591 0)
(-0.245509 0.205439 0)
(-0.713666 -0.2645 0)
(-0.748846 0.276082 0)
(-0.713062 0.166734 0)
)
;
    }
    procBoundary0to2
    {
        type            processor;
        value           nonuniform List<vector> 
24
(
(-0.274613 -0.692549 0)
(-0.202385 -0.673524 0)
(-0.186568 -0.575162 0)
(-0.256312 -0.380733 0)
(-0.473433 -0.0786062 0)
(-0.712164 0.109492 0)
(-0.737979 0.145617 0)
(-0.00185995 -0.332232 0)
(-0.0061397 -0.337353 0)
(-0.0107115 -0.340336 0)
(-0.022132 -0.347858 0)
(-0.03878 -0.360712 0)
(-0.062914 -0.381171 0)
(-0.0923322 -0.405091 0)
(-0.126006 -0.433753 0)
(-0.163852 -0.46612 0)
(-0.207938 -0.490872 0)
(-0.264896 -0.509037 0)
(-0.334481 -0.522207 0)
(-0.37999 -0.439757 0)
(-0.387474 -0.357617 0)
(-0.356401 -0.326359 0)
(-0.274613 -0.692549 0)
(-0.361988 -0.321994 0)
)
;
    }
}


// ************************************************************************* //
