/*--------------------------------*- C++ -*----------------------------------*\
| =========                 |                                                 |
| \\      /  F ield         | OpenFOAM: The Open Source CFD Toolbox           |
|  \\    /   O peration     | Version:  2.4.0                                 |
|   \\  /    A nd           | Web:      www.OpenFOAM.org                      |
|    \\/     M anipulation  |                                                 |
\*---------------------------------------------------------------------------*/
FoamFile
{
    version     2.0;
    format      ascii;
    class       volScalarField;
    location    "0.6";
    object      alpha.water;
}
// * * * * * * * * * * * * * * * * * * * * * * * * * * * * * * * * * * * * * //

dimensions      [0 0 0 0 0 0 0];

internalField   nonuniform List<scalar> 
559
(
2.25539e-10
3.79798e-10
1.55916e-09
5.97796e-09
1.73336e-08
3.02444e-08
1.03035e-07
1.03037e-07
8.99367e-07
1.52376e-06
2.12803e-06
2.17234e-06
1.9574e-06
1.89604e-06
2.03689e-06
2.15707e-06
2.2961e-06
2.59123e-06
3.2411e-06
5.58572e-06
1.60574e-05
7.34436e-05
0.000409087
0.00119607
0.00137565
0.000649848
0.000579177
3.55537e-07
3.44219e-06
4.54899e-05
1.95684e-05
2.52278e-06
5.35036e-07
3.35172e-07
2.71595e-07
2.76398e-07
3.39083e-07
6.65476e-07
2.03558e-06
9.10544e-06
4.045e-05
0.000328849
0.00173745
0.00331151
0.00187665
0.000896202
4.88233e-07
9.34371e-05
0.00208501
0.000977345
0.000159127
1.00022e-05
4.65696e-07
1.60507e-07
1.59064e-07
1.67151e-07
4.9794e-07
6.31938e-06
5.68871e-05
0.000204475
0.000493687
0.0023177
0.00744495
0.00455704
0.00115747
5.40968e-06
0.00175181
0.0240627
0.0160244
0.00561479
0.000936266
0.000124071
1.56669e-05
2.07089e-06
1.28598e-06
3.2038e-06
3.63075e-05
0.000309288
0.00125424
0.00191836
0.00277325
0.0147738
0.0117079
0.0012907
0.000214915
0.0172842
0.107639
0.108303
0.0705001
0.0304381
0.0126289
0.00255449
0.000209721
2.2451e-05
2.67028e-05
0.000149721
0.00097565
0.00462785
0.0051811
0.00332555
0.0179923
0.0191967
0.00376459
0.00524673
0.0965491
0.240566
0.435035
0.409869
0.269009
0.196771
0.0887193
0.0137656
0.00100647
0.00023678
0.000617061
0.00379252
0.0125846
0.00876652
0.0036211
0.0178892
0.0251319
0.00844632
0.0939965
0.267104
0.526509
0.748674
0.77289
0.682903
0.629564
0.430127
0.135188
0.0302753
0.00248448
0.00327105
0.0185437
0.0190048
0.00649271
0.0030398
0.0158808
0.0252726
0.0116452
0.271388
0.406025
0.732077
0.817877
0.817759
0.778969
0.696241
0.59256
0.35838
0.123884
0.0337929
0.0283136
0.0564417
0.0127807
0.00172293
0.00173162
0.011768
0.0228734
0.0148117
0.025937
0.501426
0.978645
0.918111
0.518302
0.0827509
2.59858e-05
5.82557e-09
0.0403344
0.0494623
0.0705819
0.0991494
0.544663
0.585085
0.638615
0.704064
0.965361
0.951946
0.931654
0.905454
0.850307
0.785419
0.716308
0.646109
0.436682
0.373456
0.300772
0.210288
0.0481773
0.0258866
0.00895545
0.00205133
4.52019e-06
1.4049e-06
3.1529e-07
8.13818e-08
1.90109e-08
8.28141e-09
1.55407e-08
1.32307e-08
4.27144e-11
2.22302e-11
1.45338e-10
4.00352e-10
1.56216e-12
1.04154e-12
1.48425e-12
2.27431e-11
8.14161e-13
6.9729e-13
4.38281e-12
3.96285e-11
3.53468e-13
1.03554e-12
4.00606e-12
1.74673e-11
5.34968e-13
1.62286e-12
4.43733e-12
1.07466e-11
1.96022e-13
4.70332e-13
1.03066e-12
2.08194e-12
2.04352e-14
4.46236e-14
9.40568e-14
1.94171e-13
1.11748e-15
2.74611e-15
7.56661e-15
2.20477e-14
1.41213e-16
3.1496e-16
1.05879e-15
4.18704e-15
0.324939
0.686661
0.81731
0.817528
0.817534
0.802048
0.716654
0.67546
0.560775
0.419005
0.29128
0.257301
0.147836
0.0337044
0.0132218
0.00808422
0.0109266
0.0141889
0.0230736
0.816122
0.811864
0.751637
0.701279
0.679843
0.696724
0.730229
0.729249
0.712591
0.646119
0.541394
0.484687
0.420164
0.365649
0.31142
0.173001
0.0508964
0.0164666
0.0324005
0.819898
0.679407
0.53116
0.406796
0.402819
0.459304
0.508202
0.547288
0.630857
0.657102
0.656993
0.647498
0.631212
0.632533
0.632068
0.506971
0.136697
0.0113495
0.0324046
0.509247
0.310048
0.117247
0.032148
0.0205499
0.0332872
0.0957768
0.256509
0.394316
0.442234
0.48267
0.51518
0.550952
0.600761
0.62661
0.606225
0.107428
0.010026
0.0148353
0.0880492
0.00878474
0.000234163
2.36069e-06
9.83378e-06
8.15823e-05
3.39465e-05
0.000969014
0.0112378
0.0787687
0.164934
0.244099
0.370316
0.429704
0.478596
0.588769
0.138694
0.0149
0.0273499
0.00019931
2.4989e-06
4.59273e-08
7.36258e-09
5.10196e-08
3.12908e-07
4.29845e-07
3.16658e-06
4.73862e-05
0.000562594
0.00279408
0.00949866
0.0648912
0.213586
0.425497
0.484862
0.342933
0.0219746
0.0713518
5.06016e-08
1.29045e-08
8.65937e-09
7.12386e-09
1.90832e-07
2.57377e-06
8.66851e-06
1.18629e-05
1.33366e-05
2.50117e-05
5.78686e-05
7.14678e-05
0.00107547
0.016161
0.165423
0.385839
0.384389
0.169271
0.227302
6.87419e-09
1.77274e-09
2.70214e-09
1.70632e-08
8.03039e-07
7.69181e-06
2.26219e-05
3.36289e-05
3.50374e-05
2.84409e-05
2.89893e-05
2.88022e-05
0.000160062
0.000314225
0.00991802
0.194297
0.347969
0.361892
0.314736
4.72598e-10
1.32394e-09
2.8639e-09
2.56593e-08
1.00734e-06
7.18517e-06
1.39487e-05
1.71851e-05
2.17053e-05
2.72253e-05
5.76089e-05
0.000128793
9.99749e-05
9.81563e-05
0.000178715
0.0208738
0.246297
0.362249
0.303101
3.05102e-10
2.11066e-09
3.97228e-09
1.39043e-08
1.41087e-07
6.337e-07
1.6227e-06
2.35354e-06
4.05038e-06
1.39695e-05
3.41165e-05
0.000190512
0.000417707
0.000262587
0.00017376
0.000676205
0.125446
0.325735
0.279664
3.47354e-10
1.52135e-09
2.65014e-09
3.83262e-09
5.10553e-09
4.35205e-09
1.31829e-08
6.85435e-08
1.75561e-06
2.27697e-05
7.45817e-05
0.000423024
0.000957774
0.000850741
0.000174156
0.000301216
0.0347465
0.245425
0.250549
1.3859e-10
4.45338e-10
9.47157e-10
1.71263e-09
1.27355e-09
7.25114e-10
6.59835e-10
5.49918e-09
1.32608e-06
4.63964e-05
0.000288576
0.000954675
0.00209305
0.0018453
0.000195367
0.000370415
0.0163814
0.186411
0.223302
2.34687e-11
7.09183e-11
1.65096e-10
3.09179e-10
5.11955e-10
7.23755e-10
6.44884e-10
2.44029e-09
9.87813e-07
5.88471e-05
0.000537713
0.00138806
0.00397378
0.00505148
0.00251238
0.00233558
0.0249624
0.168169
0.200457
3.96511e-12
1.12298e-11
2.88352e-11
6.27984e-11
1.23408e-10
2.78189e-10
5.41745e-10
7.78114e-10
3.00456e-07
4.13518e-05
0.000624826
0.00180749
0.0048907
0.0118827
0.0169334
0.0222585
0.0673281
0.156264
0.177197
3.97749e-13
1.32645e-12
4.3239e-12
1.32923e-11
3.8665e-11
1.26421e-10
2.84807e-10
4.36935e-10
2.66949e-08
1.22434e-05
0.000465659
0.00252734
0.00474919
0.0162492
0.0348297
0.0587142
0.0965091
0.136454
0.148724
6.51342e-14
3.36783e-13
1.55019e-12
6.14156e-12
2.10238e-11
6.43187e-11
2.02992e-10
3.12968e-10
1.41337e-09
1.44201e-06
0.000142691
0.00171276
0.00456519
0.0119327
0.0327124
0.0571181
0.0786498
0.0925651
0.100166
1.63742e-14
1.13474e-13
6.60879e-13
3.20319e-12
1.2792e-11
4.23192e-11
1.23649e-10
3.61343e-10
6.28749e-10
4.90328e-09
2.8009e-06
0.000218985
0.00239932
0.00618944
0.0127726
0.0269847
0.032083
0.0298848
0.0332104
)
;

boundaryField
{
    leftWall
    {
        type            zeroGradient;
    }
    rightWall
    {
        type            zeroGradient;
    }
    lowerWall
    {
        type            zeroGradient;
    }
    atmosphere
    {
        type            inletOutlet;
        inletValue      nonuniform 0();
        value           nonuniform 0();
    }
    defaultFaces
    {
        type            empty;
    }
    procBoundary1to0
    {
        type            processor;
        value           nonuniform List<scalar> 
26
(
1.28257e-09
1.98006e-09
5.26378e-09
3.98053e-08
9.37578e-08
2.54164e-07
9.17101e-07
9.02896e-07
0.0304397
0.501652
0.987783
0.96576
0.627976
0.12937
0.000123917
1.94418e-08
6.67938e-11
6.67938e-11
1.95465e-12
1.281e-12
2.4528e-13
1.10478e-13
4.93738e-14
6.32226e-15
4.80798e-16
8.60459e-17
)
;
    }
    procBoundary1to3
    {
        type            processor;
        value           nonuniform List<scalar> 
23
(
3.22724e-17
7.65317e-17
3.22332e-16
1.57812e-15
7.27992e-15
5.77288e-14
3.71931e-13
1.97582e-12
8.54111e-12
2.89967e-11
9.40518e-11
2.34741e-10
7.78849e-10
2.23446e-09
3.25315e-09
7.61496e-07
7.81487e-05
0.00112163
0.00389848
0.00610495
0.00533375
0.00353017
0.00327263
)
;
    }
}


// ************************************************************************* //
