/*--------------------------------*- C++ -*----------------------------------*\
| =========                 |                                                 |
| \\      /  F ield         | OpenFOAM: The Open Source CFD Toolbox           |
|  \\    /   O peration     | Version:  2.4.0                                 |
|   \\  /    A nd           | Web:      www.OpenFOAM.org                      |
|    \\/     M anipulation  |                                                 |
\*---------------------------------------------------------------------------*/
FoamFile
{
    version     2.0;
    format      ascii;
    class       volScalarField;
    location    "0.6";
    object      alpha.air;
}
// * * * * * * * * * * * * * * * * * * * * * * * * * * * * * * * * * * * * * //

dimensions      [0 0 0 0 0 0 0];

internalField   nonuniform List<scalar> 
559
(
5.77651e-16
4.28763e-15
2.19485e-14
4.51969e-14
7.4306e-14
8.32175e-14
1.1401e-13
3.41946e-13
4.2555e-06
4.25552e-06
4.21782e-06
4.11495e-06
6.94464e-06
1.63894e-05
1.66549e-05
2.1488e-05
7.54204e-05
0.000173171
0.000173171
0.000116447
7.73512e-05
6.32421e-05
4.88112e-05
1.17253e-05
1.13547e-05
1.63071e-05
3.06623e-05
5.87401e-05
0.000127588
1.48855e-05
1.11389e-06
1.04578e-06
1.04388e-06
1.04495e-06
1.04407e-06
1.11155e-06
2.76888e-06
0.000104473
0.000339213
0.000340424
0.00027675
0.000228223
0.000915403
0.00111035
0.000254779
3.6609e-05
0.000387309
0.00703736
0.000410087
1.04362e-05
1.31973e-06
1.0451e-06
1.04407e-06
1.04564e-06
1.04537e-06
1.04651e-06
5.97233e-06
0.000217746
0.000341296
0.000342428
0.00102042
0.00165636
0.00166899
0.000282304
7.52042e-05
0.000180314
0.0189544
0.00628211
0.000822919
0.000464793
3.81293e-05
1.7792e-06
1.04537e-06
1.04767e-06
1.04628e-06
1.04721e-06
2.56347e-05
0.0001359
0.000189686
0.000336671
0.00129358
0.00132184
0.00067495
0.000278283
5.23459e-05
0.0148339
0.0348917
0.0205347
0.0269049
0.00559275
0.000193563
2.11004e-06
1.04739e-06
1.04862e-06
1.0469e-06
1.88165e-06
2.86959e-05
7.80503e-05
8.39119e-05
0.000292917
0.00032878
0.000967729
0.000451685
5.33912e-05
0.00344729
0.0461606
0.0963757
0.113888
0.0957417
0.00693422
0.000149846
1.89344e-05
2.57888e-06
1.05103e-06
1.28207e-06
0.000101396
8.39478e-05
9.00989e-05
9.6787e-05
0.000124824
0.000962403
0.000587575
0.00432789
0.00581436
0.00823544
0.0581802
0.113266
0.11497
0.0473348
0.00419253
0.000162301
3.50616e-05
5.67997e-06
1.35002e-05
8.90258e-05
0.075354
0.0109568
0.000399266
0.000131301
0.000748065
0.00202466
0.0316991
0.00554418
0.000699528
0.00693121
0.0605689
0.113324
0.112246
0.020128
0.000483119
3.29906e-05
3.49045e-05
0.000624492
0.012109
0.721779
0.327863
0.00145657
0.000170054
0.00031596
0.00573958
4.68979e-12
8.92365e-09
2.08171e-06
0.000110618
0.0256877
0.346837
0.985009
1
4.0958e-11
3.06869e-10
2.93806e-09
3.60815e-07
5.40508e-08
3.86858e-07
1.08042e-06
2.6851e-06
7.08907e-06
1.20251e-05
1.5215e-05
2.75608e-05
0.000433355
0.000968697
0.00280777
0.00823401
0.0534876
0.0870718
0.158819
0.251423
0.487166
0.598897
0.763639
0.927069
0.998901
0.999893
0.999993
1
1
1
1
1
1
1
1
1
1
1
1
1
1
1
1
1
1
1
1
0.999999
1
0.999999
0.999999
0.999999
0.999999
0.999999
0.999999
0.999999
0.999999
0.999998
0.999998
0.999998
0.999999
0.999997
0.999997
0.999998
0.999998
0.999998
0.999998
0.999998
7.45587e-05
0.000163463
0.00024914
0.00098339
0.00788289
0.0437202
0.113973
0.0610534
0.00522022
6.30254e-05
1.62549e-05
0.00161624
0.346858
0.761552
0.753901
0.126164
0.00215059
0.000607556
0.00804305
6.93389e-05
0.000220003
0.000972637
0.00213449
0.00206873
0.00189673
0.00727295
0.0194661
0.00781329
0.00046496
1.62526e-05
0.000593857
0.21924
0.308351
0.384954
0.323136
0.0207805
0.0260904
0.0508068
0.00055786
0.0110212
0.0630507
0.119928
0.122715
0.064948
0.0146821
0.00862905
0.00430998
0.000546776
1.96933e-05
0.000367168
0.0192289
0.0171678
0.0162917
0.147813
0.266953
0.506825
0.305215
0.055087
0.25457
0.544473
0.809414
0.809529
0.646869
0.31953
0.157742
0.0199248
0.000622534
1.90878e-05
5.34872e-05
0.000428349
0.000202353
0.000201394
0.0763687
0.754248
0.922062
0.692145
0.490099
0.823124
0.986961
0.999545
0.998323
0.990368
0.980997
0.773744
0.460164
0.312528
0.226679
0.147184
0.021496
0.000678381
0.000198957
0.0181529
0.790932
0.924463
0.826179
0.991989
0.999909
0.999995
0.999557
0.995835
0.992064
0.987739
0.986301
0.979776
0.975435
0.958541
0.880957
0.685524
0.216459
0.0138724
0.0156537
0.494557
0.922961
0.716655
1
1
1
0.998506
0.950574
0.826685
0.690265
0.614455
0.606233
0.671139
0.845089
0.976706
0.976598
0.887915
0.318454
0.0202784
0.205104
0.751809
0.396251
1
1
0.999993
0.995722
0.870645
0.402839
0.106174
0.0544237
0.0480011
0.0521997
0.138622
0.65996
0.964294
0.96418
0.829426
0.211658
0.0873461
0.302659
0.0920549
1
0.999999
0.999988
0.994962
0.844783
0.295039
0.023321
0.00141281
0.000651311
0.000268065
0.00106462
0.0709079
0.643276
0.951725
0.947205
0.571629
0.0847448
0.0349125
0.00542415
1
0.999999
0.999998
0.99923
0.967159
0.743369
0.279683
0.0365878
0.00104943
0.000248474
0.000225259
0.00262235
0.157852
0.836369
0.945772
0.901137
0.205349
0.0103567
0.000134767
0.999999
0.999999
0.999999
0.999996
0.999533
0.984741
0.820078
0.322578
0.0285634
0.000659519
0.000225718
0.000374207
0.0325302
0.470621
0.943733
0.941607
0.429729
0.0197294
0.00023153
0.999999
0.999999
0.999999
1
1
0.999893
0.988645
0.80435
0.238317
0.0118057
0.000281811
0.000397239
0.0274339
0.386194
0.941705
0.940019
0.578205
0.0307909
0.00019927
0.999999
0.999999
0.999999
0.999999
1
1
0.999742
0.974443
0.662866
0.0991777
0.0023294
0.000361216
0.0142006
0.248159
0.816951
0.875015
0.415926
0.0160471
0.000106057
0.999999
0.999998
0.999999
0.999999
0.999999
1
0.999998
0.997829
0.895292
0.341349
0.0165205
0.000500881
0.00193637
0.0539616
0.259608
0.351411
0.0886015
0.00260358
5.9658e-05
0.999998
0.999998
0.999998
0.999998
0.999998
1
1
0.999803
0.968885
0.609736
0.0731149
0.00124398
0.000234505
0.0015618
0.0136792
0.0217165
0.00310671
0.000130789
4.97235e-05
0.999998
0.999997
0.999998
0.999998
0.999999
0.999999
1
0.999986
0.993069
0.81563
0.252411
0.0129068
0.000210163
5.65856e-05
6.90036e-05
0.000134976
3.72047e-05
3.57811e-05
3.55953e-05
0.999998
0.999998
0.999997
0.999998
0.999998
1
0.999999
0.999999
0.999836
0.973996
0.692626
0.186235
0.0114825
8.82532e-05
3.49438e-05
3.47901e-05
3.51265e-05
3.61749e-05
3.5812e-05
)
;

boundaryField
{
    leftWall
    {
        type            alphaContactAngle;
        thetaProperties 
6
(

(
water
mercury
)
 90 0 0 0

(
water
air
)
 90 0 0 0

(
water
oil
)
 90 0 0 0

(
mercury
air
)
 90 0 0 0

(
oil
mercury
)
 90 0 0 0

(
oil
air
)
 90 0 0 0
);
        value           nonuniform 0();
    }
    rightWall
    {
        type            alphaContactAngle;
        thetaProperties 
6
(

(
water
mercury
)
 90 0 0 0

(
water
air
)
 90 0 0 0

(
water
oil
)
 90 0 0 0

(
mercury
air
)
 90 0 0 0

(
oil
mercury
)
 90 0 0 0

(
oil
air
)
 90 0 0 0
);
        value           nonuniform List<scalar> 
25
(
3.06623e-05
3.6609e-05
7.52042e-05
0.000278283
0.000451685
0.000587575
0.00202466
0.00573958
0.00804305
0.0508068
0.305215
0.692145
0.826179
0.716655
0.396251
0.0920549
0.00542415
0.000134767
0.00023153
0.00019927
0.000106057
5.9658e-05
4.97235e-05
3.55953e-05
3.5812e-05
)
;
    }
    lowerWall
    {
        type            alphaContactAngle;
        thetaProperties 
6
(

(
water
mercury
)
 90 0 0 0

(
water
air
)
 90 0 0 0

(
water
oil
)
 90 0 0 0

(
mercury
air
)
 90 0 0 0

(
oil
mercury
)
 90 0 0 0

(
oil
air
)
 90 0 0 0
);
        value           nonuniform List<scalar> 
40
(
5.77651e-16
5.77651e-16
4.28763e-15
2.19485e-14
4.51969e-14
7.4306e-14
8.32175e-14
1.1401e-13
3.41946e-13
4.0958e-11
3.06869e-10
2.93806e-09
3.60815e-07
4.2555e-06
5.87401e-05
0.000387309
0.000180314
5.23459e-05
5.33912e-05
0.00432789
0.0316991
4.2555e-06
4.25552e-06
4.21782e-06
4.11495e-06
6.94464e-06
1.63894e-05
1.66549e-05
2.1488e-05
7.54204e-05
0.000173171
0.000173171
0.000116447
7.73512e-05
6.32421e-05
4.88112e-05
1.17253e-05
1.13547e-05
1.63071e-05
3.06623e-05
)
;
    }
    atmosphere
    {
        type            inletOutlet;
        inletValue      nonuniform 0();
        value           nonuniform 0();
    }
    defaultFaces
    {
        type            empty;
    }
    procBoundary1to0
    {
        type            processor;
        value           nonuniform List<scalar> 
26
(
1.99439e-15
1.21851e-14
5.26839e-14
1.37323e-13
2.5062e-13
3.70714e-13
5.47501e-13
1.25403e-12
4.32484e-12
8.88916e-10
2.12934e-07
8.18116e-06
0.00634041
0.206605
0.914751
1
0.999999
0.999999
0.999999
0.999999
0.999999
0.999999
0.999999
0.999999
0.999998
0.999999
)
;
    }
    procBoundary1to3
    {
        type            processor;
        value           nonuniform List<scalar> 
23
(
1
1
0.999999
0.999999
0.999998
0.999997
0.999997
0.999997
0.999998
0.999998
1
0.999999
0.999994
0.999045
0.9864
0.875556
0.459758
0.0717234
0.0107892
0.00112188
0.000214057
0.000640842
0.00101026
)
;
    }
}


// ************************************************************************* //
