/*--------------------------------*- C++ -*----------------------------------*\
| =========                 |                                                 |
| \\      /  F ield         | OpenFOAM: The Open Source CFD Toolbox           |
|  \\    /   O peration     | Version:  2.4.0                                 |
|   \\  /    A nd           | Web:      www.OpenFOAM.org                      |
|    \\/     M anipulation  |                                                 |
\*---------------------------------------------------------------------------*/
FoamFile
{
    version     2.0;
    format      ascii;
    class       volScalarField;
    location    "0.6";
    object      alpha.oil;
}
// * * * * * * * * * * * * * * * * * * * * * * * * * * * * * * * * * * * * * //

dimensions      [0 0 0 0 0 0 0];

internalField   nonuniform List<scalar> 
559
(
1.01365e-05
1.365e-05
1.16176e-05
1.14239e-05
1.17759e-05
1.35067e-05
1.62922e-05
1.83283e-05
0.798899
0.65355
0.56238
0.557993
0.553641
0.549228
0.544787
0.535594
0.497134
0.432471
0.400978
0.399662
0.39829
0.396829
0.395133
0.393072
0.39164
0.390316
0.388983
0.940028
0.875492
0.643316
0.570784
0.611531
0.689769
0.763727
0.785619
0.786139
0.779544
0.7415
0.703091
0.686839
0.649357
0.569765
0.475667
0.437377
0.400913
0.387334
0.954688
0.830369
0.59222
0.552865
0.582729
0.641734
0.697283
0.731584
0.752197
0.7748
0.817792
0.856188
0.842133
0.828646
0.848295
0.840649
0.775635
0.633856
0.385772
0.912291
0.667293
0.440188
0.44226
0.493424
0.568193
0.628002
0.671498
0.704833
0.753049
0.844803
0.884857
0.858692
0.860126
0.915177
0.967069
0.954956
0.818897
0.384176
0.781426
0.492847
0.286342
0.312834
0.419188
0.556056
0.633872
0.683495
0.724242
0.814626
0.887361
0.891092
0.874025
0.888679
0.953313
0.982649
0.973059
0.890187
0.517682
0.571225
0.324886
0.144816
0.142045
0.228969
0.462374
0.661913
0.798288
0.881474
0.895637
0.896872
0.898135
0.899009
0.914437
0.971163
0.984572
0.973483
0.92103
0.623845
0.318676
0.143096
0.0651288
0.0626837
0.0686853
0.169774
0.312019
0.561335
0.857789
0.895432
0.895763
0.897235
0.898418
0.866422
0.967847
0.984663
0.97357
0.936153
0.659254
0.0684833
0.0445123
0.0467227
0.068715
0.0787186
0.104719
0.190439
0.38657
0.640632
0.868301
0.895442
0.895769
0.897208
0.256575
0.65143
0.979313
0.970852
0.945954
0.66389
6.09185e-05
0.00131669
0.00975342
0.0816994
0.456
0.570411
0.0149649
1.39995e-07
7.36623e-05
9.47384e-05
0.000169679
0.00037977
0.0018886
0.00331009
0.00734834
0.0166124
0.0208858
0.0347397
0.0566606
0.0855899
0.149194
0.213555
0.280834
0.345613
0.50982
0.539463
0.5404
0.538283
0.464656
0.375216
0.227406
0.0708809
0.00109475
0.000106981
9.64221e-06
2.23115e-06
1.87597e-07
3.16944e-07
5.97561e-07
4.8658e-07
4.75891e-08
4.10851e-08
5.09193e-08
8.13602e-08
4.3607e-08
4.35583e-08
3.86189e-08
5.212e-08
6.62913e-08
4.48949e-08
3.81587e-08
4.65092e-08
3.33912e-08
2.27916e-08
2.50468e-08
4.24274e-08
1.13361e-08
1.13931e-08
1.92916e-08
4.00726e-08
5.6286e-09
9.02473e-09
1.45057e-08
1.73029e-08
2.98418e-09
4.28048e-09
5.4707e-09
6.96541e-09
1.21889e-09
1.31258e-09
1.63585e-09
1.91078e-09
4.55602e-10
4.3721e-10
4.49359e-10
5.61055e-10
0.00647186
0.0413366
0.104753
0.156806
0.167458
0.153639
0.168714
0.263121
0.433815
0.580463
0.706913
0.739768
0.502017
0.154976
0.177851
0.817869
0.953163
0.953113
0.673638
0.0623665
0.152908
0.242081
0.295951
0.317953
0.30131
0.262442
0.251229
0.279527
0.353351
0.458525
0.514654
0.360519
0.315965
0.231684
0.429862
0.878799
0.929814
0.679834
0.175482
0.308742
0.405594
0.473223
0.474425
0.475707
0.477072
0.444026
0.364768
0.342286
0.342921
0.35207
0.349488
0.349513
0.345698
0.31399
0.5716
0.46634
0.494921
0.43563
0.435362
0.338272
0.158437
0.169919
0.31984
0.584681
0.585699
0.585699
0.557091
0.517266
0.484719
0.448566
0.398971
0.373034
0.315464
0.135978
0.0630474
0.216781
0.421848
0.168092
0.012806
0.000453944
0.00167028
0.00955311
0.0189698
0.225285
0.528592
0.608687
0.608364
0.608686
0.608144
0.569568
0.521155
0.39273
0.0701403
0.0539261
0.112311
0.00781246
8.89424e-05
5.52445e-06
0.000443956
0.00416601
0.0079364
0.0122605
0.0136948
0.0201747
0.0239994
0.0386623
0.109541
0.249575
0.569923
0.560567
0.499419
0.162422
0.0535694
0.186202
1.29623e-06
2.55789e-07
7.92957e-07
0.00149553
0.0494272
0.173311
0.309723
0.385529
0.393747
0.328831
0.154851
0.023223
0.0223274
0.0959228
0.516093
0.593808
0.410397
0.0784356
0.337991
2.78956e-07
2.12434e-07
7.82362e-06
0.00428005
0.129355
0.597153
0.8938
0.945531
0.951943
0.947746
0.861321
0.339999
0.0355479
0.035508
0.160653
0.59395
0.564553
0.335116
0.554231
1.05276e-07
2.18284e-07
1.18886e-05
0.00503945
0.155218
0.704955
0.976661
0.998555
0.999303
0.999677
0.998845
0.928923
0.356597
0.048176
0.0526151
0.407453
0.668768
0.60257
0.660696
8.84642e-08
3.3971e-07
2.39194e-06
0.000771074
0.0328425
0.256633
0.720315
0.9634
0.998926
0.99971
0.999708
0.997142
0.841663
0.163341
0.0540502
0.0981729
0.669002
0.663684
0.698669
1.14404e-07
2.98166e-07
6.14371e-07
4.37468e-06
0.000468857
0.015261
0.179924
0.677419
0.971421
0.999292
0.999666
0.999157
0.966441
0.528445
0.0560857
0.0580858
0.535383
0.734656
0.732749
1.03018e-07
1.67031e-07
2.32969e-07
5.95575e-07
1.08851e-06
0.000108738
0.0113576
0.195652
0.761676
0.988126
0.999395
0.998604
0.970405
0.611878
0.0580905
0.0596029
0.405308
0.782613
0.762325
5.69147e-08
6.26801e-08
9.43419e-08
1.82203e-07
4.57854e-07
1.46501e-06
0.000260511
0.0255608
0.337133
0.900749
0.997101
0.99821
0.981767
0.746699
0.18046
0.122579
0.558968
0.815438
0.786832
2.1459e-08
3.23179e-08
5.77179e-08
1.0602e-07
2.00536e-07
5.5516e-07
4.3788e-06
0.00217434
0.104711
0.658604
0.982827
0.997652
0.993125
0.934079
0.723332
0.626168
0.843865
0.839843
0.812306
8.67842e-09
1.48844e-08
2.19501e-08
4.35677e-08
8.22284e-08
3.22493e-07
1.33158e-06
0.000201167
0.0311187
0.390252
0.926402
0.99619
0.994973
0.982129
0.95139
0.919407
0.899965
0.861186
0.843448
2.70943e-09
4.88889e-09
1.02113e-08
1.89804e-08
4.96843e-08
1.25856e-07
1.06509e-06
1.57612e-05
0.006936
0.184371
0.747439
0.985347
0.995177
0.987957
0.967124
0.94254
0.920705
0.905231
0.894554
8.92118e-10
2.11854e-09
4.19823e-09
1.08483e-08
2.32303e-08
8.00536e-08
2.53779e-07
2.66587e-06
0.000167061
0.026009
0.307372
0.813538
0.986076
0.993654
0.987108
0.972735
0.967283
0.96866
0.964187
)
;

boundaryField
{
    leftWall
    {
        type            zeroGradient;
    }
    rightWall
    {
        type            zeroGradient;
    }
    lowerWall
    {
        type            zeroGradient;
    }
    atmosphere
    {
        type            inletOutlet;
        inletValue      nonuniform 0();
        value           nonuniform 0();
    }
    defaultFaces
    {
        type            empty;
    }
    procBoundary1to0
    {
        type            processor;
        value           nonuniform List<scalar> 
26
(
8.96619e-07
9.67142e-07
4.7541e-07
4.85612e-07
6.00188e-07
1.14657e-06
2.16019e-06
2.15115e-06
0.000216821
0.00151339
0.00300342
0.0341349
0.365673
0.664024
0.0851252
3.91891e-07
6.26076e-08
6.26076e-08
4.33664e-08
6.97799e-08
5.63179e-08
1.27976e-08
4.43401e-09
2.14888e-09
1.20905e-09
6.11911e-10
)
;
    }
    procBoundary1to3
    {
        type            processor;
        value           nonuniform List<scalar> 
23
(
1.6513e-10
1.37259e-10
1.22192e-10
1.28316e-10
2.69754e-10
6.68439e-10
2.09938e-09
5.20162e-09
1.75338e-08
3.69366e-08
1.28729e-07
3.9521e-07
8.88276e-06
0.000958761
0.0136056
0.124446
0.540162
0.927134
0.985251
0.992624
0.994187
0.995393
0.995111
)
;
    }
}


// ************************************************************************* //
