/*--------------------------------*- C++ -*----------------------------------*\
| =========                 |                                                 |
| \\      /  F ield         | OpenFOAM: The Open Source CFD Toolbox           |
|  \\    /   O peration     | Version:  2.4.0                                 |
|   \\  /    A nd           | Web:      www.OpenFOAM.org                      |
|    \\/     M anipulation  |                                                 |
\*---------------------------------------------------------------------------*/
FoamFile
{
    version     2.0;
    format      ascii;
    class       surfaceScalarField;
    location    "0.6";
    object      phi;
}
// * * * * * * * * * * * * * * * * * * * * * * * * * * * * * * * * * * * * * //

dimensions      [0 3 -1 0 0 0 0];

internalField   nonuniform List<scalar> 
1061
(
-1.85318e-06
-3.34465e-06
-2.46581e-06
-1.70214e-06
-1.27465e-06
-2.42022e-06
-4.34448e-06
-6.16767e-06
-2.54117e-05
2.54117e-05
-1.92104e-05
-6.20125e-06
1.2106e-05
-3.13165e-05
3.9956e-05
-2.785e-05
5.68264e-05
-1.68704e-05
6.36442e-05
-6.81779e-06
6.51918e-05
-1.54758e-06
6.55834e-05
-3.91619e-07
6.50437e-05
5.39786e-07
6.23499e-05
2.69378e-06
5.77492e-05
4.6007e-06
5.30695e-05
4.67966e-06
5.24761e-05
5.93478e-07
5.25139e-05
-3.78675e-08
4.89054e-05
3.60851e-06
3.52608e-05
1.36447e-05
1.29196e-05
2.23412e-05
-1.75015e-06
1.46697e-05
-1.75014e-06
-2.03402e-05
4.57518e-05
-7.72209e-06
-1.88193e-05
2.169e-05
-6.07286e-05
4.35193e-05
-4.96793e-05
6.06e-05
-3.39512e-05
7.31626e-05
-1.93804e-05
7.99342e-05
-8.31914e-06
8.31374e-05
-3.5949e-06
8.50397e-05
-1.36251e-06
8.33543e-05
4.37925e-06
7.71171e-05
1.08379e-05
6.89698e-05
1.28269e-05
6.55551e-05
4.00825e-06
6.74483e-05
-1.93115e-06
6.79041e-05
3.1527e-06
5.62649e-05
2.52838e-05
2.53572e-05
5.3249e-05
5.32364e-06
3.47033e-05
3.5735e-06
-8.76684e-06
5.45187e-05
1.34854e-05
-4.10715e-05
2.87588e-05
-7.6002e-05
4.29713e-05
-6.38918e-05
5.42376e-05
-4.52175e-05
6.32031e-05
-2.83459e-05
7.1703e-05
-1.6819e-05
7.7066e-05
-8.9579e-06
8.07839e-05
-5.08037e-06
8.21668e-05
2.99629e-06
7.63297e-05
1.6675e-05
6.77154e-05
2.14412e-05
6.57408e-05
5.98293e-06
6.86217e-05
-4.81212e-06
6.43498e-05
7.4246e-06
4.94964e-05
4.01373e-05
1.9376e-05
8.33694e-05
-7.08218e-06
6.11615e-05
-3.50867e-06
9.57237e-06
4.49463e-05
2.86518e-05
-6.0151e-05
3.60189e-05
-8.33691e-05
4.25373e-05
-7.04102e-05
4.89122e-05
-5.15923e-05
5.43794e-05
-3.38131e-05
6.11997e-05
-2.36393e-05
6.56147e-05
-1.33729e-05
6.88348e-05
-8.30049e-06
6.89416e-05
2.88944e-06
6.56263e-05
1.99904e-05
6.2491e-05
2.45765e-05
6.22763e-05
6.1976e-06
6.29756e-05
-5.51149e-06
5.54496e-05
1.49506e-05
3.22798e-05
6.33071e-05
3.58711e-07
0.00011529
-1.45259e-05
7.60461e-05
-1.80345e-05
2.69746e-05
1.79717e-05
3.60298e-05
-6.92062e-05
4.03545e-05
-8.76937e-05
4.23033e-05
-7.23591e-05
4.63977e-05
-5.56867e-05
4.82851e-05
-3.57005e-05
5.32046e-05
-2.85588e-05
5.60517e-05
-1.62201e-05
5.73781e-05
-9.62684e-06
5.38777e-05
6.38984e-06
5.4189e-05
1.96791e-05
5.69472e-05
2.18183e-05
6.00565e-05
3.08825e-06
5.82933e-05
-3.74826e-06
4.51283e-05
2.81156e-05
1.92667e-05
8.91688e-05
-5.72449e-06
0.000140282
-1.41186e-05
8.44402e-05
-3.21531e-05
3.20192e-05
-1.40475e-05
3.9233e-05
-7.64201e-05
4.38262e-05
-9.22869e-05
4.65876e-05
-7.51205e-05
5.00443e-05
-5.91434e-05
5.32679e-05
-3.89241e-05
5.63e-05
-3.15909e-05
5.31997e-05
-1.31197e-05
4.65388e-05
-2.96599e-06
4.37629e-05
9.1658e-06
4.85473e-05
1.48948e-05
5.56183e-05
1.47473e-05
5.88791e-05
-1.72581e-07
4.72439e-05
7.88696e-06
3.42704e-05
4.10891e-05
1.29551e-05
0.000110484
-5.70829e-06
0.000158945
-1.07641e-05
8.94961e-05
-4.29173e-05
3.09674e-05
-4.50149e-05
4.08228e-05
-8.62754e-05
4.41386e-05
-9.56027e-05
5.08131e-05
-8.1795e-05
5.34389e-05
-6.17693e-05
5.65168e-05
-4.2002e-05
5.56865e-05
-3.07606e-05
5.24197e-05
-9.85294e-06
4.14951e-05
7.9586e-06
3.63678e-05
1.42931e-05
4.21384e-05
9.12414e-06
5.15969e-05
5.28877e-06
5.57856e-05
-4.36129e-06
3.49716e-05
2.87009e-05
2.30716e-05
5.29891e-05
9.54194e-06
0.000124014
-4.06477e-06
0.000172552
-8.94445e-06
9.43757e-05
-5.18617e-05
3.16295e-05
-7.66444e-05
4.06478e-05
-9.52938e-05
4.18065e-05
-9.67614e-05
4.57605e-05
-8.5749e-05
4.80502e-05
-6.40589e-05
4.93688e-05
-4.33207e-05
4.67801e-05
-2.81719e-05
4.91307e-05
-1.22035e-05
4.54964e-05
1.15929e-05
4.13461e-05
1.84434e-05
4.33605e-05
7.10981e-06
4.58836e-05
2.76567e-06
2.76672e-05
1.38551e-05
-9.17678e-06
6.55449e-05
2.98143e-06
4.08309e-05
9.93601e-06
0.000117059
1.73987e-06
0.000180748
-3.36371e-06
9.94793e-05
-5.52254e-05
-2.25421e-05
1.70436e-05
-3.83547e-05
2.42515e-05
-4.74194e-05
9.37253e-05
-5.41506e-05
0.000106979
-5.94695e-05
8.13535e-05
-6.49004e-05
4.85208e-05
-5.9969e-05
-1.55635e-05
-1.54719e-05
2.93823e-05
-1.23387e-05
4.13439e-05
-1.19615e-05
5.66465e-05
-1.53026e-05
-1.74421e-05
7.40886e-05
3.40658e-05
-2.2153e-05
4.74795e-05
-2.53753e-05
6.11833e-05
-2.90065e-05
-3.24622e-05
7.62034e-05
9.96539e-05
-2.80816e-05
0.000105733
-3.14542e-05
0.000111477
-3.47506e-05
-3.79299e-05
0.000116945
0.000109695
-3.07976e-05
0.000112993
-3.47521e-05
0.000116283
-3.80413e-05
-4.11955e-05
0.000119549
8.34921e-05
-3.29362e-05
8.57169e-05
-3.69769e-05
8.64554e-05
-3.87798e-05
-4.09914e-05
8.62513e-05
5.27422e-05
-3.71577e-05
6.88215e-05
-5.30562e-05
7.05454e-05
-4.05034e-05
-2.19938e-05
5.1548e-05
-3.02175e-05
-2.2504e-05
-5.7323e-05
-2.59506e-05
-6.61202e-05
-3.17062e-05
-3.73373e-05
-5.07765e-05
9.2513e-07
-3.89014e-05
1.50649e-05
-4.00907e-05
2.40273e-05
-4.06686e-05
-4.02918e-05
2.69819e-05
4.9613e-05
-3.02614e-05
4.06032e-05
-3.10809e-05
3.1305e-05
-3.13707e-05
-3.0316e-05
2.13292e-05
1.18451e-05
-2.39868e-05
5.08951e-06
-2.4326e-05
-2.5008e-06
-2.37804e-05
-2.25918e-05
-1.02253e-05
2.66997e-06
-1.69924e-05
-4.47424e-06
-1.71817e-05
-1.13798e-05
-1.68753e-05
-1.63126e-05
-1.76592e-05
-1.16694e-05
-1.40338e-05
-1.45786e-05
-1.42732e-05
-1.75537e-05
-1.39004e-05
-1.34757e-05
-2.0391e-05
-1.90138e-05
-1.29939e-05
-2.02075e-05
-1.30795e-05
-2.13831e-05
-1.27253e-05
-1.25374e-05
-2.23217e-05
-1.79297e-05
-1.18473e-05
-1.92463e-05
-1.17634e-05
-2.03584e-05
-1.16134e-05
-1.15019e-05
-2.13944e-05
-1.84733e-05
-1.08459e-05
-1.93763e-05
-1.08604e-05
-2.00447e-05
-1.09456e-05
-1.09774e-05
-2.05695e-05
-1.71512e-05
-1.0164e-05
-1.78533e-05
-1.0159e-05
-1.85898e-05
-1.02094e-05
-1.01945e-05
-1.93731e-05
-1.68135e-05
-1.72316e-05
-1.77844e-05
-1.84345e-05
7.75934e-05
-8.01491e-05
8.86508e-05
-0.000106351
9.09419e-05
-9.90525e-05
8.97349e-05
-8.45419e-05
9.06913e-05
-6.50153e-05
9.15286e-05
-4.4158e-05
8.85479e-05
-2.51912e-05
8.61766e-05
-9.83218e-06
9.33866e-05
4.38293e-06
9.14364e-05
2.03936e-05
6.0287e-05
3.82592e-05
1.95863e-05
4.34663e-05
-2.23971e-05
5.58385e-05
-2.35502e-05
6.6698e-05
-1.65738e-05
3.38544e-05
4.20996e-05
5.83857e-05
5.83941e-05
0.000164453
2.49571e-05
0.000132916
-3.02684e-05
9.22653e-05
-9.62111e-05
9.83054e-05
-0.000112391
0.00010289
-0.000103637
9.9748e-05
-8.14004e-05
9.5357e-05
-6.06243e-05
9.04249e-05
-3.9226e-05
8.72169e-05
-2.19831e-05
7.95097e-05
-2.12501e-06
7.17272e-05
1.21655e-05
6.70862e-05
2.50346e-05
6.57028e-05
3.96427e-05
5.974e-05
4.94291e-05
4.90304e-05
6.65482e-05
5.7573e-05
5.81552e-05
6.63119e-05
2.51155e-05
8.52163e-05
3.94813e-05
0.000102731
0.000146938
4.88871e-05
0.000186761
1.86187e-05
0.000123412
-0.000102679
0.000129482
-0.000118461
0.00013962
-0.000113774
0.000138469
-8.02489e-05
0.000128093
-5.02488e-05
0.000106595
-1.77274e-05
0.000100291
-1.56792e-05
9.74905e-05
6.75096e-07
9.78841e-05
1.17718e-05
9.3294e-05
2.96248e-05
9.0722e-05
4.22147e-05
9.02751e-05
4.9876e-05
9.64297e-05
6.03935e-05
0.000100132
5.44534e-05
8.63897e-05
3.88573e-05
0.000100073
2.57976e-05
0.000107613
0.000139398
4.76847e-05
0.000246689
6.63035e-05
0.000122673
-0.000105802
0.000125653
-0.000121441
0.000144648
-0.00013277
0.000146904
-8.25047e-05
0.000143469
-4.68138e-05
0.000107635
1.81068e-05
0.000102854
-1.08987e-05
9.86733e-05
4.85609e-06
0.000107419
3.02609e-06
0.000108385
2.86585e-05
0.000108295
4.23055e-05
0.000107686
5.04847e-05
0.000102313
6.57665e-05
9.37535e-05
6.30128e-05
7.81225e-05
5.44884e-05
5.88313e-05
4.50888e-05
5.59981e-05
0.000142232
8.95128e-06
0.000293737
7.52548e-05
9.61009e-05
-0.000115652
0.000107343
-0.000132683
9.06138e-05
-0.00011604
0.00013484
-0.000126731
0.00020679
-0.000118763
0.000198233
2.66618e-05
0.000104874
8.24598e-05
8.2458e-05
2.72711e-05
0.000105066
-1.95821e-05
0.000112066
2.1658e-05
0.000115165
3.92064e-05
0.000118765
4.68855e-05
9.04715e-05
9.40598e-05
8.01006e-05
7.33837e-05
6.67559e-05
6.78331e-05
2.84738e-05
8.33709e-05
2.04179e-05
0.000150288
9.25321e-06
0.000304901
8.4508e-05
1.42384e-05
-7.83419e-05
-1.1635e-05
-0.000106809
-8.85381e-07
-0.00012679
4.8819e-05
-0.000176435
0.000137983
-0.000207928
0.000314376
-0.000149732
0.000502952
-0.000106117
0.000602608
-7.23859e-05
0.000647126
-6.41012e-05
0.000641562
2.72234e-05
0.000480596
0.000200172
0.000220687
0.000306796
0.00011041
0.000204337
6.82758e-05
0.000115518
4.93848e-05
8.67241e-05
2.65383e-05
0.000106217
1.57907e-05
0.000161035
1.91548e-05
0.000301537
0.000103663
-1.62924e-05
-0.000112826
-5.32733e-06
-0.000117774
-9.24334e-06
-0.000122873
-3.87053e-05
-0.000146973
-8.2107e-05
-0.000164526
-9.61158e-05
-0.000135724
-8.60603e-05
-0.000116173
-4.40002e-05
-0.000114446
-8.77666e-06
-9.93245e-05
9.50929e-05
-7.66461e-05
0.000326119
-3.08533e-05
0.00049195
0.000140965
0.000292345
0.000403942
8.55547e-05
0.000322309
3.41152e-05
0.000138164
1.89846e-05
0.000121348
3.08872e-06
0.000176931
5.36441e-05
0.000250982
0.000157307
1.00832e-05
-9.59269e-05
-2.18647e-05
-8.5826e-05
-7.11165e-05
-7.36217e-05
-0.000136651
-8.14393e-05
-0.000144547
-0.000156631
-0.00012853
-0.000151741
-0.000110637
-0.000134066
-9.58505e-05
-0.000129232
-7.55968e-05
-0.000119578
-5.24271e-05
-9.98158e-05
-1.39309e-05
-6.93495e-05
0.000135204
-8.16907e-06
0.000338618
0.000200528
0.00019695
0.000463977
2.58971e-05
0.000309217
1.41287e-05
0.000133116
1.5902e-05
0.000175158
4.12023e-05
0.000225681
0.000198509
-8.97038e-06
-6.56275e-05
-4.4844e-05
-4.99525e-05
-8.12476e-05
-3.72185e-05
-0.000119993
-4.26938e-05
-0.000140305
-0.000136319
-0.000137045
-0.000155001
-0.000126419
-0.000144692
-0.00011205
-0.000143601
-9.47405e-05
-0.000136888
-7.4499e-05
-0.000120057
-5.54119e-05
-8.84366e-05
-2.69129e-05
-3.6668e-05
0.000118433
5.51825e-05
0.000253405
0.000329005
0.000116781
0.000445841
1.68107e-05
0.000233087
2.19656e-05
0.000170003
2.6884e-05
0.000220763
0.000225393
-3.00395e-05
-4.58135e-05
-4.57466e-05
-3.42455e-05
-6.15259e-05
-2.14394e-05
-8.71697e-05
-1.70503e-05
-0.000147681
-7.58072e-05
-0.000149075
-0.000153607
-0.000127824
-0.000165942
-0.00011682
-0.000154606
-0.000107116
-0.000146592
-9.4323e-05
-0.00013285
-7.57473e-05
-0.000107012
-5.62786e-05
-5.61368e-05
-2.84097e-05
2.73136e-05
0.000115159
0.000185437
0.000125644
0.000435355
3.27204e-05
0.000326011
3.13848e-05
0.000171339
2.04674e-05
0.00023168
0.00024586
-2.89938e-05
-3.44791e-05
-3.42723e-05
-2.89674e-05
-3.39154e-05
-2.17966e-05
-3.26017e-05
-1.83642e-05
-7.19972e-05
-3.64116e-05
-0.000140506
-8.50977e-05
-0.00014282
-0.000163629
-0.000123024
-0.000174401
-0.000120682
-0.000148934
-0.000113881
-0.000139651
-0.000102117
-0.000118777
-8.42414e-05
-7.40122e-05
-6.70895e-05
1.01617e-05
-3.87461e-06
0.000122222
3.74427e-05
0.000394038
3.93534e-05
0.0003241
3.04479e-05
0.000180244
1.99154e-05
0.000242213
0.000265776
-2.56146e-05
-2.92557e-05
-2.69667e-05
-2.76157e-05
-2.3566e-05
-2.51975e-05
-1.75804e-05
-2.43499e-05
-2.18891e-05
-3.21029e-05
-5.55175e-05
-5.14689e-05
-0.000122237
-9.69089e-05
-0.000127605
-0.000169033
-0.00012559
-0.000150949
-0.000129426
-0.000135815
-0.000127398
-0.000120805
-0.000116299
-8.51111e-05
-9.92105e-05
-6.92683e-06
-9.02002e-05
0.000113211
-4.02382e-05
0.000344076
2.39502e-05
0.000259912
2.49413e-05
0.000179253
1.59712e-05
0.000251183
0.000281747
-2.3709e-05
-2.78687e-05
-2.40006e-05
-2.73244e-05
-2.27994e-05
-2.6399e-05
-2.01738e-05
-2.69756e-05
-2.02208e-05
-3.20558e-05
-3.05184e-05
-4.11709e-05
-6.36357e-05
-6.37912e-05
-0.0001236
-0.000109068
-0.000119644
-0.000154905
-0.000138939
-0.00011652
-0.000149821
-0.000109922
-0.000147928
-8.70048e-05
-0.00013224
-2.26145e-05
-0.000117093
9.80642e-05
-1.64296e-05
0.000243413
3.1622e-05
0.00021186
1.1827e-05
0.000199048
3.62521e-06
0.000259385
0.000285372
-2.28755e-05
-2.63879e-05
-2.39153e-05
-2.62849e-05
-2.46965e-05
-2.56179e-05
-2.49163e-05
-2.67559e-05
-2.64542e-05
-3.05178e-05
-3.19666e-05
-3.56583e-05
-5.32339e-05
-4.25236e-05
-9.89585e-05
-6.33434e-05
-0.000132206
-0.000121658
-0.000145892
-0.000102834
-0.000167591
-8.82234e-05
-0.000179199
-7.53966e-05
-0.000168468
-3.33451e-05
-0.000128582
5.81778e-05
-5.0807e-05
0.000165638
-2.23332e-05
0.000183386
-2.75494e-05
0.000204264
-2.06024e-05
0.000252438
0.00026477
-2.16371e-05
-2.53208e-05
-2.27032e-05
-2.52189e-05
-2.42566e-05
-2.40648e-05
-2.67561e-05
-2.42564e-05
-3.1813e-05
-2.5461e-05
-4.05482e-05
-2.69229e-05
-5.41758e-05
-2.88957e-05
-8.52992e-05
-3.22199e-05
-0.000148672
-5.82849e-05
-0.000159897
-9.16086e-05
-0.000184533
-6.35879e-05
-0.000207006
-5.29232e-05
-0.000212931
-2.74208e-05
-0.000184035
2.92819e-05
-0.00013268
0.000114283
-0.0001131
0.000163807
-9.72583e-05
0.000188422
-5.23418e-05
0.000207521
0.000212428
-2.12998e-05
-2.33942e-05
-2.34492e-05
-2.30698e-05
-2.56598e-05
-2.18541e-05
-2.856e-05
-2.13564e-05
-3.37833e-05
-2.02375e-05
-4.32442e-05
-1.74619e-05
-6.005e-05
-1.20897e-05
-9.40437e-05
1.77405e-06
-0.000165013
1.26844e-05
-0.000194107
-6.2515e-05
-0.000201628
-5.60664e-05
-0.00021903
-3.55214e-05
-0.000233345
-1.31062e-05
-0.000227594
2.35317e-05
-0.00019751
8.41991e-05
-0.00017185
0.000138147
-0.000138106
0.000154678
-6.63374e-05
0.000135753
0.000146091
-1.97873e-05
-2.15776e-05
-2.35824e-05
-2.66069e-05
-3.11131e-05
-3.7825e-05
-4.73758e-05
-6.13843e-05
-0.000101037
-0.000200753
-0.000218129
-0.000214057
-0.000220084
-0.000226809
-0.000213664
-0.000184868
-0.000142257
-7.44635e-05
)
;

boundaryField
{
    leftWall
    {
        type            calculated;
        value           nonuniform 0();
    }
    rightWall
    {
        type            calculated;
        value           uniform 0;
    }
    lowerWall
    {
        type            calculated;
        value           nonuniform List<scalar> 
40
(
-2.44787e-22
0
0
0
0
0
0
0
0
-6.14725e-23
-1.62529e-22
-1.54636e-22
-4.25779e-23
0
0
0
0
0
0
0
0
-3.2911e-22
-2.12628e-22
4.33595e-22
8.57176e-22
9.09382e-23
5.60864e-22
2.76601e-22
-8.23853e-23
5.35858e-22
3.43487e-22
-1.05259e-22
4.15141e-23
3.5194e-22
-5.26345e-22
5.02241e-22
-5.83358e-22
-4.75536e-22
4.65128e-24
-4.59525e-22
)
;
    }
    atmosphere
    {
        type            calculated;
        value           nonuniform 0();
    }
    defaultFaces
    {
        type            empty;
        value           nonuniform 0();
    }
    procBoundary1to0
    {
        type            processor;
        value           nonuniform List<scalar> 
26
(
1.85317e-06
1.49147e-06
-8.78842e-07
-7.63675e-07
-4.27494e-07
1.14557e-06
1.92426e-06
1.82319e-06
-6.69143e-07
-8.4389e-06
-8.46605e-05
-0.000100248
-7.60347e-05
-4.30898e-05
1.06317e-05
3.28429e-05
-7.73403e-05
-5.82534e-05
-1.81204e-05
-9.6648e-06
8.71023e-06
1.79736e-05
1.67826e-05
1.74716e-05
1.64689e-05
1.63499e-05
)
;
    }
    procBoundary1to3
    {
        type            processor;
        value           nonuniform List<scalar> 
23
(
-9.70124e-06
-9.74098e-06
-9.65681e-06
-9.54447e-06
-2.20415e-05
-2.12792e-05
-1.98493e-05
-1.83316e-05
-1.57311e-05
-1.07498e-05
-2.53869e-06
1.57826e-05
5.2337e-05
3.72012e-05
-3.869e-05
-3.95935e-05
-7.07965e-06
3.02567e-05
7.1054e-05
0.000109351
0.000112067
6.79592e-05
7.1627e-05
)
;
    }
}


// ************************************************************************* //
