/*--------------------------------*- C++ -*----------------------------------*\
| =========                 |                                                 |
| \\      /  F ield         | OpenFOAM: The Open Source CFD Toolbox           |
|  \\    /   O peration     | Version:  2.4.0                                 |
|   \\  /    A nd           | Web:      www.OpenFOAM.org                      |
|    \\/     M anipulation  |                                                 |
\*---------------------------------------------------------------------------*/
FoamFile
{
    version     2.0;
    format      ascii;
    class       surfaceScalarField;
    location    "0.6";
    object      phi.air;
}
// * * * * * * * * * * * * * * * * * * * * * * * * * * * * * * * * * * * * * //

dimensions      [0 3 -1 0 0 0 0];

internalField   nonuniform List<scalar> 
1061
(
-1.85297e-06
-3.34411e-06
-2.46473e-06
-1.70136e-06
-1.27277e-06
-2.41845e-06
-4.34265e-06
-5.94835e-06
-1.7476e-05
-2.4017e-05
-9.4147e-06
-4.30025e-05
1.49473e-05
-6.14119e-05
3.74227e-05
-5.52428e-05
5.27092e-05
-4.48813e-05
6.01486e-05
-3.65589e-05
6.31724e-05
-3.45226e-05
6.51158e-05
-3.38095e-05
6.55323e-05
-2.75673e-05
6.24367e-05
-1.50728e-05
5.77248e-05
-1.33657e-06
5.31726e-05
1.37876e-05
5.2815e-05
9.9171e-06
5.30132e-05
6.45193e-06
5.01804e-05
2.77018e-06
3.7548e-05
5.80204e-05
1.36549e-05
8.04129e-05
-6.11133e-07
2.54697e-05
-6.01489e-06
-6.56313e-06
-9.64334e-07
4.86354e-06
2.28907e-06
2.49772e-05
-7.11503e-05
4.08197e-05
-7.78712e-05
5.45369e-05
-6.31795e-05
6.53684e-05
-5.05508e-05
7.25709e-05
-4.32164e-05
7.67655e-05
-3.97928e-05
7.95337e-05
-3.89407e-05
8.0161e-05
-3.47847e-05
7.63042e-05
-2.56636e-05
6.86952e-05
-1.22784e-05
6.52085e-05
-1.46306e-05
6.74425e-05
-1.87045e-05
6.71085e-05
1.2437e-05
5.21724e-05
6.72445e-05
1.94216e-05
0.000103844
2.85956e-06
4.06978e-05
4.59313e-08
-1.32476e-05
2.08831e-05
-9.93103e-06
2.4588e-05
2.94629e-05
-2.2367e-05
4.06053e-05
-4.2119e-05
4.95558e-05
-4.22139e-05
5.8128e-05
-5.80767e-05
6.61204e-05
-4.58455e-05
7.15793e-05
-3.8922e-05
7.51263e-05
-3.61294e-05
7.64938e-05
-3.09779e-05
7.35008e-05
-2.51596e-05
6.63402e-05
-1.71011e-05
6.35891e-05
-2.2612e-05
6.59756e-05
-3.49051e-05
5.95386e-05
-1.45193e-05
3.86949e-05
3.42965e-05
8.17439e-06
8.93107e-05
-7.28606e-06
5.48674e-05
5.86886e-06
1.86024e-05
1.3658e-05
2.61236e-05
-7.57261e-06
3.57063e-05
-2.22858e-05
4.45805e-05
-4.12675e-06
4.85009e-05
1.48245e-05
5.14746e-05
2.01971e-05
5.81462e-05
-5.22157e-05
6.23334e-05
-4.51157e-05
6.47211e-05
-4.03353e-05
6.42337e-05
-3.40291e-05
6.226e-05
-2.36124e-05
5.97649e-05
-2.38304e-05
5.82961e-05
-3.60187e-05
5.66497e-05
-5.09006e-05
4.47928e-05
-4.53669e-05
1.41497e-05
2.42159e-05
3.98187e-06
7.4848e-05
-1.66283e-05
6.53475e-05
-6.04124e-07
3.2449e-05
-1.47432e-05
4.04162e-05
-1.36026e-05
4.49056e-05
-2.47569e-05
4.51425e-05
3.10821e-05
5.00855e-05
6.70329e-05
4.93885e-05
0.000140067
5.11821e-05
0.000104609
5.38956e-05
-5.85352e-05
5.46676e-05
-5.44921e-05
5.22884e-05
-3.80945e-05
5.35927e-05
-2.64931e-05
5.58205e-05
-2.65156e-05
5.58972e-05
-4.14837e-05
5.34431e-05
-7.42591e-05
4.14043e-05
-4.75695e-05
1.7335e-05
2.42977e-05
1.65888e-05
8.85339e-05
-1.63056e-05
5.96876e-05
-1.94333e-05
3.4903e-05
3.31886e-05
4.73666e-05
-2.01027e-05
5.268e-05
-4.24881e-05
5.33423e-05
-1.43723e-05
5.54153e-05
6.99858e-06
6.06136e-05
3.97845e-05
5.95198e-05
8.82341e-05
5.18618e-05
-2.25705e-05
4.67038e-05
-7.1862e-05
4.52891e-05
-4.02422e-05
4.90243e-05
-3.26509e-05
5.391e-05
-3.52116e-05
5.28173e-05
-5.73623e-05
4.23071e-05
0.000158366
3.43659e-05
0.000102875
1.91557e-05
3.94483e-05
2.56699e-05
0.000102108
-6.46973e-06
5.25363e-05
-1.18981e-05
3.07799e-05
4.40506e-05
5.18732e-05
-2.02333e-05
5.75037e-05
-5.11093e-05
6.32618e-05
1.14168e-05
6.27491e-05
1.73456e-05
6.28161e-05
2.8353e-05
5.82033e-05
3.55945e-05
6.49612e-05
5.51392e-05
4.49762e-05
-3.04436e-05
3.89487e-05
-4.44613e-05
4.44888e-05
-4.05976e-05
4.9026e-05
-2.85621e-05
6.85446e-05
7.83523e-05
1.05729e-05
9.60463e-05
-4.96885e-06
0.000151621
1.41428e-05
4.95987e-05
2.77717e-05
0.000107045
-9.55469e-06
4.35684e-05
-4.56533e-06
2.63643e-05
-6.2121e-05
4.43962e-05
-6.05472e-05
4.54189e-05
-0.000108479
4.87245e-05
-2.86277e-05
5.37227e-05
2.52868e-05
5.21494e-05
2.83143e-05
4.40564e-05
4.70341e-05
4.82056e-05
8.45289e-05
5.1138e-05
9.98829e-05
4.56918e-05
-2.31847e-05
4.50211e-05
-5.20416e-05
4.38538e-05
-4.15645e-05
1.23935e-05
0.000116561
-3.2849e-05
9.88007e-05
-4.13752e-05
7.64025e-05
1.38268e-05
0.00017542
2.73622e-05
0.000118885
-1.23318e-05
3.84871e-05
-2.23188e-05
-2.54719e-05
1.70611e-05
-5.66553e-05
2.20913e-05
-4.90171e-05
9.44074e-05
9.5481e-06
0.000112044
4.65748e-06
9.74378e-05
-3.15633e-05
5.45174e-05
-5.98632e-05
-1.57095e-05
-1.54719e-05
2.94011e-05
-1.41103e-05
4.13227e-05
-1.39553e-05
5.63251e-05
-1.76693e-05
-2.07377e-05
7.75654e-05
3.12689e-05
-3.07737e-05
4.32126e-05
-3.45389e-05
5.48658e-05
-3.92297e-05
-4.34875e-05
6.84144e-05
0.000100234
-2.65101e-05
0.000105963
-2.56685e-05
0.00011137
-2.03841e-05
-1.72359e-05
0.000120584
0.000121329
5.06992e-07
0.000132471
-3.46388e-06
0.000141991
-5.41898e-06
-8.57729e-06
0.000148503
0.000100289
-3.45228e-06
0.000106362
-9.13913e-06
0.000102668
-1.38773e-05
-2.3087e-05
0.000101425
6.0458e-05
-2.24571e-05
8.05742e-05
-4.12135e-05
7.5502e-05
-3.47793e-05
-2.09693e-05
5.22046e-05
-3.02476e-05
-2.24888e-05
-5.73274e-05
-2.59482e-05
-6.61204e-05
-3.1706e-05
-3.73372e-05
-5.07764e-05
9.25129e-07
-3.89014e-05
1.50648e-05
-4.00907e-05
2.40273e-05
-4.06686e-05
-4.02918e-05
2.69819e-05
4.9613e-05
-3.02614e-05
4.06032e-05
-3.10809e-05
3.1305e-05
-3.13707e-05
-3.0316e-05
2.13292e-05
1.18451e-05
-2.39868e-05
5.08951e-06
-2.4326e-05
-2.5008e-06
-2.37804e-05
-2.25918e-05
-1.02253e-05
2.66997e-06
-1.69924e-05
-4.47424e-06
-1.71817e-05
-1.13798e-05
-1.68753e-05
-1.63127e-05
-1.76592e-05
-1.16694e-05
-1.40338e-05
-1.45786e-05
-1.42732e-05
-1.75537e-05
-1.39004e-05
-1.34757e-05
-2.0391e-05
-1.90138e-05
-1.29939e-05
-2.02075e-05
-1.30795e-05
-2.13832e-05
-1.27253e-05
-1.25375e-05
-2.23217e-05
-1.79297e-05
-1.18473e-05
-1.92464e-05
-1.17635e-05
-2.03584e-05
-1.16135e-05
-1.15019e-05
-2.13944e-05
-1.84733e-05
-1.08459e-05
-1.93764e-05
-1.08604e-05
-2.00448e-05
-1.09456e-05
-1.09774e-05
-2.05695e-05
-1.71512e-05
-1.0164e-05
-1.78534e-05
-1.0159e-05
-1.85899e-05
-1.02094e-05
-1.01945e-05
-1.93731e-05
-1.68135e-05
-1.72316e-05
-1.77845e-05
-1.84345e-05
7.59497e-05
-8.85245e-05
8.68904e-05
-0.000129346
9.0778e-05
-0.000101565
8.34743e-05
-3.92812e-05
7.98963e-05
3.87961e-06
9.07992e-05
3.2209e-05
9.1171e-05
5.42784e-05
8.18874e-05
6.41055e-05
8.17512e-05
8.26266e-05
9.35949e-05
4.69064e-05
5.82213e-05
2.68213e-05
5.93545e-06
9.47528e-05
-4.82732e-05
0.000120527
-4.35558e-05
0.00013515
-8.23458e-05
9.76321e-05
1.45789e-06
0.000127705
0.000138672
0.000227024
-1.29508e-05
0.000201442
4.42568e-06
8.07439e-05
-0.000109206
8.40702e-05
-4.95163e-05
9.13319e-05
-1.44135e-06
8.79966e-05
4.48224e-05
8.40491e-05
6.75702e-05
8.44581e-05
7.20898e-05
8.32498e-05
7.36056e-05
7.30866e-05
8.28461e-05
6.05102e-05
9.0639e-05
5.97507e-05
6.90823e-05
5.86734e-05
4.07477e-05
5.36424e-05
9.60424e-05
4.10809e-05
0.000174732
4.84083e-05
0.000154371
5.57154e-05
0.000101848
6.37766e-05
0.00015871
0.000159095
0.000345615
-6.90782e-06
0.000349852
9.29834e-05
0.000139207
-3.86341e-05
0.000138664
-4.25762e-05
0.000146806
-2.08237e-05
0.00013494
2.06649e-05
0.000117144
6.42213e-05
8.24039e-05
0.000130962
8.43078e-05
0.000126033
8.17962e-05
0.000122028
8.66956e-05
0.000113295
8.83637e-05
7.0596e-05
8.70446e-05
4.10623e-05
7.58316e-05
6.37426e-05
8.77371e-05
0.000138854
0.000106619
0.000130552
0.000100064
9.07459e-05
0.000122651
9.19667e-05
0.000123878
0.00020474
-3.17959e-06
0.000292691
0.000123297
0.000140717
-3.16501e-05
0.000140444
-7.13473e-05
0.000157092
-0.000101854
0.000151801
-6.02608e-05
0.000146701
-2.92022e-05
9.34695e-05
5.21337e-05
8.73425e-05
6.01495e-05
7.79034e-05
8.53113e-05
9.64456e-05
0.000115774
0.000106565
0.000170106
0.000108666
0.00020856
0.000105859
0.000197636
9.83711e-05
0.000156547
9.14145e-05
8.43192e-05
0.000103941
6.35306e-05
4.04498e-05
6.76349e-05
5.19535e-05
0.000165239
-1.06993e-05
0.000311039
9.56775e-05
0.000107052
-8.9385e-05
0.000112238
-0.000121212
9.16243e-05
-0.000115444
0.000135155
-0.000126615
0.000208461
-0.00011831
0.000201186
2.84152e-05
0.000114061
8.67534e-05
8.49136e-05
4.28987e-05
0.000118159
1.43906e-05
0.000121788
6.06697e-05
0.000111284
8.22528e-05
9.89028e-05
0.000102651
4.56197e-05
0.000239314
6.98547e-05
0.000194216
5.02625e-05
0.000123444
-2.77957e-05
0.000123257
1.18363e-05
0.000178898
-2.44959e-06
0.000322822
0.000100539
1.41152e-05
-7.81829e-05
-1.16332e-05
-0.000106807
-8.35559e-07
-0.000126789
4.95422e-05
-0.000176303
0.000139947
-0.000207326
0.000318798
-0.000146164
0.000510536
-9.42849e-05
0.000613601
-5.855e-05
0.000660654
-4.24576e-05
0.000658735
4.99774e-05
0.000509634
0.000225025
0.000243441
0.000332639
9.07987e-05
0.000247271
-7.8591e-06
0.000192198
7.12232e-06
0.000194446
-2.40893e-05
0.000168076
-7.71078e-06
0.000201251
2.72697e-06
0.000334541
0.0001254
-1.62924e-05
-0.000112826
-5.32732e-06
-0.000117774
-9.09737e-06
-0.000122873
-3.17105e-05
-0.000146712
-6.72723e-05
-0.000162094
-8.38222e-05
-0.000125034
-7.71752e-05
-9.59702e-05
-2.78391e-05
-9.08367e-05
9.79818e-06
-7.38324e-05
0.000120262
-4.48867e-05
0.000351138
6.39451e-06
0.00050113
0.000180883
0.000303031
0.000416587
6.67172e-05
0.000346769
-4.1107e-05
0.000200333
-3.81386e-05
0.000211013
-4.72904e-05
0.000247683
3.64301e-05
0.000312224
0.000207035
1.00832e-05
-9.59269e-05
-2.18644e-05
-8.58261e-05
-7.08809e-05
-7.36206e-05
-0.00012881
-8.0974e-05
-0.000125867
-0.000156395
-0.00011346
-0.00016511
-9.98089e-05
-0.000149445
-7.97008e-05
-0.000132811
-5.77305e-05
-0.000108299
-3.64034e-05
-7.89689e-05
6.4432e-06
-3.95054e-05
0.000157845
3.81189e-05
0.000346971
0.000249106
0.00020541
0.000483237
-1.87246e-05
0.000339946
-5.1937e-05
0.00018601
-4.15635e-05
0.000244432
2.14351e-05
0.000306152
0.000276
-8.97038e-06
-6.56275e-05
-4.48438e-05
-4.99525e-05
-8.10863e-05
-3.7218e-05
-0.000116083
-4.23837e-05
-0.000136224
-0.000135673
-0.000120051
-0.000166591
-0.000109001
-0.000153507
-8.8379e-05
-0.000145244
-7.9877e-05
-0.000134388
-5.41337e-05
-0.000116443
-4.88957e-05
-7.09861e-05
-3.19273e-05
2.90445e-06
0.000134123
0.000105922
0.000260424
0.000360842
0.000121606
0.000466364
-5.04858e-05
0.000273656
-3.30599e-05
0.000218456
-5.81176e-06
0.000282274
0.000250822
-3.00395e-05
-4.58135e-05
-4.57466e-05
-3.42456e-05
-6.1512e-05
-2.14394e-05
-8.58369e-05
-1.70265e-05
-0.000144774
-7.48268e-05
-0.000145471
-0.000154809
-0.000102279
-0.00017838
-9.01461e-05
-0.000169187
-8.19786e-05
-0.000155545
-8.26263e-05
-0.000132923
-5.22337e-05
-0.000104373
-6.52366e-05
-3.21834e-05
-5.37137e-05
6.46438e-05
0.000121676
0.000231683
0.000128171
0.000454506
-8.18927e-06
0.0003422
-2.56151e-05
0.00019542
-1.80811e-05
0.000270839
0.000212185
-2.89938e-05
-3.44791e-05
-3.42723e-05
-2.89674e-05
-3.39154e-05
-2.17966e-05
-3.25858e-05
-1.83642e-05
-7.12268e-05
-3.64039e-05
-0.000137543
-8.47317e-05
-0.00013403
-0.000165601
-8.81386e-05
-0.000193892
-8.5728e-05
-0.000167802
-9.12804e-05
-0.000152237
-8.49439e-05
-0.000121457
-7.89663e-05
-6.99165e-05
-0.000100406
4.30789e-05
-1.58681e-05
0.000146114
3.38077e-05
0.000407086
1.78904e-05
0.000334185
-3.47291e-05
0.000194198
-2.95103e-05
0.000269607
0.000239878
-2.56147e-05
-2.92558e-05
-2.69667e-05
-2.76157e-05
-2.3566e-05
-2.51976e-05
-1.75804e-05
-2.435e-05
-2.18861e-05
-3.21029e-05
-5.49354e-05
-5.14679e-05
-0.000116987
-9.68075e-05
-0.000102926
-0.000174042
-8.32383e-05
-0.000170598
-9.05834e-05
-0.000158162
-0.000107421
-0.000136648
-8.55462e-05
-8.97265e-05
-0.000130619
1.27761e-05
-0.000137704
0.000127222
-4.89147e-05
0.00035871
2.92023e-06
0.000266205
-3.35485e-05
0.000176052
-5.05193e-05
0.000231687
0.000254297
-2.3709e-05
-2.78688e-05
-2.40006e-05
-2.73244e-05
-2.27994e-05
-2.6399e-05
-2.01738e-05
-2.69756e-05
-2.02207e-05
-3.20559e-05
-3.05108e-05
-4.11709e-05
-6.23049e-05
-6.37907e-05
-0.000113346
-0.000109003
-7.00465e-05
-0.000166825
-9.89094e-05
-0.00013301
-0.000109466
-0.000130464
-8.41291e-05
-9.95621e-05
-0.00015869
-3.81732e-05
-0.000175356
0.000124682
-2.96546e-05
0.000270712
8.48289e-06
0.000215014
-5.41344e-05
0.00017449
-5.83472e-05
0.000203009
0.000260323
-2.28755e-05
-2.63879e-05
-2.39153e-05
-2.62849e-05
-2.46965e-05
-2.5618e-05
-2.49163e-05
-2.6756e-05
-2.64542e-05
-3.05179e-05
-3.19665e-05
-3.56583e-05
-5.31668e-05
-4.25235e-05
-9.43767e-05
-6.33106e-05
-0.000108538
-0.000123876
-9.61443e-05
-0.000119497
-0.000128611
-0.000118582
-0.000132435
-0.000107413
-0.000160641
-7.12674e-05
-0.000188788
4.0131e-05
-7.1757e-05
0.000179757
-5.11315e-05
0.000145631
-9.88902e-05
0.000127952
-5.55999e-05
0.000188222
0.000247336
-2.16371e-05
-2.53209e-05
-2.27032e-05
-2.52189e-05
-2.42567e-05
-2.40649e-05
-2.67561e-05
-2.42565e-05
-3.1813e-05
-2.5461e-05
-4.05482e-05
-2.69229e-05
-5.41702e-05
-2.88956e-05
-8.34629e-05
-3.22156e-05
-0.000135825
-5.79746e-05
-0.000115209
-0.000104065
-0.000151522
-8.71338e-05
-0.000171672
-9.16332e-05
-0.000185953
-4.4257e-05
-0.000214069
-3.07032e-05
-0.000168412
4.05759e-05
-0.000171879
9.02431e-05
-0.000147426
0.000119668
-4.3091e-05
0.000199566
0.000208283
-2.12998e-05
-2.33942e-05
-2.34493e-05
-2.30698e-05
-2.56599e-05
-2.18541e-05
-2.856e-05
-2.13565e-05
-3.37833e-05
-2.02375e-05
-4.32442e-05
-1.74619e-05
-6.00492e-05
-1.20897e-05
-9.36439e-05
1.77432e-06
-0.000158282
1.29406e-05
-0.000178084
-6.51706e-05
-0.000173593
-7.77471e-05
-0.000191055
-7.49246e-05
-0.000229075
-7.39785e-05
-0.000227954
1.37414e-05
-0.000201294
7.91023e-05
-0.000176518
0.000129993
-0.000130124
0.000155319
-5.28437e-05
0.000143401
0.000153765
-1.97874e-05
-2.15777e-05
-2.35825e-05
-2.66069e-05
-3.11132e-05
-3.7825e-05
-4.73757e-05
-6.13739e-05
-9.87986e-05
-0.000193853
-0.000209355
-0.000209143
-0.000215573
-0.000228014
-0.000216022
-0.000185687
-0.000137838
-6.70782e-05
)
;

boundaryField
{
    leftWall
    {
        type            fixedValue;
        value           nonuniform 0();
    }
    rightWall
    {
        type            fixedValue;
        value           uniform 0;
    }
    lowerWall
    {
        type            fixedValue;
        value           uniform 0;
    }
    atmosphere
    {
        type            calculated;
        value           nonuniform 0();
    }
    defaultFaces
    {
        type            empty;
        value           nonuniform 0();
    }
    procBoundary1to0
    {
        type            processor;
        value           nonuniform List<scalar> 
26
(
1.8533e-06
1.49159e-06
-8.78729e-07
-7.6358e-07
-4.27381e-07
1.14562e-06
1.92431e-06
1.82319e-06
-6.68143e-07
-7.31367e-06
-8.48748e-05
-0.000101074
-9.1273e-05
-4.83513e-05
1.12588e-05
3.28429e-05
-7.73403e-05
-5.82535e-05
-1.81204e-05
-9.6648e-06
8.71023e-06
1.79736e-05
1.67826e-05
1.74716e-05
1.6469e-05
1.635e-05
)
;
    }
    procBoundary1to3
    {
        type            processor;
        value           nonuniform List<scalar> 
23
(
-9.70125e-06
-9.74099e-06
-9.65683e-06
-9.54448e-06
-2.20416e-05
-2.12792e-05
-1.98493e-05
-1.83317e-05
-1.57311e-05
-1.07498e-05
-2.53869e-06
1.57826e-05
5.23426e-05
3.79269e-05
-4.28343e-05
-5.95103e-05
-1.90397e-05
1.17617e-05
5.69242e-05
0.000104211
0.00011509
8.6449e-05
9.79102e-05
)
;
    }
}


// ************************************************************************* //
