/*--------------------------------*- C++ -*----------------------------------*\
| =========                 |                                                 |
| \\      /  F ield         | OpenFOAM: The Open Source CFD Toolbox           |
|  \\    /   O peration     | Version:  2.4.0                                 |
|   \\  /    A nd           | Web:      www.OpenFOAM.org                      |
|    \\/     M anipulation  |                                                 |
\*---------------------------------------------------------------------------*/
FoamFile
{
    version     2.0;
    format      ascii;
    class       surfaceScalarField;
    location    "0.6";
    object      phi.water;
}
// * * * * * * * * * * * * * * * * * * * * * * * * * * * * * * * * * * * * * //

dimensions      [0 3 -1 0 0 0 0];

internalField   nonuniform List<scalar> 
1061
(
-1.85282e-06
-3.34365e-06
-2.46295e-06
-1.69599e-06
-1.262e-06
-2.38952e-06
-4.32543e-06
1.6335e-05
-1.83376e-05
-2.31617e-05
-1.00056e-05
-4.77671e-05
1.49662e-05
-5.85337e-05
3.73124e-05
-5.46866e-05
5.22253e-05
-4.47538e-05
5.94326e-05
-3.70641e-05
6.25897e-05
-3.46371e-05
6.42745e-05
-3.44382e-05
6.44163e-05
-3.37086e-05
6.23221e-05
-3.06573e-05
5.7809e-05
-2.74529e-05
5.32659e-05
-2.56312e-05
5.24499e-05
-2.76136e-05
4.86499e-05
-2.49026e-05
4.50114e-05
-4.076e-06
3.2173e-05
4.86594e-05
1.29472e-05
6.66901e-05
-2.50619e-06
4.54482e-05
1.07929e-05
-8.40545e-06
1.36957e-06
5.8579e-06
-6.38063e-05
2.46963e-05
-3.55631e-05
4.08275e-05
-4.15085e-05
5.49822e-05
-5.61471e-05
6.60783e-05
-4.88071e-05
7.32317e-05
-4.06325e-05
7.74876e-05
-3.6705e-05
8.03804e-05
-3.47006e-05
8.03949e-05
-2.91508e-05
7.60598e-05
-2.29995e-05
6.95817e-05
-2.00915e-05
6.62311e-05
-2.90777e-05
6.34639e-05
-3.56484e-05
5.99232e-05
-2.22307e-05
5.54155e-05
3.6004e-05
2.19853e-05
8.17754e-05
2.2821e-06
6.37219e-05
1.78654e-05
2.94141e-06
1.29345e-05
1.51785e-05
-3.84244e-05
2.82238e-05
-5.87428e-05
3.69292e-05
-3.88438e-05
4.85448e-05
-2.17908e-05
5.82444e-05
-2.45539e-05
6.64799e-05
-4.00399e-05
7.20037e-05
-3.76444e-05
7.56029e-05
-3.411e-05
7.70368e-05
-2.81651e-05
7.36307e-05
-2.10533e-05
6.67755e-05
-1.83484e-05
6.21127e-05
-2.74771e-05
6.28243e-05
-2.93111e-05
5.46874e-05
-2.31919e-05
4.63275e-05
1.74831e-05
1.57603e-05
9.38762e-05
-1.19335e-05
8.63703e-05
1.79233e-05
1.6543e-05
8.77458e-06
3.3702e-05
-5.77579e-05
3.62057e-05
-6.38412e-05
4.58471e-05
-4.25843e-05
4.6925e-05
-2.33537e-05
4.65524e-05
-1.24428e-05
5.72469e-05
-6.17255e-06
6.23687e-05
-6.4536e-06
6.49918e-05
-3.3148e-05
6.46461e-05
-3.10127e-05
6.24935e-05
-1.98621e-05
5.36928e-05
-1.79158e-05
5.09512e-05
-2.65856e-05
5.89279e-05
-2.17641e-05
5.25308e-05
-1.11153e-05
2.51491e-05
2.46773e-05
-1.08708e-05
9.89434e-05
-2.82876e-05
8.54325e-05
7.26739e-06
2.21269e-05
9.78959e-06
4.11001e-05
-5.85337e-05
4.26251e-05
-6.47121e-05
4.49597e-05
-4.15648e-05
5.11035e-05
-2.69717e-05
5.3341e-05
-1.26073e-05
5.56256e-05
-2.31288e-06
4.30996e-05
4.48398e-06
5.27505e-05
2.06485e-06
5.24505e-05
-1.30928e-05
5.20708e-05
-1.94931e-05
4.50134e-05
-1.70516e-05
5.37137e-05
-1.64351e-05
5.71007e-05
-1.27082e-05
4.61069e-05
1.95413e-06
1.69736e-05
4.65189e-05
-1.61676e-05
0.000110198
-2.69797e-05
8.24525e-05
-1.02376e-05
3.61401e-05
4.85916e-06
4.25381e-05
-5.52676e-05
4.5469e-05
-6.82783e-05
4.7395e-05
-6.03692e-05
5.2043e-05
-4.74723e-05
5.4682e-05
-3.09194e-05
6.01575e-05
-2.2927e-05
5.57095e-05
-7.5257e-06
4.33631e-05
5.91028e-06
4.31649e-05
3.87112e-07
4.59769e-05
-8.74453e-06
4.70911e-05
-9.17322e-06
5.80942e-05
-5.70723e-06
4.64999e-05
-1.74488e-05
3.70631e-05
-3.78371e-06
1.26521e-05
6.32679e-05
-1.53921e-05
0.000122223
-2.26781e-05
7.67893e-05
-3.03306e-05
3.00563e-05
-1.79469e-05
4.29208e-05
-6.29649e-05
4.49662e-05
-7.96375e-05
4.97856e-05
-7.66886e-05
5.1899e-05
-6.55179e-05
5.52578e-05
-5.11683e-05
5.56278e-05
-4.14584e-05
5.23812e-05
-2.22541e-05
4.32803e-05
-1.41937e-06
3.79867e-05
1.08179e-05
4.49652e-05
6.94063e-07
4.78836e-05
-2.8367e-06
5.03622e-05
-7.08198e-06
3.44893e-05
-5.43758e-05
2.84962e-05
-2.33954e-05
1.00324e-05
6.71368e-05
-1.16914e-05
0.000139013
-1.85578e-05
7.35956e-05
-4.39122e-05
3.04814e-05
-6.8517e-05
4.19531e-05
-7.68988e-05
4.24389e-05
-8.7367e-05
4.58133e-05
-8.11757e-05
4.73326e-05
-6.70268e-05
4.89726e-05
-5.2826e-05
4.66596e-05
-4.14531e-05
4.89107e-05
-2.18486e-05
4.6355e-05
-2.48381e-06
4.36688e-05
7.95383e-06
4.45155e-05
1.2913e-05
4.20126e-05
7.14983e-06
3.52405e-05
-1.14394e-05
2.70661e-05
-6.26756e-05
2.68251e-05
-5.55526e-05
1.16705e-05
4.37402e-05
-3.47266e-06
0.000149885
-8.499e-06
7.91382e-05
-4.74508e-05
5.24272e-06
1.95966e-05
-2.49996e-05
2.78077e-05
-4.72025e-05
9.36549e-05
-5.81019e-05
0.000107759
-8.05504e-05
8.21268e-05
-0.000135671
4.87997e-05
-7.27838e-05
8.45523e-06
-1.55712e-05
3.44813e-05
4.41801e-07
4.96502e-05
1.57571e-07
6.96339e-05
-3.97564e-06
-7.16446e-06
9.03509e-05
3.79898e-05
-1.67998e-05
5.22678e-05
-2.06268e-05
6.64265e-05
-2.51207e-05
-2.95451e-05
8.0766e-05
9.95652e-05
-2.79475e-05
0.000105699
-3.13915e-05
0.000111512
-3.47885e-05
-3.82696e-05
0.000116958
0.000110935
-3.33173e-05
0.000114596
-3.8175e-05
0.000117888
-4.31221e-05
-4.88404e-05
0.00012063
8.36527e-05
-4.8422e-05
8.34491e-05
-5.69546e-05
8.24196e-05
-6.64056e-05
-7.40996e-05
7.85067e-05
4.71215e-05
-5.25843e-05
4.78169e-05
-4.35208e-05
4.89626e-05
-4.43826e-05
-4.61317e-05
5.04196e-05
-5.13771e-06
-2.13993e-05
-3.08642e-05
-1.48109e-05
-5.6199e-05
-2.29995e-05
-3.5599e-05
-4.95829e-05
5.86646e-07
-3.90928e-05
1.48658e-05
-4.0186e-05
2.3817e-05
-4.08972e-05
-4.04689e-05
2.68494e-05
4.94777e-05
-3.02162e-05
4.04635e-05
-3.1029e-05
3.11657e-05
-3.13129e-05
-3.02531e-05
2.11901e-05
1.17346e-05
-2.39419e-05
4.97767e-06
-2.42746e-05
-2.61213e-06
-2.37239e-05
-2.25291e-05
-1.03346e-05
2.58261e-06
-1.6951e-05
-4.56366e-06
-1.71352e-05
-1.14649e-05
-1.68238e-05
-1.62558e-05
-1.77389e-05
-1.17364e-05
-1.39943e-05
-1.46458e-05
-1.42294e-05
-1.76171e-05
-1.38528e-05
-1.3424e-05
-2.04484e-05
-1.90649e-05
-1.29578e-05
-2.0258e-05
-1.30394e-05
-2.14292e-05
-1.26822e-05
-1.2491e-05
-2.23613e-05
-1.79661e-05
-1.18139e-05
-1.92825e-05
-1.17273e-05
-2.03897e-05
-1.15747e-05
-1.14603e-05
-2.14196e-05
-1.84995e-05
-1.08155e-05
-1.9401e-05
-1.08274e-05
-2.00652e-05
-1.09103e-05
-1.09408e-05
-2.05871e-05
-1.71661e-05
-1.01358e-05
-1.78671e-05
-1.01288e-05
-1.86049e-05
-1.01785e-05
-1.01618e-05
-1.93826e-05
-1.68205e-05
-1.72423e-05
-1.77923e-05
-1.84424e-05
8.06398e-05
-6.7793e-05
8.9386e-05
-0.000101458
9.08543e-05
-9.89242e-05
8.9895e-05
-8.77052e-05
9.113e-05
-7.01177e-05
9.16691e-05
-5.06017e-05
8.81702e-05
-3.46562e-05
8.66983e-05
-1.80682e-05
9.40562e-05
-3.02532e-06
9.22833e-05
1.1164e-05
6.28661e-05
2.69955e-05
2.78198e-05
3.23583e-05
1.27189e-05
1.72854e-05
3.20333e-05
-1.99808e-05
4.48668e-05
-6.1077e-05
5.91793e-05
-1.67743e-05
5.34222e-05
0.000123179
2.06159e-05
9.85768e-05
-2.1563e-05
9.36254e-05
-9.3874e-05
9.87225e-05
-0.000114766
0.000102673
-0.000112971
9.96665e-05
-9.86461e-05
9.54248e-05
-7.98544e-05
9.0611e-05
-5.32874e-05
8.75386e-05
-3.15412e-05
7.99998e-05
-1.09089e-05
7.22358e-05
5.65951e-06
6.81311e-05
1.82766e-05
6.81902e-05
3.09143e-05
6.26491e-05
3.99085e-05
5.37716e-05
4.2983e-05
6.04308e-05
3.26968e-05
6.89509e-05
5.86964e-06
8.36438e-05
-4.24638e-06
0.000104637
4.97787e-05
6.14792e-05
5.72557e-05
1.12265e-06
0.000123114
-0.000105644
0.000129468
-0.000133988
0.000140756
-0.000163806
0.000141586
-0.000188014
0.000132047
-0.000173854
0.000111363
-0.000128492
0.000102783
-6.91761e-05
9.92218e-05
-2.37995e-05
9.9222e-05
-9.23137e-07
9.49924e-05
1.98108e-05
9.28003e-05
3.31747e-05
9.26858e-05
4.10507e-05
9.81366e-05
5.08949e-05
0.000100477
4.66952e-05
8.52001e-05
3.3983e-05
8.6712e-05
1.58002e-05
9.75954e-05
2.48949e-05
9.80897e-05
6.81569e-06
3.01849e-06
0.000122227
-0.000143206
0.000120054
-0.000202176
0.00012936
-0.000264912
0.000140079
-0.000209893
0.000149686
-0.000141205
0.000141057
-0.000140922
0.000115942
-0.000105745
0.000104108
-0.000109113
0.000109131
-6.74689e-05
0.000109755
-1.48513e-05
0.000110004
3.58684e-06
0.000109601
2.24479e-05
0.000104358
5.17516e-05
9.57746e-05
5.42523e-05
7.81322e-05
4.77029e-05
6.84929e-05
4.14454e-05
7.90999e-05
4.62042e-05
0.000100115
9.20534e-06
1.58351e-06
7.37532e-05
-0.000206788
8.55588e-05
-0.000170653
8.63667e-05
-0.000139791
9.47291e-05
-0.000135569
7.34122e-05
-8.46063e-05
7.97584e-05
-5.72868e-05
7.99219e-05
-6.13545e-05
0.000103673
-7.85715e-05
9.98964e-05
-9.63827e-05
0.000110539
-6.40688e-05
0.000117661
-4.32341e-05
0.000122705
-3.12551e-05
9.75801e-05
3.67836e-06
8.55016e-05
4.09028e-05
7.02033e-05
5.73508e-05
6.63137e-05
7.65253e-05
7.43051e-05
9.32337e-05
9.509e-05
5.72258e-05
2.17582e-05
4.01628e-05
-0.000102663
1.06386e-05
-8.32551e-05
-2.78379e-05
-0.000126862
-7.06351e-05
-0.000214032
-2.99989e-05
-0.000222905
4.6235e-05
-0.000172697
0.000124343
-0.000146126
0.000107557
-0.000120303
0.000117158
-8.46393e-05
0.000114575
-5.13716e-05
0.000117529
-4.11433e-05
0.000129881
-3.51724e-05
0.000136529
-2.28477e-05
9.0311e-05
3.84555e-07
5.58705e-05
4.47968e-05
4.59752e-05
9.40805e-05
7.61322e-05
0.000132423
0.000100079
0.000123782
7.54747e-05
-1.67708e-05
-0.000112475
-5.56458e-06
-0.000117984
-6.11538e-05
-0.000122926
-0.000225978
-0.000182552
-0.000176793
-0.000183917
-0.00012488
-0.000146538
-0.000100001
-0.000122787
-6.90298e-05
-0.000117726
-4.23885e-05
-0.000106897
2.59495e-05
-9.74959e-05
0.000108863
-6.62579e-05
0.000118804
-2.10209e-05
0.000131724
-2.22304e-05
0.000127063
-2.46576e-05
6.22718e-05
1.19784e-05
3.36246e-05
9.2198e-05
4.89521e-05
0.000153339
7.18749e-05
0.00017091
0.000140071
9.98422e-06
-9.60096e-05
-2.21832e-05
-8.56024e-05
-0.000112327
-7.37687e-05
-0.000218243
-0.000126872
-0.000160575
-0.000157856
-0.000123733
-0.000145095
-0.000109222
-0.000131997
-9.6371e-05
-0.000125165
-7.88424e-05
-0.000116805
-5.59832e-05
-0.000101929
-2.43692e-05
-7.16572e-05
9.05924e-05
-3.5532e-05
0.000155752
-6.55375e-06
0.0001438
-1.88692e-05
9.83891e-05
-2.15154e-05
3.76095e-05
7.47925e-05
3.6064e-05
0.000153436
4.83407e-05
0.000196556
0.000188689
-9.11992e-06
-6.54481e-05
-4.51009e-05
-4.97338e-05
-0.000105297
-3.71595e-05
-0.000150251
-8.24603e-05
-0.000133745
-0.000139526
-0.000136773
-0.000133371
-0.000125912
-0.000131468
-0.000111914
-0.000131888
-9.45451e-05
-0.000125277
-6.98947e-05
-0.000114649
-5.05038e-05
-8.28251e-05
-1.69113e-05
-4.01892e-05
8.09988e-05
7.80752e-06
0.000137938
9.60906e-06
8.94362e-05
1.41755e-06
6.09913e-05
4.8802e-05
3.36039e-05
0.000146557
3.22196e-05
0.000207669
0.000218153
-3.01491e-05
-4.5646e-05
-4.58343e-05
-3.40658e-05
-6.5863e-05
-2.12538e-05
-0.000132349
-2.43149e-05
-0.000160266
-0.000109186
-0.000152243
-0.000143801
-0.000132304
-0.000148608
-0.000117121
-0.00015007
-0.000104364
-0.000145846
-9.06593e-05
-0.000133165
-5.73209e-05
-0.000104403
-4.97238e-05
-5.22533e-05
1.45832e-06
7.74523e-06
6.78266e-05
4.87117e-05
8.35365e-05
3.60775e-05
8.82584e-05
7.36327e-05
4.90686e-05
0.000145123
2.65947e-05
0.000221519
0.000238875
-2.90623e-05
-3.43297e-05
-3.43163e-05
-2.88006e-05
-3.39388e-05
-2.16089e-05
-3.80658e-05
-1.81785e-05
-0.000117976
-3.88556e-05
-0.000162518
-0.000107858
-0.000153539
-0.00014875
-0.000129301
-0.000151229
-0.000109619
-0.000146667
-0.000105472
-0.000139544
-8.11775e-05
-9.75185e-05
-7.45719e-05
-5.64953e-05
-5.28671e-05
1.58792e-06
3.70588e-05
6.04788e-05
8.31789e-05
7.64636e-05
7.88437e-05
9.96916e-05
6.47795e-05
0.000141179
2.67915e-05
0.000234794
0.000259048
-2.56568e-05
-2.91201e-05
-2.69871e-05
-2.74636e-05
-2.35609e-05
-2.50322e-05
-1.75562e-05
-2.41792e-05
-2.30765e-05
-3.19278e-05
-0.000102104
-5.16968e-05
-0.000159208
-0.00010478
-0.000151086
-0.000135899
-0.000107545
-0.000136613
-0.000103545
-0.000135521
-0.000115058
-0.000111789
-0.000104655
-5.89032e-05
-8.48061e-05
-5.46629e-07
1.62979e-05
6.8187e-05
7.47376e-05
0.000111483
6.75147e-05
0.000122596
6.59509e-05
0.000168128
2.43506e-05
0.000247203
0.000277625
-2.37334e-05
-2.77485e-05
-2.40074e-05
-2.71925e-05
-2.27859e-05
-2.62589e-05
-2.01376e-05
-2.68343e-05
-2.01594e-05
-3.19186e-05
-3.32346e-05
-4.10477e-05
-0.000125583
-6.38408e-05
-0.000161663
-0.000111781
-0.000108908
-0.000117766
-0.000115053
-0.000112635
-0.000143378
-0.000101263
-0.00013913
-6.14698e-05
-0.000115007
2.15735e-07
-5.50325e-05
7.4099e-05
1.64792e-05
0.00015155
5.66507e-05
0.000178675
4.34876e-05
0.000213925
1.1935e-05
0.000258098
0.000285139
-2.28879e-05
-2.62832e-05
-2.39129e-05
-2.61716e-05
-2.46778e-05
-2.55015e-05
-2.48796e-05
-2.66394e-05
-2.63977e-05
-3.041e-05
-3.19003e-05
-3.55633e-05
-6.78035e-05
-4.24706e-05
-0.000161208
-6.98501e-05
-0.000129253
-9.72757e-05
-0.000121622
-8.65847e-05
-0.000164145
-7.27647e-05
-0.000177677
-4.73117e-05
-0.000150706
1.99183e-06
-0.000109626
6.24232e-05
-5.09856e-05
0.000137808
-1.61222e-05
0.000192426
-1.18878e-05
0.000218243
-9.50142e-06
0.000256535
0.000272714
-2.16418e-05
-2.52281e-05
-2.26983e-05
-2.51239e-05
-2.42377e-05
-2.39661e-05
-2.67261e-05
-2.41617e-05
-3.17667e-05
-2.53691e-05
-4.04972e-05
-2.6851e-05
-5.66325e-05
-2.88364e-05
-0.000161505
-3.4034e-05
-0.000176804
-6.88203e-05
-0.000128208
-6.24808e-05
-0.000173283
-4.71718e-05
-0.000204037
-2.63149e-05
-0.000199514
9.68008e-06
-0.000160849
5.42781e-05
-0.000118566
0.000113675
-9.66731e-05
0.000167653
-7.54608e-05
0.000200215
-3.70996e-05
0.000223504
0.000232745
-2.1302e-05
-2.33161e-05
-2.34408e-05
-2.29858e-05
-2.56444e-05
-2.17715e-05
-2.85324e-05
-2.12729e-05
-3.37527e-05
-2.01633e-05
-4.32059e-05
-1.73912e-05
-6.03727e-05
-1.20389e-05
-0.000145588
1.69228e-06
-0.00021502
-1.8308e-05
-0.000145612
-4.45244e-05
-0.00017397
-2.5847e-05
-0.000218123
-9.08687e-06
-0.00022458
2.18989e-05
-0.000201737
5.96801e-05
-0.000167383
0.000105503
-0.000147776
0.000149769
-0.000117504
0.000173475
-5.35317e-05
0.000168313
0.000177935
-1.97848e-05
-2.15699e-05
-2.35656e-05
-2.65866e-05
-3.10853e-05
-3.78041e-05
-4.73634e-05
-6.84222e-05
-0.000208989
-0.000229821
-0.00015971
-0.000188361
-0.000218848
-0.000213469
-0.000190859
-0.000169363
-0.000134143
-6.90861e-05
)
;

boundaryField
{
    leftWall
    {
        type            fixedValue;
        value           nonuniform 0();
    }
    rightWall
    {
        type            fixedValue;
        value           uniform 0;
    }
    lowerWall
    {
        type            fixedValue;
        value           uniform 0;
    }
    atmosphere
    {
        type            calculated;
        value           nonuniform 0();
    }
    defaultFaces
    {
        type            empty;
        value           nonuniform 0();
    }
    procBoundary1to0
    {
        type            processor;
        value           nonuniform List<scalar> 
26
(
1.85331e-06
1.4916e-06
-8.78691e-07
-7.63397e-07
-4.26612e-07
1.14881e-06
1.93743e-06
1.82413e-06
-6.1075e-07
-1.05712e-05
-8.46522e-05
-0.000100628
-7.76143e-05
-4.89807e-05
-8.89203e-06
3.30513e-05
-7.73058e-05
-5.8129e-05
-1.80189e-05
-9.58671e-06
8.77135e-06
1.8019e-05
1.68161e-05
1.74943e-05
1.64834e-05
1.6359e-05
)
;
    }
    procBoundary1to3
    {
        type            processor;
        value           nonuniform List<scalar> 
23
(
-9.67483e-06
-9.71456e-06
-9.62913e-06
-9.51657e-06
-2.19708e-05
-2.12082e-05
-1.97749e-05
-1.82613e-05
-1.56589e-05
-1.06882e-05
-2.47333e-06
1.58539e-05
4.86881e-05
5.10509e-06
-2.09184e-05
-7.74274e-06
1.91324e-05
6.20872e-05
0.000105457
0.000143537
0.000161224
0.000126984
0.000132679
)
;
    }
}


// ************************************************************************* //
