/*--------------------------------*- C++ -*----------------------------------*\
| =========                 |                                                 |
| \\      /  F ield         | OpenFOAM: The Open Source CFD Toolbox           |
|  \\    /   O peration     | Version:  2.4.0                                 |
|   \\  /    A nd           | Web:      www.OpenFOAM.org                      |
|    \\/     M anipulation  |                                                 |
\*---------------------------------------------------------------------------*/
FoamFile
{
    version     2.0;
    format      ascii;
    class       volVectorField;
    location    "0.6";
    object      U;
}
// * * * * * * * * * * * * * * * * * * * * * * * * * * * * * * * * * * * * * //

dimensions      [0 1 -1 0 0 0 0];

internalField   nonuniform List<vector> 
559
(
(-0.0281706 -0.00237886 0)
(-0.0242621 -0.018342 0)
(0.0121771 -0.0167866 0)
(0.00733519 -0.00968856 0)
(0.0121256 -0.00859347 0)
(0.00337447 -0.00561569 0)
(-0.000943593 -0.0196437 0)
(-0.000128615 -0.0246983 0)
(-0.28175 -0.272123 0)
(-0.298339 -0.331807 0)
(-0.0260307 -0.30674 0)
(0.285124 -0.270122 0)
(0.546621 -0.244069 0)
(0.691683 -0.246232 0)
(0.756596 -0.272373 0)
(0.757487 -0.290669 0)
(0.752081 -0.30738 0)
(0.732342 -0.328529 0)
(0.697508 -0.348491 0)
(0.625572 -0.352825 0)
(0.593048 -0.322545 0)
(0.603375 -0.295033 0)
(0.590636 -0.267841 0)
(0.526648 -0.283002 0)
(0.296737 -0.225171 0)
(-0.0490599 -0.164127 0)
(0.0352314 -0.255776 0)
(-0.278363 0.339245 0)
(-0.230943 0.13572 0)
(0.165013 -0.155208 0)
(0.349168 -0.140371 0)
(0.572263 -0.0653927 0)
(0.749005 0.0306805 0)
(0.89149 0.111036 0)
(0.941241 0.140312 0)
(0.960401 0.160539 0)
(0.966517 0.197833 0)
(0.927363 0.213469 0)
(0.841741 0.203123 0)
(0.757891 0.14778 0)
(0.743369 0.119799 0)
(0.780314 0.130307 0)
(0.750434 0.241644 0)
(0.523533 0.264066 0)
(0.0566895 0.190379 0)
(0.107264 0.129551 0)
(-0.232998 0.259728 0)
(0.0651023 -0.211257 0)
(0.301184 -0.339717 0)
(0.394651 -0.271328 0)
(0.53705 -0.199143 0)
(0.660211 -0.138116 0)
(0.774708 -0.0986616 0)
(0.855986 -0.07288 0)
(0.899549 -0.0622962 0)
(0.931741 -0.0291419 0)
(0.921509 0.0295656 0)
(0.84168 0.0723215 0)
(0.751695 0.0203925 0)
(0.747569 -0.0158199 0)
(0.752325 0.0480688 0)
(0.699484 0.178572 0)
(0.446956 0.357902 0)
(-0.114827 0.216708 0)
(0.0165125 -0.0275431 0)
(-0.0635905 0.305759 0)
(0.294495 -0.236004 0)
(0.403576 -0.383604 0)
(0.442248 -0.32973 0)
(0.507724 -0.242356 0)
(0.586388 -0.149793 0)
(0.658609 -0.086922 0)
(0.731298 -0.0441796 0)
(0.761338 -0.0212382 0)
(0.77808 0.0157699 0)
(0.7897 0.097299 0)
(0.749516 0.137895 0)
(0.703641 0.0457837 0)
(0.673687 -0.0150483 0)
(0.677897 0.0764251 0)
(0.616807 0.338091 0)
(0.190739 0.607685 0)
(-0.289995 0.368731 0)
(0.0377616 -0.0524555 0)
(0.266154 0.186313 0)
(0.364973 -0.315917 0)
(0.450648 -0.418933 0)
(0.475213 -0.380708 0)
(0.505355 -0.287985 0)
(0.540413 -0.20699 0)
(0.579806 -0.15317 0)
(0.632418 -0.0976541 0)
(0.637645 -0.0827265 0)
(0.643305 -0.0158187 0)
(0.623557 0.106961 0)
(0.643073 0.104106 0)
(0.661079 0.00941906 0)
(0.6367 -0.0416574 0)
(0.63185 0.105992 0)
(0.478215 0.355272 0)
(0.0573092 0.630018 0)
(-0.306377 0.420081 0)
(0.0775137 -0.124398 0)
(0.372013 0.00705745 0)
(0.386334 -0.350782 0)
(0.467643 -0.457471 0)
(0.532401 -0.364699 0)
(0.555418 -0.284682 0)
(0.585891 -0.146235 0)
(0.625962 -0.126938 0)
(0.633445 -0.0635688 0)
(0.580311 -0.0109536 0)
(0.510254 0.100953 0)
(0.527712 0.10475 0)
(0.598886 0.10154 0)
(0.654869 0.020818 0)
(0.596353 0.0258563 0)
(0.51303 0.206452 0)
(0.348611 0.482323 0)
(0.0386453 0.69511 0)
(-0.283021 0.453495 0)
(0.0995461 -0.17639 0)
(0.363986 -0.196659 0)
(0.391507 -0.417191 0)
(0.478191 -0.481953 0)
(0.555041 -0.347131 0)
(0.601491 -0.208236 0)
(0.628623 -0.134507 0)
(0.62856 -0.0817309 0)
(0.636735 0.0348484 0)
(0.556124 0.0661712 0)
(0.416857 0.021348 0)
(0.438113 0.0663637 0)
(0.542138 0.0744261 0)
(0.604512 -0.0159518 0)
(0.51139 0.000969583 0)
(0.381556 0.137325 0)
(0.222155 0.543903 0)
(0.0738751 0.789921 0)
(-0.259795 0.432752 0)
(0.118304 -0.229699 0)
(0.376652 -0.303995 0)
(0.406995 -0.482318 0)
(0.479381 -0.460841 0)
(0.500716 -0.407822 0)
(0.530721 -0.29489 0)
(0.564169 -0.174072 0)
(0.542327 -0.138078 0)
(0.579403 -0.0926212 0)
(0.56297 0.0552288 0)
(0.47214 0.117455 0)
(0.473994 -0.0282376 0)
(0.533523 -0.0733506 0)
(0.45621 -0.0310656 0)
(-0.0544149 0.457842 0)
(-0.0540888 0.388043 0)
(0.159499 0.640259 0)
(0.141069 0.902205 0)
(-0.190415 0.464509 0)
(0.161238 -0.249673 0)
(0.036697 -0.0566297 0)
(0.0822784 -0.23309 0)
(0.47051 -0.0714414 0)
(0.560185 -0.344781 0)
(0.433978 -0.316621 0)
(0.255246 -0.366197 0)
(-0.0858221 0.204352 0)
(-0.126541 -0.502536 0)
(0.122005 -0.079904 0)
(0.204213 -0.061307 0)
(0.245385 -0.107187 0)
(0.356488 -0.120738 0)
(0.151249 -0.25118 0)
(0.222605 -0.254879 0)
(0.276681 -0.284157 0)
(0.359535 -0.307633 0)
(0.518681 -0.138737 0)
(0.554167 -0.190086 0)
(0.574028 -0.235236 0)
(0.622508 -0.294767 0)
(0.587336 -0.397413 0)
(0.605616 -0.432746 0)
(0.617018 -0.473717 0)
(0.636588 -0.518161 0)
(0.44126 -0.394381 0)
(0.448337 -0.441146 0)
(0.456606 -0.472651 0)
(0.471009 -0.482712 0)
(0.271594 -0.395484 0)
(0.318484 -0.420732 0)
(0.345343 -0.415621 0)
(0.335078 -0.203008 0)
(-0.113422 0.475271 0)
(-0.229108 0.415473 0)
(-0.34527 0.183526 0)
(-0.320484 -0.0660541 0)
(-0.0391338 -0.669434 0)
(0.0475038 -0.719906 0)
(0.0982016 -0.711769 0)
(0.14289 -0.677033 0)
(0.289183 -0.433957 0)
(0.243392 -0.399715 0)
(0.195335 -0.382115 0)
(0.145405 -0.35855 0)
(0.0803531 -0.233007 0)
(0.0472332 -0.25563 0)
(0.0077439 -0.267628 0)
(-0.0328129 -0.270811 0)
(0.0366649 -0.271969 0)
(-0.00555462 -0.268726 0)
(-0.0430683 -0.258377 0)
(-0.078088 -0.24392 0)
(-0.0555034 -0.157235 0)
(-0.0711325 -0.159723 0)
(-0.0848461 -0.156557 0)
(-0.101998 -0.152338 0)
(-0.0992572 -0.149107 0)
(-0.104562 -0.153544 0)
(-0.111005 -0.150332 0)
(-0.118191 -0.147309 0)
(-0.0925936 -0.149101 0)
(-0.0996291 -0.147396 0)
(-0.105441 -0.143144 0)
(-0.112666 -0.141136 0)
(-0.0962405 -0.125867 0)
(-0.101675 -0.125951 0)
(-0.104853 -0.12621 0)
(-0.110131 -0.125915 0)
(-0.0896991 -0.118695 0)
(-0.0936023 -0.118708 0)
(-0.0967006 -0.120174 0)
(-0.103102 -0.120204 0)
(-0.0890659 -0.113709 0)
(-0.0910855 -0.114027 0)
(-0.0932459 -0.114125 0)
(-0.0983222 -0.113503 0)
(0.44321 -0.35038 0)
(0.488561 -0.45559 0)
(0.496954 -0.420188 0)
(0.481834 -0.361837 0)
(0.474802 -0.295488 0)
(0.495114 -0.206359 0)
(0.494992 -0.109256 0)
(0.470633 -0.0413706 0)
(0.474586 0.0052109 0)
(0.514896 0.114755 0)
(0.441028 0.278755 0)
(0.23255 0.305953 0)
(-0.127783 0.306162 0)
(-0.133888 0.203634 0)
(-0.184271 0.0534737 0)
(0.149097 0.515445 0)
(0.375416 0.916396 0)
(0.0216843 0.620021 0)
(0.316966 -0.227422 0)
(0.492636 -0.449419 0)
(0.528457 -0.483634 0)
(0.551774 -0.451563 0)
(0.552948 -0.380066 0)
(0.520506 -0.280119 0)
(0.495496 -0.189713 0)
(0.480277 -0.125411 0)
(0.451516 -0.0383934 0)
(0.400835 0.0362753 0)
(0.376749 0.0815994 0)
(0.36442 0.134584 0)
(0.345162 0.176914 0)
(0.259001 0.343628 0)
(0.251429 0.388431 0)
(0.336927 0.107047 0)
(0.404394 0.143605 0)
(0.570914 0.595377 0)
(0.251478 0.629536 0)
(0.435151 -0.0667041 0)
(0.639786 -0.403023 0)
(0.687242 -0.541206 0)
(0.731286 -0.579038 0)
(0.74579 -0.490433 0)
(0.739288 -0.389214 0)
(0.638656 -0.246112 0)
(0.541123 -0.111458 0)
(0.525925 0.0150385 0)
(0.525198 0.0875819 0)
(0.51342 0.15033 0)
(0.481461 0.210592 0)
(0.493535 0.251377 0)
(0.488641 0.250108 0)
(0.534962 0.21486 0)
(0.511773 0.190879 0)
(0.464585 0.14118 0)
(0.582942 0.703876 0)
(0.190544 1.04912 0)
(0.462746 0.200451 0)
(0.664313 -0.586918 0)
(0.677088 -0.611792 0)
(0.693507 -0.51756 0)
(0.76647 -0.175436 0)
(0.790251 -0.0862534 0)
(0.678019 -0.0869879 0)
(0.548819 -0.109145 0)
(0.526391 -0.0237546 0)
(0.554713 0.00872635 0)
(0.568536 0.107479 0)
(0.590189 0.195131 0)
(0.578482 0.261572 0)
(0.563746 0.362932 0)
(0.549564 0.331509 0)
(0.488708 0.236784 0)
(0.33917 0.175606 0)
(0.300593 0.7377 0)
(-0.167972 1.40476 0)
(0.398069 0.374221 0)
(0.470066 -0.503861 0)
(0.501938 -0.434409 0)
(0.573567 0.0411357 0)
(0.510553 0.368617 0)
(1.0599 0.515191 0)
(1.12473 1.23583 0)
(0.809927 1.11799 0)
(0.449584 0.156207 0)
(0.488163 0.0383127 0)
(0.587818 0.0562094 0)
(0.59877 0.0853528 0)
(0.622291 0.142286 0)
(0.574888 0.211973 0)
(0.481665 0.304992 0)
(0.390051 0.328816 0)
(0.317898 0.332876 0)
(0.0180799 0.737271 0)
(-0.111784 1.37211 0)
(0.393944 0.411218 0)
(0.197856 0.118455 0)
(-0.0259898 -0.061122 0)
(-0.0661634 -0.697419 0)
(0.0671559 -1.15408 0)
(0.583002 -1.33415 0)
(1.17544 -0.702814 0)
(2.03099 -0.0299164 0)
(2.95359 0.336012 0)
(3.37931 0.393025 0)
(3.74855 0.687082 0)
(3.30243 0.993617 0)
(1.5715 0.724963 0)
(0.739052 0.519564 0)
(0.440205 0.325217 0)
(0.33482 0.30014 0)
(0.209881 0.461133 0)
(0.0843337 0.734083 0)
(-0.212007 1.68743 0)
(0.410704 0.47434 0)
(-0.158383 -0.56981 0)
(-0.0573595 -0.749042 0)
(-0.0209212 -0.716334 0)
(0.0138414 -0.751441 0)
(-0.222137 -0.898152 0)
(-0.426892 -0.630996 0)
(-0.426738 -0.529615 0)
(-0.348631 -0.515845 0)
(-0.182602 -0.425782 0)
(0.108522 -0.244138 0)
(0.892718 0.298257 0)
(2.34859 1.72906 0)
(2.35699 1.99354 0)
(0.685234 1.05331 0)
(0.212888 0.507019 0)
(0.131284 0.520932 0)
(0.0807475 0.812471 0)
(0.0383427 1.25163 0)
(0.400901 0.625065 0)
(0.121283 -0.623784 0)
(0.00603323 -0.528164 0)
(-0.236557 -0.440905 0)
(-0.359214 -0.555601 0)
(-0.6513 -0.87859 0)
(-0.675962 -0.763281 0)
(-0.588114 -0.654386 0)
(-0.526367 -0.598893 0)
(-0.455132 -0.541428 0)
(-0.334756 -0.449003 0)
(-0.209537 -0.299325 0)
(0.00387787 0.206629 0)
(1.60075 1.77104 0)
(1.46052 2.19514 0)
(0.326829 0.993193 0)
(0.0464418 0.618409 0)
(0.114417 0.853435 0)
(0.127467 1.10604 0)
(0.291012 0.84147 0)
(0.0416248 -0.336119 0)
(-0.1322 -0.270533 0)
(-0.333673 -0.259315 0)
(-0.472531 -0.346381 0)
(-0.782988 -0.782317 0)
(-0.751053 -0.7433 0)
(-0.684499 -0.689377 0)
(-0.625607 -0.679029 0)
(-0.561794 -0.64389 0)
(-0.476124 -0.550872 0)
(-0.348806 -0.398947 0)
(-0.243784 -0.177561 0)
(0.00976556 0.403218 0)
(1.18115 2.0744 0)
(0.942568 2.00716 0)
(0.134247 0.746096 0)
(0.158191 0.837864 0)
(0.105567 1.07372 0)
(0.205523 1.02922 0)
(-0.110794 -0.261563 0)
(-0.202407 -0.209457 0)
(-0.274371 -0.141129 0)
(-0.357753 -0.118315 0)
(-0.690993 -0.529228 0)
(-0.827901 -0.717255 0)
(-0.770039 -0.740164 0)
(-0.677997 -0.72444 0)
(-0.614825 -0.694 0)
(-0.557687 -0.624383 0)
(-0.476619 -0.485169 0)
(-0.369379 -0.213969 0)
(-0.240592 0.167514 0)
(0.118855 1.16465 0)
(0.759237 2.09779 0)
(0.226789 1.35497 0)
(0.239821 0.819149 0)
(0.0999219 1.10888 0)
(0.152012 1.15626 0)
(-0.127183 -0.207513 0)
(-0.175672 -0.15385 0)
(-0.181388 -0.0904081 0)
(-0.159087 -0.0558196 0)
(-0.242881 -0.178105 0)
(-0.517747 -0.595635 0)
(-0.702882 -0.787372 0)
(-0.702945 -0.779717 0)
(-0.682769 -0.725029 0)
(-0.644459 -0.676976 0)
(-0.589595 -0.564851 0)
(-0.52408 -0.328413 0)
(-0.421715 0.0918013 0)
(-0.328591 0.650552 0)
(0.153104 2.01388 0)
(0.0503066 1.61255 0)
(0.206775 0.854564 0)
(0.12677 1.1643 0)
(0.130152 1.25024 0)
(-0.122692 -0.141944 0)
(-0.147022 -0.131682 0)
(-0.13473 -0.11485 0)
(-0.1054 -0.102432 0)
(-0.0943581 -0.143119 0)
(-0.172581 -0.271355 0)
(-0.300102 -0.700815 0)
(-0.599629 -0.806464 0)
(-0.687994 -0.721453 0)
(-0.711137 -0.666064 0)
(-0.695688 -0.585653 0)
(-0.680626 -0.385974 0)
(-0.632856 0.00396329 0)
(-0.543517 0.582327 0)
(-0.550887 1.92571 0)
(-0.0857863 1.54475 0)
(0.165596 0.854547 0)
(0.122665 1.2156 0)
(0.0956886 1.35733 0)
(-0.122942 -0.137486 0)
(-0.129302 -0.13457 0)
(-0.124809 -0.129479 0)
(-0.115117 -0.129472 0)
(-0.104936 -0.159976 0)
(-0.12443 -0.204064 0)
(-0.242498 -0.34491 0)
(-0.208781 -0.764063 0)
(-0.599016 -0.718157 0)
(-0.750689 -0.615315 0)
(-0.771802 -0.555792 0)
(-0.815762 -0.413958 0)
(-0.830662 -0.0641492 0)
(-0.694971 0.542456 0)
(-0.42613 1.4326 0)
(0.0317828 1.17038 0)
(0.140511 0.921526 0)
(0.0248109 1.28242 0)
(0.031733 1.42292 0)
(-0.118835 -0.134726 0)
(-0.126146 -0.131511 0)
(-0.129134 -0.125699 0)
(-0.134275 -0.128957 0)
(-0.139816 -0.150633 0)
(-0.153713 -0.187955 0)
(-0.216019 -0.233821 0)
(-0.232601 -0.403375 0)
(-0.468384 -0.703777 0)
(-0.739634 -0.534471 0)
(-0.848546 -0.490858 0)
(-0.926131 -0.396232 0)
(-1.01645 -0.137983 0)
(-0.881068 0.376592 0)
(-0.463461 0.939896 0)
(-0.147011 0.942829 0)
(-0.0917387 1.05708 0)
(-0.129233 1.31574 0)
(-0.0543701 1.40017 0)
(-0.112711 -0.123499 0)
(-0.119036 -0.12253 0)
(-0.125738 -0.119741 0)
(-0.135774 -0.126014 0)
(-0.156532 -0.139101 0)
(-0.193998 -0.152969 0)
(-0.259393 -0.172327 0)
(-0.340224 -0.215392 0)
(-0.302354 -0.49348 0)
(-0.791318 -0.461122 0)
(-0.926461 -0.367969 0)
(-1.01744 -0.318033 0)
(-1.18045 -0.154202 0)
(-1.17933 0.206697 0)
(-0.858074 0.712959 0)
(-0.601264 0.927392 0)
(-0.523961 1.06878 0)
(-0.422268 1.25365 0)
(-0.11117 1.27151 0)
(-0.10809 -0.117933 0)
(-0.120305 -0.118477 0)
(-0.133444 -0.111302 0)
(-0.145689 -0.108602 0)
(-0.166671 -0.108131 0)
(-0.20577 -0.10649 0)
(-0.275654 -0.0980562 0)
(-0.385034 -0.0597576 0)
(-0.449035 -0.126862 0)
(-0.931515 -0.388651 0)
(-1.02758 -0.255963 0)
(-1.08471 -0.192019 0)
(-1.23392 -0.0850516 0)
(-1.33741 0.118451 0)
(-1.18693 0.488863 0)
(-0.959923 0.781658 0)
(-0.796894 0.869676 0)
(-0.563651 0.887113 0)
(-0.155631 0.859925 0)
(-0.102658 -0.111044 0)
(-0.110517 -0.107553 0)
(-0.121303 -0.101274 0)
(-0.135107 -0.098093 0)
(-0.154903 -0.0890768 0)
(-0.186597 -0.0679598 0)
(-0.227949 -0.0288072 0)
(-0.280933 0.0705623 0)
(-0.334856 0.211013 0)
(-0.642347 -0.159624 0)
(-1.09225 -0.260677 0)
(-1.09104 -0.148457 0)
(-1.13595 -0.0334483 0)
(-1.26804 0.150281 0)
(-1.25241 0.38449 0)
(-1.08202 0.614498 0)
(-0.86556 0.668529 0)
(-0.533001 0.462367 0)
(-0.223027 0.553787 0)
)
;

boundaryField
{
    leftWall
    {
        type            calculated;
        value           nonuniform 0();
    }
    rightWall
    {
        type            calculated;
        value           uniform (0 0 0);
    }
    lowerWall
    {
        type            calculated;
        value           uniform (0 0 0);
    }
    atmosphere
    {
        type            calculated;
        value           nonuniform 0();
    }
    defaultFaces
    {
        type            empty;
    }
    procBoundary1to0
    {
        type            processor;
        value           nonuniform List<vector> 
26
(
(-0.0151362 0.00314763 0)
(-0.0104689 0.00337029 0)
(0.00953144 0.00147077 0)
(0.00893076 -0.00508267 0)
(-0.00271836 -0.0156972 0)
(-0.0301488 -0.0263656 0)
(-0.0449293 -0.0395103 0)
(-0.0434815 -0.0476422 0)
(-0.0275351 -0.0969308 0)
(0.0163267 -0.231683 0)
(0.438102 -0.0337804 0)
(0.517814 -0.29564 0)
(0.397738 -0.253445 0)
(0.210204 -0.330443 0)
(-0.0606358 -0.154541 0)
(-0.197082 -0.158607 0)
(0.375089 -0.495727 0)
(0.375089 -0.495727 0)
(0.134389 -0.16934 0)
(0.0898989 -0.278216 0)
(-0.0243565 -0.155217 0)
(-0.0869985 -0.137773 0)
(-0.0836187 -0.147479 0)
(-0.0876567 -0.125802 0)
(-0.0842608 -0.12323 0)
(-0.0838953 -0.117376 0)
)
;
    }
    procBoundary1to3
    {
        type            processor;
        value           nonuniform List<vector> 
23
(
(-0.0818084 -0.107058 0)
(-0.0843891 -0.107233 0)
(-0.0871297 -0.104749 0)
(-0.0922212 -0.102918 0)
(-0.0976723 -0.1006 0)
(-0.108398 -0.0962813 0)
(-0.119691 -0.0900293 0)
(-0.129929 -0.0813258 0)
(-0.142981 -0.0681145 0)
(-0.158706 -0.0435568 0)
(-0.172072 -0.00270884 0)
(-0.162885 0.0772699 0)
(-0.152102 0.268427 0)
(-0.104337 0.425074 0)
(-0.555725 -0.037483 0)
(-1.02757 -0.257227 0)
(-1.06416 -0.0783553 0)
(-1.00134 0.0985594 0)
(-1.01406 0.241408 0)
(-0.930628 0.362505 0)
(-0.807476 0.350844 0)
(-0.592656 0.190566 0)
(-0.243728 0.165484 0)
)
;
    }
}


// ************************************************************************* //
