/*--------------------------------*- C++ -*----------------------------------*\
| =========                 |                                                 |
| \\      /  F ield         | OpenFOAM: The Open Source CFD Toolbox           |
|  \\    /   O peration     | Version:  2.4.0                                 |
|   \\  /    A nd           | Web:      www.OpenFOAM.org                      |
|    \\/     M anipulation  |                                                 |
\*---------------------------------------------------------------------------*/
FoamFile
{
    version     2.0;
    format      ascii;
    class       volVectorField;
    location    "0.6";
    object      U.air;
}
// * * * * * * * * * * * * * * * * * * * * * * * * * * * * * * * * * * * * * //

dimensions      [0 1 -1 0 0 0 0];

internalField   nonuniform List<vector> 
559
(
(-0.0281714 -0.00237832 0)
(-0.0242627 -0.01834 0)
(0.0121764 -0.0167822 0)
(0.00733467 -0.00968355 0)
(0.012125 -0.00858632 0)
(0.00337422 -0.00560582 0)
(-0.000943906 -0.0196339 0)
(-0.000128671 -0.0246906 0)
(-0.20509 -0.417267 0)
(-0.193159 -0.404518 0)
(0.0376501 -0.39445 0)
(0.286963 -0.365087 0)
(0.507761 -0.333484 0)
(0.64779 -0.328021 0)
(0.724879 -0.349246 0)
(0.743072 -0.363746 0)
(0.752348 -0.354146 0)
(0.736413 -0.328565 0)
(0.697863 -0.320717 0)
(0.625929 -0.300297 0)
(0.595698 -0.276595 0)
(0.608196 -0.260992 0)
(0.600414 -0.258211 0)
(0.54754 -0.181669 0)
(0.312371 -0.0960529 0)
(-0.0388151 -0.150943 0)
(0.0432932 -0.276391 0)
(-0.164895 0.0611904 0)
(-0.0139312 -0.0293836 0)
(0.220494 -0.277684 0)
(0.349532 -0.278466 0)
(0.527821 -0.216785 0)
(0.674015 -0.148726 0)
(0.801581 -0.103058 0)
(0.861346 -0.084046 0)
(0.892022 -0.0564586 0)
(0.916713 -0.000142782 0)
(0.905485 0.0649667 0)
(0.837381 0.137798 0)
(0.756476 0.10347 0)
(0.741074 0.085783 0)
(0.77618 0.170444 0)
(0.72326 0.492719 0)
(0.467207 0.564896 0)
(0.0120006 0.248388 0)
(0.0956943 0.10886 0)
(-0.174715 0.0495296 0)
(-0.108887 0.0538781 0)
(0.160253 -0.242538 0)
(0.383971 -0.293166 0)
(0.499694 -0.255516 0)
(0.60888 -0.26197 0)
(0.713425 -0.238502 0)
(0.792797 -0.219967 0)
(0.836534 -0.212628 0)
(0.868478 -0.190058 0)
(0.867076 -0.152159 0)
(0.814262 -0.0981561 0)
(0.737154 -0.111712 0)
(0.723961 -0.156873 0)
(0.69808 -0.0437764 0)
(0.612439 0.207357 0)
(0.355525 0.50282 0)
(-0.163702 0.236143 0)
(0.00296915 -0.0121128 0)
(0.065348 0.132919 0)
(0.289322 0.0549734 0)
(0.382162 -0.0952757 0)
(0.453507 -0.108113 0)
(0.518858 -0.0654672 0)
(0.5677 -0.0872197 0)
(0.628145 -0.201568 0)
(0.696566 -0.182392 0)
(0.720712 -0.165276 0)
(0.730304 -0.141332 0)
(0.732369 -0.101993 0)
(0.710871 -0.0695064 0)
(0.671354 -0.127173 0)
(0.622426 -0.193977 0)
(0.562719 -0.119544 0)
(0.390973 0.215305 0)
(0.162234 0.4271 0)
(-0.249875 0.304738 0)
(-0.0209211 0.0227069 0)
(0.31488 0.0406233 0)
(0.411826 -0.0487852 0)
(0.500791 -0.115448 0)
(0.518869 0.059587 0)
(0.543608 0.203096 0)
(0.568782 0.381178 0)
(0.574803 0.114316 0)
(0.612276 -0.230732 0)
(0.612119 -0.239539 0)
(0.615253 -0.207387 0)
(0.601668 -0.118369 0)
(0.639584 -0.137138 0)
(0.63487 -0.193767 0)
(0.58485 -0.283231 0)
(0.562005 -0.203169 0)
(0.41076 0.113904 0)
(0.136879 0.469452 0)
(-0.11878 0.300517 0)
(0.00433866 -0.0540931 0)
(0.388699 0.0524107 0)
(0.451662 -0.0735977 0)
(0.568085 -0.16975 0)
(0.616867 0.0157204 0)
(0.62526 0.1304 0)
(0.655581 0.395038 0)
(0.696279 0.343172 0)
(0.642468 -0.20522 0)
(0.571285 -0.285342 0)
(0.515132 -0.141634 0)
(0.545025 -0.127756 0)
(0.587712 -0.119497 0)
(0.630724 -0.202761 0)
(0.504005 -0.0288232 0)
(0.466326 -0.0371498 0)
(0.362482 0.186067 0)
(0.209698 0.425843 0)
(0.0156537 0.300422 0)
(0.0523719 -0.085444 0)
(0.363385 0.146683 0)
(0.457438 -0.116815 0)
(0.608904 -0.240069 0)
(0.69401 0.0609316 0)
(0.724993 0.228561 0)
(0.715806 0.310775 0)
(0.663271 0.365926 0)
(0.721254 0.170073 0)
(0.650205 -0.195822 0)
(0.427894 -0.225439 0)
(0.474633 -0.165886 0)
(0.548592 -0.132629 0)
(0.620259 -0.102025 0)
(0.449046 0.566511 0)
(0.0724079 0.56674 0)
(0.11218 0.229443 0)
(0.214408 0.537129 0)
(0.0354536 0.197502 0)
(0.0419011 -0.0456085 0)
(0.344912 -0.0559753 0)
(0.403979 -0.224989 0)
(0.500743 -0.392633 0)
(0.53711 -0.0105851 0)
(0.579988 0.122612 0)
(0.610329 0.175875 0)
(0.543654 0.204295 0)
(0.555248 0.316281 0)
(0.586236 0.212037 0)
(0.529196 -0.119596 0)
(0.495695 -0.268489 0)
(0.534659 -0.224762 0)
(0.336354 0.417802 0)
(-0.182136 0.646899 0)
(-0.43912 0.727471 0)
(-0.0452461 0.34831 0)
(0.253964 0.599904 0)
(-0.0226728 0.233931 0)
(0.0473363 -0.0499203 0)
(0.0367529 -0.0551969 0)
(0.0744461 -0.289376 0)
(0.472966 -0.153273 0)
(0.575481 -0.172274 0)
(0.519089 0.0428628 0)
(0.287311 -0.114948 0)
(-0.0874642 0.21986 0)
(-0.126541 -0.502536 0)
(0.122115 -0.0790231 0)
(0.204281 -0.0607637 0)
(0.245088 -0.107655 0)
(0.367318 -0.12464 0)
(0.138212 -0.315432 0)
(0.204803 -0.326508 0)
(0.250373 -0.365975 0)
(0.325892 -0.401547 0)
(0.523109 -0.211968 0)
(0.555142 -0.250314 0)
(0.577445 -0.269182 0)
(0.627741 -0.300472 0)
(0.631678 -0.20529 0)
(0.688099 -0.212821 0)
(0.738898 -0.197096 0)
(0.78459 -0.206937 0)
(0.530126 -0.0224898 0)
(0.551332 -0.0745805 0)
(0.556002 -0.107373 0)
(0.557852 -0.158158 0)
(0.312093 -0.200342 0)
(0.375501 -0.27107 0)
(0.38106 -0.322163 0)
(0.343766 -0.157652 0)
(-0.113627 0.477094 0)
(-0.229147 0.415686 0)
(-0.345272 0.183537 0)
(-0.320484 -0.0660535 0)
(-0.0391337 -0.669433 0)
(0.0475037 -0.719905 0)
(0.0982014 -0.711768 0)
(0.14289 -0.677032 0)
(0.289183 -0.433957 0)
(0.243391 -0.399715 0)
(0.195335 -0.382114 0)
(0.145404 -0.35855 0)
(0.0803531 -0.233007 0)
(0.0472332 -0.25563 0)
(0.00774389 -0.267627 0)
(-0.0328129 -0.27081 0)
(0.0366649 -0.271969 0)
(-0.00555462 -0.268726 0)
(-0.0430683 -0.258376 0)
(-0.078088 -0.24392 0)
(-0.0555034 -0.157235 0)
(-0.0711325 -0.159723 0)
(-0.0848461 -0.156557 0)
(-0.101998 -0.152338 0)
(-0.0992572 -0.149107 0)
(-0.104562 -0.153544 0)
(-0.111005 -0.150332 0)
(-0.118192 -0.147309 0)
(-0.0925937 -0.149101 0)
(-0.0996292 -0.147396 0)
(-0.105441 -0.143144 0)
(-0.112666 -0.141136 0)
(-0.0962406 -0.125867 0)
(-0.101675 -0.125952 0)
(-0.104853 -0.12621 0)
(-0.110131 -0.125915 0)
(-0.0896993 -0.118695 0)
(-0.0936026 -0.118708 0)
(-0.0967009 -0.120174 0)
(-0.103103 -0.120204 0)
(-0.0890661 -0.11371 0)
(-0.0910857 -0.114028 0)
(-0.0932461 -0.114125 0)
(-0.0983224 -0.113503 0)
(0.432062 -0.300425 0)
(0.46816 -0.420565 0)
(0.489872 -0.497619 0)
(0.468242 -0.305133 0)
(0.429106 0.0933163 0)
(0.463827 0.16033 0)
(0.500161 0.25726 0)
(0.466411 0.362746 0)
(0.432605 0.425235 0)
(0.491038 0.126674 0)
(0.43527 0.125892 0)
(0.239357 0.306042 0)
(-0.312052 0.648885 0)
(-0.22505 0.348579 0)
(-0.319263 0.158577 0)
(-0.238981 0.908287 0)
(0.465348 0.639963 0)
(0.231077 0.352791 0)
(0.183698 -0.0623684 0)
(0.42889 -0.530775 0)
(0.434025 -0.472856 0)
(0.486089 -0.186311 0)
(0.491389 0.103462 0)
(0.459171 0.215186 0)
(0.449478 0.274719 0)
(0.453923 0.309665 0)
(0.424059 0.35405 0)
(0.353981 0.419147 0)
(0.326986 0.260692 0)
(0.325335 0.131906 0)
(0.311676 0.432125 0)
(0.219905 0.74336 0)
(0.190153 0.892164 0)
(0.288178 0.50773 0)
(0.327986 0.543427 0)
(0.639292 1.31648 0)
(0.176872 1.33102 0)
(0.29588 0.217965 0)
(0.69401 -0.267261 0)
(0.755485 -0.180098 0)
(0.777148 -0.0650603 0)
(0.755675 0.147353 0)
(0.700872 0.304315 0)
(0.545667 0.490338 0)
(0.431975 0.485478 0)
(0.440752 0.522638 0)
(0.45366 0.518189 0)
(0.471693 0.357415 0)
(0.458098 0.214146 0)
(0.446445 0.399134 0)
(0.428144 0.73449 0)
(0.528324 0.673682 0)
(0.568506 0.651934 0)
(0.565499 0.667602 0)
(0.694251 1.33182 0)
(0.0850378 1.42006 0)
(0.315092 0.53065 0)
(0.797194 -0.228563 0)
(0.770895 -0.275889 0)
(0.761171 -0.265032 0)
(0.797508 -0.0236135 0)
(0.809689 0.0609854 0)
(0.654609 0.144317 0)
(0.458967 0.303649 0)
(0.431534 0.516492 0)
(0.469936 0.567604 0)
(0.53663 0.577103 0)
(0.586261 0.608115 0)
(0.574589 0.650613 0)
(0.548688 0.767265 0)
(0.532523 0.570005 0)
(0.558993 0.394843 0)
(0.347406 0.408636 0)
(0.273345 0.881771 0)
(-0.211478 1.48188 0)
(0.325326 0.512576 0)
(0.536846 -0.304013 0)
(0.525252 -0.348216 0)
(0.578368 0.0574966 0)
(0.511173 0.369739 0)
(1.06312 0.518252 0)
(1.13644 1.25454 0)
(0.82527 1.15895 0)
(0.46998 0.291148 0)
(0.525646 0.310174 0)
(0.651146 0.385603 0)
(0.616336 0.466335 0)
(0.562552 0.644808 0)
(0.401244 0.9202 0)
(0.340098 0.661951 0)
(0.324063 0.479223 0)
(0.0511052 0.485741 0)
(-0.0651402 0.834511 0)
(-0.15298 1.45498 0)
(0.359605 0.481603 0)
(0.197944 0.127495 0)
(-0.0260186 -0.060992 0)
(-0.0661589 -0.697415 0)
(0.0678996 -1.15381 0)
(0.590337 -1.33406 0)
(1.1908 -0.700673 0)
(2.06289 -0.0203524 0)
(2.9986 0.347271 0)
(3.45083 0.416449 0)
(3.82565 0.711316 0)
(3.41037 1.04078 0)
(1.68569 0.835975 0)
(0.754869 0.764013 0)
(0.178865 0.799876 0)
(0.00305726 0.729099 0)
(-0.0714927 0.707407 0)
(-0.0946657 0.903661 0)
(-0.265953 1.7856 0)
(0.364593 0.569297 0)
(-0.158382 -0.569809 0)
(-0.0573595 -0.749042 0)
(-0.020921 -0.716334 0)
(0.0163489 -0.750003 0)
(-0.176312 -0.882489 0)
(-0.362403 -0.584174 0)
(-0.369642 -0.455798 0)
(-0.280422 -0.446911 0)
(-0.0856353 -0.345803 0)
(0.230816 -0.146685 0)
(1.00104 0.399358 0)
(2.39625 1.77695 0)
(2.3948 2.0426 0)
(0.683829 1.17666 0)
(-0.0963434 0.910128 0)
(-0.268395 0.902209 0)
(-0.253094 1.09273 0)
(-0.065053 1.4205 0)
(0.348339 0.792127 0)
(0.121282 -0.623783 0)
(0.00603323 -0.528164 0)
(-0.236552 -0.440901 0)
(-0.355285 -0.552985 0)
(-0.603685 -0.871422 0)
(-0.583919 -0.771021 0)
(-0.523829 -0.656096 0)
(-0.454249 -0.557252 0)
(-0.363007 -0.451758 0)
(-0.241338 -0.312772 0)
(-0.100372 -0.12518 0)
(0.0508332 0.366051 0)
(1.64195 1.8393 0)
(1.48893 2.27289 0)
(0.286659 1.13888 0)
(-0.321107 0.969683 0)
(-0.247005 1.2049 0)
(-0.0518173 1.47618 0)
(0.23559 1.17573 0)
(0.0416247 -0.336119 0)
(-0.1322 -0.270533 0)
(-0.333666 -0.259309 0)
(-0.469361 -0.343233 0)
(-0.761364 -0.776504 0)
(-0.717191 -0.790774 0)
(-0.610329 -0.753442 0)
(-0.517896 -0.6965 0)
(-0.458711 -0.614802 0)
(-0.383411 -0.497247 0)
(-0.27548 -0.279387 0)
(-0.251639 0.0542042 0)
(0.00659853 0.582675 0)
(1.21135 2.17361 0)
(0.958307 2.0998 0)
(-0.00930761 0.941004 0)
(-0.227744 1.13346 0)
(-0.132458 1.45706 0)
(0.165628 1.23913 0)
(-0.110794 -0.261563 0)
(-0.202407 -0.209457 0)
(-0.274371 -0.141129 0)
(-0.357285 -0.11789 0)
(-0.682026 -0.523293 0)
(-0.804775 -0.720781 0)
(-0.686961 -0.779274 0)
(-0.535939 -0.771011 0)
(-0.475394 -0.709024 0)
(-0.460693 -0.616079 0)
(-0.384399 -0.438983 0)
(-0.333811 -0.0556331 0)
(-0.386716 0.409162 0)
(0.103663 1.30481 0)
(0.778399 2.19369 0)
(0.193138 1.4361 0)
(-0.087707 0.997963 0)
(-0.170913 1.35258 0)
(0.134874 1.09913 0)
(-0.127183 -0.207513 0)
(-0.175672 -0.15385 0)
(-0.181388 -0.0904081 0)
(-0.159086 -0.0558188 0)
(-0.242567 -0.177876 0)
(-0.511321 -0.593708 0)
(-0.663649 -0.800337 0)
(-0.57117 -0.862389 0)
(-0.486745 -0.797673 0)
(-0.490939 -0.708669 0)
(-0.483897 -0.564834 0)
(-0.465433 -0.262434 0)
(-0.523462 0.267624 0)
(-0.480272 0.835351 0)
(0.13412 2.09691 0)
(0.0201501 1.66976 0)
(-0.000682982 0.939999 0)
(-0.215187 1.3254 0)
(0.0604839 1.12541 0)
(-0.122692 -0.141944 0)
(-0.147022 -0.131682 0)
(-0.13473 -0.11485 0)
(-0.1054 -0.102432 0)
(-0.0943579 -0.143119 0)
(-0.172509 -0.271319 0)
(-0.292962 -0.701277 0)
(-0.5388 -0.839533 0)
(-0.482667 -0.824895 0)
(-0.485927 -0.753623 0)
(-0.542473 -0.632159 0)
(-0.548875 -0.387364 0)
(-0.659106 0.132266 0)
(-0.796641 0.676195 0)
(-0.611978 1.97542 0)
(-0.128613 1.58572 0)
(0.0200724 0.877432 0)
(-0.250414 1.23386 0)
(-0.0202201 1.22871 0)
(-0.122942 -0.137486 0)
(-0.129302 -0.134571 0)
(-0.124809 -0.129479 0)
(-0.115117 -0.129473 0)
(-0.104936 -0.159976 0)
(-0.124429 -0.204064 0)
(-0.242317 -0.344872 0)
(-0.189797 -0.769567 0)
(-0.483646 -0.779177 0)
(-0.471837 -0.714451 0)
(-0.551294 -0.646351 0)
(-0.547492 -0.455007 0)
(-0.745968 -0.0533878 0)
(-0.991829 0.63537 0)
(-0.542883 1.49042 0)
(-0.0326154 1.18975 0)
(-0.0618951 0.871683 0)
(-0.353655 1.10043 0)
(-0.0624408 1.29059 0)
(-0.118835 -0.134726 0)
(-0.126146 -0.131511 0)
(-0.129134 -0.125699 0)
(-0.134276 -0.128957 0)
(-0.139816 -0.150633 0)
(-0.153713 -0.187955 0)
(-0.216017 -0.23382 0)
(-0.230821 -0.403113 0)
(-0.415493 -0.729465 0)
(-0.522275 -0.617684 0)
(-0.596028 -0.616296 0)
(-0.700631 -0.504234 0)
(-0.880038 -0.268656 0)
(-1.04889 0.408314 0)
(-0.664577 1.05084 0)
(-0.266584 0.857151 0)
(-0.360471 0.818931 0)
(-0.426645 1.02521 0)
(-0.0771407 1.28606 0)
(-0.112711 -0.1235 0)
(-0.119036 -0.12253 0)
(-0.125738 -0.119742 0)
(-0.135774 -0.126014 0)
(-0.156532 -0.139101 0)
(-0.193998 -0.152969 0)
(-0.259393 -0.172327 0)
(-0.340039 -0.215344 0)
(-0.275801 -0.496969 0)
(-0.670504 -0.526736 0)
(-0.69582 -0.503071 0)
(-0.835361 -0.491527 0)
(-1.01601 -0.28663 0)
(-1.19037 0.0169907 0)
(-1.03267 0.578064 0)
(-0.850304 0.65827 0)
(-0.821906 0.71636 0)
(-0.50368 1.07166 0)
(-0.0549353 1.20657 0)
(-0.108091 -0.117934 0)
(-0.120306 -0.118477 0)
(-0.133445 -0.111303 0)
(-0.14569 -0.108603 0)
(-0.166671 -0.108131 0)
(-0.20577 -0.10649 0)
(-0.275653 -0.098056 0)
(-0.385018 -0.0597543 0)
(-0.44215 -0.125799 0)
(-0.879804 -0.424735 0)
(-0.894044 -0.370591 0)
(-0.944533 -0.390002 0)
(-1.16027 -0.271835 0)
(-1.32889 -0.0508706 0)
(-1.20101 0.297893 0)
(-0.988256 0.586419 0)
(-0.796626 0.713259 0)
(-0.485827 0.892114 0)
(-0.0958946 0.891916 0)
(-0.102658 -0.111044 0)
(-0.110517 -0.107553 0)
(-0.121304 -0.101274 0)
(-0.135107 -0.0980932 0)
(-0.154904 -0.089077 0)
(-0.186597 -0.0679598 0)
(-0.227949 -0.0288072 0)
(-0.280932 0.0705624 0)
(-0.334595 0.211077 0)
(-0.620361 -0.159653 0)
(-1.05634 -0.31625 0)
(-1.05398 -0.289501 0)
(-1.12868 -0.215036 0)
(-1.27444 0.0852033 0)
(-1.26784 0.35288 0)
(-1.09535 0.597923 0)
(-0.853448 0.696373 0)
(-0.499892 0.553027 0)
(-0.186536 0.652993 0)
)
;

boundaryField
{
    leftWall
    {
        type            fixedValue;
        value           nonuniform 0();
    }
    rightWall
    {
        type            fixedValue;
        value           uniform (0 0 0);
    }
    lowerWall
    {
        type            fixedValue;
        value           uniform (0 0 0);
    }
    atmosphere
    {
        type            fluxCorrectedVelocity;
        value           nonuniform 0();
    }
    defaultFaces
    {
        type            empty;
    }
    procBoundary1to0
    {
        type            processor;
        value           nonuniform List<vector> 
26
(
(-0.0151387 0.00314808 0)
(-0.0104713 0.00337215 0)
(0.00952923 0.00147489 0)
(0.00892891 -0.00507765 0)
(-0.00272019 -0.0156906 0)
(-0.03015 -0.0263562 0)
(-0.0449301 -0.0395007 0)
(-0.043482 -0.0476346 0)
(-0.027572 -0.0956223 0)
(0.0105412 -0.286842 0)
(0.438083 -0.0987319 0)
(0.520197 -0.15526 0)
(0.466731 0.0660208 0)
(0.235141 -0.00338453 0)
(-0.0655275 -0.108471 0)
(-0.197082 -0.158607 0)
(0.375089 -0.495727 0)
(0.375089 -0.495727 0)
(0.134389 -0.16934 0)
(0.089899 -0.278216 0)
(-0.0243565 -0.155218 0)
(-0.0869985 -0.137773 0)
(-0.0836187 -0.147479 0)
(-0.0876567 -0.125802 0)
(-0.084261 -0.12323 0)
(-0.0838954 -0.117376 0)
)
;
    }
    procBoundary1to3
    {
        type            processor;
        value           nonuniform List<vector> 
23
(
(-0.0818084 -0.107058 0)
(-0.0843891 -0.107233 0)
(-0.0871298 -0.104749 0)
(-0.0922213 -0.102918 0)
(-0.0976725 -0.1006 0)
(-0.108399 -0.0962815 0)
(-0.119692 -0.0900296 0)
(-0.12993 -0.0813261 0)
(-0.142981 -0.0681146 0)
(-0.158706 -0.0435569 0)
(-0.172072 -0.00270884 0)
(-0.162885 0.07727 0)
(-0.152091 0.268427 0)
(-0.102459 0.425472 0)
(-0.539763 -0.0374962 0)
(-0.991209 -0.28577 0)
(-1.06012 -0.153367 0)
(-1.10882 0.120565 0)
(-1.1926 0.438099 0)
(-1.12127 0.735562 0)
(-0.927811 0.750032 0)
(-0.757899 0.519146 0)
(-0.350721 0.44468 0)
)
;
    }
}


// ************************************************************************* //
