/*--------------------------------*- C++ -*----------------------------------*\
| =========                 |                                                 |
| \\      /  F ield         | OpenFOAM: The Open Source CFD Toolbox           |
|  \\    /   O peration     | Version:  2.4.0                                 |
|   \\  /    A nd           | Web:      www.OpenFOAM.org                      |
|    \\/     M anipulation  |                                                 |
\*---------------------------------------------------------------------------*/
FoamFile
{
    version     2.0;
    format      ascii;
    class       volVectorField;
    location    "0.6";
    object      U.mercury;
}
// * * * * * * * * * * * * * * * * * * * * * * * * * * * * * * * * * * * * * //

dimensions      [0 1 -1 0 0 0 0];

internalField   nonuniform List<vector> 
559
(
(-0.0281706 -0.00237897 0)
(-0.0242621 -0.0183422 0)
(0.0121771 -0.0167867 0)
(0.00733519 -0.00968869 0)
(0.0121256 -0.0085936 0)
(0.00337447 -0.00561585 0)
(-0.000943591 -0.0196439 0)
(-0.000128612 -0.0246986 0)
(-0.164917 -0.514594 0)
(-0.148543 -0.483895 0)
(0.0706179 -0.446847 0)
(0.286971 -0.416331 0)
(0.480193 -0.381584 0)
(0.612994 -0.376733 0)
(0.695177 -0.39554 0)
(0.721546 -0.411609 0)
(0.735238 -0.416806 0)
(0.727723 -0.42067 0)
(0.698196 -0.437811 0)
(0.628664 -0.444884 0)
(0.601764 -0.413025 0)
(0.61754 -0.385989 0)
(0.609126 -0.361372 0)
(0.552142 -0.380911 0)
(0.314348 -0.32909 0)
(-0.0322425 -0.249743 0)
(0.0508847 -0.329965 0)
(-0.0640358 -0.212114 0)
(0.0930628 -0.351448 0)
(0.264133 -0.398688 0)
(0.351329 -0.348672 0)
(0.507616 -0.291112 0)
(0.640672 -0.240897 0)
(0.757932 -0.218405 0)
(0.821614 -0.21038 0)
(0.862406 -0.195786 0)
(0.894764 -0.157779 0)
(0.891627 -0.107735 0)
(0.840723 -0.0758642 0)
(0.775454 -0.116426 0)
(0.756642 -0.128198 0)
(0.789527 -0.0792099 0)
(0.764242 0.0766365 0)
(0.548826 0.107382 0)
(0.0920256 0.0736511 0)
(0.128306 0.0428313 0)
(0.0288119 -0.209722 0)
(0.223938 -0.473913 0)
(0.348767 -0.505951 0)
(0.39299 -0.442361 0)
(0.488217 -0.375061 0)
(0.584562 -0.330755 0)
(0.682422 -0.30956 0)
(0.75993 -0.296507 0)
(0.803055 -0.292612 0)
(0.833859 -0.277591 0)
(0.83439 -0.268901 0)
(0.810376 -0.27146 0)
(0.749699 -0.306243 0)
(0.708051 -0.374917 0)
(0.691604 -0.384378 0)
(0.724051 -0.264332 0)
(0.565366 0.0217095 0)
(-0.000613654 0.00259613 0)
(0.0526852 -0.10273 0)
(0.125564 -0.0831558 0)
(0.303996 -0.421547 0)
(0.40617 -0.49482 0)
(0.434632 -0.457206 0)
(0.48242 -0.385723 0)
(0.548943 -0.321406 0)
(0.614544 -0.280642 0)
(0.679025 -0.252665 0)
(0.699912 -0.23948 0)
(0.704986 -0.225189 0)
(0.698854 -0.22136 0)
(0.691901 -0.235657 0)
(0.659187 -0.301324 0)
(0.594977 -0.397918 0)
(0.55857 -0.440897 0)
(0.549922 -0.429944 0)
(0.521535 -0.226977 0)
(-0.0309166 -0.0784663 0)
(0.0752548 -0.138688 0)
(0.290595 -0.0757539 0)
(0.346243 -0.430052 0)
(0.431653 -0.519647 0)
(0.458467 -0.50301 0)
(0.482915 -0.449222 0)
(0.513397 -0.395356 0)
(0.553036 -0.369394 0)
(0.600733 -0.328733 0)
(0.599204 -0.325372 0)
(0.599873 -0.313705 0)
(0.586346 -0.278215 0)
(0.637648 -0.298046 0)
(0.619017 -0.357446 0)
(0.556182 -0.489793 0)
(0.545331 -0.5713 0)
(0.51605 -0.475548 0)
(0.438821 -0.271577 0)
(0.0863586 -0.19913 0)
(0.130028 -0.249582 0)
(0.364695 -0.154606 0)
(0.366335 -0.436512 0)
(0.435273 -0.555407 0)
(0.4819 -0.607626 0)
(0.508752 -0.626493 0)
(0.532373 -0.587948 0)
(0.586726 -0.600597 0)
(0.60086 -0.542185 0)
(0.564819 -0.491492 0)
(0.519468 -0.321975 0)
(0.556868 -0.284382 0)
(0.579644 -0.286755 0)
(0.61278 -0.390196 0)
(0.488687 -0.528753 0)
(0.461907 -0.628208 0)
(0.47284 -0.450991 0)
(0.426228 -0.214436 0)
(0.259485 -0.251542 0)
(0.168694 -0.323942 0)
(0.364993 -0.303682 0)
(0.37952 -0.501532 0)
(0.435053 -0.624025 0)
(0.482219 -0.725136 0)
(0.571988 -0.893014 0)
(0.654034 -1.0324 0)
(0.719773 -1.22544 0)
(0.730919 -1.19605 0)
(0.721166 -1.13217 0)
(0.441111 -0.439412 0)
(0.502562 -0.34106 0)
(0.551816 -0.34569 0)
(0.525558 -0.448675 0)
(0.458244 -0.703717 0)
(0.433786 -0.754478 0)
(0.436142 -0.503693 0)
(0.447018 -0.174005 0)
(0.348248 -0.296234 0)
(0.204293 -0.352978 0)
(0.380701 -0.366969 0)
(0.405031 -0.567237 0)
(0.433089 -0.680018 0)
(0.462395 -0.766917 0)
(0.50167 -0.85382 0)
(0.657058 -1.11735 0)
(0.752675 -1.27342 0)
(0.702072 -1.08667 0)
(0.756964 -1.05373 0)
(0.621776 -0.765996 0)
(0.525249 -0.479051 0)
(0.567539 -0.51345 0)
(0.571829 -0.644565 0)
(0.479037 -0.87137 0)
(0.403347 -0.773718 0)
(0.445316 -0.5501 0)
(0.466629 -0.138026 0)
(0.441221 -0.256966 0)
(0.264216 -0.33694 0)
(0.0365231 -0.0608294 0)
(0.0673765 -0.341092 0)
(0.480786 -0.448123 0)
(0.540285 -0.458711 0)
(0.442842 -0.352127 0)
(0.246179 -0.512278 0)
(-0.0209296 -0.412988 0)
(-0.127253 -0.502155 0)
(0.121139 -0.086288 0)
(0.202342 -0.0689165 0)
(0.241088 -0.117299 0)
(0.347079 -0.132876 0)
(0.127005 -0.37285 0)
(0.189969 -0.389467 0)
(0.22863 -0.436837 0)
(0.294862 -0.484234 0)
(0.534912 -0.488906 0)
(0.555955 -0.548871 0)
(0.580205 -0.589359 0)
(0.598279 -0.645999 0)
(0.575874 -0.50687 0)
(0.599842 -0.53597 0)
(0.615359 -0.568975 0)
(0.632319 -0.60444 0)
(0.441177 -0.430238 0)
(0.442634 -0.490779 0)
(0.434361 -0.556522 0)
(0.440262 -0.607353 0)
(0.238705 -0.596 0)
(0.242061 -0.649199 0)
(0.248886 -0.700835 0)
(0.243973 -0.680799 0)
(-0.0716504 0.0952891 0)
(-0.207789 0.292287 0)
(-0.34404 0.173299 0)
(-0.321566 -0.067607 0)
(-0.0400103 -0.668932 0)
(0.04659 -0.719293 0)
(0.0973202 -0.711083 0)
(0.141985 -0.676348 0)
(0.288487 -0.433442 0)
(0.242652 -0.399108 0)
(0.194583 -0.381433 0)
(0.144651 -0.357805 0)
(0.0797834 -0.232492 0)
(0.046638 -0.255043 0)
(0.00714427 -0.266968 0)
(-0.0333993 -0.270075 0)
(0.0362194 -0.271477 0)
(-0.00602736 -0.268166 0)
(-0.0435381 -0.25776 0)
(-0.0785234 -0.24324 0)
(-0.0558475 -0.156774 0)
(-0.0714927 -0.159211 0)
(-0.0851979 -0.155995 0)
(-0.102318 -0.151725 0)
(-0.0995196 -0.148676 0)
(-0.104833 -0.153066 0)
(-0.111264 -0.149817 0)
(-0.118419 -0.146755 0)
(-0.0927839 -0.148705 0)
(-0.0998217 -0.14696 0)
(-0.105623 -0.142678 0)
(-0.112816 -0.140638 0)
(-0.0963729 -0.125503 0)
(-0.10181 -0.125557 0)
(-0.104976 -0.125788 0)
(-0.110232 -0.125471 0)
(-0.0897791 -0.11836 0)
(-0.0936785 -0.118346 0)
(-0.096779 -0.119796 0)
(-0.103167 -0.119809 0)
(-0.0891097 -0.113397 0)
(-0.0911322 -0.113704 0)
(-0.0932968 -0.113791 0)
(-0.0983636 -0.113157 0)
(0.406591 -0.362961 0)
(0.461178 -0.600867 0)
(0.490586 -0.793934 0)
(0.496411 -0.926099 0)
(0.515088 -0.937175 0)
(0.520978 -0.841667 0)
(0.540744 -0.807111 0)
(0.526254 -0.67988 0)
(0.52266 -0.414419 0)
(0.601478 -0.743614 0)
(0.594426 -0.767597 0)
(0.59249 -0.771522 0)
(0.454477 -0.75197 0)
(0.342517 -0.622708 0)
(0.353334 -0.674568 0)
(0.429302 -0.528775 0)
(0.513399 -0.162666 0)
(0.493242 -0.225395 0)
(0.430461 -0.344849 0)
(0.373484 -0.669998 0)
(0.393331 -0.824087 0)
(0.473703 -0.965583 0)
(0.562604 -1.05381 0)
(0.606127 -0.753273 0)
(0.535785 -0.439906 0)
(0.525706 -0.290461 0)
(0.496832 -0.19031 0)
(0.452748 -0.112108 0)
(0.423852 -0.056427 0)
(0.410467 -0.0211347 0)
(0.416833 0.00240753 0)
(0.419754 -0.0538246 0)
(0.552819 -0.589482 0)
(0.49863 -0.540698 0)
(0.5313 -0.509994 0)
(0.578512 -0.324138 0)
(0.589044 -0.338934 0)
(0.563135 -0.289246 0)
(0.621666 -0.753951 0)
(0.615178 -0.900529 0)
(0.666682 -0.903102 0)
(0.716178 -0.786905 0)
(0.734602 -0.642139 0)
(0.668479 -0.433879 0)
(0.581349 -0.266062 0)
(0.560729 -0.148322 0)
(0.553298 -0.0662442 0)
(0.548332 0.00313858 0)
(0.527662 0.0633095 0)
(0.541138 0.0994201 0)
(0.542773 0.0880455 0)
(0.565181 -0.46028 0)
(0.610606 -0.580394 0)
(0.579972 -0.488909 0)
(0.582896 -0.437826 0)
(0.69255 -0.492624 0)
(0.625638 -0.210148 0)
(0.655607 -0.666532 0)
(0.658135 -0.766487 0)
(0.636863 -0.82487 0)
(0.67005 -0.846997 0)
(0.732025 -0.753184 0)
(0.742495 -0.586562 0)
(0.623044 -0.394107 0)
(0.575891 -0.284592 0)
(0.587577 -0.161992 0)
(0.590323 -0.0437694 0)
(0.615965 0.0496279 0)
(0.609782 0.113137 0)
(0.601221 0.209921 0)
(0.582462 0.173996 0)
(0.612797 -0.0798057 0)
(0.629069 -0.479744 0)
(0.713632 -0.535952 0)
(0.706578 -0.512884 0)
(0.631142 -0.191044 0)
(0.393161 -0.71887 0)
(0.390704 -0.853028 0)
(0.363791 -0.712076 0)
(0.250799 -0.113203 0)
(0.362804 -0.148878 0)
(0.437422 0.138992 0)
(0.297356 -0.307707 0)
(0.401315 -0.288946 0)
(0.460139 -0.249934 0)
(0.555526 -0.165121 0)
(0.599525 -0.113184 0)
(0.6471 -0.0647767 0)
(0.635843 0.0465896 0)
(0.563913 0.154512 0)
(0.450187 0.216941 0)
(0.492719 -0.205423 0)
(0.530643 -0.137857 0)
(0.679594 -0.427445 0)
(0.60788 -0.15513 0)
(0.191275 -0.466375 0)
(-0.011421 -0.132382 0)
(-0.0698139 -0.699588 0)
(-0.233501 -1.25932 0)
(-0.23074 -1.3434 0)
(0.0998322 -0.852845 0)
(0.362997 -0.535062 0)
(0.843497 -0.210909 0)
(0.864971 -0.428863 0)
(1.51639 -0.0251851 0)
(1.26998 0.0867898 0)
(0.82199 -0.0153075 0)
(0.719574 -0.0707555 0)
(0.611561 0.045216 0)
(0.452547 0.142568 0)
(0.304481 0.279672 0)
(0.473362 0.235651 0)
(0.720532 -0.374612 0)
(0.550267 0.00508173 0)
(-0.159516 -0.570007 0)
(-0.0586425 -0.748061 0)
(-0.0224279 -0.715181 0)
(-0.544763 -1.06919 0)
(-0.918927 -1.13566 0)
(-0.701335 -0.832389 0)
(-0.556662 -0.69718 0)
(-0.473836 -0.642808 0)
(-0.355608 -0.569196 0)
(-0.18376 -0.466642 0)
(0.217161 -0.288134 0)
(0.844869 0.223709 0)
(1.12683 0.394976 0)
(0.73495 0.0638006 0)
(0.463378 0.164149 0)
(0.290158 0.33821 0)
(0.352563 0.37055 0)
(0.591673 -0.0287123 0)
(0.462444 0.22711 0)
(0.120292 -0.622943 0)
(0.00497336 -0.527003 0)
(-0.239691 -0.442104 0)
(-0.774116 -0.829996 0)
(-0.928407 -0.920013 0)
(-0.740796 -0.763719 0)
(-0.61001 -0.668137 0)
(-0.547121 -0.617167 0)
(-0.479619 -0.567109 0)
(-0.365477 -0.488132 0)
(-0.252639 -0.374456 0)
(-0.115943 -0.205602 0)
(0.611777 0.278325 0)
(0.824229 0.412832 0)
(0.609823 0.238591 0)
(0.323268 0.272962 0)
(0.324216 0.482435 0)
(0.431444 0.380815 0)
(0.370949 0.456774 0)
(0.0408757 -0.335222 0)
(-0.132921 -0.269677 0)
(-0.337215 -0.262688 0)
(-0.763137 -0.634156 0)
(-0.885411 -0.809871 0)
(-0.768604 -0.728274 0)
(-0.692846 -0.691636 0)
(-0.641776 -0.677087 0)
(-0.59288 -0.650748 0)
(-0.513028 -0.575578 0)
(-0.376849 -0.441617 0)
(-0.253388 -0.267329 0)
(-0.0494169 -0.0737267 0)
(0.601788 0.209033 0)
(0.650198 0.441799 0)
(0.430166 0.284815 0)
(0.383573 0.412139 0)
(0.341095 0.657114 0)
(0.327584 0.634507 0)
(-0.111329 -0.260745 0)
(-0.202892 -0.208986 0)
(-0.275429 -0.142635 0)
(-0.466209 -0.216502 0)
(-0.877325 -0.652293 0)
(-0.885584 -0.709607 0)
(-0.801435 -0.723035 0)
(-0.701335 -0.71675 0)
(-0.651447 -0.688944 0)
(-0.609198 -0.628202 0)
(-0.530388 -0.503461 0)
(-0.397483 -0.271721 0)
(-0.229987 -0.019721 0)
(0.0439518 0.156435 0)
(0.336798 0.444643 0)
(0.458182 0.414411 0)
(0.414998 0.426864 0)
(0.311501 0.749178 0)
(0.304601 0.770593 0)
(-0.127569 -0.20679 0)
(-0.176012 -0.15346 0)
(-0.182242 -0.0914544 0)
(-0.161831 -0.0579219 0)
(-0.328831 -0.240159 0)
(-0.764872 -0.670772 0)
(-0.856645 -0.736405 0)
(-0.778169 -0.736985 0)
(-0.724006 -0.713653 0)
(-0.699742 -0.661473 0)
(-0.656617 -0.550475 0)
(-0.579858 -0.337247 0)
(-0.426874 -0.0313254 0)
(-0.171709 0.221834 0)
(0.414414 0.604839 0)
(0.465932 0.559205 0)
(0.402118 0.466914 0)
(0.289468 0.823611 0)
(0.290085 0.890095 0)
(-0.122957 -0.141301 0)
(-0.147248 -0.131243 0)
(-0.135086 -0.115031 0)
(-0.1066 -0.103501 0)
(-0.0961254 -0.143464 0)
(-0.200954 -0.285368 0)
(-0.65172 -0.679769 0)
(-0.823191 -0.691983 0)
(-0.780275 -0.680659 0)
(-0.76759 -0.639479 0)
(-0.767905 -0.546499 0)
(-0.743488 -0.346668 0)
(-0.612508 -0.0386428 0)
(-0.268152 0.285803 0)
(0.454435 0.677394 0)
(0.43871 0.524068 0)
(0.342642 0.498472 0)
(0.255036 1.03293 0)
(0.263777 0.999359 0)
(-0.123115 -0.136896 0)
(-0.129409 -0.134045 0)
(-0.124908 -0.12921 0)
(-0.115426 -0.129761 0)
(-0.105783 -0.160568 0)
(-0.125496 -0.204124 0)
(-0.299187 -0.354817 0)
(-0.715303 -0.620511 0)
(-0.832323 -0.607711 0)
(-0.826908 -0.582865 0)
(-0.845063 -0.507268 0)
(-0.88757 -0.345407 0)
(-0.826716 -0.0223433 0)
(-0.461207 0.335042 0)
(0.0735565 0.517819 0)
(0.241519 0.426487 0)
(0.198871 0.650024 0)
(0.183449 1.2898 0)
(0.22869 1.06541 0)
(-0.118935 -0.134193 0)
(-0.126181 -0.130978 0)
(-0.129111 -0.125269 0)
(-0.134267 -0.12881 0)
(-0.139855 -0.150889 0)
(-0.153805 -0.188399 0)
(-0.215557 -0.233513 0)
(-0.494534 -0.441161 0)
(-0.862181 -0.524102 0)
(-0.894238 -0.485592 0)
(-0.913746 -0.438839 0)
(-0.994201 -0.314027 0)
(-1.03484 -0.0505972 0)
(-0.785686 0.338046 0)
(-0.323548 0.623452 0)
(-0.0517016 0.673302 0)
(0.00899553 0.965061 0)
(0.164094 1.19558 0)
(0.194487 1.09166 0)
(-0.112769 -0.123024 0)
(-0.119038 -0.122045 0)
(-0.125681 -0.119286 0)
(-0.135672 -0.125696 0)
(-0.15638 -0.139016 0)
(-0.193818 -0.153312 0)
(-0.258666 -0.172802 0)
(-0.408931 -0.231693 0)
(-0.913695 -0.41493 0)
(-1.01203 -0.369548 0)
(-0.995676 -0.323304 0)
(-1.06049 -0.232686 0)
(-1.19553 -0.0409259 0)
(-1.10501 0.281695 0)
(-0.739386 0.617645 0)
(-0.437953 0.818375 0)
(-0.167731 1.02019 0)
(0.0798158 1.15558 0)
(0.175411 1.08452 0)
(-0.108122 -0.11752 0)
(-0.120288 -0.118048 0)
(-0.133384 -0.110885 0)
(-0.145581 -0.108243 0)
(-0.166526 -0.107929 0)
(-0.205578 -0.106632 0)
(-0.275022 -0.0987221 0)
(-0.390453 -0.062211 0)
(-0.97123 -0.206786 0)
(-1.16692 -0.254692 0)
(-1.12052 -0.200655 0)
(-1.11143 -0.118443 0)
(-1.20334 0.0261394 0)
(-1.24691 0.240742 0)
(-1.00683 0.531415 0)
(-0.667573 0.759508 0)
(-0.283581 0.949547 0)
(0.00977024 1.0667 0)
(0.153118 1.0415 0)
(-0.102672 -0.110683 0)
(-0.110489 -0.107179 0)
(-0.121238 -0.100902 0)
(-0.135009 -0.0977514 0)
(-0.154775 -0.0888248 0)
(-0.186439 -0.0679462 0)
(-0.227717 -0.0292662 0)
(-0.280422 0.0686153 0)
(-0.4775 0.173945 0)
(-1.23297 -0.15943 0)
(-1.20489 -0.15127 0)
(-1.16294 -0.0871922 0)
(-1.13669 0.0575378 0)
(-1.1466 0.262822 0)
(-1.03474 0.493236 0)
(-0.712807 0.687284 0)
(-0.325265 0.854718 0)
(-0.037144 0.932007 0)
(0.0919647 0.95635 0)
)
;

boundaryField
{
    leftWall
    {
        type            fixedValue;
        value           nonuniform 0();
    }
    rightWall
    {
        type            fixedValue;
        value           uniform (0 0 0);
    }
    lowerWall
    {
        type            fixedValue;
        value           uniform (0 0 0);
    }
    atmosphere
    {
        type            fluxCorrectedVelocity;
        value           nonuniform 0();
    }
    defaultFaces
    {
        type            empty;
    }
    procBoundary1to0
    {
        type            processor;
        value           nonuniform List<vector> 
26
(
(-0.0151362 0.00314763 0)
(-0.0104689 0.00337028 0)
(0.00953144 0.00147077 0)
(0.00893076 -0.00508267 0)
(-0.00271836 -0.0156972 0)
(-0.0301488 -0.0263656 0)
(-0.0449293 -0.0395103 0)
(-0.0434815 -0.0476423 0)
(-0.0274011 -0.101946 0)
(0.00524763 -0.337495 0)
(0.437992 -0.362875 0)
(0.489674 -0.409199 0)
(0.407703 -0.282061 0)
(0.213098 -0.424291 0)
(-0.0178601 -0.558454 0)
(-0.197679 -0.158381 0)
(0.374472 -0.49536 0)
(0.374472 -0.49536 0)
(0.1339 -0.168911 0)
(0.0895133 -0.277801 0)
(-0.0246501 -0.15482 0)
(-0.0872189 -0.137395 0)
(-0.083778 -0.147125 0)
(-0.0877627 -0.125472 0)
(-0.0843268 -0.122919 0)
(-0.0839317 -0.117088 0)
)
;
    }
    procBoundary1to3
    {
        type            processor;
        value           nonuniform List<vector> 
23
(
(-0.0818323 -0.106781 0)
(-0.0844219 -0.106951 0)
(-0.087164 -0.104457 0)
(-0.0922459 -0.102618 0)
(-0.0976697 -0.100284 0)
(-0.108363 -0.0959581 0)
(-0.119628 -0.0897011 0)
(-0.129835 -0.0810173 0)
(-0.142871 -0.0678503 0)
(-0.158579 -0.0434433 0)
(-0.171902 -0.00298476 0)
(-0.162734 0.0761874 0)
(-0.159706 0.264152 0)
(-0.623172 0.313984 0)
(-1.27813 -0.0369589 0)
(-1.25783 -0.089882 0)
(-1.10686 -0.00412953 0)
(-1.03287 0.130877 0)
(-0.952552 0.323327 0)
(-0.7269 0.501611 0)
(-0.452977 0.646816 0)
(-0.194633 0.68236 0)
(-0.00298762 0.767765 0)
)
;
    }
}


// ************************************************************************* //
