/*--------------------------------*- C++ -*----------------------------------*\
| =========                 |                                                 |
| \\      /  F ield         | OpenFOAM: The Open Source CFD Toolbox           |
|  \\    /   O peration     | Version:  2.4.0                                 |
|   \\  /    A nd           | Web:      www.OpenFOAM.org                      |
|    \\/     M anipulation  |                                                 |
\*---------------------------------------------------------------------------*/
FoamFile
{
    version     2.0;
    format      ascii;
    class       volVectorField;
    location    "0.6";
    object      U.water;
}
// * * * * * * * * * * * * * * * * * * * * * * * * * * * * * * * * * * * * * //

dimensions      [0 1 -1 0 0 0 0];

internalField   nonuniform List<vector> 
559
(
(-0.0281714 -0.00237762 0)
(-0.0242628 -0.0183384 0)
(0.0121762 -0.0167762 0)
(0.00733344 -0.00966436 0)
(0.0121221 -0.00854288 0)
(0.00336754 -0.00549771 0)
(-0.000965628 -0.0195176 0)
(-0.000108137 0.0181355 0)
(-0.213598 -0.413539 0)
(-0.204044 -0.427354 0)
(0.0366843 -0.391769 0)
(0.286421 -0.361646 0)
(0.504256 -0.33193 0)
(0.641442 -0.329943 0)
(0.717345 -0.351351 0)
(0.734487 -0.368122 0)
(0.741268 -0.377391 0)
(0.729311 -0.387215 0)
(0.697821 -0.404939 0)
(0.627314 -0.410506 0)
(0.597323 -0.377098 0)
(0.607005 -0.338923 0)
(0.586806 -0.250238 0)
(0.499799 -0.16937 0)
(0.273293 -0.0808128 0)
(-0.0538985 -0.0977705 0)
(0.0274424 -0.212617 0)
(-0.173731 0.0700504 0)
(-0.0458693 -0.144779 0)
(0.232354 -0.275142 0)
(0.350481 -0.244707 0)
(0.5308 -0.20162 0)
(0.681183 -0.138933 0)
(0.809441 -0.0913282 0)
(0.868709 -0.0721921 0)
(0.901008 -0.0552083 0)
(0.922929 -0.0179057 0)
(0.905292 0.0159657 0)
(0.84096 0.0313188 0)
(0.768384 -0.0136028 0)
(0.7508 -0.0212593 0)
(0.784508 0.0716695 0)
(0.737975 0.381711 0)
(0.494441 0.437304 0)
(0.0150833 0.346783 0)
(0.083684 0.205078 0)
(-0.117676 0.0511733 0)
(0.148622 -0.347831 0)
(0.323128 -0.270337 0)
(0.408068 -0.231165 0)
(0.518691 -0.251324 0)
(0.614256 -0.238119 0)
(0.71711 -0.224237 0)
(0.79749 -0.208276 0)
(0.841605 -0.200548 0)
(0.873823 -0.176098 0)
(0.87103 -0.14329 0)
(0.823848 -0.119935 0)
(0.749397 -0.160097 0)
(0.724509 -0.206663 0)
(0.720335 -0.162045 0)
(0.729942 0.114456 0)
(0.404102 0.495272 0)
(-0.136911 0.351448 0)
(-0.0266036 0.0601381 0)
(0.0352486 0.107626 0)
(0.313111 -0.246068 0)
(0.4146 -0.276745 0)
(0.462396 -0.196614 0)
(0.544998 -0.117578 0)
(0.603194 -0.121903 0)
(0.642171 -0.158143 0)
(0.698804 -0.14946 0)
(0.723085 -0.149591 0)
(0.73416 -0.128194 0)
(0.737805 -0.0841233 0)
(0.717778 -0.0619718 0)
(0.679943 -0.13658 0)
(0.647738 -0.160796 0)
(0.637782 -0.103814 0)
(0.599656 0.13028 0)
(0.0791685 0.534226 0)
(-0.43573 0.450994 0)
(-0.00644685 0.0586821 0)
(0.291757 0.0523083 0)
(0.384485 -0.245504 0)
(0.477451 -0.309697 0)
(0.498793 -0.244552 0)
(0.53476 -0.164308 0)
(0.573741 -0.0877433 0)
(0.630472 -0.0436343 0)
(0.674323 -0.0387731 0)
(0.633615 -0.181271 0)
(0.618936 -0.183565 0)
(0.602912 -0.0992297 0)
(0.641934 -0.106115 0)
(0.651321 -0.154655 0)
(0.643004 -0.104576 0)
(0.62142 -0.0185951 0)
(0.507308 0.157894 0)
(-0.0288668 0.504311 0)
(-0.458141 0.424308 0)
(0.0394894 -0.0111561 0)
(0.380419 0.0924108 0)
(0.408883 -0.255749 0)
(0.504062 -0.353188 0)
(0.54424 -0.294384 0)
(0.560763 -0.231907 0)
(0.591468 -0.130012 0)
(0.634317 -0.0710133 0)
(0.663241 -0.00630277 0)
(0.663322 0.026439 0)
(0.582221 -0.0537616 0)
(0.542735 -0.092063 0)
(0.604947 -0.0935259 0)
(0.666151 -0.0471035 0)
(0.595611 -0.0350762 0)
(0.51591 0.0457125 0)
(0.410196 0.271205 0)
(-0.041082 0.540581 0)
(-0.42569 0.412371 0)
(0.0605469 -0.0999423 0)
(0.362136 -0.0630156 0)
(0.40647 -0.307375 0)
(0.504972 -0.391613 0)
(0.554495 -0.322139 0)
(0.583187 -0.239755 0)
(0.610201 -0.18487 0)
(0.611998 -0.132631 0)
(0.630382 -0.0307775 0)
(0.595064 0.0165213 0)
(0.516277 0.0236065 0)
(0.492215 -0.0343136 0)
(0.573032 -0.00986023 0)
(0.573774 -0.0265867 0)
(0.468994 -0.174317 0)
(0.41094 -0.101941 0)
(0.307399 0.31017 0)
(-0.00249425 0.608741 0)
(-0.366748 0.341893 0)
(0.073171 -0.184236 0)
(0.37587 -0.213199 0)
(0.409578 -0.384847 0)
(0.492108 -0.402709 0)
(0.504796 -0.376003 0)
(0.527568 -0.30592 0)
(0.556236 -0.227546 0)
(0.540305 -0.19945 0)
(0.569678 -0.137559 0)
(0.561806 -0.0103949 0)
(0.505358 0.0509732 0)
(0.499337 0.0124735 0)
(0.528506 -0.0419857 0)
(0.371136 -0.0689401 0)
(0.352231 -0.266519 0)
(0.352836 -0.158174 0)
(0.266851 0.314464 0)
(0.0937675 0.74303 0)
(-0.223501 0.358863 0)
(0.114709 -0.212497 0)
(0.0432284 0.100925 0)
(0.0970622 -0.126166 0)
(0.47015 -0.0669504 0)
(0.562089 -0.347626 0)
(0.439304 -0.342498 0)
(0.277159 -0.563599 0)
(0.0658753 -0.835477 0)
(-0.127338 -0.507872 0)
(0.142584 0.0718381 0)
(0.240153 0.0847545 0)
(0.301909 0.0257233 0)
(0.441703 -0.0108718 0)
(0.17138 -0.150205 0)
(0.245291 -0.160812 0)
(0.30257 -0.200748 0)
(0.383646 -0.239982 0)
(0.518135 -0.133964 0)
(0.553887 -0.185916 0)
(0.573886 -0.232031 0)
(0.622426 -0.292825 0)
(0.591773 -0.4011 0)
(0.612027 -0.437942 0)
(0.625133 -0.481946 0)
(0.642529 -0.534326 0)
(0.443307 -0.436482 0)
(0.44661 -0.50572 0)
(0.438717 -0.575434 0)
(0.443229 -0.63577 0)
(0.25057 -0.679634 0)
(0.248151 -0.737803 0)
(0.258406 -0.825049 0)
(0.263504 -0.915415 0)
(0.013247 -0.269444 0)
(-0.0954959 0.0812855 0)
(-0.279446 0.109646 0)
(-0.309534 -0.0866375 0)
(-0.0404541 -0.673575 0)
(0.0463193 -0.722714 0)
(0.0969821 -0.713384 0)
(0.142052 -0.6777 0)
(0.288489 -0.433608 0)
(0.242653 -0.399183 0)
(0.194589 -0.381576 0)
(0.144667 -0.357939 0)
(0.0797834 -0.232492 0)
(0.046638 -0.255043 0)
(0.00714425 -0.266969 0)
(-0.0333993 -0.270076 0)
(0.0362194 -0.271477 0)
(-0.00602735 -0.268166 0)
(-0.0435381 -0.257759 0)
(-0.0785247 -0.243237 0)
(-0.0558475 -0.156774 0)
(-0.0714927 -0.15921 0)
(-0.085198 -0.155993 0)
(-0.10232 -0.15172 0)
(-0.0995196 -0.148675 0)
(-0.104833 -0.153065 0)
(-0.111264 -0.149814 0)
(-0.118421 -0.146748 0)
(-0.0927839 -0.148705 0)
(-0.0998217 -0.14696 0)
(-0.105623 -0.142676 0)
(-0.112816 -0.140633 0)
(-0.0963729 -0.125502 0)
(-0.10181 -0.125557 0)
(-0.104976 -0.125788 0)
(-0.110232 -0.125469 0)
(-0.0897791 -0.11836 0)
(-0.0936785 -0.118346 0)
(-0.096779 -0.119796 0)
(-0.103167 -0.119809 0)
(-0.0891097 -0.113397 0)
(-0.0911322 -0.113704 0)
(-0.0932968 -0.113791 0)
(-0.0983636 -0.113157 0)
(0.517039 -0.325517 0)
(0.498607 -0.403658 0)
(0.496397 -0.399264 0)
(0.482016 -0.366124 0)
(0.476268 -0.312411 0)
(0.497028 -0.237578 0)
(0.493896 -0.172528 0)
(0.470436 -0.0932543 0)
(0.475612 -0.0396042 0)
(0.516373 0.0621429 0)
(0.448102 0.216138 0)
(0.246517 0.240704 0)
(0.0261786 0.0151492 0)
(0.118922 -0.334768 0)
(0.208471 -0.43029 0)
(0.350699 0.0286739 0)
(0.364235 0.768694 0)
(0.0323949 0.511574 0)
(0.271865 -0.179941 0)
(0.505316 -0.421567 0)
(0.532291 -0.484836 0)
(0.551302 -0.469616 0)
(0.551246 -0.406793 0)
(0.520883 -0.314397 0)
(0.496201 -0.223417 0)
(0.481673 -0.154997 0)
(0.454027 -0.0694548 0)
(0.403393 0.00858367 0)
(0.379015 0.0486485 0)
(0.371369 0.0861619 0)
(0.363006 0.124807 0)
(0.279505 0.183774 0)
(0.288703 0.133562 0)
(0.34262 -0.118846 0)
(0.441239 -0.109372 0)
(0.553412 0.289615 0)
(0.344023 0.39066 0)
(0.426186 -0.0466977 0)
(0.636873 -0.402291 0)
(0.68589 -0.550898 0)
(0.736869 -0.641805 0)
(0.760451 -0.629221 0)
(0.757674 -0.553081 0)
(0.663324 -0.363208 0)
(0.559321 -0.1775 0)
(0.536888 -0.0388422 0)
(0.532409 0.0504999 0)
(0.521373 0.117504 0)
(0.491798 0.177504 0)
(0.505616 0.216984 0)
(0.500071 0.206213 0)
(0.540864 0.175893 0)
(0.512822 0.158606 0)
(0.444632 0.0390861 0)
(0.466416 0.173061 0)
(0.454781 0.127141 0)
(0.554354 0.0348508 0)
(0.668351 -0.625526 0)
(0.662279 -0.765842 0)
(0.641127 -0.917557 0)
(0.719454 -1.07008 0)
(0.778724 -0.99433 0)
(0.814991 -0.835573 0)
(0.671219 -0.537258 0)
(0.564446 -0.22457 0)
(0.569574 -0.0668486 0)
(0.57538 0.0479671 0)
(0.597966 0.137039 0)
(0.587796 0.205107 0)
(0.575467 0.311209 0)
(0.559873 0.293882 0)
(0.497671 0.214116 0)
(0.344593 0.144881 0)
(0.338245 0.123779 0)
(0.454155 -0.0448836 0)
(0.633901 0.00478359 0)
(0.377348 -0.783718 0)
(0.385231 -1.09004 0)
(0.528597 -1.46234 0)
(0.623526 -0.694089 0)
(0.465155 -0.240036 0)
(0.51329 -0.392407 0)
(0.452735 -0.483647 0)
(0.592032 -0.749541 0)
(0.496224 -0.557304 0)
(0.565353 -0.210079 0)
(0.607685 -0.116191 0)
(0.633685 -0.0328458 0)
(0.603981 0.131147 0)
(0.515937 0.248264 0)
(0.418104 0.284786 0)
(0.334303 0.311632 0)
(0.339014 0.337191 0)
(0.408464 0.131287 0)
(0.61851 0.0247646 0)
(0.289368 -1.07258 0)
(0.147076 -0.547025 0)
(-0.0663034 -0.705043 0)
(-0.233242 -1.2621 0)
(-0.232249 -1.34859 0)
(0.0797752 -0.863133 0)
(0.362921 -0.540524 0)
(0.773724 -0.255732 0)
(0.919396 -0.313309 0)
(0.694375 -0.303603 0)
(0.651398 -0.21711 0)
(0.649267 -0.199945 0)
(0.698801 -0.081695 0)
(0.588093 0.0928297 0)
(0.379562 0.240257 0)
(0.24179 0.418017 0)
(0.264113 0.552978 0)
(0.510468 0.409488 0)
(0.545592 0.195351 0)
(-0.158208 -0.57596 0)
(-0.0584512 -0.75255 0)
(-0.021722 -0.716073 0)
(-0.545167 -1.06973 0)
(-0.918954 -1.13558 0)
(-0.700016 -0.830417 0)
(-0.543441 -0.681714 0)
(-0.454186 -0.616436 0)
(-0.338168 -0.544015 0)
(-0.171064 -0.441515 0)
(0.362021 -0.277043 0)
(0.783739 -0.0342343 0)
(0.73841 -0.116436 0)
(0.710874 -0.0828213 0)
(0.44411 0.160026 0)
(0.185578 0.448959 0)
(0.201046 0.698211 0)
(0.336146 0.710338 0)
(0.416578 0.526863 0)
(0.120508 -0.623849 0)
(0.00508179 -0.527158 0)
(-0.239779 -0.441276 0)
(-0.774606 -0.830294 0)
(-0.928394 -0.919761 0)
(-0.737126 -0.75854 0)
(-0.597562 -0.652825 0)
(-0.52986 -0.596589 0)
(-0.4614 -0.542868 0)
(-0.349678 -0.461501 0)
(-0.237481 -0.337653 0)
(-0.0510093 -0.106813 0)
(0.876277 -0.0675217 0)
(0.88493 -0.109788 0)
(0.690019 -0.0672236 0)
(0.210017 0.405352 0)
(0.19535 0.753983 0)
(0.228876 0.890173 0)
(0.30094 0.791116 0)
(0.0408929 -0.335291 0)
(-0.132897 -0.269417 0)
(-0.337077 -0.260754 0)
(-0.763664 -0.634767 0)
(-0.884796 -0.80913 0)
(-0.761576 -0.722354 0)
(-0.684317 -0.685312 0)
(-0.627762 -0.677427 0)
(-0.563867 -0.641686 0)
(-0.478558 -0.549513 0)
(-0.346795 -0.396289 0)
(-0.241131 -0.212831 0)
(0.0579251 0.0215151 0)
(0.74488 -0.0726355 0)
(0.708943 -0.0606273 0)
(0.333556 0.250643 0)
(0.244191 0.728539 0)
(0.152976 1.00398 0)
(0.217886 0.995854 0)
(-0.111331 -0.260713 0)
(-0.202854 -0.208504 0)
(-0.274706 -0.140164 0)
(-0.466631 -0.216344 0)
(-0.877568 -0.652533 0)
(-0.887711 -0.709513 0)
(-0.800867 -0.727263 0)
(-0.683705 -0.724583 0)
(-0.616236 -0.696857 0)
(-0.561829 -0.629375 0)
(-0.484572 -0.489423 0)
(-0.370153 -0.216712 0)
(-0.207606 0.0556783 0)
(0.209382 0.1884 0)
(0.483091 0.0689138 0)
(0.425578 0.236339 0)
(0.393307 0.682774 0)
(0.14739 1.05028 0)
(0.171081 1.12234 0)
(-0.127562 -0.20674 0)
(-0.175948 -0.152992 0)
(-0.181545 -0.0894803 0)
(-0.159398 -0.0551286 0)
(-0.327404 -0.239236 0)
(-0.764569 -0.669685 0)
(-0.859473 -0.7362 0)
(-0.761978 -0.743156 0)
(-0.689574 -0.725058 0)
(-0.655664 -0.682565 0)
(-0.614164 -0.562173 0)
(-0.52833 -0.29061 0)
(-0.396173 0.0233616 0)
(-0.180117 0.288258 0)
(0.556976 0.286495 0)
(0.332101 0.477659 0)
(0.462213 0.674933 0)
(0.178411 1.12606 0)
(0.152893 1.2222 0)
(-0.122958 -0.14125 0)
(-0.147188 -0.130898 0)
(-0.134774 -0.113997 0)
(-0.105333 -0.101571 0)
(-0.0941392 -0.142189 0)
(-0.199058 -0.28392 0)
(-0.650397 -0.67764 0)
(-0.820644 -0.686205 0)
(-0.751502 -0.694284 0)
(-0.742893 -0.675983 0)
(-0.742079 -0.561184 0)
(-0.688769 -0.292305 0)
(-0.58232 -0.00852636 0)
(-0.371715 0.301111 0)
(0.545814 0.47351 0)
(0.245196 0.489442 0)
(0.463321 0.692865 0)
(0.181986 1.1988 0)
(0.124739 1.33389 0)
(-0.123111 -0.136862 0)
(-0.129386 -0.13388 0)
(-0.124791 -0.128737 0)
(-0.114989 -0.128721 0)
(-0.104667 -0.159221 0)
(-0.124024 -0.203347 0)
(-0.298824 -0.355819 0)
(-0.711498 -0.61791 0)
(-0.809015 -0.610662 0)
(-0.818919 -0.607149 0)
(-0.859438 -0.505893 0)
(-0.865125 -0.283739 0)
(-0.76734 0.00615793 0)
(-0.571655 0.358161 0)
(-0.0524379 0.658789 0)
(0.220185 0.716999 0)
(0.361536 0.946639 0)
(0.0817148 1.27323 0)
(0.0732059 1.42073 0)
(-0.118934 -0.13418 0)
(-0.126175 -0.130915 0)
(-0.129076 -0.125076 0)
(-0.134131 -0.128331 0)
(-0.139562 -0.150037 0)
(-0.15335 -0.187426 0)
(-0.215876 -0.233588 0)
(-0.49426 -0.441287 0)
(-0.853737 -0.519803 0)
(-0.906293 -0.502999 0)
(-0.962368 -0.434246 0)
(-1.01202 -0.275432 0)
(-0.989546 -0.000238229 0)
(-0.786384 0.333551 0)
(-0.466229 0.718577 0)
(-0.141033 0.95506 0)
(-0.0155106 1.11569 0)
(-0.0689679 1.32698 0)
(-0.00767954 1.42502 0)
(-0.112769 -0.12302 0)
(-0.119036 -0.122024 0)
(-0.125677 -0.119218 0)
(-0.135642 -0.125501 0)
(-0.156326 -0.138615 0)
(-0.193735 -0.152562 0)
(-0.259084 -0.172024 0)
(-0.411154 -0.233313 0)
(-0.90944 -0.413736 0)
(-1.03206 -0.376806 0)
(-1.08881 -0.31609 0)
(-1.12313 -0.184561 0)
(-1.20569 0.0263577 0)
(-1.0794 0.289026 0)
(-0.81137 0.645097 0)
(-0.545851 0.932244 0)
(-0.413351 1.11332 0)
(-0.310587 1.29809 0)
(-0.0809383 1.33331 0)
(-0.108122 -0.117518 0)
(-0.120288 -0.118042 0)
(-0.133382 -0.110862 0)
(-0.145574 -0.108169 0)
(-0.166514 -0.107728 0)
(-0.205581 -0.106145 0)
(-0.275484 -0.0977832 0)
(-0.392285 -0.0612432 0)
(-0.971145 -0.206703 0)
(-1.16559 -0.254667 0)
(-1.23071 -0.198914 0)
(-1.27753 -0.0745056 0)
(-1.30037 0.0877289 0)
(-1.27112 0.295858 0)
(-1.07509 0.551403 0)
(-0.824796 0.812701 0)
(-0.661552 0.956118 0)
(-0.469987 1.01465 0)
(-0.124557 1.01642 0)
(-0.102672 -0.110682 0)
(-0.110489 -0.107177 0)
(-0.121238 -0.100894 0)
(-0.135007 -0.0977201 0)
(-0.154774 -0.088722 0)
(-0.186464 -0.0676392 0)
(-0.227856 -0.0285285 0)
(-0.281037 0.0708918 0)
(-0.480969 0.174849 0)
(-1.23307 -0.159038 0)
(-1.2244 -0.150717 0)
(-1.32335 -0.0508733 0)
(-1.34492 0.145945 0)
(-1.30279 0.351426 0)
(-1.18875 0.56253 0)
(-0.976721 0.740385 0)
(-0.769935 0.831306 0)
(-0.500609 0.711695 0)
(-0.181225 0.766692 0)
)
;

boundaryField
{
    leftWall
    {
        type            fixedValue;
        value           nonuniform 0();
    }
    rightWall
    {
        type            fixedValue;
        value           uniform (0 0 0);
    }
    lowerWall
    {
        type            fixedValue;
        value           uniform (0 0 0);
    }
    atmosphere
    {
        type            fluxCorrectedVelocity;
        value           nonuniform 0();
    }
    defaultFaces
    {
        type            empty;
    }
    procBoundary1to0
    {
        type            processor;
        value           nonuniform List<vector> 
26
(
(-0.015139 0.00315195 0)
(-0.0104718 0.00337904 0)
(0.00952804 0.00150756 0)
(0.00891989 -0.00496719 0)
(-0.00273953 -0.0153985 0)
(-0.0302029 -0.025464 0)
(-0.0451681 -0.0384853 0)
(-0.0434907 -0.00407242 0)
(-0.0317789 0.0621505 0)
(0.0273282 -0.127114 0)
(0.438065 -0.0305721 0)
(0.518885 -0.296693 0)
(0.405838 -0.266401 0)
(0.247549 -0.448138 0)
(0.0242154 -0.795634 0)
(-0.198021 -0.164584 0)
(0.374475 -0.495415 0)
(0.374475 -0.495415 0)
(0.1339 -0.168911 0)
(0.0895133 -0.277801 0)
(-0.0246501 -0.15482 0)
(-0.0872189 -0.137395 0)
(-0.083778 -0.147125 0)
(-0.0877627 -0.125472 0)
(-0.0843268 -0.122919 0)
(-0.0839317 -0.117088 0)
)
;
    }
    procBoundary1to3
    {
        type            processor;
        value           nonuniform List<vector> 
23
(
(-0.0818323 -0.106781 0)
(-0.0844219 -0.106951 0)
(-0.087164 -0.104457 0)
(-0.0922459 -0.102618 0)
(-0.0976697 -0.100284 0)
(-0.108363 -0.0959575 0)
(-0.119628 -0.0896976 0)
(-0.129835 -0.0810028 0)
(-0.14287 -0.0677939 0)
(-0.158588 -0.0432586 0)
(-0.171979 -0.00240836 0)
(-0.162843 0.0775823 0)
(-0.15795 0.268233 0)
(-0.623684 0.314799 0)
(-1.27989 -0.0383299 0)
(-1.27045 -0.0898359 0)
(-1.24745 0.0503019 0)
(-1.24066 0.274563 0)
(-1.14026 0.456091 0)
(-0.96547 0.597937 0)
(-0.8014 0.618363 0)
(-0.563055 0.454737 0)
(-0.220586 0.490553 0)
)
;
    }
}


// ************************************************************************* //
