/*--------------------------------*- C++ -*----------------------------------*\
| =========                 |                                                 |
| \\      /  F ield         | OpenFOAM: The Open Source CFD Toolbox           |
|  \\    /   O peration     | Version:  2.4.0                                 |
|   \\  /    A nd           | Web:      www.OpenFOAM.org                      |
|    \\/     M anipulation  |                                                 |
\*---------------------------------------------------------------------------*/
FoamFile
{
    version     2.0;
    format      ascii;
    class       volScalarField;
    location    "0.65";
    object      alpha.oil;
}
// * * * * * * * * * * * * * * * * * * * * * * * * * * * * * * * * * * * * * //

dimensions      [0 0 0 0 0 0 0];

internalField   nonuniform List<scalar> 
575
(
1.69644e-10
1.53337e-10
1.53885e-10
1.91218e-10
6.9484e-11
5.81294e-11
5.13983e-11
5.0374e-11
3.51963e-11
2.73618e-11
2.28475e-11
2.17379e-11
1.76312e-11
1.28872e-11
1.02571e-11
9.77104e-12
7.77632e-12
5.48961e-12
4.11392e-12
3.80648e-12
2.76853e-12
1.95918e-12
1.42686e-12
1.25351e-12
8.66787e-13
6.2509e-13
4.49324e-13
3.69048e-13
2.29409e-13
1.70596e-13
1.23943e-13
9.69487e-14
5.21708e-14
4.00101e-14
2.99327e-14
2.40037e-14
1.01699e-14
8.14917e-15
6.47343e-15
6.13363e-15
1.70599e-15
1.45445e-15
1.33898e-15
1.95782e-15
2.50924e-16
2.36402e-16
2.947e-16
7.62947e-16
3.27389e-17
3.70642e-17
7.52353e-17
3.16073e-16
4.02395e-18
6.8809e-18
2.68209e-17
1.56893e-16
5.54085e-19
1.97156e-18
1.26953e-17
8.93925e-17
1.01683e-19
6.61097e-19
5.37358e-18
4.28673e-17
3.21281e-20
2.93933e-19
2.6919e-18
2.32968e-17
1.11986e-20
1.21613e-19
1.24759e-18
1.19598e-17
3.01953e-21
3.74674e-20
4.33728e-19
4.67971e-18
6.67776e-22
9.38954e-21
1.22435e-19
1.47849e-18
1.17784e-22
1.87748e-21
2.75866e-20
3.72873e-19
1.75261e-23
3.19471e-22
5.33276e-21
8.12882e-20
2.34788e-24
4.99967e-23
9.83742e-22
1.77446e-20
3.27657e-25
7.95781e-24
1.83031e-22
3.95601e-21
3.99954e-26
1.03088e-24
2.51101e-23
5.71933e-22
3.84286e-10
1.02328e-09
3.24156e-09
8.28894e-09
4.87449e-08
4.66592e-07
1.73553e-06
4.58257e-05
0.00401993
0.0909498
0.504855
0.897373
0.960353
0.959712
0.943331
0.929883
0.921169
0.914964
0.914084
7.11196e-11
4.42034e-10
1.62204e-09
5.75893e-09
1.76207e-08
8.86342e-08
5.43026e-07
1.69776e-06
1.15835e-05
0.000959758
0.0391879
0.33974
0.760945
0.917051
0.926058
0.894049
0.860511
0.860309
0.922164
2.60442e-11
7.98177e-11
7.72619e-10
2.73122e-09
9.89357e-09
2.49132e-08
1.13574e-07
4.19766e-07
1.84171e-06
8.72632e-06
0.000557343
0.00913964
0.0610573
0.158248
0.190785
0.109791
0.0531516
0.128919
0.413884
1.17742e-11
3.02978e-11
2.74186e-10
1.12905e-09
4.46223e-09
1.38853e-08
4.51191e-08
1.14801e-07
3.79784e-07
8.14964e-07
2.65673e-06
4.78052e-05
0.000187112
0.000326873
0.000367042
0.00014217
2.28614e-05
0.00657794
0.155545
5.17991e-12
1.76431e-11
8.70905e-11
4.32071e-10
1.82974e-09
7.02195e-09
2.50428e-08
6.69306e-08
1.48581e-07
3.44457e-07
1.08386e-06
2.32983e-06
2.67648e-06
2.72193e-06
2.31811e-06
1.95435e-06
1.65584e-06
2.62319e-05
0.294366
1.67126e-12
5.95331e-12
3.06421e-11
1.44407e-10
6.95033e-10
3.02655e-09
1.17803e-08
3.9642e-08
1.16562e-07
3.31193e-07
7.48429e-07
1.81158e-06
2.44328e-06
2.66355e-06
2.70645e-06
2.00171e-06
1.61929e-06
5.07458e-06
0.343087
4.57332e-13
1.64707e-12
9.09126e-12
4.74759e-11
2.41089e-10
1.21875e-09
5.94238e-09
2.69548e-08
1.05449e-07
3.24181e-07
7.70822e-07
1.63412e-06
2.303e-06
2.61887e-06
2.67676e-06
2.12163e-06
1.57297e-06
5.79667e-05
0.0959042
1.08063e-13
3.73073e-13
2.29282e-12
1.36355e-11
7.70152e-11
4.49449e-10
2.74043e-09
1.65782e-08
8.39916e-08
3.02327e-07
8.12091e-07
1.67513e-06
2.24717e-06
2.56352e-06
2.54042e-06
1.95581e-06
1.45014e-06
0.000148679
0.00714915
2.79453e-14
1.05427e-13
6.78332e-13
4.27418e-12
2.67186e-11
1.70232e-10
1.21409e-09
8.85276e-09
5.99371e-08
2.64594e-07
8.01758e-07
1.62774e-06
2.223e-06
2.4503e-06
2.27469e-06
1.60491e-06
1.21654e-06
1.85756e-05
0.000980605
1.03924e-14
5.70063e-14
3.81856e-13
2.3282e-12
1.31781e-11
7.36715e-11
4.67773e-10
3.6527e-09
2.88787e-08
1.63207e-07
5.9323e-07
1.33457e-06
2.04045e-06
2.17634e-06
1.75617e-06
1.12171e-06
1.00192e-06
4.79587e-05
0.000227276
5.73124e-15
4.30762e-14
3.12985e-13
2.00977e-12
1.14088e-11
5.76911e-11
2.71989e-10
1.37311e-09
8.37861e-09
5.15165e-08
2.54633e-07
8.37365e-07
1.57031e-06
1.57887e-06
9.51195e-07
6.96112e-07
1.56698e-06
0.000249963
0.000235128
3.21013e-15
2.8294e-14
2.24592e-13
1.55894e-12
9.43022e-12
4.91764e-11
2.16456e-10
7.91195e-10
2.92498e-09
1.25934e-08
5.89125e-08
2.20394e-07
6.7606e-07
6.96861e-07
3.99098e-07
7.70108e-07
2.71778e-05
0.000309892
0.000249405
1.64305e-15
1.65602e-14
1.46458e-13
1.12325e-12
7.44602e-12
4.20939e-11
1.95981e-10
6.94266e-10
2.28347e-09
6.65694e-09
2.00533e-08
5.68603e-08
1.87587e-07
4.60716e-07
1.08458e-06
1.83399e-06
5.75271e-05
0.000403731
0.00167245
9.40838e-16
1.05972e-14
1.0345e-13
8.69068e-13
6.24557e-12
3.7905e-11
1.86799e-10
6.71861e-10
2.56191e-09
7.28003e-09
1.6898e-08
5.27016e-08
7.34544e-07
1.68278e-05
0.000115132
0.000780973
0.00237898
0.0188515
0.0726659
6.02587e-16
7.62049e-15
8.31905e-14
7.7787e-13
6.18313e-12
4.13186e-11
2.27131e-10
9.78525e-10
3.30214e-09
1.06249e-08
2.88348e-08
1.10281e-07
2.30393e-06
2.11934e-05
0.000286057
0.00958886
0.0899625
0.269995
0.525508
3.24302e-16
4.64953e-15
5.76571e-14
6.12898e-13
5.53032e-12
4.18095e-11
2.5882e-10
1.30416e-09
4.68437e-09
2.0133e-08
5.67317e-08
2.06518e-07
1.95642e-06
9.0334e-06
0.000366734
0.0190009
0.238997
0.722143
0.945644
1.90603e-16
2.97679e-15
4.04825e-14
4.76999e-13
4.84421e-12
4.18265e-11
2.92258e-10
1.44338e-09
9.03445e-09
3.69736e-08
1.17329e-07
3.58685e-07
9.40014e-07
3.13024e-06
0.000339431
0.0171994
0.222251
0.819047
0.985829
1.07889e-16
1.86128e-15
2.79865e-14
3.68237e-13
4.25841e-12
4.29739e-11
3.56238e-10
2.06786e-09
1.70847e-08
8.38418e-08
2.91212e-07
8.52616e-07
1.38504e-06
2.40078e-06
0.000190429
0.00418672
0.0503511
0.431895
0.985829
4.72906e-17
9.12897e-16
1.51982e-14
2.19261e-13
2.75338e-12
2.94051e-11
2.23971e-10
1.84016e-09
1.55722e-08
8.35504e-08
3.08479e-07
9.94702e-07
1.68924e-06
3.11346e-06
6.69429e-05
0.000188152
0.00174512
0.0549552
0.979018
1.65807e-17
3.52251e-16
6.33926e-15
9.67298e-14
1.25414e-12
1.3608e-11
1.06815e-10
9.95856e-10
7.28081e-09
4.16293e-08
1.6641e-07
6.74779e-07
1.48894e-06
3.17863e-06
1.24017e-05
3.55094e-06
2.39998e-06
0.00314576
0.878659
4.63772e-18
1.08369e-16
2.11074e-15
3.42125e-14
4.60806e-13
5.05241e-12
3.89613e-11
3.99446e-10
2.67131e-09
1.47837e-08
6.53843e-08
2.17297e-07
8.74825e-07
1.68638e-06
2.29194e-06
1.56619e-06
1.15087e-06
0.000616485
0.441508
1.13101e-18
2.93442e-17
6.2529e-16
1.09136e-14
1.55068e-13
1.74809e-12
1.35173e-11
1.365e-10
8.5901e-10
4.55473e-09
1.98728e-08
7.09697e-08
2.30374e-07
6.6709e-07
7.83378e-07
4.23191e-07
5.10054e-07
9.60707e-05
0.0501262
2.91425e-19
8.84204e-18
2.16895e-16
4.29259e-15
6.82582e-14
8.65665e-13
8.64927e-12
6.95475e-11
4.32668e-10
2.11996e-09
8.17739e-09
2.58716e-08
8.20169e-08
2.44523e-07
3.56528e-07
2.07961e-07
2.77807e-07
4.97459e-06
0.00129951
7.96733e-20
3.06711e-18
9.54234e-17
2.36051e-15
4.58927e-14
6.9527e-13
8.14223e-12
7.32526e-11
5.04607e-10
2.65363e-09
1.03354e-08
3.6116e-08
9.77854e-08
2.76551e-07
3.72665e-07
6.13994e-08
1.72093e-07
4.3825e-07
3.25967e-05
1.19873e-20
5.01184e-19
1.74468e-17
4.94237e-16
1.12471e-14
2.03745e-13
2.90669e-12
3.21554e-11
2.7181e-10
1.69298e-09
7.6093e-09
2.44964e-08
5.63757e-08
3.77527e-08
9.37965e-08
4.20515e-09
1.37597e-07
5.1508e-08
5.18731e-07
)
;

boundaryField
{
    leftWall
    {
        type            zeroGradient;
    }
    rightWall
    {
        type            zeroGradient;
    }
    lowerWall
    {
        type            zeroGradient;
    }
    atmosphere
    {
        type            inletOutlet;
        inletValue      uniform 0;
        value           nonuniform List<scalar> 
23
(
3.99954e-26
1.03088e-24
2.51101e-23
5.71933e-22
1.19873e-20
5.01184e-19
1.74468e-17
4.94237e-16
1.12471e-14
2.03745e-13
2.90669e-12
3.21554e-11
2.7181e-10
1.69298e-09
7.6093e-09
2.44964e-08
0
0
0
0
0
0
0
)
;
    }
    defaultFaces
    {
        type            empty;
    }
    procBoundary3to1
    {
        type            processor;
        value           nonuniform List<scalar> 
23
(
4.91516e-10
5.21215e-10
5.90494e-10
7.75735e-10
1.20069e-09
2.89728e-09
5.95808e-09
2.31543e-08
2.74106e-07
2.72164e-06
7.90391e-05
0.00682266
0.119009
0.567885
0.919656
0.960346
0.960022
0.928641
0.908637
0.892499
0.868975
0.83257
0.808288
)
;
    }
    procBoundary3to2
    {
        type            processor;
        value           nonuniform List<scalar> 
25
(
2.97082e-10
1.51726e-10
9.96209e-11
4.94756e-11
1.94955e-11
6.48313e-12
1.7585e-12
4.54723e-13
9.55991e-14
1.66303e-14
2.43856e-15
3.07064e-16
3.36531e-17
3.25965e-18
2.89657e-19
2.53446e-20
2.9409e-21
5.60514e-22
1.16454e-22
2.18273e-23
3.33155e-24
4.28668e-25
4.95665e-26
6.16656e-27
7.06093e-28
)
;
    }
}


// ************************************************************************* //
