/*--------------------------------*- C++ -*----------------------------------*\
| =========                 |                                                 |
| \\      /  F ield         | OpenFOAM: The Open Source CFD Toolbox           |
|  \\    /   O peration     | Version:  2.4.0                                 |
|   \\  /    A nd           | Web:      www.OpenFOAM.org                      |
|    \\/     M anipulation  |                                                 |
\*---------------------------------------------------------------------------*/
FoamFile
{
    version     2.0;
    format      ascii;
    class       volScalarField;
    location    "0.65";
    object      alpha.water;
}
// * * * * * * * * * * * * * * * * * * * * * * * * * * * * * * * * * * * * * //

dimensions      [0 0 0 0 0 0 0];

internalField   nonuniform List<scalar> 
575
(
1.21399e-16
4.28209e-16
1.72281e-15
6.81297e-15
2.65348e-17
1.14287e-16
5.51785e-16
2.50958e-15
6.06153e-18
3.02765e-17
1.68152e-16
8.63954e-16
1.52069e-18
8.32793e-18
4.9492e-17
2.73193e-16
2.51958e-19
1.49025e-18
1.00482e-17
6.41099e-17
3.84995e-20
2.36089e-19
1.76074e-18
1.26583e-17
4.64648e-21
2.74137e-20
2.25221e-19
1.85438e-18
5.79524e-22
2.95762e-21
2.41526e-20
2.15509e-19
8.73639e-23
3.75604e-22
2.49198e-21
2.08821e-20
1.8836e-23
8.40863e-23
4.34024e-22
2.60689e-21
5.85822e-24
3.01709e-23
1.53496e-22
7.62896e-22
2.1561e-24
1.26255e-23
7.00095e-23
3.65218e-22
8.71251e-25
5.68155e-24
3.46787e-23
1.97488e-22
3.57416e-25
2.58522e-24
1.74393e-23
1.09671e-22
1.44026e-25
1.15875e-24
8.69412e-24
6.08805e-23
5.46409e-26
4.9087e-25
4.11892e-24
3.23372e-23
1.87958e-26
1.8901e-25
1.77886e-24
1.57215e-23
5.65803e-27
6.3852e-26
6.75869e-25
6.7416e-24
1.42504e-27
1.80706e-26
2.14571e-25
2.39796e-24
2.98404e-28
4.2657e-27
5.6874e-26
7.08459e-25
5.08984e-29
8.24921e-28
1.23907e-26
1.72398e-25
7.58049e-30
1.4099e-28
2.41128e-27
3.78385e-26
1.02782e-30
2.21853e-29
4.42688e-28
8.10303e-27
1.41589e-31
3.42373e-30
7.82231e-29
1.67574e-27
1.70896e-32
4.35411e-31
1.04755e-29
2.35532e-28
2.47503e-14
1.61378e-13
9.06848e-13
4.41588e-12
1.78886e-11
5.50491e-11
1.35005e-10
1.11552e-09
3.12248e-06
0.000348544
0.00492412
0.0173183
0.0311027
0.0395521
0.0559642
0.0690073
0.073948
0.0753579
0.0740685
1.00699e-14
7.1478e-14
4.36265e-13
2.29891e-12
9.99889e-12
3.48682e-11
9.763e-11
1.72732e-10
3.1667e-10
9.8852e-07
0.000157466
0.00239601
0.0084193
0.0144085
0.0178584
0.0165547
0.00792079
0.00469743
0.00448916
3.88116e-15
3.09956e-14
2.10515e-13
1.20327e-12
5.63037e-12
2.13416e-11
6.62673e-11
1.60961e-10
3.20381e-10
4.96767e-10
1.92244e-07
2.2274e-05
0.000288823
0.000809427
0.000948492
0.000408209
5.50072e-05
2.59747e-05
4.51617e-05
1.3189e-15
1.15402e-14
8.81325e-14
5.6624e-13
2.96977e-12
1.2761e-11
4.56628e-11
1.3485e-10
3.47769e-10
7.73282e-10
7.91348e-10
8.45864e-09
6.28191e-08
4.09822e-07
7.12565e-07
6.39085e-07
1.70719e-08
1.62423e-09
1.20698e-08
3.61147e-16
3.72606e-15
3.31161e-14
2.44733e-13
1.48621e-12
7.54207e-12
3.19395e-11
1.09824e-10
3.19975e-10
8.50984e-10
1.5325e-09
1.25038e-09
1.20251e-09
1.71055e-09
2.28668e-09
2.83709e-09
1.46283e-09
1.61736e-10
1.7859e-11
8.03728e-17
9.51357e-16
9.77899e-15
8.42562e-14
6.0776e-13
3.68645e-12
1.87777e-11
7.90793e-11
2.83462e-10
8.82481e-10
1.99979e-09
1.6974e-09
1.1432e-09
9.71216e-10
1.48116e-09
3.2803e-09
2.30884e-09
6.90934e-10
2.21856e-11
1.36474e-17
1.89604e-16
2.29858e-15
2.37587e-14
2.10961e-13
1.63207e-12
1.07115e-11
5.81849e-11
2.63017e-10
8.89115e-10
2.20831e-09
2.52478e-09
1.45954e-09
9.52372e-10
1.30557e-09
3.06357e-09
2.58959e-09
7.55974e-10
1.69846e-11
1.78419e-18
2.87333e-17
4.11981e-16
5.20325e-15
5.86076e-14
5.92023e-13
5.11144e-12
3.70495e-11
2.13976e-10
8.33142e-10
2.27728e-09
3.76744e-09
2.57842e-09
1.17211e-09
1.97967e-09
3.06959e-09
2.4346e-09
6.60968e-10
1.93045e-11
1.82621e-19
3.30918e-18
5.57204e-17
8.62288e-16
1.24814e-14
1.63444e-13
1.89882e-12
1.89866e-11
1.54098e-10
7.23075e-10
2.18359e-09
4.16055e-09
4.30061e-09
2.56541e-09
3.10376e-09
3.05588e-09
1.92561e-09
4.64465e-10
1.55208e-11
1.8478e-20
3.13015e-19
5.66389e-18
1.02777e-16
1.86756e-15
3.18478e-14
5.12721e-13
7.1199e-12
7.20254e-11
4.38486e-10
1.59706e-09
3.45815e-09
4.48134e-09
3.69179e-09
3.11966e-09
2.20303e-09
7.32329e-10
2.29504e-10
9.47527e-12
3.81086e-21
4.20762e-20
5.70459e-19
1.00313e-17
2.1469e-16
4.60077e-15
8.96549e-14
1.42958e-12
1.6657e-11
1.32775e-10
6.86759e-10
2.1281e-09
3.70555e-09
2.91684e-09
2.00621e-09
4.4363e-10
2.20189e-10
5.58809e-11
5.92648e-12
1.79156e-21
1.64319e-20
1.42933e-19
1.3924e-18
2.03145e-17
4.16012e-16
8.71106e-15
1.52963e-13
2.017e-12
1.8873e-11
1.45649e-10
6.514e-10
1.71434e-09
1.3936e-09
2.64488e-10
3.35472e-11
2.06592e-11
1.38406e-11
4.66234e-12
1.05109e-21
1.03467e-20
8.93469e-20
6.84227e-19
4.94878e-18
4.27199e-17
5.69182e-16
9.49464e-15
1.41533e-13
1.6209e-12
1.35067e-11
1.13689e-10
3.5393e-10
1.0113e-10
1.51636e-11
4.33122e-12
9.53708e-12
7.43941e-12
5.06486e-12
6.4596e-22
7.07176e-21
6.74351e-20
5.57754e-19
3.98774e-18
2.46584e-17
1.37263e-16
8.18729e-16
7.12069e-15
8.63504e-14
1.08273e-12
1.03719e-11
4.15539e-11
5.69254e-12
2.47903e-12
3.52056e-12
4.90384e-12
3.89987e-12
5.68787e-12
4.00497e-22
4.947e-21
5.32036e-20
4.9573e-19
3.98089e-18
2.7333e-17
1.58872e-16
7.78774e-16
3.27888e-15
1.35232e-14
8.12751e-14
7.1949e-13
3.64716e-12
1.25223e-12
1.74505e-12
2.69808e-12
2.6416e-12
2.64906e-12
5.94769e-12
2.39505e-22
3.36943e-21
4.14135e-20
4.43084e-19
4.10272e-18
3.25613e-17
2.19123e-16
1.23684e-15
5.76261e-15
2.19227e-14
6.92403e-14
2.0294e-13
6.72992e-13
9.48689e-13
1.60061e-12
2.14564e-12
1.83486e-12
2.38241e-12
5.90516e-12
1.31767e-22
2.12528e-21
3.01299e-20
3.74159e-19
4.04656e-18
3.76483e-17
2.9615e-16
1.92689e-15
1.01237e-14
4.21571e-14
1.39192e-13
3.62709e-13
7.17881e-13
1.04711e-12
1.50274e-12
1.7734e-12
1.45769e-12
2.09241e-12
5.40195e-12
6.4059e-23
1.18514e-21
1.94194e-20
2.82304e-19
3.63435e-18
4.1037e-17
3.98328e-16
3.2199e-15
2.07399e-14
1.00301e-13
3.36547e-13
7.09445e-13
9.61333e-13
1.15126e-12
1.44075e-12
1.59583e-12
1.20569e-12
1.63074e-12
4.62241e-12
2.54279e-23
5.25021e-22
9.53293e-21
1.52874e-19
2.16784e-18
2.70029e-17
2.90118e-16
2.60359e-15
1.85992e-14
9.85324e-14
3.5181e-13
7.79365e-13
1.09946e-12
1.24594e-12
1.42881e-12
1.57643e-12
1.0535e-12
1.16969e-12
3.7084e-12
8.28992e-24
1.8693e-22
3.64023e-21
6.14637e-20
9.03109e-19
1.1536e-17
1.26914e-16
1.17642e-15
8.8562e-15
5.12891e-14
2.12743e-13
5.8532e-13
1.02496e-12
1.27458e-12
1.44271e-12
1.43051e-12
9.68745e-13
8.49661e-13
2.78717e-12
2.2262e-24
5.4698e-23
1.1365e-21
2.00028e-20
2.99222e-19
3.81247e-18
4.13402e-17
3.78503e-16
2.86826e-15
1.73799e-14
8.02546e-14
2.69356e-13
6.63154e-13
1.05517e-12
1.21956e-12
1.03397e-12
7.55586e-13
6.36277e-13
1.9585e-12
5.44993e-25
1.47598e-23
3.31271e-22
6.1595e-21
9.4794e-20
1.20801e-18
1.27612e-17
1.1186e-16
8.11774e-16
4.82286e-15
2.28571e-14
8.55209e-14
2.73413e-13
5.7634e-13
6.38063e-13
5.15518e-13
4.46608e-13
4.50416e-13
1.25082e-12
1.35188e-25
4.17646e-24
1.04596e-22
2.12155e-21
3.47716e-20
4.58909e-19
4.85896e-18
4.11591e-17
2.7908e-16
1.51878e-15
6.62344e-15
2.3194e-14
7.4958e-14
1.71118e-13
1.58379e-13
1.75522e-13
2.32126e-13
2.89257e-13
7.75726e-13
3.33935e-26
1.27017e-24
3.90472e-23
9.55512e-22
1.84121e-20
2.77158e-19
3.23467e-18
2.90776e-17
2.00887e-16
1.06851e-15
4.38777e-15
1.40766e-14
3.57405e-14
6.53745e-14
8.6225e-14
5.78798e-14
1.28272e-13
1.60778e-13
4.88221e-13
4.87189e-27
2.00803e-25
6.88979e-24
1.92483e-22
4.32454e-21
7.74725e-20
1.0958e-18
1.20751e-17
1.01744e-16
6.39656e-16
2.92482e-15
9.58009e-15
2.26343e-14
2.53049e-14
3.35699e-14
4.25187e-15
5.44621e-14
5.69145e-14
2.23667e-13
)
;

boundaryField
{
    leftWall
    {
        type            zeroGradient;
    }
    rightWall
    {
        type            zeroGradient;
    }
    lowerWall
    {
        type            zeroGradient;
    }
    atmosphere
    {
        type            inletOutlet;
        inletValue      uniform 0;
        value           nonuniform List<scalar> 
23
(
1.70896e-32
4.35411e-31
1.04755e-29
2.35532e-28
4.87189e-27
2.00803e-25
6.88979e-24
1.92483e-22
4.32454e-21
7.74725e-20
1.0958e-18
1.20751e-17
1.01744e-16
6.39656e-16
2.92482e-15
9.58009e-15
0
0
0
0
0
0
0
)
;
    }
    defaultFaces
    {
        type            empty;
    }
    procBoundary3to1
    {
        type            processor;
        value           nonuniform List<scalar> 
23
(
9.48197e-16
2.58402e-15
7.45384e-15
2.19954e-14
6.23214e-14
3.25918e-13
1.66151e-12
7.94392e-12
3.13315e-11
8.72466e-11
3.04064e-09
3.65311e-06
0.00036023
0.00502018
0.01708
0.0288564
0.0356553
0.0664621
0.0882957
0.106681
0.130202
0.164456
0.183335
)
;
    }
    procBoundary3to2
    {
        type            processor;
        value           nonuniform List<scalar> 
25
(
3.4503e-17
7.10476e-18
1.47064e-18
3.13635e-19
5.37425e-20
8.8408e-21
1.24349e-21
1.66049e-22
2.20787e-23
3.28688e-24
6.6942e-25
1.884e-25
6.46346e-26
2.34524e-26
8.41015e-27
2.83902e-27
8.67543e-28
2.31464e-28
5.15802e-29
9.50796e-30
1.41562e-30
1.82056e-31
2.14046e-32
2.6712e-33
3.05012e-34
)
;
    }
}


// ************************************************************************* //
