/*--------------------------------*- C++ -*----------------------------------*\
| =========                 |                                                 |
| \\      /  F ield         | OpenFOAM: The Open Source CFD Toolbox           |
|  \\    /   O peration     | Version:  2.4.0                                 |
|   \\  /    A nd           | Web:      www.OpenFOAM.org                      |
|    \\/     M anipulation  |                                                 |
\*---------------------------------------------------------------------------*/
FoamFile
{
    version     2.0;
    format      ascii;
    class       volScalarField;
    location    "0.65";
    object      alphas;
}
// * * * * * * * * * * * * * * * * * * * * * * * * * * * * * * * * * * * * * //

dimensions      [0 0 0 0 0 0 0];

internalField   nonuniform List<scalar> 
575
(
3
2.99999
3
2.99999
3
2.99999
2.99999
2.99999
3
3
2.99999
2.99999
3
3
2.99999
2.99999
3
3
2.99999
2.99999
2.99999
2.99999
2.99999
2.99999
2.99999
2.99999
2.99999
2.99999
2.99999
2.99999
2.99999
2.99999
2.99999
2.99999
2.99999
2.99999
2.99999
2.99999
2.99999
2.99999
2.99999
2.99999
2.99999
2.99999
2.99999
2.99999
2.99999
2.99999
2.99999
2.99999
2.99998
2.99999
2.99999
2.99998
2.99999
2.99999
2.99999
2.99999
2.99998
2.99999
2.99999
2.99999
2.99999
2.99999
2.99999
2.99999
2.99999
2.99999
2.99999
2.99999
2.99999
2.99999
2.99999
3
2.99999
2.99999
2.99999
2.99999
2.99999
2.99999
3
3
2.99999
2.99999
2.99999
2.99999
3
2.99999
3
3
2.99999
2.99999
2.99999
2.99999
2.99999
2.99999
2.99999
3
3
3
2.99999
2.99999
2.99999
2.99999
3
3
3
2.99992
2.99196
2.81706
1.97549
1.1532
0.985845
0.961775
0.94526
0.932673
0.934034
0.939283
0.941175
2.99999
2.99999
2.99999
2.99999
3
3
3
3
2.99998
2.99809
2.92116
2.31333
1.45279
1.12251
1.09396
1.16147
1.25368
1.26271
1.13869
2.99999
2.99999
2.99999
2.99999
3
3
3
3
3
2.99999
2.99889
2.98166
2.87702
2.68105
2.61551
2.77908
2.89338
2.74183
2.17163
2.99999
2.99999
2.99999
2.99999
3
3
3
3
3
3
3
2.99991
2.99963
2.99935
2.99927
2.99972
2.99996
2.98685
2.68892
2.99999
2.99999
2.99999
2.99999
3
3
3
3
3
3
3
3
3
3
3
3
3
2.99995
2.41128
2.99999
2.99999
2.99999
2.99999
3
3
3
3
3
3
3
3
3
3
3
3
3
3
2.31383
2.99999
2.99999
2.99999
3
3
3
3
3
3
3
3
3
3
3
3
3
3
2.99989
2.8082
2.99999
2.99999
2.99999
3
3
3
3
3
3
3
3
3
3
3
3
3
3
2.99971
2.98571
2.99999
2.99999
2.99999
3
3
3
3
3
3
3
3
3
3
3
3
3
3
2.99997
2.99805
2.99999
2.99999
2.99999
3
3
3
3
3
3
3
3
3
3
3
3
3
3
2.99991
2.99955
2.99999
2.99999
2.99999
3
3
3
3
3
3
3
3
3
3
3
3
3
3
2.9995
2.99954
2.99999
2.99999
2.99999
2.99999
3
3
3
3
3
3
3
3
3
3
3
3
2.99995
2.99939
2.99951
2.99999
2.99999
2.99999
2.99999
3
3
3
3
3
3
3
3
3
3
3
3
2.99989
2.9992
2.99666
2.99999
2.99999
2.99999
2.99999
3
3
3
3
3
3
3
3
3
2.99997
2.99977
2.99844
2.99525
2.9623
2.85468
2.99999
2.99999
2.99999
2.99999
3
3
3
3
3
3
3
3
3
2.99996
2.99943
2.98083
2.82008
2.46002
1.94899
2.99999
2.99999
2.99999
2.99999
3
3
3
3
3
3
3
3
3
2.99998
2.99927
2.962
2.52201
1.55572
1.10872
2.99999
2.99999
2.99999
3
3
3
3
3
3
3
3
3
3
3
2.99933
2.96561
2.55551
1.36192
1.02835
2.99999
2.99999
2.99999
3
3
3
3
3
3
3
3
3
3
3
2.99962
2.99163
2.8993
2.13622
1.02835
2.99999
2.99999
3
3
3
3
3
3
3
3
3
3
3
3
2.99987
2.99963
2.99651
2.89009
1.04197
2.99999
3
3
3
3
3
3
3
3
3
3
3
3
3
2.99998
3
3
2.99371
1.24269
3
3
3
3
3
3
3
3
3
3
3
3
3
3
3
3
3
2.99877
2.11699
3
3
3
3
3
3
3
3
3
3
3
3
3
3
3
3
3
2.99981
2.89975
3
3
3
3
3
3
3
3
3
3
3
3
3
3
3
3
3
2.99999
2.9974
3
3
3
3
3
3
3
3
3
3
3
3
3
3
3
3
3
3
2.99993
3
3
3
3
3
3
3
3
3
3
3
3
3
3
3
3
3
3
3
)
;

boundaryField
{
    leftWall
    {
        type            zeroGradient;
    }
    rightWall
    {
        type            zeroGradient;
    }
    lowerWall
    {
        type            zeroGradient;
    }
    atmosphere
    {
        type            zeroGradient;
    }
    defaultFaces
    {
        type            empty;
    }
    procBoundary3to1
    {
        type            processor;
        value           nonuniform List<scalar> 
23
(
2.99999
3
2.99999
2.99999
2.99999
2.99999
2.99999
3
2.99999
3
2.99985
2.98636
2.76091
1.84915
1.10938
0.992653
0.972906
0.943201
0.917642
0.894683
0.870768
0.838559
0.825084
)
;
    }
    procBoundary3to2
    {
        type            processor;
        value           nonuniform List<scalar> 
25
(
2.99999
3
3
3
3
3
2.99999
2.99999
2.99999
2.99999
2.99999
2.99999
2.99999
2.99999
2.99999
3
2.99999
3
3
3
3
3
3
3
3
)
;
    }
}


// ************************************************************************* //
