/*--------------------------------*- C++ -*----------------------------------*\
| =========                 |                                                 |
| \\      /  F ield         | OpenFOAM: The Open Source CFD Toolbox           |
|  \\    /   O peration     | Version:  2.4.0                                 |
|   \\  /    A nd           | Web:      www.OpenFOAM.org                      |
|    \\/     M anipulation  |                                                 |
\*---------------------------------------------------------------------------*/
FoamFile
{
    version     2.0;
    format      ascii;
    class       volScalarField;
    location    "0.65";
    object      p;
}
// * * * * * * * * * * * * * * * * * * * * * * * * * * * * * * * * * * * * * //

dimensions      [1 -1 -2 0 0 0 0];

internalField   nonuniform List<scalar> 
575
(
3.50388
3.49948
3.49451
3.48879
3.34124
3.33574
3.33003
3.32301
3.18117
3.17506
3.16835
3.16074
3.02383
3.01728
3.01013
3.00222
2.869
2.86226
2.85496
2.84701
2.71667
2.70986
2.70257
2.69474
2.56645
2.55979
2.55266
2.54504
2.41824
2.41178
2.40489
2.39758
2.27187
2.26566
2.25906
2.25208
2.1271
2.12118
2.11489
2.10826
1.98381
1.9782
1.9722
1.96589
1.84153
1.83624
1.83066
1.82475
1.70048
1.69545
1.69018
1.68465
1.56043
1.55569
1.55073
1.54555
1.4213
1.41686
1.41223
1.40738
1.28303
1.2789
1.2746
1.27009
1.14555
1.14176
1.1378
1.13366
1.00882
1.00539
1.0018
0.998033
0.872777
0.869728
0.866534
0.863179
0.737362
0.734724
0.731953
0.729042
0.602491
0.600291
0.597979
0.595545
0.468095
0.466357
0.464526
0.462599
0.334067
0.332812
0.33149
0.330094
0.200324
0.199554
0.198746
0.197901
0.0666933
0.066446
0.0661923
0.0659217
3.47774
3.4568
3.42676
3.3812
3.31157
3.20655
3.0662
2.92376
3.00413
2.67536
0.989113
-0.898288
1.75678
-2.95932
6.68865
24.1828
80.2272
184.562
245.651
3.3099
3.28578
3.25292
3.208
3.14688
3.06734
2.97084
2.88436
2.81574
2.94023
2.86983
2.39251
2.79254
3.82932
3.52318
5.14498
16.7963
59.8732
99.1284
3.1466
3.12129
3.0885
3.04669
2.99407
2.93156
2.86138
2.79686
2.74918
2.66071
2.67334
2.70516
2.49415
2.27099
2.13775
1.88516
1.63745
4.38037
22.2581
2.98765
2.96234
2.93096
2.89286
2.84734
2.79582
2.73971
2.68603
2.6353
2.59518
2.57819
2.45051
2.38286
2.29946
2.23841
2.26362
2.50082
2.25
3.20646
2.83248
2.80786
2.77836
2.74371
2.70362
2.6592
2.61056
2.56018
2.51028
2.4508
2.39634
2.3254
2.29109
2.22496
2.18551
2.2265
2.42622
2.48629
2.59283
2.68056
2.65701
2.62953
2.59791
2.56193
2.52261
2.47903
2.43236
2.37792
2.3121
2.23021
2.15826
2.14645
2.13024
2.08106
2.14061
2.35398
2.32136
2.84528
2.5314
2.50917
2.48365
2.45474
2.42161
2.38703
2.34736
2.30367
2.24573
2.17974
2.06625
1.96714
2.03465
2.09703
2.08827
2.12023
2.27858
2.27947
2.1387
2.3846
2.36375
2.34026
2.31427
2.28603
2.25328
2.21713
2.17696
2.11918
2.06116
1.91171
1.81279
1.94332
2.06528
2.1044
2.13315
2.23401
2.27291
2.21938
2.23978
2.22032
2.19866
2.17493
2.14902
2.1204
2.08894
2.05323
2.0026
1.96697
1.81292
1.76257
1.89351
2.04428
2.11862
2.15256
2.23419
2.29749
2.31454
2.09664
2.07851
2.05852
2.03689
2.01347
1.98837
1.96174
1.93271
1.90086
1.86572
1.78079
1.77817
1.88462
2.02536
2.12264
2.15921
2.23735
2.31608
2.35426
1.95493
1.93806
1.91953
1.8999
1.87846
1.85624
1.83338
1.81026
1.78774
1.76575
1.73459
1.75591
1.84896
1.96088
2.07183
2.13507
2.22785
2.34337
2.34206
1.81439
1.79871
1.78141
1.76318
1.74375
1.72374
1.70356
1.68429
1.66718
1.65398
1.64975
1.67619
1.74663
1.84044
1.94784
2.06638
2.21826
2.36979
2.34531
1.67494
1.66021
1.64411
1.62704
1.6091
1.59065
1.57186
1.55432
1.53918
1.52947
1.52962
1.55193
1.60207
1.6812
1.78621
1.94341
2.20177
2.42978
2.47255
1.53646
1.52261
1.50751
1.49136
1.47422
1.4561
1.43832
1.42087
1.40499
1.3932
1.38955
1.39931
1.42746
1.48235
1.54474
1.78085
2.35384
2.5241
2.26437
1.39889
1.38588
1.37167
1.35631
1.33983
1.32225
1.30404
1.2853
1.26654
1.24908
1.23491
1.22582
1.2257
1.21537
1.1125
1.09302
1.4261
0.803014
-0.815719
1.2622
1.25003
1.23668
1.22207
1.20613
1.18876
1.16991
1.14932
1.12668
1.10167
1.07366
1.03893
1.00374
0.912378
0.678232
0.513456
0.157888
-1.40129
-2.60641
1.12638
1.1151
1.10262
1.08881
1.07348
1.05635
1.03699
1.01451
0.98776
0.95505
0.913092
0.852802
0.78087
0.655808
0.323823
0.0123319
0.00185713
-1.00999
0.218886
0.991419
0.981093
0.96959
0.956714
0.942222
0.92573
0.90662
0.883814
0.855592
0.819099
0.768733
0.694832
0.60033
0.476635
0.166778
-0.248525
-0.0967051
-0.0736671
0.93202
0.857279
0.848012
0.837618
0.825883
0.812535
0.79717
0.77916
0.757517
0.730709
0.696514
0.649871
0.583835
0.506539
0.36861
0.0986135
-0.321637
-0.103258
-0.303694
-0.0956007
0.723913
0.715821
0.706692
0.696321
0.684444
0.670695
0.654545
0.635262
0.611899
0.583444
0.548622
0.502918
0.451921
0.32426
0.127315
-0.212281
-0.0219625
-0.217785
0.23293
0.59125
0.584446
0.576738
0.567942
0.557828
0.546096
0.532349
0.516102
0.496844
0.474347
0.449516
0.416455
0.390257
0.304051
0.198347
0.00661568
0.059084
-0.166653
0.787587
0.459195
0.453787
0.44764
0.440605
0.432499
0.423099
0.412137
0.399338
0.384535
0.367883
0.351791
0.32864
0.31468
0.277438
0.228366
0.108071
0.0481391
-0.0758273
0.260169
0.327625
0.323703
0.319234
0.314105
0.308186
0.30133
0.293384
0.284221
0.273796
0.262381
0.252693
0.236877
0.232747
0.214613
0.185205
0.111006
0.0518116
0.0107031
0.181243
0.196412
0.194044
0.191333
0.188214
0.184622
0.180465
0.175644
0.170093
0.163836
0.157158
0.151482
0.141289
0.143397
0.120922
0.0958476
0.0449123
0.0140992
0.00823074
0.108641
0.0654325
0.064632
0.0637281
0.0627112
0.0615626
0.0602275
0.0586732
0.0568484
0.0546805
0.0520769
0.0490897
0.0401577
0.0363788
0.0138094
-0.00572189
-0.0469303
-0.0568925
-0.0462625
0.0218738
)
;

boundaryField
{
    leftWall
    {
        type            fixedFluxPressure;
        gradient        nonuniform 0();
        value           nonuniform 0();
    }
    rightWall
    {
        type            fixedFluxPressure;
        gradient        uniform 0;
        value           nonuniform List<scalar> 
25
(
245.651
99.1284
22.2581
3.20646
2.59283
2.84528
2.1387
2.21938
2.31454
2.35426
2.34206
2.34531
2.47255
2.26437
-0.815719
-2.60641
0.218886
0.93202
-0.0956007
0.23293
0.787587
0.260169
0.181243
0.108641
0.0218738
)
;
    }
    lowerWall
    {
        type            fixedFluxPressure;
        gradient        nonuniform 0();
        value           nonuniform 0();
    }
    atmosphere
    {
        type            totalPressure;
        U               U.air;
        phi             phi.air;
        rho             rho;
        psi             none;
        gamma           1;
        p0              uniform 0;
        value           nonuniform List<scalar> 
23
(
0
0
0
0
0
0
0
0
0
0
0
0
0
0
0
0
-0.000267381
-0.015456
-0.0371832
-0.0939344
-0.100069
-0.116363
-0.0738644
)
;
    }
    defaultFaces
    {
        type            empty;
    }
    procBoundary3to1
    {
        type            processor;
        value           nonuniform List<scalar> 
23
(
3.66851
3.66537
3.66187
3.65789
3.65006
3.63516
3.61279
3.57373
3.50063
3.36081
3.13502
3.02555
2.65712
-2.87541
-16.6566
-16.1481
-10.847
-22.868
-16.854
3.85302
46.9871
125.874
174.554
)
;
    }
    procBoundary3to2
    {
        type            processor;
        value           nonuniform List<scalar> 
25
(
3.50992
3.34878
3.18974
3.03302
2.87852
2.72645
2.57604
2.42762
2.28095
2.13579
1.99182
1.84941
1.70799
1.56752
1.42793
1.28918
1.1512
1.01393
0.877312
0.741278
0.605758
0.47067
0.335936
0.201456
0.0670695
)
;
    }
}


// ************************************************************************* //
