/*--------------------------------*- C++ -*----------------------------------*\
| =========                 |                                                 |
| \\      /  F ield         | OpenFOAM: The Open Source CFD Toolbox           |
|  \\    /   O peration     | Version:  2.4.0                                 |
|   \\  /    A nd           | Web:      www.OpenFOAM.org                      |
|    \\/     M anipulation  |                                                 |
\*---------------------------------------------------------------------------*/
FoamFile
{
    version     2.0;
    format      ascii;
    class       surfaceScalarField;
    location    "0.65";
    object      phi.water;
}
// * * * * * * * * * * * * * * * * * * * * * * * * * * * * * * * * * * * * * //

dimensions      [0 3 -1 0 0 0 0];

internalField   nonuniform List<scalar> 
1102
(
-2.40947e-06
8.07028e-06
-1.34171e-06
8.29346e-06
-3.98582e-07
8.76056e-06
9.08745e-06
5.38417e-07
-8.12279e-07
7.32075e-06
-4.31872e-08
7.53211e-06
7.56955e-07
7.96133e-06
8.25558e-06
1.59802e-06
7.09932e-07
6.69546e-06
1.32371e-06
6.91367e-06
2.09317e-06
7.19925e-06
7.40922e-06
2.94604e-06
6.96535e-07
6.04481e-06
1.4194e-06
6.19547e-06
2.28174e-06
6.34083e-06
6.47505e-06
3.22316e-06
1.7768e-06
5.48889e-06
2.42663e-06
5.54458e-06
3.24709e-06
5.5282e-06
5.60044e-06
4.12783e-06
1.70449e-06
4.89529e-06
2.33086e-06
4.9231e-06
3.02895e-06
4.83534e-06
4.8064e-06
3.82981e-06
2.09392e-06
4.37707e-06
2.59296e-06
4.42497e-06
3.09289e-06
4.34295e-06
4.22061e-06
3.68451e-06
1.61331e-06
4.00573e-06
2.07548e-06
3.96704e-06
2.54069e-06
3.88314e-06
3.74112e-06
3.0263e-06
1.2695e-06
3.73171e-06
1.59769e-06
3.64052e-06
1.96428e-06
3.52303e-06
3.37266e-06
2.33802e-06
8.6638e-07
3.53049e-06
1.07466e-06
3.43568e-06
1.28721e-06
3.31562e-06
3.17906e-06
1.486e-06
2.65511e-07
3.46175e-06
3.73018e-07
3.33021e-06
4.81386e-07
3.21283e-06
3.06174e-06
6.0326e-07
-2.27854e-07
3.43363e-06
-2.07503e-07
3.31275e-06
-1.75443e-07
3.18529e-06
3.05495e-06
-1.64099e-07
-7.52348e-07
3.48549e-06
-8.00685e-07
3.36324e-06
-8.54932e-07
3.24429e-06
3.12108e-06
-9.17058e-07
-1.21122e-06
3.5734e-06
-1.3155e-06
3.46992e-06
-1.42685e-06
3.35986e-06
3.25119e-06
-1.55319e-06
-1.62718e-06
3.70014e-06
-1.76942e-06
3.61439e-06
-1.92528e-06
3.51985e-06
3.42696e-06
-2.0977e-06
-1.97478e-06
3.8536e-06
-2.14549e-06
3.78733e-06
-2.33406e-06
3.71205e-06
3.63541e-06
-2.53937e-06
-2.25708e-06
4.02678e-06
-2.44609e-06
3.9785e-06
-2.6542e-06
3.92381e-06
3.86522e-06
-2.88138e-06
-2.46823e-06
4.21489e-06
-2.66892e-06
4.1814e-06
-2.88972e-06
4.14767e-06
4.10749e-06
-3.12946e-06
-2.60959e-06
4.41111e-06
-2.82226e-06
4.39603e-06
-3.04578e-06
4.37434e-06
4.35587e-06
-3.29216e-06
-2.68282e-06
4.61227e-06
-2.89671e-06
4.61202e-06
-3.12764e-06
4.60773e-06
4.60237e-06
-3.37215e-06
-2.68585e-06
4.82299e-06
-2.90188e-06
4.82971e-06
-3.13109e-06
4.83981e-06
4.84824e-06
-3.37554e-06
-2.60565e-06
5.03392e-06
-2.82965e-06
5.05565e-06
-3.06325e-06
5.075e-06
5.09226e-06
-3.30565e-06
-2.47889e-06
5.1542e-06
-2.64685e-06
5.22424e-06
-2.85108e-06
5.28161e-06
5.3312e-06
-3.08882e-06
-2.61292e-06
5.11745e-06
-2.61827e-06
5.23258e-06
-2.675e-06
5.34042e-06
5.44062e-06
-2.78277e-06
-3.21638e-06
-3.11637e-06
-3.04123e-06
-2.99612e-06
2.78399e-06
2.2486e-05
4.90061e-06
2.40278e-05
7.59074e-06
2.60188e-05
1.13165e-05
2.93331e-05
1.84492e-05
3.41332e-05
3.18327e-05
3.99351e-05
3.69638e-05
4.43567e-05
-9.46818e-05
3.44341e-05
-0.000150256
-5.13927e-05
-0.000200594
-5.90987e-05
-0.000208841
-5.8626e-05
-0.000188148
-5.10556e-05
-0.000180176
-2.58374e-05
-0.000169029
-6.3869e-06
-0.000158742
4.61524e-06
-0.000142944
5.00618e-06
-0.000113733
-8.02647e-06
-6.17956e-05
-2.49396e-05
-2.43114e-05
4.04709e-06
2.00432e-05
7.0549e-06
2.10255e-05
1.08876e-05
2.21895e-05
1.57692e-05
2.44559e-05
2.31139e-05
2.67928e-05
3.44209e-05
2.86302e-05
4.9694e-05
2.9089e-05
6.04946e-05
2.42681e-05
-3.37432e-05
2.24747e-05
-0.000128979
-6.88417e-06
-0.000191147
-3.75421e-05
-0.000186276
-4.01938e-05
-0.000162101
-3.80717e-05
-0.000151078
-2.08132e-05
-0.000140572
-1.0708e-05
-0.000119959
-2.29086e-05
-9.53469e-05
-7.26937e-05
-6.42961e-05
-9.75552e-05
-9.68707e-05
5.42302e-06
1.75732e-05
8.47238e-06
1.79816e-05
1.22751e-05
1.83906e-05
1.73664e-05
1.93684e-05
2.43518e-05
1.98101e-05
3.40187e-05
1.8965e-05
4.6055e-05
1.70556e-05
5.7452e-05
1.28743e-05
6.8029e-05
1.18474e-05
4.0776e-05
8.57953e-06
-0.00010397
2.65703e-05
-0.000148549
-2.23159e-05
-0.000158831
-2.26826e-05
-0.000141193
-1.9171e-05
-0.000123031
-1.54998e-05
-8.66532e-05
-2.20662e-05
-4.91577e-05
-7.42984e-05
-8.98445e-06
-0.000131323
-0.000128532
5.79204e-06
1.50114e-05
9.13945e-06
1.46394e-05
1.28644e-05
1.46695e-05
1.76242e-05
1.46118e-05
2.40793e-05
1.33574e-05
3.22573e-05
1.07879e-05
4.15766e-05
7.73803e-06
5.26829e-05
1.77132e-06
6.63195e-05
-1.77676e-06
8.16623e-05
-6.72267e-06
0.000101252
1.90833e-05
4.44788e-05
8.05405e-05
-3.77161e-05
5.93211e-05
-6.86698e-05
-1.26919e-05
-7.27549e-05
-2.57723e-05
-5.41489e-05
-2.75619e-05
-1.99351e-05
-5.15138e-05
-9.23565e-06
-0.000224971
-0.000244231
6.32999e-06
1.28165e-05
9.00423e-06
1.19705e-05
1.22925e-05
1.13848e-05
1.66175e-05
1.02897e-05
2.22083e-05
7.76819e-06
2.90982e-05
3.89896e-06
3.76177e-05
-7.79869e-07
4.81846e-05
-8.7925e-06
6.39984e-05
-1.75764e-05
8.09826e-05
-2.37031e-05
0.000103426
-3.36853e-06
9.67309e-05
8.848e-05
4.6606e-05
0.000116598
-2.55162e-05
7.09645e-05
-5.36012e-05
-1.03659e-05
-3.23402e-05
-7.01923e-05
3.27158e-06
-8.76184e-05
8.3514e-07
-0.000116668
-0.000227714
5.87763e-06
1.07755e-05
8.23651e-06
9.61657e-06
1.1086e-05
8.53888e-06
1.47226e-05
6.6556e-06
1.91771e-05
3.3152e-06
2.44832e-05
-1.40666e-06
3.14295e-05
-7.72511e-06
4.00675e-05
-1.74287e-05
5.36653e-05
-3.11579e-05
7.04976e-05
-4.05491e-05
8.9377e-05
-2.22529e-05
9.69173e-05
8.09474e-05
8.25202e-05
0.000131008
4.32871e-05
0.00011023
-4.14622e-06
3.71166e-05
-6.94313e-06
-6.73406e-05
-1.70888e-06
-9.28095e-05
-7.38977e-07
-0.00011728
-0.000215452
5.22848e-06
9.23833e-06
7.0178e-06
7.83192e-06
9.26365e-06
6.2965e-06
1.20193e-05
3.90199e-06
1.51712e-05
1.64602e-07
1.8806e-05
-5.04101e-06
2.34019e-05
-1.23202e-05
2.87057e-05
-2.27317e-05
3.6713e-05
-3.91508e-05
4.82799e-05
-5.21435e-05
6.89875e-05
-4.29302e-05
7.94531e-05
7.05045e-05
7.47671e-05
0.000135696
6.11047e-05
0.000123878
3.69588e-05
6.12526e-05
2.2263e-05
-5.25798e-05
1.25876e-05
-8.30623e-05
3.01222e-06
-0.000109923
-0.000244068
4.25502e-06
8.01572e-06
5.57274e-06
6.5187e-06
7.17502e-06
4.69724e-06
8.91479e-06
2.16418e-06
1.0835e-05
-1.75475e-06
1.26458e-05
-6.85151e-06
1.44013e-05
-1.40754e-05
1.57598e-05
-2.40901e-05
1.69874e-05
-4.03698e-05
1.79808e-05
-5.31767e-05
3.50759e-05
-5.99138e-05
4.88832e-05
5.66726e-05
5.18538e-05
0.00013271
5.60978e-05
0.00011962
5.17426e-05
6.56035e-05
4.37712e-05
-4.45902e-05
3.51018e-05
-7.47588e-05
1.53361e-05
-9.07646e-05
-0.0002445
3.1566e-06
7.20293e-06
4.01149e-06
5.66813e-06
4.93649e-06
3.77491e-06
5.80889e-06
1.29345e-06
6.46922e-06
-2.41451e-06
6.7004e-06
-7.08267e-06
5.89624e-06
-1.32711e-05
3.67687e-06
-2.18706e-05
-2.23191e-06
-3.44612e-05
-1.02754e-05
-4.51684e-05
-1.57426e-05
-5.43751e-05
6.83393e-06
3.414e-05
2.53721e-05
0.000114165
4.0184e-05
0.000104792
5.32179e-05
5.2566e-05
5.06102e-05
-4.19727e-05
3.96231e-05
-6.37737e-05
1.79041e-05
-6.68875e-05
-0.000211257
1.947e-06
6.74734e-06
2.39514e-06
5.22376e-06
2.7638e-06
3.40872e-06
2.94309e-06
1.11533e-06
2.62515e-06
-2.09635e-06
1.54042e-06
-5.99827e-06
-8.20675e-07
-1.09101e-05
-5.58694e-06
-1.71038e-05
-1.56938e-05
-2.43567e-05
-2.84517e-05
-3.24308e-05
-4.69204e-05
-3.58933e-05
-3.02479e-05
1.75419e-05
1.48088e-06
8.24195e-05
2.46375e-05
8.16576e-05
4.92493e-05
2.79786e-05
4.42317e-05
-3.6945e-05
2.65823e-05
-4.61469e-05
9.02392e-06
-5.0077e-05
-0.000191623
8.5447e-07
6.50123e-06
8.95852e-07
5.18577e-06
8.018e-07
3.50483e-06
4.06332e-07
1.51154e-06
-5.32696e-07
-1.15755e-06
-2.30454e-06
-4.227e-06
-5.47161e-06
-7.74313e-06
-1.08465e-05
-1.17283e-05
-1.95792e-05
-1.56228e-05
-3.35875e-05
-1.84262e-05
-5.32194e-05
-1.62575e-05
-4.99411e-05
1.43205e-05
-2.23059e-05
5.47341e-05
8.92301e-06
5.04217e-05
2.82837e-05
8.63157e-06
1.78653e-05
-2.65287e-05
3.70746e-06
-3.19127e-05
5.09196e-07
-4.96944e-05
-0.000187506
-2.26551e-07
6.56819e-06
-4.22168e-07
5.38445e-06
-8.42443e-07
3.92661e-06
-1.59565e-06
2.26504e-06
-2.94793e-06
1.94118e-07
-5.07892e-06
-2.09673e-06
-8.39584e-06
-4.42619e-06
-1.34211e-05
-6.70199e-06
-2.07305e-05
-8.31145e-06
-3.13599e-05
-7.79437e-06
-4.43817e-05
-3.22972e-06
-4.63064e-05
1.62737e-05
-2.93664e-05
3.77546e-05
-8.72593e-06
2.97393e-05
-7.95931e-06
7.88086e-06
-1.98825e-05
-1.4563e-05
-2.45848e-05
-2.64459e-05
-5.72768e-06
-7.26806e-05
-0.000210418
-1.13816e-06
6.79343e-06
-1.55785e-06
5.80673e-06
-2.2254e-06
4.59523e-06
-3.21429e-06
3.25375e-06
-4.7309e-06
1.70992e-06
-6.91583e-06
8.76787e-08
-1.00115e-05
-1.33041e-06
-1.42723e-05
-2.43966e-06
-1.98551e-05
-2.72677e-06
-2.69261e-05
-7.20922e-07
-3.46361e-05
4.48303e-06
-3.60058e-05
1.76492e-05
-2.99061e-05
3.16493e-05
-2.84925e-05
2.82451e-05
-4.59411e-05
2.2714e-05
-7.00111e-05
-9.28191e-06
-5.65047e-05
-8.1253e-05
-9.88544e-06
-0.000183937
-0.000268198
-1.937e-06
7.18097e-06
-2.50252e-06
6.37426e-06
-3.3117e-06
5.40499e-06
-4.42827e-06
4.36981e-06
-5.97532e-06
3.25613e-06
-8.06717e-06
2.1792e-06
-1.07786e-05
1.38171e-06
-1.41569e-05
9.40315e-07
-1.82219e-05
1.34044e-06
-2.27583e-05
3.81744e-06
-2.70709e-05
8.79723e-06
-2.86784e-05
1.92588e-05
-3.08879e-05
3.38864e-05
-4.59213e-05
4.32961e-05
-8.2297e-05
5.45809e-05
-0.000105734
-7.97685e-05
-4.61874e-05
-0.000224638
-2.92545e-06
-0.000251019
-0.000235272
-2.58689e-06
7.67337e-06
-3.25339e-06
7.04237e-06
-4.14582e-06
6.29754e-06
-5.30374e-06
5.52709e-06
-6.79658e-06
4.74843e-06
-8.68327e-06
4.0659e-06
-1.09341e-05
3.63392e-06
-1.35078e-05
3.51582e-06
-1.63273e-05
4.16218e-06
-1.87997e-05
6.2916e-06
-2.06153e-05
1.06141e-05
-2.22993e-05
2.09443e-05
-3.04811e-05
4.21118e-05
-6.19015e-05
7.66538e-05
-7.70007e-05
8.93419e-05
-4.85135e-05
-0.00010881
-1.75027e-05
-0.000223134
-1.73526e-06
-0.000221244
-0.000203595
-3.10556e-06
8.24229e-06
-3.83203e-06
7.76994e-06
-4.75736e-06
7.22271e-06
-5.91101e-06
6.68012e-06
-7.33303e-06
6.17015e-06
-9.0174e-06
5.75097e-06
-1.0905e-05
5.52318e-06
-1.29339e-05
5.54682e-06
-1.47281e-05
5.95839e-06
-1.54557e-05
7.02078e-06
-1.43661e-05
9.52507e-06
-1.29114e-05
1.94899e-05
-2.26367e-05
5.18404e-05
-5.60329e-05
0.000111977
-5.90025e-05
0.000110234
-2.66196e-05
-0.000127667
-1.46379e-05
-0.000209556
-2.40525e-06
-0.000205556
-0.000200363
-3.49561e-06
8.85891e-06
-4.25276e-06
8.52778e-06
-5.19107e-06
8.16077e-06
-6.31985e-06
7.80855e-06
-7.66514e-06
7.51554e-06
-9.20101e-06
7.28824e-06
-1.08373e-05
7.1612e-06
-1.23416e-05
7.05341e-06
-1.31882e-05
6.80662e-06
-1.24101e-05
6.24379e-06
-9.7778e-06
6.89305e-06
-9.75681e-06
1.94687e-05
-2.74671e-05
6.955e-05
-4.52783e-05
0.000130656
-3.84228e-05
0.000115546
-1.82735e-05
-0.000124174
-1.47732e-05
-0.00021401
-1.75464e-06
-0.000204631
-0.000202368
-3.77237e-06
9.50369e-06
-4.5389e-06
9.29477e-06
-5.46472e-06
9.08632e-06
-6.56397e-06
8.90763e-06
-7.85443e-06
8.80672e-06
-9.35026e-06
8.78554e-06
-1.10662e-05
8.87918e-06
-1.30312e-05
9.0203e-06
-1.5284e-05
9.06065e-06
-1.78499e-05
8.81032e-06
-2.13404e-05
1.03836e-05
-2.76664e-05
2.57941e-05
-3.54169e-05
7.72999e-05
-3.16022e-05
0.000126914
-1.94006e-05
0.000113975
-1.38591e-05
-9.4869e-05
-1.63908e-05
-0.000260095
1.36445e-06
-0.000227058
-0.000202058
-3.93932e-06
1.01525e-05
-4.70067e-06
1.00565e-05
-5.5969e-06
9.98245e-06
-6.64266e-06
9.95353e-06
-7.85468e-06
1.00199e-05
-9.26266e-06
1.0195e-05
-1.09364e-05
1.05549e-05
-1.30644e-05
1.11496e-05
-1.61247e-05
1.21218e-05
-2.10203e-05
1.37061e-05
-2.82228e-05
1.75861e-05
-3.44457e-05
3.2017e-05
-3.14501e-05
7.43038e-05
-1.41276e-05
0.000109424
1.50807e-05
9.19585e-05
1.69489e-05
-5.4347e-05
-1.5287e-05
-0.000200736
3.53697e-06
-0.000256498
-0.000198613
-4.01708e-06
1.07987e-05
-4.75802e-06
1.07977e-05
-5.61193e-06
1.08363e-05
-6.58557e-06
1.09277e-05
-7.69152e-06
1.11268e-05
-8.94678e-06
1.14518e-05
-1.03942e-05
1.20036e-05
-1.21545e-05
1.29108e-05
-1.45154e-05
1.44831e-05
-1.80388e-05
1.72294e-05
-2.30458e-05
2.2593e-05
-2.63588e-05
3.53303e-05
-1.38321e-05
6.17773e-05
1.90036e-05
7.65701e-05
6.50635e-05
4.71229e-05
7.21041e-05
-5.84753e-05
2.59989e-05
-0.00014853
1.07165e-05
-0.000216187
-0.000191086
-4.00779e-06
1.14323e-05
-4.72002e-06
1.15103e-05
-5.52003e-06
1.16365e-05
-6.40252e-06
1.18106e-05
-7.36539e-06
1.20904e-05
-8.39769e-06
1.24851e-05
-9.4641e-06
1.30707e-05
-1.05228e-05
1.39699e-05
-1.14551e-05
1.54153e-05
-1.19581e-05
1.77321e-05
-1.06422e-05
2.12771e-05
-2.94563e-06
2.76342e-05
2.06841e-05
3.81482e-05
5.65449e-05
4.0711e-05
8.94922e-05
1.41899e-05
9.06577e-05
-5.96415e-05
4.19176e-05
-0.000101055
2.54782e-05
-0.000165801
-0.000188126
-3.9269e-06
1.20545e-05
-4.62143e-06
1.22055e-05
-5.38347e-06
1.23988e-05
-6.21737e-06
1.26449e-05
-7.09819e-06
1.29717e-05
-7.99728e-06
1.33845e-05
-8.8325e-06
1.39058e-05
-9.43705e-06
1.4574e-05
-9.481e-06
1.54584e-05
-8.36764e-06
1.66179e-05
-4.80472e-06
1.77136e-05
4.69897e-06
1.81303e-05
2.47913e-05
1.8056e-05
5.48549e-05
1.06475e-05
8.57935e-05
-1.67485e-05
8.92575e-05
-6.31075e-05
6.28451e-05
-7.55651e-05
5.66496e-05
-0.000134831
-0.000198074
-3.72029e-06
1.26876e-05
-4.40771e-06
1.28935e-05
-5.13602e-06
1.31277e-05
-5.89611e-06
1.3405e-05
-6.67119e-06
1.37468e-05
-7.4297e-06
1.41422e-05
-8.1042e-06
1.45793e-05
-8.54141e-06
1.50096e-05
-8.41791e-06
1.53332e-05
-7.11371e-06
1.53119e-05
-3.8343e-06
1.44326e-05
3.51272e-06
1.07817e-05
1.54587e-05
6.10857e-06
3.55365e-05
-9.43191e-06
5.52799e-05
-3.64936e-05
6.39316e-05
-7.17615e-05
5.48215e-05
-6.64752e-05
6.447e-05
-0.000120554
-0.000135043
-3.24024e-06
1.31459e-05
-3.88471e-06
1.35386e-05
-4.6575e-06
1.39005e-05
-5.52524e-06
1.42726e-05
-6.44298e-06
1.46638e-05
-7.36852e-06
1.5067e-05
-8.23517e-06
1.54446e-05
-8.90191e-06
1.56748e-05
-9.18897e-06
1.56185e-05
-8.86685e-06
1.49881e-05
-7.35874e-06
1.29227e-05
-4.23935e-06
7.66067e-06
2.63935e-06
-7.72047e-07
1.61081e-05
-2.29024e-05
2.01678e-05
-4.0556e-05
3.12287e-05
-8.28242e-05
3.59691e-05
-7.12188e-05
2.5665e-05
-0.000108588
-8.66541e-05
-3.03462e-06
-3.25147e-06
-3.61104e-06
-4.07706e-06
-4.6342e-06
-5.28266e-06
-6.02618e-06
-6.85867e-06
-7.69183e-06
-8.26571e-06
-7.9788e-06
-4.9751e-06
-1.02604e-06
1.2098e-05
1.72569e-05
2.36779e-05
2.84246e-05
1.89596e-05
)
;

boundaryField
{
    leftWall
    {
        type            fixedValue;
        value           nonuniform 0();
    }
    rightWall
    {
        type            fixedValue;
        value           uniform 0;
    }
    lowerWall
    {
        type            fixedValue;
        value           nonuniform 0();
    }
    atmosphere
    {
        type            calculated;
        value           nonuniform List<scalar> 
23
(
4.99655e-06
5.13375e-06
5.2668e-06
5.39602e-06
1.31847e-05
1.37555e-05
1.426e-05
1.47385e-05
1.52207e-05
1.5715e-05
1.61877e-05
1.65067e-05
1.6451e-05
1.55613e-05
1.26352e-05
4.65631e-06
-4.72174e-06
-3.60272e-05
-4.57157e-05
-8.92466e-05
-7.59657e-05
-9.91226e-05
-6.71682e-05
)
;
    }
    defaultFaces
    {
        type            empty;
        value           nonuniform 0();
    }
    procBoundary3to1
    {
        type            processor;
        value           nonuniform List<scalar> 
23
(
-9.12304e-06
-9.35482e-06
-9.70624e-06
-1.00055e-05
-2.47233e-05
-2.61173e-05
-2.87077e-05
-3.30386e-05
-4.12616e-05
-5.32993e-05
-4.90688e-05
6.56986e-05
7.90361e-05
8.92997e-05
8.21155e-05
5.55811e-05
1.88256e-05
-2.94624e-06
-1.17614e-05
-1.73435e-05
-2.16488e-05
-3.07182e-05
-3.37348e-05
)
;
    }
    procBoundary3to2
    {
        type            processor;
        value           nonuniform List<scalar> 
25
(
3.45229e-06
1.56477e-06
-9.21859e-08
-4.53045e-08
-1.22459e-06
-1.10837e-06
-1.57681e-06
-1.23976e-06
-9.95845e-07
-6.62971e-07
-1.96571e-07
2.57857e-07
7.01098e-07
1.12532e-06
1.50133e-06
1.82339e-06
2.08511e-06
2.28257e-06
2.41469e-06
2.48459e-06
2.47612e-06
2.39679e-06
2.35928e-06
2.6525e-06
3.34132e-06
)
;
    }
}


// ************************************************************************* //
