/*--------------------------------*- C++ -*----------------------------------*\
| =========                 |                                                 |
| \\      /  F ield         | OpenFOAM: The Open Source CFD Toolbox           |
|  \\    /   O peration     | Version:  2.4.0                                 |
|   \\  /    A nd           | Web:      www.OpenFOAM.org                      |
|    \\/     M anipulation  |                                                 |
\*---------------------------------------------------------------------------*/
FoamFile
{
    version     2.0;
    format      ascii;
    class       surfaceScalarField;
    location    "0.65";
    object      phi.air;
}
// * * * * * * * * * * * * * * * * * * * * * * * * * * * * * * * * * * * * * //

dimensions      [0 3 -1 0 0 0 0];

internalField   nonuniform List<scalar> 
1102
(
-2.42013e-06
8.08447e-06
-1.36047e-06
8.3083e-06
-4.1677e-07
8.77631e-06
9.10363e-06
5.03659e-07
-8.19968e-07
7.33419e-06
-5.78384e-08
7.54615e-06
7.4068e-07
7.97764e-06
8.27263e-06
1.57167e-06
7.04947e-07
6.71292e-06
1.31931e-06
6.93159e-06
2.08019e-06
7.21672e-06
7.42723e-06
2.92556e-06
6.93607e-07
6.06137e-06
1.41298e-06
6.21219e-06
2.27115e-06
6.35846e-06
6.49285e-06
3.20554e-06
1.77461e-06
5.5066e-06
2.42428e-06
5.56237e-06
3.23726e-06
5.54547e-06
5.61788e-06
4.11222e-06
1.70271e-06
4.91104e-06
2.32615e-06
4.93892e-06
3.01987e-06
4.85168e-06
4.82277e-06
3.81502e-06
2.09245e-06
4.39275e-06
2.59057e-06
4.44066e-06
3.08397e-06
4.35829e-06
4.23607e-06
3.67069e-06
1.61191e-06
4.01974e-06
2.0715e-06
3.98106e-06
2.53232e-06
3.89744e-06
3.75545e-06
3.01298e-06
1.26814e-06
3.74538e-06
1.59497e-06
3.65412e-06
1.95603e-06
3.5364e-06
3.38608e-06
2.32541e-06
8.64687e-07
3.54273e-06
1.07086e-06
3.44794e-06
1.27921e-06
3.32802e-06
3.19149e-06
1.47385e-06
2.63927e-07
3.47354e-06
3.69849e-07
3.34191e-06
4.73507e-07
3.22438e-06
3.07336e-06
5.91663e-07
-2.29803e-07
3.44433e-06
-2.11353e-07
3.32346e-06
-1.83051e-07
3.19606e-06
3.06573e-06
-1.75383e-07
-7.54248e-07
3.49572e-06
-8.04249e-07
3.37337e-06
-8.62513e-07
3.25435e-06
3.13116e-06
-9.27915e-07
-1.21355e-06
3.58271e-06
-1.31944e-06
3.47927e-06
-1.43434e-06
3.36922e-06
3.26057e-06
-1.5637e-06
-1.62934e-06
3.70902e-06
-1.77333e-06
3.62318e-06
-1.93267e-06
3.52859e-06
3.43574e-06
-2.10781e-06
-1.97734e-06
3.86171e-06
-2.14963e-06
3.79548e-06
-2.34128e-06
3.72021e-06
3.64359e-06
-2.54909e-06
-2.25946e-06
4.03447e-06
-2.45018e-06
3.98612e-06
-2.66132e-06
3.93139e-06
3.87288e-06
-2.89059e-06
-2.47097e-06
4.22179e-06
-2.67319e-06
4.18836e-06
-2.89652e-06
4.1547e-06
4.11457e-06
-3.13818e-06
-2.61205e-06
4.41763e-06
-2.82626e-06
4.40249e-06
-3.05232e-06
4.38079e-06
4.36245e-06
-3.30018e-06
-2.68555e-06
4.61784e-06
-2.90077e-06
4.61773e-06
-3.13361e-06
4.61361e-06
4.60836e-06
-3.3795e-06
-2.6879e-06
4.8282e-06
-2.90517e-06
4.83494e-06
-3.13659e-06
4.84506e-06
4.85373e-06
-3.38195e-06
-2.60761e-06
5.03837e-06
-2.83287e-06
5.06021e-06
-3.06766e-06
5.07983e-06
5.09724e-06
-3.31114e-06
-2.48036e-06
5.15851e-06
-2.64883e-06
5.22861e-06
-2.85487e-06
5.28587e-06
5.3356e-06
-3.09323e-06
-2.61411e-06
5.12007e-06
-2.62072e-06
5.23519e-06
-2.67818e-06
5.34331e-06
5.44384e-06
-2.78643e-06
-3.21762e-06
-3.11753e-06
-3.04288e-06
-2.99764e-06
2.74519e-06
2.25314e-05
4.85274e-06
2.40809e-05
7.55203e-06
2.60856e-05
1.12808e-05
2.94067e-05
1.84286e-05
3.4215e-05
3.18239e-05
4.00162e-05
3.83925e-05
4.44344e-05
-1.57168e-05
3.52618e-05
-0.000110976
-1.67501e-05
-0.000203168
-7.1219e-05
-0.000181257
-0.000141053
-0.00019789
-8.66791e-05
-0.000175358
-4.37749e-05
-0.000186586
-4.55146e-05
-0.000181646
-1.77145e-06
-0.000195806
2.21358e-05
-0.000202341
3.74209e-05
-0.000115285
2.40789e-05
2.73339e-05
4.01462e-06
2.00884e-05
7.01817e-06
2.10773e-05
1.08544e-05
2.22492e-05
1.574e-05
2.45211e-05
2.30926e-05
2.68623e-05
3.44081e-05
2.87007e-05
4.96851e-05
2.91574e-05
6.0611e-05
2.43348e-05
2.12509e-05
2.25926e-05
-6.5654e-05
1.75648e-05
-0.000166958
-2.17487e-05
-0.000173413
-6.77266e-05
-0.000155506
-6.20459e-05
-0.000146427
-1.64118e-05
-0.000137951
-1.35041e-05
-0.000124203
-7.00975e-06
-0.000120245
2.0723e-05
-8.146e-05
1.36325e-05
-2.52409e-05
5.39589e-06
1.7618e-05
8.44218e-06
1.8031e-05
1.22464e-05
1.8445e-05
1.73406e-05
1.94268e-05
2.43313e-05
1.98715e-05
3.40043e-05
1.90275e-05
4.60437e-05
1.71179e-05
5.7442e-05
1.29363e-05
6.81228e-05
1.19119e-05
7.70123e-05
8.69326e-06
1.43649e-05
4.06688e-05
-8.69975e-05
3.5316e-05
-0.000140615
-6.0016e-06
-0.000124026
-4.3325e-05
-0.000103951
-4.11345e-05
-9.39825e-05
-3.84528e-05
-0.000113569
-2.13716e-05
-8.40814e-05
-0.000111702
-0.000160834
5.76856e-06
1.5055e-05
9.11338e-06
1.46861e-05
1.28388e-05
1.47195e-05
1.76008e-05
1.46648e-05
2.40597e-05
1.34127e-05
3.22424e-05
1.08447e-05
4.15649e-05
7.79533e-06
5.2672e-05
1.82915e-06
6.63009e-05
-1.7171e-06
8.16493e-05
-6.6553e-06
0.000103124
1.91735e-05
5.61525e-05
8.18667e-05
-1.86907e-05
6.66154e-05
-6.32771e-05
-1.04581e-06
-6.87888e-05
-3.8358e-05
-6.14587e-05
-4.88129e-05
-3.57247e-05
-5.20261e-05
-5.30187e-05
-0.000111348
-0.000227885
6.30903e-06
1.28582e-05
8.98088e-06
1.20143e-05
1.22693e-05
1.14311e-05
1.65959e-05
1.03382e-05
2.21899e-05
7.81863e-06
2.90837e-05
3.95078e-06
3.76061e-05
-7.27181e-07
4.81742e-05
-8.73901e-06
6.39781e-05
-1.75211e-05
8.09635e-05
-2.36407e-05
0.000103425
-3.28802e-06
9.67321e-05
8.85578e-05
4.66639e-05
0.000116676
-2.54783e-05
7.10896e-05
-5.36004e-05
-1.02392e-05
-3.22887e-05
-7.01266e-05
3.25097e-06
-8.75669e-05
6.97423e-06
-0.000114888
-0.000225168
5.85835e-06
1.08149e-05
8.21517e-06
9.65753e-06
1.10646e-05
8.58172e-06
1.47026e-05
6.7002e-06
1.91597e-05
3.36153e-06
2.44694e-05
-1.35895e-06
3.14185e-05
-7.67636e-06
4.00584e-05
-1.7379e-05
5.36433e-05
-3.11061e-05
7.04943e-05
-4.04917e-05
8.93853e-05
-2.21791e-05
9.69091e-05
8.1034e-05
8.25147e-05
0.000131071
4.33186e-05
0.000110286
-4.09481e-06
3.71741e-05
-6.94054e-06
-6.72809e-05
-1.76277e-06
-9.27447e-05
-6.06394e-08
-0.000116466
-0.000229669
5.21049e-06
9.27514e-06
6.99801e-06
7.87009e-06
9.24367e-06
6.33612e-06
1.20007e-05
3.94322e-06
1.51549e-05
2.07308e-07
1.87929e-05
-4.99698e-06
2.33916e-05
-1.22751e-05
2.86981e-05
-2.26855e-05
3.66946e-05
-3.91027e-05
4.82937e-05
-5.20909e-05
6.89762e-05
-4.28618e-05
7.9437e-05
7.05732e-05
7.47506e-05
0.000135757
6.11116e-05
0.000123925
3.6995e-05
6.12908e-05
2.22485e-05
-5.25344e-05
1.25148e-05
-8.3011e-05
1.75298e-06
-0.000105781
-0.000222853
4.23813e-06
8.05005e-06
5.55413e-06
6.55417e-06
7.15635e-06
4.73397e-06
8.89732e-06
2.2023e-06
1.08199e-05
-1.71524e-06
1.26335e-05
-6.81068e-06
1.43918e-05
-1.40334e-05
1.57533e-05
-2.4047e-05
1.69754e-05
-4.03249e-05
1.80128e-05
-5.31283e-05
3.50084e-05
-5.98574e-05
4.88523e-05
5.67292e-05
5.18408e-05
0.000132768
5.60982e-05
0.000119667
5.1742e-05
6.5647e-05
4.37603e-05
-4.45526e-05
3.54696e-05
-7.47191e-05
1.82804e-05
-8.85674e-05
-0.000205697
3.14064e-06
7.2349e-06
3.99389e-06
5.701e-06
4.91895e-06
3.80899e-06
5.79254e-06
1.32876e-06
6.45514e-06
-2.37782e-06
6.68907e-06
-7.04463e-06
5.88751e-06
-1.32319e-05
3.67068e-06
-2.18303e-05
-2.23511e-06
-3.44192e-05
-1.02428e-05
-4.51206e-05
-1.57735e-05
-5.43268e-05
6.79718e-06
3.41585e-05
2.53531e-05
0.000114212
4.01645e-05
0.000104856
5.32103e-05
5.26012e-05
5.0597e-05
-4.19394e-05
3.96061e-05
-6.37281e-05
1.77692e-05
-6.67364e-05
-0.000188264
1.93177e-06
6.77704e-06
2.37854e-06
5.25432e-06
2.74726e-06
3.44035e-06
2.92786e-06
1.1482e-06
2.61215e-06
-2.06209e-06
1.53007e-06
-5.96257e-06
-8.28691e-07
-1.08731e-05
-5.5931e-06
-1.70659e-05
-1.56948e-05
-2.43175e-05
-2.84291e-05
-3.23864e-05
-4.69172e-05
-3.58387e-05
-3.03215e-05
1.75629e-05
1.45694e-06
8.24341e-05
2.46323e-05
8.16805e-05
4.92492e-05
2.79844e-05
4.42122e-05
-3.69024e-05
2.65955e-05
-4.61112e-05
8.71987e-06
-4.88571e-05
-0.000179608
8.39936e-07
6.52883e-06
8.8013e-07
5.21421e-06
7.8627e-07
3.53429e-06
3.92223e-07
1.5423e-06
-5.44528e-07
-1.12532e-06
-2.31385e-06
-4.19326e-06
-5.47891e-06
-7.7081e-06
-1.08525e-05
-1.16923e-05
-1.95838e-05
-1.55862e-05
-3.35823e-05
-1.83879e-05
-5.32088e-05
-1.62122e-05
-5.0008e-05
1.43621e-05
-2.23159e-05
5.4742e-05
8.93655e-06
5.04282e-05
2.82616e-05
8.65942e-06
1.78541e-05
-2.64949e-05
3.59848e-06
-3.18558e-05
-1.98267e-07
-4.50484e-05
-0.000179813
-2.404e-07
6.59392e-06
-4.37063e-07
5.41096e-06
-8.56908e-07
3.95421e-06
-1.60855e-06
2.294e-06
-2.95852e-06
2.24663e-07
-5.08716e-06
-2.06463e-06
-8.40239e-06
-4.39288e-06
-1.34269e-05
-6.66783e-06
-2.07362e-05
-8.27694e-06
-3.13646e-05
-7.75949e-06
-4.43833e-05
-3.19347e-06
-4.63318e-05
1.63107e-05
-2.93752e-05
3.77854e-05
-8.71587e-06
2.97688e-05
-7.97495e-06
7.91852e-06
-1.99384e-05
-1.45317e-05
-2.58889e-05
-2.5908e-05
-6.82731e-06
-6.40953e-05
-0.000186552
-1.15137e-06
6.81744e-06
-1.57185e-06
5.83151e-06
-2.23875e-06
4.62118e-06
-3.22589e-06
3.28119e-06
-4.74021e-06
1.739e-06
-6.92308e-06
1.18242e-07
-1.00173e-05
-1.29866e-06
-1.42778e-05
-2.40731e-06
-1.98607e-05
-2.69407e-06
-2.69321e-05
-6.88073e-07
-3.4642e-05
4.51634e-06
-3.60146e-05
1.76833e-05
-2.9914e-05
3.16848e-05
-2.85023e-05
2.83574e-05
-4.59539e-05
2.53764e-05
-7.0457e-05
1.00201e-05
-6.00755e-05
-3.61162e-05
-1.43424e-05
-0.000108649
-0.000197445
-1.94958e-06
7.20338e-06
-2.51556e-06
6.39755e-06
-3.32383e-06
5.42951e-06
-4.43852e-06
4.39591e-06
-5.98339e-06
3.28388e-06
-8.07346e-06
2.20831e-06
-1.0784e-05
1.41183e-06
-1.41621e-05
9.70852e-07
-1.82275e-05
1.37127e-06
-2.27641e-05
3.84856e-06
-2.70768e-05
8.82898e-06
-2.86849e-05
1.92915e-05
-3.09229e-05
3.39227e-05
-4.62562e-05
4.36909e-05
-8.94118e-05
6.85433e-05
-0.000136792
5.87035e-05
-7.97053e-05
-8.51782e-05
-4.44676e-06
-0.000171014
-0.000190936
-2.59875e-06
7.69437e-06
-3.26542e-06
7.06429e-06
-4.15666e-06
6.3208e-06
-5.31264e-06
5.55194e-06
-6.80354e-06
4.7748e-06
-8.68874e-06
4.09353e-06
-1.09391e-05
3.66221e-06
-1.35128e-05
3.54452e-06
-1.63326e-05
4.19107e-06
-1.8805e-05
6.32097e-06
-2.06203e-05
1.06443e-05
-2.23049e-05
2.0976e-05
-3.05306e-05
4.21483e-05
-6.38571e-05
7.70127e-05
-0.000110838
0.000115222
-9.70048e-05
4.40281e-05
-1.14427e-05
-0.000163973
1.13754e-05
-0.000183997
-0.000187244
-3.11666e-06
8.26199e-06
-3.84296e-06
7.79063e-06
-4.76691e-06
7.2448e-06
-5.91867e-06
6.70373e-06
-7.33895e-06
6.1951e-06
-9.02232e-06
5.77692e-06
-1.09097e-05
5.54959e-06
-1.29387e-05
5.57353e-06
-1.47329e-05
5.98529e-06
-1.54603e-05
7.04836e-06
-1.43699e-05
9.55389e-06
-1.29144e-05
1.95206e-05
-2.26412e-05
5.1875e-05
-5.77206e-05
0.000112088
-8.4664e-05
0.000141749
-3.61098e-05
-5.70881e-06
7.28009e-06
-0.000204737
5.67263e-06
-0.000206284
-0.000205864
-3.5059e-06
8.87734e-06
-4.26254e-06
8.54731e-06
-5.19936e-06
8.18166e-06
-6.3264e-06
7.8308e-06
-7.67024e-06
7.53897e-06
-9.20556e-06
7.31226e-06
-1.08416e-05
7.18566e-06
-1.23461e-05
7.078e-06
-1.31924e-05
6.83162e-06
-1.24136e-05
6.26961e-06
-9.78002e-06
6.92028e-06
-9.75734e-06
1.94979e-05
-2.74644e-05
6.95821e-05
-4.6076e-05
0.000130697
-4.49117e-05
0.000140453
-1.80312e-05
-3.41065e-05
8.16866e-06
-0.000220977
-2.95937e-06
-0.000213924
-0.000205735
-3.78174e-06
9.52094e-06
-4.54757e-06
9.31318e-06
-5.4719e-06
9.10602e-06
-6.56957e-06
8.9285e-06
-7.85903e-06
8.82846e-06
-9.35446e-06
8.80771e-06
-1.10704e-05
8.90164e-06
-1.30354e-05
9.04299e-06
-1.52876e-05
9.08387e-06
-1.78524e-05
8.83438e-06
-2.13411e-05
1.0409e-05
-2.76644e-05
2.58212e-05
-3.54111e-05
7.73289e-05
-3.16632e-05
0.000126949
-1.55548e-05
0.000124331
-8.58227e-06
-4.22056e-05
-9.91008e-06
-0.000215028
-1.93008e-06
-0.000217499
-0.000197266
-3.94776e-06
1.01685e-05
-4.70828e-06
1.00737e-05
-5.60311e-06
1.00009e-05
-6.64754e-06
9.97297e-06
-7.85893e-06
1.00399e-05
-9.26662e-06
1.02154e-05
-1.09404e-05
1.05755e-05
-1.30681e-05
1.11707e-05
-1.61277e-05
1.21435e-05
-2.10219e-05
1.37285e-05
-2.82223e-05
1.76095e-05
-3.44423e-05
3.20412e-05
-3.14421e-05
7.43286e-05
-1.39453e-05
0.000109453
1.71249e-05
9.32443e-05
2.60477e-05
-5.14572e-05
-7.95459e-08
-0.000190232
2.38503e-06
-0.000222287
-0.000203819
-4.02456e-06
1.08136e-05
-4.76465e-06
1.08139e-05
-5.6173e-06
1.08536e-05
-6.59e-06
1.09457e-05
-7.69541e-06
1.11453e-05
-8.9506e-06
1.14706e-05
-1.03979e-05
1.20228e-05
-1.21577e-05
1.29305e-05
-1.45178e-05
1.45035e-05
-1.80397e-05
1.72505e-05
-2.30449e-05
2.26147e-05
-2.63558e-05
3.53522e-05
-1.38263e-05
6.17991e-05
1.9034e-05
7.65924e-05
6.5117e-05
4.71583e-05
7.2114e-05
-5.84612e-05
3.03553e-05
-0.000148491
-3.13274e-06
-0.000196693
-0.000204999
-4.01427e-06
1.1446e-05
-4.72573e-06
1.15253e-05
-5.52474e-06
1.16526e-05
-6.40652e-06
1.18275e-05
-7.36901e-06
1.21079e-05
-8.40123e-06
1.25029e-05
-9.46736e-06
1.3089e-05
-1.05255e-05
1.39887e-05
-1.14568e-05
1.54348e-05
-1.19585e-05
1.77522e-05
-1.06412e-05
2.12975e-05
-2.94352e-06
2.76545e-05
2.06874e-05
3.81682e-05
5.65496e-05
4.07302e-05
8.95001e-05
1.42078e-05
9.06651e-05
-5.96262e-05
4.32202e-05
-0.000101041
-1.51925e-06
-0.000158733
-0.000191419
-3.93228e-06
1.20671e-05
-4.62626e-06
1.22194e-05
-5.38755e-06
1.24139e-05
-6.22093e-06
1.26609e-05
-7.1015e-06
1.29885e-05
-8.00041e-06
1.34018e-05
-8.8353e-06
1.39239e-05
-9.43922e-06
1.45927e-05
-9.48221e-06
1.54778e-05
-8.36776e-06
1.66378e-05
-4.8039e-06
1.77337e-05
4.70053e-06
1.81501e-05
2.47935e-05
1.80753e-05
5.48579e-05
1.06658e-05
8.57973e-05
-1.67316e-05
8.92635e-05
-6.30924e-05
6.37775e-05
-7.55525e-05
3.80901e-05
-0.000133768
-0.000149737
-3.72466e-06
1.26986e-05
-4.4115e-06
1.29062e-05
-5.1394e-06
1.31418e-05
-5.89903e-06
1.34206e-05
-6.67399e-06
1.37634e-05
-7.43221e-06
1.41601e-05
-8.10643e-06
1.45981e-05
-8.543e-06
1.50293e-05
-8.41874e-06
1.53535e-05
-7.11372e-06
1.53328e-05
-3.83371e-06
1.44536e-05
3.51385e-06
1.08025e-05
1.54603e-05
6.1288e-06
3.55385e-05
-9.41241e-06
5.52825e-05
-3.64755e-05
6.39356e-05
-7.17457e-05
5.48449e-05
-6.64617e-05
4.15335e-05
-0.000120538
-0.000110033
-3.2432e-06
1.31554e-05
-3.88731e-06
1.35503e-05
-4.6597e-06
1.39142e-05
-5.52727e-06
1.42881e-05
-6.4448e-06
1.46809e-05
-7.37019e-06
1.50855e-05
-8.23652e-06
1.54644e-05
-8.90289e-06
1.56956e-05
-9.18945e-06
1.56401e-05
-8.86688e-06
1.50101e-05
-7.35835e-06
1.29451e-05
-4.23862e-06
7.68274e-06
2.64054e-06
-7.50379e-07
1.61096e-05
-2.28815e-05
2.01702e-05
-4.05361e-05
3.12309e-05
-8.28063e-05
3.59716e-05
-7.12025e-05
2.40039e-05
-0.000108573
-8.61176e-05
-3.03572e-06
-3.25237e-06
-3.61182e-06
-4.07776e-06
-4.63484e-06
-5.28323e-06
-6.02663e-06
-6.85899e-06
-7.692e-06
-8.26571e-06
-7.97862e-06
-4.97466e-06
-1.02532e-06
1.20989e-05
1.72585e-05
2.3679e-05
2.84261e-05
1.89599e-05
)
;

boundaryField
{
    leftWall
    {
        type            fixedValue;
        value           nonuniform 0();
    }
    rightWall
    {
        type            fixedValue;
        value           uniform 0;
    }
    lowerWall
    {
        type            fixedValue;
        value           nonuniform 0();
    }
    atmosphere
    {
        type            calculated;
        value           nonuniform List<scalar> 
23
(
4.99732e-06
5.13507e-06
5.26864e-06
5.3986e-06
1.31934e-05
1.3767e-05
1.42737e-05
1.47541e-05
1.5238e-05
1.57338e-05
1.62078e-05
1.6528e-05
1.64731e-05
1.55838e-05
1.2658e-05
4.67878e-06
-4.69973e-06
-3.60057e-05
-4.56957e-05
-8.92268e-05
-7.59497e-05
-9.91066e-05
-6.71583e-05
)
;
    }
    defaultFaces
    {
        type            empty;
        value           nonuniform 0();
    }
    procBoundary3to1
    {
        type            processor;
        value           nonuniform List<scalar> 
23
(
-9.1331e-06
-9.36804e-06
-9.72026e-06
-1.0024e-05
-2.47732e-05
-2.61884e-05
-2.87852e-05
-3.31354e-05
-4.13631e-05
-5.34114e-05
-5.10037e-05
1.89276e-05
0.00011662
0.000186244
0.000153091
0.000103482
5.82719e-05
3.64456e-05
2.99175e-05
6.95556e-06
1.41245e-05
2.78469e-05
3.60597e-05
)
;
    }
    procBoundary3to2
    {
        type            processor;
        value           nonuniform List<scalar> 
25
(
3.46847e-06
1.57009e-06
-8.39467e-08
-4.22137e-08
-1.22009e-06
-1.10728e-06
-1.57435e-06
-1.23902e-06
-9.93966e-07
-6.62137e-07
-1.94892e-07
2.58905e-07
7.02704e-07
1.12648e-06
1.5029e-06
1.82458e-06
2.08659e-06
2.28359e-06
2.41611e-06
2.48529e-06
2.47744e-06
2.39741e-06
2.36013e-06
2.65251e-06
3.34037e-06
)
;
    }
}


// ************************************************************************* //
