/*--------------------------------*- C++ -*----------------------------------*\
| =========                 |                                                 |
| \\      /  F ield         | OpenFOAM: The Open Source CFD Toolbox           |
|  \\    /   O peration     | Version:  2.4.0                                 |
|   \\  /    A nd           | Web:      www.OpenFOAM.org                      |
|    \\/     M anipulation  |                                                 |
\*---------------------------------------------------------------------------*/
FoamFile
{
    version     2.0;
    format      ascii;
    class       surfaceScalarField;
    location    "0.65";
    object      phi.mercury;
}
// * * * * * * * * * * * * * * * * * * * * * * * * * * * * * * * * * * * * * //

dimensions      [0 3 -1 0 0 0 0];

internalField   nonuniform List<scalar> 
1102
(
-2.40947e-06
8.07028e-06
-1.34171e-06
8.29346e-06
-3.98582e-07
8.76056e-06
9.08745e-06
5.38419e-07
-8.12279e-07
7.32075e-06
-4.31872e-08
7.53211e-06
7.56955e-07
7.96133e-06
8.25558e-06
1.59802e-06
7.09932e-07
6.69546e-06
1.32371e-06
6.91367e-06
2.09316e-06
7.19925e-06
7.40922e-06
2.94604e-06
6.96535e-07
6.04481e-06
1.4194e-06
6.19547e-06
2.28174e-06
6.34083e-06
6.47505e-06
3.22316e-06
1.7768e-06
5.48889e-06
2.42663e-06
5.54458e-06
3.24709e-06
5.5282e-06
5.60044e-06
4.12783e-06
1.70449e-06
4.89529e-06
2.33086e-06
4.9231e-06
3.02895e-06
4.83534e-06
4.8064e-06
3.82981e-06
2.09392e-06
4.37707e-06
2.59296e-06
4.42497e-06
3.09289e-06
4.34295e-06
4.22061e-06
3.68451e-06
1.61331e-06
4.00573e-06
2.07548e-06
3.96704e-06
2.54069e-06
3.88314e-06
3.74112e-06
3.0263e-06
1.2695e-06
3.73171e-06
1.59769e-06
3.64052e-06
1.96428e-06
3.52303e-06
3.37266e-06
2.33802e-06
8.6638e-07
3.53049e-06
1.07466e-06
3.43568e-06
1.28721e-06
3.31562e-06
3.17906e-06
1.486e-06
2.65511e-07
3.46175e-06
3.73018e-07
3.33021e-06
4.81386e-07
3.21283e-06
3.06174e-06
6.0326e-07
-2.27854e-07
3.43363e-06
-2.07503e-07
3.31275e-06
-1.75443e-07
3.18529e-06
3.05495e-06
-1.64099e-07
-7.52348e-07
3.48549e-06
-8.00685e-07
3.36324e-06
-8.54932e-07
3.24429e-06
3.12108e-06
-9.17058e-07
-1.21122e-06
3.5734e-06
-1.3155e-06
3.46992e-06
-1.42685e-06
3.35986e-06
3.25119e-06
-1.55319e-06
-1.62718e-06
3.70014e-06
-1.76942e-06
3.61439e-06
-1.92528e-06
3.51985e-06
3.42696e-06
-2.0977e-06
-1.97478e-06
3.8536e-06
-2.14549e-06
3.78733e-06
-2.33406e-06
3.71205e-06
3.63541e-06
-2.53937e-06
-2.25708e-06
4.02678e-06
-2.44609e-06
3.9785e-06
-2.6542e-06
3.92381e-06
3.86522e-06
-2.88138e-06
-2.46823e-06
4.21489e-06
-2.66892e-06
4.1814e-06
-2.88972e-06
4.14767e-06
4.10749e-06
-3.12946e-06
-2.60959e-06
4.41111e-06
-2.82226e-06
4.39603e-06
-3.04578e-06
4.37434e-06
4.35587e-06
-3.29216e-06
-2.68282e-06
4.61227e-06
-2.89671e-06
4.61202e-06
-3.12764e-06
4.60773e-06
4.60237e-06
-3.37215e-06
-2.68585e-06
4.82299e-06
-2.90188e-06
4.82971e-06
-3.13109e-06
4.83981e-06
4.84824e-06
-3.37554e-06
-2.60565e-06
5.03392e-06
-2.82965e-06
5.05565e-06
-3.06325e-06
5.075e-06
5.09226e-06
-3.30565e-06
-2.47889e-06
5.1542e-06
-2.64685e-06
5.22424e-06
-2.85108e-06
5.28161e-06
5.3312e-06
-3.08882e-06
-2.61292e-06
5.11745e-06
-2.61827e-06
5.23258e-06
-2.675e-06
5.34042e-06
5.44062e-06
-2.78277e-06
-3.21638e-06
-3.11637e-06
-3.04123e-06
-2.99612e-06
2.78401e-06
2.2486e-05
4.90068e-06
2.40276e-05
7.59094e-06
2.6018e-05
1.13186e-05
2.93298e-05
1.84605e-05
3.41252e-05
3.18431e-05
3.99268e-05
3.67714e-05
4.43484e-05
-7.2131e-05
3.44229e-05
-0.000101852
-3.59221e-05
-0.000169244
-5.89131e-05
-0.000176469
-5.90535e-05
-0.000173079
-4.88438e-05
-0.000164494
-2.22904e-05
-0.000143116
5.38078e-06
-0.000105084
2.63896e-05
-6.52271e-05
4.74719e-05
-2.88793e-05
7.08988e-05
1.78941e-06
7.21019e-05
7.02615e-05
4.04711e-06
2.00432e-05
7.05499e-06
2.10255e-05
1.08881e-05
2.21891e-05
1.57709e-05
2.44544e-05
2.31288e-05
2.67886e-05
3.4448e-05
2.86284e-05
4.97674e-05
2.91021e-05
6.03868e-05
2.42461e-05
-3.78567e-06
2.23024e-05
-0.00013266
4.11064e-06
-0.000134826
-6.05394e-05
-0.000156173
-3.81044e-05
-0.000144683
-4.43798e-05
-0.000124763
-2.23022e-05
-9.51054e-05
-1.03403e-06
-6.34525e-05
1.19356e-05
-3.78078e-05
1.33853e-05
-1.32182e-05
-1.63437e-05
-6.61706e-06
5.42302e-06
1.75732e-05
8.47242e-06
1.79816e-05
1.22754e-05
1.83905e-05
1.73677e-05
1.9368e-05
2.43587e-05
1.98087e-05
3.4037e-05
1.89619e-05
4.61295e-05
1.70485e-05
5.74522e-05
1.28483e-05
6.7984e-05
1.17143e-05
5.22693e-05
8.22162e-06
-7.93395e-05
3.04408e-05
-9.31176e-05
-9.77825e-06
-0.000140733
-3.51073e-05
-0.000126121
-2.6143e-05
-9.8344e-05
-1.95285e-05
-7.32845e-05
-1.07343e-05
-3.78744e-05
-1.13137e-05
-1.20257e-05
-8.56215e-05
-0.000100708
5.79204e-06
1.50114e-05
9.13947e-06
1.46394e-05
1.28645e-05
1.46694e-05
1.76249e-05
1.46116e-05
2.40827e-05
1.33567e-05
3.2268e-05
1.07852e-05
4.16234e-05
7.72918e-06
5.27091e-05
1.73985e-06
6.65029e-05
-1.85023e-06
8.19384e-05
-7.06378e-06
0.000102003
1.78232e-05
4.77807e-05
8.08795e-05
-3.9673e-05
6.27067e-05
-6.40459e-05
-1.30234e-05
-7.21629e-05
-2.65011e-05
-5.71673e-05
-2.90439e-05
-2.37373e-05
-3.33756e-05
-7.78514e-06
-0.000125761
-0.000131177
6.32999e-06
1.28165e-05
9.00424e-06
1.19705e-05
1.22925e-05
1.13848e-05
1.66177e-05
1.02897e-05
2.22102e-05
7.76792e-06
2.91039e-05
3.89768e-06
3.7654e-05
-7.84472e-07
4.82136e-05
-8.81133e-06
6.42854e-05
-1.7655e-05
8.09018e-05
-2.40564e-05
0.000102834
-4.21634e-06
9.67246e-05
8.74882e-05
4.65409e-05
0.000116061
-2.74262e-05
7.07704e-05
-5.3227e-05
-1.26939e-05
-3.17255e-05
-7.10434e-05
3.88348e-06
-8.81283e-05
9.41242e-07
-0.000116237
-0.00022774
5.87763e-06
1.07755e-05
8.23651e-06
9.61657e-06
1.1086e-05
8.53887e-06
1.47227e-05
6.65558e-06
1.91776e-05
3.31508e-06
2.44857e-05
-1.40737e-06
3.14535e-05
-7.7287e-06
4.00707e-05
-1.74479e-05
5.40728e-05
-3.12521e-05
6.97391e-05
-4.08756e-05
8.88989e-05
-2.31576e-05
9.6792e-05
7.89626e-05
8.24777e-05
0.000130414
4.22364e-05
0.000110152
-5.03921e-06
3.67046e-05
-5.69783e-06
-6.76876e-05
-2.95711e-07
-9.32869e-05
-2.46974e-06
-0.000117357
-0.000215664
5.22848e-06
9.23833e-06
7.0178e-06
7.83192e-06
9.26365e-06
6.2965e-06
1.20193e-05
3.90199e-06
1.51714e-05
1.64559e-07
1.88067e-05
-5.04136e-06
2.34144e-05
-1.23225e-05
2.86744e-05
-2.27463e-05
3.7052e-05
-3.92286e-05
4.70626e-05
-5.24147e-05
6.96597e-05
-4.38416e-05
7.94226e-05
6.93754e-05
7.51715e-05
0.000133736
6.10291e-05
0.000123758
3.58527e-05
6.14435e-05
2.31446e-05
-5.26167e-05
1.38568e-05
-8.35083e-05
1.51711e-06
-0.000110323
-0.00024456
4.25502e-06
8.01572e-06
5.57274e-06
6.5187e-06
7.17502e-06
4.69724e-06
8.91479e-06
2.16418e-06
1.08351e-05
-1.75476e-06
1.26458e-05
-6.85165e-06
1.4404e-05
-1.40767e-05
1.57098e-05
-2.41006e-05
1.71434e-05
-4.04387e-05
1.64186e-05
-5.33966e-05
3.68577e-05
-6.04442e-05
4.99743e-05
5.63926e-05
5.18211e-05
0.000131748
5.61863e-05
0.000118692
5.15974e-05
6.51923e-05
4.42694e-05
-4.45345e-05
3.67907e-05
-7.4806e-05
1.6047e-05
-9.06381e-05
-0.000244624
3.1566e-06
7.20293e-06
4.01149e-06
5.66813e-06
4.93649e-06
3.77491e-06
5.80889e-06
1.29345e-06
6.46922e-06
-2.41452e-06
6.70027e-06
-7.08271e-06
5.89477e-06
-1.32717e-05
3.63549e-06
-2.18772e-05
-2.36481e-06
-3.45244e-05
-1.15385e-05
-4.54464e-05
-1.47906e-05
-5.4525e-05
8.00514e-06
3.48253e-05
2.61536e-05
0.000114059
4.07512e-05
0.000103904
5.34028e-05
5.26876e-05
5.0827e-05
-4.17492e-05
4.04021e-05
-6.38646e-05
1.89668e-05
-6.69587e-05
-0.000211165
1.947e-06
6.74734e-06
2.39514e-06
5.22376e-06
2.7638e-06
3.40872e-06
2.94309e-06
1.11533e-06
2.62515e-06
-2.09635e-06
1.54036e-06
-5.99828e-06
-8.21899e-07
-1.09103e-05
-5.60884e-06
-1.71067e-05
-1.59113e-05
-2.43936e-05
-2.93583e-05
-3.2677e-05
-4.65054e-05
-3.63605e-05
-2.81192e-05
1.79672e-05
2.49728e-06
8.27664e-05
2.48228e-05
8.18092e-05
4.89977e-05
2.86887e-05
4.44147e-05
-3.67932e-05
2.658e-05
-4.63739e-05
9.48011e-06
-5.01838e-05
-0.000191572
8.5447e-07
6.50123e-06
8.95852e-07
5.18577e-06
8.018e-07
3.50483e-06
4.06332e-07
1.51154e-06
-5.32696e-07
-1.15755e-06
-2.30456e-06
-4.22701e-06
-5.4719e-06
-7.74316e-06
-1.08518e-05
-1.17289e-05
-1.9641e-05
-1.56308e-05
-3.401e-05
-1.85041e-05
-5.32097e-05
-1.66114e-05
-4.75768e-05
1.39265e-05
-2.18575e-05
5.46146e-05
8.49974e-06
5.07234e-05
2.85204e-05
8.63076e-06
1.79424e-05
-2.6679e-05
3.64166e-06
-3.19733e-05
2.64012e-07
-4.96042e-05
-0.000187458
-2.26551e-07
6.56819e-06
-4.22168e-07
5.38445e-06
-8.42443e-07
3.92661e-06
-1.59565e-06
2.26504e-06
-2.94793e-06
1.94118e-07
-5.07892e-06
-2.09673e-06
-8.39587e-06
-4.4262e-06
-1.34217e-05
-6.70205e-06
-2.07376e-05
-8.31232e-06
-3.14266e-05
-7.80376e-06
-4.45118e-05
-3.29889e-06
-4.52974e-05
1.61263e-05
-2.92218e-05
3.74499e-05
-9.35254e-06
2.95977e-05
-7.73613e-06
7.72518e-06
-1.98081e-05
-1.45707e-05
-2.44286e-05
-2.65021e-05
-6.35709e-06
-7.23554e-05
-0.000210509
-1.13816e-06
6.79343e-06
-1.55785e-06
5.80673e-06
-2.2254e-06
4.59523e-06
-3.21429e-06
3.25375e-06
-4.7309e-06
1.70992e-06
-6.91583e-06
8.76787e-08
-1.00115e-05
-1.33041e-06
-1.42723e-05
-2.43966e-06
-1.98554e-05
-2.72682e-06
-2.69304e-05
-7.21512e-07
-3.46585e-05
4.47796e-06
-3.59025e-05
1.76209e-05
-2.98854e-05
3.15597e-05
-2.84756e-05
2.81921e-05
-4.6009e-05
2.26928e-05
-6.97821e-05
-9.36882e-06
-5.64361e-05
-8.09838e-05
-1.06236e-05
-0.000184991
-0.00026826
-1.937e-06
7.18097e-06
-2.50252e-06
6.37426e-06
-3.3117e-06
5.40499e-06
-4.42827e-06
4.36981e-06
-5.97532e-06
3.25613e-06
-8.06717e-06
2.1792e-06
-1.07786e-05
1.38171e-06
-1.41569e-05
9.40315e-07
-1.8222e-05
1.34043e-06
-2.27585e-05
3.81742e-06
-2.70726e-05
8.79698e-06
-2.86727e-05
1.92564e-05
-3.08721e-05
3.38662e-05
-4.59384e-05
4.32932e-05
-8.22515e-05
5.45527e-05
-0.000105771
-7.9689e-05
-4.65433e-05
-0.000224879
-2.94625e-06
-0.000251101
-0.000235274
-2.58689e-06
7.67337e-06
-3.25339e-06
7.04237e-06
-4.14582e-06
6.29754e-06
-5.30374e-06
5.52709e-06
-6.79658e-06
4.74843e-06
-8.68327e-06
4.0659e-06
-1.09341e-05
3.63392e-06
-1.35078e-05
3.51582e-06
-1.63273e-05
4.16218e-06
-1.87997e-05
6.29159e-06
-2.06153e-05
1.06141e-05
-2.22994e-05
2.09441e-05
-3.0489e-05
4.21106e-05
-6.19453e-05
7.66564e-05
-7.71502e-05
8.92992e-05
-4.8576e-05
-0.000108802
-1.7506e-05
-0.000223138
-1.73552e-06
-0.000221246
-0.000203595
-3.10556e-06
8.24229e-06
-3.83203e-06
7.76994e-06
-4.75736e-06
7.22271e-06
-5.91101e-06
6.68012e-06
-7.33303e-06
6.17015e-06
-9.0174e-06
5.75097e-06
-1.0905e-05
5.52318e-06
-1.29339e-05
5.54682e-06
-1.47281e-05
5.95839e-06
-1.54558e-05
7.02077e-06
-1.43661e-05
9.52501e-06
-1.29113e-05
1.94896e-05
-2.26549e-05
5.18403e-05
-5.60605e-05
0.000111974
-5.91472e-05
0.00011021
-2.66302e-05
-0.00012766
-1.4638e-05
-0.000209555
-2.40523e-06
-0.000205556
-0.000200363
-3.49561e-06
8.85891e-06
-4.25276e-06
8.52778e-06
-5.19107e-06
8.16077e-06
-6.31985e-06
7.80855e-06
-7.66514e-06
7.51554e-06
-9.20101e-06
7.28824e-06
-1.08373e-05
7.1612e-06
-1.23416e-05
7.05341e-06
-1.31882e-05
6.80662e-06
-1.24101e-05
6.24377e-06
-9.7778e-06
6.89294e-06
-9.75743e-06
1.94686e-05
-2.74907e-05
6.95514e-05
-4.52909e-05
0.000130646
-3.84973e-05
0.000115535
-1.82744e-05
-0.000124173
-1.47732e-05
-0.000214011
-1.75461e-06
-0.000204631
-0.000202368
-3.77237e-06
9.50369e-06
-4.5389e-06
9.29477e-06
-5.46472e-06
9.08632e-06
-6.56397e-06
8.90763e-06
-7.85443e-06
8.80672e-06
-9.35026e-06
8.78554e-06
-1.10662e-05
8.87918e-06
-1.30312e-05
9.0203e-06
-1.5284e-05
9.06065e-06
-1.785e-05
8.81029e-06
-2.13409e-05
1.03835e-05
-2.76683e-05
2.57937e-05
-3.54211e-05
7.72995e-05
-3.16121e-05
0.000126914
-1.94314e-05
0.000113965
-1.38591e-05
-9.48688e-05
-1.63908e-05
-0.000260096
1.36446e-06
-0.000227058
-0.000202058
-3.93932e-06
1.01525e-05
-4.70067e-06
1.00565e-05
-5.5969e-06
9.98245e-06
-6.64266e-06
9.95353e-06
-7.85468e-06
1.00199e-05
-9.26266e-06
1.0195e-05
-1.09364e-05
1.05549e-05
-1.30644e-05
1.11496e-05
-1.61247e-05
1.21218e-05
-2.10204e-05
1.37061e-05
-2.82233e-05
1.75859e-05
-3.44461e-05
3.20168e-05
-3.1451e-05
7.43044e-05
-1.41335e-05
0.000109429
1.50695e-05
9.19615e-05
1.69493e-05
-5.43466e-05
-1.52866e-05
-0.000200739
3.53685e-06
-0.000256498
-0.000198613
-4.01708e-06
1.07987e-05
-4.75802e-06
1.07977e-05
-5.61193e-06
1.08363e-05
-6.58557e-06
1.09277e-05
-7.69152e-06
1.11268e-05
-8.94678e-06
1.14518e-05
-1.03942e-05
1.20036e-05
-1.21545e-05
1.29108e-05
-1.45155e-05
1.44831e-05
-1.80389e-05
1.72294e-05
-2.3046e-05
2.2593e-05
-2.63588e-05
3.53302e-05
-1.38316e-05
6.17783e-05
1.90016e-05
7.65737e-05
6.50587e-05
4.71277e-05
7.21024e-05
-5.84739e-05
2.60031e-05
-0.00014853
1.07159e-05
-0.000216188
-0.000191086
-4.00779e-06
1.14323e-05
-4.72002e-06
1.15103e-05
-5.52003e-06
1.16365e-05
-6.40252e-06
1.18106e-05
-7.36539e-06
1.20904e-05
-8.39769e-06
1.24851e-05
-9.4641e-06
1.30707e-05
-1.05228e-05
1.39699e-05
-1.14551e-05
1.54153e-05
-1.19581e-05
1.77321e-05
-1.06422e-05
2.12771e-05
-2.9453e-06
2.76342e-05
2.06848e-05
3.81486e-05
5.65443e-05
4.07129e-05
8.94916e-05
1.41921e-05
9.06568e-05
-5.96407e-05
4.19204e-05
-0.000101056
2.54774e-05
-0.000165801
-0.000188126
-3.9269e-06
1.20545e-05
-4.62143e-06
1.22055e-05
-5.38347e-06
1.23988e-05
-6.21737e-06
1.26449e-05
-7.09819e-06
1.29717e-05
-7.99728e-06
1.33845e-05
-8.8325e-06
1.39058e-05
-9.43705e-06
1.4574e-05
-9.481e-06
1.54584e-05
-8.36763e-06
1.66179e-05
-4.80472e-06
1.77136e-05
4.6991e-06
1.81303e-05
2.47916e-05
1.80561e-05
5.48547e-05
1.06481e-05
8.57934e-05
-1.67478e-05
8.92574e-05
-6.31074e-05
6.28456e-05
-7.55652e-05
5.66494e-05
-0.000134831
-0.000198074
-3.72029e-06
1.26876e-05
-4.40771e-06
1.28935e-05
-5.13602e-06
1.31277e-05
-5.89611e-06
1.3405e-05
-6.67119e-06
1.37468e-05
-7.4297e-06
1.41422e-05
-8.1042e-06
1.45793e-05
-8.54141e-06
1.50096e-05
-8.41791e-06
1.53332e-05
-7.11371e-06
1.53119e-05
-3.8343e-06
1.44326e-05
3.51274e-06
1.07817e-05
1.54588e-05
6.10857e-06
3.55365e-05
-9.43189e-06
5.52799e-05
-3.64936e-05
6.39317e-05
-7.17614e-05
5.48215e-05
-6.64752e-05
6.447e-05
-0.000120554
-0.000135044
-3.24024e-06
1.31459e-05
-3.88471e-06
1.35386e-05
-4.6575e-06
1.39005e-05
-5.52524e-06
1.42726e-05
-6.44298e-06
1.46638e-05
-7.36852e-06
1.5067e-05
-8.23517e-06
1.54446e-05
-8.90191e-06
1.56748e-05
-9.18897e-06
1.56185e-05
-8.86685e-06
1.49881e-05
-7.35874e-06
1.29227e-05
-4.23935e-06
7.66067e-06
2.63935e-06
-7.72049e-07
1.61081e-05
-2.29024e-05
2.01678e-05
-4.0556e-05
3.12288e-05
-8.28242e-05
3.59691e-05
-7.12188e-05
2.56652e-05
-0.000108588
-8.66542e-05
-3.03462e-06
-3.25147e-06
-3.61104e-06
-4.07706e-06
-4.6342e-06
-5.28266e-06
-6.02618e-06
-6.85867e-06
-7.69183e-06
-8.26571e-06
-7.9788e-06
-4.97509e-06
-1.02604e-06
1.2098e-05
1.72569e-05
2.36779e-05
2.84246e-05
1.89597e-05
)
;

boundaryField
{
    leftWall
    {
        type            fixedValue;
        value           nonuniform 0();
    }
    rightWall
    {
        type            fixedValue;
        value           uniform 0;
    }
    lowerWall
    {
        type            fixedValue;
        value           nonuniform 0();
    }
    atmosphere
    {
        type            calculated;
        value           nonuniform List<scalar> 
23
(
4.99655e-06
5.13375e-06
5.2668e-06
5.39602e-06
1.31847e-05
1.37555e-05
1.426e-05
1.47385e-05
1.52207e-05
1.5715e-05
1.61877e-05
1.65067e-05
1.6451e-05
1.55613e-05
1.26352e-05
4.65631e-06
-4.72173e-06
-3.60272e-05
-4.57157e-05
-8.92466e-05
-7.59657e-05
-9.91226e-05
-6.71682e-05
)
;
    }
    defaultFaces
    {
        type            empty;
        value           nonuniform 0();
    }
    procBoundary3to1
    {
        type            processor;
        value           nonuniform List<scalar> 
23
(
-9.12304e-06
-9.35482e-06
-9.70623e-06
-1.00055e-05
-2.47232e-05
-2.61167e-05
-2.87052e-05
-3.30283e-05
-4.12305e-05
-5.3271e-05
-4.9179e-05
5.51648e-05
6.38227e-05
8.73463e-05
7.65952e-05
4.64052e-05
4.29549e-06
-2.40088e-05
-3.9231e-05
-6.09199e-05
-9.75457e-05
-0.000112778
-9.96941e-05
)
;
    }
    procBoundary3to2
    {
        type            processor;
        value           nonuniform List<scalar> 
25
(
3.45229e-06
1.56477e-06
-9.21859e-08
-4.53045e-08
-1.22459e-06
-1.10837e-06
-1.57681e-06
-1.23976e-06
-9.95845e-07
-6.62971e-07
-1.96571e-07
2.57857e-07
7.01098e-07
1.12532e-06
1.50133e-06
1.82339e-06
2.08511e-06
2.28257e-06
2.41469e-06
2.48459e-06
2.47612e-06
2.39679e-06
2.35928e-06
2.6525e-06
3.34132e-06
)
;
    }
}


// ************************************************************************* //
