/*--------------------------------*- C++ -*----------------------------------*\
| =========                 |                                                 |
| \\      /  F ield         | OpenFOAM: The Open Source CFD Toolbox           |
|  \\    /   O peration     | Version:  2.4.0                                 |
|   \\  /    A nd           | Web:      www.OpenFOAM.org                      |
|    \\/     M anipulation  |                                                 |
\*---------------------------------------------------------------------------*/
FoamFile
{
    version     2.0;
    format      ascii;
    class       surfaceScalarField;
    location    "0.65";
    object      phi.oil;
}
// * * * * * * * * * * * * * * * * * * * * * * * * * * * * * * * * * * * * * //

dimensions      [0 3 -1 0 0 0 0];

internalField   nonuniform List<scalar> 
1102
(
-2.40953e-06
8.0701e-06
-1.34178e-06
8.2933e-06
-3.98651e-07
8.7604e-06
9.08728e-06
5.38405e-07
-8.12307e-07
7.32065e-06
-4.32126e-08
7.53203e-06
7.56928e-07
7.96126e-06
8.25552e-06
1.598e-06
7.09918e-07
6.69542e-06
1.32369e-06
6.91364e-06
2.09315e-06
7.19922e-06
7.4092e-06
2.94602e-06
6.96528e-07
6.04479e-06
1.41939e-06
6.19545e-06
2.28173e-06
6.34082e-06
6.47504e-06
3.22316e-06
1.77679e-06
5.48888e-06
2.42663e-06
5.54457e-06
3.24709e-06
5.5282e-06
5.60044e-06
4.12783e-06
1.70449e-06
4.89529e-06
2.33086e-06
4.9231e-06
3.02895e-06
4.83534e-06
4.8064e-06
3.82981e-06
2.09392e-06
4.37707e-06
2.59296e-06
4.42497e-06
3.09289e-06
4.34295e-06
4.22061e-06
3.68451e-06
1.61331e-06
4.00573e-06
2.07548e-06
3.96704e-06
2.54069e-06
3.88314e-06
3.74112e-06
3.0263e-06
1.2695e-06
3.73171e-06
1.59769e-06
3.64052e-06
1.96428e-06
3.52303e-06
3.37266e-06
2.33802e-06
8.6638e-07
3.53049e-06
1.07466e-06
3.43568e-06
1.28721e-06
3.31562e-06
3.17906e-06
1.486e-06
2.65511e-07
3.46175e-06
3.73018e-07
3.33021e-06
4.81386e-07
3.21283e-06
3.06174e-06
6.0326e-07
-2.27854e-07
3.43363e-06
-2.07503e-07
3.31275e-06
-1.75443e-07
3.18529e-06
3.05495e-06
-1.64099e-07
-7.52348e-07
3.48549e-06
-8.00685e-07
3.36324e-06
-8.54932e-07
3.24429e-06
3.12108e-06
-9.17058e-07
-1.21122e-06
3.5734e-06
-1.3155e-06
3.46992e-06
-1.42685e-06
3.35986e-06
3.25119e-06
-1.55319e-06
-1.62718e-06
3.70014e-06
-1.76942e-06
3.61439e-06
-1.92528e-06
3.51985e-06
3.42696e-06
-2.0977e-06
-1.97478e-06
3.8536e-06
-2.14549e-06
3.78733e-06
-2.33406e-06
3.71205e-06
3.63541e-06
-2.53937e-06
-2.25708e-06
4.02678e-06
-2.44609e-06
3.9785e-06
-2.6542e-06
3.92381e-06
3.86522e-06
-2.88138e-06
-2.46823e-06
4.21489e-06
-2.66892e-06
4.1814e-06
-2.88972e-06
4.14767e-06
4.10749e-06
-3.12946e-06
-2.60959e-06
4.41111e-06
-2.82226e-06
4.39603e-06
-3.04578e-06
4.37434e-06
4.35587e-06
-3.29216e-06
-2.68282e-06
4.61227e-06
-2.89671e-06
4.61202e-06
-3.12764e-06
4.60773e-06
4.60237e-06
-3.37215e-06
-2.68585e-06
4.82299e-06
-2.90188e-06
4.82971e-06
-3.13109e-06
4.83981e-06
4.84824e-06
-3.37554e-06
-2.60565e-06
5.03392e-06
-2.82965e-06
5.05565e-06
-3.06325e-06
5.075e-06
5.09226e-06
-3.30565e-06
-2.47889e-06
5.1542e-06
-2.64685e-06
5.22424e-06
-2.85108e-06
5.28161e-06
5.3312e-06
-3.08882e-06
-2.61292e-06
5.11745e-06
-2.61827e-06
5.23258e-06
-2.675e-06
5.34042e-06
5.44062e-06
-2.78277e-06
-3.21638e-06
-3.11637e-06
-3.04123e-06
-2.99612e-06
2.78406e-06
2.24853e-05
4.90078e-06
2.4025e-05
7.58938e-06
2.60096e-05
1.13148e-05
2.93036e-05
1.73624e-05
3.40639e-05
2.47546e-05
3.79968e-05
-6.86131e-05
3.78583e-05
-0.00018019
-2.13327e-05
-0.000203052
-6.30124e-05
-0.000206355
-9.06939e-05
-0.000193807
-8.97245e-05
-0.000193145
-6.57111e-05
-0.000189085
-3.89647e-05
-0.000180509
-1.9264e-05
-0.000172211
-1.0065e-05
-0.000159168
-1.12406e-05
-0.000129848
-2.78436e-05
-7.1209e-05
-5.52003e-05
-6.444e-05
4.04731e-06
2.0043e-05
7.05563e-06
2.10247e-05
1.08908e-05
2.2185e-05
1.57748e-05
2.44414e-05
2.31761e-05
2.67563e-05
3.27079e-05
2.86113e-05
4.31076e-05
2.81071e-05
7.25142e-06
2.01298e-05
-0.000135689
1.77164e-06
-0.000205313
-6.38466e-05
-0.000195529
-8.16611e-05
-0.000179846
-7.36998e-05
-0.000155487
-5.91156e-05
-0.000147626
-3.74941e-05
-0.000132526
-3.2076e-05
-0.000111109
-5.14877e-05
-9.2293e-05
-0.000109727
-6.14757e-05
-0.000176236
-0.000169987
5.42304e-06
1.75731e-05
8.47299e-06
1.79815e-05
1.2277e-05
1.83892e-05
1.73744e-05
1.9364e-05
2.43776e-05
1.97977e-05
3.40292e-05
1.89315e-05
4.54711e-05
1.70355e-05
4.74879e-05
1.27066e-05
1.0629e-05
8.4351e-06
-0.000126652
-1.23581e-05
-0.000190963
-4.06412e-05
-0.000179235
-6.00525e-05
-0.000159819
-7.93516e-05
-0.000128829
-7.25535e-05
-0.000109954
-6.9781e-05
-8.02011e-05
-9.34574e-05
-2.99415e-05
-0.00020169
-6.41734e-07
-0.00030974
-0.000240377
5.79205e-06
1.50113e-05
9.13973e-06
1.46393e-05
1.28651e-05
1.46689e-05
1.7629e-05
1.46097e-05
2.40976e-05
1.33515e-05
3.22942e-05
1.07704e-05
4.16728e-05
7.68399e-06
5.15732e-05
1.61307e-06
6.44933e-05
-1.86496e-06
6.81968e-05
-7.78147e-06
1.11756e-05
1.17761e-05
-0.00010184
1.64393e-05
-0.000149366
-1.22669e-05
-0.000140659
-4.28256e-05
-0.000121014
-5.58631e-05
-5.76569e-05
-7.52969e-05
2.73758e-06
-0.000150312
2.86162e-06
-0.000376609
-0.000245981
6.33e-06
1.28164e-05
9.00428e-06
1.19705e-05
1.22927e-05
1.13847e-05
1.66193e-05
1.02891e-05
2.22186e-05
7.76578e-06
2.9122e-05
3.89016e-06
3.77213e-05
-8.03283e-07
4.80854e-05
-8.86847e-06
6.40596e-05
-1.78836e-05
7.61008e-05
-2.4972e-05
9.40585e-05
-5.83391e-06
8.28434e-05
8.12476e-05
3.15327e-05
0.000104609
-2.98083e-05
6.45455e-05
-5.07007e-05
-1.33191e-05
-2.68208e-05
-7.31158e-05
2.77022e-06
-8.9549e-05
-2.00731e-07
-0.000285606
-0.000227895
5.87764e-06
1.07755e-05
8.23652e-06
9.61656e-06
1.10861e-05
8.53882e-06
1.47232e-05
6.65534e-06
1.91804e-05
3.31408e-06
2.44936e-05
-1.41128e-06
3.1509e-05
-7.74315e-06
3.99337e-05
-1.75129e-05
5.39839e-05
-3.15379e-05
6.72932e-05
-4.17321e-05
8.67263e-05
-2.51189e-05
9.46723e-05
7.68388e-05
7.91622e-05
0.000125048
3.99949e-05
0.000107586
-1.24199e-06
3.71781e-05
-1.06868e-06
-6.72966e-05
4.14004e-06
-9.49665e-05
-7.88501e-07
-0.000181511
-0.000213968
5.22848e-06
9.23833e-06
7.01781e-06
7.83191e-06
9.26367e-06
6.29648e-06
1.20194e-05
3.90191e-06
1.51722e-05
1.64169e-07
1.88088e-05
-5.04332e-06
2.34461e-05
-1.23319e-05
2.84895e-05
-2.2796e-05
3.7009e-05
-3.94557e-05
4.44203e-05
-5.3138e-05
6.96914e-05
-4.59612e-05
8.11474e-05
6.74472e-05
7.54661e-05
0.000131503
6.04054e-05
0.000121651
3.9252e-05
6.2494e-05
2.63049e-05
-5.07039e-05
1.23548e-05
-8.43211e-05
3.53604e-06
-0.000217824
-0.000252561
4.25502e-06
8.01572e-06
5.57274e-06
6.5187e-06
7.17502e-06
4.69723e-06
8.9148e-06
2.16415e-06
1.08352e-05
-1.75493e-06
1.26456e-05
-6.85258e-06
1.44105e-05
-1.40825e-05
1.55338e-05
-2.4137e-05
1.70567e-05
-4.06294e-05
1.36949e-05
-5.39474e-05
3.71552e-05
-6.16516e-05
5.32186e-05
5.59852e-05
5.64554e-05
0.000130522
5.76759e-05
0.00011855
5.2781e-05
6.70451e-05
4.63015e-05
-4.22257e-05
1.98149e-05
-7.39903e-05
9.86114e-06
-0.000160957
-0.000313391
3.1566e-06
7.20293e-06
4.01149e-06
5.66813e-06
4.93649e-06
3.77491e-06
5.80889e-06
1.29344e-06
6.4692e-06
-2.41459e-06
6.6996e-06
-7.08315e-06
5.88907e-06
-1.32748e-05
3.51415e-06
-2.19012e-05
-2.66583e-06
-3.46898e-05
-1.30854e-05
-4.59778e-05
-1.37952e-05
-5.44698e-05
1.18521e-05
3.57382e-05
3.15054e-05
0.000114167
4.36151e-05
0.000104573
5.34019e-05
5.40516e-05
5.25069e-05
-4.01232e-05
2.6436e-05
-6.33536e-05
1.87475e-05
-8.80085e-05
-0.000354714
1.947e-06
6.74734e-06
2.39514e-06
5.22376e-06
2.7638e-06
3.40871e-06
2.94308e-06
1.11532e-06
2.62511e-06
-2.0964e-06
1.5399e-06
-5.99854e-06
-8.26859e-07
-1.09118e-05
-5.67312e-06
-1.71183e-05
-1.63103e-05
-2.44991e-05
-2.99972e-05
-3.30974e-05
-4.43959e-05
-3.63691e-05
-2.30114e-05
1.84874e-05
6.68475e-06
8.2621e-05
2.7676e-05
8.04603e-05
4.90799e-05
2.90086e-05
4.58782e-05
-3.67711e-05
1.76038e-05
-4.68839e-05
1.4582e-05
-8.54562e-05
-0.000336466
8.5447e-07
6.50123e-06
8.95852e-07
5.18577e-06
8.01799e-07
3.50483e-06
4.06324e-07
1.51154e-06
-5.32743e-07
-1.15759e-06
-2.3049e-06
-4.22722e-06
-5.47417e-06
-7.74413e-06
-1.08723e-05
-1.17336e-05
-1.9796e-05
-1.5662e-05
-3.44702e-05
-1.87075e-05
-5.0614e-05
-1.72157e-05
-4.2841e-05
1.25331e-05
-1.85119e-05
5.19473e-05
9.53966e-06
4.83582e-05
2.95476e-05
7.14104e-06
1.78656e-05
-2.78909e-05
6.92223e-06
-4.17387e-05
1.07241e-05
-0.00011495
-0.000288209
-2.26551e-07
6.56819e-06
-4.22168e-07
5.38445e-06
-8.42444e-07
3.92661e-06
-1.59566e-06
2.26504e-06
-2.94798e-06
1.94084e-07
-5.0792e-06
-2.09692e-06
-8.39717e-06
-4.42701e-06
-1.34283e-05
-6.70498e-06
-2.07722e-05
-8.32282e-06
-3.1572e-05
-7.85034e-06
-4.42615e-05
-3.49382e-06
-4.19107e-05
1.55722e-05
-2.78148e-05
3.53248e-05
-8.48132e-06
2.65955e-05
-7.53547e-06
-1.15716e-05
-5.46383e-06
-1.97005e-05
1.97309e-06
-7.07303e-05
8.26982e-06
-0.000158815
-0.000301744
-1.13816e-06
6.79343e-06
-1.55785e-06
5.80673e-06
-2.2254e-06
4.59523e-06
-3.2143e-06
3.25375e-06
-4.73094e-06
1.70989e-06
-6.91608e-06
8.75185e-08
-1.00125e-05
-1.33116e-06
-1.42766e-05
-2.44233e-06
-1.98677e-05
-2.73553e-06
-2.69696e-05
-7.46942e-07
-3.46817e-05
4.40145e-06
-3.51873e-05
1.74122e-05
-2.88196e-05
2.68553e-05
-3.08187e-05
-6.5915e-06
-4.5758e-05
-8.2839e-05
-2.14989e-05
-0.00011806
-6.47041e-06
-0.000188739
6.34492e-06
-0.000235618
-0.00029265
-1.937e-06
7.18097e-06
-2.50252e-06
6.37426e-06
-3.3117e-06
5.40499e-06
-4.42827e-06
4.3698e-06
-5.97535e-06
3.25611e-06
-8.06739e-06
2.17905e-06
-1.07795e-05
1.38095e-06
-1.41609e-05
9.37491e-07
-1.8232e-05
1.32983e-06
-2.27771e-05
3.78438e-06
-2.71013e-05
8.7046e-06
-2.39843e-05
1.88342e-05
-1.86167e-05
2.32096e-05
-3.3832e-05
-2.09612e-05
-4.35025e-05
-0.00011762
-3.65213e-05
-0.000228813
-2.18899e-05
-0.000272882
-2.47307e-06
-0.000265127
-0.000239095
-2.58689e-06
7.67337e-06
-3.25339e-06
7.04237e-06
-4.14582e-06
6.29754e-06
-5.30375e-06
5.52709e-06
-6.79662e-06
4.7484e-06
-8.68352e-06
4.06574e-06
-1.09352e-05
3.63301e-06
-1.35117e-05
3.51167e-06
-1.63381e-05
4.14736e-06
-1.88199e-05
6.23258e-06
-2.05981e-05
1.04227e-05
-1.48297e-05
2.0071e-05
-1.79674e-05
3.04718e-05
-3.31663e-05
6.58938e-06
-4.09875e-05
-0.000117632
-3.26021e-05
-0.000201438
-1.82194e-05
-0.000230902
-2.37916e-06
-0.000222653
-0.000203818
-3.10556e-06
8.24229e-06
-3.83203e-06
7.76994e-06
-4.75737e-06
7.22271e-06
-5.91102e-06
6.68012e-06
-7.33306e-06
6.17013e-06
-9.01766e-06
5.75081e-06
-1.09064e-05
5.52215e-06
-1.29387e-05
5.54159e-06
-1.47413e-05
5.93307e-06
-1.54621e-05
6.89259e-06
-1.42176e-05
9.00712e-06
-9.6053e-06
1.76588e-05
-2.04772e-05
4.03795e-05
-3.68692e-05
5.94774e-05
-3.95655e-05
-0.000118895
-2.46142e-05
-0.000192028
-1.54793e-05
-0.000209999
-2.45977e-06
-0.000205554
-0.000200356
-3.49561e-06
8.85891e-06
-4.25276e-06
8.52778e-06
-5.19107e-06
8.16077e-06
-6.31985e-06
7.80854e-06
-7.66518e-06
7.51553e-06
-9.20128e-06
7.28808e-06
-1.08386e-05
7.16002e-06
-1.23491e-05
7.04728e-06
-1.31985e-05
6.76164e-06
-1.23738e-05
6.0051e-06
-9.69441e-06
5.99199e-06
-1.02785e-05
1.6851e-05
-3.20701e-05
6.42622e-05
-3.58988e-05
0.000109051
-3.27156e-05
-0.000109019
-1.83264e-05
-0.000194294
-1.54795e-05
-0.00021288
-1.75001e-06
-0.000204448
-0.000202365
-3.77237e-06
9.50369e-06
-4.5389e-06
9.29477e-06
-5.46472e-06
9.08632e-06
-6.56397e-06
8.90762e-06
-7.85447e-06
8.80671e-06
-9.3506e-06
8.7854e-06
-1.10683e-05
8.878e-06
-1.30498e-05
9.01291e-06
-1.53381e-05
8.99922e-06
-1.79059e-05
8.51458e-06
-2.15954e-05
9.45807e-06
-2.99697e-05
2.31714e-05
-3.96562e-05
7.19673e-05
-3.0191e-05
0.000108736
-2.80731e-05
-6.32797e-05
-1.73503e-05
-0.000213434
-1.70312e-05
-0.00029335
1.40943e-06
-0.000228028
-0.00020206
-3.93932e-06
1.01525e-05
-4.70067e-06
1.00565e-05
-5.5969e-06
9.98245e-06
-6.64266e-06
9.95353e-06
-7.8547e-06
1.00199e-05
-9.26286e-06
1.01949e-05
-1.09383e-05
1.05542e-05
-1.30835e-05
1.11439e-05
-1.62129e-05
1.20708e-05
-2.12192e-05
1.34047e-05
-2.81692e-05
1.64937e-05
-3.60978e-05
2.96273e-05
-3.65782e-05
7.07307e-05
-2.58147e-05
9.9005e-05
-2.40276e-05
1.22816e-05
-1.97337e-05
-0.000122165
-2.49999e-05
-0.000243048
3.57986e-06
-0.000276129
-0.000198602
-4.01708e-06
1.07987e-05
-4.75802e-06
1.07977e-05
-5.61193e-06
1.08363e-05
-6.58557e-06
1.09277e-05
-7.69153e-06
1.11268e-05
-8.94686e-06
1.14517e-05
-1.03952e-05
1.20033e-05
-1.21623e-05
1.29081e-05
-1.45589e-05
1.4463e-05
-1.81615e-05
1.71116e-05
-2.26713e-05
2.20925e-05
-2.63696e-05
3.28689e-05
-1.72533e-05
5.95809e-05
3.21437e-06
7.34327e-05
3.43836e-05
3.64076e-05
6.60966e-05
-4.14776e-05
1.23677e-05
-0.000187442
1.1484e-05
-0.000272551
-0.000190853
-4.00779e-06
1.14323e-05
-4.72002e-06
1.15103e-05
-5.52003e-06
1.16365e-05
-6.40252e-06
1.18106e-05
-7.3654e-06
1.20904e-05
-8.39772e-06
1.24851e-05
-9.46437e-06
1.30706e-05
-1.05247e-05
1.39689e-05
-1.1462e-05
1.54091e-05
-1.19605e-05
1.77023e-05
-1.05973e-05
2.11708e-05
-1.67373e-06
2.73742e-05
1.8924e-05
3.68015e-05
5.35187e-05
4.09538e-05
8.17582e-05
1.76223e-05
8.89352e-05
-4.68641e-05
2.56909e-05
-9.91815e-05
2.86154e-05
-0.000244418
-0.000187756
-3.9269e-06
1.20545e-05
-4.62143e-06
1.22055e-05
-5.38347e-06
1.23988e-05
-6.21737e-06
1.26449e-05
-7.09819e-06
1.29717e-05
-7.99729e-06
1.33845e-05
-8.83256e-06
1.39057e-05
-9.43739e-06
1.45736e-05
-9.48123e-06
1.54564e-05
-8.35443e-06
1.66096e-05
-4.77158e-06
1.76948e-05
5.57079e-06
1.81703e-05
2.51638e-05
1.84347e-05
5.48764e-05
1.25237e-05
8.28657e-05
-1.46779e-05
8.9247e-05
-6.15784e-05
8.73077e-06
-7.56796e-05
6.5655e-05
-0.000193886
-0.000227506
-3.72029e-06
1.26876e-05
-4.40771e-06
1.28935e-05
-5.13602e-06
1.31277e-05
-5.89611e-06
1.3405e-05
-6.67119e-06
1.37468e-05
-7.42971e-06
1.41422e-05
-8.10423e-06
1.45793e-05
-8.54153e-06
1.50093e-05
-8.41783e-06
1.53317e-05
-7.10664e-06
1.53044e-05
-3.82622e-06
1.44033e-05
3.84652e-06
1.06754e-05
1.56333e-05
5.84142e-06
3.62213e-05
-1.01886e-05
5.44765e-05
-3.7486e-05
6.4241e-05
-7.01936e-05
2.76414e-05
-6.62036e-05
0.000162498
-0.000122413
-0.000247567
-3.24024e-06
1.31459e-05
-3.88471e-06
1.35386e-05
-4.6575e-06
1.39005e-05
-5.52524e-06
1.42726e-05
-6.44298e-06
1.46638e-05
-7.36852e-06
1.5067e-05
-8.2352e-06
1.54446e-05
-8.90207e-06
1.56746e-05
-9.1892e-06
1.56171e-05
-8.86284e-06
1.49812e-05
-7.3622e-06
1.28968e-05
-4.00218e-06
7.59126e-06
2.61481e-06
-8.96272e-07
1.65743e-05
-2.10759e-05
2.14306e-05
-3.9589e-05
3.3058e-05
-8.23813e-05
3.14341e-05
-7.13428e-05
0.000151079
-0.000101927
-0.000126115
-3.03462e-06
-3.25147e-06
-3.61104e-06
-4.07706e-06
-4.6342e-06
-5.28266e-06
-6.0262e-06
-6.85878e-06
-7.69239e-06
-8.26579e-06
-7.98799e-06
-4.84684e-06
-1.02494e-06
1.27949e-05
1.8197e-05
2.60358e-05
2.97791e-05
2.36387e-05
)
;

boundaryField
{
    leftWall
    {
        type            fixedValue;
        value           nonuniform 0();
    }
    rightWall
    {
        type            fixedValue;
        value           uniform 0;
    }
    lowerWall
    {
        type            fixedValue;
        value           nonuniform 0();
    }
    atmosphere
    {
        type            calculated;
        value           nonuniform List<scalar> 
23
(
4.99655e-06
5.13375e-06
5.2668e-06
5.39602e-06
1.31847e-05
1.37555e-05
1.426e-05
1.47385e-05
1.52207e-05
1.5715e-05
1.61877e-05
1.65066e-05
1.64502e-05
1.55563e-05
1.26136e-05
4.59789e-06
-4.64562e-06
-3.59665e-05
-4.55735e-05
-8.91968e-05
-7.58238e-05
-9.84759e-05
-6.97464e-05
)
;
    }
    defaultFaces
    {
        type            empty;
        value           nonuniform 0();
    }
    procBoundary3to1
    {
        type            processor;
        value           nonuniform List<scalar> 
23
(
-9.12252e-06
-9.35431e-06
-9.70565e-06
-1.00048e-05
-2.47201e-05
-2.61086e-05
-2.86847e-05
-3.29582e-05
-3.93925e-05
-3.79102e-05
2.58742e-05
9.26446e-05
0.000109048
0.00011
9.80915e-05
7.53464e-05
3.51421e-05
1.1791e-05
1.59539e-06
-3.09522e-06
-5.05783e-06
-7.18121e-06
-7.42506e-06
)
;
    }
    procBoundary3to2
    {
        type            processor;
        value           nonuniform List<scalar> 
25
(
3.45243e-06
1.56483e-06
-9.21432e-08
-4.52843e-08
-1.22458e-06
-1.10836e-06
-1.57681e-06
-1.23976e-06
-9.95845e-07
-6.62971e-07
-1.96571e-07
2.57857e-07
7.01098e-07
1.12532e-06
1.50133e-06
1.82339e-06
2.08511e-06
2.28257e-06
2.41469e-06
2.48459e-06
2.47612e-06
2.39679e-06
2.35928e-06
2.6525e-06
3.34132e-06
)
;
    }
}


// ************************************************************************* //
