/*--------------------------------*- C++ -*----------------------------------*\
| =========                 |                                                 |
| \\      /  F ield         | OpenFOAM: The Open Source CFD Toolbox           |
|  \\    /   O peration     | Version:  2.4.0                                 |
|   \\  /    A nd           | Web:      www.OpenFOAM.org                      |
|    \\/     M anipulation  |                                                 |
\*---------------------------------------------------------------------------*/
FoamFile
{
    version     2.0;
    format      ascii;
    class       volScalarField;
    location    "0.65";
    object      rho;
}
// * * * * * * * * * * * * * * * * * * * * * * * * * * * * * * * * * * * * * //

dimensions      [1 -3 0 0 0 0 0];

internalField   nonuniform List<scalar> 
575
(
0.999999
0.999998
0.999999
0.999996
0.999999
0.999998
0.999998
0.999997
1
0.999999
0.999998
0.999997
0.999999
0.999998
0.999998
0.999998
0.999999
0.999999
0.999997
0.999998
0.999998
0.999998
0.999998
0.999997
0.999998
0.999998
0.999997
0.999997
0.999997
0.999997
0.999996
0.999997
0.999997
0.999997
0.999996
0.999997
0.999996
0.999996
0.999996
0.999996
0.999996
0.999996
0.999995
0.999996
0.999996
0.999995
0.999995
0.999996
0.999996
0.999996
0.999995
0.999996
0.999996
0.999995
0.999996
0.999995
0.999997
0.999997
0.999995
0.999996
0.999996
0.999995
0.999996
0.999996
0.999998
0.999998
0.999995
0.999997
0.999997
0.999996
0.999997
0.999996
0.999998
0.999999
0.999996
0.999997
0.999997
0.999997
0.999998
0.999997
0.999999
0.999999
0.999997
0.999998
0.999998
0.999997
0.999998
0.999998
0.999999
0.999999
0.999997
0.999998
0.999998
0.999997
0.999998
0.999998
0.999997
0.999999
0.999998
0.999999
0.999998
0.999997
1
1
1.00003
1.00024
1.00088
1.0229
3.00939
46.765
258.3
467.491
513.275
521.433
530.198
541.302
558.744
596.714
645.523
0.999998
0.999997
0.999998
1
1.00001
1.00005
1.00028
1.00087
1.00581
1.47999
20.7184
173.088
390.018
475.283
485.701
474.156
459.226
469.911
513.28
0.999998
0.999997
0.999998
0.999999
1
1.00001
1.00006
1.00023
1.00095
1.00439
1.27837
5.58393
31.8089
81.1796
98.1866
57.8256
29.6809
68.9433
213.927
0.999998
0.999997
0.999997
0.999998
1
1.00001
1.00003
1.00007
1.00021
1.00046
1.00139
1.02393
1.09353
1.16429
1.186
1.07397
1.01246
4.28712
78.6474
0.999998
0.999998
0.999998
0.999998
1
1
1.00001
1.00004
1.00009
1.00022
1.00064
1.00124
1.0014
1.00143
1.0013
1.00116
1.00097
1.01313
147.889
0.999998
0.999998
0.999998
0.999998
0.999999
1
1.00001
1.00002
1.00007
1.00021
1.00048
1.001
1.00129
1.0014
1.00145
1.00117
1.00096
1.0026
172.201
0.999998
0.999998
0.999998
0.999999
0.999999
1
1
1.00002
1.00007
1.00021
1.0005
1.00097
1.00124
1.00137
1.00141
1.00121
1.00092
1.02902
48.8562
0.999998
0.999998
0.999998
0.999999
0.999999
1
1
1.00001
1.00005
1.00019
1.00052
1.00105
1.00129
1.00136
1.00136
1.00113
1.00085
1.07426
4.56745
0.999997
0.999997
0.999998
0.999999
0.999999
1
1
1.00001
1.00004
1.00017
1.00051
1.00103
1.00134
1.00136
1.00129
1.00095
1.0007
1.00933
1.48934
0.999997
0.999997
0.999998
0.999999
0.999999
1
1
1
1.00002
1.0001
1.00038
1.00084
1.00125
1.00128
1.00103
1.00066
1.00054
1.02398
1.11342
0.999997
0.999997
0.999998
0.999998
0.999999
1
1
1
1.00001
1.00003
1.00016
1.00052
1.00097
1.00093
1.00057
1.00037
1.00081
1.12477
1.11734
0.999996
0.999997
0.999997
0.999998
0.999999
1
1
1
1
1.00001
1.00004
1.00014
1.00042
1.00041
1.00021
1.00039
1.01358
1.15467
1.12446
0.999996
0.999997
0.999997
0.999998
0.999999
1
1
1
1
1
1.00001
1.00003
1.00011
1.00023
1.00054
1.00092
1.02873
1.20149
1.83456
0.999996
0.999997
0.999997
0.999998
0.999999
0.999999
1
1
1
1
1.00001
1.00003
1.00037
1.0084
1.05745
1.38972
2.18713
10.4069
37.2603
0.999996
0.999997
0.999997
0.999998
0.999999
0.999999
1
1
1
1.00001
1.00001
1.00005
1.00115
1.01058
1.14275
5.78485
45.8913
135.727
263.229
0.999997
0.999997
0.999998
0.999998
0.999999
0.999999
1
1
1
1.00001
1.00003
1.0001
1.00098
1.00451
1.183
10.4814
120.259
361.349
472.877
0.999997
0.999997
0.999998
0.999998
0.999999
1
1
1
1
1.00002
1.00006
1.00018
1.00047
1.00156
1.16938
9.5825
111.903
409.704
492.929
0.999997
0.999998
0.999998
0.999999
0.999999
1
1
1
1.00001
1.00004
1.00015
1.00043
1.00069
1.0012
1.09503
3.08917
26.1252
216.515
492.929
0.999998
0.999998
0.999998
0.999999
0.999999
1
1
1
1.00001
1.00004
1.00015
1.0005
1.00084
1.00156
1.03341
1.09389
1.87081
28.4227
489.53
0.999998
0.999998
0.999999
0.999999
0.999999
1
1
1
1
1.00002
1.00008
1.00034
1.00074
1.00159
1.00619
1.00177
1.0012
2.56973
439.451
0.999998
0.999999
0.999999
0.999999
0.999999
0.999999
0.999999
1
1
1.00001
1.00003
1.00011
1.00044
1.00084
1.00115
1.00078
1.00058
1.30763
221.313
0.999999
0.999999
0.999999
0.999999
0.999999
0.999999
0.999999
0.999999
1
1
1.00001
1.00004
1.00011
1.00033
1.00039
1.00021
1.00025
1.04794
26.013
0.999999
0.999999
0.999999
0.999999
0.999999
0.999999
0.999999
0.999999
0.999999
1
1
1.00001
1.00004
1.00012
1.00018
1.0001
1.00014
1.00248
1.64846
0.999999
0.999999
0.999999
0.999999
0.999999
0.999999
0.999999
0.999999
0.999999
1
1
1.00002
1.00005
1.00014
1.00019
1.00003
1.00009
1.00022
1.01627
1
1
1
0.999999
0.999999
0.999999
0.999999
0.999999
0.999999
1
1
1.00001
1.00003
1.00002
1.00005
1
1.00007
1.00003
1.00026
)
;

boundaryField
{
    leftWall
    {
        type            calculated;
        value           nonuniform 0();
    }
    rightWall
    {
        type            calculated;
        value           nonuniform List<scalar> 
25
(
645.523
513.28
213.927
78.6474
147.889
172.201
48.8562
4.56745
1.48934
1.11342
1.11734
1.12446
1.83456
37.2603
263.229
472.877
492.929
492.929
489.53
439.451
221.313
26.013
1.64846
1.01627
1.00026
)
;
    }
    lowerWall
    {
        type            calculated;
        value           nonuniform 0();
    }
    atmosphere
    {
        type            calculated;
        value           nonuniform List<scalar> 
23
(
0.999997
0.999999
0.999998
0.999999
1
1
1
0.999999
0.999999
0.999999
0.999999
0.999999
0.999999
1
1
1.00001
1
1
1
1
1
1
1
)
;
    }
    defaultFaces
    {
        type            empty;
    }
    procBoundary3to1
    {
        type            processor;
        value           nonuniform List<scalar> 
23
(
0.999996
0.999999
0.999997
0.999999
0.999998
1
1
1.00001
1.00014
1.00137
1.03946
4.40909
60.7934
289.829
477.997
510.279
516.86
532.611
545.355
556.735
573.947
620.468
700.315
)
;
    }
    procBoundary3to2
    {
        type            processor;
        value           nonuniform List<scalar> 
25
(
0.999998
1
1
1
0.999999
0.999999
0.999998
0.999998
0.999997
0.999997
0.999997
0.999997
0.999997
0.999998
0.999998
0.999999
0.999998
0.999999
0.999998
1
0.999999
1
1
0.999999
1
)
;
    }
}


// ************************************************************************* //
