/*--------------------------------*- C++ -*----------------------------------*\
| =========                 |                                                 |
| \\      /  F ield         | OpenFOAM: The Open Source CFD Toolbox           |
|  \\    /   O peration     | Version:  2.4.0                                 |
|   \\  /    A nd           | Web:      www.OpenFOAM.org                      |
|    \\/     M anipulation  |                                                 |
\*---------------------------------------------------------------------------*/
FoamFile
{
    version     2.0;
    format      ascii;
    class       volVectorField;
    location    "0.65";
    object      U;
}
// * * * * * * * * * * * * * * * * * * * * * * * * * * * * * * * * * * * * * //

dimensions      [0 1 -1 0 0 0 0];

internalField   nonuniform List<vector> 
575
(
(-0.0155799 0.0987891 0)
(-0.00989571 0.101495 0)
(-0.00429586 0.106462 0)
(-0.000413778 0.110207 0)
(-0.00643547 0.0858568 0)
(-0.00217461 0.0881337 0)
(0.00215413 0.0937213 0)
(0.00545691 0.0976165 0)
(0.00215122 0.0809538 0)
(0.00553664 0.0835555 0)
(0.0091175 0.0878152 0)
(0.0127676 0.0907559 0)
(0.00181086 0.0731712 0)
(0.00558253 0.0757894 0)
(0.0100357 0.0782594 0)
(0.0144655 0.0799671 0)
(0.00779703 0.0652193 0)
(0.0108384 0.0660869 0)
(0.0154866 0.0671695 0)
(0.0197418 0.0691308 0)
(0.00737025 0.0607409 0)
(0.0105337 0.0609591 0)
(0.0144612 0.0595274 0)
(0.0184949 0.0591892 0)
(0.00988653 0.0522528 0)
(0.0123821 0.0527722 0)
(0.0151809 0.0521279 0)
(0.0180582 0.0511924 0)
(0.00777545 0.0478363 0)
(0.00963096 0.0484229 0)
(0.0123319 0.0475443 0)
(0.0149906 0.0459544 0)
(0.00597815 0.0447261 0)
(0.0076199 0.0431635 0)
(0.00939959 0.0421227 0)
(0.0114544 0.0399941 0)
(0.00436257 0.0409148 0)
(0.00511954 0.0405007 0)
(0.00618213 0.0389318 0)
(0.0072905 0.0376639 0)
(0.00126744 0.0403291 0)
(0.00172671 0.0385761 0)
(0.00227314 0.0374796 0)
(0.00259335 0.0355025 0)
(-0.00115886 0.0392338 0)
(-0.0010766 0.0379858 0)
(-0.00105055 0.0364475 0)
(-0.00120959 0.0349272 0)
(-0.003827 0.0397038 0)
(-0.00407959 0.0381639 0)
(-0.00437288 0.0367982 0)
(-0.00511277 0.0352641 0)
(-0.00621136 0.0403653 0)
(-0.00670171 0.0390884 0)
(-0.00725892 0.0377487 0)
(-0.00829073 0.036406 0)
(-0.00836342 0.0416382 0)
(-0.00906653 0.0405207 0)
(-0.00978475 0.0393511 0)
(-0.0110388 0.0381609 0)
(-0.0101732 0.0432216 0)
(-0.0110381 0.0423457 0)
(-0.0118938 0.0413753 0)
(-0.0132562 0.0403838 0)
(-0.0116409 0.0450838 0)
(-0.012626 0.0444261 0)
(-0.0135762 0.043682 0)
(-0.0149773 0.042902 0)
(-0.0127407 0.0471477 0)
(-0.0138067 0.0466987 0)
(-0.0148352 0.0461762 0)
(-0.016232 0.045612 0)
(-0.0134772 0.049347 0)
(-0.0146007 0.0490814 0)
(-0.0156961 0.0487709 0)
(-0.0170604 0.0484183 0)
(-0.0138582 0.0516192 0)
(-0.0149994 0.0515151 0)
(-0.0161443 0.0513979 0)
(-0.0174795 0.051246 0)
(-0.0138393 0.053961 0)
(-0.01502 0.0539981 0)
(-0.0161844 0.0540272 0)
(-0.0174937 0.0540416 0)
(-0.0134332 0.0564414 0)
(-0.0146109 0.0565486 0)
(-0.0158174 0.0566889 0)
(-0.0171189 0.0568656 0)
(-0.0128538 0.0586682 0)
(-0.013701 0.059079 0)
(-0.014723 0.059364 0)
(-0.0159618 0.0596129 0)
(-0.0141371 0.0593804 0)
(-0.0139801 0.0604832 0)
(-0.0141513 0.0614358 0)
(-0.0145731 0.0622833 0)
(-0.0175913 0.0570576 0)
(-0.0169375 0.0586293 0)
(-0.0164904 0.0601523 0)
(-0.0161564 0.0616347 0)
(0.00958256 0.115579 0)
(0.0206242 0.123488 0)
(0.0333745 0.136124 0)
(0.0502388 0.156532 0)
(0.0766816 0.189008 0)
(0.127335 0.231658 0)
(0.203888 0.260267 0)
(0.152907 0.217706 0)
(-0.26928 -0.407302 0)
(-0.847173 -0.770033 0)
(-0.999624 -0.541519 0)
(-1.00485 -0.352812 0)
(-1.0325 -0.171138 0)
(-1.02849 -0.0707516 0)
(-0.958092 -0.0159315 0)
(-0.934765 0.0200828 0)
(-0.786982 0.00608119 0)
(-0.488742 -0.0411885 0)
(-0.216308 -0.0474438 0)
(0.0155121 0.102593 0)
(0.0288679 0.108845 0)
(0.0473061 0.116259 0)
(0.0721435 0.130623 0)
(0.100535 0.14873 0)
(0.152044 0.168501 0)
(0.212442 0.180961 0)
(0.318696 0.156859 0)
(0.269104 0.18863 0)
(0.00391401 -0.0185113 0)
(-0.645627 -0.612321 0)
(-0.951792 -0.388587 0)
(-0.888717 -0.230543 0)
(-0.842422 -0.122486 0)
(-0.790881 -0.0833398 0)
(-0.681732 -0.126236 0)
(-0.590631 -0.270287 0)
(-0.383498 -0.492255 0)
(-0.239881 -0.625878 0)
(0.0223237 0.0928539 0)
(0.0369134 0.0966001 0)
(0.0546822 0.100859 0)
(0.0789163 0.109399 0)
(0.108693 0.115656 0)
(0.155626 0.116342 0)
(0.202747 0.110324 0)
(0.28604 0.0883622 0)
(0.322628 0.0706544 0)
(0.398725 0.117717 0)
(0.416645 0.327098 0)
(-0.232863 -0.12759 0)
(-0.6973 -0.263699 0)
(-0.729311 -0.137969 0)
(-0.64521 -0.148149 0)
(-0.546128 -0.122828 0)
(-0.648502 0.0980816 0)
(-0.345233 -0.397446 0)
(-0.126104 -0.716662 0)
(0.0235942 0.0783979 0)
(0.0391894 0.0786885 0)
(0.0593872 0.0791627 0)
(0.080044 0.0814548 0)
(0.109879 0.0799456 0)
(0.150649 0.0717164 0)
(0.190572 0.0581031 0)
(0.2566 0.0322454 0)
(0.29885 0.0289081 0)
(0.391994 -0.00297018 0)
(0.542536 0.126422 0)
(0.510481 0.378571 0)
(0.101691 0.221791 0)
(-0.326036 -0.145707 0)
(-0.378405 -0.11123 0)
(-0.358145 -0.0927069 0)
(-0.190272 -0.0594393 0)
(-0.320407 -0.081854 0)
(-0.0538412 -0.804347 0)
(0.0278635 0.0683844 0)
(0.0402715 0.0647259 0)
(0.0570887 0.0638307 0)
(0.0761048 0.0612431 0)
(0.102105 0.0512492 0)
(0.138311 0.0340852 0)
(0.172219 0.0153773 0)
(0.235222 -0.0177305 0)
(0.276805 -0.0474813 0)
(0.399423 -0.0744916 0)
(0.483253 0.0307869 0)
(0.588641 0.43232 0)
(0.48734 0.468203 0)
(-0.0179831 0.133086 0)
(-0.278565 -0.243899 0)
(-0.310625 -0.401524 0)
(0.0215586 -0.491236 0)
(-0.00170036 -0.724359 0)
(0.00303677 -1.14803 0)
(0.025526 0.0571227 0)
(0.0370857 0.0524962 0)
(0.051599 0.0482274 0)
(0.0681185 0.0402622 0)
(0.090187 0.0255264 0)
(0.117321 0.00472355 0)
(0.144435 -0.0223232 0)
(0.200096 -0.0670949 0)
(0.224847 -0.127749 0)
(0.364288 -0.161525 0)
(0.363004 -0.0623251 0)
(0.561798 0.410535 0)
(0.528489 0.619856 0)
(0.344918 0.509314 0)
(0.0688479 0.121397 0)
(-0.118585 -0.343496 0)
(0.0739745 -0.41115 0)
(-0.116794 -0.526134 0)
(-0.00852833 -1.00973 0)
(0.0240931 0.0481957 0)
(0.031945 0.0422376 0)
(0.0436556 0.0358474 0)
(0.0567269 0.0253286 0)
(0.0721276 0.00730809 0)
(0.0923158 -0.0169093 0)
(0.109427 -0.0505346 0)
(0.149665 -0.10055 0)
(0.150956 -0.177895 0)
(0.266723 -0.234001 0)
(0.214917 -0.159788 0)
(0.470443 0.341428 0)
(0.455025 0.65746 0)
(0.35782 0.597894 0)
(0.246247 0.283617 0)
(0.117684 -0.27074 0)
(0.173368 -0.453803 0)
(-0.0596037 -0.558767 0)
(0.0308556 -0.925834 0)
(0.0196991 0.042414 0)
(0.0256237 0.0345335 0)
(0.0342285 0.0265322 0)
(0.0433361 0.0136819 0)
(0.0524532 -0.00505573 0)
(0.064484 -0.0294848 0)
(0.0715653 -0.0654381 0)
(0.0900704 -0.115285 0)
(0.0705852 -0.196445 0)
(0.134615 -0.261855 0)
(0.0289142 -0.283258 0)
(0.306458 0.343942 0)
(0.285595 0.662637 0)
(0.295903 0.600867 0)
(0.267873 0.336865 0)
(0.25083 -0.218319 0)
(0.27139 -0.373287 0)
(0.100816 -0.464316 0)
(0.0551929 -0.938223 0)
(0.0154455 0.0361201 0)
(0.0185842 0.0296898 0)
(0.0240377 0.0201172 0)
(0.0292941 0.00788609 0)
(0.0326006 -0.0105316 0)
(0.0370342 -0.0343051 0)
(0.0346568 -0.066758 0)
(0.0314602 -0.112081 0)
(0.00321317 -0.181763 0)
(-0.0145985 -0.24193 0)
(-0.12686 -0.272228 0)
(-0.0424753 0.248971 0)
(0.135779 0.654055 0)
(0.168925 0.58235 0)
(0.234627 0.321241 0)
(0.294411 -0.198548 0)
(0.289057 -0.333058 0)
(0.139394 -0.377524 0)
(0.0304078 -0.91997 0)
(0.0093559 0.0344696 0)
(0.0116062 0.0260129 0)
(0.0136517 0.0172339 0)
(0.0159776 0.00522148 0)
(0.0148929 -0.011158 0)
(0.0129294 -0.0317886 0)
(0.00330743 -0.0584896 0)
(-0.0133853 -0.093811 0)
(-0.0480304 -0.140339 0)
(-0.111287 -0.185911 0)
(-0.23353 -0.214314 0)
(-0.274158 0.120443 0)
(-0.0208168 0.50851 0)
(0.0445078 0.47405 0)
(0.210108 0.21353 0)
(0.270603 -0.193918 0)
(0.23329 -0.269176 0)
(0.071243 -0.27637 0)
(0.015196 -0.854955 0)
(0.00445837 0.0317977 0)
(0.00470227 0.02542 0)
(0.00436081 0.0165537 0)
(0.00412466 0.00607174 0)
(-0.000258702 -0.00793077 0)
(-0.00654187 -0.0246769 0)
(-0.0201121 -0.0448438 0)
(-0.0414772 -0.0688782 0)
(-0.0790916 -0.0946068 0)
(-0.138297 -0.11806 0)
(-0.249358 -0.122053 0)
(-0.333121 0.058688 0)
(-0.169887 0.30665 0)
(-0.0578065 0.306072 0)
(0.156239 0.0537972 0)
(0.114614 -0.159557 0)
(0.0871822 -0.183881 0)
(-0.031812 -0.208464 0)
(0.0255909 -0.858177 0)
(-0.000913075 0.0319388 0)
(-0.00160492 0.025567 0)
(-0.00372402 0.0179705 0)
(-0.00605249 0.00897646 0)
(-0.0123392 -0.00233934 0)
(-0.0210085 -0.0151654 0)
(-0.0358766 -0.0291173 0)
(-0.0575494 -0.0438306 0)
(-0.0918894 -0.0562699 0)
(-0.139771 -0.060024 0)
(-0.20891 -0.0419455 0)
(-0.27524 0.0699808 0)
(-0.200564 0.198525 0)
(-0.106152 0.162576 0)
(0.0113535 0.0182347 0)
(-0.101046 -0.105264 0)
(-0.104527 -0.136711 0)
(-0.136014 -0.242885 0)
(0.0415891 -0.904295 0)
(-0.0054204 0.0324149 0)
(-0.00706633 0.0272526 0)
(-0.0105216 0.0206924 0)
(-0.0142654 0.0133758 0)
(-0.0215403 0.00465967 0)
(-0.0311104 -0.00465538 0)
(-0.0454742 -0.0136771 0)
(-0.0650846 -0.0215737 0)
(-0.0932198 -0.025378 0)
(-0.126125 -0.0178289 0)
(-0.169868 0.00647443 0)
(-0.207283 0.0783992 0)
(-0.169479 0.155646 0)
(-0.156532 0.120756 0)
(-0.162541 0.0696736 0)
(-0.347407 -0.0254134 0)
(-0.359884 -0.134211 0)
(-0.225598 -0.392969 0)
(0.0428318 -0.864442 0)
(-0.00942586 0.0340081 0)
(-0.0117395 0.0296362 0)
(-0.0159297 0.024324 0)
(-0.0205855 0.0185706 0)
(-0.0281778 0.0121383 0)
(-0.0377822 0.00571985 0)
(-0.0508303 0.000557876 0)
(-0.067322 -0.0025216 0)
(-0.0883364 -0.00185168 0)
(-0.111179 0.00982515 0)
(-0.13593 0.0344273 0)
(-0.161449 0.0871324 0)
(-0.142779 0.151755 0)
(-0.196158 0.162804 0)
(-0.34439 0.199527 0)
(-0.668931 0.160016 0)
(-0.640783 -0.105765 0)
(-0.158482 -0.486883 0)
(0.0773275 -0.796703 0)
(-0.0127093 0.0361192 0)
(-0.0155154 0.0326556 0)
(-0.0201293 0.0284909 0)
(-0.0252956 0.0241044 0)
(-0.0327575 0.0195357 0)
(-0.0417073 0.0153424 0)
(-0.053016 0.0125921 0)
(-0.0662661 0.0114514 0)
(-0.0811572 0.0143459 0)
(-0.0951103 0.0251344 0)
(-0.107375 0.0467124 0)
(-0.120982 0.0945776 0)
(-0.112868 0.17927 0)
(-0.204056 0.27471 0)
(-0.541461 0.459636 0)
(-0.739795 0.314993 0)
(-0.181038 -0.777156 0)
(-0.0290397 -0.991321 0)
(0.064792 -0.983758 0)
(-0.0153316 0.0387275 0)
(-0.0184916 0.0360566 0)
(-0.0232648 0.032938 0)
(-0.0286497 0.0297106 0)
(-0.035792 0.0265787 0)
(-0.0440714 0.0238412 0)
(-0.0537968 0.0220707 0)
(-0.0642671 0.0218325 0)
(-0.0753806 0.02475 0)
(-0.0816938 0.0336773 0)
(-0.0801089 0.0531235 0)
(-0.0746356 0.103294 0)
(-0.0476059 0.219025 0)
(-0.17995 0.431447 0)
(-0.505645 0.600712 0)
(-0.399445 0.0481025 0)
(-0.037454 -0.949093 0)
(-0.0672901 -0.997132 0)
(0.050057 -0.982407 0)
(-0.0173038 0.0416233 0)
(-0.0206963 0.0396722 0)
(-0.0255034 0.0374711 0)
(-0.0309562 0.0352547 0)
(-0.0377057 0.0332641 0)
(-0.0453628 0.0316244 0)
(-0.0539672 0.0306145 0)
(-0.0625469 0.030186 0)
(-0.0690959 0.0300855 0)
(-0.0685928 0.0299723 0)
(-0.0578245 0.0328249 0)
(-0.0439642 0.0730843 0)
(-0.045256 0.25735 0)
(-0.215208 0.612035 0)
(-0.346625 0.697804 0)
(-0.173159 -0.140154 0)
(-0.038867 -0.974217 0)
(-0.0841683 -0.993632 0)
(0.0645874 -0.984835 0)
(-0.0186922 0.0446968 0)
(-0.022239 0.04339 0)
(-0.026952 0.0419882 0)
(-0.0323451 0.0406879 0)
(-0.0387828 0.0397062 0)
(-0.0461143 0.0390468 0)
(-0.054606 0.0388438 0)
(-0.0641452 0.0386327 0)
(-0.0748631 0.036988 0)
(-0.0848767 0.0315657 0)
(-0.0977731 0.0319235 0)
(-0.120824 0.107518 0)
(-0.161883 0.388914 0)
(-0.17172 0.652429 0)
(-0.20666 0.6609 0)
(-0.029532 -0.185515 0)
(-0.0313993 -0.967955 0)
(-0.119855 -1.00744 0)
(0.11155 -0.993172 0)
(-0.0195415 0.0478547 0)
(-0.0231478 0.0471143 0)
(-0.027702 0.046421 0)
(-0.0329041 0.0459087 0)
(-0.0389426 0.0458145 0)
(-0.0458133 0.0461648 0)
(-0.053879 0.0472695 0)
(-0.0634901 0.0491381 0)
(-0.076061 0.0519406 0)
(-0.0932853 0.0561902 0)
(-0.125639 0.0729962 0)
(-0.170123 0.155206 0)
(-0.169953 0.396759 0)
(-0.135977 0.599643 0)
(-0.0238781 0.563027 0)
(0.14394 -0.210159 0)
(0.228268 -0.934089 0)
(-0.246446 -1.08059 0)
(0.191332 -0.984412 0)
(-0.0199288 0.0510109 0)
(-0.0235302 0.0507689 0)
(-0.0278642 0.0507092 0)
(-0.0327837 0.0508859 0)
(-0.0383372 0.051561 0)
(-0.0445475 0.0528174 0)
(-0.0516408 0.0551264 0)
(-0.0598733 0.0590317 0)
(-0.0702249 0.0659061 0)
(-0.0832234 0.0783007 0)
(-0.105018 0.104331 0)
(-0.135325 0.172569 0)
(-0.116908 0.345103 0)
(-0.0232429 0.462143 0)
(0.239324 0.340854 0)
(0.334262 -0.253423 0)
(0.592695 -0.791454 0)
(-0.360629 -1.00559 0)
(0.296817 -0.953138 0)
(-0.0198813 0.0540757 0)
(-0.0234156 0.0542661 0)
(-0.0274971 0.0546656 0)
(-0.0320467 0.0552936 0)
(-0.0369855 0.0564459 0)
(-0.0422859 0.0581935 0)
(-0.0478373 0.0610565 0)
(-0.0534325 0.0656266 0)
(-0.058974 0.0733815 0)
(-0.0617983 0.0864565 0)
(-0.0603574 0.109233 0)
(-0.0568888 0.156561 0)
(0.0349634 0.241375 0)
(0.172907 0.296626 0)
(0.426347 0.161652 0)
(0.429901 -0.245977 0)
(0.675094 -0.566256 0)
(-0.348797 -0.85653 0)
(0.430971 -0.886239 0)
(-0.0194424 0.0571973 0)
(-0.0229476 0.0577698 0)
(-0.0268449 0.0586144 0)
(-0.0311277 0.0596747 0)
(-0.0357643 0.0611928 0)
(-0.0405328 0.0632 0)
(-0.0451874 0.0659196 0)
(-0.0491457 0.0698592 0)
(-0.0515782 0.0758312 0)
(-0.0490156 0.0849419 0)
(-0.0352825 0.0974686 0)
(-0.0220114 0.114514 0)
(0.0795824 0.135499 0)
(0.180486 0.127587 0)
(0.434726 -0.00488423 0)
(0.415372 -0.316851 0)
(0.615553 -0.425992 0)
(-0.036156 -0.68157 0)
(0.589378 -0.706214 0)
(-0.0183457 0.0600523 0)
(-0.0217671 0.0609146 0)
(-0.0256503 0.0619462 0)
(-0.0296105 0.0632577 0)
(-0.0337147 0.0648709 0)
(-0.0378734 0.0668106 0)
(-0.041735 0.0690849 0)
(-0.0448045 0.0716318 0)
(-0.0464148 0.0743517 0)
(-0.0437049 0.0766484 0)
(-0.0278138 0.0761421 0)
(-0.018846 0.0655267 0)
(0.061945 0.0477864 0)
(0.107703 -0.0278039 0)
(0.287679 -0.171393 0)
(0.271809 -0.324418 0)
(0.435106 -0.316351 0)
(0.0951375 -0.611687 0)
(0.433256 -0.538387 0)
(-0.0159081 0.0634403 0)
(-0.0189936 0.0646359 0)
(-0.0228361 0.0658732 0)
(-0.027248 0.0673328 0)
(-0.0320493 0.0691002 0)
(-0.0369892 0.071085 0)
(-0.0418414 0.0730967 0)
(-0.0461198 0.0745579 0)
(-0.0491256 0.0747368 0)
(-0.0492402 0.0725595 0)
(-0.0422506 0.0646811 0)
(-0.0434762 0.042767 0)
(0.00619863 0.0122416 0)
(0.0183293 -0.0708463 0)
(0.163862 -0.201511 0)
(0.0371088 -0.396233 0)
(0.29353 -0.333595 0)
(0.0655315 -0.542249 0)
(0.237554 -0.446191 0)
(-0.0160165 0.0640699 0)
(-0.0167041 0.0668561 0)
(-0.0182966 0.0693165 0)
(-0.0205409 0.0716466 0)
(-0.0232527 0.0739907 0)
(-0.0264457 0.0763923 0)
(-0.0301274 0.0786878 0)
(-0.0343044 0.08024 0)
(-0.0390293 0.0799832 0)
(-0.0431001 0.0757081 0)
(-0.0427756 0.0616269 0)
(-0.0484195 0.023523 0)
(0.003014 -0.0215164 0)
(-0.017519 -0.172957 0)
(0.158396 -0.220394 0)
(0.00782655 -0.433338 0)
(0.253118 -0.369367 0)
(0.0324406 -0.48451 0)
(0.203316 -0.330126 0)
)
;

boundaryField
{
    leftWall
    {
        type            calculated;
        value           nonuniform 0();
    }
    rightWall
    {
        type            calculated;
        value           uniform (0 0 0);
    }
    lowerWall
    {
        type            calculated;
        value           nonuniform 0();
    }
    atmosphere
    {
        type            calculated;
        value           nonuniform List<vector> 
23
(
(-0.0175913 0.0570479 0)
(-0.0169375 0.0586207 0)
(-0.0164904 0.0601454 0)
(-0.0161564 0.0616291 0)
(-0.0160165 0.0640653 0)
(-0.0167041 0.0668502 0)
(-0.0182966 0.0693106 0)
(-0.0205409 0.0716434 0)
(-0.0232527 0.0739934 0)
(-0.0264457 0.076401 0)
(-0.0301274 0.0787027 0)
(-0.0343044 0.0802571 0)
(-0.0390293 0.0799907 0)
(-0.0431001 0.0756726 0)
(-0.0427756 0.0614652 0)
(-0.0484195 0.0227194 0)
(0.003014 -0.0228212 0)
(-0.017519 -0.174838 0)
(0.158396 -0.221891 0)
(0.00782655 -0.433272 0)
(0.253118 -0.3688 0)
(0.0324406 -0.481246 0)
(0.203316 -0.326111 0)
)
;
    }
    defaultFaces
    {
        type            empty;
    }
    procBoundary3to1
    {
        type            processor;
        value           nonuniform List<vector> 
23
(
(-0.0291563 0.110809 0)
(-0.0216969 0.113672 0)
(-0.0148531 0.116732 0)
(-0.00986994 0.119628 0)
(0.00159026 0.125049 0)
(0.0132928 0.13133 0)
(0.0199462 0.142998 0)
(0.0250531 0.165903 0)
(0.0375673 0.218257 0)
(0.0777587 0.309789 0)
(0.0639294 0.26789 0)
(-0.335677 -0.437908 0)
(-0.868842 -0.811492 0)
(-1.00693 -0.681068 0)
(-1.04512 -0.552283 0)
(-1.06061 -0.386162 0)
(-1.02148 -0.152527 0)
(-0.882264 -0.0287254 0)
(-0.844209 0.0123835 0)
(-0.784749 0.0347281 0)
(-0.634969 0.0855208 0)
(-0.395081 0.180828 0)
(-0.155271 0.20239 0)
)
;
    }
    procBoundary3to2
    {
        type            processor;
        value           nonuniform List<vector> 
25
(
(-0.0241388 0.0907743 0)
(-0.0119382 0.0787326 0)
(-0.0031112 0.0721295 0)
(-0.00287141 0.0647898 0)
(0.00437213 0.0606823 0)
(0.00333768 0.0583817 0)
(0.00609355 0.051642 0)
(0.00475888 0.0483269 0)
(0.00446322 0.045253 0)
(0.00218679 0.0439327 0)
(0.000719751 0.0416989 0)
(-0.00173565 0.0417801 0)
(-0.003716 0.0414282 0)
(-0.00580705 0.0421025 0)
(-0.00759726 0.043004 0)
(-0.00914154 0.0443426 0)
(-0.0104101 0.0459413 0)
(-0.0113521 0.0477596 0)
(-0.0119878 0.049725 0)
(-0.0123045 0.0517552 0)
(-0.0122367 0.0539031 0)
(-0.0117212 0.0564415 0)
(-0.0122263 0.057808 0)
(-0.0143948 0.0576442 0)
(-0.0185414 0.0545775 0)
)
;
    }
}


// ************************************************************************* //
