/*--------------------------------*- C++ -*----------------------------------*\
| =========                 |                                                 |
| \\      /  F ield         | OpenFOAM: The Open Source CFD Toolbox           |
|  \\    /   O peration     | Version:  2.4.0                                 |
|   \\  /    A nd           | Web:      www.OpenFOAM.org                      |
|    \\/     M anipulation  |                                                 |
\*---------------------------------------------------------------------------*/
FoamFile
{
    version     2.0;
    format      ascii;
    class       volVectorField;
    location    "0.65";
    object      U.mercury;
}
// * * * * * * * * * * * * * * * * * * * * * * * * * * * * * * * * * * * * * //

dimensions      [0 1 -1 0 0 0 0];

internalField   nonuniform List<vector> 
575
(
(-0.015508 0.0986508 0)
(-0.00981674 0.101335 0)
(-0.00419673 0.106292 0)
(-0.000271749 0.11001 0)
(-0.00640064 0.0856993 0)
(-0.00211461 0.087969 0)
(0.00223716 0.0935384 0)
(0.00557125 0.0974271 0)
(0.00218669 0.0807775 0)
(0.0055618 0.0833732 0)
(0.00916417 0.0876225 0)
(0.0128573 0.090556 0)
(0.00182701 0.0729771 0)
(0.00560761 0.0755918 0)
(0.0100814 0.0780592 0)
(0.0145412 0.0797629 0)
(0.00781508 0.0650238 0)
(0.0108505 0.06589 0)
(0.0155194 0.0669705 0)
(0.0198101 0.0689298 0)
(0.00737813 0.0605501 0)
(0.0105512 0.0607674 0)
(0.0144983 0.0593357 0)
(0.0185589 0.0589964 0)
(0.00989717 0.0520735 0)
(0.0123924 0.0525925 0)
(0.0152113 0.0519473 0)
(0.0181192 0.0510108 0)
(0.00778124 0.047667 0)
(0.00964543 0.0482534 0)
(0.0123652 0.0473753 0)
(0.0150488 0.0457845 0)
(0.00598685 0.0445682 0)
(0.00763083 0.043006 0)
(0.00942908 0.041965 0)
(0.0115103 0.0398359 0)
(0.00436936 0.0407671 0)
(0.00513426 0.0403533 0)
(0.00621379 0.038785 0)
(0.00734457 0.0375166 0)
(0.00127623 0.0401922 0)
(0.00173948 0.0384395 0)
(0.00230279 0.0373431 0)
(0.00264561 0.0353655 0)
(-0.00115083 0.0391056 0)
(-0.00106105 0.037858 0)
(-0.00101982 0.0363202 0)
(-0.00115892 0.0347995 0)
(-0.00381762 0.0395845 0)
(-0.00406494 0.0380451 0)
(-0.00434302 0.0366796 0)
(-0.00506331 0.0351452 0)
(-0.006202 0.0402539 0)
(-0.0066849 0.0389774 0)
(-0.00722832 0.0376381 0)
(-0.00824247 0.0362951 0)
(-0.00835345 0.0415345 0)
(-0.00905025 0.0404173 0)
(-0.0097545 0.039248 0)
(-0.0109919 0.0380573 0)
(-0.0101632 0.0431248 0)
(-0.0110202 0.0422492 0)
(-0.0118634 0.041279 0)
(-0.0132108 0.0402871 0)
(-0.0116306 0.0449937 0)
(-0.0126087 0.0443362 0)
(-0.0135461 0.0435924 0)
(-0.0149335 0.0428117 0)
(-0.0127307 0.0470645 0)
(-0.0137879 0.0466157 0)
(-0.0148056 0.046093 0)
(-0.0161904 0.0455281 0)
(-0.0134668 0.0492705 0)
(-0.0145834 0.0490049 0)
(-0.0156679 0.0486942 0)
(-0.0170213 0.0483404 0)
(-0.0138491 0.0515504 0)
(-0.0149813 0.0514458 0)
(-0.0161175 0.0513276 0)
(-0.0174438 0.0511744 0)
(-0.0138303 0.0538996 0)
(-0.0150056 0.0539357 0)
(-0.0161609 0.0539638 0)
(-0.0174618 0.0539762 0)
(-0.0134263 0.0563864 0)
(-0.0145971 0.0564929 0)
(-0.015797 0.0566315 0)
(-0.0170924 0.0568059 0)
(-0.0128476 0.0586182 0)
(-0.0136918 0.0590281 0)
(-0.0147075 0.0593123 0)
(-0.0159398 0.0595595 0)
(-0.0141339 0.0593409 0)
(-0.0139704 0.0604435 0)
(-0.0141362 0.0613951 0)
(-0.0145547 0.0622399 0)
(-0.0175905 0.0570384 0)
(-0.016931 0.0586069 0)
(-0.0164829 0.0601253 0)
(-0.0161479 0.0616016 0)
(0.00978004 0.115347 0)
(0.0208566 0.123186 0)
(0.0336049 0.135765 0)
(0.0504274 0.156082 0)
(0.0767622 0.188422 0)
(0.127138 0.230875 0)
(0.203343 0.259558 0)
(0.131931 0.204435 0)
(-0.651403 -0.448572 0)
(-1.05843 -0.470704 0)
(-1.03735 -0.370633 0)
(-0.98228 -0.225946 0)
(-0.944699 -0.0351321 0)
(-0.873314 0.091357 0)
(-0.712299 0.174226 0)
(-0.522338 0.290403 0)
(-0.235022 0.433596 0)
(-0.0518715 0.47577 0)
(0.074016 0.43279 0)
(0.0156701 0.102373 0)
(0.0290536 0.10859 0)
(0.0474929 0.115948 0)
(0.0723056 0.13027 0)
(0.100644 0.148301 0)
(0.152025 0.167956 0)
(0.212219 0.180324 0)
(0.318397 0.156203 0)
(0.267609 0.185979 0)
(-0.242995 -0.112827 0)
(-0.951786 -0.440206 0)
(-0.998541 -0.311361 0)
(-0.898473 -0.19508 0)
(-0.785971 -0.0436436 0)
(-0.633958 0.0767247 0)
(-0.456263 0.165955 0)
(-0.267571 0.215752 0)
(-0.111501 0.175502 0)
(-0.0157606 0.192452 0)
(0.0224516 0.0926355 0)
(0.0370674 0.0963548 0)
(0.0548402 0.10058 0)
(0.0790607 0.109092 0)
(0.108807 0.11531 0)
(0.155681 0.115928 0)
(0.202698 0.109787 0)
(0.285898 0.0876588 0)
(0.322205 0.0696702 0)
(0.396881 0.115182 0)
(0.175386 0.200121 0)
(-0.65823 -0.267696 0)
(-0.876243 -0.280906 0)
(-0.809517 -0.182876 0)
(-0.656496 -0.0862272 0)
(-0.467613 -0.036273 0)
(-0.274496 -0.0687434 0)
(-0.0969902 -0.328613 0)
(-0.0193437 -0.258973 0)
(0.0237046 0.0781833 0)
(0.0393225 0.0784555 0)
(0.0595258 0.0789088 0)
(0.0801748 0.0811818 0)
(0.10999 0.0796496 0)
(0.150726 0.0713826 0)
(0.190586 0.0576741 0)
(0.256529 0.0316146 0)
(0.298648 0.0278354 0)
(0.391843 -0.0046081 0)
(0.542132 0.123341 0)
(0.494543 0.36428 0)
(0.0388183 0.169466 0)
(-0.368399 -0.177035 0)
(-0.412264 -0.151928 0)
(-0.368864 -0.0836737 0)
(-0.200418 -0.0468493 0)
(-0.109344 -0.908315 0)
(-0.0142693 -1.11955 0)
(0.0279618 0.0681773 0)
(0.0403905 0.0645063 0)
(0.0572136 0.0635968 0)
(0.0762248 0.0609959 0)
(0.102211 0.0509873 0)
(0.138392 0.0337992 0)
(0.172258 0.0150279 0)
(0.235192 -0.0182484 0)
(0.276613 -0.048429 0)
(0.399011 -0.0766103 0)
(0.482156 0.0265608 0)
(0.587626 0.428242 0)
(0.486429 0.46567 0)
(-0.0190131 0.128831 0)
(-0.278196 -0.250389 0)
(-0.305607 -0.407776 0)
(0.0263792 -0.496242 0)
(-0.00131521 -0.748009 0)
(0.0056989 -1.16893 0)
(0.0256175 0.0569259 0)
(0.0371949 0.0522905 0)
(0.0517138 0.0480111 0)
(0.0682297 0.040036 0)
(0.0902869 0.0252894 0)
(0.117402 0.00447149 0)
(0.144487 -0.0226145 0)
(0.200092 -0.0675137 0)
(0.224667 -0.12858 0)
(0.363719 -0.163515 0)
(0.361109 -0.0665839 0)
(0.560789 0.405355 0)
(0.528428 0.61694 0)
(0.344408 0.507894 0)
(0.0687558 0.119356 0)
(-0.112949 -0.346027 0)
(0.0773083 -0.414173 0)
(-0.113626 -0.52874 0)
(0.01039 -1.0287 0)
(0.0241786 0.0480108 0)
(0.0320466 0.0420456 0)
(0.0437625 0.0356472 0)
(0.0568306 0.0251202 0)
(0.0722211 0.0070914 0)
(0.0923934 -0.0171362 0)
(0.109483 -0.0507856 0)
(0.149674 -0.100894 0)
(0.150786 -0.178616 0)
(0.265897 -0.235803 0)
(0.211899 -0.164311 0)
(0.471344 0.336252 0)
(0.456936 0.653599 0)
(0.35841 0.59711 0)
(0.246519 0.283629 0)
(0.121244 -0.271872 0)
(0.175958 -0.456377 0)
(-0.0597399 -0.569627 0)
(0.0184993 -1.01088 0)
(0.0197803 0.0422414 0)
(0.0257191 0.0343548 0)
(0.0343287 0.0263469 0)
(0.0434331 0.0134892 0)
(0.0525408 -0.00525537 0)
(0.0645572 -0.0296924 0)
(0.0716206 -0.0656605 0)
(0.0900922 -0.115569 0)
(0.0704661 -0.197029 0)
(0.133618 -0.263276 0)
(0.0253934 -0.287243 0)
(0.308734 0.341187 0)
(0.290739 0.659403 0)
(0.29766 0.600076 0)
(0.268691 0.336745 0)
(0.253269 -0.218827 0)
(0.273464 -0.374091 0)
(0.0983664 -0.496251 0)
(0.0584692 -1.15586 0)
(0.0155223 0.0359592 0)
(0.0186743 0.029524 0)
(0.0241321 0.0199453 0)
(0.029385 0.00770784 0)
(0.0326823 -0.0107166 0)
(0.0371023 -0.0344971 0)
(0.0347098 -0.0669596 0)
(0.0314918 -0.112318 0)
(0.0031678 -0.182196 0)
(-0.0155032 -0.243073 0)
(-0.129336 -0.273575 0)
(-0.0401755 0.24818 0)
(0.143301 0.652527 0)
(0.17281 0.582167 0)
(0.23659 0.321706 0)
(0.296549 -0.197908 0)
(0.29076 -0.332963 0)
(0.139934 -0.377684 0)
(0.0445727 -1.04854 0)
(0.00942944 0.03432 0)
(0.0116917 0.025859 0)
(0.0137407 0.0170743 0)
(0.0160629 0.00505595 0)
(0.0149686 -0.0113303 0)
(0.0129921 -0.0319677 0)
(0.00335651 -0.0586761 0)
(-0.0133492 -0.094016 0)
(-0.0480373 -0.140659 0)
(-0.111842 -0.186766 0)
(-0.234438 -0.214261 0)
(-0.27109 0.121276 0)
(-0.014069 0.507351 0)
(0.0499172 0.4724 0)
(0.212448 0.213077 0)
(0.272158 -0.193456 0)
(0.234211 -0.269474 0)
(0.0718453 -0.276872 0)
(0.0219348 -0.932042 0)
(0.00452855 0.0316587 0)
(0.00478347 0.0252769 0)
(0.00444467 0.0164054 0)
(0.00420417 0.00591724 0)
(-0.000189154 -0.00809219 0)
(-0.00648522 -0.0248455 0)
(-0.0200677 -0.045019 0)
(-0.0414418 -0.069062 0)
(-0.0790682 -0.0948347 0)
(-0.138376 -0.118516 0)
(-0.249587 -0.12251 0)
(-0.330836 0.0582696 0)
(-0.164964 0.304036 0)
(-0.0536743 0.303093 0)
(0.158202 0.0517872 0)
(0.115048 -0.160211 0)
(0.0878448 -0.184162 0)
(-0.0281426 -0.22251 0)
(0.0301686 -0.901208 0)
(-0.000845613 0.0318095 0)
(-0.00152781 0.0254337 0)
(-0.00364527 0.017832 0)
(-0.00597908 0.00883149 0)
(-0.0122762 -0.00249173 0)
(-0.020958 -0.0153252 0)
(-0.0358369 -0.0292833 0)
(-0.0575164 -0.0440016 0)
(-0.0918593 -0.0564509 0)
(-0.139748 -0.060266 0)
(-0.208899 -0.0424096 0)
(-0.274697 0.0689396 0)
(-0.198712 0.195862 0)
(-0.104411 0.160289 0)
(0.0117959 0.0171024 0)
(-0.100923 -0.105625 0)
(-0.103289 -0.138066 0)
(-0.123423 -0.272199 0)
(0.0432644 -0.935325 0)
(-0.00535581 0.0322943 0)
(-0.00699334 0.0271282 0)
(-0.0104482 0.0205624 0)
(-0.0141985 0.0132389 0)
(-0.0214843 0.00451493 0)
(-0.031066 -0.00480757 0)
(-0.045439 -0.013835 0)
(-0.0650541 -0.0217352 0)
(-0.0931899 -0.0255421 0)
(-0.126093 -0.0180022 0)
(-0.169836 0.00624201 0)
(-0.207199 0.0778996 0)
(-0.169221 0.154454 0)
(-0.156359 0.11995 0)
(-0.162471 0.0693223 0)
(-0.347208 -0.0258026 0)
(-0.353791 -0.138103 0)
(-0.203167 -0.44648 0)
(0.0516212 -1.06964 0)
(-0.00936391 0.0338955 0)
(-0.0116708 0.0295196 0)
(-0.0158621 0.0242016 0)
(-0.0205255 0.0184406 0)
(-0.0281286 0.0120004 0)
(-0.0377437 0.00557492 0)
(-0.0507991 0.000407665 0)
(-0.0672936 -0.00267428 0)
(-0.0883076 -0.00200602 0)
(-0.111148 0.00966912 0)
(-0.135899 0.0342629 0)
(-0.161416 0.0869152 0)
(-0.14273 0.15138 0)
(-0.195921 0.161469 0)
(-0.340393 0.167164 0)
(-0.589232 -0.111616 0)
(-0.472796 -0.611835 0)
(-0.111137 -1.08713 0)
(0.0630294 -1.15727 0)
(-0.0126504 0.0360139 0)
(-0.0154513 0.0325459 0)
(-0.020068 0.0283749 0)
(-0.0252427 0.0239808 0)
(-0.032715 0.0194043 0)
(-0.041674 0.0152046 0)
(-0.0529879 0.0124503 0)
(-0.0662393 0.0113075 0)
(-0.0811297 0.0142009 0)
(-0.095082 0.0249874 0)
(-0.107347 0.0465615 0)
(-0.120957 0.0944164 0)
(-0.112844 0.179069 0)
(-0.20355 0.272055 0)
(-0.514881 0.359433 0)
(-0.442189 -0.4007 0)
(-0.143272 -1.08308 0)
(-0.0756055 -1.09782 0)
(0.0515715 -1.02909 0)
(-0.0152757 0.0386288 0)
(-0.0184325 0.0359533 0)
(-0.02321 0.0328279 0)
(-0.0286037 0.029593 0)
(-0.0357556 0.0264542 0)
(-0.0440423 0.0237111 0)
(-0.0537711 0.0219379 0)
(-0.0642416 0.0216979 0)
(-0.0753546 0.0246144 0)
(-0.0816685 0.0335388 0)
(-0.0800865 0.0529798 0)
(-0.0746184 0.103141 0)
(-0.0476009 0.218849 0)
(-0.179976 0.430612 0)
(-0.482046 0.455723 0)
(-0.232227 -0.584998 0)
(-0.0947395 -1.01083 0)
(-0.078357 -1.00627 0)
(0.0493883 -0.981607 0)
(-0.0172515 0.0415309 0)
(-0.0206425 0.0395746 0)
(-0.025455 0.0373668 0)
(-0.0309164 0.0351434 0)
(-0.0376744 0.0331466 0)
(-0.0453369 0.031503 0)
(-0.0539433 0.030491 0)
(-0.0625231 0.0300616 0)
(-0.0690726 0.0299597 0)
(-0.0685719 0.0298426 0)
(-0.0578091 0.0326884 0)
(-0.0439575 0.0729374 0)
(-0.0452676 0.257188 0)
(-0.215283 0.611761 0)
(-0.337299 0.546167 0)
(-0.132716 -0.630353 0)
(-0.085814 -0.989723 0)
(-0.085758 -0.988689 0)
(0.0647615 -0.984332 0)
(-0.0186437 0.0446102 0)
(-0.0221906 0.0432979 0)
(-0.0269095 0.0418897 0)
(-0.0323109 0.0405832 0)
(-0.0387554 0.0395965 0)
(-0.0460907 0.0389346 0)
(-0.0545834 0.0387299 0)
(-0.0641227 0.0385178 0)
(-0.0748422 0.0368708 0)
(-0.0848602 0.0314444 0)
(-0.0977648 0.0317952 0)
(-0.120829 0.107379 0)
(-0.161911 0.388763 0)
(-0.171811 0.652223 0)
(-0.208398 0.574254 0)
(-0.0562927 -0.499468 0)
(-0.0747831 -1.03274 0)
(-0.0999307 -0.996618 0)
(0.111854 -0.993246 0)
(-0.0194974 0.0477739 0)
(-0.0231048 0.0470279 0)
(-0.0276649 0.0463285 0)
(-0.0328743 0.0458108 0)
(-0.0389181 0.0457131 0)
(-0.0457913 0.0460614 0)
(-0.0538575 0.047165 0)
(-0.0634693 0.0490319 0)
(-0.076043 0.0518316 0)
(-0.0932731 0.0560771 0)
(-0.125636 0.0728772 0)
(-0.170133 0.155081 0)
(-0.169985 0.396625 0)
(-0.136066 0.599477 0)
(-0.0279134 0.545195 0)
(0.127747 -0.270444 0)
(0.13672 -1.16346 0)
(-0.181356 -1.1869 0)
(0.191622 -0.984517 0)
(-0.0198891 0.0509358 0)
(-0.0234924 0.0506881 0)
(-0.0278321 0.0506227 0)
(-0.0327574 0.0507949 0)
(-0.0383149 0.0514674 0)
(-0.0445268 0.0527219 0)
(-0.0516207 0.0550297 0)
(-0.0598548 0.0589327 0)
(-0.0702101 0.0658041 0)
(-0.0832149 0.0781948 0)
(-0.105018 0.104221 0)
(-0.135334 0.172457 0)
(-0.116932 0.344988 0)
(-0.0233037 0.462023 0)
(0.238889 0.340513 0)
(0.334199 -0.253471 0)
(0.592634 -0.79201 0)
(-0.302591 -1.15294 0)
(0.298661 -0.95095 0)
(-0.0198467 0.0540063 0)
(-0.023383 0.0541906 0)
(-0.0274692 0.0545847 0)
(-0.0320234 0.0552088 0)
(-0.036965 0.0563586 0)
(-0.0422667 0.0581044 0)
(-0.0478191 0.0609654 0)
(-0.0534165 0.0655329 0)
(-0.0589622 0.0732846 0)
(-0.0617927 0.0863564 0)
(-0.0603589 0.10913 0)
(-0.0568967 0.156458 0)
(0.0349474 0.241273 0)
(0.17288 0.296526 0)
(0.426308 0.16156 0)
(0.429859 -0.246055 0)
(0.675055 -0.566324 0)
(-0.324902 -0.898622 0)
(0.453299 -0.895417 0)
(-0.0194132 0.0571334 0)
(-0.0229203 0.0576997 0)
(-0.026821 0.0585387 0)
(-0.0311073 0.059595 0)
(-0.0357459 0.0611098 0)
(-0.0405155 0.0631146 0)
(-0.0451715 0.0658312 0)
(-0.0491323 0.0697678 0)
(-0.0515692 0.0757366 0)
(-0.049012 0.0848448 0)
(-0.0352844 0.0973703 0)
(-0.0220179 0.114416 0)
(0.0795721 0.135403 0)
(0.180471 0.127495 0)
(0.434706 -0.00496948 0)
(0.415348 -0.31693 0)
(0.615529 -0.426062 0)
(-0.0415405 -0.697112 0)
(0.834349 -0.858499 0)
(-0.0183222 0.0599951 0)
(-0.0217452 0.0608502 0)
(-0.0256311 0.0618752 0)
(-0.0295936 0.0631812 0)
(-0.0336994 0.0647898 0)
(-0.0378592 0.0667252 0)
(-0.0417223 0.0689952 0)
(-0.0447943 0.0715385 0)
(-0.0464083 0.0742551 0)
(-0.0437026 0.0765496 0)
(-0.0278154 0.0760425 0)
(-0.0188506 0.0654283 0)
(0.0619377 0.0476903 0)
(0.107693 -0.0278964 0)
(0.287667 -0.171479 0)
(0.271791 -0.324491 0)
(0.435093 -0.316413 0)
(0.0950533 -0.612222 0)
(0.753668 -0.722736 0)
(-0.0158904 0.0633908 0)
(-0.0189787 0.0645767 0)
(-0.0228232 0.0658055 0)
(-0.0272367 0.0672574 0)
(-0.032039 0.0690183 0)
(-0.0369798 0.0709968 0)
(-0.0418333 0.0730029 0)
(-0.0461136 0.0744599 0)
(-0.0491218 0.0746352 0)
(-0.0492389 0.0724555 0)
(-0.0422517 0.0645758 0)
(-0.0434791 0.0426627 0)
(0.00619353 0.0121394 0)
(0.0183223 -0.0709444 0)
(0.163852 -0.201603 0)
(0.0370959 -0.396312 0)
(0.293517 -0.333665 0)
(0.0655202 -0.542318 0)
(0.269565 -0.462658 0)
(-0.0160094 0.0640258 0)
(-0.0166988 0.0667999 0)
(-0.0182921 0.0692499 0)
(-0.0205369 0.0715712 0)
(-0.0232492 0.0739074 0)
(-0.0264425 0.0763019 0)
(-0.0301247 0.0785909 0)
(-0.0343024 0.0801379 0)
(-0.039028 0.0798773 0)
(-0.0430996 0.0756 0)
(-0.0427762 0.0615176 0)
(-0.0484211 0.023415 0)
(0.00301091 -0.0216225 0)
(-0.0175237 -0.17306 0)
(0.158389 -0.220492 0)
(0.00781787 -0.433432 0)
(0.253112 -0.369449 0)
(0.0324344 -0.484589 0)
(0.203319 -0.330194 0)
)
;

boundaryField
{
    leftWall
    {
        type            fixedValue;
        value           nonuniform 0();
    }
    rightWall
    {
        type            fixedValue;
        value           uniform (0 0 0);
    }
    lowerWall
    {
        type            fixedValue;
        value           nonuniform 0();
    }
    atmosphere
    {
        type            fluxCorrectedVelocity;
        value           nonuniform List<vector> 
23
(
(-0.0175905 0.0570481 0)
(-0.016931 0.0586207 0)
(-0.0164829 0.0601455 0)
(-0.0161479 0.0616292 0)
(-0.0160094 0.0640653 0)
(-0.0166988 0.0668502 0)
(-0.0182921 0.0693107 0)
(-0.0205369 0.0716435 0)
(-0.0232492 0.0739934 0)
(-0.0264425 0.076401 0)
(-0.0301247 0.0787028 0)
(-0.0343024 0.0802572 0)
(-0.039028 0.0799907 0)
(-0.0430996 0.0756727 0)
(-0.0427762 0.0614652 0)
(-0.0484211 0.0227194 0)
(0.00301091 -0.0228212 0)
(-0.0175237 -0.174838 0)
(0.158389 -0.221891 0)
(0.00781787 -0.433272 0)
(0.253112 -0.3688 0)
(0.0324344 -0.481246 0)
(0.203319 -0.326111 0)
)
;
    }
    defaultFaces
    {
        type            empty;
    }
    procBoundary3to1
    {
        type            processor;
        value           nonuniform List<vector> 
23
(
(-0.0291056 0.11063 0)
(-0.0215698 0.113495 0)
(-0.0146904 0.116541 0)
(-0.00965384 0.119411 0)
(0.00185369 0.124777 0)
(0.0135803 0.130979 0)
(0.020226 0.142554 0)
(0.0252782 0.165313 0)
(0.0375799 0.217378 0)
(0.0771747 0.308601 0)
(0.0254999 0.24165 0)
(-0.775739 -0.495081 0)
(-1.11018 -0.578874 0)
(-1.0918 -0.516505 0)
(-1.06541 -0.413822 0)
(-1.04556 -0.237565 0)
(-0.96939 -0.00627193 0)
(-0.739905 0.15529 0)
(-0.636676 0.218078 0)
(-0.483119 0.311951 0)
(-0.148283 0.518351 0)
(0.0480864 0.610655 0)
(0.136776 0.520898 0)
)
;
    }
    procBoundary3to2
    {
        type            processor;
        value           nonuniform List<vector> 
25
(
(-0.0240864 0.0906145 0)
(-0.0118942 0.0785909 0)
(-0.00306228 0.0719578 0)
(-0.00283296 0.0646031 0)
(0.00440799 0.0604907 0)
(0.0033645 0.0581947 0)
(0.00612034 0.0514635 0)
(0.00478172 0.0481588 0)
(0.00448628 0.0450948 0)
(0.00220688 0.0437853 0)
(0.000740066 0.0415615 0)
(-0.00171731 0.041652 0)
(-0.00369784 0.0413086 0)
(-0.00579061 0.0419911 0)
(-0.0075812 0.0429002 0)
(-0.00912709 0.0442458 0)
(-0.0103963 0.0458514 0)
(-0.0113399 0.0476764 0)
(-0.0119759 0.0496491 0)
(-0.012294 0.0516864 0)
(-0.0122263 0.0538418 0)
(-0.0117118 0.0563873 0)
(-0.0122171 0.0577591 0)
(-0.0143925 0.0576082 0)
(-0.0185433 0.0545564 0)
)
;
    }
}


// ************************************************************************* //
