/*--------------------------------*- C++ -*----------------------------------*\
| =========                 |                                                 |
| \\      /  F ield         | OpenFOAM: The Open Source CFD Toolbox           |
|  \\    /   O peration     | Version:  2.4.0                                 |
|   \\  /    A nd           | Web:      www.OpenFOAM.org                      |
|    \\/     M anipulation  |                                                 |
\*---------------------------------------------------------------------------*/
FoamFile
{
    version     2.0;
    format      ascii;
    class       volVectorField;
    location    "0.65";
    object      U.oil;
}
// * * * * * * * * * * * * * * * * * * * * * * * * * * * * * * * * * * * * * //

dimensions      [0 1 -1 0 0 0 0];

internalField   nonuniform List<vector> 
575
(
(-0.0155083 0.0986459 0)
(-0.00981705 0.10133 0)
(-0.0041971 0.106287 0)
(-0.000272284 0.110003 0)
(-0.00640076 0.0856974 0)
(-0.00211473 0.0879674 0)
(0.00223703 0.0935369 0)
(0.0055711 0.0974255 0)
(0.00218662 0.0807767 0)
(0.00556174 0.0833725 0)
(0.00916411 0.0876219 0)
(0.0128572 0.0905555 0)
(0.00182697 0.0729767 0)
(0.00560758 0.0755915 0)
(0.0100814 0.078059 0)
(0.0145412 0.0797627 0)
(0.00781506 0.0650236 0)
(0.0108505 0.0658899 0)
(0.0155194 0.0669704 0)
(0.0198101 0.0689297 0)
(0.00737812 0.06055 0)
(0.0105512 0.0607673 0)
(0.0144983 0.0593356 0)
(0.0185589 0.0589964 0)
(0.00989717 0.0520735 0)
(0.0123924 0.0525925 0)
(0.0152113 0.0519472 0)
(0.0181192 0.0510108 0)
(0.00778124 0.047667 0)
(0.00964543 0.0482534 0)
(0.0123652 0.0473753 0)
(0.0150488 0.0457845 0)
(0.00598685 0.0445682 0)
(0.00763083 0.043006 0)
(0.00942908 0.041965 0)
(0.0115103 0.0398359 0)
(0.00436936 0.0407671 0)
(0.00513426 0.0403533 0)
(0.00621379 0.038785 0)
(0.00734457 0.0375166 0)
(0.00127623 0.0401922 0)
(0.00173948 0.0384395 0)
(0.00230279 0.0373431 0)
(0.00264561 0.0353655 0)
(-0.00115083 0.0391056 0)
(-0.00106105 0.037858 0)
(-0.00101982 0.0363202 0)
(-0.00115892 0.0347995 0)
(-0.00381762 0.0395845 0)
(-0.00406494 0.0380451 0)
(-0.00434302 0.0366796 0)
(-0.00506331 0.0351452 0)
(-0.006202 0.0402539 0)
(-0.0066849 0.0389774 0)
(-0.00722832 0.0376381 0)
(-0.00824247 0.0362951 0)
(-0.00835345 0.0415345 0)
(-0.00905025 0.0404173 0)
(-0.0097545 0.039248 0)
(-0.0109919 0.0380573 0)
(-0.0101632 0.0431248 0)
(-0.0110202 0.0422492 0)
(-0.0118634 0.041279 0)
(-0.0132108 0.0402871 0)
(-0.0116306 0.0449937 0)
(-0.0126087 0.0443362 0)
(-0.0135461 0.0435924 0)
(-0.0149335 0.0428117 0)
(-0.0127307 0.0470645 0)
(-0.0137879 0.0466157 0)
(-0.0148056 0.046093 0)
(-0.0161904 0.0455281 0)
(-0.0134668 0.0492705 0)
(-0.0145834 0.0490049 0)
(-0.0156679 0.0486942 0)
(-0.0170213 0.0483404 0)
(-0.0138491 0.0515504 0)
(-0.0149813 0.0514458 0)
(-0.0161175 0.0513276 0)
(-0.0174438 0.0511744 0)
(-0.0138303 0.0538996 0)
(-0.0150056 0.0539357 0)
(-0.0161609 0.0539638 0)
(-0.0174618 0.0539762 0)
(-0.0134263 0.0563864 0)
(-0.0145971 0.0564929 0)
(-0.015797 0.0566315 0)
(-0.0170924 0.0568059 0)
(-0.0128476 0.0586182 0)
(-0.0136918 0.0590281 0)
(-0.0147075 0.0593123 0)
(-0.0159398 0.0595595 0)
(-0.0141339 0.0593409 0)
(-0.0139704 0.0604435 0)
(-0.0141362 0.0613951 0)
(-0.0145547 0.0622399 0)
(-0.0175905 0.0570384 0)
(-0.016931 0.0586069 0)
(-0.0164829 0.0601253 0)
(-0.0161479 0.0616016 0)
(0.00977875 0.115336 0)
(0.0208523 0.123157 0)
(0.033587 0.135689 0)
(0.0503648 0.155858 0)
(0.0761625 0.186916 0)
(0.11796 0.221077 0)
(0.159709 0.22881 0)
(-0.750675 -0.25955 0)
(-1.15449 -0.498416 0)
(-1.06769 -0.450796 0)
(-1.02308 -0.444673 0)
(-1.00457 -0.344232 0)
(-1.03337 -0.172633 0)
(-1.0305 -0.0734513 0)
(-0.961464 -0.0194768 0)
(-0.940843 0.0162546 0)
(-0.793845 -0.000542072 0)
(-0.494326 -0.0537052 0)
(-0.220681 -0.0629895 0)
(0.0156699 0.102371 0)
(0.0290517 0.10858 0)
(0.0474835 0.11591 0)
(0.0722621 0.13015 0)
(0.100496 0.147897 0)
(0.151036 0.165971 0)
(0.205542 0.174133 0)
(0.280908 0.132764 0)
(-0.154614 -0.0175824 0)
(-1.111 -0.417885 0)
(-1.03993 -0.386894 0)
(-0.963638 -0.323093 0)
(-0.883956 -0.228919 0)
(-0.841653 -0.121721 0)
(-0.790172 -0.0880636 0)
(-0.67743 -0.141556 0)
(-0.576955 -0.319871 0)
(-0.367253 -0.576793 0)
(-0.236932 -0.669415 0)
(0.0224515 0.0926348 0)
(0.037067 0.0963518 0)
(0.054836 0.100563 0)
(0.0790436 0.109033 0)
(0.108736 0.115125 0)
(0.155494 0.115332 0)
(0.2019 0.107637 0)
(0.28335 0.082602 0)
(0.298544 0.048811 0)
(-0.142467 -0.0989276 0)
(-0.963689 -0.371627 0)
(-0.987549 -0.377807 0)
(-0.861887 -0.325327 0)
(-0.761208 -0.258271 0)
(-0.675354 -0.231649 0)
(-0.54506 -0.349856 0)
(-0.311576 -0.701991 0)
(0.0270483 -1.20783 0)
(-0.0203568 -1.06826 0)
(0.0237045 0.0781831 0)
(0.0393223 0.0784548 0)
(0.0595244 0.078902 0)
(0.0801684 0.0811567 0)
(0.109963 0.0795603 0)
(0.150637 0.0711426 0)
(0.190321 0.0568692 0)
(0.255984 0.0294734 0)
(0.296941 0.0217393 0)
(0.380965 -0.01707 0)
(0.450706 0.0759109 0)
(-0.240646 -0.117671 0)
(-0.756916 -0.397853 0)
(-0.825009 -0.411334 0)
(-0.702057 -0.421376 0)
(-0.593365 -0.539418 0)
(-0.0383449 -1.20733 0)
(0.0483512 -1.65404 0)
(-0.00954226 -1.18473 0)
(0.0279618 0.0681772 0)
(0.0403905 0.064506 0)
(0.0572132 0.0635946 0)
(0.0762226 0.0609862 0)
(0.102202 0.0509494 0)
(0.138354 0.0336745 0)
(0.172122 0.0146289 0)
(0.234866 -0.019252 0)
(0.275886 -0.0509016 0)
(0.39776 -0.0821391 0)
(0.477979 0.0115323 0)
(0.528445 0.380192 0)
(0.394411 0.383371 0)
(-0.0654989 0.087515 0)
(-0.269926 -0.261666 0)
(-0.285355 -0.412832 0)
(0.0462382 -0.497251 0)
(-0.00817944 -2.05803 0)
(0.00600544 -1.16736 0)
(0.0256175 0.0569259 0)
(0.0371948 0.0522904 0)
(0.0517136 0.0480103 0)
(0.068229 0.0400326 0)
(0.0902835 0.0252747 0)
(0.117387 0.00441442 0)
(0.144428 -0.0228186 0)
(0.1999 -0.0681191 0)
(0.224023 -0.130238 0)
(0.362115 -0.16795 0)
(0.356344 -0.0766204 0)
(0.555236 0.389792 0)
(0.514667 0.583369 0)
(0.327256 0.485225 0)
(0.0681995 0.106123 0)
(-0.0902336 -0.354359 0)
(0.0890248 -0.423166 0)
(-0.0398398 -0.888403 0)
(0.0121146 -1.03049 0)
(0.0241786 0.0480108 0)
(0.0320466 0.0420456 0)
(0.0437624 0.035647 0)
(0.0568304 0.0251191 0)
(0.0722201 0.0070861 0)
(0.092388 -0.0171597 0)
(0.109456 -0.0508833 0)
(0.149542 -0.101277 0)
(0.150173 -0.18002 0)
(0.263659 -0.239801 0)
(0.204776 -0.174085 0)
(0.476872 0.326037 0)
(0.462927 0.634362 0)
(0.3599 0.585648 0)
(0.247454 0.288661 0)
(0.139867 -0.265403 0)
(0.186457 -0.462141 0)
(0.0159331 -1.07938 0)
(0.0155475 -1.03104 0)
(0.0197803 0.0422414 0)
(0.0257191 0.0343548 0)
(0.0343287 0.0263469 0)
(0.0434331 0.0134889 0)
(0.0525405 -0.00525716 0)
(0.0645553 -0.0297015 0)
(0.0716093 -0.0657066 0)
(0.0900123 -0.115805 0)
(0.0700085 -0.198097 0)
(0.130933 -0.266372 0)
(0.0169482 -0.29602 0)
(0.314746 0.335018 0)
(0.313518 0.646865 0)
(0.312091 0.592566 0)
(0.275927 0.34372 0)
(0.263786 -0.20701 0)
(0.282504 -0.372711 0)
(0.0490608 -1.10689 0)
(0.0625336 -1.41348 0)
(0.0155223 0.0359592 0)
(0.0186743 0.029524 0)
(0.0241321 0.0199453 0)
(0.029385 0.00770773 0)
(0.0326822 -0.0107173 0)
(0.0371016 -0.0345006 0)
(0.0347052 -0.0669804 0)
(0.0314533 -0.112445 0)
(0.00292522 -0.182875 0)
(-0.018003 -0.245584 0)
(-0.135403 -0.276046 0)
(-0.0338014 0.246795 0)
(0.167046 0.647463 0)
(0.197159 0.578638 0)
(0.247223 0.327479 0)
(0.303853 -0.189039 0)
(0.299955 -0.329725 0)
(0.118071 -0.533022 0)
(0.107459 -1.62479 0)
(0.00942944 0.03432 0)
(0.0116917 0.025859 0)
(0.0137407 0.0170743 0)
(0.0160629 0.0050559 0)
(0.0149686 -0.0113306 0)
(0.0129918 -0.0319693 0)
(0.00335491 -0.0586856 0)
(-0.0133621 -0.0940781 0)
(-0.0481634 -0.141048 0)
(-0.11346 -0.188525 0)
(-0.236698 -0.213333 0)
(-0.261364 0.125619 0)
(0.00701277 0.506007 0)
(0.0718352 0.467391 0)
(0.222456 0.213652 0)
(0.278125 -0.190968 0)
(0.241191 -0.269428 0)
(0.062983 -0.38076 0)
(0.0995122 -1.8266 0)
(0.00452855 0.0316587 0)
(0.00478347 0.0252769 0)
(0.00444467 0.0164054 0)
(0.00420416 0.00591721 0)
(-0.000189192 -0.0080924 0)
(-0.00648541 -0.0248466 0)
(-0.0200685 -0.0450243 0)
(-0.0414463 -0.0690896 0)
(-0.0791006 -0.094999 0)
(-0.138703 -0.119275 0)
(-0.250268 -0.122894 0)
(-0.323892 0.0580951 0)
(-0.150272 0.297795 0)
(-0.0376952 0.293015 0)
(0.165342 0.0454758 0)
(0.12106 -0.164151 0)
(0.0927489 -0.205108 0)
(0.0273767 -0.471373 0)
(0.0884211 -1.44746 0)
(-0.000845613 0.0318095 0)
(-0.00152781 0.0254337 0)
(-0.00364527 0.017832 0)
(-0.00597908 0.00883146 0)
(-0.0122762 -0.00249191 0)
(-0.0209582 -0.0153261 0)
(-0.0358376 -0.0292873 0)
(-0.0575186 -0.0440173 0)
(-0.0918675 -0.0565146 0)
(-0.13978 -0.0605387 0)
(-0.208922 -0.0432659 0)
(-0.273444 0.0667967 0)
(-0.193359 0.18928 0)
(-0.0975428 0.151985 0)
(0.0169152 0.00909149 0)
(-0.088557 -0.116831 0)
(-0.00763493 -0.32012 0)
(0.0222031 -0.629084 0)
(0.0661823 -1.35835 0)
(-0.00535581 0.0322943 0)
(-0.00699334 0.0271282 0)
(-0.0104482 0.0205624 0)
(-0.0141985 0.0132389 0)
(-0.0214843 0.00451478 0)
(-0.0310661 -0.00480838 0)
(-0.0454396 -0.0138387 0)
(-0.0650556 -0.0217483 0)
(-0.0931934 -0.0255871 0)
(-0.126096 -0.018144 0)
(-0.16981 0.00580744 0)
(-0.207003 0.0766511 0)
(-0.168091 0.149275 0)
(-0.154386 0.0933924 0)
(-0.197007 -0.11995 0)
(-0.295568 -0.0848266 0)
(-0.072871 -0.369726 0)
(-0.010956 -0.917381 0)
(0.0740835 -1.59441 0)
(-0.00936391 0.0338955 0)
(-0.0116708 0.0295196 0)
(-0.0158621 0.0242016 0)
(-0.0205255 0.0184406 0)
(-0.0281286 0.0120002 0)
(-0.0377438 0.00557417 0)
(-0.0507996 0.000403935 0)
(-0.0672951 -0.00268841 0)
(-0.0883122 -0.00205697 0)
(-0.111154 0.00951322 0)
(-0.135894 0.0338462 0)
(-0.161265 0.0855215 0)
(-0.138909 0.131744 0)
(-0.15313 -0.0933126 0)
(-0.252917 -0.538317 0)
(-0.291609 -1.1294 0)
(-0.186099 -1.47612 0)
(-0.0877496 -1.38486 0)
(0.0597779 -1.23932 0)
(-0.0126504 0.0360139 0)
(-0.0154513 0.0325459 0)
(-0.020068 0.0283749 0)
(-0.0252427 0.0239808 0)
(-0.032715 0.0194042 0)
(-0.0416741 0.0152039 0)
(-0.0529885 0.0124461 0)
(-0.0662419 0.0112889 0)
(-0.0811377 0.0141335 0)
(-0.0951034 0.024741 0)
(-0.107395 0.0458524 0)
(-0.120965 0.0916002 0)
(-0.109159 0.12503 0)
(-0.12608 -0.0927032 0)
(-0.271101 -0.559166 0)
(-0.215698 -0.945297 0)
(-0.135638 -1.14521 0)
(-0.0804944 -1.10908 0)
(0.0506955 -1.03219 0)
(-0.0152757 0.0386288 0)
(-0.0184325 0.0359533 0)
(-0.02321 0.0328279 0)
(-0.0286037 0.0295929 0)
(-0.0357556 0.0264541 0)
(-0.0440424 0.0237103 0)
(-0.0537718 0.021933 0)
(-0.0642455 0.021674 0)
(-0.0753695 0.0245094 0)
(-0.0817384 0.0330927 0)
(-0.0803126 0.0516001 0)
(-0.0754477 0.0979483 0)
(-0.0573639 0.168514 0)
(-0.163716 0.170434 0)
(-0.311763 -0.585948 0)
(-0.145527 -0.913151 0)
(-0.101498 -1.01814 0)
(-0.0789239 -1.00678 0)
(0.0493743 -0.981583 0)
(-0.0172515 0.0415309 0)
(-0.0206425 0.0395746 0)
(-0.025455 0.0373668 0)
(-0.0309164 0.0351434 0)
(-0.0376745 0.0331466 0)
(-0.045337 0.0315022 0)
(-0.0539441 0.0304855 0)
(-0.0625279 0.0300325 0)
(-0.0691101 0.0297722 0)
(-0.0687458 0.0289909 0)
(-0.0585545 0.0299145 0)
(-0.0467567 0.0642213 0)
(-0.0530267 0.228482 0)
(-0.249521 0.506057 0)
(-0.267423 -0.57477 0)
(-0.109463 -0.911519 0)
(-0.0918012 -0.991705 0)
(-0.0858247 -0.988503 0)
(0.0647719 -0.984299 0)
(-0.0186437 0.0446102 0)
(-0.0221906 0.0432979 0)
(-0.0269095 0.0418897 0)
(-0.0323109 0.0405832 0)
(-0.0387554 0.0395964 0)
(-0.0460908 0.0389339 0)
(-0.0545844 0.0387243 0)
(-0.0641298 0.0384843 0)
(-0.0749161 0.0366025 0)
(-0.0853435 0.0301114 0)
(-0.100043 0.027168 0)
(-0.128945 0.0923792 0)
(-0.179482 0.361709 0)
(-0.211169 0.561964 0)
(-0.228258 -0.47778 0)
(-0.0957173 -0.963501 0)
(-0.0910772 -1.0571 0)
(-0.0983985 -0.995763 0)
(0.111864 -0.993243 0)
(-0.0194974 0.0477739 0)
(-0.0231048 0.0470279 0)
(-0.0276649 0.0463285 0)
(-0.0328743 0.0458108 0)
(-0.0389181 0.0457131 0)
(-0.0457913 0.0460609 0)
(-0.0538581 0.0471609 0)
(-0.0634752 0.0490024 0)
(-0.0761086 0.051595 0)
(-0.0937488 0.0548791 0)
(-0.12787 0.0688875 0)
(-0.178444 0.143435 0)
(-0.190012 0.371171 0)
(-0.184616 0.526337 0)
(-0.172954 -0.104152 0)
(-0.0968017 -1.10868 0)
(-0.11238 -1.78807 0)
(-0.159319 -1.22281 0)
(0.191632 -0.984519 0)
(-0.0198891 0.0509358 0)
(-0.0234924 0.0506881 0)
(-0.0278321 0.0506227 0)
(-0.0327574 0.0507949 0)
(-0.0383149 0.0514674 0)
(-0.0445269 0.0527217 0)
(-0.0516209 0.0550276 0)
(-0.0598587 0.0589157 0)
(-0.0702355 0.0656683 0)
(-0.0834037 0.0775048 0)
(-0.105946 0.101974 0)
(-0.139153 0.165813 0)
(-0.132158 0.333163 0)
(-0.0674968 0.436551 0)
(0.0923367 0.247517 0)
(0.289709 -0.19868 0)
(0.544718 -1.22438 0)
(-0.185898 -1.44905 0)
(0.298738 -0.950878 0)
(-0.0198467 0.0540063 0)
(-0.023383 0.0541906 0)
(-0.0274692 0.0545847 0)
(-0.0320234 0.0552088 0)
(-0.036965 0.0563586 0)
(-0.0422667 0.0581043 0)
(-0.0478192 0.0609646 0)
(-0.0534175 0.0655248 0)
(-0.0589699 0.0732299 0)
(-0.0618411 0.0860661 0)
(-0.0606353 0.108069 0)
(-0.0579182 0.153329 0)
(0.0271185 0.234318 0)
(0.150717 0.292842 0)
(0.396132 0.166262 0)
(0.415535 -0.207644 0)
(0.657615 -0.555967 0)
(-0.152693 -1.2011 0)
(0.454995 -0.896119 0)
(-0.0194132 0.0571334 0)
(-0.0229203 0.0576997 0)
(-0.026821 0.0585387 0)
(-0.0311073 0.059595 0)
(-0.0357459 0.0611098 0)
(-0.0405155 0.0631146 0)
(-0.0451716 0.0658309 0)
(-0.0491326 0.0697647 0)
(-0.051571 0.075717 0)
(-0.0490218 0.0847433 0)
(-0.0353415 0.0969626 0)
(-0.0222356 0.113258 0)
(0.0785451 0.132538 0)
(0.176537 0.125038 0)
(0.42733 -0.00659995 0)
(0.409571 -0.311244 0)
(0.609687 -0.427112 0)
(-0.208971 -1.18297 0)
(0.914823 -0.908535 0)
(-0.0183222 0.0599951 0)
(-0.0217452 0.0608502 0)
(-0.0256311 0.0618752 0)
(-0.0295936 0.0631812 0)
(-0.0336994 0.0647898 0)
(-0.0378592 0.0667252 0)
(-0.0417223 0.068995 0)
(-0.0447944 0.0715371 0)
(-0.0464089 0.0742462 0)
(-0.0437054 0.0765051 0)
(-0.0278291 0.0758684 0)
(-0.0188845 0.0648742 0)
(0.0618304 0.0462619 0)
(0.106958 -0.0315331 0)
(0.285415 -0.176164 0)
(0.269431 -0.325016 0)
(0.433982 -0.317112 0)
(0.0564878 -0.917286 0)
(1.7272 -1.28286 0)
(-0.0158904 0.0633908 0)
(-0.0189787 0.0645767 0)
(-0.0228232 0.0658055 0)
(-0.0272367 0.0672574 0)
(-0.032039 0.0690183 0)
(-0.0369798 0.0709968 0)
(-0.0418333 0.0730028 0)
(-0.0461137 0.0744589 0)
(-0.0491222 0.0746288 0)
(-0.0492409 0.072423 0)
(-0.0422624 0.0644499 0)
(-0.0434977 0.0422601 0)
(0.00605981 0.0110312 0)
(0.017459 -0.0737309 0)
(0.162223 -0.205522 0)
(0.037048 -0.396577 0)
(0.293824 -0.334913 0)
(0.0707216 -0.552087 0)
(1.64204 -1.16635 0)
(-0.0160094 0.0640258 0)
(-0.0166988 0.0667999 0)
(-0.0182921 0.0692499 0)
(-0.0205369 0.0715712 0)
(-0.0232492 0.0739074 0)
(-0.0264425 0.0763019 0)
(-0.0301247 0.0785908 0)
(-0.0343024 0.0801372 0)
(-0.0390281 0.0798721 0)
(-0.0431003 0.0755708 0)
(-0.0427823 0.0613978 0)
(-0.0484381 0.0230555 0)
(0.00291545 -0.021982 0)
(-0.0176339 -0.173973 0)
(0.158096 -0.221575 0)
(0.00796351 -0.433467 0)
(0.253735 -0.369709 0)
(0.0330759 -0.485716 0)
(0.228637 -0.346777 0)
)
;

boundaryField
{
    leftWall
    {
        type            fixedValue;
        value           nonuniform 0();
    }
    rightWall
    {
        type            fixedValue;
        value           uniform (0 0 0);
    }
    lowerWall
    {
        type            fixedValue;
        value           nonuniform 0();
    }
    atmosphere
    {
        type            fluxCorrectedVelocity;
        value           nonuniform List<vector> 
23
(
(-0.0175905 0.0570481 0)
(-0.016931 0.0586207 0)
(-0.0164829 0.0601455 0)
(-0.0161479 0.0616292 0)
(-0.0160094 0.0640653 0)
(-0.0166988 0.0668502 0)
(-0.0182921 0.0693107 0)
(-0.0205369 0.0716435 0)
(-0.0232492 0.0739934 0)
(-0.0264425 0.076401 0)
(-0.0301247 0.0787028 0)
(-0.0343024 0.0802572 0)
(-0.0390281 0.0799907 0)
(-0.0431003 0.0756727 0)
(-0.0427823 0.0614652 0)
(-0.0484381 0.0227194 0)
(0.00291545 -0.0228212 0)
(-0.0176339 -0.174838 0)
(0.158096 -0.221891 0)
(0.00796351 -0.433272 0)
(0.253735 -0.3688 0)
(0.0330759 -0.481246 0)
(0.228637 -0.326111 0)
)
;
    }
    defaultFaces
    {
        type            empty;
    }
    procBoundary3to1
    {
        type            processor;
        value           nonuniform List<vector> 
23
(
(-0.0291062 0.110616 0)
(-0.0215707 0.11348 0)
(-0.0146916 0.116523 0)
(-0.00965571 0.119388 0)
(0.00185023 0.124741 0)
(0.0135696 0.130905 0)
(0.0201961 0.14239 0)
(0.0250819 0.164541 0)
(0.0280311 0.20569 0)
(0.00573937 0.23616 0)
(-0.899611 -0.355164 0)
(-1.17069 -0.536273 0)
(-1.12064 -0.55158 0)
(-1.07141 -0.577811 0)
(-1.04893 -0.540305 0)
(-1.06095 -0.387266 0)
(-1.0233 -0.154996 0)
(-0.885812 -0.0327746 0)
(-0.849811 0.00572016 0)
(-0.793367 0.0250497 0)
(-0.646334 0.072444 0)
(-0.407568 0.160053 0)
(-0.162213 0.176531 0)
)
;
    }
    procBoundary3to2
    {
        type            processor;
        value           nonuniform List<vector> 
25
(
(-0.0240867 0.0906071 0)
(-0.0118944 0.0785871 0)
(-0.00306243 0.0719555 0)
(-0.00283304 0.0646019 0)
(0.00440795 0.0604902 0)
(0.00336449 0.0581946 0)
(0.00612034 0.0514635 0)
(0.00478172 0.0481588 0)
(0.00448628 0.0450948 0)
(0.00220688 0.0437853 0)
(0.000740066 0.0415615 0)
(-0.00171731 0.041652 0)
(-0.00369784 0.0413086 0)
(-0.00579061 0.0419911 0)
(-0.0075812 0.0429002 0)
(-0.00912709 0.0442458 0)
(-0.0103963 0.0458514 0)
(-0.0113399 0.0476764 0)
(-0.0119759 0.0496491 0)
(-0.012294 0.0516864 0)
(-0.0122263 0.0538418 0)
(-0.0117118 0.0563873 0)
(-0.0122171 0.0577591 0)
(-0.0143925 0.0576082 0)
(-0.0185433 0.0545564 0)
)
;
    }
}


// ************************************************************************* //
