/*--------------------------------*- C++ -*----------------------------------*\
| =========                 |                                                 |
| \\      /  F ield         | OpenFOAM: The Open Source CFD Toolbox           |
|  \\    /   O peration     | Version:  2.4.0                                 |
|   \\  /    A nd           | Web:      www.OpenFOAM.org                      |
|    \\/     M anipulation  |                                                 |
\*---------------------------------------------------------------------------*/
FoamFile
{
    version     2.0;
    format      ascii;
    class       volScalarField;
    location    "0.75";
    object      alpha.mercury;
}
// * * * * * * * * * * * * * * * * * * * * * * * * * * * * * * * * * * * * * //

dimensions      [0 0 0 0 0 0 0];

internalField   nonuniform List<scalar> 
559
(
0.999991
0.999988
0.999988
0.999988
0.999987
0.999945
0.990205
0.792506
0.840007
0.840327
0.840408
0.840899
0.841455
0.842126
0.842675
0.843474
0.843776
0.843862
0.844118
0.844933
0.844939
0.845071
0.845148
0.845655
0.846027
0.846069
0.846014
0.829992
0.436496
0.510025
0.577186
0.640382
0.706715
0.736474
0.748073
0.740462
0.714675
0.713524
0.732142
0.745361
0.776258
0.831923
0.846073
0.846161
0.846041
0.846169
0.696644
0.338669
0.200975
0.100815
0.0491241
0.0441558
0.05206
0.0645919
0.0652008
0.0570387
0.0473371
0.0372654
0.0665173
0.0979933
0.378456
0.796596
0.84616
0.846335
0.846529
0.241632
0.162252
0.0709978
0.0142368
0.0013025
0.000134241
8.28531e-05
9.58269e-05
9.39173e-05
9.38619e-05
9.92379e-05
0.000141099
0.0006277
0.00119962
0.03914
0.56972
0.845958
0.846892
0.846911
0.105488
0.0913641
0.0401782
0.00617186
0.000449567
8.41815e-05
8.27679e-05
0.00010379
0.00011356
9.38237e-05
9.8024e-05
6.6759e-05
6.10505e-05
6.11455e-05
0.0245904
0.344474
0.823086
0.846201
0.841578
0.087877
0.0723026
0.0247533
0.00222278
0.00016869
7.51369e-05
5.86498e-05
6.40815e-05
0.0001516
0.000184647
0.000139634
8.0166e-05
6.2429e-05
6.60125e-05
0.0214675
0.335275
0.806246
0.838964
0.674456
0.0894269
0.0488534
0.00979868
0.000641267
8.49093e-05
6.81475e-05
4.57168e-05
3.2751e-05
4.34986e-05
5.91628e-05
5.43883e-05
6.02392e-05
6.28014e-05
8.08727e-05
0.0188465
0.371385
0.785653
0.816579
0.268631
0.0956402
0.0325269
0.00369631
0.000233253
4.86083e-05
5.161e-05
4.59139e-05
3.28174e-05
3.15836e-05
3.97349e-05
5.43146e-05
6.17334e-05
6.30389e-05
7.69108e-05
0.00928182
0.258069
0.59337
0.580833
0.0980098
0.186579
0.000182466
4.67591e-06
2.72319e-06
1.8328e-06
1.03574e-06
1.7918e-07
4.73634e-09
0.310201
0.306323
0.291505
0.26397
0.00018733
0.000207935
0.000224869
0.000222034
3.98667e-06
3.65659e-06
3.59056e-06
5.60529e-06
2.00578e-06
2.00952e-06
2.03681e-06
2.14675e-06
2.06406e-06
2.4143e-06
2.42635e-06
2.38355e-06
1.38584e-06
1.67895e-06
1.22939e-06
5.86133e-07
2.05642e-07
1.95272e-07
9.4271e-08
1.09857e-10
5.16145e-09
3.83393e-09
1.18678e-09
1.11658e-10
1.02657e-10
1.2915e-10
1.76495e-10
1.11883e-10
1.00981e-10
1.18918e-10
1.25882e-10
1.02748e-10
8.59952e-11
9.104e-11
8.22556e-11
5.50935e-11
6.30859e-11
5.90434e-11
5.20653e-11
4.38531e-11
4.34745e-11
3.96802e-11
3.55019e-11
3.06815e-11
1.81788e-11
2.04706e-11
2.01077e-11
1.89041e-11
8.52e-12
1.00831e-11
1.12349e-11
1.27367e-11
3.92695e-12
5.22243e-12
7.17594e-12
1.02643e-11
1.80334e-12
2.8871e-12
4.81005e-12
7.56095e-12
0.0982379
0.00776884
0.000422649
6.09638e-05
3.86923e-05
3.62456e-05
3.42819e-05
3.14149e-05
3.05888e-05
4.0241e-05
5.24755e-05
5.55841e-05
5.97707e-05
7.27391e-05
0.001174
0.0524955
0.153962
0.0977587
0.0506921
0.00015222
8.85553e-05
1.36426e-05
2.62258e-05
3.44411e-05
3.51887e-05
3.7926e-05
3.18387e-05
2.46267e-05
2.47622e-05
3.01702e-05
4.13887e-05
5.17521e-05
6.85496e-05
0.000152156
0.00318927
0.0116609
0.00728368
0.0196377
6.91839e-06
4.84176e-06
1.43501e-05
2.83944e-05
3.55661e-05
3.7434e-05
3.85604e-05
3.16867e-05
3.62268e-05
2.98333e-05
3.14042e-05
3.82754e-05
4.83081e-05
6.55307e-05
8.37735e-05
0.000195957
0.00548527
0.00169249
0.00966358
2.0005e-06
4.24428e-06
1.67229e-05
2.72158e-05
3.69595e-05
3.94415e-05
4.48909e-05
4.49068e-05
4.30137e-05
3.89491e-05
3.67195e-05
3.57981e-05
4.22573e-05
5.70097e-05
7.20465e-05
6.0448e-05
0.000759666
0.000253499
0.00742264
1.99118e-06
5.19404e-06
1.73401e-05
3.59928e-05
4.48295e-05
4.70214e-05
4.29426e-05
3.43037e-05
2.73439e-05
2.67367e-05
3.35701e-05
3.48483e-05
3.87529e-05
4.81955e-05
6.34755e-05
6.02956e-05
6.69591e-05
7.08911e-05
0.00707856
5.75723e-07
5.69324e-06
2.90857e-05
4.67201e-05
4.87921e-05
4.65874e-05
1.93355e-05
7.27523e-06
6.42607e-06
9.75939e-06
1.97627e-05
3.02045e-05
3.85669e-05
3.26165e-05
4.36698e-05
5.30921e-05
4.79243e-05
0.000206281
0.00883166
2.74121e-07
8.49986e-06
3.84264e-05
5.06861e-05
4.8482e-05
1.43232e-05
6.29285e-07
5.29825e-07
5.29294e-07
5.41576e-07
5.42267e-06
2.78008e-05
3.86174e-05
3.25123e-05
3.28143e-05
3.33347e-05
3.84456e-05
0.000701197
0.0136018
1.98507e-07
7.52168e-06
3.87895e-05
5.06199e-05
4.13379e-05
4.36696e-06
5.30727e-07
5.30229e-07
5.28176e-07
5.26041e-07
1.34539e-06
1.43766e-05
2.99966e-05
3.60217e-05
3.79792e-05
3.80157e-05
4.25199e-05
0.00133189
0.0185178
4.73177e-08
1.92448e-06
2.04735e-05
5.06863e-05
4.63649e-05
1.04886e-05
6.45481e-07
5.27584e-07
5.26051e-07
5.25503e-07
5.24258e-07
5.0953e-06
2.42207e-05
3.56289e-05
3.80106e-05
3.65805e-05
0.00011451
0.00277041
0.0224861
4.55661e-09
7.88205e-08
2.62126e-06
2.50435e-05
4.72823e-05
4.59785e-05
8.6571e-06
5.28229e-07
5.25645e-07
5.2425e-07
5.2362e-07
2.56745e-06
1.74887e-05
2.82486e-05
3.40199e-05
2.83838e-05
0.000361267
0.00452614
0.0228252
3.01779e-10
2.19483e-09
1.37265e-07
6.30368e-06
4.78232e-05
6.99816e-05
4.99436e-05
4.52121e-06
5.25755e-07
5.23688e-07
5.22391e-07
1.15761e-06
7.81348e-06
2.11887e-05
2.83993e-05
5.89235e-05
0.000657658
0.00485732
0.0191878
5.75219e-11
2.06991e-10
5.07722e-09
7.98151e-07
1.80324e-05
7.02992e-05
8.7501e-05
4.26659e-05
9.16228e-06
4.82793e-06
5.59093e-06
5.95038e-06
7.22637e-06
2.2958e-05
8.90481e-05
8.37253e-05
0.000356168
0.0030913
0.0108842
3.32406e-11
1.32991e-10
6.22466e-10
8.16616e-08
4.9311e-06
4.55041e-05
9.60204e-05
0.000103428
7.37066e-05
6.09575e-05
6.78592e-05
7.41409e-05
6.46505e-05
5.69266e-05
4.63736e-05
4.54787e-05
9.7722e-05
0.00158202
0.00836685
2.89942e-11
1.61791e-10
3.04886e-10
1.11414e-09
4.38169e-07
1.13574e-05
6.55786e-05
0.000113755
0.000124983
0.000147154
0.000175675
0.000214284
0.000241165
0.000274384
0.000289482
0.000307411
0.00062429
0.00209229
0.00846235
3.39391e-11
1.63176e-10
3.28174e-10
4.49025e-10
3.85463e-09
7.26416e-07
1.2309e-05
6.01272e-05
0.000118303
0.000156405
0.000201847
0.000245468
0.000285795
0.000377819
0.000666648
0.0013032
0.0030125
0.00712847
0.0113608
3.20897e-11
1.42722e-10
2.7812e-10
4.09993e-10
2.93997e-10
1.08914e-08
6.20561e-07
7.10304e-06
3.00289e-05
6.28154e-05
0.000102858
0.00012538
0.000131675
0.000231783
0.000689844
0.0021101
0.00530088
0.0103447
0.011345
2.95079e-11
8.82922e-11
1.84753e-10
2.67841e-10
2.71349e-10
2.48146e-10
1.09319e-08
2.209e-07
8.74541e-07
1.88322e-06
2.60612e-06
2.61712e-06
2.38945e-06
6.08488e-06
6.39983e-05
0.000453519
0.00113274
0.0014063
0.00204061
)
;

boundaryField
{
    leftWall
    {
        type            zeroGradient;
    }
    rightWall
    {
        type            zeroGradient;
    }
    lowerWall
    {
        type            zeroGradient;
    }
    atmosphere
    {
        type            inletOutlet;
        inletValue      nonuniform 0();
        value           nonuniform 0();
    }
    defaultFaces
    {
        type            empty;
    }
    procBoundary1to0
    {
        type            processor;
        value           nonuniform List<scalar> 
26
(
0.999996
0.999996
0.999998
0.999998
0.999995
0.999786
0.977394
0.676292
0.101038
0.000254881
6.04495e-06
3.07928e-06
1.48965e-06
6.87005e-07
1.0733e-07
2.73095e-09
6.58682e-11
6.58682e-11
6.30464e-11
6.45784e-11
5.72008e-11
3.6055e-11
1.57668e-11
6.97968e-12
3.04465e-12
1.21005e-12
)
;
    }
    procBoundary1to3
    {
        type            processor;
        value           nonuniform List<scalar> 
23
(
7.90611e-13
1.47925e-12
2.75608e-12
4.68554e-12
1.39657e-11
4.91689e-11
9.04745e-11
1.58879e-10
1.88173e-10
2.47871e-10
2.68982e-10
9.07935e-10
8.76922e-09
2.92945e-08
4.81579e-08
9.60627e-08
2.07753e-07
4.99407e-07
1.9645e-06
2.55601e-06
1.08418e-06
1.97671e-07
6.08079e-08
)
;
    }
}


// ************************************************************************* //
