/*--------------------------------*- C++ -*----------------------------------*\
| =========                 |                                                 |
| \\      /  F ield         | OpenFOAM: The Open Source CFD Toolbox           |
|  \\    /   O peration     | Version:  2.4.0                                 |
|   \\  /    A nd           | Web:      www.OpenFOAM.org                      |
|    \\/     M anipulation  |                                                 |
\*---------------------------------------------------------------------------*/
FoamFile
{
    version     2.0;
    format      ascii;
    class       volScalarField;
    location    "0.75";
    object      alpha.air;
}
// * * * * * * * * * * * * * * * * * * * * * * * * * * * * * * * * * * * * * //

dimensions      [0 0 0 0 0 0 0];

internalField   nonuniform List<scalar> 
559
(
4.41609e-15
1.87737e-14
4.38568e-14
1.09672e-13
9.75882e-13
1.83438e-11
1.81829e-10
1.8315e-10
5.20675e-06
9.42982e-06
1.0251e-05
3.04518e-06
2.64893e-06
2.13543e-06
1.59167e-06
1.28653e-06
1.28462e-06
1.36722e-06
1.28579e-06
1.2845e-06
1.2845e-06
1.35382e-06
4.46948e-05
9.78909e-05
4.14836e-05
1.20742e-05
1.20782e-05
7.07721e-06
0.000117481
0.000183767
0.000218735
0.00045304
0.000503302
0.000432461
0.000177679
0.000106831
0.000117068
0.000181844
0.000178332
9.28586e-05
6.61334e-05
8.42454e-05
8.42862e-05
3.0555e-05
1.20588e-05
2.67274e-05
2.67115e-05
0.000293359
0.000503915
0.00223089
0.00407811
0.00407865
0.00407844
0.00338228
0.00119973
0.000664013
0.00227177
0.00229551
0.00181625
0.000358725
5.03443e-05
1.86063e-05
1.20552e-05
1.2032e-05
2.33451e-05
0.000217133
0.000211693
0.000142835
0.000313149
0.00140856
0.00387822
0.00184822
0.000127987
9.41219e-05
9.36106e-05
9.35609e-05
9.37549e-05
9.23636e-05
2.0688e-05
1.74436e-05
2.4874e-05
1.34224e-05
1.20313e-05
2.83368e-05
0.000146246
7.45728e-05
7.45729e-05
0.000103806
0.000179142
0.000170029
0.000785565
0.00194087
0.0166531
0.06027
0.0263196
0.0013864
1.73503e-05
2.063e-06
2.56822e-05
0.00012391
6.49432e-05
1.38577e-05
4.74069e-05
7.4574e-05
7.45717e-05
7.45941e-05
7.459e-05
7.45899e-05
7.45894e-05
0.000978482
0.0431357
0.082612
0.0826211
0.0826123
0.0188995
0.000455106
2.11918e-06
8.67943e-05
0.000554638
5.6611e-05
1.38958e-05
7.14514e-05
0.00043743
0.000491624
0.000273
0.000122922
7.46005e-05
7.458e-05
0.00238632
0.00866368
0.0125401
0.0166348
0.0354818
0.0326202
0.0030071
2.12546e-05
0.000115269
0.000721479
6.09727e-05
1.3924e-05
7.59984e-05
0.0102703
0.0320878
0.0169337
0.0025786
0.000131791
9.24366e-05
0.000621016
0.000185647
0.000215838
0.00219124
0.00579688
0.0070819
0.00218643
3.9848e-05
7.8137e-05
0.000722145
0.000428824
6.61549e-05
0.000158384
5.26892e-06
2.91365e-05
0.000542211
0.00161854
0.0142481
0.0690519
0.509166
0.963051
1.1613e-05
2.34195e-05
1.13539e-05
1.14215e-05
2.40803e-05
2.66849e-05
1.49301e-05
5.67619e-05
0.000202462
5.54592e-05
0.000103679
0.0258909
0.0141508
0.035813
0.060897
0.144102
0.0894812
0.104799
0.132012
0.300175
0.175182
0.540003
0.77163
0.858605
0.8754
0.971031
0.99244
0.996948
0.996172
0.999781
0.999972
0.999999
0.999945
0.999999
1
1
1
1
1
1
1
1
1
1
0.999999
0.999999
1
0.999999
0.999999
0.999999
0.999999
0.999999
0.999999
0.999999
0.999999
0.999998
0.999999
0.999999
0.999999
0.999998
0.999999
0.999998
0.999998
0.999998
0.999998
0.999997
0.999997
0.999997
0.0634605
0.378128
0.216695
0.0108541
0.00305609
0.00877775
0.00927091
0.00141053
0.000217984
0.000538343
0.00282507
0.00406987
0.00104462
3.56367e-05
1.38131e-05
0.000233555
0.00163596
0.00275056
0.00220109
0.185282
0.529002
0.345703
0.0171406
0.0127524
0.0364888
0.0720784
0.0625759
0.0572041
0.0109338
0.00912881
0.00625928
0.000726441
1.55439e-05
1.19995e-06
1.11129e-05
0.00031877
0.00275205
0.00722871
0.327448
0.454125
0.0643051
0.0199356
0.0165519
0.0234819
0.0707088
0.239634
0.240957
0.240885
0.0446607
0.00259959
0.000147033
3.22256e-06
1.19789e-06
1.36966e-06
9.12879e-05
0.00187565
0.00162539
0.222503
0.0778226
0.0635838
0.0611763
0.0126929
0.00942627
0.0094272
0.0104477
0.0229831
0.135375
0.056042
0.00243399
9.89143e-05
1.01869e-05
1.51547e-06
2.37862e-06
3.44063e-05
0.000334569
0.000800556
0.367545
0.244994
0.208574
0.0696877
0.0130991
0.01476
0.073121
0.123252
0.121636
0.121368
0.0782674
0.00651682
0.00153423
0.0046433
0.000597965
0.00107796
6.64408e-05
0.00030245
0.000848952
0.880196
0.73092
0.264418
0.0430421
0.0434737
0.262006
0.662437
0.795613
0.75646
0.507842
0.159517
0.0217465
0.0268243
0.21234
0.160028
0.162285
0.0121774
0.00196511
0.000853462
0.989545
0.788926
0.202555
0.0448904
0.284452
0.856361
0.984617
0.984642
0.984611
0.95922
0.553065
0.111119
0.0607236
0.389549
0.398348
0.398615
0.205802
0.0187728
0.00105828
0.99492
0.829038
0.301207
0.0945882
0.463034
0.953616
0.984642
0.984639
0.984642
0.984774
0.842196
0.193528
0.0596606
0.262676
0.287676
0.197806
0.109213
0.0314677
0.00152784
0.999173
0.972003
0.739045
0.356672
0.369353
0.901088
0.984567
0.984677
0.984868
0.984654
0.941186
0.472484
0.0837267
0.0428425
0.0530761
0.0246242
0.0138229
0.0101064
0.00127908
0.999957
0.999337
0.974597
0.714034
0.35918
0.538494
0.888849
0.984555
0.984589
0.984884
0.919316
0.416436
0.120818
0.00812376
0.00822743
0.0156434
0.00330412
0.00128535
0.00127785
0.999999
0.999993
0.99874
0.935791
0.499063
0.224355
0.444752
0.931808
0.984417
0.984508
0.934062
0.506947
0.184434
0.0966911
0.280289
0.451049
0.0461133
0.00128372
0.00131279
0.999998
0.999998
0.999952
0.987587
0.760635
0.222496
0.140291
0.562241
0.897207
0.937362
0.911888
0.723622
0.386461
0.421012
0.727881
0.727364
0.427341
0.0193267
0.00691926
0.999998
0.999998
0.999999
0.99883
0.932278
0.502817
0.134396
0.130895
0.360008
0.462049
0.446998
0.45308
0.453035
0.205051
0.167278
0.255518
0.284819
0.102885
0.00642068
0.999998
0.999998
0.999999
0.999997
0.994923
0.858796
0.339131
0.103221
0.0994164
0.0908854
0.0841378
0.0745642
0.0669456
0.031184
0.00689245
0.00695392
0.00689258
0.0189803
0.00200067
0.999998
0.999998
0.999999
0.999999
0.999966
0.991303
0.838877
0.384675
0.183263
0.174946
0.195798
0.217693
0.190807
0.101467
0.0411852
0.0210047
0.0199352
0.031597
0.0302197
0.999997
0.999998
0.999999
0.999999
0.999999
0.999854
0.992192
0.924017
0.788858
0.735638
0.784705
0.818287
0.806324
0.707948
0.538831
0.405189
0.351438
0.385065
0.482144
0.999998
0.999998
0.999999
0.999999
0.999999
0.999998
0.999848
0.998767
0.997576
0.997264
0.99817
0.999286
0.999405
0.998621
0.9945
0.985464
0.979826
0.98771
0.996198
)
;

boundaryField
{
    leftWall
    {
        type            alphaContactAngle;
        thetaProperties 
6
(

(
water
mercury
)
 90 0 0 0

(
water
air
)
 90 0 0 0

(
water
oil
)
 90 0 0 0

(
mercury
air
)
 90 0 0 0

(
oil
mercury
)
 90 0 0 0

(
oil
air
)
 90 0 0 0
);
        value           nonuniform 0();
    }
    rightWall
    {
        type            alphaContactAngle;
        thetaProperties 
6
(

(
water
mercury
)
 90 0 0 0

(
water
air
)
 90 0 0 0

(
water
oil
)
 90 0 0 0

(
mercury
air
)
 90 0 0 0

(
oil
mercury
)
 90 0 0 0

(
oil
air
)
 90 0 0 0
);
        value           nonuniform List<scalar> 
25
(
1.20782e-05
2.67274e-05
2.33451e-05
2.83368e-05
4.74069e-05
7.14514e-05
7.59984e-05
0.000158384
0.00220109
0.00722871
0.00162539
0.000800556
0.000848952
0.000853462
0.00105828
0.00152784
0.00127908
0.00127785
0.00131279
0.00691926
0.00642068
0.00200067
0.0302197
0.482144
0.996198
)
;
    }
    lowerWall
    {
        type            alphaContactAngle;
        thetaProperties 
6
(

(
water
mercury
)
 90 0 0 0

(
water
air
)
 90 0 0 0

(
water
oil
)
 90 0 0 0

(
mercury
air
)
 90 0 0 0

(
oil
mercury
)
 90 0 0 0

(
oil
air
)
 90 0 0 0
);
        value           nonuniform List<scalar> 
40
(
4.41609e-15
4.41609e-15
1.87737e-14
4.38568e-14
1.09672e-13
9.75882e-13
1.83438e-11
1.81829e-10
1.8315e-10
1.1613e-05
2.34195e-05
1.13539e-05
1.14215e-05
5.20675e-06
7.07721e-06
2.67115e-05
0.000217133
0.000146246
7.4574e-05
0.00043743
0.0102703
5.20675e-06
9.42982e-06
1.0251e-05
3.04518e-06
2.64893e-06
2.13543e-06
1.59167e-06
1.28653e-06
1.28462e-06
1.36722e-06
1.28579e-06
1.2845e-06
1.2845e-06
1.35382e-06
4.46948e-05
9.78909e-05
4.14836e-05
1.20742e-05
1.20782e-05
)
;
    }
    atmosphere
    {
        type            inletOutlet;
        inletValue      nonuniform 0();
        value           nonuniform 0();
    }
    defaultFaces
    {
        type            empty;
    }
    procBoundary1to0
    {
        type            processor;
        value           nonuniform List<scalar> 
26
(
3.47032e-15
2.85028e-14
1.20418e-13
3.17829e-13
1.09883e-12
9.74431e-12
7.88535e-09
4.14428e-07
3.04452e-06
4.7407e-06
0.000746827
0.0101941
0.0847381
0.14854
0.590383
0.969644
0.99958
0.99958
1
1
1
0.999999
0.999999
0.999999
0.999998
0.999999
)
;
    }
    procBoundary1to3
    {
        type            processor;
        value           nonuniform List<scalar> 
23
(
0.999998
0.999998
0.999998
0.999998
0.999998
0.999998
0.999998
0.999999
0.999999
0.999999
0.999999
0.999998
0.999998
1
1
1
1
1
0.999998
0.999997
0.999996
0.999987
0.999971
)
;
    }
}


// ************************************************************************* //
