/*--------------------------------*- C++ -*----------------------------------*\
| =========                 |                                                 |
| \\      /  F ield         | OpenFOAM: The Open Source CFD Toolbox           |
|  \\    /   O peration     | Version:  2.4.0                                 |
|   \\  /    A nd           | Web:      www.OpenFOAM.org                      |
|    \\/     M anipulation  |                                                 |
\*---------------------------------------------------------------------------*/
FoamFile
{
    version     2.0;
    format      ascii;
    class       volScalarField;
    location    "0.75";
    object      alphas;
}
// * * * * * * * * * * * * * * * * * * * * * * * * * * * * * * * * * * * * * //

dimensions      [0 0 0 0 0 0 0];

internalField   nonuniform List<scalar> 
559
(
1.99999
1.99999
1.99999
1.99999
1.99999
1.9999
1.98042
1.5851
1.83959
1.83959
1.83882
1.83919
1.83998
1.84123
1.84219
1.8432
1.84359
1.84376
1.84409
1.84493
1.84494
1.84507
1.84524
1.84585
1.84606
1.84593
1.84579
1.82954
1.42435
1.48023
1.52341
1.57428
1.64664
1.68646
1.70767
1.70255
1.68549
1.7017
1.72833
1.74518
1.77625
1.83205
1.84623
1.84618
1.84584
1.84583
1.6957
1.22991
0.948103
0.702205
0.561533
0.512429
0.520918
0.551823
0.587318
0.662259
0.797063
0.931999
1.02677
1.08511
1.37617
1.79653
1.84612
1.84615
1.84614
1.1112
0.809722
0.487063
0.330677
0.260421
0.201653
0.180646
0.176112
0.176126
0.211587
0.323273
0.553832
0.790886
0.938002
1.02528
1.56919
1.8459
1.8467
1.84654
0.544741
0.450348
0.325073
0.265865
0.230639
0.196915
0.177675
0.179748
0.240061
0.424805
0.438962
0.519937
0.715496
0.908868
1.0112
1.34372
1.82305
1.84598
1.84119
0.383891
0.352473
0.28509
0.261031
0.235741
0.201081
0.179804
0.276009
0.389955
0.403364
0.472379
0.432592
0.60942
0.866142
1.00465
1.335
1.80607
1.83869
1.67248
0.392151
0.34406
0.340996
0.368684
0.356397
0.291938
0.211878
0.18317
0.179323
0.191783
0.257039
0.353722
0.517797
0.818016
0.99481
1.37116
1.78523
1.81599
1.25204
0.430846
0.465985
0.527546
0.584066
0.60588
0.535872
0.398642
0.245348
0.155037
0.162038
0.211196
0.306598
0.497093
0.785851
0.976193
1.25646
1.5916
1.57334
1.06592
0.389926
0.0670826
0.344928
0.788842
0.936028
1.10026
2.01271
2.92598
0.645184
0.6388
0.615765
0.581956
0.0688597
0.0688084
0.084859
0.167831
0.370077
0.381164
0.428624
0.629369
0.936028
1.00078
1.07114
1.24954
1.16195
1.20776
1.26302
1.59967
1.34496
2.07993
2.54326
2.71721
2.74984
2.94206
2.98488
2.9939
2.99229
2.99956
2.99995
3
2.99989
3
3
3
3
3
3
3
3
3
3
3
3
3
3
3
3
3
3
3
3
3
3
3
3
3
3
2.99999
3
3
2.99999
2.99999
2.99999
2.99999
2.99999
2.99999
0.566629
1.4601
1.27636
0.877606
0.878063
0.859494
0.768785
0.591773
0.359469
0.2341
0.24838
0.328771
0.497643
0.746935
0.945096
1.03718
1.14895
1.08094
1.01944
0.902845
2.01534
1.69054
1.03182
1.02002
1.06338
1.11382
1.04976
0.90524
0.545124
0.36332
0.386192
0.501204
0.706994
0.901285
0.978326
1.00075
0.993792
0.981058
1.54192
1.9071
1.12827
1.03909
1.03178
1.04559
1.13989
1.47742
1.45072
1.34649
0.675729
0.433665
0.469556
0.648045
0.865709
0.965714
0.987723
0.981749
0.903486
1.43464
1.15493
1.12609
1.11966
1.02232
1.01628
1.01709
1.02016
1.0456
1.26017
0.95616
0.556301
0.474484
0.597995
0.857134
0.948839
0.963401
0.939276
0.812357
1.73461
1.48913
1.41395
1.13461
1.02135
1.02562
1.14422
1.24567
1.24293
1.24248
1.11435
0.684936
0.498932
0.575163
0.872656
0.919105
0.896278
0.825742
0.700915
2.76034
2.46055
1.52376
1.07968
1.08083
1.52055
2.32408
2.59109
2.51284
2.01552
1.31053
0.868251
0.605347
1.08219
1.20604
1.21253
0.788135
0.633514
0.599126
2.97904
2.57636
1.39862
1.08103
1.56229
2.71166
2.9692
2.96926
2.96919
2.91841
2.10379
1.13669
0.789017
1.57792
1.64259
1.60879
1.05022
0.529901
0.560707
2.98981
2.6569
1.59552
1.17871
1.91859
2.90671
2.96925
2.96925
2.96926
2.96952
2.68292
1.33532
0.894067
1.215
1.2654
0.991289
0.725327
0.555706
0.571942
2.99834
2.94365
2.47384
1.70204
1.72735
2.79923
2.96904
2.96932
2.96971
2.96928
2.88205
1.92357
0.997542
0.757657
0.686018
0.582961
0.532596
0.522314
0.59968
2.99992
2.99866
2.94851
2.42148
1.70431
2.06342
2.77558
2.96905
2.96915
2.96974
2.83843
1.81914
1.10886
0.750848
0.67315
0.683617
0.572842
0.570232
0.660616
3
2.99999
2.99744
2.86963
1.98382
1.42633
1.87544
2.86197
2.96865
2.96891
2.86781
2.00513
1.29963
1.03649
1.40445
1.72176
0.737879
0.629071
0.65911
2.99999
2.99999
2.9999
2.97489
2.51526
1.42246
1.25218
2.10853
2.78861
2.87022
2.8182
2.4403
1.75719
1.8032
2.38664
2.38487
1.62509
0.678409
0.662002
2.99999
2.99999
3
2.99764
2.8628
1.98986
1.23585
1.22564
1.68809
1.89246
1.85713
1.86754
1.86804
1.3574
1.23678
1.31584
1.30382
0.846568
0.659076
2.99999
2.99999
3
2.99999
2.98972
2.71361
1.65573
1.16713
1.15508
1.1302
1.10934
1.07986
1.05395
0.960698
0.88799
0.854678
0.755678
0.741943
0.698609
2.99999
2.99999
3
3
2.99993
2.98239
2.67348
1.74957
1.33111
1.30797
1.34443
1.38158
1.31606
1.11674
0.968817
0.895584
0.854732
0.859622
0.861101
2.99999
2.99999
3
3
3
2.9997
2.98413
2.84555
2.5707
2.46151
2.55842
2.62505
2.59838
2.39122
2.03557
1.75608
1.64821
1.72458
1.93011
2.99999
2.99999
3
3
3
3
2.99968
2.99746
2.99504
2.9944
2.99625
2.99852
2.99875
2.99711
2.9887
2.9707
2.95994
2.9763
2.99429
)
;

boundaryField
{
    leftWall
    {
        type            zeroGradient;
    }
    rightWall
    {
        type            zeroGradient;
    }
    lowerWall
    {
        type            zeroGradient;
    }
    atmosphere
    {
        type            zeroGradient;
    }
    defaultFaces
    {
        type            empty;
    }
    procBoundary1to0
    {
        type            processor;
        value           nonuniform List<scalar> 
26
(
2
2
2
2
1.99999
1.99958
1.95479
1.35259
0.214326
0.0583406
0.289075
0.690176
1.0748
1.26789
2.17759
2.93923
2.99916
2.99916
3
3
3
3
3
3
3
3
)
;
    }
    procBoundary1to3
    {
        type            processor;
        value           nonuniform List<scalar> 
23
(
2.99999
3
2.99999
2.99999
2.99999
2.99999
2.99999
3
3
3
3
2.99999
3
3
3
3
3
3
3
3
2.99999
2.99998
2.99995
)
;
    }
}


// ************************************************************************* //
