/*--------------------------------*- C++ -*----------------------------------*\
| =========                 |                                                 |
| \\      /  F ield         | OpenFOAM: The Open Source CFD Toolbox           |
|  \\    /   O peration     | Version:  2.4.0                                 |
|   \\  /    A nd           | Web:      www.OpenFOAM.org                      |
|    \\/     M anipulation  |                                                 |
\*---------------------------------------------------------------------------*/
FoamFile
{
    version     2.0;
    format      ascii;
    class       volScalarField;
    location    "0.75";
    object      p;
}
// * * * * * * * * * * * * * * * * * * * * * * * * * * * * * * * * * * * * * //

dimensions      [1 -1 -2 0 0 0 0];

internalField   nonuniform List<scalar> 
559
(
6786.33
5986.8
5188.93
4394.43
3602.12
2812.87
2014.02
1239.32
3536.42
3241.5
3328.04
3009.05
2653.25
2469.99
2375.81
2337.16
2301.17
2275.57
2269.12
2316.59
2437.86
2663.48
3260.51
4339.16
5477.93
5681.05
5535.87
2359.16
2150.43
2196.64
1899.63
1594.03
1427.69
1332.42
1295.51
1266.63
1237.08
1215.19
1214.75
1262.43
1366.46
1765.67
2856.92
4158.37
4448.54
4472.84
2023.43
1725.99
1548.94
1281.62
1136.81
1071.16
1031.08
1007.81
996.716
1005.07
1024.25
1052.32
1103.15
1155.62
1318.81
2246.65
3640.96
4139.84
4000.68
1457.82
1451.28
1331.18
1252.86
1208.91
1154.78
1106.81
1067.53
1043.79
1030.47
1046.25
1066.55
1086.08
1137.21
1103.07
1544.08
2774.4
3290.64
3189.26
1279.96
1307.32
1224.7
1170.16
1094.25
1016.36
962.332
930.437
913.103
917.303
934.306
973.618
1026
1091.52
1113.98
1244.52
2061.89
2485.11
2600.32
1126.93
1185.86
1129.03
1100.88
1044.44
987.276
938.903
901.883
882.988
884.554
901.221
934.3
978.298
1036.02
1039.24
1112.24
1668.26
1880.39
1892.14
974.852
1071.84
1053.88
1048.8
990.624
924.357
872.782
837.832
822.59
824.522
836.923
868.379
914.484
969.973
958.156
976.973
1332.56
1398.97
1308.74
850.528
968.461
996.182
1010.35
946.342
870.839
808.732
765.803
743.279
747.138
766.909
799.296
845.442
896.733
877.688
806.265
1013.82
986.29
1013.16
543.607
484.377
259.244
215.528
129.746
55.7306
6.13349
2.9007
743.433
789.309
828.414
841.772
513.155
559.669
614.301
685.775
319.805
400.001
482.938
562.434
203.343
198.173
206.735
242.75
160.821
155.454
126.115
110.667
32.9477
18.6835
14.5457
15.3882
3.40547
2.97942
2.88354
3.05219
2.65994
2.75332
2.84258
2.65061
2.99148
2.81399
2.54197
2.23386
2.82939
2.4809
2.19517
1.92549
2.64568
2.3333
2.06077
1.86761
2.5385
2.28554
2.08706
1.96133
2.6481
2.45371
2.31565
2.23011
2.83426
2.69696
2.58844
2.5064
2.93202
2.83256
2.74165
2.66647
2.92214
2.84757
2.77925
2.72171
2.86413
2.80939
2.75765
2.70948
789.042
875.633
927.216
958.107
885.536
801.766
730.539
672.071
642.115
649.766
672.923
696.528
739.699
776.367
762.819
660.607
705.469
671.715
830.411
752.654
797.993
837.528
868.569
797.437
710.962
620.807
539.048
489.339
484.118
530.802
568.257
607.567
642.512
660.894
629.085
659.483
652.481
717.19
629.03
700.869
757.698
749.937
674.545
591.251
508.586
439.289
397.11
377.29
401.119
457.999
504.006
537.994
573.778
589.21
615.828
597.68
647.788
365.077
553.429
656.292
594.214
514.233
434.168
353.904
308.095
270.768
267.564
282.44
348.575
414.566
445.938
495.045
531.479
566.43
562.007
588.65
133.912
309.737
436.786
407.875
336.765
236.99
143.584
122.493
116.791
135.958
174.21
246.82
333.363
359.956
433.461
475.651
511.463
522.281
538.576
22.7905
69.7882
164.821
253.202
170.575
110.385
83.3855
74.0499
72.9905
76.9381
101.526
166.583
258.768
302.793
362.241
401.439
453.557
476.835
496.158
3.85693
6.95414
25.4881
105.369
88.3169
71.6871
69.5597
70.2481
70.3837
70.5122
72.7734
116.407
219.809
282.23
331.569
364.695
395.011
428.094
460.848
2.35944
1.60613
7.76941
39.6626
70.595
69.7063
70.3586
70.5577
70.7193
70.7828
70.9765
86.7769
187.543
260.126
308.193
338.683
363.762
387.705
423.259
1.78809
1.70339
3.04409
11.3157
59.0095
68.7008
69.8569
70.2146
70.4801
70.5127
70.7754
78.5529
158.667
236.071
286.608
309.963
331.965
350.873
386.126
1.56353
1.74901
2.17929
3.35466
22.8765
60.7179
69.4354
70.2665
70.5044
70.4306
71.2605
82.6728
163.88
224.722
255.124
258.717
296.743
319.899
350.995
1.68352
1.84279
2.19175
2.5646
4.10458
39.6022
67.3848
70.3137
70.65
70.8422
73.0265
87.2652
161.773
214.554
229.75
239.681
264.157
298.063
325.147
1.89515
2.01095
2.28526
2.59894
2.95421
8.96863
51.617
67.8403
70.4217
71.6272
75.5083
91.9777
153.911
209.749
228.128
236.77
250.994
283.766
305.317
2.18403
2.28999
2.45689
2.61701
2.81614
3.23565
18.7795
52.0743
61.5933
64.5974
70.6054
93.5566
139.877
195.276
220.438
227.666
233.429
237.597
249.33
2.42479
2.44549
2.52078
2.62026
2.67794
2.71392
4.06495
19.979
33.5946
43.4451
48.8718
66.2003
93.4401
115.289
141.203
162.394
173.334
174.041
183.845
2.57449
2.53392
2.54161
2.56203
2.57124
2.4888
2.54901
4.628
10.3294
10.861
12.3367
16.1239
20.701
26.7447
41.8819
64.2217
85.7921
104.303
112.84
2.63906
2.56816
2.53466
2.51122
2.47579
2.42032
2.2854
2.23628
3.0439
4.07267
4.32416
4.61564
5.07792
6.79556
12.0534
20.0757
31.0594
45.7788
62.7826
2.63594
2.56189
2.51468
2.47575
2.42996
2.36545
2.26932
2.32679
2.51228
2.68166
2.83136
2.94745
2.98662
2.84921
2.6663
2.69643
2.94875
3.30201
2.82667
)
;

boundaryField
{
    leftWall
    {
        type            fixedFluxPressure;
        gradient        nonuniform 0();
        value           nonuniform 0();
    }
    rightWall
    {
        type            fixedFluxPressure;
        gradient        uniform 0;
        value           nonuniform List<scalar> 
25
(
5535.87
4472.84
4000.68
3189.26
2600.32
1892.14
1308.74
1013.16
830.411
717.19
647.788
588.65
538.576
496.158
460.848
423.259
386.126
350.995
325.147
305.317
249.33
183.845
112.84
62.7826
2.82667
)
;
    }
    lowerWall
    {
        type            fixedFluxPressure;
        gradient        nonuniform List<scalar> 
40
(
132718
0
0
0
0
0
0
0
0
13659.8
13542.5
13187.4
12419.3
0
0
0
0
0
0
0
0
40826
41816.6
41644.1
41366
41082.5
40918
40947.6
41111.3
41126.4
41283.7
41521.9
42359.8
42198
42289.4
43420.5
43965.2
42937.7
42496.3
41495
)
;
        value           nonuniform List<scalar> 
40
(
7184.48
6786.33
5986.8
5188.93
4394.43
3602.12
2812.87
2014.02
1239.32
830.595
875.724
912.562
921.02
3536.42
2359.16
2023.43
1457.82
1279.96
1126.93
974.852
850.528
3658.89
3366.95
3452.97
3133.14
2776.5
2592.74
2498.65
2460.49
2424.54
2399.42
2393.68
2443.67
2564.45
2790.35
3390.76
4471.05
5606.74
5808.53
5660.35
)
;
    }
    atmosphere
    {
        type            totalPressure;
        U               U.air;
        phi             phi.air;
        rho             rho;
        psi             none;
        gamma           1;
        p0              nonuniform 0();
        value           nonuniform 0();
    }
    defaultFaces
    {
        type            empty;
    }
    procBoundary1to0
    {
        type            processor;
        value           nonuniform List<scalar> 
26
(
6770.12
5967.49
5163.43
4357.22
3543.24
2726.32
1875.22
1095.17
477.698
475.752
264.808
160.437
20.0061
15.6013
4.50165
3.33894
3.11481
3.11481
3.32514
3.17605
2.99889
2.99822
3.06919
3.09141
3.03767
2.94941
)
;
    }
    procBoundary1to3
    {
        type            processor;
        value           nonuniform List<scalar> 
23
(
2.78236
2.74026
2.69946
2.66039
2.59931
2.53249
2.48418
2.4478
2.41899
2.39762
2.42521
2.55102
2.85315
3.26743
3.44124
3.52868
3.71162
3.97048
4.30072
4.63776
5.17354
6.32019
7.44674
)
;
    }
}


// ************************************************************************* //
