/*--------------------------------*- C++ -*----------------------------------*\
| =========                 |                                                 |
| \\      /  F ield         | OpenFOAM: The Open Source CFD Toolbox           |
|  \\    /   O peration     | Version:  2.4.0                                 |
|   \\  /    A nd           | Web:      www.OpenFOAM.org                      |
|    \\/     M anipulation  |                                                 |
\*---------------------------------------------------------------------------*/
FoamFile
{
    version     2.0;
    format      ascii;
    class       surfaceScalarField;
    location    "0.75";
    object      phi;
}
// * * * * * * * * * * * * * * * * * * * * * * * * * * * * * * * * * * * * * //

dimensions      [0 3 -1 0 0 0 0];

internalField   nonuniform List<scalar> 
1061
(
-3.47558e-06
-5.54704e-06
-6.29226e-06
-7.49258e-06
-9.74789e-06
-1.32278e-05
-1.66897e-05
-1.94129e-05
-9.57227e-06
9.57227e-06
2.42298e-06
-1.19953e-05
1.8841e-05
-1.6418e-05
3.11559e-05
-1.23148e-05
3.83783e-05
-7.22243e-06
4.27159e-05
-4.33759e-06
4.61734e-05
-3.45755e-06
4.98879e-05
-3.71451e-06
5.42183e-05
-4.33034e-06
5.87665e-05
-4.54821e-06
6.24737e-05
-3.70719e-06
6.47145e-05
-2.24079e-06
6.40326e-05
6.81896e-07
5.96557e-05
4.3769e-06
4.73136e-05
1.2342e-05
2.63004e-05
2.10132e-05
5.0367e-06
2.12637e-05
-4.08566e-06
9.12236e-06
-4.08566e-06
7.70874e-07
8.8014e-06
2.56414e-05
-3.68658e-05
4.01834e-05
-3.096e-05
4.64931e-05
-1.86246e-05
4.93037e-05
-1.0033e-05
5.11494e-05
-6.18328e-06
5.31028e-05
-5.411e-06
5.46912e-05
-5.30292e-06
5.69455e-05
-6.58461e-06
5.97112e-05
-7.31387e-06
6.18221e-05
-5.81809e-06
6.24315e-05
-2.85025e-06
6.25121e-05
6.01258e-07
6.11288e-05
5.76024e-06
5.06025e-05
2.28684e-05
3.39273e-05
3.76885e-05
1.65407e-05
3.86502e-05
-1.37578e-06
2.70388e-05
-5.46144e-06
1.2664e-05
-3.86256e-06
3.79981e-05
-6.22e-05
5.75644e-05
-5.05262e-05
6.71975e-05
-2.82577e-05
6.90277e-05
-1.18631e-05
6.9961e-05
-7.11667e-06
6.83509e-05
-3.80082e-06
6.58501e-05
-2.80219e-06
6.16831e-05
-2.41758e-06
5.63112e-05
-1.94194e-06
4.96872e-05
8.0585e-07
4.05963e-05
6.2407e-06
3.42548e-05
6.94271e-06
3.29789e-05
7.03619e-06
3.27944e-05
2.30529e-05
3.05548e-05
3.9928e-05
1.62162e-05
5.29889e-05
1.28825e-07
4.31262e-05
-5.33261e-06
3.5267e-05
-3.91295e-05
4.22205e-05
-6.91535e-05
4.81701e-05
-5.64758e-05
5.208e-05
-3.21676e-05
5.7995e-05
-1.77781e-05
6.14852e-05
-1.06069e-05
6.26217e-05
-4.93737e-06
6.19549e-05
-2.13538e-06
5.97e-05
-1.62664e-07
5.4634e-05
3.12409e-06
4.94614e-05
5.97844e-06
4.23322e-05
1.33699e-05
3.27227e-05
1.65522e-05
1.68358e-05
2.29231e-05
4.16861e-06
3.572e-05
1.70062e-05
2.70904e-05
1.4514e-05
5.5481e-05
3.42914e-06
5.42111e-05
-1.90347e-06
2.86567e-05
-6.77862e-05
3.62366e-05
-7.67334e-05
3.81667e-05
-5.84059e-05
4.13345e-05
-3.53354e-05
4.59436e-05
-2.23872e-05
4.79575e-05
-1.26208e-05
4.92234e-05
-6.20324e-06
5.10988e-05
-4.01078e-06
5.27941e-05
-1.85798e-06
5.36895e-05
2.22871e-06
4.98247e-05
9.84325e-06
4.2433e-05
2.07616e-05
2.84631e-05
3.05221e-05
6.1931e-06
4.51931e-05
-1.25517e-05
5.44649e-05
-5.26149e-06
1.98002e-05
1.0206e-05
4.00136e-05
7.6439e-06
5.67732e-05
5.74043e-06
2.18302e-05
-8.96164e-05
2.90279e-05
-8.39311e-05
2.80926e-05
-5.74707e-05
3.07324e-05
-3.79752e-05
3.65406e-05
-2.81954e-05
4.00937e-05
-1.61739e-05
4.20086e-05
-8.11817e-06
4.24203e-05
-4.42253e-06
4.21685e-05
-1.60614e-06
4.32426e-05
1.15457e-06
4.3936e-05
9.14992e-06
4.05456e-05
2.4152e-05
2.80491e-05
4.30185e-05
7.64469e-06
6.55976e-05
-1.35419e-05
7.56514e-05
-1.07445e-05
1.70028e-05
2.69845e-06
2.65706e-05
6.59495e-06
5.28767e-05
1.23354e-05
2.13606e-05
-0.000110977
2.32365e-05
-8.5807e-05
1.9562e-05
-5.37962e-05
2.19835e-05
-4.03967e-05
2.86074e-05
-3.48193e-05
3.39667e-05
-2.15332e-05
3.69923e-05
-1.11438e-05
3.7922e-05
-5.3522e-06
3.7541e-05
-1.22513e-06
3.75999e-05
1.09568e-06
3.89029e-05
7.84686e-06
3.81407e-05
2.49142e-05
2.88822e-05
5.22771e-05
1.08024e-05
8.36773e-05
-1.33601e-05
9.98139e-05
-1.94114e-05
2.30541e-05
-1.10401e-05
1.81993e-05
3.78313e-06
3.80535e-05
1.61185e-05
1.86818e-05
-0.000129659
1.34867e-05
-8.06119e-05
6.61526e-06
-4.69248e-05
1.08982e-05
-4.46796e-05
2.17307e-05
-4.56518e-05
3.135e-05
-3.11525e-05
3.57352e-05
-1.55291e-05
3.67309e-05
-6.34788e-06
3.49662e-05
5.39617e-07
3.19691e-05
4.09279e-06
3.072e-05
9.0959e-06
3.22686e-05
2.33656e-05
2.78923e-05
5.66534e-05
1.41222e-05
9.74474e-05
-8.34237e-06
0.000122278
-2.36984e-05
3.84102e-05
-2.13419e-05
1.58428e-05
-2.84158e-06
1.95531e-05
1.32769e-05
-1.57969e-05
-8.8771e-06
-1.99339e-05
5.78201e-05
-1.27513e-05
3.04968e-05
5.24309e-05
-0.000135009
6.30077e-05
-0.000167631
6.22366e-05
-0.000153291
7.50907e-05
-0.00016901
-0.000283405
8.94113e-06
-1.78182e-05
2.23034e-05
-1.33623e-05
3.80648e-05
-1.57614e-05
-1.89092e-05
5.6974e-05
4.61869e-05
-6.18507e-06
3.42551e-05
-1.43041e-06
2.0632e-05
-2.13833e-06
-2.90887e-06
4.63167e-06
1.51063e-05
9.20543e-06
-1.49023e-06
1.51661e-05
-2.36639e-05
2.00353e-05
3.39802e-05
-6.0553e-05
-0.000164322
3.85176e-05
-0.000190738
4.15827e-05
-0.000215985
4.52823e-05
6.04324e-05
-0.000242437
-0.000168257
3.91441e-05
-0.000185644
5.89693e-05
-0.00022305
8.26889e-05
9.3649e-05
-0.000256267
-0.000163278
4.91311e-05
-0.000201319
9.70098e-05
-0.00026375
0.00014512
0.000167458
-0.000337559
-0.000223524
0.000103645
-0.000307884
0.000181369
-0.000376296
0.000213531
0.000194288
-0.000403126
-0.000353241
0.000173482
-0.000371866
0.000199995
-0.000364273
0.000205938
0.000171566
-0.000341551
-0.000324343
0.000181496
-0.000311153
0.000186806
-0.0002696
0.000164385
0.000114711
-0.000212746
-0.000238897
0.000160002
-0.000198061
0.00014597
-0.000150048
0.000116372
7.58008e-05
-0.000111138
-0.000138422
0.000129933
-9.84098e-05
0.000105958
-6.42552e-05
8.22179e-05
5.13683e-05
-3.98228e-05
-2.26219e-05
0.000105461
-1.50212e-06
8.4838e-05
1.66606e-05
6.40551e-05
3.8388e-05
2.96409e-05
8.16275e-05
8.79712e-05
9.28168e-05
7.36486e-05
0.000100198
5.66739e-05
3.72456e-05
0.00010134
0.000118738
7.28465e-05
0.000129291
6.3096e-05
0.000133963
5.20015e-05
3.9209e-05
0.000132
0.000111146
5.90816e-05
0.000122226
5.20156e-05
0.000128012
4.62162e-05
3.85528e-05
0.000128668
9.1115e-05
4.84267e-05
9.89024e-05
4.42281e-05
0.00010449
4.06285e-05
3.59451e-05
0.000107098
7.43823e-05
8.02574e-05
8.4953e-05
8.80307e-05
1.27854e-05
-8.54702e-05
-4.88978e-05
-1.89287e-05
-8.51056e-05
-1.0717e-05
-5.55389e-05
-7.42463e-05
-1.26285e-05
-8.85622e-05
3.31121e-05
-7.68932e-05
6.22584e-05
-4.46753e-05
7.11099e-05
-1.51994e-05
6.37995e-05
7.84996e-06
5.48096e-05
1.30827e-05
5.15445e-05
1.2361e-05
5.28379e-05
2.20722e-05
5.47336e-05
5.47578e-05
5.30205e-05
9.91605e-05
4.28828e-05
0.000132416
-8.4563e-06
8.97493e-05
-3.52901e-05
4.26766e-05
-3.16316e-05
1.58947e-05
-1.83547e-05
-0.000117421
3.6582e-05
-0.00020844
7.20908e-05
-0.000173493
-4.56635e-05
-0.000128379
-0.000119361
-7.80665e-05
-0.000138875
-2.73005e-05
-0.000127659
2.32927e-05
-9.52685e-05
6.0042e-05
-5.19486e-05
6.50157e-05
2.87622e-06
4.28629e-05
3.52355e-05
3.10125e-05
2.42114e-05
2.69257e-05
2.61589e-05
3.6141e-05
4.55425e-05
4.95912e-05
8.57103e-05
5.25418e-05
0.000129466
2.92643e-05
0.000113027
-6.54432e-06
7.84852e-05
-1.66998e-05
2.60501e-05
-3.50545e-05
-0.000195832
0.000171861
-0.000203836
8.00948e-05
-0.000175674
-7.38254e-05
-0.000137228
-0.000157807
-9.89067e-05
-0.000177196
-6.2533e-05
-0.000164033
-2.35477e-05
-0.000134254
1.87393e-05
-9.42357e-05
5.8197e-05
-3.65815e-05
4.90812e-05
4.43514e-05
3.04645e-05
4.28281e-05
1.8504e-05
3.81194e-05
2.23806e-05
4.1666e-05
3.70789e-05
7.10119e-05
4.1597e-05
0.000124947
3.32058e-05
0.000121418
1.34033e-05
9.82878e-05
1.07728e-06
3.83761e-05
-3.39772e-05
-0.000241895
0.000171319
-0.000209977
4.8177e-05
-0.000175428
-0.000108374
-0.000134931
-0.000198304
-9.76852e-05
-0.000214442
-7.29266e-05
-0.000188791
-5.64532e-05
-0.000150727
-3.32703e-05
-0.000117419
1.00111e-05
-7.98629e-05
5.14102e-05
2.95225e-06
2.98059e-05
6.44324e-05
1.20375e-05
5.58878e-05
1.33665e-05
4.03369e-05
1.73388e-05
6.70396e-05
1.51594e-05
0.000127127
1.67036e-05
0.000119874
1.24223e-05
0.000102569
7.3628e-06
4.34356e-05
-2.66144e-05
-0.00030025
0.000215302
-0.000271123
1.90501e-05
-0.00018416
-0.000195337
-0.00012789
-0.000254574
-9.9177e-05
-0.000243155
-7.73583e-05
-0.00021061
-6.60934e-05
-0.000161992
-6.02841e-05
-0.000123228
-5.33526e-05
-8.67943e-05
-6.54962e-06
-4.38508e-05
1.95126e-05
3.83702e-05
3.77293e-06
7.16275e-05
1.30914e-06
4.28007e-05
-1.30778e-06
6.96565e-05
-1.18503e-05
0.000137669
-7.77178e-06
0.000115795
5.18176e-06
8.96155e-05
1.13821e-05
3.72353e-05
-1.52323e-05
-0.000414047
0.00029179
-0.000268787
-0.000126209
-0.000180014
-0.00028411
-0.000142558
-0.00029203
-0.000118014
-0.000267699
-9.75049e-05
-0.00023112
-8.03141e-05
-0.000179183
-8.70377e-05
-0.000116504
-7.93535e-05
-9.44785e-05
-5.53528e-05
-6.78515e-05
-1.88842e-05
1.90162e-06
-1.17353e-05
6.44786e-05
-2.30929e-05
5.41583e-05
-3.42402e-05
8.08038e-05
-2.97621e-05
0.000133191
-1.81311e-05
0.000104164
7.46997e-06
6.40145e-05
1.4243e-05
3.04622e-05
-9.89265e-07
-0.000339486
0.00022815
-0.000195916
-0.00026978
-0.000184027
-0.000295999
-0.000172036
-0.00030402
-0.000154187
-0.000285549
-0.000145107
-0.000240199
-0.000166475
-0.000157816
-0.0001515
-0.000131479
-0.000116906
-0.000129072
-8.21954e-05
-0.000102562
-5.28321e-05
-2.74617e-05
-3.31646e-05
4.48111e-05
-5.58495e-05
7.68432e-05
-6.54503e-05
9.04046e-05
-4.28062e-05
0.000110547
-9.88539e-06
7.12433e-05
1.61107e-05
3.80183e-05
1.7826e-05
2.87469e-05
1.68367e-05
-0.000213235
9.98347e-05
-0.000192021
-0.000290995
-0.000198004
-0.000290016
-0.000218491
-0.000283532
-0.000228412
-0.000275628
-0.000242767
-0.000225843
-0.000234521
-0.000166063
-0.000188079
-0.000177921
-0.000132819
-0.000184332
-8.55134e-05
-0.000149868
-7.63041e-05
-3.6671e-05
-5.92669e-05
2.77739e-05
-5.95184e-05
7.70947e-05
-4.86166e-05
7.95028e-05
-1.12624e-05
7.31932e-05
1.85475e-05
4.14334e-05
2.49172e-05
3.16487e-05
1.9829e-05
3.38351e-05
3.66658e-05
-0.000160212
4.73011e-05
-0.000225471
-0.000225735
-0.000231037
-0.000284451
-0.000240245
-0.000274324
-0.000276364
-0.00023951
-0.000262928
-0.000239279
-0.000242374
-0.000186617
-0.000209767
-0.000210527
-0.000170646
-0.000223454
-0.000134855
-0.000185659
-0.000101222
-7.03038e-05
-8.07749e-05
7.32656e-06
-5.46104e-05
5.09303e-05
-3.24505e-05
5.73429e-05
3.21595e-06
3.75268e-05
2.28253e-05
2.1824e-05
2.25531e-05
3.19209e-05
1.34837e-05
4.29045e-05
5.01494e-05
-0.000114942
5.11052e-05
-0.000210144
-0.000130534
-0.000258359
-0.000236236
-0.000247912
-0.000284771
-0.000244548
-0.000242873
-0.000264723
-0.000219104
-0.000231594
-0.000219746
-0.000246075
-0.000196046
-0.000238575
-0.000230954
-0.000202581
-0.000221652
-0.000138786
-0.000134099
-9.72386e-05
-3.42209e-05
-6.27512e-05
1.64429e-05
-3.0224e-05
2.48157e-05
-3.80784e-06
1.11106e-05
4.62783e-06
1.33883e-05
-2.44812e-06
3.89969e-05
-8.60751e-06
4.90639e-05
4.15419e-05
-2.86957e-05
3.9978e-05
-0.000115288
-4.39415e-05
-0.000204409
-0.000147115
-0.000247509
-0.000241671
-0.000223309
-0.000267072
-0.000212923
-0.000229491
-0.000226525
-0.000206144
-0.000241998
-0.000180573
-0.000291187
-0.000181764
-0.000300727
-0.000212113
-0.000232336
-0.00020249
-0.000150883
-0.000115674
-9.87288e-05
-3.57112e-05
-6.85181e-05
-5.39499e-06
-5.76088e-05
2.01162e-07
-5.64566e-05
1.22361e-05
-4.64525e-05
2.89929e-05
-2.8942e-05
3.15534e-05
1.25999e-05
4.88531e-05
2.07657e-05
1.08317e-05
-5.92008e-06
-9.0267e-05
-4.6016e-05
-0.000175271
-0.000156667
-0.000207466
-0.000234878
-0.00020364
-0.000233317
-0.000195839
-0.000213945
-0.000206027
-0.000170386
-0.000241813
-0.000145977
-0.000299933
-0.000153993
-0.000324722
-0.000177702
-0.00026924
-0.000171156
-0.000202188
-0.000102763
-0.000158215
-4.93676e-05
-0.000134362
-2.36519e-05
-0.000109032
-1.30946e-05
-7.25122e-05
-7.52661e-06
-3.23925e-05
-8.56634e-06
-1.97926e-05
9.2528e-05
2.9578e-05
7.10776e-05
1.55304e-05
6.95063e-06
1.8111e-05
-0.000108799
-4.09171e-05
-0.000192379
-0.000151297
-0.000192273
-0.000233424
-0.000191442
-0.000214775
-0.000168397
-0.00019343
-0.00015254
-0.000161834
-0.000149651
-0.000156883
-0.000167525
-0.000159828
-0.000189803
-0.000148877
-0.000173655
-0.000118911
-0.000126627
-9.63955e-05
-8.65923e-05
-6.36869e-05
-6.01142e-05
-3.95727e-05
-3.92025e-05
-2.84383e-05
-1.81745e-05
-2.95944e-05
-3.79671e-05
0.000112385
4.91928e-05
9.2777e-05
3.51385e-05
7.07055e-05
4.01825e-05
-3.9253e-06
3.37137e-05
-0.000116393
-3.88292e-05
-0.000191058
-0.000158759
-0.000180812
-0.000225021
-0.000172522
-0.00020172
-0.000151388
-0.000182968
-0.000139929
-0.000168342
-0.000136602
-0.000163155
-0.000133907
-0.000151573
-0.000121124
-0.000131693
-0.000104809
-0.000112711
-7.95353e-05
-8.89604e-05
-5.3984e-05
-6.51241e-05
-3.34734e-05
-4.89489e-05
-1.5179e-05
-4.78888e-05
-5.31461e-05
0.000113686
6.41749e-05
9.94645e-05
4.93597e-05
8.76907e-05
5.19564e-05
6.87887e-05
5.26157e-05
-6.9689e-06
3.69285e-05
-0.000118387
-4.73416e-05
-0.000184085
-0.000159323
-0.000170161
-0.000215643
-0.000161843
-0.000191287
-0.000150347
-0.000179838
-0.000144482
-0.00016902
-0.000140121
-0.000155934
-0.000132843
-0.000138971
-0.000122285
-0.000123269
-0.000102422
-0.000108824
-7.73118e-05
-9.02343e-05
-5.03739e-05
-7.58867e-05
-2.20436e-05
-7.62191e-05
-7.51897e-05
0.000101646
6.96268e-05
9.57412e-05
5.52645e-05
9.37645e-05
5.39331e-05
9.18535e-05
5.45268e-05
8.03751e-05
4.84069e-05
-6.63553e-07
3.3697e-05
-0.000111603
-4.83836e-05
-0.000181304
-0.000145942
-0.000172108
-0.000200483
-0.000161129
-0.000190816
-0.000160709
-0.000169441
-0.000160558
-0.000156085
-0.000161139
-0.00013839
-0.000147028
-0.00013738
-0.000114914
-0.000140937
-8.64584e-05
-0.00011869
-6.12478e-05
-0.000101097
-4.41575e-05
-9.33094e-05
-0.000119347
9.00871e-05
8.97061e-05
9.33462e-05
9.90996e-05
0.000104988
0.000108192
5.27825e-05
-3.34814e-05
-0.000111932
-0.000153006
-0.000159232
-0.000156766
-0.00015091
-0.000153482
-0.000161119
-0.000150949
-0.000121784
-5.96176e-05
)
;

boundaryField
{
    leftWall
    {
        type            calculated;
        value           nonuniform 0();
    }
    rightWall
    {
        type            calculated;
        value           uniform 0;
    }
    lowerWall
    {
        type            calculated;
        value           nonuniform List<scalar> 
40
(
-2.23016e-25
0
0
0
0
0
0
0
0
-4.25138e-23
1.41658e-22
1.52643e-22
1.86307e-22
0
0
0
0
0
0
0
0
-6.59111e-23
4.53353e-22
1.3515e-22
-3.59851e-22
-8.84956e-23
5.06363e-23
3.12609e-22
-5.0194e-22
1.2188e-22
-9.63858e-23
2.43615e-22
2.63e-22
-3.45661e-22
7.04176e-23
6.70533e-23
5.68687e-24
2.17135e-24
4.34816e-22
-2.69939e-22
)
;
    }
    atmosphere
    {
        type            calculated;
        value           nonuniform 0();
    }
    defaultFaces
    {
        type            empty;
        value           nonuniform 0();
    }
    procBoundary1to0
    {
        type            processor;
        value           nonuniform List<scalar> 
26
(
3.47558e-06
2.07146e-06
7.45217e-07
1.20032e-06
2.25532e-06
3.47989e-06
3.46191e-06
2.72324e-06
5.26106e-06
-5.36831e-05
-3.76794e-05
6.98273e-05
0.000157054
0.000154062
0.000156156
0.00015574
0.000202755
0.000316328
0.000260391
0.000168491
4.70936e-05
-6.41378e-05
-0.000103614
-9.73811e-05
-8.04601e-05
-6.68199e-05
)
;
    }
    procBoundary1to3
    {
        type            processor;
        value           nonuniform List<scalar> 
23
(
4.08644e-05
3.8353e-05
3.59328e-05
3.28674e-05
6.75704e-05
5.56455e-05
5.02929e-05
4.87734e-05
4.25183e-05
3.04931e-05
7.02582e-06
-5.96784e-05
-0.000122032
-0.000149742
-0.000163215
-0.000158551
-0.000144245
-0.000134808
-0.0001333
-0.00012886
-0.000130263
-0.000155476
-0.000178965
)
;
    }
}


// ************************************************************************* //
