/*--------------------------------*- C++ -*----------------------------------*\
| =========                 |                                                 |
| \\      /  F ield         | OpenFOAM: The Open Source CFD Toolbox           |
|  \\    /   O peration     | Version:  2.4.0                                 |
|   \\  /    A nd           | Web:      www.OpenFOAM.org                      |
|    \\/     M anipulation  |                                                 |
\*---------------------------------------------------------------------------*/
FoamFile
{
    version     2.0;
    format      ascii;
    class       surfaceScalarField;
    location    "0.75";
    object      phi.oil;
}
// * * * * * * * * * * * * * * * * * * * * * * * * * * * * * * * * * * * * * //

dimensions      [0 3 -1 0 0 0 0];

internalField   nonuniform List<scalar> 
1061
(
-1.46403e-06
-3.33743e-06
-4.13505e-06
-5.28797e-06
-7.46534e-06
-1.15695e-05
-1.39958e-05
1.68524e-05
-7.70114e-06
5.78167e-05
2.30875e-06
3.54873e-05
2.1185e-05
2.96766e-05
3.39831e-05
3.22445e-05
3.99902e-05
3.61991e-05
4.35625e-05
3.89939e-05
4.64254e-05
4.01247e-05
5.01854e-05
3.97379e-05
5.45562e-05
3.89344e-05
5.88357e-05
3.89834e-05
6.19745e-05
4.04358e-05
6.38276e-05
4.30629e-05
6.24313e-05
4.8146e-05
5.53075e-05
5.44875e-05
3.95855e-05
6.51177e-05
1.79946e-05
7.15779e-05
2.86224e-06
7.04448e-05
-3.21418e-06
5.89141e-05
3.94415e-05
3.29365e-06
2.95152e-05
2.5123e-05
-1.21954e-05
4.19045e-05
-1.53902e-06
4.86803e-05
1.1324e-05
5.05059e-05
2.19459e-05
5.18728e-05
2.47735e-05
5.34555e-05
2.305e-05
5.49294e-05
2.08226e-05
5.71056e-05
1.89759e-05
5.99024e-05
1.82102e-05
6.19378e-05
1.91052e-05
6.20954e-05
2.44135e-05
6.15364e-05
2.50887e-05
5.82575e-05
2.85809e-05
4.37509e-05
4.37911e-05
2.5544e-05
6.24211e-05
1.39391e-05
6.26454e-05
-1.7173e-06
4.69031e-05
2.0033e-05
1.6983e-05
2.99453e-05
4.01487e-05
-4.37665e-05
6.16905e-05
-3.24529e-05
7.09838e-05
-1.07683e-05
7.15076e-05
4.49566e-08
7.16839e-05
2.71556e-06
6.9472e-05
4.33222e-06
6.63448e-05
4.76342e-06
6.12136e-05
5.0696e-06
5.52301e-05
5.621e-06
4.91322e-05
6.66881e-06
3.98769e-05
1.20722e-05
3.34024e-05
1.20306e-05
3.00616e-05
1.34492e-05
2.25881e-05
4.27731e-05
2.05914e-05
7.12908e-05
1.16737e-05
8.85347e-05
4.95111e-07
8.07568e-05
3.13017e-05
3.59727e-05
-1.93929e-05
4.49565e-05
-5.08289e-05
5.08569e-05
-3.39716e-05
5.46484e-05
-1.30223e-05
6.04492e-05
-6.01264e-06
6.38466e-05
6.69835e-07
6.46779e-05
9.1587e-06
6.3355e-05
1.38438e-05
6.03388e-05
1.52213e-05
5.40959e-05
1.39764e-05
4.85111e-05
1.85724e-05
4.13555e-05
2.49249e-05
3.21091e-05
2.22455e-05
1.61876e-05
2.48279e-05
-1.73867e-06
3.96817e-05
7.64984e-06
4.40023e-05
1.0579e-05
8.67559e-05
3.62943e-06
8.91964e-05
2.64013e-05
2.92236e-05
-4.23789e-05
3.86441e-05
-5.33927e-05
4.0301e-05
-3.65808e-05
4.41309e-05
-1.95801e-05
4.88498e-05
-8.30786e-06
5.0448e-05
2.84774e-06
5.11643e-05
7.68598e-06
5.26871e-05
9.02263e-06
5.35222e-05
9.61741e-06
5.37541e-05
1.16744e-05
4.88707e-05
1.7772e-05
4.08556e-05
2.93991e-05
2.72411e-05
3.67522e-05
5.5769e-06
4.77007e-05
-1.4629e-05
5.70712e-05
-1.58547e-05
3.06201e-05
6.4978e-06
6.13893e-05
6.52765e-06
8.66005e-05
3.93982e-05
2.03596e-05
-6.16651e-05
3.00975e-05
-5.91436e-05
2.91589e-05
-3.823e-05
3.26107e-05
-2.50858e-05
3.87271e-05
-1.61927e-05
4.21667e-05
-3.5891e-06
4.3631e-05
5.39015e-06
4.34256e-05
7.85435e-06
4.3138e-05
8.69804e-06
4.42357e-05
1.13342e-05
4.43353e-05
1.89397e-05
3.94703e-05
3.51664e-05
2.63561e-05
5.25891e-05
6.73702e-06
6.9682e-05
-1.46659e-05
7.82409e-05
-1.95521e-05
2.85771e-05
6.62109e-08
4.77719e-05
6.56317e-06
7.92007e-05
4.45243e-05
1.83403e-05
-8.93358e-05
2.24879e-05
-6.47798e-05
1.95092e-05
-3.94444e-05
2.31881e-05
-3.09041e-05
3.02083e-05
-2.56784e-05
3.53691e-05
-1.11738e-05
3.8148e-05
4.33003e-07
3.86284e-05
8.75308e-06
3.78202e-05
1.42721e-05
3.78509e-05
1.67827e-05
3.88127e-05
2.20396e-05
3.71735e-05
3.76158e-05
2.71315e-05
6.35109e-05
9.81896e-06
8.94166e-05
-1.3118e-05
0.000102444
-2.42132e-05
3.75433e-05
-1.16539e-05
3.98076e-05
6.02533e-06
6.19755e-05
3.55582e-05
1.49374e-05
-0.000119683
1.0408e-05
-8.16303e-05
5.14743e-06
-4.28101e-05
1.07908e-05
-3.94183e-05
2.24368e-05
-4.12215e-05
3.22565e-05
-2.53845e-05
3.65081e-05
-6.68255e-06
3.74606e-05
6.11769e-06
3.52721e-05
1.43143e-05
3.1664e-05
1.72304e-05
3.02502e-05
2.19946e-05
3.1588e-05
3.63078e-05
2.66695e-05
6.82061e-05
1.32953e-05
0.0001043
-7.74383e-06
0.000124621
-2.60642e-05
5.07994e-05
-2.11934e-05
3.41681e-05
-2.66386e-06
3.70568e-05
2.40418e-05
4.70018e-06
-1.73681e-05
-8.10912e-06
5.49346e-05
-2.23821e-06
2.50085e-05
5.59172e-05
-0.000140577
6.1834e-05
-0.000165664
3.36983e-05
-0.000156688
9.20983e-06
-0.000173177
-0.000173517
4.68296e-06
-7.74418e-06
1.82734e-05
-3.45895e-06
3.42635e-05
-6.04635e-06
-1.05439e-05
5.04563e-05
3.97811e-05
-3.32608e-07
2.53961e-05
4.3123e-06
8.82812e-06
3.9741e-06
3.05686e-06
-1.01529e-05
5.98568e-06
1.619e-05
-1.27055e-05
2.36589e-05
-3.56324e-05
2.78374e-05
3.60986e-05
-6.35412e-05
-0.000169888
3.85283e-05
-0.000195713
4.1325e-05
-0.000216488
4.38976e-05
5.20741e-05
-0.000232122
-0.000169049
3.30173e-05
-0.000189677
3.18296e-05
-0.000227583
3.20406e-05
2.77497e-05
-0.000249413
-0.000177572
1.49093e-05
-0.000214088
1.06901e-05
-0.000241455
1.23681e-05
5.2787e-08
-0.000256732
-0.000196142
1.13418e-05
-0.000212944
4.37334e-06
-0.00022162
7.68338e-06
-1.07132e-08
-0.000212735
-0.000193086
2.31233e-05
-0.000204329
5.42316e-05
-0.000233734
4.71736e-05
2.98166e-05
-0.000192667
-0.000190869
7.30482e-05
-0.000285876
0.000160264
-0.000245175
0.000117734
7.63749e-05
-0.000135873
-0.000245076
0.000142923
-0.000217282
0.000134855
-0.000171532
0.00010183
6.5364e-05
-0.000107689
-0.000156772
0.000119679
-0.000114731
9.786e-05
-7.70547e-05
7.43322e-05
4.73411e-05
-4.75167e-05
-2.98723e-05
0.000104759
-8.69818e-06
8.48935e-05
1.16793e-05
6.38551e-05
3.85938e-05
2.72412e-05
7.9384e-05
8.76172e-05
8.90122e-05
7.35493e-05
9.82797e-05
5.73583e-05
3.76005e-05
0.000100642
0.000116814
7.28339e-05
0.000127742
6.33156e-05
0.000132372
5.17833e-05
3.92848e-05
0.000131679
0.000110638
5.91495e-05
0.000121421
5.19516e-05
0.000127681
4.62487e-05
3.85459e-05
0.000128452
9.10181e-05
4.8463e-05
9.88297e-05
4.42539e-05
0.000104442
4.06281e-05
3.593e-05
0.000107026
7.43476e-05
8.02335e-05
8.49156e-05
8.79928e-05
1.38117e-05
-8.5325e-05
-4.70203e-05
-5.72479e-05
-8.71152e-05
-3.56402e-05
-5.76223e-05
-7.35297e-05
-1.34443e-05
-8.79681e-05
3.24676e-05
-7.70172e-05
6.24739e-05
-4.53997e-05
7.17546e-05
-1.25489e-05
6.36829e-05
1.51284e-05
5.40622e-05
2.68485e-05
5.06446e-05
2.60597e-05
5.16682e-05
3.42762e-05
5.32518e-05
6.60167e-05
5.2312e-05
0.000106784
4.32942e-05
0.000134973
-8.00952e-06
9.35164e-05
-3.61516e-05
4.92972e-05
-3.43033e-05
2.01402e-05
-1.36911e-05
-0.000119148
1.54387e-05
-0.000186384
2.44574e-06
-0.00016816
-6.41949e-05
-0.000128973
-0.000120909
-7.91653e-05
-0.000139959
-3.00899e-05
-0.000129933
2.00811e-05
-0.000100646
5.8316e-05
-6.37473e-05
6.51792e-05
-6.2018e-06
4.16624e-05
2.84282e-05
2.89224e-05
3.29935e-05
2.49511e-05
3.64682e-05
3.52854e-05
5.54421e-05
4.92979e-05
9.36746e-05
5.2334e-05
0.000132994
2.91646e-05
0.000113807
-7.00408e-06
7.97461e-05
-1.76492e-05
2.67749e-05
-3.23446e-05
-0.000171437
0.000123378
-0.00019045
4.208e-05
-0.00017589
-7.85613e-05
-0.000137972
-0.000161651
-9.97575e-05
-0.000178505
-6.46309e-05
-0.000165531
-3.10877e-05
-0.000138261
1.0733e-05
-0.000108895
5.32559e-05
-5.20371e-05
5.07447e-05
2.75208e-05
2.90351e-05
4.55755e-05
1.56004e-05
4.75841e-05
2.14179e-05
5.07893e-05
3.70495e-05
7.91028e-05
4.13864e-05
0.000128813
3.31303e-05
0.000122319
1.32606e-05
9.91483e-05
5.90358e-07
3.90531e-05
-3.091e-05
-0.000230373
0.000126849
-0.000206743
2.93765e-05
-0.000177464
-0.00012627
-0.000136404
-0.000205639
-9.80902e-05
-0.000215638
-7.32489e-05
-0.000189969
-5.66388e-05
-0.000155526
-3.35455e-05
-0.000125067
9.83974e-06
-8.72848e-05
5.12783e-05
-9.89499e-06
2.91835e-05
6.1541e-05
9.30026e-06
6.36332e-05
1.11519e-05
4.85277e-05
1.65858e-05
7.524e-05
1.51788e-05
0.000130489
1.67594e-05
0.000121431
1.24194e-05
0.000103965
6.74726e-06
4.50702e-05
-2.30781e-05
-0.000272986
4.09002e-05
-0.000258728
-0.000120317
-0.00018615
-0.000234924
-0.00012939
-0.000259922
-9.97661e-05
-0.000245818
-7.91987e-05
-0.000226418
-6.71086e-05
-0.000215556
-6.06498e-05
-0.000192538
-5.19942e-05
-0.000145697
-4.38126e-06
-7.71867e-05
1.96607e-05
3.05363e-05
9.41312e-07
7.61038e-05
-2.08164e-06
4.89217e-05
-2.96434e-06
6.94607e-05
-1.22806e-05
0.000134638
-8.02815e-06
0.000111757
4.71069e-06
9.32542e-05
1.01056e-05
4.0618e-05
-1.13992e-05
-0.000256312
-0.000144463
-0.00021053
-0.000294398
-0.000172818
-0.000308918
-0.000144364
-0.000296592
-0.000124586
-0.000284754
-0.000117669
-0.000292705
-0.000110485
-0.000334772
-9.32167e-05
-0.00027074
-6.72403e-05
-0.00019798
-4.19758e-05
-0.000124146
-1.61006e-05
-2.1952e-05
-1.47509e-05
6.3709e-05
-2.09284e-05
5.78085e-05
-2.52146e-05
7.76514e-05
-2.51658e-05
0.000122735
-1.59382e-05
9.00808e-05
5.35241e-06
6.15717e-05
1.18134e-05
3.48984e-05
2.99332e-06
-0.000185032
-0.000283873
-0.000171669
-0.000308179
-0.000176431
-0.000302259
-0.000175247
-0.000308261
-0.000187128
-0.000300635
-0.000223775
-0.000326883
-0.000204125
-0.000321457
-0.000122083
-0.000213871
-6.69295e-05
-0.000159479
-4.28941e-05
-0.000112604
-2.46601e-05
-4.02523e-05
-3.02114e-05
4.0045e-05
-3.98294e-05
7.90209e-05
-3.46937e-05
8.42936e-05
-2.1386e-05
0.000103356
3.18432e-07
6.32426e-05
1.65706e-05
3.69742e-05
1.46737e-05
3.24471e-05
2.1676e-05
-0.000158842
-0.000260866
-0.00017082
-0.000301486
-0.000189841
-0.0002959
-0.000201767
-0.000294444
-0.000207073
-0.00028805
-0.000204877
-0.000301515
-0.000154466
-0.000209286
-8.79656e-05
-0.000121709
-4.39579e-05
-0.000114939
-3.07567e-05
-0.000104677
-3.48368e-05
-3.27183e-05
-5.08028e-05
2.20332e-05
-5.12635e-05
7.77439e-05
-3.39379e-05
7.83939e-05
-3.93717e-06
7.25282e-05
2.01752e-05
4.15649e-05
2.36683e-05
3.37795e-05
1.7214e-05
3.77969e-05
4.21466e-05
-0.000180494
-0.00017612
-0.000202142
-0.000295247
-0.000204976
-0.000306601
-0.000211431
-0.00028561
-0.000212153
-0.00026361
-0.000190201
-0.000265102
-0.000128788
-0.000199493
-7.84453e-05
-0.000130238
-5.48556e-05
-0.000133531
-3.96751e-05
-0.000110205
-3.55622e-05
-3.12424e-05
-4.83193e-05
1.04887e-05
-5.49226e-05
5.26237e-05
-3.43648e-05
5.9065e-05
1.44411e-06
3.92616e-05
2.09987e-05
2.55211e-05
2.02116e-05
3.61602e-05
1.09371e-05
4.73038e-05
5.50692e-05
-0.000164593
-1.71702e-05
-0.000209051
-0.000178153
-0.000213845
-0.000298232
-0.000207591
-0.000284612
-0.000210153
-0.000261276
-0.000195323
-0.000239125
-0.000147717
-0.000220048
-0.000106232
-0.000158907
-9.03047e-05
-0.000162787
-7.44604e-05
-0.000131017
-6.98199e-05
-5.67221e-05
-6.92264e-05
-2.93191e-05
-6.27789e-05
1.70791e-05
-3.28087e-05
2.56578e-05
-4.5045e-06
5.23038e-06
3.60502e-06
2.85094e-06
-4.53909e-06
4.27384e-05
-1.12256e-05
5.25397e-05
4.4682e-05
-3.01474e-05
4.49877e-05
-0.00011925
-4.1972e-05
-0.000201847
-0.000235289
-0.000204142
-0.000258875
-0.000198447
-0.0002604
-0.000194865
-0.000239685
-0.000175431
-0.000218985
-0.000148435
-0.000184771
-0.000130376
-0.000177669
-0.000115942
-0.000170672
-0.000121336
-0.000135181
-0.00011287
-0.000104135
-9.33155e-05
-3.65446e-05
-6.48387e-05
-4.23849e-06
-4.95549e-05
-8.04825e-06
-4.2394e-05
9.68731e-07
-4.92127e-05
2.74676e-05
-3.21079e-05
3.57661e-05
1.55216e-05
4.98654e-05
2.37248e-05
-6.48931e-05
-1.98175e-06
-0.00015073
-0.000108934
-0.00018118
-0.00022241
-0.000187261
-0.000237066
-0.000194066
-0.00023909
-0.000180967
-0.000219937
-0.000168185
-0.000190959
-0.000155549
-0.000182118
-0.000152767
-0.000183608
-0.000174358
-0.000184933
-0.000188996
-0.00016457
-0.000170344
-0.000111649
-0.000122684
-5.54712e-05
-8.21028e-05
-3.37566e-05
-6.62482e-05
-2.55619e-05
-6.04402e-05
-1.62567e-05
-3.5519e-05
-7.04096e-06
-1.51585e-05
9.27479e-05
2.97892e-05
6.90103e-05
1.53124e-05
-8.18655e-05
1.8049e-05
-0.000164183
-0.000153086
-0.000180697
-0.000217935
-0.000180864
-0.000227186
-0.000186623
-0.000222626
-0.000164952
-0.000198596
-0.000149389
-0.000176614
-0.000141667
-0.00017533
-0.000142888
-0.000176944
-0.00015086
-0.000165421
-0.000149151
-0.000139296
-0.000122997
-0.000105612
-8.69579e-05
-7.0892e-05
-5.96563e-05
-5.26557e-05
-3.91544e-05
-4.15758e-05
-1.93445e-05
-2.99912e-05
-3.23319e-05
0.000112008
4.89519e-05
8.92567e-05
3.47492e-05
2.40039e-05
4.03462e-05
-0.000114404
-5.14228e-06
-0.000168641
-0.00017857
-0.00017548
-0.000215762
-0.000174576
-0.000223269
-0.000171167
-0.000211807
-0.000150316
-0.000188328
-0.000139293
-0.000175067
-0.000135421
-0.000170972
-0.000132618
-0.000161818
-0.000120825
-0.000141918
-0.000105401
-0.000116878
-8.0608e-05
-8.88224e-05
-5.52213e-05
-6.36455e-05
-3.41287e-05
-4.6204e-05
-1.59625e-05
-4.58258e-05
-4.96457e-05
0.000113201
6.39138e-05
9.50383e-05
4.91348e-05
8.4008e-05
5.148e-05
-3.95744e-06
5.11027e-05
-0.00011904
-6.31986e-05
-0.000157781
-0.000178458
-0.000165648
-0.000207309
-0.000166675
-0.00022168
-0.000161764
-0.000213706
-0.000149943
-0.000197823
-0.000143285
-0.000192769
-0.000139041
-0.000189742
-0.000132254
-0.000178059
-0.000121896
-0.00015977
-0.000102519
-0.00013415
-7.78067e-05
-0.000106982
-5.0913e-05
-8.87119e-05
-2.23184e-05
-9.07536e-05
-9.3716e-05
0.000101325
6.95661e-05
9.3129e-05
5.50951e-05
8.9883e-05
5.34087e-05
9.06737e-05
5.09928e-05
-3.65869e-05
4.78799e-05
-0.000130728
-8.19514e-05
-0.000153285
-0.000171893
-0.000162572
-0.000254779
-0.000163072
-0.000290883
-0.000160407
-0.000288252
-0.000158994
-0.000282353
-0.000155726
-0.00031592
-0.000146272
-0.000322109
-0.000129781
-0.000298005
-0.000105764
-0.000268987
-8.03066e-05
-0.000232042
-5.47699e-05
-0.00023763
-3.51933e-05
-0.000301165
-0.000461598
9.00149e-05
8.89607e-05
9.31131e-05
9.83437e-05
9.21519e-05
4.10337e-05
-4.91123e-05
-0.000166369
-0.00022331
-0.000240431
-0.000253992
-0.000242883
-0.000199274
-0.000154054
-0.000117174
-8.57581e-05
-6.59033e-05
-0.000116661
)
;

boundaryField
{
    leftWall
    {
        type            fixedValue;
        value           nonuniform 0();
    }
    rightWall
    {
        type            fixedValue;
        value           uniform 0;
    }
    lowerWall
    {
        type            fixedValue;
        value           uniform 0;
    }
    atmosphere
    {
        type            calculated;
        value           nonuniform 0();
    }
    defaultFaces
    {
        type            empty;
        value           nonuniform 0();
    }
    procBoundary1to0
    {
        type            processor;
        value           nonuniform List<scalar> 
26
(
3.47556e-06
2.06751e-06
7.38272e-07
1.19627e-06
2.25684e-06
3.49468e-06
3.49224e-06
2.53776e-06
9.27856e-06
-5.26928e-05
-3.50794e-05
7.47921e-05
0.000154807
0.000149699
0.000150478
0.000151687
7.19738e-06
0.000171962
0.000247624
0.000184286
5.55692e-05
-6.20418e-05
-0.000101663
-9.66823e-05
-8.02273e-05
-6.67713e-05
)
;
    }
    procBoundary1to3
    {
        type            processor;
        value           nonuniform List<scalar> 
23
(
4.08585e-05
3.83389e-05
3.5918e-05
3.28455e-05
6.75025e-05
5.55462e-05
4.99836e-05
4.85604e-05
4.2017e-05
2.07419e-05
-8.07978e-05
-0.00015837
-0.000195072
-0.000194531
-0.000192415
-0.000226156
-0.000250217
-0.000238053
-0.000220541
-0.000208795
-0.000326886
-0.000623784
-0.000800476
)
;
    }
}


// ************************************************************************* //
