/*--------------------------------*- C++ -*----------------------------------*\
| =========                 |                                                 |
| \\      /  F ield         | OpenFOAM: The Open Source CFD Toolbox           |
|  \\    /   O peration     | Version:  2.4.0                                 |
|   \\  /    A nd           | Web:      www.OpenFOAM.org                      |
|    \\/     M anipulation  |                                                 |
\*---------------------------------------------------------------------------*/
FoamFile
{
    version     2.0;
    format      ascii;
    class       surfaceScalarField;
    location    "0.75";
    object      phi.air;
}
// * * * * * * * * * * * * * * * * * * * * * * * * * * * * * * * * * * * * * //

dimensions      [0 3 -1 0 0 0 0];

internalField   nonuniform List<scalar> 
1061
(
-3.47559e-06
-5.54708e-06
-6.2923e-06
-7.49266e-06
-9.74792e-06
-1.30525e-05
-1.70369e-05
-2.66018e-05
-9.65182e-06
8.75608e-06
2.38236e-06
-1.10819e-05
1.8603e-05
-8.22239e-06
3.07508e-05
-8.14445e-06
3.81265e-05
1.1031e-05
4.25814e-05
1.95635e-05
4.61365e-05
1.86089e-05
4.98476e-05
3.21904e-06
5.41698e-05
1.14488e-06
5.87566e-05
3.96448e-06
6.25496e-05
6.27738e-06
6.48404e-05
9.3684e-06
6.42457e-05
5.3747e-06
5.93602e-05
1.14192e-05
4.47477e-05
3.07596e-05
2.32525e-05
4.49091e-05
4.86238e-06
3.23772e-05
-3.99335e-06
1.24657e-05
1.51636e-06
6.04311e-07
6.26522e-06
2.57782e-05
-4.24397e-05
4.02438e-05
-2.65139e-05
4.68252e-05
4.08097e-05
4.99096e-05
7.15244e-05
5.1563e-05
6.61266e-05
5.31675e-05
6.16317e-05
5.46991e-05
5.54132e-05
5.69926e-05
1.27595e-05
5.9742e-05
-8.43397e-06
6.17861e-05
1.76669e-05
6.23651e-05
1.36043e-05
6.24416e-05
1.56967e-05
6.02136e-05
1.50964e-06
4.76977e-05
2.19332e-05
3.13633e-05
4.26578e-05
1.63802e-05
4.04287e-05
-1.3767e-06
2.70067e-05
-2.87279e-06
1.19588e-05
-6.21768e-06
3.80862e-05
-7.89626e-05
6.89493e-05
-9.5323e-05
8.62631e-05
-0.000110974
8.38308e-05
-0.000175895
8.10454e-05
-0.000162695
7.50954e-05
-0.00015447
6.78052e-05
-0.000114573
6.07465e-05
-5.21459e-05
5.35465e-05
-3.14216e-05
4.35967e-05
-4.46976e-05
3.21686e-05
-3.87097e-05
3.24728e-05
-3.47739e-05
3.60005e-05
-5.4569e-05
3.55937e-05
-2.16333e-05
3.01795e-05
3.55615e-05
1.60644e-05
5.40095e-05
3.70203e-07
4.51011e-05
1.31759e-08
3.59439e-05
-7.64015e-05
4.03909e-05
-0.000108359
4.42796e-05
-0.00010855
5.70616e-05
-6.00498e-05
7.61882e-05
8.76916e-05
7.73329e-05
0.000148803
7.19124e-05
0.00015504
6.26142e-05
0.000117854
5.98775e-05
0.000130102
5.4422e-05
0.000136841
4.9331e-05
0.000148089
4.24799e-05
0.000102238
3.22719e-05
1.95726e-05
2.2841e-05
1.49431e-05
1.21104e-05
-2.01123e-05
1.79995e-05
2.20101e-05
1.44307e-05
6.22326e-05
3.60239e-06
5.60458e-05
3.39587e-06
2.92209e-05
-0.000112162
3.45901e-05
-0.000120116
3.75877e-05
-0.000103075
4.25456e-05
-5.05056e-05
4.76796e-05
-1.6269e-05
5.12318e-05
-1.02254e-05
5.3794e-05
1.2347e-05
5.41923e-05
3.46049e-05
5.17008e-05
3.95359e-05
4.98584e-05
4.4859e-05
4.06668e-05
5.80553e-05
3.25514e-05
8.21592e-05
3.00687e-05
4.8977e-05
8.44978e-06
4.06716e-05
-7.40155e-06
2.03893e-05
-4.89238e-06
2.15551e-05
9.35389e-06
4.43605e-05
7.49618e-06
5.84258e-05
1.23736e-05
2.47135e-05
-0.000121814
3.00186e-05
-0.000118084
2.9313e-05
-9.46779e-05
3.24717e-05
-4.22074e-05
3.83361e-05
-1.9162e-05
4.70302e-05
-6.46533e-06
5.09744e-05
6.88504e-05
4.72682e-05
7.75891e-05
4.16325e-05
7.89491e-05
3.86523e-05
8.03742e-05
3.42227e-05
9.29087e-05
2.7785e-05
0.000110677
2.43881e-05
0.000126083
8.50637e-06
6.20392e-05
-1.23786e-05
4.36248e-05
-1.6169e-05
2.74161e-05
2.54632e-06
2.8279e-05
6.55892e-06
5.37427e-05
-2.0857e-08
2.21484e-05
-1.17288e-05
2.85274e-05
1.48847e-05
2.11066e-05
3.10463e-05
2.39957e-05
2.21425e-05
3.06777e-05
-2.70875e-05
4.29968e-05
-1.52191e-05
4.40556e-05
5.31152e-05
4.07849e-05
6.51823e-05
3.715e-05
7.55708e-05
3.51884e-05
8.02342e-05
3.24689e-05
8.20176e-05
2.81159e-05
0.000107296
1.58615e-05
0.000158756
9.87798e-06
8.40188e-05
-1.52676e-05
6.19167e-05
-2.42094e-05
3.81038e-05
-1.1115e-05
3.00078e-05
2.80302e-06
3.48467e-05
-3.20357e-05
-2.97571e-06
-7.60408e-05
8.82901e-06
3.57077e-05
3.57057e-06
5.20338e-05
3.0687e-05
3.3192e-05
2.43055e-05
7.57435e-07
3.6547e-05
3.8777e-05
3.92063e-05
6.5399e-05
3.7662e-05
3.3145e-05
3.40464e-05
1.60475e-05
2.76369e-05
6.51605e-05
2.34124e-05
8.08673e-05
2.13475e-05
0.000105531
1.63617e-05
0.00014921
1.35305e-05
0.000100081
-8.20775e-06
8.29998e-05
-2.71406e-05
2.20233e-05
-2.11447e-05
4.07423e-05
-3.2579e-06
5.50957e-05
-2.01696e-05
-3.86064e-05
-4.94524e-06
2.39911e-05
5.68892e-05
1.59196e-05
1.73851e-05
0.00011722
-0.00012361
0.000118378
-0.000200573
0.000133574
-0.000133651
9.87259e-05
-0.000167827
-0.000285018
9.74072e-06
-2.82451e-05
2.2885e-05
-2.61154e-05
3.80381e-05
-2.96975e-05
-3.03442e-05
0.000100293
4.2855e-05
9.95885e-07
3.04472e-05
2.89439e-07
1.72225e-05
-5.10252e-07
2.69454e-05
-6.41929e-05
7.14931e-06
5.80962e-05
-3.28333e-06
8.7324e-05
-0.000105644
0.000101531
0.000111803
-0.000125611
-0.000159721
5.62945e-05
-0.000206222
5.53092e-05
-0.000257576
6.5222e-05
9.2675e-05
-0.000310497
-0.000161329
8.03014e-05
-0.000155987
0.000116062
-0.000206824
0.000144161
0.000141497
-0.000270902
-0.000137738
8.00985e-05
-0.000194621
0.000124942
-0.000268806
0.000162874
0.00018049
-0.000350169
-0.000225842
0.000109978
-0.00030965
0.00018399
-0.00037712
0.000214315
0.000194585
-0.000404134
-0.000353565
0.000173773
-0.000371886
0.00020001
-0.000364274
0.00020594
0.000171566
-0.000341777
-0.000324346
0.000181499
-0.000311153
0.000186805
-0.0002696
0.000164385
0.000114711
-0.000212764
-0.000238896
0.000160002
-0.00019806
0.000145969
-0.000150048
0.000116372
7.58006e-05
-0.000111138
-0.000138421
0.000129933
-9.84096e-05
0.000105958
-6.42551e-05
8.22178e-05
5.13683e-05
-3.98228e-05
-2.26218e-05
0.000105461
-1.50212e-06
8.4838e-05
1.66606e-05
6.40551e-05
3.8388e-05
2.96409e-05
8.16275e-05
8.79712e-05
9.28168e-05
7.36487e-05
0.000100198
5.6674e-05
3.72456e-05
0.00010134
0.000118738
7.28466e-05
0.000129291
6.3096e-05
0.000133963
5.20016e-05
3.92091e-05
0.000132
0.000111146
5.90816e-05
0.000122226
5.20157e-05
0.000128012
4.62163e-05
3.85529e-05
0.000128668
9.11151e-05
4.84268e-05
9.89026e-05
4.42282e-05
0.00010449
4.06286e-05
3.59452e-05
0.000107098
7.43824e-05
8.02576e-05
8.49533e-05
8.8031e-05
-5.32651e-05
-5.38674e-05
-8.32833e-05
5.1623e-05
-0.000111549
6.92774e-05
-2.77693e-07
3.03071e-06
4.65447e-05
-2.40205e-05
8.52461e-05
-9.72449e-06
0.00010548
3.82779e-05
8.20366e-05
8.78435e-05
6.26744e-05
0.00013683
4.58069e-05
0.000118656
3.97167e-05
9.58635e-05
3.16146e-05
0.000106914
4.29662e-05
0.000116342
5.29415e-05
9.81792e-05
3.42666e-05
0.000120836
-2.33767e-05
3.22271e-05
-1.76332e-05
1.15586e-05
-8.58697e-05
-3.1631e-06
3.1864e-05
-0.000156688
0.000129399
-0.000239708
0.000147972
-0.000197613
2.63538e-05
-8.56535e-05
-3.51896e-05
-2.90453e-05
-5.89974e-05
2.41937e-05
-4.88702e-05
7.04368e-05
-2.07817e-05
9.11558e-05
2.53102e-05
6.86186e-05
8.42426e-05
1.82456e-05
0.000147957
1.15622e-05
0.000124637
5.58991e-06
0.000103861
2.56348e-05
7.8949e-05
4.96444e-05
8.23876e-05
5.03541e-05
0.000123681
2.46874e-05
9.21066e-05
6.90348e-06
4.59129e-05
-5.71622e-05
7.84523e-05
8.52493e-06
-0.000235787
0.000314372
-0.00024214
0.000185265
-0.000170866
-3.43241e-06
-9.75575e-05
-6.43397e-05
-5.69236e-05
-8.15003e-05
-1.97372e-05
-6.92847e-05
1.76835e-05
-3.65002e-05
4.44258e-05
8.79025e-06
7.17802e-05
6.75309e-05
2.93486e-05
0.000134731
-7.64006e-06
0.000140923
-4.38667e-06
0.000123377
1.99606e-05
4.8367e-05
3.69702e-05
6.64815e-05
4.18376e-05
0.000116239
3.13659e-05
0.000118763
2.68189e-05
7.24862e-05
-3.16201e-05
6.60998e-05
-1.22232e-05
-0.000308737
0.000278996
-0.000252452
0.000146554
-0.000145318
7.28111e-06
-9.68951e-05
-9.03269e-05
-6.04879e-05
-0.000112607
-3.67413e-05
-8.3048e-05
-3.64882e-05
-3.72006e-05
-1.65588e-05
-1.0105e-05
1.1532e-05
1.55372e-05
4.1824e-05
9.14913e-05
-1.63119e-05
0.000153195
-2.17438e-05
0.000144383
1.31758e-05
8.11911e-05
1.80758e-05
0.000131396
1.49647e-05
0.000143847
1.59962e-05
0.000150173
1.44052e-05
0.000101605
2.86096e-06
5.8835e-05
-1.8194e-05
-0.00036205
0.000320498
-0.000313916
0.000165763
-0.000172344
-6.58437e-05
-9.28883e-05
-0.000161263
-5.47552e-05
-0.000146323
-3.64663e-05
-0.000111361
-5.66082e-05
-6.97226e-05
-5.764e-05
-4.16286e-05
-6.31758e-05
-1.15239e-05
-2.87019e-05
2.87886e-05
-3.04246e-05
0.000100396
-5.75442e-05
0.000146138
-1.89151e-05
0.000112927
-5.12608e-05
0.000142289
-3.40164e-05
0.000212865
-2.46871e-05
0.000195647
3.50318e-06
0.000142761
8.584e-06
7.81897e-05
-9.59094e-06
-0.000452188
0.000322188
-0.000327742
-7.29441e-05
-0.000219718
-0.000202379
-0.000102461
-0.000192447
-8.13178e-05
-0.000180288
-7.39794e-05
-0.000182516
-6.9092e-05
-0.000145805
-8.52531e-05
-9.74641e-05
-8.64026e-05
-7.90865e-05
-8.23482e-05
-4.74014e-05
-6.93302e-05
4.47044e-05
-8.19018e-05
0.000109681
-6.68002e-05
9.07342e-05
-8.76948e-05
0.00010775
-6.27052e-05
0.000175321
-6.5014e-05
0.000155751
-1.41742e-05
0.000138411
2.67555e-08
8.5378e-05
-6.67986e-06
-0.000358745
0.000232157
-0.000220625
-0.000260655
-0.000238223
-0.000277385
-0.000156097
-0.000248629
-0.000129451
-0.000260363
-0.000138305
-0.000231104
-0.000165886
-0.00015526
-0.000151959
-0.000130193
-0.00011835
-0.000128598
-9.49086e-05
-0.000102273
-0.000112905
-2.20357e-05
-0.000108397
7.22282e-05
-0.000127359
0.000106736
-0.000119776
0.000117064
-8.28446e-05
0.000142541
-4.75617e-05
0.000109937
-1.99261e-05
7.65583e-05
-1.05525e-05
7.60408e-05
1.2148e-05
-0.000218483
0.000100902
-0.00020829
-0.000289832
-0.000231291
-0.000284632
-0.000262196
-0.000246207
-0.000237272
-0.000258176
-0.000243983
-0.000219906
-0.000235769
-0.000165386
-0.000189639
-0.000178795
-0.000134198
-0.000185405
-9.07056e-05
-0.000150569
-0.000115903
-3.71837e-05
-0.000142807
3.78432e-05
-0.000129487
0.000103192
-9.97583e-05
0.000110113
-4.69925e-05
0.000104818
-9.68732e-06
8.29941e-05
-1.13427e-06
7.34829e-05
-1.40921e-05
7.85259e-05
2.23039e-05
-0.00015992
4.73982e-05
-0.000229452
-0.000224733
-0.00025269
-0.000280797
-0.000291359
-0.000264543
-0.000313433
-0.000197034
-0.000267364
-0.000229055
-0.000244147
-0.00018572
-0.000211796
-0.00021178
-0.000172436
-0.000224847
-0.00013852
-0.000186824
-0.000128786
-7.32378e-05
-0.000173083
2.83928e-06
-0.000118059
4.69481e-05
-8.62374e-05
7.26608e-05
-2.21066e-05
8.13621e-05
-3.41207e-07
8.69744e-05
1.65582e-06
7.87881e-05
-1.88461e-05
7.46557e-05
2.41742e-05
-0.000114925
5.11067e-05
-0.000210171
-0.000130518
-0.000266654
-0.000235411
-0.000282882
-0.000284864
-0.000287295
-0.000218202
-0.000292748
-0.000185755
-0.00023726
-0.00021941
-0.000248264
-0.000197634
-0.000240872
-0.000232024
-0.000209025
-0.000223056
-0.000173357
-0.00014021
-0.000179995
-4.00079e-05
-0.000117196
1.89813e-05
-6.7126e-05
4.04344e-05
-9.55516e-06
6.65153e-05
-3.59211e-05
6.60544e-05
-2.51542e-05
8.29637e-05
-1.77047e-05
3.20397e-05
8.68019e-06
-2.86956e-05
3.9978e-05
-0.000115286
-4.39415e-05
-0.000204515
-0.000147058
-0.0002647
-0.000240999
-0.000267268
-0.000271044
-0.000249292
-0.000193477
-0.000249648
-0.000174086
-0.00024607
-0.000178813
-0.000293719
-0.000181953
-0.000308561
-0.000213751
-0.000275502
-0.000207992
-0.000225424
-0.000122549
-0.000148653
-2.68863e-05
-9.25992e-05
6.36248e-06
-7.49948e-05
1.5205e-05
-0.000107126
2.66664e-05
-8.27433e-05
5.49746e-05
-2.74635e-05
4.47262e-05
1.47271e-05
4.88532e-05
2.07658e-05
1.08336e-05
-5.92009e-06
-8.98936e-05
-4.60144e-05
-0.00017442
-0.000156219
-0.000228237
-0.000234493
-0.000247824
-0.000223036
-0.000223488
-0.000175191
-0.000220068
-0.00013003
-0.000249602
-0.000124092
-0.000311959
-0.00014106
-0.000358478
-0.000174067
-0.000334445
-0.00017495
-0.000251676
-8.77712e-05
-0.000187647
-2.86404e-05
-0.000155605
-6.07772e-06
-0.000143469
6.16768e-06
-0.000129566
2.09485e-05
-5.38709e-05
5.12831e-05
4.71083e-05
9.25282e-05
2.95781e-05
7.10776e-05
1.55304e-05
7.00282e-06
1.8111e-05
-0.000106832
-4.08514e-05
-0.000197011
-0.000148786
-0.000216264
-0.000236398
-0.000225114
-0.000189228
-0.000179157
-0.000151933
-0.000156974
-0.000109621
-0.000159512
-0.000106336
-0.000198459
-0.000110317
-0.000238563
-9.97225e-05
-0.000227119
-5.53627e-05
-0.000150203
-1.16369e-05
-9.48833e-05
3.8885e-05
-6.70498e-05
6.66721e-05
-4.52713e-05
7.22745e-05
-3.013e-05
5.05214e-05
2.63039e-05
0.000112385
4.91929e-05
9.27771e-05
3.51385e-05
7.07056e-05
4.01825e-05
-3.64483e-06
3.37138e-05
-0.000112293
-3.84744e-05
-0.000201489
-0.00015416
-0.000202753
-0.000226291
-0.000187064
-0.000170157
-0.000161622
-0.000148645
-0.000145517
-0.000121328
-0.000153413
-0.000111107
-0.000156561
-8.62128e-05
-0.000136927
-5.29581e-05
-0.000122636
-2.75203e-05
-9.36727e-05
7.45147e-07
-6.18098e-05
2.37609e-05
-3.38588e-05
3.65564e-05
-2.27023e-05
2.84058e-05
2.49809e-05
0.000113686
6.4175e-05
9.94647e-05
4.93598e-05
8.76907e-05
5.19564e-05
6.879e-05
5.26157e-05
-6.48032e-06
3.69302e-05
-0.00011472
-4.6765e-05
-0.000195642
-0.00015492
-0.000178799
-0.000212501
-0.000162752
-0.000167395
-0.000152244
-0.000157946
-0.000148941
-0.000144032
-0.000145021
-0.000123952
-0.000138464
-9.86778e-05
-0.00013474
-6.75485e-05
-0.000119721
-4.26702e-05
-9.43102e-05
-1.98099e-05
-6.57923e-05
-3.88875e-06
-2.93803e-05
-4.43545e-06
-7.57792e-06
0.000101646
6.9627e-05
9.57414e-05
5.52646e-05
9.37646e-05
5.39331e-05
9.18535e-05
5.45268e-05
8.03836e-05
4.84069e-05
-1.50097e-07
3.37054e-05
-0.000109771
-4.78956e-05
-0.000184383
-0.000141642
-0.00017478
-0.000189863
-0.000161177
-0.000175981
-0.000160997
-0.000155823
-0.000161561
-0.000140303
-0.000165819
-0.000118993
-0.000157514
-0.000110368
-0.000125378
-0.000102825
-9.69846e-05
-6.95007e-05
-7.30646e-05
-3.38028e-05
-5.66392e-05
-2.26908e-06
-7.69773e-06
9.00873e-05
8.97062e-05
9.33463e-05
9.90996e-05
0.000104988
0.000108197
5.2855e-05
-3.32358e-05
-0.000111644
-0.000152806
-0.000159111
-0.000156709
-0.000150863
-0.000153481
-0.00016157
-0.000152122
-0.000122743
-5.93345e-05
)
;

boundaryField
{
    leftWall
    {
        type            fixedValue;
        value           nonuniform 0();
    }
    rightWall
    {
        type            fixedValue;
        value           uniform 0;
    }
    lowerWall
    {
        type            fixedValue;
        value           uniform 0;
    }
    atmosphere
    {
        type            calculated;
        value           nonuniform 0();
    }
    defaultFaces
    {
        type            empty;
        value           nonuniform 0();
    }
    procBoundary1to0
    {
        type            processor;
        value           nonuniform List<scalar> 
26
(
3.47556e-06
2.07144e-06
7.45193e-07
1.20028e-06
2.25528e-06
3.47987e-06
3.4714e-06
2.53661e-06
4.65391e-07
-5.35988e-05
-4.02739e-05
0.000106796
0.000240917
0.000194294
0.00016106
0.000155883
0.000206473
0.000316352
0.00026039
0.000168491
4.70936e-05
-6.41378e-05
-0.000103614
-9.73812e-05
-8.04603e-05
-6.682e-05
)
;
    }
    procBoundary1to3
    {
        type            processor;
        value           nonuniform List<scalar> 
23
(
4.08645e-05
3.83531e-05
3.59329e-05
3.28675e-05
6.75706e-05
5.56456e-05
5.0293e-05
4.87734e-05
4.25184e-05
3.04931e-05
7.03224e-06
-5.96193e-05
-0.000121946
-0.000149682
-0.00016319
-0.000158527
-0.000144215
-0.000134741
-0.00013307
-0.000128287
-0.000128365
-0.000152933
-0.000178429
)
;
    }
}


// ************************************************************************* //
