/*--------------------------------*- C++ -*----------------------------------*\
| =========                 |                                                 |
| \\      /  F ield         | OpenFOAM: The Open Source CFD Toolbox           |
|  \\    /   O peration     | Version:  2.4.0                                 |
|   \\  /    A nd           | Web:      www.OpenFOAM.org                      |
|    \\/     M anipulation  |                                                 |
\*---------------------------------------------------------------------------*/
FoamFile
{
    version     2.0;
    format      ascii;
    class       surfaceScalarField;
    location    "0.75";
    object      phi.mercury;
}
// * * * * * * * * * * * * * * * * * * * * * * * * * * * * * * * * * * * * * //

dimensions      [0 3 -1 0 0 0 0];

internalField   nonuniform List<scalar> 
1061
(
-3.4756e-06
-5.54707e-06
-6.29229e-06
-7.4926e-06
-9.74799e-06
-1.33575e-05
-2.05458e-05
-3.73186e-05
-9.92786e-06
5.15879e-08
2.44406e-06
-3.87862e-05
1.83964e-05
-3.85027e-05
3.06219e-05
-3.04833e-05
3.80765e-05
-2.22527e-05
4.25587e-05
-1.67561e-05
4.61269e-05
-1.48451e-05
4.98329e-05
-1.46749e-05
5.41558e-05
-1.55144e-05
5.87537e-05
-1.67432e-05
6.25655e-05
-1.61851e-05
6.48771e-05
-1.43699e-05
6.43262e-05
-1.15366e-05
6.04524e-05
-7.32135e-06
4.87263e-05
2.18375e-06
2.78135e-05
1.18025e-05
5.43224e-06
1.23219e-05
-4.24413e-06
7.1091e-08
-1.19927e-05
-7.0613e-07
2.3875e-06
2.61278e-05
-7.60431e-05
3.86555e-05
-8.76094e-05
4.50208e-05
-8.6525e-05
4.86543e-05
-8.02349e-05
5.08277e-05
-6.02507e-05
5.2958e-05
-5.0499e-05
5.45922e-05
-4.48171e-05
5.68631e-05
-4.54053e-05
5.96298e-05
-4.84541e-05
6.17834e-05
-4.68833e-05
6.25778e-05
-4.59593e-05
6.28193e-05
-3.48444e-05
6.1828e-05
-2.34025e-05
5.19166e-05
9.26395e-06
3.54512e-05
3.23114e-05
1.7014e-05
3.42897e-05
-1.31362e-06
2.3432e-05
-1.00835e-05
8.22617e-06
-4.10534e-05
3.31431e-05
-0.000119508
4.61994e-05
-0.000150254
5.44511e-05
-0.000168875
6.13489e-05
-0.000164929
6.58034e-05
-0.00010903
6.57888e-05
-7.36363e-05
6.41068e-05
-6.56772e-05
6.18239e-05
-6.54619e-05
5.86719e-05
-6.5961e-05
5.43867e-05
-6.4335e-05
4.78823e-05
-7.28856e-05
4.23716e-05
-9.65418e-05
4.25026e-05
-0.000106761
3.99673e-05
-5.12803e-05
3.27204e-05
2.53976e-05
1.70412e-05
4.65246e-05
6.25402e-08
3.63156e-05
-1.19541e-05
3.61138e-05
-0.000115902
3.63122e-05
-0.000148866
3.63805e-05
-0.000170996
3.67437e-05
-0.000183843
3.70201e-05
-0.000160887
4.8317e-05
-7.81313e-05
5.32996e-05
-4.03142e-05
5.61572e-05
-3.86147e-05
5.70421e-05
-4.1326e-05
5.51796e-05
-4.03473e-05
5.2355e-05
-3.53496e-05
4.54983e-05
-3.33227e-05
4.30696e-05
-6.33335e-05
2.91831e-05
-7.98403e-05
1.74797e-05
-7.40734e-05
2.08657e-05
7.03588e-06
1.52275e-05
4.92846e-05
3.39312e-06
4.78763e-05
-7.11755e-06
3.02759e-05
-0.000159603
3.15927e-05
-0.000166251
3.4214e-05
-0.000176545
3.35198e-05
-0.000184156
3.35459e-05
-0.000125436
4.15008e-05
-5.23219e-05
4.34022e-05
-3.33418e-05
4.58963e-05
-3.55798e-05
4.91404e-05
-4.74874e-05
5.14003e-05
-4.74277e-05
5.04158e-05
-3.75887e-05
4.67718e-05
-1.2464e-05
3.53457e-05
2.04959e-06
1.21379e-05
9.83692e-06
-3.67142e-06
-3.80447e-05
2.28309e-06
-1.16322e-06
1.09398e-05
3.51568e-05
7.85007e-06
5.12073e-05
-4.99259e-06
2.78833e-05
-0.000167338
2.99218e-05
-0.000175585
2.9872e-05
-0.000189121
2.57939e-05
-0.000178358
3.06299e-05
-9.52926e-05
3.72402e-05
-4.96225e-05
3.92742e-05
-3.11757e-05
3.87543e-05
-2.65387e-05
4.14705e-05
-3.69855e-05
4.25992e-05
-3.88718e-05
4.40648e-05
-3.10005e-05
4.40588e-05
-1.01338e-05
3.39735e-05
1.09707e-05
8.49457e-06
2.39323e-05
-8.76126e-06
-2.54968e-05
-4.12889e-06
-4.13829e-06
3.26529e-06
2.11439e-05
6.60405e-06
4.74085e-05
-2.38462e-05
2.90356e-05
-0.000169507
2.98811e-05
-0.000182243
2.50143e-05
-0.000201094
1.88188e-05
-0.000159482
2.42903e-05
-7.54001e-05
3.00065e-05
-5.0025e-05
3.47574e-05
-3.29283e-05
3.62543e-05
-2.28329e-05
3.68803e-05
-2.06391e-05
3.73724e-05
-2.12054e-05
3.97661e-05
-1.68102e-05
4.10973e-05
-5.19902e-06
3.15992e-05
1.91803e-05
4.58076e-06
3.68033e-05
-1.47598e-05
-2.61309e-05
-1.59179e-05
-8.43512e-06
-1.08879e-05
8.491e-06
1.89822e-06
2.781e-05
-7.09899e-05
2.76582e-05
-0.000170895
2.92923e-05
-0.000188273
2.19845e-05
-0.000204088
1.12389e-05
-0.000126014
1.65004e-05
-7.08768e-05
2.67397e-05
-5.6288e-05
3.26127e-05
-3.85914e-05
3.55131e-05
-2.53926e-05
3.42741e-05
-1.67223e-05
3.19221e-05
-1.55336e-05
3.15579e-05
-1.39772e-05
3.4365e-05
-4.34506e-06
3.09901e-05
2.35237e-05
7.28495e-06
5.09671e-05
-1.27004e-05
-3.11429e-05
-2.05071e-05
-1.34523e-05
-2.14468e-05
-6.30228e-06
-3.12695e-06
-3.98097e-06
-0.000104595
-7.1304e-05
-2.7935e-07
-4.64124e-05
5.79413e-05
-1.92601e-05
3.2154e-05
4.47083e-05
-0.000126404
5.66981e-05
-0.000165933
3.20103e-05
-0.000159521
1.62006e-05
-0.000174573
-0.000220845
1.12938e-05
-4.18501e-05
2.41118e-05
-4.0658e-05
3.81031e-05
-4.41401e-05
-4.41336e-05
5.24273e-05
5.52929e-05
-1.84529e-05
5.22118e-05
-1.51855e-05
5.03935e-05
-1.51809e-05
-1.44562e-05
4.73402e-05
1.86161e-05
3.69087e-06
2.09755e-06
7.01901e-06
-1.9318e-05
9.91043e-06
1.56074e-05
-5.69625e-05
-0.00015393
3.57366e-05
-0.000176158
3.78139e-05
-0.000196581
3.92517e-05
4.62363e-05
-0.00022022
-0.000168274
3.04782e-05
-0.000191739
2.83133e-05
-0.000229462
3.10364e-05
2.7774e-05
-0.000245464
-0.00019228
1.56346e-05
-0.000210673
2.10613e-05
-0.000227639
3.51427e-05
2.69469e-05
-0.000266951
-0.000204428
2.92706e-05
-0.00024349
5.96613e-05
-0.000280151
9.18842e-05
0.000112465
-0.000256462
-0.000300985
0.000116742
-0.000354538
0.000183091
-0.000359667
0.000201638
0.000171226
-0.000166789
-0.000321443
0.000179001
-0.000311167
0.000186696
-0.000269812
0.000164423
0.00011469
-0.000146589
-0.000238948
0.000159926
-0.000198165
0.000145965
-0.000150135
0.000116373
7.57916e-05
-0.000108142
-0.00013848
0.000129887
-9.84632e-05
0.000105933
-6.42865e-05
8.21986e-05
5.13404e-05
-3.9748e-05
-2.26684e-05
0.000105423
-1.52854e-06
8.48033e-05
1.66513e-05
6.40212e-05
3.83524e-05
2.96537e-05
8.16095e-05
8.79389e-05
9.2805e-05
7.36129e-05
0.000100198
5.6637e-05
3.72061e-05
0.00010135
0.000118738
7.28129e-05
0.000129293
6.30615e-05
0.000133968
5.19635e-05
3.91707e-05
0.000132006
0.000111145
5.90492e-05
0.000122225
5.19817e-05
0.000128012
4.61811e-05
3.85185e-05
0.000128667
9.11074e-05
4.83983e-05
9.88965e-05
4.4199e-05
0.000104486
4.05986e-05
3.59151e-05
0.000107093
7.43714e-05
8.02474e-05
8.49444e-05
8.80235e-05
5.66837e-05
-0.000117369
5.64273e-05
-0.000136199
-1.33204e-05
-0.000125192
-6.56746e-05
-9.8756e-05
-2.89255e-05
-0.000115257
1.87983e-05
-0.000105811
5.19423e-05
-7.76802e-05
6.68468e-05
-4.59098e-05
6.36686e-05
-1.80917e-05
5.62571e-05
-8.87324e-06
5.34289e-05
-1.01551e-05
5.74041e-05
-2.5703e-06
6.01135e-05
2.36859e-05
3.53747e-05
5.83474e-05
1.1441e-05
1.05892e-05
-1.34344e-05
-3.5292e-05
-2.9694e-05
-2.96789e-05
4.55175e-07
-5.53788e-05
-0.00013267
-3.74495e-05
-3.15079e-05
-0.000122979
-4.83841e-05
-0.000161879
-8.25083e-05
-0.000135625
-0.000148722
-9.51818e-05
-0.000176206
-4.90942e-05
-0.00016656
6.25498e-07
-0.000139318
4.6257e-05
-0.000102551
6.20035e-05
-4.46626e-05
4.62645e-05
-4.30335e-06
3.47172e-05
2.07665e-06
3.15178e-05
6.33457e-06
4.13801e-05
2.10647e-05
4.98676e-05
5.00985e-05
3.47459e-05
6.76269e-05
2.73677e-05
-1.20394e-05
3.07823e-05
-4.50017e-05
4.43178e-05
-7.34831e-05
-0.000135178
-0.000177687
8.03727e-05
-0.000181252
2.43081e-05
-0.0001665
-0.000103276
-0.000144793
-0.000198461
-0.000112224
-0.000221019
-7.96086e-05
-0.000208705
-4.89913e-05
-0.000183017
-5.19053e-06
-0.000152282
4.40148e-05
-9.57066e-05
5.41445e-05
-1.52047e-05
3.77557e-05
1.19491e-05
2.47325e-05
1.75974e-05
2.82252e-05
2.09283e-05
4.00766e-05
4.08328e-05
3.10872e-05
8.37334e-05
3.21947e-05
5.33794e-05
4.47413e-05
-4.05399e-05
5.34889e-05
-4.93832e-05
-0.000127939
-0.000217971
0.000114011
-0.00016973
3.6944e-07
-0.000174091
-0.000167307
-0.000139569
-0.000251764
-0.000107579
-0.000258384
-8.60497e-05
-0.000235566
-6.85646e-05
-0.000205656
-4.4471e-05
-0.000173263
1.53655e-06
-0.000129465
4.88246e-05
-5.04251e-05
3.92772e-05
2.59446e-05
2.07947e-05
3.43333e-05
2.01194e-05
2.26643e-05
2.40672e-05
4.0707e-05
1.75258e-05
9.37607e-05
2.68147e-05
8.21817e-05
3.77158e-05
6.43872e-06
4.85395e-05
1.01391e-06
-0.000117798
-0.000262351
4.77272e-05
-0.000212102
-0.000204403
-0.000163054
-0.000292327
-0.000131308
-0.000295407
-0.00011241
-0.000281802
-9.72435e-05
-0.000264029
-8.02196e-05
-0.000256187
-6.75862e-05
-0.000230324
-5.39766e-05
-0.000174643
-1.0152e-06
-0.000102784
3.05921e-05
1.82358e-06
1.39422e-05
5.03934e-05
9.99207e-06
2.62293e-05
9.34291e-06
4.11355e-05
-2.88592e-06
9.96459e-05
2.04918e-06
7.54722e-05
1.51352e-05
5.17017e-05
3.6427e-05
4.14883e-06
-0.000104052
-0.000178606
-5.15061e-05
-0.000173063
-0.000310327
-0.000152974
-0.000317566
-0.000142136
-0.000309881
-0.000134798
-0.000301033
-0.000129171
-0.000300232
-0.000116517
-0.000321408
-9.50026e-05
-0.000200335
-6.72093e-05
-0.000156911
-3.90562e-05
-0.000113425
-4.79303e-06
-3.41097e-05
4.22548e-06
4.51823e-05
-5.89127e-06
4.10276e-05
-7.83715e-06
5.42342e-05
-1.06208e-05
9.59456e-05
-6.90105e-07
6.06474e-05
1.85275e-05
3.67721e-05
3.81466e-05
-4.47689e-05
-8.80088e-05
-0.000136554
-8.95026e-05
-0.000156314
-0.000320498
-0.000158691
-0.000301158
-0.000165942
-0.000307533
-0.000177853
-0.000298601
-0.00020206
-0.000306447
-0.000214293
-0.000308133
-0.000134717
-0.000184544
-8.51099e-05
-0.000152161
-3.87851e-05
-0.000118812
-1.09439e-05
-3.79546e-05
-7.25023e-06
3.0456e-05
-1.78478e-05
6.34744e-05
-1.23244e-05
6.4131e-05
-3.04424e-06
7.88742e-05
1.64067e-05
4.09818e-05
3.13179e-05
2.15057e-05
4.11908e-05
-8.75375e-05
-7.07572e-05
-0.000122067
-6.55696e-05
-0.000159276
-0.000298455
-0.000176973
-0.000293345
-0.000185257
-0.000297114
-0.000195135
-0.000291385
-0.000182886
-0.000301156
-0.000186704
-0.000207704
-0.000128453
-0.000149345
-7.89705e-05
-0.000146885
-4.48041e-05
-0.000126438
-2.71244e-05
-3.25843e-05
-2.86227e-05
2.0984e-05
-2.86533e-05
6.51058e-05
-1.48348e-05
6.40499e-05
9.57681e-06
5.62906e-05
3.0247e-05
2.62985e-05
3.38926e-05
1.19458e-05
3.90332e-05
-9.82457e-05
-5.81864e-05
-0.000118398
4.46812e-06
-0.000179827
-0.000190467
-0.000192898
-0.000290957
-0.00019143
-0.000290058
-0.000197656
-0.000280724
-0.000167073
-0.000276287
-0.000169418
-0.000175797
-0.000127398
-0.000164417
-9.93252e-05
-0.000169772
-6.97076e-05
-0.000143558
-3.29216e-05
-4.00973e-05
-2.82868e-05
1.56542e-05
-3.4361e-05
4.82651e-05
-1.72192e-05
5.27272e-05
1.14082e-05
2.79599e-05
2.7182e-05
1.04735e-05
2.91915e-05
-1.95902e-05
3.21856e-05
-9.70379e-05
-5.59122e-05
-9.62964e-05
5.04825e-05
-0.000138982
-0.000117432
-0.000191126
-0.000211595
-0.000195023
-0.000272606
-0.000190848
-0.000272402
-0.00018053
-0.00026062
-0.000136081
-0.0002243
-0.000160104
-0.000156956
-0.000150327
-0.000188284
-0.000115494
-0.000167861
-6.58938e-05
-7.37232e-05
-4.41914e-05
-2.54302e-05
-4.3253e-05
1.67125e-05
-2.04573e-05
2.2428e-05
-4.04627e-07
-1.19191e-05
1.16632e-05
-3.10323e-05
2.11293e-05
-6.40249e-05
2.61116e-05
-9.50059e-05
-7.1225e-05
-2.83565e-05
4.00433e-05
-0.00010142
-4.48794e-05
-0.00014363
-0.000134182
-0.000180251
-0.000231634
-0.000186295
-0.000257357
-0.000181064
-0.000251986
-0.000159348
-0.000232136
-0.000145585
-0.000184265
-0.000184893
-0.000153527
-0.00016773
-0.000159007
-0.000129437
-0.000132159
-8.74598e-05
-0.000116254
-6.91006e-05
-5.43107e-05
-5.50947e-05
-2.64644e-05
-3.32246e-05
-5.31597e-05
-4.01046e-06
-7.20407e-05
1.8346e-05
-8.848e-05
2.5809e-05
-0.000100016
-9.21248e-05
4.88954e-05
2.06806e-05
4.89976e-06
-6.00708e-06
-7.9099e-05
-5.13651e-05
-0.000152854
-0.00015616
-0.000176249
-0.00022902
-0.000178577
-0.000240744
-0.000172015
-0.000233431
-0.000157555
-0.000207053
-0.000155864
-0.000185526
-0.000162614
-0.000177841
-0.000169839
-0.000174889
-0.00017843
-0.000150776
-0.000125238
-0.000116296
-6.33905e-05
-9.80182e-05
-1.90773e-05
-7.53769e-05
2.60821e-06
-7.71669e-05
1.9624e-05
-8.16533e-05
2.97324e-05
-0.000100051
-9.92713e-05
9.25219e-05
2.94835e-05
7.09417e-05
1.5448e-05
-3.39611e-05
1.78787e-05
-9.83227e-05
-7.93327e-05
-0.000165768
-0.000170841
-0.000174072
-0.000221065
-0.000172153
-0.000226404
-0.000160022
-0.000216206
-0.000146531
-0.000194619
-0.00013858
-0.000184685
-0.00013252
-0.000185399
-0.000125837
-0.000177732
-0.000119301
-0.000158042
-0.000103947
-0.000130109
-7.02666e-05
-0.000104668
-3.94659e-05
-9.21293e-05
-1.08356e-06
-8.88313e-05
2.67575e-05
-9.55687e-05
-9.73886e-05
0.000112345
4.91039e-05
9.2758e-05
3.5046e-05
7.02955e-05
4.00794e-05
-7.01228e-05
3.31349e-05
-0.000121631
-0.000102696
-0.000162034
-0.000179132
-0.000166171
-0.000217818
-0.000161356
-0.000218183
-0.000146922
-0.000204331
-0.000135346
-0.000190444
-0.000125069
-0.000186208
-0.000116405
-0.000179072
-0.000104818
-0.000166976
-8.75486e-05
-0.000150156
-6.56437e-05
-0.000135533
-3.56258e-05
-0.000120291
-5.40585e-06
-0.000108014
2.12478e-05
-0.000105749
-0.000100267
0.000113646
6.40913e-05
9.94345e-05
4.92673e-05
8.76738e-05
5.18495e-05
6.53351e-05
5.24834e-05
-7.62534e-05
3.31998e-05
-0.00013015
-0.000108752
-0.000160962
-0.000173108
-0.000160625
-0.000217079
-0.000152772
-0.00021671
-0.000138686
-0.000204644
-0.00012687
-0.00019093
-0.000116757
-0.000184074
-0.000105564
-0.000177943
-8.79033e-05
-0.000167195
-6.67886e-05
-0.000154972
-3.81277e-05
-0.000138572
-1.08915e-05
-0.000125455
9.61608e-06
-0.000124392
-0.000122644
0.000101624
6.95517e-05
9.57194e-05
5.51795e-05
9.37447e-05
5.38446e-05
9.18261e-05
5.44287e-05
6.69485e-05
4.83005e-05
-6.8141e-05
2.3793e-05
-0.000127125
-0.000100561
-0.000158006
-0.000148957
-0.00015608
-0.00021067
-0.000143536
-0.000223695
-0.000128619
-0.000216537
-0.000119732
-0.000217632
-0.000110809
-0.000224152
-9.30692e-05
-0.000214395
-6.80381e-05
-0.00020107
-4.09975e-05
-0.000163167
-1.76279e-05
-0.000153275
-3.84688e-06
-0.000172174
-0.00017336
9.00746e-05
8.96901e-05
9.33295e-05
9.9069e-05
0.000104943
9.65325e-05
3.09556e-06
-9.67576e-05
-0.000159444
-0.000165415
-0.000161534
-0.000156045
-0.000139236
-0.000110292
-8.13427e-05
-5.71044e-05
-3.91386e-05
-2.40951e-05
)
;

boundaryField
{
    leftWall
    {
        type            fixedValue;
        value           nonuniform 0();
    }
    rightWall
    {
        type            fixedValue;
        value           uniform 0;
    }
    lowerWall
    {
        type            fixedValue;
        value           uniform 0;
    }
    atmosphere
    {
        type            calculated;
        value           nonuniform 0();
    }
    defaultFaces
    {
        type            empty;
        value           nonuniform 0();
    }
    procBoundary1to0
    {
        type            processor;
        value           nonuniform List<scalar> 
26
(
3.47558e-06
2.07146e-06
7.45217e-07
1.20032e-06
2.25532e-06
3.47984e-06
3.44561e-06
2.28143e-06
-4.28379e-06
-5.12255e-05
-3.72435e-05
6.52768e-05
0.000148163
0.00014663
0.00014856
0.000152746
7.54977e-05
0.00030383
0.000260351
0.000168513
4.71351e-05
-6.41225e-05
-0.000103614
-9.73785e-05
-8.04504e-05
-6.68061e-05
)
;
    }
    procBoundary1to3
    {
        type            processor;
        value           nonuniform List<scalar> 
23
(
4.08399e-05
3.83279e-05
3.59069e-05
3.28408e-05
6.75037e-05
5.55723e-05
5.02189e-05
4.86998e-05
4.2445e-05
3.0419e-05
3.33879e-06
-7.18205e-05
-0.000116874
-0.000136031
-0.000153462
-0.000182947
-0.000200497
-0.000223923
-0.000242458
-0.000238448
-0.000276672
-0.000294571
-0.000201575
)
;
    }
}


// ************************************************************************* //
