/*--------------------------------*- C++ -*----------------------------------*\
| =========                 |                                                 |
| \\      /  F ield         | OpenFOAM: The Open Source CFD Toolbox           |
|  \\    /   O peration     | Version:  2.4.0                                 |
|   \\  /    A nd           | Web:      www.OpenFOAM.org                      |
|    \\/     M anipulation  |                                                 |
\*---------------------------------------------------------------------------*/
FoamFile
{
    version     2.0;
    format      ascii;
    class       volScalarField;
    location    "0.75";
    object      rho;
}
// * * * * * * * * * * * * * * * * * * * * * * * * * * * * * * * * * * * * * //

dimensions      [1 -3 0 0 0 0 0];

internalField   nonuniform List<scalar> 
559
(
13528.9
13528.8
13528.8
13528.8
13528.8
13528.3
13406.3
10929.3
11444.7
11449
11450.5
11456.9
11464.1
11472.5
11479.5
11489.8
11493.7
11494.7
11498
11508.6
11508.7
11510.4
11511.4
11518
11522.9
11523.5
11522.8
11314.2
6193.24
7160.1
8047.15
8876.82
9738.08
10120.7
10266.9
10166.5
9826.15
9802.51
10041.1
10211.5
10613.9
11339.1
11523.4
11524.6
11523.2
11524.9
9577.06
4967.05
3245.2
2013.94
1385.88
1343.21
1445.9
1599.65
1589.05
1440.88
1243.03
1039.31
1387.44
1783.37
5432.07
10878.9
11524.7
11527
11529.6
3713.55
2790.35
1717.07
1027.43
888.117
902.933
911.724
913.305
913.255
895.524
839.754
725.041
613.096
547.24
1016.9
7923.16
11522
11534.3
11534.6
2154.85
2010.93
1381.07
950.618
890.852
902.766
912.676
912.502
889.849
819.062
795.032
741.63
643.088
546.396
827.1
4988.59
11224
11525.3
11465.1
1996.98
1801.98
1192.38
899.593
884.449
900.513
911.382
884.474
848.463
842.21
807.089
794.258
696.364
567.825
788.154
4868.72
11004.7
11431
9288.51
2014
1489.15
962.205
824.395
822.987
854.99
895.875
913.199
917.21
913.243
889.993
840.298
743.459
592.098
757.629
5339.26
10736.5
11139.5
4008.33
2083.64
1223.14
794.718
712.415
697.784
732.809
801.611
877.863
923.017
920.617
898.041
851.085
753.403
608.136
637.518
3863.56
8232.12
8071.45
1793.09
3329.26
968.942
827.871
606.428
539.152
484.482
248.743
19.4998
4874.13
4824.86
4635.89
4280.28
968.116
968.422
960.62
919.117
815.117
809.495
785.789
698.363
539.105
517.582
494.97
447.455
463.885
448.661
434.665
350.589
415.309
230.604
114.975
71.5654
63.6596
15.4613
4.77499
2.52426
2.93831
1.11229
1.01532
1.0017
1.02957
1.00282
1.00175
1.0017
1.00169
1.00191
1.00173
1.00163
1.0011
1.00121
1.00109
1.00106
1.00043
1.00044
1.00035
1.00032
1.00027
1.00028
1.00017
1.00014
1.00013
1.00013
1.00013
1.00007
1.00005
1.00007
1.00005
1.00004
1.00002
1.00001
1.00001
1.00002
1
1
1.00001
1.00001
2077.54
564.498
476.104
567.461
563.024
575.142
620.717
705.246
820.788
883.765
877.936
838.406
752.512
627.536
543.344
1191.74
2509.31
1783.49
1177.2
643.464
258.557
328.113
493.033
496.845
487.069
479.713
506.904
576.373
733.251
823.322
810.6
750.463
647.439
551.418
553.992
657.548
603.025
778.773
393.184
274.034
468.278
490.83
492.885
489.476
466.002
381.774
395.851
447.843
684.936
784.988
765.95
676.866
568.28
519.796
580.396
532.965
679.812
394.183
461.585
469.041
471.192
495.701
497.117
496.784
495.764
489.296
438.268
550.495
723.554
763.38
701.779
572.409
526.4
528.596
533.961
694.645
316.866
378.253
397.757
468.097
496.497
495.221
465.104
439.379
439.847
439.927
482.491
661.269
751.828
715.397
564.831
541.804
552.802
588.241
745.735
60.8192
135.993
370.987
482.356
482.028
371.619
170.104
103.157
122.655
246.8
424.92
577.179
711.288
565.731
477.746
475.757
612.683
687.019
820.35
6.24642
107.188
402.693
482.664
362.021
73.4006
8.70218
8.68612
8.70193
21.3721
225.264
487.702
636.437
406.643
378.722
395.764
578.516
753.942
904.196
3.55478
87.0022
353.67
458.723
273.244
24.4665
8.68614
8.68799
8.68642
8.62118
80.4996
429.492
583.263
524.591
511.939
603.971
692.628
755.933
965.324
1.41842
15.1777
133.621
328.361
322
51.9715
8.75686
8.66907
8.57416
8.68043
30.5199
274.997
543.505
643.118
684.097
721.352
742.178
781.388
1005.02
1.02319
1.34281
14.0553
147.33
328.437
238.699
57.6414
8.74352
8.71396
8.5659
41.3713
299.099
506.336
629.029
668.008
666.414
720.123
776.763
979.135
1.00098
1.00404
1.65474
34.1054
258.77
400.183
285.776
35.915
8.87492
8.79424
34.0696
251.431
442.693
530.485
438.585
365.891
663.061
751.823
930.695
1.00034
1.0005
1.0254
7.34868
123.693
401.193
445.382
227.995
55.322
34.5767
47.8353
142.465
315.123
309.64
172.554
173.108
406.374
712.302
819.72
1.00014
1.00018
1.00035
1.59846
35.7372
257.6
450.707
454.157
337.317
286.085
296.303
294.227
293.829
424.802
466.046
470.713
492.107
649.665
786.875
1.00006
1.00009
1.00021
1.00204
3.60552
73.6078
342.931
469.687
473.962
482.428
489.861
500.326
509.828
538.989
563.377
580.306
634.062
666.846
766.186
1.00003
1.00005
1.00018
1.00038
1.01773
5.45755
83.7072
318.751
427.862
435.78
428.615
421.597
441.431
497.577
545.247
580.365
623.379
682.462
738.292
1.00001
1.00003
1.00013
1.00029
1.00021
1.07513
5.03308
40.2573
110.278
138.65
115.322
99.1345
106.56
162.209
261.504
353.508
423.684
470.584
429.99
1.00001
1.00002
1.00006
1.00009
1.00016
1.00071
1.08276
1.65383
2.27977
2.45436
1.99584
1.42172
1.35858
1.83963
4.76243
14.5062
26.2484
25.7212
29.5616
)
;

boundaryField
{
    leftWall
    {
        type            calculated;
        value           nonuniform 0();
    }
    rightWall
    {
        type            calculated;
        value           nonuniform List<scalar> 
25
(
11522.8
11524.9
11529.6
11534.6
11465.1
9288.51
4008.33
1793.09
1177.2
778.773
679.812
694.645
745.735
820.35
904.196
965.324
1005.02
979.135
930.695
819.72
786.875
766.186
738.292
429.99
29.5616
)
;
    }
    lowerWall
    {
        type            calculated;
        value           nonuniform List<scalar> 
40
(
13528.9
13528.9
13528.8
13528.8
13528.8
13528.8
13528.3
13406.3
10929.3
4874.13
4824.86
4635.89
4280.28
11444.7
11314.2
9577.06
3713.55
2154.85
1996.98
2014
2083.64
11444.7
11449
11450.5
11456.9
11464.1
11472.5
11479.5
11489.8
11493.7
11494.7
11498
11508.6
11508.7
11510.4
11511.4
11518
11522.9
11523.5
11522.8
)
;
    }
    atmosphere
    {
        type            calculated;
        value           nonuniform 0();
    }
    defaultFaces
    {
        type            empty;
    }
    procBoundary1to0
    {
        type            processor;
        value           nonuniform List<scalar> 
26
(
13528.9
13528.9
13529
13529
13528.9
13526.3
13245.8
9473.26
2259.78
974.28
855.918
660.061
505.073
440.483
206.989
16.181
1.21134
1.21134
1.00143
1.00085
1.00044
1.00022
1.00012
1.00006
1.00002
1.00001
)
;
    }
    procBoundary1to3
    {
        type            processor;
        value           nonuniform List<scalar> 
23
(
1
1
1
1
1
1.00001
1.00002
1.00005
1.00006
1.00022
1.00035
1.00145
1.00151
1.00152
1.00154
1.00214
1.00377
1.00763
1.02768
1.03594
1.01767
1.01096
1.01782
)
;
    }
}


// ************************************************************************* //
