/*--------------------------------*- C++ -*----------------------------------*\
| =========                 |                                                 |
| \\      /  F ield         | OpenFOAM: The Open Source CFD Toolbox           |
|  \\    /   O peration     | Version:  2.4.0                                 |
|   \\  /    A nd           | Web:      www.OpenFOAM.org                      |
|    \\/     M anipulation  |                                                 |
\*---------------------------------------------------------------------------*/
FoamFile
{
    version     2.0;
    format      ascii;
    class       volVectorField;
    location    "0.75";
    object      U;
}
// * * * * * * * * * * * * * * * * * * * * * * * * * * * * * * * * * * * * * //

dimensions      [0 1 -1 0 0 0 0];

internalField   nonuniform List<vector> 
559
(
(-0.034614 -0.00902614 0)
(-0.0146593 -0.0294433 0)
(-2.54354e-05 -0.0310741 0)
(-0.00264403 -0.0362358 0)
(-0.00314249 -0.0451711 0)
(-0.0126045 -0.0581474 0)
(-0.0154125 -0.084119 0)
(-0.0103677 -0.117941 0)
(-0.186344 -0.10365 0)
(-0.0577552 -0.232451 0)
(0.125731 -0.195667 0)
(0.285286 -0.163086 0)
(0.39937 -0.139757 0)
(0.470088 -0.138611 0)
(0.515301 -0.148163 0)
(0.551144 -0.156442 0)
(0.595324 -0.160775 0)
(0.647006 -0.160212 0)
(0.69509 -0.160489 0)
(0.733105 -0.167575 0)
(0.733471 -0.180558 0)
(0.710749 -0.179923 0)
(0.641945 -0.149387 0)
(0.460607 -0.114281 0)
(0.186117 -0.0744844 0)
(-0.0862054 -0.127139 0)
(-0.0211337 -0.170207 0)
(-0.245451 0.157226 0)
(0.245323 0.0341343 0)
(0.401997 -0.0273061 0)
(0.485926 -0.0169475 0)
(0.545419 0.00629032 0)
(0.576075 0.0346697 0)
(0.600029 0.0534874 0)
(0.619924 0.0597571 0)
(0.637327 0.0561427 0)
(0.662815 0.0479595 0)
(0.695211 0.0530859 0)
(0.715737 0.0741237 0)
(0.702154 0.11589 0)
(0.705934 0.157916 0)
(0.660351 0.223231 0)
(0.518874 0.25534 0)
(0.310439 0.219394 0)
(0.0403439 0.175952 0)
(-0.077431 0.0803835 0)
(-0.124373 -0.0287013 0)
(0.369921 -0.317686 0)
(0.543659 -0.211576 0)
(0.684628 -0.0466808 0)
(0.806923 0.109664 0)
(0.812345 0.122574 0)
(0.800667 0.0933899 0)
(0.763982 0.0625584 0)
(0.730673 0.0502185 0)
(0.676211 0.0628252 0)
(0.615929 0.0870274 0)
(0.519501 0.144423 0)
(0.419715 0.111182 0)
(0.303466 0.0909686 0)
(0.385357 0.0754234 0)
(0.447849 0.168736 0)
(0.304084 0.219117 0)
(0.0615072 0.14975 0)
(-0.0641076 -0.0978142 0)
(0.378212 -0.0269526 0)
(0.445914 -0.266951 0)
(0.49981 -0.206104 0)
(0.575694 -0.140018 0)
(0.651019 -0.144286 0)
(0.700072 -0.12756 0)
(0.717044 -0.0876553 0)
(0.715295 -0.0557017 0)
(0.702148 -0.0447186 0)
(0.672411 -0.0553923 0)
(0.615817 -0.0555501 0)
(0.55704 -0.038777 0)
(0.426698 0.00183609 0)
(0.386339 0.0554472 0)
(-0.108103 0.296078 0)
(0.203669 0.175657 0)
(0.238483 0.253616 0)
(0.0870673 0.227195 0)
(-0.023125 0.0178411 0)
(0.357601 -0.267673 0)
(0.347552 -0.355018 0)
(0.427672 -0.28469 0)
(0.45275 -0.183559 0)
(0.509991 -0.0865701 0)
(0.537504 -0.0319102 0)
(0.549109 -0.0093212 0)
(0.576993 -0.00716297 0)
(0.604301 0.000858031 0)
(0.620939 0.0359207 0)
(0.615118 0.0690882 0)
(0.561318 0.126584 0)
(0.446113 0.130795 0)
(0.248402 0.149221 0)
(-0.140062 0.163697 0)
(-0.226195 0.124225 0)
(0.15872 0.261237 0)
(0.0655055 0.276066 0)
(0.101978 -0.0177391 0)
(0.283582 -0.372637 0)
(0.264168 -0.375061 0)
(0.344863 -0.267871 0)
(0.331124 -0.173278 0)
(0.379641 -0.105204 0)
(0.436039 -0.0543481 0)
(0.468241 -0.0164247 0)
(0.485753 0.00390474 0)
(0.484785 0.021533 0)
(0.490326 0.0315674 0)
(0.51606 0.0645106 0)
(0.517538 0.115261 0)
(0.448403 0.195672 0)
(0.242262 0.281697 0)
(-0.104039 0.296162 0)
(-0.257628 0.102035 0)
(0.0539452 0.157884 0)
(0.000783783 0.290259 0)
(0.155538 0.0655805 0)
(0.31801 -0.520298 0)
(0.220163 -0.424617 0)
(0.261364 -0.267128 0)
(0.222943 -0.183024 0)
(0.271425 -0.168694 0)
(0.360929 -0.114725 0)
(0.409842 -0.0730026 0)
(0.431547 -0.0527486 0)
(0.43637 -0.0412787 0)
(0.428371 -0.0251866 0)
(0.440828 0.0108811 0)
(0.470662 0.102222 0)
(0.445264 0.218563 0)
(0.270345 0.358452 0)
(-0.0615257 0.420353 0)
(-0.279748 0.0746074 0)
(-0.146859 0.111725 0)
(-0.121938 0.234703 0)
(0.185541 0.0897892 0)
(0.316892 -0.597758 0)
(0.154251 -0.447288 0)
(0.114224 -0.277162 0)
(0.0645792 -0.194575 0)
(0.158735 -0.176653 0)
(0.311853 -0.106826 0)
(0.40149 -0.0441881 0)
(0.426486 -0.011888 0)
(0.418717 0.0167445 0)
(0.385294 0.0248534 0)
(0.350011 0.0587821 0)
(0.371033 0.128135 0)
(0.400278 0.274322 0)
(0.288832 0.444744 0)
(0.0396509 0.547517 0)
(-0.259885 0.115978 0)
(-0.250652 0.0556125 0)
(-0.273485 0.128429 0)
(0.156584 0.146448 0)
(-0.0659663 -0.0347149 0)
(0.299588 -0.072147 0)
(0.178462 -0.194765 0)
(-0.542988 0.102119 0)
(-0.835367 0.405038 0)
(-0.785604 0.306862 0)
(-0.792317 0.274519 0)
(-1.07953 0.884322 0)
(-0.022122 -0.488712 0)
(0.100849 -0.503174 0)
(0.147993 -0.571887 0)
(0.260213 -0.559934 0)
(0.290736 0.0521741 0)
(0.224053 0.188654 0)
(0.142444 0.185808 0)
(0.105369 0.0857195 0)
(0.129775 -0.211993 0)
(0.047568 -0.216274 0)
(-0.0670228 -0.206835 0)
(-0.167362 -0.0879087 0)
(-0.843774 0.454858 0)
(-0.968078 0.57959 0)
(-1.11812 0.658488 0)
(-1.22961 0.79979 0)
(-0.878109 0.457208 0)
(-0.924507 0.502814 0)
(-1.15024 0.545114 0)
(-1.32191 0.767836 0)
(-0.838979 0.345132 0)
(-0.993854 0.548566 0)
(-1.20665 0.981351 0)
(-1.64816 1.15868 0)
(-0.864499 0.801776 0)
(-1.3855 2.12592 0)
(-1.93848 2.82705 0)
(-2.16761 2.84941 0)
(-1.7667 2.05606 0)
(-1.9273 2.44347 0)
(-1.98356 2.57349 0)
(-2.02302 2.37022 0)
(-1.71312 2.09995 0)
(-1.75521 2.21076 0)
(-1.59419 2.08818 0)
(-1.35108 1.42791 0)
(-1.40649 1.98168 0)
(-1.20721 1.93657 0)
(-0.9087 1.54317 0)
(-0.657164 1.04692 0)
(-0.868685 1.61594 0)
(-0.6369 1.36237 0)
(-0.450733 1.10449 0)
(-0.233165 0.723538 0)
(-0.208767 1.36287 0)
(-0.0454631 1.08646 0)
(0.0274512 0.824267 0)
(0.145328 0.499368 0)
(0.362401 1.15581 0)
(0.479582 0.956682 0)
(0.511964 0.734556 0)
(0.559225 0.449804 0)
(0.577963 0.903844 0)
(0.675488 0.777347 0)
(0.702577 0.605577 0)
(0.727193 0.433205 0)
(0.552029 0.722369 0)
(0.625567 0.62701 0)
(0.674285 0.552628 0)
(0.700089 0.44587 0)
(0.457119 0.596591 0)
(0.512292 0.535459 0)
(0.544833 0.485413 0)
(0.574875 0.421182 0)
(0.377343 0.499984 0)
(0.416724 0.463036 0)
(0.44271 0.429043 0)
(0.466559 0.387496 0)
(0.299709 -0.596001 0)
(-0.105216 -0.204891 0)
(-0.454188 -0.0615356 0)
(-0.409734 -0.27541 0)
(-0.228701 -0.293458 0)
(0.0776592 -0.216318 0)
(0.281768 -0.116378 0)
(0.395253 -0.047536 0)
(0.388373 -0.00857227 0)
(0.321627 0.0219033 0)
(0.277635 0.0300565 0)
(0.272452 0.0912583 0)
(0.328791 0.265192 0)
(0.297146 0.492012 0)
(0.308004 0.668886 0)
(0.0756745 0.42716 0)
(-0.132603 0.183063 0)
(-0.308656 0.169503 0)
(0.0347204 -0.00324389 0)
(-0.207726 -0.127068 0)
(-1.1165 0.207534 0)
(-1.08306 -0.0121899 0)
(-0.81589 -0.450051 0)
(-0.574037 -0.555758 0)
(-0.292439 -0.485369 0)
(-0.0129723 -0.301585 0)
(0.248402 -0.114194 0)
(0.395947 0.0664289 0)
(0.318365 0.0877307 0)
(0.180263 0.0809042 0)
(0.151311 0.115941 0)
(0.153432 0.248469 0)
(0.249822 0.47456 0)
(0.311697 0.649385 0)
(0.202335 0.541843 0)
(0.152937 0.344151 0)
(-0.244785 0.0569243 0)
(0.103827 -0.147561 0)
(-0.759668 0.568102 0)
(-1.25783 0.483579 0)
(-1.03726 -0.377815 0)
(-0.847444 -0.649969 0)
(-0.652399 -0.738644 0)
(-0.423306 -0.709146 0)
(-0.250531 -0.563849 0)
(-0.0305875 -0.308329 0)
(0.236881 0.0162641 0)
(0.343555 0.28097 0)
(0.228779 0.162031 0)
(0.126739 0.152088 0)
(0.0791108 0.210508 0)
(0.163514 0.37665 0)
(0.256596 0.6149 0)
(0.171504 0.571216 0)
(0.215434 0.446762 0)
(-0.103306 0.174226 0)
(0.123597 -0.165199 0)
(-1.35749 0.907958 0)
(-1.15576 0.292042 0)
(-1.05916 -0.259409 0)
(-0.876805 -0.844145 0)
(-0.610791 -0.988523 0)
(-0.435826 -0.870271 0)
(-0.34858 -0.706241 0)
(-0.243539 -0.570617 0)
(-0.139555 -0.363051 0)
(0.261556 0.181663 0)
(0.251966 0.260781 0)
(0.100105 0.215839 0)
(0.0442544 0.195258 0)
(0.0818809 0.325802 0)
(0.124383 0.607115 0)
(0.0357782 0.593409 0)
(0.161386 0.505953 0)
(-0.0513626 0.220445 0)
(0.148793 -0.155005 0)
(-1.51773 0.871751 0)
(-1.5552 0.269478 0)
(-1.22874 -0.871277 0)
(-0.839417 -1.18976 0)
(-0.613426 -1.16763 0)
(-0.487343 -1.04242 0)
(-0.380632 -0.870933 0)
(-0.34361 -0.685472 0)
(-0.320176 -0.488364 0)
(-0.233603 -0.177456 0)
(0.160393 0.34067 0)
(0.0601959 0.32269 0)
(-0.00777387 0.194846 0)
(0.00864505 0.290645 0)
(-0.0111348 0.63361 0)
(-0.129286 0.554723 0)
(0.0559585 0.481979 0)
(-0.00974782 0.210941 0)
(0.145832 -0.104737 0)
(-2.16702 1.19094 0)
(-1.71928 -0.356742 0)
(-1.0967 -1.21709 0)
(-0.839575 -1.32458 0)
(-0.714718 -1.27409 0)
(-0.597447 -1.10672 0)
(-0.465891 -0.818043 0)
(-0.450737 -0.604418 0)
(-0.450735 -0.474633 0)
(-0.383988 -0.358094 0)
(-0.184407 0.0172267 0)
(-0.0215287 0.347879 0)
(-0.0898584 0.215362 0)
(-0.191283 0.38 0)
(-0.143818 0.691157 0)
(-0.213402 0.561776 0)
(0.0388032 0.36503 0)
(0.0346988 0.157248 0)
(0.130005 -0.0385814 0)
(-2.19511 2.04955 0)
(-1.08152 -0.859384 0)
(-0.980624 -1.43038 0)
(-0.960156 -1.44088 0)
(-0.899595 -1.34701 0)
(-0.737407 -0.952741 0)
(-0.549115 0.0342536 0)
(-0.891956 0.0613584 0)
(-0.72619 0.0204987 0)
(-0.563198 0.0119163 0)
(-0.364196 -0.0741409 0)
(-0.121782 0.293539 0)
(-0.208507 0.334538 0)
(-0.404214 0.454772 0)
(-0.281993 0.642718 0)
(-0.195892 0.477993 0)
(0.0755356 0.253734 0)
(0.0824655 0.133939 0)
(0.127984 0.0331395 0)
(-1.53001 0.926654 0)
(-0.979479 -1.21501 0)
(-1.06861 -1.42381 0)
(-1.09792 -1.44007 0)
(-1.15431 -1.35607 0)
(-1.29117 -0.919907 0)
(-1.31088 -0.995572 0)
(-1.13776 -0.985853 0)
(-0.836935 -0.964782 0)
(-0.64042 -0.725069 0)
(-0.500808 -0.0979151 0)
(-0.307442 0.134242 0)
(-0.264533 0.389322 0)
(-0.355699 0.41159 0)
(-0.170755 0.442628 0)
(0.0337574 0.249364 0)
(0.150657 0.158857 0)
(0.100092 0.152202 0)
(0.136005 0.121109 0)
(-0.864311 0.149348 0)
(-1.05237 -1.19892 0)
(-1.2636 -1.34413 0)
(-1.22682 -1.34538 0)
(-1.23274 -1.25282 0)
(-1.52023 -0.9028 0)
(-1.5156 -0.759854 0)
(-1.21312 -0.95544 0)
(-0.982179 -1.02573 0)
(-0.871313 -0.873874 0)
(-0.801106 -0.282995 0)
(-0.431479 0.124704 0)
(-0.29137 0.335279 0)
(-0.282624 0.339401 0)
(-0.0665179 0.286495 0)
(0.0885999 0.173941 0)
(0.155266 0.153293 0)
(0.0719432 0.166516 0)
(0.0919725 0.222668 0)
(-0.467722 0.272103 0)
(-0.807644 -0.886828 0)
(-1.38598 -1.13796 0)
(-1.30994 -1.27075 0)
(-1.22611 -1.1846 0)
(-1.25931 -1.06576 0)
(-1.37022 -0.924431 0)
(-1.39349 -1.05558 0)
(-1.29677 -1.16769 0)
(-1.39698 -1.03282 0)
(-0.972204 -0.44888 0)
(-0.54112 -0.0202548 0)
(-0.38625 0.201938 0)
(-0.27477 0.243985 0)
(-0.0499107 0.091785 0)
(-0.00366149 0.0138365 0)
(0.0674123 0.146671 0)
(-0.0978439 0.243042 0)
(0.0177581 0.247042 0)
(-0.109018 0.295133 0)
(-0.199916 -0.361385 0)
(-0.965904 -1.01267 0)
(-1.2076 -1.18547 0)
(-1.16916 -1.19711 0)
(-1.11465 -1.13262 0)
(-1.08868 -1.00777 0)
(-1.23644 -0.72255 0)
(-1.54277 -0.988959 0)
(-1.78888 -1.06163 0)
(-1.53831 -0.816094 0)
(-0.87703 -0.310627 0)
(-0.610467 -0.0298499 0)
(-0.419542 0.0137728 0)
(-0.348309 -0.0204296 0)
(-0.357099 0.0692458 0)
(-0.203263 0.207814 0)
(-0.278941 0.240537 0)
(-0.0218998 0.173894 0)
(0.259909 0.126464 0)
(0.259319 -0.06741 0)
(-0.143459 -0.407426 0)
(-0.752728 -1.08321 0)
(-1.09203 -1.16676 0)
(-1.06931 -1.15296 0)
(-1.04418 -1.04642 0)
(-1.0244 -0.797992 0)
(-1.16181 -0.467083 0)
(-1.65036 -0.602762 0)
(-1.78419 -0.852105 0)
(-1.45245 -0.743285 0)
(-1.15366 -0.31258 0)
(-0.945403 -0.0262973 0)
(-0.828286 0.0414749 0)
(-0.668743 0.104575 0)
(-0.465928 0.103437 0)
(-0.289821 0.0574729 0)
(-0.0391562 -0.0336175 0)
(0.571959 0.111342 0)
(0.453348 0.0210998 0)
(0.304517 0.00434717 0)
(-0.241349 -0.463441 0)
(-0.880227 -1.01576 0)
(-1.04467 -1.07441 0)
(-1.02833 -1.06743 0)
(-0.970482 -0.92744 0)
(-0.863928 -0.754073 0)
(-0.811249 -0.725722 0)
(-0.852824 -0.76155 0)
(-0.964401 -0.776271 0)
(-1.00696 -0.563549 0)
(-0.779141 -0.412029 0)
(-0.550567 -0.2348 0)
(-0.396346 -0.141053 0)
(-0.268431 -0.116309 0)
(-0.170678 -0.128286 0)
(-0.00441594 -0.174286 0)
(0.687728 0.193718 0)
(0.546793 0.127887 0)
(0.439446 0.154578 0)
(0.31446 0.0896696 0)
(-0.36089 -0.482442 0)
(-0.941285 -0.963547 0)
(-0.977862 -1.02363 0)
(-0.960724 -0.990753 0)
(-0.862717 -0.861103 0)
(-0.782124 -0.810968 0)
(-0.748235 -0.81847 0)
(-0.730126 -0.775492 0)
(-0.698325 -0.662454 0)
(-0.61641 -0.534606 0)
(-0.479512 -0.411866 0)
(-0.351335 -0.291758 0)
(-0.234254 -0.209441 0)
(-0.145402 -0.176111 0)
(-0.00325178 -0.204993 0)
(0.670518 0.28103 0)
(0.563721 0.216365 0)
(0.498204 0.236489 0)
(0.444869 0.227077 0)
(0.329836 0.113051 0)
(-0.42758 -0.550746 0)
(-0.923933 -0.932215 0)
(-0.922326 -0.983139 0)
(-0.896313 -0.94864 0)
(-0.837515 -0.871253 0)
(-0.795674 -0.818306 0)
(-0.765876 -0.766464 0)
(-0.743865 -0.69316 0)
(-0.69997 -0.625552 0)
(-0.606066 -0.515401 0)
(-0.469923 -0.395235 0)
(-0.347183 -0.302543 0)
(-0.180661 -0.302817 0)
(-0.064 -0.311498 0)
(0.567837 0.332213 0)
(0.526683 0.25928 0)
(0.504346 0.264145 0)
(0.502533 0.266952 0)
(0.499128 0.224031 0)
(0.400297 0.117099 0)
(-0.413758 -0.514764 0)
(-0.903218 -0.789336 0)
(-0.929106 -0.869264 0)
(-0.887418 -0.825392 0)
(-0.865903 -0.748004 0)
(-0.870214 -0.644613 0)
(-0.873038 -0.567886 0)
(-0.829444 -0.560602 0)
(-0.693499 -0.528643 0)
(-0.539864 -0.455016 0)
(-0.383397 -0.397763 0)
(-0.261283 -0.363487 0)
(-0.176615 -0.213409 0)
(0.48173 0.33203 0)
(0.481731 0.271251 0)
(0.486798 0.252851 0)
(0.516321 0.253199 0)
(0.555764 0.231843 0)
(0.595614 0.180698 0)
(0.544667 0.0680264 0)
(0.0272226 -0.387422 0)
(-0.418807 -0.494744 0)
(-0.756283 -0.430858 0)
(-0.860821 -0.409118 0)
(-0.849306 -0.274587 0)
(-0.833226 -0.0920766 0)
(-0.827476 0.055477 0)
(-0.849833 0.113515 0)
(-0.84335 0.121998 0)
(-0.707775 0.245218 0)
(-0.457156 0.674427 0)
(-0.288434 1.22045 0)
)
;

boundaryField
{
    leftWall
    {
        type            calculated;
        value           nonuniform 0();
    }
    rightWall
    {
        type            calculated;
        value           uniform (0 0 0);
    }
    lowerWall
    {
        type            calculated;
        value           uniform (0 0 0);
    }
    atmosphere
    {
        type            calculated;
        value           nonuniform 0();
    }
    defaultFaces
    {
        type            empty;
    }
    procBoundary1to0
    {
        type            processor;
        value           nonuniform List<vector> 
26
(
(-0.0435136 0.000487868 0)
(-0.0309404 -0.0092685 0)
(-0.015668 -0.0159185 0)
(-0.0228127 -0.0312625 0)
(-0.044853 -0.0486 0)
(-0.0612897 -0.0581397 0)
(-0.0564681 -0.0831949 0)
(-0.0425701 -0.0919511 0)
(-0.0093249 0.0788881 0)
(0.251677 -0.131842 0)
(0.186393 -0.106535 0)
(-0.151586 -0.104302 0)
(-0.765783 0.339128 0)
(-0.811706 0.206789 0)
(-0.837075 0.130574 0)
(-0.66517 0.474345 0)
(-1.56475 1.56606 0)
(-1.56475 1.56606 0)
(-1.40634 1.70404 0)
(-1.10748 1.54507 0)
(-0.411756 1.46013 0)
(0.227652 1.29442 0)
(0.454443 1.04402 0)
(0.429004 0.822185 0)
(0.356611 0.664284 0)
(0.304274 0.544126 0)
)
;
    }
    procBoundary1to3
    {
        type            processor;
        value           nonuniform List<vector> 
23
(
(0.325981 0.429236 0)
(0.356895 0.406771 0)
(0.380455 0.383651 0)
(0.402311 0.355307 0)
(0.425329 0.315951 0)
(0.445252 0.264845 0)
(0.463704 0.231882 0)
(0.495257 0.219136 0)
(0.54785 0.192008 0)
(0.589815 0.136741 0)
(0.645177 0.0286832 0)
(0.570216 -0.112119 0)
(0.323719 -0.456107 0)
(-0.0550165 -0.670718 0)
(-0.530079 -0.795886 0)
(-0.782765 -0.891773 0)
(-0.893046 -0.919623 0)
(-0.958634 -0.908229 0)
(-1.05913 -0.847751 0)
(-1.2017 -0.758061 0)
(-1.26388 -0.793668 0)
(-0.942046 -1.24779 0)
(-0.492552 -1.76014 0)
)
;
    }
}


// ************************************************************************* //
