/*--------------------------------*- C++ -*----------------------------------*\
| =========                 |                                                 |
| \\      /  F ield         | OpenFOAM: The Open Source CFD Toolbox           |
|  \\    /   O peration     | Version:  2.4.0                                 |
|   \\  /    A nd           | Web:      www.OpenFOAM.org                      |
|    \\/     M anipulation  |                                                 |
\*---------------------------------------------------------------------------*/
FoamFile
{
    version     2.0;
    format      ascii;
    class       volVectorField;
    location    "0.75";
    object      U.air;
}
// * * * * * * * * * * * * * * * * * * * * * * * * * * * * * * * * * * * * * //

dimensions      [0 1 -1 0 0 0 0];

internalField   nonuniform List<vector> 
559
(
(-0.0346139 -0.0090262 0)
(-0.0146592 -0.0294435 0)
(-2.53004e-05 -0.0310743 0)
(-0.00264385 -0.0362361 0)
(-0.00314224 -0.0451715 0)
(-0.0126042 -0.0581464 0)
(-0.01547 -0.0826683 0)
(-0.00931926 -0.131708 0)
(-0.187015 -0.107303 0)
(-0.0581166 -0.199495 0)
(0.124651 -0.152434 0)
(0.281914 -0.13575 0)
(0.395524 -0.0867439 0)
(0.467727 -0.0778624 0)
(0.514358 -0.0938923 0)
(0.550876 -0.137179 0)
(0.594708 -0.144564 0)
(0.64656 -0.136151 0)
(0.695514 -0.131609 0)
(0.734545 -0.136277 0)
(0.735129 -0.165622 0)
(0.71016 -0.162367 0)
(0.625809 -0.100929 0)
(0.429054 -0.0469201 0)
(0.167533 -0.0431946 0)
(-0.0874822 -0.119325 0)
(-0.0209413 -0.157889 0)
(-0.241156 0.15419 0)
(0.2434 -0.012427 0)
(0.40232 0.0144119 0)
(0.486914 0.20202 0)
(0.5507 0.331683 0)
(0.582251 0.337844 0)
(0.602754 0.330097 0)
(0.620188 0.278801 0)
(0.637807 0.169525 0)
(0.663374 0.118139 0)
(0.695076 0.191666 0)
(0.714724 0.203841 0)
(0.701679 0.214371 0)
(0.700635 0.204302 0)
(0.638024 0.281173 0)
(0.487851 0.326396 0)
(0.294606 0.250313 0)
(0.038919 0.184383 0)
(-0.0775565 0.100038 0)
(-0.110958 -0.00539795 0)
(0.36752 -0.352329 0)
(0.624265 -0.353568 0)
(0.84361 -0.215024 0)
(1.00069 -0.155295 0)
(0.962999 -0.139661 0)
(0.903323 -0.154973 0)
(0.814546 -0.129719 0)
(0.735581 -0.14265 0)
(0.655385 -0.141523 0)
(0.563257 -0.0874935 0)
(0.432247 -0.0308632 0)
(0.355519 -0.0306656 0)
(0.336545 -0.110288 0)
(0.422844 -0.00216216 0)
(0.441949 0.181259 0)
(0.299534 0.227071 0)
(0.0612725 0.154867 0)
(-0.0634763 -0.0780359 0)
(0.395676 -0.167174 0)
(0.44447 -0.430032 0)
(0.466819 -0.455775 0)
(0.558753 -0.401062 0)
(0.794185 -0.183015 0)
(0.893487 -0.0750828 0)
(0.865707 -0.0276633 0)
(0.773292 0.013078 0)
(0.706396 0.202346 0)
(0.671761 0.252263 0)
(0.612636 0.228404 0)
(0.553187 0.1205 0)
(0.432494 0.00370807 0)
(0.387335 -0.0276039 0)
(0.0146259 -0.0815918 0)
(0.235496 0.149938 0)
(0.2351 0.274143 0)
(0.0870843 0.236965 0)
(-0.0225603 0.0439701 0)
(0.361701 -0.491008 0)
(0.343432 -0.554542 0)
(0.408955 -0.501964 0)
(0.459417 -0.222217 0)
(0.528346 0.189926 0)
(0.566531 0.359158 0)
(0.594555 0.421915 0)
(0.621781 0.379336 0)
(0.614867 0.414213 0)
(0.592867 0.45134 0)
(0.539156 0.527193 0)
(0.449237 0.499962 0)
(0.404153 0.187633 0)
(0.259274 0.136278 0)
(-0.0784946 -0.000866396 0)
(-0.174607 0.0918723 0)
(0.129992 0.287105 0)
(0.0588982 0.284771 0)
(0.101493 0.0197939 0)
(0.308791 -0.543359 0)
(0.293807 -0.547934 0)
(0.349672 -0.458311 0)
(0.350033 -0.27251 0)
(0.401118 -0.0658047 0)
(0.48642 -0.0232526 0)
(0.563401 0.215645 0)
(0.563423 0.29141 0)
(0.50782 0.307921 0)
(0.461018 0.32221 0)
(0.436207 0.377203 0)
(0.388693 0.478192 0)
(0.351549 0.441657 0)
(0.234399 0.262136 0)
(-0.0998326 0.149673 0)
(-0.242641 0.129667 0)
(-0.00281475 0.172009 0)
(-0.0013469 0.296701 0)
(0.155727 0.0806151 0)
(0.309619 -0.425756 0)
(0.279665 -0.425913 0)
(0.295563 -0.270008 0)
(0.23838 -0.0424934 0)
(0.294205 -0.131128 0)
(0.425289 -0.0762001 0)
(0.504666 0.272424 0)
(0.487468 0.323673 0)
(0.450549 0.350258 0)
(0.412363 0.365847 0)
(0.390199 0.399351 0)
(0.374597 0.509022 0)
(0.304585 0.682576 0)
(0.212653 0.350407 0)
(-0.0931599 0.24585 0)
(-0.277068 0.150536 0)
(-0.186593 0.152189 0)
(-0.121641 0.239837 0)
(0.179644 -0.0639351 0)
(0.189549 -0.209609 0)
(0.00463417 0.0949035 0)
(0.0659142 0.155003 0)
(0.160872 0.141289 0)
(0.285587 -0.058406 0)
(0.354027 0.0546385 0)
(0.450276 0.291111 0)
(0.450917 0.253697 0)
(0.420295 0.240996 0)
(0.356698 0.369363 0)
(0.28359 0.415903 0)
(0.266214 0.531063 0)
(0.267389 0.758139 0)
(0.236447 0.451097 0)
(0.0176142 0.358095 0)
(-0.235358 0.134692 0)
(-0.276265 0.154375 0)
(-0.273076 0.208204 0)
(0.193791 -0.113393 0)
(-0.0365978 -0.171363 0)
(0.296857 0.045061 0)
(0.149115 -0.00492474 0)
(-0.589035 0.338163 0)
(-1.1659 0.728919 0)
(-0.84005 0.702912 0)
(-0.771076 0.456853 0)
(-1.08923 0.917245 0)
(-0.0120925 -0.5564 0)
(0.103592 -0.570103 0)
(0.149912 -0.650695 0)
(0.376423 -0.662239 0)
(0.27932 0.0944165 0)
(0.204526 0.201029 0)
(0.122267 0.192917 0)
(-0.0876874 0.248562 0)
(0.0722359 0.0569423 0)
(0.0212202 0.136314 0)
(-0.283359 0.194662 0)
(-0.550741 0.49577 0)
(-0.794053 0.821731 0)
(-0.996557 1.03559 0)
(-1.27387 1.1928 0)
(-1.52639 1.40082 0)
(-0.944605 0.798703 0)
(-0.823509 0.987183 0)
(-1.02359 1.13796 0)
(-1.32462 1.2896 0)
(-0.702316 0.765401 0)
(-0.914243 0.85927 0)
(-1.19823 1.20825 0)
(-1.69939 1.34168 0)
(-0.848607 0.899211 0)
(-1.39387 2.18828 0)
(-1.94446 2.84848 0)
(-2.17048 2.85836 0)
(-1.7697 2.06349 0)
(-1.92746 2.44398 0)
(-1.98358 2.57355 0)
(-2.02302 2.37022 0)
(-1.71315 2.10003 0)
(-1.75521 2.21075 0)
(-1.59419 2.08818 0)
(-1.35108 1.42791 0)
(-1.40648 1.98168 0)
(-1.2072 1.93657 0)
(-0.908697 1.54317 0)
(-0.657161 1.04692 0)
(-0.868684 1.61593 0)
(-0.636898 1.36236 0)
(-0.450732 1.10448 0)
(-0.233164 0.723536 0)
(-0.208767 1.36287 0)
(-0.045463 1.08646 0)
(0.0274512 0.824267 0)
(0.145328 0.499368 0)
(0.362401 1.15581 0)
(0.479582 0.956683 0)
(0.511964 0.734557 0)
(0.559226 0.449804 0)
(0.577963 0.903845 0)
(0.675489 0.777348 0)
(0.702578 0.605577 0)
(0.727194 0.433205 0)
(0.552029 0.72237 0)
(0.625568 0.62701 0)
(0.674286 0.552628 0)
(0.70009 0.44587 0)
(0.45712 0.596592 0)
(0.512293 0.53546 0)
(0.544834 0.485414 0)
(0.574876 0.421183 0)
(0.377344 0.499985 0)
(0.416725 0.463038 0)
(0.442711 0.429044 0)
(0.46656 0.387497 0)
(0.201597 -0.407408 0)
(-0.321435 0.181601 0)
(-0.635289 0.346478 0)
(-0.340198 0.101928 0)
(0.0850269 -0.0197928 0)
(0.375541 0.118986 0)
(0.537228 0.284674 0)
(0.537256 0.281 0)
(0.41257 0.313315 0)
(0.295721 0.417916 0)
(0.222368 0.409242 0)
(0.184213 0.496909 0)
(0.238942 0.637048 0)
(0.273331 0.493175 0)
(0.305504 0.579852 0)
(0.00451924 0.199623 0)
(-0.104412 0.14126 0)
(-0.42255 0.127071 0)
(-0.0285513 -0.0759163 0)
(-0.45623 0.187959 0)
(-1.27001 0.546091 0)
(-1.22742 0.305442 0)
(-0.778608 -0.062383 0)
(-0.325162 -0.206719 0)
(-0.022391 -0.13748 0)
(0.247782 0.0693745 0)
(0.458967 0.32297 0)
(0.489519 0.575731 0)
(0.260791 0.621694 0)
(0.0618161 0.521395 0)
(0.0412678 0.510402 0)
(0.0687254 0.480427 0)
(0.224505 0.464719 0)
(0.312273 0.622765 0)
(0.178827 0.382942 0)
(0.163288 0.198267 0)
(-0.284674 0.175135 0)
(0.0049321 0.136914 0)
(-1.012 1.10326 0)
(-1.43144 0.871234 0)
(-1.15545 -0.00707324 0)
(-0.727832 -0.214402 0)
(-0.432675 -0.313559 0)
(-0.194002 -0.288998 0)
(-0.0194488 -0.155409 0)
(0.136958 0.0724088 0)
(0.341187 0.412857 0)
(0.333502 0.72523 0)
(0.0734285 0.632886 0)
(-0.0380872 0.547314 0)
(0.0145401 0.304936 0)
(0.157301 0.362339 0)
(0.255461 0.588693 0)
(0.167692 0.553295 0)
(0.255579 0.29551 0)
(-0.173982 0.380741 0)
(0.106962 -0.0505902 0)
(-1.68883 1.55841 0)
(-1.46305 0.863958 0)
(-1.09307 0.214218 0)
(-0.695855 -0.358335 0)
(-0.406214 -0.508685 0)
(-0.238799 -0.380885 0)
(-0.197775 -0.178363 0)
(-0.144977 -0.0192831 0)
(-0.0892648 0.159805 0)
(0.242956 0.625646 0)
(0.103881 0.721247 0)
(-0.115819 0.635164 0)
(-0.0417962 0.306847 0)
(0.0832555 0.461862 0)
(0.12694 0.594777 0)
(0.0311131 0.662757 0)
(0.170292 0.464519 0)
(-0.0839191 0.331968 0)
(0.20024 -0.0853153 0)
(-1.70677 1.44792 0)
(-1.84584 0.995327 0)
(-1.31627 -0.285077 0)
(-0.713399 -0.704812 0)
(-0.3973 -0.680302 0)
(-0.256276 -0.520608 0)
(-0.248439 -0.316106 0)
(-0.311741 -0.152379 0)
(-0.339655 -0.00582458 0)
(-0.31662 0.256026 0)
(-0.0282157 0.710643 0)
(-0.238578 0.714461 0)
(-0.218784 0.467682 0)
(-0.18107 0.653498 0)
(-0.202434 0.867964 0)
(-0.234922 0.836084 0)
(0.00818703 0.609942 0)
(-0.033311 0.344884 0)
(0.199352 -0.0580228 0)
(-2.26391 1.37627 0)
(-1.91027 -0.00833407 0)
(-1.39748 -0.719425 0)
(-0.851063 -0.853277 0)
(-0.499601 -0.815393 0)
(-0.430918 -0.699828 0)
(-0.38709 -0.604913 0)
(-0.418053 -0.466589 0)
(-0.457626 -0.341311 0)
(-0.457888 -0.171362 0)
(-0.392143 0.29074 0)
(-0.359861 0.641912 0)
(-0.402115 0.472813 0)
(-0.438047 0.603107 0)
(-0.382654 0.982657 0)
(-0.415739 0.886212 0)
(-0.149975 0.72048 0)
(-0.0673523 0.399775 0)
(0.166358 -0.0408063 0)
(-2.20817 2.08556 0)
(-1.12782 -0.693761 0)
(-1.21049 -1.16381 0)
(-1.07563 -1.0603 0)
(-0.764701 -1.09806 0)
(-0.682158 -0.851994 0)
(-0.537062 0.0651226 0)
(-0.892484 0.08436 0)
(-0.730531 0.0359141 0)
(-0.575715 0.0377234 0)
(-0.499044 0.018954 0)
(-0.515995 0.469009 0)
(-0.634697 0.493156 0)
(-0.707451 0.574427 0)
(-0.536457 0.804976 0)
(-0.389068 0.669869 0)
(-0.115488 0.508816 0)
(-0.0991021 0.382477 0)
(0.117462 -0.000607899 0)
(-1.53337 0.938298 0)
(-0.999099 -1.17222 0)
(-1.20822 -1.33815 0)
(-1.34448 -1.20677 0)
(-1.2473 -1.24822 0)
(-1.29749 -0.887801 0)
(-1.31528 -0.993282 0)
(-1.14579 -0.991549 0)
(-0.845032 -0.97121 0)
(-0.647915 -0.729032 0)
(-0.563041 -0.0860252 0)
(-0.636923 0.22521 0)
(-0.716262 0.527519 0)
(-0.663447 0.548634 0)
(-0.398874 0.594984 0)
(-0.135639 0.446256 0)
(0.0068489 0.357134 0)
(-0.0637126 0.375492 0)
(0.0838555 0.0846001 0)
(-0.864259 0.150448 0)
(-1.05222 -1.19293 0)
(-1.3172 -1.30505 0)
(-1.4146 -1.21914 0)
(-1.43422 -1.10221 0)
(-1.5607 -0.855281 0)
(-1.52576 -0.757889 0)
(-1.22395 -0.961646 0)
(-0.992298 -1.03289 0)
(-0.880779 -0.879065 0)
(-0.840404 -0.292279 0)
(-0.672407 0.133828 0)
(-0.75889 0.388648 0)
(-0.597889 0.460835 0)
(-0.278296 0.479053 0)
(-0.0422567 0.438692 0)
(0.0376204 0.374943 0)
(-0.0748843 0.36019 0)
(0.0481923 0.121084 0)
(-0.467709 0.272132 0)
(-0.807452 -0.886459 0)
(-1.39231 -1.12924 0)
(-1.38719 -1.22924 0)
(-1.44409 -1.01075 0)
(-1.41334 -0.951351 0)
(-1.42117 -0.911532 0)
(-1.40577 -1.061 0)
(-1.30872 -1.1744 0)
(-1.41168 -1.04047 0)
(-1.02485 -0.473205 0)
(-0.795221 -0.047802 0)
(-0.783485 0.197913 0)
(-0.525993 0.323295 0)
(-0.160082 0.359288 0)
(-0.123691 0.32192 0)
(-0.108577 0.367808 0)
(-0.15979 0.19577 0)
(0.0254977 0.106132 0)
(-0.109018 0.295133 0)
(-0.199916 -0.361385 0)
(-0.965741 -1.01216 0)
(-1.21761 -1.1753 0)
(-1.28803 -1.12366 0)
(-1.35323 -0.95839 0)
(-1.2018 -0.928321 0)
(-1.26468 -0.714959 0)
(-1.55535 -0.991295 0)
(-1.80661 -1.06672 0)
(-1.60485 -0.847145 0)
(-1.11591 -0.341506 0)
(-0.977461 -0.000954325 0)
(-0.633961 0.0782963 0)
(-0.46441 0.120476 0)
(-0.504487 0.185265 0)
(-0.456904 0.387157 0)
(-0.313575 0.139786 0)
(0.0119965 0.0264539 0)
(0.259909 0.126464 0)
(0.259319 -0.0674101 0)
(-0.143429 -0.407398 0)
(-0.750433 -1.08213 0)
(-1.12851 -1.15803 0)
(-1.23544 -1.03006 0)
(-1.25796 -0.876248 0)
(-1.10577 -0.704477 0)
(-1.19714 -0.420504 0)
(-1.70521 -0.582603 0)
(-1.87586 -0.846581 0)
(-1.64639 -0.757588 0)
(-1.4926 -0.254668 0)
(-1.17562 0.0369772 0)
(-0.953924 0.0818258 0)
(-0.78629 0.158934 0)
(-0.668437 0.209119 0)
(-0.530321 0.244375 0)
(-0.070685 0.153204 0)
(0.57196 0.111342 0)
(0.453348 0.0210998 0)
(0.304517 0.00434716 0)
(-0.240641 -0.462783 0)
(-0.876312 -1.01075 0)
(-1.11764 -1.0425 0)
(-1.20981 -0.903047 0)
(-1.09798 -0.725543 0)
(-0.906217 -0.574652 0)
(-0.848895 -0.57595 0)
(-0.965457 -0.635957 0)
(-1.17781 -0.699688 0)
(-1.25525 -0.416715 0)
(-1.00455 -0.173884 0)
(-0.640947 0.0585699 0)
(-0.43797 0.152594 0)
(-0.299156 0.16904 0)
(-0.216399 0.199424 0)
(-0.0230987 0.15664 0)
(0.687729 0.193718 0)
(0.546794 0.127887 0)
(0.439446 0.154578 0)
(0.314461 0.0896709 0)
(-0.35817 -0.479568 0)
(-0.945651 -0.947064 0)
(-1.05479 -0.947529 0)
(-1.07371 -0.802243 0)
(-0.930623 -0.647026 0)
(-0.824199 -0.568911 0)
(-0.810105 -0.56666 0)
(-0.836148 -0.474822 0)
(-0.801861 -0.277875 0)
(-0.709184 -0.101184 0)
(-0.565996 0.0693628 0)
(-0.411348 0.204227 0)
(-0.256086 0.272301 0)
(-0.168926 0.21239 0)
(0.00770135 0.0995353 0)
(0.670519 0.28103 0)
(0.563722 0.216365 0)
(0.498205 0.236489 0)
(0.444869 0.227077 0)
(0.329859 0.113075 0)
(-0.424092 -0.546518 0)
(-0.93394 -0.909222 0)
(-0.96672 -0.887259 0)
(-0.926675 -0.786599 0)
(-0.845744 -0.695244 0)
(-0.812258 -0.618414 0)
(-0.790676 -0.514224 0)
(-0.77197 -0.38245 0)
(-0.749548 -0.26266 0)
(-0.686857 -0.113689 0)
(-0.562847 0.0167135 0)
(-0.433981 0.100968 0)
(-0.241827 0.080224 0)
(-0.0829695 0.0661936 0)
(0.567839 0.332214 0)
(0.526684 0.259281 0)
(0.504346 0.264145 0)
(0.502533 0.266952 0)
(0.499128 0.224031 0)
(0.400436 0.117214 0)
(-0.410753 -0.511296 0)
(-0.90731 -0.767188 0)
(-0.941991 -0.813551 0)
(-0.894281 -0.759859 0)
(-0.867096 -0.679061 0)
(-0.873391 -0.566747 0)
(-0.88509 -0.477232 0)
(-0.86174 -0.436839 0)
(-0.744917 -0.33787 0)
(-0.595963 -0.1855 0)
(-0.444861 -0.0531758 0)
(-0.328009 0.0384741 0)
(-0.208089 0.213164 0)
(0.481731 0.332031 0)
(0.481732 0.271251 0)
(0.486798 0.252851 0)
(0.516321 0.253199 0)
(0.555764 0.231843 0)
(0.595614 0.180698 0)
(0.544729 0.0681389 0)
(0.0280843 -0.386191 0)
(-0.41708 -0.491854 0)
(-0.754879 -0.427277 0)
(-0.859988 -0.406762 0)
(-0.848904 -0.273357 0)
(-0.833012 -0.0908881 0)
(-0.827312 0.0582097 0)
(-0.850627 0.123828 0)
(-0.847762 0.146128 0)
(-0.714894 0.28311 0)
(-0.458957 0.708475 0)
(-0.287794 1.23353 0)
)
;

boundaryField
{
    leftWall
    {
        type            fixedValue;
        value           nonuniform 0();
    }
    rightWall
    {
        type            fixedValue;
        value           uniform (0 0 0);
    }
    lowerWall
    {
        type            fixedValue;
        value           uniform (0 0 0);
    }
    atmosphere
    {
        type            fluxCorrectedVelocity;
        value           nonuniform 0();
    }
    defaultFaces
    {
        type            empty;
    }
    procBoundary1to0
    {
        type            processor;
        value           nonuniform List<vector> 
26
(
(-0.0435133 0.000487832 0)
(-0.0309402 -0.00926861 0)
(-0.0156677 -0.0159187 0)
(-0.0228124 -0.031263 0)
(-0.0448525 -0.0486007 0)
(-0.0612894 -0.0581009 0)
(-0.0565244 -0.0813365 0)
(-0.0407388 -0.122062 0)
(0.0176215 -0.1068 0)
(0.251557 -0.0126724 0)
(0.147977 0.177283 0)
(-0.544252 0.356379 0)
(-1.09751 0.636288 0)
(-1.01237 0.304572 0)
(-0.847138 0.20122 0)
(-0.659205 0.489596 0)
(-1.56504 1.56669 0)
(-1.56504 1.56669 0)
(-1.40634 1.70403 0)
(-1.10748 1.54506 0)
(-0.411756 1.46013 0)
(0.227652 1.29442 0)
(0.454443 1.04402 0)
(0.429005 0.822185 0)
(0.356611 0.664285 0)
(0.304275 0.544127 0)
)
;
    }
    procBoundary1to3
    {
        type            processor;
        value           nonuniform List<vector> 
23
(
(0.325982 0.429236 0)
(0.356896 0.406772 0)
(0.380456 0.383652 0)
(0.402312 0.355308 0)
(0.42533 0.315952 0)
(0.445253 0.264846 0)
(0.463704 0.231882 0)
(0.495257 0.219136 0)
(0.54785 0.192008 0)
(0.589815 0.136741 0)
(0.645178 0.0286833 0)
(0.570216 -0.112119 0)
(0.323719 -0.456106 0)
(-0.0550165 -0.670717 0)
(-0.530079 -0.795885 0)
(-0.782764 -0.891772 0)
(-0.893044 -0.919621 0)
(-0.958633 -0.908228 0)
(-1.05913 -0.847748 0)
(-1.2017 -0.758057 0)
(-1.26388 -0.793658 0)
(-0.942054 -1.24773 0)
(-0.492571 -1.76004 0)
)
;
    }
}


// ************************************************************************* //
