/*--------------------------------*- C++ -*----------------------------------*\
| =========                 |                                                 |
| \\      /  F ield         | OpenFOAM: The Open Source CFD Toolbox           |
|  \\    /   O peration     | Version:  2.4.0                                 |
|   \\  /    A nd           | Web:      www.OpenFOAM.org                      |
|    \\/     M anipulation  |                                                 |
\*---------------------------------------------------------------------------*/
FoamFile
{
    version     2.0;
    format      ascii;
    class       volVectorField;
    location    "0.75";
    object      U.mercury;
}
// * * * * * * * * * * * * * * * * * * * * * * * * * * * * * * * * * * * * * //

dimensions      [0 1 -1 0 0 0 0];

internalField   nonuniform List<vector> 
559
(
(-0.034614 -0.00902623 0)
(-0.0146593 -0.0294435 0)
(-2.54347e-05 -0.0310742 0)
(-0.00264403 -0.0362359 0)
(-0.00314248 -0.0451713 0)
(-0.0126045 -0.0581495 0)
(-0.015348 -0.0857688 0)
(-0.0076621 -0.156258 0)
(-0.189027 -0.13337 0)
(-0.0591629 -0.264456 0)
(0.123921 -0.227108 0)
(0.279885 -0.193096 0)
(0.394551 -0.168751 0)
(0.467313 -0.1671 0)
(0.514181 -0.176486 0)
(0.550759 -0.184498 0)
(0.594509 -0.188805 0)
(0.646449 -0.188585 0)
(0.695597 -0.18911 0)
(0.734863 -0.196638 0)
(0.73577 -0.210368 0)
(0.717087 -0.210227 0)
(0.6547 -0.179855 0)
(0.477539 -0.143348 0)
(0.197034 -0.103172 0)
(-0.0857066 -0.15647 0)
(-0.0224406 -0.197496 0)
(-0.247769 0.123297 0)
(0.238325 -0.165513 0)
(0.394905 -0.197765 0)
(0.467717 -0.147898 0)
(0.533172 -0.0880555 0)
(0.570904 -0.0323129 0)
(0.597347 -0.00305433 0)
(0.618374 0.00671913 0)
(0.636472 0.00175282 0)
(0.661988 -0.012505 0)
(0.694427 -0.00682212 0)
(0.715903 0.0193488 0)
(0.705029 0.0636101 0)
(0.712128 0.110208 0)
(0.671313 0.184339 0)
(0.535032 0.22136 0)
(0.321778 0.18697 0)
(0.0429811 0.14588 0)
(-0.0772345 0.0500346 0)
(-0.129454 -0.0871871 0)
(0.319108 -0.517652 0)
(0.471691 -0.627949 0)
(0.542926 -0.701526 0)
(0.667282 -0.682246 0)
(0.745531 -0.525823 0)
(0.762791 -0.454934 0)
(0.740362 -0.409763 0)
(0.721546 -0.408135 0)
(0.690011 -0.418081 0)
(0.650986 -0.4054 0)
(0.59052 -0.418076 0)
(0.493771 -0.355743 0)
(0.446021 -0.298322 0)
(0.4835 -0.0721847 0)
(0.475783 0.133309 0)
(0.319656 0.192933 0)
(0.0649029 0.124589 0)
(-0.0653674 -0.124716 0)
(0.399643 -0.344667 0)
(0.426943 -0.635912 0)
(0.39795 -0.791436 0)
(0.40328 -0.88354 0)
(0.431691 -0.8622 0)
(0.529782 -0.521601 0)
(0.604177 -0.250164 0)
(0.625384 -0.203985 0)
(0.659194 -0.204572 0)
(0.652826 -0.210674 0)
(0.631834 -0.209251 0)
(0.599532 -0.270738 0)
(0.515071 -0.550177 0)
(0.480609 -0.70774 0)
(0.127372 -0.421068 0)
(0.265611 0.0867705 0)
(0.253801 0.224659 0)
(0.0904331 0.196147 0)
(-0.0238193 -0.0106286 0)
(0.368434 -0.74503 0)
(0.336634 -0.790078 0)
(0.367019 -0.844 0)
(0.399177 -0.900609 0)
(0.403641 -0.71795 0)
(0.457452 -0.268501 0)
(0.485121 -0.173678 0)
(0.512086 -0.197684 0)
(0.550947 -0.2239 0)
(0.58721 -0.20564 0)
(0.600019 -0.155998 0)
(0.588419 -0.0479056 0)
(0.508071 -0.0191356 0)
(0.315674 -0.0145557 0)
(0.0207451 -0.250841 0)
(-0.113465 -0.00629562 0)
(0.175208 0.233466 0)
(0.070194 0.247604 0)
(0.103507 -0.046508 0)
(0.332138 -0.800651 0)
(0.318254 -0.822959 0)
(0.342103 -0.86268 0)
(0.336272 -0.889007 0)
(0.33312 -0.50444 0)
(0.400078 -0.220488 0)
(0.442983 -0.132096 0)
(0.459421 -0.132582 0)
(0.465988 -0.229595 0)
(0.491107 -0.244675 0)
(0.509249 -0.192568 0)
(0.537636 -0.0575489 0)
(0.498859 0.0445906 0)
(0.3032 0.105134 0)
(-0.0619616 -0.137981 0)
(-0.152353 -0.00168573 0)
(0.0672901 0.132289 0)
(0.0031277 0.263696 0)
(0.156033 -0.00971203 0)
(0.343369 -0.827304 0)
(0.33337 -0.873834 0)
(0.328214 -0.959403 0)
(0.25813 -0.840848 0)
(0.232228 -0.435368 0)
(0.315272 -0.259281 0)
(0.383772 -0.174948 0)
(0.417443 -0.13478 0)
(0.427283 -0.141396 0)
(0.425113 -0.144109 0)
(0.439673 -0.114881 0)
(0.487989 -0.0455558 0)
(0.483801 0.0633747 0)
(0.274186 0.131461 0)
(-0.132318 -0.113719 0)
(-0.224001 -0.0361091 0)
(-0.138745 0.0825537 0)
(-0.123115 0.205537 0)
(0.174865 -0.21548 0)
(0.332101 -0.829643 0)
(0.318205 -0.895194 0)
(0.335771 -0.990637 0)
(0.184847 -0.716483 0)
(0.0989736 -0.302459 0)
(0.258344 -0.236435 0)
(0.360422 -0.154767 0)
(0.406657 -0.0978886 0)
(0.409443 -0.0656962 0)
(0.38412 -0.0684494 0)
(0.357694 -0.0547901 0)
(0.3797 -0.0105717 0)
(0.429232 0.114631 0)
(0.310721 0.220664 0)
(-0.0934242 -0.137621 0)
(-0.215152 -0.0546351 0)
(-0.240904 -0.00869725 0)
(-0.273699 0.0553862 0)
(0.210122 -0.442088 0)
(-0.00693302 -0.294149 0)
(0.292136 -0.437691 0)
(0.182176 -0.210702 0)
(-0.524362 0.0694331 0)
(-0.810202 0.375966 0)
(-0.77413 0.262008 0)
(-0.804904 0.0928213 0)
(-0.891869 0.246021 0)
(0.00201951 -0.622588 0)
(0.110212 -0.640226 0)
(0.153828 -0.723256 0)
(0.252221 -0.72137 0)
(0.309937 -0.343658 0)
(0.290758 -0.263065 0)
(0.271096 -0.274648 0)
(0.278853 -0.291917 0)
(0.142882 -0.231249 0)
(0.064773 -0.237697 0)
(-0.0499382 -0.232014 0)
(-0.138831 -0.144759 0)
(-0.803018 0.395025 0)
(-0.895476 0.491081 0)
(-1.02976 0.546783 0)
(-1.09759 0.61549 0)
(-0.870112 0.397889 0)
(-0.928755 0.409461 0)
(-1.19229 0.42306 0)
(-1.30901 0.491894 0)
(-0.886262 0.237743 0)
(-1.1001 0.176827 0)
(-1.1986 0.248022 0)
(-1.39049 0.168995 0)
(-0.964237 0.21969 0)
(-1.1943 0.60849 0)
(-1.47714 1.18894 0)
(-1.76584 1.48066 0)
(-1.42546 1.21146 0)
(-1.82822 2.14281 0)
(-1.95426 2.48731 0)
(-2.01989 2.3618 0)
(-1.68974 2.04171 0)
(-1.75471 2.20848 0)
(-1.59525 2.08795 0)
(-1.35153 1.42731 0)
(-1.40641 1.98032 0)
(-1.2078 1.93626 0)
(-0.909141 1.5429 0)
(-0.657422 1.04658 0)
(-0.868937 1.61534 0)
(-0.637209 1.36206 0)
(-0.450908 1.10424 0)
(-0.233163 0.723242 0)
(-0.209011 1.36234 0)
(-0.0456533 1.08603 0)
(0.0273664 0.823877 0)
(0.145347 0.498978 0)
(0.362303 1.15534 0)
(0.479505 0.956225 0)
(0.511932 0.734124 0)
(0.559259 0.449365 0)
(0.577955 0.903414 0)
(0.675493 0.776915 0)
(0.702597 0.605126 0)
(0.727224 0.432749 0)
(0.552016 0.721974 0)
(0.625558 0.626599 0)
(0.674284 0.552194 0)
(0.700088 0.445454 0)
(0.457073 0.596238 0)
(0.512255 0.535095 0)
(0.544807 0.485045 0)
(0.574848 0.420817 0)
(0.377278 0.499681 0)
(0.416667 0.462726 0)
(0.44266 0.428724 0)
(0.466513 0.387171 0)
(0.296019 -0.780629 0)
(0.32754 -0.920715 0)
(0.24542 -0.985532 0)
(-0.412961 -0.448231 0)
(-0.310016 -0.419595 0)
(-0.0057529 -0.343777 0)
(0.212051 -0.238712 0)
(0.354775 -0.156749 0)
(0.376043 -0.100031 0)
(0.330168 -0.0798505 0)
(0.287517 -0.0844108 0)
(0.287545 -0.0390661 0)
(0.352081 0.105383 0)
(0.31945 0.28208 0)
(0.134421 -0.148124 0)
(-0.0281223 -0.0896627 0)
(-0.108257 -0.0687233 0)
(-0.229076 -0.164943 0)
(0.237881 -0.591039 0)
(0.181711 -0.410514 0)
(-0.597077 -0.4551 0)
(-0.964059 -0.306802 0)
(-0.818628 -0.573215 0)
(-0.648903 -0.716659 0)
(-0.397135 -0.65956 0)
(-0.13811 -0.506286 0)
(0.145613 -0.300613 0)
(0.354134 -0.0813161 0)
(0.320443 -0.0100037 0)
(0.204446 -0.0123444 0)
(0.176448 0.0121159 0)
(0.175856 0.114112 0)
(0.276654 0.286525 0)
(0.288251 0.289456 0)
(0.134946 -0.260472 0)
(0.170476 -0.209516 0)
(0.153783 -0.348044 0)
(0.335988 -0.669833 0)
(-0.648256 0.242392 0)
(-1.08838 0.0949673 0)
(-1.00312 -0.484964 0)
(-0.868529 -0.81735 0)
(-0.71244 -0.943781 0)
(-0.501172 -0.916493 0)
(-0.358407 -0.799243 0)
(-0.17872 -0.638025 0)
(0.120152 -0.3194 0)
(0.333675 -0.0206904 0)
(0.263709 0.0340329 0)
(0.163434 0.0561284 0)
(0.112281 0.100519 0)
(0.193632 0.21093 0)
(0.249569 0.392423 0)
(0.103272 0.180175 0)
(0.275747 -0.225037 0)
(0.193251 -0.367923 0)
(0.389582 -0.633856 0)
(-1.23126 0.667285 0)
(-1.10231 0.157768 0)
(-1.03644 -0.459837 0)
(-0.901923 -1.09532 0)
(-0.664216 -1.21185 0)
(-0.506748 -1.09334 0)
(-0.418907 -0.942616 0)
(-0.306421 -0.794908 0)
(-0.189892 -0.583174 0)
(0.212438 -0.113222 0)
(0.285791 0.0850301 0)
(0.151803 0.115261 0)
(0.0851581 0.103009 0)
(0.12001 0.191388 0)
(0.150237 0.432886 0)
(0.0310152 0.396798 0)
(0.254306 -0.145933 0)
(0.134196 -0.081995 0)
(0.387967 -0.603394 0)
(-1.38239 0.486333 0)
(-1.415 -0.159622 0)
(-1.13182 -1.27221 0)
(-0.839012 -1.42608 0)
(-0.665137 -1.35649 0)
(-0.574205 -1.24966 0)
(-0.479841 -1.12089 0)
(-0.401634 -0.959574 0)
(-0.338145 -0.72609 0)
(-0.229053 -0.4046 0)
(0.21389 0.157052 0)
(0.121041 0.217331 0)
(0.041165 0.115492 0)
(0.0563745 0.184187 0)
(0.052044 0.481374 0)
(-0.0874572 0.388143 0)
(0.114458 0.245562 0)
(0.0476366 0.0974896 0)
(0.359356 -0.539508 0)
(-1.56099 -0.017708 0)
(-1.13384 -1.47269 0)
(-0.923042 -1.57786 0)
(-0.804002 -1.48974 0)
(-0.752144 -1.4304 0)
(-0.721568 -1.3775 0)
(-0.679011 -1.34577 0)
(-0.600349 -1.2407 0)
(-0.426961 -0.94436 0)
(-0.291349 -0.628103 0)
(-0.120171 -0.143623 0)
(0.060811 0.254384 0)
(-0.0082421 0.143756 0)
(-0.0617478 0.234571 0)
(-0.0196155 0.506758 0)
(-0.100846 0.354438 0)
(0.0954792 0.241973 0)
(0.116815 -0.0464004 0)
(0.317339 -0.464466 0)
(-1.40128 -0.203001 0)
(-0.912819 -1.568 0)
(-0.87121 -1.57408 0)
(-0.890763 -1.53763 0)
(-0.924792 -1.48498 0)
(-0.984096 -1.44315 0)
(-1.42228 -1.78441 0)
(-0.874296 -0.896631 0)
(-0.562369 -0.647709 0)
(-0.352667 -0.506793 0)
(-0.161579 -0.213363 0)
(0.0180933 0.196569 0)
(-0.0881039 0.266206 0)
(-0.106759 0.302106 0)
(-0.0286653 0.444196 0)
(-0.005128 0.253772 0)
(0.172884 0.129766 0)
(0.201616 -0.372319 0)
(0.264399 -0.3912 0)
(-1.17696 -0.389187 0)
(-0.897296 -1.42442 0)
(-0.957932 -1.46374 0)
(-1.00455 -1.48154 0)
(-1.00151 -1.44688 0)
(-1.10174 -1.52978 0)
(-1.13881 -1.10512 0)
(-0.826895 -0.754348 0)
(-0.522161 -0.706489 0)
(-0.341346 -0.568187 0)
(-0.191419 -0.148123 0)
(-0.15706 0.0973172 0)
(-0.144753 0.331797 0)
(-0.154771 0.307941 0)
(-0.0150927 0.319344 0)
(0.111799 0.147274 0)
(0.203698 0.0897092 0)
(0.209454 -0.469169 0)
(0.225064 -0.303061 0)
(-0.899271 -0.141602 0)
(-1.00734 -1.33522 0)
(-1.06119 -1.45318 0)
(-1.04557 -1.45682 0)
(-1.02539 -1.40751 0)
(-1.0721 -1.38752 0)
(-1.07145 -0.919804 0)
(-0.76946 -0.725592 0)
(-0.575042 -0.766176 0)
(-0.486039 -0.683775 0)
(-0.296012 -0.189854 0)
(-0.170867 0.124476 0)
(-0.16592 0.298293 0)
(-0.18982 0.300751 0)
(-0.00424366 0.232309 0)
(0.119057 0.118882 0)
(0.184406 0.0378579 0)
(0.162712 -0.485865 0)
(0.19175 -0.267617 0)
(-0.473067 0.269675 0)
(-0.82928 -0.978735 0)
(-1.12191 -1.38448 0)
(-1.05217 -1.37791 0)
(-1.02965 -1.36218 0)
(-1.00032 -1.28762 0)
(-0.942627 -1.05126 0)
(-0.895367 -0.872406 0)
(-0.833955 -0.895341 0)
(-0.803823 -0.745686 0)
(-0.464759 -0.213921 0)
(-0.328364 0.0184085 0)
(-0.261875 0.194291 0)
(-0.211118 0.22979 0)
(-0.0223417 0.0540941 0)
(0.0170195 -0.030782 0)
(0.112883 -0.219157 0)
(0.128861 -0.459195 0)
(0.162512 -0.278795 0)
(-0.108972 0.29463 0)
(-0.193574 -0.358389 0)
(-0.957091 -1.13915 0)
(-1.00033 -1.29569 0)
(-0.996456 -1.29632 0)
(-0.988635 -1.27135 0)
(-0.937307 -1.12449 0)
(-0.903479 -0.926904 0)
(-1.00845 -0.910215 0)
(-1.02634 -0.866316 0)
(-0.774079 -0.508076 0)
(-0.618736 -0.286715 0)
(-0.479737 -0.0568763 0)
(-0.353457 -0.0145437 0)
(-0.262179 -0.180699 0)
(-0.125715 -0.260037 0)
(0.0666798 -0.396163 0)
(0.118569 -0.46035 0)
(0.169386 -0.402349 0)
(0.260005 0.126054 0)
(0.259698 -0.0679075 0)
(-0.167891 -0.436046 0)
(-0.887146 -1.15548 0)
(-0.953002 -1.19384 0)
(-0.958058 -1.20214 0)
(-0.947374 -1.14274 0)
(-0.894816 -0.988189 0)
(-0.884693 -0.937815 0)
(-0.913885 -0.963423 0)
(-0.895194 -0.976092 0)
(-0.87509 -0.831005 0)
(-0.863177 -0.504585 0)
(-0.661872 -0.24024 0)
(-0.185875 -0.338855 0)
(-0.028154 -0.433408 0)
(0.0470811 -0.450893 0)
(0.141391 -0.504902 0)
(0.188684 -0.480038 0)
(0.572045 0.110893 0)
(0.45354 0.0206777 0)
(0.305054 0.00371887 0)
(-0.43174 -0.655544 0)
(-0.904359 -1.0975 0)
(-0.941016 -1.13116 0)
(-0.941208 -1.1369 0)
(-0.893332 -1.04214 0)
(-0.834292 -0.945257 0)
(-0.782854 -0.940627 0)
(-0.735712 -0.949812 0)
(-0.703772 -0.931939 0)
(-0.651737 -0.815661 0)
(-0.595911 -0.65785 0)
(-0.463312 -0.467212 0)
(-0.330396 -0.363964 0)
(-0.134913 -0.383984 0)
(0.113234 -0.456226 0)
(0.1757 -0.481396 0)
(0.687773 0.193267 0)
(0.54686 0.127449 0)
(0.439614 0.15402 0)
(0.313083 0.0851595 0)
(-0.634133 -0.799221 0)
(-0.877669 -1.04149 0)
(-0.897575 -1.06551 0)
(-0.89863 -1.06838 0)
(-0.8249 -0.969566 0)
(-0.76634 -0.916821 0)
(-0.716345 -0.926082 0)
(-0.649658 -0.887643 0)
(-0.602479 -0.824915 0)
(-0.514926 -0.738345 0)
(-0.396437 -0.655448 0)
(-0.282103 -0.577022 0)
(-0.126861 -0.507347 0)
(0.0604444 -0.477092 0)
(0.161064 -0.465009 0)
(0.670518 0.280613 0)
(0.563703 0.215925 0)
(0.498209 0.235985 0)
(0.444854 0.226339 0)
(0.308027 0.0867654 0)
(-0.687375 -0.87483 0)
(-0.868075 -1.03363 0)
(-0.87592 -1.04028 0)
(-0.852947 -1.02438 0)
(-0.785052 -0.954598 0)
(-0.720764 -0.918889 0)
(-0.652962 -0.8871 0)
(-0.607756 -0.837639 0)
(-0.532773 -0.779312 0)
(-0.425214 -0.729945 0)
(-0.287873 -0.665967 0)
(-0.133244 -0.593391 0)
(0.0115839 -0.545591 0)
(0.0864128 -0.505387 0)
(0.567806 0.331829 0)
(0.526621 0.258863 0)
(0.504262 0.263675 0)
(0.502404 0.266399 0)
(0.498944 0.223113 0)
(0.324798 0.0512717 0)
(-0.664844 -0.823994 0)
(-0.848486 -1.03892 0)
(-0.859328 -1.05726 0)
(-0.818832 -1.02922 0)
(-0.723386 -0.938685 0)
(-0.660405 -0.901351 0)
(-0.628086 -0.89174 0)
(-0.567126 -0.849953 0)
(-0.44945 -0.795068 0)
(-0.304187 -0.714205 0)
(-0.147831 -0.653204 0)
(-0.0432437 -0.666277 0)
(0.00204466 -0.684525 0)
(0.481676 0.331684 0)
(0.481654 0.270866 0)
(0.486689 0.252433 0)
(0.516174 0.252744 0)
(0.555572 0.231392 0)
(0.595341 0.179482 0)
(0.515026 0.0194344 0)
(-0.24117 -0.678119 0)
(-0.820865 -1.1284 0)
(-0.906391 -1.17145 0)
(-0.873397 -1.15586 0)
(-0.860622 -1.18128 0)
(-0.815216 -1.23454 0)
(-0.68913 -1.1783 0)
(-0.522079 -1.12436 0)
(-0.364675 -0.86816 0)
(-0.253314 -0.816845 0)
(-0.165181 -0.979123 0)
(-0.0936908 -0.974091 0)
)
;

boundaryField
{
    leftWall
    {
        type            fixedValue;
        value           nonuniform 0();
    }
    rightWall
    {
        type            fixedValue;
        value           uniform (0 0 0);
    }
    lowerWall
    {
        type            fixedValue;
        value           uniform (0 0 0);
    }
    atmosphere
    {
        type            fluxCorrectedVelocity;
        value           nonuniform 0();
    }
    defaultFaces
    {
        type            empty;
    }
    procBoundary1to0
    {
        type            processor;
        value           nonuniform List<vector> 
26
(
(-0.0435136 0.000487842 0)
(-0.0309405 -0.00926852 0)
(-0.015668 -0.0159185 0)
(-0.0228127 -0.0312626 0)
(-0.044853 -0.0486001 0)
(-0.0612893 -0.0581569 0)
(-0.0563074 -0.0872108 0)
(-0.0385886 -0.159077 0)
(0.0468381 -0.305203 0)
(0.255311 -0.542202 0)
(0.191879 -0.132517 0)
(-0.128583 -0.137704 0)
(-0.710341 0.281379 0)
(-0.766975 0.180638 0)
(-0.816756 0.0318695 0)
(-0.800357 0.12804 0)
(-1.45993 1.33849 0)
(-1.45993 1.33849 0)
(-1.406 1.70312 0)
(-1.10751 1.54433 0)
(-0.411936 1.45951 0)
(0.22759 1.29394 0)
(0.454473 1.0436 0)
(0.429003 0.821806 0)
(0.356566 0.66395 0)
(0.30421 0.543832 0)
)
;
    }
    procBoundary1to3
    {
        type            processor;
        value           nonuniform List<vector> 
23
(
(0.325904 0.428971 0)
(0.356819 0.4065 0)
(0.380385 0.383373 0)
(0.402245 0.355023 0)
(0.425259 0.315649 0)
(0.445163 0.264516 0)
(0.463596 0.231528 0)
(0.495126 0.218766 0)
(0.547694 0.191645 0)
(0.589654 0.136429 0)
(0.645064 0.0276703 0)
(0.57092 -0.114884 0)
(0.345579 -0.452671 0)
(0.0231561 -0.628945 0)
(-0.563035 -0.782439 0)
(-0.794583 -0.90943 0)
(-0.775091 -0.955437 0)
(-0.608825 -1.11782 0)
(-0.527649 -1.25127 0)
(-0.610568 -1.46479 0)
(-0.779873 -1.92728 0)
(-0.770789 -2.36726 0)
(-0.538859 -2.22946 0)
)
;
    }
}


// ************************************************************************* //
