/*--------------------------------*- C++ -*----------------------------------*\
| =========                 |                                                 |
| \\      /  F ield         | OpenFOAM: The Open Source CFD Toolbox           |
|  \\    /   O peration     | Version:  2.4.0                                 |
|   \\  /    A nd           | Web:      www.OpenFOAM.org                      |
|    \\/     M anipulation  |                                                 |
\*---------------------------------------------------------------------------*/
FoamFile
{
    version     2.0;
    format      ascii;
    class       volVectorField;
    location    "0.75";
    object      U.oil;
}
// * * * * * * * * * * * * * * * * * * * * * * * * * * * * * * * * * * * * * //

dimensions      [0 1 -1 0 0 0 0];

internalField   nonuniform List<vector> 
559
(
(-0.0346526 0.00117004 0)
(-0.0147171 -0.0179953 0)
(-8.82409e-05 -0.0192987 0)
(-0.00273862 -0.0244774 0)
(-0.00331369 -0.0330569 0)
(-0.0128654 -0.0474047 0)
(-0.0156183 -0.0689379 0)
(-0.0113595 -0.0752558 0)
(-0.172237 0.0525964 0)
(-0.0503239 -0.0638187 0)
(0.135225 -0.0300701 0)
(0.313801 -0.00445143 0)
(0.424951 0.0141525 0)
(0.484913 0.0134752 0)
(0.521301 0.0037112 0)
(0.553218 -0.00512362 0)
(0.599731 -0.00928247 0)
(0.650017 -0.00679568 0)
(0.692335 -0.00547502 0)
(0.723524 -0.0092095 0)
(0.720939 -0.0181182 0)
(0.676172 -0.0146217 0)
(0.572304 0.016937 0)
(0.367786 0.0450479 0)
(0.126102 0.0832284 0)
(-0.0889493 0.0342199 0)
(-0.0139447 -0.0201066 0)
(-0.23412 0.323086 0)
(0.250461 0.189219 0)
(0.408923 0.150705 0)
(0.510072 0.16243 0)
(0.56582 0.174951 0)
(0.587002 0.19701 0)
(0.606457 0.212542 0)
(0.624015 0.218276 0)
(0.639186 0.212275 0)
(0.664664 0.199991 0)
(0.697248 0.202526 0)
(0.715261 0.223956 0)
(0.693713 0.269087 0)
(0.68443 0.323563 0)
(0.606058 0.415844 0)
(0.430016 0.442188 0)
(0.248037 0.397815 0)
(0.0258362 0.341389 0)
(-0.0785126 0.24757 0)
(-0.112952 0.105765 0)
(0.393379 -0.212735 0)
(0.569838 -0.104006 0)
(0.723441 0.0407323 0)
(0.843538 0.187182 0)
(0.836817 0.194497 0)
(0.817628 0.158751 0)
(0.77363 0.122729 0)
(0.736003 0.105778 0)
(0.673756 0.113257 0)
(0.608802 0.123354 0)
(0.511071 0.17738 0)
(0.411626 0.146994 0)
(0.287196 0.134079 0)
(0.325637 0.165441 0)
(0.338394 0.307557 0)
(0.218392 0.363201 0)
(0.0427822 0.288468 0)
(-0.0571461 0.0507961 0)
(0.370206 0.0820288 0)
(0.457794 -0.165966 0)
(0.526767 -0.0885804 0)
(0.609596 -0.051063 0)
(0.678343 -0.0971676 0)
(0.727289 -0.0879383 0)
(0.742567 -0.0461159 0)
(0.734796 -0.0114612 0)
(0.715453 0.00279857 0)
(0.674668 -0.00841797 0)
(0.609049 -0.00873098 0)
(0.549209 0.00122763 0)
(0.415525 0.0232161 0)
(0.383628 0.0636255 0)
(-0.120371 0.327683 0)
(0.121572 0.293483 0)
(0.154311 0.412732 0)
(0.068427 0.399112 0)
(-0.0192755 0.175575 0)
(0.364097 -0.153836 0)
(0.363485 -0.24134 0)
(0.453099 -0.17556 0)
(0.48327 -0.0999966 0)
(0.542387 -0.00919088 0)
(0.568976 0.0471826 0)
(0.574838 0.0714571 0)
(0.596113 0.073491 0)
(0.620958 0.0733895 0)
(0.627678 0.0834719 0)
(0.611413 0.120743 0)
(0.548341 0.174053 0)
(0.429828 0.157232 0)
(0.241663 0.158492 0)
(-0.146132 0.175972 0)
(-0.285553 0.192956 0)
(0.0819403 0.390568 0)
(0.039678 0.432843 0)
(0.0938396 0.135313 0)
(0.269268 -0.232085 0)
(0.258604 -0.253097 0)
(0.360228 -0.166448 0)
(0.347952 -0.103677 0)
(0.403112 -0.0439847 0)
(0.461145 0.00588943 0)
(0.489287 0.0442657 0)
(0.499325 0.0547732 0)
(0.495481 0.0593062 0)
(0.502109 0.0680003 0)
(0.529122 0.0978291 0)
(0.514171 0.162649 0)
(0.434476 0.235188 0)
(0.229745 0.297102 0)
(-0.107815 0.30754 0)
(-0.31087 0.154484 0)
(-0.00163872 0.264527 0)
(-0.0114443 0.428811 0)
(0.154514 0.221657 0)
(0.291707 -0.395938 0)
(0.193071 -0.307496 0)
(0.260501 -0.185064 0)
(0.229263 -0.128705 0)
(0.287476 -0.114992 0)
(0.380767 -0.0542791 0)
(0.425657 -0.00754755 0)
(0.443217 0.0147867 0)
(0.440851 0.0263699 0)
(0.430826 0.0424807 0)
(0.444007 0.0695018 0)
(0.469582 0.157935 0)
(0.434135 0.271149 0)
(0.256401 0.383105 0)
(-0.0637623 0.433736 0)
(-0.312762 0.140112 0)
(-0.176635 0.218794 0)
(-0.116685 0.364715 0)
(0.189511 0.201493 0)
(0.2895 -0.524929 0)
(0.109614 -0.372782 0)
(0.0902902 -0.221631 0)
(0.0550496 -0.157577 0)
(0.161518 -0.144043 0)
(0.324233 -0.0672862 0)
(0.41631 0.00853167 0)
(0.439329 0.0548385 0)
(0.426037 0.0907415 0)
(0.385923 0.0964777 0)
(0.345477 0.126602 0)
(0.365934 0.192095 0)
(0.392862 0.330098 0)
(0.278817 0.475874 0)
(0.0373098 0.5589 0)
(-0.275489 0.175472 0)
(-0.264888 0.14946 0)
(-0.273346 0.229709 0)
(0.151689 0.210446 0)
(-0.100711 0.104255 0)
(0.290432 0.00045605 0)
(0.159949 -0.135731 0)
(-0.562489 0.131172 0)
(-0.839921 0.411013 0)
(-0.78517 0.281221 0)
(-0.816322 0.0863793 0)
(-0.826921 0.0260645 0)
(-0.0527014 -0.394788 0)
(0.0797768 -0.412706 0)
(0.129974 -0.476484 0)
(0.246256 -0.455616 0)
(0.26659 0.146159 0)
(0.183681 0.285933 0)
(0.0873148 0.270704 0)
(0.0375731 0.125782 0)
(0.0931849 -0.154104 0)
(-0.00869389 -0.153663 0)
(-0.128855 -0.139377 0)
(-0.220596 -0.0256757 0)
(-0.868564 0.475748 0)
(-0.99951 0.591104 0)
(-1.13677 0.647975 0)
(-1.20724 0.722207 0)
(-0.872005 0.426506 0)
(-0.936384 0.446497 0)
(-1.1698 0.455204 0)
(-1.32102 0.5443 0)
(-0.868397 0.256376 0)
(-1.08729 0.183843 0)
(-1.23508 0.21469 0)
(-1.33705 0.0474193 0)
(-0.978311 0.117993 0)
(-1.10477 0.0356154 0)
(-1.15287 0.0141371 0)
(-1.23028 -0.0764613 0)
(-0.986245 0.117918 0)
(-1.1494 0.0870266 0)
(-1.23412 0.295534 0)
(-1.3019 0.168413 0)
(-1.09059 0.579195 0)
(-1.64594 1.84134 0)
(-1.40967 1.31083 0)
(-1.25371 0.81186 0)
(-1.34462 1.7145 0)
(-1.31881 1.75992 0)
(-1.0101 1.31146 0)
(-0.777704 0.841768 0)
(-0.972716 1.56394 0)
(-0.732538 1.32062 0)
(-0.526497 1.0519 0)
(-0.300536 0.693508 0)
(-0.246081 1.3515 0)
(-0.0856512 1.08753 0)
(-0.0048704 0.832626 0)
(0.124002 0.512471 0)
(0.351474 1.15499 0)
(0.46788 0.960491 0)
(0.500371 0.739555 0)
(0.552725 0.457758 0)
(0.567848 0.906065 0)
(0.664937 0.781956 0)
(0.696721 0.611771 0)
(0.724518 0.437179 0)
(0.548764 0.722585 0)
(0.622335 0.628399 0)
(0.672202 0.553502 0)
(0.698644 0.446801 0)
(0.456479 0.596097 0)
(0.511953 0.53502 0)
(0.544478 0.485055 0)
(0.574491 0.420883 0)
(0.377161 0.499598 0)
(0.416586 0.462661 0)
(0.442477 0.428643 0)
(0.466359 0.387053 0)
(0.273441 -0.555524 0)
(-0.0747804 -0.362125 0)
(-0.444452 -0.139406 0)
(-0.427364 -0.26562 0)
(-0.233616 -0.285596 0)
(0.0735936 -0.206792 0)
(0.28215 -0.0958063 0)
(0.402837 -0.00417577 0)
(0.392915 0.0545885 0)
(0.319307 0.0930511 0)
(0.273553 0.0958936 0)
(0.265267 0.153781 0)
(0.324611 0.321498 0)
(0.290455 0.528087 0)
(0.306932 0.679048 0)
(0.0793447 0.456201 0)
(-0.136856 0.229127 0)
(-0.318029 0.207032 0)
(0.0233245 0.0308799 0)
(-0.276732 -0.192454 0)
(-0.978791 -0.130416 0)
(-1.00694 -0.179463 0)
(-0.81644 -0.456491 0)
(-0.57673 -0.559464 0)
(-0.301749 -0.496943 0)
(-0.0328632 -0.327129 0)
(0.235913 -0.132641 0)
(0.392608 0.0656426 0)
(0.316404 0.131782 0)
(0.168805 0.139935 0)
(0.13921 0.170145 0)
(0.145042 0.299081 0)
(0.245656 0.511768 0)
(0.311194 0.664333 0)
(0.201504 0.546668 0)
(0.152568 0.351452 0)
(-0.248658 0.0613531 0)
(0.0989137 -0.134362 0)
(-0.673494 0.347164 0)
(-1.11339 0.161849 0)
(-1.02914 -0.403214 0)
(-0.849856 -0.658577 0)
(-0.656064 -0.745401 0)
(-0.42873 -0.718913 0)
(-0.267971 -0.594531 0)
(-0.0831529 -0.427528 0)
(0.202678 -0.100984 0)
(0.340041 0.172112 0)
(0.228191 0.186611 0)
(0.109061 0.200915 0)
(0.0662576 0.257628 0)
(0.160045 0.416205 0)
(0.257027 0.633841 0)
(0.170576 0.574712 0)
(0.215215 0.451756 0)
(-0.104215 0.176585 0)
(0.118627 -0.152002 0)
(-1.26685 0.726069 0)
(-1.12978 0.244024 0)
(-1.05684 -0.290755 0)
(-0.888649 -0.874779 0)
(-0.613367 -0.994019 0)
(-0.437558 -0.874387 0)
(-0.349911 -0.710879 0)
(-0.244516 -0.576291 0)
(-0.140708 -0.375284 0)
(0.263299 0.115506 0)
(0.25251 0.256494 0)
(0.0880716 0.255949 0)
(0.0267186 0.237393 0)
(0.0729958 0.365658 0)
(0.123338 0.625257 0)
(0.0363522 0.598752 0)
(0.161712 0.509685 0)
(-0.0524184 0.224973 0)
(0.143581 -0.138602 0)
(-1.40795 0.537199 0)
(-1.46102 0.0352005 0)
(-1.2061 -1.02379 0)
(-0.84897 -1.22508 0)
(-0.61611 -1.1734 0)
(-0.490576 -1.0496 0)
(-0.39091 -0.914262 0)
(-0.348041 -0.760193 0)
(-0.317471 -0.555127 0)
(-0.222142 -0.237306 0)
(0.17267 0.316883 0)
(0.0465699 0.35229 0)
(-0.0279995 0.231934 0)
(-0.0052231 0.3252 0)
(-0.0152719 0.648795 0)
(-0.1306 0.564665 0)
(0.0552564 0.492799 0)
(-0.0151999 0.221956 0)
(0.139255 -0.0865713 0)
(-1.45511 -0.170296 0)
(-1.20079 -1.30085 0)
(-0.988655 -1.39423 0)
(-0.839043 -1.34501 0)
(-0.724363 -1.29435 0)
(-0.656367 -1.25062 0)
(-0.620306 -1.23579 0)
(-0.577889 -1.14077 0)
(-0.429329 -0.888721 0)
(-0.307744 -0.550755 0)
(-0.146543 -0.0346628 0)
(-0.0291635 0.359502 0)
(-0.109001 0.236712 0)
(-0.142355 0.369112 0)
(-0.108539 0.654471 0)
(-0.184184 0.518527 0)
(0.0311614 0.385617 0)
(0.0196698 0.177771 0)
(0.119294 -0.0196168 0)
(-0.957514 -1.3596 0)
(-0.908222 -1.47699 0)
(-0.922324 -1.49741 0)
(-0.954945 -1.45847 0)
(-0.953614 -1.44593 0)
(-1.06752 -1.55362 0)
(-1.31986 -1.94043 0)
(-0.857907 -1.41373 0)
(-0.448233 -0.966247 0)
(-0.268751 -0.59518 0)
(-0.198354 -0.190391 0)
(-0.0818642 0.279559 0)
(-0.209065 0.346962 0)
(-0.23752 0.414309 0)
(-0.135857 0.579226 0)
(-0.103235 0.392983 0)
(0.103507 0.223697 0)
(0.063263 0.154421 0)
(0.113689 0.0544622 0)
(-0.869702 -1.35523 0)
(-0.883629 -1.4222 0)
(-1.00843 -1.46054 0)
(-1.07272 -1.4644 0)
(-1.07518 -1.44925 0)
(-1.16257 -1.58006 0)
(-1.02887 -1.14243 0)
(-0.622972 -0.620411 0)
(-0.31738 -0.552449 0)
(-0.155424 -0.468716 0)
(-0.16967 -0.1631 0)
(-0.236604 0.10773 0)
(-0.259558 0.396452 0)
(-0.277496 0.390505 0)
(-0.0990926 0.418644 0)
(0.0542913 0.229445 0)
(0.152674 0.159558 0)
(0.0853468 0.168832 0)
(0.12301 0.145947 0)
(-0.923611 -1.18178 0)
(-1.05795 -1.40665 0)
(-1.11286 -1.45512 0)
(-1.12402 -1.41513 0)
(-1.11629 -1.34006 0)
(-1.15566 -1.33342 0)
(-0.867136 -0.883912 0)
(-0.516923 -0.55615 0)
(-0.323 -0.559682 0)
(-0.263628 -0.540558 0)
(-0.172637 -0.13502 0)
(-0.221725 0.11479 0)
(-0.267613 0.340583 0)
(-0.294719 0.34896 0)
(-0.0713723 0.296251 0)
(0.0806541 0.192776 0)
(0.144859 0.172882 0)
(0.05618 0.187512 0)
(0.0803563 0.24997 0)
(-0.720447 -0.389383 0)
(-1.09954 -1.45025 0)
(-1.14565 -1.47585 0)
(-1.11847 -1.37458 0)
(-1.10514 -1.28059 0)
(-1.08199 -1.19651 0)
(-0.964687 -1.02621 0)
(-0.609638 -0.709111 0)
(-0.532795 -0.738649 0)
(-0.438131 -0.533233 0)
(-0.372529 -0.171855 0)
(-0.363486 -0.00251666 0)
(-0.348795 0.206415 0)
(-0.291108 0.25173 0)
(-0.056531 0.102804 0)
(-0.00449494 0.0290899 0)
(0.054937 0.167859 0)
(-0.110743 0.263094 0)
(0.00552041 0.266624 0)
(-0.112054 0.320359 0)
(-0.242544 -0.34668 0)
(-1.09607 -1.42131 0)
(-1.06227 -1.33513 0)
(-1.05132 -1.26975 0)
(-1.04629 -1.18118 0)
(-0.999427 -1.07009 0)
(-0.849323 -0.821368 0)
(-0.745497 -0.838642 0)
(-0.660589 -0.735576 0)
(-0.59473 -0.374046 0)
(-0.634088 -0.277869 0)
(-0.539337 -0.0306711 0)
(-0.409381 0.01617 0)
(-0.3127 -0.0594573 0)
(-0.249898 0.00583064 0)
(-0.208259 0.22096 0)
(-0.29841 0.256623 0)
(-0.0328153 0.185579 0)
(0.256423 0.148389 0)
(0.280094 -0.037181 0)
(-0.755426 -0.976321 0)
(-0.934017 -1.16883 0)
(-0.975628 -1.19491 0)
(-1.02256 -1.18816 0)
(-1.01065 -1.07269 0)
(-0.920868 -0.915082 0)
(-0.853329 -0.868566 0)
(-0.829863 -0.898045 0)
(-0.838045 -0.903728 0)
(-0.949064 -0.699252 0)
(-0.945279 -0.339748 0)
(-0.790035 -0.0499835 0)
(-0.520183 -0.0100163 0)
(-0.371473 0.00974208 0)
(-0.344871 0.0734484 0)
(-0.307039 0.0797075 0)
(-0.0495692 -0.0147991 0)
(0.572488 0.120679 0)
(0.459672 0.0309643 0)
(0.313794 0.0146137 0)
(-0.846128 -1.02503 0)
(-0.933633 -1.08411 0)
(-0.971222 -1.1064 0)
(-1.00152 -1.09239 0)
(-0.95299 -0.955869 0)
(-0.840697 -0.851754 0)
(-0.779334 -0.85124 0)
(-0.763822 -0.859626 0)
(-0.793614 -0.837166 0)
(-0.809882 -0.677818 0)
(-0.729253 -0.464365 0)
(-0.54332 -0.282354 0)
(-0.394532 -0.225041 0)
(-0.263136 -0.209026 0)
(-0.175166 -0.14193 0)
(-0.0124956 -0.147423 0)
(0.68758 0.197181 0)
(0.547778 0.130195 0)
(0.444786 0.158526 0)
(-0.0364502 -0.248488 0)
(-0.895341 -1.04662 0)
(-0.915159 -1.06432 0)
(-0.939232 -1.06303 0)
(-0.949123 -1.01184 0)
(-0.856133 -0.88309 0)
(-0.778071 -0.832604 0)
(-0.743008 -0.838931 0)
(-0.723481 -0.796295 0)
(-0.69343 -0.683659 0)
(-0.617534 -0.539555 0)
(-0.484824 -0.403847 0)
(-0.357418 -0.28254 0)
(-0.238135 -0.193152 0)
(-0.148941 -0.162013 0)
(-0.00706246 -0.178023 0)
(0.669849 0.281787 0)
(0.563343 0.216606 0)
(0.499435 0.237684 0)
(0.449029 0.223196 0)
(-0.344371 -0.59623 0)
(-0.824309 -1.03365 0)
(-0.871083 -1.05271 0)
(-0.894376 -1.04353 0)
(-0.890048 -0.984798 0)
(-0.836307 -0.908659 0)
(-0.791907 -0.866276 0)
(-0.759418 -0.834731 0)
(-0.738839 -0.763467 0)
(-0.697316 -0.661367 0)
(-0.605668 -0.523732 0)
(-0.472366 -0.391562 0)
(-0.349615 -0.293602 0)
(-0.182029 -0.2979 0)
(-0.0658018 -0.305421 0)
(0.567786 0.331957 0)
(0.526225 0.258902 0)
(0.503347 0.26346 0)
(0.499304 0.263236 0)
(0.498052 0.218891 0)
(-0.566757 -0.677361 0)
(-0.794955 -0.95687 0)
(-0.851659 -1.0597 0)
(-0.879004 -1.07786 0)
(-0.865353 -1.00642 0)
(-0.85855 -0.999265 0)
(-0.853119 -0.994935 0)
(-0.820369 -0.943047 0)
(-0.750978 -0.857526 0)
(-0.634969 -0.748717 0)
(-0.502927 -0.633553 0)
(-0.351594 -0.575849 0)
(-0.221615 -0.602864 0)
(-0.15116 -0.595764 0)
(0.4815 0.331648 0)
(0.481426 0.270702 0)
(0.48604 0.25192 0)
(0.515116 0.251277 0)
(0.554965 0.230711 0)
(0.549962 0.0925648 0)
(0.153217 -0.705258 0)
(-0.657343 -1.4093 0)
(-1.12899 -1.70322 0)
(-1.26739 -1.75155 0)
(-1.313 -1.70424 0)
(-1.41397 -2.02735 0)
(-1.19333 -2.13199 0)
(-0.946392 -1.96838 0)
(-0.705772 -1.78054 0)
(-0.548833 -1.54339 0)
(-0.368326 -1.65622 0)
(-0.333548 -2.24347 0)
(-0.922207 -3.8253 0)
)
;

boundaryField
{
    leftWall
    {
        type            fixedValue;
        value           nonuniform 0();
    }
    rightWall
    {
        type            fixedValue;
        value           uniform (0 0 0);
    }
    lowerWall
    {
        type            fixedValue;
        value           uniform (0 0 0);
    }
    atmosphere
    {
        type            fluxCorrectedVelocity;
        value           nonuniform 0();
    }
    defaultFaces
    {
        type            empty;
    }
    procBoundary1to0
    {
        type            processor;
        value           nonuniform List<vector> 
26
(
(-0.0435567 0.00659736 0)
(-0.0309995 -0.00380257 0)
(-0.0157331 -0.0120499 0)
(-0.0229195 -0.0270705 0)
(-0.0450521 -0.0424764 0)
(-0.061578 -0.0514988 0)
(-0.0567173 -0.0786638 0)
(-0.0408073 -0.09134 0)
(-0.0310574 0.244671 0)
(0.244483 -0.0696217 0)
(0.166859 -0.0328911 0)
(-0.175518 -0.0682258 0)
(-0.747886 0.326981 0)
(-0.779773 0.192528 0)
(-0.823768 0.0292936 0)
(-0.855751 -0.0129951 0)
(-0.874585 0.0689265 0)
(-0.874585 0.0689265 0)
(-1.3317 1.40026 0)
(-1.14317 1.47438 0)
(-0.456329 1.45564 0)
(0.214497 1.29311 0)
(0.4445 1.0437 0)
(0.42582 0.822599 0)
(0.355961 0.66398 0)
(0.304094 0.543732 0)
)
;
    }
    procBoundary1to3
    {
        type            processor;
        value           nonuniform List<vector> 
23
(
(0.325862 0.428905 0)
(0.356771 0.406446 0)
(0.380325 0.383296 0)
(0.402172 0.354949 0)
(0.425184 0.315581 0)
(0.445041 0.264405 0)
(0.463407 0.231104 0)
(0.494864 0.21836 0)
(0.547338 0.191109 0)
(0.589512 0.136035 0)
(0.651646 0.031763 0)
(0.639169 -0.207077 0)
(0.417963 -0.56484 0)
(-0.00183751 -0.646691 0)
(-0.497133 -0.753601 0)
(-0.753927 -0.845867 0)
(-0.862828 -0.874903 0)
(-0.947147 -0.862614 0)
(-1.08727 -0.90077 0)
(-1.15465 -0.987381 0)
(-0.928072 -2.04376 0)
(-0.26241 -4.32677 0)
(0.133197 -4.40977 0)
)
;
    }
}


// ************************************************************************* //
