/*--------------------------------*- C++ -*----------------------------------*\
| =========                 |                                                 |
| \\      /  F ield         | OpenFOAM: The Open Source CFD Toolbox           |
|  \\    /   O peration     | Version:  2.4.0                                 |
|   \\  /    A nd           | Web:      www.OpenFOAM.org                      |
|    \\/     M anipulation  |                                                 |
\*---------------------------------------------------------------------------*/
FoamFile
{
    version     2.0;
    format      ascii;
    class       volVectorField;
    location    "0.75";
    object      U.water;
}
// * * * * * * * * * * * * * * * * * * * * * * * * * * * * * * * * * * * * * //

dimensions      [0 1 -1 0 0 0 0];

internalField   nonuniform List<vector> 
559
(
(-0.0346139 -0.00902502 0)
(-0.0146592 -0.0294395 0)
(-2.54654e-05 -0.0310612 0)
(-0.00264476 -0.0362026 0)
(-0.00314593 -0.0389973 0)
(-0.0137328 -0.0120466 0)
(-0.0219417 0.08278 0)
(-0.0207056 0.0284523 0)
(-0.178153 -0.022121 0)
(-0.055067 -0.103432 0)
(0.138742 -0.0318688 0)
(0.316111 -0.00617675 0)
(0.424314 0.0114269 0)
(0.480184 -0.00839532 0)
(0.520514 -0.0498447 0)
(0.553175 -0.0805095 0)
(0.595859 -0.0948304 0)
(0.647808 -0.106613 0)
(0.695946 -0.123692 0)
(0.734085 -0.137092 0)
(0.73519 -0.168554 0)
(0.714958 -0.178585 0)
(0.648911 -0.157351 0)
(0.464769 -0.125878 0)
(0.185206 -0.0685317 0)
(-0.0861338 -0.088885 0)
(-0.0190616 -0.117702 0)
(-0.237685 0.246408 0)
(0.26338 0.17126 0)
(0.416376 0.142161 0)
(0.515711 0.157461 0)
(0.573479 0.170366 0)
(0.594398 0.191358 0)
(0.61202 0.206165 0)
(0.627184 0.211659 0)
(0.643123 0.205869 0)
(0.66679 0.194674 0)
(0.695282 0.197312 0)
(0.716571 0.217418 0)
(0.706034 0.167037 0)
(0.696647 0.170154 0)
(0.660557 0.232939 0)
(0.520159 0.247482 0)
(0.308673 0.225809 0)
(0.0356844 0.223141 0)
(-0.0779435 0.159955 0)
(-0.0378102 0.0610699 0)
(0.40895 -0.227766 0)
(0.54431 -0.112453 0)
(0.671632 0.010932 0)
(0.785853 0.119787 0)
(0.798002 0.122714 0)
(0.790823 0.0991675 0)
(0.758928 0.0747585 0)
(0.726869 0.0604844 0)
(0.677643 0.062877 0)
(0.629337 0.0809007 0)
(0.562504 0.0837203 0)
(0.474477 0.0997762 0)
(0.337788 0.0862552 0)
(0.312994 0.13245 0)
(0.422201 0.183482 0)
(0.295886 0.227713 0)
(0.0577646 0.187905 0)
(-0.0610984 -0.0201262 0)
(0.376989 0.0375254 0)
(0.438326 -0.235888 0)
(0.496294 -0.204238 0)
(0.564361 -0.163597 0)
(0.641815 -0.159022 0)
(0.692764 -0.137072 0)
(0.711297 -0.0966017 0)
(0.711143 -0.0651169 0)
(0.699316 -0.0548561 0)
(0.671808 -0.0679845 0)
(0.61904 -0.0778896 0)
(0.56673 -0.088308 0)
(0.468441 -0.0769057 0)
(0.424653 -0.0510347 0)
(0.0644762 0.162803 0)
(0.175746 0.198642 0)
(0.217739 0.271084 0)
(0.0826841 0.279778 0)
(-0.0218923 0.100479 0)
(0.351704 -0.245494 0)
(0.342463 -0.34041 0)
(0.422389 -0.290553 0)
(0.44276 -0.206151 0)
(0.500408 -0.109294 0)
(0.52982 -0.0512846 0)
(0.543603 -0.0268868 0)
(0.572866 -0.0250479 0)
(0.6001 -0.0251454 0)
(0.621014 -0.0166899 0)
(0.62055 0.0191989 0)
(0.575491 0.0748479 0)
(0.487033 0.0643741 0)
(0.315502 0.0569543 0)
(-7.48273e-05 0.0439159 0)
(-0.221362 0.111875 0)
(0.136978 0.283936 0)
(0.0572562 0.32852 0)
(0.0979348 0.0722497 0)
(0.281746 -0.360704 0)
(0.260338 -0.365238 0)
(0.340067 -0.280216 0)
(0.325287 -0.19519 0)
(0.37243 -0.123951 0)
(0.429733 -0.0694642 0)
(0.463605 -0.0297393 0)
(0.479168 -0.020584 0)
(0.480378 -0.0158374 0)
(0.491104 -0.00729303 0)
(0.521353 0.0165032 0)
(0.523648 0.0745355 0)
(0.470128 0.134057 0)
(0.323165 0.18217 0)
(0.0564754 0.201602 0)
(-0.2691 0.10001 0)
(0.0336658 0.190366 0)
(-0.00291486 0.343058 0)
(0.154146 0.212821 0)
(0.322754 -0.518793 0)
(0.221685 -0.434159 0)
(0.260784 -0.296297 0)
(0.219235 -0.21392 0)
(0.262552 -0.198357 0)
(0.352761 -0.139599 0)
(0.405476 -0.0909278 0)
(0.428769 -0.0693746 0)
(0.435409 -0.0584053 0)
(0.428273 -0.0443065 0)
(0.442447 -0.0168816 0)
(0.475451 0.0635621 0)
(0.457716 0.160946 0)
(0.332967 0.247844 0)
(0.0817841 0.308293 0)
(-0.297981 0.100275 0)
(-0.161808 0.168687 0)
(-0.120041 0.317426 0)
(0.187444 0.221062 0)
(0.325022 -0.593398 0)
(0.17497 -0.487763 0)
(0.136248 -0.337443 0)
(0.0769483 -0.246909 0)
(0.154429 -0.226727 0)
(0.297576 -0.152439 0)
(0.391687 -0.0792277 0)
(0.422318 -0.0335767 0)
(0.41738 0.00318279 0)
(0.385252 0.0107499 0)
(0.351588 0.0397921 0)
(0.374135 0.0983334 0)
(0.408015 0.218341 0)
(0.325543 0.33071 0)
(0.144268 0.411441 0)
(-0.274076 0.148888 0)
(-0.261069 0.147909 0)
(-0.264618 0.226237 0)
(0.125797 0.210662 0)
(-0.0790615 0.0231232 0)
(0.300244 -0.0772633 0)
(0.188172 -0.225806 0)
(-0.471328 -0.00590274 0)
(-0.740428 0.297403 0)
(-0.696444 0.189335 0)
(-0.64396 -0.00121942 0)
(-0.734153 0.0720402 0)
(-0.0322448 -0.42976 0)
(0.0973765 -0.443818 0)
(0.146348 -0.511209 0)
(0.264409 -0.505708 0)
(0.292506 0.0453492 0)
(0.227 0.181621 0)
(0.147494 0.178097 0)
(0.118953 0.0777622 0)
(0.15124 -0.24601 0)
(0.0822019 -0.254844 0)
(-0.0206509 -0.257455 0)
(-0.0743401 -0.20496 0)
(-0.611329 0.196303 0)
(-0.557355 0.203913 0)
(-0.60376 0.200545 0)
(-0.596396 0.199581 0)
(-0.848827 0.273484 0)
(-0.909118 0.258309 0)
(-0.911158 0.233485 0)
(-1.03599 0.272759 0)
(-0.80814 0.179352 0)
(-1.19892 0.0632466 0)
(-1.21859 0.288735 0)
(-1.31535 0.2176 0)
(-0.694292 0.0181102 0)
(-1.44785 0.547102 0)
(-1.49866 1.25332 0)
(-1.76059 1.5806 0)
(-0.865133 0.392416 0)
(-1.9525 2.11525 0)
(-1.96029 2.50008 0)
(-2.01118 2.32647 0)
(-1.64302 1.90057 0)
(-1.65919 1.90447 0)
(-1.59743 2.08703 0)
(-1.35166 1.41978 0)
(-1.39655 1.95021 0)
(-1.29806 1.89734 0)
(-0.90863 1.53962 0)
(-0.660276 1.04822 0)
(-0.889755 1.62014 0)
(-0.67559 1.37633 0)
(-0.452857 1.10419 0)
(-0.233722 0.723304 0)
(-0.214311 1.36347 0)
(-0.0500871 1.08746 0)
(0.025874 0.824295 0)
(0.14513 0.499234 0)
(0.36153 1.15569 0)
(0.478785 0.956483 0)
(0.511202 0.734461 0)
(0.559123 0.44964 0)
(0.577874 0.903462 0)
(0.675382 0.776975 0)
(0.702481 0.605225 0)
(0.727184 0.432816 0)
(0.551978 0.721982 0)
(0.625527 0.626618 0)
(0.674264 0.552204 0)
(0.700079 0.445463 0)
(0.457066 0.596237 0)
(0.51225 0.535095 0)
(0.544805 0.485045 0)
(0.574849 0.420817 0)
(0.377278 0.49968 0)
(0.416667 0.462726 0)
(0.442661 0.428724 0)
(0.466515 0.387171 0)
(0.316885 -0.597682 0)
(0.121665 -0.506975 0)
(-0.245502 -0.311268 0)
(-0.311641 -0.361123 0)
(-0.202826 -0.353271 0)
(0.0825627 -0.285099 0)
(0.271164 -0.192264 0)
(0.383931 -0.110621 0)
(0.385823 -0.0440273 0)
(0.322348 7.30867e-05 0)
(0.279133 0.0078032 0)
(0.276326 0.0597183 0)
(0.333069 0.209264 0)
(0.316875 0.385692 0)
(0.32964 0.515248 0)
(0.205371 0.435479 0)
(-0.161361 0.221543 0)
(-0.274816 0.164676 0)
(0.0410973 -0.0353738 0)
(-0.0583089 -0.203278 0)
(-0.59718 -0.595789 0)
(-0.893867 -0.585611 0)
(-0.855249 -0.581758 0)
(-0.669479 -0.701896 0)
(-0.393071 -0.656311 0)
(-0.0438454 -0.426837 0)
(0.216483 -0.265993 0)
(0.382075 -0.0700654 0)
(0.321792 0.0281589 0)
(0.187788 0.0444973 0)
(0.159506 0.080219 0)
(0.161919 0.197673 0)
(0.259861 0.384876 0)
(0.316319 0.513711 0)
(0.243404 0.456263 0)
(0.166056 0.289889 0)
(-0.193851 -0.0312969 0)
(0.116575 -0.221909 0)
(-0.455132 0.111324 0)
(-1.11995 -0.20083 0)
(-1.01742 -0.608205 0)
(-0.871914 -0.954212 0)
(-0.677721 -1.02682 0)
(-0.488947 -0.945943 0)
(-0.350263 -0.823692 0)
(-0.177723 -0.744792 0)
(0.229285 -0.310943 0)
(0.377655 -0.0080192 0)
(0.246319 0.07901 0)
(0.140655 0.113923 0)
(0.0904829 0.168854 0)
(0.169892 0.303879 0)
(0.253823 0.493039 0)
(0.197859 0.475589 0)
(0.208659 0.381093 0)
(-0.0815537 0.099757 0)
(0.140288 -0.231553 0)
(-0.953097 0.406927 0)
(-1.19063 -0.0698784 0)
(-1.06869 -0.979946 0)
(-0.869784 -1.22397 0)
(-0.629704 -1.20465 0)
(-0.490538 -1.07565 0)
(-0.405258 -0.916086 0)
(-0.32116 -0.747506 0)
(-0.207513 -0.510257 0)
(0.358632 -0.156962 0)
(0.302419 0.117018 0)
(0.115998 0.164492 0)
(0.0600803 0.157248 0)
(0.0950864 0.266557 0)
(0.130633 0.498436 0)
(0.0251534 0.494678 0)
(0.151105 0.423312 0)
(-0.0358873 0.152189 0)
(0.160628 -0.204678 0)
(-1.29657 0.166983 0)
(-1.33165 -1.05321 0)
(-1.1008 -1.50755 0)
(-0.82678 -1.41752 0)
(-0.652632 -1.31066 0)
(-0.546625 -1.20381 0)
(-0.456524 -1.10792 0)
(-0.395122 -0.973967 0)
(-0.334478 -0.679091 0)
(-0.200667 -0.307966 0)
(0.254242 0.150449 0)
(0.0937506 0.254903 0)
(0.012692 0.157663 0)
(0.0285923 0.242117 0)
(0.0177348 0.529782 0)
(-0.113471 0.441637 0)
(0.0620036 0.388758 0)
(0.0159723 0.15883 0)
(0.155393 -0.13524 0)
(-1.39869 -0.866598 0)
(-1.13068 -1.77588 0)
(-0.978445 -1.64549 0)
(-0.841281 -1.45793 0)
(-0.744425 -1.38351 0)
(-0.697827 -1.36559 0)
(-0.711418 -1.44029 0)
(-0.677273 -1.37391 0)
(-0.425475 -0.936158 0)
(-0.277721 -0.606541 0)
(0.00746157 -0.0364831 0)
(0.0554111 0.258166 0)
(-0.0487755 0.174975 0)
(-0.101902 0.255853 0)
(-0.0332833 0.515711 0)
(-0.109642 0.37211 0)
(0.0728277 0.281251 0)
(0.0606277 0.121344 0)
(0.140978 -0.0561195 0)
(-1.19375 -1.17322 0)
(-0.943498 -1.67636 0)
(-0.91158 -1.5801 0)
(-0.931554 -1.4906 0)
(-0.911353 -1.4502 0)
(-0.971093 -1.52273 0)
(-1.60614 -2.40084 0)
(-0.952985 -1.19929 0)
(-0.54259 -0.712975 0)
(-0.261258 -0.483104 0)
(-0.00250841 0.00970054 0)
(0.0153515 0.19695 0)
(-0.12966 0.282901 0)
(-0.156197 0.305433 0)
(-0.0486744 0.407755 0)
(0.00965597 0.25845 0)
(0.150808 0.14446 0)
(0.106843 0.106434 0)
(0.140592 0.0210505 0)
(-1.1236 -0.985314 0)
(-0.984033 -1.46548 0)
(-1.00851 -1.47983 0)
(-1.02544 -1.46799 0)
(-1.00029 -1.43707 0)
(-1.05218 -1.56934 0)
(-0.941487 -1.1225 0)
(-0.853699 -0.77149 0)
(-0.499054 -0.638838 0)
(-0.244338 -0.448072 0)
(-0.0627686 0.0222683 0)
(-0.108399 0.180689 0)
(-0.160708 0.330102 0)
(-0.20284 0.324623 0)
(-0.0520776 0.332377 0)
(0.0964149 0.172654 0)
(0.180874 0.114387 0)
(0.123239 0.125014 0)
(0.147842 0.109406 0)
(-0.977952 -0.549317 0)
(-1.02582 -1.40229 0)
(-1.04798 -1.43509 0)
(-1.05029 -1.42822 0)
(-1.03094 -1.39278 0)
(-1.01845 -1.40911 0)
(-0.907962 -1.0967 0)
(-0.783522 -0.762906 0)
(-0.583295 -0.786739 0)
(-0.418532 -0.63345 0)
(-0.098734 -0.028389 0)
(-0.0728732 0.157711 0)
(-0.165377 0.285692 0)
(-0.21827 0.305215 0)
(-0.0336865 0.249947 0)
(0.10418 0.139406 0)
(0.168859 0.127711 0)
(0.0897204 0.145817 0)
(0.101873 0.213533 0)
(-0.492969 0.316021 0)
(-0.908116 -1.12443 0)
(-1.05025 -1.34366 0)
(-1.05764 -1.36705 0)
(-1.05042 -1.34648 0)
(-1.00054 -1.28891 0)
(-0.867191 -1.0976 0)
(-0.892738 -0.975795 0)
(-0.714537 -0.819687 0)
(-0.82886 -0.920189 0)
(-0.319318 -0.116292 0)
(-0.206484 0.0790641 0)
(-0.23537 0.180441 0)
(-0.222375 0.220362 0)
(-0.0347707 0.0645695 0)
(0.00326312 -0.0279495 0)
(0.0848696 0.117853 0)
(-0.083555 0.224875 0)
(0.0291761 0.247631 0)
(-0.109762 0.295748 0)
(-0.205336 -0.372314 0)
(-1.0324 -1.2627 0)
(-1.04025 -1.28776 0)
(-1.03114 -1.28835 0)
(-1.02411 -1.2444 0)
(-0.946057 -1.12172 0)
(-0.902696 -1.02272 0)
(-0.955827 -1.06742 0)
(-0.921201 -1.05006 0)
(-0.776124 -0.823782 0)
(-0.484025 -0.334615 0)
(-0.399626 -0.0979576 0)
(-0.335759 -0.0373852 0)
(-0.268432 -0.132474 0)
(-0.207632 -0.091196 0)
(-0.162397 0.163485 0)
(-0.252254 0.223709 0)
(-0.0135795 0.185039 0)
(0.259863 0.126206 0)
(0.260088 -0.0687803 0)
(-0.378442 -0.612902 0)
(-0.986314 -1.15324 0)
(-0.995156 -1.17927 0)
(-0.995495 -1.18693 0)
(-0.970047 -1.1175 0)
(-0.894207 -0.997366 0)
(-0.855232 -0.957975 0)
(-0.825223 -0.986203 0)
(-0.796419 -0.990883 0)
(-0.773645 -0.960801 0)
(-0.746257 -0.702454 0)
(-0.610712 -0.382559 0)
(-0.410678 -0.231499 0)
(-0.308207 -0.185368 0)
(-0.270609 -0.0474581 0)
(-0.251588 0.0147265 0)
(-0.0276076 -0.0559244 0)
(0.572043 0.110981 0)
(0.453526 0.0206032 0)
(0.305402 0.00227259 0)
(-0.78508 -0.979103 0)
(-0.951812 -1.10792 0)
(-0.960657 -1.11495 0)
(-0.965956 -1.10713 0)
(-0.912142 -1.003 0)
(-0.829503 -0.91642 0)
(-0.772187 -0.903989 0)
(-0.733295 -0.910929 0)
(-0.708838 -0.872938 0)
(-0.686952 -0.783065 0)
(-0.605005 -0.601117 0)
(-0.450487 -0.379115 0)
(-0.346986 -0.289052 0)
(-0.244512 -0.265232 0)
(-0.152232 -0.200077 0)
(0.00565558 -0.219276 0)
(0.687774 0.193295 0)
(0.546858 0.127387 0)
(0.439677 0.154043 0)
(0.27191 0.045053 0)
(-0.835123 -0.993488 0)
(-0.89978 -1.04565 0)
(-0.914572 -1.05266 0)
(-0.917303 -1.02554 0)
(-0.837452 -0.916566 0)
(-0.775382 -0.877386 0)
(-0.735983 -0.880039 0)
(-0.698403 -0.841573 0)
(-0.664208 -0.75756 0)
(-0.578733 -0.624551 0)
(-0.438447 -0.492734 0)
(-0.31708 -0.360965 0)
(-0.222923 -0.26775 0)
(-0.137266 -0.230929 0)
(0.000451856 -0.257985 0)
(0.670518 0.280612 0)
(0.563726 0.215894 0)
(0.498201 0.235937 0)
(0.44484 0.225993 0)
(0.160696 -0.0550152 0)
(-0.854333 -0.992897 0)
(-0.898989 -1.02303 0)
(-0.900491 -1.02944 0)
(-0.877536 -0.989241 0)
(-0.825922 -0.906797 0)
(-0.787579 -0.877861 0)
(-0.753456 -0.862313 0)
(-0.719706 -0.799477 0)
(-0.667454 -0.714439 0)
(-0.580925 -0.597431 0)
(-0.444587 -0.47205 0)
(-0.331211 -0.378126 0)
(-0.173117 -0.369556 0)
(-0.0629948 -0.376776 0)
(0.567814 0.331825 0)
(0.526649 0.258856 0)
(0.504286 0.263674 0)
(0.502414 0.266407 0)
(0.498734 0.221119 0)
(0.0852363 -0.139726 0)
(-0.813113 -0.908812 0)
(-0.905898 -1.02784 0)
(-0.937612 -1.06457 0)
(-0.945298 -1.04187 0)
(-0.917971 -1.00006 0)
(-0.898521 -1.00083 0)
(-0.855539 -0.9737 0)
(-0.754734 -0.893667 0)
(-0.62126 -0.778396 0)
(-0.496858 -0.683852 0)
(-0.353335 -0.662394 0)
(-0.231347 -0.726704 0)
(-0.145559 -0.741963 0)
(0.481684 0.331685 0)
(0.481671 0.270876 0)
(0.486713 0.252446 0)
(0.516197 0.252749 0)
(0.555625 0.231394 0)
(0.572815 0.158454 0)
(-0.0256906 -0.306127 0)
(-0.887549 -0.961806 0)
(-1.12718 -1.28587 0)
(-1.26771 -1.40167 0)
(-1.35029 -1.49778 0)
(-1.36781 -1.64252 0)
(-1.17191 -1.66684 0)
(-0.939684 -1.53706 0)
(-0.74174 -1.44323 0)
(-0.570318 -1.36109 0)
(-0.370269 -1.31942 0)
(-0.288212 -1.37697 0)
(-0.37194 -1.56942 0)
)
;

boundaryField
{
    leftWall
    {
        type            fixedValue;
        value           nonuniform 0();
    }
    rightWall
    {
        type            fixedValue;
        value           uniform (0 0 0);
    }
    lowerWall
    {
        type            fixedValue;
        value           uniform (0 0 0);
    }
    atmosphere
    {
        type            fluxCorrectedVelocity;
        value           nonuniform 0();
    }
    defaultFaces
    {
        type            empty;
    }
    procBoundary1to0
    {
        type            processor;
        value           nonuniform List<vector> 
26
(
(-0.0435133 0.000490497 0)
(-0.0309402 -0.00925809 0)
(-0.015668 -0.0158695 0)
(-0.0228143 -0.0311031 0)
(-0.0448589 -0.031946 0)
(-0.0628627 0.0236514 0)
(-0.0634183 0.0904687 0)
(-0.0508885 0.0482912 0)
(-0.0154245 0.120366 0)
(0.252118 -0.135551 0)
(0.194298 -0.136482 0)
(-0.0916609 -0.190583 0)
(-0.623982 0.17844 0)
(-0.690033 0.110913 0)
(-0.668833 -0.0406659 0)
(-0.789072 0.0786791 0)
(-1.49738 1.39849 0)
(-1.49738 1.39849 0)
(-1.40663 1.70839 0)
(-1.11034 1.54553 0)
(-0.414651 1.46005 0)
(0.227315 1.29408 0)
(0.454384 1.04362 0)
(0.428967 0.821812 0)
(0.35656 0.66395 0)
(0.304209 0.543832 0)
)
;
    }
    procBoundary1to3
    {
        type            processor;
        value           nonuniform List<vector> 
23
(
(0.325904 0.428971 0)
(0.356819 0.4065 0)
(0.380385 0.383373 0)
(0.402246 0.355023 0)
(0.425262 0.315652 0)
(0.445172 0.264525 0)
(0.463607 0.231544 0)
(0.495139 0.21878 0)
(0.547707 0.191643 0)
(0.589763 0.135908 0)
(0.648354 0.0279488 0)
(0.615949 -0.122462 0)
(0.435272 -0.511938 0)
(0.0489175 -0.623791 0)
(-0.499279 -0.754621 0)
(-0.76749 -0.860371 0)
(-0.876663 -0.890898 0)
(-0.953199 -0.875417 0)
(-1.04795 -0.816498 0)
(-1.16479 -0.755497 0)
(-1.21986 -0.790531 0)
(-0.910468 -1.29994 0)
(-0.47242 -1.84628 0)
)
;
    }
}


// ************************************************************************* //
