/*--------------------------------*- C++ -*----------------------------------*\
| =========                 |                                                 |
| \\      /  F ield         | OpenFOAM: The Open Source CFD Toolbox           |
|  \\    /   O peration     | Version:  2.4.0                                 |
|   \\  /    A nd           | Web:      www.OpenFOAM.org                      |
|    \\/     M anipulation  |                                                 |
\*---------------------------------------------------------------------------*/
FoamFile
{
    version     2.0;
    format      ascii;
    class       volScalarField;
    location    "1";
    object      alpha.oil;
}
// * * * * * * * * * * * * * * * * * * * * * * * * * * * * * * * * * * * * * //

dimensions      [0 0 0 0 0 0 0];

internalField   nonuniform List<scalar> 
575
(
5.74779e-14
3.7103e-13
1.30213e-12
3.39401e-12
7.55945e-12
1.541e-11
2.97843e-11
5.65315e-11
1.05876e-10
1.92836e-10
3.3907e-10
5.81444e-10
1.10955e-09
2.25558e-09
3.9543e-09
6.27809e-09
9.4878e-09
1.74955e-08
1.30293e-07
8.15222e-07
2.9885e-06
5.69605e-06
4.93888e-14
3.03281e-13
1.04454e-12
2.74357e-12
6.23916e-12
1.30488e-11
2.66183e-11
5.34597e-11
9.96517e-11
2.07439e-10
4.70445e-10
9.43824e-10
2.35511e-09
4.38359e-09
6.81574e-09
8.91214e-09
1.25523e-08
2.7789e-08
8.39038e-08
4.15771e-07
2.08019e-06
6.40784e-06
7.78478e-14
4.79311e-13
2.21671e-12
9.64879e-12
4.5942e-11
5.64938e-10
2.27744e-09
2.93424e-09
1.96551e-09
3.00909e-09
1.02772e-08
1.83196e-08
2.07691e-08
1.88399e-08
1.6791e-08
1.76367e-08
3.48311e-08
9.99848e-08
3.05088e-07
7.16201e-07
1.65134e-06
5.02366e-06
3.21673e-13
1.98088e-12
7.04047e-12
4.67578e-10
1.69743e-08
7.27492e-08
2.65021e-07
4.17254e-07
4.30508e-07
3.93987e-07
4.61813e-07
5.74358e-07
5.5079e-07
4.98437e-07
3.96044e-07
3.33124e-07
3.12558e-07
5.1421e-07
1.40481e-06
2.53962e-06
3.8129e-06
6.52522e-06
1.28279e-12
5.41853e-12
1.98761e-10
1.51874e-08
2.18918e-07
1.1053e-06
2.96522e-06
6.31955e-06
1.29626e-05
2.28262e-05
3.59187e-05
4.89773e-05
4.95149e-05
4.63556e-05
4.58798e-05
4.31771e-05
4.00628e-05
4.95012e-05
7.18302e-05
4.67926e-05
9.7176e-06
2.14251e-05
4.16069e-12
4.28665e-10
2.55928e-08
3.17873e-07
1.8009e-06
5.53854e-06
1.10679e-05
2.20101e-05
5.89588e-05
0.000174804
0.000392097
0.000606361
0.000713608
0.000775689
0.000902245
0.00106734
0.00119151
0.00127827
0.00142706
0.00119548
0.000988278
0.00728527
1.58397e-10
2.8586e-08
5.85297e-07
2.41446e-06
3.42113e-06
3.10978e-06
1.40478e-06
8.82407e-07
9.26299e-07
4.05208e-06
7.9224e-05
0.000343151
0.000680082
0.000905935
0.00123921
0.00183182
0.00249849
0.00274603
0.0029031
0.00573132
0.0277182
0.117158
4.63866e-09
1.09731e-07
4.04668e-07
4.72189e-07
5.22351e-07
4.0586e-07
4.07445e-07
4.05371e-07
4.07427e-07
4.7814e-07
0.000105218
0.000334173
0.000490525
0.000510761
0.000537694
0.000631681
0.00224609
0.00278081
0.00278113
0.0106667
0.0997299
0.360057
4.40373e-09
5.17523e-08
9.94501e-08
1.54481e-07
6.53455e-07
3.74336e-06
1.24366e-05
2.84842e-05
0.000103202
0.000350955
0.000486344
0.000626183
0.000928029
0.00131918
0.00169579
0.00369101
0.00935838
0.0117955
0.0119797
0.0205908
0.121258
0.596481
1.11909e-07
5.53513e-07
1.80688e-06
1.28195e-05
6.29908e-05
0.000118369
0.000193984
0.000375189
0.000676536
0.00308074
0.00945852
0.0119949
0.0105922
0.00839028
0.00733531
0.00790095
0.0112618
0.0190739
0.0577912
0.144117
0.316949
0.712174
0.000109305
0.000142753
0.000248383
0.000534042
0.000805678
0.000632626
0.000718539
0.003566
0.0255513
0.0900094
0.167638
0.192902
0.156871
0.104454
0.0667337
0.0390919
0.0257033
0.0525475
0.272867
0.577087
0.793628
0.850415
0.0094682
0.013592
0.0175426
0.0151269
0.00918613
0.0054097
0.0190218
0.107305
0.32111
0.538258
0.652818
0.648618
0.553083
0.389661
0.210145
0.105827
0.153252
0.386108
0.668667
0.812173
0.833799
0.832547
0.293626
0.240717
0.148774
0.066886
0.0262662
0.0515515
0.259578
0.600056
0.848731
0.876783
0.829938
0.764785
0.714367
0.54534
0.412071
0.414356
0.609906
0.785448
0.857245
0.860031
0.833364
0.813026
0.784931
0.581645
0.239296
0.116563
0.118452
0.471676
0.87517
0.922747
0.920363
0.900077
0.85315
0.82238
0.805671
0.735063
0.718116
0.794098
0.890755
0.922182
0.923206
0.922601
0.872714
0.831828
0.870995
0.725024
0.410337
0.363902
0.597834
0.872482
0.924422
0.924421
0.924416
0.817656
0.683031
0.880199
0.915464
0.910171
0.918798
0.937846
0.943769
0.9435
0.748679
0.41827
0.297362
0.396327
0.891738
0.781157
0.638105
0.734194
0.892953
0.92443
0.924428
0.924422
0.769645
0.260544
0.245984
0.762617
0.937872
0.94578
0.945836
0.945798
0.912417
0.488297
0.0769564
0.013565
0.00383114
0.000174652
0.884162
0.851078
0.835867
0.910326
0.924437
0.924444
0.808097
0.319064
0.0963245
0.0134554
0.0104896
0.0981702
0.455068
0.820157
0.89331
0.80372
0.377189
0.0433618
0.000582582
2.28936e-05
2.09058e-06
7.63957e-07
7.04424e-07
0.893977
0.913441
0.917252
0.917252
0.899087
0.351522
0.0378284
0.00747008
0.00118852
0.000135976
0.000121313
0.00359414
0.0389192
0.167323
0.252502
0.183937
0.0302404
0.000756349
1.73863e-06
1.06862e-06
6.40059e-07
4.3408e-07
3.90784e-07
0.917212
0.917252
0.917252
0.851024
0.256763
0.0107259
0.000129144
2.98249e-05
3.26216e-05
2.98775e-06
3.00836e-06
5.78388e-05
0.000804412
0.00395309
0.00736421
0.00555734
0.000444121
5.87273e-06
1.07709e-06
9.02752e-07
6.24392e-07
4.88879e-07
4.19327e-07
0.917252
0.917252
0.762035
0.198178
0.00839362
3.37448e-05
1.03414e-06
9.21544e-06
5.86052e-05
7.52683e-05
3.38264e-06
2.30807e-06
2.33976e-06
7.87669e-06
1.71083e-05
1.66742e-05
1.76654e-06
1.067e-06
9.57723e-07
1.06271e-06
1.38319e-06
9.40639e-07
6.94705e-07
0.917252
0.736358
0.136731
0.00595355
3.94723e-05
5.47994e-07
5.16788e-07
2.87419e-06
6.13156e-05
0.000184428
0.000170342
3.13643e-05
2.43889e-06
1.01324e-06
1.00129e-06
9.87562e-07
1.04431e-06
9.82163e-07
9.13684e-07
1.11566e-06
1.46791e-06
1.46821e-06
1.08861e-06
0.893358
0.172126
0.00315985
2.44167e-05
4.9273e-07
3.16668e-07
2.27229e-07
1.8967e-07
6.84645e-06
9.07455e-05
0.000201559
0.000201685
7.23893e-05
1.3165e-06
9.19809e-07
8.93031e-07
8.55908e-07
8.48012e-07
8.49433e-07
8.46315e-07
9.92793e-07
8.72813e-07
8.02567e-07
0.520266
0.00600154
9.25646e-06
4.51658e-07
1.70414e-07
1.03668e-07
8.54031e-08
6.508e-08
1.15674e-07
6.24449e-06
0.00010243
0.0001639
3.5607e-05
9.50089e-06
5.89182e-06
1.36001e-05
4.54485e-06
8.68945e-07
8.18155e-07
8.21833e-07
1.41659e-06
1.37125e-06
8.31115e-07
0.0908573
2.43338e-05
3.29951e-07
1.28777e-07
9.62631e-08
5.76239e-08
4.90963e-08
4.51081e-08
2.94209e-08
8.96373e-08
5.56598e-06
2.05441e-05
4.39775e-06
4.04188e-06
3.32791e-05
3.34428e-05
2.61733e-05
5.52027e-06
1.16895e-05
6.31014e-05
5.95468e-05
2.19261e-05
3.21323e-06
0.00442559
3.02422e-06
1.52335e-07
5.88851e-08
5.46261e-08
3.63719e-08
2.3905e-08
2.59182e-08
2.07992e-08
2.03097e-08
5.34437e-08
3.65931e-07
2.0006e-07
6.99172e-07
1.25253e-05
2.60209e-05
1.12343e-05
4.65957e-06
2.10672e-05
6.60398e-05
6.59084e-05
6.05856e-05
1.097e-05
5.42271e-05
1.14306e-06
1.12273e-07
4.88312e-08
5.18036e-08
3.74337e-08
1.56797e-08
1.3467e-08
1.50012e-08
1.37435e-08
1.28124e-08
2.57103e-08
4.53742e-08
1.55221e-07
1.03332e-06
2.80252e-06
)
;

boundaryField
{
    leftWall
    {
        type            zeroGradient;
    }
    rightWall
    {
        type            zeroGradient;
    }
    lowerWall
    {
        type            zeroGradient;
    }
    atmosphere
    {
        type            inletOutlet;
        inletValue      nonuniform 0();
        value           nonuniform 0();
    }
    defaultFaces
    {
        type            empty;
    }
    procBoundary0to1
    {
        type            processor;
        value           nonuniform List<scalar> 
26
(
7.11807e-06
1.04396e-05
1.17386e-05
1.17904e-05
2.47365e-05
0.0173572
0.248092
0.682193
0.858236
0.884455
0.85519
0.818758
0.799825
0.809745
0.624956
0.00517567
0.00517567
7.19418e-07
3.8921e-07
3.84188e-07
3.84281e-07
5.39571e-07
5.09952e-07
3.01997e-07
2.37525e-07
2.50821e-07
)
;
    }
    procBoundary0to2
    {
        type            processor;
        value           nonuniform List<scalar> 
24
(
1.06677e-06
1.17815e-06
6.73816e-06
2.69207e-05
2.11336e-05
6.16096e-06
9.24878e-07
1.51771e-07
4.13196e-07
8.51601e-08
6.12879e-08
7.18935e-08
4.55442e-08
1.48179e-08
7.25848e-09
9.79736e-09
1.13659e-08
1.09632e-08
9.40119e-09
1.65521e-08
4.53256e-08
9.82175e-08
1.06677e-06
1.58493e-07
)
;
    }
}


// ************************************************************************* //
