/*--------------------------------*- C++ -*----------------------------------*\
| =========                 |                                                 |
| \\      /  F ield         | OpenFOAM: The Open Source CFD Toolbox           |
|  \\    /   O peration     | Version:  2.4.0                                 |
|   \\  /    A nd           | Web:      www.OpenFOAM.org                      |
|    \\/     M anipulation  |                                                 |
\*---------------------------------------------------------------------------*/
FoamFile
{
    version     2.0;
    format      ascii;
    class       volScalarField;
    location    "1";
    object      alpha.air;
}
// * * * * * * * * * * * * * * * * * * * * * * * * * * * * * * * * * * * * * //

dimensions      [0 0 0 0 0 0 0];

internalField   nonuniform List<scalar> 
575
(
9.36064e-12
7.35424e-12
5.19452e-12
4.05293e-12
3.11718e-12
2.57608e-12
2.22468e-12
1.65675e-12
1.03465e-12
6.30544e-13
4.70076e-13
3.94555e-13
2.92144e-13
1.83936e-13
1.09545e-13
8.2733e-14
9.81605e-14
1.54616e-13
2.55768e-13
3.10969e-13
1.67609e-13
8.92455e-14
2.39694e-11
2.33491e-11
2.06281e-11
1.82906e-11
1.47841e-11
1.21864e-11
1.08002e-11
8.35725e-12
5.5286e-12
3.58577e-12
2.59581e-12
1.98781e-12
1.42176e-12
9.65198e-13
7.10029e-13
7.94812e-13
1.04256e-12
1.29316e-12
2.21673e-12
4.36761e-12
6.33268e-12
3.65571e-12
4.66847e-11
4.40091e-11
3.53025e-11
3.00894e-11
2.75407e-11
2.81585e-11
2.84647e-11
2.37212e-11
1.68329e-11
1.14307e-11
8.2988e-12
6.33192e-12
4.58155e-12
4.86748e-12
5.35189e-12
9.43547e-12
9.92319e-12
6.45017e-12
1.12483e-11
7.3182e-11
1.43735e-10
8.35838e-11
7.49297e-11
7.03405e-11
6.55074e-11
6.48956e-11
6.5695e-11
6.61475e-11
6.04207e-11
5.37381e-11
4.60687e-11
3.67402e-11
3.2208e-11
2.70888e-11
2.01857e-11
5.98837e-11
3.78619e-10
9.18879e-10
8.55234e-10
3.12258e-11
3.17991e-09
5.62473e-08
1.4464e-07
6.54875e-08
1.14754e-10
1.10423e-10
1.05558e-10
1.04046e-10
1.22666e-10
1.64835e-10
2.93482e-10
4.34656e-10
8.44367e-10
1.74592e-09
2.73737e-09
2.43183e-09
1.98973e-10
6.95378e-09
5.06658e-08
1.10583e-07
1.02335e-07
5.1675e-09
1.23917e-07
2.27588e-06
1.22897e-05
1.31326e-05
1.50585e-10
1.38214e-10
1.29859e-10
2.20858e-10
5.87268e-10
1.16749e-09
1.55918e-09
1.77011e-09
4.24756e-09
1.34699e-08
2.11717e-08
2.11831e-08
8.22479e-09
5.63126e-08
4.00463e-07
6.3872e-07
6.38329e-07
1.25506e-07
7.09556e-07
8.7643e-06
0.000145671
0.000895307
1.74826e-10
1.87351e-10
5.42978e-10
9.68263e-10
9.67319e-10
7.55131e-10
2.73467e-10
2.03662e-10
2.04531e-10
2.03818e-10
2.58233e-09
1.74489e-08
3.55936e-08
3.55728e-08
1.07431e-07
4.13557e-07
6.38714e-07
4.40462e-07
5.50203e-07
3.69873e-06
0.000109438
0.00177352
2.07919e-10
3.10066e-10
4.56438e-10
2.43924e-10
2.03399e-10
1.58273e-10
1.58299e-10
2.04712e-10
7.80222e-10
2.09227e-10
3.05234e-09
9.60943e-09
6.06299e-08
1.14009e-07
1.03124e-07
1.03132e-07
4.53969e-07
9.72845e-07
5.53823e-07
6.18974e-06
0.000104224
0.000464441
2.01743e-10
1.8302e-10
1.35049e-10
1.34842e-10
1.37406e-10
2.87527e-10
4.67711e-10
8.42775e-10
1.53929e-08
1.99414e-08
1.09678e-08
9.85587e-09
1.93452e-08
1.04041e-07
3.59621e-07
5.61195e-07
1.31906e-06
1.9409e-06
1.55912e-06
8.75678e-05
0.00244457
0.0043531
1.54941e-10
1.54911e-10
5.01323e-10
1.44759e-09
6.90952e-09
1.13105e-08
6.07186e-09
3.74771e-09
3.74747e-08
1.14548e-07
1.20643e-07
1.89298e-07
1.48823e-07
1.60268e-07
2.39291e-07
4.90301e-07
1.17555e-06
2.22364e-06
5.25954e-06
0.000145603
0.00132279
0.00200174
3.73035e-10
1.5417e-09
9.13045e-09
3.06589e-08
7.93071e-08
6.8102e-08
1.99544e-08
1.17602e-08
2.49256e-07
3.92558e-06
5.55209e-06
6.41518e-06
4.21166e-06
4.40595e-06
1.18837e-06
9.28653e-07
1.83477e-06
8.22854e-06
0.000520194
0.00188486
0.00188374
0.000958238
3.32874e-08
6.21058e-08
1.23704e-07
2.6101e-07
2.60989e-07
1.76281e-07
3.75637e-08
2.04842e-07
6.30753e-06
9.20766e-05
0.000763539
0.00027766
5.28414e-05
6.13645e-05
1.63593e-05
9.06042e-06
1.57229e-05
8.40336e-05
0.000715152
0.0011386
0.000328104
6.3453e-05
3.86333e-07
7.77446e-07
8.34371e-07
5.13857e-07
9.11679e-08
5.53807e-08
1.52233e-07
5.16809e-06
9.76694e-05
0.00330978
0.0312077
0.0342664
0.000285627
4.0803e-05
1.76567e-05
9.12957e-06
1.94716e-05
0.000148278
0.000341154
0.000117956
6.39111e-05
6.21073e-05
1.34082e-06
6.17145e-07
3.011e-07
2.44338e-07
9.36614e-08
5.52982e-08
1.08006e-06
0.000161316
0.0046797
0.0282221
0.0518213
0.0321403
0.000309937
1.25658e-05
1.2482e-05
1.24002e-05
4.59828e-05
0.000187562
0.000396806
0.000940104
0.00614122
0.0152089
1.88707e-06
7.02003e-07
1.28365e-06
2.58567e-06
1.19186e-06
1.35333e-07
7.65796e-05
0.00601959
0.0446395
0.162874
0.275766
0.0464506
0.000215109
1.2651e-05
2.39207e-05
0.000301181
0.00406211
0.0211923
0.224613
0.563869
0.68681
0.584074
0.00292984
0.000750724
3.11656e-05
3.93264e-06
6.51297e-05
0.00316761
0.0295849
0.0554799
0.225745
0.737726
0.744455
0.204678
0.014011
0.00180473
0.00243217
0.0156723
0.0684557
0.506755
0.92209
0.986172
0.996103
0.999825
0.0661786
0.00116406
3.13116e-05
0.00019575
0.00912828
0.0568316
0.189753
0.680089
0.903527
0.986511
0.989215
0.899726
0.534878
0.160406
0.0853807
0.184333
0.620341
0.956534
0.999416
0.999978
0.999999
1
1
0.0459628
0.000452859
0.000250815
0.0126456
0.0833106
0.647449
0.962163
0.992529
0.998812
0.999865
0.999879
0.996387
0.9608
0.831472
0.745722
0.815182
0.969696
0.999244
0.999999
1
1
1
1
0.0102358
0.00128472
0.0169874
0.124526
0.741925
0.989268
0.999872
0.999972
0.999969
0.999998
0.999998
0.999944
0.999196
0.996042
0.992624
0.994436
0.999556
0.999995
1
1
1
1
1
0.0165801
0.0266419
0.21553
0.799884
0.991591
0.999967
1
0.999992
0.999943
0.999926
0.999998
0.999999
0.999999
0.999993
0.999984
0.999984
0.999999
1
1
1
0.999999
1
1
0.039906
0.248762
0.861745
0.994024
0.999961
1
1
0.999998
0.999939
0.999816
0.999831
0.99997
0.999999
1
1
1
1
1
1
1
0.999999
1
1
0.0907109
0.82702
0.996827
0.999976
1
1
1
1
0.999993
0.99991
0.999799
0.999799
0.999929
1
1
1
1
1
1
1
1
1
1
0.477345
0.993994
0.999992
1
1
1
1
1
1
0.999994
0.999898
0.999836
0.999965
0.999991
0.999995
0.999987
0.999996
1
1
1
0.999999
0.999999
0.999999
0.909059
0.999979
1
1
0.999999
0.999999
1
1
1
1
0.999994
0.999979
0.999996
0.999996
0.999967
0.999967
0.999974
0.999995
0.999989
0.999937
0.99994
0.999978
0.999996
0.995572
0.999999
0.999999
0.999999
0.999999
0.999999
0.999999
1
1
1
1
0.999999
1
0.999999
0.999988
0.999974
0.999989
0.999996
0.999979
0.999934
0.999934
0.999939
0.999989
0.999944
0.999999
0.999999
0.999999
0.999999
0.999999
0.999999
0.999999
1
1
1
1
1
1
0.999999
0.999997
)
;

boundaryField
{
    leftWall
    {
        type            alphaContactAngle;
        thetaProperties 
6
(

(
water
mercury
)
 90 0 0 0

(
water
air
)
 90 0 0 0

(
water
oil
)
 90 0 0 0

(
mercury
air
)
 90 0 0 0

(
oil
mercury
)
 90 0 0 0

(
oil
air
)
 90 0 0 0
);
        value           nonuniform List<scalar> 
26
(
9.36064e-12
2.39694e-11
4.66847e-11
7.49297e-11
1.14754e-10
1.50585e-10
1.74826e-10
2.07919e-10
2.01743e-10
1.54941e-10
3.73035e-10
3.32874e-08
3.86333e-07
1.34082e-06
1.88707e-06
0.00292984
0.0661786
0.0459628
0.0102358
0.0165801
0.039906
0.0907109
0.477345
0.909059
0.995572
0.999944
)
;
    }
    rightWall
    {
        type            alphaContactAngle;
        thetaProperties 
6
(

(
water
mercury
)
 90 0 0 0

(
water
air
)
 90 0 0 0

(
water
oil
)
 90 0 0 0

(
mercury
air
)
 90 0 0 0

(
oil
mercury
)
 90 0 0 0

(
oil
air
)
 90 0 0 0
);
        value           nonuniform 0();
    }
    lowerWall
    {
        type            alphaContactAngle;
        thetaProperties 
6
(

(
water
mercury
)
 90 0 0 0

(
water
air
)
 90 0 0 0

(
water
oil
)
 90 0 0 0

(
mercury
air
)
 90 0 0 0

(
oil
mercury
)
 90 0 0 0

(
oil
air
)
 90 0 0 0
);
        value           nonuniform List<scalar> 
22
(
9.36064e-12
7.35424e-12
5.19452e-12
4.05293e-12
3.11718e-12
2.57608e-12
2.22468e-12
1.65675e-12
1.03465e-12
6.30544e-13
4.70076e-13
3.94555e-13
2.92144e-13
1.83936e-13
1.09545e-13
8.2733e-14
9.81605e-14
1.54616e-13
2.55768e-13
3.10969e-13
1.67609e-13
8.92455e-14
)
;
    }
    atmosphere
    {
        type            inletOutlet;
        inletValue      nonuniform 0();
        value           nonuniform 0();
    }
    defaultFaces
    {
        type            empty;
    }
    procBoundary0to1
    {
        type            processor;
        value           nonuniform List<scalar> 
26
(
2.67545e-13
1.88101e-12
1.2488e-11
1.35641e-08
3.04638e-06
0.000655107
0.0028444
0.00243131
0.00349482
0.00114943
6.18256e-05
6.19241e-05
6.20178e-05
0.0106486
0.325868
0.994747
0.994747
1
0.999999
1
1
1
1
1
1
1
)
;
    }
    procBoundary0to2
    {
        type            processor;
        value           nonuniform List<scalar> 
24
(
0.999999
0.999999
0.999993
0.999973
0.999979
0.999994
0.999999
0.999998
0.999998
0.999999
0.999999
0.999999
0.999999
0.999999
0.999999
0.999999
1
1
1
1
1
1
0.999999
1
)
;
    }
}


// ************************************************************************* //
