/*--------------------------------*- C++ -*----------------------------------*\
| =========                 |                                                 |
| \\      /  F ield         | OpenFOAM: The Open Source CFD Toolbox           |
|  \\    /   O peration     | Version:  2.4.0                                 |
|   \\  /    A nd           | Web:      www.OpenFOAM.org                      |
|    \\/     M anipulation  |                                                 |
\*---------------------------------------------------------------------------*/
FoamFile
{
    version     2.0;
    format      ascii;
    class       volScalarField;
    location    "1";
    object      alpha.mercury;
}
// * * * * * * * * * * * * * * * * * * * * * * * * * * * * * * * * * * * * * //

dimensions      [0 0 0 0 0 0 0];

internalField   nonuniform List<scalar> 
575
(
1
1
1
1
1
1
1
1
1
1
1
1
1
1
1
1
1
1
1
0.999999
0.999997
0.999994
0.999999
0.999999
0.999999
0.999999
1
1
1
1
1
1
1
1
1
1
1
1
1
1
1
0.999999
0.999998
0.999993
0.999983
0.999994
0.999998
0.999999
0.999999
0.999999
0.999999
0.999999
0.999999
1
1
1
1
1
1
1
1
1
0.999999
0.999999
0.999998
0.999995
0.999817
0.999923
0.999972
0.999983
0.99999
0.999996
0.999992
0.999988
0.999991
0.999995
0.999996
0.999996
0.999997
0.999998
0.999997
0.999996
0.999994
0.999986
0.999956
0.999934
0.99994
0.999965
0.998432
0.999442
0.999873
0.999948
0.999935
0.999114
0.995135
0.991493
0.991054
0.993575
0.994249
0.995171
0.996431
0.996604
0.99589
0.994643
0.99335
0.989252
0.981837
0.978543
0.98073
0.982819
0.994711
0.998131
0.999521
0.998901
0.975776
0.833906
0.625595
0.510259
0.473549
0.488924
0.574607
0.670961
0.73407
0.746688
0.724254
0.687939
0.660482
0.600941
0.522636
0.48943
0.522845
0.545946
0.990136
0.994823
0.963048
0.643319
0.222066
0.0308013
0.00298753
0.00075451
0.000565992
0.000559516
0.000486677
0.00111889
0.0051829
0.0130728
0.0166445
0.0141159
0.0113777
0.00721881
0.00377014
0.00212841
0.00117258
0.00214833
0.982695
0.909195
0.407937
0.0318735
0.00252173
0.000567038
0.000563093
0.000566179
0.000563246
0.000565107
0.000459269
0.000231562
7.50308e-05
5.53689e-05
2.82933e-05
8.07111e-06
6.96764e-06
7.45834e-06
1.04656e-05
1.51585e-05
5.89408e-05
0.000894096
0.855718
0.31746
0.0293098
0.00237079
0.000583303
0.000561523
0.000554187
0.000535654
0.000462668
0.00021415
8.12787e-05
3.40728e-05
1.85957e-05
1.08474e-05
8.9691e-06
7.00783e-06
5.02198e-06
5.07494e-06
1.24396e-05
3.21895e-05
4.55019e-05
0.000733619
0.474383
0.0318289
0.000712625
0.000555253
0.000502794
0.000447843
0.000371331
0.000191463
8.38829e-05
4.25152e-05
2.82398e-05
2.094e-05
1.49941e-05
1.08751e-05
7.95767e-06
6.59694e-06
5.09292e-06
5.58844e-06
3.5604e-05
8.81098e-05
0.000105558
8.66509e-05
0.103282
0.00789587
0.000467681
0.000207533
0.000101079
6.89824e-05
4.22641e-05
2.37129e-05
1.65343e-05
1.50587e-05
1.37564e-05
1.18122e-05
9.35297e-06
6.66987e-06
6.02832e-06
6.48087e-06
1.12992e-05
2.33326e-05
8.90647e-05
0.000115536
0.000126803
0.00013834
0.0127379
0.00178954
5.2396e-05
1.93054e-05
1.45618e-05
9.94761e-06
6.59377e-06
7.67945e-06
1.41142e-05
2.06495e-05
2.28354e-05
1.88423e-05
1.29952e-05
9.43116e-06
1.02743e-05
1.6366e-05
4.5605e-05
7.53105e-05
9.10602e-05
0.000102825
0.000115569
0.00013702
0.000422035
6.36615e-05
9.59413e-07
4.92263e-07
4.77797e-07
7.79602e-07
4.83904e-06
2.10442e-05
3.90484e-05
3.90264e-05
3.70551e-05
2.82044e-05
2.10427e-05
2.1115e-05
3.36401e-05
4.9141e-05
5.6806e-05
6.06126e-05
6.03133e-05
6.4126e-05
7.82926e-05
0.000110572
6.47742e-07
5.96687e-08
1.69039e-09
1.83285e-09
8.276e-08
7.22026e-06
2.95739e-05
3.61238e-05
3.7136e-05
3.44213e-05
3.12433e-05
3.12077e-05
3.43911e-05
3.85888e-05
4.24153e-05
4.43126e-05
4.03218e-05
3.38441e-05
2.99434e-05
2.44487e-05
3.11098e-05
4.8661e-05
2.72428e-11
3.22945e-11
2.15266e-10
9.13945e-08
3.92804e-06
1.8304e-05
2.73187e-05
3.02287e-05
2.03559e-05
1.60473e-05
2.44843e-05
3.72843e-05
3.82141e-05
3.84268e-05
3.78291e-05
3.35612e-05
2.84717e-05
1.86752e-05
1.19141e-05
6.19017e-06
4.70294e-06
9.78386e-06
2.50819e-11
3.4089e-10
1.61863e-07
3.78638e-06
1.24555e-05
1.7521e-05
1.89055e-05
1.10809e-05
4.88938e-06
2.69654e-06
9.02685e-06
2.99142e-05
3.90984e-05
3.91002e-05
3.85713e-05
2.93233e-05
1.52818e-05
4.74899e-06
6.71237e-07
1.26151e-07
3.32873e-08
1.36523e-08
9.15386e-10
4.95343e-08
1.5832e-06
6.70512e-06
9.71393e-06
7.68376e-06
1.87528e-06
8.53455e-07
2.6354e-07
8.27565e-08
3.53687e-07
3.05756e-06
1.5528e-05
2.66895e-05
2.7328e-05
1.57471e-05
3.74243e-06
2.2541e-07
3.76036e-09
3.08644e-10
2.02647e-10
6.38879e-10
1.46023e-09
4.8735e-08
7.23949e-07
3.41149e-06
5.60902e-06
4.89016e-06
9.4601e-07
1.94529e-08
4.38514e-09
1.92798e-09
6.35758e-10
1.72286e-09
3.94319e-08
7.33153e-07
3.46256e-06
4.85508e-06
2.28831e-06
2.19694e-07
2.99659e-09
1.93457e-10
1.9353e-10
1.93127e-10
1.96436e-10
2.09926e-10
4.42014e-07
1.71726e-06
3.14047e-06
3.37826e-06
7.73562e-07
1.17979e-08
5.25912e-11
5.32121e-11
8.07698e-11
1.89707e-10
2.28637e-10
3.66996e-10
5.17389e-09
4.05718e-08
7.95837e-08
4.55838e-08
3.29962e-09
2.34682e-10
2.33702e-10
2.35678e-10
1.81569e-10
1.18064e-10
1.01751e-10
7.6429e-07
1.61239e-06
1.95096e-06
5.13368e-07
1.72804e-08
3.51839e-11
3.00426e-11
1.00471e-10
1.67593e-10
2.73247e-10
3.8197e-10
4.6592e-10
5.10865e-10
5.19312e-10
5.17824e-10
4.76982e-10
3.7313e-10
3.69418e-10
3.88067e-10
3.27178e-10
2.06616e-10
1.45681e-10
1.50289e-10
7.03189e-07
9.58639e-07
2.60835e-07
1.15301e-08
7.97775e-11
6.57553e-12
1.41109e-11
3.30184e-11
1.06313e-10
2.39265e-10
3.96262e-10
5.74211e-10
6.90763e-10
7.1978e-10
7.01032e-10
6.89606e-10
7.24537e-10
7.65321e-10
7.79598e-10
5.44732e-10
3.35287e-10
2.39193e-10
2.41926e-10
5.04845e-07
1.52545e-07
4.89012e-09
5.33017e-11
4.94203e-12
4.67575e-12
4.93064e-12
5.14308e-12
1.47313e-11
1.13442e-10
2.69528e-10
4.6575e-10
6.4915e-10
7.42834e-10
7.8223e-10
8.20549e-10
8.67893e-10
9.04067e-10
9.18195e-10
8.55281e-10
5.97259e-10
4.46884e-10
3.43369e-10
1.9873e-07
3.5031e-09
2.01058e-11
7.35078e-12
3.86264e-12
3.47644e-12
3.02057e-12
2.66303e-12
3.48721e-12
1.02229e-11
8.48257e-11
2.31098e-10
4.08238e-10
5.73601e-10
6.51074e-10
6.70238e-10
6.99835e-10
7.06259e-10
6.9094e-10
6.60675e-10
5.27524e-10
4.0454e-10
2.62156e-10
2.38056e-08
1.6775e-11
8.71288e-12
6.35256e-12
3.23788e-12
2.43538e-12
2.06144e-12
1.87056e-12
1.98047e-12
2.84382e-12
6.14421e-12
3.68895e-11
1.02213e-10
2.35949e-10
3.56198e-10
4.31619e-10
4.60871e-10
4.44202e-10
4.21788e-10
3.52215e-10
2.65195e-10
2.0208e-10
1.51225e-10
9.92152e-10
1.50082e-11
9.35563e-12
5.25626e-12
2.70676e-12
1.68389e-12
1.321e-12
1.26262e-12
1.35706e-12
1.53814e-12
2.26431e-12
4.09903e-12
1.10519e-11
3.49046e-11
9.55914e-11
1.69697e-10
2.28813e-10
2.52518e-10
2.40999e-10
2.09541e-10
1.50566e-10
1.13502e-10
6.46446e-11
4.10851e-11
1.96722e-11
9.55e-12
4.54537e-12
2.20925e-12
1.22568e-12
8.40535e-13
7.74027e-13
8.79794e-13
1.00845e-12
1.22164e-12
1.79139e-12
3.47746e-12
6.70464e-12
1.10992e-11
2.53543e-11
)
;

boundaryField
{
    leftWall
    {
        type            zeroGradient;
    }
    rightWall
    {
        type            zeroGradient;
    }
    lowerWall
    {
        type            zeroGradient;
    }
    atmosphere
    {
        type            inletOutlet;
        inletValue      nonuniform 0();
        value           nonuniform 0();
    }
    defaultFaces
    {
        type            empty;
    }
    procBoundary0to1
    {
        type            processor;
        value           nonuniform List<scalar> 
26
(
0.999993
0.999989
0.999988
0.99998
0.987708
0.479124
0.00693881
0.00389554
0.00412963
7.17826e-05
0.000147148
0.00015769
0.000134691
6.43773e-05
1.88018e-05
2.37756e-07
2.37756e-07
2.82137e-09
1.68218e-10
9.48667e-11
1.57175e-10
2.45177e-10
2.7268e-10
1.69261e-10
1.08683e-10
4.47366e-11
)
;
    }
    procBoundary0to2
    {
        type            processor;
        value           nonuniform List<scalar> 
24
(
5.00071e-11
7.91478e-11
8.34523e-11
7.34879e-11
5.16228e-11
2.35474e-11
1.25065e-11
1.40517e-11
1.5883e-11
7.80748e-12
3.6677e-12
1.8584e-12
1.0084e-12
5.97829e-13
4.65617e-13
5.20921e-13
6.45013e-13
7.56417e-13
8.83191e-13
1.2461e-12
2.20067e-12
3.68687e-12
5.00071e-11
6.59131e-12
)
;
    }
}


// ************************************************************************* //
