/*--------------------------------*- C++ -*----------------------------------*\
| =========                 |                                                 |
| \\      /  F ield         | OpenFOAM: The Open Source CFD Toolbox           |
|  \\    /   O peration     | Version:  2.4.0                                 |
|   \\  /    A nd           | Web:      www.OpenFOAM.org                      |
|    \\/     M anipulation  |                                                 |
\*---------------------------------------------------------------------------*/
FoamFile
{
    version     2.0;
    format      ascii;
    class       volScalarField;
    location    "1";
    object      alphas;
}
// * * * * * * * * * * * * * * * * * * * * * * * * * * * * * * * * * * * * * //

dimensions      [0 0 0 0 0 0 0];

internalField   nonuniform List<scalar> 
575
(
2
2
2
2
2
2
2
2
2
2
2
2
2
2
2
2
2
2
2
2
2
1.99999
2
2
2
2
2
2
2
2
2
2
2
2
2
2
2
2
2
2
2
2
2
1.99999
1.99997
1.99999
2
2
2
2
2
2
2
2
2
2
2
2
2
2
2
2
2
2
2
1.99999
1.99963
1.99985
1.99994
1.99997
1.99998
1.99999
1.99998
1.99998
1.99998
1.99999
1.99999
1.99999
2
2
1.99999
1.99999
1.99999
1.99997
1.99991
1.99987
1.99988
1.99994
1.99686
1.99888
1.99975
1.9999
1.99987
1.99823
1.99027
1.98299
1.98212
1.98717
1.98853
1.99039
1.99291
1.99325
1.99183
1.98933
1.98674
1.97855
1.96375
1.95714
1.96151
1.9657
1.98942
1.99626
1.99904
1.9978
1.95155
1.66782
1.2512
1.02054
0.947158
0.978024
1.14961
1.34253
1.46885
1.49415
1.44941
1.37695
1.32216
1.20316
1.0467
0.980081
1.04712
1.10186
1.98027
1.98965
1.9261
1.28664
0.444136
0.0616058
0.00597647
0.0015099
0.00113291
0.00112308
0.00105259
0.00258099
0.011046
0.0270517
0.0345286
0.0300648
0.0252558
0.017185
0.010445
0.00999922
0.0303916
0.126775
1.96539
1.81839
0.815874
0.0637475
0.00504399
0.00113448
0.00112659
0.00113276
0.0011269
0.00113069
0.00102377
0.000797325
0.000640769
0.000621841
0.00059459
0.000648133
0.00226139
0.00279865
0.00280372
0.0107156
0.100161
0.363239
1.71144
0.634921
0.0586198
0.00474173
0.00116726
0.00112679
0.00112081
0.00109979
0.00102858
0.000779315
0.000648934
0.000694358
0.000965278
0.00134119
0.0017148
0.00370671
0.00937238
0.0118115
0.0120093
0.0209178
0.128683
0.611008
0.948767
0.0636584
0.00142706
0.00112333
0.0010686
0.00101409
0.000936664
0.000758126
0.000844415
0.00316611
0.00951536
0.0120373
0.0106226
0.00841251
0.00735194
0.00791561
0.0112755
0.0190918
0.0578782
0.14473
0.321129
0.718353
0.206673
0.0159345
0.00118377
0.000949201
0.00100807
0.000770795
0.000803127
0.00361346
0.0255851
0.0900512
0.167682
0.192945
0.156902
0.104481
0.0667493
0.0391076
0.0257314
0.0526189
0.274606
0.582972
0.799533
0.853566
0.0349441
0.0171713
0.0176477
0.0151663
0.00921603
0.00543012
0.0190351
0.107321
0.321157
0.538576
0.655155
0.649489
0.553267
0.389864
0.210214
0.105887
0.15339
0.386511
0.670994
0.815795
0.835014
0.833011
0.294471
0.240846
0.148779
0.0668885
0.0262675
0.0515532
0.259588
0.600114
0.849102
0.88679
0.923635
0.867641
0.715266
0.545504
0.412191
0.414481
0.610078
0.786014
0.858389
0.860513
0.833713
0.813433
0.784936
0.581647
0.239297
0.116564
0.118453
0.471691
0.875232
0.923303
0.934477
0.984812
1.00868
0.918863
0.806669
0.735178
0.718239
0.794224
0.890974
0.922812
0.924457
0.92547
0.8912
0.877552
0.871001
0.725026
0.410341
0.363909
0.597845
0.872519
0.924707
0.942541
1.05837
1.30631
1.51038
1.01963
0.916186
0.910286
0.918946
0.938817
0.956012
1.00711
1.42254
2.10989
2.3578
2.14857
0.900527
0.783409
0.638199
0.734213
0.893174
0.933968
1.01322
1.09088
1.44689
2.47373
2.47937
1.37671
0.979983
0.951272
0.953209
0.992874
1.11781
2.00857
2.84323
2.97208
2.99214
2.99965
1.0827
0.85457
0.835964
0.910927
0.951842
1.09495
1.37736
2.35933
2.80691
2.97299
2.97814
2.79735
2.05973
1.30143
1.14951
1.35675
2.23822
2.91297
2.99883
2.99996
3
3
3
1.03187
0.914801
0.918012
0.955201
1.14903
2.29387
2.92432
2.98506
2.99763
2.99973
2.99976
2.99276
2.92132
2.66175
2.48968
2.62949
2.93933
2.99849
3
3
3
3
3
0.947921
0.92111
0.968221
1.22461
2.48254
2.97853
2.99975
2.99994
2.99994
3
3
2.99989
2.99839
2.99208
2.98524
2.98887
2.99911
2.99999
3
3
3
3
3
0.966994
0.997181
1.40863
2.59783
2.98317
2.99994
3
2.99999
2.99989
2.99985
3
3
3
2.99999
2.99997
2.99997
3
3
3
3
3
3
3
1.03697
1.48264
2.72197
2.98802
2.99992
3
3
3
2.99988
2.99963
2.99966
2.99994
3
3
3
3
3
3
3
3
3
3
3
1.16549
2.65319
2.99364
2.99995
3
3
3
3
2.99999
2.99982
2.9996
2.9996
2.99986
3
3
3
3
3
3
3
3
3
3
1.9523
2.98798
2.99998
3
3
3
3
3
3
2.99999
2.9998
2.99967
2.99993
2.99998
2.99999
2.99998
2.99999
3
3
3
3
3
3
2.81804
2.99996
3
3
3
3
3
3
3
3
2.99999
2.99996
2.99999
2.99999
2.99994
2.99993
2.99995
2.99999
2.99998
2.99987
2.99988
2.99996
2.99999
2.99114
3
3
3
3
3
3
3
3
3
3
3
3
3
2.99998
2.99995
2.99998
2.99999
2.99996
2.99987
2.99987
2.99988
2.99998
2.99989
3
3
3
3
3
3
3
3
3
3
3
3
3
3
2.99999
)
;

boundaryField
{
    leftWall
    {
        type            zeroGradient;
    }
    rightWall
    {
        type            zeroGradient;
    }
    lowerWall
    {
        type            zeroGradient;
    }
    atmosphere
    {
        type            zeroGradient;
    }
    defaultFaces
    {
        type            empty;
    }
    procBoundary0to1
    {
        type            processor;
        value           nonuniform List<scalar> 
26
(
1.99999
1.99999
1.99999
1.99997
1.97545
0.977571
0.270502
0.697278
0.87698
0.888046
0.85567
0.819259
0.80028
0.84182
1.6026
2.98942
2.98942
3
3
3
3
3
3
3
3
3
)
;
    }
    procBoundary0to2
    {
        type            processor;
        value           nonuniform List<scalar> 
24
(
3
3
2.99999
2.99995
2.99996
2.99999
3
2.99999
3
3
3
3
3
3
3
3
3
3
3
3
3
3
3
3
)
;
    }
}


// ************************************************************************* //
