/*--------------------------------*- C++ -*----------------------------------*\
| =========                 |                                                 |
| \\      /  F ield         | OpenFOAM: The Open Source CFD Toolbox           |
|  \\    /   O peration     | Version:  2.4.0                                 |
|   \\  /    A nd           | Web:      www.OpenFOAM.org                      |
|    \\/     M anipulation  |                                                 |
\*---------------------------------------------------------------------------*/
FoamFile
{
    version     2.0;
    format      ascii;
    class       volScalarField;
    location    "1";
    object      alpha.water;
}
// * * * * * * * * * * * * * * * * * * * * * * * * * * * * * * * * * * * * * //

dimensions      [0 0 0 0 0 0 0];

internalField   nonuniform List<scalar> 
575
(
5.48631e-08
3.36419e-08
2.32234e-08
2.08828e-08
2.0066e-08
2.07159e-08
2.15153e-08
2.09082e-08
1.92955e-08
1.84332e-08
1.92993e-08
2.04696e-08
1.81119e-08
1.17019e-08
7.8293e-09
6.59438e-09
6.55987e-09
7.19598e-09
9.1301e-09
6.22714e-09
1.62175e-09
6.60757e-10
9.5171e-07
8.46428e-07
5.83805e-07
3.8862e-07
1.83266e-07
1.29761e-07
1.23353e-07
9.42333e-08
7.33046e-08
6.8463e-08
7.01179e-08
7.02797e-08
5.39823e-08
3.93645e-08
3.126e-08
2.82e-08
2.89587e-08
3.36489e-08
3.31917e-08
2.77289e-08
1.0888e-08
1.75302e-09
1.70627e-05
6.29331e-06
1.87503e-06
1.13262e-06
1.10604e-06
1.28518e-06
1.20737e-06
7.01369e-07
4.27212e-07
3.47068e-07
3.15123e-07
2.50661e-07
1.4539e-07
8.588e-08
7.11776e-08
6.98573e-08
9.68121e-08
1.32333e-07
1.43532e-07
1.04465e-07
3.74357e-08
1.3381e-08
0.000182846
7.69823e-05
2.81228e-05
1.69202e-05
9.86893e-06
4.05533e-06
7.32512e-06
1.18229e-05
8.85799e-06
4.91639e-06
3.80244e-06
3.07287e-06
2.0472e-06
1.87983e-06
2.33604e-06
3.60469e-06
5.16876e-06
1.38181e-05
4.24579e-05
6.37118e-05
5.56625e-05
2.84612e-05
0.00156806
0.000558349
0.000127302
5.2284e-05
6.46125e-05
0.000884815
0.00486189
0.00850086
0.00893261
0.00640233
0.00571495
0.00478033
0.00351945
0.0033498
0.00406381
0.00531385
0.00661007
0.0106981
0.0180912
0.0214075
0.0192481
0.0171463
0.00528842
0.00186932
0.000478762
0.00109819
0.024222
0.166088
0.374394
0.489718
0.526392
0.510901
0.425001
0.328433
0.265216
0.252537
0.274844
0.310993
0.338326
0.39778
0.475936
0.509366
0.476021
0.445873
0.00986423
0.00517727
0.036951
0.356679
0.777931
0.969196
0.997011
0.999245
0.999433
0.999436
0.999434
0.998538
0.994137
0.986021
0.982116
0.984052
0.986123
0.990035
0.993326
0.992137
0.971
0.87892
0.0173046
0.0908044
0.592063
0.968126
0.997478
0.999433
0.999437
0.999433
0.999436
0.999434
0.999436
0.999434
0.999434
0.999434
0.999434
0.99936
0.997746
0.997211
0.997208
0.989312
0.900107
0.638585
0.144282
0.68254
0.97069
0.997629
0.999416
0.999435
0.999433
0.999436
0.999434
0.999435
0.999432
0.99934
0.999053
0.99867
0.998295
0.996301
0.990635
0.988197
0.988006
0.979289
0.876252
0.398433
0.525617
0.968171
0.999286
0.999432
0.999434
0.999434
0.999435
0.999433
0.999239
0.996877
0.990513
0.987984
0.989393
0.991599
0.992656
0.992092
0.988732
0.980918
0.942168
0.855649
0.681623
0.285738
0.896609
0.991961
0.999284
0.999258
0.999093
0.999298
0.999239
0.99641
0.974432
0.909972
0.832343
0.80708
0.843115
0.895534
0.933259
0.960901
0.974283
0.947421
0.726524
0.420914
0.204363
0.148489
0.977794
0.984618
0.982405
0.984853
0.990799
0.99458
0.980972
0.892688
0.678869
0.461629
0.346395
0.351085
0.446851
0.610268
0.789829
0.894147
0.846687
0.613733
0.330528
0.186586
0.165759
0.167254
0.705951
0.759219
0.851224
0.933113
0.973733
0.948448
0.740417
0.399918
0.151133
0.119868
0.138817
0.20092
0.285326
0.454598
0.587878
0.585587
0.390018
0.214344
0.142354
0.139788
0.166494
0.186802
0.215067
0.418355
0.760704
0.883436
0.881548
0.528317
0.1248
0.0770564
0.0749197
0.0716658
0.0949961
0.145448
0.193985
0.264886
0.281829
0.205845
0.109159
0.0775975
0.0763671
0.0764346
0.121114
0.152915
0.129003
0.274975
0.589661
0.636096
0.402161
0.127501
0.0754745
0.0695295
0.0309247
0.019454
0.0411777
0.0733125
0.0842829
0.0897784
0.0811408
0.06182
0.0521413
0.0352895
0.026697
0.0178553
0.0158243
0.0195906
0.105332
0.218092
0.361863
0.265799
0.10697
0.072386
0.0459689
0.0200875
0.00460608
0.00172737
0.00955296
0.032677
0.0480787
0.0523773
0.0516945
0.0385012
0.0191131
0.00494497
0.000954454
0.000265486
6.85934e-05
3.28582e-06
0.0496591
0.147757
0.164101
0.0894717
0.0664255
0.0187183
0.002149
0.000847013
0.000149399
3.3746e-05
0.00029489
0.00210315
0.0100416
0.0194118
0.0212831
0.0119321
0.00246672
0.000104548
2.76615e-06
2.5967e-07
3.88651e-08
9.53211e-08
1.386e-07
0.0600594
0.0861056
0.0824938
0.0700971
0.0175987
0.00102883
9.20312e-06
2.20174e-06
6.6733e-07
1.20865e-07
9.50331e-07
1.97912e-05
0.000281665
0.00120384
0.00177266
0.000880398
6.46042e-05
6.13033e-07
6.09286e-09
1.60351e-08
3.97661e-08
1.21168e-07
1.23981e-07
0.0725509
0.0814615
0.0657576
0.0244482
0.00131222
6.74232e-06
1.19316e-08
1.23417e-08
1.89951e-08
1.02411e-08
1.00716e-08
2.28908e-08
7.13461e-07
6.40103e-06
1.25397e-05
7.50017e-06
5.29842e-07
5.90336e-09
4.54171e-09
1.15604e-08
5.33896e-08
1.30843e-07
1.43774e-07
0.0661667
0.0561046
0.022434
0.00193813
1.59647e-05
8.23885e-09
2.92055e-09
1.86508e-08
3.19128e-08
2.87092e-08
8.37707e-09
8.38888e-09
8.34248e-09
8.78535e-09
1.0465e-08
1.0194e-08
3.97997e-09
4.01509e-09
4.44365e-09
6.25725e-09
1.52328e-08
3.45076e-08
1.16643e-07
0.0428411
0.0148805
0.001525
2.36588e-05
4.29119e-08
2.40194e-09
2.40938e-09
5.58052e-09
3.05843e-08
5.36874e-08
4.69422e-08
1.27123e-08
8.35826e-09
1.43075e-08
1.44378e-08
8.94145e-09
6.46425e-09
4.93287e-09
4.59119e-09
4.7308e-09
5.78345e-09
9.56613e-09
2.76585e-08
0.0159307
0.000854987
1.42223e-05
5.28425e-08
2.78031e-09
2.83221e-09
2.40002e-09
1.34459e-09
5.68242e-09
4.35524e-08
7.87748e-08
6.90812e-08
2.04338e-08
1.6593e-08
3.04414e-08
2.61769e-08
2.89635e-08
2.41083e-08
2.74091e-08
1.43237e-08
8.98068e-09
1.9895e-08
1.60415e-07
0.00239011
6.89546e-06
1.88536e-08
2.83914e-09
1.70298e-09
1.95384e-09
1.87365e-09
1.32836e-09
1.22805e-09
5.74132e-09
4.05348e-08
9.86234e-08
1.32713e-07
1.26635e-07
1.1089e-07
5.44439e-08
3.19233e-08
4.82749e-08
5.50715e-08
8.82149e-08
1.29519e-07
3.19162e-07
5.90576e-07
8.34022e-05
8.72897e-09
1.88998e-09
1.63919e-09
1.45574e-09
1.45618e-09
1.42565e-09
1.27666e-09
1.22082e-09
1.25209e-09
4.1847e-09
3.08406e-08
8.83599e-08
1.59471e-07
2.16138e-07
2.17175e-07
1.62554e-07
1.90119e-07
4.51404e-07
1.05562e-06
1.06546e-06
1.06485e-06
1.06508e-06
4.9464e-07
2.97377e-09
1.67525e-09
1.5167e-09
3.31942e-09
3.14504e-09
1.96794e-09
1.27631e-09
1.2505e-09
1.33939e-09
1.52829e-09
2.90495e-09
1.37616e-08
4.55667e-08
9.27987e-08
1.2647e-07
1.11641e-07
1.41996e-07
2.94313e-07
9.14957e-07
1.03172e-06
1.01797e-06
3.25705e-07
1.23508e-09
2.04363e-09
1.63758e-09
2.02768e-09
9.24466e-09
1.19014e-08
6.43822e-09
1.82899e-09
1.33925e-09
1.51664e-09
1.73171e-09
1.91937e-09
4.30039e-09
9.20323e-09
1.11166e-08
1.8471e-08
)
;

boundaryField
{
    leftWall
    {
        type            zeroGradient;
    }
    rightWall
    {
        type            zeroGradient;
    }
    lowerWall
    {
        type            zeroGradient;
    }
    atmosphere
    {
        type            inletOutlet;
        inletValue      nonuniform 0();
        value           nonuniform 0();
    }
    defaultFaces
    {
        type            empty;
    }
    procBoundary0to1
    {
        type            processor;
        value           nonuniform List<scalar> 
26
(
5.03385e-10
1.65643e-09
7.94984e-09
8.09395e-06
0.0122643
0.502863
0.742126
0.311481
0.134141
0.114325
0.144602
0.181023
0.199979
0.179543
0.0491592
7.9142e-05
7.9142e-05
1.50846e-07
6.67021e-08
1.4344e-07
2.27847e-07
1.84702e-07
3.33045e-07
7.45176e-07
8.77343e-07
4.61767e-08
)
;
    }
    procBoundary0to2
    {
        type            processor;
        value           nonuniform List<scalar> 
24
(
2.47874e-08
4.17663e-08
8.03424e-08
1.76375e-07
1.53577e-07
5.90419e-08
1.14613e-08
1.08388e-09
1.57857e-09
1.75325e-09
3.60509e-09
1.37313e-08
2.07015e-08
1.19961e-08
2.46012e-09
1.31182e-09
1.57859e-09
1.84378e-09
2.10307e-09
2.59831e-09
3.16863e-09
2.98107e-09
2.47874e-08
4.27322e-09
)
;
    }
}


// ************************************************************************* //
