/*--------------------------------*- C++ -*----------------------------------*\
| =========                 |                                                 |
| \\      /  F ield         | OpenFOAM: The Open Source CFD Toolbox           |
|  \\    /   O peration     | Version:  2.4.0                                 |
|   \\  /    A nd           | Web:      www.OpenFOAM.org                      |
|    \\/     M anipulation  |                                                 |
\*---------------------------------------------------------------------------*/
FoamFile
{
    version     2.0;
    format      ascii;
    class       volScalarField;
    location    "1";
    object      p;
}
// * * * * * * * * * * * * * * * * * * * * * * * * * * * * * * * * * * * * * //

dimensions      [1 -1 -2 0 0 0 0];

internalField   nonuniform List<scalar> 
575
(
7556.97
7223.58
6820.88
6420.01
6063.23
5760.43
5521.6
5344.49
5235.19
5188.75
5196.47
5211.94
5229.4
5241.34
5244.11
5237.18
5220.75
5196.13
5172.28
5151.12
5129.52
5117.01
6697.53
6382.25
6010.69
5608.19
5241.26
4942.91
4713.64
4570.77
4456.02
4408.67
4384.92
4390.36
4402.68
4415.16
4424.11
4424.41
4413.83
4396.34
4373.07
4351.51
4330.51
4320.05
6103.69
5679.11
5236.07
4804.58
4454.84
4145.38
3885.9
3651.81
3546.4
3512.41
3595.02
3634.49
3668.22
3685.23
3682.76
3667.07
3641.28
3605.03
3569.47
3548.86
3531.89
3528.5
5345.74
4907.49
4446.61
3961.67
3525.97
3226.02
3046.64
2977.99
2895.28
2847.49
2797.24
2778.29
2773.33
2786.27
2806.98
2819.67
2811.67
2786.65
2755.35
2741.72
2729.69
2740.75
4699.04
4149.1
3622.89
3108.77
2854.79
2554.91
2180.15
1950.25
1837.79
1828.38
1922.15
2034.23
2135.72
2169.33
2150.38
2106.37
2055.18
1980.45
1913.93
1875.6
1860.12
1778.53
4211.39
3436.96
2828.7
2182.35
1634.11
1324.32
1201.03
1144.44
1106.15
1085.59
1090.69
1090.47
1087.92
1102.5
1132.97
1169.39
1178.96
1159.62
1121.24
1085.13
1075.16
1139.91
3608.7
2678.88
1792.4
1067.78
958.846
919.629
927.203
940.299
938.813
929.176
894.017
849.656
846.446
856.545
873.196
899.531
912.258
931.708
952.538
952.152
925.198
890.802
2846.21
1700.72
1055.96
901.022
1002.65
1101.91
1118.89
1061.91
1030.37
1024.2
1023.6
1033.75
1018.6
1016.4
1033.92
1045.26
1061.22
1062.08
1043.81
1018.02
1020.65
1096.95
1601.96
673.932
764.011
802.491
744.403
677.256
669.079
664.23
650.682
613.131
559.969
543.531
546.762
566.057
592.392
617.548
642.622
668.494
695.939
702.438
662.784
640.26
711.711
388.26
660.831
603.893
657.95
707.901
732.588
727.036
716.512
715.556
719.314
709.854
724.752
751.547
777.951
805.063
830.516
845.207
820.601
802.078
802.948
820.372
645.883
490.967
568.426
580.914
583.143
579.56
556.265
516.047
468.957
412.87
360.668
342.137
362.919
422.425
491.995
537.989
555.005
552.802
578.892
602.643
599.881
573.395
611.592
523.246
514.119
510.608
499.07
480.268
446.99
390.823
312.846
243.23
183.621
172.78
227.934
316.206
383.567
428.329
475.509
539.242
565.738
571.819
553.526
508.038
510.911
472.647
461.777
443.912
418.561
390.406
341.728
318.919
266.892
165.962
41.4713
-18.6238
40.9978
161.285
248.374
326.851
371.292
392.233
423.46
430.548
414.923
383.805
422.435
405.128
396.811
370.594
334.307
315.137
267.791
222.085
188.044
121.63
40.4707
-27.6212
-11.5509
67.1801
126.119
185.435
231.969
262.467
273.894
210.078
113.862
96.1483
360.331
341.207
323.761
294.368
259.488
227.803
202.178
176.341
139.88
54.1355
11.6491
-9.54559
22.3532
60.6982
87.5335
121.923
132.777
99.1999
48.5045
20.6586
7.63479
6.83598
310.041
294.963
285.878
240.509
194.569
165.862
125.496
59.6248
41.8033
11.5762
4.29643
-1.34153
8.94481
71.4757
83.4495
76.4774
43.0187
18.7064
2.66863
2.0615
2.06896
1.93425
262.271
242.491
224.219
189.981
143.613
77.3569
18.4966
6.88753
5.8009
4.54993
4.49303
2.91079
2.82341
4.51857
18.5651
14.8218
7.05278
3.37492
3.32385
3.68661
3.73107
3.87424
3.80696
222.884
191.658
168.755
119.333
41.5989
10.4784
3.63112
4.02204
4.22233
4.29327
3.9647
3.88562
3.8064
3.19574
2.74897
2.66436
2.47564
2.80638
2.7384
2.4601
2.16537
2.03897
2.32979
246.305
161.943
115.667
32.3794
7.05345
3.8917
4.52643
4.53692
4.48092
4.28381
3.88387
3.63274
3.44255
3.21602
2.93792
2.69922
2.68426
2.68604
2.45452
2.28289
2.14425
2.04292
2.00807
234.64
130.242
29.3605
5.53786
3.72339
4.33709
4.26509
4.209
4.17819
4.04045
3.80896
3.54571
3.3628
3.17338
3.00394
2.86293
2.73577
2.52825
2.23282
1.96308
1.68925
1.41741
1.63548
179.098
34.8795
4.77048
3.53582
3.83599
3.87038
3.84891
3.87239
3.87402
3.81309
3.64396
3.43064
3.24346
3.08369
2.94657
2.83218
2.68431
2.44878
2.15489
1.85459
1.58017
1.34971
1.48204
49.3904
4.39851
3.31697
3.49225
3.47304
3.41733
3.51528
3.60129
3.62336
3.61227
3.49193
3.33515
3.15732
2.96686
2.79786
2.68932
2.579
2.39038
2.14343
1.86781
1.63901
1.49786
1.62602
8.44287
1.37861
3.15959
3.03695
3.10672
3.15208
3.2992
3.38325
3.41672
3.39694
3.32523
3.20192
3.05183
2.88371
2.74128
2.60189
2.45129
2.28771
2.11297
1.9345
1.81805
1.76578
1.87003
3.44789
1.2916
2.77561
2.5699
2.85945
2.92035
3.08637
3.158
3.19477
3.18686
3.13746
3.05486
2.95085
2.829
2.70128
2.57196
2.43071
2.29023
2.16109
2.05835
2.0073
2.00917
2.09627
2.84077
1.07068
2.62683
2.20421
2.69546
2.7325
2.87757
2.95891
2.99854
2.99881
2.96345
2.90076
2.82823
2.74763
2.65326
2.55409
2.44719
2.34621
2.25842
2.19876
2.16993
2.18513
2.25495
2.5029
0.91822
2.51673
2.11967
2.49837
2.61244
2.71991
2.79252
2.83043
2.83593
2.81242
2.76651
2.71032
2.65041
2.58288
2.51027
)
;

boundaryField
{
    leftWall
    {
        type            fixedFluxPressure;
        gradient        uniform 0;
        value           nonuniform List<scalar> 
26
(
7556.97
6697.53
6103.69
5345.74
4699.04
4211.39
3608.7
2846.21
1601.96
711.711
645.883
611.592
510.911
422.435
360.331
310.041
262.271
222.884
246.305
234.64
179.098
49.3904
8.44287
3.44789
2.84077
2.5029
)
;
    }
    rightWall
    {
        type            fixedFluxPressure;
        gradient        nonuniform 0();
        value           nonuniform 0();
    }
    lowerWall
    {
        type            fixedFluxPressure;
        gradient        nonuniform List<scalar> 
22
(
132719
132719
132719
132719
132719
132719
132719
132719
132719
132719
132719
132719
132719
132719
132719
132719
132719
132719
132719
132719
132719
132719
)
;
        value           nonuniform List<scalar> 
22
(
7955.12
7621.73
7219.03
6818.16
6461.38
6158.58
5919.75
5742.64
5633.34
5586.9
5594.62
5610.09
5627.55
5639.49
5642.26
5635.33
5618.9
5594.28
5570.43
5549.27
5527.67
5515.16
)
;
    }
    atmosphere
    {
        type            totalPressure;
        U               U.air;
        phi             phi.air;
        rho             rho;
        psi             none;
        gamma           1;
        p0              nonuniform 0();
        value           nonuniform 0();
    }
    defaultFaces
    {
        type            empty;
    }
    procBoundary0to1
    {
        type            processor;
        value           nonuniform List<scalar> 
26
(
5092.14
4287.75
3443.01
2776.25
1712.29
1121.04
843.085
938.113
640.466
687.419
546.785
451.303
352.86
124.761
10.768
1.84912
1.84912
3.69029
2.7814
2.24477
1.96407
1.8068
1.89113
2.0639
2.2227
2.34302
)
;
    }
    procBoundary0to2
    {
        type            processor;
        value           nonuniform List<scalar> 
24
(
2.44108
2.37381
2.31646
2.28647
2.27491
2.28967
2.34471
2.51626
1.58136
2.26769
2.23171
2.40272
2.51022
2.59517
2.65395
2.6859
2.69412
2.67985
2.64775
2.60608
2.55942
2.50967
2.44108
2.45758
)
;
    }
}


// ************************************************************************* //
