/*--------------------------------*- C++ -*----------------------------------*\
| =========                 |                                                 |
| \\      /  F ield         | OpenFOAM: The Open Source CFD Toolbox           |
|  \\    /   O peration     | Version:  2.4.0                                 |
|   \\  /    A nd           | Web:      www.OpenFOAM.org                      |
|    \\/     M anipulation  |                                                 |
\*---------------------------------------------------------------------------*/
FoamFile
{
    version     2.0;
    format      ascii;
    class       surfaceScalarField;
    location    "1";
    object      phi;
}
// * * * * * * * * * * * * * * * * * * * * * * * * * * * * * * * * * * * * * //

dimensions      [0 3 -1 0 0 0 0];

internalField   nonuniform List<scalar> 
1101
(
-4.14461e-06
4.14461e-06
-8.34849e-06
4.20387e-06
-1.16986e-05
3.35012e-06
-1.37921e-05
2.09354e-06
-1.48534e-05
1.06128e-06
-1.53107e-05
4.57258e-07
-1.51958e-05
-1.14927e-07
-1.51924e-05
-3.35891e-09
-1.55005e-05
3.08089e-07
-1.57157e-05
2.15213e-07
-1.52341e-05
-4.81596e-07
-1.40396e-05
-1.19452e-06
-1.28267e-05
-1.21288e-06
-1.19191e-05
-9.07591e-07
-1.12358e-05
-6.83277e-07
-1.04889e-05
-7.46956e-07
-9.36747e-06
-1.12141e-06
-7.62518e-06
-1.74229e-06
-5.31269e-06
-2.31249e-06
-3.29427e-06
-2.01842e-06
-2.51761e-06
-7.76658e-07
-6.163e-07
-4.13233e-06
8.27695e-06
-8.29176e-06
8.36331e-06
-1.15973e-05
6.65561e-06
-1.39701e-05
4.4664e-06
-1.53778e-05
2.469e-06
-1.58265e-05
9.05878e-07
-1.54239e-05
-5.17529e-07
-1.52564e-05
-1.70784e-07
-1.53244e-05
3.7608e-07
-1.51873e-05
7.80596e-08
-1.46481e-05
-1.02078e-06
-1.38055e-05
-2.0371e-06
-1.28938e-05
-2.12462e-06
-1.21359e-05
-1.66548e-06
-1.14163e-05
-1.40285e-06
-1.03712e-05
-1.79204e-06
-8.98561e-06
-2.50703e-06
-7.09738e-06
-3.63052e-06
-4.93231e-06
-4.47757e-06
-2.94614e-06
-4.00459e-06
-1.18983e-06
-2.53298e-06
-1.7286e-06
-4.14887e-06
1.24258e-05
-7.90947e-06
1.21239e-05
-1.11876e-05
9.93373e-06
-1.40044e-05
7.28327e-06
-1.57396e-05
4.20412e-06
-1.57525e-05
9.18823e-07
-1.55666e-05
-7.03467e-07
-1.52474e-05
-4.89952e-07
-1.53307e-05
4.59396e-07
-1.54112e-05
1.58568e-07
-1.49742e-05
-1.45784e-06
-1.43101e-05
-2.70121e-06
-1.33642e-05
-3.07044e-06
-1.21658e-05
-2.86393e-06
-1.09165e-05
-2.65219e-06
-9.51824e-06
-3.19025e-06
-8.04141e-06
-3.98386e-06
-6.66348e-06
-5.00845e-06
-5.26189e-06
-5.87916e-06
-3.75118e-06
-5.5153e-06
-1.7027e-06
-4.58145e-06
-3.62538e-06
-4.89167e-06
1.73175e-05
-9.49453e-06
1.67268e-05
-1.33293e-05
1.37685e-05
-1.59358e-05
9.88978e-06
-1.70866e-05
5.35494e-06
-1.76105e-05
1.44275e-06
-1.72177e-05
-1.09627e-06
-1.66332e-05
-1.07451e-06
-1.56464e-05
-5.27336e-07
-1.50262e-05
-4.61639e-07
-1.49023e-05
-1.58173e-06
-1.45112e-05
-3.09237e-06
-1.39025e-05
-3.67911e-06
-1.27669e-05
-3.99951e-06
-1.11894e-05
-4.22969e-06
-9.47457e-06
-4.90512e-06
-8.03591e-06
-5.42252e-06
-6.6973e-06
-6.34706e-06
-5.47299e-06
-7.10346e-06
-4.16002e-06
-6.82828e-06
-2.30584e-06
-6.43564e-06
-5.39521e-06
-5.88356e-06
2.3201e-05
-1.34417e-05
2.42849e-05
-1.80625e-05
1.83893e-05
-2.09829e-05
1.28101e-05
-2.07311e-05
5.10314e-06
-1.89842e-05
-3.04101e-07
-1.90981e-05
-9.82393e-07
-1.90705e-05
-1.10212e-06
-1.86198e-05
-9.78e-07
-1.85132e-05
-5.683e-07
-1.79836e-05
-2.11135e-06
-1.67842e-05
-4.29176e-06
-1.49989e-05
-5.46434e-06
-1.30469e-05
-5.9515e-06
-1.10048e-05
-6.27181e-06
-9.32865e-06
-6.58129e-06
-7.63574e-06
-7.11543e-06
-6.00612e-06
-7.97668e-06
-4.79929e-06
-8.31029e-06
-4.06761e-06
-7.55995e-06
-2.8642e-06
-7.63904e-06
-7.64122e-06
-1.14355e-05
3.46366e-05
-2.06289e-05
3.34783e-05
-2.3614e-05
2.13744e-05
-2.19633e-05
1.11594e-05
-2.29605e-05
6.10034e-06
-2.37264e-05
4.6185e-07
-2.26687e-05
-2.04016e-06
-2.10267e-05
-2.74405e-06
-1.81263e-05
-3.87844e-06
-1.53037e-05
-3.39091e-06
-1.40068e-05
-3.4082e-06
-1.44679e-05
-3.83072e-06
-1.60235e-05
-3.90872e-06
-1.68793e-05
-5.09574e-06
-1.62741e-05
-6.87696e-06
-1.38679e-05
-8.98752e-06
-1.07836e-05
-1.01998e-05
-7.43611e-06
-1.13242e-05
-4.96082e-06
-1.07856e-05
-4.71951e-06
-7.80127e-06
-7.16047e-06
-5.19809e-06
-7.93046e-06
-1.85994e-05
5.32359e-05
-2.55482e-05
4.04271e-05
-2.44172e-05
2.02435e-05
-2.35638e-05
1.0306e-05
-2.4383e-05
6.91951e-06
-2.50615e-05
1.14043e-06
-2.35027e-05
-3.59902e-06
-1.65638e-05
-9.68291e-06
-7.92147e-06
-1.25208e-05
-7.33147e-07
-1.05792e-05
1.49283e-06
-5.63419e-06
-1.43751e-06
-9.00386e-07
-6.31906e-06
9.72824e-07
-1.15477e-05
1.32896e-07
-1.52594e-05
-3.16528e-06
-1.63641e-05
-7.88283e-06
-1.66196e-05
-9.94429e-06
-1.68542e-05
-1.10895e-05
-1.71212e-05
-1.05187e-05
-1.6968e-05
-7.9545e-06
-1.49039e-05
-7.2622e-06
-5.74555e-06
-2.05082e-05
7.37441e-05
-2.06596e-05
4.05785e-05
-2.27966e-05
2.23805e-05
-4.38635e-05
3.1373e-05
-4.30142e-05
6.07019e-06
-2.51592e-05
-1.67146e-05
-1.06736e-05
-1.80846e-05
-1.51311e-06
-1.88434e-05
3.62678e-06
-1.76607e-05
6.5479e-06
-1.35004e-05
9.87813e-06
-8.96443e-06
1.23689e-05
-3.39112e-06
1.11676e-05
2.17407e-06
5.63811e-06
5.66239e-06
-2.45489e-06
4.92772e-06
-9.65983e-06
-6.7789e-07
-1.47435e-05
-4.86062e-06
-2.01128e-05
-5.72025e-06
-2.4931e-05
-5.70046e-06
-2.68606e-05
-6.02491e-06
-2.42854e-05
-9.83742e-06
-1.3979e-05
-2.94706e-05
0.000103215
-5.30749e-05
6.41828e-05
-5.57801e-05
2.50857e-05
-1.89393e-05
-5.4678e-06
8.3621e-06
-2.12313e-05
1.80612e-05
-2.64137e-05
2.56906e-05
-2.5714e-05
3.48309e-05
-2.79837e-05
4.4842e-05
-2.76717e-05
5.34482e-05
-2.21066e-05
5.28845e-05
-8.40078e-06
4.28186e-05
6.6748e-06
2.73128e-05
1.76799e-05
9.5342e-06
2.3441e-05
-4.69892e-06
1.91608e-05
-1.64756e-05
1.10988e-05
-2.46501e-05
3.31391e-06
-2.6548e-05
-3.82239e-06
-1.86958e-05
-1.35526e-05
-1.56177e-05
-9.10309e-06
-2.90983e-05
3.64318e-06
9.98743e-06
-1.16727e-05
0.000114887
2.48729e-06
5.00228e-05
2.30831e-05
4.48997e-06
3.59295e-05
-1.83142e-05
4.11778e-05
-2.64795e-05
4.47531e-05
-2.9989e-05
5.12085e-05
-3.21693e-05
5.68876e-05
-3.36628e-05
6.03895e-05
-3.11737e-05
6.22611e-05
-2.39782e-05
6.47724e-05
-1.0912e-05
6.32102e-05
8.237e-06
5.33647e-05
2.75254e-05
4.04876e-05
3.63181e-05
2.90384e-05
3.061e-05
1.50173e-05
2.51199e-05
-1.47278e-06
1.9804e-05
-1.08631e-05
5.56796e-06
-2.15173e-05
-2.89838e-06
-3.74406e-05
6.82017e-06
-4.3238e-05
9.44061e-06
-6.66285e-06
2.39596e-05
9.09279e-05
4.48605e-05
2.91218e-05
5.45734e-05
-5.2229e-06
5.60348e-05
-1.97756e-05
5.59491e-05
-2.63939e-05
5.67309e-05
-3.07708e-05
6.18532e-05
-3.72916e-05
6.81088e-05
-3.99184e-05
7.57294e-05
-3.87944e-05
8.31076e-05
-3.13563e-05
8.5248e-05
-1.30524e-05
7.41617e-05
1.93233e-05
5.4456e-05
4.72311e-05
3.58018e-05
5.49723e-05
2.09653e-05
4.54466e-05
1.00151e-05
3.60701e-05
-2.65232e-07
3.00843e-05
-2.2839e-05
2.81417e-05
-6.55607e-05
3.98233e-05
-0.000103218
4.44773e-05
-0.000118118
2.43404e-05
-3.57184e-06
4.52108e-05
4.57171e-05
5.64626e-05
1.78701e-05
5.69535e-05
-5.71378e-06
5.39284e-05
-1.67505e-05
5.11045e-05
-2.357e-05
5.04576e-05
-3.01238e-05
5.14219e-05
-3.82559e-05
5.40541e-05
-4.25506e-05
5.3897e-05
-3.86373e-05
5.64478e-05
-3.39071e-05
5.4146e-05
-1.07507e-05
4.23891e-05
3.10801e-05
2.72884e-05
6.23319e-05
1.16493e-05
7.06113e-05
-2.6004e-06
5.96963e-05
-1.88287e-05
5.22984e-05
-4.94124e-05
6.0668e-05
-0.00010457
8.32989e-05
-0.00016162
9.68734e-05
-0.000183505
6.63629e-05
-0.000181978
2.28135e-05
-3.52422e-06
3.18113e-05
1.39058e-05
3.64312e-05
1.32501e-05
3.53616e-05
-4.64417e-06
3.2768e-05
-1.41569e-05
2.81762e-05
-1.89782e-05
2.30394e-05
-2.49871e-05
1.56866e-06
-1.67851e-05
-3.11601e-05
-9.82179e-06
-5.10533e-05
-1.87441e-05
-5.40905e-05
-3.08699e-05
-4.76574e-05
-1.71838e-05
-4.25787e-05
2.60015e-05
-4.25134e-05
6.22665e-05
-5.26333e-05
8.07313e-05
-8.40714e-05
9.11344e-05
-0.000137866
0.000106093
-0.000204662
0.000127464
-0.00024191
0.000120546
-0.00024567
0.000100633
-0.000244
6.46932e-05
-0.000243772
2.25853e-05
-1.28426e-05
1.25502e-05
1.35563e-06
9.46626e-06
1.63341e-05
4.98152e-06
-1.59429e-07
2.87452e-06
-1.20499e-05
-6.32062e-06
-9.7831e-06
-4.1363e-05
1.00553e-05
-7.90247e-05
2.08766e-05
-0.000105981
1.71345e-05
-0.000124481
-2.44449e-07
-0.000148407
-6.94397e-06
-0.000169227
3.63658e-06
-0.00017173
2.85045e-05
-0.000182801
7.33373e-05
-0.000200657
9.85873e-05
-0.000225693
0.00011617
-0.000250995
0.000131395
-0.000260141
0.00013661
-0.0002675
0.000127905
-0.000265157
9.82908e-05
-0.000279154
7.86899e-05
-0.000301287
4.47187e-05
-1.99858e-05
-3.49519e-07
1.70515e-06
8.58662e-09
1.5976e-05
-3.73453e-06
3.58368e-06
-1.90061e-05
3.22169e-06
-5.77894e-05
2.90002e-05
-9.17122e-05
4.39781e-05
-0.000102499
3.16634e-05
-0.000114353
2.89882e-05
-0.000137705
2.31083e-05
-0.000197847
5.31979e-05
-0.000236512
4.23011e-05
-0.000244411
3.6404e-05
-0.000248881
7.78067e-05
-0.000257123
0.00010683
-0.000258502
0.000117549
-0.000256471
0.000129365
-0.000253549
0.000133688
-0.000250136
0.000124492
-0.00026072
0.000108875
-0.000281468
9.94377e-05
-0.000286287
4.9538e-05
-1.76821e-05
-1.2356e-06
2.94076e-06
-7.35571e-06
2.20961e-05
-2.95574e-05
2.57854e-05
-7.51786e-05
4.88429e-05
-0.00010942
6.32418e-05
-0.000112277
4.68349e-05
-9.20605e-05
1.14469e-05
-0.000108872
4.58e-05
-0.000167101
8.13377e-05
-0.000271355
0.000157452
-0.00029043
6.13751e-05
-0.000270031
1.60055e-05
-0.000256524
6.42999e-05
-0.000248545
9.88498e-05
-0.000245279
0.000114283
-0.000237281
0.000121367
-0.000231276
0.000127683
-0.000268791
0.000162008
-0.000259462
9.95447e-05
-0.000248709
8.8685e-05
-0.000228857
2.96859e-05
-3.63155e-06
1.40612e-06
1.53463e-06
-1.92038e-05
4.2706e-05
-6.32002e-05
6.97818e-05
-0.000104864
9.05072e-05
-0.000119495
7.78718e-05
-0.000121574
4.89148e-05
-0.000132511
2.2384e-05
-0.000142835
5.61232e-05
-0.000183501
0.000122004
-0.00024128
0.000215231
-0.000302961
0.000123058
-0.000292183
5.22655e-06
-0.000255423
2.75396e-05
-0.000227628
7.10553e-05
-0.000216591
0.000103246
-0.00020109
0.000105866
-0.000225495
0.000152087
-0.000249878
0.000186391
-0.00029651
0.000146177
-0.000276198
6.83729e-05
-0.000263232
1.67195e-05
-0.000241308
-2.55555e-05
-7.06974e-05
-1.87424e-05
2.0277e-05
-5.5847e-05
7.98107e-05
-9.25275e-05
0.000106462
-0.000106109
0.000104089
-0.000106775
7.85372e-05
-0.000124672
6.68122e-05
-0.000164012
6.1724e-05
-0.00020145
9.3561e-05
-0.000190897
0.000111451
-0.00015594
0.000180274
-0.000180851
0.000147969
-0.000234947
5.93224e-05
-0.00024162
3.42126e-05
-0.00023384
6.32748e-05
-0.000209328
7.87341e-05
-0.000203895
0.000100433
-0.00021842
0.000166612
-0.000229449
0.00019742
-0.000250038
0.000166766
-0.000273739
9.20738e-05
-0.000318528
6.15087e-05
-0.000350892
6.80842e-06
-8.49779e-05
-5.29018e-05
7.31788e-05
-8.49706e-05
0.000111879
-9.73879e-05
0.00011888
-0.00010286
0.000109561
-0.000134001
0.000109677
-0.000177715
0.000110526
-0.000186331
7.03402e-05
-0.000172547
7.97772e-05
-0.000155221
9.41243e-05
-0.00012445
0.000149503
-0.000124998
0.000148517
-0.000159751
9.40746e-05
-0.000186344
6.08064e-05
-0.000188385
6.53158e-05
-0.000193012
8.33608e-05
-0.000210772
0.000118193
-0.000216137
0.000171978
-0.000210371
0.000191654
-0.000215887
0.000172282
-0.000239774
0.000115961
-0.000251572
7.33067e-05
-0.000247315
2.55084e-06
-7.69425e-05
-6.54691e-05
0.000138648
-8.50454e-05
0.000131456
-0.000108625
0.000142459
-0.000143158
0.000144094
-0.000191235
0.000157754
-0.000189372
0.000108663
-0.000192845
7.38135e-05
-0.000175744
6.2676e-05
-0.000150929
6.93099e-05
-0.000122305
0.000120879
-0.000116188
0.0001424
-0.000142263
0.000120149
-0.0001691
8.76433e-05
-0.000184457
8.06731e-05
-0.000191149
9.00525e-05
-0.000192915
0.000119959
-0.000182811
0.000161874
-0.000164733
0.000173576
-0.000150459
0.000158009
-0.000152366
0.000117867
-0.000148729
6.96695e-05
-0.000144164
-2.01382e-06
-8.96659e-05
-4.86825e-05
0.00018733
-8.81646e-05
0.000170938
-0.000121491
0.000175786
-0.000163414
0.000186017
-0.000180728
0.000175068
-0.000169914
9.78494e-05
-0.000159504
6.34035e-05
-0.000145168
4.83402e-05
-0.000130396
5.4538e-05
-0.000106288
9.67713e-05
-9.98097e-05
0.000135921
-0.000121676
0.000142015
-0.000153298
0.000119265
-0.000170602
9.79766e-05
-0.000175782
9.52332e-05
-0.000165724
0.000109901
-0.000137112
0.000133262
-0.000105299
0.000141764
-7.70635e-05
0.000129773
-5.76572e-05
9.84612e-05
-4.21729e-05
5.41852e-05
-2.94476e-05
-1.47391e-05
-0.000103333
-2.42902e-05
0.000211621
-9.45434e-05
0.000241191
-0.000136457
0.000217699
-0.000144106
0.000193665
-0.00011321
0.000144172
-9.21782e-05
7.68176e-05
-8.93477e-05
6.0573e-05
-0.000100389
5.93817e-05
-0.000109245
6.33938e-05
-8.98374e-05
7.73637e-05
-6.0262e-05
0.000106346
-4.93557e-05
0.000131109
-7.25157e-05
0.000142425
-0.000107031
0.000132492
-0.000126682
0.000114884
-0.000122934
0.000106152
-9.61831e-05
0.000106512
-5.78753e-05
0.000103456
-1.67329e-05
8.86303e-05
1.95242e-05
6.22041e-05
5.68447e-05
1.68648e-05
8.00114e-05
-3.79058e-05
-0.000112763
-0.000128163
0.000339784
-0.00014939
0.000262417
-0.000129502
0.000197811
-8.88395e-05
0.000153003
-3.89962e-05
9.43285e-05
-2.13066e-05
5.9128e-05
-1.94066e-05
5.86729e-05
-2.74978e-05
6.74729e-05
-4.36542e-05
7.95502e-05
-5.0432e-05
8.41416e-05
-3.57488e-05
9.16627e-05
-8.30685e-06
0.000103667
1.50894e-05
0.000119029
2.08326e-05
0.000126749
1.26335e-05
0.000123083
6.08878e-06
0.000112697
1.25829e-05
0.000100017
3.61644e-05
7.98745e-05
6.91286e-05
5.5666e-05
9.93993e-05
3.19334e-05
0.000127427
-1.11625e-05
0.000145491
-5.59702e-05
-0.00011026
-0.000115882
0.000455666
-0.000124129
0.000270663
-8.4135e-05
0.000157818
-3.31068e-05
0.000101974
-6.70781e-06
6.79295e-05
5.23375e-06
4.71864e-05
1.02941e-05
5.36126e-05
1.34755e-05
6.42916e-05
1.21725e-05
8.08532e-05
5.77099e-06
9.0543e-05
2.33835e-06
9.50954e-05
1.23272e-05
9.36782e-05
3.51117e-05
9.62445e-05
6.20278e-05
9.98329e-05
8.16521e-05
0.000103459
9.75307e-05
9.68184e-05
0.000109134
8.84139e-05
0.00012227
6.67387e-05
0.000136279
4.16565e-05
0.000153624
1.4589e-05
0.000169509
-2.70473e-05
0.000174153
-6.06147e-05
-0.000101126
-4.68835e-05
0.00050255
-2.30622e-05
0.000246842
-2.21712e-05
0.000156927
5.81038e-06
7.39928e-05
1.48385e-05
5.89014e-05
1.79688e-05
4.40562e-05
2.3918e-05
4.76633e-05
3.20284e-05
5.61812e-05
4.07911e-05
7.20905e-05
4.36895e-05
8.76446e-05
4.31985e-05
9.55864e-05
4.45264e-05
9.23503e-05
5.32329e-05
8.7538e-05
7.09236e-05
8.21422e-05
9.28902e-05
8.14921e-05
0.00011609
7.36187e-05
0.000137084
0.000151025
0.000160192
0.00016822
0.000173177
0.000174248
5.51888e-06
2.12694e-05
2.80821e-05
2.42264e-05
2.91537e-05
3.04199e-05
3.44031e-05
4.13264e-05
5.23194e-05
6.16601e-05
6.71831e-05
7.01286e-05
7.5614e-05
8.56644e-05
0.000100743
)
;

boundaryField
{
    leftWall
    {
        type            calculated;
        value           uniform 0;
    }
    rightWall
    {
        type            calculated;
        value           nonuniform 0();
    }
    lowerWall
    {
        type            calculated;
        value           nonuniform List<scalar> 
22
(
-4.73682e-23
-5.95553e-22
-2.89252e-24
-1.0806e-22
3.23218e-23
1.70107e-22
1.37737e-22
-1.40004e-22
-5.14674e-23
-1.67283e-22
4.13548e-22
-6.48215e-23
-1.07314e-22
2.05912e-22
1.84803e-22
-3.58768e-22
-8.46883e-23
3.48807e-23
5.66369e-23
2.33189e-23
-8.62437e-23
-2.26899e-23
)
;
    }
    atmosphere
    {
        type            calculated;
        value           nonuniform 0();
    }
    defaultFaces
    {
        type            empty;
        value           nonuniform 0();
    }
    procBoundary0to1
    {
        type            processor;
        value           nonuniform List<scalar> 
26
(
-1.90131e-06
-7.75319e-08
1.94086e-07
-5.36011e-07
-6.18187e-07
-6.87124e-06
-1.70888e-05
-1.6052e-05
-5.30647e-05
-2.65877e-05
-0.000121209
-0.000182026
-0.000234453
-0.000294144
-0.000288591
-0.000242908
4.9859e-05
-0.00022047
-0.000336611
-0.00025535
-0.000131441
-1.57801e-05
8.94407e-05
0.000142988
0.00016502
0.000166765
)
;
    }
    procBoundary0to2
    {
        type            processor;
        value           nonuniform List<scalar> 
24
(
6.74195e-05
5.27985e-05
3.24891e-05
6.56066e-06
-3.20036e-05
-6.16864e-05
-9.3643e-05
0.000497031
0.000231091
0.000150114
7.78485e-05
5.39741e-05
4.27899e-05
4.36801e-05
4.92579e-05
6.10975e-05
7.83039e-05
9.00634e-05
8.94049e-05
8.20525e-05
7.20918e-05
6.64139e-05
0.00011602
5.83409e-05
)
;
    }
}


// ************************************************************************* //
