/*--------------------------------*- C++ -*----------------------------------*\
| =========                 |                                                 |
| \\      /  F ield         | OpenFOAM: The Open Source CFD Toolbox           |
|  \\    /   O peration     | Version:  2.4.0                                 |
|   \\  /    A nd           | Web:      www.OpenFOAM.org                      |
|    \\/     M anipulation  |                                                 |
\*---------------------------------------------------------------------------*/
FoamFile
{
    version     2.0;
    format      ascii;
    class       surfaceScalarField;
    location    "1";
    object      phi.water;
}
// * * * * * * * * * * * * * * * * * * * * * * * * * * * * * * * * * * * * * //

dimensions      [0 3 -1 0 0 0 0];

internalField   nonuniform List<scalar> 
1101
(
-4.14181e-06
4.41123e-06
-8.34659e-06
4.45775e-06
-1.16974e-05
3.52333e-06
-1.37913e-05
2.20019e-06
-1.48528e-05
1.10902e-06
-1.53103e-05
4.91941e-07
-1.51955e-05
-8.08186e-08
-1.51923e-05
2.29942e-08
-1.55005e-05
3.3005e-07
-1.57158e-05
2.36098e-07
-1.52342e-05
-4.59599e-07
-1.40397e-05
-1.17246e-06
-1.28268e-05
-1.19552e-06
-1.19192e-05
-8.95317e-07
-1.12359e-05
-6.73948e-07
-1.04889e-05
-7.38652e-07
-9.36745e-06
-1.1129e-06
-7.62512e-06
-1.73267e-06
-5.31272e-06
-2.30267e-06
-3.29429e-06
-2.0106e-06
-2.51757e-06
-7.73999e-07
-6.16086e-07
-4.10574e-06
9.3241e-06
-8.25714e-06
9.0267e-06
-1.15668e-05
7.01918e-06
-1.39528e-05
4.73554e-06
-1.53711e-05
2.72789e-06
-1.58227e-05
1.24892e-06
-1.5422e-05
-2.10455e-07
-1.52553e-05
3.19306e-08
-1.53241e-05
5.08837e-07
-1.51871e-05
1.92102e-07
-1.46482e-05
-9.25613e-07
-1.38058e-05
-1.95849e-06
-1.2894e-05
-2.07679e-06
-1.2136e-05
-1.6362e-06
-1.14164e-05
-1.37882e-06
-1.03712e-05
-1.76899e-06
-8.98548e-06
-2.47779e-06
-7.09729e-06
-3.59603e-06
-4.93232e-06
-4.44708e-06
-2.94634e-06
-3.98392e-06
-1.18993e-06
-2.52571e-06
-1.72643e-06
-3.841e-06
1.96513e-05
-7.73909e-06
1.62621e-05
-1.11308e-05
1.22001e-05
-1.39754e-05
8.99584e-06
-1.57188e-05
5.47928e-06
-1.57195e-05
1.55231e-06
-1.55434e-05
1.22499e-07
-1.52381e-05
4.74915e-07
-1.53287e-05
1.17491e-06
-1.5415e-05
5.9658e-07
-1.49759e-05
-1.03604e-06
-1.43116e-05
-2.32923e-06
-1.33651e-05
-2.80278e-06
-1.2166e-05
-2.6186e-06
-1.09163e-05
-2.36182e-06
-9.51757e-06
-2.76833e-06
-8.04081e-06
-3.39893e-06
-6.66385e-06
-3.6401e-06
-5.2622e-06
-2.53596e-06
-3.75146e-06
-1.03141e-06
-1.7029e-06
-6.52454e-07
-1.34778e-06
-3.55752e-06
3.63453e-05
-8.48151e-06
3.06112e-05
-1.28369e-05
2.02228e-05
-1.56037e-05
1.38076e-05
-1.70893e-05
9.1818e-06
-1.75634e-05
2.0206e-05
-1.71849e-05
2.33215e-05
-1.66192e-05
2.56867e-05
-1.56372e-05
2.63524e-05
-1.50197e-05
2.56046e-05
-1.49011e-05
2.3329e-05
-1.45106e-05
2.12591e-05
-1.39048e-05
1.95347e-05
-1.27674e-05
1.87406e-05
-1.11855e-05
1.88678e-05
-9.46757e-06
1.91594e-05
-7.99469e-06
1.93756e-05
-6.56633e-06
1.92111e-05
-5.4131e-06
1.89061e-05
-4.14673e-06
1.94411e-05
-2.37045e-06
1.98215e-05
2.21157e-05
-1.88939e-06
4.6277e-05
-8.97489e-06
4.86994e-05
-1.65288e-05
3.3236e-05
-2.06714e-05
3.14269e-05
-1.4475e-05
3.1564e-05
-1.61926e-05
4.02118e-05
-1.73973e-05
3.62681e-05
-1.8221e-05
3.35015e-05
-1.85866e-05
3.2249e-05
-1.91924e-05
3.28156e-05
-1.88203e-05
3.22192e-05
-1.74742e-05
3.12219e-05
-1.52907e-05
3.15315e-05
-1.3095e-05
3.12336e-05
-1.09556e-05
3.00545e-05
-9.24861e-06
2.84275e-05
-7.28277e-06
2.67576e-05
-5.54831e-06
2.49635e-05
-4.50146e-06
2.4376e-05
-3.9843e-06
2.54089e-05
-2.4628e-06
2.51902e-05
2.28625e-05
-5.27321e-06
6.02253e-05
-1.42845e-05
6.15347e-05
-1.88584e-05
4.93769e-05
-1.80165e-05
5.0782e-05
-1.97056e-05
4.3958e-05
-2.20472e-05
3.6194e-05
-2.18971e-05
2.36916e-05
-2.05316e-05
1.81775e-05
-1.78406e-05
1.48543e-05
-1.51265e-05
1.46997e-05
-1.38073e-05
1.72077e-05
-1.41766e-05
2.11644e-05
-1.59592e-05
2.24813e-05
-1.70056e-05
2.04028e-05
-1.64927e-05
1.62562e-05
-1.39984e-05
1.26713e-05
-1.07867e-05
1.03553e-05
-7.29394e-06
7.4172e-06
-4.90015e-06
6.13173e-06
-4.8496e-06
9.35494e-06
-7.72656e-06
1.69211e-05
2.64382e-05
-1.14231e-05
8.19983e-05
-1.89537e-05
7.23095e-05
-1.70452e-05
5.23583e-05
-2.10716e-05
3.44048e-05
-2.36506e-05
1.64733e-05
-2.49276e-05
2.63765e-06
-2.34936e-05
-3.43119e-06
-1.65641e-05
-9.62114e-06
-7.9232e-06
-1.24681e-05
-7.33686e-07
-1.05327e-05
1.49368e-06
-5.59719e-06
-1.4393e-06
-8.52338e-07
-6.33487e-06
1.11152e-06
-1.15638e-05
4.40517e-07
-1.52683e-05
-2.85085e-06
-1.63751e-05
-7.66965e-06
-1.66433e-05
-9.78705e-06
-1.68798e-05
-1.09973e-05
-1.71341e-05
-1.04791e-05
-1.69841e-05
-7.97724e-06
-1.49975e-05
-7.54083e-06
-6.34883e-06
-1.31233e-05
0.000102263
-1.30989e-05
6.54275e-05
-2.22781e-05
3.82995e-05
-4.42432e-05
3.3693e-05
-4.30638e-05
6.26473e-06
-2.51724e-05
-1.66679e-05
-1.06822e-05
-1.80425e-05
-1.51886e-06
-1.88024e-05
3.6218e-06
-1.76215e-05
6.54377e-06
-1.3475e-05
9.87733e-06
-8.9504e-06
1.2369e-05
-3.39008e-06
1.11676e-05
2.16294e-06
5.63838e-06
5.64741e-06
-2.45437e-06
4.90972e-06
-9.65868e-06
-7.06651e-07
-1.47412e-05
-4.93331e-06
-2.01121e-05
-5.80133e-06
-2.49369e-05
-5.78404e-06
-2.69697e-05
-6.16295e-06
-2.42216e-05
-1.07911e-05
-1.90072e-05
-1.60756e-05
0.000118946
-5.32777e-05
7.29355e-05
-5.62977e-05
2.62321e-05
-1.89929e-05
-5.36931e-06
8.34986e-06
-2.11993e-05
1.80543e-05
-2.6384e-05
2.56865e-05
-2.56852e-05
3.48293e-05
-2.79639e-05
4.48435e-05
-2.76619e-05
5.34484e-05
-2.21201e-05
5.28844e-05
-8.45747e-06
4.28195e-05
6.62252e-06
2.73146e-05
1.76292e-05
9.53735e-06
2.34009e-05
-4.69227e-06
1.91245e-05
-1.6461e-05
1.10536e-05
-2.46298e-05
3.23265e-06
-2.65269e-05
-3.98196e-06
-1.86874e-05
-1.4025e-05
-1.56892e-05
-1.01321e-05
-2.89733e-05
2.09533e-06
4.82125e-06
-5.4247e-06
0.000119086
2.62505e-06
5.01519e-05
2.30813e-05
4.50802e-06
3.59294e-05
-1.83031e-05
4.11786e-05
-2.64752e-05
4.47542e-05
-2.99853e-05
5.12099e-05
-3.21679e-05
5.68881e-05
-3.36844e-05
6.03885e-05
-3.13474e-05
6.22387e-05
-2.4704e-05
6.47535e-05
-1.25727e-05
6.32091e-05
5.66671e-06
5.3372e-05
2.56003e-05
4.04986e-05
3.51429e-05
2.90606e-05
2.99269e-05
1.50565e-05
2.47238e-05
-1.41933e-06
1.95062e-05
-1.08401e-05
4.97332e-06
-2.14769e-05
-5.31268e-06
-3.7484e-05
-2.5916e-07
-4.58085e-05
-3.78603e-06
-2.06969e-05
2.73671e-05
9.05303e-05
4.50722e-05
2.89578e-05
5.45814e-05
-5.26813e-06
5.60361e-05
-1.9839e-05
5.5949e-05
-2.64445e-05
5.673e-05
-3.08056e-05
6.18561e-05
-3.74252e-05
6.80901e-05
-4.06878e-05
7.55942e-05
-4.15101e-05
8.26616e-05
-3.70657e-05
8.48799e-05
-2.14988e-05
7.43025e-05
1.0565e-05
5.4781e-05
4.00538e-05
3.60746e-05
5.05759e-05
2.11695e-05
4.33373e-05
1.01187e-05
3.51165e-05
-1.79808e-07
2.90549e-05
-2.23533e-05
2.56344e-05
-6.45439e-05
3.33888e-05
-0.000104641
3.24297e-05
-0.000126584
6.48683e-06
-2.71381e-05
4.56644e-05
4.51503e-05
5.64532e-05
1.70267e-05
5.69336e-05
-6.34169e-06
5.39103e-05
-1.71006e-05
5.10851e-05
-2.37358e-05
5.04438e-05
-3.04432e-05
5.15676e-05
-4.0199e-05
5.46704e-05
-4.858e-05
5.40066e-05
-4.83504e-05
5.21582e-05
-4.54061e-05
4.92113e-05
-2.56996e-05
4.26833e-05
1.04893e-05
2.98207e-05
4.69626e-05
1.29533e-05
6.14136e-05
-2.11935e-06
5.47949e-05
-1.82877e-05
4.82392e-05
-4.73721e-05
5.22575e-05
-0.000102117
6.44399e-05
-0.000165185
7.3201e-05
-0.00019394
3.88955e-05
-0.000195558
-2.21611e-06
-2.91543e-05
3.13032e-05
7.42063e-06
3.60662e-05
8.27118e-06
3.50358e-05
-6.58851e-06
3.25891e-05
-1.50039e-05
2.80788e-05
-1.97198e-05
2.30202e-05
-2.91483e-05
1.94917e-07
-2.88076e-05
-4.32259e-05
-2.51928e-05
-7.81685e-05
-3.2351e-05
-8.23915e-05
-4.12016e-05
-6.73787e-05
-2.27993e-05
-4.76848e-05
1.84526e-05
-4.28371e-05
5.01375e-05
-5.27579e-05
6.74609e-05
-8.05396e-05
7.6136e-05
-0.00012294
8.72096e-05
-0.000188123
0.000107573
-0.000238439
9.38449e-05
-0.00025272
6.70877e-05
-0.000254471
2.15157e-05
-0.000249332
-1.44389e-05
-4.03558e-05
1.08695e-05
-1.19356e-05
8.1271e-06
7.193e-06
4.19327e-06
-3.90333e-06
2.29674e-06
-1.44903e-05
-7.30736e-06
-1.45934e-05
-4.38774e-05
-1.79348e-06
-9.32126e-05
3.51012e-06
-0.000121831
2.79756e-07
-0.000148665
-2.24838e-05
-0.000173794
-2.64884e-05
-0.000176508
-9.91251e-06
-0.000169158
2.66233e-05
-0.000173791
6.4717e-05
-0.000186201
8.65061e-05
-0.00020214
0.000102358
-0.000232136
0.000113219
-0.000255293
0.000110132
-0.000273081
8.56379e-05
-0.000275842
1.72859e-05
-0.000285032
-6.02532e-05
-0.000295885
-0.000101668
-0.000123098
-2.70832e-06
-1.12106e-05
-2.56776e-06
6.02419e-06
-5.85018e-06
-1.48101e-06
-2.11096e-05
-4.20229e-06
-5.97505e-05
1.31966e-05
-9.89081e-05
2.75038e-05
-0.000113761
9.73286e-06
-0.000130693
1.89361e-07
-0.000181033
-1.66031e-05
-0.000241459
-4.76731e-06
-0.000244325
1.786e-05
-0.000234304
3.71727e-05
-0.000234378
6.94255e-05
-0.000241189
9.49883e-05
-0.000245169
0.000101697
-0.000251834
0.000108173
-0.000260597
0.000105154
-0.000276432
3.68124e-05
-0.000313549
-6.61177e-05
-0.000303255
-0.000124333
-0.000278293
-0.000144464
-0.000127108
-4.09656e-06
-1.0961e-05
-1.16457e-05
1.10154e-05
-3.306e-05
1.48527e-05
-7.64561e-05
3.24357e-05
-0.00011538
4.73425e-05
-0.000123015
2.8683e-05
-0.000110011
-1.27416e-05
-0.000139751
-1.96987e-05
-0.000276014
-4.74352e-05
-0.000360981
3.58572e-05
-0.000325963
4.41167e-05
-0.000273175
4.56974e-05
-0.000252129
5.61844e-05
-0.000238393
8.10862e-05
-0.000240381
9.43207e-05
-0.000244688
9.47423e-05
-0.000281155
8.28037e-05
-0.000321827
6.24097e-06
-0.000318442
-4.23014e-05
-0.000285498
-7.35223e-05
-0.00020499
-5.97575e-05
-4.18188e-05
-6.14237e-06
-5.6957e-06
-2.63347e-05
3.21661e-05
-6.89969e-05
5.50734e-05
-0.000115404
7.21122e-05
-0.000134259
5.65582e-05
-0.000145975
-3.97976e-06
-0.00013893
-2.90065e-05
-0.000140275
-7.13184e-06
-0.000280307
-8.10884e-08
-0.000503106
7.6756e-05
-0.000389074
5.77408e-05
-0.000294148
5.34351e-05
-0.000244492
5.60944e-05
-0.000228638
6.12181e-05
-0.000222566
7.11714e-05
-0.000231847
6.59303e-05
-0.000244188
5.428e-05
-0.000237085
5.51474e-05
-0.000224694
3.80045e-05
-0.000252142
3.17294e-05
-0.000259067
1.29826e-05
-0.000240424
-2.99011e-05
-7.62687e-05
-3.30149e-05
2.34038e-05
-6.77924e-05
6.88203e-05
-0.00010524
8.88467e-05
-0.000127054
7.8159e-05
-0.000167971
2.95428e-05
-0.000125064
-3.13626e-06
-0.000132171
-1.38969e-05
-0.000169167
2.34032e-05
-0.000183787
6.57478e-05
-0.000210167
0.00016825
-0.000275686
9.19874e-05
-0.000320279
4.03781e-05
-0.000282744
4.18601e-05
-0.000234762
5.14861e-05
-0.000214286
5.73968e-05
-0.000199845
5.19465e-05
-0.000144435
6.21753e-05
-0.000155948
0.000127932
-0.000250249
0.000166663
-0.000274279
9.17831e-05
-0.000315017
6.0406e-05
-0.000347715
5.5725e-06
-8.60553e-05
-7.06667e-05
6.7936e-05
-9.92224e-05
9.23722e-05
-0.000121957
8.39794e-05
-0.00016335
5.40933e-05
-0.000128571
2.11314e-05
-9.81527e-05
1.52084e-05
-0.000185748
6.76569e-05
-0.000172459
7.91778e-05
-0.000155699
9.16007e-05
-0.000124776
0.00014632
-0.000132115
0.000148312
-0.000182419
9.30496e-05
-0.000200574
4.44521e-05
-0.000232112
3.88158e-05
-0.000223679
4.06291e-05
-0.000154118
4.41705e-05
-0.000152934
0.000113918
-0.000210381
0.000191567
-0.000215971
0.000172221
-0.00023902
0.000115641
-0.000247344
7.13735e-05
-0.000246832
6.05475e-08
-7.81976e-05
-8.64001e-05
0.000115897
-0.000127695
8.79378e-05
-0.000164273
5.76782e-05
-0.000140809
4.14709e-05
-9.89603e-05
3.87229e-05
-0.00018874
0.00010761
-0.000192033
7.37672e-05
-0.000174885
6.30976e-05
-0.000152026
6.68606e-05
-0.000122449
0.000112134
-0.000116401
0.000136219
-0.000142426
0.000119905
-0.000169451
8.75826e-05
-0.000185297
8.06486e-05
-0.000191887
8.98993e-05
-0.000192922
0.000119627
-0.000182879
0.000161759
-0.000164836
0.000173537
-0.000150553
0.000157982
-0.000152647
0.000117819
-0.00014875
6.95661e-05
-0.000137705
-1.76448e-06
-8.81205e-05
-9.98406e-05
0.000156557
-0.000162815
6.88187e-05
-0.000139696
5.14717e-05
-8.54428e-05
5.42269e-05
-0.000176445
0.000169679
-0.000169934
9.77708e-05
-0.000159472
6.33385e-05
-0.000143613
4.81404e-05
-0.00012994
5.26234e-05
-0.000109248
8.9674e-05
-0.000101427
0.000124343
-0.000121695
0.000133743
-0.000153583
0.000118616
-0.000170759
9.78707e-05
-0.000175913
9.50456e-05
-0.000165903
0.000109141
-0.000137274
0.000131335
-0.000105426
0.000139738
-7.71851e-05
0.00012758
-5.77604e-05
9.78234e-05
-4.22184e-05
5.40757e-05
-2.84485e-05
-1.4829e-05
-9.8446e-05
-0.000142472
0.000180453
-0.000132659
7.13622e-05
-8.62593e-05
5.90235e-05
-0.000141059
0.00018802
-0.00011321
0.000144188
-9.21782e-05
7.67969e-05
-8.93324e-05
6.05385e-05
-0.000100501
5.93456e-05
-0.000107626
6.32356e-05
-9.08248e-05
7.49084e-05
-6.57026e-05
9.88762e-05
-5.17215e-05
0.000120736
-7.26052e-05
0.000134039
-0.000107868
0.00012913
-0.000126808
0.000115335
-0.000123005
0.000106184
-9.67468e-05
0.000106244
-5.8177e-05
0.00010239
-1.76426e-05
8.70295e-05
1.91231e-05
5.81921e-05
5.73737e-05
1.25865e-05
7.85055e-05
-3.55832e-05
-9.67559e-05
-0.000219996
0.000240468
-8.02259e-05
8.82804e-05
-0.000130716
0.000196392
-8.88943e-05
0.000152999
-3.89828e-05
9.4295e-05
-2.12998e-05
5.90931e-05
-1.94076e-05
5.86331e-05
-2.75047e-05
6.74363e-05
-4.38174e-05
7.95168e-05
-5.05459e-05
8.39674e-05
-3.7549e-05
8.86053e-05
-9.39173e-06
9.85937e-05
1.47447e-05
0.000118702
2.10405e-05
0.000126038
1.27663e-05
0.000119342
5.65153e-06
0.000104642
1.21669e-05
9.3992e-05
3.56754e-05
7.50889e-05
6.90434e-05
4.50293e-05
9.93374e-05
2.3733e-05
0.000124567
-8.0454e-06
0.000145614
-4.39816e-05
-9.86152e-05
-0.000262806
0.000242121
-0.00012267
0.000269026
-8.42533e-05
0.000157764
-3.30894e-05
0.000101914
-6.70524e-06
6.78325e-05
5.24275e-06
4.71216e-05
1.0292e-05
5.35665e-05
1.34694e-05
6.42574e-05
1.21605e-05
8.08215e-05
5.6705e-06
9.05139e-05
2.13809e-06
9.49896e-05
1.27141e-05
9.26771e-05
3.53067e-05
9.43287e-05
6.11684e-05
9.80353e-05
8.04748e-05
0.000102055
9.61107e-05
9.67196e-05
0.000108362
8.87669e-05
0.000113972
6.80257e-05
0.000128035
4.47522e-05
0.000150618
1.98203e-05
0.000168665
-2.02334e-05
0.000176776
-5.40023e-05
-8.40778e-05
-0.000222843
0.000456874
-2.2584e-05
0.00024673
-2.22248e-05
0.000156876
5.83474e-06
7.3947e-05
1.48438e-05
5.87445e-05
1.79856e-05
4.3947e-05
2.39146e-05
4.75721e-05
3.20243e-05
5.61422e-05
4.07828e-05
7.20601e-05
4.36739e-05
8.76146e-05
4.31725e-05
9.55582e-05
4.44671e-05
9.23188e-05
5.31715e-05
8.74583e-05
7.0736e-05
8.175e-05
9.25204e-05
8.00647e-05
0.000114904
7.16203e-05
0.000136399
0.000145406
0.000144264
0.000165562
0.000172472
0.000154045
-5.60854e-06
2.14966e-05
2.80848e-05
2.42355e-05
2.92376e-05
3.04514e-05
3.43839e-05
4.13185e-05
5.2315e-05
6.1649e-05
6.71668e-05
7.01045e-05
7.56035e-05
8.56217e-05
0.000100812
)
;

boundaryField
{
    leftWall
    {
        type            fixedValue;
        value           uniform 0;
    }
    rightWall
    {
        type            fixedValue;
        value           nonuniform 0();
    }
    lowerWall
    {
        type            fixedValue;
        value           uniform 0;
    }
    atmosphere
    {
        type            calculated;
        value           nonuniform 0();
    }
    defaultFaces
    {
        type            empty;
        value           nonuniform 0();
    }
    procBoundary0to1
    {
        type            processor;
        value           nonuniform List<scalar> 
26
(
-1.90131e-06
-7.75164e-08
1.94166e-07
-5.75942e-07
-3.47727e-07
-6.8557e-06
-1.71931e-05
-1.71655e-05
-5.32543e-05
-4.12659e-05
-0.000136617
-0.000194434
-0.000239534
-0.000285269
-0.000282574
-0.000178474
0.00010566
-0.000221323
-0.000331461
-0.000253086
-0.000126139
-1.09308e-05
9.22542e-05
0.000149408
0.000168147
0.000148518
)
;
    }
    procBoundary0to2
    {
        type            processor;
        value           nonuniform List<scalar> 
24
(
6.7286e-05
5.26681e-05
3.25293e-05
8.67472e-06
-2.22654e-05
-4.06733e-05
-7.60773e-05
0.000492106
0.000231116
0.000150062
7.78618e-05
5.3883e-05
4.26581e-05
4.35708e-05
4.92202e-05
6.10724e-05
7.82774e-05
9.00367e-05
8.93788e-05
8.20348e-05
7.20908e-05
6.64765e-05
0.000115971
5.84153e-05
)
;
    }
}


// ************************************************************************* //
