/*--------------------------------*- C++ -*----------------------------------*\
| =========                 |                                                 |
| \\      /  F ield         | OpenFOAM: The Open Source CFD Toolbox           |
|  \\    /   O peration     | Version:  2.4.0                                 |
|   \\  /    A nd           | Web:      www.OpenFOAM.org                      |
|    \\/     M anipulation  |                                                 |
\*---------------------------------------------------------------------------*/
FoamFile
{
    version     2.0;
    format      ascii;
    class       surfaceScalarField;
    location    "1";
    object      phi.oil;
}
// * * * * * * * * * * * * * * * * * * * * * * * * * * * * * * * * * * * * * //

dimensions      [0 3 -1 0 0 0 0];

internalField   nonuniform List<scalar> 
1101
(
-4.14466e-06
4.14432e-06
-8.34855e-06
4.20356e-06
-1.16987e-05
3.34979e-06
-1.37923e-05
2.09322e-06
-1.48537e-05
1.061e-06
-1.5311e-05
4.56994e-07
-1.5196e-05
-1.15156e-07
-1.51926e-05
-3.54542e-09
-1.55006e-05
3.0795e-07
-1.57158e-05
2.15136e-07
-1.52342e-05
-4.81553e-07
-1.40396e-05
-1.19428e-06
-1.28267e-05
-1.21213e-06
-1.19191e-05
-9.05997e-07
-1.12358e-05
-6.80606e-07
-1.04889e-05
-7.43142e-07
-9.36739e-06
-1.11584e-06
-7.62392e-06
-1.73081e-06
-5.30313e-06
-2.25669e-06
-3.27858e-06
-1.73682e-06
-2.50986e-06
1.53332e-08
8.02552e-07
-4.13239e-06
8.27625e-06
-8.29183e-06
8.36263e-06
-1.15974e-05
6.65489e-06
-1.39703e-05
4.46566e-06
-1.53781e-05
2.46831e-06
-1.58267e-05
9.05374e-07
-1.54241e-05
-5.17487e-07
-1.52566e-05
-1.70403e-07
-1.53245e-05
3.76207e-07
-1.51874e-05
7.85365e-08
-1.46482e-05
-1.01845e-06
-1.38056e-05
-2.03267e-06
-1.28938e-05
-2.11931e-06
-1.21359e-05
-1.66026e-06
-1.14163e-05
-1.39755e-06
-1.03712e-05
-1.78598e-06
-8.98547e-06
-2.49572e-06
-7.09669e-06
-3.59872e-06
-4.92821e-06
-4.37838e-06
-2.93198e-06
-3.75521e-06
-1.17188e-06
-1.92963e-06
-3.85656e-07
-4.14892e-06
1.24252e-05
-7.90955e-06
1.2123e-05
-1.11877e-05
9.9327e-06
-1.40046e-05
7.2823e-06
-1.57398e-05
4.20775e-06
-1.57527e-05
9.37826e-07
-1.55667e-05
-6.39965e-07
-1.52475e-05
-4.17659e-07
-1.53308e-05
5.24098e-07
-1.54114e-05
2.15603e-07
-1.49743e-05
-1.37955e-06
-1.43102e-05
-2.59745e-06
-1.33643e-05
-2.96141e-06
-1.21658e-05
-2.76224e-06
-1.09164e-05
-2.57324e-06
-9.51804e-06
-3.12488e-06
-8.04072e-06
-3.91925e-06
-6.66119e-06
-4.90211e-06
-5.25763e-06
-5.61757e-06
-3.74427e-06
-5.03249e-06
-1.68361e-06
-3.75599e-06
-2.3168e-06
-4.89166e-06
1.7334e-05
-9.49463e-06
1.67294e-05
-1.33294e-05
1.37672e-05
-1.59355e-05
9.8929e-06
-1.70849e-05
5.40995e-06
-1.76049e-05
1.67214e-06
-1.72144e-05
-4.855e-07
-1.66312e-05
2.34258e-08
-1.56456e-05
1.16562e-06
-1.50248e-05
1.79429e-06
-1.49018e-05
1.17211e-06
-1.45112e-05
1.38365e-07
-1.39032e-05
-6.98845e-07
-1.27681e-05
-1.25754e-06
-1.11901e-05
-1.45408e-06
-9.47446e-06
-2.14066e-06
-8.03444e-06
-2.73368e-06
-6.69204e-06
-3.07782e-06
-5.46974e-06
-2.8011e-06
-4.15526e-06
-3.77765e-06
-2.30124e-06
-5.56315e-06
-3.44075e-06
-5.87895e-06
2.32797e-05
-1.34405e-05
2.43212e-05
-1.80623e-05
1.83996e-05
-2.09777e-05
1.29121e-05
-2.06897e-05
5.68834e-06
-1.89008e-05
1.69947e-07
-1.90112e-05
-2.35732e-06
-1.89861e-05
-3.60374e-06
-1.85846e-05
-3.09141e-06
-1.85657e-05
2.44581e-07
-1.8074e-05
4.93521e-06
-1.68864e-05
9.58336e-06
-1.50366e-05
1.22059e-05
-1.30403e-05
1.31948e-05
-1.09819e-05
1.40199e-05
-9.29917e-06
1.46245e-05
-7.56697e-06
1.45363e-05
-5.91499e-06
1.30594e-05
-4.76426e-06
1.25945e-05
-4.04928e-06
9.25952e-06
-2.82944e-06
7.91438e-06
2.1601e-05
-1.14122e-05
3.47838e-05
-2.06188e-05
3.35981e-05
-2.35896e-05
2.17414e-05
-2.18563e-05
1.01039e-05
-2.29476e-05
-5.62789e-07
-2.39488e-05
-1.41223e-05
-2.29121e-05
-2.61516e-05
-2.11137e-05
-3.16978e-05
-1.76287e-05
-3.07603e-05
-1.48903e-05
-2.36049e-05
-1.40226e-05
-8.67397e-06
-1.44692e-05
2.28903e-06
-1.60989e-05
4.17477e-06
-1.70784e-05
1.5836e-06
-1.65163e-05
1.73647e-06
-1.39491e-05
4.12434e-06
-1.06169e-05
6.9955e-06
-6.99627e-06
7.12593e-06
-4.532e-06
7.23015e-06
-4.64918e-06
1.59231e-05
-7.76827e-06
3.47252e-05
5.75212e-05
-1.85578e-05
5.34364e-05
-2.54557e-05
4.06817e-05
-2.4884e-05
1.57667e-05
-2.50784e-05
-7.88944e-06
-2.64413e-05
-2.40669e-05
-2.69472e-05
-2.31794e-05
-2.38941e-05
-1.12793e-05
-1.65467e-05
-1.33276e-05
-7.68299e-06
-1.58683e-05
1.00042e-07
-1.22834e-05
1.6022e-06
-9.16521e-06
-1.45023e-06
-5.41637e-06
-6.37239e-06
-5.24426e-06
-1.19676e-05
-8.07342e-06
-1.57967e-05
-1.01521e-05
-1.68295e-05
-9.50492e-06
-1.71783e-05
-6.45396e-06
-1.69036e-05
-4.62614e-06
-1.66464e-05
-1.55928e-06
-1.5687e-05
2.50034e-07
-1.35429e-05
-2.46044e-06
-2.21142e-06
-2.04879e-05
7.38184e-05
-2.21248e-05
3.76115e-05
-2.35662e-05
4.1308e-06
-3.84325e-05
2.51176e-06
-4.06432e-05
-2.52302e-06
-2.44083e-05
-1.88658e-05
-1.01994e-05
-1.7904e-05
-1.16692e-06
-1.59961e-05
3.95285e-06
-7.56479e-06
5.39239e-06
5.00574e-06
9.18455e-06
1.66588e-06
1.26684e-05
9.17998e-06
1.12938e-05
2.19127e-05
5.12249e-06
2.63109e-05
-3.39983e-06
2.51033e-05
-1.04676e-05
1.71859e-05
-1.56455e-05
1.11532e-05
-2.03497e-05
8.52111e-06
-2.40649e-05
8.83345e-06
-2.49949e-05
3.78525e-06
-2.45053e-05
-2.99922e-06
-8.30509e-06
-3.3197e-05
9.9788e-05
-5.26706e-05
4.62639e-05
-4.82118e-05
6.50015e-06
-1.65759e-05
-9.20559e-06
9.32533e-06
-1.67103e-05
1.85477e-05
-2.54101e-05
2.62866e-05
-2.77427e-05
3.38635e-05
-2.78526e-05
4.24825e-05
-2.50615e-05
5.59013e-05
-1.228e-05
5.37582e-05
3.13763e-06
4.16637e-05
1.49547e-05
2.57505e-05
2.64308e-05
7.43935e-06
3.16734e-05
-7.1644e-06
2.71748e-05
-1.8699e-05
1.88388e-05
-2.65527e-05
1.11157e-05
-2.82992e-05
6.35709e-06
-1.92042e-05
-4.78921e-07
-1.50939e-05
2.38482e-06
-2.94678e-05
1.00654e-05
1.33803e-05
-1.93511e-05
0.000108661
4.89428e-07
4.06228e-05
2.52781e-05
1.30858e-06
3.29425e-05
-1.20443e-05
4.00578e-05
-1.60128e-05
4.42879e-05
-2.07614e-05
5.07059e-05
-2.26747e-05
5.73562e-05
-2.15332e-05
6.10606e-05
-1.80458e-05
6.58238e-05
-9.10191e-06
6.65189e-05
6.18416e-06
6.33065e-05
3.07571e-05
5.26004e-05
4.85926e-05
3.90951e-05
5.5973e-05
2.61491e-05
4.83716e-05
1.09575e-05
4.1585e-05
-4.94337e-06
3.56173e-05
-1.14401e-05
2.15806e-05
-2.18762e-05
9.21788e-06
-3.72873e-05
1.90728e-05
-4.0764e-05
1.95633e-05
-3.06869e-06
1.21298e-05
4.85291e-05
4.07016e-05
1.908e-05
5.13829e-05
-5.04352e-07
5.47867e-05
-1.16204e-05
5.59915e-05
-1.62229e-05
5.81386e-05
-1.92194e-05
6.05892e-05
-2.38923e-05
6.93749e-05
-2.68077e-05
7.79365e-05
-2.58422e-05
8.61239e-05
-1.88924e-05
8.69217e-05
-9.54091e-07
7.34977e-05
3.13728e-05
5.2294e-05
6.02721e-05
3.28879e-05
6.83699e-05
1.73098e-05
5.85734e-05
6.92114e-06
4.82786e-05
-2.36267e-06
4.05626e-05
-2.53237e-05
3.7068e-05
-6.68817e-05
4.70451e-05
-0.000102567
4.96943e-05
-0.000116317
2.83742e-05
8.47963e-07
5.46478e-05
4.73338e-05
6.01469e-05
2.33857e-05
5.8177e-05
1.20573e-06
5.54003e-05
-8.56318e-06
5.3752e-05
-1.43874e-05
5.15751e-05
-1.92313e-05
4.92599e-05
-2.62504e-05
5.17937e-05
-3.15326e-05
5.37516e-05
-3.17459e-05
5.93477e-05
-2.9289e-05
5.67901e-05
-8.07483e-06
4.21955e-05
3.54054e-05
2.44493e-05
7.1204e-05
8.60586e-06
8.10864e-05
-5.16419e-06
7.05501e-05
-2.24639e-05
6.38468e-05
-5.4934e-05
7.42993e-05
-0.000106754
9.66293e-05
-0.000160364
0.000104175
-0.000181278
7.16828e-05
-0.000179261
2.78051e-05
2.00016e-06
3.32434e-05
1.94359e-05
3.7945e-05
2.03794e-05
3.80573e-05
3.43204e-06
3.64294e-05
-5.76903e-06
3.05821e-05
-9.47156e-06
2.31442e-05
-1.32424e-05
3.39132e-06
-7.61831e-06
-2.65701e-05
-5.00785e-06
-4.69061e-05
-1.71625e-05
-5.16677e-05
-3.0386e-05
-4.53998e-05
-1.66145e-05
-3.98232e-05
2.7135e-05
-4.23184e-05
6.60869e-05
-5.24976e-05
8.8189e-05
-8.90857e-05
0.000102677
-0.000152082
0.000118462
-0.000211825
0.000134082
-0.000242661
0.00012511
-0.000244509
0.000104744
-0.000242104
6.99071e-05
-0.000242577
2.84692e-05
-8.28162e-06
1.33292e-05
4.11731e-06
1.13896e-05
2.11845e-05
8.62337e-06
7.62286e-06
7.21372e-06
-4.33185e-06
-3.96314e-06
-1.16231e-06
-4.01434e-05
1.58365e-05
-7.74317e-05
2.28097e-05
-0.000104752
1.8345e-05
-0.000123521
9.3775e-09
-0.000149108
-1.12735e-05
-0.000171579
-2.94083e-06
-0.000171948
3.00412e-05
-0.000185481
7.47348e-05
-0.000206095
0.000101192
-0.000233289
0.000119234
-0.000254521
0.000134204
-0.00026064
0.000138802
-0.000267033
0.000129528
-0.000264284
8.58494e-05
-0.000278637
6.13947e-06
-0.000302243
-4.54778e-05
-7.13895e-05
2.47533e-07
3.35299e-06
1.97061e-06
1.9224e-05
-3.85085e-07
8.18021e-06
-1.67352e-05
9.3192e-06
-5.70829e-05
3.43974e-05
-9.08991e-05
4.57291e-05
-0.000101699
3.22638e-05
-0.000114246
2.80934e-05
-0.000143712
1.2761e-05
-0.000207558
2.11978e-06
-0.000241791
2.18226e-05
-0.000244452
3.8943e-05
-0.000250263
7.83242e-05
-0.000258612
0.000107748
-0.000259527
0.00011868
-0.000256745
0.000130183
-0.000253432
0.000132225
-0.000253515
9.34942e-05
-0.000272163
4.82786e-06
-0.000296947
-6.20503e-05
-0.000287513
-9.78168e-05
-0.000143043
-7.13142e-07
2.13681e-06
-5.60488e-06
2.45299e-05
-2.79554e-05
2.96865e-05
-7.48859e-05
5.23868e-05
-0.000108877
6.45611e-05
-0.000112102
4.60308e-05
-9.32125e-05
1.73724e-06
-0.000110486
-5.66805e-06
-0.000195833
-1.21282e-05
-0.000305282
-3.30308e-07
-0.000308449
4.05915e-05
-0.000269046
4.44047e-05
-0.000256232
5.81514e-05
-0.000249076
9.25907e-05
-0.000245556
0.000112089
-0.000238097
0.000114668
-0.000243456
9.70772e-05
-0.000295837
5.61527e-05
-0.000326574
-4.89352e-05
-0.000297607
-0.000104301
-0.000265743
-8.27807e-05
-0.000101134
1.44985e-06
-9.43901e-07
-1.78948e-05
4.40708e-05
-6.2359e-05
7.18492e-05
-0.00010417
9.17552e-05
-0.000120177
7.55714e-05
-0.00012718
-1.86688e-06
-0.000144252
-5.45285e-05
-0.000145206
-5.39145e-05
-0.000256796
-4.75749e-05
-0.000432709
2.31559e-05
-0.000431791
7.06569e-05
-0.000299981
6.56412e-05
-0.00024192
5.86697e-05
-0.000225667
6.66151e-05
-0.000217095
7.72564e-05
-0.000210661
7.44503e-05
-0.000235012
7.00715e-05
-0.00030933
3.61353e-05
-0.0003077
2.1682e-05
-0.000233882
-2.95989e-05
-0.000243027
-1.79159e-05
-0.000242676
-4.3893e-05
-8.10892e-05
-1.8782e-05
2.09666e-05
-5.47497e-05
8.07997e-05
-9.17457e-05
0.000107531
-0.000107695
0.000100832
-0.00013196
3.49029e-05
-0.000160528
-4.12494e-05
-0.000154186
-6.84044e-05
-0.000153292
-4.53394e-05
-0.000241389
-5.06824e-05
-0.000452051
6.09723e-05
-0.000505354
9.17479e-05
-0.00040173
8.41309e-05
-0.000278842
7.27917e-05
-0.000229068
6.37867e-05
-0.000208232
6.41043e-05
-0.000197517
5.64693e-05
-0.000206299
4.7222e-05
-0.000177793
7.63845e-05
-0.000250729
0.000150021
-0.000272159
7.81612e-05
-0.000314299
5.80415e-05
-0.000348551
3.02193e-06
-8.8261e-05
-5.19441e-05
7.33909e-05
-8.41979e-05
0.000113011
-0.000100745
0.000111884
-0.000134234
6.41457e-05
-0.000169524
-1.70802e-06
-0.00016702
-5.20653e-05
-0.000161434
-9.54275e-06
-0.000172042
-1.1994e-06
-0.000141263
-2.12194e-05
-0.000208273
3.45809e-05
-0.000330467
0.000138019
-0.000412735
7.78225e-05
-0.000341631
6.06611e-05
-0.00025414
5.76872e-05
-0.000215144
5.69971e-05
-0.000194294
4.99606e-05
-0.000163932
5.87511e-05
-0.000173294
0.000138787
-0.000218878
0.000167492
-0.00023803
0.000110319
-0.000251716
6.43969e-05
-0.000247476
-4.60612e-06
-8.1142e-05
-6.58584e-05
0.000138671
-9.34933e-05
0.000123012
-0.000140816
8.53686e-05
-0.000169281
3.83752e-05
-0.000164285
-8.70451e-06
-0.000137965
6.6191e-06
-0.000146946
6.457e-05
-0.000151626
6.73817e-06
-0.000171782
-3.29007e-05
-0.000145304
-2.9182e-05
-0.000179864
4.53042e-05
-0.000224514
6.85878e-05
-0.000243404
8.79285e-05
-0.000253938
6.82877e-05
-0.000241191
5.72768e-05
-0.000166934
6.25709e-05
-0.000182233
0.000146212
-0.000168723
0.000170174
-0.000155523
0.000155689
-0.000156818
0.000115559
-0.000151702
6.61233e-05
-0.000140808
-5.16427e-06
-8.95802e-05
-6.28988e-05
0.000182753
-0.000131988
0.000117621
-0.00015914
6.74499e-05
-0.00015
2.96586e-05
-0.000122016
4.00318e-05
-0.000170478
9.01021e-05
-0.000131825
5.60184e-05
-0.00011463
1.62168e-05
-0.000135434
-2.27924e-05
-0.000147186
-3.73155e-05
-0.000160179
-1.91183e-05
-0.00014076
3.03237e-05
-0.000152089
5.49806e-05
-0.000178672
9.90268e-05
-0.000183325
9.18612e-05
-0.000170888
0.000105792
-0.000143006
0.000131416
-0.000111445
0.000141236
-8.22312e-05
0.000129578
-6.3856e-05
9.94542e-05
-4.79184e-05
5.60933e-05
-2.80457e-05
-1.09545e-05
-9.97387e-05
-9.40374e-05
0.000192802
-0.000142475
0.000106338
-0.000136033
6.03928e-05
-9.53684e-05
6.02141e-05
-0.000114226
0.000136744
-9.18135e-05
7.46864e-05
-8.96922e-05
5.9318e-05
-7.26902e-05
5.67427e-05
-0.000108933
1.79235e-05
-0.000124284
-9.81759e-07
-0.000128436
-2.14161e-05
-0.00010543
-9.8415e-06
-6.29411e-05
6.07944e-05
-0.000104173
0.000102758
-0.000129977
9.38563e-05
-0.000126998
7.32662e-05
-0.00010075
8.18304e-05
-6.27762e-05
0.000101632
-2.21702e-05
8.79427e-05
1.43288e-05
6.35064e-05
5.28974e-05
1.79659e-05
8.15837e-05
-3.3066e-05
-0.000109063
-0.000194602
0.000268983
-0.000116897
9.58476e-05
-0.000105507
8.60896e-05
-8.86378e-05
0.000143627
-4.07773e-05
9.43901e-05
-2.10478e-05
5.88729e-05
-1.93156e-05
5.82225e-05
-2.85405e-05
6.70489e-05
-4.15752e-05
7.7406e-05
-8.01908e-05
3.07864e-05
-9.71982e-05
1.37387e-05
-5.94284e-05
9.93533e-06
-3.74583e-06
6.90534e-05
1.53211e-05
0.000109891
1.77531e-05
0.00010068
1.51105e-05
8.89359e-05
1.02386e-05
7.91438e-05
3.24716e-05
6.30352e-05
6.56953e-05
4.555e-05
9.79114e-05
2.09414e-05
0.000128775
-2.69663e-06
0.000144272
-3.12532e-05
-8.8027e-05
-0.000304579
0.000414909
-8.39625e-05
0.000134411
-9.05897e-05
0.000152713
-3.30253e-05
0.000102106
-7.21125e-06
6.78399e-05
5.43612e-06
4.69768e-05
1.0347e-05
5.34074e-05
1.34429e-05
6.41194e-05
1.12791e-05
8.07115e-05
-1.92329e-05
8.91001e-05
-3.91586e-05
4.27899e-05
-1.93511e-05
3.12908e-05
2.53996e-05
5.63967e-05
3.12312e-05
7.57153e-05
3.98386e-05
7.35259e-05
5.37379e-05
7.04926e-05
7.62325e-05
7.15899e-05
9.46235e-05
6.68806e-05
8.96513e-05
5.00664e-05
0.000108929
1.67547e-05
0.000133124
-7.09036e-06
0.000139285
-3.55031e-05
-7.4601e-05
-0.000423329
0.000523683
-2.27657e-05
0.000208052
-2.71285e-05
0.000156659
6.40377e-06
7.39491e-05
1.47239e-05
5.86048e-05
1.8059e-05
4.39138e-05
2.39729e-05
4.7579e-05
3.20115e-05
5.61252e-05
4.0753e-05
7.20334e-05
4.31781e-05
8.75823e-05
3.85497e-05
9.50526e-05
4.16161e-05
8.22589e-05
4.92338e-05
8.48399e-05
4.23149e-05
7.37767e-05
6.43233e-05
5.18668e-05
7.5934e-05
5.10601e-05
0.000112762
0.00010879
0.000108538
0.000110452
0.000126137
0.00013782
-0.0003203
2.20818e-05
2.64006e-05
2.46774e-05
2.92609e-05
3.04391e-05
3.44222e-05
4.13451e-05
5.22993e-05
6.16319e-05
6.71463e-05
6.99889e-05
7.46485e-05
7.07349e-05
9.01804e-05
)
;

boundaryField
{
    leftWall
    {
        type            fixedValue;
        value           uniform 0;
    }
    rightWall
    {
        type            fixedValue;
        value           nonuniform 0();
    }
    lowerWall
    {
        type            fixedValue;
        value           uniform 0;
    }
    atmosphere
    {
        type            calculated;
        value           nonuniform 0();
    }
    defaultFaces
    {
        type            empty;
        value           nonuniform 0();
    }
    procBoundary0to1
    {
        type            processor;
        value           nonuniform List<scalar> 
26
(
-1.88996e-06
-6.05336e-08
2.40446e-07
-5.47949e-07
-6.00141e-07
-7.36269e-06
-1.65737e-05
-1.51415e-05
-5.30406e-05
-2.31221e-05
-0.000118557
-0.000179403
-0.000233233
-0.00029571
-0.000285248
-0.000259882
9.87012e-05
-0.000228453
-0.000331026
-0.000252411
-0.000124606
-9.69755e-06
9.2593e-05
0.000139958
0.000112774
9.49757e-05
)
;
    }
    procBoundary0to2
    {
        type            processor;
        value           nonuniform List<scalar> 
24
(
5.00158e-05
4.7196e-05
3.60601e-05
1.03678e-05
-1.44324e-05
-3.80988e-05
-6.17186e-05
0.000347315
0.000234894
0.000150053
7.80323e-05
5.37561e-05
4.26537e-05
4.36139e-05
4.9223e-05
6.10704e-05
7.82522e-05
9.00172e-05
8.93464e-05
8.19527e-05
7.1154e-05
5.25736e-05
9.87995e-05
3.87091e-05
)
;
    }
}


// ************************************************************************* //
