/*--------------------------------*- C++ -*----------------------------------*\
| =========                 |                                                 |
| \\      /  F ield         | OpenFOAM: The Open Source CFD Toolbox           |
|  \\    /   O peration     | Version:  2.4.0                                 |
|   \\  /    A nd           | Web:      www.OpenFOAM.org                      |
|    \\/     M anipulation  |                                                 |
\*---------------------------------------------------------------------------*/
FoamFile
{
    version     2.0;
    format      ascii;
    class       surfaceScalarField;
    location    "1";
    object      phi.air;
}
// * * * * * * * * * * * * * * * * * * * * * * * * * * * * * * * * * * * * * //

dimensions      [0 3 -1 0 0 0 0];

internalField   nonuniform List<scalar> 
1101
(
-4.14466e-06
4.14438e-06
-8.34855e-06
4.20361e-06
-1.16987e-05
3.34983e-06
-1.37923e-05
2.09326e-06
-1.48537e-05
1.06102e-06
-1.5311e-05
4.57011e-07
-1.5196e-05
-1.15149e-07
-1.51926e-05
-3.55691e-09
-1.55006e-05
3.07908e-07
-1.57158e-05
2.15041e-07
-1.52342e-05
-4.81761e-07
-1.40396e-05
-1.19468e-06
-1.28267e-05
-1.21303e-06
-1.19191e-05
-9.07747e-07
-1.12359e-05
-6.8344e-07
-1.04889e-05
-7.47127e-07
-9.36748e-06
-1.12159e-06
-7.62519e-06
-1.7425e-06
-5.31268e-06
-2.31273e-06
-3.29425e-06
-2.01869e-06
-2.51757e-06
-7.76952e-07
-6.16654e-07
-4.13238e-06
8.27634e-06
-8.29182e-06
8.36273e-06
-1.15974e-05
6.65498e-06
-1.39703e-05
4.46574e-06
-1.53781e-05
2.46836e-06
-1.58267e-05
9.05279e-07
-1.54241e-05
-5.18058e-07
-1.52566e-05
-1.7125e-07
-1.53245e-05
3.75636e-07
-1.51874e-05
7.76327e-08
-1.46482e-05
-1.02121e-06
-1.38056e-05
-2.03753e-06
-1.28938e-05
-2.12507e-06
-1.21359e-05
-1.66593e-06
-1.14163e-05
-1.40332e-06
-1.03712e-05
-1.79252e-06
-8.98562e-06
-2.50754e-06
-7.09739e-06
-3.63107e-06
-4.93231e-06
-4.47817e-06
-2.94614e-06
-4.00515e-06
-1.1898e-06
-2.53351e-06
-1.72931e-06
-4.1489e-06
1.24256e-05
-7.90953e-06
1.21232e-05
-1.11877e-05
9.93287e-06
-1.40046e-05
7.28234e-06
-1.57398e-05
4.20322e-06
-1.57528e-05
9.18006e-07
-1.55668e-05
-7.04167e-07
-1.52476e-05
-4.90557e-07
-1.53308e-05
4.58842e-07
-1.54113e-05
1.58041e-07
-1.49742e-05
-1.45836e-06
-1.43101e-05
-2.70175e-06
-1.33643e-05
-3.07101e-06
-1.21658e-05
-2.86444e-06
-1.09165e-05
-2.65213e-06
-9.51826e-06
-3.18928e-06
-8.04143e-06
-3.98304e-06
-6.6635e-06
-5.00911e-06
-5.26191e-06
-5.87448e-06
-3.75119e-06
-5.45151e-06
-1.7027e-06
-4.46172e-06
-3.56454e-06
-4.89158e-06
1.7345e-05
-9.49459e-06
1.67323e-05
-1.33294e-05
1.37676e-05
-1.59359e-05
9.88855e-06
-1.70868e-05
5.35377e-06
-1.76107e-05
1.46065e-06
-1.72179e-05
-9.90103e-07
-1.66333e-05
-9.04675e-07
-1.56466e-05
-3.51168e-07
-1.50263e-05
-3.23359e-07
-1.49024e-05
-1.45938e-06
-1.45112e-05
-2.98841e-06
-1.39026e-05
-3.60209e-06
-1.2767e-05
-3.9207e-06
-1.11895e-05
-4.1003e-06
-9.47458e-06
-4.69598e-06
-8.03593e-06
-5.19832e-06
-6.69729e-06
-6.16401e-06
-5.47277e-06
-6.75026e-06
-4.15959e-06
-5.45885e-06
-2.30625e-06
-3.79899e-06
-3.52086e-06
-5.87606e-06
2.33171e-05
-1.34396e-05
2.43431e-05
-1.80626e-05
1.83948e-05
-2.0983e-05
1.2835e-05
-2.07248e-05
5.40947e-06
-1.897e-05
9.24915e-08
-1.90852e-05
-2.42868e-06
-1.90636e-05
-3.94569e-06
-1.86197e-05
-4.13145e-06
-1.85183e-05
-3.36763e-06
-1.79895e-05
-3.99254e-06
-1.67886e-05
-5.21127e-06
-1.50007e-05
-5.85547e-06
-1.30469e-05
-6.23289e-06
-1.10026e-05
-6.6986e-06
-9.32537e-06
-7.30946e-06
-7.63124e-06
-8.10053e-06
-6.00053e-06
-9.77168e-06
-4.78643e-06
-1.12177e-05
-4.05657e-06
-9.87259e-06
-2.81723e-06
4.69377e-06
3.09437e-05
-1.14015e-05
3.48313e-05
-2.06137e-05
3.36421e-05
-2.36055e-05
2.17574e-05
-2.19154e-05
1.02252e-05
-2.30007e-05
-1.60793e-06
-2.39906e-05
-1.39762e-05
-2.29695e-05
-2.65229e-05
-2.13006e-05
-3.46021e-05
-1.82919e-05
-3.62405e-05
-1.53856e-05
-3.36502e-05
-1.40659e-05
-3.1475e-05
-1.45232e-05
-2.80757e-05
-1.60332e-05
-2.2113e-05
-1.68607e-05
-2.08773e-05
-1.62359e-05
-2.26066e-05
-1.38393e-05
-2.55314e-05
-1.07819e-05
-2.73279e-05
-7.49135e-06
-3.04446e-05
-4.97185e-06
-3.35879e-05
-4.55665e-06
-3.45177e-05
-8.2891e-06
-3.47119e-05
5.74415e-06
-1.85449e-05
5.34913e-05
-2.54718e-05
4.07617e-05
-2.49436e-05
1.50669e-05
-2.52207e-05
-8.76404e-06
-2.67516e-05
-2.88465e-05
-2.73372e-05
-2.85116e-05
-2.40227e-05
-1.39726e-05
-1.65413e-05
-1.49099e-05
-7.76374e-06
-1.71313e-05
-6.87532e-07
-1.45144e-05
1.42299e-06
-8.87219e-06
-1.36177e-06
-5.28962e-06
-5.94747e-06
-6.79295e-06
-1.12621e-05
-1.05581e-05
-1.5097e-05
-1.23837e-05
-1.6141e-05
-1.4816e-05
-1.60587e-05
-1.59581e-05
-1.60905e-05
-1.60784e-05
-1.66832e-05
-1.45558e-05
-1.66049e-05
-1.11969e-05
-1.16998e-05
-1.95929e-05
-0.000104894
-2.04774e-05
7.38862e-05
-2.22956e-05
3.72865e-05
-2.36623e-05
1.97451e-06
-3.72567e-05
-3.15881e-06
-3.97543e-05
-5.47016e-06
-2.40365e-05
-2.0742e-05
-9.98246e-06
-2.15643e-05
-1.05921e-06
-2.21465e-05
4.01067e-06
-2.08935e-05
6.86274e-06
-1.57467e-05
9.95282e-06
-1.0356e-05
1.23529e-05
-3.85435e-06
1.11638e-05
2.29768e-06
5.63304e-06
6.01035e-06
-2.45778e-06
5.49943e-06
-9.67007e-06
6.11807e-08
-1.4746e-05
-3.19014e-06
-2.00897e-05
-3.33714e-06
-2.48503e-05
-4.08437e-06
-2.69045e-05
1.13357e-05
-2.80972e-05
0.000135617
0.000269674
-3.36637e-05
9.9626e-05
-5.26029e-05
4.336e-05
-4.64864e-05
1.87457e-06
-1.57118e-05
-1.15953e-05
9.36118e-06
-2.37569e-05
1.86371e-05
-2.88492e-05
2.60271e-05
-2.81853e-05
3.49744e-05
-2.99566e-05
4.47406e-05
-2.88944e-05
5.3317e-05
-2.24503e-05
5.28562e-05
-8.44945e-06
4.28142e-05
6.63727e-06
2.73022e-05
1.76508e-05
9.49526e-06
2.33614e-05
-4.76943e-06
1.89214e-05
-1.66001e-05
1.06584e-05
-2.48285e-05
2.38937e-06
-2.67386e-05
-4.99826e-06
-1.91018e-05
-1.4265e-05
7.64806e-06
-1.75964e-05
-1.33434e-05
-0.000102246
-0.000119303
-2.00043e-05
0.000109641
-1.1013e-08
4.81664e-05
2.32088e-05
3.22106e-06
3.59469e-05
-1.93564e-05
4.11195e-05
-2.72372e-05
4.46718e-05
-3.05992e-05
5.10956e-05
-3.27129e-05
5.68167e-05
-3.38584e-05
6.03758e-05
-3.09224e-05
6.22766e-05
-2.26875e-05
6.47877e-05
-1.06288e-05
6.32016e-05
9.90212e-06
5.3346e-05
2.95584e-05
4.04579e-05
3.83291e-05
2.89665e-05
3.16783e-05
1.48757e-05
2.60806e-05
-1.59501e-06
2.13679e-05
-1.07416e-05
9.07406e-06
-2.06405e-05
4.3327e-05
-3.90383e-05
0.000108092
-5.98373e-05
0.000160962
0.000158045
2.62974e-06
9.47368e-05
3.596e-05
3.70634e-05
5.41182e-05
-4.99813e-06
5.60045e-05
-1.9731e-05
5.59533e-05
-2.62933e-05
5.67339e-05
-3.06767e-05
6.18449e-05
-3.71419e-05
6.81456e-05
-3.94475e-05
7.59558e-05
-3.76696e-05
8.30797e-05
-2.41823e-05
8.51237e-05
2.66207e-05
7.40542e-05
3.34746e-05
5.40714e-05
4.85841e-05
3.54008e-05
5.85288e-05
2.07758e-05
4.70784e-05
9.91068e-06
3.75009e-05
-2.48604e-07
3.1483e-05
-3.00849e-05
2.76959e-05
-8.24894e-05
4.49105e-05
-0.000101823
7.06512e-05
-0.000104832
4.98608e-05
1.53234e-05
3.01874e-05
5.2638e-05
5.22109e-05
2.01683e-05
5.69477e-05
-5.41902e-06
5.39578e-05
-1.64629e-05
5.11457e-05
-2.33656e-05
5.04876e-05
-2.98297e-05
5.13776e-05
-3.77204e-05
5.46538e-05
-4.3807e-05
5.81359e-05
-3.68426e-05
7.11607e-05
1.08405e-05
5.51152e-05
9.20547e-05
3.62118e-05
0.000183178
2.20369e-05
8.78798e-05
8.24925e-06
7.68852e-05
-3.62798e-06
6.19888e-05
-1.99401e-05
5.33885e-05
-5.33449e-05
6.16601e-05
-0.00011526
9.71983e-05
-0.000167701
0.000153294
-0.000172455
0.000127907
-0.000172678
3.93354e-05
-4.98142e-06
3.09981e-05
1.27507e-05
3.63972e-05
1.24887e-05
3.54566e-05
-4.55359e-06
3.28849e-05
-1.38746e-05
2.82433e-05
-1.86739e-05
2.30541e-05
-2.49409e-05
1.23812e-06
-1.96375e-05
-3.09723e-05
-8.12094e-07
5.97696e-06
3.96683e-05
3.82762e-05
4.64371e-06
-2.90991e-07
-1.2904e-05
-8.8681e-05
3.82902e-05
-6.2057e-05
7.44583e-05
-5.64536e-05
7.88465e-05
-8.46525e-05
8.95665e-05
-0.000134784
0.000102848
-0.000201034
0.000127855
-0.00024898
0.000137905
-0.000248801
0.000131005
-0.00024586
0.000107986
-0.000244084
0.000121877
0.000108537
1.21655e-05
-1.29682e-06
9.23934e-06
1.28163e-05
5.01978e-06
-6.46682e-07
2.98067e-06
-1.19279e-05
-6.38371e-06
-1.03922e-05
-4.19734e-05
8.11822e-06
-7.50297e-05
2.22279e-05
-7.6157e-05
5.52924e-05
-6.98138e-05
3.80107e-05
-8.0177e-05
4.12978e-05
-0.000101432
4.01147e-05
-0.000187678
4.49248e-07
-0.000197678
6.17776e-05
-0.000196939
9.49562e-05
-0.000219707
0.000113194
-0.00024818
0.000141268
-0.000262527
0.000198012
-0.000270174
0.000209475
-0.000249983
0.000227847
-0.000246124
0.000274127
-0.000294353
0.000225953
0.000115049
-1.02287e-06
4.32882e-05
-1.01443e-06
3.57275e-05
-4.05695e-06
3.24594e-06
-1.93973e-05
1.23836e-06
-5.81768e-05
2.96028e-05
-9.15678e-05
9.0374e-05
-7.69662e-05
8.40542e-05
-8.58456e-05
9.78683e-05
-7.67565e-05
9.31586e-05
-0.000158593
0.000115713
-0.000208125
6.2165e-05
-0.000276985
1.9471e-05
-0.000252447
8.8428e-05
-0.000254731
9.59783e-05
-0.000264543
0.000116498
-0.000259239
0.000166014
-0.000237877
0.000199189
-0.000220242
0.000215243
-0.0002408
0.00018801
-0.000272023
0.000147044
-0.00028584
7.77426e-05
1.50537e-05
1.26978e-05
5.47779e-05
-3.33537e-06
6.46004e-05
-2.90354e-05
2.60214e-05
-7.27024e-05
5.36793e-05
-8.38969e-05
0.000102308
-8.33458e-05
9.91797e-05
-5.30788e-05
9.34506e-05
-9.64407e-05
0.000134672
-0.000135664
0.000153553
-0.000259078
0.00018265
-0.0002697
6.45479e-05
-0.000276534
-7.06486e-06
-0.000319366
8.07636e-05
-0.000260895
0.000174861
-0.00024075
0.000176844
-0.000214182
0.000186679
-0.000199527
0.000186391
-0.000257872
0.000201006
-0.00025624
0.000105607
-0.000248273
9.00267e-05
-0.000228783
2.99049e-05
-3.62292e-06
2.24077e-05
4.79089e-05
-6.19346e-06
7.78458e-05
-5.87788e-05
7.86552e-05
-6.53459e-05
0.000141463
-8.13057e-05
0.000142626
-8.01261e-05
0.000142401
-0.000117276
7.8962e-05
-0.000142214
7.76372e-05
-0.000179234
0.000130706
-0.000238916
0.000216547
-0.000295441
0.000123347
-0.000289158
1.93007e-06
-0.000280651
1.70607e-05
-0.000241135
7.56804e-05
-0.000212682
0.000139967
-0.000186494
0.000137422
-0.000222926
0.000173259
-0.000248543
0.000189788
-0.000296507
0.000146213
-0.000276198
6.8374e-05
-0.000263232
1.67195e-05
-0.000241308
-2.55554e-05
-7.06973e-05
2.77447e-05
-9.32676e-06
-4.8392e-05
9.76432e-05
-5.33067e-05
0.000144254
-5.69519e-05
0.00016395
-6.21115e-05
0.000140775
-0.000115998
9.07732e-05
-0.00016424
6.42417e-05
-0.000201659
9.40838e-05
-0.000190863
0.00011155
-0.000155901
0.000180282
-0.000180246
0.000147972
-0.00023131
5.92771e-05
-0.000237302
3.34296e-05
-0.000235107
6.32346e-05
-0.000209626
8.09429e-05
-0.000204662
0.00010506
-0.000218613
0.000168476
-0.000229468
0.000197466
-0.000250038
0.000166766
-0.000273738
9.20737e-05
-0.000318528
6.15086e-05
-0.000350891
6.80842e-06
-8.49778e-05
3.20864e-05
8.57917e-05
-4.77163e-05
0.000133614
-3.97787e-05
0.000182639
-6.09494e-05
0.000162691
-0.000128516
0.000126782
-0.000177773
0.000111406
-0.000186333
7.03453e-05
-0.000172547
7.97787e-05
-0.000155221
9.41295e-05
-0.00012445
0.000149508
-0.000124992
0.000148516
-0.000159641
9.40749e-05
-0.000185974
6.08064e-05
-0.00018801
6.5331e-05
-0.000192868
8.34587e-05
-0.000210822
0.000118384
-0.000216149
0.000172003
-0.000210371
0.000191654
-0.000215887
0.000172282
-0.000239774
0.000115961
-0.000251572
7.33067e-05
-0.000247315
2.55085e-06
-7.69424e-05
1.0268e-05
0.000181801
-1.26331e-05
0.00019337
-7.68483e-05
0.000191975
-0.000140148
0.000156236
-0.000191349
0.00015846
-0.000189372
0.000108665
-0.000192845
7.38134e-05
-0.000175744
6.26763e-05
-0.000150928
6.9316e-05
-0.000122304
0.000120899
-0.000116188
0.000142408
-0.000142262
0.000120149
-0.000169099
8.76432e-05
-0.000184456
8.06731e-05
-0.000191148
9.00527e-05
-0.000192915
0.000119959
-0.000182811
0.000161874
-0.000164733
0.000173576
-0.000150459
0.000158008
-0.000152366
0.000117867
-0.000148729
6.96694e-05
-0.000144164
-2.01381e-06
-8.96659e-05
4.2984e-05
0.00026463
-5.26075e-05
0.000217457
-0.000118581
0.000184043
-0.000163455
0.000186487
-0.000180729
0.00017507
-0.000169914
9.78494e-05
-0.000159504
6.34035e-05
-0.000145169
4.83402e-05
-0.000130395
5.45406e-05
-0.000106281
9.67897e-05
-9.98035e-05
0.00013595
-0.000121676
0.000142028
-0.000153298
0.000119268
-0.000170601
9.79765e-05
-0.000175782
9.52331e-05
-0.000165724
0.000109901
-0.000137112
0.000133262
-0.000105299
0.000141764
-7.70634e-05
0.000129773
-5.76572e-05
9.84611e-05
-4.21729e-05
5.41852e-05
-2.94476e-05
-1.4739e-05
-0.000103333
5.88479e-05
0.000259457
-8.99184e-05
0.000254462
-0.000136458
0.00021795
-0.000144106
0.000193667
-0.00011321
0.000144172
-9.21781e-05
7.68176e-05
-8.93477e-05
6.0573e-05
-0.000100389
5.93817e-05
-0.000109245
6.3394e-05
-8.98323e-05
7.73675e-05
-6.02482e-05
0.000106365
-4.9348e-05
0.000131135
-7.2516e-05
0.00014243
-0.000107031
0.000132492
-0.000126682
0.000114884
-0.000122933
0.000106152
-9.6183e-05
0.000106511
-5.78752e-05
0.000103456
-1.67329e-05
8.86302e-05
1.95242e-05
6.2204e-05
5.68446e-05
1.68648e-05
8.00113e-05
-3.79057e-05
-0.000112763
-0.000104249
0.00037117
-0.000149488
0.00026292
-0.000129502
0.000197812
-8.88395e-05
0.000153003
-3.89962e-05
9.43286e-05
-2.13066e-05
5.9128e-05
-1.94066e-05
5.8673e-05
-2.74978e-05
6.74729e-05
-4.36542e-05
7.95502e-05
-5.04304e-05
8.41418e-05
-3.57406e-05
9.1667e-05
-8.30175e-06
0.000103676
1.50898e-05
0.00011903
2.08327e-05
0.000126749
1.26334e-05
0.000123083
6.0887e-06
0.000112697
1.25829e-05
0.000100018
3.61643e-05
7.98745e-05
6.91286e-05
5.5666e-05
9.93992e-05
3.19337e-05
0.000127427
-1.11628e-05
0.000145491
-5.59704e-05
-0.00011026
-0.000106892
0.000457715
-0.000124129
0.000270665
-8.4135e-05
0.000157818
-3.31068e-05
0.000101974
-6.70781e-06
6.79295e-05
5.23376e-06
4.71864e-05
1.02941e-05
5.36126e-05
1.34755e-05
6.42916e-05
1.21725e-05
8.08532e-05
5.77107e-06
9.05431e-05
2.33889e-06
9.50956e-05
1.23276e-05
9.36788e-05
3.51117e-05
9.62446e-05
6.20283e-05
9.98329e-05
8.16535e-05
0.000103459
9.75319e-05
9.68191e-05
0.000109135
8.84141e-05
0.00012227
6.67387e-05
0.000136281
4.16564e-05
0.000153626
1.45889e-05
0.00016951
-2.70486e-05
0.000174153
-6.06157e-05
-0.000101127
-4.6048e-05
0.000502503
-2.30621e-05
0.000246842
-2.21713e-05
0.000156927
5.81038e-06
7.39929e-05
1.48385e-05
5.89014e-05
1.79688e-05
4.40562e-05
2.3918e-05
4.76633e-05
3.20284e-05
5.61812e-05
4.07911e-05
7.20905e-05
4.36895e-05
8.76447e-05
4.31985e-05
9.55864e-05
4.45264e-05
9.23503e-05
5.32329e-05
8.7538e-05
7.09237e-05
8.21422e-05
9.28907e-05
8.14923e-05
0.000116091
7.3619e-05
0.000137084
0.000151025
0.000160194
0.000168224
0.00017318
0.00017425
5.5279e-06
2.12694e-05
2.80821e-05
2.42264e-05
2.91537e-05
3.042e-05
3.44032e-05
4.13264e-05
5.23194e-05
6.16601e-05
6.71831e-05
7.01286e-05
7.5614e-05
8.56644e-05
0.000100743
)
;

boundaryField
{
    leftWall
    {
        type            fixedValue;
        value           uniform 0;
    }
    rightWall
    {
        type            fixedValue;
        value           nonuniform 0();
    }
    lowerWall
    {
        type            fixedValue;
        value           uniform 0;
    }
    atmosphere
    {
        type            calculated;
        value           nonuniform 0();
    }
    defaultFaces
    {
        type            empty;
        value           nonuniform 0();
    }
    procBoundary0to1
    {
        type            processor;
        value           nonuniform List<scalar> 
26
(
-1.90131e-06
-7.75238e-08
1.94082e-07
-5.36701e-07
-5.96737e-07
-6.33212e-06
-1.16674e-05
2.75365e-05
-5.241e-05
8.31117e-05
-0.000115449
-0.000180456
-0.000234684
-0.000308929
-0.000292797
-0.000242864
4.973e-05
-0.000220469
-0.000336611
-0.00025535
-0.00013144
-1.57801e-05
8.94406e-05
0.000142988
0.00016502
0.000166765
)
;
    }
    procBoundary0to2
    {
        type            processor;
        value           nonuniform List<scalar> 
24
(
6.74196e-05
5.27984e-05
3.24891e-05
6.56048e-06
-3.20043e-05
-6.16871e-05
-9.36431e-05
0.000497036
0.000231091
0.000150114
7.78486e-05
5.39741e-05
4.27899e-05
4.36801e-05
4.92579e-05
6.10975e-05
7.8304e-05
9.00634e-05
8.94049e-05
8.20526e-05
7.20918e-05
6.64139e-05
0.00011602
5.83409e-05
)
;
    }
}


// ************************************************************************* //
