/*--------------------------------*- C++ -*----------------------------------*\
| =========                 |                                                 |
| \\      /  F ield         | OpenFOAM: The Open Source CFD Toolbox           |
|  \\    /   O peration     | Version:  2.4.0                                 |
|   \\  /    A nd           | Web:      www.OpenFOAM.org                      |
|    \\/     M anipulation  |                                                 |
\*---------------------------------------------------------------------------*/
FoamFile
{
    version     2.0;
    format      ascii;
    class       surfaceScalarField;
    location    "1";
    object      phi.mercury;
}
// * * * * * * * * * * * * * * * * * * * * * * * * * * * * * * * * * * * * * //

dimensions      [0 3 -1 0 0 0 0];

internalField   nonuniform List<scalar> 
1101
(
-4.14461e-06
4.14461e-06
-8.34849e-06
4.20387e-06
-1.16986e-05
3.35012e-06
-1.37921e-05
2.09354e-06
-1.48534e-05
1.06129e-06
-1.53107e-05
4.57258e-07
-1.51958e-05
-1.14927e-07
-1.51924e-05
-3.35892e-09
-1.55005e-05
3.08089e-07
-1.57157e-05
2.15213e-07
-1.52341e-05
-4.81596e-07
-1.40396e-05
-1.19452e-06
-1.28267e-05
-1.21288e-06
-1.19191e-05
-9.07591e-07
-1.12358e-05
-6.83278e-07
-1.04889e-05
-7.46956e-07
-9.36747e-06
-1.12141e-06
-7.62518e-06
-1.74229e-06
-5.31269e-06
-2.31249e-06
-3.29427e-06
-2.01842e-06
-2.51761e-06
-7.7666e-07
-6.16309e-07
-4.13233e-06
8.27694e-06
-8.29176e-06
8.36331e-06
-1.15973e-05
6.65561e-06
-1.39701e-05
4.4664e-06
-1.53778e-05
2.469e-06
-1.58265e-05
9.05878e-07
-1.54239e-05
-5.17529e-07
-1.52564e-05
-1.70784e-07
-1.53244e-05
3.7608e-07
-1.51873e-05
7.80596e-08
-1.46481e-05
-1.02078e-06
-1.38055e-05
-2.0371e-06
-1.28938e-05
-2.12462e-06
-1.21359e-05
-1.66548e-06
-1.14163e-05
-1.40285e-06
-1.03712e-05
-1.79204e-06
-8.98561e-06
-2.50703e-06
-7.09738e-06
-3.63052e-06
-4.93231e-06
-4.47757e-06
-2.94614e-06
-4.00459e-06
-1.18983e-06
-2.53298e-06
-1.7286e-06
-4.14888e-06
1.24251e-05
-7.90947e-06
1.21237e-05
-1.11876e-05
9.9337e-06
-1.40045e-05
7.28325e-06
-1.57396e-05
4.20411e-06
-1.57525e-05
9.18821e-07
-1.55666e-05
-7.03471e-07
-1.52474e-05
-4.89958e-07
-1.53307e-05
4.59393e-07
-1.54112e-05
1.58567e-07
-1.49742e-05
-1.45784e-06
-1.43101e-05
-2.70121e-06
-1.33642e-05
-3.07044e-06
-1.21658e-05
-2.86393e-06
-1.09165e-05
-2.65219e-06
-9.51824e-06
-3.19025e-06
-8.04141e-06
-3.98386e-06
-6.66348e-06
-5.00846e-06
-5.26189e-06
-5.87923e-06
-3.75118e-06
-5.51544e-06
-1.7027e-06
-4.58156e-06
-3.62543e-06
-4.89184e-06
1.73008e-05
-9.49458e-06
1.67224e-05
-1.33293e-05
1.3768e-05
-1.59358e-05
9.88964e-06
-1.70866e-05
5.3548e-06
-1.76105e-05
1.4344e-06
-1.72177e-05
-1.15586e-06
-1.66332e-05
-1.18891e-06
-1.56464e-05
-6.4806e-07
-1.50262e-05
-5.45441e-07
-1.49023e-05
-1.65322e-06
-1.45112e-05
-3.15083e-06
-1.39025e-05
-3.72013e-06
-1.27669e-05
-4.03775e-06
-1.11894e-05
-4.27681e-06
-9.47457e-06
-4.96933e-06
-8.03591e-06
-5.50487e-06
-6.6973e-06
-6.48478e-06
-5.473e-06
-7.34161e-06
-4.16002e-06
-7.11344e-06
-2.30583e-06
-6.69157e-06
-5.63355e-06
-5.88781e-06
2.31217e-05
-1.34433e-05
2.42553e-05
-1.80627e-05
1.83848e-05
-2.09829e-05
1.27994e-05
-2.07341e-05
4.77787e-06
-1.89923e-05
-3.99476e-06
-1.91095e-05
-9.69911e-06
-1.9078e-05
-1.25821e-05
-1.86201e-05
-1.31226e-05
-1.8509e-05
-1.22174e-05
-1.79791e-05
-1.15384e-05
-1.67813e-05
-1.13997e-05
-1.49979e-05
-1.12173e-05
-1.30468e-05
-1.14187e-05
-1.10051e-05
-1.2173e-05
-9.32914e-06
-1.31765e-05
-7.63883e-06
-1.41964e-05
-6.01282e-06
-1.64557e-05
-4.80529e-06
-1.90644e-05
-4.06934e-06
-1.94947e-05
-2.87164e-06
-1.84644e-05
-1.70426e-05
-1.14577e-05
3.44412e-05
-2.06363e-05
3.33791e-05
-2.36178e-05
2.08404e-05
-2.20139e-05
2.52715e-06
-2.33028e-05
-1.92515e-05
-2.43483e-05
-4.64511e-05
-2.32556e-05
-5.81797e-05
-2.15381e-05
-6.37026e-05
-1.84343e-05
-6.41619e-05
-1.54598e-05
-5.92033e-05
-1.41275e-05
-5.44669e-05
-1.4591e-05
-5.31903e-05
-1.60459e-05
-4.88806e-05
-1.68338e-05
-4.66781e-05
-1.61831e-05
-4.6148e-05
-1.38049e-05
-4.89945e-05
-1.07821e-05
-5.08147e-05
-7.54772e-06
-5.42138e-05
-5.02099e-06
-5.8152e-05
-4.59305e-06
-6.05399e-05
-6.66637e-06
-6.84506e-05
-0.00010593
-1.86537e-05
5.28398e-05
-2.569e-05
3.88199e-05
-2.62237e-05
5.50909e-06
-2.68313e-05
-3.69785e-05
-2.94433e-05
-6.8604e-05
-3.28552e-05
-9.28203e-05
-2.83409e-05
-9.79616e-05
-1.61526e-05
-0.000103154
-4.84357e-06
-0.000105891
2.29818e-07
-9.33782e-05
4.0651e-07
-8.31177e-05
-8.68811e-07
-6.97224e-05
-4.59987e-06
-5.02306e-05
-1.0455e-05
-4.55046e-05
-1.46353e-05
-3.97902e-05
-1.54364e-05
-3.75365e-05
-1.39438e-05
-3.87986e-05
-1.22137e-05
-4.13786e-05
-1.34672e-05
-4.48032e-05
-2.03704e-05
-4.96873e-05
-2.39144e-05
-7.87205e-05
-0.000186251
-2.09302e-05
7.1991e-05
-2.45794e-05
3.09132e-05
-2.46359e-05
-1.71954e-05
-2.21663e-05
-6.97026e-05
-1.09526e-05
-9.60232e-05
-1.72149e-06
-9.92835e-05
4.59854e-06
-9.31841e-05
8.66166e-06
-9.25199e-05
1.24411e-05
-9.20409e-05
1.47245e-05
-7.41766e-05
1.26443e-05
-5.75268e-05
1.08503e-05
-4.14758e-05
9.83023e-06
-2.09711e-05
5.83803e-06
-1.66158e-05
-7.60903e-07
-1.01755e-05
-8.90822e-06
-6.7404e-06
-1.46787e-05
-1.04249e-05
-2.03794e-05
-1.14125e-05
-2.504e-05
-1.25611e-05
-2.40312e-05
-1.60024e-05
-1.89004e-05
-4.5537e-05
-0.000170143
-3.8911e-05
9.52915e-05
-5.21079e-05
2.28181e-05
-2.36235e-05
-5.01338e-05
1.72823e-05
-7.26736e-05
2.9732e-05
-8.0324e-05
3.04739e-05
-8.54076e-05
3.30803e-05
-8.73981e-05
3.82381e-05
-8.26318e-05
4.17502e-05
-6.74348e-05
4.53108e-05
-4.8408e-05
4.72265e-05
-2.61558e-05
4.18728e-05
-4.31926e-06
2.83603e-05
1.25411e-05
1.06859e-05
2.07298e-05
-3.56842e-06
1.75201e-05
-1.5333e-05
9.68271e-06
-2.4134e-05
1.85888e-06
-2.38265e-05
-6.15156e-06
-1.75509e-05
-2.12599e-05
-2.03919e-05
-2.53575e-05
-3.05381e-05
-2.2851e-05
-9.23739e-05
-3.01101e-05
0.000104551
-5.84159e-06
4.36852e-05
2.5846e-05
-2.54075e-05
3.64176e-05
-5.20114e-05
3.95681e-05
-5.58845e-05
4.22181e-05
-5.7868e-05
4.66042e-05
-6.01012e-05
5.12134e-05
-5.59465e-05
5.65691e-05
-4.68629e-05
6.06937e-05
-3.83189e-05
6.31078e-05
-2.51102e-05
6.31833e-05
-6.19224e-06
5.45506e-05
1.47787e-05
4.17417e-05
2.53263e-05
3.02661e-05
2.27615e-05
1.63658e-05
1.8943e-05
-1.09168e-06
1.42163e-05
-1.11608e-05
-2.08841e-06
-2.40944e-05
-1.81992e-05
-4.58674e-05
-1.78566e-05
-6.55469e-05
-3.02861e-05
-4.99064e-05
-3.38972e-05
0.000100852
-5.35289e-06
7.68404e-05
3.45211e-05
5.71214e-06
5.27885e-05
-2.9108e-05
5.68732e-05
-3.42584e-05
5.59496e-05
-3.54103e-05
5.74784e-05
-3.80328e-05
6.35576e-05
-4.31769e-05
7.22088e-05
-4.62974e-05
7.99426e-05
-4.26096e-05
8.38864e-05
-2.83017e-05
7.50279e-05
6.10504e-06
5.65363e-05
3.84624e-05
3.78655e-05
5.02062e-05
2.20599e-05
4.01736e-05
9.89148e-06
2.77102e-05
-1.20494e-06
1.86309e-05
-2.86013e-05
1.6687e-05
-8.05306e-05
1.63166e-05
-0.000131534
8.00193e-06
-0.000156394
-3.01755e-05
-6.44096e-05
-3.104e-05
8.10055e-05
4.21183e-06
5.46389e-05
4.51001e-05
4.37915e-06
5.27673e-05
-1.27761e-05
4.97191e-05
-1.6874e-05
4.85069e-05
-2.29661e-05
4.9151e-05
-3.93304e-05
4.60648e-05
-4.34875e-05
4.06617e-05
-4.09238e-05
4.22614e-05
-4.18225e-05
4.68922e-05
-2.74204e-05
4.37728e-05
7.07095e-06
3.1299e-05
4.4185e-05
1.44557e-05
5.39136e-05
-7.85225e-07
4.35308e-05
-1.94776e-05
4.17343e-05
-5.91831e-05
4.53443e-05
-0.000122875
5.39168e-05
-0.000181778
5.14363e-05
-0.000210082
1.35386e-05
-0.000215541
-3.96861e-05
-6.84932e-05
-1.09338e-05
3.38787e-05
1.02734e-05
1.80201e-05
3.47248e-05
-4.24105e-06
3.27761e-05
-1.40657e-05
2.75938e-05
-1.94302e-05
1.50586e-05
-1.83694e-05
-9.76557e-06
-1.6411e-05
-5.01587e-05
-2.02979e-05
-7.70401e-05
-3.48249e-05
-8.28507e-05
-4.29769e-05
-6.75994e-05
-2.50466e-05
-4.29964e-05
1.89285e-05
-3.54248e-05
4.89739e-05
-4.98513e-05
6.5884e-05
-8.95532e-05
7.39239e-05
-0.000148993
8.6037e-05
-0.000212173
9.94191e-05
-0.000244424
8.61021e-05
-0.00025386
5.95551e-05
-0.000260434
1.58304e-05
-0.000254131
-3.36826e-05
-6.97212e-05
1.07378e-05
-7.15378e-08
9.26069e-06
1.40931e-05
4.94603e-06
-8.14379e-07
2.81324e-06
-1.22214e-05
-1.10582e-05
-6.39557e-06
-5.21585e-05
3.02776e-06
-9.1842e-05
5.11733e-06
-0.000119925
4.94266e-07
-0.000144727
-1.86812e-05
-0.000172888
-2.50251e-05
-0.00018688
-8.00842e-06
-0.000172572
2.9679e-05
-0.000177088
6.79065e-05
-0.000197138
8.91394e-05
-0.000219557
0.000101392
-0.000244877
0.000111233
-0.000258004
0.000111744
-0.000267114
9.6557e-05
-0.000271213
4.95991e-05
-0.000287726
-2.34349e-05
-0.000286807
-6.99362e-05
-0.000100398
-8.87525e-07
-7.93581e-07
-6.0542e-07
1.35745e-05
-4.26391e-06
2.46008e-06
-2.26594e-05
6.95204e-06
-5.82035e-05
2.8253e-05
-9.73637e-05
3.23543e-05
-0.000111474
1.52924e-05
-0.000121934
7.96501e-06
-0.000159818
-1.28652e-06
-0.000227631
-1.99159e-09
-0.00023511
1.5894e-05
-0.000235182
3.25263e-05
-0.000238873
6.55374e-05
-0.000249014
9.56197e-05
-0.000251682
0.000104864
-0.000253282
0.000112132
-0.000252314
0.000112467
-0.00025735
7.41771e-05
-0.00027856
6.82728e-06
-0.000302554
-3.47686e-05
-0.000271216
-5.7927e-05
-4.85004e-05
-1.87034e-06
-8.11493e-07
-8.71892e-06
1.96836e-05
-3.45115e-05
2.67254e-05
-7.82311e-05
4.86025e-05
-0.000114153
5.46022e-05
-0.00011953
3.58923e-05
-0.000102116
-4.49761e-06
-0.000108825
-6.55976e-06
-0.000212917
-6.49623e-06
-0.000316636
2.17548e-05
-0.00027546
2.97538e-05
-0.000246787
3.30127e-05
-0.000239047
4.84843e-05
-0.000241277
7.52284e-05
-0.0002432
9.16234e-05
-0.00023705
9.58996e-05
-0.00023636
9.13635e-05
-0.000243689
4.73675e-05
-0.000266837
1.45301e-06
-0.000263815
-5.55755e-06
-0.000244136
-1.15362e-06
8.37896e-06
-5.85813e-07
-1.68707e-06
-2.49936e-05
4.3359e-05
-6.72316e-05
6.94941e-05
-0.000109908
8.29625e-05
-0.000127446
6.52169e-05
-0.000117094
1.27531e-06
-0.000139896
-3.37606e-05
-0.000132843
-2.3334e-05
-0.000221137
-1.21528e-06
-0.000355381
8.90863e-05
-0.000303244
5.46185e-05
-0.000274335
2.80743e-05
-0.00023736
4.02593e-05
-0.000222755
5.65052e-05
-0.000216698
6.98869e-05
-0.000210621
6.94485e-05
-0.000168146
6.38172e-05
-0.000197684
6.94577e-05
-0.000290257
0.000125844
-0.000276047
6.74273e-05
-0.000262996
1.64015e-05
-0.000240685
-2.71426e-05
-7.19704e-05
-2.23834e-05
2.40434e-05
-5.93391e-05
7.8374e-05
-9.68535e-05
0.000101766
-0.000115001
9.19265e-05
-0.000119625
3.45219e-05
-0.000103153
-1.50217e-05
-0.000155348
-2.60706e-05
-0.000180303
3.03915e-05
-0.000199689
8.05859e-05
-0.000179624
0.000175437
-0.000282499
0.000143054
-0.000228116
5.59295e-05
-0.000236279
3.57331e-05
-0.000222474
3.90102e-05
-0.000205035
4.94213e-05
-0.000155331
5.05298e-05
-0.00014079
7.26726e-05
-0.000217679
0.0001783
-0.000250091
0.000166717
-0.00027379
9.20156e-05
-0.000318561
6.14983e-05
-0.000350813
6.82052e-06
-8.50628e-05
-5.52275e-05
7.35616e-05
-8.88553e-05
0.000108226
-0.000107797
0.000104068
-0.000129716
6.02073e-05
-0.000102125
2.11057e-05
-0.000162844
2.78429e-05
-0.000185641
6.83155e-05
-0.000172563
7.92681e-05
-0.000155093
9.21084e-05
-0.000124577
0.000147374
-0.00013083
0.000148447
-0.000200394
9.38042e-05
-0.000220599
5.90529e-05
-0.000213235
4.87168e-05
-0.000203595
4.96762e-05
-0.000172759
7.01731e-05
-0.000207973
0.000160113
-0.00021041
0.000191534
-0.000215933
0.000172216
-0.000239779
0.00011592
-0.000251591
7.32349e-05
-0.000247344
2.46926e-06
-7.70291e-05
-7.05593e-05
0.000133246
-0.000103649
0.000115605
-0.000141667
7.4993e-05
-0.000113398
4.86991e-05
-0.000163193
7.37741e-05
-0.000188971
0.00010783
-0.000192766
7.38052e-05
-0.000175412
6.26098e-05
-0.000151461
6.7153e-05
-0.000122825
0.000113433
-0.00011634
0.000138813
-0.000142431
0.000119801
-0.000169338
8.76484e-05
-0.000184877
8.0628e-05
-0.000191512
8.99266e-05
-0.000192906
0.000119733
-0.000182889
0.000161672
-0.000164841
0.0001734
-0.000150558
0.000157863
-0.000152412
0.000117808
-0.000148792
6.96292e-05
-0.000144157
-2.05935e-06
-8.96959e-05
-7.06141e-05
0.000178088
-0.000131909
0.000106568
-0.000125845
7.23729e-05
-0.000147435
0.000113475
-0.000180109
0.000173673
-0.000169922
9.78268e-05
-0.000159507
6.33791e-05
-0.000144822
4.82974e-05
-0.000130571
5.35989e-05
-0.000108912
8.99981e-05
-0.000102488
0.000125494
-0.000122036
0.000136794
-0.000153404
0.000118208
-0.000170682
9.79075e-05
-0.000175859
9.51501e-05
-0.000165799
0.00010976
-0.000137223
0.000133064
-0.000105456
0.000141562
-7.73238e-05
0.000129613
-5.78093e-05
9.82043e-05
-4.2272e-05
5.40438e-05
-2.94418e-05
-1.47583e-05
-0.000103337
-9.41771e-05
0.000191092
-0.000117867
0.000109167
-0.000132034
0.000163117
-0.000143828
0.000192859
-0.000113219
0.000144149
-9.21877e-05
7.67929e-05
-8.93593e-05
6.05514e-05
-0.000100383
5.93609e-05
-0.000109217
6.33317e-05
-9.16497e-05
7.59004e-05
-6.51998e-05
9.92267e-05
-5.2493e-05
0.000121733
-7.26593e-05
0.000140835
-0.000107176
0.000132301
-0.00012677
0.000114704
-0.000123012
0.000105965
-9.63019e-05
0.000106408
-5.8045e-05
0.000103453
-1.69705e-05
8.87454e-05
1.92323e-05
6.23315e-05
5.66634e-05
1.69789e-05
7.9984e-05
-3.7809e-05
-0.000112703
-0.000179514
0.000249118
-0.000131901
0.000188189
-0.000129483
0.000197544
-8.88463e-05
0.000152969
-3.90001e-05
9.43011e-05
-2.13122e-05
5.91017e-05
-1.94145e-05
5.86495e-05
-2.7509e-05
6.74517e-05
-4.36702e-05
7.95305e-05
-5.10474e-05
8.40782e-05
-3.86651e-05
9.00303e-05
-1.01636e-05
0.000100221
1.49498e-05
0.000118884
2.07127e-05
0.000126916
1.25248e-05
0.000123079
5.9759e-06
0.000112587
1.24585e-05
9.99448e-05
3.60275e-05
7.98936e-05
6.89909e-05
5.57326e-05
9.92461e-05
3.20332e-05
0.000127325
-1.09682e-05
0.000145438
-5.5855e-05
-0.000110239
-0.000264435
0.00041339
-0.000123846
0.000269602
-8.41541e-05
0.000157764
-3.31098e-05
0.000101936
-6.70986e-06
6.78991e-05
5.23067e-06
4.71599e-05
1.02884e-05
5.35891e-05
1.34669e-05
6.42707e-05
1.21607e-05
8.08343e-05
5.73774e-06
9.05256e-05
2.15644e-06
9.50418e-05
1.22104e-05
9.34528e-05
3.51369e-05
9.62348e-05
6.18796e-05
9.99027e-05
8.12421e-05
0.0001034
9.71381e-05
9.67379e-05
0.000108945
8.84256e-05
0.000122151
6.68026e-05
0.000135782
4.17411e-05
0.00015296
1.46779e-05
0.000169196
-2.67095e-05
0.000174084
-6.03885e-05
-0.000101091
-0.000211964
0.000510151
-2.30142e-05
0.000246753
-2.21735e-05
0.000156885
5.81757e-06
7.39606e-05
1.48415e-05
5.88736e-05
1.7969e-05
4.40325e-05
2.39148e-05
4.7642e-05
3.20218e-05
5.61619e-05
4.07813e-05
7.2073e-05
4.36767e-05
8.76286e-05
4.31831e-05
9.55717e-05
4.45088e-05
9.23363e-05
5.32171e-05
8.75254e-05
7.08864e-05
8.21347e-05
9.27767e-05
8.14684e-05
0.000115917
7.35835e-05
0.000137021
0.000150864
0.000159571
0.000167193
0.000172448
0.000173964
-5.81528e-06
2.13272e-05
2.80914e-05
2.42384e-05
2.91602e-05
3.04226e-05
3.44019e-05
4.13215e-05
5.23111e-05
6.16488e-05
6.71692e-05
7.01122e-05
7.55959e-05
8.56438e-05
0.000100723
)
;

boundaryField
{
    leftWall
    {
        type            fixedValue;
        value           uniform 0;
    }
    rightWall
    {
        type            fixedValue;
        value           nonuniform 0();
    }
    lowerWall
    {
        type            fixedValue;
        value           uniform 0;
    }
    atmosphere
    {
        type            calculated;
        value           nonuniform 0();
    }
    defaultFaces
    {
        type            empty;
        value           nonuniform 0();
    }
    procBoundary0to1
    {
        type            processor;
        value           nonuniform List<scalar> 
26
(
-1.90131e-06
-7.75321e-08
1.94086e-07
-5.3601e-07
-6.22225e-07
-6.87462e-06
-2.19524e-05
-1.96564e-05
-4.05262e-05
-6.92941e-05
-0.000161878
-0.000214137
-0.000245024
-0.000273173
-0.00027478
-0.000178801
4.7901e-05
-0.000219408
-0.000336553
-0.000255355
-0.000131416
-1.57296e-05
8.9467e-05
0.000143003
0.000165009
0.00016671
)
;
    }
    procBoundary0to2
    {
        type            processor;
        value           nonuniform List<scalar> 
24
(
6.74754e-05
5.28443e-05
3.25342e-05
6.62557e-06
-3.18121e-05
-6.15148e-05
-9.36148e-05
0.000491922
0.000231073
0.000150084
7.78254e-05
5.39526e-05
4.27704e-05
4.36619e-05
4.92411e-05
6.10821e-05
7.82897e-05
9.00503e-05
8.93929e-05
8.20418e-05
7.20824e-05
6.64067e-05
0.000115999
5.83345e-05
)
;
    }
}


// ************************************************************************* //
