/*--------------------------------*- C++ -*----------------------------------*\
| =========                 |                                                 |
| \\      /  F ield         | OpenFOAM: The Open Source CFD Toolbox           |
|  \\    /   O peration     | Version:  2.4.0                                 |
|   \\  /    A nd           | Web:      www.OpenFOAM.org                      |
|    \\/     M anipulation  |                                                 |
\*---------------------------------------------------------------------------*/
FoamFile
{
    version     2.0;
    format      ascii;
    class       volVectorField;
    location    "1";
    object      U;
}
// * * * * * * * * * * * * * * * * * * * * * * * * * * * * * * * * * * * * * //

dimensions      [0 1 -1 0 0 0 0];

internalField   nonuniform List<vector> 
575
(
(-0.0267775 -0.0155344 0)
(-0.0761305 -0.0132966 0)
(-0.123408 -0.00181529 0)
(-0.149589 0.00775258 0)
(-0.165513 0.0133553 0)
(-0.17442 0.0125304 0)
(-0.175252 0.00708456 0)
(-0.172986 0.0059651 0)
(-0.175281 0.00454973 0)
(-0.179329 0.00236369 0)
(-0.179075 0.000127022 0)
(-0.168128 -0.000643327 0)
(-0.15237 0.00200307 0)
(-0.140871 0.00261994 0)
(-0.131591 0.00252168 0)
(-0.125015 0.000485603 0)
(-0.114522 -0.00318686 0)
(-0.0987874 -0.0052686 0)
(-0.0749401 -0.00561 0)
(-0.0458493 -0.00515761 0)
(-0.0305053 0.00110357 0)
(-0.026127 0.00384754 0)
(-0.0253174 0.0521904 0)
(-0.0771348 0.0525605 0)
(-0.119111 0.035092 0)
(-0.152542 0.0134939 0)
(-0.169947 -0.00340985 0)
(-0.180875 -0.00843323 0)
(-0.179828 -0.00810605 0)
(-0.174646 -0.00534133 0)
(-0.174778 9.31951e-05 0)
(-0.175678 0.00101753 0)
(-0.171398 -0.00627149 0)
(-0.162557 -0.0144354 0)
(-0.152529 -0.0176267 0)
(-0.142703 -0.0146317 0)
(-0.134497 -0.0116255 0)
(-0.125119 -0.0100643 0)
(-0.11086 -0.0103971 0)
(-0.0934345 -0.0141842 0)
(-0.0688699 -0.0187444 0)
(-0.0438061 -0.0163875 0)
(-0.023233 -0.00962337 0)
(-0.00279277 -0.0109711 0)
(-0.0292227 0.0501035 0)
(-0.0752777 0.0467925 0)
(-0.113061 0.0410897 0)
(-0.148812 0.0377762 0)
(-0.172866 0.0341867 0)
(-0.182926 0.0204246 0)
(-0.18041 0.00296664 0)
(-0.175248 0.0016787 0)
(-0.1751 0.00157947 0)
(-0.175865 -0.00154707 0)
(-0.173391 -0.00326655 0)
(-0.167158 -0.00367081 0)
(-0.159049 -0.000500819 0)
(-0.146223 0.00100194 0)
(-0.131532 5.65953e-05 0)
(-0.117877 -0.00590975 0)
(-0.0993165 -0.013432 0)
(-0.084341 -0.0224808 0)
(-0.0679617 -0.0289515 0)
(-0.0524242 -0.0267575 0)
(-0.0345291 -0.0166042 0)
(-0.00163446 -0.00654532 0)
(-0.0348926 0.0712378 0)
(-0.0880381 0.078246 0)
(-0.136589 0.0698611 0)
(-0.175103 0.0399783 0)
(-0.194288 0.00306561 0)
(-0.197609 -0.0141556 0)
(-0.201144 -0.0113359 0)
(-0.19599 -0.00323578 0)
(-0.183235 0.00659176 0)
(-0.174135 0.00557245 0)
(-0.170655 -0.0116371 0)
(-0.168341 -0.0304607 0)
(-0.164072 -0.039983 0)
(-0.153594 -0.0392846 0)
(-0.136281 -0.0349649 0)
(-0.117479 -0.0340689 0)
(-0.0984186 -0.0344931 0)
(-0.0839549 -0.0352579 0)
(-0.0692724 -0.0365685 0)
(-0.0568039 -0.0332509 0)
(-0.0393862 -0.032871 0)
(-0.0115113 -0.0298896 0)
(-0.0242978 0.113133 0)
(-0.124913 0.100927 0)
(-0.194285 0.0759155 0)
(-0.231967 0.0698579 0)
(-0.243982 0.0681054 0)
(-0.2264 0.0365984 0)
(-0.218792 0.0014205 0)
(-0.221065 -0.0136086 0)
(-0.217261 -0.0166 0)
(-0.211063 -0.0142316 0)
(-0.207257 -0.00896486 0)
(-0.198067 0.00328953 0)
(-0.182303 0.01066 0)
(-0.16218 0.00747426 0)
(-0.137189 -0.000288947 0)
(-0.115703 -0.0101653 0)
(-0.0955295 -0.0173843 0)
(-0.0777655 -0.0304356 0)
(-0.0618191 -0.0438282 0)
(-0.0496708 -0.0470101 0)
(-0.0439774 -0.0434148 0)
(-0.0182692 -0.0395947 0)
(-0.077089 0.158582 0)
(-0.210654 0.175794 0)
(-0.27402 0.136912 0)
(-0.263795 0.0734582 0)
(-0.257738 -0.0271046 0)
(-0.274453 -0.0619334 0)
(-0.272161 -0.0424036 0)
(-0.256767 -0.022466 0)
(-0.228022 -0.0127992 0)
(-0.183618 -0.0129451 0)
(-0.163909 -0.0426089 0)
(-0.160885 -0.082155 0)
(-0.176085 -0.105205 0)
(-0.189567 -0.107441 0)
(-0.192921 -0.102242 0)
(-0.174097 -0.093606 0)
(-0.142902 -0.0902676 0)
(-0.102081 -0.0863046 0)
(-0.0693309 -0.0780846 0)
(-0.048433 -0.0678634 0)
(-0.0666406 -0.0714396 0)
(-0.081443 -0.0518165 0)
(-0.165357 0.22371 0)
(-0.294376 0.198867 0)
(-0.311488 0.0700057 0)
(-0.297374 0.019972 0)
(-0.27899 0.116964 0)
(-0.27534 0.235167 0)
(-0.28754 0.222217 0)
(-0.236451 0.168808 0)
(-0.13663 0.128922 0)
(-0.0396872 0.125344 0)
(0.0183174 0.164556 0)
(0.0120689 0.215879 0)
(-0.0400954 0.222879 0)
(-0.103219 0.18706 0)
(-0.164796 0.129623 0)
(-0.18358 0.0958285 0)
(-0.189282 0.0757359 0)
(-0.185478 0.0632249 0)
(-0.190146 0.0616973 0)
(-0.194918 0.106303 0)
(-0.194137 0.208916 0)
(-0.166299 0.323749 0)
(-0.229664 0.334131 0)
(-0.284215 0.203196 0)
(-0.241443 0.163033 0)
(-0.35524 0.31676 0)
(-0.571352 0.0784659 0)
(-0.363242 -0.171003 0)
(-0.207663 -0.211915 0)
(-0.0616865 -0.212002 0)
(0.0218261 -0.199116 0)
(0.0638709 -0.1789 0)
(0.0930888 -0.176508 0)
(0.127453 -0.177148 0)
(0.140315 -0.167119 0)
(0.107848 -0.144219 0)
(0.0248798 -0.122753 0)
(-0.0785535 -0.12564 0)
(-0.139051 -0.119339 0)
(-0.191779 -0.117921 0)
(-0.260772 -0.118455 0)
(-0.328897 -0.147329 0)
(-0.308275 -0.239116 0)
(-0.17755 -0.31745 0)
(-0.22673 0.541371 0)
(-0.150976 0.384019 0)
(-0.347613 0.243166 0)
(-0.212151 -0.045392 0)
(-0.013163 -0.121038 0)
(0.0919314 -0.0541644 0)
(0.113902 -0.0014658 0)
(0.164082 -0.0029999 0)
(0.215904 -0.000410633 0)
(0.265496 0.0384798 0)
(0.290234 0.125831 0)
(0.26433 0.242133 0)
(0.201201 0.317798 0)
(0.0984244 0.322158 0)
(0.00967639 0.269901 0)
(-0.0587179 0.188872 0)
(-0.11958 0.100607 0)
(-0.147777 0.0792548 0)
(-0.125613 0.0877528 0)
(-0.0685868 0.146737 0)
(-0.118815 0.246636 0)
(-0.21604 0.284325 0)
(-0.189327 0.679147 0)
(0.0513369 0.41301 0)
(-0.00224604 0.0720717 0)
(0.199766 -0.0330818 0)
(0.212363 -0.0936964 0)
(0.230465 -0.15821 0)
(0.253543 -0.19714 0)
(0.288668 -0.21914 0)
(0.312899 -0.217799 0)
(0.333394 -0.197361 0)
(0.340578 -0.160909 0)
(0.343558 -0.120846 0)
(0.320612 -0.0474237 0)
(0.252725 0.0208353 0)
(0.187048 0.0169589 0)
(0.130632 -0.00846374 0)
(0.037324 -0.0311734 0)
(-0.0502752 -0.0849832 0)
(-0.0783473 -0.175597 0)
(-0.16185 -0.201021 0)
(-0.242835 -0.172033 0)
(-0.168361 -0.0940619 0)
(-0.0288444 0.681105 0)
(0.240489 0.205844 0)
(0.296801 -0.0184888 0)
(0.304105 -0.131173 0)
(0.305577 -0.172252 0)
(0.301871 -0.184607 0)
(0.315798 -0.194478 0)
(0.346023 -0.19778 0)
(0.383205 -0.175576 0)
(0.425228 -0.120587 0)
(0.446791 -0.00246959 0)
(0.446221 0.177037 0)
(0.354261 0.277387 0)
(0.253282 0.292039 0)
(0.153121 0.24371 0)
(0.0823739 0.216909 0)
(0.0271955 0.185557 0)
(-0.031543 0.111065 0)
(-0.224517 0.114982 0)
(-0.483892 0.250199 0)
(-0.601588 0.239748 0)
(-0.680778 -0.0108051 0)
(0.158521 0.325035 0)
(0.282055 0.112007 0)
(0.328704 -0.0312156 0)
(0.30485 -0.0935854 0)
(0.285202 -0.119508 0)
(0.272877 -0.146698 0)
(0.278867 -0.196807 0)
(0.277997 -0.242352 0)
(0.309375 -0.278929 0)
(0.292608 -0.247372 0)
(0.286848 -0.139553 0)
(0.268269 0.0736619 0)
(0.209888 0.30532 0)
(0.111892 0.374909 0)
(0.0232379 0.293938 0)
(-0.0528968 0.195444 0)
(-0.157516 0.1778 0)
(-0.379435 0.259315 0)
(-0.77405 0.39522 0)
(-0.956446 0.312671 0)
(-0.970322 0.0783581 0)
(-0.979793 -0.0112133 0)
(0.115053 0.145747 0)
(0.20134 0.0635162 0)
(0.205506 -0.0286866 0)
(0.180185 -0.080776 0)
(0.171432 -0.127317 0)
(0.140962 -0.179077 0)
(0.0868579 -0.238354 0)
(-0.0547249 -0.221652 0)
(-0.244123 -0.133242 0)
(-0.32271 -0.113106 0)
(-0.318624 -0.0155548 0)
(-0.245748 0.193776 0)
(-0.18418 0.297601 0)
(-0.221267 0.33878 0)
(-0.336866 0.358102 0)
(-0.593596 0.428385 0)
(-0.9622 0.567543 0)
(-1.21955 0.646606 0)
(-1.31964 0.611363 0)
(-1.29697 0.432142 0)
(-1.31738 0.199986 0)
(-1.31846 -0.0130633 0)
(0.0423845 0.0252913 0)
(0.0820418 0.0829273 0)
(0.0286875 -0.024436 0)
(0.0223745 -0.0770126 0)
(0.00440117 -0.084459 0)
(-0.0655493 -0.0833463 0)
(-0.365787 0.0586125 0)
(-0.497496 0.101733 0)
(-0.606845 -0.0929094 0)
(-0.721046 -0.188788 0)
(-0.928816 -0.11365 0)
(-0.959457 0.138051 0)
(-0.89504 0.412564 0)
(-0.984282 0.547754 0)
(-1.1516 0.647709 0)
(-1.27192 0.730497 0)
(-1.36917 0.759307 0)
(-1.42273 0.699348 0)
(-1.39831 0.527127 0)
(-1.4859 0.20042 0)
(-1.64366 -0.0261018 0)
(-1.61966 -0.168848 0)
(-0.013213 -0.0047572 0)
(0.00703995 0.0944455 0)
(-0.00546098 0.0137105 0)
(-0.0366857 -0.0613577 0)
(-0.181275 -0.0138129 0)
(-0.424325 0.173419 0)
(-0.537368 0.162133 0)
(-0.573034 0.117438 0)
(-0.605483 0.101332 0)
(-0.945761 0.11487 0)
(-1.21792 0.124161 0)
(-1.28621 0.176705 0)
(-1.24824 0.447776 0)
(-1.33968 0.58636 0)
(-1.3874 0.662971 0)
(-1.36724 0.734472 0)
(-1.3632 0.747239 0)
(-1.3722 0.623561 0)
(-1.39345 0.40936 0)
(-1.50307 0.344942 0)
(-1.47696 0.206099 0)
(-1.51929 -0.159144 0)
(-0.0150266 0.0259085 0)
(-0.00260955 0.0938416 0)
(-0.0660301 0.0365989 0)
(-0.268905 0.102431 0)
(-0.545487 0.311164 0)
(-0.608893 0.330083 0)
(-0.557068 0.210051 0)
(-0.499991 0.160952 0)
(-0.626618 0.127608 0)
(-1.15645 0.354584 0)
(-1.50986 0.239861 0)
(-1.45501 0.191178 0)
(-1.32867 0.344882 0)
(-1.3476 0.56347 0)
(-1.34279 0.64327 0)
(-1.30561 0.682801 0)
(-1.28098 0.660777 0)
(-1.24436 0.643574 0)
(-1.20753 0.893788 0)
(-1.1537 1.53211 0)
(-1.32271 1.09078 0)
(-1.19693 0.798545 0)
(0.00971643 0.000656505 0)
(-0.00248068 0.131563 0)
(-0.189512 0.226964 0)
(-0.492121 0.429717 0)
(-0.625694 0.412048 0)
(-0.644175 0.162641 0)
(-0.735471 -0.122141 0)
(-0.686636 0.156076 0)
(-0.645042 0.784829 0)
(-0.925693 1.42867 0)
(-1.34489 0.345432 0)
(-1.72286 -0.059734 0)
(-1.52066 0.367192 0)
(-1.31138 0.455807 0)
(-1.24455 0.529519 0)
(-1.17923 0.562172 0)
(-1.08748 0.700823 0)
(-0.979463 1.18857 0)
(-1.39853 0.735316 0)
(-1.55136 -0.112329 0)
(-1.45556 -0.51935 0)
(-1.37414 -0.642152 0)
(-1.26159 -0.633272 0)
(-0.0703061 0.00296784 0)
(-0.161961 0.338059 0)
(-0.412463 0.545944 0)
(-0.579309 0.533809 0)
(-0.623229 0.359071 0)
(-0.594422 0.200678 0)
(-0.40475 0.747149 0)
(-1.03368 0.951839 0)
(-1.07386 0.995721 0)
(-0.876941 1.26571 0)
(-0.885112 0.904556 0)
(-1.11744 0.0889014 0)
(-1.3602 -0.0359619 0)
(-1.35921 0.43936 0)
(-1.24963 0.629425 0)
(-1.13989 0.650961 0)
(-1.10198 1.1091 0)
(-1.14037 1.19635 0)
(-1.31798 0.878783 0)
(-1.40267 0.590235 0)
(-1.60994 0.554406 0)
(-1.92786 0.178221 0)
(-1.87685 -0.414186 0)
(-0.274194 0.266272 0)
(-0.365706 0.567463 0)
(-0.539837 0.605976 0)
(-0.590658 0.520298 0)
(-0.524239 0.445128 0)
(-0.500854 0.947003 0)
(-1.06357 0.23802 0)
(-0.965963 0.307773 0)
(-0.916048 0.427053 0)
(-0.698933 0.812289 0)
(-0.666961 0.823259 0)
(-0.744673 0.482319 0)
(-0.971896 0.300881 0)
(-1.02308 0.304482 0)
(-1.03254 0.46862 0)
(-1.09566 0.712786 0)
(-1.136 0.973251 0)
(-1.12805 1.05944 0)
(-1.16778 0.910168 0)
(-1.21037 0.535749 0)
(-1.3796 0.282657 0)
(-1.42233 -0.0347802 0)
(-1.33273 -0.370961 0)
(-0.35322 0.556417 0)
(-0.432327 0.632712 0)
(-0.566486 0.57829 0)
(-0.465196 0.650243 0)
(-0.674735 1.10595 0)
(-1.07598 0.581268 0)
(-1.07743 0.468026 0)
(-0.983699 0.44377 0)
(-0.906933 0.497589 0)
(-0.681923 0.732636 0)
(-0.621708 0.758339 0)
(-0.670549 0.566055 0)
(-0.875001 0.400839 0)
(-0.966441 0.401572 0)
(-1.0171 0.47069 0)
(-1.01883 0.65706 0)
(-0.997624 0.912705 0)
(-0.945281 0.979618 0)
(-0.84202 0.902225 0)
(-0.807274 0.666239 0)
(-0.871718 0.394379 0)
(-0.864915 0.0235061 0)
(-0.720978 -0.518814 0)
(-0.350046 0.870598 0)
(-0.321376 0.700427 0)
(-0.35387 0.849996 0)
(-0.6082 1.19604 0)
(-0.951256 0.902933 0)
(-1.00515 0.467664 0)
(-0.863349 0.264782 0)
(-0.810546 0.195863 0)
(-0.73825 0.243791 0)
(-0.6235 0.593007 0)
(-0.531737 0.786457 0)
(-0.556269 0.731892 0)
(-0.781048 0.515368 0)
(-0.888552 0.439085 0)
(-0.940681 0.474226 0)
(-0.92182 0.604581 0)
(-0.798969 0.807152 0)
(-0.644967 0.905028 0)
(-0.498668 0.844712 0)
(-0.359246 0.647877 0)
(-0.29825 0.380468 0)
(-0.225222 -0.0367048 0)
(-0.10613 -0.483178 0)
(-0.59569 1.04565 0)
(0.06527 0.954566 0)
(-0.509876 1.32003 0)
(-0.796192 1.06001 0)
(-0.769649 0.904185 0)
(-0.51094 0.523611 0)
(-0.428723 0.390417 0)
(-0.490821 0.330769 0)
(-0.599755 0.335807 0)
(-0.552284 0.442556 0)
(-0.40404 0.674658 0)
(-0.251409 0.795001 0)
(-0.294164 0.798022 0)
(-0.496873 0.638388 0)
(-0.666237 0.525368 0)
(-0.686633 0.518762 0)
(-0.590982 0.572768 0)
(-0.413989 0.59451 0)
(-0.210007 0.550855 0)
(0.00815473 0.415735 0)
(0.181234 0.214775 0)
(0.368431 -0.10439 0)
(0.453835 -0.552172 0)
(-1.09428 1.40999 0)
(-0.0510877 1.66129 0)
(-1.06728 1.16262 0)
(-0.553684 0.936263 0)
(-0.35447 0.616823 0)
(-0.0986825 0.364026 0)
(-0.105054 0.314084 0)
(-0.102809 0.342493 0)
(-0.188035 0.381051 0)
(-0.282193 0.405603 0)
(-0.263824 0.474582 0)
(-0.115513 0.606077 0)
(0.0234374 0.733728 0)
(0.12117 0.79794 0)
(0.0877374 0.744253 0)
(0.0488289 0.657759 0)
(0.0222766 0.575215 0)
(0.125013 0.479469 0)
(0.278786 0.35669 0)
(0.43706 0.252137 0)
(0.589552 -0.0041122 0)
(0.71178 -0.268842 0)
(0.799047 -0.595169 0)
(-1.56827 2.17174 0)
(-0.0122951 1.50288 0)
(-0.94881 0.958295 0)
(-0.150985 0.674611 0)
(-0.133226 0.421977 0)
(0.0407738 0.275681 0)
(0.0357714 0.298637 0)
(0.0747674 0.360142 0)
(0.0802451 0.441629 0)
(0.0564979 0.474182 0)
(0.00195787 0.490621 0)
(0.0217353 0.488117 0)
(0.113575 0.53646 0)
(0.260096 0.594501 0)
(0.38686 0.626104 0)
(0.480487 0.603629 0)
(0.542052 0.550481 0)
(0.623093 0.428114 0)
(0.676183 0.27634 0)
(0.77925 0.121455 0)
(0.849743 -0.106925 0)
(0.918171 -0.305243 0)
(0.91291 -0.548505 0)
(-1.11119 2.67333 0)
(0.370416 1.37027 0)
(-0.464519 0.828528 0)
(0.109845 0.453632 0)
(0.00624826 0.332596 0)
(0.100813 0.240491 0)
(0.109783 0.270596 0)
(0.151334 0.324543 0)
(0.200017 0.420561 0)
(0.246728 0.495645 0)
(0.221512 0.527081 0)
(0.229762 0.504247 0)
(0.255932 0.477822 0)
(0.324285 0.45664 0)
(0.427177 0.469054 0)
(0.561822 0.433806 0)
(0.662788 0.431587 0)
(0.786216 0.33508 0)
(0.833268 0.211904 0)
(0.891267 0.0575331 0)
(0.895117 -0.175385 0)
(0.927489 -0.338874 0)
(0.911791 -0.526254 0)
(-0.528133 2.91381 0)
(0.465847 1.32565 0)
(-0.0612747 0.833722 0)
(0.20571 0.40026 0)
(0.134269 0.300942 0)
(0.159422 0.233287 0)
(0.173423 0.245312 0)
(0.198962 0.282499 0)
(0.250338 0.360544 0)
(0.317157 0.453533 0)
(0.345346 0.511334 0)
(0.368844 0.502921 0)
(0.386346 0.465871 0)
(0.43042 0.413275 0)
(0.483827 0.39203 0)
(0.586686 0.342623 0)
)
;

boundaryField
{
    leftWall
    {
        type            calculated;
        value           uniform (0 0 0);
    }
    rightWall
    {
        type            calculated;
        value           nonuniform 0();
    }
    lowerWall
    {
        type            calculated;
        value           uniform (0 0 0);
    }
    atmosphere
    {
        type            calculated;
        value           nonuniform 0();
    }
    defaultFaces
    {
        type            empty;
    }
    procBoundary0to1
    {
        type            processor;
        value           nonuniform List<vector> 
26
(
(-0.018325 -0.00547223 0)
(0.00055382 -0.0155501 0)
(0.00500244 -0.0097061 0)
(-0.000214734 -0.00283076 0)
(0.00235383 -0.0316996 0)
(-0.0882957 0.0175187 0)
(-0.228787 0.189518 0)
(-0.261653 -0.347375 0)
(-0.372676 -0.21819 0)
(-0.163217 -0.0943456 0)
(-0.640712 -0.157614 0)
(-1.00501 -0.0525301 0)
(-1.24483 -0.114537 0)
(-1.48348 -0.224774 0)
(-1.51355 -0.360528 0)
(-1.4473 0.415751 0)
(-1.4473 0.415751 0)
(-1.13071 -0.523941 0)
(-1.77748 -0.682577 0)
(-1.38523 -0.473185 0)
(-0.668292 -0.783963 0)
(-0.0578164 -0.763864 0)
(0.50787 -0.761458 0)
(0.772118 -0.75522 0)
(0.871911 -0.69302 0)
(0.866988 -0.621065 0)
)
;
    }
    procBoundary0to2
    {
        type            processor;
        value           nonuniform List<vector> 
24
(
(0.653762 0.300083 0)
(0.757282 0.249422 0)
(0.830177 0.153449 0)
(0.870344 0.0198371 0)
(0.834526 -0.170762 0)
(0.854662 -0.341471 0)
(0.787444 -0.487767 0)
(-0.00984921 2.54938 0)
(0.520812 1.30194 0)
(0.223779 0.805256 0)
(0.275689 0.448268 0)
(0.231965 0.295631 0)
(0.228079 0.231111 0)
(0.231917 0.22905 0)
(0.244988 0.253635 0)
(0.270309 0.303596 0)
(0.330231 0.398314 0)
(0.384393 0.467509 0)
(0.430179 0.471215 0)
(0.453721 0.433068 0)
(0.498842 0.375326 0)
(0.526631 0.330329 0)
(0.653762 0.300083 0)
(0.598737 0.289084 0)
)
;
    }
}


// ************************************************************************* //
