/*--------------------------------*- C++ -*----------------------------------*\
| =========                 |                                                 |
| \\      /  F ield         | OpenFOAM: The Open Source CFD Toolbox           |
|  \\    /   O peration     | Version:  2.4.0                                 |
|   \\  /    A nd           | Web:      www.OpenFOAM.org                      |
|    \\/     M anipulation  |                                                 |
\*---------------------------------------------------------------------------*/
FoamFile
{
    version     2.0;
    format      ascii;
    class       volVectorField;
    location    "1";
    object      U.air;
}
// * * * * * * * * * * * * * * * * * * * * * * * * * * * * * * * * * * * * * //

dimensions      [0 1 -1 0 0 0 0];

internalField   nonuniform List<vector> 
575
(
(-0.0267778 -0.015535 0)
(-0.0761312 -0.0132972 0)
(-0.123409 -0.00181602 0)
(-0.149591 0.00775187 0)
(-0.165516 0.0133546 0)
(-0.174423 0.0125298 0)
(-0.175254 0.007084 0)
(-0.172988 0.00596459 0)
(-0.175283 0.00454926 0)
(-0.179331 0.00236323 0)
(-0.179076 0.000126579 0)
(-0.168128 -0.000643748 0)
(-0.152371 0.00200266 0)
(-0.140871 0.00261952 0)
(-0.131591 0.00252125 0)
(-0.125015 0.000485143 0)
(-0.114522 -0.00318735 0)
(-0.0987874 -0.00526915 0)
(-0.0749401 -0.00561063 0)
(-0.0458492 -0.00515832 0)
(-0.030505 0.00110277 0)
(-0.0261269 0.00384657 0)
(-0.0253176 0.0521882 0)
(-0.0771355 0.0525583 0)
(-0.119112 0.0350895 0)
(-0.152544 0.0134913 0)
(-0.169949 -0.00341228 0)
(-0.180878 -0.00843551 0)
(-0.179831 -0.00810808 0)
(-0.174648 -0.00534312 0)
(-0.17478 9.15167e-05 0)
(-0.175679 0.00101592 0)
(-0.171399 -0.0062731 0)
(-0.162557 -0.0144371 0)
(-0.15253 -0.0176283 0)
(-0.142703 -0.0146333 0)
(-0.134497 -0.0116273 0)
(-0.12512 -0.010066 0)
(-0.11086 -0.0103989 0)
(-0.0934346 -0.0141862 0)
(-0.06887 -0.0187466 0)
(-0.0438061 -0.0163898 0)
(-0.0232328 -0.00962559 0)
(-0.00279258 -0.010974 0)
(-0.0292229 0.0500999 0)
(-0.0752782 0.0467889 0)
(-0.113062 0.0410856 0)
(-0.148814 0.0377719 0)
(-0.172868 0.0341825 0)
(-0.182929 0.0204208 0)
(-0.180413 0.00296333 0)
(-0.17525 0.0016758 0)
(-0.175101 0.00157677 0)
(-0.175866 -0.00154964 0)
(-0.173392 -0.00326913 0)
(-0.167159 -0.00367343 0)
(-0.15905 -0.000503552 0)
(-0.146223 0.00099933 0)
(-0.131532 5.54717e-05 0)
(-0.117878 -0.00590841 0)
(-0.0993168 -0.0134312 0)
(-0.0843413 -0.0224841 0)
(-0.0679619 -0.0289406 0)
(-0.0524243 -0.0265869 0)
(-0.0345291 -0.0162826 0)
(-0.00163443 -0.0063831 0)
(-0.0348918 0.0712424 0)
(-0.0880384 0.0782427 0)
(-0.13659 0.0698557 0)
(-0.175104 0.0399724 0)
(-0.194291 0.00305975 0)
(-0.197612 -0.0141609 0)
(-0.201146 -0.0113398 0)
(-0.195992 -0.00323815 0)
(-0.183237 0.00659149 0)
(-0.174136 0.00557646 0)
(-0.170656 -0.0116301 0)
(-0.168342 -0.0304561 0)
(-0.164072 -0.0399864 0)
(-0.153595 -0.0392668 0)
(-0.136281 -0.0348163 0)
(-0.11748 -0.0337386 0)
(-0.0984188 -0.0341763 0)
(-0.083955 -0.0352456 0)
(-0.0692711 -0.0361987 0)
(-0.0568003 -0.0294011 0)
(-0.0393862 -0.0249651 0)
(-0.0115176 -0.0241152 0)
(-0.024208 0.113514 0)
(-0.124874 0.101023 0)
(-0.194284 0.0759134 0)
(-0.231968 0.0698523 0)
(-0.243983 0.0681036 0)
(-0.226349 0.0369508 0)
(-0.218625 0.00267216 0)
(-0.220947 -0.0120611 0)
(-0.217219 -0.015043 0)
(-0.211092 -0.0128417 0)
(-0.207323 -0.00765089 0)
(-0.198123 0.00448357 0)
(-0.182336 0.0116682 0)
(-0.162189 0.00853477 0)
(-0.137177 0.00139052 0)
(-0.115672 -0.00799502 0)
(-0.0954897 -0.0152097 0)
(-0.0777027 -0.028812 0)
(-0.0617031 -0.0414469 0)
(-0.0495417 -0.0359418 0)
(-0.0436511 0.0177055 0)
(-0.0178741 0.0910678 0)
(-0.0767984 0.159426 0)
(-0.210374 0.17637 0)
(-0.273984 0.13701 0)
(-0.263661 0.0739895 0)
(-0.257433 -0.025444 0)
(-0.275715 -0.0733709 0)
(-0.274745 -0.0836315 0)
(-0.259811 -0.0839076 0)
(-0.230643 -0.0791271 0)
(-0.185049 -0.0755442 0)
(-0.164655 -0.0893661 0)
(-0.161417 -0.113522 0)
(-0.176359 -0.128053 0)
(-0.189524 -0.128613 0)
(-0.192595 -0.125888 0)
(-0.173662 -0.12174 0)
(-0.142602 -0.121875 0)
(-0.102008 -0.127798 0)
(-0.0694688 -0.133409 0)
(-0.047567 -0.125054 0)
(-0.0720518 -0.0679583 0)
(-0.0847696 0.152446 0)
(-0.164951 0.224885 0)
(-0.293824 0.199974 0)
(-0.31106 0.0710165 0)
(-0.308448 -0.0176133 0)
(-0.299023 -0.0367196 0)
(-0.302526 0.0217339 0)
(-0.300855 0.130683 0)
(-0.237852 0.126081 0)
(-0.135247 0.095408 0)
(-0.0376728 0.0953043 0)
(0.0176944 0.138166 0)
(0.0114357 0.169927 0)
(-0.0371345 0.129829 0)
(-0.0979919 0.0624476 0)
(-0.16286 0.0107675 0)
(-0.181926 -0.0153363 0)
(-0.185985 -0.0258554 0)
(-0.177418 -0.0226338 0)
(-0.182611 -0.00422244 0)
(-0.189179 0.0515383 0)
(-0.177549 0.167946 0)
(-0.116831 0.204087 0)
(-0.229214 0.335523 0)
(-0.285793 0.200221 0)
(-0.275112 0.0736899 0)
(-0.323063 0.0934654 0)
(-0.52428 0.00360136 0)
(-0.347889 -0.191852 0)
(-0.197544 -0.228244 0)
(-0.055109 -0.227768 0)
(0.025677 -0.216098 0)
(0.0686069 -0.191943 0)
(0.0954731 -0.18519 0)
(0.127559 -0.180019 0)
(0.140292 -0.16699 0)
(0.107768 -0.143491 0)
(0.0248415 -0.121378 0)
(-0.0786302 -0.123963 0)
(-0.139127 -0.115455 0)
(-0.19166 -0.112224 0)
(-0.260181 -0.11464 0)
(-0.328678 -0.102937 0)
(-0.333064 0.117665 0)
(0.0444992 0.167294 0)
(-0.229795 0.533948 0)
(-0.197866 0.271375 0)
(-0.319297 0.0720024 0)
(-0.185155 -0.0942907 0)
(-0.00548921 -0.139679 0)
(0.0954742 -0.0743757 0)
(0.116147 -0.0223766 0)
(0.165354 -0.0226158 0)
(0.216137 -0.0166388 0)
(0.265082 0.0317331 0)
(0.290083 0.124286 0)
(0.264318 0.241869 0)
(0.201171 0.318163 0)
(0.0982929 0.323042 0)
(0.00939325 0.270884 0)
(-0.0592368 0.189882 0)
(-0.120398 0.10308 0)
(-0.148764 0.08297 0)
(-0.127494 0.091347 0)
(-0.00877234 0.17044 0)
(-0.0115769 0.347647 0)
(-0.172403 0.705874 0)
(-0.207338 0.631206 0)
(-0.0122525 0.296804 0)
(0.00196746 0.0549701 0)
(0.199443 -0.0443179 0)
(0.212263 -0.103166 0)
(0.23005 -0.166311 0)
(0.253088 -0.204781 0)
(0.288398 -0.222707 0)
(0.312851 -0.218278 0)
(0.333453 -0.193686 0)
(0.340681 -0.156723 0)
(0.343569 -0.114818 0)
(0.320541 -0.0427627 0)
(0.252607 0.0254314 0)
(0.186779 0.0182603 0)
(0.130055 -0.00761828 0)
(0.0365678 -0.0296454 0)
(-0.0502731 -0.078655 0)
(-0.0756773 -0.0538161 0)
(-0.160306 0.0380068 0)
(-0.298195 -0.0599666 0)
(0.0912862 -0.0113206 0)
(-0.114743 0.636639 0)
(0.157741 0.252176 0)
(0.291441 -0.0178076 0)
(0.30375 -0.132265 0)
(0.305617 -0.172533 0)
(0.301912 -0.184664 0)
(0.315814 -0.194533 0)
(0.346101 -0.197332 0)
(0.38404 -0.171104 0)
(0.426174 -0.0941762 0)
(0.445595 0.0971423 0)
(0.445748 0.214536 0)
(0.352996 0.293958 0)
(0.251229 0.309821 0)
(0.151439 0.252063 0)
(0.081504 0.223777 0)
(0.0269787 0.194108 0)
(-0.0501648 0.12224 0)
(-0.28773 0.250414 0)
(-0.53038 0.597596 0)
(-0.560237 0.720146 0)
(-0.636543 0.487622 0)
(0.0724428 0.376329 0)
(0.241201 0.14295 0)
(0.328439 -0.0303409 0)
(0.304973 -0.0927042 0)
(0.285416 -0.118721 0)
(0.27311 -0.146069 0)
(0.278906 -0.195743 0)
(0.279375 -0.239896 0)
(0.323053 -0.274794 0)
(0.343475 -0.139767 0)
(0.327582 0.216221 0)
(0.252067 0.479374 0)
(0.185125 0.353843 0)
(0.0891007 0.395589 0)
(0.0108113 0.30463 0)
(-0.059016 0.203081 0)
(-0.172904 0.185925 0)
(-0.415053 0.306397 0)
(-0.823363 0.566118 0)
(-0.948074 0.558689 0)
(-0.919219 0.180532 0)
(-0.96391 0.00815708 0)
(0.107721 0.149924 0)
(0.200718 0.0634098 0)
(0.205829 -0.0277722 0)
(0.180857 -0.079201 0)
(0.172007 -0.126082 0)
(0.141166 -0.177344 0)
(0.0872289 -0.239457 0)
(-0.0585399 -0.213385 0)
(-0.12147 0.0118458 0)
(0.0831364 0.0991634 0)
(0.0621433 0.263581 0)
(-0.244554 0.639833 0)
(-0.369111 0.403467 0)
(-0.281045 0.354953 0)
(-0.350992 0.363754 0)
(-0.590804 0.428282 0)
(-0.937636 0.562722 0)
(-1.22112 0.715251 0)
(-1.35067 0.841177 0)
(-1.31206 0.692184 0)
(-1.3234 0.468626 0)
(-1.32038 0.27699 0)
(0.0406063 0.00839872 0)
(0.0800007 0.0729822 0)
(0.0284364 -0.0247428 0)
(0.0228891 -0.075187 0)
(0.0049014 -0.0830439 0)
(-0.0671768 -0.0906105 0)
(-0.368905 0.0475368 0)
(-0.422595 0.218534 0)
(-0.38362 0.172325 0)
(-0.389483 0.0441868 0)
(-0.557471 -0.00660168 0)
(-0.827629 0.0877926 0)
(-1.0063 0.4125 0)
(-1.01143 0.530616 0)
(-1.12794 0.634343 0)
(-1.23536 0.736036 0)
(-1.36623 0.913269 0)
(-1.44233 0.955267 0)
(-1.36609 0.973524 0)
(-1.36464 0.992907 0)
(-1.53764 0.898535 0)
(-1.64018 0.618017 0)
(-0.0154177 0.0845491 0)
(-0.00102331 0.125381 0)
(-0.00745225 0.0123157 0)
(-0.0382501 -0.0634194 0)
(-0.184861 -0.0191205 0)
(-0.430153 0.277828 0)
(-0.486781 0.29643 0)
(-0.43223 0.417322 0)
(-0.355999 0.408177 0)
(-0.679179 0.445512 0)
(-1.04079 0.261477 0)
(-1.33908 0.0484504 0)
(-1.38389 0.446713 0)
(-1.3422 0.553844 0)
(-1.39355 0.64874 0)
(-1.40966 0.85983 0)
(-1.33126 1.11181 0)
(-1.23447 1.16875 0)
(-1.26062 0.960157 0)
(-1.43325 0.760794 0)
(-1.45041 0.495426 0)
(-1.52736 0.105705 0)
(0.0241919 0.284326 0)
(0.0430997 0.261817 0)
(-0.0586266 0.0356028 0)
(-0.26156 0.100612 0)
(-0.485901 0.406108 0)
(-0.464871 0.604539 0)
(-0.369779 0.596402 0)
(-0.361638 0.659405 0)
(-0.468015 0.51038 0)
(-1.05371 0.492029 0)
(-1.43177 0.271486 0)
(-1.44994 0.0931901 0)
(-1.56118 0.48295 0)
(-1.55246 0.765899 0)
(-1.35648 0.831243 0)
(-1.21845 0.987608 0)
(-1.12813 1.03773 0)
(-1.11247 0.906149 0)
(-1.16252 0.985899 0)
(-1.14671 1.5609 0)
(-1.32206 1.09746 0)
(-1.19687 0.798841 0)
(0.0661801 0.260014 0)
(0.0852128 0.347214 0)
(-0.153233 0.24852 0)
(-0.389117 0.572357 0)
(-0.415235 0.705991 0)
(-0.426353 0.627194 0)
(-0.578576 0.199135 0)
(-0.651437 0.32604 0)
(-0.632546 0.882842 0)
(-0.911683 1.44803 0)
(-1.33057 0.346377 0)
(-1.6838 -0.0982942 0)
(-1.53438 0.409922 0)
(-1.36392 0.668847 0)
(-1.27322 0.837052 0)
(-1.1291 0.826099 0)
(-1.03573 0.854766 0)
(-0.962602 1.23357 0)
(-1.39822 0.735933 0)
(-1.55135 -0.112319 0)
(-1.45556 -0.519349 0)
(-1.37413 -0.642151 0)
(-1.26159 -0.633272 0)
(0.0628049 0.0470449 0)
(-0.0264247 0.479952 0)
(-0.30214 0.669657 0)
(-0.33882 0.849823 0)
(-0.350312 0.744085 0)
(-0.486197 0.397701 0)
(-0.387733 0.790064 0)
(-1.03563 0.961749 0)
(-1.07411 0.997349 0)
(-0.876811 1.26584 0)
(-0.884824 0.904584 0)
(-1.11056 0.0873453 0)
(-1.3373 -0.0530279 0)
(-1.34563 0.454594 0)
(-1.24571 0.710568 0)
(-1.13731 0.717921 0)
(-1.10248 1.13438 0)
(-1.14035 1.19711 0)
(-1.31798 0.878782 0)
(-1.40267 0.590234 0)
(-1.60994 0.554406 0)
(-1.92786 0.178221 0)
(-1.87685 -0.414185 0)
(-0.0297323 0.209796 0)
(-0.0436162 0.668067 0)
(-0.27623 0.907922 0)
(-0.298987 0.850005 0)
(-0.436849 0.57051 0)
(-0.496333 0.960576 0)
(-1.06359 0.238097 0)
(-0.965962 0.307784 0)
(-0.916046 0.42707 0)
(-0.698931 0.812288 0)
(-0.666958 0.823258 0)
(-0.744558 0.482311 0)
(-0.970635 0.300708 0)
(-1.02027 0.304124 0)
(-1.03002 0.469419 0)
(-1.09507 0.715109 0)
(-1.13604 0.973579 0)
(-1.12805 1.05944 0)
(-1.16777 0.910167 0)
(-1.21037 0.535749 0)
(-1.37959 0.282657 0)
(-1.42233 -0.0347801 0)
(-1.33273 -0.370961 0)
(-0.132459 0.708265 0)
(-0.0141746 0.877021 0)
(-0.265324 0.875487 0)
(-0.394537 0.749344 0)
(-0.672289 1.11623 0)
(-1.07599 0.581293 0)
(-1.07743 0.468025 0)
(-0.983698 0.443773 0)
(-0.906931 0.497626 0)
(-0.6819 0.732696 0)
(-0.621707 0.758338 0)
(-0.670547 0.566054 0)
(-0.874999 0.400838 0)
(-0.966436 0.401571 0)
(-1.01709 0.47069 0)
(-1.01883 0.657064 0)
(-0.997623 0.912704 0)
(-0.94528 0.979617 0)
(-0.842019 0.902224 0)
(-0.807273 0.666238 0)
(-0.871717 0.394379 0)
(-0.864914 0.0235061 0)
(-0.720977 -0.518814 0)
(-0.0616097 1.1988 0)
(0.0496865 0.984033 0)
(-0.279706 0.926285 0)
(-0.607027 1.20248 0)
(-0.951254 0.902966 0)
(-1.00515 0.467664 0)
(-0.863348 0.264782 0)
(-0.810546 0.195864 0)
(-0.738247 0.24382 0)
(-0.623471 0.593158 0)
(-0.531682 0.786597 0)
(-0.556258 0.731902 0)
(-0.781047 0.515367 0)
(-0.888551 0.439084 0)
(-0.94068 0.474225 0)
(-0.921819 0.60458 0)
(-0.798968 0.807151 0)
(-0.644966 0.905027 0)
(-0.498667 0.844711 0)
(-0.359246 0.647876 0)
(-0.298249 0.380468 0)
(-0.225222 -0.0367048 0)
(-0.10613 -0.483178 0)
(-0.269633 1.41051 0)
(0.18505 1.03683 0)
(-0.50863 1.32318 0)
(-0.796191 1.06003 0)
(-0.769649 0.904185 0)
(-0.51094 0.523611 0)
(-0.428723 0.390416 0)
(-0.490821 0.330769 0)
(-0.599755 0.335809 0)
(-0.552269 0.442609 0)
(-0.403979 0.674825 0)
(-0.251316 0.795171 0)
(-0.294153 0.79806 0)
(-0.496872 0.638387 0)
(-0.666236 0.525367 0)
(-0.686633 0.518762 0)
(-0.590982 0.572767 0)
(-0.413989 0.59451 0)
(-0.210006 0.550855 0)
(0.00815474 0.415735 0)
(0.181234 0.214775 0)
(0.368431 -0.10439 0)
(0.453834 -0.552172 0)
(-1.01952 1.55937 0)
(-0.0475781 1.66789 0)
(-1.06728 1.16262 0)
(-0.553684 0.936263 0)
(-0.35447 0.616823 0)
(-0.0986825 0.364026 0)
(-0.105054 0.314084 0)
(-0.102809 0.342493 0)
(-0.188035 0.381051 0)
(-0.282192 0.405604 0)
(-0.263791 0.474636 0)
(-0.115446 0.606184 0)
(0.0234423 0.733738 0)
(0.121171 0.79794 0)
(0.0877374 0.744252 0)
(0.0488278 0.657759 0)
(0.0222764 0.575215 0)
(0.125013 0.479468 0)
(0.278786 0.35669 0)
(0.43706 0.252137 0)
(0.589552 -0.00411222 0)
(0.711779 -0.268842 0)
(0.799046 -0.595169 0)
(-1.51984 2.19219 0)
(-0.0122807 1.50289 0)
(-0.94881 0.958295 0)
(-0.150985 0.674611 0)
(-0.133227 0.421977 0)
(0.0407739 0.275682 0)
(0.0357714 0.298637 0)
(0.0747674 0.360142 0)
(0.0802451 0.441629 0)
(0.0564979 0.474182 0)
(0.0019589 0.490623 0)
(0.0217402 0.488123 0)
(0.113575 0.53646 0)
(0.260096 0.594501 0)
(0.386866 0.626109 0)
(0.480494 0.603634 0)
(0.542056 0.550483 0)
(0.623093 0.428114 0)
(0.676184 0.276339 0)
(0.779265 0.121456 0)
(0.849752 -0.106929 0)
(0.918171 -0.305244 0)
(0.912909 -0.548505 0)
(-1.10112 2.67077 0)
(0.370417 1.37026 0)
(-0.464519 0.828528 0)
(0.109845 0.453633 0)
(0.00624826 0.332596 0)
(0.100813 0.240491 0)
(0.109783 0.270596 0)
(0.151334 0.324544 0)
(0.200017 0.420561 0)
(0.246728 0.495645 0)
(0.221512 0.527082 0)
(0.229762 0.504247 0)
(0.255932 0.477822 0)
(0.324285 0.45664 0)
(0.427179 0.469055 0)
(0.561826 0.433808 0)
(0.662789 0.431587 0)
(0.786216 0.33508 0)
(0.833272 0.211903 0)
(0.891286 0.0575313 0)
(0.895135 -0.175393 0)
(0.927496 -0.338883 0)
(0.911791 -0.526255 0)
(-0.527983 2.91377 0)
(0.465848 1.32565 0)
(-0.0612748 0.833723 0)
(0.20571 0.40026 0)
(0.134269 0.300943 0)
(0.159422 0.233287 0)
(0.173423 0.245312 0)
(0.198962 0.282499 0)
(0.250338 0.360544 0)
(0.317157 0.453534 0)
(0.345346 0.511334 0)
(0.368844 0.502922 0)
(0.386346 0.465871 0)
(0.43042 0.413275 0)
(0.483827 0.39203 0)
(0.586686 0.342623 0)
)
;

boundaryField
{
    leftWall
    {
        type            fixedValue;
        value           uniform (0 0 0);
    }
    rightWall
    {
        type            fixedValue;
        value           nonuniform 0();
    }
    lowerWall
    {
        type            fixedValue;
        value           uniform (0 0 0);
    }
    atmosphere
    {
        type            fluxCorrectedVelocity;
        value           nonuniform 0();
    }
    defaultFaces
    {
        type            empty;
    }
    procBoundary0to1
    {
        type            processor;
        value           nonuniform List<vector> 
26
(
(-0.018325 -0.00547306 0)
(0.000553866 -0.0155534 0)
(0.00500241 -0.00966917 0)
(-0.000218671 -0.000762414 0)
(0.00247571 0.0803437 0)
(-0.0844972 0.259832 0)
(-0.195271 0.172356 0)
(0.0121701 0.014792 0)
(-0.388789 0.358465 0)
(0.215205 -0.0084273 0)
(-0.631501 -0.00738262 0)
(-0.991863 -0.0570986 0)
(-1.24676 0.154934 0)
(-1.57981 0.445936 0)
(-1.54887 -0.020075 0)
(-1.44768 0.422728 0)
(-1.44768 0.422728 0)
(-1.13071 -0.523941 0)
(-1.77748 -0.682577 0)
(-1.38523 -0.473185 0)
(-0.668291 -0.783962 0)
(-0.0578164 -0.763864 0)
(0.50787 -0.761457 0)
(0.772117 -0.755219 0)
(0.87191 -0.693019 0)
(0.866988 -0.621065 0)
)
;
    }
    procBoundary0to2
    {
        type            processor;
        value           nonuniform List<vector> 
24
(
(0.653762 0.300083 0)
(0.757282 0.249422 0)
(0.830177 0.153449 0)
(0.870348 0.0198367 0)
(0.834527 -0.170763 0)
(0.854662 -0.341471 0)
(0.787444 -0.487767 0)
(-0.0098492 2.54939 0)
(0.520813 1.30194 0)
(0.22378 0.805257 0)
(0.275689 0.448269 0)
(0.231965 0.295631 0)
(0.228079 0.231111 0)
(0.231917 0.229051 0)
(0.244988 0.253635 0)
(0.270309 0.303596 0)
(0.330231 0.398315 0)
(0.384393 0.467509 0)
(0.430179 0.471215 0)
(0.453722 0.433068 0)
(0.498842 0.375326 0)
(0.526631 0.330329 0)
(0.653762 0.300083 0)
(0.598738 0.289084 0)
)
;
    }
}


// ************************************************************************* //
