/*--------------------------------*- C++ -*----------------------------------*\
| =========                 |                                                 |
| \\      /  F ield         | OpenFOAM: The Open Source CFD Toolbox           |
|  \\    /   O peration     | Version:  2.4.0                                 |
|   \\  /    A nd           | Web:      www.OpenFOAM.org                      |
|    \\/     M anipulation  |                                                 |
\*---------------------------------------------------------------------------*/
FoamFile
{
    version     2.0;
    format      ascii;
    class       volVectorField;
    location    "1";
    object      U.oil;
}
// * * * * * * * * * * * * * * * * * * * * * * * * * * * * * * * * * * * * * //

dimensions      [0 1 -1 0 0 0 0];

internalField   nonuniform List<vector> 
575
(
(-0.0267778 -0.0155352 0)
(-0.0761312 -0.0132975 0)
(-0.123409 -0.00181618 0)
(-0.149591 0.00775174 0)
(-0.165516 0.0133546 0)
(-0.174423 0.0125297 0)
(-0.175254 0.007084 0)
(-0.172988 0.00596468 0)
(-0.175283 0.00454951 0)
(-0.179331 0.00236375 0)
(-0.179076 0.000127609 0)
(-0.168128 -0.000641854 0)
(-0.152371 0.00200671 0)
(-0.140871 0.00262746 0)
(-0.131591 0.00253449 0)
(-0.125015 0.000504703 0)
(-0.114521 -0.00315855 0)
(-0.0987856 -0.00521305 0)
(-0.0749309 -0.005279 0)
(-0.0458181 -0.00344097 0)
(-0.0304579 0.00564166 0)
(-0.0260456 0.0112906 0)
(-0.0253177 0.0521878 0)
(-0.0771356 0.0525579 0)
(-0.119112 0.0350892 0)
(-0.152544 0.013491 0)
(-0.169949 -0.00341251 0)
(-0.180878 -0.00843533 0)
(-0.179831 -0.00810661 0)
(-0.174648 -0.00534084 0)
(-0.17478 9.31655e-05 0)
(-0.175679 0.00101863 0)
(-0.171399 -0.00626515 0)
(-0.162557 -0.0144233 0)
(-0.15253 -0.017611 0)
(-0.142703 -0.0146138 0)
(-0.134497 -0.0116042 0)
(-0.125119 -0.0100377 0)
(-0.11086 -0.0103514 0)
(-0.0934332 -0.0140661 0)
(-0.0688646 -0.0183237 0)
(-0.0437857 -0.0149633 0)
(-0.0231968 -0.00587573 0)
(-0.00267982 -0.00348379 0)
(-0.029223 0.0500991 0)
(-0.0752784 0.0467882 0)
(-0.113062 0.0410849 0)
(-0.148814 0.0377716 0)
(-0.172868 0.0341958 0)
(-0.182928 0.0204799 0)
(-0.180412 0.00314352 0)
(-0.175249 0.00187121 0)
(-0.175101 0.00174625 0)
(-0.175867 -0.00140055 0)
(-0.173392 -0.00305233 0)
(-0.16716 -0.00337552 0)
(-0.159051 -0.000182551 0)
(-0.146224 0.00130136 0)
(-0.131532 0.00029064 0)
(-0.117877 -0.00571421 0)
(-0.0993141 -0.0132273 0)
(-0.0843332 -0.0221119 0)
(-0.0679482 -0.0279908 0)
(-0.0524048 -0.0248032 0)
(-0.034512 -0.0127511 0)
(-0.00138738 0.00059246 0)
(-0.0348924 0.0712371 0)
(-0.0880389 0.0782407 0)
(-0.13659 0.0698545 0)
(-0.175101 0.0399832 0)
(-0.194277 0.00320106 0)
(-0.197578 -0.0135715 0)
(-0.201109 -0.00966458 0)
(-0.195961 -0.000151289 0)
(-0.183212 0.0112939 0)
(-0.17412 0.0115957 0)
(-0.170644 -0.00495109 0)
(-0.168338 -0.0235516 0)
(-0.164075 -0.0341082 0)
(-0.153603 -0.0339336 0)
(-0.136287 -0.0294399 0)
(-0.117481 -0.0283916 0)
(-0.0984134 -0.0287821 0)
(-0.0839398 -0.0279952 0)
(-0.0692523 -0.0263664 0)
(-0.056779 -0.0246 0)
(-0.0393919 -0.0279749 0)
(-0.0116359 -0.0210534 0)
(-0.024242 0.113368 0)
(-0.12489 0.100982 0)
(-0.194282 0.0759275 0)
(-0.231942 0.0701082 0)
(-0.243838 0.0695009 0)
(-0.225917 0.0398025 0)
(-0.218034 0.00663585 0)
(-0.220385 -0.00551435 0)
(-0.216937 -0.00214651 0)
(-0.211455 0.0122626 0)
(-0.208292 0.0321006 0)
(-0.199225 0.0556637 0)
(-0.183051 0.0681048 0)
(-0.162332 0.0660364 0)
(-0.137019 0.0590493 0)
(-0.115403 0.0482943 0)
(-0.0949839 0.0396399 0)
(-0.0770087 0.0277809 0)
(-0.0611762 0.0197941 0)
(-0.0493956 0.00896794 0)
(-0.0437964 0.000649112 0)
(-0.0180751 0.0102117 0)
(-0.0768747 0.159202 0)
(-0.210468 0.176177 0)
(-0.273906 0.137317 0)
(-0.263369 0.0748513 0)
(-0.257044 -0.0243747 0)
(-0.275364 -0.0712454 0)
(-0.274403 -0.0793112 0)
(-0.259303 -0.075475 0)
(-0.230053 -0.0651834 0)
(-0.184945 -0.047233 0)
(-0.165133 -0.0297105 0)
(-0.161315 -0.0207015 0)
(-0.176231 -0.0180637 0)
(-0.19116 -0.01121 0)
(-0.195799 0.00178834 0)
(-0.176378 0.017508 0)
(-0.142874 0.024837 0)
(-0.0989742 0.0195769 0)
(-0.0647897 0.0164039 0)
(-0.0438859 -0.000536614 0)
(-0.0725158 -0.00329201 0)
(-0.0873947 0.0958965 0)
(-0.165035 0.224618 0)
(-0.293829 0.199761 0)
(-0.310884 0.0710229 0)
(-0.307831 -0.015548 0)
(-0.296498 -0.0171715 0)
(-0.298264 0.055549 0)
(-0.297792 0.15243 0)
(-0.237466 0.13948 0)
(-0.135703 0.107937 0)
(-0.0375172 0.108693 0)
(0.0206263 0.145805 0)
(0.0140151 0.175898 0)
(-0.03977 0.148072 0)
(-0.103647 0.091018 0)
(-0.17066 0.0580785 0)
(-0.192761 0.0646489 0)
(-0.198874 0.0772404 0)
(-0.189034 0.0896473 0)
(-0.183472 0.106736 0)
(-0.183252 0.169352 0)
(-0.180674 0.257746 0)
(-0.157107 0.370217 0)
(-0.229287 0.335229 0)
(-0.285828 0.20013 0)
(-0.271507 0.0833285 0)
(-0.328039 0.128019 0)
(-0.535612 0.0216448 0)
(-0.353031 -0.184399 0)
(-0.200893 -0.220654 0)
(-0.0571346 -0.218675 0)
(0.0250351 -0.202338 0)
(0.0680106 -0.169264 0)
(0.0939165 -0.15466 0)
(0.129867 -0.146266 0)
(0.144319 -0.122814 0)
(0.106284 -0.0977291 0)
(0.0180581 -0.0776961 0)
(-0.0902387 -0.0795222 0)
(-0.15095 -0.0684661 0)
(-0.197688 -0.067288 0)
(-0.260274 -0.0654314 0)
(-0.329135 -0.115222 0)
(-0.300192 -0.219101 0)
(-0.174142 -0.287013 0)
(-0.229788 0.533965 0)
(-0.191849 0.285861 0)
(-0.323983 0.100351 0)
(-0.192253 -0.0806978 0)
(-0.00797041 -0.132509 0)
(0.0943914 -0.0692307 0)
(0.116212 -0.0187926 0)
(0.166292 -0.0194658 0)
(0.224797 -0.010434 0)
(0.278868 0.0646698 0)
(0.299885 0.179063 0)
(0.26842 0.314772 0)
(0.197581 0.406676 0)
(0.088554 0.41102 0)
(-0.00244148 0.356939 0)
(-0.0720782 0.270458 0)
(-0.130214 0.185325 0)
(-0.157631 0.162501 0)
(-0.131835 0.173649 0)
(-0.0656481 0.22866 0)
(-0.12177 0.32116 0)
(-0.22497 0.313289 0)
(-0.206249 0.634083 0)
(-0.000468354 0.315693 0)
(0.00107292 0.0622398 0)
(0.19991 -0.0412807 0)
(0.213886 -0.0942298 0)
(0.230751 -0.148701 0)
(0.256781 -0.178777 0)
(0.296173 -0.184356 0)
(0.325348 -0.161561 0)
(0.357731 -0.11492 0)
(0.353597 -0.0776636 0)
(0.347723 -0.0460833 0)
(0.319447 0.0154367 0)
(0.248186 0.0766773 0)
(0.176245 0.0689942 0)
(0.110581 0.0413708 0)
(0.0146777 0.0166288 0)
(-0.0603102 -0.0352935 0)
(-0.0788401 -0.12752 0)
(-0.166116 -0.156736 0)
(-0.236769 -0.134196 0)
(-0.15355 -0.0739871 0)
(-0.0950418 0.64222 0)
(0.17758 0.232235 0)
(0.287412 -0.00585545 0)
(0.300227 -0.102111 0)
(0.304113 -0.124769 0)
(0.30705 -0.138526 0)
(0.327453 -0.139894 0)
(0.350577 -0.128548 0)
(0.391684 -0.102863 0)
(0.437896 -0.0373999 0)
(0.460554 0.0965085 0)
(0.449697 0.281843 0)
(0.34385 0.387733 0)
(0.241688 0.396393 0)
(0.13499 0.33876 0)
(0.060713 0.30586 0)
(0.0145968 0.267604 0)
(-0.0468345 0.181792 0)
(-0.22899 0.171796 0)
(-0.474863 0.287862 0)
(-0.595497 0.266629 0)
(-0.666667 0.0100439 0)
(0.21052 0.311169 0)
(0.31629 0.120328 0)
(0.341377 0.00119025 0)
(0.311551 -0.050145 0)
(0.298594 -0.0700945 0)
(0.293037 -0.091756 0)
(0.27533 -0.139726 0)
(0.269579 -0.185714 0)
(0.302463 -0.220997 0)
(0.30047 -0.196941 0)
(0.304136 -0.0953847 0)
(0.277535 0.121665 0)
(0.198235 0.363032 0)
(0.0923443 0.443059 0)
(0.00742405 0.363524 0)
(-0.0690521 0.259281 0)
(-0.18041 0.234233 0)
(-0.397202 0.308621 0)
(-0.76703 0.424647 0)
(-0.943937 0.335351 0)
(-0.957245 0.101417 0)
(-0.964921 0.0114077 0)
(0.120307 0.188761 0)
(0.208828 0.105091 0)
(0.220005 0.0120576 0)
(0.200515 -0.0358323 0)
(0.19545 -0.0764219 0)
(0.146557 -0.120695 0)
(0.0855588 -0.17833 0)
(-0.0356303 -0.184101 0)
(-0.219119 -0.124189 0)
(-0.303794 -0.107763 0)
(-0.308589 -0.0177263 0)
(-0.228752 0.197462 0)
(-0.177882 0.328275 0)
(-0.225651 0.382255 0)
(-0.338942 0.407178 0)
(-0.645643 0.484535 0)
(-1.03418 0.622224 0)
(-1.2347 0.680454 0)
(-1.31567 0.636481 0)
(-1.28789 0.463303 0)
(-1.30889 0.235677 0)
(-1.31158 0.0208491 0)
(0.0444605 0.0449418 0)
(0.0883446 0.11335 0)
(0.044342 0.0197155 0)
(0.0445244 -0.0306989 0)
(0.0246487 -0.0366446 0)
(-0.0560286 -0.0445279 0)
(-0.354986 0.0706834 0)
(-0.490596 0.109929 0)
(-0.59986 -0.0864232 0)
(-0.718585 -0.189903 0)
(-0.940799 -0.117297 0)
(-0.968015 0.14247 0)
(-0.903177 0.426612 0)
(-1.0058 0.573036 0)
(-1.19184 0.681396 0)
(-1.30878 0.76024 0)
(-1.37956 0.775804 0)
(-1.41993 0.714002 0)
(-1.39515 0.544701 0)
(-1.47935 0.220221 0)
(-1.6449 -0.00578009 0)
(-1.62604 -0.151075 0)
(-0.0115458 0.00597453 0)
(0.0131586 0.115352 0)
(0.00950347 0.0470041 0)
(-0.0155013 -0.0254331 0)
(-0.172307 0.0192739 0)
(-0.417629 0.184153 0)
(-0.532632 0.170221 0)
(-0.569487 0.124038 0)
(-0.612935 0.0910358 0)
(-0.991575 0.0525644 0)
(-1.28313 0.0754551 0)
(-1.29053 0.184119 0)
(-1.25505 0.452494 0)
(-1.34914 0.592914 0)
(-1.39471 0.671212 0)
(-1.37066 0.742687 0)
(-1.36297 0.754465 0)
(-1.37172 0.621228 0)
(-1.42751 0.264991 0)
(-1.59113 -0.176579 0)
(-1.53574 -0.412549 0)
(-1.51045 -0.517194 0)
(-0.0138073 0.033124 0)
(0.00295029 0.110031 0)
(-0.0523296 0.0588719 0)
(-0.264159 0.123682 0)
(-0.542348 0.322273 0)
(-0.605446 0.337689 0)
(-0.559052 0.205346 0)
(-0.506489 0.134672 0)
(-0.671462 0.0171201 0)
(-1.44203 -0.0321543 0)
(-1.73355 0.146805 0)
(-1.45773 0.216698 0)
(-1.3276 0.34497 0)
(-1.35042 0.567892 0)
(-1.34499 0.648497 0)
(-1.30738 0.682708 0)
(-1.29079 0.635923 0)
(-1.37773 0.377806 0)
(-1.74053 -0.193075 0)
(-1.6513 -0.518928 0)
(-1.48773 -0.615306 0)
(-1.49989 -0.88845 0)
(0.00771246 -0.0142828 0)
(0.00448462 0.14102 0)
(-0.182485 0.238776 0)
(-0.487485 0.438842 0)
(-0.623156 0.41548 0)
(-0.655838 0.135962 0)
(-0.772119 -0.197384 0)
(-0.761719 -0.20531 0)
(-0.761927 -0.132872 0)
(-1.94903 0.0115295 0)
(-2.65507 0.255267 0)
(-2.07395 0.285544 0)
(-1.5048 0.318246 0)
(-1.3008 0.416329 0)
(-1.24138 0.502608 0)
(-1.19004 0.503887 0)
(-1.1714 0.450008 0)
(-1.35016 0.198653 0)
(-1.92931 -0.321608 0)
(-1.61901 -0.535679 0)
(-1.45074 -0.564202 0)
(-1.36952 -0.639903 0)
(-1.27282 -0.623836 0)
(-0.071834 0.000164094 0)
(-0.155338 0.342591 0)
(-0.406616 0.553303 0)
(-0.577154 0.537367 0)
(-0.645989 0.325862 0)
(-0.792772 -0.161301 0)
(-0.837484 -0.344209 0)
(-0.773829 -0.364853 0)
(-0.858608 -0.373826 0)
(-1.82245 0.267896 0)
(-3.23735 0.662922 0)
(-3.0183 0.518611 0)
(-1.92084 0.382375 0)
(-1.42573 0.364298 0)
(-1.26082 0.391641 0)
(-1.1511 0.355812 0)
(-1.08561 0.300175 0)
(-1.16714 0.187647 0)
(-1.38896 0.805898 0)
(-1.44541 0.425329 0)
(-1.61438 0.497549 0)
(-1.92649 0.134232 0)
(-1.85588 -0.452901 0)
(-0.268748 0.265992 0)
(-0.358894 0.573925 0)
(-0.537972 0.608895 0)
(-0.629802 0.476929 0)
(-0.774881 0.0846906 0)
(-0.917559 -0.304395 0)
(-0.890664 -0.364089 0)
(-0.946948 -0.0721006 0)
(-0.926908 -0.107941 0)
(-0.902769 0.656624 0)
(-1.33477 0.767059 0)
(-2.72333 0.604113 0)
(-2.53772 0.516061 0)
(-1.72976 0.394584 0)
(-1.37244 0.360972 0)
(-1.2014 0.297296 0)
(-1.0539 0.232005 0)
(-1.0867 0.876828 0)
(-1.19334 0.884921 0)
(-1.2235 0.506925 0)
(-1.38945 0.261409 0)
(-1.4246 -0.0573262 0)
(-1.32559 -0.390687 0)
(-0.349487 0.558533 0)
(-0.436975 0.634527 0)
(-0.645332 0.50147 0)
(-0.746943 0.254599 0)
(-0.96313 -0.107796 0)
(-0.983909 -0.173603 0)
(-1.08 0.402395 0)
(-0.965601 0.0706857 0)
(-0.922789 -0.133221 0)
(-0.97133 -0.0759776 0)
(-0.908215 0.761914 0)
(-1.15287 0.578809 0)
(-1.28161 0.422852 0)
(-1.48634 0.42285 0)
(-1.38147 0.403272 0)
(-1.2108 0.385068 0)
(-0.999103 0.77765 0)
(-0.958302 0.947011 0)
(-0.866027 0.882982 0)
(-0.840228 0.646219 0)
(-0.894663 0.356312 0)
(-0.868301 -0.0139218 0)
(-0.691993 -0.53608 0)
(-0.354349 0.864316 0)
(-0.439944 0.611504 0)
(-0.815623 0.375924 0)
(-0.803199 0.122898 0)
(-0.989319 0.0591386 0)
(-1.00856 0.425016 0)
(-0.863087 0.232334 0)
(-0.815835 -0.00174893 0)
(-0.784114 -0.232577 0)
(-0.776723 -0.23058 0)
(-0.851097 -0.0385124 0)
(-0.91017 0.410992 0)
(-0.894566 0.536475 0)
(-0.931617 0.421484 0)
(-0.985755 0.455447 0)
(-0.96012 0.578384 0)
(-0.824561 0.79046 0)
(-0.679009 0.895801 0)
(-0.526175 0.835007 0)
(-0.393945 0.640405 0)
(-0.338495 0.373954 0)
(-0.235919 -0.033357 0)
(-0.0736888 -0.48221 0)
(-0.624632 1.01202 0)
(-0.506077 0.562276 0)
(-0.901189 0.329029 0)
(-0.791046 0.307844 0)
(-0.77594 0.853838 0)
(-0.508109 0.506461 0)
(-0.429957 0.38212 0)
(-0.497458 0.314747 0)
(-0.694426 0.0587233 0)
(-0.716547 -0.140463 0)
(-0.701714 -0.157845 0)
(-0.711055 -0.0513568 0)
(-0.441525 0.253072 0)
(-0.487201 0.656978 0)
(-0.681492 0.510113 0)
(-0.710191 0.503574 0)
(-0.61421 0.564425 0)
(-0.437845 0.588478 0)
(-0.23698 0.548976 0)
(-0.0207401 0.420414 0)
(0.152218 0.228052 0)
(0.365772 -0.0847448 0)
(0.47591 -0.537107 0)
(-1.16126 1.27391 0)
(-0.631715 0.568157 0)
(-0.977007 0.571906 0)
(-0.556258 0.880514 0)
(-0.359231 0.612159 0)
(-0.0982737 0.360281 0)
(-0.103911 0.311174 0)
(-0.103 0.340083 0)
(-0.196458 0.370656 0)
(-0.446409 0.162896 0)
(-0.576556 -0.0531472 0)
(-0.525588 -0.0486618 0)
(-0.113011 0.445783 0)
(0.0849847 0.715894 0)
(0.0720563 0.737531 0)
(0.121674 0.576798 0)
(0.054207 0.541343 0)
(0.105215 0.473275 0)
(0.261198 0.353767 0)
(0.420734 0.259284 0)
(0.592223 0.00657263 0)
(0.730461 -0.237242 0)
(0.816025 -0.576155 0)
(-2.05231 1.96732 0)
(-0.604334 0.745612 0)
(-0.921435 0.923606 0)
(-0.157227 0.670415 0)
(-0.131343 0.419409 0)
(0.0415663 0.273866 0)
(0.0364783 0.297038 0)
(0.0750091 0.358674 0)
(0.0798212 0.440353 0)
(0.0495659 0.466036 0)
(-0.183345 0.291999 0)
(-0.217123 0.1906 0)
(0.0480133 0.462475 0)
(0.215943 0.541662 0)
(0.185856 0.469337 0)
(0.237271 0.434246 0)
(0.366061 0.449103 0)
(0.561511 0.415516 0)
(0.516404 0.326409 0)
(0.5251 0.106294 0)
(0.686878 -0.0312917 0)
(0.88327 -0.220502 0)
(0.940725 -0.510989 0)
(-3.37784 3.25032 0)
(-0.000284674 1.08058 0)
(-0.459913 0.826537 0)
(0.109539 0.451996 0)
(0.00815313 0.330998 0)
(0.101282 0.239484 0)
(0.110131 0.269804 0)
(0.151509 0.323758 0)
(0.200013 0.419923 0)
(0.246409 0.494933 0)
(0.218381 0.522014 0)
(0.211301 0.483096 0)
(0.25084 0.472111 0)
(0.315355 0.450038 0)
(0.321834 0.373198 0)
(0.374423 0.354114 0)
(0.530515 0.399087 0)
(0.712032 0.331691 0)
(0.61685 0.236401 0)
(0.588209 0.0842024 0)
(0.624771 -0.0432514 0)
(0.801904 -0.18799 0)
(0.917164 -0.415104 0)
(-3.31013 3.84231 0)
(0.336824 1.42183 0)
(-0.0517709 0.834906 0)
(0.205574 0.400435 0)
(0.136112 0.299592 0)
(0.160061 0.232537 0)
(0.173626 0.244863 0)
(0.199046 0.282098 0)
(0.25035 0.360131 0)
(0.317047 0.453054 0)
(0.345206 0.510868 0)
(0.368434 0.501509 0)
(0.385283 0.464763 0)
(0.428525 0.410599 0)
(0.468079 0.377417 0)
(0.545037 0.330523 0)
)
;

boundaryField
{
    leftWall
    {
        type            fixedValue;
        value           uniform (0 0 0);
    }
    rightWall
    {
        type            fixedValue;
        value           nonuniform 0();
    }
    lowerWall
    {
        type            fixedValue;
        value           uniform (0 0 0);
    }
    atmosphere
    {
        type            fluxCorrectedVelocity;
        value           nonuniform 0();
    }
    defaultFaces
    {
        type            empty;
    }
    procBoundary0to1
    {
        type            processor;
        value           nonuniform List<vector> 
26
(
(-0.0182677 0.00345597 0)
(0.000647243 -0.00460731 0)
(0.00524682 0.00140333 0)
(-0.000319463 0.00938099 0)
(0.00228987 0.0202927 0)
(-0.101644 0.160658 0)
(-0.237371 0.211787 0)
(-0.254514 -0.310163 0)
(-0.367527 -0.20132 0)
(-0.14724 -0.0837761 0)
(-0.626726 -0.140504 0)
(-0.99211 -0.0287471 0)
(-1.23787 -0.0834282 0)
(-1.48654 -0.203868 0)
(-1.50196 -0.507482 0)
(-1.37778 -0.901842 0)
(-1.37778 -0.901842 0)
(-1.19192 -0.55787 0)
(-1.74455 -0.710413 0)
(-1.36799 -0.491766 0)
(-0.642904 -0.795456 0)
(-0.0269688 -0.76665 0)
(0.533392 -0.755678 0)
(0.788154 -0.753694 0)
(0.880005 -0.691105 0)
(0.872802 -0.616038 0)
)
;
    }
    procBoundary0to2
    {
        type            processor;
        value           nonuniform List<vector> 
24
(
(0.634987 0.300725 0)
(0.746963 0.254811 0)
(0.765745 0.181197 0)
(0.725761 0.034644 0)
(0.777447 -0.126406 0)
(0.852227 -0.305853 0)
(0.796732 -0.489212 0)
(-0.228761 2.66463 0)
(0.496379 1.33373 0)
(0.228555 0.807011 0)
(0.2765 0.44832 0)
(0.233479 0.294769 0)
(0.228763 0.230518 0)
(0.232089 0.228755 0)
(0.245026 0.253413 0)
(0.270313 0.303335 0)
(0.3302 0.398048 0)
(0.384307 0.467228 0)
(0.430078 0.470924 0)
(0.453533 0.432686 0)
(0.498541 0.374466 0)
(0.525541 0.327869 0)
(0.634987 0.300725 0)
(0.594743 0.284402 0)
)
;
    }
}


// ************************************************************************* //
