/*--------------------------------*- C++ -*----------------------------------*\
| =========                 |                                                 |
| \\      /  F ield         | OpenFOAM: The Open Source CFD Toolbox           |
|  \\    /   O peration     | Version:  2.4.0                                 |
|   \\  /    A nd           | Web:      www.OpenFOAM.org                      |
|    \\/     M anipulation  |                                                 |
\*---------------------------------------------------------------------------*/
FoamFile
{
    version     2.0;
    format      ascii;
    class       volVectorField;
    location    "1";
    object      U.water;
}
// * * * * * * * * * * * * * * * * * * * * * * * * * * * * * * * * * * * * * //

dimensions      [0 1 -1 0 0 0 0];

internalField   nonuniform List<vector> 
575
(
(-0.0267662 -0.0148942 0)
(-0.0761102 -0.0127258 0)
(-0.123392 -0.00139604 0)
(-0.149578 0.00805728 0)
(-0.165505 0.013522 0)
(-0.174414 0.012661 0)
(-0.175247 0.00721122 0)
(-0.172983 0.00606737 0)
(-0.175281 0.00463572 0)
(-0.17933 0.0024449 0)
(-0.179076 0.000213534 0)
(-0.168129 -0.000553521 0)
(-0.152371 0.00207715 0)
(-0.140871 0.00267076 0)
(-0.131591 0.00255875 0)
(-0.125015 0.000517804 0)
(-0.114522 -0.00315442 0)
(-0.0987871 -0.00523201 0)
(-0.0749399 -0.00556993 0)
(-0.045849 -0.00512715 0)
(-0.0305049 0.00111333 0)
(-0.0261268 0.00384906 0)
(-0.0251616 0.0558214 0)
(-0.0768094 0.0550332 0)
(-0.118794 0.0364775 0)
(-0.152315 0.0144831 0)
(-0.169827 -0.00264352 0)
(-0.180817 -0.00751718 0)
(-0.179796 -0.007232 0)
(-0.174628 -0.00473905 0)
(-0.17477 0.000506805 0)
(-0.175675 0.00138258 0)
(-0.171398 -0.00595955 0)
(-0.162558 -0.0141712 0)
(-0.152531 -0.0174555 0)
(-0.142704 -0.0145212 0)
(-0.134497 -0.0115366 0)
(-0.125119 -0.0099799 0)
(-0.110859 -0.0102945 0)
(-0.0934335 -0.0140644 0)
(-0.0688689 -0.0186364 0)
(-0.0438053 -0.0163112 0)
(-0.0232325 -0.00959681 0)
(-0.00279248 -0.0109651 0)
(-0.0280027 0.0697413 0)
(-0.0735042 0.0587414 0)
(-0.112212 0.0477378 0)
(-0.148374 0.0430651 0)
(-0.172495 0.0385169 0)
(-0.18254 0.0228555 0)
(-0.180088 0.0056558 0)
(-0.175078 0.00413499 0)
(-0.175053 0.00332199 0)
(-0.175878 -0.000364747 0)
(-0.173422 -0.00209561 0)
(-0.167173 -0.00258337 0)
(-0.159057 0.000291848 0)
(-0.146225 0.00169351 0)
(-0.131531 0.000824445 0)
(-0.117875 -0.00487161 0)
(-0.0993123 -0.0120575 0)
(-0.0843361 -0.019556 0)
(-0.0679585 -0.0225956 0)
(-0.0524229 -0.0187169 0)
(-0.0345287 -0.00930151 0)
(-0.00163391 -0.00217267 0)
(-0.0283249 0.134723 0)
(-0.0782457 0.120511 0)
(-0.130644 0.0926301 0)
(-0.171236 0.0550724 0)
(-0.192265 0.0143647 0)
(-0.196921 0.00703293 0)
(-0.200863 0.0191358 0)
(-0.195783 0.0340272 0)
(-0.183079 0.0438597 0)
(-0.174062 0.0399265 0)
(-0.170624 0.0182385 0)
(-0.168353 -0.00494909 0)
(-0.164092 -0.0185881 0)
(-0.153618 -0.0186534 0)
(-0.136301 -0.0126311 0)
(-0.117481 -0.00900784 0)
(-0.0983658 -0.00703376 0)
(-0.0837452 -0.00230948 0)
(-0.0689325 0.00706435 0)
(-0.0565049 0.0167467 0)
(-0.0393349 0.0149529 0)
(-0.0116611 0.0136893 0)
(0.00720317 0.248625 0)
(-0.0817203 0.214054 0)
(-0.176596 0.128633 0)
(-0.225344 0.114717 0)
(-0.236761 0.128703 0)
(-0.20056 0.211461 0)
(-0.193529 0.189425 0)
(-0.206529 0.17541 0)
(-0.212089 0.170725 0)
(-0.214803 0.171538 0)
(-0.216222 0.172199 0)
(-0.206247 0.179926 0)
(-0.187685 0.185095 0)
(-0.164082 0.180932 0)
(-0.137492 0.172844 0)
(-0.115218 0.162261 0)
(-0.0933639 0.154038 0)
(-0.0730009 0.141876 0)
(-0.0572866 0.131119 0)
(-0.0471977 0.130412 0)
(-0.0408967 0.133246 0)
(-0.0149206 0.131547 0)
(-0.0319486 0.290844 0)
(-0.139431 0.324243 0)
(-0.229236 0.260248 0)
(-0.215594 0.266199 0)
(-0.222564 0.164204 0)
(-0.255661 0.108636 0)
(-0.263378 0.0979338 0)
(-0.250809 0.0979794 0)
(-0.223644 0.0982478 0)
(-0.181065 0.099137 0)
(-0.161936 0.081647 0)
(-0.158552 0.0559047 0)
(-0.17434 0.0413668 0)
(-0.189917 0.0410788 0)
(-0.194992 0.0433038 0)
(-0.176273 0.0466272 0)
(-0.144136 0.0449014 0)
(-0.102259 0.0402549 0)
(-0.0687732 0.0388524 0)
(-0.0489761 0.0454295 0)
(-0.0710974 0.0452831 0)
(-0.0846637 0.0667059 0)
(-0.115289 0.369484 0)
(-0.212266 0.364296 0)
(-0.23796 0.243935 0)
(-0.256295 0.159427 0)
(-0.268546 0.197076 0)
(-0.27292 0.254169 0)
(-0.287239 0.224285 0)
(-0.236434 0.169324 0)
(-0.136646 0.129284 0)
(-0.0397095 0.125674 0)
(0.0183236 0.164836 0)
(0.0120775 0.21657 0)
(-0.0401875 0.225808 0)
(-0.103494 0.193713 0)
(-0.16491 0.13713 0)
(-0.183657 0.102187 0)
(-0.189423 0.0808151 0)
(-0.185783 0.0664672 0)
(-0.190374 0.0633772 0)
(-0.195035 0.1071 0)
(-0.194402 0.208411 0)
(-0.16741 0.320901 0)
(-0.178137 0.493905 0)
(-0.198185 0.365649 0)
(-0.199956 0.273117 0)
(-0.358109 0.336668 0)
(-0.572304 0.0799781 0)
(-0.363418 -0.170764 0)
(-0.207787 -0.211716 0)
(-0.0617704 -0.211801 0)
(0.0217777 -0.198903 0)
(0.0638074 -0.178726 0)
(0.0930565 -0.176393 0)
(0.127451 -0.177119 0)
(0.140314 -0.167135 0)
(0.10785 -0.144238 0)
(0.024883 -0.122776 0)
(-0.0785461 -0.125669 0)
(-0.139025 -0.119454 0)
(-0.191762 -0.118062 0)
(-0.260773 -0.118602 0)
(-0.328894 -0.147675 0)
(-0.309169 -0.241363 0)
(-0.179561 -0.333989 0)
(-0.168766 0.681878 0)
(-0.11234 0.476835 0)
(-0.350073 0.258038 0)
(-0.212728 -0.0443489 0)
(-0.0132584 -0.120807 0)
(0.0918886 -0.0539215 0)
(0.113875 -0.00121659 0)
(0.164067 -0.00276746 0)
(0.215901 -0.000222357 0)
(0.265495 0.0385367 0)
(0.290231 0.12582 0)
(0.264328 0.242091 0)
(0.201204 0.317717 0)
(0.0984374 0.322041 0)
(0.00969693 0.269753 0)
(-0.0586685 0.18857 0)
(-0.11948 0.0998071 0)
(-0.14766 0.0782613 0)
(-0.125538 0.0867118 0)
(-0.0686534 0.145016 0)
(-0.118704 0.236051 0)
(-0.203114 0.238276 0)
(-0.158763 0.760512 0)
(0.0573822 0.424055 0)
(-0.00230601 0.0723146 0)
(0.19977 -0.0329248 0)
(0.212364 -0.0935655 0)
(0.230471 -0.1581 0)
(0.253547 -0.197048 0)
(0.288668 -0.219112 0)
(0.312891 -0.217826 0)
(0.333319 -0.197612 0)
(0.340454 -0.161702 0)
(0.343507 -0.121753 0)
(0.320625 -0.0480961 0)
(0.252763 0.0203631 0)
(0.187128 0.0165745 0)
(0.130791 -0.00886054 0)
(0.037582 -0.0317178 0)
(-0.0500801 -0.0859494 0)
(-0.0783166 -0.178546 0)
(-0.16113 -0.208513 0)
(-0.245537 -0.189832 0)
(-0.207036 -0.144639 0)
(-0.0074155 0.692198 0)
(0.243709 0.204041 0)
(0.296889 -0.0185028 0)
(0.304113 -0.131168 0)
(0.305577 -0.172281 0)
(0.301867 -0.184631 0)
(0.31579 -0.194515 0)
(0.346007 -0.198026 0)
(0.382983 -0.177482 0)
(0.423975 -0.128814 0)
(0.444019 -0.0224038 0)
(0.44539 0.151988 0)
(0.356198 0.256857 0)
(0.254635 0.279867 0)
(0.154417 0.236914 0)
(0.0832551 0.21329 0)
(0.0275279 0.183392 0)
(-0.0306946 0.107144 0)
(-0.222788 0.0935622 0)
(-0.49603 0.197057 0)
(-0.625503 0.131128 0)
(-0.761687 -0.133108 0)
(0.162533 0.322479 0)
(0.28233 0.111324 0)
(0.328484 -0.0317987 0)
(0.304747 -0.0942521 0)
(0.285078 -0.119966 0)
(0.272767 -0.146997 0)
(0.278935 -0.197913 0)
(0.279009 -0.24916 0)
(0.312646 -0.30633 0)
(0.283435 -0.306192 0)
(0.254183 -0.223572 0)
(0.251165 -0.0153373 0)
(0.224313 0.233883 0)
(0.124375 0.331392 0)
(0.0274455 0.275424 0)
(-0.0509848 0.187889 0)
(-0.153372 0.16759 0)
(-0.368242 0.228302 0)
(-0.788115 0.335367 0)
(-1.01088 0.212596 0)
(-1.03608 -0.0376247 0)
(-1.05367 -0.123564 0)
(0.113006 0.1277 0)
(0.19898 0.0503205 0)
(0.202972 -0.0358078 0)
(0.178728 -0.0839976 0)
(0.170784 -0.12869 0)
(0.140658 -0.18225 0)
(0.0873135 -0.259398 0)
(-0.0833715 -0.277993 0)
(-0.384589 -0.184158 0)
(-0.472229 -0.158028 0)
(-0.464178 -0.0653021 0)
(-0.31064 0.103687 0)
(-0.199767 0.220703 0)
(-0.216004 0.28663 0)
(-0.33541 0.323707 0)
(-0.556763 0.388661 0)
(-0.849627 0.482052 0)
(-1.16404 0.522577 0)
(-1.34345 0.459654 0)
(-1.35276 0.240344 0)
(-1.35984 0.0214096 0)
(-1.34836 -0.160533 0)
(0.0348077 -0.0464269 0)
(0.073279 0.0406302 0)
(0.0237631 -0.0383248 0)
(0.019452 -0.0831234 0)
(0.00168054 -0.0908838 0)
(-0.0740489 -0.118003 0)
(-0.441517 -0.0260177 0)
(-0.580244 0.00339459 0)
(-0.706556 -0.189111 0)
(-0.882461 -0.266502 0)
(-1.02374 -0.139287 0)
(-0.940201 0.124173 0)
(-0.861071 0.354229 0)
(-0.924563 0.477606 0)
(-1.04907 0.561889 0)
(-1.12971 0.615782 0)
(-1.28437 0.624673 0)
(-1.45598 0.524635 0)
(-1.43669 0.312433 0)
(-1.5664 -0.0482754 0)
(-1.6401 -0.219364 0)
(-1.58291 -0.34371 0)
(-0.0244698 -0.0772166 0)
(-0.00909306 0.0393214 0)
(-0.0158745 -0.0094581 0)
(-0.048805 -0.0819096 0)
(-0.194607 -0.0629979 0)
(-0.47014 0.0999765 0)
(-0.595398 0.0629642 0)
(-0.632351 0.00376719 0)
(-0.742803 -0.0337649 0)
(-1.25197 -0.0345394 0)
(-1.32258 0.0125144 0)
(-1.20094 0.168961 0)
(-1.17392 0.396545 0)
(-1.24382 0.519948 0)
(-1.30463 0.569699 0)
(-1.31516 0.609279 0)
(-1.36974 0.588087 0)
(-1.46777 0.358596 0)
(-1.55588 -0.175999 0)
(-1.64523 -0.570491 0)
(-1.52421 -0.725838 0)
(-1.45732 -0.811561 0)
(-0.0264401 -0.0423663 0)
(-0.022681 0.0352764 0)
(-0.0901899 -0.00267703 0)
(-0.282013 0.043733 0)
(-0.571715 0.218372 0)
(-0.659198 0.220951 0)
(-0.637668 0.0560389 0)
(-0.583026 -0.00631321 0)
(-0.906593 -0.170237 0)
(-1.95976 -0.0117063 0)
(-1.83438 0.171582 0)
(-1.42316 0.209349 0)
(-1.28185 0.302992 0)
(-1.28975 0.476691 0)
(-1.3019 0.538855 0)
(-1.29756 0.561071 0)
(-1.3604 0.49712 0)
(-1.58947 -0.0210391 0)
(-1.71469 -0.462357 0)
(-1.66551 -0.6179 0)
(-1.50603 -0.637105 0)
(-1.20953 -0.152359 0)
(-0.0298503 -0.078989 0)
(-0.0432914 0.0753906 0)
(-0.225312 0.166792 0)
(-0.53951 0.336565 0)
(-0.68992 0.323902 0)
(-0.729431 0.0698335 0)
(-0.807533 -0.196183 0)
(-0.664181 -0.180163 0)
(-0.847873 -0.291602 0)
(-2.44623 0.51213 0)
(-2.76612 0.382832 0)
(-2.04383 0.31912 0)
(-1.50821 0.309226 0)
(-1.3244 0.363432 0)
(-1.26248 0.425425 0)
(-1.22515 0.410983 0)
(-1.26909 0.339198 0)
(-1.48926 0.115014 0)
(-1.56528 0.204896 0)
(-1.56853 -0.198737 0)
(-1.45491 -0.525947 0)
(-1.37341 -0.640032 0)
(-1.27381 -0.623504 0)
(-0.149433 0.0109696 0)
(-0.232933 0.289227 0)
(-0.477813 0.463743 0)
(-0.650885 0.430233 0)
(-0.752384 0.233041 0)
(-0.92953 -0.108912 0)
(-0.776951 -0.114191 0)
(-0.858288 0.205756 0)
(-1.02427 0.59414 0)
(-0.996949 1.17189 0)
(-1.58885 0.759693 0)
(-2.23996 0.388072 0)
(-1.98597 0.374187 0)
(-1.49149 0.349769 0)
(-1.30695 0.364789 0)
(-1.18476 0.3152 0)
(-1.14956 0.32664 0)
(-1.15912 0.989652 0)
(-1.31833 0.875994 0)
(-1.40445 0.584618 0)
(-1.61402 0.544508 0)
(-1.92479 0.155782 0)
(-1.85016 -0.431893 0)
(-0.377539 0.277775 0)
(-0.447486 0.493114 0)
(-0.633945 0.487251 0)
(-0.713656 0.350601 0)
(-0.890738 0.0816549 0)
(-0.82515 0.121802 0)
(-1.05579 0.20968 0)
(-0.966011 0.301986 0)
(-0.916974 0.417147 0)
(-0.702024 0.813268 0)
(-0.667032 0.819417 0)
(-0.851144 0.482986 0)
(-1.40965 0.350443 0)
(-1.47754 0.356635 0)
(-1.3381 0.391517 0)
(-1.16839 0.39392 0)
(-1.11841 0.846122 0)
(-1.12808 1.05714 0)
(-1.16818 0.909822 0)
(-1.21097 0.535254 0)
(-1.38085 0.280801 0)
(-1.42387 -0.0412497 0)
(-1.3262 -0.382318 0)
(-0.460283 0.489031 0)
(-0.554891 0.487021 0)
(-0.781552 0.33245 0)
(-0.817308 0.205638 0)
(-0.943023 0.230562 0)
(-1.07402 0.566343 0)
(-1.07753 0.467663 0)
(-0.983694 0.441337 0)
(-0.9084 0.481289 0)
(-0.692572 0.705195 0)
(-0.622706 0.757911 0)
(-0.671789 0.565743 0)
(-0.875645 0.399005 0)
(-0.969886 0.398595 0)
(-1.02292 0.466906 0)
(-1.02107 0.651324 0)
(-0.997816 0.91083 0)
(-0.945842 0.979485 0)
(-0.842558 0.901945 0)
(-0.807974 0.665693 0)
(-0.873766 0.39316 0)
(-0.865649 0.0215386 0)
(-0.714978 -0.523862 0)
(-0.526592 0.699394 0)
(-0.657204 0.359562 0)
(-0.861435 0.244793 0)
(-0.806365 0.352201 0)
(-0.950731 0.876749 0)
(-1.00531 0.467203 0)
(-0.863378 0.264403 0)
(-0.810829 0.195458 0)
(-0.739223 0.232951 0)
(-0.634633 0.536991 0)
(-0.553347 0.73328 0)
(-0.561321 0.728017 0)
(-0.782065 0.515008 0)
(-0.889267 0.43854 0)
(-0.941647 0.473631 0)
(-0.922555 0.60423 0)
(-0.799494 0.80679 0)
(-0.645474 0.904694 0)
(-0.499354 0.844508 0)
(-0.359897 0.647666 0)
(-0.298873 0.380289 0)
(-0.225519 -0.0369422 0)
(-0.101001 -0.486101 0)
(-0.829285 0.853922 0)
(-0.772684 0.355495 0)
(-0.848321 0.47638 0)
(-0.797277 1.03047 0)
(-0.76965 0.903515 0)
(-0.510919 0.523195 0)
(-0.428704 0.390135 0)
(-0.490886 0.33053 0)
(-0.600226 0.334723 0)
(-0.557761 0.422353 0)
(-0.426944 0.612814 0)
(-0.286879 0.731683 0)
(-0.298413 0.782983 0)
(-0.499567 0.636467 0)
(-0.667484 0.523905 0)
(-0.687364 0.517583 0)
(-0.592084 0.571366 0)
(-0.41695 0.593735 0)
(-0.211651 0.550088 0)
(0.0071668 0.415297 0)
(0.180482 0.21438 0)
(0.370714 -0.105166 0)
(0.471829 -0.542521 0)
(-1.4442 1.19722 0)
(-0.599573 0.74094 0)
(-1.0635 1.1467 0)
(-0.553682 0.935388 0)
(-0.354472 0.616545 0)
(-0.0986777 0.363758 0)
(-0.105034 0.313851 0)
(-0.102834 0.342303 0)
(-0.188107 0.380838 0)
(-0.283101 0.40467 0)
(-0.275981 0.454489 0)
(-0.142198 0.565993 0)
(0.020017 0.727427 0)
(0.120834 0.798501 0)
(0.089506 0.747554 0)
(0.0457993 0.655291 0)
(0.0194415 0.573867 0)
(0.12017 0.478313 0)
(0.275816 0.355612 0)
(0.43323 0.253008 0)
(0.588399 0.00150879 0)
(0.71948 -0.246142 0)
(0.824779 -0.562348 0)
(-2.13874 1.94158 0)
(-0.0246679 1.4861 0)
(-0.94862 0.957721 0)
(-0.150995 0.674226 0)
(-0.133167 0.42172 0)
(0.0408063 0.275436 0)
(0.0357945 0.298418 0)
(0.0747496 0.359952 0)
(0.0801977 0.441455 0)
(0.0564213 0.473981 0)
(0.0013132 0.489822 0)
(0.0191609 0.484981 0)
(0.110818 0.535052 0)
(0.254448 0.592809 0)
(0.378239 0.621066 0)
(0.476207 0.602235 0)
(0.538278 0.550988 0)
(0.618222 0.434367 0)
(0.661818 0.293685 0)
(0.758541 0.151059 0)
(0.83902 -0.0655298 0)
(0.922783 -0.256434 0)
(0.936861 -0.505086 0)
(-2.22869 2.94504 0)
(0.37023 1.36933 0)
(-0.464233 0.828203 0)
(0.109893 0.453339 0)
(0.00652962 0.332225 0)
(0.100903 0.240156 0)
(0.10984 0.270338 0)
(0.151331 0.324364 0)
(0.199982 0.420398 0)
(0.246665 0.495489 0)
(0.221425 0.526905 0)
(0.229549 0.503836 0)
(0.255172 0.477051 0)
(0.322736 0.455668 0)
(0.424574 0.468862 0)
(0.556051 0.431182 0)
(0.658724 0.431877 0)
(0.781429 0.339525 0)
(0.824076 0.225877 0)
(0.877142 0.0823908 0)
(0.885279 -0.142442 0)
(0.934964 -0.313488 0)
(0.919891 -0.516303 0)
(-0.682163 2.96478 0)
(0.466106 1.32554 0)
(-0.0609025 0.833455 0)
(0.205779 0.400107 0)
(0.134994 0.30042 0)
(0.15983 0.232794 0)
(0.173598 0.244935 0)
(0.198975 0.28232 0)
(0.250312 0.360396 0)
(0.317103 0.453388 0)
(0.345266 0.51119 0)
(0.368742 0.502773 0)
(0.386114 0.465612 0)
(0.430095 0.412756 0)
(0.48346 0.391345 0)
(0.586237 0.341939 0)
)
;

boundaryField
{
    leftWall
    {
        type            fixedValue;
        value           uniform (0 0 0);
    }
    rightWall
    {
        type            fixedValue;
        value           nonuniform 0();
    }
    lowerWall
    {
        type            fixedValue;
        value           uniform (0 0 0);
    }
    atmosphere
    {
        type            fluxCorrectedVelocity;
        value           nonuniform 0();
    }
    defaultFaces
    {
        type            empty;
    }
    procBoundary0to1
    {
        type            processor;
        value           nonuniform List<vector> 
26
(
(-0.018325 -0.00547094 0)
(0.000553909 -0.0155453 0)
(0.00500289 -0.00843665 0)
(-0.000335009 0.0361287 0)
(0.00435469 0.144354 0)
(-0.0885344 0.128989 0)
(-0.225855 0.194116 0)
(-0.279718 -0.421331 0)
(-0.40955 -0.312746 0)
(-0.290468 -0.176864 0)
(-0.723187 -0.258582 0)
(-1.06324 -0.159809 0)
(-1.27259 -0.238795 0)
(-1.46397 -0.358749 0)
(-1.42679 -0.749012 0)
(-1.15006 -1.11889 0)
(-1.15006 -1.11889 0)
(-1.1378 -0.506743 0)
(-1.76751 -0.695625 0)
(-1.37139 -0.487456 0)
(-0.65271 -0.791147 0)
(-0.0368609 -0.766947 0)
(0.532934 -0.749511 0)
(0.81164 -0.736 0)
(0.895975 -0.667986 0)
(0.869666 -0.621542 0)
)
;
    }
    procBoundary0to2
    {
        type            processor;
        value           nonuniform List<vector> 
24
(
(0.652907 0.29967 0)
(0.756145 0.24955 0)
(0.828843 0.154709 0)
(0.868783 0.0214313 0)
(0.834706 -0.168793 0)
(0.854453 -0.341603 0)
(0.787583 -0.488845 0)
(-0.00995782 2.54992 0)
(0.520992 1.30208 0)
(0.224061 0.805089 0)
(0.275859 0.448237 0)
(0.232595 0.295239 0)
(0.22869 0.230553 0)
(0.232185 0.228621 0)
(0.245011 0.253466 0)
(0.27029 0.303468 0)
(0.330186 0.398183 0)
(0.384322 0.467377 0)
(0.430085 0.471087 0)
(0.453603 0.432926 0)
(0.498713 0.375159 0)
(0.526482 0.33016 0)
(0.652907 0.29967 0)
(0.598554 0.288858 0)
)
;
    }
}


// ************************************************************************* //
