/*--------------------------------*- C++ -*----------------------------------*\
| =========                 |                                                 |
| \\      /  F ield         | OpenFOAM: The Open Source CFD Toolbox           |
|  \\    /   O peration     | Version:  2.4.0                                 |
|   \\  /    A nd           | Web:      www.OpenFOAM.org                      |
|    \\/     M anipulation  |                                                 |
\*---------------------------------------------------------------------------*/
FoamFile
{
    version     2.0;
    format      ascii;
    class       volScalarField;
    location    "0.65";
    object      alphas;
}
// * * * * * * * * * * * * * * * * * * * * * * * * * * * * * * * * * * * * * //

dimensions      [0 0 0 0 0 0 0];

internalField   nonuniform List<scalar> 
575
(
2
2
2
2
2
2
2
2
2
2
2
2
2
2
2
2
2
2
2
2
2
2
1.99999
1.99999
2
1.99999
1.99999
1.99999
2
2
2
2
2
2
2
2
2
2
2
2
2
2
2
2
1.99004
1.98927
1.99145
1.98896
1.98811
1.99029
1.99129
1.99298
1.9943
1.99771
1.99972
1.99997
1.99999
2
2
2
2
2
2
2
2
2
1.39334
1.38505
1.40167
1.37473
1.35324
1.36227
1.37391
1.40212
1.45352
1.57406
1.78082
1.96135
1.99831
1.99995
2
2
2
2
2
2
2
2
0.0285778
0.0267707
0.0281924
0.0245975
0.0217311
0.0200306
0.0177719
0.0186723
0.0206767
0.0296601
0.0763269
0.417189
1.09839
1.85476
1.9957
1.99984
1.99999
2
2
2
2
2
1.12603e-05
1.11326e-05
1.10567e-05
1.04276e-05
1.02531e-05
1.02467e-05
1.03053e-05
1.03615e-05
1.04102e-05
1.04708e-05
3.64032e-05
0.00371891
0.0698476
0.766349
1.89738
1.99788
1.99986
1.99997
1.99999
1.99999
2
2
1.32702e-05
1.30214e-05
1.26985e-05
1.26346e-05
1.15188e-05
1.0254e-05
1.05973e-05
1.06698e-05
1.07279e-05
1.09789e-05
1.14508e-05
1.15589e-05
0.000637046
0.112673
1.30694
1.97558
1.99906
1.99976
1.99986
1.99995
1.99999
1.99999
1.61167e-05
1.53741e-05
1.41154e-05
1.38458e-05
1.14443e-05
9.96346e-06
1.03139e-05
1.04095e-05
1.03165e-05
1.10589e-05
1.22649e-05
1.26886e-05
7.12507e-05
0.0275361
0.611153
1.79297
1.99642
1.99995
1.99996
1.99996
1.99816
1.99544
8.90091e-06
8.06588e-06
6.93173e-06
6.63124e-06
6.72074e-06
1.04134e-05
3.06246e-05
4.5391e-05
2.36164e-05
1.33977e-05
1.00275e-05
1.12854e-05
1.53297e-05
0.00222982
0.0932824
0.626012
1.51442
1.87732
1.83792
1.68833
1.54262
1.49261
2.14473e-06
1.99757e-06
1.8504e-06
2.36345e-06
6.47546e-05
0.0027194
0.00608965
0.00585247
0.00323281
0.00181236
0.000791768
0.000342705
8.26307e-05
0.000155887
0.00200412
0.031194
0.133407
0.274934
0.410799
0.369278
0.256848
0.216397
2.58423e-06
2.47152e-06
1.6625e-05
0.00161849
0.0164661
0.110479
0.155063
0.127266
0.0790222
0.0491339
0.0255557
0.0117887
0.00263541
0.000526059
0.000307393
0.000394655
0.0022771
0.00541103
0.00504139
0.00641554
0.0138898
0.033716
2.42315e-06
0.000127696
0.00693316
0.0961254
0.308404
0.626012
0.711923
0.679455
0.606923
0.545671
0.441208
0.311867
0.136534
0.0438998
0.0131635
0.00478774
0.00437134
0.0210386
0.0458114
0.106428
0.192078
0.292603
0.176671
0.232546
0.301054
0.580799
0.936852
1.17437
1.18529
1.09647
1.01363
0.936254
0.90599
0.900148
0.823802
0.638232
0.507498
0.402621
0.307324
0.432857
0.502228
0.642314
0.883564
1.24593
2.68017
2.78121
2.78846
2.61489
2.65405
2.90147
2.83323
2.47573
2.111
1.87174
1.77592
1.66486
1.4204
1.25408
1.22692
1.20444
1.3201
1.63408
1.82614
2.17027
2.52711
2.81361
2.9995
2.99916
2.99781
2.99551
2.99692
2.99983
3
3
3
2.99994
2.99979
2.996
2.96926
2.911
2.88369
2.87995
2.943
2.98438
2.99655
2.99975
2.99999
2.99999
3
3
2.99999
2.99999
3
3
3
3
3
3
3
3
3
3
3
3
3
3
3
3
3
3
3
3
3
3
3
3
3
3
3
3
3
3
3
3
3
3
3
3
3
3
3
3
2.99999
3
3
3
3
3
3
3
3
3
3
3
3
3
3
3
3
3
3
3
3
3
3
3
3
3
3
3
3
3
3
3
3
3
3
3
3
3
3
3
3
3
3
3
3
3
3
3
3
3
3
3
3
3
3
3
3
3
3
3
3
3
3
3
3
3
3
3
3
3
3
3
3
3
3
3
3
3
3
3
3
3
3
3
3
3
3
3
3
3
3
3
3
3
3
3
3
3
3
3
3
3
3
3
3
3
3
3
3
3
3
3
3
3
3
3
3
3
3
3
3
3
3
3
3
3
3
3
3
3
3
3
3
3
3
3
3
3
3
3
3
3
3
3
3
3
3
3
3
3
3
3
3
3
3
3
3
3
3
3
3
2.99999
3
3
3
3
3
3
3
3
3
3
3
3
3
3
3
3
3
3
3
3
3
3
3
3
3
3
3
3
3
3
3
3
3
3
3
3
3
3
3
)
;

boundaryField
{
    leftWall
    {
        type            zeroGradient;
    }
    rightWall
    {
        type            zeroGradient;
    }
    lowerWall
    {
        type            zeroGradient;
    }
    atmosphere
    {
        type            zeroGradient;
    }
    defaultFaces
    {
        type            empty;
    }
    procBoundary0to1
    {
        type            processor;
        value           nonuniform List<scalar> 
26
(
1.99999
1.99999
1.99999
1.99999
1.99999
1.99999
1.99998
1.99959
1.58802
0.235468
0.0685175
0.423039
1.63862
2.9785
2.99998
2.99999
2.99999
2.99999
2.99999
2.99999
2.99999
3
2.99999
2.99999
2.99999
2.99999
)
;
    }
    procBoundary0to2
    {
        type            processor;
        value           nonuniform List<scalar> 
24
(
3
3
3
3
3
3
2.99999
3
3
3
3
3
3
3
3
3
3
3
3
3
3
3
3
3
)
;
    }
}


// ************************************************************************* //
