/*--------------------------------*- C++ -*----------------------------------*\
| =========                 |                                                 |
| \\      /  F ield         | OpenFOAM: The Open Source CFD Toolbox           |
|  \\    /   O peration     | Version:  2.4.0                                 |
|   \\  /    A nd           | Web:      www.OpenFOAM.org                      |
|    \\/     M anipulation  |                                                 |
\*---------------------------------------------------------------------------*/
FoamFile
{
    version     2.0;
    format      ascii;
    class       volScalarField;
    location    "0.65";
    object      alpha.water;
}
// * * * * * * * * * * * * * * * * * * * * * * * * * * * * * * * * * * * * * //

dimensions      [0 0 0 0 0 0 0];

internalField   nonuniform List<scalar> 
575
(
1.9026e-08
1.38826e-08
9.86e-09
1.40737e-08
1.48628e-08
1.31744e-08
1.33673e-08
1.44537e-08
1.92514e-08
1.95012e-08
1.50716e-08
1.19744e-08
8.87942e-09
8.43934e-09
8.2624e-09
7.87415e-09
5.97964e-09
3.65674e-09
2.79571e-09
2.79933e-09
2.59778e-09
1.11634e-09
3.15392e-06
3.97919e-06
1.84247e-06
4.20634e-06
4.85148e-06
2.56908e-06
2.09737e-06
1.3881e-06
1.48792e-06
6.48814e-07
1.71348e-07
5.39117e-08
4.59766e-08
4.17785e-08
3.67824e-08
3.1862e-08
2.42324e-08
1.70459e-08
1.12795e-08
9.25069e-09
6.14263e-09
1.73427e-09
0.00498184
0.00536289
0.00427478
0.00552063
0.00594384
0.0048547
0.00435581
0.00350956
0.00284911
0.00114452
0.00013992
1.57893e-05
2.55567e-06
1.31198e-06
5.28888e-07
1.77002e-07
5.94621e-08
3.72027e-08
2.61739e-08
2.59012e-08
2.54004e-08
6.83799e-09
0.303332
0.307476
0.299167
0.312634
0.323377
0.318864
0.313046
0.29894
0.273242
0.212968
0.109588
0.0193242
0.000844164
2.54104e-05
2.05247e-06
4.68808e-07
2.06852e-07
1.47289e-07
1.39074e-07
1.84613e-07
1.17929e-07
4.31553e-08
0.985711
0.986614
0.985904
0.987701
0.989134
0.989985
0.991114
0.990664
0.989662
0.98517
0.961836
0.791406
0.450805
0.0726221
0.00215183
7.74915e-05
6.23985e-06
7.33034e-07
4.31276e-07
5.86204e-07
3.87368e-07
1.24681e-07
0.999994
0.999994
0.999994
0.999995
0.999995
0.999995
0.999995
0.999995
0.999995
0.999995
0.999982
0.998141
0.965076
0.616825
0.0513116
0.00106169
7.13521e-05
1.41383e-05
5.73105e-06
5.56762e-06
1.72943e-06
3.94537e-07
0.999993
0.999993
0.999993
0.999993
0.999994
0.999995
0.999995
0.999995
0.999995
0.999994
0.999994
0.999994
0.999681
0.943663
0.34653
0.0122119
0.000471286
0.000119564
7.03125e-05
2.28003e-05
3.13564e-06
1.61777e-06
0.999992
0.999992
0.999993
0.999993
0.999994
0.999995
0.999995
0.999995
0.999995
0.999994
0.999994
0.999994
0.999964
0.986232
0.694423
0.103512
0.00178763
1.83795e-05
1.09523e-05
1.06453e-05
0.000914259
0.0022773
0.999995
0.999996
0.999996
0.999997
0.999996
0.999991
0.999971
0.999957
0.999979
0.999989
0.999994
0.999994
0.999992
0.998885
0.953358
0.686989
0.242757
0.0612637
0.0808969
0.155568
0.228407
0.253484
0.999999
0.999999
0.999999
0.999998
0.999936
0.997281
0.99391
0.994148
0.996767
0.998188
0.999209
0.999658
0.99992
0.999919
0.998997
0.984401
0.933289
0.862501
0.794394
0.814605
0.870199
0.88852
0.999999
0.999999
0.999984
0.998384
0.983536
0.889523
0.844941
0.872735
0.920978
0.950866
0.974444
0.988211
0.997365
0.999477
0.999769
0.999767
0.998849
0.997257
0.99718
0.995218
0.986997
0.966763
0.999999
0.999948
0.994066
0.904273
0.691744
0.376514
0.292041
0.320583
0.393081
0.45433
0.558793
0.688133
0.863466
0.9561
0.986837
0.995221
0.995696
0.979099
0.95443
0.894531
0.810842
0.718896
0.94111
0.922226
0.855172
0.474631
0.123168
0.0218614
0.0180627
0.0388867
0.066197
0.0922919
0.102275
0.107232
0.186893
0.3669
0.49653
0.601102
0.701033
0.603256
0.560686
0.490903
0.374802
0.253712
0.106609
0.0727838
0.0553641
0.0498473
0.0139353
0.000364609
2.70573e-05
6.66202e-05
0.000114115
0.000290526
0.000697626
0.0015989
0.00402205
0.00961873
0.0194666
0.0376539
0.0577521
0.0431003
0.0569181
0.0349749
0.012344
0.00250655
0.00016486
0.000255639
0.000250901
0.00031322
0.000103529
1.30987e-06
1.79028e-08
9.48529e-09
9.36718e-09
4.13263e-08
2.59678e-07
9.22097e-07
5.58927e-06
1.89029e-05
3.41636e-05
4.45481e-05
2.85147e-05
1.12237e-05
7.74367e-06
2.32354e-06
4.25482e-07
3.10794e-08
1.35864e-07
7.26948e-08
9.42687e-08
1.61598e-07
7.163e-08
1.08877e-08
1.23876e-09
1.32375e-08
7.47702e-09
4.27945e-09
2.40116e-09
2.38426e-09
2.16049e-09
1.13014e-09
2.86246e-10
9.02854e-11
9.05967e-10
1.47154e-09
1.87529e-09
6.909e-09
3.50319e-09
2.32503e-09
5.24217e-08
3.19486e-08
2.72591e-08
1.88359e-08
4.04403e-09
5.83681e-10
6.48009e-10
8.91974e-09
7.7393e-09
3.85698e-09
2.25441e-09
2.25383e-09
2.65054e-09
1.43912e-09
3.93e-10
8.49414e-11
2.68258e-11
1.372e-11
9.25942e-12
6.47546e-12
5.24866e-12
6.6038e-12
3.7259e-11
3.61961e-08
3.20686e-08
1.78979e-08
4.17639e-09
5.45326e-10
5.17991e-10
1.00486e-09
6.6399e-09
5.6186e-09
3.41385e-09
2.77136e-09
4.43445e-09
5.58129e-09
3.72693e-09
9.4356e-10
1.42438e-10
2.73824e-11
1.20793e-11
7.56146e-12
6.05427e-12
5.14647e-12
3.74193e-12
3.8072e-12
5.36728e-08
3.83048e-08
1.85726e-08
5.11122e-09
5.17541e-10
3.90592e-10
8.99808e-10
3.49592e-09
2.92621e-09
2.86995e-09
3.17897e-09
6.0862e-09
5.67042e-09
1.59081e-09
1.64789e-10
4.80778e-11
1.79617e-11
6.65499e-12
3.51342e-12
2.69491e-12
2.5198e-12
2.04162e-12
1.52858e-12
5.27126e-08
2.39411e-08
6.26888e-09
3.17068e-10
1.0586e-10
1.05874e-10
3.64311e-10
1.35268e-09
2.70578e-09
4.20954e-09
6.98984e-09
7.26585e-09
3.23056e-09
2.9484e-10
9.05624e-12
2.07638e-12
8.15396e-13
5.03987e-13
4.10863e-13
3.54417e-13
4.09177e-13
4.96564e-13
7.63249e-13
2.55235e-08
9.51862e-09
6.48682e-10
3.64201e-11
3.00009e-11
2.98487e-11
2.87071e-11
8.17621e-11
4.99772e-10
3.11883e-09
2.86328e-09
8.26182e-10
3.84362e-11
5.90955e-12
1.03989e-12
2.21078e-13
7.55339e-14
4.17601e-14
3.75402e-14
4.27963e-14
6.58899e-14
1.5095e-13
5.02009e-13
4.79933e-09
5.88876e-10
3.93187e-11
1.99709e-11
1.20995e-11
1.23065e-11
1.66409e-11
1.86808e-11
1.864e-11
2.45186e-10
1.10093e-10
1.08269e-11
3.67969e-12
1.01103e-12
1.03791e-13
5.44642e-15
2.97549e-15
4.47612e-15
6.97638e-15
1.02282e-14
1.74104e-14
4.5789e-14
1.70262e-13
8.71887e-11
2.31867e-11
1.44793e-11
7.45704e-12
4.66081e-12
4.57259e-12
5.8711e-12
7.78098e-12
7.90695e-12
1.11193e-11
8.06194e-12
3.73907e-12
1.47693e-12
3.4955e-13
3.00539e-14
7.62126e-16
8.01944e-16
1.44822e-15
2.19874e-15
2.79981e-15
3.63906e-15
7.79667e-15
2.85052e-14
1.02738e-11
8.23333e-12
4.54619e-12
2.44339e-12
1.63102e-12
1.53731e-12
1.87678e-12
2.45158e-12
2.58446e-12
2.7596e-12
2.01891e-12
1.12141e-12
4.52032e-13
1.24206e-13
1.90642e-14
1.09016e-15
1.43242e-16
2.4964e-16
3.92817e-16
5.11894e-16
5.75185e-16
8.81177e-16
2.79793e-15
2.37491e-12
2.05595e-12
1.08813e-12
6.29475e-13
4.36644e-13
4.09705e-13
5.07167e-13
6.51921e-13
6.86877e-13
6.57347e-13
5.01575e-13
2.92568e-13
1.23994e-13
3.67583e-14
6.43019e-15
5.14228e-16
2.13211e-17
2.88465e-17
5.10881e-17
7.63157e-17
8.93562e-17
1.11168e-16
2.47846e-16
4.35217e-13
3.54104e-13
1.80026e-13
1.06324e-13
7.33135e-14
7.12158e-14
9.74931e-14
1.31619e-13
1.42894e-13
1.30321e-13
9.98029e-14
5.87672e-14
2.47375e-14
6.76754e-15
9.4978e-16
3.82911e-17
)
;

boundaryField
{
    leftWall
    {
        type            zeroGradient;
    }
    rightWall
    {
        type            zeroGradient;
    }
    lowerWall
    {
        type            zeroGradient;
    }
    atmosphere
    {
        type            inletOutlet;
        inletValue      nonuniform 0();
        value           nonuniform 0();
    }
    defaultFaces
    {
        type            empty;
    }
    procBoundary0to1
    {
        type            processor;
        value           nonuniform List<scalar> 
26
(
2.45443e-10
4.42578e-10
2.08034e-09
7.52995e-09
1.9766e-08
4.67747e-08
6.26329e-07
0.00020188
0.205794
0.874837
0.931891
0.623551
0.153733
0.000366523
9.58338e-09
1.639e-09
1.639e-09
2.97131e-10
1.99096e-11
4.26913e-12
3.20999e-12
2.17749e-12
6.95913e-13
1.13598e-13
1.12872e-14
9.48197e-16
)
;
    }
    procBoundary0to2
    {
        type            processor;
        value           nonuniform List<scalar> 
24
(
1.07446e-18
2.4463e-18
5.24533e-18
9.87509e-18
1.44045e-17
1.93345e-17
3.4503e-17
4.90753e-14
3.38684e-14
1.67668e-14
9.67418e-15
6.14373e-15
6.83254e-15
1.17306e-14
1.73809e-14
1.91321e-14
1.64265e-14
1.21005e-14
6.92724e-15
2.67135e-15
5.99079e-16
4.99243e-17
1.07446e-18
5.23305e-19
)
;
    }
}


// ************************************************************************* //
