/*--------------------------------*- C++ -*----------------------------------*\
| =========                 |                                                 |
| \\      /  F ield         | OpenFOAM: The Open Source CFD Toolbox           |
|  \\    /   O peration     | Version:  2.4.0                                 |
|   \\  /    A nd           | Web:      www.OpenFOAM.org                      |
|    \\/     M anipulation  |                                                 |
\*---------------------------------------------------------------------------*/
FoamFile
{
    version     2.0;
    format      ascii;
    class       volScalarField;
    location    "0.65";
    object      alpha.air;
}
// * * * * * * * * * * * * * * * * * * * * * * * * * * * * * * * * * * * * * //

dimensions      [0 0 0 0 0 0 0];

internalField   nonuniform List<scalar> 
575
(
1.76905e-12
2.15973e-12
1.22984e-12
2.36803e-12
2.41959e-12
1.64686e-12
1.48138e-12
1.36476e-12
1.52645e-12
1.21787e-12
6.53244e-13
3.36641e-13
1.78592e-13
1.08622e-13
7.77563e-14
5.6555e-14
3.6397e-14
1.97419e-14
9.98114e-15
6.54615e-15
5.45018e-15
1.99343e-15
1.63952e-11
1.85292e-11
1.32009e-11
1.94157e-11
1.98759e-11
1.56878e-11
1.4702e-11
1.36204e-11
1.36577e-11
1.03504e-11
5.97867e-12
3.17459e-12
1.62955e-12
8.95717e-13
5.43446e-13
3.51718e-13
2.13328e-13
1.20241e-13
6.53464e-14
4.76942e-14
3.9041e-14
1.35431e-14
6.93144e-11
7.46513e-11
6.47899e-11
7.75264e-11
7.91444e-11
6.94825e-11
6.36773e-11
5.62972e-11
5.08032e-11
3.70858e-11
2.25351e-11
1.4429e-11
8.27193e-12
4.44248e-12
2.35753e-12
1.29377e-12
6.8905e-13
3.72391e-13
2.25031e-13
1.94306e-13
1.62839e-13
6.33708e-14
2.27286e-10
2.27076e-10
2.27349e-10
2.26989e-10
2.27272e-10
2.26897e-10
2.27126e-10
2.23003e-10
2.03889e-10
1.87855e-10
1.42032e-10
5.3971e-11
1.84347e-11
9.49286e-12
4.95516e-12
2.78925e-12
1.54708e-12
9.00185e-13
6.07797e-13
5.43334e-13
4.14647e-13
1.63118e-13
1.17897e-10
1.40898e-10
1.32166e-10
1.64859e-10
1.65942e-10
1.1604e-10
9.24647e-11
8.34976e-11
8.6887e-11
1.17106e-10
1.5953e-10
1.59619e-10
1.32188e-10
6.02621e-11
1.73086e-11
6.25404e-12
3.11759e-12
1.79042e-12
1.24641e-12
1.06237e-12
7.29339e-13
3.0114e-13
5.6768e-11
5.68836e-11
5.7587e-11
6.97227e-11
5.5356e-11
5.82937e-11
7.11677e-11
8.3801e-11
1.18341e-10
1.65764e-10
1.21023e-10
7.68482e-11
7.12218e-11
7.12234e-11
2.12528e-11
9.55808e-12
4.8831e-12
2.89661e-12
2.11239e-12
1.6537e-12
1.0341e-12
5.07875e-13
5.65432e-11
5.67908e-11
5.74775e-11
6.11919e-11
5.88367e-11
1.72014e-10
1.60565e-10
2.01364e-10
5.50478e-10
9.15797e-10
1.02175e-09
8.1286e-10
1.78512e-10
5.06219e-11
2.66006e-11
1.36137e-11
7.38348e-12
4.3023e-12
3.13167e-12
2.19902e-12
1.44038e-12
8.91696e-13
5.67922e-11
5.7042e-11
5.72885e-11
5.75479e-11
1.17457e-10
2.03001e-09
7.48993e-10
6.12561e-10
8.88956e-10
1.3055e-09
1.86514e-09
2.31259e-09
1.17385e-09
6.36573e-11
3.53364e-11
5.04534e-12
4.97547e-12
5.59205e-12
5.43173e-12
3.49173e-12
9.70084e-13
7.52377e-13
3.24031e-08
3.25723e-08
2.34948e-08
9.60391e-09
8.73892e-09
6.59614e-09
2.02767e-09
1.05034e-09
1.0462e-09
1.35535e-09
2.36416e-09
3.64761e-09
3.6518e-09
2.25924e-09
1.18978e-09
7.88224e-10
4.05699e-10
3.21002e-11
1.66694e-11
7.48192e-12
5.18967e-10
5.11518e-09
3.259e-07
3.07024e-07
2.51519e-07
1.09063e-07
3.72032e-08
2.4655e-08
1.02314e-08
4.29924e-09
2.38429e-09
1.60711e-09
1.65857e-09
1.82802e-09
2.79056e-09
5.97238e-09
5.9083e-09
5.17015e-09
2.73983e-09
7.15701e-10
9.59525e-10
8.58157e-10
1.27918e-07
7.00409e-07
8.03078e-07
7.62755e-07
5.92872e-07
1.28247e-06
8.60746e-07
1.04707e-06
1.81917e-06
3.33531e-07
1.09413e-07
5.06296e-08
1.88469e-08
4.71507e-09
2.84904e-09
4.22214e-09
5.32844e-09
5.95121e-09
5.15645e-09
3.61957e-08
2.84499e-07
6.41656e-07
1.58148e-06
7.94165e-06
8.03092e-07
3.77462e-05
0.00049974
0.000199476
7.42479e-05
0.00126304
0.00198207
1.89141e-05
1.75588e-06
4.7028e-07
1.46076e-07
3.17144e-08
2.85668e-09
3.23536e-09
3.90292e-09
3.6397e-08
7.62031e-07
2.76817e-05
9.18833e-05
0.000465466
0.00145175
0.00574346
0.0588905
0.0773864
0.0781129
0.0277149
0.0300102
0.0981142
0.101678
0.0676779
0.0399144
0.0142727
0.00413275
0.00368993
0.00534758
0.0025662
0.00201399
0.00186161
0.00417823
0.0180564
0.0314572
0.0666085
0.129183
0.249821
0.89339
0.926999
0.921912
0.832367
0.833993
0.95092
0.916628
0.737897
0.555555
0.436014
0.388308
0.333228
0.212212
0.131848
0.123196
0.121047
0.188925
0.33859
0.441529
0.602621
0.769726
0.90806
0.999834
0.999709
0.999032
0.997913
0.998512
0.999916
0.999999
0.999999
0.999998
0.999968
0.999893
0.998002
0.984631
0.95551
0.941864
0.939998
0.971517
0.992195
0.998277
0.999878
0.999993
0.999995
0.999999
0.999999
0.999998
0.999997
0.999998
0.999999
0.999999
0.999999
1
0.999999
0.999999
0.999999
0.999999
0.999999
1
1
1
1
1
1
1
1
0.999999
0.999999
0.999999
0.999999
0.999999
0.999999
0.999999
1
1
1
0.999999
0.999999
0.999999
0.999999
0.999999
0.999999
0.999999
0.999999
1
1
1
1
0.999998
0.999999
0.999999
0.999999
0.999999
0.999999
0.999999
1
1
1
1
0.999999
0.999999
0.999999
0.999999
0.999999
0.999999
0.999999
0.999999
1
1
1
0.999999
0.999999
0.999999
0.999999
0.999999
0.999999
0.999999
0.999999
0.999999
1
1
1
0.999999
0.999999
0.999999
0.999999
0.999999
0.999999
1
1
1
1
1
1
0.999998
0.999999
0.999998
0.999999
0.999999
0.999999
0.999999
0.999999
0.999999
1
0.999999
0.999999
0.999999
1
0.999999
1
1
1
1
1
1
1
0.999999
0.999999
0.999998
0.999999
0.999999
0.999999
0.999999
0.999999
0.999999
1
1
0.999999
1
1
1
1
1
1
1
1
1
1
1
1
0.999999
0.999999
0.999999
0.999999
0.999999
0.999999
0.999999
0.999999
1
1
1
1
1
1
1
1
1
1
1
1
1
1
0.999999
0.999999
0.999999
0.999999
0.999999
0.999999
0.999999
0.999999
1
1
1
1
1
1
1
1
1
1
1
1
1
1
1
0.999999
0.999999
0.999999
0.999999
0.999999
0.999999
0.999999
1
1
1
1
1
1
1
1
1
0.999999
1
1
1
1
1
0.999999
0.999999
0.999998
0.999999
0.999999
0.999999
0.999999
0.999999
1
1
1
1
1
1
1
1
0.999999
1
0.999999
1
1
1
1
1
0.999999
0.999999
0.999999
0.999999
0.999999
0.999999
1
1
1
1
1
1
1
1
1
1
0.999999
1
)
;

boundaryField
{
    leftWall
    {
        type            alphaContactAngle;
        thetaProperties 
6
(

(
water
mercury
)
 90 0 0 0

(
water
air
)
 90 0 0 0

(
water
oil
)
 90 0 0 0

(
mercury
air
)
 90 0 0 0

(
oil
mercury
)
 90 0 0 0

(
oil
air
)
 90 0 0 0
);
        value           nonuniform List<scalar> 
26
(
1.76905e-12
1.63952e-11
6.93144e-11
2.27286e-10
1.17897e-10
5.6768e-11
5.65432e-11
5.67922e-11
3.24031e-08
3.259e-07
8.03078e-07
8.03092e-07
0.0588905
0.89339
0.999834
0.999999
0.999999
0.999999
0.999999
0.999999
0.999998
0.999999
0.999999
0.999999
0.999999
0.999999
)
;
    }
    rightWall
    {
        type            alphaContactAngle;
        thetaProperties 
6
(

(
water
mercury
)
 90 0 0 0

(
water
air
)
 90 0 0 0

(
water
oil
)
 90 0 0 0

(
mercury
air
)
 90 0 0 0

(
oil
mercury
)
 90 0 0 0

(
oil
air
)
 90 0 0 0
);
        value           nonuniform 0();
    }
    lowerWall
    {
        type            alphaContactAngle;
        thetaProperties 
6
(

(
water
mercury
)
 90 0 0 0

(
water
air
)
 90 0 0 0

(
water
oil
)
 90 0 0 0

(
mercury
air
)
 90 0 0 0

(
oil
mercury
)
 90 0 0 0

(
oil
air
)
 90 0 0 0
);
        value           nonuniform List<scalar> 
22
(
1.76905e-12
2.15973e-12
1.22984e-12
2.36803e-12
2.41959e-12
1.64686e-12
1.48138e-12
1.36476e-12
1.52645e-12
1.21787e-12
6.53244e-13
3.36641e-13
1.78592e-13
1.08622e-13
7.77563e-14
5.6555e-14
3.6397e-14
1.97419e-14
9.98114e-15
6.54615e-15
5.45018e-15
1.99343e-15
)
;
    }
    atmosphere
    {
        type            inletOutlet;
        inletValue      nonuniform 0();
        value           nonuniform 0();
    }
    defaultFaces
    {
        type            empty;
    }
    procBoundary0to1
    {
        type            processor;
        value           nonuniform List<scalar> 
26
(
1.18229e-15
8.03403e-15
2.69623e-14
5.12785e-14
7.91147e-14
1.19988e-13
3.15515e-13
5.33464e-13
2.09308e-08
5.06088e-06
7.43206e-05
0.0232896
0.396174
0.989436
0.999991
0.999998
0.999998
0.999996
0.999996
0.999998
0.999997
0.999999
0.999998
0.999998
0.999998
0.999996
)
;
    }
    procBoundary0to2
    {
        type            processor;
        value           nonuniform List<scalar> 
24
(
1
1
1
1
1
1
0.999998
0.999999
0.999999
0.999999
0.999999
1
1
1
1
1
1
1
1
1
0.999999
1
1
0.999999
)
;
    }
}


// ************************************************************************* //
