/*--------------------------------*- C++ -*----------------------------------*\
| =========                 |                                                 |
| \\      /  F ield         | OpenFOAM: The Open Source CFD Toolbox           |
|  \\    /   O peration     | Version:  2.4.0                                 |
|   \\  /    A nd           | Web:      www.OpenFOAM.org                      |
|    \\/     M anipulation  |                                                 |
\*---------------------------------------------------------------------------*/
FoamFile
{
    version     2.0;
    format      ascii;
    class       volScalarField;
    location    "0.65";
    object      alpha.mercury;
}
// * * * * * * * * * * * * * * * * * * * * * * * * * * * * * * * * * * * * * //

dimensions      [0 0 0 0 0 0 0];

internalField   nonuniform List<scalar> 
575
(
1
1
1
1
1
1
1
1
1
1
1
1
1
1
1
1
1
1
1
1
1
0.999998
0.999997
0.999996
0.999998
0.999996
0.999995
0.999997
0.999998
0.999998
0.999998
0.999999
1
1
1
1
1
1
1
1
1
1
1
0.999998
0.995018
0.994637
0.995725
0.994479
0.994056
0.995145
0.995644
0.99649
0.997151
0.998855
0.99986
0.999984
0.999997
0.999999
0.999999
1
1
1
1
1
1
0.999999
0.696668
0.692524
0.700833
0.687365
0.676622
0.681136
0.686954
0.701059
0.726758
0.787032
0.890412
0.980676
0.999156
0.999975
0.999998
0.999999
1
1
1
1
1
0.999999
0.0142889
0.0133853
0.0140962
0.0122988
0.0108655
0.0100153
0.00888594
0.00933617
0.0103383
0.01483
0.0381634
0.208594
0.549196
0.927378
0.997848
0.999922
0.999994
0.999999
0.999999
0.999999
0.999999
0.999999
5.63009e-06
5.56623e-06
5.52828e-06
5.21368e-06
5.12648e-06
5.12328e-06
5.15225e-06
5.18046e-06
5.20467e-06
5.23498e-06
1.82014e-05
0.00185945
0.0349238
0.383175
0.948689
0.998938
0.999929
0.999986
0.999994
0.999994
0.999997
0.999997
6.63503e-06
6.5106e-06
6.34917e-06
6.31721e-06
5.75932e-06
5.12442e-06
5.29527e-06
5.33275e-06
5.3511e-06
5.47791e-06
5.72269e-06
5.77823e-06
0.000318523
0.0563365
0.65347
0.987788
0.999528
0.99988
0.999928
0.999975
0.999994
0.999995
8.05828e-06
7.68698e-06
7.05761e-06
6.9228e-06
5.72195e-06
4.77715e-06
5.1134e-06
5.1979e-06
5.08307e-06
5.38905e-06
6.06026e-06
6.34083e-06
3.56234e-05
0.013768
0.305576
0.896485
0.998208
0.99997
0.99997
0.999973
0.999071
0.997719
4.40185e-06
3.98408e-06
3.43054e-06
3.28902e-06
2.92121e-06
1.95911e-06
2.17283e-06
2.11615e-06
2.19931e-06
2.61888e-06
3.80637e-06
5.0403e-06
7.47347e-06
0.00111484
0.0466408
0.313001
0.757173
0.93858
0.918816
0.843899
0.771027
0.746098
5.83515e-07
5.3755e-07
4.87753e-07
3.96372e-07
3.0276e-07
1.7253e-07
1.68973e-07
1.85661e-07
2.33481e-07
3.12356e-07
4.97329e-07
7.27713e-07
2.07756e-06
7.45356e-05
0.00100147
0.0155956
0.0666959
0.137436
0.205193
0.183883
0.127047
0.104916
8.7388e-08
6.97832e-08
4.46913e-08
2.63442e-08
1.6907e-08
6.49937e-09
6.25001e-09
7.34303e-09
1.11425e-08
1.70326e-08
2.58304e-08
3.4308e-08
1.02613e-07
3.22439e-06
7.6564e-05
0.000161739
0.00112619
0.0026677
0.00222038
0.0016319
0.000883747
0.00046272
5.36903e-09
3.22741e-09
1.34989e-09
6.17427e-10
3.87778e-10
1.26024e-10
1.17297e-10
1.64219e-10
3.0673e-10
4.6889e-10
6.75086e-10
9.23712e-10
2.08148e-09
8.1304e-09
3.17062e-07
8.55131e-06
6.59842e-05
8.18284e-05
5.75972e-05
2.85439e-05
1.6088e-05
1.22118e-05
1.49799e-10
5.49405e-11
1.48525e-11
5.10443e-12
2.58772e-12
2.43313e-12
3.80113e-12
8.74675e-12
1.92249e-11
3.17874e-11
3.00349e-11
1.69341e-11
1.76631e-11
3.58431e-11
9.92707e-11
6.46613e-09
6.20897e-08
7.15747e-08
1.69581e-07
3.79161e-07
8.26185e-07
1.34764e-06
1.46509e-12
1.14386e-11
3.93007e-12
1.22396e-12
7.2193e-13
4.13514e-13
5.42205e-13
6.87655e-13
1.04587e-12
1.56426e-12
2.04418e-12
2.53513e-12
3.22683e-12
4.30073e-12
5.58205e-12
7.5468e-12
1.19966e-11
8.03762e-11
4.76189e-10
2.51748e-09
9.7564e-09
1.64284e-08
7.44957e-13
3.85732e-12
2.76693e-12
7.05885e-13
3.44758e-13
8.70257e-14
3.61689e-14
2.58937e-14
1.51791e-13
1.0004e-12
1.52155e-12
1.77072e-12
1.9707e-12
3.05933e-12
4.8009e-12
8.04763e-12
1.47656e-11
1.06767e-11
4.54295e-12
8.05417e-13
8.66799e-13
1.68735e-12
4.42842e-13
1.16033e-12
1.23954e-12
3.71838e-13
1.225e-13
3.18218e-14
7.64344e-15
1.34413e-14
2.03512e-13
4.10844e-13
5.2482e-13
2.74868e-14
3.39331e-14
1.30805e-13
4.91963e-13
1.17937e-12
1.84904e-12
1.14846e-12
1.3694e-12
4.61313e-13
2.5377e-13
1.79525e-13
1.72993e-13
2.30161e-13
1.48945e-13
7.97026e-14
1.15604e-14
1.56679e-15
1.11729e-15
1.37901e-14
1.32382e-13
1.27708e-13
4.67336e-14
1.3554e-14
2.46322e-14
3.42537e-14
7.28539e-15
3.60287e-15
2.2418e-15
1.71912e-15
2.0814e-15
3.28945e-15
5.88123e-15
1.27479e-14
9.65226e-14
6.54017e-14
2.78109e-14
4.22521e-15
1.90377e-15
4.50562e-17
8.12292e-17
1.0033e-15
1.54824e-14
6.69785e-14
5.16306e-14
1.97651e-14
7.58568e-15
2.11243e-15
3.76574e-16
5.81415e-17
1.55022e-17
2.78801e-17
6.94883e-17
2.18077e-16
4.67029e-16
1.2128e-15
9.97003e-15
1.29203e-13
1.873e-14
3.98437e-15
3.36047e-16
2.21462e-17
1.38606e-18
1.92614e-17
6.57867e-16
1.12558e-14
2.61889e-14
1.85171e-14
7.59552e-15
2.45263e-15
5.33248e-16
7.10566e-17
7.1974e-18
6.86299e-18
2.96288e-17
1.11154e-16
3.2725e-16
8.09389e-16
2.183e-15
1.02765e-14
9.9401e-14
3.64782e-15
5.00979e-16
3.04388e-17
1.06563e-18
2.3785e-20
9.21742e-19
1.02012e-16
1.89297e-15
5.81139e-15
3.82942e-15
1.4081e-15
3.07895e-16
5.27098e-17
7.47565e-18
2.08527e-18
1.08299e-17
5.94652e-17
2.49247e-16
8.71681e-16
3.0755e-15
1.28694e-14
6.28748e-14
3.42141e-13
4.45376e-16
4.41909e-17
2.26175e-18
7.82584e-20
1.94931e-21
3.65437e-23
7.19207e-19
4.50591e-17
4.11253e-16
4.55605e-16
1.56052e-16
1.74812e-17
9.25355e-19
2.63929e-19
2.48757e-18
1.80319e-17
9.38287e-17
4.06077e-16
1.58155e-15
6.07091e-15
2.4685e-14
1.06542e-13
4.74051e-13
3.43198e-17
2.44541e-18
9.31734e-20
2.28147e-21
3.439e-23
2.71173e-25
3.18197e-21
6.43259e-19
1.10481e-17
2.75916e-17
9.414e-18
5.8112e-19
2.89027e-20
2.68983e-19
2.73368e-18
1.83409e-17
8.64822e-17
3.41011e-16
1.23566e-15
4.33354e-15
1.57478e-14
6.17424e-14
2.61353e-13
1.73099e-18
8.5108e-20
2.44207e-21
4.51612e-23
5.10029e-25
4.01976e-27
1.6089e-23
6.88887e-21
1.87628e-19
8.85639e-19
3.03827e-19
1.46501e-20
1.6874e-20
1.46836e-19
1.14415e-18
6.75853e-18
2.95125e-17
1.15822e-16
4.31331e-16
1.55875e-15
5.66853e-15
2.19496e-14
9.2096e-14
6.16962e-20
2.01141e-21
4.45616e-23
6.51531e-25
5.97338e-27
4.4031e-28
8.69521e-26
5.79256e-23
2.23911e-21
1.76695e-20
5.92838e-21
9.62054e-22
5.49792e-21
3.2194e-20
1.52175e-19
6.86039e-19
3.31144e-18
1.45105e-17
6.21945e-17
2.57042e-16
1.02337e-15
4.34296e-15
2.0106e-14
1.63781e-21
3.52959e-23
6.2649e-25
7.54814e-27
6.59551e-29
1.36855e-28
2.22601e-27
4.1172e-25
2.02578e-23
2.35629e-22
9.66637e-23
1.70115e-22
8.96638e-22
4.21695e-21
1.6533e-20
6.13262e-20
2.89242e-19
1.37892e-18
6.18059e-18
2.75152e-17
1.16315e-16
5.42893e-16
2.93241e-15
3.41043e-23
4.82677e-25
7.00868e-27
7.20419e-29
1.8846e-30
2.56036e-29
3.71087e-28
6.66648e-27
1.87302e-25
2.58634e-24
4.07206e-24
2.0037e-23
9.40681e-23
3.88467e-22
1.36896e-21
5.73674e-21
)
;

boundaryField
{
    leftWall
    {
        type            zeroGradient;
    }
    rightWall
    {
        type            zeroGradient;
    }
    lowerWall
    {
        type            zeroGradient;
    }
    atmosphere
    {
        type            inletOutlet;
        inletValue      nonuniform 0();
        value           nonuniform 0();
    }
    defaultFaces
    {
        type            empty;
    }
    procBoundary0to1
    {
        type            processor;
        value           nonuniform List<scalar> 
26
(
0.99999
0.999987
0.999988
0.999988
0.999988
0.999986
0.999984
0.999795
0.793809
0.110295
0.000260232
1.03793e-05
1.40835e-06
9.52386e-09
3.6799e-12
4.17686e-13
4.17686e-13
9.81228e-13
1.38495e-12
1.1211e-12
2.08338e-12
2.21629e-12
1.18984e-12
4.15363e-13
9.85356e-14
1.676e-14
)
;
    }
    procBoundary0to2
    {
        type            processor;
        value           nonuniform List<scalar> 
24
(
2.67649e-20
1.11356e-19
4.65063e-19
2.07037e-18
9.26978e-18
5.03978e-17
3.50768e-16
5.75709e-25
5.3145e-27
6.35753e-29
5.6898e-31
1.56962e-31
3.12616e-30
4.84778e-29
6.03135e-28
6.564e-27
5.89193e-26
2.92525e-25
1.59281e-24
8.18305e-24
3.91834e-23
2.12417e-22
2.67649e-20
1.12206e-21
)
;
    }
}


// ************************************************************************* //
