/*--------------------------------*- C++ -*----------------------------------*\
| =========                 |                                                 |
| \\      /  F ield         | OpenFOAM: The Open Source CFD Toolbox           |
|  \\    /   O peration     | Version:  2.4.0                                 |
|   \\  /    A nd           | Web:      www.OpenFOAM.org                      |
|    \\/     M anipulation  |                                                 |
\*---------------------------------------------------------------------------*/
FoamFile
{
    version     2.0;
    format      ascii;
    class       volScalarField;
    location    "0.65";
    object      alpha.oil;
}
// * * * * * * * * * * * * * * * * * * * * * * * * * * * * * * * * * * * * * //

dimensions      [0 0 0 0 0 0 0];

internalField   nonuniform List<scalar> 
575
(
6.88354e-18
4.00898e-17
5.5846e-17
2.31164e-16
3.14507e-16
2.80577e-16
9.63388e-16
1.08299e-15
2.15734e-15
2.33501e-15
2.31364e-14
2.75169e-13
1.85354e-12
8.13484e-12
2.62504e-11
8.68791e-11
2.66261e-10
9.47248e-10
2.45501e-09
6.46806e-09
4.32786e-08
1.9768e-06
9.39568e-17
5.21826e-16
1.08025e-15
2.65487e-15
3.76515e-15
4.36925e-15
2.48129e-14
2.54219e-14
4.42243e-14
3.54434e-14
5.8145e-14
4.89754e-13
3.32642e-12
1.28815e-11
3.62152e-11
1.05817e-10
4.07983e-10
1.9333e-09
5.49607e-09
1.20657e-08
4.50528e-08
2.14827e-06
6.21495e-16
3.37053e-15
1.01551e-14
1.60119e-14
2.32746e-14
3.51885e-14
3.17334e-13
3.14121e-13
5.18668e-13
3.96229e-13
2.13119e-13
4.34941e-13
2.35453e-12
9.8388e-12
3.09404e-11
9.88769e-11
5.47469e-10
3.07746e-09
1.08441e-08
2.25632e-08
3.81953e-08
5.51014e-07
2.68799e-15
1.50288e-14
5.7364e-14
6.91003e-14
1.01032e-13
1.98688e-13
2.61514e-12
2.52585e-12
4.80458e-12
4.77724e-12
2.04016e-12
1.05678e-12
2.02929e-12
7.83309e-12
2.70121e-11
9.75406e-11
5.79059e-10
4.04163e-09
1.94863e-08
4.92639e-08
9.32836e-08
5.77293e-07
8.76426e-15
5.39603e-14
2.33154e-13
2.34186e-13
3.40951e-13
1.03187e-12
1.68789e-11
1.51758e-11
2.97484e-11
4.53865e-11
1.41998e-11
4.50997e-12
2.93386e-12
9.49623e-12
3.23085e-11
1.32102e-10
7.6478e-10
6.80536e-09
3.11069e-08
1.0567e-07
2.6593e-07
1.05864e-06
2.4658e-14
1.74752e-13
8.51105e-13
6.20339e-13
1.16071e-12
6.67224e-12
5.73946e-10
3.71763e-10
5.11702e-10
3.34757e-10
2.76459e-11
7.17605e-12
5.74869e-12
3.49826e-10
4.44008e-09
4.5904e-09
8.00608e-09
2.73948e-08
1.37149e-07
4.63811e-07
9.2717e-07
2.74805e-06
6.45435e-14
5.72082e-13
3.30345e-12
1.22638e-12
1.07478e-11
4.63109e-09
6.29697e-09
3.70071e-09
2.40802e-08
2.03136e-08
2.39252e-09
1.50356e-11
3.52182e-11
1.33728e-08
2.4243e-07
2.91585e-07
2.57823e-07
4.63152e-07
1.17135e-06
2.48211e-06
2.91897e-06
3.64259e-06
1.59152e-13
1.89758e-12
7.67404e-12
1.44633e-12
1.67225e-12
4.03069e-07
8.48146e-08
1.18337e-08
1.47664e-07
2.76922e-07
1.38783e-07
1.58935e-11
3.45122e-10
6.53521e-08
1.16285e-06
3.56837e-06
4.34809e-06
1.11098e-05
1.92532e-05
1.66061e-05
1.48265e-05
3.43314e-06
4.19019e-13
6.25071e-12
1.70199e-10
2.43772e-08
8.52109e-07
6.47541e-06
2.62728e-05
4.11555e-05
1.92146e-05
8.15589e-06
2.4077e-06
1.19387e-06
3.71783e-07
1.24615e-07
6.98738e-07
1.08888e-05
7.0584e-05
0.000156785
0.000287471
0.000532809
0.000565345
0.000417664
3.10776e-12
1.39573e-09
1.2034e-07
1.24352e-06
6.40375e-05
0.00271898
0.00608928
0.00585208
0.00323234
0.00181173
0.000790768
0.000341244
7.84672e-05
6.79785e-06
1.15994e-06
2.82131e-06
1.48618e-05
6.28387e-05
0.000413634
0.00151174
0.00275302
0.00656328
2.17318e-10
4.36879e-08
1.4757e-05
0.00161459
0.0164634
0.110476
0.155058
0.127265
0.0790219
0.0491337
0.0255556
0.0117886
0.00263519
0.000519598
0.000154249
7.116e-05
2.47099e-05
7.55193e-05
0.000599773
0.00314982
0.0121176
0.0327667
3.14079e-09
1.44513e-05
0.00543393
0.095527
0.308181
0.622223
0.705977
0.679398
0.606918
0.545669
0.441207
0.311867
0.136534
0.0438998
0.0131628
0.00477052
0.00423708
0.0207919
0.0454206
0.104975
0.187691
0.275349
1.83331e-08
0.000387108
0.0667152
0.497654
0.846822
0.880024
0.880259
0.893435
0.893889
0.893435
0.893592
0.889078
0.807759
0.630534
0.501456
0.397037
0.294789
0.378687
0.407857
0.442488
0.496014
0.496466
6.03252e-09
0.000216643
0.0227235
0.117785
0.152072
0.0487154
0.0833447
0.262036
0.44433
0.563696
0.610994
0.665173
0.783765
0.858533
0.857338
0.841299
0.753323
0.618309
0.501553
0.362404
0.217931
0.0894328
2.05459e-08
3.45586e-05
0.000716438
0.00177365
0.00138408
8.2317e-05
8.90251e-07
6.55114e-08
1.3208e-06
3.11857e-05
0.00010625
0.00199631
0.015363
0.0444705
0.0581006
0.0599565
0.028454
0.00779385
0.00171557
0.000119424
5.14724e-06
1.26226e-06
9.57956e-08
4.78114e-07
1.52207e-06
2.2297e-06
8.53742e-07
8.54851e-08
1.75204e-08
5.9326e-08
2.72057e-08
2.72251e-08
2.75233e-08
2.75434e-08
2.78407e-08
4.12398e-08
8.48453e-08
1.20681e-07
2.99827e-07
1.78502e-07
1.37182e-07
3.31514e-07
1.03489e-07
6.5522e-08
5.09663e-08
5.0838e-08
5.49159e-08
1.14793e-07
2.78443e-08
5.33065e-09
1.29166e-08
4.38586e-08
4.40177e-08
3.04087e-08
2.77302e-08
2.78402e-08
2.9627e-08
4.8849e-08
1.14038e-07
1.53568e-07
1.92345e-07
1.61694e-07
1.38823e-07
5.79878e-08
5.79835e-08
5.8939e-08
4.09256e-08
1.85773e-08
8.8514e-09
1.19346e-08
8.56708e-09
1.5846e-09
3.8895e-09
1.82322e-08
6.36248e-08
6.43762e-08
3.79645e-08
3.08648e-08
3.51717e-08
5.83168e-08
1.55541e-07
2.62424e-07
4.05877e-07
4.05656e-07
4.05877e-07
2.05222e-07
7.0124e-08
5.99843e-08
5.92674e-08
4.85293e-08
7.35592e-09
2.39795e-09
1.80123e-09
7.28259e-10
1.92393e-10
2.23643e-09
9.84196e-09
5.19061e-08
4.25639e-08
4.42106e-08
4.92021e-08
5.96671e-08
7.98366e-08
2.56351e-07
4.03309e-07
4.02996e-07
3.25814e-07
2.6105e-07
1.74478e-07
9.99385e-08
8.60915e-08
7.85866e-08
6.63e-08
1.83851e-09
4.7983e-10
1.51931e-10
4.39582e-11
3.66281e-11
3.72444e-10
3.48371e-09
1.79537e-08
3.12141e-08
7.08913e-08
9.66123e-08
6.99099e-08
5.0953e-08
1.15414e-07
2.45833e-07
1.09631e-07
3.8923e-08
3.13085e-08
4.05574e-08
6.84978e-08
8.72138e-08
6.67738e-08
4.39358e-08
2.63571e-10
6.67904e-11
1.32878e-11
1.17202e-11
1.42439e-11
2.19186e-11
8.0635e-11
8.77576e-10
5.79932e-09
5.02672e-08
4.42522e-08
1.2428e-08
3.87864e-08
3.73142e-08
3.8496e-08
4.3708e-08
3.46269e-08
3.07006e-08
2.26711e-08
3.13452e-08
3.92068e-08
2.78349e-08
1.37507e-08
1.87146e-11
3.808e-12
2.20604e-12
4.16467e-12
8.39838e-12
1.4561e-11
3.05926e-11
6.24862e-11
1.62893e-10
3.89179e-09
2.00946e-09
4.61982e-09
1.95251e-08
2.37133e-08
4.24209e-08
8.76337e-08
6.77734e-08
3.61965e-08
2.14093e-08
1.19185e-08
1.04446e-08
6.68235e-09
5.52083e-09
1.12763e-12
2.8862e-13
4.75012e-13
2.06094e-12
5.20167e-12
9.44746e-12
2.21731e-11
6.02199e-11
1.38291e-10
1.91817e-10
4.90944e-10
7.15095e-09
9.75049e-09
3.32612e-08
1.07802e-07
1.25169e-07
8.5928e-08
5.01061e-08
1.87697e-08
7.30811e-09
3.58689e-09
2.34709e-09
2.41859e-09
4.84215e-14
1.99097e-14
1.51765e-13
9.75987e-13
2.64633e-12
5.11981e-12
1.34686e-11
4.1432e-11
1.06538e-10
2.12659e-10
4.75257e-10
1.41339e-09
8.59261e-09
4.38447e-08
1.21719e-07
1.26095e-07
9.57558e-08
4.81355e-08
2.51843e-08
8.37928e-09
2.71006e-09
1.48233e-09
1.23841e-09
1.7311e-15
4.65289e-15
6.3571e-14
3.78948e-13
1.04387e-12
2.33803e-12
7.34769e-12
2.50532e-11
6.83349e-11
1.66327e-10
2.29601e-10
5.86457e-10
7.19998e-09
4.27139e-08
7.83758e-08
1.04112e-07
6.652e-08
4.49719e-08
2.37542e-08
9.50048e-09
3.27829e-09
1.08288e-09
5.86257e-10
1.16272e-16
1.90525e-15
2.19899e-14
1.12995e-13
3.2535e-13
9.3171e-13
3.68097e-12
1.38332e-11
4.02099e-11
1.05585e-10
1.4479e-10
4.35431e-10
7.6553e-09
2.34832e-08
4.67871e-08
3.62872e-08
)
;

boundaryField
{
    leftWall
    {
        type            zeroGradient;
    }
    rightWall
    {
        type            zeroGradient;
    }
    lowerWall
    {
        type            zeroGradient;
    }
    atmosphere
    {
        type            inletOutlet;
        inletValue      nonuniform 0();
        value           nonuniform 0();
    }
    defaultFaces
    {
        type            empty;
    }
    procBoundary0to1
    {
        type            processor;
        value           nonuniform List<scalar> 
26
(
9.57441e-06
1.29502e-05
1.16519e-05
1.13382e-05
1.18558e-05
1.38429e-05
1.47547e-05
3.43279e-06
0.000397007
0.0148635
0.0677741
0.353149
0.45009
0.0101957
2.40132e-06
6.0687e-08
6.0687e-08
3.80638e-08
4.39198e-08
5.4713e-08
3.01389e-08
1.2838e-08
7.19145e-09
3.78486e-09
1.39062e-09
4.91516e-10
)
;
    }
    procBoundary0to2
    {
        type            processor;
        value           nonuniform List<scalar> 
24
(
5.1875e-08
3.41713e-08
1.64159e-08
8.72643e-09
2.96325e-09
8.52391e-10
2.97082e-10
2.91255e-17
5.07528e-16
4.9725e-15
2.44595e-14
8.44915e-14
3.53114e-13
1.72687e-12
6.98663e-12
2.14376e-11
5.18664e-11
7.84316e-11
1.45235e-10
3.18031e-09
1.47082e-08
1.39593e-08
5.1875e-08
3.17981e-08
)
;
    }
}


// ************************************************************************* //
