/*--------------------------------*- C++ -*----------------------------------*\
| =========                 |                                                 |
| \\      /  F ield         | OpenFOAM: The Open Source CFD Toolbox           |
|  \\    /   O peration     | Version:  2.4.0                                 |
|   \\  /    A nd           | Web:      www.OpenFOAM.org                      |
|    \\/     M anipulation  |                                                 |
\*---------------------------------------------------------------------------*/
FoamFile
{
    version     2.0;
    format      ascii;
    class       volScalarField;
    location    "0.65";
    object      p;
}
// * * * * * * * * * * * * * * * * * * * * * * * * * * * * * * * * * * * * * //

dimensions      [1 -1 -2 0 0 0 0];

internalField   nonuniform List<scalar> 
575
(
3519.84
3519.09
3508.46
3514.24
3506.23
3506.24
3527.17
3565.06
3644.7
3786.11
3985.66
4269.8
4709.36
5274.83
5884.97
6567.81
6974.09
7285.95
7504.31
7663.75
7773.87
7839.21
2678.82
2677.15
2669.41
2672.13
2666.12
2666.49
2678.57
2700.66
2745.91
2846.95
3043.21
3362.32
3868.47
4457.3
5092.76
5773.97
6178.26
6487.14
6714.41
6878.63
6985.24
7045.45
1957.78
1954.62
1947.87
1945.28
1933.4
1932.38
1953.84
1997.36
2089.95
2243.59
2455.57
2646.59
3027.22
3604.93
4326
5011.13
5440.22
5751.4
5959.79
6104.4
6202.79
6259.29
1033.94
1029.72
1032.4
1021.5
1015.92
1017.97
1019.58
1032.94
1054.97
1090.29
1137.87
1481.55
2125.34
2798.71
3572.42
4233.94
4676.85
4983.47
5214.9
5334.48
5423.86
5480.3
777.492
777.274
776.492
774.816
774.659
775.039
773.663
774.776
779.562
791.67
811.333
890.706
1052.66
1706.26
2819.76
3502.63
3959.87
4250.67
4415.63
4568.85
4649.19
4701.11
845.522
844.967
841.932
840.559
841.305
843.293
851.864
866.732
887.938
901.633
909.022
880.27
871.131
964.12
1947.5
2779.17
3266.93
3577.92
3745.03
3821.03
3885.04
3926.31
690.275
690.223
690.635
686.954
682.566
680.378
674.159
673.153
680.573
697.078
720.371
766.692
826.449
811.803
1174.82
2094.8
2581.27
2788.63
3005.74
3077.52
3120.56
3153.8
696.39
694.167
687.339
686.49
686.357
685.74
702.819
725.184
737.036
744.501
743.334
730.239
752.782
766.66
765.194
1352.76
1962.44
2267.42
2338.68
2341.08
2341.98
2362.01
532.02
534.858
539.106
537.959
529.518
520.097
500.166
488.774
498.699
518.758
548.892
587.597
615.06
620.635
537.475
459.96
559.789
692.879
849.022
960.598
1066.92
1060.85
466.256
459.944
447.717
433.875
422.718
417.689
429.518
448.123
451.788
456.591
456.41
457.981
460.551
454.593
394.989
302.477
229.817
175.518
163.302
197.908
231.074
231.48
290.321
291.267
292.741
282.805
259.119
237.609
229.408
232.784
261.305
280.641
299.233
315.546
326.877
331.597
313.612
285.799
262.467
239.242
208.298
208.102
218.715
221.286
226.346
221.826
229.156
212.136
173.566
143.112
131.87
133.51
144.494
150.668
161.316
172.046
182.75
193.163
193.56
182.747
166.57
149.586
134.973
126.597
111.891
93.9556
34.2282
37.2517
44.3985
41.1622
31.7341
21.7115
25.8477
41.5907
58.2162
72.3011
79.8855
85.9322
93.7428
106.35
110.748
99.5676
86.7996
62.4638
47.2827
37.1636
29.6591
23.3328
5.98126
5.69332
5.89386
6.15393
5.69497
4.83155
5.09227
5.53703
5.94215
5.30502
6.76732
10.8266
17.1896
23.0726
24.1316
22.4493
18.0379
12.4713
8.64515
6.07774
4.27475
4.5518
4.84061
4.77175
4.80525
4.58966
4.58801
4.72927
4.694
4.63377
4.70273
4.69069
4.35932
4.18149
4.19607
4.24284
4.10668
4.05161
4.09964
4.31167
4.58063
4.90218
5.23051
5.30479
5.0623
5.01795
5.08355
5.01345
4.94493
4.83233
4.86278
4.98767
5.0846
5.1721
5.21403
5.41396
5.47837
5.56141
5.67917
5.73968
5.84851
5.84598
5.72957
5.47711
5.19707
5.2223
4.80644
4.71875
4.79271
4.76189
4.69292
4.63823
4.57641
4.56075
4.61698
4.54561
4.55871
4.49076
4.62738
4.71348
4.74346
4.69943
4.5914
4.51859
4.50867
4.60628
4.75066
4.91961
5.04808
4.61871
4.57656
4.6292
4.61474
4.59315
4.5701
4.52991
4.53494
4.57712
4.59332
4.61949
4.62404
4.66921
4.68626
4.70441
4.75939
4.84145
4.93494
5.00602
4.99799
4.94744
4.91845
4.90998
4.48786
4.47081
4.48378
4.47995
4.47021
4.45658
4.42313
4.45087
4.47103
4.48136
4.48917
4.49121
4.53123
4.5533
4.57562
4.61039
4.63054
4.61298
4.58633
4.57191
4.60872
4.6483
4.67342
4.354
4.34547
4.34096
4.33232
4.32569
4.32582
4.30849
4.33588
4.33432
4.34838
4.37008
4.38697
4.40122
4.41229
4.42202
4.43127
4.43842
4.43848
4.44308
4.46473
4.47057
4.47724
4.48712
4.21355
4.20925
4.2055
4.20195
4.19878
4.19421
4.18744
4.1963
4.20292
4.21303
4.22989
4.24317
4.25849
4.26872
4.28159
4.29695
4.31197
4.3235
4.32806
4.32052
4.32313
4.32558
4.32777
4.07008
4.06847
4.06409
4.06087
4.05862
4.05714
4.0556
4.06168
4.06629
4.07424
4.08588
4.09563
4.10293
4.11264
4.12119
4.12837
4.13265
4.13297
4.13734
4.14899
4.15627
4.16166
4.16504
3.92627
3.9255
3.92264
3.92071
3.91917
3.91826
3.9183
3.92285
3.9269
3.93322
3.94154
3.94935
3.95659
3.96416
3.97099
3.97757
3.98382
3.99022
3.99366
3.99672
3.99873
4.00005
4.0006
3.78249
3.78194
3.78026
3.77913
3.77834
3.77819
3.77914
3.78208
3.78565
3.79083
3.79688
3.80295
3.80891
3.81511
3.82136
3.82692
3.83181
3.83571
3.83725
3.83859
3.83895
3.83833
3.83665
3.63885
3.63851
3.6376
3.637
3.63669
3.63697
3.63806
3.64031
3.64326
3.64729
3.65179
3.65655
3.6612
3.66584
3.67019
3.67405
3.67717
3.67934
3.68019
3.68005
3.67888
3.67652
3.67276
3.4954
3.49522
3.49476
3.49449
3.49447
3.49493
3.49595
3.4977
3.50002
3.5031
3.50644
3.51003
3.51349
3.51686
3.51982
3.52226
)
;

boundaryField
{
    leftWall
    {
        type            fixedFluxPressure;
        gradient        uniform 0;
        value           nonuniform List<scalar> 
26
(
3519.84
2678.82
1957.78
1033.94
777.492
845.522
690.275
696.39
532.02
466.256
290.321
226.346
34.2282
5.98126
4.84061
5.0623
4.80644
4.61871
4.48786
4.354
4.21355
4.07008
3.92627
3.78249
3.63885
3.4954
)
;
    }
    rightWall
    {
        type            fixedFluxPressure;
        gradient        nonuniform 0();
        value           nonuniform 0();
    }
    lowerWall
    {
        type            fixedFluxPressure;
        gradient        nonuniform List<scalar> 
22
(
132719
132719
132719
132719
132719
132719
132719
132719
132719
132719
132719
132719
132719
132719
132719
132719
132719
132719
132719
132719
132719
132719
)
;
        value           nonuniform List<scalar> 
22
(
3917.99
3917.24
3906.61
3912.39
3904.38
3904.39
3925.32
3963.21
4042.85
4184.26
4383.81
4667.95
5107.51
5672.98
6283.12
6965.96
7372.24
7684.1
7902.46
8061.9
8172.02
8237.35
)
;
    }
    atmosphere
    {
        type            totalPressure;
        U               U.air;
        phi             phi.air;
        rho             rho;
        psi             none;
        gamma           1;
        p0              nonuniform 0();
        value           nonuniform 0();
    }
    defaultFaces
    {
        type            empty;
    }
    procBoundary0to1
    {
        type            processor;
        value           nonuniform List<scalar> 
26
(
7867.21
7073.17
6284.16
5501.32
4723.08
3948.89
3180.8
2420.38
1120.31
196.881
210.363
66.9739
11.4415
4.61521
5.57131
5.38432
5.38432
5.08809
4.87438
4.66579
4.48516
4.32595
4.16483
3.99971
3.83421
3.66851
)
;
    }
    procBoundary0to2
    {
        type            processor;
        value           nonuniform List<scalar> 
24
(
3.52396
3.52462
3.52424
3.5227
3.51983
3.51568
3.50992
3.35207
3.35197
3.35176
3.35169
3.35182
3.35229
3.35315
3.35448
3.35623
3.3585
3.3609
3.36344
3.36579
3.36795
3.36965
3.52396
3.37086
)
;
    }
}


// ************************************************************************* //
