/*--------------------------------*- C++ -*----------------------------------*\
| =========                 |                                                 |
| \\      /  F ield         | OpenFOAM: The Open Source CFD Toolbox           |
|  \\    /   O peration     | Version:  2.4.0                                 |
|   \\  /    A nd           | Web:      www.OpenFOAM.org                      |
|    \\/     M anipulation  |                                                 |
\*---------------------------------------------------------------------------*/
FoamFile
{
    version     2.0;
    format      ascii;
    class       surfaceScalarField;
    location    "0.65";
    object      phi.oil;
}
// * * * * * * * * * * * * * * * * * * * * * * * * * * * * * * * * * * * * * //

dimensions      [0 3 -1 0 0 0 0];

internalField   nonuniform List<scalar> 
1101
(
2.12208e-06
-2.12212e-06
4.51308e-06
-2.39103e-06
6.02434e-06
-1.51129e-06
8.36786e-06
-2.34355e-06
1.0808e-05
-2.44018e-06
1.2376e-05
-1.56796e-06
1.38193e-05
-1.44333e-06
1.47933e-05
-9.73949e-07
1.60658e-05
-1.27255e-06
1.70815e-05
-1.01568e-06
1.65826e-05
4.99045e-07
1.41865e-05
2.39633e-06
9.76219e-06
4.42418e-06
4.70742e-06
5.05443e-06
1.56349e-07
4.55088e-06
-2.86028e-06
3.01657e-06
-5.23459e-06
2.37439e-06
-6.58242e-06
1.34855e-06
-7.2287e-06
6.48354e-07
-5.92875e-06
-1.29508e-06
-3.84239e-06
-2.06119e-06
-4.62913e-08
2.13638e-06
-4.18678e-06
4.44974e-06
-4.62787e-06
6.16666e-06
-3.16538e-06
8.4642e-06
-4.56264e-06
1.07596e-05
-4.65197e-06
1.24676e-05
-3.20537e-06
1.40922e-05
-3.00331e-06
1.54342e-05
-2.26279e-06
1.70423e-05
-2.8371e-06
1.75882e-05
-1.54482e-06
1.63031e-05
1.78453e-06
1.34403e-05
5.25929e-06
9.49744e-06
8.36714e-06
4.39157e-06
1.01604e-05
-7.43653e-08
9.01679e-06
-2.98914e-06
5.93131e-06
-4.98928e-06
4.37451e-06
-6.40857e-06
2.76822e-06
-6.71766e-06
9.59428e-07
-5.67068e-06
-2.33807e-06
-3.74334e-06
-3.98301e-06
-1.61131e-06
2.14137e-06
-7.23859e-06
4.1178e-06
-7.57549e-06
6.54536e-06
-6.41407e-06
8.51798e-06
-7.55796e-06
1.02606e-05
-7.53012e-06
1.22617e-05
-6.22667e-06
1.39757e-05
-5.66654e-06
1.55625e-05
-4.63541e-06
1.6145e-05
-3.98226e-06
1.59933e-05
-1.49248e-06
1.67761e-05
1.34669e-06
1.55701e-05
6.65195e-06
1.19269e-05
1.20201e-05
6.3323e-06
1.57548e-05
6.11924e-07
1.4737e-05
-3.73092e-06
1.0274e-05
-6.36053e-06
7.00402e-06
-7.47384e-06
3.882e-06
-7.1884e-06
6.77367e-07
-5.11766e-06
-4.39948e-06
-2.49002e-06
-6.59644e-06
-4.13123e-06
2.05756e-06
-2.48889e-05
3.61971e-06
-2.48889e-05
6.54808e-06
-2.48277e-05
8.11332e-06
-2.50471e-05
9.45141e-06
-2.51349e-05
1.18543e-05
-2.49609e-05
1.39313e-05
-2.43722e-05
1.60124e-05
-2.32782e-05
1.68834e-05
-2.12156e-05
1.76974e-05
-1.7229e-05
1.64748e-05
-8.78019e-06
1.27599e-05
3.88123e-06
9.41269e-06
1.35611e-05
4.07202e-06
2.13424e-05
-7.96685e-07
1.96246e-05
-4.33764e-06
1.3815e-05
-6.42339e-06
9.08973e-06
-7.5502e-06
5.00932e-06
-7.09823e-06
2.31233e-07
-5.60129e-06
-5.87622e-06
-3.03351e-06
-9.10389e-06
-6.70189e-06
1.31116e-06
-1.43446e-05
2.40681e-06
-1.37982e-05
4.48743e-06
-1.51207e-05
5.59883e-06
-1.35272e-05
6.10479e-06
-1.24652e-05
7.77892e-06
-1.32679e-05
9.01328e-06
-1.17558e-05
9.56243e-06
-1.04806e-05
9.80999e-06
-8.90233e-06
1.06327e-05
-8.08307e-06
1.13183e-05
-7.82961e-06
1.21581e-05
-1.30189e-05
8.16324e-06
1.88665e-06
1.34305e-06
2.11484e-05
-3.0778e-06
2.44479e-05
-6.01464e-06
1.67695e-05
-7.24887e-06
1.03254e-05
-7.54702e-06
5.31201e-06
-6.96094e-06
-3.31744e-07
-6.10613e-06
-6.64124e-06
-4.16896e-06
-1.08667e-05
-9.81472e-06
-3.36977e-07
-9.3633e-06
-2.84547e-07
-9.29505e-06
-7.74104e-07
-1.01256e-05
-6.36148e-07
-9.32038e-06
-3.31505e-07
-8.54982e-06
-5.14768e-07
-9.12992e-06
-1.04275e-06
-7.36157e-06
-1.68169e-06
-5.74044e-06
-1.49445e-06
-4.57338e-06
-3.62822e-07
-3.67235e-06
3.51906e-06
-1.28459e-06
7.79904e-06
4.72679e-06
5.19482e-06
9.60969e-06
-4.44468e-06
1.97031e-05
-9.00523e-06
2.48372e-05
-1.02038e-05
1.82097e-05
-9.63125e-06
9.80879e-06
-8.59825e-06
4.37668e-06
-6.70631e-06
-2.02614e-06
-6.26743e-06
-6.71785e-06
-5.47289e-06
-1.12906e-05
-1.2764e-05
-7.492e-07
-8.61382e-06
-1.25997e-06
-8.78384e-06
-1.09379e-06
-1.02914e-05
-1.0056e-06
-9.40818e-06
-6.28486e-07
-8.92657e-06
4.27585e-07
-1.02324e-05
2.27603e-07
-7.17231e-06
-9.83946e-07
-4.53082e-06
-2.89614e-06
-2.68808e-06
-5.96357e-06
-6.54322e-07
-1.09786e-05
3.71292e-06
-1.19856e-05
6.95528e-06
-6.40904e-06
1.94071e-05
-1.08939e-05
2.65584e-05
-1.7312e-05
2.2306e-05
-1.67546e-05
1.73566e-05
-1.34917e-05
6.94423e-06
-1.05261e-05
2.08022e-06
-7.9182e-06
-3.36984e-06
-7.11931e-06
-6.64669e-06
-5.80947e-06
-1.18876e-05
-1.64582e-05
-7.10234e-07
-7.9033e-06
-9.34296e-07
-8.55953e-06
-1.49058e-06
-9.73483e-06
-1.09545e-06
-9.80209e-06
-7.03244e-07
-9.27372e-06
-1.14336e-06
-9.30171e-06
-1.84358e-06
-4.80883e-06
-2.40114e-06
-1.2153e-06
-2.62063e-06
-4.55182e-07
-2.70756e-06
5.04116e-07
-2.94492e-06
4.20685e-06
-7.8599e-06
1.1869e-05
-1.45563e-05
2.55061e-05
-2.35111e-05
3.78476e-05
-2.73705e-05
2.20046e-05
-2.78107e-05
1.32944e-05
-2.38925e-05
5.11488e-06
-1.71976e-05
8.56791e-07
-1.22053e-05
-8.03145e-07
-8.58808e-06
8.66812e-07
-5.36717e-06
-4.41471e-06
-9.93607e-06
-1.96615e-06
-5.93671e-06
-3.07184e-06
-7.45331e-06
-2.4379e-06
-1.03612e-05
-2.88423e-07
-1.18877e-05
1.62164e-06
-8.58356e-06
4.71069e-06
-7.04738e-07
5.1017e-06
3.09512e-06
1.0329e-06
5.65851e-06
-6.01069e-06
8.53986e-06
-1.51027e-05
1.08935e-05
-2.2889e-05
1.3144e-05
-2.38794e-05
1.47039e-05
-2.12787e-05
2.29875e-05
-2.43341e-05
4.10511e-05
-3.61215e-05
3.59609e-05
-4.57467e-05
1.35258e-05
-4.9587e-05
-4.07132e-06
-5.01034e-05
-1.51604e-05
-4.16446e-05
-1.82064e-05
-2.73959e-05
-1.55151e-05
-8.05106e-06
-1.59479e-05
-4.37037e-07
-1.66611e-06
-4.27035e-06
-2.42403e-06
-6.69929e-06
-1.97001e-06
-1.06818e-05
1.12303e-06
-4.74994e-06
2.58759e-06
-5.18973e-06
4.93031e-06
-2.2483e-06
3.89764e-06
8.04906e-06
4.78495e-06
1.76572e-05
4.16181e-06
2.19652e-05
2.25515e-06
2.6446e-05
-6.00981e-07
2.84604e-05
-2.60651e-06
2.31241e-05
-3.74281e-06
2.30372e-05
6.04256e-06
2.19342e-05
1.74402e-05
2.44677e-05
1.68121e-05
2.04308e-05
8.75202e-06
2.24853e-06
2.75157e-06
-1.09113e-05
4.10803e-06
-3.27669e-05
1.66594e-05
-4.44303e-05
3.3362e-05
-4.34909e-05
-3.51815e-05
-4.51165e-06
2.40493e-07
-9.18477e-06
-3.58015e-07
-5.24498e-06
-2.19403e-06
-2.55238e-06
-1.07269e-05
4.28635e-06
-7.04799e-06
7.23968e-06
-5.05112e-06
5.41007e-06
5.94681e-06
-2.82187e-06
1.69871e-05
-8.33578e-06
2.3643e-05
-1.15175e-05
2.71437e-05
-1.10903e-05
2.76249e-05
-8.25446e-06
2.68506e-05
-3.13885e-07
2.89816e-05
1.05233e-05
2.74358e-05
2.5727e-05
1.90311e-05
3.97434e-05
1.11232e-05
5.4854e-05
3.18949e-06
5.11514e-05
-5.82049e-06
6.52895e-05
-1.95812e-05
6.93363e-05
-3.73844e-05
7.56523e-05
-4.35283e-05
-4.64561e-05
-1.15827e-05
9.68039e-06
-1.09702e-05
-4.97334e-06
-2.06493e-05
-1.36111e-05
-1.53221e-05
-1.65349e-05
-1.85693e-05
-8.49584e-06
-2.39167e-05
-1.03278e-05
-2.48444e-05
-5.27844e-06
-2.43571e-05
6.67096e-06
-2.19687e-05
1.09022e-05
-2.1008e-05
1.63666e-05
-1.92518e-05
1.79906e-05
-1.59035e-05
1.59174e-05
-9.68328e-06
1.67951e-05
1.33464e-06
1.74332e-05
1.52473e-05
1.48795e-05
2.86875e-05
6.52395e-06
3.68405e-05
-2.42776e-06
5.3591e-05
-1.75555e-05
6.21906e-05
-2.66856e-05
6.62245e-05
-4.09159e-05
7.4642e-05
-5.18611e-05
-6.4236e-05
-6.97617e-06
-3.66222e-05
-2.14695e-05
-6.72265e-05
-4.85181e-05
-7.96246e-05
-8.83567e-05
-6.78026e-05
-0.000119152
-5.30014e-05
-0.000127284
-7.78851e-05
-0.0001201
-7.76476e-05
-0.000105259
-6.20555e-05
-8.95717e-05
-4.46847e-05
-7.46722e-05
-3.0252e-05
-6.33112e-05
-2.14633e-05
-4.93292e-05
-2.07641e-05
-3.20805e-05
-1.52128e-05
-1.47517e-05
-9.04292e-06
2.29256e-06
-1.03905e-05
1.46117e-05
-1.4627e-05
2.62614e-05
-2.30283e-05
3.52584e-05
-4.17489e-05
4.0966e-05
-5.48123e-05
4.46243e-05
-7.71482e-05
4.57851e-05
-0.000100189
-0.00012143
-3.51637e-05
-5.57529e-05
-9.8197e-05
-9.97385e-05
-0.000112149
-0.000103165
-0.000112469
-9.04836e-05
-0.000124501
-8.6537e-05
-0.000131118
-0.000112429
-0.000131226
-7.4928e-05
-0.000121099
-9.31057e-05
-0.000110362
-8.27335e-05
-0.000108628
-7.07854e-05
-9.98757e-05
-0.000103419
-8.49381e-05
-0.000114822
-6.74603e-05
-0.000104849
-5.41367e-05
-9.33905e-05
-3.94322e-05
-9.21466e-05
-2.77442e-05
-9.10741e-05
-1.74498e-05
-9.93474e-05
-6.22159e-06
-0.000118537
3.64137e-06
-0.000138636
6.78171e-06
-0.000176129
7.82973e-06
-0.000115867
-9.59456e-05
-3.70538e-05
1.71556e-05
-9.05308e-05
-3.98727e-05
-0.000106348
-6.98134e-05
-0.000108057
-6.45938e-05
-0.000101872
-4.75173e-05
-5.31155e-05
-5.12051e-05
2.9257e-05
-4.36157e-05
-1.9241e-05
-2.45643e-05
-8.33523e-05
1.93929e-06
-8.42263e-05
-1.34618e-05
-8.22129e-05
-5.06267e-05
-8.12663e-05
-8.14313e-05
-7.48153e-05
-7.11872e-05
-6.58369e-05
-6.46435e-05
-5.61503e-05
-7.79086e-05
-4.75059e-05
-8.6204e-05
-4.1284e-05
-7.0137e-05
-4.13483e-05
-7.33435e-05
-4.12107e-05
-8.31834e-05
-5.51926e-05
-0.000108505
-0.000126591
-3.97897e-05
-3.65011e-05
-4.26907e-05
6.16785e-05
-4.20908e-05
2.72217e-05
-2.49639e-05
1.48786e-05
4.17958e-06
2.44571e-05
4.58112e-05
-1.06872e-05
5.42327e-05
-4.2298e-05
2.89211e-05
-2.96276e-05
-1.57636e-06
2.31025e-05
-3.12903e-05
6.68135e-05
-3.55268e-05
4.29078e-05
-1.60377e-05
2.37012e-05
1.56571e-05
-4.22734e-05
1.14826e-05
-5.31819e-05
1.42408e-06
-3.75725e-05
-1.06024e-05
-2.57934e-05
-2.85274e-05
-2.10007e-05
-3.86051e-05
-2.02646e-05
-4.66316e-05
-1.54566e-05
-4.09906e-05
-1.29196e-05
-2.10674e-05
-2.40576e-05
-2.13283e-05
-1.84256e-05
-9.53361e-06
-1.57335e-05
7.7877e-05
-8.51038e-06
2.32441e-05
8.97452e-06
1.05392e-05
4.05859e-05
1.13824e-05
4.92851e-05
-1.37144e-05
4.5862e-05
-3.77684e-05
3.22509e-05
-1.60361e-05
9.32805e-06
4.74027e-05
1.43553e-05
6.1456e-05
2.52776e-06
5.52976e-05
-1.08036e-05
3.74024e-05
-2.63747e-05
-2.56524e-05
-3.16347e-05
-4.59183e-05
-2.0626e-05
-4.13444e-05
-3.31982e-06
-3.12172e-05
1.52756e-05
-2.48826e-05
2.94074e-05
-2.28055e-05
3.97001e-05
-1.77901e-05
4.18882e-05
-9.71352e-06
2.62442e-05
-8.57012e-07
2.6416e-06
7.68289e-06
-2.32881e-05
1.71452e-05
3.79013e-05
9.65432e-06
6.8534e-05
5.4329e-06
2.81387e-05
4.84443e-06
1.18233e-05
1.53534e-05
1.03869e-06
1.60905e-05
-1.44689e-05
7.92766e-06
-2.97066e-05
9.39189e-06
-1.70723e-05
1.49373e-05
4.1613e-05
2.45403e-05
5.18182e-05
3.42835e-05
4.55356e-05
5.16899e-05
1.99539e-05
3.99045e-05
-1.37137e-05
2.32539e-05
-2.96368e-05
1.59327e-05
-3.42081e-05
1.28138e-05
-3.05445e-05
9.45405e-06
-2.45752e-05
3.86569e-06
-2.00285e-05
-2.01372e-06
-1.48335e-05
-4.79454e-06
-1.016e-05
-4.51854e-06
-2.53154e-06
-9.13319e-06
1.15804e-05
-1.75694e-05
2.52716e-05
4.05669e-05
1.4614e-05
5.39079e-05
1.64449e-05
2.63006e-05
2.03062e-05
7.8629e-06
2.2165e-05
-8.6607e-07
1.43441e-05
-6.65835e-06
-1.58093e-06
-1.38295e-05
-5.18333e-06
-1.30534e-05
1.75406e-05
1.8817e-05
3.74185e-05
3.19216e-05
5.32032e-05
2.96389e-05
5.44662e-05
1.84938e-05
3.44622e-05
5.73938e-06
1.62113e-05
-1.26482e-05
5.26993e-06
-2.31421e-05
3.56493e-08
-2.51916e-05
-2.07045e-06
-2.37483e-05
-3.07225e-06
-2.0832e-05
-2.93972e-06
-1.60042e-05
-4.34352e-06
-8.5389e-06
-8.90769e-06
2.52539e-06
-1.07287e-05
1.36621e-05
-1.24402e-05
2.70037e-05
4.01424e-05
1.45237e-05
3.93539e-05
1.69553e-05
2.38781e-05
1.42937e-05
1.05378e-05
1.02202e-05
3.2123e-06
5.49693e-06
-1.93433e-06
-2.04411e-06
-6.29752e-06
-9.94882e-06
-5.09316e-06
3.34055e-06
5.20696e-06
2.16305e-05
1.39241e-05
2.94346e-05
2.16565e-05
2.83166e-05
1.9671e-05
2.57688e-05
8.29019e-06
1.73998e-05
-4.45519e-06
7.92842e-06
-1.27795e-05
7.37754e-07
-1.54335e-05
-5.71579e-06
-1.49305e-05
-1.10105e-05
-1.3212e-05
-1.53653e-05
-9.51586e-06
-2.06037e-05
-1.99308e-06
-2.41014e-05
6.34317e-06
-2.56995e-05
1.5478e-05
-2.38458e-05
2.54207e-05
3.52275e-05
1.01441e-05
2.92026e-05
1.45562e-05
1.94654e-05
1.49325e-05
1.01611e-05
1.26551e-05
5.48937e-06
7.82804e-06
2.89264e-06
3.805e-07
1.1514e-06
-6.46038e-06
1.76574e-06
-7.30152e-06
6.11676e-06
-1.63148e-06
8.39878e-06
5.11307e-06
1.48643e-05
9.21353e-06
1.57169e-05
8.51498e-06
9.08696e-06
4.09423e-06
2.6793e-08
-2.23836e-06
-6.29294e-06
-7.83298e-06
-9.8749e-06
-1.25862e-05
-1.01903e-05
-1.74079e-05
-8.42887e-06
-2.17981e-05
-5.1763e-06
-2.35e-05
-3.78862e-07
-2.42814e-05
7.07385e-06
-2.40223e-05
1.51879e-05
-2.22854e-05
2.36714e-05
3.06326e-05
6.55726e-06
2.2643e-05
1.01935e-05
1.58283e-05
9.91021e-06
1.04434e-05
7.91683e-06
7.48221e-06
5.17327e-06
5.63531e-06
1.7117e-06
4.61224e-06
-1.64204e-06
5.11819e-06
-2.65564e-06
7.13048e-06
-2.31666e-06
8.06975e-06
1.23014e-06
1.13013e-05
4.74475e-06
1.22441e-05
4.2538e-06
9.57982e-06
7.4623e-07
3.63921e-06
-4.13472e-06
-1.37655e-06
-9.09333e-06
-4.91178e-06
-1.28531e-05
-6.52702e-06
-1.59653e-05
-5.43643e-06
-1.86835e-05
-2.4771e-06
-2.17432e-05
2.721e-06
-2.26564e-05
8.10882e-06
-2.14296e-05
1.40905e-05
-1.8304e-05
2.06219e-05
2.61224e-05
3.71351e-06
1.89295e-05
6.26307e-06
1.32779e-05
6.23312e-06
1.04723e-05
5.07177e-06
8.64243e-06
3.49949e-06
7.20647e-06
1.53916e-06
6.57128e-06
2.70324e-08
6.62893e-06
-3.48283e-07
7.50417e-06
-1.88247e-07
7.90811e-06
1.16833e-06
9.94766e-06
3.11129e-06
1.03053e-05
3.7943e-06
8.89918e-06
2.04682e-06
5.38667e-06
-1.52493e-06
2.05884e-06
-5.64864e-06
-9.82402e-07
-9.35932e-06
-2.86857e-06
-1.23759e-05
-2.49866e-06
-1.48437e-05
-6.85373e-08
-1.65193e-05
4.38079e-06
-1.73996e-05
9.00589e-06
-1.66851e-05
1.34094e-05
-1.4431e-05
1.83931e-05
2.29271e-05
2.34464e-06
1.65826e-05
3.58513e-06
1.20358e-05
3.66355e-06
1.03925e-05
3.27055e-06
9.034e-06
2.53651e-06
7.93912e-06
1.70386e-06
7.40245e-06
1.12796e-06
7.20334e-06
1.01819e-06
7.61236e-06
1.09231e-06
7.83254e-06
2.08162e-06
8.95696e-06
3.29247e-06
9.09353e-06
4.0655e-06
8.13773e-06
3.61599e-06
5.82021e-06
1.93191e-06
3.66518e-06
-5.17035e-07
1.55719e-06
-3.69501e-06
3.59018e-07
-6.84465e-06
6.5649e-07
-9.48509e-06
2.55028e-06
-1.12746e-05
6.15412e-06
-1.26256e-05
1.03626e-05
-1.26333e-05
1.34354e-05
-1.07982e-05
1.65656e-05
2.02043e-05
1.40359e-06
1.51791e-05
2.2955e-06
1.11429e-05
2.60638e-06
1.00802e-05
2.49976e-06
9.1392e-06
2.12916e-06
8.30818e-06
1.73429e-06
7.79588e-06
1.40942e-06
7.52667e-06
1.40285e-06
7.61758e-06
1.52764e-06
7.70645e-06
2.30261e-06
8.18096e-06
3.23471e-06
8.16082e-06
4.0413e-06
7.33297e-06
3.91204e-06
5.93895e-06
2.8859e-06
4.71367e-06
1.14199e-06
3.45211e-06
-1.33377e-06
3.02711e-06
-4.23742e-06
-6.80427e-06
-8.4217e-06
-9.46493e-06
-9.73629e-06
-8.448e-06
9.38817e-07
1.65901e-06
2.02846e-06
2.09262e-06
1.86728e-06
1.52453e-06
1.15565e-06
9.47792e-07
8.61655e-07
1.31352e-06
1.99329e-06
2.37255e-06
1.97059e-06
1.06213e-06
-4.89559e-07
)
;

boundaryField
{
    leftWall
    {
        type            fixedValue;
        value           uniform 0;
    }
    rightWall
    {
        type            fixedValue;
        value           nonuniform 0();
    }
    lowerWall
    {
        type            fixedValue;
        value           uniform 0;
    }
    atmosphere
    {
        type            calculated;
        value           nonuniform 0();
    }
    defaultFaces
    {
        type            empty;
        value           nonuniform 0();
    }
    procBoundary0to1
    {
        type            processor;
        value           nonuniform List<scalar> 
26
(
-3.10517e-06
-2.36365e-06
-2.36707e-07
-3.69457e-07
-7.42635e-07
-2.16682e-06
-2.49731e-06
-2.00664e-06
2.90497e-06
4.86303e-05
9.20823e-05
8.29729e-05
4.90878e-05
1.44384e-05
-0.00016514
-5.03393e-05
-1.97957e-05
-4.08418e-05
-2.04541e-05
-1.2041e-05
-1.86645e-05
-1.7661e-05
-1.37964e-05
-1.12316e-05
-8.04877e-06
-6.06682e-06
)
;
    }
    procBoundary0to2
    {
        type            processor;
        value           nonuniform List<scalar> 
24
(
3.64381e-06
5.1263e-06
7.77993e-06
1.13994e-05
1.37055e-05
1.53089e-05
1.7809e-05
1.42364e-05
1.04206e-05
9.70914e-06
9.07346e-06
8.5321e-06
8.13715e-06
7.89429e-06
7.82416e-06
7.79166e-06
7.72825e-06
7.48062e-06
6.95339e-06
6.34437e-06
5.67176e-06
5.16735e-06
-2.74163e-06
5.44922e-06
)
;
    }
}


// ************************************************************************* //
