/*--------------------------------*- C++ -*----------------------------------*\
| =========                 |                                                 |
| \\      /  F ield         | OpenFOAM: The Open Source CFD Toolbox           |
|  \\    /   O peration     | Version:  2.4.0                                 |
|   \\  /    A nd           | Web:      www.OpenFOAM.org                      |
|    \\/     M anipulation  |                                                 |
\*---------------------------------------------------------------------------*/
FoamFile
{
    version     2.0;
    format      ascii;
    class       surfaceScalarField;
    location    "0.65";
    object      phi.air;
}
// * * * * * * * * * * * * * * * * * * * * * * * * * * * * * * * * * * * * * //

dimensions      [0 3 -1 0 0 0 0];

internalField   nonuniform List<scalar> 
1101
(
2.12208e-06
-2.12209e-06
4.51308e-06
-2.39099e-06
6.02434e-06
-1.51126e-06
8.36786e-06
-2.34351e-06
1.0808e-05
-2.44014e-06
1.2376e-05
-1.56793e-06
1.38193e-05
-1.4433e-06
1.47933e-05
-9.73922e-07
1.60658e-05
-1.27252e-06
1.70815e-05
-1.01565e-06
1.65826e-05
4.99058e-07
1.41865e-05
2.39633e-06
9.76219e-06
4.42418e-06
4.70742e-06
5.05443e-06
1.56355e-07
4.55087e-06
-2.86026e-06
3.01652e-06
-5.23455e-06
2.37421e-06
-6.58237e-06
1.34779e-06
-7.2286e-06
6.46309e-07
-5.92866e-06
-1.29981e-06
-3.84468e-06
-2.08381e-06
-7.38258e-07
2.13638e-06
-4.15613e-06
4.44974e-06
-4.59556e-06
6.16666e-06
-3.13784e-06
8.4642e-06
-4.5297e-06
1.07596e-05
-4.6173e-06
1.24676e-05
-3.17519e-06
1.40922e-05
-2.9753e-06
1.54342e-05
-2.23902e-06
1.70423e-05
-2.81715e-06
1.75882e-05
-1.53522e-06
1.63031e-05
1.78478e-06
1.34403e-05
5.25932e-06
9.49744e-06
8.36716e-06
4.39157e-06
1.01604e-05
-7.43578e-08
9.01678e-06
-2.98913e-06
5.93126e-06
-4.98922e-06
4.37428e-06
-6.40844e-06
2.76703e-06
-6.71746e-06
9.55422e-07
-5.6704e-06
-2.3467e-06
-3.7498e-06
-4.00419e-06
-2.12005e-06
2.1414e-06
-7.12738e-06
4.11785e-06
-7.46764e-06
6.54538e-06
-6.29639e-06
8.51813e-06
-7.45165e-06
1.02606e-05
-7.42772e-06
1.22614e-05
-6.11518e-06
1.39752e-05
-5.5491e-06
1.55615e-05
-4.5066e-06
1.61435e-05
-3.84046e-06
1.59916e-05
-1.26377e-06
1.67761e-05
1.51287e-06
1.55701e-05
6.71497e-06
1.19269e-05
1.20257e-05
6.3323e-06
1.57548e-05
6.11931e-07
1.4737e-05
-3.73089e-06
1.02739e-05
-6.36043e-06
7.00374e-06
-7.4736e-06
3.88022e-06
-7.18811e-06
6.70061e-07
-5.11732e-06
-4.41728e-06
-2.49212e-06
-6.6291e-06
-4.37085e-06
2.05751e-06
-2.48979e-05
3.61992e-06
-2.48805e-05
6.54797e-06
-2.48245e-05
8.11343e-06
-2.50182e-05
9.45183e-06
-2.50836e-05
1.18547e-05
-2.48793e-05
1.39321e-05
-2.42474e-05
1.60134e-05
-2.31368e-05
1.68842e-05
-2.10491e-05
1.76975e-05
-1.70783e-05
1.64695e-05
-9.12381e-06
1.27473e-05
2.33377e-06
9.41107e-06
1.33043e-05
4.07201e-06
2.14294e-05
-7.9668e-07
1.96337e-05
-4.33761e-06
1.3815e-05
-6.42327e-06
9.08942e-06
-7.54976e-06
5.00673e-06
-7.0978e-06
2.18135e-07
-5.6005e-06
-5.91454e-06
-3.03605e-06
-9.19354e-06
-7.03209e-06
1.32868e-06
-1.59955e-05
2.44462e-06
-1.54429e-05
4.54251e-06
-1.67291e-05
5.67998e-06
-1.51293e-05
6.20353e-06
-1.40661e-05
7.8897e-06
-1.47996e-05
9.17344e-06
-1.32924e-05
9.75813e-06
-1.2085e-05
1.00404e-05
-1.06085e-05
1.0929e-05
-9.96971e-06
1.16817e-05
-1.04618e-05
1.23253e-05
-1.62866e-05
8.21385e-06
5.79322e-07
1.31832e-06
2.03976e-05
-3.08009e-06
2.45403e-05
-6.01461e-06
1.67756e-05
-7.2487e-06
1.03235e-05
-7.54654e-06
5.30457e-06
-6.95984e-06
-3.68443e-07
-6.10382e-06
-6.77032e-06
-4.17239e-06
-1.11247e-05
-1.04419e-05
-3.36977e-07
-9.36338e-06
-2.84549e-07
-9.29512e-06
-7.74107e-07
-1.01257e-05
-6.36151e-07
-9.32042e-06
-3.31506e-07
-8.54987e-06
-5.14768e-07
-9.13107e-06
-1.04275e-06
-7.36335e-06
-1.68169e-06
-5.74142e-06
-1.49445e-06
-4.58102e-06
-3.62436e-07
-3.67844e-06
3.64303e-06
-1.286e-06
8.23827e-06
3.8042e-06
5.67722e-06
6.18506e-06
-4.23687e-06
1.78032e-05
-9.03048e-06
2.48014e-05
-1.02038e-05
1.82415e-05
-9.63051e-06
9.75576e-06
-8.59662e-06
4.27086e-06
-6.70569e-06
-2.25924e-06
-6.26208e-06
-7.21382e-06
-5.47547e-06
-1.19112e-05
-1.37169e-05
-7.492e-07
-8.61398e-06
-1.25997e-06
-8.78399e-06
-1.09379e-06
-1.02915e-05
-1.0056e-06
-9.4083e-06
-6.28511e-07
-8.92664e-06
4.27576e-07
-1.0187e-05
2.27585e-07
-7.16344e-06
-9.83781e-07
-4.53041e-06
-2.89615e-06
-2.66975e-06
-5.96407e-06
-6.12145e-07
-1.09788e-05
3.73057e-06
-1.19087e-05
6.95581e-06
-5.82582e-06
1.91239e-05
-1.08181e-05
2.38833e-05
-1.73287e-05
2.15035e-05
-1.67492e-05
1.72155e-05
-1.34846e-05
6.55742e-06
-1.05133e-05
1.29974e-06
-7.91153e-06
-4.86098e-06
-7.10926e-06
-8.01606e-06
-5.80342e-06
-1.31988e-05
-1.6924e-05
-7.10235e-07
-7.89069e-06
-9.34299e-07
-8.54722e-06
-1.49059e-06
-9.72658e-06
-1.09545e-06
-9.79976e-06
-7.03203e-07
-9.31534e-06
-1.1431e-06
-9.74266e-06
-1.844e-06
-6.46056e-06
-2.40084e-06
-3.97202e-06
-2.61966e-06
-2.44878e-06
-2.70736e-06
-5.21529e-07
-2.94675e-06
3.97335e-06
-7.86319e-06
1.18692e-05
-1.49072e-05
2.55116e-05
-2.3764e-05
3.51157e-05
-2.72555e-05
1.97746e-05
-2.78113e-05
1.27213e-05
-2.38282e-05
3.4761e-06
-1.71766e-05
-4.98895e-06
-1.21718e-05
-9.42081e-06
-8.57789e-06
-1.1039e-05
-5.34906e-06
-1.56392e-05
-1.94263e-05
-1.96666e-06
-5.87398e-06
-3.0725e-06
-7.3845e-06
-2.43802e-06
-1.02989e-05
-3.02166e-07
-1.19043e-05
1.57435e-06
-1.11814e-05
4.4747e-06
-1.26129e-05
5.10251e-06
-7.03871e-06
8.58637e-07
2.97177e-07
-6.41004e-06
4.8289e-06
-1.5367e-05
8.43762e-06
-2.28847e-05
1.14903e-05
-2.38752e-05
1.28593e-05
-2.14063e-05
2.27613e-05
-2.61542e-05
3.95701e-05
-3.68659e-05
3.18882e-05
-4.53762e-05
1.09964e-05
-4.90952e-05
-4.16789e-06
-4.902e-05
-1.35917e-05
-4.10553e-05
-2.55633e-05
-2.58361e-05
-3.58583e-05
-7.94693e-06
-4.71238e-05
-4.5475e-05
-1.65562e-06
-3.76389e-06
-2.40501e-06
-6.2998e-06
-1.96346e-06
-1.0656e-05
5.80141e-07
-1.41601e-05
3.42963e-06
-1.37301e-05
5.21371e-06
-1.47203e-05
4.93026e-06
-7.122e-06
5.41599e-06
5.54007e-07
4.84618e-06
6.01724e-06
2.5507e-06
1.11707e-05
-6.28349e-07
1.49086e-05
-3.64628e-06
1.59436e-05
-3.74668e-06
2.28347e-05
5.69672e-06
3.08995e-05
1.52628e-05
3.30362e-05
1.47535e-05
1.70335e-05
7.80673e-06
-2.02339e-06
2.85748e-06
-1.54189e-05
4.64091e-06
-3.78864e-05
1.48548e-05
-6.03273e-05
2.35039e-05
-6.77156e-05
-6.18058e-05
-4.51326e-06
2.97906e-07
-9.07439e-06
-7.05841e-07
-8.24929e-06
1.3466e-06
-1.23322e-06
-1.5636e-05
4.57621e-06
-1.70958e-05
7.39326e-06
2.18752e-05
5.86253e-06
4.86706e-05
-8.74794e-07
6.34667e-06
-6.61447e-06
9.68309e-06
-9.69413e-06
1.21246e-05
-9.51773e-06
1.30749e-05
-7.0994e-06
1.25426e-05
1.25381e-07
1.53097e-05
1.19791e-05
1.90326e-05
2.73043e-05
1.96045e-05
4.24455e-05
1.1857e-05
5.55943e-05
3.20453e-06
6.81547e-05
-7.5631e-06
7.39448e-05
-2.09186e-05
7.73634e-05
-2.42775e-05
7.99787e-05
-5.91565e-06
1.19713e-05
-1.12354e-05
7.43983e-05
-1.90717e-05
6.57942e-05
-1.16957e-05
4.82391e-05
-7.8904e-06
6.24311e-05
-4.86067e-06
7.20299e-05
-1.44869e-05
7.74344e-05
-2.52325e-05
7.28108e-05
-2.33312e-05
6.699e-05
-2.04683e-05
6.71979e-05
-1.92556e-05
6.58456e-05
-1.78408e-05
6.20655e-05
-1.45678e-05
6.30372e-05
-8.54666e-06
7.67909e-05
1.44782e-06
6.74353e-05
1.44027e-05
5.74094e-05
2.82798e-05
4.34323e-05
4.12485e-05
3.74861e-05
5.70592e-05
3.87356e-05
6.70612e-05
3.33701e-05
7.73609e-05
2.71054e-05
8.89024e-05
2.42023e-05
2.60919e-05
-6.04768e-06
7.85716e-05
-1.47824e-05
7.91643e-05
-3.36092e-05
9.97165e-05
-7.85968e-05
0.000152003
-0.000111997
0.000119545
-0.000130333
6.86852e-05
-0.000131343
5.32835e-05
-0.000116591
6.67119e-05
-9.9087e-05
7.89875e-05
-7.96495e-05
9.58608e-05
-6.69835e-05
0.000102412
-5.51427e-05
8.79005e-05
-4.32992e-05
6.74967e-05
-1.82472e-05
6.09488e-05
1.38485e-05
6.00435e-05
2.59126e-05
5.16937e-05
4.57955e-05
5.24943e-05
4.83306e-05
4.102e-05
5.10217e-05
3.30992e-05
5.28772e-05
1.84351e-05
5.50828e-05
2.9899e-06
-2.32653e-05
7.39425e-06
1.3936e-05
-1.39742e-05
3.85974e-05
-6.67868e-05
7.13318e-05
-9.95872e-05
6.72507e-05
-0.000117258
4.84098e-05
-0.000141238
2.50134e-05
-0.000150178
-1.58851e-06
-0.000124416
-2.48868e-05
-0.000108625
-4.34222e-06
-0.000111361
2.46929e-05
-0.000106747
3.72872e-05
-9.34235e-05
2.87713e-05
-7.32219e-05
2.48681e-05
-5.50111e-05
3.74785e-05
-3.80198e-05
3.41584e-05
-2.33149e-05
2.98409e-05
-9.19959e-06
1.6717e-05
2.38453e-06
-7.63359e-06
1.23535e-05
-1.71557e-05
1.78489e-05
-2.74899e-05
5.33492e-07
-3.46746e-05
-5.07015e-05
-9.50102e-06
1.91524e-05
-1.08087e-05
3.48744e-05
-6.43662e-06
6.01032e-05
-2.72842e-05
7.45188e-05
-2.29413e-05
3.27198e-05
4.64741e-05
-4.78273e-05
9.60733e-05
-5.42488e-05
6.96013e-05
-7.3544e-06
1.00478e-05
3.77942e-05
-3.11091e-05
3.89313e-05
-8.07463e-05
4.39154e-05
-9.41825e-05
-5.79414e-06
-7.24074e-05
-4.85415e-05
-5.52804e-05
-3.82185e-05
-5.02594e-05
-2.86851e-05
-4.54062e-05
-3.04209e-05
-5.30777e-05
-2.40222e-05
-8.0461e-05
-1.66574e-05
-0.000126354
-3.59328e-06
-0.000186324
4.97612e-06
-0.000213121
-1.69682e-05
-3.79645e-05
-4.35743e-05
6.27215e-05
-3.9644e-05
3.09295e-05
-7.92512e-06
2.83217e-05
2.15791e-05
4.48696e-05
6.08326e-05
-6.59261e-06
5.41271e-05
-4.1122e-05
2.92521e-05
-2.93738e-05
-2.28459e-06
2.41824e-05
-3.13565e-05
6.68662e-05
-3.55987e-05
4.31727e-05
-1.59194e-05
2.42311e-05
1.95278e-05
-4.13168e-05
2.19013e-05
-5.10889e-05
1.41009e-05
-3.10057e-05
-1.52196e-06
-1.44927e-05
-2.55681e-05
-8.04793e-06
-4.00536e-05
-1.01932e-05
-4.75881e-05
-9.34399e-06
-4.25434e-05
-8.70642e-06
-2.06566e-05
-1.69176e-05
-2.15693e-05
-1.60557e-05
-8.73429e-06
-1.5558e-05
7.82796e-05
-8.44629e-06
2.38178e-05
8.71662e-06
1.11588e-05
4.20599e-05
1.15263e-05
4.92177e-05
-1.37504e-05
4.58652e-05
-3.77694e-05
3.2488e-05
-1.59966e-05
9.23899e-06
4.74314e-05
1.4516e-05
6.15891e-05
2.39877e-06
5.52899e-05
-1.07976e-05
3.74275e-05
-2.65303e-05
-2.55841e-05
-3.18852e-05
-4.57339e-05
-2.12847e-05
-4.16062e-05
-3.53253e-06
-3.22449e-05
1.55093e-05
-2.70897e-05
2.98765e-05
-2.45606e-05
3.98098e-05
-1.92773e-05
4.17297e-05
-1.06264e-05
2.59921e-05
-1.18004e-06
2.35445e-06
7.58187e-06
-2.36667e-05
1.72867e-05
3.82297e-05
9.7575e-06
6.85221e-05
5.4492e-06
2.81261e-05
4.86148e-06
1.17465e-05
1.53873e-05
1.00053e-06
1.60965e-05
-1.44596e-05
8.00239e-06
-2.96753e-05
9.03735e-06
-1.70315e-05
1.48408e-05
4.1628e-05
2.4692e-05
5.17379e-05
3.42691e-05
4.57129e-05
5.16315e-05
2.0065e-05
4.0049e-05
-1.40015e-05
2.39163e-05
-2.96012e-05
1.59319e-05
-3.36218e-05
1.25186e-05
-2.88315e-05
8.59327e-06
-2.31644e-05
2.88351e-06
-1.88509e-05
-2.94843e-06
-1.34455e-05
-4.91016e-06
-8.66482e-06
-4.45977e-06
-1.63056e-06
-9.10823e-06
1.22302e-05
-1.76169e-05
2.57954e-05
4.10237e-05
1.46357e-05
5.38864e-05
1.64462e-05
2.63156e-05
2.03078e-05
7.88491e-06
2.21613e-05
-8.52949e-07
1.43511e-05
-6.64938e-06
-1.51371e-06
-1.38104e-05
-5.5388e-06
-1.30064e-05
1.76113e-05
1.84779e-05
3.73793e-05
3.197e-05
5.31544e-05
2.99378e-05
5.44649e-05
1.87546e-05
3.45447e-05
5.91878e-06
1.72207e-05
-1.22772e-05
5.37948e-06
-2.17805e-05
-2.87709e-07
-2.31643e-05
-2.35521e-06
-2.1097e-05
-3.074e-06
-1.81321e-05
-2.84989e-06
-1.36697e-05
-4.40021e-06
-7.11459e-06
-9.02058e-06
2.9897e-06
-1.08436e-05
1.40531e-05
-1.25104e-05
2.7462e-05
4.05598e-05
1.45281e-05
3.93583e-05
1.6955e-05
2.38887e-05
1.42919e-05
1.0548e-05
1.02166e-05
3.22233e-06
5.49147e-06
-1.92425e-06
-2.03425e-06
-6.28468e-06
-9.97892e-06
-5.06169e-06
3.212e-06
5.28703e-06
2.1306e-05
1.3876e-05
2.94103e-05
2.18335e-05
2.82502e-05
1.99147e-05
2.57012e-05
8.4678e-06
1.76685e-05
-4.2445e-06
8.30569e-06
-1.24177e-05
3.98016e-07
-1.52567e-05
-5.9411e-06
-1.47579e-05
-1.10388e-05
-1.30345e-05
-1.53616e-05
-9.34694e-06
-2.06049e-05
-1.87143e-06
-2.41154e-05
6.50021e-06
-2.5732e-05
1.56695e-05
-2.3855e-05
2.55851e-05
3.53486e-05
1.01441e-05
2.92142e-05
1.45553e-05
1.94775e-05
1.49304e-05
1.0173e-05
1.26515e-05
5.5013e-06
7.82238e-06
2.90484e-06
3.73209e-07
1.1645e-06
-6.46854e-06
1.78006e-06
-7.31576e-06
6.13426e-06
-1.86454e-06
8.42478e-06
5.08634e-06
1.48826e-05
9.21958e-06
1.57814e-05
8.53012e-06
9.15726e-06
4.06389e-06
2.21731e-07
-2.2631e-06
-6.09077e-06
-7.84861e-06
-9.67122e-06
-1.26285e-05
-9.97809e-06
-1.74291e-05
-8.23386e-06
-2.18171e-05
-4.95902e-06
-2.3496e-05
-1.92476e-07
-2.42962e-05
7.30029e-06
-2.40421e-05
1.54155e-05
-2.22822e-05
2.38249e-05
3.07351e-05
6.55699e-06
2.26572e-05
1.01924e-05
1.58421e-05
9.90821e-06
1.04572e-05
7.91342e-06
7.49609e-06
5.16846e-06
5.6498e-06
1.70529e-06
4.62768e-06
-1.64976e-06
5.13511e-06
-2.66472e-06
7.14923e-06
-2.33092e-06
8.09098e-06
1.22208e-06
1.13296e-05
4.73025e-06
1.22733e-05
4.25403e-06
9.63348e-06
7.37377e-07
3.73838e-06
-4.10659e-06
-1.24681e-06
-9.04507e-06
-4.73275e-06
-1.28918e-05
-6.1314e-06
-1.60164e-05
-5.10924e-06
-1.87065e-05
-2.26889e-06
-2.17594e-05
2.86039e-06
-2.26695e-05
8.21044e-06
-2.14396e-05
1.41855e-05
-1.83208e-05
2.07062e-05
2.62095e-05
3.71285e-06
1.89444e-05
6.26193e-06
1.32931e-05
6.23126e-06
1.04878e-05
5.06897e-06
8.65838e-06
3.49559e-06
7.22318e-06
1.53418e-06
6.58909e-06
2.1048e-08
6.64824e-06
-3.55153e-07
7.52543e-06
-1.95935e-07
7.93176e-06
1.15962e-06
9.97408e-06
3.09738e-06
1.03355e-05
3.78497e-06
8.94589e-06
2.06587e-06
5.45748e-06
-1.41969e-06
2.23872e-06
-5.64225e-06
-5.10186e-07
-9.43153e-06
-2.34209e-06
-1.24343e-05
-2.10646e-06
-1.48795e-05
1.76394e-07
-1.65303e-05
4.5112e-06
-1.74069e-05
9.08703e-06
-1.66961e-05
1.34747e-05
-1.4446e-05
1.8456e-05
2.29991e-05
2.34433e-06
1.66e-05
3.5843e-06
1.20531e-05
3.66214e-06
1.041e-05
3.26848e-06
9.05203e-06
2.53371e-06
7.95795e-06
1.70035e-06
7.42244e-06
1.12378e-06
7.22481e-06
1.01348e-06
7.63572e-06
1.0871e-06
7.85814e-06
2.07593e-06
8.98525e-06
3.28655e-06
9.12489e-06
4.05839e-06
8.17406e-06
3.62974e-06
5.8861e-06
1.99632e-06
3.87216e-06
-5.31732e-07
2.01788e-06
-3.74675e-06
8.7289e-07
-6.90863e-06
1.05542e-06
-9.50758e-06
2.77538e-06
-1.12866e-05
6.29018e-06
-1.26313e-05
1.04317e-05
-1.26415e-05
1.3485e-05
-1.08029e-05
1.66173e-05
2.0247e-05
1.40316e-06
1.51969e-05
2.29486e-06
1.11614e-05
2.60549e-06
1.00994e-05
2.4985e-06
9.15903e-06
2.12753e-06
8.32891e-06
1.73223e-06
7.81773e-06
1.40705e-06
7.54999e-06
1.40017e-06
7.64259e-06
1.52478e-06
7.73353e-06
2.29963e-06
8.21039e-06
3.23182e-06
8.1927e-06
4.03753e-06
7.36834e-06
3.92044e-06
6.00319e-06
2.9029e-06
4.88968e-06
1.15726e-06
3.76343e-06
-1.38526e-06
3.41543e-06
-4.26154e-06
-6.81937e-06
-8.42668e-06
-9.46657e-06
-9.73563e-06
-8.45955e-06
9.39126e-07
1.65903e-06
2.02825e-06
2.09227e-06
1.86677e-06
1.52394e-06
1.15493e-06
9.47065e-07
8.60889e-07
1.31288e-06
1.99276e-06
2.37274e-06
1.97386e-06
1.07632e-06
-5.03764e-07
)
;

boundaryField
{
    leftWall
    {
        type            fixedValue;
        value           uniform 0;
    }
    rightWall
    {
        type            fixedValue;
        value           nonuniform 0();
    }
    lowerWall
    {
        type            fixedValue;
        value           uniform 0;
    }
    atmosphere
    {
        type            calculated;
        value           nonuniform 0();
    }
    defaultFaces
    {
        type            empty;
        value           nonuniform 0();
    }
    procBoundary0to1
    {
        type            processor;
        value           nonuniform List<scalar> 
26
(
-3.10625e-06
-2.36783e-06
-2.41031e-07
-3.74909e-07
-7.62316e-07
-2.20042e-06
-2.53387e-06
-2.00155e-06
3.25139e-06
3.07567e-05
9.02253e-05
0.000101818
7.20217e-05
-1.33878e-05
-0.000227928
-5.07995e-05
-2.09296e-05
-4.09671e-05
-2.04112e-05
-1.20466e-05
-1.86441e-05
-1.76687e-05
-1.37955e-05
-1.12357e-05
-8.05074e-06
-6.06072e-06
)
;
    }
    procBoundary0to2
    {
        type            processor;
        value           nonuniform List<scalar> 
24
(
3.93158e-06
5.33309e-06
7.89742e-06
1.14715e-05
1.3754e-05
1.53413e-05
1.78479e-05
1.42577e-05
1.04415e-05
9.73014e-06
9.09499e-06
8.55441e-06
8.16056e-06
7.91899e-06
7.85045e-06
7.8197e-06
7.75839e-06
7.51281e-06
6.98836e-06
6.40204e-06
5.78718e-06
5.34355e-06
-2.71918e-06
5.63063e-06
)
;
    }
}


// ************************************************************************* //
