/*--------------------------------*- C++ -*----------------------------------*\
| =========                 |                                                 |
| \\      /  F ield         | OpenFOAM: The Open Source CFD Toolbox           |
|  \\    /   O peration     | Version:  2.4.0                                 |
|   \\  /    A nd           | Web:      www.OpenFOAM.org                      |
|    \\/     M anipulation  |                                                 |
\*---------------------------------------------------------------------------*/
FoamFile
{
    version     2.0;
    format      ascii;
    class       surfaceScalarField;
    location    "0.65";
    object      phi.water;
}
// * * * * * * * * * * * * * * * * * * * * * * * * * * * * * * * * * * * * * //

dimensions      [0 3 -1 0 0 0 0];

internalField   nonuniform List<scalar> 
1101
(
2.12202e-06
-1.79392e-06
4.51305e-06
-1.98137e-06
6.02436e-06
-1.31796e-06
8.36789e-06
-1.91322e-06
1.0808e-05
-1.95118e-06
1.23759e-05
-1.30435e-06
1.38192e-05
-1.22479e-06
1.47931e-05
-8.25293e-07
1.60654e-05
-1.10392e-06
1.7081e-05
-9.33903e-07
1.65821e-05
5.29198e-07
1.41859e-05
2.41089e-06
9.76152e-06
4.43778e-06
4.70672e-06
5.06755e-06
1.55596e-07
4.56285e-06
-2.86063e-06
3.0274e-06
-5.23473e-06
2.38233e-06
-6.58246e-06
1.35331e-06
-7.22866e-06
6.49822e-07
-5.92871e-06
-1.29684e-06
-3.84471e-06
-2.08171e-06
-7.37557e-07
2.13923e-06
1.9307e-05
4.44399e-06
1.90709e-05
6.17002e-06
2.00143e-05
8.46684e-06
1.91952e-05
1.07531e-05
1.92877e-05
1.24658e-05
2.0286e-05
1.40894e-05
2.02822e-05
1.54326e-05
2.03484e-05
1.70353e-05
1.88247e-05
1.758e-05
1.81424e-05
1.6299e-05
8.00203e-06
1.34372e-05
6.50992e-06
9.49395e-06
8.62077e-06
4.38824e-06
1.04325e-05
-7.75091e-08
9.1587e-06
-2.99061e-06
5.9806e-06
-4.99004e-06
4.39348e-06
-6.40885e-06
2.77943e-06
-6.7177e-06
9.64271e-07
-5.67054e-06
-2.33843e-06
-3.74989e-06
-3.99664e-06
-2.11799e-06
2.16185e-06
2.9812e-05
4.15175e-06
2.95581e-05
6.56065e-06
3.0395e-05
8.60716e-06
2.96356e-05
1.02427e-05
2.97269e-05
1.20785e-05
3.0959e-05
1.36487e-05
3.19363e-05
1.48745e-05
3.35038e-05
1.49907e-05
3.54866e-05
1.26584e-05
4.01686e-05
1.59045e-05
3.64003e-05
1.54498e-05
3.07195e-05
1.18899e-05
2.66784e-05
6.26979e-06
1.72333e-05
5.89509e-07
1.49552e-05
-3.73554e-06
1.03646e-05
-6.36233e-06
7.06154e-06
-7.47446e-06
3.92519e-06
-7.18864e-06
7.07893e-07
-5.11768e-06
-4.36837e-06
-2.49258e-06
-6.5962e-06
-4.35924e-06
2.07322e-06
1.37423e-05
3.54692e-06
1.39183e-05
6.5859e-06
1.35865e-05
8.07894e-06
1.38061e-05
9.31863e-06
1.39286e-05
1.1701e-05
1.41066e-05
1.36364e-05
1.53687e-05
1.56388e-05
1.68685e-05
1.63972e-05
1.9798e-05
1.70117e-05
2.44468e-05
1.35465e-05
3.49353e-05
8.15322e-06
4.97589e-05
5.18293e-06
5.69708e-05
3.87518e-06
4.25068e-05
-8.21877e-07
3.18432e-05
-4.34795e-06
1.69678e-05
-6.4297e-06
9.75272e-06
-7.55432e-06
5.16507e-06
-7.1e-06
3.46212e-07
-5.6028e-06
-5.75569e-06
-3.03838e-06
-9.07829e-06
-6.99266e-06
1.23599e-06
-9.51019e-06
2.24485e-06
-9.0622e-06
4.25389e-06
-1.04318e-05
5.26535e-06
-9.01734e-06
5.70896e-06
-8.09442e-06
7.34503e-06
-9.17836e-06
8.38981e-06
-7.76589e-06
8.78282e-06
-6.24474e-06
8.82597e-06
-4.2391e-06
9.05164e-06
-2.32373e-06
8.14699e-06
3.13064e-06
8.58628e-06
1.39705e-05
1.9587e-06
3.38652e-05
-6.18869e-06
5.84558e-05
-6.12982e-06
5.47384e-05
-6.23842e-06
3.39873e-05
-7.26705e-06
1.3746e-05
-7.55461e-06
6.42649e-06
-6.96703e-06
2.85064e-07
-6.10758e-06
-5.94542e-06
-4.17889e-06
-1.07022e-05
-1.03209e-05
-3.37027e-07
-9.36359e-06
-2.84654e-07
-9.29528e-06
-7.74256e-07
-1.01258e-05
-6.36342e-07
-9.32059e-06
-3.31745e-07
-8.55004e-06
-5.15053e-07
-9.13135e-06
-1.04304e-06
-7.36361e-06
-1.68193e-06
-5.74172e-06
-1.49467e-06
-4.58179e-06
-3.63526e-07
-3.67968e-06
3.35846e-06
-1.28386e-06
5.84668e-06
5.91669e-06
-7.42264e-07
2.39296e-05
-1.451e-05
4.32924e-05
-1.57637e-05
5.64382e-05
-1.13657e-05
4.48792e-05
-9.85154e-06
2.27597e-05
-8.65543e-06
1.07986e-05
-6.72663e-06
2.22323e-06
-6.25474e-06
-4.67451e-06
-5.48547e-06
-1.15902e-05
-1.35465e-05
-7.49235e-07
-8.61436e-06
-1.26008e-06
-8.78444e-06
-1.09394e-06
-1.0292e-05
-1.00579e-06
-9.40874e-06
-6.28738e-07
-8.9271e-06
4.27314e-07
-1.01874e-05
2.27325e-07
-7.16363e-06
-9.84005e-07
-4.53041e-06
-2.89636e-06
-2.66945e-06
-5.96437e-06
-6.11678e-07
-1.09793e-05
3.731e-06
-1.20515e-05
6.95574e-06
-8.88496e-06
1.96476e-05
-1.46704e-05
3.998e-05
-2.47029e-05
5.09455e-05
-1.96004e-05
4.49703e-05
-1.39104e-05
2.78259e-05
-1.11139e-05
5.36106e-06
-7.97378e-06
-1.53056e-06
-7.23315e-06
-6.31685e-06
-5.80991e-06
9.78516e-06
8.8912e-06
-7.10276e-07
-7.90408e-06
-9.34394e-07
-8.56032e-06
-1.49073e-06
-9.73562e-06
-1.09564e-06
-9.80383e-06
-7.03425e-07
-9.31931e-06
-1.14329e-06
-9.74754e-06
-1.84422e-06
-6.46272e-06
-2.40103e-06
-3.97362e-06
-2.61986e-06
-2.45062e-06
-2.70769e-06
-5.23837e-07
-2.94731e-06
3.97064e-06
-7.85847e-06
1.1867e-05
-1.37191e-05
2.55403e-05
-2.09286e-05
4.69066e-05
-3.04176e-05
4.86614e-05
-3.23311e-05
4.49593e-05
-1.96035e-05
4.07805e-05
-1.72314e-05
1.8355e-05
-1.21752e-05
1.43536e-05
-6.02951e-06
1.25798e-05
-5.28011e-06
1.44314e-05
1.30726e-05
-1.96625e-06
-5.93785e-06
-3.07203e-06
-7.45456e-06
-2.43839e-06
-1.03693e-05
-3.02912e-07
-1.19393e-05
1.57357e-06
-1.11959e-05
4.47381e-06
-1.26641e-05
5.10202e-06
-7.12216e-06
8.58327e-07
2.54158e-07
-6.41033e-06
4.81197e-06
-1.53673e-05
8.43088e-06
-2.28849e-05
1.14876e-05
-2.38755e-05
1.28572e-05
-2.10919e-05
2.27599e-05
-1.57371e-05
4.17494e-05
-2.82664e-05
5.44037e-05
-4.46273e-05
3.94349e-05
-4.99395e-05
2.49598e-05
-5.13149e-05
2.28869e-05
-4.14926e-05
7.75141e-06
-2.65544e-05
-4.50436e-06
-7.26217e-06
-1.06423e-05
-7.21484e-06
-1.66617e-06
-4.27169e-06
-2.42375e-06
-6.69698e-06
-1.97748e-06
-1.08156e-05
5.75393e-07
-1.45001e-05
3.43147e-06
-1.41245e-05
5.21768e-06
-1.5165e-05
4.94625e-06
-8.11705e-06
5.4234e-06
-1.48448e-06
4.85055e-06
4.67878e-06
2.55129e-06
1.03203e-05
-6.28875e-07
1.44839e-05
-3.64708e-06
1.58313e-05
-3.71911e-06
2.28321e-05
7.03773e-06
3.09843e-05
2.52327e-05
3.50657e-05
2.96676e-05
2.82632e-05
1.83725e-05
2.02689e-05
5.93898e-06
9.45304e-06
5.32198e-06
-1.30076e-05
1.73334e-05
-3.38218e-05
2.7887e-05
-4.08572e-05
-3.73417e-05
-4.51016e-06
2.38472e-07
-9.0721e-06
-2.13508e-06
-8.26829e-06
-1.16508e-05
-1.28311e-06
-2.20122e-05
4.55437e-06
-2.23699e-05
7.38955e-06
-2.43746e-05
5.9025e-06
-1.38724e-05
-5.79126e-07
-7.01401e-07
-6.42931e-06
4.59935e-06
-9.56441e-06
8.17581e-06
-9.45291e-06
1.05228e-05
-7.07826e-06
1.0897e-05
1.27275e-07
1.46197e-05
1.2009e-05
1.89103e-05
2.74415e-05
1.96165e-05
4.34833e-05
1.18851e-05
5.80558e-05
3.90183e-06
7.11256e-05
-7.22833e-06
7.62582e-05
-2.30866e-05
7.80174e-05
-4.02327e-05
8.00737e-05
-4.72178e-05
-5.16906e-05
-1.12874e-05
9.61843e-06
-1.79812e-05
2.07464e-06
-1.46247e-05
-1.73709e-05
-1.03413e-05
-3.04766e-05
-1.55492e-05
-2.56694e-05
-2.32214e-05
-3.33073e-05
-2.41826e-05
-2.51017e-05
-2.25554e-05
-1.11751e-05
-1.98641e-05
-4.47963e-06
-1.87848e-05
1.37262e-06
-1.76034e-05
2.18207e-06
-1.44502e-05
8.96248e-07
-8.50568e-06
2.51325e-06
1.44918e-06
4.65083e-06
1.44001e-05
3.72634e-06
2.82771e-05
-4.18512e-06
4.11108e-05
-1.01559e-05
5.6559e-05
-2.46632e-05
6.59233e-05
-3.52451e-05
7.16112e-05
-5.05062e-05
7.88871e-05
-6.37478e-05
-7.55013e-05
-4.98349e-06
-3.97603e-05
-1.22258e-05
-5.53103e-05
-3.3671e-05
-7.87065e-05
-7.6326e-05
-8.74256e-05
-0.00011562
-8.01646e-05
-0.000129296
-0.000109054
-0.000116205
-7.8622e-05
-9.38664e-05
-6.08389e-05
-7.60759e-05
-4.93168e-05
-6.37907e-05
-4.36534e-05
-5.5283e-05
-4.40322e-05
-4.2477e-05
-5.10417e-05
-2.63389e-05
-3.7653e-05
-1.19782e-05
-2.81224e-05
3.48958e-06
-2.55186e-05
1.62843e-05
-2.77805e-05
2.74495e-05
-3.53717e-05
3.66411e-05
-5.6645e-05
4.31081e-05
-6.90585e-05
4.63168e-05
-9.11924e-05
4.94752e-05
-0.000113964
-0.000136521
2.32006e-06
-6.63888e-05
-5.05502e-06
-9.99181e-05
-3.33446e-05
-0.000107569
-6.31615e-05
-0.000104014
-5.82412e-05
-9.11154e-05
-7.73724e-05
-7.64619e-05
-0.000131365
-5.55189e-05
-0.000122039
-7.72516e-05
-0.000105272
-5.97481e-05
-9.93881e-05
-4.16909e-05
-9.04208e-05
-1.77625e-05
-8.68748e-05
-5.00338e-05
-7.3254e-05
-5.57163e-05
-5.58451e-05
-7.45038e-05
-3.93064e-05
-9.37509e-05
-2.70041e-05
-9.4257e-05
-1.99226e-05
-0.000100697
-7.17437e-06
-9.75105e-05
6.66401e-06
-8.52363e-05
1.3834e-05
-6.40109e-05
2.46205e-05
-7.52264e-05
-8.7993e-05
-5.79278e-07
-4.18028e-05
-8.05348e-06
-6.9369e-05
-2.62917e-05
-6.73158e-05
-4.02072e-05
-6.26519e-05
-1.96019e-05
-3.32216e-05
2.05901e-05
-2.19685e-05
9.5718e-05
-5.31627e-05
6.94809e-05
-7.38679e-06
7.31423e-06
3.79082e-05
-3.55679e-05
4.26516e-05
-8.05288e-05
6.13113e-05
-7.17744e-05
-5.75917e-06
-6.38107e-05
-4.50373e-05
-5.91715e-05
-4.90568e-05
-5.35356e-05
-6.23834e-05
-4.49191e-05
-7.45257e-05
-3.8129e-05
-5.42575e-05
-4.53275e-05
-4.39567e-05
-6.87059e-05
-2.54894e-05
-0.000118954
9.32057e-06
-0.000169022
-2.46522e-06
-3.82727e-05
-4.31823e-05
5.89511e-05
-3.89636e-05
2.97748e-05
-8.67285e-06
2.64322e-05
1.80168e-05
4.07671e-05
5.92556e-05
-7.42346e-06
5.42329e-05
-4.15012e-05
2.90344e-05
-2.94274e-05
-1.99089e-06
2.36257e-05
-3.1287e-05
6.66762e-05
-3.55671e-05
4.29862e-05
-1.58633e-05
2.41072e-05
1.95684e-05
-4.14473e-05
2.19339e-05
-5.11562e-05
1.41568e-05
-3.10778e-05
-1.47239e-06
-1.45528e-05
-2.55223e-05
-8.11351e-06
-3.99997e-05
-1.02965e-05
-4.75511e-05
-9.51745e-06
-4.24185e-05
-8.95408e-06
-2.06974e-05
-1.76517e-05
-2.15179e-05
-1.65125e-05
-9.05356e-06
-1.61291e-05
7.76673e-05
-8.32826e-06
2.35788e-05
8.43943e-06
1.07457e-05
4.15356e-05
1.15224e-05
4.92537e-05
-1.37455e-05
4.5875e-05
-3.7772e-05
3.23715e-05
-1.60043e-05
9.30672e-06
4.74186e-05
1.44167e-05
6.15872e-05
2.4945e-06
5.53117e-05
-1.07726e-05
3.73975e-05
-2.64763e-05
-2.56703e-05
-3.18274e-05
-4.57892e-05
-2.12466e-05
-4.16202e-05
-3.48418e-06
-3.22616e-05
1.55647e-05
-2.71248e-05
2.99269e-05
-2.46131e-05
3.98534e-05
-1.93433e-05
4.17641e-05
-1.07069e-05
2.60216e-05
-1.27084e-06
2.39351e-06
7.48255e-06
-2.36478e-05
1.71653e-05
3.81153e-05
9.63368e-06
6.79644e-05
5.72145e-06
2.78453e-05
4.71835e-06
1.15899e-05
1.53485e-05
9.48919e-07
1.61022e-05
-1.44687e-05
8.00595e-06
-2.96861e-05
9.14346e-06
-1.70424e-05
1.48724e-05
4.1665e-05
2.46798e-05
5.17716e-05
3.42927e-05
4.56973e-05
5.16847e-05
2.0034e-05
4.00697e-05
-1.39892e-05
2.39862e-05
-2.96614e-05
1.59793e-05
-3.36657e-05
1.25674e-05
-2.88536e-05
8.63745e-06
-2.32081e-05
2.9222e-06
-1.89111e-05
-2.91866e-06
-1.3519e-05
-4.88817e-06
-8.75023e-06
-4.44112e-06
-1.72485e-06
-9.09186e-06
1.21275e-05
-1.75861e-05
2.56955e-05
4.0907e-05
1.45027e-05
5.35181e-05
1.64077e-05
2.60461e-05
2.02582e-05
7.63169e-06
2.2166e-05
-9.32527e-07
1.43586e-05
-6.66301e-06
-1.51511e-06
-1.38221e-05
-5.48156e-06
-1.30222e-05
1.76165e-05
1.85174e-05
3.73969e-05
3.19426e-05
5.31794e-05
2.98913e-05
5.44685e-05
1.87083e-05
3.45948e-05
5.86351e-06
1.73091e-05
-1.23588e-05
5.42412e-06
-2.18416e-05
-2.54252e-07
-2.32081e-05
-2.32717e-06
-2.11508e-05
-3.05065e-06
-1.8197e-05
-2.83363e-06
-1.37472e-05
-4.38745e-06
-7.20068e-06
-9.00839e-06
2.89713e-06
-1.08215e-05
1.39591e-05
-1.24944e-05
2.73574e-05
4.04612e-05
1.43355e-05
3.92889e-05
1.69474e-05
2.38336e-05
1.43118e-05
1.05424e-05
1.02209e-05
3.21166e-06
5.49777e-06
-1.93492e-06
-2.02891e-06
-6.29637e-06
-9.96538e-06
-5.07716e-06
3.24976e-06
5.26412e-06
2.13504e-05
1.3874e-05
2.9428e-05
2.1798e-05
2.82747e-05
1.98707e-05
2.57392e-05
8.41714e-06
1.7721e-05
-4.29363e-06
8.33226e-06
-1.24548e-05
4.17911e-07
-1.5301e-05
-5.92536e-06
-1.48129e-05
-1.10287e-05
-1.31008e-05
-1.53542e-05
-9.42295e-06
-2.05984e-05
-1.95417e-06
-2.41047e-05
6.4137e-06
-2.572e-05
1.55803e-05
-2.38323e-05
2.55013e-05
3.5253e-05
1.00507e-05
2.91693e-05
1.45299e-05
1.9443e-05
1.49331e-05
1.01572e-05
1.26552e-05
5.48914e-06
7.82806e-06
2.89247e-06
3.80731e-07
1.15126e-06
-6.45922e-06
1.76581e-06
-7.3042e-06
6.11808e-06
-1.82434e-06
8.40568e-06
5.10285e-06
1.48662e-05
9.23362e-06
1.5756e-05
8.55077e-06
9.12489e-06
4.08127e-06
1.89435e-07
-2.2483e-06
-6.12892e-06
-7.83974e-06
-9.71789e-06
-1.26243e-05
-1.00329e-05
-1.74288e-05
-8.29822e-06
-2.18167e-05
-5.03008e-06
-2.34936e-05
-2.67984e-07
-2.42875e-05
7.2219e-06
-2.40234e-05
1.53383e-05
-2.22686e-05
2.37414e-05
3.06544e-05
6.54008e-06
2.26466e-05
1.01924e-05
1.58284e-05
9.91024e-06
1.04432e-05
7.91685e-06
7.48211e-06
5.17328e-06
5.63526e-06
1.71171e-06
4.61221e-06
-1.64201e-06
5.11819e-06
-2.6556e-06
7.1306e-06
-2.32025e-06
8.0702e-06
1.23293e-06
1.13059e-05
4.74256e-06
1.22469e-05
4.26648e-06
9.60366e-06
7.48431e-07
3.70421e-06
-4.10055e-06
-1.28637e-06
-9.04469e-06
-4.77791e-06
-1.28975e-05
-6.18389e-06
-1.60232e-05
-5.16597e-06
-1.87107e-05
-2.32894e-06
-2.17591e-05
2.79631e-06
-2.26589e-05
8.14653e-06
-2.1427e-05
1.41166e-05
-1.83028e-05
2.06368e-05
2.61368e-05
3.71335e-06
1.89294e-05
6.26306e-06
1.32778e-05
6.23312e-06
1.04723e-05
5.07178e-06
8.64239e-06
3.4995e-06
7.20646e-06
1.53917e-06
6.57128e-06
2.70399e-08
6.62896e-06
-3.48286e-07
7.50432e-06
-1.88287e-07
7.90852e-06
1.16792e-06
9.94838e-06
3.10605e-06
1.0307e-05
3.79297e-06
8.91416e-06
2.07148e-06
5.42238e-06
-1.41929e-06
2.19991e-06
-5.64923e-06
-5.53344e-07
-9.44147e-06
-2.38406e-06
-1.24442e-05
-2.14995e-06
-1.48878e-05
1.31196e-07
-1.65296e-05
4.46776e-06
-1.74008e-05
9.03817e-06
-1.66842e-05
1.34218e-05
-1.4431e-05
1.83999e-05
2.29329e-05
2.34464e-06
1.65826e-05
3.58513e-06
1.20357e-05
3.66355e-06
1.03925e-05
3.27055e-06
9.03399e-06
2.53651e-06
7.93912e-06
1.70387e-06
7.40245e-06
1.12796e-06
7.20337e-06
1.01818e-06
7.61247e-06
1.09225e-06
7.83286e-06
2.08138e-06
8.95764e-06
3.29192e-06
9.09477e-06
4.06296e-06
8.14127e-06
3.63158e-06
5.8506e-06
1.99238e-06
3.83406e-06
-5.37446e-07
1.98287e-06
-3.75817e-06
8.34939e-07
-6.92018e-06
1.0233e-06
-9.51407e-06
2.74522e-06
-1.12913e-05
6.25635e-06
-1.26291e-05
1.03984e-05
-1.26327e-05
1.34476e-05
-1.07979e-05
1.65708e-05
2.02075e-05
1.40359e-06
1.51791e-05
2.2955e-06
1.11429e-05
2.60638e-06
1.00802e-05
2.49976e-06
9.1392e-06
2.12916e-06
8.30818e-06
1.73429e-06
7.79589e-06
1.40942e-06
7.52669e-06
1.40285e-06
7.61765e-06
1.5276e-06
7.70665e-06
2.30255e-06
8.18145e-06
3.23449e-06
8.16149e-06
4.03937e-06
7.33485e-06
3.91966e-06
5.96746e-06
2.9021e-06
4.85391e-06
1.14861e-06
3.72313e-06
-1.39075e-06
3.38436e-06
-4.27105e-06
-6.8295e-06
-8.43085e-06
-9.4684e-06
-9.73581e-06
-8.44743e-06
9.38817e-07
1.65901e-06
2.02846e-06
2.09262e-06
1.86728e-06
1.52453e-06
1.15565e-06
9.47792e-07
8.61642e-07
1.31349e-06
1.99315e-06
2.37232e-06
1.97304e-06
1.07094e-06
-5.03094e-07
)
;

boundaryField
{
    leftWall
    {
        type            fixedValue;
        value           uniform 0;
    }
    rightWall
    {
        type            fixedValue;
        value           nonuniform 0();
    }
    lowerWall
    {
        type            fixedValue;
        value           uniform 0;
    }
    atmosphere
    {
        type            calculated;
        value           nonuniform 0();
    }
    defaultFaces
    {
        type            empty;
        value           nonuniform 0();
    }
    procBoundary0to1
    {
        type            processor;
        value           nonuniform List<scalar> 
26
(
-3.10626e-06
-2.36784e-06
-2.41081e-07
-3.75213e-07
-7.64054e-07
-2.20908e-06
-2.53667e-06
-2.39886e-06
2.88264e-06
3.74274e-05
8.99271e-05
8.61917e-05
5.18903e-05
3.88391e-05
-0.000222287
-5.07024e-05
-2.06631e-05
-4.09096e-05
-2.04015e-05
-1.20228e-05
-1.86473e-05
-1.76581e-05
-1.37986e-05
-1.12327e-05
-8.04871e-06
-6.06666e-06
)
;
    }
    procBoundary0to2
    {
        type            processor;
        value           nonuniform List<scalar> 
24
(
3.89522e-06
5.2969e-06
7.86611e-06
1.14371e-05
1.37184e-05
1.53129e-05
1.78106e-05
1.42364e-05
1.04206e-05
9.70914e-06
9.07346e-06
8.5321e-06
8.13715e-06
7.8943e-06
7.8242e-06
7.79177e-06
7.72854e-06
7.48103e-06
6.9545e-06
6.36622e-06
5.74808e-06
5.30977e-06
-2.72999e-06
5.58697e-06
)
;
    }
}


// ************************************************************************* //
