/*--------------------------------*- C++ -*----------------------------------*\
| =========                 |                                                 |
| \\      /  F ield         | OpenFOAM: The Open Source CFD Toolbox           |
|  \\    /   O peration     | Version:  2.4.0                                 |
|   \\  /    A nd           | Web:      www.OpenFOAM.org                      |
|    \\/     M anipulation  |                                                 |
\*---------------------------------------------------------------------------*/
FoamFile
{
    version     2.0;
    format      ascii;
    class       volScalarField;
    location    "0.65";
    object      rho;
}
// * * * * * * * * * * * * * * * * * * * * * * * * * * * * * * * * * * * * * //

dimensions      [1 -3 0 0 0 0 0];

internalField   nonuniform List<scalar> 
575
(
13529
13529
13529
13529
13529
13529
13529
13529
13529
13529
13529
13529
13529
13529
13529
13529
13529
13529
13529
13529
13529
13529
13529
13528.9
13529
13528.9
13528.9
13529
13529
13529
13529
13529
13529
13529
13529
13529
13529
13529
13529
13529
13529
13529
13529
13529
13466.6
13461.8
13475.4
13459.8
13454.5
13468.2
13474.4
13485
13493.3
13514.7
13527.2
13528.8
13529
13529
13529
13529
13529
13529
13529
13529
13529
13529
9728.55
9676.64
9780.74
9612
9477.4
9533.95
9606.85
9783.57
10105.6
10860.7
12156
13286.9
13518.4
13528.7
13529
13529
13529
13529
13529
13529
13529
13529
1179.03
1167.7
1176.61
1154.09
1136.13
1125.48
1111.33
1116.97
1129.53
1185.81
1478.15
3613.48
7880.87
12619.1
13502
13528
13528.9
13529
13529
13529
13529
13529
1000.07
1000.07
1000.07
1000.07
1000.06
1000.06
1000.06
1000.06
1000.07
1000.07
1000.23
1023.3
1437.56
5800.8
12886.1
13515.7
13528.1
13528.8
13528.9
13528.9
13529
13529
1000.08
1000.08
1000.08
1000.08
1000.07
1000.06
1000.07
1000.07
1000.07
1000.07
1000.07
1000.07
1003.99
1705.84
9187.32
13376
13523.1
13527.5
13528.1
13528.7
13528.9
13528.9
1000.1
1000.1
1000.09
1000.09
1000.07
1000.06
1000.06
1000.07
1000.06
1000.07
1000.08
1000.08
1000.45
1172.5
4828.56
12232.1
13506.5
13528.6
13528.6
13528.6
13517.4
13500.4
1000.05
1000.05
1000.04
1000.04
1000.04
1000.02
1000.01
1000.01
1000.02
1000.03
1000.05
1000.06
1000.09
1013.97
1584.36
4921.58
10486.6
12759.4
12511.7
11572.9
10659.9
10347.7
1000.01
1000.01
1000.01
1000
999.972
998.643
996.957
997.076
998.387
999.098
999.611
999.839
999.987
1000.93
1012.55
1195.4
1835.62
2721.9
3570.65
3303.11
2590.4
2311.21
1000
1000
999.992
999.192
991.768
944.761
922.469
936.367
960.489
975.433
987.223
994.106
998.684
999.781
1000.88
1001.99
1014.1
1033.39
1027.52
1018.87
1005.01
989.406
999.999
999.955
996.784
952.037
845.835
687.627
645.031
660.282
696.539
727.165
779.396
844.066
931.733
978.05
993.423
997.722
998.707
990.602
977.92
947.405
904.906
856.741
941.169
922.497
888.608
723.486
546.609
461.972
458.294
485.672
513.181
539.024
549.075
551.775
590.778
682.17
747.26
799.622
848.432
792.619
764.648
712.219
622.95
502.213
107.502
73.8191
67.6478
109.572
90.8053
25.6732
42.616
131.823
222.835
282.574
306.583
334.519
396.117
439.017
448.259
458.424
434.602
352.594
308.136
216.779
122.079
48.1312
1.1647
1.27263
1.60815
2.19796
1.79408
1.04238
1.00046
1.00004
1.00067
1.0156
1.05328
1.99708
8.67172
23.2097
30.0263
30.9628
15.2271
4.90034
1.86381
1.06191
1.00299
1.00066
1.00018
1.00031
1.00085
1.00127
1.0005
1.00005
1.00001
1.00004
1.00002
1.00002
1.00002
1.00002
1.00002
1.00002
1.00004
1.00006
1.00015
1.00009
1.00007
1.00017
1.00006
1.00003
1.00008
1.00006
1.00005
1.00008
1.00002
1
1.00001
1.00003
1.00003
1.00002
1.00002
1.00002
1.00002
1.00003
1.00006
1.00008
1.0001
1.00008
1.00007
1.00003
1.00003
1.00003
1.00002
1.00004
1.00004
1.00002
1.00001
1
1
1.00001
1.00004
1.00004
1.00002
1.00002
1.00002
1.00003
1.00008
1.00013
1.0002
1.0002
1.0002
1.0001
1.00004
1.00003
1.00003
1.00002
1.00006
1.00004
1.00002
1
0.999999
1
1.00001
1.00003
1.00002
1.00002
1.00003
1.00004
1.00004
1.00013
1.0002
1.0002
1.00016
1.00013
1.00009
1.00005
1.00004
1.00004
1.00003
1.00005
1.00002
1
0.999999
0.999999
0.999999
1
1.00001
1.00002
1.00004
1.00005
1.00004
1.00003
1.00006
1.00012
1.00005
1.00002
1.00002
1.00002
1.00003
1.00004
1.00003
1.00002
1.00002
1.00001
0.999999
0.999999
0.999999
0.999999
0.999999
1
1
1.00003
1.00002
1.00001
1.00002
1.00002
1.00002
1.00002
1.00002
1.00002
1.00001
1.00002
1.00002
1.00001
1.00001
1
0.999999
0.999999
0.999999
0.999999
0.999999
1
1
1
1
1
1
1.00001
1.00001
1.00002
1.00004
1.00003
1.00002
1.00001
1.00001
1.00001
1
1
0.999999
0.999999
0.999999
0.999999
0.999999
0.999999
1
1
1
1
1
1
1
1.00002
1.00005
1.00006
1.00004
1.00003
1.00001
1
1
1
1
0.999999
0.999999
0.999999
0.999999
0.999999
1
1
1
1
1
1
1
1
1.00002
1.00006
1.00006
1.00005
1.00002
1.00001
1
1
1
0.999998
0.999999
0.999999
0.999999
0.999999
0.999999
1
1
1
1
1
1
1
1
1.00002
1.00004
1.00005
1.00003
1.00002
1.00001
1.00001
1
0.999999
0.999999
0.999999
0.999999
0.999999
0.999999
1
1
1
1
1
1
1
1
1
1.00001
1.00002
1.00002
)
;

boundaryField
{
    leftWall
    {
        type            calculated;
        value           nonuniform List<scalar> 
26
(
13529
13529
13466.6
9728.55
1179.03
1000.07
1000.08
1000.1
1000.05
1000.01
1000
999.999
941.169
107.502
1.1647
1.00018
1.00008
1.00004
1.00006
1.00005
1.00002
1
0.999999
0.999999
0.999999
0.999999
)
;
    }
    rightWall
    {
        type            calculated;
        value           nonuniform 0();
    }
    lowerWall
    {
        type            calculated;
        value           nonuniform List<scalar> 
22
(
13529
13529
13529
13529
13529
13529
13529
13529
13529
13529
13529
13529
13529
13529
13529
13529
13529
13529
13529
13529
13529
13529
)
;
    }
    atmosphere
    {
        type            calculated;
        value           nonuniform 0();
    }
    defaultFaces
    {
        type            empty;
    }
    procBoundary0to1
    {
        type            processor;
        value           nonuniform List<scalar> 
26
(
13528.9
13528.8
13528.8
13528.8
13528.8
13528.8
13528.8
13526.4
10945.4
2374.45
969.299
800.289
379.194
6.45396
1.0012
1.00003
1.00003
1.00002
1.00002
1.00002
1.00001
1.00001
1
1
0.999999
0.999996
)
;
    }
    procBoundary0to2
    {
        type            processor;
        value           nonuniform List<scalar> 
24
(
1.00003
1.00002
1.00001
1
1
1
0.999998
0.999999
0.999999
0.999999
0.999999
1
1
1
1
1
1
1
1
1
1.00001
1.00001
1.00003
1.00002
)
;
    }
}


// ************************************************************************* //
