/*--------------------------------*- C++ -*----------------------------------*\
| =========                 |                                                 |
| \\      /  F ield         | OpenFOAM: The Open Source CFD Toolbox           |
|  \\    /   O peration     | Version:  2.4.0                                 |
|   \\  /    A nd           | Web:      www.OpenFOAM.org                      |
|    \\/     M anipulation  |                                                 |
\*---------------------------------------------------------------------------*/
FoamFile
{
    version     2.0;
    format      ascii;
    class       volVectorField;
    location    "0.65";
    object      U;
}
// * * * * * * * * * * * * * * * * * * * * * * * * * * * * * * * * * * * * * //

dimensions      [0 1 -1 0 0 0 0];

internalField   nonuniform List<vector> 
575
(
(0.013151 0.00091501 0)
(0.036283 -0.000217646 0)
(0.063927 0.0045021 0)
(0.0773026 -2.82029e-05 0)
(0.110014 -0.00076497 0)
(0.136324 0.00381854 0)
(0.148214 0.00600267 0)
(0.162356 0.0103028 0)
(0.173106 0.0101092 0)
(0.191112 0.0163744 0)
(0.193275 0.0349808 0)
(0.177458 0.0387455 0)
(0.141989 0.0325313 0)
(0.0843254 0.0224991 0)
(0.0269896 0.0101789 0)
(-0.0201037 -0.0058667 0)
(-0.0471597 -0.00489818 0)
(-0.0732601 -0.00682586 0)
(-0.0810208 0.0005623 0)
(-0.0853457 -0.00824173 0)
(-0.0511242 -0.00445431 0)
(-0.0374011 -0.000703912 0)
(0.0141641 -0.0286868 0)
(0.0350144 -0.0307641 0)
(0.0640224 -0.0248582 0)
(0.0802246 -0.0303446 0)
(0.109965 -0.0305842 0)
(0.134816 -0.0247218 0)
(0.150941 -0.0257304 0)
(0.166608 -0.0247029 0)
(0.185534 -0.0292983 0)
(0.1992 -0.0330105 0)
(0.19393 -0.0334943 0)
(0.172543 -0.0196759 0)
(0.134549 0.0112529 0)
(0.0825248 0.031003 0)
(0.0218466 0.0381752 0)
(-0.0222842 0.0356942 0)
(-0.0477349 0.0274112 0)
(-0.0681169 0.0187936 0)
(-0.0811518 0.00521688 0)
(-0.0739564 -0.00596493 0)
(-0.0557454 -0.0176752 0)
(-0.031098 -0.00770714 0)
(0.0151005 -0.0072004 0)
(0.032798 -0.00942381 0)
(0.0625417 -0.00138835 0)
(0.0869016 -0.00934086 0)
(0.104941 -0.0103597 0)
(0.130466 -0.00228989 0)
(0.147741 0.00130408 0)
(0.167141 0.00814689 0)
(0.18448 0.00947085 0)
(0.184464 0.0258845 0)
(0.184017 0.0638302 0)
(0.186228 0.091131 0)
(0.161693 0.086053 0)
(0.111141 0.0771403 0)
(0.0417653 0.0567561 0)
(-0.0232219 0.0328157 0)
(-0.0641087 0.0248618 0)
(-0.0817365 0.0155129 0)
(-0.0940173 0.00659255 0)
(-0.0703132 -0.0186266 0)
(-0.0478049 -0.0252693 0)
(-0.0103949 -0.0154648 0)
(0.0159915 -0.1008 0)
(0.0291804 -0.10234 0)
(0.0564695 -0.0970815 0)
(0.0890715 -0.102068 0)
(0.0981839 -0.0998211 0)
(0.119192 -0.0932421 0)
(0.14632 -0.0918699 0)
(0.172539 -0.088811 0)
(0.189446 -0.086434 0)
(0.194267 -0.0771412 0)
(0.193088 -0.0646168 0)
(0.173413 -0.0403236 0)
(0.131893 0.0385279 0)
(0.0826399 0.111219 0)
(0.0172996 0.107689 0)
(-0.034265 0.0737031 0)
(-0.0673087 0.044775 0)
(-0.0820143 0.0216907 0)
(-0.0938364 0.00152201 0)
(-0.0712133 -0.029518 0)
(-0.0582088 -0.0461852 0)
(-0.0112941 -0.030193 0)
(0.00830501 0.127809 0)
(0.0190489 0.133302 0)
(0.0345444 0.124757 0)
(0.0586424 0.136468 0)
(0.0637798 0.141479 0)
(0.0697823 0.1396 0)
(0.0918135 0.151095 0)
(0.101301 0.157798 0)
(0.0992655 0.175002 0)
(0.10074 0.195106 0)
(0.0905325 0.21988 0)
(0.105967 0.180268 0)
(0.111914 0.0961922 0)
(0.0595639 0.0915257 0)
(-0.0134145 0.108993 0)
(-0.0597907 0.0823933 0)
(-0.0813606 0.057157 0)
(-0.0869588 0.0333012 0)
(-0.0916249 -0.00132873 0)
(-0.0684756 -0.0359208 0)
(-0.0722528 -0.0544971 0)
(-0.0238559 -0.0469286 0)
(-0.0059604 -0.171174 0)
(-0.000732696 -0.173338 0)
(-0.00695967 -0.175506 0)
(-0.0095879 -0.176351 0)
(-0.00405237 -0.173916 0)
(-0.00476998 -0.178863 0)
(-0.00674419 -0.177702 0)
(-0.0164218 -0.171942 0)
(-0.0190185 -0.170588 0)
(-0.014874 -0.170406 0)
(0.00971182 -0.148796 0)
(0.0553138 -0.014435 0)
(0.0633584 0.249123 0)
(-0.0555261 0.216501 0)
(-0.0678443 0.126766 0)
(-0.120624 0.0898637 0)
(-0.120531 0.0518764 0)
(-0.107004 0.0313151 0)
(-0.0929587 -0.00126814 0)
(-0.0663056 -0.0348512 0)
(-0.0773093 -0.0631236 0)
(-0.0494998 -0.0647863 0)
(-0.00573742 0.0140642 0)
(-0.0118509 0.017427 0)
(-0.0148157 0.009479 0)
(-0.0122709 0.0207225 0)
(-0.011643 0.0277697 0)
(-0.00069162 0.0237906 0)
(0.00871489 0.043534 0)
(-0.00430373 0.0577988 0)
(-0.0189077 0.0729764 0)
(-0.0455631 0.0842351 0)
(-0.0973567 0.0942148 0)
(-0.147214 0.0486009 0)
(-0.107432 0.0467068 0)
(-0.142463 0.241836 0)
(-0.196871 0.176205 0)
(-0.190963 0.102588 0)
(-0.179197 0.0500545 0)
(-0.139005 0.00385875 0)
(-0.106364 -0.0272219 0)
(-0.0792355 -0.0437147 0)
(-0.0809752 -0.0646916 0)
(-0.0550839 -0.0798444 0)
(-0.00533243 -0.0616755 0)
(-0.00953019 -0.0670605 0)
(-0.01482 -0.0741896 0)
(-0.0167003 -0.0770859 0)
(-0.0090452 -0.0783662 0)
(-0.0103065 -0.0837393 0)
(-0.0134649 -0.0726528 0)
(-0.0254699 -0.0642115 0)
(-0.0267367 -0.0630175 0)
(-0.0320232 -0.054397 0)
(-0.02695 -0.0200985 0)
(-0.0506949 0.0537711 0)
(-0.123915 0.153431 0)
(-0.172229 0.231677 0)
(-0.372474 0.216315 0)
(-0.333139 0.0666526 0)
(-0.307017 0.0299707 0)
(-0.230818 0.0188621 0)
(-0.172591 -0.0151999 0)
(-0.11552 -0.0344119 0)
(-0.0803091 -0.0713031 0)
(-0.0451361 -0.0978731 0)
(-0.00611606 -0.0598785 0)
(-0.0140983 -0.0600202 0)
(-0.0168346 -0.0629603 0)
(-0.00930842 -0.0582728 0)
(0.00494446 -0.04884 0)
(0.0138308 -0.0485958 0)
(0.0304409 -0.0173032 0)
(0.0190155 0.0133103 0)
(-0.00872138 0.0455376 0)
(-0.057637 0.0639018 0)
(-0.109076 0.0640978 0)
(-0.127799 0.0398792 0)
(-0.121647 0.0798543 0)
(-0.0818366 0.218712 0)
(-0.107394 0.304515 0)
(-0.246726 0.190222 0)
(-0.277938 -0.0411637 0)
(-0.275568 -0.160614 0)
(-0.252456 -0.168005 0)
(-0.183192 -0.151069 0)
(-0.0817383 -0.160409 0)
(-0.0121035 -0.176842 0)
(-0.00493793 0.0213642 0)
(-0.0121125 0.00606289 0)
(-0.0143268 -0.0237057 0)
(-0.0070946 -0.0482741 0)
(0.0126545 -0.0489906 0)
(0.0206683 -0.0598086 0)
(0.0334122 -0.0272595 0)
(0.0259617 0.00747717 0)
(0.0309958 0.0349345 0)
(0.0230669 0.0616824 0)
(0.00156016 0.0919057 0)
(-0.00789227 0.115733 0)
(-0.02814 0.159252 0)
(-0.0032648 0.215592 0)
(0.0793095 0.26532 0)
(0.1629 0.253575 0)
(0.131778 0.221043 0)
(0.0431671 0.127935 0)
(0.0081034 -0.0109901 0)
(0.0540355 -0.130872 0)
(0.132882 -0.188775 0)
(0.15654 -0.125867 0)
(-0.0106014 -0.087128 0)
(-0.0382952 -0.101069 0)
(-0.0531021 -0.118309 0)
(-0.0306993 -0.134127 0)
(0.0137491 -0.12894 0)
(0.0302445 -0.126173 0)
(0.0472381 -0.0749282 0)
(0.0130825 -0.025678 0)
(-0.0191038 0.00275739 0)
(-0.0509206 0.029197 0)
(-0.0539603 0.0469879 0)
(-0.0455665 0.0555672 0)
(-0.0271419 0.102636 0)
(0.0294463 0.144329 0)
(0.100417 0.14835 0)
(0.189451 0.0975491 0)
(0.276381 0.041339 0)
(0.329612 -0.00728109 0)
(0.402101 -0.110977 0)
(0.42912 -0.178178 0)
(0.428606 -0.186632 0)
(0.450641 -0.206719 0)
(-0.0363593 0.0989656 0)
(-0.0909229 0.0916468 0)
(-0.0874209 0.0240596 0)
(-0.0660007 -0.0583364 0)
(-0.068491 -0.0515601 0)
(-0.127037 -0.0311535 0)
(-0.135813 0.0443356 0)
(-0.121095 0.11038 0)
(-0.117294 0.130041 0)
(-0.114825 0.129447 0)
(-0.0982891 0.10418 0)
(-0.0968323 0.0749899 0)
(-0.0689695 0.0441191 0)
(-0.0187569 0.0387539 0)
(0.0350297 0.0407439 0)
(0.115491 0.00996505 0)
(0.19254 -0.0153109 0)
(0.244975 -0.0906597 0)
(0.342239 -0.161217 0)
(0.356407 -0.249271 0)
(0.408695 -0.31572 0)
(0.442367 -0.361672 0)
(-0.0140667 -0.00374059 0)
(-0.0407919 -0.0501702 0)
(-0.0899801 -0.214349 0)
(-0.348476 -0.255227 0)
(-0.602632 -0.123973 0)
(-0.68406 -0.105249 0)
(-0.690438 -0.104294 0)
(-0.601954 -0.0493999 0)
(-0.513391 -0.0229506 0)
(-0.425002 0.0303473 0)
(-0.35341 0.0621706 0)
(-0.309279 0.05952 0)
(-0.205315 0.0859428 0)
(-0.108684 0.0857589 0)
(-0.0292903 0.0503923 0)
(0.0560232 -0.0257091 0)
(0.124707 -0.0848678 0)
(0.149434 -0.175397 0)
(0.238461 -0.221918 0)
(0.219126 -0.288772 0)
(0.267066 -0.321076 0)
(0.282124 -0.325296 0)
(0.0222226 0.200655 0)
(0.0225203 0.31211 0)
(-0.16596 0.514304 0)
(-0.496763 0.393284 0)
(-0.561854 0.256252 0)
(-0.650088 0.490001 0)
(-0.743264 0.139153 0)
(-0.668009 -0.215948 0)
(-0.616727 -0.270279 0)
(-0.589608 -0.244267 0)
(-0.579175 -0.193484 0)
(-0.511559 -0.198588 0)
(-0.42039 -0.204345 0)
(-0.323477 -0.164931 0)
(-0.255841 -0.158183 0)
(-0.172691 -0.142689 0)
(-0.105939 -0.162532 0)
(-0.0650089 -0.213916 0)
(0.034208 -0.258038 0)
(0.0571419 -0.300933 0)
(0.0575914 -0.31426 0)
(-0.0210114 -0.177558 0)
(-0.0675217 0.109762 0)
(-0.0618954 0.360999 0)
(-0.0143406 0.623373 0)
(-0.0901186 0.754477 0)
(-0.219049 0.576853 0)
(0.0238414 -0.0369178 0)
(0.422551 -0.0681553 0)
(0.562008 0.142529 0)
(0.250667 0.4531 0)
(-0.119256 0.745975 0)
(-0.293596 1.03851 0)
(-0.562321 0.883512 0)
(-0.359523 0.510762 0)
(-0.343149 0.25157 0)
(-0.287705 0.106487 0)
(-0.254042 0.0592263 0)
(-0.251745 0.246705 0)
(-0.311916 0.363285 0)
(-0.534512 0.478826 0)
(-0.823957 0.594754 0)
(-1.12573 0.211085 0)
(-1.22003 -0.113855 0)
(-0.253759 0.206488 0)
(-0.264431 0.161114 0)
(-0.0992629 0.222956 0)
(-0.00751919 0.295273 0)
(0.263098 -0.0744189 0)
(0.324484 -0.376691 0)
(0.24413 -0.370714 0)
(0.110961 -0.157746 0)
(-0.137256 0.121007 0)
(-0.20545 -0.153902 0)
(-0.214851 -0.326955 0)
(0.0810879 -0.742896 0)
(0.0872248 -0.681152 0)
(0.131135 -0.354678 0)
(0.0434024 -0.12782 0)
(-0.0637851 -0.085087 0)
(-0.183178 -0.206443 0)
(-0.224886 -0.282696 0)
(-0.290303 -0.322938 0)
(-0.164683 -0.440596 0)
(-0.0915795 -0.390168 0)
(-0.165754 -0.306269 0)
(-0.18624 0.370986 0)
(-0.0199133 0.0796436 0)
(-0.0419224 -0.00349229 0)
(0.123687 0.0736284 0)
(0.297323 -0.043217 0)
(0.228768 -0.15191 0)
(0.228212 -0.0359273 0)
(0.141846 0.30675 0)
(-0.0156193 0.415463 0)
(0.135216 0.445357 0)
(-0.0961619 0.443414 0)
(-0.0550727 0.0644365 0)
(-0.18083 -0.117191 0)
(-0.158475 -0.171737 0)
(-0.0671902 -0.17184 0)
(0.03265 -0.142603 0)
(0.117673 -0.0741666 0)
(0.188141 0.00619046 0)
(0.222039 0.0730584 0)
(0.199646 0.122019 0)
(0.0958111 0.132988 0)
(-0.0578764 0.167368 0)
(-0.181646 0.289847 0)
(-0.00873822 0.428149 0)
(0.088574 0.198287 0)
(-0.0104645 0.134258 0)
(0.0518321 0.0516536 0)
(0.115239 -0.0764185 0)
(0.0661596 -0.211902 0)
(0.00573245 -0.0948219 0)
(0.0971984 0.293643 0)
(0.0829318 0.350932 0)
(0.17235 0.282119 0)
(0.215353 0.0743011 0)
(0.293824 -0.222269 0)
(0.171078 -0.244387 0)
(0.0835087 -0.179676 0)
(0.0747685 -0.0894598 0)
(0.0588039 -0.0363183 0)
(0.0313173 -0.0470474 0)
(-0.000105763 -0.070273 0)
(-0.0254399 -0.078415 0)
(-0.0248689 -0.0548214 0)
(-0.0324846 0.00563812 0)
(-0.0724859 0.0822128 0)
(-0.102228 0.188859 0)
(0.0491867 0.347259 0)
(0.0910543 0.129481 0)
(0.102446 0.00334046 0)
(0.119597 -0.0382489 0)
(0.114595 -0.0661156 0)
(0.0445524 -0.100863 0)
(-0.0683889 -0.0927727 0)
(0.0217384 0.180675 0)
(0.160973 0.212901 0)
(0.249427 0.169769 0)
(0.304441 0.105709 0)
(0.265432 0.0333758 0)
(0.128 -0.0993742 0)
(0.0510479 -0.173941 0)
(0.00723611 -0.199475 0)
(-0.00928276 -0.200399 0)
(-0.0146705 -0.182893 0)
(-0.0160949 -0.14493 0)
(-0.0181055 -0.0810553 0)
(-0.0375226 -0.00663207 0)
(-0.0498814 0.0668951 0)
(-0.0610456 0.135865 0)
(-0.0645416 0.20895 0)
(0.0572359 0.248049 0)
(0.0916633 0.145991 0)
(0.0873115 0.0767783 0)
(0.066315 0.0251386 0)
(0.0463642 -0.0174172 0)
(0.0188011 -0.0595757 0)
(-0.0479938 -0.0531584 0)
(-0.0409067 0.0126264 0)
(0.0670768 0.108607 0)
(0.167386 0.135882 0)
(0.159156 0.110212 0)
(0.142756 0.0415973 0)
(0.124575 -0.0325627 0)
(0.0692795 -0.0715909 0)
(0.0199248 -0.0723658 0)
(-0.0165435 -0.0565073 0)
(-0.0473541 -0.0399941 0)
(-0.0723266 -0.0177223 0)
(-0.097718 0.015114 0)
(-0.121481 0.0582826 0)
(-0.133685 0.114471 0)
(-0.133926 0.170326 0)
(-0.112336 0.225453 0)
(0.0362131 0.171774 0)
(0.0695577 0.10894 0)
(0.0841527 0.0446977 0)
(0.0776128 0.0155048 0)
(0.0584758 0.00231777 0)
(0.0230225 -0.00491533 0)
(-0.0205686 -0.00132187 0)
(-0.0419776 0.0362123 0)
(-0.0393092 0.0462386 0)
(0.0180794 0.0966874 0)
(0.0419733 0.0925873 0)
(0.053748 0.0393674 0)
(0.0357393 -0.0148284 0)
(0.00490232 -0.0552727 0)
(-0.0287594 -0.076991 0)
(-0.0548708 -0.0799433 0)
(-0.080761 -0.0737658 0)
(-0.106453 -0.0574096 0)
(-0.123663 -0.0248063 0)
(-0.129573 0.018074 0)
(-0.129251 0.0690202 0)
(-0.125023 0.124988 0)
(-0.107396 0.175471 0)
(0.0229722 0.137884 0)
(0.0472104 0.0972756 0)
(0.0577261 0.0601952 0)
(0.0493738 0.039026 0)
(0.03533 0.0254699 0)
(0.0185293 0.0165831 0)
(-0.00237203 0.0187136 0)
(-0.0131456 0.0344378 0)
(-0.0174147 0.0427294 0)
(-0.00721712 0.0634511 0)
(0.0224232 0.0729204 0)
(0.0274653 0.0558532 0)
(0.0159716 0.0163684 0)
(-0.00781862 -0.0185832 0)
(-0.0366918 -0.0390572 0)
(-0.059412 -0.043111 0)
(-0.0778198 -0.0330554 0)
(-0.0944151 -0.013407 0)
(-0.109831 0.0179874 0)
(-0.119946 0.0496057 0)
(-0.119239 0.0835693 0)
(-0.107234 0.119917 0)
(-0.0847739 0.149328 0)
(0.0123639 0.108747 0)
(0.0287698 0.0739903 0)
(0.0355835 0.0547839 0)
(0.0307053 0.044583 0)
(0.0228585 0.0371032 0)
(0.0134862 0.033337 0)
(0.00218235 0.0347571 0)
(-0.00165023 0.040183 0)
(-0.00266186 0.0430229 0)
(0.00066903 0.0569528 0)
(0.0130934 0.0600878 0)
(0.0209162 0.0495085 0)
(0.018499 0.0265752 0)
(0.00379662 0.00695682 0)
(-0.0190294 -0.00906416 0)
(-0.0411191 -0.0189599 0)
(-0.0593683 -0.0154888 0)
(-0.0740955 -0.00262209 0)
(-0.0847916 0.0200287 0)
(-0.0914562 0.0474694 0)
(-0.0930322 0.0768754 0)
(-0.0836995 0.10843 0)
(-0.0676083 0.135406 0)
(0.00810972 0.094239 0)
(0.0168759 0.068094 0)
(0.0200697 0.0566938 0)
(0.0188251 0.0477784 0)
(0.0154695 0.0410925 0)
(0.0109639 0.0381558 0)
(0.00697605 0.0373887 0)
(0.00572115 0.0412074 0)
(0.00465143 0.0424508 0)
(0.00788135 0.0502927 0)
(0.0154309 0.0514461 0)
(0.0200331 0.0462295 0)
(0.0227786 0.0316654 0)
(0.0167485 0.017591 0)
(0.00456856 0.00498985 0)
(-0.00998195 -0.00350467 0)
(-0.0297212 -0.00461797 0)
(-0.0444994 0.00489709 0)
(-0.0557194 0.0257456 0)
(-0.0642968 0.0483218 0)
(-0.0698399 0.0685121 0)
(-0.063623 0.0919984 0)
(-0.0498527 0.115986 0)
(0.00476701 0.0851773 0)
(0.0101871 0.0624345 0)
(0.0135318 0.05537 0)
(0.0139346 0.0494531 0)
(0.0122869 0.044207 0)
(0.0102136 0.0410028 0)
(0.00804753 0.0396937 0)
(0.00746134 0.0407663 0)
(0.00728866 0.0417908 0)
(0.0098514 0.0462938 0)
(0.0152685 0.0472599 0)
(0.0201632 0.0425442 0)
(0.0226451 0.0319554 0)
(0.0199252 0.0234476 0)
(0.011362 0.0156553 0)
(0.000863382 0.0123336 0)
(-0.0152728 0.0150812 0)
(-0.0303357 0.0235416 0)
(-0.04175 0.0400818 0)
(-0.0472596 0.0614806 0)
(-0.0527487 0.0747936 0)
(-0.0500961 0.0858869 0)
(-0.0386542 0.102495 0)
(0.00286994 0.0790617 0)
(0.00709765 0.0580262 0)
(0.0101337 0.0533723 0)
(0.0112642 0.0492102 0)
(0.0107436 0.0456052 0)
(0.00908203 0.0428678 0)
(0.00705723 0.0414432 0)
(0.00555843 0.0412578 0)
(0.00452105 0.0413549 0)
(0.00521998 0.0423807 0)
(0.00910779 0.0413177 0)
(0.0128608 0.0373172 0)
(0.0124609 0.0330296 0)
(0.00921259 0.029801 0)
(0.00227434 0.0251817 0)
(-0.00752812 0.0254449 0)
)
;

boundaryField
{
    leftWall
    {
        type            calculated;
        value           uniform (0 0 0);
    }
    rightWall
    {
        type            calculated;
        value           nonuniform 0();
    }
    lowerWall
    {
        type            calculated;
        value           uniform (0 0 0);
    }
    atmosphere
    {
        type            calculated;
        value           nonuniform 0();
    }
    defaultFaces
    {
        type            empty;
    }
    procBoundary0to1
    {
        type            processor;
        value           nonuniform List<vector> 
26
(
(-0.0347174 -0.00617304 0)
(-0.0239694 -0.0280044 0)
(0.00467378 -0.0306335 0)
(0.00219982 -0.0306933 0)
(0.00575776 -0.0347339 0)
(-0.00156409 -0.0397079 0)
(-0.00299424 -0.0564012 0)
(0.00273834 -0.0609689 0)
(0.0510351 -0.123645 0)
(0.231383 -0.102411 0)
(0.512397 -0.224607 0)
(0.488982 -0.394465 0)
(0.325271 -0.350586 0)
(-0.157688 0.406078 0)
(-1.21032 -0.121853 0)
(-0.339193 -0.115652 0)
(-0.339193 -0.115652 0)
(-0.218766 0.442536 0)
(-0.104143 0.311236 0)
(-0.0589046 0.267002 0)
(-0.0907001 0.258379 0)
(-0.0865619 0.196486 0)
(-0.0677832 0.159596 0)
(-0.0562786 0.144747 0)
(-0.0393705 0.12645 0)
(-0.0291563 0.110809 0)
)
;
    }
    procBoundary0to2
    {
        type            processor;
        value           nonuniform List<vector> 
24
(
(-0.0211242 0.0284955 0)
(-0.0299745 0.0350912 0)
(-0.0358941 0.0465083 0)
(-0.0402281 0.0637456 0)
(-0.0384408 0.074651 0)
(-0.0348785 0.0804434 0)
(-0.0241388 0.0907743 0)
(0.00201904 0.0750124 0)
(0.00546484 0.0547154 0)
(0.00780325 0.051558 0)
(0.00824129 0.0487517 0)
(0.00789323 0.0464705 0)
(0.00621258 0.0446314 0)
(0.00438939 0.0434725 0)
(0.00284551 0.0429533 0)
(0.00145838 0.0424321 0)
(0.00119177 0.0412338 0)
(0.00133271 0.0396117 0)
(0.00179024 0.0374974 0)
(-0.000256714 0.0353493 0)
(-0.00247969 0.0321983 0)
(-0.00776314 0.0318856 0)
(-0.0211242 0.0284955 0)
(-0.0141639 0.0348141 0)
)
;
    }
}


// ************************************************************************* //
