/*--------------------------------*- C++ -*----------------------------------*\
| =========                 |                                                 |
| \\      /  F ield         | OpenFOAM: The Open Source CFD Toolbox           |
|  \\    /   O peration     | Version:  2.4.0                                 |
|   \\  /    A nd           | Web:      www.OpenFOAM.org                      |
|    \\/     M anipulation  |                                                 |
\*---------------------------------------------------------------------------*/
FoamFile
{
    version     2.0;
    format      ascii;
    class       volVectorField;
    location    "0.65";
    object      U.air;
}
// * * * * * * * * * * * * * * * * * * * * * * * * * * * * * * * * * * * * * //

dimensions      [0 1 -1 0 0 0 0];

internalField   nonuniform List<vector> 
575
(
(0.013151 0.000915007 0)
(0.036283 -0.000217607 0)
(0.0639271 0.0045021 0)
(0.0773027 -2.81416e-05 0)
(0.110014 -0.000764902 0)
(0.136324 0.0038186 0)
(0.148214 0.00600275 0)
(0.162356 0.0103029 0)
(0.173106 0.0101094 0)
(0.191111 0.0163747 0)
(0.193275 0.0349811 0)
(0.177459 0.0387457 0)
(0.141991 0.0325311 0)
(0.0843259 0.0224985 0)
(0.026989 0.0101786 0)
(-0.0201049 -0.00586686 0)
(-0.0471615 -0.00489825 0)
(-0.0732623 -0.00682585 0)
(-0.0810229 0.000562429 0)
(-0.0853473 -0.00824153 0)
(-0.0511252 -0.00445402 0)
(-0.0374015 -0.000703534 0)
(0.0141641 -0.0286867 0)
(0.0350144 -0.0307639 0)
(0.0640225 -0.024858 0)
(0.0802248 -0.0303444 0)
(0.109965 -0.0305839 0)
(0.134817 -0.0247215 0)
(0.150941 -0.0257301 0)
(0.166608 -0.0247025 0)
(0.185534 -0.0292978 0)
(0.1992 -0.03301 0)
(0.19393 -0.0334936 0)
(0.172544 -0.0196752 0)
(0.134549 0.011253 0)
(0.0825252 0.0310021 0)
(0.0218462 0.0381746 0)
(-0.0222852 0.0356939 0)
(-0.0477366 0.0274112 0)
(-0.068119 0.0187937 0)
(-0.0811539 0.00521732 0)
(-0.073958 -0.00596423 0)
(-0.0557463 -0.0176742 0)
(-0.0310983 -0.00770599 0)
(0.0151021 -0.006009 0)
(0.0327999 -0.00819128 0)
(0.0625427 -0.000282111 0)
(0.0869076 -0.00809108 0)
(0.104943 -0.0090675 0)
(0.130458 -0.00110416 0)
(0.147723 0.00243789 0)
(0.167108 0.00917274 0)
(0.184424 0.0104023 0)
(0.184426 0.0263684 0)
(0.184016 0.0638475 0)
(0.186229 0.0911327 0)
(0.161693 0.0860534 0)
(0.111141 0.0771394 0)
(0.0417651 0.0567554 0)
(-0.0232226 0.0328153 0)
(-0.0641102 0.0248617 0)
(-0.0817384 0.0155133 0)
(-0.0940192 0.00659347 0)
(-0.0703146 -0.0186251 0)
(-0.0478057 -0.0252673 0)
(-0.0103952 -0.0154625 0)
(0.0159947 -0.128701 0)
(0.0292201 -0.130852 0)
(0.0565168 -0.124221 0)
(0.0890832 -0.131296 0)
(0.0983363 -0.130594 0)
(0.119496 -0.123241 0)
(0.146735 -0.121236 0)
(0.173143 -0.116468 0)
(0.190104 -0.11105 0)
(0.19475 -0.0940938 0)
(0.193573 -0.0695827 0)
(0.173042 -0.0386149 0)
(0.131798 0.0389087 0)
(0.0826395 0.11122 0)
(0.0172999 0.107688 0)
(-0.0342655 0.0737027 0)
(-0.0673099 0.0447751 0)
(-0.0820159 0.0216913 0)
(-0.093838 0.00152325 0)
(-0.0712144 -0.0295161 0)
(-0.0582093 -0.0461828 0)
(-0.0112942 -0.0301902 0)
(0.00936427 0.0112431 0)
(0.0201631 0.0188204 0)
(0.0374039 0.00899068 0)
(0.0627524 0.0250835 0)
(0.06837 0.0338419 0)
(0.0754806 0.0352503 0)
(0.0990366 0.050269 0)
(0.111135 0.0542002 0)
(0.110911 0.065346 0)
(0.115963 0.0670514 0)
(0.117958 0.0443065 0)
(0.134145 0.0232675 0)
(0.128441 0.0366124 0)
(0.0602518 0.0898333 0)
(-0.0137518 0.109664 0)
(-0.0597922 0.0823952 0)
(-0.0813617 0.0571572 0)
(-0.0869603 0.0333019 0)
(-0.0916263 -0.00132722 0)
(-0.0684764 -0.0359185 0)
(-0.0722531 -0.0544942 0)
(-0.0238561 -0.0469255 0)
(-0.00596005 -0.171172 0)
(-0.000731827 -0.173337 0)
(-0.00695823 -0.175504 0)
(-0.00958598 -0.176349 0)
(-0.00404993 -0.173915 0)
(-0.00476699 -0.178862 0)
(-0.00674094 -0.1777 0)
(-0.0164188 -0.171941 0)
(-0.0190158 -0.170585 0)
(-0.0148707 -0.170402 0)
(0.00974397 -0.14882 0)
(0.0626535 -0.0337557 0)
(0.0968002 0.105571 0)
(-0.00495392 0.12354 0)
(-0.0678238 0.126733 0)
(-0.120761 0.0901759 0)
(-0.120533 0.0518777 0)
(-0.107005 0.0313161 0)
(-0.0929596 -0.00126615 0)
(-0.066306 -0.0348482 0)
(-0.0773094 -0.0631198 0)
(-0.0494998 -0.0647822 0)
(-0.00573721 0.0140652 0)
(-0.0118501 0.0174281 0)
(-0.0148142 0.00948008 0)
(-0.012269 0.0207235 0)
(-0.0116406 0.0277709 0)
(-0.000688845 0.023792 0)
(0.00871786 0.0435349 0)
(-0.00430097 0.0577994 0)
(-0.0189053 0.0729773 0)
(-0.0455601 0.0842367 0)
(-0.0973521 0.0942156 0)
(-0.147206 0.0485996 0)
(-0.103954 0.0422197 0)
(-0.109573 0.140946 0)
(-0.17945 0.142513 0)
(-0.191607 0.103842 0)
(-0.179214 0.0501161 0)
(-0.139006 0.00386119 0)
(-0.106364 -0.0272195 0)
(-0.0792356 -0.0437117 0)
(-0.0809751 -0.0646877 0)
(-0.0550838 -0.0798404 0)
(-0.0053322 -0.0616383 0)
(-0.00952943 -0.0670239 0)
(-0.0148187 -0.074164 0)
(-0.0166984 -0.0770736 0)
(-0.0090429 -0.0783541 0)
(-0.0103042 -0.0837249 0)
(-0.0134626 -0.0726463 0)
(-0.0254675 -0.0642071 0)
(-0.0267346 -0.063013 0)
(-0.0320203 -0.0543918 0)
(-0.0269449 -0.0200919 0)
(-0.0506891 0.0537774 0)
(-0.124159 0.153156 0)
(-0.205203 0.171037 0)
(-0.339788 0.117022 0)
(-0.331183 0.0625825 0)
(-0.307194 0.0306343 0)
(-0.230818 0.0188638 0)
(-0.172591 -0.0151979 0)
(-0.11552 -0.0344094 0)
(-0.0803126 -0.071066 0)
(-0.0451436 -0.0970683 0)
(-0.00611718 -0.0596709 0)
(-0.0141007 -0.0597965 0)
(-0.0168349 -0.0627463 0)
(-0.00930545 -0.0581672 0)
(0.00494853 -0.0487903 0)
(0.0138353 -0.0485566 0)
(0.0304446 -0.0172892 0)
(0.0190176 0.0133179 0)
(-0.00871978 0.0455451 0)
(-0.0576354 0.0639103 0)
(-0.109074 0.064108 0)
(-0.127798 0.0398896 0)
(-0.121648 0.0798578 0)
(-0.0942103 0.200659 0)
(-0.159581 0.176811 0)
(-0.244537 0.0865704 0)
(-0.275729 -0.0589787 0)
(-0.275522 -0.161073 0)
(-0.252377 -0.169833 0)
(-0.182858 -0.159875 0)
(-0.081714 -0.177765 0)
(-0.012172 -0.19766 0)
(-0.00490961 0.022908 0)
(-0.0120339 0.00732355 0)
(-0.0142388 -0.0230861 0)
(-0.00704421 -0.0472902 0)
(0.0126703 -0.0482208 0)
(0.0206743 -0.0590883 0)
(0.0333742 -0.0259411 0)
(0.0259118 0.00848127 0)
(0.0309758 0.035431 0)
(0.0230601 0.0619528 0)
(0.00156147 0.0920113 0)
(-0.00788967 0.115756 0)
(-0.0281385 0.159263 0)
(-0.0041012 0.21438 0)
(0.0664339 0.243711 0)
(0.101444 0.158025 0)
(0.0639273 0.0855385 0)
(0.0223792 0.0102886 0)
(0.00723904 -0.108542 0)
(0.0474001 -0.245853 0)
(0.118325 -0.353451 0)
(0.133449 -0.304285 0)
(-0.0106099 -0.0856023 0)
(-0.0383095 -0.0962621 0)
(-0.053062 -0.0844283 0)
(-0.0304831 -0.117867 0)
(0.013983 -0.119315 0)
(0.0305027 -0.0260326 0)
(0.047253 0.0582252 0)
(0.0129514 -0.0208298 0)
(-0.019507 0.00582797 0)
(-0.0512551 0.0318507 0)
(-0.0542153 0.0489584 0)
(-0.0456725 0.0567821 0)
(-0.0271656 0.10298 0)
(0.0294473 0.144367 0)
(0.0999637 0.147725 0)
(0.188679 0.0958928 0)
(0.268611 0.0227254 0)
(0.314023 -0.0384446 0)
(0.388848 -0.132679 0)
(0.416701 -0.168812 0)
(0.427968 -0.0893039 0)
(0.451428 -0.0449238 0)
(-0.0361726 0.271397 0)
(-0.0937769 0.26494 0)
(-0.0820702 0.234279 0)
(-0.0480761 0.187958 0)
(-0.025403 0.159663 0)
(-0.0703152 0.295075 0)
(-0.11321 0.391965 0)
(-0.123164 0.243862 0)
(-0.11401 0.248641 0)
(-0.111264 0.231352 0)
(-0.0956372 0.201112 0)
(-0.0951083 0.189788 0)
(-0.0683958 0.203769 0)
(-0.0186618 0.1876 0)
(0.0350076 0.173769 0)
(0.115488 0.130147 0)
(0.193009 0.107755 0)
(0.247122 0.073897 0)
(0.347629 0.0196549 0)
(0.377918 -0.0116441 0)
(0.454936 0.00927511 0)
(0.516551 0.041216 0)
(-0.0167405 0.402475 0)
(-0.0497472 0.356911 0)
(-0.0871282 0.251533 0)
(-0.31799 0.414143 0)
(-0.574104 0.448364 0)
(-0.67446 0.315228 0)
(-0.724711 0.312975 0)
(-0.660637 0.402868 0)
(-0.571533 0.439907 0)
(-0.469887 0.501825 0)
(-0.38036 0.521761 0)
(-0.339097 0.488137 0)
(-0.258123 0.489273 0)
(-0.154351 0.427374 0)
(-0.0123107 0.368546 0)
(0.1118 0.267628 0)
(0.20241 0.232775 0)
(0.231789 0.194953 0)
(0.293685 0.167171 0)
(0.260412 0.124703 0)
(0.303566 0.0968755 0)
(0.341636 0.0414329 0)
(0.0240023 0.266039 0)
(0.0232738 0.372342 0)
(-0.161006 0.599447 0)
(-0.496704 0.551647 0)
(-0.555613 0.380911 0)
(-0.647555 0.547096 0)
(-0.747627 0.208694 0)
(-0.669969 -0.0878789 0)
(-0.615842 -0.0929449 0)
(-0.591386 -0.0330248 0)
(-0.594944 0.0413195 0)
(-0.539099 0.0602827 0)
(-0.450144 0.100818 0)
(-0.338605 0.205576 0)
(-0.254539 0.229013 0)
(-0.159126 0.231943 0)
(-0.0786082 0.161012 0)
(-0.034165 0.0258193 0)
(0.0592489 -0.0631963 0)
(0.077314 -0.155528 0)
(0.0607711 -0.218159 0)
(-0.0271632 -0.118121 0)
(-0.067535 0.109846 0)
(-0.0618921 0.361265 0)
(-0.0139257 0.624533 0)
(-0.0891761 0.757218 0)
(-0.21855 0.578488 0)
(0.0238809 -0.0368742 0)
(0.422552 -0.0681553 0)
(0.562009 0.142529 0)
(0.250668 0.453101 0)
(-0.119245 0.746004 0)
(-0.293579 1.03868 0)
(-0.562551 0.886932 0)
(-0.358723 0.530764 0)
(-0.341506 0.297353 0)
(-0.285104 0.157897 0)
(-0.252919 0.109461 0)
(-0.252127 0.27612 0)
(-0.312773 0.372922 0)
(-0.535021 0.481368 0)
(-0.824029 0.594976 0)
(-1.12573 0.211089 0)
(-1.22003 -0.113855 0)
(-0.253759 0.206488 0)
(-0.264431 0.161114 0)
(-0.0992628 0.222956 0)
(-0.00751895 0.295274 0)
(0.263098 -0.0744189 0)
(0.324484 -0.376691 0)
(0.24413 -0.370714 0)
(0.110961 -0.157746 0)
(-0.137256 0.121007 0)
(-0.20545 -0.153902 0)
(-0.214851 -0.326956 0)
(0.0810879 -0.742897 0)
(0.0872248 -0.681153 0)
(0.131135 -0.354678 0)
(0.0434024 -0.12782 0)
(-0.0637851 -0.0850869 0)
(-0.183178 -0.206443 0)
(-0.224886 -0.282696 0)
(-0.290303 -0.322937 0)
(-0.164683 -0.440596 0)
(-0.0915794 -0.390168 0)
(-0.165754 -0.306269 0)
(-0.18624 0.370987 0)
(-0.0199133 0.0796437 0)
(-0.0419225 -0.0034923 0)
(0.123687 0.0736285 0)
(0.297323 -0.043217 0)
(0.228768 -0.15191 0)
(0.228212 -0.0359273 0)
(0.141846 0.30675 0)
(-0.0156193 0.415463 0)
(0.135216 0.445357 0)
(-0.0961619 0.443414 0)
(-0.0550727 0.0644365 0)
(-0.18083 -0.117191 0)
(-0.158475 -0.171737 0)
(-0.0671902 -0.17184 0)
(0.03265 -0.142603 0)
(0.117673 -0.0741666 0)
(0.188141 0.00619047 0)
(0.222039 0.0730585 0)
(0.199646 0.122019 0)
(0.0958111 0.132988 0)
(-0.0578764 0.167367 0)
(-0.181647 0.289847 0)
(-0.00873823 0.42815 0)
(0.0885741 0.198287 0)
(-0.0104645 0.134258 0)
(0.0518321 0.0516536 0)
(0.115239 -0.0764186 0)
(0.0661596 -0.211902 0)
(0.00573245 -0.094822 0)
(0.0971984 0.293643 0)
(0.0829318 0.350932 0)
(0.17235 0.28212 0)
(0.215353 0.0743011 0)
(0.293825 -0.222269 0)
(0.171078 -0.244387 0)
(0.0835088 -0.179676 0)
(0.0747686 -0.0894598 0)
(0.0588039 -0.0363183 0)
(0.0313173 -0.0470474 0)
(-0.000105765 -0.070273 0)
(-0.0254399 -0.078415 0)
(-0.0248689 -0.0548214 0)
(-0.0324846 0.00563812 0)
(-0.072486 0.0822128 0)
(-0.102229 0.188859 0)
(0.0491868 0.347259 0)
(0.0910544 0.129481 0)
(0.102446 0.00334046 0)
(0.119597 -0.0382489 0)
(0.114595 -0.0661157 0)
(0.0445524 -0.100863 0)
(-0.068389 -0.0927728 0)
(0.0217384 0.180676 0)
(0.160973 0.212901 0)
(0.249427 0.169769 0)
(0.304441 0.105709 0)
(0.265432 0.0333758 0)
(0.128001 -0.0993742 0)
(0.0510479 -0.173941 0)
(0.00723611 -0.199475 0)
(-0.00928276 -0.200399 0)
(-0.0146705 -0.182893 0)
(-0.0160949 -0.14493 0)
(-0.0181055 -0.0810553 0)
(-0.0375225 -0.00663207 0)
(-0.0498814 0.0668951 0)
(-0.0610456 0.135865 0)
(-0.0645417 0.20895 0)
(0.057236 0.24805 0)
(0.0916634 0.145991 0)
(0.0873117 0.0767784 0)
(0.0663151 0.0251386 0)
(0.0463642 -0.0174172 0)
(0.0188011 -0.0595757 0)
(-0.0479938 -0.0531584 0)
(-0.0409067 0.0126264 0)
(0.0670769 0.108607 0)
(0.167387 0.135882 0)
(0.159156 0.110212 0)
(0.142756 0.0415973 0)
(0.124575 -0.0325627 0)
(0.0692795 -0.071591 0)
(0.0199248 -0.0723658 0)
(-0.0165435 -0.0565073 0)
(-0.0473541 -0.0399941 0)
(-0.0723266 -0.0177223 0)
(-0.097718 0.015114 0)
(-0.121481 0.0582825 0)
(-0.133685 0.114471 0)
(-0.133927 0.170327 0)
(-0.112336 0.225453 0)
(0.0362132 0.171774 0)
(0.0695578 0.108941 0)
(0.0841528 0.0446978 0)
(0.0776129 0.0155049 0)
(0.0584758 0.00231777 0)
(0.0230225 -0.00491534 0)
(-0.0205686 -0.00132187 0)
(-0.0419776 0.0362123 0)
(-0.0393092 0.0462386 0)
(0.0180794 0.0966874 0)
(0.0419733 0.0925873 0)
(0.053748 0.0393674 0)
(0.0357393 -0.0148284 0)
(0.00490233 -0.0552728 0)
(-0.0287594 -0.076991 0)
(-0.0548708 -0.0799433 0)
(-0.0807609 -0.0737658 0)
(-0.106453 -0.0574096 0)
(-0.123663 -0.0248063 0)
(-0.129573 0.018074 0)
(-0.129251 0.0690203 0)
(-0.125023 0.124988 0)
(-0.107396 0.175471 0)
(0.0229723 0.137885 0)
(0.0472105 0.0972758 0)
(0.0577261 0.0601952 0)
(0.0493739 0.0390261 0)
(0.03533 0.0254699 0)
(0.0185293 0.0165831 0)
(-0.00237203 0.0187136 0)
(-0.0131456 0.0344378 0)
(-0.0174147 0.0427294 0)
(-0.00721712 0.0634511 0)
(0.0224232 0.0729204 0)
(0.0274653 0.0558532 0)
(0.0159716 0.0163684 0)
(-0.00781862 -0.0185832 0)
(-0.0366918 -0.0390572 0)
(-0.059412 -0.043111 0)
(-0.0778198 -0.0330554 0)
(-0.0944151 -0.013407 0)
(-0.109831 0.0179874 0)
(-0.119946 0.0496057 0)
(-0.119239 0.0835693 0)
(-0.107234 0.119917 0)
(-0.084774 0.149328 0)
(0.0123639 0.108747 0)
(0.0287698 0.0739903 0)
(0.0355835 0.054784 0)
(0.0307053 0.044583 0)
(0.0228585 0.0371032 0)
(0.0134863 0.033337 0)
(0.00218235 0.0347571 0)
(-0.00165023 0.040183 0)
(-0.00266186 0.0430229 0)
(0.00066903 0.0569528 0)
(0.0130934 0.0600878 0)
(0.0209162 0.0495085 0)
(0.018499 0.0265752 0)
(0.00379663 0.00695682 0)
(-0.0190294 -0.00906416 0)
(-0.0411191 -0.0189599 0)
(-0.0593684 -0.0154888 0)
(-0.0740955 -0.00262209 0)
(-0.0847916 0.0200287 0)
(-0.0914562 0.0474694 0)
(-0.0930322 0.0768754 0)
(-0.0836995 0.108431 0)
(-0.0676083 0.135406 0)
(0.00810973 0.0942391 0)
(0.0168759 0.068094 0)
(0.0200697 0.0566938 0)
(0.0188251 0.0477785 0)
(0.0154695 0.0410926 0)
(0.0109639 0.0381558 0)
(0.00697605 0.0373887 0)
(0.00572115 0.0412074 0)
(0.00465143 0.0424508 0)
(0.00788135 0.0502927 0)
(0.0154309 0.0514461 0)
(0.0200331 0.0462295 0)
(0.0227786 0.0316654 0)
(0.0167485 0.017591 0)
(0.00456856 0.00498985 0)
(-0.00998195 -0.00350467 0)
(-0.0297212 -0.00461797 0)
(-0.0444994 0.00489709 0)
(-0.0557194 0.0257456 0)
(-0.0642968 0.0483218 0)
(-0.0698399 0.0685122 0)
(-0.063623 0.0919984 0)
(-0.0498528 0.115986 0)
(0.00476702 0.0851774 0)
(0.0101871 0.0624346 0)
(0.0135318 0.05537 0)
(0.0139346 0.0494531 0)
(0.0122869 0.044207 0)
(0.0102136 0.0410028 0)
(0.00804753 0.0396937 0)
(0.00746134 0.0407663 0)
(0.00728866 0.0417908 0)
(0.0098514 0.0462938 0)
(0.0152685 0.0472599 0)
(0.0201632 0.0425442 0)
(0.0226451 0.0319554 0)
(0.0199252 0.0234476 0)
(0.011362 0.0156553 0)
(0.000863383 0.0123336 0)
(-0.0152728 0.0150812 0)
(-0.0303357 0.0235416 0)
(-0.0417499 0.0400818 0)
(-0.0472596 0.0614805 0)
(-0.0527487 0.0747937 0)
(-0.0500962 0.085887 0)
(-0.0386543 0.102496 0)
(0.00286994 0.0790618 0)
(0.00709766 0.0580263 0)
(0.0101337 0.0533723 0)
(0.0112642 0.0492103 0)
(0.0107436 0.0456052 0)
(0.00908203 0.0428678 0)
(0.00705723 0.0414432 0)
(0.00555843 0.0412578 0)
(0.00452105 0.0413549 0)
(0.00521998 0.0423807 0)
(0.00910778 0.0413177 0)
(0.0128608 0.0373172 0)
(0.0124609 0.0330296 0)
(0.00921259 0.029801 0)
(0.00227434 0.0251817 0)
(-0.00752811 0.0254449 0)
)
;

boundaryField
{
    leftWall
    {
        type            fixedValue;
        value           uniform (0 0 0);
    }
    rightWall
    {
        type            fixedValue;
        value           nonuniform 0();
    }
    lowerWall
    {
        type            fixedValue;
        value           uniform (0 0 0);
    }
    atmosphere
    {
        type            fluxCorrectedVelocity;
        value           nonuniform 0();
    }
    defaultFaces
    {
        type            empty;
    }
    procBoundary0to1
    {
        type            processor;
        value           nonuniform List<vector> 
26
(
(-0.0347175 -0.00617267 0)
(-0.0239695 -0.0280032 0)
(0.00467371 -0.0306312 0)
(0.00219978 -0.0306906 0)
(0.00575768 -0.0347306 0)
(-0.00156407 -0.0397037 0)
(-0.00299421 -0.0563972 0)
(0.00273867 -0.0609258 0)
(0.0510573 -0.13739 0)
(0.197681 -0.285232 0)
(0.519151 -0.0139751 0)
(0.559567 0.0769588 0)
(0.390587 -0.0940634 0)
(-0.160664 0.420672 0)
(-1.21033 -0.121854 0)
(-0.339193 -0.115653 0)
(-0.339193 -0.115653 0)
(-0.218767 0.442538 0)
(-0.104143 0.311237 0)
(-0.0589047 0.267002 0)
(-0.0907004 0.25838 0)
(-0.086562 0.196486 0)
(-0.0677833 0.159596 0)
(-0.0562787 0.144747 0)
(-0.0393706 0.126451 0)
(-0.0291565 0.11081 0)
)
;
    }
    procBoundary0to2
    {
        type            processor;
        value           nonuniform List<vector> 
24
(
(-0.0211242 0.0284955 0)
(-0.0299745 0.0350911 0)
(-0.0358941 0.0465083 0)
(-0.0402281 0.0637456 0)
(-0.0384408 0.074651 0)
(-0.0348785 0.0804434 0)
(-0.0241388 0.0907745 0)
(0.00201905 0.0750125 0)
(0.00546484 0.0547154 0)
(0.00780326 0.051558 0)
(0.0082413 0.0487517 0)
(0.00789323 0.0464706 0)
(0.00621258 0.0446314 0)
(0.00438939 0.0434725 0)
(0.00284551 0.0429533 0)
(0.00145838 0.0424321 0)
(0.00119177 0.0412338 0)
(0.00133271 0.0396116 0)
(0.00179024 0.0374974 0)
(-0.000256714 0.0353494 0)
(-0.00247969 0.0321983 0)
(-0.00776314 0.0318856 0)
(-0.0211242 0.0284955 0)
(-0.0141639 0.0348141 0)
)
;
    }
}


// ************************************************************************* //
