/*--------------------------------*- C++ -*----------------------------------*\
| =========                 |                                                 |
| \\      /  F ield         | OpenFOAM: The Open Source CFD Toolbox           |
|  \\    /   O peration     | Version:  2.4.0                                 |
|   \\  /    A nd           | Web:      www.OpenFOAM.org                      |
|    \\/     M anipulation  |                                                 |
\*---------------------------------------------------------------------------*/
FoamFile
{
    version     2.0;
    format      ascii;
    class       volVectorField;
    location    "0.65";
    object      U.oil;
}
// * * * * * * * * * * * * * * * * * * * * * * * * * * * * * * * * * * * * * //

dimensions      [0 1 -1 0 0 0 0];

internalField   nonuniform List<vector> 
575
(
(0.013151 0.000914905 0)
(0.036283 -0.000217725 0)
(0.0639271 0.00450202 0)
(0.0773027 -2.82661e-05 0)
(0.110014 -0.00076503 0)
(0.136324 0.00381851 0)
(0.148214 0.00600266 0)
(0.162356 0.0103028 0)
(0.173106 0.0101093 0)
(0.191111 0.0163746 0)
(0.193275 0.0349811 0)
(0.177459 0.0387457 0)
(0.141991 0.0325311 0)
(0.0843259 0.0224985 0)
(0.026989 0.0101786 0)
(-0.020105 -0.00586661 0)
(-0.0471617 -0.00489741 0)
(-0.0732627 -0.00682252 0)
(-0.0810238 0.000571348 0)
(-0.0853502 -0.00821977 0)
(-0.051171 -0.0043326 0)
(-0.0375069 0.00292587 0)
(0.0141641 -0.0286871 0)
(0.0350144 -0.0307643 0)
(0.0640225 -0.0248584 0)
(0.0802248 -0.0303449 0)
(0.109965 -0.0305843 0)
(0.134817 -0.0247219 0)
(0.150941 -0.0257304 0)
(0.166608 -0.0247028 0)
(0.185534 -0.0292981 0)
(0.1992 -0.0330102 0)
(0.19393 -0.0334937 0)
(0.172544 -0.0196753 0)
(0.134549 0.011253 0)
(0.0825252 0.0310021 0)
(0.0218462 0.0381747 0)
(-0.0222853 0.0356942 0)
(-0.0477369 0.0274123 0)
(-0.06812 0.0187989 0)
(-0.0811558 0.0052336 0)
(-0.0739617 -0.00592803 0)
(-0.0557935 -0.017556 0)
(-0.0312213 -0.00446781 0)
(0.0151018 -0.0062926 0)
(0.0327995 -0.00847997 0)
(0.0625425 -0.000554674 0)
(0.0869063 -0.00838177 0)
(0.104943 -0.00936318 0)
(0.13046 -0.0013868 0)
(0.147727 0.00216218 0)
(0.167117 0.00891212 0)
(0.184439 0.0101562 0)
(0.18444 0.026193 0)
(0.184016 0.0638405 0)
(0.186229 0.0911321 0)
(0.161693 0.0860532 0)
(0.111141 0.0771393 0)
(0.041765 0.0567554 0)
(-0.0232228 0.0328155 0)
(-0.0641108 0.0248631 0)
(-0.08174 0.0155213 0)
(-0.0940224 0.00662403 0)
(-0.0703191 -0.0185533 0)
(-0.0478208 -0.0251207 0)
(-0.0104696 -0.0134652 0)
(0.0159947 -0.128222 0)
(0.0292194 -0.130359 0)
(0.056516 -0.123756 0)
(0.089083 -0.130787 0)
(0.0983336 -0.13005 0)
(0.11949 -0.122713 0)
(0.146728 -0.120726 0)
(0.173133 -0.116001 0)
(0.190093 -0.110662 0)
(0.194744 -0.0938909 0)
(0.193583 -0.0696924 0)
(0.173116 -0.038951 0)
(0.131832 0.0387714 0)
(0.0826397 0.111219 0)
(0.0172999 0.107688 0)
(-0.0342657 0.073703 0)
(-0.0673107 0.0447767 0)
(-0.0820188 0.021703 0)
(-0.0938436 0.00157841 0)
(-0.071223 -0.0293639 0)
(-0.0582295 -0.0458497 0)
(-0.0113622 -0.0286498 0)
(0.0091541 0.0343768 0)
(0.0199397 0.0417881 0)
(0.0368351 0.0320328 0)
(0.0619162 0.0477566 0)
(0.0674176 0.0561877 0)
(0.0742812 0.0572265 0)
(0.0974884 0.0718893 0)
(0.10905 0.0761745 0)
(0.108496 0.0880918 0)
(0.113023 0.0917894 0)
(0.113612 0.072137 0)
(0.130657 0.0427085 0)
(0.127247 0.0409216 0)
(0.0603357 0.0896256 0)
(-0.0136566 0.109476 0)
(-0.0597919 0.0823972 0)
(-0.0813628 0.0571633 0)
(-0.0869638 0.0333289 0)
(-0.0916376 -0.00119367 0)
(-0.0684974 -0.0354706 0)
(-0.0722896 -0.0535617 0)
(-0.0239373 -0.0443423 0)
(-0.00596008 -0.171172 0)
(-0.000731805 -0.173337 0)
(-0.00695819 -0.175504 0)
(-0.00958593 -0.176349 0)
(-0.0040499 -0.173915 0)
(-0.00476699 -0.178861 0)
(-0.00674094 -0.177698 0)
(-0.0164188 -0.17194 0)
(-0.0190158 -0.170578 0)
(-0.0148707 -0.170397 0)
(0.0097295 -0.148807 0)
(0.0601095 -0.0270508 0)
(0.0912391 0.129448 0)
(-0.0105404 0.133817 0)
(-0.0676847 0.126528 0)
(-0.120715 0.0901943 0)
(-0.120539 0.052032 0)
(-0.107021 0.0316349 0)
(-0.0929885 -0.000530336 0)
(-0.0663531 -0.0331922 0)
(-0.0773808 -0.0607905 0)
(-0.0496062 -0.0605051 0)
(-0.00573721 0.0140661 0)
(-0.0118501 0.017429 0)
(-0.0148142 0.00948089 0)
(-0.012269 0.0207242 0)
(-0.0116406 0.0277715 0)
(-0.000688899 0.0237638 0)
(0.00871789 0.0435269 0)
(-0.00430111 0.0577987 0)
(-0.0189055 0.0729563 0)
(-0.0455601 0.0841958 0)
(-0.0973517 0.0941999 0)
(-0.147205 0.0485981 0)
(-0.105638 0.0443962 0)
(-0.115058 0.157753 0)
(-0.179975 0.143531 0)
(-0.191484 0.104447 0)
(-0.179335 0.051463 0)
(-0.139159 0.00610925 0)
(-0.106538 -0.022961 0)
(-0.0793685 -0.0389627 0)
(-0.0810806 -0.0596498 0)
(-0.0552267 -0.0756547 0)
(-0.00533219 -0.0616719 0)
(-0.0095294 -0.0670567 0)
(-0.0148187 -0.0741858 0)
(-0.0166984 -0.0770802 0)
(-0.00904267 -0.0782863 0)
(-0.0103042 -0.0830967 0)
(-0.0134661 -0.0701373 0)
(-0.0254669 -0.0599202 0)
(-0.0267384 -0.0605185 0)
(-0.0320209 -0.0532222 0)
(-0.0269442 -0.0197953 0)
(-0.0506872 0.0538573 0)
(-0.124002 0.153348 0)
(-0.197854 0.184569 0)
(-0.343829 0.128611 0)
(-0.331691 0.0642117 0)
(-0.308216 0.0422455 0)
(-0.231673 0.0413958 0)
(-0.173045 0.0154075 0)
(-0.115649 0.0026153 0)
(-0.0803369 -0.0359338 0)
(-0.0452016 -0.0697839 0)
(-0.00611581 -0.059873 0)
(-0.0140975 -0.0600147 0)
(-0.0168334 -0.0629517 0)
(-0.00929999 -0.0582232 0)
(0.00499638 -0.0475098 0)
(0.0142408 -0.0448216 0)
(0.030994 -0.0134856 0)
(0.0190978 0.0152312 0)
(-0.00922435 0.0455964 0)
(-0.0580573 0.0643865 0)
(-0.109312 0.0661866 0)
(-0.127887 0.0435321 0)
(-0.121672 0.0826956 0)
(-0.0898948 0.207382 0)
(-0.151082 0.197436 0)
(-0.245361 0.0995134 0)
(-0.278268 -0.0480392 0)
(-0.281922 -0.130233 0)
(-0.260377 -0.112833 0)
(-0.191202 -0.0673325 0)
(-0.0857209 -0.0785284 0)
(-0.0126605 -0.107182 0)
(-0.00493773 0.0213711 0)
(-0.0121106 0.00607398 0)
(-0.0143159 -0.0227205 0)
(-0.00684143 -0.0420254 0)
(0.0132698 -0.0349674 0)
(0.0218681 0.00847841 0)
(0.0294489 0.0498701 0)
(0.0205461 0.0837755 0)
(0.0270717 0.107035 0)
(0.0202045 0.133613 0)
(0.000623782 0.158369 0)
(-0.00752321 0.155245 0)
(-0.0273377 0.17463 0)
(-0.00327993 0.219481 0)
(0.0709759 0.251585 0)
(0.113685 0.176246 0)
(0.0742009 0.10687 0)
(0.0258747 0.0306848 0)
(0.00771107 -0.0766972 0)
(0.0400282 -0.15143 0)
(0.148888 -0.185541 0)
(0.21691 -0.0477386 0)
(-0.0106013 -0.0871206 0)
(-0.0383122 -0.100983 0)
(-0.05441 -0.112088 0)
(-0.0449101 -0.0633618 0)
(0.0113962 -0.0540954 0)
(0.0286115 -0.0518717 0)
(0.0472383 -0.000320423 0)
(0.0067182 0.0522242 0)
(-0.0299855 0.0811748 0)
(-0.0610853 0.107811 0)
(-0.0641463 0.124929 0)
(-0.052286 0.132289 0)
(-0.0323749 0.177327 0)
(0.0319253 0.19242 0)
(0.104085 0.165048 0)
(0.191676 0.105899 0)
(0.272259 0.0328499 0)
(0.317395 -0.0288986 0)
(0.389393 -0.130054 0)
(0.400265 -0.192983 0)
(0.414287 -0.188654 0)
(0.443819 -0.203736 0)
(-0.036312 0.0989739 0)
(-0.0921487 0.0973201 0)
(-0.110612 0.0182271 0)
(-0.0971148 -0.0165271 0)
(-0.087287 -0.00045777 0)
(-0.129552 0.00587455 0)
(-0.136282 0.0749367 0)
(-0.12227 0.144119 0)
(-0.122207 0.171017 0)
(-0.120304 0.175097 0)
(-0.103862 0.15615 0)
(-0.102933 0.13405 0)
(-0.0749124 0.108423 0)
(-0.0220315 0.102309 0)
(0.0375173 0.100899 0)
(0.1207 0.0661642 0)
(0.185252 0.0194197 0)
(0.221753 -0.0702849 0)
(0.324482 -0.133665 0)
(0.330216 -0.219756 0)
(0.39178 -0.274696 0)
(0.429112 -0.319933 0)
(-0.0140976 -0.0282944 0)
(-0.0770411 -0.111676 0)
(-0.176678 -0.223787 0)
(-0.382526 -0.22114 0)
(-0.609196 -0.125491 0)
(-0.685024 -0.147013 0)
(-0.686338 -0.1491 0)
(-0.599773 -0.0782035 0)
(-0.51627 -0.0366216 0)
(-0.430971 0.0316092 0)
(-0.358292 0.0707768 0)
(-0.313209 0.0689629 0)
(-0.210885 0.102416 0)
(-0.114378 0.117735 0)
(-0.0329991 0.0882639 0)
(0.0534755 0.0141509 0)
(0.117858 -0.0488115 0)
(0.142638 -0.151222 0)
(0.230904 -0.206516 0)
(0.211166 -0.295014 0)
(0.255638 -0.361476 0)
(0.255707 -0.436607 0)
(0.00880393 -0.290778 0)
(-0.373186 -0.455699 0)
(-0.605513 -0.431996 0)
(-0.585409 -0.351976 0)
(-0.61358 -0.358166 0)
(-0.702254 -0.615362 0)
(-0.695291 -0.625431 0)
(-0.662492 -0.576493 0)
(-0.617834 -0.491935 0)
(-0.588237 -0.407529 0)
(-0.569191 -0.342376 0)
(-0.497833 -0.327572 0)
(-0.412331 -0.285873 0)
(-0.320871 -0.219628 0)
(-0.255989 -0.2102 0)
(-0.174604 -0.190471 0)
(-0.112286 -0.231748 0)
(-0.0790944 -0.329268 0)
(0.0130713 -0.401201 0)
(0.0249711 -0.511211 0)
(0.0438479 -0.630112 0)
(0.0363594 -0.761203 0)
(-0.0626624 0.0627168 0)
(-0.469548 -0.384483 0)
(-0.577182 -0.579046 0)
(-0.597906 -0.558989 0)
(-0.578539 -0.528105 0)
(-0.456642 -0.566699 0)
(0.195518 -0.18481 0)
(0.103213 -0.11083 0)
(-0.201213 0.00391658 0)
(-0.481344 -0.165602 0)
(-0.46153 -0.609732 0)
(-0.447724 -0.825822 0)
(-0.410783 -0.770827 0)
(-0.378439 -0.731782 0)
(-0.329856 -0.72644 0)
(-0.271654 -0.72776 0)
(-0.238732 -0.75667 0)
(-0.203005 -0.86229 0)
(-0.239211 -0.99725 0)
(-0.228017 -1.26053 0)
(-0.659467 -0.337783 0)
(-0.945045 -0.239582 0)
(-0.254485 0.206477 0)
(-0.274916 0.128855 0)
(-0.177629 0.0791415 0)
(-0.118062 0.119979 0)
(0.202433 -0.116333 0)
(0.322871 -0.380108 0)
(0.244426 -0.372181 0)
(0.11194 -0.157496 0)
(-0.137244 0.119138 0)
(-0.204824 -0.15887 0)
(-0.214319 -0.332212 0)
(0.0768609 -0.745285 0)
(0.0522156 -0.681458 0)
(0.0556466 -0.402531 0)
(-0.0191678 -0.22883 0)
(-0.0965329 -0.197056 0)
(-0.181013 -0.263209 0)
(-0.219802 -0.302102 0)
(-0.288798 -0.334419 0)
(-0.163415 -0.455727 0)
(-0.0930898 -0.396486 0)
(-0.164502 -0.310038 0)
(-0.186511 0.369263 0)
(-0.0207246 0.0772034 0)
(-0.0426389 -0.00683013 0)
(0.121249 0.0694336 0)
(0.296909 -0.0454177 0)
(0.228816 -0.152295 0)
(0.228196 -0.0362576 0)
(0.142018 0.305349 0)
(-0.0153833 0.414239 0)
(0.135543 0.444598 0)
(-0.0960313 0.442396 0)
(-0.0547223 0.0627628 0)
(-0.179803 -0.119157 0)
(-0.157305 -0.175045 0)
(-0.0665202 -0.179174 0)
(0.0317145 -0.152496 0)
(0.115446 -0.0874138 0)
(0.187218 -0.00462682 0)
(0.222836 0.0656007 0)
(0.200821 0.118946 0)
(0.0973005 0.131255 0)
(-0.0564459 0.165496 0)
(-0.18084 0.287794 0)
(-0.00884341 0.427587 0)
(0.0885469 0.197936 0)
(-0.0104414 0.133809 0)
(0.0518677 0.0510834 0)
(0.115256 -0.0765706 0)
(0.0661853 -0.211978 0)
(0.00574737 -0.0949735 0)
(0.0974889 0.293342 0)
(0.0834047 0.350339 0)
(0.172529 0.281989 0)
(0.215545 0.0741003 0)
(0.294104 -0.222369 0)
(0.17159 -0.244822 0)
(0.0840423 -0.181563 0)
(0.0760762 -0.0930519 0)
(0.06258 -0.0393673 0)
(0.0362933 -0.0464014 0)
(0.00475233 -0.0675527 0)
(-0.0242401 -0.077387 0)
(-0.0250352 -0.0554933 0)
(-0.0327189 0.00443822 0)
(-0.0725075 0.0804278 0)
(-0.102299 0.186884 0)
(0.0491625 0.347063 0)
(0.0910496 0.129392 0)
(0.10244 0.00323324 0)
(0.119608 -0.0383332 0)
(0.114621 -0.0661615 0)
(0.044584 -0.100939 0)
(-0.0683284 -0.0929509 0)
(0.0220048 0.180006 0)
(0.161102 0.212127 0)
(0.249563 0.168899 0)
(0.304599 0.104679 0)
(0.265862 0.0324487 0)
(0.128655 -0.100657 0)
(0.0519837 -0.178201 0)
(0.00893727 -0.20671 0)
(-0.0075641 -0.208603 0)
(-0.0140698 -0.19179 0)
(-0.0165143 -0.153942 0)
(-0.0184589 -0.0878592 0)
(-0.0372864 -0.0105626 0)
(-0.0493178 0.0636437 0)
(-0.0605823 0.13303 0)
(-0.0643647 0.20658 0)
(0.0572338 0.24795 0)
(0.0916629 0.145921 0)
(0.0873167 0.0767168 0)
(0.0663293 0.0250863 0)
(0.0463911 -0.0174667 0)
(0.0188396 -0.0596392 0)
(-0.0479389 -0.05328 0)
(-0.040803 0.0121925 0)
(0.0671697 0.108017 0)
(0.167627 0.134629 0)
(0.159426 0.10872 0)
(0.143023 0.040552 0)
(0.124808 -0.0337302 0)
(0.0695972 -0.0742103 0)
(0.0204645 -0.0772445 0)
(-0.0162808 -0.0597689 0)
(-0.0472521 -0.042106 0)
(-0.0722598 -0.0195332 0)
(-0.0975946 0.013545 0)
(-0.121279 0.0566568 0)
(-0.133531 0.112439 0)
(-0.133779 0.168434 0)
(-0.112231 0.223886 0)
(0.0362147 0.171701 0)
(0.0695615 0.108875 0)
(0.084161 0.0446369 0)
(0.0776284 0.0154457 0)
(0.0585008 0.00225812 0)
(0.0230577 -0.00498067 0)
(-0.0205231 -0.00140672 0)
(-0.0419212 0.0360446 0)
(-0.0392242 0.0459652 0)
(0.0182417 0.0957215 0)
(0.042195 0.0915624 0)
(0.0538741 0.0387799 0)
(0.0359048 -0.0157822 0)
(0.00504276 -0.0564979 0)
(-0.0286177 -0.0787705 0)
(-0.0547295 -0.081584 0)
(-0.0806708 -0.0750032 0)
(-0.106403 -0.0584867 0)
(-0.123652 -0.0257812 0)
(-0.129543 0.0168757 0)
(-0.129156 0.0676626 0)
(-0.124929 0.123883 0)
(-0.107339 0.174629 0)
(0.0229731 0.137813 0)
(0.0472141 0.0972057 0)
(0.0577344 0.0601261 0)
(0.0493884 0.0389564 0)
(0.0353521 0.0253979 0)
(0.0185595 0.0165062 0)
(-0.00233403 0.0186296 0)
(-0.0131003 0.0343403 0)
(-0.0173629 0.0425976 0)
(-0.00715 0.0630805 0)
(0.0224918 0.0725734 0)
(0.0275378 0.0555587 0)
(0.0160606 0.0157343 0)
(-0.00773901 -0.0193973 0)
(-0.0366189 -0.0404579 0)
(-0.0593274 -0.0453086 0)
(-0.0778057 -0.0348718 0)
(-0.0944162 -0.0146432 0)
(-0.109807 0.0171146 0)
(-0.119897 0.0488866 0)
(-0.119169 0.0828403 0)
(-0.107148 0.119284 0)
(-0.084726 0.148759 0)
(0.0123657 0.108669 0)
(0.0287746 0.073912 0)
(0.0355916 0.0547051 0)
(0.0307178 0.0445026 0)
(0.0228765 0.0370191 0)
(0.0135101 0.0332473 0)
(0.00221189 0.0346594 0)
(-0.00161563 0.0400752 0)
(-0.00262291 0.0429019 0)
(0.000712204 0.0568006 0)
(0.0131396 0.0599238 0)
(0.0209697 0.0492321 0)
(0.0185476 0.0261496 0)
(0.00385354 0.00604594 0)
(-0.0189215 -0.0113478 0)
(-0.0410188 -0.0216907 0)
(-0.059314 -0.0175244 0)
(-0.0740913 -0.00388456 0)
(-0.0847963 0.0193066 0)
(-0.0914334 0.0469815 0)
(-0.0929832 0.0764415 0)
(-0.0836271 0.108024 0)
(-0.06756 0.134968 0)
(0.00811057 0.0941521 0)
(0.0168789 0.0680063 0)
(0.0200757 0.0566048 0)
(0.0188345 0.0476868 0)
(0.0154826 0.0409967 0)
(0.0109809 0.0380538 0)
(0.00699672 0.0372787 0)
(0.00574501 0.0410871 0)
(0.00467796 0.042318 0)
(0.00791003 0.0501452 0)
(0.0154604 0.0512795 0)
(0.0200612 0.0460048 0)
(0.0228054 0.0312982 0)
(0.0167931 0.0165129 0)
(0.00467389 0.00244517 0)
(-0.00990166 -0.00629189 0)
(-0.029697 -0.00672002 0)
(-0.0445128 0.00364598 0)
(-0.0557336 0.0250146 0)
(-0.0642992 0.0479132 0)
(-0.0698098 0.0682016 0)
(-0.0635858 0.0916863 0)
(-0.0498343 0.115671 0)
(0.00476818 0.0850825 0)
(0.01019 0.0623379 0)
(0.0135359 0.0552711 0)
(0.0139404 0.049351 0)
(0.0122946 0.0441003 0)
(0.0102235 0.0408899 0)
(0.0080594 0.0395729 0)
(0.00747495 0.0406357 0)
(0.00730349 0.0416486 0)
(0.00986695 0.046138 0)
(0.0152837 0.0470891 0)
(0.0201759 0.0423504 0)
(0.0226547 0.0316056 0)
(0.0199605 0.0224286 0)
(0.0114019 0.0137674 0)
(0.000903139 0.0101209 0)
(-0.0152659 0.0134091 0)
(-0.0303623 0.0224088 0)
(-0.0417784 0.0394075 0)
(-0.0472732 0.0610946 0)
(-0.052754 0.0745271 0)
(-0.0500645 0.0856597 0)
(-0.038638 0.102273 0)
(0.00286911 0.0789562 0)
(0.00709676 0.0579199 0)
(0.0101342 0.053264 0)
(0.0112657 0.0490987 0)
(0.0107459 0.0454891 0)
(0.00908498 0.0427457 0)
(0.00706071 0.0413137 0)
(0.00556235 0.0411193 0)
(0.00452507 0.0412061 0)
(0.00522374 0.0422199 0)
(0.00911054 0.0411447 0)
(0.0128611 0.0371271 0)
(0.0124635 0.0326995 0)
(0.00921436 0.0290641 0)
(0.00229368 0.0240081 0)
(-0.00753203 0.0242241 0)
)
;

boundaryField
{
    leftWall
    {
        type            fixedValue;
        value           uniform (0 0 0);
    }
    rightWall
    {
        type            fixedValue;
        value           nonuniform 0();
    }
    lowerWall
    {
        type            fixedValue;
        value           uniform (0 0 0);
    }
    atmosphere
    {
        type            fluxCorrectedVelocity;
        value           nonuniform 0();
    }
    defaultFaces
    {
        type            empty;
    }
    procBoundary0to1
    {
        type            processor;
        value           nonuniform List<vector> 
26
(
(-0.034781 0.00457067 0)
(-0.0240542 -0.0161276 0)
(0.00461145 -0.018854 0)
(0.00214594 -0.0192703 0)
(0.00570106 -0.0229354 0)
(-0.00163155 -0.0267124 0)
(-0.00309359 -0.0459372 0)
(0.00270135 -0.0325465 0)
(0.0511274 -0.0413671 0)
(0.295849 0.0300611 0)
(0.519053 -0.216381 0)
(0.478859 -0.363067 0)
(0.28056 -0.507971 0)
(0.116228 -0.95651 0)
(-0.834194 -0.266472 0)
(-0.337211 -0.120691 0)
(-0.337211 -0.120691 0)
(-0.218466 0.439976 0)
(-0.104432 0.309151 0)
(-0.0589624 0.265051 0)
(-0.0907177 0.257072 0)
(-0.0865155 0.195677 0)
(-0.0677785 0.159 0)
(-0.0562432 0.14429 0)
(-0.0393438 0.126109 0)
(-0.0291062 0.110616 0)
)
;
    }
    procBoundary0to2
    {
        type            processor;
        value           nonuniform List<vector> 
24
(
(-0.0211523 0.0271964 0)
(-0.0300011 0.0341606 0)
(-0.0359241 0.0459572 0)
(-0.0402556 0.0633833 0)
(-0.0384307 0.074415 0)
(-0.0348513 0.0802673 0)
(-0.0240867 0.0906071 0)
(0.00201943 0.0748958 0)
(0.00546493 0.0545984 0)
(0.00780211 0.0514393 0)
(0.00823926 0.0486299 0)
(0.00789044 0.0463446 0)
(0.00620909 0.0444998 0)
(0.00438517 0.0433343 0)
(0.00284051 0.0428073 0)
(0.0014526 0.0422773 0)
(0.00118497 0.0410688 0)
(0.00132439 0.0394364 0)
(0.00177919 0.0373092 0)
(-0.000272254 0.0350811 0)
(-0.00248194 0.0316992 0)
(-0.00777978 0.0312496 0)
(-0.0211523 0.0271964 0)
(-0.0141906 0.0339763 0)
)
;
    }
}


// ************************************************************************* //
