/*--------------------------------*- C++ -*----------------------------------*\
| =========                 |                                                 |
| \\      /  F ield         | OpenFOAM: The Open Source CFD Toolbox           |
|  \\    /   O peration     | Version:  2.4.0                                 |
|   \\  /    A nd           | Web:      www.OpenFOAM.org                      |
|    \\/     M anipulation  |                                                 |
\*---------------------------------------------------------------------------*/
FoamFile
{
    version     2.0;
    format      ascii;
    class       volVectorField;
    location    "0.65";
    object      U.water;
}
// * * * * * * * * * * * * * * * * * * * * * * * * * * * * * * * * * * * * * //

dimensions      [0 1 -1 0 0 0 0];

internalField   nonuniform List<vector> 
575
(
(0.013151 0.0016998 0)
(0.0362831 0.000748442 0)
(0.0639271 0.00496344 0)
(0.0773028 0.000986985 0)
(0.110014 0.000383093 0)
(0.136324 0.00445157 0)
(0.148214 0.00653667 0)
(0.162355 0.010682 0)
(0.173103 0.010556 0)
(0.191107 0.0166154 0)
(0.193269 0.0350905 0)
(0.177452 0.0388058 0)
(0.141983 0.032582 0)
(0.0843179 0.0225444 0)
(0.0269806 0.0102197 0)
(-0.0201115 -0.00582976 0)
(-0.0471649 -0.00487 0)
(-0.073264 -0.00680703 0)
(-0.0810238 0.000575534 0)
(-0.0853479 -0.00822982 0)
(-0.0511256 -0.00444474 0)
(-0.0374016 -0.000700132 0)
(0.014191 0.00274051 0)
(0.0350176 0.00109839 0)
(0.064024 0.0059924 0)
(0.0802389 0.00178887 0)
(0.109965 0.00208681 0)
(0.134809 0.00694564 0)
(0.150928 0.00517099 0)
(0.166589 0.00472836 0)
(0.1855 -0.00226806 0)
(0.199156 -0.0101705 0)
(0.193893 -0.0246108 0)
(0.17251 -0.0173981 0)
(0.134512 0.0119109 0)
(0.0824848 0.0317327 0)
(0.0218078 0.0385616 0)
(-0.0223128 0.0358542 0)
(-0.0477507 0.0274833 0)
(-0.0681266 0.0188412 0)
(-0.0811578 0.00525043 0)
(-0.07396 -0.00593338 0)
(-0.0557472 -0.0176477 0)
(-0.0310985 -0.00769841 0)
(0.0153334 0.167089 0)
(0.0330564 0.165266 0)
(0.0626749 0.172022 0)
(0.0877263 0.165753 0)
(0.105292 0.165311 0)
(0.129171 0.173228 0)
(0.14491 0.177652 0)
(0.161448 0.185165 0)
(0.173836 0.188219 0)
(0.169966 0.206824 0)
(0.177428 0.157437 0)
(0.184436 0.144414 0)
(0.16096 0.117074 0)
(0.110515 0.0817197 0)
(0.0412034 0.0576768 0)
(-0.0234573 0.033194 0)
(-0.0641639 0.0250653 0)
(-0.0817557 0.0156659 0)
(-0.0940276 0.00672043 0)
(-0.0703197 -0.0184663 0)
(-0.0478084 -0.0251528 0)
(-0.010396 -0.0154241 0)
(0.0159755 0.0414092 0)
(0.0289855 0.0395283 0)
(0.0562281 0.0446861 0)
(0.0890194 0.0391166 0)
(0.097496 0.0401221 0)
(0.117788 0.0466293 0)
(0.144334 0.0495388 0)
(0.169398 0.0556168 0)
(0.18544 0.0640188 0)
(0.189712 0.0834372 0)
(0.176162 0.10943 0)
(0.1325 0.147432 0)
(0.0869637 0.221071 0)
(0.0695121 0.165215 0)
(0.0156809 0.138116 0)
(-0.034516 0.0827296 0)
(-0.0674125 0.0467777 0)
(-0.0820807 0.0222326 0)
(-0.0938799 0.00197109 0)
(-0.0712402 -0.0289562 0)
(-0.0582238 -0.0457775 0)
(-0.0112984 -0.0300475 0)
(0.00824528 0.134383 0)
(0.0189886 0.139504 0)
(0.0343845 0.131235 0)
(0.0584309 0.142202 0)
(0.0635605 0.146622 0)
(0.0695227 0.144356 0)
(0.0915068 0.155378 0)
(0.100872 0.162315 0)
(0.0987292 0.180053 0)
(0.0998752 0.202384 0)
(0.0876468 0.238356 0)
(0.0923875 0.255943 0)
(0.0741259 0.232553 0)
(-0.0137241 0.272926 0)
(-0.0916817 0.264848 0)
(-0.0795959 0.128611 0)
(-0.0846921 0.0681536 0)
(-0.0873964 0.0367307 0)
(-0.0917304 0.000634907 0)
(-0.0685495 -0.0334562 0)
(-0.0722894 -0.0530642 0)
(-0.023868 -0.0464781 0)
(-0.0059604 -0.171174 0)
(-0.00073269 -0.173338 0)
(-0.00695966 -0.175506 0)
(-0.00958789 -0.176351 0)
(-0.00405236 -0.173916 0)
(-0.00476998 -0.178863 0)
(-0.00674419 -0.177702 0)
(-0.0164218 -0.171942 0)
(-0.0190185 -0.170588 0)
(-0.014874 -0.170406 0)
(0.00971102 -0.148796 0)
(0.0551473 -0.0139961 0)
(0.0600122 0.263489 0)
(-0.110984 0.318504 0)
(-0.159962 0.291108 0)
(-0.183451 0.233432 0)
(-0.134864 0.0906401 0)
(-0.109466 0.0507255 0)
(-0.0934953 0.0115016 0)
(-0.0665374 -0.0263343 0)
(-0.0774428 -0.0609671 0)
(-0.0495341 -0.0640252 0)
(-0.00573742 0.0140643 0)
(-0.0118509 0.0174272 0)
(-0.0148157 0.00947916 0)
(-0.0122709 0.0207227 0)
(-0.011643 0.0277699 0)
(-0.000691617 0.0237907 0)
(0.00871489 0.0435341 0)
(-0.00430374 0.0577989 0)
(-0.0189077 0.0729765 0)
(-0.0455631 0.0842353 0)
(-0.0973568 0.094215 0)
(-0.147214 0.048601 0)
(-0.107476 0.0467634 0)
(-0.147367 0.256889 0)
(-0.264338 0.306816 0)
(-0.26739 0.251331 0)
(-0.204638 0.146307 0)
(-0.147821 0.0380409 0)
(-0.110402 -0.00281705 0)
(-0.0800465 -0.031618 0)
(-0.0811031 -0.0287702 0)
(-0.0550985 -0.0436823 0)
(-0.00533243 -0.0616753 0)
(-0.00953019 -0.0670604 0)
(-0.01482 -0.0741895 0)
(-0.0167003 -0.0770858 0)
(-0.0090452 -0.0783662 0)
(-0.0103065 -0.0837393 0)
(-0.0134649 -0.0726527 0)
(-0.0254699 -0.0642114 0)
(-0.0267368 -0.0630174 0)
(-0.0320232 -0.054397 0)
(-0.02695 -0.0200984 0)
(-0.0506949 0.0537713 0)
(-0.123912 0.153435 0)
(-0.170321 0.235186 0)
(-0.39837 0.295035 0)
(-0.40583 0.218521 0)
(-0.352459 0.200827 0)
(-0.236578 0.0765084 0)
(-0.173321 0.0388498 0)
(-0.115114 0.0153946 0)
(-0.0826829 0.0762186 0)
(-0.0467032 0.0671218 0)
(-0.00611606 -0.0598784 0)
(-0.0140983 -0.0600201 0)
(-0.0168346 -0.0629603 0)
(-0.00930842 -0.0582728 0)
(0.00494446 -0.04884 0)
(0.0138308 -0.0485958 0)
(0.0304409 -0.0173032 0)
(0.0190155 0.0133103 0)
(-0.00872137 0.0455376 0)
(-0.057637 0.0639019 0)
(-0.109076 0.0640979 0)
(-0.127799 0.0398793 0)
(-0.121647 0.0798546 0)
(-0.0816299 0.219014 0)
(-0.100854 0.320519 0)
(-0.248516 0.275416 0)
(-0.294298 0.0910762 0)
(-0.29011 -0.00833354 0)
(-0.259089 -0.0130614 0)
(-0.188881 -0.00135821 0)
(-0.0819586 -0.0143057 0)
(-0.0116494 -0.0300687 0)
(-0.00493793 0.0213642 0)
(-0.0121125 0.00606289 0)
(-0.0143268 -0.0237057 0)
(-0.0070946 -0.0482741 0)
(0.0126544 -0.0489915 0)
(0.020665 -0.0599948 0)
(0.0334365 -0.0277321 0)
(0.0259935 0.00702804 0)
(0.0310086 0.0347007 0)
(0.0230721 0.0615519 0)
(0.00156091 0.0918531 0)
(-0.0078924 0.115719 0)
(-0.0281401 0.159251 0)
(-0.00325686 0.215604 0)
(0.0795077 0.265653 0)
(0.166526 0.259214 0)
(0.143055 0.243564 0)
(0.0498966 0.166018 0)
(0.00853547 0.0377689 0)
(0.056967 -0.0805242 0)
(0.137082 -0.140633 0)
(0.161713 -0.0829488 0)
(-0.0106014 -0.087128 0)
(-0.0382952 -0.101069 0)
(-0.053102 -0.118309 0)
(-0.0306763 -0.134242 0)
(0.0137885 -0.130193 0)
(0.0304473 -0.135401 0)
(0.047238 -0.08862 0)
(0.0140106 -0.0370379 0)
(-0.0181702 -0.00397099 0)
(-0.0503954 0.0251349 0)
(-0.0536932 0.0449438 0)
(-0.0454863 0.0546519 0)
(-0.0271281 0.102439 0)
(0.029445 0.144304 0)
(0.100422 0.148356 0)
(0.189461 0.0975711 0)
(0.276518 0.0416681 0)
(0.329993 -0.00645114 0)
(0.402397 -0.110322 0)
(0.42939 -0.177651 0)
(0.4288 -0.186315 0)
(0.450874 -0.206667 0)
(-0.0363593 0.0989654 0)
(-0.0909228 0.0916402 0)
(-0.0872969 0.0239858 0)
(-0.0627178 -0.0628074 0)
(-0.0601217 -0.0743495 0)
(-0.123072 -0.0934399 0)
(-0.134833 -0.0319987 0)
(-0.118604 0.03887 0)
(-0.109709 0.0667741 0)
(-0.108244 0.0746191 0)
(-0.0938887 0.063146 0)
(-0.0940676 0.0482234 0)
(-0.0680298 0.0339512 0)
(-0.0186065 0.0358357 0)
(0.0349965 0.0399415 0)
(0.115466 0.00969586 0)
(0.192571 -0.0154526 0)
(0.24547 -0.0910874 0)
(0.343084 -0.162541 0)
(0.359469 -0.252856 0)
(0.412527 -0.325798 0)
(0.446851 -0.380877 0)
(-0.0138994 -0.0291598 0)
(-0.0400252 -0.0843036 0)
(-0.083477 -0.256167 0)
(-0.314555 -0.330053 0)
(-0.564453 -0.25299 0)
(-0.688345 -0.311147 0)
(-0.697337 -0.269629 0)
(-0.549943 -0.174749 0)
(-0.439451 -0.117432 0)
(-0.360274 -0.0547807 0)
(-0.309668 -0.0315945 0)
(-0.275663 -0.0335219 0)
(-0.179727 0.00320598 0)
(-0.0985785 0.0284171 0)
(-0.0256136 0.0108545 0)
(0.0575332 -0.0529456 0)
(0.127124 -0.101923 0)
(0.151235 -0.201657 0)
(0.240859 -0.254951 0)
(0.220698 -0.339248 0)
(0.269608 -0.411667 0)
(0.275217 -0.468587 0)
(0.00730861 -0.347266 0)
(0.0141007 -0.452738 0)
(-0.0680527 -0.515093 0)
(-0.288294 -0.490126 0)
(-0.370915 -0.499302 0)
(-0.288276 -0.729064 0)
(-0.70032 -0.568158 0)
(-0.661763 -0.609356 0)
(-0.614844 -0.543165 0)
(-0.581774 -0.501363 0)
(-0.546553 -0.48608 0)
(-0.482456 -0.490517 0)
(-0.421062 -0.418415 0)
(-0.348795 -0.361486 0)
(-0.257528 -0.317654 0)
(-0.173557 -0.279424 0)
(-0.112549 -0.318082 0)
(-0.105247 -0.442422 0)
(0.0262117 -0.507955 0)
(0.0429231 -0.627413 0)
(0.101955 -0.730454 0)
(0.16065 -0.88601 0)
(0.012359 -0.400483 0)
(-0.0201169 -0.576754 0)
(-0.0593416 -0.558476 0)
(-0.217699 -0.542155 0)
(-0.228089 -0.414043 0)
(0.0496205 -0.0724367 0)
(0.422522 -0.0719556 0)
(0.561254 0.13747 0)
(0.249523 0.44725 0)
(-0.128622 0.724772 0)
(-0.31353 0.922366 0)
(-0.527252 0.286084 0)
(-0.395727 -0.349119 0)
(-0.370545 -0.582147 0)
(-0.316883 -0.685089 0)
(-0.263756 -0.7298 0)
(-0.222023 -0.687331 0)
(-0.206311 -0.52065 0)
(-0.292596 -0.253852 0)
(-0.564425 0.220125 0)
(-0.999456 0.180538 0)
(-1.18835 -0.134722 0)
(-0.253366 0.201435 0)
(-0.26259 0.148255 0)
(-0.0987125 0.192188 0)
(-0.019829 0.240333 0)
(0.258696 -0.0819565 0)
(0.324352 -0.379379 0)
(0.244251 -0.370862 0)
(0.111436 -0.15771 0)
(-0.137101 0.120756 0)
(-0.205284 -0.154448 0)
(-0.214615 -0.328333 0)
(0.0813596 -0.744607 0)
(0.0874492 -0.684139 0)
(0.131358 -0.358678 0)
(0.0436294 -0.132318 0)
(-0.0635179 -0.0898232 0)
(-0.182849 -0.21083 0)
(-0.224619 -0.286682 0)
(-0.290129 -0.327069 0)
(-0.164599 -0.442996 0)
(-0.0915022 -0.392483 0)
(-0.16543 -0.307124 0)
(-0.186804 0.36706 0)
(-0.0200134 0.0773384 0)
(-0.0417732 -0.00560672 0)
(0.123129 0.0724995 0)
(0.297234 -0.0438754 0)
(0.228821 -0.152016 0)
(0.22827 -0.035976 0)
(0.141954 0.306148 0)
(-0.0155298 0.414879 0)
(0.135345 0.44507 0)
(-0.0960317 0.443177 0)
(-0.0548511 0.0640797 0)
(-0.18046 -0.117619 0)
(-0.158173 -0.172038 0)
(-0.0669116 -0.17204 0)
(0.0329437 -0.14281 0)
(0.117961 -0.0744488 0)
(0.188394 0.00583762 0)
(0.222247 0.0726469 0)
(0.199818 0.121506 0)
(0.095998 0.132431 0)
(-0.0577205 0.166761 0)
(-0.181427 0.289147 0)
(-0.00889505 0.426333 0)
(0.0886412 0.197047 0)
(-0.010364 0.133357 0)
(0.0518295 0.0513304 0)
(0.115259 -0.0764885 0)
(0.066199 -0.211937 0)
(0.00578858 -0.0948609 0)
(0.0973276 0.293547 0)
(0.0830611 0.350787 0)
(0.172485 0.282051 0)
(0.215513 0.0742172 0)
(0.294023 -0.222346 0)
(0.171312 -0.244526 0)
(0.0837424 -0.179837 0)
(0.0750128 -0.0896272 0)
(0.0590444 -0.0365351 0)
(0.0315383 -0.0473406 0)
(7.69023e-05 -0.0706382 0)
(-0.0253002 -0.0788534 0)
(-0.0247614 -0.055312 0)
(-0.0323908 0.00509767 0)
(-0.0723602 0.0816154 0)
(-0.102119 0.188233 0)
(0.0490872 0.345315 0)
(0.0910364 0.128285 0)
(0.102473 0.00267077 0)
(0.119597 -0.0384387 0)
(0.11462 -0.0661684 0)
(0.044591 -0.100912 0)
(-0.0683317 -0.0928335 0)
(0.0218453 0.180539 0)
(0.161067 0.212732 0)
(0.249534 0.169595 0)
(0.304566 0.105493 0)
(0.265601 0.0330725 0)
(0.128205 -0.0996851 0)
(0.0512322 -0.174164 0)
(0.00741391 -0.199687 0)
(-0.00911864 -0.200667 0)
(-0.0145325 -0.183232 0)
(-0.0159885 -0.145343 0)
(-0.0180279 -0.0815261 0)
(-0.0374567 -0.00714173 0)
(-0.0497887 0.066361 0)
(-0.0609419 0.135311 0)
(-0.064434 0.208374 0)
(0.0571751 0.246165 0)
(0.0916125 0.145059 0)
(0.0873073 0.076428 0)
(0.0663289 0.0250381 0)
(0.046391 -0.0174725 0)
(0.0188401 -0.0596313 0)
(-0.0479413 -0.0532261 0)
(-0.0408371 0.0125117 0)
(0.0671554 0.108452 0)
(0.167493 0.135658 0)
(0.159282 0.109927 0)
(0.142901 0.0412945 0)
(0.124713 -0.032816 0)
(0.0694101 -0.07179 0)
(0.0200427 -0.0725936 0)
(-0.0164478 -0.0567976 0)
(-0.0472846 -0.0403467 0)
(-0.0722794 -0.0181355 0)
(-0.0976808 0.0146598 0)
(-0.121434 0.0578011 0)
(-0.133624 0.113978 0)
(-0.133832 0.169817 0)
(-0.112283 0.224924 0)
(0.0362155 0.170708 0)
(0.0695563 0.108485 0)
(0.0841601 0.0445703 0)
(0.0776284 0.0154423 0)
(0.0585008 0.00225681 0)
(0.0230577 -0.00498038 0)
(-0.020523 -0.00139431 0)
(-0.0419221 0.0361204 0)
(-0.0392416 0.0461186 0)
(0.0181655 0.0964826 0)
(0.0420731 0.0923457 0)
(0.0538451 0.0391489 0)
(0.0358326 -0.0150215 0)
(0.00498795 -0.0554732 0)
(-0.0286958 -0.0772362 0)
(-0.0548356 -0.0802393 0)
(-0.080749 -0.074118 0)
(-0.106452 -0.0578061 0)
(-0.123656 -0.0252331 0)
(-0.129543 0.0176284 0)
(-0.129177 0.06857 0)
(-0.124935 0.124536 0)
(-0.10733 0.174996 0)
(0.022976 0.137495 0)
(0.0472137 0.0971109 0)
(0.0577343 0.0601194 0)
(0.0493884 0.0389557 0)
(0.0353521 0.0253975 0)
(0.0185595 0.0165059 0)
(-0.00233403 0.0186297 0)
(-0.0131003 0.034344 0)
(-0.0173629 0.0426208 0)
(-0.00715813 0.0633014 0)
(0.0224875 0.0727592 0)
(0.0275319 0.0556923 0)
(0.0160346 0.0161894 0)
(-0.00777281 -0.0187928 0)
(-0.0366745 -0.0393049 0)
(-0.0594264 -0.0434005 0)
(-0.0778535 -0.0333822 0)
(-0.0944447 -0.0137609 0)
(-0.109842 0.0176099 0)
(-0.119917 0.0492216 0)
(-0.119178 0.0831752 0)
(-0.107151 0.119507 0)
(-0.0847336 0.148918 0)
(0.0123658 0.108624 0)
(0.0287746 0.0739062 0)
(0.0355916 0.0547044 0)
(0.0307178 0.0445023 0)
(0.0228765 0.037019 0)
(0.0135101 0.0332473 0)
(0.00221188 0.0346596 0)
(-0.00161566 0.040076 0)
(-0.00262301 0.0429042 0)
(0.000712021 0.0568186 0)
(0.013139 0.0599393 0)
(0.0209609 0.0493425 0)
(0.0185355 0.0263884 0)
(0.00381272 0.00674546 0)
(-0.0190471 -0.00930232 0)
(-0.0411645 -0.0192146 0)
(-0.0594217 -0.015759 0)
(-0.0741445 -0.00290536 0)
(-0.0848122 0.019739 0)
(-0.0914381 0.0471657 0)
(-0.0929841 0.0765475 0)
(-0.083627 0.108092 0)
(-0.0675598 0.135032 0)
(0.00811057 0.094151 0)
(0.0168789 0.0680059 0)
(0.0200757 0.0566046 0)
(0.0188345 0.0476867 0)
(0.0154826 0.0409967 0)
(0.0109809 0.0380539 0)
(0.00699672 0.0372789 0)
(0.00574499 0.0410878 0)
(0.00467788 0.04232 0)
(0.00790984 0.050149 0)
(0.0154599 0.051288 0)
(0.0200597 0.0460555 0)
(0.0227958 0.0314751 0)
(0.0167429 0.0173836 0)
(0.00454267 0.0047791 0)
(-0.0100279 -0.00372014 0)
(-0.0297828 -0.00482184 0)
(-0.0445478 0.00469393 0)
(-0.0557494 0.0255371 0)
(-0.0643036 0.0481002 0)
(-0.0698103 0.0682689 0)
(-0.0635857 0.091722 0)
(-0.0498338 0.115702 0)
(0.00476818 0.0850823 0)
(0.01019 0.0623378 0)
(0.0135359 0.055271 0)
(0.0139404 0.049351 0)
(0.0122946 0.0441003 0)
(0.0102235 0.04089 0)
(0.0080594 0.0395731 0)
(0.00747494 0.0406362 0)
(0.00730345 0.04165 0)
(0.00986682 0.0461413 0)
(0.0152835 0.0470944 0)
(0.0201754 0.0423654 0)
(0.022648 0.0317632 0)
(0.019921 0.0232483 0)
(0.0113366 0.0154521 0)
(0.000825453 0.0121474 0)
(-0.015313 0.0148965 0)
(-0.0303884 0.0233626 0)
(-0.0417883 0.0399061 0)
(-0.0472757 0.0612976 0)
(-0.0527541 0.0745969 0)
(-0.0500641 0.085685 0)
(-0.0386375 0.102288 0)
(0.00286911 0.0789562 0)
(0.00709676 0.0579199 0)
(0.0101342 0.053264 0)
(0.0112657 0.0490987 0)
(0.0107459 0.0454891 0)
(0.00908498 0.0427458 0)
(0.00706071 0.0413137 0)
(0.00556235 0.0411196 0)
(0.00452505 0.041207 0)
(0.00522367 0.0422221 0)
(0.00911044 0.0411477 0)
(0.0128608 0.0371354 0)
(0.0124576 0.0328365 0)
(0.00919596 0.029599 0)
(0.00226169 0.0249819 0)
(-0.00755531 0.0252433 0)
)
;

boundaryField
{
    leftWall
    {
        type            fixedValue;
        value           uniform (0 0 0);
    }
    rightWall
    {
        type            fixedValue;
        value           nonuniform 0();
    }
    lowerWall
    {
        type            fixedValue;
        value           uniform (0 0 0);
    }
    atmosphere
    {
        type            fluxCorrectedVelocity;
        value           nonuniform 0();
    }
    defaultFaces
    {
        type            empty;
    }
    procBoundary0to1
    {
        type            processor;
        value           nonuniform List<vector> 
26
(
(-0.0347175 -0.00617188 0)
(-0.0239695 -0.0280011 0)
(0.00467362 -0.0306232 0)
(0.00219933 -0.0306664 0)
(0.00575634 -0.0346694 0)
(-0.00156825 -0.0394473 0)
(-0.00299664 -0.0379628 0)
(0.00423754 0.019345 0)
(0.0507664 0.0283346 0)
(0.238975 -0.0578495 0)
(0.511915 -0.225136 0)
(0.492079 -0.429855 0)
(0.287852 -0.550872 0)
(0.254795 -1.08566 0)
(-1.19258 -0.135086 0)
(-0.338893 -0.116412 0)
(-0.338893 -0.116412 0)
(-0.218495 0.441686 0)
(-0.104045 0.310496 0)
(-0.0587665 0.266403 0)
(-0.0906859 0.257815 0)
(-0.0865044 0.196003 0)
(-0.0677742 0.159168 0)
(-0.0562417 0.144382 0)
(-0.0393426 0.126147 0)
(-0.0291056 0.11063 0)
)
;
    }
    procBoundary0to2
    {
        type            processor;
        value           nonuniform List<vector> 
24
(
(-0.0211782 0.0282923 0)
(-0.0300134 0.0348956 0)
(-0.0359275 0.0463284 0)
(-0.0402555 0.063569 0)
(-0.0384298 0.07448 0)
(-0.0348508 0.0802868 0)
(-0.0240864 0.0906145 0)
(0.00201943 0.0748958 0)
(0.00546493 0.0545984 0)
(0.00780211 0.0514393 0)
(0.00823926 0.0486299 0)
(0.00789044 0.0463446 0)
(0.00620909 0.0444998 0)
(0.00438517 0.0433344 0)
(0.00284051 0.0428075 0)
(0.00145259 0.0422777 0)
(0.00118495 0.04107 0)
(0.00132435 0.0394381 0)
(0.00177909 0.0373131 0)
(-0.000274377 0.0351549 0)
(-0.00249094 0.031992 0)
(-0.00778824 0.0316748 0)
(-0.0211782 0.0282923 0)
(-0.0142051 0.0345883 0)
)
;
    }
}


// ************************************************************************* //
