/*--------------------------------*- C++ -*----------------------------------*\
| =========                 |                                                 |
| \\      /  F ield         | OpenFOAM: The Open Source CFD Toolbox           |
|  \\    /   O peration     | Version:  2.4.0                                 |
|   \\  /    A nd           | Web:      www.OpenFOAM.org                      |
|    \\/     M anipulation  |                                                 |
\*---------------------------------------------------------------------------*/
FoamFile
{
    version     2.0;
    format      ascii;
    class       volScalarField;
    location    "0.6";
    object      alphas;
}
// * * * * * * * * * * * * * * * * * * * * * * * * * * * * * * * * * * * * * //

dimensions      [0 0 0 0 0 0 0];

internalField   nonuniform List<scalar> 
2268
(
2
2
2
2
2
2
2
2
2
2
2
2
2
2
2
2
2
2
2
2
2
2
1.99999
2
2
2
2
2
2
2
2
2
2
2
2
2
2
2
2
2
2
2
2
2
2
1.99999
1.99879
1.99864
1.99903
1.9984
1.9984
1.99866
1.99838
1.99837
1.99824
1.99901
1.99958
1.99988
1.99997
1.99999
2
2
2
2
2
2
2
2
1.99999
1.8163
1.8091
1.82221
1.79651
1.78836
1.78902
1.77235
1.77161
1.76977
1.814
1.86024
1.93282
1.9878
1.99919
1.99995
1.99999
2
2
2
2
2
2
1.99999
0.36844
0.353297
0.3669
0.330936
0.318516
0.302269
0.268113
0.261881
0.247412
0.27601
0.322208
0.427155
0.711481
1.20002
1.8336
1.99256
1.99982
2
2
2
2
2
1.99999
6.31462e-05
5.83316e-05
5.9751e-05
5.16525e-05
4.88672e-05
4.33726e-05
3.61379e-05
3.27364e-05
2.93544e-05
2.8813e-05
2.8107e-05
2.81839e-05
0.00424304
0.0717972
0.568872
1.66939
1.99063
1.99972
1.99997
1.99999
2
2
1.99999
1.21719e-05
1.21089e-05
1.21022e-05
1.21214e-05
1.20198e-05
1.16575e-05
1.19475e-05
1.21012e-05
1.21872e-05
1.2373e-05
1.27467e-05
1.29788e-05
1.3036e-05
0.000293529
0.0253499
0.601964
1.88114
1.9979
1.99965
1.99992
1.99999
2
1.99998
1.6975e-05
1.66456e-05
1.58829e-05
1.5881e-05
1.47094e-05
1.15003e-05
1.21482e-05
1.20903e-05
1.18064e-05
1.19237e-05
1.2886e-05
1.33632e-05
1.42261e-05
1.42647e-05
0.000526911
0.118962
1.28802
1.98545
1.99922
1.99989
2
2
1.99998
1.20111
1.34645
1.43762
1.44201
1.44637
1.45079
1.45523
1.46443
1.50294
1.5677
1.59919
1.60045
1.60176
1.60309
1.6041
1.60455
1.60562
1.6084
1.60989
1.06003
1.12463
1.35661
1.42918
1.38847
1.31023
1.23628
1.21438
1.21386
1.22046
1.25861
1.29725
1.31349
1.35084
1.42981
1.52178
1.55712
1.59559
1.61091
1.0457
1.17648
1.40402
1.44519
1.41696
1.35825
1.30272
1.26842
1.24781
1.2252
1.18222
1.14402
1.1581
1.17129
1.15174
1.15638
1.21115
1.35732
1.61199
1.08788
1.34816
1.51797
1.52652
1.49581
1.42997
1.37175
1.32847
1.29517
1.24695
1.1552
1.1151
1.14083
1.13756
1.08133
1.02868
1.01682
1.15836
1.61352
1.2182
1.48742
1.53327
1.4911
1.46672
1.38866
1.34107
1.3114
1.27534
1.18533
1.11259
1.10861
1.12406
1.10215
1.03641
1.011
0.991289
1.07239
1.47524
1.41834
1.48546
1.42021
1.08426
1.06518
1.09535
0.951483
1.02443
1.09102
1.10235
1.10266
1.10063
1.09351
1.06048
1.0114
1.00829
0.990868
1.02967
1.35985
1.49766
1.32851
0.890089
0.49815
0.498803
0.579392
0.476191
0.582608
0.872002
1.04406
1.09928
1.09624
1.06459
1.17092
1.03012
1.00966
0.994804
1.01406
1.31948
1.42044
1.14898
0.489823
0.302462
0.346333
0.450669
0.529326
0.448441
0.643092
0.883967
1.03701
1.04823
1.00202
2.43963
1.67298
1.01868
1.00579
1.00862
1.31223
1.17668e-05
1.10653e-05
1.00056e-05
9.8623e-06
8.21436e-06
7.87382e-06
1.00801e-05
2.3473e-05
2.37815e-05
1.91794e-05
1.20536e-05
1.14901e-05
1.31102e-05
1.48814e-05
2.39421e-05
0.00797024
0.277452
1.35179
1.94693
1.97749
1.95471
1.9389
1.94806
2.41567e-06
2.2563e-06
1.94555e-06
1.85105e-06
1.82322e-06
9.88651e-05
0.00140357
0.00442327
0.00419657
0.00328305
0.00164052
0.000681501
0.000150511
1.56416e-05
9.09884e-06
5.90391e-05
0.0114392
0.173585
0.569785
0.930398
1.0662
0.995183
0.995832
2.49706e-06
2.22107e-06
2.20769e-06
5.43794e-06
0.000496319
0.0163583
0.0704352
0.119926
0.112586
0.0965785
0.0622055
0.0330134
0.00874301
0.0017665
0.000330188
6.51055e-05
0.000215307
0.00652697
0.0251795
0.021389
0.0199942
0.0214305
0.0329586
2.41846e-06
5.15936e-05
0.00209534
0.0049028
0.0375379
0.237978
0.485918
0.603341
0.607068
0.606874
0.54138
0.434101
0.244813
0.100134
0.0286307
0.00685844
0.00170268
0.000660206
0.000748814
0.0028576
0.0114613
0.0343529
0.0821885
0.748877
0.709691
0.582938
0.535807
0.802106
0.936758
1.01066
1.06884
1.0666
1.04726
1.00109
0.947352
0.895909
0.742658
0.561457
0.335833
0.150765
0.139267
0.107293
0.17578
0.272047
0.384715
0.533083
2.92703
2.93451
2.95136
2.94976
2.9572
2.87224
2.71549
2.58073
2.29304
1.95134
1.6175
1.38046
1.18008
1.07275
1.03677
0.990802
0.907967
0.888166
0.812414
0.925547
1.09715
1.28384
1.61092
2.99999
2.99993
2.99992
2.99984
2.99986
2.99997
2.99999
2.99999
2.99999
2.99973
2.99367
2.94742
2.77655
2.49535
2.27761
2.12826
2.06342
2.04203
2.06751
2.3874
2.57656
2.82938
2.96999
3
3
3
3
3
3
3
3
3
3
3
3
3
3
2.99999
2.99994
2.99964
2.99918
2.99922
2.99997
3
3
3
3
3
3
3
3
3
3
3
3
3
3
3
3
3
3
3
3
3
3
3
3
3
3
3
3
3
3
3
3
3
3
3
3
3
3
3
3
3
3
3
3
3
3
3
3
3
3
3
3
3
3
3
3
3
3
3
3
3
3
3
3
3
3
3
3
3
3
3
3
2.99999
2.99999
3
3
3
3
3
3
3
3
3
3
3
3
3
3
3
3
3
3
3
3
3
3
3
3
3
3
3
3
3
3
3
3
3
3
3
3
3
3
3
3
3
3
3
3
3
3
3
3
3
3
3
3
3
3
3
3
3
3
3
3
3
3
3
3
3
3
3
3
3
3
3
3
3
3
3
3
3
3
3
3
3
3
3
3
3
3
3
3
3
3
3
3
3
3
3
3
3
3
3
3
3
3
3
3
3
3
3
3
3
3
3
3
3
3
3
3
3
3
3
3
3
3
3
3
3
3
3
3
3
3
3
3
3
3
3
3
3
3
3
3
3
3
3
3
3
3
3
3
3
3
3
3
3
3
3
3
3
3
3
3
3
3
3
3
3
3
3
3
3
3
3
3
3
3
3
3
3
3
3
3
3
3
3
3
3
3
3
3
3
3
3
3
3
3
3
3
3
3
3
3
3
3
3
3
3
3
3
3
3
3
3
3
3
3
3
3
3
3
3
3
3
3
3
3
3
3
3
3
3
3
3
3
3
3
3
3
3
3
3
3
3
3
3
3
3
3
3
3
3
3
3
3
3
3
3
3
3
3
3
3
3
3
3
3
3
3
3
3
3
3
3
3
3
3
3
3
3
3
3
3
3
3
3
3
3
3
3
3
3
3
3
3
3
2.99999
2.99999
2.99999
3
3
3
3
3
3
3
3
3
3
3
3
3
3
3
3
3
3
3
3
2.99999
2.99999
2.99999
2.99999
3
3
3
3
3
3
3
3
3
3
3
3
3
3
3
3
3
3
3
2.99999
2.99999
2.99999
2.99999
3
3
3
3
3
3
3
3
3
3
3
3
3
3
3
3
3
3
3
3
2.99999
2.99999
2.99999
3
3
3
3
3
3
3
3
3
3
3
3
3
3
3
3
3
3
3
3
2.99999
2.99999
2.99999
3
3
3
3
3
3
3
3
3
3
3
3
3
3
3
3
3
3
3
3
3
2.99999
2.99999
3
3
3
3
3
3
3
3
3
3
3
3
3
3
3
3
3
3
3
3
3
2.99999
2.99999
3
3
3
3
3
3
3
3
3
3
3
3
3
3
3
3
3
3
3
3
3
3
2.99999
3
3
3
3
3
3
3
3
3
3
3
3
3
3
3
3
3
3
3
3
3
3
3
3
3
3
3
3
3
3
3
3
3
3
3
3
3
3
3
3
3
3
3
3
3
3
3
3
3
3
3
3
3
3
3
3
3
3
3
3
3
3
3
3
3
3
3
3
3
3
3
3
3
3
3
3
3
3
3
3
3
3
3
3
3
3
3
3
3
3
3
3
3
3
3
3
3
3
3
3
3
3
3
3
3
3
3
3
3
3
3
3
3
3
3
3
3
3
3
3
3
3
3
3
3
3
3
3
3
3
3
3
3
3
3
3
3
3
3
3
3
3
3
3
3
3
3
3
3
3
3
3
3
3
3
3
3
3
3
3
3
3
3
3
3
3
3
3
3
3
3
3
3
3
3
3
3
3
3
3
3
3
3
3
3
3
3
3
3
3
3
3
3
3
3
3
3
3
3
3
3
3
3
3
3
3
3
3
3
3
3
3
3
3
3
3
3
3
3
3
3
3
3
3
3
3
3
3
3
3
3
3
3
3
3
3
3
3
3
3
3
3
3
3
3
3
3
3
3
3
3
3
3
1.91926
1.90098
1.85867
1.80132
0.908785
0.82652
0.715423
0.575262
0.0483982
0.0613803
0.080046
0.10353
0.150626
0.216575
0.289358
0.370403
0.670302
0.800697
1.01687
1.29256
1.92616
2.17191
2.51832
2.85209
2.9978
2.99979
2.99999
3
3
3
3
3
3
3
3
3
3
3
3
3
3
3
3
3
3
3
3
3
3
3
3
3
3
3
3
3
3
3
2.99999
2.99999
3
2.99999
2.99999
2.99999
2.99999
3
2.99999
2.99999
3
3
3
3
3
3
3
3
3
3
3
3
3
3
3
3
3
3
3
3
3
3
3
3
3
3
3
3
3
3
2.99999
2.99999
2.99999
2.99999
2.99999
2.99999
2.99999
2.99999
2.99999
2.99999
2.99999
2.99999
2.99999
2.99999
2.99999
2.99999
2.99999
2.99999
2.99999
2.99999
2.99999
2.99999
2.99999
2.99999
2.99999
2.99999
2.99999
2.99999
2.99999
2.99999
3
2.99999
2.99999
2.99999
3
2.99999
2.99999
2.99999
3
3
2.99999
2.99999
3
3
3
3
3
3
3
3
3
3
3
3
3
3
3
3
3
3
3
3
3
3
3
3
3
3
3
3
1.34372
0.585505
0.260876
0.209123
0.205356
0.285985
0.51195
0.447013
0.449857
0.581592
0.710545
0.747249
1.54917
2.53916
2.5496
1.29213
1.02714
1.01912
1.28826
0.305459
0.223585
0.255618
0.303626
0.32443
0.307139
0.284374
0.30974
0.303105
0.354878
0.458705
0.516567
1.01839
1.26109
1.53043
1.54727
1.04019
1.06334
1.30618
0.18528
0.343464
0.595136
0.833112
0.842651
0.670633
0.521205
0.470026
0.377828
0.344057
0.343112
0.353303
0.407319
0.402591
0.406459
0.819884
1.42196
2.01779
1.74549
0.600963
1.19911
1.97171
2.58668
2.59851
2.26045
1.5433
1.05902
0.645593
0.559063
0.517415
0.484974
0.449958
0.39971
0.37395
0.548458
2.40342
2.83896
2.4457
1.89215
2.63746
2.97369
2.99909
2.99664
2.98066
2.96196
2.54652
1.90909
1.5463
1.28845
1.0503
0.672721
0.571703
0.521853
0.447888
2.4434
2.84074
2.65917
2.98378
2.99982
2.99999
2.99912
2.99167
2.98413
2.97548
2.9726
2.9595
2.95031
2.91429
2.75242
2.30617
1.21937
0.602315
0.546512
1.64627
2.82544
2.38775
3
3
3
2.99701
2.90115
2.65337
2.38052
2.2289
2.21246
2.34226
2.69013
2.95334
2.95212
2.75968
1.47152
0.654796
1.02593
2.33483
1.60366
3
3
2.99999
2.99145
2.74129
1.80567
1.21233
1.10883
1.09599
1.1044
1.27725
2.31991
2.92843
2.92805
2.64894
1.22912
0.826858
1.24376
0.908356
3
3
2.99998
2.98993
2.68957
1.59007
1.04664
1.00283
1.00131
1.00054
1.00211
1.14173
2.28648
2.90336
2.89424
2.12243
0.923388
0.707848
0.738529
3
3
3
2.99846
2.93432
2.48674
1.55937
1.07319
1.00212
1.00051
1.00045
1.0051
1.31535
2.6725
2.89137
2.80161
1.28546
0.695206
0.74214
3
3
3
2.99999
2.99907
2.96949
2.64016
1.64516
1.05714
1.00133
1.00041
1.00037
1.06417
1.94047
2.88729
2.88292
1.82486
0.794228
0.766387
3
3
3
3
3
2.99979
2.97729
2.6087
1.47664
1.02359
1.00031
0.999886
1.05284
1.77062
2.88322
2.87968
2.14014
0.875361
0.791274
3
3
3
3
3
3
2.99949
2.94889
2.32574
1.19831
1.00416
0.999378
1.02449
1.49136
2.63146
2.74777
1.80704
0.864275
0.812363
3
2.99999
3
3
3
3
3
2.99566
2.79059
1.68267
1.03245
0.999237
0.999032
1.09612
1.50241
1.68073
1.11008
0.850237
0.833364
2.99999
2.99999
2.99999
3
2.99999
3
3
2.99961
2.93777
2.21946
1.14578
1
0.995766
0.986937
0.992632
0.984884
0.910127
0.866039
0.859158
2.99999
2.99999
2.99999
2.99999
3
3
3
2.99997
2.98614
2.63126
1.50469
1.02414
0.995906
0.988237
0.967523
0.943361
0.922036
0.909678
0.905153
2.99999
2.99999
2.99999
2.99999
2.99999
3
3
3
2.99967
2.948
2.38525
1.37226
1.02061
0.994059
0.987385
0.973333
0.968589
0.97161
0.969431
2.99999
2.99999
2.99999
2.99999
2.99999
2.99999
3
3
2.99999
2.99809
2.9728
2.75111
1.91944
1.14235
1.01775
0.996294
0.995364
0.998192
0.999357
3
2.99999
2.99999
2.99999
2.99999
3
3
3
3
2.99999
2.9994
2.98915
2.9335
2.65514
2.27904
1.98649
1.74038
1.4353
1.16595
3
2.99999
2.99999
2.99999
2.99999
3
3
3
3
3
3
2.99981
2.99834
2.99336
2.98007
2.95644
2.93674
2.79085
1.88957
3
2.99999
2.99999
2.99999
2.99999
3
3
3
3
3
3
3
3
2.99999
2.99998
2.99995
2.99987
2.96141
1.84218
3
2.99999
2.99999
2.99999
2.99999
3
3
3
3
3
3
3
3
3
3
3
3
2.99981
1.73438
3
2.99999
2.99999
2.99999
2.99999
3
3
3
3
3
3
3
3
3
3
3
3
2.99997
2.05669
3
2.99999
2.99999
2.99999
2.99999
3
3
3
3
3
3
3
3
3
3
3
3
2.99999
2.18688
2.99999
2.99999
2.99999
2.99999
3
3
3
3
3
3
3
3
3
3
3
3
3
2.99999
2.19517
2.99999
2.99999
2.99999
2.99999
3
3
3
3
3
3
3
3
3
3
3
3
3
3
2.32991
2.99999
2.99999
2.99999
2.99999
2.99999
3
3
3
3
3
3
3
3
3
3
3
3
3
2.52958
2.99999
2.99999
2.99999
2.99999
2.99999
3
3
3
3
3
3
3
3
3
3
3
3
2.99995
2.7278
2.99999
2.99999
2.99999
2.99999
2.99999
3
3
3
3
3
3
3
3
3
3
3
3
2.99948
2.90006
2.99999
2.99999
2.99999
2.99999
2.99999
3
3
3
3
3
3
3
3
3
3
3
3
2.99857
2.97822
2.99999
2.99999
2.99999
2.99999
2.99999
3
3
3
3
3
3
3
3
3
2.99995
2.99999
2.99999
2.99824
2.9979
2.99999
2.99999
2.99999
2.99999
2.99999
3
3
3
3
3
3
3
3
2.99997
2.99982
2.99998
2.99995
2.99964
2.99963
2.99999
2.99999
2.99999
2.99999
3
3
3
3
3
3
3
3
3
2.99993
2.99961
2.99996
2.99996
2.99968
2.99436
2.99999
2.99999
2.99999
2.99999
3
3
3
3
3
3
3
3
3
2.99998
2.9996
2.99794
2.99646
2.96183
2.74296
2.99999
2.99999
2.99999
3
3
3
3
3
3
3
3
3
3
3
2.99981
2.98824
2.82045
2.30374
1.61262
3
2.99999
3
3
3
3
3
3
3
3
3
3
3
3
2.99983
2.98034
2.5743
1.45532
1.04135
3
3
3
3
3
3
3
3
3
3
3
3
3
3
2.99993
2.99154
2.75002
1.44652
1.02835
3
3
3
3
3
3
3
3
3
3
3
3
3
3
2.99999
2.99945
2.98398
2.29325
1.02835
3
3
3
3
3
3
3
3
3
3
3
3
3
3
3
2.99999
2.99989
2.83976
1.04172
3
3
3
3
3
3
3
3
3
3
3
3
3
3
3
3
3
2.9689
1.31701
3
3
3
3
3
3
3
3
3
3
3
3
3
3
3
3
3
2.99713
2.21026
3
3
3
3
3
3
3
3
3
3
3
3
3
3
3
3
3
2.99993
2.94428
)
;

boundaryField
{
    leftWall
    {
        type            zeroGradient;
    }
    rightWall
    {
        type            zeroGradient;
    }
    lowerWall
    {
        type            zeroGradient;
    }
    atmosphere
    {
        type            zeroGradient;
    }
    defaultFaces
    {
        type            empty;
    }
}


// ************************************************************************* //
