/*--------------------------------*- C++ -*----------------------------------*\
| =========                 |                                                 |
| \\      /  F ield         | OpenFOAM: The Open Source CFD Toolbox           |
|  \\    /   O peration     | Version:  2.4.0                                 |
|   \\  /    A nd           | Web:      www.OpenFOAM.org                      |
|    \\/     M anipulation  |                                                 |
\*---------------------------------------------------------------------------*/
FoamFile
{
    version     2.0;
    format      ascii;
    class       volScalarField;
    location    "0.6";
    object      alpha.mercury;
}
// * * * * * * * * * * * * * * * * * * * * * * * * * * * * * * * * * * * * * //

dimensions      [0 0 0 0 0 0 0];

internalField   nonuniform List<scalar> 
2268
(
1
1
1
1
1
1
1
1
1
1
1
1
1
1
1
1
1
1
1
1
1
0.999999
0.99999
1
1
1
1
1
1
1
1
0.999999
1
1
1
1
1
1
1
1
1
1
1
1
0.999999
0.999986
0.999396
0.999322
0.999513
0.999198
0.999201
0.999332
0.99919
0.999186
0.999122
0.999506
0.999791
0.999941
0.999987
0.999997
0.999999
1
1
1
1
1
1
0.999999
0.999988
0.908148
0.904552
0.911106
0.898257
0.89418
0.89451
0.886174
0.885803
0.884885
0.906999
0.930122
0.96641
0.993899
0.999593
0.999975
0.999997
0.999999
1
1
1
1
0.999999
0.999988
0.18422
0.176648
0.18345
0.165468
0.159258
0.151134
0.134057
0.13094
0.123706
0.138005
0.161104
0.213577
0.355741
0.600008
0.916802
0.996282
0.999912
0.999998
0.999999
0.999999
0.999999
0.999999
0.999988
3.1573e-05
2.91657e-05
2.98754e-05
2.58261e-05
2.44335e-05
2.16862e-05
1.80689e-05
1.63681e-05
1.46771e-05
1.44063e-05
1.40534e-05
1.40918e-05
0.00212152
0.0358986
0.284436
0.834693
0.995314
0.999861
0.999986
0.999995
0.999999
0.999998
0.999986
6.08586e-06
6.05438e-06
6.05104e-06
6.06062e-06
6.00982e-06
5.82867e-06
5.97294e-06
6.04914e-06
6.08515e-06
6.17822e-06
6.37098e-06
6.48787e-06
6.51716e-06
0.000146764
0.0126749
0.300982
0.94057
0.99895
0.999824
0.999958
0.999993
0.999997
0.999983
8.48739e-06
8.32273e-06
7.94139e-06
7.94043e-06
7.35464e-06
5.74956e-06
6.00462e-06
5.99196e-06
5.68162e-06
5.77217e-06
6.35751e-06
6.6777e-06
7.10961e-06
7.11255e-06
0.000263269
0.0594802
0.644006
0.99272
0.999607
0.999944
0.999996
0.999997
0.999981
0.201097
0.346445
0.437615
0.442002
0.446352
0.450756
0.455196
0.464384
0.50279
0.567355
0.598848
0.600217
0.601618
0.603036
0.604411
0.605721
0.606975
0.60902
0.610409
0.0599147
0.124379
0.356625
0.429196
0.388467
0.310231
0.236273
0.214381
0.213861
0.220454
0.258396
0.296569
0.312813
0.350328
0.429681
0.521683
0.558204
0.596957
0.611735
0.0449254
0.162501
0.405286
0.446148
0.417112
0.358256
0.302717
0.268416
0.247803
0.225201
0.182203
0.14359
0.157471
0.17081
0.150193
0.155379
0.215253
0.361307
0.612997
0.0875251
0.312002
0.529468
0.540894
0.500497
0.430834
0.371873
0.328486
0.295165
0.24695
0.155195
0.115083
0.140865
0.138432
0.0825705
0.028866
0.02895
0.168722
0.614256
0.218308
0.475035
0.571129
0.558329
0.483408
0.407914
0.353306
0.313949
0.275548
0.185352
0.112613
0.108758
0.124973
0.106617
0.0414233
0.0137345
0.0086217
0.089651
0.478103
0.423476
0.575118
0.568457
0.326546
0.247275
0.172878
0.134384
0.112844
0.104743
0.103355
0.102892
0.101248
0.0970989
0.0728961
0.0199817
0.0117119
0.00850514
0.0528784
0.367122
0.583
0.583985
0.400127
0.130463
0.0451591
0.0323548
0.0110843
0.00434816
0.00686318
0.0742595
0.101748
0.0994816
0.0829502
0.0392175
0.0147015
0.0118984
0.0104205
0.0378292
0.327078
0.628429
0.543919
0.220501
0.106477
0.0429538
0.00298913
0.00107497
0.000743856
0.000505119
0.00778381
0.0707308
0.0752936
0.0342425
0.00886113
0.0189805
0.0174998
0.017212
0.0308588
0.31556
5.85112e-06
5.49943e-06
4.98537e-06
4.92362e-06
4.09122e-06
3.2496e-06
3.33031e-06
2.87647e-06
2.69909e-06
2.8923e-06
3.6944e-06
4.47621e-06
5.89219e-06
7.27115e-06
1.17948e-05
0.00398468
0.13872
0.675842
0.973386
0.98866
0.977163
0.969343
0.974002
7.616e-07
7.11932e-07
6.64195e-07
6.38286e-07
5.30419e-07
3.36913e-07
2.89006e-07
2.6216e-07
2.66348e-07
2.83185e-07
3.25932e-07
3.54701e-07
4.97861e-07
1.4769e-06
3.33638e-06
2.89322e-05
0.00571733
0.0867714
0.284763
0.464574
0.532396
0.496835
0.497257
9.2496e-08
8.11545e-08
6.65802e-08
5.06769e-08
3.60179e-08
1.56784e-08
1.11106e-08
8.85554e-09
1.03213e-08
1.22442e-08
1.5874e-08
2.02008e-08
3.46666e-08
8.03133e-08
2.72005e-07
2.17992e-06
9.32791e-05
0.00324852
0.012557
0.0106153
0.00952085
0.0092132
0.0115994
4.49972e-09
3.5848e-09
2.32584e-09
1.50947e-09
1.08673e-09
3.48749e-10
1.91821e-10
1.54917e-10
2.20905e-10
2.72879e-10
3.70143e-10
4.9723e-10
9.52392e-10
1.93024e-09
5.73789e-09
4.52456e-08
7.02512e-06
9.26132e-05
0.000166985
0.000137757
0.00011399
9.66881e-05
7.86475e-05
6.14535e-11
4.19379e-11
2.28957e-11
1.22267e-11
5.56643e-12
2.55834e-12
1.96403e-12
2.00057e-12
2.32678e-12
2.75015e-12
3.53649e-12
4.70209e-12
7.0781e-12
1.62962e-11
4.37103e-11
1.96262e-10
2.44837e-08
1.38298e-07
9.35871e-07
3.66534e-06
7.70247e-06
1.01777e-05
9.96322e-06
3.71845e-12
5.26904e-12
2.73618e-12
5.12766e-13
1.20015e-13
1.04231e-13
1.79307e-13
2.96723e-13
4.47168e-13
6.47959e-13
9.71344e-13
1.44158e-12
2.10914e-12
2.97082e-12
4.11655e-12
5.91958e-12
8.97543e-12
6.29651e-11
2.18675e-09
3.03059e-08
1.7395e-07
3.62243e-07
4.35574e-07
1.1522e-13
8.91223e-13
9.2658e-13
1.38863e-13
2.86073e-14
9.2597e-15
5.43425e-15
2.5893e-14
2.67768e-13
5.20292e-13
7.95037e-13
1.19633e-12
1.99847e-12
3.35488e-12
4.81991e-12
6.27483e-12
8.43198e-12
4.792e-11
3.03688e-10
8.44347e-10
1.23942e-09
1.38117e-09
8.11953e-10
3.00314e-14
1.29439e-13
1.63694e-13
1.03978e-14
4.5837e-16
1.06822e-16
2.34709e-15
2.85902e-14
1.21133e-13
2.83727e-14
7.52595e-15
1.41896e-14
8.70933e-14
5.31095e-13
1.50815e-12
2.27399e-12
3.82922e-12
9.6741e-12
2.76076e-11
5.7227e-12
1.85306e-12
7.47112e-13
2.561e-13
5.78778e-15
8.18104e-15
5.62469e-16
5.3838e-17
9.68104e-18
8.38992e-17
1.96015e-15
2.41353e-14
4.26659e-14
1.49902e-14
4.09233e-15
1.19848e-14
4.07549e-14
1.14105e-13
1.6966e-14
7.35206e-15
3.45782e-15
2.64031e-15
5.16553e-15
9.70594e-15
1.65599e-14
2.3902e-14
3.53063e-14
8.15247e-16
1.90785e-16
2.67116e-18
2.65718e-19
7.525e-18
1.37886e-16
1.09625e-15
1.42101e-14
1.41347e-14
6.86708e-15
2.76178e-15
8.39493e-16
1.65912e-16
2.77243e-17
6.30626e-18
1.60561e-17
5.05618e-17
7.94164e-17
3.01977e-16
4.95567e-16
6.87813e-16
1.67898e-15
7.71909e-15
7.19979e-17
8.33935e-18
3.42922e-19
1.16559e-20
3.83326e-20
4.80671e-18
5.95461e-17
3.92217e-15
3.51398e-15
1.80597e-15
6.75496e-16
2.08562e-16
4.79735e-17
8.99113e-18
2.53924e-18
4.95494e-18
1.99661e-17
6.94669e-17
1.92998e-16
4.57541e-16
1.20754e-15
4.38933e-15
1.85499e-14
3.67697e-18
1.4866e-19
2.24839e-21
2.2561e-23
2.94632e-22
1.73071e-20
1.7619e-19
9.38855e-18
4.43693e-16
2.97379e-16
1.11967e-16
2.68792e-17
5.47938e-18
9.7018e-19
1.5354e-18
8.63629e-18
3.82072e-17
1.39822e-16
4.32001e-16
1.17707e-15
3.38219e-15
1.15035e-14
4.69007e-14
9.9349e-20
2.05987e-21
3.24016e-23
4.51872e-25
4.30434e-27
4.56021e-26
5.26908e-23
1.28158e-20
2.05892e-18
2.23094e-17
4.49638e-18
4.50509e-19
6.18557e-20
2.55145e-19
2.10248e-18
1.22881e-17
5.34427e-17
2.05857e-16
6.899e-16
2.15137e-15
7.13096e-15
2.63387e-14
1.06692e-13
1.26466e-21
7.9881e-24
6.64997e-26
5.4647e-28
2.51997e-29
1.4496e-27
2.28253e-26
1.63088e-25
8.82129e-25
1.47184e-21
9.97905e-23
1.79525e-21
2.64929e-20
2.87312e-19
2.21962e-18
1.35839e-17
6.02145e-17
2.1634e-16
6.98116e-16
2.12479e-15
6.5574e-15
2.13945e-14
7.53776e-14
5.53818e-24
1.63119e-26
6.66546e-29
6.65217e-31
2.65653e-29
9.07049e-28
1.34039e-26
1.20932e-25
9.64383e-25
8.56104e-24
1.21501e-22
1.82109e-21
2.13651e-20
1.90987e-19
1.26411e-18
6.42272e-18
2.51171e-17
8.68982e-17
2.84085e-16
8.87449e-16
2.72911e-15
8.55269e-15
2.86255e-14
3.00565e-27
2.20593e-30
7.49862e-33
5.287e-31
2.05375e-29
4.33162e-28
6.0417e-27
6.5784e-26
6.62225e-25
6.8097e-24
8.57653e-23
8.86151e-22
6.85672e-21
4.2566e-20
2.05815e-19
8.41431e-19
3.30262e-18
1.20383e-17
4.33233e-17
1.47463e-16
4.63579e-16
1.45999e-15
5.20093e-15
7.75223e-38
3.91412e-35
5.26392e-33
2.74907e-31
7.72652e-30
1.39812e-28
1.91813e-27
2.25952e-26
2.47612e-25
2.52209e-24
2.47164e-23
1.80826e-22
1.04226e-21
5.24342e-21
2.14605e-20
7.78703e-20
3.01545e-19
1.17666e-18
4.23298e-18
1.44039e-17
4.47987e-17
1.40572e-16
5.39606e-16
7.33736e-38
1.61177e-35
1.17839e-33
4.66567e-32
1.24914e-30
2.36361e-29
3.50789e-28
4.33995e-27
4.70836e-26
4.17397e-25
3.19399e-24
1.92102e-23
9.77854e-23
4.2399e-22
1.53831e-21
5.76958e-21
2.32222e-20
8.32664e-20
2.78219e-19
8.55503e-19
2.42875e-18
7.88442e-18
4.31875e-17
1.26753e-38
1.30977e-36
8.43932e-35
3.63569e-33
1.12116e-31
2.48931e-30
4.05234e-29
5.01943e-28
4.79354e-27
3.55587e-26
2.2788e-25
1.33746e-24
7.51205e-24
3.77851e-23
1.99663e-22
1.0008e-21
3.96233e-21
1.35345e-20
4.08578e-20
1.05642e-19
2.4636e-19
7.55974e-19
5.47478e-18
6.72273e-40
1.00341e-37
8.65625e-36
4.01709e-34
1.14509e-32
2.29955e-31
3.34826e-30
3.79584e-29
3.48773e-28
2.7395e-27
1.97745e-26
1.36622e-25
9.02334e-25
5.59736e-24
2.99186e-23
1.32639e-22
5.21114e-22
1.81989e-21
5.40496e-21
1.37295e-20
3.15001e-20
9.23896e-20
7.21471e-19
4.96935e-41
8.38e-39
5.47101e-37
1.99595e-35
5.09973e-34
9.86367e-33
1.55087e-31
2.04011e-30
2.27864e-29
2.21597e-28
1.90939e-27
1.50644e-26
1.10345e-25
6.97837e-25
3.76086e-24
1.76719e-23
7.47968e-23
2.71363e-22
8.25772e-22
2.17116e-21
5.19663e-21
1.5758e-20
1.26414e-19
3.59403e-42
3.54454e-40
2.00022e-38
7.83578e-37
2.22482e-35
4.84956e-34
8.48003e-33
1.21079e-31
1.47105e-30
1.60988e-29
1.53316e-28
1.28515e-27
9.42429e-27
6.19251e-26
3.51811e-25
1.75306e-24
7.45806e-24
2.72841e-23
8.84826e-23
2.55728e-22
6.81438e-22
2.00861e-21
1.27467e-20
6.24488e-44
9.91718e-42
7.41602e-40
3.26276e-38
9.7422e-37
2.17621e-35
3.87784e-34
5.76351e-33
7.44416e-32
8.66624e-31
9.24458e-30
8.46109e-29
6.63969e-28
4.61137e-27
2.85746e-26
1.56051e-25
7.24153e-25
2.91488e-24
1.04601e-23
3.35662e-23
9.86915e-23
2.94989e-22
1.44558e-21
5.23024e-45
6.23224e-43
3.82192e-41
1.51408e-39
4.45389e-38
1.04526e-36
2.03724e-35
3.38842e-34
4.86988e-33
6.06756e-32
6.51659e-31
6.03623e-30
4.9191e-29
3.43982e-28
2.10729e-27
1.13317e-26
5.55141e-26
2.50825e-25
1.00654e-24
3.63142e-24
1.2028e-23
3.80329e-23
1.49529e-22
3.11956e-47
5.03577e-45
4.0571e-43
2.03564e-41
7.3447e-40
2.04739e-38
4.65985e-37
8.88211e-36
1.427e-34
1.88364e-33
2.1261e-32
2.19739e-31
2.05373e-30
1.71311e-29
1.24713e-28
8.02684e-28
4.57478e-27
2.244e-26
9.7382e-26
3.8526e-25
1.40632e-24
4.99167e-24
2.12709e-23
1.32025e-48
2.04724e-46
1.54463e-44
7.5567e-43
2.69524e-41
7.52744e-40
1.70515e-38
3.26115e-37
5.38622e-36
7.92207e-35
1.0357e-33
1.16957e-32
1.13927e-31
9.87206e-31
7.49033e-30
4.97011e-29
2.93564e-28
1.58255e-27
7.85794e-27
3.52915e-26
1.4846e-25
6.67326e-25
3.87284e-24
9.71575e-51
1.6472e-48
1.38373e-46
7.53504e-45
3.07107e-43
1.01095e-41
2.77455e-40
6.39551e-39
1.24635e-37
2.08128e-36
3.00779e-35
3.74366e-34
4.05148e-33
3.82155e-32
3.263e-31
2.56523e-30
1.80954e-29
1.12559e-28
6.09368e-28
3.04073e-27
1.57885e-26
1.01619e-25
8.48363e-25
1.36754e-52
2.72494e-50
2.59176e-48
1.59062e-46
7.04792e-45
2.40568e-43
6.71474e-42
1.57618e-40
3.15608e-39
5.45201e-38
8.3596e-37
1.17249e-35
1.49865e-34
1.69807e-33
1.66194e-32
1.37248e-31
9.9099e-31
6.45163e-30
3.99699e-29
2.57191e-28
1.97521e-27
1.94194e-26
2.18919e-25
7.00189e-55
1.48685e-52
1.53948e-50
1.06092e-48
5.54756e-47
2.33686e-45
8.14235e-44
2.3933e-42
6.03475e-41
1.31032e-39
2.4018e-38
3.68165e-37
4.7803e-36
5.4207e-35
5.5033e-34
5.16345e-33
4.4623e-32
3.58424e-31
2.85769e-30
2.62652e-29
3.11429e-28
4.32698e-27
6.0071e-26
6.97831e-57
1.6786e-54
1.94529e-52
1.47679e-50
8.24273e-49
3.62267e-47
1.30001e-45
3.89435e-44
9.88785e-43
2.15958e-41
4.15441e-40
7.2185e-39
1.13629e-37
1.59648e-36
1.98347e-35
2.15031e-34
2.08255e-33
2.00492e-32
2.29515e-31
3.47722e-30
6.13505e-29
1.0685e-27
1.71961e-26
1.81575e-59
4.9397e-57
6.79088e-55
6.29893e-53
4.40742e-51
2.46056e-49
1.12626e-47
4.29677e-46
1.38318e-44
3.78769e-43
8.83301e-42
1.74802e-40
2.96317e-39
4.37086e-38
5.72194e-37
6.96616e-36
8.73299e-35
1.32537e-33
2.62943e-32
5.92027e-31
1.30781e-29
2.66898e-28
4.90517e-27
7.71689e-62
2.53652e-59
4.00538e-57
4.19801e-55
3.25492e-53
1.98822e-51
9.91864e-50
4.13076e-48
1.45533e-46
4.38065e-45
1.13836e-43
2.57811e-42
5.14016e-41
9.13039e-40
1.4918e-38
2.46734e-37
4.91032e-36
1.26719e-34
3.69642e-33
1.05657e-31
2.76618e-30
6.47058e-29
1.34637e-27
9.41893e-65
4.17266e-62
8.34185e-60
1.09725e-57
1.06788e-55
8.20626e-54
5.15999e-52
2.69589e-50
1.18223e-48
4.38194e-47
1.37925e-45
3.71171e-44
8.65504e-43
1.82807e-41
3.93491e-40
1.04839e-38
3.67568e-37
1.43687e-35
5.38293e-34
1.81905e-32
5.4619e-31
1.45397e-29
3.42753e-28
1.02743e-67
6.73532e-65
1.71159e-62
2.72301e-60
3.11506e-58
2.762e-56
1.99517e-54
1.21543e-52
6.36594e-51
2.8751e-49
1.11217e-47
3.70222e-46
1.10489e-44
3.34358e-43
1.25968e-41
6.16184e-40
3.25464e-38
1.6109e-36
7.121e-35
2.78147e-33
9.57847e-32
2.90714e-30
7.78319e-29
4.70978e-71
6.71114e-68
2.467e-65
4.83117e-63
6.53141e-61
6.73735e-59
5.64578e-57
4.02903e-55
2.49194e-53
1.34378e-51
6.38184e-50
2.7548e-48
1.21385e-46
6.76512e-45
4.9056e-43
3.73068e-41
2.56735e-39
1.5359e-37
7.97095e-36
3.60581e-34
1.42783e-32
4.96472e-31
1.51798e-29
1.45134e-74
1.61627e-70
7.90293e-68
1.77552e-65
2.67543e-63
3.04365e-61
2.76798e-59
2.09097e-57
1.35236e-55
7.70835e-54
4.0732e-52
2.26468e-50
1.64979e-48
1.6395e-46
1.78026e-44
1.7822e-42
1.54191e-40
1.12893e-38
6.99164e-37
3.7066e-35
1.70408e-33
6.84272e-32
2.40564e-30
1.36262e-76
4.06072e-72
1.65273e-69
3.29611e-67
4.42231e-65
4.48379e-63
3.65301e-61
2.49682e-59
1.50019e-57
8.56658e-56
5.41339e-54
4.52416e-52
4.93027e-50
5.88673e-48
6.83485e-46
7.30959e-44
7.03142e-42
5.99693e-40
4.4675e-38
2.86211e-36
1.56731e-34
7.38658e-33
3.02438e-31
3.73828e-76
6.04772e-73
1.73095e-70
2.64739e-68
2.7826e-66
2.25079e-64
1.51003e-62
9.09275e-61
5.51453e-59
3.85813e-57
3.28299e-55
3.18254e-53
3.24306e-51
3.32093e-49
3.34055e-47
3.24668e-45
2.99992e-43
2.6008e-41
2.09225e-39
1.53841e-37
1.01063e-35
5.76441e-34
2.82291e-32
1.54272e-76
1.25414e-73
2.74091e-71
3.44617e-69
3.14136e-67
2.40543e-65
1.77226e-63
1.38579e-61
1.16332e-59
9.98813e-58
8.39053e-56
6.78312e-54
5.29518e-52
4.0461e-50
3.07357e-48
2.356e-46
1.83661e-44
1.44609e-42
1.12587e-40
8.47788e-39
6.07523e-37
4.05014e-35
2.43173e-33
1.41899e-77
8.28244e-75
1.6343e-72
2.07792e-70
2.19085e-68
2.21571e-66
2.2375e-64
2.19457e-62
2.03028e-60
1.75385e-58
1.41647e-56
1.07704e-54
7.78533e-53
5.4051e-51
3.64099e-49
2.40543e-47
1.58041e-45
1.0508e-43
7.19217e-42
5.09368e-40
3.67855e-38
2.65606e-36
1.87712e-34
1.94762e-79
1.34813e-76
4.25558e-74
9.83071e-72
1.82955e-69
2.81703e-67
3.65969e-65
4.10084e-63
4.04674e-61
3.58138e-59
2.89397e-57
2.16923e-55
1.53051e-53
1.03058e-51
6.69917e-50
4.24253e-48
2.64335e-46
1.63706e-44
1.0186e-42
6.44863e-41
4.21959e-39
2.8913e-37
2.06484e-35
6.14442e-82
4.37073e-79
1.57148e-76
4.05469e-74
8.15685e-72
1.32776e-69
1.80175e-67
2.09268e-65
2.12905e-63
1.9362e-61
1.6016e-59
1.22374e-57
8.75771e-56
5.95136e-54
3.89985e-52
2.50662e-50
1.60446e-48
1.0386e-46
6.92475e-45
4.87744e-43
3.76926e-41
3.36654e-39
3.5849e-37
0.959592
0.950443
0.929248
0.90047
0.453448
0.411604
0.354036
0.279321
0.0137456
0.0133022
0.0116699
0.00892884
6.60845e-05
5.7385e-05
5.04194e-05
4.41205e-05
9.63158e-06
8.99187e-06
7.8619e-06
6.22191e-06
3.99201e-07
3.34425e-07
2.31958e-07
1.27214e-07
1.9907e-10
3.10347e-11
4.35634e-12
2.85855e-12
7.45823e-13
4.52615e-13
9.54831e-13
1.36379e-12
4.54845e-14
7.13585e-14
1.70048e-13
1.05365e-12
2.49699e-14
8.48045e-14
4.33807e-13
5.52955e-12
6.85256e-14
2.56377e-13
1.75674e-12
1.10151e-11
2.18435e-13
8.27887e-13
3.43352e-12
1.28328e-11
4.86075e-13
1.53989e-12
5.18371e-12
1.65272e-11
3.05461e-13
8.68197e-13
2.51588e-12
6.87739e-12
1.09706e-13
2.95164e-13
8.26262e-13
2.2697e-12
2.26506e-14
6.80674e-14
2.12481e-13
6.48786e-13
2.7823e-15
9.94699e-15
3.71852e-14
1.35304e-13
3.62784e-16
1.8089e-15
8.74455e-15
3.89513e-14
6.24864e-17
3.78799e-16
2.12164e-15
1.07035e-14
1.00117e-17
7.20514e-17
4.69263e-16
2.72599e-15
1.84056e-18
1.40506e-17
9.8045e-17
6.17379e-16
1.88219e-19
1.64694e-18
1.34713e-17
1.00769e-16
1.85567e-20
1.72298e-19
1.57096e-18
1.32908e-17
1.37471e-21
1.25366e-20
1.27105e-19
1.24107e-18
1.50049e-22
9.86322e-22
8.79013e-21
8.82781e-20
2.95607e-23
1.46817e-22
8.53325e-22
6.2224e-21
7.98765e-24
4.09465e-23
2.06753e-22
1.04801e-21
2.45033e-24
1.38097e-23
7.40829e-23
3.76156e-22
7.70813e-25
4.82941e-24
2.85167e-23
1.5815e-22
2.50191e-25
1.74047e-24
1.1351e-23
6.91825e-23
8.04304e-26
6.22968e-25
4.50851e-24
3.04257e-23
2.48952e-26
2.15304e-25
1.73764e-24
1.30667e-23
7.15416e-27
6.93041e-26
6.26163e-25
5.27187e-24
1.84e-27
2.00425e-26
2.03488e-25
1.92478e-24
4.0853e-28
5.0294e-27
5.7621e-26
6.14199e-25
7.41396e-29
1.03708e-27
1.34617e-26
1.62238e-25
1.07912e-29
1.73493e-28
2.58786e-27
3.58437e-26
1.19674e-30
2.27053e-29
3.98205e-28
6.45401e-27
1.26423e-31
2.89472e-30
6.06321e-29
1.15979e-27
1.21836e-32
3.48727e-31
9.12342e-30
2.16359e-28
1.46811e-33
4.76957e-32
1.46405e-30
4.1843e-29
3.65905e-35
1.55693e-33
6.01695e-32
2.10682e-30
0.668515
0.271839
0.0776876
0.0246834
0.00712488
0.000592514
0.000659094
0.000365592
0.00019024
0.000470171
0.00179154
0.00131613
0.00329006
0.0497639
0.0550244
0.0478836
0.0337619
0.0320921
0.295248
0.121442
0.0350086
0.00530932
0.000635816
0.000135654
6.94772e-05
5.63814e-05
5.62632e-05
6.88213e-05
6.5787e-05
6.59716e-05
6.60866e-05
7.8361e-05
0.0100345
0.0719431
0.074003
0.0495259
0.0276296
0.236961
0.004062
0.000829228
0.000195008
5.23383e-05
4.05849e-05
4.1101e-05
4.31165e-05
5.61757e-05
6.50391e-05
6.56156e-05
6.61822e-05
6.5884e-05
7.21934e-05
0.000787294
0.00594313
0.0312269
0.0247515
0.0154848
0.167462
3.60238e-05
1.99078e-05
8.03666e-06
2.38009e-06
1.92154e-06
3.36933e-06
1.22685e-05
4.9104e-05
5.99041e-05
5.24053e-05
4.5943e-05
4.70286e-05
5.38606e-05
6.57705e-05
0.00015584
0.00194415
0.0023476
0.00486383
0.0762417
3.44606e-06
7.51899e-07
8.10082e-08
3.74969e-09
2.45527e-09
1.61554e-08
1.48186e-07
1.11572e-06
4.6103e-06
1.3808e-05
2.1467e-05
3.02088e-05
4.45273e-05
4.96258e-05
5.07929e-05
0.000349807
0.000233925
0.00671062
0.0341628
2.93255e-08
9.50595e-10
2.10394e-10
8.58379e-10
1.42839e-09
4.40531e-09
1.83918e-08
5.55782e-08
1.00829e-07
1.52621e-07
4.43793e-07
2.07962e-06
1.04345e-05
3.33473e-05
6.55732e-05
6.59775e-05
8.80471e-05
0.00149577
0.0257933
5.20442e-12
2.08867e-11
3.06395e-10
2.15741e-09
5.88488e-09
1.11779e-07
9.31346e-07
3.40788e-06
6.13057e-06
6.73215e-06
3.31748e-06
3.91963e-07
3.8011e-07
3.42927e-06
3.24049e-05
7.62805e-05
0.000111859
0.000485511
0.0384577
5.97156e-12
7.32343e-11
9.09684e-10
2.23455e-09
1.6012e-08
5.0543e-07
4.37865e-06
1.35372e-05
2.19549e-05
2.66387e-05
2.88747e-05
1.53826e-05
1.46944e-06
1.48927e-06
5.18529e-06
9.72616e-05
0.000133306
0.000334389
0.0389797
1.65203e-11
4.03697e-10
1.69962e-09
2.35519e-09
1.97772e-08
6.74976e-07
5.77146e-06
1.67215e-05
2.51771e-05
2.8942e-05
3.34956e-05
4.17695e-05
2.8951e-05
3.2763e-06
3.67709e-06
4.52589e-05
0.000192646
0.000270366
0.0307803
7.00062e-11
7.42343e-10
2.41098e-09
3.28277e-09
6.84091e-09
1.96459e-07
2.75236e-06
1.1404e-05
2.23866e-05
2.93415e-05
3.35387e-05
4.64449e-05
6.75183e-05
2.88979e-05
3.97527e-06
1.35308e-05
0.000205103
0.000225793
0.0215337
1.0529e-10
7.18425e-10
2.65999e-09
4.60034e-09
4.60484e-09
1.1942e-08
3.73865e-07
4.36657e-06
1.55108e-05
2.75319e-05
3.47521e-05
4.6813e-05
7.12474e-05
8.27627e-05
4.26134e-06
6.1248e-06
0.00014338
0.000191908
0.0164715
1.00052e-10
5.35224e-10
1.49839e-09
3.55591e-09
4.74492e-09
4.75083e-09
1.40712e-08
6.17057e-07
7.43534e-06
2.32149e-05
3.56579e-05
4.52781e-05
6.81332e-05
8.1552e-05
6.9679e-06
9.25336e-06
0.000108895
0.000187939
0.0141757
5.29262e-11
2.31698e-10
6.9491e-10
1.83041e-09
4.03834e-09
5.39181e-09
5.12212e-09
3.5051e-08
1.74602e-06
1.53439e-05
3.37127e-05
4.23386e-05
5.95425e-05
9.03154e-05
7.61814e-05
7.24687e-05
0.000146231
0.000347954
0.0126062
1.72198e-11
9.9098e-11
3.15034e-10
8.36686e-10
1.81771e-09
3.69472e-09
5.06511e-09
5.30466e-09
2.39794e-07
6.69776e-06
2.86002e-05
4.15347e-05
4.87629e-05
7.78034e-05
0.000126887
0.000164214
0.000207097
0.00129173
0.0104393
5.86103e-12
2.41761e-11
8.95534e-11
2.95847e-10
7.54083e-10
1.99869e-09
3.54082e-09
4.51569e-09
2.61776e-08
1.87365e-06
1.87322e-05
4.02338e-05
4.49812e-05
6.14941e-05
0.00010266
0.000163924
0.00042089
0.00223003
0.00778066
1.85619e-12
8.53241e-12
3.36136e-11
1.19593e-10
3.88726e-10
9.77984e-10
2.60275e-09
3.55011e-09
5.33299e-09
2.91349e-07
7.86598e-06
3.43411e-05
4.93324e-05
5.48282e-05
9.56549e-05
0.000207984
0.000610018
0.00216999
0.00524573
4.58713e-13
2.62461e-12
1.24263e-11
4.88504e-11
1.64731e-10
5.98844e-10
1.38807e-09
3.45519e-09
5.61665e-09
1.1027e-08
3.07449e-07
8.58539e-06
4.39699e-05
6.99967e-05
8.57058e-05
0.00024698
0.000600027
0.00142118
0.00256871
1.5614e-13
1.03844e-12
5.49959e-12
2.34282e-11
9.93309e-11
2.8505e-10
9.48927e-10
1.98125e-09
5.28849e-09
1.12842e-08
1.27592e-08
1.27612e-07
3.55165e-06
2.4085e-05
6.45062e-05
0.000151717
0.00026775
0.000438195
0.000607817
4.78423e-14
3.65236e-13
2.32654e-12
1.2502e-11
5.53297e-11
1.99723e-10
5.93456e-10
1.44457e-09
3.37257e-09
7.43376e-09
1.10653e-08
8.13434e-09
3.06004e-08
1.1018e-06
8.40995e-06
2.18051e-05
3.19075e-05
1.84114e-05
2.31452e-05
1.40147e-14
1.25782e-13
9.36865e-13
5.76882e-12
2.9085e-11
1.19734e-10
4.00523e-10
1.09345e-09
2.65425e-09
6.37174e-09
1.3154e-08
6.56529e-09
4.99435e-09
7.74462e-09
5.5365e-08
1.5562e-07
1.68716e-07
1.50366e-08
2.15287e-08
3.48923e-15
3.54737e-14
3.07922e-13
2.22532e-12
1.3173e-11
6.42064e-11
2.66168e-10
8.38133e-10
2.22317e-09
6.00819e-09
1.31386e-08
7.37064e-09
4.99944e-09
4.99411e-09
7.14724e-09
1.10036e-08
6.75139e-09
2.48406e-09
5.36423e-10
6.82792e-16
8.48629e-15
8.88244e-14
7.74711e-13
5.61101e-12
3.38546e-11
1.66918e-10
6.4621e-10
1.92524e-09
5.47625e-09
1.19589e-08
1.16181e-08
5.47243e-09
4.99955e-09
8.10861e-09
1.47285e-08
1.32285e-08
5.58108e-09
5.36499e-10
1.03008e-16
1.50642e-15
1.8816e-14
1.98058e-13
1.76157e-12
1.30831e-11
7.91645e-11
3.94549e-10
1.43511e-09
4.92815e-09
1.1183e-08
1.83779e-08
9.50468e-09
4.99538e-09
9.07454e-09
1.29981e-08
1.10795e-08
6.50133e-09
6.11396e-10
1.12657e-17
1.96886e-16
2.96894e-15
3.85563e-14
4.3091e-13
4.06628e-12
3.15277e-11
2.0954e-10
1.03824e-09
3.81418e-09
1.00029e-08
1.86383e-08
1.87271e-08
8.34016e-09
1.17378e-08
1.19125e-08
9.04722e-09
5.84374e-09
7.03993e-10
8.9021e-19
1.80616e-17
3.23992e-16
5.10996e-15
7.04116e-14
8.37962e-13
8.43742e-12
6.98065e-11
4.61814e-10
2.17146e-09
7.25379e-09
1.54992e-08
1.88903e-08
1.52398e-08
1.21466e-08
9.77274e-09
6.43701e-09
5.17251e-09
7.10983e-10
5.6278e-20
1.19378e-18
2.43376e-17
4.52349e-16
7.48206e-15
1.08678e-13
1.36249e-12
1.43291e-11
1.20242e-10
7.50817e-10
3.32656e-09
9.93169e-09
1.65853e-08
1.28629e-08
9.06286e-09
5.58272e-09
4.4543e-09
4.53413e-09
7.01393e-10
5.74181e-21
7.81616e-20
1.34777e-18
2.59001e-17
4.84886e-16
8.243e-15
1.22892e-13
1.56407e-12
1.64266e-11
1.35988e-10
8.26018e-10
3.78334e-09
9.96979e-09
7.59731e-09
4.58551e-09
1.80248e-09
3.03797e-09
3.67827e-09
6.78597e-10
1.81364e-21
1.6681e-20
1.52114e-19
1.64599e-18
2.38658e-17
4.08438e-16
6.89904e-15
1.0461e-13
1.35504e-12
1.45383e-11
1.2666e-10
7.95283e-10
3.04426e-09
2.51197e-09
1.16773e-09
2.02128e-10
1.90646e-09
2.84446e-09
5.55474e-10
8.20586e-22
7.8362e-21
6.56586e-20
4.89167e-19
3.43544e-18
2.69826e-17
2.95499e-16
4.24045e-15
6.35371e-14
8.85146e-13
1.00017e-11
8.62076e-11
4.89778e-10
3.71889e-10
5.23906e-11
8.7924e-12
1.42678e-09
2.33201e-09
5.24532e-10
3.93135e-22
4.1469e-21
3.80487e-20
3.0281e-19
2.08658e-18
1.24725e-17
6.64883e-17
3.58773e-16
2.6832e-15
3.2586e-14
3.91335e-13
3.74458e-12
1.63715e-11
3.85004e-12
1.98343e-12
2.75612e-12
1.14971e-09
1.73542e-09
3.54256e-10
1.91116e-22
2.24636e-21
2.29613e-20
2.03389e-19
1.55631e-18
1.02392e-17
5.76775e-17
2.77674e-16
1.15355e-15
4.38761e-15
1.81289e-14
9.08333e-14
4.9839e-13
3.29356e-13
5.1968e-13
2.01344e-12
8.45494e-10
9.79302e-10
1.18465e-10
9.14545e-23
1.21045e-21
1.39535e-20
1.39696e-19
1.21137e-18
9.063e-18
5.83048e-17
3.21904e-16
1.52527e-15
6.20907e-15
2.2209e-14
7.19464e-14
2.01698e-13
6.30247e-13
2.56863e-12
5.4183e-11
4.73625e-10
4.24255e-10
2.63124e-11
4.1344e-23
6.1947e-22
8.10546e-21
9.24395e-20
9.18816e-19
7.95897e-18
5.99817e-17
3.93202e-16
2.23843e-15
1.10702e-14
4.81737e-14
1.88392e-13
6.5811e-13
2.52138e-12
1.2521e-11
1.23813e-10
2.71014e-10
1.38901e-10
1.13921e-11
1.69654e-23
2.87966e-22
4.27392e-21
5.56507e-20
6.37301e-19
6.42738e-18
5.72523e-17
4.51658e-16
3.15062e-15
1.92579e-14
1.0178e-13
4.60487e-13
1.80569e-12
6.15966e-12
2.63454e-11
9.28676e-11
1.06407e-10
2.54981e-11
9.02285e-12
6.09076e-24
1.17113e-22
1.97623e-21
2.92956e-20
3.82719e-19
4.4404e-18
4.63203e-17
4.39615e-16
3.79498e-15
2.89381e-14
1.82431e-13
8.6365e-13
2.80143e-12
6.46578e-12
1.2846e-11
2.31276e-11
1.05833e-11
6.02457e-12
8.52101e-12
1.82021e-24
3.98547e-23
7.59638e-22
1.25777e-20
1.81239e-19
2.28883e-18
2.5656e-17
2.58939e-16
2.3632e-15
1.90125e-14
1.25926e-13
6.17724e-13
2.01443e-12
4.22705e-12
5.97569e-12
3.30257e-12
2.04208e-12
4.15101e-12
7.99025e-12
4.61371e-25
1.1547e-23
2.47886e-22
4.54806e-21
7.12528e-20
9.54564e-19
1.09929e-17
1.09861e-16
9.63159e-16
7.41099e-15
4.86363e-14
2.54801e-13
9.75608e-13
2.50412e-12
3.897e-12
3.40744e-12
1.82827e-12
2.69595e-12
7.18841e-12
9.64771e-26
2.78065e-24
6.76205e-23
1.38253e-21
2.37061e-20
3.39859e-19
4.06362e-18
4.05402e-17
3.39306e-16
2.41136e-15
1.46864e-14
7.56192e-14
3.16367e-13
1.05295e-12
2.15764e-12
2.23067e-12
1.28406e-12
1.83057e-12
6.12199e-12
2.0211e-26
6.72173e-25
1.85841e-23
4.26205e-22
8.0722e-21
1.25499e-19
1.58848e-18
1.62286e-17
1.33086e-16
8.7867e-16
4.73656e-15
2.13384e-14
8.33136e-14
3.21285e-13
7.8142e-13
1.07228e-12
7.49671e-13
1.17235e-12
4.83768e-12
4.61649e-27
1.85168e-25
6.06302e-24
1.62178e-22
3.53539e-21
6.24108e-20
8.82873e-19
9.86579e-18
8.57564e-17
5.72841e-16
2.92971e-15
1.15879e-14
3.69818e-14
1.02141e-13
2.41193e-13
5.24502e-13
4.60553e-13
8.92318e-13
3.41854e-12
1.0995e-27
5.58736e-26
2.3094e-24
7.68117e-23
2.04236e-21
4.31436e-20
7.16646e-19
9.22597e-18
9.06945e-17
6.70476e-16
3.66819e-15
1.4835e-14
4.40453e-14
9.94648e-14
1.62715e-13
2.25764e-13
3.16874e-13
7.57052e-13
2.17835e-12
6.66629e-29
4.1818e-27
2.13696e-25
8.79494e-24
2.90029e-22
7.6372e-21
1.59474e-19
2.60668e-18
3.26212e-17
3.02305e-16
1.98077e-15
8.87951e-15
2.72065e-14
4.83993e-14
7.68898e-14
7.09989e-15
2.52098e-13
4.60184e-13
1.19917e-12
)
;

boundaryField
{
    leftWall
    {
        type            zeroGradient;
    }
    rightWall
    {
        type            zeroGradient;
    }
    lowerWall
    {
        type            zeroGradient;
    }
    atmosphere
    {
        type            inletOutlet;
        inletValue      uniform 0;
        value           nonuniform List<scalar> 
46
(
0
0
0
0
0
0
0
0
0
0
0
0
0
0
0
0
0
0
0
0
0
0
3.5849e-37
3.65905e-35
1.55693e-33
6.01695e-32
2.10682e-30
6.66629e-29
4.1818e-27
2.13696e-25
8.79494e-24
2.90029e-22
7.6372e-21
1.59474e-19
2.60668e-18
3.26212e-17
3.02305e-16
1.98077e-15
8.87951e-15
2.72065e-14
4.83993e-14
7.68898e-14
0
2.52098e-13
0
0
)
;
    }
    defaultFaces
    {
        type            empty;
    }
}


// ************************************************************************* //
