/*--------------------------------*- C++ -*----------------------------------*\
| =========                 |                                                 |
| \\      /  F ield         | OpenFOAM: The Open Source CFD Toolbox           |
|  \\    /   O peration     | Version:  2.4.0                                 |
|   \\  /    A nd           | Web:      www.OpenFOAM.org                      |
|    \\/     M anipulation  |                                                 |
\*---------------------------------------------------------------------------*/
FoamFile
{
    version     2.0;
    format      ascii;
    class       volScalarField;
    location    "0.6";
    object      alpha.oil;
}
// * * * * * * * * * * * * * * * * * * * * * * * * * * * * * * * * * * * * * //

dimensions      [0 0 0 0 0 0 0];

internalField   nonuniform List<scalar> 
2268
(
1.79405e-18
1.04416e-17
1.53752e-17
8.46909e-17
9.11068e-17
8.42622e-17
2.33719e-16
3.92651e-16
8.40359e-16
1.37028e-15
5.29019e-14
6.18925e-13
3.72219e-12
1.3659e-11
3.69481e-11
1.04419e-10
2.77869e-10
7.82002e-10
1.87971e-09
3.80278e-09
1.10335e-08
8.96619e-07
1.01365e-05
2.82397e-17
1.56854e-16
3.27096e-16
1.00611e-15
1.21557e-15
1.49258e-15
5.06833e-15
6.2848e-15
1.10079e-14
1.28249e-14
1.08882e-13
1.10377e-12
7.05066e-12
2.25933e-11
5.25622e-11
1.26447e-10
4.65137e-10
1.89102e-09
4.95833e-09
8.495e-09
1.42789e-08
9.67142e-07
1.365e-05
2.14145e-16
1.16438e-15
3.29256e-15
6.23657e-15
8.49579e-15
1.35216e-14
7.28626e-14
6.14733e-14
8.90347e-14
9.07801e-14
1.58519e-13
7.70814e-13
4.3218e-12
1.56719e-11
4.29463e-11
1.22944e-10
6.02856e-10
2.71228e-09
9.64459e-09
2.05147e-08
2.91089e-08
4.7541e-07
1.16176e-05
1.04288e-15
5.78529e-15
2.0081e-14
2.74449e-14
4.20693e-14
7.7646e-14
7.77305e-13
4.85528e-13
7.65688e-13
7.33346e-13
5.92601e-13
8.59487e-13
3.16373e-12
1.1052e-11
3.37308e-11
1.11065e-10
5.90728e-10
2.94833e-09
1.32337e-08
4.71236e-08
7.04201e-08
4.85612e-07
1.14239e-05
3.7002e-15
2.20338e-14
8.19763e-14
1.00562e-13
1.65272e-13
2.96688e-13
5.53193e-12
2.85718e-12
8.07516e-12
7.47589e-12
3.08688e-12
2.23285e-12
3.10371e-12
2.19564e-11
1.08705e-10
3.61676e-10
1.06986e-09
3.87326e-09
1.98101e-08
9.21411e-08
1.63044e-07
6.00188e-07
1.17759e-05
1.07746e-14
7.01374e-14
2.51361e-13
3.38962e-13
5.42588e-13
7.57222e-13
2.248e-11
1.31703e-11
8.53057e-11
7.33951e-11
1.10602e-11
5.23778e-12
8.44311e-12
1.84551e-11
1.00836e-09
2.36454e-08
3.2394e-08
4.76365e-08
1.39714e-07
3.39755e-07
4.4457e-07
1.14657e-06
1.35067e-05
2.911e-14
1.99652e-13
7.06389e-13
9.83886e-13
1.25504e-12
1.29369e-12
1.35985e-09
2.52098e-09
1.57056e-08
1.42769e-08
2.01152e-09
1.00215e-11
1.91179e-11
2.30198e-10
2.17346e-08
3.71963e-07
1.10613e-06
9.3519e-07
1.10733e-06
1.83112e-06
1.63987e-06
2.16019e-06
1.62922e-05
6.85074e-14
5.16277e-13
2.18603e-12
1.367e-12
1.65627e-12
1.68262e-12
1.37288e-07
1.04771e-07
4.40533e-07
3.75486e-07
1.65548e-07
1.05309e-10
1.923e-11
3.77952e-08
3.72687e-07
1.27119e-06
8.20855e-06
1.10344e-05
6.90026e-06
3.45425e-06
2.71257e-06
2.15115e-06
1.83283e-05
0.798899
0.65355
0.56238
0.557993
0.553641
0.549228
0.544787
0.535594
0.497134
0.432471
0.400978
0.399662
0.39829
0.396829
0.395133
0.393072
0.39164
0.390316
0.388983
0.940028
0.875492
0.643316
0.570784
0.611531
0.689769
0.763727
0.785619
0.786139
0.779544
0.7415
0.703091
0.686839
0.649357
0.569765
0.475667
0.437377
0.400913
0.387334
0.954688
0.830369
0.59222
0.552865
0.582729
0.641734
0.697283
0.731584
0.752197
0.7748
0.817792
0.856188
0.842133
0.828646
0.848295
0.840649
0.775635
0.633856
0.385772
0.912291
0.667293
0.440188
0.44226
0.493424
0.568193
0.628002
0.671498
0.704833
0.753049
0.844803
0.884857
0.858692
0.860126
0.915177
0.967069
0.954956
0.818897
0.384176
0.781426
0.492847
0.286342
0.312834
0.419188
0.556056
0.633872
0.683495
0.724242
0.814626
0.887361
0.891092
0.874025
0.888679
0.953313
0.982649
0.973059
0.890187
0.517682
0.571225
0.324886
0.144816
0.142045
0.228969
0.462374
0.661913
0.798288
0.881474
0.895637
0.896872
0.898135
0.899009
0.914437
0.971163
0.984572
0.973483
0.92103
0.623845
0.318676
0.143096
0.0651288
0.0626837
0.0686853
0.169774
0.312019
0.561335
0.857789
0.895432
0.895763
0.897235
0.898418
0.866422
0.967847
0.984663
0.97357
0.936153
0.659254
0.0684833
0.0445123
0.0467227
0.068715
0.0787186
0.104719
0.190439
0.38657
0.640632
0.868301
0.895442
0.895769
0.897208
0.256575
0.65143
0.979313
0.970852
0.945954
0.66389
1.46893e-13
1.34443e-12
1.09373e-11
4.43248e-10
2.16276e-08
1.34569e-06
3.41222e-06
1.77165e-05
1.83801e-05
1.33907e-05
4.65842e-06
2.52764e-06
1.31236e-06
3.23485e-07
3.4064e-07
8.75024e-07
1.31566e-05
0.000108146
0.000162002
0.000167146
0.000386897
0.000216821
6.09185e-05
6.08949e-13
8.58354e-12
1.54335e-09
1.01059e-07
5.88697e-07
9.80964e-05
0.00140296
0.00442274
0.00419603
0.00328248
0.00163986
0.000680786
0.000149507
1.26679e-05
2.39421e-06
1.14395e-06
4.51526e-06
4.20612e-05
0.000259129
0.0012499
0.00141022
0.00151339
0.00131669
4.20435e-12
2.08833e-10
1.11643e-08
2.72993e-06
0.000490154
0.0163497
0.070433
0.119925
0.112586
0.0965781
0.0622053
0.0330133
0.00874292
0.00176633
0.000329628
6.07241e-05
2.87282e-05
2.99117e-05
6.54922e-05
0.000158416
0.000952411
0.00300342
0.00975342
1.4828e-11
2.16234e-10
2.30134e-06
0.000730391
0.0320582
0.23528
0.48533
0.60278
0.60669
0.606549
0.541204
0.434052
0.244811
0.100133
0.0286307
0.00685833
0.00168861
0.000474939
0.000414819
0.00258183
0.0112306
0.0341349
0.0816994
9.45231e-12
1.0081e-08
0.000122743
0.00967864
0.192586
0.648711
0.870395
0.893886
0.893424
0.893886
0.893425
0.893885
0.882666
0.740889
0.561388
0.335825
0.15075
0.139144
0.106939
0.174314
0.267077
0.365673
0.456
1.68965e-11
1.7844e-10
1.67716e-05
0.00188664
0.0134581
0.0628274
0.141543
0.209249
0.353055
0.523517
0.689643
0.806685
0.903172
0.94778
0.948207
0.936743
0.847872
0.802285
0.683082
0.680727
0.678336
0.664024
0.570411
1.16835e-10
8.21372e-09
2.11737e-06
4.40862e-05
6.54594e-05
1.12245e-05
1.98413e-06
2.43206e-06
3.60994e-06
0.000132908
0.00316085
0.0262775
0.111696
0.252266
0.361056
0.435399
0.467133
0.477102
0.464246
0.305777
0.211313
0.0851252
0.0149649
2.73033e-08
9.16425e-08
2.1213e-07
1.13849e-07
5.25541e-08
3.00617e-08
7.2983e-08
1.80846e-07
8.09806e-08
3.51571e-08
3.51743e-08
3.10739e-08
4.60923e-08
3.57501e-07
4.71442e-06
3.15101e-05
0.000178284
0.000409391
0.000386921
1.52048e-05
9.71023e-07
3.91891e-07
1.39995e-07
7.86014e-09
1.17211e-08
1.21233e-08
3.1236e-08
1.49851e-08
8.19515e-09
3.0066e-08
1.63579e-07
7.58529e-08
3.99352e-08
3.112e-08
3.10291e-08
3.111e-08
4.10673e-08
9.51838e-08
1.15087e-07
1.18026e-07
1.14014e-07
9.1504e-08
6.98354e-08
7.03328e-08
6.13085e-08
6.26076e-08
6.07495e-10
2.01004e-09
1.35229e-08
6.37545e-09
3.46669e-09
8.18947e-09
2.07097e-08
6.94753e-08
4.88688e-08
3.85429e-08
3.80955e-08
5.25373e-08
4.5112e-08
9.32965e-08
2.45852e-07
3.59147e-07
3.33387e-07
3.08209e-07
1.96687e-07
7.25967e-08
6.28917e-08
6.3525e-08
4.33664e-08
8.89085e-11
5.59556e-10
1.28353e-09
5.33672e-10
2.16308e-10
2.73706e-09
9.15526e-09
2.68355e-08
2.70444e-08
4.80739e-08
9.40833e-08
9.29132e-08
8.11355e-08
2.90544e-07
4.52428e-07
5.7878e-07
5.7908e-07
4.84115e-07
2.64632e-07
1.08985e-07
7.52419e-08
6.99341e-08
6.97799e-08
1.45074e-11
5.95025e-11
8.70285e-11
4.60205e-11
3.99505e-11
4.54623e-10
2.81885e-09
1.33616e-08
3.70667e-08
1.02093e-07
1.29893e-07
4.76994e-08
5.79438e-08
3.08736e-07
4.45577e-07
1.86572e-07
4.88508e-08
4.11605e-08
5.12645e-08
8.9446e-08
9.55865e-08
8.96978e-08
5.63179e-08
1.8782e-12
4.42324e-12
9.39191e-12
1.23764e-11
1.55343e-11
2.38729e-11
6.29782e-11
2.45321e-10
1.40211e-09
4.0123e-08
1.68542e-08
8.18543e-09
5.83538e-08
7.41823e-08
4.63044e-08
4.41526e-08
3.60317e-08
2.77065e-08
2.24761e-08
2.92634e-08
5.4557e-08
3.88446e-08
1.27976e-08
1.11848e-13
2.26359e-13
1.719e-12
4.58244e-12
9.27775e-12
1.56019e-11
3.14106e-11
6.23248e-11
1.13744e-10
1.73304e-10
3.69735e-10
6.85864e-09
2.87184e-08
3.02878e-08
3.43762e-08
7.07142e-08
5.55395e-08
3.98546e-08
2.15696e-08
1.7686e-08
1.44031e-08
7.11771e-09
4.43401e-09
5.1575e-15
4.24209e-14
4.28654e-13
2.22745e-12
5.58726e-12
9.93175e-12
2.30885e-11
6.25253e-11
1.43869e-10
1.94145e-10
6.51169e-10
9.62022e-09
1.13089e-08
3.32441e-08
9.87892e-08
1.27068e-07
8.87319e-08
5.32168e-08
2.56707e-08
7.72352e-09
4.57999e-09
2.0678e-09
2.14888e-09
3.93382e-16
8.91467e-15
1.43802e-13
1.00765e-12
2.75162e-12
5.28911e-12
1.40017e-11
4.32228e-11
1.11832e-10
2.25855e-10
5.69381e-10
1.70404e-09
1.09383e-08
5.15015e-08
1.26838e-07
1.27122e-07
9.72301e-08
5.70304e-08
2.80578e-08
1.03231e-08
2.99594e-09
1.65405e-09
1.20905e-09
1.15189e-16
4.14759e-15
6.22023e-14
3.76348e-13
1.05103e-12
2.38656e-12
7.63718e-12
2.61807e-11
7.16885e-11
1.76122e-10
2.44328e-10
7.98153e-10
9.39629e-09
5.16138e-08
9.09464e-08
1.18086e-07
7.63263e-08
4.91038e-08
2.92716e-08
1.11222e-08
3.95289e-09
1.28081e-09
6.11911e-10
6.5926e-17
1.80892e-15
2.08244e-14
1.07303e-13
3.16785e-13
9.40225e-13
3.80306e-12
1.43617e-11
4.1852e-11
1.11105e-10
1.53318e-10
5.46002e-10
9.33092e-09
2.74076e-08
5.52686e-08
4.08745e-08
5.78865e-08
4.02106e-08
1.94989e-08
1.06357e-08
3.61122e-09
1.026e-09
3.32303e-10
2.3271e-17
4.43561e-16
4.32409e-15
2.17219e-14
7.94046e-14
3.52659e-13
1.76582e-12
7.18994e-12
2.21932e-11
5.38513e-11
8.24742e-11
1.59354e-10
3.62319e-09
1.68124e-08
1.424e-08
3.49445e-08
3.60636e-08
2.52611e-08
1.39631e-08
7.37488e-09
2.82459e-09
8.13869e-10
1.6645e-10
3.32253e-18
5.55949e-17
5.41309e-16
3.18462e-15
1.80925e-14
1.1687e-13
6.43578e-13
2.67549e-12
8.16362e-12
1.76376e-11
2.56703e-11
4.30139e-11
5.49357e-10
2.73414e-09
1.37843e-08
1.38711e-08
1.9713e-08
1.40018e-08
7.8771e-09
3.97015e-09
1.65844e-09
4.97604e-10
1.15673e-10
5.89305e-21
4.39722e-19
1.43189e-17
2.52725e-16
2.91327e-15
2.34391e-14
1.37136e-13
5.90081e-13
1.82304e-12
3.8815e-12
5.97391e-12
1.34641e-11
6.41203e-11
1.05982e-09
2.17503e-09
6.83319e-09
8.06437e-09
5.85346e-09
3.17205e-09
1.64246e-09
6.40339e-10
2.17674e-10
5.64107e-11
8.73003e-22
4.46689e-20
1.27164e-18
2.28358e-17
2.77403e-16
2.38439e-15
1.48971e-14
6.80385e-14
2.30789e-13
6.0531e-13
1.3182e-12
3.114e-12
1.14959e-11
6.12777e-11
4.91987e-10
1.04699e-09
2.26243e-09
1.82077e-09
9.77859e-10
4.71897e-10
2.06702e-10
6.92545e-11
2.11233e-11
1.53055e-23
1.14091e-21
4.21879e-20
9.21615e-19
1.33659e-17
1.38083e-16
1.06227e-15
6.25245e-15
2.88583e-14
1.06657e-13
3.23948e-13
8.57027e-13
2.35754e-12
7.65969e-12
2.94602e-11
1.34589e-10
2.63962e-10
3.49651e-10
2.08636e-10
9.20202e-11
4.32589e-11
1.79438e-11
6.8699e-12
3.76323e-24
2.34532e-22
7.6635e-21
1.55785e-19
2.22947e-18
2.38256e-17
1.95932e-16
1.26466e-15
6.52685e-15
2.74473e-14
9.51854e-14
2.83105e-13
8.12481e-13
2.35034e-12
6.10918e-12
1.20209e-11
2.29619e-11
4.00666e-11
3.29997e-11
1.66769e-11
7.53455e-12
3.55321e-12
1.77678e-12
2.39746e-25
1.66648e-23
6.02616e-22
1.33605e-20
2.07267e-19
2.40453e-18
2.18362e-17
1.59371e-16
9.45089e-16
4.48501e-15
1.73189e-14
5.68609e-14
1.59953e-13
3.85577e-13
8.14494e-13
1.59545e-12
2.96458e-12
4.60239e-12
5.04615e-12
4.12315e-12
2.35066e-12
1.0447e-12
4.61331e-13
3.11264e-26
2.16322e-24
7.73162e-23
1.73549e-21
2.73963e-20
3.23128e-19
2.93677e-18
2.12324e-17
1.24683e-16
6.11228e-16
2.54333e-15
8.96873e-15
2.67944e-14
6.96305e-14
1.55356e-13
2.94166e-13
4.73741e-13
6.34713e-13
6.85936e-13
5.77943e-13
3.76609e-13
1.94167e-13
9.28357e-14
3.44982e-28
2.5793e-26
9.95504e-25
2.40459e-23
4.15869e-22
5.54685e-21
5.92443e-20
5.14958e-19
3.68247e-18
2.18958e-17
1.08346e-16
4.41694e-16
1.49208e-15
4.2032e-15
1.0073e-14
2.09421e-14
3.70018e-14
5.4237e-14
6.39779e-14
6.00383e-14
4.47929e-14
2.71764e-14
1.52941e-14
3.7642e-30
3.19304e-28
1.37415e-26
3.73039e-25
7.15263e-24
1.02801e-22
1.16249e-21
1.06132e-20
7.92594e-20
4.89154e-19
2.55479e-18
1.15852e-17
4.58023e-17
1.55679e-16
4.48353e-16
1.06296e-15
2.08721e-15
3.40423e-15
4.59185e-15
5.05508e-15
4.43474e-15
3.16503e-15
2.11351e-15
1.88074e-32
1.72504e-30
8.08722e-29
2.42449e-27
5.26407e-26
8.80973e-25
1.17379e-23
1.27352e-22
1.14789e-21
8.6996e-21
5.50608e-20
2.88562e-19
1.25509e-18
4.59552e-18
1.42756e-17
3.82334e-17
8.7934e-17
1.69926e-16
2.69326e-16
3.43016e-16
3.5235e-16
3.04033e-16
2.46822e-16
1.06918e-34
1.10882e-32
5.79554e-31
1.93212e-29
4.60782e-28
8.39807e-27
1.21461e-25
1.42629e-24
1.37922e-23
1.11017e-22
7.55684e-22
4.43703e-21
2.26051e-20
9.92874e-20
3.7407e-19
1.18893e-18
3.13898e-18
6.88834e-18
1.25236e-17
1.88228e-17
2.32832e-17
2.45084e-17
2.44909e-17
2.50499e-37
2.89479e-35
1.74035e-33
6.7826e-32
1.91837e-30
4.17932e-29
7.24564e-28
1.02115e-26
1.18934e-25
1.15914e-24
9.50628e-24
6.55275e-23
3.8109e-22
1.87977e-21
7.88244e-21
2.82113e-20
8.63441e-20
2.23749e-19
4.84464e-19
8.66302e-19
1.29229e-18
1.68558e-18
2.09729e-18
5.99344e-40
8.18566e-38
5.63044e-36
2.4978e-34
7.98002e-33
1.9564e-31
3.82108e-30
6.08863e-29
8.03643e-28
8.87797e-27
8.28201e-26
6.57544e-25
4.47685e-24
2.61886e-23
1.31255e-22
5.60701e-22
2.02587e-21
6.15808e-21
1.57255e-20
3.38134e-20
6.19815e-20
1.01028e-19
1.57194e-19
6.42481e-43
1.08542e-40
9.00674e-39
4.80036e-37
1.84376e-35
5.44761e-34
1.28634e-32
2.47729e-31
3.94746e-30
5.26132e-29
5.91009e-28
5.62267e-27
4.53693e-26
3.1155e-25
1.82682e-24
9.15241e-24
3.91482e-23
1.4254e-22
4.39984e-22
1.15335e-21
2.61505e-21
5.35111e-21
1.05211e-20
5.03267e-46
1.12572e-43
1.14589e-41
7.31872e-40
3.32572e-38
1.15279e-36
3.1867e-35
7.24102e-34
1.38047e-32
2.22936e-31
3.04957e-30
3.53374e-29
3.4776e-28
2.91105e-27
2.0749e-26
1.26027e-25
6.52007e-25
2.87074e-24
1.07762e-23
3.47575e-23
9.83182e-23
2.54616e-22
6.85023e-22
2.02966e-49
7.33235e-47
9.98597e-45
7.81896e-43
4.2402e-41
1.72987e-39
5.60653e-38
1.50966e-36
3.45026e-35
6.75429e-34
1.13817e-32
1.64864e-31
2.04239e-30
2.15281e-29
1.92001e-28
1.44773e-27
9.24273e-27
5.01542e-26
2.32648e-25
9.32798e-25
3.31426e-24
1.12398e-23
5.24224e-23
4.59962e-53
5.21153e-50
9.71392e-48
9.1363e-46
5.81066e-44
2.77589e-42
1.05152e-40
3.27532e-39
8.60837e-38
1.94286e-36
3.81189e-35
6.52906e-34
9.74534e-33
1.26244e-31
1.41006e-30
1.34884e-29
1.0968e-28
7.541e-28
4.39984e-27
2.21678e-26
1.00494e-25
4.91425e-25
4.95195e-24
2.39237e-56
1.12917e-52
2.26897e-50
2.26882e-48
1.52605e-46
7.71593e-45
3.10519e-43
1.03062e-41
2.8974e-40
7.04487e-39
1.50459e-37
2.8469e-36
4.78029e-35
7.10318e-34
9.33698e-33
1.07731e-31
1.08223e-30
9.39734e-30
7.02402e-29
4.56056e-28
2.78266e-27
2.42909e-26
5.3432e-25
1.25734e-57
1.24912e-54
2.19745e-52
2.0445e-50
1.28931e-48
6.12657e-47
2.32419e-45
7.30628e-44
1.95704e-42
4.56612e-41
9.46429e-40
1.77276e-38
3.03439e-37
4.75641e-36
6.79466e-35
8.76067e-34
1.00923e-32
1.03415e-31
9.44731e-31
7.86913e-30
7.13752e-29
1.30069e-27
4.87208e-26
6.58466e-59
3.68763e-56
5.4742e-54
4.55413e-52
2.61144e-50
1.13756e-48
3.99136e-47
1.16879e-45
2.92561e-44
6.38284e-43
1.23276e-41
2.13795e-40
3.37537e-39
4.91602e-38
6.67572e-37
8.52509e-36
1.02614e-34
1.15546e-33
1.21098e-32
1.2673e-31
1.98882e-30
7.50829e-29
4.07476e-27
1.78649e-60
7.47005e-58
1.00671e-55
7.91844e-54
4.34606e-52
1.82013e-50
6.14939e-49
1.74157e-47
4.25496e-46
9.15837e-45
1.76061e-43
3.05467e-42
4.82696e-41
7.00137e-40
9.38338e-39
1.16945e-37
1.36819e-36
1.52885e-35
1.71538e-34
2.40833e-33
7.13828e-32
4.15704e-30
2.85849e-28
1.13964e-62
4.29794e-60
5.99626e-58
5.05334e-56
3.01278e-54
1.37669e-52
5.06419e-51
1.55246e-49
4.06632e-48
9.2714e-47
1.87104e-45
3.38841e-44
5.57351e-43
8.41766e-42
1.1771e-40
1.53499e-39
1.89495e-38
2.3406e-37
3.62726e-36
1.08871e-34
5.93534e-33
4.03669e-31
2.95533e-29
6.05939e-65
2.15518e-62
3.11643e-60
2.74881e-58
1.71672e-56
8.21574e-55
3.16602e-53
1.01649e-51
2.78871e-50
6.66981e-49
1.41308e-47
2.68722e-46
4.63782e-45
7.33856e-44
1.0763e-42
1.48029e-41
1.93051e-40
2.44551e-39
3.35638e-38
7.61137e-37
4.25671e-35
4.00427e-33
4.68488e-31
7.36623e-05
9.47384e-05
0.000169679
0.00037977
0.0018886
0.00331009
0.00734834
0.0166124
0.0208858
0.0347397
0.0566606
0.0855899
0.149194
0.213555
0.280834
0.345613
0.50982
0.539463
0.5404
0.538283
0.464656
0.375216
0.227406
0.0708809
0.00109475
0.000106981
9.64221e-06
2.23115e-06
1.87597e-07
3.16944e-07
5.97561e-07
4.8658e-07
4.75891e-08
4.10851e-08
5.09193e-08
8.13602e-08
4.3607e-08
4.35583e-08
3.86189e-08
5.212e-08
6.62913e-08
4.48949e-08
3.81587e-08
4.65092e-08
3.33912e-08
2.27916e-08
2.50468e-08
4.24274e-08
1.13361e-08
1.13931e-08
1.92916e-08
4.00726e-08
5.6286e-09
9.02473e-09
1.45057e-08
1.73029e-08
2.98418e-09
4.28048e-09
5.4707e-09
6.96541e-09
1.21889e-09
1.31258e-09
1.63585e-09
1.91078e-09
4.55602e-10
4.3721e-10
4.49359e-10
5.61055e-10
1.6513e-10
1.37259e-10
1.22192e-10
1.28316e-10
7.09728e-11
5.81424e-11
4.8765e-11
4.18682e-11
3.78118e-11
2.86681e-11
2.26905e-11
2.01063e-11
1.94244e-11
1.37737e-11
1.02846e-11
8.95712e-12
8.40459e-12
5.85238e-12
4.1471e-12
3.35808e-12
2.92304e-12
2.05985e-12
1.44734e-12
1.11783e-12
8.9757e-13
6.50001e-13
4.5935e-13
3.4031e-13
2.33217e-13
1.74691e-13
1.26373e-13
9.20568e-14
5.16621e-14
4.0166e-14
3.00326e-14
2.25228e-14
9.71942e-15
7.93014e-15
6.22555e-15
5.0961e-15
1.5568e-15
1.34184e-15
1.14022e-15
1.16708e-15
2.13672e-16
1.97962e-16
1.92498e-16
2.91534e-16
2.53426e-17
2.57673e-17
3.13025e-17
7.79365e-17
2.63508e-18
3.15811e-18
6.11334e-18
2.7334e-17
2.5069e-19
4.3882e-19
1.75083e-18
1.18453e-17
2.38392e-20
7.74477e-20
5.25367e-19
4.30772e-18
3.3557e-21
2.41088e-20
2.2496e-19
2.06692e-18
6.6018e-22
7.22132e-21
8.05539e-20
8.43032e-19
1.1391e-22
1.53879e-21
1.98202e-20
2.37115e-19
1.73084e-23
2.75026e-22
4.07961e-21
5.60321e-20
1.99069e-24
3.74399e-23
6.50704e-22
1.04131e-20
2.07381e-25
4.68461e-24
9.66337e-23
1.81519e-21
1.85231e-26
5.30533e-25
1.38877e-23
3.29376e-22
2.16096e-27
7.2104e-26
2.27068e-24
6.65064e-23
5.08421e-29
2.25596e-27
9.0175e-26
3.251e-24
0.00647186
0.0413366
0.104753
0.156806
0.167458
0.153639
0.168714
0.263121
0.433815
0.580463
0.706913
0.739768
0.502017
0.154976
0.177851
0.817869
0.953163
0.953113
0.673638
0.0623665
0.152908
0.242081
0.295951
0.317953
0.30131
0.262442
0.251229
0.279527
0.353351
0.458525
0.514654
0.360519
0.315965
0.231684
0.429862
0.878799
0.929814
0.679834
0.175482
0.308742
0.405594
0.473223
0.474425
0.475707
0.477072
0.444026
0.364768
0.342286
0.342921
0.35207
0.349488
0.349513
0.345698
0.31399
0.5716
0.46634
0.494921
0.43563
0.435362
0.338272
0.158437
0.169919
0.31984
0.584681
0.585699
0.585699
0.557091
0.517266
0.484719
0.448566
0.398971
0.373034
0.315464
0.135978
0.0630474
0.216781
0.421848
0.168092
0.012806
0.000453944
0.00167028
0.00955311
0.0189698
0.225285
0.528592
0.608687
0.608364
0.608686
0.608144
0.569568
0.521155
0.39273
0.0701403
0.0539261
0.112311
0.00781246
8.89424e-05
5.52445e-06
0.000443956
0.00416601
0.0079364
0.0122605
0.0136948
0.0201747
0.0239994
0.0386623
0.109541
0.249575
0.569923
0.560567
0.499419
0.162422
0.0535694
0.186202
1.29623e-06
2.55789e-07
7.92957e-07
0.00149553
0.0494272
0.173311
0.309723
0.385529
0.393747
0.328831
0.154851
0.023223
0.0223274
0.0959228
0.516093
0.593808
0.410397
0.0784356
0.337991
2.78956e-07
2.12434e-07
7.82362e-06
0.00428005
0.129355
0.597153
0.8938
0.945531
0.951943
0.947746
0.861321
0.339999
0.0355479
0.035508
0.160653
0.59395
0.564553
0.335116
0.554231
1.05276e-07
2.18284e-07
1.18886e-05
0.00503945
0.155218
0.704955
0.976661
0.998555
0.999303
0.999677
0.998845
0.928923
0.356597
0.048176
0.0526151
0.407453
0.668768
0.60257
0.660696
8.84642e-08
3.3971e-07
2.39194e-06
0.000771074
0.0328425
0.256633
0.720315
0.9634
0.998926
0.99971
0.999708
0.997142
0.841663
0.163341
0.0540502
0.0981729
0.669002
0.663684
0.698669
1.14404e-07
2.98166e-07
6.14371e-07
4.37468e-06
0.000468857
0.015261
0.179924
0.677419
0.971421
0.999292
0.999666
0.999157
0.966441
0.528445
0.0560857
0.0580858
0.535383
0.734656
0.732749
1.03018e-07
1.67031e-07
2.32969e-07
5.95575e-07
1.08851e-06
0.000108738
0.0113576
0.195652
0.761676
0.988126
0.999395
0.998604
0.970405
0.611878
0.0580905
0.0596029
0.405308
0.782613
0.762325
5.69147e-08
6.26801e-08
9.43419e-08
1.82203e-07
4.57854e-07
1.46501e-06
0.000260511
0.0255608
0.337133
0.900749
0.997101
0.99821
0.981767
0.746699
0.18046
0.122579
0.558968
0.815438
0.786832
2.1459e-08
3.23179e-08
5.77179e-08
1.0602e-07
2.00536e-07
5.5516e-07
4.3788e-06
0.00217434
0.104711
0.658604
0.982827
0.997652
0.993125
0.934079
0.723332
0.626168
0.843865
0.839843
0.812306
8.67842e-09
1.48844e-08
2.19501e-08
4.35677e-08
8.22284e-08
3.22493e-07
1.33158e-06
0.000201167
0.0311187
0.390252
0.926402
0.99619
0.994973
0.982129
0.95139
0.919407
0.899965
0.861186
0.843448
2.70943e-09
4.88889e-09
1.02113e-08
1.89804e-08
4.96843e-08
1.25856e-07
1.06509e-06
1.57612e-05
0.006936
0.184371
0.747439
0.985347
0.995177
0.987957
0.967124
0.94254
0.920705
0.905231
0.894554
8.92118e-10
2.11854e-09
4.19823e-09
1.08483e-08
2.32303e-08
8.00536e-08
2.53779e-07
2.66587e-06
0.000167061
0.026009
0.307372
0.813538
0.986076
0.993654
0.987108
0.972735
0.967283
0.96866
0.964187
2.69754e-10
6.68439e-10
2.09938e-09
5.20162e-09
1.75338e-08
3.69366e-08
1.28729e-07
3.9521e-07
8.88276e-06
0.000958761
0.0136056
0.124446
0.540162
0.927134
0.985251
0.992624
0.994187
0.995393
0.995111
3.7425e-11
2.07544e-10
1.0014e-09
3.68532e-09
1.18678e-08
3.35273e-08
8.35385e-08
1.78004e-07
7.65292e-07
6.01244e-06
0.000306848
0.00543344
0.0332571
0.172397
0.360181
0.506138
0.629107
0.782265
0.916971
2.08213e-11
3.47778e-11
4.4227e-10
1.75143e-09
6.91345e-09
2.26094e-08
6.12822e-08
1.40947e-07
3.00576e-07
9.47175e-07
3.31505e-06
9.74473e-05
0.000835648
0.00332436
0.0099686
0.0217772
0.0316278
0.104576
0.55522
9.8064e-12
1.75033e-11
1.62604e-10
7.57428e-10
3.29952e-09
1.31288e-08
4.26255e-08
1.09876e-07
2.42187e-07
6.1549e-07
1.63995e-06
2.61883e-06
4.38336e-06
8.68122e-06
1.49394e-05
3.09399e-05
6.88096e-05
0.0192986
0.578913
3.76862e-12
1.06205e-11
5.3031e-11
2.93328e-10
1.43993e-09
6.54176e-09
2.67382e-08
8.46302e-08
2.08741e-07
5.5081e-07
1.13913e-06
2.15152e-06
2.61456e-06
2.95841e-06
3.00652e-06
2.21022e-06
1.88808e-06
9.7193e-05
0.632816
1.17702e-12
3.25666e-12
1.72377e-11
9.30474e-11
5.20442e-10
2.67532e-09
1.24983e-08
5.01435e-08
1.48209e-07
4.92232e-07
1.05147e-06
1.98635e-06
2.32002e-06
2.71529e-06
2.6481e-06
1.89846e-06
1.67866e-06
1.69806e-05
0.471657
3.26339e-13
8.42422e-13
4.8824e-12
2.83009e-11
1.57567e-10
9.20991e-10
5.15425e-09
2.69355e-08
1.13575e-07
3.80011e-07
9.54852e-07
1.82881e-06
2.16521e-06
2.49133e-06
2.28461e-06
1.70309e-06
1.47671e-06
8.5591e-06
0.406563
7.96586e-14
1.6882e-13
1.07017e-12
7.00211e-12
4.32049e-11
2.56143e-10
1.60227e-09
9.97163e-09
5.41327e-08
2.23136e-07
7.09104e-07
1.48449e-06
2.04832e-06
2.22374e-06
1.88796e-06
1.3831e-06
1.24521e-06
5.71176e-06
0.402417
2.01752e-14
4.63003e-14
2.97328e-13
1.93164e-12
1.18181e-11
7.03286e-11
4.27519e-10
2.70476e-09
1.62294e-08
8.3298e-08
3.37214e-07
9.81086e-07
1.70797e-06
1.77683e-06
1.32602e-06
9.83788e-07
1.06599e-06
4.4393e-06
0.335052
5.90734e-15
2.3386e-14
1.63666e-13
1.05038e-12
5.95821e-12
3.01806e-11
1.41779e-10
6.68013e-10
3.41779e-09
1.84774e-08
9.00052e-08
3.7886e-07
1.02409e-06
1.05332e-06
7.01375e-07
7.3657e-07
1.05652e-06
4.41436e-06
0.235216
2.28965e-15
1.54118e-14
1.19631e-13
8.18307e-13
4.85143e-12
2.47942e-11
1.09058e-10
4.16199e-10
1.4334e-09
4.99881e-09
2.05925e-08
9.13455e-08
3.17945e-07
4.02216e-07
3.90792e-07
7.85358e-07
1.19383e-06
3.01905e-05
0.136105
9.5515e-16
8.47188e-15
7.2354e-14
5.3733e-13
3.4424e-12
1.89162e-11
8.87136e-11
3.53508e-10
1.19412e-09
3.46045e-09
9.04307e-09
2.4349e-08
7.50273e-08
1.96352e-07
4.07447e-07
9.25917e-07
1.4246e-06
0.000264863
0.0499743
3.69533e-16
3.95075e-15
3.79489e-14
3.14858e-13
2.24585e-12
1.37038e-11
7.12148e-11
3.13939e-10
1.16998e-09
3.68486e-09
9.90441e-09
2.29571e-08
4.87697e-08
2.86576e-07
8.74815e-07
1.10879e-06
1.8131e-06
0.000717498
0.0108938
1.67375e-16
2.04766e-15
2.18705e-14
2.01062e-13
1.58475e-12
1.06556e-11
6.08321e-11
2.93737e-10
1.19713e-09
4.11634e-09
1.21586e-08
3.12027e-08
1.11963e-07
1.14046e-06
2.59897e-05
7.70821e-06
7.83376e-06
0.000882407
0.00105306
8.47352e-17
1.16734e-15
1.39841e-14
1.44577e-13
1.28265e-12
9.69478e-12
6.20251e-11
3.34366e-10
1.51598e-09
5.78496e-09
1.91441e-08
5.89592e-08
2.99884e-07
1.59047e-05
8.96502e-05
1.41025e-05
2.59406e-05
0.000185892
0.000191507
3.44349e-17
5.33035e-16
7.2419e-15
8.56111e-14
8.7316e-13
7.61443e-12
5.62401e-11
3.50094e-10
1.83193e-09
8.03106e-09
2.91673e-08
1.31976e-07
1.04762e-06
3.66523e-05
0.000197138
2.25949e-05
2.55838e-05
0.000164075
0.00282409
1.78089e-17
2.95162e-16
4.27426e-15
5.41083e-14
5.97571e-13
5.729e-12
4.75039e-11
3.40403e-10
2.11125e-09
1.13676e-08
5.21451e-08
1.91399e-07
7.73823e-07
1.36181e-05
0.000204439
0.00103223
0.00177245
0.0190869
0.128521
8.1694e-18
1.51893e-16
2.44614e-15
3.40734e-14
4.10494e-13
4.29205e-12
3.93249e-11
3.20679e-10
2.34427e-09
1.50268e-08
7.4845e-08
3.16631e-07
1.24261e-06
2.08438e-06
9.65814e-05
0.00588225
0.0897797
0.348135
0.693694
2.62796e-18
5.63603e-17
1.04087e-15
1.64602e-14
2.22176e-13
2.56144e-12
2.5381e-11
2.18763e-10
1.67422e-09
1.12548e-08
6.08259e-08
2.61711e-07
1.09149e-06
1.99414e-06
8.72139e-05
0.00983216
0.212853
0.772344
0.979328
7.11665e-19
1.74549e-17
3.64264e-16
6.42427e-15
9.5181e-14
1.17797e-12
1.21511e-11
1.05273e-10
7.78324e-10
4.86785e-09
2.5761e-08
1.13811e-07
5.55745e-07
1.39192e-06
3.73497e-05
0.00423427
0.124993
0.776744
0.985829
1.5302e-19
4.31098e-18
1.01825e-16
2.00512e-15
3.27398e-14
4.40164e-13
4.83757e-12
4.33021e-11
3.16822e-10
1.91102e-09
9.64212e-09
4.09215e-08
1.45582e-07
6.1437e-07
5.67338e-06
0.000274989
0.00800936
0.353377
0.985829
3.09668e-20
1.00346e-18
2.68865e-17
5.93662e-16
1.07403e-14
1.57984e-13
1.87009e-12
1.76141e-11
1.31071e-10
7.69082e-10
3.59794e-09
1.37514e-08
4.50816e-08
1.94287e-07
9.35299e-07
4.8024e-06
5.6152e-05
0.0801194
0.979142
7.02422e-21
2.81321e-19
9.19056e-18
2.45205e-16
5.33177e-15
9.38972e-14
1.325e-12
1.47595e-11
1.27659e-10
8.45481e-10
4.25587e-09
1.63391e-08
7.10377e-08
2.3662e-07
5.66584e-07
3.76834e-07
2.63855e-06
0.0155499
0.841499
1.7888e-21
9.30123e-20
3.93192e-18
1.33683e-16
3.63085e-15
7.82735e-14
1.32534e-12
1.73721e-11
1.7377e-10
1.30905e-09
7.34325e-09
3.08527e-08
9.69653e-08
2.97529e-07
5.41434e-07
3.36691e-07
4.57474e-07
0.0014344
0.39487
1.05635e-22
6.79582e-21
3.55678e-19
1.49734e-17
5.04269e-16
1.35321e-14
2.87102e-13
4.74739e-12
5.96977e-11
5.50009e-10
3.5274e-09
1.51982e-08
4.37404e-08
7.60681e-08
1.50533e-07
1.63077e-08
4.45678e-07
3.05677e-05
0.027858
)
;

boundaryField
{
    leftWall
    {
        type            zeroGradient;
    }
    rightWall
    {
        type            zeroGradient;
    }
    lowerWall
    {
        type            zeroGradient;
    }
    atmosphere
    {
        type            inletOutlet;
        inletValue      uniform 0;
        value           nonuniform List<scalar> 
46
(
0
0
0
0
0
0
0
0
0
0
0
0
0
0
0
0
0
0
0
0
0
0
4.68488e-31
5.08421e-29
2.25596e-27
9.0175e-26
3.251e-24
1.05635e-22
6.79582e-21
3.55678e-19
1.49734e-17
5.04269e-16
1.35321e-14
2.87102e-13
4.74739e-12
5.96977e-11
5.50009e-10
3.5274e-09
1.51982e-08
4.37404e-08
7.60681e-08
1.50533e-07
0
4.45678e-07
0
0
)
;
    }
    defaultFaces
    {
        type            empty;
    }
}


// ************************************************************************* //
