/*--------------------------------*- C++ -*----------------------------------*\
| =========                 |                                                 |
| \\      /  F ield         | OpenFOAM: The Open Source CFD Toolbox           |
|  \\    /   O peration     | Version:  2.4.0                                 |
|   \\  /    A nd           | Web:      www.OpenFOAM.org                      |
|    \\/     M anipulation  |                                                 |
\*---------------------------------------------------------------------------*/
FoamFile
{
    version     2.0;
    format      ascii;
    class       volScalarField;
    location    "0.6";
    object      alpha.water;
}
// * * * * * * * * * * * * * * * * * * * * * * * * * * * * * * * * * * * * * //

dimensions      [0 0 0 0 0 0 0];

internalField   nonuniform List<scalar> 
2268
(
1.00108e-08
9.85576e-09
7.06535e-09
1.12777e-08
1.08323e-08
9.36416e-09
1.04175e-08
1.27353e-08
1.64299e-08
1.46075e-08
1.08455e-08
8.73489e-09
8.29339e-09
8.36446e-09
8.18438e-09
7.70209e-09
5.82035e-09
3.72225e-09
2.80461e-09
2.7077e-09
2.4677e-09
1.28257e-09
2.25539e-10
2.0721e-07
2.67035e-07
1.25155e-07
3.8132e-07
3.2936e-07
1.90745e-07
2.83626e-07
3.10295e-07
4.26217e-07
2.26935e-07
7.37729e-08
5.23078e-08
5.04739e-08
4.59338e-08
4.01008e-08
3.43796e-08
2.68262e-08
1.91267e-08
1.25062e-08
9.32224e-09
6.59503e-09
1.98006e-09
3.79798e-10
0.000604118
0.000677577
0.000487075
0.000801466
0.00079848
0.00066773
0.000809972
0.000813908
0.000877636
0.000494201
0.000208621
5.87477e-05
1.27869e-05
2.83078e-06
8.61725e-07
2.5074e-07
7.69581e-08
4.58993e-08
3.01734e-08
2.13051e-08
1.5566e-08
5.26378e-09
1.55916e-09
0.0918514
0.0954482
0.0888941
0.101743
0.10582
0.10549
0.113826
0.114197
0.115115
0.0930011
0.0698777
0.0335896
0.00610075
0.000407348
2.49532e-05
2.64761e-06
4.9504e-07
2.55565e-07
1.70402e-07
1.84798e-07
1.11628e-07
3.98053e-08
5.97796e-09
0.81578
0.823351
0.81655
0.834532
0.840742
0.848865
0.865943
0.869059
0.876294
0.861995
0.838896
0.786423
0.644259
0.399992
0.0831975
0.00371798
8.83788e-05
2.32129e-06
5.79704e-07
5.36159e-07
2.34482e-07
9.37578e-08
1.73336e-08
0.999968
0.999971
0.99997
0.999974
0.999975
0.999978
0.999982
0.999984
0.999985
0.999986
0.999986
0.999986
0.997878
0.964101
0.715564
0.165307
0.00468627
0.000138954
1.40294e-05
4.322e-06
9.15945e-07
2.54164e-07
3.02444e-08
0.999994
0.999994
0.999994
0.999994
0.999994
0.999994
0.999994
0.999994
0.999994
0.999994
0.999994
0.999994
0.999993
0.999853
0.987325
0.699018
0.0594291
0.00104887
0.00017493
3.97116e-05
5.43591e-06
9.17101e-07
1.03035e-07
0.999991
0.999991
0.999992
0.999992
0.999993
0.999994
0.999994
0.999994
0.999994
0.999994
0.999993
0.999993
0.999993
0.999993
0.999736
0.940518
0.355986
0.00726893
0.00038649
5.27005e-05
9.03842e-07
9.02896e-07
1.03037e-07
8.99367e-07
1.52376e-06
2.12803e-06
2.17234e-06
1.9574e-06
1.89604e-06
2.03689e-06
2.15707e-06
2.2961e-06
2.59123e-06
3.2411e-06
5.58572e-06
1.60574e-05
7.34436e-05
0.000409087
0.00119607
0.00137565
0.000649848
0.000579177
3.55537e-07
3.44219e-06
4.54899e-05
1.95684e-05
2.52278e-06
5.35036e-07
3.35172e-07
2.71595e-07
2.76398e-07
3.39083e-07
6.65476e-07
2.03558e-06
9.10544e-06
4.045e-05
0.000328849
0.00173745
0.00331151
0.00187665
0.000896202
4.88233e-07
9.34371e-05
0.00208501
0.000977345
0.000159127
1.00022e-05
4.65696e-07
1.60507e-07
1.59064e-07
1.67151e-07
4.9794e-07
6.31938e-06
5.68871e-05
0.000204475
0.000493687
0.0023177
0.00744495
0.00455704
0.00115747
5.40968e-06
0.00175181
0.0240627
0.0160244
0.00561479
0.000936266
0.000124071
1.56669e-05
2.07089e-06
1.28598e-06
3.2038e-06
3.63075e-05
0.000309288
0.00125424
0.00191836
0.00277325
0.0147738
0.0117079
0.0012907
0.000214915
0.0172842
0.107639
0.108303
0.0705001
0.0304381
0.0126289
0.00255449
0.000209721
2.2451e-05
2.67028e-05
0.000149721
0.00097565
0.00462785
0.0051811
0.00332555
0.0179923
0.0191967
0.00376459
0.00524673
0.0965491
0.240566
0.435035
0.409869
0.269009
0.196771
0.0887193
0.0137656
0.00100647
0.00023678
0.000617061
0.00379252
0.0125846
0.00876652
0.0036211
0.0178892
0.0251319
0.00844632
0.0939965
0.267104
0.526509
0.748674
0.77289
0.682903
0.629564
0.430127
0.135188
0.0302753
0.00248448
0.00327105
0.0185437
0.0190048
0.00649271
0.0030398
0.0158808
0.0252726
0.0116452
0.271388
0.406025
0.732077
0.817877
0.817759
0.778969
0.696241
0.59256
0.35838
0.123884
0.0337929
0.0283136
0.0564417
0.0127807
0.00172293
0.00173162
0.011768
0.0228734
0.0148117
0.999994
0.999994
0.999995
0.999995
0.999996
0.999995
0.999993
0.999979
0.999979
0.999984
0.999992
0.999993
0.999993
0.999992
0.999988
0.996014
0.861267
0.32405
0.0264516
0.0111728
0.0224503
0.0304397
0.025937
0.999999
0.999999
0.999999
0.999999
0.999999
0.999901
0.998597
0.995577
0.995804
0.996717
0.99836
0.999319
0.99985
0.999986
0.999994
0.99997
0.994278
0.913187
0.714978
0.534176
0.466194
0.501652
0.501426
0.999999
0.999999
0.999999
0.999996
0.999508
0.983647
0.929566
0.880074
0.887414
0.903422
0.937795
0.966987
0.991257
0.998234
0.99967
0.999937
0.999878
0.996722
0.987378
0.989226
0.989527
0.987783
0.978645
0.999999
0.999983
0.9993
0.997879
0.966115
0.76382
0.514474
0.397033
0.393184
0.393343
0.458737
0.565931
0.755189
0.899867
0.971369
0.993142
0.998304
0.999432
0.999418
0.99728
0.988655
0.96576
0.918111
0.750375
0.763436
0.805606
0.814945
0.604241
0.255273
0.0828508
0.0477974
0.0488519
0.0549878
0.0706875
0.0882928
0.11292
0.258522
0.438589
0.664173
0.849245
0.860815
0.892943
0.825196
0.731264
0.627976
0.518302
0.0243236
0.0218274
0.0162024
0.0154876
0.0052944
0.000702609
0.000473902
0.000255115
0.000284229
0.000542489
0.00107218
0.00205507
0.00452384
0.0105636
0.022273
0.0452376
0.132097
0.169088
0.273807
0.237666
0.182059
0.12937
0.0827509
1.60937e-06
2.37195e-05
2.30343e-05
2.41998e-05
2.30324e-06
5.44666e-08
5.9106e-08
3.01903e-07
2.44456e-07
3.93347e-07
1.86534e-06
6.59085e-06
1.86584e-05
3.89249e-05
9.11213e-05
0.000312695
0.000771545
0.00125662
0.00133173
0.000348748
0.000270541
0.000123917
2.59858e-05
3.83596e-08
5.06046e-08
4.05183e-08
4.98204e-09
1.17627e-09
1.29465e-09
6.52978e-09
2.43244e-08
1.47352e-08
7.45112e-09
4.19927e-09
2.28883e-09
1.50103e-09
7.82446e-10
2.14198e-09
2.45127e-08
1.56047e-07
4.13612e-07
4.51232e-07
1.02597e-07
4.76331e-08
1.94418e-08
5.82557e-09
4.36536e-08
3.37743e-08
2.62116e-08
9.82765e-09
9.82306e-10
6.44007e-10
7.44113e-10
1.12856e-08
5.03061e-09
3.53205e-09
2.09153e-09
2.098e-09
1.6625e-09
7.8535e-10
3.24616e-10
9.04121e-11
2.61691e-11
9.24198e-12
7.8787e-12
7.58514e-12
1.56239e-11
2.6056e-11
6.67938e-11
5.61821e-08
3.31195e-08
1.59747e-08
2.76806e-09
5.74057e-10
6.43043e-10
1.09472e-09
3.45964e-09
2.84763e-09
2.83938e-09
3.45072e-09
6.42972e-09
5.13655e-09
1.93139e-09
3.36137e-10
5.33037e-11
1.55666e-11
1.09823e-11
8.11861e-12
6.83355e-12
5.79312e-12
3.83895e-12
1.95465e-12
5.62027e-08
3.0804e-08
1.23065e-08
2.30488e-09
4.6044e-10
4.60359e-10
8.7162e-10
1.89844e-09
2.21275e-09
3.14001e-09
6.01411e-09
7.74484e-09
5.30157e-09
1.364e-09
1.90405e-10
8.40074e-11
1.76673e-11
7.84497e-12
4.62572e-12
3.61302e-12
3.14452e-12
2.27332e-12
1.281e-12
3.9525e-08
1.31132e-08
1.35684e-09
2.70311e-10
1.4396e-10
1.2497e-10
3.28812e-10
1.12759e-09
3.25623e-09
6.78679e-09
8.88735e-09
6.46299e-09
1.261e-09
8.19995e-11
9.69714e-12
2.16008e-12
1.36076e-12
8.65092e-13
6.59842e-13
4.93853e-13
4.26144e-13
3.37295e-13
2.4528e-13
8.37693e-09
2.04948e-09
1.70267e-10
3.60495e-11
3.05599e-11
3.20119e-11
2.79842e-11
3.38071e-11
9.07914e-11
2.25224e-09
1.09791e-09
1.7792e-10
1.75757e-11
4.43585e-12
1.19113e-12
3.44823e-13
1.32563e-13
6.77192e-14
5.31073e-14
4.81446e-14
4.24389e-14
4.45553e-14
1.10478e-13
2.92655e-10
7.64076e-11
3.17609e-11
1.70943e-11
1.14056e-11
1.29429e-11
1.74182e-11
1.78553e-11
1.5011e-11
1.75746e-11
9.93425e-12
6.45923e-12
3.43084e-12
9.16816e-13
1.09283e-13
8.24668e-15
3.74119e-15
5.02437e-15
7.77938e-15
1.04966e-14
1.27515e-14
1.82259e-14
4.93738e-14
2.39027e-11
2.05991e-11
1.21398e-11
6.48382e-12
4.41334e-12
4.61518e-12
5.9012e-12
7.71222e-12
7.78888e-12
7.84038e-12
5.72082e-12
3.313e-12
1.26687e-12
2.618e-13
1.99434e-14
5.94916e-16
9.41802e-16
1.71995e-15
2.64565e-15
3.23244e-15
3.24821e-15
3.36899e-15
6.32226e-15
5.80517e-12
6.92179e-12
3.8013e-12
2.15534e-12
1.5374e-12
1.50119e-12
1.84548e-12
2.37939e-12
2.48807e-12
2.41517e-12
1.73984e-12
9.88267e-13
3.86148e-13
9.37972e-14
1.12381e-14
5.19785e-16
1.7089e-16
2.99135e-16
4.57257e-16
5.5865e-16
5.33326e-16
4.48909e-16
4.80798e-16
1.40696e-12
1.62162e-12
8.70554e-13
5.42732e-13
3.9782e-13
3.86924e-13
4.90567e-13
6.26612e-13
6.5514e-13
5.98919e-13
4.56507e-13
2.66153e-13
1.09761e-13
2.95563e-14
4.24007e-15
2.54646e-16
1.9952e-17
3.251e-17
5.3503e-17
7.26702e-17
7.80387e-17
7.66613e-17
8.60459e-17
2.34141e-13
2.52648e-13
1.30672e-13
8.26833e-14
6.01631e-14
6.20107e-14
8.95379e-14
1.22377e-13
1.33458e-13
1.19515e-13
9.22074e-14
5.51078e-14
2.29681e-14
5.95653e-15
7.41284e-16
2.62303e-17
1.01241e-18
2.265e-18
4.4487e-18
7.70512e-18
1.1364e-17
1.50384e-17
2.00659e-17
1.44041e-14
1.72342e-14
9.00536e-15
5.55737e-15
3.56147e-15
4.73171e-15
9.39657e-15
1.4552e-14
1.62293e-14
1.39671e-14
1.05161e-14
6.23078e-15
2.43344e-15
5.48317e-16
4.32487e-17
3.41821e-20
1.03118e-19
2.70973e-19
6.3733e-19
1.28895e-18
2.19792e-18
3.28853e-18
4.75228e-18
9.93575e-22
3.02223e-20
5.63504e-19
5.76422e-18
3.47595e-17
1.30845e-16
3.10577e-16
4.67551e-16
4.32435e-16
2.3877e-16
8.68093e-17
2.59755e-17
4.35546e-18
3.15328e-19
1.10899e-21
4.04238e-21
1.31851e-20
3.87096e-20
9.78234e-20
2.10812e-19
3.88371e-19
6.35381e-19
9.98066e-19
1.67517e-37
1.88159e-35
8.79034e-34
2.27415e-32
4.05408e-31
5.39542e-30
5.73768e-29
5.07594e-28
3.84457e-27
2.59653e-26
1.61897e-25
9.65191e-25
5.5556e-24
2.86949e-23
1.29786e-22
5.18324e-22
1.87934e-21
5.88813e-21
1.54968e-20
3.48792e-20
6.7768e-20
1.19168e-19
2.02337e-19
9.52233e-39
6.44302e-37
2.49554e-35
6.52022e-34
1.23173e-32
1.7932e-31
2.11973e-30
2.09758e-29
1.82557e-28
1.48675e-27
1.10403e-26
7.52739e-26
4.62485e-25
2.58153e-24
1.25781e-23
5.40385e-23
1.99149e-22
6.29838e-22
1.75065e-21
4.28196e-21
9.34651e-21
1.88064e-20
3.55657e-20
1.14087e-40
1.14143e-38
5.70979e-37
1.7083e-35
3.51846e-34
5.50582e-33
7.03107e-32
7.72089e-31
7.63774e-30
7.06023e-29
6.17827e-28
4.77488e-27
3.21344e-26
1.92558e-25
1.02875e-24
4.83423e-24
1.9229e-23
6.59061e-23
2.00267e-22
5.39985e-22
1.3092e-21
2.90924e-21
5.88659e-21
5.2142e-42
4.22416e-40
1.82249e-38
5.11169e-37
1.07768e-35
1.85262e-34
2.72975e-33
3.56349e-32
4.17964e-31
4.38913e-30
4.04968e-29
3.24719e-28
2.29803e-27
1.39664e-26
7.40916e-26
3.43048e-25
1.43498e-24
5.50458e-24
1.86942e-23
5.67966e-23
1.56338e-22
3.85065e-22
8.36188e-22
2.54557e-44
2.67294e-42
1.49203e-40
5.34537e-39
1.42424e-37
3.04177e-36
5.4905e-35
8.56185e-34
1.15345e-32
1.29998e-31
1.26349e-30
1.12664e-29
9.08512e-29
6.51944e-28
4.07801e-27
2.25186e-26
1.10031e-25
4.62507e-25
1.71423e-24
5.75426e-24
1.73509e-23
4.60503e-23
1.0932e-22
5.57985e-46
6.26475e-44
3.60764e-42
1.37401e-40
3.8981e-39
8.83525e-38
1.6562e-36
2.66499e-35
3.75491e-34
4.75912e-33
5.40621e-32
5.33549e-31
4.54622e-30
3.43791e-29
2.26802e-28
1.30403e-27
6.66311e-27
3.09958e-26
1.32172e-25
5.0044e-25
1.65989e-24
4.87013e-24
1.32823e-23
3.31069e-48
4.13534e-46
2.68198e-44
1.15198e-42
3.78451e-41
1.02643e-39
2.3695e-38
4.6744e-37
7.89121e-36
1.14887e-34
1.44958e-33
1.57398e-32
1.48482e-31
1.22142e-30
9.09463e-30
6.24017e-29
3.8421e-28
2.07916e-27
9.64531e-27
3.9082e-26
1.41501e-25
4.71509e-25
1.59354e-24
3.06252e-50
4.68634e-48
3.60278e-46
1.8275e-44
6.82639e-43
1.99418e-41
4.81158e-40
9.83426e-39
1.72348e-37
2.61552e-36
3.53153e-35
4.36765e-34
4.92987e-33
4.94055e-32
4.28146e-31
3.12702e-30
1.98562e-29
1.11917e-28
5.7214e-28
2.65468e-27
1.11238e-26
4.5292e-26
2.27007e-25
1.22065e-52
2.06704e-50
1.77638e-48
1.03105e-46
4.59785e-45
1.67093e-43
5.07424e-42
1.3102e-40
2.91899e-39
5.62484e-38
9.18439e-37
1.25681e-35
1.45707e-34
1.47298e-33
1.32897e-32
1.10176e-31
8.2996e-31
5.56405e-30
3.2652e-29
1.68939e-28
8.43708e-28
5.04934e-27
4.38286e-26
8.62213e-55
1.7339e-52
1.73159e-50
1.14678e-48
5.6381e-47
2.19794e-45
7.03168e-44
1.88422e-42
4.28753e-41
8.39788e-40
1.44814e-38
2.2535e-37
3.17468e-36
3.98892e-35
4.41806e-34
4.21741e-33
3.44551e-32
2.46556e-31
1.59727e-30
1.01704e-29
7.63049e-29
8.13531e-28
1.11047e-26
1.91259e-57
4.42967e-55
5.30524e-53
4.32099e-51
2.67219e-49
1.32563e-47
5.41635e-46
1.8515e-44
5.3569e-43
1.32181e-41
2.78318e-40
4.97917e-39
7.62627e-38
1.01212e-36
1.17525e-35
1.21238e-34
1.12681e-33
9.54494e-33
7.85283e-32
7.51278e-31
1.01814e-29
1.76083e-28
3.11388e-27
6.52104e-60
1.86973e-57
2.62748e-55
2.46534e-53
1.71925e-51
9.47742e-50
4.27695e-48
1.61391e-46
5.15754e-45
1.40886e-43
3.32177e-42
6.81697e-41
1.22649e-39
1.93839e-38
2.68679e-37
3.26893e-36
3.55052e-35
3.7279e-34
4.64318e-33
8.27854e-32
1.85157e-30
4.17324e-29
8.63842e-28
7.24736e-63
2.79463e-60
4.98613e-58
5.88638e-56
5.16143e-54
3.58304e-52
2.03928e-50
9.66041e-49
3.84675e-47
1.29614e-45
3.7096e-44
9.05096e-43
1.88739e-41
3.39033e-40
5.31902e-39
7.50609e-38
1.04201e-36
1.75359e-35
4.20383e-34
1.22893e-32
3.56542e-31
9.44164e-30
2.22907e-28
7.08091e-66
4.02963e-63
9.1983e-61
1.32451e-58
1.37707e-56
1.11209e-54
7.32164e-53
4.06377e-51
1.9381e-49
7.9647e-48
2.79571e-46
8.33621e-45
2.11638e-43
4.61406e-42
8.90125e-41
1.67684e-39
3.85147e-38
1.25093e-36
4.84161e-35
1.83252e-33
6.27823e-32
1.90734e-30
5.11799e-29
3.06381e-69
3.6691e-66
1.20991e-63
2.15726e-61
2.66562e-59
2.51632e-57
1.92983e-55
1.25975e-53
7.11971e-52
3.49766e-50
1.49498e-48
5.52853e-47
1.76134e-45
4.92428e-44
1.32712e-42
4.34776e-41
1.98788e-39
1.04957e-37
5.28894e-36
2.38039e-34
9.43098e-33
3.28496e-31
1.00631e-29
8.73681e-73
7.36611e-69
3.28668e-66
6.81488e-64
9.50359e-62
1.00162e-59
8.43989e-58
5.90105e-56
3.51873e-54
1.82382e-52
8.32879e-51
3.38056e-49
1.24688e-47
4.584e-46
2.10905e-44
1.3902e-42
1.06e-40
7.53435e-39
4.64092e-37
2.4607e-35
1.13277e-33
4.55541e-32
1.60383e-30
5.4816e-75
1.42169e-70
5.47044e-68
1.0321e-65
1.30929e-63
1.25327e-61
9.60664e-60
6.1238e-58
3.34478e-56
1.60672e-54
6.97189e-53
2.84867e-51
1.21647e-49
6.70409e-48
5.32598e-46
5.05074e-44
4.71568e-42
3.99788e-40
2.9774e-38
1.9093e-36
1.04677e-34
4.93898e-33
2.02441e-31
1.10759e-74
1.72312e-71
4.73535e-69
6.9349e-67
6.9455e-65
5.29637e-63
3.26324e-61
1.6903e-59
7.61492e-58
3.10402e-56
1.22813e-54
5.41503e-53
3.16459e-51
2.49946e-49
2.30299e-47
2.18425e-45
2.00689e-43
1.73885e-41
1.39974e-39
1.03014e-37
6.77339e-36
3.86669e-34
1.89506e-32
3.94883e-75
3.08993e-72
6.44619e-70
7.59532e-68
6.22526e-66
3.92487e-64
2.03394e-62
9.14962e-61
3.83186e-59
1.66952e-57
8.55932e-56
5.32646e-54
3.73711e-52
2.75228e-50
2.06736e-48
1.58026e-46
1.23163e-44
9.70252e-43
7.55919e-41
5.69604e-39
4.08442e-37
2.72456e-35
1.63669e-33
3.30071e-76
1.81296e-73
3.22773e-71
3.38947e-69
2.5289e-67
1.49251e-65
7.67981e-64
3.88104e-62
2.18264e-60
1.42663e-58
1.0198e-56
7.40856e-55
5.27321e-53
3.64389e-51
2.45195e-49
1.62e-47
1.06479e-45
7.08303e-44
4.8502e-42
3.4365e-40
2.48273e-38
1.79319e-36
1.26757e-34
3.30598e-78
1.61767e-75
3.01316e-73
3.62017e-71
3.51778e-69
3.26103e-67
3.12549e-65
3.03156e-63
2.82136e-61
2.44336e-59
1.95971e-57
1.4656e-55
1.03358e-53
6.96072e-52
4.52622e-50
2.86746e-48
1.78722e-46
1.10722e-44
6.89134e-43
4.36403e-41
2.85626e-39
1.95753e-37
1.39816e-35
9.94988e-81
4.49178e-78
8.64156e-76
1.11754e-73
1.22328e-71
1.31255e-69
1.42697e-67
1.50354e-65
1.47213e-63
1.31989e-61
1.08634e-59
8.28693e-58
5.92816e-56
4.0286e-54
2.64031e-52
1.69736e-50
1.08666e-48
7.03525e-47
4.69132e-45
3.30466e-43
2.55397e-41
2.28109e-39
2.42889e-37
0.0403344
0.0494623
0.0705819
0.0991494
0.544663
0.585085
0.638615
0.704064
0.965361
0.951946
0.931654
0.905454
0.850307
0.785419
0.716308
0.646109
0.436682
0.373456
0.300772
0.210288
0.0481773
0.0258866
0.00895545
0.00205133
4.52019e-06
1.4049e-06
3.1529e-07
8.13818e-08
1.90109e-08
8.28141e-09
1.55407e-08
1.32307e-08
4.27144e-11
2.22302e-11
1.45338e-10
4.00352e-10
1.56216e-12
1.04154e-12
1.48425e-12
2.27431e-11
8.14161e-13
6.9729e-13
4.38281e-12
3.96285e-11
3.53468e-13
1.03554e-12
4.00606e-12
1.74673e-11
5.34968e-13
1.62286e-12
4.43733e-12
1.07466e-11
1.96022e-13
4.70332e-13
1.03066e-12
2.08194e-12
2.04352e-14
4.46236e-14
9.40568e-14
1.94171e-13
1.11748e-15
2.74611e-15
7.56661e-15
2.20477e-14
1.41213e-16
3.1496e-16
1.05879e-15
4.18704e-15
3.22724e-17
7.65317e-17
3.22332e-16
1.57812e-15
8.07374e-18
2.11805e-17
1.02002e-16
5.56099e-16
1.83239e-18
5.20079e-18
2.85236e-17
1.77653e-16
4.01674e-19
1.21616e-18
7.17973e-18
4.85098e-17
7.00225e-20
1.88941e-19
1.16634e-18
9.21688e-18
1.16227e-20
2.7261e-20
1.58462e-19
1.36378e-18
1.72645e-21
3.49749e-21
1.62801e-20
1.41847e-19
2.56209e-22
5.35847e-22
1.92723e-21
1.29096e-20
3.95074e-23
1.05495e-22
3.8667e-22
1.82726e-21
7.08266e-24
2.68585e-23
1.1943e-22
5.51593e-22
1.67785e-24
8.45778e-24
4.39541e-23
2.21122e-22
4.83523e-25
2.94117e-24
1.7288e-23
9.6084e-23
1.55681e-25
1.07915e-24
7.05687e-24
4.3192e-23
5.08135e-26
3.94604e-25
2.86715e-24
1.9432e-23
1.6007e-26
1.38915e-25
1.12533e-24
8.49514e-24
4.66631e-27
4.53416e-26
4.10949e-25
3.47128e-24
1.21293e-27
1.32436e-26
1.34787e-25
1.27823e-24
2.71336e-28
3.34634e-27
3.84069e-26
4.10158e-25
4.9497e-29
6.93254e-28
9.00992e-27
1.08724e-25
7.23051e-30
1.16352e-28
1.73703e-27
2.40787e-26
8.03962e-31
1.52628e-29
2.67833e-28
4.34328e-27
8.51295e-32
1.95003e-30
4.08601e-29
7.81849e-28
8.22906e-33
2.3559e-31
6.16481e-30
1.46226e-28
9.94227e-34
3.23052e-32
9.91793e-31
2.83512e-29
2.47917e-35
1.05498e-33
4.07758e-32
1.42796e-30
0.324939
0.686661
0.81731
0.817528
0.817534
0.802048
0.716654
0.67546
0.560775
0.419005
0.29128
0.257301
0.147836
0.0337044
0.0132218
0.00808422
0.0109266
0.0141889
0.0230736
0.816122
0.811864
0.751637
0.701279
0.679843
0.696724
0.730229
0.729249
0.712591
0.646119
0.541394
0.484687
0.420164
0.365649
0.31142
0.173001
0.0508964
0.0164666
0.0324005
0.819898
0.679407
0.53116
0.406796
0.402819
0.459304
0.508202
0.547288
0.630857
0.657102
0.656993
0.647498
0.631212
0.632533
0.632068
0.506971
0.136697
0.0113495
0.0324046
0.509247
0.310048
0.117247
0.032148
0.0205499
0.0332872
0.0957768
0.256509
0.394316
0.442234
0.48267
0.51518
0.550952
0.600761
0.62661
0.606225
0.107428
0.010026
0.0148353
0.0880492
0.00878474
0.000234163
2.36069e-06
9.83378e-06
8.15823e-05
3.39465e-05
0.000969014
0.0112378
0.0787687
0.164934
0.244099
0.370316
0.429704
0.478596
0.588769
0.138694
0.0149
0.0273499
0.00019931
2.4989e-06
4.59273e-08
7.36258e-09
5.10196e-08
3.12908e-07
4.29845e-07
3.16658e-06
4.73862e-05
0.000562594
0.00279408
0.00949866
0.0648912
0.213586
0.425497
0.484862
0.342933
0.0219746
0.0713518
5.06016e-08
1.29045e-08
8.65937e-09
7.12386e-09
1.90832e-07
2.57377e-06
8.66851e-06
1.18629e-05
1.33366e-05
2.50117e-05
5.78686e-05
7.14678e-05
0.00107547
0.016161
0.165423
0.385839
0.384389
0.169271
0.227302
6.87419e-09
1.77274e-09
2.70214e-09
1.70632e-08
8.03039e-07
7.69181e-06
2.26219e-05
3.36289e-05
3.50374e-05
2.84409e-05
2.89893e-05
2.88022e-05
0.000160062
0.000314225
0.00991802
0.194297
0.347969
0.361892
0.314736
4.72598e-10
1.32394e-09
2.8639e-09
2.56593e-08
1.00734e-06
7.18517e-06
1.39487e-05
1.71851e-05
2.17053e-05
2.72253e-05
5.76089e-05
0.000128793
9.99749e-05
9.81563e-05
0.000178715
0.0208738
0.246297
0.362249
0.303101
3.05102e-10
2.11066e-09
3.97228e-09
1.39043e-08
1.41087e-07
6.337e-07
1.6227e-06
2.35354e-06
4.05038e-06
1.39695e-05
3.41165e-05
0.000190512
0.000417707
0.000262587
0.00017376
0.000676205
0.125446
0.325735
0.279664
3.47354e-10
1.52135e-09
2.65014e-09
3.83262e-09
5.10553e-09
4.35205e-09
1.31829e-08
6.85435e-08
1.75561e-06
2.27697e-05
7.45817e-05
0.000423024
0.000957774
0.000850741
0.000174156
0.000301216
0.0347465
0.245425
0.250549
1.3859e-10
4.45338e-10
9.47157e-10
1.71263e-09
1.27355e-09
7.25114e-10
6.59835e-10
5.49918e-09
1.32608e-06
4.63964e-05
0.000288576
0.000954675
0.00209305
0.0018453
0.000195367
0.000370415
0.0163814
0.186411
0.223302
2.34687e-11
7.09183e-11
1.65096e-10
3.09179e-10
5.11955e-10
7.23755e-10
6.44884e-10
2.44029e-09
9.87813e-07
5.88471e-05
0.000537713
0.00138806
0.00397378
0.00505148
0.00251238
0.00233558
0.0249624
0.168169
0.200457
3.96511e-12
1.12298e-11
2.88352e-11
6.27984e-11
1.23408e-10
2.78189e-10
5.41745e-10
7.78114e-10
3.00456e-07
4.13518e-05
0.000624826
0.00180749
0.0048907
0.0118827
0.0169334
0.0222585
0.0673281
0.156264
0.177197
3.97749e-13
1.32645e-12
4.3239e-12
1.32923e-11
3.8665e-11
1.26421e-10
2.84807e-10
4.36935e-10
2.66949e-08
1.22434e-05
0.000465659
0.00252734
0.00474919
0.0162492
0.0348297
0.0587142
0.0965091
0.136454
0.148724
6.51342e-14
3.36783e-13
1.55019e-12
6.14156e-12
2.10238e-11
6.43187e-11
2.02992e-10
3.12968e-10
1.41337e-09
1.44201e-06
0.000142691
0.00171276
0.00456519
0.0119327
0.0327124
0.0571181
0.0786498
0.0925651
0.100166
1.63742e-14
1.13474e-13
6.60879e-13
3.20319e-12
1.2792e-11
4.23192e-11
1.23649e-10
3.61343e-10
6.28749e-10
4.90328e-09
2.8009e-06
0.000218985
0.00239932
0.00618944
0.0127726
0.0269847
0.032083
0.0298848
0.0332104
7.27992e-15
5.77288e-14
3.71931e-13
1.97582e-12
8.54111e-12
2.89967e-11
9.40518e-11
2.34741e-10
7.78849e-10
2.23446e-09
3.25315e-09
7.61496e-07
7.81487e-05
0.00112163
0.00389848
0.00610495
0.00533375
0.00353017
0.00327263
2.78935e-15
2.43378e-14
1.76782e-13
1.07946e-12
5.41221e-12
2.20425e-11
7.37838e-11
1.99424e-10
5.01857e-10
1.34792e-09
1.61112e-09
1.97197e-09
2.84505e-07
2.27385e-05
0.000198764
0.00040728
0.000462881
5.41668e-05
3.16726e-05
1.01781e-15
1.03436e-14
8.70604e-14
6.03482e-13
3.41409e-12
1.57133e-11
5.92418e-11
1.81376e-10
4.86609e-10
1.25323e-09
2.36557e-09
1.18691e-09
8.60148e-10
2.13607e-08
3.77019e-07
1.23458e-06
1.57802e-06
4.26367e-08
2.85039e-09
3.05555e-16
3.51588e-15
3.45036e-14
2.81247e-13
1.87338e-12
1.02336e-11
4.56176e-11
1.61347e-10
4.76488e-10
1.38095e-09
2.72943e-09
1.63806e-09
6.23477e-10
5.63695e-10
1.25769e-09
1.5148e-09
5.00524e-10
3.06424e-11
2.35555e-11
6.95974e-17
9.77741e-16
1.15334e-14
1.1287e-13
9.12961e-13
6.11324e-12
3.31451e-11
1.39888e-10
4.54103e-10
1.37234e-09
2.97541e-09
2.769e-09
1.19175e-09
5.6537e-10
1.86874e-09
3.08175e-09
1.28498e-09
8.10921e-11
2.32199e-11
1.1722e-17
1.93901e-16
2.73785e-15
3.24654e-14
3.23726e-13
2.67505e-12
1.77919e-11
9.24333e-11
3.63976e-10
1.30065e-09
3.03505e-09
4.8163e-09
2.84499e-09
9.2515e-10
2.80274e-09
3.34483e-09
1.6296e-09
1.60765e-10
1.70169e-11
1.38056e-18
2.69666e-17
4.57029e-16
6.64851e-15
8.27979e-14
8.67211e-13
7.44823e-12
5.10687e-11
2.7008e-10
1.03455e-09
2.78378e-09
5.24971e-09
5.22398e-09
2.51271e-09
3.58756e-09
3.42198e-09
1.66925e-09
2.17773e-10
1.28221e-11
1.20536e-19
2.58262e-18
5.11937e-17
9.00476e-16
1.38036e-14
1.8133e-13
1.99265e-12
1.77624e-11
1.21104e-10
5.9336e-10
2.02632e-09
4.38607e-09
5.39408e-09
4.38624e-09
3.68091e-09
2.89754e-09
1.19832e-09
1.5656e-10
9.23417e-12
1.1327e-20
1.96087e-19
3.96117e-18
7.9086e-17
1.43387e-15
2.28133e-14
3.10851e-13
3.51386e-12
3.12727e-11
2.04085e-10
9.2869e-10
2.80515e-09
4.74447e-09
3.84255e-09
2.74874e-09
1.72368e-09
6.04392e-10
8.72485e-11
7.19751e-12
2.56395e-21
2.51946e-20
3.07274e-19
5.05906e-18
9.52991e-17
1.72329e-15
2.75661e-14
3.74805e-13
4.17346e-12
3.62942e-11
2.29112e-10
1.07175e-09
2.84009e-09
2.27949e-09
1.36303e-09
5.25862e-10
2.46864e-10
5.08411e-11
5.90525e-12
1.05528e-21
9.35138e-21
7.55694e-20
6.18683e-19
6.41512e-18
9.36722e-17
1.57179e-15
2.48067e-14
3.36464e-13
3.77297e-12
3.42391e-11
2.22355e-10
8.68752e-10
7.3225e-10
3.33985e-10
4.91055e-11
4.97295e-11
1.81855e-11
5.23431e-12
5.00328e-22
4.79374e-21
4.01324e-20
2.94095e-19
1.9243e-18
1.22711e-17
9.74366e-17
1.16499e-15
1.70094e-14
2.40235e-13
2.76452e-12
2.4146e-11
1.38188e-10
1.04836e-10
1.46411e-11
6.02923e-12
8.61771e-12
1.00782e-11
4.15216e-12
2.46563e-22
2.61425e-21
2.41109e-20
1.92843e-19
1.33377e-18
7.95494e-18
4.12465e-17
1.97337e-16
1.10618e-15
1.04813e-14
1.20268e-13
1.17998e-12
6.29101e-12
2.5218e-12
1.18433e-12
1.09783e-12
5.50571e-12
5.90692e-12
3.46727e-12
1.22599e-22
1.44827e-21
1.48826e-20
1.3259e-19
1.02096e-18
6.76369e-18
3.83835e-17
1.8605e-16
7.72454e-16
2.82473e-15
1.02153e-14
4.38658e-14
2.7096e-13
2.30172e-13
3.43164e-13
5.09335e-13
3.56862e-12
3.43436e-12
3.49955e-12
5.96995e-23
7.9391e-22
9.20034e-21
9.2665e-20
8.09114e-19
6.10176e-18
3.9605e-17
2.20723e-16
1.05508e-15
4.31837e-15
1.53762e-14
4.83898e-14
1.26654e-13
3.27061e-13
5.38448e-13
7.71697e-13
2.25954e-12
2.1066e-12
4.70116e-12
2.73198e-23
4.11098e-22
5.40594e-21
6.20164e-20
6.20619e-19
5.41519e-18
4.10808e-17
2.70184e-16
1.53005e-15
7.39117e-15
3.0287e-14
1.03899e-13
2.79807e-13
5.867e-13
8.05883e-13
9.85166e-13
1.62597e-12
2.04124e-12
5.93399e-12
1.12987e-23
1.92458e-22
2.8685e-21
3.75366e-20
4.3214e-19
4.37626e-18
3.89583e-17
3.03664e-16
2.04729e-15
1.16541e-14
5.40745e-14
1.94834e-13
5.06529e-13
8.90878e-13
1.04936e-12
1.22675e-12
1.63928e-12
2.34234e-12
6.59767e-12
4.07586e-24
7.8575e-23
1.33016e-21
1.97933e-20
2.59549e-19
3.01517e-18
3.12347e-17
2.88995e-16
2.35655e-15
1.62591e-14
8.8147e-14
3.37703e-13
8.13095e-13
1.20128e-12
1.33637e-12
1.50568e-12
1.8795e-12
2.6035e-12
6.66167e-12
1.22146e-24
2.67893e-23
5.11695e-22
8.49585e-21
1.22823e-19
1.55521e-18
1.74043e-17
1.73287e-16
1.5244e-15
1.14323e-14
6.79021e-14
2.86833e-13
7.71248e-13
1.28202e-12
1.53457e-12
1.70352e-12
1.85412e-12
2.63529e-12
6.27731e-12
3.1019e-25
7.77079e-24
1.67022e-22
3.06944e-21
4.81949e-20
6.47409e-19
7.4713e-18
7.45146e-17
6.44239e-16
4.77596e-15
2.92052e-14
1.37313e-13
4.55447e-13
9.92994e-13
1.41706e-12
1.60754e-12
1.26636e-12
2.06561e-12
5.57836e-12
6.49578e-26
1.87325e-24
4.55843e-23
9.32799e-22
1.60137e-20
2.29959e-19
2.75529e-18
2.75356e-17
2.30118e-16
1.61614e-15
9.5155e-15
4.58277e-14
1.72983e-13
5.02841e-13
9.48594e-13
1.12194e-12
8.32593e-13
1.43541e-12
4.67524e-12
1.36292e-26
4.53427e-25
1.2541e-23
2.87743e-22
5.45285e-21
8.48401e-20
1.07497e-18
1.09974e-17
9.03036e-17
5.95822e-16
3.18574e-15
1.39774e-14
5.15607e-14
1.79247e-13
4.08861e-13
6.13302e-13
4.92536e-13
9.05197e-13
3.64381e-12
3.12066e-27
1.25197e-25
4.10045e-24
1.09715e-22
2.39253e-21
4.22525e-20
5.97997e-19
6.68638e-18
5.81629e-17
3.88822e-16
1.98892e-15
7.84662e-15
2.47718e-14
6.61152e-14
1.526e-13
3.38878e-13
3.19743e-13
6.85919e-13
2.55207e-12
7.45137e-28
3.78759e-26
1.56601e-24
5.2106e-23
1.38606e-21
2.92947e-20
4.86898e-19
6.27275e-18
6.17176e-17
4.56758e-16
2.50235e-15
1.01371e-14
3.01533e-14
6.82852e-14
1.12235e-13
1.54881e-13
2.22488e-13
5.82582e-13
1.62089e-12
4.51908e-29
2.83549e-27
1.4494e-25
5.96724e-24
1.96862e-22
5.18639e-21
1.0836e-19
1.77241e-18
2.2199e-17
2.05926e-16
1.3509e-15
6.0648e-15
1.86143e-14
3.31715e-14
5.28487e-14
4.85794e-15
1.7536e-13
3.51195e-13
8.92715e-13
)
;

boundaryField
{
    leftWall
    {
        type            zeroGradient;
    }
    rightWall
    {
        type            zeroGradient;
    }
    lowerWall
    {
        type            zeroGradient;
    }
    atmosphere
    {
        type            inletOutlet;
        inletValue      uniform 0;
        value           nonuniform List<scalar> 
46
(
0
0
0
0
0
0
0
0
0
0
0
0
0
0
0
0
0
0
0
0
0
0
2.42889e-37
2.47917e-35
1.05498e-33
4.07758e-32
1.42796e-30
4.51908e-29
2.83549e-27
1.4494e-25
5.96724e-24
1.96862e-22
5.18639e-21
1.0836e-19
1.77241e-18
2.2199e-17
2.05926e-16
1.3509e-15
6.0648e-15
1.86143e-14
3.31715e-14
5.28487e-14
0
1.7536e-13
0
0
)
;
    }
    defaultFaces
    {
        type            empty;
    }
}


// ************************************************************************* //
