/*--------------------------------*- C++ -*----------------------------------*\
| =========                 |                                                 |
| \\      /  F ield         | OpenFOAM: The Open Source CFD Toolbox           |
|  \\    /   O peration     | Version:  2.4.0                                 |
|   \\  /    A nd           | Web:      www.OpenFOAM.org                      |
|    \\/     M anipulation  |                                                 |
\*---------------------------------------------------------------------------*/
FoamFile
{
    version     2.0;
    format      ascii;
    class       volScalarField;
    location    "0.6";
    object      alpha.air;
}
// * * * * * * * * * * * * * * * * * * * * * * * * * * * * * * * * * * * * * //

dimensions      [0 0 0 0 0 0 0];

internalField   nonuniform List<scalar> 
2268
(
7.0284e-13
8.55826e-13
4.84123e-13
1.11357e-12
9.44482e-13
6.21024e-13
6.99739e-13
7.35978e-13
7.92455e-13
5.27565e-13
2.72173e-13
1.4803e-13
1.01964e-13
8.23322e-14
6.75272e-14
5.12258e-14
3.45113e-14
2.0203e-14
1.0778e-14
6.0372e-15
3.92228e-15
1.99439e-15
5.77651e-16
8.14506e-12
9.25039e-12
6.47707e-12
1.08053e-11
9.77841e-12
7.66714e-12
8.32371e-12
8.24149e-12
7.79611e-12
5.19372e-12
2.84187e-12
1.56689e-12
9.84416e-13
6.94916e-13
5.02762e-13
3.52903e-13
2.27445e-13
1.34249e-13
7.37032e-14
4.56656e-14
2.90219e-14
1.21851e-14
4.28763e-15
4.32397e-11
4.45284e-11
3.92398e-11
4.70103e-11
4.5204e-11
4.2035e-11
4.24264e-11
4.01778e-11
3.4054e-11
2.41399e-11
1.55594e-11
9.01551e-12
5.20889e-12
3.24725e-12
2.07898e-12
1.32989e-12
8.03838e-13
4.5712e-13
2.61756e-13
1.75637e-13
1.19625e-13
5.26839e-14
2.19485e-14
1.47316e-10
1.56655e-10
1.47554e-10
1.65346e-10
1.66492e-10
1.53342e-10
1.47276e-10
1.34816e-10
1.20649e-10
8.79616e-11
5.68569e-11
3.49044e-11
1.51877e-11
8.02827e-12
5.25907e-12
3.23527e-12
1.94324e-12
1.14501e-12
7.07311e-13
5.14204e-13
3.38725e-13
1.37323e-13
4.51969e-14
2.44687e-10
2.62332e-10
2.6713e-10
2.72126e-10
2.70891e-10
2.2414e-10
1.95366e-10
1.78475e-10
1.62184e-10
1.631e-10
1.54218e-10
1.33938e-10
1.06062e-10
4.50304e-11
1.51673e-11
8.10697e-12
4.27706e-12
2.3619e-12
1.44959e-12
1.06711e-12
6.76596e-13
2.5062e-13
7.4306e-14
5.69239e-11
5.69531e-11
5.72283e-11
8.29946e-11
6.36909e-11
4.45917e-11
4.65047e-11
5.17513e-11
6.3341e-11
9.44344e-11
8.81418e-11
7.8268e-11
4.40845e-11
3.9645e-11
2.67479e-11
1.47778e-11
7.20378e-12
3.82634e-12
2.43473e-12
1.74724e-12
1.02952e-12
3.70714e-13
8.32175e-14
5.6904e-11
5.73323e-11
5.82275e-11
6.53143e-11
5.2733e-11
4.55358e-11
7.08651e-11
1.17404e-10
3.96691e-10
7.46844e-10
9.09665e-10
1.03081e-09
5.58981e-10
1.23516e-10
5.32451e-11
2.72035e-11
1.28201e-11
5.77303e-12
3.57735e-12
2.30579e-12
1.30964e-12
5.47501e-13
1.1401e-13
5.4817e-11
5.43933e-11
5.39646e-11
5.35502e-11
5.31514e-11
3.88181e-10
5.63278e-10
5.45296e-10
8.6757e-10
1.28134e-09
1.8243e-09
2.57616e-09
2.29355e-09
6.03765e-10
9.27618e-11
2.84919e-11
4.93559e-12
4.81059e-12
3.806e-12
2.3663e-12
1.52089e-12
1.25403e-12
3.41946e-13
4.2555e-06
4.25552e-06
4.21782e-06
4.11495e-06
6.94464e-06
1.63894e-05
1.66549e-05
2.1488e-05
7.54204e-05
0.000173171
0.000173171
0.000116447
7.73512e-05
6.32421e-05
4.88112e-05
1.17253e-05
1.13547e-05
1.63071e-05
3.06623e-05
5.87401e-05
0.000127588
1.48855e-05
1.11389e-06
1.04578e-06
1.04388e-06
1.04495e-06
1.04407e-06
1.11155e-06
2.76888e-06
0.000104473
0.000339213
0.000340424
0.00027675
0.000228223
0.000915403
0.00111035
0.000254779
3.6609e-05
0.000387309
0.00703736
0.000410087
1.04362e-05
1.31973e-06
1.0451e-06
1.04407e-06
1.04564e-06
1.04537e-06
1.04651e-06
5.97233e-06
0.000217746
0.000341296
0.000342428
0.00102042
0.00165636
0.00166899
0.000282304
7.52042e-05
0.000180314
0.0189544
0.00628211
0.000822919
0.000464793
3.81293e-05
1.7792e-06
1.04537e-06
1.04767e-06
1.04628e-06
1.04721e-06
2.56347e-05
0.0001359
0.000189686
0.000336671
0.00129358
0.00132184
0.00067495
0.000278283
5.23459e-05
0.0148339
0.0348917
0.0205347
0.0269049
0.00559275
0.000193563
2.11004e-06
1.04739e-06
1.04862e-06
1.0469e-06
1.88165e-06
2.86959e-05
7.80503e-05
8.39119e-05
0.000292917
0.00032878
0.000967729
0.000451685
5.33912e-05
0.00344729
0.0461606
0.0963757
0.113888
0.0957417
0.00693422
0.000149846
1.89344e-05
2.57888e-06
1.05103e-06
1.28207e-06
0.000101396
8.39478e-05
9.00989e-05
9.6787e-05
0.000124824
0.000962403
0.000587575
0.00432789
0.00581436
0.00823544
0.0581802
0.113266
0.11497
0.0473348
0.00419253
0.000162301
3.50616e-05
5.67997e-06
1.35002e-05
8.90258e-05
0.075354
0.0109568
0.000399266
0.000131301
0.000748065
0.00202466
0.0316991
0.00554418
0.000699528
0.00693121
0.0605689
0.113324
0.112246
0.020128
0.000483119
3.29906e-05
3.49045e-05
0.000624492
0.012109
0.721779
0.327863
0.00145657
0.000170054
0.00031596
0.00573958
2.15091e-08
2.21484e-08
1.16165e-08
4.87363e-09
3.43139e-09
9.64041e-09
2.41369e-09
1.19441e-09
1.10251e-09
1.38206e-09
2.13747e-09
3.34519e-09
4.48633e-09
5.22039e-09
3.99955e-09
1.18646e-09
3.58018e-10
7.45714e-11
9.83551e-12
8.71369e-12
6.36761e-12
4.32484e-12
4.68979e-12
2.97491e-07
2.77476e-07
2.05206e-07
1.57807e-07
5.78939e-08
3.16221e-08
1.16497e-08
4.63103e-09
2.58494e-09
1.80764e-09
1.83168e-09
1.89388e-09
2.62833e-09
6.62394e-09
1.06194e-08
1.02872e-08
5.17253e-09
1.45049e-09
1.02384e-09
5.23369e-10
2.29242e-10
8.88916e-10
8.92365e-09
7.70688e-07
6.86183e-07
6.87788e-07
8.68886e-07
2.03094e-06
2.85112e-06
7.1982e-07
3.71407e-07
2.13283e-07
1.24388e-07
5.15827e-08
9.55512e-09
4.23471e-09
4.8576e-09
5.49338e-09
7.19843e-09
6.85615e-09
5.23092e-09
3.51477e-09
2.66846e-09
4.13132e-08
2.12934e-07
2.08171e-06
8.03147e-07
1.71954e-05
0.000697679
0.0013908
0.00182657
0.000899163
0.000195672
0.000186963
0.000125944
0.000108137
5.85438e-05
1.61831e-05
7.39018e-07
3.72765e-08
7.71666e-09
6.80669e-09
6.84012e-09
1.34104e-08
8.45194e-09
8.29346e-08
9.35923e-07
8.18116e-06
0.000110618
0.249626
0.236564
0.194272
0.175376
0.203173
0.0960158
0.0467542
0.0583166
0.0577241
0.0511264
0.0358877
0.0178223
0.00441426
0.000589681
2.27961e-05
2.90272e-06
4.76315e-06
4.09393e-05
0.000117126
0.000486124
0.00165155
0.00634041
0.0256877
0.975675
0.978171
0.98378
0.982625
0.981247
0.93647
0.857983
0.790495
0.64666
0.47594
0.309285
0.191259
0.092304
0.0416559
0.0295202
0.0180198
0.0200317
0.028627
0.0431105
0.0816068
0.139606
0.206605
0.346837
0.999997
0.999975
0.999974
0.999931
0.999932
0.999988
0.999998
0.999997
0.999996
0.999866
0.996837
0.973715
0.888285
0.747694
0.638852
0.564288
0.532095
0.521641
0.534422
0.693874
0.788416
0.914751
0.985009
0.999999
0.999999
0.999999
0.999999
0.999999
0.999999
0.999999
1
1
0.999999
0.999999
0.999999
0.999999
0.999999
0.999995
0.999969
0.999822
0.99959
0.999613
0.999985
0.999999
1
1
0.999999
0.999999
0.999999
0.999999
0.999999
0.999999
1
1
1
0.999999
0.999999
0.999999
0.999999
0.999999
0.999999
0.999999
1
1
1
1
1
1
0.999999
0.999999
0.999998
0.999998
0.999999
0.999999
0.999999
0.999999
1
0.999999
0.999999
0.999999
0.999999
0.999999
0.999999
0.999999
0.999999
0.999999
1
1
1
1
1
0.999999
0.999998
0.999998
0.999998
0.999999
0.999999
0.999999
0.999999
0.999999
0.999999
0.999999
0.999999
0.999999
0.999999
0.999999
0.999999
0.999999
0.999999
1
1
1
1
1
0.999999
0.999998
0.999998
0.999998
0.999999
0.999999
0.999999
0.999999
0.999999
0.999999
0.999999
0.999999
0.999999
0.999999
0.999999
0.999999
1
1
1
1
1
1
1
0.999999
0.999998
0.999998
0.999999
0.999999
0.999999
0.999999
0.999999
0.999999
0.999999
0.999999
0.999999
0.999999
0.999999
0.999999
1
1
1
1
1
1
1
1
0.999999
0.999998
0.999999
0.999999
0.999999
0.999999
0.999999
0.999999
1
1
1
1
1
0.999999
0.999999
1
1
1
1
1
1
1
1
0.999999
0.999999
0.999999
0.999999
0.999999
0.999999
0.999999
1
1
1
1
1
1
0.999999
0.999999
1
1
1
1
1
1
1
1
0.999999
0.999999
0.999999
0.999999
0.999999
0.999999
0.999999
1
1
1
1
1
1
0.999999
0.999999
1
1
1
1
1
1
1
1
0.999998
0.999999
0.999999
0.999999
0.999999
0.999999
1
1
1
1
1
1
1
0.999999
0.999999
0.999999
0.999999
1
1
1
1
1
0.999999
0.999999
0.999999
0.999999
0.999999
0.999999
1
1
1
1
1
1
1
1
1
0.999999
0.999999
0.999999
1
1
1
1
1
1
0.999999
0.999999
0.999999
0.999999
0.999999
1
1
1
1
1
1
1
1
0.999999
0.999999
0.999999
0.999999
1
1
1
1
1
1
1
0.999999
0.999999
0.999999
0.999999
1
1
1
1
1
1
1
1
1
0.999999
0.999999
0.999999
0.999999
0.999999
1
1
1
1
1
0.999999
0.999999
0.999999
1
1
1
1
1
1
1
1
1
1
0.999999
0.999999
0.999999
0.999999
0.999999
0.999999
0.999999
1
1
1
0.999999
0.999999
0.999999
1
1
1
1
1
1
1
1
1
1
0.999999
0.999999
0.999999
0.999999
0.999999
0.999999
0.999999
0.999999
0.999999
0.999999
0.999999
0.999999
1
1
1
1
1
1
1
1
1
1
1
1
0.999999
0.999999
0.999999
0.999999
0.999998
0.999998
0.999998
0.999999
0.999999
0.999999
0.999999
1
1
1
1
1
1
1
1
1
1
1
1
1
0.999999
0.999999
0.999999
0.999998
0.999998
0.999998
0.999998
0.999998
0.999999
1
1
1
1
1
1
1
1
1
1
1
1
1
0.999999
1
0.999999
0.999999
0.999998
0.999998
0.999998
0.999998
0.999998
0.999999
1
1
1
1
1
1
1
1
1
1
1
1
1
1
0.999999
0.999999
0.999999
0.999999
0.999998
0.999998
0.999997
0.999998
1
1
1
1
1
1
1
1
1
1
1
1
1
1
1
1
0.999999
0.999999
0.999999
0.999998
0.999998
0.999998
0.999997
1
1
1
1
1
1
1
1
1
1
1
1
1
1
1
1
1
0.999999
0.999999
0.999999
0.999998
0.999998
0.999997
1
1
1
1
1
1
1
1
1
1
1
1
1
1
1
1
1
0.999999
0.999999
0.999999
0.999999
0.999998
0.999997
1
1
1
1
1
1
1
1
1
1
1
1
1
1
1
1
1
1
0.999999
0.999999
0.999999
0.999998
0.999998
1
1
1
1
1
1
1
1
1
1
1
1
1
1
1
1
1
1
1
0.999999
0.999999
0.999999
0.999998
1
1
1
1
1
1
1
1
1
1
1
1
1
1
1
1
1
1
1
1
0.999999
0.999999
0.999999
1
1
1
1
1
1
1
1
1
1
1
1
1
1
1
1
1
1
1
1
1
0.999999
0.999999
1
1
1
1
1
1
1
1
1
1
1
1
1
1
1
0.999999
0.999999
0.999999
1
1
1
0.999999
0.999999
1
1
1
1
1
1
1
1
1
1
1
1
1
1
1
1
0.999999
0.999999
0.999999
1
1
1
0.999999
1
1
1
1
1
1
1
1
1
1
1
1
1
1
1
0.999999
0.999999
0.999999
0.999999
1
1
1
0.999999
1
1
1
1
1
1
1
1
1
1
1
1
1
1
0.999999
1
0.999999
0.999999
0.999999
1
1
1
0.999999
1
1
1
1
1
1
1
1
1
1
1
1
1
1
1
0.999999
0.999999
0.999999
1
1
1
1
1
1
1
1
1
1
1
1
1
1
1
1
1
1
1
1
1
1
1
1
1
1
1
1
1
1
1
1
1
1
1
1
1
1
1
1
1
1
1
1
1
1
1
1
1
1
1
1
1
1
1
1
1
1
1
1
1
1
1
1
1
1
1
1
1
1
1
1
1
1
1
1
1
1
1
1
1
1
1
1
1
1
1
1
1
1
1
1
1
1
1
1
1
4.0958e-11
3.06869e-10
2.93806e-09
3.60815e-07
5.40508e-08
3.86858e-07
1.08042e-06
2.6851e-06
7.08907e-06
1.20251e-05
1.5215e-05
2.75608e-05
0.000433355
0.000968697
0.00280777
0.00823401
0.0534876
0.0870718
0.158819
0.251423
0.487166
0.598897
0.763639
0.927069
0.998901
0.999893
0.999993
1
1
1
1
1
1
1
1
1
1
1
1
1
1
1
1
1
1
1
1
0.999999
1
0.999999
0.999999
0.999999
0.999999
0.999999
0.999999
0.999999
0.999999
0.999998
0.999998
0.999998
0.999999
0.999997
0.999997
0.999998
0.999998
0.999998
0.999998
0.999998
1
1
0.999999
0.999999
1
1
0.999999
0.999999
1
1
0.999999
0.999999
1
1
0.999999
0.999999
1
1
0.999999
0.999999
1
0.999999
0.999999
0.999999
0.999999
0.999999
0.999999
0.999998
0.999999
0.999998
0.999998
0.999998
0.999998
0.999998
0.999998
0.999998
0.999998
0.999998
0.999997
0.999997
0.999997
0.999997
0.999997
0.999997
0.999998
0.999997
0.999997
0.999997
0.999997
0.999997
0.999997
0.999997
0.999998
0.999997
0.999997
0.999997
0.999998
0.999997
0.999997
0.999997
0.999999
0.999998
0.999997
0.999997
0.999999
0.999998
0.999998
0.999997
0.999999
0.999999
0.999998
0.999998
0.999999
0.999999
0.999998
0.999998
1
0.999999
0.999999
0.999999
1
1
0.999999
0.999999
1
0.999999
0.999999
0.999999
0.999999
0.999999
0.999999
0.999999
1
1
1
1
1
1
1
1
7.45587e-05
0.000163463
0.00024914
0.00098339
0.00788289
0.0437202
0.113973
0.0610534
0.00522022
6.30254e-05
1.62549e-05
0.00161624
0.346858
0.761552
0.753901
0.126164
0.00215059
0.000607556
0.00804305
6.93389e-05
0.000220003
0.000972637
0.00213449
0.00206873
0.00189673
0.00727295
0.0194661
0.00781329
0.00046496
1.62526e-05
0.000593857
0.21924
0.308351
0.384954
0.323136
0.0207805
0.0260904
0.0508068
0.00055786
0.0110212
0.0630507
0.119928
0.122715
0.064948
0.0146821
0.00862905
0.00430998
0.000546776
1.96933e-05
0.000367168
0.0192289
0.0171678
0.0162917
0.147813
0.266953
0.506825
0.305215
0.055087
0.25457
0.544473
0.809414
0.809529
0.646869
0.31953
0.157742
0.0199248
0.000622534
1.90878e-05
5.34872e-05
0.000428349
0.000202353
0.000201394
0.0763687
0.754248
0.922062
0.692145
0.490099
0.823124
0.986961
0.999545
0.998323
0.990368
0.980997
0.773744
0.460164
0.312528
0.226679
0.147184
0.021496
0.000678381
0.000198957
0.0181529
0.790932
0.924463
0.826179
0.991989
0.999909
0.999995
0.999557
0.995835
0.992064
0.987739
0.986301
0.979776
0.975435
0.958541
0.880957
0.685524
0.216459
0.0138724
0.0156537
0.494557
0.922961
0.716655
1
1
1
0.998506
0.950574
0.826685
0.690265
0.614455
0.606233
0.671139
0.845089
0.976706
0.976598
0.887915
0.318454
0.0202784
0.205104
0.751809
0.396251
1
1
0.999993
0.995722
0.870645
0.402839
0.106174
0.0544237
0.0480011
0.0521997
0.138622
0.65996
0.964294
0.96418
0.829426
0.211658
0.0873461
0.302659
0.0920549
1
0.999999
0.999988
0.994962
0.844783
0.295039
0.023321
0.00141281
0.000651311
0.000268065
0.00106462
0.0709079
0.643276
0.951725
0.947205
0.571629
0.0847448
0.0349125
0.00542415
1
0.999999
0.999998
0.99923
0.967159
0.743369
0.279683
0.0365878
0.00104943
0.000248474
0.000225259
0.00262235
0.157852
0.836369
0.945772
0.901137
0.205349
0.0103567
0.000134767
0.999999
0.999999
0.999999
0.999996
0.999533
0.984741
0.820078
0.322578
0.0285634
0.000659519
0.000225718
0.000374207
0.0325302
0.470621
0.943733
0.941607
0.429729
0.0197294
0.00023153
0.999999
0.999999
0.999999
1
1
0.999893
0.988645
0.80435
0.238317
0.0118057
0.000281811
0.000397239
0.0274339
0.386194
0.941705
0.940019
0.578205
0.0307909
0.00019927
0.999999
0.999999
0.999999
0.999999
1
1
0.999742
0.974443
0.662866
0.0991777
0.0023294
0.000361216
0.0142006
0.248159
0.816951
0.875015
0.415926
0.0160471
0.000106057
0.999999
0.999998
0.999999
0.999999
0.999999
1
0.999998
0.997829
0.895292
0.341349
0.0165205
0.000500881
0.00193637
0.0539616
0.259608
0.351411
0.0886015
0.00260358
5.9658e-05
0.999998
0.999998
0.999998
0.999998
0.999998
1
1
0.999803
0.968885
0.609736
0.0731149
0.00124398
0.000234505
0.0015618
0.0136792
0.0217165
0.00310671
0.000130789
4.97235e-05
0.999998
0.999997
0.999998
0.999998
0.999999
0.999999
1
0.999986
0.993069
0.81563
0.252411
0.0129068
0.000210163
5.65856e-05
6.90036e-05
0.000134976
3.72047e-05
3.57811e-05
3.55953e-05
0.999998
0.999998
0.999997
0.999998
0.999998
1
0.999999
0.999999
0.999836
0.973996
0.692626
0.186235
0.0114825
8.82532e-05
3.49438e-05
3.47901e-05
3.51265e-05
3.61749e-05
3.5812e-05
0.999998
0.999997
0.999997
0.999997
0.999998
0.999998
1
0.999999
0.999994
0.999045
0.9864
0.875556
0.459758
0.0717234
0.0107892
0.00112188
0.000214057
0.000640842
0.00101026
0.999998
0.999998
0.999997
0.999997
0.999998
0.999999
0.999999
1
1
0.999996
0.999697
0.994571
0.966746
0.827581
0.639614
0.493437
0.370403
0.217666
0.0829762
0.999999
0.999998
0.999997
0.999997
0.999998
0.999998
0.999999
1
1
1
0.999999
0.999906
0.999168
0.996679
0.990033
0.978222
0.968371
0.895426
0.444783
0.999999
0.999998
0.999998
0.999998
0.999998
0.999998
0.999999
1
1
1
1
1
0.999998
0.999995
0.999988
0.999972
0.999933
0.980704
0.42109
0.999999
0.999998
0.999998
0.999998
0.999998
0.999998
0.999999
1
1
1
1
1
1
1
1
1
1
0.999905
0.367186
0.999999
0.999998
0.999998
0.999998
0.999998
0.999999
0.999999
1
1
1
1
1
1
1
1
1
1
0.999985
0.528346
0.999999
0.999998
0.999998
0.999998
0.999998
0.999999
0.999999
1
1
1
1
1
1
1
1
1
1
0.999993
0.59344
0.999998
0.999998
0.999998
0.999998
0.999998
0.999999
0.999999
1
1
1
1
1
1
1
1
1
1
0.999996
0.597585
0.999998
0.999998
0.999998
0.999998
0.999998
0.999999
0.999999
1
1
1
1
1
1
1
1
1
1
0.999997
0.664951
0.999997
0.999997
0.999997
0.999998
0.999998
0.999999
0.999999
1
1
1
1
1
1
1
1
1
1
0.999998
0.764786
0.999997
0.999997
0.999997
0.999998
0.999998
0.999999
0.999999
0.999999
1
1
1
1
1
1
1
1
1
0.999972
0.863898
0.999997
0.999997
0.999997
0.999998
0.999998
0.999999
0.999999
0.999999
1
1
1
1
1
1
1
1
1
0.999737
0.950029
0.999997
0.999997
0.999997
0.999998
0.999998
0.999999
0.999999
0.999999
0.999999
1
1
1
1
1
1
1
1
0.999285
0.989109
0.999997
0.999997
0.999997
0.999998
0.999998
0.999999
0.999999
0.999999
0.999999
1
1
1
1
0.999999
0.999975
0.999994
0.999994
0.99912
0.99895
0.999997
0.999997
0.999997
0.999998
0.999998
0.999999
0.999999
0.999999
0.999999
1
1
1
1
0.999985
0.999912
0.999988
0.999976
0.999817
0.999811
0.999997
0.999997
0.999997
0.999998
0.999998
0.999999
0.999999
0.999999
0.999999
1
1
1
0.999999
0.999964
0.999805
0.999979
0.999977
0.999839
0.997178
0.999998
0.999997
0.999998
0.999998
0.999999
0.999999
0.999999
0.999999
0.999999
0.999999
1
1
1
0.999988
0.999798
0.99897
0.99823
0.980915
0.871481
0.999998
0.999998
0.999998
0.999998
0.999999
0.999999
0.999999
0.999999
0.999999
0.999999
1
1
1
1
0.999906
0.99412
0.910223
0.651868
0.30631
0.999998
0.999998
0.999998
0.999999
0.999999
0.999999
0.999999
0.999999
0.999999
1
1
1
1
1
0.999915
0.990171
0.787149
0.227659
0.0206747
0.999999
0.999999
0.999999
0.999999
0.999999
0.999999
0.999999
0.999999
0.999999
0.999999
1
1
1
1
0.999965
0.995768
0.875009
0.223259
0.0141736
0.999999
0.999999
0.999999
0.999999
0.999999
0.999999
0.999999
0.999999
0.999999
0.999999
1
1
1
1
0.999996
0.999727
0.991992
0.646625
0.0141735
0.999999
0.999999
0.999999
0.999999
0.999999
0.999999
0.999999
0.999999
0.999999
0.999999
0.999999
1
1
1
0.999999
0.999996
0.999944
0.919882
0.0208601
0.999999
0.999999
0.999999
0.999999
0.999999
0.999999
0.999999
0.999999
0.999999
0.999999
0.999999
0.999999
0.999999
0.999999
0.999999
1
0.999998
0.98445
0.158502
1
1
0.999999
0.999999
0.999999
0.999999
0.999999
0.999999
0.999999
0.999999
0.999999
0.999999
1
1
1
1
1
0.998565
0.60513
1
1
1
1
1
1
0.999999
0.999999
0.999999
0.999999
0.999999
1
1
1
1
1
1
0.999968
0.972141
)
;

boundaryField
{
    leftWall
    {
        type            alphaContactAngle;
        thetaProperties 6 ( ( water mercury ) 90 0 0 0 ( water air ) 90 0 0 0 ( water oil ) 90 0 0 0 ( mercury air ) 90 0 0 0 ( oil mercury ) 90 0 0 0 ( oil air ) 90 0 0 0 );
        value           nonuniform List<scalar> 
50
(
7.0284e-13
8.14506e-12
4.32397e-11
1.47316e-10
2.44687e-10
5.69239e-11
5.6904e-11
5.4817e-11
2.15091e-08
2.97491e-07
7.70688e-07
8.03147e-07
0.249626
0.975675
0.999997
0.999999
0.999999
0.999999
0.999998
0.999998
0.999998
0.999998
0.999999
0.999999
0.999999
0.999999
0.999999
0.999999
0.999999
0.999999
0.999999
0.999999
0.999999
0.999999
1
1
1
1
1
1
1
1
1
1
1
1
1
1
1
1
)
;
    }
    rightWall
    {
        type            alphaContactAngle;
        thetaProperties 6 ( ( water mercury ) 90 0 0 0 ( water air ) 90 0 0 0 ( water oil ) 90 0 0 0 ( mercury air ) 90 0 0 0 ( oil mercury ) 90 0 0 0 ( oil air ) 90 0 0 0 );
        value           nonuniform List<scalar> 
50
(
3.06623e-05
3.6609e-05
7.52042e-05
0.000278283
0.000451685
0.000587575
0.00202466
0.00573958
0.00804305
0.0508068
0.305215
0.692145
0.826179
0.716655
0.396251
0.0920549
0.00542415
0.000134767
0.00023153
0.00019927
0.000106057
5.9658e-05
4.97235e-05
3.55953e-05
3.5812e-05
0.00101026
0.0829762
0.444783
0.42109
0.367186
0.528346
0.59344
0.597585
0.664951
0.764786
0.863898
0.950029
0.989109
0.99895
0.999811
0.997178
0.871481
0.30631
0.0206747
0.0141736
0.0141735
0.0208601
0.158502
0.60513
0.972141
)
;
    }
    lowerWall
    {
        type            alphaContactAngle;
        thetaProperties 6 ( ( water mercury ) 90 0 0 0 ( water air ) 90 0 0 0 ( water oil ) 90 0 0 0 ( mercury air ) 90 0 0 0 ( oil mercury ) 90 0 0 0 ( oil air ) 90 0 0 0 );
        value           nonuniform List<scalar> 
62
(
7.0284e-13
8.55826e-13
4.84123e-13
1.11357e-12
9.44482e-13
6.21024e-13
6.99739e-13
7.35978e-13
7.92455e-13
5.27565e-13
2.72173e-13
1.4803e-13
1.01964e-13
8.23322e-14
6.75272e-14
5.12258e-14
3.45113e-14
2.0203e-14
1.0778e-14
6.0372e-15
3.92228e-15
1.99439e-15
5.77651e-16
5.77651e-16
4.28763e-15
2.19485e-14
4.51969e-14
7.4306e-14
8.32175e-14
1.1401e-13
3.41946e-13
4.0958e-11
3.06869e-10
2.93806e-09
3.60815e-07
4.2555e-06
5.87401e-05
0.000387309
0.000180314
5.23459e-05
5.33912e-05
0.00432789
0.0316991
4.2555e-06
4.25552e-06
4.21782e-06
4.11495e-06
6.94464e-06
1.63894e-05
1.66549e-05
2.1488e-05
7.54204e-05
0.000173171
0.000173171
0.000116447
7.73512e-05
6.32421e-05
4.88112e-05
1.17253e-05
1.13547e-05
1.63071e-05
3.06623e-05
)
;
    }
    atmosphere
    {
        type            inletOutlet;
        inletValue      uniform 1;
        value           nonuniform List<scalar> 
46
(
1
1
1
1
1
1
1
1
1
1
1
1
1
1
1
1
1
1
1
1
1
1
1
1
1
1
1
1
1
1
1
1
1
0.999999
0.999999
0.999999
0.999999
0.999999
1
1
1
1
1
1
1
1
)
;
    }
    defaultFaces
    {
        type            empty;
    }
}


// ************************************************************************* //
