/*--------------------------------*- C++ -*----------------------------------*\
| =========                 |                                                 |
| \\      /  F ield         | OpenFOAM: The Open Source CFD Toolbox           |
|  \\    /   O peration     | Version:  2.4.0                                 |
|   \\  /    A nd           | Web:      www.OpenFOAM.org                      |
|    \\/     M anipulation  |                                                 |
\*---------------------------------------------------------------------------*/
FoamFile
{
    version     2.0;
    format      ascii;
    class       volScalarField;
    location    "0.6";
    object      p;
}
// * * * * * * * * * * * * * * * * * * * * * * * * * * * * * * * * * * * * * //

dimensions      [1 -1 -2 0 0 0 0];

internalField   nonuniform List<scalar> 
2268
(
3766.91
3764.61
3757.19
3756.7
3744.56
3737.89
3740.24
3748.99
3777.01
3843.74
3949.19
4096.93
4335.02
4714.24
5211.14
5805.41
6412.19
6963.38
7369.57
7669.68
7883.97
8019.18
8085.07
2961.66
2957.57
2945.97
2947.53
2933.56
2915.92
2912.1
2913.58
2935.46
2970.07
3040.12
3204.42
3476.95
3873.87
4384.33
4995.95
5616.92
6167.57
6587.04
6887.31
7105.52
7239.23
7302.56
2223.98
2219.3
2219.36
2207.62
2198.19
2195.1
2193.23
2200.89
2226.12
2301.39
2412.33
2543.64
2685.23
3028.2
3529.34
4184.26
4839.4
5420.21
5826.37
6129.86
6344.55
6460.52
6536.02
1242.36
1234.67
1236.37
1221.04
1212.81
1202.81
1187.5
1187.38
1193.69
1223.43
1274.48
1384.59
1676.37
2125.73
2671.87
3348.77
4047.68
4655.45
5081.09
5382.95
5594.64
5721.38
5785.15
808.719
808.264
808.764
805.858
805.968
806.198
802.611
804.502
810.59
821.594
840.815
877.554
957.426
1076.42
1572.89
2495.5
3282.87
3920.05
4354.22
4655.91
4863.03
4987.45
5048.29
802.44
803.174
799.537
801.299
800.928
799.57
802.637
808.515
818.222
830.118
842.866
854.322
860.149
871.525
991.182
1479.02
2536.52
3210.23
3652.25
3956.23
4152.71
4269.1
4324.58
726.261
725.359
724.608
722.099
721.08
720.686
719.068
721.673
727.819
738.827
753.191
774.142
801.009
834.431
860.576
955.238
1762.07
2528.09
2960.71
3250.99
3453.72
3564.42
3615.45
664.203
663.694
662.389
660.805
659.262
658.297
656.932
659.271
665.839
676.952
691.101
709.515
731.607
762.311
802.868
821.358
1074.65
1867.32
2328.09
2635.19
2765.45
2870.97
2918.45
2601.68
2963.28
3964.76
4340.75
3956.3
3323.86
2765.29
2429.11
2243.41
2123.22
2112.87
2132.68
2194.02
2373.31
2611.28
2953.47
3492.47
3594.32
4002.65
2338.88
2496.29
3165.2
3510.36
3143.88
2592.93
2155.89
1856.84
1640.98
1464.12
1345.46
1302.47
1365.45
1468.26
1537.39
1646.16
1969.51
2543.2
3244.65
2296.93
2402.3
2702.6
2895.3
2630.18
2220.82
1905.08
1656.21
1463.37
1295.57
1161.84
1130.75
1170.32
1199.21
1156.19
1189.46
1421.91
1947.88
2896.82
2217.8
2199.41
2260.8
2271.09
2058.59
1751.87
1524.84
1335.7
1186.64
1055.36
983.989
998.951
1024.91
1016.28
985.472
1048.61
1208.57
1445.79
2290.97
2083.89
1962.9
1793.03
1571.46
1403.9
1183.57
1067.69
963.668
879.739
827.023
841.59
875.353
889.404
858.253
873.244
988.095
1135.89
1142.29
1767.37
1797.83
1649.23
1306.97
1033.38
881.844
786.551
698.208
652.495
642.69
680.29
734.499
765.064
767.091
732.047
793.368
931.316
1070.51
962.091
1416.01
1222.46
1231.79
904.471
767.947
678.215
622.907
590.455
587.121
562.788
591.139
634.278
668.881
660.463
594.358
711.696
871.233
990.521
832.398
1207.99
618.486
800.807
651.594
602.154
582.87
552.077
539.354
548.222
550.224
520.708
525.526
548.656
561.833
576.715
641.376
807.372
907.9
720.137
1081.18
575.865
574.825
572.968
570.243
566.926
563.815
560.881
562.158
568.627
581.192
598.003
616.457
638.282
661.203
682.294
699.714
610.225
758.754
1081.31
1362.5
1635
1745.58
1803.22
445.699
444.163
441.425
436.94
431.086
424.949
416.453
413.825
417.008
425.712
436.69
459.109
480.909
502.688
512.892
507.361
450.818
372.82
290.212
268.72
392.591
438.33
463.656
308.037
307.868
308.264
307.161
300.475
289.885
269.142
262.655
269.918
285.395
308.098
329.527
349.68
367.205
373.954
366.884
333.954
259.324
184.692
165.594
161.601
172.261
164.051
219.693
215.823
213.373
209.075
190.084
180.646
155.155
141.001
145.638
153.888
165.643
180.543
197.392
217.767
236.222
245.397
243.056
226.431
200.555
172.5
158.222
145.282
129.515
29.9701
30.2166
29.7617
27.3848
20.7133
32.2554
29.8111
33.7284
46.6971
63.9294
82.9569
101.709
116.277
125.714
131.23
130.446
135.321
123.805
109.07
95.1081
83.6138
72.5349
56.5463
5.05353
4.76067
4.63675
4.60632
4.60306
4.91062
5.17303
5.0885
5.0618
8.25612
13.9508
22.7595
28.5037
32.4811
36.3431
40.9196
47.2251
45.736
41.4431
30.6484
23.6361
19.5439
14.462
4.99561
5.02376
5.10104
5.11655
4.94964
4.65747
4.63928
4.7495
4.67828
4.45027
4.3676
4.54688
4.96523
5.24525
4.60659
7.45462
10.8831
12.5507
11.6672
5.62793
4.11504
4.41846
4.52621
4.65342
4.67602
4.74538
4.80253
4.77082
4.60004
4.52702
4.70631
4.75112
4.89338
4.96618
4.83437
4.686
4.56431
4.52903
4.3228
4.14792
4.09318
4.13843
4.39976
4.5776
4.71958
4.93137
4.71518
4.60918
4.67528
4.68911
4.63341
4.51406
4.45324
4.50997
4.45727
4.35373
4.40273
4.47669
4.54028
4.61847
4.71275
4.88716
4.97713
5.01644
5.01689
4.87584
4.63167
4.60006
4.66518
4.52576
4.47329
4.47939
4.47684
4.47407
4.39981
4.38788
4.41312
4.4195
4.43485
4.44694
4.41834
4.41884
4.39675
4.37415
4.35887
4.34292
4.32991
4.32219
4.33746
4.38538
4.45522
4.52786
4.37354
4.36453
4.3632
4.35685
4.34344
4.30886
4.30611
4.32697
4.3232
4.31817
4.31264
4.31733
4.32166
4.33025
4.35304
4.37692
4.38984
4.39677
4.40405
4.40562
4.39415
4.39466
4.40986
4.23533
4.22731
4.21511
4.20787
4.20039
4.18561
4.1851
4.19385
4.19008
4.19037
4.19914
4.20196
4.19802
4.19743
4.19894
4.20172
4.20324
4.20197
4.19696
4.19233
4.19692
4.21294
4.23449
4.09174
4.08991
4.08273
4.07512
4.06727
4.058
4.05754
4.0581
4.05848
4.05981
4.06724
4.07073
4.06842
4.0671
4.06844
4.07007
4.06984
4.06867
4.06805
4.07048
4.07565
4.08302
4.09208
3.94584
3.94097
3.93788
3.93437
3.92996
3.92543
3.92408
3.92363
3.92397
3.92531
3.92772
3.92945
3.92953
3.92913
3.92914
3.92972
3.93016
3.93002
3.93001
3.93147
3.93434
3.938
3.94182
3.80453
3.80332
3.79946
3.79593
3.79253
3.78958
3.78815
3.78758
3.78773
3.78859
3.78998
3.79104
3.79136
3.79143
3.79136
3.79128
3.79129
3.7912
3.79128
3.79169
3.79252
3.79348
3.79392
3.66296
3.66191
3.65965
3.65721
3.65479
3.65274
3.65146
3.65085
3.65079
3.65125
3.65194
3.65246
3.65265
3.65275
3.65266
3.65245
3.65213
3.65154
3.65105
3.65046
3.6498
3.649
3.64751
3.52229
3.52153
3.52005
3.51835
3.51663
3.51517
3.51411
3.5135
3.51328
3.51342
3.5137
3.51394
3.51395
3.51378
3.51348
3.51304
3.51239
3.51135
3.51018
3.50887
3.50732
3.50529
3.50247
3.38224
3.38171
3.38072
3.37953
3.37829
3.37718
3.3763
3.3757
3.37537
3.37528
3.37529
3.37527
3.37513
3.37482
3.37433
3.37363
3.37262
3.37123
3.36956
3.36758
3.36517
3.36225
3.35865
3.24267
3.24229
3.2416
3.24074
3.23981
3.23892
3.23816
3.23757
3.23716
3.23689
3.23669
3.23645
3.23611
3.23557
3.2348
3.23381
3.23248
3.23078
3.22871
3.22621
3.22327
3.2198
3.21567
3.10344
3.10316
3.10265
3.102
3.10127
3.10055
3.09988
3.0993
3.09881
3.09838
3.09798
3.09752
3.09695
3.09618
3.0952
3.09392
3.09232
3.09041
3.08806
3.08524
3.08192
3.07804
3.07346
2.96444
2.96423
2.96384
2.96333
2.96274
2.96213
2.96152
2.96093
2.96038
2.95983
2.95925
2.95859
2.95787
2.95689
2.95572
2.95426
2.95249
2.95035
2.94775
2.94469
2.94107
2.93691
2.93201
2.82562
2.82546
2.82515
2.82472
2.82423
2.82368
2.82311
2.82252
2.82191
2.82127
2.82057
2.81975
2.81895
2.81778
2.81644
2.81481
2.81288
2.81052
2.80778
2.80456
2.80076
2.79636
2.79127
2.68696
2.68682
2.68656
2.6862
2.68575
2.68525
2.6847
2.6841
2.68346
2.68276
2.682
2.68112
2.68008
2.67883
2.67735
2.67561
2.67354
2.67105
2.6682
2.66484
2.66094
2.65643
2.65122
2.54843
2.54831
2.54808
2.54775
2.54735
2.54687
2.54633
2.54573
2.54505
2.54431
2.54345
2.54247
2.54135
2.54002
2.53845
2.53661
2.53444
2.53193
2.52895
2.52552
2.5216
2.51706
2.51183
2.41001
2.4099
2.40969
2.40939
2.40901
2.40855
2.40802
2.40741
2.40672
2.40593
2.40503
2.404
2.40281
2.40142
2.39981
2.39791
2.3957
2.39315
2.39017
2.38678
2.38285
2.37836
2.3732
2.27169
2.27159
2.27141
2.2711
2.27075
2.2703
2.26977
2.26916
2.26846
2.26766
2.26674
2.26569
2.26447
2.26305
2.26139
2.25946
2.25725
2.25471
2.25182
2.24847
2.24464
2.24025
2.23527
2.13347
2.13337
2.1332
2.13292
2.13257
2.13213
2.13161
2.131
2.1303
2.12949
2.12854
2.12747
2.12624
2.12482
2.12317
2.1213
2.11913
2.11663
2.11379
2.11053
2.10685
2.10267
2.09795
1.99534
1.99524
1.99507
1.99481
1.99447
1.99405
1.99354
1.99294
1.99224
1.99143
1.9905
1.98943
1.9882
1.9868
1.9852
1.98335
1.98123
1.97883
1.9761
1.97304
1.96955
1.9656
1.96119
1.85728
1.85719
1.85703
1.85678
1.85646
1.85605
1.85556
1.85497
1.85428
1.85349
1.85258
1.85153
1.85033
1.84896
1.84739
1.84561
1.84362
1.84135
1.83878
1.83587
1.8326
1.82896
1.8249
1.71931
1.71923
1.71907
1.71884
1.71853
1.71813
1.71765
1.71708
1.71642
1.71565
1.71477
1.71376
1.71261
1.7113
1.70983
1.70815
1.70624
1.70409
1.70168
1.699
1.69601
1.69268
1.689
1.58142
1.58134
1.5812
1.58097
1.58067
1.58029
1.57983
1.57929
1.57866
1.57793
1.57709
1.57612
1.57503
1.57379
1.57239
1.57081
1.56904
1.56707
1.56486
1.56241
1.55969
1.55669
1.55341
1.4436
1.44353
1.44339
1.44318
1.4429
1.44254
1.44211
1.44159
1.44099
1.4403
1.4395
1.4386
1.43758
1.43643
1.43514
1.43368
1.43206
1.43025
1.42825
1.42604
1.42361
1.42094
1.41805
1.30585
1.30578
1.30566
1.30546
1.30519
1.30486
1.30445
1.30397
1.30341
1.30276
1.30202
1.30119
1.30025
1.2992
1.29801
1.29669
1.29523
1.29361
1.29181
1.28985
1.2877
1.28537
1.28285
1.16817
1.16811
1.168
1.16781
1.16756
1.16725
1.16687
1.16642
1.16591
1.16531
1.16463
1.16388
1.16302
1.16207
1.16101
1.15983
1.15853
1.15709
1.15552
1.1538
1.15193
1.14992
1.14777
1.03055
1.03049
1.03039
1.03021
1.02999
1.0297
1.02935
1.02894
1.02847
1.02793
1.02733
1.02665
1.02588
1.02504
1.02411
1.02307
1.02193
1.02069
1.01933
1.01786
1.01627
1.01456
1.01275
0.893001
0.892947
0.892848
0.892686
0.892478
0.892216
0.8919
0.89153
0.891105
0.890623
0.890082
0.88948
0.888815
0.888083
0.887276
0.88639
0.885422
0.884371
0.883227
0.881994
0.880672
0.879261
0.877767
0.7555
0.75545
0.75536
0.755213
0.755024
0.754788
0.754505
0.754175
0.753799
0.753375
0.752903
0.752382
0.751812
0.751188
0.750509
0.749771
0.748974
0.748108
0.74718
0.746185
0.745118
0.743982
0.742788
0.618026
0.617979
0.6179
0.617771
0.617605
0.617398
0.617152
0.616868
0.616545
0.616183
0.615782
0.615344
0.614871
0.614361
0.61381
0.613215
0.612576
0.611896
0.611174
0.610402
0.609584
0.608715
0.607779
0.480552
0.480513
0.480447
0.480338
0.480198
0.480026
0.479824
0.479591
0.479329
0.479038
0.478721
0.478376
0.478003
0.477601
0.477171
0.476716
0.476238
0.475736
0.475209
0.474653
0.474064
0.473444
0.472779
0.343099
0.343054
0.342999
0.342913
0.342804
0.342671
0.342515
0.342337
0.342141
0.341927
0.341697
0.34145
0.341186
0.340904
0.340604
0.340291
0.339966
0.33963
0.33929
0.338953
0.338628
0.338272
0.337754
0.205763
0.205717
0.205671
0.205607
0.205528
0.205433
0.205323
0.205199
0.205062
0.204912
0.204754
0.204588
0.204415
0.204238
0.204058
0.203879
0.203707
0.203542
0.203388
0.20325
0.203154
0.203187
0.202691
0.0687126
0.0687263
0.0687044
0.0686558
0.0685868
0.0684994
0.0683971
0.0682835
0.068163
0.0680387
0.0679143
0.0677938
0.0676816
0.0675847
0.0675112
0.0674561
0.0674122
0.0673765
0.0673442
0.067306
0.0672337
0.0670435
0.0673634
1729.29
1610.77
1406.5
1088.61
430.175
396.101
337.889
266.226
150.934
145.547
140.415
132.275
112.68
100.082
87.3632
72.413
44.3823
36.4501
27.0657
20.1977
11.0697
8.54751
5.65831
5.16948
4.60151
4.7188
4.93148
5.08125
5.02997
5.03535
5.01108
4.99909
4.70987
4.73664
4.76681
4.80212
4.5719
4.59883
4.62306
4.6439
4.42844
4.43894
4.44691
4.45326
4.24968
4.25804
4.2647
4.26892
4.09748
4.1
4.10127
4.10078
3.94313
3.94327
3.94247
3.94036
3.79294
3.79178
3.78982
3.78698
3.64535
3.64352
3.64114
3.63814
3.4995
3.49728
3.49468
3.49166
3.35525
3.35282
3.3501
3.34707
3.21192
3.2093
3.20644
3.20335
3.06945
3.0667
3.06371
3.06054
2.9278
2.92491
2.92178
2.91842
2.78685
2.78382
2.78062
2.7772
2.64671
2.64362
2.64038
2.6369
2.50737
2.50431
2.50105
2.49759
2.36884
2.36585
2.36268
2.35932
2.2311
2.22823
2.2252
2.22199
2.09402
2.09135
2.08851
2.08552
1.95756
1.9551
1.9525
1.94977
1.8216
1.81937
1.81703
1.81458
1.68604
1.68406
1.68198
1.67982
1.55079
1.54904
1.54723
1.54535
1.41576
1.41424
1.41268
1.41107
1.28088
1.27958
1.27825
1.27688
1.14609
1.14499
1.14387
1.14273
1.01135
1.01043
1.00951
1.00856
0.876617
0.875868
0.875104
0.874333
0.741858
0.741257
0.740658
0.740053
0.607076
0.606618
0.606156
0.605693
0.472259
0.471923
0.471586
0.471248
0.337392
0.337163
0.336936
0.336711
0.202459
0.202326
0.202202
0.202079
0.0673914
0.0673867
0.0673706
0.0673491
455.312
407.574
397.305
405.032
422.573
447.434
449.614
443.619
452.148
470.354
476.414
489.933
502.102
547.235
589.663
676.904
779.587
584.939
958.281
179.424
183.466
219.059
245.542
273.009
299.64
312.961
321.213
334.354
356.481
393.728
427.115
435.567
448.957
476.96
508.749
551.033
390.314
738.316
111.622
84.3756
68.8283
56.694
65.2482
90.5428
147.336
179.636
209.138
231.648
255.186
281.548
313.046
331.571
320.118
296.461
254.918
229.635
399.971
46.2162
27.9446
16.0894
9.31184
6.69686
5.53029
19.1987
39.6364
69.5029
87.6494
108.152
137.886
167.495
202.527
229.198
201.519
207.845
207.379
238.065
11.2044
6.35907
5.33318
5.30426
4.98159
3.74425
2.06519
-0.481354
-1.43548
-15.2598
-26.111
-21.396
6.84434
102.283
158.319
180.711
196.945
200.508
207.868
5.16937
5.4176
5.65449
5.65681
5.21223
3.89525
0.588551
-5.05408
-12.6328
-20.5304
-28.6266
-40.4687
-50.1189
-31.0529
74.738
137.497
177.762
193.657
198.743
5.29695
5.37125
5.42696
5.75963
4.6276
0.17356
-4.71841
-8.58596
-17.333
-28.5191
-42.8613
-52.5107
-58.5174
-60.4948
-34.0159
61.1667
138.05
179.099
188.451
5.04166
5.15538
5.28802
5.49261
4.15182
-2.32875
-8.01594
-13.4979
-23.908
-38.3972
-53.1809
-63.9775
-64.0962
-68.3303
-70.4315
-36.5245
55.9684
132.558
156.881
4.86498
4.94399
4.98958
4.93397
4.33448
3.61748
-0.768612
-11.0694
-29.4109
-51.3789
-74.3772
-81.4717
-77.6046
-77.485
-82.0429
-77.2517
-24.2959
48.7872
90.2207
4.67149
4.68855
4.65883
4.5177
4.22451
4.10843
1.88561
-10.6924
-31.2434
-58.8126
-90.3048
-114.373
-104.965
-89.8427
-91.2362
-92.4696
-70.6916
-12.779
34.933
4.46024
4.4492
4.39993
4.2784
4.07857
3.98885
3.60348
-2.47284
-24.5909
-58.5823
-96.5577
-132.785
-137.558
-112.499
-98.9546
-97.3864
-87.7567
-46.8448
10.5869
4.27048
4.25156
4.20441
4.11675
3.99058
3.87283
3.81774
2.92722
-10.3303
-46.9561
-90.1022
-138.591
-160.868
-132.344
-103.406
-100.151
-94.7111
-71.2446
5.87971
4.09654
4.0757
4.03622
3.97436
3.89532
3.81393
3.73686
3.74113
-0.461566
-25.4985
-72.2932
-128.269
-171.855
-144.63
-107.001
-101.715
-92.9044
-52.0011
34.9441
3.93434
3.91589
3.88581
3.84483
3.79768
3.75374
3.72655
3.7936
2.96163
-11.9158
-52.0524
-99.873
-162.574
-165.503
-116.235
-99.5587
-78.6991
9.40904
85.4861
3.78077
3.76572
3.74424
3.71878
3.69469
3.68011
3.6833
3.73955
3.75747
-2.07227
-23.2295
-60.2776
-117.391
-155.239
-126.027
-82.972
-1.52558
103.945
178.808
3.63211
3.61986
3.60499
3.5902
3.58081
3.58484
3.61049
3.68661
3.80713
2.4035
-6.03776
-25.3988
-53.8451
-81.5621
-60.3016
0.0751942
105.886
225.927
294.303
3.48597
3.47603
3.46527
3.4561
3.4531
3.46192
3.49016
3.54006
3.61055
3.38987
1.7256
-1.60809
-4.07365
-4.24979
7.58656
62.1336
155.133
279.646
350.681
3.34162
3.33286
3.32378
3.31643
3.31385
3.31936
3.33714
3.36612
3.37137
3.31989
3.23292
2.10744
-1.10736
5.1939
19.837
71.185
143.238
240.163
317.982
3.19793
3.18936
3.18047
3.17272
3.16728
3.16532
3.16714
3.17488
3.15623
3.07782
2.89511
2.71701
2.65642
2.55493
2.82621
4.80453
12.7271
60.182
159.584
3.05494
3.04602
3.03644
3.02675
3.01713
3.00752
2.99648
2.98558
2.94747
2.87065
2.7459
2.55488
2.40648
2.33351
2.3555
2.4134
2.54849
4.09499
30.7142
2.91251
2.90306
2.89246
2.88074
2.86721
2.85106
2.83023
2.80444
2.74632
2.6624
2.56012
2.38539
2.33374
2.27481
2.26512
2.38836
2.47175
2.16862
4.15064
2.77105
2.76109
2.74952
2.73606
2.71966
2.69884
2.67119
2.63362
2.56209
2.47666
2.32948
2.17418
2.21939
2.147
2.08485
2.13583
2.28897
2.14857
2.5681
2.63063
2.62042
2.60835
2.59383
2.57598
2.55292
2.52158
2.47573
2.40134
2.33787
2.09938
2.0076
2.12351
2.08004
2.02172
2.07702
2.20702
2.1349
2.14668
2.49139
2.48117
2.46909
2.45451
2.43657
2.41368
2.3832
2.34028
2.27969
2.20519
1.96565
1.98346
2.08041
2.07023
2.02422
2.04542
2.139
2.12979
2.2512
2.35329
2.3434
2.33179
2.31792
2.30111
2.28028
2.25381
2.21947
2.17507
2.11038
1.98501
2.01107
2.05169
2.08734
2.06664
2.06986
2.14431
2.13506
2.43867
2.21629
2.20701
2.19623
2.18361
2.16873
2.15104
2.12989
2.10473
2.07509
2.03789
1.99412
2.02058
2.07547
2.11917
2.10075
2.06852
2.10595
2.10097
2.29445
2.08024
2.07176
2.06208
2.05103
2.03843
2.02418
2.00835
1.99144
1.97469
1.96126
1.96138
1.99764
2.06891
2.09074
2.06025
2.02886
2.04551
2.05069
2.14168
1.94498
1.93741
1.92894
1.91955
1.90926
1.89826
1.88705
1.87665
1.86904
1.86852
1.88155
1.9171
1.97417
1.99097
1.96541
1.95522
1.97129
1.99413
1.98342
1.81031
1.80369
1.79645
1.78866
1.78048
1.77225
1.76464
1.75877
1.75653
1.76121
1.77707
1.80714
1.84844
1.86283
1.85732
1.86677
1.89404
1.9657
1.90666
1.67607
1.67038
1.6643
1.65795
1.65156
1.64551
1.64048
1.63745
1.63797
1.64423
1.65882
1.68227
1.71422
1.72717
1.74402
1.77309
1.83393
1.96611
1.95656
1.54211
1.53729
1.53225
1.52714
1.52219
1.51778
1.51448
1.51299
1.51452
1.52053
1.53216
1.54934
1.57368
1.58772
1.61889
1.67414
1.79664
1.97944
1.98822
1.40831
1.40427
1.40016
1.39607
1.39225
1.38902
1.38682
1.38611
1.38761
1.39222
1.39984
1.41001
1.42663
1.43187
1.46848
1.57594
1.77793
1.99974
2.0066
1.27456
1.27122
1.26792
1.26462
1.26168
1.2593
1.25778
1.25743
1.25858
1.26146
1.26545
1.26891
1.27052
1.26319
1.28099
1.44
1.76154
2.04103
1.99526
1.14079
1.13802
1.13525
1.13275
1.13051
1.12873
1.12763
1.1274
1.12814
1.12964
1.13035
1.12579
1.10918
1.08637
1.10064
1.26517
1.74396
2.01043
2.02648
1.00696
1.00472
1.00253
1.00053
0.998783
0.997424
0.996597
0.996441
0.997106
0.998671
1.00046
1.00033
0.987444
0.919608
0.839861
0.794843
1.27177
1.87399
2.26794
0.873049
0.871259
0.869532
0.867941
0.866552
0.865445
0.864693
0.864349
0.864459
0.864975
0.865106
0.863314
0.851289
0.786823
0.588795
0.340366
0.282455
1.49883
2.63461
0.739038
0.73763
0.736278
0.735019
0.73389
0.732913
0.732079
0.731309
0.730435
0.729035
0.725689
0.718365
0.699583
0.618692
0.399134
0.104307
-0.136855
0.250695
3.57641
0.604915
0.603839
0.602801
0.601816
0.600884
0.59998
0.599013
0.597774
0.595884
0.5926
0.586041
0.572799
0.549357
0.473636
0.304101
0.0779588
-0.00177973
0.0137679
2.32134
0.470683
0.4699
0.46914
0.468398
0.467654
0.466842
0.465825
0.464322
0.461854
0.457632
0.450074
0.435773
0.415602
0.368902
0.278605
0.156579
0.136645
-0.0779997
1.54101
0.336335
0.335817
0.33531
0.3348
0.334257
0.333604
0.332694
0.331255
0.328833
0.324746
0.318099
0.30649
0.29343
0.264403
0.215806
0.136842
0.164559
-0.0800872
1.12272
0.201875
0.201596
0.201321
0.201041
0.200727
0.200318
0.199688
0.198647
0.196867
0.193867
0.18931
0.181728
0.173994
0.156201
0.136518
0.0634055
0.0471313
-0.0787579
0.109546
0.0673066
0.0672354
0.067162
0.0670855
0.0669971
0.0668774
0.0666974
0.0663828
0.0658122
0.0648128
0.0630167
0.0592381
0.0565466
0.0370322
0.041714
-0.0199773
-0.0674716
-0.0750183
-0.0947314
)
;

boundaryField
{
    leftWall
    {
        type            fixedFluxPressure;
        gradient        uniform 0;
        value           nonuniform List<scalar> 
50
(
3766.91
2961.66
2223.98
1242.36
808.719
802.44
726.261
664.203
575.865
445.699
308.037
219.693
29.9701
5.05353
4.99561
4.65342
4.71518
4.52576
4.37354
4.23533
4.09174
3.94584
3.80453
3.66296
3.52229
3.38224
3.24267
3.10344
2.96444
2.82562
2.68696
2.54843
2.41001
2.27169
2.13347
1.99534
1.85728
1.71931
1.58142
1.4436
1.30585
1.16817
1.03055
0.893001
0.7555
0.618026
0.480552
0.343099
0.205763
0.0687126
)
;
    }
    rightWall
    {
        type            fixedFluxPressure;
        gradient        uniform 0;
        value           nonuniform List<scalar> 
50
(
4002.65
3244.65
2896.82
2290.97
1767.37
1416.01
1207.99
1081.18
958.281
738.316
399.971
238.065
207.868
198.743
188.451
156.881
90.2207
34.933
10.5869
5.87971
34.9441
85.4861
178.808
294.303
350.681
317.982
159.584
30.7142
4.15064
2.5681
2.14668
2.2512
2.43867
2.29445
2.14168
1.98342
1.90666
1.95656
1.98822
2.0066
1.99526
2.02648
2.26794
2.63461
3.57641
2.32134
1.54101
1.12272
0.109546
-0.0947314
)
;
    }
    lowerWall
    {
        type            fixedFluxPressure;
        gradient        nonuniform List<scalar> 
62
(
132719
132719
132719
132719
132719
132719
132719
132719
132719
132719
132719
132719
132719
132719
132719
132719
132719
132719
132719
132719
132719
132719
132719
0
0
0
0
0
0
0
0
106923
101952
91494
79717.7
0
0
0
0
0
0
0
0
6412.38
8900.44
11575.6
11265.7
11572.9
11808.5
11867
12029.6
12917.5
15889.8
18624.2
19235.5
19208.4
19437.1
19660.1
20094.8
20826.6
19783.5
18938.5
)
;
        value           nonuniform List<scalar> 
62
(
4165.06
4162.76
4155.34
4154.85
4142.71
4136.04
4138.39
4147.14
4175.16
4241.89
4347.34
4495.08
4733.17
5112.39
5609.29
6203.56
6810.34
7361.53
7767.72
8067.83
8282.12
8417.33
8483.21
8085.07
7302.56
6536.02
5785.15
5048.29
4324.58
3615.45
2918.45
2411.56
2261.32
1990.32
1597.28
2601.68
2338.88
2296.93
2217.8
2083.89
1797.83
1222.46
618.486
2620.92
2989.98
3999.49
4374.55
3991.02
3359.28
2800.89
2465.2
2282.17
2170.89
2168.74
2190.38
2251.64
2431.62
2670.26
3013.76
3554.95
3653.67
4059.46
)
;
    }
    atmosphere
    {
        type            totalPressure;
        U               U.air;
        phi             phi.air;
        rho             rho;
        psi             none;
        gamma           1;
        p0              uniform 0;
        value           nonuniform List<scalar> 
46
(
-0.000211318
-0.000272703
-0.000295899
-0.000329817
-0.000374467
-0.000427018
-0.000485704
-0.000547587
-0.000609543
-0.000667943
-0.000719349
-0.000760565
-0.000787945
-0.000796509
-0.000781682
-0.000743644
-0.000684799
-0.000608009
-0.000517782
-0.000421936
-0.000331105
-0.00026211
0
0
0
0
0
0
0
0
0
0
0
0
0
0
0
0
0
0
0
0
-0.041587
-0.0777404
-0.0579807
-0.118165
)
;
    }
    defaultFaces
    {
        type            empty;
    }
}


// ************************************************************************* //
