/*--------------------------------*- C++ -*----------------------------------*\
| =========                 |                                                 |
| \\      /  F ield         | OpenFOAM: The Open Source CFD Toolbox           |
|  \\    /   O peration     | Version:  2.4.0                                 |
|   \\  /    A nd           | Web:      www.OpenFOAM.org                      |
|    \\/     M anipulation  |                                                 |
\*---------------------------------------------------------------------------*/
FoamFile
{
    version     2.0;
    format      ascii;
    class       surfaceScalarField;
    location    "0.6";
    object      phi.air;
}
// * * * * * * * * * * * * * * * * * * * * * * * * * * * * * * * * * * * * * //

dimensions      [0 3 -1 0 0 0 0];

internalField   nonuniform List<scalar> 
4432
(
2.28521e-06
-2.28523e-06
4.82714e-06
-2.54194e-06
6.43086e-06
-1.60373e-06
9.24195e-06
-2.81112e-06
1.18094e-05
-2.56746e-06
1.349e-05
-1.68066e-06
1.54193e-05
-1.92923e-06
1.72626e-05
-1.84335e-06
1.97621e-05
-2.49953e-06
2.14964e-05
-1.73441e-06
2.19431e-05
-4.4665e-07
2.15401e-05
4.03185e-07
1.9843e-05
1.69752e-06
1.74016e-05
2.44146e-06
1.36749e-05
3.72621e-06
9.60244e-06
4.07183e-06
5.13363e-06
4.46828e-06
1.46781e-06
3.66555e-06
-1.33888e-06
2.8067e-06
-2.02181e-06
6.83061e-07
-1.33044e-06
-6.91063e-07
-1.8533e-06
5.23199e-07
-1.85297e-06
2.30597e-06
-4.58255e-06
4.76277e-06
-4.98787e-06
6.62884e-06
-3.46421e-06
9.25897e-06
-5.42608e-06
1.16756e-05
-4.9692e-06
1.35849e-05
-3.57974e-06
1.56837e-05
-4.01301e-06
1.76734e-05
-3.81799e-06
2.00655e-05
-4.87395e-06
2.1591e-05
-3.25427e-06
2.19914e-05
-8.45979e-07
2.15537e-05
8.41083e-07
2.02341e-05
3.01743e-06
1.78191e-05
4.8567e-06
1.39647e-05
7.58063e-06
9.65082e-06
8.38589e-06
5.40296e-06
8.71584e-06
1.60863e-06
7.45983e-06
-8.30868e-07
5.24623e-06
-1.72451e-06
1.57704e-06
-1.37827e-06
-1.03677e-06
-1.49159e-06
6.3705e-07
-3.34411e-06
2.31251e-06
-6.36712e-06
4.49846e-06
-6.64508e-06
6.9864e-06
-5.42736e-06
9.09122e-06
-7.00498e-06
1.12467e-05
-6.60471e-06
1.36621e-05
-5.47645e-06
1.58883e-05
-5.72633e-06
1.80454e-05
-5.4599e-06
1.94293e-05
-5.73737e-06
2.03054e-05
-3.57222e-06
2.17306e-05
-1.71694e-06
2.31503e-05
-1.50369e-07
2.24965e-05
3.80479e-06
1.98701e-05
7.48795e-06
1.48165e-05
1.26342e-05
9.21924e-06
1.39827e-05
4.08389e-06
1.38506e-05
3.03592e-07
1.12399e-05
-1.63894e-06
7.18888e-06
-1.38013e-06
1.31859e-06
-1.68629e-07
-2.24769e-06
8.78729e-07
-4.09673e-07
-2.46473e-06
2.30126e-06
-1.8554e-05
4.1879e-06
-1.86302e-05
7.2494e-06
-1.82082e-05
8.76296e-06
-1.89254e-05
1.08343e-05
-1.91871e-05
1.37252e-05
-1.88643e-05
1.59076e-05
-1.89568e-05
1.79364e-05
-1.86442e-05
1.89956e-05
-1.82599e-05
2.05508e-05
-1.59633e-05
2.24991e-05
-1.38228e-05
2.25698e-05
-8.77831e-06
2.06452e-05
5.18003e-07
1.78075e-05
8.8739e-06
1.37797e-05
1.70626e-05
8.75055e-06
1.90753e-05
4.11497e-06
1.84862e-05
5.0184e-07
1.4853e-05
-1.53435e-06
9.22501e-06
-1.89465e-06
1.679e-06
-6.22096e-07
-3.52013e-06
7.6358e-07
-1.79537e-06
-1.70136e-06
1.81115e-06
-2.65352e-05
3.35064e-06
-2.57751e-05
6.18654e-06
-2.68493e-05
7.47404e-06
-2.49491e-05
8.6547e-06
-2.48299e-05
1.15066e-05
-2.51193e-05
1.36253e-05
-2.31899e-05
1.49098e-05
-2.19964e-05
1.60435e-05
-2.06798e-05
1.82212e-05
-2.02681e-05
2.00413e-05
-1.97935e-05
2.10166e-05
-1.74872e-05
2.26056e-05
-1.9195e-05
1.84664e-05
-2.61961e-06
1.18258e-05
1.38236e-05
6.94752e-06
2.40494e-05
2.9282e-06
2.25978e-05
1.07617e-08
1.77704e-05
-1.43774e-06
1.06736e-05
-2.32678e-06
2.56852e-06
-1.73432e-06
-4.1118e-06
4.27381e-07
-3.95624e-06
-1.27277e-06
-4.16268e-07
-1.05575e-05
-4.11709e-07
-1.05041e-05
-7.14221e-07
-1.16034e-05
-1.66946e-07
-1.07412e-05
3.30466e-07
-1.07983e-05
1.08401e-06
-1.2542e-05
2.15377e-06
-1.14023e-05
2.82452e-06
-9.86442e-06
3.71846e-06
-9.21256e-06
4.33269e-06
-8.39785e-06
4.83826e-06
-6.42582e-06
7.6868e-06
-4.13681e-06
1.33894e-05
-1.09829e-06
1.51031e-05
-6.9244e-07
8.90131e-06
6.3097e-06
1.32898e-06
2.09111e-05
-7.37013e-07
2.48945e-05
-2.00455e-06
1.90764e-05
-1.9568e-06
1.06264e-05
-2.96079e-06
3.57281e-06
-3.35972e-06
-3.71256e-06
-1.14562e-06
-6.16997e-06
-2.41845e-06
-8.69727e-07
-9.68163e-06
-1.4913e-06
-9.87756e-06
-1.85162e-06
-1.12381e-05
-1.81106e-06
-1.07786e-05
-1.09772e-06
-1.15089e-05
1.39001e-07
-1.37767e-05
8.62601e-07
-1.21245e-05
1.51893e-06
-1.05197e-05
1.61266e-06
-9.30557e-06
1.07139e-06
-7.85591e-06
-6.03241e-07
-4.75035e-06
-2.88863e-06
-1.84984e-06
-3.56621e-06
1.29489e-06
2.50247e-06
1.0284e-05
4.81572e-06
1.89215e-05
-5.80861e-06
1.95068e-05
-7.6522e-06
2.16143e-05
-5.3415e-06
1.69798e-05
-3.61965e-06
8.9113e-06
-3.67255e-06
3.62581e-06
-4.18124e-06
-3.20387e-06
-1.92431e-06
-8.4271e-06
-4.34265e-06
-1.12934e-06
-8.5476e-06
-1.86968e-06
-9.13235e-06
-2.32218e-06
-1.0783e-05
-2.23237e-06
-1.08672e-05
-1.6773e-06
-1.20632e-05
-2.11861e-07
-1.52399e-05
9.25683e-07
-1.32614e-05
1.77642e-06
-1.13703e-05
2.11206e-06
-9.64116e-06
2.19957e-06
-7.94341e-06
1.84061e-06
-4.39115e-06
1.39178e-06
-1.40037e-06
-3.7764e-06
6.46444e-06
-1.01563e-05
1.68648e-05
-1.00129e-05
2.78104e-05
-1.47338e-05
2.52299e-05
-1.80742e-05
1.70606e-05
-1.49815e-05
1.34861e-05
-9.68289e-06
3.87144e-06
-6.17015e-06
2.36474e-07
-4.78822e-06
-4.38671e-06
-1.82319e-06
-1.11397e-05
-5.94835e-06
-1.7476e-05
-2.4017e-05
-9.4147e-06
-4.30025e-05
1.49473e-05
-6.14119e-05
3.74227e-05
-5.52428e-05
5.27092e-05
-4.48813e-05
6.01486e-05
-3.65589e-05
6.31724e-05
-3.45226e-05
6.51158e-05
-3.38095e-05
6.55323e-05
-2.75673e-05
6.24367e-05
-1.50728e-05
5.77248e-05
-1.33657e-06
5.31726e-05
1.37876e-05
5.2815e-05
9.9171e-06
5.30132e-05
6.45193e-06
5.01804e-05
2.77018e-06
3.7548e-05
5.80204e-05
1.36549e-05
8.04129e-05
-6.11133e-07
2.54697e-05
-6.01489e-06
-6.56313e-06
-9.64334e-07
4.86354e-06
2.28907e-06
2.49772e-05
-7.11503e-05
4.08197e-05
-7.78712e-05
5.45369e-05
-6.31795e-05
6.53684e-05
-5.05508e-05
7.25709e-05
-4.32164e-05
7.67655e-05
-3.97928e-05
7.95337e-05
-3.89407e-05
8.0161e-05
-3.47847e-05
7.63042e-05
-2.56636e-05
6.86952e-05
-1.22784e-05
6.52085e-05
-1.46306e-05
6.74425e-05
-1.87045e-05
6.71085e-05
1.2437e-05
5.21724e-05
6.72445e-05
1.94216e-05
0.000103844
2.85956e-06
4.06978e-05
4.59313e-08
-1.32476e-05
2.08831e-05
-9.93103e-06
2.4588e-05
2.94629e-05
-2.2367e-05
4.06053e-05
-4.2119e-05
4.95558e-05
-4.22139e-05
5.8128e-05
-5.80767e-05
6.61204e-05
-4.58455e-05
7.15793e-05
-3.8922e-05
7.51263e-05
-3.61294e-05
7.64938e-05
-3.09779e-05
7.35008e-05
-2.51596e-05
6.63402e-05
-1.71011e-05
6.35891e-05
-2.2612e-05
6.59756e-05
-3.49051e-05
5.95386e-05
-1.45193e-05
3.86949e-05
3.42965e-05
8.17439e-06
8.93107e-05
-7.28606e-06
5.48674e-05
5.86886e-06
1.86024e-05
1.3658e-05
2.61236e-05
-7.57261e-06
3.57063e-05
-2.22858e-05
4.45805e-05
-4.12675e-06
4.85009e-05
1.48245e-05
5.14746e-05
2.01971e-05
5.81462e-05
-5.22157e-05
6.23334e-05
-4.51157e-05
6.47211e-05
-4.03353e-05
6.42337e-05
-3.40291e-05
6.226e-05
-2.36124e-05
5.97649e-05
-2.38304e-05
5.82961e-05
-3.60187e-05
5.66497e-05
-5.09006e-05
4.47928e-05
-4.53669e-05
1.41497e-05
2.42159e-05
3.98187e-06
7.4848e-05
-1.66283e-05
6.53475e-05
-6.04124e-07
3.2449e-05
-1.47432e-05
4.04162e-05
-1.36026e-05
4.49056e-05
-2.47569e-05
4.51425e-05
3.10821e-05
5.00855e-05
6.70329e-05
4.93885e-05
0.000140067
5.11821e-05
0.000104609
5.38956e-05
-5.85352e-05
5.46676e-05
-5.44921e-05
5.22884e-05
-3.80945e-05
5.35927e-05
-2.64931e-05
5.58205e-05
-2.65156e-05
5.58972e-05
-4.14837e-05
5.34431e-05
-7.42591e-05
4.14043e-05
-4.75695e-05
1.7335e-05
2.42977e-05
1.65888e-05
8.85339e-05
-1.63056e-05
5.96876e-05
-1.94333e-05
3.4903e-05
3.31886e-05
4.73666e-05
-2.01027e-05
5.268e-05
-4.24881e-05
5.33423e-05
-1.43723e-05
5.54153e-05
6.99858e-06
6.06136e-05
3.97845e-05
5.95198e-05
8.82341e-05
5.18618e-05
-2.25705e-05
4.67038e-05
-7.1862e-05
4.52891e-05
-4.02422e-05
4.90243e-05
-3.26509e-05
5.391e-05
-3.52116e-05
5.28173e-05
-5.73623e-05
4.23071e-05
0.000158366
3.43659e-05
0.000102875
1.91557e-05
3.94483e-05
2.56699e-05
0.000102108
-6.46973e-06
5.25363e-05
-1.18981e-05
3.07799e-05
4.40506e-05
5.18732e-05
-2.02333e-05
5.75037e-05
-5.11093e-05
6.32618e-05
1.14168e-05
6.27491e-05
1.73456e-05
6.28161e-05
2.8353e-05
5.82033e-05
3.55945e-05
6.49612e-05
5.51392e-05
4.49762e-05
-3.04436e-05
3.89487e-05
-4.44613e-05
4.44888e-05
-4.05976e-05
4.9026e-05
-2.85621e-05
6.85446e-05
7.83523e-05
1.05729e-05
9.60463e-05
-4.96885e-06
0.000151621
1.41428e-05
4.95987e-05
2.77717e-05
0.000107045
-9.55469e-06
4.35684e-05
-4.56533e-06
2.63643e-05
-6.2121e-05
4.43962e-05
-6.05472e-05
4.54189e-05
-0.000108479
4.87245e-05
-2.86277e-05
5.37227e-05
2.52868e-05
5.21494e-05
2.83143e-05
4.40564e-05
4.70341e-05
4.82056e-05
8.45289e-05
5.1138e-05
9.98829e-05
4.56918e-05
-2.31847e-05
4.50211e-05
-5.20416e-05
4.38538e-05
-4.15645e-05
1.23935e-05
0.000116561
-3.2849e-05
9.88007e-05
-4.13752e-05
7.64025e-05
1.38268e-05
0.00017542
2.73622e-05
0.000118885
-1.23318e-05
3.84871e-05
-2.23188e-05
-1.83752e-06
-6.60262e-06
-3.29247e-06
-7.5751e-06
-4.3862e-06
-9.6127e-06
-3.53482e-06
-1.16595e-05
-2.06525e-06
-1.35101e-05
3.58572e-07
-1.765e-05
3.28233e-06
-1.61687e-05
4.77258e-06
-1.28115e-05
2.93195e-06
-7.75403e-06
-1.3406e-06
-3.62942e-06
-5.48943e-06
-2.19356e-07
-7.53868e-06
6.56012e-07
-6.19393e-06
5.12139e-06
-4.58614e-06
1.52609e-05
-3.28873e-06
2.60882e-05
-1.31783e-05
4.04774e-05
-2.9587e-05
2.55783e-05
-3.93705e-05
1.14214e-05
-4.0645e-05
-1.40553e-06
-3.13707e-05
-1.21136e-05
-1.37532e-05
-2.4571e-05
6.68143e-07
-2.89135e-05
-2.54719e-05
1.70611e-05
-3.1029e-06
-3.22153e-06
-5.39878e-06
-5.06585e-06
-6.1134e-06
-8.8587e-06
-4.95184e-06
-1.27721e-05
-2.64306e-06
-1.56306e-05
2.7265e-06
-2.27825e-05
8.06393e-06
-2.1402e-05
1.12086e-05
-1.59866e-05
1.25162e-05
-8.99454e-06
1.34891e-05
-4.5249e-06
1.25199e-05
8.94193e-07
1.04452e-05
2.89963e-06
5.49948e-06
1.0101e-05
2.86416e-06
1.78938e-05
5.66282e-06
2.32865e-05
1.65152e-05
3.13058e-05
1.24098e-05
3.68045e-05
-1.26722e-06
1.81795e-05
-6.48009e-06
-1.96514e-06
-4.76627e-06
-2.51787e-05
9.72147e-07
-4.5604e-05
7.31367e-06
-5.00697e-05
-5.66553e-05
2.20913e-05
-3.44338e-06
-9.31057e-08
-7.57589e-06
-5.37308e-07
-1.01388e-05
1.47121e-05
-9.3458e-06
1.71587e-05
-6.44113e-06
1.32343e-05
2.34787e-06
-3.46542e-06
8.56285e-06
-1.8173e-05
8.9304e-06
-6.24788e-06
6.25042e-06
5.80658e-07
2.59321e-06
5.42138e-06
2.28543e-06
4.49005e-06
3.7011e-06
1.66203e-06
8.29242e-06
4.85275e-06
1.45594e-05
1.11556e-05
2.03539e-05
1.75851e-05
3.18375e-05
1.97843e-05
5.0501e-05
2.31407e-05
6.89493e-05
1.40483e-05
7.48288e-05
1.88909e-06
7.78263e-05
-1.31006e-05
7.82769e-05
-2.90051e-05
8.48748e-05
-4.03429e-05
-4.90171e-05
9.44074e-05
-9.64651e-06
9.73115e-05
-1.65471e-05
9.06858e-05
-1.58177e-05
7.38939e-05
-6.35268e-06
6.25222e-05
-1.0828e-05
9.07012e-05
-4.0157e-06
6.87386e-05
-9.193e-06
4.89702e-05
-1.34069e-05
5.36813e-05
-1.36192e-05
5.84946e-05
-1.04842e-05
6.10251e-05
-6.84789e-06
6.40967e-05
-3.88143e-06
6.6452e-05
5.75278e-07
6.34721e-05
5.78258e-06
3.08899e-05
1.43526e-05
9.82498e-06
2.55291e-05
8.34857e-06
3.95691e-05
9.20344e-06
5.97556e-05
5.77892e-07
7.42662e-05
1.96804e-07
8.57835e-05
-3.8791e-06
9.30891e-05
2.85344e-06
0.000101074
7.25959e-06
9.5481e-06
0.000112044
-1.82521e-06
5.42917e-05
-4.85275e-06
5.70086e-05
-1.61105e-05
6.62305e-05
-3.62497e-05
7.43056e-05
-7.28206e-05
8.39366e-05
-9.26042e-05
8.85738e-05
-0.000111592
7.83369e-05
-0.000116581
6.34165e-05
-0.00010976
6.58767e-05
-9.5416e-05
5.90393e-05
-7.97446e-05
5.56677e-05
-5.7386e-05
4.46822e-05
-3.22471e-05
3.98577e-05
-1.01046e-05
5.00571e-05
4.84865e-06
5.59759e-05
1.50787e-05
6.2312e-05
2.81891e-05
6.8274e-05
4.10639e-05
5.93793e-05
5.62155e-05
5.338e-05
7.15329e-05
3.57293e-05
8.07461e-05
2.75905e-05
9.1273e-05
1.29701e-05
4.65748e-06
9.74378e-05
3.58691e-05
-2.33882e-05
2.54325e-05
2.06252e-05
-1.6462e-05
4.8568e-05
-7.7974e-05
6.80242e-05
-0.000138983
7.21354e-05
-0.000135078
-9.09494e-06
-0.000128427
-1.35786e-05
-0.000132096
-5.67257e-06
-0.000138898
-1.72004e-07
-0.000123118
-2.30919e-06
-0.000111669
1.53908e-05
-9.38107e-05
1.62251e-05
-8.08135e-05
3.35874e-05
-6.58317e-05
5.21175e-05
-4.9252e-05
5.54343e-05
-3.24734e-05
5.10862e-05
-6.29312e-06
4.56046e-05
1.46017e-05
3.05894e-05
3.94303e-05
2.17732e-05
4.13388e-05
2.52972e-05
4.19262e-05
8.77404e-06
4.83513e-05
-1.52146e-05
-3.15633e-05
5.45174e-05
-2.57075e-05
1.82415e-06
-2.96421e-05
2.34242e-05
-1.61197e-05
3.39408e-05
1.31911e-05
3.73631e-05
9.78863e-05
-1.41279e-05
0.000138139
-5.1769e-05
0.000107228
1.29007e-05
3.3222e-05
6.08979e-05
-3.74447e-05
5.58146e-05
-8.65838e-05
1.09989e-05
-0.000109999
-8.73245e-06
-0.000102823
-4.34888e-05
-8.59205e-05
-4.59532e-05
-7.12392e-05
-2.55694e-05
-8.13953e-05
-3.52374e-06
-6.61391e-05
-7.39522e-06
-4.54158e-05
-7.96607e-06
-2.69124e-05
-1.20277e-05
3.9606e-06
-2.60935e-05
9.58745e-07
-2.02672e-05
-1.12728e-05
-2.91566e-05
-1.12588e-05
-5.39247e-05
-5.98632e-05
-1.57095e-05
-6.12919e-05
6.3116e-05
-5.19987e-05
1.41301e-05
-1.30331e-05
-5.02576e-06
3.00673e-05
-5.74035e-06
5.34129e-05
-3.74747e-05
5.53556e-05
-5.37117e-05
3.91805e-05
2.90757e-05
6.74003e-06
9.33383e-05
-9.31839e-07
6.34864e-05
2.0217e-05
-1.01555e-05
4.56916e-05
-3.43105e-05
5.67811e-05
-5.48976e-05
6.95518e-05
-6.01738e-05
5.47096e-05
-2.07005e-05
4.87218e-05
-1.24489e-05
2.75746e-05
-1.46665e-05
1.80221e-05
-3.23748e-05
1.43418e-05
-4.29417e-05
-1.29793e-05
-3.1544e-05
-4.50762e-05
-7.99927e-06
-4.12024e-05
-3.91013e-05
-3.28429e-05
-6.33413e-05
-7.73403e-05
-1.54719e-05
7.3491e-06
5.57669e-05
1.45426e-05
6.9366e-06
2.39848e-05
-1.44679e-05
3.68723e-05
-1.86278e-05
3.14885e-05
-3.2091e-05
2.30584e-05
-4.52816e-05
2.67881e-05
2.5346e-05
4.4657e-05
7.54694e-05
5.94403e-05
4.87031e-05
1.50933e-05
3.41915e-05
-1.57578e-05
-3.45936e-06
-2.13406e-05
-4.93148e-05
-2.99849e-05
-5.15294e-05
-1.13562e-05
-3.93292e-05
1.83379e-05
-4.2143e-05
4.91195e-05
-4.54487e-05
6.42297e-05
-4.74906e-05
6.4644e-05
-4.33681e-05
6.66483e-05
-3.35632e-05
9.05799e-05
-3.19313e-05
9.01264e-05
-3.86478e-05
7.59978e-05
-4.92127e-05
-5.95966e-05
5.82535e-05
1.54179e-05
4.0349e-05
6.84049e-06
1.5514e-05
1.66466e-06
-9.2921e-06
3.46354e-06
-2.04267e-05
-3.35855e-07
-2.82916e-05
-8.44164e-06
-3.71759e-05
1.57622e-05
1.14218e-06
5.3427e-05
3.78046e-05
6.47688e-05
3.73613e-05
7.63521e-05
2.26082e-05
6.91184e-05
3.77431e-06
4.55052e-05
-2.57016e-05
3.75327e-05
-4.35569e-05
4.04982e-05
-4.22947e-05
3.8346e-05
-3.99906e-05
3.61613e-05
-4.32638e-05
3.65119e-05
-4.78408e-05
4.13306e-05
-4.81864e-05
5.08595e-05
-4.30918e-05
5.09672e-05
-3.20388e-05
4.2803e-05
-3.04836e-05
3.09188e-05
-3.73289e-05
-4.67984e-05
1.81204e-05
1.33106e-05
2.70385e-05
2.17177e-05
7.10693e-06
2.07167e-05
-8.29117e-06
1.44318e-05
-1.41418e-05
4.46275e-06
-1.83225e-05
-1.03254e-05
-2.23877e-05
2.90987e-07
-9.47422e-06
3.60127e-05
2.08293e-06
5.6341e-05
1.70329e-05
6.16256e-05
1.73236e-05
5.51121e-05
1.02877e-05
4.14491e-05
-1.20386e-05
3.02374e-05
-3.23452e-05
2.73334e-05
-3.93906e-05
3.04287e-05
-4.30856e-05
3.23391e-05
-4.51739e-05
3.01802e-05
-4.56815e-05
2.5576e-05
-4.35819e-05
2.10517e-05
-3.85672e-05
2.3006e-05
-3.39929e-05
2.47494e-05
-3.22271e-05
2.09785e-05
-3.3558e-05
-3.54853e-05
9.6648e-06
1.03049e-05
1.67336e-05
1.15163e-05
5.89551e-06
8.86534e-06
-5.6402e-06
6.58565e-06
-1.18621e-05
3.07946e-06
-1.48163e-05
-3.09116e-06
-1.62171e-05
-2.51454e-06
-1.00509e-05
6.79194e-06
-7.22356e-06
2.22881e-05
1.53677e-06
3.06954e-05
8.91627e-06
3.60097e-05
4.97338e-06
3.51766e-05
-1.12056e-05
2.77314e-05
-2.48999e-05
2.08147e-05
-3.24738e-05
1.48444e-05
-3.71151e-05
9.55043e-06
-3.98796e-05
5.16996e-06
-4.13007e-05
2.32424e-06
-4.07358e-05
1.5631e-06
-3.78059e-05
1.8515e-06
-3.42813e-05
1.13349e-06
-3.15091e-05
-2.33409e-06
-3.00909e-05
-2.91092e-05
-8.71023e-06
7.11809e-06
9.61547e-06
1.30176e-05
-4.03586e-09
1.26519e-05
-5.27451e-06
9.29671e-06
-8.50694e-06
5.14301e-06
-1.06626e-05
-8.19375e-08
-1.09922e-05
-1.88307e-06
-8.24974e-06
-2.34854e-06
-6.75812e-06
3.74268e-06
-4.55446e-06
1.23314e-05
3.27569e-07
1.92144e-05
-1.90962e-06
1.92755e-05
-1.12667e-05
1.48755e-05
-2.04998e-05
1.07738e-05
-2.8372e-05
7.0952e-06
-3.34363e-05
3.31703e-06
-3.61012e-05
-6.33775e-07
-3.73496e-05
-4.29652e-06
-3.70728e-05
-7.57173e-06
-3.45305e-05
-1.03136e-05
-3.15394e-05
-1.26123e-05
-2.92107e-05
-1.51823e-05
-2.75207e-05
-2.63184e-05
-1.79736e-05
5.2032e-06
4.41226e-06
7.48017e-06
-2.28103e-06
8.04414e-06
-5.8385e-06
7.04403e-06
-7.50685e-06
4.98e-06
-8.59864e-06
2.66295e-06
-8.67515e-06
2.113e-06
-7.69981e-06
2.16562e-06
-6.81075e-06
4.07939e-06
-6.46826e-06
8.7378e-06
-4.33085e-06
1.27209e-05
-5.89273e-06
1.20763e-05
-1.0622e-05
9.29566e-06
-1.77191e-05
5.25005e-06
-2.43262e-05
1.26004e-06
-2.9446e-05
-2.28057e-06
-3.25603e-05
-5.91181e-06
-3.37181e-05
-9.29567e-06
-3.36888e-05
-1.18801e-05
-3.1946e-05
-1.33487e-05
-3.00709e-05
-1.4242e-05
-2.83176e-05
-1.53287e-05
-2.64342e-05
-2.48644e-05
-1.67826e-05
3.13821e-06
1.27403e-06
4.89704e-06
-4.03988e-06
4.83733e-06
-5.77881e-06
4.30477e-06
-6.97431e-06
3.55969e-06
-7.85358e-06
2.84866e-06
-7.96415e-06
3.01122e-06
-7.86239e-06
3.81267e-06
-7.61222e-06
5.14399e-06
-7.7996e-06
7.61101e-06
-6.79787e-06
9.89215e-06
-8.17386e-06
1.03605e-05
-1.10904e-05
8.5983e-06
-1.59568e-05
5.04332e-06
-2.07711e-05
9.47131e-07
-2.53496e-05
-2.58134e-06
-2.90318e-05
-5.57333e-06
-3.07259e-05
-8.30546e-06
-3.09567e-05
-1.0821e-05
-2.94304e-05
-1.30529e-05
-2.78393e-05
-1.47272e-05
-2.66433e-05
-1.60324e-05
-2.51292e-05
-2.34253e-05
-1.74716e-05
1.88999e-06
-6.15989e-07
2.89163e-06
-5.04154e-06
3.14749e-06
-6.0347e-06
3.14813e-06
-6.97499e-06
3.02039e-06
-7.72587e-06
3.14371e-06
-8.0875e-06
3.64879e-06
-8.36749e-06
4.44813e-06
-8.41158e-06
5.44667e-06
-8.79814e-06
7.21111e-06
-8.56231e-06
8.74418e-06
-9.7069e-06
9.59895e-06
-1.19451e-05
9.19534e-06
-1.5553e-05
7.42268e-06
-1.89983e-05
4.54208e-06
-2.2469e-05
9.00459e-07
-2.53899e-05
-2.5709e-06
-2.72546e-05
-5.73945e-06
-2.7788e-05
-8.63937e-06
-2.65307e-05
-1.16221e-05
-2.48564e-05
-1.3969e-05
-2.42968e-05
-1.53684e-05
-2.37297e-05
-2.23254e-05
-1.6469e-05
1.20623e-06
-1.82225e-06
1.98192e-06
-5.81726e-06
2.45334e-06
-6.50615e-06
2.69378e-06
-7.21545e-06
2.83018e-06
-7.8623e-06
3.11728e-06
-8.37462e-06
3.53451e-06
-8.78473e-06
4.22729e-06
-9.10436e-06
5.02156e-06
-9.59241e-06
6.36043e-06
-9.90117e-06
7.58821e-06
-1.09347e-05
8.50876e-06
-1.28656e-05
8.367e-06
-1.54112e-05
7.18671e-06
-1.78179e-05
5.13099e-06
-2.04131e-05
2.184e-06
-2.2443e-05
-1.31921e-06
-2.37511e-05
-4.87374e-06
-2.42335e-05
-7.7618e-06
-2.36424e-05
-1.06294e-05
-2.19889e-05
-1.33585e-05
-2.15675e-05
-1.51824e-05
-2.19064e-05
-2.11576e-05
-1.635e-05
8.774e-07
-2.69968e-06
1.58135e-06
-6.52124e-06
2.09517e-06
-7.02001e-06
2.43043e-06
-7.55075e-06
2.5933e-06
-8.0252e-06
2.72277e-06
-8.50411e-06
2.88557e-06
-8.94755e-06
3.18415e-06
-9.40296e-06
3.56871e-06
-9.97698e-06
4.43661e-06
-1.07691e-05
5.35093e-06
-1.18489e-05
5.81315e-06
-1.33277e-05
5.35906e-06
-1.4957e-05
4.28295e-06
-1.67417e-05
2.38145e-06
-1.85116e-05
-4.04143e-07
-1.96571e-05
-3.38401e-06
-2.07712e-05
-6.10831e-06
-2.15088e-05
-8.58124e-06
-2.11694e-05
-1.06862e-05
-1.98835e-05
-1.26878e-05
-1.95662e-05
-1.4137e-05
-2.04568e-05
-2.02458e-05
-1.50494e-05
7.11137e-07
-3.41088e-06
1.30159e-06
-7.11175e-06
1.67757e-06
-7.39604e-06
1.89257e-06
-7.76579e-06
1.97595e-06
-8.10862e-06
1.96977e-06
-8.49798e-06
1.99063e-06
-8.96843e-06
2.05377e-06
-9.46611e-06
2.16741e-06
-1.00906e-05
2.37736e-06
-1.0979e-05
2.54642e-06
-1.20179e-05
2.42167e-06
-1.32029e-05
1.90178e-06
-1.4437e-05
9.3341e-07
-1.57732e-05
-6.95349e-07
-1.68826e-05
-2.71325e-06
-1.7639e-05
-4.80391e-06
-1.86804e-05
-6.96513e-06
-1.93474e-05
-9.10087e-06
-1.90336e-05
-1.06902e-05
-1.82941e-05
-1.18679e-05
-1.83884e-05
-1.30059e-05
-1.9319e-05
-1.90766e-05
-1.4175e-05
5.66182e-07
-3.97709e-06
8.92961e-07
-7.43856e-06
1.12512e-06
-7.62824e-06
1.31879e-06
-7.95949e-06
1.47437e-06
-8.26424e-06
1.58644e-06
-8.61006e-06
1.66081e-06
-9.04282e-06
1.70153e-06
-9.50684e-06
1.69301e-06
-1.00821e-05
1.57561e-06
-1.08616e-05
1.35968e-06
-1.1802e-05
9.06361e-07
-1.27495e-05
1.14569e-07
-1.36451e-05
-8.87686e-07
-1.47708e-05
-2.05597e-06
-1.57142e-05
-3.14424e-06
-1.65507e-05
-4.648e-06
-1.71765e-05
-6.60236e-06
-1.7393e-05
-8.30039e-06
-1.73355e-05
-9.60394e-06
-1.69905e-05
-1.07433e-05
-1.72491e-05
-1.19808e-05
-1.80815e-05
-1.78959e-05
-1.31615e-05
3.79963e-07
-4.3571e-06
6.38921e-07
-7.69756e-06
8.91971e-07
-7.88133e-06
1.09546e-06
-8.16301e-06
1.27063e-06
-8.43943e-06
1.42773e-06
-8.76719e-06
1.51626e-06
-9.13136e-06
1.54475e-06
-9.53533e-06
1.47947e-06
-1.00168e-05
1.24223e-06
-1.06243e-05
8.61885e-07
-1.14216e-05
3.1305e-07
-1.22006e-05
-4.08277e-07
-1.29237e-05
-1.36473e-06
-1.38143e-05
-2.44934e-06
-1.46295e-05
-3.65011e-06
-1.53498e-05
-5.17285e-06
-1.56537e-05
-6.77924e-06
-1.57866e-05
-8.25402e-06
-1.58607e-05
-9.58342e-06
-1.56611e-05
-1.08564e-05
-1.59762e-05
-1.23184e-05
-1.66195e-05
-1.63864e-05
-1.38279e-05
2.8247e-07
-4.6396e-06
5.22553e-07
-7.93768e-06
7.38589e-07
-8.0974e-06
8.67425e-07
-8.29188e-06
9.61839e-07
-8.53387e-06
1.02144e-06
-8.82681e-06
1.06262e-06
-9.17254e-06
1.09886e-06
-9.57156e-06
1.09741e-06
-1.00153e-05
9.06545e-07
-1.04334e-05
5.0264e-07
-1.10176e-05
7.28945e-09
-1.17052e-05
-5.41198e-07
-1.23751e-05
-1.40812e-06
-1.29473e-05
-2.4926e-06
-1.3545e-05
-3.8436e-06
-1.39988e-05
-5.1071e-06
-1.43902e-05
-6.22174e-06
-1.46719e-05
-7.42633e-06
-1.46561e-05
-8.49989e-06
-1.45876e-05
-9.62101e-06
-1.48551e-05
-1.11146e-05
-1.51259e-05
-1.46675e-05
-1.28335e-05
2.31644e-07
-4.87129e-06
3.3259e-07
-8.03866e-06
3.95064e-07
-8.1599e-06
4.39817e-07
-8.33666e-06
4.57501e-07
-8.55157e-06
4.3702e-07
-8.80634e-06
3.76061e-07
-9.11158e-06
2.70925e-07
-9.46641e-06
1.24021e-07
-9.86839e-06
-6.86975e-08
-1.02406e-05
-4.46943e-07
-1.06393e-05
-9.82308e-07
-1.11698e-05
-1.602e-06
-1.17554e-05
-2.29004e-06
-1.22592e-05
-3.15915e-06
-1.26758e-05
-4.295e-06
-1.28629e-05
-5.52234e-06
-1.31628e-05
-6.7915e-06
-1.34028e-05
-8.00471e-06
-1.3443e-05
-9.14311e-06
-1.34493e-05
-1.03401e-05
-1.36582e-05
-1.17372e-05
-1.3729e-05
-1.33538e-05
-1.30508e-05
1.41445e-07
-5.01276e-06
2.11298e-07
-8.10854e-06
2.65634e-07
-8.21427e-06
2.86678e-07
-8.35772e-06
2.70018e-07
-8.53493e-06
2.0979e-07
-8.74612e-06
9.17618e-08
-8.99355e-06
-7.78759e-08
-9.29676e-06
-3.13921e-07
-9.63232e-06
-6.14782e-07
-9.93972e-06
-1.00162e-06
-1.02524e-05
-1.52553e-06
-1.06458e-05
-2.26103e-06
-1.10198e-05
-3.0489e-06
-1.14712e-05
-3.90704e-06
-1.18176e-05
-4.62896e-06
-1.21409e-05
-5.41321e-06
-1.23786e-05
-6.47512e-06
-1.23409e-05
-7.52185e-06
-1.23963e-05
-8.55422e-06
-1.2417e-05
-9.80314e-06
-1.24093e-05
-1.12148e-05
-1.23173e-05
-1.22396e-05
-1.23291e-05
1.36461e-07
-5.14925e-06
1.84932e-07
-8.15704e-06
2.09841e-07
-8.2392e-06
2.02405e-07
-8.35031e-06
1.53161e-07
-8.4857e-06
6.99865e-08
-8.66295e-06
-4.76858e-08
-8.87587e-06
-2.30228e-07
-9.1142e-06
-5.18689e-07
-9.34382e-06
-8.46633e-07
-9.61173e-06
-1.16742e-06
-9.93159e-06
-1.59151e-06
-1.02217e-05
-2.12781e-06
-1.04834e-05
-2.90017e-06
-1.06988e-05
-3.75221e-06
-1.09655e-05
-4.7079e-06
-1.11852e-05
-5.86945e-06
-1.12171e-05
-6.88018e-06
-1.13302e-05
-7.83841e-06
-1.14381e-05
-8.84689e-06
-1.14086e-05
-1.00049e-05
-1.12514e-05
-1.11419e-05
-1.11803e-05
-1.11149e-05
-1.22666e-05
3.94065e-08
-5.18868e-06
2.14788e-08
-8.13914e-06
-6.89308e-10
-8.21705e-06
-4.64484e-08
-8.30456e-06
-1.23218e-07
-8.40893e-06
-2.48388e-07
-8.53777e-06
-4.1833e-07
-8.70591e-06
-6.42735e-07
-8.88977e-06
-9.05926e-07
-9.0806e-06
-1.25503e-06
-9.26258e-06
-1.73194e-06
-9.45462e-06
-2.27736e-06
-9.67618e-06
-2.82031e-06
-9.94044e-06
-3.47453e-06
-1.00445e-05
-4.24039e-06
-1.01996e-05
-5.05086e-06
-1.03748e-05
-5.76911e-06
-1.04988e-05
-6.53043e-06
-1.0569e-05
-7.52573e-06
-1.04428e-05
-8.62063e-06
-1.03137e-05
-9.68229e-06
-1.01898e-05
-1.07791e-05
-1.00836e-05
-9.89441e-06
-1.19995e-05
3.71089e-08
-5.22582e-06
1.07706e-08
-8.11282e-06
-2.88802e-08
-8.17742e-06
-8.77466e-08
-8.24571e-06
-1.70072e-07
-8.32661e-06
-2.87743e-07
-8.4201e-06
-4.5649e-07
-8.53715e-06
-6.79212e-07
-8.66702e-06
-9.49324e-07
-8.81045e-06
-1.27142e-06
-8.94045e-06
-1.69894e-06
-9.02705e-06
-2.2297e-06
-9.14537e-06
-2.87157e-06
-9.29852e-06
-3.45113e-06
-9.46494e-06
-4.02869e-06
-9.62206e-06
-4.75101e-06
-9.65243e-06
-5.64731e-06
-9.60255e-06
-6.75499e-06
-9.46132e-06
-7.74014e-06
-9.45777e-06
-8.63778e-06
-9.41615e-06
-9.53254e-06
-9.29513e-06
-1.05957e-05
-9.02047e-06
-8.81692e-06
-1.16731e-05
4.87798e-10
-5.22632e-06
-5.62941e-08
-8.05605e-06
-1.24909e-07
-8.10882e-06
-2.25826e-07
-8.1448e-06
-3.57793e-07
-8.19464e-06
-5.16307e-07
-8.26157e-06
-7.22003e-07
-8.33144e-06
-9.83197e-07
-8.4058e-06
-1.301e-06
-8.49261e-06
-1.63609e-06
-8.60532e-06
-1.95706e-06
-8.70603e-06
-2.33593e-06
-8.76645e-06
-2.84886e-06
-8.78554e-06
-3.52891e-06
-8.78485e-06
-4.38773e-06
-8.76321e-06
-5.18291e-06
-8.85727e-06
-5.93776e-06
-8.84774e-06
-6.58307e-06
-8.81606e-06
-7.31674e-06
-8.72415e-06
-8.27103e-06
-8.46193e-06
-9.37458e-06
-8.19163e-06
-1.03849e-05
-8.0102e-06
-7.78448e-06
-1.14173e-05
-9.90412e-09
-5.21643e-06
-6.49711e-08
-8.001e-06
-1.2201e-07
-8.05179e-06
-1.98128e-07
-8.06868e-06
-3.04182e-07
-8.08859e-06
-4.48016e-07
-8.11773e-06
-6.30759e-07
-8.14868e-06
-8.57768e-07
-8.17876e-06
-1.14872e-06
-8.20162e-06
-1.55102e-06
-8.20298e-06
-2.05521e-06
-8.20179e-06
-2.6082e-06
-8.21341e-06
-3.14244e-06
-8.25127e-06
-3.65239e-06
-8.27488e-06
-4.11239e-06
-8.30321e-06
-4.70491e-06
-8.26475e-06
-5.43659e-06
-8.1161e-06
-6.3445e-06
-7.90821e-06
-7.37125e-06
-7.69745e-06
-8.28672e-06
-7.54652e-06
-9.10212e-06
-7.37627e-06
-1.00524e-05
-7.05993e-06
-6.73017e-06
-1.11067e-05
-3.37982e-08
-5.18264e-06
-1.1335e-07
-7.92146e-06
-1.99595e-07
-7.96555e-06
-3.106e-07
-7.95768e-06
-4.48727e-07
-7.95045e-06
-6.24106e-07
-7.94234e-06
-8.39997e-07
-7.93277e-06
-1.0967e-06
-7.92203e-06
-1.38793e-06
-7.91036e-06
-1.68942e-06
-7.90144e-06
-1.99364e-06
-7.89752e-06
-2.34791e-06
-7.8591e-06
-2.81087e-06
-7.78827e-06
-3.3786e-06
-7.70712e-06
-4.09674e-06
-7.58506e-06
-4.90331e-06
-7.45821e-06
-5.66497e-06
-7.35447e-06
-6.38249e-06
-7.19074e-06
-7.06326e-06
-7.01674e-06
-7.86826e-06
-6.74157e-06
-8.83242e-06
-6.41215e-06
-9.78435e-06
-6.10803e-06
-5.75932e-06
-1.07552e-05
-1.51875e-08
-5.16747e-06
-6.24042e-08
-7.87425e-06
-1.1856e-07
-7.9094e-06
-1.99034e-07
-7.8772e-06
-3.10982e-07
-7.8385e-06
-4.64186e-07
-7.78912e-06
-6.65937e-07
-7.73099e-06
-9.19484e-07
-7.66845e-06
-1.22832e-06
-7.6015e-06
-1.60159e-06
-7.52812e-06
-2.04965e-06
-7.44942e-06
-2.54126e-06
-7.36746e-06
-3.04993e-06
-7.27958e-06
-3.5776e-06
-7.17943e-06
-4.09736e-06
-7.06531e-06
-4.63093e-06
-6.92465e-06
-5.26115e-06
-6.7243e-06
-5.98408e-06
-6.46786e-06
-6.82799e-06
-6.17287e-06
-7.68164e-06
-5.88797e-06
-8.50807e-06
-5.58577e-06
-9.40379e-06
-5.21232e-06
-4.79482e-06
-1.03683e-05
-2.45773e-08
-5.1429e-06
-9.01529e-08
-7.80868e-06
-1.62168e-07
-7.83738e-06
-2.59422e-07
-7.77995e-06
-3.82612e-07
-7.7153e-06
-5.36199e-07
-7.63552e-06
-7.24592e-07
-7.54258e-06
-9.52525e-07
-7.44049e-06
-1.22125e-06
-7.33274e-06
-1.52781e-06
-7.22153e-06
-1.87393e-06
-7.10327e-06
-2.26458e-06
-6.97677e-06
-2.70763e-06
-6.83651e-06
-3.21659e-06
-6.67047e-06
-3.80022e-06
-6.48169e-06
-4.45707e-06
-6.26783e-06
-5.14852e-06
-6.03289e-06
-5.84076e-06
-5.77566e-06
-6.53363e-06
-5.48005e-06
-7.28992e-06
-5.13172e-06
-8.12978e-06
-4.74594e-06
-9.00788e-06
-4.33425e-06
-3.87438e-06
-9.92829e-06
1.00345e-08
-5.15294e-06
-2.81575e-08
-7.77049e-06
-7.71151e-08
-7.78842e-06
-1.49204e-07
-7.70785e-06
-2.47697e-07
-7.6168e-06
-3.77725e-07
-7.50547e-06
-5.48288e-07
-7.37199e-06
-7.65171e-07
-7.22358e-06
-1.03403e-06
-7.06385e-06
-1.35921e-06
-6.89631e-06
-1.7376e-06
-6.72485e-06
-2.16636e-06
-6.54798e-06
-2.63532e-06
-6.36754e-06
-3.13312e-06
-6.17266e-06
-3.6594e-06
-5.95541e-06
-4.21362e-06
-5.71364e-06
-4.80861e-06
-5.43794e-06
-5.46276e-06
-5.12155e-06
-6.17519e-06
-4.76766e-06
-6.92435e-06
-4.38261e-06
-7.70782e-06
-3.9625e-06
-8.54413e-06
-3.49795e-06
-2.98468e-06
-9.43381e-06
2.02237e-08
-5.17316e-06
-2.71874e-08
-7.72308e-06
-8.30832e-08
-7.73253e-06
-1.5712e-07
-7.63381e-06
-2.49539e-07
-7.52437e-06
-3.59526e-07
-7.39547e-06
-4.89064e-07
-7.24244e-06
-6.47007e-07
-7.06561e-06
-8.48582e-07
-6.86225e-06
-1.112e-06
-6.63287e-06
-1.44408e-06
-6.39274e-06
-1.83838e-06
-6.15366e-06
-2.29158e-06
-5.91433e-06
-2.79465e-06
-5.66959e-06
-3.33447e-06
-5.4156e-06
-3.90697e-06
-5.14118e-06
-4.50833e-06
-4.83661e-06
-5.13362e-06
-4.49631e-06
-5.78687e-06
-4.11444e-06
-6.4835e-06
-3.68602e-06
-7.23191e-06
-3.21411e-06
-8.03065e-06
-2.69923e-06
-2.13459e-06
-8.88071e-06
5.53029e-08
-5.22846e-06
-1.82173e-08
-7.64956e-06
-9.78688e-08
-7.65287e-06
-1.84264e-07
-7.54741e-06
-2.82714e-07
-7.42591e-06
-3.91354e-07
-7.28682e-06
-5.07503e-07
-7.12627e-06
-6.42511e-07
-6.93058e-06
-8.05644e-07
-6.69909e-06
-1.00231e-06
-6.43617e-06
-1.2468e-06
-6.14822e-06
-1.55582e-06
-5.84462e-06
-1.93834e-06
-5.53181e-06
-2.39888e-06
-5.20906e-06
-2.92431e-06
-4.89017e-06
-3.49684e-06
-4.56867e-06
-4.09405e-06
-4.23944e-06
-4.70592e-06
-3.88448e-06
-5.33871e-06
-3.48167e-06
-6.00287e-06
-3.02189e-06
-6.70547e-06
-2.51153e-06
-7.45842e-06
-1.9463e-06
-1.32725e-06
-8.26574e-06
5.45206e-08
-5.28299e-06
-8.94706e-08
-7.50557e-06
-2.40281e-07
-7.50206e-06
-3.79531e-07
-7.40815e-06
-5.17754e-07
-7.28768e-06
-6.59871e-07
-7.14469e-06
-8.04785e-07
-6.98134e-06
-9.50245e-07
-6.7851e-06
-1.0983e-06
-6.55101e-06
-1.25421e-06
-6.28025e-06
-1.43097e-06
-5.97144e-06
-1.6424e-06
-5.63318e-06
-1.89711e-06
-5.27709e-06
-2.204e-06
-4.90216e-06
-2.57671e-06
-4.51749e-06
-3.02978e-06
-4.11562e-06
-3.57285e-06
-3.69642e-06
-4.185e-06
-3.27236e-06
-4.82143e-06
-2.84527e-06
-5.46139e-06
-2.38196e-06
-6.12251e-06
-1.85042e-06
-6.82879e-06
-1.24003e-06
-5.67998e-07
-7.58801e-06
2.78057e-09
-5.28576e-06
-2.73465e-07
-7.22932e-06
-5.53023e-07
-7.22249e-06
-8.01861e-07
-7.15931e-06
-1.02904e-06
-7.06049e-06
-1.23945e-06
-6.93426e-06
-1.43398e-06
-6.78679e-06