/*--------------------------------*- C++ -*----------------------------------*\
| =========                 |                                                 |
| \\      /  F ield         | OpenFOAM: The Open Source CFD Toolbox           |
|  \\    /   O peration     | Version:  2.4.0                                 |
|   \\  /    A nd           | Web:      www.OpenFOAM.org                      |
|    \\/     M anipulation  |                                                 |
\*---------------------------------------------------------------------------*/
FoamFile
{
    version     2.0;
    format      ascii;
    class       surfaceScalarField;
    location    "0.6";
    object      phi.oil;
}
// * * * * * * * * * * * * * * * * * * * * * * * * * * * * * * * * * * * * * //

dimensions      [0 3 -1 0 0 0 0];

internalField   nonuniform List<scalar> 
4432
(
2.28521e-06
-2.28525e-06
4.82714e-06
-2.54195e-06
6.43086e-06
-1.60375e-06
9.24195e-06
-2.81114e-06
1.18094e-05
-2.56748e-06
1.349e-05
-1.68067e-06
1.54193e-05
-1.92925e-06
1.72626e-05
-1.84336e-06
1.97621e-05
-2.49955e-06
2.14964e-05
-1.73442e-06
2.19431e-05
-4.46656e-07
2.15401e-05
4.03182e-07
1.9843e-05
1.69752e-06
1.74016e-05
2.44146e-06
1.36749e-05
3.72623e-06
9.60242e-06
4.07189e-06
5.13358e-06
4.46847e-06
1.46773e-06
3.66625e-06
-1.33901e-06
2.80846e-06
-2.02203e-06
6.86207e-07
-1.33824e-06
-6.84672e-07
-1.87915e-06
9.06555e-07
3.30467e-07
2.30597e-06
-4.58585e-06
4.76277e-06
-4.99198e-06
6.62884e-06
-3.46637e-06
9.25897e-06
-5.43176e-06
1.16756e-05
-4.97478e-06
1.35849e-05
-3.58362e-06
1.56837e-05
-4.01863e-06
1.76734e-05
-3.82362e-06
2.00655e-05
-4.88051e-06
2.1591e-05
-3.25643e-06
2.19914e-05
-8.46399e-07
2.15537e-05
8.41034e-07
2.02341e-05
3.01742e-06
1.7819e-05
4.85671e-06
1.39646e-05
7.58066e-06
9.6508e-06
8.38595e-06
5.40286e-06
8.71611e-06
1.60841e-06
7.46095e-06
-8.31169e-07
5.24985e-06
-1.72488e-06
1.58416e-06
-1.38562e-06
-1.02605e-06
-1.52558e-06
9.50861e-07
-1.09182e-06
2.31249e-06
-6.52606e-06
4.49849e-06
-6.80795e-06
6.98636e-06
-5.58272e-06
9.09117e-06
-7.17423e-06
1.12467e-05
-6.77628e-06
1.3662e-05
-5.64635e-06
1.58883e-05
-5.90481e-06
1.80455e-05
-5.63953e-06
1.94297e-05
-5.92015e-06
2.03056e-05
-3.73889e-06
2.17306e-05
-1.86411e-06
2.31503e-05
-2.55146e-07
2.24965e-05
3.7678e-06
1.98701e-05
7.48613e-06
1.48165e-05
1.26342e-05
9.2192e-06
1.39828e-05
4.08373e-06
1.38509e-05
3.0318e-07
1.12413e-05
-1.6396e-06
7.19442e-06
-1.3809e-06
1.33497e-06
-1.71442e-07
-2.22363e-06
8.40587e-07
-1.96966e-07
-4.07261e-07
2.3012e-06
-1.75979e-05
4.18794e-06
-1.76723e-05
7.2493e-06
-1.72543e-05
8.76293e-06
-1.79809e-05
1.08342e-05
-1.82487e-05
1.37251e-05
-1.7933e-05
1.59077e-05
-1.80455e-05
1.79364e-05
-1.77357e-05
1.89958e-05
-1.73459e-05
2.05513e-05
-1.50008e-05
2.25005e-05
-1.27661e-05
2.25743e-05
-7.53437e-06
2.06517e-05
1.70161e-06
1.78079e-05
8.90685e-06
1.37796e-05
1.69514e-05
8.75051e-06
1.90564e-05
4.1148e-06
1.84866e-05
5.01274e-07
1.48546e-05
-1.5357e-06
9.23284e-06
-1.89647e-06
1.71196e-06
-6.25386e-07
-3.46469e-06
7.29226e-07
-1.56016e-06
3.46032e-07
1.80464e-06
-2.39646e-05
3.32859e-06
-2.32375e-05
6.17048e-06
-2.43756e-05
7.43681e-06
-2.24892e-05
8.60435e-06
-2.23906e-05
1.14611e-05
-2.28582e-05
1.35492e-05
-2.09863e-05
1.48184e-05
-1.97951e-05
1.59322e-05
-1.85438e-05
1.80997e-05
-1.81509e-05
1.99061e-05
-1.7512e-05
2.08744e-05
-1.50107e-05
2.25409e-05
-1.6685e-05
1.84387e-05
-1.62633e-06
1.18437e-05
1.48724e-05
6.953e-06
2.39422e-05
2.92798e-06
2.25797e-05
9.93072e-09
1.77822e-05
-1.44017e-06
1.07099e-05
-2.33083e-06
2.66257e-06
-1.73897e-06
-3.97923e-06
4.04256e-07
-3.62634e-06
8.64681e-07
-4.16608e-07
-1.05538e-05
-4.11833e-07
-1.05012e-05
-7.14492e-07
-1.16005e-05
-1.6715e-07
-1.07393e-05
3.30302e-07
-1.07966e-05
1.08387e-06
-1.25408e-05
2.15365e-06
-1.14014e-05
2.82442e-06
-9.86368e-06
3.71837e-06
-9.21144e-06
4.3326e-06
-8.39699e-06
4.83813e-06
-6.42566e-06
7.60412e-06
-4.13667e-06
1.28457e-05
-4.1524e-07
1.45488e-05
2.34046e-06
8.72652e-06
8.90394e-06
1.35967e-06
2.17262e-05
-7.34429e-07
2.48903e-05
-2.01064e-06
1.92256e-05
-1.96665e-06
1.08586e-05
-2.97125e-06
3.97693e-06
-3.36904e-06
-3.31214e-06
-1.15123e-06
-5.61262e-06
-5.72802e-08
-8.69726e-07
-9.68151e-06
-1.4913e-06
-9.87744e-06
-1.85161e-06
-1.1238e-05
-1.81106e-06
-1.07784e-05
-1.09771e-06
-1.15088e-05
1.39008e-07
-1.37767e-05
8.62602e-07
-1.21192e-05
1.51896e-06
-1.05156e-05
1.61265e-06
-9.28847e-06
1.07145e-06
-7.84086e-06
-6.03192e-07
-4.74275e-06
-2.88859e-06
-1.85103e-06
-3.59528e-06
1.29392e-06
1.73082e-06
1.03777e-05
4.06405e-06
2.14244e-05
-6.05463e-06
2.17398e-05
-7.63896e-06
2.19907e-05
-5.38231e-06
1.77803e-05
-3.66346e-06
9.55903e-06
-3.71147e-06
4.08975e-06
-4.20367e-06
-2.83721e-06
-1.92341e-06
-8.02263e-06
-1.8038e-06
-1.12934e-06
-8.55197e-06
-1.86968e-06
-9.1369e-06
-2.32217e-06
-1.07854e-05
-2.23237e-06
-1.08681e-05
-1.6773e-06
-1.20642e-05
-2.10976e-07
-1.52453e-05
9.25669e-07
-1.32215e-05
1.77748e-06
-1.11048e-05
2.11148e-06
-9.34489e-06
2.19912e-06
-7.76889e-06
1.84061e-06
-4.37658e-06
1.3919e-06
-1.44007e-06
-3.77769e-06
6.37368e-06
-1.01914e-05
1.68409e-05
-1.02298e-05
2.80654e-05
-1.48062e-05
2.82423e-05
-1.80251e-05
1.77654e-05
-1.51453e-05
1.61304e-05
-9.7565e-06
9.30549e-06
-6.18861e-06
5.65833e-06
-4.79891e-06
5.01984e-06
-1.81555e-06
-4.98918e-06
-3.04476e-06
-2.97834e-05
3.91157e-05
-2.84927e-05
1.54982e-05
8.64173e-06
-1.40913e-06
4.32604e-05
4.48629e-06
6.26878e-05
1.42524e-05
6.91061e-05
2.27074e-05
6.8657e-05
2.67348e-05
6.7498e-05
2.82189e-05
6.61663e-05
3.19859e-05
6.23849e-05
3.85638e-05
5.7542e-05
4.39938e-05
5.24333e-05
4.46799e-05
5.08291e-05
3.94427e-05
5.03943e-05
4.00174e-05
4.61114e-05
4.68728e-05
3.13149e-05
6.15973e-05
1.16221e-05
7.50408e-05
-5.25411e-06
5.66076e-05
3.27023e-05
-2.25709e-05
5.10019e-05
-1.44146e-05
-6.65829e-06
1.86423e-05
-3.69399e-05
4.62401e-05
-2.07513e-05
6.53172e-05
-7.12164e-06
7.74535e-05
3.42026e-06
8.3127e-05
1.09319e-05
8.56769e-05
1.37756e-05
8.71697e-05
1.52321e-05
8.48756e-05
2.03899e-05
7.77681e-05
2.6742e-05
6.84955e-05
2.84094e-05
6.47777e-05
2.06829e-05
6.69454e-05
1.78694e-05
6.72251e-05
2.64855e-05
5.44359e-05
5.0919e-05
2.16755e-05
8.02519e-05
8.3696e-07
6.09962e-05
2.38662e-05
-1.09796e-05
6.06393e-05
9.50497e-06
-2.67453e-05
2.67874e-05
-5.13324e-05
4.52464e-05
-3.42375e-05
5.82746e-05
-1.74578e-05
6.69323e-05
-4.00269e-06
7.50772e-05
4.48807e-06
7.99777e-05
1.03371e-05
8.34757e-05
1.25564e-05
8.44079e-05
1.91511e-05
7.72459e-05
3.00001e-05
6.77388e-05
3.2328e-05
6.60324e-05
1.79941e-05
6.97636e-05
9.02627e-06
6.48223e-05
2.00052e-05
4.81424e-05
5.18108e-05
1.59535e-05
9.81493e-05
-1.52297e-05
8.64727e-05
2.56657e-05
7.30269e-06
5.63655e-05
2.74641e-05
-4.14138e-05
3.59502e-05
-5.77016e-05
4.42528e-05
-3.85262e-05
5.17142e-05
-2.158e-05
5.67873e-05
-6.13338e-06
6.35651e-05
8.15979e-07
6.78558e-05
8.51104e-06
7.11608e-05
1.1067e-05
7.07894e-05
1.86095e-05
6.64475e-05
3.1095e-05
6.30212e-05
3.46243e-05
6.32217e-05
1.75509e-05
6.42329e-05
6.58475e-06
5.58738e-05
2.3075e-05
3.19576e-05
6.68898e-05
-2.23673e-06
0.000118859
-2.45943e-05
9.19555e-05
8.27704e-06
2.69589e-05
3.86725e-05
3.69743e-05
-4.59563e-05
4.22831e-05
-6.24344e-05
4.36394e-05
-6.04604e-05
4.81611e-05
-4.4541e-05
4.94964e-05
-2.38567e-05
5.45354e-05
-7.67907e-06
5.73837e-05
2.96981e-06
5.86176e-05
7.63578e-06
5.43274e-05
1.86674e-05
5.43119e-05
2.91064e-05
5.71859e-05
3.14415e-05
6.09638e-05
1.31515e-05
5.89301e-05
6.39059e-06
4.5115e-05
3.31323e-05
1.90476e-05
9.17125e-05
-7.22687e-06
0.000142508
-2.27122e-05
9.50065e-05
-1.14678e-05
3.29597e-05
1.72321e-05
4.24278e-05
-4.98594e-05
4.75661e-05
-7.63915e-05
4.7267e-05
-6.94415e-05
4.91198e-05
-5.96162e-05
5.32408e-05
-3.51695e-05
5.61782e-05
-2.19474e-05
5.32981e-05
-8.32837e-07
4.65182e-05
6.85009e-06
4.34622e-05
1.81506e-05
4.84544e-05
2.41595e-05
5.59501e-05
2.38515e-05
5.96838e-05
8.56363e-06
4.75362e-05
1.06503e-05
3.41608e-05
4.43273e-05
1.26984e-05
0.000113162
-6.78032e-06
0.000161513
-1.81693e-05
9.69703e-05
-2.84111e-05
3.14533e-05
-1.74529e-05
4.65318e-05
-6.24862e-05
4.86607e-05
-7.88492e-05
5.27821e-05
-5.71492e-05
5.38514e-05
-4.27083e-05
5.74463e-05
-2.82251e-05
5.5465e-05
-1.81043e-05
5.23071e-05
3.06566e-06
4.0888e-05
1.22113e-05
3.58706e-05
2.09391e-05
4.17001e-05
1.80559e-05
5.19925e-05
1.44117e-05
5.60741e-05
2.3024e-06
3.60505e-05
-8.4621e-06
2.30106e-05
3.71486e-05
9.21736e-06
0.000127697
-4.9694e-06
0.000175953
-1.58453e-05
0.000100416
-4.21477e-05
2.97278e-05
-6.7567e-05
4.46066e-05
-8.16632e-05
4.27329e-05
-6.63931e-05
4.63873e-05
-5.51211e-05
4.80552e-05
-4.27499e-05
4.90528e-05
-3.23178e-05
4.76216e-05
-2.24937e-05
4.93348e-05
-3.92712e-06
4.51416e-05
2.17837e-05
4.07052e-05
2.26269e-05
4.29554e-05
1.35773e-05
4.5783e-05
9.97953e-06
3.62066e-05
5.64198e-06
1.61556e-05
-1.00657e-05
1.11151e-05
2.05778e-05
9.4066e-06
0.00012156
8.05364e-07
0.000186119
-1.00462e-05
0.000104945
-4.79133e-05
-1.83764e-06
-6.7139e-06
-3.29265e-06
-7.68159e-06
-4.38632e-06
-9.69113e-06
-3.53476e-06
-1.17136e-05
-2.05874e-06
-1.35039e-05
3.81853e-07
-1.3612e-05
3.3557e-06
-3.72884e-06
4.79409e-06
8.31694e-09
2.93748e-06
4.58126e-06
-1.28445e-06
1.02376e-05
-5.48788e-06
1.52042e-05
-7.54366e-06
1.43075e-05
-6.20761e-06
1.26788e-05
-4.58793e-06
1.63416e-05
-2.96102e-06
2.62152e-05
-1.21738e-05
4.27011e-05
-3.04355e-05
2.91257e-05
-4.14434e-05
1.22133e-05
-4.26749e-05
3.25522e-06
-3.31262e-05
6.3299e-06
-1.50531e-05
-2.84824e-06
1.48899e-07
-5.8915e-06
-5.85282e-06
1.72533e-05
-3.10526e-06
-3.60833e-06
-5.40242e-06
-5.38393e-06
-6.11797e-06
-8.97554e-06
-4.95242e-06
-1.28416e-05
-2.07922e-06
-7.22739e-06
3.86586e-06
-1.02335e-05
8.29733e-06
-9.18101e-06
1.07525e-05
-2.64685e-06
1.15387e-05
4.99376e-06
1.2381e-05
9.37314e-06
1.02832e-05
1.33752e-05
8.11291e-06
1.38707e-05
4.96878e-06
1.48442e-05
2.88607e-06
1.609e-05
5.64368e-06
1.83021e-05
1.77056e-05
2.81878e-05
1.39512e-05
4.06023e-05
-7.28971e-07
2.29356e-05
-5.93044e-06
2.62187e-06
-9.59104e-06
-1.78331e-05
-8.22132e-07
-3.64263e-05
6.94888e-06
-2.78334e-05
-1.36085e-05
2.61652e-05
-3.44401e-06
-1.64116e-07
-7.57542e-06
-1.25265e-06
-1.01636e-05
-6.47498e-06
-6.46456e-06
-5.51646e-06
-6.51079e-06
-7.48758e-06
1.30688e-06
-2.00581e-05
7.75098e-06
-1.41179e-05
7.74087e-06
-3.66516e-06
4.80987e-06
5.89741e-06
8.17002e-07
1.14628e-05
4.60391e-07
1.42816e-05
1.83665e-06
1.56362e-05
6.88985e-06
2.07617e-05
1.21309e-05
2.64115e-05
1.71079e-05
2.48121e-05
3.13256e-05
1.88026e-05
5.23745e-05
1.93218e-05
7.09372e-05
1.27458e-05
7.67974e-05
3.78263e-06
6.57481e-05
-1.53371e-05
7.65476e-05
-3.24177e-05
8.43889e-05
-4.23642e-05
-4.84532e-05
9.57516e-05
-9.67147e-06
-2.59239e-06
-1.69372e-05
-4.96492e-06
-1.18775e-05
-1.88806e-05
-1.70941e-05
-2.32084e-05
-2.08584e-05
-2.27104e-05
-1.51425e-05
-2.9272e-05
-1.38567e-05
-2.30809e-05
-1.49362e-05
-1.25524e-05
-1.44628e-05
-4.3996e-06
-1.15365e-05
-1.4046e-06
-8.58426e-06
1.93821e-06
-5.92866e-06
4.03254e-06
-1.57218e-06
8.12092e-06
3.6929e-06
1.42432e-05
1.29902e-05
1.78002e-05
2.56935e-05
1.87843e-05
3.57621e-05
2.03714e-05
6.00782e-05
6.91575e-06
6.148e-05
-2.07872e-07
7.78101e-05
-1.62315e-05
9.06383e-05
-2.66024e-05
9.40603e-05
-3.7337e-05
-4.66498e-05
0.000101634
-1.69538e-06
-5.18243e-05
-8.5575e-06
-5.87519e-05
-2.46305e-05
-8.17497e-05
-4.94881e-05
-0.000110849
-7.18704e-05
-0.000100834
-9.45191e-05
-9.37194e-05
-0.000109107
-8.29502e-05
-0.000108218
-7.32361e-05
-9.79752e-05
-6.12007e-05
-8.11589e-05
-4.8647e-05
-6.44128e-05
-3.37301e-05
-4.45321e-05
-2.82918e-05
-2.47439e-05
-2.10841e-05
-1.03759e-05
-7.34156e-06
2.94691e-06
-2.2915e-06
1.36812e-05
2.79797e-06
2.74398e-05
1.93592e-06
3.85854e-05
-7.95408e-06
5.02848e-05
-1.38662e-05
6.23483e-05
-2.92116e-05
6.71204e-05
-3.98899e-05
7.3237e-05
-5.52669e-05
-7.0399e-05
7.91715e-05
1.04512e-05
-5.33315e-05
-7.41215e-06
-5.47402e-05
-6.39351e-05
-4.88585e-05
-0.000100762
-9.68944e-05
-0.000120848
-0.000103823
-0.000128605
-8.51728e-05
-0.000130384
-7.58737e-05
-0.000130053
-7.666e-05
-0.000126821
-8.33025e-05
-0.000112211
-0.000139135
-0.000101279
-0.000121169
-8.91281e-05
-0.000108485
-7.81822e-05
-9.2652e-05
-6.33699e-05
-7.2606e-05
-4.61312e-05
-6.10898e-05
-2.77031e-05
-4.99015e-05
-7.76815e-06
-4.87175e-05
9.41623e-06
-5.29346e-05
2.69952e-05
-5.70855e-05
3.26698e-05
-7.55872e-05
3.60225e-05
-8.5106e-05
3.97186e-05
-0.000104983
-0.000130741
4.31701e-05
-2.55745e-05
3.34407e-06
-2.22862e-05
2.46139e-05
-1.73975e-05
1.32277e-05
-3.31228e-05
-5.45186e-05
-8.65753e-06
-5.1251e-05
4.18202e-05
-5.34647e-05
4.48081e-05
-6.22385e-06
-2.54063e-05
2.36544e-05
-6.7962e-05
8.43637e-06
-8.70784e-05
-7.06703e-05
-9.00967e-05
-7.41789e-05
-8.64501e-05
-6.77828e-05
-8.08359e-05
-7.19106e-05
-7.63374e-05
-0.000104632
-6.91003e-05
-8.61227e-05
-5.56558e-05
-0.000137922
-4.11638e-05
-0.000153307
-2.99682e-05
-0.000156859
-2.15029e-05
-0.000167035
-1.38849e-05
-0.000149887
-4.17303e-06
-8.65499e-05
1.24309e-06
-7.87238e-05
-7.39783e-05
1.05529e-05
-6.13845e-05
6.35039e-05
-5.05465e-05
1.57668e-05
-1.35191e-05
-1.83693e-06
2.94512e-05
-4.91388e-06
5.33035e-05
-3.73646e-05
5.56343e-05
-5.36623e-05
3.83663e-05
2.88625e-05
7.6747e-06
9.27243e-05
-1.08247e-06
6.29116e-05
1.93306e-05
-1.03536e-05
3.75114e-05
-3.55279e-05
3.05813e-05
-5.79752e-05
2.04253e-05
-6.54948e-05
-5.59779e-06
-3.48586e-05
-2.88979e-05
-2.11033e-05
-4.36352e-05
-7.39902e-05
-4.43205e-05
-9.81509e-05
-4.39345e-05
-0.000103874
-3.80915e-05
-0.000110322
-2.63412e-05
-7.82767e-05
-2.61389e-05
-4.04661e-05
-2.34254e-05
-6.45987e-05
-7.92318e-05
-1.32565e-05
7.29905e-06
5.57503e-05
1.45324e-05
6.78293e-06
2.40453e-05
-1.45231e-05
3.6796e-05
-1.88889e-05
3.15148e-05
-3.21851e-05
2.31745e-05
-4.53091e-05
2.64464e-05
2.53893e-05
4.39606e-05
7.53352e-05
5.9338e-05
4.88414e-05
1.52993e-05
3.43035e-05
-1.56998e-05
-3.45128e-06
-2.12937e-05
-4.92504e-05
-2.98651e-05
-5.15005e-05
-1.06536e-05
-3.88519e-05
1.91312e-05
-3.9662e-05
4.95385e-05
-4.1799e-05
6.4492e-05
-4.48143e-05
6.46379e-05
-4.20178e-05
6.62629e-05
-3.31357e-05
9.01329e-05
-3.27935e-05
8.99833e-05
-3.9248e-05
7.59872e-05
-4.94068e-05
-5.99967e-05
5.82443e-05
1.54182e-05
4.03474e-05
6.80068e-06
1.55224e-05
1.66043e-06
-9.24666e-06
3.45548e-06
-2.04267e-05
-3.73914e-07
-2.83042e-05
-8.43088e-06
-3.7212e-05
1.62875e-05
1.17752e-06
5.32445e-05
3.8441e-05
6.47478e-05
3.74187e-05
7.63436e-05
2.24793e-05
6.89745e-05
3.78232e-06
4.55148e-05
-2.57458e-05
3.74094e-05
-4.3779e-05
4.01644e-05
-4.41443e-05
3.80243e-05
-4.26576e-05
3.59934e-05
-4.57087e-05
3.63239e-05
-5.00086e-05
4.10234e-05
-4.96312e-05
5.03318e-05
-4.36085e-05
5.08632e-05
-3.24254e-05
4.28436e-05
-3.05775e-05
3.1006e-05
-3.74406e-05
-4.70249e-05
1.80914e-05
1.33133e-05
2.70377e-05
2.17199e-05
7.10336e-06
2.07172e-05
-8.29976e-06
1.44295e-05
-1.41454e-05
4.44422e-06
-1.83244e-05
-1.03434e-05
-2.23957e-05
4.06974e-07
-9.48675e-06
3.59996e-05
2.0882e-06
5.63712e-05
1.68786e-05
6.15333e-05
1.69811e-05
5.51195e-05
9.92922e-06
4.14998e-05
-1.23095e-05
2.9633e-05
-3.26567e-05
2.74562e-05
-4.03067e-05
3.0747e-05
-4.48821e-05
3.26753e-05
-4.76566e-05
3.05206e-05
-4.71969e-05
2.57504e-05
-4.47319e-05
2.10167e-05
-3.96726e-05
2.28884e-05
-3.45844e-05
2.46811e-05
-3.25179e-05
2.09394e-05
-3.37768e-05
-3.57734e-05
9.64602e-06
1.03052e-05
1.67342e-05
1.15164e-05
5.89621e-06
8.86452e-06
-5.6399e-06
6.58309e-06
-1.18621e-05
3.07406e-06
-1.48162e-05
-3.09985e-06
-1.62184e-05
-2.50829e-06
-1.00578e-05
6.85294e-06
-7.25278e-06
2.25679e-05
1.5653e-06
3.07027e-05
8.81274e-06
3.58421e-05
4.9784e-06
3.51364e-05
-1.12032e-05
2.6821e-05
-2.50911e-05
2.0619e-05
-3.27206e-05
1.49585e-05
-3.67955e-05
9.62059e-06
-4.00879e-05
5.12652e-06
-4.14337e-05
2.27019e-06
-4.08497e-05
1.5196e-06
-3.79423e-05
1.83477e-06
-3.4483e-05
1.1384e-06
-3.17252e-05
-2.29604e-06
-3.02764e-05
-2.91949e-05
-8.71107e-06
7.11848e-06
9.61783e-06
1.30177e-05
-1.91698e-09
1.26509e-05
-5.27272e-06
9.29412e-06
-8.50548e-06
5.13866e-06
-1.06612e-05
-8.80297e-08
-1.09906e-05
-1.89068e-06
-8.24793e-06
-2.35785e-06
-6.75631e-06
3.85199e-06
-4.55352e-06
1.22774e-05
3.32656e-07
1.91921e-05
-1.91899e-06
1.92e-05
-1.129e-05
1.48243e-05
-2.06839e-05
1.0764e-05
-2.85791e-05
7.05595e-06
-3.35765e-05
3.28167e-06
-3.6284e-05
-6.6886e-07
-3.74921e-05
-4.33271e-06
-3.71722e-05
-7.61377e-06
-3.45776e-05
-1.03552e-05
-3.15704e-05
-1.26281e-05
-2.92262e-05
-1.51919e-05
-2.75154e-05
-2.62802e-05
-1.80157e-05
5.20316e-06
4.41541e-06
7.47993e-06
-2.27802e-06
8.04301e-06
-5.8356e-06
7.04154e-06
-7.5042e-06
4.9759e-06
-8.59609e-06
2.65728e-06
-8.6725e-06
2.10572e-06
-7.69702e-06
2.15656e-06
-6.80769e-06
4.06827e-06
-6.46498e-06
8.72449e-06
-4.32703e-06
1.27059e-05
-5.88922e-06
1.20446e-05
-1.06452e-05
9.27057e-06
-1.77975e-05
5.21729e-06
-2.44255e-05
1.19766e-06
-2.95391e-05
-2.30052e-06
-3.27962e-05
-5.9308e-06
-3.39005e-05
-9.31424e-06
-3.3809e-05
-1.19104e-05
-3.19926e-05
-1.33759e-05
-3.00929e-05
-1.42673e-05
-2.83215e-05
-1.53532e-05
-2.64032e-05
-2.48169e-05
-1.6816e-05
3.1382e-06
1.27841e-06
4.8965e-06
-4.03581e-06
4.83594e-06
-5.77499e-06
4.30218e-06
-6.97073e-06
3.55571e-06
-7.8501e-06
2.84323e-06
-7.96061e-06
3.00427e-06
-7.8587e-06
3.80409e-06
-7.60827e-06
5.13355e-06
-7.79539e-06
7.59886e-06
-6.79319e-06
9.88071e-06
-8.16944e-06
1.03432e-05
-1.11009e-05
8.5615e-06
-1.59879e-05
4.94524e-06
-2.09024e-05
8.95895e-07
-2.57213e-05
-2.58032e-06
-2.94704e-05
-5.57377e-06
-3.1036e-05
-8.31456e-06
-3.11302e-05
-1.08343e-05
-2.9492e-05
-1.30747e-05
-2.78315e-05
-1.47459e-05
-2.66094e-05
-1.60494e-05
-2.50833e-05
-2.33731e-05
-1.74947e-05
1.88966e-06
-6.11466e-07
2.8908e-06
-5.03701e-06
3.14588e-06
-6.03029e-06
3.14546e-06
-6.97074e-06
3.01648e-06
-7.72169e-06
3.13848e-06
-8.08325e-06
3.64218e-06
-8.36307e-06
4.44007e-06
-8.40686e-06
5.43705e-06
-8.79307e-06
7.19991e-06
-8.55681e-06
8.7313e-06
-9.70093e-06
9.58538e-06
-1.19405e-05
9.16168e-06
-1.558e-05
7.3472e-06
-1.91735e-05
4.52041e-06
-2.28563e-05
9.03086e-07
-2.58168e-05
-2.56491e-06
-2.75653e-05
-5.73897e-06
-2.79587e-05
-8.6469e-06
-2.66013e-05
-1.16325e-05
-2.48526e-05
-1.39825e-05
-2.42634e-05
-1.53786e-05
-2.36848e-05
-2.22731e-05
-1.64835e-05
1.2059e-06
-1.81668e-06
1.98097e-06
-5.81208e-06
2.45158e-06
-6.50125e-06
2.69104e-06
-7.21071e-06
2.82633e-06
-7.85761e-06
3.11226e-06
-8.36985e-06
3.52826e-06
-8.77976e-06
4.21978e-06
-9.09906e-06
5.01275e-06
-9.58667e-06
6.35025e-06
-9.89491e-06
7.57677e-06
-1.09275e-05
8.49682e-06
-1.28586e-05
8.3418e-06
-1.54349e-05
7.15078e-06
-1.79544e-05
5.097e-06
-2.06792e-05
2.1993e-06
-2.27388e-05
-1.31511e-06
-2.39893e-05
-4.8764e-06
-2.43798e-05
-7.76468e-06
-2.37053e-05
-1.06373e-05
-2.1993e-05
-1.33659e-05
-2.15388e-05
-1.5187e-05
-2.1863e-05
-2.1109e-05
-1.6359e-05
8.76665e-07
-2.69502e-06
1.58011e-06
-6.5163e-06
2.09325e-06
-7.01498e-06
2.42764e-06
-7.54572e-06
2.58954e-06
-8.02013e-06
2.71797e-06
-8.49892e-06
2.87972e-06
-8.94212e-06
3.17723e-06
-9.39717e-06
3.56073e-06
-9.9707e-06
4.42755e-06
-1.07622e-05
5.34093e-06
-1.18411e-05
5.80196e-06
-1.33196e-05
5.34319e-06
-1.49709e-05
4.25797e-06
-1.6812e-05
2.37825e-06
-1.86351e-05
-4.34218e-07
-1.97896e-05
-3.3887e-06
-2.09323e-05
-6.10747e-06
-2.16112e-05
-8.58856e-06
-2.1205e-05
-1.06907e-05
-1.98837e-05
-1.2691e-05
-1.95401e-05
-1.41388e-05
-2.04183e-05
-2.02005e-05
-1.50507e-05
7.10694e-07
-3.40537e-06
1.30043e-06
-7.10649e-06
1.67565e-06
-7.39092e-06
1.88983e-06
-7.76072e-06
1.97232e-06
-8.10352e-06
1.96524e-06
-8.49274e-06
1.98518e-06
-8.96295e-06
2.04742e-06
-9.46026e-06
2.16019e-06
-1.00843e-05
2.36932e-06
-1.0972e-05
2.53758e-06
-1.20102e-05
2.41172e-06
-1.31943e-05
1.88946e-06
-1.44349e-05
9.25305e-07
-1.5802e-05
-7.17862e-07
-1.6923e-05
-2.7254e-06
-1.77197e-05
-4.80927e-06
-1.87706e-05
-6.968e-06
-1.94051e-05
-9.10497e-06
-1.90523e-05
-1.06929e-05
-1.8287e-05
-1.18684e-05
-1.83636e-05
-1.30034e-05
-1.92843e-05
-1.90375e-05
-1.41754e-05
5.65489e-07
-3.97209e-06
8.91669e-07
-7.43343e-06
1.12316e-06
-7.62305e-06
1.31609e-06
-7.95425e-06
1.47089e-06
-8.2589e-06
1.58215e-06
-8.60455e-06
1.65574e-06
-9.03704e-06
1.69571e-06
-9.50068e-06
1.68649e-06
-1.00754e-05
1.56843e-06
-1.08543e-05
1.35188e-06
-1.1794e-05
8.98019e-07
-1.27406e-05
1.05375e-07
-1.36364e-05
-9.00091e-07
-1.47675e-05
-2.06414e-06
-1.57331e-05
-3.1548e-06
-1.65769e-05
-4.65258e-06
-1.72163e-05
-6.6042e-06
-1.74145e-05
-8.30226e-06
-1.73352e-05
-9.60344e-06
-1.69756e-05
-1.07403e-05
-1.72245e-05
-1.19758e-05
-1.80512e-05
-1.78618e-05
-1.31583e-05
3.79408e-07
-4.35158e-06
6.37688e-07
-7.69217e-06
8.9006e-07
-7.87596e-06
1.09286e-06
-8.1576e-06
1.26731e-06
-8.43389e-06
1.42372e-06
-8.76145e-06
1.51158e-06
-9.12534e-06
1.53944e-06
-9.52892e-06
1.47359e-06
-1.00099e-05
1.23583e-06
-1.06168e-05
8.55018e-07
-1.14134e-05
3.05756e-07
-1.21917e-05
-4.16311e-07
-1.29141e-05
-1.37166e-06
-1.38055e-05
-2.45858e-06
-1.46239e-05
-3.65589e-06
-1.53524e-05
-5.1759e-06
-1.56592e-05
-6.77995e-06
-1.57843e-05
-8.25314e-06
-1.58489e-05
-9.58e-06
-1.56427e-05
-1.08512e-05
-1.59527e-05
-1.23106e-05
-1.65924e-05
-1.63574e-05
-1.38232e-05
2.81788e-07
-4.6344e-06
5.21304e-07
-7.93233e-06
7.36735e-07
-8.09193e-06
8.64952e-07
-8.28632e-06
9.58732e-07
-8.52814e-06
1.01772e-06
-8.82086e-06
1.05832e-06
-9.1663e-06
1.09404e-06
-9.56494e-06
1.09213e-06
-1.00082e-05
9.00833e-07
-1.04258e-05
4.96553e-07
-1.10094e-05
8.49821e-10
-1.16963e-05
-5.47561e-07
-1.23655e-05
-1.41498e-06
-1.29372e-05
-2.49739e-06
-1.35338e-05
-3.84788e-06
-1.39891e-05
-5.10851e-06
-1.43815e-05
-6.2205e-06
-1.46604e-05
-7.4231e-06
-1.46406e-05
-8.49425e-06
-1.45687e-05
-9.61345e-06
-1.48337e-05
-1.11055e-05
-1.51027e-05
-1.46424e-05
-1.2826e-05
2.31133e-07
-4.8655e-06
3.31466e-07
-8.03301e-06
3.93331e-07
-8.15423e-06
4.37498e-07
-8.33091e-06
4.54608e-07
-8.54564e-06
4.33586e-07
-8.80019e-06
3.72137e-07
-9.10514e-06
2.66567e-07
-9.45961e-06
1.19275e-07
-9.86115e-06
-7.37908e-08
-1.02329e-05
-4.52357e-07
-1.0631e-05
-9.87985e-07
-1.11609e-05
-1.60774e-06
-1.17458e-05
-2.29476e-06
-1.22486e-05
-3.16373e-06
-1.26655e-05
-4.29683e-06
-1.28505e-05
-5.52187e-06
-1.31501e-05
-6.78845e-06
-1.33889e-05
-7.99944e-06
-1.34272e-05
-9.1355e-06
-1.34318e-05
-1.03311e-05
-1.36392e-05
-1.17262e-05
-1.37084e-05
-1.33326e-05
-1.30427e-05
1.40822e-07
-5.00723e-06
2.10189e-07
-8.1029e-06
2.63999e-07
-8.20846e-06
2.84503e-07
-8.35179e-06
2.67337e-07
-8.52881e-06
2.06643e-07
-8.73977e-06
8.81995e-08
-8.98692e-06
-8.17992e-08
-9.28978e-06
-3.1816e-07
-9.62493e-06
-6.1932e-07
-9.93186e-06
-1.00644e-06
-1.02441e-05
-1.53048e-06
-1.06369e-05
-2.26583e-06
-1.10104e-05
-3.05374e-06
-1.14614e-05
-3.90931e-06
-1.1806e-05
-4.63011e-06
-1.21298e-05
-5.41123e-06
-1.23659e-05
-6.4706e-06
-1.23274e-05
-7.51498e-06
-1.23816e-05
-8.54516e-06
-1.24013e-05
-9.79246e-06
-1.23926e-05
-1.1203e-05
-1.22999e-05
-1.22211e-05
-1.2319e-05
1.36017e-07
-5.14311e-06
1.83956e-07
-8.15108e-06
2.08338e-07
-8.23315e-06
2.00401e-07
-8.34416e-06
1.50704e-07
-8.47939e-06
6.71274e-08
-8.65642e-06
-5.0896e-08
-8.86907e-06
-2.33737e-07
-9.10707e-06
-5.22461e-07
-9.33631e-06
-8.50655e-07
-9.60378e-06
-1.17168e-06
-9.92318e-06
-1.5959e-06
-1.02128e-05
-2.13226e-06
-1.04741e-05
-2.9032e-06
-1.06885e-05
-3.75503e-06
-1.09556e-05
-4.70742e-06
-1.11735e-05
-5.86654e-06
-1.12051e-05
-6.87458e-06
-1.13177e-05
-7.83049e-06
-1.14248e-05
-8.83679e-06
-1.13945e-05
-9.99351e-06
-1.12367e-05
-1.11291e-05
-1.11649e-05
-1.10993e-05
-1.22564e-05
3.88771e-08
-5.18279e-06
2.05163e-08
-8.13314e-06
-2.09902e-09
-8.21085e-06
-4.82945e-08
-8.29823e-06
-1.25461e-07
-8.40244e-06
-2.50977e-07
-8.53107e-06
-4.21213e-07
-8.69895e-06
-6.45867e-07
-8.8825e-06
-9.09274e-07
-9.07298e-06
-1.25858e-06
-9.25456e-06
-1.73569e-06
-9.44618e-06
-2.28126e-06
-9.66732e-06
-2.82388e-06
-9.93112e-06
-3.47795e-06
-1.00349e-05
-4.24137e-06
-1.01887e-05
-5.05019e-06
-1.03643e-05
-5.76554e-06
-1.04875e-05
-6.52404e-06
-1.05571e-05
-7.51713e-06
-1.04306e-05
-8.6099e-06
-1.03011e-05
-9.67018e-06
-1.01768e-05
-1.0766e-05
-1.00704e-05
-9.88093e-06
-1.19882e-05
3.67631e-08
-5.21933e-06
9.91878e-09
-8.10644e-06
-3.01651e-08
-8.17099e-06
-8.9428e-08
-8.23917e-06
-1.72105e-07
-8.31993e-06
-2.90072e-07
-8.41323e-06
-4.59066e-07
-8.53004e-06
-6.81993e-07
-8.65962e-06
-9.52284e-07
-8.80273e-06
-1.27455e-06
-8.93237e-06
-1.70225e-06
-9.01859e-06
-2.23312e-06
-9.13652e-06
-2.87484e-06
-9.28923e-06
-3.45324e-06
-9.45509e-06
-4.03013e-06
-9.61254e-06
-4.74952e-06
-9.64162e-06
-5.64319e-06
-9.59181e-06
-6.74819e-06
-9.45023e-06
-7.73111e-06
-9.44651e-06
-8.62669e-06
-9.40468e-06
-9.52031e-06
-9.28358e-06
-1.05823e-05
-9.00877e-06
-8.8055e-06
-1.16621e-05
3.10741e-11
-5.22007e-06
-5.71351e-08
-8.0496e-06
-1.26099e-07
-8.10224e-06
-2.27352e-07
-8.13809e-06
-3.59622e-07
-8.18779e-06
-5.18394e-07
-8.25455e-06
-7.24298e-07
-8.32418e-06
-9.85664e-07
-8.39828e-06
-1.30362e-06
-8.4848e-06
-1.63887e-06
-8.59718e-06
-1.96e-06
-8.69755e-06
-2.3389e-06
-8.75762e-06
-2.85156e-06
-8.77639e-06
-3.53136e-06
-8.77556e-06
-4.3878e-06
-8.75277e-06
-5.18154e-06
-8.8476e-06
-5.9333e-06
-8.83733e-06
-6.57606e-06
-8.80558e-06
-7.30751e-06
-8.71364e-06
-8.25987e-06
-8.45147e-06
-9.36222e-06
-8.18128e-06
-1.03717e-05
-8.00011e-06
-7.77454e-06
-1.14058e-05
-1.02049e-08
-5.20957e-06
-6.56818e-08
-7.9942e-06
-1.2307e-07
-8.04499e-06
-1.99491e-07
-8.0618e-06
-3.05811e-07
-8.08156e-06
-4.49872e-07
-8.11054e-06
-6.32798e-07
-8.14127e-06
-8.59956e-07
-8.17112e-06
-1.15104e-06
-8.19372e-06
-1.55348e-06
-8.19478e-06
-2.05781e-06
-8.1933e-06
-2.61085e-06
-8.20463e-06
-3.145e-06
-8.2422e-06
-3.65367e-06
-8.26527e-06
-4.11319e-06
-8.29407e-06
-4.70279e-06
-8.25452e-06
-5.43209e-06
-8.10616e-06
-6.33744e-06
-7.89831e-06
-7.36208e-06
-7.68763e-06
-8.27569e-06
-7.53691e-06
-9.09003e-06
-7.36695e-06
-1.00394e-05
-7.05088e-06
-6.72165e-06
-1.10957e-05
-3.42022e-08
-5.17599e-06
-1.14037e-07
-7.91461e-06
-2.0056e-07
-7.95862e-06
-3.11826e-07
-7.95064e-06
-4.50184e-07
-7.94327e-06
-6.25761e-07
-7.93499e-06
-8.41814e-07
-7.92522e-06
-1.09865e-06
-7.91427e-06
-1.38999e-06
-7.90237e-06
-1.6916e-06
-7.89321e-06
-1.99593e-06
-7.88903e-06
-2.35027e-06
-7.85036e-06
-2.81289e-06
-7.77928e-06
-3.38038e-06
-7.69803e-06
-4.09642e-06
-7.57516e-06
-4.90147e-06
-7.44893e-06
-5.66054e-06
-7.34491e-06
-6.37552e-06
-7.18123e-06
-7.05429e-06
-7.00749e-06
-7.8575e-06
-6.73266e-06
-8.82061e-06
-6.40365e-06
-9.77184e-06
-6.10003e-06
-5.75186e-06
-1.07443e-05
-1.54291e-08
-5.16021e-06
-6.29625e-08
-7.86709e-06
-1.19405e-07
-7.90225e-06
-2.0013e-07
-7.86998e-06
-3.1229e-07
-7.83115e-06
-4.65667e-07
-7.78162e-06
-6.67552e-07
-7.72331e-06
-9.21207e-07
-7.66058e-06
-1.23014e-06
-7.59342e-06
-1.60352e-06
-7.51984e-06
-2.0517e-06
-7.44093e-06
-2.54336e-06
-7.35873e-06
-3.05185e-06
-7.27061e-06
-3.57855e-06
-7.17015e-06
-4.09766e-06
-7.05645e-06
-4.62879e-06
-6.91498e-06
-5.25676e-06
-6.71504e-06
-5.97737e-06
-6.45876e-06
-6.81935e-06
-6.16411e-06
-7.67131e-06
-5.87962e-06
-8.49676e-06
-5.57795e-06
-9.39182e-06
-5.20513e-06
-4.7883e-06
-1.03578e-05
-2.49256e-08
-5.13586e-06
-9.07003e-08
-7.80152e-06
-1.62939e-07
-7.83011e-06
-2.60409e-07
-7.77256e-06
-3.83787e-07
-7.70779e-06
-5.37525e-07
-7.62786e-06
-7.26029e-07
-7.53477e-06
-9.54052e-07
-7.43251e-06
-1.22286e-06
-7.32458e-06
-1.52953e-06
-7.21319e-06
-1.87577e-06
-7.09474e-06
-2.26643e-06
-6.96804e-06
-2.70925e-06
-6.82761e-06
-3.21797e-06
-6.66157e-06
-3.79971e-06
-6.47206e-06
-4.45534e-06
-6.25897e-06
-5.14429e-06
-6.02375e-06
-5.83439e-06
-5.76683e-06
-6.5254e-06
-5.47161e-06
-7.28012e-06
-5.12383e-06
-8.11911e-06
-4.7387e-06
-8.99657e-06
-4.32768e-06
-3.86863e-06
-9.91836e-06
9.84714e-09
-5.14532e-06
-2.85863e-08
-7.76305e-06
-7.7788e-08
-7.78094e-06
-1.50082e-07
-7.7003e-06
-2.48742e-07
-7.60913e-06
-3.78899e-07
-7.49768e-06
-5.49561e-07
-7.36406e-06
-7.66525e-07
-7.2155e-06
-1.03546e-06
-7.0556e-06
-1.36074e-06
-6.88791e-06
-1.73924e-06
-6.71627e-06
-2.16804e-06
-6.53925e-06
-2.63693e-06
-6.35865e-06
-3.13376e-06
-6.16346e-06
-3.65967e-06
-5.9467e-06
-4.2116e-06
-5.70424e-06
-4.80469e-06
-5.42901e-06
-5.4568e-06
-5.11297e-06
-6.16751e-06
-4.75952e-06
-6.91521e-06
-4.37506e-06
-7.69782e-06
-3.95564e-06
-8.53364e-06
-3.49191e-06
-2.97943e-06
-9.4245e-06
1.9953e-08
-5.1658e-06
-2.76149e-08
-7.71564e-06
-8.36988e-08
-7.72492e-06
-1.57903e-07
-7.62611e-06
-2.50462e-07
-7.51656e-06
-3.60558e-07
-7.38755e-06
-4.90184e-07
-7.23438e-06
-6.48204e-07
-7.05742e-06
-8.49861e-07
-6.8539e-06
-1.11338e-06
-6.62438e-06
-1.44556e-06
-6.38411e-06
-1.83992e-06
-6.14489e-06
-2.29288e-06
-5.90541e-06
-2.79579e-06
-5.66068e-06
-3.33404e-06
-5.40617e-06
-3.90542e-06
-5.1324e-06
-4.50477e-06
-4.8278e-06
-5.1281e-06
-4.48783e-06
-5.77978e-06
-4.10648e-06
-6.47506e-06
-3.67871e-06
-7.22274e-06
-3.20756e-06
-8.02095e-06
-2.69344e-06
-2.12981e-06
-8.87224e-06
5.52077e-08
-5.22057e-06
-1.85589e-08
-7.64179e-06
-9.83958e-08
-7.64507e-06
-1.84944e-07
-7.53956e-06
-2.83515e-07
-7.41796e-06
-3.92251e-07
-7.27876e-06
-5.08479e-07
-7.11809e-06
-6.43559e-07
-6.92227e-06
-8.06771e-07
-6.69064e-06
-1.00354e-06
-6.42759e-06
-1.24814e-06
-6.13951e-06
-1.55723e-06
-5.83577e-06
-1.93965e-06
-5.5228e-06
-2.3995e-06
-5.19988e-06
-2.92456e-06
-4.88143e-06
-3.49527e-06
-4.55943e-06
-4.09082e-06
-4.2307e-06
-4.70094e-06
-3.8761e-06
-5.33228e-06
-3.47384e-06
-5.9952e-06
-3.01472e-06
-6.69707e-06
-2.50514e-06
-7.44973e-06
-1.94091e-06
-1.32269e-06
-8.25783e-06
5.43131e-08
-5.27537e-06
-8.98183e-08
-7.49778e-06
-2.40749e-07
-7.49417e-06
-3.80116e-07
-7.40017e-06
-5.1844e-07
-7.2796e-06
-6.60641e-07
-7.1365e-06
-8.05625e-07
-6.97304e-06
-9.51153e-07
-6.77668e-06
-1.09929e-06
-6.54245e-06
-1.25529e-06
-6.27156e-06
-1.43217e-06
-5.96261e-06
-1.64364e-06
-5.62422e-06
-1.89823e-06
-5.26802e-06
-2.20506e-06
-4.89313e-06
-2.57646e-06
-4.50798e-06
-3.02873e-06
-4.10682e-06
-3.57e-06
-3.68757e-06
-4.18058e-06
-3.26395e-06
-4.81566e-06
-2.83742e-06
-5.45452e-06
-2.37483e-06
-6.11512e-06
-1.84419e-06
-6.82092e-06
-1.23462e-06
-5.6375e-07
-7.58115e-06
2.70895e-09
-5.27762e-06
-2.73708e-07
-7.22125e-06
-5.53402e-07
-7.21443e-06
-8.02348e-07
-7.15119e-06
-1.02962e-06
-7.05229e-06
-1.2401e-06