/*--------------------------------*- C++ -*----------------------------------*\
| =========                 |                                                 |
| \\      /  F ield         | OpenFOAM: The Open Source CFD Toolbox           |
|  \\    /   O peration     | Version:  2.4.0                                 |
|   \\  /    A nd           | Web:      www.OpenFOAM.org                      |
|    \\/     M anipulation  |                                                 |
\*---------------------------------------------------------------------------*/
FoamFile
{
    version     2.0;
    format      ascii;
    class       surfaceScalarField;
    location    "0.6";
    object      phi.mercury;
}
// * * * * * * * * * * * * * * * * * * * * * * * * * * * * * * * * * * * * * //

dimensions      [0 3 -1 0 0 0 0];

internalField   nonuniform List<scalar> 
4432
(
2.2852e-06
-2.2852e-06
4.82711e-06
-2.54191e-06
6.43082e-06
-1.60371e-06
9.24192e-06
-2.8111e-06
1.18094e-05
-2.56745e-06
1.349e-05
-1.68064e-06
1.54192e-05
-1.92921e-06
1.72626e-05
-1.84333e-06
1.97621e-05
-2.49952e-06
2.14965e-05
-1.73441e-06
2.19432e-05
-4.4669e-07
2.15401e-05
4.03056e-07
1.98429e-05
1.69726e-06
1.74015e-05
2.44138e-06
1.36749e-05
3.72656e-06
9.60259e-06
4.07234e-06
5.13407e-06
4.46851e-06
1.4684e-06
3.66567e-06
-1.33827e-06
2.80667e-06
-2.0213e-06
6.83023e-07
-1.33014e-06
-6.91163e-07
-1.85317e-06
5.23032e-07
-1.8532e-06
2.30596e-06
-4.59601e-06
4.76275e-06
-5.00456e-06
6.6288e-06
-3.47313e-06
9.25893e-06
-5.44892e-06
1.16756e-05
-4.99167e-06
1.35849e-05
-3.59549e-06
1.56837e-05
-4.03555e-06
1.76734e-05
-3.8406e-06
2.00655e-05
-4.90018e-06
2.1591e-05
-3.2632e-06
2.19914e-05
-8.47832e-07
2.15538e-05
8.40645e-07
2.0234e-05
3.01698e-06
1.7819e-05
4.85638e-06
1.39647e-05
7.5809e-06
9.6509e-06
8.38613e-06
5.40337e-06
8.71605e-06
1.60919e-06
7.45985e-06
-8.30253e-07
5.24612e-06
-1.72401e-06
1.57678e-06
-1.37798e-06
-1.0372e-06
-1.49147e-06
6.36525e-07
-3.34468e-06
2.31241e-06
-8.57625e-06
4.49854e-06
-8.95186e-06
6.98621e-06
-7.54934e-06
9.09098e-06
-9.47824e-06
1.12467e-05
-9.15817e-06
1.3662e-05
-7.99803e-06
1.58883e-05
-8.48521e-06
1.80458e-05
-8.24385e-06
1.94308e-05
-8.59079e-06
2.03062e-05
-5.91963e-06
2.17308e-05
-3.54705e-06
2.31504e-05
-1.13183e-06
2.24965e-05
3.5935e-06
1.98701e-05
7.48034e-06
1.48164e-05
1.26346e-05
9.21925e-06
1.39833e-05
4.0842e-06
1.38511e-05
3.04096e-07
1.124e-05
-1.63837e-06
7.18859e-06
-1.37966e-06
1.31807e-06
-1.68359e-07
-2.24851e-06
8.78842e-07
-4.10678e-07
-2.46584e-06
2.29638e-06
-3.33672e-05
4.19053e-06
-3.37584e-05
7.23921e-06
-3.29783e-05
8.7585e-06
-3.44919e-05
1.0829e-05
-3.49078e-05
1.37148e-05
-3.48472e-05
1.59096e-05
-3.5925e-05
1.79433e-05
-3.58418e-05
1.90203e-05
-3.61533e-05
2.05835e-05
-3.35016e-05
2.25484e-05
-3.10031e-05
2.26355e-05
-2.54794e-05
2.06824e-05
-1.37738e-05
1.78093e-05
6.49059e-08
1.37796e-05
1.55163e-05
8.75044e-06
1.89795e-05
4.11517e-06
1.84862e-05
5.02252e-07
1.48529e-05
-1.53385e-06
9.22469e-06
-1.89425e-06
1.67847e-06
-6.21869e-07
-3.52089e-06
7.63675e-07
-1.79622e-06
-1.70216e-06
1.8558e-06
-4.00552e-05
3.50199e-06
-3.92817e-05
6.2978e-06
-3.98659e-05
7.73679e-06
-3.83541e-05
9.01297e-06
-3.82555e-05
1.18379e-05
-3.77347e-05
1.41906e-05
-3.59946e-05
1.55963e-05
-3.4881e-05
1.68732e-05
-3.33982e-05
1.90953e-05
-3.24652e-05
2.09649e-05
-3.23164e-05
2.19917e-05
-3.00259e-05
2.32599e-05
-3.77796e-05
1.94281e-05
-2.25822e-05
1.21845e-05
1.33346e-06
6.97572e-06
2.0645e-05
2.92845e-06
2.24793e-05
1.1111e-08
1.77698e-05
-1.43731e-06
1.06731e-05
-2.32643e-06
2.56758e-06
-1.73413e-06
-4.11319e-06
4.27494e-07
-3.95785e-06
-1.27468e-06
-1.68287e-08
-1.80971e-05
-2.55666e-07
-1.77028e-05
-3.21144e-07
-1.86564e-05
2.16339e-07
-1.74523e-05
7.02001e-07
-1.73667e-05
1.51877e-06
-1.86388e-05
2.65681e-06
-1.75468e-05
3.38591e-06
-1.60595e-05
4.27091e-06
-1.54445e-05
4.98529e-06
-1.46425e-05
5.68472e-06
-1.25957e-05
1.01308e-05
-1.00476e-05
1.95465e-05
-2.13089e-05
1.93357e-05
-2.76086e-05
1.1041e-05
-1.22124e-05
2.0775e-06
1.12982e-05
-7.07963e-07
2.36599e-05
-2.00422e-06
1.90442e-05
-1.9565e-06
1.06247e-05
-2.96053e-06
3.57154e-06
-3.35957e-06
-3.71416e-06
-1.14557e-06
-6.17184e-06
-2.42026e-06
-9.00245e-07
-1.32255e-05
-1.52997e-06
-1.34009e-05
-1.92108e-06
-1.47985e-05
-1.86735e-06
-1.43183e-05
-1.14151e-06
-1.50583e-05
9.34203e-08
-1.7251e-05
8.66775e-07
-1.56393e-05
1.57519e-06
-1.40526e-05
1.73148e-06
-1.28175e-05
1.24775e-06
-1.14153e-05
-3.11722e-07
-8.4505e-06
-2.42981e-06
-5.77136e-06
4.04414e-06
-2.54533e-06
1.24155e-05
-1.25491e-05
1.01038e-05
-1.39966e-05
-2.54695e-06
4.73952e-06
-7.37444e-06
1.68849e-05
-5.33675e-06
1.67217e-05
-3.61933e-06
8.90275e-06
-3.67237e-06
3.62441e-06
-4.18114e-06
-3.2054e-06
-1.92426e-06
-8.42873e-06
-4.34453e-06
-1.1334e-06
-1.23793e-05
-1.88255e-06
-1.28136e-05
-2.34433e-06
-1.42362e-05
-2.25553e-06
-1.42873e-05
-1.70542e-06
-1.50886e-05
-2.21192e-07
-1.77941e-05
9.53672e-07
-1.59426e-05
1.85117e-06
-1.38672e-05
2.25211e-06
-1.21756e-05
2.38064e-06
-1.0628e-05
2.078e-06
-7.39554e-06
1.69915e-06
-4.71739e-06
-3.31532e-06
3.07008e-06
-5.37702e-06
1.2426e-05
-8.45525e-06
-3.52399e-07
-1.34658e-05
-2.31189e-06
-1.68255e-05
7.37643e-06
-1.49582e-05
9.40008e-06
-9.68229e-06
3.39369e-06
-6.17004e-06
3.1077e-08
-4.78813e-06
-4.75195e-06
-1.82319e-06
-1.16237e-05
-6.35599e-06
-1.38151e-05
-6.58758e-05
-4.81553e-06
-7.66613e-05
1.65184e-05
-7.67148e-05
3.58211e-05
-6.9746e-05
4.96205e-05
-6.03085e-05
5.70484e-05
-5.48884e-05
6.11205e-05
-5.50672e-05
6.35388e-05
-5.60805e-05
6.40681e-05
-5.57662e-05
6.23246e-05
-5.24869e-05
5.78874e-05
-4.78978e-05
5.34918e-05
-4.45119e-05
5.3563e-05
-4.55113e-05
5.39055e-05
-4.39924e-05
5.07303e-05
-3.67552e-05
3.78205e-05
-2.34337e-05
1.37538e-05
-1.53886e-05
4.89845e-07
-1.29122e-05
-2.36495e-05
1.62178e-06
-4.89321e-05
1.3405e-05
-9.16437e-05
2.63983e-05
-9.93693e-05
3.9585e-05
-8.6822e-05
5.18144e-05
-7.37209e-05
6.17501e-05
-6.47945e-05
6.89565e-05
-6.05016e-05
7.38164e-05
-5.81819e-05
7.73607e-05
-5.66581e-05
7.85221e-05
-5.14617e-05
7.54226e-05
-4.54383e-05
7.00516e-05
-4.23422e-05
6.71214e-05
-5.01722e-05
6.82358e-05
-5.80517e-05
6.86682e-05
-5.3891e-05
5.78228e-05
-2.47789e-05
2.8051e-05
1.03215e-05
8.25719e-06
6.11289e-06
-9.25983e-06
1.04308e-05
-3.16101e-05
2.37589e-05
-8.98958e-05
3.14116e-05
-0.000104115
3.99863e-05
-9.42386e-05
4.78634e-05
-7.79222e-05
5.56484e-05
-6.56748e-05
6.32609e-05
-5.86739e-05
6.86963e-05
-5.4312e-05
7.20934e-05
-5.24076e-05
7.34057e-05
-4.92793e-05
7.16234e-05
-4.8986e-05
6.75854e-05
-5.17914e-05
6.4263e-05
-6.24062e-05
6.26792e-05
-8.02162e-05
6.18684e-05
-8.74438e-05
5.55809e-05
-7.36783e-05
2.78559e-05
-2.24016e-05
1.4729e-06
-8.97653e-06
-2.18574e-05
1.80826e-05
-1.82442e-05
3.01358e-05
-9.00857e-05
3.60705e-05
-0.000104935
4.09246e-05
-9.67474e-05
4.57323e-05
-8.34619e-05
5.08013e-05
-7.20766e-05
5.68113e-05
-6.64931e-05
6.06687e-05
-5.95569e-05
6.25794e-05
-5.67877e-05
6.15995e-05
-5.41147e-05
6.03707e-05
-5.18292e-05
5.88914e-05
-5.51018e-05
5.65251e-05
-6.76182e-05
5.29481e-05
-9.13972e-05
4.8561e-05
-0.000105781
4.5973e-05
-9.36794e-05
2.51174e-05
-5.18082e-05
1.1757e-06
-3.02473e-05
-3.98862e-05
2.70082e-05
-2.55833e-05
3.45124e-05
-8.94352e-05
3.86738e-05
-0.000108749
4.07792e-05
-0.000111051
4.38008e-05
-0.000108098
4.6097e-05
-9.90423e-05
5.05225e-05
-9.72513e-05
5.29315e-05
-8.72581e-05
5.32417e-05
-8.29426e-05
5.13091e-05
-6.62711e-05
5.32024e-05
-5.8324e-05
5.52013e-05
-6.00282e-05
5.33057e-05
-7.68124e-05
5.04526e-05
-0.000104665
4.54664e-05
-0.000122956
4.06704e-05
-9.48601e-05
2.64185e-05
-4.83807e-05
7.71669e-06
-4.88808e-05
-6.0422e-05
3.07449e-05
-4.3774e-05
3.65937e-05
-9.42301e-05
3.99774e-05
-0.000117543
4.24843e-05
-0.000136416
4.5656e-05
-0.000157243
4.87683e-05
-0.000168425
5.24719e-05
-0.000190073
5.12581e-05
-0.000180084
4.69396e-05
-0.000167674
4.6379e-05
-7.98807e-05
4.93738e-05
-6.59482e-05
5.28022e-05
-6.62157e-05
5.03762e-05
-8.6639e-05
4.14882e-05
-0.000130121
3.99403e-05
-0.000139882
3.8065e-05
-9.80462e-05
3.36098e-05
-3.89752e-05
1.74108e-05
-5.57808e-05
-7.02099e-05
3.10587e-05
-6.46362e-05
3.77651e-05
-0.000104809
3.93874e-05
-0.000131639
4.60895e-05
-0.000154839
5.3675e-05
-0.000182068
6.07066e-05
-0.000224307
6.38388e-05
-0.00025816
6.3719e-05
-0.000234457
5.09644e-05
-0.000225322
4.11251e-05
-0.000122
4.5962e-05
-8.1848e-05
4.81482e-05
-8.67108e-05
4.54061e-05
-0.000113331
3.75566e-05
-0.000164907
3.75708e-05
-0.000159
3.74938e-05
-0.000108094
3.76655e-05
-3.25584e-05
2.2204e-05
-5.57734e-05
-7.27605e-05
3.26434e-05
-8.14787e-05
3.82013e-05
-0.000116842
3.83976e-05
-0.000148866
4.32257e-05
-0.000172833
5.1497e-05
-0.000183489
6.17953e-05
-0.000211255
6.34022e-05
-0.000231336
6.38545e-05
-0.000196291
5.97635e-05
-0.000174015
5.1075e-05
-0.000157187
4.78302e-05
-0.000117644
5.0761e-05
-0.000123222
4.69809e-05
-0.000139795
3.82233e-05
-0.000161704
3.75532e-05
-0.000151327
3.88215e-05
-0.000114869
4.25001e-05
-3.16687e-05
2.84057e-05
-5.24771e-05
-7.21343e-05
-1.85162e-06
-1.07893e-05
-3.31622e-06
-1.13404e-05
-4.44241e-06
-1.25149e-05
-3.62507e-06
-1.38423e-05
-2.14066e-06
-1.49317e-05
2.93407e-07
-1.79096e-05
3.24043e-06
-1.64141e-05
4.83736e-06
-1.36721e-05
3.08983e-06
-9.40928e-06
-1.12223e-06
-6.1533e-06
-5.13432e-06
-4.04547e-06
-7.00958e-06
-4.26646e-06
-5.40334e-06
-2.01606e-06
-4.91213e-06
6.87207e-06
-1.02889e-05
1.63275e-05
-2.07869e-05
-1.19565e-06
-2.9984e-05
-3.84234e-06
-3.86736e-05
-3.81728e-06
-4.05304e-05
-1.40735e-05
-3.12725e-05
-2.06096e-05
-1.37151e-05
-3.08934e-05
6.70911e-07
-3.59815e-05
-3.25171e-05
1.6949e-05
-3.1055e-06
-3.5864e-06
-5.4092e-06
-5.27866e-06
-6.13324e-06
-8.76102e-06
-4.98486e-06
-1.25662e-05
-2.6835e-06
-1.55719e-05
2.67967e-06
-2.27396e-05
8.05077e-06
-2.1287e-05
1.12197e-05
-1.57832e-05
1.25423e-05
-8.86579e-06
1.3517e-05
-4.36237e-06
1.25802e-05
1.01941e-06
1.04511e-05
3.01751e-06
5.28777e-06
1.02212e-05
2.70773e-06
1.74036e-05
1.43822e-06
2.10397e-05
-2.68128e-06
1.38828e-05
-5.58049e-06
-6.9952e-06
-8.29442e-06
-1.73241e-05
-7.31775e-06
-2.26177e-05
-4.58831e-06
-4.33634e-05
1.05343e-07
-6.43242e-05
6.29157e-06
-6.93203e-05
-7.7738e-05
2.02069e-05
-3.44014e-06
-3.8114e-07
-7.56951e-06
-1.46504e-06
-1.01374e-05
-6.59501e-06
-9.35882e-06
-1.38001e-05
-6.47709e-06
-1.87766e-05
2.25091e-06
-3.16141e-05
8.51251e-06
-2.81695e-05
8.86812e-06
-1.73563e-05
6.19029e-06
-7.37561e-06
2.5426e-06
-1.85869e-06
2.27188e-06
4.9873e-07
3.72027e-06
1.19534e-06
8.33245e-06
5.78988e-06
1.4548e-05
1.1874e-05
1.96144e-05
1.74494e-05
1.97897e-05
1.8106e-05
2.74459e-05
4.17196e-06
3.58395e-05
-2.85447e-05
4.50776e-05
-2.96591e-05
6.15978e-05
-4.21456e-05
7.54705e-05
-5.56746e-05
8.56154e-05
-6.45567e-05
-7.45403e-05
9.62655e-05
-9.67074e-06
-2.58261e-06
-1.69394e-05
-4.95283e-06
-1.74074e-05
-1.42729e-05
-1.35057e-05
-2.50927e-05
-1.49457e-05
-2.92314e-05
-1.18839e-05
-4.10318e-05
-1.16101e-05
-3.29738e-05
-1.31328e-05
-2.04503e-05
-1.3066e-05
-1.20217e-05
-9.96946e-06
-9.36801e-06
-6.77147e-06
-7.11115e-06
-4.10973e-06
-5.27763e-06
3.45148e-07
-1.37825e-06
5.67283e-06
5.37755e-06
1.44149e-05
8.62237e-06
2.13973e-05
8.82426e-06
2.88578e-05
8.66114e-06
4.89242e-05
-9.05444e-06
6.36593e-05
-1.17876e-05
7.69123e-05
-2.30002e-05
8.66281e-05
-3.89062e-05
9.55227e-05
-5.33403e-05
-6.32295e-05
0.000104411
-1.69492e-06
-5.18228e-05
-5.08938e-06
-5.87521e-05
-1.73476e-05
-7.28571e-05
-4.12159e-05
-8.12285e-05
-6.59095e-05
-9.00037e-05
-9.42202e-05
-0.000116815
-0.000110603
-9.20349e-05
-0.000108101
-7.39874e-05
-9.70385e-05
-6.18161e-05
-7.99529e-05
-5.14307e-05
-6.29392e-05
-3.78728e-05
-4.31369e-05
-3.23447e-05
-2.3112e-05
-2.53164e-05
-8.755e-06
-1.30969e-05
4.51808e-06
-8.61943e-06
1.49277e-05
-5.11738e-06
2.80667e-05
-5.95096e-06
4.0652e-05
-1.57001e-05
5.05425e-05
-1.96783e-05
6.41465e-05
-2.91068e-05
7.23123e-05
-3.28985e-05
7.81813e-05
-4.17111e-05
-5.21404e-05
8.23708e-05
1.04514e-05
-5.33242e-05
6.46353e-06
-5.46333e-05
-1.21901e-05
-4.54737e-05
-5.15028e-05
-3.98539e-05
-0.000108157
-3.56791e-05
-0.000128167
-6.71972e-05
-0.000130081
-6.63591e-05
-0.000130181
-6.75963e-05
-0.000127293
-7.58997e-05
-0.000112458
-0.000127721
-0.000101482
-0.000108436
-8.93396e-05
-9.84798e-05
-7.8501e-05
-8.59384e-05
-6.33998e-05
-6.90096e-05
-4.55613e-05
-5.88402e-05
-2.63376e-05
-4.97041e-05
-6.84297e-06
-5.21263e-05
1.11338e-05
-5.71659e-05
2.86826e-05
-6.14922e-05
3.47034e-05
-7.54312e-05
3.89638e-05
-8.44405e-05
4.28553e-05
-0.000100103
-0.000119122
4.50268e-05
-2.55684e-05
1.80999e-06
-2.93898e-05
2.29107e-05
-1.60404e-05
3.33276e-05
1.21311e-05
3.58164e-05
9.62035e-05
-1.46256e-05
0.000137845
-5.17862e-05
0.000107173
1.28961e-05
3.31433e-05
6.0893e-05
-3.88904e-05
5.57768e-05
-8.67476e-05
7.21378e-06
-9.79198e-05
-2.96492e-05
-8.96663e-05
-5.91759e-05
-8.13498e-05
-6.71514e-05
-7.60194e-05
-9.56734e-05
-6.96732e-05
-7.88172e-05
-5.60076e-05
-0.000126824
-4.12484e-05
-0.000138913
-2.98144e-05
-0.00014078
-2.01861e-05
-0.000150487
-1.27016e-05
-0.00013529
-5.02282e-06
-7.86222e-05
-1.87918e-06
-7.30211e-05
-6.73362e-05
-4.6117e-06
-6.12894e-05
6.31124e-05
-5.19963e-05
1.41257e-05
-1.30364e-05
-5.03198e-06
3.00602e-05
-5.74391e-06
5.34152e-05
-3.74739e-05
5.53466e-05
-5.37169e-05
3.91739e-05
2.90726e-05
6.73152e-06
9.33501e-05
-9.44718e-07
6.34866e-05
2.02008e-05
-1.01585e-05
4.5671e-05
-3.43138e-05
5.67548e-05
-5.49011e-05
6.95087e-05
-6.01761e-05
5.46033e-05
-2.06952e-05
4.75939e-05
-1.24589e-05
2.31517e-05
-1.54334e-05
1.06837e-05
-3.61658e-05
6.21524e-06
-4.90872e-05
-1.5421e-05
-3.92103e-05
-4.50645e-05
-8.44081e-06
-4.1316e-05
-3.9067e-05
-3.29555e-05
-6.32852e-05
-7.72677e-05
-1.56252e-05
7.35156e-06
5.57637e-05
1.45453e-05
6.93268e-06
2.39839e-05
-1.4472e-05
3.68684e-05
-1.86312e-05
3.14848e-05
-3.20932e-05
2.30491e-05
-4.5284e-05
2.67746e-05
2.53452e-05
4.46428e-05
7.54795e-05
5.94243e-05
4.87029e-05
1.50765e-05
3.41862e-05
-1.57768e-05
-3.46332e-06
-2.13671e-05
-4.9315e-05
-3.00194e-05
-5.15294e-05
-1.13943e-05
-3.93261e-05
1.82915e-05
-4.21391e-05
4.90612e-05
-4.54407e-05
6.41728e-05
-4.74763e-05
6.45864e-05
-4.33493e-05
6.6582e-05
-3.35383e-05
9.05005e-05
-3.18979e-05
9.00348e-05
-3.86084e-05
7.58941e-05
-4.91532e-05
-5.95201e-05
5.81285e-05
1.54196e-05
4.03465e-05
6.84168e-06
1.55118e-05
1.66378e-06
-9.29475e-06
3.46031e-06
-2.04294e-05
-3.4105e-07
-2.82939e-05
-8.44991e-06
-3.71769e-05
1.57517e-05
1.14181e-06
5.34205e-05
3.7809e-05
6.476e-05
3.73609e-05
7.63372e-05
2.26062e-05
6.90972e-05
3.77364e-06
4.54799e-05
-2.57006e-05
3.75007e-05
-4.35546e-05
4.04589e-05
-4.22898e-05
3.82982e-05
-3.99829e-05
3.61096e-05
-4.32521e-05
3.64594e-05
-4.78251e-05
4.12751e-05
-4.81647e-05
5.07995e-05
-4.30634e-05
5.09035e-05
-3.20035e-05
4.27286e-05
-3.04389e-05
3.08384e-05
-3.72671e-05
-4.67202e-05
1.80189e-05
1.3312e-05
2.70375e-05
2.17189e-05
7.10621e-06
2.07163e-05
-8.29201e-06
1.44291e-05
-1.4143e-05
4.45746e-06
-1.83236e-05
-1.03326e-05
-2.23881e-05
2.81557e-07
-9.47367e-06
3.60046e-05
2.08446e-06
5.633e-05
1.70335e-05
6.16101e-05
1.73237e-05
5.5092e-05
1.02894e-05
4.14248e-05
-1.20362e-05
3.02082e-05
-3.23414e-05
2.7298e-05
-3.93842e-05
3.03878e-05
-4.30752e-05
3.22934e-05
-4.516e-05
3.01313e-05
-4.56629e-05
2.55243e-05
-4.35582e-05
2.09977e-05
-3.8537e-05
2.29491e-05
-3.39552e-05
2.46872e-05
-3.21797e-05
2.09128e-05
-3.3498e-05
-3.54093e-05
9.5867e-06
1.03051e-05
1.67342e-05
1.15164e-05
5.89614e-06
8.86451e-06
-5.63984e-06
6.58309e-06
-1.1862e-05
3.07486e-06
-1.48161e-05
-3.09766e-06
-1.62165e-05
-2.52249e-06
-1.00497e-05
6.78273e-06
-7.222e-06
2.22762e-05
1.53839e-06
3.06797e-05
8.91824e-06
3.59907e-05
4.97632e-06
3.51541e-05
-1.12015e-05
2.77039e-05
-2.48941e-05
2.07818e-05
-3.24654e-05
1.48058e-05
-3.71032e-05
9.50769e-06
-3.98639e-05
5.12433e-06
-4.12806e-05
2.27752e-06
-4.07107e-05
1.51602e-06
-3.77746e-05
1.80497e-06
-3.42425e-05
1.08487e-06
-3.14614e-05
-2.38284e-06
-3.00313e-05
-2.90373e-05
-8.77135e-06
7.11847e-06
9.61783e-06
1.30177e-05
-1.90824e-09
1.26509e-05
-5.27269e-06
9.29412e-06
-8.50545e-06
5.13868e-06
-1.06612e-05
-8.7992e-08
-1.09905e-05
-1.89066e-06
-8.24777e-06
-2.35791e-06
-6.75578e-06
3.7309e-06
-4.55174e-06
1.23166e-05
3.30916e-07
1.91966e-05
-1.90529e-06
1.92545e-05
-1.1261e-05
1.48503e-05
-2.04923e-05
1.07439e-05
-2.83619e-05
7.06038e-06
-3.34231e-05
3.27884e-06
-3.6084e-05
-6.73725e-07
-3.73282e-05
-4.3367e-06
-3.70464e-05
-7.6114e-06
-3.44979e-05
-1.03516e-05
-3.15001e-05
-1.26498e-05
-2.91628e-05
-1.52197e-05
-2.74639e-05
-2.62502e-05
-1.8019e-05
5.20316e-06
4.41541e-06
7.47993e-06
-2.27802e-06
8.04301e-06
-5.8356e-06
7.04154e-06
-7.50419e-06
4.97591e-06
-8.59606e-06
2.65729e-06
-8.67245e-06
2.10572e-06
-7.69692e-06
2.15656e-06
-6.80746e-06
4.06821e-06
-6.46451e-06
8.72414e-06
-4.32636e-06
1.27047e-05
-5.88716e-06
1.2057e-05
-1.0615e-05
9.27304e-06
-1.77101e-05
5.22328e-06
-2.43148e-05
1.22943e-06
-2.94311e-05
-2.31429e-06
-3.25415e-05
-5.94672e-06
-3.36949e-05
-9.32979e-06
-3.36596e-05
-1.19133e-05
-3.19121e-05
-1.33783e-05
-3.00293e-05
-1.42707e-05
-2.82707e-05
-1.53546e-05
-2.63791e-05
-2.48012e-05
-1.68161e-05
3.1382e-06
1.27841e-06
4.8965e-06
-4.03581e-06
4.83594e-06
-5.77499e-06
4.30218e-06
-6.97072e-06
3.55571e-06
-7.85008e-06
2.84324e-06
-7.96058e-06
3.00427e-06
-7.85864e-06
3.80407e-06
-7.60808e-06
5.13352e-06
-7.79493e-06
7.59848e-06
-6.79241e-06
9.87738e-06
-8.16725e-06
1.03433e-05
-1.10822e-05
8.57822e-06
-1.59466e-05
5.01993e-06
-2.07583e-05
9.20347e-07
-2.53333e-05
-2.61047e-06
-2.90103e-05
-5.60223e-06
-3.0699e-05
-8.33473e-06
-3.09258e-05
-1.08463e-05
-2.93921e-05
-1.30767e-05
-2.7798e-05
-1.47469e-05
-2.6595e-05
-1.60494e-05
-2.50761e-05
-2.33663e-05
-1.74943e-05
1.88966e-06
-6.11466e-07
2.8908e-06
-5.03701e-06
3.14588e-06
-6.03029e-06
3.14546e-06
-6.97074e-06
3.01648e-06
-7.72168e-06
3.13848e-06
-8.08324e-06
3.64218e-06
-8.36303e-06
4.44006e-06
-8.40674e-06
5.437e-06
-8.79274e-06
7.19973e-06
-8.5561e-06
8.73098e-06
-9.69953e-06
9.58386e-06
-1.19361e-05
9.17803e-06
-1.55421e-05
7.40274e-06
-1.89846e-05
4.52025e-06
-2.24507e-05
8.76904e-07
-2.53679e-05
-2.59573e-06
-2.72271e-05
-5.76109e-06
-2.77541e-05
-8.66135e-06
-2.64945e-05
-1.16385e-05
-2.4813e-05
-1.39831e-05
-2.42511e-05
-1.53787e-05
-2.3679e-05
-2.22694e-05
-1.64834e-05
1.2059e-06
-1.81668e-06
1.98097e-06
-5.81208e-06
2.45158e-06
-6.50125e-06
2.69104e-06
-7.21071e-06
2.82633e-06
-7.8576e-06
3.11226e-06
-8.36984e-06
3.52826e-06
-8.77974e-06
4.21977e-06
-9.09899e-06
5.01272e-06
-9.58647e-06
6.35022e-06
-9.8944e-06
7.5766e-06
-1.09268e-05
8.49576e-06
-1.28562e-05
8.35244e-06
-1.54e-05
7.17144e-06
-1.78039e-05
5.11288e-06
-2.03973e-05
2.16614e-06
-2.24208e-05
-1.33752e-06
-2.37257e-05
-4.89296e-06
-2.42054e-05
-7.77661e-06
-2.3607e-05
-1.06432e-05
-2.19517e-05
-1.33675e-05
-2.15242e-05
-1.51871e-05
-2.18585e-05
-2.11071e-05
-1.6359e-05
8.76665e-07
-2.69502e-06
1.58011e-06
-6.5163e-06
2.09325e-06
-7.01498e-06
2.42764e-06
-7.54572e-06
2.58954e-06
-8.02013e-06
2.71797e-06
-8.49892e-06
2.87972e-06
-8.94211e-06
3.17723e-06
-9.39713e-06
3.56072e-06
-9.97059e-06
4.42754e-06
-1.07619e-05
5.34083e-06
-1.18407e-05
5.80204e-06
-1.33183e-05
5.34738e-06
-1.4946e-05
4.26954e-06
-1.67292e-05
2.36981e-06
-1.84946e-05
-4.1877e-07
-1.96405e-05
-3.39952e-06
-2.07505e-05
-6.12017e-06
-2.14832e-05
-8.59423e-06
-2.11404e-05
-1.06939e-05
-1.98487e-05
-1.26923e-05
-1.95277e-05
-1.41389e-05
-2.04147e-05
-2.01995e-05
-1.50507e-05
7.10694e-07
-3.40537e-06
1.30043e-06
-7.10649e-06
1.67565e-06
-7.39092e-06
1.88983e-06
-7.76072e-06
1.97232e-06
-8.10352e-06
1.96524e-06
-8.49274e-06
1.98518e-06
-8.96294e-06
2.04742e-06
-9.46024e-06
2.16018e-06
-1.00842e-05
2.36932e-06
-1.09719e-05
2.53757e-06
-1.201e-05
2.41213e-06
-1.31939e-05
1.8915e-06
-1.44267e-05
9.24573e-07
-1.57612e-05
-7.07367e-07
-1.68708e-05
-2.72382e-06
-1.7623e-05
-4.81444e-06
-1.86622e-05
-6.97355e-06
-1.93254e-05
-9.10804e-06
-1.90079e-05
-1.0694e-05
-1.82641e-05
-1.18689e-05
-1.83548e-05
-1.30035e-05
-1.92817e-05
-1.90369e-05
-1.41754e-05
5.65489e-07
-3.97209e-06
8.91669e-07
-7.43343e-06
1.12316e-06
-7.62305e-06
1.31609e-06
-7.95425e-06
1.47089e-06
-8.2589e-06
1.58215e-06
-8.60455e-06
1.65574e-06
-9.03704e-06
1.69571e-06
-9.50068e-06
1.68649e-06
-1.00754e-05
1.56843e-06
-1.08542e-05
1.35189e-06
-1.17939e-05
8.98115e-07
-1.27405e-05
1.05957e-07
-1.36352e-05
-8.96771e-07
-1.476e-05
-2.06379e-06
-1.5701e-05
-3.15262e-06
-1.65372e-05
-4.65463e-06
-1.71598e-05
-6.6071e-06
-1.73734e-05
-8.30324e-06
-1.73127e-05
-9.60391e-06
-1.69644e-05
-1.07406e-05
-1.72199e-05
-1.19758e-05
-1.80498e-05
-1.78614e-05
-1.31583e-05
3.79408e-07
-4.35158e-06
6.37688e-07
-7.69217e-06
8.9006e-07
-7.87596e-06
1.09286e-06
-8.1576e-06
1.26731e-06
-8.43389e-06
1.42372e-06
-8.76145e-06
1.51158e-06
-9.12533e-06
1.53944e-06
-9.52892e-06
1.47359e-06
-1.00099e-05
1.23583e-06
-1.06168e-05
8.55019e-07
-1.14134e-05
3.05765e-07
-1.21917e-05
-4.1606e-07
-1.29139e-05
-1.37132e-06
-1.38031e-05
-2.45696e-06
-1.46185e-05
-3.65519e-06
-1.53358e-05
-5.17655e-06
-1.56384e-05
-6.78081e-06
-1.5769e-05
-8.25349e-06
-1.58405e-05
-9.58025e-06
-1.56384e-05
-1.08513e-05
-1.59509e-05
-1.23106e-05
-1.65918e-05
-1.63573e-05
-1.38232e-05
2.81788e-07
-4.6344e-06
5.21304e-07
-7.93233e-06
7.36735e-07
-8.09193e-06
8.64952e-07
-8.28632e-06
9.58732e-07
-8.52814e-06
1.01772e-06
-8.82086e-06
1.05832e-06
-9.1663e-06
1.09404e-06
-9.56494e-06
1.09213e-06
-1.00082e-05
9.00833e-07
-1.04258e-05
4.96553e-07
-1.10094e-05
8.50938e-10
-1.16963e-05
-5.47551e-07
-1.23655e-05
-1.41486e-06
-1.2937e-05
-2.49717e-06
-1.35327e-05
-3.84736e-06
-1.39865e-05
-5.10854e-06
-1.4376e-05
-6.22067e-06
-1.46558e-05
-7.4232e-06
-1.46381e-05
-8.4943e-06
-1.45675e-05
-9.61347e-06
-1.48331e-05
-1.11055e-05
-1.51025e-05
-1.46424e-05
-1.2826e-05
2.31133e-07
-4.8655e-06
3.31466e-07
-8.03301e-06
3.93331e-07
-8.15423e-06
4.37498e-07
-8.33091e-06
4.54608e-07
-8.54564e-06
4.33586e-07
-8.80019e-06
3.72137e-07
-9.10514e-06
2.66567e-07
-9.45961e-06
1.19275e-07
-9.86115e-06
-7.37908e-08
-1.02329e-05
-4.52357e-07
-1.0631e-05
-9.87985e-07
-1.11609e-05
-1.60774e-06
-1.17458e-05
-2.29476e-06
-1.22486e-05
-3.1637e-06
-1.26654e-05
-4.29677e-06
-1.28502e-05
-5.52182e-06
-1.31496e-05
-6.78847e-06
-1.33881e-05
-7.99946e-06
-1.34267e-05
-9.13551e-06
-1.34315e-05
-1.03311e-05
-1.36391e-05
-1.17262e-05
-1.37084e-05
-1.33326e-05
-1.30427e-05
1.40822e-07
-5.00723e-06
2.10189e-07
-8.1029e-06
2.63999e-07
-8.20846e-06
2.84503e-07
-8.35179e-06
2.67337e-07
-8.52881e-06
2.06643e-07
-8.73977e-06
8.81995e-08
-8.98692e-06
-8.17992e-08
-9.28978e-06
-3.1816e-07
-9.62493e-06
-6.1932e-07
-9.93186e-06
-1.00644e-06
-1.02441e-05
-1.53048e-06
-1.06369e-05
-2.26583e-06
-1.10104e-05
-3.05374e-06
-1.14614e-05
-3.90931e-06
-1.1806e-05
-4.63011e-06
-1.21298e-05
-5.41122e-06
-1.23659e-05
-6.4706e-06
-1.23273e-05
-7.51498e-06
-1.23816e-05
-8.54516e-06
-1.24012e-05
-9.79246e-06
-1.23926e-05
-1.1203e-05
-1.22999e-05
-1.22211e-05
-1.2319e-05
1.36017e-07
-5.14311e-06
1.83956e-07
-8.15108e-06
2.08338e-07
-8.23315e-06
2.00401e-07
-8.34416e-06
1.50704e-07
-8.47939e-06
6.71274e-08
-8.65642e-06
-5.0896e-08
-8.86907e-06
-2.33737e-07
-9.10707e-06
-5.22461e-07
-9.33631e-06
-8.50655e-07
-9.60378e-06
-1.17168e-06
-9.92318e-06
-1.5959e-06
-1.02128e-05
-2.13226e-06
-1.04741e-05
-2.9032e-06
-1.06885e-05
-3.75503e-06
-1.09556e-05
-4.70742e-06
-1.11735e-05
-5.86654e-06
-1.12051e-05
-6.87458e-06
-1.13177e-05
-7.83049e-06
-1.14247e-05
-8.83679e-06
-1.13945e-05
-9.99351e-06
-1.12367e-05
-1.11291e-05
-1.11649e-05
-1.10993e-05
-1.22564e-05
3.88771e-08
-5.18279e-06
2.05163e-08
-8.13314e-06
-2.09902e-09
-8.21085e-06
-4.82945e-08
-8.29823e-06
-1.25461e-07
-8.40244e-06
-2.50977e-07
-8.53107e-06
-4.21213e-07
-8.69895e-06
-6.45867e-07
-8.8825e-06
-9.09274e-07
-9.07298e-06
-1.25858e-06
-9.25456e-06
-1.73569e-06
-9.44618e-06
-2.28126e-06
-9.66732e-06
-2.82388e-06
-9.93112e-06
-3.47795e-06
-1.00349e-05
-4.24137e-06
-1.01887e-05
-5.05019e-06
-1.03643e-05
-5.76554e-06
-1.04875e-05
-6.52404e-06
-1.05571e-05
-7.51713e-06
-1.04306e-05
-8.6099e-06
-1.0301e-05
-9.67018e-06
-1.01768e-05
-1.0766e-05
-1.00704e-05
-9.88093e-06
-1.19882e-05
3.67631e-08
-5.21933e-06
9.91878e-09
-8.10644e-06
-3.01651e-08
-8.17099e-06
-8.9428e-08
-8.23917e-06
-1.72105e-07
-8.31993e-06
-2.90072e-07
-8.41323e-06
-4.59066e-07
-8.53004e-06
-6.81993e-07
-8.65962e-06
-9.52284e-07
-8.80273e-06
-1.27455e-06
-8.93237e-06
-1.70225e-06
-9.01859e-06
-2.23312e-06
-9.13652e-06
-2.87484e-06
-9.28923e-06
-3.45324e-06
-9.45509e-06
-4.03013e-06
-9.61254e-06
-4.74952e-06
-9.64162e-06
-5.64319e-06
-9.59181e-06
-6.74819e-06
-9.45023e-06
-7.73111e-06
-9.44651e-06
-8.62669e-06
-9.40468e-06
-9.52031e-06
-9.28358e-06
-1.05823e-05
-9.00877e-06
-8.8055e-06
-1.16621e-05
3.10741e-11
-5.22007e-06
-5.71351e-08
-8.0496e-06
-1.26099e-07
-8.10224e-06
-2.27352e-07
-8.13809e-06
-3.59622e-07
-8.18779e-06
-5.18394e-07
-8.25455e-06
-7.24298e-07
-8.32418e-06
-9.85664e-07
-8.39828e-06
-1.30362e-06
-8.4848e-06
-1.63887e-06
-8.59718e-06
-1.96e-06
-8.69755e-06
-2.3389e-06
-8.75762e-06
-2.85156e-06
-8.77639e-06
-3.53136e-06
-8.77556e-06
-4.3878e-06
-8.75277e-06
-5.18154e-06
-8.8476e-06
-5.9333e-06
-8.83733e-06
-6.57606e-06
-8.80558e-06
-7.30751e-06
-8.71364e-06
-8.25987e-06
-8.45147e-06
-9.36222e-06
-8.18128e-06
-1.03717e-05
-8.00011e-06
-7.77454e-06
-1.14058e-05
-1.02049e-08
-5.20957e-06
-6.56818e-08
-7.9942e-06
-1.2307e-07
-8.04499e-06
-1.99491e-07
-8.0618e-06
-3.05811e-07
-8.08156e-06
-4.49872e-07
-8.11054e-06
-6.32798e-07
-8.14127e-06
-8.59956e-07
-8.17112e-06
-1.15104e-06
-8.19372e-06
-1.55348e-06
-8.19478e-06
-2.05781e-06
-8.1933e-06
-2.61085e-06
-8.20463e-06
-3.145e-06
-8.2422e-06
-3.65367e-06
-8.26527e-06
-4.11319e-06
-8.29407e-06
-4.70279e-06
-8.25452e-06
-5.43209e-06
-8.10616e-06
-6.33744e-06
-7.89831e-06
-7.36208e-06
-7.68763e-06
-8.27569e-06
-7.53691e-06
-9.09003e-06
-7.36695e-06
-1.00394e-05
-7.05088e-06
-6.72165e-06
-1.10957e-05
-3.42022e-08
-5.17599e-06
-1.14037e-07
-7.91461e-06
-2.0056e-07
-7.95862e-06
-3.11826e-07
-7.95064e-06
-4.50184e-07
-7.94327e-06
-6.25761e-07
-7.93499e-06
-8.41814e-07
-7.92522e-06
-1.09865e-06
-7.91427e-06
-1.38999e-06
-7.90237e-06
-1.6916e-06
-7.89321e-06
-1.99593e-06
-7.88903e-06
-2.35027e-06
-7.85036e-06
-2.81289e-06
-7.77928e-06
-3.38038e-06
-7.69803e-06
-4.09642e-06
-7.57516e-06
-4.90147e-06
-7.44893e-06
-5.66054e-06
-7.34491e-06
-6.37552e-06
-7.18123e-06
-7.05429e-06
-7.00749e-06
-7.8575e-06
-6.73266e-06
-8.82061e-06
-6.40365e-06
-9.77184e-06
-6.10003e-06
-5.75186e-06
-1.07443e-05
-1.54291e-08
-5.16021e-06
-6.29625e-08
-7.86709e-06
-1.19405e-07
-7.90225e-06
-2.0013e-07
-7.86998e-06
-3.1229e-07
-7.83115e-06
-4.65667e-07
-7.78162e-06
-6.67552e-07
-7.72331e-06
-9.21207e-07
-7.66058e-06
-1.23014e-06
-7.59342e-06
-1.60352e-06
-7.51984e-06
-2.0517e-06
-7.44093e-06
-2.54336e-06
-7.35873e-06
-3.05185e-06
-7.27061e-06
-3.57855e-06
-7.17015e-06
-4.09766e-06
-7.05645e-06
-4.62879e-06
-6.91498e-06
-5.25676e-06
-6.71504e-06
-5.97737e-06
-6.45876e-06
-6.81935e-06
-6.16411e-06
-7.67131e-06
-5.87962e-06
-8.49676e-06
-5.57795e-06
-9.39182e-06
-5.20513e-06
-4.7883e-06
-1.03578e-05
-2.49256e-08
-5.13586e-06
-9.07003e-08
-7.80152e-06
-1.62939e-07
-7.83011e-06
-2.60409e-07
-7.77256e-06
-3.83787e-07
-7.70779e-06
-5.37525e-07
-7.62786e-06
-7.26029e-07
-7.53477e-06
-9.54052e-07
-7.43251e-06
-1.22286e-06
-7.32458e-06
-1.52953e-06
-7.21319e-06
-1.87577e-06
-7.09474e-06
-2.26643e-06
-6.96804e-06
-2.70925e-06
-6.82761e-06
-3.21797e-06
-6.66157e-06
-3.79971e-06
-6.47206e-06
-4.45534e-06
-6.25897e-06
-5.14429e-06
-6.02375e-06
-5.83439e-06
-5.76683e-06
-6.5254e-06
-5.47161e-06
-7.28012e-06
-5.12383e-06
-8.11911e-06
-4.7387e-06
-8.99657e-06
-4.32768e-06
-3.86863e-06
-9.91836e-06
9.84714e-09
-5.14532e-06
-2.85863e-08
-7.76305e-06
-7.7788e-08
-7.78094e-06
-1.50082e-07
-7.7003e-06
-2.48742e-07
-7.60913e-06
-3.78899e-07
-7.49768e-06
-5.49561e-07
-7.36406e-06
-7.66525e-07
-7.2155e-06
-1.03546e-06
-7.0556e-06
-1.36074e-06
-6.88791e-06
-1.73924e-06
-6.71627e-06
-2.16804e-06
-6.53925e-06
-2.63693e-06
-6.35865e-06
-3.13376e-06
-6.16346e-06
-3.65967e-06
-5.9467e-06
-4.2116e-06
-5.70424e-06
-4.80469e-06
-5.42901e-06
-5.4568e-06
-5.11297e-06
-6.16751e-06
-4.75952e-06
-6.91521e-06
-4.37506e-06
-7.69782e-06
-3.95564e-06
-8.53364e-06
-3.49191e-06
-2.97943e-06
-9.4245e-06
1.9953e-08
-5.1658e-06
-2.76149e-08
-7.71564e-06
-8.36988e-08
-7.72492e-06
-1.57903e-07
-7.62611e-06
-2.50462e-07
-7.51656e-06
-3.60558e-07
-7.38755e-06
-4.90184e-07
-7.23438e-06
-6.48204e-07
-7.05742e-06
-8.49861e-07
-6.8539e-06
-1.11338e-06
-6.62438e-06
-1.44556e-06
-6.38411e-06
-1.83992e-06
-6.14489e-06
-2.29288e-06
-5.90541e-06
-2.79579e-06
-5.66068e-06
-3.33404e-06
-5.40617e-06
-3.90542e-06
-5.1324e-06
-4.50477e-06
-4.8278e-06
-5.1281e-06
-4.48783e-06
-5.77978e-06
-4.10648e-06
-6.47506e-06
-3.67871e-06
-7.22274e-06
-3.20756e-06
-8.02095e-06
-2.69344e-06
-2.12981e-06
-8.87224e-06
5.52077e-08
-5.22057e-06
-1.85589e-08
-7.64179e-06
-9.83958e-08
-7.64507e-06
-1.84944e-07
-7.53956e-06
-2.83515e-07
-7.41796e-06
-3.92251e-07
-7.27876e-06
-5.08479e-07
-7.11809e-06
-6.43559e-07
-6.92227e-06
-8.06771e-07
-6.69064e-06
-1.00354e-06
-6.42759e-06
-1.24814e-06
-6.13951e-06
-1.55723e-06
-5.83577e-06
-1.93965e-06
-5.5228e-06
-2.3995e-06
-5.19988e-06
-2.92456e-06
-4.88143e-06
-3.49527e-06
-4.55943e-06
-4.09082e-06
-4.2307e-06
-4.70094e-06
-3.8761e-06
-5.33228e-06
-3.47384e-06
-5.9952e-06
-3.01472e-06
-6.69707e-06
-2.50514e-06
-7.44973e-06
-1.94091e-06
-1.32269e-06
-8.25783e-06
5.43131e-08
-5.27537e-06
-8.98183e-08
-7.49778e-06
-2.40749e-07
-7.49417e-06
-3.80116e-07
-7.40017e-06
-5.1844e-07
-7.2796e-06
-6.60641e-07
-7.1365e-06
-8.05625e-07
-6.97304e-06
-9.51153e-07
-6.77668e-06
-1.09929e-06
-6.54245e-06
-1.25529e-06
-6.27156e-06
-1.43217e-06
-5.96261e-06
-1.64364e-06
-5.62422e-06
-1.89823e-06
-5.26802e-06
-2.20506e-06
-4.89313e-06
-2.57646e-06
-4.50798e-06
-3.02873e-06
-4.10682e-06
-3.57e-06
-3.68757e-06
-4.18058e-06
-3.26395e-06
-4.81566e-06
-2.83742e-06
-5.45452e-06
-2.37483e-06
-6.11512e-06
-1.84419e-06
-6.82092e-06
-1.23462e-06
-5.6375e-07
-7.58115e-06
2.70895e-09
-5.27762e-06
-2.73708e-07