/*--------------------------------*- C++ -*----------------------------------*\
| =========                 |                                                 |
| \\      /  F ield         | OpenFOAM: The Open Source CFD Toolbox           |
|  \\    /   O peration     | Version:  2.4.0                                 |
|   \\  /    A nd           | Web:      www.OpenFOAM.org                      |
|    \\/     M anipulation  |                                                 |
\*---------------------------------------------------------------------------*/
FoamFile
{
    version     2.0;
    format      ascii;
    class       volScalarField;
    location    "0.6";
    object      rho;
}
// * * * * * * * * * * * * * * * * * * * * * * * * * * * * * * * * * * * * * //

dimensions      [1 -3 0 0 0 0 0];

internalField   nonuniform List<scalar> 
2268
(
13529
13529
13529
13529
13529
13529
13529
13529
13529
13529
13529
13529
13529
13529
13529
13529
13529
13529
13529
13529
13529
13529
13528.9
13529
13529
13529
13529
13529
13529
13529
13529
13529
13529
13529
13529
13529
13529
13529
13529
13529
13529
13529
13529
13529
13529
13528.8
13521.4
13520.5
13522.9
13519
13519
13520.6
13518.9
13518.8
13518
13522.8
13526.4
13528.3
13528.8
13529
13529
13529
13529
13529
13529
13529
13529
13529
13528.8
12378.2
12333.1
12415.2
12254.3
12203.2
12207.3
12102.9
12098.2
12086.7
12363.8
12653.5
13108.2
13452.6
13523.9
13528.7
13529
13529
13529
13529
13529
13529
13529
13528.8
3308.09
3213.23
3298.44
3073.15
2995.34
2893.56
2679.6
2640.55
2549.91
2729.06
3018.47
3675.91
5457.08
8517.5
12486.6
13482.4
13527.9
13529
13529
13529
13529
13529
13528.8
1000.4
1000.37
1000.37
1000.32
1000.31
1000.27
1000.23
1000.21
1000.18
1000.18
1000.18
1000.18
1026.58
1449.77
4563.7
11457.9
13470.3
13527.3
13528.8
13528.9
13529
13529
13528.8
1000.08
1000.08
1000.08
1000.08
1000.08
1000.07
1000.07
1000.08
1000.08
1000.08
1000.08
1000.08
1000.08
1001.84
1158.8
4771
12784.4
13515.8
13526.8
13528.5
13528.9
13529
13528.8
1000.11
1000.1
1000.1
1000.1
1000.09
1000.07
1000.08
1000.07
1000.07
1000.07
1000.08
1000.08
1000.09
1000.09
1003.3
1745.23
9068.75
13437.8
13524.1
13528.3
13529
13529
13528.8
3120.09
5013.83
6201.69
6258.84
6315.52
6372.89
6430.74
6550.45
7050.82
7891.98
8302.3
8320.18
8338.46
8356.97
8375.05
8392.53
8408.96
8435.24
8453.29
1280.6
2120.47
5146.48
6092.01
5561.33
4541.99
3578.41
3293.17
3286.39
3372.3
3866.59
4363.83
4575.48
5064.31
6098.36
7297.42
7773.94
8278.57
8470.72
1085.14
2613.76
5781.3
6313.35
5934.63
5167.72
4444.1
3997.19
3728.62
3434.14
2873.92
2370.74
2551.55
2725.41
2456.6
2524.77
3307.42
5209.6
8487.28
1640.28
4556.49
7407.33
7554.91
7023.55
6113.79
5345.19
4779.85
4345.71
3717.52
2522.04
1999.42
2335.42
2304.17
1576.6
876.838
883.917
2703.79
8503.65
3344.41
6690.48
7977.64
7818.37
6820.15
5827.14
5109.44
4591.72
4090.22
2914.96
1967.24
1917.08
2128.74
1891.39
1042.25
680.465
621.165
1677.18
6730.86
6020.07
8039.77
8003.68
4923.99
3869.85
2839.15
2345.81
2014.53
1871.57
1847.11
1840.69
1819.47
1766.95
1456.01
764.681
654.358
619.697
1201.04
5287.17
8140.74
8239.39
5972.4
2545.11
1418.3
1205.63
935.58
769.624
656.934
1482.65
1826.91
1797.78
1589.99
982.865
689.323
656.346
643.644
1005.14
4766.32
8807.68
7786.96
3738.6
2292.76
1438.3
871.881
806.116
795.928
685.531
663.341
1438.43
1494.85
968.325
261.672
584.552
728.144
730.055
913.339
4615.98
1000.07
1000.07
1000.06
1000.06
1000.05
1000.04
1000.04
1000.03
1000.02
1000.03
1000.04
1000.05
1000.07
1000.09
1000.15
1049.92
2738.01
9467.57
13195.5
13386.8
13242.7
13144.8
13203.2
1000.01
1000.01
1000.01
1000.01
1000.01
999.955
999.302
997.792
997.905
998.362
999.184
999.664
999.932
1000.01
1000.04
1000.36
1071.63
2087.14
4567.67
6820.02
7669.68
7224.08
7229.48
1000
1000
1000
999.998
999.753
991.822
964.783
940.037
943.707
951.711
968.898
983.494
995.629
999.118
999.839
999.997
1001.15
1040.69
1157.29
1132.92
1118.81
1113.93
1140.45
999.999
999.983
999.302
998.245
982.146
881.461
757.139
698.423
696.529
696.617
729.339
782.958
877.594
949.933
985.685
996.571
999.244
1000.92
1001.88
1000.43
995.812
984.136
960.025
750.624
763.673
805.861
819.959
700.737
579.725
518.095
494.799
495.622
501.982
517.436
535.253
554.257
628.967
719.283
832.085
924.621
930.389
946.425
912.403
864.908
810.957
746.463
25.2993
22.8055
17.1946
17.4135
13.0047
33.0528
72.1035
105.67
177.458
262.777
346.203
405.589
456.202
484.495
496.406
513.627
556.053
570.259
615.392
578.112
521.369
461.594
368.309
1.00161
1.0237
1.02407
1.04617
1.03496
1.00565
1.00105
1.00152
1.00205
1.06671
2.57913
14.1191
56.7548
126.92
181.258
218.576
234.87
240.329
233.989
153.931
106.716
43.6013
8.49347
1.00005
1.0001
1.00015
1.00006
1.00003
1.00002
1.00004
1.00011
1.00005
1.00002
1.00002
1.00002
1.00002
1.00018
1.00235
1.01575
1.08912
1.2047
1.19352
1.00769
1.00053
1.00022
1.00008
1.00005
1.00004
1.00003
1.00002
1.00001
1
1.00002
1.00009
1.00004
1.00002
1.00002
1.00002
1.00002
1.00002
1.00005
1.00006
1.00006
1.00006
1.00005
1.00003
1.00004
1.00003
1.00003
1.00006
1.00003
1.00002
1
1
1
1.00001
1.00004
1.00003
1.00002
1.00002
1.00003
1.00003
1.00005
1.00012
1.00018
1.00017
1.00015
1.0001
1.00004
1.00003
1.00003
1.00002
1.00005
1.00003
1.00001
1
0.999999
1
1
1.00001
1.00002
1.00003
1.00005
1.00005
1.00005
1.00015
1.00023
1.00029
1.00029
1.00024
1.00013
1.00005
1.00004
1.00003
1.00003
1.00004
1.00001
1
0.999999
0.999999
0.999999
1
1.00001
1.00002
1.00006
1.00007
1.00003
1.00003
1.00015
1.00022
1.00009
1.00002
1.00002
1.00003
1.00004
1.00005
1.00004
1.00003
1.00001
1
0.999999
0.999999
0.999999
0.999999
0.999999
1
1
1.00002
1.00001
1
1.00003
1.00004
1.00002
1.00002
1.00002
1.00001
1.00001
1.00001
1.00003
1.00002
1.00001
0.999999
0.999999
0.999999
0.999999
0.999999
0.999999
0.999999
1
1
1
1
1
1.00001
1.00001
1.00002
1.00004
1.00003
1.00002
1.00001
1.00001
1.00001
1
1
0.999999
0.999999
0.999999
0.999999
0.999999
0.999999
1
1
1
1
1
1
1.00001
1.00002
1.00005
1.00006
1.00004
1.00003
1.00001
1
1
1
1
0.999999
0.999999
0.999999
0.999999
0.999999
0.999999
1
1
1
1
1
1
1
1.00003
1.00006
1.00006
1.00005
1.00003
1.00001
1.00001
1
1
0.999999
0.999999
0.999999
0.999999
0.999999
0.999999
1
1
1
1
1
1
1
1
1.00003
1.00004
1.00006
1.00004
1.00002
1.00002
1.00001
1
1
0.999999
0.999999
0.999999
0.999999
0.999999
1
1
1
1
1
1
1
1
1
1.00001
1.00003
1.00002
1.00003
1.00002
1.00001
1.00001
1
1
0.999999
0.999999
0.999999
0.999999
0.999999
1
1
1
1
1
1
1
1
1
1.00001
1.00001
1.00002
1.00002
1.00001
1.00001
1
1
1
1
0.999999
0.999999
0.999999
0.999999
1
1
1
1
1
1
1
1
1
1
1.00001
1.00001
1.00001
1.00001
1
1
1
1
1
0.999999
0.999999
0.999999
1
1
1
1
1
1
1
1
1
1
1
1
1
1
1
1
1
1
1
1
0.999999
0.999999
0.999999
1
1
1
1
1
1
1
1
1
1
0.999999
1
0.999999
1
1
0.999999
0.999999
0.999999
0.999999
0.999999
0.999999
0.999999
1
1
1
1
1
1
1
1
1
1
1
1
0.999999
0.999999
0.999999
0.999999
0.999999
0.999998
0.999998
0.999999
0.999999
0.999999
0.999999
1
1
1
1
1
1
1
1
1
1
1
1
1
0.999999
0.999999
0.999999
0.999998
0.999998
0.999998
0.999998
0.999998
0.999999
1
1
1
1
1
1
1
1
1
1
1
1
1
0.999999
1
0.999999
0.999999
0.999998
0.999998
0.999998
0.999998
0.999998
0.999999
1
1
1
1
1
1
1
1
1
1
1
1
1
1
0.999999
0.999999
0.999999
0.999999
0.999998
0.999998
0.999997
0.999998
1
1
1
1
1
1
1
1
1
1
1
1
1
1
1
1
0.999999
0.999999
0.999999
0.999998
0.999998
0.999998
0.999997
1
1
1
1
1
1
1
1
1
1
1
1
1
1
1
1
1
0.999999
0.999999
0.999999
0.999998
0.999998
0.999997
1
1
1
1
1
1
1
1
1
1
1
1
1
1
1
1
1
0.999999
0.999999
0.999999
0.999999
0.999998
0.999997
1
1
1
1
1
1
1
1
1
1
1
1
1
1
1
1
1
1
0.999999
0.999999
0.999999
0.999998
0.999998
1
1
1
1
1
1
1
1
1
1
1
1
1
1
1
1
1
1
1
0.999999
0.999999
0.999999
0.999998
1
1
1
1
1
1
1
1
1
1
1
1
1
1
1
1
1
1
1
1
0.999999
0.999999
0.999999
1
1
1
1
1
1
1
1
1
1
1
1
1
1
1
1
1
1
1
1
1
0.999999
0.999999
1
1
1
1
1
1
1
1
1
1
1
1
1
1
1
0.999999
0.999999
0.999999
1
1
1
0.999999
0.999999
1
1
1
1
1
1
1
1
1
1
1
1
1
1
1
1
0.999999
0.999999
0.999999
1
1
1
0.999999
1
1
1
1
1
1
1
1
1
1
1
1
1
1
1
0.999999
0.999999
0.999999
0.999999
1
1
1
0.999999
1
1
1
1
1
1
1
1
1
1
1
1
1
1
0.999999
1
0.999999
0.999999
0.999999
1
1
1
0.999999
1
1
1
1
1
1
1
1
1
1
1
1
1
1
1
0.999999
0.999999
0.999999
1
1
1
1
1
1
1
1
1
1
1
1
1
1
1
1
1
1
1
1
1
1
1
1
1
1
1
1
1
1
1
1
1
1
1
1
1
1
1
1
1
1
1
1
1
1
1
1
1
1
1
1
1
1
1
1
1
1
1
1
1
1
1
1
1
1
1
1
1
1
1
1
1
1
1
1
1
1
1
1
1
1
1
1
1
1
1
1
1
1
1
1
1
1
1
1
1
13022.7
12908.1
12642.5
12281.8
6680.3
6155.34
5432.04
4491.3
1161.77
1149.28
1117.87
1069.05
925.798
892.974
857.41
819.521
691.776
643.396
571.238
479.765
280.998
214.098
123.425
38.4206
1.5508
1.05479
1.00513
1.0012
1.00011
1.00017
1.00032
1.00026
1.00002
1.00002
1.00003
1.00004
1.00002
1.00002
1.00002
1.00003
1.00003
1.00002
1.00002
1.00002
1.00002
1.00001
1.00001
1.00002
1.00001
1.00001
1.00001
1.00002
1
1
1.00001
1.00001
1
1
1
1
0.999999
0.999998
0.999998
0.999999
0.999998
0.999999
0.999999
0.999999
1
1
0.999999
0.999999
1
1
0.999999
0.999999
1
1
0.999999
0.999999
1
1
0.999999
0.999999
1
1
0.999999
0.999999
1
0.999999
0.999999
0.999999
0.999999
0.999999
0.999999
0.999998
0.999999
0.999998
0.999998
0.999998
0.999998
0.999998
0.999998
0.999998
0.999998
0.999998
0.999997
0.999997
0.999997
0.999997
0.999997
0.999997
0.999998
0.999997
0.999997
0.999997
0.999997
0.999997
0.999997
0.999997
0.999998
0.999997
0.999997
0.999997
0.999998
0.999997
0.999997
0.999997
0.999999
0.999998
0.999997
0.999997
0.999999
0.999998
0.999998
0.999997
0.999999
0.999999
0.999998
0.999998
0.999999
0.999999
0.999998
0.999998
1
0.999999
0.999999
0.999999
1
1
0.999999
0.999999
1
0.999999
0.999999
0.999999
0.999999
0.999999
0.999999
0.999999
1
1
1
1
1
1
1
1
9372.51
4385.04
1920.72
1229.87
997.664
886.928
810.042
812.028
780.262
715.597
668.974
644.992
443.702
785.21
847.326
1064.96
944.275
924.92
4354.31
2490.3
1361.95
944.508
857.858
840.657
848.321
862.22
855.644
853.294
823.685
771.549
742.909
601.703
659.697
1400.96
1389.44
1160.35
855.201
3578.21
962.595
845.008
736.659
644.236
640.703
697.778
747.336
770.07
814.125
829.133
829.349
824.424
806.951
817.958
885.338
1086.58
757.627
454.521
2545.76
727.604
528.253
287.036
112.208
106.345
193.9
388.603
550.181
687.996
721.489
741.924
758.176
775.964
801.137
815.235
790.335
207.932
108.275
1155.39
299.51
93.6638
7.62521
1.22893
1.84333
5.84872
10.5018
114.4
276.056
383.612
469.633
548.998
675.012
715.161
739.861
789.884
177.72
133.575
546.52
5.09793
1.04689
1.00281
1.22155
3.07891
4.96064
7.11868
7.83763
11.1159
13.5398
23.0898
65.178
190.505
499.215
706.682
735.48
425.83
69.9185
514.127
1.0007
1.00014
1.00041
1.74631
25.6644
87.4863
155.573
193.437
197.576
165.203
78.3735
12.665
13.2209
65.0567
424.227
683.795
591.306
215.809
916.987
1.00015
1.00011
1.00392
3.1358
65.549
298.994
447.088
473.037
476.352
474.314
431.219
170.896
18.9182
19.0526
91.1439
492.8
632.136
534.277
1119.3
1.00005
1.00012
1.00596
3.51474
78.455
352.789
488.446
499.522
500.015
500.258
499.935
465.226
179.433
25.1822
27.4832
225.784
583.372
667.226
1049.88
1.00005
1.00018
1.00123
1.38483
17.3886
129.063
360.476
481.893
499.771
500.266
500.342
499.392
422.321
83.1604
28.1984
50.8468
462.927
660.642
920.329
1.00006
1.00016
1.00035
1.00225
1.23403
8.61539
90.7871
339.091
485.951
500.042
500.378
500.635
485.175
266.663
29.2184
30.3686
304.808
615.369
839.767
1.00005
1.00009
1.00014
1.00035
1.00061
1.05433
6.66763
98.6386
381.178
494.435
500.469
500.87
488.245
309.274
30.2766
31.2371
221.087
580.29
796.247
1.00003
1.00003
1.00006
1.00012
1.00028
1.00081
1.13007
13.7553
169.254
450.74
499.546
501.066
495.677
379.871
94.5898
65.4803
306.841
580.611
764.423
1.00001
1.00002
1.00003
1.00006
1.00012
1.00033
1.00226
2.08507
53.2541
329.775
492.442
501.196
502.115
480.029
380.576
337.915
492.151
593.663
724.584
1
1.00001
1.00001
1.00002
1.00005
1.00019
1.00071
1.10045
16.5286
195.773
463.993
501.168
502.844
508.147
511.927
520.657
552.189
597.218
675.712
0.999999
1
1
1.00001
1.00003
1.00008
1.00057
1.00792
4.46114
93.0065
374.221
494.864
502.821
506.653
517.569
531.202
547.255
574.538
618.413
0.999999
0.999999
0.999999
1
1.00001
1.00005
1.00015
1.00138
1.08344
13.9786
154.386
407.291
496.044
503.964
507.486
516.694
523.843
533.442
550.056
0.999998
0.999998
0.999998
1
1.00001
1.00002
1.00008
1.00022
1.00451
1.47858
7.78938
63.1011
270.667
465.086
497.408
504.471
506.05
507.155
509.052
0.999998
0.999998
0.999998
0.999999
1
1.00002
1.00005
1.00011
1.00043
1.0031
1.15327
3.7114
17.596
87.0638
181.043
254.265
315.818
391.653
458.913
0.999999
0.999998
0.999998
0.999998
1
1.00001
1.00004
1.00009
1.00019
1.00056
1.00184
1.04872
1.41706
2.65898
5.97546
11.8702
16.7861
53.1838
278.055
0.999999
0.999998
0.999998
0.999998
1
1.00001
1.00002
1.00007
1.00015
1.00039
1.001
1.00141
1.00226
1.0044
1.00756
1.01559
1.03443
10.6301
289.877
0.999999
0.999998
0.999998
0.999998
0.999999
1
1.00001
1.00005
1.00013
1.00035
1.00074
1.00124
1.00138
1.00155
1.00161
1.00131
1.00112
1.04858
316.775
0.999999
0.999998
0.999998
0.999998
0.999998
1
1.00001
1.00003
1.00009
1.00031
1.00068
1.00125
1.00129
1.00143
1.00145
1.00113
1.00099
1.00856
236.357
0.999999
0.999998
0.999998
0.999998
0.999998
0.999999
1
1.00002
1.00007
1.00024
1.00062
1.00117
1.00134
1.00136
1.00131
1.00102
1.00086
1.00435
203.875
0.999998
0.999998
0.999998
0.999998
0.999998
0.999999
1
1.00001
1.00003
1.00014
1.00046
1.00096
1.00129
1.00132
1.00111
1.00083
1.00071
1.00292
201.806
0.999998
0.999998
0.999998
0.999998
0.999998
0.999999
1
1
1.00001
1.00005
1.00021
1.00063
1.00108
1.00107
1.00079
1.00057
1.00059
1.00228
168.191
0.999997
0.999997
0.999997
0.999998
0.999998
0.999999
0.999999
1
1
1.00001
1.00006
1.00024
1.00065
1.00063
1.00041
1.00039
1.00057
1.00225
118.373
0.999997
0.999997
0.999997
0.999998
0.999998
0.999999
0.999999
1
1
1
1.00001
1.00006
1.0002
1.00024
1.00021
1.0004
1.00062
1.01511
68.9164
0.999997
0.999997
0.999997
0.999998
0.999998
0.999999
0.999999
1
1
1
1
1.00001
1.00004
1.0001
1.0002
1.00046
1.00073
1.1322
25.9372
0.999997
0.999997
0.999997
0.999998
0.999998
0.999999
0.999999
0.999999
1
1
1
1.00001
1.00002
1.00014
1.00044
1.00055
1.00092
1.35806
6.43601
0.999997
0.999997
0.999997
0.999998
0.999998
0.999999
0.999999
0.999999
1
1
1.00001
1.00002
1.00006
1.00057
1.01297
1.00385
1.00392
1.44034
1.52548
0.999997
0.999997
0.999997
0.999998
0.999998
0.999999
0.999999
1
1
1
1.00001
1.00003
1.00015
1.00794
1.04474
1.00704
1.01295
1.09277
1.09557
0.999997
0.999997
0.999997
0.999998
0.999998
0.999999
0.999999
1
1
1
1.00001
1.00007
1.00052
1.01829
1.09837
1.01128
1.01277
1.08188
2.40922
0.999998
0.999997
0.999998
0.999998
0.999999
0.999999
0.999999
0.999999
1
1.00001
1.00003
1.0001
1.00039
1.0068
1.10202
1.51508
1.88446
10.5243
65.1321
0.999998
0.999998
0.999998
0.999998
0.999999
0.999999
0.999999
0.999999
1
1.00001
1.00004
1.00016
1.00062
1.00104
1.0482
3.93525
45.8001
174.719
347.153
0.999998
0.999998
0.999998
0.999999
0.999999
0.999999
0.999999
0.999999
1
1.00001
1.00003
1.00013
1.00055
1.001
1.04352
5.90625
107.214
386.4
489.685
0.999999
0.999999
0.999999
0.999999
0.999999
0.999999
0.999999
0.999999
1
1
1.00001
1.00006
1.00028
1.0007
1.01864
3.1129
63.3716
388.595
492.929
0.999999
0.999999
0.999999
0.999999
0.999999
0.999999
0.999999
0.999999
0.999999
1
1
1.00002
1.00007
1.00031
1.00283
1.13722
4.99667
177.335
492.929
0.999999
0.999999
0.999999
0.999999
0.999999
0.999999
0.999999
0.999999
0.999999
1
1
1.00001
1.00002
1.0001
1.00047
1.0024
1.02802
40.9796
489.592
0.999999
0.999999
0.999999
0.999999
0.999999
0.999999
0.999999
0.999999
0.999999
1
1
1.00001
1.00003
1.00012
1.00028
1.00019
1.00132
8.75942
420.908
1
1
0.999999
0.999999
0.999999
0.999999
0.999999
0.999999
0.999999
1
1
1.00001
1.00005
1.00015
1.00027
1.00017
1.00023
1.71577
198.04
1
1
1
1
1
1
0.999999
0.999999
0.999999
1
1
1.00001
1.00002
1.00004
1.00008
1.00001
1.00022
1.01525
14.9011
)
;

boundaryField
{
    leftWall
    {
        type            calculated;
        value           nonuniform List<scalar> 
50
(
13529
13529
13521.4
12378.2
3308.09
1000.4
1000.08
1000.11
1000.07
1000.01
1000
999.999
750.624
25.2993
1.00161
1.00005
1.00005
1.00006
1.00005
1.00004
1.00001
0.999999
0.999999
0.999999
0.999999
0.999999
0.999999
0.999999
0.999999
0.999999
0.999999
0.999999
0.999999
0.999999
1
1
1
1
1
1
1
1
1
1
1
1
1
1
1
1
)
;
    }
    rightWall
    {
        type            calculated;
        value           nonuniform List<scalar> 
50
(
8453.29
8470.72
8487.28
8503.65
6730.86
5287.17
4766.32
4615.98
4354.31
3578.21
2545.76
1155.39
546.52
514.127
916.987
1119.3
1049.88
920.329
839.767
796.247
764.423
724.584
675.712
618.413
550.056
509.052
458.913
278.055
289.877
316.775
236.357
203.875
201.806
168.191
118.373
68.9164
25.9372
6.43601
1.52548
1.09557
2.40922
65.1321
347.153
489.685
492.929
492.929
489.592
420.908
198.04
14.9011
)
;
    }
    lowerWall
    {
        type            calculated;
        value           nonuniform List<scalar> 
62
(
13529
13529
13529
13529
13529
13529
13529
13529
13529
13529
13529
13529
13529
13529
13529
13529
13529
13529
13529
13529
13529
13529
13528.9
13528.9
13528.8
13528.8
13528.8
13528.8
13528.8
13528.8
13528.8
13022.7
12908.1
12642.5
12281.8
3120.09
1280.6
1085.14
1640.28
3344.41
6020.07
8140.74
8807.68
3120.09
5013.83
6201.69
6258.84
6315.52
6372.89
6430.74
6550.45
7050.82
7891.98
8302.3
8320.18
8338.46
8356.97
8375.05
8392.53
8408.96
8435.24
8453.29
)
;
    }
    atmosphere
    {
        type            calculated;
        value           nonuniform List<scalar> 
46
(
1
1
1
1
1
1
1
1
1
1
1
1
1
1
1
1
1
1
1
1
1
1
1
1
1
1
1
1
1
1
1
1
1
0.999999
0.999999
0.999999
1
1
1.00001
1.00002
1.00004
1.00008
1
1.00022
1
1
)
;
    }
    defaultFaces
    {
        type            empty;
    }
}


// ************************************************************************* //
