/*--------------------------------*- C++ -*----------------------------------*\
| =========                 |                                                 |
| \\      /  F ield         | OpenFOAM: The Open Source CFD Toolbox           |
|  \\    /   O peration     | Version:  2.4.0                                 |
|   \\  /    A nd           | Web:      www.OpenFOAM.org                      |
|    \\/     M anipulation  |                                                 |
\*---------------------------------------------------------------------------*/
FoamFile
{
    version     2.0;
    format      ascii;
    class       volVectorField;
    location    "0.6";
    object      U.air;
}
// * * * * * * * * * * * * * * * * * * * * * * * * * * * * * * * * * * * * * //

dimensions      [0 1 -1 0 0 0 0];

internalField   nonuniform List<vector> 
2268
(
(0.0139825 -0.00604366 0)
(0.0391633 -0.00663151 0)
(0.0678702 -0.00418795 0)
(0.0834768 -0.00751924 0)
(0.123153 -0.00689775 0)
(0.147593 -0.00436097 0)
(0.162402 -0.00401242 0)
(0.184822 -0.00358543 0)
(0.20957 -0.00588606 0)
(0.238568 -0.00125924 0)
(0.247539 0.00830679 0)
(0.247864 0.013727 0)
(0.236756 0.0127325 0)
(0.212635 0.00770038 0)
(0.182024 0.00337307 0)
(0.137407 -0.00757313 0)
(0.0913242 -0.00244418 0)
(0.0354112 -0.00680811 0)
(0.000311441 0.00641087 0)
(-0.0316898 -0.00495025 0)
(-0.0150417 -0.00061409 0)
(-0.0151387 0.00314808 0)
(-0.0281714 -0.00237832 0)
(0.0146935 -0.0218588 0)
(0.0378775 -0.0243131 0)
(0.0685122 -0.0168947 0)
(0.0865991 -0.0266567 0)
(0.12141 -0.0248798 0)
(0.145946 -0.0184402 0)
(0.165072 -0.022132 0)
(0.188375 -0.0220278 0)
(0.217037 -0.0279504 0)
(0.238086 -0.0249438 0)
(0.247362 -0.0176931 0)
(0.247408 -0.013113 0)
(0.239582 0.000869641 0)
(0.218758 0.0154991 0)
(0.184674 0.0376249 0)
(0.138726 0.0516687 0)
(0.0895875 0.0489096 0)
(0.0423641 0.0418021 0)
(-0.00214901 0.0223072 0)
(-0.017628 0.0111952 0)
(-0.0211327 -0.00650805 0)
(-0.0104713 0.00337215 0)
(-0.0242627 -0.01834 0)
(0.0153409 -0.0150162 0)
(0.0361731 -0.0163314 0)
(0.0681737 -0.00891191 0)
(0.0913039 -0.0180998 0)
(0.11448 -0.0152813 0)
(0.144488 -0.00778891 0)
(0.165713 -0.00754866 0)
(0.193414 -0.00535528 0)
(0.216945 -0.00861058 0)
(0.22574 0.00508593 0)
(0.235902 0.0176321 0)
(0.256017 0.0300972 0)
(0.261692 0.0410104 0)
(0.245546 0.0417747 0)
(0.205067 0.0396407 0)
(0.143728 0.0382771 0)
(0.0746459 0.049051 0)
(0.0276455 0.0463015 0)
(-0.020706 0.0363892 0)
(-0.0176706 0.00764147 0)
(-0.013673 -0.00481707 0)
(0.00952923 0.00147489 0)
(0.0121764 -0.0167822 0)
(0.0164321 -0.0907135 0)
(0.0337877 -0.0939432 0)
(0.065706 -0.0848051 0)
(0.0951511 -0.0984273 0)
(0.108512 -0.0970884 0)
(0.140354 -0.091048 0)
(0.168016 -0.0974417 0)
(0.196487 -0.0969891 0)
(0.211507 -0.0983896 0)
(0.221345 -0.08151 0)
(0.242212 -0.0660498 0)
(0.258942 -0.0469567 0)
(0.249559 -0.0130065 0)
(0.224394 0.042932 0)
(0.183633 0.114027 0)
(0.130789 0.117651 0)
(0.075031 0.095003 0)
(0.0287463 0.0669482 0)
(-0.0163637 0.038823 0)
(-0.0203361 0.00513434 0)
(-0.0230721 -0.0192169 0)
(0.00892891 -0.00507765 0)
(0.00733467 -0.00968355 0)
(0.013296 -0.152907 0)
(0.0264652 -0.148037 0)
(0.0531841 -0.153643 0)
(0.0831265 -0.142453 0)
(0.0903176 -0.142961 0)
(0.108865 -0.140518 0)
(0.147389 -0.127812 0)
(0.165506 -0.122893 0)
(0.173388 -0.113156 0)
(0.194064 -0.111557 0)
(0.21867 -0.113255 0)
(0.236001 -0.103679 0)
(0.24736 -0.0759669 0)
(0.244943 -0.00796775 0)
(0.193276 0.0319202 0)
(0.110555 0.0937719 0)
(0.0562123 0.113005 0)
(0.0187077 0.0957239 0)
(-0.0185405 0.0595632 0)
(-0.0157105 0.0119902 0)
(-0.0373266 -0.0198069 0)
(-0.00272019 -0.0156906 0)
(0.012125 -0.00858632 0)
(-0.00520436 -0.0504713 0)
(-0.00273981 -0.0540848 0)
(-0.00887824 -0.0577534 0)
(-0.0051478 -0.0608865 0)
(0.00106567 -0.0627786 0)
(0.00491168 -0.0786015 0)
(0.0194462 -0.0835256 0)
(0.0288098 -0.0799788 0)
(0.0372131 -0.0860366 0)
(0.0460534 -0.0828052 0)
(0.0513623 -0.0624637 0)
(0.0653218 -0.0217046 0)
(0.109485 0.0720144 0)
(0.153911 0.119983 0)
(0.133877 0.0982277 0)
(0.0535086 0.113784 0)
(0.00279402 0.12231 0)
(-0.0209421 0.0972958 0)
(-0.027994 0.0583458 0)
(-0.0185179 0.0191138 0)
(-0.0485228 -0.0229707 0)
(-0.03015 -0.0263562 0)
(0.00337422 -0.00560582 0)
(-0.00665364 -0.097864 0)
(-0.0130479 -0.0950368 0)
(-0.0211665 -0.101507 0)
(-0.0215409 -0.0923127 0)
(-0.0185465 -0.091227 0)
(-0.00616253 -0.0955167 0)
(0.00824344 -0.0809379 0)
(0.0122897 -0.0676052 0)
(0.0203143 -0.055577 0)
(0.0178967 -0.0485104 0)
(0.00360903 -0.0411517 0)
(-0.0169011 -0.0445086 0)
(-0.0511492 -0.0894082 0)
(-0.0262977 -0.071312 0)
(0.0570674 0.0982814 0)
(-0.0300623 0.133677 0)
(-0.0808819 0.123711 0)
(-0.0760381 0.104285 0)
(-0.0557696 0.0541348 0)
(-0.0315188 0.0133903 0)
(-0.0510727 -0.0179147 0)
(-0.0449301 -0.0395007 0)
(-0.000943906 -0.0196339 0)
(-0.00729688 -0.0159217 0)
(-0.0177079 -0.0194436 0)
(-0.0253106 -0.0297255 0)
(-0.0272707 -0.0297337 0)
(-0.0240009 -0.038165 0)
(-0.012622 -0.0585635 0)
(0.00660575 -0.0489674 0)
(0.0140392 -0.0399003 0)
(0.0253665 -0.0344172 0)
(0.0246887 -0.0260017 0)
(0.0227831 -0.00228263 0)
(0.0189255 0.0235946 0)
(0.00917228 0.0979586 0)
(-0.0990279 0.158061 0)
(-0.114811 0.169566 0)
(-0.162303 0.147479 0)
(-0.216972 0.103292 0)
(-0.186251 0.0708626 0)
(-0.149672 0.0560517 0)
(-0.0810075 0.0369903 0)
(-0.0639023 -0.0142115 0)
(-0.043482 -0.0476346 0)
(-0.000128671 -0.0246906 0)
(-0.20509 -0.417267 0)
(-0.193159 -0.404518 0)
(0.0376501 -0.39445 0)
(0.286963 -0.365087 0)
(0.507761 -0.333484 0)
(0.64779 -0.328021 0)
(0.724879 -0.349246 0)
(0.743072 -0.363746 0)
(0.752348 -0.354146 0)
(0.736413 -0.328565 0)
(0.697863 -0.320717 0)
(0.625929 -0.300297 0)
(0.595698 -0.276595 0)
(0.608196 -0.260992 0)
(0.600414 -0.258211 0)
(0.54754 -0.181669 0)
(0.312371 -0.0960529 0)
(-0.0388151 -0.150943 0)
(0.0432932 -0.276391 0)
(-0.164895 0.0611904 0)
(-0.0139312 -0.0293836 0)
(0.220494 -0.277684 0)
(0.349532 -0.278466 0)
(0.527821 -0.216785 0)
(0.674015 -0.148726 0)
(0.801581 -0.103058 0)
(0.861346 -0.084046 0)
(0.892022 -0.0564586 0)
(0.916713 -0.000142782 0)
(0.905485 0.0649667 0)
(0.837381 0.137798 0)
(0.756476 0.10347 0)
(0.741074 0.085783 0)
(0.77618 0.170444 0)
(0.72326 0.492719 0)
(0.467207 0.564896 0)
(0.0120006 0.248388 0)
(0.0956943 0.10886 0)
(-0.174715 0.0495296 0)
(-0.108887 0.0538781 0)
(0.160253 -0.242538 0)
(0.383971 -0.293166 0)
(0.499694 -0.255516 0)
(0.60888 -0.26197 0)
(0.713425 -0.238502 0)
(0.792797 -0.219967 0)
(0.836534 -0.212628 0)
(0.868478 -0.190058 0)
(0.867076 -0.152159 0)
(0.814262 -0.0981561 0)
(0.737154 -0.111712 0)
(0.723961 -0.156873 0)
(0.69808 -0.0437764 0)
(0.612439 0.207357 0)
(0.355525 0.50282 0)
(-0.163702 0.236143 0)
(0.00296915 -0.0121128 0)
(0.065348 0.132919 0)
(0.289322 0.0549734 0)
(0.382162 -0.0952757 0)
(0.453507 -0.108113 0)
(0.518858 -0.0654672 0)
(0.5677 -0.0872197 0)
(0.628145 -0.201568 0)
(0.696566 -0.182392 0)
(0.720712 -0.165276 0)
(0.730304 -0.141332 0)
(0.732369 -0.101993 0)
(0.710871 -0.0695064 0)
(0.671354 -0.127173 0)
(0.622426 -0.193977 0)
(0.562719 -0.119544 0)
(0.390973 0.215305 0)
(0.162234 0.4271 0)
(-0.249875 0.304738 0)
(-0.0209211 0.0227069 0)
(0.31488 0.0406233 0)
(0.411826 -0.0487852 0)
(0.500791 -0.115448 0)
(0.518869 0.059587 0)
(0.543608 0.203096 0)
(0.568782 0.381178 0)
(0.574803 0.114316 0)
(0.612276 -0.230732 0)
(0.612119 -0.239539 0)
(0.615253 -0.207387 0)
(0.601668 -0.118369 0)
(0.639584 -0.137138 0)
(0.63487 -0.193767 0)
(0.58485 -0.283231 0)
(0.562005 -0.203169 0)
(0.41076 0.113904 0)
(0.136879 0.469452 0)
(-0.11878 0.300517 0)
(0.00433866 -0.0540931 0)
(0.388699 0.0524107 0)
(0.451662 -0.0735977 0)
(0.568085 -0.16975 0)
(0.616867 0.0157204 0)
(0.62526 0.1304 0)
(0.655581 0.395038 0)
(0.696279 0.343172 0)
(0.642468 -0.20522 0)
(0.571285 -0.285342 0)
(0.515132 -0.141634 0)
(0.545025 -0.127756 0)
(0.587712 -0.119497 0)
(0.630724 -0.202761 0)
(0.504005 -0.0288232 0)
(0.466326 -0.0371498 0)
(0.362482 0.186067 0)
(0.209698 0.425843 0)
(0.0156537 0.300422 0)
(0.0523719 -0.085444 0)
(0.363385 0.146683 0)
(0.457438 -0.116815 0)
(0.608904 -0.240069 0)
(0.69401 0.0609316 0)
(0.724993 0.228561 0)
(0.715806 0.310775 0)
(0.663271 0.365926 0)
(0.721254 0.170073 0)
(0.650205 -0.195822 0)
(0.427894 -0.225439 0)
(0.474633 -0.165886 0)
(0.548592 -0.132629 0)
(0.620259 -0.102025 0)
(0.449046 0.566511 0)
(0.0724079 0.56674 0)
(0.11218 0.229443 0)
(0.214408 0.537129 0)
(0.0354536 0.197502 0)
(0.0419011 -0.0456085 0)
(0.344912 -0.0559753 0)
(0.403979 -0.224989 0)
(0.500743 -0.392633 0)
(0.53711 -0.0105851 0)
(0.579988 0.122612 0)
(0.610329 0.175875 0)
(0.543654 0.204295 0)
(0.555248 0.316281 0)
(0.586236 0.212037 0)
(0.529196 -0.119596 0)
(0.495695 -0.268489 0)
(0.534659 -0.224762 0)
(0.336354 0.417802 0)
(-0.182136 0.646899 0)
(-0.43912 0.727471 0)
(-0.0452461 0.34831 0)
(0.253964 0.599904 0)
(-0.0226728 0.233931 0)
(0.0473363 -0.0499203 0)
(-0.00574834 -0.0873368 0)
(-0.0138246 -0.0898178 0)
(-0.0224189 -0.094069 0)
(-0.0235246 -0.0972507 0)
(-0.014453 -0.0993562 0)
(-0.00845157 -0.108691 0)
(0.011546 -0.0985509 0)
(0.0220626 -0.0873989 0)
(0.0265876 -0.0706538 0)
(0.00672837 -0.0592836 0)
(-0.0202568 -0.0521049 0)
(-0.0377928 -0.0630237 0)
(-0.0438514 -0.0764465 0)
(-0.0183684 -0.0173785 0)
(-0.0352055 0.0856322 0)
(0.00369568 0.172769 0)
(-0.12862 0.152403 0)
(-0.207788 0.0183164 0)
(-0.225464 -0.0801283 0)
(-0.203827 -0.0824704 0)
(-0.121031 -0.0541465 0)
(-0.027572 -0.0956223 0)
(0.0367529 -0.0551969 0)
(-0.0087756 0.00802219 0)
(-0.0238061 -0.000976727 0)
(-0.0323669 -0.020814 0)
(-0.0324688 -0.0416874 0)
(-0.0196073 -0.0601688 0)
(-0.00697792 -0.0964453 0)
(0.0328223 -0.0895589 0)
(0.0509516 -0.0642 0)
(0.0680249 -0.0260282 0)
(0.0705989 0.008601 0)
(0.0674059 0.0451445 0)
(0.067454 0.0661006 0)
(0.0450252 0.118258 0)
(0.0215251 0.160431 0)
(0.0109193 0.17715 0)
(0.0618226 0.233835 0)
(0.122089 0.250297 0)
(0.0244511 0.167155 0)
(-0.0399608 0.0384608 0)
(-0.0370305 -0.113128 0)
(-0.00182721 -0.275249 0)
(0.0105412 -0.286842 0)
(0.0744461 -0.289376 0)
(-0.00835998 -0.0562505 0)
(-0.0296255 -0.0664176 0)
(-0.049622 -0.0340276 0)
(-0.0560726 -0.0289111 0)
(-0.0443398 -0.0360259 0)
(-0.018248 -0.0891375 0)
(0.0380348 -0.135134 0)
(0.0496211 -0.0982225 0)
(0.0503956 -0.0607685 0)
(0.0197082 -0.0321132 0)
(0.0123356 -0.0200952 0)
(0.0158668 -0.0223494 0)
(0.0263821 0.0100965 0)
(0.0685227 0.0548321 0)
(0.0896173 0.0942152 0)
(0.140134 0.12842 0)
(0.222884 0.1743 0)
(0.322833 0.148391 0)
(0.371595 0.0599406 0)
(0.421197 -0.0334027 0)
(0.43148 -0.0708046 0)
(0.438083 -0.0987319 0)
(0.472966 -0.153273 0)
(-0.026559 0.333652 0)
(-0.0794683 0.325142 0)
(-0.0902599 0.339783 0)
(-0.060916 0.316438 0)
(-0.0404083 0.359388 0)
(-0.0425263 0.202161 0)
(-0.0412042 0.0836244 0)
(-0.0592742 0.137331 0)
(-0.0672084 0.176562 0)
(-0.0741752 0.190774 0)
(-0.0381311 0.179422 0)
(-0.0333139 0.173705 0)
(-0.0115714 0.179619 0)
(0.0200335 0.11107 0)
(0.0470879 0.081954 0)
(0.111964 0.0867682 0)
(0.171724 0.10333 0)
(0.255537 0.0595408 0)
(0.370229 0.0240503 0)
(0.421508 -0.0474634 0)
(0.480789 -0.110378 0)
(0.520197 -0.15526 0)
(0.575481 -0.172274 0)
(-0.0025462 0.308493 0)
(-0.0145235 0.269868 0)
(-0.0321917 0.161564 0)
(-0.146407 0.0713419 0)
(-0.281685 0.134453 0)
(-0.475203 0.330529 0)
(-0.598183 0.335526 0)
(-0.636418 0.355368 0)
(-0.609227 0.388374 0)
(-0.543568 0.378097 0)
(-0.455483 0.370949 0)
(-0.376231 0.358256 0)
(-0.237947 0.344554 0)
(-0.0997366 0.250955 0)
(-0.0196192 0.177753 0)
(0.0615679 0.144165 0)
(0.116938 0.151393 0)
(0.171504 0.102911 0)
(0.277641 0.11295 0)
(0.321017 0.0570669 0)
(0.426898 0.0752295 0)
(0.466731 0.0660208 0)
(0.519089 0.0428628 0)
(0.0999941 0.612783 0)
(0.202315 0.67525 0)
(0.0983921 0.891784 0)
(-0.271518 1.07039 0)
(-0.693896 1.29655 0)
(-0.684249 0.587215 0)
(-0.700872 0.115326 0)
(-0.697862 -0.0675676 0)
(-0.725585 -0.134595 0)
(-0.701988 -0.122462 0)
(-0.627554 0.00215278 0)
(-0.557407 0.0867411 0)
(-0.477793 0.179217 0)
(-0.388801 0.299117 0)
(-0.312446 0.348402 0)
(-0.215927 0.395377 0)
(-0.0895015 0.39903 0)
(0.00724294 0.316233 0)
(0.174472 0.252741 0)
(0.199318 0.193792 0)
(0.234504 0.118481 0)
(0.235141 -0.00338453 0)
(0.287311 -0.114948 0)
(-0.109784 -0.657142 0)
(-0.156249 -0.223377 0)
(-0.123291 -0.00617774 0)
(-0.0208699 0.0850401 0)
(0.15758 -0.118139 0)
(0.720815 -0.290172 0)
(0.810984 0.0771723 0)
(0.474533 0.333486 0)
(-0.142235 0.571955 0)
(-0.352323 0.914593 0)
(-0.569631 0.793332 0)
(-0.492152 0.353992 0)
(-0.454862 -0.0631614 0)
(-0.408799 -0.187892 0)
(-0.420275 -0.217065 0)
(-0.387728 -0.167009 0)
(-0.312311 -0.0802806 0)
(-0.173333 -0.0525889 0)
(-0.0598083 -0.0562182 0)
(0.00338249 -0.174043 0)
(-0.00313523 -0.214434 0)
(-0.0655275 -0.108471 0)
(-0.0874642 0.21986 0)
(-0.290939 0.631517 0)
(-0.367061 0.356682 0)
(-0.155997 0.214917 0)
(0.0442172 0.166875 0)
(0.298729 -0.115549 0)
(0.18907 -0.239181 0)
(0.379513 0.104811 0)
(0.13943 0.405746 0)
(-0.102543 0.174714 0)
(0.10373 -0.635484 0)
(0.162988 -0.643138 0)
(0.250072 -0.486333 0)
(0.346828 -0.162584 0)
(0.411696 0.330218 0)
(0.25117 0.586628 0)
(0.194174 0.780666 0)
(0.100033 0.749507 0)
(0.108273 0.651288 0)
(0.0165627 0.594304 0)
(-0.130657 0.658458 0)
(-0.295123 0.210444 0)
(-0.197082 -0.158607 0)
(-0.126541 -0.502536 0)
(-0.0556607 0.213388 0)
(0.0949361 -0.145061 0)
(0.110505 -0.228315 0)
(0.169685 -0.188334 0)
(0.237247 -0.233012 0)
(0.0531759 -0.29817 0)
(0.194232 0.205135 0)
(0.153472 0.489164 0)
(0.283476 0.36248 0)
(0.289217 0.413059 0)
(-0.0915709 0.0616927 0)
(-0.0831938 -0.278549 0)
(-0.168497 -0.410028 0)
(-0.134904 -0.458151 0)
(0.016987 -0.644835 0)
(0.187029 -0.763673 0)
(0.297863 -0.789367 0)
(0.368558 -0.730074 0)
(0.34491 -0.61026 0)
(0.400588 -0.609968 0)
(0.483189 -0.576411 0)
(0.456319 -0.550289 0)
(0.375089 -0.495727 0)
(0.0509044 0.291685 0)
(0.0826837 0.198496 0)
(0.00720261 0.0247285 0)
(0.00932275 -0.0638281 0)
(0.0394063 -0.148428 0)
(-0.0520095 -0.228346 0)
(-0.0205101 0.0686265 0)
(0.194474 0.380871 0)
(0.352866 0.254118 0)
(0.373093 0.0906605 0)
(0.427433 -0.0465842 0)
(0.307652 -0.16754 0)
(0.201091 -0.188414 0)
(0.202255 -0.0740926 0)
(0.21637 0.030448 0)
(0.202615 0.0452293 0)
(0.192982 0.0118653 0)
(0.205523 -0.00298864 0)
(0.237201 0.017096 0)
(0.280693 0.0778632 0)
(0.264515 0.0392921 0)
(0.210625 -0.0527287 0)
(0.134389 -0.16934 0)
(0.0423357 0.166261 0)
(0.0999353 -0.00744369 0)
(0.126782 -0.0963124 0)
(0.100696 -0.113929 0)
(0.0659198 -0.126515 0)
(-0.0296278 -0.143541 0)
(-0.0660073 -0.050631 0)
(0.0728738 0.0597744 0)
(0.286886 0.128537 0)
(0.335199 0.103262 0)
(0.320156 0.0639904 0)
(0.262761 -0.096878 0)
(0.186402 -0.242027 0)
(0.145693 -0.303631 0)
(0.153909 -0.349854 0)
(0.169179 -0.365947 0)
(0.167881 -0.358522 0)
(0.147304 -0.336113 0)
(0.124247 -0.30443 0)
(0.115451 -0.283309 0)
(0.133787 -0.270248 0)
(0.126361 -0.273613 0)
(0.089899 -0.278216 0)
(0.0385873 0.126343 0)
(0.065336 0.0736955 0)
(0.0557149 -0.0110415 0)
(0.0449868 -0.0604244 0)
(0.0305425 -0.0900916 0)
(-0.00383938 -0.117616 0)
(-0.0239885 -0.0669407 0)
(-0.00020003 -0.0438509 0)
(0.0661703 0.0364108 0)
(0.170868 0.0726282 0)
(0.175387 0.0506119 0)
(0.200063 -0.0416776 0)
(0.176467 -0.129935 0)
(0.127391 -0.164138 0)
(0.0931939 -0.181825 0)
(0.0630664 -0.202085 0)
(0.0366118 -0.220612 0)
(0.0179265 -0.224463 0)
(0.00740128 -0.20764 0)
(0.00712033 -0.177449 0)
(0.0129219 -0.15807 0)
(-0.000204456 -0.154576 0)
(-0.0243565 -0.155218 0)
(0.0225982 0.0595312 0)
(0.0579368 -0.00393723 0)
(0.0745408 -0.0377763 0)
(0.0619351 -0.0526183 0)
(0.0395596 -0.0606143 0)
(0.00993861 -0.0625184 0)
(-0.00977861 -0.0421167 0)
(-0.0121339 -0.0336889 0)
(-0.0135889 -0.0189996 0)
(0.0501425 0.0213744 0)
(0.092336 -0.00167241 0)
(0.108544 -0.0769563 0)
(0.0925276 -0.128407 0)
(0.0704004 -0.16882 0)
(0.0465902 -0.191642 0)
(0.027308 -0.199073 0)
(0.0064509 -0.20138 0)
(-0.0136101 -0.195806 0)
(-0.0331092 -0.176743 0)
(-0.0490898 -0.155482 0)
(-0.060402 -0.14331 0)
(-0.0738384 -0.139181 0)
(-0.0869985 -0.137773 0)
(0.0164349 0.0380565 0)
(0.0359208 0.00161445 0)
(0.0439116 -0.0286176 0)
(0.042033 -0.0459577 0)
(0.0317785 -0.0536214 0)
(0.0194687 -0.0544904 0)
(0.011283 -0.0447277 0)
(0.0103393 -0.0352568 0)
(0.0125247 -0.0320381 0)
(0.0320886 -0.0181971 0)
(0.0654464 -0.0233917 0)
(0.0693487 -0.0559177 0)
(0.0591134 -0.105035 0)
(0.0399662 -0.148047 0)
(0.0160659 -0.177918 0)
(-0.00283075 -0.194001 0)
(-0.0219883 -0.200703 0)
(-0.0422773 -0.201159 0)
(-0.0582629 -0.192212 0)
(-0.0679536 -0.181932 0)
(-0.0741597 -0.170351 0)
(-0.0792641 -0.157214 0)
(-0.0836187 -0.147479 0)
(0.00995738 0.0126689 0)
(0.0231114 -0.0203094 0)
(0.0269937 -0.0298184 0)
(0.0247572 -0.0363503 0)
(0.0206948 -0.0418264 0)
(0.0170344 -0.0430923 0)
(0.0143246 -0.0404231 0)
(0.0177248 -0.0395929 0)
(0.0227441 -0.0392003 0)
(0.0336953 -0.0310722 0)
(0.0494066 -0.0374685 0)
(0.0570422 -0.0566141 0)
(0.0537047 -0.0873322 0)
(0.0385348 -0.116338 0)
(0.01519 -0.142604 0)
(-0.00523328 -0.16185 0)
(-0.0223595 -0.168388 0)
(-0.0383113 -0.167749 0)
(-0.051892 -0.157923 0)
(-0.06389 -0.148878 0)
(-0.0753067 -0.141714 0)
(-0.0823066 -0.133631 0)
(-0.0876567 -0.125802 0)
(0.00649432 0.000514477 0)
(0.0134996 -0.0256487 0)
(0.0163497 -0.0321685 0)
(0.0169692 -0.0378879 0)
(0.0162795 -0.0420765 0)
(0.016026 -0.0431313 0)
(0.0176811 -0.0439162 0)
(0.0218041 -0.0429247 0)
(0.0255684 -0.0449545 0)
(0.0339499 -0.042291 0)
(0.0440883 -0.0489072 0)
(0.0496134 -0.0617296 0)
(0.0527614 -0.0836734 0)
(0.0462834 -0.10537 0)
(0.0328203 -0.126928 0)
(0.0154655 -0.146346 0)
(-0.00588002 -0.158297 0)
(-0.0227738 -0.161323 0)
(-0.0380995 -0.154415 0)
(-0.0540507 -0.146429 0)
(-0.0702064 -0.141256 0)
(-0.0790825 -0.133563 0)
(-0.084261 -0.12323 0)
(0.0039982 -0.00701491 0)
(0.00864474 -0.0292706 0)
(0.0120127 -0.0338558 0)
(0.0139118 -0.0382819 0)
(0.0146018 -0.0422853 0)
(0.0157657 -0.0447483 0)
(0.0174762 -0.0467137 0)
(0.0207878 -0.0477624 0)
(0.0243394 -0.0498473 0)
(0.0303487 -0.0497752 0)
(0.0379517 -0.0548146 0)
(0.0438742 -0.0660259 0)
(0.0466893 -0.083551 0)
(0.0433463 -0.0998387 0)
(0.0334034 -0.11644 0)
(0.0211188 -0.129921 0)
(0.00215403 -0.138109 0)
(-0.0170187 -0.141444 0)
(-0.0346583 -0.136123 0)
(-0.048097 -0.125597 0)
(-0.0651444 -0.122947 0)
(-0.0776396 -0.123223 0)
(-0.0838954 -0.117376 0)
(0.0025827 -0.0124571 0)
(0.00663703 -0.033457 0)
(0.00995347 -0.0366117 0)
(0.0122662 -0.039894 0)
(0.0135406 -0.0430094 0)
(0.0142164 -0.0458792 0)
(0.0149189 -0.0483506 0)
(0.016202 -0.0506366 0)
(0.0178613 -0.0534917 0)
(0.0209159 -0.0563764 0)
(0.0266384 -0.0623782 0)
(0.0311277 -0.0719409 0)
(0.0308311 -0.082209 0)
(0.0268685 -0.091989 0)
(0.0185837 -0.104415 0)
(0.00681133 -0.112752 0)
(-0.0111755 -0.11826 0)
(-0.0260053 -0.120506 0)
(-0.0389762 -0.119324 0)
(-0.0525495 -0.111419 0)
(-0.0622185 -0.109115 0)
(-0.0730241 -0.112651 0)
(-0.0778155 -0.11089 0)
(0.00197703 -0.0162269 0)
(0.00551246 -0.0367285 0)
(0.00823202 -0.0390631 0)
(0.00957966 -0.041591 0)
(0.0105671 -0.0439067 0)
(0.0105273 -0.0463091 0)
(0.0105281 -0.0486593 0)
(0.0108436 -0.0512058 0)
(0.0111785 -0.0544771 0)
(0.0123071 -0.0592971 0)
(0.0132907 -0.0651361 0)
(0.0141095 -0.0721321 0)
(0.0117945 -0.0796045 0)
(0.00867266 -0.0888775 0)
(0.00122337 -0.096038 0)
(-0.00880362 -0.0997672 0)
(-0.0203251 -0.106571 0)
(-0.0319023 -0.111668 0)
(-0.0432423 -0.10961 0)
(-0.0542605 -0.104193 0)
(-0.0605103 -0.102851 0)
(-0.0667601 -0.108718 0)
(-0.0717328 -0.1076 0)
(0.00183455 -0.0199486 0)
(0.00415863 -0.0392619 0)
(0.00530363 -0.0402087 0)
(0.00660058 -0.0419582 0)
(0.00746531 -0.0439134 0)
(0.0082408 -0.0459334 0)
(0.0087557 -0.0484831 0)
(0.00905624 -0.0510737 0)
(0.0092352 -0.0544573 0)
(0.0090449 -0.0589394 0)
(0.00790915 -0.0639368 0)
(0.00671026 -0.0694174 0)
(0.00311585 -0.0757627 0)
(-0.00190968 -0.0822957 0)
(-0.00777389 -0.0872739 0)
(-0.0142334 -0.0921745 0)
(-0.0201278 -0.0972858 0)
(-0.029882 -0.0992277 0)
(-0.0413403 -0.0974774 0)
(-0.0483779 -0.0945204 0)
(-0.0541873 -0.0960549 0)
(-0.0610138 -0.100341 0)
(-0.0670337 -0.0992321 0)
(0.00127504 -0.0224813 0)
(0.0027198 -0.0405141 0)
(0.00406937 -0.0416589 0)
(0.00540479 -0.0433857 0)
(0.00627876 -0.0449151 0)
(0.00728739 -0.0466478 0)
(0.00798937 -0.0487402 0)
(0.00826837 -0.0509562 0)
(0.00833213 -0.0536707 0)
(0.00767014 -0.0573432 0)
(0.00570041 -0.0627027 0)
(0.00343294 -0.0681612 0)
(6.94061e-05 -0.07172 0)
(-0.00471649 -0.0770545 0)
(-0.0100496 -0.0820496 0)
(-0.0165004 -0.0869232 0)
(-0.0231272 -0.0878738 0)
(-0.0323426 -0.0884513 0)
(-0.0409531 -0.0893387 0)
(-0.048076 -0.0881274 0)
(-0.0551333 -0.0898272 0)
(-0.061473 -0.0940667 0)
(-0.0701509 -0.0927725 0)
(0.000903749 -0.024118 0)
(0.00207521 -0.0421647 0)
(0.00350522 -0.0431455 0)
(0.00433198 -0.0445296 0)
(0.0049505 -0.0458735 0)
(0.00534013 -0.0475586 0)
(0.0055766 -0.0494132 0)
(0.0058225 -0.0516273 0)
(0.00600744 -0.0543057 0)
(0.0057609 -0.0569907 0)
(0.00403141 -0.0603326 0)
(0.00128163 -0.0639333 0)
(-0.00114679 -0.06771 0)
(-0.00496126 -0.072 0)
(-0.0102125 -0.0760567 0)
(-0.0169216 -0.0793985 0)
(-0.0243833 -0.0816705 0)
(-0.0305481 -0.0830087 0)
(-0.0366656 -0.0832554 0)
(-0.0428463 -0.0818256 0)
(-0.0490131 -0.0834218 0)
(-0.0544432 -0.086171 0)
(-0.0640622 -0.0843892 0)
(0.000793556 -0.0255981 0)
(0.00165948 -0.0429534 0)
(0.00189864 -0.0436813 0)
(0.00228386 -0.0445303 0)
(0.00243344 -0.0459434 0)
(0.00245179 -0.0476946 0)
(0.00223957 -0.049576 0)
(0.00180051 -0.0515607 0)
(0.00114785 -0.0533668 0)
(0.000169523 -0.0553181 0)
(-0.000857262 -0.0576602 0)
(-0.00379436 -0.0610195 0)
(-0.00697573 -0.0651358 0)
(-0.0103065 -0.0673135 0)
(-0.0144614 -0.0699284 0)
(-0.0196253 -0.0711809 0)
(-0.0264035 -0.0731817 0)
(-0.0335205 -0.0752068 0)
(-0.0396604 -0.0747251 0)
(-0.0462076 -0.0751096 0)
(-0.0522838 -0.0761748 0)
(-0.0591735 -0.0764725 0)
(-0.0663664 -0.0739708 0)
(0.000480228 -0.0265596 0)
(0.00100837 -0.043453 0)
(0.00126271 -0.0440844 0)
(0.0015553 -0.0450639 0)
(0.001514 -0.0460942 0)
(0.00137007 -0.0471735 0)
(0.000893405 -0.0486449 0)
(9.79769e-05 -0.0505095 0)
(-0.000978403 -0.0527654 0)
(-0.00243338 -0.0544136 0)
(-0.00425784 -0.0567706 0)
(-0.00645286 -0.059837 0)
(-0.0101041 -0.0617168 0)
(-0.0141166 -0.0647226 0)
(-0.018859 -0.0669032 0)
(-0.0231563 -0.0680537 0)
(-0.0267361 -0.0696872 0)
(-0.0316587 -0.0701098 0)
(-0.0379669 -0.0705733 0)
(-0.0433312 -0.0711068 0)
(-0.0485056 -0.0715289 0)
(-0.0573872 -0.0715591 0)
(-0.0629003 -0.0698105 0)
(0.000498531 -0.0274551 0)
(0.000945117 -0.0438203 0)
(0.00105439 -0.0442786 0)
(0.00116356 -0.0448947 0)
(0.00101321 -0.0456706 0)
(0.00062651 -0.0467856 0)
(0.000117882 -0.048009 0)
(-0.00065499 -0.0493542 0)
(-0.00184586 -0.0507628 0)
(-0.003789 -0.0528946 0)
(-0.0054331 -0.0545308 0)
(-0.00718089 -0.0556465 0)
(-0.0097593 -0.0574867 0)
(-0.0133217 -0.059556 0)
(-0.017831 -0.0610027 0)
(-0.0223354 -0.0627697 0)
(-0.0286295 -0.063539 0)
(-0.0344958 -0.0630527 0)
(-0.0398254 -0.0638913 0)
(-0.0442978 -0.0633248 0)
(-0.0509244 -0.063127 0)
(-0.0570155 -0.0620361 0)
(-0.0627878 -0.0628114 0)
(0.000203753 -0.0277208 0)
(0.000203216 -0.0438397 0)
(3.99752e-05 -0.0443187 0)
(-6.93898e-05 -0.0449181 0)
(-0.000410043 -0.0456322 0)
(-0.000953624 -0.0465084 0)
(-0.00172987 -0.0475591 0)
(-0.00279661 -0.0487427 0)
(-0.00415245 -0.0498651 0)
(-0.00569358 -0.0506147 0)
(-0.00778907 -0.0518939 0)
(-0.010857 -0.0537698 0)
(-0.0137406 -0.055065 0)
(-0.0166836 -0.0554327 0)
(-0.0204312 -0.0567835 0)
(-0.025281 -0.0581903 0)
(-0.0292127 -0.0582013 0)
(-0.033089 -0.0599016 0)
(-0.0370637 -0.059455 0)
(-0.0437484 -0.0590854 0)
(-0.0489714 -0.0574289 0)
(-0.0554265 -0.0577922 0)
(-0.0607822 -0.0569772 0)
(0.000177717 -0.0281549 0)
(0.000202521 -0.0438986 0)
(-7.81277e-05 -0.0442714 0)
(-0.000270693 -0.044674 0)
(-0.000685514 -0.0451295 0)
(-0.00116703 -0.0456009 0)
(-0.00194008 -0.0463059 0)
(-0.00301074 -0.0471031 0)
(-0.00433984 -0.0480135 0)
(-0.00583746 -0.0490509 0)
(-0.00791608 -0.0500833 0)
(-0.0104579 -0.0508086 0)
(-0.0135067 -0.0521245 0)
(-0.0173136 -0.0530382 0)
(-0.0200841 -0.0540489 0)
(-0.0230738 -0.0537251 0)
(-0.0279163 -0.0543041 0)
(-0.0331314 -0.0535938 0)
(-0.0391612 -0.0529093 0)
(-0.0443184 -0.0529332 0)
(-0.0486831 -0.053569 0)
(-0.0539133 -0.0517863 0)
(-0.0602894 -0.0500425 0)
(7.56175e-05 -0.0280377 0)
(-7.65061e-05 -0.0434355 0)
(-0.00049193 -0.0437547 0)
(-0.000895267 -0.0440664 0)
(-0.00155537 -0.0444845 0)
(-0.00230267 -0.0450292 0)
(-0.00327408 -0.0456114 0)
(-0.00452322 -0.0462076 0)
(-0.00607984 -0.0468783 0)
(-0.00792011 -0.0475117 0)
(-0.00975864 -0.0476113 0)
(-0.0113088 -0.048184 0)
(-0.0138824 -0.0485625 0)
(-0.0167803 -0.0491976 0)
(-0.0211334 -0.0489867 0)
(-0.0259055 -0.049917 0)
(-0.0300312 -0.0497691 0)
(-0.0338698 -0.0492067 0)
(-0.0372373 -0.0500533 0)
(-0.0410659 -0.048872 0)
(-0.0475501 -0.0462034 0)
(-0.0536402 -0.0456656 0)
(-0.0582862 -0.0452467 0)
(1.96879e-05 -0.0282455 0)
(-0.000141341 -0.0434101 0)
(-0.000526533 -0.0436702 0)
(-0.000823829 -0.0437698 0)
(-0.00130696 -0.0438666 0)
(-0.00198417 -0.0440428 0)
(-0.00286331 -0.0442573 0)
(-0.00395514 -0.0445273 0)
(-0.00531351 -0.0448205 0)
(-0.00707029 -0.0452021 0)
(-0.00950628 -0.0458112 0)
(-0.0126482 -0.0459195 0)
(-0.015438 -0.0460115 0)
(-0.0183579 -0.0459453 0)
(-0.0209814 -0.0464614 0)
(-0.0234572 -0.046607 0)
(-0.0269184 -0.0460785 0)
(-0.031493 -0.0456236 0)
(-0.0368088 -0.0432631 0)
(-0.0425307 -0.0425618 0)
(-0.0465669 -0.0428172 0)
(-0.0513289 -0.0410298 0)
(-0.0571143 -0.0389027 0)
(-4.9702e-05 -0.0279188 0)
(-0.000332921 -0.0427896 0)
(-0.000854851 -0.0430725 0)
(-0.00132957 -0.0431396 0)
(-0.00200874 -0.0432551 0)
(-0.00284347 -0.0433894 0)
(-0.00389391 -0.0434774 0)
(-0.00516055 -0.0435029 0)
(-0.0066416 -0.0434761 0)
(-0.00828939 -0.0433404 0)
(-0.00994013 -0.043106 0)
(-0.0114925 -0.0431288 0)
(-0.0137323 -0.0432507 0)
(-0.0164958 -0.0431433 0)
(-0.0198583 -0.0424676 0)
(-0.0241733 -0.0416644 0)
(-0.0285588 -0.0411234 0)
(-0.0324841 -0.0401847 0)
(-0.0361432 -0.0404667 0)
(-0.039701 -0.0392203 0)
(-0.044831 -0.0368581 0)
(-0.0502867 -0.0354346 0)
(-0.0551791 -0.0338508 0)
(-3.3667e-05 -0.0279906 0)
(-0.000141124 -0.0426635 0)
(-0.000503433 -0.0428598 0)
(-0.000805359 -0.0427317 0)
(-0.0013391 -0.0425857 0)
(-0.0020327 -0.042418 0)
(-0.00297807 -0.0422543 0)
(-0.00419992 -0.0421182 0)
(-0.00570485 -0.0419986 0)
(-0.00750693 -0.0419001 0)
(-0.00968981 -0.0418239 0)
(-0.0123336 -0.0414212 0)
(-0.0150097 -0.0408387 0)
(-0.0177981 -0.0403739 0)
(-0.02067 -0.0399484 0)
(-0.0234175 -0.039531 0)
(-0.0263958 -0.0387238 0)
(-0.0300539 -0.0373423 0)
(-0.0343628 -0.0352361 0)
(-0.0390767 -0.033761 0)
(-0.0434278 -0.0326245 0)
(-0.0481177 -0.0306815 0)
(-0.0532311 -0.0284461 0)
(-3.48083e-05 -0.0276758 0)
(-0.00024293 -0.0421789 0)
(-0.00069572 -0.0423618 0)
(-0.00108566 -0.0421227 0)
(-0.00169939 -0.0418371 0)
(-0.00243217 -0.0414641 0)
(-0.00334554 -0.0410125 0)
(-0.00445958 -0.0405128 0)
(-0.00578823 -0.0399737 0)
(-0.00733706 -0.0393949 0)
(-0.00910572 -0.038803 0)
(-0.0110414 -0.0383802 0)
(-0.0132737 -0.0378994 0)
(-0.0158288 -0.0371517 0)
(-0.018747 -0.0362589 0)
(-0.0221121 -0.035141 0)
(-0.0258125 -0.0339316 0)
(-0.0295509 -0.0328013 0)
(-0.0332144 -0.0316706 0)
(-0.0370107 -0.0299654 0)
(-0.0413493 -0.0278563 0)
(-0.046102 -0.0257802 0)
(-0.0509267 -0.0234277 0)
(6.45403e-05 -0.027809 0)
(3.95993e-05 -0.0421309 0)
(-0.000316398 -0.0422491 0)
(-0.000549815 -0.0418914 0)
(-0.00103838 -0.0414853 0)
(-0.00163858 -0.0409922 0)
(-0.00243967 -0.0404383 0)
(-0.00346896 -0.0398346 0)
(-0.00476123 -0.0391991 0)
(-0.00635908 -0.0385473 0)
(-0.00824174 -0.0377753 0)
(-0.0104215 -0.0368042 0)
(-0.0128584 -0.0358506 0)
(-0.0154603 -0.0348904 0)
(-0.0182132 -0.0338072 0)
(-0.0211097 -0.0326289 0)
(-0.0241654 -0.0312631 0)
(-0.0275119 -0.0295691 0)
(-0.0312205 -0.0276243 0)
(-0.0351609 -0.0256398 0)
(-0.0392429 -0.0235622 0)
(-0.0436535 -0.0211828 0)
(-0.0483412 -0.0185164 0)
(0.000137692 -0.0277901 0)
(7.43516e-05 -0.0416705 0)
(-0.000342767 -0.0417532 0)
(-0.000587989 -0.0412452 0)
(-0.00107782 -0.0406836 0)
(-0.00162372 -0.0400109 0)
(-0.0022607 -0.0391894 0)
(-0.00300797 -0.0382431 0)
(-0.00395084 -0.0372003 0)
(-0.00517324 -0.0360924 0)
(-0.00677017 -0.0350584 0)
(-0.0087365 -0.0341332 0)
(-0.0110187 -0.0331494 0)
(-0.0136054 -0.0320092 0)
(-0.0164122 -0.0307164 0)
(-0.0194076 -0.0292612 0)
(-0.0225704 -0.027653 0)
(-0.0258705 -0.0259351 0)
(-0.029293 -0.0240197 0)
(-0.0329031 -0.0218271 0)
(-0.0367771 -0.0193865 0)
(-0.0409821 -0.0167478 0)
(-0.0454495 -0.0138249 0)
(0.000354164 -0.028125 0)
(0.000222625 -0.0416993 0)
(-0.000396361 -0.0417495 0)
(-0.000697058 -0.0411835 0)
(-0.00125671 -0.0405528 0)
(-0.00181279 -0.0398097 0)
(-0.00239995 -0.0388977 0)
(-0.00305892 -0.0378448 0)
(-0.00385723 -0.0366377 0)
(-0.00480885 -0.0352561 0)
(-0.00597122 -0.0337403 0)
(-0.00743553 -0.0321562 0)
(-0.00926933 -0.0305988 0)
(-0.0115491 -0.0291393 0)
(-0.0142205 -0.027765 0)
(-0.0172055 -0.0263531 0)
(-0.0203572 -0.0247281 0)
(-0.0236033 -0.0227642 0)
(-0.0269487 -0.0205417 0)
(-0.0304235 -0.0181218 0)
(-0.0340779 -0.0154719 0)
(-0.0380087 -0.012552 0)
(-0.0422377 -0.00934168 0)
(0.000463081 -0.0282162 0)
(0.000105813 -0.0407912 0)
(-0.00102995 -0.0407772 0)
(-0.00160832 -0.0402119 0)
(-0.00243548 -0.0395327 0)
(-0.0031541 -0.0387557 0)
(-0.00394189 -0.03792 0)
(-0.00472688 -0.0368869 0)
(-0.00550708 -0.0356189 0)
(-0.00631296 -0.034152 0)
(-0.0071818 -0.032525 0)
(-0.00820141 -0.0307987 0)
(-0.00945242 -0.0289959 0)
(-0.0109451 -0.0270732 0)
(-0.0127493 -0.0250748 0)
(-0.0149233 -0.0230328 0)
(-0.0175901 -0.0210956 0)
(-0.0207823 -0.0192716 0)
(-0.0241992 -0.0172351 0)
(-0.0275803 -0.0147025 0)
(-0.0310696 -0.011804 0)
(-0.0347404 -0.00861318 0)
(-0.0387079 -0.00511255 0)
(0.000479337 -0.0284757 0)
(-0.000452269 -0.0398605 0)
(-0.00242166 -0.0398255 0)
(-0.00359632 -0.0394009 0)
(-0.00497174 -0.0388102 0)
(-0.00611246 -0.0381084 0)
(-0.00721531 -0.0372654 0)
(-0.00820829 -0.036256 0)
(-0.00908444 -0.0350469 0)
(-0.00982192 -0.0336164 0)
(-0.010459 -0.0319253 0)
(-0.0110851 -0.0300251 0)