/*--------------------------------*- C++ -*----------------------------------*\
| =========                 |                                                 |
| \\      /  F ield         | OpenFOAM: The Open Source CFD Toolbox           |
|  \\    /   O peration     | Version:  2.4.0                                 |
|   \\  /    A nd           | Web:      www.OpenFOAM.org                      |
|    \\/     M anipulation  |                                                 |
\*---------------------------------------------------------------------------*/
FoamFile
{
    version     2.0;
    format      ascii;
    class       volVectorField;
    location    "0.6";
    object      U.water;
}
// * * * * * * * * * * * * * * * * * * * * * * * * * * * * * * * * * * * * * //

dimensions      [0 1 -1 0 0 0 0];

internalField   nonuniform List<vector> 
2268
(
(0.0139826 -0.00597827 0)
(0.0391633 -0.00655365 0)
(0.0678702 -0.00414467 0)
(0.0834769 -0.00741572 0)
(0.123153 -0.00680607 0)
(0.147593 -0.00429995 0)
(0.162402 -0.00392955 0)
(0.184821 -0.00349162 0)
(0.209569 -0.0057594 0)
(0.238566 -0.00117017 0)
(0.247537 0.00835369 0)
(0.247861 0.0137698 0)
(0.236752 0.0127809 0)
(0.212629 0.00775011 0)
(0.182017 0.00341772 0)
(0.1374 -0.00753411 0)
(0.0913188 -0.00241452 0)
(0.0354081 -0.00678781 0)
(0.000309717 0.00642471 0)
(-0.0316909 -0.0049387 0)
(-0.0150423 -0.000604847 0)
(-0.015139 0.00315195 0)
(-0.0281714 -0.00237762 0)
(0.014696 0.00809469 0)
(0.037878 0.0072343 0)
(0.0685127 0.00974767 0)
(0.086601 0.00729131 0)
(0.121411 0.00887476 0)
(0.145947 0.0120792 0)
(0.165073 0.010636 0)
(0.188374 0.0104182 0)
(0.217033 0.00520163 0)
(0.238081 -0.000816856 0)
(0.247356 -0.0039573 0)
(0.247398 -0.00731718 0)
(0.239562 0.00298157 0)
(0.218727 0.0162904 0)
(0.184638 0.0381355 0)
(0.138693 0.0518923 0)
(0.0895623 0.0489994 0)
(0.0423487 0.0418583 0)
(-0.00215695 0.0223446 0)
(-0.017632 0.0112227 0)
(-0.0211346 -0.00648793 0)
(-0.0104718 0.00337904 0)
(-0.0242628 -0.0183384 0)
(0.0156419 0.122333 0)
(0.0363348 0.127351 0)
(0.0685911 0.118075 0)
(0.0923914 0.135548 0)
(0.115007 0.138152 0)
(0.144768 0.135745 0)
(0.165818 0.147891 0)
(0.192414 0.150718 0)
(0.213092 0.15297 0)
(0.220393 0.136717 0)
(0.231965 0.118941 0)
(0.2541 0.105595 0)
(0.260823 0.0944574 0)
(0.244921 0.0675138 0)
(0.204615 0.0438224 0)
(0.143428 0.0390496 0)
(0.0745293 0.0493259 0)
(0.0276044 0.0465359 0)
(-0.0207246 0.0365419 0)
(-0.01768 0.00778997 0)
(-0.0136771 -0.00472291 0)
(0.00952804 0.00150756 0)
(0.0121762 -0.0167762 0)
(0.0167601 0.0840706 0)
(0.0339386 0.0806504 0)
(0.0661356 0.0892258 0)
(0.0960938 0.0755966 0)
(0.109144 0.0762152 0)
(0.141134 0.0815414 0)
(0.168516 0.075612 0)
(0.195859 0.0764511 0)
(0.2095 0.0764527 0)
(0.217554 0.0964425 0)
(0.23537 0.117376 0)
(0.242701 0.14447 0)
(0.220802 0.186631 0)
(0.201286 0.191649 0)
(0.17556 0.182847 0)
(0.129511 0.161787 0)
(0.0747272 0.105096 0)
(0.0285795 0.0678911 0)
(-0.0164795 0.0393072 0)
(-0.0204031 0.00565789 0)
(-0.0231049 -0.0189237 0)
(0.00891989 -0.00496719 0)
(0.00733344 -0.00966436 0)
(0.0125574 0.0311339 0)
(0.02507 0.0369073 0)
(0.0505368 0.0300318 0)
(0.0798384 0.0437366 0)
(0.0857669 0.0435958 0)
(0.102979 0.0459086 0)
(0.140207 0.0606017 0)
(0.156517 0.0654295 0)
(0.162381 0.077384 0)
(0.180993 0.0795759 0)
(0.203125 0.0824684 0)
(0.216227 0.0997008 0)
(0.226821 0.127085 0)
(0.206768 0.179046 0)
(0.130488 0.214452 0)
(0.0438281 0.268831 0)
(0.0299715 0.169954 0)
(0.0144133 0.109438 0)
(-0.018851 0.0629684 0)
(-0.0158615 0.0138931 0)
(-0.0374006 -0.0190346 0)
(-0.00273953 -0.0153985 0)
(0.0121221 -0.00854288 0)
(-0.00521537 -0.0503473 0)
(-0.00274447 -0.0539908 0)
(-0.00888629 -0.0576496 0)
(-0.00515668 -0.0608236 0)
(0.00105779 -0.0627246 0)
(0.00490406 -0.0785633 0)
(0.0194391 -0.0835031 0)
(0.0288024 -0.0799614 0)
(0.037207 -0.0860239 0)
(0.0460477 -0.0827939 0)
(0.0513563 -0.0624519 0)
(0.0653126 -0.0216898 0)
(0.0970793 0.102078 0)
(0.104417 0.288396 0)
(0.056658 0.308875 0)
(-0.0239635 0.290117 0)
(-0.0780054 0.271515 0)
(-0.0471861 0.155973 0)
(-0.0329491 0.0784114 0)
(-0.019421 0.0285231 0)
(-0.0487814 -0.0200323 0)
(-0.0302029 -0.025464 0)
(0.00336754 -0.00549771 0)
(-0.00665439 -0.0978654 0)
(-0.0130503 -0.0950377 0)
(-0.02117 -0.101507 0)
(-0.0215448 -0.0923117 0)
(-0.0185504 -0.0912249 0)
(-0.00616637 -0.0955143 0)
(0.00823925 -0.080935 0)
(0.0122852 -0.0676016 0)
(0.0203102 -0.0555735 0)
(0.0178934 -0.048508 0)
(0.00360558 -0.0411502 0)
(-0.0169072 -0.0445088 0)
(-0.0511615 -0.089405 0)
(-0.0278867 -0.0699366 0)
(0.0194115 0.164602 0)
(-0.146945 0.31531 0)
(-0.174845 0.281316 0)
(-0.130517 0.240869 0)
(-0.0746967 0.106643 0)
(-0.0371553 0.0312959 0)
(-0.0526332 -0.0144 0)
(-0.0451681 -0.0384853 0)
(-0.000965628 -0.0195176 0)
(-0.00729758 -0.015935 0)
(-0.01771 -0.0194572 0)
(-0.0253136 -0.0297323 0)
(-0.0272741 -0.0297354 0)
(-0.0240044 -0.038165 0)
(-0.0126254 -0.058568 0)
(0.00660209 -0.0489665 0)
(0.0140353 -0.0398973 0)
(0.0253628 -0.0344144 0)
(0.0246857 -0.0259997 0)
(0.0227805 -0.00228211 0)
(0.0189213 0.0235925 0)
(0.00916287 0.0979598 0)
(-0.0990486 0.158077 0)
(-0.115295 0.173211 0)
(-0.183402 0.258195 0)
(-0.300365 0.253379 0)
(-0.260767 0.232094 0)
(-0.17216 0.160331 0)
(-0.0863694 0.0976063 0)
(-0.0643772 0.0307514 0)
(-0.0434907 -0.00407242 0)
(-0.000108137 0.0181355 0)
(-0.213598 -0.413539 0)
(-0.204044 -0.427354 0)
(0.0366843 -0.391769 0)
(0.286421 -0.361646 0)
(0.504256 -0.33193 0)
(0.641442 -0.329943 0)
(0.717345 -0.351351 0)
(0.734487 -0.368122 0)
(0.741268 -0.377391 0)
(0.729311 -0.387215 0)
(0.697821 -0.404939 0)
(0.627314 -0.410506 0)
(0.597323 -0.377098 0)
(0.607005 -0.338923 0)
(0.586806 -0.250238 0)
(0.499799 -0.16937 0)
(0.273293 -0.0808128 0)
(-0.0538985 -0.0977705 0)
(0.0274424 -0.212617 0)
(-0.173731 0.0700504 0)
(-0.0458693 -0.144779 0)
(0.232354 -0.275142 0)
(0.350481 -0.244707 0)
(0.5308 -0.20162 0)
(0.681183 -0.138933 0)
(0.809441 -0.0913282 0)
(0.868709 -0.0721921 0)
(0.901008 -0.0552083 0)
(0.922929 -0.0179057 0)
(0.905292 0.0159657 0)
(0.84096 0.0313188 0)
(0.768384 -0.0136028 0)
(0.7508 -0.0212593 0)
(0.784508 0.0716695 0)
(0.737975 0.381711 0)
(0.494441 0.437304 0)
(0.0150833 0.346783 0)
(0.083684 0.205078 0)
(-0.117676 0.0511733 0)
(0.148622 -0.347831 0)
(0.323128 -0.270337 0)
(0.408068 -0.231165 0)
(0.518691 -0.251324 0)
(0.614256 -0.238119 0)
(0.71711 -0.224237 0)
(0.79749 -0.208276 0)
(0.841605 -0.200548 0)
(0.873823 -0.176098 0)
(0.87103 -0.14329 0)
(0.823848 -0.119935 0)
(0.749397 -0.160097 0)
(0.724509 -0.206663 0)
(0.720335 -0.162045 0)
(0.729942 0.114456 0)
(0.404102 0.495272 0)
(-0.136911 0.351448 0)
(-0.0266036 0.0601381 0)
(0.0352486 0.107626 0)
(0.313111 -0.246068 0)
(0.4146 -0.276745 0)
(0.462396 -0.196614 0)
(0.544998 -0.117578 0)
(0.603194 -0.121903 0)
(0.642171 -0.158143 0)
(0.698804 -0.14946 0)
(0.723085 -0.149591 0)
(0.73416 -0.128194 0)
(0.737805 -0.0841233 0)
(0.717778 -0.0619718 0)
(0.679943 -0.13658 0)
(0.647738 -0.160796 0)
(0.637782 -0.103814 0)
(0.599656 0.13028 0)
(0.0791685 0.534226 0)
(-0.43573 0.450994 0)
(-0.00644685 0.0586821 0)
(0.291757 0.0523083 0)
(0.384485 -0.245504 0)
(0.477451 -0.309697 0)
(0.498793 -0.244552 0)
(0.53476 -0.164308 0)
(0.573741 -0.0877433 0)
(0.630472 -0.0436343 0)
(0.674323 -0.0387731 0)
(0.633615 -0.181271 0)
(0.618936 -0.183565 0)
(0.602912 -0.0992297 0)
(0.641934 -0.106115 0)
(0.651321 -0.154655 0)
(0.643004 -0.104576 0)
(0.62142 -0.0185951 0)
(0.507308 0.157894 0)
(-0.0288668 0.504311 0)
(-0.458141 0.424308 0)
(0.0394894 -0.0111561 0)
(0.380419 0.0924108 0)
(0.408883 -0.255749 0)
(0.504062 -0.353188 0)
(0.54424 -0.294384 0)
(0.560763 -0.231907 0)
(0.591468 -0.130012 0)
(0.634317 -0.0710133 0)
(0.663241 -0.00630277 0)
(0.663322 0.026439 0)
(0.582221 -0.0537616 0)
(0.542735 -0.092063 0)
(0.604947 -0.0935259 0)
(0.666151 -0.0471035 0)
(0.595611 -0.0350762 0)
(0.51591 0.0457125 0)
(0.410196 0.271205 0)
(-0.041082 0.540581 0)
(-0.42569 0.412371 0)
(0.0605469 -0.0999423 0)
(0.362136 -0.0630156 0)
(0.40647 -0.307375 0)
(0.504972 -0.391613 0)
(0.554495 -0.322139 0)
(0.583187 -0.239755 0)
(0.610201 -0.18487 0)
(0.611998 -0.132631 0)
(0.630382 -0.0307775 0)
(0.595064 0.0165213 0)
(0.516277 0.0236065 0)
(0.492215 -0.0343136 0)
(0.573032 -0.00986023 0)
(0.573774 -0.0265867 0)
(0.468994 -0.174317 0)
(0.41094 -0.101941 0)
(0.307399 0.31017 0)
(-0.00249425 0.608741 0)
(-0.366748 0.341893 0)
(0.073171 -0.184236 0)
(0.37587 -0.213199 0)
(0.409578 -0.384847 0)
(0.492108 -0.402709 0)
(0.504796 -0.376003 0)
(0.527568 -0.30592 0)
(0.556236 -0.227546 0)
(0.540305 -0.19945 0)
(0.569678 -0.137559 0)
(0.561806 -0.0103949 0)
(0.505358 0.0509732 0)
(0.499337 0.0124735 0)
(0.528506 -0.0419857 0)
(0.371136 -0.0689401 0)
(0.352231 -0.266519 0)
(0.352836 -0.158174 0)
(0.266851 0.314464 0)
(0.0937675 0.74303 0)
(-0.223501 0.358863 0)
(0.114709 -0.212497 0)
(-0.00574923 -0.087652 0)
(-0.0138269 -0.0901202 0)
(-0.0224219 -0.0942895 0)
(-0.0235277 -0.0974154 0)
(-0.014456 -0.0994199 0)
(-0.00845451 -0.108738 0)
(0.0115432 -0.0985649 0)
(0.0220597 -0.0874023 0)
(0.026585 -0.0706545 0)
(0.00672637 -0.0592837 0)
(-0.0202586 -0.0521065 0)
(-0.0377959 -0.0630275 0)
(-0.0438575 -0.0764502 0)
(-0.0183756 -0.0173796 0)
(-0.0352142 0.0856614 0)
(0.020166 0.208217 0)
(-0.110364 0.345226 0)
(-0.24691 0.164815 0)
(-0.263538 0.0739146 0)
(-0.222888 0.0796192 0)
(-0.134427 0.101567 0)
(-0.0317789 0.0621505 0)
(0.0432284 0.100925 0)
(-0.00878217 0.00667324 0)
(-0.0238231 -0.00212678 0)
(-0.0323901 -0.0213444 0)
(-0.0324914 -0.0421459 0)
(-0.0196217 -0.060807 0)
(-0.00698571 -0.0973547 0)
(0.0328103 -0.0901408 0)
(0.050954 -0.0652536 0)
(0.0680728 -0.0270415 0)
(0.0706474 0.00781015 0)
(0.0674409 0.0447648 0)
(0.0674666 0.0659953 0)
(0.0450228 0.118247 0)
(0.0215209 0.160417 0)
(0.0109205 0.177132 0)
(0.0619269 0.234107 0)
(0.153775 0.315281 0)
(0.0993155 0.356172 0)
(-0.0193706 0.203416 0)
(-0.0400971 0.0272895 0)
(0.00734908 -0.125483 0)
(0.0273282 -0.127114 0)
(0.0970622 -0.126166 0)
(-0.00836188 -0.0574574 0)
(-0.0296263 -0.0691443 0)
(-0.0496238 -0.0901714 0)
(-0.0560999 -0.110839 0)
(-0.0444282 -0.121312 0)
(-0.0184144 -0.166436 0)
(0.0381013 -0.168377 0)
(0.049977 -0.137031 0)
(0.0509987 -0.0915074 0)
(0.0203881 -0.0602458 0)
(0.0130072 -0.0384654 0)
(0.0163908 -0.0303883 0)
(0.0265921 0.00825332 0)
(0.0685438 0.054455 0)
(0.0896137 0.0941781 0)
(0.140138 0.128398 0)
(0.223153 0.175659 0)
(0.343586 0.195907 0)
(0.4311 0.13816 0)
(0.460487 0.0321813 0)
(0.444681 -0.00174069 0)
(0.438065 -0.0305721 0)
(0.47015 -0.0669504 0)
(-0.0267119 0.0659102 0)
(-0.0805611 0.0669816 0)
(-0.095551 0.0451192 0)
(-0.0842795 -0.00375062 0)
(-0.0683085 -0.0517776 0)
(-0.0676023 -0.159931 0)
(-0.0586858 -0.1631 0)
(-0.0565498 -0.108142 0)
(-0.0586887 -0.0513074 0)
(-0.0651655 -0.0337167 0)
(-0.0302539 -0.0284294 0)
(-0.0288123 -0.0173536 0)
(-0.0100799 0.0136623 0)
(0.0203151 0.0396107 0)
(0.0474911 0.0742836 0)
(0.112046 0.0850246 0)
(0.171716 0.102269 0)
(0.25566 0.0542154 0)
(0.370614 0.0109716 0)
(0.421681 -0.0894726 0)
(0.480848 -0.206521 0)
(0.518885 -0.296693 0)
(0.562089 -0.347626 0)
(-0.00220468 -0.125464 0)
(-0.0148126 -0.159268 0)
(-0.0359702 -0.257324 0)
(-0.160177 -0.341311 0)
(-0.266786 -0.355723 0)
(-0.428537 -0.455158 0)
(-0.631893 -0.389181 0)
(-0.626124 -0.274446 0)
(-0.529712 -0.217055 0)
(-0.447775 -0.193448 0)
(-0.343328 -0.14589 0)
(-0.268755 -0.114322 0)
(-0.158899 -0.0834616 0)
(-0.0652526 -0.0280917 0)
(-0.0122823 -0.00928854 0)
(0.062469 -0.0274555 0)
(0.116662 -0.0325021 0)
(0.16964 -0.0885729 0)
(0.269731 -0.0872492 0)
(0.299821 -0.165633 0)
(0.387745 -0.211328 0)
(0.405838 -0.266401 0)
(0.439304 -0.342498 0)
(0.0125445 -0.416731 0)
(0.018515 -0.463503 0)
(-0.0135128 -0.528988 0)
(-0.0838434 -0.525481 0)
(-0.121974 -0.568183 0)
(-0.263218 -1.07294 0)
(-0.646513 -0.975613 0)
(-0.700595 -0.709177 0)
(-0.64843 -0.632666 0)
(-0.601396 -0.597772 0)
(-0.565565 -0.499002 0)
(-0.536736 -0.445836 0)
(-0.490618 -0.377045 0)
(-0.394131 -0.258669 0)
(-0.279312 -0.189486 0)
(-0.165814 -0.110809 0)
(-0.0610002 -0.0967023 0)
(0.0027908 -0.142546 0)
(0.152037 -0.174956 0)
(0.161605 -0.275473 0)
(0.227979 -0.341117 0)
(0.247549 -0.448138 0)
(0.277159 -0.563599 0)
(-0.0305333 -0.61948 0)
(-0.0615501 -0.517364 0)
(-0.0570532 -0.417135 0)
(-0.0427662 -0.444579 0)
(0.0537034 -0.428582 0)
(0.709866 -0.312883 0)
(0.807647 0.0640617 0)
(0.464138 0.328401 0)
(-0.154377 0.556294 0)
(-0.372234 0.750646 0)
(-0.534452 0.0916782 0)
(-0.460019 -0.486512 0)
(-0.443036 -0.642834 0)
(-0.41889 -0.643759 0)
(-0.382664 -0.606849 0)
(-0.295896 -0.584169 0)
(-0.228911 -0.581488 0)
(-0.160331 -0.57203 0)
(-0.134546 -0.563268 0)
(-0.0747023 -0.636015 0)
(-0.00370256 -0.701381 0)
(0.0242154 -0.795634 0)
(0.0658753 -0.835477 0)
(-0.290805 0.625246 0)
(-0.366707 0.346204 0)
(-0.155376 0.205043 0)
(0.0442051 0.158228 0)
(0.298665 -0.120892 0)
(0.18898 -0.239675 0)
(0.37954 0.104464 0)
(0.139507 0.404518 0)
(-0.102115 0.172373 0)
(0.103935 -0.637452 0)
(0.162876 -0.646345 0)
(0.249776 -0.490905 0)
(0.346394 -0.168684 0)
(0.411082 0.322694 0)
(0.249613 0.577126 0)
(0.182593 0.736823 0)
(0.0648473 0.574072 0)
(0.053581 0.358005 0)
(-0.0165031 0.294168 0)
(-0.126359 0.630114 0)
(-0.295214 0.207584 0)
(-0.198021 -0.164584 0)
(-0.127338 -0.507872 0)
(-0.0554017 0.210886 0)
(0.0949604 -0.146404 0)
(0.110848 -0.229426 0)
(0.16964 -0.188745 0)
(0.237196 -0.233052 0)
(0.0531279 -0.298206 0)
(0.194184 0.205064 0)
(0.153123 0.488079 0)
(0.2834 0.362357 0)
(0.289116 0.412757 0)
(-0.0916146 0.0614912 0)
(-0.0831897 -0.278707 0)
(-0.168541 -0.410083 0)
(-0.13506 -0.45815 0)
(0.0167742 -0.644873 0)
(0.186763 -0.763843 0)
(0.297549 -0.790105 0)
(0.368234 -0.731537 0)
(0.344565 -0.611786 0)
(0.40023 -0.610517 0)
(0.48273 -0.576652 0)
(0.45577 -0.550158 0)
(0.374475 -0.495415 0)
(0.0505253 0.289089 0)
(0.0824606 0.197368 0)
(0.00721551 0.0239417 0)
(0.00931046 -0.0640346 0)
(0.0393733 -0.148467 0)
(-0.0520539 -0.228373 0)
(-0.0205599 0.0686027 0)
(0.194416 0.380912 0)
(0.352842 0.254051 0)
(0.373044 0.0906344 0)
(0.427331 -0.0466454 0)
(0.307483 -0.167666 0)
(0.200926 -0.188534 0)
(0.202052 -0.0741436 0)
(0.216135 0.0304658 0)
(0.202348 0.0452712 0)
(0.192704 0.0119344 0)
(0.205231 -0.00288953 0)
(0.23689 0.01723 0)
(0.280361 0.0780342 0)
(0.264148 0.039529 0)
(0.21021 -0.0523962 0)
(0.1339 -0.168911 0)
(0.0422711 0.164073 0)
(0.099875 -0.00833132 0)
(0.126774 -0.0967265 0)
(0.100684 -0.114015 0)
(0.0658944 -0.12654 0)
(-0.0296641 -0.143558 0)
(-0.0660473 -0.050653 0)
(0.0728308 0.05972 0)
(0.286834 0.128449 0)
(0.335126 0.103114 0)
(0.320056 0.0637697 0)
(0.262643 -0.0971068 0)
(0.186275 -0.242147 0)
(0.14553 -0.303643 0)
(0.153707 -0.349811 0)
(0.168947 -0.365876 0)
(0.167627 -0.358421 0)
(0.147033 -0.335981 0)
(0.123964 -0.304265 0)
(0.115154 -0.283105 0)
(0.133468 -0.269994 0)
(0.126017 -0.273283 0)
(0.0895133 -0.277801 0)
(0.0385454 0.124909 0)
(0.065294 0.0731281 0)
(0.0557093 -0.0111823 0)
(0.0449771 -0.0604547 0)
(0.0305227 -0.0901022 0)
(-0.0038697 -0.117623 0)
(-0.0240265 -0.066951 0)
(-0.000245333 -0.0438846 0)
(0.06611 0.0363302 0)
(0.170798 0.0724571 0)
(0.175306 0.050403 0)
(0.199953 -0.0418364 0)
(0.176336 -0.129971 0)
(0.127229 -0.164112 0)
(0.093002 -0.181768 0)
(0.0628481 -0.202007 0)
(0.0363747 -0.22051 0)
(0.0176789 -0.224336 0)
(0.00714926 -0.207483 0)
(0.0068689 -0.177251 0)
(0.0126671 -0.157819 0)
(-0.000465452 -0.154257 0)
(-0.0246501 -0.15482 0)
(0.022603 0.0590255 0)
(0.0579344 -0.00408533 0)
(0.0745378 -0.0377861 0)
(0.0619254 -0.0526167 0)
(0.0395408 -0.0606115 0)
(0.0099108 -0.0625138 0)
(-0.00981497 -0.0421118 0)
(-0.0121794 -0.0336893 0)
(-0.0136455 -0.0190188 0)
(0.0500787 0.0212847 0)
(0.0922526 -0.0017534 0)
(0.10844 -0.0769905 0)
(0.0924035 -0.128383 0)
(0.0702526 -0.16877 0)
(0.0464165 -0.191573 0)
(0.0271121 -0.198983 0)
(0.00624166 -0.201268 0)
(-0.0138249 -0.195667 0)
(-0.0333235 -0.17657 0)
(-0.0492984 -0.15527 0)
(-0.0606047 -0.143049 0)
(-0.0740393 -0.138866 0)
(-0.0872189 -0.137395 0)
(0.0164345 0.03799 0)
(0.0359199 0.00160769 0)
(0.0439079 -0.0286076 0)
(0.0420233 -0.0459474 0)
(0.0317608 -0.0536112 0)
(0.0194425 -0.0544793 0)
(0.0112483 -0.0447153 0)
(0.0102954 -0.0352422 0)
(0.0124703 -0.0320218 0)
(0.0320221 -0.0181966 0)
(0.0653662 -0.0233754 0)
(0.0692533 -0.0558855 0)
(0.059001 -0.104992 0)
(0.0398336 -0.147989 0)
(0.015912 -0.177843 0)
(-0.00300315 -0.193905 0)
(-0.0221724 -0.200584 0)
(-0.0424625 -0.20101 0)
(-0.0584435 -0.192034 0)
(-0.0681221 -0.181714 0)
(-0.0743161 -0.170097 0)
(-0.0794111 -0.156914 0)
(-0.083778 -0.147125 0)
(0.00995728 0.012686 0)
(0.0231099 -0.0202911 0)
(0.0269885 -0.0298007 0)
(0.0247465 -0.0363337 0)
(0.0206771 -0.0418103 0)
(0.0170092 -0.0430757 0)
(0.0142914 -0.0404056 0)
(0.0176831 -0.0395732 0)
(0.0226929 -0.0391779 0)
(0.0336336 -0.0310457 0)
(0.0493334 -0.0374358 0)
(0.0569563 -0.056573 0)
(0.0536046 -0.0872805 0)
(0.0384182 -0.116272 0)
(0.0150553 -0.14252 0)
(-0.00538322 -0.161741 0)
(-0.0225152 -0.168252 0)
(-0.0384674 -0.167587 0)
(-0.0520383 -0.157728 0)
(-0.0640216 -0.148654 0)
(-0.0754238 -0.141458 0)
(-0.0824053 -0.133339 0)
(-0.0877627 -0.125472 0)
(0.00649341 0.000538162 0)
(0.0134965 -0.0256259 0)
(0.0163432 -0.0321465 0)
(0.0169577 -0.0378668 0)
(0.0162618 -0.0420558 0)
(0.0160015 -0.0431103 0)
(0.0176493 -0.0438942 0)
(0.0217647 -0.0429006 0)
(0.0255207 -0.0449275 0)
(0.0338934 -0.0422596 0)
(0.0440224 -0.0488695 0)
(0.0495374 -0.0616834 0)
(0.0526745 -0.0836161 0)
(0.0461835 -0.105299 0)
(0.0327082 -0.126834 0)
(0.0153437 -0.146229 0)
(-0.00600987 -0.15815 0)
(-0.0228985 -0.161147 0)
(-0.0382166 -0.154213 0)
(-0.0541536 -0.1462 0)
(-0.070288 -0.141001 0)
(-0.0791478 -0.133282 0)
(-0.0843268 -0.122919 0)
(0.00399731 -0.00698773 0)
(0.00864128 -0.0292445 0)
(0.0120054 -0.0338308 0)
(0.0138997 -0.0382577 0)
(0.0145841 -0.0422614 0)
(0.0157419 -0.0447239 0)
(0.0174459 -0.0466882 0)
(0.0207509 -0.0477349 0)
(0.0242955 -0.0498167 0)
(0.0302976 -0.0497401 0)
(0.0378931 -0.0547735 0)
(0.0438082 -0.0659765 0)
(0.0466154 -0.0834911 0)
(0.0432663 -0.0997638 0)
(0.0333138 -0.116348 0)
(0.0210222 -0.129802 0)
(0.00205697 -0.137966 0)
(-0.0171194 -0.141277 0)
(-0.0347496 -0.13593 0)
(-0.0481738 -0.12538 0)
(-0.0652059 -0.122707 0)
(-0.0776762 -0.122957 0)
(-0.0839317 -0.117088 0)
(0.00258073 -0.0124295 0)
(0.00663173 -0.0334297 0)
(0.00994498 -0.0365849 0)
(0.0122535 -0.0398676 0)
(0.013523 -0.0429831 0)
(0.0141934 -0.0458523 0)
(0.0148903 -0.0483224 0)
(0.0161678 -0.0506064 0)
(0.0178213 -0.0534584 0)
(0.0208701 -0.0563389 0)
(0.0265869 -0.0623348 0)
(0.0310708 -0.0718901 0)
(0.03077 -0.0821489 0)
(0.0268012 -0.0919175 0)
(0.0185165 -0.104326 0)
(0.00674084 -0.112647 0)
(-0.0112564 -0.118136 0)
(-0.0260788 -0.120362 0)
(-0.0390429 -0.119151 0)
(-0.0526047 -0.111225 0)
(-0.0622514 -0.108895 0)
(-0.0730412 -0.112409 0)
(-0.0778234 -0.110628 0)
(0.00197584 -0.0161995 0)
(0.00550816 -0.036701 0)
(0.00822377 -0.0390357 0)
(0.00956716 -0.0415638 0)
(0.01055 -0.0438792 0)
(0.0105054 -0.046281 0)
(0.0105013 -0.0486298 0)
(0.0108119 -0.0511743 0)
(0.0111421 -0.0544426 0)
(0.0122662 -0.0592587 0)
(0.0132454 -0.0650925 0)
(0.0140602 -0.0720822 0)
(0.0117413 -0.0795468 0)
(0.00862137 -0.0888116 0)
(0.00116741 -0.0959605 0)
(-0.00886423 -0.0996793 0)
(-0.0203818 -0.106467 0)
(-0.0319531 -0.111539 0)
(-0.0432841 -0.109463 0)
(-0.0542898 -0.104018 0)
(-0.0605235 -0.102656 0)
(-0.0667562 -0.108504 0)
(-0.0717273 -0.107368 0)
(0.00183269 -0.0199202 0)
(0.0041533 -0.0392338 0)
(0.0052949 -0.0401809 0)
(0.00658808 -0.0419303 0)
(0.00744872 -0.0438852 0)
(0.00821996 -0.0459044 0)
(0.00873061 -0.0484527 0)
(0.00902702 -0.0510412 0)
(0.00920207 -0.054422 0)
(0.00900814 -0.0589005 0)
(0.00786898 -0.0638935 0)
(0.00666722 -0.0693688 0)
(0.00307062 -0.0757079 0)
(-0.00195717 -0.0822343 0)
(-0.00781926 -0.0872064 0)
(-0.0142769 -0.092095 0)
(-0.0201681 -0.0971917 0)
(-0.0299126 -0.0991155 0)
(-0.0413606 -0.0973467 0)
(-0.0483854 -0.094369 0)
(-0.0541802 -0.0958851 0)
(-0.0609931 -0.100155 0)
(-0.0670115 -0.0990323 0)
(0.00127355 -0.022453 0)
(0.002715 -0.0404857 0)
(0.00406093 -0.0416304 0)
(0.00539268 -0.0433569 0)
(0.00626289 -0.0448857 0)
(0.00726774 -0.0466174 0)
(0.00796603 -0.0487083 0)
(0.00824156 -0.0509223 0)
(0.00830209 -0.0536341 0)
(0.00763717 -0.0573033 0)
(0.00566481 -0.0626589 0)
(0.00339497 -0.0681128 0)
(2.89687e-05 -0.0716668 0)
(-0.00475507 -0.0769952 0)
(-0.0100877 -0.0819841 0)
(-0.0165345 -0.086849 0)
(-0.0231508 -0.0877873 0)
(-0.0323568 -0.088351 0)
(-0.0409558 -0.0892227 0)
(-0.0480661 -0.0879956 0)
(-0.0551111 -0.0896803 0)
(-0.0614382 -0.0939062 0)
(-0.0701169 -0.0926009 0)
(0.000901918 -0.0240891 0)
(0.00207003 -0.0421357 0)
(0.0034969 -0.0431162 0)
(0.00432037 -0.0445 0)
(0.00493552 -0.0458431 0)
(0.0053218 -0.0475271 0)
(0.00555509 -0.0493802 0)
(0.00579805 -0.0515921 0)
(0.00598032 -0.0542681 0)
(0.00573139 -0.05695 0)
(0.00399975 -0.0602884 0)
(0.00124804 -0.0638853 0)
(-0.00118109 -0.0676576 0)
(-0.00499639 -0.0719422 0)
(-0.0102428 -0.0759939 0)
(-0.0169439 -0.0793276 0)
(-0.0243973 -0.0815909 0)
(-0.030549 -0.0829176 0)
(-0.0366542 -0.0831522 0)
(-0.042823 -0.0817102 0)
(-0.0489779 -0.0832945 0)
(-0.0543983 -0.0860331 0)
(-0.0640173 -0.0842429 0)
(0.000792186 -0.0255684 0)
(0.00165509 -0.0429238 0)
(0.00189098 -0.0436513 0)
(0.00227299 -0.0444998 0)
(0.00241945 -0.045912 0)
(0.00243481 -0.047662 0)
(0.00221983 -0.0495419 0)
(0.00177828 -0.0515245 0)
(0.00112342 -0.0533282 0)
(0.000143123 -0.0552767 0)
(-0.000885455 -0.0576156 0)
(-0.00382412 -0.0609715 0)
(-0.00700638 -0.0650839 0)
(-0.0103346 -0.0672575 0)
(-0.0144862 -0.0698673 0)
(-0.0196422 -0.0711137 0)
(-0.026407 -0.0731076 0)
(-0.0335109 -0.0751234 0)
(-0.0396382 -0.0746327 0)
(-0.0461731 -0.0750076 0)
(-0.0522392 -0.0760639 0)
(-0.0591196 -0.0763538 0)
(-0.066315 -0.0738457 0)
(0.000478558 -0.0265291 0)
(0.00100372 -0.0434225 0)
(0.00125535 -0.0440533 0)
(0.00154508 -0.0450324 0)
(0.00150097 -0.0460616 0)
(0.00135443 -0.0471397 0)
(0.0008754 -0.0486096 0)
(7.78884e-05 -0.0504723 0)
(-0.00100031 -0.0527259 0)
(-0.00245693 -0.0543714 0)
(-0.00428297 -0.0567256 0)
(-0.0064791 -0.0597889 0)
(-0.0101303 -0.0616653 0)
(-0.0141425 -0.0646676 0)
(-0.0188781 -0.0668437 0)
(-0.0231655 -0.0679895 0)
(-0.0267338 -0.0696171 0)
(-0.0316414 -0.0700335 0)
(-0.0379362 -0.0704898 0)
(-0.0432885 -0.0710164 0)
(-0.0484526 -0.071432 0)
(-0.0573268 -0.0714564 0)
(-0.0628413 -0.0697034 0)
(0.000497341 -0.0274236 0)
(0.00094131 -0.043789 0)
(0.00104774 -0.0442467 0)
(0.00115414 -0.0448622 0)
(0.00100124 -0.0456371 0)
(0.000612245 -0.046751 0)
(0.000101595 -0.0479728 0)
(-0.000673023 -0.0493162 0)
(-0.00186541 -0.0507226 0)
(-0.00380991 -0.0528519 0)
(-0.0054553 -0.0544856 0)
(-0.00720412 -0.0555986 0)
(-0.00978305 -0.0574358 0)
(-0.0133417 -0.0595017 0)
(-0.0178467 -0.0609445 0)
(-0.0223417 -0.062708 0)
(-0.0286203 -0.0634725 0)
(-0.0344731 -0.0629822 0)
(-0.0397891 -0.0638156 0)
(-0.0442495 -0.0632443 0)
(-0.0508668 -0.0630421 0)
(-0.0569504 -0.0619473 0)
(-0.0627257 -0.0627196 0)
(0.000202337 -0.0276883 0)
(0.000199209 -0.0438075 0)
(3.36066e-05 -0.0442856 0)
(-7.81301e-05 -0.0448844 0)
(-0.000421015 -0.0455976 0)
(-0.000966591 -0.0464727 0)
(-0.00174456 -0.0475219 0)
(-0.00281275 -0.0487038 0)
(-0.00416984 -0.0498243 0)
(-0.00571209 -0.0505716 0)
(-0.00780864 -0.0518484 0)
(-0.0108775 -0.053722 0)
(-0.0137606 -0.0550146 0)
(-0.0167024 -0.0553789 0)
(-0.020443 -0.0567273 0)
(-0.0252818 -0.0581304 0)
(-0.0292013 -0.0581385 0)
(-0.0330622 -0.0598356 0)
(-0.0370236 -0.0593861 0)
(-0.0436964 -0.0590132 0)
(-0.0489101 -0.057354 0)
(-0.055359 -0.0577149 0)
(-0.0607169 -0.056899 0)
(0.000176791 -0.0281216 0)
(0.000199306 -0.0438653 0)
(-8.38642e-05 -0.0442374 0)
(-0.000278654 -0.0446393 0)
(-0.000695482 -0.0450939 0)
(-0.00117873 -0.0455643 0)
(-0.00195324 -0.0462679 0)
(-0.00302511 -0.0470635 0)
(-0.00435525 -0.0479721 0)
(-0.00585382 -0.0490075 0)
(-0.00793337 -0.0500377 0)
(-0.010476 -0.0507608 0)
(-0.0135247 -0.0520742 0)
(-0.017328 -0.0529857 0)
(-0.0200935 -0.0539938 0)
(-0.0230738 -0.0536678 0)
(-0.0279012 -0.0542447 0)
(-0.033102 -0.053532 0)
(-0.0391189 -0.052846 0)
(-0.0442644 -0.052868 0)
(-0.0486206 -0.0535027 0)
(-0.0538444 -0.0517192 0)
(-0.0602237 -0.0499753 0)
(7.4389e-05 -0.0280034 0)
(-7.99904e-05 -0.0434008 0)
(-0.000497383 -0.0437196 0)
(-0.000902557 -0.0440307 0)
(-0.00156437 -0.044448 0)
(-0.00231318 -0.0449917 0)
(-0.00328584 -0.0455727 0)
(-0.004536 -0.0461673 0)
(-0.00609349 -0.0468364 0)
(-0.0079346 -0.047468 0)
(-0.00977399 -0.0475656 0)
(-0.0113246 -0.0481364 0)
(-0.0138977 -0.0485128 0)
(-0.0167941 -0.0491459 0)
(-0.0211401 -0.0489328 0)
(-0.0259021 -0.0498617 0)
(-0.0300155 -0.049712 0)
(-0.033839 -0.0491485 0)
(-0.0371937 -0.0499946 0)
(-0.0410112 -0.0488129 0)
(-0.047487 -0.0461443 0)
(-0.0535717 -0.0456068 0)
(-0.05822 -0.0451891 0)
(1.88789e-05 -0.0282101 0)
(-0.000144056 -0.0433743 0)
(-0.000531284 -0.0436341 0)
(-0.000830331 -0.0437332 0)
(-0.00131498 -0.0438291 0)
(-0.00199351 -0.0440044 0)
(-0.00287376 -0.0442178 0)
(-0.00396649 -0.0444864 0)
(-0.00532562 -0.0447782 0)
(-0.00708311 -0.045158 0)
(-0.00951983 -0.0457655 0)
(-0.0126622 -0.0458721 0)
(-0.015452 -0.0459624 0)
(-0.0183682 -0.0458943 0)
(-0.020987 -0.0464086 0)
(-0.0234537 -0.0465533 0)
(-0.0269006 -0.0460236 0)
(-0.031462 -0.0455686 0)
(-0.0367653 -0.0432083 0)
(-0.0424765 -0.0425077 0)
(-0.0465048 -0.0427641 0)
(-0.0512614 -0.0409781 0)
(-0.0570496 -0.0388529 0)
(-5.07885e-05 -0.0278823 0)
(-0.000335849 -0.0427527 0)
(-0.000859287 -0.0430355 0)
(-0.00133545 -0.043102 0)
(-0.00201595 -0.0432168 0)
(-0.00285182 -0.0433502 0)
(-0.00390323 -0.0434371 0)
(-0.00517065 -0.0434614 0)
(-0.00665235 -0.0434332 0)
(-0.00830077 -0.043296 0)
(-0.00995212 -0.0430602 0)
(-0.011505 -0.0430816 0)
(-0.013744 -0.043202 0)
(-0.016506 -0.0430929 0)
(-0.0198622 -0.0424162 0)
(-0.0241675 -0.0416118 0)
(-0.028542 -0.0410708 0)
(-0.0324535 -0.0401324 0)
(-0.0361005 -0.0404153 0)
(-0.039648 -0.0391703 0)
(-0.0447704 -0.0368101 0)
(-0.0502213 -0.0353886 0)
(-0.0551161 -0.0338078 0)
(-3.43174e-05 -0.0279531 0)
(-0.000143269 -0.0426257 0)
(-0.000507197 -0.0428219 0)
(-0.000810566 -0.0426933 0)
(-0.00134555 -0.0425465 0)
(-0.00204019 -0.0423779 0)
(-0.00298637 -0.0422132 0)
(-0.00420888 -0.042076 0)
(-0.00571437 -0.0419552 0)
(-0.00751701 -0.0418555 0)
(-0.00970048 -0.0417781 0)
(-0.0123447 -0.0413741 0)
(-0.0150205 -0.0407902 0)
(-0.0178058 -0.0403243 0)
(-0.0206734 -0.0398978 0)
(-0.0234126 -0.0394799 0)
(-0.0263783 -0.038673 0)
(-0.0300241 -0.0372921 0)
(-0.0343216 -0.0351875 0)
(-0.0390258 -0.0337144 0)
(-0.0433697 -0.0325805 0)
(-0.0480551 -0.0306405 0)
(-0.0531709 -0.0284084 0)
(-3.57448e-05 -0.0276372 0)
(-0.000245333 -0.0421402 0)
(-0.000699255 -0.042323 0)
(-0.00109037 -0.0420833 0)
(-0.0017052 -0.041797 0)
(-0.00243888 -0.0414232 0)
(-0.00335295 -0.0409707 0)
(-0.00446753 -0.0404701 0)
(-0.00579665 -0.0399299 0)
(-0.00734599 -0.0393501 0)
(-0.00911526 -0.0387571 0)
(-0.0110513 -0.0383331 0)
(-0.013283 -0.0378512 0)
(-0.0158369 -0.0371027 0)
(-0.0187493 -0.036209 0)
(-0.0221061 -0.035091 0)
(-0.0257965 -0.033882 0)
(-0.0295224 -0.0327529 0)
(-0.0331753 -0.0316242 0)
(-0.0369623 -0.0299216 0)
(-0.0412943 -0.0278157 0)
(-0.046043 -0.0257431 0)
(-0.0508696 -0.0233946 0)
(6.4038e-05 -0.0277694 0)
(3.79483e-05 -0.0420914 0)
(-0.000319355 -0.0422093 0)
(-0.000553979 -0.0418511 0)
(-0.00104354 -0.0414444 0)
(-0.00164454 -0.0409505 0)
(-0.00244624 -0.0403959 0)
(-0.00347601 -0.0397913 0)
(-0.00476872 -0.0391548 0)
(-0.00636706 -0.0385021 0)
(-0.00825025 -0.0377291 0)
(-0.0104304 -0.0367571 0)
(-0.0128673 -0.0358026 0)
(-0.0154664 -0.0348415 0)
(-0.0182156 -0.0337577 0)
(-0.021105 -0.0325797 0)
(-0.0241495 -0.0312143 0)
(-0.0274854 -0.0295221 0)
(-0.0311838 -0.0275796 0)
(-0.0351157 -0.0255981 0)
(-0.0391916 -0.0235241 0)
(-0.0435984 -0.0211488 0)
(-0.048288 -0.0184867 0)
(0.000136969 -0.0277497 0)
(7.24761e-05 -0.0416305 0)
(-0.000345566 -0.0417126 0)
(-0.000591743 -0.0412041 0)
(-0.0010824 -0.0406419 0)
(-0.00162896 -0.0399685 0)
(-0.00226648 -0.0391463 0)
(-0.00301419 -0.0381992 0)
(-0.00395749 -0.0371555 0)
(-0.00518038 -0.0360468 0)
(-0.00677784 -0.035012 0)
(-0.0087446 -0.034086 0)
(-0.0110263 -0.0331014 0)
(-0.013612 -0.0319604 0)
(-0.0164142 -0.0306675 0)
(-0.0194023 -0.0292121 0)
(-0.0225567 -0.0276052 0)
(-0.0258462 -0.025889 0)
(-0.0292592 -0.0239763 0)
(-0.0328614 -0.0217871 0)
(-0.0367299 -0.0193503 0)
(-0.0409314 -0.0167159 0)
(-0.0454007 -0.0137978 0)
(0.000353909 -0.0280838 0)
(0.000221451 -0.0416583 0)
(-0.000398692 -0.0417079 0)
(-0.000700295 -0.0411415 0)
(-0.00126068 -0.0405103 0)
(-0.00181735 -0.0397666 0)
(-0.00240497 -0.0388538 0)
(-0.00306435 -0.0378002 0)
(-0.00386307 -0.0365924 0)
(-0.00481515 -0.03521 0)
(-0.0059781 -0.0336935 0)
(-0.00744288 -0.0321087 0)
(-0.0092766 -0.0305505 0)
(-0.0115543 -0.0290905 0)
(-0.0142228 -0.027716 0)
(-0.0172019 -0.0263045 0)
(-0.0203443 -0.0246807 0)
(-0.0235812 -0.0227188 0)
(-0.0269181 -0.0204991 0)
(-0.0303857 -0.0180827 0)
(-0.0340348 -0.015437 0)
(-0.0379628 -0.0125219 0)
(-0.0421931 -0.00931649 0)
(0.000462522 -0.0281744 0)
(0.000104322 -0.0407491 0)
(-0.00103214 -0.0407349 0)
(-0.00161114 -0.0401692 0)
(-0.00243889 -0.0394895 0)
(-0.00315801 -0.0387119 0)
(-0.00394621 -0.0378756 0)
(-0.00473157 -0.0368418 0)
(-0.00551216 -0.035573 0)
(-0.0063185 -0.0341055 0)
(-0.00718791 -0.0324777 0)
(-0.00820795 -0.0307506 0)
(-0.00945876 -0.0289471 0)
(-0.010951 -0.0270241 0)
(-0.0127515 -0.0250256 0)
(-0.0149198 -0.0229841 0)
(-0.0175796 -0.0210481 0)
(-0.0207628 -0.0192263 0)
(-0.0241718 -0.0171928 0)
(-0.0275464 -0.0146639 0)
(-0.0310313 -0.01177 0)
(-0.0346995 -0.00858407 0)
(-0.0386684 -0.00508879 0)
(0.000479142 -0.0284333 0)
(-0.000453113 -0.0398177 0)
(-0.00242333 -0.0397824 0)
(-0.00359864 -0.0393575 0)
(-0.00497459 -0.0387663 0)
(-0.00611574 -0.038064 0)
(-0.00721895 -0.0372203 0)
(-0.00821228 -0.0362102 0)
(-0.0090888 -0.0350005 0)
(-0.00982673 -0.0335692 0)
(-0.0104644 -0.0318774 0)
(-0.0110909 -0.0299764 0)