/*--------------------------------*- C++ -*----------------------------------*\
| =========                 |                                                 |
| \\      /  F ield         | OpenFOAM: The Open Source CFD Toolbox           |
|  \\    /   O peration     | Version:  2.4.0                                 |
|   \\  /    A nd           | Web:      www.OpenFOAM.org                      |
|    \\/     M anipulation  |                                                 |
\*---------------------------------------------------------------------------*/
FoamFile
{
    version     2.0;
    format      ascii;
    class       volScalarField;
    location    "0.85";
    object      alpha.oil;
}
// * * * * * * * * * * * * * * * * * * * * * * * * * * * * * * * * * * * * * //

dimensions      [0 0 0 0 0 0 0];

internalField   nonuniform List<scalar> 
575
(
1.91471e-06
2.3681e-06
2.99365e-06
2.99696e-06
1.14187e-06
1.09673e-06
1.66575e-06
1.47716e-06
3.18493e-07
3.44281e-07
4.01991e-07
3.45034e-07
1.30203e-07
1.30831e-07
1.02618e-07
8.50743e-08
3.4885e-08
3.19363e-08
2.67815e-08
1.46205e-08
6.11648e-09
5.21067e-09
2.91555e-09
2.01833e-09
1.51057e-09
1.22173e-09
7.76256e-10
4.87328e-10
7.10804e-10
5.19455e-10
3.88445e-10
2.01648e-10
3.324e-10
2.0182e-10
1.37297e-10
8.58857e-11
1.10022e-10
7.12566e-11
4.48387e-11
2.70239e-11
2.96835e-11
1.87298e-11
1.1312e-11
6.52821e-12
6.31244e-12
3.92898e-12
2.29079e-12
1.26657e-12
1.17876e-12
6.96282e-13
3.86062e-13
2.02925e-13
1.88836e-13
1.04858e-13
5.48752e-14
2.72618e-14
2.60144e-14
1.35222e-14
6.6468e-15
3.11235e-15
3.10882e-15
1.50692e-15
6.93782e-16
3.10226e-16
3.25054e-16
1.46552e-16
6.35826e-17
3.07205e-17
3.0042e-17
1.26229e-17
5.50637e-18
5.47851e-18
2.48629e-18
9.98867e-19
6.53547e-19
2.56741e-18
1.87839e-19
8.50996e-20
1.87927e-19
1.50897e-18
1.36129e-20
1.24803e-20
8.29545e-20
8.03492e-19
1.12884e-21
3.56945e-21
3.58149e-20
3.7777e-19
1.5371e-22
1.23179e-21
1.4182e-20
1.62412e-19
3.61511e-23
4.27537e-22
5.45588e-21
6.98409e-20
3.78226e-23
5.58031e-22
8.30603e-21
1.22861e-19
1.58615e-06
5.98401e-07
1.66882e-07
6.54756e-08
3.30874e-08
5.76383e-08
1.04372e-07
1.43506e-07
3.25394e-07
2.08487e-06
2.22297e-06
2.27119e-06
3.44267e-06
5.10585e-06
1.93109e-05
2.36359e-05
2.35348e-05
6.39608e-06
1.52655e-06
5.74185e-07
1.65296e-07
6.2434e-08
2.22071e-08
1.30293e-08
3.1864e-08
6.64523e-08
9.71027e-08
1.72099e-07
4.12356e-07
1.06531e-06
1.57852e-06
1.75692e-06
1.63356e-06
8.71064e-06
2.36032e-05
1.78735e-05
3.05448e-06
1.61369e-06
1.33092e-07
5.4471e-08
1.82426e-08
6.04498e-09
3.54374e-09
1.10124e-08
3.12756e-08
4.79475e-08
8.24002e-08
1.42048e-07
2.63754e-07
4.61335e-07
6.87903e-07
8.32574e-07
1.00328e-06
1.94103e-05
1.22013e-05
2.10086e-06
1.57005e-06
3.2896e-08
1.09805e-08
3.21124e-09
1.09989e-09
1.26742e-09
4.78404e-09
8.63026e-09
1.29228e-08
2.54973e-08
5.49479e-08
8.64236e-08
1.15878e-07
1.54345e-07
3.84819e-07
6.18651e-07
5.19933e-06
1.18121e-05
3.30848e-06
1.58139e-06
4.4515e-09
1.02386e-09
3.13692e-10
2.81348e-10
7.13618e-10
1.11113e-09
1.69698e-09
2.71203e-09
5.33132e-09
1.23402e-08
2.75181e-08
4.72644e-08
7.46763e-08
2.84033e-07
5.20772e-07
1.72272e-06
1.03684e-05
5.36083e-06
1.5598e-06
5.54914e-10
2.12904e-10
1.07166e-10
9.48509e-11
1.50872e-10
2.69942e-10
4.40157e-10
9.9372e-10
2.60838e-09
7.22894e-09
1.89075e-08
4.27461e-08
1.20638e-07
2.7607e-07
5.07676e-07
1.1488e-06
1.00698e-05
6.17881e-06
1.56606e-06
2.17332e-10
9.39949e-11
4.454e-11
2.87941e-11
3.03067e-11
5.68921e-11
1.63052e-10
5.27599e-10
1.92986e-09
7.21721e-09
2.01022e-08
4.58802e-08
2.06839e-07
3.85377e-07
6.02399e-07
9.32106e-07
6.90892e-06
4.54287e-06
1.48006e-06
8.78614e-11
3.68949e-11
1.61116e-11
9.89593e-12
1.15109e-11
2.43205e-11
7.44193e-11
3.03818e-10
1.44706e-09
6.15771e-09
1.75615e-08
4.04069e-08
2.9887e-07
5.94797e-07
8.05408e-07
1.07233e-06
3.48909e-06
2.21122e-06
1.43653e-06
3.36023e-11
1.26428e-11
5.05707e-12
3.2155e-12
4.5439e-12
1.14318e-11
3.96251e-11
1.89394e-10
9.52636e-10
4.42791e-09
1.89693e-08
4.7888e-08
4.25467e-07
8.67592e-07
1.13217e-06
1.36966e-06
2.56203e-06
1.9507e-06
1.29976e-06
9.7633e-12
3.36628e-12
1.28922e-12
9.45179e-13
1.90849e-12
6.7081e-12
3.01736e-11
1.28035e-10
5.20565e-10
3.22238e-09
2.58638e-08
6.80196e-08
5.80822e-07
2.18267e-06
6.63696e-06
7.6902e-06
6.4454e-06
1.99685e-06
1.23134e-06
2.20163e-12
7.0301e-13
2.84601e-13
3.56929e-13
1.33088e-12
6.37492e-12
3.10304e-11
9.637e-11
3.49559e-10
3.05887e-09
2.74142e-08
8.27526e-08
6.70982e-07
6.50861e-06
3.44607e-05
3.5951e-05
1.9206e-05
4.55713e-06
1.42111e-06
3.98745e-13
1.21114e-13
7.43566e-14
2.36712e-13
1.2739e-12
6.99078e-12
3.5374e-11
1.03314e-10
3.11068e-10
2.87857e-09
2.37632e-08
8.42303e-08
6.22615e-07
7.45728e-06
3.35244e-05
3.59553e-05
3.58985e-05
9.90491e-06
2.21057e-06
5.95071e-14
2.02797e-14
3.50597e-14
2.02898e-13
1.29284e-12
7.90863e-12
4.29561e-11
1.60972e-10
6.33817e-10
3.23464e-09
1.56173e-08
7.47307e-08
4.49565e-07
1.37725e-06
3.95094e-06
2.31842e-05
1.69721e-05
1.01526e-05
2.17714e-06
7.64805e-15
5.05733e-15
2.56773e-14
1.9229e-13
1.40358e-12
9.52708e-12
5.60039e-11
2.59236e-10
1.16131e-09
4.93299e-09
1.76297e-08
6.47869e-08
2.77696e-07
8.78989e-07
1.4267e-06
1.65732e-06
5.64717e-06
4.79666e-06
1.08737e-06
1.01544e-15
2.66955e-15
2.28626e-14
1.99858e-13
1.6322e-12
1.20727e-11
7.56724e-11
3.62281e-10
1.87185e-09
8.47603e-09
2.88566e-08
8.43047e-08
2.67944e-07
5.56017e-07
9.15348e-07
1.2475e-06
4.82899e-06
1.81736e-06
4.33843e-07
2.44836e-16
1.96012e-15
2.04729e-14
2.02239e-13
1.83426e-12
1.47842e-11
9.79826e-11
4.83523e-10
3.04882e-09
1.43281e-08
4.59073e-08
1.2423e-07
4.1864e-07
6.17948e-07
8.55148e-07
1.25502e-06
3.0225e-06
9.8798e-07
3.66718e-07
1.26898e-16
1.52052e-15
1.80695e-14
1.9925e-13
1.99372e-12
1.72603e-11
1.19122e-10
6.37131e-10
4.39902e-09
2.05827e-08
6.32571e-08
2.39408e-07
6.4297e-07
9.24405e-07
1.1334e-06
3.54945e-06
1.48706e-06
7.17957e-07
1.73505e-07
8.46262e-17
1.18252e-15
1.55763e-14
1.87162e-13
1.99697e-12
1.77095e-11
1.23076e-10
7.45791e-10
5.0694e-09
2.48286e-08
7.82371e-08
3.64108e-07
8.0754e-07
1.32596e-06
2.57905e-06
3.69485e-06
9.46496e-07
2.95535e-07
1.09041e-07
5.43796e-17
8.28726e-16
1.16637e-14
1.46282e-13
1.57663e-12
1.35781e-11
8.17081e-11
6.61047e-10
4.25826e-09
2.11482e-08
6.87448e-08
2.74916e-07
8.41285e-07
1.55166e-06
2.83989e-06
1.97913e-06
5.07796e-07
1.45451e-07
3.46239e-08
3.04344e-17
4.8959e-16
7.13314e-15
9.03822e-14
9.62069e-13
8.0819e-12
5.0771e-11
4.3024e-10
2.59965e-09
1.18467e-08
4.33025e-08
1.35533e-07
5.7911e-07
8.88122e-07
1.36849e-06
5.5082e-07
2.17389e-07
4.48308e-08
9.00861e-09
1.45157e-17
2.42554e-16
3.6157e-15
4.61058e-14
4.871e-13
4.00673e-12
2.30543e-11
2.33305e-10
1.04982e-09
3.96025e-09
1.45617e-08
4.858e-08
2.47831e-07
3.34623e-07
3.18959e-07
1.84038e-07
8.75398e-08
1.61416e-08
3.94768e-09
6.05996e-18
1.05923e-16
1.64771e-15
2.20165e-14
2.47796e-13
2.26354e-12
1.63761e-11
1.43483e-10
7.27535e-10
2.70889e-09
6.64048e-09
1.18791e-08
5.35985e-08
7.54937e-08
6.34825e-08
3.69943e-08
1.50142e-08
9.66813e-09
3.68458e-09
2.39095e-18
4.65446e-17
8.28292e-16
1.31541e-14
1.82208e-13
2.0632e-12
1.80558e-11
1.31123e-10
6.71684e-10
2.26146e-09
3.49451e-09
2.42943e-09
8.96406e-09
1.22519e-08
1.1523e-08
7.65429e-09
6.44233e-09
5.81123e-09
3.19003e-09
1.026e-18
2.71332e-17
6.60294e-16
1.29189e-14
1.95507e-13
2.17844e-12
1.71673e-11
1.04561e-10
3.90037e-10
7.69922e-10
7.60434e-10
6.5915e-10
1.02956e-09
1.99956e-09
2.56265e-09
2.01157e-09
2.34213e-09
2.50344e-09
1.56013e-09
1.78377e-18
4.57858e-17
8.82682e-16
1.26485e-14
1.36324e-13
1.13097e-12
7.0948e-12
1.5632e-11
1.76969e-11
1.55679e-11
8.89347e-12
7.89099e-12
7.55615e-12
2.22785e-11
1.4702e-10
2.28893e-10
4.63894e-10
5.50692e-10
4.01857e-10
)
;

boundaryField
{
    leftWall
    {
        type            zeroGradient;
    }
    rightWall
    {
        type            zeroGradient;
    }
    lowerWall
    {
        type            zeroGradient;
    }
    atmosphere
    {
        type            inletOutlet;
        inletValue      uniform 0;
        value           nonuniform List<scalar> 
23
(
3.78226e-23
5.58031e-22
8.30603e-21
1.22861e-19
0
0
0
0
0
0
0
0
0
0
0
0
0
0
0
0
0
0
0
)
;
    }
    defaultFaces
    {
        type            empty;
    }
    procBoundary3to1
    {
        type            processor;
        value           nonuniform List<scalar> 
23
(
1.9269e-06
2.82309e-06
2.99533e-06
2.99468e-06
2.84028e-06
1.22983e-06
3.05111e-07
1.16414e-07
5.77362e-08
6.60949e-08
1.3777e-07
2.96971e-07
1.79157e-06
1.9983e-06
2.02745e-06
2.01204e-06
2.08247e-06
5.40646e-06
7.36201e-06
2.025e-05
2.27859e-05
5.12581e-06
1.52528e-06
)
;
    }
    procBoundary3to2
    {
        type            processor;
        value           nonuniform List<scalar> 
25
(
1.7955e-06
1.12483e-06
3.18584e-07
1.28754e-07
3.75183e-08
6.72205e-09
1.89918e-09
9.52992e-10
4.35251e-10
1.5872e-10
4.50601e-11
9.2767e-12
1.84477e-12
3.17755e-13
4.70582e-14
6.063e-15
6.85861e-16
6.8762e-17
6.17753e-18
5.0326e-19
3.77592e-20
2.67794e-21
1.85213e-22
1.33139e-23
2.03403e-24
)
;
    }
}


// ************************************************************************* //
