/*--------------------------------*- C++ -*----------------------------------*\
| =========                 |                                                 |
| \\      /  F ield         | OpenFOAM: The Open Source CFD Toolbox           |
|  \\    /   O peration     | Version:  2.4.0                                 |
|   \\  /    A nd           | Web:      www.OpenFOAM.org                      |
|    \\/     M anipulation  |                                                 |
\*---------------------------------------------------------------------------*/
FoamFile
{
    version     2.0;
    format      ascii;
    class       volScalarField;
    location    "0.85";
    object      alpha.water;
}
// * * * * * * * * * * * * * * * * * * * * * * * * * * * * * * * * * * * * * //

dimensions      [0 0 0 0 0 0 0];

internalField   nonuniform List<scalar> 
575
(
7.14947e-09
7.16926e-09
7.33393e-09
7.35159e-09
7.40617e-09
7.45192e-09
7.30139e-09
6.32704e-09
4.04845e-09
4.0306e-09
3.65085e-09
2.9733e-09
1.58415e-09
1.51866e-09
1.2213e-09
1.00225e-09
4.07853e-10
3.60393e-10
3.04189e-10
1.96669e-10
5.99919e-11
5.19596e-11
2.86493e-11
2.11045e-11
6.55008e-12
5.43789e-12
3.33605e-12
2.22062e-12
5.86287e-13
4.73176e-13
3.20859e-13
2.08977e-13
4.89483e-14
3.87627e-14
2.76931e-14
1.85559e-14
4.03091e-15
3.12573e-15
2.25632e-15
1.53043e-15
3.15697e-16
2.3664e-16
1.67138e-16
1.11216e-16
2.21346e-17
1.58571e-17
1.07331e-17
6.87959e-18
1.3421e-18
9.10325e-19
5.84773e-19
3.58722e-19
6.96862e-20
4.4442e-20
2.6983e-20
1.59047e-20
3.11111e-21
1.8561e-21
1.06841e-21
6.18204e-22
1.20993e-22
6.75555e-23
3.78548e-23
2.61457e-23
4.1914e-24
2.26259e-24
1.69288e-24
4.19416e-24
1.37534e-25
1.07616e-25
3.53066e-25
2.3963e-24
6.47554e-27
2.33193e-26
1.80422e-25
1.49348e-24
1.18151e-27
1.00634e-26
9.21004e-26
8.43114e-25
4.16027e-28
4.24497e-27
4.24642e-26
4.22077e-25
1.46387e-28
1.63086e-27
1.76904e-26
1.90086e-25
4.82026e-29
5.78033e-28
6.79918e-27
7.95363e-26
1.52091e-29
1.97629e-28
2.55441e-27
3.31929e-26
1.67066e-29
2.47592e-28
3.67422e-27
5.38372e-26
6.57383e-09
4.51283e-09
2.39389e-09
1.09851e-09
3.90065e-10
4.63805e-10
3.51732e-09
1.22024e-08
2.93035e-08
6.84206e-08
6.32496e-09
7.842e-10
6.03794e-10
4.58625e-09
8.46862e-09
9.67488e-09
5.41204e-09
1.51407e-09
5.56174e-10
4.06694e-09
2.05831e-09
9.46507e-10
3.56804e-10
1.28533e-10
1.06443e-10
3.31992e-10
1.65478e-09
1.15975e-08
4.57281e-08
4.65485e-08
4.45067e-08
2.784e-08
3.00495e-08
3.608e-08
2.81982e-08
9.13862e-09
1.55553e-09
6.44436e-10
1.59052e-09
7.5208e-10
2.76928e-10
8.86058e-11
3.04349e-11
2.26054e-11
3.71446e-11
1.3717e-10
1.97349e-09
1.30542e-08
2.10665e-08
2.88358e-08
4.2563e-08
4.47757e-08
4.47755e-08
3.23441e-08
9.33833e-09
1.6813e-09
6.44507e-10
4.63513e-10
1.6082e-10
4.58192e-11
1.25377e-11
5.12615e-12
4.73266e-12
6.48096e-12
1.16842e-11
1.00367e-10
1.86044e-09
3.67132e-09
5.69264e-09
8.89089e-09
1.67854e-08
1.71005e-08
9.67639e-09
4.99659e-09
1.81283e-09
6.29038e-10
6.38913e-11
1.38639e-11
3.45502e-12
1.36396e-12
9.8935e-13
1.15035e-12
1.84068e-12
3.71519e-12
8.90318e-12
3.49504e-11
1.69619e-10
5.20904e-10
1.13809e-09
2.93409e-09
2.83142e-09
1.72677e-09
2.07319e-09
1.69571e-09
5.05968e-10
5.17226e-12
1.6139e-12
5.51584e-13
2.79061e-13
2.31767e-13
3.28052e-13
6.94333e-13
1.83314e-12
5.56762e-12
1.81032e-11
5.5086e-11
1.62216e-10
4.16203e-10
7.84787e-10
1.00876e-09
1.1008e-09
1.46072e-09
1.14238e-09
3.96347e-10
7.12697e-13
2.34356e-13
8.97213e-14
5.17613e-14
5.33768e-14
1.03968e-13
2.88629e-13
1.01784e-12
4.30882e-12
1.94463e-11
6.71018e-11
1.8944e-10
5.10299e-10
7.83157e-10
1.00224e-09
1.19106e-09
1.43696e-09
1.02115e-09
3.46467e-10
7.90116e-14
2.9568e-14
1.25448e-14
8.68646e-15
1.24803e-14
3.24825e-14
1.19123e-13
5.89476e-13
3.63664e-12
2.16276e-11
9.7399e-11
2.8452e-10
8.00149e-10
1.20107e-09
1.42353e-09
1.58623e-09
1.55721e-09
8.94785e-10
3.07919e-10
7.82676e-15
3.2178e-15
1.52391e-15
1.40182e-15
2.78056e-15
8.79564e-15
4.42939e-14
3.3666e-13
2.96635e-12
2.15511e-11
1.20788e-10
3.77175e-10
1.08954e-09
1.59553e-09
1.85184e-09
1.94017e-09
1.65345e-09
8.14573e-10
2.49616e-10
6.80873e-16
2.95681e-16
1.67407e-16
2.19319e-16
5.37058e-16
1.92753e-15
1.42247e-14
1.84665e-13
2.07103e-12
1.8641e-11
1.23706e-10
4.19199e-10
1.30991e-09
1.96869e-09
2.31493e-09
2.21631e-09
1.48967e-09
7.26823e-10
1.55067e-10
5.05878e-17
2.29672e-17
1.75311e-17
3.13492e-17
8.59231e-17
3.65081e-16
4.182e-15
8.67465e-14
1.314e-12
1.36752e-11
1.03657e-10
4.01116e-10
1.33903e-09
2.17678e-09
2.35098e-09
2.08887e-09
1.37535e-09
7.58749e-10
1.11252e-10
3.19633e-18
1.59974e-18
1.78244e-18
3.92735e-18
1.19979e-17
6.45601e-17
9.2044e-16
2.45566e-14
5.70854e-13
6.67786e-12
6.4372e-11
3.03495e-10
1.10094e-09
1.94632e-09
2.21075e-09
2.00564e-09
1.66431e-09
8.26142e-10
8.11156e-11
1.75161e-19
1.13023e-19
1.8194e-19
5.06885e-19
2.04911e-18
1.35385e-17
1.61964e-16
3.27014e-15
8.41973e-14
1.8281e-12
1.79455e-11
1.79672e-10
6.96969e-10
1.55894e-09
2.0628e-09
2.12001e-09
1.82018e-09
6.38019e-10
3.96901e-11
8.92055e-21
9.62719e-21
2.91663e-20
1.53808e-19
1.02388e-18
7.49902e-18
6.08671e-17
6.95509e-16
1.455e-14
3.79619e-13
5.45689e-12
3.87777e-11
3.07403e-10
9.08915e-10
1.40393e-09
1.48595e-09
1.08763e-09
2.52944e-10
2.00987e-11
5.87251e-22
2.1111e-21
1.56649e-20
1.33355e-19
1.13233e-18
9.24675e-18
7.09901e-17
5.16265e-16
4.33277e-15
6.93683e-14
1.32688e-12
8.74517e-12
8.41042e-11
2.95099e-10
5.2501e-10
5.68749e-10
2.9977e-10
4.33403e-11
6.05701e-12
1.41576e-22
1.35676e-21
1.41903e-20
1.45188e-19
1.41662e-18
1.29251e-17
1.06854e-16
7.7067e-16
4.69678e-15
2.65836e-14
2.07769e-13
1.96798e-12
7.70253e-12
4.12646e-11
9.92491e-11
8.9258e-11
4.75446e-11
1.07615e-11
2.32936e-12
8.61067e-23
1.07523e-21
1.31816e-20
1.54324e-19
1.69229e-18
1.69099e-17
1.48269e-16
1.09421e-15
6.512e-15
3.00745e-14
1.05821e-13
3.40156e-13
1.00907e-12
3.24118e-12
6.40987e-12
8.95694e-12
5.48659e-12
2.01426e-12
7.64739e-13
5.65137e-23
8.10365e-22
1.12673e-20
1.47109e-19
1.75639e-18
1.85181e-17
1.6625e-16
1.22721e-15
7.19175e-15
3.24518e-14
1.05874e-13
2.75093e-13
6.23568e-13
1.32637e-12
2.27633e-12
2.37141e-12
1.29365e-12
6.44691e-13
3.81294e-13
3.36526e-23
5.31465e-22
8.00373e-21
1.1052e-19
1.3617e-18
1.45226e-17
1.30319e-16
9.59125e-16
5.60279e-15
2.56455e-14
8.53247e-14
2.52842e-13
5.85805e-13
9.38135e-13
1.18352e-12
9.79054e-13
5.16295e-13
2.97926e-13
2.34554e-13
1.74553e-23
2.9331e-22
4.59442e-21
6.43477e-20
7.87992e-19
8.25044e-18
7.25196e-17
5.26639e-16
3.07432e-15
1.44776e-14
5.05153e-14
1.6998e-13
4.00939e-13
5.55063e-13
6.27574e-13
4.4567e-13
2.40323e-13
1.36308e-13
1.50697e-13
7.8459e-24
1.37359e-22
2.19552e-21
3.07389e-20
3.7051e-19
3.78303e-18
3.22749e-17
2.27504e-16
1.29801e-15
6.05465e-15
2.17002e-14
7.36218e-14
1.91826e-13
2.32602e-13
2.37763e-13
1.62206e-13
9.53229e-14
5.26542e-14
9.35355e-14
3.15226e-24
5.77694e-23
9.55353e-22
1.37205e-20
1.68745e-19
1.7461e-18
1.48475e-17
1.0207e-16
5.57425e-16
2.41088e-15
8.16244e-15
2.19233e-14
5.84246e-14
6.27387e-14
5.97375e-14
4.26481e-14
2.82545e-14
1.91016e-14
5.29724e-14
1.20809e-24
2.4286e-23
4.42265e-22
7.06455e-21
9.70001e-20
1.08541e-18
9.35756e-18
6.11989e-17
3.05514e-16
1.14108e-15
3.35925e-15
6.73848e-15
1.38411e-14
1.2881e-14
1.2688e-14
9.664e-15
7.73844e-15
6.6903e-15
2.60222e-14
4.91413e-25
1.27128e-23
2.99285e-22
5.68626e-21
8.42293e-20
9.24016e-19
7.21181e-18
4.09228e-17
1.76829e-16
5.50225e-16
1.38859e-15
2.12878e-15
3.53308e-15
3.07965e-15
2.94614e-15
2.3139e-15
2.0375e-15
1.96225e-15
1.0202e-14
7.66846e-25
1.92147e-23
3.62296e-22
5.0939e-21
5.41213e-20
4.46465e-19
2.88528e-18
1.41806e-17
5.4209e-17
1.4391e-16
3.22839e-16
4.09662e-16
5.97303e-16
4.78552e-16
4.17951e-16
3.25505e-16
3.12532e-16
3.26331e-16
2.23787e-15
)
;

boundaryField
{
    leftWall
    {
        type            zeroGradient;
    }
    rightWall
    {
        type            zeroGradient;
    }
    lowerWall
    {
        type            zeroGradient;
    }
    atmosphere
    {
        type            inletOutlet;
        inletValue      uniform 0;
        value           nonuniform List<scalar> 
23
(
1.67066e-29
2.47592e-28
3.67422e-27
5.38372e-26
0
0
0
0
0
0
0
0
0
0
0
0
0
0
0
0
0
0
0
)
;
    }
    defaultFaces
    {
        type            empty;
    }
    procBoundary3to1
    {
        type            processor;
        value           nonuniform List<scalar> 
23
(
5.25443e-09
5.25219e-09
5.28329e-09
5.61147e-09
6.47551e-09
6.10896e-09
4.11579e-09
2.24206e-09
8.99704e-10
3.31163e-09
2.83323e-08
4.66512e-08
1.05375e-07
1.38977e-08
7.84298e-09
1.25229e-09
5.99401e-10
6.73369e-10
7.56171e-10
1.09112e-09
1.94791e-09
1.16127e-09
4.63217e-10
)
;
    }
    procBoundary3to2
    {
        type            processor;
        value           nonuniform List<scalar> 
25
(
7.25059e-09
6.96696e-09
3.69398e-09
1.53625e-09
4.24664e-10
6.41114e-11
6.58096e-12
6.58093e-13
5.81133e-14
4.92367e-15
3.97387e-16
2.90489e-17
1.85667e-18
1.02613e-19
4.91815e-21
2.0678e-22
7.76171e-24
2.67111e-25
9.01574e-27
4.18758e-28
5.50169e-29
1.36352e-29
3.60192e-30
9.13305e-31
6.07808e-31
)
;
    }
}


// ************************************************************************* //
