/*--------------------------------*- C++ -*----------------------------------*\
| =========                 |                                                 |
| \\      /  F ield         | OpenFOAM: The Open Source CFD Toolbox           |
|  \\    /   O peration     | Version:  2.4.0                                 |
|   \\  /    A nd           | Web:      www.OpenFOAM.org                      |
|    \\/     M anipulation  |                                                 |
\*---------------------------------------------------------------------------*/
FoamFile
{
    version     2.0;
    format      ascii;
    class       volScalarField;
    location    "0.85";
    object      alpha.mercury;
}
// * * * * * * * * * * * * * * * * * * * * * * * * * * * * * * * * * * * * * //

dimensions      [0 0 0 0 0 0 0];

internalField   nonuniform List<scalar> 
575
(
3.98895e-11
4.2037e-11
4.61341e-11
4.95668e-11
3.03295e-11
3.17479e-11
3.23457e-11
3.17262e-11
1.76236e-11
1.78366e-11
1.70683e-11
1.54164e-11
7.28594e-12
7.10249e-12
6.43339e-12
5.43963e-12
2.18209e-12
2.04877e-12
1.77425e-12
1.42881e-12
4.94358e-13
4.46644e-13
3.73301e-13
2.91981e-13
8.82057e-14
7.70277e-14
6.30118e-14
4.94403e-14
1.29232e-14
1.10484e-14
9.06312e-15
7.44133e-15
1.61784e-15
1.38089e-15
1.16835e-15
1.0415e-15
1.79113e-16
1.55541e-16
1.38884e-16
1.36342e-16
1.79542e-17
1.60184e-17
1.52051e-17
1.61919e-17
1.64139e-18
1.50278e-18
1.49884e-18
1.68614e-18
1.36024e-19
1.26308e-19
1.29988e-19
1.50962e-19
1.00994e-20
9.36903e-21
9.78491e-21
1.16208e-20
6.65245e-22
6.08364e-22
6.40867e-22
7.87666e-22
3.87656e-23
3.48199e-23
3.79735e-23
5.40146e-23
2.01948e-24
1.86898e-24
2.70423e-24
7.84851e-24
1.01507e-25
1.44754e-25
5.73488e-25
3.70127e-24
7.80603e-27
3.58846e-26
2.73892e-25
2.23774e-24
1.76794e-27
1.51874e-26
1.37857e-25
1.25571e-24
6.26204e-28
6.35481e-27
6.32907e-26
6.27162e-25
2.19255e-28
2.43291e-27
2.63099e-26
2.82089e-25
7.19742e-29
8.60475e-28
1.00978e-26
1.17926e-25
2.26577e-29
2.93696e-28
3.78886e-27
4.91632e-26
2.47491e-29
3.66339e-28
5.43106e-27
7.95146e-26
4.14787e-11
2.58109e-11
1.68474e-11
1.90761e-11
4.13923e-11
9.21007e-11
1.38427e-10
1.80595e-10
6.5462e-09
2.98871e-08
3.23104e-09
7.80767e-10
1.06249e-09
5.48288e-09
7.37191e-09
8.31125e-09
5.56369e-09
2.75445e-09
1.25031e-09
2.1868e-11
1.25041e-11
8.99403e-12
1.24065e-11
2.39712e-11
5.37742e-11
9.54924e-11
1.43661e-10
2.147e-09
1.4399e-08
1.92947e-08
1.93257e-08
1.94814e-08
1.76959e-08
1.64948e-08
1.27518e-08
6.14938e-09
2.61867e-09
1.38124e-09
9.15694e-12
5.06937e-12
4.40912e-12
7.15753e-12
1.41468e-11
2.73245e-11
5.09706e-11
9.44213e-11
3.93798e-10
3.73124e-09
7.08322e-09
1.0395e-08
1.4371e-08
1.57075e-08
1.5326e-08
9.89621e-09
4.81548e-09
2.61552e-09
1.37937e-09
3.03038e-12
1.79749e-12
2.03035e-12
3.43487e-12
6.4101e-12
1.20228e-11
2.23083e-11
4.30614e-11
9.4698e-11
5.76246e-10
1.11069e-09
1.91426e-09
3.02263e-09
4.81136e-09
4.29695e-09
2.87211e-09
3.00845e-09
2.69415e-09
1.36854e-09
8.18753e-13
6.31854e-13
8.43064e-13
1.39709e-12
2.52295e-12
4.59558e-12
8.71604e-12
1.78191e-11
3.92708e-11
9.20068e-11
2.08002e-10
4.60507e-10
8.96622e-10
1.66294e-09
1.87316e-09
1.87496e-09
2.64268e-09
2.67241e-09
1.21341e-09
1.96986e-13
2.09647e-13
3.00066e-13
4.84887e-13
8.80166e-13
1.72022e-12
3.63174e-12
8.55418e-12
2.30169e-11
6.95713e-11
1.94733e-10
4.75293e-10
1.11308e-09
1.86412e-09
2.34501e-09
2.36657e-09
3.1786e-09
2.72861e-09
1.00327e-09
4.52453e-14
6.16311e-14
8.81248e-14
1.423e-13
2.69757e-13
5.80395e-13
1.40051e-12
4.26644e-12
1.65002e-11
7.01959e-11
2.35318e-10
6.6334e-10
1.92049e-09
3.00136e-09
3.73055e-09
4.1075e-09
4.23125e-09
2.67989e-09
8.59453e-10
9.81879e-15
1.51349e-14
2.10391e-14
3.5288e-14
7.09852e-14
1.68653e-13
5.20132e-13
2.29411e-12
1.31916e-11
7.39307e-11
3.09717e-10
9.07721e-10
2.96268e-09
4.5847e-09
5.43818e-09
5.92274e-09
5.08211e-09
2.18719e-09
7.63655e-10
1.89117e-15
3.02026e-15
4.13603e-15
7.34871e-15
1.55983e-14
4.16722e-14
1.80513e-13
1.2588e-12
1.01436e-11
6.8361e-11
3.74895e-10
1.17542e-09
4.09672e-09
6.17461e-09
7.50918e-09
7.51158e-09
5.16126e-09
2.02961e-09
6.29857e-10
3.08176e-16
4.84854e-16
6.78028e-16
1.26862e-15
2.82447e-15
8.49313e-15
5.5063e-14
6.64233e-13
6.27039e-12
5.61371e-11
3.87644e-10
1.31678e-09
5.07521e-09
8.13499e-09
9.85392e-09
8.65621e-09
4.04326e-09
1.7253e-09
3.99576e-10
4.16471e-17
6.28632e-17
9.30607e-17
1.80213e-16
4.20389e-16
1.50921e-15
1.5467e-14
2.97443e-13
3.24725e-12
4.08957e-11
3.35227e-10
1.28639e-09
5.31548e-09
9.49554e-09
9.8554e-09
7.64768e-09
3.82911e-09
2.12565e-09
2.9935e-10
4.66821e-18
6.68224e-18
1.06363e-17
2.11649e-17
5.32926e-17
2.43912e-16
3.21433e-15
7.61142e-14
1.02906e-12
2.02774e-11
2.18425e-10
1.00104e-09
4.32723e-09
7.80225e-09
9.06767e-09
8.19748e-09
6.55944e-09
2.61649e-09
2.2012e-10
4.37854e-19
6.14198e-19
1.03286e-18
2.2153e-18
6.77878e-18
3.9846e-17
4.90857e-16
9.70914e-15
2.37873e-13
5.94431e-12
6.02399e-11
6.10738e-10
2.69389e-09
6.24247e-09
9.01712e-09
9.42855e-09
8.18676e-09
2.34141e-09
1.18851e-10
3.49458e-20
5.13761e-20
1.04231e-19
3.49724e-19
1.87289e-18
1.33497e-17
1.20976e-16
1.67966e-15
3.98658e-14
1.1794e-12
1.14772e-11
1.25634e-10
1.17036e-09
3.74655e-09
6.18485e-09
6.72451e-09
3.81794e-09
7.02965e-10
5.06565e-11
2.58141e-21
5.76306e-21
2.76842e-20
2.07394e-19
1.70938e-18
1.41486e-17
1.16427e-16
9.86148e-16
1.04691e-14
2.04301e-13
3.28053e-12
1.84777e-11
3.15996e-10
1.13068e-09
2.02747e-09
2.07986e-09
9.07578e-10
1.39653e-10
2.44133e-11
3.18847e-22
2.19395e-21
2.13894e-20
2.15936e-19
2.12924e-18
2.03517e-17
1.85252e-16
1.54688e-15
1.13693e-14
7.91415e-14
7.28039e-13
4.49728e-12
1.93232e-11
1.43718e-10
3.50894e-10
3.07828e-10
1.84187e-10
4.06559e-11
1.47078e-11
1.35075e-22
1.6112e-21
1.95987e-20
2.31552e-19
2.62961e-18
2.82175e-17
2.75814e-16
2.34136e-15
1.64631e-14
9.2679e-14
4.08846e-13
1.42896e-12
5.1687e-12
1.50203e-11
3.17946e-11
5.01321e-11
4.32769e-11
2.09189e-11
8.34837e-12
8.46487e-23
1.20616e-21
1.68743e-20
2.25696e-19
2.83029e-18
3.22048e-17
3.19732e-16
2.66767e-15
1.8095e-14
9.78269e-14
3.98115e-13
1.45555e-12
5.7473e-12
1.52101e-11
2.70081e-11
3.78662e-11
2.36533e-11
1.13404e-11
4.4275e-12
5.00747e-23
7.9096e-22
1.20315e-20
1.7033e-19
2.1928e-18
2.49353e-17
2.4335e-16
1.98864e-15
1.32271e-14
7.16008e-14
2.94472e-13
1.40451e-12
6.40489e-12
1.6332e-11
2.63949e-11
2.30546e-11
9.8361e-12
4.65421e-12
1.67876e-12
2.59207e-23
4.36199e-22
6.89074e-21
9.83331e-20
1.24343e-18
1.36533e-17
1.28021e-16
1.01129e-15
6.58037e-15
3.58691e-14
1.51438e-13
8.95088e-13
4.18657e-12
9.50079e-12
1.22388e-11
7.38247e-12
3.1446e-12
1.37249e-12
5.18556e-13
1.16383e-23
2.03986e-22
3.27824e-21
4.64313e-20
5.70875e-19
6.00798e-18
5.3503e-17
3.99788e-16
2.46441e-15
1.27841e-14
5.27857e-14
2.73466e-13
1.30612e-12
2.46652e-12
2.39315e-12
1.42639e-12
6.93659e-13
2.60489e-13
1.67235e-13
4.67239e-24
8.56687e-23
1.42062e-21
2.05196e-20
2.54816e-19
2.67568e-18
2.32407e-17
1.64723e-16
9.38795e-16
4.31955e-15
1.59425e-14
5.05715e-14
1.97502e-13
2.77023e-13
2.34999e-13
1.50544e-13
8.31877e-14
4.0745e-14
7.45498e-14
1.78939e-24
3.59656e-23
6.5544e-22
1.04868e-20
1.4437e-19
1.62206e-18
1.40736e-17
9.29543e-17
4.70872e-16
1.79614e-15
5.45255e-15
1.1534e-14
2.67674e-14
2.45531e-14
2.28454e-14
1.66161e-14
1.25438e-14
9.99539e-15
3.52725e-14
7.27027e-25
1.87894e-23
4.42088e-22
8.39884e-21
1.24478e-19
1.36722e-18
1.06903e-17
6.08069e-17
2.63592e-16
8.23261e-16
2.08649e-15
3.20306e-15
5.34217e-15
4.61067e-15
4.35471e-15
3.39701e-15
2.9674e-15
2.78925e-15
1.37563e-14
1.13177e-24
2.83424e-23
5.34186e-22
7.50851e-21
7.97595e-20
6.57889e-19
4.25155e-18
2.08973e-17
7.98973e-17
2.12128e-16
4.75745e-16
6.02822e-16
8.7694e-16
7.01333e-16
6.10813e-16
4.74843e-16
4.53593e-16
4.62799e-16
3.01478e-15
)
;

boundaryField
{
    leftWall
    {
        type            zeroGradient;
    }
    rightWall
    {
        type            zeroGradient;
    }
    lowerWall
    {
        type            zeroGradient;
    }
    atmosphere
    {
        type            inletOutlet;
        inletValue      uniform 0;
        value           nonuniform List<scalar> 
23
(
2.47491e-29
3.66339e-28
5.43106e-27
7.95146e-26
0
0
0
0
0
0
0
0
0
0
0
0
0
0
0
0
0
0
0
)
;
    }
    defaultFaces
    {
        type            empty;
    }
    procBoundary3to1
    {
        type            processor;
        value           nonuniform List<scalar> 
23
(
4.83118e-11
5.4967e-11
6.90032e-11
7.24832e-11
6.59096e-11
4.39081e-11
2.58343e-11
2.75381e-11
7.10316e-11
1.21671e-10
1.83579e-10
6.83529e-09
3.35956e-08
4.13368e-09
8.3752e-10
7.80686e-10
7.80601e-10
8.44789e-10
1.46653e-09
3.39739e-09
3.99408e-09
2.5142e-09
1.09223e-09
)
;
    }
    procBoundary3to2
    {
        type            processor;
        value           nonuniform List<scalar> 
25
(
3.69111e-11
2.84594e-11
1.67429e-11
7.05269e-12
2.16623e-12
5.06355e-13
9.34394e-14
1.40565e-14
1.78925e-15
1.99104e-16
1.98771e-17
1.80819e-18
1.5031e-19
1.13534e-20
7.72887e-22
4.72045e-23
2.59146e-24
1.29968e-25
6.47855e-27
4.71224e-28
7.99735e-29
2.04754e-29
5.40329e-30
1.36625e-30
9.02517e-31
)
;
    }
}


// ************************************************************************* //
