/*--------------------------------*- C++ -*----------------------------------*\
| =========                 |                                                 |
| \\      /  F ield         | OpenFOAM: The Open Source CFD Toolbox           |
|  \\    /   O peration     | Version:  2.4.0                                 |
|   \\  /    A nd           | Web:      www.OpenFOAM.org                      |
|    \\/     M anipulation  |                                                 |
\*---------------------------------------------------------------------------*/
FoamFile
{
    version     2.0;
    format      ascii;
    class       volScalarField;
    location    "0.85";
    object      p;
}
// * * * * * * * * * * * * * * * * * * * * * * * * * * * * * * * * * * * * * //

dimensions      [1 -1 -2 0 0 0 0];

internalField   nonuniform List<scalar> 
575
(
2.43332
2.43264
2.43497
2.43344
2.47309
2.47668
2.48104
2.48189
2.44879
2.45073
2.45147
2.45127
2.38781
2.38686
2.38512
2.38285
2.30856
2.30553
2.30213
2.29855
2.21952
2.21527
2.21095
2.20665
2.12434
2.11962
2.11496
2.11037
2.02489
2.02006
2.01534
2.01075
1.92211
1.91745
1.91291
1.90852
1.81666
1.81229
1.80805
1.80397
1.70891
1.70491
1.70103
1.69731
1.59916
1.59554
1.59205
1.5887
1.48761
1.48439
1.48128
1.4783
1.37446
1.37161
1.36887
1.36625
1.25988
1.25738
1.25498
1.25267
1.144
1.14183
1.13974
1.13773
1.02697
1.0251
1.02329
1.02155
0.908905
0.907302
0.905754
0.90426
0.78992
0.788567
0.787255
0.785983
0.670118
0.668995
0.667902
0.666834
0.549591
0.548684
0.547793
0.546916
0.428437
0.427731
0.427034
0.42634
0.3067
0.306184
0.305668
0.305146
0.1845
0.18418
0.183855
0.183521
0.061703
0.0615738
0.0614282
0.0612537
2.44512
2.48979
2.55892
2.60435
2.62263
2.62235
2.609
2.58093
2.49106
2.29235
2.00184
1.62949
1.09681
0.842823
0.955734
1.18786
1.47079
1.81402
2.10943
2.48974
2.49848
2.51017
2.52232
2.52415
2.51391
2.49044
2.44855
2.35154
2.16585
1.95796
1.70887
1.39489
1.19729
1.25438
1.49342
1.80499
2.11676
2.29553
2.44968
2.4437
2.43946
2.43391
2.42556
2.40902
2.38318
2.34267
2.27119
2.16544
2.02306
1.84785
1.67536
1.57249
1.62311
1.80053
2.06264
2.29454
2.42754
2.37814
2.36823
2.35613
2.34331
2.3288
2.31054
2.2863
2.25101
2.20233
2.13204
2.04287
1.94703
1.87217
1.8164
1.85212
1.98784
2.19602
2.38977
2.50615
2.29211
2.28019
2.2664
2.25103
2.23486
2.21698
2.19496
2.16717
2.13266
2.08739
2.03697
1.98357
1.94624
1.92997
1.97917
2.09197
2.2592
2.43059
2.52854
2.1992
2.18696
2.17326
2.15796
2.14244
2.12578
2.10749
2.08658
2.0625
2.03479
2.0077
1.98305
1.96173
1.96228
2.00791
2.11482
2.25952
2.39173
2.47243
2.10254
2.0907
2.07778
2.06377
2.04975
2.03535
2.02105
2.00572
1.98963
1.97374
1.95918
1.95164
1.93932
1.93913
1.98135
2.0818
2.20351
2.30904
2.37401
2.00303
1.99202
1.98028
1.96798
1.95597
1.94407
1.93327
1.92248
1.91218
1.90402
1.89722
1.89336
1.881
1.8752
1.91229
2.00653
2.1148
2.20657
2.2487
1.90122
1.89114
1.88079
1.87023
1.86023
1.85077
1.84274
1.83549
1.82943
1.82592
1.8245
1.81881
1.80056
1.78324
1.80627
1.89858
1.99212
2.07282
2.10708
1.79724
1.78816
1.77915
1.77026
1.76207
1.75465
1.74872
1.74398
1.74065
1.7398
1.74129
1.73576
1.71672
1.68896
1.7019
1.78195
1.8544
1.92534
1.95804
1.69121
1.6831
1.67536
1.66793
1.66122
1.65546
1.65097
1.64777
1.64611
1.64613
1.64806
1.64431
1.63001
1.60388
1.61789
1.67891
1.73051
1.78117
1.81353
1.58325
1.57612
1.56944
1.56322
1.55772
1.55311
1.54964
1.54724
1.54616
1.54627
1.54699
1.54504
1.53694
1.52197
1.54098
1.57868
1.61492
1.65343
1.68363
1.47348
1.46722
1.46147
1.45623
1.45166
1.44788
1.44503
1.443
1.44195
1.44145
1.44121
1.44028
1.43771
1.43183
1.44934
1.47386
1.50165
1.53313
1.55801
1.362
1.35654
1.35158
1.34712
1.34327
1.34006
1.33759
1.33572
1.33442
1.33344
1.33234
1.33133
1.33124
1.33141
1.34531
1.36325
1.38571
1.41117
1.42999
1.24896
1.24421
1.23991
1.23607
1.23275
1.22997
1.22774
1.22595
1.22445
1.22314
1.22137
1.22012
1.21911
1.22047
1.23011
1.24622
1.26577
1.28813
1.30042
1.1345
1.13036
1.12661
1.12327
1.12035
1.11787
1.11581
1.1141
1.1125
1.11105
1.10878
1.10597
1.10259
1.09934
1.10891
1.12575
1.14439
1.16334
1.17179
1.01875
1.01514
1.01186
1.0089
1.00628
1.00399
1.00203
1.00036
0.998831
0.997329
0.99538
0.990752
0.98448
0.973355
0.984655
1.0031
1.0223
1.03553
1.04199
0.901847
0.898704
0.895803
0.893138
0.890705
0.888507
0.886549
0.884792
0.883262
0.881713
0.880199
0.87538
0.868668
0.857544
0.867063
0.881744
0.89976
0.906659
0.912977
0.783917
0.781183
0.778602
0.776158
0.773837
0.771635
0.769579
0.767597
0.765847
0.764093
0.762273
0.7592
0.753791
0.751082
0.759988
0.767075
0.776406
0.781526
0.785563
0.665085
0.662716
0.660407
0.65813
0.655864
0.653592
0.651363
0.649087
0.64698
0.644804
0.643005
0.64191
0.638305
0.638721
0.64386
0.647815
0.653387
0.657797
0.66056
0.545464
0.543432
0.541364
0.53922
0.536973
0.534601
0.532166
0.529598
0.527183
0.524497
0.522426
0.521093
0.518874
0.519893
0.52414
0.527542
0.531298
0.533526
0.537109
0.425167
0.423453
0.421611
0.419587
0.417345
0.414862
0.412183
0.409078
0.406211
0.403426
0.400983
0.399078
0.397697
0.398725
0.40277
0.405762
0.408736
0.410907
0.414748
0.304262
0.302876
0.301264
0.299365
0.297104
0.294366
0.291279
0.287968
0.284895
0.281493
0.278554
0.276682
0.276583
0.277281
0.280331
0.283099
0.286132
0.288643
0.292313
0.182921
0.18186
0.180427
0.17854
0.176194
0.173344
0.170102
0.166183
0.16234
0.157987
0.155158
0.152862
0.152416
0.153972
0.157479
0.161528
0.16604
0.168332
0.171664
0.0609044
0.060201
0.0591314
0.0575611
0.0554523
0.0526191
0.0491936
0.0447167
0.0402591
0.034353
0.0304315
0.027542
0.0270502
0.0293519
0.033674
0.0393298
0.0469988
0.0508695
0.0549522
)
;

boundaryField
{
    leftWall
    {
        type            fixedFluxPressure;
        gradient        nonuniform 0();
        value           nonuniform 0();
    }
    rightWall
    {
        type            fixedFluxPressure;
        gradient        uniform 0;
        value           nonuniform List<scalar> 
25
(
2.10943
2.29553
2.42754
2.50615
2.52854
2.47243
2.37401
2.2487
2.10708
1.95804
1.81353
1.68363
1.55801
1.42999
1.30042
1.17179
1.04199
0.912977
0.785563
0.66056
0.537109
0.414748
0.292313
0.171664
0.0549522
)
;
    }
    lowerWall
    {
        type            fixedFluxPressure;
        gradient        nonuniform 0();
        value           nonuniform 0();
    }
    atmosphere
    {
        type            totalPressure;
        U               U.air;
        phi             phi.air;
        rho             rho;
        psi             none;
        gamma           1;
        p0              uniform 0;
        value           nonuniform List<scalar> 
23
(
0
0
0
0
-1.72426e-05
-0.000319121
-0.00107081
-0.00234292
-0.00419312
-0.00670148
-0.00980222
-0.0139692
-0.0182786
-0.0245173
-0.0288803
-0.0343337
-0.035345
-0.0342694
-0.0302724
-0.0247096
-0.0169081
-0.0131479
-0.00791249
)
;
    }
    defaultFaces
    {
        type            empty;
    }
    procBoundary3to1
    {
        type            processor;
        value           nonuniform List<scalar> 
23
(
2.31052
2.28384
2.26969
2.26524
2.27417
2.40818
2.57467
2.67699
2.71774
2.72641
2.71809
2.74487
2.58316
2.23595
2.00814
1.75253
1.28794
0.908697
0.909511
1.04997
1.30684
1.64628
2.0598
)
;
    }
    procBoundary3to2
    {
        type            processor;
        value           nonuniform List<scalar> 
25
(
2.43572
2.46691
2.44678
2.39013
2.31349
2.22601
2.13168
2.03242
1.92946
1.8236
1.7153
1.60494
1.49279
1.37905
1.26391
1.14751
1.03
0.911489
0.792095
0.671915
0.551036
0.429554
0.307507
0.184994
0.0618858
)
;
    }
}


// ************************************************************************* //
