/*--------------------------------*- C++ -*----------------------------------*\
| =========                 |                                                 |
| \\      /  F ield         | OpenFOAM: The Open Source CFD Toolbox           |
|  \\    /   O peration     | Version:  2.4.0                                 |
|   \\  /    A nd           | Web:      www.OpenFOAM.org                      |
|    \\/     M anipulation  |                                                 |
\*---------------------------------------------------------------------------*/
FoamFile
{
    version     2.0;
    format      ascii;
    class       surfaceScalarField;
    location    "0.85";
    object      phi.mercury;
}
// * * * * * * * * * * * * * * * * * * * * * * * * * * * * * * * * * * * * * //

dimensions      [0 3 -1 0 0 0 0];

internalField   nonuniform List<scalar> 
1102
(
0.000161145
5.49541e-05
0.000171644
5.26827e-05
0.000179107
4.4212e-05
3.67302e-05
0.000185026
0.00012355
4.21409e-05
0.00013626
3.99617e-05
0.000146644
3.38238e-05
2.77932e-05
0.00015557
0.000103196
3.13642e-05
0.000113742
2.94149e-05
0.000122221
2.53368e-05
2.1307e-05
0.000128701
8.96152e-05
2.39322e-05
9.68276e-05
2.21962e-05
0.00010271
1.94499e-05
1.66457e-05
0.000107366
8.05673e-05
1.89363e-05
8.54751e-05
1.7285e-05
8.96609e-05
1.52592e-05
1.31172e-05
9.31851e-05
7.41136e-05
1.53506e-05
7.7562e-05
1.38317e-05
8.06203e-05
1.21971e-05
1.05208e-05
8.32131e-05
6.87306e-05
1.27408e-05
7.11952e-05
1.1364e-05
7.33926e-05
9.9961e-06
8.59207e-06
7.5318e-05
6.34035e-05
1.07338e-05
6.52431e-05
9.52122e-06
6.6937e-05
8.29889e-06
7.03425e-06
6.84923e-05
5.84112e-05
9.12944e-06
5.98894e-05
8.04044e-06
6.12743e-05
6.91142e-06
5.75e-06
6.25562e-05
5.37154e-05
7.80762e-06
5.49659e-05
6.78759e-06
5.61287e-05
5.74633e-06
4.64765e-06
5.72291e-05
4.92711e-05
6.68672e-06
5.03264e-05
5.73045e-06
5.13313e-05
4.73951e-06
3.70248e-06
5.22747e-05
4.50333e-05
5.73285e-06
4.59394e-05
4.82272e-06
4.67943e-05
3.88274e-06
2.89311e-06
4.76022e-05
4.09724e-05
4.92563e-06
4.17372e-05
4.05659e-06
4.24643e-05
3.15426e-06
2.21193e-06
4.31441e-05
3.70501e-05
4.24826e-06
3.76943e-05
3.41122e-06
3.83017e-05
2.54561e-06
1.64298e-06
3.88695e-05
3.32541e-05
3.68729e-06
3.37847e-05
2.87979e-06
3.42857e-05
2.04355e-06
1.17842e-06
3.47492e-05
2.95813e-05
3.23086e-06
3.00116e-05
2.4487e-06
3.04142e-05
1.63994e-06
8.06911e-07
3.07849e-05
2.60194e-05
2.87002e-06
2.63565e-05
2.11104e-06
2.66669e-05
1.32888e-06
5.24944e-07
2.69481e-05
2.2564e-05
2.59787e-06
2.28151e-05
1.85954e-06
2.30415e-05
1.10187e-06
3.24358e-07
2.32415e-05
1.921e-05
2.40809e-06
1.9379e-05
1.69027e-06
1.95271e-05
9.53237e-07
1.99584e-07
1.96515e-05
1.59449e-05
2.29118e-06
1.60401e-05
1.59486e-06
1.61131e-05
8.79986e-07
1.48141e-07
1.61642e-05
1.27708e-05
2.25316e-06
1.27954e-05
1.57019e-06
1.28021e-05
8.73018e-07
1.61013e-07
1.27889e-05
9.71755e-06
2.31693e-06
9.64597e-06
1.64166e-06
9.56659e-06
9.52211e-07
2.47672e-07
9.47969e-06
6.76674e-06
2.41703e-06
6.63787e-06
1.77057e-06
6.48676e-06
1.10321e-06
4.18769e-07
6.31559e-06
3.94188e-06
2.50961e-06
3.80706e-06
1.90551e-06
3.63294e-06
1.27743e-06
6.28903e-07
3.4228e-06
-3.79162e-07
-3.74441e-07
-3.88703e-07
-4.15451e-07
0.000177752
2.60051e-05
0.000144973
-2.82895e-05
0.000113741
-4.69413e-05
9.01556e-05
-4.71875e-05
7.60373e-05
-4.06496e-05
6.57294e-05
-2.80591e-05
5.53006e-05
-1.45054e-05
4.49422e-05
5.99148e-06
7.39228e-06
4.26399e-05
-2.33494e-05
4.0345e-05
-3.74432e-05
4.14378e-05
-8.45383e-06
2.84698e-05
4.24693e-05
-8.68233e-06
8.73115e-05
-0.000108988
0.000118582
-0.000188492
0.000122801
-0.000256881
9.49072e-05
-0.000317748
4.65845e-05
-0.00038347
-0.000522818
0.000152734
2.88334e-05
0.00013225
-7.8154e-06
0.000110477
-2.51797e-05
9.44151e-05
-3.11388e-05
8.26337e-05
-2.88766e-05
7.74596e-05
-2.28931e-05
7.6216e-05
-1.32694e-05
8.33491e-05
-1.11554e-06
0.00010151
1.98371e-05
0.000115899
3.70787e-05
0.000125849
3.27986e-05
0.000147823
1.3701e-05
0.00017876
-3.22854e-05
0.000192182
-0.000115132
0.000181403
-0.000178689
0.000157696
-0.00023632
0.000110761
-0.000270372
5.59539e-05
-0.000330055
-0.000468012
0.000129239
2.82889e-05
0.000118915
2.49907e-06
0.000106098
-1.2373e-05
9.51369e-05
-2.01876e-05
8.84285e-05
-2.21768e-05
8.42744e-05
-1.87468e-05
8.56586e-05
-1.46556e-05
9.42098e-05
-9.64903e-06
0.000114693
-9.61076e-07
0.000141932
8.20637e-06
0.000171847
2.04602e-06
0.000208754
-2.25911e-05
0.000231544
-5.11974e-05
0.000223025
-0.000101582
0.000197129
-0.000148469
0.000160935
-0.000198115
0.00011326
-0.000222615
5.4783e-05
-0.000272247
-0.000414268
0.000110522
2.51255e-05
0.000106445
6.56759e-06
9.92291e-05
-5.16705e-06
9.3276e-05
-1.42438e-05
8.92417e-05
-1.81508e-05
8.855e-05
-1.80624e-05
9.17338e-05
-1.78478e-05
9.87811e-05
-1.67019e-05
0.000114036
-1.61722e-05
0.000138414
-1.70207e-05
0.000160942
-2.20915e-05
0.000181233
-4.71599e-05
0.000199601
-7.58809e-05
0.000202857
-0.00011155
0.000189901
-0.000142314
0.000157996
-0.000170832
0.000110849
-0.000175589
5.8609e-05
-0.000219906
-0.000356676
9.72359e-05
2.10682e-05
9.60877e-05
7.70756e-06
9.31544e-05
-2.24286e-06
8.98034e-05
-1.09014e-05
8.83109e-05
-1.66663e-05
8.93829e-05
-1.91422e-05
9.24199e-05
-2.08924e-05
9.98605e-05
-2.41495e-05
0.000110651
-2.69743e-05
0.000127336
-3.38365e-05
0.000145558
-4.05505e-05
0.000156065
-5.80081e-05
0.00016762
-8.83132e-05
0.000166775
-0.000111582
0.000156016
-0.000131981
0.0001259
-0.000140776
8.99475e-05
-0.000139019
5.39442e-05
-0.000183555
-0.000303656
8.67793e-05
1.74964e-05
8.71172e-05
7.36205e-06
8.66241e-05
-1.75798e-06
8.54191e-05
-9.70447e-06
8.53998e-05
-1.66546e-05
8.68701e-05
-2.06197e-05
9.03082e-05
-2.43376e-05
9.72314e-05
-3.1079e-05
0.000105821
-3.55704e-05
0.000114814
-4.28257e-05
0.000130697
-5.64208e-05
0.000141697
-6.9093e-05
0.000150068
-9.67576e-05
0.000149986
-0.000111549
0.000135303
-0.000116803
0.000104671
-0.000109911
7.21754e-05
-0.000105796
4.15899e-05
-0.00015265
-0.000262914
7.84316e-05
1.43782e-05
7.96997e-05
6.08714e-06
8.04321e-05
-2.49766e-06
8.06445e-05
-9.92434e-06
8.12746e-05
-1.72916e-05
8.31192e-05
-2.24709e-05
8.65597e-05
-2.77844e-05
9.20602e-05
-3.6585e-05
9.8597e-05
-4.21117e-05
0.000106135
-5.03541e-05
0.000114963
-6.52548e-05
0.000128706
-8.28214e-05
0.00013781
-0.000106063
0.000136855
-0.000110603
0.000122454
-0.000102516
9.29823e-05
-8.07224e-05
6.13484e-05
-7.42003e-05
3.50459e-05
-0.000126247
-0.00022861
7.13871e-05
1.14791e-05
7.31556e-05
4.31278e-06
7.44108e-05
-3.75946e-06
7.53067e-05
-1.08269e-05
7.61665e-05
-1.81577e-05
7.82933e-05
-2.46037e-05
8.11557e-05
-3.06525e-05
8.52858e-05
-4.07201e-05
9.035e-05
-4.71786e-05
9.61046e-05
-5.60995e-05
0.00010321
-7.23573e-05
0.000116501
-9.61717e-05
0.000122189
-0.000111949
0.000120666
-0.000109135
0.000104489
-8.63306e-05
7.54743e-05
-5.16946e-05
4.68737e-05
-4.62196e-05
2.78218e-05
-0.000107039
-0.00020135
6.51315e-05
8.90011e-06
6.7128e-05
2.31129e-06
6.8515e-05
-5.15237e-06
6.97705e-05
-1.20882e-05
7.08242e-05
-1.92171e-05
7.25579e-05
-2.63427e-05
7.4871e-05
-3.29706e-05
7.71256e-05
-4.29794e-05
8.08347e-05
-5.08886e-05
8.48401e-05
-6.01036e-05
9.16694e-05
-7.91658e-05
9.85769e-05
-0.000103522
9.98323e-05
-0.000113151
9.56734e-05
-0.000104627
7.50781e-05
-6.51767e-05
5.06827e-05
-2.72447e-05
3.02203e-05
-2.65686e-05
2.1036e-05
-9.788e-05
-0.000180605
5.95288e-05
6.59727e-06
6.14555e-05
3.80018e-07
6.28187e-05
-6.52062e-06
6.40651e-05
-1.334e-05
6.51397e-05
-2.02967e-05
6.6356e-05
-2.75637e-05
6.828e-05
-3.48992e-05
6.90213e-05
-4.3725e-05
7.14273e-05
-5.32947e-05
7.3646e-05
-6.23363e-05
7.44393e-05
-8.00174e-05
7.14533e-05
-0.000101425
6.83529e-05
-0.000109731
5.83055e-05
-9.43176e-05
3.91579e-05
-4.59324e-05
2.72401e-05
-1.60358e-05
2.21445e-05
-2.14997e-05
1.60622e-05
-9.15888e-05
-0.000164792
5.4278e-05
4.59128e-06
5.60134e-05
-1.35934e-06
5.73076e-05
-7.81924e-06
5.8389e-05
-1.4426e-05
5.93641e-05
-2.12763e-05
6.01334e-05
-2.83372e-05
6.12547e-05
-3.60245e-05
6.14001e-05
-4.38743e-05
6.17464e-05
-5.3643e-05
6.21377e-05
-6.27381e-05
5.79365e-05
-7.59681e-05
4.84082e-05
-9.27586e-05
3.94778e-05
-0.000100737
2.74303e-05
-8.16929e-05
1.79962e-05
-3.59781e-05
1.75828e-05
-1.65972e-05
2.254e-05
-2.66812e-05
1.75706e-05
-8.63199e-05
-0.000147512
4.93286e-05
2.86247e-06
5.08004e-05
-2.83448e-06
5.19443e-05
-8.96701e-06
5.28601e-05
-1.53457e-05
5.35612e-05
-2.19814e-05
5.41026e-05
-2.88823e-05
5.43726e-05
-3.62979e-05
5.43724e-05
-4.38775e-05
5.32325e-05
-5.25066e-05
5.15708e-05
-6.1082e-05
4.69809e-05
-7.14854e-05
3.61843e-05
-8.26064e-05
2.43559e-05
-8.87086e-05
1.49552e-05
-7.13303e-05
1.28587e-05
-3.35199e-05
1.94246e-05
-2.35914e-05
2.67879e-05
-3.41981e-05
1.93935e-05
-7.86443e-05
-0.000128491
4.45946e-05
1.40983e-06
4.58195e-05
-4.06216e-06
4.67738e-05
-9.92468e-06
4.74842e-05
-1.60595e-05
4.79572e-05
-2.24577e-05
4.82023e-05
-2.91305e-05
4.81147e-05
-3.62134e-05
4.7643e-05
-4.34086e-05
4.64884e-05
-5.13547e-05
4.42131e-05
-5.88093e-05
4.01516e-05
-6.74679e-05
3.15447e-05
-7.42742e-05
2.00853e-05
-7.74521e-05
1.4215e-05
-6.44522e-05
1.74232e-05
-3.6369e-05
2.40116e-05
-2.9776e-05
2.7557e-05
-3.70822e-05
1.93748e-05
-7.00234e-05
-0.000109399
4.00616e-05
2.15966e-07
4.1054e-05
-5.05707e-06
4.17941e-05
-1.06675e-05
4.23044e-05
-1.65727e-05
4.25524e-05
-2.27086e-05
4.25538e-05
-2.91346e-05
4.22098e-05
-3.5872e-05
4.14985e-05
-4.26998e-05
4.03223e-05
-5.01808e-05
3.8361e-05
-5.68498e-05
3.58317e-05
-6.49426e-05
3.11397e-05
-6.96172e-05
2.36268e-05
-7.01297e-05
2.00034e-05
-5.99172e-05
2.31591e-05
-3.92447e-05
2.55959e-05
-3.20171e-05
2.45865e-05
-3.5719e-05
1.71624e-05
-6.25942e-05
-9.22981e-05
3.57065e-05
-7.42794e-07
3.64735e-05
-5.82614e-06
3.70225e-05
-1.12188e-05
3.73292e-05
-1.68818e-05
3.73858e-05
-2.27675e-05
3.7165e-05
-2.89162e-05
3.66167e-05
-3.5326e-05
3.58332e-05
-4.19184e-05
3.46259e-05
-4.89754e-05
3.3087e-05
-5.53124e-05
3.15976e-05
-6.34543e-05
3.06855e-05
-6.86977e-05
2.90273e-05
-6.84618e-05
2.71299e-05
-5.80011e-05
2.6235e-05
-3.84405e-05
2.41054e-05
-3.00231e-05
1.94307e-05
-3.09297e-05
1.40093e-05
-5.71807e-05
-7.82933e-05
3.15227e-05
-1.48184e-06
3.20838e-05
-6.38889e-06
3.24344e-05
-1.15712e-05
3.25582e-05
-1.70075e-05
3.2422e-05
-2.26332e-05
3.2014e-05
-2.85101e-05
3.12797e-05
-3.45936e-05
3.03013e-05
-4.09418e-05
2.89661e-05
-4.76419e-05
2.76927e-05
-5.40405e-05
2.70407e-05
-6.28033e-05
2.85966e-05
-7.02531e-05
2.95696e-05
-6.94276e-05
2.78979e-05
-5.62806e-05
2.50766e-05
-3.55605e-05
2.00522e-05
-2.48764e-05
1.58125e-05
-2.66008e-05
1.27942e-05
-5.41585e-05
-6.54988e-05
2.74861e-05
-2.0208e-06
2.7865e-05
-6.76911e-06
2.80368e-05
-1.17444e-05
2.7982e-05
-1.69542e-05
2.76756e-05
-2.23284e-05
2.70811e-05
-2.79171e-05
2.61667e-05
-3.36809e-05
2.48828e-05
-3.96595e-05
2.33587e-05
-4.61193e-05
2.16347e-05
-5.23177e-05
2.01594e-05
-6.1329e-05
2.04147e-05
-7.05092e-05
2.14422e-05
-7.04563e-05
1.86146e-05
-5.34476e-05
1.359e-05
-3.05158e-05
8.32545e-06
-1.95806e-05
9.06098e-06
-2.73225e-05
9.45002e-06
-5.45471e-05
-5.60482e-05
2.35972e-05
-2.37732e-06
2.37947e-05
-6.96755e-06
2.38135e-05
-1.17643e-05
2.36013e-05
-1.67433e-05
2.31438e-05
-2.18722e-05
2.23647e-05
-2.71394e-05
2.12377e-05
-3.25553e-05
1.95443e-05
-3.79676e-05
1.73417e-05
-4.39182e-05
1.4214e-05
-4.91912e-05
9.72743e-06
-5.68435e-05
2.71422e-06
-6.34972e-05
-4.00124e-06
-6.37422e-05
-6.36279e-06
-5.10845e-05
-7.29156e-06
-2.95898e-05
-3.26101e-06
-2.36078e-05
7.16855e-06
-3.77464e-05
7.21034e-06
-5.45881e-05
-4.88373e-05
1.98405e-05
-2.56702e-06
1.9886e-05
-7.01374e-06
1.97561e-05
-1.16353e-05
1.94292e-05
-1.64173e-05
1.88541e-05
-2.12981e-05
1.79787e-05
-2.62652e-05
1.67222e-05
-3.13002e-05
1.49155e-05
-3.61623e-05
1.23131e-05
-4.13172e-05
8.47313e-06
-4.53522e-05
2.08119e-06
-5.04526e-05
-5.95143e-06
-5.54656e-05
-1.31337e-05
-5.65615e-05
-1.57453e-05
-4.84707e-05
-1.2914e-05
-3.24198e-05
-3.57796e-06
-3.29449e-05
4.86778e-06
-4.61895e-05
2.5673e-06
-5.22879e-05
-4.62698e-05
1.61987e-05
-2.60202e-06
1.6103e-05
-6.91862e-06
1.58584e-05
-1.13913e-05
1.54283e-05
-1.5988e-05
1.47883e-05
-2.0659e-05
1.38827e-05
-2.53607e-05
1.26223e-05
-3.00411e-05
1.08957e-05
-3.44371e-05
8.451e-06
-3.88737e-05
5.04003e-06
-4.19423e-05
2.34748e-07
-4.56482e-05
-6.43275e-06
-4.8799e-05
-1.36768e-05
-4.93178e-05
-1.39185e-05
-4.82274e-05
-6.86684e-06
-3.94704e-05
1.51701e-06
-4.13309e-05
3.74521e-06
-4.8417e-05
1.53131e-06
-5.00743e-05
-4.47384e-05
1.26752e-05
-2.48875e-06
1.24533e-05
-6.69714e-06
1.21101e-05
-1.10487e-05
1.16209e-05
-1.54994e-05
1.09674e-05
-2.00064e-05
1.0094e-05
-2.44883e-05
8.95785e-06
-2.89061e-05
7.42309e-06
-3.29036e-05
5.36727e-06
-3.6819e-05
3.22441e-06
-3.98004e-05
4.66688e-07
-4.28912e-05
-2.68033e-06
-4.56525e-05
-6.98286e-06
-4.50156e-05
-5.05929e-06
-5.01512e-05
1.85732e-06
-4.63883e-05
5.59875e-06
-4.50728e-05
4.01577e-06
-4.68342e-05
1.8095e-06
-4.78682e-05
-4.2929e-05
9.23031e-06
-2.23962e-06
8.89161e-06
-6.35873e-06
8.45182e-06
-1.06092e-05
7.90585e-06
-1.49539e-05
7.22608e-06
-1.93272e-05
6.36122e-06
-2.36243e-05
5.2647e-06
-2.78105e-05
4.04422e-06
-3.1684e-05
2.92355e-06
-3.56991e-05
2.36478e-06
-3.92422e-05
1.30602e-06
-4.18329e-05
2.3665e-06
-4.67133e-05
3.70637e-06
-4.63556e-05
5.20067e-06
-5.16456e-05
7.73643e-06
-4.89242e-05
9.42616e-06
-4.67626e-05
7.46777e-06
-4.48759e-05
4.31788e-06
-4.47184e-05
-3.86112e-05
5.86958e-06
-1.79371e-06
5.4083e-06
-5.89751e-06
4.90451e-06
-1.01055e-05
4.30117e-06
-1.43507e-05
3.60401e-06
-1.86304e-05
2.92947e-06
-2.29501e-05
2.50035e-06
-2.73818e-05
2.53886e-06
-3.17228e-05
2.61604e-06
-3.57765e-05
3.60645e-06
-4.02326e-05
4.74992e-06
-4.29762e-05
7.42476e-06
-4.93879e-05
1.05373e-05
-4.94678e-05
1.12168e-05
-5.23248e-05
1.1682e-05
-4.9389e-05
1.2168e-05
-4.72485e-05
9.84713e-06
-4.25549e-05
5.82819e-06
-4.06996e-05
-3.2783e-05
2.82688e-06
-1.19774e-06
2.12926e-06
-5.19986e-06
1.46742e-06
-9.44363e-06
9.97073e-07
-1.38803e-05
8.34545e-07
-1.84678e-05
1.04327e-06
-2.31589e-05
1.50914e-06
-2.78477e-05
2.59551e-06
-3.28092e-05
3.98008e-06
-3.71609e-05
6.58092e-06
-4.28332e-05
9.19862e-06
-4.55935e-05
1.12784e-05
-5.14673e-05
1.30328e-05
-5.12219e-05
1.2885e-05
-5.21766e-05
1.25195e-05
-4.90234e-05
1.14545e-05
-4.61833e-05
7.92772e-06
-3.90283e-05
3.89993e-06
-3.66719e-05
-2.88831e-05
-5.20033e-07
-5.51716e-07
-4.83156e-07
-2.73679e-07
1.17176e-07
7.97108e-07
1.74743e-06
3.28485e-06
5.15103e-06
7.56363e-06
1.01339e-05
1.16072e-05
1.29344e-05
1.29942e-05
1.21761e-05
1.03463e-05
7.08306e-06
3.707e-06
)
;

boundaryField
{
    leftWall
    {
        type            fixedValue;
        value           nonuniform 0();
    }
    rightWall
    {
        type            fixedValue;
        value           uniform 0;
    }
    lowerWall
    {
        type            fixedValue;
        value           nonuniform 0();
    }
    atmosphere
    {
        type            calculated;
        value           nonuniform List<scalar> 
23
(
2.48176e-06
1.9009e-06
1.29175e-06
6.55678e-07
-1.09314e-06
-5.16814e-06
-9.51217e-06
-1.40898e-05
-1.88587e-05
-2.38388e-05
-2.87979e-05
-3.43465e-05
-3.9027e-05
-4.52456e-05
-4.81637e-05
-5.29404e-05
-5.2549e-05
-5.22364e-05
-4.82053e-05
-4.43536e-05
-3.57651e-05
-3.32959e-05
-2.51761e-05
)
;
    }
    defaultFaces
    {
        type            empty;
        value           nonuniform 0();
    }
    procBoundary3to1
    {
        type            processor;
        value           nonuniform List<scalar> 
23
(
-6.7149e-05
-6.31825e-05
-5.16928e-05
-4.26643e-05
-1.87613e-05
6.10321e-05
7.81365e-05
7.07327e-05
5.47416e-05
3.83369e-05
2.49241e-05
4.59528e-06
-6.52189e-06
-5.12295e-06
-3.01909e-05
-6.18778e-05
-4.25374e-05
6.16669e-05
0.000161888
0.000253582
0.00034714
0.000430514
0.000568702
)
;
    }
    procBoundary3to2
    {
        type            processor;
        value           nonuniform List<scalar> 
25
(
-0.000148957
-0.00011074
-9.24248e-05
-8.21897e-05
-7.55785e-05
-7.05342e-05
-6.61271e-05
-6.14008e-05
-5.68112e-05
-5.23965e-05
-4.81533e-05
-4.40812e-05
-4.01671e-05
-3.63738e-05
-3.26944e-05
-2.91253e-05
-2.56592e-05
-2.22919e-05
-1.90203e-05
-1.58278e-05
-1.27326e-05
-9.78106e-06
-6.86656e-06
-4.03423e-06
4.07158e-07
)
;
    }
}


// ************************************************************************* //
