/*--------------------------------*- C++ -*----------------------------------*\
| =========                 |                                                 |
| \\      /  F ield         | OpenFOAM: The Open Source CFD Toolbox           |
|  \\    /   O peration     | Version:  2.4.0                                 |
|   \\  /    A nd           | Web:      www.OpenFOAM.org                      |
|    \\/     M anipulation  |                                                 |
\*---------------------------------------------------------------------------*/
FoamFile
{
    version     2.0;
    format      ascii;
    class       surfaceScalarField;
    location    "0.85";
    object      phi.air;
}
// * * * * * * * * * * * * * * * * * * * * * * * * * * * * * * * * * * * * * //

dimensions      [0 3 -1 0 0 0 0];

internalField   nonuniform List<scalar> 
1102
(
0.000161053
5.49134e-05
0.000171549
5.26422e-05
0.000179023
4.41724e-05
3.66936e-05
0.000184947
0.000123468
4.2105e-05
0.000136182
3.99277e-05
0.000146564
3.37911e-05
2.77649e-05
0.000155492
0.000103126
3.13335e-05
0.000113668
2.93859e-05
0.000122149
2.53106e-05
2.12839e-05
0.00012863
8.95514e-05
2.39075e-05
9.67638e-05
2.21734e-05
0.000102646
1.94287e-05
1.66266e-05
0.000107303
8.05105e-05
1.89164e-05
8.54175e-05
1.72664e-05
8.96042e-05
1.52421e-05
1.31016e-05
9.31291e-05
7.40615e-05
1.53348e-05
7.75108e-05
1.38171e-05
8.05694e-05
1.21835e-05
1.05083e-05
8.31627e-05
6.86833e-05
1.27283e-05
7.11481e-05
1.13524e-05
7.33463e-05
9.98533e-06
8.58233e-06
7.52723e-05
6.33595e-05
1.07237e-05
6.51998e-05
9.51207e-06
6.68946e-05
8.29052e-06
7.02667e-06
6.84503e-05
5.83708e-05
9.1216e-06
5.98496e-05
8.0333e-06
6.12351e-05
6.90496e-06
5.74429e-06
6.25175e-05
5.36779e-05
7.80138e-06
5.49291e-05
6.7821e-06
5.60926e-05
5.74146e-06
4.64344e-06
5.71935e-05
4.92367e-05
6.68198e-06
5.02925e-05
5.7263e-06
5.1298e-05
4.73594e-06
3.69954e-06
5.22419e-05
4.50013e-05
5.72911e-06
4.5908e-05
4.81964e-06
4.67637e-05
3.88024e-06
2.89117e-06
4.75721e-05
4.09432e-05
4.92288e-06
4.17085e-05
4.05439e-06
4.24362e-05
3.15261e-06
2.21084e-06
4.31165e-05
3.70234e-05
4.24616e-06
3.76681e-05
3.40971e-06
3.8276e-05
2.54464e-06
1.64253e-06
3.88444e-05
3.323e-05
3.68583e-06
3.37609e-05
2.87883e-06
3.42624e-05
2.04311e-06
1.1785e-06
3.47265e-05
2.95594e-05
3.22976e-06
2.99901e-05
2.44814e-06
3.03933e-05
1.6399e-06
8.0737e-07
3.07645e-05
2.6e-05
2.86928e-06
2.63374e-05
2.1108e-06
2.66482e-05
1.32913e-06
5.25674e-07
2.69299e-05
2.25468e-05
2.59727e-06
2.27982e-05
1.85946e-06
2.3025e-05
1.10229e-06
3.2525e-07
2.32255e-05
1.91951e-05
2.40764e-06
1.93643e-05
1.6903e-06
1.95128e-05
9.53754e-07
2.00569e-07
1.96375e-05
1.59323e-05
2.29073e-06
1.60277e-05
1.5949e-06
1.61009e-05
8.8052e-07
1.49153e-07
1.61523e-05
1.27604e-05
2.25271e-06
1.27851e-05
1.57023e-06
1.27921e-05
8.73557e-07
1.62031e-07
1.27792e-05
9.7094e-06
2.31644e-06
9.63796e-06
1.64169e-06
9.55877e-06
9.52736e-07
2.48688e-07
9.47212e-06
6.76095e-06
2.41647e-06
6.63211e-06
1.77053e-06
6.48118e-06
1.10368e-06
4.19724e-07
6.31015e-06
3.93845e-06
2.50896e-06
3.80363e-06
1.90537e-06
3.62954e-06
1.27779e-06
6.29765e-07
3.41951e-06
-3.80293e-07
-3.756e-07
-3.89847e-07
-4.16563e-07
0.000177665
2.59455e-05
0.000144893
-2.83341e-05
0.000113671
-4.69807e-05
9.0099e-05
-4.7222e-05
7.59852e-05
-4.06764e-05
6.56846e-05
-2.80774e-05
5.52595e-05
-1.45178e-05
4.65644e-05
5.98806e-06
1.65236e-05
4.31777e-05
-2.81425e-05
4.62448e-05
-3.68155e-05
3.98032e-05
-8.33025e-06
3.34446e-05
3.94947e-05
-5.09038e-06
8.52282e-05
-0.000108636
0.000117473
-0.0001948
0.000122237
-0.000261519
9.28717e-05
-0.000319717
4.57022e-05
-0.000384048
-0.000523232
0.000152656
2.87825e-05
0.000132178
-7.85664e-06
0.000110413
-2.52151e-05
9.43585e-05
-3.11679e-05
8.25818e-05
-2.88997e-05
7.74119e-05
-2.29075e-05
7.6173e-05
-1.32789e-05
8.32861e-05
-1.12506e-06
0.000107151
1.93124e-05
0.000118155
3.5241e-05
0.000127789
3.01694e-05
0.000150876
1.03576e-05
0.000181589
-3.58037e-05
0.000192187
-0.000119234
0.000179755
-0.000182368
0.000157117
-0.000238882
0.000108688
-0.000271287
5.50242e-05
-0.000330384
-0.000468208
0.000129169
2.82435e-05
0.000118851
2.46196e-06
0.000106039
-1.24036e-05
9.5083e-05
-2.02118e-05
8.83782e-05
-2.21949e-05
8.42295e-05
-1.87588e-05
8.56151e-05
-1.46646e-05
9.41444e-05
-9.65438e-06
0.000114482
-1.02492e-06
0.000142477
7.24609e-06
0.000172466
1.80012e-07
0.00020983
-2.70062e-05
0.000232343
-5.83176e-05
0.000222541
-0.000109431
0.000196386
-0.000156212
0.000160109
-0.000202604
0.00011169
-0.000222867
5.37907e-05
-0.000272485
-0.000414417
0.00011046
2.50867e-05
0.000106386
6.53616e-06
9.91743e-05
-5.19223e-06
9.32257e-05
-1.42632e-05
8.91956e-05
-1.81648e-05
8.85081e-05
-1.80713e-05
9.16954e-05
-1.78519e-05
9.87441e-05
-1.67031e-05
0.000113895
-1.61756e-05
0.000138303
-1.71626e-05
0.000160792
-2.23084e-05
0.000181248
-4.74627e-05
0.00019965
-7.67195e-05
0.000202679
-0.00011246
0.000189392
-0.000142925
0.000157529
-0.000170742
0.00011024
-0.000175578
5.77443e-05
-0.00021999
-0.000356673
9.71795e-05
2.10363e-05
9.60337e-05
7.68195e-06
9.31041e-05
-2.26264e-06
8.9757e-05
-1.0916e-05
8.82681e-05
-1.6676e-05
8.93439e-05
-1.91471e-05
9.23848e-05
-2.08928e-05
9.9828e-05
-2.41463e-05
0.000110621
-2.69682e-05
0.000127285
-3.38268e-05
0.000145514
-4.05374e-05
0.000156038
-5.79869e-05
0.000167581
-8.82626e-05
0.000166722
-0.000111601
0.000155882
-0.000132086
0.000126093
-0.000140952
8.9663e-05
-0.000139147
5.31281e-05
-0.000183455
-0.000303545
8.67281e-05
1.74709e-05
8.7068e-05
7.34206e-06
8.65781e-05
-1.77273e-06
8.53766e-05
-9.71448e-06
8.53606e-05
-1.66601e-05
8.68344e-05
-2.06209e-05
9.02762e-05
-2.43346e-05
9.72021e-05
-3.10723e-05
0.000105794
-3.55604e-05
0.000114778
-4.281e-05
0.00013063
-5.63896e-05
0.000141671
-6.90286e-05
0.000150005
-9.65962e-05
0.000149985
-0.000111581
0.000135141
-0.000117242
0.000104846
-0.000110657
7.17813e-05
-0.000106083
4.0763e-05
-0.000152436
-0.000262782
7.83849e-05
1.43583e-05
7.96547e-05
6.07222e-06
8.03899e-05
-2.50795e-06
8.06057e-05
-9.9302e-06
8.1239e-05
-1.72934e-05
8.30868e-05
-2.24687e-05
8.65308e-05
-2.77786e-05
9.20342e-05
-3.65758e-05
9.85728e-05
-4.20991e-05
0.000106098
-5.03353e-05
0.000114925
-6.52165e-05
0.000128599
-8.2703e-05
0.000137846
-0.000105843
0.000136863
-0.000110598
0.000122278
-0.000102657
9.27283e-05
-8.11078e-05
6.07766e-05
-7.41313e-05
3.42873e-05
-0.000125947
-0.000228495
7.13444e-05
1.14642e-05
7.31144e-05
4.30222e-06
7.43723e-05
-3.76578e-06
7.52713e-05
-1.08292e-05
7.61341e-05
-1.81562e-05
7.8264e-05
-2.45987e-05
8.11296e-05
-3.06442e-05
8.52625e-05
-4.07087e-05
9.03275e-05
-4.71642e-05
9.60714e-05
-5.60792e-05
0.000103163
-7.23085e-05
0.000116496
-9.60352e-05
0.000122369
-0.000111716
0.000120643
-0.000108872
0.000104276
-8.629e-05
7.47713e-05
-5.16036e-05
4.63658e-05
-4.57258e-05
2.72828e-05
-0.000106864
-0.000201212
6.50924e-05
8.88929e-06
6.70903e-05
2.3044e-06
6.84798e-05
-5.15529e-06
6.97381e-05
-1.20875e-05
7.07948e-05
-1.92129e-05
7.25313e-05
-2.63353e-05
7.48473e-05
-3.29603e-05
7.71048e-05
-4.29663e-05
8.08134e-05
-5.08727e-05
8.48165e-05
-6.00824e-05
9.16244e-05
-7.91164e-05
9.8992e-05
-0.000103403
0.000100165
-0.000112889
9.57144e-05
-0.000104421
7.4638e-05
-6.52136e-05
4.97472e-05
-2.67128e-05
2.99285e-05
-2.59071e-05
2.07247e-05
-9.76603e-05
-0.000180487
5.94929e-05
6.58985e-06
6.1421e-05
3.76289e-07
6.27865e-05
-6.5207e-06
6.40356e-05
-1.33366e-05
6.51129e-05
-2.02903e-05
6.63319e-05
-2.75543e-05
6.82586e-05
-3.48871e-05
6.90028e-05
-4.37105e-05
7.14078e-05
-5.32777e-05
7.36397e-05
-6.23143e-05
7.44877e-05
-7.99644e-05
7.23774e-05
-0.000101293
6.88414e-05
-0.000109353
5.84138e-05
-9.39938e-05
3.8432e-05
-4.52316e-05
2.69287e-05
-1.5209e-05
2.20696e-05
-2.10478e-05
1.57819e-05
-9.13725e-05
-0.000164705
5.42451e-05
4.58666e-06
5.59819e-05
-1.36045e-06
5.72782e-05
-7.81698e-06
5.8362e-05
-1.44205e-05
5.93397e-05
-2.1268e-05
6.01115e-05
-2.83262e-05
6.12353e-05
-3.6011e-05
6.13835e-05
-4.38586e-05
6.17309e-05
-5.36252e-05
6.21327e-05
-6.27162e-05
5.80858e-05
-7.59176e-05
4.93939e-05
-9.26006e-05
4.0297e-05
-0.000100256
2.73184e-05
-8.10154e-05
1.72825e-05
-3.51959e-05
1.77214e-05
-1.56467e-05
2.25125e-05
-2.58376e-05
1.7259e-05
-8.61189e-05
-0.000147446
4.92986e-05
2.86019e-06
5.07716e-05
-2.83347e-06
5.19175e-05
-8.96281e-06
5.28355e-05
-1.53386e-05
5.3539e-05
-2.19715e-05
5.40827e-05
-2.88699e-05
5.4355e-05
-3.62834e-05
5.43573e-05
-4.38609e-05
5.32202e-05
-5.24881e-05
5.15645e-05
-6.10605e-05
4.70891e-05
-7.14422e-05
3.69602e-05
-8.24717e-05
2.50379e-05
-8.83336e-05
1.48301e-05
-7.08079e-05
1.24505e-05
-3.28176e-05
1.93526e-05
-2.2549e-05
2.67785e-05
-3.3263e-05
1.90194e-05
-7.83594e-05
-0.000128427
4.45673e-05
1.40941e-06
4.57933e-05
-4.05945e-06
4.67494e-05
-9.91895e-06
4.74619e-05
-1.6051e-05
4.7937e-05
-2.24467e-05
4.81842e-05
-2.91172e-05
4.80988e-05
-3.6198e-05
4.76293e-05
-4.33914e-05
4.6477e-05
-5.13358e-05
4.42051e-05
-5.87886e-05
4.02045e-05
-6.74416e-05
3.19226e-05
-7.41898e-05
2.07718e-05
-7.71828e-05
1.40497e-05
-6.40858e-05
1.72596e-05
-3.60279e-05
2.39669e-05
-2.92574e-05
2.75811e-05
-3.68778e-05
1.9077e-05
-6.98553e-05
-0.00010935
4.00368e-05
2.17025e-07
4.10304e-05
-5.05302e-06
4.1772e-05
-1.06606e-05
4.22841e-05
-1.65631e-05
4.25341e-05
-2.26967e-05
4.25374e-05
-2.91206e-05
4.21954e-05
-3.58561e-05
4.14861e-05
-4.26821e-05
4.03119e-05
-5.01616e-05
3.83525e-05
-5.68292e-05
3.58309e-05
-6.492e-05
3.12266e-05
-6.95855e-05
2.40661e-05
-7.00223e-05
1.98854e-05
-5.99052e-05
2.30893e-05
-3.92318e-05
2.57945e-05
-3.19627e-05
2.44462e-05
-3.55297e-05
1.70862e-05
-6.24954e-05
-9.22636e-05
3.56841e-05
-7.40599e-07
3.64522e-05
-5.82108e-06
3.70026e-05
-1.1211e-05
3.73109e-05
-1.68715e-05
3.73692e-05
-2.27549e-05
3.71502e-05
-2.89016e-05
3.66037e-05
-3.53096e-05
3.58221e-05
-4.19005e-05
3.46165e-05
-4.89561e-05
3.30791e-05
-5.52919e-05
3.15915e-05
-6.34324e-05
3.06804e-05
-6.86744e-05
2.9084e-05
-6.84259e-05
2.71106e-05
-5.79318e-05
2.62113e-05
-3.83325e-05
2.40877e-05
-2.98391e-05
1.93556e-05
-3.07976e-05
1.40004e-05
-5.71403e-05
-7.82632e-05
3.15027e-05
-1.4788e-06
3.20647e-05
-6.3831e-06
3.24165e-05
-1.15628e-05
3.25418e-05
-1.69967e-05
3.2407e-05
-2.26202e-05
3.20006e-05
-2.84952e-05
3.1268e-05
-3.4577e-05
3.02913e-05
-4.09237e-05
2.89577e-05
-4.76225e-05
2.76857e-05
-5.40198e-05
2.70349e-05
-6.27816e-05
2.85912e-05
-7.02307e-05
2.95698e-05
-6.94045e-05
2.78885e-05
-5.62504e-05
2.50651e-05
-3.55092e-05
2.00404e-05
-2.48144e-05
1.58017e-05
-2.65588e-05
1.27921e-05
-5.41307e-05
-6.5471e-05
2.74683e-05
-2.01718e-06
2.7848e-05
-6.76283e-06
2.80209e-05
-1.17356e-05
2.79673e-05
-1.69431e-05
2.76623e-05
-2.23152e-05
2.70691e-05
-2.79021e-05
2.61563e-05
-3.36642e-05
2.48739e-05
-3.96414e-05
2.33513e-05
-4.60999e-05
2.16285e-05
-5.22971e-05
2.01543e-05
-6.13074e-05
2.04103e-05
-7.04867e-05
2.14386e-05
-7.04328e-05
1.8611e-05
-5.34228e-05
1.35901e-05
-3.04882e-05
8.32305e-06
-1.95474e-05
9.05981e-06
-2.72956e-05
9.44946e-06
-5.45204e-05
-5.60216e-05
2.35816e-05
-2.37335e-06
2.37798e-05
-6.96098e-06
2.37995e-05
-1.17553e-05
2.35883e-05
-1.6732e-05
2.31319e-05
-2.18589e-05
2.23542e-05
-2.71243e-05
2.12285e-05
-3.25386e-05
1.95365e-05
-3.79493e-05
1.73353e-05
-4.38987e-05
1.42086e-05
-4.91705e-05
9.72307e-06
-5.68218e-05
2.71091e-06
-6.34746e-05
-4.00337e-06
-6.37185e-05
-6.36663e-06
-5.10596e-05
-7.29295e-06
-2.95619e-05
-3.25952e-06
-2.35808e-05
7.16807e-06
-3.77232e-05
7.20983e-06
-5.45622e-05
-4.88118e-05
1.9827e-05
-2.56285e-06
1.98731e-05
-7.00703e-06
1.9744e-05
-1.16262e-05
1.94179e-05
-1.64059e-05
1.88437e-05
-2.12847e-05
1.79694e-05
-2.625e-05
1.67142e-05
-3.12833e-05
1.49088e-05
-3.61439e-05
1.23076e-05
-4.12975e-05
8.46858e-06
-4.53314e-05
2.07758e-06
-5.04308e-05
-5.95404e-06
-5.54429e-05
-1.31351e-05
-5.65375e-05
-1.57487e-05
-4.8446e-05
-1.2916e-05
-3.23946e-05
-3.57497e-06
-3.29219e-05
4.86647e-06
-4.61647e-05
2.56718e-06
-5.22629e-05
-4.62446e-05
1.61873e-05
-2.59778e-06
1.60921e-05
-6.91184e-06
1.5848e-05
-1.13822e-05
1.54186e-05
-1.59766e-05
1.47795e-05
-2.06455e-05
1.38748e-05
-2.53454e-05
1.26155e-05
-3.0024e-05
1.08901e-05
-3.44185e-05
8.44637e-06
-3.88538e-05
5.03631e-06
-4.19214e-05
2.31745e-07
-4.56263e-05
-6.43494e-06
-4.87763e-05
-1.36783e-05
-4.92941e-05
-1.39207e-05
-4.82037e-05
-6.86789e-06
-3.94474e-05
1.5168e-06
-4.13066e-05
3.74436e-06
-4.83923e-05
1.53121e-06
-5.00497e-05
-4.47134e-05
1.26659e-05
-2.48447e-06
1.24443e-05
-6.69032e-06
1.21016e-05
-1.10394e-05
1.16129e-05
-1.54879e-05
1.09602e-05
-1.99928e-05
1.00876e-05
-2.44728e-05
8.95232e-06
-2.88887e-05
7.4185e-06
-3.28847e-05
5.36357e-06
-3.67989e-05
3.22148e-06
-3.97793e-05
4.64255e-07
-4.28691e-05
-2.68234e-06
-4.56297e-05
-6.98445e-06
-4.49921e-05
-5.06069e-06
-5.01274e-05
1.8562e-06
-4.63643e-05
5.59808e-06
-4.50484e-05
4.01532e-06
-4.68095e-05
1.80925e-06
-4.78437e-05
-4.29041e-05
9.22302e-06
-2.23537e-06
8.88464e-06
-6.35193e-06
8.44519e-06
-1.06e-05
7.89964e-06
-1.49423e-05
7.22039e-06
-1.93135e-05
6.35621e-06
-2.36086e-05
5.26046e-06
-2.7793e-05
4.04079e-06
-3.1665e-05
2.9208e-06
-3.56789e-05
2.36254e-06
-3.9221e-05
1.30412e-06
-4.18106e-05
2.36489e-06
-4.66905e-05
3.70506e-06
-4.63322e-05
5.19961e-06
-5.1622e-05
7.73558e-06
-4.89002e-05
9.42559e-06
-4.67385e-05
7.46743e-06
-4.48513e-05
4.31767e-06
-4.46939e-05
-3.85865e-05
5.86437e-06
-1.78958e-06
5.40331e-06
-5.89086e-06
4.89978e-06
-1.00964e-05
4.29673e-06
-1.43392e-05
3.59999e-06
-1.86168e-05
2.92595e-06
-2.29345e-05
2.49745e-06
-2.73645e-05
2.53651e-06
-3.17041e-05
2.61416e-06
-3.57565e-05
3.60483e-06
-4.02117e-05
4.74857e-06
-4.29544e-05
7.42365e-06
-4.93655e-05
1.05364e-05
-4.9445e-05
1.1216e-05
-5.23016e-05
1.16813e-05
-4.93655e-05
1.21674e-05
-4.72246e-05
9.84674e-06
-4.25307e-05
5.82802e-06
-4.06752e-05
-3.27585e-05
2.82375e-06
-1.19381e-06
2.12628e-06
-5.19337e-06
1.4646e-06
-9.43473e-06
9.94457e-07
-1.38691e-05
8.32177e-07
-1.84545e-05
1.04124e-06
-2.31436e-05
1.50745e-06
-2.78307e-05
2.59417e-06
-3.27908e-05
3.97898e-06
-3.71413e-05
6.57997e-06
-4.28127e-05
9.19785e-06
-4.55722e-05
1.12777e-05
-5.14454e-05
1.30323e-05
-5.11995e-05
1.28844e-05
-5.21538e-05
1.2519e-05
-4.90001e-05
1.1454e-05
-4.61595e-05
7.92744e-06
-3.90041e-05
3.8998e-06
-3.66475e-05
-2.88587e-05
-5.21074e-07
-5.52702e-07
-4.84084e-07
-2.74536e-07
1.16411e-07
7.96452e-07
1.74688e-06
3.28442e-06
5.1507e-06
7.56336e-06
1.01337e-05
1.1607e-05
1.29342e-05
1.2994e-05
1.21759e-05
1.03462e-05
7.08295e-06
3.70693e-06
)
;

boundaryField
{
    leftWall
    {
        type            fixedValue;
        value           nonuniform 0();
    }
    rightWall
    {
        type            fixedValue;
        value           uniform 0;
    }
    lowerWall
    {
        type            fixedValue;
        value           nonuniform 0();
    }
    atmosphere
    {
        type            calculated;
        value           nonuniform List<scalar> 
23
(
2.48104e-06
1.90069e-06
1.29205e-06
6.56486e-07
-1.0893e-06
-5.16174e-06
-9.50333e-06
-1.40786e-05
-1.88454e-05
-2.38236e-05
-2.87811e-05
-3.43283e-05
-3.90076e-05
-4.52253e-05
-4.81426e-05
-5.29187e-05
-5.25268e-05
-5.22136e-05
-4.8182e-05
-4.43298e-05
-3.57409e-05
-3.32715e-05
-2.51517e-05
)
;
    }
    defaultFaces
    {
        type            empty;
        value           nonuniform 0();
    }
    procBoundary3to1
    {
        type            processor;
        value           nonuniform List<scalar> 
23
(
-6.71022e-05
-6.31382e-05
-5.16467e-05
-4.26175e-05
-1.86634e-05
6.11062e-05
7.82026e-05
7.07943e-05
5.47902e-05
3.83779e-05
2.4943e-05
2.70691e-06
-1.31368e-05
-1.5787e-06
-3.11301e-05
-6.193e-05
-4.27346e-05
6.29025e-05
0.000162555
0.000256754
0.000349082
0.000431218
0.000568934
)
;
    }
    procBoundary3to2
    {
        type            processor;
        value           nonuniform List<scalar> 
25
(
-0.000148864
-0.000110659
-9.2355e-05
-8.21253e-05
-7.55193e-05
-7.04799e-05
-6.60768e-05
-6.13549e-05
-5.67687e-05
-5.23577e-05
-4.81173e-05
-4.40485e-05
-4.0137e-05
-3.63466e-05
-3.26697e-05
-2.91033e-05
-2.56396e-05
-2.22748e-05
-1.90055e-05
-1.58153e-05
-1.27224e-05
-9.77313e-06
-6.86097e-06
-4.03092e-06
4.0823e-07
)
;
    }
}


// ************************************************************************* //
