/*--------------------------------*- C++ -*----------------------------------*\
| =========                 |                                                 |
| \\      /  F ield         | OpenFOAM: The Open Source CFD Toolbox           |
|  \\    /   O peration     | Version:  2.4.0                                 |
|   \\  /    A nd           | Web:      www.OpenFOAM.org                      |
|    \\/     M anipulation  |                                                 |
\*---------------------------------------------------------------------------*/
FoamFile
{
    version     2.0;
    format      ascii;
    class       surfaceScalarField;
    location    "0.85";
    object      phi.oil;
}
// * * * * * * * * * * * * * * * * * * * * * * * * * * * * * * * * * * * * * //

dimensions      [0 3 -1 0 0 0 0];

internalField   nonuniform List<scalar> 
1102
(
0.000159083
5.54014e-05
0.000170801
5.16478e-05
0.000175896
4.41952e-05
3.67026e-05
0.000173417
0.000123734
3.95824e-05
0.000135426
3.75426e-05
0.000147269
3.0253e-05
2.45389e-05
0.000143565
0.000103472
3.1307e-05
0.000113975
2.9244e-05
0.00012189
2.48098e-05
2.08843e-05
0.000126224
8.96661e-05
2.39372e-05
9.67899e-05
2.22036e-05
0.000102691
1.9461e-05
1.66552e-05
0.000107064
8.05188e-05
1.89578e-05
8.54273e-05
1.72955e-05
8.96792e-05
1.52783e-05
1.31313e-05
9.32298e-05
7.41161e-05
1.53543e-05
7.7565e-05
1.38342e-05
8.06153e-05
1.2199e-05
1.05197e-05
8.31965e-05
6.87304e-05
1.27404e-05
7.11945e-05
1.13637e-05
7.33928e-05
9.99578e-06
8.59199e-06
7.53184e-05
6.34031e-05
1.07335e-05
6.52429e-05
9.52103e-06
6.69367e-05
8.29876e-06
7.03415e-06
6.84922e-05
5.8411e-05
9.12931e-06
5.98893e-05
8.04035e-06
6.12742e-05
6.91136e-06
5.74997e-06
6.25561e-05
5.37154e-05
7.80758e-06
5.49658e-05
6.78756e-06
5.61287e-05
5.74631e-06
4.64764e-06
5.7229e-05
4.92711e-05
6.6867e-06
5.03264e-05
5.73045e-06
5.13313e-05
4.7395e-06
3.70247e-06
5.22746e-05
4.50333e-05
5.73284e-06
4.59394e-05
4.82272e-06
4.67943e-05
3.88274e-06
2.89311e-06
4.76022e-05
4.09724e-05
4.92563e-06
4.17372e-05
4.05659e-06
4.24643e-05
3.15426e-06
2.21193e-06
4.31441e-05
3.70501e-05
4.24826e-06
3.76943e-05
3.41122e-06
3.83017e-05
2.54561e-06
1.64298e-06
3.88695e-05
3.32541e-05
3.68729e-06
3.37847e-05
2.87979e-06
3.42857e-05
2.04355e-06
1.17842e-06
3.47492e-05
2.95813e-05
3.23086e-06
3.00116e-05
2.4487e-06
3.04142e-05
1.63994e-06
8.06911e-07
3.07849e-05
2.60194e-05
2.87002e-06
2.63565e-05
2.11104e-06
2.66669e-05
1.32888e-06
5.24944e-07
2.69481e-05
2.2564e-05
2.59787e-06
2.28151e-05
1.85954e-06
2.30415e-05
1.10187e-06
3.24358e-07
2.32415e-05
1.921e-05
2.40809e-06
1.9379e-05
1.69027e-06
1.95271e-05
9.53237e-07
1.99584e-07
1.96515e-05
1.59449e-05
2.29118e-06
1.60401e-05
1.59486e-06
1.61131e-05
8.79986e-07
1.48141e-07
1.61642e-05
1.27708e-05
2.25316e-06
1.27954e-05
1.57019e-06
1.28021e-05
8.73018e-07
1.61013e-07
1.27889e-05
9.71755e-06
2.31693e-06
9.64597e-06
1.64166e-06
9.56659e-06
9.52211e-07
2.47672e-07
9.47969e-06
6.76674e-06
2.41703e-06
6.63787e-06
1.77057e-06
6.48676e-06
1.10321e-06
4.18769e-07
6.31559e-06
3.94188e-06
2.50961e-06
3.80706e-06
1.90551e-06
3.63294e-06
1.27743e-06
6.28903e-07
3.4228e-06
-3.79162e-07
-3.74441e-07
-3.88703e-07
-4.15451e-07
0.000167127
2.8264e-05
0.000142202
-2.76252e-05
0.000114559
-4.77575e-05
9.03798e-05
-4.74928e-05
7.58665e-05
-4.08671e-05
6.54356e-05
-2.82387e-05
5.49924e-05
-1.48424e-05
4.47883e-05
5.57623e-06
2.76938e-06
4.19609e-05
-3.86127e-05
2.90642e-05
-5.02421e-05
3.24254e-05
-2.42346e-05
3.47755e-05
1.59831e-05
7.16279e-06
6.1992e-05
-6.7323e-05
0.000113425
-0.00015296
0.000141191
-0.000188892
0.000112513
-0.000247279
6.102e-05
-0.000338028
-0.000515035
0.000147235
2.79557e-05
0.000132609
-8.32854e-06
0.000110749
-2.54903e-05
9.45017e-05
-3.12866e-05
8.25251e-05
-2.89352e-05
7.7326e-05
-2.30176e-05
7.60818e-05
-1.34214e-05
8.30492e-05
-1.11538e-06
0.000103846
1.98415e-05
0.000107499
3.66852e-05
0.000118722
3.21855e-05
0.000140209
1.64261e-05
0.000173863
-2.5784e-05
0.000161262
-0.000109038
0.000187078
-0.000124583
0.000173925
-0.000171234
0.000117369
-0.00021546
6.68148e-05
-0.000309063
-0.00046288
0.000128945
2.81155e-05
0.000119032
2.36389e-06
0.000106166
-1.24567e-05
9.51526e-05
-2.02122e-05
8.84015e-05
-2.21893e-05
8.41986e-05
-1.87754e-05
8.56405e-05
-1.46602e-05
9.41594e-05
-9.61643e-06
0.000114597
-7.14858e-07
0.000141509
8.05486e-06
0.000170468
1.93052e-06
0.00020725
-2.12736e-05
0.000229442
-4.7384e-05
0.00022264
-9.97206e-05
0.000146749
-0.000149451
0.000168213
-0.000156925
0.000112184
-0.000193705
6.11028e-05
-0.000258318
-0.000411388
0.000110483
2.51341e-05
0.000106468
6.55147e-06
9.92365e-05
-5.17619e-06
9.32759e-05
-1.4247e-05
8.92342e-05
-1.81539e-05
8.85476e-05
-1.80677e-05
9.17337e-05
-1.78513e-05
9.87991e-05
-1.66825e-05
0.000114081
-1.60749e-05
0.000138389
-1.67109e-05
0.000160829
-2.17935e-05
0.000181038
-4.69083e-05
0.00019607
-7.55244e-05
0.00020073
-0.000111157
0.000147755
-0.000141979
0.000168334
-0.000146006
0.000115951
-0.000155162
6.76752e-05
-0.000198903
-0.000355786
9.72328e-05
2.10708e-05
9.60891e-05
7.70666e-06
9.31544e-05
-2.24341e-06
8.98024e-05
-1.09021e-05
8.83106e-05
-1.66675e-05
8.93827e-05
-1.91433e-05
9.24205e-05
-2.08927e-05
9.98691e-05
-2.41471e-05
0.000110668
-2.69697e-05
0.000127428
-3.3826e-05
0.000145549
-4.04878e-05
0.000155982
-5.80052e-05
0.000164134
-8.8288e-05
0.000163993
-0.000111474
0.000138242
-0.000132053
0.000117976
-0.000137932
0.000100341
-0.000131473
5.92988e-05
-0.000181642
-0.000306161
8.67789e-05
1.74961e-05
8.71173e-05
7.36175e-06
8.66241e-05
-1.75814e-06
8.5419e-05
-9.70462e-06
8.53998e-05
-1.66548e-05
8.68702e-05
-2.06199e-05
9.03088e-05
-2.43378e-05
9.7237e-05
-3.10793e-05
0.000105828
-3.55723e-05
0.000114844
-4.2836e-05
0.000130755
-5.64463e-05
0.000141106
-6.91132e-05
0.00014902
-9.69588e-05
0.000147221
-0.000111346
0.000128457
-0.000117087
8.87438e-05
-0.000112052
8.32951e-05
-0.000107656
4.58571e-05
-0.000156506
-0.000266634
7.84314e-05
1.4378e-05
7.96997e-05
6.08702e-06
8.04321e-05
-2.49772e-06
8.06445e-05
-9.92438e-06
8.12746e-05
-1.72917e-05
8.31193e-05
-2.24709e-05
8.65602e-05
-2.77846e-05
9.2064e-05
-3.65854e-05
9.86042e-05
-4.21136e-05
0.00010616
-5.036e-05
0.000114958
-6.52643e-05
0.000127236
-8.27558e-05
0.0001363
-0.000106315
0.000135349
-0.000110277
0.000121484
-0.000102814
7.43901e-05
-8.21833e-05
6.93142e-05
-7.71316e-05
3.87919e-05
-0.000125815
-0.000232946
7.1387e-05
1.1479e-05
7.31556e-05
4.31274e-06
7.44108e-05
-3.75948e-06
7.53067e-05
-1.08269e-05
7.61665e-05
-1.81577e-05
7.82934e-05
-2.46037e-05
8.1156e-05
-3.06526e-05
8.52881e-05
-4.07205e-05
9.03556e-05
-4.71799e-05
9.61131e-05
-5.6104e-05
0.000103214
-7.23772e-05
0.000112904
-9.62096e-05
0.000119501
-0.000112212
0.000120049
-0.000109406
0.000104438
-8.7266e-05
6.52159e-05
-5.36453e-05
5.02824e-05
-5.34342e-05
3.06512e-05
-0.000111616
-0.000206157
6.51315e-05
8.90008e-06
6.7128e-05
2.31128e-06
6.8515e-05
-5.15237e-06
6.97705e-05
-1.20883e-05
7.08242e-05
-1.92171e-05
7.2558e-05
-2.63427e-05
7.48711e-05
-3.29707e-05
7.71263e-05
-4.29797e-05
8.08391e-05
-5.08895e-05
8.48389e-05
-6.01076e-05
9.16663e-05
-7.9212e-05
9.20437e-05
-0.000103559
9.61741e-05
-0.000113495
9.50378e-05
-9.95187e-05
7.59189e-05
-5.74812e-05
4.89032e-05
-3.01615e-05
3.3762e-05
-3.56745e-05
2.27084e-05
-0.000103929
-0.000185273
5.95287e-05
6.59726e-06
6.14555e-05
3.80015e-07
6.28187e-05
-6.52062e-06
6.40651e-05
-1.334e-05
6.51397e-05
-2.02967e-05
6.6356e-05
-2.75637e-05
6.82801e-05
-3.48993e-05
6.90213e-05
-4.37253e-05
7.14308e-05
-5.32955e-05
7.36122e-05
-6.23418e-05
7.43617e-05
-8.00635e-05
6.35396e-05
-0.000101474
5.73162e-05
-0.000110726
5.33059e-05
-8.92816e-05
4.75936e-05
-5.6188e-05
3.7168e-05
-3.76257e-05
2.61042e-05
-4.2852e-05
1.81783e-05
-9.57096e-05
-0.000169138
5.4278e-05
4.59128e-06
5.60134e-05
-1.35934e-06
5.73076e-05
-7.81924e-06
5.8389e-05
-1.4426e-05
5.93641e-05
-2.12763e-05
6.01334e-05
-2.83372e-05
6.12548e-05
-3.60246e-05
6.14e-05
-4.38746e-05
6.17481e-05
-5.36438e-05
6.20975e-05
-6.27446e-05
5.76933e-05
-7.60268e-05
4.17569e-05
-9.28779e-05
2.67497e-05
-0.000102155
3.49838e-05
-9.07054e-05
4.45832e-05
-6.29781e-05
4.02553e-05
-5.25447e-05
3.07692e-05
-6.15728e-05
1.9753e-05
-9.64198e-05
-0.000147948
4.93286e-05
2.86247e-06
5.08004e-05
-2.83448e-06
5.19443e-05
-8.96701e-06
5.28601e-05
-1.53457e-05
5.35612e-05
-2.19814e-05
5.41026e-05
-2.88823e-05
5.43726e-05
-3.6298e-05
5.43724e-05
-4.38779e-05
5.32298e-05
-5.25078e-05
5.15401e-05
-6.10896e-05
4.66874e-05
-7.15432e-05
3.11741e-05
-8.27825e-05
1.66868e-05
-8.97598e-05
2.43298e-05
-6.52115e-05
3.53933e-05
-4.6961e-05
4.15517e-05
-5.7542e-05
3.70416e-05
-7.01507e-05
2.15527e-05
-9.99848e-05
-0.00013502
4.45946e-05
1.40983e-06
4.58195e-05
-4.06216e-06
4.67738e-05
-9.92468e-06
4.74842e-05
-1.60595e-05
4.79572e-05
-2.24577e-05
4.82023e-05
-2.91306e-05
4.81146e-05
-3.62136e-05
4.76429e-05
-4.34093e-05
4.6485e-05
-5.13572e-05
4.41935e-05
-5.88201e-05
3.98915e-05
-6.75145e-05
2.85243e-05
-7.44618e-05
1.69716e-05
-7.80987e-05
1.53627e-05
-6.60073e-05
2.45724e-05
-3.91779e-05
3.70073e-05
-3.8532e-05
3.49438e-05
-5.72785e-05
2.00598e-05
-8.67547e-05
-0.000111013
4.00616e-05
2.15966e-07
4.1054e-05
-5.05707e-06
4.17941e-05
-1.06675e-05
4.23044e-05
-1.65727e-05
4.25524e-05
-2.27086e-05
4.25538e-05
-2.91347e-05
4.22097e-05
-3.58722e-05
4.14982e-05
-4.27007e-05
4.03167e-05
-5.01853e-05
3.83434e-05
-5.68676e-05
3.56758e-05
-6.49984e-05
2.99483e-05
-6.98103e-05
2.102e-05
-7.10191e-05
2.01368e-05
-6.11142e-05
2.36475e-05
-4.18993e-05
2.44397e-05
-3.60668e-05
2.68311e-05
-4.87694e-05
1.6654e-05
-6.66031e-05
-9.01639e-05
3.57065e-05
-7.42794e-07
3.64735e-05
-5.82614e-06
3.70225e-05
-1.12188e-05
3.73292e-05
-1.68818e-05
3.73858e-05
-2.27675e-05
3.71649e-05
-2.89162e-05
3.66165e-05
-3.53262e-05
3.58326e-05
-4.19198e-05
3.46158e-05
-4.89827e-05
3.30626e-05
-5.53441e-05
3.14509e-05
-6.35575e-05
3.00736e-05
-6.89674e-05
2.80632e-05
-6.90701e-05
2.69161e-05
-5.98053e-05
2.62686e-05
-4.11627e-05
2.15366e-05
-3.37889e-05
1.96059e-05
-4.1185e-05
1.28241e-05
-5.95388e-05
-7.97708e-05
3.15227e-05
-1.48184e-06
3.20838e-05
-6.38889e-06
3.24344e-05
-1.15712e-05
3.25582e-05
-1.70075e-05
3.2422e-05
-2.26332e-05
3.20139e-05
-2.85101e-05
3.12795e-05
-3.4594e-05
3.02996e-05
-4.09436e-05
2.89514e-05
-4.76534e-05
2.76459e-05
-5.40937e-05
2.69003e-05
-6.29624e-05
2.77117e-05
-7.04849e-05
2.91418e-05
-7.05798e-05
2.78569e-05
-5.81204e-05
2.46975e-05
-3.84266e-05
1.866e-05
-2.86705e-05
1.52939e-05
-3.19491e-05
1.24725e-05
-5.63972e-05
-6.59209e-05
2.74861e-05
-2.0208e-06
2.7865e-05
-6.76911e-06
2.80368e-05
-1.17444e-05
2.7982e-05
-1.69542e-05
2.76756e-05
-2.23284e-05
2.70811e-05
-2.79172e-05
2.61664e-05
-3.36813e-05
2.48796e-05
-3.96618e-05
2.33393e-05
-4.6135e-05
2.15594e-05
-5.23895e-05
1.96459e-05
-6.15429e-05
1.94884e-05
-7.09314e-05
2.08782e-05
-7.23064e-05
1.86451e-05
-5.58102e-05
1.20474e-05
-3.31057e-05
8.7541e-06
-2.96792e-05
8.88867e-06
-3.03748e-05
8.79841e-06
-5.38619e-05
-5.66923e-05
2.35972e-05
-2.37732e-06
2.37947e-05
-6.96755e-06
2.38135e-05
-1.17643e-05
2.36013e-05
-1.67433e-05
2.31438e-05
-2.18722e-05
2.23647e-05
-2.71395e-05
2.12373e-05
-3.25557e-05
1.95395e-05
-3.79701e-05
1.73105e-05
-4.39354e-05
1.40932e-05
-4.92767e-05
8.69657e-06
-5.71206e-05
2.09675e-06
-6.46249e-05
-4.61503e-06
-6.62244e-05
-5.27415e-06
-5.48126e-05
-6.6788e-06
-3.66559e-05
-3.689e-06
-2.95699e-05
6.39553e-06
-3.79047e-05
7.15495e-06
-5.4871e-05
-4.90006e-05
1.98405e-05
-2.56702e-06
1.9886e-05
-7.01374e-06
1.97561e-05
-1.16353e-05
1.94292e-05
-1.64173e-05
1.88541e-05
-2.12981e-05
1.79786e-05
-2.62653e-05
1.67217e-05
-3.13004e-05
1.49118e-05
-3.61644e-05
1.22795e-05
-4.13313e-05
8.36577e-06
-4.54249e-05
1.39321e-06
-5.06996e-05
-6.50599e-06
-5.59907e-05
-1.33376e-05
-5.86007e-05
-1.41035e-05
-5.05327e-05
-1.2279e-05
-3.59284e-05
-5.47705e-06
-3.09927e-05
5.3102e-06
-4.59203e-05
2.44458e-06
-5.2352e-05
-4.63438e-05
1.61987e-05
-2.60202e-06
1.6103e-05
-6.91862e-06
1.58584e-05
-1.13913e-05
1.54283e-05
-1.5988e-05
1.47883e-05
-2.0659e-05
1.38827e-05
-2.53608e-05
1.26219e-05
-3.00412e-05
1.08939e-05
-3.44384e-05
8.43182e-06
-3.88819e-05
4.99062e-06
-4.19799e-05
3.44353e-09
-4.57647e-05
-6.94286e-06
-4.89836e-05
-1.38932e-05
-4.95903e-05
-1.31206e-05
-4.71308e-05
-6.96936e-06
-3.56457e-05
8.75287e-07
-4.02528e-05
4.23731e-06
-4.84332e-05
1.45806e-06
-5.01462e-05
-4.47635e-05
1.26752e-05
-2.48875e-06
1.24533e-05
-6.69714e-06
1.21101e-05
-1.10487e-05
1.16209e-05
-1.54994e-05
1.09674e-05
-2.00064e-05
1.0094e-05
-2.44884e-05
8.95768e-06
-2.89062e-05
7.42254e-06
-3.29043e-05
5.36193e-06
-3.68225e-05
3.21969e-06
-3.98129e-05
3.87215e-07
-4.29327e-05
-2.777e-06
-4.57247e-05
-7.1629e-06
-4.46255e-05
-5.12098e-06
-4.9001e-05
1.74349e-06
-4.50318e-05
5.36538e-06
-4.45858e-05
4.30682e-06
-4.68595e-05
1.77581e-06
-4.79266e-05
-4.29432e-05
9.23031e-06
-2.23962e-06
8.89161e-06
-6.35873e-06
8.45182e-06
-1.06092e-05
7.90585e-06
-1.49539e-05
7.22608e-06
-1.93272e-05
6.36121e-06
-2.36243e-05
5.26459e-06
-2.78105e-05
4.04402e-06
-3.16845e-05
2.92142e-06
-3.57016e-05
2.36648e-06
-3.92511e-05
1.29665e-06
-4.18516e-05
2.46524e-06
-4.67253e-05
3.67347e-06
-4.6302e-05
5.16538e-06
-5.15674e-05
7.74587e-06
-4.89079e-05
9.37156e-06
-4.67908e-05
7.49213e-06
-4.49191e-05
4.30732e-06
-4.47499e-05
-3.86251e-05
5.86958e-06
-1.79371e-06
5.4083e-06
-5.89751e-06
4.90451e-06
-1.01055e-05
4.30117e-06
-1.43507e-05
3.60401e-06
-1.86304e-05
2.92947e-06
-2.29501e-05
2.50031e-06
-2.73818e-05
2.53907e-06
-3.17232e-05
2.61513e-06
-3.57782e-05
3.60814e-06
-4.02354e-05
4.75023e-06
-4.29781e-05
7.44597e-06
-4.93893e-05
1.0536e-05
-4.94677e-05
1.12164e-05
-5.23435e-05
1.16867e-05
-4.94111e-05
1.21665e-05
-4.72676e-05
9.85034e-06
-4.25794e-05
5.82696e-06
-4.07254e-05
-3.27966e-05
2.82688e-06
-1.19774e-06
2.12926e-06
-5.19986e-06
1.46742e-06
-9.44363e-06
9.97073e-07
-1.38803e-05
8.34545e-07
-1.84678e-05
1.04327e-06
-2.31589e-05
1.50915e-06
-2.78477e-05
2.5958e-06
-3.28093e-05
3.98007e-06
-3.71612e-05
6.58086e-06
-4.28334e-05
9.19863e-06
-4.55937e-05
1.12795e-05
-5.1468e-05
1.30319e-05
-5.12231e-05
1.28856e-05
-5.21804e-05
1.25205e-05
-4.90288e-05
1.14549e-05
-4.61891e-05
7.92714e-06
-3.90372e-05
3.89909e-06
-3.66812e-05
-2.88895e-05
-5.20033e-07
-5.51716e-07
-4.83156e-07
-2.73679e-07
1.17176e-07
7.97111e-07
1.74743e-06
3.28485e-06
5.15103e-06
7.56361e-06
1.01339e-05
1.16072e-05
1.29344e-05
1.29944e-05
1.2176e-05
1.03465e-05
7.0827e-06
3.7068e-06
)
;

boundaryField
{
    leftWall
    {
        type            fixedValue;
        value           nonuniform 0();
    }
    rightWall
    {
        type            fixedValue;
        value           uniform 0;
    }
    lowerWall
    {
        type            fixedValue;
        value           nonuniform 0();
    }
    atmosphere
    {
        type            calculated;
        value           nonuniform List<scalar> 
23
(
2.48176e-06
1.9009e-06
1.29175e-06
6.55678e-07
-1.09314e-06
-5.16814e-06
-9.51217e-06
-1.40898e-05
-1.88587e-05
-2.38388e-05
-2.87979e-05
-3.43465e-05
-3.9027e-05
-4.52456e-05
-4.81637e-05
-5.29404e-05
-5.2549e-05
-5.22364e-05
-4.82053e-05
-4.43536e-05
-3.57651e-05
-3.32959e-05
-2.51761e-05
)
;
    }
    defaultFaces
    {
        type            empty;
        value           nonuniform 0();
    }
    procBoundary3to1
    {
        type            processor;
        value           nonuniform List<scalar> 
23
(
-7.04216e-05
-6.68719e-05
-5.64096e-05
-4.6994e-05
-2.82093e-05
5.6191e-05
7.85168e-05
7.1516e-05
5.49329e-05
3.85767e-05
2.55062e-05
4.50675e-06
-5.37842e-06
-1.84673e-06
-2.74342e-05
-5.04334e-05
-3.39249e-05
6.02737e-05
0.000135076
0.000209047
0.000295965
0.000395096
0.000566097
)
;
    }
    procBoundary3to2
    {
        type            processor;
        value           nonuniform List<scalar> 
25
(
-0.000148075
-0.000111391
-9.26695e-05
-8.21865e-05
-7.55715e-05
-7.05374e-05
-6.61266e-05
-6.14003e-05
-5.6811e-05
-5.23965e-05
-4.81533e-05
-4.40812e-05
-4.01671e-05
-3.63738e-05
-3.26944e-05
-2.91253e-05
-2.56592e-05
-2.22919e-05
-1.90203e-05
-1.58278e-05
-1.27326e-05
-9.78106e-06
-6.86656e-06
-4.03423e-06
4.07158e-07
)
;
    }
}


// ************************************************************************* //
