/*--------------------------------*- C++ -*----------------------------------*\
| =========                 |                                                 |
| \\      /  F ield         | OpenFOAM: The Open Source CFD Toolbox           |
|  \\    /   O peration     | Version:  2.4.0                                 |
|   \\  /    A nd           | Web:      www.OpenFOAM.org                      |
|    \\/     M anipulation  |                                                 |
\*---------------------------------------------------------------------------*/
FoamFile
{
    version     2.0;
    format      ascii;
    class       surfaceScalarField;
    location    "0.85";
    object      phi.water;
}
// * * * * * * * * * * * * * * * * * * * * * * * * * * * * * * * * * * * * * //

dimensions      [0 3 -1 0 0 0 0];

internalField   nonuniform List<scalar> 
1102
(
0.000161133
5.4954e-05
0.00017163
5.26857e-05
0.000179097
4.42183e-05
3.67488e-05
0.000185018
0.000123553
4.21764e-05
0.000136256
3.99981e-05
0.000146635
3.38517e-05
2.78147e-05
0.000155556
0.000103201
3.13806e-05
0.000113744
2.94314e-05
0.000122217
2.53489e-05
2.1313e-05
0.000128693
8.96159e-05
2.39372e-05
9.68273e-05
2.2201e-05
0.000102709
1.94528e-05
1.66478e-05
0.000107364
8.05667e-05
1.89372e-05
8.54746e-05
1.72856e-05
8.96612e-05
1.52599e-05
1.31176e-05
9.31855e-05
7.41136e-05
1.53507e-05
7.75621e-05
1.38318e-05
8.06202e-05
1.21972e-05
1.05208e-05
8.32128e-05
6.87306e-05
1.27408e-05
7.11952e-05
1.1364e-05
7.33926e-05
9.9961e-06
8.59207e-06
7.5318e-05
6.34035e-05
1.07338e-05
6.52431e-05
9.52122e-06
6.6937e-05
8.29889e-06
7.03425e-06
6.84923e-05
5.84112e-05
9.12944e-06
5.98894e-05
8.04044e-06
6.12743e-05
6.91142e-06
5.75e-06
6.25562e-05
5.37154e-05
7.80762e-06
5.49659e-05
6.78759e-06
5.61287e-05
5.74633e-06
4.64765e-06
5.72291e-05
4.92711e-05
6.68672e-06
5.03264e-05
5.73045e-06
5.13313e-05
4.73951e-06
3.70248e-06
5.22747e-05
4.50333e-05
5.73285e-06
4.59394e-05
4.82272e-06
4.67943e-05
3.88274e-06
2.89311e-06
4.76022e-05
4.09724e-05
4.92563e-06
4.17372e-05
4.05659e-06
4.24643e-05
3.15426e-06
2.21193e-06
4.31441e-05
3.70501e-05
4.24826e-06
3.76943e-05
3.41122e-06
3.83017e-05
2.54561e-06
1.64298e-06
3.88695e-05
3.32541e-05
3.68729e-06
3.37847e-05
2.87979e-06
3.42857e-05
2.04355e-06
1.17842e-06
3.47492e-05
2.95813e-05
3.23086e-06
3.00116e-05
2.4487e-06
3.04142e-05
1.63994e-06
8.06911e-07
3.07849e-05
2.60194e-05
2.87002e-06
2.63565e-05
2.11104e-06
2.66669e-05
1.32888e-06
5.24944e-07
2.69481e-05
2.2564e-05
2.59787e-06
2.28151e-05
1.85954e-06
2.30415e-05
1.10187e-06
3.24358e-07
2.32415e-05
1.921e-05
2.40809e-06
1.9379e-05
1.69027e-06
1.95271e-05
9.53237e-07
1.99584e-07
1.96515e-05
1.59449e-05
2.29118e-06
1.60401e-05
1.59486e-06
1.61131e-05
8.79986e-07
1.48141e-07
1.61642e-05
1.27708e-05
2.25316e-06
1.27954e-05
1.57019e-06
1.28021e-05
8.73018e-07
1.61013e-07
1.27889e-05
9.71755e-06
2.31693e-06
9.64597e-06
1.64166e-06
9.56659e-06
9.52211e-07
2.47672e-07
9.47969e-06
6.76674e-06
2.41703e-06
6.63787e-06
1.77057e-06
6.48676e-06
1.10321e-06
4.18769e-07
6.31559e-06
3.94188e-06
2.50961e-06
3.80706e-06
1.90551e-06
3.63294e-06
1.27743e-06
6.28903e-07
3.4228e-06
-3.79162e-07
-3.74441e-07
-3.88703e-07
-4.15451e-07
0.00017781
2.6024e-05
0.000145058
-2.83332e-05
0.00011379
-4.69826e-05
9.01753e-05
-4.71996e-05
7.60457e-05
-4.06489e-05
6.57082e-05
-2.8054e-05
5.51781e-05
-1.45179e-05
4.64207e-05
5.98267e-06
1.39075e-05
4.31176e-05
-2.6809e-05
4.51126e-05
-3.69101e-05
4.09032e-05
-8.33773e-06
3.26788e-05
3.98151e-05
-6.23111e-06
8.55641e-05
-0.000109811
0.000117647
-0.00019389
0.000122444
-0.000260155
9.3189e-05
-0.000319027
4.57854e-05
-0.000383985
-0.000523191
0.000152763
2.88315e-05
0.00013228
-7.83509e-06
0.00011049
-2.51904e-05
9.44222e-05
-3.11422e-05
8.2638e-05
-2.88754e-05
7.74613e-05
-2.28882e-05
7.6217e-05
-1.32641e-05
8.33951e-05
-1.10147e-06
0.000106957
1.95579e-05
0.000117816
3.62925e-05
0.000127449
3.11298e-05
0.000150025
1.11169e-05
0.000181445
-3.52936e-05
0.000192233
-0.000117826
0.000180232
-0.000181253
0.000157581
-0.000237834
0.000109159
-0.000270984
5.50634e-05
-0.000330377
-0.000468208
0.000129244
2.82887e-05
0.000118922
2.49537e-06
0.000106101
-1.23752e-05
9.51387e-05
-2.01876e-05
8.84297e-05
-2.21756e-05
8.4276e-05
-1.87449e-05
8.56576e-05
-1.46544e-05
9.41967e-05
-9.64823e-06
0.000114727
-9.91523e-07
0.000142518
7.5349e-06
0.000172497
7.02699e-07
0.000209802
-2.60056e-05
0.000232184
-5.67682e-05
0.000222673
-0.000108109
0.000196819
-0.000155507
0.000160669
-0.000202131
0.000112182
-0.000222891
5.38546e-05
-0.000272483
-0.000414435
0.000110523
2.51263e-05
0.000106446
6.56723e-06
9.92295e-05
-5.16714e-06
9.32764e-05
-1.42436e-05
8.92421e-05
-1.81503e-05
8.85501e-05
-1.80619e-05
9.17331e-05
-1.78472e-05
9.87772e-05
-1.67025e-05
0.000113958
-1.61775e-05
0.000138355
-1.71261e-05
0.000160846
-2.22518e-05
0.000181284
-4.7401e-05
0.000199753
-7.65426e-05
0.000202771
-0.000112349
0.000189612
-0.000142877
0.000157809
-0.00017095
0.000110496
-0.000175702
5.78204e-05
-0.000220004
-0.000356696
9.72358e-05
2.10683e-05
9.60877e-05
7.70757e-06
9.31544e-05
-2.24282e-06
8.98035e-05
-1.09014e-05
8.83109e-05
-1.66662e-05
8.93828e-05
-1.9142e-05
9.24195e-05
-2.08922e-05
9.98578e-05
-2.41497e-05
0.000110645
-2.69747e-05
0.000127307
-3.3836e-05
0.000145534
-4.05465e-05
0.000156058
-5.79966e-05
0.000167613
-8.82754e-05
0.000166745
-0.000111614
0.000155919
-0.000132118
0.000126097
-0.000140984
8.97124e-05
-0.000139173
5.31875e-05
-0.000183497
-0.000303575
8.67793e-05
1.74964e-05
8.71172e-05
7.36205e-06
8.66241e-05
-1.75797e-06
8.54191e-05
-9.70445e-06
8.53998e-05
-1.66546e-05
8.68701e-05
-2.06197e-05
9.0308e-05
-2.43375e-05
9.72295e-05
-3.10789e-05
0.000105817
-3.557e-05
0.000114796
-4.2822e-05
0.000130646
-5.64039e-05
0.000141686
-6.90449e-05
0.000150022
-9.66153e-05
0.000149999
-0.000111599
0.000135157
-0.000117262
0.000104839
-0.000110678
7.18171e-05
-0.000106115
4.0796e-05
-0.000152475
-0.000262816
7.84316e-05
1.43782e-05
7.96997e-05
6.08714e-06
8.04321e-05
-2.49765e-06
8.06445e-05
-9.92433e-06
8.12746e-05
-1.72916e-05
8.31192e-05
-2.24709e-05
8.65596e-05
-2.77844e-05
9.2059e-05
-3.65849e-05
9.85935e-05
-4.2111e-05
0.000106115
-5.03495e-05
0.000114939
-6.52329e-05
0.000128615
-8.27234e-05
0.000137857
-0.000105867
0.000136873
-0.000110618
0.00012229
-0.000102676
9.27273e-05
-8.11241e-05
6.08062e-05
-7.41617e-05
3.43162e-05
-0.000125982
-0.000228528
7.13871e-05
1.14791e-05
7.31556e-05
4.31278e-06
7.44108e-05
-3.75946e-06
7.53067e-05
-1.08269e-05
7.61665e-05
-1.81577e-05
7.82933e-05
-2.46037e-05
8.11557e-05
-3.06525e-05
8.5285e-05
-4.072e-05
9.03464e-05
-4.71781e-05
9.60872e-05
-5.60952e-05
0.000103177
-7.23266e-05
0.000116512
-9.60571e-05
0.000122377
-0.000111741
0.000120652
-0.000108898
0.000104287
-8.63133e-05
7.47873e-05
-5.1627e-05
4.63895e-05
-4.5762e-05
2.73049e-05
-0.000106898
-0.000201245
6.51315e-05
8.90011e-06
6.7128e-05
2.31129e-06
6.8515e-05
-5.15237e-06
6.97705e-05
-1.20882e-05
7.08242e-05
-1.92171e-05
7.25579e-05
-2.63427e-05
7.48709e-05
-3.29706e-05
7.71253e-05
-4.29793e-05
8.08306e-05
-5.08882e-05
8.48309e-05
-6.00998e-05
9.16376e-05
-7.91357e-05
9.90032e-05
-0.000103425
0.00010017
-0.000112914
9.57222e-05
-0.000104447
7.46516e-05
-6.52306e-05
4.97702e-05
-2.67469e-05
2.99461e-05
-2.59524e-05
2.07373e-05
-9.76947e-05
-0.000180519
5.95288e-05
6.59727e-06
6.14555e-05
3.80018e-07
6.28187e-05
-6.52062e-06
6.40651e-05
-1.334e-05
6.51397e-05
-2.02967e-05
6.6356e-05
-2.75637e-05
6.828e-05
-3.48992e-05
6.90213e-05
-4.3725e-05
7.14234e-05
-5.32944e-05
7.36525e-05
-6.23329e-05
7.44979e-05
-7.99848e-05
7.2379e-05
-0.000101316
6.88423e-05
-0.000109381
5.84161e-05
-9.40197e-05
3.84587e-05
-4.53078e-05
2.69552e-05
-1.53557e-05
2.20797e-05
-2.11364e-05
1.5794e-05
-9.14063e-05
-0.000164736
5.4278e-05
4.59128e-06
5.60134e-05
-1.35934e-06
5.73076e-05
-7.81924e-06
5.8389e-05
-1.4426e-05
5.93641e-05
-2.12763e-05
6.01334e-05
-2.83372e-05
6.12547e-05
-3.60245e-05
6.14002e-05
-4.38743e-05
6.1745e-05
-5.36428e-05
6.21444e-05
-6.27355e-05
5.80927e-05
-7.59388e-05
4.93911e-05
-9.26252e-05
4.02863e-05
-0.000100288
2.73544e-05
-8.10574e-05
1.75096e-05
-3.54206e-05
1.78646e-05
-1.59974e-05
2.25357e-05
-2.60956e-05
1.7271e-05
-8.61615e-05
-0.000147475
4.93286e-05
2.86247e-06
5.08004e-05
-2.83448e-06
5.19443e-05
-8.96701e-06
5.28601e-05
-1.53457e-05
5.35612e-05
-2.19814e-05
5.41026e-05
-2.88823e-05
5.43726e-05
-3.62979e-05
5.43724e-05
-4.38775e-05
5.3233e-05
-5.25065e-05
5.15751e-05
-6.10804e-05
4.70958e-05
-7.14638e-05
3.69568e-05
-8.24963e-05
2.50265e-05
-8.83656e-05
1.48735e-05
-7.08389e-05
1.26361e-05
-3.29032e-05
1.95416e-05
-2.28213e-05
2.68355e-05
-3.35188e-05
1.90341e-05
-7.84268e-05
-0.000128456
4.45946e-05
1.40983e-06
4.58195e-05
-4.06216e-06
4.67738e-05
-9.92468e-06
4.74842e-05
-1.60595e-05
4.79572e-05
-2.24577e-05
4.82023e-05
-2.91305e-05
4.81147e-05
-3.62134e-05
4.7643e-05
-4.34086e-05
4.64886e-05
-5.13547e-05
4.42148e-05
-5.88088e-05
4.02114e-05
-6.74631e-05
3.19237e-05
-7.42137e-05
2.0764e-05
-7.72124e-05
1.40587e-05
-6.41196e-05
1.72853e-05
-3.60582e-05
2.40217e-05
-2.93121e-05
2.76106e-05
-3.6953e-05
1.90863e-05
-6.99058e-05
-0.000109377
4.00616e-05
2.15966e-07
4.1054e-05
-5.05707e-06
4.17941e-05
-1.06675e-05
4.23044e-05
-1.65727e-05
4.25524e-05
-2.27086e-05
4.25538e-05
-2.91346e-05
4.22098e-05
-3.5872e-05
4.14985e-05
-4.26998e-05
4.03223e-05
-5.01808e-05
3.83612e-05
-5.68497e-05
3.58381e-05
-6.49417e-05
3.12313e-05
-6.96081e-05
2.40642e-05
-7.0047e-05
1.98931e-05
-5.99327e-05
2.30939e-05
-3.92619e-05
2.57956e-05
-3.19942e-05
2.44561e-05
-3.55709e-05
1.70891e-05
-6.25247e-05
-9.22902e-05
3.57065e-05
-7.42794e-07
3.64735e-05
-5.82614e-06
3.70225e-05
-1.12188e-05
3.73292e-05
-1.68818e-05
3.73858e-05
-2.27675e-05
3.7165e-05
-2.89162e-05
3.66167e-05
-3.5326e-05
3.58332e-05
-4.19184e-05
3.46259e-05
-4.89754e-05
3.3087e-05
-5.53124e-05
3.1598e-05
-6.34541e-05
3.06857e-05
-6.86967e-05
2.90876e-05
-6.84489e-05
2.71149e-05
-5.79566e-05
2.62146e-05
-3.83597e-05
2.40899e-05
-2.98688e-05
1.93594e-05
-3.08299e-05
1.4001e-05
-5.71664e-05
-7.82893e-05
3.15227e-05
-1.48184e-06
3.20838e-05
-6.38889e-06
3.24344e-05
-1.15712e-05
3.25582e-05
-1.70075e-05
3.2422e-05
-2.26332e-05
3.2014e-05
-2.85101e-05
3.12797e-05
-3.45936e-05
3.03013e-05
-4.09418e-05
2.89661e-05
-4.76419e-05
2.76927e-05
-5.40404e-05
2.70407e-05
-6.28033e-05
2.8596e-05
-7.0253e-05
2.95739e-05
-6.94273e-05
2.78921e-05
-5.62739e-05
2.50681e-05
-3.5534e-05
2.00426e-05
-2.48407e-05
1.58029e-05
-2.65852e-05
1.27928e-05
-5.4156e-05
-6.54969e-05
2.74861e-05
-2.0208e-06
2.7865e-05
-6.76911e-06
2.80368e-05
-1.17444e-05
2.7982e-05
-1.69542e-05
2.76756e-05
-2.23284e-05
2.70811e-05
-2.79171e-05
2.61667e-05
-3.36809e-05
2.48828e-05
-3.96595e-05
2.33587e-05
-4.61193e-05
2.16347e-05
-5.23177e-05
2.01594e-05
-6.1329e-05
2.04146e-05
-7.05091e-05
2.14424e-05
-7.04559e-05
1.86143e-05
-5.34463e-05
1.35923e-05
-3.05127e-05
8.32488e-06
-1.95758e-05
9.06095e-06
-2.73205e-05
9.4499e-06
-5.45457e-05
-5.6047e-05
2.35972e-05
-2.37732e-06
2.37947e-05
-6.96755e-06
2.38135e-05
-1.17643e-05
2.36013e-05
-1.67433e-05
2.31438e-05
-2.18722e-05
2.23647e-05
-2.71394e-05
2.12377e-05
-3.25553e-05
1.95443e-05
-3.79676e-05
1.73417e-05
-4.39182e-05
1.4214e-05
-4.91911e-05
9.72753e-06
-5.68435e-05
2.71467e-06
-6.3497e-05
-4.00013e-06
-6.37418e-05
-6.36372e-06
-5.10833e-05
-7.2907e-06
-2.95876e-05
-3.25805e-06
-2.3607e-05
7.16889e-06
-3.77479e-05
7.21023e-06
-5.4587e-05
-4.88369e-05
1.98405e-05
-2.56702e-06
1.9886e-05
-7.01374e-06
1.97561e-05
-1.16353e-05
1.94292e-05
-1.64173e-05
1.88541e-05
-2.12981e-05
1.79787e-05
-2.62652e-05
1.67222e-05
-3.13002e-05
1.49155e-05
-3.61623e-05
1.23131e-05
-4.13172e-05
8.47314e-06
-4.53522e-05
2.08133e-06
-5.04526e-05
-5.95091e-06
-5.54654e-05
-1.31325e-05
-5.65607e-05
-1.57462e-05
-4.84695e-05
-1.29141e-05
-3.24192e-05
-3.57396e-06
-3.29462e-05
4.86729e-06
-4.61891e-05
2.56739e-06
-5.22875e-05
-4.62697e-05
1.61987e-05
-2.60202e-06
1.6103e-05
-6.91862e-06
1.58584e-05
-1.13913e-05
1.54283e-05
-1.5988e-05
1.47883e-05
-2.0659e-05
1.38827e-05
-2.53607e-05
1.26223e-05
-3.00411e-05
1.08957e-05
-3.44371e-05
8.45101e-06
-3.88737e-05
5.04003e-06
-4.19423e-05
2.34819e-07
-4.56482e-05
-6.4324e-06
-4.87989e-05
-1.36763e-05
-4.93174e-05
-1.39188e-05
-4.82271e-05
-6.8665e-06
-3.94712e-05
1.51774e-06
-4.13309e-05
3.745e-06
-4.84168e-05
1.53136e-06
-5.00742e-05
-4.47384e-05
1.26752e-05
-2.48875e-06
1.24533e-05
-6.69714e-06
1.21101e-05
-1.10487e-05
1.16209e-05
-1.54994e-05
1.09674e-05
-2.00064e-05
1.0094e-05
-2.44883e-05
8.95785e-06
-2.89061e-05
7.42309e-06
-3.29036e-05
5.36727e-06
-3.6819e-05
3.22441e-06
-3.98004e-05
4.66703e-07
-4.28912e-05
-2.6803e-06
-4.56525e-05
-6.98274e-06
-4.50154e-05
-5.05927e-06
-5.01511e-05
1.85736e-06
-4.63883e-05
5.5988e-06
-4.50728e-05
4.01571e-06
-4.68341e-05
1.8095e-06
-4.78682e-05
-4.2929e-05
9.23031e-06
-2.23962e-06
8.89161e-06
-6.35873e-06
8.45182e-06
-1.06092e-05
7.90585e-06
-1.49539e-05
7.22608e-06
-1.93272e-05
6.36122e-06
-2.36243e-05
5.2647e-06
-2.78105e-05
4.04422e-06
-3.1684e-05
2.92355e-06
-3.56991e-05
2.36478e-06
-3.92422e-05
1.30602e-06
-4.18329e-05
2.36649e-06
-4.67133e-05
3.70637e-06
-4.63555e-05
5.20068e-06
-5.16455e-05
7.73643e-06
-4.89242e-05
9.42617e-06
-4.67626e-05
7.46777e-06
-4.48759e-05
4.31788e-06
-4.47184e-05
-3.86112e-05
5.86958e-06
-1.79371e-06
5.4083e-06
-5.89751e-06
4.90451e-06
-1.01055e-05
4.30117e-06
-1.43507e-05
3.60401e-06
-1.86304e-05
2.92947e-06
-2.29501e-05
2.50035e-06
-2.73818e-05
2.53886e-06
-3.17228e-05
2.61604e-06
-3.57765e-05
3.60645e-06
-4.02326e-05
4.74992e-06
-4.29762e-05
7.42476e-06
-4.93879e-05
1.05373e-05
-4.94678e-05
1.12168e-05
-5.23248e-05
1.1682e-05
-4.9389e-05
1.2168e-05
-4.72485e-05
9.84713e-06
-4.25549e-05
5.82819e-06
-4.06996e-05
-3.2783e-05
2.82688e-06
-1.19774e-06
2.12926e-06
-5.19986e-06
1.46742e-06
-9.44363e-06
9.97073e-07
-1.38803e-05
8.34545e-07
-1.84678e-05
1.04327e-06
-2.31589e-05
1.50914e-06
-2.78477e-05
2.59551e-06
-3.28092e-05
3.98008e-06
-3.71609e-05
6.58092e-06
-4.28332e-05
9.19862e-06
-4.55935e-05
1.12784e-05
-5.14673e-05
1.30328e-05
-5.12219e-05
1.2885e-05
-5.21766e-05
1.25195e-05
-4.90234e-05
1.14545e-05
-4.61833e-05
7.92772e-06
-3.90283e-05
3.89993e-06
-3.66719e-05
-2.88831e-05
-5.20033e-07
-5.51716e-07
-4.83156e-07
-2.73679e-07
1.17176e-07
7.97108e-07
1.74743e-06
3.28485e-06
5.15103e-06
7.56363e-06
1.01339e-05
1.16072e-05
1.29344e-05
1.29942e-05
1.21761e-05
1.03463e-05
7.08306e-06
3.707e-06
)
;

boundaryField
{
    leftWall
    {
        type            fixedValue;
        value           nonuniform 0();
    }
    rightWall
    {
        type            fixedValue;
        value           uniform 0;
    }
    lowerWall
    {
        type            fixedValue;
        value           nonuniform 0();
    }
    atmosphere
    {
        type            calculated;
        value           nonuniform List<scalar> 
23
(
2.48176e-06
1.9009e-06
1.29175e-06
6.55678e-07
-1.09314e-06
-5.16814e-06
-9.51217e-06
-1.40898e-05
-1.88587e-05
-2.38388e-05
-2.87979e-05
-3.43465e-05
-3.9027e-05
-4.52456e-05
-4.81637e-05
-5.29404e-05
-5.2549e-05
-5.22364e-05
-4.82053e-05
-4.43536e-05
-3.57651e-05
-3.32959e-05
-2.51761e-05
)
;
    }
    defaultFaces
    {
        type            empty;
        value           nonuniform 0();
    }
    procBoundary3to1
    {
        type            processor;
        value           nonuniform List<scalar> 
23
(
-6.71415e-05
-6.31835e-05
-5.17049e-05
-4.26824e-05
-1.8817e-05
6.10551e-05
7.8185e-05
7.07749e-05
5.47425e-05
3.83758e-05
2.53671e-05
3.56266e-06
-9.76257e-06
-2.87329e-06
-3.11838e-05
-6.19508e-05
-4.27287e-05
6.28922e-05
0.000162758
0.000256523
0.000348639
0.000431125
0.0005689
)
;
    }
    procBoundary3to2
    {
        type            processor;
        value           nonuniform List<scalar> 
25
(
-0.00014894
-0.000110746
-9.24316e-05
-8.21903e-05
-7.55785e-05
-7.05343e-05
-6.61271e-05
-6.14008e-05
-5.68112e-05
-5.23965e-05
-4.81533e-05
-4.40812e-05
-4.01671e-05
-3.63738e-05
-3.26944e-05
-2.91253e-05
-2.56592e-05
-2.22919e-05
-1.90203e-05
-1.58278e-05
-1.27326e-05
-9.78106e-06
-6.86656e-06
-4.03423e-06
4.07158e-07
)
;
    }
}


// ************************************************************************* //
