/*--------------------------------*- C++ -*----------------------------------*\
| =========                 |                                                 |
| \\      /  F ield         | OpenFOAM: The Open Source CFD Toolbox           |
|  \\    /   O peration     | Version:  2.4.0                                 |
|   \\  /    A nd           | Web:      www.OpenFOAM.org                      |
|    \\/     M anipulation  |                                                 |
\*---------------------------------------------------------------------------*/
FoamFile
{
    version     2.0;
    format      ascii;
    class       volScalarField;
    location    "0.85";
    object      rho;
}
// * * * * * * * * * * * * * * * * * * * * * * * * * * * * * * * * * * * * * //

dimensions      [1 -3 0 0 0 0 0];

internalField   nonuniform List<scalar> 
575
(
1.00097
1.00119
1.0015
1.00151
1.00058
1.00056
1.00084
1.00074
1.00016
1.00018
1.0002
1.00018
1.00007
1.00007
1.00005
1.00004
1.00002
1.00002
1.00001
1.00001
1
1
1
1
1
1
1
1
0.999999
0.999999
0.999999
0.999999
0.999999
0.999999
0.999999
0.999999
0.999998
0.999998
0.999998
0.999998
0.999998
0.999998
0.999998
0.999998
0.999998
0.999998
0.999998
0.999998
0.999998
0.999998
0.999998
0.999997
0.999998
0.999998
0.999998
0.999997
0.999999
0.999998
0.999998
0.999997
0.999999
0.999998
0.999998
0.999997
0.999999
0.999999
0.999997
0.999997
0.999999
0.999998
0.999997
0.999997
0.999999
0.999998
0.999997
0.999997
0.999999
0.999998
0.999997
0.999997
0.999999
0.999998
0.999997
0.999997
0.999999
0.999998
0.999998
0.999998
0.999999
0.999999
0.999998
0.999998
0.999998
0.999998
0.999997
0.999998
0.999998
0.999998
0.999998
0.999998
1.0008
1.0003
1.00009
1.00003
1.00002
1.00003
1.00006
1.00009
1.00028
1.00152
1.00116
1.00115
1.00173
1.00263
1.00975
1.01192
1.01183
1.00323
1.00078
1.00029
1.00008
1.00003
1.00001
1.00001
1.00001
1.00003
1.00005
1.00013
1.00045
1.00084
1.0011
1.00117
1.00109
1.00461
1.01198
1.00901
1.00156
1.00083
1.00007
1.00003
1.00001
1
1
1
1.00001
1.00002
1.00005
1.00013
1.00025
1.0004
1.00058
1.00067
1.00075
1.00985
1.00616
1.00109
1.0008
1.00002
1
1
0.999999
0.999999
1
1
1.00001
1.00001
1.00004
1.00006
1.00009
1.00013
1.00027
1.00038
1.00264
1.00594
1.00169
1.00081
1
1
0.999999
0.999998
0.999998
0.999998
0.999999
1
1
1.00001
1.00002
1.00003
1.00005
1.00017
1.00029
1.00089
1.00521
1.00271
1.0008
1
0.999999
0.999999
0.999998
0.999998
0.999998
0.999998
0.999999
1
1
1.00001
1.00003
1.00008
1.00016
1.00029
1.00061
1.00507
1.00312
1.0008
0.999999
0.999999
0.999998
0.999998
0.999998
0.999998
0.999998
0.999999
1
1
1.00001
1.00003
1.00013
1.00023
1.00035
1.00052
1.00351
1.00231
1.00075
0.999999
0.999999
0.999998
0.999998
0.999998
0.999998
0.999998
0.999999
1
1
1.00001
1.00003
1.00019
1.00036
1.00048
1.00062
1.00181
1.00114
1.00073
0.999998
0.999998
0.999998
0.999997
0.999997
0.999998
0.999998
0.999999
1
1
1.00001
1.00004
1.00027
1.00052
1.00067
1.00079
1.00135
1.001
1.00066
0.999998
0.999997
0.999997
0.999997
0.999997
0.999998
0.999998
0.999999
1
1
1.00002
1.00005
1.00036
1.0012
1.00345
1.00396
1.00327
1.00102
1.00062
0.999997
0.999997
0.999997
0.999997
0.999997
0.999998
0.999998
0.999999
0.999999
1
1.00002
1.00006
1.00041
1.00338
1.01733
1.01805
1.00964
1.00231
1.00071
0.999997
0.999997
0.999996
0.999997
0.999997
0.999998
0.999998
0.999999
0.999999
1
1.00001
1.00006
1.00037
1.00383
1.01686
1.01806
1.01801
1.00498
1.00111
0.999997
0.999996
0.999996
0.999997
0.999997
0.999998
0.999999
0.999999
0.999999
1
1.00001
1.00005
1.00026
1.00077
1.0021
1.0117
1.00858
1.0051
1.00109
0.999996
0.999996
0.999996
0.999997
0.999997
0.999998
0.999999
0.999999
1
1
1.00001
1.00003
1.00015
1.00049
1.0008
1.00092
1.00287
1.0024
1.00054
0.999996
0.999996
0.999996
0.999997
0.999998
0.999998
0.999999
0.999999
1
1
1.00001
1.00004
1.00014
1.00029
1.00049
1.00065
1.00242
1.00091
1.00022
0.999996
0.999996
0.999997
0.999997
0.999998
0.999998
0.999999
0.999999
1
1.00001
1.00002
1.00006
1.00021
1.00031
1.00043
1.00063
1.00151
1.00049
1.00018
0.999996
0.999997
0.999997
0.999998
0.999998
0.999999
0.999999
0.999999
1
1.00001
1.00003
1.00012
1.00032
1.00046
1.00057
1.00177
1.00074
1.00036
1.00009
0.999997
0.999997
0.999997
0.999998
0.999999
0.999999
0.999999
1
1
1.00001
1.00004
1.00018
1.0004
1.00066
1.00129
1.00185
1.00047
1.00015
1.00005
0.999997
0.999997
0.999998
0.999998
0.999999
0.999999
0.999999
1
1
1.00001
1.00003
1.00014
1.00042
1.00078
1.00142
1.00099
1.00025
1.00007
1.00002
0.999997
0.999998
0.999998
0.999999
0.999999
0.999999
0.999999
0.999999
1
1.00001
1.00002
1.00007
1.00029
1.00044
1.00068
1.00028
1.00011
1.00002
1
0.999998
0.999998
0.999999
0.999999
0.999999
0.999999
0.999999
0.999999
1
1
1.00001
1.00002
1.00012
1.00017
1.00016
1.00009
1.00004
1.00001
1
0.999998
0.999999
0.999999
0.999999
0.999999
0.999999
0.999999
0.999999
1
1
1
1.00001
1.00003
1.00004
1.00003
1.00002
1.00001
1.00001
1
0.999998
0.999999
0.999999
0.999999
0.999999
0.999999
0.999999
0.999999
1
1
1
1
1
1.00001
1.00001
1
1
1
1
0.999999
0.999999
0.999999
0.999999
0.999999
0.999999
0.999999
0.999999
1
1
1
1
1
1
1
1
1
1
1
0.999999
0.999999
0.999999
0.999999
1
1
1
1
1
1
1
1
1
1
1
1
1
1
1
)
;

boundaryField
{
    leftWall
    {
        type            calculated;
        value           nonuniform 0();
    }
    rightWall
    {
        type            calculated;
        value           nonuniform List<scalar> 
25
(
1.00078
1.00083
1.0008
1.00081
1.0008
1.0008
1.00075
1.00073
1.00066
1.00062
1.00071
1.00111
1.00109
1.00054
1.00022
1.00018
1.00009
1.00005
1.00002
1
1
1
1
1
1
)
;
    }
    lowerWall
    {
        type            calculated;
        value           nonuniform 0();
    }
    atmosphere
    {
        type            calculated;
        value           nonuniform List<scalar> 
23
(
0.999998
0.999998
0.999998
0.999998
1
1
1
1
1
1
1
1
1
1
1
1
1
1
1
1
1
1
1
)
;
    }
    defaultFaces
    {
        type            empty;
    }
    procBoundary3to1
    {
        type            processor;
        value           nonuniform List<scalar> 
23
(
1.00097
1.00142
1.0015
1.0015
1.00143
1.00062
1.00016
1.00006
1.00003
1.00004
1.0001
1.00029
1.00146
1.00107
1.00103
1.00102
1.00105
1.00271
1.0037
1.01015
1.01143
1.00259
1.00078
)
;
    }
    procBoundary3to2
    {
        type            processor;
        value           nonuniform List<scalar> 
25
(
1.00091
1.00057
1.00016
1.00007
1.00002
1
1
0.999999
0.999999
0.999998
0.999998
0.999998
0.999998
0.999999
0.999999
0.999999
0.999999
0.999999
0.999999
0.999999
0.999999
1
1
0.999999
0.999999
)
;
    }
}


// ************************************************************************* //
