/*--------------------------------*- C++ -*----------------------------------*\
| =========                 |                                                 |
| \\      /  F ield         | OpenFOAM: The Open Source CFD Toolbox           |
|  \\    /   O peration     | Version:  2.4.0                                 |
|   \\  /    A nd           | Web:      www.OpenFOAM.org                      |
|    \\/     M anipulation  |                                                 |
\*---------------------------------------------------------------------------*/
FoamFile
{
    version     2.0;
    format      ascii;
    class       volVectorField;
    location    "0.85";
    object      U;
}
// * * * * * * * * * * * * * * * * * * * * * * * * * * * * * * * * * * * * * //

dimensions      [0 1 -1 0 0 0 0];

internalField   nonuniform List<vector> 
575
(
(0.810468 0.677768 0)
(0.895665 0.661802 0)
(0.931992 0.554224 0)
(0.980798 0.470439 0)
(0.610699 0.530397 0)
(0.700564 0.508142 0)
(0.750123 0.424606 0)
(0.819778 0.346581 0)
(0.514304 0.393291 0)
(0.58454 0.371812 0)
(0.628614 0.316327 0)
(0.680669 0.264189 0)
(0.454429 0.298629 0)
(0.501383 0.280075 0)
(0.533192 0.243598 0)
(0.567573 0.208453 0)
(0.414504 0.234194 0)
(0.44574 0.215854 0)
(0.468727 0.190012 0)
(0.492532 0.164004 0)
(0.385074 0.190762 0)
(0.406987 0.172701 0)
(0.423744 0.152361 0)
(0.440611 0.131168 0)
(0.360012 0.156231 0)
(0.375553 0.139988 0)
(0.387477 0.122977 0)
(0.399484 0.106781 0)
(0.333434 0.132009 0)
(0.345375 0.117059 0)
(0.354229 0.102747 0)
(0.363605 0.0876239 0)
(0.308259 0.111773 0)
(0.317367 0.0989867 0)
(0.324974 0.0853382 0)
(0.332238 0.0719757 0)
(0.283939 0.0958195 0)
(0.291622 0.0836094 0)
(0.298012 0.0714329 0)
(0.304042 0.0585466 0)
(0.260848 0.0820821 0)
(0.267228 0.0707858 0)
(0.272715 0.0591151 0)
(0.277948 0.047052 0)
(0.238652 0.0704345 0)
(0.244103 0.0596668 0)
(0.248762 0.0486736 0)
(0.253291 0.0370908 0)
(0.217329 0.060505 0)
(0.221919 0.050262 0)
(0.225843 0.0397434 0)
(0.229746 0.0287157 0)
(0.196701 0.0520977 0)
(0.200558 0.0422783 0)
(0.203823 0.0322018 0)
(0.207117 0.0216391 0)
(0.176703 0.0450796 0)
(0.179897 0.0356233 0)
(0.182571 0.0259139 0)
(0.185317 0.0157903 0)
(0.157333 0.0393045 0)
(0.159908 0.0301767 0)
(0.162059 0.02079 0)
(0.164293 0.0110741 0)
(0.138525 0.0346667 0)
(0.140531 0.0258208 0)
(0.142205 0.0167399 0)
(0.143939 0.00737129 0)
(0.120255 0.0310644 0)
(0.121744 0.0224812 0)
(0.122984 0.0136878 0)
(0.124252 0.0046387 0)
(0.102508 0.0284417 0)
(0.103521 0.0200959 0)
(0.104345 0.0115606 0)
(0.105173 0.00279671 0)
(0.0852064 0.0267378 0)
(0.0858051 0.0186162 0)
(0.0862411 0.0103171 0)
(0.0866392 0.00181013 0)
(0.0684079 0.0257049 0)
(0.068589 0.017863 0)
(0.0686607 0.00982861 0)
(0.0686877 0.00157446 0)
(0.0522858 0.0260121 0)
(0.0519247 0.0181922 0)
(0.0515365 0.0102671 0)
(0.0511049 0.00220504 0)
(0.0366276 0.0267887 0)
(0.0359926 0.0191722 0)
(0.03523 0.011342 0)
(0.0343678 0.00331364 0)
(0.0214409 0.0289465 0)
(0.0208209 0.0217319 0)
(0.0200022 0.0142615 0)
(0.0189775 0.00657001 0)
(-0.0021084 0.0283018 0)
(-0.00196999 0.021679 0)
(-0.00201519 0.0147348 0)
(-0.00212054 0.00748598 0)
(1.03551 0.111843 0)
(0.896432 -0.203827 0)
(0.698651 -0.303412 0)
(0.52965 -0.266324 0)
(0.435464 -0.239681 0)
(0.370192 -0.152176 0)
(0.331502 -0.0842552 0)
(0.270742 0.0371187 0)
(0.261193 0.205319 0)
(-0.0922883 0.0878256 0)
(-0.227172 0.0867615 0)
(-0.170775 0.223073 0)
(0.0389931 0.133352 0)
(0.363928 -0.285739 0)
(0.61684 -0.885427 0)
(0.637835 -1.27209 0)
(0.660608 -1.60686 0)
(0.357034 -1.92538 0)
(0.195911 -2.65279 0)
(0.868075 0.125248 0)
(0.782562 -0.0832458 0)
(0.647042 -0.164464 0)
(0.552712 -0.191805 0)
(0.465439 -0.160642 0)
(0.422711 -0.129057 0)
(0.416233 -0.0660288 0)
(0.42444 0.0213697 0)
(0.507422 0.171487 0)
(0.604278 0.29304 0)
(0.650537 0.260738 0)
(0.720114 0.146297 0)
(0.834055 -0.158668 0)
(1.03533 -0.661097 0)
(1.06508 -0.929236 0)
(0.908276 -1.21458 0)
(0.771807 -1.36061 0)
(0.454497 -1.66498 0)
(0.17915 -2.3318 0)
(0.710478 0.135292 0)
(0.676331 -0.00346482 0)
(0.603847 -0.0875267 0)
(0.541659 -0.116274 0)
(0.488083 -0.123416 0)
(0.463309 -0.0972883 0)
(0.452502 -0.0611259 0)
(0.484436 -0.0310632 0)
(0.548986 0.0365381 0)
(0.697347 0.0936305 0)
(0.812617 0.0717235 0)
(1.00278 -0.0362168 0)
(1.18817 -0.192103 0)
(1.23886 -0.467374 0)
(1.15751 -0.764425 0)
(0.981854 -1.01449 0)
(0.788999 -1.15523 0)
(0.462088 -1.43418 0)
(0.147286 -2.12362 0)
(0.593477 0.128119 0)
(0.59008 0.0249375 0)
(0.55131 -0.0372928 0)
(0.518281 -0.0817468 0)
(0.488527 -0.0943797 0)
(0.474071 -0.0845999 0)
(0.483182 -0.0798376 0)
(0.511525 -0.0616062 0)
(0.562071 -0.0460678 0)
(0.677408 -0.0299612 0)
(0.789312 -0.0692651 0)
(0.92159 -0.212436 0)
(0.990025 -0.34534 0)
(1.08499 -0.566547 0)
(1.07631 -0.72674 0)
(0.968956 -0.921378 0)
(0.782253 -0.982993 0)
(0.446993 -1.16954 0)
(0.203725 -1.85379 0)
(0.515971 0.108834 0)
(0.524701 0.0349088 0)
(0.50525 -0.0148078 0)
(0.495084 -0.0585355 0)
(0.474602 -0.0813268 0)
(0.476543 -0.089214 0)
(0.487563 -0.0916166 0)
(0.511953 -0.0962464 0)
(0.56971 -0.106701 0)
(0.624122 -0.138575 0)
(0.741455 -0.152111 0)
(0.805785 -0.266764 0)
(0.847337 -0.431835 0)
(0.899699 -0.556554 0)
(0.87224 -0.679768 0)
(0.799397 -0.743206 0)
(0.598882 -0.719278 0)
(0.403945 -0.934615 0)
(0.191245 -1.57781 0)
(0.459301 0.091349 0)
(0.470095 0.0371744 0)
(0.463054 -0.00764571 0)
(0.465944 -0.0473126 0)
(0.456671 -0.0790553 0)
(0.461902 -0.0949479 0)
(0.477848 -0.107829 0)
(0.498324 -0.133975 0)
(0.551803 -0.151756 0)
(0.58739 -0.18658 0)
(0.650539 -0.245381 0)
(0.737445 -0.307412 0)
(0.761736 -0.448689 0)
(0.811845 -0.552257 0)
(0.780179 -0.629232 0)
(0.690082 -0.630545 0)
(0.474885 -0.617741 0)
(0.326958 -0.832113 0)
(0.132251 -1.39123 0)
(0.413929 0.0760438 0)
(0.42709 0.032506 0)
(0.426228 -0.00970682 0)
(0.437541 -0.0465365 0)
(0.431929 -0.0815734 0)
(0.442869 -0.102747 0)
(0.456201 -0.124825 0)
(0.476884 -0.163296 0)
(0.516707 -0.188709 0)
(0.545141 -0.224866 0)
(0.597579 -0.302312 0)
(0.634483 -0.361973 0)
(0.714622 -0.49867 0)
(0.742234 -0.548602 0)
(0.714309 -0.528975 0)
(0.622588 -0.467103 0)
(0.402612 -0.436119 0)
(0.277753 -0.671548 0)
(0.107687 -1.18784 0)
(0.375911 0.0617239 0)
(0.39023 0.0253002 0)
(0.392521 -0.0146771 0)
(0.407659 -0.0494174 0)
(0.402593 -0.0848914 0)
(0.418032 -0.113064 0)
(0.428155 -0.141799 0)
(0.445837 -0.188105 0)
(0.475016 -0.216155 0)
(0.499801 -0.260861 0)
(0.535431 -0.331651 0)
(0.575209 -0.444625 0)
(0.64364 -0.543052 0)
(0.651156 -0.53591 0)
(0.63227 -0.46905 0)
(0.519413 -0.328187 0)
(0.304433 -0.288687 0)
(0.220734 -0.553236 0)
(0.0747399 -1.06362 0)
(0.342991 0.0486317 0)
(0.356265 0.015696 0)
(0.362501 -0.0217396 0)
(0.373789 -0.0553094 0)
(0.376693 -0.0900786 0)
(0.386299 -0.123623 0)
(0.397157 -0.153358 0)
(0.409417 -0.203839 0)
(0.423724 -0.238528 0)
(0.450981 -0.282004 0)
(0.469859 -0.374045 0)
(0.507666 -0.504441 0)
(0.530558 -0.558485 0)
(0.520277 -0.537349 0)
(0.494601 -0.393663 0)
(0.348048 -0.186691 0)
(0.190992 -0.165775 0)
(0.151581 -0.502304 0)
(0.0677878 -0.916991 0)
(0.313572 0.0369458 0)
(0.325513 0.00613013 0)
(0.332852 -0.0282761 0)
(0.341952 -0.0617209 0)
(0.347021 -0.095457 0)
(0.354227 -0.130771 0)
(0.361829 -0.164596 0)
(0.3734 -0.210947 0)
(0.372361 -0.252597 0)
(0.401885 -0.29851 0)
(0.400773 -0.396085 0)
(0.396491 -0.506434 0)
(0.365048 -0.546721 0)
(0.342774 -0.493198 0)
(0.28703 -0.256502 0)
(0.156978 -0.0867481 0)
(0.128592 -0.101215 0)
(0.126416 -0.462181 0)
(0.0443635 -0.84665 0)
(0.285981 0.0265614 0)
(0.296671 -0.00274409 0)
(0.303734 -0.0350229 0)
(0.311653 -0.0674569 0)
(0.316085 -0.100942 0)
(0.322958 -0.135422 0)
(0.324883 -0.17285 0)
(0.335216 -0.211243 0)
(0.328074 -0.2625 0)
(0.340814 -0.304601 0)
(0.336484 -0.37705 0)
(0.287523 -0.473204 0)
(0.234367 -0.512973 0)
(0.171342 -0.420207 0)
(0.131518 -0.175383 0)
(0.0720881 -0.0604184 0)
(0.121732 -0.103983 0)
(0.133243 -0.437719 0)
(0.0612073 -0.765943 0)
(0.260126 0.0176048 0)
(0.269268 -0.0105155 0)
(0.275598 -0.0410054 0)
(0.28206 -0.0724853 0)
(0.286128 -0.105092 0)
(0.290065 -0.138901 0)
(0.292373 -0.175579 0)
(0.293189 -0.213296 0)
(0.293626 -0.256527 0)
(0.282302 -0.302053 0)
(0.276077 -0.357582 0)
(0.228874 -0.421161 0)
(0.16278 -0.452668 0)
(0.0873294 -0.354773 0)
(0.082176 -0.154356 0)
(0.0587801 -0.0864755 0)
(0.154243 -0.14571 0)
(0.144087 -0.395134 0)
(0.0721944 -0.669208 0)
(0.235363 0.00995099 0)
(0.243148 -0.0170904 0)
(0.248521 -0.0461703 0)
(0.253574 -0.0764885 0)
(0.256718 -0.107994 0)
(0.258872 -0.140868 0)
(0.259676 -0.175897 0)
(0.257697 -0.211629 0)
(0.255699 -0.251893 0)
(0.243285 -0.289903 0)
(0.23167 -0.333555 0)
(0.196303 -0.375538 0)
(0.142146 -0.398092 0)
(0.0673801 -0.325488 0)
(0.0931704 -0.161456 0)
(0.0942322 -0.129094 0)
(0.16803 -0.1741 0)
(0.13882 -0.352096 0)
(0.0772507 -0.574038 0)
(0.211713 0.00360512 0)
(0.218079 -0.0224393 0)
(0.222433 -0.0502932 0)
(0.226193 -0.0794575 0)
(0.228273 -0.109736 0)
(0.228869 -0.141432 0)
(0.228658 -0.17488 0)
(0.224175 -0.208788 0)
(0.221617 -0.245671 0)
(0.208595 -0.279873 0)
(0.200005 -0.32092 0)
(0.179781 -0.344988 0)
(0.153088 -0.35033 0)
(0.0956041 -0.296746 0)
(0.126009 -0.193217 0)
(0.12566 -0.157209 0)
(0.154451 -0.183891 0)
(0.117831 -0.322248 0)
(0.0746188 -0.486988 0)
(0.188985 -0.00155847 0)
(0.194054 -0.026719 0)
(0.197373 -0.0533887 0)
(0.199908 -0.08141 0)
(0.200846 -0.110485 0)
(0.200423 -0.140882 0)
(0.198621 -0.172612 0)
(0.193455 -0.204827 0)
(0.190844 -0.240286 0)
(0.178345 -0.27124 0)
(0.173822 -0.31028 0)
(0.162235 -0.334008 0)
(0.164725 -0.33473 0)
(0.142088 -0.289465 0)
(0.151919 -0.193641 0)
(0.13482 -0.158147 0)
(0.127338 -0.166451 0)
(0.0897867 -0.288714 0)
(0.0652064 -0.419414 0)
(0.167107 -0.00565955 0)
(0.170948 -0.0299372 0)
(0.173271 -0.0555568 0)
(0.174643 -0.0824306 0)
(0.174664 -0.110309 0)
(0.173005 -0.139362 0)
(0.170172 -0.16957 0)
(0.164735 -0.200975 0)
(0.15956 -0.234075 0)
(0.150241 -0.264363 0)
(0.144264 -0.307408 0)
(0.146215 -0.335048 0)
(0.160446 -0.331755 0)
(0.147968 -0.278898 0)
(0.15543 -0.18305 0)
(0.120446 -0.135271 0)
(0.0998793 -0.13618 0)
(0.0776373 -0.262354 0)
(0.0614163 -0.341872 0)
(0.145998 -0.00875577 0)
(0.148752 -0.0322251 0)
(0.150122 -0.0568506 0)
(0.150492 -0.0826369 0)
(0.149494 -0.109251 0)
(0.146996 -0.137051 0)
(0.143102 -0.165614 0)
(0.136853 -0.195593 0)
(0.12949 -0.227156 0)
(0.121432 -0.259139 0)
(0.112206 -0.302785 0)
(0.105849 -0.352335 0)
(0.112268 -0.351555 0)
(0.104409 -0.279582 0)
(0.105241 -0.170959 0)
(0.0464304 -0.108109 0)
(0.0477856 -0.122977 0)
(0.0523083 -0.266156 0)
(0.0510958 -0.301565 0)
(0.125626 -0.0109053 0)
(0.127331 -0.0336053 0)
(0.12785 -0.0573029 0)
(0.127357 -0.0820137 0)
(0.125542 -0.107451 0)
(0.122243 -0.133729 0)
(0.117169 -0.160906 0)
(0.10992 -0.188663 0)
(0.0997209 -0.219556 0)
(0.0868956 -0.247737 0)
(0.0692496 -0.291685 0)
(0.0348637 -0.333605 0)
(-0.00324471 -0.330905 0)
(-0.0446735 -0.248927 0)
(-0.0189804 -0.131982 0)
(-0.060597 -0.0888348 0)
(0.02903 -0.144284 0)
(0.0424379 -0.272539 0)
(0.039038 -0.247457 0)
(0.105936 -0.0122344 0)
(0.106738 -0.0342022 0)
(0.106473 -0.0570449 0)
(0.105238 -0.0807321 0)
(0.102814 -0.105022 0)
(0.0989583 -0.129882 0)
(0.093396 -0.15532 0)
(0.0850429 -0.18041 0)
(0.0754387 -0.207594 0)
(0.056933 -0.230959 0)
(0.0360817 -0.262637 0)
(-0.0136865 -0.286638 0)
(-0.0519794 -0.289437 0)
(-0.0954462 -0.234146 0)
(-0.0657724 -0.143742 0)
(-0.07689 -0.131095 0)
(0.0412026 -0.219951 0)
(0.00819157 -0.259574 0)
(0.021245 -0.229499 0)
(0.0868391 -0.0127367 0)
(0.0867941 -0.0340466 0)
(0.0858655 -0.056107 0)
(0.0840238 -0.078856 0)
(0.0811807 -0.102056 0)
(0.0769488 -0.125544 0)
(0.0715989 -0.149158 0)
(0.062764 -0.17174 0)
(0.0548918 -0.195156 0)
(0.0346086 -0.211556 0)
(0.0197345 -0.229834 0)
(-0.0167517 -0.247104 0)
(-0.0558574 -0.252467 0)
(-0.0932708 -0.230232 0)
(-0.0513294 -0.16971 0)
(-0.0244787 -0.189179 0)
(0.0419939 -0.233705 0)
(-0.00250708 -0.244676 0)
(0.0198071 -0.22094 0)
(0.0683563 -0.0126039 0)
(0.0675437 -0.0333361 0)
(0.0660123 -0.0547259 0)
(0.063735 -0.0767541 0)
(0.0606996 -0.0990195 0)
(0.0564881 -0.121329 0)
(0.0516328 -0.143385 0)
(0.0434146 -0.163602 0)
(0.0371112 -0.183342 0)
(0.0192447 -0.196541 0)
(0.015524 -0.212487 0)
(-0.0100954 -0.226554 0)
(-0.0206814 -0.22645 0)
(-0.0550405 -0.244802 0)
(0.00349646 -0.21854 0)
(0.0160985 -0.214481 0)
(0.0458001 -0.233745 0)
(-0.00448108 -0.243924 0)
(0.0255747 -0.215967 0)
(0.050288 -0.0115446 0)
(0.0487289 -0.0318009 0)
(0.0466258 -0.0526874 0)
(0.0439675 -0.0740549 0)
(0.0406984 -0.0955827 0)
(0.0364271 -0.116861 0)
(0.0320568 -0.137536 0)
(0.0234815 -0.156022 0)
(0.0204581 -0.174686 0)
(0.0102378 -0.190504 0)
(0.0155461 -0.204305 0)
(-0.00182863 -0.22055 0)
(0.0263049 -0.215394 0)
(0.0129395 -0.248002 0)
(0.0450991 -0.236217 0)
(0.0383211 -0.226474 0)
(0.0628609 -0.224026 0)
(0.0149314 -0.223666 0)
(0.0341655 -0.202726 0)
(0.0327017 -0.0103863 0)
(0.030389 -0.0302533 0)
(0.0277438 -0.0506862 0)
(0.0248956 -0.0714242 0)
(0.0213466 -0.0921835 0)
(0.0171435 -0.11265 0)
(0.0144938 -0.133168 0)
(0.0116587 -0.152616 0)
(0.0161976 -0.171988 0)
(0.0112109 -0.18898 0)
(0.0273394 -0.200805 0)
(0.0227428 -0.229812 0)
(0.0571565 -0.231673 0)
(0.0543327 -0.25369 0)
(0.0686668 -0.240308 0)
(0.0571984 -0.23067 0)
(0.0738168 -0.215713 0)
(0.0294471 -0.213477 0)
(0.0361801 -0.17582 0)
(0.0171094 -0.00674466 0)
(0.0134204 -0.0266015 0)
(0.00959907 -0.0472054 0)
(0.006232 -0.068399 0)
(0.00454318 -0.0900332 0)
(0.00423329 -0.112079 0)
(0.00719309 -0.134428 0)
(0.00852471 -0.157458 0)
(0.0198994 -0.178143 0)
(0.0214377 -0.205033 0)
(0.0502181 -0.218844 0)
(0.0470698 -0.250566 0)
(0.0745887 -0.248998 0)
(0.0643661 -0.25503 0)
(0.0755348 -0.23952 0)
(0.0599044 -0.225315 0)
(0.0657619 -0.194085 0)
(0.01655 -0.181589 0)
(0.0276483 -0.146577 0)
(-0.00251756 -0.00528344 0)
(-0.002912 -0.0250431 0)
(-0.00285767 -0.0461158 0)
(-0.00221062 -0.068323 0)
(-0.000556163 -0.0914598 0)
(0.00177111 -0.115611 0)
(0.00704395 -0.139655 0)
(0.011055 -0.166551 0)
(0.0253662 -0.189241 0)
(0.027638 -0.219403 0)
(0.0553423 -0.233562 0)
(0.0508137 -0.256911 0)
(0.074687 -0.255042 0)
(0.0648029 -0.253632 0)
(0.0758449 -0.234105 0)
(0.0550724 -0.215461 0)
(0.0604554 -0.173855 0)
(0.0124669 -0.161926 0)
(0.0296571 -0.122444 0)
)
;

boundaryField
{
    leftWall
    {
        type            calculated;
        value           nonuniform 0();
    }
    rightWall
    {
        type            calculated;
        value           uniform (0 0 0);
    }
    lowerWall
    {
        type            calculated;
        value           nonuniform 0();
    }
    atmosphere
    {
        type            calculated;
        value           nonuniform List<vector> 
23
(
(-0.0021084 0.0283229 0)
(-0.00196999 0.0216977 0)
(-0.00201519 0.0147497 0)
(-0.00212054 0.00749427 0)
(-0.00251756 -0.00528945 0)
(-0.002912 -0.0250646 0)
(-0.00285767 -0.0461467 0)
(-0.00221062 -0.0683637 0)
(-0.000556164 -0.0915104 0)
(0.00177111 -0.115684 0)
(0.00704395 -0.139757 0)
(0.011055 -0.166693 0)
(0.0253662 -0.189415 0)
(0.027638 -0.219607 0)
(0.0553423 -0.233773 0)
(0.0508137 -0.256965 0)
(0.074687 -0.255062 0)
(0.0648029 -0.253541 0)
(0.075845 -0.233964 0)
(0.0550724 -0.215259 0)
(0.0604554 -0.173553 0)
(0.0124669 -0.161561 0)
(0.0296571 -0.122133 0)
)
;
    }
    defaultFaces
    {
        type            empty;
    }
    procBoundary3to1
    {
        type            processor;
        value           nonuniform List<vector> 
23
(
(1.08474 0.80971 0)
(1.1137 0.748109 0)
(1.12362 0.597401 0)
(1.08853 0.487489 0)
(1.09772 0.0702124 0)
(0.944541 -0.385672 0)
(0.678917 -0.444324 0)
(0.481601 -0.427315 0)
(0.374861 -0.292234 0)
(0.308899 -0.220211 0)
(0.227004 -0.169605 0)
(0.174274 -0.0749689 0)
(-0.328887 -0.061429 0)
(-0.648247 -0.0580155 0)
(-0.635014 0.209462 0)
(-0.511835 0.331049 0)
(-0.495934 0.219044 0)
(-0.24079 -0.34431 0)
(-0.050819 -0.669661 0)
(0.0308107 -1.20792 0)
(0.276552 -1.75629 0)
(0.115206 -2.28019 0)
(-0.0152989 -2.85782 0)
)
;
    }
    procBoundary3to2
    {
        type            processor;
        value           nonuniform List<vector> 
25
(
(0.746884 0.69938 0)
(0.539462 0.555082 0)
(0.4398 0.417931 0)
(0.400831 0.322853 0)
(0.379112 0.259086 0)
(0.359362 0.214407 0)
(0.339852 0.178727 0)
(0.318278 0.151149 0)
(0.295363 0.130489 0)
(0.273561 0.112725 0)
(0.251829 0.0983555 0)
(0.231024 0.0859458 0)
(0.210817 0.075522 0)
(0.191186 0.0666516 0)
(0.172092 0.0592084 0)
(0.153533 0.0530513 0)
(0.135468 0.0480482 0)
(0.117907 0.0440856 0)
(0.100827 0.041139 0)
(0.0841359 0.0390678 0)
(0.0679633 0.0376533 0)
(0.0528209 0.0379999 0)
(0.0372124 0.0382863 0)
(0.022078 0.0398755 0)
(-0.00231094 0.0382602 0)
)
;
    }
}


// ************************************************************************* //
