/*--------------------------------*- C++ -*----------------------------------*\
| =========                 |                                                 |
| \\      /  F ield         | OpenFOAM: The Open Source CFD Toolbox           |
|  \\    /   O peration     | Version:  2.4.0                                 |
|   \\  /    A nd           | Web:      www.OpenFOAM.org                      |
|    \\/     M anipulation  |                                                 |
\*---------------------------------------------------------------------------*/
FoamFile
{
    version     2.0;
    format      ascii;
    class       volVectorField;
    location    "0.85";
    object      U.air;
}
// * * * * * * * * * * * * * * * * * * * * * * * * * * * * * * * * * * * * * //

dimensions      [0 1 -1 0 0 0 0];

internalField   nonuniform List<vector> 
575
(
(0.810467 0.677766 0)
(0.895664 0.661801 0)
(0.93199 0.554223 0)
(0.980796 0.470438 0)
(0.610698 0.530396 0)
(0.700564 0.508141 0)
(0.750122 0.424606 0)
(0.819777 0.346581 0)
(0.514304 0.393291 0)
(0.58454 0.371812 0)
(0.628614 0.316327 0)
(0.680669 0.264189 0)
(0.454429 0.298629 0)
(0.501383 0.280075 0)
(0.533192 0.243598 0)
(0.567573 0.208454 0)
(0.414505 0.234194 0)
(0.44574 0.215854 0)
(0.468728 0.190012 0)
(0.492532 0.164004 0)
(0.385074 0.190762 0)
(0.406987 0.172701 0)
(0.423744 0.152361 0)
(0.440611 0.131168 0)
(0.360013 0.156231 0)
(0.375553 0.139988 0)
(0.387478 0.122977 0)
(0.399484 0.106782 0)
(0.333434 0.132009 0)
(0.345376 0.117059 0)
(0.354229 0.102748 0)
(0.363605 0.087624 0)
(0.30826 0.111774 0)
(0.317367 0.0989868 0)
(0.324974 0.0853383 0)
(0.332238 0.0719758 0)
(0.28394 0.0958197 0)
(0.291622 0.0836096 0)
(0.298012 0.0714331 0)
(0.304043 0.0585467 0)
(0.260848 0.0820822 0)
(0.267228 0.0707859 0)
(0.272716 0.0591152 0)
(0.277948 0.0470521 0)
(0.238653 0.0704347 0)
(0.244103 0.0596669 0)
(0.248763 0.0486737 0)
(0.253292 0.0370909 0)
(0.217329 0.0605051 0)
(0.22192 0.0502621 0)
(0.225844 0.0397435 0)
(0.229746 0.0287157 0)
(0.196701 0.0520977 0)
(0.200559 0.0422784 0)
(0.203823 0.0322019 0)
(0.207118 0.0216392 0)
(0.176704 0.0450796 0)
(0.179898 0.0356234 0)
(0.182571 0.025914 0)
(0.185318 0.0157903 0)
(0.157333 0.0393045 0)
(0.159908 0.0301767 0)
(0.162059 0.0207901 0)
(0.164293 0.0110741 0)
(0.138525 0.0346668 0)
(0.140531 0.0258209 0)
(0.142205 0.0167399 0)
(0.143939 0.00737131 0)
(0.120255 0.0310644 0)
(0.121744 0.0224812 0)
(0.122984 0.0136879 0)
(0.124252 0.00463871 0)
(0.102508 0.0284417 0)
(0.103521 0.0200959 0)
(0.104345 0.0115607 0)
(0.105173 0.00279672 0)
(0.0852065 0.0267378 0)
(0.0858053 0.0186163 0)
(0.0862413 0.0103171 0)
(0.0866395 0.00181014 0)
(0.068408 0.0257049 0)
(0.0685891 0.017863 0)
(0.0686608 0.00982863 0)
(0.0686878 0.00157446 0)
(0.0522859 0.0260121 0)
(0.0519248 0.0181922 0)
(0.0515366 0.0102672 0)
(0.0511051 0.00220504 0)
(0.0366276 0.0267888 0)
(0.0359926 0.0191722 0)
(0.0352301 0.0113421 0)
(0.0343679 0.00331365 0)
(0.0214409 0.0289465 0)
(0.0208209 0.0217319 0)
(0.0200023 0.0142616 0)
(0.0189776 0.00657002 0)
(-0.00210841 0.0283019 0)
(-0.00197 0.021679 0)
(-0.00201519 0.0147349 0)
(-0.00212054 0.007486 0)
(1.03551 0.111843 0)
(0.896432 -0.203827 0)
(0.698652 -0.303412 0)
(0.529651 -0.266325 0)
(0.435465 -0.239681 0)
(0.370192 -0.152176 0)
(0.331503 -0.0842553 0)
(0.270742 0.0371188 0)
(0.261193 0.205319 0)
(-0.092288 0.0878254 0)
(-0.227172 0.0867613 0)
(-0.170775 0.223073 0)
(0.0389934 0.133351 0)
(0.363928 -0.285739 0)
(0.616841 -0.885429 0)
(0.637832 -1.27209 0)
(0.660604 -1.60686 0)
(0.357033 -1.92537 0)
(0.195911 -2.65279 0)
(0.868075 0.125248 0)
(0.782562 -0.0832458 0)
(0.647043 -0.164464 0)
(0.552713 -0.191806 0)
(0.46544 -0.160642 0)
(0.422711 -0.129057 0)
(0.416234 -0.0660289 0)
(0.42444 0.0213697 0)
(0.507422 0.171488 0)
(0.604278 0.29304 0)
(0.650537 0.260738 0)
(0.720113 0.146297 0)
(0.834054 -0.158668 0)
(1.03533 -0.661096 0)
(1.06507 -0.929236 0)
(0.908273 -1.21458 0)
(0.771804 -1.36061 0)
(0.454496 -1.66498 0)
(0.17915 -2.3318 0)
(0.710479 0.135292 0)
(0.676331 -0.00346482 0)
(0.603848 -0.0875268 0)
(0.54166 -0.116274 0)
(0.488084 -0.123416 0)
(0.46331 -0.0972885 0)
(0.452503 -0.061126 0)
(0.484437 -0.0310633 0)
(0.548987 0.0365381 0)
(0.697347 0.0936305 0)
(0.812617 0.0717235 0)
(1.00278 -0.0362168 0)
(1.18817 -0.192102 0)
(1.23886 -0.467373 0)
(1.1575 -0.764424 0)
(0.981853 -1.01449 0)
(0.788997 -1.15523 0)
(0.462087 -1.43417 0)
(0.147286 -2.12362 0)
(0.593477 0.128119 0)
(0.590081 0.0249375 0)
(0.55131 -0.0372928 0)
(0.518282 -0.0817469 0)
(0.488528 -0.0943799 0)
(0.474072 -0.0846001 0)
(0.483183 -0.0798378 0)
(0.511527 -0.0616063 0)
(0.562072 -0.0460678 0)
(0.677409 -0.0299613 0)
(0.789312 -0.0692651 0)
(0.92159 -0.212436 0)
(0.990025 -0.34534 0)
(1.08499 -0.566546 0)
(1.07631 -0.72674 0)
(0.968955 -0.921377 0)
(0.782251 -0.982993 0)
(0.446992 -1.16954 0)
(0.203724 -1.85378 0)
(0.515971 0.108834 0)
(0.524701 0.0349088 0)
(0.50525 -0.0148078 0)
(0.495085 -0.0585356 0)
(0.474603 -0.0813269 0)
(0.476544 -0.0892142 0)
(0.487564 -0.0916168 0)
(0.511954 -0.0962466 0)
(0.569711 -0.106701 0)
(0.624123 -0.138575 0)
(0.741456 -0.152111 0)
(0.805785 -0.266764 0)
(0.847337 -0.431835 0)
(0.899698 -0.556554 0)
(0.872239 -0.679768 0)
(0.799396 -0.743206 0)
(0.598881 -0.719277 0)
(0.403944 -0.934614 0)
(0.191245 -1.57781 0)
(0.459301 0.0913491 0)
(0.470095 0.0371744 0)
(0.463055 -0.00764572 0)
(0.465945 -0.0473127 0)
(0.456672 -0.0790555 0)
(0.461903 -0.0949481 0)
(0.477849 -0.107829 0)
(0.498325 -0.133975 0)
(0.551804 -0.151756 0)
(0.587391 -0.18658 0)
(0.650539 -0.245382 0)
(0.737445 -0.307412 0)
(0.761736 -0.448689 0)
(0.811845 -0.552256 0)
(0.780178 -0.629231 0)
(0.690081 -0.630544 0)
(0.474884 -0.61774 0)
(0.326958 -0.832111 0)
(0.132251 -1.39122 0)
(0.413929 0.0760438 0)
(0.42709 0.032506 0)
(0.426228 -0.00970683 0)
(0.437541 -0.0465366 0)
(0.43193 -0.0815735 0)
(0.44287 -0.102747 0)
(0.456202 -0.124825 0)
(0.476885 -0.163296 0)
(0.516708 -0.188709 0)
(0.545142 -0.224866 0)
(0.597579 -0.302312 0)
(0.634483 -0.361973 0)
(0.714621 -0.49867 0)
(0.742234 -0.548602 0)
(0.714309 -0.528975 0)
(0.622587 -0.467103 0)
(0.402611 -0.436119 0)
(0.277752 -0.671546 0)
(0.107687 -1.18784 0)
(0.375911 0.061724 0)
(0.390231 0.0253002 0)
(0.392522 -0.0146772 0)
(0.40766 -0.0494175 0)
(0.402594 -0.0848916 0)
(0.418033 -0.113064 0)
(0.428156 -0.141799 0)
(0.445838 -0.188105 0)
(0.475017 -0.216155 0)
(0.499801 -0.260861 0)
(0.535432 -0.331651 0)
(0.575209 -0.444625 0)
(0.64364 -0.543052 0)
(0.651155 -0.53591 0)
(0.632269 -0.469049 0)
(0.519413 -0.328187 0)
(0.304432 -0.288686 0)
(0.220734 -0.553235 0)
(0.0747398 -1.06362 0)
(0.342992 0.0486318 0)
(0.356266 0.015696 0)
(0.362502 -0.0217396 0)
(0.37379 -0.0553095 0)
(0.376694 -0.0900788 0)
(0.3863 -0.123623 0)
(0.397158 -0.153359 0)
(0.409417 -0.203839 0)
(0.423724 -0.238529 0)
(0.450981 -0.282004 0)
(0.469859 -0.374045 0)
(0.507666 -0.504441 0)
(0.530557 -0.558484 0)
(0.520276 -0.537348 0)
(0.4946 -0.393662 0)
(0.348047 -0.186691 0)
(0.190991 -0.165775 0)
(0.151581 -0.502303 0)
(0.0677877 -0.91699 0)
(0.313573 0.0369459 0)
(0.325514 0.00613015 0)
(0.332853 -0.0282762 0)
(0.341953 -0.0617211 0)
(0.347022 -0.0954573 0)
(0.354228 -0.130771 0)
(0.361829 -0.164596 0)
(0.3734 -0.210947 0)
(0.372361 -0.252597 0)
(0.401885 -0.29851 0)
(0.400773 -0.396085 0)
(0.396491 -0.506434 0)
(0.365048 -0.546721 0)
(0.342774 -0.493197 0)
(0.287029 -0.256501 0)
(0.156977 -0.0867474 0)
(0.128591 -0.101214 0)
(0.126416 -0.462181 0)
(0.0443634 -0.846649 0)
(0.285982 0.0265615 0)
(0.296672 -0.0027441 0)
(0.303735 -0.035023 0)
(0.311654 -0.0674571 0)
(0.316086 -0.100943 0)
(0.322959 -0.135422 0)
(0.324884 -0.172851 0)
(0.335217 -0.211243 0)
(0.328074 -0.2625 0)
(0.340814 -0.304601 0)
(0.336484 -0.37705 0)
(0.287523 -0.473204 0)
(0.234366 -0.512972 0)
(0.171342 -0.420206 0)
(0.131514 -0.175378 0)
(0.072082 -0.0604122 0)
(0.12173 -0.103979 0)
(0.133242 -0.437718 0)
(0.0612072 -0.765942 0)
(0.260127 0.0176049 0)
(0.269269 -0.0105155 0)
(0.275599 -0.0410056 0)
(0.282061 -0.0724856 0)
(0.286129 -0.105092 0)
(0.290065 -0.138901 0)
(0.292374 -0.17558 0)
(0.29319 -0.213296 0)
(0.293626 -0.256527 0)
(0.282302 -0.302053 0)
(0.276077 -0.357583 0)
(0.228874 -0.421161 0)
(0.16278 -0.452667 0)
(0.0873291 -0.354772 0)
(0.0821726 -0.154351 0)
(0.0587748 -0.0864685 0)
(0.15424 -0.145702 0)
(0.144087 -0.395132 0)
(0.0721943 -0.669207 0)
(0.235364 0.00995103 0)
(0.243149 -0.0170905 0)
(0.248522 -0.0461704 0)
(0.253575 -0.0764887 0)
(0.256718 -0.107994 0)
(0.258873 -0.140869 0)
(0.259677 -0.175897 0)
(0.257697 -0.211629 0)
(0.255699 -0.251894 0)
(0.243286 -0.289904 0)
(0.23167 -0.333555 0)
(0.196303 -0.375538 0)
(0.142146 -0.398091 0)
(0.06738 -0.325487 0)
(0.0931701 -0.161456 0)
(0.09423 -0.12909 0)
(0.168028 -0.174096 0)
(0.13882 -0.352094 0)
(0.0772506 -0.574038 0)
(0.211714 0.00360514 0)
(0.21808 -0.0224393 0)
(0.222433 -0.0502934 0)
(0.226194 -0.0794577 0)
(0.228274 -0.109737 0)
(0.22887 -0.141433 0)
(0.228658 -0.17488 0)
(0.224175 -0.208788 0)
(0.221617 -0.245672 0)
(0.208595 -0.279873 0)
(0.200006 -0.32092 0)
(0.179781 -0.344989 0)
(0.153088 -0.35033 0)
(0.095604 -0.296746 0)
(0.126009 -0.193216 0)
(0.12566 -0.157209 0)
(0.154451 -0.18389 0)
(0.11783 -0.322248 0)
(0.0746187 -0.486987 0)
(0.188986 -0.00155847 0)
(0.194055 -0.0267191 0)
(0.197373 -0.0533889 0)
(0.199908 -0.0814102 0)
(0.200846 -0.110485 0)
(0.200424 -0.140882 0)
(0.198621 -0.172612 0)
(0.193455 -0.204827 0)
(0.190844 -0.240287 0)
(0.178345 -0.27124 0)
(0.173822 -0.310281 0)
(0.162235 -0.334009 0)
(0.164725 -0.33473 0)
(0.142088 -0.289464 0)
(0.151918 -0.19364 0)
(0.13482 -0.158147 0)
(0.127338 -0.16645 0)
(0.0897865 -0.288714 0)
(0.0652064 -0.419414 0)
(0.167108 -0.00565957 0)
(0.170949 -0.0299373 0)
(0.173271 -0.055557 0)
(0.174644 -0.0824309 0)
(0.174664 -0.110309 0)
(0.173006 -0.139363 0)
(0.170172 -0.16957 0)
(0.164735 -0.200975 0)
(0.15956 -0.234075 0)
(0.150241 -0.264363 0)
(0.144264 -0.307409 0)
(0.146215 -0.335048 0)
(0.160446 -0.331755 0)
(0.147968 -0.278898 0)
(0.15543 -0.18305 0)
(0.120446 -0.135271 0)
(0.0998791 -0.13618 0)
(0.0776373 -0.262354 0)
(0.0614163 -0.341872 0)
(0.145998 -0.0087558 0)
(0.148753 -0.0322252 0)
(0.150122 -0.0568507 0)
(0.150492 -0.0826371 0)
(0.149494 -0.109251 0)
(0.146996 -0.137051 0)
(0.143103 -0.165614 0)
(0.136854 -0.195593 0)
(0.12949 -0.227156 0)
(0.121432 -0.259139 0)
(0.112206 -0.302785 0)
(0.105849 -0.352335 0)
(0.112268 -0.351555 0)
(0.104409 -0.279581 0)
(0.105241 -0.170959 0)
(0.0464303 -0.108109 0)
(0.0477855 -0.122976 0)
(0.0523082 -0.266156 0)
(0.0510958 -0.301564 0)
(0.125626 -0.0109054 0)
(0.127332 -0.0336054 0)
(0.127851 -0.057303 0)
(0.127358 -0.0820138 0)
(0.125542 -0.107451 0)
(0.122243 -0.13373 0)
(0.117169 -0.160906 0)
(0.10992 -0.188663 0)
(0.099721 -0.219556 0)
(0.0868957 -0.247737 0)
(0.0692496 -0.291685 0)
(0.0348637 -0.333605 0)
(-0.0032447 -0.330904 0)
(-0.0446734 -0.248927 0)
(-0.0189804 -0.131981 0)
(-0.0605969 -0.0888345 0)
(0.02903 -0.144284 0)
(0.0424379 -0.272539 0)
(0.039038 -0.247457 0)
(0.105936 -0.0122345 0)
(0.106738 -0.0342023 0)
(0.106473 -0.057045 0)
(0.105238 -0.0807322 0)
(0.102815 -0.105022 0)
(0.0989584 -0.129883 0)
(0.0933961 -0.15532 0)
(0.085043 -0.18041 0)
(0.0754388 -0.207594 0)
(0.056933 -0.230959 0)
(0.0360817 -0.262637 0)
(-0.0136865 -0.286638 0)
(-0.0519794 -0.289437 0)
(-0.095446 -0.234146 0)
(-0.0657723 -0.143741 0)
(-0.0768899 -0.131095 0)
(0.0412026 -0.219951 0)
(0.00819157 -0.259574 0)
(0.021245 -0.229499 0)
(0.0868393 -0.0127368 0)
(0.0867943 -0.0340467 0)
(0.0858656 -0.0561071 0)
(0.0840239 -0.0788561 0)
(0.0811808 -0.102056 0)
(0.0769489 -0.125544 0)
(0.071599 -0.149158 0)
(0.0627641 -0.17174 0)
(0.0548919 -0.195156 0)
(0.0346086 -0.211556 0)
(0.0197345 -0.229834 0)
(-0.0167517 -0.247104 0)
(-0.0558574 -0.252467 0)
(-0.0932708 -0.230232 0)
(-0.0513293 -0.16971 0)
(-0.0244787 -0.189179 0)
(0.0419939 -0.233705 0)
(-0.00250708 -0.244676 0)
(0.0198071 -0.22094 0)
(0.0683564 -0.012604 0)
(0.0675438 -0.0333362 0)
(0.0660124 -0.0547259 0)
(0.063735 -0.0767542 0)
(0.0606997 -0.0990196 0)
(0.0564881 -0.121329 0)
(0.0516328 -0.143385 0)
(0.0434147 -0.163602 0)
(0.0371112 -0.183343 0)
(0.0192447 -0.196541 0)
(0.015524 -0.212487 0)
(-0.0100954 -0.226554 0)
(-0.0206814 -0.22645 0)
(-0.0550405 -0.244802 0)
(0.00349646 -0.21854 0)
(0.0160985 -0.214481 0)
(0.0458001 -0.233745 0)
(-0.00448108 -0.243924 0)
(0.0255747 -0.215967 0)
(0.0502881 -0.0115446 0)
(0.048729 -0.0318009 0)
(0.0466259 -0.0526874 0)
(0.0439675 -0.074055 0)
(0.0406985 -0.0955827 0)
(0.0364272 -0.116861 0)
(0.0320569 -0.137536 0)
(0.0234815 -0.156022 0)
(0.0204581 -0.174686 0)
(0.0102378 -0.190504 0)
(0.0155461 -0.204305 0)
(-0.00182863 -0.22055 0)
(0.0263049 -0.215394 0)
(0.0129395 -0.248002 0)
(0.0450991 -0.236217 0)
(0.0383211 -0.226474 0)
(0.0628609 -0.224026 0)
(0.0149314 -0.223666 0)
(0.0341655 -0.202726 0)
(0.0327018 -0.0103863 0)
(0.0303891 -0.0302534 0)
(0.0277438 -0.0506862 0)
(0.0248956 -0.0714242 0)
(0.0213466 -0.0921836 0)
(0.0171435 -0.11265 0)
(0.0144938 -0.133168 0)
(0.0116587 -0.152616 0)
(0.0161977 -0.171988 0)
(0.0112109 -0.18898 0)
(0.0273394 -0.200805 0)
(0.0227428 -0.229812 0)
(0.0571565 -0.231673 0)
(0.0543327 -0.25369 0)
(0.0686668 -0.240308 0)
(0.0571983 -0.23067 0)
(0.0738168 -0.215713 0)
(0.0294471 -0.213477 0)
(0.03618 -0.17582 0)
(0.0171095 -0.00674467 0)
(0.0134205 -0.0266015 0)
(0.00959908 -0.0472054 0)
(0.00623201 -0.068399 0)
(0.00454318 -0.0900333 0)
(0.0042333 -0.11208 0)
(0.00719309 -0.134428 0)
(0.00852471 -0.157458 0)
(0.0198994 -0.178143 0)
(0.0214377 -0.205033 0)
(0.0502181 -0.218844 0)
(0.0470698 -0.250566 0)
(0.0745887 -0.248998 0)
(0.0643661 -0.25503 0)
(0.0755348 -0.23952 0)
(0.0599044 -0.225315 0)
(0.0657619 -0.194085 0)
(0.01655 -0.181589 0)
(0.0276483 -0.146577 0)
(-0.00251756 -0.00528344 0)
(-0.002912 -0.0250431 0)
(-0.00285767 -0.0461158 0)
(-0.00221062 -0.068323 0)
(-0.000556164 -0.0914599 0)
(0.00177111 -0.115611 0)
(0.00704395 -0.139655 0)
(0.011055 -0.166551 0)
(0.0253662 -0.189241 0)
(0.027638 -0.219403 0)
(0.0553423 -0.233562 0)
(0.0508137 -0.256911 0)
(0.074687 -0.255042 0)
(0.0648029 -0.253632 0)
(0.075845 -0.234105 0)
(0.0550724 -0.215461 0)
(0.0604554 -0.173855 0)
(0.0124669 -0.161926 0)
(0.0296571 -0.122444 0)
)
;

boundaryField
{
    leftWall
    {
        type            fixedValue;
        value           nonuniform 0();
    }
    rightWall
    {
        type            fixedValue;
        value           uniform (0 0 0);
    }
    lowerWall
    {
        type            fixedValue;
        value           nonuniform 0();
    }
    atmosphere
    {
        type            fluxCorrectedVelocity;
        value           nonuniform List<vector> 
23
(
(-0.00210841 0.028323 0)
(-0.00197 0.0216978 0)
(-0.00201519 0.0147497 0)
(-0.00212054 0.00749428 0)
(-0.00251756 -0.00528945 0)
(-0.002912 -0.0250646 0)
(-0.00285767 -0.0461467 0)
(-0.00221062 -0.0683637 0)
(-0.000556164 -0.0915104 0)
(0.00177111 -0.115684 0)
(0.00704395 -0.139757 0)
(0.011055 -0.166693 0)
(0.0253662 -0.189415 0)
(0.027638 -0.219607 0)
(0.0553423 -0.233773 0)
(0.0508137 -0.256965 0)
(0.074687 -0.255062 0)
(0.0648029 -0.253541 0)
(0.075845 -0.233964 0)
(0.0550724 -0.215259 0)
(0.0604554 -0.173553 0)
(0.0124669 -0.161561 0)
(0.0296571 -0.122133 0)
)
;
    }
    defaultFaces
    {
        type            empty;
    }
    procBoundary3to1
    {
        type            processor;
        value           nonuniform List<vector> 
23
(
(1.08474 0.809708 0)
(1.1137 0.748107 0)
(1.12362 0.597399 0)
(1.08853 0.487488 0)
(1.09772 0.0702121 0)
(0.94454 -0.385672 0)
(0.678917 -0.444324 0)
(0.481602 -0.427316 0)
(0.374861 -0.292234 0)
(0.3089 -0.220211 0)
(0.227004 -0.169605 0)
(0.174274 -0.0749689 0)
(-0.328886 -0.0614288 0)
(-0.648246 -0.0580154 0)
(-0.635013 0.209461 0)
(-0.511834 0.331048 0)
(-0.495934 0.219044 0)
(-0.24079 -0.344309 0)
(-0.0508194 -0.66966 0)
(0.0308081 -1.20792 0)
(0.27655 -1.75629 0)
(0.115205 -2.28019 0)
(-0.0152989 -2.85782 0)
)
;
    }
    procBoundary3to2
    {
        type            processor;
        value           nonuniform List<vector> 
25
(
(0.746882 0.699379 0)
(0.539461 0.555081 0)
(0.4398 0.417931 0)
(0.400831 0.322853 0)
(0.379112 0.259086 0)
(0.359362 0.214407 0)
(0.339853 0.178727 0)
(0.318278 0.151149 0)
(0.295364 0.130489 0)
(0.273561 0.112725 0)
(0.25183 0.0983557 0)
(0.231024 0.0859459 0)
(0.210817 0.0755222 0)
(0.191186 0.0666517 0)
(0.172092 0.0592085 0)
(0.153533 0.0530513 0)
(0.135468 0.0480483 0)
(0.117907 0.0440856 0)
(0.100827 0.041139 0)
(0.084136 0.0390679 0)
(0.0679633 0.0376533 0)
(0.0528209 0.0379999 0)
(0.0372124 0.0382863 0)
(0.0220781 0.0398755 0)
(-0.00231094 0.0382603 0)
)
;
    }
}


// ************************************************************************* //
