/*--------------------------------*- C++ -*----------------------------------*\
| =========                 |                                                 |
| \\      /  F ield         | OpenFOAM: The Open Source CFD Toolbox           |
|  \\    /   O peration     | Version:  2.4.0                                 |
|   \\  /    A nd           | Web:      www.OpenFOAM.org                      |
|    \\/     M anipulation  |                                                 |
\*---------------------------------------------------------------------------*/
FoamFile
{
    version     2.0;
    format      ascii;
    class       volVectorField;
    location    "0.85";
    object      U.mercury;
}
// * * * * * * * * * * * * * * * * * * * * * * * * * * * * * * * * * * * * * //

dimensions      [0 1 -1 0 0 0 0];

internalField   nonuniform List<vector> 
575
(
(0.810964 0.678239 0)
(0.896168 0.66226 0)
(0.932467 0.554705 0)
(0.981231 0.470904 0)
(0.611137 0.530813 0)
(0.700988 0.508544 0)
(0.750541 0.424993 0)
(0.820206 0.346916 0)
(0.514679 0.393655 0)
(0.584924 0.37215 0)
(0.629005 0.316642 0)
(0.681057 0.264463 0)
(0.454774 0.298935 0)
(0.501725 0.280359 0)
(0.533536 0.24386 0)
(0.567915 0.208688 0)
(0.414817 0.234445 0)
(0.446047 0.216086 0)
(0.469034 0.190229 0)
(0.492834 0.1642 0)
(0.38536 0.190965 0)
(0.407264 0.17289 0)
(0.424019 0.152536 0)
(0.440882 0.131328 0)
(0.360275 0.156393 0)
(0.375806 0.140138 0)
(0.387728 0.123116 0)
(0.399731 0.106908 0)
(0.333676 0.132138 0)
(0.34561 0.117178 0)
(0.354459 0.102857 0)
(0.363831 0.0877228 0)
(0.308483 0.111876 0)
(0.317582 0.0990798 0)
(0.325186 0.085423 0)
(0.332446 0.0720517 0)
(0.284145 0.0959001 0)
(0.291821 0.0836816 0)
(0.298208 0.0714977 0)
(0.304235 0.0586034 0)
(0.261038 0.0821449 0)
(0.267411 0.070841 0)
(0.272896 0.0591634 0)
(0.278125 0.0470929 0)
(0.238827 0.070483 0)
(0.244273 0.0597082 0)
(0.248929 0.0487083 0)
(0.253454 0.0371186 0)
(0.217489 0.0605422 0)
(0.222075 0.0502923 0)
(0.225996 0.0397672 0)
(0.229896 0.028733 0)
(0.196846 0.0521255 0)
(0.200701 0.0422996 0)
(0.203962 0.0322169 0)
(0.207254 0.0216479 0)
(0.176835 0.0451 0)
(0.180026 0.0356374 0)
(0.182698 0.025922 0)
(0.185441 0.0157924 0)
(0.157451 0.0393192 0)
(0.160025 0.0301853 0)
(0.162173 0.0207927 0)
(0.164404 0.011071 0)
(0.13863 0.0346773 0)
(0.140634 0.0258254 0)
(0.142306 0.0167387 0)
(0.144038 0.00736453 0)
(0.120347 0.0310721 0)
(0.121835 0.0224831 0)
(0.123073 0.0136841 0)
(0.12434 0.00462945 0)
(0.102587 0.0284477 0)
(0.1036 0.0200962 0)
(0.104423 0.0115554 0)
(0.105249 0.002786 0)
(0.0852739 0.026743 0)
(0.0858727 0.0186158 0)
(0.0863074 0.0103111 0)
(0.0867039 0.00179874 0)
(0.0684632 0.0257101 0)
(0.0686445 0.0178625 0)
(0.0687152 0.0098225 0)
(0.0687407 0.00156287 0)
(0.052329 0.0260175 0)
(0.0519682 0.0181918 0)
(0.0515791 0.0102611 0)
(0.0511463 0.00219344 0)
(0.0366582 0.0267948 0)
(0.0360236 0.0191723 0)
(0.0352606 0.0113364 0)
(0.0343975 0.0033024 0)
(0.0214591 0.0289534 0)
(0.0208394 0.0217329 0)
(0.0200206 0.0142568 0)
(0.0189955 0.00655966 0)
(-0.0021025 0.0283096 0)
(-0.00196385 0.021681 0)
(-0.00200901 0.0147311 0)
(-0.00211448 0.00747646 0)
(1.03597 0.112227 0)
(0.896862 -0.20351 0)
(0.699045 -0.30314 0)
(0.530007 -0.266078 0)
(0.435796 -0.23948 0)
(0.37049 -0.15201 0)
(0.331766 -0.0841481 0)
(0.270939 0.0365193 0)
(0.257695 0.201777 0)
(-0.114534 0.0854204 0)
(-0.231495 0.0850337 0)
(-0.171986 0.2217 0)
(0.038104 0.132164 0)
(0.37102 -0.288084 0)
(0.622856 -0.879617 0)
(0.642972 -1.26424 0)
(0.666115 -1.59991 0)
(0.360367 -1.92271 0)
(0.196773 -2.65154 0)
(0.868501 0.125511 0)
(0.782958 -0.0830259 0)
(0.647405 -0.164273 0)
(0.553046 -0.191645 0)
(0.465748 -0.160508 0)
(0.422991 -0.128967 0)
(0.416479 -0.0659674 0)
(0.424627 0.0213829 0)
(0.506246 0.17072 0)
(0.591443 0.289888 0)
(0.640561 0.263597 0)
(0.709007 0.154529 0)
(0.818264 -0.139564 0)
(1.02949 -0.639178 0)
(1.07044 -0.912243 0)
(0.916968 -1.19951 0)
(0.777768 -1.35367 0)
(0.456701 -1.66282 0)
(0.17943 -2.33053 0)
(0.71086 0.135525 0)
(0.676691 -0.00327006 0)
(0.604182 -0.0873634 0)
(0.541968 -0.116141 0)
(0.488369 -0.123312 0)
(0.463571 -0.097217 0)
(0.452733 -0.0610834 0)
(0.484626 -0.0310552 0)
(0.549043 0.0363534 0)
(0.696077 0.0936369 0)
(0.808836 0.0730743 0)
(0.997451 -0.0311213 0)
(1.18284 -0.179263 0)
(1.23834 -0.449914 0)
(1.16255 -0.749318 0)
(0.987506 -1.00341 0)
(0.792556 -1.15132 0)
(0.463614 -1.43307 0)
(0.147597 -2.12307 0)
(0.593815 0.128323 0)
(0.590407 0.0251045 0)
(0.551616 -0.0371565 0)
(0.518565 -0.0816398 0)
(0.488789 -0.0943 0)
(0.474308 -0.0845484 0)
(0.483394 -0.0798111 0)
(0.511709 -0.0616079 0)
(0.562213 -0.0461222 0)
(0.677457 -0.0302954 0)
(0.789164 -0.0697243 0)
(0.921401 -0.212733 0)
(0.989809 -0.344638 0)
(1.08578 -0.564369 0)
(1.07782 -0.724476 0)
(0.971577 -0.920313 0)
(0.784562 -0.98178 0)
(0.448553 -1.16883 0)
(0.204242 -1.85282 0)
(0.516273 0.109005 0)
(0.524998 0.0350474 0)
(0.50553 -0.0146985 0)
(0.495345 -0.0584528 0)
(0.474843 -0.0812688 0)
(0.476762 -0.0891811 0)
(0.487761 -0.0916081 0)
(0.512125 -0.096261 0)
(0.569853 -0.106739 0)
(0.624229 -0.138685 0)
(0.741534 -0.152276 0)
(0.805823 -0.26699 0)
(0.847355 -0.432101 0)
(0.899897 -0.556598 0)
(0.872797 -0.679618 0)
(0.800288 -0.742904 0)
(0.600333 -0.71899 0)
(0.405241 -0.934749 0)
(0.191681 -1.57774 0)
(0.459574 0.091488 0)
(0.470365 0.0372852 0)
(0.463311 -0.00756188 0)
(0.466182 -0.0472529 0)
(0.456891 -0.0790187 0)
(0.462104 -0.0949337 0)
(0.47803 -0.107836 0)
(0.498483 -0.134003 0)
(0.551937 -0.151802 0)
(0.587495 -0.18665 0)
(0.650617 -0.245487 0)
(0.737504 -0.307556 0)
(0.762013 -0.449115 0)
(0.811921 -0.552419 0)
(0.780766 -0.629328 0)
(0.691248 -0.63084 0)
(0.476429 -0.618268 0)
(0.32803 -0.832882 0)
(0.132473 -1.39136 0)
(0.414178 0.0761537 0)
(0.427336 0.0325908 0)
(0.426462 -0.00964603 0)
(0.437759 -0.046498 0)
(0.43213 -0.081556 0)
(0.443052 -0.10275 0)
(0.456366 -0.124847 0)
(0.477029 -0.163336 0)
(0.516829 -0.188767 0)
(0.54524 -0.224949 0)
(0.597659 -0.302451 0)
(0.634537 -0.362208 0)
(0.71459 -0.499253 0)
(0.742385 -0.549266 0)
(0.7151 -0.529626 0)
(0.624055 -0.468014 0)
(0.404346 -0.437496 0)
(0.278687 -0.67252 0)
(0.107846 -1.18821 0)
(0.376139 0.0618084 0)
(0.390456 0.0253621 0)
(0.392736 -0.0146368 0)
(0.407858 -0.0493977 0)
(0.402776 -0.0848908 0)
(0.418198 -0.113082 0)
(0.428305 -0.141834 0)
(0.445968 -0.188156 0)
(0.475128 -0.216222 0)
(0.499893 -0.260956 0)
(0.535508 -0.331826 0)
(0.575272 -0.445009 0)
(0.643575 -0.544116 0)
(0.651245 -0.537319 0)
(0.633272 -0.470745 0)
(0.521262 -0.330127 0)
(0.306278 -0.290816 0)
(0.221381 -0.554035 0)
(0.074855 -1.06403 0)
(0.343201 0.0486943 0)
(0.356472 0.0157384 0)
(0.362698 -0.0217172 0)
(0.373971 -0.0553057 0)
(0.37686 -0.0900925 0)
(0.386451 -0.123653 0)
(0.397293 -0.153404 0)
(0.409535 -0.203899 0)
(0.423825 -0.238603 0)
(0.451066 -0.282107 0)
(0.46993 -0.37426 0)
(0.507713 -0.504964 0)
(0.530233 -0.559947 0)
(0.520142 -0.539532 0)
(0.495849 -0.396402 0)
(0.350331 -0.18988 0)
(0.192687 -0.168347 0)
(0.152078 -0.502974 0)
(0.0678582 -0.917383 0)
(0.313764 0.0369902 0)
(0.325703 0.00615592 0)
(0.333032 -0.0282688 0)
(0.342119 -0.0617309 0)
(0.347173 -0.0954831 0)
(0.354365 -0.130812 0)
(0.361952 -0.164651 0)
(0.373507 -0.211014 0)
(0.372452 -0.252678 0)
(0.401963 -0.298617 0)
(0.400838 -0.396326 0)
(0.396514 -0.507033 0)
(0.364583 -0.548484 0)
(0.342576 -0.495876 0)
(0.288676 -0.259786 0)
(0.159344 -0.0903691 0)
(0.12967 -0.103482 0)
(0.126736 -0.463367 0)
(0.044393 -0.847027 0)
(0.286158 0.0265907 0)
(0.296845 -0.00273235 0)
(0.303898 -0.0350283 0)
(0.311806 -0.0674783 0)
(0.316224 -0.100979 0)
(0.323083 -0.135471 0)
(0.324995 -0.172913 0)
(0.335314 -0.211317 0)
(0.328157 -0.262584 0)
(0.340885 -0.304708 0)
(0.336547 -0.37728 0)
(0.287535 -0.473818 0)
(0.234016 -0.514924 0)
(0.171102 -0.422885 0)
(0.133606 -0.179227 0)
(0.0748821 -0.0648954 0)
(0.122727 -0.106666 0)
(0.133568 -0.439026 0)
(0.0612416 -0.766191 0)
(0.260288 0.0176217 0)
(0.269426 -0.0105153 0)
(0.275748 -0.0410212 0)
(0.282199 -0.0725162 0)
(0.286255 -0.105136 0)
(0.290179 -0.138958 0)
(0.292474 -0.175648 0)
(0.293277 -0.213375 0)
(0.293701 -0.256615 0)
(0.282365 -0.302158 0)
(0.276133 -0.357773 0)
(0.228902 -0.421692 0)
(0.162593 -0.454395 0)
(0.0873232 -0.357407 0)
(0.083703 -0.158294 0)
(0.0609958 -0.0912771 0)
(0.155854 -0.15012 0)
(0.144482 -0.396473 0)
(0.072223 -0.669406 0)
(0.235511 0.0099576 0)
(0.243293 -0.0170995 0)
(0.248658 -0.0461945 0)
(0.2537 -0.0765268 0)
(0.256833 -0.108045 0)
(0.258975 -0.140931 0)
(0.259768 -0.17597 0)
(0.257777 -0.211711 0)
(0.255767 -0.251984 0)
(0.243343 -0.290005 0)
(0.231718 -0.333698 0)
(0.196335 -0.375896 0)
(0.142047 -0.399206 0)
(0.0674388 -0.327743 0)
(0.0938503 -0.164574 0)
(0.0954445 -0.133328 0)
(0.16903 -0.177737 0)
(0.139141 -0.353133 0)
(0.0772666 -0.574212 0)
(0.211847 0.00360358 0)
(0.21821 -0.0224557 0)
(0.222556 -0.0503241 0)
(0.226308 -0.0795016 0)
(0.228378 -0.109792 0)
(0.228963 -0.141499 0)
(0.22874 -0.174957 0)
(0.224247 -0.208873 0)
(0.221678 -0.245764 0)
(0.208646 -0.279973 0)
(0.200049 -0.321034 0)
(0.179818 -0.345196 0)
(0.153173 -0.351188 0)
(0.0955494 -0.298276 0)
(0.12633 -0.195683 0)
(0.12613 -0.159996 0)
(0.154764 -0.185854 0)
(0.117918 -0.322791 0)
(0.0746246 -0.487141 0)
(0.189107 -0.00156637 0)
(0.194172 -0.0267412 0)
(0.197484 -0.0534246 0)
(0.200011 -0.0814584 0)
(0.20094 -0.110544 0)
(0.200508 -0.140951 0)
(0.198696 -0.17269 0)
(0.193519 -0.204914 0)
(0.190899 -0.24038 0)
(0.178391 -0.27134 0)
(0.173861 -0.310388 0)
(0.162267 -0.334136 0)
(0.164753 -0.335043 0)
(0.142118 -0.290233 0)
(0.152031 -0.194881 0)
(0.134971 -0.159467 0)
(0.127421 -0.167248 0)
(0.0898041 -0.288952 0)
(0.0652086 -0.419555 0)
(0.167217 -0.00567229 0)
(0.171054 -0.0299637 0)
(0.17337 -0.0555963 0)
(0.174736 -0.0824821 0)
(0.174748 -0.110371 0)
(0.173082 -0.139434 0)
(0.170239 -0.16965 0)
(0.164793 -0.201063 0)
(0.15961 -0.234169 0)
(0.150282 -0.264463 0)
(0.144298 -0.307514 0)
(0.146243 -0.335159 0)
(0.160471 -0.331908 0)
(0.147994 -0.279176 0)
(0.155469 -0.183481 0)
(0.120482 -0.135707 0)
(0.0999034 -0.136466 0)
(0.0776449 -0.262504 0)
(0.0614186 -0.342005 0)
(0.146095 -0.00877197 0)
(0.148846 -0.0322545 0)
(0.15021 -0.0568925 0)
(0.150574 -0.0826903 0)
(0.14957 -0.109315 0)
(0.147064 -0.137124 0)
(0.143163 -0.165694 0)
(0.136905 -0.195681 0)
(0.129534 -0.227251 0)
(0.121469 -0.259239 0)
(0.112237 -0.30289 0)
(0.105875 -0.352444 0)
(0.112289 -0.35167 0)
(0.104428 -0.279718 0)
(0.105259 -0.17113 0)
(0.0464481 -0.108299 0)
(0.0477959 -0.123134 0)
(0.0523134 -0.26629 0)
(0.0510973 -0.301693 0)
(0.125711 -0.0109238 0)
(0.127414 -0.0336366 0)
(0.127928 -0.0573462 0)
(0.12743 -0.0820681 0)
(0.125609 -0.107515 0)
(0.122303 -0.133803 0)
(0.117222 -0.160987 0)
(0.109966 -0.188751 0)
(0.0997593 -0.219651 0)
(0.0869275 -0.247837 0)
(0.069276 -0.29179 0)
(0.0348858 -0.333715 0)
(-0.00322586 -0.331019 0)
(-0.0446575 -0.249048 0)
(-0.0189655 -0.132117 0)
(-0.0605825 -0.0889891 0)
(0.0290375 -0.144416 0)
(0.0424418 -0.272667 0)
(0.0390392 -0.247581 0)
(0.10601 -0.0122542 0)
(0.106809 -0.0342346 0)
(0.10654 -0.057089 0)
(0.105301 -0.0807872 0)
(0.102873 -0.105087 0)
(0.099011 -0.129956 0)
(0.0934423 -0.155401 0)
(0.0850825 -0.180499 0)
(0.0754717 -0.20769 0)
(0.0569602 -0.23106 0)
(0.036104 -0.262743 0)
(-0.013668 -0.286748 0)
(-0.0519639 -0.289552 0)
(-0.0954334 -0.234267 0)
(-0.0657605 -0.143876 0)
(-0.0768815 -0.131228 0)
(0.0412081 -0.220075 0)
(0.00819454 -0.259697 0)
(0.0212456 -0.229622 0)
(0.0869018 -0.0127572 0)
(0.0868543 -0.0340794 0)
(0.0859227 -0.0561515 0)
(0.0840775 -0.0789113 0)
(0.0812303 -0.102121 0)
(0.0769937 -0.125618 0)
(0.0716383 -0.14924 0)
(0.0627975 -0.17183 0)
(0.0549195 -0.195252 0)
(0.0346311 -0.211657 0)
(0.0197528 -0.22994 0)
(-0.0167366 -0.247213 0)
(-0.055845 -0.252581 0)
(-0.0932606 -0.23035 0)
(-0.0513208 -0.169834 0)
(-0.0244723 -0.189303 0)
(0.0419983 -0.233826 0)
(-0.0025051 -0.244796 0)
(0.0198077 -0.221062 0)
(0.0684076 -0.0126247 0)
(0.067593 -0.0333692 0)
(0.0660592 -0.0547706 0)
(0.0637791 -0.0768098 0)
(0.0607405 -0.0990854 0)
(0.056525 -0.121405 0)
(0.051665 -0.143468 0)
(0.0434418 -0.163693 0)
(0.0371335 -0.18344 0)
(0.0192625 -0.196643 0)
(0.0155384 -0.212594 0)
(-0.0100834 -0.226665 0)
(-0.0206714 -0.226564 0)
(-0.0550322 -0.244918 0)
(0.00350341 -0.218659 0)
(0.0161035 -0.214601 0)
(0.0458032 -0.233865 0)
(-0.0044795 -0.244043 0)
(0.0255755 -0.216088 0)
(0.050328 -0.0115654 0)
(0.0487673 -0.031834 0)
(0.0466624 -0.0527323 0)
(0.044002 -0.074111 0)
(0.0407304 -0.0956491 0)
(0.0364559 -0.116937 0)
(0.0320817 -0.137621 0)
(0.0235021 -0.156114 0)
(0.0204747 -0.174784 0)
(0.010251 -0.190606 0)
(0.0155573 -0.204413 0)
(-0.00181923 -0.220661 0)
(0.0263128 -0.215507 0)
(0.0129457 -0.248117 0)
(0.0451044 -0.236334 0)
(0.0383248 -0.226592 0)
(0.0628635 -0.224146 0)
(0.0149328 -0.223785 0)
(0.0341661 -0.202847 0)
(0.0327303 -0.0104066 0)
(0.0304164 -0.0302861 0)
(0.0277699 -0.0507307 0)
(0.0249202 -0.07148 0)
(0.0213693 -0.0922499 0)
(0.0171638 -0.112726 0)
(0.014511 -0.133253 0)
(0.0116728 -0.152708 0)
(0.016209 -0.172086 0)
(0.0112203 -0.189082 0)
(0.0273474 -0.200912 0)
(0.0227493 -0.229922 0)
(0.057162 -0.231785 0)
(0.0543372 -0.253804 0)
(0.0686708 -0.240423 0)
(0.0572016 -0.230787 0)
(0.0738195 -0.215831 0)
(0.0294485 -0.213596 0)
(0.0361806 -0.17594 0)
(0.0171267 -0.00676422 0)
(0.0134369 -0.0266334 0)
(0.00961466 -0.0472491 0)
(0.00624662 -0.068454 0)
(0.00455656 -0.0900987 0)
(0.0042451 -0.112154 0)
(0.00720309 -0.134511 0)
(0.00853288 -0.157548 0)
(0.0199059 -0.178239 0)
(0.0214432 -0.205133 0)
(0.0502227 -0.218949 0)
(0.0470736 -0.250673 0)
(0.074592 -0.249108 0)
(0.064369 -0.255142 0)
(0.0755376 -0.239633 0)
(0.0599071 -0.225432 0)
(0.065764 -0.194202 0)
(0.016551 -0.181707 0)
(0.0276487 -0.146696 0)
(-0.00251178 -0.00530232 0)
(-0.00290656 -0.0250744 0)
(-0.00285253 -0.0461589 0)
(-0.00220583 -0.0683772 0)
(-0.000551812 -0.0915244 0)
(0.00177492 -0.115685 0)
(0.00704717 -0.139737 0)
(0.0110576 -0.16664 0)
(0.0253682 -0.189336 0)
(0.0276396 -0.219502 0)
(0.0553436 -0.233665 0)
(0.0508148 -0.257017 0)
(0.0746881 -0.255151 0)
(0.064804 -0.253743 0)
(0.0758462 -0.234218 0)
(0.0550735 -0.215577 0)
(0.0604562 -0.173972 0)
(0.0124673 -0.162044 0)
(0.0296574 -0.122563 0)
)
;

boundaryField
{
    leftWall
    {
        type            fixedValue;
        value           nonuniform 0();
    }
    rightWall
    {
        type            fixedValue;
        value           uniform (0 0 0);
    }
    lowerWall
    {
        type            fixedValue;
        value           nonuniform 0();
    }
    atmosphere
    {
        type            fluxCorrectedVelocity;
        value           nonuniform List<vector> 
23
(
(-0.0021025 0.028323 0)
(-0.00196385 0.0216978 0)
(-0.00200901 0.0147497 0)
(-0.00211448 0.00749428 0)
(-0.00251178 -0.00528945 0)
(-0.00290656 -0.0250646 0)
(-0.00285253 -0.0461467 0)
(-0.00220583 -0.0683637 0)
(-0.000551812 -0.0915104 0)
(0.00177492 -0.115684 0)
(0.00704717 -0.139757 0)
(0.0110576 -0.166693 0)
(0.0253682 -0.189415 0)
(0.0276396 -0.219607 0)
(0.0553436 -0.233773 0)
(0.0508148 -0.256965 0)
(0.0746881 -0.255062 0)
(0.064804 -0.253541 0)
(0.0758462 -0.233964 0)
(0.0550735 -0.215259 0)
(0.0604562 -0.173553 0)
(0.0124673 -0.161561 0)
(0.0296574 -0.122133 0)
)
;
    }
    defaultFaces
    {
        type            empty;
    }
    procBoundary3to1
    {
        type            processor;
        value           nonuniform List<vector> 
23
(
(1.08529 0.810324 0)
(1.11423 0.748713 0)
(1.12415 0.598011 0)
(1.08897 0.488128 0)
(1.09818 0.0708079 0)
(0.945015 -0.385199 0)
(0.679346 -0.443932 0)
(0.481992 -0.426962 0)
(0.375216 -0.291925 0)
(0.309235 -0.21997 0)
(0.227298 -0.169465 0)
(0.17003 -0.0772907 0)
(-0.345144 -0.0715447 0)
(-0.652718 -0.0609338 0)
(-0.635536 0.20914 0)
(-0.512572 0.33035 0)
(-0.497035 0.217879 0)
(-0.240662 -0.345799 0)
(-0.0489255 -0.671192 0)
(0.0332374 -1.20857 0)
(0.280113 -1.75617 0)
(0.118501 -2.27974 0)
(-0.0139617 -2.85808 0)
)
;
    }
    procBoundary3to2
    {
        type            processor;
        value           nonuniform List<vector> 
25
(
(0.747364 0.69993 0)
(0.539878 0.555539 0)
(0.440162 0.418323 0)
(0.401164 0.32318 0)
(0.379421 0.259356 0)
(0.359648 0.214627 0)
(0.340117 0.178904 0)
(0.318522 0.151292 0)
(0.295589 0.130604 0)
(0.273769 0.112818 0)
(0.252021 0.0984301 0)
(0.2312 0.0860056 0)
(0.210978 0.0755699 0)
(0.191331 0.0666899 0)
(0.172223 0.0592389 0)
(0.153651 0.0530759 0)
(0.135573 0.0480684 0)
(0.117999 0.0441027 0)
(0.100905 0.0411541 0)
(0.0842023 0.0390821 0)
(0.0680175 0.0376673 0)
(0.0528629 0.0380143 0)
(0.0372421 0.0383014 0)
(0.0220957 0.0398913 0)
(-0.00230524 0.0382767 0)
)
;
    }
}


// ************************************************************************* //
