/*--------------------------------*- C++ -*----------------------------------*\
| =========                 |                                                 |
| \\      /  F ield         | OpenFOAM: The Open Source CFD Toolbox           |
|  \\    /   O peration     | Version:  2.4.0                                 |
|   \\  /    A nd           | Web:      www.OpenFOAM.org                      |
|    \\/     M anipulation  |                                                 |
\*---------------------------------------------------------------------------*/
FoamFile
{
    version     2.0;
    format      ascii;
    class       volVectorField;
    location    "0.85";
    object      U.oil;
}
// * * * * * * * * * * * * * * * * * * * * * * * * * * * * * * * * * * * * * //

dimensions      [0 1 -1 0 0 0 0];

internalField   nonuniform List<vector> 
575
(
(0.812781 0.703597 0)
(0.899543 0.694922 0)
(0.922956 0.592265 0)
(0.968441 0.500216 0)
(0.615671 0.535936 0)
(0.697599 0.511094 0)
(0.754306 0.430142 0)
(0.827125 0.351382 0)
(0.516035 0.392722 0)
(0.585434 0.370366 0)
(0.630823 0.314151 0)
(0.680083 0.261147 0)
(0.454715 0.297614 0)
(0.502289 0.279185 0)
(0.533816 0.242321 0)
(0.568023 0.207204 0)
(0.414823 0.233882 0)
(0.44558 0.215266 0)
(0.469127 0.189789 0)
(0.493365 0.163999 0)
(0.385395 0.190814 0)
(0.407274 0.172741 0)
(0.424084 0.152436 0)
(0.440775 0.13122 0)
(0.360278 0.156359 0)
(0.375804 0.140108 0)
(0.387729 0.123099 0)
(0.399736 0.106898 0)
(0.333675 0.132127 0)
(0.345609 0.117169 0)
(0.354458 0.102851 0)
(0.363831 0.0877193 0)
(0.308482 0.11187 0)
(0.317582 0.099076 0)
(0.325186 0.0854203 0)
(0.332446 0.0720502 0)
(0.284145 0.0958978 0)
(0.291821 0.0836803 0)
(0.298208 0.0714968 0)
(0.304235 0.0586028 0)
(0.261038 0.0821442 0)
(0.267411 0.0708405 0)
(0.272896 0.0591631 0)
(0.278125 0.0470927 0)
(0.238827 0.0704829 0)
(0.244273 0.0597081 0)
(0.248929 0.0487082 0)
(0.253454 0.0371186 0)
(0.217489 0.0605421 0)
(0.222075 0.0502923 0)
(0.225996 0.0397672 0)
(0.229896 0.028733 0)
(0.196846 0.0521255 0)
(0.200701 0.0422996 0)
(0.203962 0.0322169 0)
(0.207254 0.0216479 0)
(0.176835 0.0451 0)
(0.180026 0.0356374 0)
(0.182698 0.025922 0)
(0.185441 0.0157924 0)
(0.157451 0.0393192 0)
(0.160025 0.0301853 0)
(0.162173 0.0207927 0)
(0.164404 0.011071 0)
(0.13863 0.0346773 0)
(0.140634 0.0258254 0)
(0.142306 0.0167387 0)
(0.144038 0.00736453 0)
(0.120347 0.0310721 0)
(0.121835 0.0224831 0)
(0.123073 0.0136841 0)
(0.12434 0.00462945 0)
(0.102587 0.0284477 0)
(0.1036 0.0200962 0)
(0.104423 0.0115554 0)
(0.105249 0.002786 0)
(0.0852739 0.026743 0)
(0.0858727 0.0186158 0)
(0.0863074 0.0103111 0)
(0.0867039 0.00179874 0)
(0.0684632 0.0257101 0)
(0.0686445 0.0178625 0)
(0.0687152 0.0098225 0)
(0.0687407 0.00156287 0)
(0.052329 0.0260175 0)
(0.0519682 0.0181918 0)
(0.0515791 0.0102611 0)
(0.0511463 0.00219344 0)
(0.0366582 0.0267948 0)
(0.0360236 0.0191723 0)
(0.0352606 0.0113364 0)
(0.0343975 0.0033024 0)
(0.0214591 0.0289534 0)
(0.0208394 0.0217329 0)
(0.0200206 0.0142568 0)
(0.0189955 0.00655966 0)
(-0.0021025 0.0283096 0)
(-0.00196385 0.021681 0)
(-0.00200901 0.0147311 0)
(-0.00211448 0.00747646 0)
(1.04181 0.153246 0)
(0.905416 -0.187936 0)
(0.703044 -0.303181 0)
(0.530375 -0.266573 0)
(0.435969 -0.240038 0)
(0.370461 -0.152772 0)
(0.331484 -0.0858456 0)
(0.269887 0.0339565 0)
(0.251655 0.197618 0)
(-0.139238 0.0798085 0)
(-0.292154 0.0777359 0)
(-0.254764 0.21205 0)
(-0.0569288 0.151534 0)
(0.211071 -0.150049 0)
(0.506934 -0.710412 0)
(0.706386 -0.983221 0)
(0.802364 -1.30123 0)
(0.50234 -1.74041 0)
(0.219482 -2.62699 0)
(0.871702 0.136631 0)
(0.785405 -0.0820638 0)
(0.648323 -0.164659 0)
(0.553244 -0.192008 0)
(0.465783 -0.160749 0)
(0.422909 -0.129484 0)
(0.416181 -0.0669893 0)
(0.423785 0.0198927 0)
(0.50425 0.169191 0)
(0.588391 0.286704 0)
(0.615979 0.258187 0)
(0.669519 0.161039 0)
(0.780714 -0.107483 0)
(1.01459 -0.614381 0)
(1.0867 -0.758079 0)
(0.977675 -0.860662 0)
(0.897416 -1.0835 0)
(0.554253 -1.5316 0)
(0.194796 -2.30032 0)
(0.711644 0.134985 0)
(0.676848 -0.00351103 0)
(0.604297 -0.0875536 0)
(0.542 -0.116256 0)
(0.488373 -0.123389 0)
(0.463523 -0.0974273 0)
(0.45255 -0.0615532 0)
(0.484334 -0.0317418 0)
(0.548267 0.0357685 0)
(0.695372 0.0933133 0)
(0.807237 0.0730327 0)
(0.994398 -0.0290255 0)
(1.17849 -0.171033 0)
(1.22636 -0.431827 0)
(1.21917 -0.758149 0)
(0.998934 -0.775246 0)
(0.884654 -0.975805 0)
(0.52516 -1.38649 0)
(0.159291 -2.10788 0)
(0.593851 0.127849 0)
(0.590417 0.0249214 0)
(0.551628 -0.0372316 0)
(0.518568 -0.0816685 0)
(0.488788 -0.0943226 0)
(0.474293 -0.084618 0)
(0.483362 -0.0799819 0)
(0.511651 -0.0618507 0)
(0.562057 -0.0464488 0)
(0.677144 -0.0303469 0)
(0.788577 -0.0695441 0)
(0.920668 -0.212446 0)
(0.989345 -0.34362 0)
(1.08587 -0.559152 0)
(1.08374 -0.721884 0)
(1.0252 -0.801425 0)
(0.86111 -0.867896 0)
(0.532765 -1.13305 0)
(0.216611 -1.84203 0)
(0.516281 0.108866 0)
(0.524999 0.0350022 0)
(0.505531 -0.0147132 0)
(0.495344 -0.0584587 0)
(0.474841 -0.0812773 0)
(0.47676 -0.0892062 0)
(0.487756 -0.0916507 0)
(0.512117 -0.0963229 0)
(0.569837 -0.106854 0)
(0.624181 -0.138869 0)
(0.741455 -0.152452 0)
(0.805571 -0.267096 0)
(0.847129 -0.432028 0)
(0.901026 -0.554914 0)
(0.876868 -0.676882 0)
(0.843872 -0.723934 0)
(0.673597 -0.664353 0)
(0.472806 -0.937926 0)
(0.201539 -1.58611 0)
(0.459573 0.0914671 0)
(0.470365 0.0372798 0)
(0.463311 -0.00756368 0)
(0.466182 -0.0472545 0)
(0.456891 -0.0790222 0)
(0.462103 -0.0949392 0)
(0.47803 -0.107845 0)
(0.498481 -0.134017 0)
(0.551933 -0.151832 0)
(0.587481 -0.186719 0)
(0.650587 -0.245631 0)
(0.737478 -0.307685 0)
(0.76343 -0.450275 0)
(0.812045 -0.552598 0)
(0.784622 -0.630146 0)
(0.726355 -0.639479 0)
(0.552593 -0.611277 0)
(0.38434 -0.851811 0)
(0.142494 -1.40435 0)
(0.414177 0.0761501 0)
(0.427336 0.0325894 0)
(0.426462 -0.00964669 0)
(0.437759 -0.0464986 0)
(0.43213 -0.0815567 0)
(0.443052 -0.102751 0)
(0.456366 -0.124849 0)
(0.477028 -0.163342 0)
(0.516828 -0.188784 0)
(0.545235 -0.224997 0)
(0.597667 -0.302563 0)
(0.634592 -0.36233 0)
(0.714509 -0.500678 0)
(0.742874 -0.551568 0)
(0.718725 -0.532481 0)
(0.636869 -0.474158 0)
(0.456375 -0.449389 0)
(0.31965 -0.691092 0)
(0.114645 -1.20629 0)
(0.376139 0.0618069 0)
(0.390456 0.0253615 0)
(0.392735 -0.0146371 0)
(0.407858 -0.0493978 0)
(0.402776 -0.084891 0)
(0.418198 -0.113082 0)
(0.428305 -0.141835 0)
(0.445968 -0.188159 0)
(0.475127 -0.216235 0)
(0.499893 -0.261002 0)
(0.535514 -0.331942 0)
(0.575321 -0.445195 0)
(0.643351 -0.546986 0)
(0.651169 -0.542067 0)
(0.637099 -0.477029 0)
(0.52999 -0.338417 0)
(0.327937 -0.314996 0)
(0.23809 -0.572315 0)
(0.0793255 -1.08561 0)
(0.343201 0.0486937 0)
(0.356472 0.0157382 0)
(0.362698 -0.0217173 0)
(0.373971 -0.0553058 0)
(0.37686 -0.0900925 0)
(0.386451 -0.123653 0)
(0.397293 -0.153404 0)
(0.409535 -0.203901 0)
(0.423825 -0.238612 0)
(0.451069 -0.282142 0)
(0.469929 -0.374404 0)
(0.507757 -0.50525 0)
(0.529166 -0.563968 0)
(0.51813 -0.548093 0)
(0.49905 -0.409297 0)
(0.361131 -0.207024 0)
(0.217327 -0.20692 0)
(0.164278 -0.531729 0)
(0.0707468 -0.939397 0)
(0.313764 0.03699 0)
(0.325703 0.00615584 0)
(0.333032 -0.0282689 0)
(0.342119 -0.0617309 0)
(0.347173 -0.0954831 0)
(0.354365 -0.130812 0)
(0.361951 -0.164651 0)
(0.373507 -0.211016 0)
(0.372452 -0.252684 0)
(0.401964 -0.298645 0)
(0.400838 -0.396536 0)
(0.396531 -0.507459 0)
(0.362773 -0.553776 0)
(0.333302 -0.514691 0)
(0.320633 -0.310661 0)
(0.21924 -0.16452 0)
(0.178232 -0.177606 0)
(0.141954 -0.492588 0)
(0.0469446 -0.869286 0)
(0.286158 0.0265907 0)
(0.296845 -0.00273237 0)
(0.303898 -0.0350283 0)
(0.311806 -0.0674783 0)
(0.316224 -0.100979 0)
(0.323083 -0.135472 0)
(0.324995 -0.172913 0)
(0.335314 -0.211318 0)
(0.328157 -0.262589 0)
(0.340885 -0.304737 0)
(0.336548 -0.377546 0)
(0.287498 -0.474488 0)
(0.232615 -0.521652 0)
(0.171281 -0.472692 0)
(0.251964 -0.306874 0)
(0.237017 -0.229487 0)
(0.217515 -0.260263 0)
(0.158058 -0.502832 0)
(0.0641778 -0.790303 0)
(0.260288 0.0176217 0)
(0.269426 -0.0105153 0)
(0.275748 -0.0410212 0)
(0.282199 -0.0725162 0)
(0.286255 -0.105136 0)
(0.290179 -0.138958 0)
(0.292474 -0.175648 0)
(0.293277 -0.213377 0)
(0.293701 -0.25662 0)
(0.282365 -0.302195 0)
(0.276137 -0.35804 0)
(0.22885 -0.422532 0)
(0.161836 -0.461252 0)
(0.102837 -0.415457 0)
(0.179196 -0.298865 0)
(0.203532 -0.276587 0)
(0.25407 -0.347416 0)
(0.179792 -0.502446 0)
(0.0760803 -0.703647 0)
(0.235511 0.0099576 0)
(0.243293 -0.0170995 0)
(0.248658 -0.0461945 0)
(0.2537 -0.0765268 0)
(0.256833 -0.108045 0)
(0.258975 -0.140931 0)
(0.259768 -0.175971 0)
(0.257777 -0.211714 0)
(0.255767 -0.251995 0)
(0.243342 -0.290057 0)
(0.231714 -0.333948 0)
(0.196304 -0.376815 0)
(0.141658 -0.404468 0)
(0.0676813 -0.342915 0)
(0.11512 -0.215851 0)
(0.179832 -0.284846 0)
(0.230281 -0.341898 0)
(0.161334 -0.471097 0)
(0.0815928 -0.605559 0)
(0.211847 0.00360358 0)
(0.21821 -0.0224557 0)
(0.222556 -0.0503241 0)
(0.226308 -0.0795016 0)
(0.228378 -0.109792 0)
(0.228963 -0.141499 0)
(0.22874 -0.174958 0)
(0.224247 -0.208877 0)
(0.221677 -0.245783 0)
(0.208643 -0.280057 0)
(0.200038 -0.321343 0)
(0.179796 -0.346231 0)
(0.153482 -0.35594 0)
(0.0956323 -0.30853 0)
(0.12855 -0.212817 0)
(0.129677 -0.183139 0)
(0.166184 -0.250552 0)
(0.128863 -0.387155 0)
(0.0770102 -0.502476 0)
(0.189107 -0.00156637 0)
(0.194172 -0.0267412 0)
(0.197484 -0.0534246 0)
(0.200011 -0.0814584 0)
(0.20094 -0.110544 0)
(0.200508 -0.140952 0)
(0.198696 -0.172692 0)
(0.193519 -0.20492 0)
(0.190898 -0.240412 0)
(0.178385 -0.271485 0)
(0.173843 -0.310874 0)
(0.162232 -0.335537 0)
(0.16477 -0.339468 0)
(0.142455 -0.298621 0)
(0.153528 -0.208003 0)
(0.137549 -0.177335 0)
(0.136662 -0.229057 0)
(0.0917943 -0.314772 0)
(0.0655862 -0.427309 0)
(0.167217 -0.00567229 0)
(0.171054 -0.0299637 0)
(0.17337 -0.0555963 0)
(0.174736 -0.0824821 0)
(0.174748 -0.110371 0)
(0.173082 -0.139434 0)
(0.170239 -0.169652 0)
(0.164792 -0.201071 0)
(0.159608 -0.234219 0)
(0.150274 -0.264697 0)
(0.144269 -0.30826 0)
(0.146137 -0.337428 0)
(0.160165 -0.338698 0)
(0.14798 -0.289256 0)
(0.156739 -0.196954 0)
(0.121764 -0.155993 0)
(0.104549 -0.176815 0)
(0.0796637 -0.278721 0)
(0.0616307 -0.347693 0)
(0.146095 -0.00877197 0)
(0.148846 -0.0322545 0)
(0.15021 -0.0568925 0)
(0.150574 -0.0826903 0)
(0.14957 -0.109315 0)
(0.147064 -0.137124 0)
(0.143163 -0.165696 0)
(0.136905 -0.195691 0)
(0.129533 -0.22732 0)
(0.121461 -0.259569 0)
(0.112198 -0.303917 0)
(0.105654 -0.356243 0)
(0.111252 -0.36143 0)
(0.103208 -0.293665 0)
(0.106833 -0.189118 0)
(0.0540167 -0.156076 0)
(0.0504065 -0.146909 0)
(0.0532709 -0.277441 0)
(0.051168 -0.305089 0)
(0.125711 -0.0109238 0)
(0.127414 -0.0336366 0)
(0.127928 -0.0573462 0)
(0.12743 -0.0820681 0)
(0.125609 -0.107515 0)
(0.122303 -0.133803 0)
(0.117222 -0.160989 0)
(0.109966 -0.188763 0)
(0.0997581 -0.219729 0)
(0.0869237 -0.248219 0)
(0.0692524 -0.293007 0)
(0.0347782 -0.339038 0)
(-0.00400435 -0.342993 0)
(-0.0449552 -0.267857 0)
(-0.0152522 -0.165463 0)
(-0.0541145 -0.137367 0)
(0.030422 -0.158893 0)
(0.0427581 -0.277896 0)
(0.0391037 -0.249507 0)
(0.10601 -0.0122542 0)
(0.106809 -0.0342346 0)
(0.10654 -0.057089 0)
(0.105301 -0.0807872 0)
(0.102873 -0.105087 0)
(0.0990109 -0.129957 0)
(0.0934423 -0.155403 0)
(0.0850824 -0.180509 0)
(0.0754708 -0.207758 0)
(0.0569557 -0.231394 0)
(0.036084 -0.263848 0)
(-0.0138881 -0.290991 0)
(-0.0524335 -0.301748 0)
(-0.0945388 -0.254175 0)
(-0.0627631 -0.180096 0)
(-0.0755829 -0.157949 0)
(0.0416733 -0.228392 0)
(0.00834008 -0.262286 0)
(0.0212482 -0.230428 0)
(0.0869018 -0.0127572 0)
(0.0868543 -0.0340794 0)
(0.0859227 -0.0561515 0)
(0.0840775 -0.0789113 0)
(0.0812303 -0.102121 0)
(0.0769937 -0.125618 0)
(0.0716383 -0.149241 0)
(0.0627974 -0.171838 0)
(0.0549189 -0.195297 0)
(0.0346274 -0.211865 0)
(0.0197415 -0.230657 0)
(-0.0168125 -0.249569 0)
(-0.0561968 -0.261492 0)
(-0.0931289 -0.24341 0)
(-0.0512098 -0.189233 0)
(-0.0243413 -0.198682 0)
(0.0421197 -0.237792 0)
(-0.00246931 -0.245835 0)
(0.0198082 -0.221309 0)
(0.0684076 -0.0126247 0)
(0.067593 -0.0333692 0)
(0.0660592 -0.0547706 0)
(0.0637791 -0.0768098 0)
(0.0607405 -0.0990854 0)
(0.056525 -0.121405 0)
(0.051665 -0.143469 0)
(0.0434418 -0.163698 0)
(0.0371331 -0.183463 0)
(0.0192607 -0.19674 0)
(0.0155344 -0.212928 0)
(-0.0101001 -0.227675 0)
(-0.0208378 -0.230842 0)
(-0.0552233 -0.250635 0)
(0.00350103 -0.224638 0)
(0.0161399 -0.218034 0)
(0.0458108 -0.23552 0)
(-0.00446536 -0.244418 0)
(0.0255763 -0.216179 0)
(0.050328 -0.0115654 0)
(0.0487673 -0.031834 0)
(0.0466624 -0.0527323 0)
(0.044002 -0.074111 0)
(0.0407304 -0.0956491 0)
(0.0364559 -0.116937 0)
(0.0320817 -0.137621 0)
(0.023502 -0.156117 0)
(0.0204744 -0.174798 0)
(0.0102501 -0.190656 0)
(0.0155554 -0.204548 0)
(-0.00182483 -0.220979 0)
(0.0262921 -0.216872 0)
(0.0128988 -0.249929 0)
(0.0451034 -0.237997 0)
(0.038324 -0.227631 0)
(0.0628638 -0.224663 0)
(0.0149369 -0.223965 0)
(0.0341668 -0.20291 0)
(0.0327303 -0.0104066 0)
(0.0304164 -0.0302861 0)
(0.0277699 -0.0507307 0)
(0.0249202 -0.07148 0)
(0.0213693 -0.0922499 0)
(0.0171637 -0.112726 0)
(0.014511 -0.133253 0)
(0.0116728 -0.15271 0)
(0.0162087 -0.172097 0)
(0.0112192 -0.189116 0)
(0.0273462 -0.200974 0)
(0.0227491 -0.229998 0)
(0.0571603 -0.23209 0)
(0.0543374 -0.254229 0)
(0.0686753 -0.240805 0)
(0.0572048 -0.231021 0)
(0.0738224 -0.215963 0)
(0.0294517 -0.2137 0)
(0.0361815 -0.175991 0)
(0.0171267 -0.00676422 0)
(0.0134369 -0.0266334 0)
(0.00961466 -0.0472491 0)
(0.00624662 -0.068454 0)
(0.00455656 -0.0900987 0)
(0.0042451 -0.112154 0)
(0.00720308 -0.134512 0)
(0.00853282 -0.15755 0)
(0.0199057 -0.178245 0)
(0.0214428 -0.20515 0)
(0.0502227 -0.218971 0)
(0.0470736 -0.25069 0)
(0.0745923 -0.249157 0)
(0.0643698 -0.255214 0)
(0.0755371 -0.239701 0)
(0.0599086 -0.225484 0)
(0.0657654 -0.194253 0)
(0.0165521 -0.181756 0)
(0.027649 -0.146725 0)
(-0.00251178 -0.00530232 0)
(-0.00290656 -0.0250744 0)
(-0.00285253 -0.0461589 0)
(-0.00220583 -0.0683772 0)
(-0.000551812 -0.0915244 0)
(0.00177492 -0.115685 0)
(0.00704717 -0.139737 0)
(0.0110576 -0.16664 0)
(0.0253682 -0.189338 0)
(0.0276396 -0.219506 0)
(0.0553436 -0.233668 0)
(0.0508148 -0.25702 0)
(0.0746881 -0.255155 0)
(0.064804 -0.253752 0)
(0.0758463 -0.23423 0)
(0.0550737 -0.215587 0)
(0.0604565 -0.173985 0)
(0.0124676 -0.162058 0)
(0.0296575 -0.122571 0)
)
;

boundaryField
{
    leftWall
    {
        type            fixedValue;
        value           nonuniform 0();
    }
    rightWall
    {
        type            fixedValue;
        value           uniform (0 0 0);
    }
    lowerWall
    {
        type            fixedValue;
        value           nonuniform 0();
    }
    atmosphere
    {
        type            fluxCorrectedVelocity;
        value           nonuniform List<vector> 
23
(
(-0.0021025 0.028323 0)
(-0.00196385 0.0216978 0)
(-0.00200901 0.0147497 0)
(-0.00211448 0.00749428 0)
(-0.00251178 -0.00528945 0)
(-0.00290656 -0.0250646 0)
(-0.00285253 -0.0461467 0)
(-0.00220583 -0.0683637 0)
(-0.000551812 -0.0915104 0)
(0.00177492 -0.115684 0)
(0.00704717 -0.139757 0)
(0.0110576 -0.166693 0)
(0.0253682 -0.189415 0)
(0.0276396 -0.219607 0)
(0.0553436 -0.233773 0)
(0.0508148 -0.256965 0)
(0.0746881 -0.255062 0)
(0.064804 -0.253541 0)
(0.0758463 -0.233964 0)
(0.0550737 -0.215259 0)
(0.0604565 -0.173553 0)
(0.0124676 -0.161561 0)
(0.0296575 -0.122133 0)
)
;
    }
    defaultFaces
    {
        type            empty;
    }
    procBoundary3to1
    {
        type            processor;
        value           nonuniform List<vector> 
23
(
(1.08343 0.865663 0)
(1.09104 0.808178 0)
(1.10798 0.674574 0)
(1.08865 0.563854 0)
(1.11178 0.136249 0)
(0.964946 -0.344821 0)
(0.69146 -0.442897 0)
(0.485395 -0.429047 0)
(0.374844 -0.292279 0)
(0.309592 -0.221277 0)
(0.227371 -0.171201 0)
(0.168706 -0.0787474 0)
(-0.37648 -0.0778971 0)
(-0.705976 -0.0543817 0)
(-0.693355 0.181613 0)
(-0.577726 0.240947 0)
(-0.494453 0.147032 0)
(-0.188282 -0.457149 0)
(0.0115466 -0.705409 0)
(0.157743 -1.13726 0)
(0.35543 -1.68045 0)
(0.234958 -2.1989 0)
(0.0206308 -2.86931 0)
)
;
    }
    procBoundary3to2
    {
        type            processor;
        value           nonuniform List<vector> 
25
(
(0.72854 0.706964 0)
(0.539018 0.555047 0)
(0.441309 0.41719 0)
(0.401216 0.322057 0)
(0.379418 0.258811 0)
(0.359648 0.214446 0)
(0.340114 0.178863 0)
(0.31852 0.151277 0)
(0.295588 0.130597 0)
(0.273769 0.112815 0)
(0.252021 0.0984291 0)
(0.2312 0.0860053 0)
(0.210978 0.0755698 0)
(0.191331 0.0666899 0)
(0.172223 0.0592389 0)
(0.153651 0.0530759 0)
(0.135573 0.0480684 0)
(0.117999 0.0441027 0)
(0.100905 0.0411541 0)
(0.0842023 0.0390821 0)
(0.0680175 0.0376673 0)
(0.0528629 0.0380143 0)
(0.0372421 0.0383014 0)
(0.0220957 0.0398913 0)
(-0.00230524 0.0382767 0)
)
;
    }
}


// ************************************************************************* //
