/*--------------------------------*- C++ -*----------------------------------*\
| =========                 |                                                 |
| \\      /  F ield         | OpenFOAM: The Open Source CFD Toolbox           |
|  \\    /   O peration     | Version:  2.4.0                                 |
|   \\  /    A nd           | Web:      www.OpenFOAM.org                      |
|    \\/     M anipulation  |                                                 |
\*---------------------------------------------------------------------------*/
FoamFile
{
    version     2.0;
    format      ascii;
    class       volVectorField;
    location    "0.85";
    object      U.water;
}
// * * * * * * * * * * * * * * * * * * * * * * * * * * * * * * * * * * * * * //

dimensions      [0 1 -1 0 0 0 0];

internalField   nonuniform List<vector> 
575
(
(0.810874 0.678367 0)
(0.896092 0.662432 0)
(0.932383 0.554902 0)
(0.981217 0.471128 0)
(0.611144 0.53085 0)
(0.70099 0.508584 0)
(0.750513 0.42499 0)
(0.820259 0.346965 0)
(0.514697 0.393625 0)
(0.584947 0.372118 0)
(0.629037 0.316608 0)
(0.681043 0.264411 0)
(0.454776 0.298902 0)
(0.501736 0.280329 0)
(0.53354 0.243827 0)
(0.567917 0.208659 0)
(0.414818 0.234431 0)
(0.446041 0.21607 0)
(0.469037 0.190219 0)
(0.49284 0.164193 0)
(0.385361 0.190962 0)
(0.407264 0.172887 0)
(0.424019 0.152534 0)
(0.440881 0.131325 0)
(0.360275 0.156392 0)
(0.375806 0.140138 0)
(0.387728 0.123116 0)
(0.399731 0.106908 0)
(0.333676 0.132138 0)
(0.34561 0.117178 0)
(0.354459 0.102857 0)
(0.363831 0.0877228 0)
(0.308483 0.111876 0)
(0.317582 0.0990798 0)
(0.325186 0.085423 0)
(0.332446 0.0720517 0)
(0.284145 0.0959001 0)
(0.291821 0.0836816 0)
(0.298208 0.0714977 0)
(0.304235 0.0586034 0)
(0.261038 0.0821449 0)
(0.267411 0.070841 0)
(0.272896 0.0591634 0)
(0.278125 0.0470929 0)
(0.238827 0.070483 0)
(0.244273 0.0597082 0)
(0.248929 0.0487083 0)
(0.253454 0.0371186 0)
(0.217489 0.0605422 0)
(0.222075 0.0502923 0)
(0.225996 0.0397672 0)
(0.229896 0.028733 0)
(0.196846 0.0521255 0)
(0.200701 0.0422996 0)
(0.203962 0.0322169 0)
(0.207254 0.0216479 0)
(0.176835 0.0451 0)
(0.180026 0.0356374 0)
(0.182698 0.025922 0)
(0.185441 0.0157924 0)
(0.157451 0.0393192 0)
(0.160025 0.0301853 0)
(0.162173 0.0207927 0)
(0.164404 0.011071 0)
(0.13863 0.0346773 0)
(0.140634 0.0258254 0)
(0.142306 0.0167387 0)
(0.144038 0.00736453 0)
(0.120347 0.0310721 0)
(0.121835 0.0224831 0)
(0.123073 0.0136841 0)
(0.12434 0.00462945 0)
(0.102587 0.0284477 0)
(0.1036 0.0200962 0)
(0.104423 0.0115554 0)
(0.105249 0.002786 0)
(0.0852739 0.026743 0)
(0.0858727 0.0186158 0)
(0.0863074 0.0103111 0)
(0.0867039 0.00179874 0)
(0.0684632 0.0257101 0)
(0.0686445 0.0178625 0)
(0.0687152 0.0098225 0)
(0.0687407 0.00156287 0)
(0.052329 0.0260175 0)
(0.0519682 0.0181918 0)
(0.0515791 0.0102611 0)
(0.0511463 0.00219344 0)
(0.0366582 0.0267948 0)
(0.0360236 0.0191723 0)
(0.0352606 0.0113364 0)
(0.0343975 0.0033024 0)
(0.0214591 0.0289534 0)
(0.0208394 0.0217329 0)
(0.0200206 0.0142568 0)
(0.0189955 0.00655966 0)
(-0.0021025 0.0283096 0)
(-0.00196385 0.021681 0)
(-0.00200901 0.0147311 0)
(-0.00211448 0.00747646 0)
(1.036 0.11247 0)
(0.896929 -0.20339 0)
(0.699108 -0.303156 0)
(0.530018 -0.266095 0)
(0.435801 -0.239477 0)
(0.370492 -0.15201 0)
(0.331761 -0.0843843 0)
(0.270767 0.0366083 0)
(0.260452 0.204266 0)
(-0.0962149 0.0877307 0)
(-0.227646 0.086428 0)
(-0.170782 0.222763 0)
(0.0390412 0.13313 0)
(0.364713 -0.286154 0)
(0.617665 -0.884573 0)
(0.63899 -1.27011 0)
(0.66191 -1.60451 0)
(0.357429 -1.92495 0)
(0.196111 -2.65245 0)
(0.868481 0.125572 0)
(0.782981 -0.0830214 0)
(0.647423 -0.164286 0)
(0.553051 -0.191653 0)
(0.465751 -0.160504 0)
(0.422995 -0.128949 0)
(0.416488 -0.0659628 0)
(0.424626 0.0213167 0)
(0.5071 0.171235 0)
(0.601865 0.292497 0)
(0.649079 0.261646 0)
(0.71818 0.147801 0)
(0.832319 -0.156178 0)
(1.03504 -0.657852 0)
(1.06596 -0.925707 0)
(0.91006 -1.2099 0)
(0.77301 -1.3588 0)
(0.454613 -1.66496 0)
(0.178949 -2.33172 0)
(0.710864 0.135505 0)
(0.676693 -0.00327896 0)
(0.604185 -0.0873687 0)
(0.541969 -0.116142 0)
(0.48837 -0.123307 0)
(0.463573 -0.0972064 0)
(0.45274 -0.0610656 0)
(0.484641 -0.0310366 0)
(0.549118 0.0364839 0)
(0.697139 0.0935869 0)
(0.811865 0.0720142 0)
(1.00169 -0.0350087 0)
(1.18689 -0.188854 0)
(1.2388 -0.463184 0)
(1.1589 -0.760997 0)
(0.983105 -1.01099 0)
(0.789835 -1.15439 0)
(0.462191 -1.4342 0)
(0.14723 -2.12375 0)
(0.593816 0.128311 0)
(0.590407 0.0250998 0)
(0.551617 -0.037158 0)
(0.518565 -0.0816391 0)
(0.488789 -0.0942975 0)
(0.474309 -0.0845434 0)
(0.483396 -0.0798018 0)
(0.511715 -0.0615922 0)
(0.562229 -0.0460871 0)
(0.677522 -0.030065 0)
(0.78936 -0.0693975 0)
(0.921615 -0.212553 0)
(0.990036 -0.345298 0)
(1.08534 -0.566037 0)
(1.077 -0.726137 0)
(0.969701 -0.920975 0)
(0.78272 -0.982716 0)
(0.447157 -1.16958 0)
(0.203823 -1.85382 0)
(0.516274 0.109002 0)
(0.524998 0.0350464 0)
(0.50553 -0.0146985 0)
(0.495345 -0.0584523 0)
(0.474843 -0.0812677 0)
(0.476763 -0.089179 0)
(0.487761 -0.0916042 0)
(0.512127 -0.0962537 0)
(0.569857 -0.106725 0)
(0.624241 -0.138628 0)
(0.741552 -0.152189 0)
(0.805869 -0.26686 0)
(0.847421 -0.431964 0)
(0.899819 -0.556694 0)
(0.872369 -0.679905 0)
(0.79952 -0.743319 0)
(0.599117 -0.719293 0)
(0.404072 -0.934749 0)
(0.191257 -1.5779 0)
(0.459574 0.0914876 0)
(0.470365 0.0372851 0)
(0.463311 -0.00756176 0)
(0.466182 -0.0472527 0)
(0.456891 -0.0790183 0)
(0.462104 -0.0949329 0)
(0.478031 -0.107835 0)
(0.498484 -0.133999 0)
(0.551938 -0.151795 0)
(0.5875 -0.186631 0)
(0.650625 -0.245445 0)
(0.737519 -0.307486 0)
(0.761814 -0.448777 0)
(0.811921 -0.552354 0)
(0.780269 -0.629338 0)
(0.690182 -0.630659 0)
(0.475082 -0.617871 0)
(0.32705 -0.832286 0)
(0.132237 -1.39138 0)
(0.414178 0.0761537 0)
(0.427336 0.0325908 0)
(0.426462 -0.00964598 0)
(0.437759 -0.046498 0)
(0.43213 -0.0815559 0)
(0.443052 -0.102749 0)
(0.456366 -0.124846 0)
(0.477029 -0.163334 0)
(0.51683 -0.188762 0)
(0.545242 -0.22493 0)
(0.597659 -0.302386 0)
(0.634547 -0.362057 0)
(0.714681 -0.498766 0)
(0.742291 -0.548701 0)
(0.714381 -0.52908 0)
(0.622678 -0.467225 0)
(0.40274 -0.436278 0)
(0.277825 -0.671711 0)
(0.107698 -1.18799 0)
(0.376139 0.0618084 0)
(0.390456 0.0253621 0)
(0.392736 -0.0146368 0)
(0.407858 -0.0493977 0)
(0.402776 -0.0848908 0)
(0.418198 -0.113082 0)
(0.428305 -0.141834 0)
(0.445968 -0.188155 0)
(0.475128 -0.216218 0)
(0.499893 -0.260934 0)
(0.535506 -0.331734 0)
(0.575268 -0.44472 0)
(0.643687 -0.543161 0)
(0.651202 -0.536025 0)
(0.632336 -0.46918 0)
(0.519499 -0.328335 0)
(0.30452 -0.288862 0)
(0.220779 -0.553393 0)
(0.0747548 -1.06377 0)
(0.343201 0.0486943 0)
(0.356472 0.0157384 0)
(0.362698 -0.0217172 0)
(0.373971 -0.0553057 0)
(0.37686 -0.0900925 0)
(0.386451 -0.123653 0)
(0.397293 -0.153404 0)
(0.409535 -0.203898 0)
(0.423825 -0.2386 0)
(0.451065 -0.282085 0)
(0.469928 -0.374135 0)
(0.507721 -0.504544 0)
(0.530595 -0.558607 0)
(0.520313 -0.537485 0)
(0.494666 -0.393817 0)
(0.348133 -0.186867 0)
(0.191069 -0.165965 0)
(0.151615 -0.502462 0)
(0.0677956 -0.917141 0)
(0.313764 0.0369902 0)
(0.325703 0.00615592 0)
(0.333032 -0.0282688 0)
(0.342119 -0.0617309 0)
(0.347173 -0.0954831 0)
(0.354365 -0.130812 0)
(0.361952 -0.164651 0)
(0.373507 -0.211014 0)
(0.372452 -0.252675 0)
(0.401961 -0.298597 0)
(0.400836 -0.396181 0)
(0.396543 -0.506543 0)
(0.365081 -0.546852 0)
(0.342804 -0.493349 0)
(0.28712 -0.256707 0)
(0.157124 -0.087017 0)
(0.128689 -0.101459 0)
(0.126443 -0.462345 0)
(0.0443697 -0.846798 0)
(0.286158 0.0265907 0)
(0.296845 -0.00273235 0)
(0.303898 -0.0350283 0)
(0.311806 -0.0674783 0)
(0.316224 -0.100979 0)
(0.323083 -0.135471 0)
(0.324995 -0.172913 0)
(0.335314 -0.211317 0)
(0.328157 -0.262583 0)
(0.340884 -0.304693 0)
(0.336542 -0.377151 0)
(0.287571 -0.473317 0)
(0.234399 -0.51311 0)
(0.171371 -0.420392 0)
(0.132412 -0.17646 0)
(0.0735419 -0.0620264 0)
(0.122149 -0.104772 0)
(0.133276 -0.437912 0)
(0.0612129 -0.766084 0)
(0.260288 0.0176217 0)
(0.269426 -0.0105153 0)
(0.275748 -0.0410212 0)
(0.282199 -0.0725162 0)
(0.286255 -0.105136 0)
(0.290179 -0.138958 0)
(0.292474 -0.175648 0)
(0.293277 -0.213375 0)
(0.293701 -0.256614 0)
(0.282365 -0.302149 0)
(0.276129 -0.357685 0)
(0.228918 -0.421275 0)
(0.162814 -0.452805 0)
(0.0873725 -0.354978 0)
(0.0828712 -0.155492 0)
(0.0600592 -0.0882766 0)
(0.155105 -0.147559 0)
(0.14416 -0.395452 0)
(0.0721996 -0.669348 0)
(0.235511 0.0099576 0)
(0.243293 -0.0170995 0)
(0.248658 -0.0461945 0)
(0.2537 -0.0765268 0)
(0.256833 -0.108045 0)
(0.258975 -0.140931 0)
(0.259768 -0.17597 0)
(0.257777 -0.211711 0)
(0.255767 -0.251984 0)
(0.243343 -0.290001 0)
(0.231718 -0.333659 0)
(0.196344 -0.375651 0)
(0.142177 -0.398219 0)
(0.0674082 -0.325638 0)
(0.0932156 -0.161647 0)
(0.0946708 -0.130007 0)
(0.16827 -0.174845 0)
(0.138871 -0.352439 0)
(0.0772535 -0.574176 0)
(0.211847 0.00360358 0)
(0.21821 -0.0224557 0)
(0.222556 -0.0503241 0)
(0.226308 -0.0795016 0)
(0.228378 -0.109792 0)
(0.228963 -0.141499 0)
(0.22874 -0.174957 0)
(0.224247 -0.208873 0)
(0.221678 -0.245764 0)
(0.208646 -0.279972 0)
(0.200049 -0.321025 0)
(0.179818 -0.345099 0)
(0.153119 -0.350452 0)
(0.0956277 -0.296884 0)
(0.126035 -0.193375 0)
(0.125684 -0.157375 0)
(0.154477 -0.184094 0)
(0.117846 -0.32242 0)
(0.0746212 -0.487118 0)
(0.189107 -0.00156637 0)
(0.194172 -0.0267412 0)
(0.197484 -0.0534246 0)
(0.200011 -0.0814584 0)
(0.20094 -0.110544 0)
(0.200508 -0.140951 0)
(0.198696 -0.17269 0)
(0.193519 -0.204914 0)
(0.190899 -0.24038 0)
(0.178391 -0.27134 0)
(0.173861 -0.310386 0)
(0.162267 -0.334117 0)
(0.164751 -0.334842 0)
(0.14211 -0.289589 0)
(0.151938 -0.193779 0)
(0.134837 -0.158291 0)
(0.127355 -0.166623 0)
(0.0897929 -0.288844 0)
(0.0652078 -0.419542 0)
(0.167217 -0.00567229 0)
(0.171054 -0.0299637 0)
(0.17337 -0.0555963 0)
(0.174736 -0.0824821 0)
(0.174748 -0.110371 0)
(0.173082 -0.139434 0)
(0.170239 -0.16965 0)
(0.164793 -0.201063 0)
(0.15961 -0.234169 0)
(0.150282 -0.264463 0)
(0.144298 -0.307514 0)
(0.146243 -0.335156 0)
(0.16047 -0.331866 0)
(0.147989 -0.279014 0)
(0.155447 -0.183174 0)
(0.12046 -0.1354 0)
(0.0998898 -0.136316 0)
(0.0776423 -0.262478 0)
(0.0614183 -0.341998 0)
(0.146095 -0.00877197 0)
(0.148846 -0.0322545 0)
(0.15021 -0.0568925 0)
(0.150574 -0.0826903 0)
(0.14957 -0.109315 0)
(0.147064 -0.137124 0)
(0.143163 -0.165694 0)
(0.136905 -0.195681 0)
(0.129534 -0.227251 0)
(0.121469 -0.259239 0)
(0.112237 -0.30289 0)
(0.105875 -0.352443 0)
(0.11229 -0.351666 0)
(0.104428 -0.279696 0)
(0.105257 -0.171078 0)
(0.0464448 -0.108247 0)
(0.0477935 -0.1231 0)
(0.0523126 -0.266279 0)
(0.0510971 -0.301689 0)
(0.125711 -0.0109238 0)
(0.127414 -0.0336366 0)
(0.127928 -0.0573462 0)
(0.12743 -0.0820681 0)
(0.125609 -0.107515 0)
(0.122303 -0.133803 0)
(0.117222 -0.160987 0)
(0.109966 -0.188751 0)
(0.0997593 -0.219651 0)
(0.0869275 -0.247837 0)
(0.069276 -0.29179 0)
(0.0348859 -0.333714 0)
(-0.00322564 -0.331017 0)
(-0.0446574 -0.249042 0)
(-0.0189666 -0.132105 0)
(-0.0605846 -0.0889726 0)
(0.0290365 -0.144405 0)
(0.0424414 -0.272661 0)
(0.0390391 -0.247579 0)
(0.10601 -0.0122542 0)
(0.106809 -0.0342346 0)
(0.10654 -0.057089 0)
(0.105301 -0.0807872 0)
(0.102873 -0.105087 0)
(0.099011 -0.129956 0)
(0.0934423 -0.155401 0)
(0.0850825 -0.180499 0)
(0.0754717 -0.207689 0)
(0.0569602 -0.23106 0)
(0.036104 -0.262742 0)
(-0.0136679 -0.286747 0)
(-0.0519638 -0.28955 0)
(-0.0954336 -0.234261 0)
(-0.0657612 -0.143867 0)
(-0.0768818 -0.131218 0)
(0.0412078 -0.22007 0)
(0.00819442 -0.259695 0)
(0.0212456 -0.229621 0)
(0.0869018 -0.0127572 0)
(0.0868543 -0.0340794 0)
(0.0859227 -0.0561515 0)
(0.0840775 -0.0789113 0)
(0.0812303 -0.102121 0)
(0.0769937 -0.125618 0)
(0.0716383 -0.14924 0)
(0.0627975 -0.17183 0)
(0.0549195 -0.195252 0)
(0.0346311 -0.211657 0)
(0.0197528 -0.22994 0)
(-0.0167366 -0.247213 0)
(-0.0558448 -0.25258 0)
(-0.0932606 -0.230346 0)
(-0.0513207 -0.169828 0)
(-0.0244723 -0.189299 0)
(0.0419982 -0.233824 0)
(-0.00250513 -0.244795 0)
(0.0198076 -0.221061 0)
(0.0684076 -0.0126247 0)
(0.067593 -0.0333692 0)
(0.0660592 -0.0547706 0)
(0.0637791 -0.0768098 0)
(0.0607405 -0.0990854 0)
(0.056525 -0.121405 0)
(0.051665 -0.143468 0)
(0.0434418 -0.163693 0)
(0.0371335 -0.18344 0)
(0.0192625 -0.196643 0)
(0.0155384 -0.212594 0)
(-0.0100834 -0.226664 0)
(-0.0206714 -0.226563 0)
(-0.0550322 -0.244917 0)
(0.00350342 -0.218657 0)
(0.0161035 -0.2146 0)
(0.0458032 -0.233865 0)
(-0.0044795 -0.244043 0)
(0.0255755 -0.216088 0)
(0.050328 -0.0115654 0)
(0.0487673 -0.031834 0)
(0.0466624 -0.0527323 0)
(0.044002 -0.074111 0)
(0.0407304 -0.0956491 0)
(0.0364559 -0.116937 0)
(0.0320817 -0.137621 0)
(0.0235021 -0.156114 0)
(0.0204747 -0.174784 0)
(0.010251 -0.190606 0)
(0.0155573 -0.204413 0)
(-0.00181923 -0.220661 0)
(0.0263128 -0.215507 0)
(0.0129457 -0.248117 0)
(0.0451044 -0.236334 0)
(0.0383248 -0.226591 0)
(0.0628635 -0.224145 0)
(0.0149328 -0.223785 0)
(0.0341661 -0.202846 0)
(0.0327303 -0.0104066 0)
(0.0304164 -0.0302861 0)
(0.0277699 -0.0507307 0)
(0.0249202 -0.07148 0)
(0.0213693 -0.0922499 0)
(0.0171638 -0.112726 0)
(0.014511 -0.133253 0)
(0.0116728 -0.152708 0)
(0.016209 -0.172086 0)
(0.0112203 -0.189082 0)
(0.0273474 -0.200912 0)
(0.0227493 -0.229922 0)
(0.057162 -0.231785 0)
(0.0543372 -0.253803 0)
(0.0686708 -0.240423 0)
(0.0572016 -0.230787 0)
(0.0738195 -0.215831 0)
(0.0294485 -0.213596 0)
(0.0361806 -0.17594 0)
(0.0171267 -0.00676422 0)
(0.0134369 -0.0266334 0)
(0.00961466 -0.0472491 0)
(0.00624662 -0.068454 0)
(0.00455656 -0.0900987 0)
(0.0042451 -0.112154 0)
(0.00720309 -0.134511 0)
(0.00853288 -0.157548 0)
(0.0199059 -0.178239 0)
(0.0214432 -0.205133 0)
(0.0502227 -0.218949 0)
(0.0470736 -0.250673 0)
(0.074592 -0.249108 0)
(0.064369 -0.255142 0)
(0.0755376 -0.239633 0)
(0.0599071 -0.225432 0)
(0.065764 -0.194202 0)
(0.016551 -0.181707 0)
(0.0276487 -0.146696 0)
(-0.00251178 -0.00530232 0)
(-0.00290656 -0.0250744 0)
(-0.00285253 -0.0461589 0)
(-0.00220583 -0.0683772 0)
(-0.000551812 -0.0915244 0)
(0.00177492 -0.115685 0)
(0.00704717 -0.139737 0)
(0.0110576 -0.16664 0)
(0.0253682 -0.189336 0)
(0.0276396 -0.219502 0)
(0.0553436 -0.233665 0)
(0.0508148 -0.257017 0)
(0.0746881 -0.255151 0)
(0.064804 -0.253743 0)
(0.0758462 -0.234218 0)
(0.0550735 -0.215577 0)
(0.0604562 -0.173972 0)
(0.0124673 -0.162044 0)
(0.0296574 -0.122563 0)
)
;

boundaryField
{
    leftWall
    {
        type            fixedValue;
        value           nonuniform 0();
    }
    rightWall
    {
        type            fixedValue;
        value           uniform (0 0 0);
    }
    lowerWall
    {
        type            fixedValue;
        value           nonuniform 0();
    }
    atmosphere
    {
        type            fluxCorrectedVelocity;
        value           nonuniform List<vector> 
23
(
(-0.0021025 0.028323 0)
(-0.00196385 0.0216978 0)
(-0.00200901 0.0147497 0)
(-0.00211448 0.00749428 0)
(-0.00251178 -0.00528945 0)
(-0.00290656 -0.0250646 0)
(-0.00285253 -0.0461467 0)
(-0.00220583 -0.0683637 0)
(-0.000551812 -0.0915104 0)
(0.00177492 -0.115684 0)
(0.00704717 -0.139757 0)
(0.0110576 -0.166693 0)
(0.0253682 -0.189415 0)
(0.0276396 -0.219607 0)
(0.0553436 -0.233773 0)
(0.0508148 -0.256965 0)
(0.0746881 -0.255062 0)
(0.064804 -0.253541 0)
(0.0758462 -0.233964 0)
(0.0550735 -0.215259 0)
(0.0604562 -0.173553 0)
(0.0124673 -0.161561 0)
(0.0296574 -0.122133 0)
)
;
    }
    defaultFaces
    {
        type            empty;
    }
    procBoundary3to1
    {
        type            processor;
        value           nonuniform List<vector> 
23
(
(1.08517 0.810517 0)
(1.11417 0.748936 0)
(1.12418 0.598333 0)
(1.08895 0.488443 0)
(1.09829 0.0711068 0)
(0.945224 -0.385051 0)
(0.679542 -0.443952 0)
(0.482078 -0.427035 0)
(0.375212 -0.291926 0)
(0.30926 -0.220103 0)
(0.227276 -0.170074 0)
(0.173321 -0.0762979 0)
(-0.332682 -0.0641254 0)
(-0.649133 -0.0588559 0)
(-0.63545 0.209295 0)
(-0.511827 0.330877 0)
(-0.495828 0.218731 0)
(-0.240616 -0.344538 0)
(-0.0504189 -0.669804 0)
(0.0318496 -1.20806 0)
(0.277317 -1.75614 0)
(0.115616 -2.27996 0)
(-0.0149392 -2.85786 0)
)
;
    }
    procBoundary3to2
    {
        type            processor;
        value           nonuniform List<vector> 
25
(
(0.747268 0.70003 0)
(0.539863 0.555563 0)
(0.440175 0.418299 0)
(0.401166 0.323153 0)
(0.379421 0.259343 0)
(0.359648 0.214623 0)
(0.340117 0.178904 0)
(0.318522 0.151292 0)
(0.295589 0.130604 0)
(0.273769 0.112818 0)
(0.252021 0.0984301 0)
(0.2312 0.0860056 0)
(0.210978 0.0755699 0)
(0.191331 0.0666899 0)
(0.172223 0.0592389 0)
(0.153651 0.0530759 0)
(0.135573 0.0480684 0)
(0.117999 0.0441027 0)
(0.100905 0.0411541 0)
(0.0842023 0.0390821 0)
(0.0680175 0.0376673 0)
(0.0528629 0.0380143 0)
(0.0372421 0.0383014 0)
(0.0220957 0.0398913 0)
(-0.00230524 0.0382767 0)
)
;
    }
}


// ************************************************************************* //
