/*--------------------------------*- C++ -*----------------------------------*\
| =========                 |                                                 |
| \\      /  F ield         | OpenFOAM: The Open Source CFD Toolbox           |
|  \\    /   O peration     | Version:  2.4.0                                 |
|   \\  /    A nd           | Web:      www.OpenFOAM.org                      |
|    \\/     M anipulation  |                                                 |
\*---------------------------------------------------------------------------*/
FoamFile
{
    version     2.0;
    format      ascii;
    class       volScalarField;
    location    "0.4";
    object      alpha.oil;
}
// * * * * * * * * * * * * * * * * * * * * * * * * * * * * * * * * * * * * * //

dimensions      [0 0 0 0 0 0 0];

internalField   nonuniform List<scalar> 
559
(
1.51448e-07
1.13746e-07
7.10754e-08
3.69993e-08
1.37238e-08
5.3027e-09
2.24056e-09
7.41316e-17
2.06224e-15
2.22281e-14
1.13776e-13
3.41744e-13
1.01398e-12
4.44209e-12
1.8868e-11
5.85687e-11
1.96479e-10
3.6196e-10
8.64016e-10
1.75773e-08
6.06852e-08
1.20551e-07
1.45314e-07
1.4063e-07
1.104e-07
7.13305e-08
3.83511e-08
1.66599e-08
5.57201e-09
1.69868e-09
1.54927e-17
3.36995e-16
3.22051e-15
1.64957e-14
6.43514e-14
3.25152e-13
1.8536e-12
8.52926e-12
2.9612e-11
8.26877e-11
1.32859e-10
1.41937e-10
4.78699e-09
3.35144e-08
5.83733e-08
9.61262e-08
9.25988e-08
7.93191e-08
5.5176e-08
3.15339e-08
1.44049e-08
5.00108e-09
1.38502e-09
1.00159e-20
8.5397e-19
3.1306e-17
6.40908e-16
8.40543e-15
7.64647e-14
4.99525e-13
2.41339e-12
8.61689e-12
2.12518e-11
3.05628e-11
2.3518e-11
6.28302e-10
5.45527e-09
2.65056e-08
3.05831e-08
4.29191e-08
4.01905e-08
2.96631e-08
1.83488e-08
8.95732e-09
3.19347e-09
8.11306e-10
1.58787e-21
1.09903e-19
3.53265e-18
6.88974e-17
9.14197e-16
8.64911e-15
5.95283e-14
2.98154e-13
1.08105e-12
2.83902e-12
5.40288e-12
8.42557e-12
1.46227e-11
5.26337e-10
2.24684e-09
1.05186e-08
1.28885e-08
1.3585e-08
8.98613e-09
6.26138e-09
3.43943e-09
1.39791e-09
3.6432e-10
1.91942e-23
1.58132e-21
6.13831e-20
1.46492e-18
2.3804e-17
2.77153e-16
2.39301e-15
1.56106e-14
7.8046e-14
2.99232e-13
8.87483e-13
2.08527e-12
3.88356e-12
6.70563e-12
8.84215e-11
5.85603e-10
2.42567e-09
2.84661e-09
2.07103e-09
9.76935e-10
5.53255e-10
2.72058e-10
9.31743e-11
4.19018e-24
3.08262e-22
1.08947e-20
2.43498e-19
3.84403e-18
4.51756e-17
4.06128e-16
2.84291e-15
1.57191e-14
6.97453e-14
2.49685e-13
7.10987e-13
1.66049e-12
3.61507e-12
9.89394e-12
4.17485e-11
1.79956e-10
3.82394e-10
3.16831e-10
1.38502e-10
4.67544e-11
2.26067e-11
1.30269e-11
3.76186e-25
2.79829e-23
9.94147e-22
2.21696e-20
3.50625e-19
4.20096e-18
3.96793e-17
3.02775e-16
1.89079e-15
9.67268e-15
4.05646e-14
1.40773e-13
4.13186e-13
1.02526e-12
2.16631e-12
4.03896e-12
6.46148e-12
1.8434e-11
2.62913e-11
3.00985e-11
2.0503e-11
9.12734e-12
3.70032e-12
3.34981e-26
2.6775e-24
1.02605e-22
2.47245e-21
4.20403e-20
5.34534e-19
5.25882e-18
4.10354e-17
2.58968e-16
1.3449e-15
5.86586e-15
2.18781e-14
6.9943e-14
1.92064e-13
4.58527e-13
9.52757e-13
1.73934e-12
2.77611e-12
3.65299e-12
3.67422e-12
2.80276e-12
1.57294e-12
6.59472e-13
3.84234e-28
3.24126e-26
1.31217e-24
3.35713e-23
6.12847e-22
8.53055e-21
9.43496e-20
8.50222e-19
6.34234e-18
3.95757e-17
2.07017e-16
9.08448e-16
3.34448e-15
1.04366e-14
2.77092e-14
6.32377e-14
1.24694e-13
2.09151e-13
2.91171e-13
3.26179e-13
2.83522e-13
1.84951e-13
9.08108e-14
3.26749e-30
3.01552e-28
1.33368e-26
3.73651e-25
7.4677e-24
1.13377e-22
1.35954e-21
1.32196e-20
1.06049e-19
7.10519e-19
4.02817e-18
1.9589e-17
8.23434e-17
2.99121e-16
9.38861e-16
2.52919e-15
5.75714e-15
1.09813e-14
1.73974e-14
2.25319e-14
2.30515e-14
1.77824e-14
1.03827e-14
1.56646e-32
1.60032e-30
7.88195e-29
2.47436e-27
5.57504e-26
9.5945e-25
1.30916e-23
1.45143e-22
1.33144e-21
1.02567e-20
6.70365e-20
3.73529e-19
1.77928e-18
7.26553e-18
2.54794e-17
7.67812e-17
1.9894e-16
4.40039e-16
8.1676e-16
1.23856e-15
1.48814e-15
1.37221e-15
9.75602e-16
6.27497e-35
7.12498e-33
3.88307e-31
1.34909e-29
3.36244e-28
6.40833e-27
9.71587e-26
1.20313e-24
1.23906e-23
1.07438e-22
7.91249e-22
4.98692e-21
2.71319e-20
1.27883e-19
5.21799e-19
1.83737e-18
5.54593e-18
1.42088e-17
3.05563e-17
5.42545e-17
7.74596e-17
8.62822e-17
7.58983e-17
1.63416e-37
2.08557e-35
1.28301e-33
5.05245e-32
1.43261e-30
3.11348e-29
5.38729e-28
7.6129e-27
8.94944e-26
8.87748e-25
7.51192e-24
5.46078e-23
3.42051e-22
1.85069e-21
8.66577e-21
3.50876e-20
1.22442e-19
3.65871e-19
9.24946e-19
1.94341e-18
3.3177e-18
4.5059e-18
4.96589e-18
3.07711e-40
4.49377e-38
3.14941e-36
1.41484e-34
4.57918e-33
1.13746e-31
2.25435e-30
3.65805e-29
4.94794e-28
5.65028e-27
5.49986e-26
4.60061e-25
3.32951e-24
2.09175e-23
1.14125e-22
5.4007e-22
2.20899e-21
7.75804e-21
2.31705e-20
5.80325e-20
1.19643e-19
1.99971e-19
2.78094e-19
4.0615e-43
6.80886e-41
5.49473e-39
2.84768e-37
1.06472e-35
3.05925e-34
7.02163e-33
1.32069e-31
2.07322e-30
2.75391e-29
3.12738e-28
3.05873e-27
2.58943e-26
1.90418e-25
1.21876e-24
6.78794e-24
3.28132e-23
1.36958e-22
4.89282e-22
1.47738e-21
3.71309e-21
7.69411e-21
1.35411e-20
3.42271e-46
6.82753e-44
6.48471e-42
3.95286e-40
1.73848e-38
5.88125e-37
1.59141e-35
3.53171e-34
6.54301e-33
1.02557e-31
1.37428e-30
1.58747e-29
1.59075e-28
1.38847e-27
1.05776e-26
7.0346e-26
4.07603e-25
2.04826e-24
8.85803e-24
3.26045e-23
1.00839e-22
2.60576e-22
5.80228e-22
1.77978e-49
4.36475e-47
4.98712e-45
3.63781e-43
1.91044e-41
7.71543e-40
2.49536e-38
6.63864e-37
1.4798e-35
2.79874e-34
4.53145e-33
6.32592e-32
7.66087e-31
8.08656e-30
7.46266e-29
6.02705e-28
4.25432e-27
2.61414e-26
1.38818e-25
6.30448e-25
2.42121e-24
7.83842e-24
2.20435e-23
4.94567e-53
1.64421e-50
2.34731e-48
2.09536e-46
1.33462e-44
6.49859e-43
2.5319e-41
8.15971e-40
2.22473e-38
5.20002e-37
1.04911e-35
1.83249e-34
2.77714e-33
3.66085e-32
4.20865e-31
4.22881e-30
3.71438e-29
2.84326e-28
1.88393e-27
1.06973e-26
5.15144e-26
2.09953e-25
7.44513e-25
7.01778e-57
3.76884e-54
6.97999e-52
7.69677e-50
5.97874e-48
3.54374e-46
1.68275e-44
6.63473e-43
2.22457e-41
6.44761e-40
1.63113e-38
3.61656e-37
7.03227e-36
1.19869e-34
1.78806e-33
2.32736e-32
2.63464e-31
2.58374e-30
2.18301e-29
1.57624e-28
9.63703e-28
4.97913e-27
2.22719e-26
7.35471e-61
7.44826e-58
1.79941e-55
2.43433e-53
2.29324e-51
1.64976e-49
9.5027e-48
4.52786e-46
1.82608e-44
6.35964e-43
1.94708e-41
5.30495e-40
1.29264e-38
2.81657e-37
5.46825e-36
9.39635e-35
1.41577e-33
1.84931e-32
2.06809e-31
1.95654e-30
1.55142e-29
1.02939e-28
5.83878e-28
3.09117e-64
3.85483e-61
1.06325e-58
1.61199e-56
1.68422e-54
1.33583e-52
8.4741e-51
4.44312e-49
1.97706e-47
7.62693e-46
2.59993e-44
7.97268e-43
2.2281e-41
5.71292e-40
1.34569e-38
2.90016e-37
5.65879e-36
9.82649e-35
1.48533e-33
1.90779e-32
2.03975e-31
1.79211e-30
1.31118e-29
1.04701e-66
9.10217e-64
2.32911e-61
3.42004e-59
3.49025e-57
2.71588e-55
1.70776e-53
9.00188e-52
4.08373e-50
1.62701e-48
5.7832e-47
1.8596e-45
5.48337e-44
1.4983e-42
3.81878e-41
9.11519e-40
2.03839e-38
4.24565e-37
8.11508e-36
1.38628e-34
2.04145e-33
2.49442e-32
2.45156e-31
4.73448e-69
2.95159e-66
6.96423e-64
9.97956e-62
1.0191e-59
8.05485e-58
5.19318e-56
2.83021e-54
1.33694e-52
5.57668e-51
2.08364e-49
7.05163e-48
2.18304e-46
6.24002e-45
1.65911e-43
4.13247e-42
9.69947e-41
2.15344e-39
4.52181e-38
8.91335e-37
1.61405e-35
2.57737e-34
3.43728e-33
8.31246e-72
5.60506e-69
1.45957e-66
2.31633e-64
2.61558e-62
2.27746e-60
1.60585e-58
9.49136e-57
4.82388e-55
2.15009e-53
8.53766e-52
3.0594e-50
9.99962e-49
3.01173e-47
8.45187e-46
2.22936e-44
5.564e-43
1.32078e-41
2.99179e-40
6.46602e-39
1.3244e-37
2.5207e-36
4.25886e-35
)
;

boundaryField
{
    leftWall
    {
        type            zeroGradient;
    }
    rightWall
    {
        type            zeroGradient;
    }
    lowerWall
    {
        type            zeroGradient;
    }
    atmosphere
    {
        type            inletOutlet;
        inletValue      uniform 0;
        value           uniform 0;
    }
    defaultFaces
    {
        type            empty;
    }
    procBoundary2to0
    {
        type            processor;
        value           nonuniform List<scalar> 
24
(
1.21539e-07
9.22015e-08
5.73256e-08
2.72572e-08
1.35722e-08
7.41029e-09
5.22485e-09
1.2792e-16
5.5184e-15
8.27397e-14
4.94015e-13
1.37682e-12
2.93511e-12
9.34588e-12
3.52165e-11
1.00935e-10
2.80136e-10
6.19743e-10
4.59399e-09
2.33755e-08
4.91879e-08
1.1029e-07
1.70146e-07
1.70146e-07
)
;
    }
    procBoundary2to3
    {
        type            processor;
        value           nonuniform List<scalar> 
25
(
1.52205e-09
6.41921e-10
3.64198e-10
2.12438e-10
8.85837e-11
2.83809e-11
7.58162e-12
1.67578e-12
3.08876e-13
4.76768e-14
6.22556e-15
6.91705e-16
6.56827e-17
5.35404e-18
3.77106e-19
2.31343e-20
1.24547e-21
5.91889e-23
2.49005e-24
9.25441e-26
3.0143e-27
8.45821e-29
1.99701e-30
3.69207e-32
5.89356e-34
)
;
    }
}


// ************************************************************************* //
