/*--------------------------------*- C++ -*----------------------------------*\
| =========                 |                                                 |
| \\      /  F ield         | OpenFOAM: The Open Source CFD Toolbox           |
|  \\    /   O peration     | Version:  2.4.0                                 |
|   \\  /    A nd           | Web:      www.OpenFOAM.org                      |
|    \\/     M anipulation  |                                                 |
\*---------------------------------------------------------------------------*/
FoamFile
{
    version     2.0;
    format      ascii;
    class       volScalarField;
    location    "0.4";
    object      alpha.mercury;
}
// * * * * * * * * * * * * * * * * * * * * * * * * * * * * * * * * * * * * * //

dimensions      [0 0 0 0 0 0 0];

internalField   nonuniform List<scalar> 
559
(
6.07589e-20
1.45348e-19
3.4276e-19
8.21653e-19
2.00635e-18
4.98511e-18
1.24134e-17
1.55302e-38
2.44719e-36
1.63354e-34
6.7494e-33
1.97165e-31
4.24821e-30
7.31197e-29
1.03899e-27
1.23138e-26
1.19779e-25
9.3914e-25
5.96793e-24
3.23399e-23
1.46202e-22
5.57855e-22
1.91496e-21
5.97843e-21
1.7391e-20
4.74589e-20
1.23559e-19
3.06447e-19
6.9893e-19
1.45537e-18
1.14101e-39
1.45449e-37
9.69437e-36
4.23816e-34
1.26204e-32
2.72592e-31
4.4776e-30
5.81196e-29
6.03423e-28
5.14315e-27
3.8055e-26
2.56234e-25
1.55104e-24
8.18608e-24
3.8304e-23
1.58541e-22
5.6937e-22
1.82841e-21
5.41084e-21
1.49317e-20
3.83436e-20
8.87662e-20
1.85428e-19
3.83186e-41
6.35993e-39
4.51879e-37
1.85925e-35
5.22101e-34
1.10376e-32
1.83095e-31
2.46536e-30
2.75539e-29
2.61864e-28
2.18569e-27
1.6015e-26
1.03034e-25
5.90167e-25
3.0334e-24
1.37856e-23
5.60075e-23
2.04752e-22
6.82551e-22
2.05948e-21
5.54865e-21
1.30741e-20
2.78526e-20
2.54157e-42
3.23698e-40
1.97922e-38
7.84179e-37
2.27805e-35
5.14199e-34
9.33895e-33
1.38767e-31
1.71751e-30
1.82026e-29
1.6338e-28
1.26432e-27
8.62553e-27
5.12608e-26
2.6577e-25
1.22475e-24
5.13572e-24
1.97035e-23
6.80587e-23
2.11064e-22
5.90638e-22
1.49484e-21
3.4943e-21
3.84953e-44
5.97669e-42
4.32004e-40
1.95579e-38
6.22771e-37
1.49358e-35
2.84228e-34
4.43974e-33
5.85481e-32
6.55733e-31
6.32749e-30
5.38011e-29
3.99574e-28
2.62874e-27
1.52646e-26
7.85663e-26
3.62586e-25
1.49431e-24
5.49551e-24
1.84987e-23
5.63812e-23
1.57917e-22
4.15241e-22
1.92174e-45
2.59302e-43
1.67603e-41
7.00647e-40
2.13685e-38
5.0691e-37
9.72551e-36
1.55542e-34
2.1306e-33
2.56618e-32
2.72487e-31
2.45569e-30
1.89325e-29
1.29588e-28
7.89318e-28
4.28098e-27
2.08288e-26
9.20983e-26
3.75822e-25
1.40489e-24
4.79297e-24
1.51501e-23
4.50546e-23
1.81081e-47
2.72941e-45
1.96903e-43
9.146e-42
3.10392e-40
8.25348e-39
1.79378e-37
3.26766e-36
5.04659e-35
6.59459e-34
7.31878e-33
7.04652e-32
6.04194e-31
4.55824e-30
3.05801e-29
1.87156e-28
1.04716e-27
5.33612e-27
2.44816e-26
1.00328e-25
3.80839e-25
1.35729e-24
4.47052e-24
2.65551e-49
4.34234e-47
3.40453e-45
1.71893e-43
6.27789e-42
1.76098e-40
3.93827e-39
7.23674e-38
1.1205e-36
1.49587e-35
1.76793e-34
1.89019e-33
1.81925e-32
1.5714e-31
1.21686e-30
8.24662e-30
4.93756e-29
2.68426e-28
1.34492e-27
6.28342e-27
2.72593e-26
1.08307e-25
3.90696e-25
2.24967e-51
3.79374e-49
3.07823e-47
1.62212e-45
6.29446e-44
1.93066e-42
4.88887e-41
1.04689e-39
1.92145e-38
3.04614e-37
4.16466e-36
4.90976e-35
5.011e-34
4.51683e-33
3.65008e-32
2.71915e-31
1.88888e-30
1.20593e-29
7.01825e-29
3.69541e-28
1.75105e-27
7.62948e-27
3.05418e-26
1.81554e-53
3.3674e-51
3.00083e-49
1.73602e-47
7.34931e-46
2.42649e-44
6.504e-43
1.45566e-41
2.77335e-40
4.56902e-39
6.63533e-38
8.66491e-37
1.02694e-35
1.10196e-34
1.07249e-33
9.39974e-33
7.30827e-32
5.07422e-31
3.19076e-30
1.84605e-29
9.87861e-29
4.81564e-28
2.12439e-27
8.62952e-56
1.7773e-53
1.77348e-51
1.15778e-49
5.57704e-48
2.11254e-46
6.53772e-45
1.69497e-43
3.75109e-42
7.195e-41
1.20769e-39
1.78098e-38
2.32019e-37
2.68775e-36
2.7875e-35
2.61291e-34
2.24575e-33
1.7761e-32
1.28685e-31
8.4503e-31
5.0112e-30
2.70342e-29
1.32732e-28
4.22182e-58
9.63016e-56
1.05877e-53
7.59994e-52
4.01328e-50
1.66415e-48
5.64363e-47
1.60859e-45
3.9269e-44
8.32023e-43
1.54605e-41
2.54551e-40
3.75923e-39
5.0117e-38
6.0448e-37
6.59788e-36
6.49841e-35
5.76388e-34
4.62369e-33
3.37824e-32
2.25158e-31
1.36172e-30
7.45959e-30
1.35152e-60
3.48296e-58
4.34795e-56
3.56024e-54
2.1525e-52
1.02343e-50
3.97653e-49
1.29576e-47
3.60966e-46
8.72954e-45
1.85522e-43
3.49384e-42
5.85447e-41
8.77076e-40
1.18164e-38
1.43806e-37
1.58735e-36
1.59403e-35
1.45537e-34
1.20507e-33
9.03609e-33
6.13553e-32
3.77282e-31
3.4337e-63
1.01582e-60
1.44819e-58
1.3544e-56
9.3453e-55
5.07162e-53
2.25172e-51
8.39583e-50
2.67761e-48
7.39995e-47
1.79079e-45
3.83311e-44
7.32501e-43
1.25685e-41
1.94209e-40
2.70929e-39
3.41808e-38
3.90251e-37
4.03665e-36
3.78617e-35
3.2174e-34
2.47144e-33
1.71569e-32
6.31975e-66
2.15613e-63
3.55515e-61
3.85002e-59
3.07772e-57
1.93542e-55
9.95349e-54
4.29473e-52
1.58388e-50
5.06518e-49
1.42023e-47
3.52039e-46
7.76218e-45
1.53093e-43
2.7141e-42
4.33996e-41
6.27393e-40
8.21185e-39
9.73397e-38
1.04417e-36
1.01228e-35
8.85415e-35
6.988e-34
7.49304e-69
3.08255e-66
6.03314e-64
7.73584e-62
7.3114e-60
5.43316e-58
3.3008e-56
1.68011e-54
7.29076e-53
2.73403e-51
8.95793e-50
2.58841e-48
6.647e-47
1.52571e-45
3.14338e-44
5.83174e-43
9.76477e-42
1.47757e-40
2.02141e-39
2.49907e-38
2.78796e-37
2.80078e-36
2.53381e-35
5.47938e-72
2.82549e-69
6.71131e-67
1.03442e-64
1.16928e-62
1.03641e-60
7.50672e-59
4.56814e-57
2.37914e-55
1.07275e-53
4.21982e-52
1.4575e-50
4.44962e-49
1.20825e-47
2.93355e-46
6.3941e-45
1.25474e-43
2.2208e-42
3.54742e-41
5.11094e-40
6.63116e-39
7.73108e-38
8.09909e-37
2.05859e-75
1.51744e-72
4.54775e-70
8.55122e-68
1.16015e-65
1.222e-63
1.05074e-61
7.65371e-60
4.83518e-58
2.68078e-56
1.30963e-54
5.63433e-53
2.13272e-51
7.11146e-50
2.09641e-48
5.49453e-47
1.28761e-45
2.70884e-44
5.12621e-43
8.72694e-42
1.33484e-40
1.8303e-39
2.24899e-38
4.05115e-79
5.35385e-76
2.08413e-73
4.78522e-71
7.82391e-69
9.91187e-67
1.02249e-64
8.90633e-63
6.71441e-61
4.45834e-59
2.63415e-57
1.39003e-55
6.54682e-54
2.74712e-52
1.02382e-50
3.37699e-49
9.84572e-48
2.54244e-46
5.84122e-45
1.19924e-43
2.20317e-42
3.61684e-41
5.30212e-40
1.11729e-82
2.86036e-79
1.41439e-76
3.84146e-74
7.26357e-72
1.05359e-69
1.23126e-67
1.19941e-65
9.98889e-64
7.27856e-62
4.73991e-60
2.80089e-58
1.51213e-56
7.46304e-55
3.35761e-53
1.36967e-51
5.03147e-50
1.65232e-48
4.81727e-47
1.24191e-45
2.83086e-44
5.71439e-43
1.02399e-41
4.33247e-85
9.7817e-82
4.74296e-79
1.26252e-76
2.32318e-74
3.26333e-72
3.69371e-70
3.48559e-68
2.81875e-66
1.99796e-64
1.26721e-62
7.33911e-61
3.9451e-59
1.98941e-57
9.46883e-56
4.26151e-54
1.807e-52
7.15193e-51
2.60758e-49
8.62713e-48
2.55446e-46
6.67468e-45
1.52796e-43
1.05547e-86
1.43004e-83
5.74022e-81
1.32946e-78
2.15129e-76
2.66893e-74
2.69085e-72
2.28743e-70
1.6835e-68
1.09519e-66
6.40342e-65
3.41751e-63
1.69206e-61
7.88489e-60
3.50006e-58
1.49702e-56
6.23307e-55
2.54383e-53
1.01845e-51
3.9673e-50
1.47718e-48
5.11417e-47
1.57154e-45
1.61924e-88
1.48338e-85
5.15896e-83
1.09251e-80
1.6522e-78
1.93764e-76
1.85744e-74
1.50893e-72
1.06604e-70
6.67955e-69
3.77077e-67
1.94303e-65
9.25237e-64
4.12304e-62
1.73951e-60
7.036e-59
2.76438e-57
1.06941e-55
4.12905e-54
1.60956e-52
6.36365e-51
2.53531e-49
9.97997e-48
3.88058e-91
3.56764e-88
1.26463e-85
2.73131e-83
4.1981e-81
4.97933e-79
4.78939e-77
3.87044e-75
2.69893e-73
1.65867e-71
9.14344e-70
4.59044e-68
2.12769e-66
9.23253e-65
3.81024e-63
1.51762e-61
5.91699e-60
2.29182e-58
8.95834e-57
3.59235e-55
1.5017e-53
6.62784e-52
3.09135e-50
)
;

boundaryField
{
    leftWall
    {
        type            zeroGradient;
    }
    rightWall
    {
        type            zeroGradient;
    }
    lowerWall
    {
        type            zeroGradient;
    }
    atmosphere
    {
        type            inletOutlet;
        inletValue      uniform 0;
        value           uniform 0;
    }
    defaultFaces
    {
        type            empty;
    }
    procBoundary2to0
    {
        type            processor;
        value           nonuniform List<scalar> 
24
(
7.67915e-19
2.09875e-18
5.58582e-18
1.47497e-17
3.80743e-17
9.74132e-17
2.48388e-16
2.36928e-38
1.10442e-35
1.26778e-33
6.64649e-32
2.09985e-30
4.58217e-29
7.729e-28
1.12564e-26
1.50424e-25
1.71551e-24
1.6517e-23
1.18754e-22
6.41501e-22
2.72437e-21
8.99088e-21
2.44674e-20
2.44674e-20
)
;
    }
    procBoundary2to3
    {
        type            processor;
        value           nonuniform List<scalar> 
25
(
2.94444e-17
2.81392e-18
3.58359e-19
5.56005e-20
7.67858e-21
1.01903e-21
1.22913e-22
1.32928e-23
1.27788e-24
1.09848e-25
8.47148e-27
5.89198e-28
3.70473e-29
2.10651e-30
1.08297e-31
5.02063e-33
2.08835e-34
7.72993e-36
2.51357e-37
7.04122e-39
1.64787e-40
3.08277e-42
4.1548e-44
3.71257e-46
1.48161e-48
)
;
    }
}


// ************************************************************************* //
