/*--------------------------------*- C++ -*----------------------------------*\
| =========                 |                                                 |
| \\      /  F ield         | OpenFOAM: The Open Source CFD Toolbox           |
|  \\    /   O peration     | Version:  2.4.0                                 |
|   \\  /    A nd           | Web:      www.OpenFOAM.org                      |
|    \\/     M anipulation  |                                                 |
\*---------------------------------------------------------------------------*/
FoamFile
{
    version     2.0;
    format      ascii;
    class       volScalarField;
    location    "0.4";
    object      alpha.water;
}
// * * * * * * * * * * * * * * * * * * * * * * * * * * * * * * * * * * * * * //

dimensions      [0 0 0 0 0 0 0];

internalField   nonuniform List<scalar> 
559
(
5.40177e-18
1.13871e-17
2.20976e-17
3.9226e-17
6.03312e-17
7.87143e-17
9.15722e-17
7.80979e-14
1.27737e-13
6.55965e-14
4.16044e-14
2.55514e-14
3.1922e-14
6.60404e-14
1.09099e-13
1.29861e-13
1.19897e-13
9.92586e-14
6.55583e-14
2.84622e-14
7.45314e-15
7.24621e-16
1.05665e-19
2.77814e-19
6.7606e-19
1.51677e-18
3.16471e-18
6.08035e-18
1.04476e-17
1.62704e-17
4.09249e-21
1.53889e-19
2.82608e-18
3.03438e-17
2.00127e-16
8.32565e-16
2.2171e-15
3.73368e-15
3.824e-15
2.29432e-15
8.86932e-16
3.00623e-16
5.7745e-17
5.40375e-18
2.24706e-21
7.60639e-21
2.2854e-20
6.22696e-20
1.57321e-19
3.71381e-19
8.12946e-19
1.58871e-18
2.77115e-18
2.31781e-37
2.70112e-35
1.37041e-33
4.00842e-32
7.8987e-31
1.1531e-29
1.30209e-28
1.18179e-27
8.87892e-27
5.71761e-26
3.31169e-25
1.74805e-24
8.46659e-24
3.81902e-23
1.60791e-22
6.16085e-22
2.14674e-21
6.80046e-21
1.97621e-20
5.20992e-20
1.22225e-19
2.48058e-19
4.4926e-19
1.25438e-38
1.11722e-36
4.74519e-35
1.28107e-33
2.49527e-32
3.7344e-31
4.47901e-30
4.42706e-29
3.72035e-28
2.77192e-27
1.83482e-26
1.10061e-25
6.09626e-25
3.05089e-24
1.36587e-23
5.51431e-23
2.03831e-22
6.90163e-22
2.10076e-21
5.71327e-21
1.38913e-20
3.00634e-20
5.92088e-20
1.46726e-40
1.53405e-38
7.51983e-37
2.29393e-35
4.91087e-34
7.93163e-33
1.0249e-31
1.10713e-30
1.04033e-29
8.65118e-29
6.49129e-28
4.49116e-27
2.81538e-26
1.60072e-25
8.15164e-25
3.70623e-24
1.51341e-23
5.50411e-23
1.77439e-22
5.1866e-22
1.3574e-21
3.21849e-21
7.08747e-21
4.31276e-42
4.05875e-40
1.83357e-38
5.32362e-37
1.12685e-35
1.86882e-34
2.55129e-33
2.98647e-32
3.10511e-31
2.95518e-30
2.5787e-29
1.9738e-28
1.32141e-27
7.96172e-27
4.29759e-26
2.0675e-25
8.89542e-25
3.45484e-24
1.22672e-23
3.95418e-23
1.15088e-22
3.07047e-22
7.67023e-22
2.97688e-44
3.09873e-42
1.56339e-40
5.10771e-39
1.23379e-37
2.38043e-36
3.85526e-35
5.40502e-34
6.64928e-33
7.14888e-32
6.70182e-31
5.55371e-30
4.15362e-29
2.75828e-28
1.63484e-27
8.83657e-27
4.3513e-26
1.93997e-25
7.736e-25
2.73673e-24
8.90285e-24
2.70362e-23
7.57116e-23
2.74443e-46
3.19951e-44
1.82032e-42
6.75288e-41
1.84474e-39
3.95814e-38
6.94441e-37
1.02734e-35
1.31266e-34
1.47816e-33
1.50017e-32
1.39608e-31
1.18101e-30
9.0142e-30
6.18071e-29
3.70701e-28
1.95733e-27
9.33607e-27
4.08088e-26
1.65425e-25
6.20413e-25
2.12389e-24
6.57728e-24
1.66724e-48
2.07681e-46
1.26655e-44
5.07605e-43
1.521e-41
3.66903e-40
7.46231e-39
1.31279e-37
2.02318e-36
2.74508e-35
3.26175e-34
3.37909e-33
3.05117e-32
2.44024e-31
1.74943e-30
1.1533e-29
7.07111e-29
3.97529e-28
2.0318e-27
9.37223e-27
3.87969e-26
1.47059e-25
5.09064e-25
9.28677e-51
1.30423e-48
8.98191e-47
4.0797e-45
1.38138e-43
3.72152e-42
8.30266e-41
1.5751e-39
2.58377e-38
3.71049e-37
4.7387e-36
5.47341e-35
5.75891e-34
5.49848e-33
4.7658e-32
3.72047e-31
2.5754e-30
1.5893e-29
8.85857e-29
4.52685e-28
2.13066e-27
9.09307e-27
3.48787e-26
3.19998e-53
5.12305e-51
4.05825e-49
2.13811e-47
8.46017e-46
2.67969e-44
7.05224e-43
1.57832e-41
3.05339e-40
5.17116e-39
7.72245e-38
1.01877e-36
1.19128e-35
1.24059e-34
1.15684e-33
9.73841e-33
7.49945e-32
5.30041e-31
3.42261e-30
1.99728e-29
1.04868e-28
4.98071e-28
2.13494e-27
1.10996e-55
2.03752e-53
1.84084e-51
1.10338e-49
4.94248e-48
1.76408e-46
5.21646e-45
1.31066e-43
2.84528e-42
5.39671e-41
9.01909e-40
1.33941e-38
1.78675e-37
2.15248e-36
2.34503e-35
2.3098e-34
2.05031e-33
1.63603e-32
1.17758e-31
7.69143e-31
4.56049e-30
2.43837e-29
1.17043e-28
2.67837e-58
5.72061e-56
6.03323e-54
4.23277e-52
2.22156e-50
9.27705e-49
3.19747e-47
9.31757e-46
2.33595e-44
5.10786e-43
9.84697e-42
1.68561e-40
2.57012e-39
3.50428e-38
4.29412e-37
4.74691e-36
4.74985e-35
4.31257e-34
3.54871e-33
2.63821e-32
1.76746e-31
1.0651e-30
5.75799e-30
5.28557e-61
1.33393e-58
1.64903e-56
1.35271e-54
8.26985e-53
4.01088e-51
1.60279e-49
5.4095e-48
1.5684e-46
3.95311e-45
8.74325e-44
1.71235e-42
2.99485e-41
4.701e-40
6.63851e-39
8.45038e-38
9.7078e-37
1.00661e-35
9.42518e-35
7.96931e-34
6.07278e-33
4.1542e-32
2.54334e-31
7.9104e-64
2.35702e-61
3.43932e-59
3.32523e-57
2.39114e-55
1.36113e-53
6.36887e-52
2.51036e-50
8.48291e-49
2.49086e-47
6.42098e-46
1.4641e-44
2.96939e-43
5.38327e-42
8.7614e-41
1.28381e-39
1.69672e-38
2.02445e-37
2.17989e-36
2.11516e-35
1.84489e-34
1.44163e-33
1.0064e-32
7.94826e-67
2.90389e-64
5.10482e-62
5.91961e-60
5.08877e-58
3.45552e-56
1.92555e-54
9.01628e-53
3.60718e-51
1.24893e-49
3.78113e-48
1.00969e-46
2.39511e-45
5.07331e-44
9.63132e-43
1.64321e-41
2.52397e-40
3.49292e-39
4.35457e-38
4.88448e-37
4.91712e-36
4.42595e-35
3.55143e-34
5.09276e-70
2.35932e-67
5.08899e-65
7.16381e-63
7.42943e-61
6.06345e-59
4.05488e-57
2.28267e-55
1.10119e-53
4.6029e-52
1.67914e-50
5.37826e-49
1.5218e-47
3.82582e-46
8.58612e-45
1.72627e-43
3.11661e-42
5.05922e-41
7.38457e-40
9.67894e-39
1.13621e-37
1.19008e-36
1.10864e-35
1.72806e-73
1.14871e-70
3.1523e-68
5.46008e-66
6.85141e-64
6.69294e-62
5.34615e-60
3.62054e-58
2.12714e-56
1.09674e-54
4.98098e-53
1.99118e-51
6.99839e-50
2.16464e-48
5.91102e-47
1.43233e-45
3.09552e-44
5.98724e-43
1.0378e-41
1.6111e-40
2.23492e-39
2.75975e-38
3.02282e-37
3.11154e-77
3.69685e-74
1.32765e-71
2.82865e-69
4.30477e-67
5.08712e-65
4.90295e-63
3.99406e-61
2.81709e-59
1.74954e-57
9.66014e-56
4.75755e-54
2.08771e-52
8.14562e-51
2.81653e-49
8.59904e-48
2.31482e-46
5.50355e-45
1.1602e-43
2.17628e-42
3.63334e-41
5.38305e-40
7.05067e-39
7.25939e-81
1.69982e-77
7.86803e-75
2.00978e-72
3.58299e-70
4.90796e-68
5.42174e-66
4.99443e-64
3.93261e-62
2.70706e-60
1.66295e-58
9.25053e-57
4.68915e-55
2.16644e-53
9.0934e-52
3.44811e-50
1.17284e-48
3.55185e-47
9.51012e-46
2.24192e-44
4.64961e-43
8.48422e-42
1.36126e-40
2.24013e-83
4.82795e-80
2.23972e-77
5.70862e-75
1.00621e-72
1.3539e-70
1.46745e-68
1.32518e-66
1.02456e-64
6.93397e-63
4.19211e-61
2.30933e-59
1.17763e-57
5.61546e-56
2.51765e-54
1.06257e-52
4.2038e-51
1.54377e-49
5.19141e-48
1.57426e-46
4.24451e-45
1.00276e-43
2.05708e-42
4.72063e-85
6.18615e-82
2.40101e-79
5.37538e-77
8.40486e-75
1.00698e-72
9.79732e-71
8.02971e-69
5.6914e-67
3.56097e-65
1.99931e-63
1.02272e-61
4.8426e-60
2.15239e-58
9.08398e-57
3.67986e-55
1.44441e-53
5.52629e-52
2.06046e-50
7.41767e-49
2.5305e-47
7.95187e-46
2.19519e-44
6.82962e-87
6.07626e-84
2.0515e-81
4.2155e-79
6.18214e-77
7.02559e-75
6.5203e-73
5.12269e-71
3.49558e-69
2.11235e-67
1.14808e-65
5.68447e-64
2.59517e-62
1.10594e-60
4.44936e-59
1.71055e-57
6.36384e-56
2.32099e-54
8.40455e-53
3.05301e-51
1.1159e-49
4.06887e-48
1.4471e-46
1.70426e-89
1.52898e-86
5.28861e-84
1.11429e-81
1.67018e-79
1.93076e-77
1.80872e-75
1.42227e-73
9.63882e-72
5.74864e-70
3.06974e-68
1.48964e-66
6.65617e-65
2.77565e-63
1.09677e-61
4.1644e-60
1.54001e-58
5.62491e-57
2.0598e-55
7.68174e-54
2.96249e-52
1.19571e-50
5.05112e-49
)
;

boundaryField
{
    leftWall
    {
        type            zeroGradient;
    }
    rightWall
    {
        type            zeroGradient;
    }
    lowerWall
    {
        type            zeroGradient;
    }
    atmosphere
    {
        type            inletOutlet;
        inletValue      uniform 0;
        value           uniform 0;
    }
    defaultFaces
    {
        type            empty;
    }
    procBoundary2to0
    {
        type            processor;
        value           nonuniform List<scalar> 
24
(
1.13592e-16
2.37453e-16
4.49801e-16
7.4248e-16
9.94288e-16
1.03695e-15
8.1294e-16
1.1327e-12
1.61185e-12
8.22117e-13
5.3937e-13
4.05073e-13
4.04777e-13
5.64187e-13
7.72979e-13
8.51052e-13
7.74691e-13
6.24179e-13
3.83746e-13
1.58871e-13
4.11502e-14
4.12474e-15
2.37875e-18
2.37875e-18
)
;
    }
    procBoundary2to3
    {
        type            processor;
        value           nonuniform List<scalar> 
25
(
1.03226e-16
2.36267e-17
4.43144e-18
7.55265e-19
1.08845e-19
1.45341e-20
1.75893e-21
1.90973e-22
1.83594e-23
1.56964e-24
1.19613e-25
8.17301e-27
5.02627e-28
2.7869e-29
1.39479e-30
6.29338e-32
2.55117e-33
9.23318e-35
2.95243e-36
8.20061e-38
1.92524e-39
3.65828e-41
5.14134e-43
4.7789e-45
2.16868e-47
)
;
    }
}


// ************************************************************************* //
