/*--------------------------------*- C++ -*----------------------------------*\
| =========                 |                                                 |
| \\      /  F ield         | OpenFOAM: The Open Source CFD Toolbox           |
|  \\    /   O peration     | Version:  2.4.0                                 |
|   \\  /    A nd           | Web:      www.OpenFOAM.org                      |
|    \\/     M anipulation  |                                                 |
\*---------------------------------------------------------------------------*/
FoamFile
{
    version     2.0;
    format      ascii;
    class       volScalarField;
    location    "0.4";
    object      p;
}
// * * * * * * * * * * * * * * * * * * * * * * * * * * * * * * * * * * * * * //

dimensions      [1 -1 -2 0 0 0 0];

internalField   nonuniform List<scalar> 
559
(
3.38815
3.37966
3.37157
3.36377
3.35652
3.35037
3.34485
3.28638
3.28648
3.28677
3.28724
3.28781
3.28842
3.28885
3.28902
3.28874
3.28783
3.28569
3.28254
3.27858
3.2741
3.26863
3.26255
3.2565
3.25025
3.24459
3.23938
3.23472
3.23123
3.229
3.14702
3.14712
3.14734
3.14763
3.14796
3.14825
3.14846
3.14844
3.14809
3.14719
3.1456
3.14312
3.13993
3.13628
3.1323
3.12819
3.12396
3.11992
3.11619
3.1129
3.11047
3.10915
3.1092
3.00745
3.00755
3.0077
3.00793
3.00818
3.00837
3.00848
3.00842
3.00806
3.00729
3.00603
3.00432
3.0022
2.99962
2.99694
2.99429
2.99158
2.9891
2.98713
2.9858
2.98545
2.98604
2.98824
2.86776
2.86782
2.86795
2.86812
2.86833
2.86851
2.8686
2.86853
2.86823
2.86763
2.8667
2.86552
2.86424
2.86273
2.86116
2.8595
2.85806
2.85711
2.85667
2.85688
2.85806
2.86047
2.86478
2.72805
2.72811
2.72822
2.72835
2.72851
2.72865
2.72873
2.72874
2.72859
2.72828
2.72791
2.7274
2.72666
2.72582
2.72507
2.7245
2.72432
2.72459
2.72533
2.72704
2.72964
2.73345
2.73907
2.58823
2.58827
2.58837
2.58851
2.58866
2.58882
2.58896
2.58907
2.58913
2.58915
2.58909
2.58897
2.58881
2.58873
2.58874
2.58907
2.58984
2.59107
2.59302
2.59592
2.59979
2.60486
2.61159
2.44826
2.44832
2.44844
2.4486
2.44881
2.44903
2.44924
2.44946
2.44967
2.44987
2.45003
2.45026
2.45067
2.45122
2.45198
2.45315
2.45468
2.45678
2.45965
2.46337
2.46823
2.47428
2.48197
2.30829
2.30836
2.30848
2.30867
2.3089
2.30916
2.30948
2.30983
2.31022
2.31065
2.31116
2.31176
2.31253
2.31353
2.31489
2.31659
2.31875
2.32163
2.32523
2.32977
2.33535
2.34219
2.35049
2.16823
2.1683
2.16843
2.16864
2.16891
2.16926
2.16967
2.17014
2.17068
2.17131
2.17207
2.17299
2.17413
2.17555
2.17729
2.1795
2.18229
2.18562
2.18978
2.19487
2.20095
2.20837
2.21719
2.02807
2.02815
2.0283
2.02853
2.02885
2.02924
2.02972
2.03028
2.03095
2.03176
2.03273
2.03392
2.03534
2.03707
2.03919
2.04179
2.04491
2.04865
2.0532
2.05868
2.06526
2.07301
2.08213
1.88785
1.88793
1.8881
1.88836
1.8887
1.88913
1.88967
1.89032
1.89111
1.89207
1.89321
1.89456
1.89617
1.89812
1.90048
1.9033
1.9067
1.9108
1.91567
1.92143
1.92821
1.93616
1.94541
1.74752
1.74761
1.74779
1.74807
1.74844
1.74892
1.74951
1.75024
1.75111
1.75216
1.75339
1.75487
1.75667
1.75881
1.76134
1.76435
1.76793
1.77216
1.77717
1.78305
1.78991
1.79788
1.80711
1.60706
1.60716
1.60735
1.60763
1.60802
1.60853
1.60916
1.60992
1.61085
1.61196
1.6133
1.61489
1.61678
1.619
1.62163
1.62475
1.62842
1.63272
1.63775
1.64361
1.65041
1.65826
1.6673
1.46654
1.46663
1.46683
1.46712
1.46753
1.46804
1.46869
1.46948
1.47043
1.47157
1.47295
1.47458
1.4765
1.47877
1.48144
1.48456
1.48822
1.49248
1.49744
1.50317
1.50979
1.51738
1.52608
1.32587
1.32596
1.32616
1.32645
1.32686
1.32738
1.32803
1.32882
1.32979
1.33095
1.33233
1.33396
1.33587
1.33812
1.34075
1.34382
1.34739
1.35152
1.3563
1.3618
1.36812
1.37534
1.38356
1.18513
1.18522
1.18542
1.1857
1.18609
1.1866
1.18723
1.188
1.18895
1.19008
1.19143
1.19302
1.19487
1.19705
1.19959
1.20253
1.20594
1.20987
1.21439
1.21957
1.22549
1.23223
1.23986
1.0443
1.04439
1.04458
1.04484
1.04522
1.0457
1.04631
1.04706
1.04796
1.04904
1.05031
1.0518
1.05355
1.0556
1.05799
1.06075
1.06393
1.06759
1.07179
1.07657
1.082
1.08816
1.09511
0.903396
0.903472
0.903641
0.903883
0.904229
0.904681
0.905251
0.905943
0.906776
0.907759
0.908922
0.910302
0.911936
0.913834
0.916025
0.918536
0.921429
0.924759
0.928558
0.932871
0.937756
0.943264
0.949447
0.762414
0.762463
0.762614
0.76282
0.76312
0.763509
0.764
0.76461
0.76536
0.766252
0.767313
0.768564
0.770016
0.771689
0.773624
0.775878
0.778487
0.781451
0.784794
0.78858
0.79286
0.797659
0.803012
0.621307
0.621329
0.621455
0.621621
0.621871
0.622198
0.622616
0.623133
0.623759
0.624521
0.625431
0.626508
0.627774
0.629257
0.630965
0.632921
0.635128
0.637631
0.640507
0.643778
0.647432
0.65148
0.655961
0.480097
0.480101
0.480196
0.480323
0.480523
0.480792
0.481134
0.481559
0.482077
0.482702
0.48345
0.484336
0.485377
0.486588
0.487995
0.48961
0.491457
0.49356
0.495928
0.498563
0.501496
0.504798
0.508436
0.339019
0.338971
0.339031
0.339118
0.339262
0.339458
0.339713
0.340033
0.340422
0.340889
0.341446
0.342105
0.342879
0.343785
0.344842
0.346069
0.347484
0.349107
0.35096
0.353031
0.355318
0.357817
0.360519
0.198173
0.198133
0.198151
0.198182
0.198245
0.198335
0.198459
0.198621
0.198829
0.199091
0.199414
0.199807
0.20028
0.200847
0.201532
0.202353
0.203317
0.204427
0.205675
0.207074
0.208645
0.210379
0.212275
0.0571941
0.0571766
0.0571555
0.0571175
0.0570811
0.0570475
0.0570235
0.057018
0.0570397
0.0570967
0.0571958
0.0573426
0.0575439
0.0578088
0.0581421
0.058548
0.0590329
0.0596051
0.0602759
0.0610628
0.0619659
0.0629748
0.0640693
)
;

boundaryField
{
    leftWall
    {
        type            fixedFluxPressure;
        gradient        uniform 0;
        value           nonuniform List<scalar> 
24
(
3.28638
3.14702
3.00745
2.86776
2.72805
2.58823
2.44826
2.30829
2.16823
2.02807
1.88785
1.74752
1.60706
1.46654
1.32587
1.18513
1.0443
0.903396
0.762414
0.621307
0.480097
0.339019
0.198173
0.0571941
)
;
    }
    rightWall
    {
        type            fixedFluxPressure;
        gradient        nonuniform 0();
        value           nonuniform 0();
    }
    lowerWall
    {
        type            fixedFluxPressure;
        gradient        nonuniform 0();
        value           nonuniform 0();
    }
    atmosphere
    {
        type            totalPressure;
        U               U.air;
        phi             phi.air;
        rho             rho;
        psi             none;
        gamma           1;
        p0              uniform 0;
        value           nonuniform List<scalar> 
23
(
-0.0138645
-0.0142863
-0.0143068
-0.0143383
-0.0143619
-0.0143805
-0.0143889
-0.0143824
-0.0143564
-0.0143062
-0.0142275
-0.0141159
-0.013967
-0.0137749
-0.0135346
-0.013244
-0.0129024
-0.0125087
-0.0120614
-0.0115601
-0.0110047
-0.0103973
-0.00975277
)
;
    }
    defaultFaces
    {
        type            empty;
    }
    procBoundary2to0
    {
        type            processor;
        value           nonuniform List<scalar> 
24
(
3.51742
3.50674
3.49689
3.48709
3.478
3.46954
3.46135
3.4256
3.42567
3.426
3.42668
3.42756
3.42863
3.42969
3.43025
3.43017
3.42976
3.42736
3.42344
3.41794
3.4113
3.40368
3.39592
3.39592
)
;
    }
    procBoundary2to3
    {
        type            processor;
        value           nonuniform List<scalar> 
25
(
3.34123
3.22837
3.1107
2.99122
2.86922
2.74459
2.61795
2.48892
2.3579
2.2249
2.09001
1.95333
1.81493
1.67492
1.53339
1.39044
1.24622
1.10087
0.95454
0.807395
0.659605
0.511339
0.362662
0.213753
0.0648556
)
;
    }
}


// ************************************************************************* //
