/*--------------------------------*- C++ -*----------------------------------*\
| =========                 |                                                 |
| \\      /  F ield         | OpenFOAM: The Open Source CFD Toolbox           |
|  \\    /   O peration     | Version:  2.4.0                                 |
|   \\  /    A nd           | Web:      www.OpenFOAM.org                      |
|    \\/     M anipulation  |                                                 |
\*---------------------------------------------------------------------------*/
FoamFile
{
    version     2.0;
    format      ascii;
    class       surfaceScalarField;
    location    "0.4";
    object      phi;
}
// * * * * * * * * * * * * * * * * * * * * * * * * * * * * * * * * * * * * * //

dimensions      [0 3 -1 0 0 0 0];

internalField   nonuniform List<scalar> 
1070
(
-2.31689e-05
-4.60966e-05
-2.46722e-05
-4.44011e-05
-2.52649e-05
-4.23284e-05
-2.57903e-05
-3.9013e-05
-2.7414e-05
-3.67142e-05
-2.97013e-05
-3.57526e-05
-3.35996e-05
-4.0528e-07
-3.81865e-05
-8.45695e-07
-4.1334e-05
-1.23105e-06
-4.14651e-05
-1.66545e-06
-4.17325e-05
-2.24664e-06
-4.18403e-05
-2.77203e-06
-4.20226e-05
-3.24352e-06
-4.21482e-05
-3.69292e-06
-4.22885e-05
-4.14225e-06
-4.22904e-05
-4.60454e-06
-4.22357e-05
-5.30895e-06
-4.24013e-05
-6.30192e-06
-4.30518e-05
-8.30664e-06
-4.36171e-05
-1.08028e-05
-4.40471e-05
-1.34186e-05
-4.4453e-05
-1.67316e-05
-4.40417e-05
-1.96049e-05
-4.32233e-05
-2.20173e-05
-4.19886e-05
-2.38837e-05
-4.0462e-05
-2.52878e-05
-3.76089e-05
-2.76231e-05
-3.43789e-05
-3.05243e-05
-3.28513e-05
-3.17543e-05
-3.45431e-07
-3.78411e-05
-7.34686e-07
-4.09448e-05
-1.21012e-06
-4.09897e-05
-1.86754e-06
-4.1075e-05
-2.59668e-06
-4.11111e-05
-3.41929e-06
-4.12e-05
-4.24901e-06
-4.13185e-05
-5.11931e-06
-4.14182e-05
-5.89107e-06
-4.15187e-05
-6.35411e-06
-4.17727e-05
-6.73455e-06
-4.20209e-05
-7.58623e-06
-4.22001e-05
-8.9577e-06
-4.22456e-05
-1.06137e-05
-4.23911e-05
-1.28588e-05
-4.2208e-05
-1.56955e-05
-4.1205e-05
-1.83652e-05
-4.05537e-05
-2.0539e-05
-3.98147e-05
-2.24763e-05
-3.85247e-05
-2.39087e-05
-3.61765e-05
-2.54103e-05
-3.28773e-05
-2.71272e-05
-3.11345e-05
-3.03461e-05
-3.40168e-07
-3.75009e-05
-9.01855e-07
-4.03831e-05
-1.57688e-06
-4.03147e-05
-2.26278e-06
-4.03891e-05
-2.94249e-06
-4.04314e-05
-3.6876e-06
-4.04549e-05
-4.48768e-06
-4.05184e-05
-5.3575e-06
-4.05484e-05
-6.2624e-06
-4.06138e-05
-7.14077e-06
-4.08943e-05
-8.15103e-06
-4.10106e-05
-9.33515e-06
-4.1016e-05
-1.06788e-05
-4.0902e-05
-1.21781e-05
-4.08917e-05
-1.39669e-05
-4.04192e-05
-1.56168e-05
-3.95551e-05
-1.74594e-05
-3.8711e-05
-1.9407e-05
-3.78672e-05
-2.14658e-05
-3.64659e-05
-2.33339e-05
-3.43084e-05
-2.49729e-05
-3.12383e-05
-2.61271e-05
-2.99803e-05
-2.95474e-05
-4.95502e-07
-3.70054e-05
-1.0382e-06
-3.98404e-05
-1.55972e-06
-3.97932e-05
-2.10238e-06
-3.98465e-05
-2.68613e-06
-3.98477e-05
-3.32077e-06
-3.98202e-05
-4.04998e-06
-3.97892e-05
-4.86296e-06
-3.97354e-05
-5.71321e-06
-3.97635e-05
-6.83658e-06
-3.9771e-05
-7.98911e-06
-3.98581e-05
-9.14545e-06
-3.98597e-05
-1.05596e-05
-3.94879e-05
-1.22112e-05
-3.92401e-05
-1.3775e-05
-3.88554e-05
-1.5043e-05
-3.82871e-05
-1.63187e-05
-3.74354e-05
-1.799e-05
-3.61959e-05
-1.96349e-05
-3.48209e-05
-2.09661e-05
-3.29773e-05
-2.17826e-05
-3.04218e-05
-2.26598e-05
-2.91031e-05
-2.8534e-05
-3.90704e-07
-3.66147e-05
-8.93468e-07
-3.93376e-05
-1.43023e-06
-3.92564e-05
-2.0235e-06
-3.92532e-05
-2.64297e-06
-3.92282e-05
-3.25679e-06
-3.92064e-05
-3.87624e-06
-3.91698e-05
-4.49443e-06
-3.91172e-05
-5.22293e-06
-3.9035e-05
-6.05496e-06
-3.89389e-05
-6.99153e-06
-3.89215e-05
-8.12334e-06
-3.87279e-05
-9.16727e-06
-3.84439e-05
-1.04265e-05
-3.79808e-05
-1.18643e-05
-3.74176e-05
-1.34038e-05
-3.67475e-05
-1.50915e-05
-3.57477e-05
-1.66962e-05
-3.45912e-05
-1.78808e-05
-3.36363e-05
-1.91534e-05
-3.17046e-05
-1.99076e-05
-2.96676e-05
-2.05215e-05
-2.84892e-05
-2.74798e-05
-5.43724e-07
-3.6071e-05
-1.1475e-06
-3.87338e-05
-1.72945e-06
-3.86745e-05
-2.31507e-06
-3.86676e-05
-2.91548e-06
-3.86278e-05
-3.5466e-06
-3.85753e-05
-4.20349e-06
-3.85129e-05
-4.86763e-06
-3.84531e-05
-5.51922e-06
-3.83834e-05
-6.27961e-06
-3.81785e-05
-7.41258e-06
-3.77885e-05
-8.60076e-06
-3.75397e-05
-9.63407e-06
-3.74106e-05
-1.07013e-05
-3.69136e-05
-1.1825e-05
-3.6294e-05
-1.29978e-05
-3.55746e-05
-1.4055e-05
-3.46905e-05
-1.49683e-05
-3.36779e-05
-1.61526e-05
-3.2452e-05
-1.71559e-05
-3.07014e-05
-1.7812e-05
-2.90115e-05
-1.84625e-05
-2.78387e-05
-2.64391e-05
-4.13044e-07
-3.5658e-05
-9.17269e-07
-3.82296e-05
-1.44422e-06
-3.81475e-05
-1.99275e-06
-3.81191e-05
-2.55551e-06
-3.8065e-05
-3.13593e-06
-3.79949e-05
-3.74821e-06
-3.79006e-05
-4.42033e-06
-3.7781e-05
-5.20124e-06
-3.76025e-05
-6.04072e-06
-3.73391e-05
-6.82803e-06
-3.70012e-05
-7.61622e-06
-3.67515e-05
-8.69715e-06
-3.63297e-05
-9.79027e-06
-3.58205e-05
-1.07268e-05
-3.53574e-05
-1.16619e-05
-3.46396e-05
-1.26776e-05
-3.36748e-05
-1.38865e-05
-3.2469e-05
-1.51339e-05
-3.12045e-05
-1.57768e-05
-3.00585e-05
-1.61964e-05
-2.85919e-05
-1.68984e-05
-2.71366e-05
-2.56248e-05
-4.55207e-07
-3.52028e-05
-9.81553e-07
-3.77033e-05
-1.51899e-06
-3.76101e-05
-2.08942e-06
-3.75486e-05
-2.69897e-06
-3.74555e-05
-3.3468e-06
-3.7347e-05
-4.0177e-06
-3.72297e-05
-4.71184e-06
-3.70868e-05
-5.41683e-06
-3.68975e-05
-6.08234e-06
-3.66735e-05
-6.70013e-06
-3.63834e-05
-7.42863e-06
-3.6023e-05
-8.21277e-06
-3.55456e-05
-9.08743e-06
-3.49458e-05
-1.02664e-05
-3.41784e-05
-1.13574e-05
-3.35486e-05
-1.22061e-05
-3.28262e-05
-1.28746e-05
-3.18005e-05
-1.33986e-05
-3.06805e-05
-1.40048e-05
-2.94523e-05
-1.46681e-05
-2.79286e-05
-1.53256e-05
-2.64791e-05
-2.51329e-05
-4.38909e-07
-3.47639e-05
-9.33924e-07
-3.72083e-05
-1.41873e-06
-3.71253e-05
-1.90028e-06
-3.70671e-05
-2.37839e-06
-3.69774e-05
-2.87055e-06
-3.68549e-05
-3.40235e-06
-3.66979e-05
-3.98476e-06
-3.65044e-05
-4.6273e-06
-3.6255e-05
-5.37652e-06
-3.59243e-05
-6.23021e-06
-3.55297e-05
-7.14429e-06
-3.51089e-05
-7.98092e-06
-3.47089e-05
-8.74286e-06
-3.41839e-05
-9.30287e-06
-3.36184e-05
-9.88313e-06
-3.29683e-05
-1.06245e-05
-3.20848e-05
-1.14009e-05
-3.10242e-05
-1.22274e-05
-2.98539e-05
-1.30009e-05
-2.86789e-05
-1.33749e-05
-2.75546e-05
-1.36495e-05
-2.62045e-05
-2.46812e-05
-4.28877e-07
-3.4335e-05
-9.22352e-07
-3.67148e-05
-1.421e-06
-3.66266e-05
-1.94052e-06
-3.65476e-05
-2.48158e-06
-3.64363e-05
-3.0384e-06
-3.6298e-05
-3.60674e-06
-3.61296e-05
-4.18995e-06
-3.59212e-05
-4.77863e-06
-3.56663e-05
-5.33297e-06
-3.537e-05
-5.83857e-06
-3.50241e-05
-6.36656e-06
-3.45809e-05
-6.9992e-06
-3.40763e-05
-7.67503e-06
-3.3508e-05
-8.45512e-06
-3.28383e-05
-9.36334e-06
-3.20601e-05
-1.01523e-05
-3.12958e-05
-1.07523e-05
-3.04241e-05
-1.11311e-05
-2.94752e-05
-1.1422e-05
-2.8388e-05
-1.18543e-05
-2.71223e-05
-1.22395e-05
-2.58193e-05
-2.44733e-05
-3.80014e-07
-3.3955e-05
-8.06379e-07
-3.62884e-05
-1.22979e-06
-3.62032e-05
-1.66404e-06
-3.61133e-05
-2.11522e-06
-3.59851e-05
-2.59248e-06
-3.58208e-05
-3.10372e-06
-3.56183e-05
-3.64922e-06
-3.53757e-05
-4.22593e-06
-3.50896e-05
-4.84371e-06
-3.47522e-05
-5.51173e-06
-3.43561e-05
-6.18921e-06
-3.39035e-05
-6.84485e-06
-3.34207e-05
-7.46856e-06
-3.28843e-05
-8.01937e-06
-3.22875e-05
-8.44973e-06
-3.16298e-05
-8.88035e-06
-3.08652e-05
-9.34445e-06
-2.996e-05
-9.88068e-06
-2.8939e-05
-1.03779e-05
-2.78908e-05
-1.0661e-05
-2.68391e-05
-1.08241e-05
-2.56562e-05
-2.43487e-05
-3.78462e-07
-3.35765e-05
-8.05938e-07
-3.5861e-05
-1.23085e-06
-3.57783e-05
-1.66658e-06
-3.56776e-05
-2.11168e-06
-3.554e-05
-2.56609e-06
-3.53664e-05
-3.03034e-06
-3.51541e-05
-3.50543e-06
-3.49006e-05
-3.99159e-06
-3.46034e-05
-4.48505e-06
-3.42588e-05
-4.97732e-06
-3.38639e-05
-5.45812e-06
-3.34227e-05
-5.94992e-06
-3.29289e-05
-6.46409e-06
-3.23702e-05
-7.005e-06
-3.17466e-05
-7.58241e-06
-3.10523e-05
-8.15105e-06
-3.02965e-05
-8.62106e-06
-2.94901e-05
-8.94681e-06
-2.86132e-05
-9.18805e-06
-2.76495e-05
-9.41451e-06
-2.66127e-05
-9.55551e-06
-2.55152e-05
-2.43325e-05
-3.29288e-07
-3.32472e-05
-6.99471e-07
-3.54908e-05
-1.06849e-06
-3.54093e-05
-1.45083e-06
-3.52953e-05
-1.84963e-06
-3.51412e-05
-2.26816e-06
-3.49479e-05
-2.70686e-06
-3.47154e-05
-3.16256e-06
-3.4445e-05
-3.62946e-06
-3.41365e-05
-4.10221e-06
-3.3786e-05
-4.5821e-06
-3.3384e-05
-5.07611e-06
-3.29287e-05
-5.57079e-06
-3.24342e-05
-6.04495e-06
-3.1896e-05
-6.49027e-06
-3.13013e-05
-6.89461e-06
-3.0648e-05
-7.25788e-06
-2.99333e-05
-7.60042e-06
-2.91475e-05
-7.91723e-06
-2.82964e-05
-8.16904e-06
-2.73977e-05
-8.32244e-06
-2.64593e-05
-8.37612e-06
-2.54615e-05
-2.43849e-05
-3.00111e-07
-3.29471e-05
-6.40381e-07
-3.51505e-05
-9.77924e-07
-3.50717e-05
-1.32722e-06
-3.4946e-05
-1.68779e-06
-3.47807e-05
-2.06099e-06
-3.45747e-05
-2.4482e-06
-3.43282e-05
-2.85024e-06
-3.40429e-05
-3.26832e-06
-3.37185e-05
-3.69806e-06
-3.33563e-05
-4.12569e-06
-3.29563e-05
-4.54013e-06
-3.25142e-05
-4.95031e-06
-3.2024e-05
-5.36127e-06
-3.1485e-05
-5.76321e-06
-3.08994e-05
-6.14665e-06
-3.02646e-05
-6.50042e-06
-2.95795e-05
-6.80133e-06
-2.88466e-05
-7.03393e-06
-2.80638e-05
-7.19977e-06
-2.72319e-05
-7.29868e-06
-2.63604e-05
-7.30772e-06
-2.54525e-05
-2.449e-05
-2.58912e-07
-3.26882e-05
-5.54505e-07
-3.48549e-05
-8.49446e-07
-3.47768e-05
-1.15674e-06
-3.46387e-05
-1.47661e-06
-3.44608e-05
-1.81095e-06
-3.42403e-05
-2.16112e-06
-3.3978e-05
-2.52469e-06
-3.36793e-05
-2.89729e-06
-3.33459e-05
-3.27659e-06
-3.2977e-05
-3.66189e-06
-3.2571e-05
-4.04977e-06
-3.21263e-05
-4.43078e-06
-3.1643e-05
-4.79609e-06
-3.11197e-05
-5.14169e-06
-3.05538e-05
-5.46129e-06
-2.9945e-05
-5.74659e-06
-2.92942e-05
-5.99169e-06
-2.86015e-05
-6.18652e-06
-2.7869e-05
-6.31774e-06
-2.71007e-05
-6.37393e-06
-2.63042e-05
-6.3426e-06
-2.54838e-05
-2.46295e-05
-2.09079e-07
-3.24791e-05
-4.61517e-07
-3.46025e-05
-7.13611e-07
-3.45247e-05
-9.77744e-07
-3.43745e-05
-1.25318e-06
-3.41854e-05
-1.54247e-06
-3.3951e-05
-1.8498e-06
-3.36707e-05
-2.1742e-06
-3.3355e-05
-2.51217e-06
-3.30079e-05
-2.8584e-06
-3.26307e-05
-3.20625e-06
-3.22232e-05
-3.55008e-06
-3.17825e-05
-3.88734e-06
-3.13057e-05
-4.21308e-06
-3.0794e-05
-4.52048e-06
-3.02464e-05
-4.80272e-06
-2.96628e-05
-5.05215e-06
-2.90448e-05
-5.25898e-06
-2.83947e-05
-5.41417e-06
-2.77138e-05
-5.50925e-06
-2.70056e-05
-5.53589e-06
-2.62775e-05
-5.48127e-06
-2.55384e-05
-2.47859e-05
-1.58447e-07
-3.23207e-05
-3.72265e-07
-3.43887e-05
-5.86567e-07
-3.43104e-05
-8.0989e-07
-3.41512e-05
-1.03933e-06
-3.39559e-05
-1.2728e-06
-3.37176e-05
-1.51129e-06
-3.34322e-05
-1.76462e-06
-3.31016e-05
-2.04314e-06
-3.27294e-05
-2.34871e-06
-3.23252e-05
-2.6746e-06
-3.18973e-05
-3.00534e-06
-3.14518e-05
-3.327e-06
-3.09841e-05
-3.63216e-06
-3.04888e-05
-3.91477e-06
-2.99637e-05
-4.16934e-06
-2.94082e-05
-4.38945e-06
-2.88247e-05
-4.56778e-06
-2.82164e-05
-4.69821e-06
-2.75834e-05
-4.77257e-06
-2.69312e-05
-4.78251e-06
-2.62676e-05
-4.71793e-06
-2.5603e-05
-2.49423e-05
-9.83816e-08
-3.22223e-05
-2.94542e-07
-3.41925e-05
-4.88182e-07
-3.41168e-05
-6.84064e-07
-3.39553e-05
-8.80672e-07
-3.37593e-05
-1.07221e-06
-3.3526e-05
-1.25391e-06
-3.32505e-05
-1.43064e-06
-3.29249e-05
-1.61336e-06
-3.25467e-05
-1.81647e-06
-3.21221e-05
-2.05279e-06
-3.1661e-05
-2.32877e-06
-3.11758e-05
-2.6367e-06
-3.06761e-05
-2.95787e-06
-3.01677e-05
-3.26329e-06
-2.96583e-05
-3.52967e-06
-2.91418e-05
-3.74735e-06
-2.8607e-05
-3.91605e-06
-2.80477e-05
-4.03516e-06
-2.74643e-05
-4.10043e-06
-2.6866e-05
-4.10609e-06
-2.6262e-05
-4.04616e-06
-2.5663e-05
-2.50811e-05
-5.5824e-08
-3.21665e-05
-2.73297e-07
-3.3975e-05
-4.85845e-07
-3.39042e-05
-6.87562e-07
-3.37536e-05
-8.83309e-07
-3.35636e-05
-1.07229e-06
-3.33371e-05
-1.24823e-06
-3.30746e-05
-1.40956e-06
-3.27636e-05
-1.55544e-06
-3.24008e-05
-1.69357e-06
-3.19839e-05
-1.83328e-06
-3.15213e-05
-1.98259e-06
-3.10265e-05
-2.14471e-06
-3.0514e-05
-2.32762e-06
-2.99848e-05
-2.54261e-06
-2.94434e-05
-2.78539e-06
-2.8899e-05
-3.03238e-06
-2.836e-05
-3.24717e-06
-2.78329e-05
-3.39646e-06
-2.7315e-05
-3.4756e-06
-2.67868e-05
-3.49312e-06
-2.62444e-05
-3.45283e-06
-2.57033e-05
-2.51855e-05
-6.03265e-08
-3.21061e-05
-3.61234e-07
-3.36741e-05
-6.56457e-07
-3.3609e-05
-9.21798e-07
-3.34883e-05
-1.16378e-06
-3.33216e-05
-1.38977e-06
-3.31111e-05
-1.59512e-06
-3.28692e-05
-1.7739e-06
-3.25848e-05
-1.91656e-06
-3.22581e-05
-2.01525e-06
-3.18852e-05
-2.07727e-06
-3.14593e-05
-2.12103e-06
-3.09827e-05
-2.16448e-06
-3.04706e-05
-2.21572e-06
-2.99335e-05
-2.28012e-06
-2.9379e-05
-2.35892e-06
-2.88202e-05
-2.45247e-06
-2.82665e-05
-2.56769e-06
-2.77177e-05
-2.70192e-06
-2.71808e-05
-2.82669e-06
-2.66621e-05
-2.90519e-06
-2.61659e-05
-2.91506e-06
-2.56934e-05
-2.52334e-05
-1.32359e-07
-3.19738e-05
-5.87953e-07
-3.32185e-05
-1.0299e-06
-3.3167e-05
-1.4284e-06
-3.30898e-05
-1.78566e-06
-3.29643e-05
-2.10439e-06
-3.27923e-05
-2.38664e-06
-3.2587e-05
-2.62217e-06
-3.23492e-05
-2.80421e-06
-3.20761e-05
-2.92235e-06
-3.17671e-05
-2.96615e-06
-3.14155e-05
-2.94064e-06
-3.10082e-05
-2.86288e-06
-3.05483e-05
-2.75112e-06
-3.00453e-05
-2.62248e-06
-2.95076e-05
-2.4985e-06
-2.89442e-05
-2.3998e-06
-2.83652e-05
-2.33265e-06
-2.77849e-05
-2.29592e-06
-2.72175e-05
-2.28559e-06
-2.66724e-05
-2.31127e-06
-2.61403e-05
-2.36456e-06
-2.56401e-05
-2.51832e-05
-2.75832e-07
-3.1698e-05
-8.87551e-07
-3.26068e-05
-1.47782e-06
-3.25768e-05
-2.03168e-06
-3.25359e-05
-2.54028e-06
-3.24557e-05
-2.98901e-06
-3.23436e-05
-3.38024e-06
-3.21957e-05
-3.71135e-06
-3.20181e-05
-3.97703e-06
-3.18104e-05
-4.17324e-06
-3.15709e-05
-4.28949e-06
-3.12992e-05
-4.31002e-06
-3.09877e-05
-4.23404e-06
-3.06243e-05
-4.07e-06
-3.02093e-05
-3.82451e-06
-2.97531e-05
-3.51237e-06
-2.92564e-05
-3.16101e-06
-2.87166e-05
-2.80785e-06
-2.8138e-05
-2.49182e-06
-2.75336e-05
-2.24084e-06
-2.69234e-05
-2.06898e-06
-2.63121e-05
-2.0056e-06
-2.57035e-05
-2.51561e-05
-4.19033e-07
-3.12789e-05
-1.07008e-06
-3.19558e-05
-1.70309e-06
-3.19438e-05
-2.30994e-06
-3.19291e-05
-2.88114e-06
-3.18845e-05
-3.40321e-06
-3.18216e-05
-3.86819e-06
-3.17308e-05
-4.27338e-06
-3.16129e-05
-4.61656e-06
-3.14672e-05
-4.89489e-06
-3.12925e-05
-5.10627e-06
-3.10878e-05
-5.24206e-06
-3.08519e-05
-5.2907e-06
-3.05757e-05
-5.24978e-06
-3.02502e-05
-5.11092e-06
-2.9892e-05
-4.8711e-06
-2.94962e-05
-4.53158e-06
-2.90561e-05
-4.10168e-06
-2.85679e-05
-3.60776e-06
-2.80275e-05
-3.09799e-06
-2.74332e-05
-2.62494e-06
-2.67852e-05
-2.23507e-06
-2.60934e-05
-2.53926e-05
-4.15178e-07
-1.04865e-06
-1.67023e-06
-2.2737e-06
-2.84954e-06
-3.39246e-06
-3.89143e-06
-4.33816e-06
-4.72555e-06
-5.04732e-06
-5.29825e-06
-5.4745e-06
-5.56574e-06
-5.55601e-06
-5.4511e-06
-5.25758e-06
-4.97973e-06
-4.62404e-06
-4.20091e-06
-3.728e-06
-3.23323e-06
-2.76338e-06
)
;

boundaryField
{
    leftWall
    {
        type            calculated;
        value           uniform 0;
    }
    rightWall
    {
        type            calculated;
        value           nonuniform 0();
    }
    lowerWall
    {
        type            calculated;
        value           nonuniform 0();
    }
    atmosphere
    {
        type            calculated;
        value           nonuniform List<scalar> 
23
(
-3.08638e-05
-3.13223e-05
-3.13222e-05
-3.13256e-05
-3.13087e-05
-3.12786e-05
-3.12318e-05
-3.11662e-05
-3.10798e-05
-3.09708e-05
-3.08369e-05
-3.06756e-05
-3.04844e-05
-3.026e-05
-2.99969e-05
-2.96897e-05
-2.93339e-05
-2.89236e-05
-2.84506e-05
-2.79061e-05
-2.72799e-05
-2.65632e-05
-2.57651e-05
)
;
    }
    defaultFaces
    {
        type            empty;
        value           nonuniform 0();
    }
    procBoundary2to0
    {
        type            processor;
        value           nonuniform List<scalar> 
24
(
4.75385e-05
4.59044e-05
4.29212e-05
3.95384e-05
3.83379e-05
3.80399e-05
3.57573e-05
3.85918e-05
4.17744e-05
4.18505e-05
4.21669e-05
4.24215e-05
4.2548e-05
4.26197e-05
4.27379e-05
4.27397e-05
4.2698e-05
4.31057e-05
4.40448e-05
4.56218e-05
4.65433e-05
4.70689e-05
2.1727e-05
4.73547e-05
)
;
    }
    procBoundary2to3
    {
        type            processor;
        value           nonuniform List<scalar> 
25
(
-3.1859e-05
-3.23696e-05
-2.85353e-05
-2.69258e-05
-2.36731e-05
-2.15756e-05
-1.95032e-05
-1.77127e-05
-1.58175e-05
-1.41012e-05
-1.24474e-05
-1.09487e-05
-9.57177e-06
-8.32362e-06
-7.20261e-06
-6.20313e-06
-5.32487e-06
-4.56152e-06
-3.90726e-06
-3.34843e-06
-2.86719e-06
-2.41476e-06
-2.03269e-06
-1.99858e-06
-2.39088e-06
)
;
    }
}


// ************************************************************************* //
