/*--------------------------------*- C++ -*----------------------------------*\
| =========                 |                                                 |
| \\      /  F ield         | OpenFOAM: The Open Source CFD Toolbox           |
|  \\    /   O peration     | Version:  2.4.0                                 |
|   \\  /    A nd           | Web:      www.OpenFOAM.org                      |
|    \\/     M anipulation  |                                                 |
\*---------------------------------------------------------------------------*/
FoamFile
{
    version     2.0;
    format      ascii;
    class       volVectorField;
    location    "0.4";
    object      U.air;
}
// * * * * * * * * * * * * * * * * * * * * * * * * * * * * * * * * * * * * * //

dimensions      [0 1 -1 0 0 0 0];

internalField   nonuniform List<vector> 
559
(
(-0.121894 -0.250741 0)
(-0.12886 -0.244339 0)
(-0.134141 -0.230687 0)
(-0.136153 -0.209127 0)
(-0.141238 -0.19976 0)
(-0.153391 -0.195403 0)
(-0.166666 -0.179683 0)
(-0.00106569 -0.206979 0)
(-0.00334886 -0.223594 0)
(-0.00570353 -0.22429 0)
(-0.00744087 -0.225929 0)
(-0.0103571 -0.227521 0)
(-0.0133863 -0.229172 0)
(-0.0160759 -0.230132 0)
(-0.0185324 -0.231078 0)
(-0.0206888 -0.230417 0)
(-0.022771 -0.229746 0)
(-0.0270322 -0.231385 0)
(-0.0305629 -0.236661 0)
(-0.0375667 -0.241849 0)
(-0.0507239 -0.24316 0)
(-0.0665495 -0.24569 0)
(-0.0794 -0.247407 0)
(-0.0989044 -0.241575 0)
(-0.114415 -0.230507 0)
(-0.123464 -0.221472 0)
(-0.131228 -0.205937 0)
(-0.141517 -0.189627 0)
(-0.156771 -0.183149 0)
(-0.170827 -0.175507 0)
(-0.000701791 -0.204241 0)
(-0.00304132 -0.221485 0)
(-0.00479328 -0.222317 0)
(-0.00820612 -0.223703 0)
(-0.0116271 -0.224314 0)
(-0.0159688 -0.2252 0)
(-0.0203766 -0.225506 0)
(-0.024837 -0.225892 0)
(-0.0293472 -0.226879 0)
(-0.0333557 -0.227281 0)
(-0.0351557 -0.227535 0)
(-0.0375992 -0.22943 0)
(-0.0444073 -0.231649 0)
(-0.0515078 -0.235383 0)
(-0.0635256 -0.236676 0)
(-0.0752271 -0.230461 0)
(-0.0926866 -0.228532 0)
(-0.106048 -0.225312 0)
(-0.115741 -0.217894 0)
(-0.125299 -0.203879 0)
(-0.132413 -0.185633 0)
(-0.140884 -0.175466 0)
(-0.15045 -0.171544 0)
(-0.000655131 -0.20318 0)
(-0.00292685 -0.219121 0)
(-0.00677637 -0.218773 0)
(-0.0102079 -0.218708 0)
(-0.0138183 -0.219308 0)
(-0.0175969 -0.219874 0)
(-0.0216533 -0.220728 0)
(-0.0260355 -0.221075 0)
(-0.030877 -0.2208 0)
(-0.036122 -0.222042 0)
(-0.0408808 -0.223281 0)
(-0.0467358 -0.22374 0)
(-0.0537138 -0.223859 0)
(-0.061565 -0.223146 0)
(-0.070016 -0.220278 0)
(-0.0793898 -0.215781 0)
(-0.0890503 -0.210426 0)
(-0.0989885 -0.205917 0)
(-0.110324 -0.19911 0)
(-0.12129 -0.186497 0)
(-0.130425 -0.168326 0)
(-0.138807 -0.160375 0)
(-0.142817 -0.156713 0)
(-0.00118835 -0.200447 0)
(-0.00417204 -0.215865 0)
(-0.00694845 -0.215539 0)
(-0.00967999 -0.216272 0)
(-0.0127171 -0.216291 0)
(-0.0158708 -0.215872 0)
(-0.0194959 -0.215663 0)
(-0.0235472 -0.215478 0)
(-0.0282213 -0.216175 0)
(-0.0332556 -0.217426 0)
(-0.0406617 -0.217971 0)
(-0.0456101 -0.218685 0)
(-0.0520528 -0.216517 0)
(-0.0615978 -0.216292 0)
(-0.0700685 -0.214088 0)
(-0.0781557 -0.210553 0)
(-0.0839325 -0.206839 0)
(-0.0912701 -0.202629 0)
(-0.101736 -0.19505 0)
(-0.110687 -0.184622 0)
(-0.115 -0.16942 0)
(-0.120055 -0.163408 0)
(-0.123733 -0.16084 0)
(-0.000879491 -0.198794 0)
(-0.00333917 -0.213675 0)
(-0.00615176 -0.213277 0)
(-0.00918224 -0.213259 0)
(-0.012427 -0.213288 0)
(-0.0157622 -0.213493 0)
(-0.0189954 -0.213454 0)
(-0.0222954 -0.213226 0)
(-0.0258506 -0.212675 0)
(-0.0306407 -0.212299 0)
(-0.0346897 -0.212956 0)
(-0.0402729 -0.211873 0)
(-0.0466334 -0.210338 0)
(-0.0523416 -0.208673 0)
(-0.0593686 -0.20601 0)
(-0.0679454 -0.202885 0)
(-0.0764057 -0.19748 0)
(-0.0862977 -0.188537 0)
(-0.0943546 -0.181718 0)
(-0.0984838 -0.172077 0)
(-0.107496 -0.160374 0)
(-0.108297 -0.152661 0)
(-0.112696 -0.149568 0)
(-0.00133033 -0.195272 0)
(-0.0045415 -0.209884 0)
(-0.00772218 -0.209668 0)
(-0.0108101 -0.209794 0)
(-0.0139778 -0.2097 0)
(-0.0172263 -0.209473 0)
(-0.0206928 -0.209232 0)
(-0.0243384 -0.208879 0)
(-0.0281161 -0.208329 0)
(-0.031376 -0.206947 0)
(-0.0360603 -0.205641 0)
(-0.0432254 -0.204949 0)
(-0.0492999 -0.204043 0)
(-0.0545217 -0.200808 0)
(-0.0601802 -0.197724 0)
(-0.0667992 -0.193583 0)
(-0.0728194 -0.188382 0)
(-0.0786265 -0.185165 0)
(-0.0835299 -0.181556 0)
(-0.0900044 -0.170405 0)
(-0.0947024 -0.15896 0)
(-0.0980341 -0.152994 0)
(-0.101558 -0.146478 0)
(-0.00100327 -0.193857 0)
(-0.00346408 -0.207957 0)
(-0.00633157 -0.207526 0)
(-0.00918362 -0.207409 0)
(-0.0121698 -0.207156 0)
(-0.0152263 -0.206799 0)
(-0.0184184 -0.206279 0)
(-0.0218633 -0.205694 0)
(-0.0256614 -0.205093 0)
(-0.0301799 -0.204318 0)
(-0.0349618 -0.202669 0)
(-0.0385 -0.201271 0)
(-0.0431317 -0.199705 0)
(-0.0499157 -0.196911 0)
(-0.055699 -0.194532 0)
(-0.0594132 -0.190787 0)
(-0.0657281 -0.185953 0)
(-0.0712732 -0.179014 0)
(-0.0785395 -0.169332 0)
(-0.0835675 -0.161945 0)
(-0.0861825 -0.156154 0)
(-0.0890954 -0.149529 0)
(-0.0932681 -0.139748 0)
(-0.0011153 -0.190541 0)
(-0.00380326 -0.204171 0)
(-0.0066951 -0.203705 0)
(-0.00962494 -0.203466 0)
(-0.0127744 -0.203088 0)
(-0.016192 -0.202691 0)
(-0.0197621 -0.202257 0)
(-0.0234056 -0.201677 0)
(-0.027213 -0.200758 0)
(-0.0310876 -0.19922 0)
(-0.0342435 -0.197162 0)
(-0.0377446 -0.19566 0)
(-0.0421969 -0.192885 0)
(-0.0459889 -0.190517 0)
(-0.0513013 -0.186746 0)
(-0.0587456 -0.182501 0)
(-0.0636824 -0.177937 0)
(-0.0677781 -0.172062 0)
(-0.0707555 -0.168209 0)
(-0.0733974 -0.163216 0)
(-0.0765211 -0.152662 0)
(-0.0817817 -0.143318 0)
(-0.0838671 -0.137699 0)
(-0.00109703 -0.189064 0)
(-0.00364484 -0.202454 0)
(-0.00634578 -0.201992 0)
(-0.00891159 -0.201697 0)
(-0.011495 -0.201208 0)
(-0.0140518 -0.200509 0)
(-0.0167831 -0.199655 0)
(-0.0198161 -0.19868 0)
(-0.0230753 -0.197488 0)
(-0.0265942 -0.196129 0)
(-0.0309499 -0.19461 0)
(-0.0361078 -0.192228 0)
(-0.0405699 -0.189879 0)
(-0.045071 -0.186374 0)
(-0.0488554 -0.183183 0)
(-0.0512597 -0.180789 0)
(-0.0548333 -0.176742 0)
(-0.0594314 -0.171385 0)
(-0.0628951 -0.162941 0)
(-0.0685357 -0.154658 0)
(-0.0712761 -0.149953 0)
(-0.0725629 -0.143504 0)
(-0.0748483 -0.134146 0)
(-0.00106948 -0.185914 0)
(-0.0035693 -0.198884 0)
(-0.00629408 -0.198421 0)
(-0.00899257 -0.198048 0)
(-0.0118459 -0.197525 0)
(-0.014809 -0.196885 0)
(-0.0178417 -0.196076 0)
(-0.0209343 -0.194995 0)
(-0.0240746 -0.193592 0)
(-0.0272029 -0.191808 0)
(-0.030099 -0.189598 0)
(-0.0325618 -0.187516 0)
(-0.0357476 -0.185344 0)
(-0.0393103 -0.182743 0)
(-0.0430749 -0.179158 0)
(-0.0476627 -0.174156 0)
(-0.0528849 -0.169343 0)
(-0.0564255 -0.164065 0)
(-0.0591479 -0.160269 0)
(-0.0601091 -0.155801 0)
(-0.0622343 -0.147775 0)
(-0.0653928 -0.139965 0)
(-0.0666656 -0.132881 0)
(-0.000980479 -0.18461 0)
(-0.00312779 -0.197345 0)
(-0.00548854 -0.196878 0)
(-0.00774826 -0.196428 0)
(-0.0101238 -0.19578 0)
(-0.0126056 -0.194951 0)
(-0.0152552 -0.193948 0)
(-0.0180896 -0.192775 0)
(-0.0210939 -0.191417 0)
(-0.0242544 -0.18986 0)
(-0.027674 -0.188006 0)
(-0.031415 -0.185347 0)
(-0.0349953 -0.182424 0)
(-0.0384473 -0.179399 0)
(-0.041714 -0.176149 0)
(-0.0443609 -0.172968 0)
(-0.0463591 -0.169275 0)
(-0.0488169 -0.164274 0)
(-0.0515306 -0.157626 0)
(-0.0545504 -0.151067 0)
(-0.0566115 -0.145711 0)
(-0.0578956 -0.139306 0)
(-0.0587944 -0.131765 0)
(-0.00095892 -0.181677 0)
(-0.00313132 -0.194106 0)
(-0.00548185 -0.193654 0)
(-0.00776262 -0.193126 0)
(-0.0101331 -0.192393 0)
(-0.0125479 -0.191456 0)
(-0.0150081 -0.190297 0)
(-0.0175161 -0.188903 0)
(-0.020085 -0.187258 0)
(-0.0227302 -0.185348 0)
(-0.0253972 -0.183222 0)
(-0.027951 -0.181139 0)
(-0.0305398 -0.17871 0)
(-0.0332537 -0.175712 0)
(-0.0360626 -0.172346 0)
(-0.0390694 -0.168411 0)
(-0.0422836 -0.16403 0)
(-0.0451866 -0.159704 0)
(-0.0472669 -0.155395 0)
(-0.0485888 -0.150393 0)
(-0.0498558 -0.144386 0)
(-0.0512092 -0.138109 0)
(-0.051669 -0.131449 0)
(-0.000871532 -0.180652 0)
(-0.00269632 -0.192908 0)
(-0.00476601 -0.19248 0)
(-0.00673763 -0.191936 0)
(-0.00883322 -0.19119 0)
(-0.0110183 -0.190248 0)
(-0.0133143 -0.189107 0)
(-0.0157149 -0.187756 0)
(-0.0181984 -0.186174 0)
(-0.0207104 -0.184292 0)
(-0.0232368 -0.182029 0)
(-0.0258549 -0.179363 0)
(-0.0285497 -0.176603 0)
(-0.0311638 -0.17372 0)
(-0.0336411 -0.170479 0)
(-0.035929 -0.166944 0)
(-0.0379642 -0.163091 0)
(-0.0398379 -0.158635 0)
(-0.0416619 -0.153647 0)
(-0.0432034 -0.148475 0)
(-0.0442548 -0.143287 0)
(-0.0449846 -0.137678 0)
(-0.0450983 -0.13151 0)
(-0.000780213 -0.178191 0)
(-0.00246742 -0.190136 0)
(-0.00436194 -0.189693 0)
(-0.00616273 -0.189016 0)
(-0.00806907 -0.188121 0)
(-0.0100314 -0.187008 0)
(-0.0120657 -0.185682 0)
(-0.0141773 -0.18416 0)
(-0.0163684 -0.182457 0)
(-0.0186465 -0.18061 0)
(-0.0209642 -0.178606 0)
(-0.0232211 -0.176378 0)
(-0.0254157 -0.173787 0)
(-0.0276225 -0.170851 0)
(-0.0298156 -0.167666 0)
(-0.0319307 -0.164189 0)
(-0.0339299 -0.1604 0)
(-0.0357171 -0.1564 0)
(-0.0371573 -0.152137 0)
(-0.0381961 -0.14753 0)
(-0.0388782 -0.142602 0)
(-0.0393227 -0.137443 0)
(-0.0391746 -0.131921 0)
(-0.000693725 -0.177254 0)
(-0.00211591 -0.189096 0)
(-0.00378809 -0.188687 0)
(-0.00535371 -0.187997 0)
(-0.00703847 -0.187096 0)
(-0.00878582 -0.18597 0)
(-0.0106184 -0.184617 0)
(-0.0125321 -0.18305 0)
(-0.0145059 -0.18126 0)
(-0.0165192 -0.179236 0)
(-0.0185663 -0.176977 0)
(-0.0206457 -0.1745 0)
(-0.0227206 -0.171852 0)
(-0.0247264 -0.169011 0)
(-0.0266351 -0.165914 0)
(-0.0284268 -0.162566 0)
(-0.030054 -0.158972 0)
(-0.0314849 -0.155098 0)
(-0.0326874 -0.15097 0)
(-0.0335642 -0.146639 0)
(-0.0340394 -0.142153 0)
(-0.0341999 -0.137491 0)
(-0.0338522 -0.13256 0)
(-0.000544551 -0.175629 0)
(-0.00172612 -0.187182 0)
(-0.00317977 -0.186759 0)
(-0.00450579 -0.18597 0)
(-0.00595815 -0.184967 0)
(-0.00746546 -0.183735 0)
(-0.00905866 -0.182287 0)
(-0.0107489 -0.180658 0)
(-0.0125242 -0.178859 0)
(-0.0143627 -0.176893 0)
(-0.0162301 -0.174746 0)
(-0.0180875 -0.172395 0)
(-0.0199136 -0.16982 0)
(-0.021696 -0.167023 0)
(-0.0234004 -0.16402 0)
(-0.0249869 -0.16081 0)
(-0.02642 -0.157396 0)
(-0.0276536 -0.153794 0)
(-0.0286381 -0.150003 0)
(-0.0293131 -0.146029 0)
(-0.0296207 -0.141912 0)
(-0.0296059 -0.1377 0)
(-0.0291407 -0.133343 0)
(-0.000385177 -0.174864 0)
(-0.00133678 -0.186204 0)
(-0.00261312 -0.185786 0)
(-0.00371484 -0.184947 0)
(-0.00494223 -0.183908 0)
(-0.00619219 -0.182627 0)
(-0.00743888 -0.181063 0)
(-0.00873446 -0.179297 0)
(-0.0101465 -0.17737 0)
(-0.0117108 -0.175286 0)
(-0.0134183 -0.173073 0)
(-0.0152027 -0.170718 0)
(-0.016951 -0.168174 0)
(-0.0186385 -0.165442 0)
(-0.0202206 -0.162522 0)
(-0.0216648 -0.159425 0)
(-0.0229407 -0.156173 0)
(-0.024014 -0.152768 0)
(-0.0248522 -0.149217 0)
(-0.0254086 -0.145547 0)
(-0.0256231 -0.141793 0)
(-0.0255112 -0.138003 0)
(-0.025005 -0.134171 0)
(-0.00013507 -0.173978 0)
(-0.000944896 -0.184941 0)
(-0.00216927 -0.184523 0)
(-0.00311594 -0.183643 0)
(-0.00419329 -0.182578 0)
(-0.00523997 -0.18127 0)
(-0.00623509 -0.179718 0)
(-0.00718463 -0.1779 0)
(-0.00813191 -0.175816 0)
(-0.0091444 -0.173551 0)
(-0.010298 -0.171138 0)
(-0.0116605 -0.168656 0)
(-0.0132423 -0.166136 0)
(-0.0149649 -0.163574 0)
(-0.0166781 -0.160897 0)
(-0.0182286 -0.158066 0)
(-0.0195082 -0.155043 0)
(-0.0205483 -0.151861 0)
(-0.0213225 -0.148552 0)
(-0.0218195 -0.145167 0)
(-0.0220028 -0.14174 0)
(-0.021875 -0.138326 0)
(-0.0214113 -0.134957 0)
(9.05077e-05 -0.173575 0)
(-0.000718768 -0.183846 0)
(-0.00215392 -0.183448 0)
(-0.0031245 -0.182595 0)
(-0.00421664 -0.181546 0)
(-0.00524925 -0.180343 0)
(-0.00622768 -0.178931 0)
(-0.00713649 -0.177233 0)
(-0.00795817 -0.175211 0)
(-0.00870396 -0.172888 0)
(-0.00942901 -0.170336 0)
(-0.0101937 -0.167628 0)
(-0.0110344 -0.164826 0)
(-0.0119284 -0.161944 0)
(-0.0129746 -0.159106 0)
(-0.014205 -0.156316 0)
(-0.0155599 -0.153555 0)
(-0.0168611 -0.150771 0)
(-0.0178529 -0.147861 0)
(-0.0184311 -0.144812 0)
(-0.0186844 -0.141691 0)
(-0.0186257 -0.138602 0)
(-0.0182874 -0.135621 0)
(0.000206538 -0.173504 0)
(-0.000889692 -0.182757 0)
(-0.00290745 -0.182382 0)
(-0.00421928 -0.181637 0)
(-0.00562901 -0.180672 0)
(-0.00685326 -0.179488 0)
(-0.00802548 -0.178103 0)
(-0.00906274 -0.176467 0)
(-0.00994422 -0.174592 0)
(-0.0105922 -0.172419 0)
(-0.0110005 -0.169957 0)
(-0.0112502 -0.167268 0)
(-0.0114576 -0.164438 0)
(-0.0117047 -0.1615 0)
(-0.0120079 -0.158479 0)
(-0.012387 -0.155448 0)
(-0.0128596 -0.152462 0)
(-0.0133676 -0.149553 0)
(-0.0140503 -0.146797 0)
(-0.014796 -0.144097 0)
(-0.0153967 -0.141394 0)
(-0.0156186 -0.138677 0)
(-0.0155331 -0.136037 0)
(0.00018567 -0.173566 0)
(-0.00166018 -0.181433 0)
(-0.00455299 -0.181109 0)
(-0.00659667 -0.180557 0)
(-0.0086881 -0.179718 0)
(-0.0104504 -0.178587 0)
(-0.012093 -0.177287 0)
(-0.0134925 -0.175784 0)
(-0.0146168 -0.174067 0)
(-0.015445 -0.172147 0)
(-0.0158878 -0.169948 0)
(-0.0159103 -0.167435 0)
(-0.015603 -0.164676 0)
(-0.0150676 -0.161737 0)
(-0.0143925 -0.158664 0)
(-0.0136784 -0.155526 0)
(-0.0130451 -0.152387 0)
(-0.0126073 -0.149294 0)
(-0.0123248 -0.146308 0)
(-0.0122216 -0.143482 0)
(-0.0122003 -0.140803 0)
(-0.0124171 -0.138235 0)
(-0.0128385 -0.135818 0)
(-0.000213427 -0.172255 0)
(-0.00285476 -0.178201 0)
(-0.00653493 -0.177966 0)
(-0.00942014 -0.177611 0)
(-0.0123284 -0.176987 0)
(-0.014895 -0.176129 0)
(-0.0171512 -0.175069 0)
(-0.0190972 -0.173864 0)
(-0.0207042 -0.172509 0)
(-0.021948 -0.17099 0)
(-0.0228122 -0.169313 0)
(-0.0231978 -0.16738 0)
(-0.0230354 -0.165148 0)
(-0.0223759 -0.162623 0)
(-0.0212559 -0.15983 0)
(-0.0197221 -0.156798 0)
(-0.0178882 -0.153579 0)
(-0.0159335 -0.150267 0)
(-0.0140897 -0.14697 0)
(-0.0125269 -0.143784 0)
(-0.0113909 -0.140792 0)
(-0.0107036 -0.138036 0)
(-0.0107527 -0.135552 0)
(-0.000769794 -0.168304 0)
(-0.00382317 -0.171996 0)
(-0.00756923 -0.171931 0)
(-0.0107735 -0.171881 0)
(-0.0139847 -0.171688 0)
(-0.0169395 -0.171414 0)
(-0.0195888 -0.170974 0)
(-0.0219255 -0.170377 0)
(-0.0239365 -0.169613 0)
(-0.0256064 -0.168678 0)
(-0.0269231 -0.167576 0)
(-0.0278713 -0.166335 0)
(-0.0283888 -0.164903 0)
(-0.0284133 -0.163273 0)
(-0.0279188 -0.161399 0)
(-0.0268977 -0.159245 0)
(-0.0253346 -0.156777 0)
(-0.023249 -0.153962 0)
(-0.0207076 -0.150784 0)
(-0.0179266 -0.147284 0)
(-0.0152094 -0.14353 0)
(-0.0128318 -0.139669 0)
(-0.0110448 -0.136091 0)
(-0.000766302 -0.166541 0)
(-0.00374962 -0.169036 0)
(-0.00743287 -0.169035 0)
(-0.0105829 -0.169051 0)
(-0.0137873 -0.168956 0)
(-0.0167894 -0.16879 0)
(-0.0195942 -0.168533 0)
(-0.0221363 -0.168174 0)
(-0.0243798 -0.167703 0)
(-0.0262872 -0.16711 0)
(-0.0278278 -0.166383 0)
(-0.0289828 -0.165509 0)
(-0.0297104 -0.164473 0)
(-0.0299284 -0.163258 0)
(-0.0296145 -0.161834 0)
(-0.0288101 -0.160172 0)
(-0.0275388 -0.158247 0)
(-0.0258265 -0.156029 0)
(-0.0237158 -0.153474 0)
(-0.0212807 -0.150535 0)
(-0.0186359 -0.147157 0)
(-0.0159718 -0.143293 0)
(-0.0134333 -0.138989 0)
)
;

boundaryField
{
    leftWall
    {
        type            fixedValue;
        value           uniform (0 0 0);
    }
    rightWall
    {
        type            fixedValue;
        value           nonuniform 0();
    }
    lowerWall
    {
        type            fixedValue;
        value           nonuniform 0();
    }
    atmosphere
    {
        type            fluxCorrectedVelocity;
        value           nonuniform List<vector> 
23
(
(-0.000766302 -0.16651 0)
(-0.00374962 -0.168984 0)
(-0.00743287 -0.168983 0)
(-0.0105829 -0.169002 0)
(-0.0137873 -0.168911 0)
(-0.0167894 -0.168748 0)
(-0.0195942 -0.168496 0)
(-0.0221363 -0.168142 0)
(-0.0243798 -0.167676 0)
(-0.0262872 -0.167088 0)
(-0.0278278 -0.166365 0)
(-0.0289828 -0.165495 0)
(-0.0297104 -0.164464 0)
(-0.0299284 -0.163253 0)
(-0.0296145 -0.161833 0)
(-0.0288101 -0.160176 0)
(-0.0275388 -0.158257 0)
(-0.0258265 -0.156043 0)
(-0.0237158 -0.153491 0)
(-0.0212807 -0.150554 0)
(-0.0186359 -0.147176 0)
(-0.0159718 -0.143309 0)
(-0.0134333 -0.139003 0)
)
;
    }
    defaultFaces
    {
        type            empty;
    }
    procBoundary2to0
    {
        type            processor;
        value           nonuniform List<vector> 
24
(
(-0.174283 -0.264927 0)
(-0.178262 -0.253395 0)
(-0.174752 -0.23568 0)
(-0.168808 -0.221169 0)
(-0.171148 -0.218203 0)
(-0.17711 -0.221167 0)
(-0.178358 -0.213858 0)
(0.000369226 -0.209828 0)
(-0.00280194 -0.228021 0)
(-0.0063224 -0.227914 0)
(-0.00959661 -0.229376 0)
(-0.013181 -0.230881 0)
(-0.0157758 -0.230701 0)
(-0.0173543 -0.230722 0)
(-0.0183824 -0.23111 0)
(-0.0193278 -0.232111 0)
(-0.0215217 -0.230072 0)
(-0.0251114 -0.233569 0)
(-0.0340188 -0.23858 0)
(-0.0441591 -0.249548 0)
(-0.0641464 -0.255668 0)
(-0.0926238 -0.258804 0)
(-0.113012 -0.258721 0)
(-0.113012 -0.258721 0)
)
;
    }
    procBoundary2to3
    {
        type            processor;
        value           nonuniform List<vector> 
25
(
(-0.17379 -0.169623 0)
(-0.175379 -0.166544 0)
(-0.154585 -0.164223 0)
(-0.144948 -0.1492 0)
(-0.127831 -0.153874 0)
(-0.116445 -0.14454 0)
(-0.10531 -0.139476 0)
(-0.0956649 -0.134798 0)
(-0.0851029 -0.130884 0)
(-0.0760523 -0.128705 0)
(-0.0669251 -0.127038 0)
(-0.0588345 -0.126346 0)
(-0.0513133 -0.126274 0)
(-0.0445233 -0.126767 0)
(-0.0384288 -0.127635 0)
(-0.0330122 -0.128763 0)
(-0.0282746 -0.130034 0)
(-0.0241798 -0.13133 0)
(-0.0207039 -0.132538 0)
(-0.0177626 -0.133563 0)
(-0.0152669 -0.134278 0)
(-0.0129888 -0.134386 0)
(-0.0109387 -0.134128 0)
(-0.0105119 -0.134133 0)
(-0.0124785 -0.136154 0)
)
;
    }
}


// ************************************************************************* //
