/*--------------------------------*- C++ -*----------------------------------*\
| =========                 |                                                 |
| \\      /  F ield         | OpenFOAM: The Open Source CFD Toolbox           |
|  \\    /   O peration     | Version:  2.4.0                                 |
|   \\  /    A nd           | Web:      www.OpenFOAM.org                      |
|    \\/     M anipulation  |                                                 |
\*---------------------------------------------------------------------------*/
FoamFile
{
    version     2.0;
    format      ascii;
    class       volVectorField;
    location    "0.4";
    object      U.oil;
}
// * * * * * * * * * * * * * * * * * * * * * * * * * * * * * * * * * * * * * //

dimensions      [0 1 -1 0 0 0 0];

internalField   nonuniform List<vector> 
559
(
(-0.122085 -0.253403 0)
(-0.129013 -0.246332 0)
(-0.134242 -0.23193 0)
(-0.136211 -0.209749 0)
(-0.14126 -0.200007 0)
(-0.153393 -0.19549 0)
(-0.166648 -0.179717 0)
(-0.0010657 -0.206989 0)
(-0.00334883 -0.223604 0)
(-0.00570328 -0.2243 0)
(-0.0074402 -0.225938 0)
(-0.0103558 -0.22753 0)
(-0.0133843 -0.229181 0)
(-0.016073 -0.230141 0)
(-0.0185286 -0.231087 0)
(-0.0206842 -0.230428 0)
(-0.0227658 -0.229759 0)
(-0.0270267 -0.231403 0)
(-0.0305581 -0.236702 0)
(-0.0375726 -0.242182 0)
(-0.0507669 -0.24421 0)
(-0.0666507 -0.247755 0)
(-0.0795333 -0.250077 0)
(-0.0990411 -0.244089 0)
(-0.114527 -0.232456 0)
(-0.123537 -0.222723 0)
(-0.131267 -0.2066 0)
(-0.14153 -0.189895 0)
(-0.156764 -0.183235 0)
(-0.170809 -0.175523 0)
(-0.000701727 -0.204252 0)
(-0.00304108 -0.221495 0)
(-0.00479273 -0.222327 0)
(-0.00820513 -0.223713 0)
(-0.0116255 -0.224323 0)
(-0.0159665 -0.225209 0)
(-0.0203736 -0.225515 0)
(-0.0248333 -0.225901 0)
(-0.0293429 -0.226889 0)
(-0.033351 -0.227293 0)
(-0.0351508 -0.227548 0)
(-0.0375946 -0.229446 0)
(-0.044406 -0.231793 0)
(-0.0515233 -0.236059 0)
(-0.0635587 -0.237921 0)
(-0.0752889 -0.232225 0)
(-0.0927568 -0.230282 0)
(-0.106112 -0.226778 0)
(-0.115784 -0.218893 0)
(-0.125321 -0.204438 0)
(-0.132417 -0.185881 0)
(-0.140872 -0.175547 0)
(-0.150429 -0.171563 0)
(-0.000654997 -0.20319 0)
(-0.00292642 -0.21913 0)
(-0.00677558 -0.218782 0)
(-0.0102066 -0.218717 0)
(-0.0138165 -0.219317 0)
(-0.0175945 -0.219883 0)
(-0.0216502 -0.220737 0)
(-0.0260319 -0.221084 0)
(-0.030873 -0.220809 0)
(-0.0361176 -0.222052 0)
(-0.0408764 -0.223291 0)
(-0.0467319 -0.223751 0)
(-0.0537115 -0.223898 0)
(-0.0615681 -0.223362 0)
(-0.0700294 -0.22083 0)
(-0.0794126 -0.216544 0)
(-0.0890792 -0.211318 0)
(-0.099016 -0.206725 0)
(-0.110344 -0.199688 0)
(-0.121299 -0.186845 0)
(-0.130422 -0.168491 0)
(-0.138793 -0.160434 0)
(-0.142797 -0.156728 0)
(-0.0011882 -0.200457 0)
(-0.00417153 -0.215875 0)
(-0.00694751 -0.215549 0)
(-0.00967855 -0.216282 0)
(-0.0127151 -0.2163 0)
(-0.0158683 -0.215881 0)
(-0.0194929 -0.215672 0)
(-0.0235437 -0.215487 0)
(-0.0282175 -0.216185 0)
(-0.0332516 -0.217436 0)
(-0.0406577 -0.217981 0)
(-0.0456067 -0.218696 0)
(-0.0520507 -0.216531 0)
(-0.0615982 -0.216334 0)
(-0.0700732 -0.214239 0)
(-0.0781667 -0.210811 0)
(-0.083946 -0.207179 0)
(-0.0912833 -0.202965 0)
(-0.101747 -0.195288 0)
(-0.110691 -0.184776 0)
(-0.114994 -0.1695 0)
(-0.12004 -0.16344 0)
(-0.123713 -0.160851 0)
(-0.000879276 -0.198804 0)
(-0.00333853 -0.213685 0)
(-0.00615067 -0.213287 0)
(-0.00918065 -0.213268 0)
(-0.0124249 -0.213297 0)
(-0.0157596 -0.213502 0)
(-0.0189923 -0.213463 0)
(-0.022292 -0.213235 0)
(-0.0258469 -0.212684 0)
(-0.030637 -0.212309 0)
(-0.0346862 -0.212967 0)
(-0.04027 -0.211883 0)
(-0.0466317 -0.210349 0)
(-0.0523422 -0.208686 0)
(-0.0593723 -0.206033 0)
(-0.0679525 -0.20295 0)
(-0.0764153 -0.197575 0)
(-0.0863076 -0.188639 0)
(-0.0943619 -0.18179 0)
(-0.0984851 -0.172123 0)
(-0.10749 -0.160402 0)
(-0.108282 -0.152676 0)
(-0.112677 -0.149576 0)
(-0.00133013 -0.195281 0)
(-0.00454085 -0.209894 0)
(-0.00772102 -0.209678 0)
(-0.0108084 -0.209803 0)
(-0.0139756 -0.20971 0)
(-0.0172236 -0.209482 0)
(-0.0206898 -0.209242 0)
(-0.024335 -0.208888 0)
(-0.0281126 -0.208338 0)
(-0.0313725 -0.206957 0)
(-0.0360571 -0.205651 0)
(-0.0432228 -0.204959 0)
(-0.0492987 -0.204054 0)
(-0.0545228 -0.20082 0)
(-0.0601843 -0.197737 0)
(-0.0668064 -0.193598 0)
(-0.0728286 -0.188407 0)
(-0.0786354 -0.185193 0)
(-0.0835358 -0.181579 0)
(-0.0900044 -0.17042 0)
(-0.0946946 -0.15897 0)
(-0.0980187 -0.153002 0)
(-0.101539 -0.146485 0)
(-0.00100301 -0.193867 0)
(-0.00346333 -0.207966 0)
(-0.00633033 -0.207536 0)
(-0.00918188 -0.207419 0)
(-0.0121675 -0.207165 0)
(-0.0152236 -0.206808 0)
(-0.0184154 -0.206288 0)
(-0.02186 -0.205703 0)
(-0.0256581 -0.205102 0)
(-0.0301767 -0.204328 0)
(-0.034959 -0.202679 0)
(-0.038498 -0.201281 0)
(-0.0431311 -0.199716 0)
(-0.0499172 -0.196923 0)
(-0.0557034 -0.194544 0)
(-0.0594204 -0.190799 0)
(-0.0657368 -0.185965 0)
(-0.0712813 -0.179027 0)
(-0.0785442 -0.169344 0)
(-0.0835662 -0.161955 0)
(-0.086174 -0.156163 0)
(-0.0890794 -0.149536 0)
(-0.0932498 -0.139755 0)
(-0.00111508 -0.19055 0)
(-0.00380256 -0.20418 0)
(-0.00669387 -0.203715 0)
(-0.0096232 -0.203475 0)
(-0.0127722 -0.203098 0)
(-0.0161894 -0.2027 0)
(-0.0197592 -0.202266 0)
(-0.0234025 -0.201687 0)
(-0.0272099 -0.200768 0)
(-0.0310847 -0.19923 0)
(-0.034241 -0.197172 0)
(-0.0377429 -0.19567 0)
(-0.0421966 -0.192897 0)
(-0.0459909 -0.190529 0)
(-0.051306 -0.186757 0)
(-0.0587527 -0.182513 0)
(-0.0636908 -0.177949 0)
(-0.0677855 -0.172074 0)
(-0.0707592 -0.16822 0)
(-0.073395 -0.163226 0)
(-0.0765116 -0.152671 0)
(-0.0817654 -0.143326 0)
(-0.0838484 -0.137707 0)
(-0.00109676 -0.189073 0)
(-0.00364406 -0.202463 0)
(-0.00634453 -0.202001 0)
(-0.00890987 -0.201706 0)
(-0.0114929 -0.201218 0)
(-0.0140492 -0.200518 0)
(-0.0167803 -0.199665 0)
(-0.0198132 -0.19869 0)
(-0.0230725 -0.197498 0)
(-0.0265915 -0.19614 0)
(-0.0309477 -0.19462 0)
(-0.0361065 -0.192239 0)
(-0.04057 -0.18989 0)
(-0.0450732 -0.186386 0)
(-0.0488604 -0.183195 0)
(-0.051267 -0.1808 0)
(-0.0548413 -0.176754 0)
(-0.059438 -0.171396 0)
(-0.062898 -0.162951 0)
(-0.0685325 -0.154668 0)
(-0.0712662 -0.149962 0)
(-0.0725464 -0.143513 0)
(-0.0748301 -0.134155 0)
(-0.00106927 -0.185924 0)
(-0.00356862 -0.198894 0)
(-0.00629289 -0.19843 0)
(-0.00899091 -0.198058 0)
(-0.0118438 -0.197534 0)
(-0.0148066 -0.196895 0)
(-0.0178391 -0.196086 0)
(-0.0209316 -0.195005 0)
(-0.024072 -0.193602 0)
(-0.0272006 -0.191819 0)
(-0.0300971 -0.189608 0)
(-0.0325608 -0.187527 0)
(-0.0357481 -0.185355 0)
(-0.0393129 -0.182754 0)
(-0.0430799 -0.17917 0)
(-0.0476698 -0.174167 0)
(-0.0528926 -0.169355 0)
(-0.0564314 -0.164076 0)
(-0.0591501 -0.160279 0)
(-0.0601053 -0.155811 0)
(-0.0622238 -0.147784 0)
(-0.0653763 -0.139975 0)
(-0.0666473 -0.132891 0)
(-0.000980217 -0.184619 0)
(-0.00312705 -0.197354 0)
(-0.00548736 -0.196887 0)
(-0.00774667 -0.196438 0)
(-0.0101219 -0.19579 0)
(-0.0126034 -0.194961 0)
(-0.0152528 -0.193958 0)
(-0.0180871 -0.192785 0)
(-0.0210916 -0.191427 0)
(-0.0242523 -0.18987 0)
(-0.0276725 -0.188017 0)
(-0.0314143 -0.185359 0)
(-0.034996 -0.182435 0)
(-0.03845 -0.17941 0)
(-0.0417192 -0.17616 0)
(-0.044368 -0.17298 0)
(-0.0463664 -0.169286 0)
(-0.0488224 -0.164285 0)
(-0.0515322 -0.157636 0)
(-0.0545462 -0.151077 0)
(-0.0566011 -0.145721 0)
(-0.0578793 -0.139316 0)
(-0.0587768 -0.131775 0)
(-0.000958731 -0.181687 0)
(-0.0031307 -0.194115 0)
(-0.00548077 -0.193663 0)
(-0.00776113 -0.193136 0)
(-0.0101313 -0.192403 0)
(-0.0125458 -0.191466 0)
(-0.0150059 -0.190307 0)
(-0.0175138 -0.188913 0)
(-0.0200829 -0.187269 0)
(-0.0227284 -0.185359 0)
(-0.025396 -0.183233 0)
(-0.0279506 -0.18115 0)
(-0.0305408 -0.178721 0)
(-0.0332567 -0.175724 0)
(-0.0360677 -0.172357 0)
(-0.0390762 -0.168422 0)
(-0.0422907 -0.164042 0)
(-0.0451917 -0.159714 0)
(-0.0472682 -0.155406 0)
(-0.0485845 -0.150404 0)
(-0.0498454 -0.144397 0)
(-0.0511933 -0.138119 0)
(-0.0516517 -0.131461 0)
(-0.000871292 -0.180662 0)
(-0.00269565 -0.192918 0)
(-0.00476497 -0.19249 0)
(-0.00673624 -0.191946 0)
(-0.00883152 -0.191199 0)
(-0.0110164 -0.190258 0)
(-0.0133122 -0.189117 0)
(-0.0157129 -0.187766 0)
(-0.0181966 -0.186184 0)
(-0.0207088 -0.184302 0)
(-0.0232358 -0.18204 0)
(-0.0258548 -0.179374 0)
(-0.0285509 -0.176615 0)
(-0.0311668 -0.173731 0)
(-0.0336464 -0.170491 0)
(-0.0359357 -0.166956 0)
(-0.0379708 -0.163102 0)
(-0.0398426 -0.158645 0)
(-0.0416629 -0.153658 0)
(-0.043199 -0.148485 0)
(-0.0442447 -0.143297 0)
(-0.0449693 -0.137689 0)
(-0.0450819 -0.131522 0)
(-0.000780054 -0.1782 0)
(-0.00246689 -0.190145 0)
(-0.00436102 -0.189702 0)
(-0.00616146 -0.189025 0)
(-0.00806752 -0.188131 0)
(-0.0100296 -0.187017 0)
(-0.0120639 -0.185692 0)
(-0.0141755 -0.18417 0)
(-0.0163668 -0.182467 0)
(-0.0186453 -0.18062 0)
(-0.0209635 -0.178617 0)
(-0.0232212 -0.176389 0)
(-0.0254171 -0.173798 0)
(-0.0276259 -0.170862 0)
(-0.0298207 -0.167678 0)
(-0.031937 -0.1642 0)
(-0.0339362 -0.160411 0)
(-0.0357214 -0.156411 0)
(-0.0371582 -0.152148 0)
(-0.0381918 -0.14754 0)
(-0.0388686 -0.142612 0)
(-0.0393082 -0.137454 0)
(-0.039159 -0.131933 0)
(-0.000693515 -0.177263 0)
(-0.00211533 -0.189105 0)
(-0.00378721 -0.188696 0)
(-0.00535255 -0.188007 0)
(-0.00703708 -0.187106 0)
(-0.00878428 -0.185979 0)
(-0.0106168 -0.184627 0)
(-0.0125305 -0.18306 0)
(-0.0145046 -0.181271 0)
(-0.0165182 -0.179246 0)
(-0.0185658 -0.176988 0)
(-0.020646 -0.174511 0)
(-0.0227222 -0.171864 0)
(-0.0247295 -0.169022 0)
(-0.0266401 -0.165926 0)
(-0.0284331 -0.162577 0)
(-0.0300599 -0.158983 0)
(-0.031489 -0.155108 0)
(-0.0326881 -0.150981 0)
(-0.0335603 -0.146649 0)
(-0.0340304 -0.142163 0)
(-0.0341864 -0.137502 0)
(-0.0338377 -0.132573 0)
(-0.000544425 -0.175638 0)
(-0.0017257 -0.187191 0)
(-0.00317902 -0.186768 0)
(-0.00450477 -0.185979 0)
(-0.00595692 -0.184977 0)
(-0.00746411 -0.183744 0)
(-0.00905727 -0.182297 0)
(-0.0107475 -0.180668 0)
(-0.0125231 -0.17887 0)
(-0.0143619 -0.176904 0)
(-0.0162298 -0.174757 0)
(-0.018088 -0.172406 0)
(-0.0199152 -0.169831 0)
(-0.0216993 -0.167034 0)
(-0.0234052 -0.164031 0)
(-0.0249926 -0.160821 0)
(-0.0264257 -0.157406 0)
(-0.0276574 -0.153804 0)
(-0.0286388 -0.150013 0)
(-0.0293094 -0.146039 0)
(-0.0296123 -0.141923 0)
(-0.0295933 -0.137712 0)
(-0.0291273 -0.133355 0)
(-0.000384995 -0.174874 0)
(-0.00133631 -0.186213 0)
(-0.00261243 -0.185795 0)
(-0.00371394 -0.184956 0)
(-0.00494116 -0.183917 0)
(-0.00619101 -0.182636 0)
(-0.00743769 -0.181073 0)
(-0.00873336 -0.179307 0)
(-0.0101456 -0.17738 0)
(-0.0117102 -0.175296 0)
(-0.0134182 -0.173084 0)
(-0.0152034 -0.170729 0)
(-0.0169528 -0.168185 0)
(-0.0186416 -0.165453 0)
(-0.0202253 -0.162533 0)
(-0.0216704 -0.159435 0)
(-0.0229459 -0.156184 0)
(-0.0240176 -0.152778 0)
(-0.0248528 -0.149227 0)
(-0.0254052 -0.145556 0)
(-0.0256154 -0.141804 0)
(-0.0254996 -0.138014 0)
(-0.0249925 -0.134183 0)
(-0.000134976 -0.173987 0)
(-0.000944576 -0.18495 0)
(-0.0021687 -0.184532 0)
(-0.00311518 -0.183652 0)
(-0.00419237 -0.182587 0)
(-0.00523897 -0.181279 0)
(-0.00623409 -0.179728 0)
(-0.00718372 -0.17791 0)
(-0.00813117 -0.175826 0)
(-0.00914397 -0.173561 0)
(-0.0102981 -0.171149 0)
(-0.0116612 -0.168666 0)
(-0.013244 -0.166147 0)
(-0.014968 -0.163584 0)
(-0.0166825 -0.160908 0)
(-0.0182337 -0.158076 0)
(-0.0195131 -0.155053 0)
(-0.0205515 -0.151871 0)
(-0.021323 -0.148562 0)
(-0.0218164 -0.145177 0)
(-0.0219958 -0.14175 0)
(-0.0218644 -0.138336 0)
(-0.0213998 -0.134969 0)
(9.06484e-05 -0.173584 0)
(-0.000718415 -0.183855 0)
(-0.00215342 -0.183457 0)
(-0.00312385 -0.182604 0)
(-0.00421587 -0.181556 0)
(-0.00524843 -0.180353 0)
(-0.00622686 -0.178941 0)
(-0.00713575 -0.177243 0)
(-0.0079576 -0.175221 0)
(-0.00870368 -0.172898 0)
(-0.00942914 -0.170346 0)
(-0.0101944 -0.167638 0)
(-0.0110362 -0.164836 0)
(-0.0119311 -0.161954 0)
(-0.0129788 -0.159117 0)
(-0.0142098 -0.156326 0)
(-0.0155641 -0.153564 0)
(-0.0168639 -0.15078 0)
(-0.0178533 -0.14787 0)
(-0.0184283 -0.144821 0)
(-0.018678 -0.1417 0)
(-0.0186159 -0.138611 0)
(-0.0182769 -0.135632 0)
(0.000206571 -0.173513 0)
(-0.000889515 -0.182766 0)
(-0.00290708 -0.182391 0)
(-0.00421877 -0.181646 0)
(-0.0056284 -0.180681 0)
(-0.0068526 -0.179497 0)
(-0.00802483 -0.178113 0)
(-0.00906217 -0.176477 0)
(-0.00994382 -0.174602 0)
(-0.0105921 -0.172429 0)
(-0.0110008 -0.169967 0)
(-0.011251 -0.167278 0)
(-0.0114592 -0.164448 0)
(-0.0117075 -0.16151 0)
(-0.0120116 -0.158489 0)
(-0.0123911 -0.155457 0)
(-0.0128635 -0.152471 0)
(-0.01337 -0.149561 0)
(-0.0140505 -0.146805 0)
(-0.0147933 -0.144105 0)
(-0.0153908 -0.141402 0)
(-0.0156098 -0.138686 0)
(-0.0155236 -0.136047 0)
(0.000185758 -0.173575 0)
(-0.00165996 -0.181442 0)
(-0.00455267 -0.181118 0)
(-0.00659627 -0.180566 0)
(-0.00868763 -0.179727 0)
(-0.0104499 -0.178596 0)
(-0.0120925 -0.177297 0)
(-0.013492 -0.175793 0)
(-0.0146166 -0.174077 0)
(-0.0154449 -0.172157 0)
(-0.0158881 -0.169958 0)
(-0.0159111 -0.167445 0)
(-0.0156046 -0.164686 0)
(-0.01507 -0.161747 0)
(-0.014396 -0.158673 0)
(-0.0136824 -0.155535 0)
(-0.0130484 -0.152395 0)
(-0.0126093 -0.149302 0)
(-0.0123248 -0.146315 0)
(-0.012219 -0.143489 0)
(-0.0121949 -0.14081 0)
(-0.0124091 -0.138244 0)
(-0.0128298 -0.135828 0)
(-0.000213394 -0.172264 0)
(-0.00285464 -0.17821 0)
(-0.00653472 -0.177975 0)
(-0.00941985 -0.17762 0)
(-0.0123281 -0.176996 0)
(-0.0148947 -0.176138 0)
(-0.0171509 -0.175078 0)
(-0.0190969 -0.173874 0)
(-0.020704 -0.172519 0)
(-0.0219479 -0.171 0)
(-0.0228124 -0.169323 0)
(-0.0231984 -0.16739 0)
(-0.0230366 -0.165157 0)
(-0.0223781 -0.162632 0)
(-0.0212588 -0.159839 0)
(-0.0197252 -0.156806 0)
(-0.0178908 -0.153586 0)
(-0.0159349 -0.150273 0)
(-0.0140895 -0.146975 0)
(-0.0125245 -0.14379 0)
(-0.0113863 -0.140798 0)
(-0.0106969 -0.138044 0)
(-0.0107455 -0.135562 0)
(-0.000769778 -0.168313 0)
(-0.0038231 -0.172005 0)
(-0.00756911 -0.17194 0)
(-0.0107733 -0.17189 0)
(-0.0139845 -0.171697 0)
(-0.0169392 -0.171423 0)
(-0.0195886 -0.170984 0)
(-0.0219254 -0.170387 0)
(-0.0239364 -0.169623 0)
(-0.0256064 -0.168688 0)
(-0.0269233 -0.167586 0)
(-0.0278717 -0.166345 0)
(-0.0283897 -0.164912 0)
(-0.0284148 -0.163282 0)
(-0.0279207 -0.161407 0)
(-0.0268997 -0.159251 0)
(-0.0253362 -0.156782 0)
(-0.0232498 -0.153967 0)
(-0.0207073 -0.150788 0)
(-0.0179249 -0.147288 0)
(-0.0152062 -0.143535 0)
(-0.0128271 -0.139677 0)
(-0.0110395 -0.136102 0)
(-0.000766296 -0.166549 0)
(-0.00374959 -0.169045 0)
(-0.00743283 -0.169043 0)
(-0.0105828 -0.16906 0)
(-0.0137872 -0.168965 0)
(-0.0167893 -0.168799 0)
(-0.0195941 -0.168542 0)
(-0.0221362 -0.168184 0)
(-0.0243798 -0.167713 0)
(-0.0262872 -0.167119 0)
(-0.0278279 -0.166392 0)
(-0.028983 -0.165518 0)
(-0.0297107 -0.164481 0)
(-0.0299289 -0.163265 0)
(-0.0296151 -0.161841 0)
(-0.0288108 -0.160177 0)
(-0.0275393 -0.158251 0)
(-0.0258267 -0.156032 0)
(-0.0237157 -0.153476 0)
(-0.02128 -0.150538 0)
(-0.0186347 -0.147163 0)
(-0.01597 -0.1433 0)
(-0.0134312 -0.139001 0)
)
;

boundaryField
{
    leftWall
    {
        type            fixedValue;
        value           uniform (0 0 0);
    }
    rightWall
    {
        type            fixedValue;
        value           nonuniform 0();
    }
    lowerWall
    {
        type            fixedValue;
        value           nonuniform 0();
    }
    atmosphere
    {
        type            fluxCorrectedVelocity;
        value           nonuniform List<vector> 
23
(
(-0.000766296 -0.16651 0)
(-0.00374959 -0.168984 0)
(-0.00743283 -0.168983 0)
(-0.0105828 -0.169002 0)
(-0.0137872 -0.168911 0)
(-0.0167893 -0.168748 0)
(-0.0195941 -0.168496 0)
(-0.0221362 -0.168142 0)
(-0.0243798 -0.167676 0)
(-0.0262872 -0.167088 0)
(-0.0278279 -0.166365 0)
(-0.028983 -0.165495 0)
(-0.0297107 -0.164464 0)
(-0.0299289 -0.163253 0)
(-0.0296151 -0.161833 0)
(-0.0288108 -0.160176 0)
(-0.0275393 -0.158257 0)
(-0.0258267 -0.156043 0)
(-0.0237157 -0.153491 0)
(-0.02128 -0.150554 0)
(-0.0186347 -0.147176 0)
(-0.01597 -0.143309 0)
(-0.0134312 -0.139003 0)
)
;
    }
    defaultFaces
    {
        type            empty;
    }
    procBoundary2to0
    {
        type            processor;
        value           nonuniform List<vector> 
24
(
(-0.174452 -0.267051 0)
(-0.178397 -0.255046 0)
(-0.17485 -0.236744 0)
(-0.16886 -0.221757 0)
(-0.171178 -0.21855 0)
(-0.17712 -0.221416 0)
(-0.178354 -0.21396 0)
(0.000369185 -0.209838 0)
(-0.00280203 -0.228031 0)
(-0.00632238 -0.227923 0)
(-0.00959618 -0.229385 0)
(-0.0131799 -0.23089 0)
(-0.0157739 -0.23071 0)
(-0.0173514 -0.230731 0)
(-0.0183785 -0.23112 0)
(-0.0193229 -0.232122 0)
(-0.021516 -0.230087 0)
(-0.0251055 -0.233593 0)
(-0.0340166 -0.238699 0)
(-0.044178 -0.250037 0)
(-0.0641989 -0.256738 0)
(-0.0927362 -0.261022 0)
(-0.113231 -0.261746 0)
(-0.113231 -0.261746 0)
)
;
    }
    procBoundary2to3
    {
        type            processor;
        value           nonuniform List<vector> 
25
(
(-0.173754 -0.169634 0)
(-0.175348 -0.166547 0)
(-0.154555 -0.164225 0)
(-0.144921 -0.149206 0)
(-0.127804 -0.153881 0)
(-0.116421 -0.144547 0)
(-0.105285 -0.139483 0)
(-0.0956419 -0.134805 0)
(-0.0850797 -0.130892 0)
(-0.0760302 -0.128714 0)
(-0.0669032 -0.127048 0)
(-0.0588136 -0.126357 0)
(-0.051293 -0.126286 0)
(-0.0445039 -0.12678 0)
(-0.0384104 -0.127648 0)
(-0.0329946 -0.128776 0)
(-0.0282582 -0.130047 0)
(-0.0241639 -0.131342 0)
(-0.0206892 -0.132551 0)
(-0.0177483 -0.133575 0)
(-0.0152548 -0.134288 0)
(-0.0129774 -0.134396 0)
(-0.0109297 -0.134139 0)
(-0.0105041 -0.134145 0)
(-0.0124751 -0.136168 0)
)
;
    }
}


// ************************************************************************* //
