/*--------------------------------*- C++ -*----------------------------------*\
| =========                 |                                                 |
| \\      /  F ield         | OpenFOAM: The Open Source CFD Toolbox           |
|  \\    /   O peration     | Version:  2.4.0                                 |
|   \\  /    A nd           | Web:      www.OpenFOAM.org                      |
|    \\/     M anipulation  |                                                 |
\*---------------------------------------------------------------------------*/
FoamFile
{
    version     2.0;
    format      ascii;
    class       volScalarField;
    location    "0.55";
    object      alpha.air;
}
// * * * * * * * * * * * * * * * * * * * * * * * * * * * * * * * * * * * * * //

dimensions      [0 0 0 0 0 0 0];

internalField   nonuniform List<scalar> 
575
(
2.10724e-13
2.47578e-13
1.52908e-13
3.65108e-13
2.48741e-13
1.83667e-13
2.53248e-13
2.62491e-13
2.32948e-13
1.40691e-13
9.01415e-14
8.07291e-14
8.03336e-14
6.88505e-14
5.29013e-14
3.69262e-14
2.37239e-14
1.43e-14
8.62841e-15
5.59436e-15
3.68133e-15
1.97361e-15
2.6881e-12
3.06467e-12
2.18791e-12
4.03997e-12
3.06089e-12
2.57619e-12
3.23815e-12
3.08183e-12
2.48469e-12
1.47084e-12
9.58924e-13
7.66749e-13
6.51987e-13
5.21422e-13
3.95985e-13
2.81702e-13
1.85035e-13
1.13779e-13
6.86189e-14
4.49211e-14
2.79601e-14
1.24847e-14
1.80081e-11
1.97808e-11
1.6255e-11
2.37483e-11
2.02272e-11
1.88691e-11
2.15509e-11
1.93555e-11
1.45366e-11
8.40813e-12
5.29393e-12
3.77153e-12
2.81478e-12
2.06772e-12
1.54745e-12
1.10544e-12
7.30263e-13
4.53948e-13
2.82607e-13
1.8667e-13
1.14712e-13
5.18813e-14
8.21462e-11
8.67011e-11
8.05378e-11
9.51936e-11
9.02949e-11
8.84044e-11
9.05209e-11
7.85683e-11
5.72487e-11
3.26283e-11
1.76382e-11
1.16971e-11
8.42647e-12
5.71478e-12
4.01787e-12
2.84877e-12
1.95389e-12
1.25639e-12
8.13394e-13
5.53244e-13
3.24568e-13
1.33013e-13
2.57538e-10
2.57319e-10
2.57656e-10
2.57311e-10
2.57766e-10
2.57211e-10
2.57325e-10
2.23199e-10
1.67619e-10
1.08078e-10
6.12574e-11
3.40318e-11
2.32128e-11
1.59436e-11
1.08698e-11
7.04504e-12
4.38902e-12
2.69135e-12
1.71349e-12
1.15662e-12
6.64909e-13
2.45923e-13
1.50881e-10
1.72114e-10
1.82455e-10
2.06848e-10
1.93997e-10
1.19321e-10
5.84883e-11
4.72574e-11
5.2142e-11
5.60998e-11
7.02576e-11
7.90465e-11
6.26085e-11
4.33538e-11
2.63156e-11
1.50577e-11
8.75471e-12
4.89502e-12
3.00239e-12
1.91551e-12
1.06856e-12
3.74662e-13
5.93569e-11
6.02253e-11
6.15664e-11
6.3273e-11
5.71266e-11
4.36374e-11
4.40941e-11
4.81221e-11
1.64455e-10
4.05221e-10
5.38102e-10
6.60312e-10
4.37671e-10
1.73104e-10
7.98815e-11
4.42741e-11
2.12638e-11
9.02059e-12
4.5006e-12
2.56531e-12
1.4122e-12
5.30222e-13
4.38903e-11
4.3779e-11
4.37487e-11
5.19598e-11
4.34727e-11
4.35602e-11
2.4899e-10
2.53102e-10
7.79408e-10
1.2616e-09
1.71323e-09
2.368e-09
2.34165e-09
1.52092e-09
5.37448e-10
1.54838e-10
2.03118e-11
6.51653e-12
4.46565e-12
2.56937e-12
1.46042e-12
6.5428e-13
7.80798e-09
7.58491e-09
3.96388e-09
1.09235e-09
1.73999e-09
4.32201e-09
3.21608e-09
1.73235e-09
1.43012e-09
1.65739e-09
2.35877e-09
3.45925e-09
4.59145e-09
6.48894e-09
6.02658e-09
4.87921e-09
1.23963e-09
1.43904e-10
1.91098e-11
5.75202e-12
1.61577e-12
1.66701e-12
2.72749e-07
2.61155e-07
1.64331e-07
4.66962e-08
5.43982e-08
5.67851e-08
1.55136e-08
5.04093e-09
2.65378e-09
1.98131e-09
1.99092e-09
2.32263e-09
3.6971e-09
8.12473e-09
1.25303e-08
1.25297e-08
9.10479e-09
2.22491e-09
6.52515e-10
3.75258e-10
1.32065e-10
1.72735e-11
8.16842e-07
7.80622e-07
7.29349e-07
4.09001e-07
2.48757e-07
6.00865e-07
9.51452e-07
7.30091e-07
3.47933e-07
1.63416e-07
3.90517e-08
5.72644e-09
4.71828e-09
5.01911e-09
5.26688e-09
7.3188e-09
9.38457e-09
9.21574e-09
5.6932e-09
2.13737e-09
9.74902e-10
5.85202e-10
0.00024559
0.000369685
0.00136432
0.000613289
0.000222642
0.000764859
0.000641214
0.000236923
8.77115e-05
7.95824e-05
6.88068e-05
8.20696e-06
1.13148e-06
6.56871e-08
9.53298e-09
5.54069e-09
5.53452e-09
5.69031e-09
5.37859e-09
4.67657e-09
3.85223e-09
4.03325e-08
0.38981
0.359966
0.264935
0.117959
0.0661008
0.0940319
0.067767
0.0374124
0.0239169
0.0231387
0.0164718
0.00354892
0.0014225
0.000136639
4.94153e-05
1.98108e-06
1.27759e-08
5.36915e-09
5.36537e-09
2.64304e-06
7.08021e-06
4.86361e-05
0.999568
0.995551
0.999506
0.988416
0.936102
0.86083
0.73939
0.64494
0.540077
0.361346
0.167641
0.0627977
0.0363429
0.0303418
0.018654
0.00435825
0.00396686
0.00200254
0.000810224
0.00487008
0.00684498
0.0163875
0.999999
0.999999
0.999999
0.999995
0.999646
0.996998
0.994025
0.999359
0.999717
0.993813
0.944753
0.792241
0.607492
0.417919
0.27213
0.161448
0.10365
0.0711766
0.0645356
0.112793
0.138604
0.238073
0.999999
0.999999
0.999999
0.999998
0.999997
0.999986
0.999976
0.999999
1
1
0.999999
0.999997
0.999959
0.998983
0.988875
0.952443
0.895707
0.826024
0.778437
0.898062
0.921546
0.975602
0.999999
0.999999
0.999999
0.999998
0.999999
0.999999
0.999999
1
1
1
1
1
1
1
0.999999
0.999999
0.999999
0.999999
0.999999
0.999999
0.999999
0.999999
0.999999
0.999998
0.999998
0.999998
0.999999
0.999999
0.999999
0.999999
0.999999
1
1
1
1
1
1
0.999999
0.999999
0.999999
0.999999
0.999999
0.999999
0.999999
0.999999
0.999999
0.999998
0.999998
0.999998
0.999999
0.999999
0.999999
0.999999
0.999999
1
1
1
1
1
0.999999
0.999999
0.999999
0.999999
0.999999
0.999999
0.999999
0.999999
1
1
0.999998
0.999998
0.999998
0.999999
0.999999
0.999999
0.999999
0.999999
1
1
1
1
1
0.999999
0.999999
0.999999
0.999999
0.999999
0.999999
0.999999
1
1
1
0.999998
0.999998
0.999999
0.999999
0.999999
0.999999
0.999999
0.999999
1
1
1
1
1
0.999999
0.999999
1
1
1
1
1
1
1
1
0.999998
0.999999
0.999999
0.999999
0.999999
0.999999
0.999999
1
1
1
1
1
1
1
1
1
1
1
1
1
1
1
1
0.999999
0.999999
0.999999
0.999999
0.999999
0.999999
1
1
1
1
1
1
1
1
1
1
1
1
1
1
1
1
1
0.999999
0.999999
0.999999
0.999999
0.999999
1
1
1
1
1
1
1
1
1
1
1
1
1
1
1
1
1
1
0.999999
0.999999
0.999999
0.999999
0.999999
1
1
1
1
1
1
1
1
0.999999
0.999999
1
1
1
1
1
1
1
0.999999
0.999999
0.999999
0.999999
0.999999
1
1
1
1
1
1
1
1
0.999999
0.999999
0.999999
0.999999
)
;

boundaryField
{
    leftWall
    {
        type            alphaContactAngle;
        thetaProperties 
6
(

(
water
mercury
)
 90 0 0 0

(
water
air
)
 90 0 0 0

(
water
oil
)
 90 0 0 0

(
mercury
air
)
 90 0 0 0

(
oil
mercury
)
 90 0 0 0

(
oil
air
)
 90 0 0 0
);
        value           nonuniform List<scalar> 
26
(
2.10724e-13
2.6881e-12
1.80081e-11
8.21462e-11
2.57538e-10
1.50881e-10
5.93569e-11
4.38903e-11
7.80798e-09
2.72749e-07
8.16842e-07
0.00024559
0.38981
0.999568
0.999999
0.999999
0.999999
0.999998
0.999998
0.999998
0.999998
0.999998
0.999999
0.999999
0.999999
0.999999
)
;
    }
    rightWall
    {
        type            alphaContactAngle;
        thetaProperties 
6
(

(
water
mercury
)
 90 0 0 0

(
water
air
)
 90 0 0 0

(
water
oil
)
 90 0 0 0

(
mercury
air
)
 90 0 0 0

(
oil
mercury
)
 90 0 0 0

(
oil
air
)
 90 0 0 0
);
        value           nonuniform 0();
    }
    lowerWall
    {
        type            alphaContactAngle;
        thetaProperties 
6
(

(
water
mercury
)
 90 0 0 0

(
water
air
)
 90 0 0 0

(
water
oil
)
 90 0 0 0

(
mercury
air
)
 90 0 0 0

(
oil
mercury
)
 90 0 0 0

(
oil
air
)
 90 0 0 0
);
        value           nonuniform List<scalar> 
22
(
2.10724e-13
2.47578e-13
1.52908e-13
3.65108e-13
2.48741e-13
1.83667e-13
2.53248e-13
2.62491e-13
2.32948e-13
1.40691e-13
9.01415e-14
8.07291e-14
8.03336e-14
6.88505e-14
5.29013e-14
3.69262e-14
2.37239e-14
1.43e-14
8.62841e-15
5.59436e-15
3.68133e-15
1.97361e-15
)
;
    }
    atmosphere
    {
        type            inletOutlet;
        inletValue      nonuniform 0();
        value           nonuniform 0();
    }
    defaultFaces
    {
        type            empty;
    }
    procBoundary0to1
    {
        type            processor;
        value           nonuniform List<scalar> 
26
(
4.59071e-16
3.17645e-15
1.85337e-14
3.85803e-14
6.58307e-14
8.36468e-14
1.14776e-13
1.79431e-13
6.86848e-13
5.40486e-12
2.00434e-10
1.93645e-07
0.000240962
0.0367482
0.378659
0.993864
0.993864
1
1
1
1
1
1
1
1
1
)
;
    }
    procBoundary0to2
    {
        type            processor;
        value           nonuniform List<scalar> 
24
(
1
1
1
1
1
0.999999
1
0.999999
0.999999
0.999999
0.999999
1
1
1
1
1
1
1
1
0.999999
0.999999
0.999999
1
1
)
;
    }
}


// ************************************************************************* //
