/*--------------------------------*- C++ -*----------------------------------*\
| =========                 |                                                 |
| \\      /  F ield         | OpenFOAM: The Open Source CFD Toolbox           |
|  \\    /   O peration     | Version:  2.4.0                                 |
|   \\  /    A nd           | Web:      www.OpenFOAM.org                      |
|    \\/     M anipulation  |                                                 |
\*---------------------------------------------------------------------------*/
FoamFile
{
    version     2.0;
    format      ascii;
    class       volScalarField;
    location    "0.55";
    object      alphas;
}
// * * * * * * * * * * * * * * * * * * * * * * * * * * * * * * * * * * * * * //

dimensions      [0 0 0 0 0 0 0];

internalField   nonuniform List<scalar> 
575
(
2
2
2
2
2
2
2
2
2
2
2
2
2
2
2
2
2
2
2
2
2
2
2
2
2
2
2
2
2
2
2
2
2
2
2
2
2
2
2
2
2
2
2
2
1.99993
1.99991
1.99994
1.99986
1.9999
1.9999
1.99981
1.9998
1.99978
1.99987
1.99987
1.99991
1.99996
1.99999
2
2
2
2
2
2
2
2
1.96658
1.96324
1.96877
1.95598
1.9592
1.95723
1.94321
1.94184
1.93718
1.94734
1.94632
1.95753
1.97825
1.99622
1.99967
1.99996
1.99999
2
2
2
2
2
1.12513
1.09515
1.12593
1.04219
1.0487
1.01201
0.922329
0.900337
0.85526
0.867904
0.853558
0.890055
0.988896
1.21943
1.61387
1.94378
1.99795
1.99996
2
2
2
2
0.0169429
0.0146298
0.0160306
0.0110711
0.0109364
0.00876355
0.00528537
0.00396123
0.00282888
0.0022909
0.00170484
0.00137081
0.00130195
0.00501773
0.135612
0.729147
1.71082
1.98541
1.99958
1.99997
2
2
1.87912e-05
1.83797e-05
1.8021e-05
1.73172e-05
1.64741e-05
1.47335e-05
1.43215e-05
1.43053e-05
1.43109e-05
1.43679e-05
1.44167e-05
1.44539e-05
1.44688e-05
1.44845e-05
0.000662151
0.030565
0.510048
1.7991
1.99136
1.9997
1.99998
2
1.76164e-05
1.74921e-05
1.69433e-05
1.75857e-05
1.66679e-05
1.48939e-05
1.49237e-05
1.42913e-05
1.42379e-05
1.42411e-05
1.44167e-05
1.44602e-05
1.50029e-05
1.53766e-05
1.58886e-05
0.000137147
0.033979
1.05002
1.96724
1.99919
1.99994
2
1.53822e-05
1.4903e-05
1.40863e-05
1.43594e-05
1.30492e-05
1.03867e-05
1.11157e-05
1.15695e-05
1.175e-05
1.28552e-05
1.31885e-05
1.36601e-05
1.46714e-05
1.57169e-05
1.64271e-05
1.88059e-05
0.00110347
0.16273
1.31968
1.96282
1.99854
1.99898
2.90034e-06
2.80825e-06
2.42634e-06
1.96605e-06
1.89212e-06
2.01581e-06
1.07571e-05
0.00030998
0.000806338
0.00125902
0.000827419
0.000459244
9.99385e-05
9.50127e-06
5.7988e-06
6.9515e-06
1.64829e-05
0.00570977
0.1943
0.81093
1.53422
1.75135
2.66173e-06
2.53862e-06
2.3742e-06
1.40999e-06
1.1072e-06
8.93932e-05
0.00363609
0.0280303
0.0495001
0.0620078
0.0476148
0.0315075
0.011662
0.00279032
0.000508471
0.000110427
3.14305e-05
0.000140355
0.00839341
0.05919
0.113186
0.2005
0.000736778
0.00110906
0.00409296
0.00184043
0.00072378
0.0102642
0.096484
0.293856
0.410075
0.46129
0.418432
0.3434
0.22971
0.124091
0.040059
0.010168
0.00244955
0.000544168
0.000705939
0.00139016
0.00255517
0.00388998
1.16943
1.0799
0.794806
0.353879
0.199062
0.335439
0.561797
0.820805
0.902157
0.923458
0.904363
0.866494
0.809943
0.714697
0.571785
0.337666
0.150144
0.0706428
0.0305941
0.0305894
0.0339902
0.0671786
2.9987
2.98665
2.99852
2.96525
2.80874
2.6261
2.43868
2.28566
2.07719
1.7182
1.32905
1.11764
1.06278
1.04485
1.00984
0.966899
0.824661
0.698708
0.494949
0.57102
0.573279
0.642074
3
3
3
2.99999
2.99921
2.99366
2.98787
2.9987
2.99943
2.98762
2.88949
2.58445
2.21494
1.83579
1.54417
1.32256
1.20568
1.13662
1.11781
1.22126
1.27007
1.46801
3
3
3
2.99999
2.99999
2.99997
2.99995
3
3
3
3
2.99999
2.99992
2.99797
2.97775
2.90488
2.79141
2.65203
2.55685
2.7961
2.84307
2.95119
3
3
3
3
3
3
3
3
3
3
3
3
3
3
3
3
3
3
3
3
3
3
3
3
3
3
3
3
3
3
3
3
3
3
3
3
3
3
3
3
3
3
3
3
3
3
3
2.99999
2.99999
3
3
3
3
3
3
3
3
3
3
3
3
3
3
3
3
3
3
3
3
2.99999
2.99999
3
3
3
3
3
3
3
3
3
3
3
3
3
3
3
3
3
3
3
3
3
3
3
3
3
3
3
3
3
3
3
3
3
3
3
3
3
3
3
3
3
3
3
3
3
3
3
3
3
3
3
3
3
3
3
3
3
3
3
3
3
3
3
3
3
3
3
3
3
3
3
3
3
3
3
3
3
3
3
3
3
3
3
3
3
3
3
3
3
3
3
3
3
3
3
3
3
3
3
3
3
3
3
3
3
3
3
3
3
3
3
3
3
3
3
3
3
3
3
3
3
3
3
3
3
3
3
3
3
3
3
3
3
3
3
3
3
3
3
3
3
3
3
3
3
3
3
3
3
3
3
3
)
;

boundaryField
{
    leftWall
    {
        type            zeroGradient;
    }
    rightWall
    {
        type            zeroGradient;
    }
    lowerWall
    {
        type            zeroGradient;
    }
    atmosphere
    {
        type            zeroGradient;
    }
    defaultFaces
    {
        type            empty;
    }
    procBoundary0to1
    {
        type            processor;
        value           nonuniform List<scalar> 
26
(
1.99999
1.99999
1.99999
1.99999
1.99999
1.99999
1.99998
1.99998
1.99957
1.80142
0.341926
0.00816077
0.158724
0.762152
1.75038
2.98772
2.98772
3
3
3
3
3
3
3
3
3
)
;
    }
    procBoundary0to2
    {
        type            processor;
        value           nonuniform List<scalar> 
24
(
3
3
3
3
3
3
3
3
3
3
3
3
3
3
3
3
3
3
3
3
3
3
3
3
)
;
    }
}


// ************************************************************************* //
