/*--------------------------------*- C++ -*----------------------------------*\
| =========                 |                                                 |
| \\      /  F ield         | OpenFOAM: The Open Source CFD Toolbox           |
|  \\    /   O peration     | Version:  2.4.0                                 |
|   \\  /    A nd           | Web:      www.OpenFOAM.org                      |
|    \\/     M anipulation  |                                                 |
\*---------------------------------------------------------------------------*/
FoamFile
{
    version     2.0;
    format      ascii;
    class       volScalarField;
    location    "0.55";
    object      alpha.mercury;
}
// * * * * * * * * * * * * * * * * * * * * * * * * * * * * * * * * * * * * * //

dimensions      [0 0 0 0 0 0 0];

internalField   nonuniform List<scalar> 
575
(
1
1
1
1
1
1
1
1
1
1
1
1
1
1
1
1
1
1
1
1
1
0.999999
1
1
1
1
1
1
1
1
1
1
1
1
1
1
1
1
1
1
1
1
1
0.999999
0.999963
0.999954
0.999972
0.999929
0.999949
0.999951
0.999904
0.999899
0.999889
0.999935
0.999937
0.999955
0.999982
0.999996
0.999999
1
1
1
1
1
1
0.999999
0.983291
0.98162
0.984387
0.977992
0.979601
0.978615
0.971606
0.970921
0.96859
0.973669
0.973162
0.978763
0.989123
0.998112
0.999834
0.999981
0.999997
0.999999
1
1
1
0.999999
0.562566
0.547575
0.562963
0.521095
0.524349
0.506006
0.461165
0.450168
0.42763
0.433952
0.426779
0.445027
0.494448
0.609716
0.806934
0.971891
0.998976
0.999979
0.999998
0.999999
1
0.999999
0.00847144
0.00731492
0.00801532
0.00553556
0.00546819
0.00438178
0.00264269
0.00198061
0.00141444
0.00114545
0.000852419
0.000685405
0.000650975
0.00250886
0.0678062
0.364574
0.855409
0.992707
0.99979
0.999987
0.999998
0.999999
9.39552e-06
9.18976e-06
9.01041e-06
8.65852e-06
8.23694e-06
7.36669e-06
7.16069e-06
7.15259e-06
7.15505e-06
7.18305e-06
7.20753e-06
7.22595e-06
7.23372e-06
7.24178e-06
0.00033107
0.0152824
0.255023
0.899548
0.995677
0.999849
0.999989
0.999997
8.80812e-06
8.74599e-06
8.47157e-06
8.79277e-06
8.33387e-06
7.44691e-06
7.45368e-06
7.14458e-06
7.0651e-06
7.04411e-06
7.20006e-06
7.22653e-06
7.49792e-06
7.68554e-06
7.69219e-06
6.73516e-05
0.0169884
0.524997
0.983602
0.999593
0.99997
0.999997
7.67939e-06
7.44012e-06
7.03722e-06
7.17806e-06
6.52198e-06
5.18611e-06
5.38732e-06
4.77861e-06
4.2132e-06
4.16872e-06
4.79101e-06
5.3878e-06
6.43212e-06
7.61335e-06
8.08372e-06
9.04402e-06
0.000549463
0.0813488
0.659716
0.981311
0.999175
0.999478
1.04105e-06
1.01239e-06
9.6667e-07
9.12912e-07
8.61233e-07
7.41952e-07
6.56226e-07
5.63623e-07
4.90332e-07
4.63444e-07
4.90271e-07
5.10328e-07
5.86869e-07
7.16797e-07
1.52401e-06
2.69118e-06
5.29485e-06
0.00284294
0.0970316
0.404913
0.766259
0.875172
1.05603e-07
9.83734e-08
9.30547e-08
8.66258e-08
7.59652e-08
4.62619e-08
3.4314e-08
2.19702e-08
1.90218e-08
1.81876e-08
2.09216e-08
2.46653e-08
3.60805e-08
5.60247e-08
1.01833e-07
3.7159e-07
1.28873e-06
5.28565e-05
0.00414102
0.0293757
0.0561125
0.0992996
4.06632e-09
3.74184e-09
3.38136e-09
2.94434e-09
2.76471e-09
1.52426e-09
7.83968e-10
3.88947e-10
3.75558e-10
3.86511e-10
4.63714e-10
5.54154e-10
8.90112e-10
1.49643e-09
3.13288e-09
1.0458e-08
1.27877e-07
3.78901e-06
0.000157883
0.000489123
0.00102804
0.00144668
2.6618e-11
2.63332e-11
2.69983e-11
2.43444e-11
1.64635e-11
6.95137e-12
3.34622e-12
2.33913e-12
2.37947e-12
2.82381e-12
4.01249e-12
5.82573e-12
6.95213e-12
1.32203e-11
2.88079e-11
7.98418e-11
2.41333e-09
4.24579e-08
4.09526e-06
4.28228e-05
9.26153e-05
0.000107821
4.64341e-14
3.78732e-13
3.15893e-15
2.53569e-15
2.52116e-15
8.46861e-15
2.62098e-14
5.77584e-14
1.02646e-13
1.71337e-13
2.96607e-13
5.1127e-13
8.38116e-13
1.30783e-12
2.02169e-12
3.17091e-12
6.39805e-12
7.60717e-11
6.09492e-09
1.24867e-07
8.56451e-07
1.30603e-06
2.53163e-16
1.01776e-14
8.88357e-16
2.05438e-16
6.58819e-17
4.15241e-16
2.66959e-15
4.44883e-14
1.04668e-13
1.62145e-13
3.0689e-13
6.46853e-13
1.2248e-12
2.13728e-12
3.52693e-12
5.76614e-12
8.91719e-12
1.31213e-11
7.25978e-11
1.18653e-09
8.81613e-09
3.68069e-08
1.27198e-18
5.44805e-17
2.1139e-19
6.9152e-19
4.65076e-18
4.75008e-17
1.51581e-15
2.36559e-14
1.76231e-14
5.76873e-15
6.23464e-15
6.57184e-14
3.95078e-13
1.03942e-12
1.66667e-12
3.02659e-12
5.44663e-12
9.57417e-12
1.51743e-10
1.70273e-09
5.24283e-09
4.54593e-09
2.14487e-20
4.73104e-19
1.10374e-20
9.83905e-21
2.78421e-18
5.45982e-17
8.63008e-16
9.1128e-15
3.72579e-15
9.28658e-16
3.20398e-16
2.87362e-15
2.88921e-14
5.91918e-15
8.1041e-16
1.26682e-15
4.39591e-15
1.36304e-14
2.3418e-14
2.92137e-14
8.96756e-14
1.02525e-13
2.04047e-13
1.46061e-22
1.36809e-23
4.57931e-22
1.33917e-20
3.41845e-19
6.70703e-18
1.47355e-16
1.97904e-15
1.23833e-15
6.07958e-16
2.69163e-16
5.66567e-17
7.17231e-18
1.24885e-18
4.99366e-18
7.1039e-17
1.86666e-16
1.29422e-16
1.19043e-15
8.60012e-16
5.21121e-16
1.01462e-15
4.31381e-15
1.46055e-24
5.84034e-26
3.59215e-24
4.19653e-22
2.25634e-20
3.41917e-19
3.91487e-18
1.5353e-16
4.13858e-16
2.66279e-16
1.06587e-16
2.87677e-17
6.03382e-18
1.22991e-18
7.76019e-19
3.03314e-18
1.15932e-17
3.37573e-17
7.77354e-17
1.59292e-16
4.47646e-16
2.07414e-15
9.65297e-15
3.98384e-27
6.62226e-30
5.22558e-29
7.11641e-27
1.90345e-22
8.34106e-21
1.50628e-19
1.51506e-18
8.92731e-17
5.66584e-17
1.27526e-17
2.26941e-18
3.26715e-19
1.90584e-19
1.27531e-18
6.7707e-18
2.81627e-17
9.37572e-17
2.51069e-16
5.93169e-16
1.53783e-15
5.20168e-15
1.93799e-14
2.40662e-30
4.4319e-33
2.1096e-33
1.74771e-31
1.27375e-28
4.14945e-27
3.6331e-26
1.59164e-25
4.45905e-25
2.17257e-18
1.51668e-19
1.40909e-20
2.33769e-20
2.86738e-19
2.22699e-18
1.15339e-17
4.69085e-17
1.60267e-16
4.86258e-16
1.35021e-15
3.9783e-15
1.32707e-14
4.59601e-14
6.02664e-38
7.16065e-36
1.38498e-33
1.93192e-31
2.25675e-29
1.70737e-27
2.57821e-26
1.74962e-25
8.72408e-25
6.43692e-24
1.08479e-22
2.27017e-21
3.53232e-20
4.0122e-19
3.14412e-18
1.62782e-17
6.40099e-17
2.12291e-16
6.39849e-16
1.83233e-15
5.33708e-15
1.62599e-14
5.01964e-14
1.65871e-38
1.83942e-35
3.33134e-33
4.19834e-31
2.97208e-29
1.08101e-27
1.58851e-26
1.39727e-25
1.09312e-24
9.68892e-24
1.50659e-22
2.60188e-21
3.46205e-20
3.34937e-19
2.14076e-18
9.34576e-18
3.38925e-17
1.08398e-16
3.20813e-16
9.01772e-16
2.54722e-15
7.34586e-15
2.09843e-14
4.16521e-38
3.65909e-35
6.00324e-33
6.18528e-31
2.50537e-29
5.35537e-28
7.53024e-27
8.22752e-26
8.39954e-25
8.81409e-24
1.20578e-22
1.36641e-21
1.15964e-20
7.64203e-20
3.8113e-19
1.47437e-18
4.93311e-18
1.56984e-17
4.98158e-17
1.53778e-16
4.49664e-16
1.26611e-15
3.53968e-15
7.7393e-38
4.5328e-35
6.4973e-33
3.4928e-31
9.94994e-30
1.81271e-28
2.50774e-27
2.98831e-26
3.3542e-25
3.51794e-24
3.65568e-23
2.85216e-22
1.75574e-21
9.24324e-21
3.89249e-20
1.41521e-19
4.78409e-19
1.56673e-18
4.98055e-18
1.53757e-17
4.39281e-17
1.18368e-16
3.19931e-16
8.33684e-38
2.02656e-35
1.51249e-33
6.07655e-32
1.64208e-30
3.12555e-29
4.67258e-28
5.85004e-27
6.48627e-26
5.91344e-25
4.72414e-24
2.97353e-23
1.56968e-22
6.94005e-22
2.51168e-21
8.87762e-21
)
;

boundaryField
{
    leftWall
    {
        type            zeroGradient;
    }
    rightWall
    {
        type            zeroGradient;
    }
    lowerWall
    {
        type            zeroGradient;
    }
    atmosphere
    {
        type            inletOutlet;
        inletValue      nonuniform 0();
        value           nonuniform 0();
    }
    defaultFaces
    {
        type            empty;
    }
    procBoundary0to1
    {
        type            processor;
        value           nonuniform List<scalar> 
26
(
0.999989
0.999986
0.999987
0.999987
0.999987
0.999985
0.999982
0.99998
0.999774
0.900308
0.169102
0.00176523
9.40878e-05
1.5563e-06
9.69438e-08
2.63415e-09
2.63415e-09
3.13776e-13
9.66896e-15
2.76089e-14
5.98178e-14
1.55856e-13
1.54334e-13
5.93666e-14
1.04559e-14
9.43558e-16
)
;
    }
    procBoundary0to2
    {
        type            processor;
        value           nonuniform List<scalar> 
24
(
3.00643e-20
9.70168e-20
2.99921e-19
8.87991e-19
2.3861e-18
5.7499e-18
1.41407e-17
1.48423e-38
1.65985e-36
1.07718e-34
4.68412e-33
1.45931e-31
3.27085e-30
5.37792e-29
6.7357e-28
6.5226e-27
4.92772e-26
3.22859e-25
1.93809e-24
1.10699e-23
5.61112e-23
2.77334e-22
3.00643e-20
1.24088e-21
)
;
    }
}


// ************************************************************************* //
