/*--------------------------------*- C++ -*----------------------------------*\
| =========                 |                                                 |
| \\      /  F ield         | OpenFOAM: The Open Source CFD Toolbox           |
|  \\    /   O peration     | Version:  2.4.0                                 |
|   \\  /    A nd           | Web:      www.OpenFOAM.org                      |
|    \\/     M anipulation  |                                                 |
\*---------------------------------------------------------------------------*/
FoamFile
{
    version     2.0;
    format      ascii;
    class       volScalarField;
    location    "0.55";
    object      p;
}
// * * * * * * * * * * * * * * * * * * * * * * * * * * * * * * * * * * * * * //

dimensions      [1 -1 -2 0 0 0 0];

internalField   nonuniform List<scalar> 
575
(
4076.4
4073.76
4063.5
4068.43
4052.45
4043.11
4043.55
4039.2
4046.08
4067.87
4107.07
4181.29
4311.61
4529.97
4858.61
5332.79
5900.73
6505.96
7044.99
7459.2
7759.93
7969.47
3276.63
3272.6
3266.34
3264.88
3252.69
3244.34
3241.68
3236.3
3242.93
3265.7
3305.12
3375.44
3502.39
3703.75
4043.14
4516.84
5084.59
5700.32
6256.87
6675.84
6986.42
7191.96
2467.58
2461.93
2459.4
2451.57
2443.01
2435.89
2429.63
2424.28
2428.71
2452.23
2489.61
2551.95
2665.12
2846.53
3149.87
3645.81
4251.89
4914.9
5484.77
5916.95
6227.29
6429.93
1647.76
1638.5
1642.98
1625.27
1621.04
1610.58
1588.39
1575.72
1566.25
1574.69
1595.54
1645.06
1760.95
1968.46
2335.05
2810.47
3391.1
4091.65
4718.67
5171.52
5491.43
5697.96
910.769
907.798
913.535
905.914
910.37
912.225
907.103
908.413
912.092
920.493
933.519
959.413
992.246
1015.04
1196.52
1760.56
2524.65
3289.9
3973.81
4447.87
4777.86
4979.66
744.695
748.134
752.317
760.898
769.195
778.531
786.861
794.783
802.363
810.014
817.658
826.006
834.271
862.289
896.145
1036.24
1477.83
2495.01
3260.71
3750.83
4091.53
4290.37
750.012
751.038
753.708
756.928
761.587
764.421
767.345
772.651
778.169
788.641
804.022
825.835
849.456
874.881
890.931
916.474
957.831
1673.62
2576.67
3063.55
3419.29
3630.36
641.116
643.743
648.675
654.908
662.267
670.649
675.832
681.134
686.683
692.893
698.675
706.462
716.933
744.741
790.074
848.077
835.502
1057.79
1888.98
2415.38
2770.3
2984.11
596.182
596.759
597.865
600.993
604.151
606.546
609.859
612.806
618.231
631.715
651.604
676.334
705.821
725.962
727.705
740.613
773.281
697.95
864.951
1351.3
1785.91
2041.07
433.902
436.627
442.2
449.098
455.571
459.031
459.203
457.859
457.4
459.088
462.18
470.033
484.13
509.42
538.311
559.838
569.523
541.826
457.183
380.978
397.092
526.712
300.235
302.22
305.818
312.608
320.06
327.863
328.353
318.908
317.436
328.255
347.308
370.029
393.654
413.969
424.662
431.357
426.565
398.593
315.926
212.417
154.259
147.187
163.476
171.62
185.022
209.309
228.244
237.102
223.54
191.451
181.574
183.144
192.852
204.518
219.708
240.341
265.557
285.921
297.393
292.637
268.417
238.259
203.63
170.131
5.372
5.93125
12.8339
25.0269
42.4869
57.9229
61.6158
54.5089
59.3662
77.0679
98.1381
115.557
125.399
132.256
142.916
153.658
170.287
177.37
177.325
159.753
132.073
110.12
4.71561
4.70094
4.1866
4.16629
5.25169
6.17401
6.22731
5.12194
6.72993
11.9986
21.5054
31.073
43.1551
57.8444
74.1647
90.292
105.704
112.234
115.506
106.742
89.3629
70.073
4.972
5.07544
5.34367
5.25222
4.75584
4.52822
4.40802
4.25093
4.0278
4.05631
4.49734
4.76696
5.07558
7.78318
13.6086
19.8029
24.1072
27.1126
30.6128
24.8279
21.7602
16.3266
4.3496
4.36772
4.40407
4.42886
4.397
4.42554
4.58723
4.64862
4.56144
4.5976
4.54766
4.41176
4.27742
4.01918
3.94697
4.12235
4.2881
4.52789
4.25287
3.60749
3.55907
3.53552
4.73908
4.69327
4.64554
4.58147
4.50855
4.44207
4.51816
4.43285
4.29267
4.32161
4.32336
4.36126
4.58817
4.72002
4.6885
4.56709
4.44002
4.36171
4.34076
4.42494
4.51256
4.60625
4.61615
4.3294
4.27162
4.27544
4.29388
4.30753
4.32361
4.37297
4.32208
4.3019
4.28596
4.24129
4.23474
4.23255
4.20366
4.19884
4.22425
4.24504
4.23963
4.22296
4.16305
4.11708
4.08829
4.08608
4.32453
4.31775
4.2767
4.23977
4.21612
4.20974
4.23164
4.20291
4.17774
4.17868
4.16984
4.16774
4.18495
4.18788
4.16689
4.1362
4.1131
4.08636
4.06736
4.05687
4.06065
4.0763
4.08973
4.08997
4.07259
4.07637
4.08273
4.08113
4.08119
4.08526
4.07211
4.06259
4.05832
4.05615
4.04484
4.03916
4.02979
4.01482
3.99826
3.9833
3.97003
3.96181
3.95704
3.95824
3.96123
3.96552
3.98834
3.97815
3.96196
3.95225
3.94628
3.94361
3.94168
3.93554
3.93095
3.92779
3.93061
3.92334
3.9145
3.9036
3.88856
3.87248
3.858
3.84401
3.83233
3.82491
3.82333
3.82604
3.83121
3.82304
3.82443
3.82146
3.81701
3.81279
3.80978
3.80646
3.80206
3.79772
3.79436
3.79077
3.78481
3.7778
3.76857
3.75734
3.74489
3.73402
3.72511
3.71845
3.7146
3.71252
3.71118
3.71099
3.68505
3.68447
3.68206
3.67905
3.6759
3.67309
3.66991
3.66636
3.6626
3.65902
3.65462
3.64919
3.64249
3.63418
3.62447
3.61434
3.60492
3.59624
3.58859
3.58309
3.57987
3.57832
3.57829
3.5474
3.5465
3.5446
3.54222
3.53957
3.53687
3.53389
3.53068
3.52717
3.52352
3.51922
3.51404
3.50799
3.50113
3.49352
3.48521
3.47743
3.47017
3.46414
3.45897
3.45479
3.45183
3.44983
3.40967
3.40891
3.40748
3.40557
3.40333
3.40088
3.39814
3.39517
3.39187
3.3883
3.38419
3.37945
3.37398
3.36803
3.36157
3.35463
3.34781
3.34132
3.33571
3.3308
3.32666
3.3232
3.32022
3.27269
3.27208
3.27092
3.26933
3.26738
3.26515
3.26266
3.25988
3.25679
3.25342
3.24959
3.24531
3.2405
3.23523
3.22954
3.2237
)
;

boundaryField
{
    leftWall
    {
        type            fixedFluxPressure;
        gradient        uniform 0;
        value           nonuniform List<scalar> 
26
(
4076.4
3276.63
2467.58
1647.76
910.769
744.695
750.012
641.116
596.182
433.902
300.235
163.476
5.372
4.71561
4.972
4.3496
4.73908
4.3294
4.32453
4.08997
3.98834
3.82304
3.68505
3.5474
3.40967
3.27269
)
;
    }
    rightWall
    {
        type            fixedFluxPressure;
        gradient        nonuniform 0();
        value           nonuniform 0();
    }
    lowerWall
    {
        type            fixedFluxPressure;
        gradient        nonuniform List<scalar> 
22
(
132719
132719
132719
132719
132719
132719
132719
132719
132719
132719
132719
132719
132719
132719
132719
132719
132719
132719
132719
132719
132719
132719
)
;
        value           nonuniform List<scalar> 
22
(
4474.55
4471.91
4461.65
4466.58
4450.6
4441.26
4441.7
4437.35
4444.23
4466.02
4505.22
4579.44
4709.76
4928.12
5256.76
5730.94
6298.88
6904.11
7443.14
7857.35
8158.08
8367.62
)
;
    }
    atmosphere
    {
        type            totalPressure;
        U               U.air;
        phi             phi.air;
        rho             rho;
        psi             none;
        gamma           1;
        p0              nonuniform 0();
        value           nonuniform 0();
    }
    defaultFaces
    {
        type            empty;
    }
    procBoundary0to1
    {
        type            processor;
        value           nonuniform List<scalar> 
26
(
8058.22
7272.43
6535.88
5801.71
5083.08
4385.64
3716.28
3069.04
2085.58
680.703
143.989
143.225
94.6257
51.7657
11.4771
3.65742
3.65742
4.55539
4.09935
4.09368
3.96993
3.83573
3.71111
3.57837
3.44874
3.31828
)
;
    }
    procBoundary0to2
    {
        type            processor;
        value           nonuniform List<scalar> 
24
(
3.2179
3.21217
3.20692
3.20214
3.1978
3.19391
3.19029
3.13628
3.13578
3.13482
3.13346
3.13174
3.12972
3.1274
3.12482
3.12196
3.11885
3.11536
3.11148
3.1072
3.10255
3.09758
3.2179
3.09246
)
;
    }
}


// ************************************************************************* //
