/*--------------------------------*- C++ -*----------------------------------*\
| =========                 |                                                 |
| \\      /  F ield         | OpenFOAM: The Open Source CFD Toolbox           |
|  \\    /   O peration     | Version:  2.4.0                                 |
|   \\  /    A nd           | Web:      www.OpenFOAM.org                      |
|    \\/     M anipulation  |                                                 |
\*---------------------------------------------------------------------------*/
FoamFile
{
    version     2.0;
    format      ascii;
    class       surfaceScalarField;
    location    "0.55";
    object      phi;
}
// * * * * * * * * * * * * * * * * * * * * * * * * * * * * * * * * * * * * * //

dimensions      [0 3 -1 0 0 0 0];

internalField   nonuniform List<scalar> 
1101
(
2.48918e-06
-2.48918e-06
5.19157e-06
-2.70239e-06
7.04048e-06
-1.84892e-06
1.02775e-05
-3.23698e-06
1.2793e-05
-2.51556e-06
1.46361e-05
-1.84308e-06
1.71367e-05
-2.5006e-06
1.97519e-05
-2.61523e-06
2.27876e-05
-3.03569e-06
2.45376e-05
-1.74994e-06
2.54148e-05
-8.77207e-07
2.6213e-05
-7.9825e-07
2.67483e-05
-5.35265e-07
2.66227e-05
1.25559e-07
2.48794e-05
1.7433e-06
2.17147e-05
3.16472e-06
1.6997e-05
4.71768e-06
1.17295e-05
5.26751e-06
6.98175e-06
4.74776e-06
4.36025e-06
2.62151e-06
2.91774e-06
1.44251e-06
2.63127e-06
2.50634e-06
-4.99551e-06
5.14323e-06
-5.33929e-06
7.27771e-06
-3.9834e-06
1.02034e-05
-6.16262e-06
1.26248e-05
-4.93698e-06
1.48049e-05
-4.02323e-06
1.7409e-05
-5.10469e-06
1.99556e-05
-5.16179e-06
2.25089e-05
-5.589e-06
2.41339e-05
-3.37491e-06
2.55964e-05
-2.33971e-06
2.68346e-05
-2.03643e-06
2.74102e-05
-1.11094e-06
2.68717e-05
6.64138e-07
2.53913e-05
3.22368e-06
2.2197e-05
6.35897e-06
1.73922e-05
9.52249e-06
1.18348e-05
1.0825e-05
7.54111e-06
9.04142e-06
4.71417e-06
5.44844e-06
2.86212e-06
3.29456e-06
4.926e-06
2.52504e-06
-7.52055e-06
5.04405e-06
-7.85829e-06
7.47312e-06
-6.41247e-06
1.00384e-05
-8.7279e-06
1.25007e-05
-7.39933e-06
1.5058e-05
-6.58048e-06
1.77005e-05
-7.74717e-06
2.00774e-05
-7.53875e-06
2.20605e-05
-7.57207e-06
2.37567e-05
-5.07107e-06
2.61282e-05
-4.71127e-06
2.79582e-05
-3.86647e-06
2.88528e-05
-2.00547e-06
2.821e-05
1.30689e-06
2.56758e-05
5.75791e-06
2.15219e-05
1.05129e-05
1.6522e-05
1.45224e-05
1.09736e-05
1.63734e-05
6.89649e-06
1.31185e-05
5.12861e-06
7.21633e-06
4.3198e-06
4.10336e-06
6.03455e-06
2.531e-06
-1.00516e-05
4.81432e-06
-1.01416e-05
7.86672e-06
-9.46487e-06
9.65822e-06
-1.05194e-05
1.22992e-05
-1.00403e-05
1.53592e-05
-9.64053e-06
1.77377e-05
-1.01257e-05
1.97604e-05
-9.56143e-06
2.15573e-05
-9.36897e-06
2.39791e-05
-7.49289e-06
2.65862e-05
-7.31838e-06
2.78776e-05
-5.15784e-06
2.78186e-05
-1.94646e-06
2.6542e-05
2.58354e-06
2.53977e-05
6.90214e-06
2.27173e-05
1.31933e-05
1.7739e-05
1.95007e-05
1.19868e-05
2.21256e-05
7.47533e-06
1.763e-05
4.73176e-06
9.9599e-06
3.76365e-06
5.07148e-06
6.91971e-06
2.26325e-06
-1.23148e-05
4.23707e-06
-1.21154e-05
7.40218e-06
-1.263e-05
8.71401e-06
-1.18312e-05
1.0928e-05
-1.22543e-05
1.41236e-05
-1.28361e-05
1.60222e-05
-1.20243e-05
1.77395e-05
-1.12787e-05
1.9716e-05
-1.13455e-05
2.27145e-05
-1.04914e-05
2.45737e-05
-9.17757e-06
2.65196e-05
-7.10371e-06
2.89892e-05
-4.41606e-06
2.97805e-05
1.79223e-06
2.52492e-05
1.14335e-05
2.10043e-05
1.74382e-05
1.69335e-05
2.35714e-05
1.14182e-05
2.76409e-05
7.78954e-06
2.12587e-05
4.34011e-06
1.34093e-05
2.54527e-06
6.86632e-06
6.91392e-06
4.86143e-07
-1.28009e-05
1.14816e-06
-1.27775e-05
2.11718e-06
-1.3599e-05
2.93052e-06
-1.26446e-05
3.59738e-06
-1.29212e-05
5.36681e-06
-1.46056e-05
7.10139e-06
-1.37589e-05
8.60274e-06
-1.27801e-05
1.04901e-05
-1.32328e-05
1.2387e-05
-1.23883e-05
1.3692e-05
-1.04825e-05
1.5497e-05
-8.9088e-06
1.64321e-05
-5.35113e-06
1.56398e-05
2.58451e-06
1.51407e-05
1.19327e-05
1.43375e-05
1.82414e-05
1.11506e-05
2.67583e-05
9.02946e-06
2.97621e-05
7.24812e-06
2.304e-05
3.68269e-06
1.69748e-05
7.34225e-07
9.81479e-06
6.88328e-06
-6.66038e-07
-1.21349e-05
-1.1437e-06
-1.22998e-05
-1.45585e-06
-1.32868e-05
-1.17305e-06
-1.29274e-05
-4.49446e-07
-1.36448e-05
7.12302e-07
-1.57673e-05
1.91972e-06
-1.49663e-05
3.58184e-06
-1.44422e-05
4.6986e-06
-1.43496e-05
5.35682e-06
-1.30465e-05
4.94592e-06
-1.00716e-05
4.07863e-06
-8.0415e-06
3.18787e-06
-4.46038e-06
5.61123e-06
1.61157e-07
1.04798e-05
7.06408e-06
1.08898e-05
1.78314e-05
3.4618e-06
3.41863e-05
3.91282e-06
2.9311e-05
4.0092e-06
2.29436e-05
2.69872e-06
1.82852e-05
3.90784e-08
1.24744e-05
7.06426e-06
-8.02939e-07
-1.1332e-05
-1.47052e-06
-1.16322e-05
-1.64111e-06
-1.31163e-05
-1.73876e-06
-1.28297e-05
-1.16111e-06
-1.42224e-05
5.49015e-07
-1.74774e-05
1.98576e-06
-1.6403e-05
3.86128e-06
-1.63177e-05
5.77695e-06
-1.62653e-05
7.52998e-06
-1.47996e-05
8.46132e-06
-1.1003e-05
9.52384e-06
-9.10402e-06
6.47502e-06
-1.41156e-06
-1.6353e-06
8.27148e-06
-7.36361e-06
1.27924e-05
-3.29979e-06
1.37676e-05
-3.19614e-06
3.40826e-05
-8.3857e-06
3.45006e-05
-4.65445e-06
1.92124e-05
-1.68824e-06
1.5319e-05
-8.33164e-07
1.16193e-05
6.19266e-06
-1.82919e-06
-9.50278e-06
-3.12093e-06
-1.03405e-05
-4.37573e-06
-1.18614e-05
-3.74284e-06
-1.34626e-05
-2.59463e-06
-1.53706e-05
-5.38112e-07
-1.9534e-05
3.24204e-06
-2.01832e-05
7.60251e-06
-2.06782e-05
9.30869e-06
-1.79714e-05
8.78221e-06
-1.42731e-05
7.61249e-06
-9.83325e-06
6.40835e-06
-7.89988e-06
9.46774e-06
-4.47096e-06
1.76222e-05
1.17057e-07
2.16805e-05
8.73403e-06
1.76282e-05
1.78199e-05
9.64876e-06
4.20621e-05
-1.27279e-05
5.68773e-05
-2.58744e-05
3.23588e-05
-2.26623e-05
1.2107e-05
-9.61257e-06
-1.43043e-06
-8.92358e-06
-2.32567e-06
-7.1771e-06
-4.21341e-06
-8.45273e-06
-4.94653e-06
-1.11283e-05
-3.96814e-06
-1.4441e-05
-2.21701e-06
-1.71218e-05
9.87816e-07
-2.27388e-05
6.84305e-06
-2.60384e-05
1.35962e-05
-2.74313e-05
1.80003e-05
-2.23755e-05
2.16055e-05
-1.78783e-05
2.42494e-05
-1.24772e-05
2.60819e-05
-9.73236e-06
2.16055e-05
5.46573e-09
1.54037e-05
6.31882e-06
1.19105e-05
1.22273e-05
1.2938e-05
1.67924e-05
2.47014e-05
3.02987e-05
3.09833e-05
5.05954e-05
7.55445e-06
5.57877e-05
-4.1366e-06
2.3798e-05
-2.31539e-06
-3.25165e-06
-1.59303e-05
-2.56921e-06
-4.60789e-06
-5.07911e-06
-5.94283e-06
-7.13429e-06
-9.07315e-06
-7.85183e-06
-1.37235e-05
-8.08192e-06
-1.68917e-05
-3.1648e-06
-2.76559e-05
6.67374e-06
-3.58769e-05
1.48358e-05
-3.55934e-05
1.74617e-05
-2.50015e-05
1.7984e-05
-1.84006e-05
1.91821e-05
-1.36753e-05
2.01939e-05
-1.07441e-05
2.39332e-05
-3.73381e-06
2.97816e-05
4.70412e-07
3.25606e-05
9.4482e-06
3.38691e-05
1.5484e-05
4.00731e-05
2.40946e-05
5.90427e-05
3.16258e-05
7.59916e-05
3.88388e-05
7.53335e-05
2.44561e-05
6.51461e-05
6.93575e-06
-9.00197e-06
-7.54861e-06
2.94072e-06
-1.50452e-05
1.55374e-06
-1.71264e-05
-6.99188e-06
-1.33307e-05
-1.75192e-05
-9.88054e-06
-2.03418e-05
-4.05983e-06
-3.34766e-05
2.52352e-06
-4.24603e-05
3.87592e-06
-3.69458e-05
4.41213e-06
-2.55377e-05
6.8345e-06
-2.08229e-05
1.01056e-05
-1.69464e-05
1.32003e-05
-1.38389e-05
1.733e-05
-7.86352e-06
2.04454e-05
-2.64495e-06
2.62494e-05
3.64419e-06
3.31297e-05
8.60366e-06
4.15701e-05
1.56542e-05
5.69714e-05
1.62244e-05
7.48261e-05
2.09841e-05
9.1267e-05
8.01524e-06
0.000103047
-4.8443e-06
-1.94238e-05
1.06196e-06
1.87874e-06
-2.95014e-06
5.56584e-06
-1.06165e-05
6.74466e-07
-2.14929e-05
-6.64273e-06
-2.93159e-05
-1.25189e-05
-3.82622e-05
-2.45303e-05
-5.48673e-05
-2.58552e-05
-6.64566e-05
-2.53565e-05
-6.62769e-05
-2.57173e-05
-5.52685e-05
-3.18313e-05
-3.84991e-05
-3.37159e-05
-2.54665e-05
-2.68714e-05
-1.0792e-05
-2.2538e-05
1.01084e-06
-1.44477e-05
1.30427e-05
-8.38772e-06
2.22996e-05
-6.53211e-07
3.20662e-05
5.88767e-06
4.42097e-05
4.08095e-06
6.09797e-05
4.21413e-06
7.85974e-05
-9.60252e-06
8.88787e-05
-1.51256e-05
-2.95751e-05
7.28758e-06
-5.40881e-06
-5.07945e-06
1.79329e-05
-5.37488e-05
4.93438e-05
-5.98853e-05
-5.06211e-07
-1.38561e-05
-5.85481e-05
-5.53501e-05
1.69637e-05
-0.000106258
2.50526e-05
-0.000132111
4.9633e-07
-0.000128271
-2.95573e-05
-0.000110426
-4.96762e-05
-9.70663e-05
-4.70754e-05
-8.91631e-05
-3.47746e-05
-7.57494e-05
-3.59518e-05
-5.94219e-05
-3.07752e-05
-3.95482e-05
-2.82614e-05
-1.88458e-05
-2.13556e-05
3.4441e-06
-1.64023e-05
2.11919e-05
-1.36669e-05
3.63031e-05
-1.08971e-05
5.15254e-05
-2.48248e-05
6.36663e-05
-2.72665e-05
-3.85428e-05
8.97772e-07
-6.30657e-06
1.1014e-05
7.81667e-06
7.49239e-05
-1.45661e-05
0.000134188
-5.97705e-05
0.000144067
-6.84269e-05
0.000130025
3.10059e-05
4.45407e-05
0.000110537
-5.16382e-05
9.66752e-05
-0.000101779
2.05832e-05
-0.00011061
-4.08446e-05
-9.91339e-05
-5.85518e-05
-8.73161e-05
-4.65923e-05
-8.52969e-05
-3.7971e-05
-7.85012e-05
-3.7571e-05
-6.64395e-05
-4.03231e-05
-5.39747e-05
-3.38203e-05
-3.89657e-05
-3.14113e-05
-2.28801e-05
-2.97526e-05
-9.5341e-06
-2.4243e-05
3.18616e-07
-3.46775e-05
1.24016e-05
-3.93496e-05
-4.5749e-05
-4.2617e-05
3.63104e-05
-5.08167e-05
1.60164e-05
-3.83337e-05
-2.70491e-05
-3.29511e-05
-6.51531e-05
-2.6939e-05
-7.4439e-05
2.26295e-05
-1.85627e-05
3.27422e-05
0.000100424
3.80249e-05
9.13925e-05
5.67193e-05
1.88877e-06
5.66052e-05
-4.07306e-05
5.61787e-05
-5.81253e-05
5.11094e-05
-4.1523e-05
2.89706e-06
1.02413e-05
-3.87694e-05
4.09544e-06
-5.05686e-05
-2.85239e-05
-4.45806e-05
-3.98084e-05
-3.91534e-05
-3.68385e-05
-2.93079e-05
-3.95981e-05
-2.08642e-05
-3.26866e-05
-2.12571e-05
-3.42847e-05
-1.11467e-05
-4.946e-05
-5.08941e-05
2.17831e-05
1.45273e-05
4.62766e-05
-8.47706e-06
4.60534e-05
-2.6826e-05
1.96688e-05
-3.87686e-05
-1.24506e-05
-4.23196e-05
-1.04787e-05
-2.05345e-05
4.77469e-05
4.21986e-05
8.72061e-05
5.19333e-05
4.58947e-05
4.32001e-05
-1.00853e-05
1.52494e-05
-4.0344e-05
-2.78666e-05
-3.78252e-05
-4.40418e-05
9.90951e-06
-3.74934e-05
6.28009e-05
-4.8796e-05
8.7216e-05
-5.2939e-05
9.26141e-05
-4.52065e-05
9.61211e-05
-4.03456e-05
9.37083e-05
-3.71855e-05
7.5193e-05
-1.41715e-05
6.37024e-05
-2.27943e-05
4.51509e-05
-3.09086e-05
4.24115e-05
-4.81548e-05
-5.93725e-05
-1.16481e-06
1.56922e-05
-1.02099e-05
5.68009e-07
-1.41127e-05
-2.29232e-05
-1.70416e-05
-3.58396e-05
-2.12025e-05
-3.81588e-05
-1.56892e-05
-2.60478e-05
3.26476e-05
-6.13821e-06
6.59643e-05
1.86165e-05
7.27697e-05
3.63948e-05
6.52541e-05
2.2765e-05
3.90763e-05
-1.68875e-06
2.72204e-05
-3.2186e-05
2.88068e-05
-3.90798e-05
2.45256e-05
-4.45148e-05
2.29621e-05
-5.13755e-05
2.85592e-05
-5.08037e-05
3.48025e-05
-4.6589e-05
4.06101e-05
-4.29931e-05
6.12032e-05
-3.47647e-05
7.21237e-05
-3.37148e-05
7.93175e-05
-3.81026e-05
7.74747e-05
-4.63119e-05
-5.26304e-05
1.10633e-05
4.62891e-06
2.0015e-05
-8.38373e-06
1.39173e-05
-1.68255e-05
1.68343e-06
-2.36058e-05
-8.71142e-06
-2.77639e-05
-1.23325e-05
-2.24268e-05
-2.61075e-06
-1.58599e-05
2.34992e-05
-7.49338e-06
4.39653e-05
1.59287e-05
4.89087e-05
1.78216e-05
4.42206e-05
2.99929e-06
3.88162e-05
-2.67815e-05
4.07273e-05
-4.09909e-05
4.3627e-05
-4.74145e-05
4.29261e-05
-5.06746e-05
4.38149e-05
-5.16926e-05
4.75154e-05
-5.02895e-05
4.91994e-05
-4.46772e-05
5.04819e-05
-3.60473e-05
4.55624e-05
-2.87954e-05
3.67128e-05
-2.9253e-05
2.77299e-05
-3.73291e-05
-4.46757e-05
3.01749e-06
1.61143e-06
4.03207e-06
-9.39832e-06
4.5387e-06
-1.73321e-05
1.7893e-06
-2.08564e-05
-3.21485e-06
-2.27598e-05
-5.53324e-06
-2.01084e-05
-4.0514e-06
-1.73418e-05
1.68732e-06
-1.32321e-05
1.85753e-05
-9.59337e-07
3.02879e-05
6.10898e-06
3.63965e-05
-3.10935e-06
3.278e-05
-2.3165e-05
2.58321e-05
-3.40431e-05
2.05938e-05
-4.21763e-05
1.65703e-05
-4.66511e-05
1.24793e-05
-4.76016e-05
8.99568e-06
-4.68059e-05
9.06078e-06
-4.47424e-05
1.36427e-05
-4.06293e-05
2.13167e-05
-3.64694e-05
2.66032e-05
-3.45395e-05
2.49607e-05
-3.56865e-05
-3.71265e-05
5.68384e-06
-4.07242e-06
7.37763e-06
-1.10921e-05
5.77265e-06
-1.57271e-05
3.19737e-06
-1.82811e-05
-5.23144e-07
-1.90392e-05
-3.44597e-06
-1.71855e-05
-5.02338e-06
-1.57644e-05
-5.19979e-06
-1.30557e-05
3.26532e-06
-9.42445e-06
1.42205e-05
-4.8462e-06
2.15546e-05
-1.04435e-05
1.99609e-05
-2.15712e-05
1.64818e-05
-3.0564e-05
1.28494e-05
-3.85439e-05
9.13535e-06
-4.29372e-05
5.85173e-06
-4.4318e-05
2.72534e-06
-4.36796e-05
-4.34257e-07
-4.15828e-05
-2.98457e-06
-3.8079e-05
-4.85036e-06
-3.46036e-05
-6.37126e-06
-3.30185e-05
-8.60719e-06
-3.34507e-05
-3.39081e-05
3.59464e-06
-7.66707e-06
5.906e-06
-1.34035e-05
5.70348e-06
-1.55246e-05
3.96046e-06
-1.65381e-05
1.63229e-06
-1.67111e-05
2.20931e-07
-1.57742e-05
-5.98788e-07
-1.49447e-05
-1.84494e-07
-1.347e-05
3.10106e-06
-1.271e-05
8.81426e-06
-1.05594e-05
1.21051e-05
-1.37343e-05
1.05436e-05
-2.00098e-05
7.49233e-06
-2.75128e-05
3.21013e-06
-3.42617e-05
-1.24843e-06
-3.84786e-05
-5.49876e-06
-4.00677e-05
-9.21638e-06
-3.9962e-05
-1.16836e-05
-3.91156e-05
-1.28231e-05
-3.69395e-05
-1.23191e-05
-3.51076e-05
-1.14409e-05
-3.38968e-05
-1.17109e-05
-3.31807e-05
-3.27676e-05
1.7935e-06
-9.46058e-06
2.77822e-06
-1.43882e-05
2.51087e-06
-1.52573e-05
1.74233e-06
-1.57695e-05
9.93388e-07
-1.59621e-05
6.93098e-07
-1.54739e-05
8.83032e-07
-1.51346e-05
1.96988e-06
-1.45568e-05
3.81488e-06
-1.4555e-05
6.82285e-06
-1.35674e-05
8.73421e-06
-1.56456e-05
7.97059e-06
-1.92462e-05
5.04016e-06
-2.45824e-05
6.16255e-07
-2.98378e-05
-3.55353e-06
-3.43089e-05
-6.696e-06
-3.69253e-05
-9.13444e-06
-3.75236e-05
-1.10923e-05
-3.71577e-05
-1.2677e-05
-3.53548e-05
-1.37374e-05
-3.40472e-05
-1.43062e-05
-3.33279e-05
-1.49503e-05
-3.25366e-05
-3.17333e-05
1.07337e-06
-1.05339e-05
1.36021e-06
-1.4675e-05
1.23476e-06
-1.51318e-05
1.0486e-06
-1.55834e-05
9.29497e-07
-1.5843e-05
1.22748e-06
-1.57719e-05
1.85084e-06
-1.57579e-05
2.86857e-06
-1.55746e-05
4.13747e-06
-1.58239e-05
6.09026e-06
-1.55202e-05
7.39272e-06
-1.69481e-05
7.61292e-06
-1.94664e-05
6.38026e-06
-2.33498e-05
3.52413e-06
-2.69817e-05
-2.39941e-07
-3.05448e-05
-3.84188e-06
-3.33234e-05
-6.60961e-06
-3.47558e-05
-8.7429e-06
-3.50244e-05
-1.06151e-05
-3.34826e-05
-1.2665e-05
-3.19973e-05
-1.42805e-05
-3.17123e-05
-1.53471e-05
-3.14701e-05
-3.06895e-05
6.1153e-07
-1.11455e-05
8.5128e-07
-1.49148e-05
9.75737e-07
-1.52563e-05
1.02686e-06
-1.56345e-05
1.13296e-06
-1.59491e-05
1.51034e-06
-1.61492e-05
2.06782e-06
-1.63154e-05
2.92985e-06
-1.64366e-05
3.90385e-06
-1.67979e-05
5.35314e-06
-1.69695e-05
6.47066e-06
-1.80656e-05
7.1297e-06
-2.01254e-05
6.63862e-06
-2.28587e-05
5.03987e-06
-2.5383e-05
2.57915e-06
-2.80841e-05
-5.05122e-07
-3.02391e-05
-3.73189e-06
-6.87949e-06
-9.2334e-06
-1.17199e-05
-1.42334e-05
-1.6026e-05
4.25999e-07
7.29785e-07
9.68422e-07
1.13965e-06
1.24718e-06
1.42664e-06
1.70409e-06
2.16404e-06
2.71312e-06
3.74459e-06
4.70205e-06
5.13601e-06
4.58436e-06
3.36863e-06
1.41813e-06
)
;

boundaryField
{
    leftWall
    {
        type            calculated;
        value           uniform 0;
    }
    rightWall
    {
        type            calculated;
        value           nonuniform 0();
    }
    lowerWall
    {
        type            calculated;
        value           nonuniform List<scalar> 
22
(
-6.43483e-22
-1.33702e-22
-2.98389e-22
-7.96263e-23
-1.95295e-23
-1.76989e-22
3.83534e-22
-2.32666e-22
-4.21882e-22
5.89449e-23
-3.94513e-23
1.79048e-22
-3.99038e-22
2.26039e-22
-7.14793e-22
-1.34467e-22
3.98219e-22
2.53799e-22
4.88696e-23
-1.74302e-23
7.85029e-23
1.33979e-22
)
;
    }
    atmosphere
    {
        type            calculated;
        value           nonuniform 0();
    }
    defaultFaces
    {
        type            empty;
        value           nonuniform 0();
    }
    procBoundary0to1
    {
        type            processor;
        value           nonuniform List<scalar> 
26
(
2.86474e-07
5.67387e-07
3.21126e-06
2.87848e-06
2.55107e-06
7.64869e-07
-1.419e-07
3.84349e-08
5.50366e-06
4.69134e-06
5.82178e-05
0.000113469
9.90299e-05
7.2634e-05
1.96079e-05
-6.00174e-06
5.31258e-05
4.86583e-05
7.07326e-05
1.97753e-05
1.74114e-05
-1.18255e-05
-1.28515e-05
-1.59845e-05
-1.63909e-05
-1.7405e-05
)
;
    }
    procBoundary0to2
    {
        type            processor;
        value           nonuniform List<scalar> 
24
(
-3.15291e-05
-3.18768e-05
-3.11287e-05
-2.95108e-05
-2.91989e-05
-2.96773e-05
-2.93105e-05
-1.15715e-05
-1.52186e-05
-1.54949e-05
-1.58057e-05
-1.60566e-05
-1.63287e-05
-1.65929e-05
-1.68965e-05
-1.7347e-05
-1.80009e-05
-1.90231e-05
-2.05594e-05
-2.2307e-05
-2.41673e-05
-2.61336e-05
-1.4127e-06
-2.74083e-05
)
;
    }
}


// ************************************************************************* //
