/*--------------------------------*- C++ -*----------------------------------*\
| =========                 |                                                 |
| \\      /  F ield         | OpenFOAM: The Open Source CFD Toolbox           |
|  \\    /   O peration     | Version:  2.4.0                                 |
|   \\  /    A nd           | Web:      www.OpenFOAM.org                      |
|    \\/     M anipulation  |                                                 |
\*---------------------------------------------------------------------------*/
FoamFile
{
    version     2.0;
    format      ascii;
    class       surfaceScalarField;
    location    "0.55";
    object      phi.oil;
}
// * * * * * * * * * * * * * * * * * * * * * * * * * * * * * * * * * * * * * //

dimensions      [0 3 -1 0 0 0 0];

internalField   nonuniform List<scalar> 
1101
(
2.48918e-06
-2.48924e-06
5.19157e-06
-2.70245e-06
7.04048e-06
-1.84899e-06
1.02774e-05
-3.23705e-06
1.2793e-05
-2.51563e-06
1.46361e-05
-1.84313e-06
1.71367e-05
-2.50065e-06
1.97519e-05
-2.61526e-06
2.27876e-05
-3.03572e-06
2.45375e-05
-1.74997e-06
2.54147e-05
-8.77227e-07
2.6213e-05
-7.98232e-07
2.67483e-05
-5.35231e-07
2.66227e-05
1.25567e-07
2.48795e-05
1.74325e-06
2.17147e-05
3.16473e-06
1.69969e-05
4.71797e-06
1.17293e-05
5.26861e-06
6.98139e-06
4.74993e-06
4.35978e-06
2.62495e-06
2.90643e-06
1.44839e-06
2.89534e-06
2.50634e-06
-4.99572e-06
5.14324e-06
-5.33949e-06
7.27771e-06
-3.98361e-06
1.02033e-05
-6.1628e-06
1.26248e-05
-4.93718e-06
1.48049e-05
-4.02341e-06
1.7409e-05
-5.10478e-06
1.99556e-05
-5.16185e-06
2.25089e-05
-5.58902e-06
2.41339e-05
-3.375e-06
2.55963e-05
-2.33975e-06
2.68345e-05
-2.03642e-06
2.74102e-05
-1.11086e-06
2.68717e-05
6.64246e-07
2.53913e-05
3.22374e-06
2.2197e-05
6.35913e-06
1.7392e-05
9.5231e-06
1.18343e-05
1.08269e-05
7.54047e-06
9.04652e-06
4.71344e-06
5.45688e-06
2.85103e-06
3.3059e-06
5.17569e-06
2.52504e-06
-7.34001e-06
5.04405e-06
-7.66645e-06
7.47311e-06
-6.2417e-06
1.00384e-05
-8.51443e-06
1.25007e-05
-7.19794e-06
1.5058e-05
-6.37576e-06
1.77005e-05
-7.50579e-06
2.00774e-05
-7.29309e-06
2.20605e-05
-7.31448e-06
2.37566e-05
-4.83586e-06
2.61282e-05
-4.47242e-06
2.79582e-05
-3.65127e-06
2.88528e-05
-1.8628e-06
2.821e-05
1.34183e-06
2.56758e-05
5.75843e-06
2.15218e-05
1.0513e-05
1.65217e-05
1.4523e-05
1.09726e-05
1.63759e-05
6.89511e-06
1.31272e-05
5.12719e-06
7.23753e-06
4.31192e-06
4.12863e-06
6.25795e-06
2.53142e-06
-1.2396e-05
4.81385e-06
-1.26816e-05
7.86755e-06
-1.17469e-05
9.65818e-06
-1.34306e-05
1.22993e-05
-1.28318e-05
1.536e-05
-1.26175e-05
1.7738e-05
-1.37773e-05
1.97604e-05
-1.33301e-05
2.15565e-05
-1.34189e-05
2.39778e-05
-1.13139e-05
2.65832e-05
-1.12744e-05
2.78704e-05
-8.81148e-06
2.78087e-05
-4.79753e-06
2.65332e-05
1.26528e-06
2.53976e-05
6.91565e-06
2.27173e-05
1.33812e-05
1.77387e-05
1.95144e-05
1.19853e-05
2.21297e-05
7.47216e-06
1.76452e-05
4.72841e-06
1.00063e-05
3.75535e-06
5.12941e-06
7.16191e-06
2.27231e-06
-3.12507e-05
4.30327e-06
-3.16437e-05
7.43334e-06
-3.1526e-05
8.81692e-06
-3.23973e-05
1.10289e-05
-3.26448e-05
1.42221e-05
-3.39522e-05
1.61791e-05
-3.50628e-05
1.7909e-05
-3.50195e-05
1.99373e-05
-3.60874e-05
2.29663e-05
-3.5574e-05
2.48862e-05
-3.51703e-05
2.682e-05
-3.31423e-05
2.92068e-05
-3.03014e-05
3.01294e-05
-1.93679e-05
2.53697e-05
-5.83903e-07
2.09549e-05
1.23101e-05
1.69272e-05
2.38239e-05
1.14153e-05
2.77497e-05
7.78297e-06
2.13759e-05
4.33233e-06
1.35604e-05
2.53465e-06
6.9963e-06
7.20351e-06
6.5873e-07
-1.64852e-05
1.46777e-06
-1.62002e-05
2.58222e-06
-1.7086e-05
3.4479e-06
-1.55756e-05
4.17275e-06
-1.57954e-05
5.89238e-06
-1.70167e-05
7.55781e-06
-1.55789e-05
9.01289e-06
-1.43341e-05
1.08547e-05
-1.44721e-05
1.27196e-05
-1.3489e-05
1.39885e-05
-1.14126e-05
1.57712e-05
-9.71888e-06
1.70137e-05
-6.20689e-06
1.89675e-05
1.5549e-07
1.86912e-05
-6.82031e-06
1.57507e-05
2.68226e-06
1.11707e-05
1.90057e-05
8.97851e-06
3.02714e-05
7.21457e-06
2.35403e-05
3.66185e-06
1.75718e-05
7.17058e-07
1.02371e-05
7.27973e-06
-6.66039e-07
-1.21357e-05
-1.14371e-06
-1.23006e-05
-1.45587e-06
-1.32876e-05
-1.17309e-06
-1.2928e-05
-4.49498e-07
-1.36453e-05
7.12277e-07
-1.57677e-05
1.91974e-06
-1.49637e-05
3.58188e-06
-1.44425e-05
4.69864e-06
-1.43361e-05
5.35687e-06
-1.30253e-05
4.94598e-06
-1.00703e-05
4.07873e-06
-8.04183e-06
3.18804e-06
-4.46073e-06
5.62501e-06
1.60953e-07
1.16264e-05
7.04537e-06
1.5087e-05
1.27026e-05
5.6651e-06
1.50755e-05
3.7613e-06
2.63958e-05
3.88912e-06
2.51099e-05
2.61229e-06
1.91989e-05
2.10474e-09
1.29632e-05
7.54951e-06
-8.02934e-07
-1.13326e-05
-1.4705e-06
-1.16327e-05
-1.64109e-06
-1.31167e-05
-1.73874e-06
-1.28301e-05
-1.16111e-06
-1.42227e-05
5.49125e-07
-1.74777e-05
1.98561e-06
-1.64214e-05
3.86252e-06
-1.63838e-05
5.77698e-06
-1.63239e-05
7.52867e-06
-1.48679e-05
8.46123e-06
-1.11261e-05
9.52391e-06
-9.26488e-06
6.47512e-06
-1.62898e-06
-1.66573e-06
8.15952e-06
-7.36858e-06
1.28557e-05
-6.74278e-07
1.3921e-05
5.54854e-07
2.29473e-05
-7.84652e-06
2.37776e-05
-5.0996e-06
2.47576e-05
-1.77925e-06
1.99106e-05
-8.66713e-07
1.62126e-05
7.36792e-06
-1.82916e-06
-9.50292e-06
-3.12087e-06
-1.03406e-05
-4.37566e-06
-1.18615e-05
-3.74279e-06
-1.34626e-05
-2.5946e-06
-1.53703e-05
-5.31004e-07
-1.95139e-05
3.26268e-06
-1.95686e-05
7.62262e-06
-1.07276e-05
9.30891e-06
-4.70475e-06
8.77961e-06
4.22013e-07
7.59878e-06
3.53934e-06
6.39054e-06
3.76466e-06
9.41601e-06
2.86516e-06
1.76145e-05
1.70442e-06
2.16822e-05
9.20944e-06
1.74795e-05
1.79415e-05
1.15983e-05
4.17828e-05
-1.28506e-05
3.95312e-05
-2.93565e-05
2.49417e-05
-2.58767e-05
2.70634e-05
-1.12785e-05
2.26545e-05
9.62127e-06
-2.32563e-06
-7.17694e-06
-4.21332e-06
-8.45255e-06
-4.94642e-06
-1.11282e-05
-3.96804e-06
-1.44407e-05
-2.21624e-06
-1.71209e-05
1.12197e-06
-1.80412e-05
5.70095e-06
-1.05051e-05
1.29829e-05
-1.39785e-05
1.73343e-05
-8.74117e-06
2.0738e-05
-3.5762e-06
2.2343e-05
1.50121e-06
2.13874e-05
2.28161e-06
1.84172e-05
5.46225e-06
1.54742e-05
7.42278e-06
1.19002e-05
1.04116e-05
1.30004e-05
1.39029e-05
2.3941e-05
2.93909e-05
2.07155e-05
4.89394e-05
2.63724e-06
3.83852e-05
-4.75106e-06
1.74839e-05
-5.88038e-06
3.69122e-07
-7.16833e-06
-2.56914e-06
-4.60876e-06
-5.07903e-06
-5.94489e-06
-7.13444e-06
-9.09452e-06
-7.85399e-06
-1.36728e-05
-7.16715e-06
-1.28914e-05
-2.96129e-06
-1.48634e-05
5.23937e-06
-2.69688e-05
1.35487e-05
-2.1725e-05
1.54169e-05
-1.18931e-05
1.55201e-05
-6.20938e-06
1.65587e-05
-2.13324e-06
1.76618e-05
1.06789e-06
2.18538e-05
1.10396e-05
2.5835e-05
1.71282e-05
2.69247e-05
2.22614e-05
3.15124e-05
1.90434e-05
4.05497e-05
2.08548e-05
5.60023e-05
2.55786e-05
6.3195e-05
3.16938e-05
6.30549e-05
1.6786e-05
5.88091e-05
-8.01152e-07
-1.75145e-05
-7.54824e-06
-2.32323e-05
-1.50423e-05
-2.20653e-05
-1.71139e-05
-2.13403e-05
-1.18044e-05
-2.20478e-05
-9.93638e-06
-2.19635e-05
-1.15325e-05
-3.25563e-05
-2.35481e-06
-3.56931e-05
9.74434e-07
-2.99268e-05
2.02294e-06
-1.94595e-05
4.44531e-06
-1.54676e-05
7.8504e-06
-1.10697e-05
1.09447e-05
-6.55889e-06
1.48425e-05
8.9157e-07
1.7772e-05
6.55379e-06
2.38931e-05
1.37894e-05
3.21928e-05
2.05001e-05
3.86527e-05
2.72553e-05
5.75951e-05
2.24949e-05
7.72848e-05
2.29383e-05
9.33792e-05
1.22253e-05
9.94495e-05
-2.0024e-06
-1.72924e-05
1.27123e-06
-6.24788e-05
-1.35158e-06
-5.83844e-05
-9.43104e-06
-9.83467e-05
-1.5308e-05
-9.37105e-05
-3.35673e-05
-0.000106075
-4.67364e-05
-0.000102226
-5.91268e-05
-8.54378e-05
-6.76335e-05
-7.0884e-05
-6.68496e-05
-5.93429e-05
-5.58439e-05
-4.90793e-05
-3.90759e-05
-3.88118e-05
-2.62451e-05
-2.74378e-05
-1.2053e-05
-2.174e-05
-5.30518e-07
-1.25569e-05
1.06878e-05
-4.963e-06
2.01478e-05
4.78934e-06
3.0726e-05
1.16851e-05
4.42772e-05
1.07708e-05
6.1742e-05
1.10876e-05
7.91606e-05
-2.84178e-06
8.48559e-05
-9.56961e-06
-2.47486e-05
4.63465e-06
-1.03815e-05
-1.66378e-06
-1.50033e-05
-1.87061e-05
1.98438e-05
-1.31565e-05
-7.32991e-05
-4.68075e-05
-0.000136169
-8.01395e-05
-0.000126293
-0.000112408
-0.000103884
-0.00012874
-0.000106561
-0.000122871
-0.000128086
-0.000107132
-0.000125334
-9.61335e-05
-0.0001068
-8.87535e-05
-8.52966e-05
-7.54117e-05
-7.20278e-05
-5.91816e-05
-5.19116e-05
-3.95762e-05
-3.97298e-05
-1.95709e-05
-2.67177e-05
2.14276e-06
-1.8308e-05
1.95994e-05
-1.36355e-05
3.51421e-05
-9.42479e-06
5.06139e-05
-2.55573e-05
6.23557e-05
-2.8929e-05
-4.43344e-05
9.00266e-07
-6.22638e-06
1.11403e-05
9.69021e-06
7.43138e-05
-9.6747e-06
-1.35911e-05
-4.99274e-05
-5.40403e-05
-7.37323e-05
-6.51879e-05
-7.97479e-05
-7.53214e-05
-6.26032e-05
-9.77328e-05
-5.26087e-05
-0.000106109
-7.03728e-05
-9.74156e-05
-7.65231e-05
-8.98994e-05
-6.95371e-05
-8.50276e-05
-9.5355e-05
-8.10828e-05
-0.000136493
-7.49414e-05
-0.000137397
-6.48672e-05
-0.000119116
-5.34862e-05
-9.6515e-05
-3.87711e-05
-8.8409e-05
-2.27161e-05
-8.03473e-05
-9.88665e-06
-7.25046e-05
7.10235e-09
-9.13439e-05
1.13227e-05
-9.39035e-05
-0.000110262
-4.28842e-05
3.63592e-05
-4.95054e-05
1.76877e-05
-3.34661e-05
-2.18509e-05
-3.44167e-05
-5.98655e-05
-2.40858e-05
-5.67207e-05
-6.49961e-07
-2.42652e-05
1.52446e-05
1.28386e-05
2.57486e-05
6.83007e-05
5.5186e-05
-9.83294e-07
3.95295e-05
-4.37592e-05
1.15309e-05
-6.16836e-05
-2.7686e-05
-3.54561e-05
-4.70551e-05
-6.05194e-05
-4.56521e-05
-8.14188e-05
-4.34465e-05
-7.32534e-05
-4.18677e-05
-6.01737e-05
-3.70437e-05
-6.3517e-05
-3.36563e-05
-9.09516e-05
-3.03395e-05
-9.99672e-05
-2.61918e-05
-9.45262e-05
-1.8003e-05
-8.00764e-05
-7.55535e-05
2.17851e-05
1.4521e-05
4.63896e-05
-8.47156e-06
4.3485e-05
-2.74853e-05
2.11921e-05
-4.13114e-05
-1.14592e-05
-4.29449e-05
-9.97832e-06
-2.05184e-05
4.81997e-05
4.2962e-05
8.6469e-05
5.26373e-05
4.62256e-05
4.35125e-05
-1.00624e-05
1.52184e-05
-4.0269e-05
-2.76432e-05
-3.76571e-05
-4.39243e-05
9.92084e-06
-3.77209e-05
5.926e-05
-4.86842e-05
7.20239e-05
-5.22646e-05
6.48872e-05
-5.03887e-05
5.89909e-05
-5.10929e-05
5.28708e-05
-5.13322e-05
4.63528e-05
-3.45783e-05
4.59073e-05
-3.41147e-05
3.74757e-05
-3.8717e-05
4.06498e-05
-5.20595e-05
-6.35784e-05
-1.17146e-06
1.56889e-05
-1.02535e-05
5.86941e-07
-1.41232e-05
-2.27835e-05
-1.70068e-05
-3.58836e-05
-2.12013e-05
-3.82976e-05
-1.56334e-05
-2.61258e-05
3.28291e-05
-6.15362e-06
6.59689e-05
1.86302e-05
7.27321e-05
3.63073e-05
6.50627e-05
2.25246e-05
3.92005e-05
-1.80729e-06
2.72359e-05
-3.26663e-05
2.87573e-05
-3.98792e-05
2.42211e-05
-4.72221e-05
2.32859e-05
-5.32533e-05
2.8785e-05
-5.0861e-05
3.47882e-05
-4.55534e-05
4.036e-05
-4.11406e-05
6.03488e-05
-3.34592e-05
7.19251e-05
-3.36587e-05
7.92464e-05
-3.81255e-05
7.74094e-05
-4.62536e-05
-5.256e-05
1.1066e-05
4.62619e-06
2.00128e-05
-8.39252e-06
1.39227e-05
-1.6844e-05
1.68453e-06
-2.36098e-05
-8.71691e-06
-2.77659e-05
-1.23203e-05
-2.24255e-05
-2.58184e-06
-1.58548e-05
2.36409e-05
-7.54304e-06
4.3983e-05
1.55894e-05
4.87893e-05
1.72785e-05
4.42046e-05
2.54116e-06
3.88632e-05
-2.73011e-05
4.02042e-05
-4.10578e-05
4.20012e-05
-4.6343e-05
4.24769e-05
-5.29099e-05
4.3424e-05
-5.28179e-05
4.69476e-05
-4.97726e-05
4.83549e-05
-4.40405e-05
4.98669e-05
-3.6084e-05
4.55767e-05
-3.0103e-05
3.67046e-05
-2.96692e-05
2.77305e-05
-3.80615e-05
-4.50793e-05
3.01717e-06
1.60941e-06
4.03214e-06
-9.40025e-06
4.53882e-06
-1.73342e-05
1.78938e-06
-2.08583e-05
-3.21568e-06
-2.27613e-05
-5.53368e-06
-2.01122e-05
-4.0509e-06
-1.73618e-05
1.83082e-06
-1.32852e-05
1.92296e-05
-8.03089e-07
3.02743e-05
6.28812e-06
3.59333e-05
-2.65394e-06
3.25014e-05
-2.3158e-05
2.27424e-05
-3.43538e-05
2.03574e-05
-4.3237e-05
1.64141e-05
-4.68621e-05
1.24838e-05
-4.74869e-05
8.94414e-06
-4.75849e-05
9.02365e-06
-4.61762e-05
1.34361e-05
-4.24316e-05
2.10836e-05
-3.76741e-05
2.66025e-05
-3.44696e-05
2.49974e-05
-3.61312e-05
-3.78365e-05
5.68384e-06
-4.07364e-06
7.37756e-06
-1.10934e-05
5.77261e-06
-1.57284e-05
3.19738e-06
-1.82822e-05
-5.23238e-07
-1.90403e-05
-3.44619e-06
-1.71865e-05
-5.02388e-06
-1.57654e-05
-5.20007e-06
-1.3057e-05
3.4604e-06
-9.42566e-06
1.4128e-05
-4.79325e-06
2.1551e-05
-1.04488e-05
1.96734e-05
-2.16035e-05
1.59258e-05
-3.08366e-05
1.2815e-05
-3.79048e-05
9.15407e-06
-4.28396e-05
5.83716e-06
-4.44761e-05
2.70622e-06
-4.37945e-05
-4.45866e-07
-4.1675e-05
-3.01992e-06
-3.81422e-05
-4.86505e-06
-3.44596e-05
-6.35621e-06
-3.27116e-05
-8.53763e-06
-3.31025e-05
-3.38308e-05
3.5948e-06
-7.66784e-06
5.90619e-06
-1.34042e-05
5.70369e-06
-1.55253e-05
3.96061e-06
-1.65387e-05
1.63237e-06
-1.67117e-05
2.20865e-07
-1.57747e-05
-5.99023e-07
-1.49452e-05
-1.84962e-07
-1.34705e-05
3.1004e-06
-1.27107e-05
8.8137e-06
-1.05601e-05
1.20986e-05
-1.3737e-05
1.04763e-05
-2.00548e-05
7.49567e-06
-2.7709e-05
3.17704e-06
-3.4422e-05
-1.26976e-06
-3.86274e-05
-5.4984e-06
-4.00701e-05
-9.22071e-06
-4.00174e-05
-1.16876e-05
-3.91676e-05
-1.283e-05
-3.70258e-05
-1.23196e-05
-3.52293e-05
-1.14458e-05
-3.40748e-05
-1.1713e-05
-3.327e-05
-3.27979e-05
1.79369e-06
-9.46068e-06
2.77848e-06
-1.43883e-05
2.51115e-06
-1.52575e-05
1.74258e-06
-1.57697e-05
9.93554e-07
-1.59623e-05
6.93142e-07
-1.5474e-05
8.82917e-07
-1.51347e-05
1.96957e-06
-1.4557e-05
3.81428e-06
-1.45553e-05
6.8229e-06
-1.35679e-05
8.73303e-06
-1.56483e-05
7.96627e-06
-1.92772e-05
5.01174e-06
-2.46362e-05
5.34759e-07
-2.99368e-05
-3.6403e-06
-3.44851e-05
-6.66954e-06
-3.73388e-05
-9.135e-06
-3.77839e-05
-1.10785e-05
-3.73473e-05
-1.2676e-05
-3.54494e-05
-1.37405e-05
-3.40774e-05
-1.43104e-05
-3.33404e-05
-1.49546e-05
-3.25409e-05
-3.1735e-05
1.0735e-06
-1.05337e-05
1.36045e-06
-1.46747e-05
1.23504e-06
-1.51316e-05
1.04888e-06
-1.55831e-05
9.29718e-07
-1.58427e-05
1.2276e-06
-1.57716e-05
1.85081e-06
-1.57576e-05
2.86837e-06
-1.55743e-05
4.1371e-06
-1.58237e-05
6.08998e-06
-1.55203e-05
7.39213e-06
-1.69492e-05
7.60859e-06
-1.94743e-05
6.33123e-06
-2.34037e-05
3.40103e-06
-2.71867e-05
-2.69853e-07
-3.09785e-05
-3.84992e-06
-3.3758e-05
-6.57924e-06
-3.51034e-05
-8.73171e-06
-3.52289e-05
-1.05997e-05
-3.35916e-05
-1.26638e-05
-3.20311e-05
-1.42832e-05
-3.17226e-05
-1.53513e-05
-3.14713e-05
-3.06882e-05
6.11696e-07
-1.11446e-05
8.51527e-07
-1.4914e-05
9.76029e-07
-1.52556e-05
1.02714e-06
-1.56339e-05
1.1332e-06
-1.59485e-05
1.51049e-06
-1.61486e-05
2.06787e-06
-1.63148e-05
2.92975e-06
-1.64359e-05
3.90362e-06
-1.67973e-05
5.3527e-06
-1.69691e-05
6.47022e-06
-1.80654e-05
7.12832e-06
-2.0128e-05
6.60391e-06
-2.29081e-05
4.96486e-06
-2.55754e-05
2.55004e-06
-2.84311e-05
-4.77701e-07
-3.06079e-05
-3.71456e-06
-6.8576e-06
-9.22216e-06
-1.17103e-05
-1.42342e-05
-1.60288e-05
4.26059e-07
7.29983e-07
9.68687e-07
1.13993e-06
1.24742e-06
1.42682e-06
1.70418e-06
2.16404e-06
2.71299e-06
3.7443e-06
4.70173e-06
5.13376e-06
4.56589e-06
3.33806e-06
1.40283e-06
)
;

boundaryField
{
    leftWall
    {
        type            fixedValue;
        value           uniform 0;
    }
    rightWall
    {
        type            fixedValue;
        value           nonuniform 0();
    }
    lowerWall
    {
        type            fixedValue;
        value           uniform 0;
    }
    atmosphere
    {
        type            calculated;
        value           nonuniform 0();
    }
    defaultFaces
    {
        type            empty;
        value           nonuniform 0();
    }
    procBoundary0to1
    {
        type            processor;
        value           nonuniform List<scalar> 
26
(
2.16833e-07
4.78406e-07
3.10964e-06
2.7777e-06
2.47068e-06
7.15933e-07
-1.75218e-07
2.24041e-09
5.43677e-06
1.67736e-06
5.63199e-05
0.000111496
9.4955e-05
7.09496e-05
1.72301e-05
-6.8279e-06
8.45901e-05
4.90747e-05
7.07002e-05
1.97669e-05
1.75133e-05
-1.18057e-05
-1.28556e-05
-1.59894e-05
-1.63948e-05
-1.74082e-05
)
;
    }
    procBoundary0to2
    {
        type            processor;
        value           nonuniform List<scalar> 
24
(
-3.18155e-05
-3.20779e-05
-3.12386e-05
-2.95574e-05
-2.92105e-05
-2.9678e-05
-2.93071e-05
-1.15706e-05
-1.52177e-05
-1.5494e-05
-1.58048e-05
-1.60557e-05
-1.63278e-05
-1.65919e-05
-1.68956e-05
-1.7346e-05
-1.8e-05
-1.90222e-05
-2.05599e-05
-2.23393e-05
-2.4284e-05
-2.62902e-05
-1.41632e-06
-2.76212e-05
)
;
    }
}


// ************************************************************************* //
