/*--------------------------------*- C++ -*----------------------------------*\
| =========                 |                                                 |
| \\      /  F ield         | OpenFOAM: The Open Source CFD Toolbox           |
|  \\    /   O peration     | Version:  2.4.0                                 |
|   \\  /    A nd           | Web:      www.OpenFOAM.org                      |
|    \\/     M anipulation  |                                                 |
\*---------------------------------------------------------------------------*/
FoamFile
{
    version     2.0;
    format      ascii;
    class       volScalarField;
    location    "0.55";
    object      rho;
}
// * * * * * * * * * * * * * * * * * * * * * * * * * * * * * * * * * * * * * //

dimensions      [1 -3 0 0 0 0 0];

internalField   nonuniform List<scalar> 
575
(
13529
13529
13529
13529
13529
13529
13529
13529
13529
13529
13529
13529
13529
13529
13529
13529
13529
13529
13529
13529
13529
13529
13529
13529
13529
13529
13529
13529
13529
13529
13529
13529
13529
13529
13529
13529
13529
13529
13529
13529
13529
13529
13529
13529
13528.5
13528.4
13528.7
13528.1
13528.4
13528.4
13527.8
13527.7
13527.6
13528.2
13528.2
13528.4
13528.8
13529
13529
13529
13529
13529
13529
13529
13529
13529
13319.6
13298.7
13333.4
13253.3
13273.4
13261.1
13173.2
13164.7
13135.5
13199.1
13192.7
13262.9
13392.7
13505.3
13526.9
13528.8
13529
13529
13529
13529
13529
13529
8048.39
7860.57
8053.36
7528.8
7569.57
7339.75
6777.93
6640.16
6357.78
6436.98
6347.12
6575.75
7194.94
8639.14
11110.1
13176.8
13516.2
13528.7
13529
13529
13529
13529
1106.14
1091.65
1100.42
1069.35
1068.51
1054.9
1033.11
1024.81
1017.72
1014.35
1010.68
1008.59
1008.16
1031.43
1849.54
5567.74
11717.4
13437.6
13526.4
13528.8
13529
13529
1000.12
1000.11
1000.11
1000.11
1000.1
1000.09
1000.09
1000.09
1000.09
1000.09
1000.09
1000.09
1000.09
1000.09
1004.15
1191.47
4195.19
12270.4
13474.8
13527.1
13528.9
13529
1000.11
1000.11
1000.11
1000.11
1000.1
1000.09
1000.09
1000.09
1000.09
1000.09
1000.09
1000.09
1000.09
1000.1
1000.1
1000.84
1212.85
7577.67
13323.5
13523.9
13528.6
13529
1000.1
1000.09
1000.09
1000.09
1000.08
1000.06
1000.07
1000.06
1000.05
1000.05
1000.06
1000.07
1000.08
1000.1
1000.1
1000.11
1006.88
2019.2
9265.46
13294.7
13518.6
13522.4
1000.01
1000.01
1000.01
1000.01
1000.01
1000.01
1000
999.853
999.603
999.377
999.593
999.777
999.958
1000
1000.02
1000.03
1000.06
1035.61
2215.59
6072.6
10599.6
11964.5
1000
1000
1000
1000
1000
999.956
998.183
985.985
975.25
968.996
976.193
984.247
994.17
998.606
999.747
999.95
1000
1000.64
1051.83
1367.83
1702.55
2243.17
999.755
999.631
998.637
999.387
999.75
995.251
952.079
853.191
795.007
769.395
790.818
828.304
885.146
937.954
979.971
994.916
998.777
999.779
1001.78
1005.92
1012.63
1017.63
610.579
640.394
735.329
882.158
933.585
879.39
753.053
608.341
560.904
549.864
556.071
568.531
595.741
642.72
714.132
831.168
924.928
964.679
984.758
985.286
984.262
967.894
1.43086
5.44358
1.49266
12.5715
64.6159
118.224
151.096
180.284
231.983
321.935
419.466
472.641
486.815
492.777
504.427
518.734
589.657
651.65
752.932
716.932
716.802
687.191
1.00003
1.00051
1.00044
1.00356
1.21587
2.66427
4.069
1.32947
1.142
4.09004
28.578
104.69
196.885
291.484
364.252
419.607
449.089
467.35
473.429
445.881
434.404
385.268
1.00005
1.00003
1.00009
1.00043
1.00097
1.00687
1.01165
1.00066
1.00007
1.00004
1.00012
1.00121
1.02057
1.50753
6.55154
24.7315
53.0448
87.8225
111.573
51.8774
40.161
13.1807
1.00006
1.00004
1.00005
1.00015
1.00006
1.00001
1.00002
1.00005
1.00003
1.00002
1.00002
1.00002
1.00001
1.00002
1.00003
1.00006
1.0001
1.00013
1.00014
1.00015
1.00016
1.00017
1.0001
1.00005
1.00003
1.00003
1.00002
1.00001
1
1.00001
1.00001
1.00001
1.00002
1.00003
1.00002
1.00002
1.00003
1.0001
1.00013
1.00012
1.0001
1.00007
1.00004
1.00003
1.00003
1.00003
1.00005
1.00002
1.00001
1
0.999999
1
1
1.00001
1.00002
1.00006
1.00009
1.00005
1.00004
1.00012
1.00031
1.00031
1.00027
1.00022
1.00013
1.00004
1.00003
1.00003
1.00003
1.00003
1.00001
1
0.999999
0.999999
0.999999
1
1.00001
1.00003
1.00008
1.00008
1.00002
1.00005
1.00031
1.00031
1.00021
1.00013
1.00013
1.00011
1.00007
1.00003
1.00005
1.00004
1
1
0.999999
0.999999
0.999999
0.999999
0.999999
1
1
1.00002
1
1
1.00006
1.00016
1.0001
1.00003
1.00002
1.00002
1.00001
1.00003
1.00005
1.00004
1.00002
0.999999
0.999999
0.999999
0.999999
0.999999
0.999999
0.999999
1
1
1
1
1.00001
1.00003
1.00002
1.00002
1.00002
1.00002
1.00002
1.00001
1.00001
1.00002
1.00001
1
0.999999
0.999999
0.999999
0.999999
0.999999
0.999999
1
1
1
1
1
1.00001
1.00001
1.00001
1.00003
1.00006
1.00004
1.00003
1.00001
1.00001
1
1
1
0.999999
0.999999
0.999999
0.999999
0.999999
1
1
1
1
1
1
1
1.00001
1.00003
1.00006
1.00006
1.00006
1.00003
1.00002
1
1
1
1
0.999999
0.999999
0.999999
0.999999
0.999999
1
1
1
1
1
1
1
1.00001
1.00003
1.00006
1.00006
1.00004
1.00003
1.00002
1.00001
1
1
1
0.999999
0.999999
0.999999
0.999999
1
1
1
1
1
1
1
1
1.00001
1.00002
1.00004
1.00004
)
;

boundaryField
{
    leftWall
    {
        type            calculated;
        value           nonuniform List<scalar> 
26
(
13529
13529
13528.5
13319.6
8048.39
1106.14
1000.12
1000.11
1000.1
1000.01
1000
999.755
610.579
1.43086
1.00003
1.00005
1.00006
1.00005
1.00005
1.00003
1
0.999999
0.999999
0.999999
0.999999
0.999999
)
;
    }
    rightWall
    {
        type            calculated;
        value           nonuniform 0();
    }
    lowerWall
    {
        type            calculated;
        value           nonuniform List<scalar> 
22
(
13529
13529
13529
13529
13529
13529
13529
13529
13529
13529
13529
13529
13529
13529
13529
13529
13529
13529
13529
13529
13529
13529
)
;
    }
    atmosphere
    {
        type            calculated;
        value           nonuniform 0();
    }
    defaultFaces
    {
        type            empty;
    }
    procBoundary0to1
    {
        type            processor;
        value           nonuniform List<scalar> 
26
(
13528.9
13528.8
13528.8
13528.8
13528.8
13528.8
13528.8
13528.7
13526.2
12279.6
3116.82
1019.8
922.032
637.356
314.522
4.06467
4.06467
1.00011
1.00002
1.00004
1.00003
1.00001
1
1
1
1
)
;
    }
    procBoundary0to2
    {
        type            processor;
        value           nonuniform List<scalar> 
24
(
1.00004
1.00003
1.00001
1.00001
1
1
1
0.999999
0.999999
0.999999
0.999999
1
1
1
1
1
1
1
1
1
1.00001
1.00001
1.00004
1.00002
)
;
    }
}


// ************************************************************************* //
