/*--------------------------------*- C++ -*----------------------------------*\
| =========                 |                                                 |
| \\      /  F ield         | OpenFOAM: The Open Source CFD Toolbox           |
|  \\    /   O peration     | Version:  2.4.0                                 |
|   \\  /    A nd           | Web:      www.OpenFOAM.org                      |
|    \\/     M anipulation  |                                                 |
\*---------------------------------------------------------------------------*/
FoamFile
{
    version     2.0;
    format      ascii;
    class       volVectorField;
    location    "0.55";
    object      U.mercury;
}
// * * * * * * * * * * * * * * * * * * * * * * * * * * * * * * * * * * * * * //

dimensions      [0 1 -1 0 0 0 0];

internalField   nonuniform List<vector> 
575
(
(0.0150719 -0.00629345 0)
(0.0425165 -0.00672198 0)
(0.0731209 -0.00491393 0)
(0.0921304 -0.00818834 0)
(0.137504 -0.00651783 0)
(0.157602 -0.00518118 0)
(0.177372 -0.00589784 0)
(0.209064 -0.00687872 0)
(0.24396 -0.00747992 0)
(0.273679 -0.00490338 0)
(0.281917 -0.00302358 0)
(0.294652 -0.00281113 0)
(0.298268 -0.00330203 0)
(0.306116 -0.00698708 0)
(0.296702 -0.00878063 0)
(0.27066 -0.0145665 0)
(0.232346 -0.0027584 0)
(0.166494 -0.00271745 0)
(0.109801 0.0121838 0)
(0.0533438 -0.000637931 0)
(0.0474642 0.00629332 0)
(0.0221247 0.00909176 0)
(0.0154958 -0.0196853 0)
(0.0415218 -0.0217096 0)
(0.0741676 -0.013898 0)
(0.0952516 -0.0264556 0)
(0.133887 -0.0194541 0)
(0.157025 -0.0136893 0)
(0.180774 -0.0204037 0)
(0.212201 -0.0208655 0)
(0.245543 -0.0241495 0)
(0.266032 -0.0129495 0)
(0.280775 -0.00558942 0)
(0.297593 -0.00489875 0)
(0.310827 -0.00145872 0)
(0.308512 0.00845022 0)
(0.299417 0.0303012 0)
(0.275336 0.0517233 0)
(0.233637 0.0548537 0)
(0.174254 0.0572617 0)
(0.105569 0.038456 0)
(0.0696023 0.027346 0)
(0.0406217 0.0103398 0)
(0.0269708 0.019494 0)
(0.0158795 -0.0366447 0)
(0.040879 -0.0382545 0)
(0.0744732 -0.0312513 0)
(0.0979136 -0.0424247 0)
(0.128731 -0.0359029 0)
(0.159066 -0.0312984 0)
(0.183513 -0.0359419 0)
(0.216914 -0.0358637 0)
(0.243292 -0.0369207 0)
(0.258044 -0.0230664 0)
(0.281959 -0.0184007 0)
(0.309805 -0.0162342 0)
(0.324628 -0.0110476 0)
(0.325897 -0.00204868 0)
(0.310903 -0.00134261 0)
(0.276743 0.0103232 0)
(0.220115 0.0463006 0)
(0.167749 0.065289 0)
(0.0909156 0.0617467 0)
(0.0704431 0.033689 0)
(0.0481229 0.0235767 0)
(0.0496216 0.0312444 0)
(0.0165526 -0.0460501 0)
(0.0392196 -0.0491725 0)
(0.0742112 -0.0400645 0)
(0.101107 -0.0563758 0)
(0.122565 -0.0492505 0)
(0.159747 -0.0471444 0)
(0.186599 -0.0591177 0)
(0.218358 -0.0584967 0)
(0.234006 -0.0597352 0)
(0.256021 -0.0453871 0)
(0.287906 -0.0465991 0)
(0.312865 -0.0378326 0)
(0.317723 -0.0172898 0)
(0.313651 0.0180623 0)
(0.295824 0.0759237 0)
(0.275983 0.116599 0)
(0.238223 0.11201 0)
(0.179039 0.103855 0)
(0.105869 0.0754479 0)
(0.0682904 0.0417799 0)
(0.038932 0.019992 0)
(0.0468914 0.0366992 0)
(0.0155531 -0.197122 0)
(0.0348936 -0.200001 0)
(0.0681532 -0.194998 0)
(0.0979243 -0.206243 0)
(0.110136 -0.204783 0)
(0.143382 -0.207574 0)
(0.179646 -0.218032 0)
(0.197404 -0.214713 0)
(0.213238 -0.218732 0)
(0.249501 -0.207829 0)
(0.277172 -0.209521 0)
(0.299357 -0.188991 0)
(0.318845 -0.16254 0)
(0.347947 -0.116874 0)
(0.33344 -0.0562197 0)
(0.276778 0.00050872 0)
(0.22273 0.110856 0)
(0.167263 0.142388 0)
(0.105026 0.115574 0)
(0.0750983 0.0658914 0)
(0.023141 0.0343518 0)
(0.0324195 0.0348158 0)
(0.0101085 -0.371381 0)
(0.0269204 -0.375558 0)
(0.0481495 -0.374429 0)
(0.0754866 -0.381276 0)
(0.0854322 -0.383934 0)
(0.107622 -0.396221 0)
(0.136591 -0.40618 0)
(0.161062 -0.410416 0)
(0.182013 -0.422109 0)
(0.212837 -0.424299 0)
(0.235415 -0.419618 0)
(0.252055 -0.407454 0)
(0.274582 -0.38841 0)
(0.293645 -0.297112 0)
(0.264976 -0.138956 0)
(0.241885 -0.00350407 0)
(0.171037 0.0808994 0)
(0.126731 0.148177 0)
(0.0894157 0.116154 0)
(0.0709858 0.0825843 0)
(0.0120974 0.04264 0)
(0.00282971 0.040334 0)
(-0.00569989 -0.177412 0)
(-0.0108268 -0.177688 0)
(-0.0210361 -0.18066 0)
(-0.0194082 -0.178548 0)
(-0.0150221 -0.177983 0)
(-0.00403627 -0.182947 0)
(0.0134298 -0.180911 0)
(0.0282498 -0.177273 0)
(0.0479636 -0.174748 0)
(0.0599218 -0.171091 0)
(0.0622648 -0.165186 0)
(0.0574886 -0.164432 0)
(0.0423884 -0.171145 0)
(0.0426638 -0.201057 0)
(0.179293 -0.267704 0)
(0.261604 -0.125236 0)
(0.140534 0.0195375 0)
(0.0772232 0.133412 0)
(0.0367354 0.133083 0)
(0.0463753 0.0946201 0)
(0.013102 0.0599519 0)
(-0.0119496 0.0371919 0)
(-0.00502835 -0.0478666 0)
(-0.0125378 -0.0481662 0)
(-0.0177711 -0.0557182 0)
(-0.0179402 -0.0514676 0)
(-0.0180591 -0.0584391 0)
(-0.00387488 -0.0737342 0)
(0.0171707 -0.0661495 0)
(0.0312393 -0.0633093 0)
(0.0579774 -0.0645305 0)
(0.0777336 -0.055349 0)
(0.0923596 -0.0299264 0)
(0.104823 -0.0107001 0)
(0.104186 0.0406221 0)
(0.04892 0.128376 0)
(-0.0699407 0.131915 0)
(0.060637 -0.0328301 0)
(0.14708 -0.108906 0)
(-0.0434255 0.0891334 0)
(-0.0749064 0.0996789 0)
(-0.0304462 0.109854 0)
(-0.00944602 0.073665 0)
(-0.00974154 0.0354271 0)
(-0.0056164 -0.10971 0)
(-0.0128532 -0.11381 0)
(-0.0208452 -0.119305 0)
(-0.0224469 -0.127269 0)
(-0.0163022 -0.132568 0)
(-0.0115055 -0.145854 0)
(0.00709006 -0.146445 0)
(0.0271735 -0.150169 0)
(0.0508058 -0.144356 0)
(0.0518 -0.135881 0)
(0.0457622 -0.128486 0)
(0.0428107 -0.136784 0)
(0.0402444 -0.151799 0)
(0.0745159 -0.14558 0)
(0.105313 -0.0890853 0)
(0.125163 0.00645264 0)
(0.164787 -0.114714 0)
(0.00487288 0.0239751 0)
(-0.10679 0.0506059 0)
(-0.138548 -0.000891103 0)
(-0.0943386 0.0437563 0)
(-0.00643835 0.0423376 0)
(-0.00648515 -0.04387 0)
(-0.0178624 -0.0483585 0)
(-0.0252176 -0.0578229 0)
(-0.0258156 -0.0672187 0)
(-0.0145712 -0.0807407 0)
(-0.00916607 -0.111163 0)
(0.0199704 -0.119492 0)
(0.0519839 -0.120778 0)
(0.0901735 -0.0960227 0)
(0.10659 -0.0668314 0)
(0.12014 -0.0287773 0)
(0.141492 -0.00211872 0)
(0.130211 0.0531 0)
(0.106542 0.106308 0)
(0.0704314 0.122446 0)
(0.0627876 0.115413 0)
(0.0904004 0.15995 0)
(0.084053 -0.0333265 0)
(0.00605251 0.0342401 0)
(-0.0291289 -0.00195385 0)
(-0.0168391 -0.114128 0)
(-0.000673704 -0.179599 0)
(-0.00647682 -0.0371433 0)
(-0.0208385 -0.0506833 0)
(-0.0329773 -0.0774255 0)
(-0.0418596 -0.109425 0)
(-0.0420707 -0.127905 0)
(-0.040459 -0.156999 0)
(0.00865178 -0.17786 0)
(0.0562738 -0.179762 0)
(0.0952207 -0.140016 0)
(0.0924036 -0.108198 0)
(0.101818 -0.0829291 0)
(0.108056 -0.0778279 0)
(0.1114 -0.0484232 0)
(0.152505 -0.0208399 0)
(0.164081 0.0240777 0)
(0.186995 0.0722818 0)
(0.18648 0.138608 0)
(0.225392 0.0780502 0)
(0.175359 -0.0835497 0)
(0.181114 -0.0905315 0)
(0.262872 -0.141759 0)
(0.299151 -0.208882 0)
(-0.01894 -0.0106417 0)
(-0.0646079 -0.00585074 0)
(-0.091118 -0.00478671 0)
(-0.0844282 -0.0126915 0)
(-0.0574369 -0.0225327 0)
(-0.0432008 -0.102901 0)
(0.00113912 -0.172664 0)
(0.019648 -0.19798 0)
(0.0294269 -0.155787 0)
(0.0250426 -0.123158 0)
(0.0574206 -0.0961159 0)
(0.05795 -0.0682507 0)
(0.0837838 -0.015867 0)
(0.107992 0.0174889 0)
(0.118888 0.0599011 0)
(0.169382 0.078296 0)
(0.196136 0.118798 0)
(0.260672 0.120786 0)
(0.296174 0.000255427 0)
(0.342619 -0.103611 0)
(0.369979 -0.291281 0)
(0.425004 -0.363709 0)
(0.00821445 -0.298716 0)
(0.00247125 -0.290985 0)
(-0.0149553 -0.279935 0)
(-0.0816279 -0.27578 0)
(-0.144734 -0.265007 0)
(-0.159218 -0.347824 0)
(-0.256876 -0.383919 0)
(-0.360628 -0.295051 0)
(-0.361129 -0.19448 0)
(-0.330674 -0.157348 0)
(-0.228166 -0.112052 0)
(-0.176328 -0.0851861 0)
(-0.0924126 -0.0757704 0)
(-0.0138551 -0.0536217 0)
(0.0328457 -0.0296264 0)
(0.111129 -0.00488569 0)
(0.144311 0.0256625 0)
(0.201595 0.0183387 0)
(0.286123 0.0293659 0)
(0.353666 -0.0798594 0)
(0.443892 -0.153602 0)
(0.472792 -0.264739 0)
(0.00820375 0.628316 0)
(0.0509839 0.241052 0)
(-0.15721 0.833426 0)
(-0.115906 -0.196681 0)
(0.0301881 -0.532924 0)
(-0.0994062 -0.593752 0)
(-0.45122 -0.537391 0)
(-0.676759 -0.43626 0)
(-0.70476 -0.441084 0)
(-0.622175 -0.421922 0)
(-0.53891 -0.367591 0)
(-0.496384 -0.274811 0)
(-0.443918 -0.199857 0)
(-0.361672 -0.118127 0)
(-0.264252 -0.0695078 0)
(-0.154652 0.00660391 0)
(-0.0224438 0.0460819 0)
(0.0681134 0.0303475 0)
(0.18062 0.0107314 0)
(0.214617 -0.0737305 0)
(0.322932 -0.100406 0)
(0.365569 -0.194606 0)
(0.00329075 -0.907809 0)
(0.00914184 -0.61805 0)
(0.16855 -0.54447 0)
(0.61706 -0.771029 0)
(0.558333 -0.469719 0)
(0.45476 0.0766133 0)
(0.098281 0.154919 0)
(-0.137188 0.581383 0)
(-0.571095 0.572927 0)
(-0.521872 -0.157435 0)
(-0.491592 -0.550417 0)
(-0.456652 -0.624101 0)
(-0.45527 -0.613121 0)
(-0.419253 -0.49083 0)
(-0.386772 -0.410434 0)
(-0.314598 -0.34496 0)
(-0.259525 -0.300486 0)
(-0.157857 -0.238593 0)
(-0.0722451 -0.176766 0)
(-0.0448889 -0.275121 0)
(0.0457121 -0.283413 0)
(0.0724047 -0.355795 0)
(-0.151089 0.75764 0)
(-0.314443 0.610638 0)
(-0.228867 0.233675 0)
(-0.150976 -0.145157 0)
(-0.248133 -0.339006 0)
(-0.0390996 -0.103775 0)
(0.324688 0.543201 0)
(0.0136356 0.411573 0)
(0.327845 -0.386864 0)
(0.350093 -0.675886 0)
(0.257861 -0.461427 0)
(0.356889 0.0492501 0)
(0.163893 0.665221 0)
(-0.182341 0.442497 0)
(-0.228115 -0.226547 0)
(-0.238044 -0.449202 0)
(-0.2108 -0.536713 0)
(-0.183038 -0.574827 0)
(-0.174591 -0.585827 0)
(-0.142942 -0.605176 0)
(-0.120822 -0.600378 0)
(-0.0619612 -0.477828 0)
(0.0336206 -0.193255 0)
(0.201882 -0.32356 0)
(0.270871 -0.375258 0)
(0.208914 -0.360046 0)
(-0.00843455 -0.311782 0)
(-0.151005 -0.0550175 0)
(0.0776784 0.444903 0)
(0.384265 0.415796 0)
(0.470623 0.360953 0)
(0.0785581 0.100231 0)
(-0.206378 -0.251406 0)
(-0.245633 -0.434245 0)
(-0.0942515 -0.508692 0)
(0.205252 -0.689394 0)
(0.414621 -0.63579 0)
(0.494985 -0.392374 0)
(0.492975 -0.147068 0)
(0.520576 0.0374755 0)
(0.464762 0.249143 0)
(0.385367 0.030334 0)
(0.273589 -0.129335 0)
(0.232903 -0.429307 0)
(0.244331 -0.614705 0)
(0.00767075 0.263038 0)
(-0.0293084 0.162455 0)
(-0.0648863 -0.023942 0)
(-0.0771862 -0.163935 0)
(-0.114177 -0.230261 0)
(-0.11673 -0.201089 0)
(-0.0223373 -0.0257788 0)
(0.330558 0.184976 0)
(0.399016 0.188896 0)
(0.386091 0.107364 0)
(0.280366 -0.0153521 0)
(0.158403 -0.0946437 0)
(0.146802 -0.025003 0)
(0.142274 -0.0312835 0)
(0.127882 -0.131301 0)
(0.135198 -0.229609 0)
(0.169 -0.310234 0)
(0.196121 -0.386203 0)
(0.255102 -0.3884 0)
(0.367898 -0.378374 0)
(0.418928 -0.350258 0)
(0.425567 -0.298348 0)
(0.398366 -0.255491 0)
(0.0292382 -0.0269582 0)
(0.0976471 -0.123276 0)
(0.0989833 -0.145161 0)
(0.0444518 -0.151407 0)
(-0.0264775 -0.143207 0)
(-0.0651158 -0.0875409 0)
(-0.0472473 -0.0429229 0)
(0.0103588 0.00990647 0)
(0.229184 0.158416 0)
(0.264741 0.121512 0)
(0.248342 0.00364051 0)
(0.225868 -0.210754 0)
(0.210744 -0.313391 0)
(0.225747 -0.339053 0)
(0.232134 -0.315798 0)
(0.224664 -0.262715 0)
(0.240007 -0.209569 0)
(0.259243 -0.122056 0)
(0.275439 -0.0295799 0)
(0.260006 0.0262058 0)
(0.228938 0.00218431 0)
(0.171333 -0.100757 0)
(0.13031 -0.195236 0)
(0.00786879 0.0504798 0)
(0.0207197 -0.00928855 0)
(0.0261716 -0.0835858 0)
(0.0227373 -0.13572 0)
(-0.00653526 -0.1584 0)
(-0.0260684 -0.143887 0)
(-0.0270595 -0.119021 0)
(-0.0224236 -0.0855217 0)
(0.0397153 0.0283134 0)
(0.160472 0.0664676 0)
(0.174398 0.0227923 0)
(0.203826 -0.105564 0)
(0.158331 -0.175239 0)
(0.116248 -0.229138 0)
(0.098196 -0.273009 0)
(0.0781096 -0.294422 0)
(0.0525721 -0.310731 0)
(0.0446171 -0.32632 0)
(0.0553003 -0.323881 0)
(0.094089 -0.311829 0)
(0.13595 -0.298891 0)
(0.142959 -0.292457 0)
(0.121717 -0.287113 0)
(0.0169729 -0.0215759 0)
(0.0384516 -0.0604692 0)
(0.0375632 -0.0766659 0)
(0.0268774 -0.0908591 0)
(0.00645648 -0.0979196 0)
(-0.0110526 -0.0861928 0)
(-0.0249672 -0.0783383 0)
(-0.0306915 -0.0670375 0)
(-0.025436 -0.0414564 0)
(0.0577933 -0.00510183 0)
(0.105342 -0.0533548 0)
(0.116478 -0.129106 0)
(0.100025 -0.170386 0)
(0.0783868 -0.20638 0)
(0.0577968 -0.225129 0)
(0.039329 -0.227168 0)
(0.0223716 -0.210533 0)
(0.00559119 -0.181122 0)
(-0.0108318 -0.145136 0)
(-0.0225356 -0.114629 0)
(-0.0282092 -0.10702 0)
(-0.0392631 -0.122454 0)
(-0.0522679 -0.138917 0)
(0.0110793 -0.0365725 0)
(0.0275431 -0.0755624 0)
(0.0334598 -0.0925937 0)
(0.027459 -0.0993197 0)
(0.0141066 -0.0990603 0)
(0.0045223 -0.0904277 0)
(-0.00208526 -0.0826909 0)
(-0.00410106 -0.0681614 0)
(0.00167281 -0.0618426 0)
(0.0320701 -0.0494888 0)
(0.0654828 -0.0695202 0)
(0.0625452 -0.117057 0)
(0.0497926 -0.166121 0)
(0.029936 -0.208388 0)
(0.00333904 -0.231524 0)
(-0.0181503 -0.239414 0)
(-0.040455 -0.24376 0)
(-0.0576679 -0.245044 0)
(-0.0676728 -0.238742 0)
(-0.0677472 -0.229596 0)
(-0.0634961 -0.220043 0)
(-0.0616613 -0.211496 0)
(-0.0634755 -0.203733 0)
(0.00589883 -0.0422964 0)
(0.0136626 -0.0725028 0)
(0.0150398 -0.0809413 0)
(0.011504 -0.0846638 0)
(0.00674909 -0.0857589 0)
(0.00446139 -0.0829449 0)
(0.00280585 -0.0797402 0)
(0.00680144 -0.0762675 0)
(0.0138177 -0.074261 0)
(0.0282909 -0.0664634 0)
(0.0456198 -0.0778616 0)
(0.0479049 -0.101662 0)
(0.0374634 -0.135586 0)
(0.0164832 -0.168419 0)
(-0.0101933 -0.192936 0)
(-0.0289409 -0.203931 0)
(-0.0428527 -0.202079 0)
(-0.0556863 -0.195538 0)
(-0.0650673 -0.181648 0)
(-0.0704039 -0.17281 0)
(-0.0755215 -0.16906 0)
(-0.0782208 -0.167638 0)
(-0.0806943 -0.168105 0)
(0.00416126 -0.0559431 0)
(0.00712198 -0.0795049 0)
(0.00700945 -0.0820394 0)
(0.00613312 -0.0846722 0)
(0.00494183 -0.0857895 0)
(0.0052881 -0.0840464 0)
(0.00762555 -0.0832431 0)
(0.0126654 -0.0809731 0)
(0.0176584 -0.082159 0)
(0.0276394 -0.0793389 0)
(0.0378501 -0.0881082 0)
(0.0411284 -0.103283 0)
(0.0401376 -0.126558 0)
(0.0286277 -0.148721 0)
(0.00866707 -0.171029 0)
(-0.0119292 -0.188304 0)
(-0.0298633 -0.195262 0)
(-0.0423101 -0.195179 0)
(-0.0510456 -0.18672 0)
(-0.0618849 -0.180667 0)
(-0.0734379 -0.177921 0)
(-0.0797328 -0.173267 0)
(-0.0837956 -0.167615 0)
(0.00239105 -0.0589714 0)
(0.0039896 -0.0798785 0)
(0.00495122 -0.0820718 0)
(0.00541187 -0.0842971 0)
(0.00550638 -0.0860369 0)
(0.00683385 -0.0863928 0)
(0.00917474 -0.0869218 0)
(0.0133741 -0.0867239 0)
(0.0177628 -0.088141 0)
(0.0247896 -0.087527 0)
(0.0324362 -0.093417 0)
(0.0371285 -0.105657 0)
(0.0386978 -0.124693 0)
(0.0329699 -0.142031 0)
(0.0206155 -0.158622 0)
(0.00662499 -0.172269 0)
(-0.012222 -0.180604 0)
(-0.0289878 -0.184025 0)
(-0.0439005 -0.17737 0)
(-0.0546083 -0.16746 0)
(-0.0705638 -0.165609 0)
(-0.0820177 -0.16639 0)
(-0.0886963 -0.162586 0)
(0.00139621 -0.0615216 0)
(0.00310365 -0.0813944 0)
(0.00459453 -0.0829989 0)
(0.00577832 -0.0847665 0)
(0.00639896 -0.0864923 0)
(0.00706204 -0.0879419 0)
(0.00821606 -0.0892928 0)
(0.0102665 -0.0906285 0)
(0.0127953 -0.0927562 0)
(0.0167125 -0.0946411 0)
(0.0232573 -0.100576 0)
(0.0274482 -0.110622 0)
(0.0271237 -0.121855 0)
(0.0223329 -0.132164 0)
(0.0133241 -0.145676 0)
(0.00172537 -0.155318 0)
)
;

boundaryField
{
    leftWall
    {
        type            fixedValue;
        value           uniform (0 0 0);
    }
    rightWall
    {
        type            fixedValue;
        value           nonuniform 0();
    }
    lowerWall
    {
        type            fixedValue;
        value           uniform (0 0 0);
    }
    atmosphere
    {
        type            fluxCorrectedVelocity;
        value           nonuniform 0();
    }
    defaultFaces
    {
        type            empty;
    }
    procBoundary0to1
    {
        type            processor;
        value           nonuniform List<vector> 
26
(
(-0.0166866 0.00255112 0)
(-0.0156082 -0.000493563 0)
(0.0244647 0.0116484 0)
(0.0179967 0.0302993 0)
(0.0246527 0.0419887 0)
(0.013373 0.0580943 0)
(0.00831706 0.0548734 0)
(0.00989632 0.0565921 0)
(0.0609998 0.0547471 0)
(0.0590929 -0.16643 0)
(0.280511 -0.271129 0)
(0.495589 -0.440049 0)
(0.533909 -0.35884 0)
(0.41015 -0.288369 0)
(0.109941 -0.430107 0)
(-0.0134213 -0.235434 0)
(-0.0134213 -0.235434 0)
(0.275895 -0.676217 0)
(0.366026 -0.247829 0)
(0.0973062 -0.249588 0)
(0.0823415 -0.283529 0)
(-0.0670519 -0.169872 0)
(-0.0713859 -0.210893 0)
(-0.0877835 -0.178071 0)
(-0.0894435 -0.167698 0)
(-0.0951945 -0.161014 0)
)
;
    }
    procBoundary0to2
    {
        type            processor;
        value           nonuniform List<vector> 
24
(
(-0.0169164 -0.160528 0)
(-0.0325533 -0.161399 0)
(-0.0454801 -0.159942 0)
(-0.0582201 -0.151501 0)
(-0.0691589 -0.148784 0)
(-0.0822393 -0.153135 0)
(-0.0883707 -0.153869 0)
(0.00103573 -0.0631021 0)
(0.00287689 -0.0828225 0)
(0.00432593 -0.084218 0)
(0.00475857 -0.0857752 0)
(0.00511801 -0.087028 0)
(0.00467554 -0.0885219 0)
(0.00440483 -0.089982 0)
(0.00467518 -0.0918281 0)
(0.00509298 -0.0945389 0)
(0.00666129 -0.0988399 0)
(0.00852858 -0.104421 0)
(0.010336 -0.111631 0)
(0.00833244 -0.119275 0)
(0.00536969 -0.128706 0)
(-0.00259494 -0.136882 0)
(-0.0169164 -0.160528 0)
(-0.0139005 -0.140345 0)
)
;
    }
}


// ************************************************************************* //
