/*--------------------------------*- C++ -*----------------------------------*\
| =========                 |                                                 |
| \\      /  F ield         | OpenFOAM: The Open Source CFD Toolbox           |
|  \\    /   O peration     | Version:  2.4.0                                 |
|   \\  /    A nd           | Web:      www.OpenFOAM.org                      |
|    \\/     M anipulation  |                                                 |
\*---------------------------------------------------------------------------*/
FoamFile
{
    version     2.0;
    format      ascii;
    class       volScalarField;
    location    "0.15";
    object      alpha.water;
}
// * * * * * * * * * * * * * * * * * * * * * * * * * * * * * * * * * * * * * //

dimensions      [0 0 0 0 0 0 0];

internalField   nonuniform List<scalar> 
2268
(
6.81702e-15
4.27403e-15
6.71501e-15
1.39622e-14
2.83492e-14
6.29571e-14
1.09884e-13
1.66566e-13
2.1776e-12
2.4832e-11
4.05772e-11
2.93771e-11
3.51316e-11
5.24161e-11
5.94779e-11
5.22209e-11
3.65053e-11
2.29304e-11
1.56495e-11
1.00063e-11
4.84828e-12
2.33624e-12
2.33976e-11
3.10183e-13
1.95469e-13
2.76629e-13
5.07575e-13
8.76684e-13
1.60722e-12
2.34487e-12
3.27639e-12
3.59128e-11
2.81639e-10
4.88874e-10
5.10996e-10
7.07226e-10
1.13262e-09
1.23684e-09
1.17684e-09
9.50539e-10
5.82332e-10
3.42132e-10
6.25924e-10
1.44913e-09
6.56989e-09
1.29774e-09
6.10637e-12
3.79275e-12
4.82181e-12
7.78502e-12
1.14588e-11
1.73841e-11
2.13505e-11
3.11805e-11
2.77483e-10
1.56199e-09
2.93674e-09
2.95124e-09
4.28945e-09
7.29021e-09
1.09819e-08
2.2609e-08
7.50334e-08
2.96771e-07
9.04662e-07
1.65376e-06
9.68754e-07
1.65335e-07
4.81315e-09
6.64813e-11
3.99869e-11
4.55768e-11
6.46427e-11
8.1346e-11
1.02552e-10
1.06849e-10
2.02233e-10
1.36016e-09
5.66266e-09
1.2429e-08
1.05706e-08
4.68435e-08
1.06919e-06
6.41703e-06
2.35303e-05
6.86886e-05
0.00013408
0.000151795
6.27969e-05
7.15621e-06
1.62544e-07
2.32612e-09
4.21501e-10
2.41954e-10
2.4719e-10
3.07447e-10
3.32874e-10
3.51263e-10
3.18987e-10
1.0387e-09
4.85669e-09
1.49876e-08
4.174e-08
1.26709e-07
2.53779e-05
0.000397835
0.00155229
0.00353558
0.00535307
0.00427853
0.00133047
9.13405e-05
1.26797e-06
2.11655e-08
4.96572e-10
1.4754e-09
8.00618e-10
7.40198e-10
7.95837e-10
7.56451e-10
6.78979e-10
6.58391e-10
4.32143e-09
1.34731e-08
3.0593e-08
2.87186e-07
3.42487e-05
0.00247032
0.0202149
0.0490647
0.064313
0.0454188
0.0149991
0.00161729
3.37827e-05
9.68548e-08
1.78009e-09
4.52676e-11
2.25138e-09
1.16271e-09
9.75088e-10
9.24018e-10
7.9281e-10
5.95051e-10
1.865e-09
1.37846e-08
2.92755e-08
4.85921e-08
4.45015e-06
0.0019921
0.053418
0.206029
0.289776
0.20467
0.0722392
0.0100889
0.000379267
2.58639e-06
7.14922e-08
4.01938e-09
1.67826e-11
1.83243e-10
1.83244e-10
1.83244e-10
1.83244e-10
1.83245e-10
1.83246e-10
8.33075e-09
3.16017e-08
4.77666e-08
5.75943e-08
0.000615091
0.0491435
0.312659
0.580214
0.494666
0.226744
0.0372749
0.00138769
1.04561e-05
1.38576e-07
4.00829e-08
5.45755e-09
9.01337e-11
2.91307e-17
4.20218e-16
2.2608e-15
6.33056e-15
1.33931e-14
2.20724e-14
2.11303e-14
1.53968e-14
1.11337e-14
7.66444e-15
4.62885e-15
2.68159e-15
1.51723e-15
8.257e-16
3.89591e-16
1.21833e-16
1.87567e-17
1.27416e-18
3.2543e-20
5.59545e-17
5.64842e-16
2.54219e-15
8.40415e-15
4.58924e-14
6.57248e-14
6.17265e-14
4.62997e-14
3.14988e-14
1.9554e-14
1.02351e-14
4.91576e-15
2.31435e-15
1.01252e-15
3.88099e-16
1.05942e-16
1.56827e-17
1.11792e-18
3.13852e-20
7.5273e-17
6.21592e-16
2.53991e-15
2.46447e-14
1.23216e-13
1.65329e-13
1.50797e-13
1.11597e-13
7.39352e-14
4.53129e-14
2.43057e-14
1.10476e-14
4.32217e-15
1.53153e-15
4.1635e-16
8.0714e-17
9.82304e-18
6.64003e-19
1.92894e-20
4.83864e-17
3.81338e-16
1.49718e-15
1.5114e-13
3.15004e-13
3.91596e-13
3.37599e-13
2.40102e-13
1.54439e-13
9.23513e-14
4.56789e-14
1.79992e-14
6.42264e-15
1.72973e-15
3.36807e-16
4.98191e-17
5.33504e-18
3.50703e-19
1.04034e-20
2.77583e-17
1.9108e-16
2.58957e-14
4.5259e-13
8.07068e-13
8.66168e-13
6.89327e-13
4.6409e-13
2.85183e-13
1.57249e-13
6.84581e-14
2.42628e-14
6.89581e-15
1.39518e-15
2.0716e-16
2.60251e-17
2.5974e-18
1.66503e-19
4.91051e-21
1.37718e-17
7.08831e-16
4.54022e-13
1.43621e-12
1.92822e-12
1.73876e-12
1.26881e-12
8.04818e-13
4.64914e-13
2.3378e-13
9.02784e-14
2.63735e-14
5.25116e-15
7.69318e-16
9.62493e-17
1.14493e-17
1.11183e-18
6.96551e-20
2.00717e-21
6.42004e-18
2.26042e-13
1.61462e-12
4.1529e-12
4.39677e-12
3.15405e-12
2.08319e-12
1.24816e-12
6.80866e-13
3.16375e-13
1.07315e-13
2.27286e-14
2.91001e-15
3.08889e-16
3.67148e-17
4.44667e-18
4.2852e-19
2.61028e-20
7.2598e-22
1.0631e-13
1.86888e-12
5.32883e-12
1.01166e-11
1.01196e-11
5.29145e-12
3.04443e-12
1.72139e-12
8.98365e-13
3.90586e-13
1.13425e-13
1.49159e-14
9.97971e-16
9.56321e-17
1.271e-17
1.59869e-18
1.52083e-19
8.92142e-21
2.37662e-22
9.80138e-05
0.000119896
0.000182829
0.000322225
0.000630196
0.0014889
0.0035466
0.00972749
0.0254049
0.072304
0.180378
0.43765
0.780197
0.785439
0.559415
0.184845
0.0152417
0.000143033
3.33206e-07
4.82988e-08
1.6257e-08
4.79532e-09
1.0114e-09
0.019456
0.0218225
0.0276419
0.0379948
0.0546267
0.0873141
0.138371
0.227918
0.362393
0.558333
0.771618
0.94904
0.973164
0.906417
0.620076
0.182788
0.0124613
9.15677e-05
1.6045e-07
2.42044e-08
5.44052e-09
2.12375e-09
7.76677e-10
0.342147
0.359146
0.395866
0.451661
0.51975
0.617506
0.720996
0.828759
0.917421
0.972516
0.993887
0.999125
0.993984
0.936136
0.679364
0.246659
0.0268824
0.000474524
7.68625e-07
2.46684e-08
1.14058e-08
5.33528e-09
2.14979e-09
0.926522
0.932448
0.944552
0.959902
0.973555
0.985273
0.992847
0.997072
0.99901
0.999731
0.999939
0.999818
0.994827
0.937983
0.690795
0.269329
0.0351161
0.000919762
2.86373e-06
1.01945e-07
5.01998e-08
2.46232e-08
1.23029e-08
0.999999
0.999999
0.999998
0.999996
0.999997
0.999998
0.999998
0.999998
0.999999
0.999999
0.999998
0.999831
0.991853
0.916141
0.641703
0.234432
0.0286717
0.000738797
2.55753e-06
2.84894e-08
1.77734e-08
9.82245e-09
5.55219e-09
1
1
1
1
1
1
1
1
1
1
0.999999
0.999773
0.986142
0.874871
0.540996
0.154793
0.0133364
0.000228964
5.49138e-07
9.50197e-10
4.91473e-10
3.6823e-10
2.37209e-10
1
1
1
1
1
1
1
1
1
1
0.999999
0.999723
0.977596
0.819336
0.427069
0.088481
0.00481043
4.73127e-05
6.50738e-08
7.28908e-11
3.05502e-11
1.11486e-11
6.80334e-12
1
1
1
1
1
1
1
1
1
1
0.999999
0.99967
0.961784
0.73266
0.294445
0.0384862
0.00112006
5.33131e-06
3.46598e-09
2.95196e-12
1.90842e-12
1.10558e-12
5.90113e-13
1
1
1
1
1
1
1
1
1
1
1
0.999622
0.935428
0.615598
0.172481
0.0126043
0.000178107
3.66519e-07
1.01347e-10
3.33165e-12
1.90605e-12
9.35939e-13
4.39644e-13
1
1
1
1
1
1
1
1
1
1
1
0.99958
0.889404
0.463145
0.078161
0.00277402
1.7314e-05
1.47778e-08
5.48931e-12
2.86804e-12
1.48221e-12
6.94399e-13
3.0091e-13
1
1
1
1
1
1
1
1
1
1
1
0.999481
0.80296
0.286255
0.0243536
0.000384046
9.62815e-07
5.50329e-10
6.0866e-12
2.9664e-12
1.26332e-12
4.91989e-13
1.79713e-13
1
1
1
1
1
1
1
1
1
0.999999
0.999996
0.996891
0.631787
0.12409
0.00437292
3.09342e-05
4.0951e-08
9.6235e-10
1.5849e-11
3.09113e-12
9.78832e-13
2.88611e-13
8.29399e-14
0.999998
0.999998
0.999997
0.999996
0.999992
0.999983
0.99996
0.9999
0.999736
0.999293
0.998313
0.95831
0.354239
0.0297064
0.00047128
2.17619e-06
4.35274e-08
1.48068e-09
3.64224e-11
2.07761e-12
5.89434e-13
1.32163e-13
2.60458e-14
0.998559
0.998391
0.998025
0.997333
0.996059
0.993712
0.989283
0.980926
0.965509
0.938775
0.903978
0.744906
0.12461
0.00434296
3.63236e-05
1.96333e-06
2.19481e-08
1.54068e-10
1.17192e-12
4.5321e-13
1.15921e-13
2.21707e-14
4.44561e-15
0.899996
0.893766
0.881211
0.860436
0.82855
0.782288
0.717158
0.630785
0.524028
0.405326
0.307543
0.172974
0.0206052
0.000278218
4.7361e-06
1.48238e-07
1.1916e-09
1.97208e-12
4.71501e-13
1.00068e-13
1.76277e-14
2.74419e-15
1.46917e-16
0.272281
0.259088
0.234894
0.20089
0.159662
0.115764
0.0739095
0.0397697
0.0168519
0.0057042
0.00198645
0.000694031
0.000926321
3.54215e-05
6.2535e-07
2.42688e-09
2.45668e-12
5.75196e-13
9.99411e-14
1.32698e-14
8.95473e-16
4.21172e-17
4.29422e-18
0.00111701
0.000926436
0.000660596
0.000403351
0.000193563
7.81276e-05
2.23163e-05
5.70419e-06
1.40653e-06
4.03179e-07
1.96614e-07
3.39693e-07
2.03874e-06
2.67184e-06
5.83657e-08
6.3407e-13
7.33841e-13
4.61504e-14
2.30126e-15
1.10712e-16
4.71601e-18
3.33159e-19
6.90147e-19
4.1513e-07
2.66555e-07
2.18679e-07
1.81345e-07
1.78046e-07
2.22505e-07
3.41026e-07
3.60558e-07
3.81808e-08
1.45725e-09
1.98462e-09
1.3777e-08
6.50361e-08
1.18478e-07
1.08054e-08
1.44011e-14
5.44218e-16
2.81349e-18
1.34493e-20
3.86831e-21
2.30506e-20
7.51987e-20
1.68e-19
1.60692e-09
1.40572e-09
1.4216e-09
8.08646e-10
6.51891e-10
5.27887e-10
8.46998e-10
2.72057e-09
3.29404e-09
1.76818e-10
7.03915e-10
2.58564e-09
6.05718e-09
9.85633e-09
1.95919e-09
1.23653e-17
2.29493e-21
9.36085e-23
5.49879e-22
2.40273e-21
7.56442e-21
1.8047e-20
3.31568e-20
7.16969e-23
8.92943e-21
5.02899e-19
1.57781e-17
2.9424e-16
3.18473e-15
1.66964e-14
7.86664e-14
9.42901e-13
6.15388e-12
1.15269e-11
1.30026e-11
7.39258e-12
1.28791e-12
1.38117e-25
9.63509e-25
5.74056e-24
2.87049e-23
1.18037e-22
3.9558e-22
1.09833e-21
2.61732e-21
4.58867e-21
4.041e-48
1.44227e-45
2.50678e-43
2.77517e-41
2.16328e-39
1.23767e-37
5.30235e-36
1.72615e-34
4.32821e-33
8.49548e-32
1.33038e-30
1.6705e-29
1.6822e-28
1.43848e-27
1.08926e-26
7.30485e-26
4.25753e-25
2.09514e-24
8.49902e-24
2.86052e-23
8.23047e-23
2.07608e-22
4.13512e-22
1.4435e-49
4.99542e-47
8.24559e-45
8.53827e-43
6.15918e-41
3.25867e-39
1.30275e-37
4.01762e-36
9.72914e-35
1.88432e-33
2.96979e-32
3.84812e-31
4.14967e-30
3.84408e-29
3.10666e-28
2.19571e-27
1.34394e-26
6.9997e-26
3.05604e-25
1.11824e-24
3.49979e-24
9.66358e-24
2.36723e-23
2.02372e-51
6.61009e-49
1.02872e-46
1.00886e-44
6.95693e-43
3.5737e-41
1.41634e-39
4.43889e-38
1.12159e-36
2.32189e-35
3.98715e-34
5.71822e-33
6.89541e-32
7.06602e-31
6.21128e-30
4.68354e-29
3.01325e-28
1.65412e-27
7.85961e-27
3.27027e-26
1.18504e-25
3.74716e-25
1.03348e-24
1.33152e-53
4.39127e-51
6.90364e-49
6.87714e-47
4.85352e-45
2.57388e-43
1.06278e-41
3.5004e-40
9.36259e-39
2.06154e-37
3.77329e-36
5.79021e-35
7.53493e-34
8.40668e-33
8.12179e-32
6.84063e-31
5.03593e-30
3.22833e-29
1.78086e-28
8.36386e-28
3.3819e-27
1.19991e-26
3.76811e-26
5.79537e-56
1.97927e-53
3.23003e-51
3.3488e-49
2.46911e-47
1.37372e-45
5.97817e-44
2.08462e-42
5.92756e-41
1.39348e-39
2.74158e-38
4.56912e-37
6.52308e-36
8.04053e-35
8.58479e-34
7.9488e-33
6.38663e-32
4.4651e-31
2.72819e-30
1.46763e-29
6.98822e-29
2.94503e-28
1.10242e-27
1.7106e-58
6.08617e-56
1.03428e-53
1.11897e-51
8.63887e-50
5.05786e-48
2.33152e-46
8.68103e-45
2.65989e-43
6.80249e-42
1.46856e-40
2.70204e-39
4.2719e-38
5.84537e-37
6.96921e-36
7.27292e-35
6.66652e-34
5.37686e-33
3.81759e-32
2.38892e-31
1.32448e-30
6.57344e-30
2.95534e-29
3.56268e-61
1.34097e-58
2.41804e-56
2.78368e-54
2.29508e-52
1.44088e-50
7.15411e-49
2.88225e-47
9.59981e-46
2.68186e-44
6.35983e-43
1.2933e-41
2.27422e-40
3.481e-39
4.66203e-38
5.48874e-37
5.70402e-36
5.25315e-35
4.30573e-34
3.15729e-33
2.08097e-32
1.23693e-31
6.66596e-31
5.29337e-64
2.13732e-61
4.13763e-59
5.12456e-57
4.55815e-55
3.09795e-53
1.67195e-51
7.35543e-50
2.68849e-48
8.28515e-47
2.17835e-45
4.93456e-44
9.71124e-43
1.67238e-41
2.53593e-40
3.40398e-39
4.06366e-38
4.33203e-37
4.13893e-36
3.55606e-35
2.75636e-34
1.93446e-33
1.2371e-32
5.77486e-67
2.52522e-64
5.30346e-62
7.14076e-60
6.92278e-58
5.14427e-56
3.0464e-54
1.47647e-52
5.97138e-51
2.04577e-49
6.00913e-48
1.52854e-46
3.3955e-45
6.63446e-44
1.14728e-42
1.76538e-41
2.42836e-40
2.99792e-39
3.33322e-38
3.34821e-37
3.04791e-36
2.52406e-35
1.91567e-34
4.63098e-70
2.21846e-67
5.11035e-65
7.56122e-63
8.07454e-61
6.6281e-59
4.35019e-57
2.34527e-55
1.0593e-53
4.07003e-52
1.34653e-50
3.87459e-49
9.77887e-48
2.1803e-46
4.32085e-45
7.65111e-44
1.21601e-42
1.74143e-41
2.25501e-40
2.64913e-39
2.83352e-38
2.7725e-37
2.50273e-36
2.74253e-73
1.4543e-70
3.7136e-68
6.10219e-66
7.25352e-64
6.64536e-62
4.88259e-60
2.95655e-58
1.50519e-56
6.54209e-55
2.45731e-53
8.0566e-52
2.32493e-50
5.94704e-49
1.35662e-47
2.7744e-46
5.11015e-45
8.51228e-44
1.28725e-42
1.77381e-41
2.23658e-40
2.59467e-39
2.79529e-38
1.19144e-76
7.07559e-74
2.0262e-71
3.74039e-69
5.0052e-67
5.17427e-65
4.30078e-63
2.9541e-61
1.71074e-59
8.48177e-58
3.64437e-56
1.37062e-54
4.54976e-53
1.34254e-51
3.5433e-50
8.40997e-49
1.80382e-47
3.51177e-46
6.23166e-45
1.01214e-43
1.51173e-42
2.08919e-41
2.69804e-40
3.74923e-80
2.52492e-77
8.20938e-75
1.7231e-72
2.62593e-70
3.09707e-68
2.94252e-66
2.31499e-64
1.53879e-62
8.7762e-61
4.3477e-59
1.88977e-57
7.26821e-56
2.49159e-54
7.6616e-53
2.12524e-51
5.34514e-50
1.22465e-48
2.5675e-47
4.94811e-46
8.8112e-45
1.45953e-43
2.27222e-42
8.31485e-84
6.43318e-81
2.40503e-78
5.81023e-76
1.02032e-73
1.38852e-71
1.52447e-69
1.38826e-67
1.07008e-65
7.0913e-64
4.09066e-62
2.0752e-60
9.33835e-59
3.75541e-57
1.3585e-55
4.4464e-54
1.32374e-52
3.60231e-51
9.00339e-50
2.07685e-48
4.44624e-47
8.89749e-46
1.68197e-44
1.23065e-87
1.10984e-84
4.83967e-82
1.36492e-79
2.80092e-77
4.45937e-75
5.73584e-73
6.12891e-71
5.55291e-69
4.33357e-67
2.94999e-65
1.7699e-63
9.44143e-62
4.5121e-60
1.94478e-58
7.60524e-57
2.71315e-55
8.87515e-54
2.6754e-52
7.47082e-51
1.94387e-49
4.748e-48
1.10031e-46
1.11351e-91
1.19321e-88
6.18473e-86
2.07466e-83
5.06797e-81
9.61491e-79
1.47551e-76
1.8837e-74
2.0423e-72
1.91058e-70
1.56195e-68
1.12769e-66
7.25423e-65
4.19003e-63
2.18787e-61
1.03909e-59
4.51395e-58
1.80311e-56
6.65753e-55
2.28445e-53
7.32956e-52
2.2156e-50
6.37634e-49
5.37679e-96
7.03798e-93
4.44991e-90
1.82117e-87
5.43022e-85
1.25843e-82
2.36127e-80
3.6902e-78
4.90422e-76
5.63211e-74
5.66148e-72
5.0345e-70
3.99634e-68
2.85391e-66
1.84627e-64
1.08876e-62
5.88632e-61
2.93357e-59
1.35493e-57
5.83206e-56
2.35399e-54
8.97721e-53
3.26759e-51
1.10142e-100
1.83491e-97
1.46866e-94
7.60213e-92
2.86695e-89
8.40693e-87
1.99748e-84
3.95656e-82
6.67161e-80
9.73258e-78
1.24429e-75
1.40916e-73
1.42657e-71
1.30123e-69
1.07697e-67
8.13946e-66
5.65055e-64
3.62337e-62
2.15793e-60
1.20036e-58
6.27486e-57
3.10531e-55
1.46876e-53
6.15012e-106
1.39473e-102
1.49256e-99
1.03008e-96
5.1824e-94
2.03033e-91
6.4554e-89
1.7136e-86
3.87728e-84
7.59769e-82
1.30587e-79
1.98954e-77
2.71105e-75
3.3301e-73
3.71336e-71
3.7833e-69
3.54326e-67
3.06823e-65
2.47056e-63
1.86035e-61
1.31803e-59
8.84797e-58
5.6768e-56
3.55004e-112
1.21582e-108
1.87796e-105
1.85729e-102
1.34487e-99
7.64757e-97
3.55865e-94
1.39285e-91
4.67739e-89
1.36806e-86
3.52597e-84
8.08246e-82
1.66018e-79
3.07471e-77
5.16171e-75
7.89219e-73
1.10421e-70
1.42084e-68
1.69133e-66
1.8757e-64
1.95292e-62
1.92412e-60
1.80874e-58
3.2211e-119
1.89076e-115
4.6035e-112
6.88416e-109
7.31022e-106
5.96091e-103
3.92862e-100
2.16892e-97
1.0301e-94
4.29759e-92
1.60217e-89
5.4147e-87
1.67934e-84
4.82968e-82
1.29925e-79
3.29176e-77
7.89045e-75
1.79247e-72
3.85198e-70
7.78779e-68
1.47094e-65
2.58173e-63
4.21465e-61
6.34225e-125
4.46788e-121
1.18788e-117
1.94703e-114
2.30526e-111
2.13046e-108
1.6119e-105
1.03228e-102
5.73921e-100
2.82747e-97
1.25606e-94
5.11007e-92
1.93155e-89
6.87774e-87
2.33867e-84
7.70025e-82
2.49103e-79
8.04299e-77
2.63744e-74
8.95596e-72
3.21448e-69
1.24016e-66
5.12438e-64
6.523e-10
3.86739e-10
1.94209e-10
9.81562e-11
4.83957e-10
2.9024e-10
1.66269e-10
1.02325e-10
1.43252e-09
1.07863e-09
8.54889e-10
7.34084e-10
9.00611e-09
6.80289e-09
5.19753e-09
3.92063e-09
4.07818e-09
3.03797e-09
2.23322e-09
1.62302e-09
1.66533e-10
1.37929e-10
1.0262e-10
7.33529e-11
5.23374e-12
3.92306e-12
2.8917e-12
2.32249e-12
4.13391e-13
2.83879e-13
1.91487e-13
1.26625e-13
2.87494e-13
1.84973e-13
1.16405e-13
7.18604e-14
1.84162e-13
1.09392e-13
6.35899e-14
3.6413e-14
9.84379e-14
5.29098e-14
2.83171e-14
1.47831e-14
3.93967e-14
1.85413e-14
8.76036e-15
4.28551e-15
1.05542e-14
5.16143e-15
2.38147e-15
2.47648e-16
1.64973e-15
4.78314e-16
2.60336e-16
4.8349e-17
7.04122e-17
7.38411e-17
2.83066e-17
1.24515e-17
7.29605e-18
8.97055e-18
4.10778e-18
3.44555e-18
1.42527e-18
1.32199e-18
8.20913e-19
7.94531e-19
2.51248e-19
2.09023e-19
1.61914e-19
1.61524e-19
3.96871e-20
3.19605e-20
2.72864e-20
2.74626e-20
5.18582e-21
4.27534e-21
3.62322e-21
3.57718e-21
5.17873e-22
4.3258e-22
3.57902e-22
3.77949e-22
3.6762e-23
3.29072e-23
2.9834e-23
3.55958e-23
1.96959e-24
1.98294e-24
2.07066e-24
2.80763e-24
9.1846e-26
1.06338e-25
1.2312e-25
1.80854e-25
3.72126e-27
4.82811e-27
6.16562e-27
9.5141e-27
1.22487e-28
1.8418e-28
2.55633e-28
4.16916e-28
3.31128e-30
5.7821e-30
8.84127e-30
1.54317e-29
7.33706e-32
1.50791e-31
2.57537e-31
4.88307e-31
1.35745e-33
3.30251e-33
6.39303e-33
1.33495e-32
2.1237e-35
6.15055e-35
1.36671e-34
3.18266e-34
2.84903e-37
9.85715e-37
2.5411e-36
6.67249e-36
3.3159e-39
1.37445e-38
4.14661e-38
1.23971e-37
3.38388e-41
1.68462e-40
5.98976e-40
2.05608e-39
3.05489e-43
1.83169e-42
7.72026e-42
3.06515e-41
2.45838e-45
1.78158e-44
8.94487e-44
4.13404e-43
1.77356e-47
1.56113e-46
9.37851e-46
5.07496e-45
1.15103e-49
1.23954e-48
8.95025e-48
5.70121e-47
6.7227e-52
8.95392e-51
7.81114e-50
5.88729e-49
3.51824e-54
5.89545e-53
6.25485e-52
5.60517e-51
1.63132e-56
3.53516e-55
4.60351e-54
4.92357e-53
6.49899e-59
1.92033e-57
3.1161e-56
3.98e-55
2.12036e-61
9.37573e-60
1.93354e-58
2.89611e-57
1.75959e-11
1.47527e-11
1.92147e-11
2.54172e-11
2.33712e-11
1.4183e-11
4.07588e-12
2.11486e-12
1.06752e-12
4.32284e-13
9.7362e-14
6.08676e-15
1.26695e-16
1.81249e-17
2.55364e-18
3.09906e-19
2.76099e-20
1.5013e-21
3.71977e-23
7.96439e-11
8.25742e-11
7.26743e-11
7.6888e-11
6.03159e-11
2.64621e-11
5.1939e-12
2.51089e-12
1.26286e-12
4.43423e-13
5.79858e-14
1.3227e-15
2.11223e-17
3.52624e-18
4.90533e-19
5.55837e-20
4.57094e-21
2.29043e-22
5.24287e-24
5.68161e-10
4.48472e-10
3.39604e-10
2.20344e-10
1.1902e-10
2.95491e-11
3.78039e-12
2.03512e-12
1.06713e-12
2.66083e-13
1.94143e-14
1.5037e-16
4.53606e-18
7.22763e-19
9.47591e-20
9.82599e-21
7.29589e-22
3.34869e-23
7.03063e-25
2.08567e-09
1.05218e-09
5.46564e-10
2.96214e-10
7.98488e-11
8.20858e-12
2.29053e-12
1.41806e-12
5.07072e-13
8.26994e-14
3.70852e-15
2.36083e-17
1.28604e-18
1.68833e-19
1.962e-20
1.80722e-21
1.186e-22
4.8577e-24
9.22492e-26
8.09077e-10
3.90901e-10
1.88625e-10
5.03864e-11
5.14569e-12
2.01142e-12
1.25282e-12
6.35609e-13
1.83154e-13
2.02903e-14
7.19654e-16
6.53976e-18
4.43686e-19
4.59487e-20
4.47844e-21
3.54089e-22
2.02779e-23
7.36262e-25
1.24515e-26
4.29813e-11
2.33674e-11
6.31328e-12
2.41165e-12
1.11111e-12
6.83093e-13
3.90044e-13
2.19445e-13
5.46772e-14
4.79466e-15
1.45046e-16
2.34762e-18
1.57645e-19
1.34061e-20
1.08499e-21
7.26851e-23
3.60074e-24
1.14971e-25
1.72307e-27
1.14552e-12
4.88174e-13
2.60187e-13
1.29706e-13
8.67483e-14
7.83143e-14
1.41301e-13
7.91194e-14
1.50904e-14
1.06084e-15
3.0824e-17
8.05839e-19
5.16716e-20
3.79375e-21
2.61142e-22
1.49773e-23
6.44342e-25
1.81091e-26
2.40736e-28
5.44557e-14
2.32968e-14
9.65091e-15
4.97095e-15
9.95958e-15
4.91912e-14
6.28746e-14
2.57036e-14
3.72997e-15
2.20296e-16
6.80019e-18
2.44225e-19
1.50133e-20
9.85444e-22
5.93664e-23
2.97521e-24
1.12567e-25
2.80729e-27
3.32761e-29
2.81698e-14
1.07971e-14
4.69866e-15
3.15952e-15
1.37891e-14
2.7953e-14
2.41049e-14
7.26577e-15
8.26224e-16
4.3375e-17
1.49775e-18
6.49305e-20
3.84012e-21
2.30182e-22
1.24216e-23
5.54751e-25
1.87417e-26
4.19447e-28
4.46846e-30
1.27279e-14
4.87515e-15
1.77652e-15
3.96482e-15
9.03671e-15
1.25401e-14
7.81298e-15
1.77962e-15
1.65615e-16
8.14214e-18
3.169e-19
1.52429e-20
8.67954e-22
4.81524e-23
2.36696e-24
9.57262e-26
2.92854e-27
5.95033e-29
5.74788e-31
4.6852e-15
8.72433e-16
1.1594e-15
2.56498e-15
4.39528e-15
4.55983e-15
2.13659e-15
3.81153e-16
3.03191e-17
1.4548e-18
6.27805e-20
3.1822e-21
1.74433e-22
9.03817e-24
4.09554e-25
1.51887e-26
4.25672e-28
7.93536e-30
7.00904e-32
6.7852e-16
3.04832e-16
6.5607e-16
1.2258e-15
1.68843e-15
1.36251e-15
4.98375e-16
7.21156e-17
5.1024e-18
2.45976e-19
1.14751e-20
5.9444e-22
3.13552e-23
1.52737e-24
6.43676e-26
2.21042e-27
5.72867e-29
9.88498e-31
8.04319e-33
1.01248e-16
1.42195e-16
2.90829e-16
4.64599e-16
5.2809e-16
3.40929e-16
1.00277e-16
1.21716e-17
7.92917e-19
3.90334e-20
1.92144e-21
9.98343e-23
5.06671e-24
2.33184e-25
9.20414e-27
2.94891e-28
7.12163e-30
1.14582e-31
8.6418e-34
3.39578e-17
6.03788e-17
1.06033e-16
1.45297e-16
1.37383e-16
7.28197e-17
1.75823e-17
1.84771e-18
1.14041e-19
5.76966e-21
2.93674e-22
1.51314e-23
7.39023e-25
3.22672e-26
1.19968e-27
3.60803e-29
8.17029e-31
1.23298e-32
8.66519e-35
1.13424e-17
1.99648e-17
3.14438e-17
3.80384e-17
3.02548e-17
1.3416e-17
2.71219e-18
2.53942e-19
1.51882e-20
7.89425e-22
4.09107e-23
2.07564e-24
9.76295e-26
4.05802e-27
1.42795e-28
4.05182e-30
8.64816e-32
1.23033e-33
8.0901e-36
3.50666e-18
5.54162e-18
7.77679e-18
8.45034e-18
5.70854e-18
2.14764e-18
3.71037e-19
3.17532e-20
1.87135e-21
9.95135e-23
5.19212e-24
2.58316e-25
1.17125e-26
4.64951e-28
1.55471e-29
4.18035e-31
8.44695e-33
1.13752e-34
7.0239e-37
8.81114e-19
1.28009e-18
1.62235e-18
1.61067e-18
9.29129e-19
3.00704e-19
4.53019e-20
3.62418e-21
2.12912e-22
1.15199e-23
6.00406e-25
2.92231e-26
1.27896e-27
4.86285e-29
1.55071e-30
3.96624e-32
7.61615e-34
9.74364e-36
5.66491e-38
1.82868e-19
2.45607e-19
2.88762e-19
2.63677e-19
1.31052e-19
3.70298e-20
4.96058e-21
3.78311e-22
2.23161e-23
1.2219e-24
6.32874e-26
3.01042e-27
1.27363e-28
4.65083e-30
1.41887e-31
3.46367e-33
6.34132e-35
7.73052e-37
4.24324e-39
3.06913e-20
3.93687e-20
4.44086e-20
3.67763e-20
1.61356e-20
4.02182e-21
4.89207e-22
3.61466e-23
2.14991e-24
1.18583e-25
6.08426e-27
2.82809e-28
1.1586e-29
4.07371e-31
1.19242e-32
2.78666e-34
4.87837e-36
5.68292e-38
2.95047e-40
4.16477e-21
5.38882e-21
5.92469e-21
4.36822e-21
1.74244e-21
3.86385e-22
4.35905e-23
3.16159e-24
1.90004e-25
1.05211e-26
5.33849e-28
2.42612e-29
9.64224e-31
3.27246e-32
9.21513e-34
2.06735e-35
3.46978e-37
3.87142e-39
1.9046e-41
4.80372e-22
6.3307e-22
6.69412e-22
4.49198e-22
1.64831e-22
3.29788e-23
3.51755e-24
2.53075e-25
1.5382e-26
8.53138e-28
4.27859e-29
1.90302e-30
7.35169e-32
2.41408e-33
6.55612e-35
1.41543e-36
2.28284e-38
2.44444e-40
1.14205e-42
4.76029e-23
6.20374e-23
6.32805e-23
4.0502e-23
1.36235e-23
2.51387e-24
2.57442e-25
1.85345e-26
1.13962e-27
6.32342e-29
3.13517e-30
1.36662e-31
5.14219e-33
1.63748e-34
4.29885e-36
8.95186e-38
1.39033e-39
1.43166e-41
6.36144e-44
3.99963e-24
5.11074e-24
5.11521e-24
3.18358e-24
9.87814e-25
1.71677e-25
1.71132e-26
1.24168e-27
7.72395e-29
4.28621e-30
2.10265e-31
8.99696e-33
3.30409e-34
1.0226e-35
2.60094e-37
5.23535e-39
7.84569e-41
7.78334e-43
3.2926e-45
2.7382e-25
3.57614e-25
3.60001e-25
2.17233e-25
6.33174e-26
1.05265e-26
1.03494e-27
7.60871e-29
4.7898e-30
2.65917e-31
1.29228e-32
5.43752e-34
1.95306e-35
5.8875e-37
1.45384e-38
2.83437e-40
4.106e-42
3.93058e-44
1.58475e-46
1.53308e-26
2.15609e-26
2.20871e-26
1.2927e-26
3.60902e-27
5.81271e-28
5.70416e-29
4.26628e-30
2.71946e-31
1.5117e-32
7.28868e-34
3.02148e-35
1.06362e-36
3.1294e-38
7.51753e-40
1.42218e-41
1.99491e-43
1.84545e-45
7.09944e-48
7.18816e-28
1.12549e-27
1.18101e-27
6.75712e-28
1.83674e-28
2.90119e-29
2.87041e-30
2.1908e-31
1.41522e-32
7.88626e-34
3.77875e-35
1.54624e-36
5.34519e-38
1.53802e-39
3.60103e-41
6.6222e-43
9.00871e-45
8.06441e-47
2.96327e-49
2.8791e-29
5.10216e-29
5.52167e-29
3.12354e-29
8.37869e-30
1.3136e-30
1.32124e-31
1.03168e-32
6.76092e-34
3.78198e-35
1.80405e-36
7.30064e-38
2.48322e-39
7.00096e-41
1.60048e-42
2.86573e-44
3.78637e-46
3.28411e-48
1.15377e-50
9.97687e-31
2.01689e-30
2.26953e-30
1.28463e-30
3.44071e-31
5.41492e-32
5.57447e-33
4.46295e-34
2.97064e-35
1.67066e-36
7.9476e-38
3.18673e-39
1.0685e-40
2.95693e-42
6.61143e-44
1.15441e-45
1.48343e-47
1.24813e-49
4.19635e-52
3.01773e-32
6.99067e-32
8.25152e-32
4.72741e-32
1.27788e-32
2.03949e-33
2.16086e-34
1.77725e-35
1.20314e-36
6.8135e-38
3.23814e-39
1.28879e-40
4.26736e-42
1.16114e-43
2.54325e-45
4.33664e-47
5.42671e-49
4.43413e-51
1.42797e-53
8.02733e-34
2.13807e-33
2.67102e-33
1.56547e-33
4.31338e-34
7.04429e-35
7.71619e-36
6.53129e-37
4.50307e-38
2.57198e-39
1.22322e-40
4.84083e-42
1.5855e-43
4.24857e-45
9.12938e-47
1.52226e-48
1.85722e-50
1.47524e-52
4.5545e-55
1.89129e-35
5.80951e-35
7.74885e-35
4.6919e-35
1.32981e-35
2.23969e-36
2.54583e-37
2.22125e-38
1.5619e-39
9.01143e-41
4.29582e-42
1.69315e-43
5.49405e-45
1.45198e-46
3.06517e-48
5.00408e-50
5.95898e-52
4.6059e-54
1.36432e-56
3.97444e-37
1.41226e-36
2.02829e-36
1.28027e-36
3.76378e-37
6.58113e-38
7.78643e-39
7.01321e-40
5.03622e-41
2.93951e-42
1.4067e-43
5.53024e-45
1.78043e-46
4.64712e-48
9.64998e-50
1.54425e-51
1.79672e-53
1.35256e-55
3.84699e-58
7.50144e-39
3.09349e-38
4.82281e-38
3.19988e-38
9.83072e-39
1.79468e-39
2.21568e-40
2.06286e-41
1.51477e-42
8.95671e-44
4.30886e-45
1.69202e-46
5.41191e-48
1.39684e-49
2.85662e-51
4.48563e-53
5.10405e-55
3.7453e-57
1.02361e-59
1.28046e-40
6.15015e-40
1.0489e-39
7.37102e-40
2.38229e-40
4.56214e-41
5.88909e-42
5.67417e-43
4.26556e-44
2.55836e-45
1.23886e-46
4.86543e-48
1.54796e-49
3.95546e-51
7.97497e-53
1.22999e-54
1.36992e-56
9.80614e-59
2.57714e-61
1.99031e-42
1.11792e-41
2.1011e-41
1.57479e-41
5.38565e-42
1.08608e-42
1.46826e-43
1.4655e-44
1.12904e-45
6.87657e-47
3.35565e-48
1.31956e-49
4.18063e-51
1.05869e-52
2.10646e-54
3.1938e-56
3.48458e-58
2.43497e-60
6.15768e-63
2.83623e-44
1.87172e-43
3.90396e-43
3.14061e-43
1.14226e-43
2.43326e-44
3.44937e-45
3.56955e-46
2.82083e-47
1.74638e-48
8.59664e-50
3.38825e-51
1.07e-52
2.68786e-54
5.28229e-56
7.87956e-58
8.42762e-60
5.7527e-62
1.40074e-64
3.72978e-46
2.90835e-45
6.77668e-45
5.88508e-45
2.2861e-45
5.15679e-46
7.67256e-47
8.23731e-48
6.68196e-49
4.20847e-50
2.09156e-51
8.26971e-53
2.60534e-54
6.49739e-56
1.26218e-57
1.85369e-59
1.94482e-61
1.29757e-63
3.04396e-66
4.55493e-48
4.22613e-47
1.10699e-46
1.04313e-46
4.34324e-47
1.03933e-47
1.62402e-48
1.80968e-49
1.5077e-50
9.6666e-52
4.85386e-53
1.92662e-54
6.05973e-56
1.50136e-57
2.8849e-59
4.17398e-61
4.29819e-63
2.80452e-65
6.34208e-68
5.19586e-50
5.78755e-49
1.71435e-48
1.76086e-48
7.88065e-49
2.00315e-49
3.28825e-50
3.804e-51
3.25616e-52
2.12623e-53
1.07927e-54
4.30314e-56
1.35204e-57
3.32997e-59
6.33286e-61
9.03157e-63
9.13299e-65
5.83069e-67
1.27172e-69
5.56364e-52
7.52878e-51
2.53618e-50
2.85053e-50
1.37425e-50
3.71333e-51
6.40375e-52
7.69102e-53
6.76504e-54
4.50034e-55
2.31014e-56
9.25618e-58
2.90659e-59
7.11973e-61
1.34074e-62
1.88561e-64
1.87329e-66
1.17067e-68
2.46386e-71
5.6152e-54
9.37687e-53
3.61056e-52
4.45446e-52
2.31667e-52
6.65638e-53
1.20565e-53
1.50304e-54
1.35859e-55
9.20888e-57
4.78189e-58
1.92615e-59
6.04741e-61
1.4739e-62
2.74956e-64
3.81508e-66
3.72516e-68
2.27965e-70
4.63214e-73
5.30672e-56
1.12764e-54
4.9945e-54
6.78089e-54
3.8067e-54
1.16254e-54
2.20976e-55
2.85757e-56
2.653e-57
1.83183e-58
9.62123e-60
3.89606e-61
1.22314e-62
2.96662e-64
5.48353e-66
7.50816e-68
7.20746e-70
4.32015e-72
8.47846e-75
)
;

boundaryField
{
    leftWall
    {
        type            zeroGradient;
    }
    rightWall
    {
        type            zeroGradient;
    }
    lowerWall
    {
        type            zeroGradient;
    }
    atmosphere
    {
        type            inletOutlet;
        inletValue      uniform 0;
        value           nonuniform List<scalar> 
46
(
0
0
0
0
0
0
0
0
0
0
0
0
0
0
0
0
0
0
0
0
0
0
0
2.12036e-61
9.37573e-60
1.93354e-58
2.89611e-57
5.30672e-56
1.12764e-54
4.9945e-54
6.78089e-54
3.8067e-54
1.16254e-54
2.20976e-55
2.85757e-56
2.653e-57
1.83183e-58
9.62123e-60
3.89606e-61
1.22314e-62
2.96662e-64
5.48353e-66
7.50816e-68
7.20746e-70
4.32015e-72
8.47846e-75
)
;
    }
    defaultFaces
    {
        type            empty;
    }
}


// ************************************************************************* //
