/*--------------------------------*- C++ -*----------------------------------*\
| =========                 |                                                 |
| \\      /  F ield         | OpenFOAM: The Open Source CFD Toolbox           |
|  \\    /   O peration     | Version:  2.4.0                                 |
|   \\  /    A nd           | Web:      www.OpenFOAM.org                      |
|    \\/     M anipulation  |                                                 |
\*---------------------------------------------------------------------------*/
FoamFile
{
    version     2.0;
    format      ascii;
    class       volScalarField;
    location    "0.15";
    object      alpha.air;
}
// * * * * * * * * * * * * * * * * * * * * * * * * * * * * * * * * * * * * * //

dimensions      [0 0 0 0 0 0 0];

internalField   nonuniform List<scalar> 
2268
(
1.39985e-28
8.28551e-29
1.29454e-28
2.68044e-28
8.09413e-28
4.38135e-27
2.49327e-26
2.5751e-25
1.38001e-24
5.31087e-23
1.04405e-22
6.70003e-22
4.81253e-21
1.03469e-20
1.08177e-20
7.37874e-21
3.70171e-21
1.48898e-21
5.01426e-22
1.44401e-22
3.94056e-23
1.00529e-23
2.07943e-24
1.58944e-26
8.79237e-27
1.29033e-26
2.52863e-26
6.96345e-26
3.37322e-25
1.65235e-24
1.46073e-23
7.70561e-23
2.19035e-21
4.34046e-21
2.25983e-20
1.31765e-19
2.34359e-19
2.04012e-19
1.19907e-19
5.44777e-20
2.07036e-20
6.86184e-21
2.03353e-21
5.59176e-22
1.4335e-22
2.65368e-23
8.78379e-25
4.58109e-25
6.3267e-25
1.17963e-24
2.97083e-24
1.29164e-23
5.47193e-23
4.1756e-22
2.11181e-21
4.60296e-20
9.23111e-20
3.86114e-19
1.74614e-18
2.59065e-18
1.93512e-18
1.0021e-18
4.12811e-19
1.44775e-19
4.48745e-20
1.24696e-20
3.21318e-21
7.33535e-22
1.14002e-22
3.14406e-23
1.56746e-23
2.04564e-23
3.64129e-23
8.40095e-23
3.28491e-22
1.20981e-21
8.00964e-21
3.77089e-20
6.51952e-19
1.31801e-18
4.44702e-18
1.51183e-17
1.88339e-17
1.22449e-17
5.62818e-18
2.09233e-18
6.64888e-19
1.88112e-19
4.88023e-20
1.19301e-20
2.20803e-21
2.4263e-22
8.17105e-22
3.96473e-22
4.92202e-22
8.37498e-22
1.77154e-21
6.23863e-21
2.0083e-20
1.15314e-19
4.94639e-19
6.90114e-18
1.40252e-17
3.81249e-17
9.62322e-17
1.01843e-16
5.87534e-17
2.4336e-17
8.23214e-18
2.42415e-18
6.20859e-19
1.3948e-19
2.62367e-20
3.17665e-21
2.42449e-22
1.63671e-20
7.88795e-21
9.39539e-21
1.52794e-20
2.9653e-20
9.40482e-20
2.66172e-19
1.32094e-18
5.06442e-18
5.77974e-17
1.16675e-16
2.54682e-16
4.82699e-16
4.43958e-16
2.31619e-16
9.01751e-17
2.88508e-17
8.05381e-18
1.92075e-18
4.04919e-19
5.8369e-20
4.27978e-21
1.62476e-22
2.61715e-19
1.27864e-19
1.47525e-19
2.29264e-19
4.08719e-19
1.16587e-18
2.91942e-18
1.24411e-17
4.21343e-17
3.94194e-16
7.75851e-16
1.37067e-15
2.00519e-15
1.66363e-15
8.22296e-16
2.96045e-16
8.66194e-17
2.20145e-17
4.80405e-18
7.5815e-19
7.81897e-20
4.46194e-21
9.1084e-23
3.41597e-18
1.72385e-18
1.94481e-18
2.89175e-18
4.74352e-18
1.21434e-17
2.7069e-17
9.82885e-17
2.9176e-16
2.22584e-15
4.18927e-15
6.07963e-15
7.32108e-15
5.58297e-15
2.4798e-15
7.70764e-16
1.83984e-16
3.51689e-17
5.12864e-18
5.90082e-19
5.80961e-20
3.8765e-21
1.01535e-22
1.00001
1.00001
1
0.999741
0.986146
0.852858
0.605099
0.528325
0.493804
0.562164
0.682323
0.672342
0.787539
0.936931
0.992385
0.999729
1
1
1
1.00001
1.00001
1
0.999113
0.939126
0.418757
0.0868777
0.0601972
0.0609743
0.0916859
0.143767
0.666336
0.976377
0.99902
0.99961
0.999956
1
1.00001
1.00001
1.00001
1
0.999992
0.994559
0.689018
0.0904105
0.0020753
0.000708355
0.00162172
0.0410094
0.57678
0.965493
0.999634
1
1
1
1
1.00001
1.00001
1.00001
1
0.999905
0.949172
0.377631
0.0233048
0.000197507
0.000196228
0.00671809
0.30456
0.900624
0.998134
0.999998
1
1
1
1
1.00001
1.00001
1.00001
1
0.996412
0.762752
0.152726
0.00449265
3.98003e-05
0.000451395
0.0428346
0.588145
0.96668
0.999638
1
1
1
1
1.00001
1.00001
1.00001
1.00001
0.999979
0.935457
0.398854
0.0329335
0.00037349
1.59022e-05
0.0009667
0.1069
0.690517
0.98011
0.99985
1
1
1
1
1.00001
1.00001
1.00001
1.00001
0.967704
0.594061
0.088699
0.0020041
1.05744e-05
7.46959e-06
0.00200266
0.17754
0.781424
0.990897
0.99997
1
1
1
1.00001
1.00001
1.00001
1.00001
0.901202
0.588722
0.12363
0.00559623
4.79127e-05
2.25885e-06
2.45616e-06
0.00547384
0.315532
0.880925
0.997354
0.999998
1
1
1
1.00001
1.00001
1.00001
1.00001
3.69625e-17
1.95863e-17
2.17853e-17
3.10982e-17
4.69897e-17
1.07671e-16
2.14763e-16
6.58049e-16
1.70989e-15
1.05397e-14
1.86588e-14
2.28772e-14
2.39125e-14
1.57134e-14
6.25898e-15
1.63621e-15
2.97905e-16
3.79946e-17
4.06296e-18
3.92565e-19
3.9993e-20
4.42278e-21
5.48165e-22
6.10334e-16
3.45523e-16
3.80148e-16
5.23313e-16
7.24817e-16
1.47111e-15
2.6137e-15
6.60922e-15
1.49187e-14
7.15567e-14
1.14456e-13
1.27043e-13
1.07712e-13
6.22145e-14
2.3152e-14
5.48941e-15
8.86995e-16
1.12432e-16
1.25799e-17
1.3429e-18
1.53089e-19
2.07613e-20
3.38746e-21
7.89189e-15
4.85281e-15
5.28453e-15
7.11964e-15
8.9216e-15
1.57412e-14
2.47891e-14
5.32052e-14
1.0667e-13
3.77645e-13
5.49229e-13
5.21696e-13
3.7875e-13
2.00853e-13
7.25972e-14
1.73474e-14
3.14414e-15
5.07687e-16
7.99638e-17
1.38676e-17
2.61668e-18
6.19915e-19
2.06037e-19
8.24918e-14
5.62084e-14
6.0505e-14
8.23759e-14
8.88291e-14
1.30237e-13
1.77152e-13
3.39064e-13
5.50365e-13
1.80827e-12
2.41735e-12
1.66309e-12
1.06882e-12
5.3529e-13
1.90649e-13
4.7468e-14
1.04095e-14
5.44368e-15
3.9069e-15
1.48749e-14
2.12711e-14
5.0494e-14
1.20771e-13
6.53646e-13
5.08132e-13
5.24731e-13
7.9935e-13
6.16446e-13
7.36368e-13
9.24673e-13
1.88302e-12
1.93834e-12
1.19515e-11
1.24362e-11
4.29031e-12
2.4815e-12
1.18914e-12
4.15909e-13
1.07331e-13
3.90969e-14
8.85674e-14
2.74972e-13
1.09906e-12
1.93537e-12
3.94133e-12
1.12111e-11
3.07549e-12
2.97924e-12
2.74427e-12
6.82512e-12
2.59451e-12
2.76631e-12
4.99587e-12
1.81865e-11
5.84508e-11
4.22994e-10
1.22184e-10
1.63134e-11
4.7324e-12
2.24857e-12
7.76145e-13
2.17785e-13
1.9994e-13
8.94024e-13
3.17838e-12
1.74143e-11
5.09003e-11
2.66215e-10
4.44053e-10
4.62334e-11
3.83334e-11
4.35816e-11
5.11378e-11
7.56453e-11
1.29206e-10
3.56769e-10
7.37886e-10
1.26462e-09
1.98858e-09
9.6987e-10
2.80199e-10
5.44323e-11
4.25584e-12
1.30926e-12
4.39658e-13
8.5847e-13
5.23041e-12
1.85764e-10
8.15213e-10
1.55922e-09
2.29868e-09
3.04311e-09
9.73625e-10
9.00511e-10
1.00355e-09
1.20059e-09
1.50801e-09
1.96956e-09
2.60593e-09
3.63358e-09
4.85582e-09
6.33354e-09
4.48407e-09
1.88675e-09
3.10158e-10
1.03474e-11
2.18826e-12
8.95812e-13
2.36179e-12
2.8697e-10
2.14682e-09
4.31792e-09
6.89085e-09
1.0179e-08
9.90062e-09
3.96621e-09
3.85793e-09
4.24122e-09
4.90913e-09
5.89046e-09
7.24086e-09
9.20487e-09
1.167e-08
1.38981e-08
1.64893e-08
1.5711e-08
5.10151e-09
5.04461e-10
1.17993e-11
2.81718e-12
1.6651e-12
9.39727e-11
3.32965e-09
8.66997e-09
1.51991e-08
1.99004e-08
3.00828e-08
2.63468e-08
1.36183e-08
1.37717e-08
1.461e-08
1.58705e-08
1.75275e-08
2.07795e-08
2.67309e-08
3.51237e-08
4.50935e-08
5.74832e-08
3.70134e-08
6.36733e-09
3.57144e-10
7.73036e-12
3.10393e-12
2.26826e-12
1.82685e-09
1.53346e-08
2.31882e-08
4.23167e-08
7.30358e-08
1.13726e-07
1.00633e-07
4.4635e-08
4.61732e-08
4.87852e-08
5.36269e-08
6.43671e-08
8.53696e-08
1.11397e-07
1.39417e-07
1.66561e-07
1.8668e-07
9.62818e-08
1.4734e-08
5.8421e-10
8.84478e-12
3.7265e-11
2.11927e-10
1.59006e-08
4.65401e-08
8.43554e-08
1.58568e-07
2.19289e-07
7.04322e-07
7.20622e-05
1.83431e-07
1.89764e-07
1.96971e-07
2.09687e-07
2.29064e-07
2.54195e-07
2.84196e-07
3.15534e-07
4.26961e-07
9.90944e-07
2.90717e-06
8.18811e-06
5.89757e-07
1.78739e-08
2.52537e-07
8.95284e-08
8.43068e-08
1.79801e-07
2.61639e-07
1.11282e-06
2.25208e-05
0.000599487
0.0154619
2.03593e-06
2.36765e-06
3.14849e-06
4.85134e-06
8.63323e-06
1.75248e-05
4.00628e-05
0.000100255
0.00026492
0.000707976
0.00160589
0.00279551
0.000188289
8.97617e-06
5.23452e-05
1.99441e-06
3.05949e-06
1.59027e-05
0.000118904
0.00091683
0.00805165
0.0609027
0.344021
0.00144189
0.00160995
0.00197608
0.00266798
0.00394171
0.00628861
0.0107177
0.0190751
0.0344921
0.0612243
0.0949001
0.113257
0.0118811
0.00126251
0.000677872
0.000943614
0.00217339
0.00663253
0.0237445
0.0805071
0.262423
0.640975
0.971859
0.100005
0.106235
0.11879
0.139565
0.17145
0.217712
0.282842
0.369216
0.475972
0.594658
0.688615
0.620765
0.11671
0.0586531
0.0644476
0.0846839
0.134454
0.240497
0.440712
0.707493
0.938929
0.998296
0.999999
0.727719
0.740912
0.765106
0.79911
0.840338
0.884236
0.926091
0.960231
0.983148
0.994245
0.995223
0.953539
0.751322
0.626606
0.645785
0.713611
0.817874
0.925797
0.988047
0.999496
0.999998
1
1
0.998883
0.999073
0.999339
0.999596
0.999806
0.999921
0.999977
0.999994
0.999998
0.999987
0.99987
0.999635
0.999078
0.997147
0.997821
0.999233
0.999883
0.999993
1
1
1
1
1
0.999998
0.999998
0.999998
0.999998
0.999998
0.999998
0.999998
0.999998
0.999998
0.999997
0.999998
0.999999
0.999999
0.999999
1
1
1
1
1
1
1
1
1
0.999998
0.999998
0.999998
0.999998
0.999998
0.999998
0.999998
0.999998
0.999998
0.999998
0.999999
0.999999
0.999999
0.999999
1
1
1
1
1
1
1
1
1
0.999998
0.999998
0.999998
0.999998
0.999999
0.999999
0.999999
0.999999
0.999999
0.999999
0.999999
0.999999
1
1
1
1
1
1
1
1
1
1
1
0.999999
0.999999
0.999999
0.999999
0.999999
1
1
1
1
1
1
1
1
1
1
1
1
1
1
1
1
1
1
1
1
1
1
1
1
1
1
1
1
1
1
1
1
1
1
1
0.999999
0.999999
1
1
1
1
1
1
1
1
1
1
1
1
1
1
1
1
1
1
1
1
1
0.999999
0.999999
0.999999
0.999999
1
1
1
1
1
1
1
1
1
1
1
1
1
1
1
1
1
1
1
0.999999
0.999999
0.999999
0.999999
0.999999
1
1
1
1
1
1
1
1
1
1
1
1
1
1
1
1
1
1
0.999999
0.999999
0.999998
0.999998
0.999998
0.999998
1
1
1
1
1
1
1
1
1
1
1
1
1
1
1
1
0.999999
0.999999
0.999999
0.999999
0.999999
0.999999
0.999999
1
1
1
1
1
1
1
1
1
1
1
1
1
1
1
0.999999
0.999999
0.999999
0.999999
0.999998
0.999998
0.999998
0.999998
1
1
1
1
1
1
1
1
1
1
1
1
1
1
0.999999
1
0.999999
0.999999
0.999999
0.999999
0.999999
0.999999
0.999998
1
1
1
1
1
1
1
1
1
1
1
1
1
1
1
0.999999
0.999999
0.999999
0.999999
0.999999
0.999999
0.999998
0.999998
1
1
1
1
1
1
1
1
1
1
1
1
1
1
0.999999
1
0.999999
0.999999
0.999999
0.999999
0.999999
0.999999
0.999999
1
1
1
1
1
1
1
1
1
1
1
1
1
1
1
0.999999
0.999999
0.999999
0.999999
0.999999
0.999999
0.999999
0.999999
1
1
1
1
1
1
1
1
1
1
1
1
1
1
0.999999
1
0.999999
0.999999
0.999999
0.999999
0.999999
0.999999
0.999999
1
1
1
1
1
1
1
1
1
1
1
1
1
1
1
0.999999
0.999999
0.999999
0.999999
0.999999
0.999999
0.999999
0.999999
1
1
1
1
1
1
1
1
1
1
1
1
1
1
1
1
0.999999
0.999999
0.999999
0.999999
0.999999
1
0.999999
1
1
1
1
1
1
1
1
1
1
1
1
1
1
1
0.999999
1
0.999999
0.999999
0.999999
0.999999
0.999999
1
1
1
1
1
1
1
1
1
1
1
1
1
1
1
1
1
0.999999
0.999999
0.999999
0.999999
1
1
1
1
1
1
1
1
1
1
1
1
1
1
1
1
1
1
0.999999
1
0.999999
0.999999
0.999999
1
1
1
1
1
1
1
1
1
1
1
1
1
1
1
1
1
1
1
0.999999
0.999999
0.999999
0.999999
1
1
1
1
1
1
1
1
1
1
1
1
1
1
1
1
1
1
0.999999
0.999999
0.999999
0.999999
0.999999
1
1
1
1
1
1
1
1
1
1
1
1
1
1
1
1
1
0.999999
1
0.999999
0.999999
0.999999
0.999999
1
1
1
1
1
1
1
1
1
1
1
1
1
1
1
1
1
1
0.999999
0.999999
0.999999
0.999999
0.999999
0.999999
1
1
1
1
1
1
1
1
1
1
1
1
1
1
1
1
1
1
1
1
1
1
1
1
1
2.79851e-22
7.21003e-21
4.16574e-19
0.00147143
1.59133e-21
8.4975e-21
2.98866e-18
1.21717e-05
9.42958e-19
4.81693e-17
6.72613e-15
8.79702e-14
3.26115e-13
1.03377e-12
1.34403e-12
2.32317e-12
2.16416e-11
2.93626e-11
5.60314e-11
5.49064e-11
5.38298e-10
5.04948e-10
4.97555e-10
2.5995e-10
3.20071e-09
3.31122e-09
2.2439e-09
9.52681e-10
8.87342e-09
8.37751e-09
6.01444e-09
7.24592e-09
2.8084e-08
2.86328e-08
8.12865e-08
4.73392e-06
9.18878e-07
1.15106e-05
0.000187876
0.00388929
0.0010128
0.00574357
0.0392116
0.220569
0.0924383
0.241811
0.610594
0.944881
0.760103
0.968988
0.999154
0.999995
0.999984
0.99995
0.999986
1
1
1
1
1
1
1
1
1
1
1
1
1
1
1
1
1
1
1
1
1
1
1
1
1
1
1
1
1
1
1
1
1
1
1
1
1
1
0.999999
0.999999
0.999999
0.999998
0.999998
0.999998
0.999998
0.999998
0.999998
0.999997
0.999997
0.999997
0.999997
0.999997
0.999997
0.999998
0.999998
0.999997
0.999997
0.999998
0.999997
0.999997
0.999997
0.999999
0.999998
0.999997
0.999997
0.999998
0.999998
0.999998
0.999997
0.999999
0.999999
0.999998
0.999998
0.999999
0.999999
0.999999
0.999998
1
0.999999
0.999999
0.999999
0.999999
0.999999
0.999999
0.999999
1
1
0.999999
0.999999
0.999999
0.999999
0.999999
0.999999
1
1
0.999999
0.999999
0.999999
0.999999
1
0.999999
1
1
0.999999
0.999999
0.999999
0.999999
0.999999
0.999999
0.999999
1
0.999999
1
0.0189561
0.00336046
6.88111e-05
1.05202e-07
4.63602e-08
1.36307e-06
0.00057461
0.0622435
0.574074
0.959407
0.999607
1
1
1
1.00001
1.00001
1.00001
1.00001
1
1.93264e-06
2.73472e-08
4.68785e-11
1.72192e-09
8.16822e-08
4.12868e-05
0.0115128
0.307179
0.863994
0.996261
0.999995
1
1
1
1.00001
1.00001
1
1
1
3.97759e-13
7.02152e-13
7.16954e-12
9.90134e-09
4.94159e-06
0.0017628
0.13218
0.714022
0.983278
0.999923
1
1
1
1
1
1
1
1
1
3.12827e-12
4.83559e-12
1.79211e-09
1.23328e-06
0.000480562
0.0521259
0.556553
0.956925
0.99961
1
1
1
1
1
1
1
1
1
1
1.86033e-11
5.33175e-10
3.39535e-07
0.000184947
0.0242336
0.419966
0.917327
0.99846
0.999999
1
1
1
1
1
1
1
1
1
1
1.83653e-10
1.3288e-07
8.9316e-05
0.0132029
0.335783
0.893145
0.997904
0.999995
1
1
1
1
1
1
1
1
1
1
1
2.15023e-08
5.84911e-05
0.00986236
0.279049
0.866041
0.996831
0.999996
1
1
1
1
1
1
1
1
1
1
1
1
2.23219e-05
0.00889868
0.252044
0.855491
0.996711
0.999994
0.999999
1
1
1
1
1
1
1
1
1
1
1
1
0.0057074
0.243764
0.853872
0.996993
0.999995
0.999999
0.999999
1
1
1
1
1
1
1
1
1
1
1
1
0.202743
0.859624
0.997909
0.999996
0.999999
0.999999
0.999999
1
1
1
1
1
1
1
1
1
1
1
1
0.849265
0.998843
0.999998
0.999998
0.999998
0.999999
0.999999
1
1
1
1
1
1
1
1
1
1
1
1
0.998911
0.999999
0.999999
0.999998
0.999998
0.999999
1
1
1
1
1
1
1
1
1
1
1
1
1
0.999998
0.999999
0.999999
0.999998
0.999999
0.999999
1
1
1
1
1
1
1
1
1
1
1
1
1
1
0.999999
0.999999
0.999999
0.999999
1
1
1
1
1
1
1
1
1
1
1
1
1
1
1
1
0.999999
0.999999
0.999999
1
1
1
1
1
0.999999
1
1
1
1
1
1
1
1
1
1
1
1
1
0.999999
0.999999
0.999999
0.999999
0.999999
0.999999
0.999999
1
1
1
1
1
1
1
1
1
1
1
0.999999
0.999999
0.999999
0.999999
0.999998
0.999998
0.999998
0.999999
0.999999
0.999999
0.999999
1
1
1
1
1
1
1
1
1
0.999999
0.999999
0.999998
0.999998
0.999998
0.999998
0.999999
0.999999
0.999999
0.999999
0.999999
1
1
1
1
1
1
1
1
1
0.999999
0.999998
0.999998
0.999998
0.999999
0.999999
0.999999
0.999999
0.999999
0.999999
0.999999
0.999999
0.999999
1
1
1
1
1
1
0.999999
0.999999
0.999999
0.999999
0.999999
0.999999
0.999999
0.999999
0.999999
0.999999
0.999999
0.999999
0.999999
1
1
1
1
1
1
1
0.999999
0.999999
0.999999
0.999999
0.999999
1
1
1
0.999999
0.999999
0.999999
0.999999
1
1
1
1
1
1
1
1
0.999999
0.999999
1
1
1
1
1
1
0.999999
0.999999
0.999999
1
1
1
1
1
1
1
1
0.999999
0.999999
1
1
1
1
1
1
0.999999
0.999999
0.999999
0.999999
1
1
1
1
0.999999
0.999999
0.999999
0.999999
0.999999
1
1
1
1
1
1
0.999999
0.999999
1
0.999998
0.999998
0.999998
0.999999
0.999999
0.999999
0.999999
0.999999
0.999999
0.999999
0.999999
1
1
1
1
1
1
1
1
0.999997
0.999997
0.999997
0.999998
0.999998
0.999998
0.999999
0.999999
0.999999
0.999999
0.999999
1
1
1
1
1
1
1
1
0.999997
0.999997
0.999997
0.999997
0.999997
0.999998
0.999998
0.999999
0.999999
0.999999
0.999999
1
1
1
1
1
1
1
1
0.999997
0.999996
0.999996
0.999996
0.999997
0.999997
0.999998
0.999999
0.999999
0.999999
1
1
1
1
1
1
1
1
1
0.999997
0.999996
0.999996
0.999996
0.999997
0.999997
0.999998
0.999999
0.999999
0.999999
1
1
1
1
1
1
1
1
1
0.999997
0.999996
0.999996
0.999996
0.999997
0.999997
0.999998
0.999999
0.999999
0.999999
1
1
1
1
1
1
1
1
1
0.999997
0.999997
0.999996
0.999996
0.999997
0.999997
0.999998
0.999999
0.999999
0.999999
1
1
1
1
1
1
1
1
1
0.999998
0.999997
0.999997
0.999997
0.999997
0.999998
0.999998
0.999999
0.999999
0.999999
0.999999
0.999999
0.999999
1
1
1
1
1
1
0.999998
0.999997
0.999997
0.999997
0.999997
0.999998
0.999999
0.999999
0.999999
0.999999
0.999999
0.999999
0.999999
0.999999
0.999999
1
1
1
1
0.999998
0.999998
0.999997
0.999997
0.999998
0.999998
0.999999
0.999999
0.999999
0.999999
0.999999
0.999999
0.999999
0.999999
0.999999
1
1
1
1
0.999999
0.999998
0.999998
0.999998
0.999998
0.999999
0.999999
0.999999
0.999999
0.999999
0.999999
0.999999
0.999999
0.999999
0.999999
1
1
1
1
0.999999
0.999998
0.999998
0.999998
0.999999
0.999999
0.999999
0.999999
0.999999
0.999999
0.999999
0.999999
0.999999
0.999999
1
1
1
1
1
0.999999
0.999999
0.999999
0.999999
0.999999
0.999999
0.999999
0.999999
0.999999
0.999999
0.999999
0.999999
0.999999
1
1
1
1
1
1
0.999999
0.999999
0.999999
0.999999
0.999999
0.999999
0.999999
0.999999
0.999999
0.999999
0.999999
0.999999
1
1
1
1
1
1
1
0.999999
0.999999
0.999999
0.999999
0.999999
0.999999
0.999999
0.999999
0.999999
0.999999
0.999999
0.999999
1
1
1
1
1
1
1
1
0.999999
0.999999
0.999999
0.999999
0.999999
0.999999
0.999999
0.999999
0.999999
0.999999
0.999999
0.999999
1
1
1
1
1
1
1
0.999999
0.999999
0.999999
0.999999
0.999999
0.999999
0.999999
0.999999
0.999999
0.999999
0.999999
0.999999
0.999999
0.999999
1
1
1
1
1
1
1
1
1
1
0.999999
0.999999
0.999999
0.999999
0.999999
0.999999
0.999999
1
1
1
1
1
1
)
;

boundaryField
{
    leftWall
    {
        type            alphaContactAngle;
        thetaProperties 6 ( ( water mercury ) 90 0 0 0 ( water air ) 90 0 0 0 ( water oil ) 90 0 0 0 ( mercury air ) 90 0 0 0 ( oil mercury ) 90 0 0 0 ( oil air ) 90 0 0 0 );
        value           nonuniform List<scalar> 
50
(
1.39985e-28
1.58944e-26
8.78379e-25
3.14406e-23
8.17105e-22
1.63671e-20
2.61715e-19
3.41597e-18
3.69625e-17
6.10334e-16
7.89189e-15
8.24918e-14
6.53646e-13
3.07549e-12
4.62334e-11
9.73625e-10
3.96621e-09
1.36183e-08
4.4635e-08
1.83431e-07
2.03593e-06
0.00144189
0.100005
0.727719
0.998883
0.999998
0.999998
0.999998
0.999999
1
1
1
1
1
1
1
1
1
1
1
1
1
1
1
1
1
1
1
1
1
)
;
    }
    rightWall
    {
        type            alphaContactAngle;
        thetaProperties 6 ( ( water mercury ) 90 0 0 0 ( water air ) 90 0 0 0 ( water oil ) 90 0 0 0 ( mercury air ) 90 0 0 0 ( oil mercury ) 90 0 0 0 ( oil air ) 90 0 0 0 );
        value           nonuniform List<scalar> 
50
(
1
1.00001
1.00001
1.00001
1.00001
1.00001
1.00001
1.00001
1
1
1
1
1
1
1
1
1
1
1
1
1
1
1
1
1
1
0.999999
0.999999
0.999999
0.999999
0.999999
1
1
1
1
1
1
1
1
1
1
1
1
1
1
1
1
1
1
1
)
;
    }
    lowerWall
    {
        type            alphaContactAngle;
        thetaProperties 6 ( ( water mercury ) 90 0 0 0 ( water air ) 90 0 0 0 ( water oil ) 90 0 0 0 ( mercury air ) 90 0 0 0 ( oil mercury ) 90 0 0 0 ( oil air ) 90 0 0 0 );
        value           nonuniform List<scalar> 
62
(
1.39985e-28
8.28551e-29
1.29454e-28
2.68044e-28
8.09413e-28
4.38135e-27
2.49327e-26
2.5751e-25
1.38001e-24
5.31087e-23
1.04405e-22
6.70003e-22
4.81253e-21
1.03469e-20
1.08177e-20
7.37874e-21
3.70171e-21
1.48898e-21
5.01426e-22
1.44401e-22
3.94056e-23
1.00529e-23
2.07943e-24
2.07943e-24
2.65368e-23
1.14002e-22
2.4263e-22
2.42449e-22
1.62476e-22
9.1084e-23
1.01535e-22
2.79851e-22
7.21003e-21
4.16574e-19
0.00147143
1.00001
1.00001
1.00001
1.00001
1.00001
1.00001
1.00001
0.901202
1.00001
1.00001
1
0.999741
0.986146
0.852858
0.605099
0.528325
0.493804
0.562164
0.682323
0.672342
0.787539
0.936931
0.992385
0.999729
1
1
1
)
;
    }
    atmosphere
    {
        type            inletOutlet;
        inletValue      uniform 1;
        value           nonuniform List<scalar> 
46
(
1
1
1
1
1
1
1
1
1
1
1
1
1
1
1
1
1
1
1
1
1
1
1
0.999999
1
0.999999
1
1
1
1
1
1
1
0.999999
0.999999
0.999999
0.999999
0.999999
0.999999
0.999999
1
1
1
1
1
1
)
;
    }
    defaultFaces
    {
        type            empty;
    }
}


// ************************************************************************* //
