/*--------------------------------*- C++ -*----------------------------------*\
| =========                 |                                                 |
| \\      /  F ield         | OpenFOAM: The Open Source CFD Toolbox           |
|  \\    /   O peration     | Version:  2.4.0                                 |
|   \\  /    A nd           | Web:      www.OpenFOAM.org                      |
|    \\/     M anipulation  |                                                 |
\*---------------------------------------------------------------------------*/
FoamFile
{
    version     2.0;
    format      ascii;
    class       volScalarField;
    location    "0.15";
    object      alpha.oil;
}
// * * * * * * * * * * * * * * * * * * * * * * * * * * * * * * * * * * * * * //

dimensions      [0 0 0 0 0 0 0];

internalField   nonuniform List<scalar> 
2268
(
1.97419e-50
1.10104e-47
4.00836e-45
1.30183e-42
3.44452e-40
1.19142e-37
2.86418e-35
7.13926e-33
2.2371e-23
1.59581e-16
1.4066e-13
1.26468e-10
2.93537e-07
2.29241e-06
8.51373e-06
2.11478e-05
4.42932e-05
9.19454e-05
0.00021762
0.000675382
0.0032861
0.0382203
0.0862084
4.75656e-48
2.48915e-45
8.35257e-43
2.44973e-40
5.74999e-38
1.7075e-35
3.50123e-33
6.69294e-31
2.50841e-21
2.02794e-15
4.72436e-12
7.41237e-09
1.4443e-06
9.17858e-06
2.90619e-05
6.23759e-05
0.000114716
0.000240237
0.000613426
0.00225809
0.0143108
0.135868
0.152008
5.60243e-46
2.74929e-43
8.50199e-41
2.25139e-38
4.69248e-36
1.19478e-33
2.09472e-31
3.08564e-29
1.24104e-19
1.21164e-14
6.76152e-11
4.44611e-08
4.15075e-06
2.50686e-05
7.77068e-05
0.000266353
0.000934529
0.00324528
0.0105114
0.0408865
0.21544
0.58659
0.40244
4.30589e-44
1.97992e-41
5.64043e-39
1.34843e-36
2.49791e-34
5.44792e-32
8.17936e-30
9.32947e-28
3.59474e-18
5.85463e-14
5.11041e-10
1.6618e-07
1.30304e-05
0.000138613
0.0009596
0.005746
0.0259933
0.0869882
0.247515
0.55674
0.859439
0.960806
0.773933
2.43207e-42
1.04664e-39
2.74496e-37
5.92412e-35
9.75983e-33
1.82326e-30
2.34624e-28
2.07698e-26
6.87496e-17
5.1691e-13
2.08382e-09
2.40943e-06
0.000196972
0.00321857
0.0225617
0.102072
0.308227
0.631701
0.90303
0.991537
0.998127
0.99942
0.961739
1.07818e-40
4.33521e-38
1.04558e-35
2.03694e-33
2.98594e-31
4.77813e-29
5.27623e-27
3.6296e-25
9.20616e-16
6.76415e-12
2.48978e-08
2.97343e-05
0.00225511
0.0311871
0.17097
0.505725
0.844556
0.974176
0.998047
0.999959
0.999996
0.999998
0.99754
3.91388e-39
1.46685e-36
3.24818e-34
5.7105e-32
7.45026e-30
1.02086e-27
9.69918e-26
5.17875e-24
8.93122e-15
7.27993e-11
7.47188e-07
0.000137337
0.0102778
0.103337
0.407002
0.751387
0.92579
0.989871
0.99962
0.999997
0.999999
0.999999
0.99995
1.19912e-37
4.17529e-35
8.46954e-33
1.34286e-30
1.55868e-28
1.82715e-26
1.50012e-24
6.20317e-23
6.33586e-14
5.61414e-10
4.43201e-06
0.000385062
0.0195288
0.143026
0.447422
0.769855
0.962656
0.998611
0.999989
0.999999
0.999999
0.999999
0.999998
1.60496e-06
8.14072e-06
1.28289e-05
0.000270423
0.0138637
0.147151
0.394909
0.471683
0.506203
0.437844
0.317684
0.327664
0.212467
0.0630754
0.00762177
0.000278524
7.46083e-06
2.31844e-06
2.08101e-07
2.59819e-06
9.28207e-06
1.33248e-05
0.000898957
0.0608822
0.58125
0.913129
0.939809
0.939032
0.908321
0.856241
0.333672
0.0236312
0.000987074
0.000397245
5.17949e-05
7.41369e-06
1.58218e-06
1.17354e-07
4.5488e-06
1.44769e-05
2.16156e-05
0.00545111
0.310989
0.909594
0.997928
0.999295
0.998382
0.958995
0.423225
0.034513
0.000372553
7.23702e-06
7.69128e-06
7.86677e-06
4.2917e-06
8.22524e-07
5.88884e-08
5.17799e-06
1.43898e-05
0.000108741
0.0508353
0.622374
0.976698
0.999804
0.999805
0.993284
0.695442
0.0993794
0.0018713
8.02887e-06
7.05153e-06
7.49178e-06
6.40402e-06
2.52241e-06
4.36723e-07
2.91403e-08
6.06762e-06
1.41512e-05
0.00359901
0.237255
0.847277
0.995509
0.999961
0.999549
0.957166
0.411856
0.0333231
0.000366824
6.50473e-06
7.0251e-06
6.98042e-06
4.67347e-06
1.4875e-06
2.27723e-07
1.38479e-08
7.4661e-06
3.44153e-05
0.0645516
0.60115
0.967069
0.999627
0.999984
0.999033
0.8931
0.309484
0.019893
0.000154998
6.57353e-06
6.92929e-06
6.03302e-06
3.14872e-06
8.36106e-07
1.12679e-07
6.18837e-09
9.59209e-06
0.0323064
0.405945
0.911304
0.997997
0.999989
0.999992
0.997997
0.82246
0.218577
0.00910563
3.5402e-05
6.70959e-06
6.48712e-06
4.69401e-06
1.94316e-06
4.3827e-07
5.21143e-08
2.57997e-09
0.098811
0.411285
0.876372
0.994404
0.999952
0.999997
0.999997
0.994526
0.684468
0.119076
0.00264959
8.16847e-06
6.41614e-06
5.51996e-06
3.22941e-06
1.09038e-06
2.12282e-07
2.23997e-08
1.00235e-09
3.1743e-36
1.02254e-33
1.89402e-31
2.70473e-29
2.78915e-27
2.79316e-25
1.99361e-23
6.36266e-22
3.23863e-13
1.17627e-08
1.06919e-05
0.000687547
0.0197402
0.148564
0.433095
0.814851
0.984753
0.999856
0.999999
0.999999
0.999999
0.999999
0.999999
1.3904e-34
4.10885e-32
6.8869e-30
8.81386e-28
8.04761e-26
6.84719e-24
4.25613e-22
1.03356e-20
2.17765e-12
3.19005e-08
1.22149e-05
0.000499352
0.015923
0.0924654
0.379836
0.817207
0.987538
0.999908
1
1
0.999999
0.999999
0.999999
5.05481e-33
1.35865e-30
2.04367e-28
2.33793e-26
1.89365e-24
1.35782e-22
7.39647e-21
1.39958e-19
6.27134e-12
9.39462e-09
1.36351e-06
0.000136185
0.00574976
0.0638018
0.320621
0.753338
0.973118
0.999526
0.999999
1
1
1
1
1.57887e-31
3.81284e-29
5.1404e-27
5.19461e-25
3.78657e-23
2.2462e-21
1.04715e-19
1.49439e-18
8.91169e-18
3.92046e-11
5.95168e-07
0.000134569
0.00515361
0.0620116
0.309202
0.730669
0.964884
0.99908
0.999997
1
1
1
1
4.09221e-30
8.81531e-28
1.06003e-25
9.22799e-24
6.00731e-22
2.95564e-20
1.18049e-18
1.29933e-17
6.41662e-17
8.25934e-14
7.72396e-07
0.000168153
0.00814654
0.0838589
0.358297
0.765568
0.971328
0.999261
0.999997
1
1
1
1
8.33586e-29
1.63477e-26
1.768e-24
1.34728e-22
7.70949e-21
3.22288e-19
1.11304e-17
9.69058e-17
4.03728e-16
1.29377e-15
7.02492e-07
0.000227215
0.0138583
0.125129
0.459004
0.845206
0.986663
0.999771
0.999999
1
1
1
1
1.44801e-27
2.56664e-25
2.47079e-23
1.65937e-21
8.28919e-20
2.9711e-18
8.89734e-17
6.18182e-16
2.18771e-15
6.4124e-15
6.10547e-07
0.000277294
0.0224042
0.180663
0.572931
0.911519
0.995189
0.999953
1
1
1
1
1
2.19308e-26
3.51494e-24
3.01395e-22
1.78585e-20
7.77116e-19
2.38311e-17
6.13202e-16
3.39923e-15
1.03059e-14
2.89959e-14
4.71796e-07
0.000330329
0.0382164
0.26734
0.705555
0.961514
0.99888
0.999995
1
1
1
1
1
2.97153e-25
4.31144e-23
3.29217e-21
1.71534e-19
6.47874e-18
1.68526e-16
3.66557e-15
1.61803e-14
4.23129e-14
1.23173e-13
3.42482e-07
0.000377684
0.0645717
0.384402
0.827519
0.987396
0.999822
0.999999
1
1
1
1
1
3.66775e-24
4.82578e-22
3.28503e-20
1.5031e-18
4.91522e-17
1.07033e-15
1.90683e-14
6.66951e-14
1.51104e-13
5.18231e-13
2.45283e-07
0.000419825
0.110596
0.536855
0.921839
0.997226
0.999983
1
1
1
1
1
1
4.18712e-23
5.0072e-21
3.04732e-19
1.22547e-17
3.45473e-16
6.20015e-15
8.60742e-14
2.3725e-13
4.64691e-13
2.31497e-12
2.15441e-07
0.000519057
0.19704
0.713745
0.975646
0.999616
0.999999
1
1
1
1
1
0.999928
4.47618e-22
4.88015e-20
2.66886e-18
9.45772e-17
2.28796e-15
3.32915e-14
3.35267e-13
7.33483e-13
1.21662e-12
3.15263e-11
1.3287e-06
0.00310088
0.368212
0.87591
0.995627
0.999969
1
1
1
0.999999
0.999978
0.999401
0.984538
4.52198e-21
4.5161e-19
2.23569e-17
6.98933e-16
1.44354e-14
1.67713e-13
1.10491e-12
2.23646e-12
3.41144e-12
2.58577e-08
8.13575e-05
0.038895
0.645573
0.970285
0.999477
0.999996
0.999997
0.999984
0.999882
0.999084
0.991949
0.939098
0.65598
4.32974e-20
3.99008e-18
1.80401e-16
4.95163e-15
8.76782e-14
8.1389e-13
2.95172e-12
1.15681e-11
1.52231e-09
1.65735e-06
0.00112259
0.141838
0.86351
0.994395
0.999286
0.999055
0.997827
0.993368
0.976256
0.919494
0.737578
0.359026
0.0281419
3.92898e-19
3.36458e-17
1.39401e-15
3.33017e-14
5.24041e-13
4.43905e-12
8.38578e-11
1.2895e-09
9.76721e-08
1.62406e-05
0.00384246
0.206262
0.862685
0.941069
0.935548
0.915317
0.865547
0.759504
0.559289
0.292508
0.061072
0.00170517
2.61349e-06
3.39453e-18
2.70383e-16
1.01737e-14
2.13285e-13
3.09433e-12
7.41084e-11
1.08291e-09
1.47845e-08
5.37429e-07
5.11746e-05
0.00279102
0.0457669
0.247752
0.373359
0.354215
0.286389
0.182127
0.074204
0.0119543
0.000505103
4.14285e-06
1.00229e-06
7.79414e-07
2.8123e-17
2.06278e-15
6.92222e-14
1.32298e-12
1.51551e-11
2.24837e-10
2.69312e-09
3.85386e-08
7.69732e-07
1.25208e-05
0.000129761
0.000363764
0.000919111
0.00285014
0.00217919
0.000767745
0.000118369
8.81941e-06
1.72545e-06
1.88548e-06
1.32014e-06
4.64601e-07
3.63811e-07
7.79303e-17
5.08694e-15
1.62517e-13
3.12666e-12
3.55668e-11
3.98727e-10
5.56126e-09
8.94096e-08
5.30383e-07
1.54248e-06
9.31061e-07
2.7915e-07
2.08239e-07
3.09903e-07
2.7928e-07
6.05272e-07
6.46852e-07
7.20416e-07
1.02379e-06
1.32919e-06
9.85859e-07
3.59962e-07
1.98624e-07
1.52639e-18
1.48538e-16
8.02979e-15
2.90847e-13
7.67243e-12
1.44179e-10
1.80517e-09
1.33582e-08
4.48004e-08
3.54809e-08
1.27356e-08
2.27902e-09
3.18135e-09
1.19148e-08
3.52884e-08
2.60108e-08
1.21299e-07
3.96449e-07
8.74956e-07
1.21224e-06
1.01917e-06
5.60147e-07
2.13107e-07
1.06277e-18
1.46056e-16
9.05748e-15
3.06536e-13
5.84089e-12
5.66775e-11
3.06368e-10
6.43477e-10
6.83648e-10
4.28938e-10
9.82063e-11
1.57228e-11
5.42509e-11
4.57404e-10
3.49817e-09
2.63558e-08
1.02267e-07
4.19467e-07
8.88854e-07
1.29281e-06
1.29624e-06
8.54535e-07
3.14963e-07
1.88465e-28
3.29944e-26
2.74518e-24
1.44708e-22
5.51259e-21
1.64236e-19
4.03652e-18
8.43828e-17
1.51342e-15
2.34598e-14
3.44838e-13
4.0056e-12
3.75124e-11
2.90262e-10
1.82642e-09
8.91696e-09
4.93491e-08
1.60474e-07
4.4905e-07
8.48203e-07
9.36504e-07
7.24819e-07
2.94652e-07
2.86086e-29
5.10405e-27
4.41154e-25
2.49316e-23
1.05444e-21
3.58496e-20
1.00481e-18
2.30359e-17
4.23464e-16
6.14576e-15
6.9861e-14
6.19774e-13
4.36702e-12
2.63208e-11
1.49891e-10
8.44622e-10
4.36732e-09
5.81148e-08
1.5678e-07
2.24526e-07
2.63595e-07
2.4755e-07
1.38699e-07
2.34311e-30
4.47798e-28
4.0193e-26
2.24082e-24
8.66596e-23
2.46614e-21
5.36253e-20
9.17536e-19
1.2686e-17
1.45254e-16
1.40136e-15
1.14065e-14
7.72347e-14
4.22967e-13
1.75668e-12
4.62549e-12
6.00541e-11
1.73966e-09
1.26087e-08
3.01242e-08
4.77561e-08
4.95767e-08
2.86834e-08
4.75795e-31
9.12249e-29
8.20293e-27
4.5937e-25
1.79092e-23
5.15332e-22
1.13331e-20
1.94975e-19
2.66895e-18
2.94459e-17
2.64423e-16
1.95404e-15
1.2109e-14
6.44761e-14
2.98849e-13
1.15013e-12
3.18118e-12
7.84534e-11
1.41539e-09
4.33897e-09
6.73101e-09
7.57526e-09
3.05095e-09
1.48536e-32
3.12591e-30
3.10455e-28
1.93309e-26
8.44648e-25
2.7475e-23
6.89551e-22
1.36766e-20
2.18138e-19
2.83641e-18
3.0429e-17
2.72466e-16
2.05833e-15
1.32382e-14
7.31639e-14
3.52127e-13
1.46529e-12
4.6387e-12
2.90007e-11
2.07197e-10
4.6875e-10
5.69935e-10
4.65658e-10
2.48547e-34
5.9322e-32
6.71345e-30
4.79767e-28
2.42595e-26
9.21893e-25
2.73151e-23
6.46768e-22
1.24544e-20
1.97548e-19
2.60596e-18
2.88045e-17
2.6828e-16
2.11402e-15
1.41324e-14
8.01133e-14
3.83918e-13
1.54404e-12
5.13994e-12
1.39698e-11
2.97735e-11
4.65366e-11
4.50559e-11
1.23926e-36
3.17682e-34
3.87124e-32
2.98563e-30
1.63388e-28
6.74132e-27
2.17631e-25
5.63497e-24
1.19095e-22
2.0819e-21
3.04171e-20
3.74525e-19
3.91049e-18
3.47562e-17
2.63382e-16
1.70133e-15
9.34268e-15
4.33669e-14
1.68489e-13
5.39083e-13
1.37943e-12
2.66975e-12
3.47369e-12
3.69758e-39
1.02878e-36
1.36211e-34
1.14401e-32
6.83761e-31
3.09212e-29
1.09859e-27
3.14483e-26
7.38498e-25
1.4418e-23
2.36451e-22
3.28324e-21
3.88324e-20
3.92886e-19
3.40863e-18
2.5369e-17
1.61675e-16
8.78153e-16
4.0312e-15
1.54218e-14
4.80166e-14
1.16625e-13
2.02814e-13
7.46782e-42
2.27153e-39
3.29453e-37
3.03811e-35
1.99934e-33
9.98784e-32
3.93452e-30
1.2539e-28
3.29241e-27
7.22048e-26
1.33643e-24
2.10444e-23
2.83636e-22
3.28603e-21
3.28099e-20
2.82601e-19
2.09773e-18
1.33753e-17
7.27889e-17
3.34417e-16
1.27301e-15
3.8828e-15
8.88136e-15
1.05253e-44
3.53437e-42
5.6666e-40
5.78816e-38
4.22961e-36
2.3529e-34
1.03549e-32
3.69984e-31
1.09334e-29
2.70929e-28
5.68937e-27
1.02074e-25
1.57441e-24
2.09734e-23
2.42046e-22
2.42371e-21
2.10557e-20
1.58365e-19
1.02633e-18
5.68172e-18
2.64572e-17
1.00783e-16
2.97606e-16
1.05097e-47
3.93053e-45
7.02827e-43
8.02118e-41
6.56312e-39
4.09849e-37
2.03056e-35
8.19349e-34
2.74367e-32
7.732e-31
1.85358e-29
3.81169e-28
6.76754e-27
1.04254e-25
1.39844e-24
1.63692e-23
1.67316e-22
1.49167e-21
1.15575e-20
7.72519e-20
4.39517e-19
2.0778e-18
7.80771e-18
7.41105e-51
3.11756e-48
6.27782e-46
8.08159e-44
7.47321e-42
5.28612e-40
2.9741e-38
1.36667e-36
5.22785e-35
1.6886e-33
4.65638e-32
1.10568e-30
2.2763e-29
4.08459e-28
6.41363e-27
8.83558e-26
1.06915e-24
1.13562e-23
1.05554e-22
8.52903e-22
5.91994e-21
3.45731e-20
1.63877e-19
3.64071e-54
1.74136e-51
3.99171e-49
5.85838e-47
6.18723e-45
5.0089e-43
3.23305e-41
1.70895e-39
7.54188e-38
2.81944e-36
9.02952e-35
2.49941e-33
6.022e-32
1.26992e-30
2.35369e-29
3.84483e-28
5.54286e-27
7.04894e-26
7.88621e-25
7.71687e-24
6.53686e-23
4.71165e-22
2.80848e-21
1.2123e-57
6.67788e-55
1.76505e-52
2.99132e-50
3.65446e-48
3.42909e-46
2.57127e-44
1.58293e-42
8.15837e-41
3.57239e-39
1.34425e-37
4.38609e-36
1.24982e-34
3.12771e-33
6.90304e-32
1.34754e-30
2.33007e-29
3.56823e-28
4.82897e-27
5.74771e-26
5.96617e-25
5.32631e-24
4.00025e-23
2.6155e-61
1.68575e-58
5.21971e-56
1.03776e-53
1.48964e-51
1.64529e-49
1.45506e-47
1.05878e-45
6.4648e-44
3.36175e-42
1.50599e-40
5.86489e-39
1.99988e-37
6.00502e-36
1.59467e-34
3.75665e-33
7.86435e-32
1.46347e-30
2.41729e-29
3.53095e-28
4.53055e-27
5.05072e-26
4.81045e-25
3.39464e-65
2.61242e-62
9.66535e-60
2.29843e-57
3.95083e-55
5.23242e-53
5.55711e-51
4.86408e-49
3.57891e-47
2.24687e-45
1.21763e-43
5.74827e-42
2.38135e-40
8.70762e-39
2.82311e-37
8.14234e-36
2.0935e-34
4.80217e-33
9.8199e-32
1.7853e-30
2.8708e-29
4.0487e-28
4.9453e-27
2.33294e-69
2.20329e-66
9.99167e-64
2.91324e-61
6.14361e-59
9.99075e-57
1.3043e-54
1.40513e-52
1.27432e-50
9.87675e-49
6.61923e-47
3.87171e-45
1.99134e-43
9.06026e-42
3.66393e-40
1.32167e-38
4.26315e-37
1.23114e-35
3.18269e-34
7.35205e-33
1.51177e-31
2.74962e-30
4.38321e-29
6.76667e-74
8.16149e-71
4.70228e-68
1.74052e-65
4.6603e-63
9.62766e-61
1.59815e-58
2.1916e-56
2.53324e-54
2.5059e-52
2.14664e-50
1.60753e-48
1.06041e-46
6.19987e-45
3.22882e-43
1.50362e-41
6.27892e-40
2.35514e-38
7.93829e-37
2.40203e-35
6.50743e-34
1.57112e-32
3.35847e-31
5.34095e-79
8.78861e-76
6.7878e-73
3.35926e-70
1.20346e-67
3.33201e-65
7.42606e-63
1.36961e-60
2.13247e-58
2.84531e-56
3.29163e-54
3.33253e-52
2.97511e-50
2.35663e-48
1.66477e-46
1.05314e-44
5.98522e-43
3.06276e-41
1.41277e-39
5.87296e-38
2.19662e-36
7.36872e-35
2.20661e-33
4.39558e-85
1.09515e-81
1.22491e-78
8.71868e-76
4.51246e-73
1.82024e-70
5.95887e-68
1.62613e-65
3.77044e-63
7.53414e-61
1.31141e-58
2.00476e-56
2.70855e-54
3.24974e-52
3.4752e-50
3.3216e-48
2.84385e-46
2.18516e-44
1.50962e-42
9.39352e-41
5.26914e-39
2.6621e-37
1.208e-35
4.05564e-92
1.78096e-88
3.22996e-85
3.57622e-82
2.79265e-79
1.66213e-76
7.93031e-74
3.14084e-71
1.05942e-68
3.10433e-66
8.0288e-64
1.85688e-61
3.88194e-59
7.40061e-57
1.29553e-54
2.09262e-52
3.126e-50
4.31454e-48
5.4749e-46
6.3281e-44
6.58391e-42
6.0931e-40
4.97552e-38
5.97132e-98
3.26106e-94
6.68313e-91
8.3953e-88
7.56962e-85
5.29024e-82
3.00364e-79
1.43136e-76
5.86696e-74
2.10926e-71
6.76106e-69
1.96014e-66
5.20732e-64
1.28326e-61
2.96846e-59
6.52186e-57
1.37747e-54
2.83276e-52
5.75133e-50
1.1704e-47
2.42423e-45
5.16557e-43
1.12048e-40
0.999999
0.999999
0.999998
0.998527
0.999999
0.999999
0.999999
0.999987
1
1
1
1
1
1
1
1
1
1
1
1
1
1
1
1
1
1
1
1
1
1
1
1
1
1
1
0.999995
0.999999
0.999989
0.999812
0.996111
0.998987
0.994257
0.960789
0.779431
0.907562
0.75819
0.389407
0.0551194
0.239898
0.0310124
0.000846636
4.98961e-06
1.6709e-05
5.11592e-05
1.49086e-05
6.10383e-07
1.09157e-06
7.35907e-07
4.73588e-07
2.36827e-07
7.51517e-07
5.41284e-07
3.34897e-07
1.84299e-07
4.33957e-07
3.10695e-07
1.87031e-07
1.08276e-07
1.93144e-07
1.35381e-07
8.19128e-08
4.94417e-08
6.86153e-08
4.59814e-08
2.93356e-08
1.86078e-08
2.76138e-08
1.3464e-08
8.81508e-09
5.71004e-09
1.78241e-08
3.99349e-09
2.14265e-09
1.47349e-09
1.14491e-08
1.71243e-09
4.50363e-10
3.36905e-10
1.53272e-09
2.94834e-10
7.85361e-11
6.34952e-11
1.9125e-10
6.52504e-11
1.13637e-11
9.54999e-12
6.3465e-11
1.20169e-11
1.35536e-12
1.13564e-12
1.43428e-11
2.55828e-12
1.37793e-13
1.07949e-13
2.11318e-12
4.74243e-13
1.30937e-14
8.30068e-15
2.00143e-13
5.96712e-14
1.22209e-15
5.22806e-16
1.29494e-14
5.0825e-15
1.05565e-16
2.73056e-17
6.04694e-16
3.08815e-16
7.73788e-18
1.19676e-18
2.13489e-17
1.40574e-17
4.61245e-19
4.45171e-20
5.90891e-19
4.98534e-19
2.22382e-20
1.42089e-21
1.32094e-20
1.42174e-20
8.76968e-22
3.93278e-23
2.44429e-22
3.34705e-22
2.8761e-23
9.53651e-25
3.8238e-24
6.65516e-24
7.98557e-25
2.04595e-26
5.14918e-26
1.14067e-25
1.91038e-26
3.9201e-28
6.06093e-28
1.71716e-27
4.00533e-28
6.76779e-30
6.3147e-30
2.31046e-29
7.48223e-30
1.06146e-31
5.87377e-32
2.82483e-31
1.2658e-31
1.52339e-33
4.89448e-34
3.18863e-33
1.9713e-33
2.0123e-35
3.60733e-36
3.37201e-35
2.87364e-35
2.45564e-37
2.30019e-38
3.43296e-37
4.02126e-37
2.75076e-39
0.981043
0.996638
0.99993
0.999999
0.999999
0.999998
0.999425
0.937756
0.425926
0.0405941
0.000396952
6.19261e-06
4.38501e-06
3.04995e-06
1.32121e-06
3.47361e-07
5.58559e-08
5.03795e-09
1.97682e-10
0.999997
0.999999
0.999999
0.999999
0.999999
0.999958
0.988487
0.692821
0.136007
0.00374076
9.70305e-06
3.75544e-06
2.45839e-06
1.32257e-06
4.4218e-07
9.42127e-08
1.28013e-08
1.00108e-09
3.46815e-11
1
1
1
1
0.999995
0.998237
0.86782
0.285979
0.0167229
7.9546e-05
4.54043e-06
2.07157e-06
1.14938e-06
4.75909e-07
1.27931e-07
2.27327e-08
2.63487e-09
1.80599e-10
5.557e-12
1
1
1
0.999998
0.999519
0.947874
0.443448
0.0430752
0.000390763
2.48485e-06
2.42722e-06
1.04193e-06
4.60216e-07
1.49796e-07
3.32498e-08
5.02715e-09
5.0143e-10
3.00769e-11
8.24351e-13
1
1
0.999999
0.999815
0.975767
0.580035
0.0826736
0.00154021
1.75716e-06
1.85479e-06
1.18216e-06
4.58197e-07
1.615e-07
4.25024e-08
7.93687e-09
1.03359e-09
9.01403e-11
4.79796e-12
1.1747e-13
1
1
0.999911
0.986797
0.664218
0.106857
0.0020968
4.74722e-06
7.83114e-07
1.04199e-06
5.13841e-07
1.74875e-07
5.04281e-08
1.10208e-08
1.75722e-09
1.99259e-10
1.53592e-11
7.31752e-13
1.61264e-14
1
0.999941
0.990138
0.720952
0.133961
0.00317034
4.14076e-06
1.59786e-07
4.77113e-07
4.77121e-07
1.95591e-07
5.82374e-08
1.41157e-08
2.62134e-09
3.62041e-10
3.61188e-11
2.48318e-12
1.06698e-13
2.13086e-15
0.999978
0.991101
0.747956
0.14451
0.00328995
5.78545e-06
1.69299e-07
5.41482e-08
2.42045e-07
1.83735e-07
6.5041e-08
1.70355e-08
3.55417e-09
5.72148e-10
6.93728e-11
6.15463e-12
3.80541e-13
1.48493e-14
2.70191e-16
0.994293
0.756236
0.146129
0.00300772
4.44127e-06
2.21522e-07
5.59395e-08
1.68775e-08
9.97655e-08
6.06075e-08
1.89513e-08
4.40813e-09
8.06894e-10
1.14479e-10
1.23451e-11
9.8374e-13
5.51483e-14
1.96696e-15
3.27633e-17
0.797257
0.140376
0.00209134
3.21631e-06
3.16494e-07
7.88776e-08
1.83826e-08
1.00908e-08
3.42636e-08
1.73437e-08
4.86247e-09
1.01509e-09
1.65548e-10
2.09901e-11
2.0366e-12
1.47135e-13
7.53623e-15
2.47198e-16
3.78669e-18
0.150736
0.00115707
1.9313e-06
5.1029e-07
1.18017e-07
4.2126e-08
2.4553e-09
3.97659e-09
9.99897e-09
4.34505e-09
1.10499e-09
2.09042e-10
3.07668e-11
3.52764e-12
3.11062e-13
2.05493e-14
9.6834e-16
2.93852e-17
4.15751e-19
0.00108919
1.16757e-06
2.41036e-07
1.73699e-07
6.82151e-08
5.52083e-09
2.33593e-10
1.20798e-09
2.51282e-09
9.60253e-10
2.2353e-10
3.86727e-11
5.19149e-12
5.43713e-13
4.3951e-14
2.67529e-15
1.16721e-16
3.2945e-18
4.32278e-20
1.95199e-06
6.8948e-07
9.12959e-08
4.12259e-08
9.02539e-09
1.51953e-10
4.44779e-11
3.00329e-10
5.49625e-10
1.88301e-10
4.04538e-11
6.45208e-12
7.97132e-13
7.69091e-14
5.74364e-15
3.24271e-16
1.31738e-17
3.47554e-19
4.24446e-21
2.12281e-07
2.70843e-07
4.69189e-08
1.85005e-09
1.74763e-10
5.08335e-12
1.4783e-11
6.316e-11
1.05566e-10
3.29378e-11
6.57704e-12
9.74133e-13
1.11614e-13
9.9945e-15
6.9424e-16
3.65667e-17
1.39036e-18
3.44317e-20
3.92714e-22
8.94241e-08
5.46021e-08
5.48052e-09
2.26314e-11
7.77315e-12
2.94175e-12
3.75378e-12
1.15208e-11
1.79451e-11
5.16293e-12
9.64291e-13
1.33486e-13
1.4281e-14
1.19445e-15
7.76351e-17
3.83469e-18
1.37085e-19
3.19935e-21
3.41746e-23
1.06277e-07
7.26891e-09
1.74059e-10
2.03909e-11
7.04702e-12
1.63406e-12
8.96204e-13
1.87062e-12
2.71875e-12
7.28285e-13
1.27931e-13
1.66473e-14
1.67276e-15
1.31434e-16
8.03531e-18
3.73932e-19
1.26192e-20
2.78501e-22
2.79367e-24
6.75676e-08
5.52263e-09
1.1345e-10
1.99775e-11
5.07933e-12
8.21434e-13
2.26822e-13
2.79331e-13
3.69577e-13
9.28138e-14
1.54066e-14
1.89413e-15
1.79693e-16
1.33308e-17
7.70185e-19
3.39092e-20
1.08428e-21
2.27005e-23
2.14285e-25
3.21037e-08
3.06906e-09
8.74911e-11
1.3986e-11
2.80988e-12
3.5452e-13
6.13154e-14
4.00173e-14
4.5397e-14
1.07296e-14
1.68951e-15
1.97104e-16
1.77351e-17
1.24784e-18
6.84123e-20
2.86034e-21
8.69442e-23
1.73156e-24
1.54168e-26
1.22737e-08
1.39467e-09
5.3939e-11
7.35881e-12
1.2194e-12
1.28683e-13
1.64829e-14
5.75392e-15
5.08445e-15
1.13043e-15
1.69262e-16
1.88053e-17
1.6112e-18
1.07943e-19
5.63641e-21
2.24553e-22
6.50768e-24
1.23619e-25
1.03978e-27
3.88795e-09
5.22751e-10
2.58584e-11
2.9905e-12
4.2493e-13
3.91885e-14
4.11601e-15
8.53382e-16
5.25961e-16
1.092e-16
1.55527e-17
1.64966e-18
1.35022e-19
8.64251e-21
4.31215e-22
1.64193e-23
4.54904e-25
8.26025e-27
6.57453e-29
1.06402e-09
1.61428e-10
9.4374e-12
9.64165e-13
1.2066e-13
1.00592e-14
9.19717e-16
1.29515e-16
5.12051e-17
9.75571e-18
1.31738e-18
1.33522e-19
1.04643e-20
6.417e-22
3.0678e-23
1.11932e-24
2.97151e-26
5.16751e-28
3.90004e-30
2.53853e-10
4.0045e-11
2.61444e-12
2.52056e-13
2.81788e-14
2.19145e-15
1.80931e-16
1.9432e-17
4.8091e-18
8.15954e-19
1.03582e-19
1.00169e-20
7.52459e-22
4.42922e-23
2.03334e-24
7.12436e-26
1.81585e-27
3.02987e-29
2.17125e-31
5.0799e-11
7.96147e-12
5.69016e-13
5.37324e-14
5.47686e-15
4.07471e-16
3.11624e-17
2.77553e-18
4.46882e-19
6.4946e-20
7.63211e-21
7.00742e-22
5.04145e-23
2.85096e-24
1.25864e-25
4.24201e-27
1.03975e-28
1.66715e-30
1.13532e-32
8.03583e-12
1.27468e-12
1.0043e-13
9.39143e-15
8.9743e-16
6.4978e-17
4.69658e-18
3.67119e-19
4.16884e-20
5.0125e-21
5.33454e-22
4.6075e-23
3.16448e-24
1.71817e-25
7.29868e-27
2.3686e-28
5.58952e-30
8.62156e-32
5.5838e-34
9.95948e-13
1.67102e-13
1.45629e-14
1.36172e-15
1.25234e-16
8.93584e-18
6.20535e-19
4.42349e-20
3.88486e-21
3.81151e-22
3.58695e-23
2.87539e-24
1.87369e-25
9.74385e-27
3.98016e-28
1.24399e-29
2.82792e-31
4.1988e-33
2.58784e-35
9.87102e-14
1.81375e-14
1.75005e-15
1.65929e-16
1.49981e-17
1.06605e-18
7.20916e-20
4.81445e-21
3.54216e-22
2.87391e-23
2.35054e-24
1.72174e-25
1.05498e-26
5.23113e-28
2.05056e-29
6.16775e-31
1.35049e-32
1.93047e-34
1.13258e-36
7.9892e-15
1.64488e-15
1.76072e-16
1.71874e-17
1.55213e-18
1.10977e-19
7.39106e-21
4.71629e-22
3.08327e-23
2.13577e-24
1.51302e-25
9.99258e-27
5.69733e-28
2.67663e-29
1.00336e-30
2.89901e-32
6.10845e-34
8.403e-36
4.69237e-38
5.36317e-16
1.25771e-16
1.49929e-17
1.52839e-18
1.39751e-19
1.01391e-20
6.714e-22
4.15567e-23
2.51249e-24
1.54144e-25
9.56563e-27
5.65992e-28
2.97428e-29
1.31427e-30
4.68919e-32
1.29772e-33
2.62684e-35
3.47392e-37
1.84547e-39
3.0228e-17
8.18515e-18
1.09202e-18
1.1771e-19
1.10218e-20
8.17593e-22
5.42753e-23
3.29738e-24
1.89328e-25
1.06268e-26
5.89577e-28
3.13394e-29
1.50919e-30
6.23016e-32
2.10458e-33
5.55838e-35
1.07824e-36
1.36861e-38
6.9102e-41
1.44609e-18
4.5772e-19
6.8719e-20
7.91587e-21
7.66504e-22
5.85217e-23
3.92258e-24
2.36153e-25
1.31109e-26
6.90497e-28
3.50338e-29
1.69028e-30
7.45737e-32
2.86319e-33
9.11321e-35
2.2879e-36
4.24088e-38
5.15575e-40
2.47087e-42
5.93342e-20
2.22005e-20
3.77158e-21
4.68477e-22
4.73139e-23
3.7396e-24
2.54676e-25
1.53135e-26
8.32566e-28
4.19189e-29
1.98534e-30
8.81844e-32
3.58234e-33
1.27784e-34
3.81942e-36
9.08246e-38
1.60386e-39
1.86317e-41
8.46187e-44
2.10943e-21
9.42497e-22
1.82168e-22
2.45861e-23
2.6092e-24
2.14575e-25
1.49291e-26
9.02466e-28
4.8502e-29
2.36682e-30
1.06409e-31
4.41597e-33
1.6659e-34
5.53416e-36
1.55158e-37
3.48602e-39
5.84902e-41
6.47758e-43
2.78313e-45
6.56345e-23
3.53366e-23
7.81056e-24
1.15279e-24
1.29389e-25
1.11208e-26
7.94262e-28
4.85372e-29
2.59739e-30
1.24104e-31
5.36637e-33
2.10869e-34
7.46117e-36
2.32012e-37
6.10849e-39
1.29536e-40
2.06117e-42
2.17179e-44
8.81305e-47
1.80512e-24
1.18034e-24
2.99779e-25
4.86506e-26
5.80776e-27
5.23719e-28
3.85583e-29
2.39319e-30
1.28259e-31
6.04722e-33
2.54052e-34
9.55884e-36
3.20363e-37
9.38617e-39
2.32778e-40
4.66147e-42
7.02808e-44
7.03553e-46
2.69267e-48
4.43139e-26
3.54332e-26
1.03852e-26
1.86175e-27
2.37528e-28
2.25488e-29
1.71754e-30
1.08704e-31
5.86208e-33
2.74397e-34
1.12881e-35
4.10394e-37
1.31441e-38
3.65377e-40
8.57199e-42
1.62403e-43
2.32049e-45
2.20542e-47
7.95281e-50
9.80483e-28
9.64277e-28
3.27407e-28
6.5085e-29
8.91118e-30
8.93142e-31
7.06017e-32
4.57192e-33
2.49053e-34
1.16302e-35
4.71374e-37
1.66805e-38
5.14431e-40
1.36584e-41
3.04598e-43
5.47507e-45
7.42234e-47
6.69767e-49
2.27441e-51
1.97415e-29
2.39981e-29
9.47056e-30
2.09422e-30
3.08771e-31
3.27535e-32
2.69401e-33
1.79002e-34
9.88184e-36
4.6217e-37
1.85455e-38
6.4251e-40
1.92016e-41
4.89874e-43
1.04357e-44
1.7856e-46
2.30093e-48
1.97273e-50
6.30842e-53
3.65179e-31
5.51021e-31
2.53432e-31
6.24942e-32
9.9503e-33
1.11933e-33
9.60017e-35
6.56035e-36
3.68002e-37
1.7293e-38
6.89708e-40
2.35039e-41
6.84246e-43
1.6862e-44
3.44712e-46
5.63451e-48
6.91741e-50
5.64206e-52
1.69977e-54
6.26521e-33
1.17781e-32
6.32658e-33
1.74291e-33
3.00329e-34
3.58827e-35
3.21458e-36
2.2635e-37
1.29296e-38
6.12049e-40
2.43396e-41
8.18972e-43
2.33252e-44
5.57723e-46
1.09874e-47
1.72164e-49
2.01885e-51
1.56905e-53
4.45707e-56
1.00638e-34
2.36531e-34
1.48591e-34
4.57865e-35
8.55189e-36
1.08639e-36
1.01787e-37
7.39582e-39
4.30939e-40
2.0592e-41
8.18584e-43
2.7279e-44
7.62776e-46
1.77634e-47
3.38479e-49
5.10093e-51
5.72808e-53
4.24993e-55
1.13958e-57
1.52747e-36
4.50324e-36
3.3103e-36
1.14139e-36
2.31283e-37
3.12587e-38
3.06556e-39
2.301e-40
1.36949e-41
6.617e-43
2.63498e-44
8.71889e-46
2.40065e-47
5.46263e-49
1.01009e-50
1.4685e-52
1.58327e-54
1.12364e-56
2.84804e-59
2.21235e-38
8.22731e-38
7.07549e-38
2.72858e-38
5.99827e-39
8.62357e-40
8.85337e-41
6.86734e-42
4.17767e-43
2.04312e-44
8.16146e-46
2.68631e-47
7.29929e-49
1.627e-50
2.92717e-52
4.11598e-54
4.27056e-56
2.90446e-58
6.96871e-61
)
;

boundaryField
{
    leftWall
    {
        type            zeroGradient;
    }
    rightWall
    {
        type            zeroGradient;
    }
    lowerWall
    {
        type            zeroGradient;
    }
    atmosphere
    {
        type            inletOutlet;
        inletValue      uniform 0;
        value           nonuniform List<scalar> 
46
(
0
0
0
0
0
0
0
0
0
0
0
0
0
0
0
0
0
0
0
0
0
0
0
2.30019e-38
3.43296e-37
4.02126e-37
2.75076e-39
2.21235e-38
8.22731e-38
7.07549e-38
2.72858e-38
5.99827e-39
8.62357e-40
8.85337e-41
6.86734e-42
4.17767e-43
2.04312e-44
8.16146e-46
2.68631e-47
7.29929e-49
1.627e-50
2.92717e-52
4.11598e-54
4.27056e-56
2.90446e-58
6.96871e-61
)
;
    }
    defaultFaces
    {
        type            empty;
    }
}


// ************************************************************************* //
