/*--------------------------------*- C++ -*----------------------------------*\
| =========                 |                                                 |
| \\      /  F ield         | OpenFOAM: The Open Source CFD Toolbox           |
|  \\    /   O peration     | Version:  2.4.0                                 |
|   \\  /    A nd           | Web:      www.OpenFOAM.org                      |
|    \\/     M anipulation  |                                                 |
\*---------------------------------------------------------------------------*/
FoamFile
{
    version     2.0;
    format      ascii;
    class       volScalarField;
    location    "0.15";
    object      alpha.mercury;
}
// * * * * * * * * * * * * * * * * * * * * * * * * * * * * * * * * * * * * * //

dimensions      [0 0 0 0 0 0 0];

internalField   nonuniform List<scalar> 
2268
(
1
1
1
1
1
1
1
1
1
1
1
1
1
0.999998
0.999991
0.999978
0.999955
0.999907
0.999781
0.999323
0.996712
0.961778
0.913789
1
1
1
1
1
1
1
1
1
1
1
1
0.999998
0.999991
0.999971
0.999937
0.999885
0.999759
0.999386
0.997741
0.985688
0.864131
0.84799
1
1
1
1
1
1
1
1
1
1
1
1
0.999996
0.999975
0.999922
0.999733
0.999065
0.996754
0.989487
0.959111
0.784559
0.41341
0.597559
1
1
1
1
1
1
1
1
1
1
1
1
0.999987
0.99986
0.999034
0.99423
0.973938
0.912877
0.752333
0.443197
0.140554
0.0391938
0.226066
1
1
1
1
1
1
1
1
1
1
1
0.999997
0.999778
0.996384
0.975886
0.894392
0.686419
0.36402
0.095639
0.00837209
0.00187227
0.000580385
0.0382604
1
1
1
1
1
1
1
1
1
1
1
0.999936
0.995275
0.948598
0.779966
0.429962
0.110025
0.0108244
0.000335852
7.57529e-06
3.75514e-06
1.80638e-06
0.00245978
1
1
1
1
1
1
1
1
1
1
0.999995
0.997871
0.936304
0.690634
0.303222
0.0439423
0.00197091
3.96485e-05
6.54052e-07
6.56211e-07
9.13561e-07
6.94045e-07
4.89928e-05
1
1
1
1
1
1
1
1
1
1
0.999381
0.950471
0.667812
0.27676
0.0579111
0.00340087
6.87688e-05
8.75136e-07
6.40082e-07
6.88848e-07
7.72655e-07
6.0211e-07
6.63437e-07
2.45099e-15
3.02082e-14
1.42481e-13
3.6101e-13
7.03378e-13
1.00995e-12
8.34474e-13
5.3995e-13
3.78382e-13
2.65788e-13
1.76324e-13
1.14733e-13
7.20529e-14
4.30714e-14
2.19819e-14
7.34991e-15
1.19867e-15
8.5632e-17
2.28901e-18
5.74774e-15
4.96337e-14
1.93086e-13
5.60379e-13
2.50404e-12
2.69784e-12
2.04864e-12
1.33887e-12
8.39825e-13
5.10196e-13
2.88458e-13
1.58876e-13
8.80115e-14
4.49185e-14
1.98064e-14
6.03499e-15
9.73078e-16
7.46194e-17
2.23876e-18
1.01084e-14
7.19374e-14
2.59788e-13
2.03086e-12
5.63531e-12
5.55001e-12
4.02325e-12
2.47543e-12
1.47636e-12
8.64599e-13
4.90394e-13
2.6308e-13
1.24664e-13
5.3402e-14
1.79667e-14
4.21776e-15
5.88615e-16
4.42837e-17
1.41051e-18
8.92883e-15
5.74388e-14
1.94304e-13
9.01453e-12
1.28204e-11
1.3549e-11
7.42163e-12
3.91969e-12
2.23621e-12
1.2681e-12
6.87537e-13
3.24976e-13
1.43018e-13
4.95591e-14
1.30637e-14
2.50823e-15
3.20309e-16
2.40302e-17
7.94459e-19
6.85589e-15
3.82314e-14
8.31537e-12
3.92571e-11
7.27017e-11
6.03741e-11
2.06084e-11
4.89099e-12
2.81489e-12
1.53853e-12
7.60033e-13
3.34227e-13
1.2357e-13
3.54035e-14
7.83947e-15
1.33768e-15
1.62542e-16
1.20241e-17
3.97279e-19
4.18471e-15
6.1784e-13
9.78503e-11
2.34385e-10
2.24528e-10
1.23379e-10
3.21957e-11
5.3889e-12
2.98372e-12
1.57624e-12
7.31341e-13
2.78706e-13
8.00029e-14
1.94523e-14
3.95392e-15
6.40344e-16
7.52996e-17
5.41883e-18
1.74294e-19
1.03793e-11
2.01662e-10
7.75001e-10
7.18086e-10
4.08527e-10
1.58169e-10
4.12009e-11
5.61585e-12
2.85587e-12
1.47041e-12
6.37065e-13
1.83888e-13
4.07118e-14
8.95129e-15
1.77149e-15
2.80408e-16
3.19966e-17
2.21138e-18
6.81649e-20
9.12235e-10
3.58325e-09
2.71112e-09
1.15096e-09
4.78264e-10
1.9297e-10
4.93051e-11
5.63361e-12
2.54511e-12
1.2845e-12
5.0009e-13
9.7474e-14
1.61062e-14
3.7042e-15
7.36682e-16
1.14447e-16
1.25708e-17
8.25876e-19
2.42047e-20
0.999902
0.99988
0.999817
0.999678
0.99937
0.998511
0.996453
0.990273
0.974595
0.927696
0.819612
0.561663
0.200063
0.0659976
0.0074889
0.000303907
5.29161e-06
2.46605e-07
3.61933e-07
4.6154e-07
5.02109e-07
4.37275e-07
3.49131e-07
0.980544
0.978178
0.972358
0.962005
0.945373
0.912686
0.861629
0.772082
0.637607
0.441667
0.22837
0.0504608
0.0109132
0.00111681
8.75872e-05
4.965e-06
1.22071e-07
3.96274e-08
6.56657e-08
1.12272e-07
1.91466e-07
1.8453e-07
1.77146e-07
0.657853
0.640854
0.604134
0.548339
0.48025
0.382494
0.279004
0.171241
0.082579
0.0274835
0.00611136
0.0007385
0.000266348
6.23025e-05
1.54266e-05
2.44783e-06
1.38726e-07
1.88866e-08
1.91523e-08
2.02334e-08
2.49627e-08
2.16993e-08
3.16553e-08
0.0734784
0.0675518
0.055448
0.0400981
0.0264447
0.0147272
0.00715315
0.00292813
0.000989856
0.000268424
6.05211e-05
4.70633e-05
1.8743e-05
5.35256e-06
2.62501e-06
1.2178e-06
2.22204e-07
8.68435e-09
1.48752e-09
1.32803e-09
2.73901e-09
2.60258e-09
4.09112e-09
1.31672e-06
1.31226e-06
2.32251e-06
4.44637e-06
3.14646e-06
2.08944e-06
1.79812e-06
1.73461e-06
1.42881e-06
1.01062e-06
7.78446e-07
7.64182e-07
5.41847e-07
2.90331e-07
2.24442e-07
1.89367e-07
8.68661e-08
1.12043e-08
2.69949e-10
6.83794e-12
4.77862e-11
2.96674e-11
6.39678e-11
1.84408e-10
1.36205e-10
1.4358e-10
2.10552e-10
3.36896e-10
4.82515e-10
6.36298e-10
7.18799e-10
8.29661e-10
9.76076e-10
1.01609e-09
1.16469e-09
9.8389e-10
5.61184e-10
9.72945e-10
1.31572e-09
6.11433e-10
6.0414e-11
2.86665e-12
1.12005e-12
3.94587e-13
1.37239e-13
4.88927e-14
3.2743e-66
9.60499e-64
1.49464e-61
1.64094e-59
1.45488e-57
1.07911e-55
7.29097e-54
4.3933e-52
2.49997e-50
1.34848e-48
8.4684e-47
5.23358e-45
2.89942e-44
4.94862e-44
1.11994e-43
6.54173e-43
1.69577e-41
1.15147e-39
9.43194e-38
1.20445e-35
1.41365e-33
2.61751e-31
3.84455e-29
1.18229e-64
3.23052e-62
4.63818e-60
4.67099e-58
3.78604e-56
2.5652e-54
1.58408e-52
8.73445e-51
4.52115e-49
2.13754e-47
1.2549e-45
6.92253e-44
3.96173e-43
7.50473e-43
2.5371e-42
2.72936e-41
8.91127e-40
5.34012e-38
3.80879e-36
3.512e-34
3.65373e-32
5.31757e-30
6.27655e-28
3.71004e-63
9.46272e-61
1.26116e-58
1.17484e-56
8.80116e-55
5.50744e-53
3.14058e-51
1.59259e-49
7.47851e-48
3.09541e-46
1.7283e-44
8.59737e-43
5.16251e-42
1.13658e-41
6.07322e-41
1.01378e-39
3.54545e-38
1.83815e-36
1.08989e-34
7.51885e-33
7.37876e-31
8.0258e-29
8.00023e-27
1.02642e-61
2.44901e-59
3.04728e-57
2.64923e-55
1.8564e-53
1.08393e-51
5.7501e-50
2.68666e-48
1.13875e-46
4.09314e-45
2.21754e-43
1.00803e-41
6.45774e-41
1.76322e-40
1.51636e-39
3.28153e-38
1.13728e-36
4.98246e-35
2.39038e-33
1.28982e-31
1.23167e-29
9.57249e-28
8.34499e-26
2.53325e-60
5.66699e-58
6.61995e-56
5.41843e-54
3.58572e-52
1.97244e-50
9.78219e-49
4.21183e-47
1.60312e-45
4.99513e-44
2.69274e-42
1.12462e-40
7.86214e-40
2.87112e-39
3.79725e-38
9.22123e-37
3.02239e-35
1.10449e-33
4.20557e-32
1.9009e-30
1.73291e-28
9.47448e-27
7.35064e-25
5.63342e-59
1.18413e-56
1.30556e-54
1.01483e-52
6.40444e-51
3.34781e-49
1.55858e-47
6.17997e-46
2.10152e-44
5.73119e-43
3.14505e-41
1.20366e-39
9.55498e-39
4.95251e-38
8.99434e-37
2.25679e-35
6.74549e-34
2.04723e-32
6.12987e-31
2.55768e-29
2.06903e-27
8.36065e-26
5.55443e-24
1.13966e-57
2.25709e-55
2.36225e-53
1.75952e-51
1.0692e-49
5.35463e-48
2.34566e-46
8.55591e-45
2.59065e-43
6.43541e-42
3.60083e-40
1.24833e-38
1.20187e-37
8.87656e-37
1.90053e-35
4.79111e-34
1.27918e-32
3.20576e-31
7.69144e-30
3.27273e-28
2.09656e-26
7.29179e-25
3.60451e-23
2.1139e-56
3.96693e-54
3.98004e-52
2.87356e-50
1.69597e-48
8.18491e-47
3.37237e-45
1.12812e-43
3.04025e-42
7.55295e-41
4.14433e-39
1.29427e-37
1.56392e-36
1.51455e-35
3.492e-34
8.79804e-33
2.06673e-31
4.25408e-30
9.01661e-29
4.02727e-27
1.82596e-25
6.93126e-24
1.74781e-22
3.6267e-55
6.52288e-53
6.37824e-51
4.53588e-49
2.61777e-47
1.2183e-45
4.69276e-44
1.42795e-42
3.45062e-41
9.8015e-40
4.99254e-38
1.32755e-36
1.80923e-35
2.18815e-34
5.62285e-33
1.41181e-31
2.83744e-30
4.81145e-29
1.14948e-27
4.93522e-26
1.46534e-24
6.29817e-23
7.37012e-22
5.84569e-54
1.02942e-51
1.00535e-49
7.16387e-48
4.05539e-46
1.80415e-44
6.36091e-43
1.71094e-41
3.8111e-40
1.41065e-38
5.22934e-37
1.10456e-35
1.63254e-34
2.68224e-33
8.27891e-32
2.02061e-30
3.43178e-29
4.79535e-28
1.71082e-26
5.92245e-25
8.24262e-24
6.2686e-23
3.94847e-22
9.06962e-53
1.61635e-50
1.6152e-48
1.15721e-46
6.31563e-45
2.61427e-43
8.34475e-42
2.0408e-40
3.90144e-39
6.50908e-38
1.23166e-36
4.99824e-35
9.67008e-34
2.94923e-32
1.1516e-30
2.65353e-29
3.75583e-28
3.56589e-27
2.59722e-26
1.98456e-25
2.37707e-24
2.54786e-23
1.35308e-22
2.53469e-52
2.98722e-50
1.79557e-48
7.68188e-47
2.90833e-45
1.21037e-43
5.63784e-42
2.55691e-40
1.04219e-38
3.84085e-37
1.45495e-35
4.65576e-34
8.21223e-33
9.33772e-32
8.32103e-31
6.82628e-30
6.09101e-29
6.7018e-28
1.0006e-26
1.55988e-25
1.60441e-24
8.87775e-24
3.57892e-23
2.3833e-55
1.15144e-52
3.15768e-50
6.62646e-48
1.21107e-45
1.70798e-43
1.59827e-41
9.59587e-40
3.86269e-38
1.08282e-36
2.2129e-35
3.51403e-34
4.58142e-33
5.60128e-32
7.40523e-31
1.03137e-29
1.34008e-28
1.46942e-27
1.28854e-26
8.62224e-26
4.34637e-25
1.80625e-24
6.53814e-24
3.12144e-54
1.39517e-51
3.05877e-49
4.22551e-47
4.0887e-45
2.92654e-43
1.5856e-41
6.62804e-40
2.17174e-38
5.68493e-37
1.22334e-35
2.20566e-34
3.27677e-33
4.17847e-32
4.73599e-31
4.74842e-30
4.16081e-29
3.13405e-28
1.98754e-27
1.05696e-26
4.89359e-26
2.11748e-25
7.89348e-25
1.60986e-55
7.47503e-53
1.68981e-50
2.42814e-48
2.45149e-46
1.8154e-44
1.00833e-42
4.27506e-41
1.40707e-39
3.66628e-38
7.73299e-37
1.3304e-35
1.87086e-34
2.28144e-33
2.51354e-32
2.50066e-31
2.20626e-30
1.68039e-29
1.08262e-28
5.98895e-28
2.98989e-27
1.42499e-26
6.21081e-26
4.92479e-57
2.14866e-54
4.48429e-52
5.88878e-50
5.40702e-48
3.65924e-46
1.88355e-44
7.54397e-43
2.39891e-41
6.18427e-40
1.31806e-38
2.35047e-37
3.55401e-36
4.70644e-35
5.54958e-34
5.85325e-33
5.48766e-32
4.51849e-31
3.24164e-30
2.04067e-29
1.1637e-28
6.33326e-28
3.35546e-27
6.3889e-59
2.62498e-56
5.16246e-54
6.42921e-52
5.6597e-50
3.7336e-48
1.91357e-46
7.82034e-45
2.60234e-43
7.17842e-42
1.66502e-40
3.2762e-39
5.51692e-38
8.05254e-37
1.03107e-35
1.16172e-34
1.15003e-33
1.00489e-32
7.90672e-32
5.70949e-31
3.81045e-30
2.3984e-29
1.44737e-28
4.47732e-61
1.85738e-58
3.68894e-56
4.66402e-54
4.19853e-52
2.8559e-50
1.52241e-48
6.52347e-47
2.29093e-45
6.69575e-44
1.64784e-42
3.45173e-41
6.23962e-40
9.86444e-39
1.38125e-37
1.73044e-36
1.95288e-35
1.98826e-34
1.81615e-33
1.48558e-32
1.11471e-31
7.94111e-31
5.49173e-30
2.14581e-63
9.22859e-61
1.90477e-58
2.50956e-56
2.3635e-54
1.68935e-52
9.50729e-51
4.32037e-49
1.61542e-47
5.04682e-46
1.33598e-44
3.03932e-43
6.02296e-42
1.05067e-40
1.62367e-39
2.23391e-38
2.75093e-37
3.05789e-36
3.10305e-35
2.92066e-34
2.58851e-33
2.18174e-32
1.76162e-31
7.07516e-66
3.1702e-63
6.81531e-61
9.37371e-59
9.24924e-57
6.96188e-55
4.15332e-53
2.01667e-51
8.12954e-50
2.76354e-48
8.02562e-47
2.01436e-45
4.41584e-44
8.53995e-43
1.47176e-41
2.27965e-40
3.19983e-39
4.1e-38
4.82749e-37
5.26391e-36
5.37596e-35
5.2175e-34
4.87087e-33
1.67969e-68
7.969e-66
1.81956e-63
2.66581e-61
2.81232e-59
2.27269e-57
1.46224e-55
7.69241e-54
3.3751e-52
1.2549e-50
4.00853e-49
1.11359e-47
2.71962e-46
5.89384e-45
1.14291e-43
1.99928e-42
3.17968e-41
4.63401e-40
6.24089e-39
7.84239e-38
9.28351e-37
1.04381e-35
1.12425e-34
2.8844e-71
1.4695e-68
3.60627e-66
5.69137e-64
6.48678e-62
5.68423e-60
3.98271e-58
2.29264e-56
1.10645e-54
4.54946e-53
1.61535e-51
5.01095e-50
1.37223e-48
3.34882e-47
7.34626e-46
1.46013e-44
2.64946e-43
4.42154e-42
6.83838e-41
9.88142e-40
1.34556e-38
1.74165e-37
2.16092e-36
3.70321e-74
2.0465e-71
5.45846e-69
9.38442e-67
1.16853e-64
1.12248e-62
8.65459e-61
5.50514e-59
2.94866e-57
1.35155e-55
5.37268e-54
1.87353e-52
5.78866e-51
1.59894e-49
3.98112e-48
9.00509e-47
1.8645e-45
3.56034e-44
6.31841e-43
1.05036e-41
1.64857e-40
2.46175e-39
3.52425e-38
3.56e-77
2.16043e-74
6.33655e-72
1.20041e-69
1.65114e-67
1.75704e-65
1.50547e-63
1.06772e-61
6.39806e-60
3.29186e-58
1.47358e-56
5.80397e-55
2.03134e-53
6.37397e-52
1.80789e-50
4.67134e-49
1.10784e-47
2.42941e-46
4.96295e-45
9.51557e-44
1.72506e-42
2.97847e-41
4.93352e-40
2.57635e-80
1.73536e-77
5.65704e-75
1.19314e-72
1.83077e-70
2.17821e-68
2.09184e-66
1.66722e-64
1.12574e-62
6.54452e-61
3.31925e-59
1.48523e-57
5.92108e-56
2.12181e-54
6.89066e-53
2.04371e-51
5.57716e-50
1.41062e-48
3.33073e-47
7.3943e-46
1.55425e-44
3.11453e-43
5.99166e-42
1.3912e-83
1.05142e-80
3.84939e-78
9.12983e-76
1.57776e-73
2.11794e-71
2.29938e-69
2.07626e-67
1.59196e-65
1.05345e-63
6.09646e-62
3.12034e-60
1.42643e-58
5.87567e-57
2.19864e-55
7.53118e-54
2.37887e-52
6.97862e-51
1.91467e-49
4.94666e-48
1.21151e-46
2.83136e-45
6.35712e-44
5.49077e-87
4.70581e-84
1.95529e-81
5.26869e-79
1.03578e-76
1.58416e-74
1.96299e-72
2.027e-70
1.78105e-68
1.35354e-66
9.016e-65
5.32345e-63
2.81364e-61
1.34295e-59
5.83537e-58
2.32586e-56
8.56523e-55
2.93469e-53
9.41884e-52
2.85039e-50
8.18604e-49
2.24526e-47
5.92026e-46
1.52263e-90
1.49791e-87
7.14981e-85
2.2154e-82
5.01418e-80
8.8413e-78
1.26505e-75
1.511e-73
1.53854e-71
1.35756e-69
1.05199e-67
7.24035e-66
4.46949e-64
2.49637e-62
1.27173e-60
5.95337e-59
2.57931e-57
1.04131e-55
3.94327e-54
1.40962e-52
4.78636e-51
1.55326e-49
4.84846e-48
2.79722e-94
3.20678e-91
1.78504e-88
6.45584e-86
1.7072e-83
3.52126e-81
5.90155e-79
8.26878e-77
9.89207e-75
1.0272e-72
9.38335e-71
7.62598e-69
5.56824e-67
3.68483e-65
2.22767e-63
1.23948e-61
6.39185e-60
3.07551e-58
1.38964e-56
5.93293e-55
2.40781e-53
9.34453e-52
3.48965e-50
3.11602e-98
4.24533e-95
2.80919e-92
1.20844e-89
3.80378e-87
9.3471e-85
1.86835e-82
3.12586e-80
4.47115e-78
5.55887e-76
6.08843e-74
5.94128e-72
5.21628e-70
4.15651e-68
3.02988e-66
2.03536e-64
1.26877e-62
7.38755e-61
4.04316e-59
2.09244e-57
1.02995e-55
4.84983e-54
2.1979e-52
1.82731e-102
3.04107e-99
2.45429e-96
1.28767e-93
4.94504e-91
1.48336e-88
3.62219e-86
7.41008e-84
1.29734e-81
1.9764e-79
2.65544e-77
3.18236e-75
3.43531e-73
3.36946e-71
3.02666e-69
2.5081e-67
1.93053e-65
1.3892e-63
9.40314e-62
6.02185e-60
3.66923e-58
2.13912e-56
1.20013e-54
4.43479e-107
9.3901e-104
9.58791e-101
6.35757e-98
3.08508e-95
1.16965e-92
3.61166e-90
9.34898e-88
2.07257e-85
4.00092e-83
6.81663e-81
1.03669e-78
1.42116e-76
1.77145e-74
2.02362e-72
2.13409e-70
2.09186e-68
1.91808e-66
1.65511e-64
1.35165e-62
1.05035e-60
7.80849e-59
5.58383e-57
2.81187e-112
8.09967e-109
1.10472e-105
9.75601e-103
6.30794e-100
3.19066e-97
1.31624e-94
4.5573e-92
1.35258e-89
3.49774e-87
7.98557e-85
1.62749e-82
2.98938e-80
4.99102e-78
7.63364e-76
1.07737e-73
1.41274e-71
1.73237e-69
1.99864e-67
2.18162e-65
2.26504e-63
2.2485e-61
2.14476e-59
1.72575e-118
7.49457e-115
1.47232e-111
1.85911e-108
1.72609e-105
1.26435e-102
7.61629e-100
3.8794e-97
1.70484e-94
6.56393e-92
2.24089e-89
6.84929e-87
1.88925e-84
4.7345e-82
1.08435e-79
2.28206e-77
4.43668e-75
8.01275e-73
1.35263e-70
2.14931e-68
3.23766e-66
4.6536e-64
6.41448e-62
1.88493e-125
1.37676e-121
4.18353e-118
7.83955e-115
1.04779e-111
1.0805e-108
9.05175e-106
6.38689e-103
3.89966e-100
2.10478e-97
1.02202e-94
4.53171e-92
1.85853e-89
7.12809e-87
2.58072e-84
8.88638e-82
2.92517e-79
9.22398e-77
2.78135e-74
7.97269e-72
2.15543e-69
5.45925e-67
1.29334e-64
4.53155e-131
3.88894e-127
1.2646e-123
2.54507e-120
3.71557e-117
4.25315e-114
4.0048e-111
3.20814e-108
2.24325e-105
1.39805e-102
7.90617e-100
4.12275e-97
2.01242e-94
9.32986e-92
4.16779e-89
1.82045e-86
7.89487e-84
3.45573e-81
1.55452e-78
7.33088e-76
3.69976e-73
2.03078e-70
1.20513e-67
2.69304e-07
2.14123e-07
1.60794e-07
1.25206e-07
1.72939e-07
1.48657e-07
1.18259e-07
9.4694e-08
3.35105e-08
2.87497e-08
2.27265e-08
1.38893e-08
3.81682e-09
2.74199e-09
1.59064e-09
8.96373e-10
2.00287e-11
5.78978e-12
1.58294e-12
4.42163e-13
2.7276e-14
1.53237e-14
8.5317e-15
4.75901e-15
2.0179e-28
2.86777e-27
4.60971e-26
7.03911e-25
2.97326e-27
4.11608e-26
5.76192e-25
6.76485e-24
3.39735e-26
4.56019e-25
6.052e-24
5.31894e-23
3.54485e-25
4.06533e-24
5.06581e-23
3.42212e-22
3.81199e-24
2.96513e-23
3.17607e-22
1.80076e-21
3.73967e-23
1.96727e-22
1.56999e-21
7.6994e-21
2.96851e-22
1.2858e-21
8.53541e-21
9.20048e-20
2.41195e-21
1.20908e-20
3.34402e-20
8.36913e-20
3.21999e-21
7.69243e-21
1.73064e-20
3.5407e-20
1.62185e-21
3.48822e-21
6.82944e-21
1.23245e-20
5.08216e-22
9.89778e-22
1.80291e-21
3.11542e-21
1.18736e-22
2.18782e-22
3.86367e-22
6.50664e-22
2.04945e-23
3.7482e-23
6.60706e-23
1.09104e-22
2.58288e-24
4.8407e-24
8.4489e-24
1.38937e-23
2.30898e-25
4.48518e-25
8.09928e-25
1.45376e-24
1.49974e-26
3.25337e-26
6.6902e-26
1.3486e-25
7.69102e-28
1.95378e-27
4.66804e-27
1.04675e-26
3.50703e-29
1.0305e-28
2.74094e-28
6.61206e-28
1.3732e-30
4.52853e-30
1.33053e-29
3.41266e-29
4.40892e-32
1.64983e-31
5.3174e-31
1.47347e-30
1.17095e-33
4.96283e-33
1.7777e-32
5.40826e-32
2.59199e-35
1.25445e-34
5.04512e-34
1.70869e-33
4.87666e-37
2.70566e-36
1.23256e-35
4.6934e-35
7.90028e-39
5.04651e-38
2.6208e-37
1.13016e-36
1.11473e-40
8.22564e-40
4.89391e-39
2.40286e-38
1.38091e-42
1.18122e-41
8.08542e-41
4.54029e-40
1.51078e-44
1.504e-43
1.1893e-42
7.66999e-42
1.46509e-46
1.70593e-45
1.56564e-44
1.16479e-43
1.26168e-48
1.72949e-47
1.85244e-46
1.59801e-45
9.64214e-51
1.56964e-49
1.97597e-48
1.98895e-47
6.5148e-53
1.27457e-51
1.90324e-50
2.25311e-49
3.8593e-55
9.22648e-54
1.65441e-52
2.3272e-51
1.9733e-57
5.90571e-56
1.29315e-54
2.19067e-53
8.47492e-60
3.29211e-58
9.01185e-57
1.87148e-55
2.89567e-62
1.55573e-60
5.5156e-59
1.43746e-57
7.19354e-65
5.90433e-63
2.84039e-61
9.5138e-60
5.97867e-08
1.8779e-08
4.35651e-09
1.06529e-09
5.19351e-10
2.47481e-10
5.64443e-11
5.02121e-12
2.12663e-12
1.07405e-12
3.29416e-13
3.19989e-14
3.54302e-15
9.54778e-16
1.79408e-16
2.56373e-17
2.57259e-18
1.54427e-19
4.17021e-21
5.53184e-08
1.66963e-08
2.32454e-09
1.19525e-09
6.59854e-10
2.33308e-10
3.78846e-11
2.73541e-12
1.38803e-12
6.51533e-13
1.37079e-13
7.1378e-15
9.39255e-16
2.36063e-16
4.03553e-17
5.20567e-18
4.72979e-19
2.58417e-20
6.39177e-22
4.06758e-09
1.58853e-09
6.50464e-10
2.50588e-10
9.06603e-11
1.25662e-11
1.27836e-12
8.44607e-13
5.65118e-13
2.53825e-13
4.27068e-14
1.50572e-15
2.65232e-16
5.65075e-17
8.70137e-18
1.0063e-18
8.15887e-20
4.04824e-21
9.13342e-23
3.28365e-10
1.20694e-10
4.42389e-11
1.52503e-11
2.04877e-12
7.79875e-13
3.53214e-13
1.83789e-13
1.47726e-13
9.02162e-14
1.10798e-14
4.50155e-16
7.76686e-17
1.36415e-17
1.86197e-18
1.91524e-19
1.3734e-20
6.0843e-22
1.243e-23
8.47384e-14
2.56275e-14
9.66005e-15
3.96757e-15
1.6041e-15
6.96275e-16
1.71162e-15
2.12229e-14
6.87802e-14
3.0442e-14
2.99045e-15
1.58576e-16
2.32556e-17
3.37688e-18
4.0135e-19
3.6323e-20
2.3097e-21
9.17662e-23
1.6863e-24
1.62276e-15
5.54357e-16
1.90193e-16
6.43757e-17
2.70176e-17
1.28984e-16
2.45791e-15
2.082e-14
3.2152e-14
9.59074e-15
8.27713e-16
5.50792e-17
6.86799e-18
8.40051e-19
8.62734e-20
6.83913e-21
3.85796e-22
1.37487e-23
2.276e-25
1.54289e-22
3.5478e-21
5.19501e-20
8.45614e-19
1.36964e-17
3.25655e-16
4.55976e-15
1.37368e-14
1.25677e-14
2.75848e-15
2.27335e-16
1.74626e-17
1.91564e-18
2.02133e-19
1.80537e-20
1.2581e-21
6.31609e-23
2.02435e-24
3.0287e-26
8.31813e-22
1.8184e-20
2.47623e-19
2.91563e-18
5.7187e-17
1.0365e-15
3.65146e-15
6.76374e-15
4.15197e-15
7.22818e-16
5.96922e-17
4.93228e-18
4.89427e-19
4.55682e-20
3.58684e-21
2.21873e-22
9.97836e-24
2.89109e-25
3.92475e-27
3.83661e-21
8.4494e-20
1.0219e-18
1.45888e-17
2.42778e-16
8.74243e-16
2.04775e-15
2.66188e-15
1.17692e-15
1.73115e-16
1.45633e-17
1.23593e-18
1.12848e-19
9.43883e-21
6.64627e-22
3.69094e-23
1.50005e-24
3.95522e-26
4.89552e-28
1.61104e-20
3.29608e-19
6.75792e-18
5.65674e-17
1.97004e-16
5.06623e-16
8.95875e-16
8.61226e-16
2.9085e-16
3.79389e-17
3.24679e-18
2.75285e-19
2.33695e-20
1.78046e-21
1.13638e-22
5.72858e-24
2.1231e-25
5.13166e-27
5.82274e-29
6.36447e-20
2.28001e-18
1.24561e-17
4.16656e-17
1.10629e-16
2.25872e-16
3.17528e-16
2.3432e-16
6.34633e-17
7.59812e-18
6.56428e-19
5.46928e-20
4.34745e-21
3.04959e-22
1.78336e-23
8.2416e-25
2.80861e-26
6.26814e-28
6.55514e-30
4.28177e-19
2.29799e-18
7.8873e-18
2.14823e-17
4.76736e-17
8.10427e-17
9.35121e-17
5.45469e-17
1.23359e-17
1.38851e-18
1.19972e-19
9.73259e-21
7.28119e-22
4.74252e-23
2.56339e-24
1.09518e-25
3.45722e-27
7.17041e-29
6.94639e-31
3.07241e-19
1.23832e-18
3.6356e-18
8.60583e-18
1.6567e-17
2.41193e-17
2.32863e-17
1.10159e-17
2.15043e-18
2.31143e-19
1.98186e-20
1.55716e-21
1.10099e-22
6.70389e-24
3.37414e-25
1.34199e-26
3.94938e-28
7.65601e-30
6.90055e-32
1.77612e-19
5.45825e-19
1.35446e-18
2.82693e-18
4.79067e-18
6.09342e-18
4.96787e-18
1.95128e-18
3.37823e-19
3.5024e-20
2.96137e-21
2.24781e-22
1.50737e-23
8.62923e-25
4.0693e-26
1.5156e-27
4.18108e-29
7.61223e-31
6.40895e-33
6.62163e-20
1.81553e-19
4.09072e-19
7.78031e-19
1.17653e-18
1.323e-18
9.17866e-19
3.05787e-19
4.80004e-20
4.82929e-21
4.00834e-22
2.93618e-23
1.87368e-24
1.01328e-25
4.50091e-27
1.57771e-28
4.09938e-30
7.03989e-32
5.55393e-34
2.07491e-20
5.01249e-20
1.03197e-19
1.82397e-19
2.48523e-19
2.48776e-19
1.48137e-19
4.26863e-20
6.18492e-21
6.06018e-22
4.9224e-23
3.4798e-24
2.11941e-25
1.08741e-26
4.57043e-28
1.5145e-29
3.72162e-31
6.05014e-33
4.48574e-35
5.14012e-21
1.14925e-20
2.20667e-20
3.68591e-20
4.54588e-20
4.07554e-20
2.10219e-20
5.33557e-21
7.24024e-22
6.92381e-23
5.49319e-24
3.75015e-25
2.18624e-26
1.06823e-27
4.26547e-29
1.34139e-30
3.12881e-32
4.83072e-34
3.37331e-36
1.03929e-21
2.19498e-21
4.04515e-21
6.43126e-21
7.22964e-21
5.84217e-21
2.63618e-21
5.99535e-22
7.70886e-23
7.20555e-24
5.57908e-25
3.68244e-26
2.0604e-27
9.62038e-29
3.66253e-30
1.09687e-31
2.4362e-33
3.5822e-35
2.36141e-37
1.69313e-22
3.52103e-22
6.41506e-22
9.6275e-22
1.00543e-21
7.34019e-22
2.93409e-22
6.07364e-23
7.47104e-24
6.8342e-25
5.16397e-26
3.30035e-27
1.77701e-28
7.95377e-30
2.89627e-31
8.28633e-33
1.75749e-34
2.46761e-36
1.53804e-38
2.24979e-23
4.84936e-23
8.81599e-23
1.23687e-22
1.22655e-22
8.09788e-23
2.90873e-23
5.55941e-24
6.59431e-25
5.91112e-26
4.36158e-27
2.70388e-28
1.4046e-29
6.04435e-31
2.1114e-32
5.78736e-34
1.17524e-35
1.57908e-37
9.32073e-40
2.56159e-24
5.73341e-24
1.02896e-23
1.38363e-23
1.30955e-23
7.87074e-24
2.57583e-24
4.60587e-25
5.30364e-26
4.66569e-27
3.36569e-28
2.02784e-29
1.01891e-30
4.22704e-32
1.42033e-33
3.73938e-35
7.28717e-37
9.38746e-39
5.25823e-41
2.49153e-25
5.64843e-25
1.01215e-24
1.36104e-24
1.21948e-24
6.7693e-25
2.0422e-25
3.45932e-26
3.88894e-27
3.3634e-28
2.37574e-29
1.39408e-30
6.79219e-32
2.72357e-33
8.825e-35
2.23693e-36
4.19221e-38
5.18801e-40
2.76137e-42
2.044e-26
4.68079e-26
8.56686e-26
1.16912e-25
9.93401e-26
5.16528e-26
1.4531e-26
2.35879e-27
2.60163e-28
2.21653e-29
1.5359e-30
8.79701e-32
4.16616e-33
1.6187e-34
5.06987e-36
1.24002e-37
2.23933e-39
2.66697e-41
1.35015e-43
1.36977e-27
3.30325e-27
6.33477e-27
8.72863e-27
7.12408e-27
3.50353e-27
9.3047e-28
1.46218e-28
1.58935e-29
1.33687e-30
9.10632e-32
5.10244e-33
2.35448e-34
8.8849e-36
2.69592e-37
6.37574e-39
1.11153e-40
1.27598e-42
6.15028e-45
7.57387e-29
2.01336e-28
4.09192e-28
5.68574e-28
4.51924e-28
2.1188e-28
5.37738e-29
8.25261e-30
8.87702e-31
7.38916e-32
4.95868e-33
2.72428e-34
1.2277e-35
4.50977e-37
1.32846e-38
3.04372e-40
5.1314e-42
5.68603e-44
2.61224e-46
3.54241e-30
1.06438e-29
2.30699e-29
3.25108e-29
2.54416e-29
1.14682e-29
2.81296e-30
4.24845e-31
4.5397e-32
3.74852e-33
2.48384e-34
1.34104e-35
5.91531e-37
2.11971e-38
6.07403e-40
1.35067e-41
2.20553e-43
2.36227e-45
1.03544e-47
1.42752e-31
4.89373e-31
1.13837e-30
1.64093e-30
1.27518e-30
5.57746e-31
1.3358e-31
1.99891e-32
2.12938e-33
1.74842e-34
1.14652e-35
6.09662e-37
2.63791e-38
9.24016e-40
2.58051e-41
5.5787e-43
8.83642e-45
9.1599e-47
3.83445e-49
5.00916e-33
1.96457e-32
4.93953e-32
7.34723e-32
5.7123e-32
2.44701e-32
5.77554e-33
8.61483e-34
9.17928e-35
7.51288e-36
4.88631e-37
2.56457e-38
1.09072e-39
3.7419e-41
1.02027e-42
2.1478e-44
3.30465e-46
3.31939e-48
1.32828e-50
1.54129e-34
6.92295e-34
1.89489e-33
2.93207e-33
2.29688e-33
9.72406e-34
2.2807e-34
3.40922e-35
3.64474e-36
2.98057e-37
1.92687e-38
1.00025e-39
4.18971e-41
1.41032e-42
3.76069e-44
7.7205e-46
1.15541e-47
1.12584e-49
4.31038e-52
4.18365e-36
2.15438e-35
6.46268e-35
1.04793e-34
8.32838e-35
3.51452e-35
8.25272e-36
1.24219e-36
1.33633e-37
1.0944e-38
7.04711e-40
3.62533e-41
1.49832e-42
4.95722e-44
1.29479e-45
2.59591e-47
3.78335e-49
3.58003e-51
1.31252e-53
1.00772e-37
5.95801e-37
1.97088e-36
3.37126e-36
2.73639e-36
1.16022e-36
2.7459e-37
4.17956e-38
4.53676e-39
3.72897e-40
2.39647e-41
1.22405e-42
5.00029e-44
1.62866e-45
4.17294e-47
8.18119e-49
1.16252e-50
1.06934e-52
3.75735e-55
2.16683e-39
1.4737e-38
5.40593e-38
9.814e-38
8.18791e-38
3.51389e-38
8.43203e-39
1.3028e-39
1.43046e-40
1.18251e-41
7.59883e-43
3.86038e-44
1.56124e-45
5.01371e-47
1.26189e-48
2.42221e-50
3.35943e-52
3.00671e-54
1.01334e-56
4.1839e-41
3.28125e-40
1.34168e-39
2.59954e-39
2.24289e-39
9.80838e-40
2.39901e-40
3.77523e-41
4.20273e-42
3.50094e-43
2.25346e-44
1.14051e-45
4.57343e-47
1.45008e-48
3.58972e-50
6.75399e-52
9.15209e-54
7.97706e-56
2.58072e-58
7.29714e-43
6.61895e-42
3.03161e-41
6.30152e-41
5.65487e-41
2.53534e-41
6.35012e-42
1.02083e-42
1.15465e-43
9.70977e-45
6.27047e-46
3.16645e-47
1.26074e-48
3.95179e-50
9.63342e-52
1.77848e-53
2.3568e-55
2.00218e-57
6.22249e-60
1.15612e-44
1.21747e-43
6.27612e-43
1.40634e-42
1.3196e-42
6.09898e-43
1.57064e-43
2.58616e-44
2.97776e-45
2.53198e-46
1.64293e-47
8.28925e-49
3.28118e-50
1.01796e-51
2.44629e-53
4.43575e-55
5.75347e-57
4.76767e-59
1.42444e-61
1.67294e-46
2.05522e-45
1.19821e-44
2.90751e-44
2.86659e-44
1.37245e-44
3.64689e-45
6.16452e-46
7.23783e-47
6.232e-48
4.06849e-49
2.05349e-50
8.09043e-52
2.48697e-53
5.89746e-55
1.05123e-56
1.33567e-58
1.08041e-60
3.10529e-63
2.22203e-48
3.20471e-47
2.12377e-46
5.60441e-46
5.83158e-46
2.90458e-46
7.98763e-47
1.38882e-47
1.66522e-48
1.45377e-49
9.56008e-51
4.83241e-52
1.89696e-53
5.78322e-55
1.35447e-56
2.37537e-58
2.95861e-60
2.33765e-62
6.46783e-65
2.72077e-50
4.64557e-49
3.51895e-48
1.01389e-47
1.11781e-47
5.8133e-48
1.65867e-48
2.97137e-49
3.64283e-50
3.22811e-51
2.1405e-52
1.08462e-53
4.24601e-55
1.28493e-56
2.97462e-58
5.13611e-60
6.27533e-62
4.84624e-64
1.29158e-66
3.08134e-52
6.30027e-51
5.48946e-50
1.73331e-49
2.03169e-49
1.10662e-49
3.28267e-50
6.06689e-51
7.6129e-52
6.85388e-53
4.58648e-54
2.33165e-55
9.10993e-57
2.73856e-58
6.27095e-60
1.06675e-61
1.2793e-63
9.66204e-66
2.48191e-68
3.23242e-54
8.04241e-53
8.12117e-52
2.81995e-51
3.52438e-51
2.01555e-51
6.22585e-52
1.18828e-52
1.52737e-53
1.39802e-54
9.44776e-56
4.82195e-57
1.88151e-58
5.62206e-60
1.27417e-61
2.13663e-63
2.51641e-65
1.85964e-67
4.6067e-70
3.13996e-56
9.72386e-55
1.14784e-53
4.39608e-53
5.87132e-53
3.53208e-53
1.1374e-53
2.24354e-54
2.95566e-55
2.75205e-56
1.8793e-57
9.63511e-59
3.7569e-60
1.11649e-61
2.50585e-63
4.14444e-65
4.79605e-67
3.46973e-69
8.29383e-72
2.75739e-58
1.11335e-56
1.56171e-55
6.62448e-55
9.47196e-55
6.0009e-55
2.01546e-55
4.10918e-56
5.54891e-57
5.25644e-58
3.62772e-59
1.8688e-60
7.2836e-62
2.1535e-63
4.78803e-65
7.81315e-67
8.88741e-69
6.29639e-71
1.45297e-73
)
;

boundaryField
{
    leftWall
    {
        type            zeroGradient;
    }
    rightWall
    {
        type            zeroGradient;
    }
    lowerWall
    {
        type            zeroGradient;
    }
    atmosphere
    {
        type            inletOutlet;
        inletValue      uniform 0;
        value           nonuniform List<scalar> 
46
(
0
0
0
0
0
0
0
0
0
0
0
0
0
0
0
0
0
0
0
0
0
0
0
7.19354e-65
5.90433e-63
2.84039e-61
9.5138e-60
2.75739e-58
1.11335e-56
1.56171e-55
6.62448e-55
9.47196e-55
6.0009e-55
2.01546e-55
4.10918e-56
5.54891e-57
5.25644e-58
3.62772e-59
1.8688e-60
7.2836e-62
2.1535e-63
4.78803e-65
7.81315e-67
8.88741e-69
6.29639e-71
1.45297e-73
)
;
    }
    defaultFaces
    {
        type            empty;
    }
}


// ************************************************************************* //
