/*--------------------------------*- C++ -*----------------------------------*\
| =========                 |                                                 |
| \\      /  F ield         | OpenFOAM: The Open Source CFD Toolbox           |
|  \\    /   O peration     | Version:  2.4.0                                 |
|   \\  /    A nd           | Web:      www.OpenFOAM.org                      |
|    \\/     M anipulation  |                                                 |
\*---------------------------------------------------------------------------*/
FoamFile
{
    version     2.0;
    format      ascii;
    class       volScalarField;
    location    "0.15";
    object      alphas;
}
// * * * * * * * * * * * * * * * * * * * * * * * * * * * * * * * * * * * * * //

dimensions      [0 0 0 0 0 0 0];

internalField   nonuniform List<scalar> 
2268
(
2
2
2
2
2
2
2
2
2
2
2
2
2
2
1.99999
1.99998
1.99995
1.99991
1.99978
1.99932
1.99671
1.96178
1.91379
2
2
2
2
2
2
2
2
2
2
2
2
2
1.99999
1.99997
1.99994
1.99988
1.99976
1.99938
1.99774
1.98569
1.86413
1.84799
2
2
2
2
2
2
2
2
2
2
2
2
2
1.99997
1.99992
1.99973
1.99906
1.99675
1.98949
1.95911
1.78456
1.41341
1.59756
2
2
2
2
2
2
2
2
2
2
2
2
1.99999
1.99986
1.99903
1.99421
1.97387
1.91274
1.75218
1.44313
1.14055
1.03919
1.22606
2
2
2
2
2
2
2
2
2
2
2
2
1.99975
1.99599
1.97433
1.89086
1.68107
1.35974
1.09431
1.00828
1.00187
1.00058
1.03826
2
2
2
2
2
2
2
2
2
2
2
1.9999
1.9928
1.92838
1.7309
1.36565
1.06461
0.995825
0.998718
0.999974
1
1
1.00246
2
2
2
2
2
2
2
2
2
2
1.99999
1.99588
1.88289
1.48461
1.01345
0.839272
0.929731
0.98995
0.999621
0.999998
1
1
1.00005
2
2
2
2
2
2
2
2
2
2
1.99877
1.90133
1.35515
0.696545
0.563244
0.776656
0.962794
0.998613
0.99999
1
1
1
1
3.00003
3.00003
3.00001
2.99949
2.9723
2.70573
2.21021
2.05666
1.98762
2.12433
2.36465
2.34469
2.57508
2.87387
2.98478
2.99947
3.00001
3.00001
3.00002
3.00004
3.00002
3.00001
2.99824
2.87826
1.83752
1.17376
1.1204
1.12196
1.18338
1.28754
2.33268
2.95276
2.99805
2.99923
2.99992
3.00001
3.00002
3.00002
3.00003
3.00001
3
2.98913
2.37804
1.18083
1.00415
1.00142
1.00325
1.08202
2.15356
2.93099
2.99928
3.00001
3.00001
3.00001
3.00001
3.00002
3.00002
3.00003
3.00001
2.99982
2.89835
1.75527
1.04661
1.0004
1.00039
1.01344
1.60912
2.80125
2.99627
3
3.00001
3.00001
3.00001
3.00002
3.00002
3.00002
3.00003
3.00001
2.99283
2.52551
1.30546
1.00899
1.00008
1.0009
1.08567
2.17629
2.93336
2.99928
3.00001
3.00001
3.00001
3.00001
3.00002
3.00002
3.00002
3.00003
2.99997
2.87092
1.79771
1.06587
1.00075
1.00003
1.00193
1.2138
2.38104
2.96022
2.9997
3.00001
3.00001
3.00001
3.00002
3.00002
3.00002
3.00002
3.00002
2.93542
2.18813
1.1774
1.00401
1.00002
1.00001
1.00401
1.35508
2.56285
2.9818
2.99994
3.00001
3.00001
3.00001
3.00002
3.00002
3.00002
3.00002
2.80242
2.17745
1.24726
1.01119
1.0001
1
1
1.01095
1.63106
2.76185
2.99471
3
3.00001
3.00001
3.00002
3.00002
3.00002
3.00002
3.00002
1.9998
1.99976
1.99963
1.99936
1.99874
1.99702
1.99291
1.98055
1.94919
1.85539
1.63923
1.12401
0.419865
0.280559
0.448073
0.815459
0.984763
0.999857
1
1
1
1
0.999999
1.96109
1.95636
1.94472
1.92401
1.89075
1.82537
1.72326
1.54416
1.27521
0.883334
0.456752
0.101421
0.0377493
0.094699
0.380011
0.817216
0.987539
0.999908
1
1
1
1
0.999999
1.31571
1.28171
1.20827
1.09668
0.9605
0.764988
0.558008
0.342483
0.165158
0.054967
0.0122241
0.00161318
0.00628245
0.0639264
0.320651
0.753343
0.973118
0.999526
0.999999
1
1
1
1
0.146957
0.135104
0.110896
0.0801963
0.0528895
0.0294545
0.0143063
0.00585627
0.00197971
0.000536847
0.000121637
0.000228696
0.00519109
0.0620224
0.309207
0.730672
0.964884
0.99908
0.999997
1
1
1
1
2.63344e-06
2.62452e-06
4.64503e-06
8.89274e-06
6.29292e-06
4.17887e-06
3.59623e-06
3.46924e-06
2.85763e-06
2.02128e-06
2.32933e-06
0.000169681
0.00814763
0.0838595
0.358297
0.765568
0.971328
0.999261
0.999997
1
1
1
1
3.78042e-10
2.81347e-10
2.95393e-10
4.41579e-10
6.81575e-10
9.73329e-10
1.28758e-09
1.49216e-09
1.83468e-09
3.22114e-09
7.04891e-07
0.000227217
0.0138583
0.125129
0.459004
0.845206
0.986663
0.999771
0.999999
1
1
1
1
1.387e-10
1.15e-10
1.30745e-10
1.53413e-10
2.26936e-10
3.87619e-10
1.07031e-09
2.21366e-09
3.79386e-09
5.96575e-09
6.13457e-07
0.000277294
0.0224042
0.180663
0.572931
0.911519
0.995189
0.999953
1
1
1
1
1
2.92088e-09
2.70153e-09
3.01064e-09
3.60176e-09
4.52404e-09
5.90867e-09
7.81778e-09
1.09007e-08
1.45675e-08
1.90007e-08
4.85249e-07
0.000330335
0.0382164
0.26734
0.705555
0.961514
0.99888
0.999995
1
1
1
1
1
1.18986e-08
1.15738e-08
1.27237e-08
1.47274e-08
1.76714e-08
2.17226e-08
2.76146e-08
3.50101e-08
4.16944e-08
4.94681e-08
3.89615e-07
0.000377699
0.0645717
0.384402
0.827519
0.987396
0.999822
0.999999
1
1
1
1
1
4.08549e-08
4.13151e-08
4.38301e-08
4.76115e-08
5.25825e-08
6.23385e-08
8.01927e-08
1.05371e-07
1.35281e-07
1.7245e-07
3.56323e-07
0.000419844
0.110596
0.536855
0.921839
0.997226
0.999983
1
1
1
1
1
1
1.33905e-07
1.3852e-07
1.46356e-07
1.60881e-07
1.93101e-07
2.56109e-07
3.34192e-07
4.18251e-07
4.99682e-07
5.60041e-07
5.04286e-07
0.000519101
0.19704
0.713745
0.975646
0.999616
0.999999
1
1
1
1
1
1.00014
5.50293e-07
5.69292e-07
5.90912e-07
6.29062e-07
6.87192e-07
7.62585e-07
8.52589e-07
9.46604e-07
1.28088e-06
2.97286e-06
1.00502e-05
0.00312544
0.368214
0.87591
0.995628
0.999969
1
1
1
1
1.00005
1.0012
1.03092
6.10779e-06
7.10294e-06
9.44546e-06
1.4554e-05
2.58997e-05
5.25745e-05
0.000120188
0.000300766
0.000794761
0.00212395
0.00489904
0.0472815
0.646138
0.970312
0.999634
1
1.00001
1.00003
1.00024
1.00183
1.0161
1.12181
1.68804
0.00432567
0.00482986
0.00592824
0.00800394
0.0118251
0.0188658
0.0321532
0.0572252
0.103476
0.183675
0.285823
0.481607
0.899153
0.998182
1.00132
1.00189
1.00435
1.01327
1.04749
1.16102
1.52485
2.28195
2.94372
0.300014
0.318705
0.35637
0.418694
0.51435
0.653136
0.848527
1.10765
1.42792
1.78399
2.06969
2.06856
1.21281
1.11703
1.12889
1.16937
1.26891
1.481
1.88142
2.41499
2.87786
2.99659
3
2.18316
2.22274
2.29532
2.39733
2.52101
2.65271
2.77827
2.88069
2.94944
2.98279
2.98846
2.90638
2.50172
2.25318
2.29157
2.42722
2.63575
2.8516
2.9761
2.99899
3
3
3
2.99665
2.99722
2.99802
2.99879
2.99942
2.99976
2.99993
2.99998
2.99999
2.99997
2.99974
2.99927
2.99815
2.99429
2.99564
2.99847
2.99977
2.99999
3
3
3
3
3
2.99999
2.99999
2.99999
2.99999
2.99999
2.99999
2.99999
2.99999
2.99999
2.99999
2.99999
3
3
3
3
3
3
3
3
3
3
3
3
2.99999
2.99999
2.99999
2.99999
2.99999
2.99999
2.99999
2.99999
2.99999
3
3
3
3
3
3
3
3
3
3
3
3
3
3.00001
3
3
3
3
3
3
3
3
3
3
3
3
3
3
3
3
3
3
3
3
3.00001
3.00001
3.00001
3
3
3
3
3
3
3
3
3
3
3
3
3
3
3
3
3
3
3
3
3
3.00001
3.00001
3
3
3
3
3
3
3
3
3
3
3
3
3
3
3
3
3
3
3
3
3
3
3.00001
3
3
3
3
3
3
3
3
3
3
3
3
3
3
3
3
3
3
3
3
3
3
3
3
3
3
3
3
3
3
3
3
3
3
3
3
3
3
3
3
3
3
3
3
3
3
3
3
3
3
3
3
3
3
3
3
3
3
3
3
3
3
3
3
3
3
2.99999
2.99999
3
3
3
3
3
3
3
3
3
3
3
3
3
3
3
3
3
3
3
3
3
3
3
3
3
3
3
3
3
3
3
3
3
3
3
3
3
3
3
3
3
3
3
3
2.99999
2.99999
2.99999
3
3
3
3
3
3
3
3
3
3
3
3
3
3
3
3
3
3
3
3
3
3
3
3
3
3
3
3
3
3
3
3
3
3
3
3
3
3
3
3
3
3
3
3
2.99999
3
3
3
3
3
3
3
3
3
3
3
3
3
3
3
3
3
3
3
3
3
3
3
3
3
3
3
3
3
3
3
3
3
3
3
3
3
3
3
3
3
3
3
3
3
3
3
3
3
3
3
3
3
3
3
3
3
3
3
3
3
3
3
3
3
3
3
3
3
3
3
3
3
3
3
3
3
3
3
3
3
3
3
3
3
3
3
3
3
3
3
3
3
3
3
3
3
3
3
3
3
3
3
3
3
3
3
3
3
3
3
3
3
3
3
3
3
3
3
3
3
3
3
3
3
3
3
3
3
3
3
3
3
3
3
3
3
3
3
3
3
3
3
3
3
3
3
3
3
3
3
3
3
3
3
3
3
3
3
3
3
3
3
3
3
3
3
3
3
3
3
3
3
3
3
3
3
3
3
3
3
3
3
3
3
3
3
3
3
3
3
3
3
3
3
3
3
3
3
3
3
3
3
3
3
3
3
3
3
3
3
3
3
3
3
3
3
3
3
3
3
3
3
3
3
3
3
3
3
3
3
3
3
3
3
3
3
3
3
3
3
3
3
3
3
3
3
3
3
3
3
3
3
3
3
3
3
3
3
3
3
3
3
3
3
3
3
3
3
3
3
3
3
3
3
3
3
3
3
3
3
3
3
3
3
3
3
3
3
3
3
3
3
3
3
3
3
3
3
3
0.999999
0.999999
0.999999
1.00294
0.999999
0.999999
0.999999
1.00002
1
1
1
1
1
1
1
1
1
1
1
1
1
1
1
1
1
1
1
1
1
1
1
1
1
1
1
1.00001
1
1.00002
1.00038
1.00778
1.00203
1.01149
1.07842
1.44114
1.18488
1.48362
2.22119
2.88976
2.52021
2.93798
2.99831
2.99999
2.99997
2.9999
2.99997
3
3
3
3
3
3
3
3
3
3
3
3
3
3
3
3
3
3.00001
3.00001
3.00001
3.00001
3.00001
3.00001
3.00001
3.00001
3.00001
3.00001
3.00001
3.00001
3.00001
3.00001
3.00001
3.00001
3
3
3
3
3
3
3
3
2.99999
2.99999
2.99999
2.99999
3
2.99999
2.99999
2.99999
2.99999
2.99999
2.99999
2.99999
2.99999
2.99999
2.99999
2.99999
2.99999
2.99999
2.99999
2.99999
3
2.99999
2.99999
2.99999
2.99999
2.99999
2.99999
2.99999
3
3
2.99999
2.99999
3
3
3
2.99999
3
3
3
3
3
3
3
3
3
3
3
3
3
3
3
3
3
3
3
3
3
3
3
3
3
3
3
3
3
3
3
3
3
3
3
3
1.03791
1.00672
1.00014
0.999999
0.999999
1
1.00115
1.12449
2.14815
2.91882
2.99922
3.00001
3.00001
3.00001
3.00002
3.00002
3.00002
3.00002
3.00001
1
0.999999
0.999999
0.999999
1
1.00008
1.02303
1.61436
2.72799
2.99252
2.99999
3.00001
3.00001
3.00002
3.00002
3.00002
3.00001
3.00001
3.00001
1
1
1
1
1.00001
1.00353
1.26436
2.42804
2.96656
2.99985
3
3.00001
3.00001
3.00001
3.00001
3.00001
3.00001
3.00001
3.00001
1
1
1
1
1.00096
1.10425
2.11311
2.91385
2.99922
3
3.00001
3.00001
3.00001
3.00001
3.00001
3.00001
3.00001
3.00001
3.00001
1
1
1
1.00037
1.04847
1.83993
2.83466
2.99692
3
3
3.00001
3.00001
3.00001
3.00001
3.00001
3.00001
3.00001
3.00001
3
1
1
1.00018
1.02641
1.67157
2.78629
2.99581
2.99999
3
3
3.00001
3.00001
3.00001
3.00001
3.00001
3.00001
3
3
3
1
1.00012
1.01972
1.5581
2.73208
2.99366
2.99999
3
3
3
3.00001
3.00001
3.00001
3.00001
3
3
3
3
3
1.00004
1.0178
1.50409
2.71098
2.99342
2.99999
3
3
3
3
3.00001
3.00001
3.00001
3
3
3
3
3
3
1.01141
1.48753
2.70774
2.99399
2.99999
3
3
3
3
3.00001
3.00001
3.00001
3
3
3
3
3
3
3
1.40549
2.71925
2.99582
2.99999
3
3
3
3
3
3.00001
3.00001
3
3
3
3
3
3
3
3
2.69853
2.99769
2.99999
3
3
3
3
3
3
3
3
3
3
3
3
3
3
3
3
2.99782
3
3
3
3
3
3
3
3
3
3
3
3
3
3
3
3
3
3
3
3
3
3
3
3
3
3
3
3
3
3
3
3
3
3
3
3
3
3
3
3
3
3
3
3
3
3
3
3
3
3
3
3
3
3
3
3
3
3
3
3
3
3
3
3
3
3
3
3
3
3
3
3
3
3
3
3
3
3
3
3
3
3
3
3
3
3
3
3
3
3
3
3
3
3
3
3
3
3
3
3
3
3
2.99999
3
3
3
3
3
3
3
3
3
3
3
3
3
3
3
3
3
2.99999
2.99999
2.99999
3
3
3
3
3
3
3
3
3
3.00001
3.00001
3.00001
3
3
3
3
3
2.99999
2.99999
3
3
3
3
3
3
3
3
3
3.00001
3.00001
3.00001
3.00001
3
3
3
3
3
3
3
3
3
3
3
3
3
3
3
3.00001
3.00001
3.00001
3.00001
3
3
3
3
3
3
3
3
3
3
3
3
3
3
3
3.00001
3.00001
3.00001
3.00001
3
3
3
3
3
3
3
3
3
3
3
3
3
3
3
3
3
3
3
3
3
3
3
3
3
3
3
3
3
3
3
3
3
3
3
3
3
3
3
3
3
3
3
3
3
3
3
3
3
3
3
3
3
2.99999
3
3
3
3
3
3
3
3
3
3
3
3
3
3
3
3
3
3
2.99999
2.99999
2.99999
2.99999
2.99999
2.99999
3
3
3
3
3
3
3
3
3
3
3
3
3
2.99999
2.99999
2.99999
2.99999
2.99999
2.99999
2.99999
3
3
3
3
3
3
3
3
3
3
3
3
2.99999
2.99999
2.99999
2.99999
2.99999
2.99999
2.99999
3
3
3
3
3
3
3
3
3
3
3
3
2.99999
2.99999
2.99999
2.99999
2.99999
2.99999
2.99999
3
3
3
3
3
3
3
3
3
3
3
3
2.99999
2.99999
2.99999
2.99999
2.99999
2.99999
2.99999
3
3
3
3
3
3
3
3
3
3
3
3
2.99999
2.99999
2.99999
2.99999
2.99999
2.99999
2.99999
3
3
3
3
3
3
3
3
3
3
3
3
2.99999
2.99999
2.99999
2.99999
2.99999
2.99999
3
3
3
3
3
3
3
3
3
3
3
3
3
2.99999
2.99999
2.99999
2.99999
2.99999
2.99999
3
3
3
3
3
3
3
3
3
3
3
3
3
2.99999
2.99999
2.99999
2.99999
2.99999
3
3
3
3
3
3
3
3
3
3
3
3
3
3
3
2.99999
2.99999
2.99999
3
3
3
3
3
3
3
3
3
3
3
3
3
3
3
3
3
2.99999
3
3
3
3
3
3
3
3
3
3
3
3
3
3
3
3
3
3
3
3
3
3
3
3
3
3
3
3
3
3
3
3
3
3
3
3
3
3
3
3
3
3
3
3
3
3
3
3
3
3
3
3
3
3
3
3
3
3
3
3
3
3
3
3
3
3
3
3
3
3
3
3
3
3
3
3
3
3
3
3
3
3
3
3
3
3
3
3
3
3
3
3
3
3
3
3
3
3
3
3
3
3
3
3
3
3
3
3
3
3
3
3
3
3
3
3
3
3
3
3
3
3
3
3
3
3
3
3
3
3
)
;

boundaryField
{
    leftWall
    {
        type            zeroGradient;
    }
    rightWall
    {
        type            zeroGradient;
    }
    lowerWall
    {
        type            zeroGradient;
    }
    atmosphere
    {
        type            zeroGradient;
    }
    defaultFaces
    {
        type            empty;
    }
}


// ************************************************************************* //
