/*--------------------------------*- C++ -*----------------------------------*\
| =========                 |                                                 |
| \\      /  F ield         | OpenFOAM: The Open Source CFD Toolbox           |
|  \\    /   O peration     | Version:  2.4.0                                 |
|   \\  /    A nd           | Web:      www.OpenFOAM.org                      |
|    \\/     M anipulation  |                                                 |
\*---------------------------------------------------------------------------*/
FoamFile
{
    version     2.0;
    format      ascii;
    class       volScalarField;
    location    "0.15";
    object      p;
}
// * * * * * * * * * * * * * * * * * * * * * * * * * * * * * * * * * * * * * //

dimensions      [1 -1 -2 0 0 0 0];

internalField   nonuniform List<scalar> 
2268
(
11854.5
11819.9
11750.9
11646.3
11509.1
11330.6
11128.3
10874.6
10561.4
10302.2
9833.29
9366.86
8948.03
8367.65
7563.51
6641.46
5741.11
4952.52
4441.16
4363.5
5080.76
8220.53
17420.7
11060.3
11025.6
10956.2
10851.1
10713.1
10533.5
10330.3
10073.9
9763.59
9482.16
9023.21
8557.48
8117.84
7509.29
6677.42
5734.21
4837.45
4056.04
3525.54
3305.45
3577.56
4578.67
12334.1
10268.3
10233.3
10163.2
10057
9917.33
9735.87
9530.5
9269.25
8961.9
8651.39
8195.74
7730.41
7250.78
6588.88
5708.66
4733.45
3829.46
3078.46
2561.68
2144.79
1875.87
1987.86
6092.56
9478.74
9443.19
9372.03
9264.26
9122.08
8938.05
8729.1
8461.88
8153.65
7816.21
7353.21
6882.71
6340.04
5594.6
4642.61
3643.02
2773.58
2037.23
1506.85
1279.85
1268.84
1284.78
2436.94
8691.75
8655.55
8583.01
8473.16
8327.63
8140.35
7926.73
7651.85
7340.22
6977.89
6500.89
6012.12
5381.54
4522.88
3487.7
2474.91
1660.29
1267.1
1140.68
1170.5
1270.61
1191.26
1486.95
7907.74
7870.73
7796.48
7684.07
7534.32
7343.24
7123.83
6840.72
6523.13
6138.14
5645.61
5130.22
4366.46
3394
2327.75
1543.49
1219.47
1199.8
1203.93
1181.5
1199.58
1103.29
1322
7127.07
7089.1
7012.8
6897.43
6742.6
6547.38
6321.95
6030.3
5702.93
5298.27
4793.63
4236.45
3340.3
2350.36
1545.67
1257.16
1241.51
1176.29
1122.86
1110.11
1135.39
1059.21
1179.56
6349.93
6310.92
6232.28
6113.85
5952.86
5753.02
5522.06
5221.24
4878.01
4440.53
3925.35
3337.33
2411.22
1695
1333.82
1274.86
1198.12
1130.67
1092.84
1080.66
1088.45
1027.8
977.749
-133.742
-133.764
-135.066
-138.976
-141.763
-74.9104
342.701
745.219
798.383
581.618
297.095
84.9789
11.9705
7.28501
8.02157
9.18708
9.33958
9.0986
8.97217
-133.944
-134.109
-135.816
-139.722
-142.774
-91.3207
280.942
660.028
692.419
468.782
160.161
14.4421
4.04272
4.47429
7.02162
8.74743
9.09114
8.9458
8.8483
-134.213
-134.564
-136.219
-138.949
-142.502
-111.882
203.766
472.539
464.202
206.873
21.8761
5.96576
6.38453
6.41853
7.02545
8.34379
8.71644
8.71344
8.66619
-134.426
-134.784
-136.063
-138.681
-143.892
-122.659
138.174
326.14
300.96
36.2347
8.34016
6.67035
5.70584
5.72312
6.76215
7.9428
8.36388
8.44892
8.44457
-134.563
-134.869
-135.709
-139.551
-150.043
-110.625
85.7246
211.555
112.36
11.2071
7.4448
6.22027
5.48924
5.66086
6.63755
7.60559
8.04064
8.17189
8.20008
-134.628
-134.818
-135.379
-142.318
-152.658
-89.2113
48.7787
132.286
31.331
7.83634
6.85994
5.94426
5.41434
5.68477
6.53374
7.33165
7.73892
7.89655
7.94671
-134.609
-134.674
-136.482
-145.548
-136.545
-67.4996
26.9167
75.9846
13.5179
6.89329
6.41639
5.80096
5.41829
5.71507
6.44397
7.10145
7.45918
7.63001
7.69296
-134.811
-134.443
-137.933
-139.607
-109.08
-49.2992
15.7405
38.7728
7.78698
6.44488
6.19709
5.74428
5.47102
5.76984
6.35309
6.88715
7.2046
7.37563
7.44477
5143.54
5102.68
5019.05
4895.33
4719.98
4508.5
4268.4
3955.01
3582.8
3059.34
2466.77
1934.17
1534.12
1365.95
1278.77
1193.95
1128.54
1091.34
1055.22
1039.06
1014.05
950.705
605.083
3601.08
3548.71
3435.08
3278.47
3074.12
2817
2506.81
2197.36
1910.92
1676.72
1442.14
1333.57
1317.17
1254.34
1183.77
1101.88
1062.55
1027.06
995.688
978.088
951.695
895.457
896.428
1787.78
1772.38
1736.78
1678.95
1603.58
1520.09
1433.79
1354.52
1291.94
1262.39
1265.64
1263.9
1208.32
1129.7
1067.54
1004
973.838
946.067
924.431
904.916
884.271
840.058
779.679
1315.25
1312
1307.57
1304.58
1302.11
1300.95
1298.71
1291.21
1271.35
1238.83
1189.87
1134.56
1073.28
1006.07
944.662
898.743
880.11
862.064
844.166
824.184
801.647
754.827
691.33
1294.78
1292.58
1288.14
1277.91
1261.63
1237.47
1207.02
1174.14
1142.2
1104.11
1061.35
1012.46
951.633
889.907
829.566
796.275
787.748
777.21
761.892
740.668
717.721
675.468
617.275
1140.4
1137.05
1130.16
1120.2
1107.31
1092.31
1074.76
1053.21
1024.92
988.227
946.071
894.471
834.245
779.429
722.618
703.815
701.94
693.71
679.925
660.799
636.645
597.87
544.665
1022.54
1019.75
1014.1
1005.5
993.958
978.79
959.613
935.965
906.49
871.082
830.087
779.068
720.683
670.995
620.487
617.171
618.375
612.139
599.66
581.525
556.953
520.505
471.407
900.454
897.673
892.102
883.582
871.871
856.881
838.12
815.28
787.28
753.901
715.018
666.756
611.71
565.695
527.784
534.21
536.755
532.032
520.525
502.801
478.045
442.868
397.244
779.465
776.885
771.62
763.56
752.474
738.085
720.115
698.169
671.709
640.26
603.22
558.036
507.69
463.82
445.881
455.196
457.689
453.349
442.275
424.477
399.55
364.905
320.489
659.243
656.813
651.866
644.185
633.569
619.705
602.383
581.416
556.501
527.513
493.405
452.38
406.319
366.671
369.5
378.374
380.573
375.874
364.883
346.686
321.449
286.586
241.486
539.823
537.624
533.081
525.972
515.935
502.668
485.977
465.942
442.922
416.668
386.656
349.671
306.362
282.061
296.204
304.265
305.732
300.303
288.447
269.817
244.278
208.353
161.401
421.82
419.991
416.166
409.961
400.842
388.288
372.028
352.455
330.961
308.166
284.581
252.132
211.427
210.826
224.722
233.507
233.698
227.085
213.889
194.996
168.13
128.56
70.6124
306.076
304.77
301.912
296.908
288.883
276.706
259.286
237.004
213.123
190.664
173.519
148.451
128.622
146.856
157.649
166.825
165.699
156.667
140.195
120.235
87.023
41.4833
13.1463
183.021
182.042
179.77
175.491
167.944
155.203
134.622
106.079
75.1746
51.6695
44.5691
40.8616
64.8422
87.2268
94.3395
102.149
98.9263
84.0317
56.541
35.3274
21.8678
7.39281
2.28669
41.5315
41.4665
41.4478
41.65
41.9729
41.7706
38.6071
30.7812
19.2749
10.082
6.62208
7.748
15.041
24.0004
26.182
27.5351
26.3489
22.316
9.85368
4.36143
1.80186
2.41184
2.70533
5.01166
4.82671
4.47808
3.98147
3.35329
2.61057
1.84489
1.33345
1.25566
1.61025
1.90385
2.22745
3.30723
4.24999
4.26399
3.76015
3.08236
2.27082
2.33717
2.79781
3.2879
3.3422
2.85504
2.3994
2.44718
2.54113
2.68158
2.86868
3.09809
3.36025
3.68116
3.93303
3.84691
3.5865
3.15051
2.83811
2.66425
2.68331
2.82568
3.05686
3.35114
3.58214
3.34251
2.99155
2.90917
2.88009
3.48146
3.45499
3.40192
3.32798
3.24342
3.16428
3.11415
3.02648
2.90653
2.86653
2.86969
2.91243
3.01576
3.16739
3.22784
3.18951
3.09472
2.99665
2.86225
2.78886
2.75303
2.75666
2.71155
2.61779
2.6274
2.64472
2.67123
2.70476
2.74532
2.78561
2.80729
2.81219
2.81582
2.80648
2.76383
2.71083
2.67737
2.68101
2.71354
2.7612
2.80698
2.80644
2.80339
2.77308
2.71089
2.66004
2.87921
2.87696
2.87249
2.86581
2.85685
2.84369
2.82959
2.80865
2.78269
2.76203
2.74854
2.74554
2.76124
2.78429
2.79854
2.80074
2.79237
2.77364
2.74186
2.70687
2.65761
2.62031
2.59268
2.72023
2.71798
2.71356
2.7075
2.70034
2.69258
2.68321
2.6716
2.6588
2.64836
2.64192
2.64082
2.64637
2.6528
2.65588
2.65382
2.64818
2.63942
2.62211
2.59966
2.56873
2.5382
2.50711
2.57841
2.57743
2.57532
2.57224
2.56836
2.56401
2.55818
2.55092
2.54297
2.53554
2.52973
2.52706
2.52736
2.52973
2.53158
2.53205
2.53097
2.52616
2.51434
2.4963
2.46916
2.43705
2.41336
2.45249
2.4516
2.44992
2.4475
2.44444
2.44085
2.43651
2.43154
2.42638
2.42177
2.41859
2.4172
2.41728
2.41826
2.41848
2.417
2.41277
2.40478
2.39293
2.37876
2.35902
2.33534
2.31255
2.32604
2.32541
2.3242
2.32244
2.3202
2.31752
2.31441
2.31098
2.30751
2.30444
2.30225
2.30093
2.30011
2.29934
2.29819
2.29612
2.29246
2.28596
2.27606
2.26228
2.24531
2.2276
2.20912
2.20059
2.20011
2.19919
2.19786
2.19617
2.19415
2.19186
2.18941
2.18697
2.1848
2.18308
2.18177
2.18071
2.17965
2.1781
2.17551
2.17117
2.16482
2.15659
2.14611
2.13306
2.11736
2.10182
2.07527
2.07491
2.07422
2.07323
2.07196
2.07047
2.06881
2.06706
2.06534
2.06377
2.06244
2.06127
2.06011
2.0587
2.05671
2.05385
2.04973
2.04405
2.03654
2.02721
2.01642
2.00437
1.99162
1.94973
1.94947
1.94897
1.94826
1.94737
1.94631
1.94515
1.94393
1.94272
1.94158
1.9405
1.93942
1.93822
1.93673
1.93473
1.93194
1.92811
1.92306
1.91666
1.90883
1.89969
1.88955
1.87896
1.82393
1.82375
1.8234
1.8229
1.82227
1.82154
1.82074
1.81989
1.81904
1.8182
1.81735
1.81642
1.81532
1.81388
1.81194
1.80931
1.80582
1.80133
1.79575
1.78911
1.78157
1.77323
1.7644
1.69798
1.69786
1.69763
1.69731
1.69691
1.69645
1.69593
1.69539
1.69482
1.69422
1.69356
1.69277
1.69178
1.69046
1.68869
1.68633
1.68325
1.67935
1.67458
1.66896
1.66261
1.65562
1.64824
1.57172
1.57165
1.57152
1.57134
1.57112
1.57086
1.57057
1.57026
1.56992
1.56953
1.56906
1.56844
1.56761
1.56647
1.56493
1.56287
1.5602
1.55686
1.55281
1.54809
1.54276
1.53693
1.53075
1.44524
1.44521
1.44516
1.4451
1.44502
1.44493
1.44483
1.44471
1.44457
1.44436
1.44407
1.44363
1.44298
1.44205
1.44076
1.43902
1.43678
1.43397
1.43057
1.42662
1.42217
1.4173
1.41213
1.3185
1.3185
1.31852
1.31855
1.31859
1.31864
1.3187
1.31875
1.31878
1.31875
1.31864
1.31838
1.31794
1.31724
1.31622
1.31482
1.31298
1.31067
1.30786
1.30459
1.30089
1.29685
1.29253
1.19151
1.19155
1.19162
1.19173
1.19188
1.19205
1.19225
1.19245
1.19264
1.19278
1.19284
1.19278
1.19255
1.19209
1.19135
1.19028
1.18883
1.18698
1.18472
1.18204
1.17901
1.17567
1.17208
1.0643
1.06435
1.06448
1.06466
1.0649
1.06519
1.06551
1.06585
1.06618
1.06649
1.06673
1.06686
1.06684
1.06663
1.06617
1.06543
1.06436
1.06294
1.06116
1.05903
1.05658
1.05385
1.05089
0.936863
0.936944
0.93711
0.937356
0.937676
0.938061
0.938498
0.938968
0.93945
0.939914
0.940329
0.940656
0.940857
0.940887
0.940708
0.940279
0.939569
0.938555
0.937224
0.935582
0.933651
0.931464
0.929062
0.809224
0.809324
0.809528
0.809831
0.810226
0.810702
0.811247
0.81184
0.812461
0.813082
0.813671
0.814192
0.814609
0.814883
0.814975
0.814853
0.814484
0.813848
0.812931
0.811733
0.810268
0.808565
0.806653
0.681391
0.681506
0.681745
0.682099
0.682562
0.683123
0.683768
0.68448
0.685236
0.686009
0.686769
0.687481
0.688113
0.688625
0.688986
0.689158
0.689116
0.688836
0.688303
0.687512
0.686472
0.685201
0.68373
0.553377
0.5535
0.553769
0.554169
0.554693
0.555332
0.556072
0.556895
0.557783
0.558706
0.559634
0.560536
0.561378
0.562126
0.562745
0.563205
0.563474
0.563531
0.563357
0.562943
0.56229
0.561415
0.560338
0.425178
0.425295
0.425592
0.426033
0.426617
0.427329
0.428158
0.429092
0.430109
0.431178
0.432269
0.433357
0.434408
0.435388
0.436264
0.437001
0.437572
0.437949
0.438112
0.438048
0.437753
0.437234
0.436518
0.296839
0.296935
0.29726
0.297741
0.298379
0.299165
0.300087
0.301122
0.302245
0.30344
0.304684
0.305944
0.307188
0.308387
0.309507
0.310517
0.311383
0.312078
0.312572
0.312843
0.312882
0.312676
0.312252
0.168543
0.168651
0.168995
0.169499
0.170182
0.171028
0.172017
0.173127
0.174338
0.175631
0.17698
0.178359
0.17974
0.181097
0.1824
0.183622
0.184739
0.185729
0.18657
0.187243
0.187707
0.187927
0.187836
0.0399922
0.0400333
0.0403991
0.0409251
0.041648
0.0425469
0.0436068
0.0448101
0.0461369
0.0475656
0.0490714
0.0506271
0.0522024
0.0537643
0.0552793
0.0567136
0.0580328
0.0592023
0.0601906
0.060976
0.0615557
0.0619549
0.0622251
-835.828
-583.912
-286.726
-200.809
563.806
380.606
255.867
171.995
598.385
464.858
355.206
271.794
602.723
533.573
462.127
395.978
550.269
501.562
449.39
394.709
491.212
453.833
413.316
368.776
426.1
394.503
359.231
320.38
355.382
326.004
293.406
256.367
279.427
250.548
217.811
180.617
198.893
168.711
132.529
92.2797
113.327
78.3147
42.3751
19.0347
25.1057
14.9646
3.94948
1.67304
1.50707
0.783988
1.55671
2.07884
3.62395
3.1057
2.89682
2.66122
2.44155
2.40164
2.50027
2.57751
2.82574
2.71079
2.62994
2.59275
2.82113
2.77669
2.72736
2.67746
2.68469
2.66304
2.64127
2.62491
2.62766
2.60704
2.58933
2.57357
2.56317
2.54355
2.5278
2.51356
2.48335
2.46925
2.45735
2.44441
2.39304
2.38116
2.37205
2.36119
2.29683
2.2877
2.27985
2.27095
2.19581
2.18785
2.18094
2.17375
2.09086
2.0842
2.07804
2.07178
1.9824
1.97675
1.97146
1.9662
1.87126
1.86646
1.86194
1.85748
1.75794
1.75388
1.75001
1.74623
1.64281
1.63937
1.63608
1.63286
1.52618
1.52327
1.52046
1.51772
1.40827
1.40581
1.40341
1.40107
1.28928
1.2872
1.28516
1.28316
1.16936
1.16761
1.16588
1.16417
1.04863
1.04717
1.04571
1.04426
0.927194
0.925981
0.924764
0.923549
0.805142
0.804152
0.803148
0.802141
0.682535
0.681745
0.680937
0.680118
0.559431
0.558823
0.558191
0.557545
0.435867
0.435422
0.434956
0.434469
0.311862
0.311577
0.311261
0.310925
0.187552
0.187351
0.187147
0.186943
0.0623742
0.0624313
0.0624476
0.0624296
-135.661
-140.748
-130.682
-102.073
-69.2552
-27.4708
12.8971
13.8212
5.30387
5.88659
5.97025
5.70273
5.58241
5.80233
6.20104
6.58012
6.84364
7.00239
7.07351
67.8845
7.24287
-20.4392
-28.3385
-21.3951
2.72904
17.2992
5.97442
4.93687
5.31576
5.58911
5.50917
5.53505
5.70368
5.96834
6.22818
6.42894
6.55969
6.62249
176.991
115.398
72.6055
41.2339
27.7558
36.8956
11.1798
4.35996
4.49008
4.94484
5.18795
5.24684
5.35562
5.51787
5.71627
5.90835
6.06309
6.16852
6.22112
294.357
192.741
122.948
76.0745
53.0755
29.0624
4.40587
4.03933
4.32787
4.62768
4.8466
4.98785
5.13125
5.29113
5.45675
5.60988
5.73415
5.82047
5.86322
305.2
209.671
137.677
86.8283
53.2706
6.97047
3.19929
3.62563
4.09916
4.34164
4.56868
4.74311
4.90171
5.05753
5.20295
5.33185
5.43522
5.50682
5.54326
293.635
203.472
133.794
85.6731
12.0737
2.9411
2.93806
3.40238
3.78963
4.09441
4.33049
4.51806
4.68154
4.82903
4.96032
5.07268
5.16125
5.22236
5.25356
253.422
171.03
105.309
18.976
3.2384
2.49863
2.93786
3.27105
3.61101
3.89735
4.12593
4.31304
4.47262
4.61135
4.73123
4.83109
4.90867
4.96177
4.98873
192.923
116.344
24.7004
3.33801
2.20735
2.63892
2.90662
3.2069
3.49396
3.74287
3.9518
4.12795
4.27819
4.40718
4.51658
4.6062
4.675
4.72176
4.74541
118.477
26.2539
3.20483
2.0247
2.49709
2.66332
2.90939
3.16215
3.40261
3.61577
3.80114
3.96121
4.09906
4.21706
4.31629
4.39685
4.45821
4.49966
4.52057
26.8779
2.99645
2.22518
2.42322
2.54014
2.70939
2.91544
3.12484
3.32384
3.50536
3.66725
3.80971
3.93372
4.04016
4.12945
4.20166
4.25641
4.29327
4.31179
2.99353
2.35938
2.4274
2.49344
2.60272
2.75117
2.91748
3.087
3.25159
3.40526
3.54518
3.67022
3.78017
3.87503
3.95474
4.01912
4.06786
4.1006
4.11704
2.58471
2.45407
2.465
2.56284
2.65674
2.77788
2.90871
3.04608
3.18198
3.31144
3.43134
3.53998
3.63639
3.72008
3.79065
3.84769
3.89089
3.91989
3.93444
2.35344
2.47085
2.53156
2.6008
2.68742
2.78305
2.88835
3.00036
3.11245
3.22106
3.3231
3.41668
3.50048
3.57368
3.63567
3.6859
3.72396
3.74953
3.76237
2.47456
2.48866
2.55729
2.61962
2.69285
2.7719
2.8574
2.94891
3.04133
3.13212
3.21844
3.29848
3.37078
3.43433
3.48837
3.53231
3.56566
3.58808
3.59934
2.60127
2.57253
2.58455
2.62616
2.68338
2.74749
2.81681
2.8915
2.96761
3.04322
3.11589
3.18391
3.24586
3.30066
3.34746
3.38564
3.41469
3.43424
3.44406
2.57494
2.58448
2.59785
2.6222
2.66229
2.71236
2.76769
2.8283
2.89075
2.95345
3.01432
3.0718
3.12454
3.17149
3.21177
3.24474
3.26989
3.28683
3.29536
2.60855
2.5829
2.58618
2.60086
2.62931
2.66724
2.71083
2.75955
2.81049
2.86222
2.91294
2.96124
3.00587
3.04583
3.08029
3.10859
3.13023
3.14483
3.15214
2.59341
2.56603
2.55791
2.56584
2.58477
2.6128
2.64677
2.68547
2.72674
2.76915
2.81117
2.85151
2.88907
2.92288
2.95217
2.97632
2.99482
3.00733
3.01363
2.54842
2.5258
2.51503
2.5179
2.52961
2.5499
2.5759
2.60633
2.63948
2.67401
2.70859
2.7421
2.7735
2.80194
2.82669
2.84716
2.8629
2.87353
2.87888
2.49041
2.46962
2.45918
2.45799
2.46501
2.47916
2.49875
2.52239
2.54878
2.57667
2.60495
2.63258
2.65868
2.68245
2.70324
2.72049
2.73378
2.74278
2.74727
2.42167
2.40179
2.39183
2.38806
2.39174
2.40136
2.41578
2.43396
2.45474
2.4771
2.50004
2.52268
2.54422
2.56396
2.58131
2.59575
2.60691
2.6145
2.61832
2.34197
2.32526
2.31488
2.30972
2.31093
2.31717
2.32756
2.34135
2.35754
2.3753
2.39377
2.41218
2.42984
2.44612
2.4605
2.47252
2.48183
2.48816
2.49138
2.25465
2.23985
2.22993
2.22423
2.22366
2.22736
2.23464
2.24492
2.25739
2.27135
2.28609
2.30094
2.31531
2.32865
2.34048
2.35041
2.35811
2.36335
2.366
2.16039
2.14734
2.13837
2.13254
2.13082
2.13265
2.13755
2.14505
2.15451
2.16536
2.17701
2.18889
2.20048
2.21132
2.22098
2.22912
2.23545
2.23976
2.24193
2.06085
2.04935
2.04123
2.03558
2.0332
2.03369
2.03678
2.04209
2.04915
2.05747
2.06657
2.07598
2.08524
2.09397
2.10179
2.10841
2.11358
2.1171
2.11887
1.9571
1.94706
1.93963
1.93425
1.93149
1.93105
1.93279
1.93641
1.94155
1.94783
1.95484
1.9622
1.96953
1.97649
1.98277
1.9881
1.99228
1.99512
1.99656
1.8499
1.84115
1.83439
1.82933
1.82635
1.82528
1.82601
1.82833
1.83195
1.83659
1.84191
1.84758
1.85331
1.8588
1.86378
1.86803
1.87137
1.87365
1.8748
1.73985
1.73222
1.72613
1.72141
1.71835
1.71684
1.71683
1.71814
1.72058
1.7239
1.72785
1.73216
1.73656
1.74083
1.74473
1.74809
1.75072
1.75253
1.75344
1.62746
1.62081
1.61533
1.61096
1.60791
1.60613
1.60558
1.60613
1.60765
1.60993
1.61278
1.61597
1.6193
1.62256
1.62557
1.62818
1.63023
1.63164
1.63235
1.51313
1.50732
1.50242
1.49841
1.49543
1.49349
1.49255
1.49254
1.49334
1.49481
1.49678
1.49907
1.50153
1.50397
1.50626
1.50824
1.50982
1.5109
1.51144
1.39716
1.3921
1.38773
1.38406
1.38121
1.3792
1.378
1.37758
1.37784
1.37867
1.37995
1.38153
1.38328
1.38506
1.38675
1.38823
1.38942
1.39023
1.39064
1.27982
1.27543
1.27154
1.26821
1.26552
1.2635
1.26215
1.26143
1.26129
1.26164
1.26238
1.2634
1.26459
1.26584
1.26705
1.26812
1.26899
1.26959
1.26988
1.16133
1.15752
1.15409
1.15108
1.14857
1.1466
1.14517
1.14426
1.14383
1.14382
1.14415
1.14473
1.14548
1.14631
1.14714
1.14789
1.14851
1.14893
1.14913
1.04184
1.03856
1.03555
1.03285
1.03055
1.02866
1.02722
1.02619
1.02557
1.0253
1.02533
1.02558
1.026
1.02651
1.02704
1.02753
1.02794
1.02823
1.02836
0.921511
0.918704
0.916082
0.913695
0.911604
0.909844
0.908431
0.907364
0.906626
0.906185
0.905997
0.906012
0.906178
0.906439
0.906743
0.907042
0.907296
0.907471
0.907555
0.800442
0.798072
0.795818
0.793734
0.79187
0.790262
0.788927
0.78787
0.787081
0.786539
0.786212
0.786063
0.78605
0.786133
0.786269
0.786422
0.786559
0.786654
0.786697
0.678728
0.676761
0.67486
0.673075
0.67145
0.670018
0.668799
0.667799
0.667015
0.666434
0.666031
0.665781
0.665652
0.665612
0.665631
0.665679
0.665732
0.665768
0.665783
0.556439
0.55485
0.55329
0.551805
0.550432
0.5492
0.54813
0.54723
0.5465
0.545931
0.545507
0.54521
0.545017
0.544904
0.544848
0.544828
0.544825
0.544824
0.544819
0.43363
0.432402
0.431177
0.429996
0.428889
0.427882
0.426993
0.42623
0.425596
0.425084
0.424687
0.424388
0.424175
0.424029
0.423935
0.423877
0.423842
0.423818
0.423802
0.310337
0.309459
0.30857
0.307702
0.306879
0.306122
0.305444
0.304855
0.304355
0.303943
0.303613
0.303356
0.303162
0.30302
0.30292
0.302851
0.302804
0.302772
0.302752
0.186595
0.186069
0.185526
0.184988
0.184472
0.183992
0.183557
0.183174
0.182844
0.182567
0.18234
0.182158
0.182016
0.181908
0.181828
0.18177
0.181729
0.181701
0.181683
0.0623568
0.0621973
0.0620172
0.0618324
0.0616515
0.0614804
0.061323
0.0611817
0.0610577
0.0609513
0.0608618
0.0607881
0.0607287
0.0606818
0.0606455
0.060618
0.0605986
0.0605843
0.0605747
)
;

boundaryField
{
    leftWall
    {
        type            fixedFluxPressure;
        gradient        uniform 0;
        value           nonuniform List<scalar> 
50
(
11854.5
11060.3
10268.3
9478.74
8691.75
7907.74
7127.07
6349.93
5143.54
3601.08
1787.78
1315.25
1294.78
1140.4
1022.54
900.454
779.465
659.243
539.823
421.82
306.076
183.021
41.5315
5.01166
2.3994
3.48146
2.61779
2.87921
2.72023
2.57841
2.45249
2.32604
2.20059
2.07527
1.94973
1.82393
1.69798
1.57172
1.44524
1.3185
1.19151
1.0643
0.936863
0.809224
0.681391
0.553377
0.425178
0.296839
0.168543
0.0399922
)
;
    }
    rightWall
    {
        type            fixedFluxPressure;
        gradient        uniform 0;
        value           nonuniform List<scalar> 
50
(
8.97217
8.8483
8.66619
8.44457
8.20008
7.94671
7.69296
7.44477
7.07351
6.62249
6.22112
5.86322
5.54326
5.25356
4.98873
4.74541
4.52057
4.31179
4.11704
3.93444
3.76237
3.59934
3.44406
3.29536
3.15214
3.01363
2.87888
2.74727
2.61832
2.49138
2.366
2.24193
2.11887
1.99656
1.8748
1.75344
1.63235
1.51144
1.39064
1.26988
1.14913
1.02836
0.907555
0.786697
0.665783
0.544819
0.423802
0.302752
0.181683
0.0605747
)
;
    }
    lowerWall
    {
        type            fixedFluxPressure;
        gradient        nonuniform List<scalar> 
62
(
132719
132719
132719
132719
132719
132719
132719
132719
132719
132719
132719
132719
132719
132719
132717
132709
132687
132624
132403
131394
126216
89533.7
61277.8
0
0
0
0
0
0
0
0
4905
4905
4905
4566.08
0
0
0
0
0
0
0
0
9.81001
9.81007
9.81012
9.81282
9.96519
13.7919
58.2911
62.9061
57.4513
58.1037
31.3223
30.0632
15.0424
10.6276
9.89525
9.8128
9.81007
9.81002
9.81
)
;
        value           nonuniform List<scalar> 
62
(
12252.6
12218.1
12149
12044.4
11907.3
11728.8
11526.5
11272.7
10959.5
10700.3
10231.4
9765.01
9346.18
8765.8
7961.66
7039.58
6139.16
5350.38
4838.36
4757.68
5459.4
8489.13
17604.5
17420.7
12334.1
6092.56
2436.94
1486.95
1322
1179.56
977.749
-804.53
-552.614
-255.427
-171.673
-133.742
-133.944
-134.213
-134.426
-134.563
-134.628
-134.609
-134.811
-133.713
-133.734
-135.037
-138.947
-141.733
-74.869
342.876
745.407
798.556
581.793
297.189
85.0691
12.0156
7.31689
8.05125
9.21652
9.369
9.12803
9.0016
)
;
    }
    atmosphere
    {
        type            totalPressure;
        U               U.air;
        phi             phi.air;
        rho             rho;
        psi             none;
        gamma           1;
        p0              uniform 0;
        value           nonuniform List<scalar> 
46
(
-0.0248357
-0.0251302
-0.0247309
-0.0241229
-0.0233105
-0.0223094
-0.021135
-0.0198051
-0.0183403
-0.016764
-0.0151018
-0.0133823
-0.011636
-0.0098955
-0.00819492
-0.00656905
-0.00505282
-0.00368055
-0.00248534
-0.0014985
-0.000747753
-0.000257787
-5.5543e-05
0
0
0
0
0
0
0
0
0
0
0
0
0
0
0
0
0
0
0
0
0
0
0
)
;
    }
    defaultFaces
    {
        type            empty;
    }
}


// ************************************************************************* //
