/*--------------------------------*- C++ -*----------------------------------*\
| =========                 |                                                 |
| \\      /  F ield         | OpenFOAM: The Open Source CFD Toolbox           |
|  \\    /   O peration     | Version:  2.4.0                                 |
|   \\  /    A nd           | Web:      www.OpenFOAM.org                      |
|    \\/     M anipulation  |                                                 |
\*---------------------------------------------------------------------------*/
FoamFile
{
    version     2.0;
    format      ascii;
    class       surfaceScalarField;
    location    "0.15";
    object      phi;
}
// * * * * * * * * * * * * * * * * * * * * * * * * * * * * * * * * * * * * * //

dimensions      [0 3 -1 0 0 0 0];

internalField   nonuniform List<scalar> 
4432
(
2.67192e-06
-2.67192e-06
5.39016e-06
-2.71824e-06
8.20012e-06
-2.80996e-06
1.11519e-05
-2.95179e-06
1.4286e-05
-3.13411e-06
1.77015e-05
-3.41545e-06
2.13878e-05
-3.68628e-06
2.57294e-05
-4.34163e-06
2.97396e-05
-4.0102e-06
3.64102e-05
-6.67065e-06
4.22586e-05
-5.84841e-06
4.7997e-05
-5.73838e-06
5.57446e-05
-7.74757e-06
6.58117e-05
-1.00671e-05
7.75505e-05
-1.17389e-05
8.98977e-05
-1.23472e-05
0.000101167
-1.12688e-05
0.000109953
-8.786e-06
0.000115142
-5.18996e-06
0.000115985
-8.42763e-07
0.00010885
7.13571e-06
8.29365e-05
2.5913e-05
8.29365e-05
2.66291e-06
-5.33483e-06
5.37217e-06
-5.4275e-06
8.17286e-06
-5.61066e-06
1.11142e-05
-5.89311e-06
1.42342e-05
-6.25417e-06
1.76397e-05
-6.82093e-06
2.13058e-05
-7.35234e-06
2.55377e-05
-8.57353e-06
2.97965e-05
-8.26899e-06
3.61675e-05
-1.30417e-05
4.17597e-05
-1.14406e-05
4.75244e-05
-1.1503e-05
5.62859e-05
-1.65091e-05
6.76114e-05
-2.13926e-05
7.94447e-05
-2.35722e-05
9.03057e-05
-2.32081e-05
9.94975e-05
-2.04606e-05
0.000106804
-1.6092e-05
0.000112135
-1.0521e-05
0.000115339
-4.04749e-06
0.000114856
7.61863e-06
8.89942e-05
5.17752e-05
0.000171931
2.64234e-06
-7.97718e-06
5.33087e-06
-8.11602e-06
8.11049e-06
-8.39028e-06
1.10275e-05
-8.81014e-06
1.41193e-05
-9.34591e-06
1.74931e-05
-1.01948e-05
2.11266e-05
-1.09859e-05
2.52431e-05
-1.269e-05
2.97304e-05
-1.27563e-05
3.56211e-05
-1.89324e-05
4.11001e-05
-1.69196e-05
4.70112e-05
-1.74141e-05
5.6467e-05
-2.59649e-05
6.83473e-05
-3.32728e-05
7.99545e-05
-3.51794e-05
8.97616e-05
-3.30153e-05
9.74109e-05
-2.811e-05
0.000102753
-2.14337e-05
0.000105768
-1.35362e-05
0.000106025
-4.30461e-06
0.000102282
1.13616e-05
8.17506e-05
7.23066e-05
0.000253681
2.61164e-06
-1.05888e-05
5.26938e-06
-1.07738e-05
8.01814e-06
-1.1139e-05
1.08989e-05
-1.16909e-05
1.3951e-05
-1.23981e-05
1.72652e-05
-1.35089e-05
2.08436e-05
-1.45643e-05
2.48778e-05
-1.67242e-05
2.94015e-05
-1.728e-05
3.48489e-05
-2.43798e-05
4.02478e-05
-2.23185e-05
4.67013e-05
-2.38676e-05
5.68007e-05
-3.60643e-05
6.87072e-05
-4.51793e-05
7.89542e-05
-4.54264e-05
8.62372e-05
-4.02984e-05
9.10738e-05
-3.29466e-05
9.29627e-05
-2.33225e-05
9.35821e-05
-1.41556e-05
9.56095e-05
-6.33202e-06
8.26375e-05
2.43336e-05
6.25054e-05
9.24387e-05
0.000316187
2.57067e-06
-1.31595e-05
5.18764e-06
-1.33907e-05
7.89619e-06
-1.38476e-05
1.073e-05
-1.45247e-05
1.37275e-05
-1.53956e-05
1.69668e-05
-1.67482e-05
2.04705e-05
-1.80679e-05
2.44039e-05
-2.06576e-05
2.89276e-05
-2.18038e-05
3.37992e-05
-2.92514e-05
3.9245e-05
-2.77643e-05
4.65198e-05
-3.11423e-05
5.66311e-05
-4.61757e-05
6.70724e-05
-5.56206e-05
7.5278e-05
-5.3632e-05
7.91182e-05
-4.41386e-05
8.03653e-05
-3.41937e-05
8.33285e-05
-2.62857e-05
7.98735e-05
-1.07007e-05
7.17667e-05
1.77475e-06
5.19954e-05
4.4105e-05
3.93401e-05
0.000105094
0.000355527
2.5189e-06
-1.56784e-05
5.08486e-06
-1.59567e-05
7.74403e-06
-1.65068e-05
1.05211e-05
-1.73017e-05
1.34483e-05
-1.83229e-05
1.66004e-05
-1.99003e-05
1.99992e-05
-2.14668e-05
2.38485e-05
-2.45069e-05
2.81787e-05
-2.6134e-05
3.26461e-05
-3.37187e-05
3.83466e-05
-3.34649e-05
4.61607e-05
-3.89564e-05
5.52797e-05
-5.52947e-05
6.26437e-05
-6.29845e-05
6.61396e-05
-5.71279e-05
7.39032e-05
-5.19022e-05
8.06835e-05
-4.0974e-05
8.19578e-05
-2.75599e-05
7.98753e-05
-8.61822e-06
6.18865e-05
1.97635e-05
3.39186e-05
7.20729e-05
1.64992e-05
0.000122513
0.000372026
2.45421e-06
-1.81326e-05
4.95707e-06
-1.84595e-05
7.55573e-06
-1.91054e-05
1.02645e-05
-2.00105e-05
1.31071e-05
-2.11654e-05
1.61602e-05
-2.29535e-05
1.94382e-05
-2.47447e-05
2.31744e-05
-2.82431e-05
2.73549e-05
-3.03145e-05
3.15465e-05
-3.79103e-05
3.74071e-05
-3.93255e-05
4.54192e-05
-4.69685e-05
5.08103e-05
-6.06858e-05
5.56028e-05
-6.77769e-05
6.83758e-05
-6.99009e-05
7.84651e-05
-6.19915e-05
8.51156e-05
-4.76245e-05
8.10943e-05
-2.35386e-05
6.38377e-05
8.63839e-06
4.4753e-05
3.88482e-05
2.52421e-05
9.15838e-05
6.58772e-06
0.000141168
0.000378614
2.37059e-06
-2.05032e-05
4.79352e-06
-2.08825e-05
7.31819e-06
-2.16301e-05
9.9462e-06
-2.26385e-05
1.26933e-05
-2.39125e-05
1.56416e-05
-2.59018e-05
1.8778e-05
-2.78811e-05
2.24102e-05
-3.18753e-05
2.65173e-05
-3.44215e-05
3.04155e-05
-4.18086e-05
3.62024e-05
-4.51123e-05
4.27237e-05
-5.34899e-05
4.65293e-05
-6.44914e-05
5.9927e-05
-8.11746e-05
6.74896e-05
-7.74636e-05
7.01712e-05
-6.46731e-05
6.51039e-05
-4.25572e-05
5.27489e-05
-1.11835e-05
4.23767e-05
1.90106e-05
3.57193e-05
4.55057e-05
2.4969e-05
0.000102334
1.14663e-05
0.00015467
0.00039008
-5.32271e-05
5.32271e-05
-0.000146414
9.31871e-05
-0.000292258
0.000145844
-0.000374551
8.22924e-05
-0.0003073
-6.72504e-05
-0.00016372
-0.00014358
-2.68818e-05
-0.000136839
9.01565e-05
-0.000117038
0.000189783
-9.96268e-05
0.000278246
-8.84626e-05
0.000317429
-3.91832e-05
0.000311222
6.20656e-06
0.000323563
-1.23408e-05
0.000311877
1.16863e-05
0.00023169
8.01864e-05
0.000130289
0.000101401
6.63611e-05
6.39283e-05
2.86062e-05
3.7755e-05
2.86062e-05
-4.43912e-05
9.76183e-05
-9.53469e-05
0.000144143
-0.000119965
0.000170462
-5.74955e-05
1.98228e-05
2.86335e-05
-0.000153379
4.99894e-05
-0.000164936
7.86379e-05
-0.000165487
0.000105103
-0.000143503
0.000133179
-0.000127703
0.000160389
-0.000115672
0.000200224
-7.9018e-05
0.000269141
-6.27106e-05
0.00025833
-1.52966e-06
0.000237813
3.22027e-05
0.00018522
0.00013278
0.000114415
0.000172205
6.31692e-05
0.000115174
2.79531e-05
7.2971e-05
5.65593e-05
-2.59137e-05
0.000123532
-3.41681e-05
0.000152397
1.10329e-05
0.000125261
7.49469e-05
-4.40912e-05
7.65344e-05
-0.000154967
8.60236e-05
-0.000174425
9.69952e-05
-0.000176459
0.000116982
-0.00016349
0.00013898
-0.000149701
0.000166325
-0.000143016
0.000231871
-0.000144565
0.000212585
-4.34238e-05
0.000227526
-1.64706e-05
0.00018554
7.41883e-05
0.000125696
0.000192623
8.37624e-05
0.000214139
5.2173e-05
0.000146764
2.47773e-05
0.000100367
8.13367e-05
-1.03091e-05
0.000133841
-5.22632e-06
0.000147315
6.13755e-05
5.86596e-05
0.000108861
-9.15768e-05
9.82056e-05
-0.000144311
0.000106756
-0.000182976
0.000117394
-0.000187096
0.000132405
-0.000178501
0.000153132
-0.000170428
0.000199228
-0.000189113
0.000194772
-0.000140108
0.000214938
-6.35901e-05
0.000179664
1.88037e-05
0.000121479
0.000132373
7.86959e-05
0.000235406
6.10793e-05
0.000231756
4.24029e-05
0.00016544
2.1164e-05
0.000121605
0.000102501
-4.95905e-06
0.0001388
4.07192e-05
0.000101636
9.42246e-05
5.1542e-06
0.000106604
-0.000103957
0.000116303
-0.00015401
0.000123832
-0.000190504
0.000130117
-0.000193382
0.000140612
-0.000188996
0.00016395
-0.000193766
0.000183748
-0.000208911
0.00018269
-0.00013905
0.00016714
-4.80404e-05
0.000121474
6.44695e-05
7.11093e-05
0.000182738
5.01255e-05
0.00025639
4.54018e-05
0.00023648
3.39589e-05
0.000176883
1.75974e-05
0.000137967
0.000120098
1.37964e-06
0.00013742
5.53672e-05
4.76488e-05
0.000110836
-5.03149e-05
0.000117489
-0.000110609
0.000129572
-0.000166094
0.000133359
-0.000194292
0.000136317
-0.000196339
0.000142779
-0.000195457
0.000152339
-0.000203327
0.000154471
-0.000211042
0.000144578
-0.000129158
0.000108562
-1.20246e-05
6.68709e-05
0.000106161
3.56042e-05
0.000214005
3.07419e-05
0.000261252
3.32436e-05
0.000233978
2.67375e-05
0.000183389
1.43168e-05
0.000150388
0.000134415
3.47081e-05
0.000102712
9.48592e-05
-1.25023e-05
0.00010867
-6.41252e-05
0.000128135
-0.000130074
0.000138817
-0.000176776
0.000139595
-0.00019507
0.000139473
-0.000196217
0.000142681
-0.000198665
0.000146011
-0.000206657
0.000135607
-0.000200638
0.000103829
-9.73798e-05
6.34518e-05
2.83528e-05
2.86257e-05
0.000140987
1.25122e-05
0.000230118
1.77231e-05
0.000256041
2.42603e-05
0.000227441
2.07742e-05
0.000186875
1.14342e-05
0.000159728
0.000145849
8.35941e-05
1.91183e-05
9.77481e-05
-2.66563e-05
0.000120675
-8.70523e-05
0.000140583
-0.000149982
0.000145274
-0.000181467
0.000142501
-0.000192296
0.000140355
-0.000194071
0.00014165
-0.00019996
0.000145595
-0.000210602
0.000119362
-0.000174405
6.4774e-05
-4.27918e-05
2.31253e-05
7.00014e-05
4.39169e-07
0.000163673
-1.74534e-06
0.000232303
9.54945e-06
0.000244746
1.7497e-05
0.000219493
1.5811e-05
0.000188561
8.9378e-06
0.000166601
0.000154787
4.74648e-06
-2.52497e-05
9.63575e-06
-2.57717e-05
1.47902e-05
-2.67845e-05
2.01633e-05
-2.80116e-05
2.57243e-05
-2.94735e-05
3.1662e-05
-3.18395e-05
3.79388e-05
-3.41579e-05
4.50844e-05
-3.90209e-05
5.34574e-05
-4.27945e-05
6.19475e-05
-5.02987e-05
7.37591e-05
-5.69239e-05
8.19862e-05
-6.17171e-05
9.67027e-05
-7.92079e-05
0.000110096
-9.45683e-05
0.000121183
-8.85499e-05
0.000115709
-5.91999e-05
9.372e-05
-2.05678e-05
8.3763e-05
-1.22652e-06
7.73745e-05
2.53991e-05
8.10543e-05
4.18259e-05
9.68251e-05
8.65632e-05
0.000145816
0.00010568
0.00023101
0.000304886
4.48393e-06
-2.97336e-05
9.16112e-06
-3.04489e-05
1.41113e-05
-3.17347e-05
1.92201e-05
-3.31204e-05
2.44243e-05
-3.46777e-05
3.02697e-05
-3.76849e-05
3.62132e-05
-4.01014e-05
4.16124e-05
-4.44201e-05
4.74687e-05
-4.86508e-05
5.62694e-05
-5.90994e-05
6.65321e-05
-6.71866e-05
8.21835e-05
-7.73685e-05
9.9046e-05
-9.60704e-05
0.000109371
-0.000104893
0.000111918
-9.10967e-05
9.94631e-05
-4.67451e-05
8.90421e-05
-1.01468e-05
8.63598e-05
1.45577e-06
8.73995e-05
2.43594e-05
9.9643e-05
2.95824e-05
0.00012394
6.22658e-05
0.000170642
5.89786e-05
0.00013059
0.000271062
4.03403e-06
-3.37676e-05
8.37217e-06
-3.47871e-05
1.27052e-05
-3.60678e-05
1.74354e-05
-3.78506e-05
2.16749e-05
-3.89172e-05
2.69422e-05
-4.29522e-05
3.36908e-05
-4.685e-05
4.29946e-05
-5.37239e-05
5.56227e-05
-6.12789e-05
6.86926e-05
-7.21694e-05
8.04357e-05
-7.89296e-05
9.91042e-05
-9.60369e-05
0.000108807
-0.000105773
0.000109999
-0.000106086
0.000108521
-8.96184e-05
0.00010183
-4.00536e-05
9.69728e-05
-5.28996e-06
9.66319e-05
1.79665e-06
0.000104247
1.67445e-05
0.000117667
1.61616e-05
0.00014354
3.63938e-05
0.000171999
3.05187e-05
5.75351e-05
0.000245054
6.02017e-06
-3.97878e-05
1.23332e-05
-4.11001e-05
1.88589e-05
-4.25935e-05
2.67818e-05
-4.57735e-05
3.54399e-05
-4.75753e-05
4.52514e-05
-5.27637e-05
5.64187e-05
-5.80173e-05
6.83141e-05
-6.56192e-05
7.98756e-05
-7.28404e-05
9.04987e-05
-8.27925e-05
0.00010014
-8.8571e-05
0.000105417
-0.000101314
0.000108071
-0.000108426
0.000108142
-0.000106157
0.000104459
-8.5935e-05
0.000100097
-3.56922e-05
9.96673e-05
-4.86e-06
0.000102643
-1.17895e-06
0.000112286
7.10168e-06
0.000124211
4.23644e-06
0.000150123
1.04814e-05
0.000174682
5.96032e-06
1.36795e-05
0.000218537
9.75101e-06
-4.95388e-05
1.88451e-05
-5.01941e-05
2.77924e-05
-5.15409e-05
3.65191e-05
-5.45002e-05
4.63442e-05
-5.74003e-05
5.56787e-05
-6.20982e-05
6.49642e-05
-6.73028e-05
7.29833e-05
-7.36382e-05
8.01108e-05
-7.99679e-05
8.55682e-05
-8.82499e-05
9.0327e-05
-9.33299e-05
9.51759e-05
-0.000106163
9.84529e-05
-0.000111703
9.96947e-05
-0.000107399
9.46826e-05
-8.09229e-05
9.16876e-05
-3.26972e-05
9.51667e-05
-8.33913e-06
0.000101115
-7.12678e-06
0.000112312
-4.09536e-06
0.000126551
-1.00032e-05
0.000149147
-1.21141e-05
0.000170339
-1.52321e-05
-1.95688e-05
0.000203587
7.57871e-06
-5.71175e-05
1.53851e-05
-5.80005e-05
2.35782e-05
-5.9734e-05
3.13634e-05
-6.22854e-05
3.94678e-05
-6.55047e-05
4.69564e-05
-6.95868e-05
5.40457e-05
-7.43922e-05
6.03e-05
-7.98925e-05
6.64289e-05
-8.60968e-05
7.2237e-05
-9.4058e-05
7.80082e-05
-9.91011e-05
8.40003e-05
-0.000112155
8.81021e-05
-0.000115805
8.92427e-05
-0.00010854
8.3465e-05
-7.51452e-05
8.18884e-05
-3.11206e-05
8.80473e-05
-1.4498e-05
9.64697e-05
-1.55493e-05
0.000109136
-1.6762e-05
0.000124268
-2.51343e-05
0.000142788
-3.06345e-05
0.000163439
-3.58835e-05
-4.56016e-05
0.000189472
7.29548e-06
-6.4413e-05
1.45969e-05
-6.53019e-05
2.17511e-05
-6.68882e-05
2.8613e-05
-6.91474e-05
3.54184e-05
-7.231e-05
4.19616e-05
-7.61301e-05
4.84955e-05
-8.0926e-05
5.49607e-05
-8.63578e-05
6.13098e-05
-9.24459e-05
6.72973e-05
-0.000100045
7.34604e-05
-0.000105264
7.92249e-05
-0.00011792
8.27596e-05
-0.00011934
8.14281e-05
-0.000107208
7.35716e-05
-6.72887e-05
7.33683e-05
-3.09173e-05
8.05775e-05
-2.17072e-05
9.02948e-05
-2.52666e-05
0.000103493
-2.99602e-05
0.000118378
-4.0019e-05
0.000134735
-4.69924e-05
0.000153896
-5.5044e-05
-6.62532e-05
0.000174547
6.36186e-06
-7.07749e-05
1.26898e-05
-7.16299e-05
1.8935e-05
-7.31333e-05
2.51618e-05
-7.53743e-05
3.13368e-05
-7.8485e-05
3.74619e-05
-8.22551e-05
4.33666e-05
-8.68307e-05
4.91039e-05
-9.20952e-05
5.47345e-05
-9.80764e-05
5.95644e-05
-0.000104875
6.459e-05
-0.00011029
6.98467e-05
-0.000123176
7.28618e-05
-0.000122355
6.88996e-05
-0.000103246
6.12889e-05
-5.9678e-05
6.38278e-05
-3.34561e-05
7.22309e-05
-3.01103e-05
8.31649e-05
-3.62006e-05
9.62468e-05
-4.30422e-05
0.000110249
-5.40214e-05
0.000125262
-6.20056e-05
0.000142198
-7.19795e-05
-8.4766e-05
0.000160711
5.63188e-06
-7.64068e-05
1.12375e-05
-7.72355e-05
1.67731e-05
-7.86689e-05
2.22286e-05
-8.08298e-05
2.74697e-05
-8.37261e-05
3.26049e-05
-8.73903e-05
3.75457e-05
-9.17716e-05
4.23398e-05
-9.68892e-05
4.70507e-05
-0.000102787
5.1776e-05
-0.000109601
5.72328e-05
-0.000115747
6.21541e-05
-0.000128098
6.37582e-05
-0.000123959
5.63826e-05
-9.58706e-05
5.03607e-05
-5.36562e-05
5.50264e-05
-3.81218e-05
6.41987e-05
-3.92826e-05
7.54987e-05
-4.75006e-05
8.78647e-05
-5.54082e-05
0.000100568
-6.67252e-05
0.000114242
-7.56786e-05
0.000129782
-8.75204e-05
-0.000102687
0.000147704
4.89513e-06
-8.13019e-05
9.75373e-06
-8.20941e-05
1.45301e-05
-8.34453e-05
1.91896e-05
-8.54893e-05
2.37663e-05
-8.83028e-05
2.82071e-05
-9.18311e-05
3.25364e-05
-9.61009e-05
3.67468e-05
-0.0001011
4.0871e-05
-0.000106912
4.48107e-05
-0.00011354
4.949e-05
-0.000120426
5.36808e-05
-0.000132288
5.26998e-05
-0.000122978
4.28014e-05
-8.59722e-05
3.98704e-05
-5.07251e-05
4.64098e-05
-4.46612e-05
5.64915e-05
-4.93643e-05
6.71872e-05
-5.81963e-05
7.83815e-05
-6.66026e-05
8.9536e-05
-7.78797e-05
0.000101823
-8.79652e-05
0.000116203
-0.000101901
-0.000119423
0.000132939
4.15506e-06
-8.54569e-05
8.2925e-06
-8.62315e-05
1.2375e-05
-8.75278e-05
1.63525e-05
-8.94668e-05
2.01816e-05
-9.21318e-05
2.38596e-05
-9.55092e-05
2.73359e-05
-9.95772e-05
3.06288e-05
-0.000104393
3.38063e-05
-0.000110089
3.6907e-05
-0.000116641
4.08743e-05
-0.000124393
4.42922e-05
-0.000135706
3.93341e-05
-0.00011802
2.92314e-05
-7.58695e-05
3.04497e-05
-5.19435e-05
3.85317e-05
-5.27432e-05
4.88525e-05
-5.96851e-05
5.83919e-05
-6.77357e-05
6.81623e-05
-7.6373e-05
7.74996e-05
-8.7217e-05
8.79939e-05
-9.84596e-05
0.000100115
-0.000114022
-0.000134199
0.000114891
3.3855e-06
-8.88424e-05
6.76454e-06
-8.96106e-05
1.01477e-05
-9.0911e-05
1.34981e-05
-9.28171e-05
1.66838e-05
-9.53176e-05
1.96546e-05
-9.848e-05
2.2396e-05
-0.000102319
2.48531e-05
-0.00010685
2.69772e-05
-0.000112213
2.89326e-05
-0.000118597
3.16473e-05
-0.000127108
3.36535e-05
-0.000137713
2.38753e-05
-0.000108241
1.6275e-05
-6.82693e-05
2.22401e-05
-5.79086e-05
3.1753e-05
-6.22561e-05
4.11413e-05
-6.90734e-05
4.955e-05
-7.61443e-05
5.7753e-05
-8.45759e-05
6.5149e-05
-9.46131e-05
7.39459e-05
-0.000107256
8.24052e-05
-0.000122481
-0.000145431
9.36375e-05
2.85925e-06
-9.17017e-05
5.65833e-06
-9.24096e-05
8.37067e-06
-9.36233e-05
1.10365e-05
-9.54829e-05
1.35835e-05
-9.78646e-05
1.59425e-05
-0.000100839
1.80366e-05
-0.000104413
1.97061e-05
-0.000108519
2.0679e-05
-0.000113186
2.08057e-05
-0.000118723
2.01025e-05
-0.000126405
1.62695e-05
-0.00013388
6.28001e-06
-9.82519e-05
5.80108e-06
-6.77903e-05
1.57222e-05
-6.78297e-05
2.58263e-05
-7.23602e-05
3.41155e-05
-7.73625e-05
4.16596e-05
-8.36885e-05
4.83065e-05
-9.12228e-05
5.38957e-05
-0.000100202
6.06175e-05
-0.000113978
5.99893e-05
-0.000121853
-0.000180929
9.54866e-05
2.50617e-06
-9.42079e-05
4.9163e-06
-9.48198e-05
7.16312e-06
-9.58701e-05
9.19949e-06
-9.75193e-05
1.11004e-05
-9.97655e-05
1.28763e-05
-0.000102615
1.44266e-05
-0.000105963
1.545e-05
-0.000109543
1.53265e-05
-0.000113062
1.293e-05
-0.000116327
5.36403e-06
-0.000118839
-7.88009e-06
-0.000120635
-1.00217e-05
-9.61103e-05
-6.73086e-08
-7.77448e-05
1.22001e-05
-8.00971e-05
2.12437e-05
-8.14038e-05
2.86982e-05
-8.48171e-05
3.53925e-05
-9.03827e-05
3.9546e-05
-9.53763e-05
3.82937e-05
-9.89499e-05
4.30051e-05
-0.00011869
4.44192e-05
-0.000123267
-0.000107775
-2.87344e-05
1.89209e-06
-9.61e-05
3.65882e-06
-9.65865e-05
5.18194e-06
-9.73933e-05
6.3063e-06
-9.86437e-05
7.05848e-06
-0.000100518
7.80503e-06
-0.000103361
9.19497e-06
-0.000107353
1.18937e-05
-0.000112241
1.39661e-05
-0.000115135
7.83575e-06
-0.000110196
-1.5201e-05
-9.5802e-05
-2.52765e-05
-0.00011056
-1.44846e-05
-0.000106902
3.0395e-07
-9.25333e-05
1.07916e-05
-9.05848e-05
1.72014e-05
-8.78136e-05
2.02112e-05
-8.78269e-05
2.5357e-05
-9.55286e-05
2.52003e-05
-9.52196e-05
2.02018e-05
-9.39514e-05
-1.49553e-05
-8.35325e-05
-7.70412e-05
-6.11807e-05
-5.89199e-05
-0.000125897
1.04722e-06
-9.71472e-05
2.05711e-06
-9.75964e-05
3.14525e-06
-9.84814e-05
4.38217e-06
-9.98806e-05
6.32744e-06
-0.000102463
9.04326e-06
-0.000106077
1.02425e-05
-0.000108552
4.45511e-06
-0.000106454
-1.02891e-05
-0.000100391
-3.26918e-05
-8.77937e-05
-5.22229e-05
-7.6271e-05
-4.3388e-05
-0.000119395
-1.60212e-05
-0.000134269
4.96798e-07
-0.000109051
5.86518e-06
-9.59532e-05
7.36977e-06
-8.93182e-05
5.85407e-06
-8.63112e-05
-1.14087e-05
-7.82658e-05
-4.01785e-05
-6.64498e-05
-6.91943e-05
-6.49356e-05
-7.5839e-05
-7.68878e-05
-7.36171e-05
-6.34026e-05
-7.56044e-06
-0.000124977
-7.16529e-06
-8.99819e-05
-1.45564e-05
-9.02053e-05
-2.23299e-05
-9.07079e-05
-3.03311e-05
-9.18794e-05
-3.9105e-05
-9.3689e-05
-4.76038e-05
-9.75785e-05
-5.64135e-05
-9.97423e-05
-6.13865e-05
-0.000101481
-5.26499e-05
-0.000109127
-2.77977e-05
-0.000112646
1.43011e-05
-0.00011837
2.78903e-05
-0.000132984
4.87364e-06
-0.000111252
-2.6619e-05
-7.75587e-05
-5.45275e-05
-6.80447e-05
-7.661e-05
-6.72357e-05
-9.13824e-05
-7.15388e-05
-8.93624e-05
-8.02857e-05
-5.80111e-05
-9.78011e-05
-3.03813e-05
-9.25654e-05
-4.75185e-05
-5.97506e-05
-0.000101249
-9.67207e-06
2.44372e-05
-0.000133247
-4.70517e-06
-8.52767e-05
-8.26769e-06
-8.66428e-05
-1.08963e-05
-8.80792e-05
-1.26582e-05
-9.01176e-05
-1.35168e-05
-9.28304e-05
-1.50124e-05
-9.60829e-05
-1.59301e-05
-9.88246e-05
-1.63088e-05
-0.000101102
-2.11899e-05
-0.000104246
-2.74955e-05
-0.00010634
-3.79878e-05
-0.000107878
-5.99999e-05
-0.000110972
-7.52964e-05
-9.59558e-05
-7.65551e-05
-7.63e-05
-7.10147e-05
-7.35851e-05
-5.91574e-05
-7.9093e-05
-4.48872e-05
-8.58091e-05
-3.40948e-05
-9.10781e-05
-4.08887e-05
-9.10072e-05
-6.70711e-05
-6.6383e-05
-0.000111341
-1.54812e-05
-0.000134271
1.32579e-05
2.25408e-05
-0.000132374
-7.72853e-07
-8.45038e-05
-1.49793e-06
-8.59177e-05
-3.01783e-06
-8.65593e-05
-5.56169e-06
-8.75737e-05
-9.38234e-06
-8.90097e-05
-1.45327e-05
-9.09326e-05
-2.05395e-05
-9.28177e-05
-2.69596e-05
-9.46824e-05
-3.49144e-05
-9.62914e-05
-4.45049e-05
-9.67498e-05
-5.47917e-05
-9.75907e-05
-6.64495e-05
-9.9314e-05
-7.25161e-05
-8.98892e-05
-6.89357e-05
-7.98805e-05
-6.65168e-05
-7.60041e-05
-6.9993e-05
-7.56168e-05
-7.81518e-05
-7.76502e-05
-8.98897e-05
-7.93403e-05
-0.000108506
-7.23913e-05
-0.000129266
-4.56228e-05
-0.000137299
-7.44787e-06
-0.000132801
8.75992e-06
1.56553e-05
-0.000125916
-2.93172e-06
-8.15721e-05
-5.67473e-06
-8.31747e-05
-8.52085e-06
-8.37132e-05
-1.15748e-05
-8.45197e-05
-1.49969e-05
-8.55877e-05
-1.91191e-05
-8.68103e-05
-2.39582e-05
-8.79787e-05
-2.96648e-05
-8.89757e-05
-3.6365e-05
-8.95912e-05
-4.35004e-05
-8.96144e-05
-5.11806e-05
-8.99106e-05
-6.10556e-05
-8.94389e-05
-6.84555e-05
-8.24893e-05
-7.30601e-05
-7.52758e-05
-7.80771e-05
-7.09872e-05
-8.47351e-05
-6.89588e-05
-9.42572e-05
-6.81281e-05
-0.000107766
-6.58318e-05
-0.000123042
-5.71146e-05
-0.000131688
-3.69768e-05
-0.000128609
-1.05272e-05
-0.00012261
2.7607e-06
8.53725e-06
-0.000115492
-2.4122e-06
-7.91599e-05
-4.95333e-06
-8.06335e-05
-7.71885e-06
-8.09477e-05
-1.07958e-05
-8.14428e-05
-1.43512e-05
-8.20323e-05
-1.85163e-05
-8.26452e-05
-2.33517e-05
-8.31433e-05
-2.89283e-05
-8.33991e-05
-3.52605e-05
-8.3259e-05
-4.21846e-05
-8.26904e-05
-5.02326e-05
-8.18626e-05
-5.96765e-05
-7.9995e-05
-6.64136e-05
-7.57522e-05
-7.06704e-05
-7.10191e-05
-7.49314e-05
-6.67262e-05
-8.08544e-05
-6.30358e-05
-8.98056e-05
-5.91768e-05
-0.00010183
-5.38079e-05
-0.000113158
-4.57859e-05
-0.000117752
-3.23828e-05
-0.000114314
-1.39658e-05
-0.00010886
-2.6932e-06
3.71433e-06
-0.000104037
-2.74931e-06
-7.64106e-05
-5.59683e-06
-7.7786e-05
-8.62306e-06
-7.79215e-05
-1.19162e-05
-7.81496e-05
-1.55782e-05
-7.83704e-05
-1.96862e-05
-7.85372e-05
-2.42821e-05
-7.85473e-05
-2.93724e-05
-7.83088e-05
-3.48875e-05
-7.7744e-05
-4.07731e-05
-7.68048e-05
-4.72472e-05
-7.53885e-05
-5.41354e-05
-7.31069e-05
-6.00081e-05
-6.98794e-05
-6.51427e-05
-6.58846e-05
-7.00428e-05
-6.1826e-05
-7.54425e-05
-5.76362e-05
-8.19326e-05
-5.26867e-05
-8.94892e-05
-4.62513e-05
-9.70179e-05
-3.82573e-05
-0.000101458
-2.79428e-05
-9.98964e-05
-1.55272e-05
-9.69271e-05
-5.6625e-06
2.06988e-06
-9.52827e-05
-2.93207e-06
-7.34785e-05
-5.95591e-06
-7.47622e-05
-9.1112e-06
-7.47662e-05
-1.24607e-05
-7.48001e-05
-1.60471e-05
-7.4784e-05
-1.99076e-05
-7.46767e-05
-2.40521e-05
-7.44028e-05
-2.84731e-05
-7.38878e-05
-3.31544e-05
-7.30626e-05
-3.81157e-05
-7.18435e-05
-4.34714e-05
-7.00327e-05
-4.9142e-05
-6.74363e-05
-5.47712e-05
-6.42503e-05
-6.01294e-05
-6.05264e-05
-6.56084e-05
-5.6347e-05
-7.15283e-05
-5.17163e-05
-7.75162e-05
-4.66988e-05
-8.22979e-05
-4.14696e-05
-8.56388e-05
-3.49164e-05
-8.8054e-05
-2.55276e-05
-8.83817e-05
-1.51996e-05
-8.76422e-05
-6.40194e-06
1.08388e-06
-8.66563e-05
-2.94454e-06
-7.0534e-05
-5.98521e-06
-7.17215e-05
-9.12295e-06
-7.16284e-05
-1.24127e-05
-7.15103e-05
-1.58919e-05
-7.13048e-05
-1.95969e-05
-7.09717e-05
-2.35453e-05
-7.04544e-05
-2.77391e-05
-6.96941e-05
-3.21822e-05
-6.86195e-05
-3.69025e-05
-6.71232e-05
-4.18458e-05
-6.50895e-05
-4.67667e-05
-6.25154e-05
-5.15347e-05
-5.94822e-05
-5.60088e-05
-5.60523e-05
-6.01605e-05
-5.21953e-05
-6.40889e-05
-4.7788e-05
-6.80918e-05
-4.26959e-05
-7.26998e-05
-3.68615e-05
-7.76538e-05
-2.99625e-05
-8.07881e-05
-2.23932e-05
-8.12499e-05
-1.47378e-05
-8.02083e-05
-7.44352e-06
8.5887e-08
-7.92103e-05
-2.89074e-06
-6.76432e-05
-5.86135e-06
-6.87509e-05
-8.91231e-06
-6.85775e-05
-1.20846e-05
-6.8338e-05
-1.54155e-05
-6.79739e-05
-1.89371e-05
-6.74501e-05
-2.26699e-05
-6.67216e-05
-2.66235e-05
-6.57404e-05
-3.07864e-05
-6.44566e-05
-3.51011e-05
-6.28085e-05
-3.9448e-05
-6.07427e-05
-4.37203e-05
-5.8243e-05
-4.79146e-05
-5.52879e-05
-5.2126e-05
-5.18409e-05
-5.63622e-05
-4.79591e-05
-6.05477e-05
-4.36025e-05
-6.44362e-05
-3.88074e-05
-6.77721e-05
-3.35257e-05
-7.0131e-05
-2.76036e-05
-7.15202e-05
-2.1004e-05
-7.23151e-05
-1.39429e-05
-7.27878e-05
-6.97085e-06
-3.85059e-07
-7.23169e-05
-2.82961e-06
-6.48136e-05
-5.73912e-06
-6.58414e-05
-8.70972e-06
-6.56069e-05
-1.17737e-05
-6.5274e-05
-1.49528e-05
-6.47949e-05
-1.82622e-05
-6.41407e-05
-2.1707e-05
-6.32767e-05
-2.52847e-05
-6.21628e-05
-2.89889e-05
-6.07523e-05
-3.27995e-05
-5.89979e-05
-3.66726e-05
-5.68697e-05
-4.05556e-05
-5.436e-05
-4.43779e-05
-5.14657e-05
-4.80433e-05
-4.81755e-05
-5.1546e-05
-4.44564e-05
-5.48405e-05
-4.0308e-05
-5.79338e-05
-3.57141e-05
-6.08217e-05
-3.06377e-05
-6.33715e-05
-2.50539e-05
-6.52623e-05
-1.91132e-05
-6.61761e-05
-1.30291e-05
-6.62395e-05
-6.90743e-06
-8.15321e-07
-6.58093e-05
-2.73021e-06
-6.20834e-05
-5.52355e-06
-6.3048e-05
-8.36501e-06
-6.27654e-05
-1.12775e-05
-6.23615e-05
-1.42796e-05
-6.17928e-05
-1.73834e-05
-6.10369e-05
-2.05942e-05
-6.0066e-05
-2.39079e-05
-5.88491e-05
-2.73069e-05
-5.73534e-05
-3.0756e-05
-5.55488e-05
-3.42123e-05
-5.34134e-05
-3.76426e-05
-5.09296e-05
-4.10261e-05
-4.80823e-05
-4.43359e-05
-4.48658e-05
-4.75138e-05
-4.12785e-05
-5.0509e-05
-3.73128e-05
-5.32529e-05
-3.29702e-05
-5.56459e-05
-2.82447e-05
-5.75464e-05
-2.31534e-05
-5.89016e-05
-1.77579e-05
-5.97488e-05
-1.21818e-05
-6.00666e-05
-6.5897e-06
-1.03776e-06
-5.98441e-05
-2.60076e-06
-5.94826e-05
-5.26011e-06
-6.03887e-05
-7.95434e-06
-6.00712e-05
-1.07018e-05
-5.9614e-05
-1.35147e-05
-5.89799e-05
-1.64002e-05
-5.81514e-05
-1.93595e-05
-5.71067e-05
-2.23867e-05
-5.58219e-05
-2.54673e-05
-5.42728e-05
-2.85781e-05
-5.24379e-05
-3.16909e-05
-5.03006e-05
-3.47726e-05
-4.78479e-05
-3.77848e-05
-4.50701e-05
-4.06912e-05
-4.19593e-05
-4.34583e-05
-3.85114e-05
-4.60423e-05
-3.47289e-05
-4.8396e-05
-3.06164e-05
-5.04551e-05
-2.61855e-05
-5.2143e-05
-2.14654e-05
-5.33865e-05
-1.65145e-05
-5.41457e-05
-1.14227e-05
-5.44392e-05
-6.29618e-06
-1.17736e-06
-5.42996e-05
-2.45712e-06
-5.70255e-05
-4.96335e-06
-5.78824e-05
-7.49505e-06
-5.75395e-05
-1.00657e-05
-5.70433e-05
-1.26832e-05
-5.63624e-05
-1.53516e-05
-5.5483e-05
-1.80698e-05
-5.43885e-05
-2.08307e-05
-5.30609e-05
-2.36207e-05
-5.14828e-05
-2.64204e-05
-4.96383e-05
-2.92066e-05
-4.75144e-05
-3.19538e-05
-4.51007e-05
-3.46337e-05
-4.23901e-05
-3.72134e-05
-3.93797e-05
-3.96551e-05
-3.60697e-05
-4.19193e-05
-3.24648e-05
-4.39607e-05
-2.85751e-05
-4.57277e-05
-2.44185e-05
-4.71677e-05
-2.00254e-05
-4.82412e-05
-1.54409e-05
-4.89313e-05
-1.07325e-05
-4.92419e-05
-5.98565e-06
-1.24335e-06
-4.91759e-05
-2.2963e-06
-5.47292e-05
-4.63597e-06
-5.55428e-05
-6.99313e-06
-5.51823e-05
-9.37784e-06
-5.46586e-05
-1.17951e-05
-5.39451e-05
-1.42467e-05
-5.30314e-05
-1.67302e-05
-5.1905e-05
-1.92384e-05
-5.05527e-05
-2.17596e-05
-4.89617e-05
-2.42773e-05
-4.71205e-05
-2.6772e-05
-4.50198e-05
-2.92203e-05
-4.26524e-05
-3.15963e-05
-4.00142e-05
-3.38716e-05
-3.71044e-05
-3.60152e-05
-3.3926e-05
-3.79933e-05
-3.04867e-05
-3.97691e-05
-2.67993e-05
-4.13034e-05
-2.28842e-05
-4.25584e-05
-1.87704e-05
-4.35033e-05
-1.4496e-05
-4.41232e-05
-1.01126e-05
-4.44221e-05
-5.6868e-06
-1.26287e-06
-4.44026e-05
-2.12625e-06
-5.2603e-05
-4.28978e-06
-5.33792e-05
-6.46482e-06
-5.30072e-05
-8.65868e-06
-5.24648e-05
-1.08741e-05
-5.17297e-05
-1.3111e-05
-5.07945e-05
-1.53664e-05
-4.96497e-05
-1.76331e-05
-4.82859e-05
-1.99008e-05
-4.6694e-05
-2.21555e-05
-4.48659e-05
-2.43801e-05
-4.27951e-05
-2.6555e-05
-4.04775e-05
-2.86577e-05
-3.79115e-05
-3.06634e-05
-3.50986e-05
-3.25454e-05
-3.20441e-05
-3.4275e-05
-2.87571e-05
-3.58221e-05
-2.52521e-05
-3.7157e-05
-2.15493e-05
-3.82517e-05
-1.76757e-05
-3.90839e-05
-1.36638e-05
-3.96417e-05
-9.55476e-06
-3.99261e-05
-5.40236e-06
-1.24937e-06
-3.99397e-05
-1.94854e-06
-5.06544e-05
-3.92932e-06
-5.13984e-05
-5.91709e-06
-5.10195e-05
-7.91706e-06
-5.04648e-05
-9.93037e-06
-4.97164e-05
-1.1956e-05
-4.87689e-05
-1.39902e-05
-4.76155e-05
-1.60265e-05
-4.62496e-05
-1.80555e-05
-4.4665e-05
-2.00651e-05
-4.28563e-05
-2.20404e-05
-4.08198e-05
-2.39645e-05
-3.85535e-05
-2.58181e-05
-3.6058e-05
-2.75801e-05
-3.33366e-05
-2.92281e-05
-3.03961e-05
-3.07382e-05
-2.72469e-05
-3.20866e-05
-2.39037e-05
-3.32498e-05
-2.03862e-05
-3.42067e-05
-1.67188e-05
-3.49402e-05
-1.29302e-05
-3.54407e-05
-9.0543e-06
-3.57078e-05
-5.1352e-06
-1.21377e-06
-3.57434e-05
-1.76604e-06
-4.88884e-05
-3.55971e-06
-4.96048e-05
-5.35712e-06
-4.92221e-05
-7.16194e-06
-4.866e-05
-8.97415e-06
-4.79042e-05
-1.0792e-05
-4.6951e-05
-1.26116e-05
-4.57959e-05
-1.44268e-05
-4.44344e-05
-1.62294e-05
-4.28624e-05
-1.80087e-05
-4.1077e-05
-1.9752e-05
-3.90765e-05
-2.14447e-05
-3.68608e-05
-2.30704e-05
-3.44322e-05
-2.46115e-05
-3.17955e-05
-2.60491e-05
-2.89585e-05
-2.73639e-05
-2.59321e-05
-2.85366e-05
-2.27311e-05
-2.95487e-05
-1.9374e-05
-3.03843e-05
-1.58832e-05
-3.10301e-05
-1.22844e-05
-3.14779e-05
-8.60646e-06
-3.17268e-05
-4.8863e-06
-1.16148e-06
-3.17791e-05
-1.58033e-06
-4.7308e-05
-3.18419e-06
-4.80009e-05
-4.78962e-06
-4.76166e-05
-6.39916e-06
-4.70504e-05
-8.012e-06
-4.62914e-05
-9.62592e-06
-4.53371e-05
-1.1237e-05
-4.41848e-05
-1.28398e-05
-4.28316e-05
-1.44267e-05
-4.12755e-05
-1.59886e-05
-3.95151e-05
-1.75146e-05
-3.75504e-05
-1.89924e-05
-3.5383e-05
-2.04081e-05
-3.30165e-05
-2.1747e-05
-3.04566e-05
-2.29937e-05
-2.77119e-05
-2.41323e-05
-2.47935e-05
-2.51475e-05
-2.17159e-05
-2.6025e-05
-1.84965e-05
-2.67521e-05
-1.51561e-05
-2.73186e-05
-1.17178e-05
-2.7718e-05
-8.20707e-06
-2.79489e-05
-4.65541e-06
-1.09743e-06
-2.80129e-05
-1.39254e-06
-4.59155e-05
-2.80507e-06
-4.65884e-05
-4.21793e-06
-4.62038e-05
-5.63289e-06
-4.56354e-05
-7.04855e-06
-4.48757e-05
-8.4624e-06
-4.39233e-05
-9.8707e-06
-4.27765e-05
-1.12684e-05
-4.1434e-05
-1.26489e-05
-3.9895e-05
-1.40045e-05
-3.81596e-05
-1.53258e-05
-3.62291e-05
-1.66024e-05
-3.41064e-05
-1.7823e-05
-3.17959e-05
-1.89754e-05
-2.93043e-05
-2.00468e-05
-2.66404e-05
-2.10247e-05
-2.38156e-05
-2.18969e-05
-2.08437e-05
-2.26522e-05
-1.77412e-05
-2.32809e-05
-1.45275e-05
-2.3775e-05
-1.12236e-05
-2.41295e-05
-7.85263e-06
-2.43428e-05
-4.44206e-06
-1.02349e-06
-2.44168e-05
-1.20283e-06
-4.47127e-05
-2.42346e-06
-4.53677e-05
-3.64399e-06
-4.49833e-05
-4.8656e-06
-4.44138e-05
-6.08651e-06
-4.36548e-05
-7.30404e-06
-4.27057e-05
-8.51466e-06
-4.15658e-05
-9.71386e-06
-4.02348e-05
-1.08961e-05
-3.87128e-05
-1.20546e-05
-3.70011e-05
-1.31817e-05
-3.5102e-05
-1.42689e-05
-3.30192e-05
-1.53066e-05
-3.07582e-05
-1.62851e-05
-2.83259e-05
-1.71941e-05
-2.57314e-05
-1.80235e-05
-2.29861e-05
-1.8764e-05
-2.01032e-05
-1.94069e-05
-1.70984e-05
-1.99448e-05
-1.39896e-05
-2.0372e-05
-1.07965e-05
-2.06843e-05
-7.54027e-06
-2.08809e-05
-4.24548e-06
-9.40957e-07
-2.09634e-05
-1.01007e-06
-4.37026e-05
-2.03947e-06
-4.43383e-05
-3.06828e-06
-4.39544e-05
-4.09791e-06
-4.33842e-05
-5.12636e-06
-4.26263e-05