/*--------------------------------*- C++ -*----------------------------------*\
| =========                 |                                                 |
| \\      /  F ield         | OpenFOAM: The Open Source CFD Toolbox           |
|  \\    /   O peration     | Version:  2.4.0                                 |
|   \\  /    A nd           | Web:      www.OpenFOAM.org                      |
|    \\/     M anipulation  |                                                 |
\*---------------------------------------------------------------------------*/
FoamFile
{
    version     2.0;
    format      ascii;
    class       surfaceScalarField;
    location    "0.15";
    object      phi.mercury;
}
// * * * * * * * * * * * * * * * * * * * * * * * * * * * * * * * * * * * * * //

dimensions      [0 3 -1 0 0 0 0];

internalField   nonuniform List<scalar> 
4432
(
2.67193e-06
-2.67193e-06
5.39016e-06
-2.71824e-06
8.20012e-06
-2.80996e-06
1.11519e-05
-2.95179e-06
1.4286e-05
-3.13411e-06
1.77015e-05
-3.41545e-06
2.13878e-05
-3.68628e-06
2.57294e-05
-4.34163e-06
2.97396e-05
-4.0102e-06
3.64102e-05
-6.67065e-06
4.22586e-05
-5.84841e-06
4.7997e-05
-5.73838e-06
5.57446e-05
-7.74758e-06
6.58117e-05
-1.00671e-05
7.75506e-05
-1.17389e-05
8.98978e-05
-1.23474e-05
0.000101167
-1.12694e-05
0.000109953
-8.78794e-06
0.000115146
-5.19852e-06
0.000115996
-8.9202e-07
0.000108939
6.76958e-06
8.51821e-05
1.98973e-05
7.27859e-05
2.66291e-06
-5.33483e-06
5.37217e-06
-5.4275e-06
8.17287e-06
-5.61066e-06
1.11142e-05
-5.89311e-06
1.42342e-05
-6.25417e-06
1.76397e-05
-6.82093e-06
2.13058e-05
-7.35234e-06
2.55377e-05
-8.57353e-06
2.97965e-05
-8.26899e-06
3.61675e-05
-1.30417e-05
4.17597e-05
-1.14406e-05
4.75244e-05
-1.1503e-05
5.62859e-05
-1.65091e-05
6.76114e-05
-2.13926e-05
7.94447e-05
-2.35725e-05
9.03056e-05
-2.32104e-05
9.94974e-05
-2.04739e-05
0.000106804
-1.61434e-05
0.000112136
-1.06935e-05
0.000115309
-4.8841e-06
0.000114737
1.17225e-06
9.26947e-05
2.01163e-05
0.000137438
2.64234e-06
-7.97718e-06
5.33087e-06
-8.11602e-06
8.11049e-06
-8.39028e-06
1.10275e-05
-8.81014e-06
1.41193e-05
-9.34592e-06
1.74931e-05
-1.01948e-05
2.11266e-05
-1.09859e-05
2.52431e-05
-1.269e-05
2.97304e-05
-1.27563e-05
3.56211e-05
-1.89324e-05
4.11001e-05
-1.69196e-05
4.70112e-05
-1.74141e-05
5.6467e-05
-2.59649e-05
6.83473e-05
-3.32736e-05
7.99545e-05
-3.51937e-05
8.97621e-05
-3.31069e-05
9.73994e-05
-2.85712e-05
0.000102723
-2.31224e-05
0.000105686
-1.92084e-05
0.000106156
-2.05858e-05
0.000106308
-2.59761e-05
9.58379e-05
-9.86868e-06
0.000156383
2.61164e-06
-1.05888e-05
5.26938e-06
-1.07738e-05
8.01814e-06
-1.1139e-05
1.08989e-05
-1.16909e-05
1.3951e-05
-1.23981e-05
1.72652e-05
-1.35089e-05
2.08436e-05
-1.45643e-05
2.48778e-05
-1.67243e-05
2.94015e-05
-1.728e-05
3.48489e-05
-2.43798e-05
4.02478e-05
-2.23185e-05
4.67013e-05
-2.38676e-05
5.68009e-05
-3.60657e-05
6.87092e-05
-4.52384e-05
7.89295e-05
-4.58769e-05
8.61428e-05
-4.24436e-05
9.08409e-05
-4.03366e-05
9.27696e-05
-4.22131e-05
9.4318e-05
-5.24127e-05
9.78197e-05
-6.04668e-05
0.000101195
-5.61954e-05
0.000101173
-3.24958e-05
0.000162158
2.57067e-06
-1.31595e-05
5.18764e-06
-1.33907e-05
7.89619e-06
-1.38476e-05
1.073e-05
-1.45247e-05
1.37275e-05
-1.53956e-05
1.69668e-05
-1.67482e-05
2.04705e-05
-1.80679e-05
2.44039e-05
-2.06576e-05
2.89276e-05
-2.18038e-05
3.37992e-05
-2.92514e-05
3.9245e-05
-2.77643e-05
4.65204e-05
-3.11425e-05
5.66394e-05
-4.6253e-05
6.69693e-05
-5.66154e-05
7.48889e-05
-5.89109e-05
7.83173e-05
-6.18429e-05
7.90692e-05
-7.73862e-05
8.02876e-05
-8.45069e-05
7.90296e-05
-9.0152e-05
8.52678e-05
-5.54383e-05
9.5571e-05
-3.26538e-05
0.00010086
7.64706e-06
0.000155078
2.5189e-06
-1.56784e-05
5.08486e-06
-1.59567e-05
7.74403e-06
-1.65068e-05
1.05211e-05
-1.73017e-05
1.34483e-05
-1.83229e-05
1.66004e-05
-1.99003e-05
1.99992e-05
-2.14668e-05
2.38485e-05
-2.45069e-05
2.81787e-05
-2.6134e-05
3.26461e-05
-3.37187e-05
3.83467e-05
-3.34649e-05
4.61866e-05
-3.89859e-05
5.50673e-05
-5.64926e-05
6.175e-05
-7.09487e-05
6.35471e-05
-8.4394e-05
6.43429e-05
-0.000114732
6.4425e-05
-0.000126113
6.05984e-05
-8.97108e-05
5.40914e-05
-5.76965e-05
6.10136e-05
2.78283e-06
4.6092e-05
5.39017e-05
6.47316e-05
0.000116465
0.000158491
2.45421e-06
-1.81326e-05
4.95707e-06
-1.84596e-05
7.55573e-06
-1.91054e-05
1.02645e-05
-2.00105e-05
1.31071e-05
-2.11654e-05
1.61602e-05
-2.29535e-05
1.94382e-05
-2.47447e-05
2.31744e-05
-2.82431e-05
2.73549e-05
-3.03145e-05
3.15465e-05
-3.79103e-05
3.74196e-05
-3.93335e-05
4.52282e-05
-4.77792e-05
4.96174e-05
-6.89681e-05
4.97887e-05
-9.71405e-05
4.86225e-05
-0.00013197
4.47827e-05
-0.000153621
4.54082e-05
-0.000119321
4.52586e-05
-4.50871e-05
6.27579e-05
7.56952e-06
4.43338e-05
3.81049e-05
2.57669e-05
8.92192e-05
4.905e-05
0.000139066
0.000187558
2.37059e-06
-2.05035e-05
4.79352e-06
-2.08829e-05
7.31819e-06
-2.16308e-05
9.9462e-06
-2.26401e-05
1.26933e-05
-2.39167e-05
1.56416e-05
-2.5914e-05
1.8778e-05
-2.79125e-05
2.24102e-05
-3.19691e-05
2.65173e-05
-3.46778e-05
3.04185e-05
-4.26404e-05
3.61636e-05
-4.691e-05
4.16712e-05
-6.06659e-05
4.06075e-05
-8.92052e-05
3.85363e-05
-0.000133589
3.50187e-05
-0.00015737
3.38932e-05
-0.000148898
3.40395e-05
-8.08836e-05
5.22497e-05
-1.39431e-05
4.21374e-05
1.757e-05
3.58439e-05
4.39774e-05
2.5039e-05
9.92786e-05
1.54946e-05
0.00015314
0.000382064
-5.32059e-05
5.32211e-05
-0.000146095
9.30224e-05
-0.000256641
0.00014479
-0.00012101
2.52695e-05
-3.00999e-05
-0.000149807
1.37287e-05
-0.00017471
4.99423e-05
-0.000165381
0.000102036
-0.00015993
0.00014104
-0.000157901
0.000196806
-0.000143939
0.000232101
-0.000136922
0.000242153
-0.000155908
0.000280797
-0.000177632
0.000310669
-0.000246637
0.000266248
-0.000134504
0.000137961
5.20398e-05
6.64004e-05
6.35822e-05
2.86114e-05
3.77525e-05
2.86106e-05
-4.43706e-05
9.7595e-05
-9.51432e-05
0.000143774
-9.5489e-05
0.000169179
3.15587e-05
-3.98964e-05
7.43356e-05
-0.000168609
7.4256e-05
-0.000174681
8.24168e-05
-0.000167952
0.000105385
-0.000147897
0.000131038
-0.000132583
0.000156102
-0.000127023
0.000177083
-0.000158126
0.000201827
-0.000193191
0.000249181
-0.000145669
0.000255567
-3.05002e-05
0.00020112
8.06314e-05
0.000117573
0.000162194
6.32243e-05
0.000114949
2.79584e-05
7.29747e-05
5.65646e-05
-2.59202e-05
0.000123499
-3.41584e-05
0.00015193
1.18728e-05
0.000121331
7.31035e-05
-0.000108618
8.95934e-05
-0.000166382
8.91214e-05
-0.000175192
9.70573e-05
-0.000176496
0.000116989
-0.000163501
0.000138408
-0.000150158
0.000146129
-0.000176765
0.000172448
-0.000222792
0.000175337
-0.000184714
0.000221615
-3.17544e-05
0.000185631
7.39224e-05
0.00012599
0.000192029
8.38724e-05
0.000213757
5.21859e-05
0.000146737
2.47819e-05
0.000100378
8.13476e-05
-1.03019e-05
0.000133818
-4.98888e-06
0.000146944
5.11598e-05
2.15493e-05
9.03727e-05
-0.000133178
0.000103419
-0.000155204
0.000107499
-0.00018274
0.000117407
-0.000187078
0.00013241
-0.000178496
0.000143698
-0.000174111
0.000160998
-0.000216899
0.000167338
-0.000227158
0.000198652
-0.000111402
0.000179644
1.83867e-05
0.000121571
0.000132297
7.88086e-05
0.000235225
6.11078e-05
0.00023166
4.24105e-05
0.000165454
2.11683e-05
0.000121621
0.000102513
-4.95596e-06
0.000138782
3.32616e-05
0.000101527
7.31162e-05
-5.64606e-05
0.000101321
-0.000123772
0.000119094
-0.000155459
0.00012395
-0.000190426
0.000130131
-0.000193361
0.00014032
-0.000189032
0.000145571
-0.000201354
0.000158445
-0.00022265
0.000169641
-0.000215799
0.000165147
-6.76031e-05
0.000121517
6.42636e-05
7.11929e-05
0.000182713
5.01812e-05
0.000256321
4.5415e-05
0.000236473
3.39657e-05
0.000176906
1.76011e-05
0.000137987
0.000120116
1.4712e-06
0.000137307
5.53106e-05
4.2295e-05
9.27698e-05
-7.86191e-05
0.000116895
-0.000115617
0.000130257
-0.000165363
0.000133373
-0.000194266
0.000136336
-0.000196319
0.000141239
-0.000195563
0.000143554
-0.000208789
0.000151801
-0.000227748
0.000149853
-0.000201164
0.00010926
-2.22934e-05
6.69321e-05
0.000106115
3.56682e-05
0.000214018
3.07721e-05
0.000261246
3.32523e-05
0.000234003
2.67435e-05
0.000183417
1.432e-05
0.000150411
0.000134435
5.1601e-05
3.37261e-05
9.43585e-05
-3.45147e-05
0.000107018
-7.15587e-05
0.000129266
-0.000129358
0.000138852
-0.000176717
0.000139606
-0.000195047
0.000139501
-0.000196198
0.000140351
-0.000198913
0.000142426
-0.000212149
0.000145032
-0.000228187
0.000120305
-0.00016909
6.3978e-05
2.62752e-05
2.86714e-05
0.000141033
1.25534e-05
0.000230155
1.77381e-05
0.000256067
2.42667e-05
0.000227476
2.07792e-05
0.000186906
1.14369e-05
0.000159754
0.000145873
9.34292e-05
-5.31206e-06
9.93281e-05
-4.24317e-05
0.000121375
-8.64236e-05
0.000140644
-0.00014979
0.000145283
-0.000181444
0.000142511
-0.000192275
0.000140413
-0.000194053
0.000139658
-0.000201114
0.000143794
-0.000214646
0.000141584
-0.000223863
7.7997e-05
-0.000107451
2.31994e-05
6.97906e-05
4.66738e-07
0.000163736
-1.72425e-06
0.000232342
9.55722e-06
0.00024478
1.75026e-05
0.000219531
1.58153e-05
0.000188595
8.94016e-06
0.00016663
0.000154814
4.74645e-06
-2.54915e-05
9.63565e-06
-2.60439e-05
1.47899e-05
-2.71347e-05
2.01624e-05
-2.85136e-05
2.57211e-05
-3.02627e-05
3.16507e-05
-3.32216e-05
3.79016e-05
-3.64471e-05
4.49719e-05
-4.31266e-05
5.30256e-05
-5.00781e-05
6.06101e-05
-6.38064e-05
7.0322e-05
-8.09926e-05
7.01906e-05
-0.00010606
6.29691e-05
-0.00014425
5.71247e-05
-0.000171382
5.08358e-05
-0.000134224
5.50429e-05
-8.22284e-05
6.44101e-05
-2.06157e-05
8.21308e-05
-1.77809e-06
7.70746e-05
2.22853e-05
8.07248e-05
3.88926e-05
9.38212e-05
8.36034e-05
0.000140537
0.000104739
0.00023261
0.000294329
4.46542e-06
-3.60096e-05
9.11352e-06
-3.70887e-05
1.40154e-05
-3.9254e-05
1.90423e-05
-4.21269e-05
2.40786e-05
-4.57044e-05
2.95649e-05
-5.2256e-05
3.49254e-05
-5.93133e-05
3.93012e-05
-7.09345e-05
4.32442e-05
-8.5181e-05
4.58261e-05
-0.000106393
4.23884e-05
-0.000126917
4.22613e-05
-0.00015287
4.60369e-05
-0.000159799
5.89587e-05
-0.000144027
7.47792e-05
-0.000105685
6.50105e-05
-5.17074e-05
8.75476e-05
-1.36077e-05
8.59835e-05
1.28585e-06
8.73533e-05
2.43794e-05
9.88372e-05
2.97953e-05
0.000123534
6.19349e-05
0.000169145
6.02141e-05
0.000131579
0.000269284
3.82367e-06
-6.49057e-05
7.82881e-06
-6.65663e-05
1.16716e-05
-6.95579e-05
1.55755e-05
-7.37541e-05
1.86552e-05
-7.79018e-05
2.17403e-05
-8.64526e-05
2.48904e-05
-9.54006e-05
2.78989e-05
-0.000108728
3.18449e-05
-0.000125257
3.7779e-05
-0.000136059
4.50813e-05
-0.000119443
5.62637e-05
-0.000129872
7.79537e-05
-0.000127695
9.90601e-05
-0.000104077
8.46218e-05
-7.73234e-05
7.7317e-05
-4.47797e-05
9.39689e-05
-9.34545e-06
9.65465e-05
1.61963e-06
0.000104239
1.68325e-05
0.000117697
1.63128e-05
0.000143402
3.68281e-05
0.000172272
3.08892e-05
5.84905e-05
0.000244838
3.62285e-06
-4.46918e-05
7.25897e-06
-4.60191e-05
1.09553e-05
-5.07645e-05
1.55601e-05
-5.7422e-05
2.07549e-05
-5.76684e-05
2.63136e-05
-5.99572e-05
3.28373e-05
-6.37408e-05
3.97757e-05
-6.98808e-05
4.74007e-05
-7.60041e-05
6.48673e-05
-7.98317e-05
9.24831e-05
-7.26364e-05
9.66933e-05
-7.53546e-05
9.61151e-05
-7.5116e-05
0.000101242
-7.32816e-05
9.91988e-05
-6.92318e-05
9.0629e-05
-3.85208e-05
9.27439e-05
-8.69224e-06
0.000102392
-1.3823e-06
0.000112282
7.11141e-06
0.000124231
4.25038e-06
0.000150114
1.054e-05
0.000174719
6.00813e-06
1.38259e-05
0.000218521
1.02475e-05
-3.75642e-05
1.88886e-05
-3.81173e-05
2.7021e-05
-3.52635e-05
3.51953e-05
-3.50859e-05
4.47809e-05
-3.78483e-05
5.5147e-05
-4.33095e-05
6.47351e-05
-4.77396e-05
7.2388e-05
-5.19392e-05
7.88738e-05
-5.78005e-05
8.49339e-05
-6.84045e-05
9.02153e-05
-7.66127e-05
9.40491e-05
-8.7366e-05
9.72938e-05
-9.84877e-05
0.000100428
-0.000105324
9.43344e-05
-8.21276e-05
9.10185e-05
-3.78424e-05
9.28433e-05
-1.09406e-05
0.000100849
-7.12784e-06
0.000112307
-4.09202e-06
0.00012655
-1.00017e-05
0.000149145
-1.21115e-05
0.000170338
-1.52293e-05
-1.95638e-05
0.000203585
7.57855e-06
-5.71165e-05
1.53851e-05
-5.79996e-05
2.35785e-05
-5.97331e-05
3.13639e-05
-6.22842e-05
3.94683e-05
-6.55028e-05
4.69568e-05
-6.95844e-05
5.40458e-05
-7.43892e-05
6.03001e-05
-7.98895e-05
6.6429e-05
-8.60937e-05
7.22367e-05
-9.40552e-05
7.8008e-05
-9.90982e-05
8.39675e-05
-0.000112152
8.82318e-05
-0.000115721
8.90837e-05
-0.000108526
8.30136e-05
-7.76015e-05
8.16257e-05
-3.64133e-05
8.75312e-05
-1.60414e-05
9.64421e-05
-1.55526e-05
0.000109135
-1.67608e-05
0.000124267
-2.51329e-05
0.000142787
-3.06328e-05
0.000163438
-3.58813e-05
-4.55989e-05
0.000189471
7.29547e-06
-6.44127e-05
1.45969e-05
-6.53016e-05
2.17511e-05
-6.68879e-05
2.8613e-05
-6.91471e-05
3.54184e-05
-7.23097e-05
4.19616e-05
-7.61298e-05
4.84954e-05
-8.09257e-05
5.49606e-05
-8.63575e-05
6.13097e-05
-9.24456e-05
6.72971e-05
-0.000100045
7.34599e-05
-0.000105264
7.91926e-05
-0.000117919
8.28454e-05
-0.000119228
8.11988e-05
-0.000107474
7.33277e-05
-7.09116e-05
7.32642e-05
-3.5314e-05
8.02184e-05
-2.22722e-05
9.02909e-05
-2.52653e-05
0.000103492
-2.9959e-05
0.000118377
-4.00176e-05
0.000134735
-4.69906e-05
0.000153896
-5.50419e-05
-6.62508e-05
0.000174547
6.36186e-06
-7.07745e-05
1.26898e-05
-7.16296e-05
1.89349e-05
-7.3133e-05
2.51618e-05
-7.53739e-05
3.13367e-05
-7.84847e-05
3.74618e-05
-8.22548e-05
4.33664e-05
-8.68304e-05
4.91038e-05
-9.20948e-05
5.47343e-05
-9.80761e-05
5.95643e-05
-0.000104875
6.45892e-05
-0.000110289
6.98195e-05
-0.000123176
7.29019e-05
-0.000122216
6.85978e-05
-0.000104079
6.11239e-05
-6.42058e-05
6.36265e-05
-3.62375e-05
7.21053e-05
-3.01699e-05
8.31643e-05
-3.61995e-05
9.62463e-05
-4.3041e-05
0.000110249
-5.402e-05
0.000125262
-6.2004e-05
0.000142198
-7.19776e-05
-8.47639e-05
0.000160711
5.63187e-06
-7.64065e-05
1.12374e-05
-7.72352e-05
1.6773e-05
-7.86686e-05
2.22285e-05
-8.08295e-05
2.74696e-05
-8.37258e-05
3.26048e-05
-8.739e-05
3.75456e-05
-9.17712e-05
4.23396e-05
-9.68889e-05
4.70505e-05
-0.000102787
5.17759e-05
-0.0001096
5.72319e-05
-0.000115746
6.21353e-05
-0.000128097
6.37269e-05
-0.000123823
5.61648e-05
-9.77278e-05
5.03108e-05
-5.83935e-05
5.47117e-05
-3.93435e-05
6.41856e-05
-3.92799e-05
7.54983e-05
-4.74995e-05
8.78644e-05
-5.54071e-05
0.000100568
-6.67238e-05
0.000114242
-7.56771e-05
0.000129783
-8.75187e-05
-0.000102685
0.000147704
4.89512e-06
-8.13017e-05
9.75371e-06
-8.20939e-05
1.453e-05
-8.3445e-05
1.91896e-05
-8.54891e-05
2.37662e-05
-8.83025e-05
2.8207e-05
-9.18308e-05
3.25363e-05
-9.61006e-05
3.67467e-05
-0.000101099
4.08709e-05
-0.000106911
4.48105e-05
-0.00011354
4.94889e-05
-0.000120426
5.36742e-05
-0.000132287
5.26036e-05
-0.000122977
4.28003e-05
-8.92385e-05
3.99102e-05
-5.44195e-05
4.62558e-05
-4.48454e-05
5.64908e-05
-4.93631e-05
6.7187e-05
-5.81953e-05
7.83813e-05
-6.66015e-05
8.9536e-05
-7.78785e-05
0.000101823
-8.7964e-05
0.000116203
-0.000101899
-0.000119422
0.00013294
4.15506e-06
-8.54569e-05
8.29249e-06
-8.62315e-05
1.2375e-05
-8.75277e-05
1.63524e-05
-8.94667e-05
2.01815e-05
-9.21317e-05
2.38595e-05
-9.55091e-05
2.73358e-05
-9.9577e-05
3.06287e-05
-0.000104392
3.38061e-05
-0.000110089
3.69069e-05
-0.000116641
4.08731e-05
-0.000124393
4.42992e-05
-0.000135699
3.9251e-05
-0.000118608
2.94084e-05
-8.01708e-05
3.0326e-05
-5.37637e-05
3.85094e-05
-5.27382e-05
4.88523e-05
-5.96843e-05
5.83917e-05
-6.77349e-05
6.81622e-05
-7.63721e-05
7.74997e-05
-8.7216e-05
8.79941e-05
-9.84585e-05
0.000100115
-0.00011403
-0.000134651
0.000114867
3.3855e-06
-8.88426e-05
6.76454e-06
-8.96108e-05
1.01477e-05
-9.09112e-05
1.34981e-05
-9.28173e-05
1.66838e-05
-9.53178e-05
1.96546e-05
-9.84802e-05
2.23959e-05
-0.000102319
2.48529e-05
-0.00010685
2.69771e-05
-0.000112215
2.89324e-05
-0.000118607
3.16421e-05
-0.00012714
3.36582e-05
-0.000137726
2.40034e-05
-0.000110371
1.65092e-05
-7.20294e-05
2.21569e-05
-5.81751e-05
3.17525e-05
-6.2255e-05
4.11412e-05
-6.90729e-05
4.95499e-05
-7.61438e-05
5.77529e-05
-8.45758e-05
6.51491e-05
-9.46305e-05
7.39423e-05
-0.000107479
8.21319e-05
-0.000124333
-0.000159386
9.06251e-05
2.85925e-06
-9.17312e-05
5.65833e-06
-9.24432e-05
8.37067e-06
-9.36659e-05
1.10364e-05
-9.55427e-05
1.35835e-05
-9.7957e-05
1.59424e-05
-0.000100993
1.80364e-05
-0.000104691
1.97055e-05
-0.000109048
2.06762e-05
-0.000114212
2.07977e-05
-0.000120633
2.0044e-05
-0.000129337
1.63129e-05
-0.000137652
6.82326e-06
-0.000102232
5.86592e-06
-6.94935e-05
1.57114e-05
-6.78319e-05
2.58263e-05
-7.23773e-05
3.41154e-05
-7.74114e-05
4.16595e-05
-8.38625e-05
4.83016e-05
-9.19133e-05
5.37932e-05
-0.000102748
5.955e-05
-0.000123779
5.36629e-05
-0.000154151
-0.000231108
5.00788e-05
2.50553e-06
-9.74594e-05
4.91457e-06
-9.82811e-05
7.15893e-06
-9.97496e-05
9.18903e-06
-0.000102081
1.10731e-05
-0.000105362
1.28033e-05
-0.000109693
1.42489e-05
-0.000115208
1.50995e-05
-0.000121974
1.48311e-05
-0.000130235
1.26697e-05
-0.000139655
5.10555e-06
-0.000148794
-6.61597e-06
-0.00015066
-9.38172e-06
-0.000103117
-4.57687e-08
-7.95667e-05
1.22043e-05
-8.19863e-05
2.12397e-05
-8.40345e-05
2.86489e-05
-8.91941e-05
3.50995e-05
-9.87952e-05
3.8748e-05
-0.00011455
3.61084e-05
-0.000135765
2.85292e-05
-0.000178579
4.76174e-06
-0.00023805
-0.000166521
-2.22154e-05
1.88901e-06
-0.000127142
3.65778e-06
-0.000128614
5.19436e-06
-0.000131306
6.33152e-06
-0.000135446
7.0387e-06
-0.000141286
7.32515e-06
-0.000149277
7.25218e-06
-0.000160564
6.71894e-06
-0.000177655
5.52607e-06
-0.000197718
1.82998e-06
-0.00021355
-1.1255e-05
-0.000219957
-1.87819e-05
-0.00020205
-1.36137e-05
-0.000133603
4.3605e-07
-0.000115705
1.08795e-05
-0.000116945
1.70942e-05
-0.000120504
1.94499e-05
-0.000130699
1.8808e-05
-0.000153054
1.46321e-05
-0.00017721
1.39247e-06
-0.000223289
-2.11333e-05
-0.000176661
-7.05156e-05
-9.1803e-05
-5.89237e-05
-0.000125911
4.84677e-07
-0.0001897
8.67055e-07
-0.000193184
1.10388e-06
-0.000198569
1.02879e-06
-0.00020585
6.74163e-07
-0.00021884
-1.56561e-07
-0.00023295
-1.76189e-06
-0.000249311
-4.92341e-06
-0.000236287
-1.05823e-05
-0.000174392
-2.42696e-05
-0.000136527
-3.30888e-05
-0.000117692
-2.58352e-05
-0.000180049
-1.06906e-05
-0.000203533
1.19559e-06
-0.00018051
4.53979e-06
-0.000176927
4.2345e-06
-0.000185977
-1.66447e-06
-0.000206114
-1.24744e-05
-0.000185071
-3.11089e-05
-0.000114425
-6.44307e-05
-8.25191e-05
-7.58339e-05
-7.69706e-05
-7.36298e-05
-6.33952e-05
-7.55086e-06
-0.00012499
-5.10759e-06
-0.000106105
-1.10005e-05
-0.000103768
-1.77939e-05
-0.000102213
-2.57547e-05
-0.000100514
-3.53719e-05
-9.9844e-05
-4.53802e-05
-0.000101379
-5.55802e-05
-0.0001016
-6.12417e-05
-0.000101915
-5.26168e-05
-0.000109138
-2.76743e-05
-0.00011264
1.23967e-05
-0.000118478
2.13127e-05
-0.000133451
1.74206e-06
-0.000115558
-1.85034e-05
-9.18592e-05
-4.1664e-05
-8.21948e-05
-6.70767e-05
-7.85916e-05
-8.87063e-05
-7.52865e-05
-8.92654e-05
-8.0479e-05
-5.80196e-05
-9.78001e-05
-3.03916e-05
-9.25631e-05
-4.75275e-05
-5.97459e-05
-0.000101259
-9.66562e-06
2.44454e-05
-0.000133258
-4.70557e-06
-8.52803e-05
-8.26848e-06
-8.66465e-05
-1.08973e-05
-8.80829e-05
-1.26594e-05
-9.01213e-05
-1.35181e-05
-9.28341e-05
-1.50137e-05
-9.60865e-05
-1.59314e-05
-9.88282e-05
-1.631e-05
-0.000101106
-2.11916e-05
-0.00010425
-2.74977e-05
-0.000106341
-3.79903e-05
-0.00010788
-6.00034e-05
-0.000110975
-7.53006e-05
-9.59579e-05
-7.656e-05
-7.63012e-05
-7.10199e-05
-7.35853e-05
-5.9163e-05
-7.9092e-05
-4.48926e-05
-8.58073e-05
-3.41007e-05
-9.10762e-05
-4.08958e-05
-9.10048e-05
-6.70782e-05
-6.63801e-05
-0.000111348
-1.54773e-05
-0.000134279
1.32633e-05
2.25473e-05
-0.000132384
-7.73128e-07
-8.45072e-05
-1.49849e-06
-8.5921e-05
-3.01865e-06
-8.65626e-05
-5.56268e-06
-8.75767e-05
-9.38344e-06
-8.90125e-05
-1.45339e-05
-9.09351e-05
-2.05408e-05
-9.282e-05
-2.6961e-05
-9.46845e-05
-3.49161e-05
-9.62934e-05
-4.45068e-05
-9.67517e-05
-5.4794e-05
-9.75923e-05
-6.64524e-05
-9.93153e-05
-7.25196e-05
-8.98902e-05
-6.89396e-05
-7.98808e-05
-6.6521e-05
-7.60037e-05
-6.99975e-05
-7.56157e-05
-7.81566e-05
-7.76485e-05
-8.98948e-05
-7.93381e-05
-0.000108511
-7.23886e-05
-0.000129272
-4.56197e-05
-0.000137306
-7.44405e-06
-0.000132808
8.76476e-06
1.56611e-05
-0.000125924
-2.93199e-06
-8.15747e-05
-5.67521e-06
-8.31772e-05
-8.52153e-06
-8.37156e-05
-1.15757e-05
-8.45219e-05
-1.49978e-05
-8.55896e-05
-1.91203e-05
-8.6812e-05
-2.39594e-05
-8.79802e-05
-2.96663e-05
-8.8977e-05
-3.63666e-05
-8.95923e-05
-4.35021e-05
-8.96154e-05
-5.11825e-05
-8.99113e-05
-6.10579e-05
-8.94395e-05
-6.84583e-05
-8.24896e-05
-7.30633e-05
-7.52756e-05
-7.80807e-05
-7.09864e-05
-8.47391e-05
-6.89575e-05
-9.42616e-05
-6.81263e-05
-0.00010777
-6.58295e-05
-0.000123048
-5.71118e-05
-0.000131694
-3.69736e-05
-0.000128615
-1.05235e-05
-0.000122616
2.76521e-06
8.54262e-06
-0.000115499
-2.41237e-06
-7.91617e-05
-4.95365e-06
-8.06353e-05
-7.71932e-06
-8.09494e-05
-1.07964e-05
-8.14443e-05
-1.4352e-05
-8.20336e-05
-1.85172e-05
-8.26464e-05
-2.33528e-05
-8.31442e-05
-2.89296e-05
-8.33998e-05
-3.52619e-05
-8.32596e-05
-4.21861e-05
-8.26908e-05
-5.02343e-05
-8.18628e-05
-5.96785e-05
-7.99951e-05
-6.6416e-05
-7.5752e-05
-7.06731e-05
-7.10185e-05
-7.49345e-05
-6.67252e-05
-8.08579e-05
-6.30345e-05
-8.98097e-05
-5.9175e-05
-0.000101834
-5.38056e-05
-0.000113163
-4.57832e-05
-0.000117757
-3.23795e-05
-0.000114319
-1.3962e-05
-0.000108865
-2.6888e-06
3.71932e-06
-0.000104044
-2.74945e-06
-7.64118e-05
-5.59707e-06
-7.77872e-05
-8.62341e-06
-7.79226e-05
-1.19167e-05
-7.81506e-05
-1.55787e-05
-7.83712e-05
-1.96869e-05
-7.8538e-05
-2.4283e-05
-7.85479e-05
-2.93735e-05
-7.83092e-05
-3.48887e-05
-7.77442e-05
-4.07745e-05
-7.68049e-05
-4.72487e-05
-7.53884e-05
-5.41371e-05
-7.31066e-05
-6.00101e-05
-6.9879e-05
-6.5145e-05
-6.58838e-05
-7.00455e-05
-6.1825e-05
-7.54457e-05
-5.76348e-05
-8.19363e-05
-5.2685e-05
-8.94933e-05
-4.62491e-05
-9.70223e-05
-3.82547e-05
-0.000101463
-2.79397e-05
-9.99014e-05
-1.55236e-05
-9.69324e-05
-5.65837e-06
2.07459e-06
-9.52888e-05
-2.93215e-06
-7.34792e-05
-5.95609e-06
-7.47628e-05
-9.11147e-06
-7.47668e-05
-1.2461e-05
-7.48007e-05
-1.60475e-05
-7.47845e-05
-1.99082e-05
-7.46771e-05
-2.40529e-05
-7.44031e-05
-2.8474e-05
-7.3888e-05
-3.31555e-05
-7.30626e-05
-3.81169e-05
-7.18434e-05
-4.34728e-05
-7.00325e-05
-4.91435e-05
-6.74359e-05
-5.47729e-05
-6.42497e-05
-6.01313e-05
-6.05255e-05
-6.56107e-05
-5.63459e-05
-7.1531e-05
-5.17149e-05
-7.75194e-05
-4.66971e-05
-8.23016e-05
-4.14676e-05
-8.56428e-05
-3.49139e-05
-8.80583e-05
-2.55247e-05
-8.83863e-05
-1.51962e-05
-8.76472e-05
-6.39803e-06
1.08827e-06
-8.6662e-05
-2.94462e-06
-7.05343e-05
-5.98535e-06
-7.17218e-05
-9.12317e-06
-7.16287e-05
-1.2413e-05
-7.15106e-05
-1.58923e-05
-7.1305e-05
-1.95974e-05
-7.09718e-05
-2.3546e-05
-7.04544e-05
-2.77398e-05
-6.9694e-05
-3.21831e-05
-6.86193e-05
-3.69035e-05
-6.71229e-05
-4.18469e-05
-6.50891e-05
-4.6768e-05
-6.25148e-05
-5.15362e-05
-5.94815e-05
-5.60106e-05
-5.60514e-05
-6.01626e-05
-5.21942e-05
-6.40913e-05
-4.77866e-05
-6.80946e-05
-4.26943e-05
-7.27031e-05
-3.68596e-05
-7.76573e-05
-2.99601e-05
-8.0792e-05
-2.23905e-05
-8.12541e-05
-1.47346e-05
-8.02128e-05
-7.43987e-06
9.00268e-08
-7.92155e-05
-2.89079e-06
-6.76432e-05
-5.86146e-06
-6.87509e-05
-8.91249e-06
-6.85774e-05
-1.20849e-05
-6.8338e-05
-1.54158e-05
-6.79739e-05
-1.89375e-05
-6.745e-05
-2.26704e-05
-6.67214e-05
-2.66242e-05
-6.57402e-05
-3.07872e-05
-6.44562e-05
-3.5102e-05
-6.2808e-05
-3.9449e-05
-6.07422e-05
-4.37215e-05
-5.82424e-05
-4.7916e-05
-5.52871e-05
-5.21275e-05
-5.184e-05
-5.6364e-05
-4.7958e-05
-6.05498e-05
-4.36011e-05
-6.44387e-05
-3.88058e-05
-6.7775e-05
-3.35238e-05
-7.01342e-05
-2.76014e-05
-7.15236e-05
-2.10014e-05
-7.23189e-05
-1.39399e-05
-7.27918e-05
-6.96742e-06
-3.81218e-07
-7.23217e-05
-2.82966e-06
-6.48134e-05
-5.73922e-06
-6.58412e-05
-8.70987e-06
-6.56066e-05
-1.1774e-05
-6.52738e-05
-1.49531e-05
-6.47946e-05
-1.82626e-05
-6.41405e-05
-2.17075e-05
-6.32764e-05
-2.52852e-05
-6.21624e-05
-2.89896e-05
-6.07519e-05
-3.28003e-05
-5.89973e-05
-3.66735e-05
-5.6869e-05
-4.05567e-05
-5.43592e-05
-4.43791e-05
-5.14648e-05
-4.80446e-05
-4.81746e-05
-5.15476e-05
-4.44552e-05
-5.48423e-05
-4.03067e-05
-5.79359e-05
-3.57126e-05
-6.08242e-05
-3.06359e-05
-6.33742e-05
-2.50518e-05
-6.52654e-05
-1.91107e-05
-6.61795e-05
-1.30263e-05
-6.62432e-05
-6.90426e-06
-8.11734e-07
-6.58135e-05
-2.73025e-06
-6.20831e-05
-5.52364e-06
-6.30477e-05
-8.36516e-06
-6.2765e-05
-1.12777e-05
-6.23611e-05
-1.42798e-05
-6.17924e-05
-1.73838e-05
-6.10365e-05
-2.05946e-05
-6.00655e-05
-2.39084e-05
-5.88486e-05
-2.73075e-05
-5.73528e-05
-3.07566e-05
-5.55482e-05
-3.42131e-05
-5.34127e-05
-3.76436e-05
-5.09288e-05
-4.10271e-05
-4.80814e-05
-4.43371e-05
-4.48648e-05
-4.75152e-05
-4.12774e-05
-5.05106e-05
-3.73116e-05
-5.32548e-05
-3.29687e-05
-5.56481e-05
-2.8243e-05
-5.75488e-05
-2.31514e-05
-5.89043e-05
-1.77556e-05
-5.97519e-05
-1.21793e-05
-6.00698e-05
-6.58675e-06
-1.03447e-06
-5.9848e-05
-2.6008e-06
-5.94822e-05
-5.2602e-06
-6.03882e-05
-7.95448e-06
-6.00707e-05
-1.0702e-05
-5.96135e-05
-1.3515e-05
-5.89795e-05
-1.64005e-05
-5.81509e-05
-1.93599e-05
-5.71062e-05
-2.23871e-05
-5.58213e-05
-2.54678e-05
-5.42722e-05
-2.85787e-05
-5.24373e-05
-3.16916e-05
-5.02998e-05
-3.47734e-05
-4.78471e-05
-3.77857e-05
-4.50692e-05
-4.06924e-05
-4.19584e-05
-4.34596e-05
-3.85102e-05
-4.60437e-05
-3.47277e-05
-4.83976e-05
-3.0615e-05
-5.0457e-05
-2.61839e-05
-5.21452e-05
-2.14636e-05
-5.33888e-05
-1.65123e-05
-5.41483e-05
-1.14203e-05
-5.4442e-05
-6.29347e-06
-1.17431e-06
-5.4303e-05
-2.45715e-06
-5.7025e-05
-4.96342e-06
-5.78819e-05
-7.49517e-06
-5.75389e-05
-1.00659e-05
-5.70428e-05
-1.26834e-05
-5.63619e-05
-1.53518e-05
-5.54825e-05
-1.80701e-05
-5.43879e-05
-2.08311e-05
-5.30603e-05
-2.36212e-05
-5.14821e-05
-2.64209e-05
-4.96376e-05
-2.92072e-05
-4.75136e-05
-3.19545e-05
-4.50999e-05
-3.46346e-05
-4.23892e-05
-3.72144e-05
-3.93787e-05
-3.96563e-05
-3.60686e-05
-4.19206e-05
-3.24635e-05
-4.39621e-05
-2.85737e-05
-4.57293e-05
-2.4417e-05
-4.71695e-05
-2.00237e-05
-4.82433e-05
-1.54389e-05
-4.89337e-05
-1.07303e-05
-4.92444e-05
-5.98314e-06
-1.24056e-06
-4.91789e-05
-2.29634e-06
-5.47287e-05
-4.63605e-06
-5.55422e-05
-6.99324e-06
-5.51817e-05
-9.37799e-06
-5.4658e-05
-1.17953e-05
-5.39446e-05
-1.4247e-05
-5.30308e-05
-1.67305e-05
-5.19044e-05
-1.92388e-05
-5.05521e-05
-2.176e-05
-4.8961e-05
-2.42778e-05
-4.71198e-05
-2.67726e-05
-4.5019e-05
-2.9221e-05
-4.26515e-05
-3.15971e-05
-4.00133e-05
-3.38725e-05
-3.71034e-05
-3.60162e-05
-3.39249e-05
-3.79945e-05
-3.04855e-05
-3.97704e-05
-2.6798e-05
-4.13048e-05
-2.28828e-05
-4.256e-05
-1.87688e-05
-4.35051e-05
-1.44942e-05
-4.41252e-05
-1.01106e-05
-4.44242e-05
-5.6845e-06
-1.26029e-06
-4.44052e-05
-2.12628e-06
-5.26024e-05
-4.28984e-06
-5.33786e-05
-6.46493e-06
-5.30067e-05
-8.65882e-06
-5.24642e-05
-1.08742e-05
-5.17291e-05
-1.31113e-05
-5.07938e-05
-1.53666e-05
-4.96491e-05
-1.76335e-05
-4.82853e-05
-1.99012e-05
-4.66933e-05
-2.21559e-05
-4.48651e-05
-2.43807e-05
-4.27943e-05
-2.65556e-05
-4.04767e-05
-2.86584e-05
-3.79106e-05
-3.06642e-05
-3.50977e-05
-3.25463e-05
-3.20431e-05
-3.42759e-05
-2.8756e-05
-3.58232e-05
-2.52509e-05
-3.71582e-05
-2.1548e-05
-3.8253e-05
-1.76742e-05
-3.90854e-05
-1.36621e-05
-3.96435e-05
-9.55287e-06
-3.9928e-05
-5.40022e-06
-1.247e-06
-3.9942e-05
-1.94857e-06
-5.06538e-05
-3.92938e-06
-5.13979e-05
-5.91718e-06
-5.10189e-05
-7.91719e-06
-5.04642e-05
-9.93054e-06
-4.97158e-05
-1.19562e-05
-4.87682e-05
-1.39904e-05
-4.76148e-05
-1.60268e-05
-4.62489e-05
-1.80559e-05
-4.46643e-05
-2.00655e-05
-4.28556e-05
-2.20409e-05
-4.0819e-05
-2.3965e-05
-3.85527e-05
-2.58187e-05
-3.60571e-05
-2.75808e-05
-3.33357e-05
-2.92288e-05
-3.03951e-05
-3.07391e-05
-2.72459e-05
-3.20875e-05
-2.39026e-05
-3.32508e-05
-2.03849e-05
-3.42078e-05
-1.67174e-05
-3.49416e-05
-1.29286e-05
-3.54422e-05
-9.05255e-06
-3.57095e-05
-5.13325e-06
-1.21157e-06
-3.57454e-05
-1.76606e-06
-4.88878e-05
-3.55976e-06
-4.96042e-05
-5.3572e-06
-4.92215e-05
-7.16205e-06
-4.86594e-05
-8.9743e-06
-4.79036e-05
-1.07922e-05
-4.69504e-05
-1.26118e-05
-4.57952e-05
-1.44271e-05
-4.44337e-05
-1.62297e-05
-4.28617e-05
-1.80091e-05
-4.10763e-05
-1.97524e-05
-3.90757e-05
-2.14452e-05
-3.686e-05
-2.3071e-05
-3.44314e-05
-2.46121e-05
-3.17946e-05
-2.60499e-05
-2.89576e-05
-2.73647e-05
-2.59311e-05
-2.85374e-05
-2.273e-05
-2.95497e-05
-1.93728e-05
-3.03853e-05
-1.58819e-05
-3.10312e-05
-1.22829e-05
-3.14792e-05
-8.60483e-06
-3.17282e-05
-4.88447e-06
-1.15946e-06
-3.17808e-05
-1.58036e-06
-4.73075e-05
-3.18424e-06
-4.80003e-05
-4.7897e-06
-4.76161e-05
-6.39927e-06
-4.70498e-05
-8.01214e-06
-4.62908e-05
-9.62608e-06
-4.53365e-05
-1.12372e-05
-4.41841e-05
-1.284e-05
-4.2831e-05
-1.44269e-05
-4.12748e-05
-1.59889e-05
-3.95144e-05
-1.7515e-05
-3.75497e-05
-1.89928e-05
-3.53823e-05
-2.04086e-05
-3.30157e-05
-2.17476e-05
-3.04558e-05
-2.29943e-05
-2.77109e-05
-2.4133e-05
-2.47926e-05
-2.51482e-05
-2.17148e-05
-2.60257e-05
-1.84954e-05
-2.67529e-05
-1.51549e-05
-2.73196e-05
-1.17164e-05
-2.77191e-05
-8.20555e-06
-2.79501e-05
-4.65371e-06
-1.09552e-06
-2.80144e-05
-1.39256e-06
-4.59149e-05
-2.80511e-06
-4.65878e-05
-4.218e-06
-4.62032e-05
-5.63298e-06
-4.56349e-05
-7.04867e-06
-4.48751e-05
-8.46254e-06
-4.39226e-05
-9.87088e-06
-4.27758e-05
-1.12686e-05
-4.14333e-05
-1.26492e-05
-3.98943e-05
-1.40048e-05
-3.81589e-05
-1.53261e-05
-3.62284e-05
-1.66029e-05
-3.41056e-05
-1.78235e-05
-3.17951e-05
-1.89759e-05
-2.93034e-05
-2.00474e-05
-2.66396e-05
-2.10253e-05
-2.38146e-05
-2.18976e-05
-2.08427e-05
-2.26529e-05
-1.77402e-05
-2.32816e-05
-1.45263e-05
-2.37758e-05
-1.12223e-05
-2.41304e-05
-7.85119e-06
-2.43438e-05
-4.44043e-06
-1.0217e-06
-2.4418e-05
-1.20285e-06
-4.47121e-05
-2.42351e-06
-4.53672e-05
-3.64405e-06
-4.49827e-05
-4.86568e-06
-4.44132e-05
-6.08662e-06
-4.36542e-05
-7.30417e-06
-4.27051e-05
-8.51481e-06
-4.15652e-05
-9.71404e-06
-4.02341e-05
-1.08963e-05
-3.87121e-05
-1.20548e-05
-3.70004e-05
-1.3182e-05
-3.51013e-05
-1.42692e-05
-3.30185e-05
-1.53071e-05
-3.07574e-05
-1.62856e-05
-2.8325e-05
-1.71945e-05
-2.57305e-05
-1.80241e-05
-2.29852e-05
-1.87646e-05
-2.01022e-05
-1.94075e-05
-1.70973e-05
-1.99454e-05
-1.39884e-05
-2.03726e-05
-1.07952e-05
-2.0685e-05
-7.53887e-06
-2.08817e-05
-4.24393e-06
-9.39213e-07
-2.09644e-05
-1.01008e-06
-4.3702e-05
-2.03951e-06
-4.43377e-05
-3.06833e-06
-4.39539e-05
-4.09798e-06
-4.33836e-05
-5.12645e-06