/*--------------------------------*- C++ -*----------------------------------*\
| =========                 |                                                 |
| \\      /  F ield         | OpenFOAM: The Open Source CFD Toolbox           |
|  \\    /   O peration     | Version:  2.4.0                                 |
|   \\  /    A nd           | Web:      www.OpenFOAM.org                      |
|    \\/     M anipulation  |                                                 |
\*---------------------------------------------------------------------------*/
FoamFile
{
    version     2.0;
    format      ascii;
    class       surfaceScalarField;
    location    "0.15";
    object      phi.water;
}
// * * * * * * * * * * * * * * * * * * * * * * * * * * * * * * * * * * * * * //

dimensions      [0 3 -1 0 0 0 0];

internalField   nonuniform List<scalar> 
4432
(
2.67193e-06
-2.67188e-06
5.39018e-06
-2.7182e-06
8.20015e-06
-2.80992e-06
1.1152e-05
-2.95176e-06
1.42861e-05
-3.13407e-06
1.77015e-05
-3.41542e-06
2.13878e-05
-3.68626e-06
2.57294e-05
-4.3416e-06
2.97396e-05
-4.01017e-06
3.64102e-05
-6.67059e-06
4.22587e-05
-5.8483e-06
4.7997e-05
-5.73828e-06
5.57446e-05
-7.74744e-06
6.58117e-05
-1.00669e-05
7.75506e-05
-1.17387e-05
8.98978e-05
-1.23471e-05
0.000101167
-1.12688e-05
0.000109953
-8.7863e-06
0.000115142
-5.18962e-06
0.000115982
-8.31994e-07
0.000108847
7.17988e-06
8.37862e-05
2.33687e-05
7.79432e-05
2.66292e-06
-5.33473e-06
5.37219e-06
-5.4274e-06
8.17289e-06
-5.61056e-06
1.11142e-05
-5.89302e-06
1.42343e-05
-6.25408e-06
1.76398e-05
-6.82085e-06
2.13058e-05
-7.35226e-06
2.55377e-05
-8.57346e-06
2.97965e-05
-8.26887e-06
3.61676e-05
-1.30413e-05
4.17598e-05
-1.14399e-05
4.75245e-05
-1.15023e-05
5.62861e-05
-1.65082e-05
6.76116e-05
-2.13913e-05
7.94449e-05
-2.35699e-05
9.03058e-05
-2.32029e-05
9.94976e-05
-2.04453e-05
0.000106804
-1.60415e-05
0.000112134
-1.04201e-05
0.000115341
-4.07195e-06
0.000114814
4.83838e-06
9.09801e-05
3.2945e-05
0.000151188
2.64235e-06
-7.97704e-06
5.33088e-06
-8.11588e-06
8.11052e-06
-8.39015e-06
1.10276e-05
-8.81e-06
1.41193e-05
-9.34578e-06
1.74931e-05
-1.01946e-05
2.11267e-05
-1.09858e-05
2.52431e-05
-1.26899e-05
2.97306e-05
-1.27559e-05
3.56214e-05
-1.89308e-05
4.11003e-05
-1.69164e-05
4.70116e-05
-1.74112e-05
5.64681e-05
-2.59525e-05
6.83483e-05
-3.29992e-05
7.9955e-05
-3.36549e-05
8.976e-05
-2.87783e-05
9.73971e-05
-1.97128e-05
0.000102725
-1.15967e-05
0.000105787
-8.19236e-06
0.000106203
-9.84427e-06
0.000104915
-9.24557e-06
9.10185e-05
2.52581e-05
0.000190637
2.61165e-06
-1.05885e-05
5.2694e-06
-1.07735e-05
8.01817e-06
-1.11388e-05
1.08989e-05
-1.16906e-05
1.39511e-05
-1.23978e-05
1.72652e-05
-1.35087e-05
2.08436e-05
-1.4564e-05
2.4878e-05
-1.67239e-05
2.94019e-05
-1.72786e-05
3.48502e-05
-2.43751e-05
4.02484e-05
-2.23061e-05
4.66982e-05
-2.38346e-05
5.67143e-05
-3.15548e-05
6.87006e-05
-1.92498e-05
7.87665e-05
-1.13887e-05
8.50937e-05
-8.45432e-06
9.04793e-05
-5.42619e-06
9.42495e-05
-3.54714e-06
9.0216e-05
-1.27923e-05
8.94064e-05
-2.85305e-05
9.27903e-05
-1.5042e-05
8.58623e-05
4.10168e-05
0.000224488
2.57067e-06
-1.31589e-05
5.18766e-06
-1.33903e-05
7.89622e-06
-1.38472e-05
1.073e-05
-1.45242e-05
1.37276e-05
-1.53952e-05
1.69669e-05
-1.67478e-05
2.04706e-05
-1.80676e-05
2.44044e-05
-2.06564e-05
2.89286e-05
-2.17996e-05
3.38036e-05
-2.92404e-05
3.9242e-05
-2.7683e-05
4.3899e-05
-2.58011e-05
4.66533e-05
-1.50854e-05
6.8387e-05
-2.16953e-05
8.12408e-05
-1.69591e-05
8.43789e-05
-1.09874e-05
9.32833e-05
-8.6088e-06
8.71282e-05
-2.09895e-05
6.79088e-05
-3.39408e-05
4.81994e-05
-1.32588e-05
5.70362e-05
3.57966e-05
6.63142e-05
9.96106e-05
0.000272988
2.51888e-06
-1.56773e-05
5.08488e-06
-1.5956e-05
7.74407e-06
-1.65061e-05
1.05211e-05
-1.73011e-05
1.34483e-05
-1.83223e-05
1.66004e-05
-1.98998e-05
1.99995e-05
-2.1466e-05
2.38497e-05
-2.45027e-05
2.81807e-05
-2.6124e-05
3.26476e-05
-3.3699e-05
3.47634e-05
-3.25259e-05
3.41877e-05
-1.05835e-05
6.2528e-05
-2.16282e-05
6.89278e-05
-2.71348e-05
7.38376e-05
-2.5014e-05
8.68222e-05
-3.24156e-05
8.4338e-05
-4.77938e-05
8.48806e-05
-4.60258e-05
6.17809e-05
-3.02602e-05
4.23184e-05
5.65974e-06
3.42486e-05
7.19392e-05
2.40055e-05
0.000122508
0.000340417
2.45419e-06
-1.81324e-05
4.95708e-06
-1.84593e-05
7.55577e-06
-1.91052e-05
1.02646e-05
-2.00102e-05
1.31071e-05
-2.11649e-05
1.61604e-05
-2.29523e-05
1.94391e-05
-2.47405e-05
2.31767e-05
-2.82328e-05
2.73579e-05
-3.02962e-05
3.11044e-05
-3.78705e-05
2.519e-05
-1.33126e-05
5.29671e-05
-1.62464e-05
5.61272e-05
-2.71019e-05
6.35644e-05
-3.98441e-05
7.45561e-05
-5.95602e-05
7.64637e-05
-7.07186e-05
8.05508e-05
-6.68105e-05
7.36352e-05
-5.90077e-05
4.20486e-05
-1.75082e-05
4.33773e-05
3.45787e-05
2.53953e-05
9.15296e-05
6.96317e-06
0.000141164
0.000376913
2.37059e-06
-1.15482e-05
4.79354e-06
-1.08387e-05
7.31823e-06
-9.34617e-06
9.94628e-06
-7.29376e-06
1.26934e-05
-3.29415e-06
1.56419e-05
-2.24249e-07
1.87787e-05
-2.56567e-07
2.24117e-05
-1.81486e-06
2.65183e-05
-3.13415e-06
2.07689e-05
-6.66483e-06
3.77716e-05
-1.59695e-05
4.74858e-05
-1.93477e-05
5.21457e-05
-3.76173e-05
6.42312e-05
-6.87581e-05
6.49577e-05
-8.08703e-05
6.58109e-05
-7.77235e-05
6.25599e-05
-7.33152e-05
3.76017e-05
-5.19951e-05
3.42005e-05
1.14029e-05
3.57421e-05
4.54859e-05
2.50115e-05
0.000102323
1.14642e-05
0.000154668
0.000390072
-5.32058e-05
5.32211e-05
-0.000146094
9.30224e-05
-0.00025664
0.00014479
-0.000121008
2.52697e-05
-3.00999e-05
-0.000149807
1.37287e-05
-0.00017471
4.99423e-05
-0.000165381
0.000102036
-0.00015993
0.00014104
-0.000157901
0.000196806
-0.000143939
0.000232101
-0.000136922
0.000242153
-0.000155908
0.000280797
-0.000177632
0.000310669
-0.000246637
0.000266248
-0.000134505
0.000137961
5.20398e-05
6.64004e-05
6.35822e-05
2.86114e-05
3.77525e-05
2.86106e-05
-4.43706e-05
9.7595e-05
-9.51429e-05
0.000143774
-9.54887e-05
0.000169179
3.15596e-05
-3.98954e-05
7.43355e-05
-0.000168609
7.42559e-05
-0.000174681
8.24168e-05
-0.000167952
0.000105385
-0.000147896
0.000131038
-0.000132583
0.000156102
-0.000127023
0.000177083
-0.000158126
0.000201827
-0.000193191
0.000249181
-0.000145669
0.000255567
-3.05002e-05
0.00020112
8.06313e-05
0.000117573
0.000162194
6.32243e-05
0.000114949
2.79584e-05
7.29747e-05
5.65646e-05
-2.59202e-05
0.000123499
-3.41583e-05
0.00015193
1.18722e-05
0.00012133
7.31029e-05
-0.000108618
8.95932e-05
-0.000166383
8.91214e-05
-0.000175192
9.70573e-05
-0.000176496
0.000116989
-0.000163501
0.000138408
-0.000150158
0.000146129
-0.000176765
0.000172448
-0.000222792
0.000175336
-0.000184713
0.000221615
-3.17545e-05
0.000185631
7.39225e-05
0.00012599
0.000192029
8.38724e-05
0.000213757
5.21859e-05
0.000146737
2.47819e-05
0.000100378
8.13476e-05
-1.03018e-05
0.000133818
-4.98888e-06
0.000146944
5.11596e-05
2.15536e-05
9.03721e-05
-0.00013318
0.000103419
-0.000155206
0.000107499
-0.00018274
0.000117407
-0.000187077
0.00013241
-0.000178496
0.000143698
-0.000174111
0.000160998
-0.000216899
0.000167338
-0.000227157
0.000198652
-0.000111401
0.000179643
1.83869e-05
0.000121571
0.000132297
7.88086e-05
0.000235225
6.11078e-05
0.00023166
4.24105e-05
0.000165454
2.11683e-05
0.000121621
0.000102513
-4.95595e-06
0.000138782
3.32583e-05
0.000101528
7.31136e-05
-5.64576e-05
0.000101321
-0.000123782
0.000119093
-0.000155461
0.00012395
-0.000190426
0.000130131
-0.000193361
0.00014032
-0.000189032
0.000145571
-0.000201354
0.000158445
-0.00022265
0.00016964
-0.000215799
0.000165147
-6.76028e-05
0.000121517
6.42637e-05
7.11929e-05
0.000182713
5.01812e-05
0.000256321
4.5415e-05
0.000236473
3.39657e-05
0.000176906
1.76011e-05
0.000137987
0.000120116
1.47098e-06
0.000137294
5.53118e-05
4.24785e-05
9.27702e-05
-7.86622e-05
0.000116895
-0.000115624
0.000130257
-0.000165363
0.000133373
-0.000194266
0.000136336
-0.00019632
0.000141239
-0.000195563
0.000143554
-0.000208789
0.000151801
-0.000227748
0.000149853
-0.000201164
0.00010926
-2.22931e-05
6.6932e-05
0.000106115
3.56682e-05
0.000214018
3.07721e-05
0.000261246
3.32523e-05
0.000234003
2.67435e-05
0.000183417
1.432e-05
0.000150411
0.000134435
5.15793e-05
3.39337e-05
9.43517e-05
-3.45621e-05
0.000107011
-7.15967e-05
0.000129268
-0.000129356
0.000138852
-0.000176718
0.000139606
-0.000195047
0.000139501
-0.000196198
0.000140351
-0.000198913
0.000142426
-0.000212149
0.000145032
-0.000228187
0.000120305
-0.00016909
6.39778e-05
2.62755e-05
2.86714e-05
0.000141033
1.25534e-05
0.000230155
1.77381e-05
0.000256067
2.42667e-05
0.000227476
2.07792e-05
0.000186906
1.14369e-05
0.000159754
0.000145873
9.35669e-05
-6.3078e-06
9.9256e-05
-4.25928e-05
0.000121401
-8.63932e-05
0.000140651
-0.000149796
0.000145283
-0.000181445
0.000142511
-0.000192275
0.000140413
-0.000194053
0.000139658
-0.000201114
0.000143793
-0.000214646
0.000141584
-0.000223863
7.79971e-05
-0.000107451
2.31993e-05
6.97908e-05
4.6673e-07
0.000163736
-1.72425e-06
0.000232342
9.55722e-06
0.00024478
1.75026e-05
0.000219531
1.58153e-05
0.000188595
8.94016e-06
0.00016663
0.000154814
5.04003e-06
-7.60795e-07
1.02862e-05
-1.23386e-06
1.59011e-05
-1.963e-06
2.205e-05
-2.31288e-06
2.87744e-05
-1.69628e-06
3.613e-05
-2.09366e-06
4.35042e-05
-4.18489e-06
5.13743e-05
-8.57354e-06
6.18637e-05
-1.25144e-05
7.11951e-05
-2.0968e-05
8.14614e-05
-3.04282e-05
8.94498e-05
-4.21307e-05
0.00010138
-7.17272e-05
0.000109433
-9.35519e-05
0.000114664
-9.42487e-05
0.000111161
-8.12891e-05
8.71376e-05
-6.33266e-05
4.98447e-05
-2.02421e-05
7.71479e-05
2.52437e-05
8.1061e-05
4.18395e-05
9.67772e-05
8.65793e-05
0.000145789
0.000105692
0.000231012
0.000304866
5.36242e-06
-1.29748e-06
1.10383e-05
-2.23137e-06
1.69396e-05
-3.74471e-06
2.2881e-05
-5.33977e-06
2.89502e-05
-7.3091e-06
3.5811e-05
-1.09091e-05
4.19573e-05
-1.46015e-05
4.71318e-05
-2.075e-05
5.24206e-05
-2.80942e-05
6.15308e-05
-4.46055e-05
7.04518e-05
-5.92535e-05
8.35889e-05
-7.5377e-05
9.90127e-05
-9.58125e-05
0.000107416
-0.000105761
0.000106969
-9.65448e-05
0.000101641
-6.97363e-05
7.90303e-05
-4.73656e-05
4.93713e-05
-1.81985e-05
8.72461e-05
2.36647e-05
9.96265e-05
2.9579e-05
0.000123927
6.22537e-05
0.000170629
5.89721e-05
0.000130584
0.000271052
4.42361e-06
-1.58179e-05
9.26815e-06
-1.7357e-05
1.41108e-05
-1.95882e-05
1.94049e-05
-2.28836e-05
2.39657e-05
-2.56893e-05
2.9513e-05
-3.21713e-05
3.62476e-05
-3.87436e-05
4.51888e-05
-4.84769e-05
5.70074e-05
-5.8489e-05
6.92208e-05
-7.12704e-05
8.05587e-05
-7.88042e-05
9.91659e-05
-9.60239e-05
0.000108479
-0.000105822
0.000108631
-0.000106779
0.000105252
-9.45284e-05
0.000101414
-6.10503e-05
9.42724e-05
-3.99319e-05
6.18364e-05
-2.32716e-05
0.000102754
1.46463e-05
0.000117647
1.60911e-05
0.000143524
3.63203e-05
0.000171985
3.0487e-05
5.7507e-05
0.000245046
6.20205e-06
-3.96008e-05
1.26657e-05
-4.09281e-05
1.92554e-05
-4.23605e-05
2.7168e-05
-4.55352e-05
3.57486e-05
-4.744e-05
4.54609e-05
-5.27103e-05
5.65382e-05
-5.79968e-05
6.83701e-05
-6.5613e-05
7.9896e-05
-7.28388e-05
9.0503e-05
-8.27929e-05
0.000100143
-8.85715e-05
0.000105459
-0.000101315
0.000107823
-0.000108493
0.000107079
-0.000106997
0.000102052
-9.1225e-05
9.88609e-05
-5.63691e-05
9.83882e-05
-3.79833e-05
5.52982e-05
-2.51531e-05
0.000103641
5.87675e-06
0.000124128
4.28942e-06
0.000150076
1.05303e-05
0.000174645
5.98128e-06
1.36989e-05
0.000218526
9.75101e-06
-4.95388e-05
1.88451e-05
-5.01941e-05
2.77925e-05
-5.15409e-05
3.65191e-05
-5.45003e-05
4.63442e-05
-5.74004e-05
5.56787e-05
-6.20983e-05
6.49642e-05
-6.73028e-05
7.29833e-05
-7.36383e-05
8.01108e-05
-7.99679e-05
8.55682e-05
-8.82499e-05
9.03302e-05
-9.33299e-05
9.5228e-05
-0.000106164
9.81376e-05
-0.000111813
9.84497e-05
-0.000108641
9.2587e-05
-8.81043e-05
9.02166e-05
-5.57329e-05
9.09467e-05
-4.00522e-05
5.27059e-05
-2.3459e-05
0.000103897
-3.73546e-06
0.000126532
-9.97428e-06
0.000149135
-1.20902e-05
0.000170327
-1.52165e-05
-1.95553e-05
0.000203583
7.57871e-06
-5.71175e-05
1.53851e-05
-5.80005e-05
2.35782e-05
-5.9734e-05
3.13635e-05
-6.22854e-05
3.94678e-05
-6.55047e-05
4.69564e-05
-6.95868e-05
5.40457e-05
-7.43922e-05
6.03e-05
-7.98926e-05
6.64289e-05
-8.60968e-05
7.2237e-05
-9.4058e-05
7.80117e-05
-9.91011e-05
8.40575e-05
-0.000112156
8.76543e-05
-0.000115985
8.76814e-05
-0.000110498
8.1535e-05
-8.5672e-05
8.04952e-05
-5.71148e-05
7.66197e-05
-4.45838e-05
5.6281e-05
-2.19171e-05
0.000108189
-1.64214e-05
0.000124266
-2.51321e-05
0.000142787
-3.06323e-05
0.000163438
-3.58808e-05
-4.55986e-05
0.000189471
7.29548e-06
-6.4413e-05
1.45969e-05
-6.53019e-05
2.17511e-05
-6.68882e-05
2.8613e-05
-6.91474e-05
3.54184e-05
-7.23101e-05
4.19616e-05
-7.61301e-05
4.84955e-05
-8.0926e-05
5.49607e-05
-8.63578e-05
6.13098e-05
-9.24459e-05
6.72973e-05
-0.000100045
7.34642e-05
-0.000105264
7.92929e-05
-0.000117921
8.2212e-05
-0.000119645
7.9935e-05
-0.000110364
7.25492e-05
-8.18111e-05
7.26663e-05
-5.8853e-05
6.13421e-05
-4.73681e-05
5.21982e-05
-2.12901e-05
0.000103421
-2.99112e-05
0.000118377
-4.00175e-05
0.000134735
-4.69906e-05
0.000153896
-5.50419e-05
-6.62508e-05
0.000174547
6.36186e-06
-7.07749e-05
1.26898e-05
-7.16299e-05
1.8935e-05
-7.31333e-05
2.51618e-05
-7.53743e-05
3.13368e-05
-7.8485e-05
3.74619e-05
-8.22551e-05
4.33666e-05
-8.68307e-05
4.9104e-05
-9.20952e-05
5.47345e-05
-9.80764e-05
5.95644e-05
-0.000104875
6.45938e-05
-0.00011029
6.99106e-05
-0.000123178
7.21101e-05
-0.000122898
6.73759e-05
-0.000108387
6.05613e-05
-7.84773e-05
6.1664e-05
-6.17934e-05
4.40585e-05
-4.25188e-05
6.71083e-05
-3.02907e-05
9.62427e-05
-4.30382e-05
0.000110249
-5.402e-05
0.000125262
-6.2004e-05
0.000142198
-7.19776e-05
-8.47639e-05
0.000160711
5.63188e-06
-7.64068e-05
1.12375e-05
-7.72355e-05
1.67731e-05
-7.86689e-05
2.22286e-05
-8.08298e-05
2.74697e-05
-8.37261e-05
3.26049e-05
-8.73903e-05
3.75457e-05
-9.17716e-05
4.23398e-05
-9.68892e-05
4.70507e-05
-0.000102787
5.1776e-05
-0.000109601
5.72367e-05
-0.000115747
6.22067e-05
-0.0001281
6.28895e-05
-0.000124969
5.5419e-05
-0.000104378
5.01041e-05
-7.68781e-05
4.72445e-05
-6.51867e-05
3.5166e-05
-3.53591e-05
7.50694e-05
-4.7193e-05
8.78643e-05
-5.5407e-05
0.000100568
-6.67238e-05
0.000114242
-7.56771e-05
0.000129783
-8.75187e-05
-0.000102685
0.000147704
4.89513e-06
-8.13019e-05
9.75373e-06
-8.20941e-05
1.45301e-05
-8.34453e-05
1.91896e-05
-8.54893e-05
2.37663e-05
-8.83028e-05
2.82071e-05
-9.18311e-05
3.25364e-05
-9.61009e-05
3.67468e-05
-0.0001011
4.0871e-05
-0.000106911
4.48107e-05
-0.00011354
4.94937e-05
-0.000120426
5.37041e-05
-0.000132292
5.18449e-05
-0.000125017
4.27974e-05
-9.92144e-05
4.01622e-05
-7.6896e-05
3.20707e-05
-6.04939e-05
3.40968e-05
-3.4832e-05
6.71753e-05
-5.81853e-05
7.83813e-05
-6.66015e-05
8.9536e-05
-7.78785e-05
0.000101823
-8.7964e-05
0.000116203
-0.000101899
-0.000119422
0.00013294
4.15506e-06
-8.54569e-05
8.2925e-06
-8.62315e-05
1.2375e-05
-8.75278e-05
1.63525e-05
-8.94668e-05
2.01816e-05
-9.21318e-05
2.38596e-05
-9.55092e-05
2.73359e-05
-9.95772e-05
3.06288e-05
-0.000104393
3.38062e-05
-0.000110089
3.6907e-05
-0.000116641
4.08782e-05
-0.000124393
4.42489e-05
-0.000135739
3.8863e-05
-0.000122469
3.00167e-05
-9.43345e-05
2.85483e-05
-7.84341e-05
1.8086e-05
-4.88589e-05
4.75986e-05
-5.84961e-05
5.83914e-05
-6.77352e-05
6.81622e-05
-7.63721e-05
7.74997e-05
-8.7216e-05
8.79941e-05
-9.84585e-05
0.000100115
-0.00011403
-0.000134651
0.000114867
3.3855e-06
-8.88424e-05
6.76454e-06
-8.96105e-05
1.01477e-05
-9.0911e-05
1.34981e-05
-9.28171e-05
1.66838e-05
-9.53175e-05
1.96546e-05
-9.848e-05
2.2396e-05
-0.000102319
2.4853e-05
-0.00010685
2.69772e-05
-0.000112215
2.89326e-05
-0.000118607
3.16738e-05
-0.000127143
3.35621e-05
-0.000137955
2.44468e-05
-0.000117719
1.76547e-05
-9.048e-05
1.69009e-05
-7.38783e-05
1.86315e-05
-4.34526e-05
4.11144e-05
-6.90768e-05
4.95494e-05
-7.61442e-05
5.77529e-05
-8.45758e-05
6.51491e-05
-9.46305e-05
7.39423e-05
-0.000107479
8.21319e-05
-0.000124333
-0.000159386
9.06251e-05
2.85925e-06
-9.17316e-05
5.65833e-06
-9.24438e-05
8.37067e-06
-9.36667e-05
1.10365e-05
-9.55441e-05
1.35835e-05
-9.79593e-05
1.59425e-05
-0.000100998
1.80365e-05
-0.000104698
1.97056e-05
-0.000109063
2.06762e-05
-0.000114243
2.07978e-05
-0.000120692
2.02035e-05
-0.000129448
1.73175e-05
-0.000139236
8.59114e-06
-0.000113578
6.70364e-06
-9.01477e-05
7.80371e-06
-6.19705e-05
2.3514e-05
-7.24918e-05
3.40901e-05
-7.74038e-05
4.16588e-05
-8.38617e-05
4.83016e-05
-9.19132e-05
5.37932e-05
-0.000102748
5.955e-05
-0.000123779
5.36629e-05
-0.000154151
-0.000231108
5.00788e-05
2.50552e-06
-9.75635e-05
4.91452e-06
-9.83922e-05
7.15881e-06
-9.98747e-05
9.18874e-06
-0.000102229
1.10724e-05
-0.000105546
1.28012e-05
-0.000109929
1.42437e-05
-0.000115523
1.50889e-05
-0.000122408
1.48156e-05
-0.000130857
1.26673e-05
-0.000140556
5.50707e-06
-0.000150136
-5.35445e-06
-0.000158273
-6.85401e-06
-0.000118904
1.06972e-06
-8.90845e-05
7.77673e-06
-6.32803e-05
1.94105e-05
-7.83724e-05
2.8638e-05
-8.91565e-05
3.50994e-05
-9.87949e-05
3.8748e-05
-0.00011455
3.61084e-05
-0.000135765
2.85292e-05
-0.000178579
4.76174e-06
-0.00023805
-0.000166521
-2.22154e-05
1.88889e-06
-0.000128509
3.65772e-06
-0.000130049
5.19473e-06
-0.000132879
6.33228e-06
-0.000137251
7.03782e-06
-0.000143457
7.30751e-06
-0.000152017
7.1784e-06
-0.00016427
6.50897e-06
-0.000183228
5.13831e-06
-0.000206574
1.53442e-06
-0.000227116
-1.08108e-05
-0.000240382
-1.9974e-05
-0.000251492
-1.28572e-05
-0.000168465
-9.82013e-07
-0.00011182
8.06651e-06
-9.55184e-05
1.70498e-05
-0.000119492
1.94498e-05
-0.000130689
1.8808e-05
-0.000153054
1.46321e-05
-0.00017721
1.39247e-06
-0.000223289
-2.11333e-05
-0.000176661
-7.05156e-05
-9.1803e-05
-5.89237e-05
-0.000125911
4.47846e-07
-0.00020231
7.8522e-07
-0.000206398
9.51236e-07
-0.000212778
7.44615e-07
-0.000221535
1.0362e-07
-0.000237209
-1.33405e-06
-0.000255076
-3.87955e-06
-0.000278443
-7.46794e-06
-0.000272259
-1.07225e-05
-0.000207529
-1.77301e-05
-0.000179314
-3.03315e-05
-0.000170698
-2.84514e-05
-0.000185231
-1.08158e-05
-0.000156833
-8.93192e-07
-0.000136999
4.34479e-06
-0.000169401
4.23512e-06
-0.000185914
-1.66447e-06
-0.000206114
-1.24744e-05
-0.000185071
-3.11089e-05
-0.000114425
-6.44307e-05
-8.25191e-05
-7.58339e-05
-7.69706e-05
-7.36298e-05
-6.33952e-05
-7.55086e-06
-0.00012499
-6.46279e-07
-0.000151724
-1.96042e-06
-0.00014744
-2.99323e-06
-0.000148458
-4.07733e-06
-0.000149222
-5.34679e-06
-0.000158239
-8.28058e-06
-0.000174531
-1.57865e-05
-0.00020407
-3.16902e-05
-0.000199754
-4.55221e-05
-0.000116135
-3.20431e-05
-8.70749e-05
8.01857e-06
-9.92789e-05
1.26758e-05
-0.000104364
8.69937e-07
-9.45698e-05
-8.44245e-06
-7.78166e-05
-3.98154e-05
-8.11848e-05
-6.70767e-05
-7.85915e-05
-8.87063e-05
-7.52863e-05
-8.92654e-05
-8.0479e-05
-5.80196e-05
-9.78001e-05
-3.03916e-05
-9.25631e-05
-4.75275e-05
-5.97459e-05
-0.000101259
-9.66562e-06
2.44454e-05
-0.000133258
-2.95215e-06
-7.30234e-05
-9.55448e-06
-7.85473e-05
-1.24177e-05
-8.1887e-05
-1.43024e-05
-8.42678e-05
-1.52477e-05
-8.51503e-05
-1.65035e-05
-8.33038e-05
-1.74004e-05
-7.96604e-05
-1.2883e-05
-7.89062e-05
-2.00508e-05
-0.000104758
-2.75081e-05
-0.000106432
-3.84047e-05
-0.00010796
-6.00916e-05
-0.000111773
-7.41904e-05
-9.6618e-05
-6.75299e-05
-7.52435e-05
-7.10552e-05
-7.47345e-05
-5.9163e-05
-7.9092e-05
-4.48926e-05
-8.58073e-05
-3.41007e-05
-9.10762e-05
-4.08958e-05
-9.10048e-05
-6.70782e-05
-6.63801e-05
-0.000111348
-1.54773e-05
-0.000134279
1.32633e-05
2.25473e-05
-0.000132384
-7.71327e-07
-8.44098e-05
-1.49663e-06
-8.58322e-05
-3.01295e-06
-8.6469e-05
-5.55954e-06
-8.75234e-05
-9.38021e-06
-8.89704e-05
-1.45365e-05
-9.09041e-05
-2.05676e-05
-9.27778e-05
-2.69716e-05
-9.45699e-05
-3.48364e-05
-9.61963e-05
-4.45226e-05
-9.67508e-05
-5.48617e-05
-9.75958e-05
-6.65261e-05
-9.93358e-05
-7.25261e-05
-8.97818e-05
-6.89493e-05
-7.94791e-05
-6.65063e-05
-7.59324e-05
-6.99975e-05
-7.56157e-05
-7.81566e-05
-7.76485e-05
-8.98948e-05
-7.93381e-05
-0.000108511
-7.23886e-05
-0.000129272
-4.56197e-05
-0.000137306
-7.44405e-06
-0.000132808
8.76476e-06
1.56611e-05
-0.000125924
-2.93199e-06
-8.15747e-05
-5.67521e-06
-8.31772e-05
-8.52153e-06
-8.37156e-05
-1.15757e-05
-8.45219e-05
-1.49978e-05
-8.55896e-05
-1.91203e-05
-8.6812e-05
-2.39594e-05
-8.79802e-05
-2.96663e-05
-8.8977e-05
-3.63667e-05
-8.95923e-05
-4.35023e-05
-8.96155e-05
-5.11825e-05
-8.99115e-05
-6.10578e-05
-8.94396e-05
-6.84582e-05
-8.24896e-05
-7.30633e-05
-7.52756e-05
-7.80807e-05
-7.09864e-05
-8.47391e-05
-6.89575e-05
-9.42616e-05
-6.81263e-05
-0.00010777
-6.58295e-05
-0.000123048
-5.71118e-05
-0.000131694
-3.69736e-05
-0.000128615
-1.05235e-05
-0.000122616
2.76521e-06
8.54262e-06
-0.000115499
-2.41237e-06
-7.91617e-05
-4.95365e-06
-8.06353e-05
-7.71932e-06
-8.09494e-05
-1.07964e-05
-8.14443e-05
-1.4352e-05
-8.20336e-05
-1.85172e-05
-8.26464e-05
-2.33528e-05
-8.31442e-05
-2.89296e-05
-8.33998e-05
-3.52619e-05
-8.32596e-05
-4.21861e-05
-8.26908e-05
-5.02343e-05
-8.18628e-05
-5.96785e-05
-7.99951e-05
-6.6416e-05
-7.5752e-05
-7.06731e-05
-7.10185e-05
-7.49345e-05
-6.67252e-05
-8.08579e-05
-6.30345e-05
-8.98097e-05
-5.9175e-05
-0.000101834
-5.38056e-05
-0.000113163
-4.57832e-05
-0.000117757
-3.23795e-05
-0.000114319
-1.3962e-05
-0.000108865
-2.6888e-06
3.71932e-06
-0.000104044
-2.74945e-06
-7.64118e-05
-5.59707e-06
-7.77872e-05
-8.62341e-06
-7.79226e-05
-1.19167e-05
-7.81506e-05
-1.55787e-05
-7.83712e-05
-1.96869e-05
-7.8538e-05
-2.4283e-05
-7.85479e-05
-2.93735e-05
-7.83092e-05
-3.48887e-05
-7.77442e-05
-4.07745e-05
-7.68049e-05
-4.72487e-05
-7.53884e-05
-5.41371e-05
-7.31066e-05
-6.00101e-05
-6.9879e-05
-6.5145e-05
-6.58838e-05
-7.00455e-05
-6.1825e-05
-7.54457e-05
-5.76348e-05
-8.19363e-05
-5.2685e-05
-8.94933e-05
-4.62491e-05
-9.70223e-05
-3.82547e-05
-0.000101463
-2.79397e-05
-9.99014e-05
-1.55236e-05
-9.69324e-05
-5.65837e-06
2.07459e-06
-9.52888e-05
-2.93215e-06
-7.34792e-05
-5.95609e-06
-7.47628e-05
-9.11147e-06
-7.47668e-05
-1.2461e-05
-7.48007e-05
-1.60475e-05
-7.47845e-05
-1.99082e-05
-7.46771e-05
-2.40529e-05
-7.44031e-05
-2.8474e-05
-7.3888e-05
-3.31555e-05
-7.30626e-05
-3.81169e-05
-7.18434e-05
-4.34728e-05
-7.00325e-05
-4.91435e-05
-6.74359e-05
-5.47729e-05
-6.42497e-05
-6.01313e-05
-6.05255e-05
-6.56107e-05
-5.63459e-05
-7.1531e-05
-5.17149e-05
-7.75194e-05
-4.66971e-05
-8.23016e-05
-4.14676e-05
-8.56428e-05
-3.49139e-05
-8.80583e-05
-2.55247e-05
-8.83863e-05
-1.51962e-05
-8.76472e-05
-6.39803e-06
1.08827e-06
-8.6662e-05
-2.94462e-06
-7.05343e-05
-5.98535e-06
-7.17218e-05
-9.12317e-06
-7.16287e-05
-1.2413e-05
-7.15106e-05
-1.58923e-05
-7.1305e-05
-1.95974e-05
-7.09718e-05
-2.3546e-05
-7.04544e-05
-2.77398e-05
-6.9694e-05
-3.21831e-05
-6.86193e-05
-3.69035e-05
-6.71229e-05
-4.18469e-05
-6.50891e-05
-4.6768e-05
-6.25148e-05
-5.15362e-05
-5.94815e-05
-5.60106e-05
-5.60514e-05
-6.01626e-05
-5.21942e-05
-6.40913e-05
-4.77866e-05
-6.80946e-05
-4.26943e-05
-7.27031e-05
-3.68596e-05
-7.76573e-05
-2.99601e-05
-8.0792e-05
-2.23905e-05
-8.12541e-05
-1.47346e-05
-8.02128e-05
-7.43987e-06
9.00268e-08
-7.92155e-05
-2.89079e-06
-6.76432e-05
-5.86146e-06
-6.87509e-05
-8.91249e-06
-6.85774e-05
-1.20849e-05
-6.8338e-05
-1.54158e-05
-6.79739e-05
-1.89375e-05
-6.745e-05
-2.26704e-05
-6.67214e-05
-2.66242e-05
-6.57402e-05
-3.07872e-05
-6.44562e-05
-3.5102e-05
-6.2808e-05
-3.9449e-05
-6.07422e-05
-4.37215e-05
-5.82424e-05
-4.7916e-05
-5.52871e-05
-5.21275e-05
-5.184e-05
-5.6364e-05
-4.7958e-05
-6.05498e-05
-4.36011e-05
-6.44387e-05
-3.88058e-05
-6.7775e-05
-3.35238e-05
-7.01342e-05
-2.76014e-05
-7.15236e-05
-2.10014e-05
-7.23189e-05
-1.39399e-05
-7.27918e-05
-6.96742e-06
-3.81218e-07
-7.23217e-05
-2.82966e-06
-6.48134e-05
-5.73922e-06
-6.58412e-05
-8.70987e-06
-6.56066e-05
-1.1774e-05
-6.52738e-05
-1.49531e-05
-6.47946e-05
-1.82626e-05
-6.41405e-05
-2.17075e-05
-6.32764e-05
-2.52852e-05
-6.21624e-05
-2.89896e-05
-6.07519e-05
-3.28003e-05
-5.89973e-05
-3.66735e-05
-5.6869e-05
-4.05567e-05
-5.43592e-05
-4.43791e-05
-5.14648e-05
-4.80446e-05
-4.81746e-05
-5.15476e-05
-4.44552e-05
-5.48423e-05
-4.03067e-05
-5.79359e-05
-3.57126e-05
-6.08242e-05
-3.06359e-05
-6.33742e-05
-2.50518e-05
-6.52654e-05
-1.91107e-05
-6.61795e-05
-1.30263e-05
-6.62432e-05
-6.90426e-06
-8.11734e-07
-6.58135e-05
-2.73025e-06
-6.20831e-05
-5.52364e-06
-6.30477e-05
-8.36516e-06
-6.2765e-05
-1.12777e-05
-6.23611e-05
-1.42798e-05
-6.17924e-05
-1.73838e-05
-6.10365e-05
-2.05946e-05
-6.00655e-05
-2.39084e-05
-5.88486e-05
-2.73075e-05
-5.73528e-05
-3.07566e-05
-5.55482e-05
-3.42131e-05
-5.34127e-05
-3.76436e-05
-5.09288e-05
-4.10271e-05
-4.80814e-05
-4.43371e-05
-4.48648e-05
-4.75152e-05
-4.12774e-05
-5.05106e-05
-3.73116e-05
-5.32548e-05
-3.29687e-05
-5.56481e-05
-2.8243e-05
-5.75488e-05
-2.31514e-05
-5.89043e-05
-1.77556e-05
-5.97519e-05
-1.21793e-05
-6.00698e-05
-6.58675e-06
-1.03447e-06
-5.9848e-05
-2.6008e-06
-5.94822e-05
-5.2602e-06
-6.03882e-05
-7.95448e-06
-6.00707e-05
-1.0702e-05
-5.96135e-05
-1.3515e-05
-5.89795e-05
-1.64005e-05
-5.81509e-05
-1.93599e-05
-5.71062e-05
-2.23871e-05
-5.58213e-05
-2.54678e-05
-5.42722e-05
-2.85787e-05
-5.24373e-05
-3.16916e-05
-5.02998e-05
-3.47734e-05
-4.78471e-05
-3.77857e-05
-4.50692e-05
-4.06924e-05
-4.19584e-05
-4.34596e-05
-3.85102e-05
-4.60437e-05
-3.47277e-05
-4.83976e-05
-3.0615e-05
-5.0457e-05
-2.61839e-05
-5.21452e-05
-2.14636e-05
-5.33888e-05
-1.65123e-05
-5.41483e-05
-1.14203e-05
-5.4442e-05
-6.29347e-06
-1.17431e-06
-5.4303e-05
-2.45715e-06
-5.7025e-05
-4.96342e-06
-5.78819e-05
-7.49517e-06
-5.75389e-05
-1.00659e-05
-5.70428e-05
-1.26834e-05
-5.63619e-05
-1.53518e-05
-5.54825e-05
-1.80701e-05
-5.43879e-05
-2.08311e-05
-5.30603e-05
-2.36212e-05
-5.14821e-05
-2.64209e-05
-4.96376e-05
-2.92072e-05
-4.75136e-05
-3.19545e-05
-4.50999e-05
-3.46346e-05
-4.23892e-05
-3.72144e-05
-3.93787e-05
-3.96563e-05
-3.60686e-05
-4.19206e-05
-3.24635e-05
-4.39621e-05
-2.85737e-05
-4.57293e-05
-2.4417e-05
-4.71695e-05
-2.00237e-05
-4.82433e-05
-1.54389e-05
-4.89337e-05
-1.07303e-05
-4.92444e-05
-5.98314e-06
-1.24056e-06
-4.91789e-05
-2.29634e-06
-5.47287e-05
-4.63605e-06
-5.55422e-05
-6.99324e-06
-5.51817e-05
-9.37799e-06
-5.4658e-05
-1.17953e-05
-5.39446e-05
-1.4247e-05
-5.30308e-05
-1.67305e-05
-5.19044e-05
-1.92388e-05
-5.05521e-05
-2.176e-05
-4.8961e-05
-2.42778e-05
-4.71198e-05
-2.67726e-05
-4.5019e-05
-2.9221e-05
-4.26515e-05
-3.15971e-05
-4.00133e-05
-3.38725e-05
-3.71034e-05
-3.60162e-05
-3.39249e-05
-3.79945e-05
-3.04855e-05
-3.97704e-05
-2.6798e-05
-4.13048e-05
-2.28828e-05
-4.256e-05
-1.87688e-05
-4.35051e-05
-1.44942e-05
-4.41252e-05
-1.01106e-05
-4.44242e-05
-5.6845e-06
-1.26029e-06
-4.44052e-05
-2.12628e-06
-5.26024e-05
-4.28984e-06
-5.33786e-05
-6.46493e-06
-5.30067e-05
-8.65882e-06
-5.24642e-05
-1.08742e-05
-5.17291e-05
-1.31113e-05
-5.07938e-05
-1.53666e-05
-4.96491e-05
-1.76335e-05
-4.82853e-05
-1.99012e-05
-4.66933e-05
-2.21559e-05
-4.48651e-05
-2.43807e-05
-4.27943e-05
-2.65556e-05
-4.04767e-05
-2.86584e-05
-3.79106e-05
-3.06642e-05
-3.50977e-05
-3.25463e-05
-3.20431e-05
-3.42759e-05
-2.8756e-05
-3.58232e-05
-2.52509e-05
-3.71582e-05
-2.1548e-05
-3.8253e-05
-1.76742e-05
-3.90854e-05
-1.36621e-05
-3.96435e-05
-9.55287e-06
-3.9928e-05
-5.40022e-06
-1.247e-06
-3.9942e-05
-1.94857e-06
-5.06538e-05
-3.92938e-06
-5.13979e-05
-5.91718e-06
-5.10189e-05
-7.91719e-06
-5.04642e-05
-9.93054e-06
-4.97158e-05
-1.19562e-05
-4.87682e-05
-1.39904e-05
-4.76148e-05
-1.60268e-05
-4.62489e-05
-1.80559e-05
-4.46643e-05
-2.00655e-05
-4.28556e-05
-2.20409e-05
-4.0819e-05
-2.3965e-05
-3.85527e-05
-2.58187e-05
-3.60571e-05
-2.75808e-05
-3.33357e-05
-2.92288e-05
-3.03951e-05
-3.07391e-05
-2.72459e-05
-3.20875e-05
-2.39026e-05
-3.32508e-05
-2.03849e-05
-3.42078e-05
-1.67174e-05
-3.49416e-05
-1.29286e-05
-3.54422e-05
-9.05255e-06
-3.57095e-05
-5.13325e-06
-1.21157e-06
-3.57454e-05
-1.76606e-06
-4.88878e-05
-3.55976e-06
-4.96042e-05
-5.3572e-06
-4.92215e-05
-7.16205e-06
-4.86594e-05
-8.9743e-06
-4.79036e-05
-1.07922e-05
-4.69504e-05
-1.26118e-05
-4.57952e-05
-1.44271e-05
-4.44337e-05
-1.62297e-05
-4.28617e-05
-1.80091e-05
-4.10763e-05
-1.97524e-05
-3.90757e-05
-2.14452e-05
-3.686e-05
-2.3071e-05
-3.44314e-05
-2.46121e-05
-3.17946e-05
-2.60499e-05
-2.89576e-05
-2.73647e-05
-2.59311e-05
-2.85374e-05
-2.273e-05
-2.95497e-05
-1.93728e-05
-3.03853e-05
-1.58819e-05
-3.10312e-05
-1.22829e-05
-3.14792e-05
-8.60483e-06
-3.17282e-05
-4.88447e-06
-1.15946e-06
-3.17808e-05
-1.58036e-06
-4.73075e-05
-3.18424e-06
-4.80003e-05
-4.7897e-06
-4.76161e-05
-6.39927e-06
-4.70498e-05
-8.01214e-06
-4.62908e-05
-9.62608e-06
-4.53365e-05
-1.12372e-05
-4.41841e-05
-1.284e-05
-4.2831e-05
-1.44269e-05
-4.12748e-05
-1.59889e-05
-3.95144e-05
-1.7515e-05
-3.75497e-05
-1.89928e-05
-3.53823e-05
-2.04086e-05
-3.30157e-05
-2.17476e-05
-3.04558e-05
-2.29943e-05
-2.77109e-05
-2.4133e-05
-2.47926e-05
-2.51482e-05
-2.17148e-05
-2.60257e-05
-1.84954e-05
-2.67529e-05
-1.51549e-05
-2.73196e-05
-1.17164e-05
-2.77191e-05
-8.20555e-06
-2.79501e-05
-4.65371e-06
-1.09552e-06
-2.80144e-05
-1.39256e-06
-4.59149e-05
-2.80511e-06
-4.65878e-05
-4.218e-06
-4.62032e-05
-5.63298e-06
-4.56349e-05
-7.04867e-06
-4.48751e-05
-8.46254e-06
-4.39226e-05
-9.87088e-06
-4.27758e-05
-1.12686e-05
-4.14333e-05
-1.26492e-05
-3.98943e-05
-1.40048e-05
-3.81589e-05
-1.53261e-05
-3.62284e-05
-1.66029e-05
-3.41056e-05
-1.78235e-05
-3.17951e-05
-1.89759e-05
-2.93034e-05
-2.00474e-05
-2.66396e-05
-2.10253e-05
-2.38146e-05
-2.18976e-05
-2.08427e-05
-2.26529e-05
-1.77402e-05
-2.32816e-05
-1.45263e-05
-2.37758e-05
-1.12223e-05
-2.41304e-05
-7.85119e-06
-2.43438e-05
-4.44043e-06
-1.0217e-06
-2.4418e-05
-1.20285e-06
-4.47121e-05
-2.42351e-06
-4.53672e-05
-3.64405e-06
-4.49827e-05
-4.86568e-06
-4.44132e-05
-6.08662e-06
-4.36542e-05
-7.30417e-06
-4.27051e-05
-8.51481e-06
-4.15652e-05
-9.71404e-06
-4.02341e-05
-1.08963e-05
-3.87121e-05
-1.20548e-05
-3.70004e-05
-1.3182e-05
-3.51013e-05
-1.42692e-05
-3.30185e-05
-1.53071e-05
-3.07574e-05
-1.62856e-05
-2.8325e-05
-1.71945e-05
-2.57305e-05
-1.80241e-05
-2.29852e-05
-1.87646e-05
-2.01022e-05
-1.94075e-05
-1.70973e-05
-1.99454e-05
-1.39884e-05
-2.03726e-05
-1.07952e-05
-2.0685e-05
-7.53887e-06
-2.08817e-05
-4.24393e-06
-9.39213e-07
-2.09644e-05
-1.01008e-06
-4.3702e-05
-2.03951e-06
-4.43377e-05
-3.06833e-06
-4.39539e-05
-4.09798e-06
-4.33836e-05
-5.12645e-06