/*--------------------------------*- C++ -*----------------------------------*\
| =========                 |                                                 |
| \\      /  F ield         | OpenFOAM: The Open Source CFD Toolbox           |
|  \\    /   O peration     | Version:  2.4.0                                 |
|   \\  /    A nd           | Web:      www.OpenFOAM.org                      |
|    \\/     M anipulation  |                                                 |
\*---------------------------------------------------------------------------*/
FoamFile
{
    version     2.0;
    format      ascii;
    class       surfaceScalarField;
    location    "0.15";
    object      phi.oil;
}
// * * * * * * * * * * * * * * * * * * * * * * * * * * * * * * * * * * * * * //

dimensions      [0 3 -1 0 0 0 0];

internalField   nonuniform List<scalar> 
4432
(
2.67193e-06
-2.67188e-06
5.39018e-06
-2.7182e-06
8.20015e-06
-2.80992e-06
1.1152e-05
-2.95176e-06
1.42861e-05
-3.13407e-06
1.77015e-05
-3.41542e-06
2.13878e-05
-3.68626e-06
2.57294e-05
-4.3416e-06
2.97396e-05
-4.01018e-06
3.64102e-05
-6.67064e-06
4.22587e-05
-5.84839e-06
4.8005e-05
-5.73671e-06
5.56544e-05
-7.41927e-06
6.58423e-05
-8.79303e-06
7.78744e-05
-8.88269e-06
9.048e-05
-7.57711e-06
0.000101675
-4.054e-06
0.00010902
2.81336e-06
0.000108552
1.53897e-05
0.000110749
3.269e-05
0.000104631
4.83845e-05
4.90907e-05
8.90088e-05
0.000158009
2.66292e-06
-5.33473e-06
5.37219e-06
-5.4274e-06
8.17289e-06
-5.61056e-06
1.11142e-05
-5.89302e-06
1.42343e-05
-6.25408e-06
1.76398e-05
-6.82085e-06
2.13058e-05
-7.35227e-06
2.55377e-05
-8.57347e-06
2.97965e-05
-8.26893e-06
3.61675e-05
-1.30416e-05
4.17604e-05
-1.14406e-05
4.74426e-05
-1.14908e-05
5.60549e-05
-1.5693e-05
6.77572e-05
-1.86158e-05
8.01885e-05
-1.77556e-05
9.14276e-05
-9.85214e-06
0.00010021
4.72321e-06
0.00010533
1.33446e-05
0.000111092
2.03133e-05
0.000118974
3.38975e-05
0.000116334
5.72884e-05
6.69865e-05
0.000107758
0.000261862
2.64235e-06
-7.97705e-06
5.33088e-06
-8.11589e-06
8.11052e-06
-8.39016e-06
1.10276e-05
-8.81002e-06
1.41193e-05
-9.3458e-06
1.74931e-05
-1.01947e-05
2.11267e-05
-1.09858e-05
2.52431e-05
-1.26899e-05
2.97305e-05
-1.27563e-05
3.56211e-05
-1.89323e-05
4.11036e-05
-1.69194e-05
4.66573e-05
-1.73628e-05
5.60262e-05
-2.42922e-05
6.85732e-05
-2.42217e-05
7.97657e-05
-7.68624e-06
8.89059e-05
-2.63675e-06
0.000102937
5.66318e-06
0.000107094
1.42888e-05
0.000108861
2.47507e-05
0.000105133
3.38993e-05
9.62681e-05
4.3497e-05
6.73509e-05
9.63423e-05
0.000321804
2.61165e-06
-1.05886e-05
5.2694e-06
-1.07736e-05
8.01817e-06
-1.11389e-05
1.08989e-05
-1.16907e-05
1.39511e-05
-1.23979e-05
1.72652e-05
-1.35088e-05
2.08436e-05
-1.45641e-05
2.48779e-05
-1.67241e-05
2.94016e-05
-1.72799e-05
3.4849e-05
-2.43797e-05
4.02524e-05
-2.23177e-05
4.58009e-05
-2.3401e-05
5.47001e-05
-2.34889e-05
6.50993e-05
-1.31162e-05
8.62925e-05
-9.85197e-06
9.21002e-05
-3.77195e-06
9.49667e-05
3.31959e-06
9.39231e-05
1.01189e-05
9.24892e-05
1.40387e-05
9.46988e-05
9.45908e-06
8.08049e-05
3.05083e-05
5.65927e-05
9.49736e-05
0.000339644
2.57068e-06
-1.31593e-05
5.18766e-06
-1.33905e-05
7.89621e-06
-1.38474e-05
1.073e-05
-1.45245e-05
1.37276e-05
-1.53955e-05
1.69669e-05
-1.67481e-05
2.04705e-05
-1.80678e-05
2.44039e-05
-2.06575e-05
2.89276e-05
-2.18037e-05
3.37994e-05
-2.92512e-05
3.9083e-05
-2.77575e-05
4.06342e-05
-2.79786e-05
5.30155e-05
-1.48583e-05
7.48585e-05
-1.97033e-05
8.08742e-05
-1.53305e-05
8.20902e-05
-9.26263e-06
8.16816e-05
-5.47932e-06
8.42254e-05
-1.27593e-05
7.99288e-05
-6.6536e-06
7.16983e-05
2.01643e-06
5.19418e-05
4.41771e-05
3.81217e-05
0.000105122
0.000359693
2.5189e-06
-1.56782e-05
5.08487e-06
-1.59565e-05
7.74405e-06
-1.65066e-05
1.05211e-05
-1.73015e-05
1.34483e-05
-1.83227e-05
1.66004e-05
-1.99001e-05
1.99992e-05
-2.14666e-05
2.38485e-05
-2.45068e-05
2.81787e-05
-2.61339e-05
3.26468e-05
-3.37186e-05
3.67513e-05
-3.33007e-05
3.66254e-05
-2.98744e-05
6.27086e-05
-2.08113e-05
6.81319e-05
-2.62294e-05
6.94852e-05
-2.48551e-05
7.66766e-05
-3.23862e-05
8.16425e-05
-3.51346e-05
8.2054e-05
-2.69803e-05
7.98947e-05
-8.58832e-06
6.18869e-05
1.97639e-05
3.39186e-05
7.2073e-05
1.64398e-05
0.000122513
0.000372294
2.45422e-06
-1.81324e-05
4.95708e-06
-1.84593e-05
7.55576e-06
-1.91052e-05
1.02645e-05
-2.00103e-05
1.31071e-05
-2.11652e-05
1.61603e-05
-2.29533e-05
1.94382e-05
-2.47446e-05
2.31744e-05
-2.8243e-05
2.73549e-05
-3.03144e-05
3.15267e-05
-3.791e-05
3.31081e-05
-3.86002e-05
4.07447e-05
-3.06059e-05
5.57511e-05
-2.74233e-05
5.91905e-05
-4.16201e-05
7.16578e-05
-5.31605e-05
7.97176e-05
-5.66649e-05
8.53535e-05
-4.64345e-05
8.11343e-05
-2.33335e-05
6.38419e-05
8.64349e-06
4.4753e-05
3.88482e-05
2.52421e-05
9.15838e-05
6.58667e-06
0.000141168
0.000378619
2.3706e-06
-2.05029e-05
4.79354e-06
-2.08821e-05
7.3182e-06
-2.16296e-05
9.94623e-06
-2.26372e-05
1.26933e-05
-2.39081e-05
1.56416e-05
-2.58852e-05
1.8778e-05
-2.78397e-05
2.24102e-05
-3.17709e-05
2.65173e-05
-3.4201e-05
3.02366e-05
-4.13549e-05
2.97777e-05
-4.42606e-05
4.17378e-05
-3.56417e-05
5.00907e-05
-4.47463e-05
6.42157e-05
-6.07711e-05
7.06257e-05
-6.5959e-05
7.09084e-05
-6.0864e-05
6.51552e-05
-4.15965e-05
5.27595e-05
-1.11431e-05
4.23768e-05
1.90106e-05
3.57193e-05
4.55057e-05
2.4969e-05
0.000102334
1.14663e-05
0.000154671
0.00039008
-5.61272e-05
3.90877e-05
-9.46224e-05
2.66222e-05
-3.17509e-05
7.13821e-06
4.0304e-05
-0.000181841
3.63686e-05
-0.00018078
3.34863e-05
-0.000178442
5.64764e-05
-0.000168212
0.000102936
-0.000163646
0.00013702
-0.000162361
0.000189403
-0.000148803
0.000223904
-0.000145974
0.000235008
-0.000171218
0.000273917
-0.00021096
0.000310168
-0.000355467
0.000309897
-0.000410127
0.000201229
-0.000348409
8.25821e-05
-4.29879e-05
2.97966e-05
1.54093e-05
2.53473e-05
-4.68164e-05
6.68091e-05
-6.58585e-05
5.37226e-05
-1.88573e-06
1.87352e-05
6.95535e-05
-0.000152309
7.97738e-05
-0.000171229
7.61125e-05
-0.000175451
8.27147e-05
-0.000168181
0.0001054
-0.000148296
0.000130853
-0.000133056
0.000155751
-0.000128012
0.00017517
-0.000164306
0.000190798
-0.0002131
0.000243203
-0.000226956
0.000315493
-0.000259883
0.000303686
-0.000253578
0.000212401
-0.000139954
8.60365e-05
1.82012e-05
3.05105e-05
5.21735e-05
5.4032e-05
-3.41771e-05
8.68402e-05
-3.82405e-05
6.1862e-05
1.33296e-05
-2.25397e-05
7.27288e-05
-0.000136235
9.04956e-05
-0.000167293
8.93507e-05
-0.000175249
9.70523e-05
-0.000176518
0.000116981
-0.000163528
0.000138342
-0.000150237
0.000144387
-0.000179354
0.00016406
-0.000231646
0.000158338
-0.000251156
0.000153246
-0.000208974
0.000204576
-4.00005e-05
0.000184347
4.31474e-05
0.000117765
9.06758e-05
5.7912e-05
9.36897e-05
2.58282e-05
8.72304e-05
7.99712e-05
-1.3236e-05
9.9198e-05
2.96582e-06
6.56739e-05
4.69806e-05
-6.55578e-05
8.77593e-05
-0.000140565
0.000103714
-0.000155848
0.000107543
-0.00018273
0.000117396
-0.000187097
0.000132399
-0.000178521
0.000142921
-0.000174448
0.000156998
-0.000218956
0.000159725
-0.000247234
0.000143045
-0.000267396
0.000171202
-0.00011955
0.000150065
7.74998e-05
0.000114314
0.000158016
7.43084e-05
0.000159203
4.06209e-05
0.000134914
2.24238e-05
0.000112599
0.000101841
-9.16261e-06
0.000105957
1.62558e-05
8.48375e-05
6.85626e-05
-8.17473e-05
0.000100853
-0.000125586
0.000119229
-0.000155536
0.000123946
-0.00019044
0.00013012
-0.000193382
0.000140287
-0.000189057
0.000144151
-0.000201894
0.00015519
-0.000223866
0.00016178
-0.000249646
0.000140272
-0.00025657
0.000135525
-3.6947e-05
0.000103632
0.000148543
7.59072e-05
0.000204014
5.16974e-05
0.000190215
3.06589e-05
0.000155706
1.88485e-05
0.000132063
0.000119821
1.4852e-05
7.92406e-05
5.52833e-05
3.89316e-05
9.0447e-05
-8.28173e-05
0.000116858
-0.000115917
0.000130285
-0.000165335
0.000133362
-0.00019429
0.000136326
-0.000196339
0.000141128
-0.000195586
0.000142916
-0.000209132
0.000151345
-0.000229542
0.000154264
-0.00024842
0.000124963
-0.00022755
9.19432e-05
5.5719e-05
6.53331e-05
0.000194471
4.95734e-05
0.000225692
3.56878e-05
0.000204152
2.3897e-05
0.000167855
1.52337e-05
0.000147305
0.000134324
6.30384e-05
1.45355e-05
9.42781e-05
-3.77259e-05
0.000106903
-7.20887e-05
0.000129309
-0.000129332
0.000138845
-0.000176739
0.000139595
-0.00019507
0.000139492
-0.000196217
0.000140211
-0.000198935
0.000142157
-0.00021248
0.000147376
-0.000232249
0.000140402
-0.000250439
0.00010457
-0.000129653
5.26415e-05
0.000135344
3.71542e-05
0.000220267
3.04562e-05
0.000232123
2.40829e-05
0.000206297
1.93631e-05
0.000175819
1.19348e-05
0.000158399
0.00014583
9.48575e-05
-9.41328e-06
9.935e-05
-4.36592e-05
0.000121429
-8.637e-05
0.000140649
-0.000149806
0.000145274
-0.000181467
0.000142501
-0.000192296
0.000140408
-0.000194072
0.000139545
-0.000201175
0.000143626
-0.000214909
0.000149907
-0.000234854
0.000110894
-0.00024834
5.16821e-05
-1.64105e-05
1.89897e-05
0.000171144
1.61288e-05
0.000221195
1.67507e-05
0.000218813
1.60733e-05
0.000192674
1.55322e-05
0.000178379
9.15182e-06
0.000166064
0.000154796
4.7465e-06
-2.5074e-05
9.6358e-06
-2.55852e-05
1.47904e-05
-2.6574e-05
2.01642e-05
-2.77656e-05
2.57284e-05
-2.91833e-05
3.16764e-05
-3.15375e-05
3.79727e-05
-3.40101e-05
4.51339e-05
-3.94971e-05
5.34707e-05
-4.46364e-05
6.14837e-05
-5.51095e-05
5.54552e-05
-6.69852e-05
7.68707e-05
-7.60308e-05
0.000106524
-6.22189e-05
0.000118324
-8.03142e-05
0.00012551
-7.98557e-05
0.000116226
-5.42198e-05
9.37712e-05
-1.99672e-05
8.37655e-05
-1.22429e-06
7.73745e-05
2.53991e-05
8.10543e-05
4.18259e-05
9.68252e-05
8.65632e-05
0.000145816
0.00010568
0.00023101
0.000304886
4.49022e-06
-3.11584e-05
9.17373e-06
-3.20456e-05
1.41261e-05
-3.37391e-05
1.92252e-05
-3.58149e-05
2.43869e-05
-3.83369e-05
3.01017e-05
-4.30169e-05
3.57638e-05
-4.76204e-05
4.06107e-05
-5.54781e-05
4.54383e-05
-6.42005e-05
5.12771e-05
-7.90845e-05
4.19685e-05
-9.06991e-05
6.68805e-05
-9.96522e-05
0.000105508
-8.66067e-05
0.000115819
-9.43704e-05
0.00011524
-8.09875e-05
9.92276e-05
-4.04583e-05
8.91053e-05
-9.39997e-06
8.63615e-05
1.46133e-06
8.73995e-05
2.43594e-05
9.9643e-05
2.95824e-05
0.00012394
6.22658e-05
0.000170642
5.89786e-05
0.00013059
0.000271062
3.93669e-06
-4.73193e-05
8.11626e-06
-4.86661e-05
1.22071e-05
-5.07527e-05
1.65219e-05
-5.36603e-05
2.01827e-05
-5.60891e-05
2.44155e-05
-6.19597e-05
2.9599e-05
-6.73434e-05
3.65848e-05
-7.58665e-05
4.74073e-05
-8.35692e-05
6.19128e-05
-8.75974e-05
5.87999e-05
-8.38489e-05
8.55429e-05
-9.4194e-05
0.000118055
-9.62005e-05
0.000115753
-9.57643e-05
0.00011134
-7.89374e-05
0.000101895
-3.2753e-05
9.70102e-05
-4.18173e-06
9.66402e-05
1.81414e-06
0.000104247
1.67445e-05
0.000117667
1.61616e-05
0.00014354
3.63938e-05
0.000171999
3.05187e-05
5.75351e-05
0.000245054
5.15898e-06
-4.14353e-05
1.05827e-05
-4.2704e-05
1.63428e-05
-4.50764e-05
2.36389e-05
-4.88846e-05
3.20448e-05
-4.98189e-05
4.19673e-05
-5.39561e-05
5.36865e-05
-5.86433e-05
6.64306e-05
-6.58768e-05
7.88774e-05
-7.29265e-05
9.05622e-05
-8.27671e-05
5.9734e-05
-8.853e-05
8.97504e-05
-9.79949e-05
0.000115199
-9.8412e-05
0.000112808
-9.54857e-05
0.000106681
-7.5375e-05
0.000100319
-2.87306e-05
9.96908e-05
-3.76876e-06
0.000102665
-1.15906e-06
0.000112286
7.10168e-06
0.000124211
4.23644e-06
0.000150123
1.04814e-05
0.000174682
5.96032e-06
1.36795e-05
0.000218537
9.75102e-06
-4.95385e-05
1.88451e-05
-5.01938e-05
2.77924e-05
-5.15405e-05
3.65191e-05
-5.44997e-05
4.63441e-05
-5.73999e-05
5.56787e-05
-6.20979e-05
6.49642e-05
-6.73025e-05
7.29832e-05
-7.36379e-05
8.01107e-05
-7.99677e-05
8.55569e-05
-8.82497e-05
5.36678e-05
-9.33034e-05
8.2699e-05
-0.00010175
0.000104992
-0.000101785
0.000104081
-9.67552e-05
9.63162e-05
-7.05308e-05
9.19104e-05
-2.71309e-05
9.52297e-05
-7.65874e-06
0.000101132
-7.11887e-06
0.000112312
-4.09536e-06
0.000126551
-1.00032e-05
0.000149147
-1.21141e-05
0.000170339
-1.52321e-05
-1.95688e-05
0.000203587
7.57872e-06
-5.71172e-05
1.53851e-05
-5.80001e-05
2.35782e-05
-5.97337e-05
3.13634e-05
-6.22851e-05
3.94677e-05
-6.55044e-05
4.69563e-05
-6.95866e-05
5.40456e-05
-7.43919e-05
6.02999e-05
-7.98923e-05
6.64288e-05
-8.60966e-05
7.22477e-05
-9.40578e-05
4.74575e-05
-9.90704e-05
7.59382e-05
-0.000107526
9.40973e-05
-0.000106037
9.3027e-05
-9.7689e-05
8.44947e-05
-6.527e-05
8.20163e-05
-2.75209e-05
8.81253e-05
-1.42225e-05
9.64744e-05
-1.55484e-05
0.000109136
-1.6762e-05
0.000124268
-2.51343e-05
0.000142788
-3.06345e-05
0.000163439
-3.58835e-05
-4.56016e-05
0.000189472
7.29547e-06
-6.44127e-05
1.45969e-05
-6.53016e-05
2.17511e-05
-6.68879e-05
2.8613e-05
-6.91471e-05
3.54184e-05
-7.23097e-05
4.19616e-05
-7.61298e-05
4.84954e-05
-8.09257e-05
5.49606e-05
-8.63575e-05
6.13097e-05
-9.24456e-05
6.73139e-05
-0.000100045
4.60121e-05
-0.00010523
7.32928e-05
-0.00011274
8.76057e-05
-0.000109575
8.38977e-05
-9.62751e-05
7.39267e-05
-5.9093e-05
7.34027e-05
-2.90236e-05
8.06243e-05
-2.16309e-05
9.02958e-05
-2.52667e-05
0.000103493
-2.99602e-05
0.000118378
-4.0019e-05
0.000134736
-4.69924e-05
0.000153896
-5.5044e-05
-6.62532e-05
0.000174547
6.36186e-06
-7.07745e-05
1.26898e-05
-7.16296e-05
1.89349e-05
-7.3133e-05
2.51618e-05
-7.53739e-05
3.13367e-05
-7.84847e-05
3.74618e-05
-8.22548e-05
4.33664e-05
-8.68304e-05
4.91038e-05
-9.20948e-05
5.47343e-05
-9.80761e-05
5.95694e-05
-0.000104875
4.1418e-05
-0.000110268
6.65948e-05
-0.000117516
7.70303e-05
-0.000112317
7.05083e-05
-9.26106e-05
6.14342e-05
-5.39524e-05
6.38715e-05
-3.27133e-05
7.22468e-05
-3.01023e-05
8.31649e-05
-3.62006e-05
9.62468e-05
-4.30422e-05
0.000110249
-5.40214e-05
0.000125262
-6.20056e-05
0.000142198
-7.19795e-05
-8.4766e-05
0.000160711
5.63187e-06
-7.64065e-05
1.12374e-05
-7.72352e-05
1.6773e-05
-7.86686e-05
2.22285e-05
-8.08295e-05
2.74696e-05
-8.37258e-05
3.26048e-05
-8.739e-05
3.75456e-05
-9.17712e-05
4.23396e-05
-9.68889e-05
4.70505e-05
-0.000102787
5.17905e-05
-0.0001096
3.66414e-05
-0.000115725
6.05867e-05
-0.000121978
6.67593e-05
-0.00011343
5.70092e-05
-8.59086e-05
5.03869e-05
-5.0329e-05
5.50765e-05
-3.79121e-05
6.42013e-05
-3.9283e-05
7.54987e-05
-4.75006e-05
8.78647e-05
-5.54082e-05
0.000100569
-6.67252e-05
0.000114242
-7.56786e-05
0.000129782
-8.75204e-05
-0.000102687
0.000147704
4.89512e-06
-8.13017e-05
9.75371e-06
-8.20939e-05
1.453e-05
-8.3445e-05
1.91896e-05
-8.54891e-05
2.37662e-05
-8.83025e-05
2.8207e-05
-9.18308e-05
3.25363e-05
-9.61006e-05
3.67467e-05
-0.000101099
4.08709e-05
-0.000106911
4.48203e-05
-0.00011354
3.16481e-05
-0.000120417
5.32846e-05
-0.000125313
5.44856e-05
-0.000111762
4.28029e-05
-7.8037e-05
3.98581e-05
-4.93112e-05
4.64298e-05
-4.46362e-05
5.64917e-05
-4.93645e-05
6.71872e-05
-5.81963e-05
7.83815e-05
-6.66025e-05
8.9536e-05
-7.78797e-05
0.000101823
-8.79652e-05
0.000116203
-0.0001019
-0.000119424
0.000132939
4.15506e-06
-8.54569e-05
8.29249e-06
-8.62315e-05
1.2375e-05
-8.75277e-05
1.63524e-05
-8.94667e-05
2.01815e-05
-9.21317e-05
2.38595e-05
-9.55091e-05
2.73358e-05
-9.9577e-05
3.06287e-05
-0.000104392
3.38061e-05
-0.000110089
3.69156e-05
-0.000116641
2.60727e-05
-0.000124289
4.46872e-05
-0.000117793
3.98975e-05
-0.000106727
2.9087e-05
-7.11031e-05
3.04735e-05
-5.15574e-05
3.85357e-05
-5.2744e-05
4.88525e-05
-5.96851e-05
5.83919e-05
-6.77357e-05
6.81623e-05
-7.63729e-05
7.74996e-05
-8.7217e-05
8.79939e-05
-9.84595e-05
0.000100115
-0.000114031
-0.000134683
0.000114865
3.3855e-06
-8.88426e-05
6.76454e-06
-8.96108e-05
1.01477e-05
-9.09112e-05
1.34981e-05
-9.28173e-05
1.66838e-05
-9.53178e-05
1.96546e-05
-9.84802e-05
2.23959e-05
-0.000102319
2.48529e-05
-0.00010685
2.69771e-05
-0.000112215
2.89204e-05
-0.000118607
1.45795e-05
-7.96912e-05
3.40543e-05
-0.000129364
2.3528e-05
-9.90245e-05
1.61803e-05
-6.6419e-05
2.22519e-05
-5.78699e-05
3.17532e-05
-6.22564e-05
4.11413e-05
-6.90734e-05
4.955e-05
-7.61443e-05
5.77529e-05
-8.45764e-05
6.5149e-05
-9.46323e-05
7.39418e-05
-0.000107494
8.21129e-05
-0.00012446
-0.000160344
9.04213e-05
2.85925e-06
-9.17312e-05
5.65833e-06
-9.24432e-05
8.37067e-06
-9.36659e-05
1.10364e-05
-9.55427e-05
1.35835e-05
-9.7957e-05
1.59424e-05
-0.000100993
1.80364e-05
-0.000104691
1.97055e-05
-0.000109048
2.06762e-05
-0.000114212
1.24672e-05
-0.000120768
1.37158e-05
-0.000103608
1.42208e-05
-0.000125211
5.73102e-06
-9.39076e-05
5.78726e-06
-6.74289e-05
1.57241e-05
-6.78424e-05
2.58263e-05
-7.23786e-05
3.41155e-05
-7.74147e-05
4.16595e-05
-8.38737e-05
4.83012e-05
-9.19593e-05
5.37864e-05
-0.000102918
5.94774e-05
-0.000124435
5.32284e-05
-0.000156735
-0.000238742
4.57092e-05
2.50553e-06
-9.74594e-05
4.91457e-06
-9.82811e-05
7.15893e-06
-9.97496e-05
9.18903e-06
-0.000102081
1.10731e-05
-0.000105362
1.28033e-05
-0.000109693
1.42489e-05
-0.000115209
1.50995e-05
-0.000121976
1.47518e-05
-0.000130403
4.46742e-06
-0.00013252
1.11725e-06
-0.000136251
-8.23121e-06
-0.000132104
-1.00843e-05
-9.83946e-05
-6.37334e-08
-7.94953e-05
1.22049e-05
-8.21062e-05
2.12395e-05
-8.42035e-05
2.86458e-05
-8.94775e-05
3.50802e-05
-9.93466e-05
3.86942e-05
-0.000115878
3.5962e-05
-0.000138822
2.73933e-05
-0.000186386
-2.2559e-06
-0.000260445
-0.000196909
-1.79126e-05
1.88901e-06
-0.000127142
3.65778e-06
-0.000128614
5.19436e-06
-0.000131306
6.33152e-06
-0.000135446
7.0387e-06
-0.000141286
7.32515e-06
-0.000149278
7.25213e-06
-0.000160574
6.71266e-06
-0.000177846
3.17426e-06
-0.000205888
-4.07936e-06
-0.000179645
-1.18509e-05
-0.000154747
-1.75659e-05
-0.00015533
-1.36201e-05
-0.000132086
4.45664e-07
-0.00011741
1.08851e-05
-0.000118933
1.70871e-05
-0.000123159
1.93999e-05
-0.000134726
1.83566e-05
-0.000160183
1.37135e-05
-0.000191406
-1.64978e-06
-0.000248676
-2.38155e-05
-0.000207218
-5.09521e-05
-0.000183499
-8.96029e-05
-0.000122225
4.84677e-07
-0.0001897
8.67055e-07
-0.000193184
1.10388e-06
-0.000198569
1.02879e-06
-0.00020585
6.74141e-07
-0.00021884
-1.56959e-07
-0.00023296
-1.76941e-06
-0.000249531
-5.30876e-06
-0.000242094
-6.50557e-06
-0.000189838
-1.25397e-05
-0.000153057
-1.92056e-05
-0.000182879
-2.19493e-05
-0.000213719
-1.01296e-05
-0.000221274
1.25956e-06
-0.000194203
4.40928e-06
-0.000192555
3.85915e-06
-0.000205001
-2.99451e-06
-0.000231439
-1.28477e-05
-0.000216865
-2.16186e-05
-0.000156717
-3.19428e-05
-0.000202048
-6.16851e-05
-0.000150033
-7.89968e-05
-6.93334e-05
-1.01538e-05
-0.000127981
-5.10759e-06
-0.000106105
-1.10005e-05
-0.000103768
-1.77939e-05
-0.000102213
-2.57548e-05
-0.000100514
-3.53741e-05
-9.98507e-05
-4.54191e-05
-0.000101434
-5.57991e-05
-0.000102133
-4.17655e-05
-0.000104162
-3.10495e-05
-0.000112848
-1.94303e-05
-0.000105044
-1.28765e-05
-0.00012585
-1.21487e-05
-0.00014057
-5.57488e-06
-0.000140706
-2.86624e-06
-0.000127253
-6.86713e-06
-0.000123746
-1.16303e-05
-0.000145615
-2.59865e-05
-0.000165377
-5.32802e-05
-0.000149828
-5.98416e-05
-0.000110984
-3.85957e-05
-0.000103365
-4.18593e-05
-6.85111e-05
-9.94782e-05
-1.30707e-05
2.21305e-05
-0.000134016
-4.70557e-06
-8.52803e-05
-8.26848e-06
-8.66465e-05
-1.08974e-05
-8.8083e-05
-1.26595e-05
-9.01216e-05
-1.35191e-05
-9.28374e-05
-1.50218e-05
-9.61151e-05
-1.55541e-05
-9.91778e-05
-1.47595e-05
-0.000103009
-2.05719e-05
-9.17344e-05
-2.7218e-05
-7.66711e-05
-3.22287e-05
-7.56872e-05
-5.87365e-05
-9.74981e-05
-7.50336e-05
-9.1291e-05
-7.69615e-05
-7.18853e-05
-6.82964e-05
-7.35811e-05
-6.0587e-05
-7.2411e-05
-4.59507e-05
-8.45415e-05
-3.5865e-05
-9.44858e-05
-4.27497e-05
-9.35351e-05
-6.56048e-05
-6.94436e-05
-9.59663e-05
-1.81207e-05
-0.000130307
1.1682e-05
2.21498e-05
-0.000132624
-7.73128e-07
-8.45072e-05
-1.49849e-06
-8.5921e-05
-3.01865e-06
-8.65626e-05
-5.56271e-06
-8.75767e-05
-9.38417e-06
-8.90124e-05
-1.45446e-05
-9.09326e-05
-2.06121e-05
-9.2784e-05
-2.7068e-05
-9.43811e-05
-3.48178e-05
-9.48756e-05
-4.40857e-05
-9.59503e-05
-5.4584e-05
-9.75269e-05
-6.64681e-05
-9.93297e-05
-7.25007e-05
-8.98758e-05
-6.85437e-05
-7.96789e-05
-6.64487e-05
-7.51379e-05
-6.81558e-05
-7.55986e-05
-7.25345e-05
-7.75062e-05
-8.53335e-05
-7.99093e-05
-0.000108416
-7.3909e-05
-0.000129008
-4.88582e-05
-0.000132643
-1.07544e-05
-0.000124396
6.47029e-06
1.44839e-05
-0.000121356
-2.93199e-06
-8.15747e-05
-5.67521e-06
-8.31772e-05
-8.52153e-06
-8.37156e-05
-1.15757e-05
-8.45219e-05
-1.49981e-05
-8.55896e-05
-1.91218e-05
-8.68122e-05
-2.39622e-05
-8.79816e-05
-2.96672e-05
-8.89808e-05
-3.63647e-05
-8.9597e-05
-4.34988e-05
-8.96183e-05
-5.11815e-05
-8.99119e-05
-6.10583e-05
-8.94395e-05
-6.84609e-05
-8.24896e-05
-7.30778e-05
-7.52759e-05
-7.80198e-05
-7.09896e-05
-8.35102e-05
-6.89488e-05
-8.5278e-05
-6.8148e-05
-0.000103056
-6.43353e-05
-0.000122717
-5.76147e-05
-0.000133517
-3.97407e-05
-0.000128178
-1.31717e-05
-0.000112935
9.39296e-07
7.78502e-06
-9.92237e-05
-2.41237e-06
-7.91617e-05
-4.95365e-06
-8.06353e-05
-7.71932e-06
-8.09494e-05
-1.07964e-05
-8.14443e-05
-1.4352e-05
-8.20336e-05
-1.85172e-05
-8.26464e-05
-2.33528e-05
-8.31442e-05
-2.89296e-05
-8.33998e-05
-3.52619e-05
-8.32596e-05
-4.21861e-05
-8.26908e-05
-5.02343e-05
-8.18628e-05
-5.96788e-05
-7.99951e-05
-6.64176e-05
-7.57525e-05
-7.06807e-05
-7.10225e-05
-7.49584e-05
-6.6751e-05
-8.04593e-05
-6.31428e-05
-8.76925e-05
-5.92052e-05
-9.6022e-05
-5.35578e-05
-0.000109182
-4.42426e-05
-0.0001184
-3.01699e-05
-0.000114623
-1.37933e-05
-0.00010179
-3.32154e-06
3.25705e-06
-8.91938e-05
-2.74945e-06
-7.64118e-05
-5.59707e-06
-7.77872e-05
-8.62341e-06
-7.79226e-05
-1.19167e-05
-7.81506e-05
-1.55787e-05
-7.83712e-05
-1.96869e-05
-7.8538e-05
-2.4283e-05
-7.85479e-05
-2.93735e-05
-7.83092e-05
-3.48887e-05
-7.77442e-05
-4.07745e-05
-7.68049e-05
-4.72487e-05
-7.53884e-05
-5.41371e-05
-7.31066e-05
-6.00103e-05
-6.9879e-05
-6.51458e-05
-6.5884e-05
-7.00504e-05
-6.1826e-05
-7.54668e-05
-5.76402e-05
-8.11793e-05
-5.27088e-05
-8.77873e-05
-4.58908e-05
-9.66912e-05
-3.6106e-05
-0.000101521
-2.53194e-05
-0.000100147
-1.39881e-05
-9.56144e-05
-5.6301e-06
1.73374e-06
-9.03362e-05
-2.93215e-06
-7.34792e-05
-5.95609e-06
-7.47628e-05
-9.11147e-06
-7.47668e-05
-1.2461e-05
-7.48007e-05
-1.60475e-05
-7.47845e-05
-1.99082e-05
-7.46771e-05
-2.40529e-05
-7.44031e-05
-2.8474e-05
-7.3888e-05
-3.31555e-05
-7.30626e-05
-3.81169e-05
-7.18434e-05
-4.34728e-05
-7.00325e-05
-4.91435e-05
-6.74359e-05
-5.47729e-05
-6.42497e-05
-6.01314e-05
-6.05255e-05
-6.56107e-05
-5.6346e-05
-7.15315e-05
-5.17149e-05
-7.75314e-05
-4.66976e-05
-8.23039e-05
-4.14816e-05
-8.55522e-05
-3.502e-05
-8.7982e-05
-2.57697e-05
-8.84171e-05
-1.53732e-05
-8.75199e-05
-6.32838e-06
1.08829e-06
-8.63819e-05
-2.94462e-06
-7.05343e-05
-5.98535e-06
-7.17218e-05
-9.12317e-06
-7.16287e-05
-1.2413e-05
-7.15106e-05
-1.58923e-05
-7.1305e-05
-1.95974e-05
-7.09718e-05
-2.3546e-05
-7.04544e-05
-2.77398e-05
-6.9694e-05
-3.21831e-05
-6.86193e-05
-3.69035e-05
-6.71229e-05
-4.18469e-05
-6.50891e-05
-4.6768e-05
-6.25148e-05
-5.15362e-05
-5.94815e-05
-5.60106e-05
-5.60514e-05
-6.01626e-05
-5.21942e-05
-6.40913e-05
-4.77867e-05
-6.8095e-05
-4.26943e-05
-7.27114e-05
-3.68599e-05
-7.76728e-05
-2.99624e-05
-8.07963e-05
-2.23821e-05
-8.12564e-05
-1.47248e-05
-8.02114e-05
-7.45573e-06
8.58914e-08
-7.9215e-05
-2.89079e-06
-6.76432e-05
-5.86146e-06
-6.87509e-05
-8.91249e-06
-6.85774e-05
-1.20849e-05
-6.8338e-05
-1.54158e-05
-6.79739e-05
-1.89375e-05
-6.745e-05
-2.26704e-05
-6.67214e-05
-2.66242e-05
-6.57402e-05
-3.07872e-05
-6.44562e-05
-3.5102e-05
-6.2808e-05
-3.9449e-05
-6.07422e-05
-4.37215e-05
-5.82424e-05
-4.7916e-05
-5.52871e-05
-5.21275e-05
-5.184e-05
-5.6364e-05
-4.7958e-05
-6.05498e-05
-4.36011e-05
-6.44387e-05
-3.88058e-05
-6.7775e-05
-3.35238e-05
-7.01345e-05
-2.76016e-05
-7.15241e-05
-2.10028e-05
-7.23193e-05
-1.39419e-05
-7.2792e-05
-6.96827e-06
-3.81642e-07
-7.23221e-05
-2.82966e-06
-6.48134e-05
-5.73922e-06
-6.58412e-05
-8.70987e-06
-6.56066e-05
-1.1774e-05
-6.52738e-05
-1.49531e-05
-6.47946e-05
-1.82626e-05
-6.41405e-05
-2.17075e-05
-6.32764e-05
-2.52852e-05
-6.21624e-05
-2.89896e-05
-6.07519e-05
-3.28003e-05
-5.89973e-05
-3.66735e-05
-5.6869e-05
-4.05567e-05
-5.43592e-05
-4.43791e-05
-5.14648e-05
-4.80446e-05
-4.81746e-05
-5.15476e-05
-4.44552e-05
-5.48423e-05
-4.03067e-05
-5.79359e-05
-3.57126e-05
-6.08242e-05
-3.06359e-05
-6.33743e-05
-2.50518e-05
-6.52654e-05
-1.91107e-05
-6.61795e-05
-1.30264e-05
-6.62432e-05
-6.90435e-06
-8.11796e-07
-6.58136e-05
-2.73025e-06
-6.20831e-05
-5.52364e-06
-6.30477e-05
-8.36516e-06
-6.2765e-05
-1.12777e-05
-6.23611e-05
-1.42798e-05
-6.17924e-05
-1.73838e-05
-6.10365e-05
-2.05946e-05
-6.00655e-05
-2.39084e-05
-5.88486e-05
-2.73075e-05
-5.73528e-05
-3.07566e-05
-5.55482e-05
-3.42131e-05
-5.34127e-05
-3.76436e-05
-5.09288e-05
-4.10271e-05
-4.80814e-05
-4.43371e-05
-4.48648e-05
-4.75152e-05
-4.12774e-05
-5.05106e-05
-3.73116e-05
-5.32548e-05
-3.29687e-05
-5.56481e-05
-2.8243e-05
-5.75488e-05
-2.31514e-05
-5.89043e-05
-1.77556e-05
-5.97519e-05
-1.21793e-05
-6.00698e-05
-6.58676e-06
-1.03447e-06
-5.9848e-05
-2.6008e-06
-5.94822e-05
-5.2602e-06
-6.03882e-05
-7.95448e-06
-6.00707e-05
-1.0702e-05
-5.96135e-05
-1.3515e-05
-5.89795e-05
-1.64005e-05
-5.81509e-05
-1.93599e-05
-5.71062e-05
-2.23871e-05
-5.58213e-05
-2.54678e-05
-5.42722e-05
-2.85787e-05
-5.24373e-05
-3.16916e-05
-5.02998e-05
-3.47734e-05
-4.78471e-05
-3.77857e-05
-4.50692e-05
-4.06924e-05
-4.19584e-05
-4.34596e-05
-3.85102e-05
-4.60437e-05
-3.47277e-05
-4.83976e-05
-3.0615e-05
-5.0457e-05
-2.61839e-05
-5.21452e-05
-2.14636e-05
-5.33888e-05
-1.65123e-05
-5.41483e-05
-1.14203e-05
-5.4442e-05
-6.29347e-06
-1.17431e-06
-5.4303e-05
-2.45715e-06
-5.7025e-05
-4.96342e-06
-5.78819e-05
-7.49517e-06
-5.75389e-05
-1.00659e-05
-5.70428e-05
-1.26834e-05
-5.63619e-05
-1.53518e-05
-5.54825e-05
-1.80701e-05
-5.43879e-05
-2.08311e-05
-5.30603e-05
-2.36212e-05
-5.14821e-05
-2.64209e-05
-4.96376e-05
-2.92072e-05
-4.75136e-05
-3.19545e-05
-4.50999e-05
-3.46346e-05
-4.23892e-05
-3.72144e-05
-3.93787e-05
-3.96563e-05
-3.60686e-05
-4.19206e-05
-3.24635e-05
-4.39621e-05
-2.85737e-05
-4.57293e-05
-2.4417e-05
-4.71695e-05
-2.00237e-05
-4.82433e-05
-1.54389e-05
-4.89337e-05
-1.07303e-05
-4.92444e-05
-5.98314e-06
-1.24056e-06
-4.91789e-05
-2.29634e-06
-5.47287e-05
-4.63605e-06
-5.55422e-05
-6.99324e-06
-5.51817e-05
-9.37799e-06
-5.4658e-05
-1.17953e-05
-5.39446e-05
-1.4247e-05
-5.30308e-05
-1.67305e-05
-5.19044e-05
-1.92388e-05
-5.05521e-05
-2.176e-05
-4.8961e-05
-2.42778e-05
-4.71198e-05
-2.67726e-05
-4.5019e-05
-2.9221e-05
-4.26515e-05
-3.15971e-05
-4.00133e-05
-3.38725e-05
-3.71034e-05
-3.60162e-05
-3.39249e-05
-3.79945e-05
-3.04855e-05
-3.97704e-05
-2.6798e-05
-4.13048e-05
-2.28828e-05
-4.256e-05
-1.87688e-05
-4.35051e-05
-1.44942e-05
-4.41252e-05
-1.01106e-05
-4.44242e-05
-5.6845e-06
-1.26029e-06
-4.44052e-05
-2.12628e-06
-5.26024e-05
-4.28984e-06
-5.33786e-05
-6.46493e-06
-5.30067e-05
-8.65882e-06
-5.24642e-05
-1.08742e-05
-5.17291e-05
-1.31113e-05
-5.07938e-05
-1.53666e-05
-4.96491e-05
-1.76335e-05
-4.82853e-05
-1.99012e-05
-4.66933e-05
-2.21559e-05
-4.48651e-05
-2.43807e-05
-4.27943e-05
-2.65556e-05
-4.04767e-05
-2.86584e-05
-3.79106e-05
-3.06642e-05
-3.50977e-05
-3.25463e-05
-3.20431e-05
-3.42759e-05
-2.8756e-05
-3.58232e-05
-2.52509e-05
-3.71582e-05
-2.1548e-05
-3.8253e-05
-1.76742e-05
-3.90854e-05
-1.36621e-05
-3.96435e-05
-9.55287e-06
-3.9928e-05
-5.40022e-06
-1.247e-06
-3.9942e-05
-1.94857e-06
-5.06538e-05
-3.92938e-06
-5.13979e-05
-5.91718e-06
-5.10189e-05
-7.91719e-06
-5.04642e-05
-9.93054e-06
-4.97158e-05
-1.19562e-05
-4.87682e-05
-1.39904e-05
-4.76148e-05
-1.60268e-05
-4.62489e-05
-1.80559e-05
-4.46643e-05
-2.00655e-05
-4.28556e-05
-2.20409e-05
-4.0819e-05
-2.3965e-05
-3.85527e-05
-2.58187e-05
-3.60571e-05
-2.75808e-05
-3.33357e-05
-2.92288e-05
-3.03951e-05
-3.07391e-05
-2.72459e-05
-3.20875e-05
-2.39026e-05
-3.32508e-05
-2.03849e-05
-3.42078e-05
-1.67174e-05
-3.49416e-05
-1.29286e-05
-3.54422e-05
-9.05255e-06
-3.57095e-05
-5.13325e-06
-1.21157e-06
-3.57454e-05
-1.76606e-06
-4.88878e-05
-3.55976e-06
-4.96042e-05
-5.3572e-06
-4.92215e-05
-7.16205e-06
-4.86594e-05
-8.9743e-06
-4.79036e-05
-1.07922e-05
-4.69504e-05
-1.26118e-05
-4.57952e-05
-1.44271e-05
-4.44337e-05
-1.62297e-05
-4.28617e-05
-1.80091e-05
-4.10763e-05
-1.97524e-05
-3.90757e-05
-2.14452e-05
-3.686e-05
-2.3071e-05
-3.44314e-05
-2.46121e-05
-3.17946e-05
-2.60499e-05
-2.89576e-05
-2.73647e-05
-2.59311e-05
-2.85374e-05
-2.273e-05
-2.95497e-05
-1.93728e-05
-3.03853e-05
-1.58819e-05
-3.10312e-05
-1.22829e-05
-3.14792e-05
-8.60483e-06
-3.17282e-05
-4.88447e-06
-1.15946e-06
-3.17808e-05
-1.58036e-06
-4.73075e-05
-3.18424e-06
-4.80003e-05
-4.7897e-06
-4.76161e-05
-6.39927e-06
-4.70498e-05
-8.01214e-06
-4.62908e-05
-9.62608e-06
-4.53365e-05
-1.12372e-05
-4.41841e-05
-1.284e-05
-4.2831e-05
-1.44269e-05
-4.12748e-05
-1.59889e-05
-3.95144e-05
-1.7515e-05
-3.75497e-05
-1.89928e-05
-3.53823e-05
-2.04086e-05
-3.30157e-05
-2.17476e-05
-3.04558e-05
-2.29943e-05
-2.77109e-05
-2.4133e-05
-2.47926e-05
-2.51482e-05
-2.17148e-05
-2.60257e-05
-1.84954e-05
-2.67529e-05
-1.51549e-05
-2.73196e-05
-1.17164e-05
-2.77191e-05
-8.20555e-06
-2.79501e-05
-4.65371e-06
-1.09552e-06
-2.80144e-05
-1.39256e-06
-4.59149e-05
-2.80511e-06
-4.65878e-05
-4.218e-06
-4.62032e-05
-5.63298e-06
-4.56349e-05
-7.04867e-06
-4.48751e-05
-8.46254e-06
-4.39226e-05
-9.87088e-06
-4.27758e-05
-1.12686e-05
-4.14333e-05
-1.26492e-05
-3.98943e-05
-1.40048e-05
-3.81589e-05
-1.53261e-05
-3.62284e-05
-1.66029e-05
-3.41056e-05
-1.78235e-05
-3.17951e-05
-1.89759e-05
-2.93034e-05
-2.00474e-05
-2.66396e-05
-2.10253e-05
-2.38146e-05
-2.18976e-05
-2.08427e-05
-2.26529e-05
-1.77402e-05
-2.32816e-05
-1.45263e-05
-2.37758e-05
-1.12223e-05
-2.41304e-05
-7.85119e-06
-2.43438e-05
-4.44043e-06
-1.0217e-06
-2.4418e-05
-1.20285e-06
-4.47121e-05
-2.42351e-06
-4.53672e-05
-3.64405e-06
-4.49827e-05
-4.86568e-06
-4.44132e-05
-6.08662e-06
-4.36542e-05
-7.30417e-06
-4.27051e-05
-8.51481e-06
-4.15652e-05
-9.71404e-06
-4.02341e-05
-1.08963e-05
-3.87121e-05
-1.20548e-05
-3.70004e-05
-1.3182e-05
-3.51013e-05
-1.42692e-05
-3.30185e-05
-1.53071e-05
-3.07574e-05
-1.62856e-05
-2.8325e-05
-1.71945e-05
-2.57305e-05
-1.80241e-05
-2.29852e-05
-1.87646e-05
-2.01022e-05
-1.94075e-05
-1.70973e-05
-1.99454e-05
-1.39884e-05
-2.03726e-05
-1.07952e-05
-2.0685e-05
-7.53887e-06
-2.08817e-05
-4.24393e-06
-9.39213e-07
-2.09644e-05
-1.01008e-06
-4.3702e-05
-2.03951e-06
-4.43377e-05
-3.06833e-06
-4.39539e-05
-4.09798e-06
-4.33836e-05
-5.12645e-06
-4.26258e-05