/*--------------------------------*- C++ -*----------------------------------*\
| =========                 |                                                 |
| \\      /  F ield         | OpenFOAM: The Open Source CFD Toolbox           |
|  \\    /   O peration     | Version:  2.4.0                                 |
|   \\  /    A nd           | Web:      www.OpenFOAM.org                      |
|    \\/     M anipulation  |                                                 |
\*---------------------------------------------------------------------------*/
FoamFile
{
    version     2.0;
    format      ascii;
    class       surfaceScalarField;
    location    "0.15";
    object      phi.air;
}
// * * * * * * * * * * * * * * * * * * * * * * * * * * * * * * * * * * * * * //

dimensions      [0 3 -1 0 0 0 0];

internalField   nonuniform List<scalar> 
4432
(
2.67193e-06
-2.67188e-06
5.39018e-06
-2.7182e-06
8.20015e-06
-2.80992e-06
1.1152e-05
-2.95176e-06
1.42861e-05
-3.13407e-06
1.77015e-05
-3.41542e-06
2.13878e-05
-3.68626e-06
2.57294e-05
-4.3416e-06
2.97396e-05
-4.01018e-06
3.64102e-05
-6.67064e-06
4.22587e-05
-5.84839e-06
4.7997e-05
-5.73837e-06
5.57446e-05
-7.74756e-06
6.58117e-05
-1.00671e-05
7.75506e-05
-1.17389e-05
8.98978e-05
-1.23472e-05
0.000101167
-1.12689e-05
0.000109953
-8.78593e-06
0.000115141
-5.18689e-06
0.000115978
-8.0809e-07
0.000108836
7.25427e-06
8.37188e-05
2.36004e-05
7.8257e-05
2.66292e-06
-5.33473e-06
5.37219e-06
-5.4274e-06
8.17289e-06
-5.61056e-06
1.11142e-05
-5.89302e-06
1.42343e-05
-6.25408e-06
1.76398e-05
-6.82085e-06
2.13058e-05
-7.35227e-06
2.55377e-05
-8.57347e-06
2.97965e-05
-8.26893e-06
3.61675e-05
-1.30416e-05
4.17597e-05
-1.14406e-05
4.75244e-05
-1.1503e-05
5.62859e-05
-1.6509e-05
6.76114e-05
-2.13925e-05
7.94447e-05
-2.35722e-05
9.03057e-05
-2.32078e-05
9.94976e-05
-2.04522e-05
0.000106803
-1.60575e-05
0.000112134
-1.04537e-05
0.00011535
-4.02126e-06
0.000114823
4.95884e-06
9.08834e-05
3.25783e-05
0.000151136
2.64235e-06
-7.97705e-06
5.33088e-06
-8.11589e-06
8.11052e-06
-8.39016e-06
1.10276e-05
-8.81002e-06
1.41193e-05
-9.3458e-06
1.74931e-05
-1.01947e-05
2.11267e-05
-1.09858e-05
2.52431e-05
-1.26899e-05
2.97305e-05
-1.27563e-05
3.56211e-05
-1.89323e-05
4.11001e-05
-1.69195e-05
4.70112e-05
-1.7414e-05
5.6467e-05
-2.59648e-05
6.83473e-05
-3.32728e-05
7.99545e-05
-3.51693e-05
8.97613e-05
-3.2962e-05
9.74191e-05
-2.80329e-05
0.000102764
-2.17007e-05
0.000105759
-1.5848e-05
0.000106086
-1.30672e-05
0.000104756
-1.05931e-05
9.14071e-05
2.22965e-05
0.000188982
2.61165e-06
-1.05886e-05
5.2694e-06
-1.07736e-05
8.01817e-06
-1.11389e-05
1.08989e-05
-1.16907e-05
1.39511e-05
-1.23979e-05
1.72652e-05
-1.35088e-05
2.08436e-05
-1.45641e-05
2.48779e-05
-1.67241e-05
2.94016e-05
-1.72799e-05
3.48489e-05
-2.43797e-05
4.02478e-05
-2.23184e-05
4.67013e-05
-2.38675e-05
5.68007e-05
-3.60641e-05
6.87059e-05
-4.51338e-05
7.89689e-05
-4.53142e-05
8.62442e-05
-4.07583e-05
9.09976e-05
-3.64065e-05
9.28588e-05
-3.41262e-05
9.40482e-05
-3.56447e-05
9.70195e-05
-3.80572e-05
9.30633e-05
-2.15306e-05
8.71752e-05
3.45719e-05
0.000219448
2.57068e-06
-1.31593e-05
5.18766e-06
-1.33905e-05
7.89621e-06
-1.38474e-05
1.073e-05
-1.45245e-05
1.37276e-05
-1.53955e-05
1.69669e-05
-1.67481e-05
2.04705e-05
-1.80678e-05
2.44039e-05
-2.06575e-05
2.89276e-05
-2.18037e-05
3.37992e-05
-2.92512e-05
3.92451e-05
-2.77642e-05
4.65197e-05
-3.11422e-05
5.66238e-05
-4.60808e-05
6.7089e-05
-5.54322e-05
7.51515e-05
-5.5549e-05
7.86764e-05
-5.41462e-05
7.95486e-05
-5.87923e-05
8.14259e-05
-5.98635e-05
7.94366e-05
-5.49112e-05
7.49721e-05
-1.35796e-05
5.72931e-05
3.40123e-05
6.95592e-05
9.70676e-05
0.00026221
2.5189e-06
-1.56782e-05
5.08487e-06
-1.59565e-05
7.74405e-06
-1.65066e-05
1.05211e-05
-1.73015e-05
1.34483e-05
-1.83227e-05
1.66004e-05
-1.99001e-05
1.99992e-05
-2.14666e-05
2.38485e-05
-2.45068e-05
2.81787e-05
-2.61339e-05
3.26461e-05
-3.37186e-05
3.83467e-05
-3.34648e-05
4.61257e-05
-3.88932e-05
5.53131e-05
-5.49397e-05
6.22819e-05
-6.5824e-05
6.46351e-05
-7.23616e-05
6.81157e-05
-8.68368e-05
7.21034e-05
-8.63025e-05
7.61061e-05
-4.54611e-05
7.87372e-05
-1.07215e-05
6.18819e-05
1.9754e-05
3.39235e-05
7.20681e-05
2.61937e-05
0.000122507
0.00033224
2.45422e-06
-1.81324e-05
4.95708e-06
-1.84593e-05
7.55576e-06
-1.91052e-05
1.02645e-05
-2.00103e-05
1.31071e-05
-2.11652e-05
1.61603e-05
-2.29533e-05
1.94382e-05
-2.47446e-05
2.31744e-05
-2.8243e-05
2.73549e-05
-3.03144e-05
3.15465e-05
-3.79102e-05
3.738e-05
-3.93125e-05
4.5533e-05
-4.65122e-05
5.03763e-05
-6.34633e-05
5.24102e-05
-8.33833e-05
5.73509e-05
-0.000104739
6.39327e-05
-0.000101103
8.00487e-05
-5.65764e-05
8.05918e-05
-2.51483e-05
6.37623e-05
8.5485e-06
4.47517e-05
3.88481e-05
2.52406e-05
9.15833e-05
7.28101e-06
0.000141163
0.000375479
2.3706e-06
-2.05028e-05
4.79354e-06
-2.0882e-05
7.3182e-06
-2.16293e-05
9.94623e-06
-2.26365e-05
1.26933e-05
-2.39054e-05
1.56416e-05
-2.58757e-05
1.8778e-05
-2.78191e-05
2.24102e-05
-3.17243e-05
2.65173e-05
-3.41115e-05
3.04108e-05
-4.1175e-05
3.62263e-05
-4.43665e-05
4.24186e-05
-5.5197e-05
4.34066e-05
-7.66561e-05
4.83548e-05
-0.000110264
5.31866e-05
-0.000113733
6.44949e-05
-7.85299e-05
6.46689e-05
-4.62749e-05
5.25638e-05
-1.18247e-05
4.23752e-05
1.90102e-05
3.57177e-05
4.55057e-05
2.49667e-05
0.000102334
1.14604e-05
0.000154669
0.000390076
-5.32264e-05
5.32264e-05
-0.000146413
9.31864e-05
-0.000292292
0.000145844
-0.000377499
8.24459e-05
-0.000337387
-6.28421e-05
-0.000237039
-0.000123609
-9.06154e-05
-7.75314e-05
7.79288e-05
-5.2525e-06
0.000236951
6.3802e-05
0.000332179
3.5769e-05
0.00036198
0.000112573
0.000339417
9.38579e-05
0.000331493
1.42443e-05
0.000311937
2.38357e-05
0.000231378
8.21596e-05
0.000130278
0.000101474
6.63606e-05
6.39287e-05
2.8606e-05
3.77548e-05
2.86061e-05
-4.43905e-05
9.7617e-05
-9.53459e-05
0.000144142
-0.000120017
0.000170463
-6.15445e-05
2.03708e-05
4.4494e-06
-0.000149301
-2.72173e-05
-0.000134142
2.72687e-05
-0.000107598
0.000100487
9.09773e-06
0.000161317
3.7999e-05
0.000195138
5.7993e-05
0.00023702
7.24275e-05
0.000286178
-2.87782e-05
0.000258516
1.20874e-06
0.000237758
3.23477e-05
0.000185192
0.000132857
0.000114412
0.000172213
6.31686e-05
0.000115174
2.7953e-05
7.29705e-05
5.6559e-05
-2.59132e-05
0.00012353
-3.41675e-05
0.000152396
1.10265e-05
0.000125269
7.53631e-05
-4.14225e-05
5.46702e-05
-0.00014418
1.73951e-05
-0.000160751
5.58137e-05
-0.000124015
0.000118064
-7.96576e-05
0.000168257
-2.1531e-05
0.000215405
3.09535e-05
0.000251996
-0.000113761
0.000213546
-3.95744e-05
0.000227538
-1.64339e-05
0.000185539
7.41885e-05
0.000125695
0.000192623
8.37615e-05
0.000214139
5.21726e-05
0.000146763
2.47772e-05
0.000100366
8.13362e-05
-1.03089e-05
0.000133839
-5.22675e-06
0.000147314
6.17511e-05
5.88896e-05
0.000119567
-8.3332e-05
7.62339e-05
-0.00011234
4.06145e-05
-0.000200412
0.00010674
-0.000176231
0.00013386
-0.000115214
0.000208522
-1.22096e-05
0.000227078
-0.000152096
0.00019664
-0.000132495
0.000215004
-6.33615e-05
0.000179662
1.88046e-05
0.000121477
0.000132373
7.86951e-05
0.000235405
6.10788e-05
0.000231755
4.24026e-05
0.000165439
2.11639e-05
0.000121605
0.0001025
-4.95893e-06
0.000138798
4.07629e-05
0.000101635
9.77372e-05
8.21977e-06
0.000113417
-8.83438e-05
8.20119e-05
-0.000139099
7.33808e-05
-0.000216822
0.000119945
-0.000190805
0.000155307
-0.000101906
0.000206907
-9.33269e-05
0.000191924
-0.000200473
0.000183047
-0.000136027
0.000167144
-4.79858e-05
0.000121473
6.44698e-05
7.11085e-05
0.000182737
5.01249e-05
0.000256388
4.54014e-05
0.000236478
3.39587e-05
0.000176882
1.75973e-05
0.000137966
0.000120097
1.37933e-06
0.000137419
5.53694e-05
4.77915e-05
0.000121008
-4.03162e-05
0.000119776
-9.4139e-05
8.75052e-05
-0.00020878
0.000119824
-0.000204332
0.000119156
-0.000195298
0.000171737
-0.000109149
0.00016655
-0.000168314
0.000155087
-0.000204405
0.00014448
-0.000127403
0.000108561
-1.2004e-05
6.68702e-05
0.000106161
3.56038e-05
0.000214003
3.07416e-05
0.00026125
3.32434e-05
0.000233977
2.67374e-05
0.000183388
1.43167e-05
0.000150387
0.000134414
3.42424e-05
0.000107294
9.50212e-05
-5.31331e-06
0.000112076
-4.98956e-05
0.000103422
-0.000145086
0.000111094
-0.000212741
0.000138928
-0.000195715
0.000120333
-0.00019584
0.000167728
-0.000126654
0.000150195
-0.000188862
0.000134095
-0.000194217
0.000103661
-9.64746e-05
6.34505e-05
2.83561e-05
2.86253e-05
0.000140986
1.25119e-05
0.000230117
1.7723e-05
0.000256039
2.42601e-05
0.000227439
2.07741e-05
0.000186874
1.14341e-05
0.000159727
0.000145848
7.97368e-05
3.66749e-05
9.48512e-05
-1.31344e-06
0.000109755
-9.44802e-05
0.000117232
-0.000196197
0.000143328
-0.000184701
0.000142283
-0.000192627
0.000120993
-0.000186068
0.000152658
-0.000149749
0.000146917
-0.000204094
0.000117382
-0.000168135
6.47123e-05
-4.23943e-05
2.3125e-05
7.00017e-05
4.39055e-07
0.000163672
-1.7454e-06
0.000232301
9.54937e-06
0.000244745
1.74969e-05
0.000219492
1.58109e-05
0.00018856
8.93775e-06
0.0001666
0.000154786
4.74651e-06
-2.50096e-05
9.63584e-06
-2.55172e-05
1.47905e-05
-2.6498e-05
2.01647e-05
-2.76764e-05
2.57307e-05
-2.90735e-05
3.16829e-05
-3.1401e-05
3.7983e-05
-3.39069e-05
4.51468e-05
-3.9423e-05
5.34882e-05
-4.46349e-05
6.16154e-05
-5.55498e-05
7.2229e-05
-6.77564e-05
7.58024e-05
-8.21388e-05
7.9483e-05
-0.000109899
8.8166e-05
-0.000126164
0.00010734
-9.68681e-05
0.000113746
-6.4222e-05
9.3249e-05
-2.41361e-05
8.37269e-05
-1.25464e-06
7.73719e-05
2.53993e-05
8.10508e-05
4.18265e-05
9.68199e-05
8.65641e-05
0.000145806
0.000105682
0.000231011
0.000304869
4.49193e-06
-3.11185e-05
9.17737e-06
-3.20223e-05
1.41314e-05
-3.37909e-05
1.92316e-05
-3.59744e-05
2.43931e-05
-3.8641e-05
3.01054e-05
-4.35657e-05
3.57602e-05
-4.84532e-05
4.05888e-05
-5.643e-05
4.53029e-05
-6.52157e-05
5.06137e-05
-8.11243e-05
5.48646e-05
-9.5347e-05
6.80999e-05
-0.000105262
8.86778e-05
-0.000109031
0.000106779
-0.000106909
0.000110821
-9.18772e-05
9.99256e-05
-5.24221e-05
8.84292e-05
-1.38704e-05
8.63402e-05
1.38209e-06
8.73972e-05
2.436e-05
9.964e-05
2.95833e-05
0.000123936
6.22672e-05
0.000170637
5.89811e-05
0.000130592
0.000271054
3.93468e-06
-4.80015e-05
8.10811e-06
-4.93644e-05
1.21819e-05
-5.15981e-05
1.64573e-05
-5.47238e-05
2.00399e-05
-5.7495e-05
2.40949e-05
-6.40614e-05
2.89932e-05
-7.04447e-05
3.5581e-05
-7.95434e-05
4.59434e-05
-8.78049e-05
5.99859e-05
-9.15343e-05
7.53967e-05
-8.53913e-05
9.72059e-05
-9.74785e-05
0.000108422
-0.000106149
0.000110139
-0.000105739
0.00010789
-9.01834e-05
0.000101733
-4.53483e-05
9.67053e-05
-9.60141e-06
9.65159e-05
1.56041e-06
0.000104245
1.67453e-05
0.000117665
1.61628e-05
0.000143536
3.63953e-05
0.000171996
3.05209e-05
5.75383e-05
0.000245049
4.99974e-06
-4.18507e-05
1.02501e-05
-4.31172e-05
1.58389e-05
-4.5747e-05
2.29566e-05
-4.98001e-05
3.12208e-05
-5.05574e-05
4.10407e-05
-5.44165e-05
5.27541e-05
-5.89369e-05
6.56148e-05
-6.60296e-05
7.82835e-05
-7.29923e-05
9.00045e-05
-8.27409e-05
0.000100105
-8.85228e-05
0.000105338
-0.000101274
0.000108288
-0.000108319
0.000108261
-0.000105808
0.000104006
-8.66258e-05
9.98066e-05
-4.08908e-05
9.95223e-05
-9.02435e-06
0.00010234
-1.4376e-06
0.000112284
7.10263e-06
0.000124209
4.2377e-06
0.000150121
1.04831e-05
0.000174679
5.96267e-06
1.36828e-05
0.000218534
9.75103e-06
-4.95385e-05
1.88451e-05
-5.01938e-05
2.77924e-05
-5.15404e-05
3.65191e-05
-5.44995e-05
4.63441e-05
-5.73998e-05
5.56787e-05
-6.20978e-05
6.49642e-05
-6.73024e-05
7.29832e-05
-7.36379e-05
8.01107e-05
-7.99676e-05
8.5568e-05
-8.82495e-05
9.03258e-05
-9.33297e-05
9.51017e-05
-0.000106163
9.86829e-05
-0.000111566
9.97492e-05
-0.000107068
9.42519e-05
-8.21926e-05
9.13519e-05
-3.82577e-05
9.47448e-05
-1.15844e-05
0.00010088
-7.22226e-06
0.00011231
-4.09428e-06
0.00012655
-1.00018e-05
0.000149145
-1.21124e-05
0.000170337
-1.52298e-05
-1.95655e-05
0.000203585
7.57872e-06
-5.71172e-05
1.53851e-05
-5.80001e-05
2.35782e-05
-5.97337e-05
3.13634e-05
-6.22851e-05
3.94677e-05
-6.55043e-05
4.69563e-05
-6.95865e-05
5.40456e-05
-7.43918e-05
6.02999e-05
-7.98921e-05
6.64288e-05
-8.60962e-05
7.22369e-05
-9.4057e-05
7.80063e-05
-9.91006e-05
8.39275e-05
-0.000112154
8.83433e-05
-0.000115623
8.91744e-05
-0.000108308
8.30206e-05
-7.74818e-05
8.16036e-05
-3.66965e-05
8.73692e-05
-1.6415e-05
9.64244e-05
-1.55562e-05
0.000109135
-1.67608e-05
0.000124267
-2.51326e-05
0.000142787
-3.06321e-05
0.000163439
-3.58802e-05
-4.55975e-05
0.000189472
7.29548e-06
-6.44123e-05
1.45969e-05
-6.53012e-05
2.17511e-05
-6.68875e-05
2.8613e-05
-6.91466e-05
3.54184e-05
-7.23092e-05
4.19616e-05
-7.61291e-05
4.84955e-05
-8.09248e-05
5.49608e-05
-8.6356e-05
6.131e-05
-9.24436e-05
6.72975e-05
-0.000100043
7.34581e-05
-0.000105262
7.91481e-05
-0.000117918
8.29622e-05
-0.0001191
8.1258e-05
-0.000107247
7.33249e-05
-7.08834e-05
7.32507e-05
-3.56936e-05
8.00511e-05
-2.2503e-05
9.02889e-05
-2.52649e-05
0.000103492
-2.9958e-05
0.000118377
-4.00154e-05
0.000134736
-4.6987e-05
0.000153897
-5.50367e-05
-6.62456e-05
0.00017455
6.36187e-06
-7.07729e-05
1.26899e-05
-7.1628e-05
1.8935e-05
-7.31313e-05
2.51619e-05
-7.53719e-05
3.13369e-05
-7.84823e-05
3.7462e-05
-8.22518e-05
4.33668e-05
-8.68266e-05
4.91045e-05
-9.20899e-05
5.47353e-05
-9.80701e-05
5.95654e-05
-0.000104868
6.45879e-05
-0.000110283
6.9784e-05
-0.000123173
7.30115e-05
-0.000122052
6.86325e-05
-0.000103869
6.11166e-05
-6.43096e-05
6.35814e-05
-3.66546e-05
7.20245e-05
-3.02085e-05
8.31645e-05
-3.6198e-05
9.6247e-05
-4.30364e-05
0.00011025
-5.40116e-05
0.000125266
-6.19925e-05
0.000142203
-7.19605e-05
-8.47488e-05
0.000160717
5.63193e-06
-7.64007e-05
1.12376e-05
-7.72294e-05
1.67732e-05
-7.86624e-05
2.22289e-05
-8.08227e-05
2.74701e-05
-8.37181e-05
3.26056e-05
-8.73809e-05
3.75469e-05
-9.17596e-05
4.23415e-05
-9.68739e-05
4.70532e-05
-0.000102768
5.17792e-05
-0.000109578
5.72322e-05
-0.00011573
6.21116e-05
-0.000128092
6.38101e-05
-0.000123621
5.61741e-05
-9.75681e-05
5.03065e-05
-5.86523e-05
5.45967e-05
-3.9686e-05
6.4177e-05
-3.92778e-05
7.54991e-05
-4.74917e-05
8.78668e-05
-5.53936e-05
0.000100573
-6.66995e-05
0.000114251
-7.56377e-05
0.000129796
-8.74575e-05
-0.000102651
0.000147721
4.8953e-06
-8.12826e-05
9.7541e-06
-8.20742e-05
1.45307e-05
-8.34244e-05
1.91905e-05
-8.54665e-05
2.37677e-05
-8.8276e-05
2.82093e-05
-9.17967e-05
3.25399e-05
-9.60565e-05
3.67522e-05
-0.000101044
4.08791e-05
-0.000106845
4.48194e-05
-0.000113466
4.94915e-05
-0.000120386
5.36664e-05
-0.00013228
5.26537e-05
-0.000122742
4.28003e-05
-8.91938e-05
3.99166e-05
-5.48158e-05
4.61723e-05
-4.4945e-05
5.64912e-05
-4.93558e-05
6.71894e-05
-5.81698e-05
7.83881e-05
-6.65567e-05
8.95523e-05
-7.77943e-05
0.000101859
-8.78643e-05
0.000116239
-0.000101786
-0.000113331
0.000133018
4.15561e-06
-8.5383e-05
8.29369e-06
-8.61553e-05
1.2377e-05
-8.74488e-05
1.63557e-05
-8.9384e-05
2.0187e-05
-9.20442e-05
2.38687e-05
-9.54159e-05
2.73497e-05
-9.9483e-05
3.06483e-05
-0.000104306
3.38319e-05
-0.000110007
3.69304e-05
-0.000116526
4.0882e-05
-0.000124142
4.43107e-05
-0.000135074
3.92657e-05
-0.000119038
2.94185e-05
-8.03554e-05
3.0288e-05
-5.40386e-05
3.84938e-05
-5.27007e-05
4.88544e-05
-5.9645e-05
5.84005e-05
-6.76569e-05
6.81878e-05
-7.6295e-05
7.75425e-05
-8.70683e-05
8.80487e-05
-9.62492e-05
0.000102576
-8.18607e-05
-7.2432e-05
0.000151122
3.38741e-06
-8.86485e-05
6.76866e-06
-8.93894e-05
1.01546e-05
-9.06268e-05
1.35084e-05
-9.23986e-05
1.66976e-05
-9.46114e-05
1.9671e-05
-9.71296e-05
2.24124e-05
-9.94516e-05
2.48685e-05
-0.00010044
2.69979e-05
-9.80168e-05
2.8977e-05
-8.89071e-05
3.18195e-05
-8.64245e-05
3.37955e-05
-9.39193e-05
2.40589e-05
-0.000101274
1.65281e-05
-7.04843e-05
2.21053e-05
-5.27058e-05
3.17521e-05
-6.20241e-05
4.11494e-05
-6.87491e-05
4.95664e-05
-7.46223e-05
5.77839e-05
-7.55889e-05
6.56419e-05
-5.25564e-05
8.70203e-05
-4.85678e-05
0.000118502
-6.00997e-05
-7.73782e-05
0.000137904
2.86167e-06
-5.01747e-05
5.66503e-06
-5.00333e-05
8.38728e-06
-4.97848e-05
1.10801e-05
-4.97464e-05
1.37077e-05
-5.00107e-05
1.63169e-05
-5.06944e-05
1.9126e-05
-5.15469e-05
2.24299e-05
-5.2332e-05
2.65056e-05
-5.34422e-05
2.78933e-05
-5.7126e-05
3.17466e-05
-6.66922e-05
2.52298e-05
-6.87665e-05
4.87571e-06
-3.33855e-05
5.27239e-06
-2.74547e-05
1.52016e-05
-3.71658e-05
2.58317e-05
-3.33986e-05
3.42549e-05
-2.9457e-05
4.31797e-05
-2.81373e-05
5.84979e-05
-3.02227e-05
7.81565e-05
-3.62153e-05
9.25466e-05
-4.7115e-05
8.66216e-05
-5.73369e-05
-0.000150872
0.000125153
2.93169e-06
-3.14055e-05
5.90384e-06
-3.21394e-05
9.01179e-06
-3.35538e-05
1.24414e-05
-3.59981e-05
1.65515e-05
-3.96273e-05
2.16296e-05
-4.4624e-05
2.65239e-05
-5.03902e-05
2.85715e-05
-5.61422e-05
2.5491e-05
-6.11377e-05
1.60927e-05
-6.66725e-05
7.14763e-06
-7.0335e-05
-2.26086e-05
-6.81315e-05
-3.22552e-05
-3.97052e-05
-6.30681e-06
-2.03201e-05
6.44725e-06
-2.04196e-05
2.39059e-05
-1.88086e-05
4.05529e-05
-2.12562e-05
5.56389e-05
-2.68018e-05
5.50348e-05
-2.75953e-05
4.95605e-05
-3.76228e-05
6.19556e-05
-7.36852e-05
5.56236e-05
-9.30797e-05
-0.000106503
-2.88331e-05
1.91994e-06
-5.02003e-05
3.66748e-06
-5.10489e-05
5.09567e-06
-5.25855e-05
6.16516e-06
-5.49912e-05
7.144e-06
-5.85793e-05
9.29536e-06
-6.37085e-05
1.33636e-05
-7.0109e-05
1.92512e-05
-7.64364e-05
2.16293e-05
-8.12394e-05
1.1372e-05
-7.99477e-05
-1.73496e-05
-6.89926e-05
-3.78446e-05
-8.78459e-05
-2.35712e-05
-7.31584e-05
-1.85346e-06
-4.4807e-05
9.63061e-06
-3.91046e-05
1.81302e-05
-3.46064e-05
2.37274e-05
-3.62316e-05
3.89094e-05
-4.93115e-05
3.37218e-05
-5.67624e-05
2.48946e-05
-6.73921e-05
-1.46681e-05
-7.96363e-05
-7.70634e-05
-6.10762e-05
-5.89198e-05
-0.000125896
1.26408e-06
-8.04952e-05
2.47429e-06
-8.13376e-05
3.75649e-06
-8.32227e-05
5.18215e-06
-8.62663e-05
7.32142e-06
-9.07574e-05
1.01305e-05
-9.69165e-05
1.10935e-05
-0.000102031
4.80249e-06
-0.00010309
-1.02842e-05
-9.94801e-05
-3.27784e-05
-8.75298e-05
-5.30757e-05
-7.60208e-05
-4.70932e-05
-0.000117144
-1.86805e-05
-0.000121897
6.06752e-08
-8.93219e-05
6.55126e-06
-7.50063e-05
8.44374e-06
-6.99239e-05
7.15486e-06
-7.17608e-05
-1.13439e-05
-7.29245e-05
-4.02948e-05
-6.59069e-05
-6.92037e-05
-6.49007e-05
-7.58389e-05
-7.68875e-05
-7.3617e-05
-6.34026e-05
-7.56043e-06
-0.000124976
-7.17196e-06
-8.99474e-05
-1.45664e-05
-9.01788e-05
-2.23402e-05
-9.06889e-05
-3.03389e-05
-9.18679e-05
-3.91097e-05
-9.36828e-05
-4.76058e-05
-9.75756e-05
-5.64141e-05
-9.97412e-05
-6.13866e-05
-0.000101481
-5.265e-05
-0.000109127
-2.77983e-05
-0.000112646
1.43078e-05
-0.000118369
2.7916e-05
-0.000132983
4.89338e-06
-0.000111239
-2.66789e-05
-7.74878e-05
-5.45978e-05
-6.79839e-05
-7.66387e-05
-6.72055e-05
-9.13864e-05
-7.15332e-05
-8.93625e-05
-8.02853e-05
-5.8011e-05
-9.78009e-05
-3.03813e-05
-9.25652e-05
-4.75185e-05
-5.97505e-05
-0.000101249
-9.67206e-06
2.44372e-05
-0.000133247
-4.70518e-06
-8.52769e-05
-8.2677e-06
-8.66429e-05
-1.08963e-05
-8.80794e-05
-1.26582e-05
-9.01177e-05
-1.35168e-05
-9.28306e-05
-1.50124e-05
-9.60831e-05
-1.59302e-05
-9.88247e-05
-1.63088e-05
-0.000101103
-2.11899e-05
-0.000104246
-2.74955e-05
-0.00010634
-3.79878e-05
-0.000107878
-6e-05
-0.000110972
-7.52965e-05
-9.59559e-05
-7.65551e-05
-7.63001e-05
-7.10146e-05
-7.35851e-05
-5.91573e-05
-7.9093e-05
-4.48871e-05
-8.5809e-05
-3.40947e-05
-9.10781e-05
-4.08886e-05
-9.1007e-05
-6.7071e-05
-6.63829e-05
-0.00011134
-1.54812e-05
-0.00013427
1.32579e-05
2.25408e-05
-0.000132374
-7.72854e-07
-8.4504e-05
-1.49793e-06
-8.59179e-05
-3.01783e-06
-8.65595e-05
-5.5617e-06
-8.75739e-05
-9.38237e-06
-8.90099e-05
-1.45327e-05
-9.09327e-05
-2.05396e-05
-9.28179e-05
-2.69597e-05
-9.46825e-05
-3.49145e-05
-9.62915e-05
-4.45049e-05
-9.675e-05
-5.47918e-05
-9.75908e-05
-6.64496e-05
-9.93141e-05
-7.25162e-05
-8.98893e-05
-6.89357e-05
-7.98805e-05
-6.65168e-05
-7.60041e-05
-6.9993e-05
-7.56168e-05
-7.81518e-05
-7.76502e-05
-8.98896e-05
-7.93403e-05
-0.000108505
-7.23912e-05
-0.000129266
-4.56227e-05
-0.000137299
-7.44785e-06
-0.000132801
8.7599e-06
1.56552e-05
-0.000125915
-2.93172e-06
-8.15722e-05
-5.67474e-06
-8.31748e-05
-8.52087e-06
-8.37133e-05
-1.15748e-05
-8.45198e-05
-1.49969e-05
-8.55878e-05
-1.91192e-05
-8.68104e-05
-2.39582e-05
-8.79788e-05
-2.96649e-05
-8.89758e-05
-3.6365e-05
-8.95913e-05
-4.35005e-05
-8.96145e-05
-5.11806e-05
-8.99106e-05
-6.10556e-05
-8.9439e-05
-6.84555e-05
-8.24894e-05
-7.30602e-05
-7.52759e-05
-7.80771e-05
-7.09872e-05
-8.47351e-05
-6.89588e-05
-9.42572e-05
-6.81281e-05
-0.000107766
-6.58318e-05
-0.000123042
-5.71146e-05
-0.000131688
-3.69767e-05
-0.000128609
-1.05272e-05
-0.000122609
2.76069e-06
8.53722e-06
-0.000115492
-2.4122e-06
-7.916e-05
-4.95333e-06
-8.06336e-05
-7.71886e-06
-8.09477e-05
-1.07958e-05
-8.14428e-05
-1.43512e-05
-8.20323e-05
-1.85163e-05
-8.26453e-05
-2.33517e-05
-8.31433e-05
-2.89284e-05
-8.33991e-05
-3.52605e-05
-8.3259e-05
-4.21846e-05
-8.26904e-05
-5.02326e-05
-8.18626e-05
-5.96765e-05
-7.9995e-05
-6.64136e-05
-7.57522e-05
-7.06704e-05
-7.10191e-05
-7.49314e-05
-6.67262e-05
-8.08544e-05
-6.30358e-05
-8.98056e-05
-5.91768e-05
-0.00010183
-5.38079e-05
-0.000113158
-4.57859e-05
-0.000117752
-3.23828e-05
-0.000114313
-1.39658e-05
-0.000108859
-2.6932e-06
3.71432e-06
-0.000104036
-2.74932e-06
-7.64106e-05
-5.59683e-06
-7.7786e-05
-8.62306e-06
-7.79215e-05
-1.19162e-05
-7.81496e-05
-1.55782e-05
-7.83704e-05
-1.96862e-05
-7.85372e-05
-2.42821e-05
-7.85474e-05
-2.93724e-05
-7.83088e-05
-3.48875e-05
-7.7744e-05
-4.07731e-05
-7.68048e-05
-4.72472e-05
-7.53885e-05
-5.41354e-05
-7.31069e-05
-6.00081e-05
-6.98794e-05
-6.51427e-05
-6.58845e-05
-7.00428e-05
-6.1826e-05
-7.54425e-05
-5.76362e-05
-8.19326e-05
-5.26867e-05
-8.94892e-05
-4.62513e-05
-9.70179e-05
-3.82573e-05
-0.000101458
-2.79429e-05
-9.98963e-05
-1.55272e-05
-9.69269e-05
-5.6625e-06
2.06988e-06
-9.52825e-05
-2.93207e-06
-7.34785e-05
-5.95592e-06
-7.47622e-05
-9.11121e-06
-7.47662e-05
-1.24607e-05
-7.48001e-05
-1.60471e-05
-7.4784e-05
-1.99076e-05
-7.46767e-05
-2.40521e-05
-7.44028e-05
-2.84731e-05
-7.38878e-05
-3.31544e-05
-7.30626e-05
-3.81157e-05
-7.18435e-05
-4.34714e-05
-7.00327e-05
-4.9142e-05
-6.74363e-05
-5.47712e-05
-6.42503e-05
-6.01293e-05
-6.05264e-05
-6.56084e-05
-5.6347e-05
-7.15283e-05
-5.17163e-05
-7.75163e-05
-4.66988e-05
-8.2298e-05
-4.14696e-05
-8.56389e-05
-3.49164e-05
-8.80541e-05
-2.55276e-05
-8.83817e-05
-1.51996e-05
-8.76422e-05
-6.40195e-06
1.08388e-06
-8.66562e-05
-2.94455e-06
-7.0534e-05
-5.98521e-06
-7.17215e-05
-9.12296e-06
-7.16284e-05
-1.24127e-05
-7.15103e-05
-1.58919e-05
-7.13048e-05
-1.95969e-05
-7.09717e-05
-2.35453e-05
-7.04544e-05
-2.77391e-05
-6.96941e-05
-3.21822e-05
-6.86195e-05
-3.69025e-05
-6.71232e-05
-4.18457e-05
-6.50895e-05
-4.67666e-05
-6.25154e-05
-5.15347e-05
-5.94822e-05
-5.60088e-05
-5.60523e-05
-6.01605e-05
-5.21953e-05
-6.40889e-05
-4.7788e-05
-6.80918e-05
-4.26959e-05
-7.26999e-05
-3.68616e-05
-7.76539e-05
-2.99625e-05
-8.07882e-05
-2.23933e-05
-8.125e-05
-1.47379e-05
-8.02084e-05
-7.44353e-06
8.58871e-08
-7.92104e-05
-2.89074e-06
-6.76433e-05
-5.86135e-06
-6.87509e-05
-8.91231e-06
-6.85775e-05
-1.20846e-05
-6.83381e-05
-1.54155e-05
-6.79739e-05
-1.89371e-05
-6.74501e-05
-2.26699e-05
-6.67216e-05
-2.66235e-05
-6.57404e-05
-3.07864e-05
-6.44566e-05
-3.51011e-05
-6.28085e-05
-3.9448e-05
-6.07427e-05
-4.37203e-05
-5.8243e-05
-4.79146e-05
-5.52879e-05
-5.2126e-05
-5.18409e-05
-5.63622e-05
-4.79591e-05
-6.05477e-05
-4.36025e-05
-6.44363e-05
-3.88074e-05
-6.77722e-05
-3.35257e-05
-7.01311e-05
-2.76037e-05
-7.15203e-05
-2.10041e-05
-7.23152e-05
-1.39429e-05
-7.27879e-05
-6.97086e-06
-3.8506e-07
-7.2317e-05
-2.82961e-06
-6.48136e-05
-5.73912e-06
-6.58414e-05
-8.70972e-06
-6.56069e-05
-1.17737e-05
-6.5274e-05
-1.49528e-05
-6.47949e-05
-1.82622e-05
-6.41407e-05
-2.1707e-05
-6.32767e-05
-2.52847e-05
-6.21628e-05
-2.89889e-05
-6.07523e-05
-3.27995e-05
-5.89979e-05
-3.66725e-05
-5.68697e-05
-4.05556e-05
-5.436e-05
-4.43779e-05
-5.14657e-05
-4.80433e-05
-4.81755e-05
-5.1546e-05
-4.44564e-05
-5.48405e-05
-4.0308e-05
-5.79338e-05
-3.57141e-05
-6.08218e-05
-3.06377e-05
-6.33715e-05
-2.50539e-05
-6.52624e-05
-1.91132e-05
-6.61762e-05
-1.30291e-05
-6.62396e-05
-6.90744e-06
-8.15323e-07
-6.58094e-05
-2.73021e-06
-6.20834e-05
-5.52355e-06
-6.3048e-05
-8.36502e-06
-6.27654e-05
-1.12775e-05
-6.23615e-05
-1.42796e-05
-6.17928e-05
-1.73834e-05
-6.10369e-05
-2.05942e-05
-6.0066e-05
-2.39079e-05
-5.88491e-05
-2.73069e-05
-5.73534e-05
-3.0756e-05
-5.55488e-05
-3.42123e-05
-5.34134e-05
-3.76426e-05
-5.09296e-05
-4.10261e-05
-4.80823e-05
-4.43359e-05
-4.48658e-05
-4.75138e-05
-4.12785e-05
-5.0509e-05
-3.73129e-05
-5.32529e-05
-3.29702e-05
-5.5646e-05
-2.82447e-05
-5.75464e-05
-2.31534e-05
-5.89017e-05
-1.77579e-05
-5.9749e-05
-1.21819e-05
-6.00667e-05
-6.58971e-06
-1.03776e-06
-5.98443e-05
-2.60076e-06
-5.94827e-05
-5.26011e-06
-6.03887e-05
-7.95435e-06
-6.00712e-05
-1.07018e-05
-5.9614e-05
-1.35147e-05
-5.89799e-05
-1.64002e-05
-5.81514e-05
-1.93595e-05
-5.71067e-05
-2.23867e-05
-5.58219e-05
-2.54673e-05
-5.42728e-05
-2.85781e-05
-5.24379e-05
-3.16909e-05
-5.03006e-05
-3.47726e-05
-4.78479e-05
-3.77848e-05
-4.50701e-05
-4.06913e-05
-4.19593e-05
-4.34584e-05
-3.85114e-05
-4.60423e-05
-3.4729e-05
-4.8396e-05
-3.06165e-05
-5.04551e-05
-2.61856e-05
-5.21431e-05
-2.14655e-05
-5.33866e-05
-1.65145e-05
-5.41457e-05
-1.14227e-05
-5.44393e-05
-6.29619e-06
-1.17736e-06
-5.42997e-05
-2.45712e-06
-5.70255e-05
-4.96335e-06
-5.78824e-05
-7.49505e-06
-5.75395e-05
-1.00657e-05
-5.70433e-05
-1.26832e-05
-5.63624e-05
-1.53516e-05
-5.5483e-05
-1.80698e-05
-5.43885e-05
-2.08307e-05
-5.3061e-05
-2.36207e-05
-5.14828e-05
-2.64204e-05
-4.96383e-05
-2.92066e-05
-4.75144e-05
-3.19538e-05
-4.51007e-05
-3.46337e-05
-4.23902e-05
-3.72134e-05
-3.93797e-05
-3.96551e-05
-3.60697e-05
-4.19193e-05
-3.24648e-05
-4.39607e-05
-2.85751e-05
-4.57277e-05
-2.44185e-05
-4.71677e-05
-2.00255e-05
-4.82413e-05
-1.54409e-05
-4.89314e-05
-1.07325e-05
-4.92419e-05
-5.98566e-06
-1.24336e-06
-4.9176e-05
-2.2963e-06
-5.47292e-05
-4.63597e-06
-5.55428e-05
-6.99313e-06
-5.51823e-05
-9.37784e-06
-5.46586e-05
-1.17951e-05
-5.39451e-05
-1.42467e-05
-5.30314e-05
-1.67302e-05
-5.1905e-05
-1.92384e-05
-5.05527e-05
-2.17596e-05
-4.89617e-05
-2.42773e-05
-4.71205e-05
-2.6772e-05
-4.50198e-05
-2.92203e-05
-4.26524e-05
-3.15963e-05
-4.00142e-05
-3.38716e-05
-3.71044e-05
-3.60153e-05
-3.3926e-05
-3.79934e-05
-3.04867e-05
-3.97691e-05
-2.67993e-05
-4.13035e-05
-2.28842e-05
-4.25585e-05
-1.87704e-05
-4.35034e-05
-1.4496e-05
-4.41233e-05
-1.01126e-05
-4.44221e-05
-5.68681e-06
-1.26287e-06
-4.44026e-05
-2.12625e-06
-5.2603e-05
-4.28978e-06
-5.33792e-05
-6.46482e-06
-5.30073e-05
-8.65868e-06
-5.24648e-05
-1.08741e-05
-5.17297e-05
-1.3111e-05
-5.07945e-05
-1.53664e-05
-4.96497e-05
-1.76331e-05
-4.82859e-05
-1.99008e-05
-4.6694e-05
-2.21555e-05
-4.48659e-05
-2.43801e-05
-4.27951e-05
-2.6555e-05
-4.04775e-05
-2.86577e-05
-3.79115e-05
-3.06634e-05
-3.50987e-05
-3.25454e-05
-3.20441e-05
-3.4275e-05
-2.87571e-05
-3.58222e-05
-2.52521e-05
-3.7157e-05
-2.15494e-05
-3.82517e-05
-1.76757e-05
-3.90839e-05
-1.36638e-05
-3.96418e-05
-9.55477e-06
-3.99262e-05
-5.40236e-06
-1.24937e-06
-3.99397e-05
-1.94854e-06
-5.06544e-05
-3.92932e-06
-5.13984e-05
-5.91709e-06
-5.10195e-05
-7.91706e-06
-5.04648e-05
-9.93037e-06
-4.97164e-05
-1.1956e-05
-4.87689e-05
-1.39902e-05
-4.76155e-05
-1.60265e-05
-4.62496e-05
-1.80555e-05
-4.4665e-05
-2.00651e-05
-4.28563e-05
-2.20404e-05
-4.08198e-05
-2.39645e-05
-3.85535e-05
-2.58181e-05
-3.6058e-05
-2.75801e-05
-3.33366e-05
-2.92281e-05
-3.03961e-05
-3.07382e-05
-2.72469e-05
-3.20866e-05
-2.39037e-05
-3.32498e-05
-2.03862e-05
-3.42067e-05
-1.67188e-05
-3.49403e-05
-1.29302e-05
-3.54407e-05
-9.05431e-06
-3.57079e-05
-5.13521e-06
-1.21377e-06
-3.57435e-05
-1.76604e-06
-4.88884e-05
-3.55971e-06
-4.96048e-05
-5.35712e-06
-4.92221e-05
-7.16194e-06
-4.866e-05
-8.97415e-06
-4.79042e-05
-1.0792e-05
-4.6951e-05
-1.26116e-05
-4.57959e-05
-1.44268e-05
-4.44344e-05
-1.62294e-05
-4.28624e-05
-1.80087e-05
-4.1077e-05
-1.9752e-05
-3.90765e-05
-2.14447e-05
-3.68608e-05
-2.30704e-05
-3.44322e-05
-2.46115e-05
-3.17956e-05
-2.60491e-05
-2.89585e-05
-2.73639e-05
-2.59321e-05
-2.85366e-05
-2.27311e-05
-2.95488e-05
-1.9374e-05
-3.03843e-05
-1.58832e-05
-3.10301e-05
-1.22844e-05
-3.14779e-05
-8.60646e-06
-3.17268e-05
-4.8863e-06
-1.16148e-06
-3.17791e-05
-1.58033e-06
-4.7308e-05
-3.18419e-06
-4.80009e-05
-4.78962e-06
-4.76166e-05
-6.39916e-06
-4.70504e-05
-8.01201e-06
-4.62914e-05
-9.62592e-06
-4.53371e-05
-1.1237e-05
-4.41848e-05
-1.28398e-05
-4.28316e-05
-1.44267e-05
-4.12755e-05
-1.59886e-05
-3.95151e-05
-1.75146e-05
-3.75504e-05
-1.89924e-05
-3.5383e-05
-2.04081e-05
-3.30165e-05
-2.1747e-05
-3.04566e-05
-2.29937e-05
-2.77119e-05
-2.41323e-05
-2.47935e-05
-2.51475e-05
-2.17159e-05
-2.6025e-05
-1.84965e-05
-2.67521e-05
-1.51561e-05
-2.73186e-05
-1.17178e-05
-2.7718e-05
-8.20708e-06
-2.79489e-05
-4.65541e-06
-1.09743e-06
-2.80129e-05
-1.39254e-06
-4.59155e-05
-2.80507e-06
-4.65884e-05
-4.21793e-06
-4.62038e-05
-5.63289e-06
-4.56355e-05
-7.04855e-06
-4.48757e-05
-8.4624e-06
-4.39233e-05
-9.8707e-06
-4.27765e-05
-1.12684e-05
-4.1434e-05
-1.26489e-05
-3.9895e-05
-1.40045e-05
-3.81596e-05
-1.53258e-05
-3.62291e-05
-1.66024e-05
-3.41064e-05
-1.7823e-05
-3.17959e-05
-1.89754e-05
-2.93043e-05
-2.00468e-05
-2.66404e-05
-2.10248e-05
-2.38156e-05
-2.1897e-05
-2.08437e-05
-2.26522e-05
-1.77413e-05
-2.32809e-05
-1.45275e-05
-2.37751e-05
-1.12236e-05
-2.41295e-05
-7.85264e-06
-2.43428e-05
-4.44206e-06
-1.02349e-06
-2.44168e-05
-1.20283e-06
-4.47127e-05
-2.42346e-06
-4.53677e-05
-3.64399e-06
-4.49833e-05
-4.8656e-06
-4.44138e-05
-6.08651e-06
-4.36548e-05
-7.30404e-06
-4.27057e-05
-8.51466e-06
-4.15658e-05
-9.71386e-06
-4.02348e-05
-1.08961e-05
-3.87128e-05
-1.20546e-05
-3.70011e-05
-1.31817e-05
-3.5102e-05
-1.42689e-05
-3.30192e-05
-1.53066e-05
-3.07582e-05
-1.62851e-05
-2.83259e-05
-1.71941e-05
-2.57314e-05
-1.80235e-05
-2.29861e-05
-1.8764e-05
-2.01032e-05
-1.94069e-05
-1.70984e-05
-1.99448e-05
-1.39896e-05
-2.0372e-05
-1.07965e-05
-2.06843e-05
-7.54027e-06
-2.08809e-05
-4.24549e-06
-9.40957e-07
-2.09634e-05
-1.01007e-06
-4.37026e-05
-2.03947e-06
-4.43383e-05
-3.06828e-06
-4.39544e-05
-4.09791e-06
-4.33842e-05
-5.12636e-06
-4.26264e-05