/*--------------------------------*- C++ -*----------------------------------*\
| =========                 |                                                 |
| \\      /  F ield         | OpenFOAM: The Open Source CFD Toolbox           |
|  \\    /   O peration     | Version:  2.4.0                                 |
|   \\  /    A nd           | Web:      www.OpenFOAM.org                      |
|    \\/     M anipulation  |                                                 |
\*---------------------------------------------------------------------------*/
FoamFile
{
    version     2.0;
    format      ascii;
    class       volScalarField;
    location    "0.15";
    object      rho;
}
// * * * * * * * * * * * * * * * * * * * * * * * * * * * * * * * * * * * * * //

dimensions      [1 -3 0 0 0 0 0];

internalField   nonuniform List<scalar> 
2268
(
13529
13529
13529
13529
13529
13529
13529
13529
13529
13529
13529
13529
13529
13529
13528.9
13528.7
13528.4
13527.8
13526.1
13520.2
13486.2
13031
12405.8
13529
13529
13529
13529
13529
13529
13529
13529
13529
13529
13529
13529
13529
13528.9
13528.6
13528.2
13527.5
13525.9
13521
13499.6
13342.5
11758.8
11548.5
13529
13529
13529
13529
13529
13529
13529
13529
13529
13529
13529
13529
13528.9
13528.7
13528
13525.5
13516.8
13486.7
13392
12996.3
10722
5886.31
8285.6
13529
13529
13529
13529
13529
13529
13529
13529
13529
13529
13529
13529
13528.8
13527.2
13516.4
13453.8
13189.5
12393.9
10302.2
6274.44
2331.28
1010.66
3445.41
13529
13529
13529
13529
13529
13529
13529
13529
13529
13529
13529
13529
13526.1
13482.1
13215.6
12154.8
9446.03
5244.95
1746.75
609.126
524.395
507.562
998.494
13529
13529
13529
13529
13529
13529
13529
13529
13529
13529
13529
13528.2
13468.7
12869.4
10686.7
6134.13
1956.23
648.53
505.184
500.116
500.049
500.023
532.048
13529
13529
13529
13529
13529
13529
13529
13529
13529
13529
13528.9
13502.3
12725.8
9601.29
4595.57
1174.86
561.798
505.561
500.198
500.01
500.012
500.009
500.638
13529
13529
13529
13529
13529
13529
13529
13529
13529
13529
13521.2
12908.3
9357.25
4396.01
1501.86
657.682
519.533
500.705
500.013
500.009
500.01
500.008
500.008
1.00081
1.00408
1.00641
1.13495
7.91801
74.4283
198.06
236.37
253.595
219.484
159.524
164.504
107.021
32.4746
4.80327
1.13899
1.00373
1.00116
1.00011
1.00131
1.00465
1.00666
1.44859
31.3802
291.044
456.651
469.965
469.577
454.252
428.264
167.502
12.792
1.49256
1.19823
1.02585
1.00371
1.0008
1.00006
1.00228
1.00724
1.0108
3.72011
156.183
454.887
498.966
499.648
499.193
479.538
212.189
18.222
1.18591
1.00362
1.00385
1.00393
1.00215
1.00042
1.00004
1.0026
1.00719
1.05428
26.3668
311.565
488.372
499.902
499.903
496.649
348.025
50.5903
1.93378
1.00401
1.00353
1.00375
1.0032
1.00127
1.00022
1.00002
1.00304
1.00708
2.79592
119.39
423.791
497.759
499.98
499.775
478.626
206.516
17.6282
1.18305
1.00325
1.00351
1.00349
1.00234
1.00075
1.00012
1.00001
1.00374
1.01719
33.2113
300.974
483.567
499.814
499.992
499.518
446.657
155.433
10.9266
1.07735
1.00329
1.00346
1.00302
1.00158
1.00042
1.00006
1.00001
1.0048
17.1209
203.567
455.74
499
499.995
499.996
499.001
411.408
110.07
5.54371
1.01767
1.00335
1.00324
1.00235
1.00098
1.00023
1.00003
1.00001
50.3067
206.231
438.31
497.208
499.976
499.999
499.999
497.268
342.55
60.4188
2.32215
1.00408
1.00321
1.00276
1.00162
1.00055
1.00011
1.00002
1.00001
13527.8
13527.5
13526.7
13525
13521.1
13510.3
13484.6
13407.1
13210.7
12623.1
11268.9
8036.73
3496.71
1752.6
877.28
596.382
507.69
500.075
500.005
500.006
500.006
500.005
500.004
13285.2
13255.6
13182.7
13053
12844.6
12435
11795.3
10673.4
8988.58
6533.65
3861.24
1631.97
1128.77
967.759
811.179
591.459
506.232
500.046
500.001
500.001
500.002
500.002
500.002
9242.24
9029.26
8569.19
7870.14
7017.05
5792.27
4495.64
3145.48
2034.63
1344.34
1076.57
1009.18
1000.46
968.879
839.883
623.362
513.443
500.238
500.001
500
500
500
500
1920.61
1846.36
1694.71
1502.39
1331.33
1184.52
1089.62
1036.69
1012.4
1003.36
1000.76
1000.52
997.658
969.061
845.432
634.68
517.561
500.46
500.001
500
500
500
500
1000.02
1000.02
1000.03
1000.06
1000.04
1000.03
1000.02
1000.02
1000.02
1000.01
1000.01
999.925
995.933
958.074
820.854
617.218
514.337
500.37
500.001
500
500
500
500
1000
1000
1000
1000
1000
1000
1000
1000
1000
1000
1000
999.886
993.071
937.435
770.498
577.397
506.668
500.114
500
500
500
500
500
1000
1000
1000
1000
1000
1000
1000
1000
1000
1000
1000
999.861
988.798
909.668
713.534
544.24
502.405
500.024
500
500
500
500
500
1000
1000
1000
1000
1000
1000
1000
1000
1000
1000
1000
999.835
980.892
866.33
647.223
519.243
500.56
500.003
500
500
500
500
500
1000
1000
1000
1000
1000
1000
1000
1000
1000
1000
1000
999.811
967.714
807.799
586.24
506.302
500.089
500
500
500
500
500
500
1000
1000
1000
1000
1000
1000
1000
1000
1000
1000
1000
999.79
944.702
731.573
539.08
501.387
500.009
500
500
500
500
500
500
1000
1000
1000
1000
1000
1000
1000
1000
1000
1000
1000
999.741
901.48
643.128
512.177
500.192
500
500
500
500
500
500
499.964
1000
1000
1000
1000
1000
1000
1000
1000
1000
999.999
999.997
998.442
815.893
562.045
502.186
500.015
500
500
500
500
499.989
499.701
492.285
999.998
999.998
999.997
999.996
999.992
999.983
999.96
999.9
999.736
999.293
998.356
977.76
677.026
514.849
500.21
500
499.999
499.992
499.941
499.543
495.983
469.61
328.334
998.56
998.392
998.027
997.335
996.063
993.718
989.294
980.945
965.543
938.837
904.634
815.939
556.376
501.542
499.68
499.53
498.916
496.691
488.152
459.827
369.051
180.154
15.0428
900.096
893.872
881.329
860.575
828.722
782.506
717.441
631.154
524.504
405.929
310.153
276.726
452.065
470.871
467.843
457.743
432.908
379.992
280.085
146.962
31.4749
1.85088
1.00131
273.009
259.829
235.659
201.689
160.503
116.648
74.8356
40.7299
17.8353
6.72404
4.37718
24.531
125.553
187.341
177.754
143.908
91.8813
38.0278
6.96519
1.25205
1.00207
1.0005
1.00039
2.11589
1.92551
1.65993
1.40295
1.19337
1.07805
1.02229
1.00572
1.00179
1.00665
1.06495
1.18186
1.46067
2.42489
2.08748
1.38311
1.05907
1.0044
1.00086
1.00094
1.00066
1.00023
1.00018
1.00041
1.00026
1.00022
1.00018
1.00018
1.00022
1.00034
1.0004
1.0003
1.00077
1.00047
1.00015
1.00017
1.00027
1.00015
1.0003
1.00032
1.00036
1.00051
1.00066
1.00049
1.00018
1.0001
0.999999
0.999999
0.999999
0.999998
0.999998
0.999998
1
1.00001
1.00002
1.00002
1.00001
1
1.00001
1.00002
1.00002
1.00001
1.00006
1.0002
1.00044
1.00061
1.00051
1.00028
1.00011
0.999998
0.999998
0.999998
0.999998
0.999999
0.999999
0.999999
0.999999
0.999999
0.999999
0.999999
0.999999
1
1
1
1.00001
1.00005
1.00021
1.00044
1.00065
1.00065
1.00043
1.00016
0.999999
0.999999
0.999999
0.999999
0.999999
1
1
1
1
1
1
1
1
1
1
1
1.00002
1.00008
1.00022
1.00042
1.00047
1.00036
1.00015
1
1
1
1
1
1
1
1
1
1
1
1
1
1
1
1
1
1.00003
1.00008
1.00011
1.00013
1.00013
1.00007
1
1
1
1
1
1
1
1
1
1
1
1
1
1
1
1
1
1
1.00001
1.00001
1.00002
1.00002
1.00001
1
1
1
1
1
1
1
1
1
1
1
1
1
1
1
1
1
0.999999
1
1
1
1
1
1
1
1
1
1
1
1
1
1
1
1
1
1
1
1
1
1
0.999999
0.999999
0.999999
0.999998
0.999998
0.999999
1
1
1
1
1
1
1
1
1
1
1
1
1
1
1
1
0.999999
0.999999
0.999999
0.999999
0.999999
0.999999
0.999999
1
1
1
1
1
1
1
1
1
1
1
1
1
1
1
0.999999
0.999999
0.999999
0.999999
0.999998
0.999998
0.999998
0.999998
1
1
1
1
1
1
1
1
1
1
1
1
1
1
0.999999
1
0.999999
0.999999
0.999999
0.999999
0.999999
0.999999
0.999998
1
1
1
1
1
1
1
1
1
1
1
1
1
1
1
0.999999
0.999999
0.999999
0.999999
0.999999
0.999999
0.999998
0.999998
1
1
1
1
1
1
1
1
1
1
1
1
1
1
0.999999
1
0.999999
0.999999
0.999999
0.999999
0.999999
0.999999
0.999999
1
1
1
1
1
1
1
1
1
1
1
1
1
1
1
0.999999
0.999999
0.999999
0.999999
0.999999
0.999999
0.999999
0.999999
1
1
1
1
1
1
1
1
1
1
1
1
1
1
0.999999
1
0.999999
0.999999
0.999999
0.999999
0.999999
0.999999
0.999999
1
1
1
1
1
1
1
1
1
1
1
1
1
1
1
0.999999
0.999999
0.999999
0.999999
0.999999
0.999999
0.999999
0.999999
1
1
1
1
1
1
1
1
1
1
1
1
1
1
1
1
0.999999
0.999999
0.999999
0.999999
0.999999
1
0.999999
1
1
1
1
1
1
1
1
1
1
1
1
1
1
1
0.999999
1
0.999999
0.999999
0.999999
0.999999
0.999999
1
1
1
1
1
1
1
1
1
1
1
1
1
1
1
1
1
0.999999
0.999999
0.999999
0.999999
1
1
1
1
1
1
1
1
1
1
1
1
1
1
1
1
1
1
0.999999
1
0.999999
0.999999
0.999999
1
1
1
1
1
1
1
1
1
1
1
1
1
1
1
1
1
1
1
0.999999
0.999999
0.999999
0.999999
1
1
1
1
1
1
1
1
1
1
1
1
1
1
1
1
1
1
0.999999
0.999999
0.999999
0.999999
0.999999
1
1
1
1
1
1
1
1
1
1
1
1
1
1
1
1
1
0.999999
1
0.999999
0.999999
0.999999
0.999999
1
1
1
1
1
1
1
1
1
1
1
1
1
1
1
1
1
1
0.999999
0.999999
0.999999
0.999999
0.999999
0.999999
1
1
1
1
1
1
1
1
1
1
1
1
1
1
1
1
1
1
1
1
1
1
1
1
1
500.003
500.002
500.001
499.267
500.002
500.001
500.001
499.995
500
500
500
500
500
500
500
500
500
500
500
500
500
500
500
500
500
500
500
500
500
500
500
500
500
500
500
499.998
500
499.994
499.906
498.059
499.495
497.134
480.434
389.936
453.873
379.337
195.314
28.5046
120.709
16.4752
1.42247
1.00249
1.00834
1.02553
1.00744
1.0003
1.00055
1.00037
1.00024
1.00012
1.00038
1.00027
1.00017
1.00009
1.00022
1.00016
1.00009
1.00005
1.0001
1.00007
1.00004
1.00003
1.00004
1.00003
1.00002
1.00001
1.00002
1.00001
1.00001
1.00001
1.00001
1.00001
1
1
1.00001
1
1
1
1
1
1
1
1
0.999999
0.999999
0.999999
0.999998
0.999998
0.999998
0.999998
0.999998
0.999998
0.999997
0.999997
0.999997
0.999997
0.999997
0.999997
0.999998
0.999998
0.999997
0.999997
0.999998
0.999997
0.999997
0.999997
0.999999
0.999998
0.999997
0.999997
0.999998
0.999998
0.999998
0.999997
0.999999
0.999999
0.999998
0.999998
0.999999
0.999999
0.999999
0.999998
1
0.999999
0.999999
0.999999
0.999999
0.999999
0.999999
0.999999
1
1
0.999999
0.999999
0.999999
0.999999
0.999999
0.999999
1
1
0.999999
0.999999
0.999999
0.999999
1
0.999999
1
1
0.999999
0.999999
0.999999
0.999999
0.999999
0.999999
0.999999
1
0.999999
1
490.541
498.323
499.965
500
500
499.999
499.713
468.94
213.537
21.2565
1.19808
1.0031
1.00219
1.00153
1.00067
1.00018
1.00003
1.00001
1
499.999
500
500
500
500
499.979
494.255
346.718
68.8673
2.86664
1.00485
1.00188
1.00123
1.00067
1.00023
1.00005
1.00001
1.00001
1
500
500
500
500
499.997
499.12
434.042
143.703
9.34471
1.0397
1.00227
1.00104
1.00058
1.00024
1.00007
1.00002
1.00001
1
1
500
500
500
499.999
499.76
473.989
222.28
22.4945
1.19499
1.00124
1.00122
1.00052
1.00023
1.00008
1.00002
1.00001
1
1
1
500
500
500
499.908
487.908
290.437
42.2541
1.76857
1.00088
1.00093
1.00059
1.00023
1.00008
1.00002
1.00001
1
1
1
1
500
500
499.955
493.412
332.445
54.3215
2.0463
1.00237
1.00039
1.00052
1.00026
1.00009
1.00003
1.00001
1
1
1
1
1
500
499.971
495.079
360.755
67.8464
2.582
1.00207
1.00008
1.00024
1.00024
1.0001
1.00003
1.00001
1
1
1
1
1
1
499.989
495.56
374.23
73.1104
2.64168
1.00289
1.00008
1.00003
1.00012
1.00009
1.00003
1.00001
1
1
1
1
1
1
1
497.152
378.362
73.9182
2.50085
1.00222
1.00011
1.00003
1.00001
1.00005
1.00003
1.00001
1
1
1
1
1
1
1
1
398.831
71.0477
2.04358
1.0016
1.00016
1.00004
1.00001
1.00001
1.00002
1.00001
1
1
1
1
1
1
1
1
1
76.2171
1.57738
1.00096
1.00025
1.00006
1.00002
1
1
1.00001
1
1
1
1
1
1
1
1
1
1
1.54351
1.00058
1.00012
1.00009
1.00003
1
1
1
1
1
1
1
1
1
1
1
1
1
1
1.00097
1.00034
1.00004
1.00002
1
0.999999
1
1
1
1
1
1
1
1
1
1
1
1
1
1.00011
1.00013
1.00002
1
0.999999
1
1
1
1
1
1
1
1
1
1
1
1
1
1
1.00004
1.00003
1
0.999999
0.999999
1
1
1
1
1
0.999999
1
1
1
1
1
1
1
1
1.00005
1
1
1
1
0.999999
0.999999
0.999999
0.999999
0.999999
0.999999
0.999999
1
1
1
1
1
1
1
1.00003
1
1
1
0.999999
0.999999
0.999999
0.999999
0.999998
0.999998
0.999998
0.999999
0.999999
0.999999
0.999999
1
1
1
1
1.00002
1
1
1
1
0.999999
0.999999
0.999998
0.999998
0.999998
0.999998
0.999999
0.999999
0.999999
0.999999
0.999999
1
1
1
1.00001
1
1
1
1
1
0.999999
0.999998
0.999998
0.999998
0.999999
0.999999
0.999999
0.999999
0.999999
0.999999
0.999999
0.999999
0.999999
1
1
1
1
1
1
0.999999
0.999999
0.999999
0.999999
0.999999
0.999999
0.999999
0.999999
0.999999
0.999999
0.999999
0.999999
0.999999
1
1
1
1
1
1
1
0.999999
0.999999
0.999999
0.999999
0.999999
1
1
1
0.999999
0.999999
0.999999
0.999999
1
1
1
1
1
1
1
1
0.999999
0.999999
1
1
1
1
1
1
0.999999
0.999999
0.999999
1
1
1
1
1
1
1
1
0.999999
0.999999
1
1
1
1
1
1
0.999999
0.999999
0.999999
0.999999
1
1
1
1
0.999999
0.999999
0.999999
0.999999
0.999999
1
1
1
1
1
1
0.999999
0.999999
1
0.999998
0.999998
0.999998
0.999999
0.999999
0.999999
0.999999
0.999999
0.999999
0.999999
0.999999
1
1
1
1
1
1
1
1
0.999997
0.999997
0.999997
0.999998
0.999998
0.999998
0.999999
0.999999
0.999999
0.999999
0.999999
1
1
1
1
1
1
1
1
0.999997
0.999997
0.999997
0.999997
0.999997
0.999998
0.999998
0.999999
0.999999
0.999999
0.999999
1
1
1
1
1
1
1
1
0.999997
0.999996
0.999996
0.999996
0.999997
0.999997
0.999998
0.999999
0.999999
0.999999
1
1
1
1
1
1
1
1
1
0.999997
0.999996
0.999996
0.999996
0.999997
0.999997
0.999998
0.999999
0.999999
0.999999
1
1
1
1
1
1
1
1
1
0.999997
0.999996
0.999996
0.999996
0.999997
0.999997
0.999998
0.999999
0.999999
0.999999
1
1
1
1
1
1
1
1
1
0.999997
0.999997
0.999996
0.999996
0.999997
0.999997
0.999998
0.999999
0.999999
0.999999
1
1
1
1
1
1
1
1
1
0.999998
0.999997
0.999997
0.999997
0.999997
0.999998
0.999998
0.999999
0.999999
0.999999
0.999999
0.999999
0.999999
1
1
1
1
1
1
0.999998
0.999997
0.999997
0.999997
0.999997
0.999998
0.999999
0.999999
0.999999
0.999999
0.999999
0.999999
0.999999
0.999999
0.999999
1
1
1
1
0.999998
0.999998
0.999997
0.999997
0.999998
0.999998
0.999999
0.999999
0.999999
0.999999
0.999999
0.999999
0.999999
0.999999
0.999999
1
1
1
1
0.999999
0.999998
0.999998
0.999998
0.999998
0.999999
0.999999
0.999999
0.999999
0.999999
0.999999
0.999999
0.999999
0.999999
0.999999
1
1
1
1
0.999999
0.999998
0.999998
0.999998
0.999999
0.999999
0.999999
0.999999
0.999999
0.999999
0.999999
0.999999
0.999999
0.999999
1
1
1
1
1
0.999999
0.999999
0.999999
0.999999
0.999999
0.999999
0.999999
0.999999
0.999999
0.999999
0.999999
0.999999
0.999999
1
1
1
1
1
1
0.999999
0.999999
0.999999
0.999999
0.999999
0.999999
0.999999
0.999999
0.999999
0.999999
0.999999
0.999999
1
1
1
1
1
1
1
0.999999
0.999999
0.999999
0.999999
0.999999
0.999999
0.999999
0.999999
0.999999
0.999999
0.999999
0.999999
1
1
1
1
1
1
1
1
0.999999
0.999999
0.999999
0.999999
0.999999
0.999999
0.999999
0.999999
0.999999
0.999999
0.999999
0.999999
1
1
1
1
1
1
1
0.999999
0.999999
0.999999
0.999999
0.999999
0.999999
0.999999
0.999999
0.999999
0.999999
0.999999
0.999999
0.999999
0.999999
1
1
1
1
1
1
1
1
1
1
0.999999
0.999999
0.999999
0.999999
0.999999
0.999999
0.999999
1
1
1
1
1
1
)
;

boundaryField
{
    leftWall
    {
        type            calculated;
        value           nonuniform List<scalar> 
50
(
13529
13529
13529
13529
13529
13529
13529
13529
13527.8
13285.2
9242.24
1920.61
1000.02
1000
1000
1000
1000
1000
1000
1000
999.998
998.56
900.096
273.009
2.11589
1.00041
0.999999
0.999998
0.999999
1
1
1
1
1
1
1
1
1
1
1
1
1
1
1
1
1
1
1
1
1
)
;
    }
    rightWall
    {
        type            calculated;
        value           nonuniform List<scalar> 
50
(
1.00011
1.00006
1.00004
1.00002
1.00001
1.00001
1.00001
1.00001
1
1
1
1
1
1
1
1
1
1
1
1
1
1
1
1
1
1
0.999999
0.999999
0.999999
0.999999
0.999999
1
1
1
1
1
1
1
1
1
1
1
1
1
1
1
1
1
1
1
)
;
    }
    lowerWall
    {
        type            calculated;
        value           nonuniform List<scalar> 
62
(
13529
13529
13529
13529
13529
13529
13529
13529
13529
13529
13529
13529
13529
13529
13528.9
13528.7
13528.4
13527.8
13526.1
13520.2
13486.2
13031
12405.8
12405.8
11548.5
8285.6
3445.41
998.494
532.048
500.638
500.008
500.003
500.002
500.001
499.267
1.00081
1.00131
1.00228
1.0026
1.00304
1.00374
1.0048
50.3067
1.00081
1.00408
1.00641
1.13495
7.91801
74.4283
198.06
236.37
253.595
219.484
159.524
164.504
107.021
32.4746
4.80327
1.13899
1.00373
1.00116
1.00011
)
;
    }
    atmosphere
    {
        type            calculated;
        value           nonuniform List<scalar> 
46
(
1
1
1
1
1
1
1
1
1
1
1
1
1
1
1
1
1
1
1
1
1
1
1
0.999999
1
0.999999
1
1
1
1
1
1
1
0.999999
0.999999
0.999999
0.999999
0.999999
0.999999
0.999999
1
1
1
1
1
1
)
;
    }
    defaultFaces
    {
        type            empty;
    }
}


// ************************************************************************* //
