/*--------------------------------*- C++ -*----------------------------------*\
| =========                 |                                                 |
| \\      /  F ield         | OpenFOAM: The Open Source CFD Toolbox           |
|  \\    /   O peration     | Version:  2.4.0                                 |
|   \\  /    A nd           | Web:      www.OpenFOAM.org                      |
|    \\/     M anipulation  |                                                 |
\*---------------------------------------------------------------------------*/
FoamFile
{
    version     2.0;
    format      ascii;
    class       volVectorField;
    location    "0.15";
    object      U.air;
}
// * * * * * * * * * * * * * * * * * * * * * * * * * * * * * * * * * * * * * //

dimensions      [0 1 -1 0 0 0 0];

internalField   nonuniform List<vector> 
2268
(
(0.0152584 -0.00721445 0)
(0.0460351 -0.00733786 0)
(0.0776685 -0.00758528 0)
(0.110358 -0.00796782 0)
(0.146071 -0.00846442 0)
(0.180722 -0.00919057 0)
(0.227846 -0.0101109 0)
(0.261983 -0.0111894 0)
(0.326552 -0.0117838 0)
(0.367342 -0.0179199 0)
(0.450042 -0.0143329 0)
(0.527084 -0.0159103 0)
(0.585143 -0.0224599 0)
(0.677334 -0.0291186 0)
(0.811872 -0.0337762 0)
(0.961488 -0.034313 0)
(1.10675 -0.0284079 0)
(1.2273 -0.0145253 0)
(1.31331 -0.0046635 0)
(1.33783 -0.00975834 0)
(1.30988 -0.00755207 0)
(1.10426 -0.0128756 0)
(0.998558 0.0619876 0)
(0.0152064 -0.0216244 0)
(0.0458826 -0.0220001 0)
(0.0774099 -0.0227422 0)
(0.109998 -0.0238885 0)
(0.145555 -0.0253548 0)
(0.180061 -0.027671 0)
(0.227138 -0.0296498 0)
(0.260335 -0.0356792 0)
(0.325363 -0.0312305 0)
(0.368012 -0.0553319 0)
(0.447568 -0.0476807 0)
(0.518806 -0.0462273 0)
(0.582623 -0.0628007 0)
(0.693617 -0.0819968 0)
(0.837703 -0.0955805 0)
(0.978686 -0.101017 0)
(1.10116 -0.0947445 0)
(1.19674 -0.082521 0)
(1.27703 -0.0528763 0)
(1.32366 -7.42237e-05 0)
(1.3508 0.0772291 0)
(1.20467 0.219445 0)
(1.06446 0.69584 0)
(0.0150896 -0.0359506 0)
(0.0455321 -0.0365755 0)
(0.0768166 -0.0378098 0)
(0.109174 -0.0397071 0)
(0.144366 -0.0421292 0)
(0.17865 -0.0459475 0)
(0.225253 -0.0496135 0)
(0.257298 -0.0571199 0)
(0.323447 -0.057296 0)
(0.36572 -0.0866575 0)
(0.443262 -0.0750321 0)
(0.509215 -0.0787007 0)
(0.57859 -0.117091 0)
(0.702968 -0.151497 0)
(0.850983 -0.162107 0)
(0.982284 -0.154228 0)
(1.08799 -0.131302 0)
(1.16609 -0.0890657 0)
(1.22026 -0.060288 0)
(1.2351 -0.0525781 0)
(1.26019 -0.0420524 0)
(1.15139 0.128926 0)
(1.11638 0.856762 0)
(0.0149151 -0.0501376 0)
(0.0450092 -0.0510116 0)
(0.0759354 -0.0527369 0)
(0.107958 -0.0553608 0)
(0.142582 -0.0587126 0)
(0.17669 -0.0640251 0)
(0.221954 -0.0689288 0)
(0.253792 -0.0796269 0)
(0.319648 -0.0806404 0)
(0.359844 -0.11709 0)
(0.435857 -0.10878 0)
(0.498589 -0.110644 0)
(0.577692 -0.165738 0)
(0.709892 -0.212798 0)
(0.853768 -0.223699 0)
(0.962331 -0.206005 0)
(1.03621 -0.178371 0)
(1.08108 -0.164974 0)
(1.10492 -0.144603 0)
(1.12184 -0.115476 0)
(1.15074 -0.0342171 0)
(0.883297 0.248809 0)
(1.16731 1.11851 0)
(0.0146821 -0.064148 0)
(0.0443118 -0.0652711 0)
(0.0747695 -0.0674877 0)
(0.10635 -0.0708036 0)
(0.140248 -0.0750585 0)
(0.174056 -0.0817004 0)
(0.217671 -0.0881643 0)
(0.249348 -0.100834 0)
(0.31402 -0.105675 0)
(0.352656 -0.145963 0)
(0.422232 -0.133896 0)
(0.490432 -0.149424 0)
(0.575591 -0.227553 0)
(0.705026 -0.283527 0)
(0.82819 -0.279032 0)
(0.911913 -0.259331 0)
(0.937706 -0.25355 0)
(0.939743 -0.23384 0)
(0.924364 -0.194138 0)
(0.898619 -0.0920461 0)
(0.864458 0.0548657 0)
(0.314737 0.426812 0)
(1.09786 1.43946 0)
(0.0143881 -0.0778915 0)
(0.0434315 -0.0792645 0)
(0.0733123 -0.0819778 0)
(0.104342 -0.0859569 0)
(0.137374 -0.0910953 0)
(0.170717 -0.0990451 0)
(0.212459 -0.106926 0)
(0.243857 -0.12228 0)
(0.307288 -0.129966 0)
(0.340076 -0.170014 0)
(0.41127 -0.166277 0)
(0.482321 -0.187627 0)
(0.567897 -0.278625 0)
(0.682019 -0.335105 0)
(0.76542 -0.358709 0)
(0.783165 -0.371143 0)
(0.794622 -0.349353 0)
(0.892643 -0.233365 0)
(0.920396 -0.157345 0)
(0.845905 -0.0191575 0)
(0.636289 0.294677 0)
(0.0450334 0.646546 0)
(0.638098 1.80417 0)
(0.0140211 -0.0911654 0)
(0.042332 -0.0928088 0)
(0.0715111 -0.0960604 0)
(0.101844 -0.100705 0)
(0.133879 -0.106709 0)
(0.16657 -0.115886 0)
(0.206319 -0.124996 0)
(0.237482 -0.142546 0)
(0.298467 -0.152213 0)
(0.327395 -0.191916 0)
(0.401634 -0.191616 0)
(0.470983 -0.226755 0)
(0.559936 -0.33343 0)
(0.621757 -0.420346 0)
(0.634648 -0.474193 0)
(0.714243 -0.463183 0)
(0.88593 -0.339808 0)
(0.961423 -0.213541 0)
(0.868007 0.00878525 0)
(0.614061 0.194779 0)
(0.45964 0.467105 0)
(0.0600069 0.700433 0)
(0.145959 1.99694 0)
(0.0135582 -0.104357 0)
(0.0409499 -0.106283 0)
(0.0692922 -0.110066 0)
(0.0987919 -0.115236 0)
(0.129794 -0.121683 0)
(0.161726 -0.131547 0)
(0.199573 -0.141234 0)
(0.230615 -0.160763 0)
(0.289308 -0.172885 0)
(0.313707 -0.215993 0)
(0.393957 -0.225887 0)
(0.453465 -0.288789 0)
(0.540683 -0.393961 0)
(0.511203 -0.527796 0)
(0.600755 -0.564306 0)
(0.746808 -0.476382 0)
(0.777684 -0.308951 0)
(0.678367 -0.077654 0)
(0.545666 0.100078 0)
(0.443491 0.251157 0)
(0.399698 0.535288 0)
(0.179104 0.841398 0)
(0.0682414 2.09267 0)
(-0.234009 0.141684 0)
(-0.878539 0.309337 0)
(-2.29858 0.533626 0)
(-4.77099 0.22701 0)
(-5.63701 -0.171 0)
(-2.36183 -0.694649 0)
(-1.65485 -0.666366 0)
(-0.188004 -0.452546 0)
(1.81861 -0.23513 0)
(3.16841 -0.350263 0)
(4.21455 -0.130523 0)
(3.91609 -0.208132 0)
(3.68643 -0.779206 0)
(3.94525 -0.63355 0)
(3.51286 -0.108056 0)
(1.83568 0.266538 0)
(0.996067 0.186185 0)
(0.507056 0.092136 0)
(0.154348 0.068702 0)
(-0.218497 0.350074 0)
(-0.686663 0.559354 0)
(-1.39162 0.71916 0)
(-1.62839 0.360841 0)
(-0.323971 -0.549158 0)
(0.0157868 -0.638603 0)
(0.0306213 -0.468226 0)
(0.724251 0.00796349 0)
(1.51255 0.235161 0)
(2.07954 0.241332 0)
(2.47693 0.431486 0)
(2.5273 0.0750708 0)
(3.16234 0.618972 0)
(3.05133 0.675151 0)
(2.64799 0.721546 0)
(1.53051 0.64513 0)
(0.92228 0.419782 0)
(0.489185 0.268959 0)
(0.151395 0.206535 0)
(-0.116664 0.55997 0)
(-0.396908 0.741892 0)
(-0.392919 0.840433 0)
(0.615969 -0.0447192 0)
(0.768003 -0.763985 0)
(0.464382 -0.749508 0)
(0.436756 -0.581875 0)
(0.998828 -0.186962 0)
(1.64209 0.042026 0)
(2.24649 0.225964 0)
(2.34589 -0.0629474 0)
(2.7131 0.295876 0)
(2.6155 -0.300217 0)
(2.55531 -0.0976708 0)
(1.82951 0.722609 0)
(1.05942 0.958601 0)
(0.733 0.649389 0)
(0.42135 0.421987 0)
(0.135649 0.333973 0)
(-0.0724713 0.606271 0)
(-0.11956 0.757353 0)
(0.0211313 0.396908 0)
(1.52523 -0.270834 0)
(1.09512 -0.637447 0)
(0.761492 -0.883517 0)
(0.893008 -0.751105 0)
(1.40335 -0.492421 0)
(1.99081 -0.0943115 0)
(2.21711 -0.264464 0)
(2.33874 -0.279794 0)
(2.38303 -0.427657 0)
(2.38235 0.0221338 0)
(1.87605 0.563711 0)
(1.05229 1.07841 0)
(0.732523 1.09585 0)
(0.576565 0.761592 0)
(0.35363 0.538983 0)
(0.117067 0.445717 0)
(-0.0294775 0.688229 0)
(-0.0651522 0.61731 0)
(1.14205 0.252566 0)
(1.38104 -0.44034 0)
(1.22601 -0.643955 0)
(1.01589 -1.03477 0)
(1.17717 -0.906254 0)
(1.58409 -0.531989 0)
(2.06375 -0.25691 0)
(2.22379 -0.779101 0)
(2.01915 -0.680859 0)
(2.00186 -0.332585 0)
(1.79193 0.202471 0)
(1.12519 0.777444 0)
(0.605439 1.20682 0)
(0.526735 1.14848 0)
(0.451119 0.830977 0)
(0.290717 0.628798 0)
(0.09823 0.538936 0)
(-0.0458724 0.626171 0)
(0.0843877 0.411197 0)
(1.44706 -0.114914 0)
(1.37191 -0.455485 0)
(1.31788 -0.876055 0)
(1.30249 -1.04482 0)
(1.41509 -0.937465 0)
(1.68578 -0.504991 0)
(1.92945 -0.612983 0)
(1.97973 -0.931454 0)
(1.68984 -0.707598 0)
(1.43282 -0.130449 0)
(1.06698 0.427574 0)
(0.552932 0.98155 0)
(0.329665 1.28045 0)
(0.364342 1.15166 0)
(0.349522 0.876507 0)
(0.234425 0.701328 0)
(0.0806449 0.618621 0)
(-0.0567683 0.807812 0)
(0.963856 0.0900283 0)
(1.2476 -0.248838 0)
(1.41649 -0.60058 0)
(1.42163 -1.05248 0)
(1.51218 -0.968663 0)
(1.54597 -0.9366 0)
(1.71723 -0.56445 0)
(1.87541 -0.848387 0)
(1.85231 -0.940675 0)
(1.36512 -0.542314 0)
(0.890763 0.0240619 0)
(0.524905 0.631083 0)
(0.180635 1.11247 0)
(0.146463 1.26988 0)
(0.251263 1.11703 0)
(0.268551 0.894935 0)
(0.185886 0.749199 0)
(0.0649825 0.676969 0)
(0.838423 0.256347 0)
(1.12182 -0.0580082 0)
(1.27748 -0.389696 0)
(1.49934 -0.889839 0)
(1.61697 -0.976408 0)
(1.66574 -0.931221 0)
(1.59699 -0.926433 0)
(1.71377 -0.67171 0)
(1.83151 -0.923232 0)
(1.72345 -0.855954 0)
(0.979143 -0.333838 0)
(0.411067 0.272142 0)
(0.0822107 0.782246 0)
(-0.0685673 1.14955 0)
(0.0383326 1.22222 0)
(0.176107 1.08634 0)
(0.202373 0.91477 0)
(0.145077 0.795216 0)
(0.051439 0.732445 0)
(0.0127537 -0.124704 0)
(0.0385784 -0.126877 0)
(0.0656447 -0.13114 0)
(0.0939682 -0.136623 0)
(0.123668 -0.143529 0)
(0.154129 -0.155079 0)
(0.189217 -0.166215 0)
(0.220677 -0.191448 0)
(0.272655 -0.21466 0)
(0.299028 -0.271199 0)
(0.371763 -0.329317 0)
(0.424399 -0.396217 0)
(0.435085 -0.502307 0)
(0.440588 -0.594749 0)
(0.574614 -0.559251 0)
(0.659215 -0.377092 0)
(0.563422 -0.144918 0)
(0.474673 -0.0131901 0)
(0.409073 0.129832 0)
(0.452308 0.252892 0)
(0.419865 0.543629 0)
(0.703323 0.733541 0)
(1.0671 1.86728 0)
(0.0120901 -0.134985 0)
(0.0366016 -0.138929 0)
(0.0628121 -0.146807 0)
(0.0896546 -0.157403 0)
(0.118095 -0.172544 0)
(0.14608 -0.199533 0)
(0.177689 -0.226789 0)
(0.208306 -0.270678 0)
(0.230705 -0.31156 0)
(0.268294 -0.378173 0)
(0.285158 -0.448081 0)
(0.335343 -0.446755 0)
(0.433904 -0.51433 0)
(0.557209 -0.578922 0)
(0.628478 -0.500475 0)
(0.601969 -0.311594 0)
(0.494261 -0.0976255 0)
(0.480732 0.000504751 0)
(0.443348 0.149415 0)
(0.523179 0.196995 0)
(0.570497 0.423352 0)
(0.761985 0.437861 0)
(1.2053 0.86971 0)
(0.0107226 -0.240963 0)
(0.032108 -0.246753 0)
(0.0547769 -0.258283 0)
(0.07551 -0.271878 0)
(0.0997025 -0.285732 0)
(0.117751 -0.312006 0)
(0.141185 -0.333295 0)
(0.171215 -0.365724 0)
(0.20805 -0.388356 0)
(0.281398 -0.400619 0)
(0.371902 -0.395237 0)
(0.474772 -0.51474 0)
(0.558657 -0.589676 0)
(0.602595 -0.578888 0)
(0.620011 -0.50272 0)
(0.591221 -0.262323 0)
(0.531899 -0.0591614 0)
(0.522194 0.0115391 0)
(0.530828 0.109965 0)
(0.59912 0.118364 0)
(0.695003 0.261674 0)
(0.838746 0.222926 0)
(1.09839 0.417537 0)
(0.0135565 -0.237122 0)
(0.0399821 -0.241686 0)
(0.0685589 -0.242687 0)
(0.100615 -0.244002 0)
(0.142991 -0.23702 0)
(0.191068 -0.251435 0)
(0.249591 -0.271118 0)
(0.318818 -0.318864 0)
(0.391547 -0.386057 0)
(0.455469 -0.464585 0)
(0.514459 -0.490242 0)
(0.551149 -0.540574 0)
(0.577932 -0.580874 0)
(0.593814 -0.575133 0)
(0.603204 -0.486775 0)
(0.569605 -0.240392 0)
(0.535558 -0.0492673 0)
(0.543862 0.0043968 0)
(0.576096 0.0648029 0)
(0.62968 0.0543823 0)
(0.737264 0.120052 0)
(0.858241 0.0889285 0)
(1.0559 0.183121 0)
(0.0267117 -0.288068 0)
(0.0770249 -0.294216 0)
(0.127228 -0.302995 0)
(0.170739 -0.325097 0)
(0.223986 -0.341457 0)
(0.272933 -0.367204 0)
(0.323902 -0.389583 0)
(0.371208 -0.415219 0)
(0.409456 -0.435717 0)
(0.451817 -0.472455 0)
(0.47173 -0.498792 0)
(0.491139 -0.563865 0)
(0.526814 -0.591078 0)
(0.54865 -0.572927 0)
(0.55451 -0.459781 0)
(0.509411 -0.21272 0)
(0.503908 -0.0517958 0)
(0.524752 -0.0207619 0)
(0.572181 0.0097059 0)
(0.635624 -0.0108563 0)
(0.752573 -0.0101803 0)
(0.842738 -0.0220159 0)
(1.00704 -0.0280576 0)
(0.0201611 -0.280186 0)
(0.0615812 -0.282145 0)
(0.104025 -0.289959 0)
(0.147902 -0.301107 0)
(0.189824 -0.316212 0)
(0.233005 -0.338653 0)
(0.271106 -0.366669 0)
(0.30857 -0.400903 0)
(0.336796 -0.439891 0)
(0.373397 -0.488467 0)
(0.399921 -0.515829 0)
(0.431565 -0.585716 0)
(0.471878 -0.61111 0)
(0.495494 -0.582204 0)
(0.493234 -0.431874 0)
(0.444916 -0.19757 0)
(0.456545 -0.0725869 0)
(0.492041 -0.0594501 0)
(0.551952 -0.0543715 0)
(0.626458 -0.0936731 0)
(0.728205 -0.117201 0)
(0.811404 -0.13953 0)
(0.955457 -0.188551 0)
(0.0196645 -0.328192 0)
(0.0591107 -0.334332 0)
(0.0972411 -0.343185 0)
(0.136033 -0.357096 0)
(0.171965 -0.374161 0)
(0.207773 -0.39614 0)
(0.241953 -0.422305 0)
(0.278091 -0.452288 0)
(0.309174 -0.485638 0)
(0.346843 -0.525003 0)
(0.373687 -0.551707 0)
(0.409095 -0.623386 0)
(0.447142 -0.636769 0)
(0.464888 -0.590463 0)
(0.439399 -0.409619 0)
(0.390406 -0.195678 0)
(0.410993 -0.104369 0)
(0.456235 -0.108508 0)
(0.519778 -0.125164 0)
(0.598928 -0.175584 0)
(0.687252 -0.209687 0)
(0.766867 -0.248432 0)
(0.896174 -0.307099 0)
(0.0171221 -0.366868 0)
(0.0510991 -0.371019 0)
(0.0851532 -0.379553 0)
(0.118104 -0.391519 0)
(0.151929 -0.409968 0)
(0.184446 -0.430509 0)
(0.216889 -0.456816 0)
(0.248325 -0.485909 0)
(0.276232 -0.517822 0)
(0.311688 -0.558457 0)
(0.32659 -0.58809 0)
(0.361139 -0.652623 0)
(0.397614 -0.651479 0)
(0.408428 -0.575701 0)
(0.360251 -0.362537 0)
(0.330819 -0.189485 0)
(0.36019 -0.139438 0)
(0.417474 -0.163659 0)
(0.481516 -0.196348 0)
(0.558906 -0.254136 0)
(0.636919 -0.294657 0)
(0.715111 -0.344117 0)
(0.82551 -0.406553 0)
(0.0151064 -0.396801 0)
(0.0453526 -0.401522 0)
(0.0751659 -0.409357 0)
(0.104963 -0.421499 0)
(0.133391 -0.436473 0)
(0.161446 -0.456709 0)
(0.188016 -0.47975 0)
(0.214769 -0.507572 0)
(0.238418 -0.540299 0)
(0.267452 -0.575388 0)
(0.286366 -0.60579 0)
(0.324039 -0.677202 0)
(0.355612 -0.665683 0)
(0.350064 -0.555883 0)
(0.28449 -0.330961 0)
(0.280726 -0.20247 0)
(0.312538 -0.185905 0)
(0.378715 -0.225402 0)
(0.438095 -0.265925 0)
(0.511507 -0.326588 0)
(0.578905 -0.372016 0)
(0.654983 -0.431465 0)
(0.752605 -0.506651 0)
(0.0131496 -0.426226 0)
(0.0393443 -0.430495 0)
(0.0653043 -0.438022 0)
(0.0905251 -0.449276 0)
(0.115413 -0.465346 0)
(0.139498 -0.484731 0)
(0.163065 -0.508936 0)
(0.186073 -0.536578 0)
(0.207451 -0.568101 0)
(0.233152 -0.605872 0)
(0.246113 -0.641943 0)
(0.282366 -0.70479 0)
(0.30809 -0.671555 0)
(0.275843 -0.513148 0)
(0.211692 -0.300873 0)
(0.229746 -0.225346 0)
(0.271487 -0.237095 0)
(0.336771 -0.285379 0)
(0.390319 -0.329611 0)
(0.456974 -0.390825 0)
(0.514383 -0.442401 0)
(0.587135 -0.512183 0)
(0.673989 -0.588901 0)
(0.0111571 -0.449352 0)
(0.0334169 -0.453641 0)
(0.0554514 -0.460889 0)
(0.077249 -0.471876 0)
(0.0981927 -0.486476 0)
(0.118381 -0.505257 0)
(0.137609 -0.527474 0)
(0.155856 -0.554053 0)
(0.172964 -0.585534 0)
(0.19172 -0.620454 0)
(0.203528 -0.659585 0)
(0.234726 -0.722892 0)
(0.253256 -0.66132 0)
(0.186473 -0.463995 0)
(0.1509 -0.286325 0)
(0.180297 -0.2606 0)
(0.235631 -0.294705 0)
(0.291367 -0.340383 0)
(0.339717 -0.386809 0)
(0.397714 -0.446733 0)
(0.444466 -0.497823 0)
(0.515355 -0.507315 0)
(0.685478 -0.524882 0)
(0.00908791 -0.471297 0)
(0.0271804 -0.475398 0)
(0.0452864 -0.482081 0)
(0.0636087 -0.49162 0)
(0.0812712 -0.504852 0)
(0.097784 -0.520726 0)
(0.113191 -0.538248 0)
(0.12717 -0.554357 0)
(0.139964 -0.564469 0)
(0.151022 -0.561801 0)
(0.161506 -0.581556 0)
(0.181431 -0.635211 0)
(0.184622 -0.618666 0)
(0.0867488 -0.406971 0)
(0.102724 -0.284324 0)
(0.141703 -0.307839 0)
(0.198047 -0.348227 0)
(0.246267 -0.385617 0)
(0.288186 -0.412919 0)
(0.339255 -0.391225 0)
(0.406716 -0.410866 0)
(0.56669 -0.386487 0)
(0.694478 -0.427043 0)
(0.00768051 -0.381936 0)
(0.0229375 -0.383834 0)
(0.0378594 -0.387028 0)
(0.0521908 -0.392377 0)
(0.066669 -0.399059 0)
(0.0807907 -0.407552 0)
(0.0954187 -0.415746 0)
(0.111877 -0.419026 0)
(0.132827 -0.412156 0)
(0.146018 -0.389665 0)
(0.166697 -0.409142 0)
(0.153862 -0.44914 0)
(0.0990546 -0.430596 0)
(-0.0104406 -0.269062 0)
(0.059016 -0.245223 0)
(0.112741 -0.272038 0)
(0.162472 -0.282555 0)
(0.210071 -0.295489 0)
(0.273398 -0.298075 0)
(0.37807 -0.226785 0)
(0.45287 -0.267544 0)
(0.50584 -0.373181 0)
(0.48295 -0.663178 0)
(0.00790026 -0.208143 0)
(0.0239203 -0.210071 0)
(0.0403591 -0.213836 0)
(0.0577367 -0.221419 0)
(0.0778802 -0.233846 0)
(0.102723 -0.252004 0)
(0.129555 -0.274777 0)
(0.148348 -0.301146 0)
(0.146858 -0.329452 0)
(0.111644 -0.365454 0)
(0.0809979 -0.408299 0)
(-0.0513864 -0.432562 0)
(-0.162303 -0.19546 0)
(-0.122556 -0.107123 0)
(0.0149559 -0.146709 0)
(0.0821259 -0.124873 0)
(0.175477 -0.123034 0)
(0.260871 -0.143222 0)
(0.300913 -0.171308 0)
(0.288678 -0.246024 0)
(0.2932 -0.398102 0)
(0.323013 -0.569566 0)
(0.290056 -0.336417 0)
(0.00529057 -0.245288 0)
(0.0151377 -0.248954 0)
(0.0237575 -0.255356 0)
(0.0305164 -0.265307 0)
(0.0360322 -0.279667 0)
(0.0444052 -0.300331 0)
(0.0610073 -0.333212 0)
(0.0873443 -0.384481 0)
(0.109346 -0.458144 0)
(0.095032 -0.529278 0)
(0.0125339 -0.544186 0)
(-0.205017 -0.436013 0)
(-0.181585 -0.322003 0)
(-0.0672121 -0.206335 0)
(0.0307032 -0.200547 0)
(0.0780402 -0.18725 0)
(0.115654 -0.209823 0)
(0.17063 -0.269833 0)
(0.196939 -0.390801 0)
(0.174764 -0.451585 0)
(0.0671032 -0.183344 0)
(-0.152189 0.154273 0)
(-0.609242 -0.530838 0)
(0.0037275 -0.450724 0)
(0.0099142 -0.449546 0)
(0.0167983 -0.444596 0)
(0.0238085 -0.431265 0)
(0.0330401 -0.400319 0)
(0.0452252 -0.338321 0)
(0.0556153 -0.226862 0)
(0.0534143 -0.0552484 0)
(-0.0135511 0.132647 0)
(-0.0752245 0.25617 0)
(-0.283655 0.334125 0)
(-0.370562 -0.108449 0)
(-0.160991 -0.529907 0)
(-0.024754 -0.476785 0)
(0.021738 -0.446955 0)
(0.0447884 -0.411301 0)
(0.0511636 -0.348641 0)
(0.00672083 -0.134748 0)
(-0.114375 0.226104 0)
(-0.27256 0.242054 0)
(-0.410791 -0.301781 0)
(-0.355688 -0.585165 0)
(-0.535585 -0.151527 0)
(-0.0186628 0.0736602 0)
(-0.058223 0.0691485 0)
(-0.0983458 0.0510357 0)
(-0.140852 0.0127109 0)
(-0.186233 -0.0495124 0)
(-0.232086 -0.163928 0)
(-0.279362 -0.327418 0)
(-0.318056 -0.547407 0)
(-0.310866 -0.75625 0)
(-0.234551 -0.841131 0)
(-0.0466057 -0.871031 0)
(0.177109 -0.80588 0)
(0.109711 -0.345126 0)
(-0.0599524 -0.0555005 0)
(-0.214226 0.0463482 0)
(-0.354783 0.0825572 0)
(-0.456339 0.00615385 0)
(-0.50041 -0.283769 0)
(-0.398329 -0.66871 0)
(-0.223895 -0.773989 0)
(-0.144391 -0.630301 0)
(-0.374871 -0.215619 0)
(-0.710673 0.0860705 0)
(-0.0128667 -0.787444 0)
(-0.0361547 -0.793277 0)
(-0.0519138 -0.797024 0)
(-0.0638897 -0.797868 0)
(-0.0699953 -0.796034 0)
(-0.0764453 -0.788006 0)
(-0.0819533 -0.768076 0)
(-0.0840751 -0.730365 0)
(-0.100455 -0.67869 0)
(-0.133912 -0.633251 0)
(-0.166299 -0.637358 0)
(-0.251374 -0.744785 0)
(-0.366386 -0.713972 0)
(-0.419523 -0.602251 0)
(-0.400751 -0.607311 0)
(-0.35388 -0.663401 0)
(-0.274583 -0.692554 0)
(-0.202354 -0.673532 0)
(-0.186533 -0.57517 0)
(-0.256272 -0.380743 0)
(-0.473391 -0.0786299 0)
(-0.712117 0.109459 0)
(-0.737929 0.145577 0)
(-0.00186579 -0.33098 0)
(-0.00614521 -0.336299 0)
(-0.0107211 -0.339376 0)
(-0.0221374 -0.347026 0)
(-0.0387844 -0.35991 0)
(-0.0629163 -0.380285 0)
(-0.0923353 -0.403993 0)
(-0.126012 -0.432611 0)
(-0.163851 -0.465827 0)
(-0.207927 -0.490844 0)
(-0.264871 -0.509005 0)
(-0.334402 -0.522084 0)
(-0.379857 -0.439202 0)
(-0.387357 -0.356564 0)
(-0.356402 -0.326194 0)
(-0.361964 -0.321998 0)
(-0.389472 -0.341002 0)
(-0.436213 -0.37379 0)
(-0.525624 -0.37189 0)
(-0.652867 -0.254221 0)
(-0.738784 -0.0552247 0)
(-0.745477 0.051169 0)
(-0.694421 0.115307 0)
(-0.00772143 -0.438804 0)
(-0.023242 -0.45018 0)
(-0.0376796 -0.458433 0)
(-0.0534653 -0.468399 0)
(-0.0705725 -0.479665 0)
(-0.0905405 -0.490372 0)
(-0.114451 -0.498656 0)
(-0.142668 -0.50387 0)
(-0.175723 -0.50583 0)
(-0.21223 -0.501646 0)
(-0.253765 -0.496684 0)
(-0.304704 -0.490032 0)
(-0.35145 -0.444404 0)
(-0.378652 -0.402544 0)
(-0.402341 -0.389278 0)
(-0.43263 -0.394195 0)
(-0.473024 -0.409649 0)
(-0.530861 -0.415611 0)
(-0.619778 -0.370051 0)
(-0.707305 -0.224804 0)
(-0.72199 -0.0385519 0)
(-0.684904 0.0351709 0)
(-0.626581 0.061533 0)
(-0.00647286 -0.473157 0)
(-0.0196615 -0.480189 0)
(-0.0336966 -0.48023 0)
(-0.0492726 -0.480986 0)
(-0.0669347 -0.482234 0)
(-0.0874419 -0.483934 0)
(-0.111478 -0.485344 0)
(-0.139345 -0.485878 0)
(-0.171141 -0.484535 0)
(-0.206596 -0.481298 0)
(-0.248003 -0.478109 0)
(-0.296973 -0.469861 0)
(-0.340551 -0.44689 0)
(-0.366936 -0.423384 0)
(-0.388672 -0.40047 0)
(-0.414555 -0.380246 0)
(-0.451996 -0.357235 0)
(-0.504215 -0.322138 0)
(-0.582673 -0.270208 0)
(-0.644226 -0.191379 0)
(-0.633671 -0.0771154 0)
(-0.60282 -0.00198767 0)
(-0.569566 0.0280841 0)
(-0.00720123 -0.409808 0)
(-0.0222654 -0.418022 0)
(-0.0379112 -0.419882 0)
(-0.0547668 -0.422537 0)
(-0.0733301 -0.425453 0)
(-0.0941191 -0.428179 0)
(-0.117444 -0.429955 0)
(-0.14344 -0.430198 0)
(-0.171887 -0.428423 0)
(-0.202872 -0.424666 0)
(-0.237177 -0.419764 0)
(-0.272885 -0.411257 0)
(-0.305778 -0.392564 0)
(-0.334515 -0.365586 0)
(-0.361424 -0.34004 0)
(-0.389809 -0.316348 0)
(-0.419812 -0.291538 0)
(-0.454763 -0.260992 0)
(-0.501412 -0.216697 0)
(-0.541274 -0.14711 0)
(-0.554879 -0.0750047 0)
(-0.537224 -0.0299805 0)
(-0.506141 0.0105418 0)
(-0.00770274 -0.405095 0)
(-0.0237971 -0.412452 0)
(-0.0402988 -0.412946 0)
(-0.057718 -0.413877 0)
(-0.0763184 -0.414656 0)
(-0.0963051 -0.414923 0)
(-0.117826 -0.414224 0)
(-0.140816 -0.412078 0)
(-0.165317 -0.408232 0)
(-0.191549 -0.402252 0)
(-0.219229 -0.392788 0)
(-0.247878 -0.378346 0)
(-0.277932 -0.359236 0)
(-0.307108 -0.337669 0)
(-0.336134 -0.316384 0)
(-0.366434 -0.293889 0)
(-0.399653 -0.268064 0)
(-0.432024 -0.237702 0)
(-0.455644 -0.206698 0)
(-0.466769 -0.163742 0)
(-0.475665 -0.0974624 0)
(-0.476497 -0.0299209 0)
(-0.470507 0.0104695 0)
(-0.00775341 -0.38711 0)
(-0.0239425 -0.393608 0)
(-0.0404889 -0.393206 0)
(-0.0577253 -0.392691 0)
(-0.0758745 -0.391805 0)
(-0.0951653 -0.390314 0)
(-0.115721 -0.387939 0)
(-0.13761 -0.384338 0)
(-0.160875 -0.379039 0)
(-0.185497 -0.371548 0)
(-0.211228 -0.361391 0)
(-0.237467 -0.348201 0)
(-0.263129 -0.332614 0)
(-0.288595 -0.314797 0)
(-0.311774 -0.292445 0)
(-0.333509 -0.267139 0)
(-0.353408 -0.238744 0)
(-0.37671 -0.206964 0)
(-0.404305 -0.163884 0)
(-0.430727 -0.113403 0)
(-0.438497 -0.0715126 0)
(-0.434237 -0.0415847 0)
(-0.428415 0.00118412 0)
(-0.00767585 -0.374371 0)
(-0.0234782 -0.380676 0)
(-0.0396166 -0.380063 0)
(-0.0563061 -0.379271 0)
(-0.0737498 -0.377924 0)
(-0.0921351 -0.375807 0)
(-0.111602 -0.372622 0)
(-0.13225 -0.368063 0)
(-0.154096 -0.361821 0)
(-0.176881 -0.353481 0)
(-0.200034 -0.342567 0)
(-0.222995 -0.328733 0)
(-0.245679 -0.311529 0)
(-0.267953 -0.291383 0)
(-0.290825 -0.270321 0)
(-0.313431 -0.246948 0)
(-0.335845 -0.221159 0)
(-0.356213 -0.192622 0)
(-0.371768 -0.162072 0)
(-0.380138 -0.126451 0)
(-0.38544 -0.0831864 0)
(-0.391144 -0.0380792 0)
(-0.392175 -0.000377941 0)
(-0.00747273 -0.355901 0)
(-0.0230106 -0.361571 0)
(-0.0387513 -0.36041 0)
(-0.054949 -0.358774 0)
(-0.0717071 -0.356386 0)
(-0.0891268 -0.353084 0)
(-0.107266 -0.348673 0)
(-0.126128 -0.342925 0)
(-0.145661 -0.335591 0)
(-0.165766 -0.326413 0)
(-0.186304 -0.315193 0)
(-0.207094 -0.301927 0)
(-0.227795 -0.286735 0)
(-0.248001 -0.269247 0)
(-0.267216 -0.248672 0)
(-0.285514 -0.225521 0)
(-0.302639 -0.199687 0)
(-0.318815 -0.171019 0)
(-0.333713 -0.138619 0)
(-0.346045 -0.104213 0)
(-0.353205 -0.0709357 0)
(-0.355831 -0.0386519 0)
(-0.355835 -0.00389728 0)
(-0.00724262 -0.342969 0)
(-0.0221615 -0.348389 0)
(-0.0372597 -0.347028 0)
(-0.0526993 -0.345094 0)
(-0.0685705 -0.342338 0)
(-0.0849573 -0.338616 0)
(-0.101906 -0.333749 0)
(-0.119418 -0.327541 0)
(-0.137431 -0.319767 0)
(-0.15579 -0.3102 0)
(-0.174294 -0.298668 0)
(-0.192748 -0.285027 0)
(-0.211016 -0.26919 0)
(-0.228984 -0.251307 0)
(-0.246442 -0.231593 0)
(-0.263058 -0.209814 0)
(-0.278577 -0.185965 0)
(-0.292493 -0.159906 0)
(-0.304114 -0.131666 0)
(-0.312746 -0.101184 0)
(-0.318377 -0.0690174 0)
(-0.321868 -0.0367865 0)
(-0.323222 -0.00520173 0)
(-0.00688914 -0.32755 0)
(-0.0211133 -0.332573 0)
(-0.0354542 -0.330946 0)
(-0.0500576 -0.328611 0)
(-0.064979 -0.325352 0)
(-0.0802717 -0.321062 0)
(-0.0959569 -0.315614 0)
(-0.112019 -0.308861 0)
(-0.1284 -0.300658 0)
(-0.144998 -0.290873 0)
(-0.161686 -0.279399 0)
(-0.178306 -0.26617 0)
(-0.194664 -0.251126 0)
(-0.210555 -0.234159 0)
(-0.225795 -0.215183 0)
(-0.240186 -0.194261 0)
(-0.253475 -0.171404 0)
(-0.265374 -0.14667 0)
(-0.275523 -0.120196 0)
(-0.283425 -0.0924385 0)
(-0.288574 -0.0639879 0)
(-0.29149 -0.03526 0)
(-0.292856 -0.00625289 0)
(-0.0065156 -0.314395 0)
(-0.019931 -0.31916 0)
(-0.0334278 -0.317386 0)
(-0.0471198 -0.314827 0)
(-0.0610414 -0.311297 0)
(-0.0752252 -0.30671 0)
(-0.0896784 -0.30096 0)
(-0.104378 -0.293933 0)
(-0.119266 -0.285511 0)
(-0.134257 -0.275589 0)
(-0.149238 -0.264082 0)
(-0.164081 -0.250923 0)
(-0.178646 -0.236073 0)
(-0.192769 -0.219535 0)
(-0.206258 -0.201317 0)
(-0.218908 -0.181422 0)
(-0.230491 -0.159892 0)
(-0.240746 -0.136799 0)
(-0.249409 -0.112289 0)
(-0.256177 -0.0865971 0)
(-0.260755 -0.0601401 0)
(-0.263467 -0.0334632 0)
(-0.264913 -0.0067211 0)
(-0.00608902 -0.301406 0)
(-0.0186206 -0.305908 0)
(-0.031203 -0.304012 0)
(-0.043927 -0.301264 0)
(-0.0568115 -0.297506 0)
(-0.0698753 -0.292674 0)
(-0.0831154 -0.28669 0)
(-0.0965058 -0.27947 0)
(-0.109996 -0.270932 0)
(-0.12351 -0.261003 0)
(-0.136956 -0.249622 0)
(-0.150218 -0.236743 0)
(-0.163164 -0.222335 0)
(-0.17565 -0.206383 0)
(-0.187518 -0.188894 0)
(-0.198593 -0.169909 0)
(-0.208686 -0.149492 0)
(-0.217593 -0.127751 0)
(-0.225121 -0.104846 0)
(-0.231053 -0.0810008 0)
(-0.235143 -0.056518 0)
(-0.237581 -0.0317742 0)
(-0.238969 -0.00692548 0)
(-0.00563988 -0.289544 0)
(-0.0172339 -0.293834 0)
(-0.0288559 -0.291861 0)
(-0.0405784 -0.288989 0)
(-0.0524083 -0.285087 0)
(-0.0643534 -0.280106 0)
(-0.0764046 -0.273986 0)
(-0.0885346 -0.266666 0)
(-0.100697 -0.258086 0)
(-0.112827 -0.248193 0)
(-0.124843 -0.236944 0)
(-0.136646 -0.224309 0)
(-0.148125 -0.210275 0)
(-0.159154 -0.194845 0)
(-0.169593 -0.178045 0)
(-0.179296 -0.159918 0)
(-0.188103 -0.14054 0)
(-0.195855 -0.120019 0)
(-0.202406 -0.0985021 0)
(-0.207606 -0.0761768 0)
(-0.211262 -0.0532867 0)
(-0.21347 -0.0301434 0)
(-0.214774 -0.00691208 0)
(-0.00516944 -0.278537 0)
(-0.0157879 -0.282637 0)
(-0.0264179 -0.280613 0)
(-0.0371167 -0.277656 0)
(-0.0478835 -0.273658 0)
(-0.0587185 -0.268583 0)
(-0.0696087 -0.262389 0)
(-0.080527 -0.255031 0)
(-0.0914309 -0.246468 0)
(-0.102263 -0.236664 0)
(-0.112953 -0.225591 0)
(-0.123415 -0.213233 0)
(-0.133552 -0.199588 0)
(-0.143257 -0.184669 0)
(-0.152413 -0.168509 0)
(-0.160896 -0.151162 0)
(-0.168578 -0.132707 0)
(-0.175333 -0.11325 0)
(-0.181046 -0.0929309 0)
(-0.185609 -0.0719108 0)
(-0.188874 -0.0503875 0)
(-0.190873 -0.0286143 0)
(-0.192074 -0.00675916 0)
(-0.00468637 -0.268523 0)
(-0.0143041 -0.272462 0)
(-0.0239222 -0.270409 0)
(-0.0335858 -0.267399 0)
(-0.0432887 -0.263344 0)
(-0.053026 -0.25822 0)
(-0.0627825 -0.251996 0)
(-0.0725317 -0.244643 0)
(-0.0822352 -0.236132 0)
(-0.0918425 -0.226442 0)
(-0.101292 -0.215557 0)
(-0.11051 -0.203472 0)
(-0.119415 -0.190196 0)
(-0.127914 -0.175751 0)
(-0.135912 -0.160176 0)
(-0.143305 -0.143529 0)
(-0.14999 -0.12589 0)
(-0.155865 -0.107361 0)
(-0.160843 -0.0880689 0)
(-0.164842 -0.0681573 0)
(-0.16775 -0.0477933 0)
(-0.169559 -0.0271878 0)
(-0.170661 -0.00650462 0)
(-0.00419461 -0.259493 0)
(-0.0127955 -0.263294 0)
(-0.0213902 -0.261227 0)
(-0.030014 -0.258184 0)
(-0.0386575 -0.2541 0)
(-0.0473123 -0.248958 0)
(-0.0559621 -0.242736 0)
(-0.0645816 -0.235416 0)
(-0.0731362 -0.226982 0)
(-0.0815817 -0.217421 0)
(-0.0898648 -0.206729 0)
(-0.0979233 -0.194911 0)
(-0.105687 -0.181982 0)
(-0.113081 -0.167972 0)
(-0.120023 -0.152923 0)
(-0.126429 -0.136897 0)
(-0.132218 -0.119971 0)
(-0.137308 -0.102244 0)
(-0.141629 -0.0838296 0)
(-0.145122 -0.0648596 0)
(-0.147701 -0.0454784 0)
(-0.149339 -0.0258657 0)
(-0.150346 -0.00617864 0)
(-0.00369706 -0.251472 0)
(-0.0112714 -0.255154 0)
(-0.0188373 -0.253081 0)
(-0.0264218 -0.250022 0)
(-0.0340138 -0.245927 0)
(-0.0416024 -0.240786 0)
(-0.049171 -0.234586 0)
(-0.056696 -0.227317 0)
(-0.0641468 -0.218971 0)
(-0.071485 -0.209545 0)
(-0.078665 -0.199041 0)
(-0.0856345 -0.187473 0)
(-0.0923352 -0.174862 0)
(-0.0987039 -0.161242 0)
(-0.104674 -0.146659 0)
(-0.110179 -0.131174 0)
(-0.115152 -0.114865 0)
(-0.119529 -0.0978215 0)
(-0.123256 -0.080152 0)
(-0.126287 -0.061975 0)
(-0.128561 -0.0434203 0)
(-0.130042 -0.0246434 0)
(-0.130965 -0.00579426 0)
(-0.00319331 -0.24447 0)
(-0.00973475 -0.248051 0)
(-0.0162721 -0.245977 0)
(-0.022821 -0.242909 0)
(-0.0293715 -0.238813 0)
(-0.0359106 -0.233684 0)
(-0.0424218 -0.227518 0)
(-0.0488838 -0.220307 0)
(-0.0552697 -0.212053 0)
(-0.0615471 -0.202757 0)
(-0.0676775 -0.19243 0)
(-0.0736174 -0.181089 0)
(-0.0793187 -0.168761 0)
(-0.0847299 -0.155484 0)
(-0.0897974 -0.141306 0)
(-0.0944672 -0.126287 0)
(-0.098687 -0.1105 0)
(-0.102408 -0.0940341 0)
(-0.105588 -0.0769873 0)
(-0.108193 -0.0594701 0)
(-0.110181 -0.041601 0)
(-0.111515 -0.0235181 0)
(-0.112368 -0.00536381 0)
(-0.00267952 -0.238496 0)
(-0.00818241 -0.241987 0)
(-0.0136964 -0.239913 0)
(-0.0192148 -0.236838 0)
(-0.0247335 -0.232747 0)
(-0.0302381 -0.227638 0)
(-0.0357125 -0.221508 0)
(-0.0411383 -0.214358 0)
(-0.0464928 -0.206191 0)
(-0.0517488 -0.197016 0)
(-0.0568749 -0.186847 0)
(-0.0618354 -0.175707 0)
(-0.0665911 -0.163625 0)
(-0.0711004 -0.150641 0)
(-0.0753207 -0.136805 0)
(-0.0792096 -0.122177 0)
(-0.0827266 -0.106826 0)
(-0.0858351 -0.0908357 0)
(-0.0885043 -0.0742991 0)
(-0.0907098 -0.0573191 0)
(-0.0924249 -0.0400057 0)
(-0.0936199 -0.0224833 0)
(-0.0944146 -0.00488864 0)
(-0.00215206 -0.233539 0)
(-0.00660707 -0.23692 0)
(-0.0111087 -0.234852 0)
(-0.0155977 -0.231775 0)
(-0.0200868 -0.227694 0)
(-0.0245626 -0.222609 0)
(-0.0290109 -0.216519 0)
(-0.0334175 -0.209427 0)
(-0.0377647 -0.201339 0)
(-0.042031 -0.192269 0)
(-0.0461912 -0.182237 0)
(-0.0502167 -0.171267 0)
(-0.0540755 -0.159394 0)
(-0.057734 -0.146657 0)
(-0.0611578 -0.133106 0)
(-0.0643134 -0.118798 0)
(-0.0671703 -0.103802 0)
(-0.0697022 -0.0881936 0)
(-0.0718886 -0.072062 0)
(-0.0737143 -0.0555052 0)
(-0.0751643 -0.0386262 0)
(-0.0762221 -0.0215368 0)
(-0.0769729 -0.0043698 0)
(-0.00160904 -0.229691 0)
(-0.00500907 -0.232893 0)
(-0.00853275 -0.230845 0)
(-0.011987 -0.227775 0)
(-0.0154207 -0.223703 0)
(-0.018838 -0.218636 0)
(-0.0222331 -0.212571 0)
(-0.0255979 -0.205513 0)
(-0.0289256 -0.197474 0)
(-0.0322053 -0.188474 0)
(-0.0354148 -0.178533 0)
(-0.0385353 -0.167684 0)
(-0.0415426 -0.155963 0)
(-0.0444085 -0.143414 0)
(-0.0471032 -0.130087 0)
(-0.049596 -0.116039 0)
(-0.0518584 -0.101332 0)
(-0.0538676 -0.0860368 0)
(-0.0556104 -0.0702304 0)
(-0.0570802 -0.0540063 0)
(-0.0582734 -0.0374596 0)
(-0.0591916 -0.0206773 0)
(-0.0599051 -0.00378102 0)
(-0.00107128 -0.227133 0)
(-0.00349222 -0.230064 0)