/*--------------------------------*- C++ -*----------------------------------*\
| =========                 |                                                 |
| \\      /  F ield         | OpenFOAM: The Open Source CFD Toolbox           |
|  \\    /   O peration     | Version:  2.4.0                                 |
|   \\  /    A nd           | Web:      www.OpenFOAM.org                      |
|    \\/     M anipulation  |                                                 |
\*---------------------------------------------------------------------------*/
FoamFile
{
    version     2.0;
    format      ascii;
    class       volVectorField;
    location    "0.15";
    object      U.mercury;
}
// * * * * * * * * * * * * * * * * * * * * * * * * * * * * * * * * * * * * * //

dimensions      [0 1 -1 0 0 0 0];

internalField   nonuniform List<vector> 
2268
(
(0.0152584 -0.00721457 0)
(0.046035 -0.00733797 0)
(0.0776682 -0.00758539 0)
(0.110357 -0.00796793 0)
(0.14607 -0.00846453 0)
(0.180722 -0.00919066 0)
(0.227845 -0.0101109 0)
(0.261983 -0.0111895 0)
(0.326552 -0.0117839 0)
(0.367342 -0.0179199 0)
(0.450042 -0.0143329 0)
(0.527084 -0.0159104 0)
(0.585143 -0.02246 0)
(0.677334 -0.0291186 0)
(0.811872 -0.0337763 0)
(0.961488 -0.0343133 0)
(1.10675 -0.0284085 0)
(1.2273 -0.0145283 0)
(1.31331 -0.00468219 0)
(1.33785 -0.00991471 0)
(1.31051 -0.00855831 0)
(1.11353 -0.0191648 0)
(1.01058 0.0485715 0)
(0.0152064 -0.0216247 0)
(0.0458825 -0.0220005 0)
(0.0774097 -0.0227425 0)
(0.109997 -0.0238888 0)
(0.145554 -0.0253551 0)
(0.180061 -0.0276713 0)
(0.227138 -0.0296501 0)
(0.260335 -0.0356794 0)
(0.325363 -0.0312307 0)
(0.368012 -0.0553321 0)
(0.447568 -0.0476808 0)
(0.518806 -0.0462275 0)
(0.582623 -0.0628009 0)
(0.693617 -0.0819971 0)
(0.837703 -0.0955811 0)
(0.978685 -0.101019 0)
(1.10115 -0.0947518 0)
(1.19673 -0.0825465 0)
(1.277 -0.0530035 0)
(1.32363 -0.000856526 0)
(1.35117 0.0734137 0)
(1.21869 0.193093 0)
(1.07647 0.656275 0)
(0.0150895 -0.0359512 0)
(0.0455319 -0.0365761 0)
(0.0768163 -0.0378104 0)
(0.109174 -0.0397076 0)
(0.144366 -0.0421297 0)
(0.178649 -0.045948 0)
(0.225253 -0.0496139 0)
(0.257298 -0.0571203 0)
(0.323446 -0.0572964 0)
(0.36572 -0.0866578 0)
(0.443262 -0.0750324 0)
(0.509215 -0.0787011 0)
(0.57859 -0.117092 0)
(0.702967 -0.151498 0)
(0.850981 -0.162111 0)
(0.982271 -0.154262 0)
(1.08788 -0.131584 0)
(1.16578 -0.0900852 0)
(1.21973 -0.0626931 0)
(1.23402 -0.0587853 0)
(1.25866 -0.0655005 0)
(1.2014 0.0364803 0)
(1.1367 0.766421 0)
(0.014915 -0.0501384 0)
(0.0450091 -0.0510125 0)
(0.0759352 -0.0527377 0)
(0.107958 -0.0553615 0)
(0.142581 -0.0587134 0)
(0.176689 -0.0640257 0)
(0.221954 -0.0689294 0)
(0.253791 -0.0796274 0)
(0.319647 -0.0806409 0)
(0.359843 -0.11709 0)
(0.435857 -0.10878 0)
(0.498589 -0.110645 0)
(0.577692 -0.165739 0)
(0.709888 -0.212809 0)
(0.853638 -0.224009 0)
(0.961699 -0.207616 0)
(1.03471 -0.182945 0)
(1.07807 -0.174896 0)
(1.09977 -0.165596 0)
(1.11429 -0.166478 0)
(1.15074 -0.192916 0)
(1.20346 -0.132851 0)
(1.21472 0.869773 0)
(0.0146821 -0.064149 0)
(0.0443117 -0.0652721 0)
(0.0747692 -0.0674886 0)
(0.10635 -0.0708046 0)
(0.140248 -0.0750594 0)
(0.174055 -0.0817012 0)
(0.21767 -0.088165 0)
(0.249348 -0.100835 0)
(0.314019 -0.105676 0)
(0.352656 -0.145964 0)
(0.422232 -0.133896 0)
(0.490432 -0.149425 0)
(0.575584 -0.227573 0)
(0.704567 -0.284658 0)
(0.82634 -0.283553 0)
(0.907197 -0.271627 0)
(0.92736 -0.282021 0)
(0.918745 -0.296374 0)
(0.880414 -0.374089 0)
(0.929091 -0.449215 0)
(1.08708 -0.37735 0)
(1.11393 -0.178765 0)
(1.37338 0.863849 0)
(0.014388 -0.0778926 0)
(0.0434313 -0.0792656 0)
(0.0733121 -0.0819789 0)
(0.104341 -0.0859579 0)
(0.137374 -0.0910963 0)
(0.170716 -0.099046 0)
(0.212459 -0.106927 0)
(0.243857 -0.12228 0)
(0.307287 -0.129967 0)
(0.340076 -0.170014 0)
(0.411269 -0.166278 0)
(0.48232 -0.18763 0)
(0.567205 -0.280344 0)
(0.678266 -0.34357 0)
(0.754892 -0.382249 0)
(0.754718 -0.43093 0)
(0.693571 -0.530858 0)
(0.717295 -0.57506 0)
(0.739007 -0.562777 0)
(0.807519 -0.119 0)
(0.695639 0.18276 0)
(0.189954 0.53552 0)
(1.51475 0.951681 0)
(0.0140211 -0.0911666 0)
(0.0423319 -0.0928099 0)
(0.0715108 -0.0960615 0)
(0.101843 -0.100706 0)
(0.133879 -0.10671 0)
(0.16657 -0.115886 0)
(0.206319 -0.124996 0)
(0.237482 -0.142547 0)
(0.298467 -0.152214 0)
(0.327395 -0.191917 0)
(0.401634 -0.191617 0)
(0.470553 -0.227806 0)
(0.554927 -0.344252 0)
(0.603771 -0.455514 0)
(0.579491 -0.567689 0)
(0.483081 -0.757366 0)
(0.506048 -0.766788 0)
(0.719115 -0.478948 0)
(0.859001 -0.00725893 0)
(0.61208 0.186491 0)
(0.45872 0.452419 0)
(0.0679349 0.690556 0)
(1.12762 1.3596 0)
(0.0135582 -0.104358 0)
(0.0409497 -0.106284 0)
(0.0692921 -0.110067 0)
(0.0987916 -0.115237 0)
(0.129794 -0.121684 0)
(0.161726 -0.131548 0)
(0.199572 -0.141234 0)
(0.230615 -0.160764 0)
(0.289307 -0.172885 0)
(0.313707 -0.215994 0)
(0.39389 -0.226083 0)
(0.449795 -0.298026 0)
(0.521059 -0.431426 0)
(0.446957 -0.630925 0)
(0.389863 -0.798931 0)
(0.382889 -0.847228 0)
(0.51332 -0.590277 0)
(0.667526 -0.0923598 0)
(0.54321 0.0947165 0)
(0.443183 0.24532 0)
(0.397774 0.525018 0)
(0.175592 0.832296 0)
(0.139266 2.04888 0)
(-0.233916 0.141672 0)
(-0.878256 0.308798 0)
(-2.28894 0.529189 0)
(-3.91205 0.0421565 0)
(-1.41487 -0.715365 0)
(0.175743 -0.896657 0)
(0.372328 -0.891905 0)
(0.789279 -0.861767 0)
(1.40415 -0.84953 0)
(1.90531 -0.822846 0)
(2.70871 -0.804589 0)
(2.75444 -0.891909 0)
(2.93016 -1.13456 0)
(3.56989 -1.41279 0)
(3.7127 -1.09121 0)
(2.10476 -0.0335367 0)
(0.997373 0.184845 0)
(0.507192 0.0921149 0)
(0.154378 0.068713 0)
(-0.218425 0.350031 0)
(-0.686356 0.558315 0)
(-1.38639 0.714603 0)
(-1.03079 0.046043 0)
(0.637809 -0.790121 0)
(0.873263 -0.872454 0)
(0.919075 -0.833532 0)
(1.06926 -0.757703 0)
(1.36669 -0.71288 0)
(1.6831 -0.651103 0)
(1.95129 -0.712269 0)
(2.03037 -0.814589 0)
(2.38477 -0.516553 0)
(3.18106 0.0256235 0)
(2.863 0.260521 0)
(1.62714 0.541729 0)
(0.924523 0.417804 0)
(0.489317 0.268963 0)
(0.151424 0.206559 0)
(-0.11667 0.559813 0)
(-0.397209 0.739594 0)
(-0.392162 0.833181 0)
(0.621207 -0.309256 0)
(0.989498 -0.845481 0)
(1.04373 -0.87259 0)
(1.08079 -0.853259 0)
(1.22394 -0.77172 0)
(1.46921 -0.686375 0)
(1.66701 -0.724199 0)
(1.76837 -0.895049 0)
(2.01566 -0.760218 0)
(2.53534 -0.409061 0)
(2.55437 -0.0991717 0)
(1.8331 0.717857 0)
(1.06234 0.955504 0)
(0.733478 0.649071 0)
(0.42144 0.422034 0)
(0.135675 0.334014 0)
(-0.0724251 0.606145 0)
(-0.119539 0.755019 0)
(0.0297426 0.369608 0)
(0.990615 -0.605507 0)
(1.12523 -0.790077 0)
(1.23286 -0.87727 0)
(1.30499 -0.894086 0)
(1.44568 -0.840333 0)
(1.58812 -0.799262 0)
(1.70347 -0.947897 0)
(1.86373 -1.04068 0)
(2.23694 -0.692695 0)
(2.38109 0.019192 0)
(1.87642 0.563059 0)
(1.05394 1.0771 0)
(0.733417 1.09504 0)
(0.576736 0.761638 0)
(0.353706 0.539052 0)
(0.117092 0.445775 0)
(-0.0294415 0.688145 0)
(-0.0651712 0.616129 0)
(0.882312 0.0198842 0)
(1.07131 -0.644343 0)
(1.293 -0.760943 0)
(1.43024 -0.918314 0)
(1.47864 -0.937566 0)
(1.55554 -0.891593 0)
(1.61473 -0.91159 0)
(1.7159 -1.04907 0)
(1.88985 -1.06355 0)
(2.00197 -0.443261 0)
(1.79207 0.20106 0)
(1.12593 0.777205 0)
(0.606477 1.20631 0)
(0.527118 1.14834 0)
(0.451234 0.831086 0)
(0.29078 0.628887 0)
(0.0982512 0.539012 0)
(-0.0458436 0.626146 0)
(0.0878747 0.412848 0)
(0.980006 -0.38863 0)
(1.21671 -0.578819 0)
(1.46137 -0.783628 0)
(1.5484 -0.944521 0)
(1.56247 -0.945954 0)
(1.59196 -0.928891 0)
(1.61857 -0.979196 0)
(1.711 -1.07482 0)
(1.7922 -1.03402 0)
(1.46487 -0.203256 0)
(1.06759 0.426917 0)
(0.553681 0.981545 0)
(0.330324 1.28032 0)
(0.364537 1.15176 0)
(0.349609 0.876643 0)
(0.23448 0.701437 0)
(0.0806638 0.618717 0)
(-0.0550285 0.805926 0)
(1.02969 -0.0826666 0)
(1.09018 -0.355205 0)
(1.38279 -0.574089 0)
(1.59169 -0.827798 0)
(1.62136 -0.93938 0)
(1.61297 -0.939838 0)
(1.60638 -0.944619 0)
(1.62795 -1.00388 0)
(1.71607 -1.07057 0)
(1.61739 -0.886522 0)
(0.908167 0.00249851 0)
(0.525325 0.631166 0)
(0.181244 1.11261 0)
(0.146815 1.26999 0)
(0.251367 1.11721 0)
(0.268621 0.895088 0)
(0.185931 0.749325 0)
(0.0649979 0.677082 0)
(1.0698 -0.0431831 0)
(1.08191 -0.206493 0)
(1.22706 -0.357419 0)
(1.56521 -0.678828 0)
(1.687 -0.867985 0)
(1.67568 -0.928904 0)
(1.63823 -0.931762 0)
(1.61865 -0.954776 0)
(1.64909 -1.00661 0)
(1.73829 -1.05287 0)
(1.29248 -0.63225 0)
(0.41297 0.270566 0)
(0.0824752 0.782578 0)
(-0.0681895 1.14978 0)
(0.0384886 1.22242 0)
(0.176179 1.08653 0)
(0.202431 0.914932 0)
(0.145116 0.795355 0)
(0.0514526 0.732574 0)
(0.0127536 -0.124712 0)
(0.038578 -0.126888 0)
(0.0656431 -0.131163 0)
(0.0939621 -0.136686 0)
(0.123642 -0.143742 0)
(0.154025 -0.155829 0)
(0.18897 -0.16776 0)
(0.220089 -0.19453 0)
(0.271256 -0.220426 0)
(0.295408 -0.282444 0)
(0.364392 -0.350781 0)
(0.406458 -0.444652 0)
(0.375823 -0.633065 0)
(0.285251 -0.819998 0)
(0.295675 -0.885618 0)
(0.296696 -0.765551 0)
(0.511607 -0.207881 0)
(0.472903 -0.0160418 0)
(0.407509 0.126775 0)
(0.450862 0.248714 0)
(0.416661 0.537476 0)
(0.689401 0.729602 0)
(1.02957 1.86116 0)
(0.0120222 -0.139805 0)
(0.0363712 -0.144106 0)
(0.0623518 -0.1528 0)
(0.0888724 -0.164715 0)
(0.116819 -0.181732 0)
(0.143901 -0.211985 0)
(0.1742 -0.243872 0)
(0.202692 -0.295775 0)
(0.22192 -0.349905 0)
(0.251949 -0.43945 0)
(0.248564 -0.557846 0)
(0.212426 -0.70874 0)
(0.23171 -0.852829 0)
(0.251866 -0.957925 0)
(0.462892 -0.683942 0)
(0.583212 -0.323156 0)
(0.493081 -0.0971175 0)
(0.480468 -0.000369265 0)
(0.442926 0.148271 0)
(0.522443 0.195524 0)
(0.567914 0.422542 0)
(0.760552 0.437518 0)
(1.19854 0.87369 0)
(0.0104483 -0.277414 0)
(0.031145 -0.284876 0)
(0.0528271 -0.299787 0)
(0.072037 -0.319057 0)
(0.0940781 -0.340646 0)
(0.108426 -0.381509 0)
(0.125688 -0.424032 0)
(0.142722 -0.495121 0)
(0.153856 -0.586611 0)
(0.180392 -0.698332 0)
(0.217592 -0.761215 0)
(0.269112 -0.882657 0)
(0.361731 -0.918973 0)
(0.543546 -0.737216 0)
(0.596583 -0.542642 0)
(0.586923 -0.267149 0)
(0.531311 -0.0578462 0)
(0.522009 0.0115312 0)
(0.530714 0.10963 0)
(0.599034 0.1179 0)
(0.694741 0.261207 0)
(0.838434 0.222559 0)
(1.09776 0.417966 0)
(0.010104 -0.405575 0)
(0.0288094 -0.415418 0)
(0.0483502 -0.430493 0)
(0.0685701 -0.452417 0)
(0.0969169 -0.470661 0)
(0.124588 -0.515378 0)
(0.156468 -0.562791 0)
(0.194809 -0.628725 0)
(0.231982 -0.712745 0)
(0.302134 -0.766666 0)
(0.460231 -0.658473 0)
(0.532499 -0.653477 0)
(0.562992 -0.632748 0)
(0.585327 -0.597794 0)
(0.600602 -0.493376 0)
(0.568388 -0.242596 0)
(0.535156 -0.0482459 0)
(0.543742 0.0048072 0)
(0.576091 0.0647319 0)
(0.629674 0.0543102 0)
(0.737246 0.119979 0)
(0.858212 0.0888573 0)
(1.05586 0.183095 0)
(0.0315162 -0.29418 0)
(0.0767762 -0.30056 0)
(0.126796 -0.31186 0)
(0.169181 -0.339098 0)
(0.221894 -0.352979 0)
(0.271833 -0.376366 0)
(0.32302 -0.39811 0)
(0.370429 -0.423693 0)
(0.408714 -0.442996 0)
(0.451227 -0.477874 0)
(0.471305 -0.50317 0)
(0.490517 -0.567869 0)
(0.525619 -0.594508 0)
(0.54765 -0.575584 0)
(0.553955 -0.46178 0)
(0.509316 -0.212768 0)
(0.503794 -0.0499951 0)
(0.524685 -0.0204593 0)
(0.57218 0.00969754 0)
(0.635624 -0.0108604 0)
(0.752573 -0.0101883 0)
(0.842737 -0.022024 0)
(1.00704 -0.0280679 0)
(0.0201611 -0.280974 0)
(0.0615812 -0.282942 0)
(0.104025 -0.290951 0)
(0.147902 -0.302281 0)
(0.189824 -0.317295 0)
(0.233004 -0.339614 0)
(0.271106 -0.367585 0)
(0.30857 -0.401811 0)
(0.336795 -0.440735 0)
(0.373396 -0.489192 0)
(0.39992 -0.516461 0)
(0.431562 -0.586347 0)
(0.471572 -0.61205 0)
(0.494761 -0.583529 0)
(0.492972 -0.432781 0)
(0.444938 -0.19645 0)
(0.456589 -0.0705313 0)
(0.492041 -0.059416 0)
(0.551952 -0.0543726 0)
(0.626458 -0.0936742 0)
(0.728205 -0.117203 0)
(0.811404 -0.139534 0)
(0.955455 -0.188556 0)
(0.0196645 -0.328193 0)
(0.0591107 -0.334333 0)
(0.0972411 -0.343186 0)
(0.136033 -0.357097 0)
(0.171965 -0.374163 0)
(0.207773 -0.396142 0)
(0.241953 -0.422309 0)
(0.27809 -0.452294 0)
(0.309173 -0.485645 0)
(0.346841 -0.525014 0)
(0.373686 -0.551714 0)
(0.409093 -0.623393 0)
(0.446743 -0.637355 0)
(0.46422 -0.591635 0)
(0.439319 -0.410041 0)
(0.390363 -0.193881 0)
(0.411023 -0.102771 0)
(0.456235 -0.108504 0)
(0.519778 -0.125167 0)
(0.598927 -0.175591 0)
(0.687249 -0.209699 0)
(0.766861 -0.248449 0)
(0.896164 -0.307117 0)
(0.0171221 -0.366874 0)
(0.051099 -0.371024 0)
(0.085153 -0.379559 0)
(0.118103 -0.391526 0)
(0.151928 -0.409976 0)
(0.184445 -0.43052 0)
(0.216887 -0.456829 0)
(0.248323 -0.485926 0)
(0.276228 -0.517844 0)
(0.311682 -0.558483 0)
(0.326585 -0.588112 0)
(0.361133 -0.652636 0)
(0.397092 -0.652235 0)
(0.407881 -0.576822 0)
(0.360269 -0.362325 0)
(0.330806 -0.187323 0)
(0.360221 -0.138799 0)
(0.417473 -0.163664 0)
(0.481514 -0.196364 0)
(0.5589 -0.254164 0)
(0.636906 -0.294698 0)
(0.715088 -0.344178 0)
(0.825481 -0.406608 0)
(0.0151062 -0.396821 0)
(0.0453521 -0.401542 0)
(0.075165 -0.409378 0)
(0.104962 -0.421523 0)
(0.133389 -0.4365 0)
(0.161442 -0.456742 0)
(0.188011 -0.479792 0)
(0.214761 -0.507626 0)
(0.238406 -0.540366 0)
(0.267436 -0.575469 0)
(0.28635 -0.60585 0)
(0.324026 -0.677224 0)
(0.355018 -0.66662 0)
(0.349755 -0.556845 0)
(0.284484 -0.329957 0)
(0.280769 -0.200484 0)
(0.31254 -0.185873 0)
(0.378712 -0.225428 0)
(0.438087 -0.265974 0)
(0.511488 -0.326677 0)
(0.578866 -0.372155 0)
(0.65492 -0.431679 0)
(0.752522 -0.506785 0)
(0.0131491 -0.426294 0)
(0.0393428 -0.430564 0)
(0.0653015 -0.438095 0)
(0.0905207 -0.449355 0)
(0.115407 -0.465438 0)
(0.139488 -0.484848 0)
(0.16305 -0.509087 0)
(0.186048 -0.536768 0)
(0.207414 -0.56833 0)
(0.233106 -0.606134 0)
(0.246075 -0.642092 0)
(0.282347 -0.704824 0)
(0.307461 -0.672658 0)
(0.275766 -0.513694 0)
(0.211597 -0.299088 0)
(0.229796 -0.224223 0)
(0.271486 -0.237116 0)
(0.336763 -0.28547 0)
(0.390295 -0.32977 0)
(0.456913 -0.39112 0)
(0.514243 -0.442775 0)
(0.586949 -0.51265 0)
(0.673679 -0.603593 0)
(0.0111557 -0.449603 0)
(0.0334122 -0.4539 0)
(0.0554428 -0.461158 0)
(0.0772348 -0.47216 0)
(0.0981691 -0.486783 0)
(0.118342 -0.505599 0)
(0.137547 -0.527845 0)
(0.155766 -0.554435 0)
(0.172842 -0.585936 0)
(0.191588 -0.620963 0)
(0.203435 -0.660314 0)
(0.234689 -0.724473 0)
(0.252758 -0.66261 0)
(0.18647 -0.463752 0)
(0.150831 -0.28435 0)
(0.180301 -0.260584 0)
(0.235626 -0.294832 0)
(0.291339 -0.340661 0)
(0.339627 -0.387137 0)
(0.397532 -0.447353 0)
(0.444207 -0.50346 0)
(0.508339 -0.583231 0)
(0.585016 -0.680191 0)
(0.00908283 -0.472005 0)
(0.0271643 -0.476182 0)
(0.0452569 -0.48303 0)
(0.0635625 -0.492916 0)
(0.0812065 -0.506877 0)
(0.0977029 -0.52437 0)
(0.113103 -0.54567 0)
(0.127084 -0.57057 0)
(0.139866 -0.599881 0)
(0.150845 -0.634491 0)
(0.160967 -0.678789 0)
(0.180448 -0.738347 0)
(0.185442 -0.638065 0)
(0.0865229 -0.406659 0)
(0.102792 -0.296888 0)
(0.141736 -0.308525 0)
(0.198025 -0.349147 0)
(0.246202 -0.38958 0)
(0.288056 -0.43498 0)
(0.337836 -0.488798 0)
(0.370986 -0.548615 0)
(0.43041 -0.633645 0)
(0.466561 -0.774577 0)
(0.00767473 -0.483903 0)
(0.0229132 -0.487714 0)
(0.0377976 -0.494238 0)
(0.0520307 -0.504049 0)
(0.0662223 -0.516154 0)
(0.0794616 -0.531614 0)
(0.091512 -0.550492 0)
(0.101699 -0.573172 0)
(0.109993 -0.600456 0)
(0.111124 -0.633967 0)
(0.116332 -0.680913 0)
(0.0996668 -0.73843 0)
(0.0826038 -0.589239 0)
(-0.00234983 -0.366702 0)
(0.0619671 -0.333944 0)
(0.113976 -0.36293 0)
(0.162101 -0.391814 0)
(0.205731 -0.425099 0)
(0.242824 -0.466281 0)
(0.283673 -0.516705 0)
(0.299281 -0.607841 0)
(0.32733 -0.739247 0)
(0.250527 -0.98149 0)
(0.00677275 -0.495372 0)
(0.0201127 -0.499239 0)
(0.0327278 -0.506018 0)
(0.044032 -0.516854 0)
(0.0544457 -0.531996 0)
(0.0643228 -0.551871 0)
(0.0729617 -0.57756 0)
(0.0792745 -0.609282 0)
(0.0820521 -0.646928 0)
(0.0737186 -0.691068 0)
(0.0663425 -0.741847 0)
(-0.0151092 -0.78145 0)
(-0.051967 -0.539096 0)
(-0.0465533 -0.37774 0)
(0.0457677 -0.389938 0)
(0.0910169 -0.405378 0)
(0.136299 -0.429508 0)
(0.173847 -0.471355 0)
(0.202235 -0.538134 0)
(0.207797 -0.629504 0)
(0.17673 -0.771716 0)
(0.137698 -0.966208 0)
(-0.0289944 -1.24019 0)
(0.00521086 -0.591953 0)
(0.0150288 -0.597691 0)
(0.0239955 -0.607928 0)
(0.0312226 -0.623412 0)
(0.0361858 -0.644274 0)
(0.0388652 -0.670346 0)
(0.0395698 -0.70154 0)
(0.0381875 -0.738335 0)
(0.0340598 -0.784522 0)
(0.0230557 -0.837301 0)
(-0.00467084 -0.882881 0)
(-0.106987 -0.854468 0)
(-0.104005 -0.590427 0)
(-0.0358811 -0.507077 0)
(0.0395156 -0.52259 0)
(0.0785186 -0.537045 0)
(0.101511 -0.573844 0)
(0.107228 -0.635142 0)
(0.0959044 -0.735641 0)
(0.0592916 -0.868926 0)
(-0.0435926 -1.04099 0)
(-0.163025 -0.440518 0)
(-0.609266 -0.531071 0)
(0.00166434 -0.792813 0)
(0.00360486 -0.801688 0)
(0.00559664 -0.817839 0)
(0.0060418 -0.84216 0)
(0.00524691 -0.87474 0)
(0.00196561 -0.91645 0)
(-0.0040856 -0.967416 0)
(-0.0158163 -1.02754 0)
(-0.0411056 -1.01551 0)
(-0.0687116 -0.826536 0)
(-0.201287 -0.555916 0)
(-0.193463 -0.712057 0)
(-0.10696 -0.822331 0)
(-0.00636227 -0.763035 0)
(0.0183531 -0.763088 0)
(0.0289524 -0.785143 0)
(0.0166071 -0.843282 0)
(-0.0364412 -0.932874 0)
(-0.101833 -0.683676 0)
(-0.249212 -0.101616 0)
(-0.410641 -0.303498 0)
(-0.355754 -0.585119 0)
(-0.535656 -0.15147 0)
(-0.0122681 -0.389402 0)
(-0.0429317 -0.36537 0)
(-0.0761828 -0.331242 0)
(-0.115856 -0.29268 0)
(-0.164111 -0.262859 0)
(-0.216795 -0.284548 0)
(-0.272725 -0.375483 0)
(-0.31651 -0.557551 0)
(-0.31081 -0.756769 0)
(-0.234386 -0.840627 0)
(-0.0471257 -0.876316 0)
(0.151873 -0.867799 0)
(0.0757646 -0.578778 0)
(-0.0397421 -0.497024 0)
(-0.15352 -0.3762 0)
(-0.293549 -0.203515 0)
(-0.432653 -0.0929082 0)
(-0.499159 -0.288979 0)
(-0.398363 -0.668702 0)
(-0.223949 -0.773965 0)
(-0.144445 -0.630275 0)
(-0.374924 -0.215584 0)
(-0.71073 0.0861183 0)
(-0.0128665 -0.787462 0)
(-0.0361583 -0.793295 0)
(-0.0519186 -0.797043 0)
(-0.0638956 -0.797888 0)
(-0.070002 -0.796056 0)
(-0.0764521 -0.788029 0)
(-0.0819599 -0.768102 0)
(-0.084082 -0.730394 0)
(-0.100463 -0.678723 0)
(-0.133924 -0.633305 0)
(-0.166312 -0.637389 0)
(-0.251391 -0.744804 0)
(-0.366406 -0.713986 0)
(-0.419547 -0.602259 0)
(-0.400778 -0.607314 0)
(-0.35391 -0.663399 0)
(-0.274613 -0.692549 0)
(-0.202385 -0.673524 0)
(-0.186568 -0.575162 0)
(-0.256312 -0.380733 0)
(-0.473433 -0.0786062 0)
(-0.712164 0.109492 0)
(-0.737979 0.145617 0)
(-0.00186653 -0.331 0)
(-0.00614746 -0.336319 0)
(-0.0107248 -0.339395 0)
(-0.0221422 -0.347044 0)
(-0.03879 -0.359927 0)
(-0.0629222 -0.380301 0)
(-0.0923415 -0.404009 0)
(-0.126019 -0.432627 0)
(-0.163859 -0.465843 0)
(-0.207937 -0.490859 0)
(-0.264883 -0.509019 0)
(-0.334416 -0.522096 0)
(-0.379874 -0.439211 0)
(-0.387377 -0.356568 0)
(-0.356423 -0.326193 0)
(-0.361988 -0.321994 0)
(-0.389497 -0.340993 0)
(-0.43624 -0.373779 0)
(-0.525655 -0.371877 0)
(-0.652901 -0.254204 0)
(-0.738822 -0.0552031 0)
(-0.745518 0.0511966 0)
(-0.694466 0.115341 0)
(-0.00772215 -0.438818 0)
(-0.023244 -0.450194 0)
(-0.0376827 -0.458446 0)
(-0.0534693 -0.468411 0)
(-0.0705772 -0.479676 0)
(-0.090546 -0.490382 0)
(-0.114457 -0.498665 0)
(-0.142675 -0.503878 0)
(-0.175731 -0.505838 0)
(-0.212239 -0.501652 0)
(-0.253775 -0.49669 0)
(-0.304715 -0.490037 0)
(-0.351463 -0.444406 0)
(-0.378668 -0.402544 0)
(-0.402359 -0.389274 0)
(-0.43265 -0.394188 0)
(-0.473047 -0.409639 0)
(-0.530886 -0.415599 0)
(-0.619806 -0.370036 0)
(-0.707336 -0.224788 0)
(-0.722024 -0.0385324 0)
(-0.68494 0.035196 0)
(-0.626621 0.0615634 0)
(-0.00647331 -0.473168 0)
(-0.0196628 -0.480201 0)
(-0.0336988 -0.480241 0)
(-0.0492755 -0.480996 0)
(-0.0669382 -0.482243 0)
(-0.0874465 -0.483941 0)
(-0.111483 -0.485351 0)
(-0.139352 -0.485883 0)
(-0.171148 -0.48454 0)
(-0.206604 -0.481302 0)
(-0.248011 -0.478111 0)
(-0.296983 -0.469862 0)
(-0.340563 -0.44689 0)
(-0.36695 -0.423382 0)
(-0.388688 -0.400465 0)
(-0.414573 -0.380239 0)
(-0.452016 -0.357225 0)
(-0.504239 -0.322126 0)
(-0.582699 -0.270193 0)
(-0.644254 -0.191362 0)
(-0.633701 -0.0770956 0)
(-0.602852 -0.00196376 0)
(-0.569602 0.0281121 0)
(-0.00720158 -0.409816 0)
(-0.0222664 -0.418029 0)
(-0.0379128 -0.419889 0)
(-0.0547689 -0.422543 0)
(-0.0733329 -0.425459 0)
(-0.0941226 -0.428184 0)
(-0.117449 -0.429959 0)
(-0.143445 -0.430201 0)
(-0.171894 -0.428426 0)
(-0.202879 -0.424668 0)
(-0.237184 -0.419765 0)
(-0.272893 -0.411257 0)
(-0.305788 -0.392562 0)
(-0.334527 -0.365582 0)
(-0.361437 -0.340034 0)
(-0.389825 -0.316341 0)
(-0.41983 -0.291528 0)
(-0.454783 -0.26098 0)
(-0.501434 -0.216682 0)
(-0.541298 -0.147093 0)
(-0.554905 -0.0749847 0)
(-0.537253 -0.0299575 0)
(-0.506173 0.010568 0)
(-0.00770296 -0.4051 0)
(-0.0237978 -0.412457 0)
(-0.0403 -0.41295 0)
(-0.0577197 -0.413881 0)
(-0.0763206 -0.414659 0)
(-0.096308 -0.414926 0)
(-0.117829 -0.414227 0)
(-0.140821 -0.41208 0)
(-0.165322 -0.408232 0)
(-0.191555 -0.402252 0)
(-0.219236 -0.392788 0)
(-0.247885 -0.378344 0)
(-0.277941 -0.359233 0)
(-0.307118 -0.337665 0)
(-0.336146 -0.316378 0)
(-0.366447 -0.293882 0)
(-0.399669 -0.268055 0)
(-0.432042 -0.237691 0)
(-0.455665 -0.206684 0)
(-0.466792 -0.163726 0)
(-0.475689 -0.0974435 0)
(-0.476522 -0.0298992 0)
(-0.470535 0.0104941 0)
(-0.00775361 -0.387112 0)
(-0.023943 -0.39361 0)
(-0.0404898 -0.393209 0)
(-0.0577266 -0.392693 0)
(-0.0758764 -0.391807 0)
(-0.0951677 -0.390315 0)
(-0.115724 -0.38794 0)
(-0.137613 -0.384339 0)
(-0.160879 -0.379038 0)
(-0.185502 -0.371547 0)
(-0.211234 -0.361389 0)
(-0.237474 -0.348198 0)
(-0.263137 -0.33261 0)
(-0.288604 -0.314792 0)
(-0.311784 -0.292439 0)
(-0.333521 -0.267132 0)
(-0.353422 -0.238735 0)
(-0.376725 -0.206953 0)
(-0.404323 -0.163871 0)
(-0.430746 -0.113387 0)
(-0.438519 -0.0714946 0)
(-0.43426 -0.0415643 0)
(-0.428441 0.00120712 0)
(-0.00767599 -0.374371 0)
(-0.0234787 -0.380677 0)
(-0.0396173 -0.380063 0)
(-0.0563072 -0.379271 0)
(-0.0737514 -0.377924 0)
(-0.0921371 -0.375807 0)
(-0.111605 -0.372622 0)
(-0.132253 -0.368062 0)
(-0.1541 -0.36182 0)
(-0.176885 -0.353479 0)
(-0.200039 -0.342564 0)
(-0.223001 -0.32873 0)
(-0.245686 -0.311525 0)
(-0.267961 -0.291378 0)
(-0.290834 -0.270315 0)
(-0.313441 -0.246941 0)
(-0.335857 -0.221151 0)
(-0.356227 -0.192611 0)
(-0.371784 -0.162059 0)
(-0.380155 -0.126437 0)
(-0.385459 -0.0831695 0)
(-0.391165 -0.0380601 0)
(-0.392198 -0.00035641 0)
(-0.00747287 -0.3559 0)
(-0.023011 -0.36157 0)
(-0.038752 -0.360409 0)
(-0.05495 -0.358773 0)
(-0.0717085 -0.356385 0)
(-0.0891286 -0.353082 0)
(-0.107268 -0.348671 0)
(-0.126131 -0.342923 0)
(-0.145664 -0.335588 0)
(-0.16577 -0.32641 0)
(-0.186308 -0.31519 0)
(-0.207099 -0.301923 0)
(-0.227801 -0.286731 0)
(-0.248008 -0.269242 0)
(-0.267224 -0.248666 0)
(-0.285523 -0.225514 0)
(-0.30265 -0.199678 0)
(-0.318827 -0.171009 0)
(-0.333727 -0.138607 0)
(-0.34606 -0.1042 0)
(-0.353222 -0.0709199 0)
(-0.355849 -0.038634 0)
(-0.355856 -0.00387724 0)
(-0.00724273 -0.342967 0)
(-0.0221618 -0.348388 0)
(-0.0372603 -0.347026 0)
(-0.0527002 -0.345092 0)
(-0.0685717 -0.342336 0)
(-0.0849589 -0.338614 0)
(-0.101908 -0.333747 0)
(-0.119421 -0.327539 0)
(-0.137433 -0.319764 0)
(-0.155794 -0.310197 0)
(-0.174298 -0.298664 0)
(-0.192752 -0.285023 0)
(-0.211022 -0.269185 0)
(-0.22899 -0.251301 0)
(-0.246449 -0.231587 0)
(-0.263066 -0.209807 0)
(-0.278586 -0.185956 0)
(-0.292504 -0.159897 0)
(-0.304126 -0.131655 0)
(-0.312759 -0.101171 0)
(-0.318392 -0.0690027 0)
(-0.321884 -0.0367699 0)
(-0.323241 -0.00518316 0)
(-0.00688926 -0.327548 0)
(-0.0211136 -0.332571 0)
(-0.0354548 -0.330943 0)
(-0.0500584 -0.328609 0)
(-0.0649801 -0.325349 0)
(-0.0802731 -0.32106 0)
(-0.0959587 -0.315611 0)
(-0.112021 -0.308858 0)
(-0.128402 -0.300655 0)
(-0.145001 -0.290869 0)
(-0.161689 -0.279395 0)
(-0.17831 -0.266166 0)
(-0.194669 -0.251121 0)
(-0.21056 -0.234153 0)
(-0.225801 -0.215177 0)
(-0.240193 -0.194254 0)
(-0.253483 -0.171396 0)
(-0.265384 -0.146661 0)
(-0.275533 -0.120185 0)
(-0.283436 -0.0924266 0)
(-0.288587 -0.0639743 0)
(-0.291504 -0.0352447 0)
(-0.292872 -0.00623575 0)
(-0.00651569 -0.314392 0)
(-0.0199313 -0.319157 0)
(-0.0334283 -0.317384 0)
(-0.0471205 -0.314825 0)
(-0.0610424 -0.311295 0)
(-0.0752265 -0.306707 0)
(-0.08968 -0.300957 0)
(-0.10438 -0.293929 0)
(-0.119268 -0.285508 0)
(-0.134259 -0.275585 0)
(-0.149241 -0.264078 0)
(-0.164085 -0.250918 0)
(-0.178651 -0.236069 0)
(-0.192774 -0.219529 0)
(-0.206263 -0.201311 0)
(-0.218915 -0.181415 0)
(-0.230498 -0.159885 0)
(-0.240754 -0.13679 0)
(-0.249418 -0.112279 0)
(-0.256187 -0.086586 0)
(-0.260767 -0.0601276 0)
(-0.263479 -0.0334491 0)
(-0.264927 -0.00670531 0)
(-0.00608912 -0.301403 0)
(-0.0186209 -0.305905 0)
(-0.0312035 -0.304009 0)
(-0.0439277 -0.301261 0)
(-0.0568125 -0.297503 0)
(-0.0698765 -0.292671 0)
(-0.0831168 -0.286687 0)
(-0.0965075 -0.279467 0)
(-0.109998 -0.270929 0)
(-0.123513 -0.260999 0)
(-0.136959 -0.249618 0)
(-0.150221 -0.236738 0)
(-0.163168 -0.22233 0)
(-0.175655 -0.206377 0)
(-0.187523 -0.188889 0)
(-0.198599 -0.169903 0)
(-0.208692 -0.149485 0)
(-0.2176 -0.127743 0)
(-0.225128 -0.104837 0)
(-0.231062 -0.0809906 0)
(-0.235152 -0.0565064 0)
(-0.237592 -0.0317612 0)
(-0.238982 -0.00691096 0)
(-0.00563995 -0.289541 0)
(-0.0172342 -0.29383 0)
(-0.0288564 -0.291858 0)
(-0.040579 -0.288986 0)
(-0.0524091 -0.285084 0)
(-0.0643544 -0.280102 0)
(-0.0764059 -0.273983 0)
(-0.0885362 -0.266663 0)
(-0.100699 -0.258083 0)
(-0.112829 -0.248189 0)
(-0.124845 -0.23694 0)
(-0.136649 -0.224305 0)
(-0.148129 -0.21027 0)
(-0.159158 -0.19484 0)
(-0.169598 -0.178039 0)
(-0.179301 -0.159912 0)
(-0.188108 -0.140534 0)
(-0.195861 -0.120011 0)
(-0.202413 -0.0984936 0)
(-0.207613 -0.0761673 0)
(-0.211271 -0.053276 0)
(-0.21348 -0.0301314 0)
(-0.214785 -0.00689871 0)
(-0.00516953 -0.278534 0)
(-0.0157881 -0.282634 0)
(-0.0264183 -0.28061 0)
(-0.0371173 -0.277653 0)
(-0.0478843 -0.273655 0)
(-0.0587194 -0.26858 0)
(-0.0696099 -0.262386 0)
(-0.0805284 -0.255028 0)
(-0.0914326 -0.246464 0)
(-0.102265 -0.23666 0)
(-0.112955 -0.225587 0)
(-0.123418 -0.213229 0)
(-0.133555 -0.199583 0)
(-0.14326 -0.184664 0)
(-0.152417 -0.168504 0)
(-0.1609 -0.151157 0)
(-0.168583 -0.1327 0)
(-0.175338 -0.113243 0)
(-0.181052 -0.0929231 0)
(-0.185616 -0.071902 0)
(-0.188882 -0.0503777 0)
(-0.190881 -0.0286033 0)
(-0.192084 -0.00674684 0)
(-0.00468644 -0.26852 0)
(-0.0143043 -0.272459 0)
(-0.0239226 -0.270406 0)
(-0.0335863 -0.267395 0)
(-0.0432894 -0.263341 0)
(-0.0530268 -0.258216 0)
(-0.0627835 -0.251993 0)
(-0.072533 -0.244639 0)
(-0.0822367 -0.236129 0)
(-0.0918443 -0.226438 0)
(-0.101294 -0.215552 0)
(-0.110512 -0.203468 0)
(-0.119417 -0.190191 0)
(-0.127918 -0.175746 0)
(-0.135915 -0.160171 0)
(-0.143309 -0.143524 0)
(-0.149994 -0.125884 0)
(-0.15587 -0.107355 0)
(-0.160848 -0.0880616 0)
(-0.164847 -0.0681492 0)
(-0.167756 -0.0477841 0)
(-0.169566 -0.0271775 0)
(-0.17067 -0.00649322 0)
(-0.00419469 -0.25949 0)
(-0.0127958 -0.263291 0)
(-0.0213906 -0.261223 0)
(-0.0300145 -0.258181 0)
(-0.0386581 -0.254097 0)
(-0.0473131 -0.248954 0)
(-0.055963 -0.242732 0)
(-0.0645827 -0.235413 0)
(-0.0731375 -0.226978 0)
(-0.0815833 -0.217417 0)
(-0.0898667 -0.206725 0)
(-0.0979256 -0.194907 0)
(-0.10569 -0.181978 0)
(-0.113084 -0.167967 0)
(-0.120026 -0.152918 0)
(-0.126433 -0.136892 0)
(-0.132222 -0.119966 0)
(-0.137312 -0.102237 0)
(-0.141634 -0.0838228 0)
(-0.145126 -0.0648519 0)
(-0.147706 -0.0454698 0)
(-0.149345 -0.0258562 0)
(-0.150353 -0.00616802 0)
(-0.00369711 -0.251469 0)
(-0.0112716 -0.255151 0)
(-0.0188376 -0.253078 0)
(-0.0264222 -0.250019 0)
(-0.0340143 -0.245924 0)
(-0.0416031 -0.240782 0)
(-0.0491718 -0.234583 0)
(-0.0566971 -0.227314 0)
(-0.064148 -0.218967 0)
(-0.0714864 -0.209541 0)
(-0.0786668 -0.199037 0)
(-0.0856366 -0.187469 0)
(-0.0923376 -0.174857 0)
(-0.0987065 -0.161237 0)
(-0.104677 -0.146654 0)
(-0.110182 -0.131169 0)
(-0.115155 -0.114859 0)
(-0.119532 -0.0978156 0)
(-0.123259 -0.0801455 0)
(-0.126291 -0.0619678 0)
(-0.128565 -0.0434122 0)
(-0.130047 -0.0246345 0)
(-0.130971 -0.00578427 0)
(-0.00319337 -0.244467 0)
(-0.00973493 -0.248048 0)
(-0.0162724 -0.245974 0)
(-0.0228214 -0.242905 0)
(-0.029372 -0.238809 0)
(-0.0359112 -0.233681 0)
(-0.0424225 -0.227514 0)
(-0.0488847 -0.220304 0)
(-0.0552708 -0.212049 0)
(-0.0615484 -0.202753 0)
(-0.0676791 -0.192426 0)
(-0.0736193 -0.181085 0)
(-0.0793208 -0.168757 0)
(-0.0847325 -0.15548 0)
(-0.0898001 -0.141301 0)
(-0.09447 -0.126282 0)
(-0.0986899 -0.110495 0)
(-0.102411 -0.0940284 0)
(-0.105591 -0.0769811 0)
(-0.108196 -0.0594632 0)
(-0.110184 -0.0415933 0)
(-0.111519 -0.0235095 0)
(-0.112373 -0.00535427 0)
(-0.00267955 -0.238493 0)
(-0.00818253 -0.241984 0)
(-0.0136967 -0.23991 0)
(-0.0192152 -0.236835 0)
(-0.024734 -0.232743 0)
(-0.0302386 -0.227634 0)
(-0.0357132 -0.221505 0)
(-0.0411391 -0.214355 0)
(-0.0464937 -0.206188 0)
(-0.05175 -0.197012 0)
(-0.0568763 -0.186843 0)
(-0.061837 -0.175703 0)
(-0.0665931 -0.163621 0)
(-0.0711027 -0.150637 0)
(-0.0753232 -0.136801 0)
(-0.0792122 -0.122172 0)
(-0.082729 -0.106821 0)
(-0.0858376 -0.0908301 0)
(-0.0885067 -0.0742929 0)
(-0.0907123 -0.0573123 0)
(-0.0924277 -0.0399982 0)
(-0.093623 -0.0224749 0)
(-0.0944184 -0.00487938 0)
(-0.0021521 -0.233536 0)
(-0.0066072 -0.236917 0)
(-0.0111089 -0.234849 0)
(-0.015598 -0.231772 0)
(-0.0200872 -0.22769 0)
(-0.024563 -0.222606 0)
(-0.0290114 -0.216516 0)
(-0.0334182 -0.209423 0)
(-0.0377655 -0.201335 0)
(-0.042032 -0.192266 0)
(-0.0461924 -0.182233 0)
(-0.0502181 -0.171263 0)
(-0.0540772 -0.159389 0)
(-0.0577361 -0.146652 0)
(-0.0611601 -0.133101 0)
(-0.0643157 -0.118793 0)
(-0.0671726 -0.103796 0)
(-0.0697043 -0.0881878 0)
(-0.0718904 -0.0720557 0)
(-0.0737161 -0.0554984 0)
(-0.0751662 -0.0386187 0)
(-0.0762243 -0.0215284 0)
(-0.0769758 -0.00436065 0)
(-0.00160906 -0.229688 0)
(-0.00500914 -0.23289 0)
(-0.0085329 -0.230842 0)
(-0.0119872 -0.227772 0)
(-0.015421 -0.2237 0)
(-0.0188384 -0.218633 0)
(-0.0222335 -0.212568 0)
(-0.0255984 -0.20551 0)
(-0.0289263 -0.197471 0)
(-0.0322061 -0.18847 0)
(-0.0354158 -0.178529 0)
(-0.0385366 -0.16768 0)
(-0.0415441 -0.155959 0)
(-0.0444103 -0.143409 0)
(-0.0471052 -0.130082 0)
(-0.0495981 -0.116034 0)
(-0.0518602 -0.101327 0)
(-0.0538692 -0.0860306 0)
(-0.0556118 -0.0702237 0)
(-0.0570814 -0.0539991 0)
(-0.0582747 -0.0374518 0)
(-0.059193 -0.0206689 0)
(-0.0599072 -0.00377184 0)
(-0.0010713 -0.22713 0)
(-0.00349229 -0.230061 0)
(-0.00614462 -0.228056 0)
(-0.00861669 -0.224998 0)