/*--------------------------------*- C++ -*----------------------------------*\
| =========                 |                                                 |
| \\      /  F ield         | OpenFOAM: The Open Source CFD Toolbox           |
|  \\    /   O peration     | Version:  2.4.0                                 |
|   \\  /    A nd           | Web:      www.OpenFOAM.org                      |
|    \\/     M anipulation  |                                                 |
\*---------------------------------------------------------------------------*/
FoamFile
{
    version     2.0;
    format      ascii;
    class       volVectorField;
    location    "0.15";
    object      U.oil;
}
// * * * * * * * * * * * * * * * * * * * * * * * * * * * * * * * * * * * * * //

dimensions      [0 1 -1 0 0 0 0];

internalField   nonuniform List<vector> 
2268
(
(0.0152584 -0.00721445 0)
(0.0460351 -0.00733786 0)
(0.0776685 -0.00758528 0)
(0.110358 -0.00796782 0)
(0.146071 -0.00846442 0)
(0.180722 -0.00919057 0)
(0.227846 -0.0101109 0)
(0.261983 -0.0111894 0)
(0.326552 -0.0117838 0)
(0.367342 -0.0179199 0)
(0.450042 -0.0143329 0)
(0.527134 -0.0159048 0)
(0.585603 -0.0211543 0)
(0.679209 -0.0239392 0)
(0.816592 -0.0221195 0)
(0.970091 -0.0145949 0)
(1.11964 0.00155829 0)
(1.24327 0.0327693 0)
(1.32648 0.0760621 0)
(1.31959 0.141651 0)
(1.19552 0.172712 0)
(0.799952 0.193654 0)
(0.764558 0.323014 0)
(0.0152064 -0.0216244 0)
(0.0458826 -0.0220001 0)
(0.0774099 -0.0227422 0)
(0.109998 -0.0238885 0)
(0.145555 -0.0253548 0)
(0.180061 -0.027671 0)
(0.227138 -0.0296498 0)
(0.260335 -0.0356792 0)
(0.325363 -0.0312305 0)
(0.368012 -0.0553319 0)
(0.44757 -0.0476806 0)
(0.519018 -0.0461844 0)
(0.584013 -0.0596009 0)
(0.69836 -0.0710484 0)
(0.848075 -0.0727414 0)
(0.994644 -0.059243 0)
(1.12255 -0.0292099 0)
(1.2246 0.00962754 0)
(1.30725 0.0885895 0)
(1.33117 0.196594 0)
(1.32714 0.326886 0)
(1.0104 0.584394 0)
(0.911204 1.20024 0)
(0.0150896 -0.0359506 0)
(0.0455321 -0.0365755 0)
(0.0768166 -0.0378098 0)
(0.109174 -0.0397071 0)
(0.144366 -0.0421292 0)
(0.17865 -0.0459475 0)
(0.225253 -0.0496135 0)
(0.257298 -0.0571199 0)
(0.323447 -0.057296 0)
(0.365721 -0.0866575 0)
(0.443271 -0.0750316 0)
(0.509749 -0.0785184 0)
(0.581388 -0.110593 0)
(0.711244 -0.125699 0)
(0.870242 -0.102642 0)
(1.0235 -0.0521204 0)
(1.15722 0.0435433 0)
(1.22306 0.0967513 0)
(1.26262 0.13411 0)
(1.27045 0.151407 0)
(1.27599 0.199944 0)
(0.929743 0.538764 0)
(0.983077 1.44743 0)
(0.0149151 -0.0501376 0)
(0.0450092 -0.0510116 0)
(0.0759354 -0.0527369 0)
(0.107958 -0.0553608 0)
(0.142582 -0.0587126 0)
(0.17669 -0.0640251 0)
(0.221954 -0.0689288 0)
(0.253792 -0.0796269 0)
(0.319648 -0.0806404 0)
(0.359844 -0.11709 0)
(0.435888 -0.108777 0)
(0.499682 -0.109444 0)
(0.584655 -0.142307 0)
(0.738878 -0.136554 0)
(0.93014 -0.0413481 0)
(1.0385 -0.0117846 0)
(1.10194 0.0221124 0)
(1.14015 0.0298644 0)
(1.15209 0.0477147 0)
(1.1552 0.109589 0)
(1.15074 0.305728 0)
(0.517582 0.684782 0)
(1.02191 1.87973 0)
(0.0146821 -0.064148 0)
(0.0443118 -0.0652711 0)
(0.0747695 -0.0674877 0)
(0.10635 -0.0708036 0)
(0.140248 -0.0750585 0)
(0.174056 -0.0817004 0)
(0.217671 -0.0881643 0)
(0.249348 -0.100834 0)
(0.31402 -0.105675 0)
(0.352657 -0.145963 0)
(0.422515 -0.133876 0)
(0.496797 -0.142158 0)
(0.607724 -0.14277 0)
(0.781408 -0.0946192 0)
(0.910029 -0.0785899 0)
(0.991157 -0.0525569 0)
(1.01406 -0.0428106 0)
(1.0183 0.00124533 0)
(0.998682 0.110491 0)
(0.885889 0.0573287 0)
(0.824715 0.132026 0)
(0.231465 0.489894 0)
(0.762942 2.13862 0)
(0.0143881 -0.0778915 0)
(0.0434315 -0.0792645 0)
(0.0733123 -0.0819778 0)
(0.104342 -0.0859569 0)
(0.137374 -0.0910953 0)
(0.170717 -0.0990451 0)
(0.212459 -0.106926 0)
(0.243857 -0.12228 0)
(0.307288 -0.129966 0)
(0.340081 -0.170014 0)
(0.413185 -0.16589 0)
(0.499512 -0.162942 0)
(0.640338 -0.0968945 0)
(0.768076 -0.13946 0)
(0.860242 -0.148321 0)
(0.901658 -0.121251 0)
(0.972605 -0.0207863 0)
(0.977726 -0.0639462 0)
(0.929932 -0.133979 0)
(0.845938 -0.0190578 0)
(0.636263 0.294731 0)
(0.0450027 0.646599 0)
(0.399106 2.03642 0)
(0.0140211 -0.0911654 0)
(0.042332 -0.0928088 0)
(0.0715111 -0.0960604 0)
(0.101844 -0.100705 0)
(0.133879 -0.106709 0)
(0.16657 -0.115886 0)
(0.206319 -0.124996 0)
(0.237482 -0.142546 0)
(0.298467 -0.152213 0)
(0.327507 -0.191916 0)
(0.406561 -0.189511 0)
(0.500864 -0.169031 0)
(0.645723 -0.149767 0)
(0.730282 -0.217335 0)
(0.802496 -0.198482 0)
(0.965809 -0.137552 0)
(0.957164 -0.254984 0)
(0.962711 -0.202871 0)
(0.8676 0.0100915 0)
(0.614075 0.194779 0)
(0.459654 0.467106 0)
(0.0600384 0.70046 0)
(0.123345 2.01164 0)
(0.0135582 -0.104357 0)
(0.0409499 -0.106283 0)
(0.0692922 -0.110066 0)
(0.0987919 -0.115236 0)
(0.129794 -0.121683 0)
(0.161726 -0.131547 0)
(0.199573 -0.141234 0)
(0.230615 -0.160763 0)
(0.289308 -0.172885 0)
(0.314239 -0.215989 0)
(0.402414 -0.220922 0)
(0.501435 -0.188748 0)
(0.650182 -0.205489 0)
(0.693396 -0.257305 0)
(0.878079 -0.263573 0)
(0.850108 -0.370407 0)
(0.781161 -0.284462 0)
(0.677237 -0.0722014 0)
(0.545678 0.100081 0)
(0.443506 0.251157 0)
(0.39972 0.53529 0)
(0.179132 0.841415 0)
(0.0683336 2.09268 0)
(-0.342913 0.0967716 0)
(-0.95481 0.0446546 0)
(-1.19838 -0.0188185 0)
(0.222872 -0.847522 0)
(0.536074 -0.966918 0)
(0.477328 -0.920692 0)
(0.475502 -0.903373 0)
(0.829017 -0.878633 0)
(1.38854 -0.872053 0)
(1.84762 -0.844137 0)
(2.61209 -0.847504 0)
(2.6823 -0.934059 0)
(2.86069 -1.16697 0)
(3.48585 -1.58639 0)
(3.87899 -1.91284 0)
(3.65914 -1.77044 0)
(1.36995 -0.264574 0)
(0.605353 0.00450026 0)
(0.169485 0.0619246 0)
(-0.309793 0.253531 0)
(-0.729881 0.20054 0)
(-0.773703 0.0684166 0)
(0.669101 -0.85034 0)
(0.859851 -0.845701 0)
(0.899054 -0.879512 0)
(0.924787 -0.835943 0)
(1.07074 -0.761251 0)
(1.3659 -0.717463 0)
(1.68029 -0.657295 0)
(1.94565 -0.724404 0)
(2.00012 -0.868595 0)
(2.06719 -0.979848 0)
(3.53663 -1.75808 0)
(3.84804 -1.85637 0)
(3.47683 -1.44496 0)
(1.50088 -0.143229 0)
(0.614285 0.169103 0)
(0.162772 0.201093 0)
(-0.225049 0.387378 0)
(-0.519022 0.297933 0)
(-0.381364 0.110902 0)
(0.626638 -0.638448 0)
(1.00414 -0.850865 0)
(1.04727 -0.873346 0)
(1.08081 -0.853359 0)
(1.22385 -0.771835 0)
(1.46909 -0.686608 0)
(1.66494 -0.727578 0)
(1.74132 -0.933938 0)
(1.79146 -1.09965 0)
(1.95971 -1.19196 0)
(2.23978 -0.641353 0)
(2.47942 -0.234412 0)
(1.70073 0.201951 0)
(0.993097 0.336124 0)
(0.472273 0.375757 0)
(0.139959 0.331286 0)
(-0.116558 0.433127 0)
(-0.171223 0.30143 0)
(0.220106 -0.272448 0)
(0.84465 -0.696715 0)
(1.1259 -0.793625 0)
(1.23354 -0.877271 0)
(1.30488 -0.894177 0)
(1.44556 -0.840453 0)
(1.58781 -0.799788 0)
(1.6928 -0.962053 0)
(1.78647 -1.16435 0)
(1.90207 -1.29983 0)
(2.06272 -0.760718 0)
(1.97128 0.189901 0)
(1.49989 0.611626 0)
(1.06533 0.681662 0)
(0.688304 0.61349 0)
(0.374922 0.515954 0)
(0.118736 0.444277 0)
(-0.068667 0.531072 0)
(-0.133631 0.313653 0)
(0.474604 -0.34475 0)
(1.04435 -0.662054 0)
(1.29349 -0.761856 0)
(1.43028 -0.918339 0)
(1.47851 -0.937663 0)
(1.55543 -0.891713 0)
(1.6132 -0.913777 0)
(1.69166 -1.06196 0)
(1.84293 -1.20222 0)
(2.00212 -1.28287 0)
(1.80976 -0.399645 0)
(1.40706 0.560644 0)
(0.992078 0.915938 0)
(0.748987 0.89301 0)
(0.514163 0.748784 0)
(0.300394 0.61643 0)
(0.0988663 0.538237 0)
(-0.0773865 0.492243 0)
(0.401218 0.563348 0)
(0.870548 -0.45274 0)
(1.21269 -0.58199 0)
(1.46155 -0.783508 0)
(1.54831 -0.944624 0)
(1.56234 -0.946051 0)
(1.59187 -0.929006 0)
(1.61644 -0.981683 0)
(1.69343 -1.08422 0)
(1.8448 -1.20214 0)
(1.89764 -1.19296 0)
(1.2904 0.0329806 0)
(0.877561 0.862994 0)
(0.650659 1.08157 0)
(0.521891 1.00238 0)
(0.384894 0.831554 0)
(0.238688 0.695027 0)
(0.0808772 0.618356 0)
(0.339576 0.31152 0)
(1.05717 -0.154986 0)
(1.08256 -0.360344 0)
(1.38266 -0.574009 0)
(1.59165 -0.827853 0)
(1.62125 -0.939492 0)
(1.61285 -0.939935 0)
(1.60629 -0.944719 0)
(1.62539 -1.00548 0)
(1.70335 -1.08273 0)
(1.82466 -1.16963 0)
(1.68214 -0.972671 0)
(0.746823 0.519124 0)
(0.487745 1.04804 0)
(0.395737 1.14678 0)
(0.351724 1.03883 0)
(0.28644 0.871943 0)
(0.18766 0.746355 0)
(0.0650666 0.676932 0)
(1.11088 -0.0962437 0)
(1.08 -0.213443 0)
(1.22676 -0.357252 0)
(1.56521 -0.678844 0)
(1.68692 -0.868104 0)
(1.67557 -0.929011 0)
(1.63813 -0.931855 0)
(1.61857 -0.954883 0)
(1.64568 -1.00817 0)
(1.74058 -1.08371 0)
(1.84208 -1.15622 0)
(0.926404 -0.241635 0)
(0.25598 0.828829 0)
(0.186295 1.12305 0)
(0.205938 1.15414 0)
(0.229076 1.04484 0)
(0.210583 0.903649 0)
(0.14577 0.794049 0)
(0.0514731 0.732516 0)
(0.0127537 -0.124705 0)
(0.0385784 -0.126879 0)
(0.0656444 -0.131145 0)
(0.0939669 -0.136637 0)
(0.123662 -0.14358 0)
(0.154104 -0.155265 0)
(0.189177 -0.166464 0)
(0.220618 -0.191756 0)
(0.27258 -0.214975 0)
(0.299677 -0.27148 0)
(0.38114 -0.326846 0)
(0.469113 -0.298894 0)
(0.583925 -0.211077 0)
(0.649314 -0.279746 0)
(0.705694 -0.41352 0)
(0.685102 -0.323388 0)
(0.558041 -0.120778 0)
(0.474575 -0.0129267 0)
(0.409085 0.129831 0)
(0.452324 0.252891 0)
(0.41989 0.543627 0)
(0.703352 0.733534 0)
(1.0672 1.8673 0)
(0.0120855 -0.135308 0)
(0.0365873 -0.13925 0)
(0.062788 -0.147121 0)
(0.0896232 -0.157696 0)
(0.11806 -0.172797 0)
(0.146051 -0.199699 0)
(0.177684 -0.226813 0)
(0.208358 -0.270446 0)
(0.230919 -0.310627 0)
(0.270275 -0.371642 0)
(0.292595 -0.430411 0)
(0.347043 -0.389924 0)
(0.538048 -0.334167 0)
(0.627678 -0.494658 0)
(0.671425 -0.445156 0)
(0.609308 -0.248634 0)
(0.487877 -0.0778181 0)
(0.480711 0.000589305 0)
(0.443359 0.149413 0)
(0.523193 0.196991 0)
(0.570517 0.423345 0)
(0.762007 0.437847 0)
(1.20534 0.869697 0)
(0.010727 -0.240373 0)
(0.0321273 -0.245989 0)
(0.0548514 -0.256697 0)
(0.0757205 -0.269018 0)
(0.100187 -0.281006 0)
(0.118879 -0.303597 0)
(0.143564 -0.319363 0)
(0.175301 -0.347169 0)
(0.214493 -0.364785 0)
(0.290066 -0.375063 0)
(0.379564 -0.37694 0)
(0.486073 -0.5039 0)
(0.611009 -0.537588 0)
(0.649249 -0.526925 0)
(0.657496 -0.442715 0)
(0.599978 -0.192788 0)
(0.52692 -0.0305238 0)
(0.521945 0.012415 0)
(0.530837 0.109962 0)
(0.599132 0.118358 0)
(0.695018 0.261666 0)
(0.838763 0.222914 0)
(1.09841 0.41752 0)
(0.0139604 -0.217414 0)
(0.041259 -0.22183 0)
(0.070741 -0.222408 0)
(0.103755 -0.223576 0)
(0.146944 -0.216972 0)
(0.195725 -0.232945 0)
(0.25455 -0.255586 0)
(0.323378 -0.307469 0)
(0.395141 -0.378701 0)
(0.457267 -0.461089 0)
(0.515863 -0.489527 0)
(0.559731 -0.525244 0)
(0.619294 -0.525951 0)
(0.63427 -0.518479 0)
(0.635255 -0.425436 0)
(0.577105 -0.171109 0)
(0.532682 -0.0178265 0)
(0.54353 0.00618146 0)
(0.576104 0.0647983 0)
(0.629689 0.0543759 0)
(0.737275 0.120043 0)
(0.858254 0.0889162 0)
(1.05591 0.183104 0)
(0.0267117 -0.288068 0)
(0.0770249 -0.294216 0)
(0.127228 -0.302995 0)
(0.170739 -0.325097 0)
(0.223986 -0.341457 0)
(0.272933 -0.367204 0)
(0.323902 -0.389583 0)
(0.371208 -0.415219 0)
(0.409456 -0.435717 0)
(0.451847 -0.472456 0)
(0.472852 -0.498665 0)
(0.501584 -0.546634 0)
(0.565233 -0.537811 0)
(0.587827 -0.518186 0)
(0.583084 -0.399357 0)
(0.513014 -0.148629 0)
(0.503356 -0.0254532 0)
(0.524638 -0.0195462 0)
(0.572187 0.00970046 0)
(0.635632 -0.0108634 0)
(0.752581 -0.0101896 0)
(0.842746 -0.0220286 0)
(1.00705 -0.0280757 0)
(0.0201611 -0.280186 0)
(0.0615812 -0.282145 0)
(0.104025 -0.289959 0)
(0.147902 -0.301107 0)
(0.189824 -0.316212 0)
(0.233005 -0.338653 0)
(0.271106 -0.36667 0)
(0.30857 -0.400904 0)
(0.336796 -0.439892 0)
(0.373424 -0.48847 0)
(0.401167 -0.515715 0)
(0.444878 -0.564299 0)
(0.508876 -0.559691 0)
(0.533144 -0.527202 0)
(0.515358 -0.367882 0)
(0.445905 -0.142351 0)
(0.456869 -0.0567902 0)
(0.492046 -0.0592728 0)
(0.551957 -0.0543777 0)
(0.626463 -0.0936816 0)
(0.728211 -0.117212 0)
(0.811409 -0.139546 0)
(0.95546 -0.188572 0)
(0.0196645 -0.328193 0)
(0.0591107 -0.334333 0)
(0.0972411 -0.343186 0)
(0.136033 -0.357097 0)
(0.171965 -0.374163 0)
(0.207773 -0.396142 0)
(0.241953 -0.422308 0)
(0.27809 -0.452293 0)
(0.309173 -0.485644 0)
(0.346864 -0.525012 0)
(0.37495 -0.551615 0)
(0.423955 -0.598778 0)
(0.481716 -0.586097 0)
(0.497159 -0.53386 0)
(0.451707 -0.344462 0)
(0.389385 -0.152207 0)
(0.411137 -0.0967614 0)
(0.456239 -0.108502 0)
(0.519782 -0.125173 0)
(0.598931 -0.175598 0)
(0.687253 -0.209708 0)
(0.766864 -0.248461 0)
(0.896165 -0.30713 0)
(0.0171221 -0.366874 0)
(0.051099 -0.371024 0)
(0.085153 -0.379559 0)
(0.118103 -0.391526 0)
(0.151928 -0.409976 0)
(0.184445 -0.43052 0)
(0.216887 -0.456829 0)
(0.248323 -0.485926 0)
(0.276228 -0.517844 0)
(0.311699 -0.558483 0)
(0.327793 -0.588033 0)
(0.377173 -0.624523 0)
(0.432829 -0.600449 0)
(0.436178 -0.518769 0)
(0.365501 -0.302456 0)
(0.330655 -0.16209 0)
(0.360286 -0.137519 0)
(0.417476 -0.163669 0)
(0.481517 -0.19637 0)
(0.558903 -0.254172 0)
(0.636908 -0.294707 0)
(0.715089 -0.344188 0)
(0.82548 -0.406621 0)
(0.0151062 -0.396821 0)
(0.0453521 -0.401542 0)
(0.075165 -0.409378 0)
(0.104962 -0.421523 0)
(0.133389 -0.4365 0)
(0.161442 -0.456742 0)
(0.188011 -0.479792 0)
(0.214761 -0.507626 0)
(0.238406 -0.540366 0)
(0.267448 -0.575469 0)
(0.287493 -0.605795 0)
(0.340937 -0.646537 0)
(0.388711 -0.613355 0)
(0.369144 -0.49656 0)
(0.284186 -0.27974 0)
(0.281021 -0.188785 0)
(0.312545 -0.185817 0)
(0.378714 -0.225434 0)
(0.438089 -0.265981 0)
(0.511489 -0.326684 0)
(0.578866 -0.372163 0)
(0.654919 -0.431688 0)
(0.752519 -0.506795 0)
(0.0131491 -0.426294 0)
(0.0393428 -0.430564 0)
(0.0653015 -0.438095 0)
(0.0905207 -0.449355 0)
(0.115407 -0.465438 0)
(0.139488 -0.484848 0)
(0.16305 -0.509087 0)
(0.186048 -0.536768 0)
(0.207414 -0.56833 0)
(0.233114 -0.606134 0)
(0.247112 -0.642051 0)
(0.29912 -0.670948 0)
(0.339013 -0.61726 0)
(0.284399 -0.452435 0)
(0.209726 -0.264102 0)
(0.229939 -0.221047 0)
(0.271488 -0.23712 0)
(0.336764 -0.285475 0)
(0.390296 -0.329776 0)
(0.456914 -0.391126 0)
(0.514243 -0.442782 0)
(0.586947 -0.512658 0)
(0.673677 -0.603602 0)
(0.0111557 -0.449603 0)
(0.0334122 -0.4539 0)
(0.0554428 -0.461158 0)
(0.0772348 -0.47216 0)
(0.0981691 -0.486783 0)
(0.118342 -0.505599 0)
(0.137547 -0.527845 0)
(0.155766 -0.554435 0)
(0.172842 -0.585936 0)
(0.191594 -0.620963 0)
(0.204385 -0.660243 0)
(0.251265 -0.68748 0)
(0.277342 -0.605926 0)
(0.185732 -0.408758 0)
(0.150269 -0.267274 0)
(0.180307 -0.260403 0)
(0.235627 -0.294836 0)
(0.29134 -0.340666 0)
(0.339628 -0.387142 0)
(0.397532 -0.447359 0)
(0.444206 -0.503466 0)
(0.508337 -0.583237 0)
(0.585013 -0.680197 0)
(0.00908283 -0.472005 0)
(0.0271643 -0.476182 0)
(0.0452569 -0.48303 0)
(0.0635625 -0.492916 0)
(0.0812065 -0.506877 0)
(0.0977029 -0.52437 0)
(0.113103 -0.54567 0)
(0.127084 -0.57057 0)
(0.139866 -0.599881 0)
(0.150873 -0.63449 0)
(0.161881 -0.678021 0)
(0.172659 -0.702659 0)
(0.198216 -0.58099 0)
(0.0814397 -0.367569 0)
(0.102877 -0.292626 0)
(0.141736 -0.308527 0)
(0.198025 -0.34915 0)
(0.246202 -0.389584 0)
(0.288057 -0.434984 0)
(0.337836 -0.488803 0)
(0.370984 -0.54862 0)
(0.430404 -0.633657 0)
(0.466331 -0.774927 0)
(0.00767473 -0.483903 0)
(0.0229132 -0.487714 0)
(0.0377976 -0.494238 0)
(0.0520307 -0.504049 0)
(0.0662223 -0.516154 0)
(0.0794616 -0.531614 0)
(0.091512 -0.550492 0)
(0.101699 -0.573172 0)
(0.109994 -0.600456 0)
(0.11147 -0.633856 0)
(0.111599 -0.685184 0)
(0.0872296 -0.694634 0)
(0.0778898 -0.537217 0)
(-0.00472803 -0.350084 0)
(0.0619645 -0.333707 0)
(0.113976 -0.362932 0)
(0.162101 -0.391816 0)
(0.205731 -0.425101 0)
(0.242824 -0.466284 0)
(0.283667 -0.516723 0)
(0.299205 -0.608012 0)
(0.326628 -0.740688 0)
(0.245238 -0.988741 0)
(0.00677275 -0.495372 0)
(0.0201127 -0.499239 0)
(0.0327278 -0.506018 0)
(0.044032 -0.516854 0)
(0.0544457 -0.531996 0)
(0.0643228 -0.551871 0)
(0.0729617 -0.57756 0)
(0.0792746 -0.609282 0)
(0.0820886 -0.646931 0)
(0.0737692 -0.691716 0)
(0.0363512 -0.764949 0)
(-0.0251083 -0.725989 0)
(-0.0560207 -0.508221 0)
(-0.0470941 -0.374619 0)
(0.0457688 -0.389946 0)
(0.0910174 -0.405393 0)
(0.136294 -0.429547 0)
(0.173813 -0.471486 0)
(0.202087 -0.538684 0)
(0.207385 -0.631456 0)
(0.174786 -0.77795 0)
(0.127073 -0.988954 0)
(-0.154138 -1.59476 0)
(0.00521086 -0.591953 0)
(0.0150288 -0.597691 0)
(0.0239955 -0.607928 0)
(0.0312226 -0.623412 0)
(0.0361858 -0.644274 0)
(0.0388652 -0.670346 0)
(0.0395698 -0.701541 0)
(0.0381883 -0.738338 0)
(0.0341106 -0.784751 0)
(0.0133097 -0.85304 0)
(-0.0391791 -0.838203 0)
(-0.0923825 -0.757588 0)
(-0.103398 -0.582468 0)
(-0.0357725 -0.508064 0)
(0.03955 -0.523851 0)
(0.0785209 -0.538865 0)
(0.101394 -0.57685 0)
(0.106274 -0.640639 0)
(0.0927825 -0.746304 0)
(0.051085 -0.898601 0)
(-0.0698932 -1.24488 0)
(-0.186915 -1.75868 0)
(-0.551166 -0.862778 0)
(0.00166434 -0.792813 0)
(0.00360486 -0.801688 0)
(0.00559664 -0.817839 0)
(0.0060418 -0.84216 0)
(0.00524691 -0.87474 0)
(0.0019654 -0.916449 0)
(-0.00408895 -0.967411 0)
(-0.0158693 -1.02748 0)
(-0.0427461 -1.01685 0)
(-0.0699838 -0.937716 0)
(-0.0818109 -0.860216 0)
(-0.127294 -0.819781 0)
(-0.102056 -0.841895 0)
(-0.00536106 -0.778579 0)
(0.0181581 -0.781372 0)
(0.0278048 -0.812282 0)
(0.0128515 -0.897104 0)
(-0.0454425 -1.09944 0)
(-0.0933373 -1.29794 0)
(-0.138266 -1.73161 0)
(-0.319488 -1.07364 0)
(-0.376823 -0.57347 0)
(-0.566222 -0.156005 0)
(-0.0122681 -0.389402 0)
(-0.0429317 -0.36537 0)
(-0.0761828 -0.331242 0)
(-0.115856 -0.29268 0)
(-0.164111 -0.26286 0)
(-0.216789 -0.284553 0)
(-0.272603 -0.37545 0)
(-0.314118 -0.554326 0)
(-0.300178 -0.68068 0)
(-0.169982 -0.64745 0)
(-0.0654408 -1.0684 0)
(-0.0745504 -1.42368 0)
(-0.0558749 -1.48552 0)
(-0.00402837 -1.27604 0)
(-0.0267061 -1.25842 0)
(-0.0468695 -1.3554 0)
(-0.0847298 -1.5463 0)
(-0.261313 -1.25423 0)
(-0.371422 -0.713085 0)
(-0.26603 -0.76701 0)
(-0.173185 -0.657435 0)
(-0.376065 -0.235538 0)
(-0.714009 0.0835276 0)
(-0.0128665 -0.787462 0)
(-0.0361583 -0.793295 0)
(-0.0519186 -0.797043 0)
(-0.0638957 -0.797888 0)
(-0.0700025 -0.796057 0)
(-0.0764557 -0.78804 0)
(-0.0820121 -0.768373 0)
(-0.0851208 -0.736648 0)
(-0.104897 -0.717331 0)
(-0.139184 -0.734291 0)
(-0.163518 -0.683124 0)
(-0.24803 -0.735255 0)
(-0.368922 -0.707046 0)
(-0.420735 -0.603605 0)
(-0.405105 -0.606608 0)
(-0.360722 -0.675528 0)
(-0.282622 -0.705339 0)
(-0.209906 -0.69333 0)
(-0.199038 -0.621459 0)
(-0.264029 -0.431979 0)
(-0.467344 -0.106369 0)
(-0.71264 0.103156 0)
(-0.739061 0.142043 0)
(-0.00186653 -0.331 0)
(-0.00614746 -0.336319 0)
(-0.0107248 -0.339395 0)
(-0.0221422 -0.347044 0)
(-0.0387899 -0.359927 0)
(-0.0629216 -0.380305 0)
(-0.0923346 -0.40405 0)
(-0.125992 -0.432996 0)
(-0.163795 -0.466789 0)
(-0.207977 -0.492273 0)
(-0.264968 -0.510228 0)
(-0.334446 -0.522797 0)
(-0.379903 -0.439799 0)
(-0.387367 -0.3575 0)
(-0.356258 -0.32765 0)
(-0.361927 -0.323719 0)
(-0.389565 -0.344919 0)
(-0.43584 -0.380469 0)
(-0.526651 -0.380363 0)
(-0.65551 -0.265873 0)
(-0.745745 -0.0660434 0)
(-0.751708 0.0437361 0)
(-0.696328 0.113179 0)
(-0.00772215 -0.438818 0)
(-0.023244 -0.450194 0)
(-0.0376827 -0.458446 0)
(-0.0534693 -0.468411 0)
(-0.0705772 -0.479676 0)
(-0.0905462 -0.490382 0)
(-0.114458 -0.498672 0)
(-0.142678 -0.503938 0)
(-0.175734 -0.506021 0)
(-0.21224 -0.5018 0)
(-0.253775 -0.496746 0)
(-0.304715 -0.490047 0)
(-0.351463 -0.44442 0)
(-0.37867 -0.402595 0)
(-0.402376 -0.38941 0)
(-0.432771 -0.394286 0)
(-0.473759 -0.410467 0)
(-0.533839 -0.419586 0)
(-0.625467 -0.380383 0)
(-0.715521 -0.244145 0)
(-0.732337 -0.0585956 0)
(-0.69198 0.0234416 0)
(-0.62861 0.0575271 0)
(-0.00647331 -0.473168 0)
(-0.0196628 -0.480201 0)
(-0.0336988 -0.480241 0)
(-0.0492755 -0.480996 0)
(-0.0669382 -0.482243 0)
(-0.0874465 -0.483942 0)
(-0.111483 -0.485352 0)
(-0.139352 -0.485886 0)
(-0.171148 -0.484543 0)
(-0.206604 -0.481304 0)
(-0.248011 -0.478112 0)
(-0.296983 -0.469862 0)
(-0.340563 -0.44689 0)
(-0.366951 -0.423386 0)
(-0.388695 -0.400499 0)
(-0.414614 -0.380438 0)
(-0.451547 -0.357632 0)
(-0.505645 -0.325165 0)
(-0.584957 -0.27651 0)
(-0.648133 -0.204398 0)
(-0.63912 -0.0909786 0)
(-0.607653 -0.0120109 0)
(-0.571342 0.0240523 0)
(-0.00720158 -0.409816 0)
(-0.0222664 -0.418029 0)
(-0.0379128 -0.419889 0)
(-0.0547689 -0.422543 0)
(-0.0733329 -0.425459 0)
(-0.0941226 -0.428184 0)
(-0.117449 -0.429959 0)
(-0.143445 -0.430201 0)
(-0.171894 -0.428426 0)
(-0.202879 -0.424668 0)
(-0.237184 -0.419765 0)
(-0.272893 -0.411257 0)
(-0.305788 -0.392562 0)
(-0.334527 -0.365584 0)
(-0.361438 -0.340044 0)
(-0.389829 -0.316385 0)
(-0.419851 -0.29175 0)
(-0.454913 -0.262003 0)
(-0.501846 -0.219161 0)
(-0.542207 -0.150594 0)
(-0.556122 -0.0790365 0)
(-0.538389 -0.033762 0)
(-0.506684 0.00845588 0)
(-0.00770296 -0.4051 0)
(-0.0237978 -0.412457 0)
(-0.0403 -0.41295 0)
(-0.0577197 -0.413881 0)
(-0.0763206 -0.414659 0)
(-0.096308 -0.414926 0)
(-0.117829 -0.414227 0)
(-0.140821 -0.41208 0)
(-0.165322 -0.408232 0)
(-0.191555 -0.402252 0)
(-0.219236 -0.392788 0)
(-0.247885 -0.378344 0)
(-0.277941 -0.359233 0)
(-0.307118 -0.337665 0)
(-0.336146 -0.316379 0)
(-0.366447 -0.293885 0)
(-0.399669 -0.268075 0)
(-0.432047 -0.237931 0)
(-0.455692 -0.207291 0)
(-0.466876 -0.164625 0)
(-0.47584 -0.0985764 0)
(-0.476694 -0.0309994 0)
(-0.470641 0.00981449 0)
(-0.00775361 -0.387112 0)
(-0.023943 -0.39361 0)
(-0.0404898 -0.393209 0)
(-0.0577266 -0.392693 0)
(-0.0758764 -0.391807 0)
(-0.0951677 -0.390315 0)
(-0.115724 -0.38794 0)
(-0.137613 -0.384339 0)
(-0.160879 -0.379038 0)
(-0.185502 -0.371547 0)
(-0.211234 -0.361389 0)
(-0.237474 -0.348198 0)
(-0.263137 -0.33261 0)
(-0.288604 -0.314792 0)
(-0.311784 -0.292439 0)
(-0.333521 -0.267132 0)
(-0.353422 -0.238735 0)
(-0.376726 -0.206961 0)
(-0.404327 -0.163934 0)
(-0.430758 -0.113544 0)
(-0.438537 -0.071736 0)
(-0.43428 -0.0418185 0)
(-0.42845 0.00106626 0)
(-0.00767599 -0.374371 0)
(-0.0234787 -0.380677 0)
(-0.0396173 -0.380063 0)
(-0.0563072 -0.379271 0)
(-0.0737514 -0.377924 0)
(-0.0921371 -0.375807 0)
(-0.111605 -0.372622 0)
(-0.132253 -0.368062 0)
(-0.1541 -0.36182 0)
(-0.176885 -0.353479 0)
(-0.200039 -0.342564 0)
(-0.223001 -0.32873 0)
(-0.245686 -0.311525 0)
(-0.267961 -0.291378 0)
(-0.290834 -0.270315 0)
(-0.313441 -0.246941 0)
(-0.335857 -0.221151 0)
(-0.356227 -0.192612 0)
(-0.371784 -0.162066 0)
(-0.380155 -0.126458 0)
(-0.38546 -0.0832029 0)
(-0.391166 -0.0380978 0)
(-0.392199 -0.00037367 0)
(-0.00747287 -0.3559 0)
(-0.023011 -0.36157 0)
(-0.038752 -0.360409 0)
(-0.05495 -0.358773 0)
(-0.0717085 -0.356385 0)
(-0.0891286 -0.353082 0)
(-0.107268 -0.348671 0)
(-0.126131 -0.342923 0)
(-0.145664 -0.335588 0)
(-0.16577 -0.32641 0)
(-0.186308 -0.31519 0)
(-0.207099 -0.301923 0)
(-0.227801 -0.286731 0)
(-0.248008 -0.269242 0)
(-0.267224 -0.248666 0)
(-0.285523 -0.225514 0)
(-0.30265 -0.199678 0)
(-0.318827 -0.171009 0)
(-0.333727 -0.138607 0)
(-0.34606 -0.104201 0)
(-0.353222 -0.0709222 0)
(-0.355849 -0.0386369 0)
(-0.355856 -0.00387969 0)
(-0.00724273 -0.342967 0)
(-0.0221618 -0.348388 0)
(-0.0372603 -0.347026 0)
(-0.0527002 -0.345092 0)
(-0.0685717 -0.342336 0)
(-0.0849589 -0.338614 0)
(-0.101908 -0.333747 0)
(-0.119421 -0.327539 0)
(-0.137433 -0.319764 0)
(-0.155794 -0.310197 0)
(-0.174298 -0.298664 0)
(-0.192752 -0.285023 0)
(-0.211022 -0.269185 0)
(-0.22899 -0.251301 0)
(-0.246449 -0.231587 0)
(-0.263066 -0.209807 0)
(-0.278586 -0.185956 0)
(-0.292504 -0.159897 0)
(-0.304126 -0.131655 0)
(-0.312759 -0.101171 0)
(-0.318392 -0.0690029 0)
(-0.321884 -0.0367701 0)
(-0.323241 -0.00518338 0)
(-0.00688926 -0.327548 0)
(-0.0211136 -0.332571 0)
(-0.0354548 -0.330943 0)
(-0.0500584 -0.328609 0)
(-0.0649801 -0.325349 0)
(-0.0802731 -0.32106 0)
(-0.0959587 -0.315611 0)
(-0.112021 -0.308858 0)
(-0.128402 -0.300655 0)
(-0.145001 -0.290869 0)
(-0.161689 -0.279395 0)
(-0.17831 -0.266166 0)
(-0.194669 -0.251121 0)
(-0.21056 -0.234153 0)
(-0.225801 -0.215177 0)
(-0.240193 -0.194254 0)
(-0.253483 -0.171396 0)
(-0.265384 -0.146661 0)
(-0.275533 -0.120185 0)
(-0.283436 -0.0924266 0)
(-0.288587 -0.0639743 0)
(-0.291504 -0.0352447 0)
(-0.292872 -0.00623576 0)
(-0.00651569 -0.314392 0)
(-0.0199313 -0.319157 0)
(-0.0334283 -0.317384 0)
(-0.0471205 -0.314825 0)
(-0.0610424 -0.311295 0)
(-0.0752265 -0.306707 0)
(-0.08968 -0.300957 0)
(-0.10438 -0.293929 0)
(-0.119268 -0.285508 0)
(-0.134259 -0.275585 0)
(-0.149241 -0.264078 0)
(-0.164085 -0.250918 0)
(-0.178651 -0.236069 0)
(-0.192774 -0.219529 0)
(-0.206263 -0.201311 0)
(-0.218915 -0.181415 0)
(-0.230498 -0.159885 0)
(-0.240754 -0.13679 0)
(-0.249418 -0.112279 0)
(-0.256187 -0.086586 0)
(-0.260767 -0.0601276 0)
(-0.263479 -0.0334491 0)
(-0.264927 -0.00670531 0)
(-0.00608912 -0.301403 0)
(-0.0186209 -0.305905 0)
(-0.0312035 -0.304009 0)
(-0.0439277 -0.301261 0)
(-0.0568125 -0.297503 0)
(-0.0698765 -0.292671 0)
(-0.0831168 -0.286687 0)
(-0.0965075 -0.279467 0)
(-0.109998 -0.270929 0)
(-0.123513 -0.260999 0)
(-0.136959 -0.249618 0)
(-0.150221 -0.236738 0)
(-0.163168 -0.22233 0)
(-0.175655 -0.206377 0)
(-0.187523 -0.188889 0)
(-0.198599 -0.169903 0)
(-0.208692 -0.149485 0)
(-0.2176 -0.127743 0)
(-0.225128 -0.104837 0)
(-0.231062 -0.0809906 0)
(-0.235152 -0.0565064 0)
(-0.237592 -0.0317612 0)
(-0.238982 -0.00691096 0)
(-0.00563995 -0.289541 0)
(-0.0172342 -0.29383 0)
(-0.0288564 -0.291858 0)
(-0.040579 -0.288986 0)
(-0.0524091 -0.285084 0)
(-0.0643544 -0.280102 0)
(-0.0764059 -0.273983 0)
(-0.0885362 -0.266663 0)
(-0.100699 -0.258083 0)
(-0.112829 -0.248189 0)
(-0.124845 -0.23694 0)
(-0.136649 -0.224305 0)
(-0.148129 -0.21027 0)
(-0.159158 -0.19484 0)
(-0.169598 -0.178039 0)
(-0.179301 -0.159912 0)
(-0.188108 -0.140534 0)
(-0.195861 -0.120011 0)
(-0.202413 -0.0984936 0)
(-0.207613 -0.0761673 0)
(-0.211271 -0.053276 0)
(-0.21348 -0.0301314 0)
(-0.214785 -0.00689871 0)
(-0.00516953 -0.278534 0)
(-0.0157881 -0.282634 0)
(-0.0264183 -0.28061 0)
(-0.0371173 -0.277653 0)
(-0.0478843 -0.273655 0)
(-0.0587194 -0.26858 0)
(-0.0696099 -0.262386 0)
(-0.0805284 -0.255028 0)
(-0.0914326 -0.246464 0)
(-0.102265 -0.23666 0)
(-0.112955 -0.225587 0)
(-0.123418 -0.213229 0)
(-0.133555 -0.199583 0)
(-0.14326 -0.184664 0)
(-0.152417 -0.168504 0)
(-0.1609 -0.151157 0)
(-0.168583 -0.1327 0)
(-0.175338 -0.113243 0)
(-0.181052 -0.0929231 0)
(-0.185616 -0.071902 0)
(-0.188882 -0.0503777 0)
(-0.190881 -0.0286033 0)
(-0.192084 -0.00674684 0)
(-0.00468644 -0.26852 0)
(-0.0143043 -0.272459 0)
(-0.0239226 -0.270406 0)
(-0.0335863 -0.267395 0)
(-0.0432894 -0.263341 0)
(-0.0530268 -0.258216 0)
(-0.0627835 -0.251993 0)
(-0.072533 -0.244639 0)
(-0.0822367 -0.236129 0)
(-0.0918443 -0.226438 0)
(-0.101294 -0.215552 0)
(-0.110512 -0.203468 0)
(-0.119417 -0.190191 0)
(-0.127918 -0.175746 0)
(-0.135915 -0.160171 0)
(-0.143309 -0.143524 0)
(-0.149994 -0.125884 0)
(-0.15587 -0.107355 0)
(-0.160848 -0.0880616 0)
(-0.164847 -0.0681492 0)
(-0.167756 -0.0477841 0)
(-0.169566 -0.0271775 0)
(-0.17067 -0.00649322 0)
(-0.00419469 -0.25949 0)
(-0.0127958 -0.263291 0)
(-0.0213906 -0.261223 0)
(-0.0300145 -0.258181 0)
(-0.0386581 -0.254097 0)
(-0.0473131 -0.248954 0)
(-0.055963 -0.242732 0)
(-0.0645827 -0.235413 0)
(-0.0731375 -0.226978 0)
(-0.0815833 -0.217417 0)
(-0.0898667 -0.206725 0)
(-0.0979256 -0.194907 0)
(-0.10569 -0.181978 0)
(-0.113084 -0.167967 0)
(-0.120026 -0.152918 0)
(-0.126433 -0.136892 0)
(-0.132222 -0.119966 0)
(-0.137312 -0.102237 0)
(-0.141634 -0.0838228 0)
(-0.145126 -0.0648519 0)
(-0.147706 -0.0454698 0)
(-0.149345 -0.0258562 0)
(-0.150353 -0.00616802 0)
(-0.00369711 -0.251469 0)
(-0.0112716 -0.255151 0)
(-0.0188376 -0.253078 0)
(-0.0264222 -0.250019 0)
(-0.0340143 -0.245924 0)
(-0.0416031 -0.240782 0)
(-0.0491718 -0.234583 0)
(-0.0566971 -0.227314 0)
(-0.064148 -0.218967 0)
(-0.0714864 -0.209541 0)
(-0.0786668 -0.199037 0)
(-0.0856366 -0.187469 0)
(-0.0923376 -0.174857 0)
(-0.0987065 -0.161237 0)
(-0.104677 -0.146654 0)
(-0.110182 -0.131169 0)
(-0.115155 -0.114859 0)
(-0.119532 -0.0978156 0)
(-0.123259 -0.0801455 0)
(-0.126291 -0.0619678 0)
(-0.128565 -0.0434122 0)
(-0.130047 -0.0246345 0)
(-0.130971 -0.00578427 0)
(-0.00319337 -0.244467 0)
(-0.00973493 -0.248048 0)
(-0.0162724 -0.245974 0)
(-0.0228214 -0.242905 0)
(-0.029372 -0.238809 0)
(-0.0359112 -0.233681 0)
(-0.0424225 -0.227514 0)
(-0.0488847 -0.220304 0)
(-0.0552708 -0.212049 0)
(-0.0615484 -0.202753 0)
(-0.0676791 -0.192426 0)
(-0.0736193 -0.181085 0)
(-0.0793208 -0.168757 0)
(-0.0847325 -0.15548 0)
(-0.0898001 -0.141301 0)
(-0.09447 -0.126282 0)
(-0.0986899 -0.110495 0)
(-0.102411 -0.0940284 0)
(-0.105591 -0.0769811 0)
(-0.108196 -0.0594632 0)
(-0.110184 -0.0415933 0)
(-0.111519 -0.0235095 0)
(-0.112373 -0.00535427 0)
(-0.00267955 -0.238493 0)
(-0.00818253 -0.241984 0)
(-0.0136967 -0.23991 0)
(-0.0192152 -0.236835 0)
(-0.024734 -0.232743 0)
(-0.0302386 -0.227634 0)
(-0.0357132 -0.221505 0)
(-0.0411391 -0.214355 0)
(-0.0464937 -0.206188 0)
(-0.05175 -0.197012 0)
(-0.0568763 -0.186843 0)
(-0.061837 -0.175703 0)
(-0.0665931 -0.163621 0)
(-0.0711027 -0.150637 0)
(-0.0753232 -0.136801 0)
(-0.0792122 -0.122172 0)
(-0.082729 -0.106821 0)
(-0.0858376 -0.0908301 0)
(-0.0885067 -0.0742929 0)
(-0.0907123 -0.0573123 0)
(-0.0924277 -0.0399982 0)
(-0.093623 -0.0224749 0)
(-0.0944184 -0.00487938 0)
(-0.0021521 -0.233536 0)
(-0.0066072 -0.236917 0)
(-0.0111089 -0.234849 0)
(-0.015598 -0.231772 0)
(-0.0200872 -0.22769 0)
(-0.024563 -0.222606 0)
(-0.0290114 -0.216516 0)
(-0.0334182 -0.209423 0)
(-0.0377655 -0.201335 0)
(-0.042032 -0.192266 0)
(-0.0461924 -0.182233 0)
(-0.0502181 -0.171263 0)
(-0.0540772 -0.159389 0)
(-0.0577361 -0.146652 0)
(-0.0611601 -0.133101 0)
(-0.0643157 -0.118793 0)
(-0.0671726 -0.103796 0)
(-0.0697043 -0.0881878 0)
(-0.0718904 -0.0720557 0)
(-0.0737161 -0.0554984 0)
(-0.0751662 -0.0386187 0)
(-0.0762243 -0.0215284 0)
(-0.0769758 -0.00436065 0)
(-0.00160906 -0.229688 0)
(-0.00500914 -0.23289 0)
(-0.0085329 -0.230842 0)
(-0.0119872 -0.227772 0)
(-0.015421 -0.2237 0)
(-0.0188384 -0.218633 0)
(-0.0222335 -0.212568 0)
(-0.0255984 -0.20551 0)
(-0.0289263 -0.197471 0)
(-0.0322061 -0.18847 0)
(-0.0354158 -0.178529 0)
(-0.0385366 -0.16768 0)
(-0.0415441 -0.155959 0)
(-0.0444103 -0.143409 0)
(-0.0471052 -0.130082 0)
(-0.0495981 -0.116034 0)
(-0.0518602 -0.101327 0)
(-0.0538692 -0.0860306 0)
(-0.0556118 -0.0702237 0)
(-0.0570814 -0.0539991 0)
(-0.0582747 -0.0374518 0)
(-0.059193 -0.0206689 0)
(-0.0599072 -0.00377184 0)
(-0.0010713 -0.22713 0)
(-0.00349229 -0.230061 0)
(-0.00614462 -0.228056 0)
(-0.00861669 -0.224998 0)
(-0.0109875 -0.220912 0)