/*--------------------------------*- C++ -*----------------------------------*\
| =========                 |                                                 |
| \\      /  F ield         | OpenFOAM: The Open Source CFD Toolbox           |
|  \\    /   O peration     | Version:  2.4.0                                 |
|   \\  /    A nd           | Web:      www.OpenFOAM.org                      |
|    \\/     M anipulation  |                                                 |
\*---------------------------------------------------------------------------*/
FoamFile
{
    version     2.0;
    format      ascii;
    class       volVectorField;
    location    "0.15";
    object      U.water;
}
// * * * * * * * * * * * * * * * * * * * * * * * * * * * * * * * * * * * * * //

dimensions      [0 1 -1 0 0 0 0];

internalField   nonuniform List<vector> 
2268
(
(0.0152584 -0.00721445 0)
(0.0460351 -0.00733786 0)
(0.0776685 -0.00758528 0)
(0.110358 -0.00796782 0)
(0.146071 -0.00846442 0)
(0.180722 -0.00919057 0)
(0.227846 -0.0101109 0)
(0.261983 -0.0111894 0)
(0.326552 -0.0117838 0)
(0.367342 -0.0179196 0)
(0.450042 -0.0143325 0)
(0.527084 -0.0159099 0)
(0.585143 -0.0224593 0)
(0.677334 -0.0291176 0)
(0.811872 -0.0337751 0)
(0.961488 -0.034312 0)
(1.10675 -0.0284072 0)
(1.2273 -0.0145254 0)
(1.31331 -0.00466714 0)
(1.33784 -0.00979629 0)
(1.31 -0.00774366 0)
(1.10486 -0.0132722 0)
(0.998976 0.061522 0)
(0.0152064 -0.0216243 0)
(0.0458826 -0.0220001 0)
(0.0774099 -0.0227422 0)
(0.109998 -0.0238885 0)
(0.145555 -0.0253548 0)
(0.180061 -0.027671 0)
(0.227138 -0.0296498 0)
(0.260335 -0.0356791 0)
(0.325363 -0.0312302 0)
(0.368012 -0.0553304 0)
(0.447569 -0.0476779 0)
(0.518806 -0.0462245 0)
(0.582624 -0.0627965 0)
(0.693618 -0.0819894 0)
(0.837705 -0.0955704 0)
(0.978687 -0.101001 0)
(1.10116 -0.0947066 0)
(1.19674 -0.0824003 0)
(1.27702 -0.0525624 0)
(1.32365 0.000485772 0)
(1.35085 0.0772703 0)
(1.2054 0.21814 0)
(1.06507 0.693823 0)
(0.0150896 -0.0359505 0)
(0.0455321 -0.0365754 0)
(0.0768166 -0.0378097 0)
(0.109174 -0.039707 0)
(0.144366 -0.0421291 0)
(0.17865 -0.0459474 0)
(0.225253 -0.0496134 0)
(0.257299 -0.0571197 0)
(0.323447 -0.0572947 0)
(0.365722 -0.0866511 0)
(0.443264 -0.0750188 0)
(0.509218 -0.0786886 0)
(0.578595 -0.117059 0)
(0.702977 -0.151096 0)
(0.850997 -0.160219 0)
(0.982303 -0.149284 0)
(1.08798 -0.12241 0)
(1.16596 -0.0769081 0)
(1.22007 -0.0465458 0)
(1.23481 -0.0453005 0)
(1.26022 -0.041118 0)
(1.14595 0.139011 0)
(1.11517 0.8619 0)
(0.0149151 -0.0501372 0)
(0.0450092 -0.0510114 0)
(0.0759354 -0.0527367 0)
(0.107958 -0.0553605 0)
(0.142582 -0.0587123 0)
(0.17669 -0.0640247 0)
(0.221954 -0.0689285 0)
(0.253792 -0.0796259 0)
(0.319649 -0.080635 0)
(0.359848 -0.11707 0)
(0.435865 -0.10873 0)
(0.498603 -0.110565 0)
(0.577834 -0.160917 0)
(0.710771 -0.194138 0)
(0.857088 -0.19487 0)
(0.969473 -0.167053 0)
(1.04689 -0.123099 0)
(1.09366 -0.101939 0)
(1.10977 -0.0999461 0)
(1.12433 -0.0995274 0)
(1.15083 -0.0102024 0)
(0.853185 0.284749 0)
(1.16414 1.13501 0)
(0.0146822 -0.0641465 0)
(0.0443118 -0.0652702 0)
(0.0747695 -0.0674868 0)
(0.10635 -0.0708027 0)
(0.140248 -0.0750575 0)
(0.174056 -0.0816994 0)
(0.217671 -0.0881633 0)
(0.249349 -0.10083 0)
(0.314023 -0.105658 0)
(0.35267 -0.145917 0)
(0.422265 -0.133653 0)
(0.492023 -0.143856 0)
(0.587229 -0.192701 0)
(0.754717 -0.163862 0)
(0.907151 -0.088906 0)
(0.988194 -0.0628132 0)
(1.01759 -0.0517239 0)
(1.03978 -0.0257192 0)
(1.00751 -0.101038 0)
(0.929982 -0.0745003 0)
(0.854947 0.0720606 0)
(0.294819 0.441991 0)
(1.07137 1.4948 0)
(0.0143881 -0.0778878 0)
(0.0434315 -0.0792626 0)
(0.0733124 -0.081976 0)
(0.104342 -0.0859551 0)
(0.137374 -0.0910936 0)
(0.170717 -0.0990436 0)
(0.21246 -0.106924 0)
(0.24386 -0.122264 0)
(0.307297 -0.129925 0)
(0.34014 -0.169926 0)
(0.413081 -0.164819 0)
(0.496471 -0.153569 0)
(0.639593 -0.100943 0)
(0.765643 -0.147651 0)
(0.855103 -0.155222 0)
(0.899496 -0.130088 0)
(0.992329 -0.0883145 0)
(1.00865 -0.146343 0)
(1.02989 -0.182372 0)
(0.896729 -0.0577582 0)
(0.636716 0.294018 0)
(0.0450259 0.646567 0)
(0.595726 1.84539 0)
(0.0140212 -0.0911619 0)
(0.0423321 -0.0928069 0)
(0.0715112 -0.0960588 0)
(0.101844 -0.100703 0)
(0.13388 -0.106708 0)
(0.16657 -0.115884 0)
(0.206321 -0.124991 0)
(0.23749 -0.14252 0)
(0.298485 -0.15216 0)
(0.327783 -0.191829 0)
(0.408759 -0.170663 0)
(0.538563 -0.0612879 0)
(0.642286 -0.155375 0)
(0.719999 -0.22587 0)
(0.783193 -0.215885 0)
(0.908069 -0.229731 0)
(0.932148 -0.337887 0)
(0.971192 -0.328764 0)
(0.927458 -0.175742 0)
(0.625282 0.183279 0)
(0.459642 0.466865 0)
(0.0600405 0.70042 0)
(0.137865 2.00219 0)
(0.0135579 -0.0968696 0)
(0.0409499 -0.0980678 0)
(0.0692923 -0.100247 0)
(0.0987922 -0.103219 0)
(0.129795 -0.107169 0)
(0.161727 -0.115036 0)
(0.199575 -0.124103 0)
(0.230621 -0.143171 0)
(0.289309 -0.154719 0)
(0.31917 -0.19616 0)
(0.435484 -0.103808 0)
(0.521563 -0.117337 0)
(0.635487 -0.212307 0)
(0.655923 -0.292475 0)
(0.783373 -0.356244 0)
(0.782877 -0.441915 0)
(0.774212 -0.423377 0)
(0.731279 -0.330479 0)
(0.562223 0.0683676 0)
(0.443672 0.250917 0)
(0.399698 0.535231 0)
(0.179113 0.841386 0)
(0.06824 2.09267 0)
(-0.233916 0.141672 0)
(-0.878255 0.308798 0)
(-2.28893 0.529191 0)
(-3.91205 0.0421569 0)
(-1.41487 -0.715365 0)
(0.175743 -0.896657 0)
(0.372328 -0.891905 0)
(0.789279 -0.861767 0)
(1.40415 -0.84953 0)
(1.90531 -0.822846 0)
(2.70871 -0.804589 0)
(2.75444 -0.891909 0)
(2.93016 -1.13456 0)
(3.56989 -1.41279 0)
(3.7127 -1.09121 0)
(2.10476 -0.0335367 0)
(0.997373 0.184845 0)
(0.507192 0.0921149 0)
(0.154378 0.068713 0)
(-0.218425 0.350031 0)
(-0.686356 0.558315 0)
(-1.38639 0.714605 0)
(-1.03079 0.0460438 0)
(0.637809 -0.790121 0)
(0.873263 -0.872454 0)
(0.919074 -0.833532 0)
(1.06926 -0.757702 0)
(1.36669 -0.71288 0)
(1.6831 -0.651103 0)
(1.95129 -0.712269 0)
(2.03037 -0.814589 0)
(2.38477 -0.516553 0)
(3.18106 0.0256236 0)
(2.863 0.260521 0)
(1.62714 0.541729 0)
(0.924523 0.417804 0)
(0.489317 0.268963 0)
(0.151424 0.206559 0)
(-0.11667 0.559813 0)
(-0.397209 0.739594 0)
(-0.39216 0.833181 0)
(0.621209 -0.309256 0)
(0.989497 -0.845481 0)
(1.04373 -0.87259 0)
(1.08079 -0.853259 0)
(1.22394 -0.77172 0)
(1.46921 -0.686375 0)
(1.66701 -0.724199 0)
(1.76837 -0.895049 0)
(2.01566 -0.760218 0)
(2.53534 -0.409061 0)
(2.55437 -0.0991718 0)
(1.8331 0.717858 0)
(1.06234 0.955504 0)
(0.733478 0.649071 0)
(0.42144 0.422034 0)
(0.135675 0.334014 0)
(-0.072425 0.606145 0)
(-0.119538 0.755019 0)
(0.0297436 0.369608 0)
(0.990615 -0.605506 0)
(1.12523 -0.790077 0)
(1.23286 -0.877269 0)
(1.30499 -0.894086 0)
(1.44568 -0.840333 0)
(1.58812 -0.799262 0)
(1.70347 -0.947897 0)
(1.86373 -1.04068 0)
(2.23694 -0.692695 0)
(2.38109 0.0191929 0)
(1.87642 0.56306 0)
(1.05394 1.0771 0)
(0.733417 1.09504 0)
(0.576736 0.761638 0)
(0.353706 0.539052 0)
(0.117092 0.445775 0)
(-0.0294415 0.688145 0)
(-0.0651711 0.616129 0)
(0.882314 0.0198876 0)
(1.07131 -0.644343 0)
(1.293 -0.760943 0)
(1.43024 -0.918314 0)
(1.47864 -0.937566 0)
(1.55554 -0.891593 0)
(1.61473 -0.91159 0)
(1.7159 -1.04907 0)
(1.88985 -1.06355 0)
(2.00197 -0.44326 0)
(1.79207 0.20106 0)
(1.12593 0.777205 0)
(0.606477 1.20631 0)
(0.527118 1.14834 0)
(0.451234 0.831086 0)
(0.29078 0.628887 0)
(0.0982512 0.539012 0)
(-0.0458436 0.626147 0)
(0.0878751 0.412854 0)
(0.980004 -0.388624 0)
(1.21671 -0.578817 0)
(1.46136 -0.783628 0)
(1.5484 -0.944523 0)
(1.56247 -0.945953 0)
(1.59196 -0.92889 0)
(1.61857 -0.979196 0)
(1.711 -1.07482 0)
(1.7922 -1.03402 0)
(1.46487 -0.203254 0)
(1.06759 0.426917 0)
(0.553681 0.981546 0)
(0.330324 1.28032 0)
(0.364537 1.15176 0)
(0.349609 0.876643 0)
(0.23448 0.701437 0)
(0.0806638 0.618717 0)
(-0.0550264 0.805933 0)
(1.02969 -0.0826422 0)
(1.09018 -0.3552 0)
(1.38279 -0.574086 0)
(1.59169 -0.827804 0)
(1.62136 -0.939379 0)
(1.61297 -0.93984 0)
(1.60638 -0.944618 0)
(1.62795 -1.00388 0)
(1.71607 -1.07057 0)
(1.61739 -0.886522 0)
(0.908166 0.00249974 0)
(0.525325 0.631166 0)
(0.181244 1.11261 0)
(0.146815 1.26999 0)
(0.251367 1.11721 0)
(0.268621 0.895088 0)
(0.185931 0.749325 0)
(0.0649979 0.677082 0)
(1.06981 -0.0430393 0)
(1.08189 -0.206443 0)
(1.22703 -0.357404 0)
(1.56522 -0.67885 0)
(1.687 -0.867992 0)
(1.67568 -0.928905 0)
(1.63823 -0.931762 0)
(1.61865 -0.954775 0)
(1.64909 -1.00661 0)
(1.73829 -1.05287 0)
(1.29248 -0.632249 0)
(0.412969 0.270566 0)
(0.0824752 0.782578 0)
(-0.0681895 1.14978 0)
(0.0384886 1.22242 0)
(0.176179 1.08653 0)
(0.202431 0.914932 0)
(0.145116 0.795355 0)
(0.0514526 0.732574 0)
(0.0133232 -0.0763236 0)
(0.0405453 -0.0733537 0)
(0.069987 -0.064581 0)
(0.102574 -0.0468241 0)
(0.139308 -0.0172125 0)
(0.176493 0.0060893 0)
(0.215579 -0.00152352 0)
(0.252338 -0.0254998 0)
(0.312727 -0.04949 0)
(0.351136 -0.109322 0)
(0.427754 -0.16628 0)
(0.492326 -0.212831 0)
(0.538684 -0.273171 0)
(0.586013 -0.385449 0)
(0.637041 -0.481715 0)
(0.642025 -0.446334 0)
(0.611035 -0.357743 0)
(0.524816 -0.135339 0)
(0.410136 0.128624 0)
(0.452302 0.252854 0)
(0.419858 0.543616 0)
(0.703306 0.733534 0)
(1.0671 1.86725 0)
(0.01441 0.0296061 0)
(0.0439012 0.025051 0)
(0.0753056 0.0158566 0)
(0.1069 0.00378581 0)
(0.140243 -0.013056 0)
(0.173721 -0.0416058 0)
(0.209836 -0.0694169 0)
(0.243944 -0.111399 0)
(0.268511 -0.146558 0)
(0.31635 -0.198022 0)
(0.35252 -0.246027 0)
(0.432679 -0.239301 0)
(0.499245 -0.405008 0)
(0.579144 -0.551384 0)
(0.609151 -0.525551 0)
(0.589957 -0.414757 0)
(0.558981 -0.298201 0)
(0.509055 -0.0808682 0)
(0.443848 0.14901 0)
(0.523165 0.196976 0)
(0.570492 0.423349 0)
(0.761982 0.437861 0)
(1.20529 0.869708 0)
(0.0119562 -0.0770162 0)
(0.0362638 -0.0822481 0)
(0.0625904 -0.091967 0)
(0.0879524 -0.102858 0)
(0.117344 -0.113493 0)
(0.141889 -0.132098 0)
(0.173132 -0.146242 0)
(0.214597 -0.168711 0)
(0.262779 -0.188145 0)
(0.336618 -0.237859 0)
(0.406619 -0.312901 0)
(0.486889 -0.493065 0)
(0.563984 -0.580495 0)
(0.597864 -0.583805 0)
(0.605288 -0.526294 0)
(0.579906 -0.35223 0)
(0.562475 -0.234777 0)
(0.558487 -0.112559 0)
(0.532159 0.106834 0)
(0.599135 0.118342 0)
(0.694998 0.261659 0)
(0.838741 0.222922 0)
(1.09838 0.41753 0)
(0.0166438 -0.0864875 0)
(0.0495026 -0.0936436 0)
(0.0839743 -0.0994269 0)
(0.120948 -0.111756 0)
(0.166051 -0.120082 0)
(0.214784 -0.157277 0)
(0.27126 -0.20325 0)
(0.33552 -0.277132 0)
(0.402416 -0.363808 0)
(0.459648 -0.456354 0)
(0.514787 -0.489226 0)
(0.551206 -0.540228 0)
(0.577388 -0.581581 0)
(0.589706 -0.580889 0)
(0.591047 -0.510047 0)
(0.560597 -0.32368 0)
(0.550432 -0.211559 0)
(0.569651 -0.131877 0)
(0.577688 0.0568237 0)
(0.62972 0.0543271 0)
(0.737232 0.120011 0)
(0.858222 0.0889172 0)
(1.05588 0.183108 0)
(0.0267116 -0.288069 0)
(0.0770248 -0.294217 0)
(0.127228 -0.302996 0)
(0.170739 -0.325098 0)
(0.223986 -0.341458 0)
(0.272933 -0.367205 0)
(0.323902 -0.389584 0)
(0.371208 -0.41522 0)
(0.409457 -0.435718 0)
(0.451817 -0.472457 0)
(0.471731 -0.498793 0)
(0.491138 -0.56387 0)
(0.526058 -0.592129 0)
(0.543639 -0.579933 0)
(0.541979 -0.486287 0)
(0.504545 -0.299401 0)
(0.507218 -0.208475 0)
(0.536304 -0.138923 0)
(0.5727 0.00438694 0)
(0.635684 -0.0108753 0)
(0.752565 -0.0101911 0)
(0.842732 -0.0220216 0)
(1.00704 -0.0280604 0)
(0.0201611 -0.280188 0)
(0.0615812 -0.282147 0)
(0.104025 -0.289961 0)
(0.147902 -0.301109 0)
(0.189824 -0.316213 0)
(0.233005 -0.338655 0)
(0.271107 -0.366671 0)
(0.308571 -0.400905 0)
(0.336797 -0.439893 0)
(0.373398 -0.488471 0)
(0.399922 -0.515831 0)
(0.431561 -0.585725 0)
(0.470755 -0.612674 0)
(0.488902 -0.591839 0)
(0.480486 -0.468759 0)
(0.443076 -0.300763 0)
(0.453335 -0.231171 0)
(0.491473 -0.133871 0)
(0.55201 -0.055383 0)
(0.626476 -0.0936768 0)
(0.728205 -0.117204 0)
(0.811403 -0.139535 0)
(0.955455 -0.188556 0)
(0.0196645 -0.328195 0)
(0.0591107 -0.334335 0)
(0.0972412 -0.343188 0)
(0.136033 -0.357099 0)
(0.171965 -0.374164 0)
(0.207773 -0.396143 0)
(0.241953 -0.42231 0)
(0.278091 -0.452294 0)
(0.309173 -0.485646 0)
(0.346842 -0.525014 0)
(0.373687 -0.551714 0)
(0.409089 -0.6234 0)
(0.445601 -0.639032 0)
(0.457283 -0.603807 0)
(0.429884 -0.460008 0)
(0.393263 -0.317006 0)
(0.408075 -0.261739 0)
(0.453186 -0.142653 0)
(0.519897 -0.125264 0)
(0.598929 -0.175591 0)
(0.687249 -0.209699 0)
(0.766861 -0.248449 0)
(0.896164 -0.307117 0)
(0.0171221 -0.366875 0)
(0.0510991 -0.371026 0)
(0.0851532 -0.379561 0)
(0.118103 -0.391528 0)
(0.151928 -0.409977 0)
(0.184446 -0.430521 0)
(0.216888 -0.456831 0)
(0.248323 -0.485928 0)
(0.276229 -0.517845 0)
(0.311683 -0.558485 0)
(0.326586 -0.588113 0)
(0.361128 -0.652648 0)
(0.395203 -0.654975 0)
(0.399251 -0.594535 0)
(0.354388 -0.429666 0)
(0.331639 -0.324782 0)
(0.353923 -0.267823 0)
(0.416464 -0.169962 0)
(0.481574 -0.19637 0)
(0.5589 -0.254164 0)
(0.636906 -0.294698 0)
(0.715088 -0.344178 0)
(0.825481 -0.406608 0)
(0.0151062 -0.396823 0)
(0.0453522 -0.401544 0)
(0.0751652 -0.40938 0)
(0.104962 -0.421524 0)
(0.133389 -0.436502 0)
(0.161443 -0.456744 0)
(0.188011 -0.479794 0)
(0.214762 -0.507628 0)
(0.238406 -0.540368 0)
(0.267437 -0.575471 0)
(0.286351 -0.605851 0)
(0.32402 -0.677239 0)
(0.352192 -0.671092 0)
(0.341062 -0.583882 0)
(0.285019 -0.41966 0)
(0.277621 -0.347443 0)
(0.309309 -0.243775 0)
(0.378631 -0.225942 0)
(0.438094 -0.265975 0)
(0.511488 -0.326677 0)
(0.578866 -0.372155 0)
(0.65492 -0.431679 0)
(0.752522 -0.506785 0)
(0.0131491 -0.426295 0)
(0.0393428 -0.430565 0)
(0.0653016 -0.438096 0)
(0.0905209 -0.449357 0)
(0.115407 -0.46544 0)
(0.139488 -0.484849 0)
(0.16305 -0.509089 0)
(0.186049 -0.536769 0)
(0.207415 -0.568332 0)
(0.233107 -0.606136 0)
(0.246076 -0.642093 0)
(0.28234 -0.704843 0)
(0.303203 -0.680136 0)
(0.269811 -0.555961 0)
(0.217721 -0.413565 0)
(0.2236 -0.363376 0)
(0.269882 -0.250846 0)
(0.33679 -0.2855 0)
(0.390295 -0.32977 0)
(0.456913 -0.39112 0)
(0.514243 -0.442775 0)
(0.586949 -0.51265 0)
(0.673679 -0.603593 0)
(0.0111556 -0.449604 0)
(0.0334122 -0.4539 0)
(0.0554428 -0.461159 0)
(0.0772349 -0.472161 0)
(0.0981692 -0.486784 0)
(0.118342 -0.5056 0)
(0.137548 -0.527846 0)
(0.155767 -0.554436 0)
(0.172843 -0.585937 0)
(0.191589 -0.620965 0)
(0.203436 -0.660316 0)
(0.234679 -0.724498 0)
(0.247185 -0.675467 0)
(0.187326 -0.527492 0)
(0.155192 -0.416651 0)
(0.178056 -0.332764 0)
(0.235452 -0.295872 0)
(0.291347 -0.340662 0)
(0.339627 -0.387137 0)
(0.397532 -0.447353 0)
(0.444207 -0.50346 0)
(0.508339 -0.583231 0)
(0.585016 -0.680191 0)
(0.00908282 -0.472005 0)
(0.0271643 -0.476181 0)
(0.0452568 -0.483029 0)
(0.0635625 -0.492915 0)
(0.0812066 -0.506877 0)
(0.0977032 -0.52437 0)
(0.113104 -0.54567 0)
(0.127085 -0.57057 0)
(0.139867 -0.599881 0)
(0.150846 -0.634492 0)
(0.160967 -0.67879 0)
(0.180477 -0.73848 0)
(0.179997 -0.662396 0)
(0.0983838 -0.497861 0)
(0.10022 -0.426912 0)
(0.141788 -0.321937 0)
(0.198007 -0.349244 0)
(0.246202 -0.389582 0)
(0.288056 -0.43498 0)
(0.337836 -0.488798 0)
(0.370986 -0.548615 0)
(0.43041 -0.633645 0)
(0.466561 -0.774577 0)
(0.00767472 -0.483901 0)
(0.0229132 -0.487712 0)
(0.0377976 -0.494237 0)
(0.0520307 -0.504048 0)
(0.0662224 -0.516153 0)
(0.0794619 -0.531612 0)
(0.0915124 -0.550491 0)
(0.101699 -0.573171 0)
(0.109994 -0.600456 0)
(0.111124 -0.633971 0)
(0.11633 -0.680925 0)
(0.100278 -0.740617 0)
(0.087045 -0.638252 0)
(0.0138938 -0.48019 0)
(0.0628926 -0.408268 0)
(0.113859 -0.364535 0)
(0.162081 -0.391832 0)
(0.205732 -0.4251 0)
(0.242824 -0.466281 0)
(0.283673 -0.516705 0)
(0.299281 -0.607841 0)
(0.32733 -0.739247 0)
(0.250527 -0.98149 0)
(0.00677272 -0.495382 0)
(0.0201126 -0.499251 0)
(0.0327274 -0.506033 0)
(0.044031 -0.516875 0)
(0.0544431 -0.532028 0)
(0.0643161 -0.551923 0)
(0.0729444 -0.577652 0)
(0.0792363 -0.609453 0)
(0.0819857 -0.647255 0)
(0.0736469 -0.691683 0)
(0.0663424 -0.742835 0)
(-0.0131881 -0.79255 0)
(-0.0423978 -0.611553 0)
(-0.0286725 -0.48055 0)
(0.0478736 -0.398646 0)
(0.0910008 -0.405896 0)
(0.136306 -0.429515 0)
(0.173848 -0.471356 0)
(0.202235 -0.538134 0)
(0.207797 -0.629504 0)
(0.17673 -0.771716 0)
(0.137698 -0.966208 0)
(-0.0289944 -1.24019 0)
(0.00521056 -0.593087 0)
(0.0150284 -0.598907 0)
(0.0239962 -0.609309 0)
(0.0312255 -0.625076 0)
(0.0361859 -0.646386 0)
(0.0388223 -0.673131 0)
(0.0393509 -0.705275 0)
(0.0374985 -0.7433 0)
(0.0325605 -0.791033 0)
(0.0209669 -0.846241 0)
(-0.00498103 -0.896936 0)
(-0.113575 -0.934102 0)
(-0.105739 -0.670059 0)
(-0.0350074 -0.55138 0)
(0.0396583 -0.524217 0)
(0.0785224 -0.537166 0)
(0.101511 -0.573846 0)
(0.107228 -0.635142 0)
(0.0959044 -0.735641 0)
(0.0592916 -0.868926 0)
(-0.0435926 -1.04099 0)
(-0.163025 -0.440518 0)
(-0.609266 -0.531071 0)
(0.00156933 -0.808566 0)
(0.00329897 -0.818761 0)
(0.00499786 -0.837793 0)
(0.00494192 -0.867602 0)
(0.00314719 -0.910591 0)
(-0.00224836 -0.97278 0)
(-0.012119 -1.06708 0)
(-0.0298864 -1.22513 0)
(-0.0507688 -1.41817 0)
(-0.0641996 -1.57543 0)
(-0.126002 -1.66746 0)
(-0.200796 -1.73626 0)
(-0.10468 -1.08307 0)
(-0.0150353 -0.773899 0)
(0.018238 -0.76275 0)
(0.0289544 -0.785165 0)
(0.0166071 -0.843282 0)
(-0.0364412 -0.932874 0)
(-0.101833 -0.683676 0)
(-0.249212 -0.101616 0)
(-0.410641 -0.303498 0)
(-0.355754 -0.585119 0)
(-0.535656 -0.15147 0)
(0.000764468 -1.33307 0)
(-0.00770478 -1.3663 0)
(-0.0133534 -1.41486 0)
(-0.0188321 -1.47796 0)
(-0.0252477 -1.60197 0)
(-0.0332347 -1.73219 0)
(-0.0616399 -1.9033 0)
(-0.129003 -1.78344 0)
(-0.255779 -1.19306 0)
(-0.250439 -0.845092 0)
(-0.0648563 -0.848641 0)
(0.128055 -0.8676 0)
(0.0459735 -0.80893 0)
(-0.0332138 -0.58739 0)
(-0.152112 -0.379579 0)
(-0.29355 -0.203516 0)
(-0.432653 -0.0929082 0)
(-0.499159 -0.288979 0)
(-0.398363 -0.668702 0)
(-0.223949 -0.773965 0)
(-0.144445 -0.630275 0)
(-0.374924 -0.215584 0)
(-0.71073 0.0861183 0)
(0.00868767 -0.765649 0)
(-0.0424657 -0.769968 0)
(-0.0605405 -0.775715 0)
(-0.0725169 -0.770645 0)
(-0.0788128 -0.762583 0)
(-0.0859834 -0.753879 0)
(-0.0918691 -0.765642 0)
(-0.0920669 -0.743021 0)
(-0.0999295 -0.682731 0)
(-0.133892 -0.63454 0)
(-0.166372 -0.638336 0)
(-0.252374 -0.745992 0)
(-0.368171 -0.715934 0)
(-0.416778 -0.605446 0)
(-0.400824 -0.607522 0)
(-0.35391 -0.663399 0)
(-0.274613 -0.692549 0)
(-0.202385 -0.673524 0)
(-0.186568 -0.575162 0)
(-0.256312 -0.380733 0)
(-0.473433 -0.0786062 0)
(-0.712164 0.109492 0)
(-0.737979 0.145617 0)
(-0.00185995 -0.332232 0)
(-0.0061397 -0.337353 0)
(-0.0107115 -0.340336 0)
(-0.022132 -0.347858 0)
(-0.03878 -0.360712 0)
(-0.062914 -0.381171 0)
(-0.0923322 -0.405091 0)
(-0.126006 -0.433753 0)
(-0.163852 -0.46612 0)
(-0.207938 -0.490872 0)
(-0.264896 -0.509037 0)
(-0.334481 -0.522207 0)
(-0.37999 -0.439757 0)
(-0.387474 -0.357617 0)
(-0.356401 -0.326359 0)
(-0.361988 -0.321994 0)
(-0.389497 -0.340993 0)
(-0.43624 -0.373779 0)
(-0.525655 -0.371877 0)
(-0.652901 -0.254204 0)
(-0.738822 -0.0552031 0)
(-0.745518 0.0511966 0)
(-0.694466 0.115341 0)
(-0.00772215 -0.438832 0)
(-0.023244 -0.450206 0)
(-0.0376827 -0.458459 0)
(-0.0534693 -0.468418 0)
(-0.0705772 -0.479681 0)
(-0.090546 -0.490387 0)
(-0.114457 -0.498672 0)
(-0.142675 -0.503902 0)
(-0.175731 -0.505867 0)
(-0.212239 -0.501654 0)
(-0.253775 -0.496696 0)
(-0.304715 -0.490059 0)
(-0.351463 -0.444459 0)
(-0.378668 -0.402628 0)
(-0.402359 -0.389292 0)
(-0.43265 -0.394188 0)
(-0.473047 -0.409639 0)
(-0.530886 -0.415599 0)
(-0.619806 -0.370036 0)
(-0.707336 -0.224788 0)
(-0.722024 -0.0385324 0)
(-0.68494 0.035196 0)
(-0.626621 0.0615634 0)
(-0.00647331 -0.473168 0)
(-0.0196628 -0.480201 0)
(-0.0336988 -0.480241 0)
(-0.0492755 -0.480996 0)
(-0.0669382 -0.482243 0)
(-0.0874465 -0.483941 0)
(-0.111483 -0.485351 0)
(-0.139352 -0.485883 0)
(-0.171148 -0.48454 0)
(-0.206604 -0.481302 0)
(-0.248011 -0.478111 0)
(-0.296983 -0.469862 0)
(-0.340563 -0.44689 0)
(-0.36695 -0.423382 0)
(-0.388688 -0.400465 0)
(-0.414573 -0.380239 0)
(-0.452016 -0.357225 0)
(-0.504239 -0.322126 0)
(-0.582699 -0.270193 0)
(-0.644254 -0.191362 0)
(-0.633701 -0.0770956 0)
(-0.602852 -0.00196376 0)
(-0.569602 0.0281121 0)
(-0.00720158 -0.409816 0)
(-0.0222664 -0.418029 0)
(-0.0379128 -0.419889 0)
(-0.0547689 -0.422543 0)
(-0.0733329 -0.425459 0)
(-0.0941226 -0.428184 0)
(-0.117449 -0.429959 0)
(-0.143445 -0.430201 0)
(-0.171894 -0.428426 0)
(-0.202879 -0.424668 0)
(-0.237184 -0.419765 0)
(-0.272893 -0.411257 0)
(-0.305788 -0.392562 0)
(-0.334527 -0.365582 0)
(-0.361437 -0.340034 0)
(-0.389825 -0.316341 0)
(-0.41983 -0.291528 0)
(-0.454783 -0.26098 0)
(-0.501434 -0.216682 0)
(-0.541298 -0.147093 0)
(-0.554905 -0.0749847 0)
(-0.537253 -0.0299575 0)
(-0.506173 0.010568 0)
(-0.00770296 -0.4051 0)
(-0.0237978 -0.412457 0)
(-0.0403 -0.41295 0)
(-0.0577197 -0.413881 0)
(-0.0763206 -0.414659 0)
(-0.096308 -0.414926 0)
(-0.117829 -0.414227 0)
(-0.140821 -0.41208 0)
(-0.165322 -0.408232 0)
(-0.191555 -0.402252 0)
(-0.219236 -0.392788 0)
(-0.247885 -0.378344 0)
(-0.277941 -0.359233 0)
(-0.307118 -0.337665 0)
(-0.336146 -0.316378 0)
(-0.366447 -0.293882 0)
(-0.399669 -0.268055 0)
(-0.432042 -0.237691 0)
(-0.455665 -0.206684 0)
(-0.466792 -0.163726 0)
(-0.475689 -0.0974435 0)
(-0.476522 -0.0298992 0)
(-0.470535 0.0104941 0)
(-0.00775361 -0.387112 0)
(-0.023943 -0.39361 0)
(-0.0404898 -0.393209 0)
(-0.0577266 -0.392693 0)
(-0.0758764 -0.391807 0)
(-0.0951677 -0.390315 0)
(-0.115724 -0.38794 0)
(-0.137613 -0.384339 0)
(-0.160879 -0.379038 0)
(-0.185502 -0.371547 0)
(-0.211234 -0.361389 0)
(-0.237474 -0.348198 0)
(-0.263137 -0.33261 0)
(-0.288604 -0.314792 0)
(-0.311784 -0.292439 0)
(-0.333521 -0.267132 0)
(-0.353422 -0.238735 0)
(-0.376725 -0.206953 0)
(-0.404323 -0.163871 0)
(-0.430746 -0.113387 0)
(-0.438519 -0.0714946 0)
(-0.43426 -0.0415643 0)
(-0.428441 0.00120712 0)
(-0.00767599 -0.374371 0)
(-0.0234787 -0.380677 0)
(-0.0396173 -0.380063 0)
(-0.0563072 -0.379271 0)
(-0.0737514 -0.377924 0)
(-0.0921371 -0.375807 0)
(-0.111605 -0.372622 0)
(-0.132253 -0.368062 0)
(-0.1541 -0.36182 0)
(-0.176885 -0.353479 0)
(-0.200039 -0.342564 0)
(-0.223001 -0.32873 0)
(-0.245686 -0.311525 0)
(-0.267961 -0.291378 0)
(-0.290834 -0.270315 0)
(-0.313441 -0.246941 0)
(-0.335857 -0.221151 0)
(-0.356227 -0.192611 0)
(-0.371784 -0.162059 0)
(-0.380155 -0.126437 0)
(-0.385459 -0.0831695 0)
(-0.391165 -0.0380601 0)
(-0.392198 -0.00035641 0)
(-0.00747287 -0.3559 0)
(-0.023011 -0.36157 0)
(-0.038752 -0.360409 0)
(-0.05495 -0.358773 0)
(-0.0717085 -0.356385 0)
(-0.0891286 -0.353082 0)
(-0.107268 -0.348671 0)
(-0.126131 -0.342923 0)
(-0.145664 -0.335588 0)
(-0.16577 -0.32641 0)
(-0.186308 -0.31519 0)
(-0.207099 -0.301923 0)
(-0.227801 -0.286731 0)
(-0.248008 -0.269242 0)
(-0.267224 -0.248666 0)
(-0.285523 -0.225514 0)
(-0.30265 -0.199678 0)
(-0.318827 -0.171009 0)
(-0.333727 -0.138607 0)
(-0.34606 -0.1042 0)
(-0.353222 -0.0709199 0)
(-0.355849 -0.038634 0)
(-0.355856 -0.00387724 0)
(-0.00724273 -0.342967 0)
(-0.0221618 -0.348388 0)
(-0.0372603 -0.347026 0)
(-0.0527002 -0.345092 0)
(-0.0685717 -0.342336 0)
(-0.0849589 -0.338614 0)
(-0.101908 -0.333747 0)
(-0.119421 -0.327539 0)
(-0.137433 -0.319764 0)
(-0.155794 -0.310197 0)
(-0.174298 -0.298664 0)
(-0.192752 -0.285023 0)
(-0.211022 -0.269185 0)
(-0.22899 -0.251301 0)
(-0.246449 -0.231587 0)
(-0.263066 -0.209807 0)
(-0.278586 -0.185956 0)
(-0.292504 -0.159897 0)
(-0.304126 -0.131655 0)
(-0.312759 -0.101171 0)
(-0.318392 -0.0690027 0)
(-0.321884 -0.0367699 0)
(-0.323241 -0.00518316 0)
(-0.00688926 -0.327548 0)
(-0.0211136 -0.332571 0)
(-0.0354548 -0.330943 0)
(-0.0500584 -0.328609 0)
(-0.0649801 -0.325349 0)
(-0.0802731 -0.32106 0)
(-0.0959587 -0.315611 0)
(-0.112021 -0.308858 0)
(-0.128402 -0.300655 0)
(-0.145001 -0.290869 0)
(-0.161689 -0.279395 0)
(-0.17831 -0.266166 0)
(-0.194669 -0.251121 0)
(-0.21056 -0.234153 0)
(-0.225801 -0.215177 0)
(-0.240193 -0.194254 0)
(-0.253483 -0.171396 0)
(-0.265384 -0.146661 0)
(-0.275533 -0.120185 0)
(-0.283436 -0.0924266 0)
(-0.288587 -0.0639743 0)
(-0.291504 -0.0352447 0)
(-0.292872 -0.00623575 0)
(-0.00651569 -0.314392 0)
(-0.0199313 -0.319157 0)
(-0.0334283 -0.317384 0)
(-0.0471205 -0.314825 0)
(-0.0610424 -0.311295 0)
(-0.0752265 -0.306707 0)
(-0.08968 -0.300957 0)
(-0.10438 -0.293929 0)
(-0.119268 -0.285508 0)
(-0.134259 -0.275585 0)
(-0.149241 -0.264078 0)
(-0.164085 -0.250918 0)
(-0.178651 -0.236069 0)
(-0.192774 -0.219529 0)
(-0.206263 -0.201311 0)
(-0.218915 -0.181415 0)
(-0.230498 -0.159885 0)
(-0.240754 -0.13679 0)
(-0.249418 -0.112279 0)
(-0.256187 -0.086586 0)
(-0.260767 -0.0601276 0)
(-0.263479 -0.0334491 0)
(-0.264927 -0.00670531 0)
(-0.00608912 -0.301403 0)
(-0.0186209 -0.305905 0)
(-0.0312035 -0.304009 0)
(-0.0439277 -0.301261 0)
(-0.0568125 -0.297503 0)
(-0.0698765 -0.292671 0)
(-0.0831168 -0.286687 0)
(-0.0965075 -0.279467 0)
(-0.109998 -0.270929 0)
(-0.123513 -0.260999 0)
(-0.136959 -0.249618 0)
(-0.150221 -0.236738 0)
(-0.163168 -0.22233 0)
(-0.175655 -0.206377 0)
(-0.187523 -0.188889 0)
(-0.198599 -0.169903 0)
(-0.208692 -0.149485 0)
(-0.2176 -0.127743 0)
(-0.225128 -0.104837 0)
(-0.231062 -0.0809906 0)
(-0.235152 -0.0565064 0)
(-0.237592 -0.0317612 0)
(-0.238982 -0.00691096 0)
(-0.00563995 -0.289541 0)
(-0.0172342 -0.29383 0)
(-0.0288564 -0.291858 0)
(-0.040579 -0.288986 0)
(-0.0524091 -0.285084 0)
(-0.0643544 -0.280102 0)
(-0.0764059 -0.273983 0)
(-0.0885362 -0.266663 0)
(-0.100699 -0.258083 0)
(-0.112829 -0.248189 0)
(-0.124845 -0.23694 0)
(-0.136649 -0.224305 0)
(-0.148129 -0.21027 0)
(-0.159158 -0.19484 0)
(-0.169598 -0.178039 0)
(-0.179301 -0.159912 0)
(-0.188108 -0.140534 0)
(-0.195861 -0.120011 0)
(-0.202413 -0.0984936 0)
(-0.207613 -0.0761673 0)
(-0.211271 -0.053276 0)
(-0.21348 -0.0301314 0)
(-0.214785 -0.00689871 0)
(-0.00516953 -0.278534 0)
(-0.0157881 -0.282634 0)
(-0.0264183 -0.28061 0)
(-0.0371173 -0.277653 0)
(-0.0478843 -0.273655 0)
(-0.0587194 -0.26858 0)
(-0.0696099 -0.262386 0)
(-0.0805284 -0.255028 0)
(-0.0914326 -0.246464 0)
(-0.102265 -0.23666 0)
(-0.112955 -0.225587 0)
(-0.123418 -0.213229 0)
(-0.133555 -0.199583 0)
(-0.14326 -0.184664 0)
(-0.152417 -0.168504 0)
(-0.1609 -0.151157 0)
(-0.168583 -0.1327 0)
(-0.175338 -0.113243 0)
(-0.181052 -0.0929231 0)
(-0.185616 -0.071902 0)
(-0.188882 -0.0503777 0)
(-0.190881 -0.0286033 0)
(-0.192084 -0.00674684 0)
(-0.00468644 -0.26852 0)
(-0.0143043 -0.272459 0)
(-0.0239226 -0.270406 0)
(-0.0335863 -0.267395 0)
(-0.0432894 -0.263341 0)
(-0.0530268 -0.258216 0)
(-0.0627835 -0.251993 0)
(-0.072533 -0.244639 0)
(-0.0822367 -0.236129 0)
(-0.0918443 -0.226438 0)
(-0.101294 -0.215552 0)
(-0.110512 -0.203468 0)
(-0.119417 -0.190191 0)
(-0.127918 -0.175746 0)
(-0.135915 -0.160171 0)
(-0.143309 -0.143524 0)
(-0.149994 -0.125884 0)
(-0.15587 -0.107355 0)
(-0.160848 -0.0880616 0)
(-0.164847 -0.0681492 0)
(-0.167756 -0.0477841 0)
(-0.169566 -0.0271775 0)
(-0.17067 -0.00649322 0)
(-0.00419469 -0.25949 0)
(-0.0127958 -0.263291 0)
(-0.0213906 -0.261223 0)
(-0.0300145 -0.258181 0)
(-0.0386581 -0.254097 0)
(-0.0473131 -0.248954 0)
(-0.055963 -0.242732 0)
(-0.0645827 -0.235413 0)
(-0.0731375 -0.226978 0)
(-0.0815833 -0.217417 0)
(-0.0898667 -0.206725 0)
(-0.0979256 -0.194907 0)
(-0.10569 -0.181978 0)
(-0.113084 -0.167967 0)
(-0.120026 -0.152918 0)
(-0.126433 -0.136892 0)
(-0.132222 -0.119966 0)
(-0.137312 -0.102237 0)
(-0.141634 -0.0838228 0)
(-0.145126 -0.0648519 0)
(-0.147706 -0.0454698 0)
(-0.149345 -0.0258562 0)
(-0.150353 -0.00616802 0)
(-0.00369711 -0.251469 0)
(-0.0112716 -0.255151 0)
(-0.0188376 -0.253078 0)
(-0.0264222 -0.250019 0)
(-0.0340143 -0.245924 0)
(-0.0416031 -0.240782 0)
(-0.0491718 -0.234583 0)
(-0.0566971 -0.227314 0)
(-0.064148 -0.218967 0)
(-0.0714864 -0.209541 0)
(-0.0786668 -0.199037 0)
(-0.0856366 -0.187469 0)
(-0.0923376 -0.174857 0)
(-0.0987065 -0.161237 0)
(-0.104677 -0.146654 0)
(-0.110182 -0.131169 0)
(-0.115155 -0.114859 0)
(-0.119532 -0.0978156 0)
(-0.123259 -0.0801455 0)
(-0.126291 -0.0619678 0)
(-0.128565 -0.0434122 0)
(-0.130047 -0.0246345 0)
(-0.130971 -0.00578427 0)
(-0.00319337 -0.244467 0)
(-0.00973493 -0.248048 0)
(-0.0162724 -0.245974 0)
(-0.0228214 -0.242905 0)
(-0.029372 -0.238809 0)
(-0.0359112 -0.233681 0)
(-0.0424225 -0.227514 0)
(-0.0488847 -0.220304 0)
(-0.0552708 -0.212049 0)
(-0.0615484 -0.202753 0)
(-0.0676791 -0.192426 0)
(-0.0736193 -0.181085 0)
(-0.0793208 -0.168757 0)
(-0.0847325 -0.15548 0)
(-0.0898001 -0.141301 0)
(-0.09447 -0.126282 0)
(-0.0986899 -0.110495 0)
(-0.102411 -0.0940284 0)
(-0.105591 -0.0769811 0)
(-0.108196 -0.0594632 0)
(-0.110184 -0.0415933 0)
(-0.111519 -0.0235095 0)
(-0.112373 -0.00535427 0)
(-0.00267955 -0.238493 0)
(-0.00818253 -0.241984 0)
(-0.0136967 -0.23991 0)
(-0.0192152 -0.236835 0)
(-0.024734 -0.232743 0)
(-0.0302386 -0.227634 0)
(-0.0357132 -0.221505 0)
(-0.0411391 -0.214355 0)
(-0.0464937 -0.206188 0)
(-0.05175 -0.197012 0)
(-0.0568763 -0.186843 0)
(-0.061837 -0.175703 0)
(-0.0665931 -0.163621 0)
(-0.0711027 -0.150637 0)
(-0.0753232 -0.136801 0)
(-0.0792122 -0.122172 0)
(-0.082729 -0.106821 0)
(-0.0858376 -0.0908301 0)
(-0.0885067 -0.0742929 0)
(-0.0907123 -0.0573123 0)
(-0.0924277 -0.0399982 0)
(-0.093623 -0.0224749 0)
(-0.0944184 -0.00487938 0)
(-0.0021521 -0.233536 0)
(-0.0066072 -0.236917 0)
(-0.0111089 -0.234849 0)
(-0.015598 -0.231772 0)
(-0.0200872 -0.22769 0)
(-0.024563 -0.222606 0)
(-0.0290114 -0.216516 0)
(-0.0334182 -0.209423 0)
(-0.0377655 -0.201335 0)
(-0.042032 -0.192266 0)
(-0.0461924 -0.182233 0)
(-0.0502181 -0.171263 0)
(-0.0540772 -0.159389 0)
(-0.0577361 -0.146652 0)
(-0.0611601 -0.133101 0)
(-0.0643157 -0.118793 0)
(-0.0671726 -0.103796 0)
(-0.0697043 -0.0881878 0)
(-0.0718904 -0.0720557 0)
(-0.0737161 -0.0554984 0)
(-0.0751662 -0.0386187 0)
(-0.0762243 -0.0215284 0)
(-0.0769758 -0.00436065 0)
(-0.00160906 -0.229688 0)
(-0.00500914 -0.23289 0)
(-0.0085329 -0.230842 0)
(-0.0119872 -0.227772 0)
(-0.015421 -0.2237 0)
(-0.0188384 -0.218633 0)
(-0.0222335 -0.212568 0)
(-0.0255984 -0.20551 0)
(-0.0289263 -0.197471 0)
(-0.0322061 -0.18847 0)
(-0.0354158 -0.178529 0)
(-0.0385366 -0.16768 0)
(-0.0415441 -0.155959 0)
(-0.0444103 -0.143409 0)
(-0.0471052 -0.130082 0)
(-0.0495981 -0.116034 0)
(-0.0518602 -0.101327 0)
(-0.0538692 -0.0860306 0)
(-0.0556118 -0.0702237 0)
(-0.0570814 -0.0539991 0)
(-0.0582747 -0.0374518 0)
(-0.059193 -0.0206689 0)
(-0.0599072 -0.00377184 0)
(-0.0010713 -0.22713 0)
(-0.00349229 -0.230061 0)
(-0.00614462 -0.228056 0)
(-0.00861669 -0.224998 0)