/*--------------------------------*- C++ -*----------------------------------*\
| =========                 |                                                 |
| \\      /  F ield         | OpenFOAM: The Open Source CFD Toolbox           |
|  \\    /   O peration     | Version:  2.4.0                                 |
|   \\  /    A nd           | Web:      www.OpenFOAM.org                      |
|    \\/     M anipulation  |                                                 |
\*---------------------------------------------------------------------------*/
FoamFile
{
    version     2.0;
    format      ascii;
    class       volScalarField;
    location    "0.75";
    object      alpha.oil;
}
// * * * * * * * * * * * * * * * * * * * * * * * * * * * * * * * * * * * * * //

dimensions      [0 0 0 0 0 0 0];

internalField   nonuniform List<scalar> 
559
(
6.13525e-08
3.56386e-08
1.64712e-08
7.68094e-09
5.49666e-09
4.66911e-09
3.9034e-09
9.85115e-13
2.45066e-13
8.86634e-14
2.07967e-13
5.2755e-13
1.22976e-12
4.19231e-12
1.56401e-11
4.47991e-11
1.05315e-10
1.47141e-10
4.59117e-10
6.61152e-09
2.23527e-08
5.22371e-08
4.47832e-08
6.11323e-08
3.375e-08
1.64157e-08
7.7877e-09
4.41713e-09
2.37839e-09
1.99644e-09
1.76762e-13
3.86494e-14
2.11812e-14
7.21997e-14
1.96587e-13
5.37979e-13
2.10668e-12
8.28266e-12
2.48276e-11
5.9967e-11
8.55871e-11
2.45924e-10
4.19085e-09
1.45625e-08
1.99004e-08
3.13757e-08
2.9929e-08
1.96656e-08
1.44715e-08
7.03779e-09
3.37869e-09
1.55146e-09
7.48537e-10
2.75058e-14
5.36423e-15
5.20279e-15
2.17396e-14
6.42616e-14
2.11656e-13
9.30852e-13
3.77476e-12
1.15667e-11
2.76918e-11
4.0483e-11
1.00742e-10
1.1036e-09
5.66982e-09
1.19394e-08
1.33757e-08
2.10888e-08
1.4379e-08
8.2617e-09
4.61239e-09
2.18685e-09
9.56429e-10
4.11795e-10
3.73724e-15
6.86964e-16
1.22055e-15
5.6329e-15
1.84439e-14
7.27379e-14
3.48324e-13
1.44141e-12
4.47317e-12
1.05538e-11
1.59287e-11
2.17341e-11
8.67446e-11
2.48919e-09
4.47297e-09
7.75823e-09
1.17871e-08
8.66725e-09
5.14336e-09
2.79853e-09
1.37584e-09
5.82621e-10
2.53953e-10
4.4717e-16
8.45734e-17
2.57967e-16
1.26177e-15
4.64831e-15
2.1419e-14
1.08928e-13
4.58002e-13
1.43801e-12
3.38142e-12
5.3306e-12
9.00207e-12
1.56318e-11
6.30639e-10
1.73582e-09
2.87458e-09
5.1964e-09
4.09869e-09
2.61427e-09
1.41765e-09
7.18824e-10
3.16561e-10
1.29195e-10
4.7797e-17
1.03325e-17
4.80142e-17
2.46163e-16
1.02773e-15
5.37673e-15
2.85707e-14
1.22039e-13
3.89509e-13
9.3059e-13
1.57652e-12
3.09266e-12
7.35449e-12
1.16197e-10
5.12989e-10
1.03186e-09
1.86228e-09
1.58329e-09
1.03489e-09
5.86971e-10
2.95771e-10
1.35423e-10
4.99933e-11
4.63505e-18
1.26083e-18
7.8346e-18
4.21753e-17
1.99719e-16
1.15723e-15
6.37116e-15
2.77332e-14
9.08426e-14
2.2611e-13
4.26581e-13
9.40317e-13
2.65052e-12
1.86272e-11
1.33012e-10
2.66197e-10
5.98244e-10
5.41251e-10
3.3874e-10
1.92014e-10
9.68183e-11
4.38749e-11
1.69482e-11
4.12507e-19
1.50389e-19
1.12616e-18
6.41018e-18
3.43177e-17
2.16199e-16
1.23008e-15
5.49477e-15
1.8738e-14
4.98976e-14
1.07732e-13
2.63129e-13
7.9593e-13
4.93894e-12
2.87793e-11
6.12959e-11
5.05008e-11
8.06797e-11
9.05382e-11
5.12705e-11
2.61196e-11
1.18735e-11
4.8094e-12
3.40895e-20
1.70596e-20
1.43661e-19
8.72539e-19
5.25741e-18
3.55807e-17
2.09529e-16
9.69518e-16
3.49676e-15
1.01876e-14
2.5363e-14
6.76275e-14
2.08117e-13
1.11754e-12
5.44791e-12
7.78518e-12
8.14428e-12
9.17719e-12
1.05902e-11
1.11021e-11
5.95963e-12
2.74904e-12
1.15372e-12
2.64193e-21
1.80167e-21
1.64127e-20
1.07419e-19
7.25364e-19
5.23926e-18
3.20697e-17
1.55249e-16
5.99929e-16
1.93238e-15
5.47405e-15
1.56486e-14
4.78749e-14
2.19744e-13
9.05578e-13
1.81426e-12
2.03039e-12
2.38637e-12
2.77746e-12
2.17707e-12
1.18037e-12
5.54203e-13
2.394e-13
1.93906e-22
1.75242e-22
1.69565e-21
1.20912e-20
9.11426e-20
6.99979e-19
4.47532e-18
2.28469e-17
9.51419e-17
3.36957e-16
1.05752e-15
3.18789e-15
9.66344e-15
3.81211e-14
1.36478e-13
3.07339e-13
3.78693e-13
4.65797e-13
5.26753e-13
3.73143e-13
2.05657e-13
9.8425e-14
4.3475e-14
1.35987e-23
1.56434e-23
1.59942e-22
1.25703e-21
1.05357e-20
8.58344e-20
5.75206e-19
3.10738e-18
1.39112e-17
5.34268e-17
1.81009e-16
5.67189e-16
1.70418e-15
5.91392e-15
1.87966e-14
4.34469e-14
5.96671e-14
7.59238e-14
8.09597e-14
5.6173e-14
3.16115e-14
1.54298e-14
6.95216e-15
9.18569e-25
1.28434e-24
1.39151e-23
1.21829e-22
1.12922e-21
9.73167e-21
6.83866e-20
3.90198e-19
1.86111e-18
7.61611e-18
2.72507e-17
8.78598e-17
2.62467e-16
8.27054e-16
2.38553e-15
5.43298e-15
8.12037e-15
1.05491e-14
1.06665e-14
7.46796e-15
4.30404e-15
2.14013e-15
9.82623e-16
6.00311e-26
9.73619e-26
1.12732e-24
1.1087e-23
1.1278e-22
1.02405e-21
7.52789e-21
4.51104e-20
2.26607e-19
9.72725e-19
3.61945e-18
1.19146e-17
3.54447e-17
1.04279e-16
2.78315e-16
6.12505e-16
9.64958e-16
1.2676e-15
1.24027e-15
8.83813e-16
5.20314e-16
2.63268e-16
1.2355e-16
3.80292e-27
6.85795e-27
8.58369e-26
9.51667e-25
1.05165e-23
1.00048e-22
7.6569e-22
4.78259e-21
2.50219e-20
1.11266e-19
4.25855e-19
1.42317e-18
4.22126e-18
1.18481e-17
2.97872e-17
6.30225e-17
1.01753e-16
1.33885e-16
1.28809e-16
9.35396e-17
5.61307e-17
2.89025e-17
1.39458e-17
2.33093e-28
4.5184e-28
6.18865e-27
7.71646e-26
9.1551e-25
9.06765e-24
7.18411e-23
4.64236e-22
2.50616e-21
1.14373e-20
4.46921e-20
1.51026e-19
4.46819e-19
1.21401e-18
2.91665e-18
5.94289e-18
9.63943e-18
1.26198e-17
1.2065e-17
8.91376e-18
5.43949e-18
2.85548e-18
1.43038e-18
1.37785e-29
2.80502e-29
4.2472e-28
5.90686e-27
7.4335e-26
7.61516e-25
6.20914e-24
4.12314e-23
2.28067e-22
1.06169e-21
4.21535e-21
1.43674e-20
4.24153e-20
1.12619e-19
2.61304e-19
5.1498e-19
8.29128e-19
1.07547e-18
1.02725e-18
7.70245e-19
4.77479e-19
2.56583e-19
1.35568e-19
7.82383e-31
1.65324e-30
2.78331e-29
4.26282e-28
5.62555e-27
5.92431e-26
4.94429e-25
3.35559e-24
1.89175e-23
8.9466e-23
3.59767e-22
1.23484e-21
3.64052e-21
9.51121e-21
2.14972e-20
4.11957e-20
6.54112e-20
8.37739e-20
8.00966e-20
6.08411e-20
3.83295e-20
2.12182e-20
1.22419e-20
4.25455e-32
9.31842e-32
1.74471e-30
2.89859e-29
3.97177e-28
4.27713e-27
3.63647e-26
2.51103e-25
1.43669e-24
6.88047e-24
2.7959e-23
9.65549e-23
2.84558e-22
7.35094e-22
1.62919e-21
3.05176e-21
4.77299e-21
6.03604e-21
5.77824e-21
4.4336e-21
2.84199e-21
1.63648e-21
1.12912e-21
2.21403e-33
5.06139e-33
1.04832e-31
1.8602e-30
2.62483e-29
2.87715e-28
2.4821e-27
1.73665e-26
1.00465e-25
4.85741e-25
1.99039e-24
6.91089e-24
2.03676e-23
5.21721e-23
1.13975e-22
2.09751e-22
3.23649e-22
4.04899e-22
3.88706e-22
3.01676e-22
1.97335e-22
1.19802e-22
1.21303e-22
1.10535e-34
2.6829e-34
6.13491e-33
1.14774e-31
1.65425e-30
1.83395e-29
1.5958e-28
1.12438e-27
6.53773e-27
3.17343e-26
1.30515e-25
4.54631e-25
1.33988e-24
3.41104e-24
7.37775e-24
1.33985e-23
2.04327e-23
2.53358e-23
2.44503e-23
1.92633e-23
1.29621e-23
8.57099e-24
1.69203e-23
5.32788e-36
1.41966e-35
3.5513e-34
6.91055e-33
1.00911e-31
1.12442e-30
9.81339e-30
6.92451e-29
4.02428e-28
1.95091e-27
8.00889e-27
2.7792e-26
8.14814e-26
2.05645e-25
4.40146e-25
7.90567e-25
1.196e-24
1.47727e-24
1.43829e-24
1.15484e-24
8.07759e-25
6.24778e-25
2.90657e-24
2.49663e-37
7.48082e-37
2.0145e-35
4.02721e-34
5.92149e-33
6.6028e-32
5.75668e-31
4.05186e-30
2.3452e-29
1.13159e-28
4.61958e-28
1.59126e-27
4.62503e-27
1.15412e-26
2.43908e-26
4.32544e-26
6.47828e-26
7.97341e-26
7.85104e-26
6.46805e-26
4.78203e-26
5.12652e-26
5.72469e-25
1.1436e-38
3.92312e-38
1.11798e-36
2.27321e-35
3.35001e-34
3.72629e-33
3.23616e-32
2.2656e-31
1.3024e-30
6.236e-30
2.52329e-29
8.60078e-29
2.47063e-28
6.08139e-28
1.26658e-27
2.21495e-27
3.27585e-27
4.01129e-27
3.98891e-27
3.3866e-27
2.95531e-27
1.26558e-26
3.42949e-25
)
;

boundaryField
{
    leftWall
    {
        type            zeroGradient;
    }
    rightWall
    {
        type            zeroGradient;
    }
    lowerWall
    {
        type            zeroGradient;
    }
    atmosphere
    {
        type            inletOutlet;
        inletValue      uniform 0;
        value           nonuniform List<scalar> 
23
(
1.1436e-38
3.92312e-38
1.11798e-36
2.27321e-35
3.35001e-34
3.72629e-33
3.23616e-32
2.2656e-31
1.3024e-30
6.236e-30
2.52329e-29
8.60078e-29
2.47063e-28
6.08139e-28
1.26658e-27
2.21495e-27
3.27585e-27
4.01129e-27
3.98891e-27
3.3866e-27
2.95531e-27
1.26558e-26
3.42949e-25
)
;
    }
    defaultFaces
    {
        type            empty;
    }
    procBoundary2to0
    {
        type            processor;
        value           nonuniform List<scalar> 
24
(
6.85587e-08
3.26753e-08
1.51654e-08
1.04042e-08
9.03276e-09
9.40963e-09
1.46517e-08
4.18555e-12
1.26989e-12
3.85851e-13
5.33302e-13
1.23364e-12
2.56499e-12
7.73232e-12
2.65169e-11
6.94953e-11
1.45586e-10
2.0528e-10
7.80324e-10
8.01962e-09
4.31427e-08
7.63619e-08
1.08179e-07
1.08179e-07
)
;
    }
    procBoundary2to3
    {
        type            processor;
        value           nonuniform List<scalar> 
25
(
4.36506e-09
1.56058e-09
5.18873e-10
2.13275e-10
1.09726e-10
5.20023e-11
2.2187e-11
9.44716e-12
2.7928e-12
6.805e-13
1.42471e-13
2.60532e-14
4.19181e-15
5.98062e-16
7.64379e-17
8.89618e-18
9.75613e-19
1.11637e-19
1.68518e-20
3.815e-21
1.03638e-21
2.75304e-22
6.80389e-23
1.68996e-23
1.16782e-23
)
;
    }
}


// ************************************************************************* //
