/*--------------------------------*- C++ -*----------------------------------*\
| =========                 |                                                 |
| \\      /  F ield         | OpenFOAM: The Open Source CFD Toolbox           |
|  \\    /   O peration     | Version:  2.4.0                                 |
|   \\  /    A nd           | Web:      www.OpenFOAM.org                      |
|    \\/     M anipulation  |                                                 |
\*---------------------------------------------------------------------------*/
FoamFile
{
    version     2.0;
    format      ascii;
    class       volScalarField;
    location    "0.75";
    object      alpha.mercury;
}
// * * * * * * * * * * * * * * * * * * * * * * * * * * * * * * * * * * * * * //

dimensions      [0 0 0 0 0 0 0];

internalField   nonuniform List<scalar> 
559
(
6.32489e-17
4.16972e-16
2.32969e-15
1.1109e-14
4.5692e-14
1.59699e-13
4.48194e-13
5.36367e-17
9.15386e-18
1.26335e-18
1.22083e-19
7.47575e-21
2.56368e-22
7.37472e-21
1.84994e-19
1.32399e-18
2.84523e-18
1.53299e-18
2.16958e-19
1.115e-20
1.9178e-20
1.71301e-19
1.45822e-18
1.18735e-17
8.64819e-17
5.41172e-16
2.83356e-15
1.23561e-14
4.62264e-14
1.48654e-13
7.01116e-18
1.00681e-18
1.24155e-19
1.09825e-20
6.29719e-22
2.08448e-23
6.90041e-22
1.96459e-20
1.48547e-19
3.43271e-19
1.90317e-19
2.64347e-20
1.44061e-21
3.25665e-21
2.74374e-20
2.36453e-19
2.02435e-18
1.58539e-17
1.09758e-16
6.34445e-16
2.94949e-15
1.17001e-14
4.17264e-14
8.16419e-19
9.92307e-20
1.10827e-20
9.06436e-22
4.91587e-23
1.59168e-24
5.95393e-23
1.90986e-21
1.51957e-20
3.74081e-20
2.11543e-20
2.91947e-21
1.86904e-22
5.37648e-22
4.1693e-21
3.53296e-20
3.10183e-19
2.56823e-18
1.93144e-17
1.21697e-16
6.00857e-16
2.50138e-15
9.64773e-15
8.56931e-20
8.86828e-21
9.07187e-22
6.92635e-23
3.58192e-24
1.14416e-25
4.73898e-24
1.70129e-22
1.42198e-21
3.71332e-21
2.1324e-21
2.97576e-22
2.50031e-23
8.46913e-23
5.97811e-22
4.85445e-21
4.29039e-20
3.69443e-19
2.94748e-18
1.9866e-17
1.03092e-16
4.45322e-16
1.82255e-15
8.1833e-21
7.24232e-22
6.83167e-23
4.9009e-24
2.42796e-25
7.66471e-27
3.48251e-25
1.38902e-23
1.21676e-22
3.36208e-22
1.9544e-22
2.77335e-23
3.27178e-24
1.26172e-23
8.17726e-23
6.24438e-22
5.40388e-21
4.72637e-20
3.91999e-19
2.7768e-18
1.49507e-17
6.64166e-17
2.85954e-16
7.15373e-22
5.43645e-23
4.75781e-24
3.22385e-25
1.53614e-26
4.79801e-28
2.3678e-26
1.04148e-24
9.53663e-24
2.77858e-23
1.63078e-23
2.35771e-24
4.10037e-25
1.7676e-24
1.07542e-23
7.67646e-23
6.3104e-22
5.42632e-21
4.57565e-20
3.34627e-19
1.84202e-18
8.36158e-18
3.77705e-17
5.75912e-23
3.77899e-24
3.08336e-25
1.9832e-26
9.1293e-28
2.83049e-29
1.49343e-27
7.1928e-26
6.86635e-25
2.10183e-24
1.24201e-24
1.84312e-25
4.92331e-26
2.32591e-25
1.36329e-24
9.08264e-24
6.89406e-23
5.66151e-22
4.73833e-21
3.50494e-20
1.95013e-19
9.01542e-19
4.24485e-18
4.28338e-24
2.43532e-25
1.85996e-26
1.14019e-27
5.08435e-29
1.56498e-30
8.75297e-29
4.58852e-27
4.55756e-26
1.45898e-25
8.63752e-26
1.32552e-26
5.62654e-27
2.88331e-26
1.66497e-25
1.04368e-24
7.20931e-24
5.46934e-23
4.3905e-22
3.21767e-21
1.79412e-20
8.40522e-20
4.0923e-19
2.95655e-25
1.46207e-26
1.04779e-27
6.14308e-29
2.66128e-30
8.14449e-32
4.77677e-30
2.70997e-28
2.7941e-27
9.31927e-27
5.51165e-27
8.87941e-28
6.11002e-28
3.36528e-27
1.94752e-26
1.16236e-25
7.281e-25
4.95211e-24
3.69494e-23
2.62795e-22
1.45078e-21
6.83045e-21
3.44109e-20
1.89961e-26
8.1982e-28
5.52181e-29
3.10261e-30
1.30669e-31
3.9708e-33
2.43197e-31
1.48489e-29
1.58526e-28
5.49311e-28
3.24095e-28
5.62687e-29
6.3042e-29
3.68316e-28
2.14992e-27
1.24176e-26
7.1437e-26
4.31239e-25
2.89277e-24
1.93351e-23
1.03748e-22
4.89639e-22
2.57032e-21
1.13944e-27
4.30725e-29
2.73002e-30
1.47383e-31
6.04496e-33
1.82615e-34
1.15759e-32
7.56799e-31
8.3471e-30
2.99367e-29
1.7575e-29
3.43194e-30
6.1607e-30
3.78062e-29
2.23506e-28
1.26087e-27
6.77195e-27
3.64155e-26
2.13892e-25
1.30559e-24
6.70773e-24
3.15323e-23
1.73772e-22
6.39561e-29
2.12245e-30
1.26651e-31
6.57731e-33
2.62728e-34
7.88967e-36
5.16188e-34
3.59583e-32
4.09028e-31
1.51529e-30
8.85161e-31
2.07483e-31
5.68609e-31
3.62278e-30
2.16361e-29
1.20057e-28
6.14547e-28
3.0055e-27
1.53914e-26
8.31952e-26
3.99798e-25
1.87389e-24
1.10353e-23
3.36859e-30
9.84894e-32
5.53334e-33
2.76883e-34
1.07826e-35
3.23171e-37
2.16172e-35
1.59656e-33
1.86958e-32
7.13588e-32
4.15177e-32
1.27051e-32
4.93885e-32
3.23797e-31
1.95076e-30
1.07131e-29
5.30367e-29
2.41649e-28
1.09319e-27
5.16345e-27
2.30342e-26
1.10531e-25
7.2969e-25
1.66792e-31
4.30465e-33
2.27651e-34
1.09848e-35
4.16984e-37
1.25559e-38
8.52934e-37
6.645e-35
7.9978e-34
3.13937e-33
1.82914e-33
7.99265e-34
4.03179e-33
2.69793e-32
1.63495e-31
8.90909e-31
4.31733e-30
1.88012e-29
7.76693e-29
3.2743e-28
1.42619e-27
8.15903e-27
7.12406e-26
7.78262e-33
1.77872e-34
8.84655e-36
4.12003e-37
1.52504e-38
4.6789e-40
3.18141e-38
2.59891e-36
3.21047e-35
1.29414e-34
7.63526e-35
5.13054e-35
3.08918e-34
2.09829e-33
1.27706e-32
6.92358e-32
3.31431e-31
1.40754e-30
5.54312e-30
2.27621e-29
1.21788e-28
1.1353e-27
1.47321e-26
3.42743e-34
6.9548e-36
3.2499e-37
1.46156e-38
5.27467e-40
1.68983e-41
1.1272e-39
9.58218e-38
1.21352e-36
5.0192e-36
3.06187e-36
3.30185e-36
2.22301e-35
1.52647e-34
9.32185e-34
5.03934e-33
2.40035e-32
1.01306e-31
4.04127e-31
1.9767e-30
1.81213e-29
2.74949e-28
4.5821e-27
1.42726e-35
2.58028e-37
1.13048e-38
4.90905e-40
1.72617e-41
6.01111e-43
3.81651e-41
3.33877e-39
4.33103e-38
1.83925e-37
1.20183e-37
2.08948e-37
1.50589e-36
1.04272e-35
6.38608e-35
3.44947e-34
1.64593e-33
7.06642e-33
3.1754e-32
2.46308e-31
3.92526e-30
7.77485e-29
1.50522e-27
5.62799e-37
9.10297e-39
3.72972e-40
1.56231e-41
5.34326e-43
2.14746e-44
1.24594e-42
1.10297e-40
1.46394e-39
6.39605e-39
4.72011e-39
1.28016e-38
9.625e-38
6.71755e-37
4.13086e-36
2.23589e-35
1.07722e-34
4.89751e-34
2.98067e-33
4.18183e-32
9.32598e-31
2.15363e-29
4.68155e-28
2.10476e-38
3.05526e-40
1.16799e-41
4.70798e-43
1.56019e-44
7.8502e-46
3.976e-44
3.47056e-42
4.7054e-41
2.12225e-40
1.89529e-40
7.52108e-40
5.8173e-39
4.09516e-38
2.53361e-37
1.37987e-36
6.81467e-36
3.56906e-35
3.58647e-34
7.97437e-33
2.13927e-31
5.53892e-30
1.33203e-28
7.48492e-40
9.75189e-42
3.47651e-43
1.34277e-44
4.28339e-46
2.97853e-47
1.26405e-45
1.04712e-43
1.44644e-42
6.77228e-42
7.88687e-42
4.21645e-41
3.32946e-40
2.36567e-39
1.47658e-38
8.14375e-38
4.24625e-37
2.95428e-36
5.15417e-35
1.50319e-33
4.54359e-32
1.29456e-30
3.41737e-29
2.54256e-41
2.95687e-43
9.89594e-45
3.66213e-46
1.12121e-47
1.21703e-48
4.29432e-47
3.08256e-45
4.29578e-44
2.10314e-43
3.40069e-43
2.2486e-42
1.80521e-41
1.29655e-40
8.19527e-40
4.62337e-39
2.69216e-38
2.907e-37
7.80573e-36
2.6632e-34
8.84336e-33
2.74824e-31
7.91707e-30
8.30757e-43
8.62556e-45
2.74339e-46
9.72385e-48
2.86045e-49
5.37307e-50
1.62443e-48
9.0977e-47
1.25649e-45
6.50305e-45
1.53831e-44
1.1666e-43
9.41857e-43
6.7957e-42
4.34284e-41
2.56088e-40
1.88935e-39
3.44488e-38
1.19452e-36
4.4668e-35
1.59951e-33
5.38526e-32
1.69021e-30
2.62828e-44
2.46845e-46
7.46669e-48
2.53424e-49
7.18243e-51
2.42596e-51
6.36864e-50
2.71352e-48
3.67817e-47
2.06022e-46
7.17581e-46
5.91413e-45
4.79711e-44
3.516e-43
2.43088e-42
2.03706e-41
3.31229e-40
9.18419e-39
2.92038e-37
9.37556e-36
3.15473e-34
1.07951e-32
3.5961e-31
8.08908e-46
6.95421e-48
2.00135e-49
6.50575e-51
1.78759e-52
1.10119e-52
2.56044e-51
8.34356e-50
1.10482e-48
6.90344e-48
3.40935e-47
2.98199e-46
2.56774e-45
2.43463e-44
3.59265e-43
8.84672e-42
2.63893e-40
8.03064e-39
2.42137e-37
7.25309e-36
2.18978e-34
6.79534e-33
2.20566e-31
)
;

boundaryField
{
    leftWall
    {
        type            zeroGradient;
    }
    rightWall
    {
        type            zeroGradient;
    }
    lowerWall
    {
        type            zeroGradient;
    }
    atmosphere
    {
        type            inletOutlet;
        inletValue      uniform 0;
        value           nonuniform List<scalar> 
23
(
8.08908e-46
6.95421e-48
2.00135e-49
6.50575e-51
1.78759e-52
1.10119e-52
2.56044e-51
8.34356e-50
1.10482e-48
6.90344e-48
3.40935e-47
2.98199e-46
2.56774e-45
2.43463e-44
3.59265e-43
8.84672e-42
2.63893e-40
8.03064e-39
2.42137e-37
7.25309e-36
2.18978e-34
6.79534e-33
2.20566e-31
)
;
    }
    defaultFaces
    {
        type            empty;
    }
    procBoundary2to0
    {
        type            processor;
        value           nonuniform List<scalar> 
24
(
3.11477e-16
1.8136e-15
9.06138e-15
4.01476e-14
1.57719e-13
5.10197e-13
1.21005e-12
3.60646e-16
7.35279e-17
1.15509e-17
1.2323e-18
8.12306e-20
2.90169e-21
7.25223e-20
1.59093e-18
1.07054e-17
2.11068e-17
1.09133e-17
1.58399e-18
8.22648e-20
1.11469e-19
1.0227e-18
8.40174e-18
8.40174e-18
)
;
    }
    procBoundary2to3
    {
        type            processor;
        value           nonuniform List<scalar> 
25
(
7.90611e-13
3.0086e-13
9.30342e-14
2.31829e-14
4.66419e-15
7.74246e-16
1.07522e-16
1.26555e-17
1.28348e-18
1.1493e-19
9.26403e-21
6.89467e-22
4.90463e-23
3.80093e-24
4.95393e-25
1.40164e-25
5.38225e-26
2.08588e-26
7.52562e-27
2.45885e-27
7.19689e-28
1.89485e-28
4.59334e-29
1.12285e-29
7.56576e-30
)
;
    }
}


// ************************************************************************* //
