/*--------------------------------*- C++ -*----------------------------------*\
| =========                 |                                                 |
| \\      /  F ield         | OpenFOAM: The Open Source CFD Toolbox           |
|  \\    /   O peration     | Version:  2.4.0                                 |
|   \\  /    A nd           | Web:      www.OpenFOAM.org                      |
|    \\/     M anipulation  |                                                 |
\*---------------------------------------------------------------------------*/
FoamFile
{
    version     2.0;
    format      ascii;
    class       volScalarField;
    location    "0.75";
    object      p;
}
// * * * * * * * * * * * * * * * * * * * * * * * * * * * * * * * * * * * * * //

dimensions      [1 -1 -2 0 0 0 0];

internalField   nonuniform List<scalar> 
559
(
3.1418
3.11981
3.08945
3.0481
2.99448
2.92704
2.84766
3.09667
3.09565
3.0933
3.09044
3.08701
3.08322
3.07898
3.07442
3.06943
3.06405
3.05813
3.05163
3.04423
3.03556
3.02491
3.01154
2.99439
2.97197
2.9429
2.90547
2.85906
2.8035
2.73997
2.95847
2.95755
2.9556
2.95304
2.94989
2.94622
2.94204
2.93741
2.93224
2.92653
2.9201
2.91289
2.9046
2.8949
2.88319
2.86892
2.85126
2.82923
2.80193
2.76835
2.72813
2.68153
2.62958
2.82113
2.82031
2.8186
2.81622
2.81321
2.80966
2.80556
2.8009
2.79561
2.78967
2.78293
2.77527
2.76641
2.75608
2.74385
2.72928
2.71169
2.69054
2.66521
2.63511
2.60013
2.56056
2.51741
2.68459
2.68383
2.68228
2.68006
2.67718
2.67371
2.66964
2.66497
2.65962
2.65355
2.64661
2.63868
2.62955
2.61898
2.60664
2.59217
2.57511
2.55513
2.5318
2.50483
2.47423
2.44031
2.40394
2.54879
2.54807
2.54663
2.54454
2.54179
2.5384
2.53438
2.52972
2.52434
2.51819
2.51117
2.50315
2.49398
2.48342
2.47124
2.45717
2.44092
2.42224
2.40085
2.37672
2.34982
2.32052
2.28953
2.4137
2.41302
2.41166
2.40966
2.40701
2.40371
2.39977
2.39516
2.38984
2.38373
2.37676
2.36882
2.35974
2.34937
2.33756
2.32408
2.30877
2.29141
2.27194
2.2503
2.22657
2.20106
2.17432
2.27927
2.27863
2.27733
2.2754
2.27285
2.26967
2.26583
2.26132
2.2561
2.25012
2.24328
2.2355
2.22666
2.21666
2.20534
2.19259
2.17828
2.16228
2.14457
2.12511
2.10406
2.08166
2.05839
2.14548
2.14487
2.14363
2.14179
2.13934
2.13626
2.13255
2.12818
2.12312
2.1173
2.11066
2.10314
2.09466
2.08513
2.07443
2.06249
2.04918
2.03448
2.01835
2.00087
1.98214
1.96235
1.94184
2.01229
2.01171
2.01054
2.00879
2.00644
2.00349
1.99993
1.99572
1.99085
1.98527
1.97893
1.97177
1.96371
1.95469
1.94464
1.93349
1.92121
1.90777
1.89317
1.87745
1.86068
1.84308
1.82486
1.87968
1.87913
1.87802
1.87636
1.87413
1.87132
1.86793
1.86393
1.85929
1.85398
1.84796
1.84119
1.83361
1.82516
1.81581
1.80552
1.79426
1.78198
1.76874
1.75456
1.73956
1.72384
1.70757
1.74762
1.7471
1.74605
1.74448
1.74237
1.73972
1.73652
1.73274
1.72837
1.72337
1.71771
1.71136
1.70429
1.69646
1.68782
1.67836
1.66805
1.6569
1.64494
1.6322
1.61875
1.60468
1.5901
1.61607
1.61558
1.6146
1.61313
1.61116
1.60868
1.60568
1.60214
1.59805
1.59339
1.58812
1.58223
1.57568
1.56847
1.56054
1.5519
1.54254
1.53247
1.52169
1.51025
1.4982
1.48561
1.47255
1.48499
1.48454
1.48363
1.48227
1.48044
1.47814
1.47535
1.47208
1.46829
1.46398
1.45912
1.45371
1.44771
1.44112
1.43391
1.42607
1.41761
1.40854
1.39887
1.38864
1.37788
1.36665
1.35499
1.35437
1.35395
1.35312
1.35186
1.35018
1.34806
1.3455
1.3425
1.33903
1.33509
1.33066
1.32573
1.32028
1.3143
1.30779
1.30074
1.29316
1.28505
1.27643
1.26733
1.25777
1.2478
1.23744
1.22415
1.22377
1.22301
1.22187
1.22034
1.21842
1.2161
1.21338
1.21023
1.20667
1.20267
1.19822
1.19333
1.18797
1.18215
1.17586
1.16912
1.16193
1.15431
1.14627
1.13784
1.12904
1.11992
1.0943
1.09396
1.09328
1.09225
1.09088
1.08916
1.08708
1.08465
1.08184
1.07866
1.07509
1.07114
1.0668
1.06205
1.05691
1.05136
1.04543
1.03912
1.03243
1.0254
1.01804
1.01037
1.00241
0.964784
0.964484
0.96388
0.962975
0.961765
0.960246
0.958414
0.956265
0.953798
0.951002
0.947877
0.944415
0.940612
0.936468
0.931988
0.92717
0.92202
0.916547
0.910767
0.904693
0.898344
0.891739
0.884897
0.835555
0.835292
0.834768
0.833984
0.832939
0.831629
0.830052
0.828204
0.82608
0.823675
0.820986
0.818009
0.814745
0.811196
0.807359
0.803236
0.798837
0.794177
0.78926
0.7841
0.778715
0.773124
0.767342
0.706587
0.706359
0.705916
0.705256
0.704377
0.703278
0.701956
0.700408
0.698628
0.696615
0.694365
0.691876
0.689147
0.686177
0.682966
0.679522
0.675855
0.671968
0.66787
0.663582
0.659115
0.654486
0.649712
0.577842
0.577661
0.577303
0.576764
0.576049
0.575154
0.574079
0.572821
0.57138
0.569753
0.567936
0.565929
0.56373
0.561337
0.55875
0.555975
0.553012
0.549867
0.54656
0.543104
0.53951
0.535794
0.531974
0.449272
0.44914
0.448863
0.448436
0.447886
0.447192
0.44636
0.445389
0.444279
0.443026
0.441632
0.440096
0.438414
0.436584
0.434609
0.432487
0.43022
0.427817
0.425283
0.422627
0.419865
0.41702
0.414109
0.320849
0.320755
0.320563
0.320253
0.319857
0.319362
0.31877
0.318077
0.317288
0.316402
0.315419
0.314335
0.313151
0.311867
0.310481
0.308996
0.30741
0.305723
0.30394
0.302068
0.300122
0.298118
0.296067
0.192516
0.192431
0.192321
0.192126
0.191877
0.191564
0.191203
0.190791
0.190324
0.189801
0.189221
0.188586
0.187896
0.187151
0.186346
0.18548
0.184551
0.18356
0.182514
0.181415
0.180267
0.17908
0.177868
0.0642272
0.0641809
0.0641366
0.0640604
0.063969
0.0638501
0.0637147
0.0635738
0.063421
0.0632514
0.0630639
0.0628596
0.0626384
0.0623999
0.0621443
0.0618685
0.0615698
0.061251
0.0609122
0.0605543
0.0601792
0.0597916
0.0593992
)
;

boundaryField
{
    leftWall
    {
        type            fixedFluxPressure;
        gradient        uniform 0;
        value           nonuniform List<scalar> 
24
(
3.09667
2.95847
2.82113
2.68459
2.54879
2.4137
2.27927
2.14548
2.01229
1.87968
1.74762
1.61607
1.48499
1.35437
1.22415
1.0943
0.964784
0.835555
0.706587
0.577842
0.449272
0.320849
0.192516
0.0642272
)
;
    }
    rightWall
    {
        type            fixedFluxPressure;
        gradient        nonuniform 0();
        value           nonuniform 0();
    }
    lowerWall
    {
        type            fixedFluxPressure;
        gradient        nonuniform 0();
        value           nonuniform 0();
    }
    atmosphere
    {
        type            totalPressure;
        U               U.air;
        phi             phi.air;
        rho             rho;
        psi             none;
        gamma           1;
        p0              uniform 0;
        value           uniform 0;
    }
    defaultFaces
    {
        type            empty;
    }
    procBoundary2to0
    {
        type            processor;
        value           nonuniform List<scalar> 
24
(
3.29339
3.27297
3.24286
3.19813
3.13575
3.05173
2.94941
3.23582
3.23463
3.23164
3.22832
3.22453
3.22056
3.21625
3.2118
3.207
3.20204
3.19669
3.19116
3.18515
3.17805
3.16918
3.15754
3.15754
)
;
    }
    procBoundary2to3
    {
        type            processor;
        value           nonuniform List<scalar> 
25
(
2.78236
2.68872
2.58857
2.48396
2.37625
2.26623
2.15436
2.04101
1.9265
1.81118
1.6953
1.57907
1.46264
1.34611
1.22955
1.11296
0.996355
0.879697
0.762959
0.646105
0.529099
0.411925
0.294535
0.176964
0.0591033
)
;
    }
}


// ************************************************************************* //
