/*--------------------------------*- C++ -*----------------------------------*\
| =========                 |                                                 |
| \\      /  F ield         | OpenFOAM: The Open Source CFD Toolbox           |
|  \\    /   O peration     | Version:  2.4.0                                 |
|   \\  /    A nd           | Web:      www.OpenFOAM.org                      |
|    \\/     M anipulation  |                                                 |
\*---------------------------------------------------------------------------*/
FoamFile
{
    version     2.0;
    format      ascii;
    class       surfaceScalarField;
    location    "0.75";
    object      phi;
}
// * * * * * * * * * * * * * * * * * * * * * * * * * * * * * * * * * * * * * //

dimensions      [0 3 -1 0 0 0 0];

internalField   nonuniform List<scalar> 
1070
(
1.77622e-06
5.56064e-05
4.94381e-06
6.09854e-05
1.06098e-05
6.72914e-05
1.8658e-05
7.34391e-05
2.96665e-05
7.7364e-05
4.33618e-05
7.8733e-05
7.81865e-05
1.50613e-06
4.30569e-05
2.78028e-06
3.97246e-05
3.25532e-06
3.8519e-05
3.19393e-06
3.77367e-05
2.70825e-06
3.71735e-05
2.00754e-06
3.69369e-05
1.2474e-06
3.70102e-05
6.9874e-07
3.76011e-05
3.96636e-07
3.83705e-05
6.34779e-07
3.95733e-05
1.24198e-06
4.08595e-05
1.87526e-06
4.2147e-05
2.32379e-06
4.34663e-05
2.69348e-06
4.52768e-05
3.04543e-06
4.74868e-05
3.65489e-06
5.05969e-05
5.44434e-06
5.3817e-05
9.06247e-06
5.73672e-05
1.44274e-05
6.19265e-05
2.14624e-05
6.64041e-05
3.02924e-05
6.8534e-05
4.08204e-05
6.8205e-05
6.69215e-05
1.16996e-06
4.18869e-05
2.07647e-06
3.88181e-05
2.46297e-06
3.81325e-05
2.52683e-06
3.76728e-05
2.3374e-06
3.7363e-05
1.98043e-06
3.72939e-05
1.57086e-06
3.74198e-05
1.26756e-06
3.79044e-05
1.10569e-06
3.85324e-05
1.30638e-06
3.93726e-05
1.84221e-06
4.03237e-05
2.4525e-06
4.15367e-05
3.03111e-06
4.28877e-05
3.79105e-06
4.45168e-05
4.77527e-06
4.65026e-05
6.45922e-06
4.89129e-05
9.03069e-06
5.12455e-05
1.25516e-05
5.38463e-05
1.74418e-05
5.70363e-05
2.39156e-05
5.99304e-05
3.15117e-05
6.09379e-05
3.99813e-05
5.97354e-05
5.79059e-05
9.04443e-07
4.09825e-05
1.57785e-06
3.81447e-05
1.98603e-06
3.77244e-05
2.22983e-06
3.7429e-05
2.32423e-06
3.72686e-05
2.32248e-06
3.72956e-05
2.2626e-06
3.74796e-05
2.24938e-06
3.79177e-05
2.28782e-06
3.84939e-05
2.45434e-06
3.92061e-05
2.82794e-06
3.99501e-05
3.40264e-06
4.0962e-05
4.07892e-06
4.22114e-05
5.12051e-06
4.34752e-05
6.6523e-06
4.49708e-05
8.89093e-06
4.66743e-05
1.15278e-05
4.86086e-05
1.47396e-05
5.06345e-05
1.9185e-05
5.25909e-05
2.48539e-05
5.42616e-05
3.12943e-05
5.44975e-05
3.81626e-05
5.2867e-05
5.06782e-05
7.31065e-07
4.02514e-05
1.36922e-06
3.75065e-05
1.8665e-06
3.72271e-05
2.19964e-06
3.70959e-05
2.43925e-06
3.7029e-05
2.65833e-06
3.70765e-05
2.87013e-06
3.72678e-05
3.15275e-06
3.7635e-05
3.52198e-06
3.81247e-05
3.94667e-06
3.87814e-05
4.45563e-06
3.94411e-05
5.20261e-06
4.0215e-05
6.17957e-06
4.12344e-05
7.39114e-06
4.22637e-05
8.95608e-06
4.34059e-05
1.10303e-05
4.46001e-05
1.36947e-05
4.59442e-05
1.70313e-05
4.72979e-05
2.11771e-05
4.8445e-05
2.61408e-05
4.92978e-05
3.16519e-05
4.89864e-05
3.72762e-05
4.72427e-05
4.51553e-05
6.74014e-07
3.95774e-05
1.23112e-06
3.69494e-05
1.68997e-06
3.67682e-05
2.07962e-06
3.67062e-05
2.4241e-06
3.66845e-05
2.74991e-06
3.67507e-05
3.10166e-06
3.69161e-05
3.53779e-06
3.71989e-05
4.07207e-06
3.75904e-05
4.70799e-06
3.81455e-05
5.39497e-06
3.87542e-05
6.26376e-06
3.93462e-05
7.45201e-06
4.00462e-05
8.88201e-06
4.08337e-05
1.05915e-05
4.16964e-05
1.25029e-05
4.26887e-05
1.48743e-05
4.35729e-05
1.79521e-05
4.422e-05
2.16414e-05
4.47558e-05
2.59288e-05
4.50104e-05
3.06628e-05
4.42525e-05
3.53658e-05
4.25397e-05
4.07211e-05
6.01722e-07
3.89757e-05
1.11882e-06
3.64323e-05
1.58763e-06
3.62994e-05
2.02896e-06
3.62649e-05
2.43516e-06
3.62783e-05
2.82945e-06
3.63564e-05
3.24918e-06
3.64963e-05
3.74512e-06
3.6703e-05
4.33588e-06
3.69996e-05
5.0383e-06
3.74431e-05
5.84556e-06
3.79469e-05
6.79063e-06
3.84011e-05
7.9451e-06
3.88917e-05
9.37874e-06
3.94e-05
1.10949e-05
3.99803e-05
1.32148e-05
4.05689e-05
1.57967e-05
4.09909e-05
1.86706e-05
4.13461e-05
2.19316e-05
4.14947e-05
2.57125e-05
4.12296e-05
2.96966e-05
4.02684e-05
3.35207e-05
3.87155e-05
3.69082e-05
6.2694e-07
3.83487e-05
1.16081e-06
3.58984e-05
1.65439e-06
3.58058e-05
2.1257e-06
3.57936e-05
2.58839e-06
3.58156e-05
3.06682e-06
3.5878e-05
3.57899e-06
3.59842e-05
4.13968e-06
3.61423e-05
4.76467e-06
3.63747e-05
5.53492e-06
3.66728e-05
6.48954e-06
3.69923e-05
7.56606e-06
3.73246e-05
8.7648e-06
3.76929e-05
1.01458e-05
3.8019e-05
1.18087e-05
3.83173e-05
1.37999e-05
3.85777e-05
1.6005e-05
3.87859e-05
1.85109e-05
3.88402e-05
2.14992e-05
3.85065e-05
2.48243e-05
3.79044e-05
2.81778e-05
3.69149e-05
3.14594e-05
3.54339e-05
3.34766e-05
5.81336e-07
3.77674e-05
1.10452e-06
3.53752e-05
1.62334e-06
3.5287e-05
2.12714e-06
3.52898e-05
2.62864e-06
3.53141e-05
3.14921e-06
3.53574e-05
3.70499e-06
3.54284e-05
4.30966e-06
3.55376e-05
4.98981e-06
3.56945e-05
5.78292e-06
3.58797e-05
6.7045e-06
3.60707e-05
7.76079e-06
3.62683e-05
9.01842e-06
3.64353e-05
1.03842e-05
3.66533e-05
1.19148e-05
3.67867e-05
1.37419e-05
3.67505e-05
1.58816e-05
3.66462e-05
1.83983e-05
3.63235e-05
2.10734e-05
3.58315e-05
2.38723e-05
3.51055e-05
2.67452e-05
3.40419e-05
2.97029e-05
3.24762e-05
3.05411e-05
5.8102e-07
3.71864e-05
1.10966e-06
3.48466e-05
1.64149e-06
3.47552e-05
2.18216e-06
3.47491e-05
2.73281e-06
3.47634e-05
3.29644e-06
3.47938e-05
3.89415e-06
3.48307e-05
4.54561e-06
3.48861e-05
5.27886e-06
3.49612e-05
6.09146e-06
3.50671e-05
6.9649e-06
3.51972e-05
7.95145e-06
3.52818e-05
9.10381e-06
3.5283e-05
1.04896e-05
3.52675e-05
1.21397e-05
3.51366e-05
1.39107e-05
3.49795e-05
1.58484e-05
3.47085e-05
1.78877e-05
3.42843e-05
2.00818e-05
3.36373e-05
2.25605e-05
3.26268e-05
2.52449e-05
3.13575e-05
2.7871e-05
2.98501e-05
2.79982e-05
5.72051e-07
3.66143e-05
1.09692e-06
3.43217e-05
1.62561e-06
3.42265e-05
2.15701e-06
3.42177e-05
2.7042e-06
3.42162e-05
3.27816e-06
3.42198e-05
3.88261e-06
3.42262e-05
4.53099e-06
3.42378e-05
5.24827e-06
3.4244e-05
6.07818e-06
3.42372e-05
7.04675e-06
3.42287e-05
8.12558e-06
3.42029e-05
9.26978e-06
3.41388e-05
1.0518e-05
3.40193e-05
1.18416e-05
3.38129e-05
1.33693e-05
3.34518e-05
1.51247e-05
3.29531e-05
1.71009e-05
3.23081e-05
1.92864e-05
3.14517e-05
2.1492e-05
3.04213e-05
2.36673e-05
2.91823e-05
2.59342e-05
2.75831e-05
2.56891e-05
5.74696e-07
3.60396e-05
1.11258e-06
3.37838e-05
1.65806e-06
3.3681e-05
2.21001e-06
3.36657e-05
2.7765e-06
3.36497e-05
3.36855e-06
3.36278e-05
3.99106e-06
3.36037e-05
4.65504e-06
3.35738e-05
5.36799e-06
3.3531e-05
6.13047e-06
3.34747e-05
6.95961e-06
3.33995e-05
7.89149e-06
3.32711e-05
8.95471e-06
3.30755e-05
1.01665e-05
3.28075e-05
1.15535e-05
3.2426e-05
1.30945e-05
3.19108e-05
1.47144e-05
3.13332e-05
1.64206e-05
3.0602e-05
1.81647e-05
2.97076e-05
2.00348e-05
2.85511e-05
2.20686e-05
2.71485e-05
2.41071e-05
2.55446e-05
2.37021e-05
5.50308e-07
3.54893e-05
1.06654e-06
3.32676e-05
1.59634e-06
3.31512e-05
2.1364e-06
3.31257e-05
2.69096e-06
3.30952e-05
3.26761e-06
3.30511e-05
3.87498e-06
3.29964e-05
4.52378e-06
3.2925e-05
5.22399e-06
3.28308e-05
5.99609e-06
3.27026e-05
6.86805e-06
3.25276e-05
7.82335e-06
3.23158e-05
8.8582e-06
3.20407e-05
9.98231e-06
3.16834e-05
1.11768e-05
3.12315e-05
1.24293e-05
3.06583e-05
1.38134e-05
2.99492e-05
1.53323e-05
2.90831e-05
1.70016e-05
2.80384e-05
1.87285e-05
2.68242e-05
2.04568e-05
2.54201e-05
2.22163e-05
2.37852e-05
2.19298e-05
5.54532e-07
3.49348e-05
1.08279e-06
3.27393e-05
1.62241e-06
3.26116e-05
2.16577e-06
3.25823e-05
2.71983e-06
3.25411e-05
3.28599e-06
3.2485e-05
3.87158e-06
3.24108e-05
4.48626e-06
3.23103e-05
5.14119e-06
3.21759e-05
5.84556e-06
3.19982e-05
6.6027e-06
3.17704e-05
7.43208e-06
3.14864e-05
8.35088e-06
3.11219e-05
9.36722e-06
3.06671e-05
1.04855e-05
3.01132e-05
1.17122e-05
2.94316e-05
1.30252e-05
2.86361e-05
1.43857e-05
2.77226e-05
1.57892e-05
2.66349e-05
1.72548e-05
2.53586e-05
1.87915e-05
2.38834e-05
2.03497e-05
2.22269e-05
2.03815e-05
5.28021e-07
3.44068e-05
1.03636e-06
3.2231e-05
1.5564e-06
3.20915e-05
2.08011e-06
3.20586e-05
2.6137e-06
3.20075e-05
3.16001e-06
3.19387e-05
3.7252e-06
3.18456e-05
4.31705e-06
3.17184e-05
4.94269e-06
3.15502e-05
5.61319e-06
3.13277e-05
6.33555e-06
3.10481e-05
7.12353e-06
3.06984e-05
7.97703e-06
3.02684e-05
8.89324e-06
2.97509e-05
9.87445e-06
2.9132e-05
1.09169e-05
2.83892e-05
1.20247e-05
2.75284e-05
1.322e-05
2.65272e-05
1.44867e-05
2.53682e-05
1.5796e-05
2.40493e-05
1.71226e-05
2.25568e-05
1.84709e-05
2.08787e-05
1.90276e-05
5.27722e-07
3.3879e-05
1.03118e-06
3.17275e-05
1.54106e-06
3.15817e-05
2.05091e-06
3.15488e-05
2.56632e-06
3.14921e-05
3.08948e-06
3.14155e-05
3.6226e-06
3.13125e-05
4.1703e-06
3.11707e-05
4.74013e-06
3.09804e-05
5.34646e-06
3.07214e-05
5.99e-06
3.04045e-05
6.68109e-06
3.00073e-05
7.43206e-06
2.95174e-05
8.24474e-06
2.89382e-05
9.11819e-06
2.82586e-05
1.00486e-05
2.74588e-05
1.10353e-05
2.65417e-05
1.20772e-05
2.54853e-05
1.31599e-05
2.42855e-05
1.42808e-05
2.29285e-05
1.54298e-05
2.14077e-05
1.65972e-05
1.97114e-05
1.78578e-05
5.10985e-07
3.33681e-05
9.92054e-07
3.12465e-05
1.47902e-06
3.10947e-05
1.96314e-06
3.10646e-05
2.45243e-06
3.10028e-05
2.95226e-06
3.09157e-05
3.46741e-06
3.07973e-05
3.99877e-06
3.06394e-05
4.54123e-06
3.04379e-05
5.0935e-06
3.01691e-05
5.6628e-06
2.98352e-05
6.2568e-06
2.94133e-05
6.8886e-06
2.88856e-05
7.57065e-06
2.82561e-05
8.31407e-06
2.75152e-05
9.11374e-06
2.66591e-05
9.96623e-06
2.56892e-05
1.08584e-05
2.45931e-05
1.17865e-05
2.33575e-05
1.27477e-05
2.19673e-05
1.37289e-05
2.04265e-05
1.47183e-05
1.87219e-05
1.68601e-05
5.03572e-07
3.28645e-05
9.39807e-07
3.08102e-05
1.3823e-06
3.06522e-05
1.82719e-06
3.06197e-05
2.28148e-06
3.05485e-05
2.75123e-06
3.04459e-05
3.24132e-06
3.03072e-05
3.74423e-06
3.01365e-05
4.26021e-06
2.99219e-05
4.77804e-06
2.96513e-05
5.30617e-06
2.93071e-05
5.84552e-06
2.8874e-05
6.39618e-06
2.8335e-05
6.96216e-06
2.76902e-05
7.55129e-06
2.69261e-05
8.17467e-06
2.60357e-05
8.85458e-06
2.50093e-05
9.60055e-06
2.38471e-05
1.03887e-05
2.25693e-05
1.11945e-05
2.11615e-05
1.2014e-05
1.96071e-05
1.28398e-05
1.78961e-05
1.60287e-05
4.87746e-07
3.23767e-05
8.5523e-07
3.04428e-05
1.22462e-06
3.02828e-05
1.60518e-06
3.02392e-05
1.99824e-06
3.01555e-05
2.40776e-06
3.00364e-05
2.84214e-06
2.98728e-05
3.29757e-06
2.9681e-05
3.77587e-06
2.94437e-05
4.26932e-06
2.91578e-05
4.7718e-06
2.88046e-05
5.27617e-06
2.83696e-05
5.77629e-06
2.78349e-05
6.27773e-06
2.71887e-05
6.78516e-06
2.64186e-05
7.30538e-06
2.55155e-05
7.83548e-06
2.44792e-05
8.37688e-06
2.33058e-05
8.96242e-06
2.19838e-05
9.61233e-06
2.05116e-05
1.02887e-05
1.89307e-05
1.09603e-05
1.72246e-05
1.53598e-05
4.35994e-07
3.19407e-05
6.75349e-07
3.02034e-05
9.15378e-07
3.00428e-05
1.18237e-06
2.99722e-05
1.46905e-06
2.98688e-05
1.78149e-06
2.9724e-05
2.12305e-06
2.95313e-05
2.50377e-06
2.93003e-05
2.92404e-06
2.90234e-05
3.37989e-06
2.8702e-05
3.85696e-06
2.83276e-05
4.3376e-06
2.7889e-05
4.82369e-06
2.73488e-05
5.32262e-06
2.66898e-05
5.81417e-06
2.59271e-05
6.29568e-06
2.5034e-05
6.76109e-06
2.40138e-05
7.21264e-06
2.28542e-05
7.65754e-06
2.15389e-05
8.09248e-06
2.00766e-05
8.55709e-06
1.84661e-05
9.07313e-06
1.67086e-05
1.48439e-05
3.2306e-07
3.16177e-05
3.67021e-07
3.01594e-05
3.96763e-07
3.0013e-05
4.80658e-07
2.98883e-05
6.01516e-07
2.97479e-05
7.62517e-07
2.9563e-05
9.66569e-07
2.93272e-05
1.22788e-06
2.9039e-05
1.55154e-06
2.86997e-05
1.94486e-06
2.83087e-05
2.40362e-06
2.78688e-05
2.91082e-06
2.73818e-05
3.43372e-06
2.68259e-05
3.95402e-06
2.61695e-05
4.44685e-06
2.54343e-05
4.91516e-06
2.45657e-05
5.37722e-06
2.35518e-05
5.83278e-06
2.23987e-05
6.25481e-06
2.11169e-05
6.62787e-06
1.97036e-05
6.94992e-06
1.8144e-05
7.2456e-06
1.64129e-05
1.45244e-05
1.29945e-07
3.14877e-05
-6.64001e-08
3.03558e-05
-2.73114e-07
3.02197e-05
-4.34965e-07
3.00502e-05
-5.39584e-07
2.98526e-05
-5.85699e-07
2.96091e-05
-5.77421e-07
2.9319e-05
-5.11804e-07
2.89734e-05
-3.70731e-07
2.85587e-05
-1.45984e-07
2.80839e-05
1.64368e-07
2.75585e-05
5.75179e-07
2.6971e-05
1.08417e-06
2.63169e-05
1.66303e-06
2.55906e-05
2.29919e-06
2.47982e-05
2.94141e-06
2.39235e-05
3.54153e-06
2.29517e-05
4.06063e-06
2.18796e-05
4.51199e-06
2.06655e-05
4.91454e-06
1.9301e-05
5.24241e-06
1.78161e-05
5.46491e-06
1.61904e-05
1.43988e-05
-5.29667e-08
3.15407e-05
-4.79833e-07
3.07827e-05
-9.00062e-07
3.064e-05
-1.27486e-06
3.0425e-05
-1.59074e-06
3.01684e-05
-1.83441e-06
2.98528e-05
-1.99907e-06
2.94836e-05
-2.07934e-06
2.90537e-05
-2.07977e-06
2.85591e-05
-2.00362e-06
2.80078e-05
-1.84119e-06
2.7396e-05
-1.59205e-06
2.67218e-05
-1.25774e-06
2.59826e-05
-8.38787e-07
2.51717e-05
-3.31874e-07
2.42912e-05
2.52894e-07
2.33388e-05
8.96922e-07
2.23076e-05
1.56932e-06
2.12072e-05
2.21179e-06
2.0023e-05
2.75802e-06
1.87548e-05
3.17759e-06
1.73966e-05
3.46045e-06
1.59076e-05
1.42347e-05
-1.74869e-07
3.17156e-05
-6.89807e-07
3.12976e-05
-1.18746e-06
3.11376e-05
-1.65322e-06
3.08907e-05
-2.07625e-06
3.05915e-05
-2.44548e-06
3.0222e-05
-2.75334e-06
2.97915e-05
-2.99571e-06
2.9296e-05
-3.17165e-06
2.8735e-05
-3.26861e-06
2.81047e-05
-3.28002e-06
2.74074e-05
-3.2019e-06
2.66437e-05
-3.03452e-06
2.58152e-05
-2.78919e-06
2.49264e-05
-2.46451e-06
2.39665e-05
-2.07034e-06
2.29446e-05
-1.58991e-06
2.18272e-05
-1.04771e-06
2.06649e-05
-4.55218e-07
1.94305e-05
1.56756e-07
1.81428e-05
7.38335e-07
1.6815e-05
1.20954e-06
1.54364e-05
1.39502e-05
-3.28011e-07
-9.00941e-07
-1.45899e-06
-1.99336e-06
-2.50161e-06
-2.97947e-06
-3.41928e-06
-3.80592e-06
-4.13033e-06
-4.39115e-06
-4.58318e-06
-4.70032e-06
-4.73763e-06
-4.6939e-06
-4.56027e-06
-4.34016e-06
-4.06327e-06
-3.7128e-06
-3.31534e-06
-2.88348e-06
-2.42787e-06
-1.98338e-06
)
;

boundaryField
{
    leftWall
    {
        type            calculated;
        value           uniform 0;
    }
    rightWall
    {
        type            calculated;
        value           nonuniform 0();
    }
    lowerWall
    {
        type            calculated;
        value           nonuniform 0();
    }
    atmosphere
    {
        type            calculated;
        value           nonuniform List<scalar> 
23
(
3.20436e-05
3.18705e-05
3.16957e-05
3.14251e-05
3.10997e-05
3.06999e-05
3.02313e-05
2.96827e-05
2.90595e-05
2.83655e-05
2.75995e-05
2.67608e-05
2.58525e-05
2.48826e-05
2.38329e-05
2.27245e-05
2.15503e-05
2.03145e-05
1.90331e-05
1.77109e-05
1.63594e-05
1.49919e-05
1.35949e-05
)
;
    }
    defaultFaces
    {
        type            empty;
        value           nonuniform 0();
    }
    procBoundary2to0
    {
        type            processor;
        value           nonuniform List<scalar> 
24
(
-5.6633e-05
-6.4153e-05
-7.29575e-05
-8.14873e-05
-8.83725e-05
-9.24283e-05
-9.28238e-05
-4.4563e-05
-4.09987e-05
-3.89941e-05
-3.76753e-05
-3.66879e-05
-3.62362e-05
-3.62501e-05
-3.70525e-05
-3.80684e-05
-3.98115e-05
-4.14667e-05
-4.27803e-05
-4.39148e-05
-4.56465e-05
-4.78388e-05
-7.49663e-07
-5.12063e-05
)
;
    }
    procBoundary2to3
    {
        type            processor;
        value           nonuniform List<scalar> 
25
(
5.79991e-05
5.20853e-05
4.8997e-05
4.53902e-05
4.27991e-05
3.98e-05
3.73336e-05
3.4891e-05
3.26384e-05
3.0414e-05
2.82433e-05
2.60941e-05
2.39885e-05
2.18981e-05
1.98248e-05
1.77669e-05
1.57161e-05
1.36712e-05
1.16292e-05
9.58904e-06
7.56504e-06
5.59056e-06
3.62455e-06
1.4941e-06
-1.62814e-06
)
;
    }
}


// ************************************************************************* //
