/*--------------------------------*- C++ -*----------------------------------*\
| =========                 |                                                 |
| \\      /  F ield         | OpenFOAM: The Open Source CFD Toolbox           |
|  \\    /   O peration     | Version:  2.4.0                                 |
|   \\  /    A nd           | Web:      www.OpenFOAM.org                      |
|    \\/     M anipulation  |                                                 |
\*---------------------------------------------------------------------------*/
FoamFile
{
    version     2.0;
    format      ascii;
    class       surfaceScalarField;
    location    "0.75";
    object      phi.mercury;
}
// * * * * * * * * * * * * * * * * * * * * * * * * * * * * * * * * * * * * * //

dimensions      [0 3 -1 0 0 0 0];

internalField   nonuniform List<scalar> 
1070
(
1.77538e-06
5.55732e-05
4.94141e-06
6.09501e-05
1.06048e-05
6.7254e-05
1.8651e-05
7.34001e-05
2.96573e-05
7.73231e-05
4.33495e-05
7.86902e-05
7.81425e-05
1.50674e-06
4.30442e-05
2.78149e-06
3.97117e-05
3.25712e-06
3.85059e-05
3.19629e-06
3.77231e-05
2.71111e-06
3.71595e-05
2.01083e-06
3.69221e-05
1.25104e-06
3.69945e-05
7.02637e-07
3.75845e-05
4.00653e-07
3.83527e-05
6.38767e-07
3.95542e-05
1.24576e-06
4.0839e-05
1.8785e-06
4.21248e-05
2.32627e-06
4.34424e-05
2.69526e-06
4.52512e-05
3.04538e-06
4.7459e-05
3.65365e-06
5.05675e-05
5.44148e-06
5.37857e-05
9.05786e-06
5.73342e-05
1.44207e-05
6.18919e-05
2.14535e-05
6.6368e-05
3.02813e-05
6.84967e-05
4.08068e-05
6.81665e-05
6.68816e-05
1.17043e-06
4.1874e-05
2.0774e-06
3.8805e-05
2.46436e-06
3.81192e-05
2.52864e-06
3.76591e-05
2.33955e-06
3.73488e-05
1.98286e-06
3.72791e-05
1.57349e-06
3.74042e-05
1.27029e-06
3.7888e-05
1.10839e-06
3.85148e-05
1.30891e-06
3.9354e-05
1.84435e-06
4.03038e-05
2.45406e-06
4.15154e-05
3.03178e-06
4.28649e-05
3.7906e-06
4.44925e-05
4.77368e-06
4.64769e-05
6.45606e-06
4.88854e-05
9.0261e-06
5.12165e-05
1.25454e-05
5.38159e-05
1.74337e-05
5.70046e-05
2.39054e-05
5.98976e-05
3.14994e-05
6.09041e-05
3.99664e-05
5.97006e-05
5.78703e-05
9.04791e-07
4.09694e-05
1.57854e-06
3.81315e-05
1.98704e-06
3.77109e-05
2.23113e-06
3.74152e-05
2.32574e-06
3.72544e-05
2.32414e-06
3.72809e-05
2.26434e-06
3.74642e-05
2.25109e-06
3.79015e-05
2.28938e-06
3.84768e-05
2.45559e-06
3.91881e-05
2.82872e-06
3.9931e-05
3.40269e-06
4.09417e-05
4.07801e-06
4.21899e-05
5.11861e-06
4.34525e-05
6.64892e-06
4.49467e-05
8.88638e-06
4.6649e-05
1.15218e-05
4.85821e-05
1.47321e-05
5.06069e-05
1.91758e-05
5.25623e-05
2.48427e-05
5.42321e-05
3.12809e-05
5.44674e-05
3.81468e-05
5.28364e-05
5.06468e-05
7.313e-07
4.02383e-05
1.36968e-06
3.74933e-05
1.86717e-06
3.72136e-05
2.20047e-06
3.70821e-05
2.4402e-06
3.70149e-05
2.65933e-06
3.7062e-05
2.87109e-06
3.72527e-05
3.15357e-06
3.76192e-05
3.52254e-06
3.81081e-05
3.94684e-06
3.8764e-05
4.45523e-06
3.94229e-05
5.20143e-06
4.01958e-05
6.17742e-06
4.12142e-05
7.38777e-06
4.22424e-05
8.9516e-06
4.33837e-05
1.10245e-05
4.45769e-05
1.36876e-05
4.59201e-05
1.70228e-05
4.7273e-05
2.1167e-05
4.84195e-05
2.6129e-05
4.92717e-05
3.16379e-05
4.89599e-05
3.72598e-05
4.72158e-05
4.51282e-05
6.74156e-07
3.95643e-05
1.23139e-06
3.69362e-05
1.69034e-06
3.67549e-05
2.08005e-06
3.66926e-05
2.42456e-06
3.66706e-05
2.75034e-06
3.67364e-05
3.10195e-06
3.69013e-05
3.53786e-06
3.71835e-05
4.0718e-06
3.75744e-05
4.70724e-06
3.81288e-05
5.3936e-06
3.87368e-05
6.26156e-06
3.93281e-05
7.44881e-06
4.00272e-05
8.87772e-06
4.0814e-05
1.05859e-05
4.16759e-05
1.24962e-05
4.26676e-05
1.48664e-05
4.35511e-05
1.79429e-05
4.41977e-05
2.16307e-05
4.47331e-05
2.59165e-05
4.49874e-05
3.06485e-05
4.42293e-05
3.53492e-05
4.25165e-05
4.0698e-05
6.01778e-07
3.89627e-05
1.11892e-06
3.64192e-05
1.58776e-06
3.62862e-05
2.02908e-06
3.62515e-05
2.43521e-06
3.62646e-05
2.82939e-06
3.63424e-05
3.24892e-06
3.64819e-05
3.74457e-06
3.66881e-05
4.33493e-06
3.69843e-05
5.03682e-06
3.74272e-05
5.84341e-06
3.79304e-05
6.78766e-06
3.83841e-05
7.94113e-06
3.8874e-05
9.37361e-06
3.93818e-05
1.10887e-05
3.99616e-05
1.32074e-05
4.05496e-05
1.57883e-05
4.09714e-05
1.8661e-05
4.13263e-05
2.19206e-05
4.14747e-05
2.57e-05
4.12094e-05
2.96823e-05
4.02483e-05
3.35043e-05
3.86957e-05
3.68887e-05
6.2693e-07
3.83359e-05
1.16078e-06
3.58855e-05
1.65431e-06
3.57928e-05
2.12554e-06
3.57804e-05
2.58811e-06
3.58022e-05
3.06636e-06
3.58643e-05
3.57827e-06
3.59702e-05
4.13863e-06
3.61279e-05
4.76317e-06
3.63599e-05
5.53286e-06
3.66577e-05
6.48681e-06
3.69767e-05
7.56248e-06
3.73086e-05
8.76025e-06
3.76765e-05
1.01402e-05
3.80022e-05
1.1802e-05
3.83002e-05
1.37922e-05
3.85604e-05
1.59963e-05
3.87683e-05
1.85011e-05
3.88226e-05
2.14881e-05
3.84889e-05
2.48119e-05
3.78869e-05
2.81637e-05
3.68977e-05
3.14434e-05
3.5417e-05
3.34603e-05
5.81265e-07
3.77548e-05
1.10437e-06
3.53625e-05
1.6231e-06
3.52742e-05
2.12676e-06
3.52769e-05
2.62809e-06
3.5301e-05
3.14843e-06
3.53441e-05
3.70391e-06
3.54149e-05
4.30821e-06
3.55238e-05
4.9879e-06
3.56804e-05
5.78044e-06
3.58653e-05
6.70132e-06
3.6056e-05
7.7568e-06
3.62533e-05
9.01349e-06
3.64201e-05
1.03782e-05
3.66378e-05
1.19079e-05
3.67711e-05
1.3734e-05
3.67348e-05
1.58728e-05
3.66305e-05
1.83885e-05
3.63079e-05
2.10624e-05
3.5816e-05
2.38601e-05
3.50903e-05
2.67316e-05
3.40271e-05
2.96876e-05
3.2462e-05
3.05276e-05
5.80908e-07
3.7174e-05
1.10942e-06
3.48341e-05
1.64112e-06
3.47427e-05
2.18161e-06
3.47365e-05
2.73204e-06
3.47507e-05
3.29541e-06
3.47809e-05
3.89281e-06
3.48176e-05
4.54387e-06
3.48729e-05
5.27665e-06
3.49478e-05
6.08867e-06
3.50534e-05
6.96143e-06
3.51834e-05
7.94719e-06
3.52677e-05
9.09866e-06
3.52688e-05
1.04835e-05
3.52533e-05
1.21327e-05
3.51223e-05
1.39028e-05
3.49654e-05
1.58396e-05
3.46945e-05
1.7878e-05
3.42705e-05
2.00712e-05
3.36238e-05
2.25487e-05
3.26137e-05
2.52318e-05
3.1345e-05
2.78564e-05
2.98381e-05
2.79871e-05
5.71901e-07
3.66022e-05
1.09661e-06
3.43095e-05
1.62513e-06
3.42142e-05
2.15633e-06
3.42054e-05
2.70329e-06
3.42038e-05
3.27695e-06
3.42073e-05
3.88107e-06
3.42136e-05
4.52905e-06
3.4225e-05
5.24585e-06
3.42311e-05
6.0752e-06
3.42242e-05
7.0431e-06
3.42156e-05
8.1212e-06
3.41898e-05
9.26456e-06
3.41256e-05
1.05119e-05
3.40062e-05
1.18347e-05
3.38e-05
1.33615e-05
3.3439e-05
1.51162e-05
3.29406e-05
1.70915e-05
3.22959e-05
1.92761e-05
3.144e-05
2.14807e-05
3.041e-05
2.36548e-05
2.91716e-05
2.59205e-05
2.75732e-05
2.56801e-05
5.74526e-07
3.60277e-05
1.11223e-06
3.37719e-05
1.65752e-06
3.3669e-05
2.20925e-06
3.36537e-05
2.77548e-06
3.36377e-05
3.36724e-06
3.36157e-05
3.9894e-06
3.35915e-05
4.65298e-06
3.35615e-05
5.36547e-06
3.35187e-05
6.1274e-06
3.34624e-05
6.95592e-06
3.33872e-05
7.88708e-06
3.32587e-05
8.94953e-06
3.30633e-05
1.01605e-05
3.27954e-05
1.15467e-05
3.24141e-05
1.3087e-05
3.18993e-05
1.47062e-05
3.1322e-05
1.64116e-05
3.05912e-05
1.81549e-05
2.96974e-05
2.00241e-05
2.85414e-05
2.20569e-05
2.71394e-05
2.40943e-05
2.55364e-05
2.36949e-05
5.50118e-07
3.54777e-05
1.06616e-06
3.32559e-05
1.59575e-06
3.31395e-05
2.13558e-06
3.3114e-05
2.68988e-06
3.30835e-05
3.26623e-06
3.30394e-05
3.87326e-06
3.29846e-05
4.52167e-06
3.29132e-05
5.22143e-06
3.2819e-05
5.99301e-06
3.26909e-05
6.86438e-06
3.25159e-05
7.81903e-06
3.23042e-05
8.85318e-06
3.20293e-05
9.97653e-06
3.16722e-05
1.11704e-05
3.12206e-05
1.24222e-05
3.06478e-05
1.38055e-05
2.99391e-05
1.53238e-05
2.90735e-05
1.69923e-05
2.80294e-05
1.87185e-05
2.68159e-05
2.04459e-05
2.54125e-05
2.22044e-05
2.37785e-05
2.19241e-05
5.54339e-07
3.49234e-05
1.0824e-06
3.2728e-05
1.6218e-06
3.26002e-05
2.16492e-06
3.25709e-05
2.71873e-06
3.25297e-05
3.28459e-06
3.24736e-05
3.86985e-06
3.23994e-05
4.48416e-06
3.2299e-05
5.13866e-06
3.21646e-05
5.84256e-06
3.19871e-05
6.59915e-06
3.17594e-05
7.42792e-06
3.14755e-05
8.34609e-06
3.11113e-05
9.36178e-06
3.06567e-05
1.04793e-05
3.01032e-05
1.17054e-05
2.94221e-05
1.30179e-05
2.86271e-05
1.43778e-05
2.77141e-05
1.57806e-05
2.6627e-05
1.72455e-05
2.53514e-05
1.87814e-05
2.3877e-05
2.03389e-05
2.22214e-05
2.0377e-05
5.27822e-07
3.43956e-05
1.03596e-06
3.22199e-05
1.55579e-06
3.20804e-05
2.07927e-06
3.20475e-05
2.61261e-06
3.19964e-05
3.15864e-06
3.19276e-05
3.72351e-06
3.18346e-05
4.31501e-06
3.17075e-05
4.94026e-06
3.15394e-05
5.61031e-06
3.13171e-05
6.33217e-06
3.10376e-05
7.11962e-06
3.06881e-05
7.97253e-06
3.02584e-05
8.88813e-06
2.97412e-05
9.8688e-06
2.91229e-05
1.09106e-05
2.83804e-05
1.20179e-05
2.75202e-05
1.32127e-05
2.65196e-05
1.44788e-05
2.53613e-05
1.57875e-05
2.40431e-05
1.71134e-05
2.25514e-05
1.8461e-05
2.08742e-05
1.9024e-05
5.27533e-07
3.38682e-05
1.03079e-06
3.17167e-05
1.54047e-06
3.15708e-05
2.0501e-06
3.15379e-05
2.56526e-06
3.14813e-05
3.08816e-06
3.14048e-05
3.62099e-06
3.13018e-05
4.16837e-06
3.11602e-05
4.73784e-06
3.097e-05
5.34377e-06
3.07112e-05
5.98686e-06
3.03945e-05
6.67745e-06
2.99976e-05
7.42791e-06
2.9508e-05
8.24009e-06
2.89292e-05
9.11297e-06
2.825e-05
1.00429e-05
2.74508e-05
1.10291e-05
2.65342e-05
1.20705e-05
2.54784e-05
1.31527e-05
2.42794e-05
1.4273e-05
2.2923e-05
1.54215e-05
2.14031e-05
1.65883e-05
1.97076e-05
1.78551e-05
5.10799e-07
3.33574e-05
9.91684e-07
3.12358e-05
1.47846e-06
3.1084e-05
1.96237e-06
3.1054e-05
2.45144e-06
3.09923e-05
2.95102e-06
3.09052e-05
3.46591e-06
3.07869e-05
3.99698e-06
3.06292e-05
4.53911e-06
3.04279e-05
5.09103e-06
3.01593e-05
5.65992e-06
2.98256e-05
6.2535e-06
2.9404e-05
6.88485e-06
2.88767e-05
7.56643e-06
2.82476e-05
8.30943e-06
2.75072e-05
9.10863e-06
2.66516e-05
9.96068e-06
2.56823e-05
1.08524e-05
2.45868e-05
1.178e-05
2.33519e-05
1.27407e-05
2.19625e-05
1.37214e-05
2.04225e-05
1.47104e-05
1.87188e-05
1.68579e-05
5.03406e-07
3.2854e-05
9.39467e-07
3.07998e-05
1.38178e-06
3.06417e-05
1.82648e-06
3.06094e-05
2.28057e-06
3.05382e-05
2.7501e-06
3.04357e-05
3.23995e-06
3.02971e-05
3.74261e-06
3.01265e-05
4.2583e-06
2.99122e-05
4.77582e-06
2.96418e-05
5.3036e-06
2.92979e-05
5.84258e-06
2.8865e-05
6.39286e-06
2.83264e-05
6.95846e-06
2.7682e-05
7.54715e-06
2.69184e-05
8.17018e-06
2.60287e-05
8.84969e-06
2.50028e-05
9.59526e-06
2.38413e-05
1.0383e-05
2.25642e-05
1.11884e-05
2.11571e-05
1.20075e-05
1.96035e-05
1.28328e-05
1.78935e-05
1.6027e-05
4.8759e-07
3.23664e-05
8.54922e-07
3.04325e-05
1.22415e-06
3.02725e-05
1.60455e-06
3.0229e-05
1.99743e-06
3.01454e-05
2.40676e-06
3.00264e-05
2.84093e-06
2.9863e-05
3.29614e-06
2.96713e-05
3.77419e-06
2.94341e-05
4.26737e-06
2.91486e-05
4.76956e-06
2.87957e-05
5.27362e-06
2.8361e-05
5.77342e-06
2.78266e-05
6.27449e-06
2.71809e-05
6.78164e-06
2.64114e-05
7.30144e-06
2.55087e-05
7.83124e-06
2.44731e-05
8.37229e-06
2.33002e-05
8.95749e-06
2.19789e-05
9.60707e-06
2.05075e-05
1.02831e-05
1.89274e-05
1.09543e-05
1.72222e-05
1.53584e-05
4.35865e-07
3.19306e-05
6.75082e-07
3.01933e-05
9.14971e-07
3.00327e-05
1.18181e-06
2.99622e-05
1.46835e-06
2.98588e-05
1.78062e-06
2.97141e-05
2.122e-06
2.95216e-05
2.50254e-06
2.92908e-05
2.9226e-06
2.90141e-05
3.37823e-06
2.86929e-05
3.85506e-06
2.83188e-05
4.33544e-06
2.78805e-05
4.82125e-06
2.73408e-05
5.31994e-06
2.66822e-05
5.81109e-06
2.592e-05
6.29239e-06
2.50275e-05
6.75748e-06
2.40078e-05
7.20876e-06
2.28488e-05
7.65338e-06
2.15342e-05
8.08807e-06
2.00727e-05
8.55237e-06
1.8463e-05
9.06815e-06
1.67064e-05
1.48426e-05
3.22945e-07
3.16076e-05
3.66792e-07
3.01494e-05
3.9642e-07
3.0003e-05
4.80195e-07
2.98784e-05
6.00927e-07
2.97381e-05
7.61793e-07
2.95533e-05
9.65702e-07
2.93177e-05
1.22686e-06
2.90297e-05
1.55035e-06
2.86906e-05
1.94349e-06
2.82998e-05
2.40206e-06
2.78602e-05
2.90906e-06
2.73735e-05
3.43173e-06
2.6818e-05
3.95174e-06
2.6162e-05
4.44441e-06
2.54274e-05
4.91237e-06
2.45592e-05
5.37424e-06
2.35458e-05
5.8296e-06
2.23933e-05
6.25143e-06
2.11122e-05
6.6243e-06
1.96997e-05
6.94617e-06
1.8141e-05
7.24152e-06
1.64108e-05
1.45233e-05
1.29854e-07
3.14778e-05
-6.65813e-08
3.03459e-05
-2.73386e-07
3.02098e-05
-4.35332e-07
3.00403e-05
-5.40051e-07
2.98428e-05
-5.86271e-07
2.95995e-05
-5.78103e-07
2.93095e-05
-5.12604e-07
2.89641e-05
-3.71658e-07
2.85496e-05
-1.4705e-07
2.80752e-05
1.63155e-07
2.755e-05
5.73795e-07
2.69628e-05
1.0826e-06
2.63091e-05
1.6613e-06
2.55833e-05
2.29711e-06
2.47911e-05
2.93922e-06
2.39171e-05
3.53916e-06
2.29458e-05
4.05814e-06
2.18743e-05
4.50939e-06
2.0661e-05
4.91187e-06
1.92972e-05
5.23953e-06
1.78132e-05
5.46185e-06
1.61883e-05
1.43976e-05
-5.30421e-08
3.15308e-05
-4.79965e-07
3.07728e-05
-9.0026e-07
3.06301e-05
-1.27513e-06
3.04152e-05
-1.59107e-06
3.01588e-05
-1.83483e-06
2.98432e-05
-1.99956e-06
2.94742e-05
-2.07991e-06
2.90445e-05
-2.08043e-06
2.85501e-05
-2.00438e-06
2.79991e-05
-1.84206e-06
2.73876e-05
-1.59304e-06
2.67137e-05
-1.25888e-06
2.59749e-05
-8.40183e-07
2.51644e-05
-3.33343e-07
2.42845e-05
2.51218e-07
2.33325e-05
8.9519e-07
2.2302e-05
1.56754e-06
2.12022e-05
2.20997e-06
2.00188e-05
2.75616e-06
1.87512e-05
3.17558e-06
1.73938e-05
3.45832e-06
1.59056e-05
1.42335e-05
-1.74912e-07
3.17058e-05
-6.89886e-07
3.12878e-05
-1.18758e-06
3.11279e-05
-1.65338e-06
3.0881e-05
-2.07645e-06
3.05819e-05
-2.44573e-06
3.02125e-05
-2.75364e-06
2.97822e-05
-2.99605e-06
2.92869e-05
-3.17206e-06
2.87261e-05
-3.26907e-06
2.80961e-05
-3.28055e-06
2.73991e-05
-3.20251e-06
2.66357e-05
-3.03526e-06
2.58076e-05
-2.79001e-06
2.49192e-05
-2.46548e-06
2.39599e-05
-2.07136e-06
2.29386e-05
-1.59096e-06
2.18219e-05
-1.04878e-06
2.06603e-05
-4.56291e-07
1.94266e-05
1.55612e-07
1.81396e-05
7.37172e-07
1.68125e-05
1.20817e-06
1.54346e-05
1.39493e-05
-3.28023e-07
-9.00968e-07
-1.45903e-06
-1.99342e-06
-2.50168e-06
-2.97955e-06
-3.41938e-06
-3.80604e-06
-4.13047e-06
-4.39131e-06
-4.58336e-06
-4.70053e-06
-4.73788e-06
-4.69419e-06
-4.5606e-06
-4.34051e-06
-4.06363e-06
-3.71316e-06
-3.31571e-06
-2.88385e-06
-2.42829e-06
-1.98384e-06
)
;

boundaryField
{
    leftWall
    {
        type            fixedValue;
        value           uniform 0;
    }
    rightWall
    {
        type            fixedValue;
        value           nonuniform 0();
    }
    lowerWall
    {
        type            fixedValue;
        value           nonuniform 0();
    }
    atmosphere
    {
        type            calculated;
        value           nonuniform List<scalar> 
23
(
3.20338e-05
3.18607e-05
3.16859e-05
3.14154e-05
3.10901e-05
3.06904e-05
3.0222e-05
2.96736e-05
2.90506e-05
2.8357e-05
2.75912e-05
2.67529e-05
2.5845e-05
2.48756e-05
2.38264e-05
2.27186e-05
2.15451e-05
2.031e-05
1.90293e-05
1.77078e-05
1.6357e-05
1.49903e-05
1.35943e-05
)
;
    }
    defaultFaces
    {
        type            empty;
        value           nonuniform 0();
    }
    procBoundary2to0
    {
        type            processor;
        value           nonuniform List<scalar> 
24
(
-5.65978e-05
-6.41153e-05
-7.29175e-05
-8.14441e-05
-8.83266e-05
-9.23801e-05
-9.27727e-05
-4.45505e-05
-4.09861e-05
-3.89811e-05
-3.76619e-05
-3.66739e-05
-3.62214e-05
-3.62343e-05
-3.70356e-05
-3.80503e-05
-3.97919e-05
-4.14455e-05
-4.27572e-05
-4.38898e-05
-4.56194e-05
-4.78101e-05
-7.50155e-07
-5.11748e-05
)
;
    }
    procBoundary2to3
    {
        type            processor;
        value           nonuniform List<scalar> 
25
(
5.79839e-05
5.20679e-05
4.89785e-05
4.53706e-05
4.27792e-05
3.97801e-05
3.73142e-05
3.48723e-05
3.26206e-05
3.03972e-05
2.82277e-05
2.60797e-05
2.39753e-05
2.18861e-05
1.98139e-05
1.77572e-05
1.57074e-05
1.36637e-05
1.16228e-05
9.58359e-06
7.56066e-06
5.58712e-06
3.62217e-06
1.49261e-06
-1.62876e-06
)
;
    }
}


// ************************************************************************* //
