/*--------------------------------*- C++ -*----------------------------------*\
| =========                 |                                                 |
| \\      /  F ield         | OpenFOAM: The Open Source CFD Toolbox           |
|  \\    /   O peration     | Version:  2.4.0                                 |
|   \\  /    A nd           | Web:      www.OpenFOAM.org                      |
|    \\/     M anipulation  |                                                 |
\*---------------------------------------------------------------------------*/
FoamFile
{
    version     2.0;
    format      ascii;
    class       volVectorField;
    location    "0.75";
    object      U.water;
}
// * * * * * * * * * * * * * * * * * * * * * * * * * * * * * * * * * * * * * //

dimensions      [0 1 -1 0 0 0 0];

internalField   nonuniform List<vector> 
559
(
(0.00427587 0.303561 0)
(0.0153801 0.33913 0)
(0.0388088 0.379232 0)
(0.0761721 0.418309 0)
(0.125468 0.444735 0)
(0.192479 0.45772 0)
(0.270375 0.456499 0)
(0.00455334 0.23585 0)
(0.0119129 0.217437 0)
(0.0172153 0.208806 0)
(0.0177162 0.203102 0)
(0.0162849 0.19899 0)
(0.0128792 0.197051 0)
(0.00850453 0.197424 0)
(0.00508371 0.201138 0)
(0.00234076 0.206056 0)
(0.0020444 0.213802 0)
(0.0047445 0.221341 0)
(0.00887044 0.228344 0)
(0.0114934 0.235424 0)
(0.0139744 0.244995 0)
(0.0153644 0.257163 0)
(0.0179863 0.275657 0)
(0.0221305 0.296233 0)
(0.0371577 0.319576 0)
(0.0615505 0.348248 0)
(0.0940678 0.377176 0)
(0.136702 0.393237 0)
(0.188241 0.394015 0)
(0.248208 0.387949 0)
(0.00350062 0.228785 0)
(0.00917233 0.211373 0)
(0.0127005 0.206627 0)
(0.0136679 0.203539 0)
(0.0133338 0.201119 0)
(0.0117308 0.200361 0)
(0.00948731 0.200803 0)
(0.00756522 0.203589 0)
(0.00603603 0.207107 0)
(0.00601689 0.212341 0)
(0.00806337 0.218876 0)
(0.0120142 0.225909 0)
(0.0145725 0.232977 0)
(0.0185031 0.242445 0)
(0.022651 0.254528 0)
(0.0293496 0.269851 0)
(0.0408935 0.283647 0)
(0.0570663 0.29939 0)
(0.0788754 0.32057 0)
(0.109039 0.340412 0)
(0.147754 0.34843 0)
(0.190059 0.343437 0)
(0.23826 0.334479 0)
(0.00281974 0.223177 0)
(0.00696567 0.207502 0)
(0.00972661 0.204727 0)
(0.0115033 0.20275 0)
(0.0123735 0.201427 0)
(0.0125835 0.201436 0)
(0.0123651 0.202261 0)
(0.0121401 0.204698 0)
(0.0121509 0.208031 0)
(0.0126853 0.211949 0)
(0.0138431 0.21615 0)
(0.016893 0.222005 0)
(0.0199337 0.229283 0)
(0.0243386 0.237541 0)
(0.0311792 0.247178 0)
(0.041063 0.257977 0)
(0.0550775 0.270395 0)
(0.0696201 0.282875 0)
(0.0895542 0.296377 0)
(0.116932 0.308063 0)
(0.150021 0.310791 0)
(0.185294 0.302852 0)
(0.223652 0.291405 0)
(0.00222614 0.219016 0)
(0.00563311 0.203956 0)
(0.00892045 0.202068 0)
(0.0110766 0.20077 0)
(0.0124904 0.200511 0)
(0.0137469 0.200665 0)
(0.0148726 0.201723 0)
(0.016143 0.203873 0)
(0.0179034 0.206621 0)
(0.0202136 0.210296 0)
(0.0224918 0.213907 0)
(0.0257153 0.218739 0)
(0.0305764 0.225364 0)
(0.0362859 0.231174 0)
(0.0437009 0.237916 0)
(0.053142 0.245318 0)
(0.0659363 0.254234 0)
(0.0819294 0.26377 0)
(0.101591 0.271774 0)
(0.126215 0.278429 0)
(0.154329 0.278208 0)
(0.184965 0.268449 0)
(0.214463 0.25634 0)
(0.00204269 0.215198 0)
(0.00519974 0.200768 0)
(0.00794242 0.199559 0)
(0.010172 0.199061 0)
(0.0121526 0.19886 0)
(0.0139475 0.199145 0)
(0.0156997 0.200063 0)
(0.017771 0.201834 0)
(0.020399 0.204386 0)
(0.0235722 0.207713 0)
(0.0272812 0.211282 0)
(0.0309799 0.215127 0)
(0.0367013 0.219412 0)
(0.0437291 0.224693 0)
(0.0521994 0.230089 0)
(0.0620476 0.236076 0)
(0.0728224 0.242046 0)
(0.0873965 0.247183 0)
(0.105733 0.251854 0)
(0.127089 0.25475 0)
(0.151039 0.251636 0)
(0.177586 0.242475 0)
(0.201381 0.231915 0)
(0.00175713 0.211854 0)
(0.00470293 0.197891 0)
(0.00727525 0.197028 0)
(0.00978672 0.196691 0)
(0.0120266 0.196706 0)
(0.014194 0.19717 0)
(0.016315 0.197981 0)
(0.0187311 0.199213 0)
(0.0216629 0.201012 0)
(0.0251106 0.203984 0)
(0.0292676 0.20694 0)
(0.0338556 0.20924 0)
(0.0393369 0.212541 0)
(0.0463449 0.216184 0)
(0.0548163 0.220127 0)
(0.0647084 0.224735 0)
(0.0776945 0.228038 0)
(0.0922528 0.230253 0)
(0.108621 0.232084 0)
(0.127009 0.231684 0)
(0.148946 0.227005 0)
(0.16927 0.217803 0)
(0.189951 0.208692 0)
(0.00183244 0.208421 0)
(0.00490316 0.19503 0)
(0.00756393 0.19443 0)
(0.0102037 0.194401 0)
(0.0126889 0.194524 0)
(0.0151992 0.194871 0)
(0.017849 0.195561 0)
(0.0207264 0.196604 0)
(0.0239194 0.198003 0)
(0.027492 0.199686 0)
(0.0321687 0.201936 0)
(0.0377771 0.204394 0)
(0.0437897 0.206737 0)
(0.0506969 0.208717 0)
(0.0585333 0.211059 0)
(0.0686887 0.213351 0)
(0.0797534 0.214864 0)
(0.0924295 0.216647 0)
(0.106569 0.215984 0)
(0.124229 0.213762 0)
(0.142232 0.207596 0)
(0.159748 0.200076 0)
(0.177601 0.190004 0)
(0.00168692 0.205362 0)
(0.00456945 0.192292 0)
(0.00731746 0.191806 0)
(0.0101206 0.191818 0)
(0.0127951 0.191893 0)
(0.0155139 0.192077 0)
(0.0184084 0.192539 0)
(0.0215109 0.193247 0)
(0.0249517 0.194278 0)
(0.0288111 0.195698 0)
(0.0334794 0.197148 0)
(0.0387255 0.198579 0)
(0.0449083 0.200191 0)
(0.052168 0.201809 0)
(0.0596323 0.202989 0)
(0.0686448 0.203088 0)
(0.0791013 0.203691 0)
(0.0916341 0.202453 0)
(0.10598 0.199974 0)
(0.120393 0.196199 0)
(0.135834 0.19187 0)
(0.150865 0.18327 0)
(0.167375 0.171839 0)
(0.00165403 0.202041 0)
(0.00459021 0.189277 0)
(0.00736266 0.188712 0)
(0.010304 0.188693 0)
(0.0132027 0.188887 0)
(0.016201 0.18924 0)
(0.0193079 0.189578 0)
(0.0226379 0.190039 0)
(0.0263221 0.19068 0)
(0.0305198 0.191481 0)
(0.0351139 0.192082 0)
(0.0398869 0.192833 0)
(0.0457122 0.193133 0)
(0.0522577 0.193826 0)
(0.0606107 0.193556 0)
(0.0699077 0.193486 0)
(0.0797393 0.192286 0)
(0.090444 0.190177 0)
(0.101792 0.187737 0)
(0.113755 0.183022 0)
(0.128237 0.175602 0)
(0.142675 0.167355 0)
(0.156036 0.158153 0)
(0.00162091 0.199139 0)
(0.00452656 0.186636 0)
(0.00728634 0.186104 0)
(0.0101956 0.186036 0)
(0.0130339 0.186023 0)
(0.0160724 0.186093 0)
(0.0192286 0.186175 0)
(0.0225761 0.186343 0)
(0.0261942 0.186541 0)
(0.0303289 0.18679 0)
(0.0350777 0.187367 0)
(0.0407823 0.187391 0)
(0.0466441 0.187195 0)
(0.0531116 0.186661 0)
(0.0599337 0.186141 0)
(0.0674376 0.184731 0)
(0.0762724 0.182499 0)
(0.0861938 0.179938 0)
(0.0974402 0.174936 0)
(0.109603 0.169317 0)
(0.121147 0.163479 0)
(0.132716 0.155116 0)
(0.145378 0.144345 0)
(0.00161044 0.195854 0)
(0.00456814 0.183607 0)
(0.00740892 0.183122 0)
(0.0104165 0.18309 0)
(0.0133806 0.183075 0)
(0.0165041 0.183031 0)
(0.0197559 0.182991 0)
(0.0232065 0.182926 0)
(0.0268956 0.182801 0)
(0.0308714 0.1826 0)
(0.0351105 0.182218 0)
(0.0397487 0.181884 0)
(0.0451182 0.181351 0)
(0.0512301 0.180284 0)
(0.0580687 0.178464 0)
(0.06609 0.175823 0)
(0.0745973 0.172998 0)
(0.0835078 0.169101 0)
(0.0928008 0.165195 0)
(0.10219 0.159451 0)
(0.112868 0.151542 0)
(0.123937 0.142865 0)
(0.134577 0.133189 0)
(0.00153963 0.192984 0)
(0.00437339 0.180891 0)
(0.00711404 0.180271 0)
(0.0100455 0.180139 0)
(0.0129551 0.179991 0)
(0.0159986 0.179785 0)
(0.0191654 0.179567 0)
(0.0225311 0.179333 0)
(0.0261456 0.179032 0)
(0.0300662 0.178629 0)
(0.0344392 0.178032 0)
(0.0394077 0.17712 0)
(0.0447357 0.175682 0)
(0.0505189 0.173925 0)
(0.0567979 0.1717 0)
(0.0632894 0.168998 0)
(0.07028 0.165595 0)
(0.0780644 0.161297 0)
(0.0866103 0.155436 0)
(0.0959125 0.148879 0)
(0.105151 0.141794 0)
(0.114356 0.132995 0)
(0.123923 0.122895 0)
(0.00151769 0.189872 0)
(0.00443496 0.17799 0)
(0.00723094 0.177338 0)
(0.010199 0.177194 0)
(0.0131179 0.176985 0)
(0.0161372 0.176696 0)
(0.0192223 0.176312 0)
(0.0224359 0.175792 0)
(0.0258348 0.175105 0)
(0.0294749 0.174235 0)
(0.0333848 0.173147 0)
(0.0376163 0.171854 0)
(0.0422998 0.170193 0)
(0.0474784 0.167968 0)
(0.0531948 0.165229 0)
(0.059474 0.161692 0)
(0.066342 0.157552 0)
(0.0735449 0.152928 0)
(0.0809158 0.147489 0)
(0.0886058 0.140822 0)
(0.0966573 0.132808 0)
(0.105007 0.123927 0)
(0.113272 0.11403 0)
(0.00144337 0.187077 0)
(0.00423439 0.175285 0)
(0.00692771 0.174561 0)
(0.00979037 0.174396 0)
(0.0125984 0.174164 0)
(0.0155101 0.17385 0)
(0.0184873 0.173426 0)
(0.0215862 0.172836 0)
(0.0248456 0.172043 0)
(0.0283183 0.170978 0)
(0.0320458 0.169614 0)
(0.0360797 0.167817 0)
(0.040496 0.165621 0)
(0.0452419 0.163021 0)
(0.0503367 0.159885 0)
(0.0557605 0.156096 0)
(0.0615063 0.151655 0)
(0.0676724 0.14637 0)
(0.0742813 0.140115 0)
(0.0812564 0.133059 0)
(0.0883215 0.125165 0)
(0.0954711 0.116166 0)
(0.102677 0.106204 0)
(0.0014406 0.184132 0)
(0.00423312 0.172393 0)
(0.00687161 0.171626 0)
(0.00968106 0.171443 0)
(0.012394 0.171141 0)
(0.0152012 0.17074 0)
(0.0180351 0.17019 0)
(0.0209323 0.169442 0)
(0.0239112 0.168448 0)
(0.02707 0.167143 0)
(0.0304167 0.165529 0)
(0.0339784 0.163579 0)
(0.0378375 0.161175 0)
(0.0420389 0.158223 0)
(0.0465575 0.154705 0)
(0.0513947 0.15053 0)
(0.0565521 0.145669 0)
(0.0619924 0.140128 0)
(0.0676896 0.13385 0)
(0.0736138 0.126653 0)
(0.079719 0.118493 0)
(0.0859305 0.109408 0)
(0.0921427 0.0994241 0)
(0.00138717 0.181397 0)
(0.00409047 0.169921 0)
(0.00659737 0.169119 0)
(0.00928209 0.168962 0)
(0.0118476 0.168654 0)
(0.0145167 0.168218 0)
(0.0172346 0.167612 0)
(0.0200546 0.166795 0)
(0.0229414 0.165714 0)
(0.0258796 0.16433 0)
(0.0288985 0.162503 0)
(0.0319905 0.160178 0)
(0.0352547 0.157311 0)
(0.0387721 0.154027 0)
(0.0425888 0.150273 0)
(0.0467292 0.145931 0)
(0.0511865 0.140865 0)
(0.0558679 0.135052 0)
(0.0607377 0.128425 0)
(0.0658241 0.12102 0)
(0.0710537 0.112771 0)
(0.0763325 0.103622 0)
(0.0816071 0.0935971 0)
(0.00144561 0.17856 0)
(0.00395101 0.167224 0)
(0.00617079 0.166361 0)
(0.00865668 0.166192 0)
(0.0110145 0.165849 0)
(0.013502 0.165367 0)
(0.0160821 0.164768 0)
(0.0187626 0.163954 0)
(0.0215053 0.162841 0)
(0.024284 0.161434 0)
(0.0270893 0.159608 0)
(0.0299425 0.157266 0)
(0.0328722 0.154413 0)
(0.035862 0.150943 0)
(0.0389605 0.146729 0)
(0.0421667 0.141855 0)
(0.0456366 0.136458 0)
(0.0494755 0.130519 0)
(0.0536377 0.123868 0)
(0.0579175 0.116334 0)
(0.0622872 0.107939 0)
(0.0667037 0.0987188 0)
(0.0710934 0.0886803 0)
(0.00149169 0.176006 0)
(0.00372171 0.165207 0)
(0.00549088 0.164395 0)
(0.00763663 0.164206 0)
(0.00964157 0.163795 0)
(0.011815 0.163212 0)
(0.0140775 0.162374 0)
(0.0164686 0.161366 0)
(0.0189816 0.160166 0)
(0.0216005 0.158696 0)
(0.0242789 0.156865 0)
(0.0269885 0.154565 0)
(0.0297081 0.151702 0)
(0.0323812 0.14819 0)
(0.035062 0.144064 0)
(0.0378087 0.139246 0)
(0.0406707 0.133584 0)
(0.0435088 0.12701 0)
(0.0464418 0.119869 0)
(0.0498027 0.11228 0)
(0.0534339 0.103956 0)
(0.0570441 0.0947279 0)
(0.0605852 0.0846566 0)
(0.00150969 0.173427 0)
(0.00313562 0.163502 0)
(0.0041408 0.162582 0)
(0.00566535 0.162298 0)
(0.00705485 0.161803 0)
(0.0087121 0.161077 0)
(0.010439 0.160113 0)
(0.0123758 0.158956 0)
(0.0145257 0.157628 0)
(0.0168949 0.156031 0)
(0.0194238 0.154118 0)
(0.0220126 0.151771 0)
(0.0245893 0.148878 0)
(0.0272404 0.14543 0)
(0.0299133 0.141329 0)
(0.0325493 0.136511 0)
(0.0350922 0.130976 0)
(0.0374911 0.124762 0)
(0.0399454 0.117578 0)
(0.0423016 0.109366 0)
(0.0445715 0.100635 0)
(0.0473194 0.0914519 0)
(0.0500798 0.0814815 0)
(0.0013573 0.171234 0)
(0.00211738 0.162571 0)
(0.00184235 0.16176 0)
(0.00238663 0.161249 0)
(0.00279739 0.160591 0)
(0.00363213 0.15971 0)
(0.00456863 0.158577 0)
(0.00581832 0.157167 0)
(0.00737987 0.155476 0)
(0.00929185 0.153571 0)
(0.0115902 0.151468 0)
(0.0142334 0.149059 0)
(0.0170408 0.146196 0)
(0.0198518 0.142758 0)
(0.0226009 0.138698 0)
(0.0251771 0.133914 0)
(0.0276012 0.128413 0)
(0.0301277 0.122193 0)
(0.0325163 0.115237 0)
(0.0346136 0.107615 0)
(0.0365541 0.0989301 0)
(0.0381041 0.0892107 0)
(0.0396434 0.0790738 0)
(0.000938507 0.170008 0)
(0.000464376 0.162648 0)
(-0.00114052 0.161872 0)
(-0.0018725 0.161069 0)
(-0.00272567 0.160179 0)
(-0.00307132 0.159076 0)
(-0.00319251 0.157708 0)
(-0.00297479 0.156076 0)
(-0.00247004 0.154191 0)
(-0.0014978 0.151915 0)
(-7.97131e-05 0.149318 0)
(0.00184353 0.146414 0)
(0.0043378 0.143229 0)
(0.0072863 0.139682 0)
(0.0105949 0.13566 0)
(0.0140889 0.131131 0)
(0.0175121 0.125935 0)
(0.0205316 0.119928 0)
(0.0230572 0.113094 0)
(0.025348 0.105502 0)
(0.0273745 0.0972215 0)
(0.0289533 0.0882913 0)
(0.0297217 0.0781988 0)
(0.000548598 0.16974 0)
(-0.00113086 0.164772 0)
(-0.00394174 0.164066 0)
(-0.00582203 0.163002 0)
(-0.00778877 0.161755 0)
(-0.00927779 0.160233 0)
(-0.0103853 0.158485 0)
(-0.0110778 0.156416 0)
(-0.0112476 0.153967 0)
(-0.0110467 0.151176 0)
(-0.0104155 0.148041 0)
(-0.009316 0.144656 0)
(-0.00775642 0.140941 0)
(-0.0057397 0.136813 0)
(-0.003239 0.132299 0)
(-0.000294806 0.127396 0)
(0.00301877 0.122072 0)
(0.00660228 0.116321 0)
(0.0102426 0.110041 0)
(0.0135069 0.103126 0)
(0.0161093 0.0954767 0)
(0.0179775 0.0869004 0)
(0.0191221 0.0774345 0)
(0.000119433 0.170074 0)
(-0.00206179 0.166636 0)
(-0.00522602 0.165799 0)
(-0.00760605 0.164544 0)
(-0.0100904 0.163045 0)
(-0.0122188 0.1612 0)
(-0.0140355 0.159043 0)
(-0.0155198 0.156611 0)
(-0.0166516 0.153883 0)
(-0.0173953 0.150828 0)
(-0.0176893 0.147417 0)
(-0.0175184 0.143643 0)
(-0.0168534 0.139505 0)
(-0.0157321 0.134952 0)
(-0.0141955 0.130033 0)
(-0.0122658 0.124725 0)
(-0.00991332 0.119069 0)
(-0.00713895 0.113063 0)
(-0.00404308 0.1067 0)
(-0.000793131 0.0999541 0)
(0.00247854 0.0929069 0)
(0.0054152 0.08543 0)
(0.0075697 0.0769535 0)
(-0.000420195 0.172817 0)
(-0.00315225 0.171885 0)
(-0.00646788 0.170943 0)
(-0.0092416 0.169485 0)
(-0.0121199 0.167731 0)
(-0.0147569 0.165576 0)
(-0.0172459 0.16305 0)
(-0.0194646 0.160092 0)
(-0.0213792 0.15673 0)
(-0.0229572 0.152988 0)
(-0.0241761 0.148856 0)
(-0.0250162 0.144332 0)
(-0.0254368 0.139433 0)
(-0.0254078 0.134202 0)
(-0.0249185 0.12854 0)
(-0.0239642 0.122562 0)
(-0.022628 0.11623 0)
(-0.0209264 0.109565 0)
(-0.0188973 0.102655 0)
(-0.0166536 0.095525 0)
(-0.0142311 0.0882364 0)
(-0.0117729 0.0808622 0)
(-0.00941239 0.0733292 0)
)
;

boundaryField
{
    leftWall
    {
        type            fixedValue;
        value           uniform (0 0 0);
    }
    rightWall
    {
        type            fixedValue;
        value           nonuniform 0();
    }
    lowerWall
    {
        type            fixedValue;
        value           nonuniform 0();
    }
    atmosphere
    {
        type            fluxCorrectedVelocity;
        value           nonuniform List<vector> 
23
(
(-0.000420195 0.172875 0)
(-0.00315225 0.171942 0)
(-0.00646788 0.170998 0)
(-0.0092416 0.169539 0)
(-0.0121199 0.167783 0)
(-0.0147569 0.165626 0)
(-0.0172459 0.163098 0)
(-0.0194646 0.160138 0)
(-0.0213792 0.156776 0)
(-0.0229572 0.153032 0)
(-0.0241761 0.148899 0)
(-0.0250162 0.144375 0)
(-0.0254368 0.139475 0)
(-0.0254078 0.134242 0)
(-0.0249185 0.128579 0)
(-0.0239642 0.122599 0)
(-0.022628 0.116264 0)
(-0.0209264 0.109597 0)
(-0.0188973 0.102684 0)
(-0.0166536 0.0955506 0)
(-0.0142311 0.0882589 0)
(-0.0117729 0.0808813 0)
(-0.00941239 0.0733447 0)
)
;
    }
    defaultFaces
    {
        type            empty;
    }
    procBoundary2to0
    {
        type            processor;
        value           nonuniform List<vector> 
24
(
(-0.0325087 0.304849 0)
(-0.026182 0.351215 0)
(-0.00380354 0.40813 0)
(0.0389768 0.461205 0)
(0.10521 0.508547 0)
(0.198479 0.539382 0)
(0.304209 0.543832 0)
(0.00744889 0.245127 0)
(0.0171155 0.224756 0)
(0.0229982 0.211403 0)
(0.0223531 0.202706 0)
(0.018909 0.196084 0)
(0.0142182 0.192939 0)
(0.00796774 0.192615 0)
(0.00328815 0.197418 0)
(-0.000486713 0.203368 0)
(-0.00235074 0.214822 0)
(0.00117104 0.224813 0)
(0.00508235 0.231569 0)
(0.00757351 0.237127 0)
(0.00737587 0.246503 0)
(0.00571522 0.257616 0)
(0.00425308 0.275855 0)
(0.00425308 0.275855 0)
)
;
    }
    procBoundary2to3
    {
        type            processor;
        value           nonuniform List<vector> 
25
(
(0.325904 0.428971 0)
(0.291249 0.369496 0)
(0.272618 0.321951 0)
(0.251538 0.282887 0)
(0.236064 0.248929 0)
(0.218872 0.224363 0)
(0.20502 0.200913 0)
(0.191486 0.180109 0)
(0.178577 0.163849 0)
(0.166385 0.148404 0)
(0.154273 0.135786 0)
(0.142438 0.124329 0)
(0.130819 0.114501 0)
(0.11937 0.105745 0)
(0.108018 0.0980859 0)
(0.0967712 0.0913842 0)
(0.0855679 0.0855897 0)
(0.0743921 0.0806815 0)
(0.0632371 0.076653 0)
(0.052092 0.0735001 0)
(0.0410246 0.071189 0)
(0.0301302 0.0699859 0)
(0.0195914 0.0696584 0)
(0.00823237 0.0698537 0)
(-0.00840564 0.0671733 0)
)
;
    }
}


// ************************************************************************* //
