/*--------------------------------*- C++ -*----------------------------------*\
| =========                 |                                                 |
| \\      /  F ield         | OpenFOAM: The Open Source CFD Toolbox           |
|  \\    /   O peration     | Version:  2.4.0                                 |
|   \\  /    A nd           | Web:      www.OpenFOAM.org                      |
|    \\/     M anipulation  |                                                 |
\*---------------------------------------------------------------------------*/
FoamFile
{
    version     2.0;
    format      ascii;
    class       volScalarField;
    location    "0.35";
    object      alphas;
}
// * * * * * * * * * * * * * * * * * * * * * * * * * * * * * * * * * * * * * //

dimensions      [0 0 0 0 0 0 0];

internalField   nonuniform List<scalar> 
2268
(
2
2
2
2
2
2
2
2
2
2
2
2
2
2
2
2
2
2
2
2
2
1.99999
1.99995
2
2
2
2
2
2
2
2
2
2
2
2
2
2
2
2
2
2
2
2
2
1.99999
1.99995
2
2
2
2
2
2
2
2
2
2
2
2
2
2
2
2
2
2
2
2
2
1.99999
1.99994
2
2
2
2
2
2
2
2
2
2
2
2
1.99999
1.99998
1.99991
1.99986
1.99992
1.99996
1.99998
1.99999
1.99999
1.99999
1.99993
2
2
2
1.99999
1.99999
1.99998
1.99997
1.99995
1.99985
1.99966
1.99925
1.99847
1.99605
1.99077
1.97654
1.96507
1.98196
1.99366
1.99835
1.99965
1.99993
1.99997
1.99993
1.99845
1.99832
1.99812
1.99717
1.99729
1.99434
1.99232
1.98852
1.97716
1.9588
1.92672
1.87933
1.77671
1.62352
1.36423
1.12138
1.04151
1.16344
1.55203
1.90488
1.99306
1.99977
1.99991
1.90796
1.90323
1.89521
1.86931
1.8633
1.80211
1.74726
1.67481
1.5337
1.342
1.1032
0.852246
0.543677
0.272802
0.0831952
0.0167133
0.00234637
0.0484979
0.295501
1.15011
1.88968
1.99664
1.99985
1.20974
1.18966
1.15423
1.07597
1.02491
0.877968
0.734888
0.587294
0.404347
0.233292
0.108244
0.0382112
0.00825354
0.00117252
0.00015935
0.000148156
0.000507023
0.00232735
0.0151795
0.233895
1.52372
1.97726
1.99983
1.00027
1.00023
1.00023
1.00031
1.00038
1.00048
1.00078
1.00218
1.00914
1.03395
1.05093
1.05093
1.05095
1.0506
1.05061
1.04672
1.03094
1.01358
1.00526
1.00023
1.00008
1.00005
1.00004
1.00004
1.00006
1.00016
1.00072
1.00346
1.01288
1.05076
1.05127
1.05075
1.05093
1.03504
1.01006
1.00599
1.00444
1.01778
1.00015
1.00003
1.00003
1.00003
1.00003
1.00006
1.00017
1.00087
1.00506
1.01889
1.03764
1.05111
1.0513
1.03932
1.01142
1.00207
1.00114
1.00187
1.22209
1.00007
1.00002
1.00002
1.00002
1.00004
1.0001
1.00013
1.0009
1.00622
1.02334
1.04441
1.05274
1.04569
1.01612
1.00341
1.00059
1.00044
1.00226
1.22927
1.00003
1.00002
1.00004
1.00173
1.02657
1.03561
1.00231
1.00104
1.00867
1.02959
1.05421
1.07517
1.03353
1.00627
1.00085
1.00017
1.00035
1.08022
1.22927
1.00002
1.00002
1.00135
1.18742
2.21778
2.1118
1.23359
1.01324
1.0148
1.04235
1.10323
1.56521
1.4516
1.03433
1.00039
1.0001
1.00031
1.12599
1.12632
1.00002
1.00003
1.00683
2.61278
2.9974
2.99735
2.70507
1.26695
1.04419
1.06184
1.25926
2.44138
2.90813
1.39131
1.0061
1.00011
1.00048
1.1263
1.02743
1.00002
1.00004
1.45559
2.98248
2.9981
2.9981
2.98848
1.94666
1.10646
1.07466
1.38566
2.55135
2.96812
2.50949
1.05927
1.00032
1.00217
1.04387
1.0045
0.213505
0.204788
0.189593
0.165163
0.141745
0.105651
0.075034
0.0490579
0.0276197
0.0133952
0.00556765
0.00191639
0.000526316
0.000141736
6.15978e-05
8.70667e-05
0.000339608
0.00182395
0.00982032
0.043881
0.672959
1.75815
1.98796
0.000869698
0.000789683
0.000667234
0.000518436
0.000371653
0.000246133
0.000160284
9.87092e-05
6.03521e-05
3.65021e-05
2.06179e-05
1.19538e-05
5.77212e-06
6.48945e-06
1.07934e-05
2.73511e-05
9.31658e-05
0.00044916
0.00330208
0.0145206
0.110992
0.967494
1.77445
7.96085e-06
7.46999e-06
6.74813e-06
5.82314e-06
4.88724e-06
3.99848e-06
3.42619e-06
2.75773e-06
2.28266e-06
1.97808e-06
1.73078e-06
1.88438e-06
2.31607e-06
5.31324e-06
1.15837e-05
2.9419e-05
4.90731e-05
0.000122958
0.000493734
0.00359059
0.0287518
0.238214
1.02284
5.51172e-07
5.34249e-07
5.11678e-07
4.77833e-07
4.3908e-07
3.91544e-07
3.63436e-07
3.13828e-07
3.00794e-07
3.53323e-07
1.05818e-06
2.15849e-05
0.000254767
0.00123233
0.00263846
0.00531212
0.00416167
0.00237991
0.00147633
0.00201045
0.00803599
0.0411301
0.281905
1.52614e-07
1.47428e-07
1.38035e-07
1.31655e-07
1.28278e-07
1.28589e-07
1.37848e-07
1.77935e-07
3.08739e-07
2.19776e-05
0.000373743
0.00324485
0.0176968
0.0528924
0.0933165
0.137539
0.132291
0.10701
0.075024
0.0426841
0.0199596
0.0238245
0.0549938
0.000137351
0.000146884
0.000153777
0.000161505
0.000164218
0.000160127
0.000129584
6.68814e-05
0.000139234
0.00317399
0.0211764
0.0828806
0.224063
0.406053
0.546187
0.640811
0.674284
0.667331
0.610178
0.45461
0.26411
0.148269
0.0899174
0.0473805
0.0492394
0.0508346
0.0526046
0.0533564
0.0524306
0.0447259
0.0270865
0.0166659
0.0639529
0.212937
0.456206
0.722622
0.884498
0.946409
0.971053
0.980739
0.988156
0.985746
0.936817
0.791097
0.654973
0.470767
1.20512
1.22741
1.25075
1.27932
1.30237
1.31641
1.24908
0.966516
0.545322
0.456162
0.719667
0.932318
1.01704
1.01573
1.00938
1.00391
1.00101
1.00055
1.00026
0.999947
0.993591
0.98082
0.912595
2.96111
2.96416
2.9675
2.9715
2.97505
2.97865
2.97769
2.94908
2.66288
2.12331
2.13618
2.21989
2.0854
1.82611
1.61867
1.39606
1.20419
1.09499
1.03203
1.01471
1.0017
1.00123
0.996316
3
3
3
3
3
3
2.99988
2.99719
2.99852
2.99934
2.9996
2.9997
2.99834
2.99076
2.96887
2.89177
2.70375
2.3827
1.95068
1.6688
1.24896
1.11699
1.06132
3
3
3
3
3
2.99999
2.99999
2.99999
2.99999
3
3
3
3
3
3
3
2.99999
2.99984
2.99698
2.97959
2.80154
2.50093
2.19391
3
3
3
3
3
3
3
3
3
3
3
3
3
3
3
3
3
3
3
3
3
2.99997
2.99954
3
3
3
3
3
3
3
3
3
3
3
3
3
3
3
3
3
3
3
3
3
3
3
3
3
3
3
3
3
3
3
3
3
3
3
3
3
3
3
3
3
3
3
3
3
3
3
3
3
3
3
3
3
3
3
3
3
3
3
3
3
3
3
3
3
3
3
3
3
3
3
3
3
3
3
3
3
3
3
3
3
3
3
3
3
3
3
3
3
3
3
3
3
3
3
3
3
3
3
3
3
3
3
3
3
3
3
3
3
3
3
3
3
3
3
3
3
3
3
3
3
3
3
3
3
3
3
3
3
3
3
3
3
3
3
3
3
3
3
3
3
3
3
3
3
3
3
3
3
3
3
3
3
3
3
3
3
3
3
3
3
3
3
3
3
3
3
3
3
3
3
3
3
3
3
3
3
3
3
3
3
3
3
3
3
3
3
3
3
3
3
3
3
3
3
3
3
3
3
3
3
3
3
3
3
3
3
3
3
3
3
3
3
3
3
3
3
3
3
3
3
3
3
3
3
3
3
3
3
3
3
3
3
3
3
3
3
3
3
3
3
3
3
3
3
3
3
3
3
3
3
3
3
3
3
3
3
3
3
3
3
3
3
3
3
3
3
3
3
3
3
3
3
3
3
3
3
3
3
3
3
3
3
3
3
3
3
3
3
3
3
3
3
3
3
2.99999
2.99999
2.99999
2.99999
3
3
3
3
3
3
3
3
3
3
3
3
3
3
3
3
3
3
3
2.99999
2.99999
2.99999
2.99999
3
3
3
3
3
3
3
3
3
3
3
3
3
3
3
3
3
3
3
2.99999
2.99999
2.99999
2.99999
3
3
3
3
3
3
3
3
3
3
3
3
3
3
3
3
3
3
3
3
2.99999
2.99999
2.99999
3
3
3
3
3
3
3
3
3
3
3
3
3
3
3
3
3
3
3
3
2.99999
2.99999
2.99999
3
3
3
3
3
3
3
3
3
3
3
3
3
3
3
3
3
3
3
3
3
2.99999
2.99999
3
3
3
3
3
3
3
3
3
3
3
3
3
3
3
3
3
3
3
3
3
3
2.99999
3
3
3
3
3
3
3
3
3
3
3
3
3
3
3
3
3
3
3
3
3
3
2.99999
3
3
3
3
3
3
3
3
3
3
3
3
3
3
3
3
3
3
3
3
3
3
3
3
3
3
3
3
3
3
3
3
3
3
3
3
3
3
3
3
3
3
3
3
3
3
3
3
3
3
3
3
3
3
3
3
3
3
3
3
3
3
3
3
3
3
3
3
3
3
3
3
3
3
3
3
3
3
3
3
3
3
3
3
3
3
3
3
3
3
3
3
3
3
3
3
3
3
3
3
3
3
3
3
3
3
3
3
3
3
3
3
3
3
3
3
3
3
3
3
3
3
3
3
3
3
3
3
3
3
3
3
3
3
3
3
3
3
3
3
3
3
3
3
3
3
3
3
3
3
3
3
3
3
3
3
3
3
3
3
3
3
3
3
3
3
3
3
3
3
3
3
3
3
3
3
3
3
3
3
3
3
3
3
3
3
3
3
3
3
3
3
3
3
3
3
3
3
3
3
3
3
3
3
3
3
3
3
3
3
3
3
3
3
3
3
3
3
3
3
3
3
3
3
3
3
3
3
3
3
1.96939
2.40032
2.15934
1.51623
1.94519
1.99807
2.23933
1.84316
1.57123
1.67033
1.71587
1.7821
0.614272
0.863721
1.0839
1.22127
0.108997
0.184042
0.308923
0.481324
0.0993214
0.115676
0.138035
0.17646
0.33828
0.267142
0.210828
0.184981
0.80819
0.695419
0.56233
0.415839
0.983188
0.947537
0.879825
0.769868
1.03249
1.02145
1.00487
0.983771
1.92591
1.74173
1.63327
1.47156
2.99765
2.99158
2.98071
2.96643
3
3
3
3
3
3
3
3
3
3
3
3
3
3
3
3
3
3
3
3
3
3
3
2.99999
3
3
3
3
3
3
3
3
3
3
3
3
3
3
3
3
3
3
3
3
3
3
3
3
3
3
3
3
2.99999
2.99999
3
3
2.99999
2.99999
2.99999
2.99999
2.99999
2.99999
2.99999
2.99999
2.99999
2.99999
2.99999
2.99999
2.99999
2.99999
2.99999
2.99999
2.99999
2.99999
2.99999
2.99999
2.99999
2.99999
2.99999
2.99999
3
2.99999
2.99999
2.99999
3
3
3
2.99999
3
3
3
3
3
3
3
3
3
3
3
3
3
3
3
3
3
3
3
3
3
3
3
3
3
3
3
3
3
3
3
3
1.0139
1.00148
1.7776
2.93625
2.9981
2.9981
2.97665
2.17026
1.14593
1.08938
1.40034
2.47591
2.9735
2.97165
1.74065
1.02173
1.00235
1.00393
1.00059
1.16117
1.0177
1.15245
2.29991
2.91796
2.91851
2.54511
1.38761
1.08411
1.1147
1.74243
2.77209
2.99177
2.99978
2.8541
1.13175
1.00256
1.00007
1.00002
1.4495
1.10064
1.10206
1.226
1.78587
1.8018
1.33729
1.0874
1.07291
1.16461
2.18441
2.93598
2.99934
3
2.99815
2.04154
1.03127
1.00014
1.00001
1.32685
1.24358
1.14692
1.0911
1.08538
1.08157
1.08911
1.087
1.08032
1.32209
2.47253
2.97401
2.99996
3
3
2.89147
1.09721
1.0004
1.00001
0.784103
1.01883
1.15036
1.15985
1.14665
1.13561
1.11971
1.09611
1.11735
1.75748
2.77764
2.99537
3
3
3
2.97867
1.19837
1.00127
1.00001
0.344822
0.655691
0.863512
1.0164
1.08282
1.10906
1.10102
1.09277
1.29184
2.3964
2.9588
2.9998
3.00001
3.00001
3
2.99975
1.75155
1.01086
1.00001
0.249309
0.412737
0.624197
0.807075
0.959659
1.04308
1.05813
1.12125
1.88517
2.83135
2.99727
3
3.00001
3.00001
3.00001
3
2.70262
1.05043
1.0001
0.312626
0.393197
0.530259
0.690701
0.865964
0.989944
1.07751
1.56315
2.65805
2.98698
2.99999
3.00001
3.00001
3.00001
3.00001
3
2.98341
1.1851
1.00106
0.553862
0.524526
0.589905
0.736626
0.92104
1.07191
1.45033
2.52138
2.97679
2.99996
3.00001
3.00001
3.00001
3.00001
3.00001
3.00001
2.9998
1.51596
1.00865
0.87254
0.826817
0.870601
0.975034
1.16429
1.68864
2.60154
2.97931
2.99993
3
3.00001
3.00001
3.00001
3.00001
3.00001
3.00001
3
2.07109
1.03687
1.14963
1.01281
1.02991
1.27181
2.34463
2.96003
2.99985
2.99999
3
3.00001
3.00001
3.00001
3.00001
3.00001
3.00001
3.00001
3
2.22098
1.04863
2.84548
2.53938
2.60442
2.90221
2.99699
2.99999
3
3
3.00001
3.00001
3.00001
3.00001
3.00001
3.00001
3.00001
3.00001
3
2.01314
1.04177
3
2.99999
2.99992
2.9998
2.99998
3
3
3.00001
3.00001
3.00001
3.00001
3.00001
3.00001
3.00001
3
3.00001
3.00001
1.57044
1.02402
3
3
3
3
3
3
3
3
3
3
3
3
3
3
3
3.00001
3.00001
1.48777
1.01531
3
3
3
3
3
3
3
3
3
3
3
3
3
3
3
3.00001
3.00001
1.77414
1.02184
3
3
3
3
3
3
3
3
3
3
3
3
3
3
3
3
3
2.51066
1.06715
3
3
3
3
3
3
3
3
3
3
3
3
3
3
3
3
3
2.92524
1.1655
2.99999
2.99999
2.99999
3
3
3
3
3
3
3
3
3
3
3
3
3
3
2.99183
1.3675
2.99999
2.99999
2.99999
2.99999
2.99999
3
3
3
3
3
3
3
3
3
3
3
2.99999
2.99526
1.75704
3
3
2.99999
2.99999
2.99999
2.99999
3
3
3
3
3
3
3
3
3
3
2.99985
2.99486
1.79984
3
3
3
2.99999
2.99999
2.99999
3
3
3
3
3
3
3
3
3
3
2.99916
2.99098
1.55648
3
3
3
3
3
3
3
3
3
3
3
3
3
3
3
2.99999
2.99688
2.95092
1.2102
3
3
3
3
3
3
3
3
3
3
3
3
3
3
3
2.99999
2.99257
2.69533
1.04648
3
3
3
3
3
3
3
3
3
3
3
3
3
3
3
3
2.99452
2.31467
1.02835
3
3
3
3
3
3
3
3
3
3
3
3
3
3
3
3
2.99898
2.3428
1.02835
3
3
3
3
3
3
3
3
3
3
3
3
3
3
3
3
2.99997
2.61905
1.03225
2.99999
2.99999
3
3
3
3
3
3
3
3
3
3
3
3
3
3
3
2.89411
1.10376
2.99999
2.99999
2.99999
3
3
3
3
3
3
3
3
3
3
3
3
3
3
2.98417
1.30979
2.99999
2.99999
2.99999
2.99999
3
3
3
3
3
3
3
3
3
3
3
3
3
2.99866
1.60008
2.99999
2.99999
2.99999
2.99999
2.99999
3
3
3
3
3
3
3
3
3
3
3
3
2.99995
1.96642
2.99999
2.99999
2.99999
2.99999
2.99999
3
3
3
3
3
3
3
3
3
3
3
3
3
2.47429
2.99999
2.99999
2.99999
2.99999
2.99999
3
3
3
3
3
3
3
3
3
3
3
3
3
2.87099
2.99999
2.99999
2.99999
2.99999
2.99999
3
3
3
3
3
3
3
3
3
3
3
3
2.99974
2.98752
2.99999
2.99999
2.99999
2.99999
3
3
3
3
3
3
3
3
3
3
3
2.99999
2.99993
2.99955
2.99948
3
2.99999
2.99999
2.99999
3
3
3
3
3
3
3
3
3
3
3
2.99999
2.99992
2.99985
2.99998
3
3
3
3
3
3
3
3
3
3
3
3
3
3
3
3
3
2.99999
3
3
3
3
3
3
3
3
3
3
3
3
3
3
3
3
3
3
3
3
3
3
3
3
3
3
3
3
3
3
3
3
3
3
3
3
3
3
3
3
3
3
3
3
3
3
3
3
3
3
3
3
3
3
3
3
3
3
3
3
3
3
3
3
3
3
3
3
3
3
3
3
3
3
3
3
3
3
3
3
3
3
3
3
3
3
3
3
3
3
3
3
3
3
3
3
3
3
3
3
3
3
3
3
3
3
3
3
3
3
3
3
3
3
3
)
;

boundaryField
{
    leftWall
    {
        type            zeroGradient;
    }
    rightWall
    {
        type            zeroGradient;
    }
    lowerWall
    {
        type            zeroGradient;
    }
    atmosphere
    {
        type            zeroGradient;
    }
    defaultFaces
    {
        type            empty;
    }
}


// ************************************************************************* //
