/*--------------------------------*- C++ -*----------------------------------*\
| =========                 |                                                 |
| \\      /  F ield         | OpenFOAM: The Open Source CFD Toolbox           |
|  \\    /   O peration     | Version:  2.4.0                                 |
|   \\  /    A nd           | Web:      www.OpenFOAM.org                      |
|    \\/     M anipulation  |                                                 |
\*---------------------------------------------------------------------------*/
FoamFile
{
    version     2.0;
    format      ascii;
    class       volScalarField;
    location    "0.35";
    object      alpha.water;
}
// * * * * * * * * * * * * * * * * * * * * * * * * * * * * * * * * * * * * * //

dimensions      [0 0 0 0 0 0 0];

internalField   nonuniform List<scalar> 
2268
(
7.47272e-11
5.58539e-11
4.9934e-11
6.18436e-11
5.33702e-11
1.33609e-10
1.14978e-10
1.86258e-10
4.42909e-10
6.8546e-10
8.16311e-10
1.05226e-09
1.58571e-09
2.21606e-09
2.61625e-09
2.62955e-09
2.32981e-09
1.78028e-09
1.07748e-09
4.29734e-10
1.5848e-10
1.15137e-10
7.26614e-11
9.13448e-10
7.17358e-10
6.9301e-10
9.07054e-10
8.25981e-10
1.80523e-09
1.68822e-09
2.47631e-09
4.79704e-09
6.73827e-09
7.69928e-09
9.02003e-09
1.17969e-08
1.3656e-08
1.38332e-08
1.30381e-08
1.08844e-08
7.49134e-09
3.99807e-09
2.93441e-09
3.58544e-09
3.44455e-09
1.4828e-09
6.66943e-09
5.47642e-09
5.57811e-09
7.16192e-09
6.92399e-09
1.19504e-08
1.20479e-08
1.5883e-08
2.58371e-08
3.22676e-08
3.53428e-08
3.92153e-08
4.6472e-08
4.37198e-08
5.96468e-08
7.67993e-08
6.14457e-08
4.35476e-08
4.24979e-08
8.21146e-08
1.5143e-07
1.41496e-07
5.44699e-08
3.21797e-08
2.66573e-08
2.77267e-08
3.32551e-08
3.34541e-08
4.71691e-08
4.93258e-08
6.07605e-08
1.14342e-07
2.13198e-07
4.40793e-07
9.73431e-07
3.2451e-06
1.08185e-05
4.53877e-05
7.07644e-05
3.95699e-05
1.62324e-05
6.99864e-06
4.25724e-06
2.29791e-06
1.60319e-06
3.44145e-07
1.42504e-06
1.58839e-06
1.84465e-06
3.52106e-06
2.91589e-06
1.02784e-05
1.30357e-05
2.34079e-05
7.58971e-05
0.000169833
0.000375445
0.000764539
0.00197723
0.00461259
0.011727
0.017454
0.00900199
0.00315331
0.000817057
0.000169952
3.1462e-05
8.52006e-06
2.01198e-06
0.000776564
0.000839523
0.000940838
0.00141596
0.00135701
0.00282947
0.00383809
0.00574239
0.0114222
0.0206012
0.0366402
0.0603339
0.111643
0.188242
0.317883
0.439266
0.479066
0.417949
0.223803
0.0475054
0.00345866
0.000104498
1.16851e-05
0.0460187
0.0483841
0.0523964
0.0653455
0.068351
0.0989459
0.126367
0.162597
0.23315
0.329002
0.448398
0.573877
0.728161
0.863599
0.958398
0.991599
0.998587
0.974753
0.85055
0.42405
0.0550019
0.00166179
4.18676e-05
0.395132
0.40517
0.422885
0.462017
0.487546
0.561016
0.632556
0.706353
0.797827
0.883354
0.945878
0.980894
0.995873
0.999413
0.999917
0.99989
0.999516
0.997732
0.988216
0.878398
0.237016
0.0112827
4.19347e-05
1.28473e-09
1.755e-09
1.89614e-09
2.03834e-09
2.23493e-09
2.89992e-09
5.70229e-09
2.36005e-08
8.52923e-08
1.98829e-07
2.65944e-07
2.2643e-07
1.27739e-07
3.96882e-08
8.88361e-09
3.29195e-09
9.44765e-10
6.0244e-11
1.06412e-12
1.34352e-09
2.24566e-09
3.70758e-09
7.82236e-09
1.85145e-08
4.07091e-08
8.31119e-08
1.94725e-07
3.4373e-07
4.6768e-07
4.96124e-07
4.30662e-07
2.59823e-07
8.39996e-08
9.95561e-09
1.89122e-09
5.50146e-10
5.2887e-11
4.54452e-12
1.51475e-09
3.97946e-09
1.50708e-08
5.44759e-08
1.29339e-07
2.24045e-07
3.40923e-07
5.16544e-07
6.69352e-07
7.33319e-07
6.93942e-07
5.32856e-07
3.33791e-07
1.22846e-07
1.61652e-08
1.75587e-09
6.78193e-10
1.17612e-10
2.08783e-11
1.64293e-09
7.67807e-09
4.63489e-08
1.18192e-07
2.4467e-07
4.05926e-07
5.87538e-07
7.87847e-07
9.0214e-07
8.93457e-07
7.92195e-07
5.49115e-07
3.34265e-07
1.28968e-07
1.97636e-08
1.7701e-09
9.83844e-10
2.45137e-10
2.98148e-11
1.91587e-09
1.0787e-08
3.89768e-08
9.61386e-08
2.10537e-07
4.328e-07
7.07438e-07
1.00071e-06
1.09498e-06
1.02598e-06
8.32804e-07
4.75996e-07
2.71864e-07
1.15649e-07
2.01283e-08
1.74889e-09
1.12153e-09
4.30911e-10
6.3701e-11
2.29794e-09
1.28117e-08
2.65346e-08
2.8545e-08
4.92849e-08
1.91717e-07
6.9461e-07
1.11779e-06
1.32333e-06
1.15143e-06
8.53036e-07
4.0796e-07
1.15159e-07
6.3023e-08
1.58282e-08
1.94288e-09
1.16436e-09
5.27166e-10
9.15965e-11
2.79779e-09
1.12664e-08
1.38531e-08
2.17916e-09
9.65404e-11
8.86461e-10
1.77522e-07
1.0216e-06
1.70077e-06
1.32186e-06
8.42913e-07
2.09368e-07
1.54964e-08
1.70627e-08
1.02114e-08
2.10821e-09
1.16001e-09
5.83172e-10
9.39263e-11
2.4969e-09
4.58612e-09
1.99935e-09
1.21819e-10
9.65032e-11
9.67924e-11
9.67421e-11
5.3984e-07
2.35573e-06
1.69452e-06
9.74271e-07
2.45498e-07
1.15318e-08
2.98566e-09
3.94119e-09
1.81341e-09
1.146e-09
6.40506e-10
1.14959e-10
0.893248
0.897606
0.905204
0.917418
0.929127
0.947175
0.962483
0.975471
0.98619
0.993302
0.997216
0.999042
0.999737
0.999929
0.999966
0.999933
0.999683
0.998199
0.990275
0.966688
0.654002
0.117978
0.0056099
0.999565
0.999605
0.999666
0.999741
0.999814
0.999877
0.99992
0.999951
0.99997
0.999982
0.99999
0.999994
0.999997
0.999996
0.999992
0.999976
0.999911
0.999558
0.996706
0.985666
0.926813
0.498432
0.106538
0.999996
0.999996
0.999997
0.999997
0.999997
0.999998
0.999998
0.999999
0.999999
0.999999
0.999999
0.999999
0.999998
0.999995
0.999989
0.999971
0.999951
0.999878
0.999507
0.996415
0.97295
0.863023
0.472037
1
1
1
1
1
1
1
1
1
1
0.999999
0.999979
0.999745
0.998768
0.997362
0.994688
0.995838
0.99762
0.998524
0.99799
0.99205
0.968651
0.84328
1
1
1
1
1
1
1
1
1
0.999978
0.999626
0.996755
0.982303
0.947108
0.906684
0.862461
0.867709
0.89299
0.924976
0.957316
0.980051
0.976979
0.958364
0.999954
0.999951
0.999949
0.999946
0.999945
0.999947
0.999957
0.999977
0.999879
0.996831
0.978826
0.917121
0.775938
0.593948
0.453814
0.35919
0.325716
0.332669
0.389822
0.54539
0.735892
0.851879
0.914644
0.984206
0.983587
0.983055
0.982465
0.982214
0.982523
0.985091
0.99092
0.990647
0.938186
0.788425
0.544265
0.277555
0.115718
0.0537668
0.0290078
0.0192668
0.0118515
0.0142559
0.0631841
0.208904
0.345051
0.529905
0.598293
0.590864
0.583083
0.573561
0.565876
0.561198
0.583638
0.677109
0.791399
0.689853
0.405719
0.137113
0.0242478
0.00608972
0.00262069
0.00119604
0.000568978
0.000276339
0.00037239
0.00047635
0.00647405
0.0192001
0.0874731
0.0129638
0.0119478
0.0108336
0.00950012
0.00831521
0.0071165
0.00742492
0.0158045
0.0723536
0.104932
0.0198615
0.000722141
0.000276881
0.000209466
0.000115757
5.87914e-05
2.53231e-05
7.61851e-06
2.7461e-06
2.96393e-06
2.01494e-05
0.000163647
0.00503451
5.62761e-07
5.34518e-07
4.57162e-07
4.29229e-07
3.36618e-07
1.78985e-07
1.49242e-07
7.94006e-07
3.79226e-06
5.55599e-06
2.44993e-06
9.76756e-07
9.01623e-07
1.85943e-06
1.97504e-06
1.95854e-06
1.34255e-06
3.29485e-07
4.83011e-08
2.19413e-08
2.68192e-07
4.3504e-06
9.9347e-05
2.5636e-07
1.67112e-07
1.43862e-07
1.0561e-07
2.59632e-08
1.39134e-09
8.28229e-10
4.81904e-09
2.09422e-08
2.27987e-08
2.52121e-08
6.30336e-09
2.06829e-09
2.15831e-09
2.54322e-09
2.11469e-09
8.30876e-10
2.35684e-10
4.30801e-10
7.45671e-10
1.12986e-09
9.76919e-09
7.38479e-07
6.48245e-08
3.61489e-08
3.1594e-08
2.84713e-08
1.14344e-08
1.11476e-09
5.23069e-10
1.69227e-09
1.44682e-08
1.81041e-08
1.39634e-09
2.10894e-10
1.15218e-10
8.65067e-11
3.68581e-11
3.92216e-11
4.66669e-11
3.45407e-11
8.56246e-12
2.68077e-12
8.4317e-13
2.90022e-13
4.50707e-12
4.88698e-08
2.39307e-08
1.73083e-08
1.55956e-08
6.13514e-09
1.42944e-09
4.57026e-10
2.22897e-10
4.54232e-10
3.88885e-09
1.05991e-09
1.88064e-10
1.65935e-10
1.15195e-10
2.36676e-11
5.41192e-12
1.54468e-12
6.219e-13
1.91978e-13
5.27404e-14
8.94446e-14
1.32132e-13
1.48683e-13
1.86465e-08
5.30565e-09
1.96482e-09
1.19567e-09
7.49879e-10
5.93338e-10
4.39995e-10
1.05748e-10
6.80694e-11
9.6879e-11
1.08631e-10
1.47893e-10
1.41834e-10
5.75628e-11
8.77663e-12
1.44218e-12
2.37763e-13
4.61431e-14
1.87718e-14
2.12742e-14
6.81714e-14
1.20731e-13
1.63528e-13
1.52383e-09
9.16674e-10
1.11159e-10
4.14734e-11
3.43942e-11
4.97608e-11
7.77634e-11
6.68811e-11
5.23691e-11
4.65688e-11
6.08082e-11
5.52372e-11
3.55094e-11
7.72971e-12
6.77244e-13
1.28043e-14
5.30918e-15
6.0474e-15
1.14171e-14
2.86236e-14
6.03352e-14
8.79335e-14
8.93917e-14
6.89386e-11
1.63346e-10
2.92324e-11
1.70139e-11
1.27829e-11
1.25311e-11
1.40802e-11
2.01911e-11
2.17611e-11
2.33941e-11
1.7413e-11
1.31076e-11
7.5152e-12
2.4853e-12
2.15256e-13
9.9838e-16
1.0584e-15
1.82428e-15
4.11096e-15
8.18817e-15
1.34048e-14
1.80425e-14
1.85498e-14
1.12875e-11
1.89643e-11
1.02738e-11
6.7071e-12
4.98851e-12
4.59565e-12
5.36081e-12
6.99737e-12
7.31089e-12
6.71737e-12
5.67236e-12
3.83697e-12
1.86026e-12
6.12544e-13
6.92423e-14
8.78547e-17
1.07213e-16
2.28262e-16
5.10004e-16
1.02164e-15
1.73704e-15
2.34796e-15
2.25368e-15
2.64658e-12
4.00278e-12
2.05263e-12
1.36316e-12
1.03522e-12
9.87546e-13
1.31791e-12
1.80918e-12
2.01334e-12
1.86144e-12
1.57549e-12
1.05062e-12
4.9557e-13
1.57103e-13
1.91526e-14
2.71021e-18
6.34801e-18
1.39719e-17
2.8525e-17
5.44674e-17
9.26395e-17
1.32599e-16
1.55937e-16
1.91589e-13
3.40532e-13
1.75679e-13
1.12941e-13
6.70908e-14
7.69285e-14
1.61903e-13
2.79486e-13
3.4471e-13
3.25449e-13
2.81887e-13
2.0082e-13
9.58041e-14
2.83132e-14
3.07801e-15
1.23979e-19
3.12296e-19
7.47218e-19
1.67623e-18
3.52061e-18
6.86023e-18
1.2086e-17
1.91473e-17
6.61962e-21
2.73181e-19
5.27725e-18
5.95173e-17
4.17992e-16
1.8707e-15
5.39209e-15
9.81809e-15
1.07845e-14
6.78951e-15
2.68057e-15
9.55242e-16
1.93865e-16
1.94641e-17
2.41778e-21
7.75483e-21
2.24872e-20
6.01943e-20
1.50318e-19
3.52278e-19
7.828e-19
1.61217e-18
2.981e-18
1.82226e-37
2.0299e-35
1.0323e-33
3.15183e-32
6.54982e-31
1.00458e-29
1.18628e-28
1.1193e-27
8.66078e-27
5.63856e-26
3.22705e-25
1.65682e-24
7.68057e-24
3.29991e-23
1.33491e-22
5.02011e-22
1.74116e-21
5.53007e-21
1.62941e-20
4.46866e-20
1.11907e-19
2.47112e-19
4.78491e-19
8.64215e-39
8.22466e-37
3.69098e-35
1.04448e-33
2.1116e-32
3.25093e-31
3.96221e-30
3.92566e-29
3.25436e-28
2.34443e-27
1.49502e-26
8.56863e-26
4.54851e-25
2.23319e-24
1.00305e-23
4.12421e-23
1.56296e-22
5.45238e-22
1.73604e-21
4.99331e-21
1.29336e-20
2.9815e-20
6.15322e-20
1.07652e-40
1.14218e-38
5.71597e-37
1.78896e-35
3.94895e-34
6.57005e-33
8.66054e-32
9.39353e-31
8.6741e-30
6.96863e-29
4.98031e-28
3.28943e-27
2.02057e-26
1.13773e-25
5.80389e-25
2.67265e-24
1.11856e-23
4.24854e-23
1.44833e-22
4.44227e-22
1.2238e-21
3.04139e-21
6.92629e-21
2.41523e-42
2.43306e-40
1.16776e-38
3.57073e-37
7.85287e-36
1.3303e-34
1.82148e-33
2.10041e-32
2.11611e-31
1.92461e-30
1.60738e-29
1.21518e-28
8.21403e-28
5.0472e-27
2.82168e-26
1.41474e-25
6.35609e-25
2.58081e-24
9.53888e-24
3.21876e-23
9.8184e-23
2.71408e-22
6.99722e-22
1.91455e-44
2.01814e-42
1.02582e-40
3.36979e-39
8.12052e-38
1.54619e-36
2.44563e-35
3.32734e-34
3.97807e-33
4.20936e-32
3.94529e-31
3.28045e-30
2.45333e-29
1.651e-28
1.00054e-27
5.55539e-27
2.83632e-26
1.3183e-25
5.52874e-25
2.06924e-24
7.02819e-24
2.21665e-23
6.53048e-23
1.45068e-46
1.70857e-44
9.75401e-43
3.61191e-41
9.79681e-40
2.08067e-38
3.61255e-37
5.29268e-36
6.70994e-35
7.52394e-34
7.62256e-33
7.09447e-32
6.06645e-31
4.72242e-30
3.33741e-29
2.11057e-28
1.18081e-27
5.93221e-27
2.72178e-26
1.15224e-25
4.5315e-25
1.64166e-24
5.43772e-24
8.12955e-49
1.03518e-46
6.4254e-45
2.60849e-43
7.84806e-42
1.87821e-40
3.74331e-39
6.40582e-38
9.59541e-37
1.27182e-35
1.49656e-34
1.56546e-33
1.45513e-32
1.21e-31
9.05747e-31
6.18256e-30
3.91089e-29
2.28899e-28
1.22875e-27
6.01737e-27
2.6671e-26
1.08465e-25
4.05097e-25
3.90059e-51
5.47787e-49
3.75837e-47
1.69342e-45
5.66855e-44
1.50964e-42
3.34108e-41
6.32621e-40
1.04482e-38
1.52497e-37
1.98811e-36
2.33582e-35
2.49465e-34
2.42909e-33
2.15836e-32
1.74557e-31
1.27505e-30
8.39179e-30
5.01305e-29
2.74687e-28
1.38709e-27
6.40465e-27
2.68212e-26
1.28075e-53
2.04413e-51
1.60398e-49
8.33042e-48
3.23531e-46
1.00338e-44
2.58654e-43
5.68915e-42
1.08757e-40
1.83237e-39
2.74884e-38
3.69603e-37
4.46225e-36
4.85079e-35
4.76976e-34
4.26325e-33
3.48456e-32
2.61568e-31
1.80105e-30
1.13145e-29
6.46804e-29
3.36413e-28
1.58471e-27
3.62779e-56
6.59349e-54
5.89234e-52
3.49261e-50
1.54927e-48
5.49245e-47
1.62051e-45
4.08584e-44
8.96044e-43
1.72918e-41
2.96011e-40
4.53068e-39
6.2532e-38
7.8222e-37
8.88745e-36
9.18481e-35
8.64013e-34
7.397e-33
5.77179e-32
4.11192e-31
2.67189e-30
1.57544e-29
8.3741e-29
8.03701e-59
1.68407e-56
1.74482e-54
1.2025e-52
6.20947e-51
2.56016e-49
8.76085e-48
2.55288e-46
6.45092e-45
1.43293e-43
2.82677e-42
4.98628e-41
7.90131e-40
1.12981e-38
1.46426e-37
1.7256e-36
1.85332e-35
1.81674e-34
1.62507e-33
1.32433e-32
9.80679e-32
6.57158e-31
3.95976e-30
1.38072e-61
3.40591e-59
4.13915e-57
3.34504e-55
2.02232e-53
9.74288e-52
3.88752e-50
1.31793e-48
3.8645e-47
9.93052e-46
2.25929e-44
4.58931e-43
8.38075e-42
1.38263e-40
2.06749e-39
2.80927e-38
3.47479e-37
3.91542e-36
4.01949e-35
3.75551e-34
3.18459e-33
2.43856e-32
1.67456e-31
1.85976e-64
5.40475e-62
7.74619e-60
7.37618e-58
5.24453e-56
2.96505e-54
1.38542e-52
5.48966e-51
1.87884e-49
5.6303e-48
1.49274e-46
3.52945e-45
7.48862e-44
1.43303e-42
2.48319e-41
3.90755e-40
5.59399e-39
7.29148e-38
8.65051e-37
9.3264e-36
9.10886e-35
8.01755e-34
6.31376e-33
1.78011e-67
6.23403e-65
1.06943e-62
1.21597e-60
1.02981e-58
6.9186e-57
3.83256e-55
1.79599e-53
7.25107e-52
2.55708e-50
7.96138e-49
2.20726e-47
5.48624e-46
1.22885e-44
2.48995e-43
4.57672e-42
7.64456e-41
1.16116e-39
1.60325e-38
2.00877e-37
2.27627e-36
2.32004e-35
2.11064e-34
1.13598e-70
4.88568e-68
1.01797e-65
1.40014e-63
1.43035e-61
1.15689e-59
7.70438e-58
4.33371e-56
2.0963e-54
8.83782e-53
3.28175e-51
1.08251e-49
3.1937e-48
8.47332e-47
2.03009e-45
4.40511e-44
8.67309e-43
1.55059e-41
2.51604e-40
3.69854e-39
4.90795e-38
5.84598e-37
6.20025e-36
4.19445e-74
2.3164e-71
6.00356e-69
1.01691e-66
1.2733e-64
1.25912e-62
1.0244e-60
7.04395e-59
4.17123e-57
2.15345e-55
9.77185e-54
3.92357e-52
1.40291e-50
4.49239e-49
1.29428e-47
3.36661e-46
7.92414e-45
1.68972e-43
3.26347e-42
5.69822e-41
8.96255e-40
1.26242e-38
1.57906e-37
7.86329e-78
5.997e-75
1.97169e-72
4.1253e-70
6.30627e-68
7.5803e-66
7.52042e-64
6.3729e-62
4.71274e-60
3.07819e-58
1.78388e-56
9.16622e-55
4.16949e-53
1.6802e-51
6.01935e-50
1.92754e-48
5.5463e-47
1.43864e-45
3.36726e-44
7.10321e-43
1.34612e-41
2.2782e-40
3.41303e-39
7.90014e-82
9.45794e-79
4.06047e-76
1.06506e-73
2.02433e-71
3.01903e-69
3.69336e-67
3.83004e-65
3.44229e-63
2.72931e-61
1.9361e-59
1.23907e-57
7.17032e-56
3.74422e-54
1.75404e-52
7.31763e-51
2.7064e-49
8.8794e-48
2.5963e-46
6.79097e-45
1.58798e-43
3.30253e-42
6.05552e-41
1.6888e-85
3.08535e-82
1.61559e-79
4.91323e-77
1.06244e-74
1.78631e-72
2.44647e-70
2.8152e-68
2.79169e-66
2.43663e-64
1.90826e-62
1.36345e-60
8.97952e-59
5.47643e-57
3.09624e-55
1.61941e-53
7.78085e-52
3.38879e-50
1.31583e-48
4.50556e-47
1.35766e-45
3.59592e-44
8.33766e-43
3.45699e-88
5.70888e-85
2.86653e-82
8.41084e-80
1.7444e-77
2.79874e-75
3.67259e-73
4.0817e-71
3.94562e-69
3.38814e-67
2.62941e-65
1.87457e-63
1.24726e-61
7.83357e-60
4.67753e-58
2.66666e-56
1.45338e-54
7.55801e-53
3.72368e-51
1.7092e-49
7.11295e-48
2.60613e-46
8.15727e-45
2.24269e-90
2.60842e-87
1.14299e-84
3.05e-82
5.82933e-80
8.67713e-78
1.06209e-75
1.1081e-73
1.01065e-71
8.21425e-70
6.04281e-68
4.07696e-66
2.55645e-64
1.51058e-62
8.5207e-61
4.65046e-59
2.48705e-57
1.31701e-55
6.95218e-54
3.6592e-52
1.89905e-50
9.45572e-49
4.31008e-47
4.77852e-93
5.40864e-90
2.41015e-87
6.5913e-85
1.29108e-82
1.96298e-80
2.43314e-78
2.54618e-76
2.30834e-74
1.84977e-72
1.33178e-70
8.73475e-69
5.28269e-67
2.98335e-65
1.5955e-63
8.1862e-62
4.08217e-60
2.00636e-58
9.87073e-57
4.94275e-55
2.5618e-53
1.392e-51
7.88798e-50
0.0156453
0.00974079
0.00223822
0.00164855
0.0246097
0.0291002
0.029173
0.0270411
0.202388
0.155121
0.146291
0.123652
0.674374
0.548506
0.436975
0.366426
0.928579
0.889038
0.824364
0.735795
0.914257
0.908625
0.899297
0.880724
0.663897
0.73727
0.798097
0.834534
0.192031
0.305088
0.438907
0.587584
0.0186835
0.0532489
0.120311
0.230396
0.000478728
0.00264407
0.0082266
0.0228974
4.21772e-06
1.96994e-05
6.64895e-05
0.000293861
1.77001e-10
4.84146e-09
7.07914e-08
1.27974e-06
1.48162e-13
1.35405e-13
1.17922e-13
1.54935e-13
1.42694e-13
1.25103e-13
2.04997e-13
3.2899e-13
4.45678e-14
1.34371e-14
1.29798e-14
2.19266e-14
8.40753e-15
2.83155e-15
2.01886e-15
2.48423e-15
1.14325e-15
6.80801e-16
6.31384e-16
7.01018e-16
1.44973e-16
1.42875e-16
1.59123e-16
1.81094e-16
2.80057e-17
3.31778e-17
3.88595e-17
4.43428e-17
5.01571e-18
6.312e-18
7.70232e-18
9.02195e-18
8.45341e-19
1.09967e-18
1.37825e-18
1.6619e-18
1.17641e-19
1.61474e-19
2.13504e-19
2.71468e-19
1.47461e-20
2.17257e-20
3.07621e-20
4.15083e-20
1.68729e-21
2.67627e-21
4.04748e-21
5.77141e-21
1.76767e-22
2.99417e-22
4.79436e-22
7.20732e-22
1.64509e-23
2.99062e-23
5.10196e-23
8.12849e-23
1.36622e-24
2.67248e-24
4.88099e-24
8.27788e-24
1.01042e-25
2.1414e-25
4.21613e-25
7.67905e-25
6.69013e-27
1.5453e-26
3.3036e-26
6.50615e-26
3.97834e-28
1.00802e-27
2.3553e-27
5.04959e-27
2.127e-29
5.95002e-29
1.52993e-28
3.59578e-28
1.02238e-30
3.17867e-30
9.05603e-30
2.34965e-29
4.40873e-32
1.5349e-31
4.88186e-31
1.40898e-30
1.69778e-33
6.67484e-33
2.39028e-32
7.73958e-32
5.79707e-35
2.59993e-34
1.05874e-33
3.88418e-33
1.7353e-36
8.98496e-36
4.21071e-35
1.77098e-34
4.47464e-38
2.71681e-37
1.48751e-36
7.27653e-36
9.66521e-40
7.02309e-39
4.58173e-38
2.65575e-37
1.67122e-41
1.49792e-40
1.19821e-39
8.45458e-39
2.14444e-43
2.46742e-42
2.5109e-41
2.23106e-40
1.68019e-45
2.79806e-44
4.04166e-43
4.9765e-42
4.41908e-48
1.08998e-46
2.41661e-45
4.67408e-44
0.000160306
7.49298e-06
1.79589e-06
2.95973e-08
8.92382e-09
1.28662e-08
9.7614e-08
2.84492e-06
4.59701e-06
4.27448e-06
3.09995e-06
6.3133e-07
1.92615e-08
1.00979e-09
8.66079e-10
1.02646e-09
1.02837e-09
7.57924e-10
1.87366e-10
0.00624165
0.000458321
0.000236574
6.08725e-05
6.16518e-06
8.50171e-06
1.59754e-05
2.00394e-05
1.93695e-05
1.46584e-05
7.69493e-06
8.02479e-07
9.36491e-09
4.22444e-11
5.93642e-11
5.04756e-10
8.62193e-10
7.44412e-10
2.73762e-10
0.053889
0.00822397
0.00436266
0.0017341
0.000512205
0.000539919
0.00035073
0.000100004
7.09804e-05
5.24078e-05
1.25355e-05
4.23577e-07
9.11999e-10
3.62805e-12
2.71306e-12
1.92362e-10
6.86796e-10
7.02031e-10
3.50985e-10
0.233078
0.078849
0.0205771
0.00603301
0.00533368
0.00357277
0.0013653
0.000571299
0.00039826
0.000141532
1.1059e-05
1.1062e-07
5.72603e-11
3.91096e-12
2.66406e-12
3.65289e-11
5.29356e-10
6.4335e-10
3.47713e-10
0.558927
0.332761
0.138205
0.0485676
0.0279109
0.0177216
0.0069663
0.00273135
0.00140411
0.000206815
4.70917e-06
8.58937e-09
3.90374e-12
3.77404e-12
2.65418e-12
5.5851e-12
3.51193e-10
5.71667e-10
3.33222e-10
0.789791
0.593171
0.39911
0.227576
0.12404
0.0559198
0.0164518
0.00758205
0.00208354
0.000126099
8.8633e-07
2.75286e-10
2.42336e-12
2.66125e-12
2.22703e-12
1.81355e-12
1.59344e-10
4.90104e-10
3.11333e-10
0.813554
0.716868
0.56015
0.379262
0.206136
0.0784015
0.023611
0.0104492
0.00158373
4.15642e-05
7.24688e-08
7.05974e-12
6.48336e-13
1.28164e-12
1.6606e-12
1.27075e-12
3.44385e-11
4.05967e-10
2.82082e-10
0.712507
0.67675
0.573217
0.40907
0.211991
0.0673712
0.0307045
0.00680506
0.000351356
1.96793e-06
2.262e-10
1.00721e-12
1.45937e-13
3.78699e-13
1.19011e-12
1.0103e-12
3.10434e-12
3.02585e-10
2.492e-10
0.451543
0.497691
0.440523
0.290546
0.112037
0.0517101
0.012756
0.000887306
6.91211e-06
9.32804e-10
1.22333e-11
1.75984e-13
3.48832e-14
9.5372e-14
8.01515e-13
7.62117e-13
1.59931e-12
2.02515e-10
2.15007e-10
0.128334
0.175448
0.131914
0.0824586
0.028608
0.00580697
0.000374612
3.25612e-06
1.34288e-09
3.54069e-11
7.68353e-13
3.11358e-14
1.60567e-14
4.38402e-14
4.17226e-13
5.17426e-13
1.00705e-12
1.35271e-10
1.82572e-10
0.00764648
0.0186986
0.0127783
0.00370204
0.000523973
1.16096e-05
1.50773e-08
1.46194e-10
2.99257e-11
2.33802e-12
5.71725e-14
7.76352e-15
1.36896e-14
3.82615e-14
1.81125e-13
3.40545e-13
7.77574e-13
9.81226e-11
1.5241e-10
2.4413e-05
8.49426e-05
6.38735e-05
1.24116e-05
1.98e-07
8.17285e-11
9.93959e-11
5.81748e-12
1.0156e-12
1.03747e-13
5.23348e-15
4.23321e-15
1.35957e-14
4.08264e-14
1.11275e-13
2.54638e-13
6.73008e-13
7.12056e-11
1.24178e-10
1.8747e-12
6.70974e-11
5.6584e-10
1.31819e-09
5.65606e-12
1.8291e-12
1.36296e-12
3.29784e-13
3.26405e-14
4.8151e-15
1.31922e-15
3.56791e-15
1.35849e-14
4.40058e-14
1.10587e-13
2.29921e-13
6.34549e-13
4.23373e-11
9.75725e-11
4.07872e-13
9.71043e-13
2.72945e-13
1.43389e-12
1.75028e-13
7.78902e-14
2.41891e-14
1.72177e-14
2.05645e-15
6.70932e-16
8.95695e-16
3.25253e-15
1.32437e-14
4.61092e-14
1.20576e-13
2.3436e-13
6.18956e-13
1.46684e-11
7.33242e-11
3.24078e-14
4.67273e-14
3.22786e-14
5.13508e-14
1.70699e-14
6.4239e-15
2.35486e-15
1.45706e-15
4.59571e-16
2.85945e-16
7.81705e-16
3.01115e-15
1.2837e-14
4.64883e-14
1.2788e-13
2.48574e-13
5.8346e-13
5.96234e-12
5.18713e-11
3.03694e-15
4.3331e-15
4.50707e-15
3.90258e-15
2.60051e-15
1.41475e-15
6.93657e-16
3.3382e-16
1.53732e-16
1.83375e-16
7.06137e-16
2.84928e-15
1.2357e-14
4.512e-14
1.32121e-13
2.66791e-13
5.35279e-13
3.99064e-12
3.1019e-11
7.73981e-16
9.22373e-16
1.00485e-15
8.61193e-16
6.38645e-16
3.91539e-16
2.01958e-16
9.86586e-17
6.0109e-17
1.39389e-16
6.23924e-16
2.63377e-15
1.1505e-14
4.29397e-14
1.33156e-13
2.87439e-13
4.9563e-13
2.92133e-12
1.38223e-11
2.00802e-16
2.33552e-16
2.36311e-16
1.97398e-16
1.55253e-16
1.00071e-16
5.48045e-17
2.93492e-17
2.96213e-17
1.10859e-16
5.32343e-16
2.34772e-15
1.05244e-14
4.06544e-14
1.32164e-13
3.0672e-13
4.78854e-13
2.37127e-12
1.05068e-11
4.88484e-17
5.59458e-17
5.51038e-17
4.81835e-17
3.78938e-17
2.4913e-17
1.42805e-17
9.35163e-18
1.81873e-17
8.78661e-17
4.41602e-16
2.03893e-15
9.49116e-15
3.85158e-14
1.29923e-13
3.18976e-13
4.9848e-13
2.18757e-12
9.01439e-12
1.01916e-17
1.23265e-17
1.27622e-17
1.17025e-17
9.47323e-18
6.24177e-18
3.73253e-18
3.5604e-18
1.26115e-17
6.87543e-17
3.60239e-16
1.74271e-15
8.55637e-15
3.67692e-14
1.26573e-13
3.21566e-13
5.60314e-13
2.25032e-12
8.22954e-12
1.94138e-18
2.50638e-18
2.76794e-18
2.6412e-18
2.18828e-18
1.49212e-18
1.02196e-18
1.75552e-18
9.14768e-18
5.37285e-17
2.92621e-16
1.49852e-15
7.76739e-15
3.50415e-14
1.21518e-13
3.18821e-13
6.43439e-13
2.3198e-12
7.54305e-12
3.33437e-19
4.6917e-19
5.51292e-19
5.4663e-19
4.68721e-19
3.40516e-19
3.13818e-19
1.05886e-18
6.73524e-18
4.22174e-17
2.37947e-16
1.30933e-15
7.15413e-15
3.27053e-14
1.14797e-13
3.05294e-13
6.55386e-13
2.26655e-12
6.81769e-12
5.34201e-20
8.068e-20
1.00047e-19
1.03762e-19
9.40915e-20
7.66121e-20
1.21446e-19
6.97428e-19
5.01449e-18
3.34579e-17
1.95844e-16
1.19465e-15
6.765e-15
3.09505e-14
1.08365e-13
2.75971e-13
5.69301e-13
2.08852e-12
6.08518e-12
7.75484e-21
1.25253e-20
1.6549e-20
1.82187e-20
1.77916e-20
1.83109e-20
5.99819e-20
4.71625e-19
3.74513e-18
2.66962e-17
1.67546e-16
1.12042e-15
6.51028e-15
3.01225e-14
1.04535e-13
2.52045e-13
4.51246e-13
1.80922e-12
5.32743e-12
1.01504e-21
1.7651e-21
2.51467e-21
2.9862e-21
3.22622e-21
5.24267e-21
3.35638e-20
3.17791e-19
2.77966e-18
2.13357e-17
1.49674e-16
1.04316e-15
6.26933e-15
2.96423e-14
1.03348e-13
2.43528e-13
3.93904e-13
1.46015e-12
4.52618e-12
1.20415e-22
2.27194e-22
3.52387e-22
4.57792e-22
5.8911e-22
1.91012e-21
1.92641e-20
2.10737e-19
2.04871e-18
1.71924e-17
1.33418e-16
9.78087e-16
6.10156e-15
2.97246e-14
1.04778e-13
2.45155e-13
3.82838e-13
1.16206e-12
3.68393e-12
1.30117e-23
2.6896e-23
4.57492e-23
6.6168e-23
1.1863e-22
8.14913e-22
1.08937e-20
1.37449e-19
1.51074e-18
1.41619e-17
1.19944e-16
9.29935e-16
6.0556e-15
3.05496e-14
1.09803e-13
2.5772e-13
3.96251e-13
9.29831e-13
2.81833e-12
1.29e-24
2.94051e-24
5.52283e-24
9.20364e-24
2.84364e-23
3.57459e-22
5.87913e-21
8.65839e-20
1.09794e-18
1.17548e-17
1.08305e-16
8.92251e-16
6.0943e-15
3.19272e-14
1.17882e-13
2.82856e-13
4.32642e-13
7.75198e-13
2.04974e-12
1.17665e-25
2.97602e-25
6.22228e-25
1.27465e-24
7.76235e-24
1.47016e-22
2.92455e-21
5.11172e-20
7.64179e-19
9.56085e-18
9.82055e-17
8.59154e-16
6.17841e-15
3.36742e-14
1.28512e-13
3.20652e-13
5.01572e-13
7.0542e-13
1.51473e-12
9.89719e-27
2.7928e-26
6.56938e-26
1.80262e-25
2.09572e-24
5.28964e-23
1.27549e-21
2.68583e-20
4.82216e-19
7.20832e-18
8.72665e-17
8.29414e-16
6.25378e-15
3.54593e-14
1.39889e-13
3.6211e-13
6.06115e-13
7.04276e-13
1.2356e-12
7.69097e-28
2.43454e-27
6.51554e-27
2.54287e-26
4.92255e-25
1.56581e-23
4.58748e-22
1.17261e-20
2.55513e-19
4.62202e-18
6.72263e-17
7.56121e-16
6.2918e-15
3.68452e-14
1.48164e-13
3.93789e-13
7.11682e-13
7.39464e-13
1.11997e-12
5.52375e-29
1.9724e-28
6.04641e-28
3.30099e-27
9.17293e-26
3.5666e-24
1.26051e-22
3.88991e-21
1.02382e-19
2.23534e-18
3.91143e-17
5.25339e-16
5.13552e-15
3.43015e-14
1.47554e-13
4.03435e-13
7.39149e-13
8.07578e-13
1.11283e-12
3.66861e-30
1.48622e-29
5.20441e-29
3.6245e-28
1.2845e-26
5.95269e-25
2.49334e-23
9.11371e-22
2.8409e-20
7.34483e-19
1.5223e-17
2.42539e-16
2.8177e-15
2.23288e-14
1.12755e-13
3.50872e-13
6.98396e-13
9.08281e-13
1.13177e-12
2.25161e-31
1.04133e-30
4.12751e-30
3.21058e-29
1.31815e-27
7.11413e-26
3.45687e-24
1.46034e-22
5.24237e-21
1.55831e-19
3.72006e-18
6.87515e-17
9.41055e-16
9.04844e-15
5.73245e-14
2.2569e-13
5.49768e-13
8.99857e-13
1.10826e-12
1.27464e-32
6.77837e-32
3.02067e-31
2.30092e-30
9.93017e-29
6.13073e-27
3.40363e-25
1.63246e-23
6.61497e-22
2.21146e-20
5.93507e-19
1.24027e-17
1.95113e-16
2.22262e-15
1.75451e-14
9.14186e-14
3.0802e-13
6.67082e-13
9.25556e-13
6.63106e-34
4.09191e-33
2.05794e-32
1.39837e-31
5.54869e-30
3.86608e-28
2.44019e-26
1.32306e-24
6.03333e-23
2.26211e-21
6.80773e-20
1.60376e-18
2.87985e-17
3.84131e-16
3.70276e-15
2.51359e-14
1.13745e-13
3.27631e-13
5.38106e-13
3.15162e-35
2.28262e-34
1.3143e-33
7.90794e-33
2.36513e-31
1.82383e-29
1.31675e-27
8.13741e-26
4.21385e-24
1.79177e-22
6.13e-21
1.65513e-19
3.46226e-18
5.42453e-17
6.21345e-16
5.06497e-15
2.84325e-14
1.0431e-13
1.961e-13
1.35381e-36
1.16707e-35
7.84736e-35
4.5223e-34
7.87626e-33
6.2692e-31
5.25222e-29
3.7743e-27
2.27244e-25
1.12631e-23
4.49538e-22
1.39697e-20
3.32655e-19
5.96306e-18
7.89209e-17
7.53765e-16
5.04593e-15
2.24241e-14
4.65443e-14
5.19909e-38
5.4374e-37
4.3565e-36
2.70524e-35
2.56615e-34
1.69277e-32
1.65386e-30
1.40619e-28
1.00667e-26
5.82943e-25
2.65657e-23
9.40099e-22
2.54693e-20
5.20247e-19
7.87652e-18
8.65581e-17
6.70525e-16
3.45558e-15
7.7739e-15
1.70637e-39
2.22089e-38
2.1729e-37
1.57013e-36
9.89904e-36
2.99554e-34
3.40463e-32
3.65396e-30
3.22377e-28
2.2252e-26
1.19339e-24
4.92339e-23
1.54404e-21
3.63207e-20
6.30933e-19
7.93159e-18
6.9961e-17
4.0639e-16
9.79057e-16
5.13072e-41
8.63243e-40
1.04108e-38
8.93934e-38
5.62332e-37
6.23663e-36
6.11878e-34
8.07866e-32
8.48722e-30
6.94618e-28
4.39348e-26
2.12519e-24
7.76593e-23
2.11461e-21
4.22214e-20
6.05174e-19
6.01999e-18
3.87274e-17
9.88399e-17
7.54669e-43
1.98851e-41
3.48429e-40
4.02015e-39
3.07921e-38
1.73632e-37
4.82805e-36
8.82101e-34
1.27033e-31
1.35601e-29
1.08691e-27
6.53701e-26
2.92602e-24
9.62483e-23
2.28782e-21
3.83862e-20
4.37692e-19
3.13405e-18
8.41757e-18
)
;

boundaryField
{
    leftWall
    {
        type            zeroGradient;
    }
    rightWall
    {
        type            zeroGradient;
    }
    lowerWall
    {
        type            zeroGradient;
    }
    atmosphere
    {
        type            inletOutlet;
        inletValue      uniform 0;
        value           nonuniform List<scalar> 
46
(
0
0
0
0
0
0
0
0
0
0
0
0
0
0
0
0
0
0
0
0
0
0
0
0
0
0
0
0
0
0
0
0
0
4.82805e-36
8.82101e-34
1.27033e-31
1.35601e-29
1.08691e-27
6.53701e-26
2.92602e-24
9.62483e-23
2.28782e-21
3.83862e-20
4.37692e-19
3.13405e-18
8.41757e-18
)
;
    }
    defaultFaces
    {
        type            empty;
    }
}


// ************************************************************************* //
