/*--------------------------------*- C++ -*----------------------------------*\
| =========                 |                                                 |
| \\      /  F ield         | OpenFOAM: The Open Source CFD Toolbox           |
|  \\    /   O peration     | Version:  2.4.0                                 |
|   \\  /    A nd           | Web:      www.OpenFOAM.org                      |
|    \\/     M anipulation  |                                                 |
\*---------------------------------------------------------------------------*/
FoamFile
{
    version     2.0;
    format      ascii;
    class       volScalarField;
    location    "0.35";
    object      alpha.air;
}
// * * * * * * * * * * * * * * * * * * * * * * * * * * * * * * * * * * * * * //

dimensions      [0 0 0 0 0 0 0];

internalField   nonuniform List<scalar> 
2268
(
1.72917e-16
1.69688e-16
1.67766e-16
2.24425e-16
1.59305e-16
3.85528e-16
2.64745e-16
3.1952e-16
7.188e-16
9.97425e-16
9.3115e-16
9.49841e-16
1.5462e-15
2.85995e-15
4.28411e-15
4.09462e-15
2.49289e-15
1.40982e-15
7.41903e-16
3.61622e-16
1.61377e-16
6.53994e-17
1.91794e-17
3.66183e-15
3.61928e-15
3.62178e-15
4.64196e-15
3.5458e-15
7.0191e-15
5.35383e-15
6.46718e-15
1.21539e-14
1.59294e-14
1.57304e-14
1.65011e-14
2.43661e-14
3.7567e-14
5.01088e-14
4.70086e-14
3.0056e-14
1.75983e-14
9.34173e-15
4.39773e-15
1.82772e-15
6.82286e-16
1.99555e-16
3.68481e-14
3.66591e-14
3.71473e-14
4.55476e-14
3.72407e-14
6.19427e-14
5.21379e-14
6.22538e-14
9.86913e-14
1.22343e-13
1.27411e-13
1.40774e-13
1.83366e-13
2.33338e-13
2.76179e-13
2.56056e-13
1.75043e-13
1.07195e-13
5.89159e-14
2.82542e-14
1.20806e-14
4.19468e-15
1.06021e-15
2.34121e-13
2.34005e-13
2.38865e-13
2.79678e-13
2.43118e-13
3.49492e-13
3.1822e-13
3.68067e-13
5.07372e-13
5.99763e-13
6.49502e-13
7.10003e-13
8.1547e-13
9.02444e-13
9.60731e-13
8.74472e-13
6.48436e-13
4.31516e-13
2.5375e-13
1.30634e-13
5.78436e-14
2.02822e-14
4.27393e-15
1.04064e-12
1.0386e-12
1.05276e-12
1.17236e-12
1.07757e-12
1.36554e-12
1.31862e-12
1.45028e-12
1.76815e-12
2.05424e-12
2.19534e-12
2.23795e-12
2.2954e-12
2.30916e-12
2.28619e-12
2.1109e-12
1.75781e-12
1.31556e-12
8.48456e-13
4.73819e-13
2.23004e-13
8.30814e-14
1.88964e-14
3.26399e-12
3.21081e-12
3.16167e-12
3.32438e-12
3.22003e-12
3.63954e-12
3.60905e-12
3.77156e-12
4.13081e-12
4.71514e-12
4.80626e-12
4.494e-12
4.1951e-12
3.94249e-12
3.73363e-12
3.49689e-12
3.14547e-12
2.56556e-12
1.76921e-12
1.03225e-12
4.96947e-13
1.92879e-13
4.55088e-14
6.40627e-12
6.13427e-12
5.78683e-12
5.74945e-12
5.76002e-12
5.90633e-12
6.12702e-12
5.86864e-12
5.87331e-12
7.1497e-12
6.36642e-12
5.56841e-12
4.93937e-12
4.52349e-12
4.22193e-12
3.99009e-12
3.65716e-12
2.90438e-12
2.00921e-12
1.27608e-12
6.53743e-13
2.80069e-13
7.96945e-14
5.10621e-12
4.99859e-12
4.89104e-12
4.78112e-12
4.66993e-12
4.55916e-12
4.45026e-12
4.34388e-12
4.23747e-12
4.13461e-12
4.04484e-12
3.95007e-12
3.84521e-12
3.71872e-12
3.58386e-12
3.44378e-12
3.31624e-12
3.18034e-12
2.58287e-12
1.56473e-12
7.5471e-13
3.29747e-13
9.98406e-14
5.96032e-05
2.17819e-05
7.3164e-06
1.60144e-05
2.2095e-05
2.13603e-05
1.20999e-05
7.48211e-06
6.61578e-06
7.76473e-06
1.04648e-05
2.26257e-05
1.63294e-05
7.6804e-06
1.69344e-05
0.00103925
0.00263754
0.00170123
0.00170123
6.43785e-05
1.03061e-05
1.14096e-06
5.70447e-07
1.08752e-07
3.05157e-08
2.89075e-08
3.10267e-08
4.12955e-08
2.69203e-08
2.6872e-08
2.81353e-07
8.7464e-08
8.76149e-08
1.68192e-06
0.000457677
0.00155
0.00174059
0.00883576
5.12711e-05
1.93379e-06
4.18873e-08
3.59439e-08
3.63482e-08
7.2225e-08
2.67443e-08
2.67443e-08
9.18959e-08
6.82567e-07
5.54349e-07
4.37736e-05
5.70469e-06
1.09465e-07
1.80163e-07
3.39612e-05
0.00030843
0.00086286
0.111038
1.73152e-05
1.90413e-07
1.44885e-07
1.08624e-06
1.0095e-05
2.62521e-05
2.93191e-06
2.58069e-07
2.04155e-06
3.22513e-05
4.92557e-05
0.000586839
0.000171173
9.82939e-06
1.95997e-07
6.51627e-07
0.000101245
0.00107825
0.11463
2.44413e-06
7.32245e-07
1.3294e-05
0.000860489
0.0132795
0.0177954
0.00110739
6.05222e-05
3.92316e-05
0.000495927
0.00149906
0.0126438
0.00374695
0.00016429
1.45106e-06
4.23142e-07
0.000112676
0.0400774
0.114628
6.69431e-07
2.56183e-06
0.000671941
0.0937067
0.608888
0.555899
0.116791
0.00619648
0.00119234
0.00392362
0.0227448
0.25608
0.216647
0.0158891
8.0796e-05
7.00361e-07
0.000113851
0.0629644
0.0631557
6.69231e-07
6.23117e-06
0.00341134
0.806388
0.998698
0.998673
0.852532
0.133013
0.0138297
0.00963873
0.0989742
0.703231
0.950654
0.19511
0.00299456
1.21036e-05
0.000197959
0.0631206
0.0137128
3.32625e-06
1.58966e-05
0.227796
0.99124
0.999047
0.999047
0.994239
0.472581
0.042642
0.0113257
0.161764
0.758958
0.981622
0.754349
0.0296071
0.000130099
0.00105148
0.0219102
0.00224531
1.99899e-10
2.20657e-10
2.57095e-10
2.78002e-10
2.80841e-10
2.77879e-10
2.5667e-10
2.60169e-10
2.26933e-10
2.0196e-10
2.62334e-10
5.92291e-10
1.28133e-09
1.49249e-09
1.29491e-09
9.54351e-10
4.95186e-10
1.67032e-10
2.56032e-11
8.14355e-12
2.83718e-12
8.65105e-13
1.42511e-13
1.53842e-09
1.66661e-09
1.80578e-09
1.8803e-09
1.92116e-09
1.96871e-09
1.91224e-09
1.99449e-09
1.98936e-09
2.3814e-09
3.64233e-09
6.30886e-09
9.57291e-09
1.00381e-08
8.32914e-09
5.57858e-09
3.21505e-09
1.66221e-09
6.66797e-10
1.72653e-10
2.74701e-11
8.09412e-12
1.42017e-12
7.85463e-09
8.16218e-09
8.32882e-09
8.36944e-09
8.43641e-09
8.64651e-09
8.67799e-09
9.18901e-09
1.06118e-08
1.28378e-08
1.58082e-08
1.6425e-08
1.6419e-08
1.62328e-08
1.39086e-08
8.99302e-09
5.17953e-09
3.19277e-09
1.94947e-09
9.03466e-10
2.03353e-10
7.53759e-11
1.81647e-11
1.90209e-08
1.88288e-08
1.81122e-08
1.74628e-08
1.72972e-08
1.76457e-08
1.86726e-08
2.33632e-08
2.86003e-08
2.40335e-08
1.84291e-08
1.18179e-08
7.34112e-09
4.83576e-09
3.58291e-09
2.70579e-09
2.41587e-09
2.20236e-09
1.84395e-09
1.34282e-09
7.02104e-10
2.18448e-10
6.0693e-11
4.93542e-08
4.76994e-08
4.47024e-08
4.26722e-08
4.16142e-08
4.18123e-08
4.49535e-08
5.837e-08
3.74133e-08
2.95522e-08
1.85716e-08
1.07461e-08
6.79712e-09
4.49185e-09
2.43749e-09
1.06764e-09
4.25672e-10
4.21987e-10
4.72741e-10
5.81292e-10
5.30915e-10
3.59344e-10
1.06765e-10
4.57835e-05
4.89614e-05
5.1259e-05
5.3835e-05
5.47393e-05
5.33757e-05
4.31945e-05
2.21571e-05
9.08483e-06
2.58146e-06
1.08976e-06
6.45313e-07
4.54483e-07
3.16375e-07
1.64665e-07
4.49524e-08
8.11578e-09
1.86308e-09
2.26558e-10
1.58321e-10
1.59183e-10
1.53295e-10
8.92622e-11
0.0157935
0.0164131
0.0169449
0.0175349
0.0177855
0.0174769
0.0149086
0.00900338
0.00365618
0.0010694
0.000680938
0.000235561
8.88625e-05
0.000108129
8.76567e-05
3.00919e-05
3.05727e-06
3.68269e-06
9.08128e-07
3.67064e-07
2.40909e-08
2.63388e-10
4.27459e-11
0.401706
0.409136
0.416916
0.426439
0.434124
0.438802
0.416359
0.321813
0.16836
0.0730074
0.0626931
0.0347156
0.0206458
0.0109107
0.00600003
0.00255234
0.000788579
0.000411913
0.000315342
0.000211697
3.2675e-05
8.20012e-06
8.39139e-07
0.987036
0.988052
0.989166
0.990499
0.991684
0.992883
0.992559
0.982443
0.867617
0.614121
0.578019
0.610307
0.54284
0.413158
0.309393
0.198058
0.102108
0.0474965
0.016014
0.00735613
0.00085837
0.000697694
0.000673235
0.999999
0.999999
0.999999
0.999999
0.999999
0.999998
0.99994
0.998594
0.999263
0.999674
0.999803
0.99985
0.999168
0.995383
0.984435
0.945886
0.851874
0.691352
0.475338
0.3344
0.124481
0.0584989
0.0307089
0.999999
0.999999
0.999999
0.999999
0.999999
0.999997
0.999995
0.999998
0.999997
0.999999
0.999999
1
1
1
1
0.999999
0.999996
0.999921
0.99849
0.989793
0.900772
0.750463
0.596956
0.999999
0.999999
0.999999
0.999999
0.999999
0.999999
0.999999
0.999999
0.999999
0.999999
0.999999
0.999999
1
1
1
1
1
1
1
1
0.999999
0.999986
0.999771
0.999998
0.999998
0.999998
0.999998
0.999999
0.999999
0.999999
0.999999
0.999999
0.999999
0.999999
1
0.999999
0.999999
0.999999
0.999999
1
1
1
1
1
1
1
0.999998
0.999998
0.999998
0.999998
0.999999
0.999999
0.999999
0.999999
0.999999
0.999999
1
1
0.999999
0.999999
0.999999
0.999999
0.999999
1
1
1
1
1
1
0.999998
0.999998
0.999998
0.999999
0.999999
0.999999
0.999999
0.999999
0.999999
1
1
1
0.999999
0.999999
0.999999
0.999999
0.999999
1
1
1
1
1
1
0.999999
0.999999
0.999999
0.999999
0.999999
0.999999
0.999999
0.999999
1
1
1
1
0.999999
0.999999
0.999999
1
1
1
1
0.999999
0.999999
0.999999
0.999999
0.999999
0.999999
0.999999
0.999999
0.999999
0.999999
0.999999
1
1
1
1
1
1
1
0.999999
1
1
1
0.999999
0.999999
0.999999
0.999999
0.999999
0.999999
0.999999
0.999999
0.999999
0.999999
0.999999
1
1
1
1
1
1
1
1
1
1
1
1
1
1
0.999999
0.999999
0.999999
0.999999
0.999999
0.999999
0.999999
0.999999
1
1
1
1
1
1
1
1
1
1
1
1
1
1
1
1
1
0.999999
0.999999
0.999999
0.999999
0.999999
1
1
1
1
1
1
1
1
1
0.999999
1
1
1
1
1
1
1
1
1
0.999999
0.999999
0.999999
1
1
1
1
1
1
1
1
1
1
0.999999
0.999999
0.999999
1
1
1
1
1
1
1
0.999999
0.999999
0.999999
1
1
1
1
1
1
1
1
1
1
0.999999
0.999999
0.999999
0.999999
1
1
1
1
1
1
0.999999
0.999999
0.999999
1
1
1
1
1
1
1
1
1
1
1
0.999999
0.999999
0.999999
0.999999
0.999999
0.999999
1
1
1
0.999999
0.999999
1
1
1
1
1
1
1
1
1
1
1
1
0.999999
0.999999
0.999999
0.999999
0.999999
0.999999
0.999999
0.999999
0.999999
0.999999
0.999999
1
1
1
1
1
1
1
1
1
1
1
1
1
0.999999
0.999999
0.999999
0.999998
0.999998
0.999998
0.999998
0.999998
0.999999
1
1
1
1
1
1
1
1
1
1
1
1
1
1
0.999999
0.999999
0.999999
0.999998
0.999998
0.999998
0.999997
0.999998
1
1
1
1
1
1
1
1
1
1
1
1
1
1
1
1
0.999999
0.999999
0.999999
0.999998
0.999998
0.999997
0.999997
1
1
1
1
1
1
1
1
1
1
1
1
1
1
1
1
1
0.999999
0.999999
0.999998
0.999998
0.999997
0.999997
1
1
1
1
1
1
1
1
1
1
1
1
1
1
1
1
1
0.999999
0.999999
0.999999
0.999998
0.999998
0.999997
1
1
1
1
1
1
1
1
1
1
1
1
1
1
1
1
1
1
0.999999
0.999999
0.999999
0.999998
0.999997
1
1
1
1
1
1
1
1
1
1
1
1
1
1
1
1
1
1
1
0.999999
0.999999
0.999999
0.999998
1
1
1
1
1
1
1
1
1
1
1
1
1
1
1
1
1
1
1
1
0.999999
0.999999
0.999998
1
1
1
1
1
1
1
1
1
1
1
1
1
1
1
1
1
1
1
1
1
0.999999
0.999999
1
1
1
1
1
1
1
1
1
1
1
1
1
1
1
1
1
1
1
1
1
1
0.999999
1
1
1
1
1
1
1
1
1
1
1
1
1
1
1
1
1
1
1
1
1
1
0.999999
1
1
1
1
1
1
1
1
1
1
1
1
1
1
1
1
1
1
1
1
1
1
1
1
1
1
1
1
1
1
1
1
1
1
1
1
1
1
1
1
1
1
1
1
1
1
1
1
1
1
1
1
1
1
1
1
1
1
1
1
1
1
1
1
1
1
1
1
1
1
1
1
1
1
1
1
1
1
1
1
1
1
1
1
1
1
0.999999
0.999999
1
1
1
1
1
1
1
1
1
1
1
1
1
1
1
1
1
1
1
1
0.999999
0.999999
0.999999
0.999999
1
1
1
1
1
1
1
1
1
1
1
1
1
1
1
1
1
1
1
1
1
1
1
1
1
1
1
1
1
1
1
1
1
1
1
1
1
1
1
1
1
1
1
1
1
1
1
1
1
0.00288754
0.496529
0.564947
0.244346
0.000371517
0.0728894
0.330838
0.252233
8.16245e-06
0.00535668
0.0371002
0.0937245
7.33226e-08
4.26219e-05
0.000440452
0.00435383
7.31417e-10
6.4713e-08
5.40932e-07
1.6339e-05
1.43614e-10
3.15145e-09
9.80139e-09
7.45153e-08
4.05908e-11
4.10715e-11
1.10619e-10
3.62554e-09
3.16022e-07
2.11472e-08
2.95771e-10
2.73477e-10
0.000929789
0.000377365
2.5501e-05
2.12333e-07
0.0164853
0.0120479
0.00654808
0.00333148
0.462957
0.370874
0.316668
0.235926
0.998827
0.995788
0.990355
0.983217
1
1
1
1
1
1
0.999999
0.999999
1
0.999999
0.999999
0.999999
0.999999
0.999999
0.999999
0.999999
0.999999
0.999999
0.999999
0.999999
0.999999
0.999999
0.999999
0.999998
0.999999
0.999999
0.999999
0.999998
1
1
0.999999
0.999999
1
1
1
1
1
1
1
1
1
1
1
1
1
1
1
1
0.999999
0.999999
0.999999
0.999999
0.999998
0.999998
0.999998
0.999998
0.999997
0.999998
0.999998
0.999998
0.999997
0.999997
0.999997
0.999997
0.999997
0.999997
0.999997
0.999997
0.999997
0.999997
0.999997
0.999997
0.999998
0.999998
0.999998
0.999997
0.999998
0.999998
0.999998
0.999998
0.999998
0.999998
0.999998
0.999998
0.999999
0.999999
0.999999
0.999998
0.999999
0.999999
0.999999
0.999999
0.999999
0.999999
0.999999
0.999999
1
0.999999
0.999999
0.999999
1
0.999999
0.999999
0.999999
1
0.999999
1
0.999999
1
1
0.999999
0.999999
1
0.999999
0.999999
0.999999
0.999999
1
1
1
0.000539826
0.000101546
0.388699
0.968122
0.999047
0.999047
0.988291
0.581078
0.056648
0.0146397
0.167554
0.717471
0.983622
0.985551
0.370318
0.0108493
0.00115252
0.00194597
0.000289872
0.0193028
0.000443714
0.0724782
0.649289
0.958924
0.959092
0.770318
0.177674
0.0129018
0.0246197
0.338568
0.876119
0.995083
0.999858
0.927046
0.0658714
0.00126429
2.76867e-05
8.62118e-06
0.0507087
0.00341535
0.0215845
0.102329
0.389111
0.393046
0.147494
0.0111591
0.00190248
0.0470863
0.571584
0.965804
0.999627
0.999998
0.999076
0.520769
0.0156264
6.46393e-05
1.62642e-06
0.015983
0.00786065
0.00951537
0.0175968
0.0116312
0.0042345
0.000749407
0.000446772
0.00187051
0.124917
0.72398
0.986331
0.999976
1
0.999998
0.945734
0.0486019
0.000195561
1.62642e-06
0.000623642
0.00385132
0.00365074
0.00292694
0.00144696
0.000331155
0.000133986
0.000441658
0.0181496
0.354669
0.884984
0.997603
0.999999
1
1
0.989335
0.0991821
0.000630272
1.78576e-06
8.26362e-06
0.000343695
0.000566309
0.000413325
0.000114255
5.93771e-05
0.000132505
0.00693665
0.117354
0.690293
0.978898
0.999895
1
1
1
0.999874
0.375775
0.00542725
5.63069e-06
1.1525e-06
8.22841e-06
1.78911e-05
1.08427e-05
1.08552e-05
5.91004e-05
0.00347322
0.0396423
0.432192
0.914451
0.998615
1
1
1
1
1
0.851311
0.025213
4.68554e-05
4.98716e-08
1.80255e-06
2.20799e-06
2.43654e-06
5.63391e-05
0.00410123
0.0373821
0.276481
0.827751
0.993439
0.999993
1
1
1
1
1
0.991702
0.0925486
0.000527469
2.44769e-08
5.63617e-08
1.74359e-07
0.000359787
0.00762342
0.0555882
0.228275
0.760395
0.988357
0.999976
1
1
1
1
1
1
0.999899
0.257977
0.00432359
0.000247004
2.02304e-06
2.31238e-05
0.0276094
0.0957369
0.34685
0.800854
0.989649
0.999963
1
1
1
1
1
1
1
1
0.535546
0.0184356
0.0786341
0.0156823
0.021287
0.137735
0.672572
0.98002
0.999923
0.999993
1
1
1
1
1
1
1
1
1
0.610488
0.0243141
0.922753
0.769734
0.802241
0.951111
0.998492
0.999995
1
1
1
1
1
1
1
1
1
1
1
0.506567
0.0208865
0.999999
0.999993
0.999959
0.999901
0.999988
1
1
1
1
1
1
1
1
1
1
1
1
0.285221
0.0120086
0.999999
1
1
1
1
1
1
1
1
1
1
1
1
1
1
1
1
0.243883
0.0076558
0.999999
0.999999
1
1
1
1
1
1
1
1
1
1
1
1
1
1
1
0.387068
0.0109215
0.999999
0.999999
0.999999
0.999999
1
1
1
1
1
1
1
1
1
1
1
1
1
0.75533
0.0335738
0.999998
0.999999
0.999999
0.999999
0.999999
0.999999
1
1
1
1
1
1
1
1
1
1
1
0.962618
0.0827475
0.999998
0.999998
0.999998
0.999998
0.999999
0.999999
0.999999
0.999999
1
1
1
1
1
1
1
1
1
0.995911
0.183747
0.999998
0.999998
0.999998
0.999998
0.999998
0.999998
0.999999
0.999999
0.999999
1
1
1
1
1
1
1
0.999992
0.997628
0.378518
0.999999
0.999998
0.999998
0.999998
0.999998
0.999998
0.999998
0.999999
0.999999
0.999999
1
1
1
1
1
0.999999
0.999924
0.997429
0.399917
0.999999
0.999999
0.999998
0.999998
0.999998
0.999998
0.999998
0.999999
0.999999
0.999999
1
1
1
1
1
0.999997
0.99958
0.99549
0.278239
1
0.999999
0.999999
0.999999
0.999998
0.999998
0.999999
0.999999
0.999999
0.999999
1
1
1
1
1
0.999994
0.998439
0.975458
0.105101
1
1
0.999999
0.999999
0.999999
0.999999
0.999999
0.999999
0.999999
0.999999
1
1
1
1
1
0.999997
0.996285
0.847664
0.0232409
1
1
0.999999
0.999999
0.999999
0.999999
0.999999
0.999999
0.999999
1
1
1
1
1
1
1
0.997259
0.657333
0.0141739
0.999999
0.999999
0.999999
0.999999
0.999999
0.999999
0.999999
0.999999
0.999999
1
1
1
1
1
1
1
0.999491
0.671396
0.014174
0.999998
0.999999
0.999999
0.999999
0.999999
0.999999
0.999999
0.999999
1
1
1
1
1
1
1
1
0.999986
0.809526
0.0161256
0.999998
0.999998
0.999998
0.999999
0.999999
0.999999
0.999999
0.999999
1
1
1
1
1
1
1
1
1
0.947052
0.0518777
0.999997
0.999998
0.999998
0.999998
0.999999
0.999999
0.999999
0.999999
1
1
1
1
1
1
1
1
1
0.992083
0.154892
0.999997
0.999997
0.999998
0.999998
0.999998
0.999999
0.999999
0.999999
1
1
1
1
1
1
1
1
1
0.99933
0.300037
0.999997
0.999997
0.999998
0.999998
0.999998
0.999999
0.999999
0.999999
1
1
1
1
1
1
1
1
1
0.999976
0.48321
0.999997
0.999997
0.999997
0.999998
0.999998
0.999999
0.999999
0.999999
1
1
1
1
1
1
1
1
1
1
0.737145
0.999997
0.999997
0.999997
0.999998
0.999998
0.999999
0.999999
0.999999
1
1
1
1
1
1
1
1
1
1
0.935493
0.999998
0.999998
0.999998
0.999998
0.999998
0.999999
0.999999
0.999999
1
1
1
1
1
1
1
1
1
0.999869
0.99376
0.999998
0.999998
0.999998
0.999998
0.999998
0.999999
0.999999
0.999999
1
1
1
1
1
1
1
0.999997
0.999966
0.999773
0.999738
0.999998
0.999998
0.999998
0.999998
0.999999
0.999999
0.999999
0.999999
1
1
1
1
1
1
1
0.999997
0.99996
0.999922
0.999989
0.999999
0.999999
0.999998
0.999999
0.999999
0.999999
0.999999
0.999999
0.999999
1
1
1
1
1
1
1
0.999998
0.999995
1
0.999999
0.999999
0.999999
0.999999
0.999999
0.999999
0.999999
0.999999
0.999999
0.999999
1
1
1
1
1
1
1
1
1
0.999999
0.999999
0.999999
0.999999
0.999999
0.999999
0.999999
0.999999
0.999999
0.999999
0.999999
1
1
1
1
1
1
1
1
0.999999
0.999999
0.999999
0.999999
0.999999
0.999999
0.999999
0.999999
0.999999
0.999999
0.999999
0.999999
1
1
1
1
1
1
1
0.999999
0.999999
0.999999
0.999999
0.999999
0.999999
0.999999
0.999999
0.999999
0.999999
0.999999
0.999999
0.999999
0.999999
1
1
1
1
1
0.999999
0.999999
0.999999
0.999999
0.999999
0.999999
0.999999
0.999999
0.999999
0.999999
0.999999
0.999999
0.999999
0.999999
1
1
1
1
1
1
1
1
0.999999
0.999999
0.999999
0.999999
0.999999
0.999999
0.999999
0.999999
0.999999
1
1
1
1
1
1
1
)
;

boundaryField
{
    leftWall
    {
        type            alphaContactAngle;
        thetaProperties 6 ( ( water mercury ) 90 0 0 0 ( water air ) 90 0 0 0 ( water oil ) 90 0 0 0 ( mercury air ) 90 0 0 0 ( oil mercury ) 90 0 0 0 ( oil air ) 90 0 0 0 );
        value           nonuniform List<scalar> 
50
(
1.72917e-16
3.66183e-15
3.68481e-14
2.34121e-13
1.04064e-12
3.26399e-12
6.40627e-12
5.10621e-12
1.99899e-10
1.53842e-09
7.85463e-09
1.90209e-08
4.93542e-08
4.57835e-05
0.0157935
0.401706
0.987036
0.999999
0.999999
0.999999
0.999998
0.999998
0.999998
0.999999
0.999999
0.999999
0.999999
0.999999
0.999999
0.999999
0.999999
0.999999
0.999999
0.999999
1
1
1
1
1
1
1
1
1
1
1
1
1
1
1
1
)
;
    }
    rightWall
    {
        type            alphaContactAngle;
        thetaProperties 6 ( ( water mercury ) 90 0 0 0 ( water air ) 90 0 0 0 ( water oil ) 90 0 0 0 ( mercury air ) 90 0 0 0 ( oil mercury ) 90 0 0 0 ( oil air ) 90 0 0 0 );
        value           nonuniform List<scalar> 
50
(
0.00170123
0.00883576
0.111038
0.11463
0.114628
0.0631557
0.0137128
0.00224531
0.000289872
8.62118e-06
1.62642e-06
1.62642e-06
1.78576e-06
5.63069e-06
4.68554e-05
0.000527469
0.00432359
0.0184356
0.0243141
0.0208865
0.0120086
0.0076558
0.0109215
0.0335738
0.0827475
0.183747
0.378518
0.399917
0.278239
0.105101
0.0232409
0.0141739
0.014174
0.0161256
0.0518777
0.154892
0.300037
0.48321
0.737145
0.935493
0.99376
0.999738
0.999989
1
1
1
1
1
1
1
)
;
    }
    lowerWall
    {
        type            alphaContactAngle;
        thetaProperties 6 ( ( water mercury ) 90 0 0 0 ( water air ) 90 0 0 0 ( water oil ) 90 0 0 0 ( mercury air ) 90 0 0 0 ( oil mercury ) 90 0 0 0 ( oil air ) 90 0 0 0 );
        value           nonuniform List<scalar> 
62
(
1.72917e-16
1.69688e-16
1.67766e-16
2.24425e-16
1.59305e-16
3.85528e-16
2.64745e-16
3.1952e-16
7.188e-16
9.97425e-16
9.3115e-16
9.49841e-16
1.5462e-15
2.85995e-15
4.28411e-15
4.09462e-15
2.49289e-15
1.40982e-15
7.41903e-16
3.61622e-16
1.61377e-16
6.53994e-17
1.91794e-17
1.91794e-17
1.99555e-16
1.06021e-15
4.27393e-15
1.88964e-14
4.55088e-14
7.96945e-14
9.98406e-14
0.00288754
0.496529
0.564947
0.244346
5.96032e-05
6.43785e-05
5.12711e-05
1.73152e-05
2.44413e-06
6.69431e-07
6.69231e-07
3.32625e-06
5.96032e-05
2.17819e-05
7.3164e-06
1.60144e-05
2.2095e-05
2.13603e-05
1.20999e-05
7.48211e-06
6.61578e-06
7.76473e-06
1.04648e-05
2.26257e-05
1.63294e-05
7.6804e-06
1.69344e-05
0.00103925
0.00263754
0.00170123
0.00170123
)
;
    }
    atmosphere
    {
        type            inletOutlet;
        inletValue      uniform 1;
        value           nonuniform List<scalar> 
46
(
1
1
1
1
1
1
1
1
1
1
1
1
1
1
1
1
1
1
1
1
1
1
1
1
1
1
1
1
1
1
1
1
1
0.999999
0.999999
0.999999
0.999999
0.999999
0.999999
1
1
1
1
1
1
1
)
;
    }
    defaultFaces
    {
        type            empty;
    }
}


// ************************************************************************* //
