/*--------------------------------*- C++ -*----------------------------------*\
| =========                 |                                                 |
| \\      /  F ield         | OpenFOAM: The Open Source CFD Toolbox           |
|  \\    /   O peration     | Version:  2.4.0                                 |
|   \\  /    A nd           | Web:      www.OpenFOAM.org                      |
|    \\/     M anipulation  |                                                 |
\*---------------------------------------------------------------------------*/
FoamFile
{
    version     2.0;
    format      ascii;
    class       volScalarField;
    location    "0.35";
    object      alpha.mercury;
}
// * * * * * * * * * * * * * * * * * * * * * * * * * * * * * * * * * * * * * //

dimensions      [0 0 0 0 0 0 0];

internalField   nonuniform List<scalar> 
2268
(
1
1
1
1
1
1
1
1
1
1
1
1
1
1
1
1
1
1
1
1
1
0.999993
0.999955
1
1
1
1
1
1
1
1
1
1
1
1
1
1
1
1
1
1
1
1
1
0.999993
0.99995
1
1
1
1
1
1
1
1
1
1
1
1
1
1
1
1
1
1
1
0.999999
0.999999
0.999992
0.999945
1
1
1
1
1
1
1
1
1
1
0.999999
0.999999
0.999997
0.999989
0.999954
0.999926
0.999957
0.99998
0.99999
0.999993
0.999995
0.999989
0.999934
0.999999
0.999998
0.999998
0.999996
0.999997
0.99999
0.999987
0.999977
0.999924
0.99983
0.999625
0.999235
0.998023
0.995387
0.98827
0.982523
0.990962
0.996818
0.999166
0.999821
0.999962
0.99998
0.999932
0.999223
0.99916
0.999059
0.998584
0.998643
0.99717
0.996162
0.994258
0.988578
0.979399
0.96336
0.939666
0.888357
0.811758
0.682109
0.560644
0.52058
0.581394
0.775829
0.952388
0.996515
0.999878
0.999921
0.953981
0.951616
0.947604
0.934654
0.931649
0.901054
0.873632
0.837403
0.76685
0.670998
0.551602
0.426123
0.271838
0.1364
0.0415936
0.00831249
0.000933443
0.0232512
0.146052
0.574158
0.94468
0.998298
0.999887
0.604868
0.59483
0.577115
0.537983
0.512454
0.438984
0.367444
0.293647
0.202173
0.116646
0.0541218
0.0191056
0.00412674
0.000586011
7.65335e-05
3.78044e-05
2.28945e-05
5.96686e-05
0.00339523
0.112293
0.760732
0.988541
0.999876
0.000145133
0.000183381
0.000217833
0.000275392
0.000334225
0.000440428
0.000751115
0.0021617
0.00912254
0.0339292
0.0509051
0.0508859
0.0509154
0.0505816
0.0505726
0.044636
0.0256673
0.0101746
0.00184753
0.000102866
6.11602e-05
4.88243e-05
3.98894e-05
3.55458e-05
6.03734e-05
0.000163408
0.000719937
0.00345949
0.0128806
0.0507614
0.0512691
0.050751
0.0509314
0.0350402
0.00914713
0.00289337
0.000958869
0.000101239
5.1271e-05
2.78782e-05
2.60483e-05
2.75214e-05
3.37919e-05
5.87525e-05
0.000164445
0.000870428
0.00506425
0.0188844
0.0376343
0.0510242
0.0512919
0.0393186
0.0114191
0.00199762
0.000521175
0.000143717
7.99338e-06
3.01053e-05
1.89202e-05
1.84352e-05
1.7615e-05
2.00843e-05
4.65896e-05
0.000121323
0.000900589
0.00621196
0.0232736
0.0443141
0.0515624
0.0453476
0.0161009
0.00341087
0.000586591
0.000241046
9.9104e-05
7.36185e-06
2.41422e-05
1.7672e-05
1.38161e-05
9.33594e-06
7.83609e-06
2.02215e-05
9.05276e-05
0.000913889
0.00859404
0.028603
0.0512087
0.0498777
0.0260313
0.0059362
0.000842368
0.000167902
0.000120623
6.30924e-05
9.1602e-06
2.00612e-05
1.60763e-05
7.8658e-06
2.308e-06
1.26389e-06
1.8082e-06
1.11025e-05
0.000842307
0.0124105
0.0345069
0.0577404
0.0530534
0.0182999
0.00255577
0.000226713
9.90316e-05
8.39639e-05
5.70551e-05
9.1814e-06
1.85337e-05
1.27601e-05
2.80949e-06
1.9581e-07
5.82842e-09
8.53142e-09
1.21103e-06
0.000921845
0.0165354
0.042561
0.0613087
0.0349157
0.00681976
0.00109236
0.000114608
8.76461e-05
7.89393e-05
5.88719e-05
7.60492e-06
1.57545e-05
3.35146e-06
5.8291e-09
5.82941e-09
5.8281e-09
5.84053e-09
5.83713e-09
0.00149453
0.0211724
0.0520121
0.0621338
0.0334314
0.00487044
0.000793145
5.03348e-05
6.04288e-05
6.60585e-05
5.05354e-05
5.68976e-06
0.106752
0.102394
0.0947963
0.0825814
0.0708726
0.0528254
0.037517
0.0245289
0.0138098
0.0066976
0.00278382
0.000958192
0.000263125
7.04602e-05
2.74779e-05
2.01402e-05
2.28688e-05
2.29974e-05
9.57644e-05
0.0105691
0.326961
0.876133
0.993573
0.000434847
0.000394839
0.000333614
0.000259215
0.000185824
0.000123063
8.01393e-05
4.93516e-05
3.0173e-05
1.82474e-05
1.03028e-05
5.96206e-06
2.79599e-06
2.52773e-06
2.69385e-06
2.88911e-06
4.6841e-06
7.2971e-06
7.69942e-06
0.000186435
0.0378049
0.465927
0.88099
3.96864e-06
3.72275e-06
3.36157e-06
2.89902e-06
2.43096e-06
1.98627e-06
1.70008e-06
1.36508e-06
1.1253e-06
9.67875e-07
7.93208e-07
7.0688e-07
5.78688e-07
4.59437e-07
4.68499e-07
4.54997e-07
4.63138e-07
6.15693e-07
8.28681e-07
5.45626e-06
0.00170177
0.101237
0.494873
2.47055e-07
2.38881e-07
2.28671e-07
2.12722e-07
1.93594e-07
1.69303e-07
1.53709e-07
1.21856e-07
1.00257e-07
8.31366e-08
6.24993e-08
4.62016e-08
3.48576e-08
2.69657e-08
2.59946e-08
2.38465e-08
2.52676e-08
2.96254e-08
4.54068e-08
2.58964e-07
8.61896e-05
0.00978133
0.125185
2.27589e-09
2.16487e-09
1.96371e-09
1.81868e-09
1.71693e-09
1.57414e-09
1.49189e-09
1.20826e-09
9.99943e-10
7.26934e-10
5.07942e-10
3.57079e-10
2.47063e-10
1.76874e-10
1.54749e-10
1.38955e-10
1.50173e-10
2.01129e-10
4.48149e-10
6.20756e-08
1.0438e-05
0.000803278
0.0133582
2.38911e-13
5.15902e-14
4.1699e-14
4.31603e-14
3.99758e-14
3.69706e-14
3.55667e-14
3.28519e-14
3.02743e-14
2.46528e-14
2.27248e-14
2.34737e-14
2.40588e-14
2.52257e-14
2.78294e-14
3.33729e-14
6.29764e-14
1.73332e-13
2.78833e-12
1.28099e-08
2.01014e-06
0.000147721
0.00456146
1.44927e-33
1.94881e-32
1.35079e-31
6.4704e-31
2.46129e-30
8.12664e-30
2.42601e-29
8.29067e-29
6.34315e-23
3.04743e-21
3.05925e-20
3.70777e-19
3.75823e-18
3.41548e-17
3.22022e-16
2.83721e-15
2.56541e-14
4.61742e-13
5.64383e-11
2.15134e-09
5.83021e-07
2.43203e-05
0.000672401
6.91759e-33
8.75801e-32
5.77545e-31
2.64995e-30
9.83156e-30
3.23464e-29
9.85211e-29
3.47498e-28
7.13894e-22
2.0229e-20
2.248e-19
3.46373e-18
3.5242e-17
2.78851e-16
2.08486e-15
1.64169e-14
1.48232e-13
1.66867e-12
3.36368e-11
7.61927e-11
6.0717e-08
3.46197e-06
6.69833e-05
2.75829e-32
3.30402e-31
2.07552e-30
9.16908e-30
3.36902e-29
1.14279e-28
3.7814e-28
1.43721e-27
8.44713e-21
1.28293e-19
5.76653e-19
1.88822e-18
6.15687e-18
2.37819e-17
1.20348e-16
8.40695e-16
7.89991e-15
9.18739e-14
1.15216e-12
2.26413e-12
4.70268e-11
2.10835e-07
3.55862e-06
9.3694e-32
1.05162e-30
6.20089e-30
2.61555e-29
9.34416e-29
3.16392e-28
1.07731e-27
6.71596e-27
1.61438e-25
1.44551e-24
3.37074e-24
6.12309e-24
1.80529e-23
6.21292e-23
2.14917e-22
6.40415e-22
1.78584e-21
5.38242e-21
1.67591e-20
1.37912e-14
4.52225e-13
2.77405e-10
3.94074e-08
9.55492e-32
1.02706e-30
5.84321e-30
2.45791e-29
9.48563e-29
3.90903e-28
1.71798e-27
7.94035e-27
4.97551e-26
4.51306e-25
2.19344e-25
1.85218e-24
1.72205e-23
1.02225e-22
4.60747e-22
1.46416e-21
3.60928e-21
9.17832e-21
4.07943e-20
4.5058e-19
4.93017e-18
6.97278e-14
1.70122e-11
2.1887e-32
2.31539e-31
1.34812e-30
6.264e-30
3.03778e-29
1.70019e-28
9.97653e-28
5.52867e-27
2.91007e-26
1.08371e-25
2.66463e-25
5.0843e-24
5.16863e-23
3.32791e-22
1.65579e-21
6.0603e-21
1.98227e-20
7.97124e-20
4.36238e-19
3.44483e-18
3.43569e-17
2.09946e-16
1.52526e-15
2.55893e-34
2.52549e-33
1.62696e-32
1.5864e-31
2.80391e-30
4.2065e-29
3.82175e-28
2.0253e-27
6.40305e-27
3.83789e-26
8.78667e-25
1.30551e-23
1.3496e-22
9.05239e-22
4.64447e-21
1.8524e-20
6.88985e-20
3.54216e-19
2.34635e-18
1.82961e-17
2.77547e-16
2.29373e-15
9.75835e-15
4.96994e-37
6.63453e-36
1.03727e-34
7.02706e-33
7.41644e-31
2.75342e-29
4.46967e-28
4.05571e-27
2.42332e-26
1.60605e-25
3.05068e-24
4.09759e-23
3.98865e-22
2.68959e-21
1.40993e-20
6.25902e-20
2.92884e-19
1.81739e-18
1.18317e-17
5.66757e-17
8.33365e-16
7.23189e-15
2.43306e-14
5.44034e-40
3.90008e-38
6.09875e-36
1.01248e-33
3.92438e-31
2.84694e-29
6.56304e-28
8.07085e-27
6.8275e-26
5.36815e-25
8.53579e-24
1.12968e-22
1.06069e-21
7.12391e-21
3.87773e-20
2.00325e-19
1.2197e-18
8.81048e-18
5.81677e-17
2.91228e-16
1.05891e-15
2.99651e-15
6.78132e-15
1.15128e-40
8.54424e-38
2.16666e-35
3.95537e-33
6.66755e-31
4.0423e-29
9.68852e-28
1.38568e-26
1.51264e-25
1.57708e-24
2.16991e-23
2.3786e-22
1.986e-21
1.24907e-20
6.41066e-20
2.84041e-19
1.12846e-18
4.0881e-18
1.35975e-17
4.08732e-17
1.13028e-16
3.03823e-16
8.34998e-16
5.72522e-40
3.89016e-37
8.71621e-35
1.64791e-32
1.31214e-30
4.64424e-29
9.84567e-28
1.52005e-26
1.95871e-25
2.34922e-24
2.81856e-23
2.5898e-22
1.73973e-21
8.75227e-21
3.61666e-20
1.28237e-19
3.98191e-19
1.11721e-18
2.99258e-18
7.96294e-18
2.08586e-17
5.34233e-17
1.32697e-16
2.83919e-39
1.69857e-36
3.20592e-34
2.37775e-32
9.3683e-31
2.41062e-29
4.5407e-28
6.9442e-27
9.37382e-26
1.12489e-24
1.1684e-23
9.23067e-23
5.30042e-22
2.35236e-21
8.31501e-21
2.40221e-20
6.03694e-20
1.38768e-19
3.05603e-19
6.68906e-19
1.45794e-18
3.21712e-18
7.50368e-18
5.40094e-39
1.1223e-36
9.15077e-35
4.22315e-33
1.3028e-31
2.93691e-30
5.28221e-29
7.95376e-28
1.02314e-26
1.10069e-25
9.3846e-25
6.25248e-24
3.36272e-23
1.50425e-22
5.56657e-22
1.78506e-21
5.24193e-21
1.46158e-20
3.85868e-20
9.7315e-20
2.36385e-19
5.45247e-19
1.17394e-18
6.92175e-40
9.15706e-38
5.99167e-36
2.55155e-34
7.62158e-33
1.68175e-31
2.88336e-30
3.97743e-29
4.47651e-28
4.16622e-27
3.26694e-26
2.21828e-25
1.32642e-24
6.85972e-24
3.09847e-23
1.24012e-22
4.36405e-22
1.3905e-21
4.09136e-21
1.12544e-20
2.94155e-20
7.18235e-20
1.59261e-19
1.9508e-41
2.9749e-39
2.07441e-37
8.77473e-36
2.55981e-34
5.59755e-33
9.57523e-32
1.3292e-30
1.53301e-29
1.49805e-28
1.2807e-27
9.60735e-27
6.27011e-26
3.62167e-25
1.8786e-24
8.69495e-24
3.60421e-23
1.341e-22
4.5754e-22
1.44491e-21
4.16619e-21
1.06692e-20
2.42925e-20
1.04015e-42
1.38995e-40
8.84654e-39
3.61535e-37
1.07452e-35
2.4714e-34
4.55643e-33
6.86888e-32
8.63159e-31
9.27027e-30
8.53343e-29
6.75567e-28
4.7084e-27
2.88573e-26
1.55394e-25
7.45365e-25
3.24266e-24
1.28824e-23
4.65912e-23
1.52489e-22
4.52627e-22
1.21303e-21
2.96604e-21
1.62868e-44
2.50193e-42
1.82304e-40
8.41029e-39
2.76555e-37
6.90926e-36
1.37221e-34
2.23161e-33
3.03885e-32
3.4899e-31
3.41418e-30
2.93745e-29
2.23961e-28
1.5062e-27
8.92702e-27
4.6931e-26
2.22279e-25
9.53759e-25
3.68708e-24
1.29339e-23
4.12436e-23
1.20624e-22
3.29052e-22
5.82168e-46
8.3506e-44
5.74471e-42
2.54706e-40
8.18897e-39
2.03383e-37
4.0616e-36
6.72502e-35
9.46651e-34
1.15866e-32
1.24681e-31
1.16313e-30
9.36304e-30
6.68e-29
4.26444e-28
2.41956e-27
1.22679e-26
5.63562e-26
2.37408e-25
9.22929e-25
3.2876e-24
1.07796e-23
3.33878e-23
6.65502e-48
1.00166e-45
7.27508e-44
3.42698e-42
1.18281e-40
3.20119e-39
7.08554e-38
1.31689e-36
2.08475e-35
2.8206e-34
3.26663e-33
3.258e-32
2.85455e-31
2.21144e-30
1.52607e-29
9.60049e-29
5.55126e-28
2.9338e-27
1.40956e-26
6.10073e-26
2.42291e-25
9.0312e-25
3.16516e-24
7.77039e-50
1.28553e-47
1.02524e-45
5.2834e-44
1.977e-42
5.71143e-41
1.32287e-39
2.52438e-38
4.05884e-37
5.61787e-36
6.85051e-35
7.51024e-34
7.43466e-33
6.61804e-32
5.3094e-31
3.79994e-30
2.40838e-29
1.37685e-28
7.23752e-28
3.53851e-27
1.61909e-26
6.86733e-26
2.67553e-25
6.3069e-52
1.09844e-49
9.26083e-48
5.07801e-46
2.04346e-44
6.44776e-43
1.66259e-41
3.59905e-40
6.65543e-39
1.06329e-37
1.47629e-36
1.79092e-35
1.90646e-34
1.8011e-33
1.5256e-32
1.17767e-31
8.44109e-31
5.61639e-30
3.44241e-29
1.93455e-28
9.88664e-28
4.65896e-27
2.02705e-26
4.39486e-54
8.26815e-52
7.5218e-50
4.45115e-48
1.93093e-46
6.55335e-45
1.81286e-43
4.20333e-42
8.33164e-41
1.43314e-39
2.16867e-38
2.92258e-37
3.54946e-36
3.90777e-35
3.91382e-34
3.5645e-33
2.93414e-32
2.18115e-31
1.4769e-30
9.21339e-30
5.32281e-29
2.82575e-28
1.36866e-27
2.07161e-56
4.34057e-54
4.41267e-52
2.93211e-50
1.43449e-48
5.50596e-47
1.72394e-45
4.52126e-44
1.01319e-42
1.97191e-41
3.37669e-40
5.13592e-39
6.97003e-38
8.48412e-37
9.32484e-36
9.31675e-35
8.52603e-34
7.18514e-33
5.57337e-32
3.95974e-31
2.57155e-30
1.52776e-29
8.2784e-29
8.43689e-59
1.95754e-56
2.19948e-54
1.61595e-52
8.74509e-51
3.72049e-49
1.29615e-47
3.80144e-46
9.57109e-45
2.09754e-43
4.04298e-42
6.92418e-41
1.06495e-39
1.48102e-38
1.86914e-37
2.14658e-36
2.24722e-35
2.14623e-34
1.8744e-33
1.50087e-32
1.10164e-31
7.3817e-31
4.49327e-30
2.61367e-61
6.79288e-59
8.58944e-57
7.12074e-55
4.35776e-53
2.09883e-51
8.27883e-50
2.74845e-48
7.83532e-47
1.94823e-45
4.27667e-44
8.35889e-43
1.46366e-41
2.30954e-40
3.30251e-39
4.29804e-38
5.10734e-37
5.55453e-36
5.53195e-35
5.04135e-34
4.19666e-33
3.18174e-32
2.18692e-31
6.05247e-64
1.79777e-61
2.59027e-59
2.44922e-57
1.71066e-55
9.41108e-54
4.2444e-52
1.61235e-50
5.2603e-49
1.49569e-47
3.74997e-46
8.37128e-45
1.67738e-43
3.03478e-42
4.97864e-41
7.43129e-40
1.01186e-38
1.25881e-37
1.4321e-36
1.48966e-35
1.41415e-34
1.22043e-33
9.52526e-33
1.05247e-66
3.58244e-64
5.93356e-62
6.45814e-60
5.19594e-58
3.2947e-56
1.71357e-54
7.51056e-53
2.82909e-51
9.29521e-50
2.69459e-48
6.9541e-47
1.60917e-45
3.35842e-44
6.35236e-43
1.0929e-41
1.71468e-40
2.45717e-39
3.2176e-38
3.8472e-37
4.19095e-36
4.14277e-35
3.69526e-34
1.24263e-69
4.98324e-67
9.67977e-65
1.23537e-62
1.16528e-60
8.66148e-59
5.27869e-57
2.70903e-55
1.19348e-53
4.58026e-52
1.54908e-50
4.66056e-49
1.25675e-47
3.05543e-46
6.72793e-45
1.34643e-43
2.45503e-42
4.08436e-41
6.20211e-40
8.58834e-39
1.08184e-37
1.23428e-36
1.2677e-35
9.39622e-73
4.54689e-70
1.05611e-67
1.60818e-65
1.80809e-63
1.60138e-61
1.16291e-59
7.10869e-58
3.72688e-56
1.69965e-54
6.81875e-53
2.42874e-51
7.73845e-50
2.21907e-48
5.75472e-47
1.35451e-45
2.90092e-44
5.6613e-43
1.00702e-41
1.63089e-40
2.3984e-39
3.18806e-38
3.80536e-37
3.96943e-76
2.43548e-73
6.95508e-71
1.29081e-68
1.76265e-66
1.89348e-64
1.66813e-62
1.23893e-60
7.90924e-59
4.39592e-57
2.14571e-55
9.26477e-54
3.5636e-52
1.22877e-50
3.81827e-49
1.07366e-47
2.73997e-46
6.35784e-45
1.34203e-43
2.57414e-42
4.47414e-41
7.01263e-40
9.84224e-39
8.27574e-80
6.9456e-77
2.49132e-74
5.65977e-72
9.36123e-70
1.21415e-67
1.29693e-65
1.18132e-63
9.37807e-62
6.57028e-60
4.08251e-58
2.24923e-56
1.0975e-54
4.7487e-53
1.82948e-51
6.31416e-50
1.964e-48
5.52746e-47
1.41e-45
3.25852e-44
6.80572e-43
1.27825e-41
2.14269e-40
9.2398e-84
1.20939e-80
5.62004e-78
1.58846e-75
3.24252e-73
5.17947e-71
6.77161e-69
7.49197e-67
7.176e-65
6.06069e-63
4.58035e-61
3.12539e-59
1.93096e-57
1.07857e-55
5.41757e-54
2.42993e-52
9.69205e-51
3.44175e-49
1.09398e-47
3.12682e-46
8.0382e-45
1.85065e-43
3.78702e-42
2.35481e-87
4.59767e-84
2.55742e-81
8.24146e-79
1.88527e-76
3.34896e-74
4.84158e-72
5.87783e-70
6.14845e-68
5.66225e-66
4.68223e-64
3.53685e-62
2.46707e-60
1.59745e-58
9.61803e-57
5.37698e-55
2.77358e-53
1.30325e-51
5.48836e-50
2.04957e-48
6.77662e-47
1.98302e-45
5.12061e-44
5.65413e-90
9.77607e-87
5.13288e-84
1.57377e-81
3.40914e-79
5.71133e-77
7.82519e-75
9.08182e-73
9.17106e-71
8.23232e-69
6.6851e-67
4.99402e-65
3.48841e-63
2.30582e-61
1.45354e-59
8.78182e-58
5.09573e-56
2.83681e-54
1.50587e-52
7.5026e-51
3.41622e-49
1.38066e-47
4.80588e-46
4.00844e-92
4.83566e-89
2.19731e-86
6.07925e-84
1.20457e-81
1.85888e-79
2.3591e-77
2.55265e-75
2.41563e-73
2.03853e-71
1.55857e-69
1.09429e-67
7.15319e-66
4.41617e-64
2.61005e-62
1.49793e-60
8.46081e-59
4.75763e-57
2.68434e-55
1.52202e-53
8.58812e-52
4.69908e-50
2.38116e-48
8.53494e-95
9.96312e-92
4.57844e-89
1.29121e-86
2.60804e-84
4.08884e-82
5.22603e-80
5.63941e-78
5.27282e-76
4.35887e-74
3.23895e-72
2.19407e-70
1.372e-68
8.02348e-67
4.45265e-65
2.37721e-63
1.23796e-61
6.38353e-60
3.31427e-58
1.76446e-56
9.81382e-55
5.78937e-53
3.6129e-51
0.979259
0.417004
0.0316839
0.0291791
0.969061
0.881388
0.606823
0.365735
0.773601
0.814742
0.787964
0.718299
0.288646
0.412142
0.519995
0.578992
0.0375762
0.0730794
0.133286
0.217087
0.0135788
0.0243008
0.0373321
0.0571837
0.0021773
0.0044115
0.00892505
0.019515
0.000220395
0.000507235
0.00123742
0.00342308
1.14374e-05
3.07515e-05
8.55795e-05
0.000264309
1.24868e-07
4.21917e-07
1.34423e-06
5.39482e-06
1.28392e-10
8.46039e-10
9.44062e-09
2.71798e-11
4.51566e-15
6.87405e-14
9.26311e-13
3.6564e-11
3.63158e-14
8.62593e-14
1.17436e-13
1.34103e-13
4.76679e-14
7.18364e-14
1.35639e-13
2.38816e-13
1.48166e-14
2.60676e-14
5.07692e-14
9.30094e-14
2.36286e-15
4.42742e-15
8.09155e-15
1.41013e-14
3.31504e-16
5.63746e-16
9.44141e-16
1.54415e-15
1.80395e-17
2.96185e-17
4.82237e-17
7.64745e-17
2.37335e-18
3.40086e-18
4.77646e-18
6.48356e-18
3.25417e-19
4.64116e-19
6.41496e-19
8.51202e-19
5.11454e-20
7.45652e-20
1.04798e-19
1.42016e-19
6.81306e-21
1.05624e-20
1.57793e-20
2.26903e-20
8.47386e-22
1.41836e-21
2.27767e-21
3.48237e-21
9.71801e-23
1.75363e-22
3.00847e-22
4.86166e-22
1.02236e-23
1.96622e-23
3.57183e-23
6.10114e-23
9.56573e-25
1.97355e-24
3.82733e-24
6.95738e-24
8.01766e-26
1.7804e-25
3.70634e-25
7.20694e-25
6.01488e-27
1.44857e-26
3.26009e-26
6.8393e-26
4.0599e-28
1.06669e-27
2.613e-27
5.94972e-27
2.4706e-29
7.12526e-29
1.91104e-28
4.75073e-28
1.3548e-30
4.31475e-30
1.27492e-29
3.48191e-29
6.68371e-32
2.36536e-31
7.74813e-31
2.33944e-30
2.95523e-33
1.17049e-32
4.28063e-32
1.43902e-31
1.1639e-34
5.20143e-34
2.14102e-33
8.07768e-33
4.04727e-36
2.06106e-35
9.6407e-35
4.12072e-34
1.22635e-37
7.20068e-37
3.87228e-36
1.89652e-35
3.1751e-39
2.18302e-38
1.36982e-37
7.796e-37
6.81186e-41
5.59679e-40
4.1782e-39
2.81407e-38
1.15392e-42
1.16809e-41
1.06778e-40
8.74309e-40
1.41764e-44
1.84029e-43
2.13652e-42
2.19825e-41
1.04378e-46
1.96844e-45
3.25393e-44
4.64985e-43
2.26656e-49
6.34537e-48
1.61699e-46
3.63722e-45
0.0129829
0.00128443
0.00019945
1.86479e-06
1.23958e-07
5.55458e-07
6.78081e-05
0.00810848
0.0326344
0.0601001
0.0652367
0.0409626
0.0062522
0.000543134
1.6298e-05
3.13072e-05
4.52013e-05
3.46293e-05
4.26132e-06
0.128802
0.0172736
0.00772978
0.00138825
0.000110352
0.000330884
0.00448672
0.0322808
0.0583194
0.0654773
0.0652988
0.01985
0.00160376
6.2015e-05
1.33478e-06
1.0099e-05
2.58185e-05
1.86849e-05
2.95435e-06
0.401968
0.102033
0.0632539
0.0230678
0.00815412
0.0162414
0.0426483
0.0651784
0.0691742
0.0704882
0.041253
0.00437434
8.49719e-05
1.423e-06
3.94328e-08
1.66387e-06
1.1891e-05
1.38231e-05
2.96602e-06
0.527966
0.306704
0.148463
0.0619406
0.0674428
0.0766753
0.088973
0.0866716
0.0769804
0.0723945
0.0245836
0.00134415
3.01657e-06
3.61437e-08
3.2527e-08
8.19989e-08
4.47894e-06
8.54205e-06
2.25309e-06
0.341782
0.343887
0.281259
0.202562
0.171665
0.152663
0.126411
0.0979618
0.0824537
0.0483492
0.00767493
0.000157398
2.47605e-07
1.1786e-07
3.23022e-08
8.34346e-09
1.04754e-06
4.23127e-06
1.45485e-06
0.134596
0.248174
0.261489
0.243152
0.206628
0.164861
0.117209
0.0864797
0.0592181
0.015939
0.00100587
5.34181e-06
2.14468e-07
1.76095e-07
3.6199e-08
2.57231e-09
1.3353e-07
1.59283e-06
8.48012e-07
0.0628612
0.129588
0.184311
0.186314
0.165773
0.121363
0.0747975
0.0524095
0.0223667
0.0024933
3.63315e-05
1.88145e-07
1.0475e-07
1.08502e-07
3.25293e-08
2.59119e-09
8.2402e-09
4.58748e-07
3.55004e-07
0.0251324
0.0699435
0.103472
0.099766
0.0778423
0.0491129
0.0334538
0.0169876
0.00289873
0.000106073
3.03984e-07
9.28295e-08
3.18842e-08
3.38158e-08
1.9534e-08
2.66473e-09
2.43983e-10
1.18662e-07
1.27561e-07
0.00540487
0.0222165
0.0304274
0.026452
0.0178309
0.0124442
0.00653122
0.00147084
8.67423e-05
1.1036e-06
7.08099e-08
3.09109e-08
6.72987e-09
6.35478e-09
8.72177e-09
1.92699e-09
1.03458e-10
3.03993e-08
4.8211e-08
0.000379895
0.00226147
0.00246802
0.00227357
0.00142628
0.000746085
0.000207443
1.83191e-05
3.27265e-07
1.19631e-07
1.64197e-08
7.10543e-09
1.01145e-09
9.56421e-10
2.87291e-09
9.53762e-10
7.20954e-11
8.05454e-09
2.21847e-08
1.25501e-05
0.000145528
0.000116677
4.06826e-05
1.05634e-05
7.40987e-07
6.18102e-09
9.32347e-09
3.4579e-08
1.79208e-08
2.61274e-09
1.1247e-09
1.09822e-10
1.19768e-10
6.26736e-10
3.36127e-10
3.62867e-11
2.96369e-09
1.23716e-08
3.66362e-08
5.09456e-07
4.23459e-07
9.28677e-08
1.91909e-09
5.77146e-11
5.39235e-10
2.0424e-09
3.71895e-09
1.62537e-09
2.67319e-10
1.22653e-10
8.07588e-12
1.19847e-11
8.57502e-11
1.00214e-10
1.96433e-11
1.29557e-09
7.4759e-09
1.4776e-13
6.25498e-13
3.23857e-12
9.44879e-12
1.41272e-11
3.67974e-11
6.6185e-11
2.27035e-10
2.82239e-10
1.07363e-10
1.80246e-11
9.42702e-12
4.06962e-13
9.97251e-13
7.02383e-12
1.93815e-11
8.42056e-12
4.0803e-10
4.40792e-09
3.94357e-13
9.52004e-13
2.46601e-12
4.56848e-12
8.36818e-12
1.01188e-11
6.65996e-12
1.46566e-11
1.51522e-11
5.12322e-12
8.30178e-13
5.06476e-13
3.97644e-14
1.46683e-13
5.18103e-13
2.43258e-12
3.78397e-12
5.9063e-11
2.3465e-09
1.64183e-13
4.09497e-13
8.9457e-13
1.54552e-12
2.07373e-12
1.62416e-12
5.66288e-13
6.21829e-13
5.80475e-13
1.74047e-13
2.82119e-14
2.44634e-14
2.72155e-14
9.62375e-14
2.54475e-13
1.21276e-12
1.89162e-12
4.77633e-12
1.0271e-09
2.38529e-14
6.08548e-14
1.44079e-13
2.35696e-13
2.74596e-13
1.62057e-13
3.89806e-14
1.75279e-14
1.5651e-14
4.44913e-15
2.11578e-15
6.42901e-15
2.53104e-14
8.91684e-14
2.50297e-13
7.21884e-13
1.1018e-12
2.93296e-12
3.15457e-10
2.49041e-15
5.79147e-15
1.21621e-14
1.79796e-14
1.85659e-14
9.65147e-15
2.07952e-15
3.88959e-16
3.62275e-16
3.51702e-16
1.31444e-15
5.41245e-15
2.30378e-14
8.29579e-14
2.46815e-13
5.75445e-13
7.90831e-13
2.19032e-12
5.63569e-11
1.1594e-16
2.31045e-16
3.66311e-16
3.99056e-16
5.54858e-16
3.445e-16
1.09825e-16
2.86803e-17
5.42932e-17
2.28505e-16
1.08863e-15
4.71545e-15
2.0672e-14
7.70842e-14
2.40501e-13
5.49703e-13
6.94074e-13
1.91562e-12
1.20926e-11
8.41809e-18
1.32315e-17
1.77023e-17
2.07964e-17
2.16146e-17
1.81592e-17
1.16321e-17
1.02866e-17
3.48757e-17
1.78108e-16
8.85873e-16
4.02219e-15
1.83422e-14
7.18845e-14
2.32736e-13
5.45442e-13
7.01357e-13
1.88053e-12
1.05007e-11
1.09076e-18
1.71397e-18
2.40124e-18
3.02973e-18
3.3299e-18
2.98499e-18
2.671e-18
5.14943e-18
2.48947e-17
1.37197e-16
7.10929e-16
3.38608e-15
1.63043e-14
6.77042e-14
2.23813e-13
5.34157e-13
7.69471e-13
2.02532e-12
1.00342e-11
1.86917e-19
3.07161e-19
4.48138e-19
5.78573e-19
6.57682e-19
6.64176e-19
8.73969e-19
3.05651e-18
1.80488e-17
1.05653e-16
5.6935e-16
2.87336e-15
1.46177e-14
6.37789e-14
2.12717e-13
5.18299e-13
8.58124e-13
2.18376e-12
9.63437e-12
3.152e-20
5.60118e-20
8.59582e-20
1.15255e-19
1.38854e-19
1.65381e-19
3.63863e-19
1.99205e-18
1.31547e-17
8.18469e-17
4.56661e-16
2.47745e-15
1.32895e-14
5.88907e-14
1.99365e-13
4.9316e-13
8.79455e-13
2.25009e-12
9.08981e-12
5.0713e-21
9.59668e-21
1.55363e-20
2.20747e-20
2.91923e-20
4.64559e-20
1.85391e-19
1.33644e-18
9.66483e-18
6.39449e-17
3.70679e-16
2.22878e-15
1.23939e-14
5.51405e-14
1.87086e-13
4.51868e-13
8.03194e-13
2.20677e-12
8.43231e-12
7.4023e-22
1.49677e-21
2.60186e-21
4.00434e-21
6.14396e-21
1.58709e-20
1.0588e-19
8.99964e-19
7.11692e-18
5.02942e-17
3.12625e-16
2.06003e-15
1.17595e-14
5.30347e-14
1.79139e-13
4.17008e-13
6.84589e-13
2.05364e-12
7.62745e-12
9.78848e-23
2.14207e-22
4.04877e-22
6.90661e-22
1.37665e-21
6.58912e-21
6.20794e-20
5.99182e-19
5.20299e-18
3.95803e-17
2.7476e-16
1.88672e-15
1.1133e-14
5.1337e-14
1.74562e-13
4.01127e-13
6.2032e-13
1.77984e-12
6.64755e-12
1.18163e-23
2.82198e-23
5.86349e-23
1.15587e-22
3.58222e-22
3.03838e-21
3.57524e-20
3.90906e-19
3.76688e-18
3.13025e-17
2.40051e-16
1.73219e-15
1.05937e-14
5.03156e-14
1.7296e-13
3.97053e-13
6.07036e-13
1.49042e-12
5.50444e-12
1.30785e-24
3.43997e-24
7.95863e-24
1.96568e-23
1.10398e-22
1.4234e-21
1.99524e-20
2.49877e-19
2.71837e-18
2.52004e-17
2.10636e-16
1.6058e-15
1.02417e-14
5.03838e-14
1.76498e-13
4.07333e-13
6.23362e-13
1.23891e-12
4.24309e-12
1.33466e-25
3.88849e-25
1.0236e-24
3.59203e-24
3.69761e-23
6.36866e-22
1.05589e-20
1.53866e-19
1.92818e-18
2.03856e-17
1.85202e-16
1.49978e-15
1.00364e-14
5.13548e-14
1.85113e-13
4.36771e-13
6.69828e-13
1.07301e-12
3.08258e-12
1.25671e-26
4.08446e-26
1.2663e-25
7.13502e-25
1.20307e-23
2.60003e-22
5.14105e-21
8.87298e-20
1.30893e-18
1.61511e-17
1.63504e-16
1.40707e-15
9.92993e-15
5.30155e-14
1.98211e-13
4.86774e-13
7.61734e-13
1.00457e-12
2.26478e-12
1.09257e-27
3.99158e-27
1.52034e-26
1.43191e-25
3.47387e-24
9.21741e-23
2.19688e-21
4.56058e-20
8.06962e-19
1.18855e-17
1.4175e-16
1.32695e-15
9.84467e-15
5.48793e-14
2.12959e-13
5.4393e-13
9.05461e-13
1.01761e-12
1.83673e-12
8.77409e-29
3.62897e-28
1.74812e-27
2.6035e-26
8.31998e-25
2.68973e-23
7.76817e-22
1.95515e-20
4.19475e-19
7.47252e-18
1.07067e-16
1.18683e-15
9.7386e-15
5.62768e-14
2.23483e-13
5.87654e-13
1.05302e-12
1.07414e-12
1.65826e-12
6.50081e-30
3.05586e-29
1.84401e-28
3.90067e-27
1.55566e-25
6.06378e-24
2.10964e-22
6.40536e-21
1.6591e-19
3.5666e-18
6.14955e-17
8.14654e-16
7.86397e-15
5.19323e-14
2.21176e-13
5.99608e-13
1.08983e-12
1.17647e-12
1.64575e-12
4.43886e-31
2.37052e-30
1.70048e-29
4.54481e-28
2.17818e-26
1.00687e-24
4.14939e-23
1.49183e-21
4.57573e-20
1.16484e-18
2.37953e-17
3.74134e-16
4.29563e-15
3.36947e-14
1.68684e-13
5.21171e-13
1.03105e-12
1.33172e-12
1.67327e-12
2.78729e-32
1.68717e-31
1.33422e-30
4.00412e-29
2.235e-27
1.2029e-25
5.75125e-24
2.39012e-22
8.44424e-21
2.47206e-19
5.8177e-18
1.06124e-16
1.43583e-15
1.3668e-14
8.58683e-14
3.35792e-13
8.1364e-13
1.32597e-12
1.63783e-12
1.60432e-33
1.10169e-32
8.98191e-32
2.66642e-30
1.68235e-28
1.03998e-26
5.68342e-25
2.68254e-23
1.07015e-21
3.52444e-20
9.32649e-19
1.92383e-17
2.99119e-16
3.3724e-15
2.6387e-14
1.36488e-13
4.57243e-13
9.86078e-13
1.36802e-12
8.42243e-35
6.61199e-34
5.39835e-33
1.36412e-31
9.34466e-30
6.59501e-28
4.10034e-26
2.18864e-24
9.8285e-23
3.63093e-21
1.07749e-19
2.50534e-18
4.44517e-17
5.86567e-16
5.60077e-15
3.77121e-14
1.69525e-13
4.85861e-13
7.964e-13
4.0029e-36
3.64387e-35
3.05305e-34
5.67361e-33
3.88883e-31
3.13254e-29
2.23032e-27
1.35734e-25
6.92325e-24
2.90083e-22
9.78517e-21
2.60704e-19
5.38608e-18
8.34335e-17
9.46003e-16
7.64323e-15
4.25854e-14
1.55306e-13
2.90955e-13
1.69937e-37
1.82591e-36
1.6624e-35
2.12257e-34
1.18698e-32
1.08376e-30
8.98017e-29
6.35676e-27
3.77016e-25
1.84128e-23
7.24431e-22
2.22059e-20
5.22016e-19
9.24658e-18
1.21058e-16
1.14509e-15
7.60167e-15
3.35483e-14
6.92968e-14
6.36495e-39
8.25489e-38
8.67661e-37
8.92421e-36
2.99279e-34
2.92725e-32
2.85661e-30
2.39329e-28
1.68791e-26
9.63002e-25
4.32525e-23
1.50932e-21
4.03496e-20
8.13972e-19
1.21823e-17
1.32483e-16
1.01682e-15
5.19875e-15
1.16234e-14
1.98667e-40
3.1915e-39
4.04653e-38
4.16546e-37
6.32707e-36
4.96306e-34
5.94485e-32
6.29258e-30
5.46847e-28
3.71825e-26
1.96484e-24
7.99033e-23
2.47153e-21
5.73827e-20
9.8469e-19
1.22401e-17
1.06871e-16
6.15245e-16
1.47118e-15
5.67711e-42
1.17816e-40
1.83902e-39
2.18129e-38
2.32188e-37
8.37251e-36
1.07671e-33
1.40798e-31
1.45708e-29
1.17461e-27
7.31884e-26
3.48854e-24
1.25675e-22
3.37565e-21
6.65354e-20
9.42244e-19
9.26957e-18
5.90381e-17
1.49362e-16
6.9496e-44
2.25835e-42
5.18455e-41
8.39656e-40
9.7594e-39
1.09948e-37
8.17206e-36
1.55885e-33
2.21094e-31
2.32382e-29
1.83423e-27
1.08655e-25
4.79198e-24
1.55387e-22
3.64336e-21
6.03447e-20
6.79812e-19
4.81391e-18
1.28003e-17
)
;

boundaryField
{
    leftWall
    {
        type            zeroGradient;
    }
    rightWall
    {
        type            zeroGradient;
    }
    lowerWall
    {
        type            zeroGradient;
    }
    atmosphere
    {
        type            inletOutlet;
        inletValue      uniform 0;
        value           nonuniform List<scalar> 
46
(
0
0
0
0
0
0
0
0
0
0
0
0
0
0
0
0
0
0
0
0
0
0
0
0
0
0
0
0
0
0
0
0
0
8.17206e-36
1.55885e-33
2.21094e-31
2.32382e-29
1.83423e-27
1.08655e-25
4.79198e-24
1.55387e-22
3.64336e-21
6.03447e-20
6.79812e-19
4.81391e-18
1.28003e-17
)
;
    }
    defaultFaces
    {
        type            empty;
    }
}


// ************************************************************************* //
