/*--------------------------------*- C++ -*----------------------------------*\
| =========                 |                                                 |
| \\      /  F ield         | OpenFOAM: The Open Source CFD Toolbox           |
|  \\    /   O peration     | Version:  2.4.0                                 |
|   \\  /    A nd           | Web:      www.OpenFOAM.org                      |
|    \\/     M anipulation  |                                                 |
\*---------------------------------------------------------------------------*/
FoamFile
{
    version     2.0;
    format      ascii;
    class       volScalarField;
    location    "0.35";
    object      alpha.oil;
}
// * * * * * * * * * * * * * * * * * * * * * * * * * * * * * * * * * * * * * //

dimensions      [0 0 0 0 0 0 0];

internalField   nonuniform List<scalar> 
2268
(
1.35247e-25
1.83031e-24
1.24478e-23
1.40021e-22
3.08205e-22
4.74647e-21
4.81432e-21
1.61544e-20
2.98929e-17
3.4965e-14
9.22623e-12
1.15901e-10
6.02709e-10
1.77394e-09
3.44403e-09
5.05578e-09
6.50813e-09
9.12195e-09
1.39896e-08
3.37388e-08
2.40184e-07
6.81753e-06
4.43912e-05
5.88516e-24
7.4831e-23
4.86031e-22
4.94272e-21
1.15329e-20
1.18003e-19
1.43264e-19
4.30003e-19
2.53125e-16
2.09104e-13
4.98429e-11
5.98381e-10
3.24423e-09
9.6133e-09
1.73874e-08
2.3253e-08
2.66383e-08
3.19015e-08
4.26467e-08
7.63285e-08
2.9522e-07
6.94404e-06
4.95149e-05
1.25475e-22
1.49778e-21
9.36024e-21
8.53731e-20
2.07822e-19
1.46537e-18
2.08571e-18
5.66e-18
1.04937e-15
5.39216e-13
9.86839e-11
1.24765e-09
7.95204e-09
2.76925e-08
7.68649e-08
1.7539e-07
1.91727e-07
2.11024e-07
2.49795e-07
4.01748e-07
7.78387e-07
7.53402e-06
5.48763e-05
1.74635e-21
1.95703e-20
1.18525e-19
9.62783e-19
2.39986e-18
1.21739e-17
1.95703e-17
4.84073e-17
3.15644e-15
7.91077e-13
4.25476e-11
7.49687e-10
1.07468e-08
1.01974e-07
7.02568e-07
2.8985e-06
3.44886e-06
3.26925e-06
2.87644e-06
2.85074e-06
2.88268e-06
9.55805e-06
6.49586e-05
1.78307e-20
1.87702e-19
1.10982e-18
7.97406e-18
1.99915e-17
7.58051e-17
1.33247e-16
3.04954e-16
9.01414e-15
7.78363e-13
3.47611e-11
1.40153e-09
2.27623e-08
2.68664e-07
3.33621e-06
2.27477e-05
3.64386e-05
2.86156e-05
1.65661e-05
9.41521e-06
5.98919e-06
1.15739e-05
6.61195e-05
1.42299e-19
1.40753e-18
8.20307e-18
5.16171e-17
1.28632e-16
3.75956e-16
6.97914e-16
1.53342e-15
2.9499e-14
6.75414e-13
5.96549e-11
2.83096e-09
4.73588e-08
6.0723e-07
8.65193e-06
9.01311e-05
0.000353631
0.000656957
0.000368056
0.000106247
2.67198e-05
1.75218e-05
6.66701e-05
9.23194e-19
8.57898e-18
4.98082e-17
2.72303e-16
6.63187e-16
1.54974e-15
2.89162e-15
6.5434e-15
1.0771e-13
9.01704e-13
1.10006e-10
5.45361e-09
8.0221e-08
8.41331e-07
7.96275e-06
8.8271e-05
0.000479479
0.00199541
0.00339759
0.00179207
0.000318062
3.96925e-05
7.04932e-05
4.99972e-18
4.3625e-17
2.5493e-16
1.20825e-15
2.7753e-15
5.50377e-15
9.74502e-15
2.50317e-14
3.80912e-13
2.56779e-12
9.54607e-11
4.57179e-09
5.50197e-08
4.98293e-07
6.28256e-06
7.25477e-05
0.000461234
0.00220801
0.00838908
0.00930906
0.00225174
0.000175809
8.14706e-05
0.999796
0.999796
0.999775
0.999709
0.999644
0.999539
0.999237
0.997831
0.990871
0.966063
0.949085
0.949092
0.949069
0.949411
0.949411
0.954326
0.971697
0.988127
0.996456
0.999834
0.999929
0.999951
0.99996
0.999965
0.99994
0.999837
0.99928
0.996541
0.98712
0.949239
0.948731
0.949249
0.949069
0.964959
0.990396
0.995558
0.997303
0.991067
0.999898
0.999971
0.999975
0.999973
0.999967
0.999942
0.999836
0.99913
0.994936
0.981115
0.962365
0.948932
0.948703
0.960682
0.988581
0.997969
0.999171
0.998995
0.888957
0.999954
0.999982
0.999982
0.999982
0.999971
0.999928
0.999876
0.9991
0.993786
0.976694
0.955637
0.947851
0.954482
0.98389
0.996589
0.999413
0.999658
0.998824
0.885365
0.999975
0.999983
0.999974
0.999132
0.986715
0.982186
0.998803
0.999026
0.991367
0.970901
0.947292
0.937479
0.970222
0.9939
0.999157
0.999832
0.999767
0.959861
0.885365
0.99998
0.999983
0.999322
0.906294
0.391114
0.444102
0.8832
0.992962
0.986397
0.961569
0.919515
0.690867
0.765054
0.981556
0.999693
0.999901
0.999803
0.936979
0.936837
0.999982
0.999983
0.996588
0.193615
0.00130474
0.00133044
0.147469
0.866066
0.969635
0.9478
0.839717
0.261854
0.0425277
0.803798
0.996892
0.999901
0.999724
0.936821
0.986281
0.999982
0.999982
0.772207
0.00876396
0.000956328
0.000956489
0.00576356
0.525926
0.936185
0.936662
0.776102
0.207612
0.0135086
0.244859
0.970343
0.99981
0.998883
0.97804
0.99775
2.30671e-17
1.8883e-16
1.11823e-15
4.61812e-15
9.51166e-15
1.7185e-14
2.85077e-14
9.25872e-14
1.21595e-12
7.99125e-12
7.80309e-11
4.31247e-09
6.22442e-08
8.11496e-07
6.63808e-06
4.67836e-05
0.000293869
0.00177796
0.00962879
0.0227429
0.0190373
0.00588892
0.000816327
1.59632e-16
1.20997e-15
7.4004e-15
2.61404e-14
4.67162e-14
7.95867e-14
1.2961e-13
5.95942e-13
5.03037e-12
2.34314e-11
1.25814e-09
1.07421e-08
1.5143e-07
1.40388e-06
5.38068e-06
2.15561e-05
8.3788e-05
0.00043456
0.00328667
0.0141477
0.0353822
0.035641
0.0124715
9.70933e-16
6.68961e-15
4.17643e-14
1.19586e-13
1.87434e-13
3.04832e-13
4.86187e-13
3.66521e-12
2.26691e-10
3.81912e-09
9.69368e-08
4.21346e-07
1.10944e-06
4.34566e-06
1.06049e-05
2.8482e-05
4.81313e-05
0.000121717
0.000492071
0.00357967
0.0253483
0.0357404
0.0330895
5.00579e-15
3.19076e-14
2.0141e-13
4.6323e-13
6.45231e-13
1.0954e-12
1.55898e-12
2.67051e-11
1.44784e-08
1.14949e-07
8.77891e-07
2.1457e-05
0.000254675
0.00123227
0.0026384
0.00531207
0.00416161
0.00237984
0.00147623
0.00200993
0.00786361
0.0215674
0.0315343
2.21674e-14
1.33672e-13
8.19998e-13
1.55105e-12
1.89898e-12
3.60993e-12
3.73347e-12
4.08561e-10
1.94499e-07
2.18875e-05
0.000373686
0.00324482
0.0176968
0.0528923
0.0933165
0.137539
0.132291
0.10701
0.075024
0.0426839
0.0199387
0.0222179
0.0282775
8.60302e-14
5.11675e-13
2.88765e-12
4.51676e-12
4.43386e-12
4.48544e-11
5.76316e-10
4.10115e-07
0.000111979
0.00316624
0.0211731
0.0828786
0.224061
0.406052
0.546186
0.640811
0.674284
0.667331
0.610178
0.45461
0.264106
0.147973
0.0807945
2.99159e-13
1.89278e-12
1.05272e-11
3.36834e-11
1.06945e-10
4.72818e-09
1.29348e-07
7.63961e-05
0.00569736
0.0607447
0.210894
0.4555
0.722356
0.884174
0.946146
0.970962
0.98073
0.988145
0.985743
0.936815
0.791095
0.654925
0.469422
9.47173e-13
6.87437e-12
2.06974e-10
1.15814e-09
5.53627e-09
7.60206e-08
3.4692e-06
0.00107785
0.0402411
0.23714
0.531588
0.828171
0.955106
0.983
0.991379
0.996252
0.998643
0.999312
0.999312
0.999312
0.993493
0.980788
0.912459
2.68938e-12
2.21301e-11
9.12294e-10
7.47088e-09
4.54858e-08
3.35683e-07
1.60678e-05
0.00175227
0.0600291
0.280947
0.40212
0.388971
0.456883
0.586632
0.690491
0.801883
0.897867
0.952496
0.983984
0.992641
0.999122
0.999138
0.994289
6.2349e-12
6.17069e-11
3.01104e-09
3.31491e-08
1.64935e-07
1.20659e-06
5.91489e-05
0.00140474
0.000733348
0.000320229
0.000194517
0.000148618
0.000830518
0.00461472
0.0155628
0.0541117
0.148125
0.308648
0.524662
0.6656
0.875519
0.941497
0.969192
6.42009e-12
1.3386e-10
6.10681e-09
5.97995e-08
2.2662e-07
2.14019e-06
4.69324e-06
1.87499e-06
2.48567e-06
1.14622e-06
2.59537e-07
2.36935e-08
2.15453e-08
5.38484e-08
1.76114e-07
5.75611e-07
3.64551e-06
7.95634e-05
0.00151013
0.0102074
0.0992291
0.249537
0.403044
4.64663e-12
1.93736e-10
4.97874e-09
2.65363e-08
1.07529e-07
1.51917e-07
5.00124e-08
2.84055e-08
1.87057e-07
3.49984e-07
2.54026e-08
3.95537e-09
5.61626e-09
1.26748e-08
6.73967e-08
9.42629e-08
1.00928e-07
1.70669e-07
3.02024e-07
3.85369e-07
1.42987e-06
1.50797e-05
0.000230138
2.54361e-12
4.64074e-11
1.22754e-09
5.55394e-09
8.40399e-09
3.31919e-09
1.77525e-09
5.30813e-09
1.40393e-08
1.11545e-07
2.96185e-08
3.9487e-09
3.26185e-08
1.67222e-07
4.73007e-07
4.41734e-07
2.23947e-07
1.84819e-07
3.44657e-07
3.64485e-07
4.33064e-07
4.67773e-07
4.97289e-07
2.34093e-13
2.86227e-12
5.82297e-11
2.08978e-10
2.42075e-10
1.25288e-10
7.65938e-11
2.09659e-10
5.25118e-10
7.61335e-10
4.78003e-10
4.57195e-09
1.42549e-07
6.79809e-07
7.80098e-07
8.18002e-07
6.82827e-07
1.51645e-07
1.30797e-07
1.69809e-07
2.46495e-07
3.07197e-07
2.90911e-07
3.63129e-14
6.44112e-13
5.89969e-12
1.77571e-11
2.50664e-11
3.06305e-11
3.66209e-11
6.44908e-11
1.42627e-10
2.07546e-10
3.57209e-10
1.04968e-08
2.83761e-07
7.77127e-07
8.18002e-07
8.18002e-07
4.30156e-07
7.95332e-08
4.69448e-08
5.79406e-08
8.49696e-08
1.24233e-07
1.20201e-07
3.12341e-15
7.15276e-14
1.10859e-12
6.9553e-12
1.62642e-11
2.13985e-11
2.86258e-11
6.58019e-11
1.67543e-10
3.11867e-10
4.69364e-10
1.37438e-08
2.43026e-07
8.16479e-07
8.17945e-07
3.14326e-07
7.65509e-08
4.94878e-08
4.40913e-08
4.41201e-08
7.66459e-08
8.03061e-08
5.21236e-08
3.07321e-16
1.22724e-14
2.55096e-13
2.42546e-12
7.49789e-12
1.13791e-11
1.98836e-11
5.88867e-11
1.73238e-10
3.17138e-10
5.63655e-10
8.0916e-09
7.62151e-08
2.47052e-07
4.91551e-07
1.1546e-07
8.53069e-08
8.61542e-08
6.08705e-08
3.99971e-08
2.84516e-08
2.03215e-08
1.57743e-08
1.47653e-16
7.42377e-15
1.36792e-13
9.49857e-13
2.71522e-12
4.8297e-12
1.18919e-11
4.35136e-11
1.4077e-10
3.09593e-10
7.19528e-10
7.61124e-09
3.66312e-08
8.59152e-08
1.33179e-07
1.9009e-07
1.64529e-07
1.34963e-07
8.90196e-08
5.09188e-08
2.42748e-08
1.14911e-08
5.19242e-09
1.08554e-16
3.57551e-15
4.34328e-14
2.38481e-13
6.91314e-13
1.59356e-12
5.80336e-12
2.54159e-11
8.70202e-11
2.9345e-10
6.62216e-10
1.59437e-09
1.85658e-08
6.07921e-08
1.08419e-07
2.07383e-07
2.10883e-07
1.67678e-07
1.0934e-07
5.97682e-08
2.74252e-08
1.00938e-08
3.58518e-09
2.9874e-17
7.25617e-16
7.28798e-15
3.70852e-14
1.20496e-13
4.5356e-13
2.46553e-12
1.20828e-11
4.50727e-11
1.48707e-10
2.67902e-10
3.2557e-10
8.13906e-09
4.52089e-08
1.03867e-07
1.37688e-07
1.57394e-07
1.40099e-07
1.00516e-07
5.82015e-08
2.70424e-08
9.74933e-09
2.86203e-09
9.36522e-21
8.07672e-19
3.10393e-17
6.90277e-16
9.93248e-15
9.87194e-14
6.99321e-13
3.66357e-12
1.4724e-11
4.39034e-11
7.33833e-11
5.20524e-11
7.26956e-10
1.20739e-08
4.68203e-08
7.02507e-08
7.95461e-08
7.81798e-08
6.24334e-08
3.9562e-08
1.95934e-08
7.09063e-09
1.77607e-09
1.42587e-21
1.08217e-19
3.77954e-18
8.00764e-17
1.15337e-15
1.18712e-14
8.90932e-14
4.88323e-13
1.94115e-12
5.51593e-12
1.07063e-11
1.4627e-11
2.71576e-11
7.27116e-10
5.56974e-09
1.98143e-08
2.47205e-08
2.63846e-08
2.13084e-08
1.45807e-08
8.09942e-09
3.35723e-09
8.59926e-10
1.53123e-23
1.29007e-21
5.20314e-20
1.3124e-18
2.29279e-17
2.90315e-16
2.73512e-15
1.94042e-14
1.04313e-13
4.23327e-13
1.29861e-12
3.08812e-12
5.8144e-12
8.77164e-12
1.49453e-10
1.32574e-09
4.24537e-09
5.52225e-09
4.88431e-09
2.37877e-09
1.34468e-09
7.88671e-10
2.26962e-10
2.98133e-24
2.32283e-22
8.72118e-21
2.08742e-19
3.55185e-18
4.52044e-17
4.41458e-16
3.3576e-15
2.00722e-14
9.50474e-14
3.57111e-13
1.05367e-12
2.45078e-12
4.67947e-12
7.42522e-12
6.5852e-11
3.71624e-10
8.07185e-10
7.66332e-10
3.08073e-10
9.50915e-11
3.74373e-11
2.31618e-11
3.23102e-25
2.47853e-23
9.05468e-22
2.08943e-20
3.43062e-19
4.27562e-18
4.20793e-17
3.35127e-16
2.18856e-15
1.17546e-14
5.18968e-14
1.88593e-13
5.72663e-13
1.46885e-12
3.20289e-12
5.73662e-12
1.30019e-11
3.35961e-11
4.97105e-11
6.03573e-11
4.38845e-11
1.89066e-11
7.36529e-12
2.7389e-26
2.28819e-24
9.11722e-23
2.29102e-21
4.07416e-20
5.44003e-19
5.64783e-18
4.66645e-17
3.12224e-16
1.71788e-15
7.90181e-15
3.08308e-14
1.02548e-13
2.90589e-13
7.07673e-13
1.49823e-12
2.81066e-12
4.73662e-12
6.75625e-12
7.18909e-12
5.68253e-12
3.25866e-12
1.3054e-12
3.00413e-28
2.68009e-26
1.14302e-24
3.08872e-23
5.95199e-22
8.71405e-21
1.0079e-19
9.44902e-19
7.3051e-18
4.71331e-17
2.55514e-16
1.1693e-15
4.5223e-15
1.48512e-14
4.15203e-14
9.92713e-14
2.0395e-13
3.56944e-13
5.20153e-13
6.1101e-13
5.54664e-13
3.70375e-13
1.74681e-13
2.36091e-30
2.28293e-28
1.05445e-26
3.09097e-25
6.46996e-24
1.03022e-22
1.29783e-21
1.32766e-20
1.12259e-19
7.94289e-19
4.75083e-18
2.42259e-17
1.06256e-16
4.02362e-16
1.31553e-15
3.69764e-15
8.84185e-15
1.77701e-14
2.96635e-14
4.03666e-14
4.31662e-14
3.42918e-14
1.94166e-14
1.1262e-32
1.20786e-30
6.20531e-29
2.03253e-27
4.77426e-26
8.55591e-25
1.21463e-23
1.4006e-22
1.33618e-21
1.07024e-20
7.27954e-20
4.2369e-19
2.11511e-18
9.07463e-18
3.35231e-17
1.06594e-16
2.90943e-16
6.76925e-16
1.32165e-15
2.11119e-15
2.66544e-15
2.54036e-15
1.76406e-15
4.07338e-35
4.85505e-33
2.7661e-31
1.0059e-29
2.62623e-28
5.24479e-27
8.33235e-26
1.08101e-24
1.16628e-23
1.05956e-22
8.1788e-22
5.40689e-21
3.08375e-20
1.52279e-19
6.51039e-19
2.40429e-18
7.63138e-18
2.06333e-17
4.69236e-17
8.80422e-17
1.32255e-16
1.52631e-16
1.31905e-16
1.04213e-37
1.38942e-35
8.89354e-34
3.64397e-32
1.07477e-30
2.4296e-29
4.37535e-28
6.44231e-27
7.90214e-26
8.18878e-25
7.24443e-24
5.50938e-23
3.61689e-22
2.05573e-21
1.01316e-20
4.32572e-20
1.59392e-19
5.03322e-19
1.34578e-18
2.99143e-18
5.38366e-18
7.58645e-18
8.24898e-18
1.87008e-40
2.84388e-38
2.07064e-36
9.66527e-35
3.2518e-33
8.39864e-32
1.73124e-30
2.9233e-29
4.11849e-28
4.90679e-27
4.99434e-26
4.37717e-25
3.32245e-24
2.19142e-23
1.25725e-22
6.26798e-22
2.70651e-21
1.00574e-20
3.18345e-20
8.44999e-20
1.83868e-19
3.19147e-19
4.39523e-19
2.39569e-43
4.16895e-41
3.48257e-39
1.8683e-37
7.23374e-36
2.15306e-34
5.12229e-33
9.99909e-32
1.63174e-30
2.25693e-29
2.67322e-28
2.73206e-27
2.42229e-26
1.86985e-25
1.25902e-24
7.39286e-24
3.77613e-23
1.66888e-22
6.32439e-22
2.02661e-21
5.3839e-21
1.15984e-20
2.02912e-20
2.02813e-46
4.13586e-44
4.03432e-42
2.52894e-40
1.14504e-38
3.98945e-37
1.1122e-35
2.54656e-34
4.87874e-33
7.92975e-32
1.10512e-30
1.33132e-29
1.39476e-28
1.27589e-27
1.02133e-26
7.15634e-26
4.38127e-25
2.3331e-24
1.07199e-23
4.19616e-23
1.37458e-22
3.6991e-22
8.22334e-22
1.08314e-49
2.64765e-47
3.07384e-45
2.29132e-43
1.23388e-41
5.11771e-40
1.70088e-38
4.64902e-37
1.06452e-35
2.0703e-34
3.45629e-33
4.99483e-32
6.28858e-31
6.9297e-30
6.7026e-29
5.69584e-28
4.2475e-27
2.76853e-26
1.56522e-25
7.58145e-25
3.09327e-24
1.04575e-23
2.95094e-23
3.26103e-53
1.00013e-50
1.42118e-48
1.28886e-46
8.42977e-45
4.24765e-43
1.71791e-41
5.72838e-40
1.60528e-38
3.83107e-37
7.86007e-36
1.39685e-34
2.16439e-33
2.93934e-32
3.51112e-31
3.69531e-30
3.42428e-29
2.78355e-28
1.96951e-27
1.19768e-26
6.15416e-26
2.63026e-25
9.41455e-25
4.93603e-57
2.04806e-54
3.67444e-52
4.12347e-50
3.30902e-48
2.03843e-46
1.01016e-44
4.16561e-43
1.46157e-41
4.42309e-40
1.16251e-38
2.65983e-37
5.30456e-36
9.24348e-35
1.41216e-33
1.89752e-32
2.24483e-31
2.33119e-30
2.10832e-29
1.63863e-28
1.07542e-27
5.86252e-27
2.66555e-26
3.65128e-61
2.3085e-58
5.36066e-56
7.51087e-54
7.49171e-52
5.75979e-50
3.57093e-48
1.8453e-46
8.12433e-45
3.09967e-43
1.03862e-41
3.08115e-40
8.11494e-39
1.89606e-37
3.91518e-36
7.10428e-35
1.12673e-33
1.55451e-32
1.8542e-31
1.8903e-30
1.61837e-29
1.14254e-28
6.64488e-28
2.79782e-65
2.83065e-62
8.43541e-60
1.45129e-57
1.75573e-55
1.63051e-53
1.21675e-51
7.52226e-50
3.94959e-48
1.79821e-46
7.23398e-45
2.61314e-43
8.55986e-42
2.5535e-40
6.93766e-39
1.70914e-37
3.7764e-36
7.3455e-35
1.22866e-33
1.72885e-32
2.00832e-31
1.88974e-30
1.43115e-29
1.29341e-68
1.33844e-65
4.19611e-63
7.61144e-61
9.65262e-59
9.35965e-57
7.33392e-55
4.8093e-53
2.71163e-51
1.34325e-49
5.94968e-48
2.39521e-46
8.89772e-45
3.08042e-43
9.9857e-42
3.03189e-40
8.58048e-39
2.23797e-37
5.26949e-36
1.08215e-34
1.85071e-33
2.51572e-32
2.61591e-31
2.40662e-71
1.87228e-68
5.44513e-66
9.56874e-64
1.19567e-61
1.15575e-59
9.13005e-58
6.11348e-56
3.56036e-54
1.83914e-52
8.56014e-51
3.63682e-49
1.42807e-47
5.24543e-46
1.81995e-44
6.01674e-43
1.90605e-41
5.7892e-40
1.67351e-38
4.51698e-37
1.09547e-35
2.23789e-34
3.52504e-33
2.49317e-74
2.00403e-71
6.3307e-69
1.22477e-66
1.69397e-64
1.8156e-62
1.584e-60
1.16496e-58
7.41108e-57
4.16009e-55
2.09369e-53
9.57293e-52
4.02123e-50
1.56906e-48
5.75387e-47
2.00197e-45
6.66099e-44
2.1331e-42
6.60339e-41
1.97645e-39
5.67274e-38
1.52044e-36
3.54775e-35
0.00220803
0.0767283
0.401135
0.72483
0.00595771
0.0166236
0.0331673
0.354993
0.0240024
0.0247803
0.0286455
0.0643253
0.0369801
0.0393096
0.0425902
0.0502284
0.0338444
0.0378829
0.0423488
0.047102
0.0721639
0.0670742
0.0633709
0.0620924
0.333926
0.258319
0.192978
0.145951
0.807748
0.694405
0.559855
0.408993
0.980375
0.946343
0.879578
0.769339
0.983036
0.985308
0.985224
0.973766
0.53704
0.629107
0.683267
0.763781
0.00117399
0.0042133
0.00964543
0.0167821
4.53289e-07
3.26523e-07
2.04989e-07
1.18951e-07
1.42437e-07
4.18831e-08
3.49684e-08
3.95559e-08
5.788e-08
2.71118e-08
1.96624e-08
1.71137e-08
2.83774e-08
1.33403e-08
5.69082e-09
5.52834e-09
8.35874e-09
4.90437e-09
4.20593e-09
3.61576e-09
3.2641e-09
2.79843e-09
2.09242e-09
1.80541e-09
1.47937e-09
1.1089e-09
8.88372e-10
6.8224e-10
7.92516e-10
5.49576e-10
3.86919e-10
2.73237e-10
4.44071e-10
3.11527e-10
2.09965e-10
1.35261e-10
1.78165e-10
1.30198e-10
9.19781e-11
6.28847e-11
5.55878e-11
4.1842e-11
3.03175e-11
2.10497e-11
1.43334e-11
1.12168e-11
8.39517e-12
5.96379e-12
3.03343e-12
2.51165e-12
1.97455e-12
1.45894e-12
5.35873e-13
4.70778e-13
3.9076e-13
3.01735e-13
7.98224e-14
7.40578e-14
6.53691e-14
5.3106e-14
1.01326e-14
9.86808e-15
9.29772e-15
8.00324e-15
1.09895e-15
1.12391e-15
1.13637e-15
1.04501e-15
1.01795e-16
1.10404e-16
1.20583e-16
1.19509e-16
8.06354e-18
9.42528e-18
1.12178e-17
1.20956e-17
5.49176e-19
7.04355e-19
9.22803e-19
1.09299e-18
3.24183e-20
4.63981e-20
6.76486e-20
8.88941e-20
1.67243e-21
2.70941e-21
4.44504e-21
6.54773e-21
7.59166e-23
1.40877e-22
2.62988e-22
4.3917e-22
3.04445e-24
6.53317e-24
1.40365e-23
2.69058e-23
1.07829e-25
2.69833e-25
6.75397e-25
1.50747e-24
3.35597e-27
9.86057e-27
2.91334e-26
7.70423e-26
9.06845e-29
3.1459e-28
1.11316e-27
3.56804e-27
2.11124e-30
8.62987e-30
3.68952e-29
1.47368e-28
3.94901e-32
1.92843e-31
1.00977e-30
5.32921e-30
6.13401e-34
3.47252e-33
1.83118e-32
1.32476e-31
0.986318
0.998608
0.611103
0.0318803
0.000957629
0.000956474
0.0116442
0.410813
0.910714
0.925257
0.767207
0.241567
0.0101274
0.013907
0.629667
0.98912
0.998803
0.99802
0.999707
0.845655
0.981827
0.919559
0.349266
0.0409641
0.0405726
0.225183
0.790028
0.928761
0.909889
0.596127
0.104032
0.00331488
8.20379e-05
0.0729538
0.93412
0.998711
0.999954
0.999989
0.493436
0.88633
0.910802
0.872872
0.602227
0.590176
0.809509
0.923564
0.928853
0.882374
0.387151
0.0298234
0.00029007
2.99401e-06
0.000925985
0.479231
0.984363
0.999922
0.999996
0.222973
0.606588
0.821447
0.914433
0.915596
0.91552
0.908914
0.912311
0.920752
0.802548
0.251427
0.0123272
2.433e-05
2.99188e-06
4.06504e-06
0.0542671
0.951395
0.999797
0.999997
0.0986682
0.319501
0.576888
0.745946
0.798979
0.829286
0.86649
0.898866
0.897993
0.596776
0.107337
0.00224245
5.02578e-06
3.26479e-06
3.27412e-06
0.0106666
0.900818
0.999366
0.999998
0.0756046
0.158312
0.338835
0.52886
0.669219
0.77916
0.866207
0.899002
0.821345
0.293643
0.020097
0.000102719
4.8589e-06
3.293e-06
3.27899e-06
0.000128735
0.624226
0.994572
0.999994
0.123583
0.153536
0.255522
0.434413
0.62808
0.800177
0.898118
0.897499
0.543859
0.0830158
0.00135078
4.22848e-06
2.83795e-06
2.81072e-06
3.20597e-06
3.4075e-06
0.148691
0.974788
0.999954
0.262361
0.253305
0.323309
0.491162
0.71011
0.879415
0.89846
0.699726
0.169
0.00645473
1.01505e-05
2.6234e-06
1.43748e-06
1.96064e-06
3.14319e-06
3.42895e-06
0.00830036
0.907453
0.999473
0.543052
0.480093
0.529049
0.682643
0.862509
0.880258
0.752438
0.237247
0.0115512
2.63652e-05
2.73494e-06
1.25649e-06
8.17457e-07
1.34216e-06
2.95634e-06
3.25478e-06
0.000104651
0.742024
0.995677
0.871039
0.822288
0.865595
0.887659
0.874229
0.646597
0.198565
0.0103309
3.93229e-05
3.33211e-06
9.70627e-07
5.92649e-07
5.21502e-07
9.86952e-07
2.32655e-06
2.86853e-06
3.71445e-06
0.464456
0.981566
0.913707
0.965474
0.965818
0.858523
0.326894
0.0199681
7.92384e-05
9.6716e-06
2.87595e-06
8.83599e-07
3.7966e-07
3.04037e-07
3.56674e-07
7.68102e-07
1.66173e-06
2.49232e-06
3.55383e-06
0.389514
0.975687
0.0772231
0.230181
0.197695
0.0488766
0.00150808
6.60633e-06
1.83525e-06
8.98168e-07
4.91566e-07
2.75392e-07
1.68029e-07
1.67972e-07
2.63539e-07
6.45113e-07
1.34095e-06
2.32004e-06
3.48245e-06
0.493435
0.979115
7.57962e-07
6.83976e-06
4.08889e-05
9.94084e-05
1.23485e-05
5.87995e-07
2.83324e-07
2.30216e-07
1.66236e-07
1.1248e-07
8.09778e-08
1.00314e-07
2.15992e-07
5.96754e-07
1.29301e-06
2.36479e-06
3.50384e-06
0.714781
0.987993
3.64889e-08
3.96725e-08
5.70681e-08
2.48043e-07
6.15325e-07
1.61042e-07
1.19438e-07
9.50603e-08
7.1294e-08
4.90072e-08
4.14644e-08
6.72656e-08
1.91459e-07
5.8151e-07
1.32312e-06
2.53976e-06
3.56185e-06
0.75612
0.992346
2.27597e-08
2.58243e-08
3.07232e-08
5.41721e-08
9.38551e-08
6.19499e-08
5.10444e-08
4.03532e-08
2.99846e-08
2.12642e-08
2.32836e-08
5.08755e-08
1.75068e-07
5.57668e-07
1.30905e-06
2.71274e-06
3.58021e-06
0.612935
0.98908
7.10948e-09
9.14368e-09
1.34151e-08
1.8889e-08
2.28603e-08
2.28778e-08
1.93198e-08
1.57729e-08
1.17732e-08
9.41601e-09
1.49832e-08
4.31814e-08
1.62965e-07
5.21072e-07
1.27471e-06
2.79806e-06
3.6082e-06
0.244673
0.966428
3.38032e-09
3.24501e-09
4.59506e-09
6.13534e-09
7.4006e-09
7.74381e-09
6.98036e-09
5.32053e-09
4.22272e-09
4.48914e-09
1.0882e-08
3.80519e-08
1.48472e-07
4.77705e-07
1.20696e-06
2.76477e-06
3.76858e-06
0.0373854
0.917254
1.35211e-09
9.47668e-10
1.13888e-09
1.5202e-09
1.99725e-09
2.26583e-09
2.31531e-09
1.87723e-09
1.51441e-09
2.46881e-09
8.51401e-09
3.3299e-08
1.33606e-07
4.31e-07
1.13302e-06
2.68217e-06
3.94852e-06
0.00409213
0.816255
5.41938e-10
2.52381e-10
2.75416e-10
3.91021e-10
5.27004e-10
6.33358e-10
6.85286e-10
6.22009e-10
6.21742e-10
1.55305e-09
6.49531e-09
2.71898e-08
1.12988e-07
3.74364e-07
1.03649e-06
2.48219e-06
1.16423e-05
0.00237565
0.621484
1.86318e-10
5.72864e-11
6.49976e-11
9.78756e-11
1.41143e-10
1.72711e-10
1.91467e-10
1.99013e-10
2.94027e-10
1.06218e-09
4.94527e-09
2.15552e-08
9.42016e-08
3.22239e-07
9.58633e-07
2.87361e-06
7.95015e-05
0.00257453
0.600086
9.65562e-11
1.77674e-11
1.18178e-11
1.90139e-11
3.10517e-11
4.40823e-11
5.28655e-11
6.47083e-11
1.57417e-10
7.08942e-10
3.47422e-09
1.50515e-08
7.13632e-08
2.5233e-07
8.87546e-07
5.22885e-06
0.000423921
0.0045135
0.721763
4.22255e-11
7.14132e-12
2.85997e-12
4.19216e-12
6.90177e-12
1.01647e-11
1.34373e-11
2.22959e-11
7.7179e-11
4.16073e-10
2.05323e-09
9.17614e-09
4.0448e-08
1.03495e-07
4.08475e-07
7.32883e-06
0.00156398
0.0245456
0.894901
1.42503e-11
2.62865e-12
7.27401e-13
9.14999e-13
1.54015e-12
2.3523e-12
3.36046e-12
6.88565e-12
2.9241e-11
1.62262e-10
8.64656e-10
4.54161e-09
2.19529e-08
5.19035e-08
2.22869e-07
3.96168e-06
0.00371694
0.152339
0.976762
4.09328e-12
8.46875e-13
1.92218e-13
1.89266e-13
3.19617e-13
5.12334e-13
8.22891e-13
2.17543e-12
1.0985e-11
6.24067e-11
3.61607e-10
2.29279e-09
1.24714e-08
3.80928e-08
1.18203e-07
7.65867e-07
0.00274236
0.34267
0.985829
1.02589e-12
2.37799e-13
5.06867e-14
3.71036e-14
6.05293e-14
9.87227e-14
1.47542e-13
3.21577e-13
1.91344e-12
1.58786e-11
1.25695e-10
1.07066e-09
7.90447e-09
3.56557e-08
1.4838e-07
4.39631e-07
0.000510089
0.328606
0.985829
2.18565e-13
5.85875e-14
1.2679e-14
7.05846e-15
1.07604e-14
1.85867e-14
3.28994e-14
1.21606e-13
1.10057e-12
1.08796e-11
1.03696e-10
9.92502e-10
8.17903e-09
3.95404e-08
1.41288e-07
6.4614e-07
1.46868e-05
0.190476
0.983877
3.99369e-14
1.25991e-14
2.9133e-15
1.31929e-15
1.80697e-15
3.38161e-15
8.69865e-15
6.86329e-14
8.95375e-13
1.07413e-11
1.18923e-10
1.23514e-09
1.05825e-08
5.68878e-08
3.50372e-07
6.52421e-07
1.1889e-06
0.0529498
0.948125
6.29179e-15
2.36758e-15
6.06755e-16
2.41981e-16
2.93506e-16
7.11089e-16
4.90984e-15
7.68048e-14
1.1958e-12
1.56128e-11
1.73358e-10
1.71587e-09
1.38911e-08
9.63893e-08
3.33656e-07
1.0049e-06
1.18263e-06
0.00791893
0.845111
8.6624e-16
3.90903e-16
1.14023e-16
4.30957e-17
4.83579e-17
2.1448e-16
3.32314e-15
6.54433e-14
1.12518e-12
1.60052e-11
1.8712e-10
1.86221e-09
1.55998e-08
9.2204e-08
4.32806e-07
1.01935e-06
1.33643e-06
0.000671541
0.699965
1.05411e-16
5.72076e-17
1.93387e-17
7.30529e-18
6.91888e-18
3.18858e-17
6.67723e-16
1.81694e-14
4.27701e-13
8.23062e-12
1.24436e-10
1.48176e-09
1.37866e-08
1.02003e-07
4.7148e-07
1.29367e-06
1.69196e-06
2.60888e-05
0.516792
1.14617e-17
7.48965e-18
2.96991e-18
1.1711e-18
9.31039e-19
3.13872e-18
7.44127e-17
3.09878e-15
1.12038e-13
3.2321e-12
7.12095e-11
1.14046e-09
1.26006e-08
1.11395e-07
5.28981e-07
1.43635e-06
2.01929e-06
1.92034e-06
0.262856
1.12398e-18
8.84893e-19
4.15111e-19
1.76599e-19
1.30131e-19
6.10339e-19
2.28224e-17
1.17365e-15
5.14959e-14
1.79509e-12
4.75249e-11
9.12168e-10
1.20854e-08
1.13347e-07
5.51018e-07
1.46293e-06
2.31022e-06
1.9038e-06
0.0645088
1.00243e-19
9.51565e-20
5.31207e-20
2.49722e-20
1.86519e-20
1.32046e-19
4.43012e-18
1.87074e-16
8.44955e-15
3.64335e-13
1.27636e-11
3.21101e-10
5.34042e-09
6.06156e-08
3.9802e-07
1.67774e-06
2.27058e-06
0.000132616
0.00624261
8.18738e-21
9.38462e-21
6.26288e-21
3.30957e-21
2.80756e-21
4.55497e-20
2.17306e-18
9.67641e-17
3.85681e-15
1.39822e-13
4.43076e-12
1.10403e-10
1.90083e-09
1.99271e-08
1.50749e-07
3.65528e-06
3.60326e-05
0.000229827
0.000264703
6.16022e-22
8.54654e-22
6.84194e-22
4.10567e-22
3.28173e-22
5.40609e-21
3.30405e-19
1.87602e-17
9.08321e-16
3.63349e-14
1.14491e-12
2.67427e-11
4.43591e-10
5.40359e-09
5.37605e-08
2.91085e-06
4.05401e-05
8.0076e-05
1.33806e-05
4.28856e-23
7.22917e-23
6.96321e-23
4.79089e-23
3.50221e-23
3.46627e-22
2.24706e-20
1.41127e-18
7.47542e-17
3.2577e-15
1.13681e-13
3.06068e-12
6.05304e-11
8.34018e-10
9.01159e-09
1.68011e-07
2.52365e-06
6.21904e-06
1.70626e-06
2.77065e-24
5.70708e-24
6.63013e-24
5.27393e-24
3.79873e-24
1.80378e-23
1.13235e-21
7.97059e-20
4.6987e-18
2.24545e-16
8.49755e-15
2.48467e-13
5.48835e-12
8.84196e-11
1.04603e-09
9.36092e-09
6.73453e-08
2.56314e-07
5.57223e-07
1.66184e-25
4.21665e-25
5.92809e-25
5.48423e-25
4.1469e-25
9.06797e-25
4.24813e-23
3.40445e-21
2.33768e-19
1.30357e-17
5.75806e-16
1.9369e-14
4.85021e-13
8.84845e-12
1.16623e-10
1.11519e-09
8.32383e-09
2.85663e-08
1.19438e-07
9.24156e-27
2.9221e-26
4.98666e-26
5.38415e-26
4.4357e-26
5.87074e-26
1.32728e-24
1.15873e-22
9.49285e-21
6.2391e-19
3.17628e-17
1.23153e-15
3.56619e-14
7.56071e-13
1.15862e-11
1.28447e-10
1.00489e-09
4.66164e-09
1.68816e-08
4.72275e-28
1.8976e-27
3.95898e-27
5.01193e-27
4.58117e-27
4.79063e-27
3.63227e-26
2.73861e-24
2.74271e-22
2.17249e-20
1.31796e-18
6.04676e-17
2.06622e-15
5.16792e-14
9.32086e-13
1.2039e-11
1.0814e-10
5.57325e-10
1.79438e-09
2.23849e-29
1.16195e-28
2.95193e-28
4.3618e-28
4.46841e-28
4.38772e-28
1.64966e-27
5.89775e-26
6.45106e-24
6.10903e-22
4.42606e-20
2.41519e-18
9.78626e-17
2.89622e-15
6.15464e-14
9.26273e-13
9.61421e-12
5.71889e-11
1.60734e-10
8.29788e-31
6.38922e-30
2.06417e-29
3.59385e-29
4.1467e-29
3.8938e-29
1.00994e-28
1.0671e-27
8.59419e-26
1.04886e-23
9.7755e-22
6.73863e-20
3.40303e-18
1.24149e-16
3.21353e-15
5.7863e-14
7.02372e-13
4.78522e-12
1.11271e-11
)
;

boundaryField
{
    leftWall
    {
        type            zeroGradient;
    }
    rightWall
    {
        type            zeroGradient;
    }
    lowerWall
    {
        type            zeroGradient;
    }
    atmosphere
    {
        type            inletOutlet;
        inletValue      uniform 0;
        value           nonuniform List<scalar> 
46
(
0
0
0
0
0
0
0
0
0
0
0
0
0
0
0
0
0
0
0
0
0
0
0
0
0
0
0
0
0
0
0
0
0
1.00994e-28
1.0671e-27
8.59419e-26
1.04886e-23
9.7755e-22
6.73863e-20
3.40303e-18
1.24149e-16
3.21353e-15
5.7863e-14
7.02372e-13
4.78522e-12
1.11271e-11
)
;
    }
    defaultFaces
    {
        type            empty;
    }
}


// ************************************************************************* //
