/*--------------------------------*- C++ -*----------------------------------*\
| =========                 |                                                 |
| \\      /  F ield         | OpenFOAM: The Open Source CFD Toolbox           |
|  \\    /   O peration     | Version:  2.4.0                                 |
|   \\  /    A nd           | Web:      www.OpenFOAM.org                      |
|    \\/     M anipulation  |                                                 |
\*---------------------------------------------------------------------------*/
FoamFile
{
    version     2.0;
    format      ascii;
    class       volScalarField;
    location    "0.35";
    object      p;
}
// * * * * * * * * * * * * * * * * * * * * * * * * * * * * * * * * * * * * * //

dimensions      [1 -1 -2 0 0 0 0];

internalField   nonuniform List<scalar> 
2268
(
7078.09
7061.39
7030.15
6984.32
6908.72
6856.59
6735.59
6628.17
6523.76
6386.19
6245.69
6123.96
6006.57
5923.04
5898.65
5964.78
6136.51
6519.76
7147.52
7953.86
8822.34
9477.79
9763.65
6276.11
6259.3
6228.1
6181.53
6108.2
6050.74
5933.76
5825.07
5717.81
5578.18
5439.71
5316.49
5199.66
5107.97
5076.11
5125.13
5309.07
5675.39
6288.58
7103.62
7962.96
8662.89
8951.52
5468.44
5451.44
5420.21
5372.54
5302.76
5237.16
5126.02
5015.39
4901.77
4760.19
4624.64
4499.93
4377.97
4276.53
4223.83
4248.79
4405.16
4768.29
5336.6
6155.88
7051.79
7810.69
8135.36
4655.17
4637.93
4606.53
4557.87
4491.6
4418.02
4312.72
4198.63
4076.88
3934.62
3802.83
3672.32
3548.33
3425.01
3345.25
3344.23
3471.34
3809.86
4341.62
5137.45
6095.19
6930.05
7270.19
3837.25
3819.72
3787.86
3738.23
3675.57
3595.87
3493.82
3374.78
3244.55
3104.9
2969.99
2839.51
2715.89
2587.76
2448.3
2370.65
2462.77
2751.31
3258.51
4089.55
5093.73
6031.11
6398.24
3010.35
2992.34
2959.55
2907.49
2851.79
2764.64
2661.08
2535.67
2391.12
2247.85
2087.46
1917.35
1747.76
1616.48
1475.04
1398.66
1413.48
1495.02
1877.89
2779.11
3984.86
5100.83
5452.1
2138.01
2118.35
2081.76
2019.84
1965.35
1870.15
1777.79
1655.87
1521.85
1401.9
1305.8
1226.64
1182.81
1173.41
1178.63
1208.17
1229.76
1244.15
1293.47
1605.81
2792.67
4060.5
4419.7
1414.86
1400.84
1374.12
1329.89
1280.76
1200.98
1133.23
1074.96
1036.99
1027.28
1038.59
1085.86
1144.31
1210.45
1247.71
1258.07
1275.78
1285.75
1306.47
1246.6
1890.69
3091.98
3279.04
619.123
451.194
267.737
137.549
85.3379
108.731
180.49
329.98
532.119
761.792
1032.56
1053.74
927.474
810.72
749.587
761.692
784.614
758.224
734.361
575.648
404.909
215.867
94.0328
47.5404
64.6457
135.146
281.22
471.381
639.326
824.787
862.051
744.815
625.581
577.642
627.466
683.621
692.183
684.675
514.742
333.408
149.855
36.4556
-7.85442
12.4978
76.6331
219.997
407.266
563.647
697.057
711.252
601.877
497.284
508.594
594.302
650.786
659.128
655.904
449.755
258.334
63.9335
-29.4306
-62.3701
-49.5344
5.10849
142.652
327.012
465.82
561.184
555.77
407.667
341.993
420.03
524.894
591.245
609.028
614.742
386.015
167.25
-22.4385
-86.0072
-136.887
-130.561
-68.9525
58.9846
235.74
357.337
415.91
368.412
258.322
233.623
331.709
446.331
524.937
559.837
581.547
328.945
86.1205
-84.2316
-151.055
-156.575
-153.806
-138.613
-19.2546
147.827
246.131
266.552
139.375
59.7137
127.249
240.411
373.642
463.773
514.19
541.432
293.777
33.1331
-141.74
-156.263
-156.027
-155.857
-157.081
-107.984
64.8768
154.064
122.673
40.8928
13.8625
45.5345
149.312
305.861
405.303
465.716
493.92
283.388
8.80605
-155.022
-155.695
-156.227
-155.022
-157.211
-143.087
-26.8497
76.4622
38.847
20.2279
14.8935
19.2667
72.0518
239.94
347.132
413.851
445.958
886.285
888.977
894.289
905.033
917.689
938.247
963.78
991.734
1016.15
1044.47
1058.7
1051.36
1035.91
1010.38
990.021
1002.74
1028.6
1069.39
1139.03
1172.46
1175.71
1680.36
1340.25
877.007
877.905
878.901
879.77
879.222
877.249
873.728
870.44
869.473
862.83
861.16
869.643
889.566
921.555
965.627
1005.26
1029.87
1043.69
1040.93
1039.45
984.418
941.721
1078.33
690.258
690.616
691.387
692.887
695.408
699.474
705.94
714.139
722.426
729.3
735.98
744.184
750.932
757.527
752.588
758.395
780.001
808.378
831.217
837.468
818.695
717.712
656.22
553.775
554.496
556.018
558.661
562.884
568.511
576.66
584.88
593.23
598.58
599.275
598.578
600.411
605.266
616.916
632.741
649.961
655.7
660.506
658.436
641.145
553.335
438.562
413.191
413.586
414.546
416.504
420.104
425.438
434.095
443.511
454.352
458.856
454.114
446.875
441.509
434.197
427.481
424.885
429.451
445.038
454.95
460.401
445.3
405.116
307.218
270.627
270.536
270.737
271.812
274.78
280.588
291.043
305.222
321.594
323.755
307.573
290.33
274.178
261.694
262.836
267.269
268.683
274.371
277.323
280.733
286.191
289.265
244.288
113.041
111.87
110.516
109.629
110.593
115.179
128.504
158.294
209.723
212.745
180.94
163.323
169.664
164.131
164.23
168.799
179.547
193.577
193.009
192.789
202.589
208.275
178.806
20.7014
19.9311
18.9416
17.8463
16.9996
16.5834
17.4993
24.3572
56.6977
68.2381
52.8893
44.4103
52.9982
69.0858
88.204
109.876
129.867
139.064
141.776
146.238
155.506
152.557
130.715
2.20492
2.23152
2.27998
2.34063
2.39871
2.4299
2.43244
2.40914
2.74714
3.12062
4.00397
5.21848
6.27826
8.04379
11.1566
18.8136
29.8726
40.4284
51.109
64.1621
87.4984
92.9167
80.4522
5.35976
5.33703
5.29423
5.2395
5.18362
5.14461
5.10574
4.98104
4.6074
4.1368
3.904
3.70579
3.5667
3.43899
3.24754
3.38959
3.40202
3.8282
5.14356
7.82044
19.1702
28.3326
31.1256
3.30604
3.32419
3.35501
3.39884
3.44348
3.48597
3.51382
3.52535
3.66237
3.99251
4.12548
4.27452
4.40979
4.491
4.4543
4.23574
3.90411
3.66742
3.40743
3.21076
3.26573
2.94468
3.19289
3.97903
3.96801
3.9521
3.93478
3.92081
3.90668
3.87551
3.82073
3.7703
3.74179
3.57087
3.61862
3.604
3.58829
3.57011
3.58924
3.62566
3.75399
3.89829
3.89483
3.56312
3.26537
3.06054
3.81552
3.80745
3.79515
3.78061
3.76704
3.75795
3.74964
3.7476
3.80706
3.83499
3.80286
3.7703
3.74592
3.70763
3.63715
3.54175
3.46439
3.37236
3.28982
3.21836
3.14335
3.16301
3.16
3.61566
3.61438
3.61077
3.60582
3.59939
3.59057
3.57665
3.55807
3.53218
3.54219
3.52772
3.52432
3.5093
3.48088
3.44432
3.39383
3.36851
3.35734
3.32454
3.24285
3.13086
3.03936
2.92808
3.51762
3.51191
3.5042
3.49518
3.48597
3.47757
3.47103
3.46922
3.4718
3.47538
3.44921
3.42546
3.39155
3.35112
3.30142
3.24344
3.19804
3.1647
3.13316
3.09851
3.07189
3.05751
3.05905
3.3584
3.35653
3.35296
3.34782
3.34139
3.33406
3.32612
3.31794
3.30989
3.30651
3.29235
3.27561
3.25097
3.2191
3.17972
3.13368
3.09089
3.05342
3.01613
2.97414
2.92794
2.88269
2.84378
3.22046
3.21899
3.21585
3.21135
3.20562
3.19918
3.19188
3.18347
3.17467
3.16765
3.15397
3.13616
3.11399
3.08609
3.053
3.0182
2.98471
2.95342
2.92397
2.89664
2.87157
2.84903
2.83158
3.08295
3.08173
3.07882
3.07478
3.06954
3.06308
3.05578
3.04773
3.03906
3.0298
3.01666
2.9998
2.97892
2.95445
2.92609
2.89452
2.86312
2.83315
2.80388
2.77518
2.74732
2.72297
2.70424
2.9469
2.94558
2.94297
2.93912
2.9341
2.92806
2.92104
2.91288
2.90374
2.89347
2.88029
2.86471
2.84649
2.82556
2.80177
2.77628
2.7504
2.72302
2.69679
2.67229
2.64808
2.62594
2.60737
2.81215
2.81092
2.80847
2.80483
2.80004
2.79419
2.7872
2.77907
2.76981
2.75902
2.74633
2.73169
2.71488
2.69604
2.67504
2.65293
2.62994
2.60605
2.58253
2.55997
2.53808
2.51843
2.50146
2.67851
2.67736
2.67506
2.6716
2.66706
2.6614
2.65465
2.64681
2.63776
2.62718
2.61511
2.60119
2.58535
2.56768
2.54855
2.52874
2.50813
2.48725
2.46642
2.44585
2.42589
2.40746
2.3908
2.54589
2.54478
2.5426
2.53936
2.53505
2.52966
2.52319
2.51562
2.50682
2.49668
2.48507
2.47197
2.45746
2.44154
2.42437
2.40601
2.38713
2.36796
2.34878
2.32973
2.31149
2.29395
2.27811
2.41434
2.41332
2.41127
2.40819
2.40407
2.39891
2.39269
2.38537
2.37685
2.36708
2.35609
2.34392
2.33048
2.31568
2.30004
2.28347
2.26617
2.24851
2.23057
2.21276
2.19541
2.17829
2.16262
2.28383
2.28284
2.28088
2.27794
2.27401
2.26907
2.26313
2.25614
2.24808
2.23894
2.22871
2.21733
2.20478
2.19114
2.17662
2.16122
2.14523
2.12882
2.11194
2.09542
2.07884
2.06225
2.04634
2.15411
2.15318
2.15133
2.14855
2.14484
2.14019
2.13458
2.128
2.1204
2.11176
2.10206
2.09136
2.07969
2.06718
2.05367
2.0395
2.02464
2.00907
1.99328
1.97739
1.96121
1.94502
1.92912
2.02533
2.02446
2.02271
2.02009
2.01659
2.0122
2.0069
2.00068
1.99351
1.98539
1.97635
1.9664
1.95553
1.9438
1.93132
1.91809
1.90405
1.88947
1.87457
1.85914
1.84353
1.8276
1.81151
1.89745
1.89662
1.89498
1.8925
1.8892
1.88505
1.88006
1.87421
1.86753
1.86001
1.85161
1.84228
1.83211
1.82114
1.80942
1.79695
1.78385
1.77013
1.75588
1.74113
1.72584
1.71015
1.69398
1.77029
1.76952
1.76799
1.76567
1.76259
1.75872
1.75406
1.74862
1.74238
1.73534
1.72746
1.71878
1.70937
1.6992
1.68825
1.67657
1.66422
1.65118
1.63755
1.62336
1.60854
1.59305
1.57685
1.64383
1.64312
1.64169
1.63954
1.63667
1.63308
1.62875
1.62368
1.61788
1.61133
1.60403
1.59602
1.58725
1.57773
1.56749
1.55656
1.54496
1.53272
1.51978
1.50613
1.49174
1.47655
1.46044
1.51812
1.51747
1.51615
1.51417
1.51151
1.50819
1.50419
1.49951
1.49413
1.48806
1.48131
1.47389
1.46578
1.45697
1.44748
1.43729
1.42642
1.41485
1.40258
1.38954
1.37566
1.36085
1.345
1.39296
1.39235
1.39114
1.38932
1.38688
1.38383
1.38016
1.37587
1.37096
1.36542
1.35925
1.35243
1.34496
1.33684
1.32806
1.31862
1.30849
1.29765
1.28607
1.27368
1.2604
1.24612
1.2307
1.26845
1.26789
1.26679
1.26513
1.26291
1.26014
1.2568
1.25289
1.24842
1.24337
1.23774
1.23153
1.22471
1.21727
1.20922
1.20052
1.19116
1.18109
1.17027
1.15863
1.14606
1.13246
1.11767
1.14448
1.14399
1.143
1.1415
1.1395
1.137
1.134
1.13048
1.12645
1.12189
1.11681
1.11119
1.10502
1.09828
1.09096
1.08303
1.07446
1.06521
1.05522
1.04441
1.03268
1.01992
1.00596
1.02099
1.02055
1.01967
1.01834
1.01656
1.01433
1.01166
1.00852
1.00493
1.00088
0.996358
0.991347
0.985834
0.979805
0.97324
0.966106
0.958372
0.94999
0.940899
0.931024
0.920264
0.9085
0.895582
0.897947
0.897558
0.896789
0.895622
0.894066
0.892113
0.889761
0.887013
0.883867
0.880319
0.876356
0.87196
0.867114
0.86181
0.856022
0.849721
0.842863
0.835408
0.827295
0.818448
0.808775
0.798161
0.786466
0.775286
0.774951
0.774293
0.773288
0.77195
0.770271
0.768258
0.765909
0.763218
0.760181
0.756781
0.752988
0.748811
0.744249
0.739267
0.733822
0.727884
0.721414
0.714351
0.706624
0.698148
0.688819
0.678518
0.652967
0.652678
0.65213
0.651284
0.650168
0.648778
0.647115
0.645164
0.64292
0.640364
0.637502
0.63435
0.630908
0.62712
0.622955
0.618376
0.61338
0.60795
0.602002
0.59547
0.588292
0.58037
0.571596
0.530889
0.53064
0.530202
0.529513
0.528613
0.527491
0.526147
0.524584
0.522797
0.520772
0.518515
0.516019
0.513246
0.510182
0.506835
0.503216
0.499299
0.494972
0.49017
0.484894
0.4791
0.472679
0.465554
0.409006
0.408784
0.408453
0.407924
0.407243
0.406399
0.405389
0.404209
0.402858
0.401346
0.399663
0.397805
0.395762
0.393536
0.391098
0.388432
0.38546
0.382188
0.378654
0.374791
0.370459
0.365605
0.360206
0.28743
0.287211
0.28698
0.28662
0.28617
0.285613
0.284945
0.284164
0.28327
0.282266
0.281149
0.279916
0.278564
0.277087
0.275505
0.273783
0.271901
0.269832
0.267532
0.264931
0.262062
0.258947
0.255405
0.1663
0.166154
0.166014
0.165804
0.165552
0.165243
0.164878
0.164459
0.163987
0.163465
0.162893
0.162272
0.161601
0.160879
0.160102
0.159273
0.158389
0.157435
0.15639
0.155239
0.153958
0.152468
0.150744
0.0451927
0.045171
0.0451336
0.0450617
0.0449802
0.0448914
0.0448049
0.0447273
0.0446641
0.0446194
0.0445962
0.0445974
0.0446277
0.0446919
0.0447848
0.0449083
0.0450647
0.0452541
0.045475
0.0457232
0.0459812
0.0462377
0.0464694
-57.8386
191.89
261.249
255.797
512.601
257.054
241.775
303.518
435.365
290.416
212.42
207.272
284.228
171.787
80.8993
36.9608
217.531
162.736
113.878
65.7072
181.415
139.875
102.1
68.2362
134.929
109.816
90.2018
69.4346
100.66
79.8058
68.3068
57.0028
64.6675
53.57
42.444
31.8955
33.5082
35.7483
39.7309
46.2791
3.80108
4.47865
5.55638
7.03214
2.9292
2.84234
2.74417
2.63338
3.33755
3.41586
3.45589
3.48194
2.87845
2.85339
2.82997
2.80259
3.06744
3.07032
3.06856
3.06114
2.82853
2.82286
2.82079
2.82279
2.8195
2.81126
2.80282
2.79514
2.69519
2.69058
2.68751
2.68624
2.59645
2.59075
2.58626
2.58281
2.49112
2.48529
2.48054
2.47661
2.38042
2.37435
2.36904
2.36449
2.26783
2.26147
2.2556
2.25023
2.15205
2.14542
2.13899
2.13308
2.03538
2.02841
2.02149
2.01487
1.91769
1.9104
1.90303
1.89575
1.79968
1.79204
1.78424
1.77638
1.68178
1.67383
1.66566
1.6573
1.56439
1.55619
1.54774
1.53899
1.44785
1.43952
1.43088
1.42187
1.33245
1.32409
1.31539
1.30628
1.21837
1.21013
1.20151
1.19247
1.10576
1.09777
1.0894
1.08059
0.994669
0.987074
0.979097
0.970695
0.885088
0.87802
0.870591
0.862759
0.776946
0.770526
0.763772
0.756656
0.670112
0.664443
0.65848
0.652195
0.564433
0.559598
0.554508
0.549149
0.459718
0.455778
0.451632
0.447263
0.355774
0.352774
0.349607
0.346272
0.252407
0.250363
0.248208
0.245932
0.149302
0.148309
0.147227
0.146052
0.0465405
0.046538
0.0464843
0.0463756
303.032
38.1173
-154.246
-156.796
-156.614
-156.506
-157.044
-154.221
-116.57
-26.3529
-3.25673
6.84173
10.5421
6.69902
26.6577
144.531
260.397
335.795
374.588
369.673
106.64
-102.358
-153.489
-155.68
-155.94
-156.407
-155.532
-136.315
-72.558
-9.40906
5.86834
7.36453
8.11541
6.7147
39.3696
164.659
242.216
283.765
248.098
100.711
-36.9692
-121.008
-147.509
-150.197
-146.859
-143.66
-125.908
-57.4861
-0.160627
6.45226
6.26228
7.15573
5.74098
10.2833
74.3377
167.826
208.715
29.872
-0.702782
-78.2827
-98.9805
-92.9853
-115.999
-131.267
-127.011
-104.255
-23.6513
4.55859
6.12815
6.13283
6.10877
6.39085
4.9417
14.3268
115.102
143.744
-12.9716
-60.2338
-100.134
-114.081
-121.141
-128.887
-119.821
-98.8364
-66.9359
-5.441
5.34905
5.61188
5.67135
5.58867
6.16162
5.03124
7.53383
74.3194
93.4999
16.1841
-56.31
-108.311
-124.66
-125.585
-116.303
-84.823
-55.547
-15.7809
3.43241
5.06454
5.14806
5.3189
5.36426
5.55805
5.00449
6.43234
40.5468
59.3025
35.396
-29.3442
-74.5419
-93.8058
-94.7134
-75.2612
-42.3746
-18.5763
1.05195
4.5983
4.77225
4.9089
5.03701
5.11011
5.07762
5.07956
4.9677
12.972
39.1859
39.634
24.3433
-21.1767
-39.4936
-44.6159
-27.2151
-9.59125
1.49599
4.09005
4.37981
4.54292
4.67166
4.79422
4.81289
4.85721
5.10591
4.5859
6.29245
27.7316
22.5703
48.904
33.1923
4.91568
-2.71806
-0.359372
3.2751
4.11101
4.2645
4.28702
4.37357
4.48395
4.58787
4.62278
4.70405
4.83264
4.56112
5.17953
21.5737
50.876
61.8223
68.7
46.9265
10.7187
3.76048
3.85961
4.05175
4.09062
4.13985
4.21952
4.30669
4.38618
4.45232
4.53343
4.55209
4.48566
4.48017
15.9018
11.6136
19.6469
21.0256
8.05564
3.76717
3.77346
3.72137
3.73569
3.87926
3.9658
4.04855
4.12414
4.18298
4.26893
4.30693
4.35588
4.30582
4.5991
13.4619
2.4646
2.39673
3.11746
3.36616
3.38955
3.43165
3.5837
3.67127
3.74021
3.80503
3.87311
3.93744
3.96837
4.08047
4.04877
4.15699
4.02102
4.47202
13.7572
3.45856
3.41428
3.14261
3.26861
3.36942
3.39526
3.44671
3.50785
3.58048
3.63896
3.69878
3.75018
3.7644
3.87734
3.78061
3.93911
3.73517
4.06993
15.5053
2.76863
2.88299
3.05225
3.14889
3.21065
3.26752
3.32091
3.37168
3.42784
3.47376
3.5269
3.56458
3.57154
3.67171
3.52936
3.71637
3.52251
3.88573
15.1758
3.04278
3.00792
2.98827
3.03916
3.09123
3.13738
3.18283
3.22812
3.27592
3.31026
3.35908
3.38146
3.3982
3.46724
3.35149
3.54774
3.34813
3.37977
12.9323
2.83333
2.87129
2.90917
2.94325
2.97566
3.01065
3.04728
3.08403
3.12482
3.14846
3.19515
3.20251
3.2341
3.25878
3.21272
3.31943
3.22078
2.99864
6.1064
2.78471
2.78396
2.79805
2.82425
2.85332
2.88185
2.91099
2.94019
2.97435
2.98828
3.03407
3.02537
3.06982
3.05829
3.07236
3.08607
3.07448
2.90005
3.75853
2.68543
2.68826
2.69896
2.71349
2.73134
2.75181
2.77367
2.79628
2.82411
2.82975
2.87504
2.85052
2.90864
2.85972
2.91095
2.84249
2.92574
2.64333
3.80458
2.57866
2.57786
2.58343
2.59316
2.60563
2.61996
2.63533
2.65209
2.67381
2.67305
2.71729
2.67946
2.75097
2.66464
2.74215
2.58573
2.66802
2.36774
2.95058
2.47107
2.46746
2.46765
2.47139
2.47795
2.48629
2.49594
2.50725
2.52317
2.51815
2.56031
2.51399
2.59829
2.47788
2.60203
2.35212
2.4514
2.159
2.58791
2.35766
2.35113
2.34766
2.34671
2.34795
2.35084
2.3552
2.36136
2.37182
2.36445
2.40395
2.35679
2.44775
2.32608
2.4865
2.18749
2.40494
1.99368
2.54162
2.24187
2.23247
2.22521
2.21992
2.21619
2.21363
2.21279
2.21384
2.21859
2.21024
2.24915
2.21121
2.30384
2.21618
2.37465
2.17972
2.39216
1.9674
2.71448
2.12383
2.1117
2.10082
2.09135
2.08278
2.07496
2.0685
2.06381
2.06243
2.05277
2.08944
2.04868
2.17004
2.08267
2.29657
2.24493
2.38665
2.29912
3.96645
2.00414
1.98954
1.97535
1.96182
1.94831
1.93498
1.92238
1.91089
1.90217
1.89051
1.91995
1.88093
2.0103
1.93989
2.21487
2.23539
2.42098
2.77993
11.0649
1.88372
1.86673
1.84935
1.83178
1.81344
1.79434
1.77486
1.75539
1.73734
1.72085
1.73148
1.70454
1.80845
1.75977
2.06116
2.08959
2.44676
2.9628
20.5149
1.76315
1.74396
1.7236
1.70212
1.67897
1.65388
1.627
1.59837
1.56917
1.54085
1.52987
1.50574
1.5525
1.5288
1.81632
1.75239
2.3026
1.51988
16.4939
1.64303
1.62185
1.59879
1.5737
1.54595
1.51488
1.48032
1.44165
1.39927
1.35332
1.31809
1.27348
1.26123
1.23829
1.47618
1.34049
2.22484
1.19277
5.82389
1.5239
1.50101
1.47566
1.44742
1.4155
1.37888
1.33683
1.28799
1.23167
1.16732
1.09832
1.01458
0.93059
0.850982
0.91564
0.724853
1.71778
0.284905
2.93513
1.40621
1.38203
1.35491
1.32416
1.28881
1.24752
1.19888
1.14068
1.07067
0.986218
0.883635
0.751957
0.583356
0.371032
0.145469
-0.203877
0.0898492
-1.2436
-0.984471
1.29034
1.2654
1.23716
1.20474
1.167
1.12238
1.06886
1.00345
0.922225
0.819376
0.686088
0.510761
0.25782
-0.104841
-0.662692
-1.49957
-2.1943
-3.58729
-3.75755
1.17657
1.15147
1.12282
1.0897
1.05088
1.00463
0.948638
0.879468
0.792096
0.67858
0.525979
0.313379
-0.00103467
-0.465713
-1.28305
-2.66554
-4.70819
-6.53665
-5.37655
1.06505
1.0404
1.01213
0.979335
0.940803
0.894846
0.839133
0.770265
0.683138
0.569656
0.416443
0.200191
-0.123099
-0.626683
-1.49352
-3.11846
-5.78954
-8.11596
-3.02529
0.955859
0.932224
0.905104
0.873645
0.836758
0.792945
0.74017
0.675515
0.594686
0.491035
0.353855
0.164916
-0.108693
-0.529307
-1.24416
-2.54789
-4.56591
-6.65613
0.392485
0.848922
0.826849
0.801565
0.772335
0.738281
0.698215
0.650599
0.593317
0.523407
0.436607
0.326495
0.182959
-0.0104768
-0.283483
-0.712885
-1.4515
-2.47438
-2.73285
1.27363
0.744079
0.724031
0.701152
0.674872
0.644558
0.609408
0.568463
0.520533
0.464169
0.397629
0.318765
0.225345
0.115224
-0.0133824
-0.166373
-0.351601
-0.389461
0.541222
2.19375
0.641097
0.623436
0.603389
0.580561
0.554566
0.524981
0.49141
0.453541
0.411284
0.36497
0.315567
0.266556
0.224693
0.20242
0.22307
0.330338
0.703412
1.74608
2.48561
0.53969
0.524675
0.507739
0.488645
0.467229
0.443389
0.417195
0.389001
0.359686
0.331236
0.305693
0.289613
0.292594
0.331987
0.434707
0.64188
1.03406
1.74851
2.12636
0.439555
0.427349
0.413663
0.398395
0.381543
0.363245
0.343879
0.324197
0.305432
0.289537
0.2817
0.287032
0.315205
0.380841
0.50392
0.708311
1.01591
1.45521
1.65848
0.340385
0.33107
0.320674
0.309185
0.296703
0.283491
0.270082
0.257486
0.246581
0.240303
0.242473
0.258243
0.295191
0.36332
0.474157
0.637652
0.852067
1.11266
1.23035
0.241903
0.235494
0.228342
0.220487
0.212063
0.203332
0.194775
0.187133
0.182004
0.181204
0.187716
0.205477
0.239586
0.295877
0.379827
0.493721
0.629928
0.777267
0.845317
0.143921
0.140418
0.136441
0.132045
0.127344
0.122533
0.117917
0.114187
0.112399
0.113766
0.120136
0.133877
0.157764
0.194551
0.246131
0.31186
0.385431
0.459035
0.493583
0.0460979
0.0454226
0.0445159
0.0434132
0.0421697
0.0409113
0.0399216
0.0389862
0.038845
0.0399497
0.0429325
0.048559
0.0576307
0.0707951
0.0882111
0.109087
0.13101
0.151534
0.160938
)
;

boundaryField
{
    leftWall
    {
        type            fixedFluxPressure;
        gradient        uniform 0;
        value           nonuniform List<scalar> 
50
(
7078.09
6276.11
5468.44
4655.17
3837.25
3010.35
2138.01
1414.86
886.285
877.007
690.258
553.775
413.191
270.627
113.041
20.7014
2.20492
5.35976
3.30604
3.97903
3.81552
3.61566
3.51762
3.3584
3.22046
3.08295
2.9469
2.81215
2.67851
2.54589
2.41434
2.28383
2.15411
2.02533
1.89745
1.77029
1.64383
1.51812
1.39296
1.26845
1.14448
1.02099
0.897947
0.775286
0.652967
0.530889
0.409006
0.28743
0.1663
0.0451927
)
;
    }
    rightWall
    {
        type            fixedFluxPressure;
        gradient        uniform 0;
        value           nonuniform List<scalar> 
50
(
734.361
684.675
655.904
614.742
581.547
541.432
493.92
445.958
374.588
283.765
208.715
143.744
93.4999
59.3025
39.1859
27.7316
21.5737
15.9018
13.4619
13.7572
15.5053
15.1758
12.9323
6.1064
3.75853
3.80458
2.95058
2.58791
2.54162
2.71448
3.96645
11.0649
20.5149
16.4939
5.82389
2.93513
-0.984471
-3.75755
-5.37655
-3.02529
0.392485
1.27363
2.19375
2.48561
2.12636
1.65848
1.23035
0.845317
0.493583
0.160938
)
;
    }
    lowerWall
    {
        type            fixedFluxPressure;
        gradient        nonuniform List<scalar> 
62
(
132719
132719
132719
132719
132719
132719
132719
132719
132719
132719
132719
132719
132719
132719
132719
132719
132719
132719
132719
132719
132719
132718
132689
0
0
0
0
0
0
0
0
89407.3
390.934
26.6684
138.535
0
0
0
0
0
0
0
0
4902.62
4905.39
4905.95
4905.96
4905.88
4906.52
4908.42
4915.21
4948.62
5071.78
5161.94
5158.82
5162.21
5160.95
5160.57
5000.68
4565.2
4640.15
4485.8
)
;
        value           nonuniform List<scalar> 
62
(
7476.24
7459.54
7428.3
7382.47
7306.87
7254.74
7133.74
7026.32
6921.91
6784.34
6643.84
6522.11
6404.72
6321.19
6296.8
6362.93
6534.66
6917.91
7545.67
8352.01
9220.49
9875.94
10161.7
9763.65
8951.52
8135.36
7270.19
6398.24
5452.1
4419.7
3279.04
512.666
194.385
261.419
256.681
619.123
575.648
514.742
449.755
386.015
328.945
293.777
283.388
633.83
465.91
282.454
152.266
100.055
123.451
195.215
344.725
546.964
777.007
1048.05
1069.22
942.96
826.202
765.069
776.694
798.309
772.145
747.818
)
;
    }
    atmosphere
    {
        type            totalPressure;
        U               U.air;
        phi             phi.air;
        rho             rho;
        psi             none;
        gamma           1;
        p0              uniform 0;
        value           nonuniform List<scalar> 
46
(
-0.0160534
-0.0164804
-0.016443
-0.0163894
-0.0162972
-0.0161692
-0.016001
-0.015788
-0.0155271
-0.0152147
-0.0148472
-0.0144213
-0.013933
-0.0133783
-0.0127546
-0.0120605
-0.0112962
-0.0104631
-0.00956409
-0.00860354
-0.00758569
-0.00651264
-0.00540082
-0.00464594
-0.00418766
-0.00377457
-0.00339778
-0.00282762
-0.00215142
-0.00157238
-0.00108464
-0.000699298
-0.000470577
0
0
0
0
0
0
0
0
0
0
0
0
0
)
;
    }
    defaultFaces
    {
        type            empty;
    }
}


// ************************************************************************* //
