/*--------------------------------*- C++ -*----------------------------------*\
| =========                 |                                                 |
| \\      /  F ield         | OpenFOAM: The Open Source CFD Toolbox           |
|  \\    /   O peration     | Version:  2.4.0                                 |
|   \\  /    A nd           | Web:      www.OpenFOAM.org                      |
|    \\/     M anipulation  |                                                 |
\*---------------------------------------------------------------------------*/
FoamFile
{
    version     2.0;
    format      ascii;
    class       surfaceScalarField;
    location    "0.35";
    object      phi.water;
}
// * * * * * * * * * * * * * * * * * * * * * * * * * * * * * * * * * * * * * //

dimensions      [0 3 -1 0 0 0 0];

internalField   nonuniform List<scalar> 
4432
(
3.42647e-06
-3.42625e-06
6.87807e-06
-3.45143e-06
1.02348e-05
-3.35653e-06
1.39841e-05
-3.74915e-06
1.6794e-05
-2.80965e-06
2.11453e-05
-4.35096e-06
2.43529e-05
-3.20718e-06
2.72266e-05
-2.87309e-06
3.11312e-05
-3.90345e-06
3.54842e-05
-4.35152e-06
3.9078e-05
-3.59198e-06
4.1606e-05
-2.52569e-06
4.37954e-05
-2.18625e-06
4.61067e-05
-2.30772e-06
4.88377e-05
-2.72724e-06
5.10233e-05
-2.18184e-06
5.05004e-05
5.26286e-07
4.78362e-05
2.6669e-06
4.23976e-05
5.44013e-06
3.30895e-05
9.30942e-06
2.11288e-05
1.19623e-05
8.73459e-06
1.23956e-05
8.73505e-06
3.42846e-06
-6.85328e-06
6.88378e-06
-6.90558e-06
1.02414e-05
-6.71297e-06
1.39618e-05
-7.46802e-06
1.69387e-05
-5.78506e-06
2.10631e-05
-8.47277e-06
2.42824e-05
-6.4238e-06
2.73802e-05
-5.96735e-06
3.13457e-05
-7.86327e-06
3.54933e-05
-8.49198e-06
3.89623e-05
-7.05298e-06
4.14314e-05
-4.98564e-06
4.405e-05
-4.79454e-06
4.67994e-05
-5.04849e-06
4.9729e-05
-5.64768e-06
5.17423e-05
-4.18384e-06
5.16848e-05
5.94343e-07
4.85721e-05
5.78852e-06
4.2282e-05
1.17423e-05
3.25052e-05
1.91113e-05
2.24426e-05
2.20747e-05
1.155e-05
2.33401e-05
2.03062e-05
3.42893e-06
-1.02751e-05
6.87476e-06
-1.03454e-05
1.02478e-05
-1.00797e-05
1.39103e-05
-1.11232e-05
1.70625e-05
-8.92956e-06
2.08955e-05
-1.22958e-05
2.42188e-05
-9.73677e-06
2.76932e-05
-9.43032e-06
3.15904e-05
-1.17432e-05
3.52299e-05
-1.21014e-05
3.83341e-05
-1.00968e-05
4.15377e-05
-8.0588e-06
4.50625e-05
-7.87275e-06
4.79959e-05
-6.69829e-06
5.07038e-05
-4.23569e-06
5.23637e-05
-3.57661e-07
5.19714e-05
4.15871e-06
4.94431e-05
9.65036e-06
4.25926e-05
1.91406e-05
3.37036e-05
2.83366e-05
2.2087e-05
3.39917e-05
1.2261e-05
3.34302e-05
3.26671e-05
3.42996e-06
-1.34801e-05
6.85929e-06
-1.35214e-05
1.02614e-05
-1.31911e-05
1.38496e-05
-1.41506e-05
1.71568e-05
-1.17984e-05
2.07857e-05
-1.44534e-05
2.41743e-05
-1.14541e-05
2.78653e-05
-1.04689e-05
3.18303e-05
-8.87443e-06
3.46434e-05
-3.97923e-06
3.79561e-05
1.84501e-06
4.19743e-05
9.70708e-06
4.59731e-05
1.33122e-05
4.82694e-05
1.49842e-05
5.157e-05
1.58706e-05
5.16216e-05
2.07091e-05
5.11655e-05
2.52723e-05
4.96825e-05
2.81229e-05
4.38412e-05
3.50599e-05
3.45183e-05
3.97893e-05
2.13577e-05
4.77176e-05
9.7166e-06
4.57152e-05
4.25248e-05
3.43371e-06
4.70513e-06
6.85655e-06
5.33364e-06
1.02903e-05
6.55354e-06
1.38091e-05
6.62956e-06
1.72139e-05
9.7233e-06
2.07017e-05
6.02105e-06
2.43127e-05
8.98726e-06
2.75844e-05
8.94864e-06
3.12603e-05
6.64801e-06
3.38512e-05
9.05367e-06
3.80866e-05
1.14255e-05
4.26335e-05
1.54254e-05
4.74284e-05
1.79214e-05
5.11168e-05
1.96606e-05
5.3258e-05
2.11779e-05
5.28605e-05
2.79314e-05
5.11116e-05
3.92808e-05
4.87467e-05
5.2809e-05
4.00224e-05
6.80292e-05
3.70417e-05
6.29426e-05
2.70708e-05
6.05965e-05
1.3758e-05
5.9368e-05
5.70648e-05
3.60837e-06
1.01876e-05
7.17711e-06
1.04907e-05
1.08031e-05
1.13325e-05
1.42524e-05
1.08194e-05
1.81027e-05
1.33811e-05
2.13548e-05
1.00684e-05
2.55911e-05
1.18777e-05
2.95875e-05
1.19097e-05
3.24991e-05
1.00382e-05
3.61434e-05
1.04172e-05
4.02125e-05
9.33357e-06
4.35342e-05
9.1084e-06
4.64642e-05
7.23077e-06
4.89212e-05
8.37288e-06
5.09917e-05
6.88258e-06
5.27951e-05
9.23274e-06
5.38e-05
1.85643e-05
4.77712e-05
3.16051e-05
3.92186e-05
5.83044e-05
3.48983e-05
8.41159e-05
2.01053e-05
0.00010751
1.46504e-05
7.98621e-05
7.39384e-05
3.63544e-06
5.15792e-06
7.24338e-06
4.95787e-06
1.10053e-05
4.88586e-06
1.41512e-05
3.2125e-06
1.8481e-05
4.92869e-06
2.12052e-05
1.78749e-06
2.5607e-05
1.45216e-06
2.9206e-05
7.14285e-07
3.18404e-05
-1.55517e-06
3.45975e-05
-2.54653e-06
3.68502e-05
-4.89383e-06
3.73075e-05
-5.1783e-06
3.69876e-05
-9.24891e-06
3.53066e-05
-1.04937e-05
3.15053e-05
-1.07813e-05
2.8657e-05
-6.39495e-06
2.67819e-05
1.74709e-06
2.95032e-05
9.9155e-06
3.15373e-05
3.11762e-05
2.37875e-05
6.78292e-05
2.31977e-05
0.000100829
1.35487e-05
0.000116565
9.68649e-05
3.59048e-06
-5.54755e-06
7.16391e-06
-5.83437e-06
1.09421e-05
-6.26198e-06
1.38265e-05
-7.35943e-06
1.86e-05
-8.16499e-06
2.09163e-05
-1.04757e-05
2.34105e-05
-1.26328e-05
2.55158e-05
-1.46324e-05
2.62826e-05
-1.70659e-05
2.56235e-05
-1.80243e-05
2.28647e-05
-1.80907e-05
1.96967e-05
-1.65303e-05
1.63686e-05
-1.58971e-05
1.42051e-05
-1.35238e-05
1.49096e-05
-1.25615e-05
1.60303e-05
-7.70462e-06
1.82659e-05
-5.12642e-07
2.17116e-05
5.92742e-06
2.26429e-05
2.52141e-05
1.13358e-05
5.94984e-05
1.50575e-05
8.68517e-05
1.14824e-05
0.000116308
8.00459e-05
-4.30909e-05
4.18086e-05
-7.72288e-05
3.34974e-05
-9.75987e-05
1.99714e-05
-0.000106878
8.68167e-06
-0.000107705
1.55311e-07
-0.000100234
-8.47666e-06
-8.58574e-05
-1.50971e-05
-5.52775e-05
-3.63717e-05
-1.72509e-05
-6.94985e-05
1.78411e-05
-0.000113545
5.09792e-05
-0.00013
7.61036e-05
-0.000118361
8.95242e-05
-9.83855e-05
9.0633e-05
-8.20158e-05
8.40732e-05
-6.78291e-05
6.78645e-05
-4.79175e-05
4.48845e-05
-2.89012e-05
2.06667e-05
-1.70432e-05
-8.67736e-06
-3.79541e-05
7.98221e-05
-7.25534e-05
6.88779e-05
-9.50911e-05
4.33254e-05
-0.000102739
1.74357e-05
-0.00010055
-5.66355e-07
-9.23925e-05
-1.39872e-05
-7.81701e-05
-2.17097e-05
-4.55113e-05
-5.54265e-05
-7.37099e-06
-8.9835e-05
3.06289e-05
-0.000132858
6.54946e-05
-0.000163495
8.85e-05
-0.000149355
9.72814e-05
-0.000115078
9.67581e-05
-8.78498e-05
8.3114e-05
-5.08484e-05
5.80598e-05
2.12349e-07
2.88893e-05
2.98133e-05
6.88909e-06
2.75213e-05
3.22867e-06
-3.84064e-05
0.000118439
-6.99627e-05
0.000100572
-9.05033e-05
6.39479e-05
-9.40486e-05
2.10246e-05
-9.1097e-05
-3.32539e-06
-8.36817e-05
-2.09368e-05
-6.34539e-05
-3.77796e-05
-2.54417e-05
-8.31876e-05
1.08092e-05
-0.000120187
4.59376e-05
-0.000161343
7.71563e-05
-0.000187619
9.72914e-05
-0.000168596
0.000106413
-0.000129205
9.88593e-05
-7.89416e-05
7.83043e-05
-1.0241e-05
5.3659e-05
4.552e-05
3.1089e-05
6.55543e-05
1.10195e-05
5.24375e-05
8.69876e-06
-3.06916e-05
0.000149175
-6.13096e-05
0.000131162
-7.9267e-05
8.19561e-05
-7.80441e-05
1.98563e-05
-7.07201e-05
-1.1013e-05
-6.37416e-05
-2.83206e-05
-4.42363e-05
-5.30536e-05
-8.32662e-06
-0.000107784
2.57247e-05
-0.000147884
5.91268e-05
-0.000188316
8.58197e-05
-0.000207711
0.000104331
-0.000186366
0.000107587
-0.00013408
9.60625e-05
-5.03308e-05
7.44669e-05
3.51081e-05
5.07314e-05
8.07886e-05
3.15819e-05
8.77459e-05
1.42297e-05
6.82675e-05
2.44552e-05
-2.45678e-05
0.000173731
-5.269e-05
0.000159283
-5.5288e-05
8.46674e-05
-4.09048e-05
4.35199e-07
-3.76085e-05
-5.31744e-05
-3.48018e-05
-6.3096e-05
-2.30154e-05
-6.65148e-05
7.49038e-06
-0.00012841
3.79557e-05
-0.000172729
6.64221e-05
-0.000209102
8.90473e-05
-0.000222805
0.000101153
-0.000210155
0.000105796
-0.000146855
9.14957e-05
-1.48337e-05
6.86256e-05
7.82131e-05
4.96072e-05
0.000106657
3.50569e-05
0.000104194
1.79231e-05
8.3601e-05
4.27276e-05
-1.80863e-05
0.000191803
-3.78885e-05
0.000179106
-2.50429e-05
7.078e-05
-1.24409e-05
-3.29493e-05
-2.79287e-06
-8.12279e-05
4.90024e-06
-0.000122543
6.6872e-06
-0.000118361
2.52343e-05
-0.000144425
4.7798e-05
-0.000190528
7.21764e-05
-0.000226993
9.07981e-05
-0.000239883
9.49727e-05
-0.000257824
8.92286e-05
-0.000236809
8.05101e-05
-3.95533e-06
6.1954e-05
0.000106925
4.77549e-05
0.000122329
3.3529e-05
0.000119283
1.46316e-05
0.000101435
6.04577e-05
-9.12692e-06
0.000200914
-1.51798e-05
0.000185113
-2.17701e-06
3.55497e-05
1.57159e-05
-2.33463e-05
-1.20801e-05
-6.96615e-06
3.97901e-05
-7.33743e-05
4.02313e-05
-0.00012601
4.30294e-05
-0.000175399
5.58941e-05
-0.000201226
7.51131e-05
-0.000239725
8.82831e-05
-0.000264036
9.92637e-05
-0.000272738
7.96779e-05
-0.000235179
6.74131e-05
-4.08335e-05
5.39413e-05
0.000117848
4.25276e-05
0.000134007
2.85008e-05
0.00013386
1.28733e-05
0.000118289
7.54068e-05
1.17499e-06
7.97226e-05
3.44194e-06
0.000141242
1.0311e-05
4.9719e-05
-4.86518e-06
1.96926e-05
-5.51212e-06
1.40369e-07
2.35062e-05
-4.86293e-05
6.42605e-05
-9.09396e-05
5.70589e-05
-0.000179182
6.51095e-05
-0.000213022
7.77151e-05
-0.000247872
8.84178e-05
-0.000267856
9.78672e-05
-0.000269436
8.0557e-05
-0.000214951
5.43703e-05
-0.000119348
4.71094e-05
9.24804e-05
4.05048e-05
0.000140379
2.9588e-05
0.000145023
1.51343e-05
0.000134835
9.09139e-05
5.63326e-06
-2.92228e-05
1.11667e-05
-2.9339e-05
1.61172e-05
-2.90795e-05
1.99456e-05
-2.85844e-05
2.36344e-05
-2.90706e-05
2.6237e-05
-2.89278e-05
2.68612e-05
-2.72694e-05
2.95508e-05
-2.89273e-05
3.14532e-05
-2.76211e-05
3.30162e-05
-2.52388e-05
3.81963e-05
-2.62154e-05
4.77439e-05
-2.72441e-05
5.6806e-05
-2.52053e-05
6.57382e-05
-2.24848e-05
6.60687e-05
-1.28937e-05
6.20847e-05
-3.71886e-06
5.02164e-05
1.13668e-05
3.64721e-05
1.97123e-05
2.94665e-05
3.20024e-05
2.96843e-05
4.96741e-05
2.49015e-05
7.6143e-05
5.36908e-05
9.02654e-05
9.39471e-05
9.42558e-05
2.93509e-06
-3.60883e-05
6.14757e-06
-3.62995e-05
9.5346e-06
-3.58965e-05
1.35743e-05
-3.55393e-05
1.76117e-05
-3.54377e-05
2.27114e-05
-3.55369e-05
2.79366e-05
-3.33873e-05
3.4425e-05
-3.59008e-05
4.05599e-05
-3.40113e-05
4.75598e-05
-3.23638e-05
5.40949e-05
-3.28001e-05
5.87535e-05
-3.19194e-05
6.10849e-05
-2.75403e-05
5.97387e-05
-2.11387e-05
5.87085e-05
-1.18635e-05
6.22348e-05
-7.24472e-06
6.97152e-05
3.88964e-06
7.22254e-05
1.72312e-05
6.95814e-05
3.47411e-05
6.51691e-05
5.40004e-05
4.70615e-05
8.6499e-05
4.90125e-05
8.64507e-05
9.03585e-05
8.02552e-05
5.00024e-06
-4.1095e-05
9.98943e-06
-4.12944e-05
1.50509e-05
-4.09626e-05
2.015e-05
-4.06416e-05
2.48992e-05
-4.01887e-05
2.98355e-05
-4.04741e-05
3.46548e-05
-3.82069e-05
4.01243e-05
-4.13703e-05
4.50112e-05
-3.88981e-05
5.1879e-05
-3.92316e-05
5.85962e-05
-3.95173e-05
6.43097e-05
-3.76329e-05
7.00409e-05
-3.32736e-05
7.80836e-05
-2.91933e-05
8.40637e-05
-1.78617e-05
8.93896e-05
-1.25996e-05
8.978e-05
3.48801e-06
9.24137e-05
1.45953e-05
9.47907e-05
3.23977e-05
9.75747e-05
5.13323e-05
0.000100862
8.31198e-05
8.00037e-05
0.000101786
9.41171e-05
8.44343e-05
5.31849e-06
-4.64134e-05
1.0586e-05
-4.65618e-05
1.58327e-05
-4.62093e-05
2.0862e-05
-4.56709e-05
2.56957e-05
-4.50223e-05
3.00842e-05
-4.48626e-05
3.50997e-05
-4.32223e-05
3.93894e-05
-4.56599e-05
4.4495e-05
-4.40038e-05
5.27353e-05
-4.74719e-05
6.09066e-05
-4.7693e-05
6.72691e-05
-4.40282e-05
7.40209e-05
-4.01535e-05
8.02737e-05
-3.58359e-05
8.75329e-05
-2.58436e-05
9.45615e-05
-2.07584e-05
0.000104085
-7.29629e-06
0.000110377
7.26589e-06
0.000119388
2.26876e-05
0.0001246
4.5777e-05
0.000141984
6.5948e-05
0.000144552
9.83215e-05
0.000104678
0.000133367
5.50387e-06
-5.19174e-05
1.09739e-05
-5.2032e-05
1.62773e-05
-5.15128e-05
2.13689e-05
-5.07626e-05
2.6139e-05
-4.97925e-05
3.01936e-05
-4.89174e-05
3.4779e-05
-4.78078e-05
3.81998e-05
-4.90807e-05
4.3945e-05
-4.97501e-05
5.30807e-05
-5.66436e-05
6.17072e-05
-5.64714e-05
6.93334e-05
-5.22753e-05
7.81946e-05
-5.08943e-05
8.62646e-05
-4.76898e-05
9.59729e-05
-4.10195e-05
0.00010257
-3.41469e-05
0.000109386
-2.08678e-05
0.000117516
-8.04049e-06
0.000127695
6.6229e-06
0.000138808
3.13849e-05
0.000149612
5.3731e-05
0.000176618
7.06376e-05
8.86944e-05
0.000191792
5.80158e-06
-5.81699e-05
1.15316e-05
-5.82313e-05
1.70155e-05
-5.74819e-05
2.21816e-05
-5.64309e-05
2.679e-05
-5.49083e-05
3.05671e-05
-5.31858e-05
3.3885e-05
-5.15287e-05
3.64231e-05
-5.1844e-05
4.24587e-05
-5.58937e-05
5.16589e-05
-6.61504e-05
5.92742e-05
-6.56438e-05
6.55888e-05
-6.2601e-05
6.92808e-05
-6.18155e-05
7.04688e-05
-5.8668e-05
7.19432e-05
-5.31158e-05
7.47435e-05
-4.79066e-05
8.31595e-05
-3.98138e-05
9.44316e-05
-3.10277e-05
0.000107208
-1.63534e-05
0.000124009
6.88835e-06
0.000136976
3.65527e-05
0.000166413
3.76637e-05
6.04149e-05
0.000194401
6.35839e-06
-8.1465e-05
1.24364e-05
-8.18127e-05
1.83277e-05
-8.15191e-05
2.3754e-05
-8.08816e-05
2.83155e-05
-7.94512e-05
3.09831e-05
-7.6957e-05
3.06546e-05
-7.19217e-05
2.95028e-05
-6.55265e-05
3.33164e-05
-6.54458e-05
3.88486e-05
-7.56164e-05
3.89181e-05
-7.2786e-05
2.99929e-05
-6.22199e-05
1.32197e-05
-5.62617e-05
-3.43591e-06
-5.54748e-05
-9.05032e-06
-5.41089e-05
-6.81982e-06
-5.28992e-05
-3.38337e-07
-4.60192e-05
1.12922e-05
-3.66984e-05
4.09719e-05
-3.21064e-05
7.80546e-05
-2.41665e-05
0.000102591
7.52839e-06
0.000128105
2.52178e-06
1.40838e-05
0.000167147
6.47403e-06
-0.000157777
1.2639e-05
-0.00015844
1.8716e-05
-0.000158409
2.46951e-05
-0.000158259
3.04208e-05
-0.000157045
3.52311e-05
-0.000155113
3.53023e-05
-0.000147841
2.47788e-05
-0.000129442
1.05015e-05
-0.000116966
-3.69177e-06
-0.000115559
-1.9137e-05
-0.00010669
-3.69634e-05
-9.0501e-05
-4.13624e-05
-7.74068e-05
-3.67856e-05
-6.85515e-05
-3.11298e-05
-6.10972e-05
-2.44308e-05
-5.24282e-05
-1.62014e-05
-4.22547e-05
-5.08505e-06
-3.20435e-05
5.4972e-06
-2.31974e-05
3.02036e-05
-2.32365e-05
5.88024e-05
-1.05734e-05
7.89258e-05
-2.16722e-05
-2.55493e-05
0.000113107
6.25811e-06
-0.000124533
1.22177e-05
-0.000127073
1.81843e-05
-0.000126386
2.40984e-05
-0.000127998
3.00692e-05
-0.000126828
3.71827e-05
-0.000120413
4.32087e-05
-0.000114942
3.40557e-05
-0.000104476
-1.04797e-05
-0.000103103
-7.1189e-05
-0.000100773
-9.23731e-05
-6.8321e-05
-7.32838e-05
-4.94013e-05
-5.80033e-05
-6.69224e-05
-4.60732e-05
-6.4888e-05
-3.6375e-05
-6.46541e-05
-2.71774e-05
-6.61278e-05
-1.73197e-05
-5.95694e-05
-1.10388e-05
-5.57314e-05
-6.93193e-07
-5.05754e-05
1.22676e-05
-4.55608e-05
2.58077e-05
-1.86646e-05
4.02023e-05
-2.44289e-05
-3.42315e-05
6.52782e-05
-1.72152e-06
-7.17719e-05
-2.33062e-05
-7.12894e-05
-2.99982e-05
-7.3819e-05
-3.16105e-05
-7.75455e-05
-2.93031e-05
-7.86643e-05
-2.0369e-05
-8.60897e-05
-6.33718e-06
-8.95932e-05
1.09927e-05
-5.63167e-05
-9.50456e-06
-2.33557e-05
-5.76405e-05
-8.97677e-06
-5.88247e-05
-6.0168e-06
-3.31723e-05
-2.40614e-06
-2.34258e-05
-1.96273e-05
-1.77163e-05
-3.63072e-05
-1.01032e-05
-5.16998e-05
-3.05284e-06
-6.21808e-05
2.57589e-06
-9.2565e-05
6.67485e-06
-0.000149389
1.12192e-05
-0.000129189
1.78976e-05
-0.000117274
2.74911e-05
-8.76282e-05
2.56685e-05
-5.56871e-05
-3.38894e-05
4.66404e-05
-9.07209e-06
-4.84335e-05
-1.67722e-05
-5.15397e-05
-2.24638e-05
-5.49008e-05
-2.51667e-05
-6.05136e-05
-2.92191e-05
-6.91025e-05
-3.50409e-05
-7.41763e-05
-4.4703e-05
-7.34615e-05
-4.66027e-05
-6.18774e-05
-3.53404e-05
-1.18237e-05
-9.75314e-06
3.54298e-05
1.8173e-05
-5.17185e-05
3.97802e-05
-8.39843e-05
6.21636e-05
-8.49769e-05
8.94173e-05
-8.13233e-05
0.000120402
-7.72345e-05
0.000136474
-6.87439e-05
0.000135805
-4.99861e-05
9.79365e-05
-2.55238e-05
6.26134e-05
-3.08626e-05
5.38007e-05
-5.89592e-05
5.41839e-05
-7.75964e-05
5.88622e-05
-0.000115207
-0.000126348
6.29273e-05
-6.95062e-06
-4.23151e-05
-1.24475e-05
-4.82045e-05
-1.58129e-05
-5.39675e-05
-1.74898e-05
-6.11733e-05
-1.84008e-05
-6.89083e-05
-1.81444e-05
-7.45303e-05
-1.67839e-05
-7.48493e-05
-1.52094e-05
-6.32119e-05
-1.40171e-05
-8.54336e-06
9.3938e-06
1.52685e-05
1.81659e-05
-5.38358e-05
2.08237e-05
-8.50875e-05
2.38694e-05
-8.747e-05
2.57163e-05
-8.26393e-05
2.78075e-05
-7.88662e-05
3.05629e-05
-7.14016e-05
4.03113e-05
-5.98719e-05
7.3744e-05
-5.67183e-05
0.000118896
-5.61469e-05
0.000160892
-6.48292e-05
0.000171302
-5.75168e-05
0.000160316
-3.51387e-05
-2.85725e-05
0.000127251
-9.81466e-08
-4.41028e-05
-4.87321e-07
-4.9321e-05
-1.93085e-06
-5.40591e-05
-4.90863e-06
-5.93859e-05
-1.04849e-05
-6.38375e-05
-1.87171e-05
-6.63814e-05
-2.84458e-05
-6.51419e-05
-3.35102e-05
-5.83062e-05
-3.14554e-06
-4.19706e-05
3.73719e-05
-2.93486e-05
4.71042e-05
-6.35479e-05
4.04774e-05
-7.84804e-05
3.80915e-05
-8.50817e-05
3.95416e-05
-8.40887e-05
4.12047e-05
-8.05293e-05
4.16807e-05
-7.18757e-05
3.82787e-05
-5.64633e-05
2.89589e-05
-4.73916e-05
1.64104e-05
-4.3597e-05
-6.77765e-08
-4.83508e-05
-6.64237e-06
-5.09416e-05
7.77453e-06
-4.93937e-05
-3.44566e-05
1.86505e-05
4.52008e-07
-4.24697e-05
1.07941e-06
-4.8839e-05
7.52172e-07
-5.29055e-05
-7.31724e-07
-5.71895e-05
-3.43148e-06
-6.08139e-05
-7.06177e-06
-6.26837e-05
-1.03521e-05
-6.18401e-05
-1.14656e-05
-5.71822e-05
-4.48762e-06
-4.89102e-05
1.08554e-05
-4.45002e-05
1.3155e-05
-6.57642e-05
1.04362e-05
-7.57553e-05
8.61598e-06
-8.32592e-05
1.06154e-05
-8.60879e-05
1.41718e-05
-8.4086e-05
1.74567e-05
-7.5161e-05
2.285e-05
-6.18571e-05
2.81696e-05
-5.27115e-05
2.95722e-05
-4.50001e-05
1.81992e-05
-3.69781e-05
-5.19673e-06
-2.75457e-05
-2.65239e-05
-2.80663e-05
-1.60504e-05
-4.49302e-05
2.03254e-06
-4.52444e-05
3.18501e-06
-5.01453e-05
3.05493e-06
-5.28261e-05
1.53606e-06
-5.56955e-05
-1.34512e-06
-5.79448e-05
-5.25983e-06
-5.87774e-05
-9.1199e-06
-5.79872e-05
-1.05056e-05
-5.57986e-05
-5.86482e-06
-5.35528e-05
1.53072e-06
-5.18995e-05
1.76746e-07
-6.44123e-05
-3.95019e-06
-7.16298e-05
-9.12866e-06
-7.80803e-05
-1.46328e-05
-8.05835e-05
-1.99904e-05
-7.87284e-05
-2.5757e-05
-6.93943e-05
-2.99923e-05
-5.7622e-05
-3.40581e-05
-4.86461e-05
-3.87969e-05
-4.02618e-05
-4.37905e-05
-3.19847e-05
-4.41809e-05
-2.71555e-05
-4.458e-05
-2.7667e-05
-2.39088e-05
-3.67221e-05
1.72793e-06
-4.69626e-05
2.66639e-06
-5.10787e-05
2.56203e-06
-5.27211e-05
1.17745e-06
-5.4311e-05
-1.51714e-06
-5.52502e-05
-4.87071e-06
-5.54234e-05
-7.89251e-06
-5.49645e-05
-9.39716e-06
-5.42932e-05
-8.73934e-06
-5.42102e-05
-5.89208e-06
-5.47466e-05
-8.74526e-06
-6.15588e-05
-1.40637e-05
-6.6311e-05
-2.2016e-05
-7.01278e-05
-3.00613e-05
-7.25381e-05
-3.74019e-05
-7.13878e-05
-4.29399e-05
-6.38566e-05
-4.66319e-05
-5.39304e-05
-4.90796e-05
-4.61988e-05
-5.0896e-05
-3.84455e-05
-5.09488e-05
-3.1932e-05
-4.91271e-05
-2.89771e-05
-4.80647e-05
-2.87294e-05
-2.31372e-05
-4.88362e-05
6.22414e-07
-4.7585e-05
7.4828e-07
-5.12041e-05
-5.21727e-08
-5.19207e-05
-1.73703e-06
-5.26263e-05
-3.95149e-06
-5.30358e-05
-6.1902e-06
-5.31848e-05
-8.12831e-06
-5.30264e-05
-9.50124e-06
-5.29203e-05
-1.02157e-05
-5.34957e-05
-1.04801e-05
-5.44823e-05
-1.48086e-05
-5.72301e-05
-2.12429e-05
-5.98766e-05
-2.92387e-05
-6.21319e-05
-3.69408e-05
-6.48363e-05
-4.42733e-05
-6.40552e-05
-5.016e-05
-5.79702e-05
-5.39877e-05
-5.01029e-05
-5.51746e-05
-4.50119e-05
-5.35328e-05
-4.00875e-05
-5.14946e-05
-3.39702e-05
-5.01046e-05
-3.03673e-05
-5.0137e-05
-2.86967e-05
-2.54634e-05
-4.7811e-05
-2.26777e-07
-4.73584e-05
-9.27942e-07
-5.0503e-05
-2.1564e-06
-5.06924e-05
-3.60042e-06
-5.11824e-05
-5.04855e-06
-5.15878e-05
-6.49345e-06
-5.174e-05
-7.64209e-06
-5.18779e-05
-8.48578e-06
-5.20767e-05
-9.63804e-06
-5.23435e-05
-1.12228e-05
-5.28975e-05
-1.48702e-05
-5.35827e-05
-2.04285e-05
-5.43183e-05
-2.67336e-05
-5.58269e-05
-3.45367e-05
-5.70332e-05
-4.235e-05
-5.62422e-05
-4.66017e-05
-5.37186e-05
-4.74218e-05
-4.9283e-05
-4.7012e-05
-4.5422e-05
-4.53694e-05
-4.17302e-05
-4.33874e-05
-3.59524e-05
-4.2276e-05
-3.14785e-05
-4.1449e-05
-2.95237e-05
-2.5731e-05
-4.1181e-05
-6.88066e-07
-4.66705e-05
-1.58857e-06
-4.96027e-05
-2.52508e-06
-4.97561e-05
-3.52308e-06
-5.01846e-05
-4.61318e-06
-5.04979e-05
-5.60414e-06
-5.07493e-05
-6.56169e-06
-5.09205e-05
-7.52455e-06
-5.11139e-05
-8.70408e-06
-5.11641e-05
-1.05247e-05
-5.1077e-05
-1.29357e-05
-5.11717e-05
-1.57292e-05
-5.15249e-05
-1.9505e-05
-5.2051e-05
-2.46477e-05
-5.18906e-05
-2.95589e-05
-5.13311e-05
-3.34304e-05
-4.98472e-05
-3.55442e-05
-4.71694e-05
-3.74042e-05
-4.35621e-05
-3.88437e-05
-4.02907e-05
-3.88902e-05
-3.59059e-05
-3.93243e-05
-3.10443e-05
-4.11815e-05
-2.76663e-05
-2.47788e-05
-4.21336e-05
-8.09216e-07
-4.58614e-05
-1.60247e-06
-4.88096e-05
-2.42153e-06
-4.89372e-05
-3.45134e-06
-4.91549e-05
-4.65688e-06
-4.92925e-05
-5.92801e-06
-4.94782e-05
-7.21375e-06
-4.96348e-05
-8.59017e-06
-4.97376e-05
-9.98534e-06
-4.9769e-05
-1.13241e-05
-4.97383e-05
-1.26997e-05
-4.97961e-05
-1.45132e-05
-4.97114e-05
-1.72914e-05
-4.92729e-05
-2.04506e-05
-4.87314e-05
-2.39341e-05
-4.78476e-05
-2.80082e-05
-4.57733e-05
-3.13958e-05
-4.37818e-05
-3.36307e-05
-4.13272e-05
-3.50536e-05
-3.88679e-05
-3.53314e-05
-3.56281e-05
-3.5478e-05
-3.08976e-05
-3.62877e-05
-2.68564e-05
-2.45535e-05
-3.65129e-05
-7.11926e-07
-4.51495e-05
-1.63935e-06
-4.78822e-05
-2.72215e-06
-4.78544e-05
-3.92122e-06
-4.79559e-05
-5.16684e-06
-4.80469e-05
-6.52729e-06
-4.81178e-05
-7.95166e-06
-4.82105e-05
-9.45673e-06
-4.82326e-05
-1.10263e-05
-4.81994e-05
-1.24714e-05
-4.82932e-05
-1.41227e-05
-4.81449e-05
-1.61625e-05
-4.76716e-05
-1.82119e-05
-4.72234e-05
-2.03181e-05
-4.66253e-05
-2.28541e-05
-4.53117e-05
-2.53294e-05
-4.3298e-05
-2.79121e-05
-4.11993e-05
-2.98972e-05
-3.93422e-05
-3.14592e-05
-3.73059e-05
-3.28547e-05
-3.42325e-05
-3.41636e-05
-2.95886e-05
-3.48935e-05
-2.61263e-05
-2.48276e-05
-3.46193e-05
-9.10883e-07
-4.42387e-05
-1.92849e-06
-4.68647e-05
-2.96205e-06
-4.68209e-05
-4.0303e-06
-4.68877e-05
-5.16943e-06
-4.69078e-05
-6.4149e-06
-4.68724e-05
-7.82333e-06
-4.68021e-05
-9.36408e-06
-4.66918e-05
-1.09251e-05
-4.66385e-05
-1.27248e-05
-4.64935e-05
-1.47072e-05
-4.61625e-05
-1.65843e-05
-4.57946e-05
-1.87632e-05
-4.50445e-05
-2.11297e-05
-4.42588e-05
-2.32249e-05
-4.32165e-05
-2.48471e-05
-4.16759e-05
-2.62618e-05
-3.97846e-05
-2.78429e-05
-3.77612e-05
-2.95381e-05
-3.56108e-05
-3.07058e-05
-3.30648e-05
-3.10856e-05
-2.92087e-05
-3.09827e-05
-2.6229e-05
-2.51572e-05
-3.0653e-05
-7.7737e-07
-4.34614e-05
-1.67745e-06
-4.59647e-05
-2.64458e-06
-4.58539e-05
-3.69233e-06
-4.584e-05
-4.81536e-06
-4.57849e-05
-5.98136e-06
-4.57064e-05
-7.20441e-06
-4.55791e-05
-8.4913e-06
-4.5405e-05
-9.96741e-06
-4.51624e-05
-1.15995e-05
-4.48614e-05
-1.30958e-05
-4.46662e-05
-1.46909e-05
-4.41996e-05
-1.64349e-05
-4.33005e-05
-1.84233e-05
-4.22704e-05
-2.04856e-05
-4.11542e-05
-2.22794e-05
-3.98821e-05
-2.38948e-05
-3.81693e-05
-2.55284e-05
-3.61277e-05
-2.6822e-05
-3.43172e-05
-2.79704e-05
-3.19164e-05
-2.83163e-05
-2.88628e-05
-2.8063e-05
-2.64822e-05
-2.53151e-05
-2.79049e-05
-9.61727e-07
-4.24998e-05
-1.99569e-06
-4.49308e-05
-3.02435e-06
-4.48253e-05
-4.08006e-06
-4.47843e-05
-5.1746e-06
-4.46904e-05
-6.31844e-06
-4.45626e-05
-7.49675e-06
-4.44008e-05
-8.69243e-06
-4.42094e-05
-9.87941e-06
-4.39754e-05
-1.11474e-05
-4.35935e-05
-1.28064e-05
-4.30073e-05
-1.46786e-05
-4.23274e-05
-1.62211e-05
-4.1758e-05
-1.76953e-05
-4.07962e-05
-1.93501e-05
-3.94995e-05
-2.09857e-05
-3.82466e-05
-2.2373e-05
-3.67821e-05
-2.34136e-05
-3.50872e-05
-2.43302e-05
-3.34006e-05
-2.52056e-05
-3.10409e-05
-2.56455e-05
-2.84228e-05
-2.5448e-05
-2.66797e-05
-2.52926e-05
-2.54704e-05
-8.6481e-07
-4.1635e-05
-1.81513e-06
-4.39805e-05
-2.77726e-06
-4.38632e-05
-3.75757e-06
-4.38041e-05
-4.74816e-06
-4.36998e-05
-5.75492e-06
-4.35559e-05
-6.79639e-06
-4.33594e-05
-7.9124e-06
-4.30934e-05
-9.17348e-06
-4.27144e-05
-1.05846e-05
-4.21824e-05
-1.20876e-05
-4.15043e-05
-1.35192e-05
-4.08958e-05
-1.50838e-05
-4.01934e-05
-1.663e-05
-3.925e-05
-1.78295e-05
-3.83001e-05
-1.89277e-05
-3.71484e-05
-2.00767e-05
-3.56331e-05
-2.13018e-05
-3.38621e-05
-2.27354e-05
-3.1967e-05
-2.34844e-05
-3.02918e-05
-2.34974e-05
-2.84098e-05
-2.34695e-05
-2.67076e-05
-2.50755e-05
-2.36864e-05
-8.43739e-07
-4.07913e-05
-1.77174e-06
-4.30525e-05
-2.72494e-06
-4.291e-05
-3.72753e-06
-4.28015e-05
-4.78966e-06
-4.26377e-05
-5.91672e-06
-4.24289e-05
-7.09735e-06
-4.21788e-05
-8.30661e-06
-4.18842e-05
-9.49603e-06
-4.1525e-05
-1.05912e-05
-4.10872e-05
-1.15728e-05
-4.05228e-05
-1.26217e-05
-3.98469e-05
-1.38222e-05
-3.8993e-05
-1.50589e-05
-3.80134e-05
-1.65318e-05
-3.68271e-05
-1.81333e-05
-3.5547e-05
-1.93692e-05
-3.43973e-05
-2.02029e-05
-3.30285e-05
-2.07235e-05
-3.14465e-05
-2.109e-05
-2.99253e-05
-2.14679e-05
-2.80318e-05
-2.18525e-05
-2.63229e-05
-2.49661e-05
-2.19618e-05
-8.20542e-07
-3.99708e-05
-1.7007e-06
-4.21724e-05
-2.57834e-06
-4.20324e-05
-3.46413e-06
-4.19158e-05
-4.35888e-06
-4.1743e-05
-5.27225e-06
-4.15156e-05
-6.22496e-06
-4.12261e-05
-7.24414e-06
-4.0865e-05
-8.35082e-06
-4.04183e-05
-9.56936e-06
-3.98687e-05
-1.08732e-05
-3.92189e-05
-1.22335e-05
-3.84866e-05
-1.35106e-05
-3.77159e-05
-1.46972e-05
-3.68269e-05
-1.56627e-05
-3.58617e-05
-1.63657e-05
-3.4844e-05
-1.71343e-05
-3.36287e-05
-1.79835e-05
-3.21793e-05
-1.88142e-05
-3.06158e-05
-1.9706e-05
-2.90335e-05
-2.00801e-05
-2.76577e-05
-2.01953e-05
-2.62076e-05
-2.47347e-05
-2.04266e-05
-8.02551e-07
-3.91683e-05
-1.67159e-06
-4.13034e-05
-2.54584e-06
-4.11582e-05
-3.4396e-06
-4.1022e-05
-4.3522e-06
-4.08304e-05
-5.28203e-06
-4.05858e-05
-6.2272e-06
-4.0281e-05
-7.18671e-06
-3.99055e-05
-8.15459e-06
-3.94505e-05
-9.10865e-06
-3.89146e-05
-1.00432e-05
-3.82844e-05
-1.096e-05
-3.75697e-05
-1.19051e-05
-3.67709e-05
-1.28672e-05
-3.58649e-05
-1.38843e-05
-3.48445e-05
-1.50249e-05
-3.37035e-05
-1.61449e-05
-3.25088e-05
-1.70422e-05
-3.1282e-05
-1.76326e-05
-3.00254e-05
-1.8005e-05
-2.86611e-05
-1.8424e-05
-2.72386e-05
-1.87867e-05
-2.58449e-05
-2.45219e-05
-1.89994e-05
-7.30836e-07
-3.84374e-05
-1.51746e-06
-4.05168e-05
-2.3047e-06
-4.0371e-05
-3.10894e-06
-4.02178e-05
-3.93727e-06
-4.00021e-05
-4.79716e-06
-3.97259e-05
-5.69212e-06
-3.9386e-05
-6.61751e-06
-3.89801e-05
-7.56142e-06
-3.85066e-05
-8.5158e-06
-3.79603e-05
-9.47602e-06
-3.73242e-05
-1.04609e-05
-3.65849e-05
-1.14498e-05
-3.5782e-05
-1.23992e-05
-3.49155e-05
-1.3274e-05
-3.39698e-05
-1.40336e-05
-3.29439e-05
-1.47044e-05
-3.18381e-05
-1.53619e-05
-3.06245e-05
-1.60546e-05
-2.93328e-05
-1.66775e-05
-2.80382e-05
-1.71251e-05
-2.6791e-05
-1.74428e-05
-2.55272e-05
-2.42582e-05
-1.77064e-05
-6.98466e-07
-3.7739e-05
-1.45074e-06
-3.97646e-05
-2.20068e-06
-3.96211e-05
-2.96293e-06
-3.94556e-05
-3.73618e-06
-3.92289e-05
-4.52101e-06
-3.89411e-05
-5.31881e-06
-3.85883e-05
-6.13271e-06
-3.81663e-05
-6.96847e-06
-3.76709e-05
-7.82812e-06
-3.71007e-05
-8.68773e-06
-3.64647e-05
-9.51399e-06
-3.57586e-05
-1.03265e-05
-3.49694e-05
-1.11453e-05
-3.40968e-05
-1.19646e-05
-3.31504e-05
-1.27753e-05
-3.21333e-05
-1.35621e-05
-3.10513e-05
-1.42655e-05
-2.99212e-05
-1.48524e-05
-2.8746e-05
-1.53518e-05
-2.75388e-05
-1.58116e-05
-2.63312e-05
-1.62034e-05
-2.51354e-05
-2.39472e-05
-1.65143e-05
-6.41562e-07
-3.70975e-05
-1.32907e-06
-3.90771e-05
-2.01534e-06
-3.89348e-05
-2.71407e-06
-3.87569e-05
-3.42784e-06
-3.85152e-05
-4.15839e-06
-3.82106e-05
-4.9048e-06
-3.78419e-05
-5.66321e-06
-3.74079e-05
-6.42785e-06
-3.69062e-05
-7.19512e-06
-3.63334e-05
-7.97237e-06
-3.56874e-05
-8.76148e-06
-3.49695e-05
-9.54485e-06
-3.41861e-05
-1.03043e-05
-3.33373e-05
-1.10356e-05
-3.24193e-05
-1.1733e-05
-3.14359e-05
-1.23897e-05
-3.03945e-05
-1.30124e-05
-2.92985e-05
-1.35978e-05
-2.81606e-05
-1.41324e-05
-2.70041e-05
-1.46085e-05
-2.58551e-05
-1.50279e-05
-2.4716e-05
-2.35804e-05
-1.53947e-05
-5.80881e-07
-3.65166e-05
-1.20787e-06
-3.84501e-05
-1.83173e-06
-3.8311e-05
-2.46744e-06
-3.81212e-05
-3.11577e-06
-3.78669e-05
-3.77822e-06
-3.75481e-05
-4.45553e-06
-3.71646e-05
-5.14721e-06
-3.67162e-05
-5.85063e-06
-3.62028e-05
-6.55971e-06
-3.56243e-05
-7.2664e-06
-3.49808e-05
-7.96492e-06
-3.4271e-05
-8.65736e-06
-3.34937e-05
-9.34445e-06
-3.26503e-05
-1.00183e-05
-3.17454e-05
-1.06717e-05
-3.07826e-05
-1.12995e-05
-2.97668e-05
-1.18916e-05
-2.87065e-05
-1.24426e-05
-2.76096e-05
-1.29571e-05
-2.64896e-05
-1.34435e-05
-2.53687e-05
-1.38996e-05
-2.42599e-05
-2.31579e-05
-1.4322e-05
-5.23825e-07
-3.59928e-05
-1.08567e-06
-3.78883e-05
-1.64588e-06
-3.77508e-05
-2.2177e-06
-3.75494e-05
-2.80132e-06
-3.72833e-05
-3.39776e-06
-3.69517e-05
-4.0073e-06
-3.65551e-05
-4.62839e-06
-3.60952e-05
-5.2586e-06
-3.55726e-05
-5.89536e-06
-3.49876e-05
-6.5363e-06
-3.43398e-05
-7.17794e-06
-3.36294e-05
-7.81436e-06
-3.28573e-05
-8.44e-06
-3.20247e-05
-9.05212e-06
-3.11333e-05
-9.64768e-06
-3.0187e-05
-1.02234e-05
-2.91912e-05
-1.07777e-05
-2.81522e-05
-1.13093e-05
-2.70781e-05
-1.18191e-05
-2.59799e-05
-1.23126e-05
-2.48752e-05
-1.27943e-05
-2.37782e-05
-2.26872e-05
-1.3265e-05
-4.53966e-07
-3.55389e-05
-9.48493e-07
-3.73938e-05
-1.44161e-06
-3.72577e-05
-1.94663e-06
-3.70444e-05
-2.46378e-06
-3.67661e-05
-2.99452e-06
-3.6421e-05
-3.54013e-06
-3.60095e-05
-4.09934e-06
-3.5536e-05
-4.66896e-06
-3.5003e-05
-5.24465e-06
-3.44119e-05
-5.82211e-06
-3.37624e-05
-6.39813e-06
-3.30534e-05
-6.97073e-06
-3.22847e-05
-7.5376e-06
-3.14579e-05
-8.09565e-06
-3.05753e-05
-8.64243e-06
-2.96403e-05
-9.17612e-06
-2.86576e-05
-9.69574e-06
-2.76326e-05
-1.02021e-05
-2.65717e-05
-1.06988e-05
-2.54832e-05
-1.11936e-05
-2.43805e-05
-1.16936e-05
-2.32782e-05
-2.21782e-05
-1.22025e-05
-3.81322e-07
-3.51575e-05
-8.08115e-07
-3.6967e-05
-1.2342e-06
-3.68316e-05
-1.67113e-06
-3.66075e-05
-2.11854e-06
-3.63187e-05
-2.57793e-06
-3.59616e-05
-3.05301e-06
-3.55344e-05
-3.54419e-06
-3.50448e-05
-4.04944e-06
-3.44978e-05
-4.56483e-06
-3.38965e-05
-5.08563e-06
-3.32416e-05
-5.60774e-06
-3.25313e-05
-6.12762e-06
-3.17648e-05
-6.64177e-06
-3.09437e-05
-7.14894e-06
-3.00682e-05
-7.64835e-06
-2.91409e-05
-8.13957e-06
-2.81664e-05
-8.62355e-06
-2.71486e-05
-9.1031e-06
-2.60922e-05
-9.58291e-06
-2.50034e-05
-1.00715e-05
-2.38919e-05
-1.05789e-05
-2.27708e-05
-2.16447e-05
-1.11125e-05
-3.00979e-07
-3.48566e-05
-6.66249e-07
-3.66017e-05
-1.0303e-06
-3.64676e-05
-1.40109e-06
-3.62367e-05
-1.77737e-06
-3.59425e-05
-2.15785e-06
-3.55812e-05
-2.54459e-06
-3.51477e-05
-2.94381e-06
-3.46456e-05
-3.36603e-06
-3.40756e-05
-3.81626e-06
-3.34463e-05
-4.28946e-06
-3.27684e-05
-4.77153e-06
-3.20493e-05
-5.25229e-06
-3.12841e-05
-5.72774e-06
-3.04683e-05
-6.1953e-06
-2.96006e-05
-6.65527e-06
-2.86811e-05
-7.10771e-06
-2.7714e-05
-7.55514e-06
-2.67013e-05
-8.00351e-06
-2.56439e-05
-8.45942e-06
-2.45475e-05
-8.93291e-06
-2.34184e-05
-9.4363e-06
-2.22675e-05
-2.1101e-05
-9.97985e-06
-2.21251e-07
-3.46353e-05
-5.48314e-07
-3.62747e-05
-8.71775e-07