/*--------------------------------*- C++ -*----------------------------------*\
| =========                 |                                                 |
| \\      /  F ield         | OpenFOAM: The Open Source CFD Toolbox           |
|  \\    /   O peration     | Version:  2.4.0                                 |
|   \\  /    A nd           | Web:      www.OpenFOAM.org                      |
|    \\/     M anipulation  |                                                 |
\*---------------------------------------------------------------------------*/
FoamFile
{
    version     2.0;
    format      ascii;
    class       surfaceScalarField;
    location    "0.35";
    object      phi.mercury;
}
// * * * * * * * * * * * * * * * * * * * * * * * * * * * * * * * * * * * * * //

dimensions      [0 3 -1 0 0 0 0];

internalField   nonuniform List<scalar> 
4432
(
3.42646e-06
-3.42646e-06
6.87806e-06
-3.4516e-06
1.02348e-05
-3.35669e-06
1.39841e-05
-3.74936e-06
1.6794e-05
-2.80985e-06
2.11453e-05
-4.35136e-06
2.43529e-05
-3.20757e-06
2.72266e-05
-2.87369e-06
3.11311e-05
-3.90456e-06
3.54842e-05
-4.35306e-06
3.9078e-05
-3.59377e-06
4.1606e-05
-2.52799e-06
4.37953e-05
-2.18934e-06
4.61067e-05
-2.31137e-06
4.88377e-05
-2.73103e-06
5.10234e-05
-2.18569e-06
5.05005e-05
5.22878e-07
4.78362e-05
2.66427e-06
4.23976e-05
5.43859e-06
3.30895e-05
9.30817e-06
2.11288e-05
1.19607e-05
8.73458e-06
1.23942e-05
8.73431e-06
3.42846e-06
-6.85492e-06
6.88378e-06
-6.90691e-06
1.02414e-05
-6.71433e-06
1.39618e-05
-7.46974e-06
1.69387e-05
-5.78674e-06
2.10631e-05
-8.47575e-06
2.42823e-05
-6.42681e-06
2.738e-05
-5.9714e-06
3.13455e-05
-7.86998e-06
3.5493e-05
-8.50065e-06
3.89621e-05
-7.06287e-06
4.14311e-05
-4.99695e-06
4.40498e-05
-4.80801e-06
4.67993e-05
-5.06093e-06
4.97291e-05
-5.66079e-06
5.17426e-05
-4.1992e-06
5.16852e-05
5.80342e-07
4.85724e-05
5.77707e-06
4.22823e-05
1.17287e-05
3.25056e-05
1.90848e-05
2.24429e-05
2.20234e-05
1.15497e-05
2.32875e-05
2.02839e-05
3.42897e-06
-1.02839e-05
6.87472e-06
-1.03527e-05
1.02477e-05
-1.00873e-05
1.39102e-05
-1.11323e-05
1.70622e-05
-8.93876e-06
2.08953e-05
-1.23089e-05
2.42184e-05
-9.74986e-06
2.76925e-05
-9.44548e-06
3.15895e-05
-1.1767e-05
3.52291e-05
-1.21402e-05
3.83334e-05
-1.01672e-05
4.15366e-05
-8.2002e-06
4.50601e-05
-8.33145e-06
4.79949e-05
-7.99572e-06
5.07041e-05
-8.37013e-06
5.23646e-05
-5.85991e-06
5.19732e-05
9.71703e-07
4.94449e-05
8.30531e-06
4.26003e-05
1.85733e-05
3.3724e-05
2.79612e-05
2.21014e-05
3.3646e-05
1.22556e-05
3.31333e-05
3.25394e-05
3.43012e-06
-1.3714e-05
6.85911e-06
-1.37817e-05
1.02609e-05
-1.34891e-05
1.38493e-05
-1.47207e-05
1.71565e-05
-1.22459e-05
2.07852e-05
-1.59376e-05
2.41737e-05
-1.31383e-05
2.78654e-05
-1.31373e-05
3.18297e-05
-1.57315e-05
3.46439e-05
-1.49554e-05
3.79523e-05
-1.34784e-05
4.19631e-05
-1.22194e-05
4.60327e-05
-1.24266e-05
4.93293e-05
-1.13532e-05
5.1817e-05
-1.1016e-05
5.22621e-05
-6.54364e-06
5.19187e-05
1.20624e-06
4.9983e-05
1.02126e-05
4.40244e-05
2.45275e-05
3.46816e-05
3.73038e-05
2.14695e-05
4.68581e-05
9.68798e-06
4.49149e-05
4.22273e-05
3.43082e-06
-1.71533e-05
6.85147e-06
-1.72118e-05
1.0272e-05
-1.69207e-05
1.38082e-05
-1.82745e-05
1.72006e-05
-1.56555e-05
2.06405e-05
-1.94137e-05
2.42524e-05
-1.67998e-05
2.80554e-05
-1.70151e-05
3.16529e-05
-1.94789e-05
3.45158e-05
-1.80992e-05
3.82932e-05
-1.77938e-05
4.24104e-05
-1.73292e-05
4.63764e-05
-1.84356e-05
4.98575e-05
-1.84558e-05
5.24537e-05
-2.02894e-05
5.3611e-05
-1.79091e-05
5.34865e-05
-1.07749e-05
5.29055e-05
-3.95727e-07
4.88212e-05
2.36216e-05
4.14746e-05
4.41996e-05
2.76806e-05
6.06517e-05
1.37728e-05
5.88227e-05
5.59999e-05
3.44144e-06
-2.13237e-05
6.87091e-06
-2.14172e-05
1.03422e-05
-2.12501e-05
1.37477e-05
-2.27842e-05
1.73315e-05
-2.04005e-05
2.04892e-05
-2.42847e-05
2.4529e-05
-2.30671e-05
2.83577e-05
-2.37783e-05
3.13006e-05
-2.6783e-05
3.48852e-05
-2.81624e-05
3.89072e-05
-3.11108e-05
4.24675e-05
-3.33956e-05
4.57871e-05
-3.91931e-05
4.84177e-05
-4.60687e-05
5.07595e-05
-5.5684e-05
5.30954e-05
-5.67806e-05
5.49243e-05
-5.26796e-05
5.35445e-05
-2.80988e-05
4.82863e-05
3.95073e-06
4.21704e-05
3.90656e-05
3.06482e-05
7.09367e-05
1.49238e-05
7.45237e-05
7.09235e-05
3.45977e-06
-3.23215e-05
6.9149e-06
-3.26163e-05
1.04485e-05
-3.29137e-05
1.36189e-05
-3.488e-05
1.76116e-05
-3.41012e-05
2.03466e-05
-3.86339e-05
2.44252e-05
-4.10866e-05
2.7993e-05
-4.37149e-05
3.06223e-05
-4.99683e-05
3.35833e-05
-5.81172e-05
3.61164e-05
-6.73723e-05
3.77511e-05
-7.57483e-05
3.8334e-05
-8.35395e-05
3.81061e-05
-8.69461e-05
3.76551e-05
-6.257e-05
3.71425e-05
-5.17716e-05
4.07045e-05
-4.71734e-05
4.78901e-05
-3.27494e-05
4.63881e-05
-1.93487e-05
3.733e-05
2.3114e-05
3.12657e-05
7.06045e-05
2.04003e-05
8.4965e-05
9.13177e-05
3.3709e-06
-5.4845e-05
6.73736e-06
-5.54879e-05
1.01861e-05
-5.6574e-05
1.29734e-05
-5.91858e-05
1.69052e-05
-6.07005e-05
1.9339e-05
-6.53308e-05
2.17447e-05
-6.94843e-05
2.42157e-05
-7.2983e-05
2.56871e-05
-8.00536e-05
2.53471e-05
-8.94413e-05
2.38118e-05
-9.8319e-05
2.31895e-05
-0.000106427
2.32811e-05
-0.000102435
1.99895e-05
-8.11748e-05
1.8141e-05
-4.11007e-05
1.72751e-05
-2.2482e-05
2.1001e-05
-1.0133e-05
3.23738e-05
-1.11988e-05
4.48555e-05
-1.92596e-05
3.33885e-05
7.10194e-06
2.62551e-05
6.16147e-05
1.83659e-05
9.05315e-05
0.000109699
-7.35807e-05
-7.01928e-07
-9.54572e-05
-1.91578e-05
-9.66698e-05
-3.62948e-05
-9.01565e-05
-5.08249e-05
-7.61953e-05
-5.92678e-05
-5.623e-05
-7.75154e-05
-2.78823e-05
-0.00010805
1.87614e-06
-0.000153013
2.179e-05
-0.000187945
4.18537e-05
-0.000227092
6.1628e-05
-0.000219171
7.81936e-05
-0.000208015
9.01414e-05
-0.00018703
9.44405e-05
-0.000170927
9.56844e-05
-0.000162772
9.14344e-05
-0.00015854
8.66405e-05
-0.000142844
7.35829e-05
-0.000125291
-0.000104137
-5.96215e-05
3.61741e-05
-8.97121e-05
3.08529e-05
-0.000100743
8.05376e-06
-9.97302e-05
-1.64404e-05
-8.68577e-05
-3.50577e-05
-6.03394e-05
-6.1958e-05
-9.92732e-06
-0.000104658
3.19641e-05
-0.000164675
4.14882e-05
-0.000195928
5.78442e-05
-0.00024393
7.76251e-05
-0.000248042
9.13007e-05
-0.000237426
9.70242e-05
-0.000207749
0.000101451
-0.000191462
0.000100337
-0.000181393
9.62694e-05
-0.000163657
8.13239e-05
-0.000121029
4.93136e-05
-6.69479e-05
-2.9709e-05
-4.99176e-05
8.17964e-05
-8.15199e-05
7.21791e-05
-9.43103e-05
3.22319e-05
-9.06898e-05
-8.09711e-06
-7.6616e-05
-3.25336e-05
-4.88399e-05
-6.4721e-05
1.13079e-06
-0.000111182
4.07808e-05
-0.000170241
4.77994e-05
-0.000203195
6.85951e-05
-0.000248437
8.65177e-05
-0.00026325
9.89673e-05
-0.000250556
0.00010732
-0.000228318
0.000107997
-0.00021615
0.000102781
-0.000196763
8.90642e-05
-0.000155514
6.05646e-05
-7.79838e-05
2.3617e-05
-1.16602e-05
-1.52385e-06
-3.94011e-05
0.000121657
-7.11551e-05
0.000104543
-8.21086e-05
5.60189e-05
-7.54815e-05
1.50532e-06
-5.63473e-05
-2.99441e-05
-3.12172e-05
-6.0549e-05
2.092e-05
-0.000117919
5.26506e-05
-0.000172367
5.83013e-05
-0.000208494
7.5611e-05
-0.000254961
9.15789e-05
-0.000265736
0.000103535
-0.000262383
0.000109457
-0.000252563
0.000108808
-0.00024
0.000101377
-0.000203831
8.50488e-05
-0.000114954
5.64435e-05
-2.2683e-05
2.36591e-05
1.72173e-05
1.61773e-05
-3.35055e-05
0.000149473
-6.08096e-05
0.000135165
-5.76135e-05
6.55676e-05
-4.08774e-05
-7.27395e-06
-2.99773e-05
-5.56692e-05
-6.23379e-06
-6.6352e-05
4.05396e-05
-0.000103456
6.1033e-05
-0.000179647
6.50117e-05
-0.000210886
7.95217e-05
-0.000255329
9.37867e-05
-0.000263725
0.000102433
-0.000266056
0.000108377
-0.00026845
0.000107337
-0.000255695
9.21365e-05
-0.000173625
7.34025e-05
-3.25201e-05
5.15938e-05
2.90606e-05
2.52258e-05
4.08381e-05
3.25086e-05
-2.71975e-05
0.000174414
-4.22377e-05
0.000160265
-2.70502e-05
5.83026e-05
-1.35809e-05
-2.60184e-05
-4.28912e-06
-5.87283e-05
4.87126e-06
-7.59351e-05
4.02829e-05
-0.000119905
6.9431e-05
-0.000180548
7.203e-05
-0.000210707
8.42107e-05
-0.000254662
9.67154e-05
-0.000261717
0.000103421
-0.000272882
0.000107417
-0.00028178
9.88995e-05
-0.000263445
8.25559e-05
-0.000110184
6.43716e-05
2.36635e-05
4.57788e-05
6.03116e-05
2.05168e-05
6.01356e-05
4.95098e-05
-1.88399e-05
0.000186074
-2.02281e-05
0.00014623
-4.62114e-06
2.35967e-05
1.02566e-05
-2.27057e-05
-1.20839e-05
-7.84156e-06
2.65748e-05
-7.15584e-05
4.77906e-05
-9.32466e-05
7.47457e-05
-0.000158334
7.70387e-05
-0.000205737
8.70919e-05
-0.000250558
9.86495e-05
-0.000265573
0.000107233
-0.000269136
0.000109014
-0.000271245
9.60617e-05
-0.000269327
7.80768e-05
-6.59923e-05
5.93384e-05
5.44358e-05
4.04197e-05
8.11538e-05
1.78113e-05
7.96324e-05
6.6807e-05
-4.37754e-06
0.00011114
-5.32136e-06
8.97202e-05
8.82937e-06
1.96872e-05
-7.07187e-06
2.20089e-05
-3.32485e-06
1.82571e-05
2.60262e-05
-1.65291e-05
4.47465e-05
-3.67497e-05
7.98018e-05
-0.000130542
8.27363e-05
-0.000199999
8.90012e-05
-0.000247441
0.0001009
-0.000260823
0.000107541
-0.000260922
0.000105225
-0.000265624
8.61522e-05
-0.000274613
6.71387e-05
-3.52363e-05
5.55159e-05
8.26285e-05
4.12229e-05
9.89796e-05
1.94097e-05
0.000101503
8.5182e-05
5.75616e-06
-0.000102674
1.13846e-05
-0.000102374
1.66513e-05
-0.000101286
2.03165e-05
-9.90466e-05
2.48251e-05
-9.4697e-05
2.90519e-05
-8.59793e-05
3.14074e-05
-7.47747e-05
3.57368e-05
-6.83886e-05
3.98681e-05
-6.45008e-05
4.21739e-05
-6.24642e-05
4.4969e-05
-6.16706e-05
4.73666e-05
-6.18469e-05
5.22259e-05
-5.18409e-05
5.92047e-05
-2.75664e-05
6.58444e-05
-1.48024e-05
6.32088e-05
-6.09724e-06
5.26643e-05
9.33807e-06
5.05162e-05
1.53028e-05
6.35573e-05
9.96165e-06
6.36634e-05
1.98583e-06
4.52428e-05
3.77189e-05
4.98428e-05
7.30584e-05
9.67302e-05
6.26312e-05
3.54373e-06
-6.54062e-05
7.12944e-06
-6.46895e-05
1.07513e-05
-6.27876e-05
1.42871e-05
-5.96258e-05
1.80073e-05
-5.51599e-05
2.16706e-05
-4.88155e-05
2.56568e-05
-3.9965e-05
3.19559e-05
-3.47905e-05
3.82421e-05
-2.96211e-05
4.47617e-05
-2.67408e-05
5.18773e-05
-2.54756e-05
5.53553e-05
-2.49938e-05
6.13808e-05
-2.34193e-05
6.02504e-05
-1.85414e-05
5.9266e-05
-1.24706e-05
6.09493e-05
-9.69813e-06
6.93247e-05
-1.83944e-06
7.31274e-05
6.95578e-06
6.02611e-05
1.97561e-05
5.95688e-05
2.12271e-05
5.28278e-05
2.27494e-05
5.13064e-05
5.1687e-05
8.11794e-05
6.17766e-05
4.95851e-06
-3.0255e-05
9.90754e-06
-3.05344e-05
1.49223e-05
-3.05464e-05
1.99882e-05
-3.07306e-05
2.47202e-05
-3.09026e-05
2.97334e-05
-3.17328e-05
3.44732e-05
-3.0441e-05
3.99345e-05
-3.3664e-05
4.49298e-05
-3.2568e-05
5.15907e-05
-3.30491e-05
5.85187e-05
-3.42236e-05
6.40956e-05
-3.31286e-05
6.97685e-05
-3.03102e-05
7.80644e-05
-2.71193e-05
8.40459e-05
-1.59826e-05
8.94638e-05
-1.05072e-05
8.96328e-05
5.08485e-06
9.21325e-05
1.47607e-05
7.59005e-05
3.0119e-05
6.32608e-05
3.4261e-05
8.12715e-05
3.0768e-05
7.25173e-05
4.29879e-05
6.75282e-05
7.1754e-05
5.30894e-06
-4.4496e-05
1.05746e-05
-4.47334e-05
1.58147e-05
-4.45138e-05
2.08397e-05
-4.41802e-05
2.56699e-05
-4.37775e-05
3.00713e-05
-4.39135e-05
3.50576e-05
-4.23904e-05
3.93507e-05
-4.51346e-05
4.44678e-05
-4.35523e-05
5.26548e-05
-4.70223e-05
6.08591e-05
-4.73881e-05
6.72327e-05
-4.38298e-05
7.39948e-05
-3.9845e-05
8.02724e-05
-3.52393e-05
8.75335e-05
-2.48094e-05
9.45623e-05
-1.92554e-05
0.000104092
-5.5972e-06
0.000110407
8.7714e-06
0.00011765
2.39687e-05
8.36065e-05
4.66848e-05
0.000108626
4.35577e-05
0.000111177
3.49292e-05
6.80924e-05
0.000101543
5.50364e-06
-5.19166e-05
1.09735e-05
-5.20313e-05
1.6277e-05
-5.15123e-05
2.13688e-05
-5.07624e-05
2.61388e-05
-4.97925e-05
3.01936e-05
-4.89177e-05
3.47789e-05
-4.78081e-05
3.81995e-05
-4.90812e-05
4.39446e-05
-4.97483e-05
5.30763e-05
-5.65824e-05
6.16863e-05
-5.62166e-05
6.93275e-05
-5.13784e-05
7.81472e-05
-4.85265e-05
8.60951e-05
-4.34756e-05
9.57116e-05
-3.53362e-05
0.000102306
-2.73529e-05
0.000109124
-1.40811e-05
0.000117409
-1.07575e-06
0.000128124
1.24345e-05
7.90977e-05
3.52104e-05
0.000117771
4.2508e-05
0.000142247
2.52065e-05
5.51322e-05
0.000129316
5.80158e-06
-5.81563e-05
1.15316e-05
-5.8217e-05
1.70155e-05
-5.74671e-05
2.21816e-05
-5.64155e-05
2.679e-05
-5.48926e-05
3.05672e-05
-5.31705e-05
3.3885e-05
-5.15162e-05
3.64225e-05
-5.18367e-05
4.24299e-05
-5.58205e-05
5.16112e-05
-6.57072e-05
5.90914e-05
-6.35689e-05
6.49184e-05
-5.77752e-05
6.78273e-05
-5.34191e-05
6.83478e-05
-4.71373e-05
6.93855e-05
-3.99148e-05
7.22986e-05
-3.37629e-05
8.06482e-05
-2.57894e-05
9.2947e-05
-1.73646e-05
0.000105669
-3.98225e-06
0.000101397
1.47516e-05
0.000100726
3.89839e-05
0.000140115
1.98777e-05
3.52534e-05
0.000149081
6.35861e-06
-8.08711e-05
1.24367e-05
-8.11967e-05
1.83279e-05
-8.08786e-05
2.37539e-05
-8.0207e-05
2.83146e-05
-7.87393e-05
3.09807e-05
-7.62003e-05
3.06503e-05
-7.11842e-05
2.94441e-05
-6.5007e-05
3.29652e-05
-6.51313e-05
3.81618e-05
-7.34248e-05
3.73776e-05
-6.69756e-05
2.71628e-05
-5.16646e-05
1.10435e-05
-4.10691e-05
-2.14012e-06
-3.56417e-05
-6.14005e-06
-3.42403e-05
-3.56871e-06
-3.31798e-05
2.83685e-06
-2.84566e-05
1.61817e-05
-2.63969e-05
3.62876e-05
-1.91973e-05
6.58901e-05
-1.29293e-05
6.56265e-05
1.29424e-05
0.000111221
4.16943e-06
3.94425e-06
0.000144431
6.4861e-06
-0.000149818
1.26551e-05
-0.000150263
1.87348e-05
-0.000150051
2.47102e-05
-0.000149642
3.04279e-05
-0.000148209
3.52139e-05
-0.000145917
3.51748e-05
-0.000138379
2.37693e-05
-0.000121211
8.44237e-06
-0.000112766
-5.64182e-06
-0.000105666
-2.20238e-05
-8.93828e-05
-3.94438e-05
-6.90985e-05
-4.40201e-05
-6.14505e-05
-4.09896e-05
-5.55971e-05
-3.504e-05
-5.27512e-05
-2.68879e-05
-4.82564e-05
-1.70367e-05
-4.09761e-05
-6.23664e-06
-3.82805e-05
3.91126e-06
-2.92555e-05
2.17628e-05
-2.86713e-05
3.08074e-05
-1.19838e-05
5.92461e-05
-1.18116e-05
-1.8538e-05
0.000104352
4.93829e-06
-0.000106526
9.50968e-06
-0.000107221
1.40797e-05
-0.000105763
1.86671e-05
-0.000105213
2.4187e-05
-0.000103403
3.21918e-05
-9.81412e-05
3.76628e-05
-9.03013e-05
8.33342e-06
-8.03036e-05
-3.28202e-05
-0.00010697
-7.67447e-05
-0.000113198
-9.05833e-05
-0.00011681
-7.87347e-05
-0.00013289
-6.07016e-05
-0.000138346
-4.71287e-05
-0.000125661
-3.71826e-05
-0.000117725
-2.78508e-05
-0.000107868
-1.85325e-05
-9.65681e-05
-1.08574e-05
-8.29932e-05
-7.85268e-07
-6.13549e-05
1.19037e-05
-5.54254e-05
3.03708e-05
-3.46496e-05
3.25576e-05
-3.01996e-05
-2.05208e-05
5.66867e-05
-1.31772e-05
-5.95842e-05
-2.35284e-05
-6.14597e-05
-3.07627e-05
-6.39167e-05
-3.32633e-05
-6.74694e-05
-3.04699e-05
-7.28641e-05
-2.03475e-05
-7.9582e-05
-6.82557e-06
-8.32861e-05
2.20488e-05
-6.96054e-05
2.23381e-05
-1.29678e-05
-3.34907e-05
5.02003e-05
-4.36039e-05
-2.18529e-05
-2.60577e-05
-6.38755e-05
-2.06747e-05
-6.89457e-05
-1.6414e-05
-6.84706e-05
-1.02792e-05
-7.07342e-05
-3.05939e-06
-7.84691e-05
3.27322e-06
-9.72806e-05
6.61854e-06
-0.000155947
1.12399e-05
-0.000129899
1.78573e-05
-0.000117516
2.83355e-05
-8.96672e-05
3.84048e-05
-7.976e-05
-6.45902e-05
4.7629e-05
-9.53597e-06
-5.00465e-05
-1.70177e-05
-5.39771e-05
-2.28594e-05
-5.80743e-05
-2.67894e-05
-6.3539e-05
-2.96914e-05
-6.99607e-05
-3.50533e-05
-7.42139e-05
-4.46081e-05
-7.34806e-05
-4.7481e-05
-6.18063e-05
-3.57364e-05
-1.07189e-05
-1.00059e-05
3.65673e-05
1.92271e-05
-4.64231e-05
3.98953e-05
-8.24133e-05
6.2139e-05
-8.44203e-05
8.93781e-05
-8.07907e-05
0.000120434
-7.67767e-05
0.000136526
-6.86455e-05
0.000135705
-5.01149e-05
9.79251e-05
-2.55762e-05
6.26088e-05
-3.09039e-05
5.37961e-05
-5.89887e-05
5.41932e-05
-7.76075e-05
5.92623e-05
-0.000115356
-0.000137234
6.82175e-05
-7.23503e-06
-4.28112e-05
-1.24384e-05
-4.87736e-05
-1.57855e-05
-5.47272e-05
-1.75666e-05
-6.17579e-05
-1.84315e-05
-6.9096e-05
-1.81437e-05
-7.45059e-05
-1.67881e-05
-7.48496e-05
-1.52379e-05
-6.33594e-05
-1.40416e-05
-1.19073e-05
1.06368e-05
1.18904e-05
1.8145e-05
-5.39309e-05
2.08251e-05
-8.5093e-05
2.38695e-05
-8.74642e-05
2.57166e-05
-8.26373e-05
2.78075e-05
-7.88668e-05
3.05628e-05
-7.14001e-05
4.03115e-05
-5.98654e-05
7.37464e-05
-5.67113e-05
0.000118897
-5.61452e-05
0.000160892
-6.48288e-05
0.000171302
-5.75169e-05
0.000160315
-3.51388e-05
-2.85759e-05
0.000127252
-8.59577e-08
-4.27253e-05
-4.82066e-07
-4.83775e-05
-1.92121e-06
-5.32882e-05
-4.98126e-06
-5.86979e-05
-1.05534e-05
-6.3524e-05
-1.87382e-05
-6.63213e-05
-2.84513e-05
-6.51366e-05
-3.35155e-05
-5.82953e-05
-3.48888e-06
-4.19342e-05
3.75606e-05
-2.91593e-05
4.70951e-05
-6.34654e-05
4.04773e-05
-7.8475e-05
3.80917e-05
-8.50784e-05
3.9542e-05
-8.40872e-05
4.12049e-05
-8.05295e-05
4.16807e-05
-7.18759e-05
3.82787e-05
-5.64634e-05
2.89589e-05
-4.73916e-05
1.64104e-05
-4.3597e-05
-6.77752e-08
-4.83508e-05
-6.64237e-06
-5.09416e-05
7.77454e-06
-4.93936e-05
-3.44566e-05
1.86505e-05
4.73576e-07
-4.31989e-05
1.08334e-06
-4.89875e-05
7.51327e-07
-5.29563e-05
-7.33156e-07
-5.72137e-05
-3.4322e-06
-6.08252e-05
-7.06272e-06
-6.2691e-05
-1.03533e-05
-6.18462e-05
-1.14656e-05
-5.71831e-05
-4.48887e-06
-4.89111e-05
1.08552e-05
-4.45035e-05
1.31552e-05
-6.57655e-05
1.04362e-05
-7.57561e-05
8.61625e-06
-8.32585e-05
1.06157e-05
-8.6087e-05
1.41718e-05
-8.40858e-05
1.74567e-05
-7.51609e-05
2.285e-05
-6.1857e-05
2.81696e-05
-5.27115e-05
2.95722e-05
-4.50001e-05
1.81992e-05
-3.69781e-05
-5.19673e-06
-2.75457e-05
-2.6524e-05
-2.80663e-05
-1.60504e-05
-4.49302e-05
2.03527e-06
-4.52344e-05
3.18629e-06
-5.01387e-05
3.05484e-06
-5.28252e-05
1.53604e-06
-5.56952e-05
-1.34498e-06
-5.79444e-05
-5.25955e-06
-5.87767e-05
-9.11997e-06
-5.7986e-05
-1.05056e-05
-5.57976e-05
-5.86472e-06
-5.35522e-05
1.53068e-06
-5.18991e-05
1.76745e-07
-6.44117e-05
-3.95025e-06
-7.16292e-05
-9.12903e-06
-7.80799e-05
-1.46328e-05
-8.05834e-05
-1.99904e-05
-7.87284e-05
-2.5757e-05
-6.93943e-05
-2.99923e-05
-5.7622e-05
-3.40581e-05
-4.86461e-05
-3.87969e-05
-4.02618e-05
-4.37905e-05
-3.19846e-05
-4.41809e-05
-2.71555e-05
-4.458e-05
-2.7667e-05
-2.39088e-05
-3.67221e-05
1.72764e-06
-4.69623e-05
2.66654e-06
-5.10779e-05
2.56201e-06
-5.27209e-05
1.17743e-06
-5.43108e-05
-1.51714e-06
-5.525e-05
-4.8707e-06
-5.54233e-05
-7.89247e-06
-5.49644e-05
-9.39714e-06
-5.42931e-05
-8.73935e-06
-5.42101e-05
-5.89206e-06
-5.47465e-05
-8.7453e-06
-6.15586e-05
-1.40638e-05
-6.63108e-05
-2.20161e-05
-7.01276e-05
-3.00613e-05
-7.25381e-05
-3.74019e-05
-7.13878e-05
-4.29399e-05
-6.38566e-05
-4.66319e-05
-5.39304e-05
-4.90796e-05
-4.61988e-05
-5.0896e-05
-3.84455e-05
-5.09488e-05
-3.1932e-05
-4.91271e-05
-2.89771e-05
-4.80647e-05
-2.87294e-05
-2.31372e-05
-4.88362e-05
6.22409e-07
-4.75849e-05
7.48279e-07
-5.1204e-05
-5.21821e-08
-5.19207e-05
-1.73703e-06
-5.26262e-05
-3.95149e-06
-5.30358e-05
-6.1902e-06
-5.31848e-05
-8.1283e-06
-5.30264e-05
-9.50124e-06
-5.29203e-05
-1.02157e-05
-5.34957e-05
-1.04801e-05
-5.44823e-05
-1.48086e-05
-5.72301e-05
-2.1243e-05
-5.98765e-05
-2.92388e-05
-6.21319e-05
-3.69408e-05
-6.48363e-05
-4.42733e-05
-6.40552e-05
-5.016e-05
-5.79702e-05
-5.39877e-05
-5.01029e-05
-5.51746e-05
-4.50119e-05
-5.35328e-05
-4.00875e-05
-5.14946e-05
-3.39702e-05
-5.01046e-05
-3.03673e-05
-5.0137e-05
-2.86967e-05
-2.54634e-05
-4.7811e-05
-2.26776e-07
-4.73584e-05
-9.27946e-07
-5.0503e-05
-2.1564e-06
-5.06924e-05
-3.60042e-06
-5.11824e-05
-5.04855e-06
-5.15878e-05
-6.49345e-06
-5.174e-05
-7.64209e-06
-5.18779e-05
-8.48578e-06
-5.20767e-05
-9.63803e-06
-5.23435e-05
-1.12228e-05
-5.28975e-05
-1.48702e-05
-5.35827e-05
-2.04285e-05
-5.43183e-05
-2.67336e-05
-5.58269e-05
-3.45367e-05
-5.70332e-05
-4.235e-05
-5.62422e-05
-4.66017e-05
-5.37186e-05
-4.74218e-05
-4.9283e-05
-4.7012e-05
-4.5422e-05
-4.53694e-05
-4.17302e-05
-4.33874e-05
-3.59524e-05
-4.2276e-05
-3.14785e-05
-4.1449e-05
-2.95237e-05
-2.5731e-05
-4.1181e-05
-6.88066e-07
-4.66705e-05
-1.58857e-06
-4.96027e-05
-2.52508e-06
-4.97561e-05
-3.52308e-06
-5.01846e-05
-4.61318e-06
-5.04979e-05
-5.60414e-06
-5.07493e-05
-6.56169e-06
-5.09205e-05
-7.52455e-06
-5.11139e-05
-8.70408e-06
-5.11641e-05
-1.05247e-05
-5.1077e-05
-1.29357e-05
-5.11717e-05
-1.57292e-05
-5.15249e-05
-1.9505e-05
-5.2051e-05
-2.46477e-05
-5.18906e-05
-2.95589e-05
-5.13311e-05
-3.34304e-05
-4.98472e-05
-3.55442e-05
-4.71694e-05
-3.74042e-05
-4.35621e-05
-3.88437e-05
-4.02907e-05
-3.88902e-05
-3.59059e-05
-3.93243e-05
-3.10443e-05
-4.11815e-05
-2.76663e-05
-2.47788e-05
-4.21336e-05
-8.09216e-07
-4.58614e-05
-1.60247e-06
-4.88096e-05
-2.42153e-06
-4.89372e-05
-3.45134e-06
-4.91549e-05
-4.65688e-06
-4.92925e-05
-5.92801e-06
-4.94782e-05
-7.21375e-06
-4.96348e-05
-8.59017e-06
-4.97376e-05
-9.98534e-06
-4.9769e-05
-1.13241e-05
-4.97383e-05
-1.26997e-05
-4.97961e-05
-1.45132e-05
-4.97114e-05
-1.72914e-05
-4.92729e-05
-2.04506e-05
-4.87314e-05
-2.39341e-05
-4.78476e-05
-2.80082e-05
-4.57733e-05
-3.13958e-05
-4.37818e-05
-3.36307e-05
-4.13272e-05
-3.50536e-05
-3.88679e-05
-3.53314e-05
-3.56281e-05
-3.5478e-05
-3.08976e-05
-3.62877e-05
-2.68564e-05
-2.45535e-05
-3.65129e-05
-7.11926e-07
-4.51495e-05
-1.63935e-06
-4.78822e-05
-2.72215e-06
-4.78544e-05
-3.92122e-06
-4.79559e-05
-5.16684e-06
-4.80469e-05
-6.52729e-06
-4.81178e-05
-7.95166e-06
-4.82105e-05
-9.45673e-06
-4.82326e-05
-1.10263e-05
-4.81994e-05
-1.24714e-05
-4.82932e-05
-1.41227e-05
-4.81449e-05
-1.61625e-05
-4.76716e-05
-1.82119e-05
-4.72234e-05
-2.03181e-05
-4.66253e-05
-2.28541e-05
-4.53117e-05
-2.53294e-05
-4.3298e-05
-2.79121e-05
-4.11993e-05
-2.98972e-05
-3.93422e-05
-3.14592e-05
-3.73059e-05
-3.28547e-05
-3.42325e-05
-3.41636e-05
-2.95886e-05
-3.48935e-05
-2.61263e-05
-2.48276e-05
-3.46193e-05
-9.10883e-07
-4.42387e-05
-1.92849e-06
-4.68647e-05
-2.96205e-06
-4.68209e-05
-4.0303e-06
-4.68877e-05
-5.16943e-06
-4.69078e-05
-6.4149e-06
-4.68724e-05
-7.82333e-06
-4.68021e-05
-9.36408e-06
-4.66918e-05
-1.09251e-05
-4.66385e-05
-1.27248e-05
-4.64935e-05
-1.47072e-05
-4.61625e-05
-1.65843e-05
-4.57946e-05
-1.87632e-05
-4.50445e-05
-2.11297e-05
-4.42588e-05
-2.32249e-05
-4.32165e-05
-2.48471e-05
-4.16759e-05
-2.62618e-05
-3.97846e-05
-2.78429e-05
-3.77612e-05
-2.95381e-05
-3.56108e-05
-3.07058e-05
-3.30648e-05
-3.10856e-05
-2.92087e-05
-3.09827e-05
-2.6229e-05
-2.51572e-05
-3.0653e-05
-7.7737e-07
-4.34614e-05
-1.67745e-06
-4.59647e-05
-2.64458e-06
-4.58539e-05
-3.69233e-06
-4.584e-05
-4.81536e-06
-4.57849e-05
-5.98136e-06
-4.57064e-05
-7.20441e-06
-4.55791e-05
-8.4913e-06
-4.5405e-05
-9.96741e-06
-4.51624e-05
-1.15995e-05
-4.48614e-05
-1.30958e-05
-4.46662e-05
-1.46909e-05
-4.41996e-05
-1.64349e-05
-4.33005e-05
-1.84233e-05
-4.22704e-05
-2.04856e-05
-4.11542e-05
-2.22794e-05
-3.98821e-05
-2.38948e-05
-3.81693e-05
-2.55284e-05
-3.61277e-05
-2.6822e-05
-3.43172e-05
-2.79704e-05
-3.19164e-05
-2.83163e-05
-2.88628e-05
-2.8063e-05
-2.64822e-05
-2.53151e-05
-2.79049e-05
-9.61727e-07
-4.24998e-05
-1.99569e-06
-4.49308e-05
-3.02435e-06
-4.48253e-05
-4.08006e-06
-4.47843e-05
-5.1746e-06
-4.46904e-05
-6.31844e-06
-4.45626e-05
-7.49675e-06
-4.44008e-05
-8.69243e-06
-4.42094e-05
-9.87941e-06
-4.39754e-05
-1.11474e-05
-4.35935e-05
-1.28064e-05
-4.30073e-05
-1.46786e-05
-4.23274e-05
-1.62211e-05
-4.1758e-05
-1.76953e-05
-4.07962e-05
-1.93501e-05
-3.94995e-05
-2.09857e-05
-3.82466e-05
-2.2373e-05
-3.67821e-05
-2.34136e-05
-3.50872e-05
-2.43302e-05
-3.34006e-05
-2.52056e-05
-3.10409e-05
-2.56455e-05
-2.84228e-05
-2.5448e-05
-2.66797e-05
-2.52926e-05
-2.54704e-05
-8.6481e-07
-4.1635e-05
-1.81513e-06
-4.39805e-05
-2.77726e-06
-4.38632e-05
-3.75757e-06
-4.38041e-05
-4.74816e-06
-4.36998e-05
-5.75492e-06
-4.35559e-05
-6.79639e-06
-4.33594e-05
-7.9124e-06
-4.30934e-05
-9.17348e-06
-4.27144e-05
-1.05846e-05
-4.21824e-05
-1.20876e-05
-4.15043e-05
-1.35192e-05
-4.08958e-05
-1.50838e-05
-4.01934e-05
-1.663e-05
-3.925e-05
-1.78295e-05
-3.83001e-05
-1.89277e-05
-3.71484e-05
-2.00767e-05
-3.56331e-05
-2.13018e-05
-3.38621e-05
-2.27354e-05
-3.1967e-05
-2.34844e-05
-3.02918e-05
-2.34974e-05
-2.84098e-05
-2.34695e-05
-2.67076e-05
-2.50755e-05
-2.36864e-05
-8.43739e-07
-4.07913e-05
-1.77174e-06
-4.30525e-05
-2.72494e-06
-4.291e-05
-3.72753e-06
-4.28015e-05
-4.78966e-06
-4.26377e-05
-5.91672e-06
-4.24289e-05
-7.09735e-06
-4.21788e-05
-8.30661e-06
-4.18842e-05
-9.49603e-06
-4.1525e-05
-1.05912e-05
-4.10872e-05
-1.15728e-05
-4.05228e-05
-1.26217e-05
-3.98469e-05
-1.38222e-05
-3.8993e-05
-1.50589e-05
-3.80134e-05
-1.65318e-05
-3.68271e-05
-1.81333e-05
-3.5547e-05
-1.93692e-05
-3.43973e-05
-2.02029e-05
-3.30285e-05
-2.07235e-05
-3.14465e-05
-2.109e-05
-2.99253e-05
-2.14679e-05
-2.80318e-05
-2.18525e-05
-2.63229e-05
-2.49661e-05
-2.19618e-05
-8.20542e-07
-3.99708e-05
-1.7007e-06
-4.21724e-05
-2.57834e-06
-4.20324e-05
-3.46413e-06
-4.19158e-05
-4.35888e-06
-4.1743e-05
-5.27225e-06
-4.15156e-05
-6.22496e-06
-4.12261e-05
-7.24414e-06
-4.0865e-05
-8.35082e-06
-4.04183e-05
-9.56936e-06
-3.98687e-05
-1.08732e-05
-3.92189e-05
-1.22335e-05
-3.84866e-05
-1.35106e-05
-3.77159e-05
-1.46972e-05
-3.68269e-05
-1.56627e-05
-3.58617e-05
-1.63657e-05
-3.4844e-05
-1.71343e-05
-3.36287e-05
-1.79835e-05
-3.21793e-05
-1.88142e-05
-3.06158e-05
-1.9706e-05
-2.90335e-05
-2.00801e-05
-2.76577e-05
-2.01953e-05
-2.62076e-05
-2.47347e-05
-2.04266e-05
-8.02551e-07
-3.91683e-05
-1.67159e-06
-4.13034e-05
-2.54584e-06
-4.11582e-05
-3.4396e-06
-4.1022e-05
-4.3522e-06
-4.08304e-05
-5.28203e-06
-4.05858e-05
-6.2272e-06
-4.0281e-05
-7.18671e-06
-3.99055e-05
-8.15459e-06
-3.94505e-05
-9.10865e-06
-3.89146e-05
-1.00432e-05
-3.82844e-05
-1.096e-05
-3.75697e-05
-1.19051e-05
-3.67709e-05
-1.28672e-05
-3.58649e-05
-1.38843e-05
-3.48445e-05
-1.50249e-05
-3.37035e-05
-1.61449e-05
-3.25088e-05
-1.70422e-05
-3.1282e-05
-1.76326e-05
-3.00254e-05
-1.8005e-05
-2.86611e-05
-1.8424e-05
-2.72386e-05
-1.87867e-05
-2.58449e-05
-2.45219e-05
-1.89994e-05
-7.30836e-07
-3.84374e-05
-1.51746e-06
-4.05168e-05
-2.3047e-06
-4.0371e-05
-3.10894e-06
-4.02178e-05
-3.93727e-06
-4.00021e-05
-4.79716e-06
-3.97259e-05
-5.69212e-06
-3.9386e-05
-6.61751e-06
-3.89801e-05
-7.56142e-06
-3.85066e-05
-8.5158e-06
-3.79603e-05
-9.47602e-06
-3.73242e-05
-1.04609e-05
-3.65849e-05
-1.14498e-05
-3.5782e-05
-1.23992e-05
-3.49155e-05
-1.3274e-05
-3.39698e-05
-1.40336e-05
-3.29439e-05
-1.47044e-05
-3.18381e-05
-1.53619e-05
-3.06245e-05
-1.60546e-05
-2.93328e-05
-1.66775e-05
-2.80382e-05
-1.71251e-05
-2.6791e-05
-1.74428e-05
-2.55272e-05
-2.42582e-05
-1.77064e-05
-6.98466e-07
-3.7739e-05
-1.45074e-06
-3.97646e-05
-2.20068e-06
-3.96211e-05
-2.96293e-06
-3.94556e-05
-3.73618e-06
-3.92289e-05
-4.52101e-06
-3.89411e-05
-5.31881e-06
-3.85883e-05
-6.13271e-06
-3.81663e-05
-6.96847e-06
-3.76709e-05
-7.82812e-06
-3.71007e-05
-8.68773e-06
-3.64647e-05
-9.51399e-06
-3.57586e-05
-1.03265e-05
-3.49694e-05
-1.11453e-05
-3.40968e-05
-1.19646e-05
-3.31504e-05
-1.27753e-05
-3.21333e-05
-1.35621e-05
-3.10513e-05
-1.42655e-05
-2.99212e-05
-1.48524e-05
-2.8746e-05
-1.53518e-05
-2.75388e-05
-1.58116e-05
-2.63312e-05
-1.62034e-05
-2.51354e-05
-2.39472e-05
-1.65143e-05
-6.41562e-07
-3.70975e-05
-1.32907e-06
-3.90771e-05
-2.01534e-06
-3.89348e-05
-2.71407e-06
-3.87569e-05
-3.42784e-06
-3.85152e-05
-4.15839e-06
-3.82106e-05
-4.9048e-06
-3.78419e-05
-5.66321e-06
-3.74079e-05
-6.42785e-06
-3.69062e-05
-7.19512e-06
-3.63334e-05
-7.97237e-06
-3.56874e-05
-8.76148e-06
-3.49695e-05
-9.54485e-06
-3.41861e-05
-1.03043e-05
-3.33373e-05
-1.10356e-05
-3.24193e-05
-1.1733e-05
-3.14359e-05
-1.23897e-05
-3.03945e-05
-1.30124e-05
-2.92985e-05
-1.35978e-05
-2.81606e-05
-1.41324e-05
-2.70041e-05
-1.46085e-05
-2.58551e-05
-1.50279e-05
-2.4716e-05
-2.35804e-05
-1.53947e-05
-5.80881e-07
-3.65166e-05
-1.20787e-06
-3.84501e-05
-1.83173e-06
-3.8311e-05
-2.46744e-06
-3.81212e-05
-3.11577e-06
-3.78669e-05
-3.77822e-06
-3.75481e-05
-4.45553e-06
-3.71646e-05
-5.14721e-06
-3.67162e-05
-5.85063e-06
-3.62028e-05
-6.55971e-06
-3.56243e-05
-7.2664e-06
-3.49808e-05
-7.96492e-06
-3.4271e-05
-8.65736e-06
-3.34937e-05
-9.34445e-06
-3.26503e-05
-1.00183e-05
-3.17454e-05
-1.06717e-05
-3.07826e-05
-1.12995e-05
-2.97668e-05
-1.18916e-05
-2.87065e-05
-1.24426e-05
-2.76096e-05
-1.29571e-05
-2.64896e-05
-1.34435e-05
-2.53687e-05
-1.38996e-05
-2.42599e-05
-2.31579e-05
-1.4322e-05
-5.23825e-07
-3.59928e-05
-1.08567e-06
-3.78883e-05
-1.64588e-06
-3.77508e-05
-2.2177e-06
-3.75494e-05
-2.80132e-06
-3.72833e-05
-3.39776e-06
-3.69517e-05
-4.0073e-06
-3.65551e-05
-4.62839e-06
-3.60952e-05
-5.2586e-06
-3.55726e-05
-5.89536e-06
-3.49876e-05
-6.5363e-06
-3.43398e-05
-7.17794e-06
-3.36294e-05
-7.81436e-06
-3.28573e-05
-8.44e-06
-3.20247e-05
-9.05212e-06
-3.11333e-05
-9.64768e-06
-3.0187e-05
-1.02234e-05
-2.91912e-05
-1.07777e-05
-2.81522e-05
-1.13093e-05
-2.70781e-05
-1.18191e-05
-2.59799e-05
-1.23126e-05
-2.48752e-05
-1.27943e-05
-2.37782e-05
-2.26872e-05
-1.3265e-05
-4.53966e-07
-3.55389e-05
-9.48493e-07
-3.73938e-05
-1.44161e-06
-3.72577e-05
-1.94663e-06
-3.70444e-05
-2.46378e-06
-3.67661e-05
-2.99452e-06
-3.6421e-05
-3.54013e-06
-3.60095e-05
-4.09934e-06
-3.5536e-05
-4.66896e-06
-3.5003e-05
-5.24465e-06
-3.44119e-05
-5.82211e-06
-3.37624e-05
-6.39813e-06
-3.30534e-05
-6.97073e-06
-3.22847e-05
-7.5376e-06
-3.14579e-05
-8.09565e-06
-3.05753e-05
-8.64243e-06
-2.96403e-05
-9.17612e-06
-2.86576e-05
-9.69574e-06
-2.76326e-05
-1.02021e-05
-2.65717e-05
-1.06988e-05
-2.54832e-05
-1.11936e-05
-2.43805e-05
-1.16936e-05
-2.32782e-05
-2.21782e-05
-1.22025e-05
-3.81322e-07
-3.51575e-05
-8.08115e-07
-3.6967e-05
-1.2342e-06
-3.68316e-05
-1.67113e-06
-3.66075e-05
-2.11854e-06
-3.63187e-05
-2.57793e-06
-3.59616e-05
-3.05301e-06
-3.55344e-05
-3.54419e-06
-3.50448e-05
-4.04944e-06
-3.44978e-05
-4.56483e-06
-3.38965e-05
-5.08563e-06
-3.32416e-05
-5.60774e-06
-3.25313e-05
-6.12762e-06
-3.17648e-05
-6.64177e-06
-3.09437e-05
-7.14894e-06
-3.00682e-05
-7.64835e-06
-2.91409e-05
-8.13957e-06
-2.81664e-05
-8.62355e-06
-2.71486e-05
-9.1031e-06
-2.60922e-05
-9.58291e-06
-2.50034e-05
-1.00715e-05
-2.38919e-05
-1.05789e-05
-2.27708e-05
-2.16447e-05
-1.11125e-05
-3.00979e-07
-3.48566e-05
-6.66249e-07
-3.66017e-05
-1.0303e-06
-3.64676e-05
-1.40109e-06
-3.62367e-05
-1.77737e-06
-3.59425e-05
-2.15785e-06
-3.55812e-05
-2.54459e-06
-3.51477e-05
-2.94381e-06
-3.46456e-05
-3.36603e-06
-3.40756e-05
-3.81626e-06
-3.34463e-05
-4.28946e-06
-3.27684e-05
-4.77153e-06
-3.20493e-05
-5.25229e-06
-3.12841e-05
-5.72774e-06
-3.04683e-05
-6.1953e-06
-2.96006e-05
-6.65527e-06
-2.86811e-05
-7.10771e-06
-2.7714e-05
-7.55514e-06
-2.67013e-05
-8.00351e-06
-2.56439e-05
-8.45942e-06
-2.45475e-05
-8.93291e-06
-2.34184e-05
-9.4363e-06
-2.22675e-05
-2.1101e-05