/*--------------------------------*- C++ -*----------------------------------*\
| =========                 |                                                 |
| \\      /  F ield         | OpenFOAM: The Open Source CFD Toolbox           |
|  \\    /   O peration     | Version:  2.4.0                                 |
|   \\  /    A nd           | Web:      www.OpenFOAM.org                      |
|    \\/     M anipulation  |                                                 |
\*---------------------------------------------------------------------------*/
FoamFile
{
    version     2.0;
    format      ascii;
    class       surfaceScalarField;
    location    "0.35";
    object      phi.oil;
}
// * * * * * * * * * * * * * * * * * * * * * * * * * * * * * * * * * * * * * //

dimensions      [0 3 -1 0 0 0 0];

internalField   nonuniform List<scalar> 
4432
(
3.42647e-06
-3.42646e-06
6.87807e-06
-3.4516e-06
1.02348e-05
-3.35669e-06
1.39841e-05
-3.74935e-06
1.6794e-05
-2.80985e-06
2.11453e-05
-4.35135e-06
2.43529e-05
-3.20757e-06
2.72266e-05
-2.87368e-06
3.11311e-05
-3.90455e-06
3.54842e-05
-4.35305e-06
3.9078e-05
-3.59375e-06
4.1606e-05
-2.52781e-06
4.37954e-05
-2.18837e-06
4.61067e-05
-2.30849e-06
4.88377e-05
-2.72574e-06
5.10233e-05
-2.1782e-06
5.05001e-05
5.31783e-07
4.78351e-05
2.67592e-06
4.2394e-05
5.45537e-06
3.30557e-05
9.3417e-06
2.04287e-05
1.2096e-05
7.70116e-06
1.39165e-05
1.40944e-05
3.42846e-06
-6.85493e-06
6.88378e-06
-6.90692e-06
1.02414e-05
-6.71434e-06
1.39618e-05
-7.46975e-06
1.69387e-05
-5.78675e-06
2.10631e-05
-8.47575e-06
2.42823e-05
-6.42681e-06
2.73801e-05
-5.9714e-06
3.13455e-05
-7.86997e-06
3.54931e-05
-8.50064e-06
3.89622e-05
-7.06284e-06
4.14312e-05
-4.99649e-06
4.405e-05
-4.80515e-06
4.67996e-05
-5.05121e-06
4.97291e-05
-5.63593e-06
5.1742e-05
-4.14768e-06
5.16836e-05
6.38679e-07
4.85688e-05
5.84359e-06
4.22738e-05
1.18138e-05
3.24638e-05
1.92164e-05
2.18299e-05
2.22709e-05
1.01628e-05
2.49052e-05
2.59661e-05
3.42897e-06
-1.02839e-05
6.87473e-06
-1.03527e-05
1.02477e-05
-1.00873e-05
1.39102e-05
-1.11323e-05
1.70622e-05
-8.93878e-06
2.08954e-05
-1.23089e-05
2.42184e-05
-9.74988e-06
2.76925e-05
-9.44549e-06
3.15895e-05
-1.1767e-05
3.52291e-05
-1.21402e-05
3.83334e-05
-1.01672e-05
4.15369e-05
-8.19967e-06
4.50607e-05
-8.3265e-06
4.79961e-05
-7.96156e-06
5.07016e-05
-8.17682e-06
5.2361e-05
-5.29793e-06
5.19642e-05
1.59e-06
4.94284e-05
8.91505e-06
4.25632e-05
1.91917e-05
3.36461e-05
2.86209e-05
2.14803e-05
3.43408e-05
1.10358e-05
3.49973e-05
3.90733e-05
3.43012e-06
-1.37141e-05
6.85912e-06
-1.37817e-05
1.02609e-05
-1.34891e-05
1.38493e-05
-1.47207e-05
1.71565e-05
-1.2246e-05
2.07852e-05
-1.59377e-05
2.41737e-05
-1.31384e-05
2.78654e-05
-1.31373e-05
3.18297e-05
-1.57312e-05
3.46439e-05
-1.49541e-05
3.79523e-05
-1.34732e-05
4.19635e-05
-1.22003e-05
4.60356e-05
-1.23558e-05
4.93043e-05
-1.1133e-05
5.16913e-05
-1.01043e-05
5.22345e-05
-3.81418e-06
5.185e-05
4.3906e-06
4.98726e-05
1.25611e-05
4.38587e-05
2.6103e-05
3.44771e-05
3.8624e-05
2.08788e-05
4.80666e-05
8.34629e-06
4.70624e-05
4.90368e-05
3.43082e-06
-1.71348e-05
6.85148e-06
-1.71907e-05
1.0272e-05
-1.68953e-05
1.38082e-05
-1.82323e-05
1.72006e-05
-1.56144e-05
2.06405e-05
-1.93284e-05
2.42524e-05
-1.66868e-05
2.80554e-05
-1.68535e-05
3.16529e-05
-1.91887e-05
3.45155e-05
-1.76125e-05
3.8293e-05
-1.69707e-05
4.24119e-05
-1.59772e-05
4.63769e-05
-1.60446e-05
4.9692e-05
-1.48655e-05
5.16807e-05
-1.43472e-05
5.3454e-05
-7.03354e-06
5.33256e-05
8.15624e-06
5.2576e-05
2.65476e-05
4.84666e-05
3.9958e-05
4.11347e-05
4.96801e-05
2.70594e-05
6.29295e-05
1.2286e-05
6.14438e-05
6.31965e-05
3.44174e-06
-2.02637e-05
6.87153e-06
-2.03014e-05
1.03435e-05
-2.00385e-05
1.37494e-05
-2.13013e-05
1.73354e-05
-1.88615e-05
2.04957e-05
-2.22182e-05
2.45395e-05
-2.05843e-05
2.83764e-05
-2.07813e-05
3.13288e-05
-2.28588e-05
3.49291e-05
-2.29388e-05
3.89716e-05
-2.42141e-05
4.25441e-05
-2.45334e-05
4.5855e-05
-2.70016e-05
4.84147e-05
-2.86726e-05
4.91299e-05
-3.17637e-05
4.89181e-05
-2.4363e-05
5.30077e-05
5.67674e-06
4.96527e-05
2.37906e-05
4.34613e-05
5.64513e-05
3.98775e-05
7.00824e-05
2.98885e-05
7.90378e-05
1.35096e-05
7.84466e-05
7.87484e-05
3.46824e-06
-2.65792e-05
6.93144e-06
-2.67494e-05
1.04796e-05
-2.68163e-05
1.36512e-05
-2.82928e-05
1.76729e-05
-2.7054e-05
2.04201e-05
-3.039e-05
2.45445e-05
-3.13606e-05
2.81449e-05
-3.23315e-05
3.08177e-05
-3.56969e-05
3.37918e-05
-3.90089e-05
3.63071e-05
-4.24031e-05
3.7603e-05
-4.37017e-05
3.77538e-05
-4.59054e-05
3.66103e-05
-4.43864e-05
3.17764e-05
-2.85025e-05
2.16487e-05
-1.53768e-05
2.7186e-05
4.74674e-06
3.30996e-05
1.37197e-05
3.37308e-05
3.53918e-05
2.33913e-05
7.76362e-05
2.54671e-05
9.013e-05
1.94784e-05
9.13239e-05
9.93104e-05
3.41687e-06
-3.98183e-05
6.82919e-06
-4.01564e-05
1.03583e-05
-4.06782e-05
1.31798e-05
-4.20423e-05
1.73552e-05
-4.27252e-05
1.98151e-05
-4.50085e-05
2.23169e-05
-4.66781e-05
2.47314e-05
-4.73348e-05
2.59646e-05
-4.92496e-05
2.55008e-05
-4.97022e-05
2.3179e-05
-4.60034e-05
2.04189e-05
-3.7128e-05
1.70037e-05
-2.46884e-05
1.44414e-05
-1.53366e-05
1.12071e-05
-1.19369e-05
1.29804e-05
-5.70591e-06
1.62334e-05
9.7416e-06
2.16251e-05
2.20327e-05
2.14458e-05
3.97889e-05
7.70243e-06
7.36988e-05
1.33904e-05
8.4291e-05
1.80966e-05
8.58888e-05
0.000112061
-4.24569e-05
4.24663e-05
-7.68115e-05
3.43599e-05
-9.76234e-05
2.08156e-05
-0.000107454
9.83472e-06
-0.000109139
1.68912e-06
-0.000103235
-5.90107e-06
-9.38195e-05
-9.43867e-06
-7.33834e-05
-2.05739e-05
-4.33059e-05
-3.00607e-05
-5.25461e-06
-3.41317e-05
3.98281e-05
-3.48224e-05
7.39525e-05
-2.38212e-05
8.88926e-05
-5.56218e-06
8.67614e-05
1.10427e-05
7.26387e-05
2.12866e-05
4.80561e-05
2.91957e-05
2.02977e-05
3.03862e-05
2.93273e-06
1.88478e-05
3.04858e-06
-3.77368e-05
8.02025e-05
-7.24471e-05
6.90649e-05
-9.50675e-05
4.3429e-05
-0.000102747
1.75052e-05
-0.00010064
-4.27998e-07
-9.29962e-05
-1.35632e-05
-8.29969e-05
-1.94977e-05
-5.88218e-05
-4.50022e-05
-2.65539e-05
-6.31222e-05
8.61421e-06
-7.20978e-05
5.2478e-05
-8.03631e-05
8.55336e-05
-5.60166e-05
9.75588e-05
-1.67458e-05
9.21983e-05
1.61083e-05
7.16109e-05
3.88714e-05
4.5571e-05
5.17119e-05
2.01884e-05
5.39042e-05
3.58906e-06
3.48331e-05
3.31348e-06
-3.83603e-05
0.000118562
-6.99201e-05
0.000100624
-9.0477e-05
6.3985e-05
-9.40646e-05
2.10921e-05
-9.1251e-05
-3.24259e-06
-8.43061e-05
-2.05119e-05
-6.80125e-05
-3.58263e-05
-3.87102e-05
-7.45149e-05
-5.97955e-06
-9.62238e-05
2.939e-05
-0.000107693
6.81959e-05
-0.000120431
9.55355e-05
-8.33992e-05
0.000105508
-2.66133e-05
9.22129e-05
2.64409e-05
6.96103e-05
5.84272e-05
4.90688e-05
7.15038e-05
2.9606e-05
7.31809e-05
1.08736e-05
5.34571e-05
8.10071e-06
-3.06638e-05
0.000149225
-6.12389e-05
0.000131199
-7.92582e-05
8.20038e-05
-7.80825e-05
1.98939e-05
-7.09001e-05
-1.10194e-05
-6.41765e-05
-2.81079e-05
-4.83294e-05
-5.17491e-05
-2.16254e-05
-0.000101468
9.84559e-06
-0.000128153
4.63277e-05
-0.000144545
8.02009e-05
-0.000154394
0.000105149
-0.000109198
0.000106115
-2.9543e-05
9.04794e-05
3.83538e-05
6.96586e-05
7.80708e-05
4.86238e-05
9.23712e-05
3.09075e-05
9.08774e-05
1.4171e-05
6.86975e-05
2.39662e-05
-2.45381e-05
0.000173763
-5.26506e-05
0.000159311
-5.53496e-05
8.46821e-05
-4.09172e-05
-7.88109e-08
-3.77522e-05
-5.67906e-05
-3.51232e-05
-6.63354e-05
-2.70399e-05
-6.5785e-05
-5.43426e-06
-0.000123639
2.40453e-05
-0.000158154
5.60287e-05
-0.00017729
8.44658e-05
-0.000184946
0.000100042
-0.000153648
0.000104355
-5.92884e-05
8.75223e-05
5.26139e-05
6.67485e-05
9.84456e-05
4.90113e-05
0.000110059
3.4844e-05
0.000105277
1.79312e-05
8.36311e-05
4.22939e-05
-1.80595e-05
0.000191823
-3.78813e-05
0.000179125
-2.51099e-05
7.07467e-05
-1.25749e-05
-3.52124e-05
-2.7272e-06
-9.10429e-05
5.25613e-06
-0.000139019
4.56334e-06
-0.00012795
1.23958e-05
-0.000140852
3.43821e-05
-0.000181522
6.25353e-05
-0.000206678
8.50696e-05
-0.000219709
8.79464e-05
-0.000245423
8.15761e-05
-0.000211415
7.75426e-05
4.33887e-05
6.12912e-05
0.000114293
4.75272e-05
0.000123815
3.34557e-05
0.000119874
1.46484e-05
0.000101332
6.02584e-05
-9.1084e-06
0.000200931
-1.51827e-05
0.000185135
-3.91346e-06
3.53249e-05
1.70892e-05
-2.82017e-05
4.26261e-05
-0.000104183
5.31142e-05
-0.000119724
4.20992e-05
-0.000139569
3.15942e-05
-0.000178902
4.29962e-05
-0.000198648
6.53132e-05
-0.000231058
7.76895e-05
-0.000262881
8.24778e-05
-0.00028442
7.17403e-05
-0.000289493
6.44538e-05
-4.10407e-06
5.34603e-05
0.000121343
4.23291e-05
0.000134899
2.84425e-05
0.000134307
1.28797e-05
0.000118248
7.53692e-05
1.17714e-06
0.000200136
2.964e-06
0.000175723
1.12086e-05
4.73046e-05
3.89682e-05
6.50449e-06
7.68341e-05
-6.47336e-05
9.54385e-05
-2.43484e-05
7.61647e-05
-7.05425e-05
4.83707e-05
-0.000197831
5.31355e-05
-0.000220835
6.77635e-05
-0.000248701
7.49717e-05
-0.000276304
7.93746e-05
-0.000286903
6.83131e-05
-0.000288767
5.1814e-05
-9.44019e-05
4.69316e-05
9.32638e-05
4.03878e-05
0.000140751
2.95317e-05
0.000145315
1.51315e-05
0.000134879
9.09081e-05
5.69198e-06
-5.9836e-05
1.1269e-05
-5.94762e-05
1.63599e-05
-5.83127e-05
2.01066e-05
-5.60836e-05
2.4114e-05
-5.3577e-05
2.72445e-05
-4.81192e-05
2.82536e-05
-4.10603e-05
3.10753e-05
-3.8199e-05
3.29778e-05
-3.39781e-05
3.41094e-05
-2.94173e-05
3.86591e-05
-2.84325e-05
4.775e-05
-2.82496e-05
5.69963e-05
-2.54406e-05
6.47964e-05
-2.24424e-05
5.58156e-05
-1.26592e-05
4.77012e-05
-1.58254e-06
3.99794e-05
1.64434e-05
3.12473e-05
2.91835e-05
2.53807e-05
4.71525e-05
2.90912e-05
6.4333e-05
2.33827e-05
8.66836e-05
5.34731e-05
9.02521e-05
8.92377e-05
9.89193e-05
2.94962e-06
-3.65334e-05
6.16858e-06
-3.66925e-05
9.55629e-06
-3.62117e-05
1.3584e-05
-3.57551e-05
1.76154e-05
-3.55566e-05
2.27065e-05
-3.5582e-05
2.79319e-05
-3.33978e-05
3.44233e-05
-3.59003e-05
4.05594e-05
-3.40104e-05
4.75598e-05
-3.23634e-05
5.4096e-05
-3.2806e-05
5.87583e-05
-3.19486e-05
6.10475e-05
-2.75642e-05
5.89334e-05
-2.09505e-05
5.50311e-05
-1.1022e-05
5.43633e-05
-5.8155e-06
5.85432e-05
5.90256e-06
5.98341e-05
2.24733e-05
6.43496e-05
4.82664e-05
6.54094e-05
7.17267e-05
5.28487e-05
0.000104002
4.78753e-05
9.52958e-05
9.56682e-05
8.27624e-05
5.00027e-06
-4.10947e-05
9.98946e-06
-4.12941e-05
1.5051e-05
-4.09624e-05
2.01501e-05
-4.06415e-05
2.48993e-05
-4.01886e-05
2.98356e-05
-4.04741e-05
3.4655e-05
-3.8207e-05
4.01246e-05
-4.13704e-05
4.50117e-05
-3.88994e-05
5.18898e-05
-3.92438e-05
5.8619e-05
-3.95276e-05
6.42836e-05
-3.29885e-05
6.9803e-05
-1.65521e-05
7.74046e-05
-1.0048e-05
8.11957e-05
-4.19125e-06
8.7444e-05
-1.73868e-06
8.32226e-05
9.07838e-06
7.89384e-05
2.04226e-05
8.34071e-05
4.35192e-05
9.76688e-05
6.66469e-05
0.000103322
0.000102164
8.39688e-05
0.000115964
0.000104577
8.82577e-05
5.3185e-06
-4.64134e-05
1.0586e-05
-4.65618e-05
1.58328e-05
-4.62094e-05
2.08621e-05
-4.56709e-05
2.56957e-05
-4.50224e-05
3.00843e-05
-4.48628e-05
3.50998e-05
-4.32225e-05
3.93907e-05
-4.56602e-05
4.45015e-05
-4.40114e-05
5.27596e-05
-4.20069e-05
5.50082e-05
-2.39936e-05
4.9217e-05
-2.24334e-05
6.4623e-05
-2.51505e-05
8.00801e-05
-2.12361e-05
8.81887e-05
-1.04663e-05
9.38423e-05
-4.44399e-06
0.000103597
1.13325e-05
0.000109964
2.63577e-05
0.000119619
4.11997e-05
0.000124299
6.32172e-05
0.000140332
8.34821e-05
0.000147239
0.000115065
0.000118022
0.00013874
5.50387e-06
-5.19175e-05
1.09739e-05
-5.20321e-05
1.62773e-05
-5.15129e-05
2.13689e-05
-5.07627e-05
2.6139e-05
-4.97927e-05
3.01936e-05
-4.89176e-05
3.47791e-05
-4.7808e-05
3.82075e-05
-4.90598e-05
3.89458e-05
-3.00077e-05
3.69221e-05
-3.20333e-05
5.46739e-05
-4.10714e-05
6.89796e-05
-3.72472e-05
7.72508e-05
-3.39861e-05
8.43929e-05
-2.90273e-05
9.39396e-05
-2.13063e-05
0.000100745
-1.36725e-05
0.000107407
-9.88516e-07
0.000116517
1.28151e-05
0.000127134
2.57018e-05
0.000140044
4.58522e-05
0.000152555
6.53105e-05
0.000183012
8.07712e-05
9.6566e-05
0.000201954
5.80158e-06
-5.81563e-05
1.15316e-05
-5.8217e-05
1.70155e-05
-5.74671e-05
2.21816e-05
-5.64155e-05
2.679e-05
-5.48927e-05
3.05672e-05
-5.31711e-05
3.3876e-05
-5.15305e-05
2.24326e-05
-3.4601e-05
3.07454e-05
-3.91754e-05
4.90969e-05
-5.55724e-05
5.66181e-05
-4.9958e-05
6.138e-05
-4.3418e-05
6.39087e-05
-4.00089e-05
6.47602e-05
-3.52657e-05
6.62381e-05
-2.9539e-05
6.979e-05
-2.45802e-05
7.8171e-05
-1.72929e-05
9.13378e-05
-8.77476e-06
0.000103272
4.76993e-06
0.000120301
2.20239e-05
0.000135657
4.56461e-05
0.000172075
4.64289e-05
6.37283e-05
0.000202998
6.35861e-06
-8.08711e-05
1.24367e-05
-8.11967e-05
1.83279e-05
-8.08788e-05
2.37539e-05
-8.02083e-05
2.83148e-05
-7.87456e-05
3.09842e-05
-7.62834e-05
1.87699e-05
-7.34497e-05
1.65826e-05
-5.99651e-05
2.52485e-05
-6.2049e-05
3.41048e-05
-6.2264e-05
3.35078e-05
-5.45891e-05
2.36983e-05
-4.07418e-05
9.69459e-06
-3.27921e-05
-1.72041e-06
-3.00922e-05
-5.58926e-06
-3.11553e-05
-3.16243e-06
-3.13142e-05
3.11657e-06
-2.73161e-05
1.65532e-05
-2.59684e-05
3.54315e-05
-1.85625e-05
6.24209e-05
-1.10673e-05
9.11824e-05
1.20421e-05
0.000123375
1.17672e-05
2.18332e-05
0.000167564
6.4861e-06
-0.000149818
1.26551e-05
-0.000150263
1.87349e-05
-0.000150064
2.47106e-05
-0.000149749
3.04337e-05
-0.000148844
3.48866e-05
-0.00014958
8.14344e-06
-0.000132394
2.71968e-06
-0.000127461
-2.38071e-06
-0.000110624
-9.61785e-06
-9.05924e-05
-2.45024e-05
-7.5544e-05
-4.02372e-05
-6.33124e-05
-4.42468e-05
-6.17453e-05
-4.11162e-05
-5.65469e-05
-3.50951e-05
-5.36118e-05
-2.69039e-05
-4.87934e-05
-1.70393e-05
-4.12191e-05
-6.2396e-06
-3.8387e-05
3.90614e-06
-2.92929e-05
2.08736e-05
-2.86918e-05
4.47318e-05
-1.24729e-05
7.12057e-05
-1.65824e-05
-1.56235e-05
0.000106
4.9383e-06
-0.000106527
9.50993e-06
-0.000107236
1.40803e-05
-0.000106492
1.86674e-05
-0.000112273
2.41101e-05
-0.000125483
1.02592e-05
-0.000128241
-3.0983e-05
-0.000111696
-5.51481e-05
-0.000155207
-5.8368e-05
-0.00014816
-7.98412e-05
-0.000135267
-9.01537e-05
-0.000138207
-7.86029e-05
-0.000146892
-6.05501e-05
-0.000152162
-4.70064e-05
-0.00013824
-3.70344e-05
-0.000128828
-2.77574e-05
-0.000115429
-1.84959e-05
-0.000101552
-1.08426e-05
-8.61463e-05
-7.78707e-07
-6.28872e-05
1.1907e-05
-5.63389e-05
3.01575e-05
-3.48981e-05
4.64094e-05
-3.44287e-05
-3.36081e-05
6.32164e-05
-1.31779e-05
-5.95846e-05
-2.35565e-05
-6.14579e-05
-3.0807e-05
-6.38339e-05
-3.19945e-05
-6.7297e-05
-2.29965e-05
-7.58581e-05
-3.52304e-05
-9.21721e-05
-6.94602e-05
-0.000111304
-8.85633e-05
-9.52717e-05
-0.00010517
-9.93616e-05
-0.000113673
-7.36226e-05
-9.58881e-05
-9.85268e-05
-6.7669e-05
-0.000108667
-4.7568e-05
-0.000106037
-2.90764e-05
-9.3571e-05
-1.3531e-05
-8.96056e-05
-3.84927e-06
-8.76619e-05
3.44934e-06
-0.000106929
6.80895e-06
-0.000172301
1.14034e-05
-0.000143751
1.80753e-05
-0.000129109
2.83807e-05
-9.48463e-05
3.83467e-05
-8.29727e-05
-6.9168e-05
4.78169e-05
-9.53715e-06
-5.00464e-05
-1.70521e-05
-5.39736e-05
-2.28049e-05
-5.79911e-05
-2.57021e-05
-6.27689e-05
-2.2544e-05
-6.75641e-05
-3.47106e-05
-5.23043e-05
-4.13517e-05
-5.26994e-05
-3.40808e-05
-4.53448e-05
-1.24478e-05
-3.99304e-05
6.26313e-07
2.31524e-05
1.5854e-05
-5.90584e-05
3.97379e-05
-8.48457e-05
6.08746e-05
-8.6662e-05
8.28568e-05
-8.47886e-05
9.68672e-05
-8.13596e-05
7.86065e-05
-6.76044e-05
5.52763e-05
-4.57492e-05
3.83701e-05
-0.000103533
4.17456e-05
-0.000100948
5.25865e-05
-9.49993e-05
5.3263e-05
-8.54365e-05
5.93169e-05
-0.00012663
-0.000149884
6.83062e-05
-7.2364e-06
-4.28112e-05
-1.24598e-05
-4.87686e-05
-1.58231e-05
-5.46099e-05
-1.73493e-05
-6.11329e-05
-1.84767e-05
-6.5239e-05
-1.78066e-05
-6.75285e-05
-1.68528e-05
-7.31004e-05
-1.44825e-05
-6.21803e-05
-1.35368e-05
7.09665e-07
4.21309e-06
2.3784e-05
1.82903e-05
-5.40614e-05
2.08399e-05
-8.50725e-05
2.38817e-05
-8.87743e-05
2.56007e-05
-8.37105e-05
2.78979e-05
-7.15337e-05
3.07366e-05
-6.12808e-05
4.12659e-05
-5.5532e-05
7.52804e-05
-5.71839e-05
0.000115789
-5.87259e-05
0.000121433
-7.01258e-05
9.88723e-05
-6.24581e-05
9.20027e-05
-7.55018e-05
-0.000105407
8.82919e-05
-8.59664e-08
-4.27253e-05
-4.83396e-07
-4.83791e-05
-1.93283e-06
-5.33277e-05
-4.99819e-06
-5.88648e-05
-1.05189e-05
-6.37709e-05
-1.87228e-05
-6.6432e-05
-2.84944e-05
-6.52004e-05
-3.34149e-05
-5.85061e-05
-2.08043e-07
-4.2505e-05
3.48562e-05
-3.03854e-05
4.7109e-05
-6.44036e-05
4.01303e-05
-7.84791e-05
3.62808e-05
-8.11726e-05
3.60448e-05
-7.57596e-05
3.99016e-05
-8.21444e-05
3.95141e-05
-7.38441e-05
3.78205e-05
-5.81462e-05
2.74555e-05
-4.68055e-05
1.58014e-05
-4.05312e-05
-7.37765e-07
-4.87878e-05
-6.50446e-06
-5.49589e-05
8.3025e-06
-5.47936e-05
-4.27848e-05
2.13191e-05
4.73578e-07
-4.31989e-05
1.08336e-06
-4.89874e-05
7.51142e-07
-5.29557e-05
-7.33299e-07
-5.72118e-05
-3.43184e-06
-6.08235e-05
-7.06253e-06
-6.26904e-05
-1.03537e-05
-6.18459e-05
-1.14667e-05
-5.71808e-05
-4.48379e-06
-4.88984e-05
1.08522e-05
-4.44845e-05
1.31419e-05
-6.57642e-05
9.36897e-06
-7.58069e-05
7.2018e-06
-8.19306e-05
1.01041e-05
-8.78423e-05
1.33442e-05
-8.66553e-05
1.68689e-05
-7.79658e-05
1.8946e-05
-6.35205e-05
2.81396e-05
-5.30091e-05
2.93043e-05
-4.43765e-05
1.69806e-05
-3.54008e-05
-6.35215e-06
-2.3892e-05
-2.71822e-05
-2.37085e-05
-9.88563e-06
-4.36594e-05
2.03527e-06
-4.52344e-05
3.18629e-06
-5.01387e-05
3.05483e-06
-5.28252e-05
1.53602e-06
-5.56952e-05
-1.34501e-06
-5.79445e-05
-5.25958e-06
-5.87768e-05
-9.12006e-06
-5.79861e-05
-1.05056e-05
-5.57979e-05
-5.86404e-06
-5.35527e-05
1.531e-06
-5.19001e-05
1.15525e-07
-6.44131e-05
-4.11454e-06
-7.16652e-05
-9.77918e-06
-7.90017e-05
-1.55896e-05
-8.29756e-05
-2.10327e-05
-8.1077e-05
-2.51438e-05
-6.67938e-05
-2.59587e-05
-5.24093e-05
-3.38479e-05
-4.90209e-05
-3.88857e-05
-4.04534e-05
-4.374e-05
-3.23765e-05
-4.42177e-05
-2.75586e-05
-4.45789e-05
-2.86293e-05
-2.57021e-05
-3.6735e-05
1.72764e-06
-4.69623e-05
2.66654e-06
-5.10779e-05
2.56201e-06
-5.27209e-05
1.17741e-06
-5.43109e-05
-1.51716e-06
-5.52501e-05
-4.87073e-06
-5.54234e-05
-7.89259e-06
-5.49645e-05
-9.39726e-06
-5.42933e-05
-8.73884e-06
-5.42107e-05
-5.89211e-06
-5.47476e-05
-8.81507e-06
-6.15598e-05
-1.36606e-05
-6.63962e-05
-2.10028e-05
-6.86857e-05
-3.07471e-05
-6.70839e-05
-3.46836e-05
-7.20211e-05
-3.9354e-05
-6.13333e-05
-4.65564e-05
-5.41459e-05
-4.91066e-05
-4.6377e-05
-5.0946e-05
-3.86964e-05
-5.08262e-05
-3.19704e-05
-4.92138e-05
-2.83534e-05
-4.80482e-05
-2.79872e-05
-2.25113e-05
-4.8745e-05
6.22409e-07
-4.75849e-05
7.48279e-07
-5.1204e-05
-5.21855e-08
-5.19207e-05
-1.73704e-06
-5.26262e-05
-3.9515e-06
-5.30358e-05
-6.19022e-06
-5.31848e-05
-8.12839e-06
-5.30265e-05
-9.50139e-06
-5.29205e-05
-1.02157e-05
-5.34963e-05
-1.04808e-05
-5.44834e-05
-1.4853e-05
-5.72317e-05
-2.13991e-05
-5.99083e-05
-2.88504e-05
-6.22405e-05
-3.66117e-05
-6.33949e-05
-3.85091e-05
-5.95473e-05
-5.00411e-05
-5.7723e-05
-5.40535e-05
-4.97352e-05
-5.51294e-05
-4.51054e-05
-5.35573e-05
-4.02509e-05
-5.15112e-05
-3.41046e-05
-5.00974e-05
-3.04539e-05
-5.0147e-05
-2.87321e-05
-2.54944e-05
-4.78333e-05
-2.26776e-07
-4.73584e-05
-9.27946e-07
-5.0503e-05
-2.1564e-06
-5.06924e-05
-3.60042e-06
-5.11824e-05
-5.04856e-06
-5.15878e-05
-6.49346e-06
-5.174e-05
-7.64213e-06
-5.18779e-05
-8.48587e-06
-5.20768e-05
-9.63834e-06
-5.2344e-05
-1.1224e-05
-5.28986e-05
-1.49084e-05
-5.35853e-05
-2.05407e-05
-5.43487e-05
-2.68712e-05
-5.59482e-05
-3.47422e-05
-5.73466e-05
-4.25206e-05
-5.67066e-05
-4.66652e-05
-5.42414e-05
-4.74677e-05
-4.9597e-05
-4.69126e-05
-4.57059e-05
-4.53179e-05
-4.19327e-05
-4.3341e-05
-3.60815e-05
-4.22681e-05
-3.15329e-05
-4.14512e-05
-2.95605e-05
-2.57505e-05
-4.11819e-05
-6.88066e-07
-4.66705e-05
-1.58857e-06
-4.96027e-05
-2.52508e-06
-4.97561e-05
-3.52308e-06
-5.01846e-05
-4.61318e-06
-5.04979e-05
-5.60414e-06
-5.07493e-05
-6.56172e-06
-5.09205e-05
-7.52463e-06
-5.1114e-05
-8.70443e-06
-5.11644e-05
-1.05258e-05
-5.1078e-05
-1.29388e-05
-5.11742e-05
-1.57633e-05
-5.15301e-05
-1.95907e-05
-5.20995e-05
-2.47798e-05
-5.20621e-05
-2.94388e-05
-5.16849e-05
-3.3579e-05
-5.01055e-05
-3.55321e-05
-4.75431e-05
-3.72266e-05
-4.39529e-05
-3.86292e-05
-4.05912e-05
-3.87869e-05
-3.60797e-05
-3.92635e-05
-3.11232e-05
-4.11655e-05
-2.76934e-05
-2.47848e-05
-4.21338e-05
-8.09216e-07
-4.58614e-05
-1.60247e-06
-4.88096e-05
-2.42153e-06
-4.89372e-05
-3.45134e-06
-4.91549e-05
-4.65688e-06
-4.92925e-05
-5.92801e-06
-4.94782e-05
-7.21377e-06
-4.96348e-05
-8.59023e-06
-4.97376e-05
-9.98552e-06
-4.97691e-05
-1.13244e-05
-4.97388e-05
-1.26999e-05
-4.9797e-05
-1.45318e-05
-4.97129e-05
-1.73243e-05
-4.93002e-05
-2.04711e-05
-4.87361e-05
-2.40244e-05
-4.78738e-05
-2.81359e-05
-4.58873e-05
-3.14438e-05
-4.3947e-05
-3.35669e-05
-4.15599e-05
-3.4916e-05
-3.91074e-05
-3.52383e-05
-3.58138e-05
-3.54425e-05
-3.09991e-05
-3.6275e-05
-2.68941e-05
-2.45639e-05
-3.65136e-05
-7.11926e-07
-4.51495e-05
-1.63935e-06
-4.78822e-05
-2.72215e-06
-4.78544e-05
-3.92122e-06
-4.79559e-05
-5.16684e-06
-4.80469e-05
-6.5273e-06
-4.81178e-05
-7.95167e-06
-4.82105e-05
-9.45675e-06
-4.82326e-05
-1.10264e-05
-4.81995e-05
-1.24715e-05
-4.82934e-05
-1.41226e-05
-4.81452e-05
-1.61641e-05
-4.76718e-05
-1.82275e-05
-4.7226e-05
-2.03249e-05
-4.66478e-05
-2.28942e-05
-4.52091e-05
-2.5385e-05
-4.31665e-05
-2.79541e-05
-4.10334e-05
-2.98938e-05
-3.91934e-05
-3.1407e-05
-3.72104e-05
-3.27971e-05
-3.42205e-05
-3.41346e-05
-2.95999e-05
-3.48892e-05
-2.61317e-05
-2.48291e-05
-3.46205e-05
-9.10883e-07
-4.42387e-05
-1.92849e-06
-4.68647e-05
-2.96205e-06
-4.68209e-05
-4.0303e-06
-4.68877e-05
-5.16943e-06
-4.69078e-05
-6.4149e-06
-4.68724e-05
-7.82333e-06
-4.68021e-05
-9.36409e-06
-4.66918e-05
-1.09251e-05
-4.66385e-05
-1.27248e-05
-4.64935e-05
-1.47072e-05
-4.61626e-05
-1.65843e-05
-4.57946e-05
-1.87653e-05
-4.50446e-05
-2.11404e-05
-4.42614e-05
-2.32387e-05
-4.32292e-05
-2.48642e-05
-4.16721e-05
-2.62773e-05
-3.97847e-05
-2.78433e-05
-3.77906e-05
-2.95302e-05
-3.567e-05
-3.07057e-05
-3.31032e-05
-3.10825e-05
-2.92252e-05
-3.09843e-05
-2.62373e-05
-2.51593e-05
-3.06534e-05
-7.7737e-07
-4.34614e-05
-1.67745e-06
-4.59647e-05
-2.64458e-06
-4.58539e-05
-3.69233e-06
-4.584e-05
-4.81536e-06
-4.57849e-05
-5.98136e-06
-4.57064e-05
-7.20441e-06
-4.55791e-05
-8.4913e-06
-4.5405e-05
-9.96741e-06
-4.51624e-05
-1.15995e-05
-4.48614e-05
-1.30958e-05
-4.46662e-05
-1.46909e-05
-4.41996e-05
-1.64349e-05
-4.33005e-05
-1.84236e-05
-4.22704e-05
-2.04884e-05
-4.11549e-05
-2.22849e-05
-3.98878e-05
-2.38994e-05
-3.81847e-05
-2.55298e-05
-3.6142e-05
-2.68211e-05
-3.43217e-05
-2.79697e-05
-3.19195e-05
-2.83169e-05
-2.88651e-05
-2.80634e-05
-2.6483e-05
-2.53154e-05
-2.7905e-05
-9.61727e-07
-4.24998e-05
-1.99569e-06
-4.49308e-05
-3.02435e-06
-4.48253e-05
-4.08006e-06
-4.47843e-05
-5.1746e-06
-4.46904e-05
-6.31844e-06
-4.45626e-05
-7.49675e-06
-4.44008e-05
-8.69243e-06
-4.42094e-05
-9.87941e-06
-4.39754e-05
-1.11474e-05
-4.35935e-05
-1.28064e-05
-4.30073e-05
-1.46786e-05
-4.23274e-05
-1.62211e-05
-4.1758e-05
-1.76953e-05
-4.07963e-05
-1.93502e-05
-3.94995e-05
-2.09863e-05
-3.82467e-05
-2.23739e-05
-3.67827e-05
-2.3414e-05
-3.50888e-05
-2.43301e-05
-3.34034e-05
-2.52055e-05
-3.10421e-05
-2.56456e-05
-2.8423e-05
-2.5448e-05
-2.66798e-05
-2.52926e-05
-2.54704e-05
-8.6481e-07
-4.1635e-05
-1.81513e-06
-4.39805e-05
-2.77726e-06
-4.38632e-05
-3.75757e-06
-4.38041e-05
-4.74816e-06
-4.36998e-05
-5.75492e-06
-4.35559e-05
-6.79639e-06
-4.33594e-05
-7.9124e-06
-4.30934e-05
-9.17348e-06
-4.27144e-05
-1.05846e-05
-4.21824e-05
-1.20876e-05
-4.15043e-05
-1.35192e-05
-4.08958e-05
-1.50838e-05
-4.01934e-05
-1.663e-05
-3.925e-05
-1.78295e-05
-3.83001e-05
-1.89277e-05
-3.71484e-05
-2.00767e-05
-3.56332e-05
-2.13018e-05
-3.38622e-05
-2.27354e-05
-3.19672e-05
-2.34845e-05
-3.02919e-05
-2.34974e-05
-2.84098e-05
-2.34695e-05
-2.67076e-05
-2.50756e-05
-2.36864e-05
-8.43739e-07
-4.07913e-05
-1.77174e-06
-4.30525e-05
-2.72494e-06
-4.291e-05
-3.72753e-06
-4.28015e-05
-4.78966e-06
-4.26377e-05
-5.91672e-06
-4.24289e-05
-7.09735e-06
-4.21788e-05
-8.30661e-06
-4.18842e-05
-9.49603e-06
-4.1525e-05
-1.05912e-05
-4.10872e-05
-1.15728e-05
-4.05228e-05
-1.26217e-05
-3.98469e-05
-1.38222e-05
-3.8993e-05
-1.50589e-05
-3.80134e-05
-1.65318e-05
-3.68271e-05
-1.81334e-05
-3.5547e-05
-1.93692e-05
-3.43973e-05
-2.02029e-05
-3.30285e-05
-2.07235e-05
-3.14465e-05
-2.109e-05
-2.99253e-05
-2.14679e-05
-2.80318e-05
-2.18525e-05
-2.63229e-05
-2.49661e-05
-2.19618e-05
-8.20542e-07
-3.99708e-05
-1.7007e-06
-4.21724e-05
-2.57834e-06
-4.20324e-05
-3.46413e-06
-4.19158e-05
-4.35888e-06
-4.1743e-05
-5.27225e-06
-4.15156e-05
-6.22496e-06
-4.12261e-05
-7.24414e-06
-4.0865e-05
-8.35082e-06
-4.04183e-05
-9.56936e-06
-3.98687e-05
-1.08732e-05
-3.92189e-05
-1.22335e-05
-3.84866e-05
-1.35106e-05
-3.77159e-05
-1.46972e-05
-3.68269e-05
-1.56627e-05
-3.58617e-05
-1.63657e-05
-3.4844e-05
-1.71343e-05
-3.36287e-05
-1.79835e-05
-3.21793e-05
-1.88142e-05
-3.06158e-05
-1.9706e-05
-2.90335e-05
-2.00801e-05
-2.76577e-05
-2.01953e-05
-2.62076e-05
-2.47347e-05
-2.04266e-05
-8.02551e-07
-3.91683e-05
-1.67159e-06
-4.13034e-05
-2.54584e-06
-4.11582e-05
-3.4396e-06
-4.1022e-05
-4.3522e-06
-4.08304e-05
-5.28203e-06
-4.05858e-05
-6.2272e-06
-4.0281e-05
-7.18671e-06
-3.99055e-05
-8.15459e-06
-3.94505e-05
-9.10865e-06
-3.89146e-05
-1.00432e-05
-3.82844e-05
-1.096e-05
-3.75697e-05
-1.19051e-05
-3.67709e-05
-1.28672e-05
-3.58649e-05
-1.38843e-05
-3.48445e-05
-1.50249e-05
-3.37035e-05
-1.61449e-05
-3.25088e-05
-1.70422e-05
-3.1282e-05
-1.76326e-05
-3.00254e-05
-1.8005e-05
-2.86611e-05
-1.8424e-05
-2.72386e-05
-1.87867e-05
-2.58449e-05
-2.45219e-05
-1.89994e-05
-7.30836e-07
-3.84374e-05
-1.51746e-06
-4.05168e-05
-2.3047e-06
-4.0371e-05
-3.10894e-06
-4.02178e-05
-3.93727e-06
-4.00021e-05
-4.79716e-06
-3.97259e-05
-5.69212e-06
-3.9386e-05
-6.61751e-06
-3.89801e-05
-7.56142e-06
-3.85066e-05
-8.5158e-06
-3.79603e-05
-9.47602e-06
-3.73242e-05
-1.04609e-05
-3.65849e-05
-1.14498e-05
-3.5782e-05
-1.23992e-05
-3.49155e-05
-1.3274e-05
-3.39698e-05
-1.40336e-05
-3.29439e-05
-1.47044e-05
-3.18381e-05
-1.53619e-05
-3.06245e-05
-1.60546e-05
-2.93328e-05
-1.66775e-05
-2.80382e-05
-1.71251e-05
-2.6791e-05
-1.74428e-05
-2.55272e-05
-2.42582e-05
-1.77064e-05
-6.98466e-07
-3.7739e-05
-1.45074e-06
-3.97646e-05
-2.20068e-06
-3.96211e-05
-2.96293e-06
-3.94556e-05
-3.73618e-06
-3.92289e-05
-4.52101e-06
-3.89411e-05
-5.31881e-06
-3.85883e-05
-6.13271e-06
-3.81663e-05
-6.96847e-06
-3.76709e-05
-7.82812e-06
-3.71007e-05
-8.68773e-06
-3.64647e-05
-9.51399e-06
-3.57586e-05
-1.03265e-05
-3.49694e-05
-1.11453e-05
-3.40968e-05
-1.19646e-05
-3.31504e-05
-1.27753e-05
-3.21333e-05
-1.35621e-05
-3.10513e-05
-1.42655e-05
-2.99212e-05
-1.48524e-05
-2.8746e-05
-1.53518e-05
-2.75388e-05
-1.58116e-05
-2.63312e-05
-1.62034e-05
-2.51354e-05
-2.39472e-05
-1.65143e-05
-6.41562e-07
-3.70975e-05
-1.32907e-06
-3.90771e-05
-2.01534e-06
-3.89348e-05
-2.71407e-06
-3.87569e-05
-3.42784e-06
-3.85152e-05
-4.15839e-06
-3.82106e-05
-4.9048e-06
-3.78419e-05
-5.66321e-06
-3.74079e-05
-6.42785e-06
-3.69062e-05
-7.19512e-06
-3.63334e-05
-7.97237e-06
-3.56874e-05
-8.76148e-06
-3.49695e-05
-9.54485e-06
-3.41861e-05
-1.03043e-05
-3.33373e-05
-1.10356e-05
-3.24193e-05
-1.1733e-05
-3.14359e-05
-1.23897e-05
-3.03945e-05
-1.30124e-05
-2.92985e-05
-1.35978e-05
-2.81606e-05
-1.41324e-05
-2.70041e-05
-1.46085e-05
-2.58551e-05
-1.50279e-05
-2.4716e-05
-2.35804e-05
-1.53947e-05
-5.80881e-07
-3.65166e-05
-1.20787e-06
-3.84501e-05
-1.83173e-06
-3.8311e-05
-2.46744e-06
-3.81212e-05
-3.11577e-06
-3.78669e-05
-3.77822e-06
-3.75481e-05
-4.45553e-06
-3.71646e-05
-5.14721e-06
-3.67162e-05
-5.85063e-06
-3.62028e-05
-6.55971e-06
-3.56243e-05
-7.2664e-06
-3.49808e-05
-7.96492e-06
-3.4271e-05
-8.65736e-06
-3.34937e-05
-9.34445e-06
-3.26503e-05
-1.00183e-05
-3.17454e-05
-1.06717e-05
-3.07826e-05
-1.12995e-05
-2.97668e-05
-1.18916e-05
-2.87065e-05
-1.24426e-05
-2.76096e-05
-1.29571e-05
-2.64896e-05
-1.34435e-05
-2.53687e-05
-1.38996e-05
-2.42599e-05
-2.31579e-05
-1.4322e-05
-5.23825e-07
-3.59928e-05
-1.08567e-06
-3.78883e-05
-1.64588e-06
-3.77508e-05
-2.2177e-06
-3.75494e-05
-2.80132e-06
-3.72833e-05
-3.39776e-06
-3.69517e-05
-4.0073e-06
-3.65551e-05
-4.62839e-06
-3.60952e-05
-5.2586e-06
-3.55726e-05
-5.89536e-06
-3.49876e-05
-6.5363e-06
-3.43398e-05
-7.17794e-06
-3.36294e-05
-7.81436e-06
-3.28573e-05
-8.44e-06
-3.20247e-05
-9.05212e-06
-3.11333e-05
-9.64768e-06
-3.0187e-05
-1.02234e-05
-2.91912e-05
-1.07777e-05
-2.81522e-05
-1.13093e-05
-2.70781e-05
-1.18191e-05
-2.59799e-05
-1.23126e-05
-2.48752e-05
-1.27943e-05
-2.37782e-05
-2.26872e-05
-1.3265e-05
-4.53966e-07
-3.55389e-05
-9.48493e-07
-3.73938e-05
-1.44161e-06
-3.72577e-05
-1.94663e-06
-3.70444e-05
-2.46378e-06
-3.67661e-05
-2.99452e-06
-3.6421e-05
-3.54013e-06
-3.60095e-05
-4.09934e-06
-3.5536e-05
-4.66896e-06
-3.5003e-05
-5.24465e-06
-3.44119e-05
-5.82211e-06
-3.37624e-05
-6.39813e-06
-3.30534e-05
-6.97073e-06
-3.22847e-05
-7.5376e-06
-3.14579e-05
-8.09565e-06
-3.05753e-05
-8.64243e-06
-2.96403e-05
-9.17612e-06
-2.86576e-05
-9.69574e-06
-2.76326e-05
-1.02021e-05
-2.65717e-05
-1.06988e-05
-2.54832e-05
-1.11936e-05
-2.43805e-05
-1.16936e-05
-2.32782e-05
-2.21782e-05
-1.22025e-05
-3.81322e-07
-3.51575e-05
-8.08115e-07
-3.6967e-05
-1.2342e-06
-3.68316e-05
-1.67113e-06
-3.66075e-05
-2.11854e-06
-3.63187e-05
-2.57793e-06
-3.59616e-05
-3.05301e-06
-3.55344e-05
-3.54419e-06
-3.50448e-05
-4.04944e-06
-3.44978e-05
-4.56483e-06
-3.38965e-05
-5.08563e-06
-3.32416e-05
-5.60774e-06
-3.25313e-05
-6.12762e-06
-3.17648e-05
-6.64177e-06
-3.09437e-05
-7.14894e-06
-3.00682e-05
-7.64835e-06
-2.91409e-05
-8.13957e-06
-2.81664e-05
-8.62355e-06
-2.71486e-05
-9.1031e-06
-2.60922e-05
-9.58291e-06
-2.50034e-05
-1.00715e-05
-2.38919e-05
-1.05789e-05
-2.27708e-05
-2.16447e-05
-1.11125e-05
-3.00979e-07
-3.48566e-05
-6.66249e-07
-3.66017e-05
-1.0303e-06
-3.64676e-05
-1.40109e-06
-3.62367e-05
-1.77737e-06
-3.59425e-05
-2.15785e-06
-3.55812e-05
-2.54459e-06
-3.51477e-05
-2.94381e-06
-3.46456e-05
-3.36603e-06
-3.40756e-05
-3.81626e-06
-3.34463e-05
-4.28946e-06
-3.27684e-05
-4.77153e-06
-3.20493e-05
-5.25229e-06
-3.12841e-05
-5.72774e-06
-3.04683e-05
-6.1953e-06
-2.96006e-05
-6.65527e-06
-2.86811e-05
-7.10771e-06
-2.7714e-05
-7.55514e-06
-2.67013e-05
-8.00351e-06
-2.56439e-05
-8.45942e-06
-2.45475e-05
-8.93291e-06
-2.34184e-05
-9.4363e-06
-2.22675e-05
-2.1101e-05
-9.97985e-06
-2.21251e-07
-3.46353e-05
-5.48314e-07