/*--------------------------------*- C++ -*----------------------------------*\
| =========                 |                                                 |
| \\      /  F ield         | OpenFOAM: The Open Source CFD Toolbox           |
|  \\    /   O peration     | Version:  2.4.0                                 |
|   \\  /    A nd           | Web:      www.OpenFOAM.org                      |
|    \\/     M anipulation  |                                                 |
\*---------------------------------------------------------------------------*/
FoamFile
{
    version     2.0;
    format      ascii;
    class       volScalarField;
    location    "0.35";
    object      rho;
}
// * * * * * * * * * * * * * * * * * * * * * * * * * * * * * * * * * * * * * //

dimensions      [1 -3 0 0 0 0 0];

internalField   nonuniform List<scalar> 
2268
(
13529
13529
13529
13529
13529
13529
13529
13529
13529
13529
13529
13529
13529
13529
13529
13529
13529
13529
13529
13529
13529
13528.9
13528.4
13529
13529
13529
13529
13529
13529
13529
13529
13529
13529
13529
13529
13529
13529
13529
13529
13529
13529
13529
13529
13529
13528.9
13528.3
13529
13529
13529
13529
13529
13529
13529
13529
13529
13529
13529
13529
13529
13529
13529
13529
13529
13529
13529
13529
13529
13528.9
13528.3
13529
13529
13529
13529
13529
13529
13529
13529
13529
13529
13529
13529
13529
13528.9
13528.4
13528.1
13528.5
13528.8
13528.9
13528.9
13528.9
13528.9
13528.1
13529
13529
13529
13529
13529
13528.9
13528.8
13528.7
13528
13526.9
13524.3
13519.4
13504.2
13471.2
13382
13310
13415.7
13489.1
13518.5
13526.7
13528.5
13528.7
13528.1
13519.3
13518.5
13517.2
13511.3
13512
13493.5
13480.9
13457.1
13385.9
13270.9
13069.9
12773.1
12130.2
11170.5
9546.14
8024.27
7522.17
8283.95
10720.2
12932.4
13485.3
13527.5
13528
12952.4
12922.8
12872.5
12710.3
12672.6
12289.3
11945.7
11491.8
10607.9
9406.93
7911.03
6338.9
4405.86
2708.96
1521.12
1104.1
1011.46
1290.32
2828.18
8192.72
12835.7
13507.7
13527.6
8578.39
8452.63
8230.68
7740.39
7420.54
6500.03
5603.71
4679.1
3533.03
2461.46
1678.09
1239.37
1051.7
1007.34
1000.96
1000.44
1000.06
999.643
1038.34
2402.26
10530.1
13385.3
13527.4
501.862
502.379
502.835
503.58
504.344
505.728
509.78
528.161
618.855
942.06
1163.24
1162.98
1163.37
1159.02
1158.9
1081.04
833.104
631.717
523.225
501.309
500.792
500.636
500.52
500.463
500.787
502.129
509.38
545.074
667.821
1161.37
1167.99
1161.24
1163.59
956.539
618.95
536.925
511.626
496.912
500.643
500.363
500.34
500.359
500.441
500.766
502.143
511.341
565.983
746.045
990.338
1164.77
1168.28
1012.28
648.779
526.01
506.637
501.443
444.697
500.384
500.247
500.241
500.23
500.257
500.595
501.58
511.735
580.936
803.217
1077.35
1171.51
1090.75
709.775
544.44
507.643
503.09
500.754
442.897
500.314
500.23
500.174
499.693
493.477
491.385
500.628
511.878
611.953
872.422
1166.45
1143.55
837.293
577.261
510.975
502.188
501.516
480.824
442.921
500.262
500.209
499.768
453.272
196.183
222.632
441.868
507.884
661.102
947.633
1240.95
1063.45
630.323
525.371
502.914
501.29
501.037
469.325
468.606
500.242
500.164
498.336
97.6164
1.65115
1.66401
74.6037
445.639
708.54
1049.72
1249.4
604.005
114.479
416.873
499.999
501.136
500.93
469.27
493.257
500.204
500.037
386.331
5.3733
1.47729
1.47737
3.8761
283.655
754.579
1172.02
1228.82
556.858
73.6281
133.914
485.882
500.723
500.336
489.726
498.954
2337.5
2282.89
2187.7
2034.66
1887.96
1661.85
1470.05
1307.32
1173.02
1083.91
1034.88
1012.01
1003.3
1000.88
1000.34
1000.23
1000.14
999.399
996.385
1121.05
5086.97
11974.1
13448.1
1005.45
1004.95
1004.18
1003.25
1002.33
1001.54
1001
1000.62
1000.38
1000.23
1000.13
1000.07
1000.03
1000.03
1000.03
1000.03
1000.02
999.874
998.453
995.262
1455.97
6819.77
12031.7
1000.05
1000.05
1000.04
1000.04
1000.03
1000.02
1000.02
1000.02
1000.01
1000.01
1000.01
1000.01
1000.01
1000
1000
999.991
999.982
999.947
999.764
998.278
1008.65
2250.52
7183.72
1000
1000
1000
1000
1000
1000
1000
1000
1000
1000
1000
999.99
999.873
999.384
998.681
997.344
997.92
998.811
999.262
998.998
997.148
1111.77
2552.68
1000
1000
1000
1000
1000
1000
1000
1000
1000
999.989
999.813
998.378
991.152
973.554
953.342
931.231
933.855
946.495
962.488
978.659
990.161
998.955
1153.23
999.954
999.951
999.949
999.946
999.945
999.947
999.957
999.978
999.935
998.414
989.412
958.56
887.969
796.974
726.907
679.595
662.858
666.335
694.911
772.695
867.972
927.864
1016.75
984.222
983.603
983.072
982.483
982.232
982.541
985.106
990.967
993.499
968.559
893.873
772.015
638.733
557.805
526.84
514.489
509.632
505.924
507.127
531.592
604.459
672.842
773.713
598.695
591.273
583.5
573.987
566.31
561.637
584.056
677.97
811.687
808.496
671.576
551.234
501.822
497.6
498.316
499.324
499.891
499.933
500.029
500.133
503.221
509.641
544.609
13.9508
12.9359
11.8228
10.4906
9.30692
8.10955
8.42551
17.6631
103.236
246.019
221.499
195.818
229.261
293.939
345.671
401.198
449.061
476.303
492.011
496.331
499.582
499.736
502.228
1.00056
1.00053
1.00046
1.00044
1.00042
1.00078
1.02966
1.70176
1.36973
1.16534
1.09951
1.07514
1.41533
3.3046
8.76783
28.0037
74.9156
155.016
262.807
333.135
437.884
470.811
484.727
1.00026
1.00017
1.00015
1.00013
1.00014
1.00107
1.00234
1.00094
1.00126
1.00059
1.00015
1.00002
1.00001
1.00003
1.00009
1.00029
1.00182
1.0397
1.75355
6.09349
50.5153
125.519
202.119
1.00006
1.00003
1.00003
1.00004
1.00006
1.00008
1.00002
1.00002
1.00011
1.00019
1.00001
1
1
1.00001
1.00003
1.00005
1.00005
1.00009
1.00015
1.00019
1.00071
1.00753
1.11484
1.00005
1.00002
1.00002
1.00002
1.00001
1
1
1
1.00001
1.00006
1.00002
1
1.00002
1.00008
1.00024
1.00022
1.00011
1.00009
1.00017
1.00018
1.00022
1.00023
1.00025
1.00002
1
1
1
0.999999
0.999999
0.999999
0.999999
1
1
1
1
1.00007
1.00034
1.00039
1.00041
1.00034
1.00008
1.00007
1.00008
1.00012
1.00015
1.00015
1
0.999999
0.999999
0.999999
0.999999
0.999999
0.999999
0.999999
1
1
1
1
1.00014
1.00039
1.00041
1.00041
1.00021
1.00004
1.00002
1.00003
1.00004
1.00006
1.00006
0.999999
0.999999
0.999999
0.999999
0.999999
0.999999
0.999999
1
1
1
1
1.00001
1.00012
1.00041
1.00041
1.00016
1.00004
1.00002
1.00002
1.00002
1.00004
1.00004
1.00003
0.999999
0.999999
0.999999
0.999999
0.999999
0.999999
0.999999
1
1
1
1
1
1.00004
1.00012
1.00025
1.00006
1.00004
1.00004
1.00003
1.00002
1.00001
1.00001
1.00001
0.999999
0.999999
0.999999
0.999999
0.999999
0.999999
1
1
1
1
1
1
1.00002
1.00004
1.00007
1.0001
1.00008
1.00007
1.00004
1.00003
1.00001
1
1
0.999999
0.999999
0.999999
0.999999
0.999999
1
1
1
1
1
1
1
1.00001
1.00003
1.00005
1.0001
1.00011
1.00008
1.00006
1.00003
1.00001
1
1
0.999999
0.999999
0.999999
0.999999
1
1
1
1
1
1
1
1
1
1.00002
1.00005
1.00007
1.00008
1.00007
1.00005
1.00003
1.00001
1.00001
1
0.999999
0.999999
0.999999
1
1
1
1
1
1
1
1
1
1
1.00001
1.00002
1.00003
1.00004
1.00004
1.00003
1.00002
1.00001
1
1
0.999999
0.999999
0.999999
1
1
1
1
1
1
1
1
1
1
1
1
1.00001
1.00001
1.00001
1.00001
1.00001
1
1
1
0.999999
0.999999
0.999999
1
1
1
1
1
1
1
1
1
1
1
0.999999
1
1
1
1
1
1
1
1
0.999999
0.999999
1
1
1
1
1
1
1
1
1
1
1
1
0.999999
0.999999
0.999999
0.999999
0.999999
0.999999
0.999999
0.999999
0.999999
0.999999
0.999999
1
1
1
1
1
1
1
1
1
1
1
1
1
0.999999
0.999999
0.999999
0.999998
0.999998
0.999998
0.999998
0.999998
0.999999
1
1
1
1
1
1
1
1
1
1
1
1
1
1
0.999999
0.999999
0.999999
0.999998
0.999998
0.999998
0.999997
0.999998
1
1
1
1
1
1
1
1
1
1
1
1
1
1
1
1
0.999999
0.999999
0.999999
0.999998
0.999998
0.999997
0.999997
1
1
1
1
1
1
1
1
1
1
1
1
1
1
1
1
1
0.999999
0.999999
0.999998
0.999998
0.999997
0.999997
1
1
1
1
1
1
1
1
1
1
1
1
1
1
1
1
1
0.999999
0.999999
0.999999
0.999998
0.999998
0.999997
1
1
1
1
1
1
1
1
1
1
1
1
1
1
1
1
1
1
0.999999
0.999999
0.999999
0.999998
0.999997
1
1
1
1
1
1
1
1
1
1
1
1
1
1
1
1
1
1
1
0.999999
0.999999
0.999999
0.999998
1
1
1
1
1
1
1
1
1
1
1
1
1
1
1
1
1
1
1
1
0.999999
0.999999
0.999998
1
1
1
1
1
1
1
1
1
1
1
1
1
1
1
1
1
1
1
1
1
0.999999
0.999999
1
1
1
1
1
1
1
1
1
1
1
1
1
1
1
1
1
1
1
1
1
1
0.999999
1
1
1
1
1
1
1
1
1
1
1
1
1
1
1
1
1
1
1
1
1
1
0.999999
1
1
1
1
1
1
1
1
1
1
1
1
1
1
1
1
1
1
1
1
1
1
1
1
1
1
1
1
1
1
1
1
1
1
1
1
1
1
1
1
1
1
1
1
1
1
1
1
1
1
1
1
1
1
1
1
1
1
1
1
1
1
1
1
1
1
1
1
1
1
1
1
1
1
1
1
1
1
1
1
1
1
1
1
1
1
0.999999
0.999999
1
1
1
1
1
1
1
1
1
1
1
1
1
1
1
1
1
1
1
1
0.999999
0.999999
0.999999
0.999999
1
1
1
1
1
1
1
1
1
1
1
1
1
1
1
1
1
1
1
1
1
1
1
1
1
1
1
1
1
1
1
1
1
1
1
1
1
1
1
1
1
1
1
1
1
1
1
1
1
13265.1
5690.25
632.022
759.072
13138
11961.8
8255.79
5152.81
10680.4
11190.2
10821
9873.77
4597.95
6144.03
7493.28
8224.73
1453.87
1896.67
2648.77
3696.31
1134.05
1270.93
1436.05
1685.41
860.316
926.112
1015.33
1171.53
598.887
659.153
735.576
838.391
509.027
526.837
561.258
618.642
492.015
495.316
500.863
509.857
268.987
314.944
342.017
382.42
1.58582
3.10244
5.81314
9.37553
1.00023
1.00016
1.0001
1.00006
1.00007
1.00002
1.00002
1.00002
1.00003
1.00001
1.00001
1.00001
1.00001
1.00001
1
1
1
1
1
1
1
1
1
0.999999
1
0.999999
0.999999
0.999999
1
1
1
0.999999
1
1
1
1
1
1
1
1
1
1
1
1
1
1
1
1
0.999999
0.999999
0.999999
0.999999
0.999998
0.999998
0.999998
0.999998
0.999997
0.999998
0.999998
0.999998
0.999997
0.999997
0.999997
0.999997
0.999997
0.999997
0.999997
0.999997
0.999997
0.999997
0.999997
0.999997
0.999998
0.999998
0.999998
0.999997
0.999998
0.999998
0.999998
0.999998
0.999998
0.999998
0.999998
0.999998
0.999999
0.999999
0.999999
0.999998
0.999999
0.999999
0.999999
0.999999
0.999999
0.999999
0.999999
0.999999
1
0.999999
0.999999
0.999999
1
0.999999
0.999999
0.999999
1
0.999999
1
0.999999
1
1
0.999999
0.999999
1
0.999999
0.999999
0.999999
0.999999
1
1
1
668.966
516.689
308.64
16.9335
1.47955
1.48481
7.72785
315.69
896.929
1275.74
1266.36
675.685
90.6333
15.2871
315.424
494.995
500.014
499.48
499.911
2171.66
725.067
564.665
194.125
22.9401
25.7304
174.079
831.938
1253.42
1340.83
1181.84
321.443
24.3497
1.87988
37.422
467.262
499.706
500.23
500.035
5738.88
1831.8
1315.55
750.357
412.332
515.752
982.242
1343.69
1400.36
1394.92
752.271
75.0584
2.29425
1.02075
1.4626
240.159
492.358
500.148
500.038
7487.44
4531.55
2439.87
1301.26
1375.58
1498.68
1659.54
1629.31
1502.24
1380.97
459.04
25.335
1.05295
1.00198
1.00247
28.0804
475.806
500.014
500.029
5232.23
5144.96
4231.81
3162.01
2749.86
2497.74
2150.42
1777.49
1565.94
953.065
158.393
4.24827
1.00586
1.00323
1.00207
6.32274
450.522
499.741
500.019
2648.55
4029.87
4106.22
3781.61
3254.12
2675.91
2035.28
1627.07
1214.03
363.276
24.6367
1.12352
1.00533
1.00403
1.00213
1.06428
312.491
497.313
500.009
1725.79
2546.84
3181.45
3117.12
2762.92
2120.41
1484.61
1168.29
576.544
76.1958
2.16561
1.00466
1.00284
1.00288
1.00204
1.00174
75.1969
487.425
499.982
1183.7
1749.67
2134.74
2004.39
1620.18
1171.53
932.569
586.77
124.896
5.65783
1.00918
1.00257
1.00115
1.00144
1.00184
1.00175
5.14189
453.82
499.739
796.192
1038.3
1116.7
989.737
784.533
660.252
477.564
140.17
7.94442
1.02809
1.00233
1.00105
1.0005
1.00076
1.0016
1.00165
1.05223
371.271
497.844
568.994
617.188
598.101
557.075
485.114
339.546
103.265
6.40622
1.02405
1.00328
1.00071
1.0004
1.00028
1.00051
1.0012
1.00145
1.00186
232.764
490.802
464.749
503.42
497.287
433.651
164.786
10.9857
1.03964
1.00495
1.00191
1.00069
1.00023
1.00017
1.00018
1.00039
1.00084
1.00125
1.00178
195.368
487.868
39.5592
115.952
99.7192
25.4031
1.75276
1.0033
1.00093
1.00048
1.0003
1.00016
1.00009
1.00009
1.00013
1.00032
1.00067
1.00116
1.00174
247.224
489.578
1.00038
1.00341
1.0204
1.04961
1.00616
1.0003
1.00014
1.00012
1.00009
1.00006
1.00004
1.00005
1.00011
1.0003
1.00065
1.00118
1.00175
357.676
494.008
1.00002
1.00002
1.00003
1.00012
1.00031
1.00008
1.00006
1.00005
1.00004
1.00003
1.00002
1.00004
1.0001
1.00029
1.00066
1.00127
1.00178
378.304
496.181
1.00001
1.00001
1.00002
1.00003
1.00005
1.00003
1.00003
1.00002
1.00002
1.00001
1.00001
1.00003
1.00009
1.00028
1.00066
1.00136
1.00179
306.854
494.551
1
1
1.00001
1.00001
1.00001
1.00001
1.00001
1.00001
1.00001
1.00001
1.00001
1.00002
1.00008
1.00026
1.00064
1.0014
1.0018
123.092
483.248
1
1
1
1
1
1
1
1
1
1
1.00001
1.00002
1.00008
1.00024
1.0006
1.00138
1.00188
19.6553
458.71
0.999999
0.999999
0.999999
0.999999
1
1
1
1
1
1
1
1.00002
1.00007
1.00022
1.00057
1.00134
1.00197
3.04198
408.311
0.999999
0.999998
0.999998
0.999998
0.999998
0.999999
0.999999
0.999999
1
1
1
1.00001
1.00006
1.00019
1.00052
1.00124
1.00581
2.18545
311.12
0.999999
0.999998
0.999998
0.999998
0.999998
0.999998
0.999999
0.999999
0.999999
1
1
1.00001
1.00005
1.00016
1.00048
1.00144
1.03967
2.28469
300.443
0.999999
0.999999
0.999998
0.999998
0.999998
0.999998
0.999998
0.999999
0.999999
1
1
1.00001
1.00004
1.00013
1.00044
1.00261
1.21154
3.25224
361.16
1
0.999999
0.999999
0.999999
0.999998
0.999998
0.999999
0.999999
0.999999
1
1
1
1.00002
1.00005
1.0002
1.00366
1.78043
13.2483
447.556
1
1
0.999999
0.999999
0.999999
0.999999
0.999999
0.999999
0.999999
1
1
1
1.00001
1.00003
1.00011
1.00198
2.85476
77.0173
488.404
1
1
0.999999
0.999999
0.999999
0.999999
0.999999
0.999999
0.999999
1
1
1
1.00001
1.00002
1.00006
1.00038
2.36844
171.993
492.929
0.999999
0.999999
0.999999
0.999999
0.999999
0.999999
0.999999
0.999999
0.999999
1
1
1
1
1.00002
1.00007
1.00022
1.25454
164.975
492.929
0.999998
0.999999
0.999999
0.999999
0.999999
0.999999
0.999999
0.999999
1
1
1
1
1
1.00002
1.00007
1.00032
1.00733
96.0475
491.955
0.999998
0.999998
0.999998
0.999999
0.999999
0.999999
0.999999
0.999999
1
1
1
1
1.00001
1.00003
1.00018
1.00033
1.00059
27.422
474.114
0.999997
0.999998
0.999998
0.999998
0.999999
0.999999
0.999999
0.999999
1
1
1
1
1.00001
1.00005
1.00017
1.0005
1.00059
4.95155
422.71
0.999997
0.999997
0.999998
0.999998
0.999998
0.999999
0.999999
0.999999
1
1
1
1
1.00001
1.00005
1.00022
1.00051
1.00067
1.3351
350.283
0.999997
0.999997
0.999998
0.999998
0.999998
0.999999
0.999999
0.999999
1
1
1
1
1.00001
1.00005
1.00024
1.00065
1.00085
1.01302
258.879
0.999997
0.999997
0.999997
0.999998
0.999998
0.999999
0.999999
0.999999
1
1
1
1
1.00001
1.00006
1.00026
1.00072
1.00101
1.00096
132.165
0.999997
0.999997
0.999997
0.999998
0.999998
0.999999
0.999999
0.999999
1
1
1
1
1.00001
1.00006
1.00028
1.00073
1.00116
1.00095
33.1899
0.999998
0.999998
0.999998
0.999998
0.999998
0.999999
0.999999
0.999999
1
1
1
1
1
1.00003
1.0002
1.00084
1.00114
1.06618
4.11506
0.999998
0.999998
0.999998
0.999998
0.999998
0.999999
0.999999
0.999999
1
1
1
1
1
1.00001
1.00008
1.00182
1.01798
1.11469
1.13209
0.999998
0.999998
0.999998
0.999998
0.999999
0.999999
0.999999
0.999999
1
1
1
1
1
1
1.00003
1.00145
1.02023
1.03996
1.00668
0.999999
0.999999
0.999998
0.999999
0.999999
0.999999
0.999999
0.999999
0.999999
1
1
1
1
1
1
1.00008
1.00126
1.0031
1.00085
0.999999
0.999999
0.999999
0.999999
0.999999
0.999999
0.999999
0.999999
0.999999
0.999999
1
1
1
1
1
1
1.00003
1.00013
1.00028
0.999999
0.999999
0.999999
0.999999
0.999999
0.999999
0.999999
0.999999
0.999999
0.999999
0.999999
1
1
1
1
1
1
1.00001
1.00006
0.999999
0.999999
0.999999
0.999999
0.999999
0.999999
0.999999
0.999999
0.999999
0.999999
0.999999
0.999999
1
1
1
1
1
1
1.00001
0.999999
0.999999
0.999999
0.999999
0.999999
0.999999
0.999999
0.999999
0.999999
0.999999
0.999999
0.999999
0.999999
0.999999
1
1
1
1
1
0.999999
0.999999
0.999999
0.999999
0.999999
0.999999
0.999999
0.999999
0.999999
0.999999
0.999999
0.999999
0.999999
0.999999
1
1
1
1
1
1
1
1
0.999999
0.999999
0.999999
0.999999
0.999999
0.999999
0.999999
0.999999
0.999999
1
1
1
1
1
1
1
)
;

boundaryField
{
    leftWall
    {
        type            calculated;
        value           nonuniform List<scalar> 
50
(
13529
13529
13529
13529
13529
13519.3
12952.4
8578.39
2337.5
1005.45
1000.05
1000
1000
999.954
984.222
598.695
13.9508
1.00056
1.00026
1.00006
1.00005
1.00002
1
0.999999
0.999999
0.999999
0.999999
0.999999
0.999999
0.999999
0.999999
0.999999
0.999999
0.999999
1
1
1
1
1
1
1
1
1
1
1
1
1
1
1
1
)
;
    }
    rightWall
    {
        type            calculated;
        value           nonuniform List<scalar> 
50
(
523.225
496.912
444.697
442.897
442.921
468.606
493.257
498.954
499.911
500.035
500.038
500.029
500.019
500.009
499.982
499.739
497.844
490.802
487.868
489.578
494.008
496.181
494.551
483.248
458.71
408.311
311.12
300.443
361.16
447.556
488.404
492.929
492.929
491.955
474.114
422.71
350.283
258.879
132.165
33.1899
4.11506
1.13209
1.00668
1.00085
1.00028
1.00006
1.00001
1
1
1
)
;
    }
    lowerWall
    {
        type            calculated;
        value           nonuniform List<scalar> 
62
(
13529
13529
13529
13529
13529
13529
13529
13529
13529
13529
13529
13529
13529
13529
13529
13529
13529
13529
13529
13529
13529
13528.9
13528.4
13528.4
13528.3
13528.3
13528.1
13528.1
13528
13527.6
13527.4
13265.1
5690.25
632.022
759.072
501.862
501.309
500.643
500.384
500.314
500.262
500.242
500.204
501.862
502.379
502.835
503.58
504.344
505.728
509.78
528.161
618.855
942.06
1163.24
1162.98
1163.37
1159.02
1158.9
1081.04
833.104
631.717
523.225
)
;
    }
    atmosphere
    {
        type            calculated;
        value           nonuniform List<scalar> 
46
(
1
1
1
1
1
1
1
1
1
1
1
1
1
1
1
1
1
1
1
1
1
1
1
1
1
1
1
1
1
1
1
1
1
0.999999
0.999999
0.999999
0.999999
0.999999
0.999999
1
1
1
1
1
1
1
)
;
    }
    defaultFaces
    {
        type            empty;
    }
}


// ************************************************************************* //
