/*--------------------------------*- C++ -*----------------------------------*\
| =========                 |                                                 |
| \\      /  F ield         | OpenFOAM: The Open Source CFD Toolbox           |
|  \\    /   O peration     | Version:  2.4.0                                 |
|   \\  /    A nd           | Web:      www.OpenFOAM.org                      |
|    \\/     M anipulation  |                                                 |
\*---------------------------------------------------------------------------*/
FoamFile
{
    version     2.0;
    format      ascii;
    class       volVectorField;
    location    "0.35";
    object      U;
}
// * * * * * * * * * * * * * * * * * * * * * * * * * * * * * * * * * * * * * //

dimensions      [0 1 -1 0 0 0 0];

internalField   nonuniform List<vector> 
2268
(
(0.0198054 -0.00925069 0)
(0.0581024 -0.00930688 0)
(0.0996207 -0.00910139 0)
(0.134496 -0.00996779 0)
(0.181284 -0.00786919 0)
(0.208714 -0.0115016 0)
(0.266553 -0.0086585 0)
(0.294546 -0.00812218 0)
(0.326764 -0.010264 0)
(0.378192 -0.0120738 0)
(0.433328 -0.00858977 0)
(0.45941 -0.00774074 0)
(0.483659 -0.00610485 0)
(0.5125 -0.00560687 0)
(0.533079 -0.00646775 0)
(0.573608 -0.00727198 0)
(0.580649 0.0028878 0)
(0.567117 0.00713414 0)
(0.529145 0.0155816 0)
(0.4502 0.020888 0)
(0.322781 0.0245121 0)
(0.171305 0.0369745 0)
(0.0282695 0.0136153 0)
(0.0198087 -0.0277604 0)
(0.0581326 -0.0279837 0)
(0.0997848 -0.0271361 0)
(0.134157 -0.0305957 0)
(0.181811 -0.0223505 0)
(0.210804 -0.0359083 0)
(0.263377 -0.0256421 0)
(0.295612 -0.0231881 0)
(0.329187 -0.031831 0)
(0.380711 -0.0354081 0)
(0.431877 -0.0300726 0)
(0.456569 -0.0198951 0)
(0.483519 -0.0170469 0)
(0.516774 -0.019844 0)
(0.545653 -0.0226455 0)
(0.578883 -0.0170438 0)
(0.592229 0.0035693 0)
(0.577827 0.0227289 0)
(0.529129 0.045391 0)
(0.450727 0.0830681 0)
(0.305919 0.10202 0)
(0.221271 0.100402 0)
(0.0361571 0.0804765 0)
(0.0197803 -0.0462505 0)
(0.0581656 -0.0465959 0)
(0.0996224 -0.0453407 0)
(0.134021 -0.0501485 0)
(0.181994 -0.0398969 0)
(0.212161 -0.0561819 0)
(0.259563 -0.0433875 0)
(0.297277 -0.0415388 0)
(0.334123 -0.0534892 0)
(0.382366 -0.0566775 0)
(0.42478 -0.0464201 0)
(0.448343 -0.0337505 0)
(0.494946 -0.0358694 0)
(0.528916 -0.0349344 0)
(0.560233 -0.0396412 0)
(0.587971 -0.0290109 0)
(0.594421 0.00179782 0)
(0.58463 0.0378728 0)
(0.533531 0.0767281 0)
(0.454982 0.118915 0)
(0.330143 0.139485 0)
(0.190205 0.148294 0)
(0.0847985 0.143436 0)
(0.0197423 -0.0649541 0)
(0.0582429 -0.0653492 0)
(0.0992323 -0.0637597 0)
(0.134401 -0.0701988 0)
(0.181447 -0.0569105 0)
(0.213222 -0.0770069 0)
(0.258089 -0.061713 0)
(0.296647 -0.0608282 0)
(0.338296 -0.0741301 0)
(0.385875 -0.07461 0)
(0.408324 -0.062322 0)
(0.454333 -0.0550749 0)
(0.50253 -0.0527814 0)
(0.540931 -0.0536384 0)
(0.580109 -0.0505025 0)
(0.591764 -0.0317647 0)
(0.594822 0.00989726 0)
(0.583448 0.0554531 0)
(0.544148 0.129804 0)
(0.475055 0.185032 0)
(0.332965 0.223305 0)
(0.174674 0.206518 0)
(0.0435094 0.208067 0)
(0.0197288 -0.0830834 0)
(0.0582973 -0.0833836 0)
(0.0990302 -0.0817333 0)
(0.134566 -0.0884375 0)
(0.181424 -0.0749713 0)
(0.212429 -0.0940307 0)
(0.258707 -0.0789452 0)
(0.296515 -0.079858 0)
(0.342958 -0.0937428 0)
(0.380749 -0.0835926 0)
(0.4077 -0.0799461 0)
(0.46301 -0.0719525 0)
(0.506432 -0.0744102 0)
(0.547954 -0.0610795 0)
(0.589021 -0.0623338 0)
(0.606313 -0.039432 0)
(0.607522 0.00368449 0)
(0.605563 0.0556805 0)
(0.590188 0.143364 0)
(0.535057 0.232939 0)
(0.426741 0.292695 0)
(0.228421 0.282095 0)
(0.0803966 0.257181 0)
(0.0198079 -0.0991441 0)
(0.0585045 -0.0993615 0)
(0.099295 -0.097707 0)
(0.135572 -0.105202 0)
(0.180208 -0.0901099 0)
(0.214655 -0.110595 0)
(0.255612 -0.0979478 0)
(0.304999 -0.0989373 0)
(0.342194 -0.112442 0)
(0.375801 -0.109578 0)
(0.421169 -0.113174 0)
(0.469465 -0.116715 0)
(0.503638 -0.121034 0)
(0.549119 -0.121131 0)
(0.579256 -0.110327 0)
(0.599319 -0.0696087 0)
(0.624416 -0.0127542 0)
(0.603368 0.0454084 0)
(0.586323 0.136969 0)
(0.526336 0.233107 0)
(0.457646 0.350982 0)
(0.269323 0.356223 0)
(0.0575895 0.350287 0)
(0.0200231 -0.132743 0)
(0.058957 -0.133448 0)
(0.100376 -0.13314 0)
(0.137367 -0.141126 0)
(0.177677 -0.130166 0)
(0.223064 -0.147571 0)
(0.248959 -0.141135 0)
(0.311213 -0.1419 0)
(0.337304 -0.147487 0)
(0.376504 -0.143103 0)
(0.410323 -0.136038 0)
(0.436629 -0.111713 0)
(0.439335 -0.0857343 0)
(0.433991 -0.0276469 0)
(0.388103 0.0398646 0)
(0.353741 0.076966 0)
(0.314623 0.149266 0)
(0.283033 0.219743 0)
(0.390283 0.323376 0)
(0.423127 0.312145 0)
(0.422215 0.396566 0)
(0.31979 0.42561 0)
(0.127622 0.414424 0)
(0.0199996 -0.141736 0)
(0.0588251 -0.141185 0)
(0.100224 -0.139368 0)
(0.137726 -0.138922 0)
(0.173014 -0.133731 0)
(0.22707 -0.133004 0)
(0.241422 -0.13124 0)
(0.276427 -0.117157 0)
(0.300618 -0.102647 0)
(0.304443 -0.0798852 0)
(0.283506 -0.0486492 0)
(0.247854 -0.0277456 0)
(0.215633 -0.0486898 0)
(0.170974 -0.0846335 0)
(0.159224 -0.126717 0)
(0.170428 -0.117179 0)
(0.196021 -0.113929 0)
(0.207974 -0.0815867 0)
(0.315107 0.0414333 0)
(0.157971 0.357948 0)
(0.317281 0.43235 0)
(0.287007 0.490328 0)
(0.113526 0.558641 0)
(-0.280087 0.120223 0)
(-0.761049 0.125326 0)
(-1.04867 0.0256741 0)
(-1.20055 0.0302078 0)
(-1.24996 0.0105878 0)
(-1.20247 -0.0151069 0)
(-1.12556 -0.03638 0)
(-0.978701 -0.0636454 0)
(-0.641067 -0.109107 0)
(-0.290578 -0.2043 0)
(0.244904 -0.253001 0)
(0.644186 -0.185423 0)
(0.979374 -0.134157 0)
(1.0248 -0.0850298 0)
(0.973282 -0.0969365 0)
(0.754526 -0.0916819 0)
(0.412084 -0.0555778 0)
(0.0545349 -0.0338727 0)
(0.0193113 -0.0406054 0)
(-0.236748 0.292291 0)
(-0.692506 0.217846 0)
(-1.02114 0.167573 0)
(-1.154 0.0658327 0)
(-1.17928 0.00851539 0)
(-1.08079 -0.0478432 0)
(-1.01303 -0.0575663 0)
(-0.844517 -0.147494 0)
(-0.443857 -0.214519 0)
(-0.134722 -0.222877 0)
(0.394868 -0.25138 0)
(0.811559 -0.192829 0)
(1.0705 -0.0360619 0)
(1.11896 0.0638896 0)
(1.01254 0.172433 0)
(0.687889 0.269734 0)
(0.39406 0.275623 0)
(0.0512929 0.179771 0)
(0.0238938 0.0637037 0)
(-0.271577 0.459406 0)
(-0.678814 0.424501 0)
(-0.975577 0.260127 0)
(-1.07618 0.0993063 0)
(-1.07135 -0.015408 0)
(-0.972143 -0.0803566 0)
(-0.933691 -0.128324 0)
(-0.57593 -0.285237 0)
(-0.259387 -0.403522 0)
(0.143507 -0.460922 0)
(0.593976 -0.53835 0)
(0.943018 -0.406077 0)
(1.17645 -0.190738 0)
(1.17653 0.0335569 0)
(0.985055 0.213227 0)
(0.664043 0.287063 0)
(0.484089 0.301349 0)
(0.166494 0.191445 0)
(0.0744515 0.0198846 0)
(-0.195877 0.664602 0)
(-0.572429 0.563313 0)
(-0.875544 0.330633 0)
(-0.901237 0.0883759 0)
(-0.865229 -0.00983045 0)
(-0.734188 -0.125998 0)
(-0.718451 -0.238996 0)
(-0.342454 -0.452784 0)
(-0.109775 -0.533659 0)
(0.361094 -0.622312 0)
(0.761786 -0.670795 0)
(1.04305 -0.46029 0)
(1.25885 -0.199892 0)
(1.15615 0.127634 0)
(0.97951 0.310537 0)
(0.659245 0.37605 0)
(0.474237 0.382595 0)
(0.203681 0.302193 0)
(0.121007 0.132163 0)
(-0.134674 0.747163 0)
(-0.494456 0.657463 0)
(-0.714872 0.431853 0)
(-0.490347 0.120372 0)
(-0.478445 -0.114664 0)
(-0.379794 -0.176734 0)
(-0.413573 -0.28068 0)
(-0.175345 -0.571855 0)
(0.0767538 -0.740843 0)
(0.50774 -0.829432 0)
(0.829446 -0.868046 0)
(1.04073 -0.649789 0)
(1.20243 -0.120282 0)
(1.14716 0.241862 0)
(0.923991 0.436768 0)
(0.646819 0.493461 0)
(0.496482 0.479337 0)
(0.26751 0.394976 0)
(0.143519 0.203022 0)
(-0.0854988 0.892983 0)
(-0.392946 0.846806 0)
(-0.444803 0.41951 0)
(-0.111216 -0.0904649 0)
(-0.130939 -0.1703 0)
(0.0138181 -0.231631 0)
(0.00492149 -0.338335 0)
(0.0833906 -0.602917 0)
(0.234384 -0.842163 0)
(0.596414 -0.97143 0)
(0.853331 -1.01946 0)
(1.08621 -0.741968 0)
(0.998635 -0.375011 0)
(0.94857 0.246782 0)
(0.84561 0.51665 0)
(0.601336 0.586394 0)
(0.499423 0.55322 0)
(0.247096 0.474838 0)
(0.0800862 0.268064 0)
(-0.0182591 0.941871 0)
(-0.23821 0.851002 0)
(-0.107217 0.219319 0)
(0.391022 -0.0128829 0)
(-0.159229 0.307433 0)
(-0.546551 0.307575 0)
(0.00448687 -0.298602 0)
(0.321844 -0.760218 0)
(0.398568 -0.915961 0)
(0.628506 -1.08438 0)
(0.874368 -1.14903 0)
(1.35407 -0.604495 0)
(1.0784 0.801259 0)
(0.722758 0.247563 0)
(0.732137 0.575357 0)
(0.544057 0.61335 0)
(0.431239 0.621808 0)
(0.20986 0.548191 0)
(0.0753126 0.33267 0)
(0.0750573 0.995708 0)
(-0.0648069 0.90902 0)
(0.218869 0.170281 0)
(-0.384196 0.0269673 0)
(-0.563797 -0.14972 0)
(0.146917 -0.602243 0)
(-1.16999 -0.289478 0)
(0.375251 -0.805373 0)
(0.547758 -1.03521 0)
(0.682453 -1.15917 0)
(0.864545 -1.22852 0)
(1.12549 -0.849998 0)
(1.09068 0.226263 0)
(0.133587 0.336906 0)
(0.63138 0.55813 0)
(0.497295 0.678816 0)
(0.425895 0.674632 0)
(0.243418 0.624484 0)
(0.102777 0.407242 0)
(0.0151593 -0.0759179 0)
(0.0446818 -0.0746224 0)
(0.0729472 -0.0725024 0)
(0.0991963 -0.0682681 0)
(0.111391 -0.0705473 0)
(0.139398 -0.0697701 0)
(0.141771 -0.0697422 0)
(0.14802 -0.088046 0)
(0.168527 -0.112277 0)
(0.175222 -0.135784 0)
(0.188405 -0.169247 0)
(0.224315 -0.185101 0)
(0.284821 -0.168039 0)
(0.325704 -0.107672 0)
(0.358226 -0.0122121 0)
(0.359281 0.0658036 0)
(0.305776 0.212603 0)
(0.237514 0.231478 0)
(0.171546 0.269249 0)
(0.154484 0.308822 0)
(0.147757 0.419329 0)
(0.286591 0.490745 0)
(0.263049 0.595143 0)
(0.00779791 -0.211943 0)
(0.0238914 -0.214236 0)
(0.0415301 -0.213895 0)
(0.0620446 -0.213785 0)
(0.0822221 -0.21733 0)
(0.109117 -0.218696 0)
(0.135276 -0.206729 0)
(0.165253 -0.215027 0)
(0.204249 -0.197338 0)
(0.232576 -0.17229 0)
(0.271164 -0.152896 0)
(0.304811 -0.141457 0)
(0.319288 -0.117252 0)
(0.331265 -0.103818 0)
(0.315876 -0.0924164 0)
(0.32593 -0.0858663 0)
(0.34193 -0.0552504 0)
(0.409455 0.0224755 0)
(0.353971 0.114059 0)
(0.419328 0.245434 0)
(0.254396 0.426981 0)
(0.288876 0.442572 0)
(0.293759 0.511035 0)
(0.0135185 -0.214848 0)
(0.0399984 -0.215018 0)
(0.0670224 -0.210947 0)
(0.0946203 -0.206662 0)
(0.120841 -0.20089 0)
(0.146605 -0.198267 0)
(0.174182 -0.182089 0)
(0.19771 -0.195688 0)
(0.232571 -0.185069 0)
(0.253532 -0.180584 0)
(0.297918 -0.185248 0)
(0.330175 -0.182235 0)
(0.361731 -0.167292 0)
(0.400549 -0.138419 0)
(0.427484 -0.0590029 0)
(0.472501 -0.0143503 0)
(0.480872 0.0813254 0)
(0.499788 0.133851 0)
(0.507714 0.231193 0)
(0.522121 0.307947 0)
(0.560066 0.506959 0)
(0.478446 0.494896 0)
(0.415706 0.444183 0)
(0.0142886 -0.220372 0)
(0.0427218 -0.221568 0)
(0.0708663 -0.220637 0)
(0.0985813 -0.219325 0)
(0.125249 -0.21802 0)
(0.149002 -0.22162 0)
(0.176602 -0.212522 0)
(0.19802 -0.233612 0)
(0.228575 -0.219542 0)
(0.253748 -0.230235 0)
(0.306993 -0.232157 0)
(0.343291 -0.22067 0)
(0.38259 -0.19057 0)
(0.408528 -0.166506 0)
(0.449583 -0.113247 0)
(0.494514 -0.0994721 0)
(0.536124 -0.0320867 0)
(0.574975 0.0425564 0)
(0.623026 0.138916 0)
(0.67412 0.26663 0)
(0.701539 0.383011 0)
(0.803829 0.59184 0)
(0.72878 0.56421 0)
(0.014571 -0.274554 0)
(0.0444435 -0.275115 0)
(0.0731726 -0.272665 0)
(0.100821 -0.268776 0)
(0.1285 -0.264153 0)
(0.150106 -0.260331 0)
(0.177502 -0.254505 0)
(0.192564 -0.264139 0)
(0.223974 -0.262283 0)
(0.252485 -0.29003 0)
(0.310656 -0.289734 0)
(0.351819 -0.259801 0)
(0.397777 -0.247868 0)
(0.433886 -0.227426 0)
(0.495916 -0.176751 0)
(0.534505 -0.133275 0)
(0.566293 -0.0471809 0)
(0.620659 0.0361189 0)
(0.648023 0.0970391 0)
(0.742448 0.21271 0)
(0.761695 0.305414 0)
(0.871424 0.454147 0)
(0.991544 0.549902 0)
(0.0157584 -0.288025 0)
(0.0465224 -0.2884 0)
(0.0768523 -0.284715 0)
(0.105001 -0.279903 0)
(0.132597 -0.273317 0)
(0.153845 -0.266841 0)
(0.176949 -0.261817 0)
(0.185241 -0.269845 0)
(0.214654 -0.286541 0)
(0.245239 -0.334257 0)
(0.300123 -0.332395 0)
(0.339297 -0.315548 0)
(0.366608 -0.308805 0)
(0.369104 -0.274511 0)
(0.37939 -0.224055 0)
(0.372954 -0.165695 0)
(0.397379 -0.0968802 0)
(0.473629 -0.0405222 0)
(0.507108 0.0445708 0)
(0.650055 0.161153 0)
(0.700132 0.292491 0)
(0.799789 0.310158 0)
(0.974673 0.437849 0)
(0.0173373 -0.33327 0)
(0.0504119 -0.334135 0)
(0.0827043 -0.330617 0)
(0.112988 -0.325045 0)
(0.140358 -0.315752 0)
(0.159231 -0.302736 0)
(0.169256 -0.284842 0)
(0.163698 -0.271789 0)
(0.168862 -0.287869 0)
(0.183842 -0.354043 0)
(0.21157 -0.366499 0)
(0.195132 -0.328856 0)
(0.106923 -0.26573 0)
(0.0121429 -0.206327 0)
(-0.0307158 -0.16763 0)
(-0.0330941 -0.155222 0)
(-0.000426443 -0.118418 0)
(0.0382377 -0.081879 0)
(0.128567 -0.0279608 0)
(0.265673 0.0457932 0)
(0.453558 0.184487 0)
(0.588666 0.164377 0)
(0.785757 0.24673 0)
(0.018542 -0.428758 0)
(0.0533625 -0.428714 0)
(0.0863961 -0.426113 0)
(0.11872 -0.420777 0)
(0.149311 -0.410694 0)
(0.175342 -0.392884 0)
(0.188413 -0.364962 0)
(0.153037 -0.349147 0)
(0.0901023 -0.381248 0)
(0.00338319 -0.444856 0)
(-0.068178 -0.355067 0)
(-0.174881 -0.215944 0)
(-0.242347 -0.154439 0)
(-0.227555 -0.148659 0)
(-0.206806 -0.154936 0)
(-0.168365 -0.155339 0)
(-0.119064 -0.147607 0)
(-0.0674001 -0.173028 0)
(-0.00376348 -0.151513 0)
(0.0475008 -0.152206 0)
(0.187732 -0.0449931 0)
(0.303531 -0.0415996 0)
(0.477147 -0.0120229 0)
(0.00632206 0.351154 0)
(0.0131964 0.373273 0)
(0.0249597 0.39552 0)
(0.0356603 0.428155 0)
(0.058055 0.463918 0)
(0.0930493 0.525056 0)
(0.168573 0.632392 0)
(0.1361 0.641032 0)
(-0.00597535 -0.0405331 0)
(-0.335842 -0.296035 0)
(-0.505785 -0.209256 0)
(-0.479144 -0.191163 0)
(-0.384019 -0.309566 0)
(-0.288992 -0.339284 0)
(-0.235553 -0.349484 0)
(-0.18615 -0.339531 0)
(-0.12855 -0.296906 0)
(-0.0772448 -0.259299 0)
(-0.038804 -0.187376 0)
(0.0283368 -0.178101 0)
(0.109222 -0.0983203 0)
(0.210481 -0.143147 0)
(0.281823 -0.160084 0)
(-0.0365283 -0.720782 0)
(-0.102326 -0.738841 0)
(-0.149087 -0.762442 0)
(-0.176544 -0.793552 0)
(-0.177249 -0.837925 0)
(-0.136999 -0.898259 0)
(-0.0701129 -0.912805 0)
(0.135403 -0.63861 0)
(0.416336 0.285852 0)
(0.0461416 0.763144 0)
(-0.275837 0.513018 0)
(-0.122453 0.360019 0)
(-0.0538788 0.417099 0)
(0.00459564 0.47119 0)
(-0.0137018 0.442344 0)
(0.0102295 0.146625 0)
(-0.00138471 -0.202079 0)
(0.0305159 -0.359452 0)
(0.0166198 -0.352111 0)
(0.0681055 -0.353057 0)
(0.106997 -0.26105 0)
(0.181635 -0.224067 0)
(0.225775 -0.191252 0)
(-0.0279968 -0.211712 0)
(-0.0760534 -0.215078 0)
(-0.110327 -0.217779 0)
(-0.137162 -0.225876 0)
(-0.15306 -0.242797 0)
(-0.167603 -0.261194 0)
(-0.216526 -0.28261 0)
(-0.294973 -0.312385 0)
(-0.197505 -0.335175 0)
(-0.142712 -0.0863534 0)
(0.0184606 -0.640828 0)
(0.182473 -0.851308 0)
(0.268091 -0.876674 0)
(0.397434 -0.82758 0)
(0.557813 -0.716625 0)
(0.696713 -0.490552 0)
(0.759887 -0.0965974 0)
(0.702287 0.398532 0)
(0.508155 0.560659 0)
(0.349782 0.46788 0)
(0.317495 -0.0733177 0)
(0.295789 -0.339636 0)
(0.349922 -0.383247 0)
(-0.0219562 -0.152021 0)
(-0.0561944 -0.187751 0)
(-0.0775836 -0.22794 0)
(-0.090448 -0.276714 0)
(-0.0956184 -0.328458 0)
(-0.096315 -0.359103 0)
(-0.0966284 -0.342967 0)
(-0.0843916 -0.215464 0)
(-0.0835141 0.263464 0)
(-0.0472505 0.416957 0)
(0.136817 0.022424 0)
(0.0867343 -0.213999 0)
(0.123121 -0.232431 0)
(0.128917 -0.250202 0)
(0.141643 -0.312453 0)
(0.146907 -0.403538 0)
(0.181135 -0.50623 0)
(0.283519 -0.59675 0)
(0.530334 -0.60823 0)
(0.735043 -0.589678 0)
(0.905061 -0.261347 0)
(0.943963 0.171925 0)
(0.831149 0.350673 0)
(-0.000598387 -0.334832 0)
(-0.000672708 -0.361562 0)
(-0.00506517 -0.384732 0)
(-0.0166098 -0.410577 0)
(-0.0388861 -0.435189 0)
(-0.0754031 -0.454516 0)
(-0.130106 -0.457294 0)
(-0.189115 -0.438775 0)
(-0.144359 -0.365633 0)
(0.109463 -0.248022 0)
(0.270689 -0.490019 0)
(0.23819 -0.567287 0)
(0.206603 -0.568405 0)
(0.206551 -0.501908 0)
(0.213363 -0.414288 0)
(0.223435 -0.306289 0)
(0.225742 -0.181513 0)
(0.172209 -0.113703 0)
(0.14336 -0.131599 0)
(0.035015 -0.26294 0)
(-0.038518 -0.454191 0)
(-0.0210475 -0.555292 0)
(0.0836456 -0.558083 0)
(0.000739805 -0.166431 0)
(0.00469033 -0.201584 0)
(0.00667772 -0.230957 0)
(0.00169393 -0.26239 0)
(-0.00920767 -0.288739 0)
(-0.0266224 -0.300769 0)
(-0.0486492 -0.289681 0)
(-0.0598168 -0.243402 0)
(-0.0722128 -0.152938 0)
(0.0308144 -0.124903 0)
(0.0794565 -0.284307 0)
(0.0664518 -0.365538 0)
(0.0430328 -0.433184 0)
(0.0477621 -0.477756 0)
(0.0637766 -0.488087 0)
(0.083183 -0.452482 0)
(0.11301 -0.380951 0)
(0.140451 -0.326156 0)
(0.157055 -0.255033 0)
(0.148282 -0.173534 0)
(0.0481535 -0.06267 0)
(-0.100322 -0.0301538 0)
(-0.203657 0.117099 0)
(0.00570859 -0.260976 0)
(0.0151722 -0.287559 0)
(0.0184483 -0.302174 0)
(0.0139446 -0.318399 0)
(0.00231694 -0.332648 0)
(-0.0170495 -0.340838 0)
(-0.0396747 -0.3402 0)
(-0.0566839 -0.330349 0)
(-0.0545968 -0.320457 0)
(-0.00257355 -0.302277 0)
(0.0161085 -0.368653 0)
(-0.0137061 -0.402512 0)
(-0.0308949 -0.431148 0)
(-0.0674136 -0.446177 0)
(-0.0938073 -0.436992 0)
(-0.12715 -0.390058 0)
(-0.150795 -0.328857 0)
(-0.168427 -0.291989 0)
(-0.198897 -0.272507 0)
(-0.230195 -0.235613 0)
(-0.226407 -0.21437 0)
(-0.255454 -0.229263 0)
(-0.222861 -0.245207 0)
(0.00511109 -0.252531 0)
(0.0130003 -0.278226 0)
(0.0154739 -0.290059 0)
(0.01169 -0.302026 0)
(0.000757588 -0.309985 0)
(-0.0168387 -0.310492 0)
(-0.0346906 -0.305663 0)
(-0.0489995 -0.29827 0)
(-0.0536966 -0.291625 0)
(-0.0351099 -0.292333 0)
(-0.0312877 -0.351129 0)
(-0.0595617 -0.385286 0)
(-0.0937551 -0.409453 0)
(-0.140249 -0.410768 0)
(-0.18663 -0.393688 0)
(-0.222177 -0.3427 0)
(-0.241787 -0.278264 0)
(-0.254041 -0.225474 0)
(-0.276284 -0.168865 0)
(-0.275625 -0.126962 0)
(-0.26821 -0.107909 0)
(-0.26128 -0.110235 0)
(-0.255918 -0.0611992 0)
(0.00231339 -0.255277 0)
(0.00434738 -0.276045 0)
(0.00347292 -0.282522 0)
(-0.00402221 -0.287293 0)
(-0.0148931 -0.288799 0)
(-0.0270844 -0.289185 0)
(-0.0383392 -0.288354 0)
(-0.048432 -0.28693 0)
(-0.0540419 -0.288958 0)
(-0.0515702 -0.294175 0)
(-0.063793 -0.317174 0)
(-0.0946323 -0.336328 0)
(-0.13459 -0.350302 0)
(-0.17836 -0.369497 0)
(-0.220904 -0.368244 0)
(-0.259922 -0.333097 0)
(-0.283192 -0.286801 0)
(-0.294591 -0.254016 0)
(-0.294962 -0.224779 0)
(-0.277121 -0.194005 0)
(-0.268111 -0.176097 0)
(-0.274548 -0.164897 0)
(-0.26892 -0.152438 0)
(0.000308483 -0.257374 0)
(-0.00259974 -0.276135 0)
(-0.00761692 -0.277689 0)
(-0.0155761 -0.28028 0)
(-0.0229448 -0.282257 0)
(-0.0308132 -0.283549 0)
(-0.0383201 -0.283762 0)
(-0.0431596 -0.283598 0)
(-0.0467946 -0.285892 0)
(-0.0541718 -0.289933 0)
(-0.0661884 -0.294465 0)
(-0.0949581 -0.302644 0)
(-0.125591 -0.316273 0)
(-0.163108 -0.330371 0)
(-0.209522 -0.329472 0)
(-0.248353 -0.305041 0)
(-0.256893 -0.269956 0)
(-0.253862 -0.249017 0)
(-0.248909 -0.22663 0)
(-0.235238 -0.193105 0)
(-0.228656 -0.174508 0)
(-0.225203 -0.169741 0)
(-0.221217 -0.147298 0)
(-0.00149812 -0.254364 0)
(-0.00583045 -0.269991 0)
(-0.0113133 -0.270442 0)
(-0.0158912 -0.272478 0)
(-0.0218771 -0.275469 0)
(-0.0272265 -0.277004 0)
(-0.0323259 -0.278319 0)
(-0.0375197 -0.280019 0)
(-0.0422671 -0.280154 0)
(-0.049423 -0.279208 0)
(-0.0630541 -0.282753 0)
(-0.0773732 -0.283633 0)
(-0.0921316 -0.287958 0)
(-0.117008 -0.28477 0)
(-0.149133 -0.277623 0)
(-0.170765 -0.270885 0)
(-0.186435 -0.251989 0)
(-0.199201 -0.230099 0)
(-0.205268 -0.211711 0)
(-0.209073 -0.18218 0)
(-0.208649 -0.1522 0)
(-0.216288 -0.136655 0)
(-0.225565 -0.121607 0)
(-0.00196649 -0.248252 0)
(-0.00676634 -0.264394 0)
(-0.0104993 -0.265673 0)
(-0.0155269 -0.268338 0)
(-0.0213906 -0.26992 0)
(-0.0281188 -0.271451 0)
(-0.0349552 -0.272009 0)
(-0.041856 -0.272629 0)
(-0.0492144 -0.273503 0)
(-0.0567306 -0.273795 0)
(-0.0659841 -0.271932 0)
(-0.0713448 -0.274964 0)
(-0.0846646 -0.275393 0)
(-0.100676 -0.273989 0)
(-0.120138 -0.272662 0)
(-0.137576 -0.263319 0)
(-0.161059 -0.255536 0)
(-0.178289 -0.239546 0)
(-0.185647 -0.223357 0)
(-0.189205 -0.205864 0)
(-0.190108 -0.182223 0)
(-0.191071 -0.159825 0)
(-0.19709 -0.142932 0)
(-0.00163874 -0.245281 0)
(-0.00596715 -0.260675 0)
(-0.0116568 -0.260778 0)
(-0.0177024 -0.261173 0)
(-0.0240873 -0.262192 0)
(-0.0311363 -0.263413 0)
(-0.0385041 -0.264724 0)
(-0.0461317 -0.264974 0)
(-0.0543362 -0.264064 0)
(-0.0638908 -0.263144 0)
(-0.0705269 -0.2634 0)
(-0.0813209 -0.260286 0)
(-0.0926219 -0.258952 0)
(-0.102829 -0.256839 0)
(-0.115965 -0.249978 0)
(-0.128815 -0.237513 0)
(-0.14347 -0.223584 0)
(-0.15623 -0.211639 0)
(-0.165786 -0.199451 0)
(-0.173584 -0.181923 0)
(-0.180844 -0.15474 0)
(-0.186586 -0.133708 0)
(-0.188541 -0.126066 0)
(-0.00225198 -0.240259 0)
(-0.00760057 -0.254564 0)
(-0.0131058 -0.25435 0)
(-0.0185968 -0.255007 0)
(-0.0244826 -0.255309 0)
(-0.0307532 -0.255014 0)
(-0.0377439 -0.254681 0)
(-0.0455355 -0.254357 0)
(-0.0543565 -0.254499 0)
(-0.0631954 -0.254999 0)
(-0.0742 -0.253568 0)
(-0.08392 -0.25236 0)
(-0.0937589 -0.248379 0)
(-0.107879 -0.244718 0)
(-0.119562 -0.237417 0)
(-0.129327 -0.228123 0)
(-0.137481 -0.217979 0)
(-0.14395 -0.210266 0)
(-0.154739 -0.202188 0)
(-0.164672 -0.185961 0)
(-0.16517 -0.161865 0)
(-0.168234 -0.145749 0)
(-0.165248 -0.139037 0)
(-0.00191184 -0.237232 0)
(-0.00647366 -0.251041 0)
(-0.0114749 -0.250619 0)
(-0.0168715 -0.250737 0)
(-0.0226854 -0.250648 0)
(-0.028814 -0.250511 0)
(-0.035104 -0.250043 0)
(-0.0418227 -0.249322 0)
(-0.0492331 -0.248352 0)
(-0.0582889 -0.247118 0)
(-0.0668407 -0.246273 0)
(-0.0739152 -0.244419 0)
(-0.0831295 -0.23993 0)
(-0.0933428 -0.234422 0)
(-0.104135 -0.229067 0)
(-0.115264 -0.222274 0)
(-0.124023 -0.212705 0)
(-0.133269 -0.199053 0)
(-0.142544 -0.18396 0)
(-0.146613 -0.172145 0)
(-0.153799 -0.156129 0)
(-0.152256 -0.140574 0)
(-0.150014 -0.135492 0)
(-0.00241669 -0.230544 0)
(-0.00795453 -0.243851 0)
(-0.0134493 -0.243341 0)
(-0.0190073 -0.243295 0)
(-0.0247516 -0.243003 0)
(-0.0307092 -0.242501 0)
(-0.0369498 -0.241769 0)
(-0.0434553 -0.240686 0)
(-0.0501467 -0.23909 0)
(-0.0563603 -0.236794 0)
(-0.0633245 -0.234894 0)
(-0.0738021 -0.231469 0)
(-0.0837419 -0.227202 0)
(-0.0908397 -0.222398 0)
(-0.0985353 -0.215657 0)
(-0.108713 -0.207792 0)
(-0.116637 -0.199006 0)
(-0.123947 -0.190837 0)
(-0.129075 -0.186271 0)
(-0.132817 -0.173241 0)
(-0.137968 -0.155051 0)
(-0.138428 -0.143436 0)
(-0.136649 -0.137476 0)
(-0.0021932 -0.227607 0)
(-0.0071314 -0.240544 0)
(-0.0123258 -0.239987 0)
(-0.0175161 -0.239771 0)
(-0.0228164 -0.239302 0)
(-0.028156 -0.238602 0)
(-0.0336312 -0.237593 0)
(-0.0394085 -0.23628 0)
(-0.045707 -0.234676 0)
(-0.0528224 -0.232469 0)
(-0.0609979 -0.228968 0)
(-0.0687183 -0.225485 0)
(-0.076254 -0.222684 0)
(-0.0853065 -0.216619 0)
(-0.0932936 -0.211021 0)
(-0.0981365 -0.20614 0)
(-0.104756 -0.198258 0)
(-0.111653 -0.188512 0)
(-0.11789 -0.175065 0)
(-0.125315 -0.161935 0)
(-0.127112 -0.153487 0)
(-0.126442 -0.146333 0)
(-0.126814 -0.135697 0)
(-0.00214203 -0.221377 0)
(-0.00696343 -0.23374 0)
(-0.012036 -0.233015 0)
(-0.0172469 -0.232522 0)
(-0.022767 -0.231755 0)
(-0.0286532 -0.230792 0)
(-0.0348919 -0.229661 0)
(-0.0413874 -0.228297 0)
(-0.0479012 -0.22641 0)
(-0.0541731 -0.223693 0)
(-0.0595198 -0.2201 0)
(-0.0646794 -0.217114 0)
(-0.0709618 -0.212336 0)
(-0.0771711 -0.208043 0)
(-0.0842131 -0.202249 0)
(-0.0928978 -0.193668 0)
(-0.101859 -0.186013 0)
(-0.10683 -0.177717 0)
(-0.110379 -0.170999 0)
(-0.111937 -0.166239 0)
(-0.113647 -0.153398 0)
(-0.117621 -0.14184 0)
(-0.11828 -0.135543 0)
(-0.00210787 -0.218638 0)
(-0.0067376 -0.230707 0)
(-0.0115012 -0.229961 0)
(-0.0162108 -0.22939 0)
(-0.0209911 -0.228524 0)
(-0.0258297 -0.227367 0)
(-0.0308291 -0.225891 0)
(-0.0361036 -0.224078 0)
(-0.0417722 -0.221944 0)
(-0.0478665 -0.219491 0)
(-0.0546815 -0.216538 0)
(-0.0620911 -0.212091 0)
(-0.0690871 -0.20762 0)
(-0.0758387 -0.202228 0)
(-0.081869 -0.19658 0)
(-0.0863415 -0.191922 0)
(-0.0894122 -0.186698 0)
(-0.0944069 -0.179025 0)
(-0.098375 -0.168002 0)
(-0.103821 -0.156664 0)
(-0.107447 -0.150082 0)
(-0.108404 -0.142912 0)
(-0.109418 -0.134123 0)
(-0.00204802 -0.212478 0)
(-0.00660565 -0.224147 0)
(-0.0113188 -0.223371 0)
(-0.0160441 -0.222672 0)
(-0.020897 -0.221667 0)
(-0.0258546 -0.220368 0)
(-0.0308981 -0.218728 0)
(-0.0360068 -0.216686 0)
(-0.0411586 -0.21417 0)
(-0.0463514 -0.211124 0)
(-0.0514423 -0.207625 0)
(-0.0562865 -0.204372 0)
(-0.0612568 -0.200427 0)
(-0.066368 -0.195678 0)
(-0.0716066 -0.190237 0)
(-0.0773556 -0.183472 0)
(-0.0839145 -0.175981 0)
(-0.0895423 -0.168951 0)
(-0.0934365 -0.16334 0)
(-0.0954074 -0.15721 0)
(-0.0975418 -0.148631 0)
(-0.100518 -0.14031 0)
(-0.101932 -0.133074 0)
(-0.00191047 -0.210245 0)
(-0.00598371 -0.221667 0)
(-0.0102737 -0.220901 0)
(-0.014508 -0.220159 0)
(-0.018885 -0.219105 0)
(-0.0234087 -0.21775 0)
(-0.0281176 -0.216073 0)
(-0.0330069 -0.214047 0)
(-0.0380314 -0.211642 0)
(-0.0431134 -0.208786 0)
(-0.0481974 -0.2052 0)
(-0.0534065 -0.200721 0)
(-0.0587683 -0.196182 0)
(-0.0640265 -0.19152 0)
(-0.0689991 -0.186332 0)
(-0.0733888 -0.180873 0)
(-0.0771179 -0.175158 0)
(-0.0805812 -0.168322 0)
(-0.0843201 -0.160409 0)
(-0.0879148 -0.152596 0)
(-0.0907857 -0.145852 0)
(-0.0931008 -0.138926 0)
(-0.0947397 -0.131703 0)
(-0.00180164 -0.204638 0)
(-0.00573403 -0.215634 0)
(-0.00980894 -0.214836 0)
(-0.0138469 -0.213936 0)
(-0.0179705 -0.212698 0)
(-0.0221506 -0.211125 0)
(-0.0263899 -0.209204 0)
(-0.0306978 -0.206927 0)
(-0.0351032 -0.204293 0)
(-0.0396431 -0.201341 0)
(-0.0442937 -0.198204 0)
(-0.0488262 -0.194773 0)
(-0.0531828 -0.190636 0)
(-0.0575519 -0.185841 0)
(-0.0619525 -0.180689 0)
(-0.0663466 -0.175099 0)
(-0.070694 -0.169035 0)
(-0.0747959 -0.162922 0)
(-0.078238 -0.15676 0)
(-0.0810112 -0.150302 0)
(-0.0835655 -0.143522 0)
(-0.0862013 -0.136792 0)
(-0.088172 -0.130149 0)
(-0.00169619 -0.202398 0)
(-0.00523802 -0.21328 0)
(-0.00898879 -0.212532 0)
(-0.0126725 -0.211644 0)
(-0.0164606 -0.210424 0)
(-0.0203299 -0.208869 0)
(-0.0242885 -0.206958 0)
(-0.0283243 -0.204666 0)
(-0.0324085 -0.201956 0)
(-0.0365062 -0.198789 0)
(-0.04063 -0.195141 0)
(-0.0448371 -0.191075 0)
(-0.0490857 -0.186768 0)
(-0.053238 -0.182193 0)
(-0.0572412 -0.177201 0)
(-0.0610842 -0.171831 0)
(-0.0647202 -0.166154 0)
(-0.0681603 -0.160062 0)
(-0.071441 -0.153664 0)
(-0.0744211 -0.147207 0)
(-0.0770903 -0.1409 0)
(-0.0797131 -0.134621 0)
(-0.0819458 -0.128295 0)
(-0.00152796 -0.198223 0)
(-0.00475041 -0.208717 0)
(-0.00816799 -0.207947 0)
(-0.0115144 -0.206935 0)
(-0.0149571 -0.205573 0)
(-0.0184669 -0.203873 0)
(-0.0220545 -0.201839 0)
(-0.0257209 -0.199476 0)
(-0.0294599 -0.19679 0)
(-0.0332513 -0.193778 0)
(-0.0370548 -0.190428 0)
(-0.040823 -0.1867 0)
(-0.0445476 -0.182538 0)
(-0.0482531 -0.17796 0)
(-0.0519164 -0.173044 0)
(-0.0554863 -0.167808 0)
(-0.0589376 -0.162268 0)
(-0.0622343 -0.156505 0)
(-0.0653226 -0.150545 0)
(-0.0681561 -0.144434 0)
(-0.0708002 -0.138293 0)
(-0.0734952 -0.132214 0)
(-0.0759837 -0.126144 0)
(-0.00139911 -0.195744 0)
(-0.00426147 -0.206109 0)
(-0.00734077 -0.205374 0)
(-0.01034 -0.204333 0)
(-0.0134386 -0.202945 0)
(-0.0165976 -0.201205 0)
(-0.0198281 -0.199108 0)
(-0.0231257 -0.196653 0)
(-0.0264791 -0.193837 0)
(-0.0298748 -0.190658 0)
(-0.0333005 -0.187124 0)
(-0.0367437 -0.18325 0)
(-0.0401785 -0.179058 0)
(-0.0435684 -0.174551 0)
(-0.0468927 -0.169715 0)
(-0.0501398 -0.16457 0)
(-0.0532899 -0.159149 0)
(-0.0563351 -0.153478 0)
(-0.059272 -0.14761 0)
(-0.0620619 -0.141622 0)
(-0.064717 -0.135619 0)
(-0.0674428 -0.129664 0)
(-0.0701291 -0.123715 0)
(-0.00121114 -0.192854 0)
(-0.003698 -0.202961 0)
(-0.0064265 -0.202224 0)
(-0.00905996 -0.201102 0)
(-0.0118022 -0.19963 0)
(-0.0146057 -0.197804 0)
(-0.0174876 -0.195627 0)
(-0.0204483 -0.19312 0)
(-0.0234749 -0.190293 0)
(-0.0265473 -0.187148 0)
(-0.0296415 -0.183679 0)
(-0.032736 -0.179876 0)
(-0.0358174 -0.175734 0)
(-0.0388771 -0.171264 0)
(-0.0418999 -0.166485 0)
(-0.0448693 -0.16142 0)
(-0.0477751 -0.156091 0)
(-0.0506119 -0.150536 0)
(-0.0533826 -0.144787 0)
(-0.0560782 -0.138893 0)
(-0.0587117 -0.132935 0)
(-0.0614497 -0.126996 0)
(-0.0642782 -0.121058 0)
(-0.0010112 -0.190714 0)
(-0.00311511 -0.200625 0)
(-0.0055002 -0.199896 0)
(-0.00776284 -0.198714 0)
(-0.0101372 -0.197182 0)
(-0.0125621 -0.195283 0)
(-0.0150612 -0.193023 0)
(-0.0176482 -0.190433 0)
(-0.0203174 -0.187528 0)
(-0.023055 -0.184314 0)
(-0.0258373 -0.180791 0)
(-0.0286377 -0.176957 0)
(-0.0314351 -0.172814 0)
(-0.0342111 -0.168368 0)
(-0.0369538 -0.163625 0)
(-0.0396582 -0.158603 0)
(-0.0423207 -0.153325 0)
(-0.0449445 -0.147818 0)
(-0.0475436 -0.142109 0)
(-0.0501265 -0.136238 0)
(-0.0527087 -0.130264 0)
(-0.0554222 -0.124262 0)
(-0.0583215 -0.118234 0)
(-0.000761958 -0.188797 0)
(-0.00250043 -0.198414 0)
(-0.00458977 -0.197686 0)
(-0.00649396 -0.196449 0)
(-0.00850273 -0.194872 0)
(-0.0105392 -0.192935 0)
(-0.012585 -0.190613 0)
(-0.0146709 -0.187936 0)
(-0.0168525 -0.184937 0)
(-0.019185 -0.181653 0)
(-0.021678 -0.178112 0)
(-0.0242597 -0.174296 0)
(-0.0268401 -0.170171 0)
(-0.0294125 -0.165746 0)
(-0.0319471 -0.161026 0)
(-0.0344364 -0.15603 0)
(-0.0368863 -0.150783 0)
(-0.0393041 -0.145298 0)
(-0.0417163 -0.139593 0)
(-0.0441515 -0.133698 0)
(-0.0466379 -0.127654 0)
(-0.0492822 -0.121522 0)
(-0.0521792 -0.115319 0)
(-0.000470548 -0.187328 0)
(-0.00193894 -0.19652 0)
(-0.00388176 -0.195804 0)
(-0.00551946 -0.194555 0)
(-0.00724509 -0.192971 0)
(-0.00893364 -0.191026 0)
(-0.010515 -0.188674 0)
(-0.0120427 -0.185925 0)
(-0.0135501 -0.182772 0)
(-0.0151264 -0.179267 0)
(-0.0168719 -0.175465 0)
(-0.0189163 -0.171467 0)
(-0.0212746 -0.167313 0)
(-0.0238345 -0.162981 0)
(-0.0264539 -0.158435 0)
(-0.0289536 -0.153599 0)
(-0.0313083 -0.148445 0)
(-0.0335877 -0.142993 0)
(-0.0358303 -0.137269 0)
(-0.038098 -0.131316 0)
(-0.0404417 -0.125156 0)
(-0.0429617 -0.118843 0)
(-0.0457762 -0.112397 0)
(-0.000186323 -0.186473 0)
(-0.00160223 -0.19492 0)
(-0.00371308 -0.194228 0)
(-0.00531997 -0.193023 0)
(-0.0070068 -0.191492 0)
(-0.00861981 -0.189649 0)
(-0.0101777 -0.187453 0)
(-0.011651 -0.18484 0)
(-0.0130246 -0.18179 0)
(-0.014242 -0.178256 0)
(-0.0153383 -0.174301 0)
(-0.0164032 -0.169999 0)
(-0.0175332 -0.165427 0)
(-0.0188178 -0.160654 0)
(-0.0204349 -0.155759 0)
(-0.0224907 -0.150802 0)
(-0.0249029 -0.145768 0)
(-0.0273982 -0.140561 0)
(-0.0296974 -0.135021 0)
(-0.0318619 -0.129099 0)
(-0.0340544 -0.122824 0)
(-0.0364038 -0.116294 0)
(-0.0390658 -0.109565 0)
(-1.30655e-05 -0.186153 0)
(-0.00177359 -0.193518 0)
(-0.00445208 -0.192874 0)
(-0.00640613 -0.191797 0)
(-0.00839046 -0.190329 0)
(-0.0101525 -0.188449 0)
(-0.0118923 -0.186257 0)
(-0.0134725 -0.183683 0)
(-0.0148616 -0.180736 0)
(-0.0160253 -0.177419 0)