/*--------------------------------*- C++ -*----------------------------------*\
| =========                 |                                                 |
| \\      /  F ield         | OpenFOAM: The Open Source CFD Toolbox           |
|  \\    /   O peration     | Version:  2.4.0                                 |
|   \\  /    A nd           | Web:      www.OpenFOAM.org                      |
|    \\/     M anipulation  |                                                 |
\*---------------------------------------------------------------------------*/
FoamFile
{
    version     2.0;
    format      ascii;
    class       volVectorField;
    location    "0.35";
    object      U.mercury;
}
// * * * * * * * * * * * * * * * * * * * * * * * * * * * * * * * * * * * * * //

dimensions      [0 1 -1 0 0 0 0];

internalField   nonuniform List<vector> 
2268
(
(0.0198054 -0.00925069 0)
(0.0581025 -0.00930688 0)
(0.0996207 -0.00910139 0)
(0.134496 -0.00996779 0)
(0.181284 -0.00786919 0)
(0.208714 -0.0115016 0)
(0.266553 -0.0086585 0)
(0.294546 -0.00812218 0)
(0.326764 -0.010264 0)
(0.378192 -0.0120738 0)
(0.433329 -0.00858977 0)
(0.45941 -0.00774074 0)
(0.483659 -0.00610485 0)
(0.5125 -0.00560687 0)
(0.533079 -0.00646775 0)
(0.573608 -0.00727198 0)
(0.580649 0.0028878 0)
(0.567117 0.00713414 0)
(0.529145 0.0155816 0)
(0.4502 0.020888 0)
(0.322781 0.0245121 0)
(0.171305 0.0369744 0)
(0.0282696 0.0136141 0)
(0.0198087 -0.0277604 0)
(0.0581326 -0.0279837 0)
(0.0997848 -0.0271361 0)
(0.134157 -0.0305957 0)
(0.181811 -0.0223505 0)
(0.210804 -0.0359083 0)
(0.263377 -0.0256421 0)
(0.295612 -0.0231881 0)
(0.329187 -0.031831 0)
(0.380711 -0.0354081 0)
(0.431878 -0.0300726 0)
(0.456569 -0.0198951 0)
(0.483519 -0.0170469 0)
(0.516774 -0.0198441 0)
(0.545653 -0.0226455 0)
(0.578883 -0.0170438 0)
(0.592229 0.0035693 0)
(0.577828 0.0227289 0)
(0.529129 0.045391 0)
(0.450727 0.0830681 0)
(0.305919 0.102021 0)
(0.221271 0.100402 0)
(0.0361572 0.0804751 0)
(0.0197803 -0.0462505 0)
(0.0581656 -0.0465959 0)
(0.0996224 -0.0453407 0)
(0.134021 -0.0501485 0)
(0.181994 -0.0398969 0)
(0.212161 -0.0561819 0)
(0.259563 -0.0433875 0)
(0.297277 -0.0415388 0)
(0.334123 -0.0534892 0)
(0.382366 -0.0566775 0)
(0.42478 -0.0464201 0)
(0.448343 -0.0337505 0)
(0.494946 -0.0358694 0)
(0.528916 -0.0349344 0)
(0.560233 -0.0396412 0)
(0.587971 -0.0290109 0)
(0.594421 0.00179782 0)
(0.58463 0.0378728 0)
(0.533531 0.0767281 0)
(0.454982 0.118915 0)
(0.330143 0.139485 0)
(0.190205 0.148294 0)
(0.0847987 0.143434 0)
(0.0197423 -0.0649541 0)
(0.0582429 -0.0653492 0)
(0.0992323 -0.0637597 0)
(0.134401 -0.0701988 0)
(0.181447 -0.0569105 0)
(0.213222 -0.0770069 0)
(0.258089 -0.061713 0)
(0.296647 -0.0608282 0)
(0.338296 -0.0741301 0)
(0.385875 -0.07461 0)
(0.408324 -0.0623221 0)
(0.454333 -0.0550749 0)
(0.50253 -0.0527815 0)
(0.540931 -0.0536387 0)
(0.580109 -0.0505043 0)
(0.591764 -0.0317683 0)
(0.594822 0.00989561 0)
(0.583448 0.0554525 0)
(0.544148 0.129803 0)
(0.475055 0.185032 0)
(0.332965 0.223305 0)
(0.174674 0.206518 0)
(0.0435096 0.208064 0)
(0.0197288 -0.0830834 0)
(0.0582973 -0.0833837 0)
(0.0990302 -0.0817333 0)
(0.134566 -0.0884375 0)
(0.181424 -0.0749714 0)
(0.212429 -0.094031 0)
(0.258707 -0.0789456 0)
(0.296515 -0.0798588 0)
(0.342958 -0.0937466 0)
(0.380748 -0.0836048 0)
(0.407697 -0.0799863 0)
(0.463002 -0.0720669 0)
(0.506408 -0.0747579 0)
(0.547896 -0.0619011 0)
(0.588901 -0.0645013 0)
(0.606304 -0.0428097 0)
(0.60765 0.00188975 0)
(0.605655 0.0550173 0)
(0.590224 0.143206 0)
(0.535062 0.232924 0)
(0.426742 0.292693 0)
(0.228421 0.282095 0)
(0.0803969 0.257179 0)
(0.0198073 -0.0992589 0)
(0.0585025 -0.0994901 0)
(0.099291 -0.0978591 0)
(0.135564 -0.105443 0)
(0.180199 -0.0903408 0)
(0.214628 -0.111082 0)
(0.25557 -0.09861 0)
(0.304923 -0.0999355 0)
(0.342036 -0.114455 0)
(0.375501 -0.11325 0)
(0.420603 -0.11977 0)
(0.468497 -0.127679 0)
(0.502033 -0.1418 0)
(0.546501 -0.157453 0)
(0.575282 -0.177406 0)
(0.598332 -0.172505 0)
(0.62738 -0.135811 0)
(0.616849 -0.0632458 0)
(0.601308 0.0850956 0)
(0.529906 0.222823 0)
(0.457938 0.350328 0)
(0.269326 0.356216 0)
(0.0575897 0.350284 0)
(0.0199777 -0.140887 0)
(0.0588196 -0.142022 0)
(0.100114 -0.142446 0)
(0.136959 -0.152856 0)
(0.17714 -0.142455 0)
(0.222046 -0.165883 0)
(0.247493 -0.164931 0)
(0.308896 -0.172975 0)
(0.333546 -0.193633 0)
(0.371379 -0.212068 0)
(0.403582 -0.238315 0)
(0.432401 -0.253891 0)
(0.444155 -0.298596 0)
(0.444539 -0.34595 0)
(0.423944 -0.401575 0)
(0.430557 -0.410207 0)
(0.420006 -0.401035 0)
(0.494446 -0.214357 0)
(0.561277 -0.0321931 0)
(0.470967 0.201395 0)
(0.427989 0.386095 0)
(0.319897 0.425316 0)
(0.127622 0.41442 0)
(0.0195472 -0.225475 0)
(0.0574378 -0.227532 0)
(0.0976023 -0.230325 0)
(0.13372 -0.241246 0)
(0.166602 -0.243396 0)
(0.216298 -0.269793 0)
(0.230113 -0.299235 0)
(0.264836 -0.318542 0)
(0.291132 -0.362335 0)
(0.298908 -0.424334 0)
(0.280548 -0.481395 0)
(0.262276 -0.536716 0)
(0.266648 -0.564084 0)
(0.269301 -0.549778 0)
(0.220073 -0.299201 0)
(0.198032 -0.18832 0)
(0.202845 -0.147307 0)
(0.276119 -0.161403 0)
(0.539636 -0.151907 0)
(0.429875 0.0718234 0)
(0.347494 0.390049 0)
(0.287797 0.488306 0)
(0.113526 0.558633 0)
(-0.641593 -0.0823003 0)
(-1.06712 -0.202158 0)
(-1.13829 -0.309539 0)
(-1.08872 -0.365929 0)
(-0.966297 -0.411133 0)
(-0.771262 -0.493927 0)
(-0.523541 -0.599394 0)
(-0.125269 -0.748825 0)
(0.175869 -0.898455 0)
(0.350087 -1.03732 0)
(0.63162 -1.05077 0)
(0.772236 -0.94819 0)
(1.00572 -0.926786 0)
(1.06021 -0.843633 0)
(1.11853 -0.810722 0)
(1.09424 -0.793178 0)
(1.02512 -0.779882 0)
(0.900947 -0.764221 0)
(0.770251 -0.711786 0)
(-0.496304 0.0765086 0)
(-0.94661 0.0374182 0)
(-1.13167 -0.012067 0)
(-1.17304 -0.100899 0)
(-1.10294 -0.167713 0)
(-0.890911 -0.289605 0)
(-0.567287 -0.475648 0)
(0.300556 -0.765924 0)
(0.397238 -0.937386 0)
(0.567744 -1.18825 0)
(0.761514 -1.116 0)
(0.998217 -1.10928 0)
(1.05778 -0.917961 0)
(1.15677 -0.842043 0)
(1.16317 -0.800952 0)
(1.14093 -0.779471 0)
(1.0754 -0.651016 0)
(0.788192 -0.467254 0)
(0.369209 -0.239353 0)
(-0.40533 0.298144 0)
(-0.838633 0.293187 0)
(-1.05833 0.103674 0)
(-1.08342 -0.0558479 0)
(-0.995137 -0.178006 0)
(-0.757286 -0.315432 0)
(-0.442629 -0.538931 0)
(0.450769 -0.838973 0)
(0.463246 -0.980018 0)
(0.644173 -1.19253 0)
(0.916045 -1.2868 0)
(1.0475 -1.19285 0)
(1.19065 -1.08023 0)
(1.24095 -0.997638 0)
(1.22658 -0.939953 0)
(1.13628 -0.792918 0)
(0.939244 -0.489772 0)
(0.46279 -0.142394 0)
(0.126985 -0.0692573 0)
(-0.289504 0.527729 0)
(-0.698415 0.438107 0)
(-0.944475 0.20172 0)
(-0.903812 -0.029511 0)
(-0.811804 -0.139407 0)
(-0.551705 -0.325972 0)
(-0.21245 -0.558579 0)
(0.614793 -0.823914 0)
(0.582412 -1.00958 0)
(0.763263 -1.24262 0)
(0.959447 -1.28331 0)
(1.11455 -1.24877 0)
(1.22592 -1.15822 0)
(1.25841 -1.11085 0)
(1.23017 -0.973342 0)
(1.12214 -0.700313 0)
(0.867669 -0.247893 0)
(0.434206 0.0251941 0)
(0.170417 0.0501584 0)
(-0.224982 0.630291 0)
(-0.612579 0.537275 0)
(-0.772929 0.328289 0)
(-0.500239 0.0500182 0)
(-0.463246 -0.182326 0)
(-0.281579 -0.295076 0)
(0.111135 -0.605418 0)
(0.723423 -0.865391 0)
(0.67614 -1.03265 0)
(0.821235 -1.2537 0)
(0.993082 -1.30001 0)
(1.12912 -1.28761 0)
(1.21205 -1.27443 0)
(1.24047 -1.21312 0)
(1.21688 -1.00155 0)
(0.961904 -0.354447 0)
(0.737 0.0441774 0)
(0.438198 0.155397 0)
(0.187853 0.116095 0)
(-0.180639 0.794721 0)
(-0.497745 0.743396 0)
(-0.484462 0.349142 0)
(-0.13243 -0.148325 0)
(-0.151934 -0.407362 0)
(0.0463582 -0.463174 0)
(0.0710956 -0.483803 0)
(0.830447 -0.884289 0)
(0.76872 -1.03846 0)
(0.877143 -1.25568 0)
(1.02712 -1.2963 0)
(1.15498 -1.30591 0)
(1.23325 -1.33895 0)
(1.2484 -1.27346 0)
(1.11958 -0.628847 0)
(0.81531 0.0611884 0)
(0.670862 0.250583 0)
(0.37502 0.251596 0)
(0.122269 0.197604 0)
(-0.13088 0.874819 0)
(-0.348323 0.793077 0)
(-0.131846 0.191959 0)
(0.0793412 -0.163168 0)
(-0.0296229 0.124199 0)
(-0.234813 -0.0126317 0)
(0.477845 -0.824495 0)
(0.877318 -0.874678 0)
(0.840256 -1.02571 0)
(0.915556 -1.24627 0)
(1.0459 -1.28198 0)
(1.16902 -1.30142 0)
(1.2578 -1.33501 0)
(1.29897 -1.2902 0)
(1.04458 -0.408163 0)
(0.768921 0.16602 0)
(0.602245 0.345906 0)
(0.330714 0.33365 0)
(0.111774 0.288256 0)
(-0.000437519 0.939128 0)
(-0.132058 0.876035 0)
(0.110272 0.165213 0)
(-0.0952534 -0.0336927 0)
(-0.276764 -0.248787 0)
(0.326646 -0.535937 0)
(0.0589202 -0.417873 0)
(0.929232 -0.672331 0)
(0.897899 -0.995707 0)
(0.954475 -1.21784 0)
(1.06547 -1.26932 0)
(1.16899 -1.28044 0)
(1.23837 -1.27974 0)
(1.29657 -1.31647 0)
(0.924726 -0.201052 0)
(0.687572 0.367521 0)
(0.592333 0.442418 0)
(0.356216 0.452984 0)
(0.1371 0.379762 0)
(0.0155614 -0.428832 0)
(0.0458072 -0.432921 0)
(0.0752408 -0.440921 0)
(0.102538 -0.454569 0)
(0.113933 -0.469578 0)
(0.150452 -0.481281 0)
(0.160438 -0.480628 0)
(0.175425 -0.492681 0)
(0.20651 -0.51485 0)
(0.221557 -0.542723 0)
(0.232125 -0.579737 0)
(0.251034 -0.618391 0)
(0.281559 -0.547809 0)
(0.319877 -0.25371 0)
(0.355309 -0.0929827 0)
(0.364073 0.0069471 0)
(0.316673 0.151537 0)
(0.254823 0.175187 0)
(0.32749 0.0536027 0)
(0.421541 -0.0187061 0)
(0.22781 0.271151 0)
(0.289336 0.470145 0)
(0.262309 0.594329 0)
(0.00998773 -0.638149 0)
(0.0281869 -0.633218 0)
(0.0484896 -0.618622 0)
(0.0679541 -0.590903 0)
(0.0865707 -0.548364 0)
(0.110868 -0.480308 0)
(0.127004 -0.385675 0)
(0.155135 -0.318047 0)
(0.19556 -0.259479 0)
(0.229194 -0.219642 0)
(0.270196 -0.188712 0)
(0.306109 -0.165292 0)
(0.321016 -0.130404 0)
(0.333734 -0.114633 0)
(0.318922 -0.103046 0)
(0.32847 -0.0971671 0)
(0.343586 -0.0660651 0)
(0.41067 0.00096091 0)
(0.36232 0.0870967 0)
(0.445017 0.0486505 0)
(0.258513 0.139289 0)
(0.295821 0.356557 0)
(0.286499 0.503931 0)
(0.0135624 -0.232476 0)
(0.0400176 -0.23195 0)
(0.0670653 -0.226863 0)
(0.0947285 -0.221085 0)
(0.12104 -0.213514 0)
(0.146913 -0.208908 0)
(0.17457 -0.19133 0)
(0.198097 -0.20327 0)
(0.232894 -0.191503 0)
(0.253714 -0.186041 0)
(0.298061 -0.189761 0)
(0.330385 -0.186412 0)
(0.361895 -0.170925 0)
(0.400558 -0.141743 0)
(0.427476 -0.0626045 0)
(0.472724 -0.0180983 0)
(0.481369 0.0772653 0)
(0.499949 0.128128 0)
(0.508419 0.225041 0)
(0.524242 0.285061 0)
(0.409189 0.113651 0)
(0.431932 0.229992 0)
(0.377649 0.387388 0)
(0.0142913 -0.222581 0)
(0.0427273 -0.22372 0)
(0.0708794 -0.222706 0)
(0.098607 -0.221274 0)
(0.125292 -0.219831 0)
(0.149057 -0.22327 0)
(0.176662 -0.21405 0)
(0.198074 -0.234946 0)
(0.228608 -0.220708 0)
(0.253766 -0.231287 0)
(0.306993 -0.23307 0)
(0.343294 -0.221492 0)
(0.382596 -0.19127 0)
(0.408538 -0.167035 0)
(0.449602 -0.113698 0)
(0.49453 -0.0996976 0)
(0.536121 -0.0323607 0)
(0.574961 0.042037 0)
(0.622969 0.138128 0)
(0.674298 0.264467 0)
(0.68727 0.27105 0)
(0.617976 0.21844 0)
(0.544482 0.371943 0)
(0.014571 -0.274856 0)
(0.0444435 -0.275409 0)
(0.0731728 -0.272949 0)
(0.100822 -0.269043 0)
(0.1285 -0.264401 0)
(0.150107 -0.260552 0)
(0.177503 -0.254709 0)
(0.192565 -0.264306 0)
(0.223975 -0.262424 0)
(0.252486 -0.290149 0)
(0.310657 -0.289824 0)
(0.351817 -0.259711 0)
(0.397745 -0.247133 0)
(0.433746 -0.226007 0)
(0.495752 -0.175343 0)
(0.534417 -0.132438 0)
(0.566191 -0.0461337 0)
(0.620567 0.0376722 0)
(0.647998 0.0989338 0)
(0.742534 0.214083 0)
(0.768536 0.280472 0)
(0.798587 0.148478 0)
(0.69636 0.339983 0)
(0.0157584 -0.288036 0)
(0.0465223 -0.288411 0)
(0.0768523 -0.284726 0)
(0.105001 -0.279914 0)
(0.132597 -0.273329 0)
(0.153846 -0.266853 0)
(0.176949 -0.261827 0)
(0.185242 -0.269851 0)
(0.214655 -0.286545 0)
(0.245206 -0.334164 0)
(0.299981 -0.331705 0)
(0.33911 -0.314337 0)
(0.366923 -0.310326 0)
(0.371363 -0.282861 0)
(0.383061 -0.239119 0)
(0.377654 -0.185182 0)
(0.401659 -0.117612 0)
(0.477984 -0.0611774 0)
(0.508366 0.0270822 0)
(0.651706 0.150901 0)
(0.703556 0.28552 0)
(0.853162 0.147641 0)
(0.78586 0.2436 0)
(0.0173191 -0.338889 0)
(0.0503711 -0.340022 0)
(0.0826669 -0.336756 0)
(0.112988 -0.331489 0)
(0.140448 -0.322402 0)
(0.159514 -0.309418 0)
(0.169835 -0.290611 0)
(0.164394 -0.275054 0)
(0.168909 -0.288902 0)
(0.18345 -0.353788 0)
(0.211872 -0.367843 0)
(0.197562 -0.339272 0)
(0.112917 -0.28881 0)
(0.0123021 -0.231362 0)
(-0.033282 -0.185884 0)
(-0.0347808 -0.167865 0)
(-0.00203494 -0.127383 0)
(0.0371606 -0.087924 0)
(0.126574 -0.034761 0)
(0.278027 0.0344982 0)
(0.467321 0.174641 0)
(0.630564 0.0936595 0)
(0.742619 0.124634 0)
(0.0177485 -0.569522 0)
(0.051506 -0.572106 0)
(0.0841102 -0.572024 0)
(0.11652 -0.570334 0)
(0.147879 -0.564308 0)
(0.176041 -0.551655 0)
(0.195968 -0.519099 0)
(0.174064 -0.469177 0)
(0.0983815 -0.456364 0)
(0.00336939 -0.483812 0)
(-0.0674003 -0.401371 0)
(-0.171161 -0.252749 0)
(-0.240858 -0.173123 0)
(-0.226259 -0.156806 0)
(-0.205977 -0.158991 0)
(-0.168015 -0.157034 0)
(-0.119004 -0.148174 0)
(-0.0673865 -0.173198 0)
(-0.00374289 -0.151714 0)
(0.0475242 -0.152451 0)
(0.191084 -0.0461222 0)
(0.304365 -0.0620383 0)
(0.478418 -0.0786884 0)
(0.0149946 -0.669061 0)
(0.0375996 -0.649344 0)
(0.0641684 -0.6217 0)
(0.0864747 -0.582481 0)
(0.114741 -0.535094 0)
(0.144884 -0.471086 0)
(0.202517 -0.415044 0)
(0.18494 -0.49615 0)
(-0.0144994 -0.737101 0)
(-0.30453 -0.647334 0)
(-0.501497 -0.473545 0)
(-0.46825 -0.420393 0)
(-0.374277 -0.509178 0)
(-0.279526 -0.483445 0)
(-0.224134 -0.458616 0)
(-0.176483 -0.412462 0)
(-0.124043 -0.337731 0)
(-0.0754989 -0.278574 0)
(-0.0381565 -0.193426 0)
(0.0288124 -0.180703 0)
(0.109268 -0.0987027 0)
(0.210681 -0.146403 0)
(0.276605 -0.180603 0)
(-0.0365038 -0.720773 0)
(-0.102327 -0.738833 0)
(-0.14909 -0.762436 0)
(-0.176547 -0.793549 0)
(-0.177252 -0.837922 0)
(-0.137005 -0.898246 0)
(-0.0740726 -0.911156 0)
(0.00177665 -0.680025 0)
(0.237163 0.0802125 0)
(-0.0388948 0.560993 0)
(-0.304948 0.380546 0)
(-0.14423 0.256008 0)
(-0.106333 0.107952 0)
(-0.0880173 -0.155013 0)
(-0.0722599 -0.390302 0)
(-0.0265908 -0.599084 0)
(-0.00470446 -0.691712 0)
(0.0422172 -0.647744 0)
(0.0283053 -0.503952 0)
(0.0870998 -0.453634 0)
(0.114562 -0.300785 0)
(0.183181 -0.244228 0)
(0.226159 -0.202071 0)
(-0.027997 -0.211724 0)
(-0.0760539 -0.215088 0)
(-0.110328 -0.217789 0)
(-0.137165 -0.225884 0)
(-0.153063 -0.242804 0)
(-0.167609 -0.261248 0)
(-0.216543 -0.282957 0)
(-0.294973 -0.312436 0)
(-0.197459 -0.33526 0)
(-0.142703 -0.0863535 0)
(0.0184525 -0.640827 0)
(0.182468 -0.851308 0)
(0.268089 -0.876674 0)
(0.397433 -0.827579 0)
(0.557808 -0.716624 0)
(0.696694 -0.490559 0)
(0.759571 -0.0968858 0)
(0.681905 0.327371 0)
(0.411507 0.121507 0)
(0.309766 -0.307015 0)
(0.28773 -0.622691 0)
(0.286834 -0.644419 0)
(0.354338 -0.562951 0)
(-0.0219563 -0.152018 0)
(-0.0561951 -0.187749 0)
(-0.0775852 -0.227938 0)
(-0.090451 -0.276712 0)
(-0.0956222 -0.328457 0)
(-0.0963198 -0.359102 0)
(-0.0966343 -0.342965 0)
(-0.0843994 -0.215462 0)
(-0.0835235 0.263466 0)
(-0.047262 0.41696 0)
(0.136807 0.0224276 0)
(0.0867259 -0.213995 0)
(0.123115 -0.232429 0)
(0.128913 -0.250201 0)
(0.14164 -0.312454 0)
(0.146905 -0.403539 0)
(0.181132 -0.506229 0)
(0.283518 -0.596747 0)
(0.530335 -0.608227 0)
(0.735041 -0.589674 0)
(0.905007 -0.261384 0)
(0.941463 0.166099 0)
(0.799468 0.224503 0)
(-0.00059856 -0.334834 0)
(-0.000673339 -0.361564 0)
(-0.00506646 -0.384734 0)
(-0.016612 -0.41058 0)
(-0.0388894 -0.435192 0)
(-0.0754076 -0.454519 0)
(-0.130111 -0.457297 0)
(-0.189122 -0.438777 0)
(-0.144366 -0.365633 0)
(0.109455 -0.248021 0)
(0.270682 -0.490017 0)
(0.238183 -0.567283 0)
(0.206597 -0.5684 0)
(0.206546 -0.501903 0)
(0.213359 -0.414284 0)
(0.223431 -0.306285 0)
(0.225739 -0.181508 0)
(0.172205 -0.113698 0)
(0.143358 -0.131596 0)
(0.035013 -0.262941 0)
(-0.0385225 -0.454196 0)
(-0.021054 -0.555296 0)
(0.0836429 -0.558087 0)
(0.000739608 -0.166432 0)
(0.00468964 -0.201585 0)
(0.00667634 -0.230958 0)
(0.00169165 -0.262392 0)
(-0.00921096 -0.28874 0)
(-0.0266267 -0.300771 0)
(-0.0486546 -0.289682 0)
(-0.0598232 -0.243403 0)
(-0.0722197 -0.152938 0)
(0.0308074 -0.124902 0)
(0.0794496 -0.284305 0)
(0.0664455 -0.365536 0)
(0.0430275 -0.433182 0)
(0.0477576 -0.477754 0)
(0.0637727 -0.488084 0)
(0.0831797 -0.452479 0)
(0.113007 -0.380948 0)
(0.140448 -0.326153 0)
(0.157052 -0.25503 0)
(0.148277 -0.173533 0)
(0.0481478 -0.0626708 0)
(-0.100328 -0.0301545 0)
(-0.203664 0.1171 0)
(0.00570833 -0.260977 0)
(0.0151714 -0.287561 0)
(0.0184467 -0.302176 0)
(0.0139422 -0.3184 0)
(0.00231356 -0.33265 0)
(-0.0170537 -0.34084 0)
(-0.0396797 -0.340201 0)
(-0.0566895 -0.33035 0)
(-0.0546028 -0.320457 0)
(-0.00257987 -0.302277 0)
(0.0161022 -0.368652 0)
(-0.0137119 -0.40251 0)
(-0.0309 -0.431146 0)
(-0.0674182 -0.446175 0)
(-0.0938115 -0.436991 0)
(-0.127154 -0.390056 0)
(-0.150799 -0.328856 0)
(-0.168431 -0.291989 0)
(-0.198902 -0.272508 0)
(-0.230201 -0.235614 0)
(-0.226413 -0.214371 0)
(-0.255461 -0.229265 0)
(-0.222867 -0.245208 0)
(0.0051108 -0.252533 0)
(0.0129994 -0.278229 0)
(0.0154723 -0.290062 0)
(0.0116875 -0.302029 0)
(0.000754184 -0.309987 0)
(-0.0168429 -0.310494 0)
(-0.0346955 -0.305665 0)
(-0.0490048 -0.298272 0)
(-0.0537022 -0.291626 0)
(-0.0351155 -0.292333 0)
(-0.0312932 -0.35113 0)
(-0.0595669 -0.385286 0)
(-0.0937599 -0.409452 0)
(-0.140254 -0.410767 0)
(-0.186634 -0.393688 0)
(-0.222181 -0.342699 0)
(-0.241791 -0.278264 0)
(-0.254046 -0.225474 0)
(-0.27629 -0.168865 0)
(-0.275632 -0.126963 0)
(-0.268217 -0.107911 0)
(-0.261287 -0.110237 0)
(-0.255925 -0.0612008 0)
(0.00231311 -0.25528 0)
(0.00434644 -0.276048 0)
(0.00347122 -0.282525 0)
(-0.00402469 -0.287295 0)
(-0.0148963 -0.288802 0)
(-0.0270883 -0.289188 0)
(-0.0383437 -0.288356 0)
(-0.048437 -0.286931 0)
(-0.0540471 -0.288959 0)
(-0.0515755 -0.294176 0)
(-0.0637983 -0.317175 0)
(-0.0946373 -0.336329 0)
(-0.134594 -0.350302 0)
(-0.178364 -0.369497 0)
(-0.220908 -0.368245 0)
(-0.259927 -0.333097 0)
(-0.283197 -0.286801 0)
(-0.294597 -0.254016 0)
(-0.294968 -0.22478 0)
(-0.277128 -0.194006 0)
(-0.268119 -0.176098 0)
(-0.274555 -0.164898 0)
(-0.268927 -0.15244 0)
(0.000308147 -0.257377 0)
(-0.00260075 -0.276138 0)
(-0.00761862 -0.277692 0)
(-0.0155785 -0.280283 0)
(-0.0229479 -0.28226 0)
(-0.0308169 -0.283552 0)
(-0.0383244 -0.283765 0)
(-0.0431643 -0.2836 0)
(-0.0467995 -0.285893 0)
(-0.0541768 -0.289934 0)
(-0.0661934 -0.294466 0)
(-0.0949629 -0.302645 0)
(-0.125596 -0.316273 0)
(-0.163112 -0.330371 0)
(-0.209526 -0.329472 0)
(-0.248357 -0.305041 0)
(-0.256898 -0.269957 0)
(-0.253868 -0.249017 0)
(-0.248915 -0.226631 0)
(-0.235245 -0.193106 0)
(-0.228663 -0.17451 0)
(-0.22521 -0.169743 0)
(-0.221224 -0.147299 0)
(-0.0014984 -0.254367 0)
(-0.00583136 -0.269994 0)
(-0.0113149 -0.270446 0)
(-0.0158935 -0.272481 0)
(-0.02188 -0.275472 0)
(-0.02723 -0.277007 0)
(-0.0323298 -0.278322 0)
(-0.037524 -0.280021 0)
(-0.0422716 -0.280156 0)
(-0.0494277 -0.27921 0)
(-0.0630588 -0.282755 0)
(-0.0773778 -0.283634 0)
(-0.0921361 -0.287959 0)
(-0.117013 -0.284771 0)
(-0.149138 -0.277623 0)
(-0.170769 -0.270886 0)
(-0.186441 -0.25199 0)
(-0.199206 -0.2301 0)
(-0.205274 -0.211712 0)
(-0.209079 -0.18218 0)
(-0.208656 -0.152201 0)
(-0.216294 -0.136655 0)
(-0.225571 -0.121607 0)
(-0.0019668 -0.248256 0)
(-0.00676726 -0.264398 0)
(-0.0105008 -0.265677 0)
(-0.0155291 -0.268342 0)
(-0.0213933 -0.269923 0)
(-0.028122 -0.271454 0)
(-0.0349589 -0.272011 0)
(-0.04186 -0.272631 0)
(-0.0492187 -0.273505 0)
(-0.056735 -0.273797 0)
(-0.0659886 -0.271933 0)
(-0.0713492 -0.274965 0)
(-0.084669 -0.275394 0)
(-0.100681 -0.27399 0)
(-0.120142 -0.272663 0)
(-0.137581 -0.26332 0)
(-0.161064 -0.255537 0)
(-0.178295 -0.239547 0)
(-0.185653 -0.223358 0)
(-0.189211 -0.205865 0)
(-0.190114 -0.182223 0)
(-0.191076 -0.159825 0)
(-0.197095 -0.142931 0)
(-0.00163901 -0.245285 0)
(-0.00596798 -0.260679 0)
(-0.0116582 -0.260782 0)
(-0.0177043 -0.261177 0)
(-0.0240898 -0.262196 0)
(-0.0311392 -0.263416 0)
(-0.0385074 -0.264727 0)
(-0.0461354 -0.264977 0)
(-0.0543401 -0.264066 0)
(-0.0638949 -0.263146 0)
(-0.0705311 -0.263402 0)
(-0.0813251 -0.260287 0)
(-0.0926261 -0.258953 0)
(-0.102834 -0.25684 0)
(-0.115969 -0.249979 0)
(-0.12882 -0.237514 0)
(-0.143475 -0.223585 0)
(-0.156236 -0.21164 0)
(-0.165793 -0.199452 0)
(-0.17359 -0.181923 0)
(-0.18085 -0.154741 0)
(-0.186592 -0.133707 0)
(-0.188546 -0.126065 0)
(-0.00225225 -0.240263 0)
(-0.00760137 -0.254568 0)
(-0.0131072 -0.254354 0)
(-0.0185986 -0.25501 0)
(-0.0244849 -0.255313 0)
(-0.0307559 -0.255017 0)
(-0.037747 -0.254684 0)
(-0.0455389 -0.254359 0)
(-0.0543601 -0.254501 0)
(-0.0631993 -0.255001 0)
(-0.074204 -0.25357 0)
(-0.0839241 -0.252361 0)
(-0.093763 -0.248381 0)
(-0.107883 -0.24472 0)
(-0.119566 -0.237418 0)
(-0.129332 -0.228124 0)
(-0.137487 -0.217981 0)
(-0.143956 -0.210267 0)
(-0.154745 -0.202189 0)
(-0.164677 -0.185961 0)
(-0.165176 -0.161865 0)
(-0.16824 -0.145748 0)
(-0.165253 -0.139036 0)
(-0.00191207 -0.237236 0)
(-0.00647437 -0.251044 0)
(-0.0114761 -0.250622 0)
(-0.0168732 -0.25074 0)
(-0.0226875 -0.250651 0)
(-0.0288165 -0.250514 0)
(-0.0351069 -0.250046 0)
(-0.0418258 -0.249325 0)
(-0.0492365 -0.248354 0)
(-0.0582925 -0.24712 0)
(-0.0668445 -0.246274 0)
(-0.073919 -0.24442 0)
(-0.0831334 -0.239931 0)
(-0.0933469 -0.234423 0)
(-0.104139 -0.229069 0)
(-0.115269 -0.222275 0)
(-0.124028 -0.212706 0)
(-0.133274 -0.199054 0)
(-0.14255 -0.183961 0)
(-0.146618 -0.172145 0)
(-0.153805 -0.156128 0)
(-0.152261 -0.140574 0)
(-0.150018 -0.135492 0)
(-0.00241692 -0.230547 0)
(-0.00795522 -0.243854 0)
(-0.0134504 -0.243344 0)
(-0.0190089 -0.243298 0)
(-0.0247535 -0.243006 0)
(-0.0307115 -0.242504 0)
(-0.0369524 -0.241772 0)
(-0.0434583 -0.240689 0)
(-0.0501499 -0.239092 0)
(-0.0563637 -0.236796 0)
(-0.063328 -0.234895 0)
(-0.0738057 -0.23147 0)
(-0.0837457 -0.227203 0)
(-0.0908437 -0.222399 0)
(-0.0985394 -0.215658 0)
(-0.108718 -0.207793 0)
(-0.116642 -0.199007 0)
(-0.123953 -0.190838 0)
(-0.129081 -0.186272 0)
(-0.132823 -0.173241 0)
(-0.137973 -0.155051 0)
(-0.138433 -0.143435 0)
(-0.136653 -0.137475 0)
(-0.00219339 -0.227611 0)
(-0.007132 -0.240547 0)
(-0.0123268 -0.23999 0)
(-0.0175175 -0.239774 0)
(-0.0228182 -0.239305 0)
(-0.0281581 -0.238605 0)
(-0.0336337 -0.237595 0)
(-0.0394112 -0.236282 0)
(-0.0457099 -0.234678 0)
(-0.0528256 -0.232471 0)
(-0.0610013 -0.22897 0)
(-0.0687218 -0.225487 0)
(-0.0762576 -0.222685 0)
(-0.0853103 -0.21662 0)
(-0.0932977 -0.211022 0)
(-0.0981409 -0.206141 0)
(-0.10476 -0.198258 0)
(-0.111658 -0.188513 0)
(-0.117896 -0.175066 0)
(-0.125321 -0.161935 0)
(-0.127117 -0.153487 0)
(-0.126447 -0.146333 0)
(-0.126818 -0.135696 0)
(-0.00214222 -0.221381 0)
(-0.00696401 -0.233743 0)
(-0.0120369 -0.233018 0)
(-0.0172482 -0.232525 0)
(-0.0227686 -0.231758 0)
(-0.0286551 -0.230794 0)
(-0.0348941 -0.229664 0)
(-0.0413899 -0.2283 0)
(-0.0479039 -0.226412 0)
(-0.0541761 -0.223695 0)
(-0.0595229 -0.220101 0)
(-0.0646827 -0.217115 0)
(-0.0709652 -0.212337 0)
(-0.0771747 -0.208044 0)
(-0.0842169 -0.20225 0)
(-0.0929019 -0.193669 0)
(-0.101864 -0.186013 0)
(-0.106835 -0.177718 0)
(-0.110384 -0.171 0)
(-0.111942 -0.16624 0)
(-0.113652 -0.153398 0)
(-0.117625 -0.14184 0)
(-0.118283 -0.135543 0)
(-0.00210803 -0.218641 0)
(-0.00673811 -0.23071 0)
(-0.011502 -0.229964 0)
(-0.016212 -0.229392 0)
(-0.0209926 -0.228526 0)
(-0.0258315 -0.22737 0)
(-0.0308312 -0.225893 0)
(-0.0361059 -0.22408 0)
(-0.0417747 -0.221946 0)
(-0.0478692 -0.219493 0)
(-0.0546844 -0.21654 0)
(-0.0620942 -0.212092 0)
(-0.0690903 -0.207621 0)
(-0.0758421 -0.202229 0)
(-0.0818727 -0.196581 0)
(-0.0863456 -0.191923 0)
(-0.0894165 -0.186699 0)
(-0.0944116 -0.179026 0)
(-0.0983799 -0.168002 0)
(-0.103826 -0.156664 0)
(-0.107452 -0.150082 0)
(-0.108408 -0.142912 0)
(-0.109422 -0.134123 0)
(-0.00204819 -0.212481 0)
(-0.00660614 -0.224149 0)
(-0.0113196 -0.223374 0)
(-0.0160452 -0.222674 0)
(-0.0208984 -0.22167 0)
(-0.0258563 -0.220371 0)
(-0.0309 -0.218731 0)
(-0.0360089 -0.216688 0)
(-0.041161 -0.214171 0)
(-0.046354 -0.211126 0)
(-0.051445 -0.207626 0)
(-0.0562894 -0.204374 0)
(-0.0612599 -0.200428 0)
(-0.0663713 -0.195679 0)
(-0.0716101 -0.190238 0)
(-0.0773594 -0.183473 0)
(-0.0839187 -0.175981 0)
(-0.0895468 -0.168952 0)
(-0.0934412 -0.163341 0)
(-0.0954123 -0.15721 0)
(-0.0975465 -0.148631 0)
(-0.100523 -0.14031 0)
(-0.101936 -0.133074 0)
(-0.00191061 -0.210247 0)
(-0.00598414 -0.221669 0)
(-0.0102744 -0.220903 0)
(-0.014509 -0.220162 0)
(-0.0188862 -0.219107 0)
(-0.0234102 -0.217752 0)
(-0.0281193 -0.216075 0)
(-0.0330089 -0.214049 0)
(-0.0380336 -0.211644 0)
(-0.0431158 -0.208788 0)
(-0.0482 -0.205202 0)
(-0.0534093 -0.200722 0)
(-0.0587712 -0.196183 0)
(-0.0640295 -0.19152 0)
(-0.0690024 -0.186333 0)
(-0.0733925 -0.180873 0)
(-0.0771219 -0.175159 0)
(-0.0805856 -0.168323 0)
(-0.0843247 -0.160409 0)
(-0.0879194 -0.152596 0)
(-0.0907904 -0.145852 0)
(-0.0931052 -0.138926 0)
(-0.0947438 -0.131704 0)
(-0.00180178 -0.20464 0)
(-0.00573444 -0.215637 0)
(-0.0098096 -0.214838 0)
(-0.0138478 -0.213939 0)
(-0.0179717 -0.2127 0)
(-0.022152 -0.211127 0)
(-0.0263915 -0.209206 0)
(-0.0306996 -0.206928 0)
(-0.0351052 -0.204294 0)
(-0.0396453 -0.201342 0)
(-0.044296 -0.198206 0)
(-0.0488288 -0.194774 0)
(-0.0531855 -0.190637 0)
(-0.0575549 -0.185842 0)
(-0.0619557 -0.18069 0)
(-0.06635 -0.1751 0)
(-0.0706978 -0.169036 0)
(-0.0748 -0.162922 0)
(-0.0782424 -0.15676 0)
(-0.0810158 -0.150302 0)
(-0.08357 -0.143522 0)
(-0.0862058 -0.136792 0)
(-0.0881763 -0.130149 0)
(-0.0016963 -0.2024 0)
(-0.00523837 -0.213283 0)
(-0.00898938 -0.212534 0)
(-0.0126734 -0.211646 0)
(-0.0164617 -0.210426 0)
(-0.0203312 -0.208872 0)
(-0.02429 -0.20696 0)
(-0.0283259 -0.204668 0)
(-0.0324104 -0.201958 0)
(-0.0365082 -0.19879 0)
(-0.0406322 -0.195142 0)
(-0.0448395 -0.191076 0)
(-0.0490883 -0.186769 0)
(-0.0532407 -0.182194 0)
(-0.0572442 -0.177202 0)
(-0.0610876 -0.171832 0)
(-0.0647238 -0.166154 0)
(-0.0681643 -0.160062 0)
(-0.0714453 -0.153664 0)
(-0.0744255 -0.147206 0)
(-0.0770949 -0.1409 0)
(-0.0797176 -0.134621 0)
(-0.0819503 -0.128295 0)
(-0.00152808 -0.198226 0)
(-0.00475075 -0.208719 0)
(-0.00816853 -0.20795 0)
(-0.0115151 -0.206937 0)
(-0.0149581 -0.205575 0)
(-0.0184681 -0.203875 0)
(-0.0220559 -0.201841 0)
(-0.0257224 -0.199478 0)
(-0.0294616 -0.196791 0)
(-0.0332531 -0.193779 0)
(-0.0370568 -0.190429 0)
(-0.0408252 -0.186701 0)
(-0.04455 -0.182538 0)
(-0.0482557 -0.17796 0)
(-0.0519192 -0.173044 0)
(-0.0554894 -0.167808 0)
(-0.0589411 -0.162268 0)
(-0.0622381 -0.156505 0)
(-0.0653267 -0.150545 0)
(-0.0681604 -0.144434 0)
(-0.0708046 -0.138293 0)
(-0.0734999 -0.132214 0)
(-0.0759884 -0.126144 0)
(-0.0013992 -0.195746 0)
(-0.00426174 -0.206111 0)
(-0.00734125 -0.205376 0)
(-0.0103407 -0.204336 0)
(-0.0134395 -0.202947 0)
(-0.0165987 -0.201207 0)
(-0.0198293 -0.19911 0)
(-0.0231271 -0.196655 0)
(-0.0264806 -0.193838 0)
(-0.0298764 -0.19066 0)
(-0.0333023 -0.187125 0)
(-0.0367457 -0.183251 0)
(-0.0401807 -0.179059 0)
(-0.0435707 -0.174551 0)
(-0.0468953 -0.169715 0)
(-0.0501428 -0.16457 0)
(-0.0532931 -0.159149 0)
(-0.0563388 -0.153477 0)
(-0.0592759 -0.14761 0)
(-0.062066 -0.141621 0)
(-0.0647214 -0.135619 0)
(-0.0674474 -0.129663 0)
(-0.070134 -0.123715 0)
(-0.00121124 -0.192856 0)
(-0.00369827 -0.202963 0)
(-0.00642693 -0.202226 0)
(-0.00906055 -0.201104 0)
(-0.011803 -0.199632 0)
(-0.0146066 -0.197806 0)
(-0.0174887 -0.195629 0)
(-0.0204496 -0.193122 0)
(-0.0234763 -0.190295 0)
(-0.0265488 -0.18715 0)
(-0.0296431 -0.18368 0)
(-0.0327378 -0.179877 0)
(-0.0358194 -0.175735 0)
(-0.0388793 -0.171264 0)
(-0.0419023 -0.166486 0)
(-0.0448721 -0.16142 0)
(-0.0477782 -0.156091 0)
(-0.0506153 -0.150536 0)
(-0.0533863 -0.144787 0)
(-0.0560822 -0.138892 0)
(-0.058716 -0.132934 0)
(-0.0614543 -0.126995 0)
(-0.0642831 -0.121058 0)
(-0.00101127 -0.190716 0)
(-0.00311533 -0.200627 0)
(-0.00550057 -0.199898 0)
(-0.00776336 -0.198716 0)
(-0.0101379 -0.197184 0)
(-0.0125629 -0.195285 0)
(-0.0150621 -0.193025 0)
(-0.0176492 -0.190435 0)
(-0.0203186 -0.187529 0)
(-0.0230563 -0.184315 0)
(-0.0258388 -0.180792 0)
(-0.0286394 -0.176957 0)
(-0.0314369 -0.172815 0)
(-0.0342131 -0.168368 0)
(-0.0369561 -0.163625 0)
(-0.0396608 -0.158603 0)
(-0.0423235 -0.153325 0)
(-0.0449477 -0.147818 0)
(-0.047547 -0.142109 0)
(-0.0501302 -0.136237 0)
(-0.0527128 -0.130263 0)
(-0.0554267 -0.12426 0)
(-0.0583264 -0.118233 0)
(-0.000762031 -0.188799 0)
(-0.00250064 -0.198416 0)
(-0.00459009 -0.197688 0)
(-0.00649441 -0.196451 0)
(-0.0085033 -0.194874 0)
(-0.0105399 -0.192937 0)
(-0.0125858 -0.190614 0)
(-0.0146718 -0.187937 0)
(-0.0168536 -0.184939 0)
(-0.0191861 -0.181654 0)
(-0.0216793 -0.178113 0)
(-0.0242612 -0.174297 0)
(-0.0268417 -0.170172 0)
(-0.0294144 -0.165746 0)
(-0.0319491 -0.161026 0)
(-0.0344387 -0.15603 0)
(-0.036889 -0.150783 0)
(-0.0393071 -0.145297 0)
(-0.0417195 -0.139592 0)
(-0.044155 -0.133697 0)
(-0.0466417 -0.127652 0)
(-0.0492864 -0.12152 0)
(-0.0521839 -0.115317 0)
(-0.000470594 -0.187329 0)
(-0.00193909 -0.196522 0)
(-0.00388203 -0.195806 0)
(-0.00551984 -0.194557 0)
(-0.00724557 -0.192973 0)
(-0.00893423 -0.191027 0)
(-0.0105157 -0.188675 0)
(-0.0120435 -0.185927 0)
(-0.013551 -0.182773 0)
(-0.0151274 -0.179268 0)
(-0.016873 -0.175466 0)
(-0.0189176 -0.171467 0)
(-0.021276 -0.167314 0)
(-0.0238361 -0.162982 0)
(-0.0264558 -0.158435 0)
(-0.0289558 -0.153599 0)
(-0.0313107 -0.148445 0)
(-0.0335904 -0.142993 0)
(-0.0358332 -0.137268 0)
(-0.0381011 -0.131314 0)
(-0.040445 -0.125155 0)
(-0.0429654 -0.11884 0)
(-0.0457806 -0.112394 0)
(-0.000186376 -0.186475 0)
(-0.00160237 -0.194922 0)
(-0.0037133 -0.19423 0)
(-0.00532028 -0.193025 0)
(-0.00700719 -0.191494 0)
(-0.00862029 -0.189651 0)
(-0.0101783 -0.187455 0)
(-0.0116517 -0.184841 0)
(-0.0130253 -0.181791 0)
(-0.0142428 -0.178257 0)
(-0.0153392 -0.174302 0)
(-0.0164043 -0.17 0)
(-0.0175344 -0.165428 0)
(-0.0188192 -0.160654 0)
(-0.0204366 -0.155759 0)
(-0.0224927 -0.150802 0)
(-0.0249051 -0.145768 0)
(-0.0274005 -0.14056 0)
(-0.0296998 -0.13502 0)
(-0.0318645 -0.129098 0)
(-0.0340572 -0.122821 0)
(-0.0364071 -0.116291 0)
(-0.0390697 -0.109561 0)
(-1.30907e-05 -0.186154 0)
(-0.00177368 -0.19352 0)
(-0.00445225 -0.192876 0)
(-0.00640636 -0.191799 0)
(-0.00839076 -0.19033 0)
(-0.0101528 -0.188451 0)
(-0.0118928 -0.186259 0)
(-0.013473 -0.183685 0)
(-0.0148622 -0.180737 0)
(-0.016026 -0.17742 0)
(-0.0168865 -0.17366 0)
(-0.0174724 -0.169475 0)